/*--------------------------------*- C++ -*----------------------------------*\
| =========                 |                                                 |
| \\      /  F ield         | OpenFOAM: The Open Source CFD Toolbox           |
|  \\    /   O peration     | Version:  2.4.x                                 |
|   \\  /    A nd           | Web:      www.OpenFOAM.org                      |
|    \\/     M anipulation  |                                                 |
\*---------------------------------------------------------------------------*/
FoamFile
{
    version     2.0;
    format      ascii;
    class       volScalarField;
    location    "6.25";
    object      alpha_0;
}
// * * * * * * * * * * * * * * * * * * * * * * * * * * * * * * * * * * * * * //

dimensions      [0 0 0 0 0 0 0];

internalField   nonuniform List<scalar> 
360
(
0.610696
0.611458
0.611573
0.611497
0.611449
0.611429
0.61141
0.611388
0.611364
0.61134
0.611316
0.611292
0.611267
0.611243
0.611218
0.611193
0.611167
0.611142
0.611116
0.61109
0.611064
0.611037
0.61101
0.610983
0.610956
0.610928
0.610901
0.610873
0.610844
0.610816
0.610787
0.610758
0.610729
0.610699
0.610669
0.610639
0.610609
0.610578
0.610546
0.610515
0.610483
0.61045
0.610418
0.610385
0.610352
0.610318
0.610285
0.610251
0.610218
0.610184
0.61015
0.610116
0.610082
0.610047
0.610011
0.609974
0.609937
0.609897
0.609855
0.60981
0.609761
0.609711
0.609659
0.609609
0.609564
0.609524
0.609488
0.609454
0.609422
0.609388
0.609353
0.609317
0.60928
0.609242
0.609203
0.609163
0.609122
0.60908
0.609038
0.608994
0.608949
0.608903
0.608856
0.608808
0.608758
0.608707
0.608655
0.608602
0.608548
0.608492
0.608436
0.608378
0.608319
0.608259
0.608197
0.608133
0.608069
0.608002
0.607934
0.607865
0.607794
0.607721
0.607646
0.60757
0.607492
0.607412
0.607329
0.607245
0.607158
0.607069
0.606978
0.606884
0.606788
0.606689
0.606587
0.606482
0.606374
0.606262
0.606148
0.606029
0.605907
0.605781
0.605651
0.605517
0.605378
0.605234
0.605086
0.604932
0.604771
0.604605
0.604431
0.604251
0.604062
0.603864
0.603653
0.60343
0.603196
0.602947
0.602672
0.602356
0.602015
0.60169
0.601301
0.600796
0.600171
0.599023
0.595394
0.593116
0.392372
0.240522
0.179168
0.138083
0.106724
0.0823829
0.0637052
0.0495384
0.0388471
0.0307666
0.0246222
0.0199086
0.0162558
0.013395
0.0111309
0.00932107
0.00786059
0.00667159
0.00569567
0.00488857
0.0042164
0.00365298
0.00317791
0.00277511
0.00243184
0.00213792
0.00188514
0.00166685
0.00147761
0.00131298
0.00116926
0.00104341
0.00093288
0.000835528
0.000749558
0.000673448
0.000605908
0.000545838
0.000492297
0.000444478
0.000401686
0.000363319
0.000328855
0.000297835
0.000269856
0.000244565
0.000221649
0.00020083
0.000181861
0.000164529
0.000148656
0.000134106
0.000120791
0.000108488
9.70088e-05
8.63186e-05
7.63602e-05
6.70536e-05
5.83963e-05
5.04253e-05
4.31621e-05
3.6645e-05
3.08828e-05
2.5865e-05
2.15633e-05
1.78971e-05
1.48071e-05
1.22322e-05
1.00847e-05
8.30373e-06
6.83267e-06
5.61932e-06
4.61446e-06
3.78144e-06
3.09774e-06
2.53188e-06
2.06356e-06
1.6789e-06
1.36235e-06
1.10108e-06
8.87347e-07
7.09898e-07
5.68004e-07
4.46399e-07
3.54515e-07
2.70926e-07
2.21583e-07
1.48529e-07
1.85182e-07
1.5173e-07
4.51491e-08
2.97741e-08
2.59218e-09
2.16542e-27
2.71361e-28
1.29832e-28
7.1449e-29
4.7685e-29
3.57376e-29
2.9118e-29
2.39497e-29
1.81203e-29
1.09481e-29
4.52271e-30
2.05176e-30
1.10053e-30
6.64676e-31
4.44486e-31
3.14954e-31
2.04755e-31
9.66129e-32
4.37315e-32
2.27507e-32
1.26764e-32
7.4248e-33
4.11873e-33
1.95796e-33
9.83026e-34
5.02648e-34
2.53627e-34
1.2535e-34
6.10709e-35
2.92167e-35
1.37165e-35
6.31529e-36
2.84956e-36
1.25917e-36
5.4448e-37
2.30205e-37
9.50848e-38
3.83329e-38
1.50686e-38
5.76988e-39
2.14964e-39
7.78316e-40
2.73514e-40
9.31614e-41
3.071e-41
9.78156e-42
3.0051e-42
8.88787e-43
2.5253e-43
6.87697e-44
1.79036e-44
4.4433e-45
1.04787e-45
2.33986e-46
4.92698e-47
9.73766e-48
1.79667e-48
3.07525e-49
4.84663e-50
6.96997e-51
9.04569e-52
1.04476e-52
1.05462e-53
9.07969e-55
6.43896e-56
3.56428e-57
1.40145e-58
3.1696e-60
1.45745e-62
1.85617e-66
1.97745e-68
1.04536e-70
3.38599e-81
5.42493e-92
6.05139e-103
4.92492e-114
3.29284e-125
1.73673e-136
7.73915e-148
1.19005e-157
4.65163e-168
4.03119e-176
1.40551e-186
1.38663e-194
5.60761e-205
4.77046e-213
2.36363e-223
1.64259e-231
1.49202e-241
5.72659e-250
9.70856e-260
2.03283e-268
4.79246e-278
7.3407e-287
2.2661e-296
2.6909e-305
9.94179e-315
4.46798e-319
2.8055e-319
6.80328e-321
7.09478e-321
6.08689e-321
8.5424e-321
0
0
0
0
0
0
0
0
0
0
0
0
0
0
0
0
)
;

boundaryField
{
    inandouthalf11
    {
        type            cyclic;
    }
    inandouthalf12
    {
        type            cyclic;
    }
    inandouthalf21
    {
        type            cyclic;
    }
    inandouthalf22
    {
        type            cyclic;
    }
    inandouthalf31
    {
        type            cyclic;
    }
    inandouthalf32
    {
        type            cyclic;
    }
    inandouthalf41
    {
        type            cyclic;
    }
    inandouthalf42
    {
        type            cyclic;
    }
    top
    {
        type            symmetryPlane;
    }
    walls
    {
        type            zeroGradient;
    }
    frontAndBackPlanes
    {
        type            empty;
    }
}


// ************************************************************************* //
