/*--------------------------------*- C++ -*----------------------------------*\
| =========                 |                                                 |
| \\      /  F ield         | OpenFOAM: The Open Source CFD Toolbox           |
|  \\    /   O peration     | Version:  2.4.x                                 |
|   \\  /    A nd           | Web:      www.OpenFOAM.org                      |
|    \\/     M anipulation  |                                                 |
\*---------------------------------------------------------------------------*/
FoamFile
{
    version     2.0;
    format      ascii;
    class       volVectorField;
    location    "6.25";
    object      ddt0(Ub);
}
// * * * * * * * * * * * * * * * * * * * * * * * * * * * * * * * * * * * * * //

dimensions      [0 1 -2 0 0 0 0];

internalField   nonuniform List<vector> 
360
(
(0.000118458 -2.99624e-08 0)
(0.000117903 -1.16046e-07 0)
(0.000117817 -2.23387e-07 0)
(0.000117916 -3.22061e-07 0)
(0.000117983 -4.17485e-07 0)
(0.000118023 -5.14692e-07 0)
(0.000118063 -6.1423e-07 0)
(0.000118107 -7.14982e-07 0)
(0.000118152 -8.16078e-07 0)
(0.000118197 -9.17315e-07 0)
(0.000118243 -1.01889e-06 0)
(0.00011829 -1.121e-06 0)
(0.000118336 -1.22374e-06 0)
(0.000118383 -1.32706e-06 0)
(0.00011843 -1.43093e-06 0)
(0.000118477 -1.53531e-06 0)
(0.000118525 -1.64022e-06 0)
(0.000118574 -1.74571e-06 0)
(0.000118622 -1.85178e-06 0)
(0.000118671 -1.95845e-06 0)
(0.000118721 -2.06566e-06 0)
(0.000118771 -2.17338e-06 0)
(0.000118821 -2.28152e-06 0)
(0.000118871 -2.38999e-06 0)
(0.000118922 -2.49864e-06 0)
(0.000118974 -2.60731e-06 0)
(0.000119025 -2.71582e-06 0)
(0.000119077 -2.82412e-06 0)
(0.00011913 -2.9322e-06 0)
(0.000119182 -3.04015e-06 0)
(0.000119235 -3.14827e-06 0)
(0.000119288 -3.25706e-06 0)
(0.000119342 -3.36721e-06 0)
(0.000119397 -3.47965e-06 0)
(0.000119452 -3.59531e-06 0)
(0.000119508 -3.7151e-06 0)
(0.000119565 -3.83965e-06 0)
(0.000119624 -3.96908e-06 0)
(0.000119684 -4.1028e-06 0)
(0.000119744 -4.23892e-06 0)
(0.000119806 -4.37441e-06 0)
(0.000119867 -4.50477e-06 0)
(0.000119926 -4.62429e-06 0)
(0.000119984 -4.72682e-06 0)
(0.000120038 -4.8065e-06 0)
(0.000120088 -4.8592e-06 0)
(0.000120133 -4.884e-06 0)
(0.000120174 -4.8843e-06 0)
(0.000120212 -4.86885e-06 0)
(0.000120249 -4.85162e-06 0)
(0.000120289 -4.85143e-06 0)
(0.000120336 -4.89166e-06 0)
(0.000120395 -5.00006e-06 0)
(0.000120472 -5.21e-06 0)
(0.000120575 -5.56214e-06 0)
(0.000120714 -6.1074e-06 0)
(0.000120902 -6.90658e-06 0)
(0.000121152 -8.02294e-06 0)
(0.000121474 -9.49253e-06 0)
(0.000121863 -1.12536e-05 0)
(0.000122273 -1.30344e-05 0)
(0.000122588 -1.42624e-05 0)
(0.000122641 -1.41899e-05 0)
(0.000122306 -1.23618e-05 0)
(0.000121654 -9.13591e-06 0)
(0.000120941 -5.6067e-06 0)
(0.000120412 -2.83122e-06 0)
(0.000120134 -1.1804e-06 0)
(0.000120034 -4.12984e-07 0)
(0.000120022 -1.24836e-07 0)
(0.000120044 -3.39503e-08 0)
(0.000120076 -8.70107e-09 0)
(0.000120112 -2.19846e-09 0)
(0.000120151 -5.66251e-10 0)
(0.00012019 -1.48127e-10 0)
(0.000120231 -3.34233e-11 0)
(0.000120272 1.19694e-12 0)
(0.000120314 1.23559e-11 0)
(0.000120357 2.02199e-11 0)
(0.000120402 2.21585e-11 0)
(0.000120447 2.20991e-11 0)
(0.000120493 2.17555e-11 0)
(0.000120541 1.44831e-11 0)
(0.00012059 8.33232e-12 0)
(0.00012064 5.56979e-12 0)
(0.000120692 2.63995e-14 0)
(0.000120745 -3.04714e-12 0)
(0.000120798 -3.83127e-12 0)
(0.000120853 -6.00443e-12 0)
(0.000120909 -1.2485e-11 0)
(0.000120967 -2.09565e-11 0)
(0.000121025 -2.50043e-11 0)
(0.000121085 -2.98729e-11 0)
(0.000121147 -3.58244e-11 0)
(0.00012121 -4.36791e-11 0)
(0.000121274 -4.8409e-11 0)
(0.00012134 -5.33027e-11 0)
(0.000121408 -6.05928e-11 0)
(0.000121477 -6.80432e-11 0)
(0.000121548 -7.2117e-11 0)
(0.00012162 -7.47641e-11 0)
(0.000121694 -8.07089e-11 0)
(0.00012177 -8.58847e-11 0)
(0.000121848 -8.9588e-11 0)
(0.000121928 -9.37597e-11 0)
(0.00012201 -1.004e-10 0)
(0.000122095 -1.06595e-10 0)
(0.000122181 -1.13388e-10 0)
(0.00012227 -1.17955e-10 0)
(0.000122361 -1.21854e-10 0)
(0.000122454 -1.29694e-10 0)
(0.000122551 -1.39431e-10 0)
(0.00012265 -1.45228e-10 0)
(0.000122752 -1.48376e-10 0)
(0.000122857 -1.52741e-10 0)
(0.000122965 -1.55263e-10 0)
(0.000123076 -1.63723e-10 0)
(0.000123191 -1.77454e-10 0)
(0.000123309 -1.85146e-10 0)
(0.000123432 -1.90793e-10 0)
(0.000123558 -1.9472e-10 0)
(0.000123688 -2.00191e-10 0)
(0.000123823 -2.06338e-10 0)
(0.000123962 -2.10766e-10 0)
(0.000124106 -2.25022e-10 0)
(0.000124256 -2.41226e-10 0)
(0.00012441 -2.5204e-10 0)
(0.000124571 -2.59628e-10 0)
(0.000124738 -2.68249e-10 0)
(0.000124912 -2.76667e-10 0)
(0.000125093 -2.86815e-10 0)
(0.000125282 -3.00677e-10 0)
(0.00012548 -3.1565e-10 0)
(0.000125688 -3.36093e-10 0)
(0.00012591 -3.57715e-10 0)
(0.000126145 -3.76424e-10 0)
(0.000126392 -4.01114e-10 0)
(0.000126654 -4.3999e-10 0)
(0.000126946 -4.77634e-10 0)
(0.000127281 -4.9657e-10 0)
(0.000127644 -5.61217e-10 0)
(0.000127991 -6.50446e-10 0)
(0.000128408 -7.40999e-10 0)
(0.00012895 -1.25147e-09 0)
(0.000129626 -3.7747e-09 0)
(0.000130891 -1.7936e-07 0)
(0.000135385 7.89827e-06 0)
(0.000597138 -4.04292e-05 0)
(0.115064 2.01565e-06 0)
(0.138855 0.000764629 0)
(0.133946 0.000284722 0)
(0.13816 0.000385119 0)
(0.145173 0.000296214 0)
(0.152978 0.000231616 0)
(0.160692 0.000183739 0)
(0.167931 0.000146626 0)
(0.174554 0.000117852 0)
(0.180543 9.57347e-05 0)
(0.185936 7.86903e-05 0)
(0.190792 6.54329e-05 0)
(0.195172 5.49862e-05 0)
(0.199137 4.66447e-05 0)
(0.202742 3.98962e-05 0)
(0.206031 3.43676e-05 0)
(0.209047 2.97866e-05 0)
(0.211824 2.59531e-05 0)
(0.21439 2.2718e-05 0)
(0.21677 1.99688e-05 0)
(0.218987 1.76191e-05 0)
(0.221057 1.56014e-05 0)
(0.222997 1.38618e-05 0)
(0.22482 1.23563e-05 0)
(0.226537 1.10491e-05 0)
(0.228158 9.90995e-06 0)
(0.229691 8.91375e-06 0)
(0.231145 8.03928e-06 0)
(0.232525 7.2687e-06 0)
(0.233836 6.58693e-06 0)
(0.235084 5.98126e-06 0)
(0.236274 5.44102e-06 0)
(0.237407 4.95724e-06 0)
(0.238488 4.5222e-06 0)
(0.239519 4.12949e-06 0)
(0.240502 3.77383e-06 0)
(0.24144 3.4506e-06 0)
(0.242334 3.1559e-06 0)
(0.243185 2.88642e-06 0)
(0.243994 2.63934e-06 0)
(0.244762 2.41221e-06 0)
(0.24549 2.20288e-06 0)
(0.246177 2.00941e-06 0)
(0.246825 1.83e-06 0)
(0.247433 1.66292e-06 0)
(0.248001 1.50655e-06 0)
(0.248528 1.35936e-06 0)
(0.249014 1.21992e-06 0)
(0.249458 1.08701e-06 0)
(0.249859 9.59863e-07 0)
(0.250216 8.3844e-07 0)
(0.250527 7.23492e-07 0)
(0.250791 6.15958e-07 0)
(0.251009 5.15218e-07 0)
(0.251178 4.2055e-07 0)
(0.251293 3.32074e-07 0)
(0.25135 2.49742e-07 0)
(0.251341 1.74318e-07 0)
(0.251259 1.07933e-07 0)
(0.251097 5.27557e-08 0)
(0.250845 9.92051e-09 0)
(0.250493 -2.05427e-08 0)
(0.250031 -3.97295e-08 0)
(0.249448 -4.96742e-08 0)
(0.248729 -5.29113e-08 0)
(0.247862 -5.17289e-08 0)
(0.246832 -4.77706e-08 0)
(0.245622 -4.24303e-08 0)
(0.244216 -3.6766e-08 0)
(0.242597 -3.12583e-08 0)
(0.240747 -2.61812e-08 0)
(0.238651 -2.17573e-08 0)
(0.236293 -1.80076e-08 0)
(0.233663 -1.48046e-08 0)
(0.230755 -1.20877e-08 0)
(0.227572 -9.84393e-09 0)
(0.224127 -7.9864e-09 0)
(0.220443 -6.43709e-09 0)
(0.216563 -5.16855e-09 0)
(0.212539 -4.14175e-09 0)
(0.20844 -3.30691e-09 0)
(0.204339 -2.62676e-09 0)
(0.200312 -2.08085e-09 0)
(0.196428 -1.63895e-09 0)
(0.192743 -1.26772e-09 0)
(0.189292 -9.60579e-10 0)
(0.186095 -6.75441e-10 0)
(0.183155 -7.46237e-10 0)
(0.180462 -1.31267e-10 0)
(0.178002 4.79134e-10 0)
(0.175758 1.15801e-10 0)
(0.173714 -4.36219e-11 0)
(0.171854 1.02701e-10 0)
(0.170167 1.35708e-10 0)
(0.168641 -2.8389e-11 0)
(0.167268 2.88966e-11 0)
(0.166038 3.01443e-11 0)
(0.164945 2.5258e-11 0)
(0.163984 2.70973e-11 0)
(0.16315 4.0608e-12 0)
(0.162444 8.72157e-11 0)
(0.16187 -5.2423e-11 0)
(0.16144 8.53433e-11 0)
(0.161177 3.85862e-11 0)
(0.161122 -1.05871e-10 0)
(0.161346 3.10264e-10 0)
(0.161978 -4.3409e-10 0)
(0.164203 6.51229e-10 0)
(0.167313 -7.64738e-10 0)
(0.16781 9.50796e-10 0)
(0.167825 -1.04548e-09 0)
(0.167825 1.19536e-09 0)
(0.167825 -1.26265e-09 0)
(0.167825 1.38305e-09 0)
(0.167825 -1.43142e-09 0)
(0.167825 1.5412e-09 0)
(0.167825 -1.57965e-09 0)
(0.167825 1.69149e-09 0)
(0.167825 -1.73249e-09 0)
(0.167825 1.84882e-09 0)
(0.167825 -1.89342e-09 0)
(0.167825 2.01875e-09 0)
(0.167825 -2.0641e-09 0)
(0.167825 2.19624e-09 0)
(0.167825 -2.24945e-09 0)
(0.167825 2.38482e-09 0)
(0.167825 -2.44406e-09 0)
(0.167825 2.5822e-09 0)
(0.167825 -2.65153e-09 0)
(0.167825 2.79249e-09 0)
(0.167825 -2.86816e-09 0)
(0.167825 3.0118e-09 0)
(0.167825 -3.09749e-09 0)
(0.167825 3.24336e-09 0)
(0.167825 -3.33482e-09 0)
(0.167825 3.48424e-09 0)
(0.167825 -3.58816e-09 0)
(0.167825 3.73379e-09 0)
(0.167825 -3.85012e-09 0)
(0.167825 3.99799e-09 0)
(0.167825 -4.12665e-09 0)
(0.167825 4.2665e-09 0)
(0.167825 -4.41767e-09 0)
(0.167825 4.54836e-09 0)
(0.167825 -4.71863e-09 0)
(0.167825 4.84138e-09 0)
(0.167825 -5.03426e-09 0)
(0.167825 5.13974e-09 0)
(0.167825 -5.37214e-09 0)
(0.167825 5.44177e-09 0)
(0.167825 -5.7311e-09 0)
(0.167825 5.74559e-09 0)
(0.167825 -6.11234e-09 0)
(0.167825 6.05368e-09 0)
(0.167825 -6.52142e-09 0)
(0.167825 6.36029e-09 0)
(0.167825 -6.94819e-09 0)
(0.167825 6.67706e-09 0)
(0.167825 -7.38313e-09 0)
(0.167825 6.99277e-09 0)
(0.167825 -7.83729e-09 0)
(0.167825 7.30379e-09 0)
(0.167825 -7.33884e-09 0)
(0.167825 6.49624e-09 0)
(0.167825 -7.50001e-09 0)
(0.167825 6.46705e-09 0)
(0.167825 -7.68244e-09 0)
(0.167825 6.44208e-09 0)
(0.167825 -7.85258e-09 0)
(0.167825 6.42214e-09 0)
(0.167825 -8.01257e-09 0)
(0.167825 6.42805e-09 0)
(0.167825 -8.17447e-09 0)
(0.167825 6.36211e-09 0)
(0.167825 -8.39344e-09 0)
(0.167825 6.31807e-09 0)
(0.167825 -8.58208e-09 0)
(0.167825 6.22097e-09 0)
(0.167825 -8.84511e-09 0)
(0.167825 6.02019e-09 0)
(0.167825 -9.81245e-09 0)
(0.167825 4.0951e-09 0)
(0.167825 -1.23631e-08 0)
(0.167825 1.83062e-09 0)
(0.167825 -1.46064e-08 0)
(0.167825 -1.98548e-10 0)
(0.167825 -1.63685e-08 0)
(0.167825 -1.25778e-09 0)
(0.167825 -1.74932e-08 0)
(0.167825 -2.67466e-09 0)
(0.167825 -1.87484e-08 0)
(0.167825 -2.85543e-09 0)
(0.167825 -1.83384e-08 0)
(0.167825 -1.98705e-09 0)
(0.167825 -1.67715e-08 0)
(0.167825 7.74342e-10 0)
(0.167825 -1.40216e-08 0)
(0.167825 2.82035e-09 0)
(0.167825 -1.18621e-08 0)
(0.167825 6.37662e-09 0)
(0.167825 -7.37437e-09 0)
(0.167825 1.14849e-08 0)
(0.167825 -1.2683e-09 0)
(0.167825 1.97051e-08 0)
(0.167825 8.12593e-09 0)
(0.167825 2.88243e-08 0)
(0.167825 1.77066e-08 0)
(0.167825 4.0705e-08 0)
(0.167825 3.00708e-08 0)
(0.167825 5.43722e-08 0)
(0.167825 5.46636e-08 0)
(0.167825 4.49544e-08 0)
)
;

boundaryField
{
    inandouthalf11
    {
        type            cyclic;
    }
    inandouthalf12
    {
        type            cyclic;
    }
    inandouthalf21
    {
        type            cyclic;
    }
    inandouthalf22
    {
        type            cyclic;
    }
    inandouthalf31
    {
        type            cyclic;
    }
    inandouthalf32
    {
        type            cyclic;
    }
    inandouthalf41
    {
        type            cyclic;
    }
    inandouthalf42
    {
        type            cyclic;
    }
    top
    {
        type            symmetryPlane;
    }
    walls
    {
        type            calculated;
        value           uniform (0 0 0);
    }
    frontAndBackPlanes
    {
        type            empty;
    }
}


// ************************************************************************* //
