/*--------------------------------*- C++ -*----------------------------------*\
| =========                 |                                                 |
| \\      /  F ield         | OpenFOAM: The Open Source CFD Toolbox           |
|  \\    /   O peration     | Version:  2.4.x                                 |
|   \\  /    A nd           | Web:      www.OpenFOAM.org                      |
|    \\/     M anipulation  |                                                 |
\*---------------------------------------------------------------------------*/
FoamFile
{
    version     2.0;
    format      ascii;
    class       surfaceScalarField;
    location    "6.25";
    object      ddt0(phia);
}
// * * * * * * * * * * * * * * * * * * * * * * * * * * * * * * * * * * * * * //

dimensions      [0 3 -2 0 0 0 0];

internalField   nonuniform List<scalar> 
359
(
1.59395e-13
4.38509e-13
6.98581e-13
9.40574e-13
1.18455e-12
1.4358e-12
1.69164e-12
1.94912e-12
2.20686e-12
2.46519e-12
2.72478e-12
2.98598e-12
3.24886e-12
3.5132e-12
3.7789e-12
4.046e-12
4.31458e-12
4.58472e-12
4.85642e-12
5.12973e-12
5.4044e-12
5.68038e-12
5.9574e-12
6.23516e-12
6.51325e-12
6.79126e-12
7.06879e-12
7.3458e-12
7.62234e-12
7.89889e-12
8.17642e-12
8.45661e-12
8.7413e-12
9.03326e-12
9.33468e-12
9.64784e-12
9.9738e-12
1.03122e-11
1.06602e-11
1.10113e-11
1.13561e-11
1.16813e-11
1.19709e-11
1.22092e-11
1.23822e-11
1.24826e-11
1.25128e-11
1.2488e-11
1.24374e-11
1.24035e-11
1.24403e-11
1.26134e-11
1.29998e-11
1.36933e-11
1.48093e-11
1.64935e-11
1.8913e-11
2.22253e-11
2.64582e-11
3.12669e-11
3.56023e-11
3.75801e-11
3.52401e-11
2.82097e-11
1.87032e-11
1.01091e-11
4.45309e-12
1.62327e-12
5.04421e-13
1.39374e-13
3.59359e-14
9.08789e-15
2.35525e-15
6.3734e-16
1.73375e-16
3.68266e-17
-7.49021e-18
-2.32688e-17
-2.91885e-17
-3.12274e-17
-3.14493e-17
-3.05867e-17
-2.88664e-17
-2.63027e-17
-2.28179e-17
-1.83061e-17
-1.26745e-17
-5.87663e-18
2.06782e-18
1.10684e-17
2.09698e-17
3.15692e-17
4.26394e-17
5.3949e-17
6.52806e-17
7.64431e-17
8.72793e-17
9.76673e-17
1.07522e-16
1.1679e-16
1.25448e-16
1.33496e-16
1.40951e-16
1.47845e-16
1.54214e-16
1.60103e-16
1.65555e-16
1.70615e-16
1.75325e-16
1.79726e-16
1.83855e-16
1.87746e-16
1.91429e-16
1.94933e-16
1.98283e-16
2.01503e-16
2.04612e-16
2.07631e-16
2.10577e-16
2.13467e-16
2.16316e-16
2.19136e-16
2.21938e-16
2.24729e-16
2.2751e-16
2.30278e-16
2.33024e-16
2.35732e-16
2.3838e-16
2.4094e-16
2.43378e-16
2.45666e-16
2.4778e-16
2.49715e-16
2.51478e-16
2.53079e-16
2.54534e-16
2.55861e-16
2.5708e-16
2.5818e-16
2.59082e-16
2.59661e-16
2.59958e-16
2.60074e-16
2.60099e-16
2.60038e-16
2.60628e-16
2.62549e-10
-3.78309e-09
-6.01019e-09
-8.68903e-09
-1.01579e-08
-1.14649e-08
-1.259e-08
-1.35767e-08
-1.4442e-08
-1.52002e-08
-1.58633e-08
-1.64484e-08
-1.6966e-08
-1.74253e-08
-1.78329e-08
-1.8193e-08
-1.8509e-08
-1.87834e-08
-1.90198e-08
-1.9222e-08
-1.9395e-08
-1.95445e-08
-1.96768e-08
-1.97982e-08
-1.99147e-08
-2.00321e-08
-2.01551e-08
-2.02877e-08
-2.04331e-08
-2.05933e-08
-2.07698e-08
-2.09631e-08
-2.11735e-08
-2.14003e-08
-2.16427e-08
-2.18997e-08
-2.21695e-08
-2.24508e-08
-2.27416e-08
-2.30399e-08
-2.33439e-08
-2.3651e-08
-2.39587e-08
-2.42633e-08
-2.456e-08
-2.48425e-08
-2.51026e-08
-2.53302e-08
-2.55133e-08
-2.56386e-08
-2.56931e-08
-2.56665e-08
-2.55554e-08
-2.53644e-08
-2.50882e-08
-2.4721e-08
-2.42621e-08
-2.37008e-08
-2.30273e-08
-2.2256e-08
-2.14086e-08
-2.05119e-08
-1.96011e-08
-1.8704e-08
-1.78486e-08
-1.70495e-08
-1.63078e-08
-1.56337e-08
-1.50245e-08
-1.44703e-08
-1.39697e-08
-1.35179e-08
-1.31083e-08
-1.27315e-08
-1.23878e-08
-1.20778e-08
-1.17923e-08
-1.15333e-08
-1.13033e-08
-1.10971e-08
-1.09167e-08
-1.07568e-08
-1.06224e-08
-1.05042e-08
-1.04049e-08
-1.03177e-08
-1.03173e-08
-1.0257e-08
-1.04392e-08
-1.85374e-08
-9.79125e-09
-2.23683e-08
6.07357e-09
1.27902e-07
3.96926e-08
7.81912e-10
-4.44535e-12
8.07174e-11
8.54843e-11
9.30106e-11
9.64038e-11
9.6262e-11
9.22145e-11
8.34324e-11
6.80623e-11
4.14447e-11
8.02979e-13
-1.56393e-10
-2.07696e-10
1.06045e-11
3.51287e-11
3.38079e-11
3.37067e-11
3.37125e-11
3.36953e-11
3.37133e-11
3.36953e-11
3.37137e-11
3.36952e-11
3.3714e-11
3.3695e-11
3.37143e-11
3.36948e-11
3.37145e-11
3.36949e-11
3.37146e-11
3.36947e-11
3.37145e-11
3.36946e-11
3.37148e-11
3.36944e-11
3.3715e-11
3.36942e-11
3.37152e-11
3.36939e-11
3.37154e-11
3.36937e-11
3.37156e-11
3.36936e-11
3.37157e-11
3.36935e-11
3.37158e-11
3.36934e-11
3.37159e-11
3.36933e-11
3.37159e-11
3.36933e-11
3.37158e-11
3.36934e-11
3.37157e-11
3.36935e-11
3.37155e-11
3.36936e-11
3.37152e-11
3.36938e-11
3.37148e-11
3.3694e-11
3.37144e-11
3.36943e-11
3.37139e-11
3.36946e-11
3.37134e-11
3.3695e-11
3.37128e-11
3.36953e-11
3.37122e-11
3.36955e-11
3.37117e-11
3.36957e-11
3.37112e-11
3.3696e-11
3.37107e-11
3.36962e-11
3.37102e-11
3.36963e-11
3.37096e-11
3.36965e-11
3.3709e-11
3.36966e-11
3.37083e-11
3.36965e-11
3.37057e-11
3.3693e-11
3.37016e-11
3.369e-11
3.36979e-11
3.36873e-11
3.36954e-11
3.36864e-11
3.3693e-11
3.36843e-11
3.36914e-11
3.36851e-11
3.36919e-11
3.36869e-11
3.36949e-11
3.36922e-11
3.36981e-11
3.3695e-11
3.3702e-11
3.37017e-11
3.37089e-11
3.37102e-11
3.37191e-11
3.37248e-11
3.37331e-11
3.37385e-11
3.37487e-11
3.3748e-11
3.21127e-11
-9.93504e-11
2.13223e-09
)
;

boundaryField
{
    inandouthalf11
    {
        type            cyclic;
        value           nonuniform List<scalar> 
100
(
-3.48486e-39
-2.02846e-14
-4.3883e-14
-6.47907e-14
-8.53332e-14
-1.06563e-13
-1.28285e-13
-1.50205e-13
-1.72204e-13
-1.94269e-13
-2.16443e-13
-2.38763e-13
-2.61241e-13
-2.83867e-13
-3.06632e-13
-3.29532e-13
-3.52573e-13
-3.75762e-13
-3.99103e-13
-4.22597e-13
-4.4624e-13
-4.70025e-13
-4.93944e-13
-5.17982e-13
-5.42118e-13
-5.66327e-13
-5.90585e-13
-6.14875e-13
-6.39196e-13
-6.63559e-13
-6.88006e-13
-7.12615e-13
-7.37497e-13
-7.628e-13
-7.88689e-13
-8.15321e-13
-8.4282e-13
-8.71239e-13
-9.00498e-13
-9.3032e-13
-9.60201e-13
-9.89382e-13
-1.01686e-12
-1.04151e-12
-1.06221e-12
-1.07812e-12
-1.08891e-12
-1.09506e-12
-1.09803e-12
-1.10029e-12
-1.10529e-12
-1.1174e-12
-1.14192e-12
-1.18531e-12
-1.2556e-12
-1.36297e-12
-1.52005e-12
-1.74079e-12
-2.03544e-12
-2.39708e-12
-2.77649e-12
-3.05463e-12
-3.05563e-12
-2.65356e-12
-1.92203e-12
-1.13162e-12
-5.37712e-13
-2.08692e-13
-6.81135e-14
-1.95166e-14
-5.16646e-15
-1.33436e-15
-3.56031e-16
-1.04417e-16
-3.63888e-17
-1.64605e-17
-1.00309e-17
-7.74238e-18
-6.86152e-18
-6.51778e-18
-6.40989e-18
-6.42734e-18
-6.53049e-18
-6.70914e-18
-6.96643e-18
-7.31164e-18
-7.75547e-18
-8.3068e-18
-8.97016e-18
-9.74416e-18
-1.06212e-17
-1.15881e-17
-1.26279e-17
-1.37212e-17
-1.48484e-17
-1.59907e-17
-1.71313e-17
-1.8256e-17
-1.93534e-17
-2.0415e-17
)
;
    }
    inandouthalf12
    {
        type            cyclic;
        value           nonuniform List<scalar> 
100
(
3.48486e-39
2.02846e-14
4.3883e-14
6.47907e-14
8.53332e-14
1.06563e-13
1.28285e-13
1.50205e-13
1.72204e-13
1.94269e-13
2.16443e-13
2.38763e-13
2.61241e-13
2.83867e-13
3.06632e-13
3.29532e-13
3.52573e-13
3.75762e-13
3.99103e-13
4.22597e-13
4.4624e-13
4.70025e-13
4.93944e-13
5.17982e-13
5.42118e-13
5.66327e-13
5.90585e-13
6.14875e-13
6.39196e-13
6.63559e-13
6.88006e-13
7.12615e-13
7.37497e-13
7.628e-13
7.88689e-13
8.15321e-13
8.4282e-13
8.71239e-13
9.00498e-13
9.3032e-13
9.60201e-13
9.89382e-13
1.01686e-12
1.04151e-12
1.06221e-12
1.07812e-12
1.08891e-12
1.09506e-12
1.09803e-12
1.10029e-12
1.10529e-12
1.1174e-12
1.14192e-12
1.18531e-12
1.2556e-12
1.36297e-12
1.52005e-12
1.74079e-12
2.03544e-12
2.39708e-12
2.77649e-12
3.05463e-12
3.05563e-12
2.65356e-12
1.92203e-12
1.13162e-12
5.37712e-13
2.08692e-13
6.81135e-14
1.95166e-14
5.16646e-15
1.33436e-15
3.56031e-16
1.04417e-16
3.63888e-17
1.64605e-17
1.00309e-17
7.74238e-18
6.86152e-18
6.51778e-18
6.40989e-18
6.42734e-18
6.53049e-18
6.70914e-18
6.96643e-18
7.31164e-18
7.75547e-18
8.3068e-18
8.97016e-18
9.74416e-18
1.06212e-17
1.15881e-17
1.26279e-17
1.37212e-17
1.48484e-17
1.59907e-17
1.71313e-17
1.8256e-17
1.93534e-17
2.0415e-17
)
;
    }
    inandouthalf21
    {
        type            cyclic;
        value           nonuniform List<scalar> 
100
(
-2.14349e-17
-2.24098e-17
-2.33383e-17
-2.42207e-17
-2.50585e-17
-2.58537e-17
-2.66094e-17
-2.73285e-17
-2.80144e-17
-2.86703e-17
-2.92994e-17
-2.99049e-17
-3.04897e-17
-3.10566e-17
-3.16084e-17
-3.21478e-17
-3.26773e-17
-3.31996e-17
-3.37174e-17
-3.42332e-17
-3.47498e-17
-3.52697e-17
-3.57956e-17
-3.63295e-17
-3.68732e-17
-3.74276e-17
-3.79926e-17
-3.8567e-17
-3.91482e-17
-3.97316e-17
-4.03113e-17
-4.08801e-17
-4.14317e-17
-4.1962e-17
-4.24703e-17
-4.29581e-17
-4.34292e-17
-4.38896e-17
-4.43481e-17
-4.48077e-17
-4.52466e-17
-4.56109e-17
-4.58575e-17
-4.59886e-17
-4.6043e-17
-4.60679e-17
-4.60931e-17
-4.65368e-17
-1.05028e-07
-1.39622e-07
-1.33753e-07
-1.36616e-07
-1.43028e-07
-1.50569e-07
-1.58179e-07
-1.65384e-07
-1.72001e-07
-1.77992e-07
-1.83388e-07
-1.88246e-07
-1.92629e-07
-1.966e-07
-2.00212e-07
-2.03513e-07
-2.06546e-07
-2.09345e-07
-2.11937e-07
-2.14348e-07
-2.16595e-07
-2.18692e-07
-2.20651e-07
-2.2248e-07
-2.24186e-07
-2.25774e-07
-2.27247e-07
-2.28608e-07
-2.2986e-07
-2.31003e-07
-2.3204e-07
-2.32971e-07
-2.33798e-07
-2.3452e-07
-2.3514e-07
-2.35656e-07
-2.36071e-07
-2.36385e-07
-2.366e-07
-2.36715e-07
-2.36734e-07
-2.36657e-07
-2.36486e-07
-2.36225e-07
-2.35875e-07
-2.3544e-07
-2.34925e-07
-2.34333e-07
-2.33671e-07
-2.32944e-07
-2.32159e-07
-2.31326e-07
)
;
    }
    inandouthalf22
    {
        type            cyclic;
        value           nonuniform List<scalar> 
100
(
2.14349e-17
2.24098e-17
2.33383e-17
2.42207e-17
2.50585e-17
2.58537e-17
2.66094e-17
2.73285e-17
2.80144e-17
2.86703e-17
2.92994e-17
2.99049e-17
3.04897e-17
3.10566e-17
3.16084e-17
3.21478e-17
3.26773e-17
3.31996e-17
3.37174e-17
3.42332e-17
3.47498e-17
3.52697e-17
3.57956e-17
3.63295e-17
3.68732e-17
3.74276e-17
3.79926e-17
3.8567e-17
3.91482e-17
3.97316e-17
4.03113e-17
4.08801e-17
4.14317e-17
4.1962e-17
4.24703e-17
4.29581e-17
4.34292e-17
4.38896e-17
4.43481e-17
4.48077e-17
4.52466e-17
4.56109e-17
4.58575e-17
4.59886e-17
4.6043e-17
4.60679e-17
4.60931e-17
4.65368e-17
1.05028e-07
1.39622e-07
1.33753e-07
1.36616e-07
1.43028e-07
1.50569e-07
1.58179e-07
1.65384e-07
1.72001e-07
1.77992e-07
1.83388e-07
1.88246e-07
1.92629e-07
1.966e-07
2.00212e-07
2.03513e-07
2.06546e-07
2.09345e-07
2.11937e-07
2.14348e-07
2.16595e-07
2.18692e-07
2.20651e-07
2.2248e-07
2.24186e-07
2.25774e-07
2.27247e-07
2.28608e-07
2.2986e-07
2.31003e-07
2.3204e-07
2.32971e-07
2.33798e-07
2.3452e-07
2.3514e-07
2.35656e-07
2.36071e-07
2.36385e-07
2.366e-07
2.36715e-07
2.36734e-07
2.36657e-07
2.36486e-07
2.36225e-07
2.35875e-07
2.3544e-07
2.34925e-07
2.34333e-07
2.33671e-07
2.32944e-07
2.32159e-07
2.31326e-07
)
;
    }
    inandouthalf31
    {
        type            cyclic;
        value           nonuniform List<scalar> 
110
(
-2.30452e-07
-2.34196e-07
-2.37952e-07
-2.41727e-07
-2.45532e-07
-2.4938e-07
-2.53287e-07
-2.57272e-07
-2.61353e-07
-2.65548e-07
-2.69873e-07
-2.74341e-07
-2.78961e-07
-2.8374e-07
-2.88682e-07
-2.93785e-07
-2.9905e-07
-3.04475e-07
-3.10054e-07
-3.15783e-07
-3.21661e-07
-3.27683e-07
-3.33841e-07
-3.40134e-07
-3.46557e-07
-3.53105e-07
-3.59772e-07
-3.66558e-07
-3.73462e-07
-3.80482e-07
-3.87625e-07
-3.94899e-07
-4.02311e-07
-4.09839e-07
-4.17537e-07
-4.25435e-07
-4.33346e-07
-3.60726e-07
-3.69151e-07
-3.71797e-07
-3.73715e-07
-3.8212e-07
-3.85683e-07
-3.90799e-07
-3.95799e-07
-4.01239e-07
-4.0705e-07
-4.13258e-07
-4.19882e-07
-4.26961e-07
-4.34557e-07
-4.42769e-07
-4.51766e-07
-4.61818e-07
-4.73352e-07
-4.91694e-07
-5.09094e-07
-5.20536e-07
-5.31133e-07
-5.41914e-07
-5.52914e-07
-5.64136e-07
-5.75587e-07
-5.8727e-07
-5.9919e-07
-6.11352e-07
-6.23761e-07
-6.36421e-07
-6.49339e-07
-6.62519e-07
-6.75966e-07
-6.89687e-07
-7.03685e-07
-7.17968e-07
-7.32541e-07
-7.4741e-07
-7.6258e-07
-7.78058e-07
-7.93851e-07
-8.09964e-07
-8.26404e-07
-8.43178e-07
-8.60292e-07
-8.77754e-07
-8.9557e-07
-9.13748e-07
-9.32294e-07
-9.51217e-07
-9.70525e-07
-9.90224e-07
-1.01032e-06
-1.03083e-06
-1.05175e-06
-1.0731e-06
-1.09488e-06
-1.1171e-06
-1.13978e-06
-1.16291e-06
-1.18652e-06
-1.2106e-06
-1.23517e-06
-1.26024e-06
-1.28582e-06
-1.31192e-06
-1.33855e-06
-1.36572e-06
-1.39344e-06
-1.42172e-06
-1.45058e-06
-1.48002e-06
)
;
    }
    inandouthalf32
    {
        type            cyclic;
        value           nonuniform List<scalar> 
110
(
2.30452e-07
2.34196e-07
2.37952e-07
2.41727e-07
2.45532e-07
2.4938e-07
2.53287e-07
2.57272e-07
2.61353e-07
2.65548e-07
2.69873e-07
2.74341e-07
2.78961e-07
2.8374e-07
2.88682e-07
2.93785e-07
2.9905e-07
3.04475e-07
3.10054e-07
3.15783e-07
3.21661e-07
3.27683e-07
3.33841e-07
3.40134e-07
3.46557e-07
3.53105e-07
3.59772e-07
3.66558e-07
3.73462e-07
3.80482e-07
3.87625e-07
3.94899e-07
4.02311e-07
4.09839e-07
4.17537e-07
4.25435e-07
4.33346e-07
3.60726e-07
3.69151e-07
3.71797e-07
3.73715e-07
3.8212e-07
3.85683e-07
3.90799e-07
3.95799e-07
4.01239e-07
4.0705e-07
4.13258e-07
4.19882e-07
4.26961e-07
4.34557e-07
4.42769e-07
4.51766e-07
4.61818e-07
4.73352e-07
4.91694e-07
5.09094e-07
5.20536e-07
5.31133e-07
5.41914e-07
5.52914e-07
5.64136e-07
5.75587e-07
5.8727e-07
5.9919e-07
6.11352e-07
6.23761e-07
6.36421e-07
6.49339e-07
6.62519e-07
6.75966e-07
6.89687e-07
7.03685e-07
7.17968e-07
7.32541e-07
7.4741e-07
7.6258e-07
7.78058e-07
7.93851e-07
8.09964e-07
8.26404e-07
8.43178e-07
8.60292e-07
8.77754e-07
8.9557e-07
9.13748e-07
9.32294e-07
9.51217e-07
9.70525e-07
9.90224e-07
1.01032e-06
1.03083e-06
1.05175e-06
1.0731e-06
1.09488e-06
1.1171e-06
1.13978e-06
1.16291e-06
1.18652e-06
1.2106e-06
1.23517e-06
1.26024e-06
1.28582e-06
1.31192e-06
1.33855e-06
1.36572e-06
1.39344e-06
1.42172e-06
1.45058e-06
1.48002e-06
)
;
    }
    inandouthalf41
    {
        type            cyclic;
        value           nonuniform List<scalar> 
50
(
-1.32477e-06
-1.32477e-06
-1.32477e-06
-1.32477e-06
-1.32477e-06
-1.32477e-06
-1.32477e-06
-1.32477e-06
-1.32477e-06
-1.32477e-06
-1.32477e-06
-1.32477e-06
-1.32477e-06
-1.32477e-06
-1.32477e-06
-1.32477e-06
-1.32477e-06
-1.32477e-06
-1.32477e-06
-1.32477e-06
-1.32477e-06
-1.32477e-06
-1.32477e-06
-1.32477e-06
-1.32477e-06
-1.32477e-06
-1.32477e-06
-1.32477e-06
-1.32477e-06
-1.32477e-06
-1.32477e-06
-1.32477e-06
-1.32477e-06
-1.32477e-06
-1.32477e-06
-1.32477e-06
-1.32477e-06
-1.32477e-06
-1.32477e-06
-1.32477e-06
-1.32477e-06
-1.32477e-06
-1.32477e-06
-1.32477e-06
-1.32477e-06
-1.32477e-06
-1.32477e-06
-1.32477e-06
-1.32465e-06
-1.32181e-06
)
;
    }
    inandouthalf42
    {
        type            cyclic;
        value           nonuniform List<scalar> 
50
(
1.32477e-06
1.32477e-06
1.32477e-06
1.32477e-06
1.32477e-06
1.32477e-06
1.32477e-06
1.32477e-06
1.32477e-06
1.32477e-06
1.32477e-06
1.32477e-06
1.32477e-06
1.32477e-06
1.32477e-06
1.32477e-06
1.32477e-06
1.32477e-06
1.32477e-06
1.32477e-06
1.32477e-06
1.32477e-06
1.32477e-06
1.32477e-06
1.32477e-06
1.32477e-06
1.32477e-06
1.32477e-06
1.32477e-06
1.32477e-06
1.32477e-06
1.32477e-06
1.32477e-06
1.32477e-06
1.32477e-06
1.32477e-06
1.32477e-06
1.32477e-06
1.32477e-06
1.32477e-06
1.32477e-06
1.32477e-06
1.32477e-06
1.32477e-06
1.32477e-06
1.32477e-06
1.32477e-06
1.32477e-06
1.32465e-06
1.32181e-06
)
;
    }
    top
    {
        type            symmetryPlane;
        value           uniform 0;
    }
    walls
    {
        type            calculated;
        value           uniform 0;
    }
    frontAndBackPlanes
    {
        type            empty;
        value           nonuniform 0();
    }
}


// ************************************************************************* //
