/*--------------------------------*- C++ -*----------------------------------*\
| =========                 |                                                 |
| \\      /  F ield         | OpenFOAM: The Open Source CFD Toolbox           |
|  \\    /   O peration     | Version:  2.4.x                                 |
|   \\  /    A nd           | Web:      www.OpenFOAM.org                      |
|    \\/     M anipulation  |                                                 |
\*---------------------------------------------------------------------------*/
FoamFile
{
    version     2.0;
    format      ascii;
    class       volVectorField;
    location    "6.25";
    object      gradPs;
}
// * * * * * * * * * * * * * * * * * * * * * * * * * * * * * * * * * * * * * //

dimensions      [0 1 -2 0 0 0 0];

internalField   nonuniform List<vector> 
360
(
(0 1.60831e-18 0)
(0 1.71264e-18 0)
(0 -6.27582e-20 0)
(0 -2.40237e-19 0)
(-2.9018e-32 -9.21792e-20 0)
(-2.90189e-32 -5.02986e-20 0)
(-1.45099e-32 -6.7877e-20 0)
(0 -7.8241e-20 0)
(-1.4511e-32 -7.96402e-20 0)
(0 -8.01248e-20 0)
(-2.90243e-32 -7.98434e-20 0)
(0 -7.98673e-20 0)
(-2.90266e-32 -8.05965e-20 0)
(0 -8.13878e-20 0)
(0 -8.23749e-20 0)
(0 -8.32641e-20 0)
(0 -8.3895e-20 0)
(-2.90326e-32 -8.44034e-20 0)
(0 -8.53903e-20 0)
(0 -8.59993e-20 0)
(0 -8.66442e-20 0)
(-2.90376e-32 -8.77025e-20 0)
(0 -8.83869e-20 0)
(0 -8.93294e-20 0)
(0 -9.03779e-20 0)
(-1.45214e-32 -9.12158e-20 0)
(0 -9.23967e-20 0)
(0 -9.36322e-20 0)
(0 -9.44868e-20 0)
(0 -9.5346e-20 0)
(0 -9.64988e-20 0)
(0 -9.65271e-20 0)
(0 -9.68882e-20 0)
(0 -9.69279e-20 0)
(0 -9.61098e-20 0)
(1.45282e-32 -9.5488e-20 0)
(0 -9.44723e-20 0)
(0 -9.44656e-20 0)
(0 -9.36989e-20 0)
(0 -9.48737e-20 0)
(0 -9.81991e-20 0)
(0 -1.01661e-19 0)
(1.45335e-32 -1.08767e-19 0)
(0 -1.17535e-19 0)
(0 -1.27014e-19 0)
(0 -1.37913e-19 0)
(0 -1.46072e-19 0)
(0 -1.51374e-19 0)
(0 -1.53846e-19 0)
(0 -1.49465e-19 0)
(1.45399e-32 -1.40061e-19 0)
(0 -1.25391e-19 0)
(0 -1.02976e-19 0)
(0 -7.00167e-20 0)
(0 -2.1936e-20 0)
(0 5.25041e-20 0)
(0 1.68275e-19 0)
(0 3.40304e-19 0)
(0 5.67361e-19 0)
(0 7.67936e-19 0)
(0 7.259e-19 0)
(0 1.70328e-19 0)
(0 -8.23409e-19 0)
(0 -1.59471e-18 0)
(0 -1.56067e-18 0)
(0 -9.64264e-19 0)
(0 -4.30901e-19 0)
(0 -1.91175e-19 0)
(0 -1.28293e-19 0)
(0 -1.21272e-19 0)
(0 -1.25238e-19 0)
(0 -1.27972e-19 0)
(0 -1.31713e-19 0)
(0 -1.36002e-19 0)
(0 -1.3935e-19 0)
(0 -1.42146e-19 0)
(0 -1.44435e-19 0)
(0 -1.47816e-19 0)
(0 -1.51363e-19 0)
(0 -1.54752e-19 0)
(0 -1.58608e-19 0)
(0 -1.6306e-19 0)
(0 -1.67304e-19 0)
(0 -1.71516e-19 0)
(0 -1.75613e-19 0)
(0 -1.7959e-19 0)
(0 -1.8338e-19 0)
(0 -1.86991e-19 0)
(0 -1.90822e-19 0)
(0 -1.94812e-19 0)
(0 -1.9892e-19 0)
(0 -2.03328e-19 0)
(0 -2.07984e-19 0)
(0 -2.12739e-19 0)
(0 -2.17608e-19 0)
(0 -2.22567e-19 0)
(0 -2.27593e-19 0)
(0 -2.32708e-19 0)
(0 -2.37961e-19 0)
(0 -2.43374e-19 0)
(0 -2.48963e-19 0)
(0 -2.54762e-19 0)
(0 -2.60774e-19 0)
(0 -2.66997e-19 0)
(0 -2.73444e-19 0)
(0 -2.80129e-19 0)
(0 -2.87067e-19 0)
(0 -2.94279e-19 0)
(0 -3.01785e-19 0)
(0 -3.09601e-19 0)
(0 -3.17746e-19 0)
(0 -3.26234e-19 0)
(0 -3.35084e-19 0)
(0 -3.44312e-19 0)
(0 -3.53938e-19 0)
(0 -3.6398e-19 0)
(0 -3.74462e-19 0)
(0 -3.85408e-19 0)
(0 -3.96845e-19 0)
(0 -4.08802e-19 0)
(0 -4.21304e-19 0)
(0 -4.34371e-19 0)
(0 -4.48026e-19 0)
(0 -4.6231e-19 0)
(0 -4.77329e-19 0)
(0 -4.93283e-19 0)
(0 -5.10456e-19 0)
(0 -5.29106e-19 0)
(0 -5.49241e-19 0)
(0 -5.70502e-19 0)
(0 -5.92294e-19 0)
(0 5.89105e-17 0)
(0 7.80526e-16 0)
(0 4.57024e-15 0)
(0 2.53394e-14 0)
(0 1.5169e-13 0)
(0 9.97203e-13 0)
(0 7.30474e-12 0)
(0 6.05407e-11 0)
(0 5.76014e-10 0)
(0 6.38615e-09 0)
(0 8.39393e-08 0)
(0 1.33135e-06 0)
(0 2.67059e-05 0)
(0 0.0010607 0)
(0 0.0573241 0)
(0 1.1349 0)
(0 2.34657 0)
(0 1.52741 0)
(0 -1.76728 0)
(0 -2.89524 0)
(0 -3.12105 0)
(0 -3.04564 0)
(0 -2.90465 0)
(0 -2.75309 0)
(0 -2.60894 0)
(0 -2.47728 0)
(0 -2.35864 0)
(0 -2.25199 0)
(0 -2.15588 0)
(0 -2.06892 0)
(0 -1.98986 0)
(0 -1.91763 0)
(0 -1.8513 0)
(0 -1.79013 0)
(0 -1.73346 0)
(0 -1.68076 0)
(0 -1.63155 0)
(0 -1.58543 0)
(0 -1.54206 0)
(0 -1.50115 0)
(0 -1.46243 0)
(0 -1.42568 0)
(0 -1.39071 0)
(0 -1.35735 0)
(0 -1.32544 0)
(0 -1.29487 0)
(0 -1.26551 0)
(0 -1.23727 0)
(0 -1.21007 0)
(0 -1.18382 0)
(0 -1.15846 0)
(0 -1.13393 0)
(0 -1.1102 0)
(0 -1.08721 0)
(0 -1.06494 0)
(0 -1.04335 0)
(0 -1.02243 0)
(0 -1.00219 0)
(0 -0.982664 0)
(0 -0.963933 0)
(0 -0.946142 0)
(0 -0.929467 0)
(0 -0.914111 0)
(0 -0.90033 0)
(0 -0.888434 0)
(0 -0.87865 0)
(0 -0.870956 0)
(0 -0.86478 0)
(0 -0.858759 0)
(0 -0.852238 0)
(0 -0.846475 0)
(-3.50229e-16 -0.841853 0)
(0 -0.838568 0)
(0 -0.838859 0)
(4.57912e-16 -0.841897 0)
(0 -0.842792 0)
(-2.80453e-16 -0.838874 0)
(0 -0.827932 0)
(1.74495e-16 -0.807364 0)
(0 -0.776741 0)
(0 -0.735528 0)
(0 -0.686589 0)
(1.34615e-16 -0.632805 0)
(0 -0.573349 0)
(0 -0.512231 0)
(0 -0.452725 0)
(0 -0.394555 0)
(0 -0.339546 0)
(-5.32845e-17 -0.289524 0)
(0 -0.245069 0)
(-5.8013e-17 -0.204847 0)
(0 -0.169343 0)
(-3.06428e-17 -0.139332 0)
(0 -0.113375 0)
(0 -0.0912484 0)
(0 -0.0730062 0)
(0 -0.0578664 0)
(7.97523e-18 -0.0455481 0)
(7.94611e-18 -0.035376 0)
(0 -0.0273844 0)
(0 -0.020834 0)
(0 -0.0157121 0)
(0 -0.0114196 0)
(0 -0.00871895 0)
(0 -0.00797575 0)
(0 -0.00363768 0)
(0 0 0)
(0 0 0)
(0 0 0)
(0 0 0)
(0 0 0)
(0 0 0)
(0 0 0)
(0 0 0)
(0 0 0)
(0 0 0)
(0 0 0)
(0 0 0)
(0 0 0)
(0 0 0)
(0 0 0)
(0 0 0)
(0 0 0)
(0 0 0)
(0 0 0)
(0 0 0)
(0 0 0)
(0 0 0)
(0 0 0)
(0 0 0)
(0 0 0)
(0 0 0)
(0 0 0)
(0 0 0)
(0 0 0)
(0 0 0)
(0 0 0)
(0 0 0)
(0 0 0)
(0 0 0)
(0 0 0)
(0 0 0)
(0 0 0)
(0 0 0)
(0 0 0)
(0 0 0)
(0 0 0)
(0 0 0)
(0 0 0)
(0 0 0)
(0 0 0)
(0 0 0)
(0 0 0)
(0 0 0)
(0 0 0)
(0 0 0)
(0 0 0)
(0 0 0)
(0 0 0)
(0 0 0)
(0 0 0)
(0 0 0)
(0 0 0)
(0 0 0)
(0 0 0)
(0 0 0)
(0 0 0)
(0 0 0)
(0 0 0)
(0 0 0)
(0 0 0)
(0 0 0)
(0 0 0)
(0 0 0)
(0 0 0)
(0 0 0)
(0 0 0)
(0 0 0)
(0 0 0)
(0 0 0)
(0 0 0)
(0 0 0)
(0 0 0)
(0 0 0)
(0 0 0)
(0 0 0)
(0 0 0)
(0 0 0)
(0 0 0)
(0 0 0)
(0 0 0)
(0 0 0)
(0 0 0)
(0 0 0)
(0 0 0)
(0 0 0)
(0 0 0)
(0 0 0)
(0 0 0)
(0 0 0)
(0 0 0)
(0 0 0)
(0 0 0)
(0 0 0)
(0 0 0)
(0 0 0)
(0 0 0)
(0 0 0)
(0 0 0)
(0 0 0)
(0 0 0)
(0 0 0)
(0 0 0)
(0 0 0)
(0 0 0)
(0 0 0)
(0 0 0)
(0 0 0)
(0 0 0)
(0 0 0)
(0 0 0)
(0 0 0)
(0 0 0)
(0 0 0)
(0 0 0)
(0 0 0)
(0 0 0)
(0 0 0)
(0 0 0)
)
;

boundaryField
{
    inandouthalf11
    {
        type            cyclic;
    }
    inandouthalf12
    {
        type            cyclic;
    }
    inandouthalf21
    {
        type            cyclic;
    }
    inandouthalf22
    {
        type            cyclic;
    }
    inandouthalf31
    {
        type            cyclic;
    }
    inandouthalf32
    {
        type            cyclic;
    }
    inandouthalf41
    {
        type            cyclic;
    }
    inandouthalf42
    {
        type            cyclic;
    }
    top
    {
        type            symmetryPlane;
    }
    walls
    {
        type            calculated;
        value           uniform (0 0 0);
    }
    frontAndBackPlanes
    {
        type            empty;
    }
}


// ************************************************************************* //
