/*--------------------------------*- C++ -*----------------------------------*\
| =========                 |                                                 |
| \\      /  F ield         | OpenFOAM: The Open Source CFD Toolbox           |
|  \\    /   O peration     | Version:  2.4.x                                 |
|   \\  /    A nd           | Web:      www.OpenFOAM.org                      |
|    \\/     M anipulation  |                                                 |
\*---------------------------------------------------------------------------*/
FoamFile
{
    version     2.0;
    format      ascii;
    class       volVectorField;
    location    "6.25";
    object      gradPf;
}
// * * * * * * * * * * * * * * * * * * * * * * * * * * * * * * * * * * * * * //

dimensions      [0 1 -2 0 0 0 0];

internalField   nonuniform List<vector> 
360
(
(0 58.8306 0)
(0 68.8998 0)
(0 3.42921 0)
(0 -10.8949 0)
(-3.34555e-14 -5.86421 0)
(-3.34565e-14 -3.31612 0)
(-3.34576e-14 -3.55554 0)
(0 -3.88014 0)
(-1.673e-14 -3.96352 0)
(0 -4.0362 0)
(-3.34627e-14 -4.04357 0)
(0 -4.02157 0)
(-3.34654e-14 -4.00911 0)
(0 -3.99998 0)
(0 -4.01292 0)
(0 -4.03072 0)
(0 -4.03582 0)
(-3.34723e-14 -4.03283 0)
(0 -4.04904 0)
(0 -4.04489 0)
(0 -4.04235 0)
(-3.3478e-14 -4.0607 0)
(0 -4.06011 0)
(0 -4.06521 0)
(0 -4.06972 0)
(-3.3484e-14 -4.0631 0)
(0 -4.0729 0)
(0 -4.08357 0)
(0 -4.0741 0)
(0 -4.06994 0)
(0 -4.08719 0)
(0 -4.07008 0)
(0 -4.08211 0)
(0 -4.09534 0)
(0 -4.0826 0)
(3.34998e-14 -4.0913 0)
(0 -4.09802 0)
(0 -4.1343 0)
(0 -4.11177 0)
(0 -4.12644 0)
(0 -4.16361 0)
(0 -4.12388 0)
(1.6756e-14 -4.14223 0)
(0 -4.14799 0)
(0 -4.11539 0)
(0 -4.11165 0)
(0 -4.05207 0)
(0 -4.0113 0)
(0 -4.03229 0)
(0 -3.97988 0)
(3.35267e-14 -3.94128 0)
(0 -3.94758 0)
(0 -3.95494 0)
(0 -3.96997 0)
(0 -4.03893 0)
(0 -4.12769 0)
(0 -4.25019 0)
(0 -4.44655 0)
(0 -4.63606 0)
(0 -4.91473 0)
(0 -5.14371 0)
(0 -5.23368 0)
(0 -5.12194 0)
(0 -4.73223 0)
(0 -4.19409 0)
(0 -3.67972 0)
(0 -3.33442 0)
(0 -3.16165 0)
(0 -3.115 0)
(0 -3.1783 0)
(0 -3.28352 0)
(0 -3.32452 0)
(0 -3.38636 0)
(0 -3.45981 0)
(0 -3.50618 0)
(0 -3.5369 0)
(0 -3.55301 0)
(0 -3.59417 0)
(0 -3.63696 0)
(0 -3.67353 0)
(0 -3.71847 0)
(0 -3.77445 0)
(0 -3.82239 0)
(0 -3.86645 0)
(0 -3.9049 0)
(0 -3.9377 0)
(0 -3.96368 0)
(0 -3.98313 0)
(0 -4.00468 0)
(0 -4.02682 0)
(0 -4.04857 0)
(0 -4.07338 0)
(0 -4.09994 0)
(0 -4.12506 0)
(0 -4.14893 0)
(0 -4.17101 0)
(0 -4.1908 0)
(0 -4.20864 0)
(0 -4.22533 0)
(0 -4.24111 0)
(0 -4.25614 0)
(0 -4.27076 0)
(0 -4.28486 0)
(0 -4.29816 0)
(0 -4.31066 0)
(0 -4.32239 0)
(0 -4.33332 0)
(0 -4.34352 0)
(0 -4.35301 0)
(0 -4.36175 0)
(0 -4.36966 0)
(0 -4.37667 0)
(0 -4.38266 0)
(0 -4.38753 0)
(0 -4.39115 0)
(0 -4.39341 0)
(0 -4.39419 0)
(0 -4.3934 0)
(0 -4.39094 0)
(0 -4.38668 0)
(0 -4.38047 0)
(0 -4.37206 0)
(0 -4.36123 0)
(0 -4.34792 0)
(0 -4.33261 0)
(0 -4.31642 0)
(0 -4.30093 0)
(0 -4.28708 0)
(0 -4.2736 0)
(0 -4.25654 0)
(0 -4.23304 0)
(0 -4.20969 0)
(0 -4.20452 0)
(0 -4.22503 0)
(0 -4.24177 0)
(0 -4.22029 0)
(0 -4.19475 0)
(0 -4.26993 0)
(0 -4.48738 0)
(0 -4.61498 0)
(0 -4.3191 0)
(0 -4.22505 0)
(0 -4.77239 0)
(0 -5.33299 0)
(0 -6.86219 0)
(0 -11.5847 0)
(0 -9.81689 0)
(0 -5.34463 0)
(0 -4.60884 0)
(0 0 0)
(0 0 0)
(0 0 0)
(0 0 0)
(0 0 0)
(0 0 0)
(0 0 0)
(0 0 0)
(0 0 0)
(0 0 0)
(0 0 0)
(0 0 0)
(0 0 0)
(0 0 0)
(0 0 0)
(0 0 0)
(0 0 0)
(0 0 0)
(0 0 0)
(0 0 0)
(0 0 0)
(0 0 0)
(0 0 0)
(0 0 0)
(0 0 0)
(0 0 0)
(0 0 0)
(0 0 0)
(0 0 0)
(0 0 0)
(0 0 0)
(0 0 0)
(0 0 0)
(0 0 0)
(0 0 0)
(0 0 0)
(0 0 0)
(0 0 0)
(0 0 0)
(0 0 0)
(0 0 0)
(0 0 0)
(0 0 0)
(0 0 0)
(0 0 0)
(0 0 0)
(0 0 0)
(0 0 0)
(0 0 0)
(0 0 0)
(0 0 0)
(0 0 0)
(0 0 0)
(0 0 0)
(0 0 0)
(0 0 0)
(0 0 0)
(0 0 0)
(0 0 0)
(0 0 0)
(0 0 0)
(0 0 0)
(0 0 0)
(0 0 0)
(0 0 0)
(0 0 0)
(0 0 0)
(0 0 0)
(0 0 0)
(0 0 0)
(0 0 0)
(0 0 0)
(0 0 0)
(0 0 0)
(0 0 0)
(0 0 0)
(0 0 0)
(0 0 0)
(0 0 0)
(0 0 0)
(0 0 0)
(0 0 0)
(0 0 0)
(0 0 0)
(0 0 0)
(0 0 0)
(0 0 0)
(0 0 0)
(0 0 0)
(0 0 0)
(0 0 0)
(0 0 0)
(0 0 0)
(0 0 0)
(0 0 0)
(0 0 0)
(0 0 0)
(0 0 0)
(0 0 0)
(0 0 0)
(0 0 0)
(0 0 0)
(0 0 0)
(0 0 0)
(0 0 0)
(0 0 0)
(0 0 0)
(0 0 0)
(0 0 0)
(0 0 0)
(0 0 0)
(0 0 0)
(0 0 0)
(0 0 0)
(0 0 0)
(0 0 0)
(0 0 0)
(0 0 0)
(0 0 0)
(0 0 0)
(0 0 0)
(0 0 0)
(0 0 0)
(0 0 0)
(0 0 0)
(0 0 0)
(0 0 0)
(0 0 0)
(0 0 0)
(0 0 0)
(0 0 0)
(0 0 0)
(0 0 0)
(0 0 0)
(0 0 0)
(0 0 0)
(0 0 0)
(0 0 0)
(0 0 0)
(0 0 0)
(0 0 0)
(0 0 0)
(0 0 0)
(0 0 0)
(0 0 0)
(0 0 0)
(0 0 0)
(0 0 0)
(0 0 0)
(0 0 0)
(0 0 0)
(0 0 0)
(0 0 0)
(0 0 0)
(0 0 0)
(0 0 0)
(0 0 0)
(0 0 0)
(0 0 0)
(0 0 0)
(0 0 0)
(0 0 0)
(0 0 0)
(0 0 0)
(0 0 0)
(0 0 0)
(0 0 0)
(0 0 0)
(0 0 0)
(0 0 0)
(0 0 0)
(0 0 0)
(0 0 0)
(0 0 0)
(0 0 0)
(0 0 0)
(0 0 0)
(0 0 0)
(0 0 0)
(0 0 0)
(0 0 0)
(0 0 0)
(0 0 0)
(0 0 0)
(0 0 0)
(0 0 0)
(0 0 0)
(0 0 0)
(0 0 0)
(0 0 0)
(0 0 0)
(0 0 0)
(0 0 0)
(0 0 0)
(0 0 0)
(0 0 0)
(0 0 0)
(0 0 0)
(0 0 0)
(0 0 0)
(0 0 0)
(0 0 0)
(0 0 0)
(0 0 0)
(0 0 0)
(0 0 0)
(0 0 0)
(0 0 0)
(0 0 0)
(0 0 0)
(0 0 0)
)
;

boundaryField
{
    inandouthalf11
    {
        type            cyclic;
    }
    inandouthalf12
    {
        type            cyclic;
    }
    inandouthalf21
    {
        type            cyclic;
    }
    inandouthalf22
    {
        type            cyclic;
    }
    inandouthalf31
    {
        type            cyclic;
    }
    inandouthalf32
    {
        type            cyclic;
    }
    inandouthalf41
    {
        type            cyclic;
    }
    inandouthalf42
    {
        type            cyclic;
    }
    top
    {
        type            symmetryPlane;
    }
    walls
    {
        type            calculated;
        value           uniform (0 0 0);
    }
    frontAndBackPlanes
    {
        type            empty;
    }
}


// ************************************************************************* //
