/*--------------------------------*- C++ -*----------------------------------*\
| =========                 |                                                 |
| \\      /  F ield         | OpenFOAM: The Open Source CFD Toolbox           |
|  \\    /   O peration     | Version:  2.4.x                                 |
|   \\  /    A nd           | Web:      www.OpenFOAM.org                      |
|    \\/     M anipulation  |                                                 |
\*---------------------------------------------------------------------------*/
FoamFile
{
    version     2.0;
    format      ascii;
    class       volScalarField;
    location    "6.25";
    object      k_0;
}
// * * * * * * * * * * * * * * * * * * * * * * * * * * * * * * * * * * * * * //

dimensions      [0 2 -2 0 0 0 0];

internalField   nonuniform List<scalar> 
360
(
1e-20
1e-20
1e-20
1e-20
1e-20
1e-20
1e-20
1e-20
1e-20
1e-20
1e-20
1e-20
1e-20
1e-20
1e-20
1e-20
1e-20
1e-20
1e-20
1e-20
1e-20
1e-20
1e-20
1e-20
1e-20
1e-20
1e-20
1e-20
1e-20
1e-20
1e-20
1e-20
1e-20
1e-20
1e-20
1e-20
1e-20
1e-20
1e-20
1e-20
1e-20
1e-20
1e-20
1e-20
1e-20
1e-20
1e-20
1e-20
1e-20
1e-20
1e-20
1e-20
1e-20
1e-20
1e-20
1e-20
1e-20
1e-20
1e-20
1e-20
1e-20
1e-20
1e-20
1e-20
1e-20
1e-20
1e-20
1e-20
1e-20
1e-20
1e-20
1e-20
1e-20
1e-20
1e-20
1e-20
1e-20
1e-20
1e-20
1e-20
1e-20
1e-20
1e-20
1e-20
1e-20
1e-20
1e-20
1e-20
1e-20
1e-20
1e-20
1e-20
1e-20
1e-20
1e-20
1e-20
1e-20
1e-20
1e-20
1e-20
1e-20
1e-20
1e-20
1e-20
1e-20
1e-20
1e-20
1e-20
1e-20
1e-20
1e-20
1e-20
1e-20
1e-20
1e-20
1e-20
1e-20
1e-20
1e-20
1e-20
1e-20
1e-20
1e-20
1e-20
1e-20
1e-20
1e-20
1e-20
1e-20
1e-20
1e-20
1e-20
1.35149e-20
5.61848e-20
2.84271e-19
1.56036e-18
9.30816e-18
6.10222e-17
4.46042e-16
3.69194e-15
3.51112e-14
3.89306e-13
5.12333e-12
8.13264e-11
1.57565e-09
3.7678e-08
1.12036e-06
3.82392e-05
0.000863053
0.00370095
0.00524233
0.00605658
0.00657
0.0069271
0.00719175
0.00739484
0.00755276
0.00767523
0.00776871
0.0078379
0.00788645
0.00791724
0.00793265
0.00793466
0.0079249
0.00790475
0.0078754
0.00783783
0.00779289
0.00774134
0.0076838
0.00762082
0.0075529
0.00748046
0.00740387
0.00732348
0.00723957
0.00715243
0.00706227
0.00696934
0.00687382
0.00677589
0.00667573
0.00657348
0.00646929
0.00636329
0.00625562
0.00614638
0.00603569
0.00592365
0.00581038
0.00569597
0.00558052
0.00546411
0.00534686
0.00522884
0.00511015
0.00499089
0.00487113
0.00475099
0.00463054
0.00450866
0.00438419
0.00425718
0.0041277
0.00399584
0.00386169
0.00372539
0.00358707
0.00344693
0.00330515
0.00316199
0.00301772
0.00287267
0.00272721
0.00258175
0.00243678
0.00229282
0.00215046
0.00201035
0.0018732
0.00173976
0.0016108
0.00148713
0.00136952
0.00125872
0.00115535
0.00105995
0.000972821
0.000894099
0.000823672
0.000761203
0.000706158
0.000657844
0.000615461
0.000578154
0.000545056
0.000515325
0.000488163
0.000462833
0.000438665
0.000415059
0.000391487
0.000367497
0.000342711
0.00031683
0.000289634
0.00026099
0.000230856
0.000199298
0.00016651
0.000132852
9.89186e-05
6.56648e-05
3.47451e-05
9.81665e-06
7.49197e-07
1.76656e-08
3.27057e-10
5.66409e-12
9.22733e-14
1.41518e-15
2.04513e-17
2.85611e-19
1.22576e-20
1e-20
1e-20
1e-20
1e-20
1e-20
1e-20
1e-20
1e-20
1e-20
1e-20
1e-20
1e-20
1e-20
1e-20
1e-20
1e-20
1e-20
1e-20
1e-20
1e-20
1e-20
1e-20
1e-20
1e-20
1e-20
1e-20
1e-20
1e-20
1e-20
1e-20
1e-20
1e-20
1e-20
1e-20
1e-20
1e-20
1e-20
1e-20
1e-20
1e-20
1e-20
1e-20
1e-20
1e-20
1e-20
1e-20
1e-20
1e-20
1e-20
1e-20
1e-20
1e-20
1e-20
1e-20
1e-20
1e-20
1e-20
1e-20
1e-20
1e-20
1e-20
1e-20
1e-20
1e-20
1e-20
1e-20
1e-20
1e-20
1e-20
1e-20
1e-20
1e-20
1e-20
1e-20
1e-20
1e-20
1e-20
1e-20
1e-20
1e-20
1e-20
1e-20
1e-20
1e-20
1e-20
1e-20
1e-20
1e-20
1e-20
1e-20
1e-20
1e-20
1e-20
1e-20
1e-20
)
;

boundaryField
{
    inandouthalf11
    {
        type            cyclic;
    }
    inandouthalf12
    {
        type            cyclic;
    }
    inandouthalf21
    {
        type            cyclic;
    }
    inandouthalf22
    {
        type            cyclic;
    }
    inandouthalf31
    {
        type            cyclic;
    }
    inandouthalf32
    {
        type            cyclic;
    }
    inandouthalf41
    {
        type            cyclic;
    }
    inandouthalf42
    {
        type            cyclic;
    }
    top
    {
        type            symmetryPlane;
    }
    walls
    {
        type            zeroGradient;
    }
    frontAndBackPlanes
    {
        type            empty;
    }
}


// ************************************************************************* //
