/*--------------------------------*- C++ -*----------------------------------*\
| =========                 |                                                 |
| \\      /  F ield         | OpenFOAM: The Open Source CFD Toolbox           |
|  \\    /   O peration     | Version:  2.4.x                                 |
|   \\  /    A nd           | Web:      www.OpenFOAM.org                      |
|    \\/     M anipulation  |                                                 |
\*---------------------------------------------------------------------------*/
FoamFile
{
    version     2.0;
    format      ascii;
    class       volScalarField;
    location    "6.25";
    object      mua;
}
// * * * * * * * * * * * * * * * * * * * * * * * * * * * * * * * * * * * * * //

dimensions      [1 -1 -1 0 0 0 0];

internalField   nonuniform List<scalar> 
360
(
957440
645677
789811
829842
790998
763544
751541
743675
735686
726413
716092
705648
695569
685991
676701
667449
658196
649030
639945
630931
622132
613376
604694
596152
587774
579623
571684
563853
556233
548835
541505
534127
526691
518832
510690
502098
493008
483341
473382
463589
454019
445401
438259
432812
429706
429195
431395
436088
442080
448087
452605
452994
446613
431092
405137
368974
325308
278252
233007
194199
165255
148856
147899
169032
230097
381691
777715
1.93301e+06
5.73778e+06
1.9644e+07
7.40406e+07
2.91806e+08
1.14174e+09
4.21563e+09
1.40847e+10
4.12129e+10
1.03187e+11
2.17627e+11
3.8395e+11
5.68431e+11
7.1558e+11
7.82715e+11
7.64759e+11
6.87523e+11
5.84698e+11
4.81583e+11
3.91261e+11
3.1777e+11
2.60288e+11
2.16169e+11
1.82528e+11
1.56841e+11
1.37105e+11
1.2182e+11
1.09881e+11
1.00482e+11
9.30331e+10
8.70994e+10
8.23531e+10
7.85434e+10
7.54764e+10
7.29996e+10
7.09926e+10
6.93602e+10
6.80269e+10
6.6932e+10
6.6026e+10
6.52676e+10
6.46214e+10
6.40561e+10
6.35436e+10
6.30574e+10
6.25719e+10
6.20616e+10
6.15004e+10
6.08615e+10
6.01184e+10
5.92458e+10
5.82223e+10
5.70343e+10
5.56799e+10
5.41735e+10
5.25476e+10
5.08528e+10
4.91536e+10
4.75234e+10
4.60399e+10
4.47858e+10
4.38537e+10
4.3348e+10
4.33686e+10
4.3963e+10
4.50589e+10
4.64426e+10
4.78504e+10
4.90668e+10
4.97917e+10
4.94587e+10
4.77812e+10
4.61925e+10
4.85451e+10
6.06129e+10
9.20923e+10
1.74399e+11
3.97294e+11
5.70284e+11
3.96887e+10
0.110028
0.0129031
0.00787682
0.00654366
0.00584994
0.00548383
0.00531155
0.0052507
0.00524915
0.00527596
0.00531393
0.00535405
0.00539186
0.00542537
0.00545385
0.0054772
0.00549565
0.00550954
0.00551922
0.00552508
0.00552745
0.00552663
0.00552291
0.00551653
0.0055077
0.00549662
0.00548345
0.00546834
0.00545143
0.00543286
0.00541272
0.00539114
0.00536821
0.00534403
0.00531867
0.00529223
0.00526479
0.00523642
0.0052072
0.0051772
0.00514648
0.00511512
0.00508317
0.0050507
0.00501777
0.00498443
0.00495073
0.00491673
0.00488247
0.004848
0.00481335
0.00477855
0.00474364
0.00470865
0.00467322
0.00463701
0.00460001
0.0045622
0.00452356
0.00448404
0.00444359
0.00440216
0.00435966
0.00431599
0.00427106
0.00422472
0.00417685
0.0041273
0.00407588
0.00402241
0.00396668
0.00390846
0.00384746
0.00378339
0.00371591
0.00364459
0.00356896
0.00348845
0.00340236
0.00330983
0.0032098
0.00310086
0.00298118
0.00284822
0.00269832
0.00252583
0.00232131
0.00206659
0.00171704
0
0
0
0
0
0
0
0
0
0
0
0
0
0
0
0
0
0
0
0
0
0
0
0
0
0
0
0
0
0
0
0
0
0
0
0
0
0
0
0
0
0
0
0
0
0
0
0
0
0
0
0
0
0
0
0
0
0
0
0
0
0
0
0
0
0
0
0
0
0
0
0
0
0
0
0
0
0
0
0
0
0
0
0
0
0
0
0
0
0
0
0
0
0
0
0
0
0
0
0
0
0
0
0
0
0
0
0
0
0
0
0
0
0
0
0
0
0
0
0
0
0
0
0
)
;

boundaryField
{
    inandouthalf11
    {
        type            cyclic;
    }
    inandouthalf12
    {
        type            cyclic;
    }
    inandouthalf21
    {
        type            cyclic;
    }
    inandouthalf22
    {
        type            cyclic;
    }
    inandouthalf31
    {
        type            cyclic;
    }
    inandouthalf32
    {
        type            cyclic;
    }
    inandouthalf41
    {
        type            cyclic;
    }
    inandouthalf42
    {
        type            cyclic;
    }
    top
    {
        type            symmetryPlane;
    }
    walls
    {
        type            calculated;
        value           uniform 1e+30;
    }
    frontAndBackPlanes
    {
        type            empty;
    }
}


// ************************************************************************* //
