/*--------------------------------*- C++ -*----------------------------------*\
| =========                 |                                                 |
| \\      /  F ield         | OpenFOAM: The Open Source CFD Toolbox           |
|  \\    /   O peration     | Version:  2.4.x                                 |
|   \\  /    A nd           | Web:      www.OpenFOAM.org                      |
|    \\/     M anipulation  |                                                 |
\*---------------------------------------------------------------------------*/
FoamFile
{
    version     2.0;
    format      ascii;
    class       surfaceScalarField;
    location    "6.25";
    object      phib_0;
}
// * * * * * * * * * * * * * * * * * * * * * * * * * * * * * * * * * * * * * //

dimensions      [0 3 -1 0 0 0 0];

internalField   nonuniform List<scalar> 
359
(
5.65237e-13
1.46921e-12
2.29389e-12
3.06621e-12
3.85203e-12
4.65801e-12
5.47317e-12
6.29192e-12
7.11353e-12
7.9396e-12
8.7715e-12
9.60945e-12
1.04533e-11
1.13026e-11
1.21571e-11
1.30169e-11
1.38822e-11
1.47529e-11
1.56291e-11
1.65109e-11
1.73981e-11
1.82908e-11
1.9189e-11
2.00927e-11
2.10018e-11
2.19161e-11
2.28353e-11
2.37595e-11
2.46883e-11
2.56217e-11
2.65595e-11
2.75021e-11
2.84493e-11
2.94027e-11
3.03623e-11
3.13298e-11
3.23059e-11
3.32924e-11
3.42904e-11
3.52996e-11
3.63204e-11
3.73509e-11
3.83878e-11
3.94276e-11
4.04644e-11
4.1492e-11
4.25041e-11
4.34951e-11
4.44625e-11
4.54073e-11
4.63327e-11
4.7248e-11
4.81664e-11
4.91082e-11
5.00995e-11
5.11768e-11
5.23851e-11
5.37821e-11
5.5431e-11
5.73841e-11
5.96495e-11
6.21282e-11
6.45875e-11
6.67076e-11
6.82422e-11
6.91523e-11
6.95892e-11
6.97574e-11
6.9807e-11
6.98142e-11
6.98082e-11
6.97987e-11
6.9788e-11
6.97767e-11
6.97651e-11
6.97532e-11
6.97411e-11
6.97288e-11
6.97161e-11
6.97032e-11
6.96899e-11
6.96763e-11
6.96623e-11
6.9648e-11
6.96333e-11
6.96182e-11
6.96029e-11
6.95872e-11
6.95712e-11
6.95549e-11
6.95382e-11
6.95212e-11
6.95037e-11
6.94859e-11
6.94676e-11
6.9449e-11
6.94299e-11
6.94103e-11
6.93903e-11
6.93699e-11
6.93489e-11
6.93275e-11
6.93056e-11
6.92831e-11
6.92601e-11
6.92365e-11
6.92123e-11
6.91875e-11
6.91621e-11
6.9136e-11
6.91091e-11
6.90816e-11
6.90533e-11
6.90242e-11
6.89943e-11
6.89635e-11
6.89318e-11
6.88992e-11
6.88655e-11
6.88309e-11
6.87951e-11
6.87583e-11
6.87202e-11
6.8681e-11
6.86404e-11
6.85984e-11
6.85549e-11
6.85098e-11
6.8463e-11
6.84143e-11
6.83637e-11
6.8311e-11
6.82557e-11
6.81974e-11
6.81355e-11
6.80705e-11
6.8002e-11
6.79276e-11
6.78438e-11
6.77508e-11
6.76567e-11
6.7556e-11
6.74302e-11
6.72715e-11
6.70235e-11
6.63606e-11
6.55517e-11
1.01351e-10
6.91579e-10
6.71861e-10
6.13533e-10
5.35753e-10
4.54816e-10
3.791e-10
3.12626e-10
2.56463e-10
2.10038e-10
1.72093e-10
1.4122e-10
1.16112e-10
9.56585e-11
7.89448e-11
6.5238e-11
5.39545e-11
4.46312e-11
3.69004e-11
3.04692e-11
2.51036e-11
2.06156e-11
1.68536e-11
1.36944e-11
1.10378e-11
8.80171e-12
6.91849e-12
5.33234e-12
3.99694e-12
2.87373e-12
1.93043e-12
1.14001e-12
4.79707e-13
-6.96994e-14
-5.24461e-13
-8.98367e-13
-1.20314e-12
-1.44878e-12
-1.6438e-12
-1.7955e-12
-1.91011e-12
-1.99298e-12
-2.04865e-12
-2.08099e-12
-2.09323e-12
-2.08802e-12
-2.06755e-12
-2.03355e-12
-1.98742e-12
-1.93024e-12
-1.863e-12
-1.78679e-12
-1.70308e-12
-1.61357e-12
-1.5177e-12
-1.41639e-12
-1.31061e-12
-1.20092e-12
-1.08811e-12
-9.74137e-13
-8.6144e-13
-7.52566e-13
-6.50036e-13
-5.55782e-13
-4.71153e-13
-3.96545e-13
-3.3166e-13
-2.76138e-13
-2.29107e-13
-1.8947e-13
-1.56321e-13
-1.2874e-13
-1.05815e-13
-8.67366e-14
-7.09409e-14
-5.79057e-14
-4.71097e-14
-3.82059e-14
-3.08945e-14
-2.48822e-14
-1.99525e-14
-1.59087e-14
-1.2618e-14
-9.92067e-15
-7.73967e-15
-5.96591e-15
-4.60893e-15
-3.41392e-15
-2.89203e-15
-1.31839e-15
-5.20962e-16
-2.5541e-16
-8.39905e-17
1.04133e-16
-7.24472e-18
-7.10923e-18
-7.00277e-18
-6.84895e-18
-6.72234e-18
-6.554e-18
-6.40897e-18
-6.22545e-18
-6.0653e-18
-5.86998e-18
-5.69185e-18
-5.47697e-18
-5.27951e-18
-5.04888e-18
-4.83566e-18
-4.59747e-18
-4.3751e-18
-4.13038e-18
-3.90094e-18
-3.6587e-18
-3.43618e-18
-3.21044e-18
-3.01634e-18
-2.84319e-18
-2.70083e-18
-2.55141e-18
-2.4326e-18
-2.32443e-18
-2.22261e-18
-2.12351e-18
-2.02929e-18
-1.95118e-18
-1.87515e-18
-1.80047e-18
-1.72e-18
-1.64552e-18
-1.5646e-18
-1.48309e-18
-1.39882e-18
-1.33421e-18
-1.26638e-18
-1.20009e-18
-1.12677e-18
-1.05836e-18
-9.82437e-19
-8.63733e-19
-7.80693e-19
-7.06134e-19
-6.26945e-19
-5.46281e-19
-4.60716e-19
-3.79362e-19
-2.95599e-19
-2.15607e-19
-1.40395e-19
-7.78443e-20
-5.16781e-20
-3.14966e-20
-5.62425e-20
-4.07345e-20
-2.88355e-20
-1.81864e-20
-1.10164e-20
7.29573e-22
6.87222e-21
1.3043e-20
1.24375e-20
1.64989e-20
1.31447e-20
1.12935e-20
4.76952e-21
3.87286e-21
1.51374e-22
-3.50146e-21
-9.09402e-21
-1.4603e-20
-2.11146e-20
-2.756e-20
-3.32585e-20
-4.7218e-20
-5.77794e-20
-6.93847e-20
-7.56796e-20
-9.58371e-20
-1.07388e-19
-1.30302e-19
-1.50995e-19
-3.24629e-19
-4.78126e-19
-6.41442e-19
-7.54078e-19
-9.23366e-19
-1.01272e-18
-1.10591e-18
-1.10988e-18
-1.27859e-18
-1.3302e-18
-1.38299e-18
-1.28876e-18
-1.31142e-18
-1.17108e-18
-1.0361e-18
-7.54315e-19
-7.43556e-19
-5.71292e-19
-4.01221e-19
-3.30285e-20
2.01389e-19
6.27423e-19
1.07975e-18
1.82987e-18
2.27693e-18
2.91825e-18
3.60092e-18
4.6181e-18
5.05977e-18
6.59691e-18
9.47109e-18
)
;

boundaryField
{
    inandouthalf11
    {
        type            cyclic;
        value           nonuniform List<scalar> 
100
(
-3.55574e-11
-3.53675e-11
-3.53071e-11
-3.53064e-11
-3.52975e-11
-3.52791e-11
-3.526e-11
-3.52414e-11
-3.52228e-11
-3.5204e-11
-3.51849e-11
-3.51655e-11
-3.51456e-11
-3.51254e-11
-3.51048e-11
-3.50838e-11
-3.50626e-11
-3.50409e-11
-3.50189e-11
-3.49966e-11
-3.49738e-11
-3.49506e-11
-3.49271e-11
-3.49031e-11
-3.48788e-11
-3.48541e-11
-3.48289e-11
-3.48034e-11
-3.47775e-11
-3.47511e-11
-3.47243e-11
-3.46972e-11
-3.46695e-11
-3.46416e-11
-3.4613e-11
-3.4584e-11
-3.45543e-11
-3.45241e-11
-3.44932e-11
-3.44614e-11
-3.4429e-11
-3.43958e-11
-3.43619e-11
-3.43276e-11
-3.42928e-11
-3.4258e-11
-3.42233e-11
-3.41889e-11
-3.41551e-11
-3.41222e-11
-3.40895e-11
-3.40573e-11
-3.40249e-11
-3.39916e-11
-3.39563e-11
-3.39178e-11
-3.38738e-11
-3.38222e-11
-3.37598e-11
-3.36835e-11
-3.35914e-11
-3.34846e-11
-3.33712e-11
-3.32655e-11
-3.31836e-11
-3.31334e-11
-3.31114e-11
-3.31075e-11
-3.31126e-11
-3.31211e-11
-3.31313e-11
-3.31421e-11
-3.31532e-11
-3.31648e-11
-3.31766e-11
-3.31888e-11
-3.32012e-11
-3.32138e-11
-3.32267e-11
-3.324e-11
-3.32535e-11
-3.32675e-11
-3.32818e-11
-3.32965e-11
-3.33116e-11
-3.33271e-11
-3.33429e-11
-3.3359e-11
-3.33755e-11
-3.33923e-11
-3.34095e-11
-3.34271e-11
-3.34451e-11
-3.34635e-11
-3.34824e-11
-3.35017e-11
-3.35215e-11
-3.35418e-11
-3.35625e-11
-3.35837e-11
)
;
    }
    inandouthalf12
    {
        type            cyclic;
        value           nonuniform List<scalar> 
100
(
3.55574e-11
3.53675e-11
3.53071e-11
3.53064e-11
3.52975e-11
3.52791e-11
3.526e-11
3.52414e-11
3.52228e-11
3.5204e-11
3.51849e-11
3.51655e-11
3.51456e-11
3.51254e-11
3.51048e-11
3.50838e-11
3.50626e-11
3.50409e-11
3.50189e-11
3.49966e-11
3.49738e-11
3.49506e-11
3.49271e-11
3.49031e-11
3.48788e-11
3.48541e-11
3.48289e-11
3.48034e-11
3.47775e-11
3.47511e-11
3.47243e-11
3.46972e-11
3.46695e-11
3.46416e-11
3.4613e-11
3.4584e-11
3.45543e-11
3.45241e-11
3.44932e-11
3.44614e-11
3.4429e-11
3.43958e-11
3.43619e-11
3.43276e-11
3.42928e-11
3.4258e-11
3.42233e-11
3.41889e-11
3.41551e-11
3.41222e-11
3.40895e-11
3.40573e-11
3.40249e-11
3.39916e-11
3.39563e-11
3.39178e-11
3.38738e-11
3.38222e-11
3.37598e-11
3.36835e-11
3.35914e-11
3.34846e-11
3.33712e-11
3.32655e-11
3.31836e-11
3.31334e-11
3.31114e-11
3.31075e-11
3.31126e-11
3.31211e-11
3.31313e-11
3.31421e-11
3.31532e-11
3.31648e-11
3.31766e-11
3.31888e-11
3.32012e-11
3.32138e-11
3.32267e-11
3.324e-11
3.32535e-11
3.32675e-11
3.32818e-11
3.32965e-11
3.33116e-11
3.33271e-11
3.33429e-11
3.3359e-11
3.33755e-11
3.33923e-11
3.34095e-11
3.34271e-11
3.34451e-11
3.34635e-11
3.34824e-11
3.35017e-11
3.35215e-11
3.35418e-11
3.35625e-11
3.35837e-11
)
;
    }
    inandouthalf21
    {
        type            cyclic;
        value           nonuniform List<scalar> 
100
(
-3.36055e-11
-3.36278e-11
-3.36506e-11
-3.3674e-11
-3.3698e-11
-3.37226e-11
-3.37478e-11
-3.37737e-11
-3.38004e-11
-3.38277e-11
-3.38558e-11
-3.38847e-11
-3.39144e-11
-3.39449e-11
-3.39764e-11
-3.40088e-11
-3.40423e-11
-3.40767e-11
-3.41122e-11
-3.41489e-11
-3.41867e-11
-3.42258e-11
-3.42663e-11
-3.4308e-11
-3.43513e-11
-3.4396e-11
-3.44424e-11
-3.44906e-11
-3.45407e-11
-3.45929e-11
-3.46473e-11
-3.4704e-11
-3.47632e-11
-3.48257e-11
-3.48922e-11
-3.49626e-11
-3.50367e-11
-3.51154e-11
-3.52029e-11
-3.53034e-11
-3.54122e-11
-3.55162e-11
-3.5641e-11
-3.58033e-11
-3.60057e-11
-3.63794e-11
-3.74942e-11
4.42284e-11
2.8888e-08
1.27279e-07
2.03343e-07
2.61344e-07
3.07677e-07
3.45765e-07
3.77796e-07
4.05259e-07
4.29203e-07
4.50385e-07
4.6936e-07
4.86541e-07
5.02243e-07
5.16708e-07
5.30125e-07
5.42647e-07
5.54392e-07
5.65461e-07
5.75935e-07
5.8588e-07
5.95354e-07
6.04404e-07
6.13072e-07
6.21393e-07
6.29396e-07
6.37109e-07
6.44555e-07
6.51753e-07
6.58722e-07
6.65478e-07
6.72034e-07
6.78404e-07
6.84599e-07
6.90629e-07
6.96503e-07
7.02229e-07
7.07815e-07
7.13268e-07
7.18593e-07
7.23797e-07
7.28884e-07
7.33859e-07
7.38726e-07
7.43489e-07
7.48152e-07
7.52717e-07
7.57188e-07
7.61566e-07
7.65855e-07
7.70056e-07
7.74172e-07
7.78203e-07
)
;
    }
    inandouthalf22
    {
        type            cyclic;
        value           nonuniform List<scalar> 
100
(
3.36055e-11
3.36278e-11
3.36506e-11
3.3674e-11
3.3698e-11
3.37226e-11
3.37478e-11
3.37737e-11
3.38004e-11
3.38277e-11
3.38558e-11
3.38847e-11
3.39144e-11
3.39449e-11
3.39764e-11
3.40088e-11
3.40423e-11
3.40767e-11
3.41122e-11
3.41489e-11
3.41867e-11
3.42258e-11
3.42663e-11
3.4308e-11
3.43513e-11
3.4396e-11
3.44424e-11
3.44906e-11
3.45407e-11
3.45929e-11
3.46473e-11
3.4704e-11
3.47632e-11
3.48257e-11
3.48922e-11
3.49626e-11
3.50367e-11
3.51154e-11
3.52029e-11
3.53034e-11
3.54122e-11
3.55162e-11
3.5641e-11
3.58033e-11
3.60057e-11
3.63794e-11
3.74942e-11
-4.42284e-11
-2.8888e-08
-1.27279e-07
-2.03343e-07
-2.61344e-07
-3.07677e-07
-3.45765e-07
-3.77796e-07
-4.05259e-07
-4.29203e-07
-4.50385e-07
-4.6936e-07
-4.86541e-07
-5.02243e-07
-5.16708e-07
-5.30125e-07
-5.42647e-07
-5.54392e-07
-5.65461e-07
-5.75935e-07
-5.8588e-07
-5.95354e-07
-6.04404e-07
-6.13072e-07
-6.21393e-07
-6.29396e-07
-6.37109e-07
-6.44555e-07
-6.51753e-07
-6.58722e-07
-6.65478e-07
-6.72034e-07
-6.78404e-07
-6.84599e-07
-6.90629e-07
-6.96503e-07
-7.02229e-07
-7.07815e-07
-7.13268e-07
-7.18593e-07
-7.23797e-07
-7.28884e-07
-7.33859e-07
-7.38726e-07
-7.43489e-07
-7.48152e-07
-7.52717e-07
-7.57188e-07
-7.61566e-07
-7.65855e-07
-7.70056e-07
-7.74172e-07
-7.78203e-07
)
;
    }
    inandouthalf31
    {
        type            cyclic;
        value           nonuniform List<scalar> 
110
(
7.82154e-07
8.02016e-07
8.22356e-07
8.43182e-07
8.64504e-07
8.86329e-07
9.08664e-07
9.31516e-07
9.54891e-07
9.78795e-07
1.00323e-06
1.0282e-06
1.05371e-06
1.07976e-06
1.10635e-06
1.13347e-06
1.16112e-06
1.1893e-06
1.21798e-06
1.24717e-06
1.27684e-06
1.30697e-06
1.33755e-06
1.36855e-06
1.39994e-06
1.43171e-06
1.46381e-06
1.49623e-06
1.52894e-06
1.56193e-06
1.59519e-06
1.62872e-06
1.66251e-06
1.69658e-06
1.73094e-06
1.76561e-06
1.8006e-06
1.83593e-06
1.87163e-06
1.9077e-06
1.94418e-06
1.98108e-06
2.01843e-06
2.05624e-06
2.09455e-06
2.13339e-06
2.17279e-06
2.21278e-06
2.25342e-06
2.29474e-06
2.33682e-06
2.37973e-06
2.42357e-06
2.46849e-06
2.51468e-06
2.56261e-06
2.61348e-06
2.66643e-06
2.72055e-06
2.77577e-06
2.83211e-06
2.8896e-06
2.94825e-06
3.00809e-06
3.06914e-06
3.13144e-06
3.195e-06
3.25985e-06
3.32601e-06
3.39352e-06
3.4624e-06
3.53268e-06
3.60438e-06
3.67754e-06
3.75219e-06
3.82835e-06
3.90605e-06
3.98534e-06
4.06623e-06
4.14876e-06
4.23297e-06
4.31889e-06
4.40655e-06
4.49599e-06
4.58725e-06
4.68036e-06
4.77536e-06
4.87228e-06
4.97118e-06
5.07208e-06
5.17503e-06
5.28007e-06
5.38724e-06
5.49659e-06
5.60815e-06
5.72198e-06
5.83812e-06
5.95662e-06
6.07752e-06
6.20088e-06
6.32674e-06
6.45516e-06
6.58618e-06
6.71986e-06
6.85626e-06
6.99542e-06
7.13741e-06
7.28228e-06
7.43009e-06
7.5809e-06
)
;
    }
    inandouthalf32
    {
        type            cyclic;
        value           nonuniform List<scalar> 
110
(
-7.82154e-07
-8.02016e-07
-8.22356e-07
-8.43182e-07
-8.64504e-07
-8.86329e-07
-9.08664e-07
-9.31516e-07
-9.54891e-07
-9.78795e-07
-1.00323e-06
-1.0282e-06
-1.05371e-06
-1.07976e-06
-1.10635e-06
-1.13347e-06
-1.16112e-06
-1.1893e-06
-1.21798e-06
-1.24717e-06
-1.27684e-06
-1.30697e-06
-1.33755e-06
-1.36855e-06
-1.39994e-06
-1.43171e-06
-1.46381e-06
-1.49623e-06
-1.52894e-06
-1.56193e-06
-1.59519e-06
-1.62872e-06
-1.66251e-06
-1.69658e-06
-1.73094e-06
-1.76561e-06
-1.8006e-06
-1.83593e-06
-1.87163e-06
-1.9077e-06
-1.94418e-06
-1.98108e-06
-2.01843e-06
-2.05624e-06
-2.09455e-06
-2.13339e-06
-2.17279e-06
-2.21278e-06
-2.25342e-06
-2.29474e-06
-2.33682e-06
-2.37973e-06
-2.42357e-06
-2.46849e-06
-2.51468e-06
-2.56261e-06
-2.61348e-06
-2.66643e-06
-2.72055e-06
-2.77577e-06
-2.83211e-06
-2.8896e-06
-2.94825e-06
-3.00809e-06
-3.06914e-06
-3.13144e-06
-3.195e-06
-3.25985e-06
-3.32601e-06
-3.39352e-06
-3.4624e-06
-3.53268e-06
-3.60438e-06
-3.67754e-06
-3.75219e-06
-3.82835e-06
-3.90605e-06
-3.98534e-06
-4.06623e-06
-4.14876e-06
-4.23297e-06
-4.31889e-06
-4.40655e-06
-4.49599e-06
-4.58725e-06
-4.68036e-06
-4.77536e-06
-4.87228e-06
-4.97118e-06
-5.07208e-06
-5.17503e-06
-5.28007e-06
-5.38724e-06
-5.49659e-06
-5.60815e-06
-5.72198e-06
-5.83812e-06
-5.95662e-06
-6.07752e-06
-6.20088e-06
-6.32674e-06
-6.45516e-06
-6.58618e-06
-6.71986e-06
-6.85626e-06
-6.99542e-06
-7.13741e-06
-7.28228e-06
-7.43009e-06
-7.5809e-06
)
;
    }
    inandouthalf41
    {
        type            cyclic;
        value           nonuniform List<scalar> 
50
(
6.78568e-06
6.78568e-06
6.78568e-06
6.78568e-06
6.78568e-06
6.78568e-06
6.78568e-06
6.78568e-06
6.78568e-06
6.78568e-06
6.78568e-06
6.78568e-06
6.78568e-06
6.78568e-06
6.78568e-06
6.78568e-06
6.78568e-06
6.78568e-06
6.78568e-06
6.78568e-06
6.78568e-06
6.78568e-06
6.78568e-06
6.78568e-06
6.78568e-06
6.78568e-06
6.78568e-06
6.78568e-06
6.78568e-06
6.78568e-06
6.78568e-06
6.78568e-06
6.78568e-06
6.78568e-06
6.78568e-06
6.78568e-06
6.78568e-06
6.78568e-06
6.78568e-06
6.78568e-06
6.78568e-06
6.78568e-06
6.78568e-06
6.78568e-06
6.78568e-06
6.78568e-06
6.78568e-06
6.78568e-06
6.78568e-06
6.78568e-06
)
;
    }
    inandouthalf42
    {
        type            cyclic;
        value           nonuniform List<scalar> 
50
(
-6.78568e-06
-6.78568e-06
-6.78568e-06
-6.78568e-06
-6.78568e-06
-6.78568e-06
-6.78568e-06
-6.78568e-06
-6.78568e-06
-6.78568e-06
-6.78568e-06
-6.78568e-06
-6.78568e-06
-6.78568e-06
-6.78568e-06
-6.78568e-06
-6.78568e-06
-6.78568e-06
-6.78568e-06
-6.78568e-06
-6.78568e-06
-6.78568e-06
-6.78568e-06
-6.78568e-06
-6.78568e-06
-6.78568e-06
-6.78568e-06
-6.78568e-06
-6.78568e-06
-6.78568e-06
-6.78568e-06
-6.78568e-06
-6.78568e-06
-6.78568e-06
-6.78568e-06
-6.78568e-06
-6.78568e-06
-6.78568e-06
-6.78568e-06
-6.78568e-06
-6.78568e-06
-6.78568e-06
-6.78568e-06
-6.78568e-06
-6.78568e-06
-6.78568e-06
-6.78568e-06
-6.78568e-06
-6.78568e-06
-6.78568e-06
)
;
    }
    top
    {
        type            symmetryPlane;
        value           uniform 0;
    }
    walls
    {
        type            fixedValue;
        value           uniform 0;
    }
    frontAndBackPlanes
    {
        type            empty;
        value           nonuniform 0();
    }
}


// ************************************************************************* //
