/*--------------------------------*- C++ -*----------------------------------*\
| =========                 |                                                 |
| \\      /  F ield         | OpenFOAM: The Open Source CFD Toolbox           |
|  \\    /   O peration     | Version:  2.4.x                                 |
|   \\  /    A nd           | Web:      www.OpenFOAM.org                      |
|    \\/     M anipulation  |                                                 |
\*---------------------------------------------------------------------------*/
FoamFile
{
    version     2.0;
    format      ascii;
    class       volVectorField;
    location    "6.25";
    object      susb;
}
// * * * * * * * * * * * * * * * * * * * * * * * * * * * * * * * * * * * * * //

dimensions      [0 1 -2 0 0 0 0];

internalField   nonuniform List<vector> 
360
(
(0 5.2835e-18 0)
(0 6.11351e-18 0)
(0 2.74876e-19 0)
(0 -8.6366e-19 0)
(-3.69227e-31 -4.71626e-19 0)
(-3.69178e-31 -2.69451e-19 0)
(-3.6913e-31 -2.9075e-19 0)
(0 -3.19318e-19 0)
(-7.38032e-31 -3.28471e-19 0)
(0 -3.36901e-19 0)
(-3.68895e-31 -3.39973e-19 0)
(0 -3.40619e-19 0)
(-3.68773e-31 -3.42067e-19 0)
(0 -3.43822e-19 0)
(0 -3.47513e-19 0)
(0 -3.51687e-19 0)
(0 -3.54813e-19 0)
(-3.68459e-31 -3.57271e-19 0)
(0 -3.61493e-19 0)
(0 -3.63929e-19 0)
(0 -3.66574e-19 0)
(-3.68198e-31 -3.71153e-19 0)
(0 -3.74071e-19 0)
(0 -3.77568e-19 0)
(0 -3.81063e-19 0)
(-3.67928e-31 -3.83561e-19 0)
(0 -3.87675e-19 0)
(0 -3.91929e-19 0)
(0 -3.94312e-19 0)
(0 -3.97248e-19 0)
(0 -4.02351e-19 0)
(0 -4.04097e-19 0)
(0 -4.08848e-19 0)
(0 -4.13737e-19 0)
(0 -4.16126e-19 0)
(3.67208e-31 -4.20718e-19 0)
(0 -4.25221e-19 0)
(0 -4.32905e-19 0)
(0 -4.34489e-19 0)
(0 -4.40144e-19 0)
(0 -4.48261e-19 0)
(0 -4.48207e-19 0)
(3.6666e-31 -4.54548e-19 0)
(0 -4.59549e-19 0)
(0 -4.60402e-19 0)
(0 -4.64483e-19 0)
(0 -4.62212e-19 0)
(0 -4.62071e-19 0)
(0 -4.69054e-19 0)
(0 -4.67493e-19 0)
(3.65996e-31 -4.67574e-19 0)
(0 -4.72941e-19 0)
(0 -4.78595e-19 0)
(0 -4.85268e-19 0)
(0 -4.98865e-19 0)
(0 -5.15217e-19 0)
(0 -5.36442e-19 0)
(0 -5.67714e-19 0)
(0 -5.99173e-19 0)
(0 -6.43536e-19 0)
(0 -6.82762e-19 0)
(0 -7.04782e-19 0)
(0 -6.99677e-19 0)
(0 -6.55498e-19 0)
(0 -5.88442e-19 0)
(0 -5.22307e-19 0)
(0 -4.78284e-19 0)
(0 -4.57972e-19 0)
(0 -4.55526e-19 0)
(0 -4.69292e-19 0)
(0 -4.89629e-19 0)
(0 -5.00798e-19 0)
(0 -5.15535e-19 0)
(0 -5.32386e-19 0)
(0 -5.45558e-19 0)
(0 -5.56572e-19 0)
(0 -5.65611e-19 0)
(0 -5.78924e-19 0)
(0 -5.92897e-19 0)
(0 -6.06254e-19 0)
(0 -6.21445e-19 0)
(0 -6.38979e-19 0)
(0 -6.55707e-19 0)
(0 -6.72316e-19 0)
(0 -6.88482e-19 0)
(0 -7.04186e-19 0)
(0 -7.19164e-19 0)
(0 -7.33444e-19 0)
(0 -7.48598e-19 0)
(0 -7.64379e-19 0)
(0 -7.80636e-19 0)
(0 -7.98077e-19 0)
(0 -8.16504e-19 0)
(0 -8.35327e-19 0)
(0 -8.54607e-19 0)
(0 -8.74256e-19 0)
(0 -8.94179e-19 0)
(0 -9.14463e-19 0)
(0 -9.35302e-19 0)
(0 -9.5678e-19 0)
(0 -9.78969e-19 0)
(0 -1.002e-18 0)
(0 -1.02588e-18 0)
(0 -1.05061e-18 0)
(0 -1.07624e-18 0)
(0 -1.10282e-18 0)
(0 -1.13042e-18 0)
(0 -1.15912e-18 0)
(0 -1.18901e-18 0)
(0 -1.22014e-18 0)
(0 -1.25259e-18 0)
(0 -1.28642e-18 0)
(0 -1.32171e-18 0)
(0 -1.35852e-18 0)
(0 -1.39694e-18 0)
(0 -1.43704e-18 0)
(0 -1.47892e-18 0)
(0 -1.52267e-18 0)
(0 -1.56841e-18 0)
(0 -1.61625e-18 0)
(0 -1.6663e-18 0)
(0 -1.71865e-18 0)
(0 -1.77338e-18 0)
(0 -1.83067e-18 0)
(0 -1.89095e-18 0)
(0 -1.95501e-18 0)
(0 -2.02399e-18 0)
(0 -2.09893e-18 0)
(0 -2.17987e-18 0)
(0 -2.2654e-18 0)
(0 -2.35438e-18 0)
(0 -2.45107e-18 0)
(0 -2.64359e-18 0)
(0 -1.00042e-17 0)
(0 -4.73403e-17 0)
(0 -2.39244e-16 0)
(0 -1.30031e-15 0)
(0 -7.8846e-15 0)
(0 -5.46928e-14 0)
(0 -4.18029e-13 0)
(0 -3.31105e-12 0)
(0 -3.19219e-11 0)
(0 -4.22189e-10 0)
(0 -6.75426e-09 0)
(0 -1.6235e-07 0)
(0 -8.21097e-06 0)
(0 -0.000233141 0)
(0 -0.208738 0)
(0 -1.9773 0)
(0 -1.98061 0)
(0 -1.07279 0)
(0 -0.854151 0)
(0 -0.719916 0)
(0 -0.606501 0)
(0 -0.505701 0)
(0 -0.418485 0)
(0 -0.345335 0)
(0 -0.28527 0)
(0 -0.2365 0)
(0 -0.197061 0)
(0 -0.165143 0)
(0 -0.13922 0)
(0 -0.11806 0)
(0 -0.100684 0)
(0 -0.086327 0)
(0 -0.0743907 0)
(0 -0.0644068 0)
(0 -0.0560073 0)
(0 -0.0489019 0)
(0 -0.0428599 0)
(0 -0.0376969 0)
(0 -0.0332648 0)
(0 -0.0294437 0)
(0 -0.026136 0)
(0 -0.0232619 0)
(0 -0.0207556 0)
(0 -0.0185627 0)
(0 -0.0166379 0)
(0 -0.0149433 0)
(0 -0.0134472 0)
(0 -0.0121227 0)
(0 -0.0109473 0)
(0 -0.00990159 0)
(0 -0.00896916 0)
(0 -0.00813592 0)
(0 -0.00738979 0)
(0 -0.00672037 0)
(0 -0.00611869 0)
(0 -0.00557708 0)
(0 -0.00508897 0)
(0 -0.00464884 0)
(0 -0.004252 0)
(0 -0.00389433 0)
(0 -0.00357216 0)
(0 -0.0032823 0)
(0 -0.00302191 0)
(0 -0.00278795 0)
(0 -0.00257678 0)
(0 -0.00238357 0)
(0 -0.00220234 0)
(0 -0.00203107 0)
(0 -0.001871 0)
(-5.01361e-19 -0.00172051 0)
(0 -0.0015795 0)
(0 -0.00145122 0)
(4.78778e-19 -0.00133139 0)
(0 -0.00121129 0)
(-2.30965e-19 -0.00108951 0)
(0 -0.000966401 0)
(4.43483e-19 -0.000843293 0)
(0 -0.000723964 0)
(0 -0.000611119 0)
(0 -0.000509321 0)
(2.00785e-19 -0.000420291 0)
(0 -0.000342357 0)
(0 -0.000276739 0)
(0 -0.000222834 0)
(0 -0.00017823 0)
(0 -0.000141888 0)
(-4.10567e-20 -0.00011288 0)
(0 -8.99008e-05 0)
(-1.89413e-20 -7.12189e-05 0)
(0 -5.62516e-05 0)
(-1.73959e-20 -4.45964e-05 0)
(0 -3.52176e-05 0)
(0 -2.77153e-05 0)
(0 -2.18696e-05 0)
(0 -1.72283e-05 0)
(3.50856e-21 -1.36086e-05 0)
(3.36929e-21 -1.06703e-05 0)
(0 -8.4611e-06 0)
(0 -6.59964e-06 0)
(0 -5.2157e-06 0)
(0 -3.80912e-06 0)
(0 -3.35524e-06 0)
(0 -9.88009e-07 0)
(0 9.82973e-08 0)
(0 -1.42657e-06 0)
(0 -1.22694e-06 0)
(0 -4.39247e-07 0)
(0 -2.89298e-07 0)
(0 -3.56858e-08 0)
(0 -2.70729e-26 0)
(-2.6389e-43 -2.46305e-27 0)
(1.22511e-43 -9.39818e-28 0)
(0 -3.76638e-28 0)
(0 -1.78881e-28 0)
(-4.65684e-44 -1.0261e-28 0)
(0 -8.53064e-29 0)
(0 -8.82485e-29 0)
(-1.54979e-44 -7.88026e-29 0)
(0 -4.26195e-29 0)
(0 -1.28471e-29 0)
(0 -3.7543e-30 0)
(0 -1.07949e-30 0)
(0 -2.01275e-31 0)
(0 -1.24415e-32 0)
(0 -2.70699e-34 0)
(0 -3.60933e-36 0)
(0 -2.78904e-38 0)
(0 -1.86092e-40 0)
(0 -1.37241e-42 0)
(0 -1.07725e-44 0)
(0 -8.29026e-47 0)
(0 -4.81123e-49 0)
(0 -1.45237e-49 0)
(1.59528e-65 -7.1344e-50 0)
(0 -3.61737e-50 0)
(0 -1.80957e-50 0)
(0 -8.85481e-51 0)
(0 -4.27536e-51 0)
(0 -2.02665e-51 0)
(0 -9.42611e-52 0)
(0 -4.29881e-52 0)
(0 -1.921e-52 0)
(0 -8.40527e-53 0)
(0 -3.59823e-53 0)
(0 -1.50586e-53 0)
(0 -6.15549e-54 0)
(0 -2.45541e-54 0)
(0 -9.54869e-55 0)
(0 -3.61633e-55 0)
(0 -1.33234e-55 0)
(0 -4.76935e-56 0)
(0 -1.65671e-56 0)
(0 -5.57668e-57 0)
(3.18091e-73 -1.81633e-57 0)
(0 -5.71482e-58 0)
(0 -1.73393e-58 0)
(0 -5.06345e-59 0)
(0 -1.42014e-59 0)
(0 -3.81663e-60 0)
(0 -9.80335e-61 0)
(0 -2.39981e-61 0)
(0 -5.58084e-62 0)
(0 -1.22851e-62 0)
(2.48133e-79 -2.54944e-63 0)
(0 -4.96438e-64 0)
(0 -9.02176e-65 0)
(-1.82513e-81 -1.52047e-65 0)
(0 -2.3587e-66 0)
(0 -3.33772e-67 0)
(0 -4.26082e-68 0)
(0 -4.83883e-69 0)
(0 -4.80095e-70 0)
(0 -4.06103e-71 0)
(0 -2.82833e-72 0)
(0 -1.53688e-73 0)
(0 -5.92912e-75 0)
(0 -1.31525e-76 0)
(0 -6.31739e-79 0)
(0 -8.51453e-83 0)
(0 -9.07109e-85 0)
(0 -4.79519e-87 0)
(0 -1.55321e-97 0)
(0 -2.48853e-108 0)
(0 -2.77594e-119 0)
(0 -2.25922e-130 0)
(0 -1.51056e-141 0)
(0 -7.96713e-153 0)
(0 -3.55033e-164 0)
(0 -5.45894e-174 0)
(0 -2.1338e-184 0)
(0 -1.84916e-192 0)
(0 -6.44735e-203 0)
(0 -6.36064e-211 0)
(0 -2.57232e-221 0)
(0 -2.18828e-229 0)
(0 -1.08424e-239 0)
(0 -7.53479e-248 0)
(0 -6.84417e-258 0)
(0 -2.62687e-266 0)
(0 -4.45349e-276 0)
(0 -9.32487e-285 0)
(0 -2.19839e-294 0)
(0 -3.36728e-303 0)
(0 -1.0395e-312 0)
(0 -1.23516e-321 0)
(0 -0 0)
(0 0 0)
(0 0 0)
(0 0 0)
(0 0 0)
(0 0 0)
(0 0 0)
(0 0 0)
(0 0 0)
(0 0 0)
(0 0 0)
(0 0 0)
(0 0 0)
(0 0 0)
(0 0 0)
(0 0 0)
(0 0 0)
(0 0 0)
(0 0 0)
(0 0 0)
(0 0 0)
(0 0 0)
)
;

boundaryField
{
    inandouthalf11
    {
        type            cyclic;
    }
    inandouthalf12
    {
        type            cyclic;
    }
    inandouthalf21
    {
        type            cyclic;
    }
    inandouthalf22
    {
        type            cyclic;
    }
    inandouthalf31
    {
        type            cyclic;
    }
    inandouthalf32
    {
        type            cyclic;
    }
    inandouthalf41
    {
        type            cyclic;
    }
    inandouthalf42
    {
        type            cyclic;
    }
    top
    {
        type            symmetryPlane;
    }
    walls
    {
        type            zeroGradient;
    }
    frontAndBackPlanes
    {
        type            empty;
    }
}


// ************************************************************************* //
