/*--------------------------------*- C++ -*----------------------------------*\
| =========                 |                                                 |
| \\      /  F ield         | OpenFOAM: The Open Source CFD Toolbox           |
|  \\    /   O peration     | Version:  2.4.x                                 |
|   \\  /    A nd           | Web:      www.OpenFOAM.org                      |
|    \\/     M anipulation  |                                                 |
\*---------------------------------------------------------------------------*/
FoamFile
{
    version     2.0;
    format      ascii;
    class       volScalarField;
    location    "6.25";
    object      Theta;
}
// * * * * * * * * * * * * * * * * * * * * * * * * * * * * * * * * * * * * * //

dimensions      [0 2 -2 0 0 0 0];

internalField   nonuniform List<scalar> 
360
(
6.66518e-21
6.67427e-21
6.67055e-21
6.66933e-21
6.66989e-21
6.67041e-21
6.6706e-21
6.67067e-21
6.67075e-21
6.67085e-21
6.67099e-21
6.67114e-21
6.67128e-21
6.67141e-21
6.67154e-21
6.67167e-21
6.67181e-21
6.67195e-21
6.67209e-21
6.67223e-21
6.67237e-21
6.67252e-21
6.67266e-21
6.67281e-21
6.67295e-21
6.67309e-21
6.67323e-21
6.67336e-21
6.67349e-21
6.67362e-21
6.67374e-21
6.67387e-21
6.67402e-21
6.67418e-21
6.67437e-21
6.67458e-21
6.67484e-21
6.67513e-21
6.67546e-21
6.6758e-21
6.67614e-21
6.67644e-21
6.67664e-21
6.67673e-21
6.67666e-21
6.67641e-21
6.67597e-21
6.67538e-21
6.67474e-21
6.67414e-21
6.67364e-21
6.67338e-21
6.67349e-21
6.67412e-21
6.67553e-21
6.67809e-21
6.68244e-21
6.68955e-21
6.70065e-21
6.71658e-21
6.73565e-21
6.75041e-21
6.74888e-21
6.72631e-21
6.69537e-21
6.67339e-21
6.66418e-21
6.66179e-21
6.66139e-21
6.66135e-21
6.66134e-21
6.66134e-21
6.66134e-21
6.66134e-21
6.66134e-21
6.66134e-21
6.66134e-21
6.66134e-21
6.66133e-21
6.66133e-21
6.66133e-21
6.66133e-21
6.66133e-21
6.66133e-21
6.66133e-21
6.66133e-21
6.66133e-21
6.66132e-21
6.66132e-21
6.66132e-21
6.66132e-21
6.66132e-21
6.66132e-21
6.66132e-21
6.66132e-21
6.66131e-21
6.66131e-21
6.66131e-21
6.66131e-21
6.66131e-21
6.66131e-21
6.66131e-21
6.6613e-21
6.6613e-21
6.6613e-21
6.6613e-21
6.6613e-21
6.66129e-21
6.66129e-21
6.66129e-21
6.66129e-21
6.66129e-21
6.66128e-21
6.66128e-21
6.66128e-21
6.66128e-21
6.66127e-21
6.66127e-21
6.66127e-21
6.66127e-21
6.66126e-21
6.66126e-21
6.66126e-21
6.66126e-21
6.66125e-21
6.66125e-21
6.66125e-21
6.66124e-21
6.66124e-21
6.66123e-21
6.66123e-21
6.66124e-21
9.00066e-21
3.7412e-20
1.89258e-19
1.03864e-18
6.19439e-18
4.05967e-17
2.96626e-16
2.454e-15
2.33235e-14
2.58413e-13
3.39861e-12
5.40233e-11
1.08759e-09
4.35552e-08
2.43194e-06
4.89464e-05
0.000599495
0.00193647
0.00270997
0.00318238
0.00353722
0.00383283
0.00408729
0.00430667
0.0044942
0.00465293
0.00478597
0.00489648
0.00498736
0.00506121
0.00512029
0.00516651
0.00520153
0.0052267
0.00524318
0.00525196
0.00525385
0.00524958
0.00523975
0.00522489
0.00520545
0.00518185
0.00515445
0.00512357
0.00508951
0.00505255
0.00501293
0.00497088
0.00492663
0.00488037
0.00483231
0.00478261
0.00473146
0.00467902
0.00462546
0.0045709
0.00451551
0.00445942
0.00440275
0.00434562
0.00428816
0.00423046
0.00417262
0.00411474
0.0040569
0.00399917
0.0039416
0.00388427
0.00382721
0.00376987
0.00371171
0.00365274
0.00359297
0.00353238
0.00347096
0.00340865
0.00334539
0.00328112
0.00321574
0.00314914
0.00308119
0.00301178
0.00294074
0.00286793
0.00279319
0.00271633
0.00263717
0.0025555
0.00247111
0.00238374
0.00229311
0.00219893
0.00210084
0.00199843
0.00189122
0.00177863
0.00165995
0.00153429
0.00140048
0.00125694
0.00110138
0.000930241
0.000737293
0.00050897
0
0
0
0
0
0
0
0
0
0
0
0
0
0
0
0
0
0
0
0
0
0
0
0
0
0
0
0
0
0
0
0
0
0
0
0
0
0
0
0
0
0
0
0
0
0
0
0
0
0
0
0
0
0
0
0
0
0
0
0
0
0
0
0
0
0
0
0
0
0
0
0
0
0
0
0
0
0
0
0
0
0
0
0
0
0
0
0
0
0
0
0
0
0
0
0
0
0
0
0
0
0
0
0
0
0
0
0
0
0
0
0
0
0
0
0
0
0
0
0
0
0
0
0
)
;

boundaryField
{
    inandouthalf11
    {
        type            cyclic;
    }
    inandouthalf12
    {
        type            cyclic;
    }
    inandouthalf21
    {
        type            cyclic;
    }
    inandouthalf22
    {
        type            cyclic;
    }
    inandouthalf31
    {
        type            cyclic;
    }
    inandouthalf32
    {
        type            cyclic;
    }
    inandouthalf41
    {
        type            cyclic;
    }
    inandouthalf42
    {
        type            cyclic;
    }
    top
    {
        type            symmetryPlane;
    }
    walls
    {
        type            zeroGradient;
    }
    frontAndBackPlanes
    {
        type            empty;
    }
}


// ************************************************************************* //
