/*--------------------------------*- C++ -*----------------------------------*\
| =========                 |                                                 |
| \\      /  F ield         | OpenFOAM: The Open Source CFD Toolbox           |
|  \\    /   O peration     | Version:  2.4.x                                 |
|   \\  /    A nd           | Web:      www.OpenFOAM.org                      |
|    \\/     M anipulation  |                                                 |
\*---------------------------------------------------------------------------*/
FoamFile
{
    version     2.0;
    format      ascii;
    class       volVectorField;
    location    "6.25";
    object      U;
}
// * * * * * * * * * * * * * * * * * * * * * * * * * * * * * * * * * * * * * //

dimensions      [0 1 -1 0 0 0 0];

internalField   nonuniform List<vector> 
360
(
(1.38514e-05 2.67847e-08 0)
(1.37362e-05 -4.46482e-09 0)
(1.36928e-05 -5.22292e-09 0)
(1.3681e-05 -2.63965e-10 0)
(1.36651e-05 9.40943e-10 0)
(1.36439e-05 4.08013e-10 0)
(1.36219e-05 7.78481e-11 0)
(1.36001e-05 4.71439e-11 0)
(1.3578e-05 8.33321e-11 0)
(1.35557e-05 1.22114e-10 0)
(1.35331e-05 1.45166e-10 0)
(1.35101e-05 1.44176e-10 0)
(1.34866e-05 1.33886e-10 0)
(1.34628e-05 1.24521e-10 0)
(1.34386e-05 1.22551e-10 0)
(1.3414e-05 1.26044e-10 0)
(1.3389e-05 1.28832e-10 0)
(1.33636e-05 1.30061e-10 0)
(1.33378e-05 1.29484e-10 0)
(1.33116e-05 1.30846e-10 0)
(1.3285e-05 1.27462e-10 0)
(1.3258e-05 1.30047e-10 0)
(1.32305e-05 1.30479e-10 0)
(1.32026e-05 1.28012e-10 0)
(1.31743e-05 1.24276e-10 0)
(1.31455e-05 1.19956e-10 0)
(1.31163e-05 1.1487e-10 0)
(1.30867e-05 1.13509e-10 0)
(1.30566e-05 1.07456e-10 0)
(1.3026e-05 1.03806e-10 0)
(1.29951e-05 1.02993e-10 0)
(1.29637e-05 1.15159e-10 0)
(1.29317e-05 1.18683e-10 0)
(1.28994e-05 1.48312e-10 0)
(1.28665e-05 1.63442e-10 0)
(1.2833e-05 1.95535e-10 0)
(1.27989e-05 2.26995e-10 0)
(1.27641e-05 2.57441e-10 0)
(1.27286e-05 2.83418e-10 0)
(1.26922e-05 2.70302e-10 0)
(1.26551e-05 2.60926e-10 0)
(1.26172e-05 2.05478e-10 0)
(1.25785e-05 1.06774e-10 0)
(1.25393e-05 3.79391e-12 0)
(1.24997e-05 -1.49993e-10 0)
(1.24599e-05 -3.11235e-10 0)
(1.24203e-05 -4.52268e-10 0)
(1.2381e-05 -5.67094e-10 0)
(1.23423e-05 -5.9315e-10 0)
(1.23043e-05 -5.27191e-10 0)
(1.22667e-05 -3.99674e-10 0)
(1.22295e-05 -1.21264e-10 0)
(1.2192e-05 2.71717e-10 0)
(1.21536e-05 8.36554e-10 0)
(1.21131e-05 1.56081e-09 0)
(1.20692e-05 2.5616e-09 0)
(1.20197e-05 3.78777e-09 0)
(1.19623e-05 5.30484e-09 0)
(1.18938e-05 6.86604e-09 0)
(1.1811e-05 7.85896e-09 0)
(1.17119e-05 7.16178e-09 0)
(1.15977e-05 3.16391e-09 0)
(1.14766e-05 -4.21553e-09 0)
(1.13635e-05 -1.21954e-08 0)
(1.12746e-05 -1.60897e-08 0)
(1.12182e-05 -1.40625e-08 0)
(1.11908e-05 -8.84293e-09 0)
(1.11818e-05 -4.19949e-09 0)
(1.11819e-05 -1.5767e-09 0)
(1.11856e-05 -5.18406e-10 0)
(1.11905e-05 -1.53029e-10 0)
(1.1196e-05 -3.59074e-11 0)
(1.12017e-05 -4.04818e-11 0)
(1.12076e-05 -1.14863e-11 0)
(1.12136e-05 -2.14205e-11 0)
(1.12198e-05 -2.85511e-12 0)
(1.12261e-05 -1.47555e-11 0)
(1.12326e-05 -1.60608e-11 0)
(1.12392e-05 -1.67829e-11 0)
(1.12459e-05 -1.41314e-11 0)
(1.12529e-05 -2.25231e-11 0)
(1.126e-05 -2.14688e-11 0)
(1.12673e-05 -2.00262e-11 0)
(1.12748e-05 -2.11217e-11 0)
(1.12825e-05 -1.867e-11 0)
(1.12904e-05 -1.97098e-11 0)
(1.12985e-05 -1.64331e-11 0)
(1.13067e-05 -1.75646e-11 0)
(1.13151e-05 -1.92055e-11 0)
(1.13237e-05 -1.95712e-11 0)
(1.13325e-05 -2.07392e-11 0)
(1.13415e-05 -2.33269e-11 0)
(1.13507e-05 -2.38733e-11 0)
(1.13601e-05 -2.46237e-11 0)
(1.13698e-05 -2.53564e-11 0)
(1.13797e-05 -2.58352e-11 0)
(1.13898e-05 -2.6275e-11 0)
(1.14002e-05 -2.70268e-11 0)
(1.14108e-05 -2.80747e-11 0)
(1.14216e-05 -2.90984e-11 0)
(1.14328e-05 -3.03679e-11 0)
(1.14442e-05 -3.17951e-11 0)
(1.14559e-05 -3.31235e-11 0)
(1.14678e-05 -3.45121e-11 0)
(1.14801e-05 -3.60174e-11 0)
(1.14927e-05 -3.75881e-11 0)
(1.15057e-05 -3.9281e-11 0)
(1.15189e-05 -4.11165e-11 0)
(1.15326e-05 -4.30621e-11 0)
(1.15466e-05 -4.51162e-11 0)
(1.1561e-05 -4.72805e-11 0)
(1.15758e-05 -4.95484e-11 0)
(1.1591e-05 -5.19276e-11 0)
(1.16067e-05 -5.44257e-11 0)
(1.16229e-05 -5.70453e-11 0)
(1.16395e-05 -5.97977e-11 0)
(1.16567e-05 -6.27044e-11 0)
(1.16743e-05 -6.57855e-11 0)
(1.16926e-05 -6.90494e-11 0)
(1.17114e-05 -7.24904e-11 0)
(1.17309e-05 -7.60852e-11 0)
(1.1751e-05 -7.98033e-11 0)
(1.17718e-05 -8.36837e-11 0)
(1.17932e-05 -8.79663e-11 0)
(1.18155e-05 -9.3172e-11 0)
(1.18385e-05 -9.99949e-11 0)
(1.18624e-05 -1.08825e-10 0)
(1.18872e-05 -1.18925e-10 0)
(1.1913e-05 -1.2792e-10 0)
(1.19399e-05 -1.33514e-10 0)
(1.19679e-05 -1.38878e-10 0)
(1.19972e-05 -1.58006e-10 0)
(1.20277e-05 -2.02923e-10 0)
(1.206e-05 -2.48651e-10 0)
(1.20943e-05 -2.44494e-10 0)
(1.21307e-05 -2.16746e-10 0)
(1.21689e-05 -2.90154e-10 0)
(1.22096e-05 -5.52162e-10 0)
(1.22549e-05 -8.29879e-10 0)
(1.23069e-05 -5.11437e-10 0)
(1.23633e-05 3.65445e-10 0)
(1.24172e-05 -1.31093e-09 0)
(1.24819e-05 -2.38185e-09 0)
(1.25662e-05 -2.46295e-09 0)
(1.26714e-05 -1.05769e-08 0)
(1.2866e-05 -5.40707e-08 0)
(1.34601e-05 3.67039e-07 0)
(-1.96638e-05 -3.55054e-06 0)
(-0.0273955 1.16046e-05 0)
(-0.124858 3.61524e-05 0)
(-0.201906 -9.83348e-06 0)
(-0.260485 2.05847e-06 0)
(-0.30713 2.00313e-06 0)
(-0.345394 1.12371e-06 0)
(-0.377527 6.31368e-07 0)
(-0.405051 3.86397e-07 0)
(-0.429035 2.36841e-07 0)
(-0.450243 1.39069e-07 0)
(-0.469235 7.72437e-08 0)
(-0.486429 3.96215e-08 0)
(-0.502141 1.71305e-08 0)
(-0.516613 3.82815e-09 0)
(-0.530037 -3.88018e-09 0)
(-0.542563 -8.17017e-09 0)
(-0.554312 -1.03661e-08 0)
(-0.565384 -1.12931e-08 0)
(-0.57586 -1.14551e-08 0)
(-0.585808 -1.11708e-08 0)
(-0.595284 -1.06345e-08 0)
(-0.604336 -9.96968e-09 0)
(-0.613005 -9.25128e-09 0)
(-0.621327 -8.52571e-09 0)
(-0.629332 -7.82019e-09 0)
(-0.637046 -7.15011e-09 0)
(-0.644492 -6.52354e-09 0)
(-0.651691 -5.9437e-09 0)
(-0.658661 -5.41093e-09 0)
(-0.665417 -4.92384e-09 0)
(-0.671974 -4.48004e-09 0)
(-0.678345 -4.07655e-09 0)
(-0.68454 -3.71014e-09 0)
(-0.69057 -3.37822e-09 0)
(-0.696445 -3.07768e-09 0)
(-0.702171 -2.80515e-09 0)
(-0.707758 -2.55811e-09 0)
(-0.713211 -2.33418e-09 0)
(-0.718536 -2.13112e-09 0)
(-0.72374 -1.94687e-09 0)
(-0.728828 -1.77957e-09 0)
(-0.733803 -1.62732e-09 0)
(-0.73867 -1.48823e-09 0)
(-0.743434 -1.36073e-09 0)
(-0.748097 -1.24394e-09 0)
(-0.752662 -1.13687e-09 0)
(-0.757133 -1.03721e-09 0)
(-0.761512 -9.42522e-10 0)
(-0.765801 -8.51775e-10 0)
(-0.770003 -7.63622e-10 0)
(-0.774118 -6.89512e-10 0)
(-0.77815 -6.40083e-10 0)
(-0.782099 -5.76075e-10 0)
(-0.786005 -5.17124e-10 0)
(-0.789907 -4.87204e-10 0)
(-0.7938 -4.34456e-10 0)
(-0.797683 -3.41612e-10 0)
(-0.801552 -3.10611e-10 0)
(-0.805404 -2.99438e-10 0)
(-0.809235 -2.52578e-10 0)
(-0.813039 -2.28681e-10 0)
(-0.816814 -1.87088e-10 0)
(-0.820551 -1.50636e-10 0)
(-0.824247 -1.24432e-10 0)
(-0.827894 -5.91652e-11 0)
(-0.831484 -4.43902e-11 0)
(-0.835009 -3.87892e-11 0)
(-0.838461 -1.12474e-12 0)
(-0.841829 9.01562e-13 0)
(-0.845102 1.63411e-12 0)
(-0.848269 5.36651e-12 0)
(-0.851317 1.32088e-11 0)
(-0.854232 1.22807e-11 0)
(-0.856999 1.39909e-12 0)
(-0.859603 9.88498e-12 0)
(-0.86203 8.42016e-12 0)
(-0.864263 2.98807e-12 0)
(-0.866288 4.37913e-12 0)
(-0.868094 4.89661e-12 0)
(-0.869668 1.53043e-12 0)
(-0.871004 4.72333e-12 0)
(-0.872099 -3.03262e-12 0)
(-0.872951 8.53554e-12 0)
(-0.873567 -8.56337e-12 0)
(-0.873954 1.2505e-11 0)
(-0.874123 -1.76624e-11 0)
(-0.874085 4.74636e-11 0)
(-0.873855 -1.34812e-10 0)
(-0.873445 2.6024e-10 0)
(-0.872868 -1.4441e-10 0)
(-0.872137 -3.88569e-11 0)
(-0.871264 9.14524e-11 0)
(-0.87026 1.70344e-12 0)
(-0.869137 1.91705e-11 0)
(-0.867905 -5.87213e-12 0)
(-0.866576 -3.27667e-12 0)
(-0.865161 -1.6758e-12 0)
(-0.863673 -1.02665e-12 0)
(-0.862123 -5.53398e-13 0)
(-0.860526 -1.34873e-11 0)
(-0.858895 3.54276e-11 0)
(-0.857247 -8.2101e-11 0)
(-0.855601 1.43947e-10 0)
(-0.853978 -2.34667e-10 0)
(-0.852409 3.4282e-10 0)
(-0.850933 -4.78599e-10 0)
(-0.849613 6.28344e-10 0)
(-0.848582 -7.98354e-10 0)
(-0.84821 9.73754e-10 0)
(-0.84818 -1.16049e-09 0)
(-0.848179 1.3477e-09 0)
(-0.848179 -1.54384e-09 0)
(-0.848179 1.74077e-09 0)
(-0.848179 -1.94643e-09 0)
(-0.848179 2.15368e-09 0)
(-0.848179 -2.36955e-09 0)
(-0.848178 2.58777e-09 0)
(-0.848178 -2.81453e-09 0)
(-0.848178 3.04431e-09 0)
(-0.848178 -3.28263e-09 0)
(-0.848178 3.52454e-09 0)
(-0.848178 -3.77503e-09 0)
(-0.848178 4.02959e-09 0)
(-0.848178 -4.29279e-09 0)
(-0.848178 4.5605e-09 0)
(-0.848178 -4.8369e-09 0)
(-0.848178 5.11821e-09 0)
(-0.848178 -5.40829e-09 0)
(-0.848178 5.70364e-09 0)
(-0.848178 -6.00781e-09 0)
(-0.848178 6.31761e-09 0)
(-0.848178 -6.63627e-09 0)
(-0.848178 6.96091e-09 0)
(-0.848178 -7.29444e-09 0)
(-0.848178 7.63427e-09 0)
(-0.848178 -7.98303e-09 0)
(-0.848178 8.33841e-09 0)
(-0.848178 -8.70274e-09 0)
(-0.848178 9.07398e-09 0)
(-0.848178 -9.45416e-09 0)
(-0.848178 9.84161e-09 0)
(-0.848178 -1.0238e-08 0)
(-0.848178 1.06419e-08 0)
(-0.848178 -1.10547e-08 0)
(-0.848178 1.14754e-08 0)
(-0.848178 -1.19049e-08 0)
(-0.848178 1.23426e-08 0)
(-0.848178 -1.27891e-08 0)
(-0.848178 1.32441e-08 0)
(-0.848178 -1.37078e-08 0)
(-0.848178 1.41802e-08 0)
(-0.848178 -1.46613e-08 0)
(-0.848178 1.51512e-08 0)
(-0.848178 -1.565e-08 0)
(-0.848178 1.61576e-08 0)
(-0.848178 -1.66741e-08 0)
(-0.848178 1.71996e-08 0)
(-0.848178 -1.77339e-08 0)
(-0.848178 1.82772e-08 0)
(-0.848178 -1.88293e-08 0)
(-0.848178 1.93905e-08 0)
(-0.848178 -1.99604e-08 0)
(-0.848178 1.80297e-08 0)
(-0.848178 -1.81998e-08 0)
(-0.848178 1.83683e-08 0)
(-0.848178 -1.85347e-08 0)
(-0.848178 1.86995e-08 0)
(-0.848178 -1.88623e-08 0)
(-0.848178 1.90234e-08 0)
(-0.848178 -1.91825e-08 0)
(-0.848178 1.93398e-08 0)
(-0.848178 -1.94949e-08 0)
(-0.848178 1.96484e-08 0)
(-0.848178 -1.97996e-08 0)
(-0.848178 1.99491e-08 0)
(-0.848178 -2.00963e-08 0)
(-0.848178 2.02417e-08 0)
(-0.848178 -2.03847e-08 0)
(-0.848178 2.05259e-08 0)
(-0.848178 -2.06648e-08 0)
(-0.848178 2.08017e-08 0)
(-0.848178 -2.0936e-08 0)
(-0.848178 2.10687e-08 0)
(-0.848178 -2.11984e-08 0)
(-0.848178 2.13266e-08 0)
(-0.848178 -2.14515e-08 0)
(-0.848178 2.15751e-08 0)
(-0.848178 -2.1695e-08 0)
(-0.848178 2.18137e-08 0)
(-0.848178 -2.19286e-08 0)
(-0.848178 2.20423e-08 0)
(-0.848178 -2.21518e-08 0)
(-0.848178 2.22601e-08 0)
(-0.848178 -2.23641e-08 0)
(-0.848178 2.24666e-08 0)
(-0.848178 -2.2565e-08 0)
(-0.848178 2.26613e-08 0)
(-0.848178 -2.27536e-08 0)
(-0.848178 2.28434e-08 0)
(-0.848178 -2.29292e-08 0)
(-0.848178 2.30119e-08 0)
(-0.848178 -2.30908e-08 0)
(-0.848178 2.31656e-08 0)
(-0.848178 -2.32371e-08 0)
(-0.848178 2.33031e-08 0)
(-0.848178 -2.33663e-08 0)
(-0.848178 2.34221e-08 0)
(-0.848178 -2.34757e-08 0)
(-0.848178 2.35193e-08 0)
(-0.848178 -2.35607e-08 0)
(-0.848178 2.35875e-08 0)
(-0.848178 -2.36102e-08 0)
)
;

boundaryField
{
    inandouthalf11
    {
        type            cyclic;
    }
    inandouthalf12
    {
        type            cyclic;
    }
    inandouthalf21
    {
        type            cyclic;
    }
    inandouthalf22
    {
        type            cyclic;
    }
    inandouthalf31
    {
        type            cyclic;
    }
    inandouthalf32
    {
        type            cyclic;
    }
    inandouthalf41
    {
        type            cyclic;
    }
    inandouthalf42
    {
        type            cyclic;
    }
    top
    {
        type            symmetryPlane;
    }
    walls
    {
        type            calculated;
        value           uniform (0 0 0);
    }
    frontAndBackPlanes
    {
        type            empty;
    }
}


// ************************************************************************* //
