/*--------------------------------*- C++ -*----------------------------------*\
| =========                 |                                                 |
| \\      /  F ield         | OpenFOAM: The Open Source CFD Toolbox           |
|  \\    /   O peration     | Version:  2.4.x                                 |
|   \\  /    A nd           | Web:      www.OpenFOAM.org                      |
|    \\/     M anipulation  |                                                 |
\*---------------------------------------------------------------------------*/
FoamFile
{
    version     2.0;
    format      ascii;
    class       volVectorField;
    location    "6.25";
    object      Ub_0;
}
// * * * * * * * * * * * * * * * * * * * * * * * * * * * * * * * * * * * * * //

dimensions      [0 1 -1 0 0 0 0];

internalField   nonuniform List<vector> 
360
(
(3.55574e-05 6.88071e-08 0)
(3.53675e-05 2.52193e-07 0)
(3.53071e-05 4.70306e-07 0)
(3.53064e-05 6.70028e-07 0)
(3.52975e-05 8.64807e-07 0)
(3.52791e-05 1.06374e-06 0)
(3.526e-05 1.26637e-06 0)
(3.52414e-05 1.47062e-06 0)
(3.52228e-05 1.67566e-06 0)
(3.5204e-05 1.88162e-06 0)
(3.51849e-05 2.08887e-06 0)
(3.51655e-05 2.2976e-06 0)
(3.51456e-05 2.50783e-06 0)
(3.51254e-05 2.71947e-06 0)
(3.51048e-05 2.93244e-06 0)
(3.50838e-05 3.14673e-06 0)
(3.50626e-05 3.36236e-06 0)
(3.50409e-05 3.57936e-06 0)
(3.50189e-05 3.79772e-06 0)
(3.49966e-05 4.01748e-06 0)
(3.49738e-05 4.2386e-06 0)
(3.49506e-05 4.46108e-06 0)
(3.49271e-05 4.68495e-06 0)
(3.49031e-05 4.91019e-06 0)
(3.48788e-05 5.13679e-06 0)
(3.48541e-05 5.36471e-06 0)
(3.48289e-05 5.59389e-06 0)
(3.48034e-05 5.82432e-06 0)
(3.47775e-05 6.05595e-06 0)
(3.47511e-05 6.28873e-06 0)
(3.47243e-05 6.52261e-06 0)
(3.46972e-05 6.75767e-06 0)
(3.46695e-05 6.99389e-06 0)
(3.46416e-05 7.23148e-06 0)
(3.4613e-05 7.47059e-06 0)
(3.4584e-05 7.71149e-06 0)
(3.45543e-05 7.95443e-06 0)
(3.45241e-05 8.19975e-06 0)
(3.44932e-05 8.44782e-06 0)
(3.44614e-05 8.6987e-06 0)
(3.4429e-05 8.95246e-06 0)
(3.43958e-05 9.20888e-06 0)
(3.43619e-05 9.46729e-06 0)
(3.43276e-05 9.72691e-06 0)
(3.42928e-05 9.98647e-06 0)
(3.4258e-05 1.02445e-05 0)
(3.42233e-05 1.04995e-05 0)
(3.41889e-05 1.07499e-05 0)
(3.41551e-05 1.09947e-05 0)
(3.41222e-05 1.12337e-05 0)
(3.40895e-05 1.14675e-05 0)
(3.40573e-05 1.16976e-05 0)
(3.40249e-05 1.19267e-05 0)
(3.39916e-05 1.21593e-05 0)
(3.39563e-05 1.24009e-05 0)
(3.39178e-05 1.26595e-05 0)
(3.38738e-05 1.29451e-05 0)
(3.38222e-05 1.32707e-05 0)
(3.37598e-05 1.36514e-05 0)
(3.36835e-05 1.41016e-05 0)
(3.35914e-05 1.4629e-05 0)
(3.34846e-05 1.5222e-05 0)
(3.33712e-05 1.58395e-05 0)
(3.32655e-05 1.64121e-05 0)
(3.31836e-05 1.68691e-05 0)
(3.31334e-05 1.71746e-05 0)
(3.31114e-05 1.73428e-05 0)
(3.31075e-05 1.74184e-05 0)
(3.31126e-05 1.74456e-05 0)
(3.31211e-05 1.74526e-05 0)
(3.31313e-05 1.74528e-05 0)
(3.31421e-05 1.74508e-05 0)
(3.31532e-05 1.74483e-05 0)
(3.31648e-05 1.74456e-05 0)
(3.31766e-05 1.74427e-05 0)
(3.31888e-05 1.74398e-05 0)
(3.32012e-05 1.74368e-05 0)
(3.32138e-05 1.74337e-05 0)
(3.32267e-05 1.74306e-05 0)
(3.324e-05 1.74274e-05 0)
(3.32535e-05 1.74241e-05 0)
(3.32675e-05 1.74207e-05 0)
(3.32818e-05 1.74173e-05 0)
(3.32965e-05 1.74137e-05 0)
(3.33116e-05 1.74101e-05 0)
(3.33271e-05 1.74064e-05 0)
(3.33429e-05 1.74026e-05 0)
(3.3359e-05 1.73987e-05 0)
(3.33755e-05 1.73948e-05 0)
(3.33923e-05 1.73907e-05 0)
(3.34095e-05 1.73866e-05 0)
(3.34271e-05 1.73824e-05 0)
(3.34451e-05 1.73781e-05 0)
(3.34635e-05 1.73737e-05 0)
(3.34824e-05 1.73691e-05 0)
(3.35017e-05 1.73645e-05 0)
(3.35215e-05 1.73598e-05 0)
(3.35418e-05 1.7355e-05 0)
(3.35625e-05 1.735e-05 0)
(3.35837e-05 1.7345e-05 0)
(3.36055e-05 1.73398e-05 0)
(3.36278e-05 1.73345e-05 0)
(3.36506e-05 1.73291e-05 0)
(3.3674e-05 1.73235e-05 0)
(3.3698e-05 1.73178e-05 0)
(3.37226e-05 1.7312e-05 0)
(3.37478e-05 1.7306e-05 0)
(3.37737e-05 1.72999e-05 0)
(3.38004e-05 1.72936e-05 0)
(3.38277e-05 1.72872e-05 0)
(3.38558e-05 1.72806e-05 0)
(3.38847e-05 1.72738e-05 0)
(3.39144e-05 1.72668e-05 0)
(3.39449e-05 1.72596e-05 0)
(3.39764e-05 1.72522e-05 0)
(3.40088e-05 1.72446e-05 0)
(3.40423e-05 1.72368e-05 0)
(3.40767e-05 1.72288e-05 0)
(3.41122e-05 1.72205e-05 0)
(3.41489e-05 1.72119e-05 0)
(3.41867e-05 1.72031e-05 0)
(3.42258e-05 1.7194e-05 0)
(3.42663e-05 1.71847e-05 0)
(3.4308e-05 1.7175e-05 0)
(3.43513e-05 1.7165e-05 0)
(3.4396e-05 1.71547e-05 0)
(3.44424e-05 1.7144e-05 0)
(3.44906e-05 1.71329e-05 0)
(3.45407e-05 1.71214e-05 0)
(3.45929e-05 1.71094e-05 0)
(3.46473e-05 1.7097e-05 0)
(3.4704e-05 1.70841e-05 0)
(3.47632e-05 1.70705e-05 0)
(3.48257e-05 1.70562e-05 0)
(3.48922e-05 1.70412e-05 0)
(3.49626e-05 1.70254e-05 0)
(3.50367e-05 1.70086e-05 0)
(3.51154e-05 1.69903e-05 0)
(3.52029e-05 1.697e-05 0)
(3.53034e-05 1.69485e-05 0)
(3.54122e-05 1.69266e-05 0)
(3.55162e-05 1.68994e-05 0)
(3.5641e-05 1.68693e-05 0)
(3.58033e-05 1.68336e-05 0)
(3.60057e-05 1.67695e-05 0)
(3.63794e-05 1.65811e-05 0)
(3.74942e-05 1.73712e-05 0)
(-4.42284e-05 7.59224e-06 0)
(-0.028888 6.31671e-05 0)
(-0.127279 0.000225345 0)
(-0.203343 0.000151011 0)
(-0.261344 0.000145701 0)
(-0.307677 0.000125147 0)
(-0.345765 0.000104443 0)
(-0.377796 8.61542e-05 0)
(-0.405259 7.06741e-05 0)
(-0.429203 5.78406e-05 0)
(-0.450385 4.73374e-05 0)
(-0.46936 3.87959e-05 0)
(-0.486541 3.18602e-05 0)
(-0.502243 2.62207e-05 0)
(-0.516708 2.16217e-05 0)
(-0.530125 1.78576e-05 0)
(-0.542647 1.47649e-05 0)
(-0.554392 1.2214e-05 0)
(-0.565461 1.01022e-05 0)
(-0.575935 8.34802e-06 0)
(-0.58588 6.88635e-06 0)
(-0.595354 5.6651e-06 0)
(-0.604404 4.64232e-06 0)
(-0.613072 3.78408e-06 0)
(-0.621393 3.06276e-06 0)
(-0.629396 2.45581e-06 0)
(-0.637109 1.94473e-06 0)
(-0.644555 1.51424e-06 0)
(-0.651753 1.15169e-06 0)
(-0.658722 8.46571e-07 0)
(-0.665478 5.90107e-07 0)
(-0.672034 3.74948e-07 0)
(-0.678404 1.94918e-07 0)
(-0.684599 4.48128e-08 0)
(-0.690629 -7.97687e-08 0)
(-0.696503 -1.82554e-07 0)
(-0.702229 -2.6671e-07 0)
(-0.707815 -3.34932e-07 0)
(-0.713268 -3.89519e-07 0)
(-0.718593 -4.32435e-07 0)
(-0.723797 -4.65362e-07 0)
(-0.728884 -4.89737e-07 0)
(-0.733859 -5.06792e-07 0)
(-0.738726 -5.17572e-07 0)
(-0.743489 -5.22959e-07 0)
(-0.748152 -5.23685e-07 0)
(-0.752717 -5.20352e-07 0)
(-0.757188 -5.13445e-07 0)
(-0.761566 -5.0335e-07 0)
(-0.765855 -4.90365e-07 0)
(-0.770056 -4.74739e-07 0)
(-0.774172 -4.56728e-07 0)
(-0.778203 -4.36651e-07 0)
(-0.782152 -4.1491e-07 0)
(-0.786058 -3.91664e-07 0)
(-0.789959 -3.66954e-07 0)
(-0.793852 -3.4101e-07 0)
(-0.797735 -3.14007e-07 0)
(-0.801604 -2.86106e-07 0)
(-0.805455 -2.57638e-07 0)
(-0.809286 -2.29158e-07 0)
(-0.81309 -2.01315e-07 0)
(-0.816864 -1.74762e-07 0)
(-0.820601 -1.50073e-07 0)
(-0.824296 -1.27666e-07 0)
(-0.827942 -1.07754e-07 0)
(-0.831532 -9.03466e-08 0)
(-0.835057 -7.53477e-08 0)
(-0.838509 -6.25906e-08 0)
(-0.841876 -5.18268e-08 0)
(-0.845149 -4.27977e-08 0)
(-0.848316 -3.52699e-08 0)
(-0.851363 -2.90136e-08 0)
(-0.854277 -2.38134e-08 0)
(-0.857044 -1.94965e-08 0)
(-0.859647 -1.59272e-08 0)
(-0.862073 -1.29782e-08 0)
(-0.864306 -1.05412e-08 0)
(-0.866331 -8.53486e-09 0)
(-0.868135 -6.887e-09 0)
(-0.869709 -5.5341e-09 0)
(-0.871044 -4.42479e-09 0)
(-0.872137 -3.51801e-09 0)
(-0.87299 -2.77791e-09 0)
(-0.873605 -2.17481e-09 0)
(-0.873991 -1.68611e-09 0)
(-0.874159 -1.29537e-09 0)
(-0.874121 -9.78452e-10 0)
(-0.87389 -8.03698e-10 0)
(-0.873479 -5.34087e-10 0)
(-0.872902 -1.87567e-10 0)
(-0.872171 -7.39749e-11 0)
(-0.871297 -3.7223e-11 0)
(-0.870293 1.10243e-11 0)
(-0.869169 1.91455e-11 0)
(-0.867937 -5.86594e-12 0)
(-0.866607 -3.28102e-12 0)
(-0.865193 -1.68042e-12 0)
(-0.863704 -1.03015e-12 0)
(-0.862154 -5.56995e-13 0)
(-0.860557 -1.34862e-11 0)
(-0.858926 3.54134e-11 0)
(-0.857278 -8.20894e-11 0)
(-0.855631 1.43934e-10 0)
(-0.854009 -2.34673e-10 0)
(-0.85244 3.42844e-10 0)
(-0.850964 -4.78657e-10 0)
(-0.849644 6.28429e-10 0)
(-0.848613 -7.98476e-10 0)
(-0.848242 9.73902e-10 0)
(-0.848212 -1.16066e-09 0)
(-0.848211 1.3479e-09 0)
(-0.848211 -1.54406e-09 0)
(-0.848211 1.74101e-09 0)
(-0.848211 -1.94669e-09 0)
(-0.84821 2.15396e-09 0)
(-0.84821 -2.36984e-09 0)
(-0.84821 2.58807e-09 0)
(-0.84821 -2.81485e-09 0)
(-0.84821 3.04464e-09 0)
(-0.84821 -3.28298e-09 0)
(-0.84821 3.5249e-09 0)
(-0.84821 -3.77541e-09 0)
(-0.84821 4.02999e-09 0)
(-0.84821 -4.2932e-09 0)
(-0.84821 4.56093e-09 0)
(-0.84821 -4.83735e-09 0)
(-0.84821 5.11868e-09 0)
(-0.84821 -5.40878e-09 0)
(-0.84821 5.70415e-09 0)
(-0.84821 -6.00834e-09 0)
(-0.84821 6.31816e-09 0)
(-0.84821 -6.63684e-09 0)
(-0.84821 6.9615e-09 0)
(-0.84821 -7.29505e-09 0)
(-0.84821 7.63491e-09 0)
(-0.84821 -7.98369e-09 0)
(-0.84821 8.33909e-09 0)
(-0.84821 -8.70344e-09 0)
(-0.84821 9.07471e-09 0)
(-0.84821 -9.45492e-09 0)
(-0.84821 9.8424e-09 0)
(-0.84821 -1.02388e-08 0)
(-0.84821 1.06427e-08 0)
(-0.84821 -1.10556e-08 0)
(-0.84821 1.14763e-08 0)
(-0.84821 -1.19059e-08 0)
(-0.84821 1.23436e-08 0)
(-0.84821 -1.27901e-08 0)
(-0.84821 1.32451e-08 0)
(-0.84821 -1.37088e-08 0)
(-0.84821 1.41812e-08 0)
(-0.84821 -1.46624e-08 0)
(-0.84821 1.51523e-08 0)
(-0.84821 -1.56512e-08 0)
(-0.84821 1.61588e-08 0)
(-0.84821 -1.66754e-08 0)
(-0.84821 1.72008e-08 0)
(-0.84821 -1.77352e-08 0)
(-0.84821 1.82785e-08 0)
(-0.84821 -1.88307e-08 0)
(-0.84821 1.93919e-08 0)
(-0.84821 -1.99618e-08 0)
(-0.84821 1.8031e-08 0)
(-0.84821 -1.82012e-08 0)
(-0.84821 1.83696e-08 0)
(-0.84821 -1.85361e-08 0)
(-0.84821 1.87008e-08 0)
(-0.84821 -1.88637e-08 0)
(-0.84821 1.90247e-08 0)
(-0.84821 -1.91839e-08 0)
(-0.84821 1.93411e-08 0)
(-0.84821 -1.94964e-08 0)
(-0.84821 1.96497e-08 0)
(-0.84821 -1.98011e-08 0)
(-0.84821 1.99504e-08 0)
(-0.84821 -2.00978e-08 0)
(-0.84821 2.0243e-08 0)
(-0.84821 -2.03862e-08 0)
(-0.84821 2.05273e-08 0)
(-0.84821 -2.06663e-08 0)
(-0.84821 2.0803e-08 0)
(-0.84821 -2.09377e-08 0)
(-0.84821 2.10698e-08 0)
(-0.84821 -2.12002e-08 0)
(-0.84821 2.13276e-08 0)
(-0.84821 -2.14535e-08 0)
(-0.84821 2.1576e-08 0)
(-0.84821 -2.16971e-08 0)
(-0.84821 2.18146e-08 0)
(-0.84821 -2.19308e-08 0)
(-0.84821 2.2043e-08 0)
(-0.84821 -2.2154e-08 0)
(-0.84821 2.22609e-08 0)
(-0.84821 -2.23663e-08 0)
(-0.84821 2.24676e-08 0)
(-0.84821 -2.2567e-08 0)
(-0.84821 2.26624e-08 0)
(-0.84821 -2.27555e-08 0)
(-0.84821 2.28446e-08 0)
(-0.84821 -2.29309e-08 0)
(-0.84821 2.30134e-08 0)
(-0.84821 -2.30922e-08 0)
(-0.84821 2.31676e-08 0)
(-0.84821 -2.3238e-08 0)
(-0.84821 2.33056e-08 0)
(-0.84821 -2.33666e-08 0)
(-0.84821 2.34253e-08 0)
(-0.84821 -2.34753e-08 0)
(-0.84821 2.35233e-08 0)
(-0.84821 -2.35594e-08 0)
(-0.84821 2.35931e-08 0)
(-0.84821 -2.36094e-08 0)
)
;

boundaryField
{
    inandouthalf11
    {
        type            cyclic;
    }
    inandouthalf12
    {
        type            cyclic;
    }
    inandouthalf21
    {
        type            cyclic;
    }
    inandouthalf22
    {
        type            cyclic;
    }
    inandouthalf31
    {
        type            cyclic;
    }
    inandouthalf32
    {
        type            cyclic;
    }
    inandouthalf41
    {
        type            cyclic;
    }
    inandouthalf42
    {
        type            cyclic;
    }
    top
    {
        type            symmetryPlane;
    }
    walls
    {
        type            fixedValue;
        value           uniform (0 0 0);
    }
    frontAndBackPlanes
    {
        type            empty;
    }
}


// ************************************************************************* //
