/*--------------------------------*- C++ -*----------------------------------*\
| =========                 |                                                 |
| \\      /  F ield         | OpenFOAM: The Open Source CFD Toolbox           |
|  \\    /   O peration     | Version:  2.4.x                                 |
|   \\  /    A nd           | Web:      www.OpenFOAM.org                      |
|    \\/     M anipulation  |                                                 |
\*---------------------------------------------------------------------------*/
FoamFile
{
    version     2.0;
    format      ascii;
    class       volScalarField;
    location    "10.65";
    object      alpha;
}
// * * * * * * * * * * * * * * * * * * * * * * * * * * * * * * * * * * * * * //

dimensions      [0 0 0 0 0 0 0];

internalField   nonuniform List<scalar> 
360
(
0.610889
0.611755
0.611844
0.611754
0.611712
0.611699
0.611682
0.61166
0.611637
0.611614
0.611592
0.611569
0.611546
0.611522
0.611499
0.611475
0.611451
0.611427
0.611402
0.611378
0.611353
0.611327
0.611302
0.611276
0.61125
0.611224
0.611197
0.61117
0.611143
0.611116
0.611088
0.61106
0.611032
0.611003
0.610974
0.610945
0.610915
0.610885
0.610855
0.610824
0.610793
0.610762
0.610731
0.610698
0.610666
0.610633
0.6106
0.610567
0.610533
0.610498
0.610464
0.610428
0.610393
0.610357
0.61032
0.610283
0.610246
0.610208
0.61017
0.610131
0.610092
0.610052
0.610012
0.609971
0.609929
0.609888
0.609845
0.609802
0.609758
0.609714
0.609669
0.609623
0.609577
0.60953
0.609483
0.609434
0.609385
0.609336
0.609285
0.609234
0.609182
0.609129
0.609075
0.60902
0.608965
0.608908
0.608851
0.608792
0.608733
0.608672
0.60861
0.608548
0.608484
0.608419
0.608352
0.608284
0.608215
0.608145
0.608073
0.608
0.607925
0.607848
0.60777
0.60769
0.607609
0.607525
0.60744
0.607352
0.607263
0.607171
0.607077
0.60698
0.606881
0.60678
0.606676
0.606569
0.606459
0.606346
0.606229
0.606109
0.605986
0.605858
0.605727
0.605591
0.605451
0.605305
0.605155
0.604999
0.604836
0.604667
0.604492
0.604309
0.604118
0.603917
0.603704
0.603477
0.603239
0.602984
0.602701
0.602378
0.602028
0.601622
0.598723
0.599118
0.598586
0.597699
0.596807
0.595868
0.593686
0.47575
0.151387
0.0600763
0.0297619
0.0178392
0.012444
0.00961822
0.00789552
0.00672962
0.00588412
0.00523857
0.00472565
0.00430538
0.00395255
0.00365044
0.00338758
0.00315581
0.00294915
0.00276315
0.0025944
0.00244025
0.00229863
0.00216786
0.00204657
0.00193367
0.00182824
0.00172949
0.00163677
0.00154955
0.00146732
0.00138969
0.0013163
0.00124681
0.00118097
0.00111851
0.00105921
0.00100287
0.000949312
0.000898364
0.000849873
0.000803699
0.000759709
0.000717783
0.000677804
0.000639667
0.00060327
0.00056852
0.000535329
0.000503619
0.000473318
0.000444367
0.000416715
0.000390056
0.00036416
0.000339076
0.000314865
0.000291596
0.000269339
0.000248157
0.0002281
0.000209197
0.000191451
0.000174838
0.000159305
0.000144781
0.000131178
0.000118413
0.000106413
9.51292e-05
8.45413e-05
7.46583e-05
6.55093e-05
5.7129e-05
4.95431e-05
4.2754e-05
3.67393e-05
3.14505e-05
2.68327e-05
2.27958e-05
1.93177e-05
1.62471e-05
1.36755e-05
1.1332e-05
9.50156e-06
7.69278e-06
6.45211e-06
5.18639e-06
4.64121e-06
3.71806e-06
2.76613e-06
2.00858e-06
1.43224e-06
9.99798e-07
6.83141e-07
4.56361e-07
2.98161e-07
1.89075e-07
1.18144e-07
6.86301e-08
4.10899e-08
1.87027e-08
1.04622e-08
6.33911e-11
5.0312e-25
0
2.99994e-49
3.54555e-53
8.92889e-55
3.85241e-58
9.90965e-60
5.36454e-63
8.42927e-64
3.7445e-64
1.87093e-64
9.21401e-65
4.46562e-65
2.12884e-65
9.97735e-66
4.5948e-66
2.07806e-66
9.22437e-67
4.01639e-67
1.71425e-67
7.16732e-68
2.93339e-68
1.17432e-68
4.59358e-69
1.75445e-69
6.53813e-70
2.37507e-70
8.40183e-71
2.89118e-71
9.66671e-72
3.13651e-72
9.86284e-73
3.00137e-73
8.82519e-74
2.50314e-74
6.83604e-75
1.79396e-75
4.51392e-76
1.08636e-76
2.49408e-77
5.44579e-78
1.12712e-78
2.20292e-79
4.04832e-80
6.96078e-81
1.11344e-81
1.64583e-82
2.23025e-83
2.74401e-84
3.02914e-85
2.95546e-86
2.49911e-87
1.78325e-88
1.03326e-89
4.57735e-91
1.39114e-92
2.24555e-94
2.88515e-97
9.94255e-104
6.29115e-106
1.96981e-108
8.03761e-119
1.67741e-129
2.63786e-140
3.02506e-151
3.0378e-162
2.3605e-173
1.58341e-184
3.0918e-195
1.33262e-205
7.61705e-214
3.80493e-224
2.61956e-232
1.55212e-242
9.01927e-251
6.57118e-261
3.11034e-269
4.22544e-279
1.1027e-287
2.80775e-297
4.07253e-306
1.39637e-315
5.00488e-321
7.83094e-321
2.51973e-321
8.86848e-321
4.57737e-319
2.8055e-319
6.80328e-321
7.09478e-321
6.08689e-321
8.5424e-321
0
0
0
0
0
0
0
0
0
0
0
0
0
0
0
0
)
;

boundaryField
{
    inandouthalf11
    {
        type            cyclic;
    }
    inandouthalf12
    {
        type            cyclic;
    }
    inandouthalf21
    {
        type            cyclic;
    }
    inandouthalf22
    {
        type            cyclic;
    }
    inandouthalf31
    {
        type            cyclic;
    }
    inandouthalf32
    {
        type            cyclic;
    }
    inandouthalf41
    {
        type            cyclic;
    }
    inandouthalf42
    {
        type            cyclic;
    }
    top
    {
        type            symmetryPlane;
    }
    walls
    {
        type            zeroGradient;
    }
    frontAndBackPlanes
    {
        type            empty;
    }
}


// ************************************************************************* //
