/*--------------------------------*- C++ -*----------------------------------*\
| =========                 |                                                 |
| \\      /  F ield         | OpenFOAM: The Open Source CFD Toolbox           |
|  \\    /   O peration     | Version:  2.4.x                                 |
|   \\  /    A nd           | Web:      www.OpenFOAM.org                      |
|    \\/     M anipulation  |                                                 |
\*---------------------------------------------------------------------------*/
FoamFile
{
    version     2.0;
    format      ascii;
    class       volScalarField;
    location    "10.65";
    object      ddt0(((1.5*(alpha+1e-08))*rho),Theta);
}
// * * * * * * * * * * * * * * * * * * * * * * * * * * * * * * * * * * * * * //

dimensions      [1 -1 -3 0 0 0 0];

internalField   nonuniform List<scalar> 
360
(
-5.91881e-23
-1.72116e-22
-1.00294e-22
-7.63293e-23
-7.01267e-23
-6.23169e-23
-5.37724e-23
-4.72527e-23
-4.30649e-23
-4.07729e-23
-3.99504e-23
-4.02436e-23
-4.13824e-23
-4.3164e-23
-4.54344e-23
-4.80747e-23
-5.09829e-23
-5.40764e-23
-5.73057e-23
-6.0634e-23
-6.40304e-23
-6.74896e-23
-7.10045e-23
-7.45618e-23
-7.81554e-23
-8.1775e-23
-8.54224e-23
-8.91057e-23
-9.28072e-23
-9.6511e-23
-1.00229e-22
-1.03949e-22
-1.07663e-22
-1.11386e-22
-1.15088e-22
-1.1875e-22
-1.22389e-22
-1.26027e-22
-1.29621e-22
-1.33149e-22
-1.36665e-22
-1.40115e-22
-1.43482e-22
-1.46831e-22
-1.50127e-22
-1.53356e-22
-1.56474e-22
-1.59459e-22
-1.62435e-22
-1.65375e-22
-1.68161e-22
-1.70838e-22
-1.73445e-22
-1.75933e-22
-1.78314e-22
-1.80598e-22
-1.82747e-22
-1.84762e-22
-1.86593e-22
-1.88271e-22
-1.89886e-22
-1.91387e-22
-1.92759e-22
-1.93976e-22
-1.94999e-22
-1.95856e-22
-1.96582e-22
-1.97131e-22
-1.97422e-22
-1.97543e-22
-1.97631e-22
-1.97567e-22
-1.97258e-22
-1.96836e-22
-1.96337e-22
-1.95661e-22
-1.94729e-22
-1.93575e-22
-1.92271e-22
-1.90796e-22
-1.89143e-22
-1.87373e-22
-1.85512e-22
-1.83544e-22
-1.81458e-22
-1.79242e-22
-1.76877e-22
-1.74337e-22
-1.7163e-22
-1.68785e-22
-1.65829e-22
-1.62791e-22
-1.59709e-22
-1.56599e-22
-1.53464e-22
-1.50299e-22
-1.47095e-22
-1.43844e-22
-1.40539e-22
-1.37182e-22
-1.33776e-22
-1.30324e-22
-1.26833e-22
-1.23308e-22
-1.19755e-22
-1.1619e-22
-1.12636e-22
-1.09128e-22
-1.0572e-22
-1.02475e-22
-9.94737e-23
-9.68014e-23
-9.45455e-23
-9.2779e-23
-9.15422e-23
-9.08149e-23
-9.04878e-23
-9.03339e-23
-8.9997e-23
-8.90018e-23
-8.67984e-23
-8.28331e-23
-7.66212e-23
-6.7787e-23
-5.60243e-23
-4.09511e-23
-6.5527e-23
-9.8149e-17
-2.97439e-16
-8.07892e-16
-2.1015e-15
-5.25234e-15
-1.26108e-14
-2.90988e-14
-6.4674e-14
-1.39439e-13
-2.99104e-13
-6.8884e-13
-1.94109e-12
-7.04879e-12
-3.00281e-11
-1.42576e-10
-9.06214e-10
-6.2629e-09
-5.03041e-08
-5.3626e-07
-4.05303e-06
0.000950004
0.0589398
1.12458
1.73736
0.874091
0.309797
0.102674
0.0234455
-0.0123387
-0.0308726
-0.0412271
-0.0472081
-0.0506326
-0.0524484
-0.0531926
-0.0531917
-0.0526553
-0.0517261
-0.0505051
-0.0490675
-0.0474705
-0.0457592
-0.0439695
-0.0421305
-0.040266
-0.0383956
-0.0365352
-0.0346978
-0.032894
-0.0311323
-0.0294193
-0.0277602
-0.0261588
-0.0246179
-0.0231392
-0.0217239
-0.0203721
-0.0190837
-0.017858
-0.0166937
-0.0155896
-0.0145439
-0.0135549
-0.0126205
-0.0117385
-0.0109069
-0.0101235
-0.00938603
-0.00869228
-0.00804012
-0.00742752
-0.00685252
-0.00631331
-0.00580823
-0.00533106
-0.00487711
-0.00444679
-0.00404057
-0.00365886
-0.00330197
-0.00296999
-0.00266279
-0.00237987
-0.00212042
-0.00188328
-0.001667
-0.00146999
-0.00129062
-0.00112736
-0.000978879
-0.000844154
-0.000722435
-0.000613214
-0.000516112
-0.000430738
-0.000356523
-0.000292783
-0.000238603
-0.000192927
-0.000154723
-0.000122836
-9.65714e-05
-7.46591e-05
-5.70718e-05
-4.22513e-05
-3.09157e-05
-2.10673e-05
-1.39627e-05
-7.73009e-06
0
0
0
0
0
0
0
0
0
0
0
0
0
0
0
0
0
0
0
0
0
0
0
0
0
0
0
0
0
0
0
0
0
0
0
0
0
0
0
0
0
0
0
0
0
0
0
0
0
0
0
0
0
0
0
0
0
0
0
0
0
0
0
0
0
0
0
0
0
0
0
0
0
0
0
0
0
0
0
0
0
0
0
0
0
0
0
0
0
0
0
0
0
0
0
0
0
0
0
0
0
0
0
0
0
0
0
0
0
0
0
0
0
0
0
0
0
0
0
0
0
0
0
0
)
;

boundaryField
{
    inandouthalf11
    {
        type            cyclic;
    }
    inandouthalf12
    {
        type            cyclic;
    }
    inandouthalf21
    {
        type            cyclic;
    }
    inandouthalf22
    {
        type            cyclic;
    }
    inandouthalf31
    {
        type            cyclic;
    }
    inandouthalf32
    {
        type            cyclic;
    }
    inandouthalf41
    {
        type            cyclic;
    }
    inandouthalf42
    {
        type            cyclic;
    }
    top
    {
        type            symmetryPlane;
    }
    walls
    {
        type            calculated;
        value           uniform -5.91881e-23;
    }
    frontAndBackPlanes
    {
        type            empty;
    }
}


// ************************************************************************* //
