/*--------------------------------*- C++ -*----------------------------------*\
| =========                 |                                                 |
| \\      /  F ield         | OpenFOAM: The Open Source CFD Toolbox           |
|  \\    /   O peration     | Version:  2.4.x                                 |
|   \\  /    A nd           | Web:      www.OpenFOAM.org                      |
|    \\/     M anipulation  |                                                 |
\*---------------------------------------------------------------------------*/
FoamFile
{
    version     2.0;
    format      ascii;
    class       surfaceScalarField;
    location    "10.65";
    object      ddt0(phib);
}
// * * * * * * * * * * * * * * * * * * * * * * * * * * * * * * * * * * * * * //

dimensions      [0 3 -2 0 0 0 0];

internalField   nonuniform List<scalar> 
359
(
-2.52287e-14
-6.22994e-14
-9.20336e-14
-1.15895e-13
-1.36983e-13
-1.55866e-13
-1.72687e-13
-1.87974e-13
-2.02255e-13
-2.16086e-13
-2.2994e-13
-2.4413e-13
-2.58977e-13
-2.74721e-13
-2.91537e-13
-3.09547e-13
-3.28877e-13
-3.49614e-13
-3.7178e-13
-3.95422e-13
-4.20521e-13
-4.47116e-13
-4.75148e-13
-5.04603e-13
-5.35447e-13
-5.67659e-13
-6.01223e-13
-6.36058e-13
-6.72115e-13
-7.09423e-13
-7.47844e-13
-7.87362e-13
-8.27959e-13
-8.69627e-13
-9.12215e-13
-9.55737e-13
-1.00021e-12
-1.04552e-12
-1.09167e-12
-1.13862e-12
-1.18637e-12
-1.23479e-12
-1.28396e-12
-1.33378e-12
-1.38423e-12
-1.43534e-12
-1.48705e-12
-1.53929e-12
-1.59207e-12
-1.6454e-12
-1.69921e-12
-1.75348e-12
-1.80823e-12
-1.86334e-12
-1.91882e-12
-1.97472e-12
-2.03091e-12
-2.08742e-12
-2.14422e-12
-2.20128e-12
-2.25859e-12
-2.3161e-12
-2.37383e-12
-2.43168e-12
-2.48969e-12
-2.54778e-12
-2.60593e-12
-2.6641e-12
-2.72229e-12
-2.78047e-12
-2.83856e-12
-2.89663e-12
-2.95455e-12
-3.01237e-12
-3.07004e-12
-3.12755e-12
-3.18482e-12
-3.2418e-12
-3.29855e-12
-3.35499e-12
-3.41102e-12
-3.46677e-12
-3.52207e-12
-3.57699e-12
-3.63147e-12
-3.68549e-12
-3.73901e-12
-3.79204e-12
-3.8445e-12
-3.89638e-12
-3.94767e-12
-3.99835e-12
-4.04838e-12
-4.09777e-12
-4.14647e-12
-4.19453e-12
-4.24193e-12
-4.28863e-12
-4.33463e-12
-4.37989e-12
-4.42441e-12
-4.46815e-12
-4.5111e-12
-4.5532e-12
-4.59446e-12
-4.63475e-12
-4.67409e-12
-4.71248e-12
-4.74986e-12
-4.78627e-12
-4.82172e-12
-4.85634e-12
-4.89019e-12
-4.92343e-12
-4.95632e-12
-4.98898e-12
-5.0216e-12
-5.05431e-12
-5.08707e-12
-5.11969e-12
-5.15177e-12
-5.18259e-12
-5.21121e-12
-5.23641e-12
-5.25678e-12
-5.27065e-12
-5.27638e-12
-5.27218e-12
-5.25624e-12
-5.22714e-12
-5.18437e-12
-5.12962e-12
-5.06823e-12
-5.01016e-12
-4.96853e-12
-4.95414e-12
-4.96636e-12
-4.99026e-12
-5.00742e-12
-5.0108e-12
-5.00528e-12
-4.96454e-12
-8.06419e-12
-1.34462e-11
-1.95321e-11
-2.65724e-11
-3.46282e-11
-5.75431e-11
-2.08281e-10
-4.04628e-09
-7.18779e-09
-5.06538e-09
-3.09863e-09
-2.25176e-09
-1.79809e-09
-1.52609e-09
-1.33787e-09
-1.19487e-09
-1.07948e-09
-9.82246e-10
-8.97777e-10
-8.22815e-10
-7.55294e-10
-6.93845e-10
-6.37523e-10
-5.85652e-10
-5.37727e-10
-4.93359e-10
-4.52236e-10
-4.14099e-10
-3.78727e-10
-3.45929e-10
-3.1553e-10
-2.87374e-10
-2.61316e-10
-2.37223e-10
-2.14969e-10
-1.94437e-10
-1.75516e-10
-1.58101e-10
-1.42095e-10
-1.27402e-10
-1.13936e-10
-1.01614e-10
-9.03548e-11
-8.00861e-11
-7.07373e-11
-6.22426e-11
-5.45398e-11
-4.75707e-11
-4.12805e-11
-3.5618e-11
-3.05354e-11
-2.59875e-11
-2.19327e-11
-1.8332e-11
-1.5149e-11
-1.23497e-11
-9.9023e-12
-7.77667e-12
-5.94431e-12
-4.34866e-12
-2.97641e-12
-1.81213e-12
-8.38103e-13
-3.45512e-14
6.19977e-13
1.14744e-12
1.56921e-12
1.9046e-12
2.16947e-12
2.37524e-12
2.52863e-12
2.63278e-12
2.68887e-12
2.69751e-12
2.6596e-12
2.57707e-12
2.45349e-12
2.29472e-12
2.10884e-12
1.9056e-12
1.69516e-12
1.48676e-12
1.28783e-12
1.10329e-12
9.36075e-13
7.87151e-13
6.56359e-13
5.42899e-13
4.45245e-13
3.62384e-13
2.91972e-13
2.32883e-13
1.88208e-13
1.39055e-13
1.10512e-13
7.18749e-14
5.13158e-14
2.86382e-14
1.35226e-14
3.32687e-15
-2.42785e-15
-5.13716e-15
-5.48818e-15
-5.23872e-15
-3.72662e-15
-3.13236e-15
-1.60325e-15
-1.3049e-15
-8.27038e-16
-1.08211e-16
-1.02233e-16
-1.17822e-16
-1.22119e-16
-1.28249e-16
-1.35574e-16
-1.37335e-16
-1.45894e-16
-1.46908e-16
-1.54401e-16
-1.6596e-16
-1.81464e-16
-1.87598e-16
-1.99216e-16
-2.0494e-16
-2.16737e-16
-2.38759e-16
-2.52318e-16
-2.70142e-16
-2.98229e-16
-3.21653e-16
-3.39598e-16
-3.60145e-16
-3.81892e-16
-3.90955e-16
-3.9455e-16
-4.00372e-16
-3.97889e-16
-3.93921e-16
-4.06953e-16
-4.08688e-16
-4.08602e-16
-3.95718e-16
-3.8066e-16
-3.61058e-16
-3.37218e-16
-3.04919e-16
-2.78226e-16
-2.31783e-16
-1.87082e-16
-1.35944e-16
-7.84702e-17
-2.06989e-17
3.6547e-17
8.14739e-17
1.28156e-16
1.55588e-16
1.81066e-16
2.01423e-16
2.26411e-16
2.5466e-16
2.83803e-16
3.17575e-16
3.47938e-16
3.78073e-16
4.01473e-16
4.3533e-16
4.65671e-16
4.95507e-16
5.2187e-16
5.45727e-16
5.87914e-16
6.26649e-16
6.67917e-16
6.91163e-16
7.29665e-16
7.42237e-16
7.58302e-16
7.58861e-16
8.18651e-16
8.44442e-16
8.81681e-16
8.73542e-16
9.38367e-16
9.53449e-16
1.02986e-15
1.13941e-15
1.82013e-15
2.45838e-15
3.14468e-15
3.58984e-15
4.30511e-15
4.63644e-15
4.98372e-15
4.91285e-15
5.61529e-15
5.75858e-15
5.90305e-15
5.32241e-15
5.32555e-15
4.47498e-15
3.65314e-15
2.05932e-15
1.84775e-15
7.12554e-16
-4.22147e-16
-2.5964e-15
-4.37652e-15
-6.82002e-15
-9.41399e-15
-1.0528e-14
-1.75603e-14
-2.11339e-14
-2.46416e-14
-1.91231e-14
-2.82474e-14
-1.20471e-14
1.69664e-14
)
;

boundaryField
{
    inandouthalf11
    {
        type            cyclic;
        value           nonuniform List<scalar> 
100
(
-1.11016e-10
-1.10406e-10
-1.10319e-10
-1.104e-10
-1.10437e-10
-1.10448e-10
-1.10461e-10
-1.10479e-10
-1.10497e-10
-1.10516e-10
-1.10534e-10
-1.10553e-10
-1.10573e-10
-1.10592e-10
-1.10612e-10
-1.10632e-10
-1.10652e-10
-1.10673e-10
-1.10694e-10
-1.10716e-10
-1.10738e-10
-1.1076e-10
-1.10783e-10
-1.10806e-10
-1.10829e-10
-1.10852e-10
-1.10876e-10
-1.109e-10
-1.10925e-10
-1.1095e-10
-1.10975e-10
-1.11e-10
-1.11026e-10
-1.11052e-10
-1.11078e-10
-1.11105e-10
-1.11132e-10
-1.11159e-10
-1.11187e-10
-1.11214e-10
-1.11243e-10
-1.11271e-10
-1.113e-10
-1.11329e-10
-1.11359e-10
-1.11388e-10
-1.11419e-10
-1.11449e-10
-1.1148e-10
-1.11511e-10
-1.11542e-10
-1.11574e-10
-1.11606e-10
-1.11639e-10
-1.11672e-10
-1.11705e-10
-1.11739e-10
-1.11773e-10
-1.11808e-10
-1.11842e-10
-1.11878e-10
-1.11914e-10
-1.1195e-10
-1.11987e-10
-1.12024e-10
-1.12062e-10
-1.121e-10
-1.12139e-10
-1.12178e-10
-1.12218e-10
-1.12258e-10
-1.12299e-10
-1.1234e-10
-1.12383e-10
-1.12425e-10
-1.12469e-10
-1.12513e-10
-1.12558e-10
-1.12603e-10
-1.12649e-10
-1.12696e-10
-1.12744e-10
-1.12792e-10
-1.12841e-10
-1.12891e-10
-1.12942e-10
-1.12994e-10
-1.13047e-10
-1.13101e-10
-1.13155e-10
-1.13211e-10
-1.13268e-10
-1.13326e-10
-1.13385e-10
-1.13445e-10
-1.13506e-10
-1.13569e-10
-1.13633e-10
-1.13699e-10
-1.13765e-10
)
;
    }
    inandouthalf12
    {
        type            cyclic;
        value           nonuniform List<scalar> 
100
(
1.11016e-10
1.10406e-10
1.10319e-10
1.104e-10
1.10437e-10
1.10448e-10
1.10461e-10
1.10479e-10
1.10497e-10
1.10516e-10
1.10534e-10
1.10553e-10
1.10573e-10
1.10592e-10
1.10612e-10
1.10632e-10
1.10652e-10
1.10673e-10
1.10694e-10
1.10716e-10
1.10738e-10
1.1076e-10
1.10783e-10
1.10806e-10
1.10829e-10
1.10852e-10
1.10876e-10
1.109e-10
1.10925e-10
1.1095e-10
1.10975e-10
1.11e-10
1.11026e-10
1.11052e-10
1.11078e-10
1.11105e-10
1.11132e-10
1.11159e-10
1.11187e-10
1.11214e-10
1.11243e-10
1.11271e-10
1.113e-10
1.11329e-10
1.11359e-10
1.11388e-10
1.11419e-10
1.11449e-10
1.1148e-10
1.11511e-10
1.11542e-10
1.11574e-10
1.11606e-10
1.11639e-10
1.11672e-10
1.11705e-10
1.11739e-10
1.11773e-10
1.11808e-10
1.11842e-10
1.11878e-10
1.11914e-10
1.1195e-10
1.11987e-10
1.12024e-10
1.12062e-10
1.121e-10
1.12139e-10
1.12178e-10
1.12218e-10
1.12258e-10
1.12299e-10
1.1234e-10
1.12383e-10
1.12425e-10
1.12469e-10
1.12513e-10
1.12558e-10
1.12603e-10
1.12649e-10
1.12696e-10
1.12744e-10
1.12792e-10
1.12841e-10
1.12891e-10
1.12942e-10
1.12994e-10
1.13047e-10
1.13101e-10
1.13155e-10
1.13211e-10
1.13268e-10
1.13326e-10
1.13385e-10
1.13445e-10
1.13506e-10
1.13569e-10
1.13633e-10
1.13699e-10
1.13765e-10
)
;
    }
    inandouthalf21
    {
        type            cyclic;
        value           nonuniform List<scalar> 
100
(
-1.13834e-10
-1.13904e-10
-1.13975e-10
-1.14048e-10
-1.14123e-10
-1.142e-10
-1.14278e-10
-1.14359e-10
-1.14442e-10
-1.14526e-10
-1.14613e-10
-1.14702e-10
-1.14794e-10
-1.14888e-10
-1.14985e-10
-1.15085e-10
-1.15187e-10
-1.15292e-10
-1.15401e-10
-1.15513e-10
-1.15629e-10
-1.15748e-10
-1.15871e-10
-1.15999e-10
-1.16131e-10
-1.16268e-10
-1.1641e-10
-1.16558e-10
-1.16711e-10
-1.16871e-10
-1.17038e-10
-1.17211e-10
-1.17391e-10
-1.17579e-10
-1.17778e-10
-1.17987e-10
-1.18206e-10
-1.18441e-10
-1.18709e-10
-1.19023e-10
-1.19368e-10
-1.19757e-10
-1.23959e-10
-1.24679e-10
-1.26197e-10
-1.28478e-10
-1.31454e-10
-1.31853e-10
1.92051e-11
9.13635e-08
2.36716e-07
5.10886e-07
6.94075e-07
7.9449e-07
8.49191e-07
8.82752e-07
9.06374e-07
9.25026e-07
9.40958e-07
9.55261e-07
9.68506e-07
9.80999e-07
9.92908e-07
1.00433e-06
1.01532e-06
1.02591e-06
1.03613e-06
1.04599e-06
1.0555e-06
1.06468e-06
1.07354e-06
1.08209e-06
1.09034e-06
1.09829e-06
1.10597e-06
1.11337e-06
1.12052e-06
1.12741e-06
1.13405e-06
1.14047e-06
1.14666e-06
1.15264e-06
1.1584e-06
1.16397e-06
1.16935e-06
1.17454e-06
1.17956e-06
1.18441e-06
1.18909e-06
1.19361e-06
1.19799e-06
1.20221e-06
1.2063e-06
1.21025e-06
1.21407e-06
1.21777e-06
1.22134e-06
1.2248e-06
1.22814e-06
1.23138e-06
)
;
    }
    inandouthalf22
    {
        type            cyclic;
        value           nonuniform List<scalar> 
100
(
1.13834e-10
1.13904e-10
1.13975e-10
1.14048e-10
1.14123e-10
1.142e-10
1.14278e-10
1.14359e-10
1.14442e-10
1.14526e-10
1.14613e-10
1.14702e-10
1.14794e-10
1.14888e-10
1.14985e-10
1.15085e-10
1.15187e-10
1.15292e-10
1.15401e-10
1.15513e-10
1.15629e-10
1.15748e-10
1.15871e-10
1.15999e-10
1.16131e-10
1.16268e-10
1.1641e-10
1.16558e-10
1.16711e-10
1.16871e-10
1.17038e-10
1.17211e-10
1.17391e-10
1.17579e-10
1.17778e-10
1.17987e-10
1.18206e-10
1.18441e-10
1.18709e-10
1.19023e-10
1.19368e-10
1.19757e-10
1.23959e-10
1.24679e-10
1.26197e-10
1.28478e-10
1.31454e-10
1.31853e-10
-1.92051e-11
-9.13635e-08
-2.36716e-07
-5.10886e-07
-6.94075e-07
-7.9449e-07
-8.49191e-07
-8.82752e-07
-9.06374e-07
-9.25026e-07
-9.40958e-07
-9.55261e-07
-9.68506e-07
-9.80999e-07
-9.92908e-07
-1.00433e-06
-1.01532e-06
-1.02591e-06
-1.03613e-06
-1.04599e-06
-1.0555e-06
-1.06468e-06
-1.07354e-06
-1.08209e-06
-1.09034e-06
-1.09829e-06
-1.10597e-06
-1.11337e-06
-1.12052e-06
-1.12741e-06
-1.13405e-06
-1.14047e-06
-1.14666e-06
-1.15264e-06
-1.1584e-06
-1.16397e-06
-1.16935e-06
-1.17454e-06
-1.17956e-06
-1.18441e-06
-1.18909e-06
-1.19361e-06
-1.19799e-06
-1.20221e-06
-1.2063e-06
-1.21025e-06
-1.21407e-06
-1.21777e-06
-1.22134e-06
-1.2248e-06
-1.22814e-06
-1.23138e-06
)
;
    }
    inandouthalf31
    {
        type            cyclic;
        value           nonuniform List<scalar> 
110
(
1.23452e-06
1.26269e-06
1.29147e-06
1.32084e-06
1.35083e-06
1.38144e-06
1.41268e-06
1.44456e-06
1.4771e-06
1.5103e-06
1.54417e-06
1.57872e-06
1.61396e-06
1.6499e-06
1.68655e-06
1.72391e-06
1.76199e-06
1.80079e-06
1.84033e-06
1.88061e-06
1.92162e-06
1.96337e-06
2.00585e-06
2.04907e-06
2.093e-06
2.13766e-06
2.18301e-06
2.22904e-06
2.27572e-06
2.32304e-06
2.37094e-06
2.41939e-06
2.46834e-06
2.51773e-06
2.56749e-06
2.61755e-06
2.66783e-06
2.71826e-06
2.76874e-06
2.81923e-06
2.86967e-06
2.92007e-06
2.97047e-06
3.02099e-06
3.07181e-06
3.12319e-06
3.17543e-06
3.22884e-06
3.28372e-06
3.34032e-06
3.3988e-06
3.45926e-06
3.52175e-06
3.58627e-06
3.65279e-06
3.72129e-06
3.79174e-06
3.86415e-06
3.93849e-06
4.01478e-06
4.09303e-06
4.17327e-06
4.25552e-06
4.33982e-06
4.42621e-06
4.51475e-06
4.60549e-06
4.69851e-06
4.79389e-06
4.89171e-06
4.99209e-06
5.09515e-06
5.20112e-06
5.31076e-06
5.42524e-06
5.53694e-06
5.64937e-06
5.76404e-06
5.88103e-06
6.0004e-06
6.12219e-06
6.24646e-06
6.37324e-06
6.5026e-06
6.63459e-06
6.76925e-06
6.90665e-06
7.04684e-06
7.18987e-06
7.3358e-06
7.4847e-06
7.63662e-06
7.79162e-06
7.94977e-06
8.11113e-06
8.27577e-06
8.44374e-06
8.61513e-06
8.78999e-06
8.96841e-06
9.15044e-06
9.33617e-06
9.52567e-06
9.71901e-06
9.91628e-06
1.01176e-05
1.03229e-05
1.05324e-05
1.07462e-05
1.09643e-05
)
;
    }
    inandouthalf32
    {
        type            cyclic;
        value           nonuniform List<scalar> 
110
(
-1.23452e-06
-1.26269e-06
-1.29147e-06
-1.32084e-06
-1.35083e-06
-1.38144e-06
-1.41268e-06
-1.44456e-06
-1.4771e-06
-1.5103e-06
-1.54417e-06
-1.57872e-06
-1.61396e-06
-1.6499e-06
-1.68655e-06
-1.72391e-06
-1.76199e-06
-1.80079e-06
-1.84033e-06
-1.88061e-06
-1.92162e-06
-1.96337e-06
-2.00585e-06
-2.04907e-06
-2.093e-06
-2.13766e-06
-2.18301e-06
-2.22904e-06
-2.27572e-06
-2.32304e-06
-2.37094e-06
-2.41939e-06
-2.46834e-06
-2.51773e-06
-2.56749e-06
-2.61755e-06
-2.66783e-06
-2.71826e-06
-2.76874e-06
-2.81923e-06
-2.86967e-06
-2.92007e-06
-2.97047e-06
-3.02099e-06
-3.07181e-06
-3.12319e-06
-3.17543e-06
-3.22884e-06
-3.28372e-06
-3.34032e-06
-3.3988e-06
-3.45926e-06
-3.52175e-06
-3.58627e-06
-3.65279e-06
-3.72129e-06
-3.79174e-06
-3.86415e-06
-3.93849e-06
-4.01478e-06
-4.09303e-06
-4.17327e-06
-4.25552e-06
-4.33982e-06
-4.42621e-06
-4.51475e-06
-4.60549e-06
-4.69851e-06
-4.79389e-06
-4.89171e-06
-4.99209e-06
-5.09515e-06
-5.20112e-06
-5.31076e-06
-5.42524e-06
-5.53694e-06
-5.64937e-06
-5.76404e-06
-5.88103e-06
-6.0004e-06
-6.12219e-06
-6.24646e-06
-6.37324e-06
-6.5026e-06
-6.63459e-06
-6.76925e-06
-6.90665e-06
-7.04684e-06
-7.18987e-06
-7.3358e-06
-7.4847e-06
-7.63662e-06
-7.79162e-06
-7.94977e-06
-8.11113e-06
-8.27577e-06
-8.44374e-06
-8.61513e-06
-8.78999e-06
-8.96841e-06
-9.15044e-06
-9.33617e-06
-9.52567e-06
-9.71901e-06
-9.91628e-06
-1.01176e-05
-1.03229e-05
-1.05324e-05
-1.07462e-05
-1.09643e-05
)
;
    }
    inandouthalf41
    {
        type            cyclic;
        value           nonuniform List<scalar> 
50
(
9.81421e-06
9.81421e-06
9.81421e-06
9.81421e-06
9.81421e-06
9.81421e-06
9.81421e-06
9.81421e-06
9.81421e-06
9.81421e-06
9.81421e-06
9.81421e-06
9.81421e-06
9.81421e-06
9.81421e-06
9.81421e-06
9.81421e-06
9.81421e-06
9.81421e-06
9.81421e-06
9.81421e-06
9.81421e-06
9.81421e-06
9.81421e-06
9.81421e-06
9.81421e-06
9.81421e-06
9.81421e-06
9.81421e-06
9.81421e-06
9.81421e-06
9.81421e-06
9.81421e-06
9.81421e-06
9.81421e-06
9.81421e-06
9.81421e-06
9.81421e-06
9.81421e-06
9.81421e-06
9.81421e-06
9.81421e-06
9.81421e-06
9.81421e-06
9.81421e-06
9.81421e-06
9.81421e-06
9.81421e-06
9.81421e-06
9.81421e-06
)
;
    }
    inandouthalf42
    {
        type            cyclic;
        value           nonuniform List<scalar> 
50
(
-9.81421e-06
-9.81421e-06
-9.81421e-06
-9.81421e-06
-9.81421e-06
-9.81421e-06
-9.81421e-06
-9.81421e-06
-9.81421e-06
-9.81421e-06
-9.81421e-06
-9.81421e-06
-9.81421e-06
-9.81421e-06
-9.81421e-06
-9.81421e-06
-9.81421e-06
-9.81421e-06
-9.81421e-06
-9.81421e-06
-9.81421e-06
-9.81421e-06
-9.81421e-06
-9.81421e-06
-9.81421e-06
-9.81421e-06
-9.81421e-06
-9.81421e-06
-9.81421e-06
-9.81421e-06
-9.81421e-06
-9.81421e-06
-9.81421e-06
-9.81421e-06
-9.81421e-06
-9.81421e-06
-9.81421e-06
-9.81421e-06
-9.81421e-06
-9.81421e-06
-9.81421e-06
-9.81421e-06
-9.81421e-06
-9.81421e-06
-9.81421e-06
-9.81421e-06
-9.81421e-06
-9.81421e-06
-9.81421e-06
-9.81421e-06
)
;
    }
    top
    {
        type            symmetryPlane;
        value           uniform 0;
    }
    walls
    {
        type            calculated;
        value           uniform 0;
    }
    frontAndBackPlanes
    {
        type            empty;
        value           nonuniform 0();
    }
}


// ************************************************************************* //
