/*--------------------------------*- C++ -*----------------------------------*\
| =========                 |                                                 |
| \\      /  F ield         | OpenFOAM: The Open Source CFD Toolbox           |
|  \\    /   O peration     | Version:  2.4.x                                 |
|   \\  /    A nd           | Web:      www.OpenFOAM.org                      |
|    \\/     M anipulation  |                                                 |
\*---------------------------------------------------------------------------*/
FoamFile
{
    version     2.0;
    format      ascii;
    class       surfaceScalarField;
    location    "10.65";
    object      ddt0(phia);
}
// * * * * * * * * * * * * * * * * * * * * * * * * * * * * * * * * * * * * * //

dimensions      [0 3 -2 0 0 0 0];

internalField   nonuniform List<scalar> 
359
(
1.60534e-14
3.95375e-14
5.84135e-14
7.35862e-14
8.69971e-14
9.89893e-14
1.09683e-13
1.19394e-13
1.28491e-13
1.37308e-13
1.46127e-13
1.55173e-13
1.64634e-13
1.74658e-13
1.85365e-13
1.96848e-13
2.09172e-13
2.22386e-13
2.36516e-13
2.51583e-13
2.67586e-13
2.84526e-13
3.02393e-13
3.21172e-13
3.40844e-13
3.61387e-13
3.82775e-13
4.04986e-13
4.27992e-13
4.51765e-13
4.76276e-13
5.01503e-13
5.2741e-13
5.53983e-13
5.81186e-13
6.08999e-13
6.37392e-13
6.66348e-13
6.95849e-13
7.25857e-13
7.56369e-13
7.87359e-13
8.18799e-13
8.50687e-13
8.82996e-13
9.15713e-13
9.48822e-13
9.8229e-13
1.01612e-12
1.05029e-12
1.08479e-12
1.1196e-12
1.15469e-12
1.19008e-12
1.22571e-12
1.26161e-12
1.29772e-12
1.33406e-12
1.37059e-12
1.40729e-12
1.44416e-12
1.48118e-12
1.51834e-12
1.55561e-12
1.59298e-12
1.63043e-12
1.66794e-12
1.70549e-12
1.74306e-12
1.78063e-12
1.81819e-12
1.85573e-12
1.89321e-12
1.93064e-12
1.96798e-12
2.00525e-12
2.04239e-12
2.07939e-12
2.11623e-12
2.15289e-12
2.18936e-12
2.22561e-12
2.26164e-12
2.29743e-12
2.33296e-12
2.36824e-12
2.40322e-12
2.4379e-12
2.47226e-12
2.50626e-12
2.53991e-12
2.57319e-12
2.60609e-12
2.6386e-12
2.67073e-12
2.70246e-12
2.73379e-12
2.76471e-12
2.79522e-12
2.82529e-12
2.85491e-12
2.88407e-12
2.91275e-12
2.94093e-12
2.96858e-12
2.99568e-12
3.02221e-12
3.04816e-12
3.0735e-12
3.09826e-12
3.12246e-12
3.14615e-12
3.16941e-12
3.19235e-12
3.21508e-12
3.23773e-12
3.26043e-12
3.28324e-12
3.30615e-12
3.32905e-12
3.35167e-12
3.37355e-12
3.39408e-12
3.41246e-12
3.42776e-12
3.43895e-12
3.44491e-12
3.44446e-12
3.43646e-12
3.41991e-12
3.3945e-12
3.36131e-12
3.32384e-12
3.28862e-12
3.26431e-12
3.258e-12
3.26935e-12
3.28869e-12
3.30415e-12
3.311e-12
3.31249e-12
3.31259e-12
5.41719e-12
9.03898e-12
1.31776e-11
1.80284e-11
2.36645e-11
3.95478e-11
1.59307e-10
8.84556e-09
6.15314e-08
1.26091e-07
1.55189e-07
1.54017e-07
1.31905e-07
1.08343e-07
8.81792e-08
7.14759e-08
5.78329e-08
4.66549e-08
3.7355e-08
2.94757e-08
2.26799e-08
1.67215e-08
1.1422e-08
6.65211e-09
2.31767e-09
-1.6504e-09
-5.30342e-09
-8.68007e-09
-1.18101e-08
-1.47167e-08
-1.74186e-08
-1.99311e-08
-2.22671e-08
-2.4438e-08
-2.64535e-08
-2.83226e-08
-3.00534e-08
-3.16537e-08
-3.31305e-08
-3.44906e-08
-3.57405e-08
-3.68862e-08
-3.79335e-08
-3.88881e-08
-3.97553e-08
-4.054e-08
-4.1247e-08
-4.18806e-08
-4.2445e-08
-4.29437e-08
-4.33798e-08
-4.37559e-08
-4.40738e-08
-4.43347e-08
-4.45388e-08
-4.4686e-08
-4.47758e-08
-4.48075e-08
-4.47817e-08
-4.46981e-08
-4.45586e-08
-4.43695e-08
-4.41428e-08
-4.38977e-08
-4.36596e-08
-4.34596e-08
-4.33304e-08
-4.33019e-08
-4.33937e-08
-4.36084e-08
-4.39282e-08
-4.43191e-08
-4.47396e-08
-4.51483e-08
-4.55064e-08
-4.57773e-08
-4.59283e-08
-4.59332e-08
-4.57749e-08
-4.54482e-08
-4.49601e-08
-4.43268e-08
-4.3572e-08
-4.27173e-08
-4.17933e-08
-4.08077e-08
-3.97974e-08
-3.87437e-08
-3.76949e-08
-3.6597e-08
-3.55152e-08
-3.43287e-08
-3.33961e-08
-3.04353e-08
-2.8012e-08
-2.20006e-08
-2.07262e-08
-1.61334e-08
-1.17052e-08
-6.17193e-09
7.93071e-11
7.52891e-09
1.46696e-08
2.50176e-08
3.00123e-08
4.61377e-08
4.21004e-08
7.13831e-08
1.5591e-07
8.79886e-08
-5.74408e-11
-2.56582e-10
-3.14908e-10
-2.7073e-10
-2.4163e-10
-2.18046e-10
-1.99827e-10
-1.86216e-10
-1.76593e-10
-1.70429e-10
-1.67287e-10
-1.66819e-10
-1.68764e-10
-1.72946e-10
-1.79281e-10
-1.87794e-10
-1.98648e-10
-2.12212e-10
-2.29222e-10
-2.52726e-10
-3.07476e-10
-3.9797e-10
-2.6484e-10
-2.33993e-10
-2.35028e-10
-2.35077e-10
-2.35078e-10
-2.35078e-10
-2.35078e-10
-2.35078e-10
-2.35078e-10
-2.35078e-10
-2.35078e-10
-2.35078e-10
-2.35078e-10
-2.35078e-10
-2.35078e-10
-2.35077e-10
-2.35078e-10
-2.35077e-10
-2.35078e-10
-2.35077e-10
-2.35078e-10
-2.35077e-10
-2.35078e-10
-2.35077e-10
-2.35078e-10
-2.35077e-10
-2.35078e-10
-2.35077e-10
-2.35077e-10
-2.35077e-10
-2.35077e-10
-2.35077e-10
-2.35077e-10
-2.35077e-10
-2.35077e-10
-2.35077e-10
-2.35077e-10
-2.35077e-10
-2.35077e-10
-2.35077e-10
-2.35077e-10
-2.35077e-10
-2.35077e-10
-2.35077e-10
-2.35077e-10
-2.35077e-10
-2.35077e-10
-2.35077e-10
-2.35077e-10
-2.35077e-10
-2.35077e-10
-2.35077e-10
-2.35077e-10
-2.35077e-10
-2.35077e-10
-2.35077e-10
-2.35076e-10
-2.35076e-10
-2.35076e-10
-2.35076e-10
-2.35076e-10
-2.35075e-10
-2.35075e-10
-2.35075e-10
-2.35075e-10
-2.35075e-10
-2.35075e-10
-2.35076e-10
-2.35076e-10
-2.35076e-10
-2.35077e-10
-2.35077e-10
-2.35077e-10
-2.35078e-10
-2.35079e-10
-2.3508e-10
-2.35081e-10
-2.35081e-10
-2.35084e-10
-2.35085e-10
-2.35087e-10
-2.3509e-10
-2.35211e-10
-2.37792e-10
-3.57852e-10
)
;

boundaryField
{
    inandouthalf11
    {
        type            cyclic;
        value           nonuniform List<scalar> 
100
(
1.67851e-38
1.21031e-15
2.72728e-15
4.28119e-15
6.00468e-15
7.89236e-15
9.86521e-15
1.18703e-14
1.38793e-14
1.58706e-14
1.78259e-14
1.97294e-14
2.15685e-14
2.33344e-14
2.50218e-14
2.66284e-14
2.8154e-14
2.96002e-14
3.09699e-14
3.22671e-14
3.34963e-14
3.4663e-14
3.57727e-14
3.68313e-14
3.78444e-14
3.8818e-14
3.97577e-14
4.0669e-14
4.15573e-14
4.24276e-14
4.32847e-14
4.41333e-14
4.49774e-14
4.58212e-14
4.66684e-14
4.75225e-14
4.83864e-14
4.92632e-14
5.01557e-14
5.10661e-14
5.19967e-14
5.29495e-14
5.39264e-14
5.49289e-14
5.59587e-14
5.7017e-14
5.81052e-14
5.9224e-14
6.03746e-14
6.1558e-14
6.2775e-14
6.40263e-14
6.53124e-14
6.6634e-14
6.79917e-14
6.9386e-14
7.08172e-14
7.22859e-14
7.37922e-14
7.53362e-14
7.69184e-14
7.85391e-14
8.01987e-14
8.18972e-14
8.36347e-14
8.54112e-14
8.72267e-14
8.90814e-14
9.09751e-14
9.29072e-14
9.48779e-14
9.68877e-14
9.89359e-14
1.01022e-13
1.03147e-13
1.05309e-13
1.0751e-13
1.09747e-13
1.1202e-13
1.14329e-13
1.16674e-13
1.19053e-13
1.21467e-13
1.23915e-13
1.26396e-13
1.28911e-13
1.31458e-13
1.34037e-13
1.36647e-13
1.39286e-13
1.41954e-13
1.4465e-13
1.47373e-13
1.50122e-13
1.52896e-13
1.55696e-13
1.58519e-13
1.61366e-13
1.64235e-13
1.67126e-13
)
;
    }
    inandouthalf12
    {
        type            cyclic;
        value           nonuniform List<scalar> 
100
(
-1.67851e-38
-1.21031e-15
-2.72728e-15
-4.28119e-15
-6.00468e-15
-7.89236e-15
-9.86521e-15
-1.18703e-14
-1.38793e-14
-1.58706e-14
-1.78259e-14
-1.97294e-14
-2.15685e-14
-2.33344e-14
-2.50218e-14
-2.66284e-14
-2.8154e-14
-2.96002e-14
-3.09699e-14
-3.22671e-14
-3.34963e-14
-3.4663e-14
-3.57727e-14
-3.68313e-14
-3.78444e-14
-3.8818e-14
-3.97577e-14
-4.0669e-14
-4.15573e-14
-4.24276e-14
-4.32847e-14
-4.41333e-14
-4.49774e-14
-4.58212e-14
-4.66684e-14
-4.75225e-14
-4.83864e-14
-4.92632e-14
-5.01557e-14
-5.10661e-14
-5.19967e-14
-5.29495e-14
-5.39264e-14
-5.49289e-14
-5.59587e-14
-5.7017e-14
-5.81052e-14
-5.9224e-14
-6.03746e-14
-6.1558e-14
-6.2775e-14
-6.40263e-14
-6.53124e-14
-6.6634e-14
-6.79917e-14
-6.9386e-14
-7.08172e-14
-7.22859e-14
-7.37922e-14
-7.53362e-14
-7.69184e-14
-7.85391e-14
-8.01987e-14
-8.18972e-14
-8.36347e-14
-8.54112e-14
-8.72267e-14
-8.90814e-14
-9.09751e-14
-9.29072e-14
-9.48779e-14
-9.68877e-14
-9.89359e-14
-1.01022e-13
-1.03147e-13
-1.05309e-13
-1.0751e-13
-1.09747e-13
-1.1202e-13
-1.14329e-13
-1.16674e-13
-1.19053e-13
-1.21467e-13
-1.23915e-13
-1.26396e-13
-1.28911e-13
-1.31458e-13
-1.34037e-13
-1.36647e-13
-1.39286e-13
-1.41954e-13
-1.4465e-13
-1.47373e-13
-1.50122e-13
-1.52896e-13
-1.55696e-13
-1.58519e-13
-1.61366e-13
-1.64235e-13
-1.67126e-13
)
;
    }
    inandouthalf21
    {
        type            cyclic;
        value           nonuniform List<scalar> 
100
(
1.70038e-13
1.72972e-13
1.75929e-13
1.7891e-13
1.81917e-13
1.84954e-13
1.88023e-13
1.9113e-13
1.94279e-13
1.97475e-13
2.00722e-13
2.04025e-13
2.07386e-13
2.10806e-13
2.14286e-13
2.17823e-13
2.21413e-13
2.25052e-13
2.28735e-13
2.32462e-13
2.36235e-13
2.40066e-13
2.43977e-13
2.48002e-13
2.52191e-13
2.56612e-13
2.61355e-13
2.66537e-13
2.72304e-13
2.78832e-13
2.86312e-13
2.94923e-13
3.04784e-13
3.15873e-13
3.27891e-13
3.40077e-13
3.51145e-13
3.59647e-13
3.64756e-13
3.66878e-13
3.67391e-13
3.67542e-13
3.67661e-13
-8.65071e-14
-7.02823e-13
-1.29539e-12
-1.60837e-12
5.36324e-13
3.10395e-11
8.72002e-08
2.37213e-07
4.78063e-07
6.40155e-07
7.36794e-07
7.98689e-07
8.42099e-07
8.74692e-07
9.0051e-07
9.21873e-07
9.40186e-07
9.56332e-07
9.70878e-07
9.84203e-07
9.96562e-07
1.00813e-06
1.01903e-06
1.02936e-06
1.03918e-06
1.04855e-06
1.0575e-06
1.06608e-06
1.0743e-06
1.08219e-06
1.08978e-06
1.09707e-06
1.1041e-06
1.11086e-06
1.11738e-06
1.12367e-06
1.12974e-06
1.13561e-06
1.14128e-06
1.14675e-06
1.15206e-06
1.15718e-06
1.16215e-06
1.16696e-06
1.17162e-06
1.17614e-06
1.18051e-06
1.18476e-06
1.18887e-06
1.19285e-06
1.19671e-06
1.20045e-06
1.20407e-06
1.20758e-06
1.21097e-06
1.21424e-06
1.2174e-06
)
;
    }
    inandouthalf22
    {
        type            cyclic;
        value           nonuniform List<scalar> 
100
(
-1.70038e-13
-1.72972e-13
-1.75929e-13
-1.7891e-13
-1.81917e-13
-1.84954e-13
-1.88023e-13
-1.9113e-13
-1.94279e-13
-1.97475e-13
-2.00722e-13
-2.04025e-13
-2.07386e-13
-2.10806e-13
-2.14286e-13
-2.17823e-13
-2.21413e-13
-2.25052e-13
-2.28735e-13
-2.32462e-13
-2.36235e-13
-2.40066e-13
-2.43977e-13
-2.48002e-13
-2.52191e-13
-2.56612e-13
-2.61355e-13
-2.66537e-13
-2.72304e-13
-2.78832e-13
-2.86312e-13
-2.94923e-13
-3.04784e-13
-3.15873e-13
-3.27891e-13
-3.40077e-13
-3.51145e-13
-3.59647e-13
-3.64756e-13
-3.66878e-13
-3.67391e-13
-3.67542e-13
-3.67661e-13
8.65071e-14
7.02823e-13
1.29539e-12
1.60837e-12
-5.36324e-13
-3.10395e-11
-8.72002e-08
-2.37213e-07
-4.78063e-07
-6.40155e-07
-7.36794e-07
-7.98689e-07
-8.42099e-07
-8.74692e-07
-9.0051e-07
-9.21873e-07
-9.40186e-07
-9.56332e-07
-9.70878e-07
-9.84203e-07
-9.96562e-07
-1.00813e-06
-1.01903e-06
-1.02936e-06
-1.03918e-06
-1.04855e-06
-1.0575e-06
-1.06608e-06
-1.0743e-06
-1.08219e-06
-1.08978e-06
-1.09707e-06
-1.1041e-06
-1.11086e-06
-1.11738e-06
-1.12367e-06
-1.12974e-06
-1.13561e-06
-1.14128e-06
-1.14675e-06
-1.15206e-06
-1.15718e-06
-1.16215e-06
-1.16696e-06
-1.17162e-06
-1.17614e-06
-1.18051e-06
-1.18476e-06
-1.18887e-06
-1.19285e-06
-1.19671e-06
-1.20045e-06
-1.20407e-06
-1.20758e-06
-1.21097e-06
-1.21424e-06
-1.2174e-06
)
;
    }
    inandouthalf31
    {
        type            cyclic;
        value           nonuniform List<scalar> 
110
(
1.22045e-06
1.24825e-06
1.27661e-06
1.30555e-06
1.33507e-06
1.36518e-06
1.39589e-06
1.4272e-06
1.45913e-06
1.49167e-06
1.52485e-06
1.55866e-06
1.59312e-06
1.62823e-06
1.664e-06
1.70043e-06
1.73751e-06
1.77526e-06
1.81368e-06
1.85276e-06
1.89253e-06
1.93298e-06
1.97413e-06
2.016e-06
2.05859e-06
2.10193e-06
2.14603e-06
2.19091e-06
2.23659e-06
2.28308e-06
2.33041e-06
2.37858e-06
2.42762e-06
2.47756e-06
2.52839e-06
2.5802e-06
2.63304e-06
2.72337e-06
2.77406e-06
2.82451e-06
2.87495e-06
2.92546e-06
2.97598e-06
3.02675e-06
3.07771e-06
3.12961e-06
3.1818e-06
3.23512e-06
3.29259e-06
3.34671e-06
3.41399e-06
3.45617e-06
3.52655e-06
3.59066e-06
3.65755e-06
3.72633e-06
3.79705e-06
3.86971e-06
3.94429e-06
4.02082e-06
4.0993e-06
4.17976e-06
4.26223e-06
4.34675e-06
4.43337e-06
4.52213e-06
4.61311e-06
4.70637e-06
4.80199e-06
4.90007e-06
5.00071e-06
5.10405e-06
5.21009e-06
5.32105e-06
5.43475e-06
5.54629e-06
5.6589e-06
5.77376e-06
5.89095e-06
6.01052e-06
6.13252e-06
6.25699e-06
6.38399e-06
6.51357e-06
6.64578e-06
6.78067e-06
6.9183e-06
7.05872e-06
7.20199e-06
7.34818e-06
7.49732e-06
7.6495e-06
7.80476e-06
7.96318e-06
8.12481e-06
8.28972e-06
8.45798e-06
8.62966e-06
8.80482e-06
8.98353e-06
9.16587e-06
9.35191e-06
9.54173e-06
9.73541e-06
9.93301e-06
1.01346e-05
1.03403e-05
1.05502e-05
1.07644e-05
1.09828e-05
)
;
    }
    inandouthalf32
    {
        type            cyclic;
        value           nonuniform List<scalar> 
110
(
-1.22045e-06
-1.24825e-06
-1.27661e-06
-1.30555e-06
-1.33507e-06
-1.36518e-06
-1.39589e-06
-1.4272e-06
-1.45913e-06
-1.49167e-06
-1.52485e-06
-1.55866e-06
-1.59312e-06
-1.62823e-06
-1.664e-06
-1.70043e-06
-1.73751e-06
-1.77526e-06
-1.81368e-06
-1.85276e-06
-1.89253e-06
-1.93298e-06
-1.97413e-06
-2.016e-06
-2.05859e-06
-2.10193e-06
-2.14603e-06
-2.19091e-06
-2.23659e-06
-2.28308e-06
-2.33041e-06
-2.37858e-06
-2.42762e-06
-2.47756e-06
-2.52839e-06
-2.5802e-06
-2.63304e-06
-2.72337e-06
-2.77406e-06
-2.82451e-06
-2.87495e-06
-2.92546e-06
-2.97598e-06
-3.02675e-06
-3.07771e-06
-3.12961e-06
-3.1818e-06
-3.23512e-06
-3.29259e-06
-3.34671e-06
-3.41399e-06
-3.45617e-06
-3.52655e-06
-3.59066e-06
-3.65755e-06
-3.72633e-06
-3.79705e-06
-3.86971e-06
-3.94429e-06
-4.02082e-06
-4.0993e-06
-4.17976e-06
-4.26223e-06
-4.34675e-06
-4.43337e-06
-4.52213e-06
-4.61311e-06
-4.70637e-06
-4.80199e-06
-4.90007e-06
-5.00071e-06
-5.10405e-06
-5.21009e-06
-5.32105e-06
-5.43475e-06
-5.54629e-06
-5.6589e-06
-5.77376e-06
-5.89095e-06
-6.01052e-06
-6.13252e-06
-6.25699e-06
-6.38399e-06
-6.51357e-06
-6.64578e-06
-6.78067e-06
-6.9183e-06
-7.05872e-06
-7.20199e-06
-7.34818e-06
-7.49732e-06
-7.6495e-06
-7.80476e-06
-7.96318e-06
-8.12481e-06
-8.28972e-06
-8.45798e-06
-8.62966e-06
-8.80482e-06
-8.98353e-06
-9.16587e-06
-9.35191e-06
-9.54173e-06
-9.73541e-06
-9.93301e-06
-1.01346e-05
-1.03403e-05
-1.05502e-05
-1.07644e-05
-1.09828e-05
)
;
    }
    inandouthalf41
    {
        type            cyclic;
        value           nonuniform List<scalar> 
50
(
9.83076e-06
9.83076e-06
9.83076e-06
9.83076e-06
9.83076e-06
9.83076e-06
9.83076e-06
9.83076e-06
9.83076e-06
9.83076e-06
9.83076e-06
9.83076e-06
9.83076e-06
9.83076e-06
9.83076e-06
9.83076e-06
9.83076e-06
9.83076e-06
9.83076e-06
9.83076e-06
9.83076e-06
9.83076e-06
9.83076e-06
9.83076e-06
9.83076e-06
9.83076e-06
9.83076e-06
9.83076e-06
9.83076e-06
9.83076e-06
9.83076e-06
9.83076e-06
9.83076e-06
9.83076e-06
9.83076e-06
9.83076e-06
9.83076e-06
9.83076e-06
9.83076e-06
9.83076e-06
9.83076e-06
9.83076e-06
9.83076e-06
9.83076e-06
9.83076e-06
9.83076e-06
9.83076e-06
9.83076e-06
9.83087e-06
9.83325e-06
)
;
    }
    inandouthalf42
    {
        type            cyclic;
        value           nonuniform List<scalar> 
50
(
-9.83076e-06
-9.83076e-06
-9.83076e-06
-9.83076e-06
-9.83076e-06
-9.83076e-06
-9.83076e-06
-9.83076e-06
-9.83076e-06
-9.83076e-06
-9.83076e-06
-9.83076e-06
-9.83076e-06
-9.83076e-06
-9.83076e-06
-9.83076e-06
-9.83076e-06
-9.83076e-06
-9.83076e-06
-9.83076e-06
-9.83076e-06
-9.83076e-06
-9.83076e-06
-9.83076e-06
-9.83076e-06
-9.83076e-06
-9.83076e-06
-9.83076e-06
-9.83076e-06
-9.83076e-06
-9.83076e-06
-9.83076e-06
-9.83076e-06
-9.83076e-06
-9.83076e-06
-9.83076e-06
-9.83076e-06
-9.83076e-06
-9.83076e-06
-9.83076e-06
-9.83076e-06
-9.83076e-06
-9.83076e-06
-9.83076e-06
-9.83076e-06
-9.83076e-06
-9.83076e-06
-9.83076e-06
-9.83087e-06
-9.83325e-06
)
;
    }
    top
    {
        type            symmetryPlane;
        value           uniform 0;
    }
    walls
    {
        type            calculated;
        value           uniform 0;
    }
    frontAndBackPlanes
    {
        type            empty;
        value           nonuniform 0();
    }
}


// ************************************************************************* //
