/*--------------------------------*- C++ -*----------------------------------*\
| =========                 |                                                 |
| \\      /  F ield         | OpenFOAM: The Open Source CFD Toolbox           |
|  \\    /   O peration     | Version:  2.4.x                                 |
|   \\  /    A nd           | Web:      www.OpenFOAM.org                      |
|    \\/     M anipulation  |                                                 |
\*---------------------------------------------------------------------------*/
FoamFile
{
    version     2.0;
    format      ascii;
    class       volVectorField;
    location    "10.65";
    object      ddt0(Ua);
}
// * * * * * * * * * * * * * * * * * * * * * * * * * * * * * * * * * * * * * //

dimensions      [0 1 -2 0 0 0 0];

internalField   nonuniform List<vector> 
360
(
(-1.67851e-32 4.43313e-33 0)
(-1.21031e-09 7.47191e-09 0)
(-2.72728e-09 1.27258e-08 0)
(-4.28119e-09 1.6633e-08 0)
(-6.00468e-09 2.01478e-08 0)
(-7.89236e-09 2.33355e-08 0)
(-9.86521e-09 2.61587e-08 0)
(-1.18703e-08 2.86846e-08 0)
(-1.38793e-08 3.10126e-08 0)
(-1.58706e-08 3.32328e-08 0)
(-1.78259e-08 3.54215e-08 0)
(-1.97294e-08 3.76417e-08 0)
(-2.15685e-08 3.99447e-08 0)
(-2.33344e-08 4.23721e-08 0)
(-2.50218e-08 4.4957e-08 0)
(-2.66284e-08 4.77257e-08 0)
(-2.8154e-08 5.06981e-08 0)
(-2.96002e-08 5.3888e-08 0)
(-3.09699e-08 5.73047e-08 0)
(-3.22671e-08 6.09537e-08 0)
(-3.34963e-08 6.48374e-08 0)
(-3.4663e-08 6.89558e-08 0)
(-3.57727e-08 7.33074e-08 0)
(-3.68313e-08 7.78892e-08 0)
(-3.78444e-08 8.26969e-08 0)
(-3.8818e-08 8.77253e-08 0)
(-3.97577e-08 9.29681e-08 0)
(-4.0669e-08 9.84195e-08 0)
(-4.15573e-08 1.04073e-07 0)
(-4.24276e-08 1.09923e-07 0)
(-4.32847e-08 1.1596e-07 0)
(-4.41333e-08 1.22179e-07 0)
(-4.49774e-08 1.28572e-07 0)
(-4.58212e-08 1.35134e-07 0)
(-4.66684e-08 1.41857e-07 0)
(-4.75225e-08 1.48736e-07 0)
(-4.83864e-08 1.55763e-07 0)
(-4.92632e-08 1.62933e-07 0)
(-5.01557e-08 1.70242e-07 0)
(-5.10661e-08 1.77681e-07 0)
(-5.19967e-08 1.85248e-07 0)
(-5.29495e-08 1.92937e-07 0)
(-5.39264e-08 2.00742e-07 0)
(-5.49289e-08 2.08659e-07 0)
(-5.59587e-08 2.16684e-07 0)
(-5.7017e-08 2.24814e-07 0)
(-5.81052e-08 2.33043e-07 0)
(-5.9224e-08 2.41366e-07 0)
(-6.03746e-08 2.49779e-07 0)
(-6.1558e-08 2.5828e-07 0)
(-6.2775e-08 2.66865e-07 0)
(-6.40263e-08 2.75529e-07 0)
(-6.53124e-08 2.84268e-07 0)
(-6.6634e-08 2.93079e-07 0)
(-6.79917e-08 3.01957e-07 0)
(-6.9386e-08 3.109e-07 0)
(-7.08172e-08 3.19903e-07 0)
(-7.22859e-08 3.28961e-07 0)
(-7.37922e-08 3.3807e-07 0)
(-7.53362e-08 3.47225e-07 0)
(-7.69184e-08 3.56422e-07 0)
(-7.85391e-08 3.65659e-07 0)
(-8.01987e-08 3.74931e-07 0)
(-8.18972e-08 3.84236e-07 0)
(-8.36347e-08 3.93568e-07 0)
(-8.54112e-08 4.02921e-07 0)
(-8.72267e-08 4.12292e-07 0)
(-8.90814e-08 4.21677e-07 0)
(-9.09751e-08 4.31069e-07 0)
(-9.29072e-08 4.40462e-07 0)
(-9.48779e-08 4.49853e-07 0)
(-9.68877e-08 4.59242e-07 0)
(-9.89359e-08 4.68621e-07 0)
(-1.01022e-07 4.77985e-07 0)
(-1.03147e-07 4.87332e-07 0)
(-1.05309e-07 4.96661e-07 0)
(-1.0751e-07 5.05963e-07 0)
(-1.09747e-07 5.15232e-07 0)
(-1.1202e-07 5.24463e-07 0)
(-1.14329e-07 5.33652e-07 0)
(-1.16674e-07 5.42794e-07 0)
(-1.19053e-07 5.51884e-07 0)
(-1.21467e-07 5.6092e-07 0)
(-1.23915e-07 5.69898e-07 0)
(-1.26396e-07 5.78815e-07 0)
(-1.28911e-07 5.87667e-07 0)
(-1.31458e-07 5.96451e-07 0)
(-1.34037e-07 6.0516e-07 0)
(-1.36647e-07 6.13791e-07 0)
(-1.39286e-07 6.22337e-07 0)
(-1.41954e-07 6.30795e-07 0)
(-1.4465e-07 6.39161e-07 0)
(-1.47373e-07 6.47433e-07 0)
(-1.50122e-07 6.5561e-07 0)
(-1.52896e-07 6.63691e-07 0)
(-1.55696e-07 6.71673e-07 0)
(-1.58519e-07 6.79557e-07 0)
(-1.61366e-07 6.87339e-07 0)
(-1.64235e-07 6.95018e-07 0)
(-1.67126e-07 7.0259e-07 0)
(-1.70038e-07 7.10053e-07 0)
(-1.72972e-07 7.17403e-07 0)
(-1.75929e-07 7.24634e-07 0)
(-1.7891e-07 7.31743e-07 0)
(-1.81917e-07 7.38723e-07 0)
(-1.84954e-07 7.45569e-07 0)
(-1.88023e-07 7.52274e-07 0)
(-1.9113e-07 7.58833e-07 0)
(-1.94279e-07 7.65244e-07 0)
(-1.97475e-07 7.71506e-07 0)
(-2.00722e-07 7.77624e-07 0)
(-2.04025e-07 7.83606e-07 0)
(-2.07386e-07 7.89469e-07 0)
(-2.10806e-07 7.95237e-07 0)
(-2.14286e-07 8.00937e-07 0)
(-2.17823e-07 8.06602e-07 0)
(-2.21413e-07 8.12264e-07 0)
(-2.25052e-07 8.1795e-07 0)
(-2.28735e-07 8.23669e-07 0)
(-2.32462e-07 8.29408e-07 0)
(-2.36235e-07 8.3512e-07 0)
(-2.40066e-07 8.40715e-07 0)
(-2.43977e-07 8.46061e-07 0)
(-2.48002e-07 8.50978e-07 0)
(-2.52191e-07 8.5525e-07 0)
(-2.56612e-07 8.58629e-07 0)
(-2.61355e-07 8.60844e-07 0)
(-2.66537e-07 8.61608e-07 0)
(-2.72304e-07 8.60623e-07 0)
(-2.78832e-07 8.57604e-07 0)
(-2.86312e-07 8.5235e-07 0)
(-2.94923e-07 8.44899e-07 0)
(-3.04784e-07 8.35759e-07 0)
(-3.15873e-07 8.26165e-07 0)
(-3.27891e-07 8.18142e-07 0)
(-3.40077e-07 8.14012e-07 0)
(-3.51145e-07 8.14989e-07 0)
(-3.59647e-07 8.19677e-07 0)
(-3.64756e-07 8.24669e-07 0)
(-3.66878e-07 8.27413e-07 0)
(-3.67391e-07 8.28084e-07 0)
(-3.67542e-07 8.28152e-07 0)
(-3.67661e-07 8.28111e-07 0)
(8.65071e-08 1.78546e-06 0)
(7.02823e-07 2.77763e-06 0)
(1.29539e-06 3.85117e-06 0)
(1.60837e-06 5.29202e-06 0)
(-5.36324e-07 7.35258e-06 0)
(-3.10395e-05 1.1959e-05 0)
(-0.0872002 -0.000165643 0)
(-0.237213 0.00672486 0)
(-0.478063 0.0282746 0)
(-0.640155 0.0369212 0)
(-0.736794 0.0396248 0)
(-0.798689 0.0360892 0)
(-0.842099 0.0300695 0)
(-0.874692 0.0244062 0)
(-0.90051 0.0197567 0)
(-0.921873 0.0159946 0)
(-0.940186 0.0129295 0)
(-0.956332 0.0104002 0)
(-0.970878 0.00827652 0)
(-0.984203 0.00645993 0)
(-0.996562 0.0048787 0)
(-1.00813 0.00348098 0)
(-1.01903 0.00222925 0)
(-1.02936 0.00109631 0)
(-1.03918 6.22782e-05 0)
(-1.04855 -0.000887523 0)
(-1.0575 -0.00176408 0)
(-1.06608 -0.00257574 0)
(-1.0743 -0.00332899 0)
(-1.08219 -0.00402899 0)
(-1.08978 -0.0046799 0)
(-1.09707 -0.00528522 0)
(-1.1041 -0.00584793 0)
(-1.11086 -0.00637064 0)
(-1.11738 -0.00685568 0)
(-1.12367 -0.0073052 0)
(-1.12974 -0.00772114 0)
(-1.13561 -0.00810535 0)
(-1.14128 -0.00845957 0)
(-1.14675 -0.00878543 0)
(-1.15206 -0.00908451 0)
(-1.15718 -0.00935829 0)
(-1.16215 -0.00960821 0)
(-1.16696 -0.00983562 0)
(-1.17162 -0.0100418 0)
(-1.17614 -0.010228 0)
(-1.18051 -0.0103953 0)
(-1.18476 -0.0105448 0)
(-1.18887 -0.0106775 0)
(-1.19285 -0.0107942 0)
(-1.19671 -0.0108956 0)
(-1.20045 -0.0109823 0)
(-1.20407 -0.0110546 0)
(-1.20758 -0.0111127 0)
(-1.21097 -0.0111566 0)
(-1.21424 -0.0111863 0)
(-1.2174 -0.0112015 0)
(-1.22044 -0.0112021 0)
(-1.22341 -0.0111883 0)
(-1.22632 -0.0111601 0)
(-1.22917 -0.0111183 0)
(-1.23196 -0.0110653 0)
(-1.23468 -0.0110049 0)
(-1.23734 -0.0109428 0)
(-1.23993 -0.0108862 0)
(-1.24245 -0.0108433 0)
(-1.24489 -0.0108224 0)
(-1.24726 -0.0108299 0)
(-1.24956 -0.0108689 0)
(-1.25178 -0.0109373 0)
(-1.25391 -0.0110284 0)
(-1.25596 -0.0111323 0)
(-1.25793 -0.0112385 0)
(-1.25979 -0.0113366 0)
(-1.26155 -0.0114172 0)
(-1.26321 -0.0114716 0)
(-1.26477 -0.0114921 0)
(-1.26621 -0.0114734 0)
(-1.26755 -0.0114125 0)
(-1.26878 -0.0113097 0)
(-1.26991 -0.0111682 0)
(-1.27095 -0.0109931 0)
(-1.27189 -0.0107904 0)
(-1.27274 -0.0105666 0)
(-1.27351 -0.0103268 0)
(-1.2742 -0.0100763 0)
(-1.27481 -0.00981778 0)
(-1.27534 -0.00955463 0)
(-1.27581 -0.00928627 0)
(-1.27622 -0.00901428 0)
(-1.27656 -0.00873474 0)
(-1.27683 -0.00844895 0)
(-1.27707 -0.00810915 0)
(-1.2773 -0.00767394 0)
(-1.29484 -0.00581615 0)
(-1.2927 -0.00721136 0)
(-1.29003 -0.00340543 0)
(-1.28694 -0.0039702 0)
(-1.2835 -0.00212093 0)
(-1.27969 -0.000962457 0)
(-1.27563 0.00133266 0)
(-1.2713 0.00197138 0)
(-1.26702 0.00579393 0)
(-1.26253 0.00673501 0)
(-1.25815 0.00752498 0)
(-1.25503 0.0182031 0)
(-1.25027 -0.00145461 0)
(-1.25004 0.0464527 0)
(-1.24031 0.0476584 0)
(-1.24039 -0.000779674 0)
(-1.23781 -4.387e-05 0)
(-1.23579 -8.65244e-05 0)
(-1.23398 -7.23457e-05 0)
(-1.23239 -6.43304e-05 0)
(-1.23098 -5.76292e-05 0)
(-1.22975 -5.23821e-05 0)
(-1.22867 -4.83788e-05 0)
(-1.22773 -4.5454e-05 0)
(-1.22692 -4.34632e-05 0)
(-1.22624 -4.22852e-05 0)
(-1.22568 -4.18217e-05 0)
(-1.22524 -4.1996e-05 0)
(-1.22491 -4.27534e-05 0)
(-1.22469 -4.40615e-05 0)
(-1.22459 -4.59129e-05 0)
(-1.22462 -4.83311e-05 0)
(-1.22477 -5.1381e-05 0)
(-1.22506 -5.52163e-05 0)
(-1.2255 -6.04296e-05 0)
(-1.22608 -6.95782e-05 0)
(-1.22728 -9.01493e-05 0)
(-1.22857 -8.04714e-05 0)
(-1.22884 -6.27906e-05 0)
(-1.22884 -5.88671e-05 0)
(-1.22884 -5.87705e-05 0)
(-1.22884 -5.87695e-05 0)
(-1.22884 -5.87693e-05 0)
(-1.22884 -5.87695e-05 0)
(-1.22884 -5.87693e-05 0)
(-1.22884 -5.87695e-05 0)
(-1.22884 -5.87693e-05 0)
(-1.22884 -5.87695e-05 0)
(-1.22884 -5.87693e-05 0)
(-1.22884 -5.87695e-05 0)
(-1.22884 -5.87693e-05 0)
(-1.22884 -5.87695e-05 0)
(-1.22884 -5.87693e-05 0)
(-1.22884 -5.87695e-05 0)
(-1.22884 -5.87692e-05 0)
(-1.22884 -5.87695e-05 0)
(-1.22884 -5.87692e-05 0)
(-1.22884 -5.87696e-05 0)
(-1.22884 -5.87692e-05 0)
(-1.22884 -5.87696e-05 0)
(-1.22884 -5.87692e-05 0)
(-1.22884 -5.87696e-05 0)
(-1.22884 -5.87692e-05 0)
(-1.22884 -5.87696e-05 0)
(-1.22884 -5.87691e-05 0)
(-1.22884 -5.87696e-05 0)
(-1.22884 -5.87691e-05 0)
(-1.22884 -5.87696e-05 0)
(-1.22884 -5.87691e-05 0)
(-1.22884 -5.87696e-05 0)
(-1.22884 -5.87691e-05 0)
(-1.22884 -5.87696e-05 0)
(-1.22884 -5.8769e-05 0)
(-1.22884 -5.87696e-05 0)
(-1.22884 -5.87691e-05 0)
(-1.22884 -5.87696e-05 0)
(-1.22884 -5.8769e-05 0)
(-1.22884 -5.87696e-05 0)
(-1.22884 -5.8769e-05 0)
(-1.22884 -5.87696e-05 0)
(-1.22884 -5.8769e-05 0)
(-1.22884 -5.87696e-05 0)
(-1.22884 -5.8769e-05 0)
(-1.22884 -5.87696e-05 0)
(-1.22884 -5.8769e-05 0)
(-1.22884 -5.87696e-05 0)
(-1.22884 -5.8769e-05 0)
(-1.22884 -5.87696e-05 0)
(-1.22884 -5.8769e-05 0)
(-1.22884 -5.87696e-05 0)
(-1.22884 -5.8769e-05 0)
(-1.22884 -5.87695e-05 0)
(-1.22884 -5.87689e-05 0)
(-1.22884 -5.87694e-05 0)
(-1.22884 -5.87687e-05 0)
(-1.22884 -5.87693e-05 0)
(-1.22884 -5.87686e-05 0)
(-1.22884 -5.87692e-05 0)
(-1.22884 -5.87686e-05 0)
(-1.22884 -5.87692e-05 0)
(-1.22884 -5.87685e-05 0)
(-1.22884 -5.87691e-05 0)
(-1.22884 -5.87685e-05 0)
(-1.22884 -5.87692e-05 0)
(-1.22884 -5.87685e-05 0)
(-1.22884 -5.87693e-05 0)
(-1.22884 -5.87687e-05 0)
(-1.22884 -5.87695e-05 0)
(-1.22884 -5.87689e-05 0)
(-1.22884 -5.87696e-05 0)
(-1.22884 -5.87691e-05 0)
(-1.22884 -5.877e-05 0)
(-1.22884 -5.87695e-05 0)
(-1.22884 -5.87704e-05 0)
(-1.22884 -5.87699e-05 0)
(-1.22884 -5.8771e-05 0)
(-1.22884 -5.87708e-05 0)
(-1.22884 -5.87719e-05 0)
(-1.22884 -5.87711e-05 0)
(-1.22884 -5.87745e-05 0)
(-1.22885 -5.88299e-05 0)
(-1.22886 -6.00654e-05 0)
(-1.22916 -0.000111528 0)
)
;

boundaryField
{
    inandouthalf11
    {
        type            cyclic;
    }
    inandouthalf12
    {
        type            cyclic;
    }
    inandouthalf21
    {
        type            cyclic;
    }
    inandouthalf22
    {
        type            cyclic;
    }
    inandouthalf31
    {
        type            cyclic;
    }
    inandouthalf32
    {
        type            cyclic;
    }
    inandouthalf41
    {
        type            cyclic;
    }
    inandouthalf42
    {
        type            cyclic;
    }
    top
    {
        type            symmetryPlane;
    }
    walls
    {
        type            calculated;
        value           uniform (0 0 0);
    }
    frontAndBackPlanes
    {
        type            empty;
    }
}


// ************************************************************************* //
