/*--------------------------------*- C++ -*----------------------------------*\
| =========                 |                                                 |
| \\      /  F ield         | OpenFOAM: The Open Source CFD Toolbox           |
|  \\    /   O peration     | Version:  2.4.x                                 |
|   \\  /    A nd           | Web:      www.OpenFOAM.org                      |
|    \\/     M anipulation  |                                                 |
\*---------------------------------------------------------------------------*/
FoamFile
{
    version     2.0;
    format      ascii;
    class       volScalarField;
    location    "10.65";
    object      k_0;
}
// * * * * * * * * * * * * * * * * * * * * * * * * * * * * * * * * * * * * * //

dimensions      [0 2 -2 0 0 0 0];

internalField   nonuniform List<scalar> 
360
(
1e-20
1e-20
1e-20
1e-20
1e-20
1e-20
1e-20
1e-20
1e-20
1e-20
1e-20
1e-20
1e-20
1e-20
1e-20
1e-20
1e-20
1e-20
1e-20
1e-20
1e-20
1e-20
1e-20
1e-20
1e-20
1e-20
1e-20
1e-20
1e-20
1e-20
1e-20
1e-20
1e-20
1e-20
1e-20
1e-20
1e-20
1e-20
1e-20
1e-20
1e-20
1e-20
1e-20
1e-20
1e-20
1e-20
1e-20
1e-20
1e-20
1e-20
1e-20
1e-20
1e-20
1e-20
1e-20
1e-20
1e-20
1e-20
1e-20
1e-20
1e-20
1e-20
1e-20
1e-20
1e-20
1e-20
1e-20
1e-20
1e-20
1e-20
1e-20
1e-20
1e-20
1e-20
1e-20
1e-20
1e-20
1e-20
1e-20
1e-20
1e-20
1e-20
1e-20
1e-20
1e-20
1e-20
1e-20
1e-20
1e-20
1e-20
1e-20
1e-20
1e-20
1e-20
1e-20
1e-20
1e-20
1e-20
1e-20
1e-20
1e-20
1e-20
1e-20
1e-20
1e-20
1e-20
1e-20
1e-20
1e-20
1e-20
1e-20
1e-20
1e-20
1e-20
1e-20
1e-20
1e-20
1e-20
1e-20
1e-20
1e-20
1e-20
1e-20
1e-20
1e-20
1e-20
1e-20
1.58521e-20
3.89534e-20
9.5806e-20
2.28049e-19
5.23727e-19
1.15924e-18
2.47607e-18
5.13296e-18
1.0478e-17
2.17902e-17
4.92843e-17
1.30052e-16
4.03319e-16
1.41544e-15
5.85112e-15
3.66329e-14
2.90709e-13
3.34592e-12
5.9475e-11
1.46003e-09
4.72338e-08
1.96745e-06
9.82224e-05
0.00141412
0.00195461
0.00209643
0.00229545
0.00252485
0.00275916
0.0029905
0.00321701
0.00343833
0.00365435
0.00386498
0.00407005
0.00426933
0.00446257
0.00464953
0.00482998
0.00500371
0.00517054
0.00533034
0.00548301
0.00562846
0.00576667
0.00589762
0.00602133
0.00613782
0.00624716
0.00634942
0.00644469
0.00653306
0.00661465
0.00668958
0.00675798
0.00681998
0.00687571
0.00692531
0.00696894
0.00700673
0.00703883
0.0070654
0.00708657
0.0071025
0.00711333
0.00711922
0.0071203
0.00711672
0.00710862
0.00709615
0.00707945
0.00705865
0.0070339
0.00700532
0.00697273
0.00693573
0.00689423
0.00684811
0.00679727
0.00674162
0.00668103
0.0066154
0.00654464
0.00646864
0.0063873
0.00630053
0.00620824
0.00611035
0.0060068
0.00589752
0.00578248
0.00566163
0.00553497
0.0054025
0.00526425
0.00512028
0.00497067
0.00481555
0.00465507
0.00448944
0.00431894
0.00414388
0.00396467
0.00378178
0.00359577
0.0034073
0.00321714
0.00302618
0.00283542
0.00264598
0.00245911
0.00227618
0.00209864
0.00192798
0.00176569
0.00161315
0.00147158
0.00134193
0.00122475
0.0011202
0.00102798
0.000947355
0.000877301
0.000816549
0.000763735
0.000717485
0.000676492
0.000639562
0.000605634
0.000573784
0.000543226
0.000513298
0.00048346
0.000453279
0.000422426
0.000390667
0.000357862
0.000323959
0.000288998
0.000253108
0.000216518
0.000179567
0.00014272
0.000106615
7.2132e-05
4.05982e-05
1.40106e-05
1.38419e-06
2.61945e-08
2.91329e-10
3.02332e-12
2.965e-14
2.75064e-16
2.42169e-18
2.77134e-20
1e-20
1e-20
1e-20
1e-20
1e-20
1e-20
1e-20
1e-20
1e-20
1e-20
1e-20
1e-20
1e-20
1e-20
1e-20
1e-20
1e-20
1e-20
1e-20
1e-20
1e-20
1e-20
1e-20
1e-20
1e-20
1e-20
1e-20
1e-20
1e-20
1e-20
1e-20
1e-20
1e-20
1e-20
1e-20
1e-20
1e-20
1e-20
1e-20
1e-20
1e-20
1e-20
1e-20
1e-20
1e-20
1e-20
1e-20
1e-20
1e-20
1e-20
1e-20
1e-20
1e-20
1e-20
1e-20
1e-20
1e-20
1e-20
1e-20
1e-20
1e-20
1e-20
1e-20
1e-20
1e-20
1e-20
1e-20
1e-20
1e-20
1e-20
1e-20
1e-20
1e-20
1e-20
1e-20
1e-20
1e-20
1e-20
)
;

boundaryField
{
    inandouthalf11
    {
        type            cyclic;
    }
    inandouthalf12
    {
        type            cyclic;
    }
    inandouthalf21
    {
        type            cyclic;
    }
    inandouthalf22
    {
        type            cyclic;
    }
    inandouthalf31
    {
        type            cyclic;
    }
    inandouthalf32
    {
        type            cyclic;
    }
    inandouthalf41
    {
        type            cyclic;
    }
    inandouthalf42
    {
        type            cyclic;
    }
    top
    {
        type            symmetryPlane;
    }
    walls
    {
        type            zeroGradient;
    }
    frontAndBackPlanes
    {
        type            empty;
    }
}


// ************************************************************************* //
