/*--------------------------------*- C++ -*----------------------------------*\
| =========                 |                                                 |
| \\      /  F ield         | OpenFOAM: The Open Source CFD Toolbox           |
|  \\    /   O peration     | Version:  2.4.x                                 |
|   \\  /    A nd           | Web:      www.OpenFOAM.org                      |
|    \\/     M anipulation  |                                                 |
\*---------------------------------------------------------------------------*/
FoamFile
{
    version     2.0;
    format      ascii;
    class       volScalarField;
    location    "10.65";
    object      mua;
}
// * * * * * * * * * * * * * * * * * * * * * * * * * * * * * * * * * * * * * //

dimensions      [1 -1 -1 0 0 0 0];

internalField   nonuniform List<scalar> 
360
(
1.44043e+07
1.0315e+07
1.28773e+07
1.3314e+07
1.2847e+07
1.28194e+07
1.30857e+07
1.33932e+07
1.36833e+07
1.39582e+07
1.42243e+07
1.4486e+07
1.47395e+07
1.4978e+07
1.51933e+07
1.53787e+07
1.55314e+07
1.56505e+07
1.5734e+07
1.57805e+07
1.57926e+07
1.57683e+07
1.571e+07
1.56206e+07
1.55027e+07
1.53601e+07
1.51955e+07
1.50101e+07
1.4809e+07
1.45961e+07
1.43722e+07
1.414e+07
1.39039e+07
1.36614e+07
1.34189e+07
1.31766e+07
1.29356e+07
1.26946e+07
1.24566e+07
1.2225e+07
1.19942e+07
1.17695e+07
1.15517e+07
1.13359e+07
1.11261e+07
1.09213e+07
1.07229e+07
1.05331e+07
1.03452e+07
1.01604e+07
9.98434e+06
9.81273e+06
9.64566e+06
9.48342e+06
9.32672e+06
9.17287e+06
9.02524e+06
8.88105e+06
8.74286e+06
8.60971e+06
8.47743e+06
8.34972e+06
8.22449e+06
8.10352e+06
7.98671e+06
7.8737e+06
7.76308e+06
7.65587e+06
7.55368e+06
7.45499e+06
7.35582e+06
7.25921e+06
7.16779e+06
7.07705e+06
6.98773e+06
6.90058e+06
6.81796e+06
6.73839e+06
6.66063e+06
6.58514e+06
6.51226e+06
6.44057e+06
6.36977e+06
6.30021e+06
6.23197e+06
6.16532e+06
6.10049e+06
6.03806e+06
5.97791e+06
5.91953e+06
5.86267e+06
5.8069e+06
5.75166e+06
5.69677e+06
5.64229e+06
5.58832e+06
5.53502e+06
5.4825e+06
5.43069e+06
5.37933e+06
5.32802e+06
5.27625e+06
5.22338e+06
5.16876e+06
5.11169e+06
5.05147e+06
4.98735e+06
4.91866e+06
4.8448e+06
4.76544e+06
4.68052e+06
4.59044e+06
4.49606e+06
4.39876e+06
4.30036e+06
4.20298e+06
4.10884e+06
4.01993e+06
3.93763e+06
3.86227e+06
3.79266e+06
3.72559e+06
3.65536e+06
3.57356e+06
3.46928e+06
3.33035e+06
3.14598e+06
2.91097e+06
2.63015e+06
2.32031e+06
2.007e+06
1.71719e+06
1.47299e+06
1.29175e+06
1.19306e+06
1.21118e+06
1.42472e+06
2.05903e+06
3.9229e+06
1.08536e+07
4.48316e+07
7.9938e+07
8712.36
4526.05
3316.85
1890.53
870.535
218.489
0.197923
0.0118024
0.00316224
0.00291457
0.00294795
0.00304677
0.00316461
0.00328625
0.00340636
0.00352283
0.00363474
0.00374172
0.0038437
0.0039407
0.00403285
0.0041203
0.0042032
0.00428173
0.00435603
0.00442627
0.00449259
0.00455513
0.00461405
0.00466945
0.00472146
0.00477021
0.0048158
0.00485834
0.00489792
0.00493464
0.00496859
0.00499985
0.0050285
0.0050546
0.00507824
0.00509946
0.00511834
0.00513493
0.00514929
0.00516146
0.00517149
0.00517943
0.00518533
0.00518923
0.00519117
0.00519118
0.00518932
0.00518562
0.00518012
0.00517287
0.00516389
0.00515323
0.00514094
0.00512692
0.00511097
0.00509305
0.00507308
0.005051
0.00502672
0.00500019
0.0049713
0.00493999
0.00490615
0.00486968
0.00483046
0.00478837
0.00474327
0.004695
0.00464337
0.00458818
0.00452919
0.00446613
0.00439868
0.00432649
0.00424911
0.00416603
0.00407661
0.00398009
0.00387551
0.00376162
0.00363683
0.00349902
0.0033452
0.0031711
0.00297011
0.00273108
0.00243262
0.00202204
0
0
0
0
0
0
0
0
0
0
0
0
0
0
0
0
0
0
0
0
0
0
0
0
0
0
0
0
0
0
0
0
0
0
0
0
0
0
0
0
0
0
0
0
0
0
0
0
0
0
0
0
0
0
0
0
0
0
0
0
0
0
0
0
0
0
0
0
0
0
0
0
0
0
0
0
0
0
0
0
0
0
0
0
0
0
0
0
0
0
0
0
0
0
0
0
0
0
0
0
0
0
0
0
0
0
0
0
0
0
0
0
0
0
0
0
0
0
0
0
0
0
0
0
)
;

boundaryField
{
    inandouthalf11
    {
        type            cyclic;
    }
    inandouthalf12
    {
        type            cyclic;
    }
    inandouthalf21
    {
        type            cyclic;
    }
    inandouthalf22
    {
        type            cyclic;
    }
    inandouthalf31
    {
        type            cyclic;
    }
    inandouthalf32
    {
        type            cyclic;
    }
    inandouthalf41
    {
        type            cyclic;
    }
    inandouthalf42
    {
        type            cyclic;
    }
    top
    {
        type            symmetryPlane;
    }
    walls
    {
        type            calculated;
        value           uniform 1e+30;
    }
    frontAndBackPlanes
    {
        type            empty;
    }
}


// ************************************************************************* //
