/*--------------------------------*- C++ -*----------------------------------*\
| =========                 |                                                 |
| \\      /  F ield         | OpenFOAM: The Open Source CFD Toolbox           |
|  \\    /   O peration     | Version:  2.4.x                                 |
|   \\  /    A nd           | Web:      www.OpenFOAM.org                      |
|    \\/     M anipulation  |                                                 |
\*---------------------------------------------------------------------------*/
FoamFile
{
    version     2.0;
    format      ascii;
    class       volScalarField;
    location    "10.65";
    object      nutb;
}
// * * * * * * * * * * * * * * * * * * * * * * * * * * * * * * * * * * * * * //

dimensions      [0 2 -1 0 0 0 0];

internalField   nonuniform List<scalar> 
360
(
9e-22
9e-22
9e-22
9e-22
9e-22
9e-22
9e-22
9e-22
9e-22
9e-22
9e-22
9e-22
9e-22
9e-22
9e-22
9e-22
9e-22
9e-22
9e-22
9e-22
9e-22
9e-22
9e-22
9e-22
9e-22
9e-22
9e-22
9e-22
9e-22
9e-22
9e-22
9e-22
9e-22
9e-22
9e-22
9e-22
9e-22
9e-22
9e-22
9e-22
9e-22
9e-22
9e-22
9e-22
9e-22
9e-22
9e-22
9e-22
9e-22
9e-22
9e-22
9e-22
9e-22
9e-22
9e-22
9e-22
9e-22
9e-22
9e-22
9e-22
9e-22
9e-22
9e-22
9e-22
9e-22
9e-22
9e-22
9e-22
9e-22
9e-22
9e-22
9e-22
9e-22
9e-22
9e-22
9e-22
9e-22
9e-22
9e-22
9e-22
9e-22
9e-22
9e-22
9e-22
9e-22
9e-22
9e-22
9e-22
9e-22
9e-22
9e-22
9e-22
9e-22
9e-22
9e-22
9e-22
9e-22
9e-22
9e-22
9e-22
9e-22
9e-22
9e-22
9e-22
9e-22
9e-22
9e-22
9e-22
9e-22
9e-22
9e-22
9e-22
9e-22
9e-22
9e-22
9e-22
9e-22
9e-22
9e-22
9e-22
9e-22
9e-22
9e-22
9e-22
9e-22
9e-22
9e-22
1.7485e-21
4.32556e-21
1.03892e-20
2.4042e-20
5.34748e-20
1.14008e-19
2.32704e-19
4.55548e-19
8.60871e-19
1.60451e-18
3.12581e-18
6.89203e-18
1.74186e-17
4.75179e-17
1.43286e-16
6.99351e-16
4.06096e-15
3.35535e-14
4.50108e-13
8.50031e-12
2.13279e-10
6.91824e-09
2.82037e-07
3.61718e-06
9.74816e-06
1.89563e-05
3.23198e-05
4.78666e-05
6.37075e-05
7.88741e-05
9.30214e-05
0.000106099
0.000118176
0.000129361
0.000139768
0.0001495
0.000158643
0.000167271
0.000175444
0.00018321
0.000190607
0.000197669
0.00020442
0.000210882
0.000217073
0.000223007
0.000228695
0.000234149
0.000239378
0.000244388
0.000249186
0.000253779
0.00025817
0.000262367
0.000266371
0.000270187
0.00027382
0.000277271
0.000280545
0.000283644
0.000286571
0.000289329
0.000291919
0.000294346
0.000296611
0.000298716
0.000300665
0.000302458
0.000304098
0.000305588
0.00030693
0.000308125
0.000309176
0.000310084
0.000310861
0.000311508
0.000312018
0.000312386
0.000312604
0.000312665
0.000312562
0.000312287
0.000311832
0.000311189
0.00031035
0.000309306
0.000308051
0.000306575
0.00030487
0.000302929
0.000300744
0.000298308
0.000295614
0.000292655
0.000289426
0.000285922
0.000282138
0.000278072
0.000273721
0.000269086
0.00026417
0.000258977
0.000253516
0.0002478
0.000241843
0.000235669
0.000229306
0.000222788
0.000216158
0.00020947
0.000202786
0.00019618
0.000189735
0.000183544
0.000177704
0.000172313
0.000167461
0.000163218
0.000159625
0.000156678
0.000154327
0.000152471
0.00015097
0.000149657
0.000148363
0.000146932
0.000145236
0.000143177
0.000140692
0.000137745
0.000134316
0.0001304
0.000125994
0.000121099
0.000115714
0.000109832
0.000103449
9.65539e-05
8.91369e-05
8.11866e-05
7.26923e-05
6.36442e-05
5.40342e-05
4.38563e-05
3.31098e-05
2.17976e-05
9.5779e-06
1.20998e-06
2.50628e-08
2.78639e-10
2.884e-12
2.8218e-14
2.61173e-16
2.22603e-18
6.50288e-21
9e-22
9e-22
9e-22
9e-22
9e-22
9e-22
9e-22
9e-22
9e-22
9e-22
9e-22
9e-22
9e-22
9e-22
9e-22
9e-22
9e-22
9e-22
9e-22
9e-22
9e-22
9e-22
9e-22
9e-22
9e-22
9e-22
9e-22
9e-22
9e-22
9e-22
9e-22
9e-22
9e-22
9e-22
9e-22
9e-22
9e-22
9e-22
9e-22
9e-22
9e-22
9e-22
9e-22
9e-22
9e-22
9e-22
9e-22
9e-22
9e-22
9e-22
9e-22
9e-22
9e-22
9e-22
9e-22
9e-22
9e-22
9e-22
9e-22
9e-22
9e-22
9e-22
9e-22
9e-22
9e-22
9e-22
9e-22
9e-22
9e-22
9e-22
9e-22
9e-22
9e-22
9e-22
9e-22
9e-22
9e-22
9e-22
)
;

boundaryField
{
    inandouthalf11
    {
        type            cyclic;
    }
    inandouthalf12
    {
        type            cyclic;
    }
    inandouthalf21
    {
        type            cyclic;
    }
    inandouthalf22
    {
        type            cyclic;
    }
    inandouthalf31
    {
        type            cyclic;
    }
    inandouthalf32
    {
        type            cyclic;
    }
    inandouthalf41
    {
        type            cyclic;
    }
    inandouthalf42
    {
        type            cyclic;
    }
    top
    {
        type            symmetryPlane;
    }
    walls
    {
        type            calculated;
        value           uniform 0;
    }
    frontAndBackPlanes
    {
        type            empty;
    }
}


// ************************************************************************* //
