/*--------------------------------*- C++ -*----------------------------------*\
| =========                 |                                                 |
| \\      /  F ield         | OpenFOAM: The Open Source CFD Toolbox           |
|  \\    /   O peration     | Version:  2.4.x                                 |
|   \\  /    A nd           | Web:      www.OpenFOAM.org                      |
|    \\/     M anipulation  |                                                 |
\*---------------------------------------------------------------------------*/
FoamFile
{
    version     2.0;
    format      ascii;
    class       volScalarField;
    location    "10.65";
    object      p;
}
// * * * * * * * * * * * * * * * * * * * * * * * * * * * * * * * * * * * * * //

dimensions      [1 -1 -2 0 0 0 0];

internalField   nonuniform List<scalar> 
360
(
4886.04
4881.13
4876.23
4871.32
4866.42
4861.51
4856.61
4851.7
4846.79
4841.89
4836.98
4832.08
4827.17
4822.27
4817.36
4812.46
4807.55
4802.64
4797.74
4792.83
4787.93
4783.02
4778.12
4773.21
4768.3
4763.4
4758.49
4753.58
4748.68
4743.77
4738.87
4733.96
4729.05
4724.15
4719.24
4714.33
4709.43
4704.52
4699.61
4694.71
4689.8
4684.9
4679.99
4675.08
4670.17
4665.27
4660.36
4655.45
4650.55
4645.64
4640.73
4635.83
4630.92
4626.01
4621.1
4616.2
4611.29
4606.38
4601.48
4596.57
4591.66
4586.75
4581.85
4576.94
4572.03
4567.12
4562.21
4557.31
4552.4
4547.49
4542.58
4537.67
4532.77
4527.86
4522.95
4518.04
4513.13
4508.23
4503.32
4498.41
4493.5
4488.59
4483.68
4478.78
4473.87
4468.96
4464.05
4459.14
4454.23
4449.32
4444.41
4439.51
4434.6
4429.69
4424.78
4419.87
4414.96
4410.05
4405.14
4400.23
4395.32
4390.41
4385.5
4380.6
4375.69
4370.78
4365.87
4360.96
4356.05
4351.14
4346.23
4341.32
4336.41
4331.5
4326.59
4321.68
4316.77
4311.86
4306.95
4302.04
4297.13
4292.22
4287.31
4282.4
4277.49
4272.58
4267.67
4262.76
4257.85
4252.94
4248.03
4243.12
4238.21
4233.3
4228.39
4223.48
4218.57
4213.66
4208.75
4203.84
4198.93
4194.02
4189.1
4184.19
4179.28
4174.36
4169.43
4164.5
4159.55
4154.46
4148.01
4142.3
4137.1
4131.9
4126.74
4121.61
4116.48
4111.37
4106.27
4101.18
4096.1
4091.03
4085.96
4080.89
4075.84
4070.79
4065.74
4060.7
4055.67
4050.65
4045.63
4040.61
4035.6
4030.6
4025.6
4020.61
4015.63
4010.65
4005.67
4000.7
3995.73
3990.77
3985.82
3980.87
3975.92
3970.98
3966.04
3961.11
3956.18
3951.25
3946.33
3941.41
3936.5
3931.59
3926.68
3921.78
3916.88
3911.98
3907.08
3902.19
3897.3
3892.37
3887.33
3882.2
3876.96
3871.63
3866.18
3860.63
3854.97
3849.2
3843.31
3837.3
3831.18
3824.93
3818.56
3812.07
3805.44
3798.68
3791.79
3784.76
3777.59
3770.27
3762.81
3755.2
3747.44
3739.52
3731.44
3723.2
3714.79
3706.21
3697.46
3688.53
3679.42
3670.12
3660.63
3650.95
3641.06
3630.97
3620.67
3610.16
3599.43
3588.47
3577.27
3565.85
3554.18
3542.26
3530.09
3517.66
3504.98
3492.03
3478.8
3465.31
3451.53
3437.47
3423.12
3408.48
3393.54
3378.29
3362.74
3346.87
3330.67
3314.15
3297.29
3280.09
3262.54
3244.64
3226.37
3207.73
3188.71
3169.31
3149.51
3129.31
3108.69
3087.65
3066.18
3044.26
3021.9
2999.08
2975.8
2952.05
2927.81
2903.09
2877.86
2852.12
2825.86
2799.06
2771.72
2743.82
2715.36
2686.32
2656.7
2626.47
2595.62
2564.15
2532.05
2499.29
2465.86
2431.76
2396.96
2361.46
2325.24
2288.28
2250.57
2212.1
2172.85
2132.8
2091.93
2050.24
2007.7
1964.3
1922.76
1883.52
1844.28
1805.04
1765.8
1726.56
1687.32
1648.08
1608.84
1569.6
1530.36
1491.12
1451.88
1412.64
1373.4
1334.16
1294.92
1255.68
1216.44
1177.2
1137.96
1098.72
1059.48
1020.24
981
941.76
902.52
863.28
824.04
784.8
745.56
706.32
667.08
627.84
588.6
549.36
510.12
470.88
431.64
392.4
353.16
313.92
274.68
235.44
196.2
156.96
117.72
78.48
39.24
1.52399e-07
)
;

boundaryField
{
    inandouthalf11
    {
        type            cyclic;
    }
    inandouthalf12
    {
        type            cyclic;
    }
    inandouthalf21
    {
        type            cyclic;
    }
    inandouthalf22
    {
        type            cyclic;
    }
    inandouthalf31
    {
        type            cyclic;
    }
    inandouthalf32
    {
        type            cyclic;
    }
    inandouthalf41
    {
        type            cyclic;
    }
    inandouthalf42
    {
        type            cyclic;
    }
    top
    {
        type            symmetryPlane;
    }
    walls
    {
        type            slip;
    }
    frontAndBackPlanes
    {
        type            empty;
    }
}


// ************************************************************************* //
