/*--------------------------------*- C++ -*----------------------------------*\
| =========                 |                                                 |
| \\      /  F ield         | OpenFOAM: The Open Source CFD Toolbox           |
|  \\    /   O peration     | Version:  2.4.x                                 |
|   \\  /    A nd           | Web:      www.OpenFOAM.org                      |
|    \\/     M anipulation  |                                                 |
\*---------------------------------------------------------------------------*/
FoamFile
{
    version     2.0;
    format      ascii;
    class       surfaceScalarField;
    location    "10.65";
    object      phib;
}
// * * * * * * * * * * * * * * * * * * * * * * * * * * * * * * * * * * * * * //

dimensions      [0 3 -1 0 0 0 0];

internalField   nonuniform List<scalar> 
359
(
3.97785e-14
9.93112e-14
1.53586e-13
2.04631e-13
2.55873e-13
3.0685e-13
3.56644e-13
4.05024e-13
4.52057e-13
4.97862e-13
5.42519e-13
5.86078e-13
6.28605e-13
6.70176e-13
7.1088e-13
7.50818e-13
7.9009e-13
8.28791e-13
8.67014e-13
9.04856e-13
9.42394e-13
9.79719e-13
1.01691e-12
1.05403e-12
1.09116e-12
1.12835e-12
1.16565e-12
1.20313e-12
1.24082e-12
1.27876e-12
1.31698e-12
1.35552e-12
1.3944e-12
1.43365e-12
1.47327e-12
1.51329e-12
1.55371e-12
1.59455e-12
1.63582e-12
1.67749e-12
1.7196e-12
1.76213e-12
1.80507e-12
1.84844e-12
1.89222e-12
1.9364e-12
1.98099e-12
2.02595e-12
2.07128e-12
2.117e-12
2.16306e-12
2.20947e-12
2.25621e-12
2.30327e-12
2.35062e-12
2.39827e-12
2.44619e-12
2.49437e-12
2.5428e-12
2.59142e-12
2.64028e-12
2.68931e-12
2.73854e-12
2.78793e-12
2.83746e-12
2.88711e-12
2.93686e-12
2.98671e-12
3.03662e-12
3.08656e-12
3.13653e-12
3.18653e-12
3.23651e-12
3.28648e-12
3.3364e-12
3.38627e-12
3.43606e-12
3.48574e-12
3.53529e-12
3.58469e-12
3.63392e-12
3.68296e-12
3.7318e-12
3.78043e-12
3.82883e-12
3.87698e-12
3.92486e-12
3.97245e-12
4.01971e-12
4.06664e-12
4.11321e-12
4.1594e-12
4.20521e-12
4.25061e-12
4.2956e-12
4.34016e-12
4.38429e-12
4.42796e-12
4.47116e-12
4.51388e-12
4.55611e-12
4.59783e-12
4.63906e-12
4.67979e-12
4.72002e-12
4.75979e-12
4.7991e-12
4.83799e-12
4.87647e-12
4.9146e-12
4.95241e-12
4.98992e-12
5.02717e-12
5.06417e-12
5.10092e-12
5.13741e-12
5.1736e-12
5.20942e-12
5.2448e-12
5.27965e-12
5.31389e-12
5.34749e-12
5.38046e-12
5.41287e-12
5.44494e-12
5.47703e-12
5.50964e-12
5.54351e-12
5.57956e-12
5.61887e-12
5.6626e-12
5.7117e-12
5.76651e-12
5.82599e-12
5.8868e-12
5.94265e-12
5.9858e-12
6.01101e-12
6.019e-12
6.01577e-12
6.00755e-12
5.96622e-12
8.52462e-12
1.25567e-11
1.72828e-11
2.3602e-11
3.34884e-11
4.68805e-11
5.83215e-11
-4.76175e-10
4.15063e-11
3.64253e-10
4.58579e-10
4.69257e-10
4.57483e-10
4.35254e-10
4.10348e-10
3.85369e-10
3.61281e-10
3.38435e-10
3.1692e-10
2.96716e-10
2.77761e-10
2.59978e-10
2.43289e-10
2.27618e-10
2.12897e-10
1.99062e-10
1.86055e-10
1.73823e-10
1.62318e-10
1.51497e-10
1.41318e-10
1.31744e-10
1.22742e-10
1.14279e-10
1.06325e-10
9.88521e-11
9.18341e-11
8.52461e-11
7.90651e-11
7.32688e-11
6.78367e-11
6.27488e-11
5.79866e-11
5.35324e-11
4.93692e-11
4.54811e-11
4.18529e-11
3.84703e-11
3.53195e-11
3.23876e-11
2.96622e-11
2.71317e-11
2.4785e-11
2.26117e-11
2.06019e-11
1.87463e-11
1.7036e-11
1.54626e-11
1.4018e-11
1.26687e-11
1.14136e-11
1.02507e-11
9.17754e-12
8.19094e-12
7.28695e-12
6.46099e-12
5.70795e-12
5.02243e-12
4.39901e-12
3.83256e-12
3.31855e-12
2.85317e-12
2.43342e-12
2.057e-12
1.72215e-12
1.42738e-12
1.17119e-12
9.51778e-13
7.66778e-13
6.13193e-13
4.87487e-13
3.85829e-13
3.04374e-13
2.3958e-13
1.8818e-13
1.47708e-13
1.1563e-13
9.07052e-14
7.08256e-14
5.58454e-14
4.36252e-14
3.49322e-14
2.78417e-14
2.42241e-14
9.43335e-15
-7.29564e-16
-5.44591e-15
-7.24649e-15
-7.12678e-15
-6.08988e-15
-4.73283e-15
-3.40799e-15
-2.30719e-15
-1.45935e-15
-8.77395e-16
-4.98526e-16
-2.4771e-16
-1.37556e-16
3.09698e-17
-9.22628e-18
-1.25261e-17
-1.20953e-17
-1.15897e-17
-1.11192e-17
-1.05904e-17
-1.00934e-17
-9.54386e-18
-9.02467e-18
-8.47637e-18
-7.96709e-18
-7.45156e-18
-7.00196e-18
-6.59876e-18
-6.26158e-18
-5.94372e-18
-5.66092e-18
-5.40147e-18
-5.1584e-18
-4.91874e-18
-4.69197e-18
-4.5001e-18
-4.31556e-18
-4.13301e-18
-3.94074e-18
-3.761e-18
-3.56987e-18
-3.37876e-18
-3.18393e-18
-3.02753e-18
-2.86964e-18
-2.71436e-18
-2.54649e-18
-2.38849e-18
-2.21716e-18
-1.98773e-18
-1.80183e-18
-1.63177e-18
-1.4528e-18
-1.272e-18
-1.08106e-18
-8.99053e-19
-7.10776e-19
-5.31186e-19
-3.63503e-19
-3.64846e-19
-2.99339e-19
-2.45942e-19
-1.63447e-19
-1.20265e-19
-8.15335e-20
-4.32723e-20
-1.10528e-20
2.75087e-20
5.63269e-20
8.5413e-20
1.01292e-19
1.28105e-19
1.38912e-19
1.49289e-19
1.50408e-19
1.73141e-19
1.86532e-19
2.00009e-19
2.01353e-19
2.12166e-19
2.11406e-19
2.10741e-19
2.00207e-19
2.07352e-19
2.05803e-19
2.0553e-19
1.96771e-19
1.99534e-19
1.96211e-19
2.01607e-19
2.11121e-19
3.18111e-19
4.24565e-19
5.39196e-19
6.36806e-19
7.55462e-19
8.49597e-19
9.44976e-19
1.01642e-18
1.13026e-18
1.21817e-18
1.30662e-18
1.36571e-18
1.44836e-18
1.50572e-18
1.56807e-18
1.61562e-18
1.74322e-18
1.86296e-18
1.98943e-18
2.10518e-18
2.24215e-18
2.3563e-18
2.48712e-18
2.69225e-18
2.84075e-18
2.98486e-18
3.14536e-18
3.43001e-18
3.2381e-18
3.90127e-18
5.50927e-18
)
;

boundaryField
{
    inandouthalf11
    {
        type            cyclic;
        value           nonuniform List<scalar> 
100
(
2.59563e-10
2.58122e-10
2.57929e-10
2.58126e-10
2.5822e-10
2.58252e-10
2.58291e-10
2.58341e-10
2.58392e-10
2.58444e-10
2.58496e-10
2.58547e-10
2.586e-10
2.58652e-10
2.58705e-10
2.58759e-10
2.58813e-10
2.58867e-10
2.58922e-10
2.58978e-10
2.59034e-10
2.5909e-10
2.59148e-10
2.59205e-10
2.59264e-10
2.59323e-10
2.59382e-10
2.59443e-10
2.59504e-10
2.59565e-10
2.59627e-10
2.5969e-10
2.59753e-10
2.59818e-10
2.59883e-10
2.59949e-10
2.60015e-10
2.60082e-10
2.60151e-10
2.60219e-10
2.60289e-10
2.60359e-10
2.6043e-10
2.60502e-10
2.60574e-10
2.60648e-10
2.60723e-10
2.60798e-10
2.60874e-10
2.60952e-10
2.61029e-10
2.61109e-10
2.61188e-10
2.6127e-10
2.61351e-10
2.61435e-10
2.61518e-10
2.61604e-10
2.6169e-10
2.61776e-10
2.61865e-10
2.61954e-10
2.62046e-10
2.62137e-10
2.6223e-10
2.62325e-10
2.6242e-10
2.62517e-10
2.62616e-10
2.62715e-10
2.62816e-10
2.62919e-10
2.63022e-10
2.63128e-10
2.63235e-10
2.63344e-10
2.63454e-10
2.63566e-10
2.6368e-10
2.63795e-10
2.63912e-10
2.64031e-10
2.64152e-10
2.64275e-10
2.64401e-10
2.64528e-10
2.64657e-10
2.64789e-10
2.64923e-10
2.65059e-10
2.65198e-10
2.65339e-10
2.65483e-10
2.65629e-10
2.65779e-10
2.65931e-10
2.66087e-10
2.66246e-10
2.66407e-10
2.66573e-10
)
;
    }
    inandouthalf12
    {
        type            cyclic;
        value           nonuniform List<scalar> 
100
(
-2.59563e-10
-2.58122e-10
-2.57929e-10
-2.58126e-10
-2.5822e-10
-2.58252e-10
-2.58291e-10
-2.58341e-10
-2.58392e-10
-2.58444e-10
-2.58496e-10
-2.58547e-10
-2.586e-10
-2.58652e-10
-2.58705e-10
-2.58759e-10
-2.58813e-10
-2.58867e-10
-2.58922e-10
-2.58978e-10
-2.59034e-10
-2.5909e-10
-2.59148e-10
-2.59205e-10
-2.59264e-10
-2.59323e-10
-2.59382e-10
-2.59443e-10
-2.59504e-10
-2.59565e-10
-2.59627e-10
-2.5969e-10
-2.59753e-10
-2.59818e-10
-2.59883e-10
-2.59949e-10
-2.60015e-10
-2.60082e-10
-2.60151e-10
-2.60219e-10
-2.60289e-10
-2.60359e-10
-2.6043e-10
-2.60502e-10
-2.60574e-10
-2.60648e-10
-2.60723e-10
-2.60798e-10
-2.60874e-10
-2.60952e-10
-2.61029e-10
-2.61109e-10
-2.61188e-10
-2.6127e-10
-2.61351e-10
-2.61435e-10
-2.61518e-10
-2.61604e-10
-2.6169e-10
-2.61776e-10
-2.61865e-10
-2.61954e-10
-2.62046e-10
-2.62137e-10
-2.6223e-10
-2.62325e-10
-2.6242e-10
-2.62517e-10
-2.62616e-10
-2.62715e-10
-2.62816e-10
-2.62919e-10
-2.63022e-10
-2.63128e-10
-2.63235e-10
-2.63344e-10
-2.63454e-10
-2.63566e-10
-2.6368e-10
-2.63795e-10
-2.63912e-10
-2.64031e-10
-2.64152e-10
-2.64275e-10
-2.64401e-10
-2.64528e-10
-2.64657e-10
-2.64789e-10
-2.64923e-10
-2.65059e-10
-2.65198e-10
-2.65339e-10
-2.65483e-10
-2.65629e-10
-2.65779e-10
-2.65931e-10
-2.66087e-10
-2.66246e-10
-2.66407e-10
-2.66573e-10
)
;
    }
    inandouthalf21
    {
        type            cyclic;
        value           nonuniform List<scalar> 
100
(
2.66741e-10
2.66914e-10
2.6709e-10
2.6727e-10
2.67454e-10
2.67643e-10
2.67836e-10
2.68034e-10
2.68236e-10
2.68443e-10
2.68656e-10
2.68874e-10
2.69098e-10
2.69328e-10
2.69564e-10
2.69807e-10
2.70056e-10
2.70313e-10
2.70578e-10
2.7085e-10
2.71131e-10
2.71421e-10
2.7172e-10
2.7203e-10
2.7235e-10
2.72682e-10
2.73026e-10
2.73383e-10
2.73755e-10
2.74142e-10
2.74545e-10
2.74965e-10
2.75404e-10
2.75867e-10
2.76359e-10
2.76882e-10
2.77434e-10
2.78024e-10
2.78681e-10
2.79433e-10
2.80248e-10
2.81203e-10
2.88059e-10
2.87619e-10
2.89651e-10
2.92811e-10
2.96687e-10
3.02793e-10
3.43032e-10
1.53445e-08
1.34155e-07
1.98212e-07
2.24635e-07
2.36295e-07
2.41702e-07
2.44165e-07
2.45027e-07
2.44897e-07
2.44087e-07
2.42775e-07
2.41073e-07
2.39056e-07
2.3678e-07
2.34284e-07
2.31603e-07
2.28761e-07
2.25781e-07
2.22681e-07
2.19477e-07
2.16182e-07
2.12809e-07
2.09368e-07
2.05868e-07
2.02318e-07
1.98724e-07
1.95093e-07
1.91432e-07
1.87744e-07
1.84036e-07
1.80312e-07
1.76575e-07
1.72828e-07
1.69076e-07
1.65321e-07
1.61565e-07
1.57812e-07
1.54063e-07
1.5032e-07
1.46586e-07
1.42862e-07
1.3915e-07
1.35451e-07
1.31767e-07
1.28098e-07
1.24447e-07
1.20813e-07
1.17199e-07
1.13605e-07
1.10032e-07
1.06481e-07
)
;
    }
    inandouthalf22
    {
        type            cyclic;
        value           nonuniform List<scalar> 
100
(
-2.66741e-10
-2.66914e-10
-2.6709e-10
-2.6727e-10
-2.67454e-10
-2.67643e-10
-2.67836e-10
-2.68034e-10
-2.68236e-10
-2.68443e-10
-2.68656e-10
-2.68874e-10
-2.69098e-10
-2.69328e-10
-2.69564e-10
-2.69807e-10
-2.70056e-10
-2.70313e-10
-2.70578e-10
-2.7085e-10
-2.71131e-10
-2.71421e-10
-2.7172e-10
-2.7203e-10
-2.7235e-10
-2.72682e-10
-2.73026e-10
-2.73383e-10
-2.73755e-10
-2.74142e-10
-2.74545e-10
-2.74965e-10
-2.75404e-10
-2.75867e-10
-2.76359e-10
-2.76882e-10
-2.77434e-10
-2.78024e-10
-2.78681e-10
-2.79433e-10
-2.80248e-10
-2.81203e-10
-2.88059e-10
-2.87619e-10
-2.89651e-10
-2.92811e-10
-2.96687e-10
-3.02793e-10
-3.43032e-10
-1.53445e-08
-1.34155e-07
-1.98212e-07
-2.24635e-07
-2.36295e-07
-2.41702e-07
-2.44165e-07
-2.45027e-07
-2.44897e-07
-2.44087e-07
-2.42775e-07
-2.41073e-07
-2.39056e-07
-2.3678e-07
-2.34284e-07
-2.31603e-07
-2.28761e-07
-2.25781e-07
-2.22681e-07
-2.19477e-07
-2.16182e-07
-2.12809e-07
-2.09368e-07
-2.05868e-07
-2.02318e-07
-1.98724e-07
-1.95093e-07
-1.91432e-07
-1.87744e-07
-1.84036e-07
-1.80312e-07
-1.76575e-07
-1.72828e-07
-1.69076e-07
-1.65321e-07
-1.61565e-07
-1.57812e-07
-1.54063e-07
-1.5032e-07
-1.46586e-07
-1.42862e-07
-1.3915e-07
-1.35451e-07
-1.31767e-07
-1.28098e-07
-1.24447e-07
-1.20813e-07
-1.17199e-07
-1.13605e-07
-1.10032e-07
-1.06481e-07
)
;
    }
    inandouthalf31
    {
        type            cyclic;
        value           nonuniform List<scalar> 
110
(
1.02952e-07
1.01429e-07
9.9752e-08
9.79151e-08
9.59117e-08
9.37348e-08
9.13779e-08
8.88339e-08
8.60959e-08
8.31568e-08
8.00098e-08
7.66477e-08
7.30636e-08
6.92507e-08
6.52022e-08
6.09117e-08
5.63727e-08
5.15794e-08
4.65261e-08
4.12078e-08
3.56201e-08
2.97592e-08
2.36223e-08
1.72076e-08
1.05145e-08
3.54411e-09
-3.70103e-09
-1.12162e-08
-1.89945e-08
-2.7026e-08
-3.5298e-08
-4.3794e-08
-5.24934e-08
-6.13709e-08
-7.0396e-08
-7.95325e-08
-8.8738e-08
-9.79635e-08
-1.07152e-07
-1.16241e-07
-1.25164e-07
-1.33848e-07
-1.42223e-07
-1.50218e-07
-1.57769e-07
-1.64824e-07
-1.71343e-07
-1.77305e-07
-1.82704e-07
-1.8755e-07
-1.91861e-07
-1.95666e-07
-1.98994e-07
-2.01876e-07
-2.0434e-07
-2.06415e-07
-2.08124e-07
-2.09492e-07
-2.10543e-07
-2.113e-07
-2.11788e-07
-2.12034e-07
-2.12067e-07
-2.1192e-07
-2.11629e-07
-2.11237e-07
-2.10792e-07
-2.1035e-07
-2.09976e-07
-2.09746e-07
-2.09753e-07
-2.10113e-07
-2.10977e-07
-2.1255e-07
-2.15633e-07
-2.19879e-07
-2.24339e-07
-2.28893e-07
-2.33539e-07
-2.38279e-07
-2.43115e-07
-2.4805e-07
-2.53085e-07
-2.58222e-07
-2.63463e-07
-2.68811e-07
-2.74267e-07
-2.79834e-07
-2.85514e-07
-2.91309e-07
-2.97221e-07
-3.03254e-07
-3.0941e-07
-3.1569e-07
-3.22097e-07
-3.28635e-07
-3.35306e-07
-3.42111e-07
-3.49055e-07
-3.5614e-07
-3.63369e-07
-3.70744e-07
-3.78269e-07
-3.85947e-07
-3.93781e-07
-4.01774e-07
-4.09929e-07
-4.18249e-07
-4.26738e-07
-4.354e-07
)
;
    }
    inandouthalf32
    {
        type            cyclic;
        value           nonuniform List<scalar> 
110
(
-1.02952e-07
-1.01429e-07
-9.9752e-08
-9.79151e-08
-9.59117e-08
-9.37348e-08
-9.13779e-08
-8.88339e-08
-8.60959e-08
-8.31568e-08
-8.00098e-08
-7.66477e-08
-7.30636e-08
-6.92507e-08
-6.52022e-08
-6.09117e-08
-5.63727e-08
-5.15794e-08
-4.65261e-08
-4.12078e-08
-3.56201e-08
-2.97592e-08
-2.36223e-08
-1.72076e-08
-1.05145e-08
-3.54411e-09
3.70103e-09
1.12162e-08
1.89945e-08
2.7026e-08
3.5298e-08
4.3794e-08
5.24934e-08
6.13709e-08
7.0396e-08
7.95325e-08
8.8738e-08
9.79635e-08
1.07152e-07
1.16241e-07
1.25164e-07
1.33848e-07
1.42223e-07
1.50218e-07
1.57769e-07
1.64824e-07
1.71343e-07
1.77305e-07
1.82704e-07
1.8755e-07
1.91861e-07
1.95666e-07
1.98994e-07
2.01876e-07
2.0434e-07
2.06415e-07
2.08124e-07
2.09492e-07
2.10543e-07
2.113e-07
2.11788e-07
2.12034e-07
2.12067e-07
2.1192e-07
2.11629e-07
2.11237e-07
2.10792e-07
2.1035e-07
2.09976e-07
2.09746e-07
2.09753e-07
2.10113e-07
2.10977e-07
2.1255e-07
2.15633e-07
2.19879e-07
2.24339e-07
2.28893e-07
2.33539e-07
2.38279e-07
2.43115e-07
2.4805e-07
2.53085e-07
2.58222e-07
2.63463e-07
2.68811e-07
2.74267e-07
2.79834e-07
2.85514e-07
2.91309e-07
2.97221e-07
3.03254e-07
3.0941e-07
3.1569e-07
3.22097e-07
3.28635e-07
3.35306e-07
3.42111e-07
3.49055e-07
3.5614e-07
3.63369e-07
3.70744e-07
3.78269e-07
3.85947e-07
3.93781e-07
4.01774e-07
4.09929e-07
4.18249e-07
4.26738e-07
4.354e-07
)
;
    }
    inandouthalf41
    {
        type            cyclic;
        value           nonuniform List<scalar> 
50
(
-3.89727e-07
-3.89727e-07
-3.89727e-07
-3.89727e-07
-3.89727e-07
-3.89727e-07
-3.89727e-07
-3.89727e-07
-3.89727e-07
-3.89727e-07
-3.89727e-07
-3.89727e-07
-3.89727e-07
-3.89727e-07
-3.89727e-07
-3.89727e-07
-3.89727e-07
-3.89727e-07
-3.89727e-07
-3.89727e-07
-3.89727e-07
-3.89727e-07
-3.89727e-07
-3.89727e-07
-3.89727e-07
-3.89727e-07
-3.89727e-07
-3.89727e-07
-3.89727e-07
-3.89727e-07
-3.89727e-07
-3.89727e-07
-3.89727e-07
-3.89727e-07
-3.89727e-07
-3.89727e-07
-3.89727e-07
-3.89727e-07
-3.89727e-07
-3.89727e-07
-3.89727e-07
-3.89727e-07
-3.89727e-07
-3.89727e-07
-3.89727e-07
-3.89727e-07
-3.89727e-07
-3.89727e-07
-3.89727e-07
-3.89727e-07
)
;
    }
    inandouthalf42
    {
        type            cyclic;
        value           nonuniform List<scalar> 
50
(
3.89727e-07
3.89727e-07
3.89727e-07
3.89727e-07
3.89727e-07
3.89727e-07
3.89727e-07
3.89727e-07
3.89727e-07
3.89727e-07
3.89727e-07
3.89727e-07
3.89727e-07
3.89727e-07
3.89727e-07
3.89727e-07
3.89727e-07
3.89727e-07
3.89727e-07
3.89727e-07
3.89727e-07
3.89727e-07
3.89727e-07
3.89727e-07
3.89727e-07
3.89727e-07
3.89727e-07
3.89727e-07
3.89727e-07
3.89727e-07
3.89727e-07
3.89727e-07
3.89727e-07
3.89727e-07
3.89727e-07
3.89727e-07
3.89727e-07
3.89727e-07
3.89727e-07
3.89727e-07
3.89727e-07
3.89727e-07
3.89727e-07
3.89727e-07
3.89727e-07
3.89727e-07
3.89727e-07
3.89727e-07
3.89727e-07
3.89727e-07
)
;
    }
    top
    {
        type            symmetryPlane;
        value           uniform 0;
    }
    walls
    {
        type            fixedValue;
        value           uniform 0;
    }
    frontAndBackPlanes
    {
        type            empty;
        value           nonuniform 0();
    }
}


// ************************************************************************* //
