/*--------------------------------*- C++ -*----------------------------------*\
| =========                 |                                                 |
| \\      /  F ield         | OpenFOAM: The Open Source CFD Toolbox           |
|  \\    /   O peration     | Version:  2.4.x                                 |
|   \\  /    A nd           | Web:      www.OpenFOAM.org                      |
|    \\/     M anipulation  |                                                 |
\*---------------------------------------------------------------------------*/
FoamFile
{
    version     2.0;
    format      ascii;
    class       volVectorField;
    location    "10.65";
    object      susb;
}
// * * * * * * * * * * * * * * * * * * * * * * * * * * * * * * * * * * * * * //

dimensions      [0 1 -2 0 0 0 0];

internalField   nonuniform List<vector> 
360
(
(0 6.01714e-18 0)
(0 6.68058e-18 0)
(0 -8.5789e-22 0)
(0 -9.24571e-19 0)
(-3.70058e-31 -3.89083e-19 0)
(-3.70024e-31 -2.12362e-19 0)
(-3.69982e-31 -2.72493e-19 0)
(0 -3.11209e-19 0)
(-3.6987e-31 -3.16368e-19 0)
(0 -3.18948e-19 0)
(-3.69756e-31 -3.19915e-19 0)
(0 -3.21012e-19 0)
(-3.69641e-31 -3.23593e-19 0)
(0 -3.26307e-19 0)
(0 -3.29952e-19 0)
(0 -3.33685e-19 0)
(0 -3.36666e-19 0)
(-3.69343e-31 -3.39384e-19 0)
(0 -3.43539e-19 0)
(0 -3.46479e-19 0)
(0 -3.49563e-19 0)
(-3.69095e-31 -3.5398e-19 0)
(0 -3.57218e-19 0)
(0 -3.60985e-19 0)
(0 -3.64858e-19 0)
(-3.68836e-31 -3.68011e-19 0)
(0 -3.72307e-19 0)
(0 -3.76772e-19 0)
(0 -3.79999e-19 0)
(0 -3.83762e-19 0)
(0 -3.88991e-19 0)
(0 -3.91772e-19 0)
(0 -3.96635e-19 0)
(0 -4.01606e-19 0)
(0 -4.04796e-19 0)
(3.68139e-31 -4.09309e-19 0)
(0 -4.13624e-19 0)
(0 -4.19981e-19 0)
(0 -4.22115e-19 0)
(0 -4.273e-19 0)
(0 -4.34289e-19 0)
(0 -4.35811e-19 0)
(3.67606e-31 -4.42159e-19 0)
(0 -4.47976e-19 0)
(0 -4.51717e-19 0)
(0 -4.58673e-19 0)
(0 -4.61654e-19 0)
(0 -4.66203e-19 0)
(0 -4.7557e-19 0)
(0 -4.78927e-19 0)
(3.66942e-31 -4.83271e-19 0)
(0 -4.90537e-19 0)
(0 -4.96422e-19 0)
(0 -5.01166e-19 0)
(0 -5.08376e-19 0)
(0 -5.14328e-19 0)
(0 -5.20007e-19 0)
(0 -5.28033e-19 0)
(0 -5.31407e-19 0)
(0 -5.4035e-19 0)
(0 -5.47417e-19 0)
(0 -5.53385e-19 0)
(0 -5.61696e-19 0)
(0 -5.67985e-19 0)
(0 -5.75173e-19 0)
(0 -5.82964e-19 0)
(0 -5.91881e-19 0)
(0 -5.99259e-19 0)
(0 -6.05166e-19 0)
(0 -6.14885e-19 0)
(0 -6.26422e-19 0)
(0 -6.316e-19 0)
(0 -6.40302e-19 0)
(0 -6.51421e-19 0)
(0 -6.61045e-19 0)
(0 -6.70204e-19 0)
(0 -6.7853e-19 0)
(0 -6.89742e-19 0)
(0 -7.0077e-19 0)
(0 -7.10642e-19 0)
(0 -7.2141e-19 0)
(0 -7.33589e-19 0)
(0 -7.45166e-19 0)
(0 -7.5713e-19 0)
(0 -7.69501e-19 0)
(0 -7.82349e-19 0)
(0 -7.95378e-19 0)
(0 -8.0841e-19 0)
(0 -8.22398e-19 0)
(0 -8.36858e-19 0)
(0 -8.51529e-19 0)
(0 -8.6697e-19 0)
(0 -8.83074e-19 0)
(0 -8.99505e-19 0)
(0 -9.16472e-19 0)
(0 -9.34006e-19 0)
(0 -9.52074e-19 0)
(0 -9.70745e-19 0)
(0 -9.90141e-19 0)
(0 -1.01028e-18 0)
(0 -1.03118e-18 0)
(0 -1.05292e-18 0)
(0 -1.0755e-18 0)
(0 -1.09893e-18 0)
(0 -1.12324e-18 0)
(0 -1.1485e-18 0)
(0 -1.17473e-18 0)
(0 -1.20201e-18 0)
(0 -1.23039e-18 0)
(0 -1.25992e-18 0)
(0 -1.29067e-18 0)
(0 -1.3227e-18 0)
(0 -1.35609e-18 0)
(0 -1.39094e-18 0)
(0 -1.42736e-18 0)
(0 -1.46547e-18 0)
(0 -1.50542e-18 0)
(0 -1.54739e-18 0)
(0 -1.5916e-18 0)
(0 -1.63824e-18 0)
(0 -1.68755e-18 0)
(0 -1.73969e-18 0)
(0 -1.79481e-18 0)
(0 -1.85306e-18 0)
(0 -1.91473e-18 0)
(0 -1.98038e-18 0)
(0 -2.05095e-18 0)
(0 -4.13292e-18 0)
(0 -1.06198e-17 0)
(0 -2.65092e-17 0)
(0 -6.37559e-17 0)
(0 -1.47604e-16 0)
(0 -3.29551e-16 0)
(0 -7.10629e-16 0)
(0 -1.47451e-15 0)
(0 -2.94207e-15 0)
(0 -5.80917e-15 0)
(0 -1.23082e-14 0)
(0 -3.05446e-14 0)
(0 -8.54766e-14 0)
(0 -2.61163e-13 0)
(0 -3.43758e-12 0)
(0 -1.24672e-11 0)
(0 -3.95701e-12 0)
(0 -3.38669e-10 0)
(0 -5.66167e-09 0)
(0 -1.09406e-07 0)
(0 -4.64965e-06 0)
(0 -0.00572163 0)
(0 -0.41579 0)
(0 -0.92034 0)
(0 -0.496298 0)
(0 -0.292804 0)
(0 -0.192782 0)
(0 -0.132517 0)
(0 -0.09728 0)
(0 -0.0768106 0)
(0 -0.0634706 0)
(0 -0.0539951 0)
(0 -0.0469752 0)
(0 -0.0415997 0)
(0 -0.0373594 0)
(0 -0.0339339 0)
(0 -0.0311117 0)
(0 -0.0287461 0)
(0 -0.0267331 0)
(0 -0.0249964 0)
(0 -0.0234795 0)
(0 -0.0221394 0)
(0 -0.0209432 0)
(0 -0.0198653 0)
(0 -0.0188854 0)
(0 -0.0179876 0)
(0 -0.017159 0)
(0 -0.0163894 0)
(0 -0.0156704 0)
(0 -0.0149951 0)
(0 -0.0143581 0)
(0 -0.0137548 0)
(0 -0.0131814 0)
(0 -0.0126348 0)
(0 -0.0121125 0)
(0 -0.0116122 0)
(0 -0.0111321 0)
(0 -0.0106709 0)
(0 -0.0102272 0)
(0 -0.00980003 0)
(0 -0.00938842 0)
(0 -0.00899166 0)
(0 -0.00860913 0)
(0 -0.0082403 0)
(0 -0.00788468 0)
(0 -0.00754186 0)
(0 -0.0072114 0)
(0 -0.00689278 0)
(0 -0.00658541 0)
(0 -0.00628851 0)
(0 -0.00600105 0)
(0 -0.00572177 0)
(0 -0.00544917 0)
(0 -0.00518154 0)
(0 -0.00491414 0)
(-2.35384e-18 -0.00464303 0)
(0 -0.00436756 0)
(0 -0.00408732 0)
(2.15905e-18 -0.00380333 0)
(0 -0.00351773 0)
(-2.02662e-18 -0.00323409 0)
(0 -0.00295726 0)
(1.89889e-18 -0.00269309 0)
(0 -0.002448 0)
(0 -0.00222803 0)
(0 -0.00203723 0)
(8.61716e-19 -0.0018759 0)
(0 -0.0017403 0)
(0 -0.00162436 0)
(0 -0.00152147 0)
(0 -0.00142546 0)
(0 -0.00133098 0)
(-4.18853e-19 -0.00123403 0)
(0 -0.00113257 0)
(-4.15399e-19 -0.00102682 0)
(0 -0.000919034 0)
(0 -0.000812559 0)
(0 -0.000710932 0)
(0 -0.000616459 0)
(0 -0.000531862 0)
(0 -0.000455256 0)
(1.92428e-19 -0.000390245 0)
(9.44621e-20 -0.00033019 0)
(0 -0.000281692 0)
(0 -0.000234056 0)
(0 -0.000198861 0)
(0 -0.00016252 0)
(0 -0.000129531 0)
(0 -9.1138e-05 0)
(0 -7.09997e-05 0)
(0 -5.20295e-05 0)
(0 -4.50038e-05 0)
(0 -3.33037e-05 0)
(0 -2.38852e-05 0)
(0 -1.68432e-05 0)
(0 -1.16208e-05 0)
(-2.05355e-21 -7.8435e-06 0)
(9.82017e-22 -5.20853e-06 0)
(0 -3.35351e-06 0)
(0 -2.17048e-06 0)
(-2.16901e-22 -1.32793e-06 0)
(0 -8.4813e-07 0)
(0 -4.97831e-07 0)
(-5.2065e-23 -3.07192e-07 0)
(0 -1.81994e-07 0)
(0 -1.35515e-09 0)
(0 -1.04351e-23 0)
(0 1.20276e-49 0)
(0 -5.78892e-48 0)
(0 -6.56164e-52 0)
(0 -1.58e-53 0)
(0 -6.48313e-57 0)
(0 -1.57994e-58 0)
(0 -7.48136e-62 0)
(0 -9.17311e-63 0)
(0 -3.66967e-63 0)
(0 -1.7093e-63 0)
(0 -7.77848e-64 0)
(0 -3.44512e-64 0)
(0 -1.48055e-64 0)
(0 -6.14855e-65 0)
(0 -2.45307e-65 0)
(0 -9.31896e-66 0)
(0 -3.32127e-66 0)
(0 -1.07984e-66 0)
(0 -3.00067e-67 0)
(0 -5.45084e-68 0)
(0 -2.78638e-69 0)
(0 -2.28404e-71 0)
(0 -9.81723e-74 0)
(0 -3.83494e-76 0)
(0 -1.38151e-78 0)
(0 -4.5884e-81 0)
(0 -1.36637e-83 0)
(0 -1.35637e-86 0)
(0 -6.1969e-88 0)
(0 -1.98482e-88 0)
(0 -6.15991e-89 0)
(0 -1.84973e-89 0)
(9.81933e-106 -5.36594e-90 0)
(0 -1.50125e-90 0)
(0 -4.04329e-91 0)
(0 -1.0462e-91 0)
(0 -2.59499e-92 0)
(0 -6.15521e-93 0)
(0 -1.39241e-93 0)
(0 -2.9951e-94 0)
(0 -6.10536e-95 0)
(0 -1.17497e-95 0)
(1.91494e-112 -2.1256e-96 0)
(0 -3.59696e-97 0)
(0 -5.6611e-98 0)
(0 -8.23118e-99 0)
(0 -1.09686e-99 0)
(0 -1.32673e-100 0)
(0 -1.43942e-101 0)
(0 -1.37985e-102 0)
(0 -1.14602e-103 0)
(0 -8.02933e-105 0)
(0 -4.56656e-106 0)
(0 -1.98496e-107 0)
(0 -5.91707e-109 0)
(0 -9.36493e-111 0)
(0 -1.25713e-113 0)
(0 -4.58598e-120 0)
(0 -2.90183e-122 0)
(0 -9.08587e-125 0)
(0 -3.7074e-135 0)
(0 -7.73715e-146 0)
(0 -1.21673e-156 0)
(0 -1.39533e-167 0)
(0 -1.4012e-178 0)
(0 -1.08879e-189 0)
(0 -7.3036e-201 0)
(0 -1.42611e-211 0)
(0 -6.14682e-222 0)
(0 -3.51341e-230 0)
(0 -1.75505e-240 0)
(0 -1.20829e-248 0)
(0 -7.15924e-259 0)
(0 -4.1602e-267 0)
(0 -3.031e-277 0)
(0 -1.43466e-285 0)
(0 -1.94901e-295 0)
(0 -5.08629e-304 0)
(0 -1.2951e-313 0)
(0 -1.87745e-322 0)
(0 -0 0)
(0 0 0)
(0 0 0)
(0 0 0)
(0 0 0)
(0 0 0)
(0 0 0)
(0 0 0)
(0 0 0)
(0 0 0)
(0 0 0)
(0 0 0)
(0 0 0)
(0 0 0)
(0 0 0)
(0 0 0)
(0 0 0)
(0 0 0)
(0 0 0)
(0 0 0)
(0 0 0)
(0 0 0)
(0 0 0)
(0 0 0)
(0 0 0)
(0 0 0)
)
;

boundaryField
{
    inandouthalf11
    {
        type            cyclic;
    }
    inandouthalf12
    {
        type            cyclic;
    }
    inandouthalf21
    {
        type            cyclic;
    }
    inandouthalf22
    {
        type            cyclic;
    }
    inandouthalf31
    {
        type            cyclic;
    }
    inandouthalf32
    {
        type            cyclic;
    }
    inandouthalf41
    {
        type            cyclic;
    }
    inandouthalf42
    {
        type            cyclic;
    }
    top
    {
        type            symmetryPlane;
    }
    walls
    {
        type            zeroGradient;
    }
    frontAndBackPlanes
    {
        type            empty;
    }
}


// ************************************************************************* //
