/*--------------------------------*- C++ -*----------------------------------*\
| =========                 |                                                 |
| \\      /  F ield         | OpenFOAM: The Open Source CFD Toolbox           |
|  \\    /   O peration     | Version:  2.4.x                                 |
|   \\  /    A nd           | Web:      www.OpenFOAM.org                      |
|    \\/     M anipulation  |                                                 |
\*---------------------------------------------------------------------------*/
FoamFile
{
    version     2.0;
    format      ascii;
    class       volTensorField;
    location    "10.65";
    object      Taus;
}
// * * * * * * * * * * * * * * * * * * * * * * * * * * * * * * * * * * * * * //

dimensions      [0 2 -2 0 0 0 0];

internalField   nonuniform List<tensor> 
360
(
(0 -0.0229011 0 -0.0229011 -0.206902 0 0 0 0)
(0 -0.0336661 0 -0.0336661 -0.262556 0 0 0 0)
(0 -0.0405073 0 -0.0405073 -0.26688 0 0 0 0)
(0 -0.038976 0 -0.038976 -0.260343 0 0 0 0)
(1.25035e-17 -0.0376279 0 -0.0376279 -0.257616 0 0 0 0)
(2.49539e-17 -0.0373698 0 -0.0373698 -0.256689 0 0 0 0)
(2.5473e-17 -0.0371975 0 -0.0371975 -0.255447 0 0 0 0)
(0 -0.0368806 0 -0.0368806 -0.253891 0 0 0 0)
(2.66382e-17 -0.0365237 0 -0.0365237 -0.25232 0 0 0 0)
(0 -0.0361685 0 -0.0361685 -0.250747 0 0 0 0)
(5.53867e-17 -0.0358189 0 -0.0358189 -0.249168 0 0 0 0)
(0 -0.035479 0 -0.035479 -0.2476 0 0 0 0)
(2.86987e-17 -0.0351446 0 -0.0351446 -0.246025 0 0 0 0)
(0 -0.0348148 0 -0.0348148 -0.244449 0 0 0 0)
(0 -0.0344879 0 -0.0344879 -0.242865 0 0 0 0)
(0 -0.0341626 0 -0.0341626 -0.241272 0 0 0 0)
(0 -0.0338401 0 -0.0338401 -0.239673 0 0 0 0)
(6.09568e-17 -0.0335218 0 -0.0335218 -0.238071 0 0 0 0)
(0 -0.0332065 0 -0.0332065 -0.236465 0 0 0 0)
(0 -0.0328922 0 -0.0328922 -0.234844 0 0 0 0)
(0 -0.0325831 0 -0.0325831 -0.233232 0 0 0 0)
(6.14256e-17 -0.0322745 0 -0.0322745 -0.231605 0 0 0 0)
(0 -0.0319677 0 -0.0319677 -0.229974 0 0 0 0)
(0 -0.0316632 0 -0.0316632 -0.22834 0 0 0 0)
(0 -0.0313598 0 -0.0313598 -0.226698 0 0 0 0)
(5.98455e-17 -0.0310583 0 -0.0310583 -0.225053 0 0 0 0)
(0 -0.0307587 0 -0.0307587 -0.223408 0 0 0 0)
(0 -0.0304581 0 -0.0304581 -0.221749 0 0 0 0)
(0 -0.030159 0 -0.030159 -0.22009 0 0 0 0)
(0 -0.0298618 0 -0.0298618 -0.218429 0 0 0 0)
(0 -0.0295642 0 -0.0295642 -0.216763 0 0 0 0)
(0 -0.029266 0 -0.029266 -0.215083 0 0 0 0)
(0 -0.0289715 0 -0.0289715 -0.213421 0 0 0 0)
(0 -0.0286725 0 -0.0286725 -0.211728 0 0 0 0)
(0 -0.0283768 0 -0.0283768 -0.210052 0 0 0 0)
(-1.02723e-16 -0.0280805 0 -0.0280805 -0.208361 0 0 0 0)
(0 -0.0277855 0 -0.0277855 -0.206675 0 0 0 0)
(0 -0.0274882 0 -0.0274882 -0.204979 0 0 0 0)
(0 -0.0271903 0 -0.0271903 -0.203271 0 0 0 0)
(0 -0.0268975 0 -0.0268975 -0.201587 0 0 0 0)
(0 -0.0265985 0 -0.0265985 -0.199869 0 0 0 0)
(0 -0.0263019 0 -0.0263019 -0.19816 0 0 0 0)
(-9.00874e-17 -0.0260084 0 -0.0260084 -0.196461 0 0 0 0)
(0 -0.0257099 0 -0.0257099 -0.194734 0 0 0 0)
(0 -0.0254141 0 -0.0254141 -0.193022 0 0 0 0)
(0 -0.025117 0 -0.025117 -0.1913 0 0 0 0)
(0 -0.0248194 0 -0.0248194 -0.189568 0 0 0 0)
(0 -0.0245269 0 -0.0245269 -0.187855 0 0 0 0)
(0 -0.0242301 0 -0.0242301 -0.186123 0 0 0 0)
(0 -0.0239307 0 -0.0239307 -0.184376 0 0 0 0)
(-7.78982e-17 -0.0236373 0 -0.0236373 -0.182654 0 0 0 0)
(0 -0.0233414 0 -0.0233414 -0.18091 0 0 0 0)
(0 -0.0230456 0 -0.0230456 -0.179171 0 0 0 0)
(0 -0.0227498 0 -0.0227498 -0.177421 0 0 0 0)
(0 -0.0224563 0 -0.0224563 -0.175685 0 0 0 0)
(0 -0.0221595 0 -0.0221595 -0.173923 0 0 0 0)
(0 -0.0218666 0 -0.0218666 -0.172182 0 0 0 0)
(0 -0.0215709 0 -0.0215709 -0.170419 0 0 0 0)
(0 -0.0212776 0 -0.0212776 -0.168662 0 0 0 0)
(0 -0.0209867 0 -0.0209867 -0.166915 0 0 0 0)
(0 -0.0206915 0 -0.0206915 -0.165139 0 0 0 0)
(0 -0.0204003 0 -0.0204003 -0.163385 0 0 0 0)
(0 -0.0201072 0 -0.0201072 -0.161611 0 0 0 0)
(0 -0.0198157 0 -0.0198157 -0.159845 0 0 0 0)
(0 -0.0195249 0 -0.0195249 -0.158072 0 0 0 0)
(0 -0.0192353 0 -0.0192353 -0.156302 0 0 0 0)
(0 -0.0189448 0 -0.0189448 -0.154524 0 0 0 0)
(0 -0.0186545 0 -0.0186545 -0.152744 0 0 0 0)
(0 -0.0183668 0 -0.0183668 -0.150965 0 0 0 0)
(0 -0.0180812 0 -0.0180812 -0.149193 0 0 0 0)
(0 -0.0177921 0 -0.0177921 -0.147402 0 0 0 0)
(0 -0.0175039 0 -0.0175039 -0.145609 0 0 0 0)
(0 -0.0172207 0 -0.0172207 -0.143833 0 0 0 0)
(0 -0.0169351 0 -0.0169351 -0.142038 0 0 0 0)
(0 -0.0166502 0 -0.0166502 -0.140248 0 0 0 0)
(0 -0.0163651 0 -0.0163651 -0.138448 0 0 0 0)
(0 -0.0160831 0 -0.0160831 -0.136657 0 0 0 0)
(0 -0.0158017 0 -0.0158017 -0.134861 0 0 0 0)
(0 -0.0155202 0 -0.0155202 -0.133062 0 0 0 0)
(0 -0.0152396 0 -0.0152396 -0.13126 0 0 0 0)
(0 -0.0149609 0 -0.0149609 -0.129461 0 0 0 0)
(0 -0.0146824 0 -0.0146824 -0.127657 0 0 0 0)
(0 -0.0144044 0 -0.0144044 -0.12585 0 0 0 0)
(0 -0.0141275 0 -0.0141275 -0.124044 0 0 0 0)
(0 -0.0138513 0 -0.0138513 -0.122235 0 0 0 0)
(0 -0.0135761 0 -0.0135761 -0.120425 0 0 0 0)
(0 -0.0133015 0 -0.0133015 -0.118612 0 0 0 0)
(0 -0.0130283 0 -0.0130283 -0.1168 0 0 0 0)
(0 -0.0127562 0 -0.0127562 -0.114987 0 0 0 0)
(0 -0.012485 0 -0.012485 -0.113172 0 0 0 0)
(0 -0.0122148 0 -0.0122148 -0.111356 0 0 0 0)
(0 -0.0119457 0 -0.0119457 -0.109539 0 0 0 0)
(0 -0.0116773 0 -0.0116773 -0.10772 0 0 0 0)
(0 -0.0114098 0 -0.0114098 -0.1059 0 0 0 0)
(0 -0.0111432 0 -0.0111432 -0.104079 0 0 0 0)
(0 -0.0108775 0 -0.0108775 -0.102257 0 0 0 0)
(0 -0.0106128 0 -0.0106128 -0.100434 0 0 0 0)
(0 -0.0103491 0 -0.0103491 -0.09861 0 0 0 0)
(0 -0.0100864 0 -0.0100864 -0.0967859 0 0 0 0)
(0 -0.00982465 0 -0.00982465 -0.0949613 0 0 0 0)
(0 -0.00956383 0 -0.00956383 -0.0931362 0 0 0 0)
(0 -0.0093039 0 -0.0093039 -0.0913107 0 0 0 0)
(0 -0.00904477 0 -0.00904477 -0.0894849 0 0 0 0)
(0 -0.00878639 0 -0.00878639 -0.087659 0 0 0 0)
(0 -0.00852869 0 -0.00852869 -0.0858332 0 0 0 0)
(0 -0.00827155 0 -0.00827155 -0.0840077 0 0 0 0)
(0 -0.00801486 0 -0.00801486 -0.0821828 0 0 0 0)
(0 -0.00775844 0 -0.00775844 -0.0803588 0 0 0 0)
(0 -0.0075021 0 -0.0075021 -0.078536 0 0 0 0)
(0 -0.00724566 0 -0.00724566 -0.0767146 0 0 0 0)
(0 -0.00698889 0 -0.00698889 -0.074895 0 0 0 0)
(0 -0.0067316 0 -0.0067316 -0.0730775 0 0 0 0)
(0 -0.00647362 0 -0.00647362 -0.0712625 0 0 0 0)
(0 -0.00621484 0 -0.00621484 -0.0694502 0 0 0 0)
(0 -0.00595521 0 -0.00595521 -0.0676411 0 0 0 0)
(0 -0.00569474 0 -0.00569474 -0.0658354 0 0 0 0)
(0 -0.00543357 0 -0.00543357 -0.0640333 0 0 0 0)
(0 -0.00517187 0 -0.00517187 -0.062235 0 0 0 0)
(0 -0.00490988 0 -0.00490988 -0.0604408 0 0 0 0)
(0 -0.00464785 0 -0.00464785 -0.0586507 0 0 0 0)
(0 -0.00438599 0 -0.00438599 -0.0568648 0 0 0 0)
(0 -0.00412437 0 -0.00412437 -0.0550834 0 0 0 0)
(0 -0.00386288 0 -0.00386288 -0.0533069 0 0 0 0)
(0 -0.00360105 0 -0.00360105 -0.0515356 0 0 0 0)
(0 -0.00333797 0 -0.00333797 -0.0497704 0 0 0 0)
(0 -0.00307214 0 -0.00307214 -0.0480118 0 0 0 0)
(0 -0.00280147 0 -0.00280147 -0.0462599 0 0 0 0)
(0 -0.00252354 0 -0.00252354 -0.0445144 0 0 0 0)
(0 -0.00223616 0 -0.00223616 -0.0427744 0 0 0 0)
(0 -0.00193821 0 -0.00193821 -0.0410397 0 0 0 0)
(0 -0.00163004 0 -0.00163004 -0.0393116 0 0 0 0)
(0 -0.00131326 0 -0.00131326 -0.0375918 0 0 0 0)
(0 -0.000990114 0 -0.000990114 -0.0358762 0 0 0 0)
(0 -0.000664035 0 -0.000664035 -0.0341516 0 0 0 0)
(0 -0.000341139 0 -0.000341139 -0.0324061 0 0 0 0)
(0 -2.9811e-05 0 -2.9811e-05 -0.0306473 0 0 0 0)
(0 0.000260977 0 0.000260977 -0.0288908 0 0 0 0)
(0 0.000517414 0 0.000517414 -0.0271226 0 0 0 0)
(0 0.000704638 0 0.000704638 -0.0252867 0 0 0 0)
(0 0.000713552 0 0.000713552 -0.0233558 0 0 0 0)
(0 -0.000173418 0 -0.000173418 -0.0214763 0 0 0 0)
(0 -0.00450031 0 -0.00450031 -0.0178384 0 0 0 0)
(0 -0.00272693 0 -0.00272693 -0.00842827 0 0 0 0)
(0 -0.00358242 0 -0.00358242 -0.00862657 0 0 0 0)
(0 -0.00373655 0 -0.00373655 -0.00674757 0 0 0 0)
(0 -0.00327299 0 -0.00327299 -0.00499095 0 0 0 0)
(0 -0.00302756 0 -0.00302756 -0.00310351 0 0 0 0)
(0 -0.00274525 0 -0.00274525 -0.000995373 0 0 0 0)
(0 -0.00170548 0 -0.00170548 1.78383e-06 0 0 0 0)
(0 -0.0010516 0 -0.0010516 8.58275e-06 0 0 0 0)
(0 -0.00130528 0 -0.00130528 -1.08917e-05 0 0 0 0)
(0 -0.00175278 0 -0.00175278 -0.000135579 0 0 0 0)
(0 -0.00160917 0 -0.00160917 -0.00041299 0 0 0 0)
(0 -0.00138612 0 -0.00138612 -0.000744851 0 0 0 0)
(0 -0.00108174 0 -0.00108174 -0.000990777 0 0 0 0)
(0 -0.000732408 0 -0.000732408 -0.00107581 0 0 0 0)
(0 -0.000370868 0 -0.000370868 -0.00105466 0 0 0 0)
(0 -8.05812e-06 0 -8.05812e-06 -0.000990716 0 0 0 0)
(0 0.000354558 0 0.000354558 -0.000905064 0 0 0 0)
(0 0.000718325 0 0.000718325 -0.000805622 0 0 0 0)
(0 0.00108535 0 0.00108535 -0.00069802 0 0 0 0)
(0 0.0014577 0 0.0014577 -0.00058565 0 0 0 0)
(0 0.00183711 0 0.00183711 -0.000470255 0 0 0 0)
(0 0.00222503 0 0.00222503 -0.000352811 0 0 0 0)
(0 0.00262265 0 0.00262265 -0.000233889 0 0 0 0)
(0 0.00303095 0 0.00303095 -0.000113798 0 0 0 0)
(0 0.0034508 0 0.0034508 7.31592e-06 0 0 0 0)
(0 0.00388298 0 0.00388298 0.000129415 0 0 0 0)
(0 0.00432822 0 0.00432822 0.000252535 0 0 0 0)
(0 0.00478722 0 0.00478722 0.000376767 0 0 0 0)
(0 0.00526066 0 0.00526066 0.00050224 0 0 0 0)
(0 0.00574924 0 0.00574924 0.000629107 0 0 0 0)
(0 0.00625361 0 0.00625361 0.000757548 0 0 0 0)
(0 0.00677448 0 0.00677448 0.000887756 0 0 0 0)
(0 0.00731249 0 0.00731249 0.00101994 0 0 0 0)
(0 0.00786831 0 0.00786831 0.00115431 0 0 0 0)
(0 0.00844258 0 0.00844258 0.00129108 0 0 0 0)
(0 0.00903594 0 0.00903594 0.00143048 0 0 0 0)
(0 0.00964895 0 0.00964895 0.00157273 0 0 0 0)
(0 0.0102822 0 0.0102822 0.00171804 0 0 0 0)
(0 0.0109361 0 0.0109361 0.00186663 0 0 0 0)
(0 0.0116112 0 0.0116112 0.00201868 0 0 0 0)
(0 0.0123078 0 0.0123078 0.00217438 0 0 0 0)
(0 0.0130262 0 0.0130262 0.00233388 0 0 0 0)
(0 0.0137667 0 0.0137667 0.0024973 0 0 0 0)
(0 0.0145292 0 0.0145292 0.00266472 0 0 0 0)
(0 0.0153138 0 0.0153138 0.00283616 0 0 0 0)
(0 0.0161205 0 0.0161205 0.00301157 0 0 0 0)
(0 0.0169488 0 0.0169488 0.00319079 0 0 0 0)
(0 0.0177986 0 0.0177986 0.00337355 0 0 0 0)
(0 0.0186692 0 0.0186692 0.00355942 0 0 0 0)
(0 0.0195601 0 0.0195601 0.00374778 0 0 0 0)
(0 0.0204705 0 0.0204705 0.00393776 0 0 0 0)
(0 0.0213995 0 0.0213995 0.00412824 0 0 0 0)
(0 0.0223462 0 0.0223462 0.0043178 0 0 0 0)
(0 0.0233095 0 0.0233095 0.00450476 0 0 0 0)
(0 0.0242882 0 0.0242882 0.00468721 0 0 0 0)
(0 0.0252806 0 0.0252806 0.00486314 0 0 0 0)
(0 0.0262851 0 0.0262851 0.00503066 0 0 0 0)
(0 0.0272995 0 0.0272995 0.00518832 0 0 0 0)
(0 0.0283244 0 0.0283244 0.00533546 0 0 0 0)
(0 0.0293848 0 0.0293848 0.0054745 0 0 0 0)
(6.55338e-17 0.0305091 0 0.0305091 0.0056096 0 0 0 0)
(0 0.0317045 0 0.0317045 0.00574592 0 0 0 0)
(0 0.0329729 0 0.0329729 0.00589199 0 0 0 0)
(-7.56467e-17 0.0343137 0 0.0343137 0.00606045 0 0 0 0)
(0 0.0357242 0 0.0357242 0.006268 0 0 0 0)
(8.40403e-17 0.0371991 0 0.0371991 0.00653494 0 0 0 0)
(0 0.0387308 0 0.0387308 0.00688349 0 0 0 0)
(-9.39343e-17 0.0403101 0 0.0403101 0.00733496 0 0 0 0)
(0 0.0419278 0 0.0419278 0.00790546 0 0 0 0)
(0 0.0435758 0 0.0435758 0.00860084 0 0 0 0)
(0 0.0452498 0 0.0452498 0.0094124 0 0 0 0)
(-1.18986e-16 0.0469507 0 0.0469507 0.0103159 0 0 0 0)
(0 0.0486857 0 0.0486857 0.011275 0 0 0 0)
(0 0.0504687 0 0.0504687 0.0122461 0 0 0 0)
(0 0.0523184 0 0.0523184 0.0131841 0 0 0 0)
(0 0.0542545 0 0.0542545 0.0140449 0 0 0 0)
(0 0.0562913 0 0.0562913 0.0147891 0 0 0 0)
(0 0.0584294 0 0.0584294 0.0153855 0 0 0 0)
(0 0.0606458 0 0.0606458 0.0158136 0 0 0 0)
(2.11075e-16 0.0628883 0 0.0628883 0.0160655 0 0 0 0)
(0 0.0650722 0 0.0650722 0.0161451 0 0 0 0)
(1.24221e-16 0.0670854 0 0.0670854 0.0160648 0 0 0 0)
(0 0.0687939 0 0.0687939 0.0158381 0 0 0 0)
(0 0.0700554 0 0.0700554 0.0154797 0 0 0 0)
(0 0.0707101 0 0.0707101 0.0149818 0 0 0 0)
(0 0.0706438 0 0.0706438 0.0143554 0 0 0 0)
(-1.76477e-16 0.0696105 0 0.0696105 0.013534 0 0 0 0)
(-1.8588e-16 0.0676378 0 0.0676378 0.0125522 0 0 0 0)
(0 0.0641893 0 0.0641893 0.0112419 0 0 0 0)
(0 0.0596078 0 0.0596078 0.0097318 0 0 0 0)
(0 0.0527825 0 0.0527825 0.00768662 0 0 0 0)
(0 0.0446703 0 0.0446703 0.00525967 0 0 0 0)
(0 0.0334236 0 0.0334236 0.0023956 0 0 0 0)
(0 0.0259918 0 0.0259918 -0.000264478 0 0 0 0)
(0 0 0 0 0 0 0 0 0)
(0 0 0 0 0 0 0 0 0)
(0 0 0 0 0 0 0 0 0)
(0 0 0 0 0 0 0 0 0)
(0 0 0 0 0 0 0 0 0)
(0 0 0 0 0 0 0 0 0)
(0 0 0 0 0 0 0 0 0)
(-0 0 0 0 0 0 0 0 0)
(0 0 0 0 -0 0 0 0 0)
(0 0 0 0 0 0 0 0 0)
(0 0 0 0 -0 0 0 0 0)
(-0 0 0 0 0 0 0 0 0)
(0 0 0 0 -0 0 0 0 0)
(0 0 0 0 0 0 0 0 0)
(-0 -0 0 -0 -0 0 0 0 0)
(0 -0 0 -0 -0 0 0 0 0)
(0 -0 0 -0 -0 0 0 0 0)
(0 -0 0 -0 -0 0 0 0 0)
(0 -0 0 -0 0 0 0 0 0)
(0 -0 0 -0 0 0 0 0 0)
(0 -0 0 -0 0 0 0 0 0)
(0 -0 0 -0 0 0 0 0 0)
(0 -0 0 -0 0 0 0 0 0)
(0 -0 0 -0 -0 0 0 0 0)
(0 -0 0 -0 -0 0 0 0 0)
(0 -0 0 -0 -0 0 0 0 0)
(0 -0 0 -0 -0 0 0 0 0)
(0 -0 0 -0 -0 0 0 0 0)
(0 -0 0 -0 -0 0 0 0 0)
(0 -0 0 -0 0 0 0 0 0)
(0 -0 0 -0 0 0 0 0 0)
(0 -0 0 -0 0 0 0 0 0)
(0 -0 0 -0 0 0 0 0 0)
(0 -0 0 -0 0 0 0 0 0)
(0 -0 0 -0 0 0 0 0 0)
(0 -0 0 -0 0 0 0 0 0)
(0 -0 0 -0 0 0 0 0 0)
(0 -0 0 -0 0 0 0 0 0)
(0 -0 0 -0 0 0 0 0 0)
(0 -0 0 -0 0 0 0 0 0)
(0 -0 0 -0 0 0 0 0 0)
(0 -0 0 -0 0 0 0 0 0)
(0 0 0 0 0 0 0 0 0)
(0 0 0 0 0 0 0 0 0)
(0 0 0 0 -0 0 0 0 0)
(0 0 0 0 0 0 0 0 0)
(0 0 0 0 -0 0 0 0 0)
(0 0 0 0 0 0 0 0 0)
(0 0 0 0 -0 0 0 0 0)
(0 0 0 0 0 0 0 0 0)
(0 0 0 0 -0 0 0 0 0)
(0 0 0 0 0 0 0 0 0)
(0 0 0 0 -0 0 0 0 0)
(0 0 0 0 0 0 0 0 0)
(0 0 0 0 -0 0 0 0 0)
(0 0 0 0 0 0 0 0 0)
(0 0 0 0 -0 0 0 0 0)
(0 -0 0 -0 0 0 0 0 0)
(0 0 0 0 -0 0 0 0 0)
(0 -0 0 -0 0 0 0 0 0)
(0 0 0 0 -0 0 0 0 0)
(0 -0 0 -0 0 0 0 0 0)
(0 0 0 0 -0 0 0 0 0)
(-0 -0 0 -0 0 0 0 0 0)
(0 0 0 0 -0 0 0 0 0)
(0 -0 0 -0 0 0 0 0 0)
(0 0 0 0 -0 0 0 0 0)
(0 -0 0 -0 0 0 0 0 0)
(0 0 0 0 -0 0 0 0 0)
(0 -0 0 -0 0 0 0 0 0)
(0 0 0 0 -0 0 0 0 0)
(0 -0 0 -0 0 0 0 0 0)
(0 0 0 0 -0 0 0 0 0)
(0 -0 0 -0 0 0 0 0 0)
(0 0 0 0 -0 0 0 0 0)
(0 -0 0 -0 0 0 0 0 0)
(0 0 0 0 -0 0 0 0 0)
(0 -0 0 -0 0 0 0 0 0)
(0 0 0 0 -0 0 0 0 0)
(0 -0 0 -0 0 0 0 0 0)
(0 0 0 0 -0 0 0 0 0)
(0 -0 0 -0 0 0 0 0 0)
(0 0 0 0 -0 0 0 0 0)
(0 -0 0 -0 0 0 0 0 0)
(0 0 0 0 -0 0 0 0 0)
(0 -0 0 -0 0 0 0 0 0)
(0 0 0 0 -0 0 0 0 0)
(0 -0 0 -0 0 0 0 0 0)
(0 0 0 0 -0 0 0 0 0)
(0 -0 0 -0 0 0 0 0 0)
(0 0 0 0 -0 0 0 0 0)
(0 -0 0 -0 0 0 0 0 0)
(0 0 0 0 -0 0 0 0 0)
(0 -0 0 -0 0 0 0 0 0)
(0 0 0 0 -0 0 0 0 0)
(0 -0 0 -0 0 0 0 0 0)
(0 0 0 0 -0 0 0 0 0)
(0 -0 0 -0 0 0 0 0 0)
(0 0 0 0 -0 0 0 0 0)
(0 -0 0 -0 0 0 0 0 0)
(0 0 0 0 -0 0 0 0 0)
(0 -0 0 -0 0 0 0 0 0)
(0 0 0 0 -0 0 0 0 0)
(0 -0 0 -0 0 0 0 0 0)
(0 -0 0 -0 -0 0 0 0 0)
(0 -0 0 -0 0 0 0 0 0)
(0 0 0 0 -0 0 0 0 0)
(0 -0 0 -0 0 0 0 0 0)
(0 0 0 0 -0 0 0 0 0)
(0 -0 0 -0 0 0 0 0 0)
(0 0 0 0 -0 0 0 0 0)
(0 -0 0 -0 0 0 0 0 0)
(0 0 0 0 -0 0 0 0 0)
(0 -0 0 -0 0 0 0 0 0)
(0 0 0 0 -0 0 0 0 0)
(0 -0 0 -0 0 0 0 0 0)
(0 0 0 0 -0 0 0 0 0)
(0 0 0 0 0 0 0 0 0)
(0 0 0 0 0 0 0 0 0)
(0 0 0 0 0 0 0 0 0)
(0 0 0 0 0 0 0 0 0)
(0 0 0 0 0 0 0 0 0)
(0 0 0 0 0 0 0 0 0)
(0 0 0 0 0 0 0 0 0)
)
;

boundaryField
{
    inandouthalf11
    {
        type            cyclic;
    }
    inandouthalf12
    {
        type            cyclic;
    }
    inandouthalf21
    {
        type            cyclic;
    }
    inandouthalf22
    {
        type            cyclic;
    }
    inandouthalf31
    {
        type            cyclic;
    }
    inandouthalf32
    {
        type            cyclic;
    }
    inandouthalf41
    {
        type            cyclic;
    }
    inandouthalf42
    {
        type            cyclic;
    }
    top
    {
        type            symmetryPlane;
    }
    walls
    {
        type            zeroGradient;
    }
    frontAndBackPlanes
    {
        type            empty;
    }
}


// ************************************************************************* //
