/*--------------------------------*- C++ -*----------------------------------*\
| =========                 |                                                 |
| \\      /  F ield         | OpenFOAM: The Open Source CFD Toolbox           |
|  \\    /   O peration     | Version:  2.4.x                                 |
|   \\  /    A nd           | Web:      www.OpenFOAM.org                      |
|    \\/     M anipulation  |                                                 |
\*---------------------------------------------------------------------------*/
FoamFile
{
    version     2.0;
    format      ascii;
    class       volScalarField;
    location    "10.65";
    object      Theta;
}
// * * * * * * * * * * * * * * * * * * * * * * * * * * * * * * * * * * * * * //

dimensions      [0 2 -2 0 0 0 0];

internalField   nonuniform List<scalar> 
360
(
6.6614e-21
6.66146e-21
6.66144e-21
6.66143e-21
6.66143e-21
6.66143e-21
6.66143e-21
6.66143e-21
6.66143e-21
6.66142e-21
6.66142e-21
6.66142e-21
6.66142e-21
6.66142e-21
6.66142e-21
6.66141e-21
6.66141e-21
6.66141e-21
6.66141e-21
6.66141e-21
6.66141e-21
6.66141e-21
6.66141e-21
6.66141e-21
6.66141e-21
6.66141e-21
6.66141e-21
6.6614e-21
6.6614e-21
6.6614e-21
6.6614e-21
6.6614e-21
6.6614e-21
6.6614e-21
6.6614e-21
6.6614e-21
6.6614e-21
6.6614e-21
6.6614e-21
6.6614e-21
6.6614e-21
6.6614e-21
6.6614e-21
6.6614e-21
6.6614e-21
6.6614e-21
6.6614e-21
6.6614e-21
6.6614e-21
6.6614e-21
6.6614e-21
6.6614e-21
6.6614e-21
6.6614e-21
6.6614e-21
6.6614e-21
6.6614e-21
6.6614e-21
6.6614e-21
6.6614e-21
6.6614e-21
6.66139e-21
6.66139e-21
6.66139e-21
6.66139e-21
6.66139e-21
6.66139e-21
6.66139e-21
6.66139e-21
6.66139e-21
6.66139e-21
6.66139e-21
6.66139e-21
6.66138e-21
6.66138e-21
6.66138e-21
6.66138e-21
6.66138e-21
6.66138e-21
6.66138e-21
6.66138e-21
6.66137e-21
6.66137e-21
6.66137e-21
6.66137e-21
6.66137e-21
6.66137e-21
6.66137e-21
6.66136e-21
6.66136e-21
6.66136e-21
6.66136e-21
6.66136e-21
6.66135e-21
6.66135e-21
6.66135e-21
6.66135e-21
6.66135e-21
6.66134e-21
6.66134e-21
6.66134e-21
6.66134e-21
6.66133e-21
6.66133e-21
6.66133e-21
6.66133e-21
6.66133e-21
6.66132e-21
6.66132e-21
6.66132e-21
6.66132e-21
6.66131e-21
6.66131e-21
6.66131e-21
6.66131e-21
6.6613e-21
6.6613e-21
6.6613e-21
6.66129e-21
6.66129e-21
6.66129e-21
6.66128e-21
6.66128e-21
6.66128e-21
6.66127e-21
6.66127e-21
6.66127e-21
1.05621e-20
2.59549e-20
6.3836e-20
1.51949e-19
3.48957e-19
7.72388e-19
1.64974e-18
3.41986e-18
6.98068e-18
1.45157e-17
3.28261e-17
8.66036e-17
2.68506e-16
9.41927e-16
3.89081e-15
2.43406e-14
1.92885e-13
2.21608e-12
3.94484e-11
1.0815e-09
8.41021e-08
4.89438e-06
0.000131475
0.000828388
0.0012779
0.00143524
0.0015689
0.00170632
0.00184673
0.00198822
0.00212925
0.00226871
0.00240582
0.00254004
0.00267095
0.00279827
0.00292177
0.00304127
0.00315664
0.00326776
0.00337454
0.00347695
0.00357492
0.00366844
0.00375748
0.00384206
0.00392219
0.00399788
0.00406915
0.00413605
0.00419861
0.00425687
0.00431088
0.00436068
0.00440633
0.00444787
0.00448536
0.00451884
0.00454839
0.00457405
0.00459589
0.00461395
0.00462831
0.00463902
0.00464615
0.00464977
0.00464994
0.00464674
0.00464024
0.00463053
0.00461768
0.00460177
0.00458291
0.00456117
0.00453641
0.00450833
0.00447685
0.0044419
0.00440339
0.00436124
0.00431539
0.00426574
0.00421223
0.00415477
0.00409328
0.00402767
0.00395784
0.00388368
0.00380507
0.00372187
0.00363395
0.00354113
0.00344324
0.00334005
0.00323133
0.0031168
0.00299612
0.00286891
0.00273468
0.00259285
0.00244271
0.00228334
0.00211357
0.00193184
0.00173599
0.0015229
0.00128764
0.00102159
0.00070584
0
0
0
0
0
0
0
0
0
0
0
0
0
0
0
0
0
0
0
0
0
0
0
0
0
0
0
0
0
0
0
0
0
0
0
0
0
0
0
0
0
0
0
0
0
0
0
0
0
0
0
0
0
0
0
0
0
0
0
0
0
0
0
0
0
0
0
0
0
0
0
0
0
0
0
0
0
0
0
0
0
0
0
0
0
0
0
0
0
0
0
0
0
0
0
0
0
0
0
0
0
0
0
0
0
0
0
0
0
0
0
0
0
0
0
0
0
0
0
0
0
0
0
0
)
;

boundaryField
{
    inandouthalf11
    {
        type            cyclic;
    }
    inandouthalf12
    {
        type            cyclic;
    }
    inandouthalf21
    {
        type            cyclic;
    }
    inandouthalf22
    {
        type            cyclic;
    }
    inandouthalf31
    {
        type            cyclic;
    }
    inandouthalf32
    {
        type            cyclic;
    }
    inandouthalf41
    {
        type            cyclic;
    }
    inandouthalf42
    {
        type            cyclic;
    }
    top
    {
        type            symmetryPlane;
    }
    walls
    {
        type            zeroGradient;
    }
    frontAndBackPlanes
    {
        type            empty;
    }
}


// ************************************************************************* //
