/*--------------------------------*- C++ -*----------------------------------*\
| =========                 |                                                 |
| \\      /  F ield         | OpenFOAM: The Open Source CFD Toolbox           |
|  \\    /   O peration     | Version:  2.4.x                                 |
|   \\  /    A nd           | Web:      www.OpenFOAM.org                      |
|    \\/     M anipulation  |                                                 |
\*---------------------------------------------------------------------------*/
FoamFile
{
    version     2.0;
    format      ascii;
    class       volVectorField;
    location    "10.65";
    object      Ua;
}
// * * * * * * * * * * * * * * * * * * * * * * * * * * * * * * * * * * * * * //

dimensions      [0 1 -1 0 0 0 0];

internalField   nonuniform List<vector> 
360
(
(-1.60605e-32 -1.02915e-31 0)
(-2.57383e-09 -1.16268e-08 0)
(-5.29117e-09 -2.06325e-08 0)
(-7.67423e-09 -2.84286e-08 0)
(-1.00371e-08 -3.64828e-08 0)
(-1.24222e-08 -4.46819e-08 0)
(-1.47625e-08 -5.2712e-08 0)
(-1.703e-08 -6.05035e-08 0)
(-1.92261e-08 -6.80758e-08 0)
(-2.13565e-08 -7.54479e-08 0)
(-2.34259e-08 -8.2634e-08 0)
(-2.54377e-08 -8.96433e-08 0)
(-2.73952e-08 -9.64846e-08 0)
(-2.93019e-08 -1.03169e-07 0)
(-3.11621e-08 -1.09709e-07 0)
(-3.29804e-08 -1.16121e-07 0)
(-3.47617e-08 -1.2242e-07 0)
(-3.65109e-08 -1.28623e-07 0)
(-3.82323e-08 -1.34744e-07 0)
(-3.99304e-08 -1.40798e-07 0)
(-4.16093e-08 -1.468e-07 0)
(-4.3273e-08 -1.52761e-07 0)
(-4.49252e-08 -1.58697e-07 0)
(-4.65694e-08 -1.64619e-07 0)
(-4.82088e-08 -1.70537e-07 0)
(-4.98461e-08 -1.76462e-07 0)
(-5.1484e-08 -1.82403e-07 0)
(-5.31247e-08 -1.88369e-07 0)
(-5.47705e-08 -1.94367e-07 0)
(-5.6423e-08 -2.00404e-07 0)
(-5.80837e-08 -2.06485e-07 0)
(-5.97542e-08 -2.12616e-07 0)
(-6.14353e-08 -2.188e-07 0)
(-6.31282e-08 -2.25043e-07 0)
(-6.48337e-08 -2.31348e-07 0)
(-6.65521e-08 -2.37715e-07 0)
(-6.8284e-08 -2.44148e-07 0)
(-7.00296e-08 -2.50649e-07 0)
(-7.17894e-08 -2.57218e-07 0)
(-7.35631e-08 -2.63857e-07 0)
(-7.53509e-08 -2.70564e-07 0)
(-7.71526e-08 -2.77343e-07 0)
(-7.89679e-08 -2.8419e-07 0)
(-8.07965e-08 -2.91106e-07 0)
(-8.26384e-08 -2.98091e-07 0)
(-8.4493e-08 -3.05143e-07 0)
(-8.63599e-08 -3.12263e-07 0)
(-8.82383e-08 -3.19446e-07 0)
(-9.01276e-08 -3.26691e-07 0)
(-9.20278e-08 -3.34001e-07 0)
(-9.39381e-08 -3.41371e-07 0)
(-9.58577e-08 -3.48798e-07 0)
(-9.7786e-08 -3.56282e-07 0)
(-9.97225e-08 -3.63822e-07 0)
(-1.01666e-07 -3.71413e-07 0)
(-1.03617e-07 -3.79055e-07 0)
(-1.05573e-07 -3.86745e-07 0)
(-1.07535e-07 -3.94481e-07 0)
(-1.09501e-07 -4.0226e-07 0)
(-1.1147e-07 -4.10078e-07 0)
(-1.13442e-07 -4.17933e-07 0)
(-1.15416e-07 -4.25825e-07 0)
(-1.17392e-07 -4.3375e-07 0)
(-1.19368e-07 -4.41708e-07 0)
(-1.21345e-07 -4.49693e-07 0)
(-1.2332e-07 -4.57703e-07 0)
(-1.25293e-07 -4.65735e-07 0)
(-1.27264e-07 -4.73787e-07 0)
(-1.29231e-07 -4.81855e-07 0)
(-1.31193e-07 -4.89934e-07 0)
(-1.3315e-07 -4.98023e-07 0)
(-1.35101e-07 -5.06122e-07 0)
(-1.37045e-07 -5.14226e-07 0)
(-1.38982e-07 -5.2233e-07 0)
(-1.4091e-07 -5.30435e-07 0)
(-1.4283e-07 -5.38539e-07 0)
(-1.4474e-07 -5.46637e-07 0)
(-1.4664e-07 -5.54723e-07 0)
(-1.48527e-07 -5.62795e-07 0)
(-1.50402e-07 -5.70851e-07 0)
(-1.52263e-07 -5.78886e-07 0)
(-1.54111e-07 -5.86897e-07 0)
(-1.55943e-07 -5.94884e-07 0)
(-1.57761e-07 -6.02842e-07 0)
(-1.59562e-07 -6.10772e-07 0)
(-1.61348e-07 -6.18669e-07 0)
(-1.63116e-07 -6.26531e-07 0)
(-1.64866e-07 -6.34354e-07 0)
(-1.66597e-07 -6.42135e-07 0)
(-1.68308e-07 -6.49869e-07 0)
(-1.69999e-07 -6.57554e-07 0)
(-1.71668e-07 -6.65187e-07 0)
(-1.73316e-07 -6.72765e-07 0)
(-1.74942e-07 -6.80287e-07 0)
(-1.76546e-07 -6.87751e-07 0)
(-1.78126e-07 -6.95156e-07 0)
(-1.79683e-07 -7.02499e-07 0)
(-1.81217e-07 -7.09779e-07 0)
(-1.82725e-07 -7.16993e-07 0)
(-1.84209e-07 -7.24138e-07 0)
(-1.85668e-07 -7.31214e-07 0)
(-1.87101e-07 -7.38219e-07 0)
(-1.88509e-07 -7.45152e-07 0)
(-1.8989e-07 -7.52015e-07 0)
(-1.91246e-07 -7.58808e-07 0)
(-1.92577e-07 -7.65534e-07 0)
(-1.93882e-07 -7.72195e-07 0)
(-1.95164e-07 -7.78797e-07 0)
(-1.96421e-07 -7.85343e-07 0)
(-1.97656e-07 -7.9184e-07 0)
(-1.98868e-07 -7.98294e-07 0)
(-2.00058e-07 -8.04712e-07 0)
(-2.01226e-07 -8.11098e-07 0)
(-2.02373e-07 -8.17457e-07 0)
(-2.03498e-07 -8.23792e-07 0)
(-2.046e-07 -8.30101e-07 0)
(-2.05676e-07 -8.36381e-07 0)
(-2.06725e-07 -8.42624e-07 0)
(-2.07743e-07 -8.48819e-07 0)
(-2.08728e-07 -8.54954e-07 0)
(-2.09676e-07 -8.61015e-07 0)
(-2.10585e-07 -8.66993e-07 0)
(-2.11454e-07 -8.72884e-07 0)
(-2.12282e-07 -8.78697e-07 0)
(-2.13071e-07 -8.84456e-07 0)
(-2.13825e-07 -8.90206e-07 0)
(-2.14551e-07 -8.96019e-07 0)
(-2.15254e-07 -9.01997e-07 0)
(-2.15941e-07 -9.08277e-07 0)
(-2.16616e-07 -9.1503e-07 0)
(-2.17279e-07 -9.22448e-07 0)
(-2.17917e-07 -9.30719e-07 0)
(-2.18504e-07 -9.39977e-07 0)
(-2.18993e-07 -9.50215e-07 0)
(-2.19327e-07 -9.61133e-07 0)
(-2.19451e-07 -9.71943e-07 0)
(-2.19366e-07 -9.81366e-07 0)
(-2.19158e-07 -9.88151e-07 0)
(-2.18964e-07 -9.91891e-07 0)
(-2.18871e-07 -9.93299e-07 0)
(-2.18859e-07 -9.93608e-07 0)
(-2.18877e-07 -9.93681e-07 0)
(-2.18949e-07 -9.93786e-07 0)
(-7.15488e-07 -1.76113e-06 0)
(-1.47563e-06 -2.50684e-06 0)
(-2.50249e-06 -3.37464e-06 0)
(-4.21781e-06 -4.5976e-06 0)
(-8.00289e-06 -6.19383e-06 0)
(-2.40584e-05 -8.19451e-06 0)
(-0.0135649 8.9604e-07 0)
(-0.112359 0.00045022 0)
(-0.179169 -0.000690031 0)
(-0.208116 -0.00325326 0)
(-0.222235 -0.00621642 0)
(-0.229636 -0.00903507 0)
(-0.233516 -0.0113827 0)
(-0.235322 -0.0132114 0)
(-0.235797 -0.0146259 0)
(-0.235363 -0.0157228 0)
(-0.234274 -0.0165706 0)
(-0.232693 -0.0172201 0)
(-0.23073 -0.0177101 0)
(-0.228463 -0.0180699 0)
(-0.225947 -0.0183223 0)
(-0.223224 -0.0184852 0)
(-0.220329 -0.0185728 0)
(-0.217286 -0.0185967 0)
(-0.214116 -0.0185662 0)
(-0.210839 -0.0184892 0)
(-0.207467 -0.0183722 0)
(-0.204015 -0.0182207 0)
(-0.200492 -0.0180393 0)
(-0.196909 -0.0178319 0)
(-0.193274 -0.0176021 0)
(-0.189594 -0.0173526 0)
(-0.185877 -0.0170862 0)
(-0.182128 -0.016805 0)
(-0.178355 -0.016511 0)
(-0.174561 -0.016206 0)
(-0.170752 -0.0158914 0)
(-0.166933 -0.0155687 0)
(-0.163108 -0.0152391 0)
(-0.159282 -0.0149037 0)
(-0.155459 -0.0145634 0)
(-0.151643 -0.0142193 0)
(-0.147838 -0.0138722 0)
(-0.144048 -0.0135229 0)
(-0.140278 -0.0131721 0)
(-0.13653 -0.0128206 0)
(-0.13281 -0.0124691 0)
(-0.12912 -0.0121184 0)
(-0.125466 -0.0117691 0)
(-0.121851 -0.0114219 0)
(-0.118278 -0.0110778 0)
(-0.114754 -0.0107374 0)
(-0.11128 -0.0104016 0)
(-0.107862 -0.0100715 0)
(-0.104504 -0.00974784 0)
(-0.10121 -0.00943169 0)
(-0.0979849 -0.00912397 0)
(-0.0948318 -0.00882555 0)
(-0.0917235 -0.00853425 0)
(-0.0886324 -0.0082481 0)
(-0.0855622 -0.00796786 0)
(-0.0825164 -0.00769392 0)
(-0.0794987 -0.00742615 0)
(-0.0765133 -0.00716382 0)
(-0.0735641 -0.00690553 0)
(-0.0706555 -0.00664927 0)
(-0.0677915 -0.00639252 0)
(-0.0649765 -0.00613251 0)
(-0.0622145 -0.00586663 0)
(-0.0595097 -0.00559287 0)
(-0.0568662 -0.00531023 0)
(-0.054288 -0.00501906 0)
(-0.0517792 -0.00472105 0)
(-0.049344 -0.0044191 0)
(-0.046986 -0.00411701 0)
(-0.044709 -0.00381911 0)
(-0.0425162 -0.00352982 0)
(-0.0404103 -0.00325316 0)
(-0.0383936 -0.00299238 0)
(-0.036468 -0.00274967 0)
(-0.0346348 -0.00252614 0)
(-0.0328952 -0.00232196 0)
(-0.0312502 -0.00213662 0)
(-0.029701 -0.00196913 0)
(-0.0282484 -0.00181868 0)
(-0.026894 -0.00168399 0)
(-0.0256392 -0.00156509 0)
(-0.0244871 -0.00146071 0)
(-0.0234404 -0.00137262 0)
(-0.0225072 -0.00129913 0)
(-0.0216946 -0.00124561 0)
(-0.0210202 -0.00121171 0)
(-0.0205101 -0.00120336 0)
(-0.0199748 -0.00121725 0)
(0.0542509 3.08926e-05 0)
(0.0575678 0.000127003 0)
(0.0606871 0.000917532 0)
(0.0635872 0.0012414 0)
(0.066242 0.00163966 0)
(0.0686341 0.00195277 0)
(0.0707502 0.00211742 0)
(0.0725647 0.00248529 0)
(0.0741137 0.00195213 0)
(0.0752993 0.00316073 0)
(0.0762973 0.000794115 0)
(0.0768212 0.00451842 0)
(0.0773313 -0.00181326 0)
(0.0771742 0.00768917 0)
(0.0763454 -0.0141099 0)
(0.0749784 -0.0393215 0)
(0.0745063 -0.039526 0)
(0.073923 -0.0395089 0)
(0.0732063 -0.0395082 0)
(0.0723761 -0.0395071 0)
(0.0714465 -0.0395065 0)
(0.070431 -0.0395063 0)
(0.0693424 -0.0395063 0)
(0.0681932 -0.0395066 0)
(0.0669955 -0.0395069 0)
(0.0657615 -0.0395073 0)
(0.0645038 -0.0395077 0)
(0.0632348 -0.0395079 0)
(0.0619678 -0.0395081 0)
(0.0607166 -0.0395079 0)
(0.0594961 -0.0395076 0)
(0.0583223 -0.0395068 0)
(0.057213 -0.0395056 0)
(0.0561886 -0.0395039 0)
(0.0552727 -0.0395015 0)
(0.0544904 -0.0394979 0)
(0.0539133 -0.0394903 0)
(0.0536883 -0.039482 0)
(0.0536662 -0.0394786 0)
(0.0536658 -0.0394783 0)
(0.0536658 -0.0394783 0)
(0.0536658 -0.0394783 0)
(0.0536658 -0.0394783 0)
(0.0536658 -0.0394783 0)
(0.0536658 -0.0394783 0)
(0.0536658 -0.0394783 0)
(0.0536658 -0.0394783 0)
(0.0536658 -0.0394783 0)
(0.0536658 -0.0394783 0)
(0.0536658 -0.0394783 0)
(0.0536658 -0.0394783 0)
(0.0536658 -0.0394783 0)
(0.0536658 -0.0394783 0)
(0.0536658 -0.0394783 0)
(0.0536658 -0.0394783 0)
(0.0536658 -0.0394783 0)
(0.0536658 -0.0394783 0)
(0.0536658 -0.0394783 0)
(0.0536658 -0.0394783 0)
(0.0536658 -0.0394783 0)
(0.0536658 -0.0394783 0)
(0.0536658 -0.0394783 0)
(0.0536658 -0.0394783 0)
(0.0536658 -0.0394783 0)
(0.0536658 -0.0394783 0)
(0.0536658 -0.0394783 0)
(0.0536658 -0.0394783 0)
(0.0536658 -0.0394783 0)
(0.0536658 -0.0394783 0)
(0.0536658 -0.0394783 0)
(0.0536658 -0.0394783 0)
(0.0536658 -0.0394783 0)
(0.0536658 -0.0394783 0)
(0.0536658 -0.0394783 0)
(0.0536658 -0.0394783 0)
(0.0536658 -0.0394783 0)
(0.0536658 -0.0394783 0)
(0.0536658 -0.0394783 0)
(0.0536658 -0.0394783 0)
(0.0536658 -0.0394783 0)
(0.0536658 -0.0394783 0)
(0.0536658 -0.0394783 0)
(0.0536658 -0.0394783 0)
(0.0536658 -0.0394783 0)
(0.0536658 -0.0394783 0)
(0.0536658 -0.0394783 0)
(0.0536658 -0.0394783 0)
(0.0536658 -0.0394783 0)
(0.0536658 -0.0394783 0)
(0.0536658 -0.0394783 0)
(0.0536658 -0.0394783 0)
(0.0536658 -0.0394783 0)
(0.0536658 -0.0394783 0)
(0.0536658 -0.0394783 0)
(0.0536658 -0.0394783 0)
(0.0536658 -0.0394783 0)
(0.0536658 -0.0394783 0)
(0.0536658 -0.0394783 0)
(0.0536658 -0.0394783 0)
(0.0536658 -0.0394783 0)
(0.0536658 -0.0394783 0)
(0.0536658 -0.0394783 0)
(0.0536658 -0.0394783 0)
(0.0536658 -0.0394783 0)
(0.0536658 -0.0394783 0)
(0.0536658 -0.0394783 0)
(0.0536658 -0.0394783 0)
(0.0536658 -0.0394783 0)
(0.0536658 -0.0394783 0)
(0.0536658 -0.0394783 0)
(0.0536658 -0.0394783 0)
(0.0536658 -0.0394783 0)
(0.0536658 -0.0394783 0)
(0.0536658 -0.0394783 0)
(0.0536658 -0.0394783 0)
(0.0536658 -0.0394783 0)
(0.0536658 -0.0394783 0)
(0.0536658 -0.0394783 0)
(0.0536658 -0.0394783 0)
(0.0536659 -0.0394781 0)
(0.0536673 -0.0394696 0)
(0.053701 -0.0391233 0)
(0.0544797 -0.0223598 0)
)
;

boundaryField
{
    inandouthalf11
    {
        type            cyclic;
    }
    inandouthalf12
    {
        type            cyclic;
    }
    inandouthalf21
    {
        type            cyclic;
    }
    inandouthalf22
    {
        type            cyclic;
    }
    inandouthalf31
    {
        type            cyclic;
    }
    inandouthalf32
    {
        type            cyclic;
    }
    inandouthalf41
    {
        type            cyclic;
    }
    inandouthalf42
    {
        type            cyclic;
    }
    top
    {
        type            symmetryPlane;
    }
    walls
    {
        type            fixedValue;
        value           uniform (0 0 0);
    }
    frontAndBackPlanes
    {
        type            empty;
    }
}


// ************************************************************************* //
