/*--------------------------------*- C++ -*----------------------------------*\
| =========                 |                                                 |
| \\      /  F ield         | OpenFOAM: The Open Source CFD Toolbox           |
|  \\    /   O peration     | Version:  2.4.x                                 |
|   \\  /    A nd           | Web:      www.OpenFOAM.org                      |
|    \\/     M anipulation  |                                                 |
\*---------------------------------------------------------------------------*/
FoamFile
{
    version     2.0;
    format      ascii;
    class       volVectorField;
    location    "10.65";
    object      Ub;
}
// * * * * * * * * * * * * * * * * * * * * * * * * * * * * * * * * * * * * * //

dimensions      [0 1 -1 0 0 0 0];

internalField   nonuniform List<vector> 
360
(
(-0.000259563 4.89568e-09 0)
(-0.000258122 1.72834e-08 0)
(-0.000257929 3.16054e-08 0)
(-0.000258126 4.47798e-08 0)
(-0.00025822 5.75654e-08 0)
(-0.000258252 7.03393e-08 0)
(-0.000258291 8.29353e-08 0)
(-0.000258341 9.52077e-08 0)
(-0.000258392 1.07134e-07 0)
(-0.000258444 1.18739e-07 0)
(-0.000258496 1.30047e-07 0)
(-0.000258547 1.41074e-07 0)
(-0.0002586 1.51835e-07 0)
(-0.000258652 1.62347e-07 0)
(-0.000258705 1.72631e-07 0)
(-0.000258759 1.82711e-07 0)
(-0.000258813 1.92613e-07 0)
(-0.000258867 2.02359e-07 0)
(-0.000258922 2.11975e-07 0)
(-0.000258978 2.21483e-07 0)
(-0.000259034 2.30905e-07 0)
(-0.00025909 2.40263e-07 0)
(-0.000259148 2.49577e-07 0)
(-0.000259205 2.58866e-07 0)
(-0.000259264 2.68148e-07 0)
(-0.000259323 2.77437e-07 0)
(-0.000259382 2.86749e-07 0)
(-0.000259443 2.96096e-07 0)
(-0.000259504 3.05492e-07 0)
(-0.000259565 3.14945e-07 0)
(-0.000259627 3.24466e-07 0)
(-0.00025969 3.34062e-07 0)
(-0.000259753 3.43739e-07 0)
(-0.000259818 3.53505e-07 0)
(-0.000259883 3.63364e-07 0)
(-0.000259949 3.73319e-07 0)
(-0.000260015 3.83374e-07 0)
(-0.000260082 3.93532e-07 0)
(-0.000260151 4.03795e-07 0)
(-0.000260219 4.14161e-07 0)
(-0.000260289 4.24635e-07 0)
(-0.000260359 4.35215e-07 0)
(-0.00026043 4.45899e-07 0)
(-0.000260502 4.56688e-07 0)
(-0.000260574 4.67581e-07 0)
(-0.000260648 4.78576e-07 0)
(-0.000260723 4.89673e-07 0)
(-0.000260798 5.00865e-07 0)
(-0.000260874 5.12152e-07 0)
(-0.000260952 5.23534e-07 0)
(-0.000261029 5.35006e-07 0)
(-0.000261109 5.46565e-07 0)
(-0.000261188 5.58208e-07 0)
(-0.00026127 5.69933e-07 0)
(-0.000261351 5.81733e-07 0)
(-0.000261435 5.9361e-07 0)
(-0.000261518 6.05555e-07 0)
(-0.000261604 6.17569e-07 0)
(-0.00026169 6.29645e-07 0)
(-0.000261776 6.41774e-07 0)
(-0.000261865 6.53961e-07 0)
(-0.000261954 6.66196e-07 0)
(-0.000262046 6.78479e-07 0)
(-0.000262137 6.90805e-07 0)
(-0.00026223 7.0317e-07 0)
(-0.000262325 7.15567e-07 0)
(-0.00026242 7.27994e-07 0)
(-0.000262517 7.40444e-07 0)
(-0.000262616 7.52914e-07 0)
(-0.000262715 7.65394e-07 0)
(-0.000262816 7.77883e-07 0)
(-0.000262919 7.90381e-07 0)
(-0.000263022 8.02877e-07 0)
(-0.000263128 8.15371e-07 0)
(-0.000263235 8.27855e-07 0)
(-0.000263344 8.40331e-07 0)
(-0.000263454 8.52789e-07 0)
(-0.000263566 8.65222e-07 0)
(-0.00026368 8.77626e-07 0)
(-0.000263795 8.89995e-07 0)
(-0.000263912 9.02323e-07 0)
(-0.000264031 9.14606e-07 0)
(-0.000264152 9.26841e-07 0)
(-0.000264275 9.39025e-07 0)
(-0.000264401 9.51153e-07 0)
(-0.000264528 9.63221e-07 0)
(-0.000264657 9.75225e-07 0)
(-0.000264789 9.87159e-07 0)
(-0.000264923 9.99015e-07 0)
(-0.000265059 1.01079e-06 0)
(-0.000265198 1.02248e-06 0)
(-0.000265339 1.03407e-06 0)
(-0.000265483 1.04557e-06 0)
(-0.000265629 1.05697e-06 0)
(-0.000265779 1.06827e-06 0)
(-0.000265931 1.07946e-06 0)
(-0.000266087 1.09055e-06 0)
(-0.000266246 1.10153e-06 0)
(-0.000266407 1.11238e-06 0)
(-0.000266573 1.12312e-06 0)
(-0.000266741 1.13374e-06 0)
(-0.000266914 1.14424e-06 0)
(-0.00026709 1.1546e-06 0)
(-0.00026727 1.16485e-06 0)
(-0.000267454 1.17497e-06 0)
(-0.000267643 1.18497e-06 0)
(-0.000267836 1.19485e-06 0)
(-0.000268034 1.20463e-06 0)
(-0.000268236 1.2143e-06 0)
(-0.000268443 1.22388e-06 0)
(-0.000268656 1.23337e-06 0)
(-0.000268874 1.24278e-06 0)
(-0.000269098 1.25213e-06 0)
(-0.000269328 1.26141e-06 0)
(-0.000269564 1.27063e-06 0)
(-0.000269807 1.27978e-06 0)
(-0.000270056 1.28886e-06 0)
(-0.000270313 1.29787e-06 0)
(-0.000270578 1.30676e-06 0)
(-0.00027085 1.31554e-06 0)
(-0.000271131 1.32418e-06 0)
(-0.000271421 1.33266e-06 0)
(-0.00027172 1.34098e-06 0)
(-0.00027203 1.34915e-06 0)
(-0.00027235 1.35721e-06 0)
(-0.000272682 1.36523e-06 0)
(-0.000273026 1.37331e-06 0)
(-0.000273383 1.38162e-06 0)
(-0.000273755 1.39036e-06 0)
(-0.000274142 1.39978e-06 0)
(-0.000274545 1.41016e-06 0)
(-0.000274965 1.42176e-06 0)
(-0.000275404 1.43474e-06 0)
(-0.000275867 1.44901e-06 0)
(-0.000276359 1.46405e-06 0)
(-0.000276882 1.47864e-06 0)
(-0.000277434 1.491e-06 0)
(-0.000278024 1.49951e-06 0)
(-0.000278681 1.50363e-06 0)
(-0.000279433 1.50427e-06 0)
(-0.000280248 1.50275e-06 0)
(-0.000281203 1.47562e-06 0)
(-0.000288059 1.80549e-06 0)
(-0.000287619 2.62628e-06 0)
(-0.000289651 3.72209e-06 0)
(-0.000292811 5.09721e-06 0)
(-0.000296687 7.1207e-06 0)
(-0.000302793 9.6108e-06 0)
(-0.000343032 1.84036e-05 0)
(-0.0153445 -9.51808e-06 0)
(-0.134155 -0.000156463 0)
(-0.198212 0.000155904 0)
(-0.224635 7.04855e-05 0)
(-0.236295 0.0001286 0)
(-0.241702 0.000117442 0)
(-0.244165 0.000111654 0)
(-0.245027 0.00010567 0)
(-0.244897 9.94431e-05 0)
(-0.244087 9.32801e-05 0)
(-0.242775 8.73917e-05 0)
(-0.241073 8.18404e-05 0)
(-0.239056 7.66268e-05 0)
(-0.23678 7.17357e-05 0)
(-0.234284 6.71478e-05 0)
(-0.231603 6.28432e-05 0)
(-0.228761 5.88025e-05 0)
(-0.225781 5.50076e-05 0)
(-0.222681 5.14418e-05 0)
(-0.219477 4.80899e-05 0)
(-0.216182 4.4938e-05 0)
(-0.212809 4.19738e-05 0)
(-0.209368 3.91855e-05 0)
(-0.205868 3.65629e-05 0)
(-0.202318 3.40961e-05 0)
(-0.198724 3.17762e-05 0)
(-0.195093 2.9595e-05 0)
(-0.191432 2.75446e-05 0)
(-0.187744 2.56179e-05 0)
(-0.184036 2.38082e-05 0)
(-0.180312 2.21089e-05 0)
(-0.176575 2.05142e-05 0)
(-0.172828 1.90184e-05 0)
(-0.169076 1.76161e-05 0)
(-0.165321 1.63023e-05 0)
(-0.161565 1.50721e-05 0)
(-0.157812 1.39212e-05 0)
(-0.154063 1.2845e-05 0)
(-0.15032 1.18396e-05 0)
(-0.146586 1.0901e-05 0)
(-0.142862 1.00255e-05 0)
(-0.13915 9.20965e-06 0)
(-0.135451 8.45009e-06 0)
(-0.131767 7.74368e-06 0)
(-0.128098 7.08739e-06 0)
(-0.124447 6.47841e-06 0)
(-0.120813 5.91405e-06 0)
(-0.117199 5.39177e-06 0)
(-0.113605 4.90916e-06 0)
(-0.110032 4.46396e-06 0)
(-0.106481 4.05401e-06 0)
(-0.102952 3.67726e-06 0)
(-0.0994108 3.32822e-06 0)
(-0.0958223 3.00289e-06 0)
(-0.0921867 2.70088e-06 0)
(-0.088504 2.42167e-06 0)
(-0.0847746 2.16453e-06 0)
(-0.0809989 1.92857e-06 0)
(-0.0771774 1.71272e-06 0)
(-0.0733106 1.51576e-06 0)
(-0.0693994 1.33635e-06 0)
(-0.0654446 1.17314e-06 0)
(-0.0614474 1.02477e-06 0)
(-0.0574088 8.90043e-07 0)
(-0.0533304 7.67897e-07 0)
(-0.0492137 6.57485e-07 0)
(-0.0450607 5.58153e-07 0)
(-0.0408733 4.69406e-07 0)
(-0.0366539 3.90853e-07 0)
(-0.0324051 3.2214e-07 0)
(-0.02813 2.62868e-07 0)
(-0.0238319 2.12524e-07 0)
(-0.0195145 1.70438e-07 0)
(-0.0151821 1.35784e-07 0)
(-0.0108393 1.07627e-07 0)
(-0.00649151 8.49931e-08 0)
(-0.00214455 6.69432e-08 0)
(0.00219495 5.26225e-08 0)
(0.00651963 4.13059e-08 0)
(0.0108212 3.23779e-08 0)
(0.0150905 2.53606e-08 0)
(0.0193173 1.9853e-08 0)
(0.0234901 1.55608e-08 0)
(0.0275961 1.22093e-08 0)
(0.0316212 9.62717e-09 0)
(0.0355498 7.77502e-09 0)
(0.0393647 6.72701e-09 0)
(0.0430472 4.36001e-09 0)
(0.0465772 8.06891e-10 0)
(0.0499323 -1.08303e-09 0)
(0.0530902 -1.76515e-09 0)
(0.0560282 -1.89071e-09 0)
(0.0587239 -1.69554e-09 0)
(0.0611569 -1.36386e-09 0)
(0.0633096 -1.01029e-09 0)
(0.0651693 -6.98734e-10 0)
(0.0667289 -4.53546e-10 0)
(0.0679883 -2.76797e-10 0)
(0.0689545 -1.59942e-10 0)
(0.0696407 -8.55762e-11 0)
(0.0700655 -4.48662e-11 0)
(0.0702503 -8.46412e-12 0)
(0.0702181 8.15457e-12 0)
(0.0699918 -2.8304e-12 0)
(0.0695928 -3.87461e-12 0)
(0.0690411 -3.11763e-12 0)
(0.0683546 -2.79102e-12 0)
(0.0675496 -2.69277e-12 0)
(0.0666411 -2.58662e-12 0)
(0.065643 -2.45643e-12 0)
(0.0645684 -2.32042e-12 0)
(0.0634301 -2.18584e-12 0)
(0.0622404 -2.05188e-12 0)
(0.0610116 -1.92417e-12 0)
(0.0597564 -1.81994e-12 0)
(0.0584873 -1.716e-12 0)
(0.0572177 -1.38358e-12 0)
(0.0559613 -4.28925e-13 0)
(0.054733 -9.07694e-12 0)
(0.0535486 2.10055e-11 0)
(0.0524259 -4.88034e-11 0)
(0.0513848 8.28725e-11 0)
(0.0504489 -1.33743e-10 0)
(0.0496487 1.9069e-10 0)
(0.0490238 -2.61086e-10 0)
(0.0487454 3.33117e-10 0)
(0.0487165 -4.12802e-10 0)
(0.0487159 4.90439e-10 0)
(0.0487159 -5.73547e-10 0)
(0.0487159 6.54638e-10 0)
(0.0487159 -7.40918e-10 0)
(0.0487159 8.25697e-10 0)
(0.0487159 -9.15422e-10 0)
(0.0487159 1.00409e-09 0)
(0.0487159 -1.0975e-09 0)
(0.0487159 1.19027e-09 0)
(0.0487159 -1.28754e-09 0)
(0.0487159 1.38458e-09 0)
(0.0487159 -1.48582e-09 0)
(0.0487159 1.5873e-09 0)
(0.0487159 -1.69265e-09 0)
(0.0487159 1.79864e-09 0)
(0.0487159 -1.90819e-09 0)
(0.0487159 2.01877e-09 0)
(0.0487159 -2.13256e-09 0)
(0.0487159 2.24779e-09 0)
(0.0487159 -2.36586e-09 0)
(0.0487159 2.48573e-09 0)
(0.0487159 -2.60819e-09 0)
(0.0487159 2.73256e-09 0)
(0.0487159 -2.85941e-09 0)
(0.0487159 2.98826e-09 0)
(0.0487159 -3.11943e-09 0)
(0.0487159 3.25266e-09 0)
(0.0487159 -3.38807e-09 0)
(0.0487159 3.52556e-09 0)
(0.0487159 -3.66508e-09 0)
(0.0487159 3.80665e-09 0)
(0.0487159 -3.95009e-09 0)
(0.0487159 4.09552e-09 0)
(0.0487159 -4.24264e-09 0)
(0.0487159 3.85669e-09 0)
(0.0487159 -3.91807e-09 0)
(0.0487159 3.97888e-09 0)
(0.0487159 -4.0388e-09 0)
(0.0487159 4.09817e-09 0)
(0.0487159 -4.15661e-09 0)
(0.0487159 4.2145e-09 0)
(0.0487159 -4.27144e-09 0)
(0.0487159 4.32784e-09 0)
(0.0487159 -4.38327e-09 0)
(0.0487159 4.43815e-09 0)
(0.0487159 -4.49205e-09 0)
(0.0487159 4.54539e-09 0)
(0.0487159 -4.59774e-09 0)
(0.0487159 4.64951e-09 0)
(0.0487159 -4.70028e-09 0)
(0.0487159 4.75044e-09 0)
(0.0487159 -4.7996e-09 0)
(0.0487159 4.84815e-09 0)
(0.0487159 -4.89561e-09 0)
(0.0487159 4.94259e-09 0)
(0.0487159 -4.98825e-09 0)
(0.0487159 5.03363e-09 0)
(0.0487159 -5.07745e-09 0)
(0.0487159 5.12118e-09 0)
(0.0487159 -5.16312e-09 0)
(0.0487159 5.20512e-09 0)
(0.0487159 -5.24511e-09 0)
(0.0487159 5.28532e-09 0)
(0.0487159 -5.3233e-09 0)
(0.0487159 5.36162e-09 0)
(0.0487159 -5.39751e-09 0)
(0.0487159 5.43384e-09 0)
(0.0487159 -5.46756e-09 0)
(0.0487159 5.50177e-09 0)
(0.0487159 -5.53316e-09 0)
(0.0487159 5.56518e-09 0)
(0.0487159 -5.59405e-09 0)
(0.0487159 5.6237e-09 0)
(0.0487159 -5.64985e-09 0)
(0.0487159 5.67692e-09 0)
(0.0487159 -5.70009e-09 0)
(0.0487159 5.72429e-09 0)
(0.0487159 -5.74407e-09 0)
(0.0487159 5.76498e-09 0)
(0.0487159 -5.78079e-09 0)
(0.0487159 5.79759e-09 0)
(0.0487159 -5.80832e-09 0)
(0.0487159 5.81949e-09 0)
(0.0487159 -5.82261e-09 0)
)
;

boundaryField
{
    inandouthalf11
    {
        type            cyclic;
    }
    inandouthalf12
    {
        type            cyclic;
    }
    inandouthalf21
    {
        type            cyclic;
    }
    inandouthalf22
    {
        type            cyclic;
    }
    inandouthalf31
    {
        type            cyclic;
    }
    inandouthalf32
    {
        type            cyclic;
    }
    inandouthalf41
    {
        type            cyclic;
    }
    inandouthalf42
    {
        type            cyclic;
    }
    top
    {
        type            symmetryPlane;
    }
    walls
    {
        type            fixedValue;
        value           uniform (0 0 0);
    }
    frontAndBackPlanes
    {
        type            empty;
    }
}


// ************************************************************************* //
