/*--------------------------------*- C++ -*----------------------------------*\
| =========                 |                                                 |
| \\      /  F ield         | OpenFOAM: The Open Source CFD Toolbox           |
|  \\    /   O peration     | Version:  2.4.x                                 |
|   \\  /    A nd           | Web:      www.OpenFOAM.org                      |
|    \\/     M anipulation  |                                                 |
\*---------------------------------------------------------------------------*/
FoamFile
{
    version     2.0;
    format      ascii;
    class       volScalarField;
    location    "12.3";
    object      alpha;
}
// * * * * * * * * * * * * * * * * * * * * * * * * * * * * * * * * * * * * * //

dimensions      [0 0 0 0 0 0 0];

internalField   nonuniform List<scalar> 
360
(
0.610896
0.611764
0.611854
0.611763
0.611721
0.611708
0.611691
0.611669
0.611647
0.611624
0.611601
0.611578
0.611555
0.611532
0.611508
0.611484
0.61146
0.611436
0.611411
0.611386
0.611361
0.611336
0.61131
0.611285
0.611258
0.611232
0.611205
0.611178
0.611151
0.611124
0.611096
0.611068
0.611039
0.61101
0.610982
0.610952
0.610923
0.610893
0.610862
0.610832
0.610801
0.610769
0.610738
0.610706
0.610673
0.61064
0.610607
0.610574
0.61054
0.610505
0.610471
0.610436
0.6104
0.610364
0.610328
0.610291
0.610254
0.610215
0.610177
0.610139
0.610099
0.61006
0.610019
0.609978
0.609937
0.609895
0.609852
0.609809
0.609766
0.609721
0.609676
0.609631
0.609585
0.609538
0.60949
0.609442
0.609393
0.609343
0.609292
0.609241
0.609189
0.609136
0.609082
0.609027
0.608972
0.608915
0.608858
0.608799
0.60874
0.608679
0.608617
0.608555
0.60849
0.608425
0.608359
0.608291
0.608222
0.608151
0.60808
0.608006
0.607931
0.607855
0.607776
0.607697
0.607615
0.607531
0.607446
0.607358
0.607268
0.607177
0.607083
0.606986
0.606887
0.606786
0.606681
0.606574
0.606464
0.606351
0.606234
0.606115
0.605991
0.605863
0.605732
0.605596
0.605456
0.60531
0.60516
0.605004
0.604842
0.604674
0.604499
0.604317
0.604127
0.603926
0.603713
0.603485
0.603244
0.602987
0.602702
0.602378
0.602028
0.601615
0.598783
0.599203
0.598689
0.597837
0.594747
0.442792
0.287275
0.22747
0.190559
0.159897
0.133419
0.110411
0.0906444
0.0739487
0.0600803
0.0487168
0.0394966
0.0320602
0.0260799
0.0212727
0.0174041
0.0142833
0.0117582
0.009708
0.00803744
0.00667126
0.00555
0.00462659
0.0038636
0.00323119
0.00270545
0.00226704
0.00190018
0.00159173
0.00133084
0.00110898
0.000920198
0.000760836
0.000628458
0.000520576
0.000434035
0.000365209
0.000310525
0.000266859
0.000231683
0.000203036
0.000179433
0.000159757
0.000143169
0.000129036
0.000116876
0.000106317
9.70717e-05
8.89151e-05
8.16685e-05
7.51895e-05
6.93635e-05
6.40975e-05
5.93155e-05
5.4911e-05
5.08049e-05
4.69707e-05
4.33855e-05
4.00297e-05
3.6887e-05
3.3943e-05
3.11857e-05
2.86045e-05
2.61899e-05
2.39334e-05
2.1827e-05
1.98632e-05
1.80348e-05
1.63347e-05
1.47563e-05
1.32932e-05
1.19394e-05
1.06892e-05
9.53736e-06
8.47905e-06
7.50964e-06
6.62458e-06
5.81916e-06
5.08791e-06
4.42377e-06
3.81729e-06
3.25675e-06
2.73086e-06
2.23642e-06
1.79053e-06
1.43312e-06
1.19269e-06
1.03617e-06
8.98667e-07
7.84367e-07
6.24052e-07
4.91895e-07
3.86411e-07
3.0212e-07
2.34723e-07
1.80878e-07
1.37949e-07
1.03839e-07
7.68618e-08
5.56506e-08
3.90938e-08
2.62803e-08
1.6453e-08
9.02e-09
3.4228e-09
3.93935e-11
2.83668e-22
1.34277e-33
4.89624e-45
1.36613e-56
2.97175e-68
9.94122e-76
5.26246e-76
2.58761e-76
1.30092e-76
6.43279e-77
3.13475e-77
1.50296e-77
7.08631e-78
3.28396e-78
1.49503e-78
6.68239e-79
2.93087e-79
1.26061e-79
5.31374e-80
2.19366e-80
8.863e-81
3.50194e-81
1.3521e-81
5.09702e-82
1.87431e-82
6.71682e-83
2.34341e-83
7.94982e-84
2.61934e-84
8.37279e-85
2.59307e-85
7.76951e-86
2.24869e-86
6.27599e-87
1.68597e-87
4.35065e-88
1.07605e-88
2.5446e-89
5.73774e-90
1.22994e-90
2.49795e-91
4.78826e-92
8.62543e-93
1.45287e-93
2.27515e-94
3.28991e-95
4.35758e-96
5.2355e-97
5.63759e-98
5.35838e-99
4.40692e-100
3.05227e-101
1.712e-102
7.31262e-104
2.12858e-105
3.23913e-107
2.75418e-110
9.2738e-118
5.09604e-120
1.38392e-122
6.46997e-133
1.54638e-143
2.77032e-154
3.64658e-165
4.15883e-176
3.72132e-187
2.83484e-198
3.36576e-209
1.15088e-219
5.35877e-228
3.02363e-238
1.84259e-246
1.2264e-256
6.34615e-265
5.15708e-275
2.19001e-283
3.30143e-293
7.81488e-302
2.19375e-311
4.10074e-322
6.79834e-321
7.96928e-321
7.83094e-321
2.51973e-321
8.86848e-321
4.57737e-319
2.8055e-319
6.80328e-321
7.09478e-321
6.08689e-321
8.5424e-321
0
0
0
0
0
0
0
0
0
0
0
0
0
0
0
0
)
;

boundaryField
{
    inandouthalf11
    {
        type            cyclic;
    }
    inandouthalf12
    {
        type            cyclic;
    }
    inandouthalf21
    {
        type            cyclic;
    }
    inandouthalf22
    {
        type            cyclic;
    }
    inandouthalf31
    {
        type            cyclic;
    }
    inandouthalf32
    {
        type            cyclic;
    }
    inandouthalf41
    {
        type            cyclic;
    }
    inandouthalf42
    {
        type            cyclic;
    }
    top
    {
        type            symmetryPlane;
    }
    walls
    {
        type            zeroGradient;
    }
    frontAndBackPlanes
    {
        type            empty;
    }
}


// ************************************************************************* //
