/*--------------------------------*- C++ -*----------------------------------*\
| =========                 |                                                 |
| \\      /  F ield         | OpenFOAM: The Open Source CFD Toolbox           |
|  \\    /   O peration     | Version:  2.4.x                                 |
|   \\  /    A nd           | Web:      www.OpenFOAM.org                      |
|    \\/     M anipulation  |                                                 |
\*---------------------------------------------------------------------------*/
FoamFile
{
    version     2.0;
    format      ascii;
    class       volVectorField;
    location    "12.3";
    object      ddt0(Ua);
}
// * * * * * * * * * * * * * * * * * * * * * * * * * * * * * * * * * * * * * //

dimensions      [0 1 -2 0 0 0 0];

internalField   nonuniform List<vector> 
360
(
(6.71674e-33 -2.08514e-33 0)
(7.41043e-10 2.29744e-09 0)
(1.55975e-09 4.14631e-09 0)
(2.32052e-09 5.84486e-09 0)
(3.12389e-09 7.71235e-09 0)
(3.99058e-09 9.73767e-09 0)
(4.90224e-09 1.18553e-08 0)
(5.85071e-09 1.40508e-08 0)
(6.83708e-09 1.63289e-08 0)
(7.86312e-09 1.86915e-08 0)
(8.92914e-09 2.11366e-08 0)
(1.00338e-08 2.36584e-08 0)
(1.11748e-08 2.62483e-08 0)
(1.23488e-08 2.88963e-08 0)
(1.35523e-08 3.15918e-08 0)
(1.47815e-08 3.43234e-08 0)
(1.60321e-08 3.70792e-08 0)
(1.72995e-08 3.98465e-08 0)
(1.85788e-08 4.26121e-08 0)
(1.9865e-08 4.5363e-08 0)
(2.1153e-08 4.80861e-08 0)
(2.24377e-08 5.07688e-08 0)
(2.37142e-08 5.33994e-08 0)
(2.49779e-08 5.59668e-08 0)
(2.62243e-08 5.84608e-08 0)
(2.74491e-08 6.08721e-08 0)
(2.86485e-08 6.31924e-08 0)
(2.98191e-08 6.54151e-08 0)
(3.0958e-08 6.75347e-08 0)
(3.20624e-08 6.95466e-08 0)
(3.31303e-08 7.14477e-08 0)
(3.416e-08 7.32362e-08 0)
(3.51503e-08 7.49113e-08 0)
(3.61005e-08 7.64734e-08 0)
(3.70102e-08 7.79243e-08 0)
(3.78793e-08 7.9266e-08 0)
(3.87084e-08 8.05018e-08 0)
(3.9498e-08 8.16357e-08 0)
(4.02495e-08 8.26726e-08 0)
(4.09638e-08 8.36173e-08 0)
(4.16426e-08 8.44754e-08 0)
(4.22877e-08 8.52531e-08 0)
(4.29007e-08 8.59561e-08 0)
(4.34837e-08 8.65908e-08 0)
(4.40388e-08 8.71637e-08 0)
(4.45681e-08 8.76808e-08 0)
(4.50737e-08 8.81485e-08 0)
(4.55576e-08 8.85726e-08 0)
(4.6022e-08 8.89591e-08 0)
(4.64692e-08 8.93139e-08 0)
(4.6901e-08 8.96421e-08 0)
(4.73194e-08 8.99489e-08 0)
(4.77263e-08 9.02392e-08 0)
(4.81236e-08 9.05175e-08 0)
(4.85129e-08 9.0788e-08 0)
(4.8896e-08 9.10547e-08 0)
(4.92742e-08 9.1321e-08 0)
(4.96491e-08 9.15903e-08 0)
(5.00219e-08 9.18655e-08 0)
(5.03938e-08 9.21493e-08 0)
(5.0766e-08 9.24441e-08 0)
(5.11395e-08 9.2752e-08 0)
(5.15154e-08 9.3075e-08 0)
(5.18944e-08 9.34147e-08 0)
(5.22773e-08 9.37725e-08 0)
(5.26648e-08 9.41496e-08 0)
(5.30574e-08 9.45468e-08 0)
(5.34558e-08 9.49652e-08 0)
(5.38602e-08 9.54052e-08 0)
(5.42711e-08 9.58671e-08 0)
(5.46889e-08 9.63514e-08 0)
(5.51138e-08 9.68585e-08 0)
(5.5546e-08 9.73881e-08 0)
(5.59857e-08 9.79403e-08 0)
(5.64331e-08 9.8515e-08 0)
(5.68883e-08 9.91119e-08 0)
(5.73512e-08 9.97307e-08 0)
(5.78218e-08 1.00371e-07 0)
(5.83e-08 1.01031e-07 0)
(5.87857e-08 1.01712e-07 0)
(5.92787e-08 1.02412e-07 0)
(5.9779e-08 1.03131e-07 0)
(6.02865e-08 1.03869e-07 0)
(6.08009e-08 1.04623e-07 0)
(6.13221e-08 1.05394e-07 0)
(6.18499e-08 1.06181e-07 0)
(6.23841e-08 1.06982e-07 0)
(6.29243e-08 1.07798e-07 0)
(6.34703e-08 1.08626e-07 0)
(6.40216e-08 1.09467e-07 0)
(6.45779e-08 1.10318e-07 0)
(6.5139e-08 1.11178e-07 0)
(6.57045e-08 1.12048e-07 0)
(6.62742e-08 1.12926e-07 0)
(6.68478e-08 1.13811e-07 0)
(6.74251e-08 1.14702e-07 0)
(6.80057e-08 1.15598e-07 0)
(6.85894e-08 1.16499e-07 0)
(6.91758e-08 1.17403e-07 0)
(6.97647e-08 1.1831e-07 0)
(7.03559e-08 1.19218e-07 0)
(7.0949e-08 1.20127e-07 0)
(7.15439e-08 1.21037e-07 0)
(7.21405e-08 1.21946e-07 0)
(7.27386e-08 1.22854e-07 0)
(7.33382e-08 1.2376e-07 0)
(7.39394e-08 1.24664e-07 0)
(7.4542e-08 1.25565e-07 0)
(7.51463e-08 1.26463e-07 0)
(7.57524e-08 1.27359e-07 0)
(7.63604e-08 1.2825e-07 0)
(7.69706e-08 1.29139e-07 0)
(7.75831e-08 1.30023e-07 0)
(7.81984e-08 1.30903e-07 0)
(7.88164e-08 1.31778e-07 0)
(7.94375e-08 1.32648e-07 0)
(8.00616e-08 1.33512e-07 0)
(8.06888e-08 1.3437e-07 0)
(8.13188e-08 1.3522e-07 0)
(8.19512e-08 1.36061e-07 0)
(8.25856e-08 1.36892e-07 0)
(8.32214e-08 1.3771e-07 0)
(8.3858e-08 1.38514e-07 0)
(8.44949e-08 1.39303e-07 0)
(8.5132e-08 1.40075e-07 0)
(8.57698e-08 1.40829e-07 0)
(8.64099e-08 1.41567e-07 0)
(8.70553e-08 1.42291e-07 0)
(8.77107e-08 1.43003e-07 0)
(8.83819e-08 1.43709e-07 0)
(8.90761e-08 1.44412e-07 0)
(8.97995e-08 1.45115e-07 0)
(9.05566e-08 1.45819e-07 0)
(9.13457e-08 1.46517e-07 0)
(9.21523e-08 1.47195e-07 0)
(9.29392e-08 1.47821e-07 0)
(9.36436e-08 1.48349e-07 0)
(9.4196e-08 1.48736e-07 0)
(9.45585e-08 1.48971e-07 0)
(9.47511e-08 1.49085e-07 0)
(9.48379e-08 1.49129e-07 0)
(9.48867e-08 1.49142e-07 0)
(9.49412e-08 1.49175e-07 0)
(9.50312e-08 1.49245e-07 0)
(9.50964e-08 1.49263e-07 0)
(9.51655e-08 1.49261e-07 0)
(9.53595e-08 1.49239e-07 0)
(0.0435513 -3.27313e-06 0)
(0.0692154 -0.000197159 0)
(0.0699967 -0.000289073 0)
(0.0732728 -0.000340438 0)
(0.0780635 -0.000368011 0)
(0.083545 -0.000390196 0)
(0.0892922 -0.000408634 0)
(0.0950661 -0.00042781 0)
(0.100719 -0.000452713 0)
(0.106156 -0.000487956 0)
(0.111322 -0.000537114 0)
(0.116184 -0.000602675 0)
(0.120724 -0.000687945 0)
(0.124931 -0.000793072 0)
(0.128797 -0.000916708 0)
(0.132311 -0.00105844 0)
(0.135462 -0.00121681 0)
(0.138235 -0.0013895 0)
(0.140614 -0.00157333 0)
(0.14258 -0.00176427 0)
(0.144117 -0.00195723 0)
(0.145208 -0.00214588 0)
(0.145841 -0.0023223 0)
(0.146007 -0.00247685 0)
(0.145704 -0.00259788 0)
(0.144936 -0.00267091 0)
(0.143717 -0.00267508 0)
(0.142071 -0.00257546 0)
(0.140036 -0.00231444 0)
(0.137668 -0.00181472 0)
(0.135042 -0.00100845 0)
(0.132249 0.000113308 0)
(0.129387 0.001468 0)
(0.126537 0.00290302 0)
(0.123754 0.00425984 0)
(0.121064 0.00542972 0)
(0.118469 0.00636874 0)
(0.11596 0.00708149 0)
(0.113524 0.00759724 0)
(0.111149 0.00795265 0)
(0.108827 0.00818265 0)
(0.106552 0.00831712 0)
(0.104322 0.00838024 0)
(0.102137 0.0083911 0)
(0.0999987 0.00836459 0)
(0.0979101 0.00831223 0)
(0.0958738 0.00824288 0)
(0.0938928 0.00816336 0)
(0.0919695 0.00807887 0)
(0.0901061 0.00799334 0)
(0.0883043 0.00790969 0)
(0.0865651 0.0078301 0)
(0.0848891 0.0077561 0)
(0.0832765 0.00768876 0)
(0.0817113 0.00762818 0)
(0.0801795 0.0075746 0)
(0.0786827 0.00752874 0)
(0.0772221 0.00749116 0)
(0.075799 0.00746232 0)
(0.0744142 0.00744254 0)
(0.0730683 0.00743205 0)
(0.071762 0.00743097 0)
(0.0704955 0.00743934 0)
(0.0692691 0.00745712 0)
(0.0680828 0.00748419 0)
(0.0669365 0.00752035 0)
(0.06583 0.00756537 0)
(0.064763 0.00761898 0)
(0.063735 0.00768085 0)
(0.0627457 0.00775068 0)
(0.0617944 0.00782814 0)
(0.0608804 0.00791293 0)
(0.0600031 0.00800476 0)
(0.0591619 0.00810337 0)
(0.058356 0.00820852 0)
(0.0575848 0.00832 0)
(0.056848 0.00843758 0)
(0.0561453 0.00856095 0)
(0.0554767 0.00868966 0)
(0.0548422 0.00882288 0)
(0.0542418 0.00895913 0)
(0.0536744 0.00909588 0)
(0.0531372 0.00922921 0)
(0.052625 0.00935396 0)
(0.0521316 0.00946589 0)
(0.0516559 0.0095672 0)
(0.0512115 0.00966721 0)
(0.0508228 0.00976303 0)
(0.0505127 0.00983115 0)
(0.0501641 0.009881 0)
(-0.0308678 0.0131061 0)
(-0.0321623 0.0100052 0)
(-0.0334321 0.00937595 0)
(-0.0346913 0.00753317 0)
(-0.0359234 0.00600586 0)
(-0.037129 0.00467576 0)
(-0.0383036 0.00360971 0)
(-0.0394418 0.00275139 0)
(-0.0405383 0.00200822 0)
(-0.0415849 0.00125723 0)
(-0.0425916 0.000516571 0)
(-0.0434862 0.00301404 0)
(-0.0444942 -0.00841999 0)
(-0.0455381 0.0210413 0)
(-0.0454606 -0.0395424 0)
(-0.0458727 -0.0453799 0)
(-0.0464432 -0.00364026 0)
(-0.0467924 0.000312048 0)
(-0.0470154 2.38649e-05 0)
(-0.0470884 3.90811e-05 0)
(-0.0470015 3.24153e-05 0)
(-0.0467408 2.66906e-05 0)
(-0.0462956 2.04435e-05 0)
(-0.0456583 1.39266e-05 0)
(-0.0448263 7.34152e-06 0)
(-0.0438044 9.57706e-07 0)
(-0.0426063 -4.90648e-06 0)
(-0.0412574 -9.91511e-06 0)
(-0.0397965 -1.38052e-05 0)
(-0.0383051 -1.71652e-05 0)
(-0.0365786 -1.60021e-05 0)
(-0.0352998 -1.67687e-05 0)
(-0.033782 -1.51023e-05 0)
(-0.0324996 -1.27679e-05 0)
(-0.0313704 -1.00653e-05 0)
(-0.0304218 -7.38635e-06 0)
(-0.0296656 -5.04467e-06 0)
(-0.0291079 -3.27588e-06 0)
(-0.028751 -2.26871e-06 0)
(-0.0285948 -2.33251e-06 0)
(-0.0286111 -4.42033e-06 0)
(-0.0291285 -1.01224e-05 0)
(-0.0299904 -9.58631e-06 0)
(-0.0302491 -2.93293e-06 0)
(-0.0302583 -7.74096e-07 0)
(-0.0302584 -6.99079e-07 0)
(-0.0302584 -6.97964e-07 0)
(-0.0302584 -6.98058e-07 0)
(-0.0302584 -6.97944e-07 0)
(-0.0302584 -6.98065e-07 0)
(-0.0302584 -6.97936e-07 0)
(-0.0302584 -6.98072e-07 0)
(-0.0302584 -6.97929e-07 0)
(-0.0302584 -6.98079e-07 0)
(-0.0302584 -6.9792e-07 0)
(-0.0302584 -6.98086e-07 0)
(-0.0302584 -6.9791e-07 0)
(-0.0302584 -6.98093e-07 0)
(-0.0302584 -6.97898e-07 0)
(-0.0302584 -6.981e-07 0)
(-0.0302584 -6.97893e-07 0)
(-0.0302584 -6.98114e-07 0)
(-0.0302584 -6.97885e-07 0)
(-0.0302584 -6.98125e-07 0)
(-0.0302584 -6.97877e-07 0)
(-0.0302584 -6.98136e-07 0)
(-0.0302584 -6.97867e-07 0)
(-0.0302584 -6.98147e-07 0)
(-0.0302584 -6.97857e-07 0)
(-0.0302584 -6.98159e-07 0)
(-0.0302584 -6.97848e-07 0)
(-0.0302584 -6.98171e-07 0)
(-0.0302584 -6.97836e-07 0)
(-0.0302584 -6.98159e-07 0)
(-0.0302584 -6.9785e-07 0)
(-0.0302584 -6.98162e-07 0)
(-0.0302584 -6.97847e-07 0)
(-0.0302584 -6.98167e-07 0)
(-0.0302584 -6.97844e-07 0)
(-0.0302584 -6.98172e-07 0)
(-0.0302584 -6.97841e-07 0)
(-0.0302584 -6.98175e-07 0)
(-0.0302584 -6.97836e-07 0)
(-0.0302584 -6.98178e-07 0)
(-0.0302584 -6.97832e-07 0)
(-0.0302584 -6.98181e-07 0)
(-0.0302584 -6.97828e-07 0)
(-0.0302584 -6.98184e-07 0)
(-0.0302584 -6.97824e-07 0)
(-0.0302584 -6.98185e-07 0)
(-0.0302584 -6.97813e-07 0)
(-0.0302584 -6.98182e-07 0)
(-0.0302584 -6.97815e-07 0)
(-0.0302584 -6.98193e-07 0)
(-0.0302584 -6.97815e-07 0)
(-0.0302584 -6.98197e-07 0)
(-0.0302584 -6.97813e-07 0)
(-0.0302584 -6.982e-07 0)
(-0.0302584 -6.9781e-07 0)
(-0.0302584 -6.98204e-07 0)
(-0.0302584 -6.97809e-07 0)
(-0.0302584 -6.98207e-07 0)
(-0.0302584 -6.97806e-07 0)
(-0.0302584 -6.98209e-07 0)
(-0.0302584 -6.97803e-07 0)
(-0.0302584 -6.98211e-07 0)
(-0.0302584 -6.978e-07 0)
(-0.0302584 -6.98213e-07 0)
(-0.0302584 -6.97798e-07 0)
(-0.0302584 -6.98215e-07 0)
(-0.0302584 -6.97796e-07 0)
(-0.0302584 -6.98217e-07 0)
(-0.0302584 -6.97793e-07 0)
(-0.0302584 -6.98217e-07 0)
(-0.0302584 -6.9779e-07 0)
(-0.0302584 -6.98217e-07 0)
(-0.0302584 -6.97777e-07 0)
(-0.0302584 -6.98239e-07 0)
(-0.0302584 -6.97764e-07 0)
(-0.0302584 -6.98277e-07 0)
(-0.0302587 -6.98648e-07 0)
(-0.0302653 -7.17305e-07 0)
(-0.0304162 -1.43238e-06 0)
)
;

boundaryField
{
    inandouthalf11
    {
        type            cyclic;
    }
    inandouthalf12
    {
        type            cyclic;
    }
    inandouthalf21
    {
        type            cyclic;
    }
    inandouthalf22
    {
        type            cyclic;
    }
    inandouthalf31
    {
        type            cyclic;
    }
    inandouthalf32
    {
        type            cyclic;
    }
    inandouthalf41
    {
        type            cyclic;
    }
    inandouthalf42
    {
        type            cyclic;
    }
    top
    {
        type            symmetryPlane;
    }
    walls
    {
        type            calculated;
        value           uniform (0 0 0);
    }
    frontAndBackPlanes
    {
        type            empty;
    }
}


// ************************************************************************* //
