/*--------------------------------*- C++ -*----------------------------------*\
| =========                 |                                                 |
| \\      /  F ield         | OpenFOAM: The Open Source CFD Toolbox           |
|  \\    /   O peration     | Version:  2.4.x                                 |
|   \\  /    A nd           | Web:      www.OpenFOAM.org                      |
|    \\/     M anipulation  |                                                 |
\*---------------------------------------------------------------------------*/
FoamFile
{
    version     2.0;
    format      ascii;
    class       surfaceScalarField;
    location    "12.3";
    object      ddt0(phib);
}
// * * * * * * * * * * * * * * * * * * * * * * * * * * * * * * * * * * * * * //

dimensions      [0 3 -2 0 0 0 0];

internalField   nonuniform List<scalar> 
359
(
-7.88339e-15
-1.97995e-14
-3.12392e-14
-4.27297e-14
-5.50061e-14
-6.8021e-14
-8.16143e-14
-9.5714e-14
-1.10324e-13
-1.25441e-13
-1.41058e-13
-1.57144e-13
-1.73601e-13
-1.90427e-13
-2.07505e-13
-2.24734e-13
-2.42105e-13
-2.59491e-13
-2.76837e-13
-2.94036e-13
-3.11012e-13
-3.27678e-13
-3.43979e-13
-3.59865e-13
-3.75233e-13
-3.9006e-13
-4.0433e-13
-4.17897e-13
-4.30841e-13
-4.43078e-13
-4.54607e-13
-4.65447e-13
-4.75564e-13
-4.84973e-13
-4.93672e-13
-5.01715e-13
-5.09115e-13
-5.15867e-13
-5.21992e-13
-5.2757e-13
-5.32643e-13
-5.3721e-13
-5.41348e-13
-5.4507e-13
-5.48416e-13
-5.51426e-13
-5.54125e-13
-5.56592e-13
-5.58852e-13
-5.60904e-13
-5.62802e-13
-5.64575e-13
-5.66255e-13
-5.67876e-13
-5.69475e-13
-5.71009e-13
-5.72579e-13
-5.74212e-13
-5.75878e-13
-5.7758e-13
-5.79381e-13
-5.81254e-13
-5.8323e-13
-5.85284e-13
-5.87505e-13
-5.89808e-13
-5.92248e-13
-5.94857e-13
-5.97547e-13
-6.00419e-13
-6.03427e-13
-6.06556e-13
-6.09807e-13
-6.1322e-13
-6.16751e-13
-6.20417e-13
-6.24215e-13
-6.28135e-13
-6.32182e-13
-6.36359e-13
-6.40653e-13
-6.45012e-13
-6.49494e-13
-6.5412e-13
-6.58791e-13
-6.63585e-13
-6.68482e-13
-6.73433e-13
-6.78446e-13
-6.83534e-13
-6.88673e-13
-6.93874e-13
-6.99126e-13
-7.04412e-13
-7.09753e-13
-7.1509e-13
-7.2047e-13
-7.25855e-13
-7.31247e-13
-7.36649e-13
-7.42023e-13
-7.47435e-13
-7.52855e-13
-7.58244e-13
-7.63612e-13
-7.6894e-13
-7.7424e-13
-7.79515e-13
-7.84743e-13
-7.89962e-13
-7.95139e-13
-8.00286e-13
-8.05412e-13
-8.1048e-13
-8.15511e-13
-8.20515e-13
-8.25423e-13
-8.3031e-13
-8.35122e-13
-8.39828e-13
-8.44467e-13
-8.48994e-13
-8.53386e-13
-8.57693e-13
-8.61869e-13
-8.6593e-13
-8.69848e-13
-8.73684e-13
-8.7742e-13
-8.81118e-13
-8.8475e-13
-8.88347e-13
-8.91931e-13
-8.95347e-13
-8.98499e-13
-9.01149e-13
-9.02998e-13
-9.03881e-13
-9.038e-13
-9.03023e-13
-9.01794e-13
-8.95665e-13
-8.91743e-13
-8.91688e-13
-8.89269e-13
-8.76198e-13
-1.41417e-11
3.6818e-10
3.50948e-10
3.17338e-10
2.75365e-10
2.31914e-10
1.92364e-10
1.59924e-10
1.35633e-10
1.18671e-10
1.0741e-10
9.99193e-11
9.46045e-11
9.03284e-11
8.62088e-11
8.18103e-11
7.69545e-11
7.16114e-11
6.58298e-11
5.97076e-11
5.33583e-11
4.68966e-11
4.04256e-11
3.40356e-11
2.78012e-11
2.17795e-11
1.5994e-11
1.04046e-11
4.89418e-12
-6.54353e-13
-6.15946e-12
-1.11598e-11
-1.49234e-11
-1.68938e-11
-1.70756e-11
-1.59756e-11
-1.4238e-11
-1.23548e-11
-1.05971e-11
-9.07078e-12
-7.79138e-12
-6.73502e-12
-5.86609e-12
-5.14945e-12
-4.55475e-12
-4.05718e-12
-3.63714e-12
-3.27927e-12
-2.9716e-12
-2.7048e-12
-2.47153e-12
-2.26607e-12
-2.08373e-12
-1.92098e-12
-1.77479e-12
-1.64024e-12
-1.51605e-12
-1.40111e-12
-1.29449e-12
-1.19544e-12
-1.1033e-12
-1.01747e-12
-9.3747e-13
-8.6287e-13
-7.93321e-13
-7.28452e-13
-6.67979e-13
-6.11614e-13
-5.59068e-13
-5.10101e-13
-4.64468e-13
-4.21963e-13
-3.82382e-13
-3.4558e-13
-3.11414e-13
-2.7971e-13
-2.50378e-13
-2.23312e-13
-1.984e-13
-1.75459e-13
-1.54257e-13
-1.34439e-13
-1.1557e-13
-9.73265e-14
-7.99056e-14
-6.44211e-14
-5.25166e-14
-4.46726e-14
-3.90008e-14
-3.39912e-14
-3.26314e-14
-2.55905e-14
-1.87043e-14
-1.31348e-14
-8.92025e-15
-5.99894e-15
-4.03666e-15
-2.71998e-15
-1.81764e-15
-1.18413e-15
-7.14509e-16
-5.35798e-16
-3.8282e-16
-1.93062e-16
-1.3351e-16
-5.4302e-18
2.9428e-18
5.27122e-17
5.07889e-17
4.82434e-17
5.32887e-17
5.47246e-17
5.20637e-17
5.72377e-17
5.16137e-17
5.39328e-17
5.26393e-17
5.36374e-17
5.80854e-17
5.95361e-17
5.28685e-17
5.08278e-17
6.05038e-17
5.64983e-17
5.099e-17
5.08639e-17
5.33769e-17
5.80177e-17
5.7143e-17
4.86851e-17
4.53834e-17
4.653e-17
4.69556e-17
5.2802e-17
5.36503e-17
5.23963e-17
4.72247e-17
5.55021e-17
4.97306e-17
4.92239e-17
5.16683e-17
6.00808e-17
5.36132e-17
5.96941e-17
6.67129e-17
7.30378e-17
8.07935e-17
9.04231e-17
1.03668e-16
1.37552e-16
8.99706e-17
7.83256e-17
6.19419e-17
6.36075e-17
4.90227e-17
4.4509e-17
4.06221e-17
4.39032e-17
3.24533e-17
2.86105e-17
1.69328e-17
1.52863e-17
7.79041e-18
1.74166e-17
2.5966e-17
3.54378e-17
2.20241e-17
2.23764e-17
1.83226e-17
1.43675e-17
6.26508e-18
1.24027e-17
1.63978e-17
2.64024e-17
2.44773e-17
2.86946e-17
2.18814e-17
3.76087e-17
3.64059e-17
4.71943e-17
6.70895e-17
1.67301e-16
6.93472e-17
5.28763e-17
3.37858e-17
3.30209e-17
1.91611e-17
2.3264e-17
1.24249e-17
1.48467e-17
8.11418e-19
1.22153e-18
-2.33179e-19
3.07407e-18
-2.01389e-18
1.62107e-18
1.02299e-19
1.48953e-17
1.38124e-18
5.2663e-18
3.97962e-18
4.64322e-18
5.55699e-18
1.4406e-17
1.71409e-17
2.9191e-17
2.7668e-17
3.1935e-17
3.81471e-17
4.72936e-17
4.99469e-17
5.355e-17
5.69348e-17
)
;

boundaryField
{
    inandouthalf11
    {
        type            cyclic;
        value           nonuniform List<scalar> 
100
(
-4.64173e-11
-4.61582e-11
-4.61242e-11
-4.616e-11
-4.61771e-11
-4.61831e-11
-4.61906e-11
-4.62001e-11
-4.62099e-11
-4.62198e-11
-4.62298e-11
-4.62398e-11
-4.625e-11
-4.62602e-11
-4.62706e-11
-4.62812e-11
-4.62918e-11
-4.63026e-11
-4.63134e-11
-4.63245e-11
-4.63355e-11
-4.63467e-11
-4.6358e-11
-4.63693e-11
-4.63808e-11
-4.63923e-11
-4.64039e-11
-4.64156e-11
-4.64274e-11
-4.64392e-11
-4.64512e-11
-4.64632e-11
-4.64753e-11
-4.64875e-11
-4.64997e-11
-4.65121e-11
-4.65245e-11
-4.6537e-11
-4.65497e-11
-4.65623e-11
-4.65752e-11
-4.65881e-11
-4.66011e-11
-4.66143e-11
-4.66275e-11
-4.66409e-11
-4.66545e-11
-4.6668e-11
-4.66818e-11
-4.66958e-11
-4.67098e-11
-4.67241e-11
-4.67384e-11
-4.6753e-11
-4.67676e-11
-4.67826e-11
-4.67976e-11
-4.68129e-11
-4.68284e-11
-4.68439e-11
-4.68599e-11
-4.68758e-11
-4.68922e-11
-4.69086e-11
-4.69253e-11
-4.69422e-11
-4.69594e-11
-4.69768e-11
-4.69945e-11
-4.70123e-11
-4.70305e-11
-4.7049e-11
-4.70676e-11
-4.70867e-11
-4.71059e-11
-4.71256e-11
-4.71454e-11
-4.71655e-11
-4.71861e-11
-4.72069e-11
-4.7228e-11
-4.72496e-11
-4.72714e-11
-4.72937e-11
-4.73163e-11
-4.73393e-11
-4.73627e-11
-4.73865e-11
-4.74107e-11
-4.74354e-11
-4.74605e-11
-4.74861e-11
-4.75122e-11
-4.75388e-11
-4.75658e-11
-4.75935e-11
-4.76216e-11
-4.76504e-11
-4.76797e-11
-4.77097e-11
)
;
    }
    inandouthalf12
    {
        type            cyclic;
        value           nonuniform List<scalar> 
100
(
4.64173e-11
4.61582e-11
4.61242e-11
4.616e-11
4.61771e-11
4.61831e-11
4.61906e-11
4.62001e-11
4.62099e-11
4.62198e-11
4.62298e-11
4.62398e-11
4.625e-11
4.62602e-11
4.62706e-11
4.62812e-11
4.62918e-11
4.63026e-11
4.63134e-11
4.63245e-11
4.63355e-11
4.63467e-11
4.6358e-11
4.63693e-11
4.63808e-11
4.63923e-11
4.64039e-11
4.64156e-11
4.64274e-11
4.64392e-11
4.64512e-11
4.64632e-11
4.64753e-11
4.64875e-11
4.64997e-11
4.65121e-11
4.65245e-11
4.6537e-11
4.65497e-11
4.65623e-11
4.65752e-11
4.65881e-11
4.66011e-11
4.66143e-11
4.66275e-11
4.66409e-11
4.66545e-11
4.6668e-11
4.66818e-11
4.66958e-11
4.67098e-11
4.67241e-11
4.67384e-11
4.6753e-11
4.67676e-11
4.67826e-11
4.67976e-11
4.68129e-11
4.68284e-11
4.68439e-11
4.68599e-11
4.68758e-11
4.68922e-11
4.69086e-11
4.69253e-11
4.69422e-11
4.69594e-11
4.69768e-11
4.69945e-11
4.70123e-11
4.70305e-11
4.7049e-11
4.70676e-11
4.70867e-11
4.71059e-11
4.71256e-11
4.71454e-11
4.71655e-11
4.71861e-11
4.72069e-11
4.7228e-11
4.72496e-11
4.72714e-11
4.72937e-11
4.73163e-11
4.73393e-11
4.73627e-11
4.73865e-11
4.74107e-11
4.74354e-11
4.74605e-11
4.74861e-11
4.75122e-11
4.75388e-11
4.75658e-11
4.75935e-11
4.76216e-11
4.76504e-11
4.76797e-11
4.77097e-11
)
;
    }
    inandouthalf21
    {
        type            cyclic;
        value           nonuniform List<scalar> 
100
(
-4.77402e-11
-4.77715e-11
-4.78034e-11
-4.7836e-11
-4.78694e-11
-4.79036e-11
-4.79385e-11
-4.79743e-11
-4.8011e-11
-4.80486e-11
-4.80871e-11
-4.81266e-11
-4.81671e-11
-4.82087e-11
-4.82514e-11
-4.82953e-11
-4.83405e-11
-4.83869e-11
-4.84348e-11
-4.84841e-11
-4.85349e-11
-4.85873e-11
-4.86415e-11
-4.86974e-11
-4.87553e-11
-4.88152e-11
-4.88772e-11
-4.89416e-11
-4.90085e-11
-4.90782e-11
-4.91507e-11
-4.92262e-11
-4.93052e-11
-4.93887e-11
-4.94777e-11
-4.95726e-11
-4.9673e-11
-4.97803e-11
-4.98992e-11
-5.00347e-11
-5.0181e-11
-5.0355e-11
-5.15543e-11
-5.1376e-11
-5.15966e-11
-5.21461e-11
-2.2557e-10
-4.73825e-08
-6.97414e-08
-6.96076e-08
-7.32587e-08
-7.82656e-08
-8.38469e-08
-8.96268e-08
-9.53947e-08
-1.01028e-07
-1.06456e-07
-1.11646e-07
-1.16583e-07
-1.21268e-07
-1.25704e-07
-1.29899e-07
-1.33857e-07
-1.37582e-07
-1.41072e-07
-1.44325e-07
-1.47333e-07
-1.50084e-07
-1.52566e-07
-1.54759e-07
-1.56643e-07
-1.58194e-07
-1.59386e-07
-1.60187e-07
-1.60567e-07
-1.60492e-07
-1.59925e-07
-1.58833e-07
-1.57182e-07
-1.54943e-07
-1.52097e-07
-1.48634e-07
-1.4456e-07
-1.39895e-07
-1.34677e-07
-1.28962e-07
-1.22822e-07
-1.16348e-07
-1.09642e-07
-1.02811e-07
-9.59666e-08
-8.92114e-08
-8.26374e-08
-7.63202e-08
-7.03169e-08
-6.46654e-08
-5.9386e-08
-5.44837e-08
-4.99514e-08
-4.5773e-08
)
;
    }
    inandouthalf22
    {
        type            cyclic;
        value           nonuniform List<scalar> 
100
(
4.77402e-11
4.77715e-11
4.78034e-11
4.7836e-11
4.78694e-11
4.79036e-11
4.79385e-11
4.79743e-11
4.8011e-11
4.80486e-11
4.80871e-11
4.81266e-11
4.81671e-11
4.82087e-11
4.82514e-11
4.82953e-11
4.83405e-11
4.83869e-11
4.84348e-11
4.84841e-11
4.85349e-11
4.85873e-11
4.86415e-11
4.86974e-11
4.87553e-11
4.88152e-11
4.88772e-11
4.89416e-11
4.90085e-11
4.90782e-11
4.91507e-11
4.92262e-11
4.93052e-11
4.93887e-11
4.94777e-11
4.95726e-11
4.9673e-11
4.97803e-11
4.98992e-11
5.00347e-11
5.0181e-11
5.0355e-11
5.15543e-11
5.1376e-11
5.15966e-11
5.21461e-11
2.2557e-10
4.73825e-08
6.97414e-08
6.96076e-08
7.32587e-08
7.82656e-08
8.38469e-08
8.96268e-08
9.53947e-08
1.01028e-07
1.06456e-07
1.11646e-07
1.16583e-07
1.21268e-07
1.25704e-07
1.29899e-07
1.33857e-07
1.37582e-07
1.41072e-07
1.44325e-07
1.47333e-07
1.50084e-07
1.52566e-07
1.54759e-07
1.56643e-07
1.58194e-07
1.59386e-07
1.60187e-07
1.60567e-07
1.60492e-07
1.59925e-07
1.58833e-07
1.57182e-07
1.54943e-07
1.52097e-07
1.48634e-07
1.4456e-07
1.39895e-07
1.34677e-07
1.28962e-07
1.22822e-07
1.16348e-07
1.09642e-07
1.02811e-07
9.59666e-08
8.92114e-08
8.26374e-08
7.63202e-08
7.03169e-08
6.46654e-08
5.9386e-08
5.44837e-08
4.99514e-08
4.5773e-08
)
;
    }
    inandouthalf31
    {
        type            cyclic;
        value           nonuniform List<scalar> 
110
(
-4.19268e-08
-3.91295e-08
-3.64316e-08
-3.38281e-08
-3.13115e-08
-2.88725e-08
-2.65005e-08
-2.41842e-08
-2.19122e-08
-1.96727e-08
-1.74546e-08
-1.5247e-08
-1.30395e-08
-1.08223e-08
-8.58647e-09
-6.3234e-09
-4.0253e-09
-1.68492e-09
7.04384e-10
3.14872e-09
5.65368e-09
8.22439e-09
1.08655e-08
1.35813e-08
1.63757e-08
1.92522e-08
2.22139e-08
2.52638e-08
2.84044e-08
3.16378e-08
3.4966e-08
3.83903e-08
4.1912e-08
4.55318e-08
4.92498e-08
5.30657e-08
5.69788e-08
6.09873e-08
6.50888e-08
6.928e-08
7.35564e-08
7.79125e-08
8.23412e-08
8.68337e-08
9.13794e-08
9.59654e-08
1.00576e-07
1.05194e-07
1.09797e-07
1.14359e-07
1.18851e-07
1.23239e-07
1.27483e-07
1.31538e-07
1.35352e-07
1.38869e-07
1.42026e-07
1.44755e-07
1.46987e-07
1.4865e-07
1.49681e-07
1.50028e-07
1.49658e-07
1.48571e-07
1.46808e-07
1.44457e-07
1.41656e-07
1.38583e-07
1.35443e-07
1.32442e-07
1.29767e-07
1.27579e-07
1.26005e-07
1.25146e-07
1.2508e-07
1.2587e-07
1.27579e-07
1.30344e-07
1.34497e-07
1.41951e-07
1.46426e-07
1.49457e-07
1.52492e-07
1.55587e-07
1.58745e-07
1.61967e-07
1.65254e-07
1.68609e-07
1.72031e-07
1.75523e-07
1.79085e-07
1.8272e-07
1.86429e-07
1.90213e-07
1.94074e-07
1.98013e-07
2.02032e-07
2.06133e-07
2.10317e-07
2.14586e-07
2.18941e-07
2.23385e-07
2.27919e-07
2.32545e-07
2.37265e-07
2.42081e-07
2.46995e-07
2.52008e-07
2.57123e-07
2.62342e-07
)
;
    }
    inandouthalf32
    {
        type            cyclic;
        value           nonuniform List<scalar> 
110
(
4.19268e-08
3.91295e-08
3.64316e-08
3.38281e-08
3.13115e-08
2.88725e-08
2.65005e-08
2.41842e-08
2.19122e-08
1.96727e-08
1.74546e-08
1.5247e-08
1.30395e-08
1.08223e-08
8.58647e-09
6.3234e-09
4.0253e-09
1.68492e-09
-7.04384e-10
-3.14872e-09
-5.65368e-09
-8.22439e-09
-1.08655e-08
-1.35813e-08
-1.63757e-08
-1.92522e-08
-2.22139e-08
-2.52638e-08
-2.84044e-08
-3.16378e-08
-3.4966e-08
-3.83903e-08
-4.1912e-08
-4.55318e-08
-4.92498e-08
-5.30657e-08
-5.69788e-08
-6.09873e-08
-6.50888e-08
-6.928e-08
-7.35564e-08
-7.79125e-08
-8.23412e-08
-8.68337e-08
-9.13794e-08
-9.59654e-08
-1.00576e-07
-1.05194e-07
-1.09797e-07
-1.14359e-07
-1.18851e-07
-1.23239e-07
-1.27483e-07
-1.31538e-07
-1.35352e-07
-1.38869e-07
-1.42026e-07
-1.44755e-07
-1.46987e-07
-1.4865e-07
-1.49681e-07
-1.50028e-07
-1.49658e-07
-1.48571e-07
-1.46808e-07
-1.44457e-07
-1.41656e-07
-1.38583e-07
-1.35443e-07
-1.32442e-07
-1.29767e-07
-1.27579e-07
-1.26005e-07
-1.25146e-07
-1.2508e-07
-1.2587e-07
-1.27579e-07
-1.30344e-07
-1.34497e-07
-1.41951e-07
-1.46426e-07
-1.49457e-07
-1.52492e-07
-1.55587e-07
-1.58745e-07
-1.61967e-07
-1.65254e-07
-1.68609e-07
-1.72031e-07
-1.75523e-07
-1.79085e-07
-1.8272e-07
-1.86429e-07
-1.90213e-07
-1.94074e-07
-1.98013e-07
-2.02032e-07
-2.06133e-07
-2.10317e-07
-2.14586e-07
-2.18941e-07
-2.23385e-07
-2.27919e-07
-2.32545e-07
-2.37265e-07
-2.42081e-07
-2.46995e-07
-2.52008e-07
-2.57123e-07
-2.62342e-07
)
;
    }
    inandouthalf41
    {
        type            cyclic;
        value           nonuniform List<scalar> 
50
(
2.34823e-07
2.34823e-07
2.34823e-07
2.34823e-07
2.34823e-07
2.34823e-07
2.34823e-07
2.34823e-07
2.34823e-07
2.34823e-07
2.34823e-07
2.34823e-07
2.34823e-07
2.34823e-07
2.34823e-07
2.34823e-07
2.34823e-07
2.34823e-07
2.34823e-07
2.34823e-07
2.34823e-07
2.34823e-07
2.34823e-07
2.34823e-07
2.34823e-07
2.34823e-07
2.34823e-07
2.34823e-07
2.34823e-07
2.34823e-07
2.34823e-07
2.34823e-07
2.34823e-07
2.34823e-07
2.34823e-07
2.34823e-07
2.34823e-07
2.34823e-07
2.34823e-07
2.34823e-07
2.34823e-07
2.34823e-07
2.34823e-07
2.34823e-07
2.34823e-07
2.34823e-07
2.34823e-07
2.34823e-07
2.34823e-07
2.34823e-07
)
;
    }
    inandouthalf42
    {
        type            cyclic;
        value           nonuniform List<scalar> 
50
(
-2.34823e-07
-2.34823e-07
-2.34823e-07
-2.34823e-07
-2.34823e-07
-2.34823e-07
-2.34823e-07
-2.34823e-07
-2.34823e-07
-2.34823e-07
-2.34823e-07
-2.34823e-07
-2.34823e-07
-2.34823e-07
-2.34823e-07
-2.34823e-07
-2.34823e-07
-2.34823e-07
-2.34823e-07
-2.34823e-07
-2.34823e-07
-2.34823e-07
-2.34823e-07
-2.34823e-07
-2.34823e-07
-2.34823e-07
-2.34823e-07
-2.34823e-07
-2.34823e-07
-2.34823e-07
-2.34823e-07
-2.34823e-07
-2.34823e-07
-2.34823e-07
-2.34823e-07
-2.34823e-07
-2.34823e-07
-2.34823e-07
-2.34823e-07
-2.34823e-07
-2.34823e-07
-2.34823e-07
-2.34823e-07
-2.34823e-07
-2.34823e-07
-2.34823e-07
-2.34823e-07
-2.34823e-07
-2.34823e-07
-2.34823e-07
)
;
    }
    top
    {
        type            symmetryPlane;
        value           uniform 0;
    }
    walls
    {
        type            calculated;
        value           uniform 0;
    }
    frontAndBackPlanes
    {
        type            empty;
        value           nonuniform 0();
    }
}


// ************************************************************************* //
