/*--------------------------------*- C++ -*----------------------------------*\
| =========                 |                                                 |
| \\      /  F ield         | OpenFOAM: The Open Source CFD Toolbox           |
|  \\    /   O peration     | Version:  2.4.x                                 |
|   \\  /    A nd           | Web:      www.OpenFOAM.org                      |
|    \\/     M anipulation  |                                                 |
\*---------------------------------------------------------------------------*/
FoamFile
{
    version     2.0;
    format      ascii;
    class       volScalarField;
    location    "12.3";
    object      epsilon;
}
// * * * * * * * * * * * * * * * * * * * * * * * * * * * * * * * * * * * * * //

dimensions      [0 2 -3 0 0 0 0];

internalField   nonuniform List<scalar> 
360
(
1e-20
1e-20
1e-20
1e-20
1e-20
1e-20
1e-20
1e-20
1e-20
1e-20
1e-20
1e-20
1e-20
1e-20
1e-20
1e-20
1e-20
1e-20
1e-20
1e-20
1e-20
1e-20
1e-20
1e-20
1e-20
1e-20
1e-20
1e-20
1e-20
1e-20
1e-20
1e-20
1e-20
1e-20
1e-20
1e-20
1e-20
1e-20
1e-20
1e-20
1e-20
1e-20
1e-20
1e-20
1e-20
1e-20
1e-20
1e-20
1e-20
1e-20
1e-20
1e-20
1e-20
1e-20
1e-20
1e-20
1e-20
1e-20
1e-20
1e-20
1e-20
1e-20
1e-20
1e-20
1e-20
1e-20
1e-20
1e-20
1e-20
1e-20
1e-20
1e-20
1e-20
1e-20
1e-20
1e-20
1e-20
1e-20
1e-20
1e-20
1e-20
1e-20
1e-20
1e-20
1e-20
1e-20
1e-20
1e-20
1e-20
1e-20
1e-20
1e-20
1e-20
1e-20
1e-20
1e-20
1e-20
1e-20
1e-20
1e-20
1e-20
1e-20
1e-20
1e-20
1e-20
1e-20
1e-20
1e-20
1e-20
1e-20
1e-20
1e-20
1e-20
1e-20
1e-20
1e-20
1e-20
1e-20
1e-20
1e-20
1e-20
1e-20
1e-20
1e-20
1e-20
1e-20
1e-20
1e-20
1e-20
1e-20
1e-20
1.02792e-20
4.08981e-20
2.63765e-19
1.83235e-18
1.35377e-17
1.08925e-16
9.79222e-16
1.00681e-14
1.20728e-13
1.71533e-12
2.92758e-11
6.07165e-10
1.50855e-08
4.61948e-07
1.76593e-05
0.000805425
0.0244664
0.146235
0.19762
0.20258
0.193994
0.181048
0.167049
0.153362
0.140543
0.128787
0.118115
0.108469
0.0997565
0.0918775
0.0847337
0.0782346
0.0723001
0.0668601
0.0618541
0.0572307
0.0529458
0.0489623
0.0452489
0.0417791
0.0385308
0.0354857
0.0326283
0.0299463
0.0274293
0.025069
0.0228587
0.0207932
0.0188682
0.0170799
0.0154253
0.0139013
0.0125046
0.0112315
0.0100778
0.00903864
0.00810825
0.0072802
0.00654745
0.00590242
0.00533729
0.00484415
0.00441525
0.00404314
0.00372087
0.00344206
0.00320093
0.00299237
0.00281187
0.00265551
0.00251853
0.00239752
0.00229075
0.00219669
0.00211394
0.00204125
0.0019775
0.00192169
0.00187293
0.00183043
0.00179347
0.00176142
0.0017337
0.0017098
0.00168925
0.00167161
0.00165649
0.00164353
0.00163239
0.00162274
0.00161429
0.00160676
0.00159987
0.00159337
0.001587
0.00158052
0.00157371
0.00156634
0.00155819
0.00154905
0.00153872
0.001527
0.00151372
0.00149868
0.00148173
0.0014627
0.00144145
0.00141785
0.00139179
0.00136316
0.00133188
0.0012979
0.00126118
0.00122171
0.00117952
0.00113466
0.00108722
0.00103733
0.000985161
0.000930933
0.000874909
0.000817406
0.000758791
0.000699486
0.00063996
0.000580732
0.00052236
0.000465431
0.000410545
0.000358299
0.000309254
0.00026391
0.000222673
0.000185819
0.00015347
0.00012558
0.000101937
8.21798e-05
6.5844e-05
5.24066e-05
4.13393e-05
3.21545e-05
2.44403e-05
1.78843e-05
1.22879e-05
7.57436e-06
3.7987e-06
1.14639e-06
1.09685e-07
2.47771e-09
3.39178e-11
4.31161e-13
5.16229e-15
5.82216e-17
6.25683e-19
1.43495e-20
1e-20
1e-20
1e-20
1e-20
1e-20
1e-20
1e-20
1e-20
1e-20
1e-20
1e-20
1e-20
1e-20
1e-20
1e-20
1e-20
1e-20
1e-20
1e-20
1e-20
1e-20
1e-20
1e-20
1e-20
1e-20
1e-20
1e-20
1e-20
1e-20
1e-20
1e-20
1e-20
1e-20
1e-20
1e-20
1e-20
1e-20
1e-20
1e-20
1e-20
1e-20
1e-20
1e-20
1e-20
1e-20
1e-20
1e-20
1e-20
1e-20
1e-20
1e-20
1e-20
1e-20
1e-20
1e-20
1e-20
1e-20
1e-20
1e-20
1e-20
1e-20
1e-20
1e-20
1e-20
1e-20
1e-20
1e-20
1e-20
1e-20
1e-20
1e-20
1e-20
1e-20
)
;

boundaryField
{
    inandouthalf11
    {
        type            cyclic;
    }
    inandouthalf12
    {
        type            cyclic;
    }
    inandouthalf21
    {
        type            cyclic;
    }
    inandouthalf22
    {
        type            cyclic;
    }
    inandouthalf31
    {
        type            cyclic;
    }
    inandouthalf32
    {
        type            cyclic;
    }
    inandouthalf41
    {
        type            cyclic;
    }
    inandouthalf42
    {
        type            cyclic;
    }
    top
    {
        type            symmetryPlane;
    }
    walls
    {
        type            zeroGradient;
    }
    frontAndBackPlanes
    {
        type            empty;
    }
}


// ************************************************************************* //
