/*--------------------------------*- C++ -*----------------------------------*\
| =========                 |                                                 |
| \\      /  F ield         | OpenFOAM: The Open Source CFD Toolbox           |
|  \\    /   O peration     | Version:  2.4.x                                 |
|   \\  /    A nd           | Web:      www.OpenFOAM.org                      |
|    \\/     M anipulation  |                                                 |
\*---------------------------------------------------------------------------*/
FoamFile
{
    version     2.0;
    format      ascii;
    class       volScalarField;
    location    "12.3";
    object      k_0;
}
// * * * * * * * * * * * * * * * * * * * * * * * * * * * * * * * * * * * * * //

dimensions      [0 2 -2 0 0 0 0];

internalField   nonuniform List<scalar> 
360
(
1e-20
1e-20
1e-20
1e-20
1e-20
1e-20
1e-20
1e-20
1e-20
1e-20
1e-20
1e-20
1e-20
1e-20
1e-20
1e-20
1e-20
1e-20
1e-20
1e-20
1e-20
1e-20
1e-20
1e-20
1e-20
1e-20
1e-20
1e-20
1e-20
1e-20
1e-20
1e-20
1e-20
1e-20
1e-20
1e-20
1e-20
1e-20
1e-20
1e-20
1e-20
1e-20
1e-20
1e-20
1e-20
1e-20
1e-20
1e-20
1e-20
1e-20
1e-20
1e-20
1e-20
1e-20
1e-20
1e-20
1e-20
1e-20
1e-20
1e-20
1e-20
1e-20
1e-20
1e-20
1e-20
1e-20
1e-20
1e-20
1e-20
1e-20
1e-20
1e-20
1e-20
1e-20
1e-20
1e-20
1e-20
1e-20
1e-20
1e-20
1e-20
1e-20
1e-20
1e-20
1e-20
1e-20
1e-20
1e-20
1e-20
1e-20
1e-20
1e-20
1e-20
1e-20
1e-20
1e-20
1e-20
1e-20
1e-20
1e-20
1e-20
1e-20
1e-20
1e-20
1e-20
1e-20
1e-20
1e-20
1e-20
1e-20
1e-20
1e-20
1e-20
1e-20
1e-20
1e-20
1e-20
1e-20
1e-20
1e-20
1e-20
1e-20
1e-20
1e-20
1e-20
1e-20
1e-20
1e-20
1e-20
1e-20
1e-20
1e-20
2.57404e-20
1.46185e-19
9.00717e-19
5.80141e-18
3.99619e-17
3.02462e-16
2.58162e-15
2.54044e-14
2.93246e-13
4.03195e-12
6.80867e-11
1.35484e-09
3.27054e-08
9.84219e-07
3.48287e-05
0.00081897
0.00413667
0.0063672
0.00752186
0.00819237
0.00860086
0.00884955
0.00899436
0.00906748
0.00908803
0.00906772
0.00901408
0.00893226
0.00882608
0.00869858
0.00855225
0.00838926
0.00821153
0.00802078
0.00781858
0.00760637
0.0073855
0.00715727
0.0069229
0.0066836
0.00644055
0.00619494
0.00594796
0.00570082
0.00545478
0.00521111
0.0049711
0.00473606
0.00450728
0.00428601
0.00407346
0.00387074
0.00367887
0.00349873
0.00333101
0.00317618
0.00303449
0.00290595
0.00279033
0.00268719
0.00259592
0.00251576
0.00244588
0.00238537
0.00233333
0.00228889
0.00225118
0.00221943
0.00219292
0.00217078
0.00215238
0.00213741
0.00212555
0.00211648
0.00210995
0.00210567
0.0021034
0.00210292
0.00210401
0.00210647
0.00211011
0.00211474
0.0021202
0.00212631
0.00213292
0.00213987
0.00214699
0.00215414
0.00216116
0.00216791
0.00217422
0.00217994
0.00218493
0.00218901
0.00219205
0.00219387
0.00219432
0.00219324
0.00219047
0.00218586
0.00217923
0.00217043
0.00215931
0.0021457
0.00212946
0.00211044
0.0020885
0.00206352
0.00203535
0.0020039
0.00196905
0.00193073
0.00188886
0.00184341
0.00179433
0.00174165
0.00168538
0.00162561
0.00156244
0.00149604
0.0014266
0.0013544
0.00127976
0.00120308
0.00112482
0.00104552
0.000965803
0.000886339
0.000807867
0.00073116
0.000657004
0.000586157
0.000519303
0.000456999
0.00039963
0.000347362
0.000300135
0.000257665
0.000219493
0.00018504
0.000153692
0.000124872
9.81124e-05
7.31331e-05
4.99186e-05
2.88562e-05
1.0876e-05
1.32061e-06
3.28575e-08
4.48483e-10
5.66315e-12
6.73818e-14
7.55389e-16
7.98264e-18
8.53821e-20
1e-20
1e-20
1e-20
1e-20
1e-20
1e-20
1e-20
1e-20
1e-20
1e-20
1e-20
1e-20
1e-20
1e-20
1e-20
1e-20
1e-20
1e-20
1e-20
1e-20
1e-20
1e-20
1e-20
1e-20
1e-20
1e-20
1e-20
1e-20
1e-20
1e-20
1e-20
1e-20
1e-20
1e-20
1e-20
1e-20
1e-20
1e-20
1e-20
1e-20
1e-20
1e-20
1e-20
1e-20
1e-20
1e-20
1e-20
1e-20
1e-20
1e-20
1e-20
1e-20
1e-20
1e-20
1e-20
1e-20
1e-20
1e-20
1e-20
1e-20
1e-20
1e-20
1e-20
1e-20
1e-20
1e-20
1e-20
1e-20
1e-20
1e-20
1e-20
1e-20
1e-20
)
;

boundaryField
{
    inandouthalf11
    {
        type            cyclic;
    }
    inandouthalf12
    {
        type            cyclic;
    }
    inandouthalf21
    {
        type            cyclic;
    }
    inandouthalf22
    {
        type            cyclic;
    }
    inandouthalf31
    {
        type            cyclic;
    }
    inandouthalf32
    {
        type            cyclic;
    }
    inandouthalf41
    {
        type            cyclic;
    }
    inandouthalf42
    {
        type            cyclic;
    }
    top
    {
        type            symmetryPlane;
    }
    walls
    {
        type            zeroGradient;
    }
    frontAndBackPlanes
    {
        type            empty;
    }
}


// ************************************************************************* //
