/*--------------------------------*- C++ -*----------------------------------*\
| =========                 |                                                 |
| \\      /  F ield         | OpenFOAM: The Open Source CFD Toolbox           |
|  \\    /   O peration     | Version:  2.4.x                                 |
|   \\  /    A nd           | Web:      www.OpenFOAM.org                      |
|    \\/     M anipulation  |                                                 |
\*---------------------------------------------------------------------------*/
FoamFile
{
    version     2.0;
    format      ascii;
    class       volScalarField;
    location    "12.3";
    object      p;
}
// * * * * * * * * * * * * * * * * * * * * * * * * * * * * * * * * * * * * * //

dimensions      [1 -1 -2 0 0 0 0];

internalField   nonuniform List<scalar> 
360
(
4892.54
4887.64
4882.73
4877.83
4872.92
4868.01
4863.11
4858.2
4853.3
4848.39
4843.49
4838.58
4833.68
4828.77
4823.87
4818.96
4814.06
4809.15
4804.25
4799.34
4794.44
4789.53
4784.63
4779.72
4774.82
4769.91
4765.01
4760.1
4755.2
4750.29
4745.38
4740.48
4735.57
4730.67
4725.76
4720.86
4715.95
4711.05
4706.14
4701.24
4696.33
4691.42
4686.52
4681.61
4676.71
4671.8
4666.9
4661.99
4657.08
4652.18
4647.27
4642.37
4637.46
4632.56
4627.65
4622.74
4617.84
4612.93
4608.03
4603.12
4598.22
4593.31
4588.4
4583.5
4578.59
4573.69
4568.78
4563.87
4558.97
4554.06
4549.16
4544.25
4539.34
4534.44
4529.53
4524.63
4519.72
4514.81
4509.91
4505
4500.1
4495.19
4490.28
4485.38
4480.47
4475.57
4470.66
4465.75
4460.85
4455.94
4451.04
4446.13
4441.22
4436.32
4431.41
4426.51
4421.6
4416.69
4411.79
4406.88
4401.97
4397.07
4392.16
4387.26
4382.35
4377.44
4372.54
4367.63
4362.73
4357.82
4352.91
4348.01
4343.1
4338.19
4333.29
4328.38
4323.48
4318.57
4313.66
4308.76
4303.85
4298.94
4294.04
4289.13
4284.23
4279.32
4274.41
4269.51
4264.6
4259.69
4254.79
4249.88
4244.98
4240.07
4235.16
4230.26
4225.35
4220.44
4215.54
4210.63
4205.73
4200.82
4195.91
4191.01
4186.1
4181.2
4176.26
4170.15
4161.02
4153.49
4147.03
4140.98
4135.19
4129.56
4124.08
4118.71
4113.44
4108.25
4103.14
4098.09
4093.09
4088.13
4083.21
4078.31
4073.45
4068.61
4063.78
4058.97
4054.18
4049.39
4044.62
4039.85
4035.09
4030.33
4025.57
4020.82
4016.07
4011.32
4006.57
4001.81
3997.05
3992.29
3987.53
3982.75
3977.97
3973.19
3968.39
3963.59
3958.78
3953.96
3949.13
3944.29
3939.45
3934.59
3929.73
3924.87
3920
3915.12
3910.24
3905.36
3900.47
3895.53
3890.49
3885.34
3880.08
3874.72
3869.25
3863.66
3857.96
3852.14
3846.2
3840.14
3833.96
3827.65
3821.21
3814.64
3807.94
3801.1
3794.12
3787.01
3779.74
3772.33
3764.77
3757.06
3749.19
3741.16
3732.97
3724.61
3716.09
3707.39
3698.52
3689.47
3680.24
3670.82
3661.21
3651.41
3641.41
3631.21
3620.8
3610.18
3599.35
3588.31
3577.04
3565.54
3553.81
3541.85
3529.64
3517.19
3504.49
3491.53
3478.31
3464.82
3451.06
3437.02
3422.7
3408.08
3393.17
3377.96
3362.44
3346.6
3330.44
3313.94
3297.11
3279.94
3262.41
3244.52
3226.27
3207.64
3188.63
3169.23
3149.43
3129.23
3108.62
3087.58
3066.12
3044.21
3021.87
2999.06
2975.79
2952.05
2927.81
2903.09
2877.86
2852.12
2825.86
2799.06
2771.72
2743.82
2715.36
2686.32
2656.7
2626.47
2595.62
2564.15
2532.05
2499.29
2465.86
2431.76
2396.96
2361.46
2325.24
2288.28
2250.57
2212.1
2172.85
2132.8
2091.93
2050.24
2007.7
1964.3
1922.76
1883.52
1844.28
1805.04
1765.8
1726.56
1687.32
1648.08
1608.84
1569.6
1530.36
1491.12
1451.88
1412.64
1373.4
1334.16
1294.92
1255.68
1216.44
1177.2
1137.96
1098.72
1059.48
1020.24
981
941.76
902.52
863.28
824.04
784.8
745.56
706.32
667.08
627.84
588.6
549.36
510.12
470.88
431.64
392.4
353.16
313.92
274.68
235.44
196.2
156.96
117.72
78.48
39.24
9.6562e-08
)
;

boundaryField
{
    inandouthalf11
    {
        type            cyclic;
    }
    inandouthalf12
    {
        type            cyclic;
    }
    inandouthalf21
    {
        type            cyclic;
    }
    inandouthalf22
    {
        type            cyclic;
    }
    inandouthalf31
    {
        type            cyclic;
    }
    inandouthalf32
    {
        type            cyclic;
    }
    inandouthalf41
    {
        type            cyclic;
    }
    inandouthalf42
    {
        type            cyclic;
    }
    top
    {
        type            symmetryPlane;
    }
    walls
    {
        type            slip;
    }
    frontAndBackPlanes
    {
        type            empty;
    }
}


// ************************************************************************* //
