/*--------------------------------*- C++ -*----------------------------------*\
| =========                 |                                                 |
| \\      /  F ield         | OpenFOAM: The Open Source CFD Toolbox           |
|  \\    /   O peration     | Version:  2.4.x                                 |
|   \\  /    A nd           | Web:      www.OpenFOAM.org                      |
|    \\/     M anipulation  |                                                 |
\*---------------------------------------------------------------------------*/
FoamFile
{
    version     2.0;
    format      ascii;
    class       volScalarField;
    location    "12.3";
    object      pa;
}
// * * * * * * * * * * * * * * * * * * * * * * * * * * * * * * * * * * * * * //

dimensions      [1 -1 -2 0 0 0 0];

internalField   nonuniform List<scalar> 
360
(
2.90394e-16
2.92916e-16
2.93177e-16
2.92913e-16
2.92791e-16
2.92752e-16
2.92703e-16
2.92639e-16
2.92573e-16
2.92507e-16
2.9244e-16
2.92374e-16
2.92306e-16
2.92238e-16
2.9217e-16
2.921e-16
2.9203e-16
2.91959e-16
2.91888e-16
2.91816e-16
2.91743e-16
2.91669e-16
2.91595e-16
2.9152e-16
2.91444e-16
2.91368e-16
2.91291e-16
2.91212e-16
2.91133e-16
2.91054e-16
2.90973e-16
2.90891e-16
2.9081e-16
2.90726e-16
2.90643e-16
2.90558e-16
2.90472e-16
2.90386e-16
2.90298e-16
2.9021e-16
2.9012e-16
2.9003e-16
2.89939e-16
2.89846e-16
2.89753e-16
2.89658e-16
2.89562e-16
2.89467e-16
2.89369e-16
2.89269e-16
2.8917e-16
2.89069e-16
2.88967e-16
2.88863e-16
2.88759e-16
2.88653e-16
2.88546e-16
2.88437e-16
2.88328e-16
2.88217e-16
2.88104e-16
2.87991e-16
2.87875e-16
2.87758e-16
2.8764e-16
2.8752e-16
2.87399e-16
2.87276e-16
2.87151e-16
2.87025e-16
2.86897e-16
2.86767e-16
2.86636e-16
2.86502e-16
2.86367e-16
2.86229e-16
2.8609e-16
2.85949e-16
2.85806e-16
2.8566e-16
2.85513e-16
2.85363e-16
2.8521e-16
2.85055e-16
2.84898e-16
2.84738e-16
2.84576e-16
2.84411e-16
2.84243e-16
2.84072e-16
2.83899e-16
2.83722e-16
2.83542e-16
2.83359e-16
2.83173e-16
2.82983e-16
2.82789e-16
2.82592e-16
2.8239e-16
2.82185e-16
2.81976e-16
2.81762e-16
2.81544e-16
2.81322e-16
2.81094e-16
2.80862e-16
2.80624e-16
2.80381e-16
2.80133e-16
2.79879e-16
2.79618e-16
2.79352e-16
2.79079e-16
2.78799e-16
2.78512e-16
2.78217e-16
2.77915e-16
2.77604e-16
2.77285e-16
2.76957e-16
2.76619e-16
2.76271e-16
2.75913e-16
2.75543e-16
2.75162e-16
2.74768e-16
2.74361e-16
2.7394e-16
2.73504e-16
2.73051e-16
2.72581e-16
2.72087e-16
6.98658e-16
3.95941e-15
2.4341e-14
1.56393e-13
1.07442e-12
8.10821e-12
6.89764e-11
6.76142e-10
7.77174e-09
1.06349e-07
1.74904e-06
3.64678e-05
0.0016216
0.0975323
1.95984
5.92552
5.69954
4.95502
4.05894
3.26009
2.59488
2.0553
1.62467
1.28437
1.01688
0.807029
0.642339
0.512838
0.410711
0.329898
0.26572
0.214569
0.17366
0.140836
0.11442
0.093105
0.0758639
0.0618884
0.050538
0.0413038
0.0337792
0.0276376
0.022614
0.0184916
0.0150936
0.0122813
0.00995399
0.00804211
0.00649391
0.0052609
0.00429179
0.0035349
0.00294329
0.00247795
0.00210835
0.00181142
0.00157001
0.00137141
0.00120618
0.00106726
0.000949319
0.000848297
0.000761057
0.000685154
0.000618666
0.000560065
0.000508126
0.000461858
0.000420454
0.000382882
0.000348383
0.000316663
0.000287469
0.000260582
0.000235814
0.000212999
0.000191992
0.000172665
0.000154902
0.000138599
0.000123657
0.000109986
9.75012e-05
8.61222e-05
7.57738e-05
6.63852e-05
5.78903e-05
5.02275e-05
4.33393e-05
3.71717e-05
3.16738e-05
2.67964e-05
2.2491e-05
1.87082e-05
1.53952e-05
1.2495e-05
9.94986e-06
7.7123e-06
5.76558e-06
4.14324e-06
2.906e-06
2.04287e-06
1.40678e-06
8.42329e-07
0
0
0
0
0
0
0
0
0
0
0
0
0
0
0
0
0
0
0
0
0
0
0
0
0
0
0
0
0
0
0
0
0
0
0
0
0
0
0
0
0
0
0
0
0
0
0
0
0
0
0
0
0
0
0
0
0
0
0
0
0
0
0
0
0
0
0
0
0
0
0
0
0
0
0
0
0
0
0
0
0
0
0
0
0
0
0
0
0
0
0
0
0
0
0
0
0
0
0
0
0
0
0
0
0
0
0
0
0
0
0
0
0
0
0
0
0
0
0
0
0
0
0
0
)
;

boundaryField
{
    inandouthalf11
    {
        type            cyclic;
    }
    inandouthalf12
    {
        type            cyclic;
    }
    inandouthalf21
    {
        type            cyclic;
    }
    inandouthalf22
    {
        type            cyclic;
    }
    inandouthalf31
    {
        type            cyclic;
    }
    inandouthalf32
    {
        type            cyclic;
    }
    inandouthalf41
    {
        type            cyclic;
    }
    inandouthalf42
    {
        type            cyclic;
    }
    top
    {
        type            symmetryPlane;
    }
    walls
    {
        type            calculated;
        value           uniform 2.90394e-16;
    }
    frontAndBackPlanes
    {
        type            empty;
    }
}


// ************************************************************************* //
