/*--------------------------------*- C++ -*----------------------------------*\
| =========                 |                                                 |
| \\      /  F ield         | OpenFOAM: The Open Source CFD Toolbox           |
|  \\    /   O peration     | Version:  2.4.x                                 |
|   \\  /    A nd           | Web:      www.OpenFOAM.org                      |
|    \\/     M anipulation  |                                                 |
\*---------------------------------------------------------------------------*/
FoamFile
{
    version     2.0;
    format      ascii;
    class       surfaceScalarField;
    location    "12.3";
    object      phia;
}
// * * * * * * * * * * * * * * * * * * * * * * * * * * * * * * * * * * * * * //

dimensions      [0 3 -1 0 0 0 0];

internalField   nonuniform List<scalar> 
359
(
-4.65975e-15
-1.16356e-14
-1.81361e-14
-2.44728e-14
-3.11022e-14
-3.8014e-14
-4.51298e-14
-5.24453e-14
-5.99858e-14
-6.7777e-14
-7.58327e-14
-8.41548e-14
-9.27421e-14
-1.01589e-13
-1.10689e-13
-1.20035e-13
-1.29616e-13
-1.39418e-13
-1.49425e-13
-1.59623e-13
-1.69991e-13
-1.80512e-13
-1.91167e-13
-2.01936e-13
-2.12799e-13
-2.23737e-13
-2.34728e-13
-2.45756e-13
-2.56801e-13
-2.67845e-13
-2.7887e-13
-2.89862e-13
-3.00801e-13
-3.1168e-13
-3.22481e-13
-3.33193e-13
-3.43805e-13
-3.54309e-13
-3.64698e-13
-3.74959e-13
-3.85093e-13
-3.95092e-13
-4.04949e-13
-4.14666e-13
-4.24237e-13
-4.33663e-13
-4.42943e-13
-4.52072e-13
-4.61055e-13
-4.69895e-13
-4.78589e-13
-4.87141e-13
-4.95552e-13
-5.03827e-13
-5.11964e-13
-5.19973e-13
-5.2785e-13
-5.35602e-13
-5.43231e-13
-5.50738e-13
-5.58131e-13
-5.65409e-13
-5.7258e-13
-5.79644e-13
-5.86606e-13
-5.93467e-13
-6.00232e-13
-6.06902e-13
-6.1348e-13
-6.19967e-13
-6.26369e-13
-6.32689e-13
-6.38924e-13
-6.45083e-13
-6.51164e-13
-6.57172e-13
-6.63106e-13
-6.68967e-13
-6.74758e-13
-6.80479e-13
-6.8613e-13
-6.91715e-13
-6.97235e-13
-7.0269e-13
-7.08083e-13
-7.13413e-13
-7.18681e-13
-7.23887e-13
-7.29032e-13
-7.34113e-13
-7.39133e-13
-7.44091e-13
-7.48988e-13
-7.53824e-13
-7.58599e-13
-7.63315e-13
-7.67971e-13
-7.72566e-13
-7.77102e-13
-7.81578e-13
-7.85994e-13
-7.9035e-13
-7.94647e-13
-7.98886e-13
-8.03067e-13
-8.07192e-13
-8.1126e-13
-8.15275e-13
-8.19236e-13
-8.23145e-13
-8.27004e-13
-8.30813e-13
-8.34575e-13
-8.38289e-13
-8.41957e-13
-8.45578e-13
-8.49151e-13
-8.52674e-13
-8.56144e-13
-8.59559e-13
-8.62913e-13
-8.66202e-13
-8.6942e-13
-8.72565e-13
-8.75634e-13
-8.78631e-13
-8.81563e-13
-8.84444e-13
-8.87294e-13
-8.90133e-13
-8.92982e-13
-8.95853e-13
-8.98741e-13
-9.01605e-13
-9.04348e-13
-9.06799e-13
-9.08749e-13
-9.10066e-13
-9.10791e-13
-9.11109e-13
-9.11247e-13
-9.11233e-13
-9.11703e-13
-9.1188e-13
-9.11977e-13
-9.11928e-13
-1.02689e-11
-5.85891e-10
-9.70176e-10
-1.17828e-09
-1.29007e-09
-1.34621e-09
-1.35033e-09
-1.30048e-09
-1.19299e-09
-1.02456e-09
-7.93098e-10
-4.97915e-10
-1.39645e-10
2.80045e-10
7.58512e-10
1.29254e-09
1.8784e-09
2.51192e-09
3.18849e-09
3.90303e-09
4.64993e-09
5.4229e-09
6.21483e-09
7.01753e-09
7.82151e-09
8.61563e-09
9.38644e-09
1.01168e-08
1.07826e-08
1.13481e-08
1.17626e-08
1.19644e-08
1.18975e-08
1.15334e-08
1.08835e-08
9.99453e-09
8.93138e-09
7.76012e-09
6.538e-09
5.30985e-09
4.10831e-09
2.95574e-09
1.86655e-09
8.4922e-10
-9.20344e-11
-9.56018e-10
-1.74362e-09
-2.45717e-09
-3.0999e-09
-3.67566e-09
-4.18863e-09
-4.64316e-09
-5.04362e-09
-5.39434e-09
-5.69952e-09
-5.96817e-09
-6.20211e-09
-6.40331e-09
-6.57385e-09
-6.71588e-09
-6.83158e-09
-6.92314e-09
-6.99269e-09
-7.04225e-09
-7.07376e-09
-7.089e-09
-7.08963e-09
-7.07714e-09
-7.05289e-09
-7.01811e-09
-6.9739e-09
-6.92126e-09
-6.86108e-09
-6.79412e-09
-6.72101e-09
-6.6422e-09
-6.55793e-09
-6.46816e-09
-6.37268e-09
-6.27122e-09
-6.16411e-09
-6.05363e-09
-5.94638e-09
-5.85659e-09
-5.80914e-09
-5.83715e-09
-5.95723e-09
-6.12656e-09
-6.26662e-09
-6.454e-09
-7.22991e-09
-8.84829e-09
-1.02297e-08
-1.13439e-08
-1.21989e-08
-1.28193e-08
-1.32318e-08
-1.34618e-08
-1.35307e-08
-1.34582e-08
-1.3271e-08
-1.30136e-08
-1.25385e-08
-1.22677e-08
-1.229e-08
-5.31871e-08
-1.39605e-07
-1.5867e-07
-1.58477e-07
-1.58452e-07
-1.58452e-07
-1.58448e-07
-1.58443e-07
-1.58435e-07
-1.58425e-07
-1.58413e-07
-1.58399e-07
-1.58384e-07
-1.58368e-07
-1.58351e-07
-1.58335e-07
-1.5832e-07
-1.58306e-07
-1.58293e-07
-1.58283e-07
-1.58274e-07
-1.58267e-07
-1.58261e-07
-1.58256e-07
-1.58251e-07
-1.58245e-07
-1.58238e-07
-1.58218e-07
-1.58201e-07
-1.582e-07
-1.582e-07
-1.582e-07
-1.582e-07
-1.582e-07
-1.582e-07
-1.582e-07
-1.582e-07
-1.582e-07
-1.582e-07
-1.582e-07
-1.582e-07
-1.582e-07
-1.582e-07
-1.582e-07
-1.582e-07
-1.582e-07
-1.582e-07
-1.582e-07
-1.582e-07
-1.582e-07
-1.582e-07
-1.582e-07
-1.582e-07
-1.582e-07
-1.582e-07
-1.582e-07
-1.582e-07
-1.582e-07
-1.582e-07
-1.582e-07
-1.582e-07
-1.582e-07
-1.582e-07
-1.582e-07
-1.582e-07
-1.582e-07
-1.582e-07
-1.582e-07
-1.582e-07
-1.582e-07
-1.582e-07
-1.582e-07
-1.582e-07
-1.582e-07
-1.582e-07
-1.582e-07
-1.582e-07
-1.582e-07
-1.582e-07
-1.582e-07
-1.582e-07
-1.582e-07
-1.582e-07
-1.582e-07
-1.582e-07
-1.582e-07
-1.582e-07
-1.582e-07
-1.582e-07
-1.582e-07
-1.582e-07
-1.582e-07
-1.582e-07
-1.582e-07
-1.582e-07
-1.582e-07
-1.582e-07
-1.582e-07
-1.582e-07
-1.582e-07
-1.582e-07
-1.582e-07
-1.582e-07
-1.582e-07
-1.582e-07
-1.58182e-07
-1.57476e-07
-1.32607e-07
)
;

boundaryField
{
    inandouthalf11
    {
        type            cyclic;
        value           nonuniform List<scalar> 
100
(
1.65287e-38
4.92937e-16
1.02651e-15
1.51191e-15
2.016e-15
2.55284e-15
3.11176e-15
3.68878e-15
4.28588e-15
4.90554e-15
5.54945e-15
6.21846e-15
6.91279e-15
7.63235e-15
8.37688e-15
9.14597e-15
9.93906e-15
1.07553e-14
1.15936e-14
1.24529e-14
1.33317e-14
1.42287e-14
1.51424e-14
1.60712e-14
1.70134e-14
1.79675e-14
1.89316e-14
1.99042e-14
2.08836e-14
2.18683e-14
2.28565e-14
2.38468e-14
2.48377e-14
2.58279e-14
2.68161e-14
2.78011e-14
2.87818e-14
2.97571e-14
3.07262e-14
3.16882e-14
3.26425e-14
3.35884e-14
3.45252e-14
3.54527e-14
3.63704e-14
3.72781e-14
3.81755e-14
3.90623e-14
3.99384e-14
4.0804e-14
4.1659e-14
4.25034e-14
4.33372e-14
4.41607e-14
4.4974e-14
4.57772e-14
4.65705e-14
4.73542e-14
4.81285e-14
4.88934e-14
4.96493e-14
5.03965e-14
5.11353e-14
5.1866e-14
5.25888e-14
5.33039e-14
5.40116e-14
5.47121e-14
5.54056e-14
5.60922e-14
5.67722e-14
5.7446e-14
5.81138e-14
5.87756e-14
5.94318e-14
6.00826e-14
6.07281e-14
6.13684e-14
6.20036e-14
6.26337e-14
6.3259e-14
6.38795e-14
6.44954e-14
6.51068e-14
6.57139e-14
6.63169e-14
6.69156e-14
6.75102e-14
6.81006e-14
6.86869e-14
6.9269e-14
6.98469e-14
7.04207e-14
7.09906e-14
7.15564e-14
7.21185e-14
7.26767e-14
7.32311e-14
7.37818e-14
7.43287e-14
)
;
    }
    inandouthalf12
    {
        type            cyclic;
        value           nonuniform List<scalar> 
100
(
-1.65287e-38
-4.92937e-16
-1.02651e-15
-1.51191e-15
-2.016e-15
-2.55284e-15
-3.11176e-15
-3.68878e-15
-4.28588e-15
-4.90554e-15
-5.54945e-15
-6.21846e-15
-6.91279e-15
-7.63235e-15
-8.37688e-15
-9.14597e-15
-9.93906e-15
-1.07553e-14
-1.15936e-14
-1.24529e-14
-1.33317e-14
-1.42287e-14
-1.51424e-14
-1.60712e-14
-1.70134e-14
-1.79675e-14
-1.89316e-14
-1.99042e-14
-2.08836e-14
-2.18683e-14
-2.28565e-14
-2.38468e-14
-2.48377e-14
-2.58279e-14
-2.68161e-14
-2.78011e-14
-2.87818e-14
-2.97571e-14
-3.07262e-14
-3.16882e-14
-3.26425e-14
-3.35884e-14
-3.45252e-14
-3.54527e-14
-3.63704e-14
-3.72781e-14
-3.81755e-14
-3.90623e-14
-3.99384e-14
-4.0804e-14
-4.1659e-14
-4.25034e-14
-4.33372e-14
-4.41607e-14
-4.4974e-14
-4.57772e-14
-4.65705e-14
-4.73542e-14
-4.81285e-14
-4.88934e-14
-4.96493e-14
-5.03965e-14
-5.11353e-14
-5.1866e-14
-5.25888e-14
-5.33039e-14
-5.40116e-14
-5.47121e-14
-5.54056e-14
-5.60922e-14
-5.67722e-14
-5.7446e-14
-5.81138e-14
-5.87756e-14
-5.94318e-14
-6.00826e-14
-6.07281e-14
-6.13684e-14
-6.20036e-14
-6.26337e-14
-6.3259e-14
-6.38795e-14
-6.44954e-14
-6.51068e-14
-6.57139e-14
-6.63169e-14
-6.69156e-14
-6.75102e-14
-6.81006e-14
-6.86869e-14
-6.9269e-14
-6.98469e-14
-7.04207e-14
-7.09906e-14
-7.15564e-14
-7.21185e-14
-7.26767e-14
-7.32311e-14
-7.37818e-14
-7.43287e-14
)
;
    }
    inandouthalf21
    {
        type            cyclic;
        value           nonuniform List<scalar> 
100
(
7.4872e-14
7.54116e-14
7.59477e-14
7.64804e-14
7.701e-14
7.75364e-14
7.80601e-14
7.85812e-14
7.91001e-14
7.96169e-14
8.01321e-14
8.0646e-14
8.1159e-14
8.16715e-14
8.21837e-14
8.26961e-14
8.32087e-14
8.37218e-14
8.42355e-14
8.47495e-14
8.52637e-14
8.57778e-14
8.62915e-14
8.68046e-14
8.73171e-14
8.78298e-14
8.83441e-14
8.88627e-14
8.93898e-14
8.99308e-14
9.04921e-14
9.10798e-14
9.16988e-14
9.23486e-14
9.30182e-14
9.36757e-14
9.42659e-14
9.47264e-14
9.50231e-14
9.51751e-14
9.52403e-14
9.52772e-14
9.53215e-14
9.54177e-14
9.54742e-14
9.55169e-14
9.56068e-14
2.37459e-08
1.2369e-07
2.19154e-07
2.95748e-07
3.59308e-07
4.13039e-07
4.5914e-07
4.99177e-07
5.34314e-07
5.65444e-07
5.93266e-07
6.1833e-07
6.41075e-07
6.61845e-07
6.80919e-07
6.98517e-07
7.14815e-07
7.29956e-07
7.44055e-07
7.57207e-07
7.69487e-07
7.8096e-07
7.91679e-07
8.01687e-07
8.11024e-07
8.19723e-07
8.27815e-07
8.35328e-07
8.4229e-07
8.48728e-07
8.54671e-07
8.6015e-07
8.65199e-07
8.69852e-07
8.74146e-07
8.78113e-07
8.81784e-07
8.85187e-07
8.88344e-07
8.91277e-07
8.94002e-07
8.96536e-07
8.98892e-07
9.01084e-07
9.03122e-07
9.05017e-07
9.06779e-07
9.08416e-07
9.09937e-07
9.11351e-07
9.12663e-07
9.13881e-07
9.15012e-07
)
;
    }
    inandouthalf22
    {
        type            cyclic;
        value           nonuniform List<scalar> 
100
(
-7.4872e-14
-7.54116e-14
-7.59477e-14
-7.64804e-14
-7.701e-14
-7.75364e-14
-7.80601e-14
-7.85812e-14
-7.91001e-14
-7.96169e-14
-8.01321e-14
-8.0646e-14
-8.1159e-14
-8.16715e-14
-8.21837e-14
-8.26961e-14
-8.32087e-14
-8.37218e-14
-8.42355e-14
-8.47495e-14
-8.52637e-14
-8.57778e-14
-8.62915e-14
-8.68046e-14
-8.73171e-14
-8.78298e-14
-8.83441e-14
-8.88627e-14
-8.93898e-14
-8.99308e-14
-9.04921e-14
-9.10798e-14
-9.16988e-14
-9.23486e-14
-9.30182e-14
-9.36757e-14
-9.42659e-14
-9.47264e-14
-9.50231e-14
-9.51751e-14
-9.52403e-14
-9.52772e-14
-9.53215e-14
-9.54177e-14
-9.54742e-14
-9.55169e-14
-9.56068e-14
-2.37459e-08
-1.2369e-07
-2.19154e-07
-2.95748e-07
-3.59308e-07
-4.13039e-07
-4.5914e-07
-4.99177e-07
-5.34314e-07
-5.65444e-07
-5.93266e-07
-6.1833e-07
-6.41075e-07
-6.61845e-07
-6.80919e-07
-6.98517e-07
-7.14815e-07
-7.29956e-07
-7.44055e-07
-7.57207e-07
-7.69487e-07
-7.8096e-07
-7.91679e-07
-8.01687e-07
-8.11024e-07
-8.19723e-07
-8.27815e-07
-8.35328e-07
-8.4229e-07
-8.48728e-07
-8.54671e-07
-8.6015e-07
-8.65199e-07
-8.69852e-07
-8.74146e-07
-8.78113e-07
-8.81784e-07
-8.85187e-07
-8.88344e-07
-8.91277e-07
-8.94002e-07
-8.96536e-07
-8.98892e-07
-9.01084e-07
-9.03122e-07
-9.05017e-07
-9.06779e-07
-9.08416e-07
-9.09937e-07
-9.11351e-07
-9.12663e-07
-9.13881e-07
-9.15012e-07
)
;
    }
    inandouthalf31
    {
        type            cyclic;
        value           nonuniform List<scalar> 
110
(
9.16064e-07
9.35659e-07
9.55616e-07
9.75942e-07
9.96643e-07
1.01773e-06
1.0392e-06
1.06108e-06
1.08336e-06
1.10606e-06
1.12918e-06
1.15274e-06
1.17675e-06
1.2012e-06
1.22613e-06
1.25152e-06
1.2774e-06
1.30378e-06
1.33066e-06
1.35806e-06
1.38599e-06
1.41446e-06
1.44348e-06
1.47306e-06
1.50323e-06
1.53398e-06
1.56533e-06
1.5973e-06
1.62989e-06
1.66313e-06
1.69702e-06
1.73159e-06
1.76684e-06
1.80279e-06
1.83945e-06
1.87683e-06
1.91497e-06
1.95682e-06
1.99217e-06
2.02809e-06
2.06455e-06
2.10157e-06
2.13915e-06
2.17731e-06
2.21607e-06
2.25543e-06
2.29543e-06
2.33608e-06
2.37741e-06
2.41943e-06
2.46218e-06
2.5055e-06
2.5493e-06
2.59517e-06
2.64078e-06
2.68795e-06
2.7361e-06
2.78537e-06
2.83584e-06
2.88758e-06
2.9407e-06
2.99531e-06
3.0515e-06
3.1094e-06
3.16911e-06
3.23072e-06
3.2943e-06
3.36e-06
3.42779e-06
3.49768e-06
3.56973e-06
3.64389e-06
3.72014e-06
3.79842e-06
3.87864e-06
3.96071e-06
4.0445e-06
4.12985e-06
4.21645e-06
4.30333e-06
4.39085e-06
4.47998e-06
4.57091e-06
4.66369e-06
4.75835e-06
4.85493e-06
4.95347e-06
5.05401e-06
5.15659e-06
5.26126e-06
5.36805e-06
5.47701e-06
5.58818e-06
5.7016e-06
5.81733e-06
5.9354e-06
6.05588e-06
6.1788e-06
6.30421e-06
6.43217e-06
6.56272e-06
6.69593e-06
6.83184e-06
6.97051e-06
7.11199e-06
7.25634e-06
7.40363e-06
7.5539e-06
7.70723e-06
7.86366e-06
)
;
    }
    inandouthalf32
    {
        type            cyclic;
        value           nonuniform List<scalar> 
110
(
-9.16064e-07
-9.35659e-07
-9.55616e-07
-9.75942e-07
-9.96643e-07
-1.01773e-06
-1.0392e-06
-1.06108e-06
-1.08336e-06
-1.10606e-06
-1.12918e-06
-1.15274e-06
-1.17675e-06
-1.2012e-06
-1.22613e-06
-1.25152e-06
-1.2774e-06
-1.30378e-06
-1.33066e-06
-1.35806e-06
-1.38599e-06
-1.41446e-06
-1.44348e-06
-1.47306e-06
-1.50323e-06
-1.53398e-06
-1.56533e-06
-1.5973e-06
-1.62989e-06
-1.66313e-06
-1.69702e-06
-1.73159e-06
-1.76684e-06
-1.80279e-06
-1.83945e-06
-1.87683e-06
-1.91497e-06
-1.95682e-06
-1.99217e-06
-2.02809e-06
-2.06455e-06
-2.10157e-06
-2.13915e-06
-2.17731e-06
-2.21607e-06
-2.25543e-06
-2.29543e-06
-2.33608e-06
-2.37741e-06
-2.41943e-06
-2.46218e-06
-2.5055e-06
-2.5493e-06
-2.59517e-06
-2.64078e-06
-2.68795e-06
-2.7361e-06
-2.78537e-06
-2.83584e-06
-2.88758e-06
-2.9407e-06
-2.99531e-06
-3.0515e-06
-3.1094e-06
-3.16911e-06
-3.23072e-06
-3.2943e-06
-3.36e-06
-3.42779e-06
-3.49768e-06
-3.56973e-06
-3.64389e-06
-3.72014e-06
-3.79842e-06
-3.87864e-06
-3.96071e-06
-4.0445e-06
-4.12985e-06
-4.21645e-06
-4.30333e-06
-4.39085e-06
-4.47998e-06
-4.57091e-06
-4.66369e-06
-4.75835e-06
-4.85493e-06
-4.95347e-06
-5.05401e-06
-5.15659e-06
-5.26126e-06
-5.36805e-06
-5.47701e-06
-5.58818e-06
-5.7016e-06
-5.81733e-06
-5.9354e-06
-6.05588e-06
-6.1788e-06
-6.30421e-06
-6.43217e-06
-6.56272e-06
-6.69593e-06
-6.83184e-06
-6.97051e-06
-7.11199e-06
-7.25634e-06
-7.40363e-06
-7.5539e-06
-7.70723e-06
-7.86366e-06
)
;
    }
    inandouthalf41
    {
        type            cyclic;
        value           nonuniform List<scalar> 
50
(
7.03878e-06
7.03878e-06
7.03878e-06
7.03878e-06
7.03878e-06
7.03878e-06
7.03878e-06
7.03878e-06
7.03878e-06
7.03878e-06
7.03878e-06
7.03878e-06
7.03878e-06
7.03878e-06
7.03878e-06
7.03878e-06
7.03878e-06
7.03878e-06
7.03878e-06
7.03878e-06
7.03878e-06
7.03878e-06
7.03878e-06
7.03878e-06
7.03878e-06
7.03878e-06
7.03878e-06
7.03878e-06
7.03878e-06
7.03878e-06
7.03878e-06
7.03878e-06
7.03878e-06
7.03878e-06
7.03878e-06
7.03878e-06
7.03878e-06
7.03878e-06
7.03878e-06
7.03878e-06
7.03878e-06
7.03878e-06
7.03878e-06
7.03878e-06
7.03878e-06
7.03878e-06
7.03878e-06
7.03878e-06
7.03877e-06
7.0386e-06
)
;
    }
    inandouthalf42
    {
        type            cyclic;
        value           nonuniform List<scalar> 
50
(
-7.03878e-06
-7.03878e-06
-7.03878e-06
-7.03878e-06
-7.03878e-06
-7.03878e-06
-7.03878e-06
-7.03878e-06
-7.03878e-06
-7.03878e-06
-7.03878e-06
-7.03878e-06
-7.03878e-06
-7.03878e-06
-7.03878e-06
-7.03878e-06
-7.03878e-06
-7.03878e-06
-7.03878e-06
-7.03878e-06
-7.03878e-06
-7.03878e-06
-7.03878e-06
-7.03878e-06
-7.03878e-06
-7.03878e-06
-7.03878e-06
-7.03878e-06
-7.03878e-06
-7.03878e-06
-7.03878e-06
-7.03878e-06
-7.03878e-06
-7.03878e-06
-7.03878e-06
-7.03878e-06
-7.03878e-06
-7.03878e-06
-7.03878e-06
-7.03878e-06
-7.03878e-06
-7.03878e-06
-7.03878e-06
-7.03878e-06
-7.03878e-06
-7.03878e-06
-7.03878e-06
-7.03878e-06
-7.03877e-06
-7.0386e-06
)
;
    }
    top
    {
        type            symmetryPlane;
        value           uniform 0;
    }
    walls
    {
        type            fixedValue;
        value           uniform 0;
    }
    frontAndBackPlanes
    {
        type            empty;
        value           nonuniform 0();
    }
}


// ************************************************************************* //
