/*--------------------------------*- C++ -*----------------------------------*\
| =========                 |                                                 |
| \\      /  F ield         | OpenFOAM: The Open Source CFD Toolbox           |
|  \\    /   O peration     | Version:  2.4.x                                 |
|   \\  /    A nd           | Web:      www.OpenFOAM.org                      |
|    \\/     M anipulation  |                                                 |
\*---------------------------------------------------------------------------*/
FoamFile
{
    version     2.0;
    format      ascii;
    class       surfaceScalarField;
    location    "12.3";
    object      phib;
}
// * * * * * * * * * * * * * * * * * * * * * * * * * * * * * * * * * * * * * //

dimensions      [0 3 -1 0 0 0 0];

internalField   nonuniform List<scalar> 
359
(
7.32974e-15
1.83393e-14
2.85849e-14
3.85617e-14
4.90018e-14
5.98876e-14
7.1092e-14
8.26081e-14
9.44763e-14
1.06737e-13
1.19412e-13
1.32503e-13
1.4601e-13
1.59922e-13
1.74231e-13
1.88922e-13
2.0398e-13
2.19383e-13
2.35105e-13
2.51124e-13
2.67406e-13
2.83926e-13
3.00652e-13
3.17554e-13
3.346e-13
3.51759e-13
3.68998e-13
3.8629e-13
4.03604e-13
4.20912e-13
4.38185e-13
4.55403e-13
4.72532e-13
4.89563e-13
5.06465e-13
5.23224e-13
5.3982e-13
5.56242e-13
5.72479e-13
5.8851e-13
6.04336e-13
6.19945e-13
6.35326e-13
6.50483e-13
6.65406e-13
6.80095e-13
6.94551e-13
7.08766e-13
7.22745e-13
7.36496e-13
7.50012e-13
7.63301e-13
7.76363e-13
7.89206e-13
8.01829e-13
8.14245e-13
8.26449e-13
8.38452e-13
8.50258e-13
8.61865e-13
8.73289e-13
8.84528e-13
8.95593e-13
9.06486e-13
9.17213e-13
9.27776e-13
9.38182e-13
9.48435e-13
9.58538e-13
9.68492e-13
9.78306e-13
9.87986e-13
9.97528e-13
1.00694e-12
1.01623e-12
1.0254e-12
1.03444e-12
1.04336e-12
1.05217e-12
1.06086e-12
1.06944e-12
1.0779e-12
1.08625e-12
1.0945e-12
1.10264e-12
1.11067e-12
1.1186e-12
1.12642e-12
1.13414e-12
1.14175e-12
1.14926e-12
1.15666e-12
1.16396e-12
1.17115e-12
1.17824e-12
1.18522e-12
1.1921e-12
1.19887e-12
1.20555e-12
1.21211e-12
1.21857e-12
1.22493e-12
1.23118e-12
1.23733e-12
1.24337e-12
1.24931e-12
1.25516e-12
1.2609e-12
1.26654e-12
1.27209e-12
1.27754e-12
1.2829e-12
1.28817e-12
1.29334e-12
1.29843e-12
1.30342e-12
1.30831e-12
1.31311e-12
1.3178e-12
1.32238e-12
1.32684e-12
1.33118e-12
1.33538e-12
1.33943e-12
1.34334e-12
1.3471e-12
1.35073e-12
1.35425e-12
1.35767e-12
1.36104e-12
1.36438e-12
1.3677e-12
1.37099e-12
1.37416e-12
1.37707e-12
1.37946e-12
1.38098e-12
1.38142e-12
1.38076e-12
1.3793e-12
1.37732e-12
1.36801e-12
1.36186e-12
1.36185e-12
1.35813e-12
1.34697e-12
1.10699e-11
3.3682e-10
3.36233e-10
3.11354e-10
2.74083e-10
2.31363e-10
1.87482e-10
1.45345e-10
1.06983e-10
7.35925e-11
4.56253e-11
2.29747e-11
5.18166e-12
-8.38464e-12
-1.83943e-11
-2.54886e-11
-3.02398e-11
-3.31385e-11
-3.45936e-11
-3.49405e-11
-3.44506e-11
-3.33411e-11
-3.17846e-11
-2.9917e-11
-2.78448e-11
-2.56501e-11
-2.33951e-11
-2.11234e-11
-1.88588e-11
-1.6607e-11
-1.43668e-11
-1.21512e-11
-1.00085e-11
-8.01716e-12
-6.2563e-12
-4.7727e-12
-3.57058e-12
-2.62275e-12
-1.88799e-12
-1.3239e-12
-8.9315e-13
-5.65322e-13
-3.16585e-13
-1.28619e-13
1.25545e-14
1.1759e-13
1.94631e-13
2.49933e-13
2.88325e-13
3.13558e-13
3.28564e-13
3.35644e-13
3.36614e-13
3.32914e-13
3.2569e-13
3.15632e-13
3.03369e-13
2.89445e-13
2.74328e-13
2.58424e-13
2.42076e-13
2.25577e-13
2.0917e-13
1.93054e-13
1.7739e-13
1.62301e-13
1.47881e-13
1.34196e-13
1.21287e-13
1.0918e-13
9.78817e-14
8.73901e-14
7.76928e-14
6.87709e-14
6.06001e-14
5.31518e-14
4.63933e-14
4.02882e-14
3.47942e-14
2.98623e-14
2.5434e-14
2.1444e-14
1.78325e-14
1.4574e-14
1.17227e-14
9.43145e-15
7.84035e-15
6.84371e-15
6.07743e-15
5.44493e-15
5.10669e-15
4.95193e-15
4.50624e-15
3.91799e-15
3.28596e-15
2.67421e-15
2.11861e-15
1.63574e-15
1.22989e-15
8.98266e-16
6.34545e-16
4.30608e-16
2.72578e-16
1.60428e-16
8.02264e-17
9.61024e-17
5.64271e-18
2.61047e-18
2.38748e-18
2.1691e-18
1.97849e-18
1.79434e-18
1.6373e-18
1.48884e-18
1.36457e-18
1.2502e-18
1.15835e-18
1.0767e-18
1.01061e-18
9.53386e-19
9.12748e-19
8.79603e-19
8.55359e-19
8.37525e-19
8.27685e-19
8.24472e-19
8.23433e-19
8.24493e-19
8.26824e-19
8.28102e-19
8.29002e-19
8.2728e-19
8.25131e-19
8.24531e-19
8.33338e-19
8.38392e-19
8.41714e-19
8.30439e-19
8.24882e-19
7.99055e-19
8.19844e-19
7.74121e-19
7.49188e-19
7.06584e-19
6.62087e-19
5.91216e-19
5.34406e-19
4.59763e-19
3.92791e-19
3.49411e-19
3.29117e-19
3.55744e-19
3.96646e-19
5.51916e-19
5.99445e-19
6.21911e-19
6.46868e-19
6.48897e-19
6.95823e-19
7.17453e-19
7.42499e-19
7.2786e-19
7.44678e-19
7.20574e-19
7.02909e-19
6.70587e-19
6.79572e-19
6.77095e-19
6.78784e-19
6.60131e-19
6.57221e-19
6.37726e-19
6.19766e-19
5.91399e-19
5.84476e-19
5.69824e-19
5.57554e-19
5.36855e-19
5.29838e-19
5.19751e-19
5.25849e-19
5.82832e-19
7.19061e-19
9.03111e-19
1.10389e-18
1.29346e-18
1.50757e-18
1.69636e-18
1.89011e-18
2.05476e-18
2.29319e-18
2.48448e-18
2.67927e-18
2.79991e-18
2.99948e-18
3.08931e-18
3.20081e-18
3.24478e-18
3.5685e-18
3.76904e-18
3.98968e-18
3.97773e-18
4.17303e-18
4.06308e-18
3.98113e-18
3.73886e-18
3.81108e-18
3.57555e-18
3.35115e-18
2.73166e-18
2.02036e-18
1.04544e-18
7.93458e-19
)
;

boundaryField
{
    inandouthalf11
    {
        type            cyclic;
        value           nonuniform List<scalar> 
100
(
6.214e-12
6.17968e-12
6.17555e-12
6.18072e-12
6.18341e-12
6.18464e-12
6.18608e-12
6.1878e-12
6.18958e-12
6.19138e-12
6.19322e-12
6.19509e-12
6.19699e-12
6.19893e-12
6.20091e-12
6.20292e-12
6.20497e-12
6.20706e-12
6.20918e-12
6.21134e-12
6.21353e-12
6.21575e-12
6.21801e-12
6.22029e-12
6.2226e-12
6.22493e-12
6.22729e-12
6.22968e-12
6.23208e-12
6.23451e-12
6.23695e-12
6.23942e-12
6.24189e-12
6.24439e-12
6.2469e-12
6.24942e-12
6.25195e-12
6.2545e-12
6.25707e-12
6.25963e-12
6.26222e-12
6.26481e-12
6.2674e-12
6.27002e-12
6.27263e-12
6.27527e-12
6.27791e-12
6.28055e-12
6.28321e-12
6.2859e-12
6.28857e-12
6.29126e-12
6.29397e-12
6.29669e-12
6.29942e-12
6.30218e-12
6.30493e-12
6.30771e-12
6.31051e-12
6.3133e-12
6.31615e-12
6.31899e-12
6.32186e-12
6.32475e-12
6.32766e-12
6.33058e-12
6.33354e-12
6.33653e-12
6.33953e-12
6.34255e-12
6.34562e-12
6.34871e-12
6.35181e-12
6.35497e-12
6.35814e-12
6.36136e-12
6.3646e-12
6.36788e-12
6.3712e-12
6.37456e-12
6.37795e-12
6.38139e-12
6.38487e-12
6.38839e-12
6.39196e-12
6.39557e-12
6.39924e-12
6.40295e-12
6.40671e-12
6.41053e-12
6.4144e-12
6.41833e-12
6.42232e-12
6.42638e-12
6.4305e-12
6.43468e-12
6.43894e-12
6.44327e-12
6.44767e-12
6.45215e-12
)
;
    }
    inandouthalf12
    {
        type            cyclic;
        value           nonuniform List<scalar> 
100
(
-6.214e-12
-6.17968e-12
-6.17555e-12
-6.18072e-12
-6.18341e-12
-6.18464e-12
-6.18608e-12
-6.1878e-12
-6.18958e-12
-6.19138e-12
-6.19322e-12
-6.19509e-12
-6.19699e-12
-6.19893e-12
-6.20091e-12
-6.20292e-12
-6.20497e-12
-6.20706e-12
-6.20918e-12
-6.21134e-12
-6.21353e-12
-6.21575e-12
-6.21801e-12
-6.22029e-12
-6.2226e-12
-6.22493e-12
-6.22729e-12
-6.22968e-12
-6.23208e-12
-6.23451e-12
-6.23695e-12
-6.23942e-12
-6.24189e-12
-6.24439e-12
-6.2469e-12
-6.24942e-12
-6.25195e-12
-6.2545e-12
-6.25707e-12
-6.25963e-12
-6.26222e-12
-6.26481e-12
-6.2674e-12
-6.27002e-12
-6.27263e-12
-6.27527e-12
-6.27791e-12
-6.28055e-12
-6.28321e-12
-6.2859e-12
-6.28857e-12
-6.29126e-12
-6.29397e-12
-6.29669e-12
-6.29942e-12
-6.30218e-12
-6.30493e-12
-6.30771e-12
-6.31051e-12
-6.3133e-12
-6.31615e-12
-6.31899e-12
-6.32186e-12
-6.32475e-12
-6.32766e-12
-6.33058e-12
-6.33354e-12
-6.33653e-12
-6.33953e-12
-6.34255e-12
-6.34562e-12
-6.34871e-12
-6.35181e-12
-6.35497e-12
-6.35814e-12
-6.36136e-12
-6.3646e-12
-6.36788e-12
-6.3712e-12
-6.37456e-12
-6.37795e-12
-6.38139e-12
-6.38487e-12
-6.38839e-12
-6.39196e-12
-6.39557e-12
-6.39924e-12
-6.40295e-12
-6.40671e-12
-6.41053e-12
-6.4144e-12
-6.41833e-12
-6.42232e-12
-6.42638e-12
-6.4305e-12
-6.43468e-12
-6.43894e-12
-6.44327e-12
-6.44767e-12
-6.45215e-12
)
;
    }
    inandouthalf21
    {
        type            cyclic;
        value           nonuniform List<scalar> 
100
(
6.45671e-12
6.46136e-12
6.46609e-12
6.47092e-12
6.47584e-12
6.48086e-12
6.48599e-12
6.49123e-12
6.49658e-12
6.50204e-12
6.50764e-12
6.51336e-12
6.51922e-12
6.52523e-12
6.53138e-12
6.5377e-12
6.54417e-12
6.55083e-12
6.55767e-12
6.5647e-12
6.57194e-12
6.57939e-12
6.58708e-12
6.59501e-12
6.60319e-12
6.61164e-12
6.62038e-12
6.62944e-12
6.63885e-12
6.64863e-12
6.65881e-12
6.66942e-12
6.68053e-12
6.69226e-12
6.70475e-12
6.71801e-12
6.73197e-12
6.74673e-12
6.76291e-12
6.78119e-12
6.80085e-12
6.82421e-12
6.98493e-12
6.96113e-12
6.99077e-12
7.10952e-12
7.5723e-11
2.65834e-08
1.33575e-07
2.27513e-07
3.02718e-07
3.65065e-07
4.17913e-07
4.63392e-07
5.03012e-07
5.37902e-07
5.68929e-07
5.96771e-07
6.21962e-07
6.44929e-07
6.66011e-07
6.85481e-07
7.03559e-07
7.20426e-07
7.36229e-07
7.51088e-07
7.65104e-07
7.78358e-07
7.90919e-07
8.02846e-07
8.14185e-07
8.24976e-07
8.35251e-07
8.45037e-07
8.54356e-07
8.63224e-07
8.71656e-07
8.79661e-07
8.87246e-07
8.94417e-07
9.01176e-07
9.07527e-07
9.13471e-07
9.1901e-07
9.24148e-07
9.28889e-07
9.33239e-07
9.37209e-07
9.40808e-07
9.44051e-07
9.46954e-07
9.49537e-07
9.51819e-07
9.53824e-07
9.55571e-07
9.57085e-07
9.58386e-07
9.59494e-07
9.60429e-07
9.61207e-07
)
;
    }
    inandouthalf22
    {
        type            cyclic;
        value           nonuniform List<scalar> 
100
(
-6.45671e-12
-6.46136e-12
-6.46609e-12
-6.47092e-12
-6.47584e-12
-6.48086e-12
-6.48599e-12
-6.49123e-12
-6.49658e-12
-6.50204e-12
-6.50764e-12
-6.51336e-12
-6.51922e-12
-6.52523e-12
-6.53138e-12
-6.5377e-12
-6.54417e-12
-6.55083e-12
-6.55767e-12
-6.5647e-12
-6.57194e-12
-6.57939e-12
-6.58708e-12
-6.59501e-12
-6.60319e-12
-6.61164e-12
-6.62038e-12
-6.62944e-12
-6.63885e-12
-6.64863e-12
-6.65881e-12
-6.66942e-12
-6.68053e-12
-6.69226e-12
-6.70475e-12
-6.71801e-12
-6.73197e-12
-6.74673e-12
-6.76291e-12
-6.78119e-12
-6.80085e-12
-6.82421e-12
-6.98493e-12
-6.96113e-12
-6.99077e-12
-7.10952e-12
-7.5723e-11
-2.65834e-08
-1.33575e-07
-2.27513e-07
-3.02718e-07
-3.65065e-07
-4.17913e-07
-4.63392e-07
-5.03012e-07
-5.37902e-07
-5.68929e-07
-5.96771e-07
-6.21962e-07
-6.44929e-07
-6.66011e-07
-6.85481e-07
-7.03559e-07
-7.20426e-07
-7.36229e-07
-7.51088e-07
-7.65104e-07
-7.78358e-07
-7.90919e-07
-8.02846e-07
-8.14185e-07
-8.24976e-07
-8.35251e-07
-8.45037e-07
-8.54356e-07
-8.63224e-07
-8.71656e-07
-8.79661e-07
-8.87246e-07
-8.94417e-07
-9.01176e-07
-9.07527e-07
-9.13471e-07
-9.1901e-07
-9.24148e-07
-9.28889e-07
-9.33239e-07
-9.37209e-07
-9.40808e-07
-9.44051e-07
-9.46954e-07
-9.49537e-07
-9.51819e-07
-9.53824e-07
-9.55571e-07
-9.57085e-07
-9.58386e-07
-9.59494e-07
-9.60429e-07
-9.61207e-07
)
;
    }
    inandouthalf31
    {
        type            cyclic;
        value           nonuniform List<scalar> 
110
(
9.6185e-07
9.81901e-07
1.00226e-06
1.02293e-06
1.04392e-06
1.06524e-06
1.08689e-06
1.10889e-06
1.13124e-06
1.15395e-06
1.17702e-06
1.20046e-06
1.22428e-06
1.24848e-06
1.27307e-06
1.29805e-06
1.32343e-06
1.34921e-06
1.3754e-06
1.40201e-06
1.42903e-06
1.45648e-06
1.48436e-06
1.51267e-06
1.54142e-06
1.57061e-06
1.60025e-06
1.63034e-06
1.66089e-06
1.6919e-06
1.72337e-06
1.75533e-06
1.78775e-06
1.82067e-06
1.85407e-06
1.88797e-06
1.92238e-06
1.9573e-06
1.99274e-06
2.02871e-06
2.06522e-06
2.10228e-06
2.13991e-06
2.17812e-06
2.21691e-06
2.25632e-06
2.29636e-06
2.33705e-06
2.37842e-06
2.42049e-06
2.46329e-06
2.50686e-06
2.55124e-06
2.59648e-06
2.64262e-06
2.68973e-06
2.73787e-06
2.7871e-06
2.83752e-06
2.8892e-06
2.94225e-06
2.99677e-06
3.05287e-06
3.11066e-06
3.17024e-06
3.23173e-06
3.2952e-06
3.36073e-06
3.42838e-06
3.49818e-06
3.57012e-06
3.6442e-06
3.72037e-06
3.79859e-06
3.87878e-06
3.96085e-06
4.04466e-06
4.13004e-06
4.21675e-06
4.3039e-06
4.39147e-06
4.48061e-06
4.57155e-06
4.66434e-06
4.75902e-06
4.85561e-06
4.95417e-06
5.05472e-06
5.15732e-06
5.262e-06
5.36881e-06
5.47778e-06
5.58896e-06
5.7024e-06
5.81815e-06
5.93624e-06
6.05673e-06
6.17967e-06
6.3051e-06
6.43307e-06
6.56365e-06
6.69687e-06
6.8328e-06
6.97149e-06
7.11299e-06
7.25737e-06
7.40467e-06
7.55497e-06
7.70831e-06
7.86477e-06
)
;
    }
    inandouthalf32
    {
        type            cyclic;
        value           nonuniform List<scalar> 
110
(
-9.6185e-07
-9.81901e-07
-1.00226e-06
-1.02293e-06
-1.04392e-06
-1.06524e-06
-1.08689e-06
-1.10889e-06
-1.13124e-06
-1.15395e-06
-1.17702e-06
-1.20046e-06
-1.22428e-06
-1.24848e-06
-1.27307e-06
-1.29805e-06
-1.32343e-06
-1.34921e-06
-1.3754e-06
-1.40201e-06
-1.42903e-06
-1.45648e-06
-1.48436e-06
-1.51267e-06
-1.54142e-06
-1.57061e-06
-1.60025e-06
-1.63034e-06
-1.66089e-06
-1.6919e-06
-1.72337e-06
-1.75533e-06
-1.78775e-06
-1.82067e-06
-1.85407e-06
-1.88797e-06
-1.92238e-06
-1.9573e-06
-1.99274e-06
-2.02871e-06
-2.06522e-06
-2.10228e-06
-2.13991e-06
-2.17812e-06
-2.21691e-06
-2.25632e-06
-2.29636e-06
-2.33705e-06
-2.37842e-06
-2.42049e-06
-2.46329e-06
-2.50686e-06
-2.55124e-06
-2.59648e-06
-2.64262e-06
-2.68973e-06
-2.73787e-06
-2.7871e-06
-2.83752e-06
-2.8892e-06
-2.94225e-06
-2.99677e-06
-3.05287e-06
-3.11066e-06
-3.17024e-06
-3.23173e-06
-3.2952e-06
-3.36073e-06
-3.42838e-06
-3.49818e-06
-3.57012e-06
-3.6442e-06
-3.72037e-06
-3.79859e-06
-3.87878e-06
-3.96085e-06
-4.04466e-06
-4.13004e-06
-4.21675e-06
-4.3039e-06
-4.39147e-06
-4.48061e-06
-4.57155e-06
-4.66434e-06
-4.75902e-06
-4.85561e-06
-4.95417e-06
-5.05472e-06
-5.15732e-06
-5.262e-06
-5.36881e-06
-5.47778e-06
-5.58896e-06
-5.7024e-06
-5.81815e-06
-5.93624e-06
-6.05673e-06
-6.17967e-06
-6.3051e-06
-6.43307e-06
-6.56365e-06
-6.69687e-06
-6.8328e-06
-6.97149e-06
-7.11299e-06
-7.25737e-06
-7.40467e-06
-7.55497e-06
-7.70831e-06
-7.86477e-06
)
;
    }
    inandouthalf41
    {
        type            cyclic;
        value           nonuniform List<scalar> 
50
(
7.03977e-06
7.03977e-06
7.03977e-06
7.03977e-06
7.03977e-06
7.03977e-06
7.03977e-06
7.03977e-06
7.03977e-06
7.03977e-06
7.03977e-06
7.03977e-06
7.03977e-06
7.03977e-06
7.03977e-06
7.03977e-06
7.03977e-06
7.03977e-06
7.03977e-06
7.03977e-06
7.03977e-06
7.03977e-06
7.03977e-06
7.03977e-06
7.03977e-06
7.03977e-06
7.03977e-06
7.03977e-06
7.03977e-06
7.03977e-06
7.03977e-06
7.03977e-06
7.03977e-06
7.03977e-06
7.03977e-06
7.03977e-06
7.03977e-06
7.03977e-06
7.03977e-06
7.03977e-06
7.03977e-06
7.03977e-06
7.03977e-06
7.03977e-06
7.03977e-06
7.03977e-06
7.03977e-06
7.03977e-06
7.03977e-06
7.03977e-06
)
;
    }
    inandouthalf42
    {
        type            cyclic;
        value           nonuniform List<scalar> 
50
(
-7.03977e-06
-7.03977e-06
-7.03977e-06
-7.03977e-06
-7.03977e-06
-7.03977e-06
-7.03977e-06
-7.03977e-06
-7.03977e-06
-7.03977e-06
-7.03977e-06
-7.03977e-06
-7.03977e-06
-7.03977e-06
-7.03977e-06
-7.03977e-06
-7.03977e-06
-7.03977e-06
-7.03977e-06
-7.03977e-06
-7.03977e-06
-7.03977e-06
-7.03977e-06
-7.03977e-06
-7.03977e-06
-7.03977e-06
-7.03977e-06
-7.03977e-06
-7.03977e-06
-7.03977e-06
-7.03977e-06
-7.03977e-06
-7.03977e-06
-7.03977e-06
-7.03977e-06
-7.03977e-06
-7.03977e-06
-7.03977e-06
-7.03977e-06
-7.03977e-06
-7.03977e-06
-7.03977e-06
-7.03977e-06
-7.03977e-06
-7.03977e-06
-7.03977e-06
-7.03977e-06
-7.03977e-06
-7.03977e-06
-7.03977e-06
)
;
    }
    top
    {
        type            symmetryPlane;
        value           uniform 0;
    }
    walls
    {
        type            fixedValue;
        value           uniform 0;
    }
    frontAndBackPlanes
    {
        type            empty;
        value           nonuniform 0();
    }
}


// ************************************************************************* //
