/*--------------------------------*- C++ -*----------------------------------*\
| =========                 |                                                 |
| \\      /  F ield         | OpenFOAM: The Open Source CFD Toolbox           |
|  \\    /   O peration     | Version:  2.4.x                                 |
|   \\  /    A nd           | Web:      www.OpenFOAM.org                      |
|    \\/     M anipulation  |                                                 |
\*---------------------------------------------------------------------------*/
FoamFile
{
    version     2.0;
    format      ascii;
    class       volTensorField;
    location    "12.3";
    object      Taus;
}
// * * * * * * * * * * * * * * * * * * * * * * * * * * * * * * * * * * * * * //

dimensions      [0 2 -2 0 0 0 0];

internalField   nonuniform List<tensor> 
360
(
(0 -0.0238448 0 -0.0238448 -0.206958 0 0 0 0)
(0 -0.0353043 0 -0.0353043 -0.26266 0 0 0 0)
(0 -0.0427771 0 -0.0427771 -0.266536 0 0 0 0)
(0 -0.041486 0 -0.041486 -0.259851 0 0 0 0)
(1.53116e-17 -0.0404087 0 -0.0404087 -0.257034 0 0 0 0)
(1.45694e-17 -0.0404751 0 -0.0404751 -0.255968 0 0 0 0)
(2.82081e-17 -0.0406189 0 -0.0406189 -0.254573 0 0 0 0)
(0 -0.0405991 0 -0.0405991 -0.252872 0 0 0 0)
(2.62766e-17 -0.0405296 0 -0.0405296 -0.251161 0 0 0 0)
(0 -0.0404547 0 -0.0404547 -0.249452 0 0 0 0)
(4.85222e-17 -0.0403784 0 -0.0403784 -0.247739 0 0 0 0)
(0 -0.0403051 0 -0.0403051 -0.246039 0 0 0 0)
(4.48917e-17 -0.0402302 0 -0.0402302 -0.244335 0 0 0 0)
(0 -0.0401528 0 -0.0401528 -0.242631 0 0 0 0)
(0 -0.0400712 0 -0.0400712 -0.240922 0 0 0 0)
(0 -0.0399839 0 -0.0399839 -0.239208 0 0 0 0)
(0 -0.0398925 0 -0.0398925 -0.237489 0 0 0 0)
(7.59007e-17 -0.0397989 0 -0.0397989 -0.23577 0 0 0 0)
(0 -0.0397017 0 -0.0397017 -0.23405 0 0 0 0)
(0 -0.0395991 0 -0.0395991 -0.232318 0 0 0 0)
(0 -0.0394961 0 -0.0394961 -0.230597 0 0 0 0)
(6.86409e-17 -0.0393874 0 -0.0393874 -0.228863 0 0 0 0)
(0 -0.039275 0 -0.039275 -0.227128 0 0 0 0)
(0 -0.0391597 0 -0.0391597 -0.225392 0 0 0 0)
(0 -0.0390401 0 -0.0390401 -0.223652 0 0 0 0)
(6.40203e-17 -0.0389177 0 -0.0389177 -0.221909 0 0 0 0)
(0 -0.0387928 0 -0.0387928 -0.220169 0 0 0 0)
(0 -0.0386619 0 -0.0386619 -0.218418 0 0 0 0)
(0 -0.0385283 0 -0.0385283 -0.216668 0 0 0 0)
(0 -0.0383928 0 -0.0383928 -0.214918 0 0 0 0)
(0 -0.0382527 0 -0.0382527 -0.213166 0 0 0 0)
(0 -0.0381077 0 -0.0381077 -0.211402 0 0 0 0)
(0 -0.0379636 0 -0.0379636 -0.209656 0 0 0 0)
(0 -0.03781 0 -0.03781 -0.207883 0 0 0 0)
(0 -0.037657 0 -0.037657 -0.206127 0 0 0 0)
(-1.20397e-16 -0.0374995 0 -0.0374995 -0.204359 0 0 0 0)
(0 -0.0373403 0 -0.0373403 -0.202597 0 0 0 0)
(0 -0.0371746 0 -0.0371746 -0.200827 0 0 0 0)
(0 -0.0370047 0 -0.0370047 -0.199048 0 0 0 0)
(0 -0.0368382 0 -0.0368382 -0.197292 0 0 0 0)
(0 -0.0366599 0 -0.0366599 -0.195506 0 0 0 0)
(0 -0.0364815 0 -0.0364815 -0.19373 0 0 0 0)
(-1.22893e-16 -0.0363039 0 -0.0363039 -0.191964 0 0 0 0)
(0 -0.0361161 0 -0.0361161 -0.190174 0 0 0 0)
(0 -0.0359288 0 -0.0359288 -0.1884 0 0 0 0)
(0 -0.0357363 0 -0.0357363 -0.186617 0 0 0 0)
(0 -0.0355395 0 -0.0355395 -0.184826 0 0 0 0)
(0 -0.0353466 0 -0.0353466 -0.183055 0 0 0 0)
(0 -0.0351443 0 -0.0351443 -0.181267 0 0 0 0)
(0 -0.0349348 0 -0.0349348 -0.179467 0 0 0 0)
(-1.28976e-16 -0.0347305 0 -0.0347305 -0.177691 0 0 0 0)
(0 -0.0345192 0 -0.0345192 -0.175896 0 0 0 0)
(0 -0.0343047 0 -0.0343047 -0.174108 0 0 0 0)
(0 -0.0340867 0 -0.0340867 -0.172311 0 0 0 0)
(0 -0.0338686 0 -0.0338686 -0.170527 0 0 0 0)
(0 -0.0336421 0 -0.0336421 -0.168721 0 0 0 0)
(0 -0.0334182 0 -0.0334182 -0.166937 0 0 0 0)
(0 -0.0331865 0 -0.0331865 -0.165132 0 0 0 0)
(0 -0.0329551 0 -0.0329551 -0.163335 0 0 0 0)
(0 -0.0327239 0 -0.0327239 -0.161548 0 0 0 0)
(0 -0.0324826 0 -0.0324826 -0.159736 0 0 0 0)
(0 -0.0322441 0 -0.0322441 -0.157946 0 0 0 0)
(0 -0.0319993 0 -0.0319993 -0.156138 0 0 0 0)
(0 -0.0317537 0 -0.0317537 -0.154339 0 0 0 0)
(0 -0.0315058 0 -0.0315058 -0.152535 0 0 0 0)
(0 -0.0312565 0 -0.0312565 -0.150735 0 0 0 0)
(0 -0.0310024 0 -0.0310024 -0.148929 0 0 0 0)
(0 -0.0307454 0 -0.0307454 -0.147122 0 0 0 0)
(0 -0.030489 0 -0.030489 -0.145316 0 0 0 0)
(0 -0.0302329 0 -0.0302329 -0.143518 0 0 0 0)
(0 -0.0299678 0 -0.0299678 -0.141705 0 0 0 0)
(0 -0.029701 0 -0.029701 -0.139891 0 0 0 0)
(0 -0.0294391 0 -0.0294391 -0.138094 0 0 0 0)
(0 -0.0291701 0 -0.0291701 -0.136279 0 0 0 0)
(0 -0.0288993 0 -0.0288993 -0.134472 0 0 0 0)
(0 -0.028625 0 -0.028625 -0.132655 0 0 0 0)
(0 -0.0283527 0 -0.0283527 -0.130848 0 0 0 0)
(0 -0.0280784 0 -0.0280784 -0.129037 0 0 0 0)
(0 -0.0278007 0 -0.0278007 -0.127224 0 0 0 0)
(0 -0.0275214 0 -0.0275214 -0.125409 0 0 0 0)
(0 -0.0272423 0 -0.0272423 -0.123598 0 0 0 0)
(0 -0.0269606 0 -0.0269606 -0.121784 0 0 0 0)
(0 -0.0266767 0 -0.0266767 -0.119968 0 0 0 0)
(0 -0.0263918 0 -0.0263918 -0.118153 0 0 0 0)
(0 -0.0261054 0 -0.0261054 -0.116336 0 0 0 0)
(0 -0.0258177 0 -0.0258177 -0.11452 0 0 0 0)
(0 -0.0255285 0 -0.0255285 -0.112702 0 0 0 0)
(0 -0.0252388 0 -0.0252388 -0.110885 0 0 0 0)
(0 -0.0249482 0 -0.0249482 -0.109067 0 0 0 0)
(0 -0.0246563 0 -0.0246563 -0.107249 0 0 0 0)
(0 -0.0243635 0 -0.0243635 -0.10543 0 0 0 0)
(0 -0.0240697 0 -0.0240697 -0.103611 0 0 0 0)
(0 -0.0237746 0 -0.0237746 -0.101791 0 0 0 0)
(0 -0.0234785 0 -0.0234785 -0.0999702 0 0 0 0)
(0 -0.0231814 0 -0.0231814 -0.0981491 0 0 0 0)
(0 -0.0228836 0 -0.0228836 -0.0963275 0 0 0 0)
(0 -0.0225851 0 -0.0225851 -0.0945056 0 0 0 0)
(0 -0.0222861 0 -0.0222861 -0.0926834 0 0 0 0)
(0 -0.0219868 0 -0.0219868 -0.0908609 0 0 0 0)
(0 -0.0216871 0 -0.0216871 -0.0890381 0 0 0 0)
(0 -0.021387 0 -0.021387 -0.0872151 0 0 0 0)
(0 -0.0210867 0 -0.0210867 -0.0853918 0 0 0 0)
(0 -0.0207862 0 -0.0207862 -0.0835681 0 0 0 0)
(0 -0.0204856 0 -0.0204856 -0.0817442 0 0 0 0)
(0 -0.0201852 0 -0.0201852 -0.0799201 0 0 0 0)
(0 -0.0198851 0 -0.0198851 -0.0780958 0 0 0 0)
(0 -0.0195854 0 -0.0195854 -0.0762715 0 0 0 0)
(0 -0.0192864 0 -0.0192864 -0.0744471 0 0 0 0)
(0 -0.0189883 0 -0.0189883 -0.0726227 0 0 0 0)
(0 -0.0186912 0 -0.0186912 -0.0707983 0 0 0 0)
(0 -0.0183955 0 -0.0183955 -0.068974 0 0 0 0)
(0 -0.0181012 0 -0.0181012 -0.0671498 0 0 0 0)
(0 -0.0178087 0 -0.0178087 -0.0653257 0 0 0 0)
(0 -0.0175182 0 -0.0175182 -0.0635017 0 0 0 0)
(0 -0.0172298 0 -0.0172298 -0.0616778 0 0 0 0)
(0 -0.0169438 0 -0.0169438 -0.0598541 0 0 0 0)
(0 -0.0166603 0 -0.0166603 -0.0580303 0 0 0 0)
(0 -0.0163796 0 -0.0163796 -0.0562065 0 0 0 0)
(0 -0.0161016 0 -0.0161016 -0.0543825 0 0 0 0)
(0 -0.0158266 0 -0.0158266 -0.0525581 0 0 0 0)
(0 -0.0155546 0 -0.0155546 -0.0507332 0 0 0 0)
(0 -0.0152859 0 -0.0152859 -0.0489074 0 0 0 0)
(0 -0.0150206 0 -0.0150206 -0.0470805 0 0 0 0)
(0 -0.0147593 0 -0.0147593 -0.045252 0 0 0 0)
(0 -0.0145025 0 -0.0145025 -0.0434216 0 0 0 0)
(0 -0.0142504 0 -0.0142504 -0.0415886 0 0 0 0)
(0 -0.0140032 0 -0.0140032 -0.0397522 0 0 0 0)
(0 -0.0137603 0 -0.0137603 -0.0379117 0 0 0 0)
(0 -0.0135205 0 -0.0135205 -0.036066 0 0 0 0)
(0 -0.0132833 0 -0.0132833 -0.0342146 0 0 0 0)
(0 -0.0130492 0 -0.0130492 -0.0323577 0 0 0 0)
(0 -0.0128175 0 -0.0128175 -0.0304962 0 0 0 0)
(0 -0.0125815 0 -0.0125815 -0.0286311 0 0 0 0)
(0 -0.0123263 0 -0.0123263 -0.0267628 0 0 0 0)
(0 -0.0120394 0 -0.0120394 -0.0248918 0 0 0 0)
(0 -0.0117256 0 -0.0117256 -0.0230203 0 0 0 0)
(0 -0.0113991 0 -0.0113991 -0.021147 0 0 0 0)
(0 -0.011058 0 -0.011058 -0.0192556 0 0 0 0)
(0 -0.0106855 0 -0.0106855 -0.0172887 0 0 0 0)
(0 -0.0103341 0 -0.0103341 -0.0150618 0 0 0 0)
(0 -0.0104092 0 -0.0104092 -0.0116745 0 0 0 0)
(0 -0.00912413 0 -0.00912413 -0.0112956 0 0 0 0)
(0 -0.00361928 0 -0.00361928 -0.0075379 0 0 0 0)
(0 -0.00429746 0 -0.00429746 -0.00789111 0 0 0 0)
(0 -0.00512665 0 -0.00512665 -0.00360279 0 0 0 0)
(0 -0.00450683 0 -0.00450683 2.19827e-05 0 0 0 0)
(0 -0.00246053 0 -0.00246053 -3.46872e-06 0 0 0 0)
(0 -0.00205711 0 -0.00205711 -7.3601e-06 0 0 0 0)
(0 -0.00291465 0 -0.00291465 -7.77733e-06 0 0 0 0)
(0 -0.00266305 0 -0.00266305 -2.95153e-06 0 0 0 0)
(0 -0.00225479 0 -0.00225479 -1.7708e-06 0 0 0 0)
(0 -0.00201637 0 -0.00201637 -7.88096e-07 0 0 0 0)
(0 -0.00189353 0 -0.00189353 -6.17234e-08 0 0 0 0)
(0 -0.00186003 0 -0.00186003 1.07247e-06 0 0 0 0)
(0 -0.00189892 0 -0.00189892 2.71483e-06 0 0 0 0)
(0 -0.00199953 0 -0.00199953 5.0846e-06 0 0 0 0)
(0 -0.0021553 0 -0.0021553 8.46271e-06 0 0 0 0)
(0 -0.00236252 0 -0.00236252 1.31806e-05 0 0 0 0)
(0 -0.0026195 0 -0.0026195 1.96209e-05 0 0 0 0)
(0 -0.00292595 0 -0.00292595 2.82101e-05 0 0 0 0)
(0 -0.00328265 0 -0.00328265 3.94087e-05 0 0 0 0)
(0 -0.00369107 0 -0.00369107 5.37345e-05 0 0 0 0)
(0 -0.00415314 0 -0.00415314 7.17629e-05 0 0 0 0)
(0 -0.00467105 0 -0.00467105 9.41017e-05 0 0 0 0)
(0 -0.005247 0 -0.005247 0.000121383 0 0 0 0)
(0 -0.00588318 0 -0.00588318 0.00015424 0 0 0 0)
(0 -0.00658151 0 -0.00658151 0.000193269 0 0 0 0)
(0 -0.00734362 0 -0.00734362 0.000238957 0 0 0 0)
(0 -0.00817078 0 -0.00817078 0.000291577 0 0 0 0)
(0 -0.00906389 0 -0.00906389 0.000351028 0 0 0 0)
(0 -0.0100235 0 -0.0100235 0.000416612 0 0 0 0)
(0 -0.0110501 0 -0.0110501 0.000486691 0 0 0 0)
(0 -0.0121443 0 -0.0121443 0.000557984 0 0 0 0)
(0 -0.0133078 0 -0.0133078 0.000623798 0 0 0 0)
(0 -0.0145462 0 -0.0145462 0.000670147 0 0 0 0)
(0 -0.0158731 0 -0.0158731 0.000669603 0 0 0 0)
(0 -0.0173169 0 -0.0173169 0.000576089 0 0 0 0)
(0 -0.0189224 0 -0.0189224 0.000327522 0 0 0 0)
(0 -0.0207406 0 -0.0207406 -0.000138186 0 0 0 0)
(0 -0.0228056 0 -0.0228056 -0.000857315 0 0 0 0)
(0 -0.0251095 0 -0.0251095 -0.0018186 0 0 0 0)
(0 -0.0275934 0 -0.0275934 -0.00296039 0 0 0 0)
(0 -0.0301617 0 -0.0301617 -0.00418968 0 0 0 0)
(0 -0.0327085 0 -0.0327085 -0.00541027 0 0 0 0)
(0 -0.0351392 0 -0.0351392 -0.006544 0 0 0 0)
(0 -0.0373815 0 -0.0373815 -0.00753853 0 0 0 0)
(0 -0.039387 0 -0.039387 -0.00836546 0 0 0 0)
(0 -0.0411279 0 -0.0411279 -0.0090146 0 0 0 0)
(0 -0.0425929 0 -0.0425929 -0.00948802 0 0 0 0)
(0 -0.0437828 0 -0.0437828 -0.0097954 0 0 0 0)
(0 -0.0447067 0 -0.0447067 -0.00995071 0 0 0 0)
(0 -0.0453795 0 -0.0453795 -0.00996998 0 0 0 0)
(0 -0.0458194 0 -0.0458194 -0.00986992 0 0 0 0)
(0 -0.0460463 0 -0.0460463 -0.00966698 0 0 0 0)
(0 -0.0460809 0 -0.0460809 -0.00937686 0 0 0 0)
(0 -0.0459434 0 -0.0459434 -0.00901421 0 0 0 0)
(0 -0.0456531 0 -0.0456531 -0.00859246 0 0 0 0)
(0 -0.0452283 0 -0.0452283 -0.0081238 0 0 0 0)
(0 -0.0446853 0 -0.0446853 -0.00761913 0 0 0 0)
(0 -0.0440393 0 -0.0440393 -0.00708813 0 0 0 0)
(0 -0.0433038 0 -0.0433038 -0.00653924 0 0 0 0)
(0 -0.0424901 0 -0.0424901 -0.00597574 0 0 0 0)
(0 -0.041603 0 -0.041603 -0.0053993 0 0 0 0)
(0 -0.0406514 0 -0.0406514 -0.0048165 0 0 0 0)
(0 -0.0396421 0 -0.0396421 -0.00423322 0 0 0 0)
(-5.44878e-15 -0.0385814 0 -0.0385814 -0.00365478 0 0 0 0)
(0 -0.0374746 0 -0.0374746 -0.00308579 0 0 0 0)
(5.85087e-15 -0.0363263 0 -0.0363263 -0.00253001 0 0 0 0)
(0 -0.0351404 0 -0.0351404 -0.00199032 0 0 0 0)
(-6.27471e-15 -0.0339199 0 -0.0339199 -0.0014687 0 0 0 0)
(0 -0.0326676 0 -0.0326676 -0.000966277 0 0 0 0)
(0 -0.0313858 0 -0.0313858 -0.000483549 0 0 0 0)
(0 -0.0300767 0 -0.0300767 -2.05468e-05 0 0 0 0)
(-7.1689e-15 -0.0287423 0 -0.0287423 0.000422913 0 0 0 0)
(0 -0.0273852 0 -0.0273852 0.000847012 0 0 0 0)
(0 -0.0260078 0 -0.0260078 0.00125177 0 0 0 0)
(0 -0.0246131 0 -0.0246131 0.00163695 0 0 0 0)
(0 -0.023204 0 -0.023204 0.00200214 0 0 0 0)
(0 -0.0217839 0 -0.0217839 0.00234699 0 0 0 0)
(8.44979e-15 -0.0203558 0 -0.0203558 0.00267163 0 0 0 0)
(0 -0.0189228 0 -0.0189228 0.00297727 0 0 0 0)
(0 -0.0174874 0 -0.0174874 0.0032667 0 0 0 0)
(0 -0.0160521 0 -0.0160521 0.00354469 0 0 0 0)
(9.00313e-15 -0.0146195 0 -0.0146195 0.00381763 0 0 0 0)
(0 -0.0131928 0 -0.0131928 0.00409089 0 0 0 0)
(0 -0.0117778 0 -0.0117778 0.00436074 0 0 0 0)
(0 -0.0103857 0 -0.0103857 0.00459593 0 0 0 0)
(0 -0.0090365 0 -0.0090365 0.0047052 0 0 0 0)
(-8.87428e-15 -0.0077605 0 -0.0077605 0.00449406 0 0 0 0)
(-8.70786e-15 -0.00659302 0 -0.00659302 0.00363567 0 0 0 0)
(0 -0.00555514 0 -0.00555514 0.00174968 0 0 0 0)
(0 -0.00461773 0 -0.00461773 -0.00119023 0 0 0 0)
(0 -0.0036873 0 -0.0036873 -0.00414855 0 0 0 0)
(0 -0.00269505 0 -0.00269505 -0.00537954 0 0 0 0)
(0 -0.00170005 0 -0.00170005 -0.00446399 0 0 0 0)
(0 -0.00101972 0 -0.00101972 -0.00294877 0 0 0 0)
(0 -0 0 -0 -0 0 0 0 0)
(0 0 0 0 -0 0 0 0 0)
(0 0 0 0 -0 0 0 0 0)
(0 0 0 0 -0 0 0 0 0)
(0 0 0 0 -0 0 0 0 0)
(0 0 0 0 -0 0 0 0 0)
(0 0 0 0 -0 0 0 0 0)
(0 0 0 0 -0 0 0 0 0)
(-0 0 0 0 -0 0 0 0 0)
(0 0 0 0 0 0 0 0 0)
(0 0 0 0 0 0 0 0 0)
(0 0 0 0 0 0 0 0 0)
(0 0 0 0 0 0 0 0 0)
(0 0 0 0 0 0 0 0 0)
(0 0 0 0 -0 0 0 0 0)
(0 0 0 0 -0 0 0 0 0)
(0 0 0 0 -0 0 0 0 0)
(0 0 0 0 -0 0 0 0 0)
(0 0 0 0 -0 0 0 0 0)
(0 0 0 0 0 0 0 0 0)
(0 0 0 0 0 0 0 0 0)
(0 0 0 0 0 0 0 0 0)
(0 0 0 0 0 0 0 0 0)
(0 0 0 0 0 0 0 0 0)
(0 0 0 0 0 0 0 0 0)
(0 0 0 0 0 0 0 0 0)
(0 0 0 0 0 0 0 0 0)
(0 0 0 0 0 0 0 0 0)
(0 0 0 0 0 0 0 0 0)
(0 0 0 0 0 0 0 0 0)
(-0 0 0 0 0 0 0 0 0)
(0 0 0 0 0 0 0 0 0)
(0 0 0 0 0 0 0 0 0)
(0 -0 0 -0 0 0 0 0 0)
(0 -0 0 -0 0 0 0 0 0)
(0 -0 0 -0 0 0 0 0 0)
(0 -0 0 -0 0 0 0 0 0)
(0 -0 0 -0 0 0 0 0 0)
(0 -0 0 -0 0 0 0 0 0)
(0 -0 0 -0 0 0 0 0 0)
(0 -0 0 -0 0 0 0 0 0)
(0 -0 0 -0 0 0 0 0 0)
(0 -0 0 -0 0 0 0 0 0)
(0 -0 0 -0 0 0 0 0 0)
(0 -0 0 -0 0 0 0 0 0)
(0 -0 0 -0 0 0 0 0 0)
(0 -0 0 -0 0 0 0 0 0)
(0 -0 0 -0 0 0 0 0 0)
(0 0 0 0 -0 0 0 0 0)
(0 0 0 0 0 0 0 0 0)
(-0 0 0 0 -0 0 0 0 0)
(0 0 0 0 0 0 0 0 0)
(0 0 0 0 -0 0 0 0 0)
(0 0 0 0 0 0 0 0 0)
(0 0 0 0 -0 0 0 0 0)
(0 0 0 0 0 0 0 0 0)
(0 0 0 0 -0 0 0 0 0)
(0 0 0 0 0 0 0 0 0)
(0 0 0 0 -0 0 0 0 0)
(0 0 0 0 0 0 0 0 0)
(-0 0 0 0 -0 0 0 0 0)
(0 0 0 0 0 0 0 0 0)
(0 0 0 0 -0 0 0 0 0)
(0 -0 0 -0 0 0 0 0 0)
(0 0 0 0 -0 0 0 0 0)
(0 0 0 0 0 0 0 0 0)
(0 -0 0 -0 -0 0 0 0 0)
(0 -0 0 -0 0 0 0 0 0)
(0 -0 0 -0 -0 0 0 0 0)
(0 -0 0 -0 0 0 0 0 0)
(0 0 0 0 -0 0 0 0 0)
(0 0 0 0 0 0 0 0 0)
(0 -0 0 -0 -0 0 0 0 0)
(0 -0 0 -0 0 0 0 0 0)
(0 -0 0 -0 -0 0 0 0 0)
(0 -0 0 -0 0 0 0 0 0)
(0 0 0 0 -0 0 0 0 0)
(0 0 0 0 0 0 0 0 0)
(0 0 0 0 -0 0 0 0 0)
(0 0 0 0 0 0 0 0 0)
(0 0 0 0 -0 0 0 0 0)
(0 -0 0 -0 0 0 0 0 0)
(0 -0 0 -0 -0 0 0 0 0)
(0 -0 0 -0 0 0 0 0 0)
(0 -0 0 -0 -0 0 0 0 0)
(0 0 0 0 0 0 0 0 0)
(0 0 0 0 -0 0 0 0 0)
(0 -0 0 -0 0 0 0 0 0)
(0 0 0 0 -0 0 0 0 0)
(0 -0 0 -0 0 0 0 0 0)
(0 0 0 0 -0 0 0 0 0)
(0 0 0 0 0 0 0 0 0)
(0 -0 0 -0 -0 0 0 0 0)
(0 -0 0 -0 0 0 0 0 0)
(0 0 0 0 -0 0 0 0 0)
(0 -0 0 -0 0 0 0 0 0)
(0 -0 0 -0 -0 0 0 0 0)
(0 0 0 0 0 0 0 0 0)
(0 0 0 0 -0 0 0 0 0)
(0 0 0 0 0 0 0 0 0)
(0 0 0 0 -0 0 0 0 0)
(0 -0 0 -0 0 0 0 0 0)
(0 -0 0 -0 -0 0 0 0 0)
(0 -0 0 -0 0 0 0 0 0)
(0 -0 0 -0 -0 0 0 0 0)
(0 -0 0 -0 0 0 0 0 0)
(0 0 0 0 -0 0 0 0 0)
(0 0 0 0 0 0 0 0 0)
(0 0 0 0 -0 0 0 0 0)
(0 0 0 0 0 0 0 0 0)
(0 0 0 0 -0 0 0 0 0)
(0 0 0 0 0 0 0 0 0)
(0 -0 0 -0 -0 0 0 0 0)
(0 -0 0 -0 0 0 0 0 0)
(0 0 0 0 -0 0 0 0 0)
(0 0 0 0 0 0 0 0 0)
(0 0 0 0 -0 0 0 0 0)
(0 0 0 0 0 0 0 0 0)
(0 0 0 0 0 0 0 0 0)
(0 0 0 0 0 0 0 0 0)
(0 0 0 0 0 0 0 0 0)
(0 0 0 0 0 0 0 0 0)
(0 0 0 0 0 0 0 0 0)
(0 0 0 0 0 0 0 0 0)
)
;

boundaryField
{
    inandouthalf11
    {
        type            cyclic;
    }
    inandouthalf12
    {
        type            cyclic;
    }
    inandouthalf21
    {
        type            cyclic;
    }
    inandouthalf22
    {
        type            cyclic;
    }
    inandouthalf31
    {
        type            cyclic;
    }
    inandouthalf32
    {
        type            cyclic;
    }
    inandouthalf41
    {
        type            cyclic;
    }
    inandouthalf42
    {
        type            cyclic;
    }
    top
    {
        type            symmetryPlane;
    }
    walls
    {
        type            zeroGradient;
    }
    frontAndBackPlanes
    {
        type            empty;
    }
}


// ************************************************************************* //
