/*--------------------------------*- C++ -*----------------------------------*\
| =========                 |                                                 |
| \\      /  F ield         | OpenFOAM: The Open Source CFD Toolbox           |
|  \\    /   O peration     | Version:  2.4.x                                 |
|   \\  /    A nd           | Web:      www.OpenFOAM.org                      |
|    \\/     M anipulation  |                                                 |
\*---------------------------------------------------------------------------*/
FoamFile
{
    version     2.0;
    format      ascii;
    class       volScalarField;
    location    "12.3";
    object      tmf;
}
// * * * * * * * * * * * * * * * * * * * * * * * * * * * * * * * * * * * * * //

dimensions      [0 0 0 0 0 0 0];

internalField   nonuniform List<scalar> 
360
(
0.999206
0.999209
0.99921
0.999209
0.999209
0.999209
0.999209
0.999209
0.999209
0.999209
0.999209
0.999209
0.999209
0.999208
0.999208
0.999208
0.999208
0.999208
0.999208
0.999208
0.999208
0.999208
0.999208
0.999208
0.999208
0.999207
0.999207
0.999207
0.999207
0.999207
0.999207
0.999207
0.999207
0.999207
0.999207
0.999207
0.999206
0.999206
0.999206
0.999206
0.999206
0.999206
0.999206
0.999206
0.999206
0.999205
0.999205
0.999205
0.999205
0.999205
0.999205
0.999205
0.999205
0.999205
0.999204
0.999204
0.999204
0.999204
0.999204
0.999204
0.999204
0.999204
0.999203
0.999203
0.999203
0.999203
0.999203
0.999203
0.999203
0.999202
0.999202
0.999202
0.999202
0.999202
0.999202
0.999201
0.999201
0.999201
0.999201
0.999201
0.999201
0.9992
0.9992
0.9992
0.9992
0.9992
0.9992
0.999199
0.999199
0.999199
0.999199
0.999198
0.999198
0.999198
0.999198
0.999198
0.999197
0.999197
0.999197
0.999197
0.999196
0.999196
0.999196
0.999196
0.999195
0.999195
0.999195
0.999194
0.999194
0.999194
0.999194
0.999193
0.999193
0.999193
0.999192
0.999192
0.999191
0.999191
0.999191
0.99919
0.99919
0.999189
0.999189
0.999188
0.999188
0.999188
0.999187
0.999186
0.999186
0.999185
0.999185
0.999162
0.998703
0.998526
0.998337
0.998091
0.997768
0.997346
0.9968
0.996096
0.99519
0.994023
0.992577
0.990756
0.988263
0.985062
0.980545
0.954721
0.903727
0.886704
0.875875
0.877375
0.879831
0.883056
0.886962
0.891441
0.896344
0.9015
0.906746
0.911947
0.91701
0.921872
0.926502
0.930885
0.935022
0.938921
0.942593
0.946052
0.949313
0.952387
0.955287
0.958025
0.96061
0.963053
0.96536
0.967539
0.969597
0.97154
0.973372
0.975099
0.976725
0.978256
0.979694
0.981045
0.982312
0.983498
0.984606
0.985639
0.986598
0.987486
0.988304
0.989055
0.98974
0.990363
0.990927
0.991436
0.991893
0.992302
0.992667
0.992992
0.993282
0.993542
0.993776
0.993987
0.994175
0.994343
0.994493
0.994624
0.99474
0.994841
0.994928
0.995002
0.995065
0.995116
0.995158
0.99519
0.995213
0.995228
0.995234
0.995234
0.995225
0.99521
0.995187
0.995158
0.995121
0.995078
0.995026
0.994968
0.9949
0.994824
0.994737
0.994639
0.994526
0.994398
0.994249
0.994075
0.993867
0.993593
0.993689
0.993787
0.993871
0.993948
0.994018
0.994084
0.994147
0.99421
0.994273
0.994338
0.994407
0.994477
0.994535
0.994738
0.996258
0.996738
0.996822
0.996906
0.996997
0.997094
0.997197
0.997306
0.99742
0.997539
0.997663
0.99779
0.997918
0.998046
0.998171
0.998292
0.998406
0.998512
0.99861
0.998699
0.998782
0.99886
0.998939
0.999022
0.999116
0.999234
0.999386
0.999517
0.999562
0.99956
0.999557
0.999555
0.999552
0.999544
0.999022
0.994189
0.994189
0.994189
0.994189
0.994189
0.994189
0.994189
0.994189
0.994189
0.994189
0.994189
0.994189
0.994189
0.994189
0.994189
0.994189
0.994189
0.994189
0.994189
0.994189
0.994189
0.994189
0.994189
0.994189
0.994189
0.994189
0.994189
0.994189
0.994189
0.994189
0.994189
0.994189
0.994189
0.994189
0.994189
0.994189
0.994189
0.994189
0.994189
0.994189
0.994189
0.994189
0.994189
0.994189
0.994189
0.994189
0.994189
0.994189
0.994189
0.994189
0.994189
0.994189
0.994189
0.994189
0.994189
0.994189
0.994189
0.994189
0.994189
0.994189
0.994189
0.994189
0.994189
0.994189
0.994189
0.994189
0.994189
0.994189
0.994189
0.994189
0.994189
0.994174
0.993239
)
;

boundaryField
{
    inandouthalf11
    {
        type            cyclic;
    }
    inandouthalf12
    {
        type            cyclic;
    }
    inandouthalf21
    {
        type            cyclic;
    }
    inandouthalf22
    {
        type            cyclic;
    }
    inandouthalf31
    {
        type            cyclic;
    }
    inandouthalf32
    {
        type            cyclic;
    }
    inandouthalf41
    {
        type            cyclic;
    }
    inandouthalf42
    {
        type            cyclic;
    }
    top
    {
        type            symmetryPlane;
    }
    walls
    {
        type            calculated;
        value           uniform 0;
    }
    frontAndBackPlanes
    {
        type            empty;
    }
}


// ************************************************************************* //
