/*--------------------------------*- C++ -*----------------------------------*\
| =========                 |                                                 |
| \\      /  F ield         | OpenFOAM: The Open Source CFD Toolbox           |
|  \\    /   O peration     | Version:  2.4.x                                 |
|   \\  /    A nd           | Web:      www.OpenFOAM.org                      |
|    \\/     M anipulation  |                                                 |
\*---------------------------------------------------------------------------*/
FoamFile
{
    version     2.0;
    format      ascii;
    class       volVectorField;
    location    "12.3";
    object      Ur;
}
// * * * * * * * * * * * * * * * * * * * * * * * * * * * * * * * * * * * * * //

dimensions      [0 1 -1 0 0 0 0];

internalField   nonuniform List<vector> 
360
(
(-6.214e-06 9.03368e-10 0)
(-6.17918e-06 5.32979e-09 0)
(-6.17452e-06 9.68236e-09 0)
(-6.17921e-06 1.37073e-08 0)
(-6.1814e-06 1.78632e-08 0)
(-6.18208e-06 2.22352e-08 0)
(-6.18297e-06 2.67543e-08 0)
(-6.18411e-06 3.13962e-08 0)
(-6.18529e-06 3.6174e-08 0)
(-6.18648e-06 4.11054e-08 0)
(-6.18768e-06 4.62028e-08 0)
(-6.18887e-06 5.14708e-08 0)
(-6.19008e-06 5.69095e-08 0)
(-6.1913e-06 6.25165e-08 0)
(-6.19253e-06 6.82879e-08 0)
(-6.19378e-06 7.42193e-08 0)
(-6.19504e-06 8.03045e-08 0)
(-6.19631e-06 8.65358e-08 0)
(-6.19759e-06 9.29036e-08 0)
(-6.19889e-06 9.9398e-08 0)
(-6.2002e-06 1.06007e-07 0)
(-6.20152e-06 1.1272e-07 0)
(-6.20286e-06 1.19524e-07 0)
(-6.20422e-06 1.26407e-07 0)
(-6.20558e-06 1.33355e-07 0)
(-6.20697e-06 1.40357e-07 0)
(-6.20836e-06 1.47399e-07 0)
(-6.20977e-06 1.54469e-07 0)
(-6.2112e-06 1.61556e-07 0)
(-6.21264e-06 1.68646e-07 0)
(-6.21409e-06 1.75728e-07 0)
(-6.21557e-06 1.82792e-07 0)
(-6.21705e-06 1.89828e-07 0)
(-6.21857e-06 1.96826e-07 0)
(-6.22008e-06 2.03778e-07 0)
(-6.22162e-06 2.10676e-07 0)
(-6.22317e-06 2.17511e-07 0)
(-6.22475e-06 2.24279e-07 0)
(-6.22635e-06 2.30973e-07 0)
(-6.22794e-06 2.37588e-07 0)
(-6.22958e-06 2.4412e-07 0)
(-6.23122e-06 2.50567e-07 0)
(-6.23287e-06 2.56922e-07 0)
(-6.23457e-06 2.63186e-07 0)
(-6.23626e-06 2.69357e-07 0)
(-6.23799e-06 2.75434e-07 0)
(-6.23974e-06 2.81416e-07 0)
(-6.24149e-06 2.873e-07 0)
(-6.24327e-06 2.93088e-07 0)
(-6.24509e-06 2.98783e-07 0)
(-6.24691e-06 3.04382e-07 0)
(-6.24876e-06 3.09889e-07 0)
(-6.25063e-06 3.15303e-07 0)
(-6.25253e-06 3.20627e-07 0)
(-6.25444e-06 3.25861e-07 0)
(-6.2564e-06 3.31009e-07 0)
(-6.25836e-06 3.36072e-07 0)
(-6.26036e-06 3.41051e-07 0)
(-6.26238e-06 3.4595e-07 0)
(-6.26441e-06 3.50768e-07 0)
(-6.2665e-06 3.55509e-07 0)
(-6.26859e-06 3.60176e-07 0)
(-6.27073e-06 3.6477e-07 0)
(-6.27288e-06 3.69294e-07 0)
(-6.27507e-06 3.7375e-07 0)
(-6.27728e-06 3.78138e-07 0)
(-6.27953e-06 3.82462e-07 0)
(-6.28181e-06 3.86724e-07 0)
(-6.28412e-06 3.90925e-07 0)
(-6.28646e-06 3.95064e-07 0)
(-6.28884e-06 3.99146e-07 0)
(-6.29127e-06 4.03173e-07 0)
(-6.2937e-06 4.07145e-07 0)
(-6.29619e-06 4.11064e-07 0)
(-6.29871e-06 4.14931e-07 0)
(-6.30128e-06 4.18749e-07 0)
(-6.30388e-06 4.22518e-07 0)
(-6.30651e-06 4.26238e-07 0)
(-6.3092e-06 4.29911e-07 0)
(-6.31193e-06 4.33537e-07 0)
(-6.31469e-06 4.37116e-07 0)
(-6.31751e-06 4.40651e-07 0)
(-6.32037e-06 4.44141e-07 0)
(-6.32328e-06 4.47587e-07 0)
(-6.32624e-06 4.50991e-07 0)
(-6.32925e-06 4.54353e-07 0)
(-6.33232e-06 4.57673e-07 0)
(-6.33544e-06 4.60952e-07 0)
(-6.33861e-06 4.64188e-07 0)
(-6.34184e-06 4.67383e-07 0)
(-6.34513e-06 4.70535e-07 0)
(-6.34849e-06 4.73646e-07 0)
(-6.3519e-06 4.76715e-07 0)
(-6.35539e-06 4.79742e-07 0)
(-6.35894e-06 4.82728e-07 0)
(-6.36256e-06 4.85674e-07 0)
(-6.36626e-06 4.88578e-07 0)
(-6.37004e-06 4.91441e-07 0)
(-6.37389e-06 4.94264e-07 0)
(-6.37782e-06 4.97045e-07 0)
(-6.38184e-06 4.99784e-07 0)
(-6.38594e-06 5.02483e-07 0)
(-6.39014e-06 5.05141e-07 0)
(-6.39444e-06 5.07757e-07 0)
(-6.39883e-06 5.10334e-07 0)
(-6.40333e-06 5.1287e-07 0)
(-6.40793e-06 5.15367e-07 0)
(-6.41264e-06 5.17825e-07 0)
(-6.41747e-06 5.20245e-07 0)
(-6.42243e-06 5.22628e-07 0)
(-6.42751e-06 5.24974e-07 0)
(-6.43272e-06 5.27283e-07 0)
(-6.43806e-06 5.29558e-07 0)
(-6.44356e-06 5.31798e-07 0)
(-6.4492e-06 5.34003e-07 0)
(-6.455e-06 5.36173e-07 0)
(-6.46097e-06 5.38308e-07 0)
(-6.46711e-06 5.40406e-07 0)
(-6.47343e-06 5.42466e-07 0)
(-6.47995e-06 5.44486e-07 0)
(-6.48668e-06 5.46463e-07 0)
(-6.49362e-06 5.48393e-07 0)
(-6.50079e-06 5.50273e-07 0)
(-6.5082e-06 5.521e-07 0)
(-6.51587e-06 5.53872e-07 0)
(-6.52381e-06 5.55589e-07 0)
(-6.53204e-06 5.57253e-07 0)
(-6.54058e-06 5.58871e-07 0)
(-6.54946e-06 5.60453e-07 0)
(-6.5587e-06 5.62012e-07 0)
(-6.56832e-06 5.63559e-07 0)
(-6.57834e-06 5.65106e-07 0)
(-6.58883e-06 5.66651e-07 0)
(-6.59991e-06 5.6818e-07 0)
(-6.61173e-06 5.69651e-07 0)
(-6.62434e-06 5.70975e-07 0)
(-6.6377e-06 5.72024e-07 0)
(-6.65201e-06 5.72674e-07 0)
(-6.66788e-06 5.72885e-07 0)
(-6.68602e-06 5.72747e-07 0)
(-6.70561e-06 5.72335e-07 0)
(-6.72893e-06 5.69279e-07 0)
(-6.88961e-06 5.7077e-07 0)
(-6.86572e-06 5.98623e-07 0)
(-6.8953e-06 3.16401e-07 0)
(-7.014e-06 1.47983e-06 0)
(-7.56274e-05 -3.08287e-06 0)
(-0.00283759 3.45833e-05 0)
(-0.00988465 0.000336111 0)
(-0.00835862 0.000353893 0)
(-0.00696968 0.000391801 0)
(-0.00575712 0.000396885 0)
(-0.00487408 0.000392528 0)
(-0.00425147 0.000376012 0)
(-0.00383452 0.000346365 0)
(-0.00358758 0.000302952 0)
(-0.0034846 0.000245316 0)
(-0.00350484 0.000173162 0)
(-0.00363209 8.64151e-05 0)
(-0.00385471 -1.48174e-05 0)
(-0.00416556 -0.000130157 0)
(-0.0045615 -0.000259002 0)
(-0.00504271 -0.00040064 0)
(-0.00561191 -0.000554224 0)
(-0.00627356 -0.000718773 0)
(-0.0070332 -0.000893173 0)
(-0.00789683 -0.00107617 0)
(-0.00887036 -0.00126634 0)
(-0.00995911 -0.00146208 0)
(-0.0111674 -0.00166152 0)
(-0.012498 -0.0018625 0)
(-0.0139519 -0.0020625 0)
(-0.0155279 -0.00225859 0)
(-0.0172221 -0.00244712 0)
(-0.0190276 -0.00262319 0)
(-0.0209342 -0.00277942 0)
(-0.0229278 -0.0029047 0)
(-0.0249896 -0.00298424 0)
(-0.0270959 -0.00300244 0)
(-0.029218 -0.0029481 0)
(-0.0313242 -0.00281909 0)
(-0.0333814 -0.00262322 0)
(-0.035358 -0.00237521 0)
(-0.0372258 -0.00209209 0)
(-0.0389609 -0.00178968 0)
(-0.0405445 -0.00148088 0)
(-0.0419626 -0.00117534 0)
(-0.0432064 -0.00087982 0)
(-0.0442715 -0.000598796 0)
(-0.045158 -0.000335011 0)
(-0.04587 -8.99606e-05 0)
(-0.0464149 0.00013575 0)
(-0.0468025 0.000342135 0)
(-0.0470449 0.000529633 0)
(-0.0471554 0.000698966 0)
(-0.0471474 0.000851043 0)
(-0.0470348 0.000986879 0)
(-0.0468306 0.00110755 0)
(-0.0465471 0.00121416 0)
(-0.0461955 0.00130779 0)
(-0.0457857 0.00138952 0)
(-0.0453219 0.0014611 0)
(-0.0448046 0.00152376 0)
(-0.0442379 0.00157798 0)
(-0.0436255 0.00162428 0)
(-0.0429703 0.00166317 0)
(-0.0422751 0.00169522 0)
(-0.0415419 0.00172096 0)
(-0.0407722 0.00174093 0)
(-0.0399674 0.00175567 0)
(-0.039128 0.00176566 0)
(-0.0382545 0.00177137 0)
(-0.0373471 0.00177324 0)
(-0.0364053 0.00177165 0)
(-0.035429 0.00176695 0)
(-0.0344174 0.00175949 0)
(-0.0333697 0.00174953 0)
(-0.0322852 0.00173735 0)
(-0.0311629 0.00172319 0)
(-0.0300017 0.00170724 0)
(-0.0288008 0.00168969 0)
(-0.027559 0.00167067 0)
(-0.0262755 0.00165027 0)
(-0.0249494 0.00162851 0)
(-0.02358 0.00160536 0)
(-0.0221665 0.00158071 0)
(-0.0207086 0.00155452 0)
(-0.0192057 0.001527 0)
(-0.0176572 0.00149911 0)
(-0.0160627 0.0014734 0)
(-0.0144211 0.00145497 0)
(-0.0127316 0.00145171 0)
(-0.0109942 0.00147061 0)
(-0.00921032 0.00150869 0)
(-0.00738271 0.00155067 0)
(-0.00551339 0.00158363 0)
(-0.00359552 0.00161072 0)
(-0.00022872 0.00208076 0)
(-0.00026531 0.00238047 0)
(-0.000281845 0.00270439 0)
(-0.000297577 0.00294565 0)
(-0.00031205 0.00312975 0)
(-0.000325436 0.00325801 0)
(-0.000337791 0.00333783 0)
(-0.000349171 0.00337484 0)
(-0.000359611 0.00337409 0)
(-0.000369124 0.00334178 0)
(-0.000377957 0.00328268 0)
(-0.000385098 0.00320934 0)
(-0.000393763 0.00309762 0)
(-0.000405866 0.0028526 0)
(-0.000488504 0.00360301 0)
(-0.000684788 0.0260766 0)
(-0.000450704 0.0394497 0)
(-0.000622766 0.0396254 0)
(-0.000589756 0.0396126 0)
(-0.000571746 0.0396133 0)
(-0.000549376 0.0396125 0)
(-0.000524124 0.0396113 0)
(-0.000495804 0.0396096 0)
(-0.000464453 0.0396074 0)
(-0.000430214 0.0396046 0)
(-0.000393385 0.0396015 0)
(-0.000354451 0.0395979 0)
(-0.000314125 0.039594 0)
(-0.000273689 0.0395899 0)
(-0.000239862 0.0395858 0)
(-0.000192302 0.0395818 0)
(-0.000151616 0.0395784 0)
(-0.000125387 0.0395749 0)
(-9.6579e-05 0.039572 0)
(-7.28941e-05 0.0395696 0)
(-5.42246e-05 0.0395676 0)
(-4.07913e-05 0.039566 0)
(-3.27475e-05 0.0395646 0)
(-3.02862e-05 0.0395633 0)
(-3.36594e-05 0.039562 0)
(-4.08188e-05 0.0395602 0)
(-6.36976e-05 0.0395568 0)
(-0.000115272 0.0395526 0)
(-0.00012379 0.0395503 0)
(-0.000124019 0.03955 0)
(-0.000124022 0.03955 0)
(-0.000124022 0.03955 0)
(-0.000124022 0.03955 0)
(-0.000124022 0.03955 0)
(-0.000124022 0.03955 0)
(-0.000124022 0.03955 0)
(-0.000124022 0.03955 0)
(-0.000124022 0.03955 0)
(-0.000124022 0.03955 0)
(-0.000124022 0.03955 0)
(-0.000124022 0.03955 0)
(-0.000124022 0.03955 0)
(-0.000124022 0.03955 0)
(-0.000124022 0.03955 0)
(-0.000124022 0.03955 0)
(-0.000124022 0.03955 0)
(-0.000124022 0.03955 0)
(-0.000124022 0.03955 0)
(-0.000124022 0.03955 0)
(-0.000124022 0.03955 0)
(-0.000124022 0.03955 0)
(-0.000124022 0.03955 0)
(-0.000124022 0.03955 0)
(-0.000124022 0.03955 0)
(-0.000124022 0.03955 0)
(-0.000124022 0.03955 0)
(-0.000124022 0.03955 0)
(-0.000124022 0.03955 0)
(-0.000124022 0.03955 0)
(-0.000124022 0.03955 0)
(-0.000124022 0.03955 0)
(-0.000124022 0.03955 0)
(-0.000124022 0.03955 0)
(-0.000124022 0.03955 0)
(-0.000124022 0.03955 0)
(-0.000124022 0.03955 0)
(-0.000124022 0.03955 0)
(-0.000124022 0.03955 0)
(-0.000124022 0.03955 0)
(-0.000124022 0.03955 0)
(-0.000124022 0.03955 0)
(-0.000124022 0.03955 0)
(-0.000124022 0.03955 0)
(-0.000124022 0.03955 0)
(-0.000124022 0.03955 0)
(-0.000124022 0.03955 0)
(-0.000124022 0.03955 0)
(-0.000124022 0.03955 0)
(-0.000124022 0.03955 0)
(-0.000124022 0.03955 0)
(-0.000124022 0.03955 0)
(-0.000124022 0.03955 0)
(-0.000124022 0.03955 0)
(-0.000124022 0.03955 0)
(-0.000124022 0.03955 0)
(-0.000124022 0.03955 0)
(-0.000124022 0.03955 0)
(-0.000124022 0.03955 0)
(-0.000124022 0.03955 0)
(-0.000124022 0.03955 0)
(-0.000124022 0.03955 0)
(-0.000124022 0.03955 0)
(-0.000124022 0.03955 0)
(-0.000124022 0.03955 0)
(-0.000124022 0.03955 0)
(-0.000124022 0.03955 0)
(-0.000124022 0.03955 0)
(-0.000124022 0.03955 0)
(-0.000124022 0.03955 0)
(-0.000124022 0.03955 0)
(-0.000124022 0.03955 0)
(-0.000124022 0.03955 0)
(-0.000124022 0.03955 0)
(-0.000124022 0.03955 0)
(-0.000124024 0.0395498 0)
(-0.000124063 0.0395414 0)
(-0.000125004 0.0391968 0)
(-0.000146236 0.0225002 0)
)
;

boundaryField
{
    inandouthalf11
    {
        type            cyclic;
    }
    inandouthalf12
    {
        type            cyclic;
    }
    inandouthalf21
    {
        type            cyclic;
    }
    inandouthalf22
    {
        type            cyclic;
    }
    inandouthalf31
    {
        type            cyclic;
    }
    inandouthalf32
    {
        type            cyclic;
    }
    inandouthalf41
    {
        type            cyclic;
    }
    inandouthalf42
    {
        type            cyclic;
    }
    top
    {
        type            symmetryPlane;
    }
    walls
    {
        type            calculated;
        value           uniform (0 0 0);
    }
    frontAndBackPlanes
    {
        type            empty;
    }
}


// ************************************************************************* //
