/*--------------------------------*- C++ -*----------------------------------*\
| =========                 |                                                 |
| \\      /  F ield         | OpenFOAM: The Open Source CFD Toolbox           |
|  \\    /   O peration     | Version:  2.4.x                                 |
|   \\  /    A nd           | Web:      www.OpenFOAM.org                      |
|    \\/     M anipulation  |                                                 |
\*---------------------------------------------------------------------------*/
FoamFile
{
    version     2.0;
    format      ascii;
    class       volScalarField;
    location    "9.4";
    object      alpha;
}
// * * * * * * * * * * * * * * * * * * * * * * * * * * * * * * * * * * * * * //

dimensions      [0 0 0 0 0 0 0];

internalField   nonuniform List<scalar> 
360
(
0.610875
0.611734
0.611826
0.611737
0.611695
0.611682
0.611665
0.611643
0.611621
0.611598
0.611575
0.611552
0.611529
0.611505
0.611482
0.611458
0.611434
0.611409
0.611385
0.611359
0.611334
0.611309
0.611283
0.611257
0.611231
0.611204
0.611177
0.61115
0.611123
0.611095
0.611067
0.611038
0.61101
0.610981
0.610952
0.610922
0.610892
0.610862
0.610831
0.610801
0.610769
0.610738
0.610706
0.610674
0.610641
0.610608
0.610575
0.610542
0.610507
0.610473
0.610438
0.610403
0.610367
0.610331
0.610295
0.610258
0.61022
0.610182
0.610144
0.610106
0.610066
0.610027
0.609986
0.609945
0.609904
0.609862
0.60982
0.609777
0.609733
0.609689
0.609645
0.609599
0.609553
0.609506
0.609459
0.609411
0.609362
0.609313
0.609262
0.609211
0.609159
0.609107
0.609053
0.608999
0.608943
0.608887
0.60883
0.608772
0.608712
0.608652
0.608591
0.608528
0.608465
0.6084
0.608334
0.608266
0.608198
0.608128
0.608056
0.607983
0.607909
0.607832
0.607755
0.607675
0.607594
0.60751
0.607425
0.607338
0.607249
0.607157
0.607063
0.606967
0.606869
0.606767
0.606664
0.606557
0.606447
0.606334
0.606218
0.606098
0.605975
0.605848
0.605717
0.605581
0.605441
0.605297
0.605147
0.604991
0.604829
0.604661
0.604485
0.604303
0.604112
0.60391
0.603697
0.60347
0.603232
0.602979
0.602699
0.602377
0.602029
0.601647
0.596788
0.506473
0.363674
0.307556
0.277637
0.255711
0.237167
0.220435
0.204863
0.190125
0.174998
0.160499
0.146816
0.133996
0.12205
0.110974
0.100751
0.0913543
0.0827482
0.0748894
0.0677312
0.0612242
0.0553187
0.0499653
0.0451164
0.0407271
0.0367551
0.0331613
0.0299098
0.0269675
0.0243047
0.0218942
0.0197116
0.0177348
0.015944
0.0143215
0.0128519
0.0115223
0.0103223
0.00924325
0.00827625
0.00741098
0.00663675
0.00594351
0.00532223
0.0047649
0.00426449
0.00381481
0.00341045
0.00304662
0.00271913
0.00242425
0.0021587
0.00191957
0.00170424
0.0015104
0.00133597
0.00117909
0.00103805
0.000909989
0.000792745
0.000685448
0.000587224
0.000497426
0.000415896
0.000343047
0.000279589
0.00022601
0.000182152
0.000147138
0.000119613
9.80915e-05
8.12134e-05
6.78608e-05
5.71699e-05
4.84932e-05
4.13559e-05
3.54069e-05
3.03878e-05
2.61046e-05
2.24184e-05
1.92179e-05
1.64292e-05
1.39873e-05
1.18549e-05
9.99182e-06
8.3757e-06
6.97091e-06
5.79059e-06
4.72245e-06
3.93588e-06
3.08349e-06
2.65927e-06
1.8866e-06
1.94286e-06
1.53868e-06
1.08053e-06
7.83069e-07
5.5484e-07
3.90168e-07
2.70627e-07
1.84878e-07
1.24151e-07
8.15453e-08
5.21149e-08
3.18943e-08
1.70423e-08
9.51316e-09
1.92714e-10
2.17102e-36
1.37206e-44
2.9134e-49
2.60315e-52
5.39329e-53
1.88171e-53
1.04195e-53
5.41685e-54
2.9075e-54
1.39381e-54
7.21201e-55
3.64538e-55
1.80768e-55
8.87871e-56
4.29006e-56
2.03818e-56
9.51604e-57
4.36377e-57
1.96425e-57
8.67155e-58
3.7531e-58
1.59159e-58
6.60863e-59
2.68479e-59
1.06631e-59
4.13688e-60
1.56635e-60
5.78265e-61
2.07945e-61
7.27597e-62
2.47432e-62
8.16784e-63
2.61381e-63
8.0972e-64
2.42451e-64
7.00506e-65
1.94945e-65
5.21504e-66
1.33815e-66
3.28555e-67
7.69864e-68
1.71646e-68
3.62933e-69
7.25049e-70
1.36272e-70
2.39785e-71
3.92791e-72
5.95037e-73
8.2708e-74
1.04481e-74
1.18556e-75
1.19059e-76
1.03792e-77
7.65127e-79
4.59279e-80
2.11631e-81
6.73584e-83
1.15697e-84
2.06449e-87
4.01183e-93
2.86809e-95
1.0156e-97
3.85772e-108
7.41443e-119
1.05698e-129
1.09076e-140
9.76538e-152
6.7018e-163
3.94954e-174
1.32369e-184
5.97811e-195
3.92342e-203
1.744e-213
1.34938e-221
7.07893e-232
4.6444e-240
2.98808e-250
1.60028e-258
1.91429e-268
5.63708e-277
1.26975e-286
2.04999e-295
6.28299e-305
7.65401e-314
3.36953e-321
2.51973e-321
8.86848e-321
4.57737e-319
2.8055e-319
6.80328e-321
7.09478e-321
6.08689e-321
8.5424e-321
0
0
0
0
0
0
0
0
0
0
0
0
0
0
0
0
)
;

boundaryField
{
    inandouthalf11
    {
        type            cyclic;
    }
    inandouthalf12
    {
        type            cyclic;
    }
    inandouthalf21
    {
        type            cyclic;
    }
    inandouthalf22
    {
        type            cyclic;
    }
    inandouthalf31
    {
        type            cyclic;
    }
    inandouthalf32
    {
        type            cyclic;
    }
    inandouthalf41
    {
        type            cyclic;
    }
    inandouthalf42
    {
        type            cyclic;
    }
    top
    {
        type            symmetryPlane;
    }
    walls
    {
        type            zeroGradient;
    }
    frontAndBackPlanes
    {
        type            empty;
    }
}


// ************************************************************************* //
