/*--------------------------------*- C++ -*----------------------------------*\
| =========                 |                                                 |
| \\      /  F ield         | OpenFOAM: The Open Source CFD Toolbox           |
|  \\    /   O peration     | Version:  2.4.x                                 |
|   \\  /    A nd           | Web:      www.OpenFOAM.org                      |
|    \\/     M anipulation  |                                                 |
\*---------------------------------------------------------------------------*/
FoamFile
{
    version     2.0;
    format      ascii;
    class       volVectorField;
    location    "9.4";
    object      ddt0(Ua);
}
// * * * * * * * * * * * * * * * * * * * * * * * * * * * * * * * * * * * * * //

dimensions      [0 1 -2 0 0 0 0];

internalField   nonuniform List<vector> 
360
(
(-1.81459e-32 -4.92761e-33 0)
(-9.95314e-09 2.13769e-08 0)
(-2.08681e-08 3.91523e-08 0)
(-3.08458e-08 5.57556e-08 0)
(-4.11871e-08 7.41214e-08 0)
(-5.21526e-08 9.40863e-08 0)
(-6.34968e-08 1.14943e-07 0)
(-7.51078e-08 1.36487e-07 0)
(-8.69989e-08 1.58725e-07 0)
(-9.92016e-08 1.8167e-07 0)
(-1.11738e-07 2.05318e-07 0)
(-1.24616e-07 2.29648e-07 0)
(-1.37835e-07 2.54623e-07 0)
(-1.51391e-07 2.80204e-07 0)
(-1.65278e-07 3.06353e-07 0)
(-1.79491e-07 3.33035e-07 0)
(-1.94022e-07 3.60215e-07 0)
(-2.08863e-07 3.87853e-07 0)
(-2.24001e-07 4.15906e-07 0)
(-2.39422e-07 4.44332e-07 0)
(-2.55112e-07 4.73085e-07 0)
(-2.71055e-07 5.02119e-07 0)
(-2.87236e-07 5.31392e-07 0)
(-3.03638e-07 5.60857e-07 0)
(-3.20244e-07 5.9047e-07 0)
(-3.37034e-07 6.20183e-07 0)
(-3.53989e-07 6.49948e-07 0)
(-3.7109e-07 6.79718e-07 0)
(-3.88317e-07 7.09448e-07 0)
(-4.05648e-07 7.39087e-07 0)
(-4.23062e-07 7.68583e-07 0)
(-4.40535e-07 7.97892e-07 0)
(-4.58044e-07 8.26957e-07 0)
(-4.75565e-07 8.55732e-07 0)
(-4.93076e-07 8.84166e-07 0)
(-5.10549e-07 9.12206e-07 0)
(-5.27959e-07 9.39799e-07 0)
(-5.4528e-07 9.66896e-07 0)
(-5.62489e-07 9.93454e-07 0)
(-5.79557e-07 1.01942e-06 0)
(-5.96459e-07 1.04474e-06 0)
(-6.1317e-07 1.06938e-06 0)
(-6.29664e-07 1.09329e-06 0)
(-6.45916e-07 1.11643e-06 0)
(-6.61905e-07 1.13877e-06 0)
(-6.77609e-07 1.16028e-06 0)
(-6.93005e-07 1.18092e-06 0)
(-7.08071e-07 1.20067e-06 0)
(-7.22789e-07 1.21951e-06 0)
(-7.37147e-07 1.23743e-06 0)
(-7.5113e-07 1.25442e-06 0)
(-7.64724e-07 1.27048e-06 0)
(-7.77921e-07 1.2856e-06 0)
(-7.90712e-07 1.2998e-06 0)
(-8.03094e-07 1.31308e-06 0)
(-8.15062e-07 1.32547e-06 0)
(-8.26617e-07 1.33699e-06 0)
(-8.37759e-07 1.34767e-06 0)
(-8.48492e-07 1.35753e-06 0)
(-8.58822e-07 1.3666e-06 0)
(-8.68756e-07 1.37494e-06 0)
(-8.78307e-07 1.38258e-06 0)
(-8.87488e-07 1.38957e-06 0)
(-8.96312e-07 1.39595e-06 0)
(-9.04792e-07 1.40178e-06 0)
(-9.12942e-07 1.40709e-06 0)
(-9.2078e-07 1.41194e-06 0)
(-9.28322e-07 1.41637e-06 0)
(-9.35585e-07 1.42043e-06 0)
(-9.42584e-07 1.42416e-06 0)
(-9.49339e-07 1.42761e-06 0)
(-9.5587e-07 1.43083e-06 0)
(-9.62193e-07 1.43386e-06 0)
(-9.68326e-07 1.43672e-06 0)
(-9.74287e-07 1.43947e-06 0)
(-9.80092e-07 1.44214e-06 0)
(-9.85756e-07 1.44475e-06 0)
(-9.91291e-07 1.44734e-06 0)
(-9.96711e-07 1.44992e-06 0)
(-1.00203e-06 1.45253e-06 0)
(-1.00726e-06 1.45517e-06 0)
(-1.01241e-06 1.45788e-06 0)
(-1.01749e-06 1.46066e-06 0)
(-1.02251e-06 1.46352e-06 0)
(-1.02749e-06 1.46649e-06 0)
(-1.03242e-06 1.46957e-06 0)
(-1.03733e-06 1.47276e-06 0)
(-1.0422e-06 1.47608e-06 0)
(-1.04705e-06 1.47951e-06 0)
(-1.05189e-06 1.48307e-06 0)
(-1.0567e-06 1.48674e-06 0)
(-1.0615e-06 1.49054e-06 0)
(-1.0663e-06 1.49445e-06 0)
(-1.07108e-06 1.49848e-06 0)
(-1.07586e-06 1.50262e-06 0)
(-1.08064e-06 1.50686e-06 0)
(-1.08542e-06 1.51121e-06 0)
(-1.0902e-06 1.51565e-06 0)
(-1.09497e-06 1.52017e-06 0)
(-1.09974e-06 1.52478e-06 0)
(-1.10451e-06 1.52945e-06 0)
(-1.10928e-06 1.53419e-06 0)
(-1.11404e-06 1.53898e-06 0)
(-1.1188e-06 1.54381e-06 0)
(-1.12355e-06 1.54868e-06 0)
(-1.12829e-06 1.55358e-06 0)
(-1.13303e-06 1.5585e-06 0)
(-1.13776e-06 1.56343e-06 0)
(-1.14248e-06 1.56838e-06 0)
(-1.14721e-06 1.57334e-06 0)
(-1.15194e-06 1.57831e-06 0)
(-1.15668e-06 1.5833e-06 0)
(-1.16145e-06 1.58832e-06 0)
(-1.16624e-06 1.59335e-06 0)
(-1.17108e-06 1.59842e-06 0)
(-1.17596e-06 1.60352e-06 0)
(-1.18089e-06 1.60865e-06 0)
(-1.18587e-06 1.61378e-06 0)
(-1.19089e-06 1.61891e-06 0)
(-1.19592e-06 1.62398e-06 0)
(-1.20093e-06 1.62896e-06 0)
(-1.20587e-06 1.63379e-06 0)
(-1.21071e-06 1.63841e-06 0)
(-1.2154e-06 1.64279e-06 0)
(-1.21991e-06 1.6469e-06 0)
(-1.22425e-06 1.65074e-06 0)
(-1.22847e-06 1.65437e-06 0)
(-1.23267e-06 1.65788e-06 0)
(-1.23699e-06 1.66137e-06 0)
(-1.2416e-06 1.66494e-06 0)
(-1.24666e-06 1.66871e-06 0)
(-1.25229e-06 1.67269e-06 0)
(-1.25854e-06 1.67685e-06 0)
(-1.26521e-06 1.68102e-06 0)
(-1.27177e-06 1.68487e-06 0)
(-1.27727e-06 1.6879e-06 0)
(-1.28061e-06 1.68971e-06 0)
(-1.28144e-06 1.69029e-06 0)
(-1.28076e-06 1.69022e-06 0)
(-1.28007e-06 1.69006e-06 0)
(-1.27999e-06 1.68997e-06 0)
(-1.28022e-06 1.6897e-06 0)
(-1.28102e-06 1.68913e-06 0)
(-0.228712 -2.88297e-05 0)
(-0.381215 -0.00518627 0)
(-0.354447 -0.00753153 0)
(-0.334615 -0.00848249 0)
(-0.326933 -0.00897652 0)
(-0.326789 -0.00930492 0)
(-0.331309 -0.00954571 0)
(-0.338877 -0.00973655 0)
(-0.348541 -0.0099372 0)
(-0.360334 -0.0100167 0)
(-0.373505 -0.0101541 0)
(-0.387601 -0.0103116 0)
(-0.402287 -0.0104817 0)
(-0.417296 -0.0106603 0)
(-0.432412 -0.0108434 0)
(-0.447465 -0.0110257 0)
(-0.46232 -0.0112019 0)
(-0.476874 -0.0113668 0)
(-0.491051 -0.0115159 0)
(-0.504794 -0.0116455 0)
(-0.518065 -0.0117526 0)
(-0.530838 -0.0118349 0)
(-0.543099 -0.0118909 0)
(-0.55484 -0.0119199 0)
(-0.566062 -0.0119219 0)
(-0.576766 -0.0118971 0)
(-0.58696 -0.0118466 0)
(-0.596652 -0.0117706 0)
(-0.605848 -0.0116699 0)
(-0.61456 -0.0115453 0)
(-0.622795 -0.0113971 0)
(-0.630564 -0.0112264 0)
(-0.637876 -0.0110373 0)
(-0.644744 -0.0108408 0)
(-0.651182 -0.0106781 0)
(-0.657209 -0.0106463 0)
(-0.662851 -0.0109023 0)
(-0.668141 -0.0115799 0)
(-0.673107 -0.0126323 0)
(-0.677757 -0.0138355 0)
(-0.682076 -0.0149841 0)
(-0.686045 -0.0160003 0)
(-0.689642 -0.0168838 0)
(-0.692847 -0.0176546 0)
(-0.695642 -0.018334 0)
(-0.698008 -0.0189399 0)
(-0.699927 -0.019486 0)
(-0.701382 -0.0199813 0)
(-0.702356 -0.0204307 0)
(-0.702835 -0.0208358 0)
(-0.702807 -0.0211953 0)
(-0.702261 -0.0215063 0)
(-0.701191 -0.0217639 0)
(-0.699596 -0.021962 0)
(-0.697481 -0.0220934 0)
(-0.694856 -0.0221499 0)
(-0.69174 -0.0221218 0)
(-0.688161 -0.0219964 0)
(-0.684114 -0.0217522 0)
(-0.679583 -0.0213469 0)
(-0.674609 -0.0207186 0)
(-0.669254 -0.0197906 0)
(-0.663612 -0.0185011 0)
(-0.657805 -0.0168492 0)
(-0.651971 -0.0149284 0)
(-0.646245 -0.0129167 0)
(-0.640737 -0.0110176 0)
(-0.635514 -0.00939059 0)
(-0.630601 -0.00811359 0)
(-0.62599 -0.00718811 0)
(-0.62166 -0.00656826 0)
(-0.617585 -0.00619055 0)
(-0.61374 -0.00599302 0)
(-0.610106 -0.00592345 0)
(-0.606673 -0.00594096 0)
(-0.60343 -0.00601483 0)
(-0.600373 -0.00612245 0)
(-0.597497 -0.00624717 0)
(-0.594801 -0.00637702 0)
(-0.592282 -0.00650355 0)
(-0.589938 -0.00662094 0)
(-0.587766 -0.00672551 0)
(-0.585761 -0.00681534 0)
(-0.583919 -0.00689019 0)
(-0.582236 -0.00695099 0)
(-0.580705 -0.00699872 0)
(-0.579319 -0.00703764 0)
(-0.578078 -0.00706725 0)
(-0.576973 -0.00709443 0)
(-0.576011 -0.00712069 0)
(-0.575188 -0.00715135 0)
(-0.574526 -0.00719234 0)
(-0.574029 -0.00725651 0)
(-0.573536 -0.00733971 0)
(-0.505388 -0.00371355 0)
(-0.50293 -0.00151512 0)
(-0.501121 0.00112959 0)
(-0.499643 0.00708878 0)
(-0.497797 0.00998638 0)
(-0.495801 0.00717102 0)
(-0.493446 -0.0118793 0)
(-0.490694 -0.0607352 0)
(-0.488089 -0.134498 0)
(-0.483202 -0.263106 0)
(-0.48471 -0.238717 0)
(-0.475521 -0.470002 0)
(-0.488316 -0.206821 0)
(-0.48147 0.155865 0)
(-0.490207 0.0382869 0)
(-0.489631 -0.00221415 0)
(-0.489056 0.000224157 0)
(-0.488612 9.13319e-05 0)
(-0.488277 9.53672e-05 0)
(-0.48806 9.24852e-05 0)
(-0.487974 8.94797e-05 0)
(-0.488031 8.60453e-05 0)
(-0.488247 8.21829e-05 0)
(-0.488638 7.78903e-05 0)
(-0.489221 7.31801e-05 0)
(-0.490011 6.80825e-05 0)
(-0.491022 6.26441e-05 0)
(-0.49226 5.69173e-05 0)
(-0.493712 5.09348e-05 0)
(-0.495296 4.33781e-05 0)
(-0.497122 2.83638e-05 0)
(-0.498494 2.52093e-05 0)
(-0.498923 4.78333e-05 0)
(-0.498945 7.0689e-05 0)
(-0.498945 7.28936e-05 0)
(-0.498945 7.29303e-05 0)
(-0.498945 7.29296e-05 0)
(-0.498945 7.29294e-05 0)
(-0.498945 7.29297e-05 0)
(-0.498945 7.29294e-05 0)
(-0.498945 7.29296e-05 0)
(-0.498945 7.29293e-05 0)
(-0.498945 7.29296e-05 0)
(-0.498945 7.29293e-05 0)
(-0.498945 7.29296e-05 0)
(-0.498945 7.29293e-05 0)
(-0.498945 7.29297e-05 0)
(-0.498945 7.29292e-05 0)
(-0.498945 7.29297e-05 0)
(-0.498945 7.29292e-05 0)
(-0.498945 7.29296e-05 0)
(-0.498945 7.29292e-05 0)
(-0.498945 7.29296e-05 0)
(-0.498945 7.29291e-05 0)
(-0.498945 7.29296e-05 0)
(-0.498945 7.29291e-05 0)
(-0.498945 7.29296e-05 0)
(-0.498945 7.2929e-05 0)
(-0.498945 7.29296e-05 0)
(-0.498945 7.29289e-05 0)
(-0.498945 7.29296e-05 0)
(-0.498945 7.2929e-05 0)
(-0.498945 7.29297e-05 0)
(-0.498945 7.29289e-05 0)
(-0.498945 7.29297e-05 0)
(-0.498945 7.29289e-05 0)
(-0.498945 7.29297e-05 0)
(-0.498945 7.29289e-05 0)
(-0.498945 7.29297e-05 0)
(-0.498945 7.29289e-05 0)
(-0.498945 7.29298e-05 0)
(-0.498945 7.29288e-05 0)
(-0.498945 7.29298e-05 0)
(-0.498945 7.29289e-05 0)
(-0.498945 7.29298e-05 0)
(-0.498945 7.29289e-05 0)
(-0.498945 7.29298e-05 0)
(-0.498945 7.29289e-05 0)
(-0.498945 7.29298e-05 0)
(-0.498945 7.29289e-05 0)
(-0.498945 7.29299e-05 0)
(-0.498945 7.29289e-05 0)
(-0.498945 7.29299e-05 0)
(-0.498945 7.2929e-05 0)
(-0.498945 7.29299e-05 0)
(-0.498945 7.2929e-05 0)
(-0.498945 7.293e-05 0)
(-0.498945 7.2929e-05 0)
(-0.498945 7.293e-05 0)
(-0.498945 7.29291e-05 0)
(-0.498945 7.29301e-05 0)
(-0.498945 7.29293e-05 0)
(-0.498945 7.29306e-05 0)
(-0.498945 7.29299e-05 0)
(-0.498945 7.29311e-05 0)
(-0.498945 7.29304e-05 0)
(-0.498945 7.29317e-05 0)
(-0.498945 7.29308e-05 0)
(-0.498945 7.2932e-05 0)
(-0.498945 7.29312e-05 0)
(-0.498945 7.29325e-05 0)
(-0.498945 7.29316e-05 0)
(-0.498945 7.29327e-05 0)
(-0.498945 7.29316e-05 0)
(-0.498945 7.29327e-05 0)
(-0.498945 7.29314e-05 0)
(-0.498945 7.29322e-05 0)
(-0.498945 7.29309e-05 0)
(-0.498945 7.2932e-05 0)
(-0.498945 7.29306e-05 0)
(-0.498945 7.29313e-05 0)
(-0.498945 7.29296e-05 0)
(-0.498945 7.29301e-05 0)
(-0.498945 7.29281e-05 0)
(-0.498945 7.29281e-05 0)
(-0.498945 7.29257e-05 0)
(-0.498945 7.29255e-05 0)
(-0.498945 7.29232e-05 0)
(-0.498945 7.29233e-05 0)
(-0.498945 7.2924e-05 0)
(-0.498943 7.30005e-05 0)
(-0.498899 7.46859e-05 0)
(-0.497885 0.000143918 0)
)
;

boundaryField
{
    inandouthalf11
    {
        type            cyclic;
    }
    inandouthalf12
    {
        type            cyclic;
    }
    inandouthalf21
    {
        type            cyclic;
    }
    inandouthalf22
    {
        type            cyclic;
    }
    inandouthalf31
    {
        type            cyclic;
    }
    inandouthalf32
    {
        type            cyclic;
    }
    inandouthalf41
    {
        type            cyclic;
    }
    inandouthalf42
    {
        type            cyclic;
    }
    top
    {
        type            symmetryPlane;
    }
    walls
    {
        type            calculated;
        value           uniform (0 0 0);
    }
    frontAndBackPlanes
    {
        type            empty;
    }
}


// ************************************************************************* //
