/*--------------------------------*- C++ -*----------------------------------*\
| =========                 |                                                 |
| \\      /  F ield         | OpenFOAM: The Open Source CFD Toolbox           |
|  \\    /   O peration     | Version:  2.4.x                                 |
|   \\  /    A nd           | Web:      www.OpenFOAM.org                      |
|    \\/     M anipulation  |                                                 |
\*---------------------------------------------------------------------------*/
FoamFile
{
    version     2.0;
    format      ascii;
    class       volVectorField;
    location    "9.4";
    object      gradPs;
}
// * * * * * * * * * * * * * * * * * * * * * * * * * * * * * * * * * * * * * //

dimensions      [0 1 -2 0 0 0 0];

internalField   nonuniform List<vector> 
360
(
(0 1.54454e-18 0)
(0 1.70561e-18 0)
(0 3.17474e-21 0)
(0 -2.35836e-19 0)
(-1.45032e-32 -9.96385e-20 0)
(-1.45035e-32 -5.40251e-20 0)
(-1.45039e-32 -6.92534e-20 0)
(0 -7.92866e-20 0)
(-1.45049e-32 -8.08089e-20 0)
(0 -8.16513e-20 0)
(-1.4506e-32 -8.20165e-20 0)
(0 -8.23831e-20 0)
(-2.90142e-32 -8.31211e-20 0)
(0 -8.38856e-20 0)
(0 -8.48889e-20 0)
(0 -8.59085e-20 0)
(0 -8.67248e-20 0)
(-2.90199e-32 -8.74641e-20 0)
(0 -8.85731e-20 0)
(0 -8.93594e-20 0)
(0 -9.01787e-20 0)
(-1.45123e-32 -9.13432e-20 0)
(0 -9.21946e-20 0)
(0 -9.31811e-20 0)
(0 -9.41915e-20 0)
(-1.45148e-32 -9.50104e-20 0)
(0 -9.61254e-20 0)
(0 -9.72821e-20 0)
(0 -9.81131e-20 0)
(0 -9.90803e-20 0)
(0 -1.00431e-19 0)
(0 -1.01138e-19 0)
(0 -1.02389e-19 0)
(0 -1.03667e-19 0)
(0 -1.04476e-19 0)
(1.45215e-32 -1.05633e-19 0)
(0 -1.06731e-19 0)
(0 -1.08369e-19 0)
(0 -1.08897e-19 0)
(0 -1.1022e-19 0)
(0 -1.12018e-19 0)
(0 -1.12379e-19 0)
(1.45266e-32 -1.14006e-19 0)
(0 -1.15492e-19 0)
(0 -1.16428e-19 0)
(0 -1.18207e-19 0)
(0 -1.18942e-19 0)
(0 -1.20082e-19 0)
(0 -1.22487e-19 0)
(0 -1.23313e-19 0)
(2.9066e-32 -1.24394e-19 0)
(0 -1.26235e-19 0)
(0 -1.27713e-19 0)
(0 -1.28889e-19 0)
(0 -1.30708e-19 0)
(0 -1.32194e-19 0)
(0 -1.33599e-19 0)
(0 -1.35622e-19 0)
(0 -1.36416e-19 0)
(0 -1.38673e-19 0)
(0 -1.40436e-19 0)
(0 -1.41907e-19 0)
(0 -1.43988e-19 0)
(0 -1.45533e-19 0)
(0 -1.47312e-19 0)
(0 -1.49243e-19 0)
(0 -1.51468e-19 0)
(0 -1.53287e-19 0)
(0 -1.5472e-19 0)
(0 -1.57149e-19 0)
(0 -1.60058e-19 0)
(0 -1.61299e-19 0)
(0 -1.63458e-19 0)
(0 -1.66249e-19 0)
(0 -1.68646e-19 0)
(0 -1.70917e-19 0)
(0 -1.72962e-19 0)
(0 -1.75761e-19 0)
(0 -1.78514e-19 0)
(0 -1.80966e-19 0)
(0 -1.83651e-19 0)
(0 -1.86706e-19 0)
(0 -1.89603e-19 0)
(0 -1.92598e-19 0)
(0 -1.95694e-19 0)
(0 -1.98908e-19 0)
(0 -2.02164e-19 0)
(0 -2.05416e-19 0)
(0 -2.08914e-19 0)
(0 -2.12534e-19 0)
(0 -2.16208e-19 0)
(0 -2.20082e-19 0)
(0 -2.24127e-19 0)
(0 -2.28254e-19 0)
(0 -2.32514e-19 0)
(0 -2.36917e-19 0)
(0 -2.41451e-19 0)
(0 -2.46135e-19 0)
(0 -2.51002e-19 0)
(0 -2.56056e-19 0)
(0 -2.61302e-19 0)
(0 -2.66762e-19 0)
(0 -2.72436e-19 0)
(0 -2.78322e-19 0)
(0 -2.84431e-19 0)
(0 -2.90775e-19 0)
(0 -2.97365e-19 0)
(0 -3.04215e-19 0)
(0 -3.1134e-19 0)
(0 -3.18753e-19 0)
(0 -3.26469e-19 0)
(0 -3.34503e-19 0)
(0 -3.42876e-19 0)
(0 -3.5161e-19 0)
(0 -3.60732e-19 0)
(0 -3.70271e-19 0)
(0 -3.80263e-19 0)
(0 -3.90751e-19 0)
(0 -4.0178e-19 0)
(0 -4.13398e-19 0)
(0 -4.25653e-19 0)
(0 -4.38583e-19 0)
(0 -4.52222e-19 0)
(0 -4.66611e-19 0)
(0 -4.81836e-19 0)
(0 -5.00398e-19 0)
(0 3.10135e-16 0)
(0 2.99142e-15 0)
(0 2.17073e-14 0)
(0 1.53088e-13 0)
(0 1.08429e-12 0)
(0 7.78231e-12 0)
(0 5.72675e-11 0)
(0 4.39419e-10 0)
(0 3.59767e-09 0)
(0 3.23683e-08 0)
(0 3.31391e-07 0)
(0 4.01233e-06 0)
(0 6.17594e-05 0)
(0 0.00199253 0)
(0 0.0914449 0)
(0 1.56791 0)
(0 6.3724 0)
(0 6.49827 0)
(0 1.05142 0)
(0 -0.758638 0)
(0 -1.95646 0)
(0 -2.44344 0)
(0 -2.67771 0)
(0 -2.81078 0)
(0 -2.92806 0)
(0 -2.93871 0)
(0 -2.84287 0)
(0 -2.76773 0)
(0 -2.70644 0)
(0 -2.64984 0)
(0 -2.59645 0)
(0 -2.54645 0)
(0 -2.5003 0)
(0 -2.45835 0)
(0 -2.42057 0)
(0 -2.38687 0)
(0 -2.35709 0)
(0 -2.33098 0)
(0 -2.30815 0)
(0 -2.28827 0)
(0 -2.27101 0)
(0 -2.25603 0)
(0 -2.24305 0)
(0 -2.23181 0)
(0 -2.22207 0)
(0 -2.2136 0)
(0 -2.20632 0)
(0 -2.20008 0)
(0 -2.19477 0)
(0 -2.19034 0)
(0 -2.18663 0)
(0 -2.18319 0)
(0 -2.17888 0)
(0 -2.17155 0)
(0 -2.15837 0)
(0 -2.13802 0)
(0 -2.11218 0)
(0 -2.08386 0)
(0 -2.05503 0)
(0 -2.02646 0)
(0 -1.99839 0)
(0 -1.97087 0)
(0 -1.94388 0)
(0 -1.91736 0)
(0 -1.89127 0)
(0 -1.86558 0)
(0 -1.84027 0)
(0 -1.81536 0)
(0 -1.79089 0)
(0 -1.76693 0)
(0 -1.74361 0)
(0 -1.72108 0)
(0 -1.69958 0)
(0 -1.67945 0)
(0 -1.66123 0)
(0 -1.64652 0)
(-3.73527e-16 -1.63754 0)
(0 -1.6374 0)
(0 -1.64843 0)
(5.56348e-16 -1.6693 0)
(0 -1.6927 0)
(-3.84063e-16 -1.70567 0)
(0 -1.69347 0)
(2.75944e-16 -1.64578 0)
(0 -1.56143 0)
(0 -1.44864 0)
(0 -1.3208 0)
(2.77986e-16 -1.19095 0)
(0 -1.0682 0)
(0 -0.957196 0)
(0 -0.859436 0)
(0 -0.774415 0)
(0 -0.700723 0)
(-1.46647e-16 -0.6368 0)
(0 -0.581048 0)
(-1.77165e-16 -0.531767 0)
(0 -0.48754 0)
(-1.0515e-16 -0.447028 0)
(0 -0.408983 0)
(0 -0.372427 0)
(0 -0.336486 0)
(0 -0.301052 0)
(0 -0.266299 0)
(8.02347e-17 -0.231116 0)
(0 -0.199746 0)
(0 -0.166505 0)
(0 -0.139856 0)
(0 -0.113176 0)
(0 -0.091847 0)
(0 -0.0985609 0)
(0 -0.047547 0)
(0 0 0)
(0 0 0)
(0 0 0)
(0 0 0)
(0 0 0)
(0 0 0)
(0 0 0)
(0 0 0)
(0 0 0)
(0 0 0)
(0 0 0)
(0 0 0)
(0 0 0)
(0 0 0)
(0 0 0)
(0 0 0)
(0 0 0)
(0 0 0)
(0 0 0)
(0 0 0)
(0 0 0)
(0 0 0)
(0 0 0)
(0 0 0)
(0 0 0)
(0 0 0)
(0 0 0)
(0 0 0)
(0 0 0)
(0 0 0)
(0 0 0)
(0 0 0)
(0 0 0)
(0 0 0)
(0 0 0)
(0 0 0)
(0 0 0)
(0 0 0)
(0 0 0)
(0 0 0)
(0 0 0)
(0 0 0)
(0 0 0)
(0 0 0)
(0 0 0)
(0 0 0)
(0 0 0)
(0 0 0)
(0 0 0)
(0 0 0)
(0 0 0)
(0 0 0)
(0 0 0)
(0 0 0)
(0 0 0)
(0 0 0)
(0 0 0)
(0 0 0)
(0 0 0)
(0 0 0)
(0 0 0)
(0 0 0)
(0 0 0)
(0 0 0)
(0 0 0)
(0 0 0)
(0 0 0)
(0 0 0)
(0 0 0)
(0 0 0)
(0 0 0)
(0 0 0)
(0 0 0)
(0 0 0)
(0 0 0)
(0 0 0)
(0 0 0)
(0 0 0)
(0 0 0)
(0 0 0)
(0 0 0)
(0 0 0)
(0 0 0)
(0 0 0)
(0 0 0)
(0 0 0)
(0 0 0)
(0 0 0)
(0 0 0)
(0 0 0)
(0 0 0)
(0 0 0)
(0 0 0)
(0 0 0)
(0 0 0)
(0 0 0)
(0 0 0)
(0 0 0)
(0 0 0)
(0 0 0)
(0 0 0)
(0 0 0)
(0 0 0)
(0 0 0)
(0 0 0)
(0 0 0)
(0 0 0)
(0 0 0)
(0 0 0)
(0 0 0)
(0 0 0)
(0 0 0)
(0 0 0)
(0 0 0)
(0 0 0)
(0 0 0)
(0 0 0)
(0 0 0)
(0 0 0)
(0 0 0)
(0 0 0)
(0 0 0)
(0 0 0)
)
;

boundaryField
{
    inandouthalf11
    {
        type            cyclic;
    }
    inandouthalf12
    {
        type            cyclic;
    }
    inandouthalf21
    {
        type            cyclic;
    }
    inandouthalf22
    {
        type            cyclic;
    }
    inandouthalf31
    {
        type            cyclic;
    }
    inandouthalf32
    {
        type            cyclic;
    }
    inandouthalf41
    {
        type            cyclic;
    }
    inandouthalf42
    {
        type            cyclic;
    }
    top
    {
        type            symmetryPlane;
    }
    walls
    {
        type            calculated;
        value           uniform (0 0 0);
    }
    frontAndBackPlanes
    {
        type            empty;
    }
}


// ************************************************************************* //
