/*--------------------------------*- C++ -*----------------------------------*\
| =========                 |                                                 |
| \\      /  F ield         | OpenFOAM: The Open Source CFD Toolbox           |
|  \\    /   O peration     | Version:  2.4.x                                 |
|   \\  /    A nd           | Web:      www.OpenFOAM.org                      |
|    \\/     M anipulation  |                                                 |
\*---------------------------------------------------------------------------*/
FoamFile
{
    version     2.0;
    format      ascii;
    class       volVectorField;
    location    "9.4";
    object      gradPf;
}
// * * * * * * * * * * * * * * * * * * * * * * * * * * * * * * * * * * * * * //

dimensions      [0 1 -2 0 0 0 0];

internalField   nonuniform List<vector> 
360
(
(0 71.2224 0)
(0 79.9141 0)
(0 0.300513 0)
(0 -12.4625 0)
(-3.3442e-14 -5.21855 0)
(-3.34427e-14 -2.8041 0)
(-3.34437e-14 -3.5622 0)
(0 -4.05563 0)
(-3.34461e-14 -4.11041 0)
(0 -4.12853 0)
(-3.34486e-14 -4.12112 0)
(0 -4.11257 0)
(-3.34511e-14 -4.1218 0)
(0 -4.13159 0)
(0 -4.15232 0)
(0 -4.17289 0)
(0 -4.18263 0)
(-3.34576e-14 -4.18786 0)
(0 -4.20973 0)
(0 -4.2156 0)
(0 -4.22208 0)
(-3.34631e-14 -4.24399 0)
(0 -4.25045 0)
(0 -4.26224 0)
(0 -4.27425 0)
(-1.67344e-14 -4.27684 0)
(0 -4.29186 0)
(0 -4.30786 0)
(0 -4.30849 0)
(0 -4.31435 0)
(0 -4.33587 0)
(0 -4.32904 0)
(0 -4.34425 0)
(0 -4.35999 0)
(0 -4.35467 0)
(1.67422e-14 -4.36339 0)
(0 -4.36878 0)
(0 -4.39512 0)
(0 -4.37569 0)
(0 -4.38715 0)
(0 -4.41681 0)
(0 -4.38864 0)
(3.34962e-14 -4.40917 0)
(0 -4.42361 0)
(0 -4.41559 0)
(0 -4.43858 0)
(0 -4.42146 0)
(0 -4.41885 0)
(0 -4.46204 0)
(0 -4.44625 0)
(1.67554e-14 -4.43849 0)
(0 -4.45762 0)
(0 -4.46245 0)
(0 -4.45604 0)
(0 -4.47057 0)
(0 -4.47309 0)
(0 -4.47122 0)
(0 -4.48938 0)
(0 -4.46566 0)
(0 -4.48902 0)
(0 -4.49557 0)
(0 -4.49085 0)
(0 -4.50477 0)
(0 -4.50014 0)
(0 -4.5019 0)
(0 -4.507 0)
(0 -4.51957 0)
(0 -4.51842 0)
(0 -4.50487 0)
(0 -4.51912 0)
(0 -4.5455 0)
(0 -4.52268 0)
(0 -4.52418 0)
(0 -4.54211 0)
(0 -4.54681 0)
(0 -4.5466 0)
(0 -4.53853 0)
(0 -4.54884 0)
(0 -4.55591 0)
(0 -4.55343 0)
(0 -4.55493 0)
(0 -4.5637 0)
(0 -4.5664 0)
(0 -4.56927 0)
(0 -4.57235 0)
(0 -4.57584 0)
(0 -4.57798 0)
(0 -4.57765 0)
(0 -4.58041 0)
(0 -4.58335 0)
(0 -4.58486 0)
(0 -4.58793 0)
(0 -4.59175 0)
(0 -4.5943 0)
(0 -4.59655 0)
(0 -4.5985 0)
(0 -4.59983 0)
(0 -4.60076 0)
(0 -4.60173 0)
(0 -4.60266 0)
(0 -4.60342 0)
(0 -4.60419 0)
(0 -4.60476 0)
(0 -4.60487 0)
(0 -4.6045 0)
(0 -4.60362 0)
(0 -4.60215 0)
(0 -4.60009 0)
(0 -4.5974 0)
(0 -4.59401 0)
(0 -4.58984 0)
(0 -4.58486 0)
(0 -4.57901 0)
(0 -4.57228 0)
(0 -4.56467 0)
(0 -4.5562 0)
(0 -4.54691 0)
(0 -4.53686 0)
(0 -4.52612 0)
(0 -4.51472 0)
(0 -4.50261 0)
(0 -4.48962 0)
(0 -4.47549 0)
(0 -4.46003 0)
(0 -4.44339 0)
(0 -4.4264 0)
(0 -4.41037 0)
(0 -4.39625 0)
(0 -4.38296 0)
(0 -4.36664 0)
(0 -4.34404 0)
(0 -4.32093 0)
(0 -4.31492 0)
(0 -4.33441 0)
(0 -4.35215 0)
(0 -4.33422 0)
(0 -4.31112 0)
(0 -4.38402 0)
(0 -4.59644 0)
(0 -4.72405 0)
(0 -4.72231 0)
(0 -19.0493 0)
(0 -24.2786 0)
(0 -8.7892 0)
(0 0 0)
(0 0 0)
(0 0 0)
(0 0 0)
(0 0 0)
(0 0 0)
(0 0 0)
(0 0 0)
(0 0 0)
(0 0 0)
(0 0 0)
(0 0 0)
(0 0 0)
(0 0 0)
(0 0 0)
(0 0 0)
(0 0 0)
(0 0 0)
(0 0 0)
(0 0 0)
(0 0 0)
(0 0 0)
(0 0 0)
(0 0 0)
(0 0 0)
(0 0 0)
(0 0 0)
(0 0 0)
(0 0 0)
(0 0 0)
(0 0 0)
(0 0 0)
(0 0 0)
(0 0 0)
(0 0 0)
(0 0 0)
(0 0 0)
(0 0 0)
(0 0 0)
(0 0 0)
(0 0 0)
(0 0 0)
(0 0 0)
(0 0 0)
(0 0 0)
(0 0 0)
(0 0 0)
(0 0 0)
(0 0 0)
(0 0 0)
(0 0 0)
(0 0 0)
(0 0 0)
(0 0 0)
(0 0 0)
(0 0 0)
(0 0 0)
(0 0 0)
(0 0 0)
(0 0 0)
(0 0 0)
(0 0 0)
(0 0 0)
(0 0 0)
(0 0 0)
(0 0 0)
(0 0 0)
(0 0 0)
(0 0 0)
(0 0 0)
(0 0 0)
(0 0 0)
(0 0 0)
(0 0 0)
(0 0 0)
(0 0 0)
(0 0 0)
(0 0 0)
(0 0 0)
(0 0 0)
(0 0 0)
(0 0 0)
(0 0 0)
(0 0 0)
(0 0 0)
(0 0 0)
(0 0 0)
(0 0 0)
(0 0 0)
(0 0 0)
(0 0 0)
(0 0 0)
(0 0 0)
(0 0 0)
(0 0 0)
(0 0 0)
(0 0 0)
(0 0 0)
(0 0 0)
(0 0 0)
(0 0 0)
(0 0 0)
(0 0 0)
(0 0 0)
(0 0 0)
(0 0 0)
(0 0 0)
(0 0 0)
(0 0 0)
(0 0 0)
(0 0 0)
(0 0 0)
(0 0 0)
(0 0 0)
(0 0 0)
(0 0 0)
(0 0 0)
(0 0 0)
(0 0 0)
(0 0 0)
(0 0 0)
(0 0 0)
(0 0 0)
(0 0 0)
(0 0 0)
(0 0 0)
(0 0 0)
(0 0 0)
(0 0 0)
(0 0 0)
(0 0 0)
(0 0 0)
(0 0 0)
(0 0 0)
(0 0 0)
(0 0 0)
(0 0 0)
(0 0 0)
(0 0 0)
(0 0 0)
(0 0 0)
(0 0 0)
(0 0 0)
(0 0 0)
(0 0 0)
(0 0 0)
(0 0 0)
(0 0 0)
(0 0 0)
(0 0 0)
(0 0 0)
(0 0 0)
(0 0 0)
(0 0 0)
(0 0 0)
(0 0 0)
(0 0 0)
(0 0 0)
(0 0 0)
(0 0 0)
(0 0 0)
(0 0 0)
(0 0 0)
(0 0 0)
(0 0 0)
(0 0 0)
(0 0 0)
(0 0 0)
(0 0 0)
(0 0 0)
(0 0 0)
(0 0 0)
(0 0 0)
(0 0 0)
(0 0 0)
(0 0 0)
(0 0 0)
(0 0 0)
(0 0 0)
(0 0 0)
(0 0 0)
(0 0 0)
(0 0 0)
(0 0 0)
(0 0 0)
(0 0 0)
(0 0 0)
(0 0 0)
(0 0 0)
(0 0 0)
(0 0 0)
(0 0 0)
(0 0 0)
(0 0 0)
(0 0 0)
(0 0 0)
(0 0 0)
(0 0 0)
(0 0 0)
(0 0 0)
(0 0 0)
(0 0 0)
(0 0 0)
(0 0 0)
(0 0 0)
(0 0 0)
(0 0 0)
(0 0 0)
(0 0 0)
(0 0 0)
(0 0 0)
(0 0 0)
(0 0 0)
(0 0 0)
(0 0 0)
(0 0 0)
)
;

boundaryField
{
    inandouthalf11
    {
        type            cyclic;
    }
    inandouthalf12
    {
        type            cyclic;
    }
    inandouthalf21
    {
        type            cyclic;
    }
    inandouthalf22
    {
        type            cyclic;
    }
    inandouthalf31
    {
        type            cyclic;
    }
    inandouthalf32
    {
        type            cyclic;
    }
    inandouthalf41
    {
        type            cyclic;
    }
    inandouthalf42
    {
        type            cyclic;
    }
    top
    {
        type            symmetryPlane;
    }
    walls
    {
        type            calculated;
        value           uniform (0 0 0);
    }
    frontAndBackPlanes
    {
        type            empty;
    }
}


// ************************************************************************* //
