/*--------------------------------*- C++ -*----------------------------------*\
| =========                 |                                                 |
| \\      /  F ield         | OpenFOAM: The Open Source CFD Toolbox           |
|  \\    /   O peration     | Version:  2.4.x                                 |
|   \\  /    A nd           | Web:      www.OpenFOAM.org                      |
|    \\/     M anipulation  |                                                 |
\*---------------------------------------------------------------------------*/
FoamFile
{
    version     2.0;
    format      ascii;
    class       volScalarField;
    location    "9.4";
    object      k_0;
}
// * * * * * * * * * * * * * * * * * * * * * * * * * * * * * * * * * * * * * //

dimensions      [0 2 -2 0 0 0 0];

internalField   nonuniform List<scalar> 
360
(
1e-20
1e-20
1e-20
1e-20
1e-20
1e-20
1e-20
1e-20
1e-20
1e-20
1e-20
1e-20
1e-20
1e-20
1e-20
1e-20
1e-20
1e-20
1e-20
1e-20
1e-20
1e-20
1e-20
1e-20
1e-20
1e-20
1e-20
1e-20
1e-20
1e-20
1e-20
1e-20
1e-20
1e-20
1e-20
1e-20
1e-20
1e-20
1e-20
1e-20
1e-20
1e-20
1e-20
1e-20
1e-20
1e-20
1e-20
1e-20
1e-20
1e-20
1e-20
1e-20
1e-20
1e-20
1e-20
1e-20
1e-20
1e-20
1e-20
1e-20
1e-20
1e-20
1e-20
1e-20
1e-20
1e-20
1e-20
1e-20
1e-20
1e-20
1e-20
1e-20
1e-20
1e-20
1e-20
1e-20
1e-20
1e-20
1e-20
1e-20
1e-20
1e-20
1e-20
1e-20
1e-20
1e-20
1e-20
1e-20
1e-20
1e-20
1e-20
1e-20
1e-20
1e-20
1e-20
1e-20
1e-20
1e-20
1e-20
1e-20
1e-20
1e-20
1e-20
1e-20
1e-20
1e-20
1e-20
1e-20
1e-20
1e-20
1e-20
1e-20
1e-20
1e-20
1e-20
1e-20
1e-20
1e-20
1e-20
1e-20
1e-20
1e-20
1e-20
1e-20
1e-20
1e-20
1e-20
2.82092e-20
1.85569e-19
1.30389e-18
9.1958e-18
6.52246e-17
4.68765e-16
3.45335e-15
2.65193e-14
2.17216e-13
1.95437e-12
2.00004e-11
2.41549e-10
3.56063e-09
6.57456e-08
1.54221e-06
4.31666e-05
0.000801392
0.00428916
0.00743126
0.0093707
0.0107025
0.011679
0.0124267
0.0130155
0.013487
0.013872
0.0141924
0.0144601
0.0146834
0.0148685
0.0150202
0.0151419
0.0152363
0.0153056
0.0153513
0.0153748
0.0153772
0.0153593
0.0153222
0.0152664
0.0151929
0.0151023
0.0149953
0.0148725
0.0147347
0.0145825
0.0144165
0.0142373
0.0140456
0.0138419
0.013627
0.0134012
0.0131653
0.0129197
0.012665
0.0124017
0.0121302
0.0118511
0.0115649
0.011272
0.0109732
0.0106688
0.0103595
0.0100459
0.0097286
0.00940815
0.00908522
0.00876044
0.00843449
0.00810805
0.00778183
0.00745658
0.00713306
0.00681206
0.0064912
0.00616827
0.00584442
0.00552096
0.0051994
0.0048814
0.00456884
0.00426375
0.00396826
0.00368463
0.00341508
0.00316177
0.00292662
0.0027112
0.00251656
0.00234317
0.00219082
0.0020587
0.00194545
0.00184933
0.0017684
0.00170067
0.00164417
0.00159713
0.00155792
0.00152515
0.00149758
0.00147418
0.00145405
0.00143642
0.00142062
0.00140608
0.0013923
0.00137882
0.00136523
0.00135118
0.00133634
0.00132042
0.00130313
0.00128424
0.00126352
0.00124076
0.00121579
0.00118846
0.00115861
0.00112614
0.00109097
0.00105303
0.0010123
0.000968755
0.000922446
0.000873437
0.000821838
0.000767807
0.00071155
0.000653333
0.000593482
0.000532393
0.000470542
0.000408487
0.00034688
0.00028647
0.000228116
0.000172794
0.000121618
7.58801e-05
3.72538e-05
9.1793e-06
5.09987e-07
7.00151e-09
7.65278e-11
8.05508e-13
8.21817e-15
8.1586e-17
7.97188e-19
1.56042e-20
1e-20
1e-20
1e-20
1e-20
1e-20
1e-20
1e-20
1e-20
1e-20
1e-20
1e-20
1e-20
1e-20
1e-20
1e-20
1e-20
1e-20
1e-20
1e-20
1e-20
1e-20
1e-20
1e-20
1e-20
1e-20
1e-20
1e-20
1e-20
1e-20
1e-20
1e-20
1e-20
1e-20
1e-20
1e-20
1e-20
1e-20
1e-20
1e-20
1e-20
1e-20
1e-20
1e-20
1e-20
1e-20
1e-20
1e-20
1e-20
1e-20
1e-20
1e-20
1e-20
1e-20
1e-20
1e-20
1e-20
1e-20
1e-20
1e-20
1e-20
1e-20
1e-20
1e-20
1e-20
1e-20
1e-20
1e-20
1e-20
1e-20
1e-20
1e-20
1e-20
1e-20
1e-20
1e-20
1e-20
1e-20
1e-20
1e-20
1e-20
1e-20
1e-20
1e-20
)
;

boundaryField
{
    inandouthalf11
    {
        type            cyclic;
    }
    inandouthalf12
    {
        type            cyclic;
    }
    inandouthalf21
    {
        type            cyclic;
    }
    inandouthalf22
    {
        type            cyclic;
    }
    inandouthalf31
    {
        type            cyclic;
    }
    inandouthalf32
    {
        type            cyclic;
    }
    inandouthalf41
    {
        type            cyclic;
    }
    inandouthalf42
    {
        type            cyclic;
    }
    top
    {
        type            symmetryPlane;
    }
    walls
    {
        type            zeroGradient;
    }
    frontAndBackPlanes
    {
        type            empty;
    }
}


// ************************************************************************* //
