/*--------------------------------*- C++ -*----------------------------------*\
| =========                 |                                                 |
| \\      /  F ield         | OpenFOAM: The Open Source CFD Toolbox           |
|  \\    /   O peration     | Version:  2.4.x                                 |
|   \\  /    A nd           | Web:      www.OpenFOAM.org                      |
|    \\/     M anipulation  |                                                 |
\*---------------------------------------------------------------------------*/
FoamFile
{
    version     2.0;
    format      ascii;
    class       volScalarField;
    location    "9.4";
    object      nutb;
}
// * * * * * * * * * * * * * * * * * * * * * * * * * * * * * * * * * * * * * //

dimensions      [0 2 -1 0 0 0 0];

internalField   nonuniform List<scalar> 
360
(
9e-22
9e-22
9e-22
9e-22
9e-22
9e-22
9e-22
9e-22
9e-22
9e-22
9e-22
9e-22
9e-22
9e-22
9e-22
9e-22
9e-22
9e-22
9e-22
9e-22
9e-22
9e-22
9e-22
9e-22
9e-22
9e-22
9e-22
9e-22
9e-22
9e-22
9e-22
9e-22
9e-22
9e-22
9e-22
9e-22
9e-22
9e-22
9e-22
9e-22
9e-22
9e-22
9e-22
9e-22
9e-22
9e-22
9e-22
9e-22
9e-22
9e-22
9e-22
9e-22
9e-22
9e-22
9e-22
9e-22
9e-22
9e-22
9e-22
9e-22
9e-22
9e-22
9e-22
9e-22
9e-22
9e-22
9e-22
9e-22
9e-22
9e-22
9e-22
9e-22
9e-22
9e-22
9e-22
9e-22
9e-22
9e-22
9e-22
9e-22
9e-22
9e-22
9e-22
9e-22
9e-22
9e-22
9e-22
9e-22
9e-22
9e-22
9e-22
9e-22
9e-22
9e-22
9e-22
9e-22
9e-22
9e-22
9e-22
9e-22
9e-22
9e-22
9e-22
9e-22
9e-22
9e-22
9e-22
9e-22
9e-22
9e-22
9e-22
9e-22
9e-22
9e-22
9e-22
9e-22
9e-22
9e-22
9e-22
9e-22
9e-22
9e-22
9e-22
9e-22
9e-22
9e-22
8.82612e-22
1.70096e-21
1.01272e-20
6.54236e-20
4.20559e-19
2.68765e-18
1.71641e-17
1.10546e-16
7.28515e-16
5.01761e-15
3.71699e-14
3.07022e-13
2.94337e-12
3.4019e-11
4.88453e-10
8.8583e-09
1.89351e-07
2.63279e-06
1.13752e-05
2.10536e-05
2.96164e-05
3.74773e-05
4.48671e-05
5.1909e-05
5.86775e-05
6.52191e-05
7.16186e-05
7.79542e-05
8.42412e-05
9.04807e-05
9.66682e-05
0.000102795
0.000108851
0.00011482
0.000120687
0.000126436
0.00013205
0.000137511
0.000142804
0.000147912
0.000152823
0.000157522
0.000161999
0.000166243
0.000170245
0.000173997
0.000177494
0.000180729
0.000183699
0.000186402
0.000188834
0.000190995
0.000192884
0.000194502
0.000195849
0.000196925
0.000197731
0.000198268
0.000198537
0.000198543
0.000198288
0.000197779
0.000197021
0.000196021
0.000194788
0.000193331
0.000191658
0.000189781
0.000187711
0.000185462
0.000183046
0.000180479
0.000177777
0.000174957
0.000172039
0.000169014
0.00016587
0.000162631
0.000159326
0.000155991
0.00015267
0.000149417
0.000146294
0.000143373
0.000140735
0.000138471
0.000136677
0.000135453
0.000134893
0.000135078
0.000136068
0.000137888
0.000140524
0.000143917
0.000147969
0.000152552
0.000157512
0.000162693
0.000167939
0.000173111
0.00017809
0.00018278
0.000187107
0.000191021
0.000194489
0.000197496
0.000200034
0.000202107
0.000203722
0.000204891
0.000205623
0.00020593
0.000205823
0.000205311
0.000204399
0.000203092
0.000201389
0.000199291
0.000196795
0.000193897
0.00019059
0.000186869
0.000182725
0.000178151
0.000173138
0.000167677
0.000161762
0.000155383
0.000148537
0.000141218
0.000133423
0.000125152
0.000116407
0.000107194
9.75225e-05
8.74059e-05
7.68619e-05
6.59127e-05
5.45835e-05
4.28999e-05
3.08814e-05
1.85617e-05
6.01658e-06
4.17954e-07
6.02764e-09
6.64469e-11
7.0535e-13
7.26341e-15
7.27853e-17
6.59228e-19
2.19751e-21
9e-22
9e-22
9e-22
9e-22
9e-22
9e-22
9e-22
9e-22
9e-22
9e-22
9e-22
9e-22
9e-22
9e-22
9e-22
9e-22
9e-22
9e-22
9e-22
9e-22
9e-22
9e-22
9e-22
9e-22
9e-22
9e-22
9e-22
9e-22
9e-22
9e-22
9e-22
9e-22
9e-22
9e-22
9e-22
9e-22
9e-22
9e-22
9e-22
9e-22
9e-22
9e-22
9e-22
9e-22
9e-22
9e-22
9e-22
9e-22
9e-22
9e-22
9e-22
9e-22
9e-22
9e-22
9e-22
9e-22
9e-22
9e-22
9e-22
9e-22
9e-22
9e-22
9e-22
9e-22
9e-22
9e-22
9e-22
9e-22
9e-22
9e-22
9e-22
9e-22
9e-22
9e-22
9e-22
9e-22
9e-22
9e-22
9e-22
9e-22
9e-22
9e-22
9e-22
)
;

boundaryField
{
    inandouthalf11
    {
        type            cyclic;
    }
    inandouthalf12
    {
        type            cyclic;
    }
    inandouthalf21
    {
        type            cyclic;
    }
    inandouthalf22
    {
        type            cyclic;
    }
    inandouthalf31
    {
        type            cyclic;
    }
    inandouthalf32
    {
        type            cyclic;
    }
    inandouthalf41
    {
        type            cyclic;
    }
    inandouthalf42
    {
        type            cyclic;
    }
    top
    {
        type            symmetryPlane;
    }
    walls
    {
        type            calculated;
        value           uniform 0;
    }
    frontAndBackPlanes
    {
        type            empty;
    }
}


// ************************************************************************* //
