/*--------------------------------*- C++ -*----------------------------------*\
| =========                 |                                                 |
| \\      /  F ield         | OpenFOAM: The Open Source CFD Toolbox           |
|  \\    /   O peration     | Version:  2.4.x                                 |
|   \\  /    A nd           | Web:      www.OpenFOAM.org                      |
|    \\/     M anipulation  |                                                 |
\*---------------------------------------------------------------------------*/
FoamFile
{
    version     2.0;
    format      ascii;
    class       volTensorField;
    location    "9.4";
    object      Taus;
}
// * * * * * * * * * * * * * * * * * * * * * * * * * * * * * * * * * * * * * //

dimensions      [0 2 -2 0 0 0 0];

internalField   nonuniform List<tensor> 
360
(
(0 0.0184627 0 0.0184627 -0.207409 0 0 0 0)
(0 0.027312 0 0.027312 -0.263167 0 0 0 0)
(0 0.0333775 0 0.0333775 -0.26833 0 0 0 0)
(0 0.0325934 0 0.0325934 -0.261598 0 0 0 0)
(-1.18219e-17 0.0318795 0 0.0318795 -0.258577 0 0 0 0)
(-1.14525e-17 0.0320688 0 0.0320688 -0.257474 0 0 0 0)
(-1.12878e-17 0.0323322 0 0.0323322 -0.256085 0 0 0 0)
(0 0.0324652 0 0.0324652 -0.254373 0 0 0 0)
(-4.35161e-17 0.032553 0 0.032553 -0.252641 0 0 0 0)
(0 0.0326311 0 0.0326311 -0.250903 0 0 0 0)
(-4.13293e-17 0.0327037 0 0.0327037 -0.24916 0 0 0 0)
(0 0.0327757 0 0.0327757 -0.247429 0 0 0 0)
(-3.90727e-17 0.0328436 0 0.0328436 -0.245693 0 0 0 0)
(0 0.032907 0 0.032907 -0.243956 0 0 0 0)
(0 0.0329644 0 0.0329644 -0.242215 0 0 0 0)
(0 0.0330148 0 0.0330148 -0.240464 0 0 0 0)
(0 0.0330593 0 0.0330593 -0.238709 0 0 0 0)
(-3.39017e-17 0.0331001 0 0.0331001 -0.236953 0 0 0 0)
(0 0.0331359 0 0.0331359 -0.235195 0 0 0 0)
(0 0.0331652 0 0.0331652 -0.233424 0 0 0 0)
(0 0.0331926 0 0.0331926 -0.231663 0 0 0 0)
(-6.09503e-17 0.0332135 0 0.0332135 -0.229888 0 0 0 0)
(0 0.0332296 0 0.0332296 -0.228112 0 0 0 0)
(0 0.0332417 0 0.0332417 -0.226334 0 0 0 0)
(0 0.0332489 0 0.0332489 -0.22455 0 0 0 0)
(-5.53345e-17 0.0332524 0 0.0332524 -0.222764 0 0 0 0)
(0 0.0332526 0 0.0332526 -0.220979 0 0 0 0)
(0 0.0332464 0 0.0332464 -0.219184 0 0 0 0)
(0 0.0332369 0 0.0332369 -0.217388 0 0 0 0)
(0 0.0332247 0 0.0332247 -0.215593 0 0 0 0)
(0 0.0332078 0 0.0332078 -0.213794 0 0 0 0)
(0 0.0331857 0 0.0331857 -0.211984 0 0 0 0)
(0 0.0331639 0 0.0331639 -0.210191 0 0 0 0)
(0 0.0331328 0 0.0331328 -0.208371 0 0 0 0)
(0 0.0331018 0 0.0331018 -0.206568 0 0 0 0)
(9.10905e-17 0.0330665 0 0.0330665 -0.204752 0 0 0 0)
(0 0.0330291 0 0.0330291 -0.202943 0 0 0 0)
(0 0.0329855 0 0.0329855 -0.201125 0 0 0 0)
(0 0.0329377 0 0.0329377 -0.199297 0 0 0 0)
(0 0.0328929 0 0.0328929 -0.197494 0 0 0 0)
(0 0.032837 0 0.032837 -0.195659 0 0 0 0)
(0 0.032781 0 0.032781 -0.193835 0 0 0 0)
(8.28555e-17 0.0327255 0 0.0327255 -0.192022 0 0 0 0)
(0 0.0326606 0 0.0326606 -0.190183 0 0 0 0)
(0 0.0325959 0 0.0325959 -0.188361 0 0 0 0)
(0 0.0325262 0 0.0325262 -0.186529 0 0 0 0)
(0 0.0324527 0 0.0324527 -0.18469 0 0 0 0)
(0 0.0323828 0 0.0323828 -0.182872 0 0 0 0)
(0 0.0323039 0 0.0323039 -0.181036 0 0 0 0)
(0 0.032218 0 0.032218 -0.179188 0 0 0 0)
(1.55138e-16 0.032137 0 0.032137 -0.177364 0 0 0 0)
(0 0.0320494 0 0.0320494 -0.175522 0 0 0 0)
(0 0.0319586 0 0.0319586 -0.173686 0 0 0 0)
(0 0.0318642 0 0.0318642 -0.171841 0 0 0 0)
(0 0.0317696 0 0.0317696 -0.17001 0 0 0 0)
(0 0.0316668 0 0.0316668 -0.168156 0 0 0 0)
(0 0.0315662 0 0.0315662 -0.166324 0 0 0 0)
(0 0.0314579 0 0.0314579 -0.164472 0 0 0 0)
(0 0.0313495 0 0.0313495 -0.162628 0 0 0 0)
(0 0.0312412 0 0.0312412 -0.160794 0 0 0 0)
(0 0.0311225 0 0.0311225 -0.158934 0 0 0 0)
(0 0.031006 0 0.031006 -0.157097 0 0 0 0)
(0 0.0308828 0 0.0308828 -0.155242 0 0 0 0)
(0 0.0307583 0 0.0307583 -0.153395 0 0 0 0)
(0 0.030631 0 0.030631 -0.151544 0 0 0 0)
(0 0.0305019 0 0.0305019 -0.149697 0 0 0 0)
(0 0.0303673 0 0.0303673 -0.147843 0 0 0 0)
(0 0.0302292 0 0.0302292 -0.145989 0 0 0 0)
(0 0.0300911 0 0.0300911 -0.144136 0 0 0 0)
(0 0.0299526 0 0.0299526 -0.142291 0 0 0 0)
(0 0.0298041 0 0.0298041 -0.14043 0 0 0 0)
(0 0.0296528 0 0.0296528 -0.138568 0 0 0 0)
(0 0.0295059 0 0.0295059 -0.136724 0 0 0 0)
(0 0.0293508 0 0.0293508 -0.13486 0 0 0 0)
(0 0.0291929 0 0.0291929 -0.133005 0 0 0 0)
(0 0.0290305 0 0.0290305 -0.13114 0 0 0 0)
(0 0.0288693 0 0.0288693 -0.129285 0 0 0 0)
(0 0.0287052 0 0.0287052 -0.127425 0 0 0 0)
(0 0.0285367 0 0.0285367 -0.125563 0 0 0 0)
(0 0.0283655 0 0.0283655 -0.123699 0 0 0 0)
(0 0.0281936 0 0.0281936 -0.121839 0 0 0 0)
(0 0.0280178 0 0.0280178 -0.119975 0 0 0 0)
(0 0.0278386 0 0.0278386 -0.118109 0 0 0 0)
(0 0.0276573 0 0.0276573 -0.116243 0 0 0 0)
(0 0.0274732 0 0.0274732 -0.114375 0 0 0 0)
(0 0.0272867 0 0.0272867 -0.112508 0 0 0 0)
(0 0.0270976 0 0.0270976 -0.110637 0 0 0 0)
(0 0.0269069 0 0.0269069 -0.108767 0 0 0 0)
(0 0.0267144 0 0.0267144 -0.106896 0 0 0 0)
(0 0.0265194 0 0.0265194 -0.105024 0 0 0 0)
(0 0.0263223 0 0.0263223 -0.10315 0 0 0 0)
(0 0.0261232 0 0.0261232 -0.101276 0 0 0 0)
(0 0.0259214 0 0.0259214 -0.0993993 0 0 0 0)
(0 0.0257172 0 0.0257172 -0.0975214 0 0 0 0)
(0 0.0255108 0 0.0255108 -0.095642 0 0 0 0)
(0 0.0253024 0 0.0253024 -0.0937611 0 0 0 0)
(0 0.0250921 0 0.0250921 -0.0918787 0 0 0 0)
(0 0.0248801 0 0.0248801 -0.0899948 0 0 0 0)
(0 0.0246665 0 0.0246665 -0.0881093 0 0 0 0)
(0 0.0244511 0 0.0244511 -0.0862221 0 0 0 0)
(0 0.0242341 0 0.0242341 -0.0843331 0 0 0 0)
(0 0.0240155 0 0.0240155 -0.0824422 0 0 0 0)
(0 0.0237953 0 0.0237953 -0.0805492 0 0 0 0)
(0 0.0235735 0 0.0235735 -0.078654 0 0 0 0)
(0 0.0233502 0 0.0233502 -0.0767566 0 0 0 0)
(0 0.0231258 0 0.0231258 -0.0748569 0 0 0 0)
(0 0.0229002 0 0.0229002 -0.0729547 0 0 0 0)
(0 0.0226736 0 0.0226736 -0.0710498 0 0 0 0)
(0 0.0224462 0 0.0224462 -0.0691422 0 0 0 0)
(0 0.0222181 0 0.0222181 -0.0672315 0 0 0 0)
(0 0.0219896 0 0.0219896 -0.0653176 0 0 0 0)
(0 0.0217607 0 0.0217607 -0.0634003 0 0 0 0)
(0 0.0215318 0 0.0215318 -0.0614792 0 0 0 0)
(0 0.0213028 0 0.0213028 -0.0595539 0 0 0 0)
(0 0.021074 0 0.021074 -0.0576242 0 0 0 0)
(0 0.0208455 0 0.0208455 -0.0556896 0 0 0 0)
(0 0.0206173 0 0.0206173 -0.0537496 0 0 0 0)
(0 0.0203893 0 0.0203893 -0.0518037 0 0 0 0)
(0 0.0201615 0 0.0201615 -0.0498514 0 0 0 0)
(0 0.0199335 0 0.0199335 -0.0478918 0 0 0 0)
(0 0.0197053 0 0.0197053 -0.0459243 0 0 0 0)
(0 0.0194764 0 0.0194764 -0.0439479 0 0 0 0)
(0 0.0192469 0 0.0192469 -0.0419613 0 0 0 0)
(0 0.0190166 0 0.0190166 -0.0399627 0 0 0 0)
(0 0.0187857 0 0.0187857 -0.0379501 0 0 0 0)
(0 0.0185541 0 0.0185541 -0.0359206 0 0 0 0)
(0 0.0183212 0 0.0183212 -0.0338708 0 0 0 0)
(0 0.0180854 0 0.0180854 -0.0317971 0 0 0 0)
(0 0.0178445 0 0.0178445 -0.0296961 0 0 0 0)
(0 0.017596 0 0.017596 -0.0275651 0 0 0 0)
(0 0.017338 0 0.017338 -0.0254027 0 0 0 0)
(0 0.0170663 0 0.0170663 -0.0232111 0 0 0 0)
(0 0.0167697 0 0.0167697 -0.0210002 0 0 0 0)
(0 0.0164289 0 0.0164289 -0.0187876 0 0 0 0)
(0 0.0160299 0 0.0160299 -0.0165886 0 0 0 0)
(0 0.0155799 0 0.0155799 -0.0143982 0 0 0 0)
(0 0.0150964 0 0.0150964 -0.0121819 0 0 0 0)
(0 0.0145794 0 0.0145794 -0.00985967 0 0 0 0)
(0 0.014011 0 0.014011 -0.00718815 0 0 0 0)
(0 0.0133775 0 0.0133775 -0.0032615 0 0 0 0)
(0 0.0119842 0 0.0119842 0.00556807 0 0 0 0)
(0 0.00870939 0 0.00870939 0.0124752 0 0 0 0)
(0 0.00372605 0 0.00372605 -4.74534e-05 0 0 0 0)
(0 0.00273233 0 0.00273233 -5.88149e-05 0 0 0 0)
(0 0.00414918 0 0.00414918 -5.9649e-05 0 0 0 0)
(0 0.00396743 0 0.00396743 -2.27486e-05 0 0 0 0)
(0 0.00337851 0 0.00337851 -1.51301e-05 0 0 0 0)
(0 0.00291027 0 0.00291027 -1.18008e-05 0 0 0 0)
(0 0.00255458 0 0.00255458 -1.02687e-05 0 0 0 0)
(0 0.00228119 0 0.00228119 -8.7232e-06 0 0 0 0)
(0 0.00206833 0 0.00206833 -8.72676e-06 0 0 0 0)
(0 0.0018997 0 0.0018997 -7.30367e-06 0 0 0 0)
(0 0.00178207 0 0.00178207 -5.21005e-06 0 0 0 0)
(0 0.00169713 0 0.00169713 -4.9526e-06 0 0 0 0)
(0 0.00163882 0 0.00163882 -3.8045e-06 0 0 0 0)
(0 0.00160319 0 0.00160319 -2.33423e-06 0 0 0 0)
(0 0.00158721 0 0.00158721 -6.40632e-07 0 0 0 0)
(0 0.00158853 0 0.00158853 1.29232e-06 0 0 0 0)
(0 0.00160533 0 0.00160533 3.51727e-06 0 0 0 0)
(0 0.00163618 0 0.00163618 6.08166e-06 0 0 0 0)
(0 0.00168004 0 0.00168004 9.02734e-06 0 0 0 0)
(0 0.00173614 0 0.00173614 1.23933e-05 0 0 0 0)
(0 0.00180397 0 0.00180397 1.62166e-05 0 0 0 0)
(0 0.00188321 0 0.00188321 2.05314e-05 0 0 0 0)
(0 0.00197372 0 0.00197372 2.5368e-05 0 0 0 0)
(0 0.00207556 0 0.00207556 3.07522e-05 0 0 0 0)
(0 0.00218888 0 0.00218888 3.67038e-05 0 0 0 0)
(0 0.00231402 0 0.00231402 4.32361e-05 0 0 0 0)
(0 0.00245142 0 0.00245142 5.03516e-05 0 0 0 0)
(0 0.00260165 0 0.00260165 5.80395e-05 0 0 0 0)
(0 0.0027654 0 0.0027654 6.62688e-05 0 0 0 0)
(0 0.0029435 0 0.0029435 7.49854e-05 0 0 0 0)
(0 0.0031369 0 0.0031369 8.41036e-05 0 0 0 0)
(0 0.00334667 0 0.00334667 9.34968e-05 0 0 0 0)
(0 0.00357408 0 0.00357408 0.00010299 0 0 0 0)
(0 0.00382055 0 0.00382055 0.00011237 0 0 0 0)
(0 0.00408769 0 0.00408769 0.000121481 0 0 0 0)
(0 0.00437735 0 0.00437735 0.000130566 0 0 0 0)
(0 0.00469148 0 0.00469148 0.000140988 0 0 0 0)
(0 0.00503196 0 0.00503196 0.000156046 0 0 0 0)
(0 0.00540001 0 0.00540001 0.000180461 0 0 0 0)
(0 0.00579582 0 0.00579582 0.000217689 0 0 0 0)
(0 0.00621898 0 0.00621898 0.000267676 0 0 0 0)
(0 0.00666932 0 0.00666932 0.000328111 0 0 0 0)
(0 0.00714722 0 0.00714722 0.00039719 0 0 0 0)
(0 0.00765331 0 0.00765331 0.000474533 0 0 0 0)
(0 0.00818834 0 0.00818834 0.000560582 0 0 0 0)
(0 0.00875309 0 0.00875309 0.000656072 0 0 0 0)
(0 0.00934827 0 0.00934827 0.000761837 0 0 0 0)
(0 0.00997452 0 0.00997452 0.000878753 0 0 0 0)
(0 0.0106323 0 0.0106323 0.00100771 0 0 0 0)
(0 0.011322 0 0.011322 0.00114962 0 0 0 0)
(0 0.0120437 0 0.0120437 0.00130534 0 0 0 0)
(0 0.0127973 0 0.0127973 0.00147573 0 0 0 0)
(0 0.0135826 0 0.0135826 0.00166154 0 0 0 0)
(0 0.0143989 0 0.0143989 0.00186335 0 0 0 0)
(0 0.0152454 0 0.0152454 0.00208147 0 0 0 0)
(0 0.0161214 0 0.0161214 0.00231579 0 0 0 0)
(0 0.0170259 0 0.0170259 0.0025655 0 0 0 0)
(0 0.0179582 0 0.0179582 0.00282875 0 0 0 0)
(0 0.0189188 0 0.0189188 0.00310131 0 0 0 0)
(0 0.0199249 0 0.0199249 0.00337701 0 0 0 0)
(-1.03935e-15 0.0210017 0 0.0210017 0.00363984 0 0 0 0)
(0 0.0221782 0 0.0221782 0.00385362 0 0 0 0)
(0 0.0235024 0 0.0235024 0.00395866 0 0 0 0)
(7.43434e-16 0.0250467 0 0.0250467 0.00387325 0 0 0 0)
(0 0.0269016 0 0.0269016 0.00350681 0 0 0 0)
(-1.99824e-15 0.0291559 0 0.0291559 0.0027839 0 0 0 0)
(0 0.031865 0 0.031865 0.00167233 0 0 0 0)
(1.39751e-15 0.0350186 0 0.0350186 0.000204795 0 0 0 0)
(0 0.0385246 0 0.0385246 -0.0015173 0 0 0 0)
(0 0.0422191 0 0.0422191 -0.00334347 0 0 0 0)
(0 0.0459026 0 0.0459026 -0.00511078 0 0 0 0)
(2.66466e-15 0.0493818 0 0.0493818 -0.00668025 0 0 0 0)
(0 0.0525004 0 0.0525004 -0.00795715 0 0 0 0)
(0 0.0551482 0 0.0551482 -0.00889259 0 0 0 0)
(0 0.0572602 0 0.0572602 -0.00947575 0 0 0 0)
(0 0.0588099 0 0.0588099 -0.00972324 0 0 0 0)
(0 0.0597957 0 0.0597957 -0.00966829 0 0 0 0)
(-1.02384e-14 0.060238 0 0.060238 -0.0093556 0 0 0 0)
(0 0.0601691 0 0.0601691 -0.00883744 0 0 0 0)
(-1.19166e-14 0.0596322 0 0.0596322 -0.00816984 0 0 0 0)
(0 0.0586632 0 0.0586632 -0.00740906 0 0 0 0)
(-1.35602e-14 0.0573092 0 0.0573092 -0.00661302 0 0 0 0)
(0 0.0555914 0 0.0555914 -0.00583519 0 0 0 0)
(0 0.0535407 0 0.0535407 -0.00512591 0 0 0 0)
(0 0.0511442 0 0.0511442 -0.00452374 0 0 0 0)
(0 0.0484023 0 0.0484023 -0.00406097 0 0 0 0)
(1.68959e-14 0.0452803 0 0.0452803 -0.003779 0 0 0 0)
(0 0.0417477 0 0.0417477 -0.00364636 0 0 0 0)
(0 0.0377165 0 0.0377165 -0.00379426 0 0 0 0)
(0 0.033278 0 0.033278 -0.00404693 0 0 0 0)
(0 0.028041 0 0.028041 -0.00472268 0 0 0 0)
(0 0.0225283 0 0.0225283 -0.00540477 0 0 0 0)
(0 0.0159425 0 0.0159425 -0.00687368 0 0 0 0)
(0 0.0120143 0 0.0120143 -0.0114242 0 0 0 0)
(0 0 0 0 -0 0 0 0 0)
(0 0 0 0 -0 0 0 0 0)
(0 -0 0 -0 0 0 0 0 0)
(0 -0 0 -0 -0 0 0 0 0)
(0 -0 0 -0 -0 0 0 0 0)
(0 -0 0 -0 -0 0 0 0 0)
(0 -0 0 -0 -0 0 0 0 0)
(-0 -0 0 -0 -0 0 0 0 0)
(0 -0 0 -0 -0 0 0 0 0)
(0 -0 0 -0 -0 0 0 0 0)
(0 -0 0 -0 0 0 0 0 0)
(-0 -0 0 -0 -0 0 0 0 0)
(0 -0 0 -0 0 0 0 0 0)
(0 -0 0 -0 -0 0 0 0 0)
(-0 -0 0 -0 -0 0 0 0 0)
(0 -0 0 -0 -0 0 0 0 0)
(0 -0 0 -0 -0 0 0 0 0)
(0 -0 0 -0 0 0 0 0 0)
(0 -0 0 -0 -0 0 0 0 0)
(0 -0 0 -0 -0 0 0 0 0)
(0 -0 0 -0 -0 0 0 0 0)
(0 -0 0 -0 0 0 0 0 0)
(0 -0 0 -0 0 0 0 0 0)
(0 -0 0 -0 0 0 0 0 0)
(0 -0 0 -0 0 0 0 0 0)
(0 -0 0 -0 0 0 0 0 0)
(0 -0 0 -0 0 0 0 0 0)
(0 -0 0 -0 0 0 0 0 0)
(0 -0 0 -0 0 0 0 0 0)
(0 -0 0 -0 0 0 0 0 0)
(0 -0 0 -0 0 0 0 0 0)
(0 -0 0 -0 0 0 0 0 0)
(0 -0 0 -0 0 0 0 0 0)
(0 -0 0 -0 0 0 0 0 0)
(0 -0 0 -0 0 0 0 0 0)
(0 0 0 0 0 0 0 0 0)
(0 0 0 0 0 0 0 0 0)
(0 0 0 0 -0 0 0 0 0)
(0 0 0 0 -0 0 0 0 0)
(0 0 0 0 0 0 0 0 0)
(0 0 0 0 -0 0 0 0 0)
(0 0 0 0 0 0 0 0 0)
(0 0 0 0 -0 0 0 0 0)
(0 0 0 0 0 0 0 0 0)
(0 0 0 0 -0 0 0 0 0)
(0 0 0 0 0 0 0 0 0)
(0 0 0 0 -0 0 0 0 0)
(0 0 0 0 0 0 0 0 0)
(0 0 0 0 -0 0 0 0 0)
(0 0 0 0 0 0 0 0 0)
(0 0 0 0 -0 0 0 0 0)
(0 0 0 0 0 0 0 0 0)
(0 0 0 0 -0 0 0 0 0)
(0 0 0 0 0 0 0 0 0)
(0 0 0 0 -0 0 0 0 0)
(0 0 0 0 0 0 0 0 0)
(0 0 0 0 -0 0 0 0 0)
(0 -0 0 -0 0 0 0 0 0)
(0 0 0 0 -0 0 0 0 0)
(0 -0 0 -0 0 0 0 0 0)
(0 0 0 0 -0 0 0 0 0)
(0 -0 0 -0 0 0 0 0 0)
(0 0 0 0 -0 0 0 0 0)
(-0 -0 0 -0 0 0 0 0 0)
(0 0 0 0 -0 0 0 0 0)
(0 -0 0 -0 0 0 0 0 0)
(0 0 0 0 -0 0 0 0 0)
(0 -0 0 -0 0 0 0 0 0)
(0 0 0 0 -0 0 0 0 0)
(0 -0 0 -0 0 0 0 0 0)
(0 0 0 0 -0 0 0 0 0)
(0 -0 0 -0 0 0 0 0 0)
(0 0 0 0 -0 0 0 0 0)
(0 -0 0 -0 0 0 0 0 0)
(0 -0 0 -0 -0 0 0 0 0)
(0 -0 0 -0 0 0 0 0 0)
(0 0 0 0 -0 0 0 0 0)
(0 -0 0 -0 0 0 0 0 0)
(0 0 0 0 -0 0 0 0 0)
(0 -0 0 -0 0 0 0 0 0)
(0 0 0 0 -0 0 0 0 0)
(0 -0 0 -0 0 0 0 0 0)
(0 0 0 0 -0 0 0 0 0)
(0 -0 0 -0 0 0 0 0 0)
(0 0 0 0 -0 0 0 0 0)
(0 -0 0 -0 0 0 0 0 0)
(0 0 0 0 -0 0 0 0 0)
(0 -0 0 -0 0 0 0 0 0)
(0 0 0 0 -0 0 0 0 0)
(0 -0 0 -0 0 0 0 0 0)
(0 0 0 0 -0 0 0 0 0)
(0 -0 0 -0 0 0 0 0 0)
(0 0 0 0 -0 0 0 0 0)
(0 -0 0 -0 0 0 0 0 0)
(0 0 0 0 -0 0 0 0 0)
(0 -0 0 -0 0 0 0 0 0)
(0 0 0 0 -0 0 0 0 0)
(0 -0 0 -0 0 0 0 0 0)
(0 0 0 0 -0 0 0 0 0)
(0 -0 0 -0 0 0 0 0 0)
(0 0 0 0 -0 0 0 0 0)
(0 -0 0 -0 0 0 0 0 0)
(0 0 0 0 -0 0 0 0 0)
(0 -0 0 -0 0 0 0 0 0)
(0 -0 0 -0 -0 0 0 0 0)
(0 -0 0 -0 0 0 0 0 0)
(0 0 0 0 -0 0 0 0 0)
(0 0 0 0 0 0 0 0 0)
(0 0 0 0 -0 0 0 0 0)
(0 -0 0 -0 0 0 0 0 0)
(0 0 0 0 -0 0 0 0 0)
(0 -0 0 -0 0 0 0 0 0)
(0 0 0 0 -0 0 0 0 0)
(0 -0 0 -0 0 0 0 0 0)
(0 0 0 0 -0 0 0 0 0)
(0 0 0 0 0 0 0 0 0)
(0 0 0 0 -0 0 0 0 0)
(0 0 0 0 0 0 0 0 0)
(0 0 0 0 0 0 0 0 0)
(0 0 0 0 0 0 0 0 0)
(0 0 0 0 0 0 0 0 0)
(0 0 0 0 0 0 0 0 0)
(0 0 0 0 0 0 0 0 0)
(0 0 0 0 0 0 0 0 0)
)
;

boundaryField
{
    inandouthalf11
    {
        type            cyclic;
    }
    inandouthalf12
    {
        type            cyclic;
    }
    inandouthalf21
    {
        type            cyclic;
    }
    inandouthalf22
    {
        type            cyclic;
    }
    inandouthalf31
    {
        type            cyclic;
    }
    inandouthalf32
    {
        type            cyclic;
    }
    inandouthalf41
    {
        type            cyclic;
    }
    inandouthalf42
    {
        type            cyclic;
    }
    top
    {
        type            symmetryPlane;
    }
    walls
    {
        type            zeroGradient;
    }
    frontAndBackPlanes
    {
        type            empty;
    }
}


// ************************************************************************* //
