/*--------------------------------*- C++ -*----------------------------------*\
| =========                 |                                                 |
| \\      /  F ield         | OpenFOAM: The Open Source CFD Toolbox           |
|  \\    /   O peration     | Version:  2.4.x                                 |
|   \\  /    A nd           | Web:      www.OpenFOAM.org                      |
|    \\/     M anipulation  |                                                 |
\*---------------------------------------------------------------------------*/
FoamFile
{
    version     2.0;
    format      ascii;
    class       volScalarField;
    location    "9.4";
    object      Theta;
}
// * * * * * * * * * * * * * * * * * * * * * * * * * * * * * * * * * * * * * //

dimensions      [0 2 -2 0 0 0 0];

internalField   nonuniform List<scalar> 
360
(
6.66145e-21
6.66164e-21
6.66156e-21
6.66155e-21
6.66156e-21
6.66157e-21
6.66157e-21
6.66158e-21
6.66158e-21
6.66159e-21
6.66159e-21
6.6616e-21
6.66161e-21
6.66162e-21
6.66163e-21
6.66164e-21
6.66165e-21
6.66166e-21
6.66167e-21
6.66168e-21
6.66169e-21
6.6617e-21
6.66171e-21
6.66172e-21
6.66174e-21
6.66175e-21
6.66176e-21
6.66177e-21
6.66178e-21
6.66178e-21
6.66179e-21
6.6618e-21
6.66181e-21
6.66182e-21
6.66182e-21
6.66183e-21
6.66184e-21
6.66184e-21
6.66185e-21
6.66185e-21
6.66185e-21
6.66185e-21
6.66186e-21
6.66186e-21
6.66186e-21
6.66186e-21
6.66185e-21
6.66185e-21
6.66185e-21
6.66184e-21
6.66184e-21
6.66183e-21
6.66183e-21
6.66182e-21
6.66181e-21
6.66181e-21
6.6618e-21
6.66179e-21
6.66178e-21
6.66177e-21
6.66176e-21
6.66175e-21
6.66174e-21
6.66173e-21
6.66172e-21
6.66171e-21
6.6617e-21
6.66169e-21
6.66168e-21
6.66167e-21
6.66165e-21
6.66164e-21
6.66163e-21
6.66162e-21
6.66161e-21
6.6616e-21
6.6616e-21
6.66159e-21
6.66158e-21
6.66157e-21
6.66156e-21
6.66155e-21
6.66154e-21
6.66153e-21
6.66152e-21
6.66152e-21
6.66151e-21
6.6615e-21
6.66149e-21
6.66149e-21
6.66148e-21
6.66147e-21
6.66146e-21
6.66146e-21
6.66145e-21
6.66144e-21
6.66144e-21
6.66143e-21
6.66143e-21
6.66142e-21
6.66141e-21
6.66141e-21
6.6614e-21
6.6614e-21
6.66139e-21
6.66138e-21
6.66138e-21
6.66137e-21
6.66137e-21
6.66136e-21
6.66136e-21
6.66135e-21
6.66135e-21
6.66134e-21
6.66134e-21
6.66133e-21
6.66133e-21
6.66132e-21
6.66132e-21
6.66131e-21
6.66131e-21
6.6613e-21
6.66129e-21
6.66129e-21
6.66128e-21
6.66128e-21
6.66118e-21
1.87768e-20
1.23505e-19
8.67746e-19
6.11941e-18
4.33997e-17
3.11867e-16
2.29705e-15
1.76349e-14
1.44392e-13
1.29857e-12
1.32861e-11
1.60783e-10
2.4747e-09
7.98006e-08
3.66903e-06
6.59633e-05
0.000617969
0.0022584
0.00360749
0.00439047
0.00490594
0.00528385
0.00557806
0.00581101
0.00597922
0.0062099
0.00644913
0.0066835
0.0069095
0.00712585
0.00733145
0.00752542
0.00770671
0.00787443
0.00802787
0.00816638
0.00828951
0.00839691
0.00848849
0.00856422
0.00862431
0.00866898
0.00869864
0.00871369
0.0087147
0.00870223
0.00867687
0.00863927
0.00859009
0.00852998
0.00845958
0.00837956
0.00829052
0.0081931
0.00808786
0.00797529
0.00785587
0.00773009
0.00759854
0.00746179
0.0073205
0.0071753
0.00702688
0.0068759
0.00672303
0.00656897
0.00641437
0.0062599
0.00610621
0.00595393
0.00580367
0.00565599
0.00551143
0.00537048
0.00523216
0.00509566
0.00496149
0.00483013
0.00470191
0.00457706
0.00445558
0.00433735
0.00422206
0.0041093
0.00399861
0.00388952
0.00378158
0.00367436
0.00356742
0.00346039
0.00335285
0.00324442
0.00313468
0.00302322
0.00290958
0.0027933
0.00267388
0.00255074
0.00242328
0.00229079
0.00215248
0.00200738
0.00185432
0.00169182
0.00151789
0.00132969
0.00112289
0.000889903
0.000614288
0
0
0
0
0
0
0
0
0
0
0
0
0
0
0
0
0
0
0
0
0
0
0
0
0
0
0
0
0
0
0
0
0
0
0
0
0
0
0
0
0
0
0
0
0
0
0
0
0
0
0
0
0
0
0
0
0
0
0
0
0
0
0
0
0
0
0
0
0
0
0
0
0
0
0
0
0
0
0
0
0
0
0
0
0
0
0
0
0
0
0
0
0
0
0
0
0
0
0
0
0
0
0
0
0
0
0
0
0
0
0
0
0
0
0
0
0
0
0
0
0
0
0
0
)
;

boundaryField
{
    inandouthalf11
    {
        type            cyclic;
    }
    inandouthalf12
    {
        type            cyclic;
    }
    inandouthalf21
    {
        type            cyclic;
    }
    inandouthalf22
    {
        type            cyclic;
    }
    inandouthalf31
    {
        type            cyclic;
    }
    inandouthalf32
    {
        type            cyclic;
    }
    inandouthalf41
    {
        type            cyclic;
    }
    inandouthalf42
    {
        type            cyclic;
    }
    top
    {
        type            symmetryPlane;
    }
    walls
    {
        type            zeroGradient;
    }
    frontAndBackPlanes
    {
        type            empty;
    }
}


// ************************************************************************* //
