/*--------------------------------*- C++ -*----------------------------------*\
| =========                 |                                                 |
| \\      /  F ield         | OpenFOAM: The Open Source CFD Toolbox           |
|  \\    /   O peration     | Version:  2.4.x                                 |
|   \\  /    A nd           | Web:      www.OpenFOAM.org                      |
|    \\/     M anipulation  |                                                 |
\*---------------------------------------------------------------------------*/
FoamFile
{
    version     2.0;
    format      ascii;
    class       volScalarField;
    location    "9.4";
    object      Theta_0;
}
// * * * * * * * * * * * * * * * * * * * * * * * * * * * * * * * * * * * * * //

dimensions      [0 2 -2 0 0 0 0];

internalField   nonuniform List<scalar> 
360
(
6.66145e-21
6.66164e-21
6.66156e-21
6.66155e-21
6.66156e-21
6.66157e-21
6.66157e-21
6.66158e-21
6.66158e-21
6.66159e-21
6.66159e-21
6.6616e-21
6.66161e-21
6.66162e-21
6.66163e-21
6.66164e-21
6.66165e-21
6.66166e-21
6.66167e-21
6.66168e-21
6.66169e-21
6.6617e-21
6.66171e-21
6.66172e-21
6.66174e-21
6.66175e-21
6.66176e-21
6.66177e-21
6.66178e-21
6.66178e-21
6.66179e-21
6.6618e-21
6.66181e-21
6.66182e-21
6.66182e-21
6.66183e-21
6.66184e-21
6.66184e-21
6.66185e-21
6.66185e-21
6.66185e-21
6.66185e-21
6.66186e-21
6.66186e-21
6.66186e-21
6.66186e-21
6.66185e-21
6.66185e-21
6.66185e-21
6.66184e-21
6.66184e-21
6.66183e-21
6.66183e-21
6.66182e-21
6.66181e-21
6.66181e-21
6.6618e-21
6.66179e-21
6.66178e-21
6.66177e-21
6.66176e-21
6.66175e-21
6.66174e-21
6.66173e-21
6.66172e-21
6.66171e-21
6.6617e-21
6.66169e-21
6.66168e-21
6.66167e-21
6.66165e-21
6.66164e-21
6.66163e-21
6.66162e-21
6.66161e-21
6.6616e-21
6.6616e-21
6.66159e-21
6.66158e-21
6.66157e-21
6.66156e-21
6.66155e-21
6.66154e-21
6.66153e-21
6.66152e-21
6.66152e-21
6.66151e-21
6.6615e-21
6.66149e-21
6.66149e-21
6.66148e-21
6.66147e-21
6.66146e-21
6.66146e-21
6.66145e-21
6.66144e-21
6.66144e-21
6.66143e-21
6.66143e-21
6.66142e-21
6.66141e-21
6.66141e-21
6.6614e-21
6.6614e-21
6.66139e-21
6.66138e-21
6.66138e-21
6.66137e-21
6.66137e-21
6.66136e-21
6.66136e-21
6.66135e-21
6.66135e-21
6.66134e-21
6.66134e-21
6.66133e-21
6.66133e-21
6.66132e-21
6.66132e-21
6.66131e-21
6.66131e-21
6.6613e-21
6.66129e-21
6.66129e-21
6.66128e-21
6.66128e-21
6.66118e-21
1.87524e-20
1.23351e-19
8.66852e-19
6.11461e-18
4.33774e-17
3.118e-16
2.29729e-15
1.76429e-14
1.4451e-13
1.30011e-12
1.33068e-11
1.6109e-10
2.48055e-09
8.00679e-08
3.67964e-06
6.60954e-05
0.000618913
0.00225994
0.00360872
0.00439159
0.00490703
0.00528495
0.00557915
0.00581209
0.00598024
0.0062109
0.00645011
0.00668447
0.00691046
0.0071268
0.00733239
0.00752634
0.00770762
0.00787533
0.00802875
0.00816725
0.00829036
0.00839774
0.0084893
0.008565
0.00862507
0.00866971
0.00869933
0.00871434
0.00871531
0.0087028
0.00867739
0.00863975
0.00859051
0.00853035
0.0084599
0.00837983
0.00829074
0.00819326
0.00808796
0.00797533
0.00785585
0.00773001
0.00759839
0.00746159
0.00732023
0.00717498
0.0070265
0.00687547
0.00672255
0.00656844
0.0064138
0.00625929
0.00610557
0.00595326
0.00580297
0.00565527
0.0055107
0.00536974
0.00523142
0.00509491
0.00496075
0.0048294
0.00470119
0.00457635
0.0044549
0.00433668
0.00422141
0.00410867
0.003998
0.00388893
0.00378101
0.0036738
0.00356689
0.00345987
0.00335235
0.00324394
0.00313422
0.00302277
0.00290916
0.0027929
0.00267349
0.00255037
0.00242293
0.00229047
0.00215217
0.00200709
0.00185406
0.00169158
0.00151767
0.0013295
0.00112273
0.000889778
0.000614201
0
0
0
0
0
0
0
0
0
0
0
0
0
0
0
0
0
0
0
0
0
0
0
0
0
0
0
0
0
0
0
0
0
0
0
0
0
0
0
0
0
0
0
0
0
0
0
0
0
0
0
0
0
0
0
0
0
0
0
0
0
0
0
0
0
0
0
0
0
0
0
0
0
0
0
0
0
0
0
0
0
0
0
0
0
0
0
0
0
0
0
0
0
0
0
0
0
0
0
0
0
0
0
0
0
0
0
0
0
0
0
0
0
0
0
0
0
0
0
0
0
0
0
0
)
;

boundaryField
{
    inandouthalf11
    {
        type            cyclic;
    }
    inandouthalf12
    {
        type            cyclic;
    }
    inandouthalf21
    {
        type            cyclic;
    }
    inandouthalf22
    {
        type            cyclic;
    }
    inandouthalf31
    {
        type            cyclic;
    }
    inandouthalf32
    {
        type            cyclic;
    }
    inandouthalf41
    {
        type            cyclic;
    }
    inandouthalf42
    {
        type            cyclic;
    }
    top
    {
        type            symmetryPlane;
    }
    walls
    {
        type            zeroGradient;
    }
    frontAndBackPlanes
    {
        type            empty;
    }
}


// ************************************************************************* //
