/*--------------------------------*- C++ -*----------------------------------*\
| =========                 |                                                 |
| \\      /  F ield         | OpenFOAM: The Open Source CFD Toolbox           |
|  \\    /   O peration     | Version:  2.4.x                                 |
|   \\  /    A nd           | Web:      www.OpenFOAM.org                      |
|    \\/     M anipulation  |                                                 |
\*---------------------------------------------------------------------------*/
FoamFile
{
    version     2.0;
    format      ascii;
    class       volScalarField;
    location    "9.4";
    object      tmf;
}
// * * * * * * * * * * * * * * * * * * * * * * * * * * * * * * * * * * * * * //

dimensions      [0 0 0 0 0 0 0];

internalField   nonuniform List<scalar> 
360
(
0.999206
0.999209
0.99921
0.999209
0.999209
0.999209
0.999209
0.999209
0.999209
0.999209
0.999209
0.999209
0.999209
0.999209
0.999208
0.999208
0.999208
0.999208
0.999208
0.999208
0.999208
0.999208
0.999208
0.999208
0.999208
0.999208
0.999207
0.999207
0.999207
0.999207
0.999207
0.999207
0.999207
0.999207
0.999207
0.999207
0.999206
0.999206
0.999206
0.999206
0.999206
0.999206
0.999206
0.999206
0.999206
0.999206
0.999205
0.999205
0.999205
0.999205
0.999205
0.999205
0.999205
0.999205
0.999205
0.999204
0.999204
0.999204
0.999204
0.999204
0.999204
0.999204
0.999203
0.999203
0.999203
0.999203
0.999203
0.999203
0.999203
0.999202
0.999202
0.999202
0.999202
0.999202
0.999202
0.999202
0.999201
0.999201
0.999201
0.999201
0.999201
0.999201
0.9992
0.9992
0.9992
0.9992
0.9992
0.999199
0.999199
0.999199
0.999199
0.999199
0.999198
0.999198
0.999198
0.999198
0.999197
0.999197
0.999197
0.999197
0.999196
0.999196
0.999196
0.999196
0.999195
0.999195
0.999195
0.999195
0.999194
0.999194
0.999194
0.999193
0.999193
0.999193
0.999192
0.999192
0.999192
0.999191
0.999191
0.99919
0.99919
0.99919
0.999189
0.999189
0.999188
0.999188
0.999171
0.998785
0.998656
0.998538
0.998395
0.998218
0.997994
0.997704
0.997324
0.996816
0.996132
0.995207
0.993961
0.992296
0.990093
0.987187
0.982915
0.967493
0.931315
0.918319
0.91524
0.914252
0.913586
0.912699
0.91141
0.905941
0.907291
0.908673
0.910125
0.911639
0.913202
0.914801
0.916422
0.918052
0.91968
0.921297
0.922893
0.924463
0.925999
0.927499
0.928957
0.930372
0.931742
0.933065
0.934341
0.935567
0.936743
0.937868
0.93894
0.939958
0.940919
0.941829
0.9427
0.943586
0.944619
0.945983
0.947666
0.949492
0.951339
0.953155
0.954926
0.956646
0.958315
0.959936
0.96151
0.96304
0.96453
0.965979
0.967391
0.968767
0.970108
0.971416
0.972689
0.97393
0.975139
0.976327
0.977505
0.978671
0.979822
0.980955
0.982068
0.983159
0.984225
0.985263
0.986272
0.987247
0.988186
0.989084
0.989938
0.990742
0.99149
0.992179
0.992804
0.993366
0.993862
0.994297
0.994672
0.994994
0.995267
0.995496
0.995688
0.995846
0.995976
0.996081
0.996166
0.996232
0.996283
0.99632
0.996347
0.996365
0.996373
0.994721
0.995194
0.995069
0.995135
0.995119
0.995113
0.995103
0.995111
0.995132
0.995195
0.995332
0.995255
0.99623
0.996092
0.99711
0.997174
0.997231
0.997294
0.997362
0.997436
0.997517
0.997605
0.997702
0.997807
0.997922
0.998048
0.998187
0.998342
0.998515
0.998712
0.998948
0.999199
0.999358
0.999389
0.999394
0.999399
0.999405
0.99941
0.999363
0.996271
0.994191
0.994191
0.994191
0.994191
0.994191
0.994191
0.994191
0.994191
0.994191
0.994191
0.994191
0.994191
0.994191
0.994191
0.994191
0.994191
0.994191
0.994191
0.994191
0.994191
0.994191
0.994191
0.994191
0.994191
0.994191
0.994191
0.994191
0.994191
0.994191
0.994191
0.994191
0.994191
0.994191
0.994191
0.994191
0.994191
0.994191
0.994191
0.994191
0.994191
0.994191
0.994191
0.994191
0.994191
0.994191
0.994191
0.994191
0.994191
0.994191
0.994191
0.994191
0.994191
0.994191
0.994191
0.994191
0.994191
0.994191
0.994191
0.994191
0.994191
0.994191
0.994191
0.994191
0.994191
0.994191
0.994191
0.994191
0.994191
0.994191
0.994191
0.994191
0.994191
0.994191
0.994191
0.994191
0.994191
0.994191
0.994191
0.994191
0.994191
0.994191
0.994176
0.993246
)
;

boundaryField
{
    inandouthalf11
    {
        type            cyclic;
    }
    inandouthalf12
    {
        type            cyclic;
    }
    inandouthalf21
    {
        type            cyclic;
    }
    inandouthalf22
    {
        type            cyclic;
    }
    inandouthalf31
    {
        type            cyclic;
    }
    inandouthalf32
    {
        type            cyclic;
    }
    inandouthalf41
    {
        type            cyclic;
    }
    inandouthalf42
    {
        type            cyclic;
    }
    top
    {
        type            symmetryPlane;
    }
    walls
    {
        type            calculated;
        value           uniform 0;
    }
    frontAndBackPlanes
    {
        type            empty;
    }
}


// ************************************************************************* //
