/*--------------------------------*- C++ -*----------------------------------*\
| =========                 |                                                 |
| \\      /  F ield         | OpenFOAM: The Open Source CFD Toolbox           |
|  \\    /   O peration     | Version:  2.4.x                                 |
|   \\  /    A nd           | Web:      www.OpenFOAM.org                      |
|    \\/     M anipulation  |                                                 |
\*---------------------------------------------------------------------------*/
FoamFile
{
    version     2.0;
    format      ascii;
    class       volVectorField;
    location    "9.4";
    object      Ua_0;
}
// * * * * * * * * * * * * * * * * * * * * * * * * * * * * * * * * * * * * * //

dimensions      [0 1 -1 0 0 0 0];

internalField   nonuniform List<vector> 
360
(
(1.27513e-32 -1.02855e-31 0)
(4.22049e-09 -2.36995e-08 0)
(8.75547e-09 -4.21698e-08 0)
(1.28183e-08 -5.82494e-08 0)
(1.69709e-08 -7.51292e-08 0)
(2.13317e-08 -9.27663e-08 0)
(2.58111e-08 -1.10608e-07 0)
(3.03745e-08 -1.28568e-07 0)
(3.50373e-08 -1.46743e-07 0)
(3.98213e-08 -1.65216e-07 0)
(4.47431e-08 -1.84048e-07 0)
(4.98139e-08 -2.03272e-07 0)
(5.50407e-08 -2.22907e-07 0)
(6.04288e-08 -2.42965e-07 0)
(6.59829e-08 -2.63457e-07 0)
(7.17074e-08 -2.84391e-07 0)
(7.76061e-08 -3.05776e-07 0)
(8.36817e-08 -3.27612e-07 0)
(8.99354e-08 -3.49897e-07 0)
(9.63684e-08 -3.72627e-07 0)
(1.02981e-07 -3.95795e-07 0)
(1.09773e-07 -4.19392e-07 0)
(1.16743e-07 -4.43412e-07 0)
(1.23892e-07 -4.67845e-07 0)
(1.31218e-07 -4.9268e-07 0)
(1.3872e-07 -5.17905e-07 0)
(1.46395e-07 -5.43504e-07 0)
(1.54241e-07 -5.69467e-07 0)
(1.62257e-07 -5.9578e-07 0)
(1.70438e-07 -6.22426e-07 0)
(1.78782e-07 -6.49387e-07 0)
(1.87286e-07 -6.76649e-07 0)
(1.95945e-07 -7.04191e-07 0)
(2.04755e-07 -7.31997e-07 0)
(2.13713e-07 -7.6005e-07 0)
(2.22812e-07 -7.88326e-07 0)
(2.32047e-07 -8.16804e-07 0)
(2.41413e-07 -8.45462e-07 0)
(2.50905e-07 -8.74287e-07 0)
(2.60516e-07 -9.03246e-07 0)
(2.70239e-07 -9.3232e-07 0)
(2.80069e-07 -9.6149e-07 0)
(2.89997e-07 -9.90724e-07 0)
(3.00017e-07 -1.02e-06 0)
(3.10121e-07 -1.04931e-06 0)
(3.20303e-07 -1.07861e-06 0)
(3.30554e-07 -1.10789e-06 0)
(3.40865e-07 -1.13711e-06 0)
(3.51227e-07 -1.16625e-06 0)
(3.61636e-07 -1.1953e-06 0)
(3.72083e-07 -1.22424e-06 0)
(3.82559e-07 -1.25303e-06 0)
(3.93056e-07 -1.28166e-06 0)
(4.03567e-07 -1.31011e-06 0)
(4.14084e-07 -1.33835e-06 0)
(4.24601e-07 -1.36638e-06 0)
(4.3511e-07 -1.39417e-06 0)
(4.45604e-07 -1.42171e-06 0)
(4.56076e-07 -1.44897e-06 0)
(4.66518e-07 -1.47594e-06 0)
(4.76925e-07 -1.50262e-06 0)
(4.87293e-07 -1.52898e-06 0)
(4.97618e-07 -1.55503e-06 0)
(5.07895e-07 -1.58076e-06 0)
(5.1812e-07 -1.60615e-06 0)
(5.28287e-07 -1.6312e-06 0)
(5.38393e-07 -1.65589e-06 0)
(5.48434e-07 -1.68023e-06 0)
(5.58407e-07 -1.70421e-06 0)
(5.68307e-07 -1.72782e-06 0)
(5.78133e-07 -1.75106e-06 0)
(5.87886e-07 -1.77395e-06 0)
(5.97563e-07 -1.79646e-06 0)
(6.07163e-07 -1.8186e-06 0)
(6.16687e-07 -1.84039e-06 0)
(6.26134e-07 -1.86182e-06 0)
(6.35504e-07 -1.88288e-06 0)
(6.44792e-07 -1.90359e-06 0)
(6.53999e-07 -1.92393e-06 0)
(6.63124e-07 -1.94392e-06 0)
(6.72166e-07 -1.96354e-06 0)
(6.81126e-07 -1.98281e-06 0)
(6.90006e-07 -2.00173e-06 0)
(6.98807e-07 -2.02032e-06 0)
(7.07531e-07 -2.03856e-06 0)
(7.16178e-07 -2.05647e-06 0)
(7.24748e-07 -2.07405e-06 0)
(7.33243e-07 -2.09131e-06 0)
(7.4166e-07 -2.10823e-06 0)
(7.49999e-07 -2.12483e-06 0)
(7.58261e-07 -2.1411e-06 0)
(7.66445e-07 -2.15705e-06 0)
(7.74552e-07 -2.17268e-06 0)
(7.82584e-07 -2.18799e-06 0)
(7.90541e-07 -2.20299e-06 0)
(7.98426e-07 -2.21769e-06 0)
(8.06239e-07 -2.23207e-06 0)
(8.13981e-07 -2.24616e-06 0)
(8.21652e-07 -2.25995e-06 0)
(8.29253e-07 -2.27344e-06 0)
(8.36784e-07 -2.28663e-06 0)
(8.44246e-07 -2.29952e-06 0)
(8.51639e-07 -2.31212e-06 0)
(8.58966e-07 -2.32443e-06 0)
(8.66227e-07 -2.33646e-06 0)
(8.73424e-07 -2.3482e-06 0)
(8.80559e-07 -2.35965e-06 0)
(8.87634e-07 -2.37083e-06 0)
(8.94651e-07 -2.38173e-06 0)
(9.01612e-07 -2.39236e-06 0)
(9.0852e-07 -2.40271e-06 0)
(9.15377e-07 -2.4128e-06 0)
(9.22187e-07 -2.42262e-06 0)
(9.28954e-07 -2.43218e-06 0)
(9.35681e-07 -2.44148e-06 0)
(9.42373e-07 -2.45053e-06 0)
(9.49033e-07 -2.45932e-06 0)
(9.55663e-07 -2.46785e-06 0)
(9.62266e-07 -2.47613e-06 0)
(9.68839e-07 -2.48414e-06 0)
(9.75376e-07 -2.49188e-06 0)
(9.81865e-07 -2.49932e-06 0)
(9.88287e-07 -2.50644e-06 0)
(9.94616e-07 -2.51322e-06 0)
(1.00082e-06 -2.51961e-06 0)
(1.00687e-06 -2.5256e-06 0)
(1.01274e-06 -2.53115e-06 0)
(1.01841e-06 -2.53626e-06 0)
(1.02389e-06 -2.54096e-06 0)
(1.02923e-06 -2.54526e-06 0)
(1.03447e-06 -2.54924e-06 0)
(1.0397e-06 -2.55294e-06 0)
(1.04503e-06 -2.55642e-06 0)
(1.05052e-06 -2.55971e-06 0)
(1.05616e-06 -2.56279e-06 0)
(1.06176e-06 -2.56553e-06 0)
(1.06684e-06 -2.56772e-06 0)
(1.07077e-06 -2.56916e-06 0)
(1.07321e-06 -2.56987e-06 0)
(1.07436e-06 -2.57008e-06 0)
(1.07483e-06 -2.57007e-06 0)
(1.07508e-06 -2.56992e-06 0)
(1.0754e-06 -2.56966e-06 0)
(0.0151038 -9.8445e-05 0)
(0.110549 -0.00119053 0)
(0.213991 -0.00152638 0)
(0.302369 -0.00173982 0)
(0.378436 -0.00189433 0)
(0.445123 -0.00202909 0)
(0.504462 -0.00214751 0)
(0.55787 -0.00224457 0)
(0.606388 -0.00236245 0)
(0.650814 -0.00242317 0)
(0.691627 -0.002487 0)
(0.729257 -0.00253756 0)
(0.764083 -0.00257103 0)
(0.79643 -0.00258639 0)
(0.826579 -0.00258357 0)
(0.854771 -0.00256259 0)
(0.881216 -0.00252365 0)
(0.906096 -0.00246714 0)
(0.92957 -0.00239369 0)
(0.951776 -0.00230407 0)
(0.972836 -0.0021992 0)
(0.992855 -0.00208013 0)
(1.01193 -0.00194799 0)
(1.03013 -0.00180399 0)
(1.04754 -0.0016494 0)
(1.06423 -0.00148552 0)
(1.08023 -0.00131373 0)
(1.09562 -0.00113545 0)
(1.11042 -0.000952149 0)
(1.12468 -0.000765384 0)
(1.13843 -0.00057678 0)
(1.1517 -0.000388057 0)
(1.16452 -0.00020102 0)
(1.1769 -1.75083e-05 0)
(1.18888 0.000160925 0)
(1.20047 0.000333849 0)
(1.21168 0.000503486 0)
(1.22253 0.000676069 0)
(1.23303 0.000860597 0)
(1.2432 0.0010647 0)
(1.25305 0.00129175 0)
(1.26258 0.00154173 0)
(1.2718 0.00181329 0)
(1.28073 0.00210479 0)
(1.28936 0.0024146 0)
(1.2977 0.00274114 0)
(1.30576 0.00308288 0)
(1.31353 0.00343825 0)
(1.32101 0.00380569 0)
(1.3282 0.00418357 0)
(1.33511 0.0045702 0)
(1.34173 0.0049638 0)
(1.34806 0.0053625 0)
(1.3541 0.0057643 0)
(1.35985 0.00616706 0)
(1.3653 0.00656847 0)
(1.37045 0.00696599 0)
(1.37531 0.00735685 0)
(1.37991 0.00774162 0)
(1.3843 0.00811931 0)
(1.38847 0.00848286 0)
(1.39239 0.00882211 0)
(1.39608 0.00912369 0)
(1.39952 0.00937262 0)
(1.40273 0.00955583 0)
(1.4057 0.00966612 0)
(1.40845 0.00970465 0)
(1.411 0.0096803 0)
(1.41336 0.00960678 0)
(1.41555 0.0094991 0)
(1.41759 0.00937094 0)
(1.41947 0.00923337 0)
(1.42123 0.00909465 0)
(1.42285 0.00896057 0)
(1.42436 0.00883493 0)
(1.42576 0.00872007 0)
(1.42706 0.0086172 0)
(1.42825 0.00852674 0)
(1.42936 0.00844847 0)
(1.43037 0.00838173 0)
(1.4313 0.00832552 0)
(1.43216 0.0082786 0)
(1.43294 0.00823953 0)
(1.43366 0.00820683 0)
(1.43431 0.00817897 0)
(1.43491 0.00815448 0)
(1.43545 0.00813165 0)
(1.43593 0.0081097 0)
(1.43637 0.00808529 0)
(1.43675 0.00806006 0)
(1.43707 0.00802544 0)
(1.43734 0.00798875 0)
(1.43754 0.00792463 0)
(1.43774 0.00779542 0)
(1.47 0.00309449 0)
(1.47005 0.00668881 0)
(1.46881 0.00449828 0)
(1.46727 0.00471779 0)
(1.46574 0.0039572 0)
(1.46415 0.00331198 0)
(1.46249 0.00257867 0)
(1.46078 0.00200492 0)
(1.45902 0.00153322 0)
(1.45717 0.00178873 0)
(1.4553 0.00296075 0)
(1.45345 0.000604422 0)
(1.45117 0.0150389 0)
(1.44889 -0.01135 0)
(1.44656 -0.0390949 0)
(1.44446 -0.0396107 0)
(1.44257 -0.0395879 0)
(1.44066 -0.0395898 0)
(1.43878 -0.0395905 0)
(1.43694 -0.0395908 0)
(1.43514 -0.0395908 0)
(1.43341 -0.0395904 0)
(1.43175 -0.0395895 0)
(1.43018 -0.0395882 0)
(1.42872 -0.0395863 0)
(1.4274 -0.0395839 0)
(1.42622 -0.0395808 0)
(1.42523 -0.039577 0)
(1.42443 -0.0395725 0)
(1.42384 -0.039567 0)
(1.42348 -0.0395597 0)
(1.42334 -0.0395495 0)
(1.42332 -0.0395413 0)
(1.42332 -0.0395389 0)
(1.42332 -0.0395388 0)
(1.42332 -0.0395388 0)
(1.42332 -0.0395388 0)
(1.42332 -0.0395388 0)
(1.42332 -0.0395388 0)
(1.42332 -0.0395388 0)
(1.42332 -0.0395388 0)
(1.42332 -0.0395388 0)
(1.42332 -0.0395388 0)
(1.42332 -0.0395388 0)
(1.42332 -0.0395388 0)
(1.42332 -0.0395388 0)
(1.42332 -0.0395388 0)
(1.42332 -0.0395388 0)
(1.42332 -0.0395388 0)
(1.42332 -0.0395388 0)
(1.42332 -0.0395388 0)
(1.42332 -0.0395388 0)
(1.42332 -0.0395388 0)
(1.42332 -0.0395388 0)
(1.42332 -0.0395388 0)
(1.42332 -0.0395388 0)
(1.42332 -0.0395388 0)
(1.42332 -0.0395388 0)
(1.42332 -0.0395388 0)
(1.42332 -0.0395388 0)
(1.42332 -0.0395388 0)
(1.42332 -0.0395388 0)
(1.42332 -0.0395388 0)
(1.42332 -0.0395388 0)
(1.42332 -0.0395388 0)
(1.42332 -0.0395388 0)
(1.42332 -0.0395388 0)
(1.42332 -0.0395388 0)
(1.42332 -0.0395388 0)
(1.42332 -0.0395388 0)
(1.42332 -0.0395388 0)
(1.42332 -0.0395388 0)
(1.42332 -0.0395388 0)
(1.42332 -0.0395388 0)
(1.42332 -0.0395388 0)
(1.42332 -0.0395388 0)
(1.42332 -0.0395388 0)
(1.42332 -0.0395388 0)
(1.42332 -0.0395388 0)
(1.42332 -0.0395388 0)
(1.42332 -0.0395388 0)
(1.42332 -0.0395388 0)
(1.42332 -0.0395388 0)
(1.42332 -0.0395388 0)
(1.42332 -0.0395388 0)
(1.42332 -0.0395388 0)
(1.42332 -0.0395388 0)
(1.42332 -0.0395388 0)
(1.42332 -0.0395388 0)
(1.42332 -0.0395388 0)
(1.42332 -0.0395388 0)
(1.42332 -0.0395388 0)
(1.42332 -0.0395388 0)
(1.42332 -0.0395388 0)
(1.42332 -0.0395388 0)
(1.42332 -0.0395388 0)
(1.42332 -0.0395388 0)
(1.42332 -0.0395388 0)
(1.42332 -0.0395388 0)
(1.42332 -0.0395388 0)
(1.42332 -0.0395388 0)
(1.42332 -0.0395388 0)
(1.42332 -0.0395388 0)
(1.42332 -0.0395388 0)
(1.42332 -0.0395388 0)
(1.42332 -0.0395388 0)
(1.42332 -0.0395388 0)
(1.42332 -0.0395388 0)
(1.42332 -0.0395388 0)
(1.42332 -0.0395388 0)
(1.42332 -0.0395388 0)
(1.42332 -0.0395388 0)
(1.42332 -0.0395388 0)
(1.42332 -0.0395388 0)
(1.42332 -0.0395388 0)
(1.42332 -0.0395388 0)
(1.42332 -0.0395388 0)
(1.42332 -0.0395388 0)
(1.42332 -0.0395388 0)
(1.42332 -0.0395386 0)
(1.42332 -0.0395301 0)
(1.42333 -0.0391853 0)
(1.42365 -0.0224781 0)
)
;

boundaryField
{
    inandouthalf11
    {
        type            cyclic;
    }
    inandouthalf12
    {
        type            cyclic;
    }
    inandouthalf21
    {
        type            cyclic;
    }
    inandouthalf22
    {
        type            cyclic;
    }
    inandouthalf31
    {
        type            cyclic;
    }
    inandouthalf32
    {
        type            cyclic;
    }
    inandouthalf41
    {
        type            cyclic;
    }
    inandouthalf42
    {
        type            cyclic;
    }
    top
    {
        type            symmetryPlane;
    }
    walls
    {
        type            fixedValue;
        value           uniform (0 0 0);
    }
    frontAndBackPlanes
    {
        type            empty;
    }
}


// ************************************************************************* //
