/*--------------------------------*- C++ -*----------------------------------*\
| =========                 |                                                 |
| \\      /  F ield         | OpenFOAM: The Open Source CFD Toolbox           |
|  \\    /   O peration     | Version:  2.4.x                                 |
|   \\  /    A nd           | Web:      www.OpenFOAM.org                      |
|    \\/     M anipulation  |                                                 |
\*---------------------------------------------------------------------------*/
FoamFile
{
    version     2.0;
    format      ascii;
    class       volVectorField;
    location    "9.4";
    object      Ub;
}
// * * * * * * * * * * * * * * * * * * * * * * * * * * * * * * * * * * * * * //

dimensions      [0 1 -1 0 0 0 0];

internalField   nonuniform List<vector> 
360
(
(-0.000106949 9.95348e-09 0)
(-0.000106356 3.52572e-08 0)
(-0.000106269 6.46275e-08 0)
(-0.000106344 9.18328e-08 0)
(-0.000106378 1.18691e-07 0)
(-0.000106385 1.46213e-07 0)
(-0.000106396 1.74221e-07 0)
(-0.000106411 2.02522e-07 0)
(-0.000106426 2.31156e-07 0)
(-0.000106442 2.60239e-07 0)
(-0.000106457 2.89871e-07 0)
(-0.000106473 3.20108e-07 0)
(-0.000106488 3.50983e-07 0)
(-0.000106504 3.82517e-07 0)
(-0.00010652 4.14726e-07 0)
(-0.000106535 4.47624e-07 0)
(-0.000106551 4.8122e-07 0)
(-0.000106567 5.15518e-07 0)
(-0.000106583 5.50512e-07 0)
(-0.000106599 5.86199e-07 0)
(-0.000106615 6.22566e-07 0)
(-0.000106631 6.59599e-07 0)
(-0.000106647 6.97288e-07 0)
(-0.000106664 7.35616e-07 0)
(-0.00010668 7.74567e-07 0)
(-0.000106696 8.1412e-07 0)
(-0.000106713 8.54252e-07 0)
(-0.000106729 8.94945e-07 0)
(-0.000106746 9.36177e-07 0)
(-0.000106763 9.77921e-07 0)
(-0.000106779 1.02015e-06 0)
(-0.000106797 1.06284e-06 0)
(-0.000106813 1.10596e-06 0)
(-0.000106831 1.14948e-06 0)
(-0.000106848 1.19337e-06 0)
(-0.000106866 1.23761e-06 0)
(-0.000106883 1.28214e-06 0)
(-0.000106901 1.32695e-06 0)
(-0.000106919 1.37201e-06 0)
(-0.000106937 1.41726e-06 0)
(-0.000106956 1.46268e-06 0)
(-0.000106974 1.50823e-06 0)
(-0.000106993 1.55387e-06 0)
(-0.000107012 1.59957e-06 0)
(-0.000107031 1.64529e-06 0)
(-0.000107051 1.691e-06 0)
(-0.000107071 1.73665e-06 0)
(-0.000107091 1.7822e-06 0)
(-0.000107111 1.82761e-06 0)
(-0.000107132 1.87286e-06 0)
(-0.000107153 1.91791e-06 0)
(-0.000107174 1.96272e-06 0)
(-0.000107196 2.00727e-06 0)
(-0.000107218 2.05151e-06 0)
(-0.00010724 2.09541e-06 0)
(-0.000107263 2.13897e-06 0)
(-0.000107287 2.18212e-06 0)
(-0.00010731 2.22487e-06 0)
(-0.000107335 2.26718e-06 0)
(-0.000107359 2.309e-06 0)
(-0.000107384 2.35035e-06 0)
(-0.00010741 2.39119e-06 0)
(-0.000107436 2.43153e-06 0)
(-0.000107463 2.47133e-06 0)
(-0.00010749 2.5106e-06 0)
(-0.000107518 2.5493e-06 0)
(-0.000107546 2.58744e-06 0)
(-0.000107575 2.62501e-06 0)
(-0.000107605 2.66199e-06 0)
(-0.000107635 2.69837e-06 0)
(-0.000107666 2.73416e-06 0)
(-0.000107697 2.76937e-06 0)
(-0.000107729 2.80398e-06 0)
(-0.000107762 2.838e-06 0)
(-0.000107796 2.87143e-06 0)
(-0.00010783 2.90428e-06 0)
(-0.000107865 2.93654e-06 0)
(-0.000107901 2.96822e-06 0)
(-0.000107938 2.99931e-06 0)
(-0.000107975 3.02983e-06 0)
(-0.000108013 3.05975e-06 0)
(-0.000108053 3.08911e-06 0)
(-0.000108093 3.11789e-06 0)
(-0.000108133 3.14612e-06 0)
(-0.000108175 3.1738e-06 0)
(-0.000108218 3.20093e-06 0)
(-0.000108262 3.22753e-06 0)
(-0.000108307 3.25358e-06 0)
(-0.000108352 3.2791e-06 0)
(-0.000108399 3.30409e-06 0)
(-0.000108447 3.32854e-06 0)
(-0.000108496 3.35246e-06 0)
(-0.000108546 3.37585e-06 0)
(-0.000108598 3.39872e-06 0)
(-0.00010865 3.42108e-06 0)
(-0.000108704 3.44292e-06 0)
(-0.00010876 3.46427e-06 0)
(-0.000108816 3.48511e-06 0)
(-0.000108874 3.50545e-06 0)
(-0.000108934 3.52529e-06 0)
(-0.000108995 3.54464e-06 0)
(-0.000109058 3.56349e-06 0)
(-0.000109122 3.58185e-06 0)
(-0.000109188 3.59973e-06 0)
(-0.000109256 3.61711e-06 0)
(-0.000109325 3.63402e-06 0)
(-0.000109397 3.65045e-06 0)
(-0.00010947 3.6664e-06 0)
(-0.000109546 3.68188e-06 0)
(-0.000109624 3.69689e-06 0)
(-0.000109704 3.71143e-06 0)
(-0.000109786 3.72551e-06 0)
(-0.000109871 3.73914e-06 0)
(-0.000109958 3.7523e-06 0)
(-0.000110048 3.76501e-06 0)
(-0.00011014 3.77726e-06 0)
(-0.000110236 3.78907e-06 0)
(-0.000110334 3.80042e-06 0)
(-0.000110436 3.8113e-06 0)
(-0.000110541 3.82171e-06 0)
(-0.000110649 3.83163e-06 0)
(-0.000110762 3.84102e-06 0)
(-0.000110878 3.84984e-06 0)
(-0.000110998 3.85804e-06 0)
(-0.000111123 3.86557e-06 0)
(-0.000111253 3.87239e-06 0)
(-0.000111388 3.87846e-06 0)
(-0.000111529 3.88377e-06 0)
(-0.000111676 3.88833e-06 0)
(-0.000111829 3.8922e-06 0)
(-0.00011199 3.89543e-06 0)
(-0.000112157 3.89812e-06 0)
(-0.000112332 3.9003e-06 0)
(-0.000112518 3.902e-06 0)
(-0.000112715 3.90316e-06 0)
(-0.000112925 3.90357e-06 0)
(-0.000113146 3.9029e-06 0)
(-0.000113384 3.90083e-06 0)
(-0.00011365 3.89619e-06 0)
(-0.000113956 4.05096e-06 0)
(-0.00011429 2.01207e-06 0)
(-0.000114619 1.18504e-05 0)
(-7.69491e-05 -2.77102e-05 0)
(0.0166365 0.000135055 0)
(0.117059 0.000819033 0)
(0.219751 0.000676517 0)
(0.30667 0.000675273 0)
(0.381704 0.000656609 0)
(0.447649 0.000635097 0)
(0.506422 0.000610683 0)
(0.559377 0.000582646 0)
(0.607516 0.000552598 0)
(0.651534 0.000515253 0)
(0.691959 0.000476743 0)
(0.729236 0.00043766 0)
(0.763743 0.000398571 0)
(0.795803 0.000360137 0)
(0.825694 0.000322941 0)
(0.853657 0.000287437 0)
(0.879899 0.000253957 0)
(0.904602 0.000222722 0)
(0.927921 0.000193865 0)
(0.949995 0.000167438 0)
(0.970944 0.000143432 0)
(0.990871 0.000121787 0)
(1.00987 0.000102409 0)
(1.02802 8.51797e-05 0)
(1.0454 6.99628e-05 0)
(1.06207 5.66145e-05 0)
(1.07807 4.49879e-05 0)
(1.09348 3.49368e-05 0)
(1.10832 2.63195e-05 0)
(1.12264 1.89999e-05 0)
(1.13648 1.28493e-05 0)
(1.14985 7.74647e-06 0)
(1.16281 3.57815e-06 0)
(1.17536 2.37382e-07 0)
(1.18753 -2.38058e-06 0)
(1.19935 -4.38635e-06 0)
(1.21082 -5.90654e-06 0)
(1.22198 -7.08517e-06 0)
(1.23283 -8.05794e-06 0)
(1.24338 -8.91081e-06 0)
(1.25365 -9.66902e-06 0)
(1.26365 -1.03249e-05 0)
(1.27339 -1.08663e-05 0)
(1.28288 -1.12864e-05 0)
(1.29213 -1.15841e-05 0)
(1.30114 -1.17625e-05 0)
(1.30992 -1.18275e-05 0)
(1.31848 -1.17868e-05 0)
(1.32682 -1.16495e-05 0)
(1.33494 -1.14249e-05 0)
(1.34284 -1.11232e-05 0)
(1.35054 -1.07542e-05 0)
(1.35802 -1.03278e-05 0)
(1.3653 -9.85363e-06 0)
(1.37237 -9.3407e-06 0)
(1.37922 -8.79772e-06 0)
(1.38587 -8.23278e-06 0)
(1.3923 -7.65315e-06 0)
(1.39859 -7.05898e-06 0)
(1.40477 -6.44846e-06 0)
(1.41083 -5.82406e-06 0)
(1.41676 -5.18773e-06 0)
(1.42253 -4.54369e-06 0)
(1.42813 -3.90231e-06 0)
(1.43353 -3.28187e-06 0)
(1.43871 -2.7057e-06 0)
(1.44363 -2.19539e-06 0)
(1.44828 -1.76393e-06 0)
(1.45263 -1.41298e-06 0)
(1.45664 -1.13502e-06 0)
(1.46031 -9.17871e-07 0)
(1.4636 -7.48683e-07 0)
(1.46652 -6.16219e-07 0)
(1.46906 -5.1155e-07 0)
(1.47123 -4.27901e-07 0)
(1.47304 -3.60233e-07 0)
(1.4745 -3.0482e-07 0)
(1.47566 -2.58892e-07 0)
(1.47653 -2.20391e-07 0)
(1.47715 -1.87782e-07 0)
(1.47754 -1.59917e-07 0)
(1.47772 -1.35939e-07 0)
(1.47773 -1.15209e-07 0)
(1.47758 -9.72521e-08 0)
(1.47728 -8.17031e-08 0)
(1.47685 -6.8267e-08 0)
(1.47629 -5.67223e-08 0)
(1.47563 -4.68224e-08 0)
(1.47487 -3.84194e-08 0)
(1.474 -3.13006e-08 0)
(1.47305 -2.53421e-08 0)
(1.47201 -2.0425e-08 0)
(1.47088 -1.6523e-08 0)
(1.46968 -1.20086e-08 0)
(1.4684 -8.01278e-09 0)
(1.46705 -5.87008e-09 0)
(1.46563 -3.94209e-09 0)
(1.46415 -2.51371e-09 0)
(1.46261 -1.53399e-09 0)
(1.461 -8.81534e-10 0)
(1.45935 -4.69293e-10 0)
(1.45764 -2.38454e-10 0)
(1.45589 -1.30419e-10 0)
(1.4541 -9.57272e-11 0)
(1.45228 -6.84298e-11 0)
(1.45042 -7.69159e-11 0)
(1.44853 -6.24332e-11 0)
(1.44663 -2.61578e-13 0)
(1.44471 2.44797e-12 0)
(1.44279 -3.48505e-12 0)
(1.44087 -3.89031e-12 0)
(1.43896 -3.35513e-12 0)
(1.43708 -3.13561e-12 0)
(1.43522 -3.03307e-12 0)
(1.43341 -2.90485e-12 0)
(1.43166 -2.73401e-12 0)
(1.42998 -2.57847e-12 0)
(1.42838 -2.81826e-12 0)
(1.4269 -4.32374e-12 0)
(1.42555 9.74139e-12 0)
(1.42434 -3.5293e-11 0)
(1.4233 6.63125e-11 0)
(1.42246 -1.20113e-10 0)
(1.42183 1.81195e-10 0)
(1.42143 -2.62465e-10 0)
(1.42125 3.4697e-10 0)
(1.42122 -4.44389e-10 0)
(1.42122 5.39075e-10 0)
(1.42122 -6.42032e-10 0)
(1.42122 7.41277e-10 0)
(1.42122 -8.4822e-10 0)
(1.42122 9.52047e-10 0)
(1.42122 -1.06337e-09 0)
(1.42122 1.17216e-09 0)
(1.42122 -1.2882e-09 0)
(1.42122 1.40227e-09 0)
(1.42122 -1.52333e-09 0)
(1.42122 1.64298e-09 0)
(1.42122 -1.76932e-09 0)
(1.42122 1.89476e-09 0)
(1.42122 -2.02664e-09 0)
(1.42122 2.15809e-09 0)
(1.42122 -2.29568e-09 0)
(1.42122 2.43333e-09 0)
(1.42122 -2.57674e-09 0)
(1.42122 2.72077e-09 0)
(1.42122 -2.87016e-09 0)
(1.42122 3.02067e-09 0)
(1.42122 -3.17613e-09 0)
(1.42122 3.33321e-09 0)
(1.42122 -3.49482e-09 0)
(1.42122 3.65854e-09 0)
(1.42122 -3.82634e-09 0)
(1.42122 3.99671e-09 0)
(1.42122 -4.1708e-09 0)
(1.42122 4.34771e-09 0)
(1.42122 -4.52819e-09 0)
(1.42122 4.71158e-09 0)
(1.42122 -4.89843e-09 0)
(1.42122 5.08821e-09 0)
(1.42122 -5.28135e-09 0)
(1.42122 5.47742e-09 0)
(1.42122 -5.67671e-09 0)
(1.42122 5.87891e-09 0)
(1.42122 -6.08419e-09 0)
(1.42122 6.29228e-09 0)
(1.42122 -6.50331e-09 0)
(1.42122 5.8979e-09 0)
(1.42122 -5.97799e-09 0)
(1.42122 6.05711e-09 0)
(1.42122 -6.13539e-09 0)
(1.42122 6.2127e-09 0)
(1.42122 -6.28916e-09 0)
(1.42122 6.36464e-09 0)
(1.42122 -6.43925e-09 0)
(1.42122 6.51286e-09 0)
(1.42122 -6.5856e-09 0)
(1.42122 6.6573e-09 0)
(1.42122 -6.72813e-09 0)
(1.42122 6.79789e-09 0)
(1.42122 -6.86678e-09 0)
(1.42122 6.93456e-09 0)
(1.42122 -7.00146e-09 0)
(1.42122 7.0672e-09 0)
(1.42122 -7.1321e-09 0)
(1.42122 7.1957e-09 0)
(1.42122 -7.25863e-09 0)
(1.42122 7.31994e-09 0)
(1.42122 -7.38092e-09 0)
(1.42122 7.43985e-09 0)
(1.42122 -7.49881e-09 0)
(1.42122 7.5553e-09 0)
(1.42122 -7.61211e-09 0)
(1.42122 7.66614e-09 0)
(1.42122 -7.72071e-09 0)
(1.42122 7.77214e-09 0)
(1.42122 -7.82433e-09 0)
(1.42122 7.87318e-09 0)
(1.42122 -7.92275e-09 0)
(1.42122 7.96897e-09 0)
(1.42122 -8.01563e-09 0)
(1.42122 8.05921e-09 0)
(1.42122 -8.1028e-09 0)
(1.42122 8.14347e-09 0)
(1.42122 -8.18371e-09 0)
(1.42122 8.22148e-09 0)
(1.42122 -8.25787e-09 0)
(1.42122 8.29262e-09 0)
(1.42122 -8.32465e-09 0)
(1.42122 8.35627e-09 0)
(1.42122 -8.38314e-09 0)
(1.42122 8.4113e-09 0)
(1.42122 -8.43234e-09 0)
(1.42122 8.45568e-09 0)
(1.42122 -8.46975e-09 0)
(1.42122 8.48527e-09 0)
(1.42122 -8.49094e-09 0)
)
;

boundaryField
{
    inandouthalf11
    {
        type            cyclic;
    }
    inandouthalf12
    {
        type            cyclic;
    }
    inandouthalf21
    {
        type            cyclic;
    }
    inandouthalf22
    {
        type            cyclic;
    }
    inandouthalf31
    {
        type            cyclic;
    }
    inandouthalf32
    {
        type            cyclic;
    }
    inandouthalf41
    {
        type            cyclic;
    }
    inandouthalf42
    {
        type            cyclic;
    }
    top
    {
        type            symmetryPlane;
    }
    walls
    {
        type            fixedValue;
        value           uniform (0 0 0);
    }
    frontAndBackPlanes
    {
        type            empty;
    }
}


// ************************************************************************* //
