/*--------------------------------*- C++ -*----------------------------------*\
| =========                 |                                                 |
| \\      /  F ield         | OpenFOAM: The Open Source CFD Toolbox           |
|  \\    /   O peration     | Version:  2.4.x                                 |
|   \\  /    A nd           | Web:      www.OpenFOAM.org                      |
|    \\/     M anipulation  |                                                 |
\*---------------------------------------------------------------------------*/
FoamFile
{
    version     2.0;
    format      ascii;
    class       volVectorField;
    location    "9.4";
    object      Ur;
}
// * * * * * * * * * * * * * * * * * * * * * * * * * * * * * * * * * * * * * //

dimensions      [0 1 -1 0 0 0 0];

internalField   nonuniform List<vector> 
360
(
(-0.000106949 9.95348e-09 0)
(-0.00010636 5.89525e-08 0)
(-0.000106278 1.06789e-07 0)
(-0.000106357 1.50071e-07 0)
(-0.000106395 1.93805e-07 0)
(-0.000106407 2.38961e-07 0)
(-0.000106422 2.84805e-07 0)
(-0.000106441 3.31063e-07 0)
(-0.000106461 3.77868e-07 0)
(-0.000106482 4.2542e-07 0)
(-0.000106502 4.73878e-07 0)
(-0.000106523 5.23334e-07 0)
(-0.000106544 5.7384e-07 0)
(-0.000106564 6.25427e-07 0)
(-0.000106586 6.78122e-07 0)
(-0.000106607 7.31949e-07 0)
(-0.000106629 7.86925e-07 0)
(-0.000106651 8.43053e-07 0)
(-0.000106673 9.00326e-07 0)
(-0.000106695 9.58737e-07 0)
(-0.000106718 1.01827e-06 0)
(-0.000106741 1.07889e-06 0)
(-0.000106764 1.14059e-06 0)
(-0.000106787 1.20335e-06 0)
(-0.000106811 1.26713e-06 0)
(-0.000106835 1.3319e-06 0)
(-0.000106859 1.39763e-06 0)
(-0.000106883 1.46428e-06 0)
(-0.000106908 1.53182e-06 0)
(-0.000106933 1.6002e-06 0)
(-0.000106958 1.66938e-06 0)
(-0.000106984 1.73933e-06 0)
(-0.000107009 1.80998e-06 0)
(-0.000107036 1.88131e-06 0)
(-0.000107062 1.95325e-06 0)
(-0.000107088 2.02575e-06 0)
(-0.000107115 2.09876e-06 0)
(-0.000107142 2.17222e-06 0)
(-0.00010717 2.24609e-06 0)
(-0.000107198 2.3203e-06 0)
(-0.000107226 2.39479e-06 0)
(-0.000107254 2.46951e-06 0)
(-0.000107283 2.54438e-06 0)
(-0.000107312 2.61935e-06 0)
(-0.000107341 2.69437e-06 0)
(-0.000107371 2.76937e-06 0)
(-0.000107401 2.8443e-06 0)
(-0.000107431 2.91907e-06 0)
(-0.000107462 2.99361e-06 0)
(-0.000107493 3.06792e-06 0)
(-0.000107525 3.1419e-06 0)
(-0.000107557 3.2155e-06 0)
(-0.000107589 3.28867e-06 0)
(-0.000107621 3.36136e-06 0)
(-0.000107654 3.4335e-06 0)
(-0.000107688 3.50508e-06 0)
(-0.000107721 3.57603e-06 0)
(-0.000107756 3.64631e-06 0)
(-0.000107791 3.71588e-06 0)
(-0.000107825 3.78467e-06 0)
(-0.000107861 3.85269e-06 0)
(-0.000107897 3.9199e-06 0)
(-0.000107934 3.98628e-06 0)
(-0.000107971 4.05181e-06 0)
(-0.000108008 4.11647e-06 0)
(-0.000108046 4.18022e-06 0)
(-0.000108084 4.24305e-06 0)
(-0.000108124 4.30496e-06 0)
(-0.000108163 4.36592e-06 0)
(-0.000108203 4.42591e-06 0)
(-0.000108244 4.48494e-06 0)
(-0.000108285 4.54303e-06 0)
(-0.000108327 4.60015e-06 0)
(-0.000108369 4.65631e-06 0)
(-0.000108412 4.71153e-06 0)
(-0.000108456 4.76581e-06 0)
(-0.000108501 4.81914e-06 0)
(-0.000108546 4.87152e-06 0)
(-0.000108592 4.92296e-06 0)
(-0.000108638 4.97345e-06 0)
(-0.000108685 5.023e-06 0)
(-0.000108733 5.07163e-06 0)
(-0.000108782 5.11934e-06 0)
(-0.000108832 5.16614e-06 0)
(-0.000108883 5.21207e-06 0)
(-0.000108934 5.25711e-06 0)
(-0.000108986 5.30129e-06 0)
(-0.00010904 5.3446e-06 0)
(-0.000109094 5.38704e-06 0)
(-0.000109149 5.42862e-06 0)
(-0.000109205 5.46934e-06 0)
(-0.000109262 5.50921e-06 0)
(-0.000109321 5.54823e-06 0)
(-0.00010938 5.58641e-06 0)
(-0.000109441 5.62377e-06 0)
(-0.000109503 5.66031e-06 0)
(-0.000109566 5.69604e-06 0)
(-0.00010963 5.73097e-06 0)
(-0.000109696 5.7651e-06 0)
(-0.000109763 5.79843e-06 0)
(-0.000109832 5.83096e-06 0)
(-0.000109902 5.86271e-06 0)
(-0.000109973 5.89367e-06 0)
(-0.000110047 5.92385e-06 0)
(-0.000110122 5.95326e-06 0)
(-0.000110199 5.98191e-06 0)
(-0.000110277 6.00979e-06 0)
(-0.000110358 6.03692e-06 0)
(-0.00011044 6.0633e-06 0)
(-0.000110525 6.08893e-06 0)
(-0.000110612 6.11383e-06 0)
(-0.000110701 6.138e-06 0)
(-0.000110793 6.16144e-06 0)
(-0.000110887 6.18417e-06 0)
(-0.000110983 6.20617e-06 0)
(-0.000111082 6.22747e-06 0)
(-0.000111184 6.24807e-06 0)
(-0.00011129 6.26795e-06 0)
(-0.000111398 6.28711e-06 0)
(-0.000111509 6.30553e-06 0)
(-0.000111624 6.32318e-06 0)
(-0.000111743 6.34001e-06 0)
(-0.000111866 6.35595e-06 0)
(-0.000111993 6.37093e-06 0)
(-0.000112124 6.38486e-06 0)
(-0.00011226 6.39766e-06 0)
(-0.000112401 6.40928e-06 0)
(-0.000112547 6.4197e-06 0)
(-0.000112699 6.42895e-06 0)
(-0.000112858 6.43713e-06 0)
(-0.000113024 6.44434e-06 0)
(-0.000113196 6.45072e-06 0)
(-0.000113377 6.45639e-06 0)
(-0.000113568 6.46138e-06 0)
(-0.000113771 6.46561e-06 0)
(-0.000113986 6.46876e-06 0)
(-0.000114213 6.47028e-06 0)
(-0.000114455 6.46966e-06 0)
(-0.000114723 6.46572e-06 0)
(-0.00011503 6.62071e-06 0)
(-0.000115365 4.5818e-06 0)
(-0.000115694 1.44199e-05 0)
(-7.80242e-05 -2.51409e-05 0)
(0.00157817 0.000233506 0)
(0.00658564 0.00201059 0)
(0.00583038 0.0022044 0)
(0.00436829 0.00241679 0)
(0.00333279 0.00255273 0)
(0.00259175 0.00266604 0)
(0.00202578 0.00276009 0)
(0.00157425 0.00282915 0)
(0.00119796 0.00291702 0)
(0.00079201 0.00294042 0)
(0.000407022 0.00296576 0)
(5.63477e-05 0.00297728 0)
(-0.000260091 0.00297169 0)
(-0.000544361 0.00294865 0)
(-0.000798568 0.00290867 0)
(-0.00102461 0.00285222 0)
(-0.00122423 0.00277984 0)
(-0.00139907 0.00269213 0)
(-0.0015506 0.00258985 0)
(-0.00168014 0.00247383 0)
(-0.00178884 0.00234497 0)
(-0.00187768 0.00220428 0)
(-0.00194742 0.00205277 0)
(-0.00199861 0.00189155 0)
(-0.00203155 0.00172174 0)
(-0.00204626 0.00154451 0)
(-0.00204254 0.00136108 0)
(-0.00201984 0.00117273 0)
(-0.00197735 0.000980794 0)
(-0.00191388 0.000786684 0)
(-0.00182796 0.000591901 0)
(-0.00171775 0.00039804 0)
(-0.00158114 0.000206798 0)
(-0.00141574 1.99055e-05 0)
(-0.00121903 -0.000161179 0)
(-0.000988453 -0.000336115 0)
(-0.000721631 -0.000507222 0)
(-0.000416572 -0.00068085 0)
(-7.18319e-05 -0.00086614 0)
(0.000313639 -0.00107085 0)
(0.000740995 -0.00129843 0)
(0.00121183 -0.00154887 0)
(0.00172822 -0.0018208 0)
(0.00229271 -0.00211256 0)
(0.00290825 -0.00242253 0)
(0.0035781 -0.00274913 0)
(0.00430583 -0.00309082 0)
(0.00509518 -0.00344606 0)
(0.00594999 -0.00381327 0)
(0.00687417 -0.00419084 0)
(0.00787149 -0.0045771 0)
(0.00894555 -0.00497026 0)
(0.0100996 -0.00536849 0)
(0.0113362 -0.00576978 0)
(0.0126576 -0.006172 0)
(0.0140648 -0.00657285 0)
(0.0155578 -0.00696982 0)
(0.0171353 -0.00736012 0)
(0.0188113 -0.00774435 0)
(0.0206008 -0.0081215 0)
(0.0224993 -0.00848455 0)
(0.0244986 -0.00882335 0)
(0.0265852 -0.00912455 0)
(0.0287396 -0.00937317 0)
(0.0309351 -0.00955613 0)
(0.0331384 -0.00966625 0)
(0.0353104 -0.00970465 0)
(0.0374085 -0.0096802 0)
(0.0393899 -0.00960658 0)
(0.0412138 -0.00949881 0)
(0.0428445 -0.00937055 0)
(0.0442529 -0.00923289 0)
(0.0454184 -0.00909407 0)
(0.0463298 -0.0089599 0)
(0.0469854 -0.00883418 0)
(0.0473926 -0.00871923 0)
(0.0475662 -0.00861629 0)
(0.0475259 -0.00852576 0)
(0.0472947 -0.00844742 0)
(0.046896 -0.00838062 0)
(0.046352 -0.00832436 0)
(0.0456827 -0.00827739 0)
(0.0449054 -0.00823829 0)
(0.0440344 -0.00820556 0)
(0.0430812 -0.00817767 0)
(0.0420553 -0.00815315 0)
(0.0409645 -0.0081303 0)
(0.039816 -0.00810833 0)
(0.038615 -0.00808392 0)
(0.0373707 -0.00805867 0)
(0.0360874 -0.00802404 0)
(0.03478 -0.00798734 0)
(0.0334552 -0.0079232 0)
(0.0320469 -0.00779396 0)
(-0.00150371 -0.00309376 0)
(-0.00289519 -0.00668851 0)
(-0.00307573 -0.00449852 0)
(-0.00302279 -0.00471922 0)
(-0.00303719 -0.00395924 0)
(-0.00304312 -0.00331349 0)
(-0.00304697 -0.00257644 0)
(-0.00303787 -0.00199302 0)
(-0.0030263 -0.00150668 0)
(-0.0029744 -0.00173654 0)
(-0.00292925 -0.00291357 0)
(-0.00293472 -0.000511165 0)
(-0.00253581 -0.0149977 0)
(-0.00216073 0.0113192 0)
(-0.00174798 0.0390873 0)
(-0.00157548 0.0396112 0)
(-0.00159651 0.0395878 0)
(-0.00160211 0.0395898 0)
(-0.00161144 0.0395904 0)
(-0.00162304 0.0395908 0)
(-0.00163723 0.0395908 0)
(-0.0016542 0.0395904 0)
(-0.00167416 0.0395895 0)
(-0.00169734 0.0395882 0)
(-0.00172397 0.0395863 0)
(-0.0017542 0.0395839 0)
(-0.00178812 0.0395808 0)
(-0.00182557 0.039577 0)
(-0.00186574 0.0395725 0)
(-0.00190284 0.039567 0)
(-0.00194993 0.0395597 0)
(-0.00198837 0.0395495 0)
(-0.00199638 0.0395413 0)
(-0.00199674 0.0395389 0)
(-0.00199674 0.0395388 0)
(-0.00199674 0.0395388 0)
(-0.00199674 0.0395388 0)
(-0.00199674 0.0395388 0)
(-0.00199674 0.0395388 0)
(-0.00199674 0.0395388 0)
(-0.00199674 0.0395388 0)
(-0.00199674 0.0395388 0)
(-0.00199674 0.0395388 0)
(-0.00199674 0.0395388 0)
(-0.00199674 0.0395388 0)
(-0.00199674 0.0395388 0)
(-0.00199674 0.0395388 0)
(-0.00199674 0.0395388 0)
(-0.00199674 0.0395388 0)
(-0.00199674 0.0395388 0)
(-0.00199674 0.0395388 0)
(-0.00199674 0.0395388 0)
(-0.00199674 0.0395388 0)
(-0.00199674 0.0395388 0)
(-0.00199674 0.0395388 0)
(-0.00199674 0.0395388 0)
(-0.00199674 0.0395388 0)
(-0.00199674 0.0395388 0)
(-0.00199674 0.0395388 0)
(-0.00199674 0.0395388 0)
(-0.00199674 0.0395388 0)
(-0.00199674 0.0395388 0)
(-0.00199674 0.0395388 0)
(-0.00199674 0.0395388 0)
(-0.00199674 0.0395388 0)
(-0.00199674 0.0395388 0)
(-0.00199674 0.0395388 0)
(-0.00199674 0.0395388 0)
(-0.00199674 0.0395388 0)
(-0.00199674 0.0395388 0)
(-0.00199674 0.0395388 0)
(-0.00199674 0.0395388 0)
(-0.00199674 0.0395388 0)
(-0.00199674 0.0395388 0)
(-0.00199674 0.0395388 0)
(-0.00199674 0.0395388 0)
(-0.00199674 0.0395388 0)
(-0.00199674 0.0395388 0)
(-0.00199674 0.0395388 0)
(-0.00199674 0.0395388 0)
(-0.00199674 0.0395388 0)
(-0.00199674 0.0395388 0)
(-0.00199674 0.0395388 0)
(-0.00199674 0.0395388 0)
(-0.00199674 0.0395388 0)
(-0.00199674 0.0395388 0)
(-0.00199674 0.0395388 0)
(-0.00199674 0.0395388 0)
(-0.00199674 0.0395388 0)
(-0.00199674 0.0395388 0)
(-0.00199674 0.0395388 0)
(-0.00199674 0.0395388 0)
(-0.00199674 0.0395388 0)
(-0.00199674 0.0395388 0)
(-0.00199674 0.0395388 0)
(-0.00199674 0.0395388 0)
(-0.00199674 0.0395388 0)
(-0.00199674 0.0395388 0)
(-0.00199674 0.0395388 0)
(-0.00199674 0.0395388 0)
(-0.00199674 0.0395388 0)
(-0.00199674 0.0395388 0)
(-0.00199674 0.0395388 0)
(-0.00199674 0.0395388 0)
(-0.00199674 0.0395388 0)
(-0.00199674 0.0395388 0)
(-0.00199674 0.0395388 0)
(-0.00199674 0.0395388 0)
(-0.00199674 0.0395388 0)
(-0.00199674 0.0395388 0)
(-0.00199674 0.0395388 0)
(-0.00199674 0.0395388 0)
(-0.00199674 0.0395388 0)
(-0.00199674 0.0395388 0)
(-0.00199674 0.0395388 0)
(-0.00199674 0.0395388 0)
(-0.00199674 0.0395388 0)
(-0.00199674 0.0395388 0)
(-0.00199675 0.0395388 0)
(-0.00199677 0.0395386 0)
(-0.00199731 0.0395301 0)
(-0.0020107 0.0391853 0)
(-0.00232469 0.0224781 0)
)
;

boundaryField
{
    inandouthalf11
    {
        type            cyclic;
    }
    inandouthalf12
    {
        type            cyclic;
    }
    inandouthalf21
    {
        type            cyclic;
    }
    inandouthalf22
    {
        type            cyclic;
    }
    inandouthalf31
    {
        type            cyclic;
    }
    inandouthalf32
    {
        type            cyclic;
    }
    inandouthalf41
    {
        type            cyclic;
    }
    inandouthalf42
    {
        type            cyclic;
    }
    top
    {
        type            symmetryPlane;
    }
    walls
    {
        type            calculated;
        value           uniform (0 0 0);
    }
    frontAndBackPlanes
    {
        type            empty;
    }
}


// ************************************************************************* //
