/*--------------------------------*- C++ -*----------------------------------*\
| =========                 |                                                 |
| \\      /  F ield         | OpenFOAM: The Open Source CFD Toolbox           |
|  \\    /   O peration     | Version:  2.4.x                                 |
|   \\  /    A nd           | Web:      www.OpenFOAM.org                      |
|    \\/     M anipulation  |                                                 |
\*---------------------------------------------------------------------------*/
FoamFile
{
    version     2.0;
    format      ascii;
    class       surfaceScalarField;
    location    "3.15";
    object      ddt0(phia);
}
// * * * * * * * * * * * * * * * * * * * * * * * * * * * * * * * * * * * * * //

dimensions      [0 3 -2 0 0 0 0];

internalField   nonuniform List<scalar> 
359
(
-3.09866e-13
1.07611e-13
1.48894e-12
2.64693e-12
3.09094e-12
3.00763e-12
2.79603e-12
2.87718e-12
3.62153e-12
5.33322e-12
8.26498e-12
1.25689e-11
1.80511e-11
2.36239e-11
2.687e-11
2.48458e-11
1.67404e-11
5.67847e-12
-3.76531e-12
-9.492e-12
-1.21892e-11
-1.3272e-11
-1.36599e-11
-1.37634e-11
-1.37379e-11
-1.36406e-11
-1.34972e-11
-1.33262e-11
-1.31457e-11
-1.29719e-11
-1.28146e-11
-1.26764e-11
-1.25544e-11
-1.24425e-11
-1.23352e-11
-1.22281e-11
-1.21184e-11
-1.20048e-11
-1.18871e-11
-1.17659e-11
-1.16419e-11
-1.15159e-11
-1.13885e-11
-1.12601e-11
-1.11308e-11
-1.10005e-11
-1.08689e-11
-1.07358e-11
-1.06004e-11
-1.04621e-11
-1.03206e-11
-1.01752e-11
-1.00257e-11
-9.8715e-12
-9.71228e-12
-9.54738e-12
-9.37657e-12
-9.19939e-12
-9.01573e-12
-8.82569e-12
-8.62922e-12
-8.42697e-12
-8.21943e-12
-8.00748e-12
-7.79167e-12
-7.57228e-12
-7.34893e-12
-7.12075e-12
-6.88642e-12
-6.64435e-12
-6.39254e-12
-6.12927e-12
-5.85363e-12
-5.56481e-12
-5.26308e-12
-4.94919e-12
-4.62477e-12
-4.29143e-12
-3.95059e-12
-3.6032e-12
-3.24972e-12
-2.88986e-12
-2.52293e-12
-2.14808e-12
-1.76448e-12
-1.37162e-12
-9.69385e-13
-5.58153e-13
-1.38639e-13
2.88278e-13
7.21702e-13
1.16088e-12
1.60532e-12
2.05477e-12
2.50916e-12
2.96856e-12
3.4331e-12
3.90291e-12
4.3781e-12
4.85878e-12
5.345e-12
5.83683e-12
6.33431e-12
6.83741e-12
7.34607e-12
7.86012e-12
8.37927e-12
8.90311e-12
9.43107e-12
9.96244e-12
1.04964e-11
1.10319e-11
1.15681e-11
1.21038e-11
1.26382e-11
1.31708e-11
1.37013e-11
1.42302e-11
1.47587e-11
1.52892e-11
1.58256e-11
1.63731e-11
1.69392e-11
1.75335e-11
1.81687e-11
1.88602e-11
1.96266e-11
2.04893e-11
2.14708e-11
2.25923e-11
2.38697e-11
2.531e-11
2.69098e-11
2.86541e-11
3.05117e-11
3.24255e-11
3.43132e-11
3.60874e-11
3.7667e-11
3.89579e-11
3.9852e-11
4.03252e-11
4.05175e-11
4.05745e-11
4.05862e-11
4.05989e-11
5.61122e-11
7.87905e-11
1.22092e-10
5.27789e-09
5.81816e-08
1.49715e-07
2.03944e-07
2.12059e-07
2.01203e-07
1.76166e-07
1.54078e-07
1.33381e-07
1.14558e-07
9.7725e-08
8.26066e-08
6.89903e-08
5.6685e-08
4.5522e-08
3.53559e-08
2.60606e-08
1.75273e-08
9.66141e-09
2.38171e-09
-4.38067e-09
-1.0682e-08
-1.65649e-08
-2.2058e-08
-2.71757e-08
-3.19218e-08
-3.62954e-08
-4.03007e-08
-4.39567e-08
-4.73052e-08
-5.04133e-08
-5.33708e-08
-5.62806e-08
-5.92472e-08
-6.23629e-08
-6.56977e-08
-6.92941e-08
-7.31676e-08
-7.7307e-08
-8.16657e-08
-8.614e-08
-9.05448e-08
-9.46077e-08
-9.80165e-08
-1.00521e-07
-1.0204e-07
-1.02696e-07
-1.02734e-07
-1.02392e-07
-1.01834e-07
-1.01154e-07
-1.00396e-07
-9.95893e-08
-9.87746e-08
-9.79449e-08
-9.70735e-08
-9.62061e-08
-9.53802e-08
-9.45443e-08
-9.36927e-08
-9.28866e-08
-9.21206e-08
-9.13717e-08
-9.0678e-08
-9.00587e-08
-8.95054e-08
-8.90531e-08
-8.87574e-08
-8.85629e-08
-8.84136e-08
-8.82857e-08
-8.81585e-08
-8.80253e-08
-8.78886e-08
-8.775e-08
-8.76191e-08
-8.74797e-08
-8.73235e-08
-8.7172e-08
-8.70109e-08
-8.68308e-08
-8.66454e-08
-8.64405e-08
-8.62079e-08
-8.59534e-08
-8.56788e-08
-8.54183e-08
-8.51635e-08
-8.44857e-08
-8.30543e-08
-8.13083e-08
-7.9874e-08
-4.01619e-08
-2.35025e-10
-2.35105e-10
-2.35103e-10
-2.3509e-10
-2.35097e-10
-2.35083e-10
-2.35092e-10
-2.35079e-10
-2.35089e-10
-2.35077e-10
-2.35086e-10
-2.35076e-10
-2.35085e-10
-2.35075e-10
-2.35083e-10
-2.35075e-10
-2.35082e-10
-2.35075e-10
-2.35081e-10
-2.35076e-10
-2.3508e-10
-2.35076e-10
-2.35079e-10
-2.35077e-10
-2.35078e-10
-2.3508e-10
-2.35075e-10
-2.35079e-10
-2.35075e-10
-2.35081e-10
-2.35074e-10
-2.35082e-10
-2.35073e-10
-2.35083e-10
-2.35071e-10
-2.35085e-10
-2.3507e-10
-2.35086e-10
-2.35068e-10
-2.35088e-10
-2.35067e-10
-2.35089e-10
-2.35065e-10
-2.35091e-10
-2.35064e-10
-2.35092e-10
-2.35062e-10
-2.35094e-10
-2.35061e-10
-2.35095e-10
-2.3506e-10
-2.35096e-10
-2.35059e-10
-2.35096e-10
-2.35059e-10
-2.35097e-10
-2.35059e-10
-2.35096e-10
-2.35059e-10
-2.35095e-10
-2.35066e-10
-2.35087e-10
-2.35067e-10
-2.35088e-10
-2.35068e-10
-2.35088e-10
-2.35068e-10
-2.35087e-10
-2.35068e-10
-2.35088e-10
-2.35068e-10
-2.35088e-10
-2.35068e-10
-2.35088e-10
-2.35068e-10
-2.35088e-10
-2.35068e-10
-2.35088e-10
-2.35069e-10
-2.35088e-10
-2.35069e-10
-2.35087e-10
-2.35069e-10
-2.35087e-10
-2.35069e-10
-2.35087e-10
-2.3507e-10
-2.35088e-10
-2.35071e-10
-2.35089e-10
-2.35072e-10
-2.35089e-10
-2.35073e-10
-2.35088e-10
-2.35074e-10
-2.35088e-10
-2.35074e-10
-2.35087e-10
-2.35074e-10
-2.35086e-10
-2.35074e-10
-2.35085e-10
-2.35073e-10
-2.35083e-10
-2.35073e-10
-2.35083e-10
-2.35075e-10
-2.35083e-10
-2.35077e-10
-2.35083e-10
-2.35082e-10
-2.3509e-10
-2.35088e-10
-2.35092e-10
-2.35216e-10
-2.37789e-10
-3.57831e-10
)
;

boundaryField
{
    inandouthalf11
    {
        type            cyclic;
        value           nonuniform List<scalar> 
100
(
4.13803e-39
4.4821e-14
2.82424e-14
-1.53335e-14
-2.72796e-14
-1.70672e-15
4.3027e-14
8.23711e-14
9.21349e-14
5.23618e-14
-5.18092e-14
-2.30166e-13
-4.80558e-13
-7.67011e-13
-9.86944e-13
-9.72503e-13
-6.01229e-13
3.55067e-14
6.63233e-13
1.08273e-12
1.29272e-12
1.38008e-12
1.41267e-12
1.4228e-12
1.42293e-12
1.41751e-12
1.40821e-12
1.39609e-12
1.38234e-12
1.36828e-12
1.35501e-12
1.34308e-12
1.33249e-12
1.32285e-12
1.31368e-12
1.30454e-12
1.2951e-12
1.28518e-12
1.2747e-12
1.26369e-12
1.25221e-12
1.24033e-12
1.22813e-12
1.21568e-12
1.20298e-12
1.19006e-12
1.17689e-12
1.16344e-12
1.14965e-12
1.13547e-12
1.12082e-12
1.10566e-12
1.08994e-12
1.07361e-12
1.05662e-12
1.03893e-12
1.02048e-12
1.00123e-12
9.81157e-13
9.60255e-13
9.38532e-13
9.16024e-13
8.92797e-13
8.68935e-13
8.44523e-13
8.19612e-13
7.94197e-13
7.68205e-13
7.41509e-13
7.13934e-13
6.85267e-13
6.55291e-13
6.23847e-13
5.9084e-13
5.56247e-13
5.20143e-13
4.82691e-13
4.44109e-13
4.04606e-13
3.64345e-13
3.23431e-13
2.81887e-13
2.39668e-13
1.9669e-13
1.5286e-13
1.08109e-13
6.24119e-14
1.57988e-14
-3.16454e-14
-7.9803e-14
-1.28544e-13
-1.77745e-13
-2.27307e-13
-2.77163e-13
-3.27271e-13
-3.77612e-13
-4.28176e-13
-4.78963e-13
-5.29969e-13
-5.81193e-13
)
;
    }
    inandouthalf12
    {
        type            cyclic;
        value           nonuniform List<scalar> 
100
(
-4.13803e-39
-4.4821e-14
-2.82424e-14
1.53335e-14
2.72796e-14
1.70672e-15
-4.3027e-14
-8.23711e-14
-9.21349e-14
-5.23618e-14
5.18092e-14
2.30166e-13
4.80558e-13
7.67011e-13
9.86944e-13
9.72503e-13
6.01229e-13
-3.55067e-14
-6.63233e-13
-1.08273e-12
-1.29272e-12
-1.38008e-12
-1.41267e-12
-1.4228e-12
-1.42293e-12
-1.41751e-12
-1.40821e-12
-1.39609e-12
-1.38234e-12
-1.36828e-12
-1.35501e-12
-1.34308e-12
-1.33249e-12
-1.32285e-12
-1.31368e-12
-1.30454e-12
-1.2951e-12
-1.28518e-12
-1.2747e-12
-1.26369e-12
-1.25221e-12
-1.24033e-12
-1.22813e-12
-1.21568e-12
-1.20298e-12
-1.19006e-12
-1.17689e-12
-1.16344e-12
-1.14965e-12
-1.13547e-12
-1.12082e-12
-1.10566e-12
-1.08994e-12
-1.07361e-12
-1.05662e-12
-1.03893e-12
-1.02048e-12
-1.00123e-12
-9.81157e-13
-9.60255e-13
-9.38532e-13
-9.16024e-13
-8.92797e-13
-8.68935e-13
-8.44523e-13
-8.19612e-13
-7.94197e-13
-7.68205e-13
-7.41509e-13
-7.13934e-13
-6.85267e-13
-6.55291e-13
-6.23847e-13
-5.9084e-13
-5.56247e-13
-5.20143e-13
-4.82691e-13
-4.44109e-13
-4.04606e-13
-3.64345e-13
-3.23431e-13
-2.81887e-13
-2.39668e-13
-1.9669e-13
-1.5286e-13
-1.08109e-13
-6.24119e-14
-1.57988e-14
3.16454e-14
7.9803e-14
1.28544e-13
1.77745e-13
2.27307e-13
2.77163e-13
3.27271e-13
3.77612e-13
4.28176e-13
4.78963e-13
5.29969e-13
5.81193e-13
)
;
    }
    inandouthalf21
    {
        type            cyclic;
        value           nonuniform List<scalar> 
100
(
-6.32632e-13
-6.84283e-13
-7.36141e-13
-7.88202e-13
-8.40454e-13
-8.92876e-13
-9.45437e-13
-9.98086e-13
-1.05075e-12
-1.10334e-12
-1.15573e-12
-1.20778e-12
-1.2593e-12
-1.31011e-12
-1.36001e-12
-1.40877e-12
-1.45622e-12
-1.50218e-12
-1.54657e-12
-1.58936e-12
-1.63068e-12
-1.67078e-12
-1.71016e-12
-1.74957e-12
-1.7901e-12
-1.83328e-12
-1.8811e-12
-1.93611e-12
-2.0013e-12
-2.07991e-12
-2.17498e-12
-2.28879e-12
-2.42234e-12
-2.57493e-12
-2.74368e-12
-2.92251e-12
-3.10169e-12
-3.26968e-12
-3.41615e-12
-3.53183e-12
-3.60696e-12
-3.63937e-12
-3.64369e-12
-3.638e-12
-3.63167e-12
-3.6265e-12
-3.61747e-12
-9.9848e-12
-3.1671e-11
4.17515e-08
1.3243e-07
3.88891e-07
5.73056e-07
6.84021e-07
7.56222e-07
8.0813e-07
8.47583e-07
8.79388e-07
9.05993e-07
9.28965e-07
9.49303e-07
9.67668e-07
9.84507e-07
1.00013e-06
1.01477e-06
1.02857e-06
1.04168e-06
1.05417e-06
1.06613e-06
1.07761e-06
1.08864e-06
1.09928e-06
1.10953e-06
1.11942e-06
1.12896e-06
1.13816e-06
1.14704e-06
1.15558e-06
1.1638e-06
1.1717e-06
1.17928e-06
1.18653e-06
1.19347e-06
1.20008e-06
1.20638e-06
1.21236e-06
1.218e-06
1.2233e-06
1.22824e-06
1.23279e-06
1.23695e-06
1.24069e-06
1.244e-06
1.2469e-06
1.24941e-06
1.25163e-06
1.25362e-06
1.25546e-06
1.25718e-06
1.2588e-06
)
;
    }
    inandouthalf22
    {
        type            cyclic;
        value           nonuniform List<scalar> 
100
(
6.32632e-13
6.84283e-13
7.36141e-13
7.88202e-13
8.40454e-13
8.92876e-13
9.45437e-13
9.98086e-13
1.05075e-12
1.10334e-12
1.15573e-12
1.20778e-12
1.2593e-12
1.31011e-12
1.36001e-12
1.40877e-12
1.45622e-12
1.50218e-12
1.54657e-12
1.58936e-12
1.63068e-12
1.67078e-12
1.71016e-12
1.74957e-12
1.7901e-12
1.83328e-12
1.8811e-12
1.93611e-12
2.0013e-12
2.07991e-12
2.17498e-12
2.28879e-12
2.42234e-12
2.57493e-12
2.74368e-12
2.92251e-12
3.10169e-12
3.26968e-12
3.41615e-12
3.53183e-12
3.60696e-12
3.63937e-12
3.64369e-12
3.638e-12
3.63167e-12
3.6265e-12
3.61747e-12
9.9848e-12
3.1671e-11
-4.17515e-08
-1.3243e-07
-3.88891e-07
-5.73056e-07
-6.84021e-07
-7.56222e-07
-8.0813e-07
-8.47583e-07
-8.79388e-07
-9.05993e-07
-9.28965e-07
-9.49303e-07
-9.67668e-07
-9.84507e-07
-1.00013e-06
-1.01477e-06
-1.02857e-06
-1.04168e-06
-1.05417e-06
-1.06613e-06
-1.07761e-06
-1.08864e-06
-1.09928e-06
-1.10953e-06
-1.11942e-06
-1.12896e-06
-1.13816e-06
-1.14704e-06
-1.15558e-06
-1.1638e-06
-1.1717e-06
-1.17928e-06
-1.18653e-06
-1.19347e-06
-1.20008e-06
-1.20638e-06
-1.21236e-06
-1.218e-06
-1.2233e-06
-1.22824e-06
-1.23279e-06
-1.23695e-06
-1.24069e-06
-1.244e-06
-1.2469e-06
-1.24941e-06
-1.25163e-06
-1.25362e-06
-1.25546e-06
-1.25718e-06
-1.2588e-06
)
;
    }
    inandouthalf31
    {
        type            cyclic;
        value           nonuniform List<scalar> 
110
(
1.26032e-06
1.28737e-06
1.31492e-06
1.34297e-06
1.37157e-06
1.40072e-06
1.43037e-06
1.46055e-06
1.49133e-06
1.52267e-06
1.55453e-06
1.58695e-06
1.61994e-06
1.65346e-06
1.68754e-06
1.72215e-06
1.75723e-06
1.79289e-06
1.82921e-06
1.86616e-06
1.90378e-06
1.94217e-06
1.98131e-06
2.0212e-06
2.06181e-06
2.10315e-06
2.14533e-06
2.1883e-06
2.232e-06
2.27656e-06
2.32193e-06
2.36809e-06
2.41512e-06
2.46299e-06
2.51166e-06
2.5611e-06
2.61089e-06
2.66178e-06
2.71597e-06
2.77389e-06
2.8332e-06
2.89232e-06
2.85774e-06
2.91574e-06
2.97492e-06
3.03531e-06
3.09691e-06
3.15977e-06
3.22391e-06
3.28935e-06
3.35611e-06
3.42423e-06
3.49373e-06
3.56465e-06
3.637e-06
3.71082e-06
3.78614e-06
3.86299e-06
3.9414e-06
4.0214e-06
4.10302e-06
4.1863e-06
4.27127e-06
4.35797e-06
4.44642e-06
4.53667e-06
4.62876e-06
4.72271e-06
4.81856e-06
4.91637e-06
5.01616e-06
5.11797e-06
5.22185e-06
5.32784e-06
5.43598e-06
5.54632e-06
5.6589e-06
5.77376e-06
5.89095e-06
6.01052e-06
6.13252e-06
6.25699e-06
6.38399e-06
6.51357e-06
6.64578e-06
6.78067e-06
6.9183e-06
7.05872e-06
7.20199e-06
7.34818e-06
7.49732e-06
7.6495e-06
7.80476e-06
7.96318e-06
8.12481e-06
8.28972e-06
8.45798e-06
8.62966e-06
8.80482e-06
8.98353e-06
9.16587e-06
9.35191e-06
9.54173e-06
9.73541e-06
9.93301e-06
1.01346e-05
1.03403e-05
1.05502e-05
1.07644e-05
1.09828e-05
)
;
    }
    inandouthalf32
    {
        type            cyclic;
        value           nonuniform List<scalar> 
110
(
-1.26032e-06
-1.28737e-06
-1.31492e-06
-1.34297e-06
-1.37157e-06
-1.40072e-06
-1.43037e-06
-1.46055e-06
-1.49133e-06
-1.52267e-06
-1.55453e-06
-1.58695e-06
-1.61994e-06
-1.65346e-06
-1.68754e-06
-1.72215e-06
-1.75723e-06
-1.79289e-06
-1.82921e-06
-1.86616e-06
-1.90378e-06
-1.94217e-06
-1.98131e-06
-2.0212e-06
-2.06181e-06
-2.10315e-06
-2.14533e-06
-2.1883e-06
-2.232e-06
-2.27656e-06
-2.32193e-06
-2.36809e-06
-2.41512e-06
-2.46299e-06
-2.51166e-06
-2.5611e-06
-2.61089e-06
-2.66178e-06
-2.71597e-06
-2.77389e-06
-2.8332e-06
-2.89232e-06
-2.85774e-06
-2.91574e-06
-2.97492e-06
-3.03531e-06
-3.09691e-06
-3.15977e-06
-3.22391e-06
-3.28935e-06
-3.35611e-06
-3.42423e-06
-3.49373e-06
-3.56465e-06
-3.637e-06
-3.71082e-06
-3.78614e-06
-3.86299e-06
-3.9414e-06
-4.0214e-06
-4.10302e-06
-4.1863e-06
-4.27127e-06
-4.35797e-06
-4.44642e-06
-4.53667e-06
-4.62876e-06
-4.72271e-06
-4.81856e-06
-4.91637e-06
-5.01616e-06
-5.11797e-06
-5.22185e-06
-5.32784e-06
-5.43598e-06
-5.54632e-06
-5.6589e-06
-5.77376e-06
-5.89095e-06
-6.01052e-06
-6.13252e-06
-6.25699e-06
-6.38399e-06
-6.51357e-06
-6.64578e-06
-6.78067e-06
-6.9183e-06
-7.05872e-06
-7.20199e-06
-7.34818e-06
-7.49732e-06
-7.6495e-06
-7.80476e-06
-7.96318e-06
-8.12481e-06
-8.28972e-06
-8.45798e-06
-8.62966e-06
-8.80482e-06
-8.98353e-06
-9.16587e-06
-9.35191e-06
-9.54173e-06
-9.73541e-06
-9.93301e-06
-1.01346e-05
-1.03403e-05
-1.05502e-05
-1.07644e-05
-1.09828e-05
)
;
    }
    inandouthalf41
    {
        type            cyclic;
        value           nonuniform List<scalar> 
50
(
9.83076e-06
9.83076e-06
9.83076e-06
9.83076e-06
9.83076e-06
9.83076e-06
9.83076e-06
9.83076e-06
9.83076e-06
9.83076e-06
9.83076e-06
9.83076e-06
9.83076e-06
9.83076e-06
9.83076e-06
9.83076e-06
9.83076e-06
9.83076e-06
9.83076e-06
9.83076e-06
9.83076e-06
9.83076e-06
9.83076e-06
9.83076e-06
9.83076e-06
9.83076e-06
9.83076e-06
9.83076e-06
9.83076e-06
9.83076e-06
9.83076e-06
9.83076e-06
9.83076e-06
9.83076e-06
9.83076e-06
9.83076e-06
9.83076e-06
9.83076e-06
9.83076e-06
9.83076e-06
9.83076e-06
9.83076e-06
9.83076e-06
9.83076e-06
9.83076e-06
9.83076e-06
9.83076e-06
9.83076e-06
9.83087e-06
9.83325e-06
)
;
    }
    inandouthalf42
    {
        type            cyclic;
        value           nonuniform List<scalar> 
50
(
-9.83076e-06
-9.83076e-06
-9.83076e-06
-9.83076e-06
-9.83076e-06
-9.83076e-06
-9.83076e-06
-9.83076e-06
-9.83076e-06
-9.83076e-06
-9.83076e-06
-9.83076e-06
-9.83076e-06
-9.83076e-06
-9.83076e-06
-9.83076e-06
-9.83076e-06
-9.83076e-06
-9.83076e-06
-9.83076e-06
-9.83076e-06
-9.83076e-06
-9.83076e-06
-9.83076e-06
-9.83076e-06
-9.83076e-06
-9.83076e-06
-9.83076e-06
-9.83076e-06
-9.83076e-06
-9.83076e-06
-9.83076e-06
-9.83076e-06
-9.83076e-06
-9.83076e-06
-9.83076e-06
-9.83076e-06
-9.83076e-06
-9.83076e-06
-9.83076e-06
-9.83076e-06
-9.83076e-06
-9.83076e-06
-9.83076e-06
-9.83076e-06
-9.83076e-06
-9.83076e-06
-9.83076e-06
-9.83087e-06
-9.83325e-06
)
;
    }
    top
    {
        type            symmetryPlane;
        value           uniform 0;
    }
    walls
    {
        type            calculated;
        value           uniform 0;
    }
    frontAndBackPlanes
    {
        type            empty;
        value           nonuniform 0();
    }
}


// ************************************************************************* //
