/*--------------------------------*- C++ -*----------------------------------*\
| =========                 |                                                 |
| \\      /  F ield         | OpenFOAM: The Open Source CFD Toolbox           |
|  \\    /   O peration     | Version:  2.4.x                                 |
|   \\  /    A nd           | Web:      www.OpenFOAM.org                      |
|    \\/     M anipulation  |                                                 |
\*---------------------------------------------------------------------------*/
FoamFile
{
    version     2.0;
    format      ascii;
    class       volScalarField;
    location    "3.15";
    object      ddt0(k);
}
// * * * * * * * * * * * * * * * * * * * * * * * * * * * * * * * * * * * * * //

dimensions      [0 2 -3 0 0 0 0];

internalField   nonuniform List<scalar> 
360
(
0
0
0
0
0
0
0
0
0
0
0
0
0
0
0
0
0
0
0
0
0
0
0
0
0
0
0
0
0
0
0
0
0
0
0
0
0
0
0
0
0
0
0
0
0
0
0
0
0
0
0
0
0
0
0
0
0
0
0
0
0
0
0
0
0
0
0
0
0
0
0
0
0
0
0
0
0
0
0
0
0
0
0
0
0
0
0
0
0
0
0
0
0
0
0
0
0
0
0
0
0
0
0
0
0
0
0
0
0
0
0
0
0
0
0
0
0
0
0
0
0
0
0
0
0
0
0
0
1.17896e-21
8.16386e-20
2.16167e-19
4.34258e-20
-3.75618e-18
-2.99702e-17
-1.62727e-16
-7.16293e-16
-2.67678e-15
-8.61189e-15
-2.39862e-14
-5.82103e-14
-1.23317e-13
-2.30431e-13
-4.71123e-13
-1.77087e-12
-1.24295e-11
-1.20931e-10
-1.23632e-09
4.39578e-09
1.61617e-06
0.00014105
0.00328436
0.00675527
0.0034756
0.000810791
-0.000883116
-0.00208537
-0.00305582
-0.00389542
-0.00463812
-0.00529587
-0.00587369
-0.00637491
-0.00680302
-0.00716203
-0.00745637
-0.00769069
-0.00786967
-0.0079978
-0.00807932
-0.00811813
-0.00811779
-0.00808151
-0.00801214
-0.00791224
-0.00778406
-0.0076296
-0.00745062
-0.00724869
-0.00702518
-0.00678128
-0.00651808
-0.00623652
-0.00593744
-0.00562162
-0.00528979
-0.0049426
-0.00458071
-0.00420474
-0.0038153
-0.00341304
-0.0029986
-0.00257271
-0.00213609
-0.00168953
-0.00123379
-0.000769639
-0.000297861
0.000180659
0.000664907
0.00115372
0.00164576
0.00214454
0.00265346
0.00317052
0.00369313
0.00421788
0.00474035
0.00525473
0.00575335
0.006226
0.00665883
0.00703272
0.00732031
0.00747997
0.00744163
0.00708201
0.00629917
0.00287314
0.000214548
3.49916e-06
4.60042e-08
5.74577e-10
6.84057e-12
7.76393e-14
8.39987e-16
8.65362e-18
7.53511e-20
0
0
0
0
0
0
0
0
0
0
0
0
0
0
0
0
0
0
0
0
0
0
0
0
0
0
0
0
0
0
0
0
0
0
0
0
0
0
0
0
0
0
0
0
0
0
0
0
0
0
0
0
0
0
0
0
0
0
0
0
0
0
0
0
0
0
0
0
0
0
0
0
0
0
0
0
0
0
0
0
0
0
0
0
0
0
0
0
0
0
0
0
0
0
0
0
0
0
0
0
0
0
0
0
0
0
0
0
0
0
0
0
0
0
0
0
0
0
0
0
0
0
0
0
0
0
0
0
0
0
0
0
0
)
;

boundaryField
{
    inandouthalf11
    {
        type            cyclic;
    }
    inandouthalf12
    {
        type            cyclic;
    }
    inandouthalf21
    {
        type            cyclic;
    }
    inandouthalf22
    {
        type            cyclic;
    }
    inandouthalf31
    {
        type            cyclic;
    }
    inandouthalf32
    {
        type            cyclic;
    }
    inandouthalf41
    {
        type            cyclic;
    }
    inandouthalf42
    {
        type            cyclic;
    }
    top
    {
        type            symmetryPlane;
    }
    walls
    {
        type            calculated;
        value           uniform 0;
    }
    frontAndBackPlanes
    {
        type            empty;
    }
}


// ************************************************************************* //
