/*--------------------------------*- C++ -*----------------------------------*\
| =========                 |                                                 |
| \\      /  F ield         | OpenFOAM: The Open Source CFD Toolbox           |
|  \\    /   O peration     | Version:  2.4.x                                 |
|   \\  /    A nd           | Web:      www.OpenFOAM.org                      |
|    \\/     M anipulation  |                                                 |
\*---------------------------------------------------------------------------*/
FoamFile
{
    version     2.0;
    format      ascii;
    class       volScalarField;
    location    "3.15";
    object      ddt0(alpha);
}
// * * * * * * * * * * * * * * * * * * * * * * * * * * * * * * * * * * * * * //

dimensions      [0 0 -1 0 0 0 0];

internalField   nonuniform List<scalar> 
360
(
0.000302086
0.000718471
0.000792732
0.000707327
0.000623912
0.000582093
0.000571681
0.000574129
0.000577691
0.000585522
0.000607201
0.000651107
0.000719633
0.000799887
0.00085823
0.000843366
0.000719705
0.000512841
0.000301945
0.000151608
6.98664e-05
3.30486e-05
1.78426e-05
1.17407e-05
9.48583e-06
9.04754e-06
9.57306e-06
1.06191e-05
1.18235e-05
1.28803e-05
1.35892e-05
1.39372e-05
1.39336e-05
1.37532e-05
1.34744e-05
1.32038e-05
1.299e-05
1.28599e-05
1.28391e-05
1.28515e-05
1.29221e-05
1.30342e-05
1.31376e-05
1.32732e-05
1.34152e-05
1.35568e-05
1.37204e-05
1.38826e-05
1.40745e-05
1.4339e-05
1.46207e-05
1.49415e-05
1.52931e-05
1.56997e-05
1.61312e-05
1.66352e-05
1.71642e-05
1.77362e-05
1.83339e-05
1.8909e-05
1.94986e-05
2.00295e-05
2.05106e-05
2.09094e-05
2.12457e-05
2.15417e-05
2.18568e-05
2.22389e-05
2.27305e-05
2.33465e-05
2.4132e-05
2.50812e-05
2.61058e-05
2.72049e-05
2.82946e-05
2.93397e-05
3.02623e-05
3.10581e-05
3.17454e-05
3.23633e-05
3.29434e-05
3.35424e-05
3.41953e-05
3.49118e-05
3.56885e-05
3.64977e-05
3.73111e-05
3.80884e-05
3.88034e-05
3.94462e-05
4.00177e-05
4.05288e-05
4.10014e-05
4.14534e-05
4.18979e-05
4.23424e-05
4.27879e-05
4.32308e-05
4.36658e-05
4.40874e-05
4.44903e-05
4.487e-05
4.5222e-05
4.55413e-05
4.58219e-05
4.60575e-05
4.62417e-05
4.63693e-05
4.64369e-05
4.64437e-05
4.63925e-05
4.62908e-05
4.61512e-05
4.59929e-05
4.58422e-05
4.57331e-05
4.5708e-05
4.58169e-05
4.61172e-05
4.66724e-05
4.75502e-05
4.88196e-05
5.05478e-05
5.27966e-05
5.5618e-05
5.90494e-05
6.31042e-05
6.77546e-05
7.29012e-05
7.8338e-05
8.37423e-05
8.87286e-05
9.29615e-05
9.61951e-05
9.80437e-05
9.76315e-05
9.3888e-05
8.63525e-05
7.50569e-05
5.9666e-05
3.9877e-05
1.73323e-05
-1.05541e-07
-1.0818e-05
-2.02491e-05
-0.000126409
0.00162879
0.00199761
0.00224526
-0.245209
0.233756
0.144963
0.0543586
0.00748763
-0.00863128
-0.0137724
-0.0146456
-0.0143796
-0.0137277
-0.0129249
-0.012086
-0.0112577
-0.0104597
-0.00969977
-0.00898047
-0.00830183
-0.00766274
-0.00706161
-0.00649664
-0.00596596
-0.00546767
-0.00499986
-0.00456066
-0.00414834
-0.0037614
-0.0033988
-0.00306
-0.00274503
-0.00245427
-0.00218819
-0.00194705
-0.00173063
-0.00153812
-0.00136813
-0.00121873
-0.00108755
-0.000971902
-0.000868704
-0.000774341
-0.000684519
-0.000594501
-0.000500397
-0.000401817
-0.00030392
-0.000216138
-0.000146987
-9.89662e-05
-6.8422e-05
-4.94234e-05
-3.7005e-05
-2.84182e-05
-2.26196e-05
-1.86426e-05
-1.50873e-05
-1.19095e-05
-1.0093e-05
-8.85137e-06
-7.11743e-06
-5.75135e-06
-5.13101e-06
-4.40406e-06
-3.60936e-06
-3.14965e-06
-2.70465e-06
-2.23168e-06
-2.00318e-06
-1.74684e-06
-1.38045e-06
-1.21565e-06
-1.10827e-06
-9.12629e-07
-7.72399e-07
-6.636e-07
-5.65693e-07
-5.08032e-07
-4.21028e-07
-3.4317e-07
-3.09993e-07
-2.56197e-07
-2.10661e-07
-1.83964e-07
-1.50965e-07
-1.2476e-07
-1.04978e-07
-8.94119e-08
-7.45255e-08
-7.49103e-08
-3.68543e-08
8.80331e-09
2.72826e-08
-4.00082e-08
-1.72268e-07
-9.497e-13
-6.2434e-13
-5.67373e-13
-3.20478e-13
-2.10387e-13
-1.26121e-13
-1.04291e-13
-1.18033e-13
-1.53466e-13
-1.57118e-13
-6.14218e-14
-3.00253e-14
-2.10789e-14
-2.94695e-14
-4.34391e-14
-2.98263e-14
-1.16374e-14
-6.32219e-15
-5.99148e-15
-8.70346e-15
-8.71543e-15
-3.16223e-15
-1.63259e-15
-1.30519e-15
-1.78146e-15
-1.73728e-15
-6.19274e-16
-3.2448e-16
-2.71156e-16
-3.69707e-16
-2.56888e-16
-1.12515e-16
-7.4913e-17
-9.56774e-17
-5.58942e-17
-2.08117e-17
-9.81757e-18
-4.46039e-18
-1.90892e-18
-8.35322e-19
-3.83081e-19
-1.7734e-19
-8.12412e-20
-3.65374e-20
-1.60483e-20
-6.85489e-21
-2.83695e-21
-1.13381e-21
-4.36212e-22
-1.61058e-22
-5.68884e-23
-1.916e-23
-6.1314e-24
-1.85705e-24
-5.30026e-25
-1.41848e-25
-3.53928e-26
-8.17827e-27
-1.73619e-27
-3.35365e-28
-5.82381e-29
-8.95359e-30
-1.19413e-30
-1.34298e-31
-1.22087e-32
-8.36163e-34
-3.74446e-35
-6.88689e-37
-3.72744e-39
-7.84786e-41
-8.18711e-43
-1.12924e-53
-7.86092e-65
-4.08567e-76
-1.55166e-87
-5.26839e-99
-1.63848e-110
-7.64863e-122
-9.15878e-130
-1.95232e-140
-3.15207e-148
-6.55672e-159
-1.0843e-166
-2.81134e-177
-3.729e-185
-1.27745e-195
-1.28334e-203
-8.69087e-214
-4.44978e-222
-5.78282e-232
-1.5615e-240
-2.94162e-250
-5.54534e-259
-1.39641e-268
-1.99539e-277
-6.17621e-287
-7.27286e-296
-2.64737e-305
-2.70463e-314
-2.16895e-321
0
0
0
0
0
0
0
0
0
0
0
0
0
0
0
0
0
0
)
;

boundaryField
{
    inandouthalf11
    {
        type            cyclic;
    }
    inandouthalf12
    {
        type            cyclic;
    }
    inandouthalf21
    {
        type            cyclic;
    }
    inandouthalf22
    {
        type            cyclic;
    }
    inandouthalf31
    {
        type            cyclic;
    }
    inandouthalf32
    {
        type            cyclic;
    }
    inandouthalf41
    {
        type            cyclic;
    }
    inandouthalf42
    {
        type            cyclic;
    }
    top
    {
        type            symmetryPlane;
    }
    walls
    {
        type            calculated;
        value           uniform 0.000302086;
    }
    frontAndBackPlanes
    {
        type            empty;
    }
}


// ************************************************************************* //
