/*--------------------------------*- C++ -*----------------------------------*\
| =========                 |                                                 |
| \\      /  F ield         | OpenFOAM: The Open Source CFD Toolbox           |
|  \\    /   O peration     | Version:  2.4.x                                 |
|   \\  /    A nd           | Web:      www.OpenFOAM.org                      |
|    \\/     M anipulation  |                                                 |
\*---------------------------------------------------------------------------*/
FoamFile
{
    version     2.0;
    format      ascii;
    class       volVectorField;
    location    "3.15";
    object      gradPs;
}
// * * * * * * * * * * * * * * * * * * * * * * * * * * * * * * * * * * * * * //

dimensions      [0 1 -2 0 0 0 0];

internalField   nonuniform List<vector> 
360
(
(0 4.84325e-18 0)
(0 6.38765e-18 0)
(0 4.18528e-20 0)
(0 -2.6363e-18 0)
(-1.45301e-32 -1.67655e-18 0)
(-1.45309e-32 -7.43785e-19 0)
(-1.45318e-32 -2.46023e-19 0)
(0 -5.48949e-20 0)
(-1.45335e-32 3.54629e-20 0)
(0 2.48862e-19 0)
(-1.45348e-32 7.03086e-19 0)
(0 1.37385e-18 0)
(-2.90731e-32 2.03562e-18 0)
(0 2.05602e-18 0)
(0 5.35277e-19 0)
(0 -2.41899e-18 0)
(0 -4.68105e-18 0)
(-1.45419e-32 -4.36705e-18 0)
(0 -2.44091e-18 0)
(0 -8.86289e-19 0)
(0 -2.33192e-19 0)
(-1.4543e-32 -5.5927e-20 0)
(0 -1.68286e-20 0)
(0 -8.35178e-21 0)
(0 -6.23686e-21 0)
(-1.45432e-32 -5.6015e-21 0)
(0 -7.07697e-21 0)
(0 -8.74634e-21 0)
(0 -8.90066e-21 0)
(0 -9.1993e-21 0)
(0 -1.11808e-20 0)
(0 -1.13794e-20 0)
(0 -1.31392e-20 0)
(0 -1.47672e-20 0)
(0 -1.46287e-20 0)
(1.4544e-32 -1.61058e-20 0)
(0 -1.75529e-20 0)
(0 -2.06796e-20 0)
(0 -2.05031e-20 0)
(0 -2.20792e-20 0)
(0 -2.52996e-20 0)
(0 -2.51273e-20 0)
(2.909e-32 -2.82654e-20 0)
(0 -3.13277e-20 0)
(0 -3.27017e-20 0)
(0 -3.57076e-20 0)
(0 -3.69154e-20 0)
(0 -3.9622e-20 0)
(0 -4.54578e-20 0)
(0 -4.78898e-20 0)
(2.90942e-32 -5.03068e-20 0)
(0 -5.42692e-20 0)
(0 -5.79699e-20 0)
(0 -6.13769e-20 0)
(0 -6.60373e-20 0)
(0 -7.02965e-20 0)
(0 -7.4131e-20 0)
(0 -7.9049e-20 0)
(0 -8.17246e-20 0)
(0 -8.66696e-20 0)
(0 -9.05692e-20 0)
(0 -9.32862e-20 0)
(0 -9.63645e-20 0)
(0 -9.82551e-20 0)
(0 -1.00581e-19 0)
(0 -1.03443e-19 0)
(0 -1.07158e-19 0)
(0 -1.10681e-19 0)
(0 -1.13977e-19 0)
(0 -1.18863e-19 0)
(0 -1.24547e-19 0)
(0 -1.27522e-19 0)
(0 -1.31203e-19 0)
(0 -1.35462e-19 0)
(0 -1.38823e-19 0)
(0 -1.41644e-19 0)
(0 -1.4392e-19 0)
(0 -1.4728e-19 0)
(0 -1.50847e-19 0)
(0 -1.54231e-19 0)
(0 -1.58034e-19 0)
(0 -1.62435e-19 0)
(0 -1.66629e-19 0)
(0 -1.70782e-19 0)
(0 -1.74825e-19 0)
(0 -1.78767e-19 0)
(0 -1.82547e-19 0)
(0 -1.86159e-19 0)
(0 -1.90001e-19 0)
(0 -1.94016e-19 0)
(0 -1.98143e-19 0)
(0 -2.02557e-19 0)
(0 -2.07211e-19 0)
(0 -2.11953e-19 0)
(0 -2.16799e-19 0)
(0 -2.21732e-19 0)
(0 -2.2673e-19 0)
(0 -2.31818e-19 0)
(0 -2.38859e-19 0)
(0 -1.75061e-16 0)
(0 -1.7496e-16 0)
(0 0 0)
(0 0 0)
(0 0 0)
(0 0 0)
(0 0 0)
(0 0 0)
(0 0 0)
(0 0 0)
(0 0 0)
(0 0 0)
(0 0 0)
(0 0 0)
(0 0 0)
(0 1.72935e-16 0)
(0 1.72781e-16 0)
(0 -3.73479e-19 0)
(0 -3.84152e-19 0)
(0 -3.952e-19 0)
(0 -4.06622e-19 0)
(0 -4.18407e-19 0)
(0 -4.30532e-19 0)
(0 -4.42965e-19 0)
(0 -4.5569e-19 0)
(0 -4.68749e-19 0)
(0 -4.82295e-19 0)
(0 -4.96621e-19 0)
(0 -4.72418e-19 0)
(0 4.09228e-16 0)
(0 2.4977e-15 0)
(0 1.13191e-14 0)
(0 4.69142e-14 0)
(0 1.79672e-13 0)
(0 6.32607e-13 0)
(0 2.03017e-12 0)
(0 5.86529e-12 0)
(0 1.50316e-11 0)
(0 3.37301e-11 0)
(0 6.55433e-11 0)
(0 1.07487e-10 0)
(0 1.45518e-10 0)
(0 2.75666e-10 0)
(0 1.79579e-09 0)
(0 2.16609e-08 0)
(0 3.79851e-07 0)
(0 9.75242e-06 0)
(0 0.000867489 0)
(0 0.0689022 0)
(0 1.29751 0)
(0 0.293745 0)
(0 -3.85623 0)
(0 -2.89805 0)
(0 -2.41716 0)
(0 -1.53149 0)
(0 -0.947129 0)
(0 -0.614338 0)
(0 -0.452686 0)
(0 -0.363194 0)
(0 -0.309167 0)
(0 -0.278961 0)
(0 -0.26456 0)
(0 -0.260899 0)
(0 -0.265033 0)
(0 -0.274994 0)
(0 -0.289417 0)
(0 -0.307342 0)
(0 -0.328064 0)
(0 -0.351075 0)
(0 -0.375995 0)
(0 -0.402549 0)
(0 -0.430517 0)
(0 -0.4597 0)
(0 -0.489848 0)
(0 -0.520618 0)
(0 -0.551513 0)
(0 -0.581852 0)
(0 -0.610811 0)
(0 -0.637527 0)
(0 -0.661236 0)
(0 -0.681455 0)
(0 -0.698144 0)
(0 -0.711844 0)
(0 -0.723807 0)
(0 -0.736123 0)
(0 -0.751913 0)
(0 -0.775575 0)
(0 -0.813131 0)
(0 -0.872468 0)
(0 -0.963078 0)
(0 -1.09418 0)
(0 -1.26939 0)
(0 -1.47647 0)
(0 -1.6756 0)
(0 -1.79902 0)
(0 -1.78263 0)
(0 -1.62482 0)
(0 -1.39969 0)
(0 -1.18801 0)
(0 -1.0205 0)
(0 -0.886796 0)
(0 -0.774035 0)
(0 -0.688449 0)
(-1.97718e-16 -0.627277 0)
(0 -0.558026 0)
(0 -0.478421 0)
(1.17986e-16 -0.432575 0)
(0 -0.403374 0)
(-1.29382e-16 -0.345617 0)
(0 -0.293192 0)
(1.37546e-16 -0.270157 0)
(0 -0.240241 0)
(0 -0.203267 0)
(0 -0.180308 0)
(3.71992e-17 -0.157378 0)
(0 -0.13181 0)
(0 -0.117618 0)
(0 -0.102345 0)
(0 -0.0815806 0)
(0 -0.0705747 0)
(-1.88572e-17 -0.0627485 0)
(0 -0.0511871 0)
(-1.85974e-17 -0.0425122 0)
(0 -0.0356769 0)
(-9.11101e-18 -0.0296215 0)
(0 -0.0255322 0)
(0 -0.020636 0)
(0 -0.0163805 0)
(0 -0.0140227 0)
(4.24932e-18 -0.0111953 0)
(2.08971e-18 -0.00884456 0)
(0 -0.0072924 0)
(0 -0.00570959 0)
(0 -0.00447544 0)
(0 -0.00352878 0)
(0 -0.00278571 0)
(0 -0.00214616 0)
(0 -0.00164903 0)
(0 -0.00106331 0)
(0 -0.00052552 0)
(0 -0.000394511 0)
(0 -0.000861886 0)
(0 -0.00064928 0)
(0 0 0)
(0 0 0)
(0 0 0)
(0 0 0)
(0 0 0)
(0 0 0)
(0 0 0)
(0 0 0)
(0 0 0)
(0 0 0)
(0 0 0)
(0 0 0)
(0 0 0)
(0 0 0)
(0 0 0)
(0 0 0)
(0 0 0)
(0 0 0)
(0 0 0)
(0 0 0)
(0 0 0)
(0 0 0)
(0 0 0)
(0 0 0)
(0 0 0)
(0 0 0)
(0 0 0)
(0 0 0)
(0 0 0)
(0 0 0)
(0 0 0)
(0 0 0)
(0 0 0)
(0 0 0)
(0 0 0)
(0 0 0)
(0 0 0)
(0 0 0)
(0 0 0)
(0 0 0)
(0 0 0)
(0 0 0)
(0 0 0)
(0 0 0)
(0 0 0)
(0 0 0)
(0 0 0)
(0 0 0)
(0 0 0)
(0 0 0)
(0 0 0)
(0 0 0)
(0 0 0)
(0 0 0)
(0 0 0)
(0 0 0)
(0 0 0)
(0 0 0)
(0 0 0)
(0 0 0)
(0 0 0)
(0 0 0)
(0 0 0)
(0 0 0)
(0 0 0)
(0 0 0)
(0 0 0)
(0 0 0)
(0 0 0)
(0 0 0)
(0 0 0)
(0 0 0)
(0 0 0)
(0 0 0)
(0 0 0)
(0 0 0)
(0 0 0)
(0 0 0)
(0 0 0)
(0 0 0)
(0 0 0)
(0 0 0)
(0 0 0)
(0 0 0)
(0 0 0)
(0 0 0)
(0 0 0)
(0 0 0)
(0 0 0)
(0 0 0)
(0 0 0)
(0 0 0)
(0 0 0)
(0 0 0)
(0 0 0)
(0 0 0)
(0 0 0)
(0 0 0)
(0 0 0)
(0 0 0)
(0 0 0)
(0 0 0)
(0 0 0)
(0 0 0)
(0 0 0)
(0 0 0)
(0 0 0)
(0 0 0)
(0 0 0)
(0 0 0)
(0 0 0)
(0 0 0)
(0 0 0)
(0 0 0)
(0 0 0)
(0 0 0)
(0 0 0)
(0 0 0)
)
;

boundaryField
{
    inandouthalf11
    {
        type            cyclic;
    }
    inandouthalf12
    {
        type            cyclic;
    }
    inandouthalf21
    {
        type            cyclic;
    }
    inandouthalf22
    {
        type            cyclic;
    }
    inandouthalf31
    {
        type            cyclic;
    }
    inandouthalf32
    {
        type            cyclic;
    }
    inandouthalf41
    {
        type            cyclic;
    }
    inandouthalf42
    {
        type            cyclic;
    }
    top
    {
        type            symmetryPlane;
    }
    walls
    {
        type            calculated;
        value           uniform (0 0 0);
    }
    frontAndBackPlanes
    {
        type            empty;
    }
}


// ************************************************************************* //
