/*--------------------------------*- C++ -*----------------------------------*\
| =========                 |                                                 |
| \\      /  F ield         | OpenFOAM: The Open Source CFD Toolbox           |
|  \\    /   O peration     | Version:  2.4.x                                 |
|   \\  /    A nd           | Web:      www.OpenFOAM.org                      |
|    \\/     M anipulation  |                                                 |
\*---------------------------------------------------------------------------*/
FoamFile
{
    version     2.0;
    format      ascii;
    class       volVectorField;
    location    "3.15";
    object      gradPf;
}
// * * * * * * * * * * * * * * * * * * * * * * * * * * * * * * * * * * * * * //

dimensions      [0 1 -2 0 0 0 0];

internalField   nonuniform List<vector> 
360
(
(0 17.3519 0)
(0 26.8058 0)
(0 9.93408 0)
(0 -1.3361 0)
(-1.67521e-14 -3.98403 0)
(-1.6753e-14 -4.71735 0)
(-1.67541e-14 -4.95697 0)
(0 -4.31134 0)
(-1.67559e-14 -3.60938 0)
(0 -3.54553 0)
(-1.67575e-14 -3.90972 0)
(0 -4.48397 0)
(-3.3519e-14 -5.08048 0)
(0 -5.55232 0)
(0 -5.8076 0)
(0 -5.59303 0)
(0 -4.74163 0)
(-3.35313e-14 -3.42355 0)
(0 -2.13313 0)
(0 -1.13558 0)
(0 -0.563491 0)
(-1.6767e-14 -0.346171 0)
(0 -0.234327 0)
(0 -0.192671 0)
(0 -0.179731 0)
(-3.35344e-14 -0.177818 0)
(0 -0.233673 0)
(0 -0.291698 0)
(0 -0.297927 0)
(0 -0.304647 0)
(0 -0.361494 0)
(0 -0.361552 0)
(0 -0.411853 0)
(0 -0.460086 0)
(0 -0.454473 0)
(1.67681e-14 -0.500874 0)
(0 -0.546793 0)
(0 -0.645076 0)
(0 -0.639778 0)
(0 -0.688541 0)
(0 -0.788064 0)
(0 -0.781529 0)
(3.35385e-14 -0.87716 0)
(0 -0.969961 0)
(0 -1.00985 0)
(0 -1.0995 0)
(0 -1.13361 0)
(0 -1.21315 0)
(0 -1.38734 0)
(0 -1.45683 0)
(1.67716e-14 -1.52457 0)
(0 -1.6382 0)
(0 -1.7424 0)
(0 -1.83673 0)
(0 -1.9664 0)
(0 -2.08267 0)
(0 -2.18384 0)
(0 -2.31468 0)
(0 -2.37779 0)
(0 -2.50377 0)
(0 -2.59727 0)
(0 -2.65377 0)
(0 -2.71878 0)
(0 -2.74855 0)
(0 -2.78994 0)
(0 -2.84554 0)
(0 -2.92394 0)
(0 -2.99598 0)
(0 -3.06082 0)
(0 -3.16617 0)
(0 -3.28953 0)
(0 -3.33826 0)
(0 -3.40142 0)
(0 -3.47582 0)
(0 -3.52237 0)
(0 -3.55156 0)
(0 -3.5639 0)
(0 -3.60097 0)
(0 -3.64137 0)
(0 -3.67619 0)
(0 -3.71981 0)
(0 -3.77596 0)
(0 -3.82498 0)
(0 -3.87004 0)
(0 -3.90916 0)
(0 -3.94205 0)
(0 -3.96744 0)
(0 -3.98537 0)
(0 -4.00487 0)
(0 -4.02502 0)
(0 -4.04488 0)
(0 -4.06809 0)
(0 -4.09359 0)
(0 -4.11804 0)
(0 -4.14141 0)
(0 -4.1631 0)
(0 -4.18245 0)
(0 -4.19973 0)
(0 -4.21573 0)
(0 -4.23074 0)
(0 -4.24491 0)
(0 -4.25865 0)
(0 -4.27186 0)
(0 -4.28425 0)
(0 -4.29586 0)
(0 -4.30669 0)
(0 -4.31675 0)
(0 -4.32615 0)
(0 -4.33494 0)
(0 -4.34312 0)
(0 -4.35067 0)
(0 -4.35753 0)
(0 -4.36364 0)
(0 -4.3689 0)
(0 -4.37323 0)
(0 -4.3765 0)
(0 -4.37859 0)
(0 -4.37935 0)
(0 -4.37865 0)
(0 -4.37626 0)
(0 -4.3719 0)
(0 -4.36521 0)
(0 -4.35579 0)
(0 -4.34344 0)
(0 -4.32845 0)
(0 -4.31188 0)
(0 -4.29525 0)
(0 -4.27956 0)
(0 -4.26366 0)
(0 -4.24369 0)
(0 -4.21672 0)
(0 -4.18916 0)
(0 -4.1796 0)
(0 -4.1971 0)
(0 -4.21268 0)
(0 -4.18885 0)
(0 -4.15556 0)
(0 -4.21832 0)
(0 -4.43042 0)
(0 -4.57284 0)
(0 -4.28215 0)
(0 -4.1665 0)
(0 -4.70969 0)
(0 -5.24857 0)
(0 -6.28992 0)
(0 -10.8312 0)
(0 -7.21071 0)
(0 -2.21399 0)
(0 -6.40977 0)
(0 -4.29934 0)
(0 0 0)
(0 0 0)
(0 0 0)
(0 0 0)
(0 0 0)
(0 0 0)
(0 0 0)
(0 0 0)
(0 0 0)
(0 0 0)
(0 0 0)
(0 0 0)
(0 0 0)
(0 0 0)
(0 0 0)
(0 0 0)
(0 0 0)
(0 0 0)
(0 0 0)
(0 0 0)
(0 0 0)
(0 0 0)
(0 0 0)
(0 0 0)
(0 0 0)
(0 0 0)
(0 0 0)
(0 0 0)
(0 0 0)
(0 0 0)
(0 0 0)
(0 0 0)
(0 0 0)
(0 0 0)
(0 0 0)
(0 0 0)
(0 0 0)
(0 0 0)
(0 0 0)
(0 0 0)
(0 0 0)
(0 0 0)
(0 0 0)
(0 0 0)
(0 0 0)
(0 0 0)
(0 0 0)
(0 0 0)
(0 0 0)
(0 0 0)
(0 0 0)
(0 0 0)
(0 0 0)
(0 0 0)
(0 0 0)
(0 0 0)
(0 0 0)
(0 0 0)
(0 0 0)
(0 0 0)
(0 0 0)
(0 0 0)
(0 0 0)
(0 0 0)
(0 0 0)
(0 0 0)
(0 0 0)
(0 0 0)
(0 0 0)
(0 0 0)
(0 0 0)
(0 0 0)
(0 0 0)
(0 0 0)
(0 0 0)
(0 0 0)
(0 0 0)
(0 0 0)
(0 0 0)
(0 0 0)
(0 0 0)
(0 0 0)
(0 0 0)
(0 0 0)
(0 0 0)
(0 0 0)
(0 0 0)
(0 0 0)
(0 0 0)
(0 0 0)
(0 0 0)
(0 0 0)
(0 0 0)
(0 0 0)
(0 0 0)
(0 0 0)
(0 0 0)
(0 0 0)
(0 0 0)
(0 0 0)
(0 0 0)
(0 0 0)
(0 0 0)
(0 0 0)
(0 0 0)
(0 0 0)
(0 0 0)
(0 0 0)
(0 0 0)
(0 0 0)
(0 0 0)
(0 0 0)
(0 0 0)
(0 0 0)
(0 0 0)
(0 0 0)
(0 0 0)
(0 0 0)
(0 0 0)
(0 0 0)
(0 0 0)
(0 0 0)
(0 0 0)
(0 0 0)
(0 0 0)
(0 0 0)
(0 0 0)
(0 0 0)
(0 0 0)
(0 0 0)
(0 0 0)
(0 0 0)
(0 0 0)
(0 0 0)
(0 0 0)
(0 0 0)
(0 0 0)
(0 0 0)
(0 0 0)
(0 0 0)
(0 0 0)
(0 0 0)
(0 0 0)
(0 0 0)
(0 0 0)
(0 0 0)
(0 0 0)
(0 0 0)
(0 0 0)
(0 0 0)
(0 0 0)
(0 0 0)
(0 0 0)
(0 0 0)
(0 0 0)
(0 0 0)
(0 0 0)
(0 0 0)
(0 0 0)
(0 0 0)
(0 0 0)
(0 0 0)
(0 0 0)
(0 0 0)
(0 0 0)
(0 0 0)
(0 0 0)
(0 0 0)
(0 0 0)
(0 0 0)
(0 0 0)
(0 0 0)
(0 0 0)
(0 0 0)
(0 0 0)
(0 0 0)
(0 0 0)
(0 0 0)
(0 0 0)
(0 0 0)
(0 0 0)
(0 0 0)
(0 0 0)
(0 0 0)
(0 0 0)
(0 0 0)
(0 0 0)
(0 0 0)
(0 0 0)
(0 0 0)
(0 0 0)
(0 0 0)
(0 0 0)
(0 0 0)
(0 0 0)
(0 0 0)
(0 0 0)
(0 0 0)
(0 0 0)
(0 0 0)
(0 0 0)
(0 0 0)
(0 0 0)
(0 0 0)
(0 0 0)
(0 0 0)
(0 0 0)
(0 0 0)
(0 0 0)
(0 0 0)
)
;

boundaryField
{
    inandouthalf11
    {
        type            cyclic;
    }
    inandouthalf12
    {
        type            cyclic;
    }
    inandouthalf21
    {
        type            cyclic;
    }
    inandouthalf22
    {
        type            cyclic;
    }
    inandouthalf31
    {
        type            cyclic;
    }
    inandouthalf32
    {
        type            cyclic;
    }
    inandouthalf41
    {
        type            cyclic;
    }
    inandouthalf42
    {
        type            cyclic;
    }
    top
    {
        type            symmetryPlane;
    }
    walls
    {
        type            calculated;
        value           uniform (0 0 0);
    }
    frontAndBackPlanes
    {
        type            empty;
    }
}


// ************************************************************************* //
