/*--------------------------------*- C++ -*----------------------------------*\
| =========                 |                                                 |
| \\      /  F ield         | OpenFOAM: The Open Source CFD Toolbox           |
|  \\    /   O peration     | Version:  2.4.x                                 |
|   \\  /    A nd           | Web:      www.OpenFOAM.org                      |
|    \\/     M anipulation  |                                                 |
\*---------------------------------------------------------------------------*/
FoamFile
{
    version     2.0;
    format      ascii;
    class       volScalarField;
    location    "3.15";
    object      p;
}
// * * * * * * * * * * * * * * * * * * * * * * * * * * * * * * * * * * * * * //

dimensions      [1 -1 -2 0 0 0 0];

internalField   nonuniform List<scalar> 
360
(
4894.15
4889.24
4884.33
4879.41
4874.5
4869.58
4864.65
4859.73
4854.8
4849.87
4844.93
4839.99
4835.05
4830.11
4825.16
4820.21
4815.25
4810.29
4805.33
4800.36
4795.4
4790.43
4785.47
4780.5
4775.54
4770.57
4765.6
4760.64
4755.67
4750.71
4745.74
4740.77
4735.81
4730.84
4725.88
4720.91
4715.94
4710.98
4706.01
4701.04
4696.08
4691.11
4686.14
4681.18
4676.21
4671.24
4666.28
4661.31
4656.34
4651.37
4646.41
4641.44
4636.47
4631.5
4626.54
4621.57
4616.6
4611.63
4606.67
4601.7
4596.73
4591.76
4586.79
4581.83
4576.86
4571.89
4566.92
4561.95
4556.98
4552.01
4547.05
4542.08
4537.11
4532.14
4527.17
4522.2
4517.23
4512.26
4507.29
4502.32
4497.35
4492.38
4487.41
4482.44
4477.47
4472.5
4467.53
4462.56
4457.59
4452.62
4447.64
4442.67
4437.7
4432.73
4427.76
4422.78
4417.81
4412.84
4407.87
4402.89
4397.92
4392.95
4387.97
4383
4378.03
4373.05
4368.08
4363.1
4358.13
4353.16
4348.18
4343.21
4338.23
4333.26
4328.28
4323.31
4318.33
4313.35
4308.38
4303.4
4298.43
4293.45
4288.47
4283.5
4278.52
4273.54
4268.56
4263.59
4258.61
4253.63
4248.65
4243.68
4238.7
4233.72
4228.74
4223.76
4218.78
4213.8
4208.82
4203.84
4198.86
4193.88
4188.9
4183.92
4178.94
4173.96
4168.98
4164
4159.01
4153.97
4147.92
4141.97
4136.84
4131.71
4126.59
4121.48
4116.39
4111.29
4106.21
4101.13
4096.06
4090.99
4085.93
4080.88
4075.84
4070.8
4065.77
4060.75
4055.74
4050.73
4045.74
4040.75
4035.77
4030.8
4025.84
4020.88
4015.94
4011
4006.06
4001.14
3996.22
3991.32
3986.41
3981.52
3976.63
3971.75
3966.88
3962.01
3957.15
3952.3
3947.45
3942.61
3937.77
3932.94
3928.12
3923.3
3918.49
3913.68
3908.88
3904.08
3899.29
3894.45
3889.52
3884.5
3879.37
3874.15
3868.82
3863.39
3857.85
3852.2
3846.44
3840.56
3834.56
3828.43
3822.17
3815.77
3809.23
3802.5
3795.55
3788.44
3781.18
3773.78
3766.22
3758.51
3750.65
3742.62
3734.43
3726.08
3717.55
3708.86
3699.98
3690.93
3681.69
3672.27
3662.65
3652.84
3642.83
3632.61
3622.19
3611.56
3600.71
3589.64
3578.35
3566.83
3555.07
3543.08
3530.84
3518.35
3505.61
3492.61
3479.35
3465.82
3452.01
3437.92
3423.55
3408.88
3393.92
3378.66
3363.08
3347.19
3330.97
3314.43
3297.55
3280.33
3262.76
3244.83
3226.54
3207.87
3188.83
3169.4
3149.58
3129.35
3108.72
3087.66
3066.18
3044.26
3021.9
2999.08
2975.8
2952.05
2927.81
2903.09
2877.86
2852.12
2825.86
2799.06
2771.72
2743.82
2715.36
2686.32
2656.7
2626.47
2595.62
2564.15
2532.05
2499.29
2465.86
2431.76
2396.96
2361.46
2325.24
2288.28
2250.57
2212.1
2172.85
2132.8
2091.93
2050.24
2007.7
1964.3
1922.76
1883.52
1844.28
1805.04
1765.8
1726.56
1687.32
1648.08
1608.84
1569.6
1530.36
1491.12
1451.88
1412.64
1373.4
1334.16
1294.92
1255.68
1216.44
1177.2
1137.96
1098.72
1059.48
1020.24
981
941.76
902.52
863.28
824.04
784.8
745.56
706.32
667.08
627.84
588.6
549.36
510.12
470.88
431.64
392.4
353.16
313.92
274.68
235.44
196.2
156.96
117.72
78.48
39.24
2.10223e-07
)
;

boundaryField
{
    inandouthalf11
    {
        type            cyclic;
    }
    inandouthalf12
    {
        type            cyclic;
    }
    inandouthalf21
    {
        type            cyclic;
    }
    inandouthalf22
    {
        type            cyclic;
    }
    inandouthalf31
    {
        type            cyclic;
    }
    inandouthalf32
    {
        type            cyclic;
    }
    inandouthalf41
    {
        type            cyclic;
    }
    inandouthalf42
    {
        type            cyclic;
    }
    top
    {
        type            symmetryPlane;
    }
    walls
    {
        type            slip;
    }
    frontAndBackPlanes
    {
        type            empty;
    }
}


// ************************************************************************* //
