/*--------------------------------*- C++ -*----------------------------------*\
| =========                 |                                                 |
| \\      /  F ield         | OpenFOAM: The Open Source CFD Toolbox           |
|  \\    /   O peration     | Version:  2.4.x                                 |
|   \\  /    A nd           | Web:      www.OpenFOAM.org                      |
|    \\/     M anipulation  |                                                 |
\*---------------------------------------------------------------------------*/
FoamFile
{
    version     2.0;
    format      ascii;
    class       surfaceScalarField;
    location    "3.15";
    object      phib;
}
// * * * * * * * * * * * * * * * * * * * * * * * * * * * * * * * * * * * * * //

dimensions      [0 3 -1 0 0 0 0];

internalField   nonuniform List<scalar> 
359
(
1.54994e-12
5.23981e-12
9.31187e-12
1.29441e-11
1.61464e-11
1.91339e-11
2.20674e-11
2.50129e-11
2.79762e-11
3.09787e-11
3.4091e-11
3.74268e-11
4.11123e-11
4.52083e-11
4.96037e-11
5.39252e-11
5.76162e-11
6.02489e-11
6.18005e-11
6.258e-11
6.29391e-11
6.31088e-11
6.32002e-11
6.32602e-11
6.33086e-11
6.33547e-11
6.34033e-11
6.34573e-11
6.35173e-11
6.35828e-11
6.36519e-11
6.37228e-11
6.37935e-11
6.38633e-11
6.39317e-11
6.39986e-11
6.40643e-11
6.41292e-11
6.4194e-11
6.42588e-11
6.43238e-11
6.43894e-11
6.44553e-11
6.45219e-11
6.4589e-11
6.46568e-11
6.47253e-11
6.47945e-11
6.48644e-11
6.49356e-11
6.50081e-11
6.5082e-11
6.51575e-11
6.5235e-11
6.53144e-11
6.53962e-11
6.54805e-11
6.55675e-11
6.56574e-11
6.575e-11
6.58455e-11
6.59435e-11
6.60438e-11
6.6146e-11
6.62498e-11
6.6355e-11
6.64616e-11
6.657e-11
6.66807e-11
6.67943e-11
6.69115e-11
6.70335e-11
6.71605e-11
6.72928e-11
6.74305e-11
6.75734e-11
6.77209e-11
6.78723e-11
6.80269e-11
6.81845e-11
6.83448e-11
6.8508e-11
6.86742e-11
6.88438e-11
6.90171e-11
6.91943e-11
6.93754e-11
6.95602e-11
6.97484e-11
6.99397e-11
7.01336e-11
7.03298e-11
7.05281e-11
7.07284e-11
7.09307e-11
7.11349e-11
7.1341e-11
7.1549e-11
7.17589e-11
7.19706e-11
7.2184e-11
7.23989e-11
7.26151e-11
7.28326e-11
7.3051e-11
7.32702e-11
7.34899e-11
7.37097e-11
7.39293e-11
7.41484e-11
7.43667e-11
7.45839e-11
7.47998e-11
7.50143e-11
7.52273e-11
7.5439e-11
7.56499e-11
7.58606e-11
7.6072e-11
7.62854e-11
7.65023e-11
7.67248e-11
7.6955e-11
7.71956e-11
7.74494e-11
7.77194e-11
7.80087e-11
7.832e-11
7.86559e-11
7.90176e-11
7.94048e-11
7.98154e-11
8.02451e-11
8.06883e-11
8.11379e-11
8.15826e-11
8.20054e-11
8.23858e-11
8.27022e-11
8.29339e-11
8.30652e-11
8.30789e-11
8.29871e-11
8.28186e-11
8.25547e-11
8.18437e-11
8.9236e-11
9.91301e-11
1.09229e-10
-4.36962e-10
2.89507e-11
3.60739e-10
4.47723e-10
4.4153e-10
4.20878e-10
3.92505e-10
3.62687e-10
3.33569e-10
3.05856e-10
2.79815e-10
2.55496e-10
2.32866e-10
2.11856e-10
1.92385e-10
1.74366e-10
1.57715e-10
1.42352e-10
1.28198e-10
1.1518e-10
1.03228e-10
9.22771e-11
8.22645e-11
7.31329e-11
6.48281e-11
5.72989e-11
5.04963e-11
4.43723e-11
3.88792e-11
3.39684e-11
2.95902e-11
2.56948e-11
2.22325e-11
1.91556e-11
1.64188e-11
1.39809e-11
1.18055e-11
9.86147e-12
8.12379e-12
6.57478e-12
5.20535e-12
4.01585e-12
3.01449e-12
2.21025e-12
1.60186e-12
1.16912e-12
8.74795e-13
6.76594e-13
5.3954e-13
4.40526e-13
3.66383e-13
3.09438e-13
2.63188e-13
2.24294e-13
1.92179e-13
1.66313e-13
1.43945e-13
1.23932e-13
1.07514e-13
9.39765e-14
8.16538e-14
7.08633e-14
6.18405e-14
5.3807e-14
4.6769e-14
4.08439e-14
3.54175e-14
3.05901e-14
2.66979e-14
2.32005e-14
1.99475e-14
1.72146e-14
1.48546e-14
1.27858e-14
1.09865e-14
9.33779e-15
7.94379e-15
6.78441e-15
5.71585e-15
4.81483e-15
4.05886e-15
3.38527e-15
2.82127e-15
2.34566e-15
1.9373e-15
1.5824e-15
1.28053e-15
1.01966e-15
8.60888e-16
8.53316e-16
9.29842e-16
7.92504e-16
9.13215e-16
6.40803e-18
6.10248e-18
5.78522e-18
5.49293e-18
5.2057e-18
4.93779e-18
4.66471e-18
4.40038e-18
4.15481e-18
3.90426e-18
3.6606e-18
3.42448e-18
3.19589e-18
2.97384e-18
2.76004e-18
2.55291e-18
2.3573e-18
2.16735e-18
1.98933e-18
1.82127e-18
1.66714e-18
1.52483e-18
1.39877e-18
1.28583e-18
1.21231e-18
1.12339e-18
1.04417e-18
9.74324e-19
9.12197e-19
8.57089e-19
8.08296e-19
7.64471e-19
7.25609e-19
6.90949e-19
6.58356e-19
6.3013e-19
6.03112e-19
5.7949e-19
5.5839e-19
5.38275e-19
5.18185e-19
4.97342e-19
4.76983e-19
4.53334e-19
4.70411e-19
4.41715e-19
4.18711e-19
3.90806e-19
3.62277e-19
3.26879e-19
2.96185e-19
2.60911e-19
2.2749e-19
1.96986e-19
2.43001e-20
2.31793e-20
2.57898e-20
4.41483e-20
4.95564e-20
5.05027e-20
5.22861e-20
4.89079e-20
5.52532e-20
5.66081e-20
5.78092e-20
5.18675e-20
5.18584e-20
4.41574e-20
3.74035e-20
2.68246e-20
2.47277e-20
2.01882e-20
1.546e-20
7.88469e-21
2.12751e-21
-5.47345e-21
-1.30951e-20
-2.22569e-20
-3.14949e-20
-4.05409e-20
-4.98674e-20
-5.80797e-20
-6.95469e-20
-7.94052e-20
-9.32985e-20
-1.13272e-19
-1.66928e-19
-2.16045e-19
-2.67813e-19
-2.9346e-19
-3.43766e-19
-3.54236e-19
-3.65167e-19
-3.39109e-19
-3.68909e-19
-3.58786e-19
-3.48049e-19
-2.94351e-19
-2.60765e-19
-2.03979e-19
-1.43819e-19
-8.38819e-20
1.62417e-20
7.02996e-20
1.21838e-19
1.01737e-19
1.20854e-19
4.90601e-20
-2.82391e-20
1.35782e-20
-4.00652e-19
-6.25301e-19
-8.49962e-19
-3.86154e-19
-1.37731e-18
5.12844e-20
2.90708e-18
)
;

boundaryField
{
    inandouthalf11
    {
        type            cyclic;
        value           nonuniform List<scalar> 
100
(
2.61181e-10
2.611e-10
2.60947e-10
2.61089e-10
2.61287e-10
2.61484e-10
2.61689e-10
2.61888e-10
2.62071e-10
2.62248e-10
2.62431e-10
2.62629e-10
2.62849e-10
2.63093e-10
2.63359e-10
2.63632e-10
2.63881e-10
2.64074e-10
2.64197e-10
2.64265e-10
2.64296e-10
2.64312e-10
2.64322e-10
2.64328e-10
2.64334e-10
2.6434e-10
2.64345e-10
2.64353e-10
2.64362e-10
2.64371e-10
2.6438e-10
2.64392e-10
2.64402e-10
2.64416e-10
2.64428e-10
2.64442e-10
2.64456e-10
2.64472e-10
2.6449e-10
2.64506e-10
2.64526e-10
2.64546e-10
2.64567e-10
2.64591e-10
2.64615e-10
2.64642e-10
2.6467e-10
2.64699e-10
2.64731e-10
2.64767e-10
2.64803e-10
2.64842e-10
2.64883e-10
2.64928e-10
2.64974e-10
2.65025e-10
2.65077e-10
2.65134e-10
2.65193e-10
2.65254e-10
2.6532e-10
2.65386e-10
2.65456e-10
2.65527e-10
2.656e-10
2.65675e-10
2.65752e-10
2.65832e-10
2.65914e-10
2.65999e-10
2.66089e-10
2.66182e-10
2.66277e-10
2.66376e-10
2.66478e-10
2.66583e-10
2.66689e-10
2.66798e-10
2.6691e-10
2.67025e-10
2.67141e-10
2.67262e-10
2.67385e-10
2.67512e-10
2.67642e-10
2.67776e-10
2.67912e-10
2.68051e-10
2.68194e-10
2.68339e-10
2.68487e-10
2.68639e-10
2.68794e-10
2.68952e-10
2.69114e-10
2.6928e-10
2.69449e-10
2.69622e-10
2.69799e-10
2.6998e-10
)
;
    }
    inandouthalf12
    {
        type            cyclic;
        value           nonuniform List<scalar> 
100
(
-2.61181e-10
-2.611e-10
-2.60947e-10
-2.61089e-10
-2.61287e-10
-2.61484e-10
-2.61689e-10
-2.61888e-10
-2.62071e-10
-2.62248e-10
-2.62431e-10
-2.62629e-10
-2.62849e-10
-2.63093e-10
-2.63359e-10
-2.63632e-10
-2.63881e-10
-2.64074e-10
-2.64197e-10
-2.64265e-10
-2.64296e-10
-2.64312e-10
-2.64322e-10
-2.64328e-10
-2.64334e-10
-2.6434e-10
-2.64345e-10
-2.64353e-10
-2.64362e-10
-2.64371e-10
-2.6438e-10
-2.64392e-10
-2.64402e-10
-2.64416e-10
-2.64428e-10
-2.64442e-10
-2.64456e-10
-2.64472e-10
-2.6449e-10
-2.64506e-10
-2.64526e-10
-2.64546e-10
-2.64567e-10
-2.64591e-10
-2.64615e-10
-2.64642e-10
-2.6467e-10
-2.64699e-10
-2.64731e-10
-2.64767e-10
-2.64803e-10
-2.64842e-10
-2.64883e-10
-2.64928e-10
-2.64974e-10
-2.65025e-10
-2.65077e-10
-2.65134e-10
-2.65193e-10
-2.65254e-10
-2.6532e-10
-2.65386e-10
-2.65456e-10
-2.65527e-10
-2.656e-10
-2.65675e-10
-2.65752e-10
-2.65832e-10
-2.65914e-10
-2.65999e-10
-2.66089e-10
-2.66182e-10
-2.66277e-10
-2.66376e-10
-2.66478e-10
-2.66583e-10
-2.66689e-10
-2.66798e-10
-2.6691e-10
-2.67025e-10
-2.67141e-10
-2.67262e-10
-2.67385e-10
-2.67512e-10
-2.67642e-10
-2.67776e-10
-2.67912e-10
-2.68051e-10
-2.68194e-10
-2.68339e-10
-2.68487e-10
-2.68639e-10
-2.68794e-10
-2.68952e-10
-2.69114e-10
-2.6928e-10
-2.69449e-10
-2.69622e-10
-2.69799e-10
-2.6998e-10
)
;
    }
    inandouthalf21
    {
        type            cyclic;
        value           nonuniform List<scalar> 
100
(
2.70165e-10
2.70354e-10
2.70547e-10
2.70745e-10
2.70947e-10
2.71155e-10
2.71367e-10
2.71584e-10
2.71806e-10
2.72034e-10
2.72267e-10
2.72506e-10
2.72751e-10
2.73003e-10
2.73261e-10
2.73527e-10
2.73799e-10
2.7408e-10
2.74369e-10
2.74666e-10
2.74974e-10
2.75291e-10
2.75619e-10
2.75959e-10
2.76312e-10
2.76678e-10
2.77059e-10
2.77456e-10
2.77871e-10
2.78305e-10
2.78759e-10
2.79234e-10
2.79733e-10
2.80258e-10
2.80816e-10
2.81405e-10
2.82019e-10
2.82665e-10
2.83366e-10
2.84154e-10
2.84993e-10
2.85774e-10
2.86682e-10
2.87853e-10
2.89287e-10
2.91592e-10
2.99218e-10
3.01717e-10
3.25626e-10
6.85801e-09
1.14511e-07
1.92186e-07
2.22484e-07
2.35346e-07
2.40863e-07
2.43e-07
2.43315e-07
2.42489e-07
2.40863e-07
2.38632e-07
2.35923e-07
2.32821e-07
2.29393e-07
2.25689e-07
2.21748e-07
2.17604e-07
2.13285e-07
2.08814e-07
2.0421e-07
1.99492e-07
1.94672e-07
1.89765e-07
1.8478e-07
1.79729e-07
1.7462e-07
1.6946e-07
1.64255e-07
1.59013e-07
1.53739e-07
1.48438e-07
1.43113e-07
1.3777e-07
1.32412e-07
1.27043e-07
1.21666e-07
1.16285e-07
1.10901e-07
1.05518e-07
1.00139e-07
9.4767e-08
8.94036e-08
8.40521e-08
7.87152e-08
7.33959e-08
6.80972e-08
6.28221e-08
5.75734e-08
5.23542e-08
4.71677e-08
4.20168e-08
)
;
    }
    inandouthalf22
    {
        type            cyclic;
        value           nonuniform List<scalar> 
100
(
-2.70165e-10
-2.70354e-10
-2.70547e-10
-2.70745e-10
-2.70947e-10
-2.71155e-10
-2.71367e-10
-2.71584e-10
-2.71806e-10
-2.72034e-10
-2.72267e-10
-2.72506e-10
-2.72751e-10
-2.73003e-10
-2.73261e-10
-2.73527e-10
-2.73799e-10
-2.7408e-10
-2.74369e-10
-2.74666e-10
-2.74974e-10
-2.75291e-10
-2.75619e-10
-2.75959e-10
-2.76312e-10
-2.76678e-10
-2.77059e-10
-2.77456e-10
-2.77871e-10
-2.78305e-10
-2.78759e-10
-2.79234e-10
-2.79733e-10
-2.80258e-10
-2.80816e-10
-2.81405e-10
-2.82019e-10
-2.82665e-10
-2.83366e-10
-2.84154e-10
-2.84993e-10
-2.85774e-10
-2.86682e-10
-2.87853e-10
-2.89287e-10
-2.91592e-10
-2.99218e-10
-3.01717e-10
-3.25626e-10
-6.85801e-09
-1.14511e-07
-1.92186e-07
-2.22484e-07
-2.35346e-07
-2.40863e-07
-2.43e-07
-2.43315e-07
-2.42489e-07
-2.40863e-07
-2.38632e-07
-2.35923e-07
-2.32821e-07
-2.29393e-07
-2.25689e-07
-2.21748e-07
-2.17604e-07
-2.13285e-07
-2.08814e-07
-2.0421e-07
-1.99492e-07
-1.94672e-07
-1.89765e-07
-1.8478e-07
-1.79729e-07
-1.7462e-07
-1.6946e-07
-1.64255e-07
-1.59013e-07
-1.53739e-07
-1.48438e-07
-1.43113e-07
-1.3777e-07
-1.32412e-07
-1.27043e-07
-1.21666e-07
-1.16285e-07
-1.10901e-07
-1.05518e-07
-1.00139e-07
-9.4767e-08
-8.94036e-08
-8.40521e-08
-7.87152e-08
-7.33959e-08
-6.80972e-08
-6.28221e-08
-5.75734e-08
-5.23542e-08
-4.71677e-08
-4.20168e-08
)
;
    }
    inandouthalf31
    {
        type            cyclic;
        value           nonuniform List<scalar> 
110
(
3.6905e-08
3.24293e-08
2.7699e-08
2.27103e-08
1.74604e-08
1.19487e-08
6.17642e-09
1.4816e-10
-6.12772e-09
-1.26377e-08
-1.93611e-08
-2.62678e-08
-3.33138e-08
-4.04351e-08
-4.75357e-08
-5.44681e-08
-6.09867e-08
-6.62561e-08
-6.87857e-08
-7.03652e-08
-7.19119e-08
-7.34792e-08
-7.50694e-08
-7.66833e-08
-7.83222e-08
-7.99871e-08
-8.16787e-08
-8.33983e-08
-8.51468e-08
-8.69253e-08
-8.87347e-08
-9.05763e-08
-9.24508e-08
-9.43595e-08
-9.63033e-08
-9.82833e-08
-1.003e-07
-1.02356e-07
-1.04451e-07
-1.06585e-07
-1.08761e-07
-1.1098e-07
-1.13243e-07
-1.15551e-07
-1.17903e-07
-1.20303e-07
-1.2275e-07
-1.25246e-07
-1.27792e-07
-1.30389e-07
-1.33038e-07
-1.3574e-07
-1.38497e-07
-1.4131e-07
-1.44179e-07
-1.47107e-07
-1.50094e-07
-1.53141e-07
-1.5625e-07
-1.59421e-07
-1.62658e-07
-1.65959e-07
-1.69328e-07
-1.72765e-07
-1.76272e-07
-1.7985e-07
-1.83501e-07
-1.87225e-07
-1.91025e-07
-1.94903e-07
-1.98859e-07
-2.02895e-07
-2.07013e-07
-2.11215e-07
-2.15502e-07
-2.19876e-07
-2.24339e-07
-2.28893e-07
-2.33539e-07
-2.38279e-07
-2.43115e-07
-2.4805e-07
-2.53085e-07
-2.58222e-07
-2.63463e-07
-2.6881e-07
-2.74267e-07
-2.79833e-07
-2.85513e-07
-2.91308e-07
-2.97221e-07
-3.03254e-07
-3.09409e-07
-3.15689e-07
-3.22097e-07
-3.28635e-07
-3.35305e-07
-3.42111e-07
-3.49055e-07
-3.5614e-07
-3.63369e-07
-3.70744e-07
-3.78269e-07
-3.85947e-07
-3.93781e-07
-4.01773e-07
-4.09928e-07
-4.18249e-07
-4.26738e-07
-4.354e-07
)
;
    }
    inandouthalf32
    {
        type            cyclic;
        value           nonuniform List<scalar> 
110
(
-3.6905e-08
-3.24293e-08
-2.7699e-08
-2.27103e-08
-1.74604e-08
-1.19487e-08
-6.17642e-09
-1.4816e-10
6.12772e-09
1.26377e-08
1.93611e-08
2.62678e-08
3.33138e-08
4.04351e-08
4.75357e-08
5.44681e-08
6.09867e-08
6.62561e-08
6.87857e-08
7.03652e-08
7.19119e-08
7.34792e-08
7.50694e-08
7.66833e-08
7.83222e-08
7.99871e-08
8.16787e-08
8.33983e-08
8.51468e-08
8.69253e-08
8.87347e-08
9.05763e-08
9.24508e-08
9.43595e-08
9.63033e-08
9.82833e-08
1.003e-07
1.02356e-07
1.04451e-07
1.06585e-07
1.08761e-07
1.1098e-07
1.13243e-07
1.15551e-07
1.17903e-07
1.20303e-07
1.2275e-07
1.25246e-07
1.27792e-07
1.30389e-07
1.33038e-07
1.3574e-07
1.38497e-07
1.4131e-07
1.44179e-07
1.47107e-07
1.50094e-07
1.53141e-07
1.5625e-07
1.59421e-07
1.62658e-07
1.65959e-07
1.69328e-07
1.72765e-07
1.76272e-07
1.7985e-07
1.83501e-07
1.87225e-07
1.91025e-07
1.94903e-07
1.98859e-07
2.02895e-07
2.07013e-07
2.11215e-07
2.15502e-07
2.19876e-07
2.24339e-07
2.28893e-07
2.33539e-07
2.38279e-07
2.43115e-07
2.4805e-07
2.53085e-07
2.58222e-07
2.63463e-07
2.6881e-07
2.74267e-07
2.79833e-07
2.85513e-07
2.91308e-07
2.97221e-07
3.03254e-07
3.09409e-07
3.15689e-07
3.22097e-07
3.28635e-07
3.35305e-07
3.42111e-07
3.49055e-07
3.5614e-07
3.63369e-07
3.70744e-07
3.78269e-07
3.85947e-07
3.93781e-07
4.01773e-07
4.09928e-07
4.18249e-07
4.26738e-07
4.354e-07
)
;
    }
    inandouthalf41
    {
        type            cyclic;
        value           nonuniform List<scalar> 
50
(
-3.89727e-07
-3.89727e-07
-3.89727e-07
-3.89727e-07
-3.89727e-07
-3.89727e-07
-3.89727e-07
-3.89727e-07
-3.89727e-07
-3.89727e-07
-3.89727e-07
-3.89727e-07
-3.89727e-07
-3.89727e-07
-3.89727e-07
-3.89727e-07
-3.89727e-07
-3.89727e-07
-3.89727e-07
-3.89727e-07
-3.89727e-07
-3.89727e-07
-3.89727e-07
-3.89727e-07
-3.89727e-07
-3.89727e-07
-3.89727e-07
-3.89727e-07
-3.89727e-07
-3.89727e-07
-3.89727e-07
-3.89727e-07
-3.89727e-07
-3.89727e-07
-3.89727e-07
-3.89727e-07
-3.89727e-07
-3.89727e-07
-3.89727e-07
-3.89727e-07
-3.89727e-07
-3.89727e-07
-3.89727e-07
-3.89727e-07
-3.89727e-07
-3.89727e-07
-3.89727e-07
-3.89727e-07
-3.89727e-07
-3.89727e-07
)
;
    }
    inandouthalf42
    {
        type            cyclic;
        value           nonuniform List<scalar> 
50
(
3.89727e-07
3.89727e-07
3.89727e-07
3.89727e-07
3.89727e-07
3.89727e-07
3.89727e-07
3.89727e-07
3.89727e-07
3.89727e-07
3.89727e-07
3.89727e-07
3.89727e-07
3.89727e-07
3.89727e-07
3.89727e-07
3.89727e-07
3.89727e-07
3.89727e-07
3.89727e-07
3.89727e-07
3.89727e-07
3.89727e-07
3.89727e-07
3.89727e-07
3.89727e-07
3.89727e-07
3.89727e-07
3.89727e-07
3.89727e-07
3.89727e-07
3.89727e-07
3.89727e-07
3.89727e-07
3.89727e-07
3.89727e-07
3.89727e-07
3.89727e-07
3.89727e-07
3.89727e-07
3.89727e-07
3.89727e-07
3.89727e-07
3.89727e-07
3.89727e-07
3.89727e-07
3.89727e-07
3.89727e-07
3.89727e-07
3.89727e-07
)
;
    }
    top
    {
        type            symmetryPlane;
        value           uniform 0;
    }
    walls
    {
        type            fixedValue;
        value           uniform 0;
    }
    frontAndBackPlanes
    {
        type            empty;
        value           nonuniform 0();
    }
}


// ************************************************************************* //
