/*--------------------------------*- C++ -*----------------------------------*\
| =========                 |                                                 |
| \\      /  F ield         | OpenFOAM: The Open Source CFD Toolbox           |
|  \\    /   O peration     | Version:  2.4.x                                 |
|   \\  /    A nd           | Web:      www.OpenFOAM.org                      |
|    \\/     M anipulation  |                                                 |
\*---------------------------------------------------------------------------*/
FoamFile
{
    version     2.0;
    format      ascii;
    class       volVectorField;
    location    "3.15";
    object      susb;
}
// * * * * * * * * * * * * * * * * * * * * * * * * * * * * * * * * * * * * * //

dimensions      [0 1 -2 0 0 0 0];

internalField   nonuniform List<vector> 
360
(
(0 1.97331e-18 0)
(0 2.9883e-18 0)
(0 1.06177e-18 0)
(0 -1.40294e-19 0)
(-7.34364e-31 -4.19879e-19 0)
(-3.67099e-31 -5.02044e-19 0)
(-7.34004e-31 -5.33031e-19 0)
(0 -4.68315e-19 0)
(-7.33669e-31 -3.95814e-19 0)
(0 -3.92206e-19 0)
(-3.66694e-31 -4.36352e-19 0)
(0 -5.05491e-19 0)
(-3.66513e-31 -5.79266e-19 0)
(0 -6.41199e-19 0)
(0 -6.79913e-19 0)
(0 -6.63819e-19 0)
(0 -5.69839e-19 0)
(-3.65956e-31 -4.1562e-19 0)
(0 -2.60859e-19 0)
(0 -1.39475e-19 0)
(0 -6.93891e-20 0)
(-3.65838e-31 -4.26813e-20 0)
(0 -2.89149e-20 0)
(0 -2.37886e-20 0)
(0 -2.22019e-20 0)
(-3.6582e-31 -2.19757e-20 0)
(0 -2.88961e-20 0)
(0 -3.60935e-20 0)
(0 -3.68924e-20 0)
(0 -3.7754e-20 0)
(0 -4.48406e-20 0)
(0 -4.48833e-20 0)
(0 -5.11901e-20 0)
(0 -5.72374e-20 0)
(0 -5.66146e-20 0)
(3.65742e-31 -6.24681e-20 0)
(0 -6.82931e-20 0)
(0 -8.06939e-20 0)
(0 -8.01543e-20 0)
(0 -8.64326e-20 0)
(0 -9.91029e-20 0)
(0 -9.84841e-20 0)
(7.31272e-31 -1.10792e-19 0)
(0 -1.22795e-19 0)
(0 -1.28189e-19 0)
(0 -1.3996e-19 0)
(0 -1.4472e-19 0)
(0 -1.55382e-19 0)
(0 -1.78311e-19 0)
(0 -1.87931e-19 0)
(3.65419e-31 -1.97488e-19 0)
(0 -2.13102e-19 0)
(0 -2.27714e-19 0)
(0 -2.41197e-19 0)
(0 -2.59608e-19 0)
(0 -2.76455e-19 0)
(0 -2.91638e-19 0)
(0 -3.11027e-19 0)
(0 -3.21608e-19 0)
(0 -3.41023e-19 0)
(0 -3.5627e-19 0)
(0 -3.66799e-19 0)
(0 -3.78663e-19 0)
(0 -3.85868e-19 0)
(0 -3.9485e-19 0)
(0 -4.06086e-19 0)
(0 -4.20856e-19 0)
(0 -4.35055e-19 0)
(0 -4.48541e-19 0)
(0 -4.68425e-19 0)
(0 -4.91495e-19 0)
(0 -5.0388e-19 0)
(0 -5.18901e-19 0)
(0 -5.35993e-19 0)
(0 -5.49287e-19 0)
(0 -5.60148e-19 0)
(0 -5.68668e-19 0)
(0 -5.81402e-19 0)
(0 -5.95055e-19 0)
(0 -6.08185e-19 0)
(0 -6.23219e-19 0)
(0 -6.40848e-19 0)
(0 -6.57828e-19 0)
(0 -6.74687e-19 0)
(0 -6.9105e-19 0)
(0 -7.06853e-19 0)
(0 -7.21807e-19 0)
(0 -7.35887e-19 0)
(0 -7.50733e-19 0)
(0 -7.66203e-19 0)
(0 -7.82155e-19 0)
(0 -7.99336e-19 0)
(0 -8.17598e-19 0)
(0 -8.36327e-19 0)
(0 -8.55545e-19 0)
(0 -8.75146e-19 0)
(0 -8.9501e-19 0)
(0 -9.15203e-19 0)
(0 -9.35915e-19 0)
(0 -9.5724e-19 0)
(0 -9.79249e-19 0)
(0 -1.00208e-18 0)
(0 -1.02574e-18 0)
(0 -1.05024e-18 0)
(0 -1.07562e-18 0)
(0 -1.10194e-18 0)
(0 -1.12926e-18 0)
(0 -1.15768e-18 0)
(0 -1.18729e-18 0)
(0 -1.21817e-18 0)
(0 -1.25041e-18 0)
(0 -1.28407e-18 0)
(0 -1.31926e-18 0)
(0 -1.35605e-18 0)
(0 -1.39454e-18 0)
(0 -1.43482e-18 0)
(0 -1.47699e-18 0)
(0 -1.52115e-18 0)
(0 -1.5674e-18 0)
(0 -1.61585e-18 0)
(0 -1.66656e-18 0)
(0 -1.71957e-18 0)
(0 -1.77491e-18 0)
(0 -1.83267e-18 0)
(0 -1.89319e-18 0)
(0 -1.95719e-18 0)
(0 -2.02573e-18 0)
(0 -2.09983e-18 0)
(0 -2.18058e-18 0)
(0 -8.17602e-18 0)
(0 -3.84903e-17 0)
(0 -1.75422e-16 0)
(0 -7.5037e-16 0)
(0 -2.99595e-15 0)
(0 -1.10224e-14 0)
(0 -3.67225e-14 0)
(0 -1.10129e-13 0)
(0 -3.00338e-13 0)
(0 -7.44058e-13 0)
(0 -1.56648e-12 0)
(0 -2.44995e-12 0)
(0 -2.92231e-12 0)
(0 -3.84936e-12 0)
(0 -1.41839e-11 0)
(0 -1.5831e-10 0)
(0 -5.43979e-09 0)
(0 -7.57476e-08 0)
(0 -1.04348e-06 0)
(0 -0.000502233 0)
(0 -0.249971 0)
(0 -0.833556 0)
(0 -0.523232 0)
(0 -0.250166 0)
(0 -0.153232 0)
(0 -0.098289 0)
(0 -0.0680676 0)
(0 -0.0524104 0)
(0 -0.0426536 0)
(0 -0.0358201 0)
(0 -0.0309042 0)
(0 -0.0272252 0)
(0 -0.0243648 0)
(0 -0.0220765 0)
(0 -0.0201979 0)
(0 -0.0186184 0)
(0 -0.0172621 0)
(0 -0.0160754 0)
(0 -0.0150197 0)
(0 -0.0140669 0)
(0 -0.0131962 0)
(0 -0.0123916 0)
(0 -0.0116399 0)
(0 -0.0109298 0)
(0 -0.0102508 0)
(0 -0.00959293 0)
(0 -0.00894761 0)
(0 -0.00830855 0)
(0 -0.00767312 0)
(0 -0.00704319 0)
(0 -0.00642518 0)
(0 -0.00582927 0)
(0 -0.00526814 0)
(0 -0.00475566 0)
(0 -0.00430567 0)
(0 -0.00393095 0)
(0 -0.00364194 0)
(0 -0.0034453 0)
(0 -0.00334251 0)
(0 -0.00332655 0)
(0 -0.0033733 0)
(0 -0.00342761 0)
(0 -0.00339704 0)
(0 -0.00318121 0)
(0 -0.00274191 0)
(0 -0.00215645 0)
(0 -0.00157591 0)
(0 -0.00111546 0)
(0 -0.000798971 0)
(0 -0.0005919 0)
(0 -0.000450746 0)
(0 -0.000349322 0)
(0 -0.000278638 0)
(-8.40764e-20 -0.000228697 0)
(0 -0.000183186 0)
(0 -0.000141951 0)
(3.6539e-20 -0.000116872 0)
(0 -9.88027e-05 0)
(0 -7.60541e-05 0)
(0 -5.80306e-05 0)
(1.35383e-20 -4.80167e-05 0)
(0 -3.77008e-05 0)
(0 -2.77104e-05 0)
(0 -2.09924e-05 0)
(7.56513e-21 -1.50754e-05 0)
(0 -9.82746e-06 0)
(0 -6.24962e-06 0)
(0 -3.10474e-06 0)
(0 -6.50186e-07 0)
(0 -2.91622e-08 0)
(-1.15061e-25 -3.93496e-10 0)
(0 -4.13291e-12 0)
(0 -4.23387e-14 0)
(0 -4.19162e-16 0)
(-1.09731e-33 -3.92637e-18 0)
(0 -3.6799e-20 0)
(0 -3.45462e-22 0)
(0 -3.53835e-23 0)
(0 -2.93961e-23 0)
(7.223e-39 -2.38139e-23 0)
(7.04191e-39 -1.91839e-23 0)
(0 -1.63111e-23 0)
(0 -1.30944e-23 0)
(0 -1.05695e-23 0)
(0 -8.66145e-24 0)
(0 -7.16771e-24 0)
(0 -5.80854e-24 0)
(0 -4.76763e-24 0)
(0 -2.85538e-24 0)
(0 -3.88945e-25 0)
(0 8.89674e-25 0)
(0 -2.0823e-24 0)
(0 -6.56724e-24 0)
(0 -3.06567e-24 0)
(-1.87198e-45 -1.12644e-29 0)
(1.83474e-45 -4.60703e-30 0)
(0 -3.65826e-30 0)
(0 -1.86856e-30 0)
(-8.63703e-46 -1.26626e-30 0)
(0 -9.7458e-31 0)
(0 -1.10461e-30 0)
(-4.06588e-46 -1.4355e-30 0)
(0 -1.37752e-30 0)
(0 -6.54266e-31 0)
(0 -2.83003e-31 0)
(0 -1.97009e-31 0)
(0 -2.75997e-31 0)
(0 -3.76661e-31 0)
(0 -2.91413e-31 0)
(0 -1.23353e-31 0)
(0 -5.89665e-32 0)
(0 -5.60546e-32 0)
(0 -8.14107e-32 0)
(0 -7.44699e-32 0)
(0 -3.61506e-32 0)
(0 -1.5222e-32 0)
(0 -1.22026e-32 0)
(9.21247e-48 -1.66598e-32 0)
(0 -1.49386e-32 0)
(0 -7.01413e-33 0)
(0 -3.02651e-33 0)
(0 -2.53531e-33 0)
(0 -3.21752e-33 0)
(0 -2.55488e-33 0)
(0 -1.1221e-33 0)
(0 -6.99928e-34 0)
(0 -7.8268e-34 0)
(0 -5.94418e-34 0)
(0 -2.24653e-34 0)
(0 -9.27279e-35 0)
(0 -4.27183e-35 0)
(0 -1.89446e-35 0)
(0 -8.2342e-36 0)
(0 -3.6861e-36 0)
(0 -1.69498e-36 0)
(0 -7.78614e-37 0)
(0 -3.52446e-37 0)
(4.70253e-53 -1.56211e-37 0)
(0 -6.7485e-38 0)
(0 -2.83096e-38 0)
(0 -1.1493e-38 0)
(0 -4.50157e-39 0)
(0 -1.696e-39 0)
(0 -6.12811e-40 0)
(0 -2.11705e-40 0)
(0 -6.96999e-41 0)
(0 -2.17921e-41 0)
(1.17385e-57 -6.44537e-42 0)
(0 -1.79548e-42 0)
(0 -4.68746e-43 0)
(-1.72684e-59 -1.14031e-43 0)
(0 -2.56751e-44 0)
(0 -5.30793e-45 0)
(0 -9.97787e-46 0)
(0 -1.685e-46 0)
(0 -2.51715e-47 0)
(0 -3.25886e-48 0)
(0 -3.55371e-49 0)
(0 -3.12772e-50 0)
(0 -2.06944e-51 0)
(0 -8.92412e-53 0)
(0 -1.65943e-54 0)
(0 -8.95153e-57 0)
(0 -1.85531e-58 0)
(0 -1.90557e-60 0)
(0 -2.65904e-71 0)
(0 -1.87259e-82 0)
(0 -9.84552e-94 0)
(0 -3.77727e-105 0)
(0 -1.29373e-116 0)
(0 -4.01537e-128 0)
(0 -1.83828e-139 0)
(0 -2.13173e-147 0)
(0 -4.57916e-158 0)
(0 -7.33673e-166 0)
(0 -1.5324e-176 0)
(0 -2.52382e-184 0)
(0 -6.56179e-195 0)
(0 -8.67963e-203 0)
(0 -2.97818e-213 0)
(0 -2.98711e-221 0)
(0 -2.02651e-231 0)
(0 -1.03577e-239 0)
(0 -1.34899e-249 0)
(0 -3.6349e-258 0)
(0 -6.85843e-268 0)
(0 -1.29098e-276 0)
(0 -3.25527e-286 0)
(0 -4.64552e-295 0)
(0 -1.43924e-304 0)
(0 -1.69331e-313 0)
(0 -5.92879e-323 0)
(0 -0 0)
(0 0 0)
(0 0 0)
(0 0 0)
(0 0 0)
(0 0 0)
(0 0 0)
(0 0 0)
(0 0 0)
(0 0 0)
(0 0 0)
(0 0 0)
(0 0 0)
(0 0 0)
(0 0 0)
(0 0 0)
(0 0 0)
(0 0 0)
(0 0 0)
)
;

boundaryField
{
    inandouthalf11
    {
        type            cyclic;
    }
    inandouthalf12
    {
        type            cyclic;
    }
    inandouthalf21
    {
        type            cyclic;
    }
    inandouthalf22
    {
        type            cyclic;
    }
    inandouthalf31
    {
        type            cyclic;
    }
    inandouthalf32
    {
        type            cyclic;
    }
    inandouthalf41
    {
        type            cyclic;
    }
    inandouthalf42
    {
        type            cyclic;
    }
    top
    {
        type            symmetryPlane;
    }
    walls
    {
        type            zeroGradient;
    }
    frontAndBackPlanes
    {
        type            empty;
    }
}


// ************************************************************************* //
