/*--------------------------------*- C++ -*----------------------------------*\
| =========                 |                                                 |
| \\      /  F ield         | OpenFOAM: The Open Source CFD Toolbox           |
|  \\    /   O peration     | Version:  2.4.x                                 |
|   \\  /    A nd           | Web:      www.OpenFOAM.org                      |
|    \\/     M anipulation  |                                                 |
\*---------------------------------------------------------------------------*/
FoamFile
{
    version     2.0;
    format      ascii;
    class       volTensorField;
    location    "3.15";
    object      Tauf;
}
// * * * * * * * * * * * * * * * * * * * * * * * * * * * * * * * * * * * * * //

dimensions      [0 2 -2 0 0 0 0];

internalField   nonuniform List<tensor> 
360
(
(0 -5.22281e-07 0 -5.22281e-07 1.98739e-09 0 0 0 0)
(0 2.34164e-10 0 2.34164e-10 3.29882e-09 0 0 0 0)
(0 1.11269e-11 0 1.11269e-11 3.91585e-09 0 0 0 0)
(0 -3.39979e-10 0 -3.39979e-10 3.63521e-09 0 0 0 0)
(5.16988e-23 -3.95013e-10 0 -3.95013e-10 3.25545e-09 0 0 0 0)
(5.16988e-23 -4.02105e-10 0 -4.02105e-10 3.02733e-09 0 0 0 0)
(5.16988e-23 -4.04467e-10 0 -4.04467e-10 2.95021e-09 0 0 0 0)
(0 -3.82188e-10 0 -3.82188e-10 2.94704e-09 0 0 0 0)
(5.16988e-23 -3.59175e-10 0 -3.59175e-10 2.9684e-09 0 0 0 0)
(0 -3.59999e-10 0 -3.59999e-10 3.01983e-09 0 0 0 0)
(5.16988e-23 -3.81096e-10 0 -3.81096e-10 3.14036e-09 0 0 0 0)
(0 -4.18126e-10 0 -4.18126e-10 3.36704e-09 0 0 0 0)
(5.16988e-23 -4.64741e-10 0 -4.64741e-10 3.7006e-09 0 0 0 0)
(0 -5.10439e-10 0 -5.10439e-10 4.06845e-09 0 0 0 0)
(0 -5.38721e-10 0 -5.38721e-10 4.30291e-09 0 0 0 0)
(0 -5.21721e-10 0 -5.21721e-10 4.18395e-09 0 0 0 0)
(0 -4.41806e-10 0 -4.41806e-10 3.58569e-09 0 0 0 0)
(5.16988e-23 -3.15929e-10 0 -3.15929e-10 2.62736e-09 0 0 0 0)
(0 -1.90942e-10 0 -1.90942e-10 1.628e-09 0 0 0 0)
(0 -9.88554e-11 0 -9.88554e-11 8.66263e-10 0 0 0 0)
(0 -4.75372e-11 0 -4.75372e-11 4.16085e-10 0 0 0 0)
(5.16988e-23 -2.58816e-11 0 -2.58816e-11 1.97214e-10 0 0 0 0)
(0 -1.60567e-11 0 -1.60567e-11 1.02986e-10 0 0 0 0)
(0 -1.2273e-11 0 -1.2273e-11 6.48903e-11 0 0 0 0)
(0 -1.10499e-11 0 -1.10499e-11 5.06841e-11 0 0 0 0)
(5.16988e-23 -1.09798e-11 0 -1.09798e-11 4.72272e-11 0 0 0 0)
(0 -1.3605e-11 0 -1.3605e-11 4.93301e-11 0 0 0 0)
(0 -1.65701e-11 0 -1.65701e-11 5.42126e-11 0 0 0 0)
(0 -1.75991e-11 0 -1.75991e-11 5.99001e-11 0 0 0 0)
(0 -1.86021e-11 0 -1.86021e-11 6.49776e-11 0 0 0 0)
(0 -2.14345e-11 0 -2.14345e-11 6.86879e-11 0 0 0 0)
(0 -2.18434e-11 0 -2.18434e-11 7.03259e-11 0 0 0 0)
(0 -2.40743e-11 0 -2.40743e-11 7.05476e-11 0 0 0 0)
(0 -2.61086e-11 0 -2.61086e-11 6.9737e-11 0 0 0 0)
(0 -2.59687e-11 0 -2.59687e-11 6.82868e-11 0 0 0 0)
(-5.16988e-23 -2.78823e-11 0 -2.78823e-11 6.69726e-11 0 0 0 0)
(0 -2.98225e-11 0 -2.98225e-11 6.57549e-11 0 0 0 0)
(0 -3.39005e-11 0 -3.39005e-11 6.52168e-11 0 0 0 0)
(0 -3.39148e-11 0 -3.39148e-11 6.47636e-11 0 0 0 0)
(0 -3.6136e-11 0 -3.6136e-11 6.47858e-11 0 0 0 0)
(0 -4.04214e-11 0 -4.04214e-11 6.52217e-11 0 0 0 0)
(0 -4.05057e-11 0 -4.05057e-11 6.54019e-11 0 0 0 0)
(-5.16988e-23 -4.47145e-11 0 -4.47145e-11 6.60024e-11 0 0 0 0)
(0 -4.88412e-11 0 -4.88412e-11 6.65978e-11 0 0 0 0)
(0 -5.08755e-11 0 -5.08755e-11 6.70831e-11 0 0 0 0)
(0 -5.49423e-11 0 -5.49423e-11 6.78637e-11 0 0 0 0)
(0 -5.67895e-11 0 -5.67895e-11 6.84453e-11 0 0 0 0)
(0 -6.05356e-11 0 -6.05356e-11 6.91018e-11 0 0 0 0)
(0 -6.82203e-11 0 -6.82203e-11 7.01873e-11 0 0 0 0)
(0 -7.17075e-11 0 -7.17075e-11 7.11795e-11 0 0 0 0)
(-5.16988e-23 -7.52057e-11 0 -7.52057e-11 7.24501e-11 0 0 0 0)
(0 -8.06671e-11 0 -8.06671e-11 7.39779e-11 0 0 0 0)
(0 -8.58498e-11 0 -8.58498e-11 7.56273e-11 0 0 0 0)
(0 -9.07165e-11 0 -9.07165e-11 7.74213e-11 0 0 0 0)
(0 -9.72018e-11 0 -9.72018e-11 7.9544e-11 0 0 0 0)
(0 -1.0324e-10 0 -1.0324e-10 8.1851e-11 0 0 0 0)
(0 -1.08794e-10 0 -1.08794e-10 8.43119e-11 0 0 0 0)
(0 -1.15726e-10 0 -1.15726e-10 8.71401e-11 0 0 0 0)
(0 -1.19875e-10 0 -1.19875e-10 8.97678e-11 0 0 0 0)
(0 -1.26851e-10 0 -1.26851e-10 9.26787e-11 0 0 0 0)
(0 -1.32494e-10 0 -1.32494e-10 9.54101e-11 0 0 0 0)
(0 -1.36599e-10 0 -1.36599e-10 9.79168e-11 0 0 0 0)
(0 -1.41076e-10 0 -1.41076e-10 1.00255e-10 0 0 0 0)
(0 -1.44002e-10 0 -1.44002e-10 1.02133e-10 0 0 0 0)
(0 -1.47441e-10 0 -1.47441e-10 1.03749e-10 0 0 0 0)
(0 -1.51583e-10 0 -1.51583e-10 1.05166e-10 0 0 0 0)
(0 -1.56881e-10 0 -1.56881e-10 1.06693e-10 0 0 0 0)
(0 -1.62068e-10 0 -1.62068e-10 1.08509e-10 0 0 0 0)
(0 -1.67139e-10 0 -1.67139e-10 1.10761e-10 0 0 0 0)
(0 -1.74409e-10 0 -1.74409e-10 1.13743e-10 0 0 0 0)
(0 -1.82869e-10 0 -1.82869e-10 1.17627e-10 0 0 0 0)
(0 -1.88055e-10 0 -1.88055e-10 1.22011e-10 0 0 0 0)
(0 -1.94196e-10 0 -1.94196e-10 1.27042e-10 0 0 0 0)
(0 -2.01072e-10 0 -2.01072e-10 1.3239e-10 0 0 0 0)
(0 -2.06743e-10 0 -2.06743e-10 1.37701e-10 0 0 0 0)
(0 -2.11581e-10 0 -2.11581e-10 1.42774e-10 0 0 0 0)
(0 -2.15569e-10 0 -2.15569e-10 1.47255e-10 0 0 0 0)
(0 -2.208e-10 0 -2.208e-10 1.51194e-10 0 0 0 0)
(0 -2.26232e-10 0 -2.26232e-10 1.54566e-10 0 0 0 0)
(0 -2.31432e-10 0 -2.31432e-10 1.57526e-10 0 0 0 0)
(0 -2.37227e-10 0 -2.37227e-10 1.60322e-10 0 0 0 0)
(0 -2.43889e-10 0 -2.43889e-10 1.63205e-10 0 0 0 0)
(0 -2.50406e-10 0 -2.50406e-10 1.66285e-10 0 0 0 0)
(0 -2.56961e-10 0 -2.56961e-10 1.69684e-10 0 0 0 0)
(0 -2.63428e-10 0 -2.63428e-10 1.73358e-10 0 0 0 0)
(0 -2.69762e-10 0 -2.69762e-10 1.77204e-10 0 0 0 0)
(0 -2.75835e-10 0 -2.75835e-10 1.8106e-10 0 0 0 0)
(0 -2.81603e-10 0 -2.81603e-10 1.84735e-10 0 0 0 0)
(0 -2.87572e-10 0 -2.87572e-10 1.88125e-10 0 0 0 0)
(0 -2.93683e-10 0 -2.93683e-10 1.91148e-10 0 0 0 0)
(0 -2.99891e-10 0 -2.99891e-10 1.93799e-10 0 0 0 0)
(0 -3.06454e-10 0 -3.06454e-10 1.96149e-10 0 0 0 0)
(0 -3.13344e-10 0 -3.13344e-10 1.98286e-10 0 0 0 0)
(0 -3.20381e-10 0 -3.20381e-10 2.00294e-10 0 0 0 0)
(0 -3.27588e-10 0 -3.27588e-10 2.02249e-10 0 0 0 0)
(0 -3.34939e-10 0 -3.34939e-10 2.04187e-10 0 0 0 0)
(0 -3.42397e-10 0 -3.42397e-10 2.06115e-10 0 0 0 0)
(0 -3.49981e-10 0 -3.49981e-10 2.08017e-10 0 0 0 0)
(0 -3.57752e-10 0 -3.57752e-10 2.09869e-10 0 0 0 0)
(0 -3.65733e-10 0 -3.65733e-10 2.11641e-10 0 0 0 0)
(0 -3.73946e-10 0 -3.73946e-10 2.13304e-10 0 0 0 0)
(0 -3.82431e-10 0 -3.82431e-10 2.14836e-10 0 0 0 0)
(0 -3.91193e-10 0 -3.91193e-10 2.16211e-10 0 0 0 0)
(0 -4.00222e-10 0 -4.00222e-10 2.17402e-10 0 0 0 0)
(0 -4.09534e-10 0 -4.09534e-10 2.18378e-10 0 0 0 0)
(0 -4.19142e-10 0 -4.19142e-10 2.19108e-10 0 0 0 0)
(0 -4.29063e-10 0 -4.29063e-10 2.19559e-10 0 0 0 0)
(0 -4.39325e-10 0 -4.39325e-10 2.19705e-10 0 0 0 0)
(0 -4.49957e-10 0 -4.49957e-10 2.19529e-10 0 0 0 0)
(0 -4.60987e-10 0 -4.60987e-10 2.19026e-10 0 0 0 0)
(0 -4.72452e-10 0 -4.72452e-10 2.18211e-10 0 0 0 0)
(0 -4.84392e-10 0 -4.84392e-10 2.17122e-10 0 0 0 0)
(0 -4.96853e-10 0 -4.96853e-10 2.15823e-10 0 0 0 0)
(0 -5.09893e-10 0 -5.09893e-10 2.14412e-10 0 0 0 0)
(0 -5.2358e-10 0 -5.2358e-10 2.13021e-10 0 0 0 0)
(0 -5.37993e-10 0 -5.37993e-10 2.11822e-10 0 0 0 0)
(0 -5.53223e-10 0 -5.53223e-10 2.11026e-10 0 0 0 0)
(0 -5.69376e-10 0 -5.69376e-10 2.10886e-10 0 0 0 0)
(0 -5.86568e-10 0 -5.86568e-10 2.11688e-10 0 0 0 0)
(0 -6.04924e-10 0 -6.04924e-10 2.13748e-10 0 0 0 0)
(0 -6.24568e-10 0 -6.24568e-10 2.17402e-10 0 0 0 0)
(0 -6.45619e-10 0 -6.45619e-10 2.22991e-10 0 0 0 0)
(0 -6.68196e-10 0 -6.68196e-10 2.30846e-10 0 0 0 0)
(0 -6.92442e-10 0 -6.92442e-10 2.41264e-10 0 0 0 0)
(0 -7.18577e-10 0 -7.18577e-10 2.5449e-10 0 0 0 0)
(0 -7.46941e-10 0 -7.46941e-10 2.70682e-10 0 0 0 0)
(0 -7.77982e-10 0 -7.77982e-10 2.8987e-10 0 0 0 0)
(0 -8.12076e-10 0 -8.12076e-10 3.11864e-10 0 0 0 0)
(0 -8.49186e-10 0 -8.49186e-10 3.36119e-10 0 0 0 0)
(0 -8.88636e-10 0 -8.88636e-10 3.61567e-10 0 0 0 0)
(0 -9.2966e-10 0 -9.2966e-10 3.8658e-10 0 0 0 0)
(0 -9.73268e-10 0 -9.73268e-10 4.09236e-10 0 0 0 0)
(0 -1.02349e-09 0 -1.02349e-09 4.27895e-10 0 0 0 0)
(0 -1.08324e-09 0 -1.08324e-09 4.4124e-10 0 0 0 0)
(0 -1.14664e-09 0 -1.14664e-09 4.46901e-10 0 0 0 0)
(0 -1.20367e-09 0 -1.20367e-09 4.40316e-10 0 0 0 0)
(0 -1.26019e-09 0 -1.26019e-09 4.16403e-10 0 0 0 0)
(0 -1.34706e-09 0 -1.34706e-09 3.72763e-10 0 0 0 0)
(0 -1.4894e-09 0 -1.4894e-09 3.11174e-10 0 0 0 0)
(0 -1.62622e-09 0 -1.62622e-09 2.32846e-10 0 0 0 0)
(0 -1.61954e-09 0 -1.61954e-09 1.24243e-10 0 0 0 0)
(0 -1.68916e-09 0 -1.68916e-09 5.47142e-12 0 0 0 0)
(0 -2.07962e-09 0 -2.07962e-09 -8.86023e-11 0 0 0 0)
(0 -2.60475e-09 0 -2.60475e-09 -1.93691e-10 0 0 0 0)
(0 -3.73907e-09 0 -3.73907e-09 -5.52411e-10 0 0 0 0)
(0 -9.93127e-09 0 -9.93127e-09 1.70167e-09 0 0 0 0)
(0 -1.01246e-08 0 -1.01246e-08 5.80298e-09 0 0 0 0)
(0 -2.64104e-08 0 -2.64104e-08 1.63135e-08 0 0 0 0)
(0 -6.5736e-06 0 -6.5736e-06 -4.29121e-08 0 0 0 0)
(0 -0.000125882 0 -0.000125882 -4.15352e-07 0 0 0 0)
(0 -0.000631919 0 -0.000631919 1.03851e-06 0 0 0 0)
(0 -0.000984323 0 -0.000984323 4.12864e-06 0 0 0 0)
(0 -0.000706401 0 -0.000706401 -9.22157e-07 0 0 0 0)
(0 -0.000502635 0 -0.000502635 2.20786e-06 0 0 0 0)
(0 -0.000307337 0 -0.000307337 -1.9848e-06 0 0 0 0)
(0 -0.000129458 0 -0.000129458 -1.4542e-06 0 0 0 0)
(0 3.28841e-05 0 3.28841e-05 -1.84729e-06 0 0 0 0)
(0 0.000183336 0 0.000183336 -2.16243e-06 0 0 0 0)
(0 0.000323963 0 0.000323963 -2.33347e-06 0 0 0 0)
(0 0.000455834 0 0.000455834 -2.40724e-06 0 0 0 0)
(0 0.000579625 0 0.000579625 -2.42718e-06 0 0 0 0)
(0 0.000695777 0 0.000695777 -2.41192e-06 0 0 0 0)
(0 0.00080463 0 0.00080463 -2.3704e-06 0 0 0 0)
(0 0.00090648 0 0.00090648 -2.30895e-06 0 0 0 0)
(0 0.0010016 0 0.0010016 -2.23257e-06 0 0 0 0)
(0 0.00109024 0 0.00109024 -2.14513e-06 0 0 0 0)
(0 0.00117264 0 0.00117264 -2.04955e-06 0 0 0 0)
(0 0.00124904 0 0.00124904 -1.94816e-06 0 0 0 0)
(0 0.00131964 0 0.00131964 -1.84282e-06 0 0 0 0)
(0 0.00138465 0 0.00138465 -1.73505e-06 0 0 0 0)
(0 0.00144426 0 0.00144426 -1.62611e-06 0 0 0 0)
(0 0.00149865 0 0.00149865 -1.51701e-06 0 0 0 0)
(0 0.00154799 0 0.00154799 -1.40859e-06 0 0 0 0)
(0 0.00159242 0 0.00159242 -1.30156e-06 0 0 0 0)
(0 0.00163209 0 0.00163209 -1.19654e-06 0 0 0 0)
(0 0.00166713 0 0.00166713 -1.09419e-06 0 0 0 0)
(0 0.00169768 0 0.00169768 -9.95228e-07 0 0 0 0)
(0 0.00172383 0 0.00172383 -9.00433e-07 0 0 0 0)
(0 0.00174571 0 0.00174571 -8.1063e-07 0 0 0 0)
(0 0.00176341 0 0.00176341 -7.26596e-07 0 0 0 0)
(0 0.00177702 0 0.00177702 -6.48954e-07 0 0 0 0)
(0 0.00178663 0 0.00178663 -5.78102e-07 0 0 0 0)
(0 0.00179233 0 0.00179233 -5.1416e-07 0 0 0 0)
(0 0.0017942 0 0.0017942 -4.56974e-07 0 0 0 0)
(0 0.00179231 0 0.00179231 -4.06146e-07 0 0 0 0)
(0 0.00178675 0 0.00178675 -3.61078e-07 0 0 0 0)
(0 0.00177758 0 0.00177758 -3.2101e-07 0 0 0 0)
(0 0.00176488 0 0.00176488 -2.85018e-07 0 0 0 0)
(0 0.00174872 0 0.00174872 -2.5197e-07 0 0 0 0)
(0 0.00172917 0 0.00172917 -2.20512e-07 0 0 0 0)
(0 0.00170627 0 0.00170627 -1.89224e-07 0 0 0 0)
(0 0.00168011 0 0.00168011 -1.57117e-07 0 0 0 0)
(0 0.00165072 0 0.00165072 -1.24384e-07 0 0 0 0)
(0 0.00161817 0 0.00161817 -9.27892e-08 0 0 0 0)
(0 0.00158254 0 0.00158254 -6.5071e-08 0 0 0 0)
(0 0.00154389 0 0.00154389 -4.34778e-08 0 0 0 0)
(0 0.00150232 0 0.00150232 -2.8552e-08 0 0 0 0)
(0 0.00145792 0 0.00145792 -1.91429e-08 0 0 0 0)
(0 0.00141079 0 0.00141079 -1.33991e-08 0 0 0 0)
(0 0.00136103 0 0.00136103 -9.75645e-09 0 0 0 0)
(0 0.00130875 0 0.00130875 -7.31553e-09 0 0 0 0)
(0 0.00125349 0 0.00125349 -5.63793e-09 0 0 0 0)
(7.60033e-19 0.00119469 0 0.00119469 -4.42253e-09 0 0 0 0)
(0 0.00113232 0 0.00113232 -3.44111e-09 0 0 0 0)
(0 0.00106635 0 0.00106635 -2.65317e-09 0 0 0 0)
(-3.10065e-19 0.000996786 0 0.000996786 -2.10032e-09 0 0 0 0)
(0 0.000923667 0 0.000923667 -1.6882e-09 0 0 0 0)
(2.04781e-21 0.000847079 0 0.000847079 -1.30911e-09 0 0 0 0)
(0 0.000767165 0 0.000767165 -9.96829e-10 0 0 0 0)
(2.13167e-19 0.00068415 0 0.00068415 -7.80237e-10 0 0 0 0)
(0 0.000598362 0 0.000598362 -6.07054e-10 0 0 0 0)
(0 0.000510272 0 0.000510272 -4.53969e-10 0 0 0 0)
(0 0.000420557 0 0.000420557 -3.3303e-10 0 0 0 0)
(2.25137e-19 0.000330202 0 0.000330202 -2.37205e-10 0 0 0 0)
(0 0.000240697 0 0.000240697 -1.58523e-10 0 0 0 0)
(0 0.000154356 0 0.000154356 -9.63531e-11 0 0 0 0)
(0 7.25156e-05 0 7.25156e-05 -5.59801e-11 0 0 0 0)
(0 1.22147e-05 0 1.22147e-05 -1.06875e-11 0 0 0 0)
(0 7.92466e-07 0 7.92466e-07 -3.58755e-12 0 0 0 0)
(0 1.40227e-07 0 1.40227e-07 -1.6306e-12 0 0 0 0)
(0 1.0034e-07 0 1.0034e-07 -2.36412e-12 0 0 0 0)
(-8.67875e-21 8.79782e-08 0 8.79782e-08 -1.01968e-12 0 0 0 0)
(0 7.73723e-08 0 7.73723e-08 -1.87444e-12 0 0 0 0)
(0 6.79041e-08 0 6.79041e-08 -5.64374e-13 0 0 0 0)
(0 5.95132e-08 0 5.95132e-08 -1.61041e-12 0 0 0 0)
(0 5.1979e-08 0 5.1979e-08 -2.31419e-13 0 0 0 0)
(0 4.52467e-08 0 4.52467e-08 -1.316e-12 0 0 0 0)
(0 3.93446e-08 0 3.93446e-08 1.68405e-14 0 0 0 0)
(7.53997e-21 3.41012e-08 0 3.41012e-08 -1.1541e-12 0 0 0 0)
(7.38998e-21 2.94579e-08 0 2.94579e-08 2.17605e-13 0 0 0 0)
(0 2.53979e-08 0 2.53979e-08 -1.00312e-12 0 0 0 0)
(0 2.18292e-08 0 2.18292e-08 3.23097e-13 0 0 0 0)
(0 1.87012e-08 0 1.87012e-08 -8.64868e-13 0 0 0 0)
(0 1.59765e-08 0 1.59765e-08 3.917e-13 0 0 0 0)
(0 1.36109e-08 0 1.36109e-08 -7.66597e-13 0 0 0 0)
(0 1.15528e-08 0 1.15528e-08 4.21845e-13 0 0 0 0)
(0 9.76902e-09 0 9.76902e-09 -6.8083e-13 0 0 0 0)
(0 8.22437e-09 0 8.22437e-09 4.66077e-13 0 0 0 0)
(0 6.87234e-09 0 6.87234e-09 -5.46841e-13 0 0 0 0)
(0 5.6711e-09 0 5.6711e-09 5.95283e-13 0 0 0 0)
(0 4.63539e-09 0 4.63539e-09 -6.27832e-13 0 0 0 0)
(0 4.16274e-09 0 4.16274e-09 6.28258e-13 0 0 0 0)
(0 3.65031e-09 0 3.65031e-09 -8.99098e-13 0 0 0 0)
(-1.11557e-20 2.82699e-09 0 2.82699e-09 4.31912e-13 0 0 0 0)
(1.09338e-20 2.28375e-09 0 2.28375e-09 -4.34082e-13 0 0 0 0)
(0 1.86891e-09 0 1.86891e-09 4.35059e-13 0 0 0 0)
(0 1.52528e-09 0 1.52528e-09 -4.35844e-13 0 0 0 0)
(-1.02942e-20 1.23715e-09 0 1.23715e-09 4.35554e-13 0 0 0 0)
(0 9.98237e-10 0 9.98237e-10 -4.35107e-13 0 0 0 0)
(0 8.02298e-10 0 8.02298e-10 4.33701e-13 0 0 0 0)
(0 6.4217e-10 0 6.4217e-10 -4.32176e-13 0 0 0 0)
(0 5.11249e-10 0 5.11249e-10 4.29803e-13 0 0 0 0)
(0 4.0492e-10 0 4.0492e-10 -4.27334e-13 0 0 0 0)
(0 3.19525e-10 0 3.19525e-10 4.241e-13 0 0 0 0)
(0 2.5134e-10 0 2.5134e-10 -4.20795e-13 0 0 0 0)
(0 1.96971e-10 0 1.96971e-10 4.16808e-13 0 0 0 0)
(0 1.53735e-10 0 1.53735e-10 -4.12767e-13 0 0 0 0)
(0 1.19515e-10 0 1.19515e-10 4.08119e-13 0 0 0 0)
(0 9.25473e-11 0 9.25473e-11 -4.03427e-13 0 0 0 0)
(0 7.13588e-11 0 7.13588e-11 3.982e-13 0 0 0 0)
(0 5.47618e-11 0 5.47618e-11 -3.92935e-13 0 0 0 0)
(0 4.18081e-11 0 4.18081e-11 3.87203e-13 0 0 0 0)
(0 3.17468e-11 0 3.17468e-11 -3.81433e-13 0 0 0 0)
(0 2.39725e-11 0 2.39725e-11 3.75264e-13 0 0 0 0)
(0 1.79993e-11 0 1.79993e-11 -3.69049e-13 0 0 0 0)
(0 1.34363e-11 0 1.34363e-11 3.62503e-13 0 0 0 0)
(0 9.97053e-12 0 9.97053e-12 -3.55896e-13 0 0 0 0)
(0 7.3539e-12 0 7.3539e-12 3.49031e-13 0 0 0 0)
(0 5.39071e-12 0 5.39071e-12 -3.42094e-13 0 0 0 0)
(0 3.92671e-12 0 3.92671e-12 3.34932e-13 0 0 0 0)
(0 2.84172e-12 0 2.84172e-12 -3.27707e-13 0 0 0 0)
(0 2.04368e-12 0 2.04368e-12 3.20297e-13 0 0 0 0)
(0 1.45995e-12 0 1.45995e-12 -3.12826e-13 0 0 0 0)
(0 1.03554e-12 0 1.03554e-12 3.05201e-13 0 0 0 0)
(0 7.28907e-13 0 7.28907e-13 -2.97518e-13 0 0 0 0)
(0 5.09986e-13 0 5.09986e-13 2.89708e-13 0 0 0 0)
(0 3.54856e-13 0 3.54856e-13 -2.81845e-13 0 0 0 0)
(0 2.44743e-13 0 2.44743e-13 2.73875e-13 0 0 0 0)
(0 1.66875e-13 0 1.66875e-13 -2.65857e-13 0 0 0 0)
(0 1.12905e-13 0 1.12905e-13 2.57748e-13 0 0 0 0)
(0 7.62521e-14 0 7.62521e-14 -2.49594e-13 0 0 0 0)
(0 5.12668e-14 0 5.12668e-14 2.41362e-13 0 0 0 0)
(0 3.37872e-14 0 3.37872e-14 -2.33087e-13 0 0 0 0)
(0 2.23567e-14 0 2.23567e-14 2.2474e-13 0 0 0 0)
(0 1.47245e-14 0 1.47245e-14 -2.16352e-13 0 0 0 0)
(0 9.38914e-15 0 9.38914e-15 2.07893e-13 0 0 0 0)
(9.40325e-21 6.0169e-15 0 6.0169e-15 -1.99387e-13 0 0 0 0)
(0 3.7603e-15 0 3.7603e-15 1.90818e-13 0 0 0 0)
(0 2.34042e-15 0 2.34042e-15 -1.82194e-13 0 0 0 0)
(0 1.3863e-15 0 1.3863e-15 1.73481e-13 0 0 0 0)
(0 7.76581e-16 0 7.76581e-16 -1.64708e-13 0 0 0 0)
(0 6.68062e-16 0 6.68062e-16 1.55824e-13 0 0 0 0)
(0 4.95721e-16 0 4.95721e-16 -1.46855e-13 0 0 0 0)
(0 1.95649e-16 0 1.95649e-16 1.37741e-13 0 0 0 0)
(0 -1.10569e-16 0 -1.10569e-16 -1.28495e-13 0 0 0 0)
(0 -2.27118e-16 0 -2.27118e-16 1.19043e-13 0 0 0 0)
(7.69149e-21 1.44517e-16 0 1.44517e-16 -1.09394e-13 0 0 0 0)
(0 2.436e-16 0 2.436e-16 9.93928e-14 0 0 0 0)
(0 7.47145e-17 0 7.47145e-17 -8.90331e-14 0 0 0 0)
(-7.24153e-21 -1.25427e-16 0 -1.25427e-16 7.81494e-14 0 0 0 0)
(0 -5.7564e-17 0 -5.7564e-17 -6.65039e-14 0 0 0 0)
(0 -6.86063e-18 0 -6.86063e-18 5.36679e-14 0 0 0 0)
(0 1.76413e-17 0 1.76413e-17 -3.84987e-14 0 0 0 0)
(0 1.41931e-16 0 1.41931e-16 8.31871e-15 0 0 0 0)
(0 -1.18987e-16 0 -1.18987e-16 2.22075e-14 0 0 0 0)
(0 -2.54837e-16 0 -2.54837e-16 -3.59229e-14 0 0 0 0)
(0 2.00812e-16 0 2.00812e-16 4.41828e-14 0 0 0 0)
(0 3.16763e-16 0 3.16763e-16 -5.04617e-14 0 0 0 0)
(0 -1.72405e-16 0 -1.72405e-16 5.56067e-14 0 0 0 0)
(0 -2.72236e-16 0 -2.72236e-16 -5.97807e-14 0 0 0 0)
(0 8.88723e-18 0 8.88723e-18 7.12944e-14 0 0 0 0)
(0 -4.93827e-18 0 -4.93827e-18 -7.45136e-14 0 0 0 0)
(0 -2.36541e-17 0 -2.36541e-17 7.71948e-14 0 0 0 0)
(0 4.90435e-17 0 4.90435e-17 -7.95948e-14 0 0 0 0)
(0 -1.16881e-17 0 -1.16881e-17 8.17421e-14 0 0 0 0)
(0 -1.65221e-17 0 -1.65221e-17 -8.36672e-14 0 0 0 0)
(0 2.96213e-17 0 2.96213e-17 8.53849e-14 0 0 0 0)
(0 -6.68527e-18 0 -6.68527e-18 -8.69183e-14 0 0 0 0)
(0 -1.72186e-17 0 -1.72186e-17 8.82743e-14 0 0 0 0)
(0 -3.17472e-18 0 -3.17472e-18 -8.94724e-14 0 0 0 0)
(0 2.59321e-17 0 2.59321e-17 9.05135e-14 0 0 0 0)
(0 1.84147e-17 0 1.84147e-17 -9.14145e-14 0 0 0 0)
(0 -2.26068e-17 0 -2.26068e-17 9.21733e-14 0 0 0 0)
(0 4.62725e-18 0 4.62725e-18 -9.28048e-14 0 0 0 0)
(0 -4.34766e-18 0 -4.34766e-18 9.33045e-14 0 0 0 0)
(0 2.18541e-18 0 2.18541e-18 -9.36863e-14 0 0 0 0)
(0 2.35564e-17 0 2.35564e-17 9.39429e-14 0 0 0 0)
(0 -1.95231e-17 0 -1.95231e-17 -9.40913e-14 0 0 0 0)
(0 3.72397e-18 0 3.72397e-18 9.41124e-14 0 0 0 0)
(0 -1.14399e-17 0 -1.14399e-17 -9.4043e-14 0 0 0 0)
(0 -2.54772e-17 0 -2.54772e-17 9.38383e-14 0 0 0 0)
(0 3.10375e-17 0 3.10375e-17 -9.35457e-14 0 0 0 0)
(0 2.50073e-17 0 2.50073e-17 9.31242e-14 0 0 0 0)
(0 -3.22898e-17 0 -3.22898e-17 -9.26095e-14 0 0 0 0)
(0 6.11948e-18 0 6.11948e-18 9.19754e-14 0 0 0 0)
(0 2.15117e-17 0 2.15117e-17 -9.12333e-14 0 0 0 0)
(0 -2.32537e-17 0 -2.32537e-17 9.03812e-14 0 0 0 0)
(0 -2.34009e-17 0 -2.34009e-17 -8.94193e-14 0 0 0 0)
(0 -3.78005e-17 0 -3.78005e-17 8.83451e-14 0 0 0 0)
(0 -8.72014e-18 0 -8.72014e-18 -8.71449e-14 0 0 0 0)
(0 -3.99512e-17 0 -3.99512e-17 8.58446e-14 0 0 0 0)
(0 6.89538e-18 0 6.89538e-18 -8.44011e-14 0 0 0 0)
(0 4.35858e-17 0 4.35858e-17 8.28589e-14 0 0 0 0)
(0 -9.40835e-18 0 -9.40835e-18 -8.11579e-14 0 0 0 0)
(0 1.28329e-17 0 1.28329e-17 7.93569e-14 0 0 0 0)
(0 5.81343e-18 0 5.81343e-18 -7.73774e-14 0 0 0 0)
(0 1.94371e-17 0 1.94371e-17 7.52799e-14 0 0 0 0)
(0 2.18012e-17 0 2.18012e-17 -7.30048e-14 0 0 0 0)
(0 -1.74833e-17 0 -1.74833e-17 7.05619e-14 0 0 0 0)
(0 -4.93165e-17 0 -4.93165e-17 -6.79428e-14 0 0 0 0)
(0 -7.95748e-19 0 -7.95748e-19 6.51003e-14 0 0 0 0)
(0 9.19395e-17 0 9.19395e-17 -6.20561e-14 0 0 0 0)
(0 4.26312e-17 0 4.26312e-17 5.86969e-14 0 0 0 0)
(0 -4.81949e-17 0 -4.81949e-17 -5.51561e-14 0 0 0 0)
(0 -2.56674e-17 0 -2.56674e-17 5.1146e-14 0 0 0 0)
(0 1.93643e-17 0 1.93643e-17 -4.67416e-14 0 0 0 0)
(0 2.11295e-17 0 2.11295e-17 4.17386e-14 0 0 0 0)
(0 -2.28533e-17 0 -2.28533e-17 -3.58004e-14 0 0 0 0)
(0 -1.21265e-17 0 -1.21265e-17 2.85951e-14 0 0 0 0)
(0 1.43251e-17 0 1.43251e-17 -1.22411e-14 0 0 0 0)
)
;

boundaryField
{
    inandouthalf11
    {
        type            cyclic;
    }
    inandouthalf12
    {
        type            cyclic;
    }
    inandouthalf21
    {
        type            cyclic;
    }
    inandouthalf22
    {
        type            cyclic;
    }
    inandouthalf31
    {
        type            cyclic;
    }
    inandouthalf32
    {
        type            cyclic;
    }
    inandouthalf41
    {
        type            cyclic;
    }
    inandouthalf42
    {
        type            cyclic;
    }
    top
    {
        type            symmetryPlane;
    }
    walls
    {
        type            zeroGradient;
    }
    frontAndBackPlanes
    {
        type            empty;
    }
}


// ************************************************************************* //
