/*--------------------------------*- C++ -*----------------------------------*\
| =========                 |                                                 |
| \\      /  F ield         | OpenFOAM: The Open Source CFD Toolbox           |
|  \\    /   O peration     | Version:  2.4.x                                 |
|   \\  /    A nd           | Web:      www.OpenFOAM.org                      |
|    \\/     M anipulation  |                                                 |
\*---------------------------------------------------------------------------*/
FoamFile
{
    version     2.0;
    format      ascii;
    class       volTensorField;
    location    "3.15";
    object      Taus;
}
// * * * * * * * * * * * * * * * * * * * * * * * * * * * * * * * * * * * * * //

dimensions      [0 2 -2 0 0 0 0];

internalField   nonuniform List<tensor> 
360
(
(0 -0.0174343 0 -0.0174343 -0.169027 0 0 0 0)
(0 -0.0205402 0 -0.0205402 -0.182272 0 0 0 0)
(0 -0.023346 0 -0.023346 -0.189069 0 0 0 0)
(0 -0.0243247 0 -0.0243247 -0.189092 0 0 0 0)
(1.85945e-17 -0.0241681 0 -0.0241681 -0.187664 0 0 0 0)
(9.84183e-18 -0.0237322 0 -0.0237322 -0.186043 0 0 0 0)
(1.98494e-17 -0.023193 0 -0.023193 -0.184145 0 0 0 0)
(0 -0.0226982 0 -0.0226982 -0.182329 0 0 0 0)
(1.92935e-17 -0.0223449 0 -0.0223449 -0.180878 0 0 0 0)
(0 -0.0220586 0 -0.0220586 -0.179551 0 0 0 0)
(1.80811e-17 -0.021738 0 -0.021738 -0.178132 0 0 0 0)
(0 -0.0213306 0 -0.0213306 -0.176546 0 0 0 0)
(1.49657e-17 -0.0208171 0 -0.0208171 -0.174732 0 0 0 0)
(0 -0.02022 0 -0.02022 -0.172747 0 0 0 0)
(0 -0.0195751 0 -0.0195751 -0.170632 0 0 0 0)
(0 -0.0189429 0 -0.0189429 -0.168502 0 0 0 0)
(0 -0.0184062 0 -0.0184062 -0.166579 0 0 0 0)
(7.90597e-17 -0.018039 0 -0.018039 -0.165098 0 0 0 0)
(0 -0.0178737 0 -0.0178737 -0.164141 0 0 0 0)
(0 -0.0178955 0 -0.0178955 -0.163553 0 0 0 0)
(0 -0.0180915 0 -0.0180915 -0.163209 0 0 0 0)
(6.03411e-16 -0.0184445 0 -0.0184445 -0.162854 0 0 0 0)
(0 -0.0189815 0 -0.0189815 -0.162446 0 0 0 0)
(0 -0.0197192 0 -0.0197192 -0.161965 0 0 0 0)
(0 -0.0206033 0 -0.0206033 -0.161441 0 0 0 0)
(2.18634e-15 -0.0215328 0 -0.0215328 -0.160921 0 0 0 0)
(0 -0.0224233 0 -0.0224233 -0.160438 0 0 0 0)
(0 -0.0232351 0 -0.0232351 -0.159959 0 0 0 0)
(0 -0.0239837 0 -0.0239837 -0.159513 0 0 0 0)
(0 -0.0246911 0 -0.0246911 -0.159081 0 0 0 0)
(0 -0.0253704 0 -0.0253704 -0.158652 0 0 0 0)
(0 -0.0260285 0 -0.0260285 -0.158174 0 0 0 0)
(0 -0.0266873 0 -0.0266873 -0.157727 0 0 0 0)
(0 -0.0273257 0 -0.0273257 -0.157188 0 0 0 0)
(0 -0.0279706 0 -0.0279706 -0.156678 0 0 0 0)
(-1.44802e-15 -0.0286077 0 -0.0286077 -0.156117 0 0 0 0)
(0 -0.0292382 0 -0.0292382 -0.155552 0 0 0 0)
(0 -0.0298475 0 -0.0298475 -0.154947 0 0 0 0)
(0 -0.0304387 0 -0.0304387 -0.154302 0 0 0 0)
(0 -0.031032 0 -0.031032 -0.153694 0 0 0 0)
(0 -0.0315926 0 -0.0315926 -0.15301 0 0 0 0)
(0 -0.0321425 0 -0.0321425 -0.152328 0 0 0 0)
(-1.40534e-15 -0.0326826 0 -0.0326826 -0.151647 0 0 0 0)
(0 -0.033186 0 -0.033186 -0.150898 0 0 0 0)
(0 -0.0336758 0 -0.0336758 -0.150155 0 0 0 0)
(0 -0.0341439 0 -0.0341439 -0.149379 0 0 0 0)
(0 -0.0345915 0 -0.0345915 -0.148573 0 0 0 0)
(0 -0.0350295 0 -0.0350295 -0.147774 0 0 0 0)
(0 -0.0354249 0 -0.0354249 -0.146921 0 0 0 0)
(0 -0.0357793 0 -0.0357793 -0.146017 0 0 0 0)
(-2.39846e-15 -0.0361231 0 -0.0361231 -0.145129 0 0 0 0)
(0 -0.0364335 0 -0.0364335 -0.144187 0 0 0 0)
(0 -0.0367163 0 -0.0367163 -0.143235 0 0 0 0)
(0 -0.0369659 0 -0.0369659 -0.142238 0 0 0 0)
(0 -0.0371895 0 -0.0371895 -0.141238 0 0 0 0)
(0 -0.0373675 0 -0.0373675 -0.140174 0 0 0 0)
(0 -0.0375232 0 -0.0375232 -0.139118 0 0 0 0)
(0 -0.0376377 0 -0.0376377 -0.138008 0 0 0 0)
(0 -0.0377268 0 -0.0377268 -0.136884 0 0 0 0)
(0 -0.0377931 0 -0.0377931 -0.135751 0 0 0 0)
(0 -0.0378176 0 -0.0378176 -0.134562 0 0 0 0)
(0 -0.03783 0 -0.03783 -0.133387 0 0 0 0)
(0 -0.0378193 0 -0.0378193 -0.132172 0 0 0 0)
(0 -0.0378009 0 -0.0378009 -0.130961 0 0 0 0)
(0 -0.0377722 0 -0.0377722 -0.129731 0 0 0 0)
(0 -0.0377327 0 -0.0377327 -0.128496 0 0 0 0)
(0 -0.0376718 0 -0.0376718 -0.127241 0 0 0 0)
(0 -0.0375885 0 -0.0375885 -0.12597 0 0 0 0)
(0 -0.0374851 0 -0.0374851 -0.124683 0 0 0 0)
(0 -0.0373586 0 -0.0373586 -0.123389 0 0 0 0)
(0 -0.0371917 0 -0.0371917 -0.122061 0 0 0 0)
(0 -0.0369979 0 -0.0369979 -0.120713 0 0 0 0)
(0 -0.0367949 0 -0.0367949 -0.119372 0 0 0 0)
(0 -0.0365658 0 -0.0365658 -0.117998 0 0 0 0)
(0 -0.0363236 0 -0.0363236 -0.116623 0 0 0 0)
(0 -0.0360687 0 -0.0360687 -0.115229 0 0 0 0)
(0 -0.0358141 0 -0.0358141 -0.113838 0 0 0 0)
(0 -0.0355532 0 -0.0355532 -0.112437 0 0 0 0)
(0 -0.0352818 0 -0.0352818 -0.111027 0 0 0 0)
(0 -0.0349997 0 -0.0349997 -0.109608 0 0 0 0)
(0 -0.0347077 0 -0.0347077 -0.108184 0 0 0 0)
(0 -0.0343996 0 -0.0343996 -0.106749 0 0 0 0)
(0 -0.034075 0 -0.034075 -0.105304 0 0 0 0)
(0 -0.0337364 0 -0.0337364 -0.103851 0 0 0 0)
(0 -0.0333847 0 -0.0333847 -0.10239 0 0 0 0)
(0 -0.033023 0 -0.033023 -0.100923 0 0 0 0)
(0 -0.0326527 0 -0.0326527 -0.0994488 0 0 0 0)
(0 -0.0322776 0 -0.0322776 -0.0979709 0 0 0 0)
(0 -0.0318982 0 -0.0318982 -0.0964886 0 0 0 0)
(0 -0.0315138 0 -0.0315138 -0.0950012 0 0 0 0)
(0 -0.0311244 0 -0.0311244 -0.0935096 0 0 0 0)
(0 -0.0307295 0 -0.0307295 -0.0920137 0 0 0 0)
(0 -0.0303275 0 -0.0303275 -0.0905126 0 0 0 0)
(0 -0.0299184 0 -0.0299184 -0.0890068 0 0 0 0)
(0 -0.0295025 0 -0.0295025 -0.0874964 0 0 0 0)
(0 -0.0290801 0 -0.0290801 -0.0859817 0 0 0 0)
(0 -0.028652 0 -0.028652 -0.084463 0 0 0 0)
(0 -0.0282189 0 -0.0282189 -0.0829406 0 0 0 0)
(0 -0.0277815 0 -0.0277815 -0.0814148 0 0 0 0)
(0 -0.0273401 0 -0.0273401 -0.0798856 0 0 0 0)
(0 -0.0268948 0 -0.0268948 -0.0783533 0 0 0 0)
(0 -0.026446 0 -0.026446 -0.076818 0 0 0 0)
(0 -0.0259938 0 -0.0259938 -0.0752796 0 0 0 0)
(0 -0.0255382 0 -0.0255382 -0.0737385 0 0 0 0)
(0 -0.0250796 0 -0.0250796 -0.0721946 0 0 0 0)
(0 -0.0246183 0 -0.0246183 -0.0706482 0 0 0 0)
(0 -0.0241544 0 -0.0241544 -0.0690993 0 0 0 0)
(0 -0.0236883 0 -0.0236883 -0.0675481 0 0 0 0)
(0 -0.02322 0 -0.02322 -0.0659946 0 0 0 0)
(0 -0.0227499 0 -0.0227499 -0.0644389 0 0 0 0)
(0 -0.0222781 0 -0.0222781 -0.0628811 0 0 0 0)
(0 -0.0218049 0 -0.0218049 -0.0613212 0 0 0 0)
(0 -0.0213305 0 -0.0213305 -0.0597595 0 0 0 0)
(0 -0.0208551 0 -0.0208551 -0.0581959 0 0 0 0)
(0 -0.020379 0 -0.020379 -0.0566307 0 0 0 0)
(0 -0.0199024 0 -0.0199024 -0.0550639 0 0 0 0)
(0 -0.0194258 0 -0.0194258 -0.0534958 0 0 0 0)
(0 -0.0189493 0 -0.0189493 -0.0519265 0 0 0 0)
(0 -0.0184732 0 -0.0184732 -0.0503565 0 0 0 0)
(0 -0.0179979 0 -0.0179979 -0.0487859 0 0 0 0)
(0 -0.0175236 0 -0.0175236 -0.0472153 0 0 0 0)
(0 -0.0170507 0 -0.0170507 -0.045645 0 0 0 0)
(0 -0.0165798 0 -0.0165798 -0.0440756 0 0 0 0)
(0 -0.0161116 0 -0.0161116 -0.0425074 0 0 0 0)
(0 -0.0156468 0 -0.0156468 -0.040941 0 0 0 0)
(0 -0.0151857 0 -0.0151857 -0.0393768 0 0 0 0)
(0 -0.0147285 0 -0.0147285 -0.0378149 0 0 0 0)
(0 -0.0142747 0 -0.0142747 -0.0362553 0 0 0 0)
(0 -0.013824 0 -0.013824 -0.0346978 0 0 0 0)
(0 -0.0133771 0 -0.0133771 -0.0331421 0 0 0 0)
(0 -0.0129367 0 -0.0129367 -0.0315879 0 0 0 0)
(0 -0.012505 0 -0.012505 -0.0300359 0 0 0 0)
(0 -0.0120791 0 -0.0120791 -0.028486 0 0 0 0)
(0 -0.0116486 0 -0.0116486 -0.0269361 0 0 0 0)
(0 -0.0112068 0 -0.0112068 -0.0253826 0 0 0 0)
(0 -0.0107634 0 -0.0107634 -0.0238267 0 0 0 0)
(0 -0.0103332 0 -0.0103332 -0.0222731 0 0 0 0)
(0 -0.00990077 0 -0.00990077 -0.0207253 0 0 0 0)
(0 -0.00940867 0 -0.00940867 -0.0191819 0 0 0 0)
(0 -0.00882477 0 -0.00882477 -0.0176204 0 0 0 0)
(0 -0.00825758 0 -0.00825758 -0.0160279 0 0 0 0)
(0 -0.00785954 0 -0.00785954 -0.0144792 0 0 0 0)
(0 -0.00745067 0 -0.00745067 -0.0127251 0 0 0 0)
(0 -0.00698248 0 -0.00698248 -0.0105959 0 0 0 0)
(0 -0.00684125 0 -0.00684125 -0.00726029 0 0 0 0)
(0 -0.00564921 0 -0.00564921 -0.00504467 0 0 0 0)
(0 -0.00230917 0 -0.00230917 -0.00321661 0 0 0 0)
(0 -0.00290724 0 -0.00290724 -0.00127442 0 0 0 0)
(0 -0.0019535 0 -0.0019535 1.70188e-06 0 0 0 0)
(0 -0.00120908 0 -0.00120908 1.11749e-05 0 0 0 0)
(0 -0.00104413 0 -0.00104413 -7.27787e-06 0 0 0 0)
(0 -0.00198745 0 -0.00198745 -0.000144908 0 0 0 0)
(0 -0.00191839 0 -0.00191839 -0.000528223 0 0 0 0)
(0 -0.00169781 0 -0.00169781 -0.00101734 0 0 0 0)
(0 -0.00130078 0 -0.00130078 -0.00137517 0 0 0 0)
(0 -0.00078803 0 -0.00078803 -0.00144851 0 0 0 0)
(0 -0.000231214 0 -0.000231214 -0.00134916 0 0 0 0)
(0 0.000348115 0 0.000348115 -0.00119283 0 0 0 0)
(0 0.000946774 0 0.000946774 -0.00100212 0 0 0 0)
(0 0.00156537 0 0.00156537 -0.000788252 0 0 0 0)
(0 0.00220703 0 0.00220703 -0.000560903 0 0 0 0)
(0 0.00287511 0 0.00287511 -0.000324793 0 0 0 0)
(0 0.00357286 0 0.00357286 -8.1923e-05 0 0 0 0)
(0 0.00430337 0 0.00430337 0.000166769 0 0 0 0)
(0 0.00506949 0 0.00506949 0.000421099 0 0 0 0)
(0 0.00587395 0 0.00587395 0.000681316 0 0 0 0)
(0 0.00671944 0 0.00671944 0.000947867 0 0 0 0)
(0 0.0076086 0 0.0076086 0.00122124 0 0 0 0)
(0 0.0085442 0 0.0085442 0.00150184 0 0 0 0)
(0 0.00952913 0 0.00952913 0.00178991 0 0 0 0)
(0 0.0105665 0 0.0105665 0.00208553 0 0 0 0)
(0 0.0116599 0 0.0116599 0.00238866 0 0 0 0)
(0 0.012813 0 0.012813 0.00269952 0 0 0 0)
(0 0.0140299 0 0.0140299 0.00301908 0 0 0 0)
(0 0.0153144 0 0.0153144 0.00334995 0 0 0 0)
(0 0.0166698 0 0.0166698 0.00369737 0 0 0 0)
(0 0.0180979 0 0.0180979 0.00407028 0 0 0 0)
(0 0.0195983 0 0.0195983 0.00448204 0 0 0 0)
(0 0.0211674 0 0.0211674 0.00495056 0 0 0 0)
(0 0.0227982 0 0.0227982 0.00549758 0 0 0 0)
(0 0.0244808 0 0.0244808 0.00614692 0 0 0 0)
(0 0.0262031 0 0.0262031 0.00692178 0 0 0 0)
(0 0.0279533 0 0.0279533 0.00784119 0 0 0 0)
(0 0.0297235 0 0.0297235 0.00891571 0 0 0 0)
(0 0.0315152 0 0.0315152 0.0101431 0 0 0 0)
(0 0.0333468 0 0.0333468 0.0115043 0 0 0 0)
(0 0.0352664 0 0.0352664 0.0129609 0 0 0 0)
(0 0.0373699 0 0.0373699 0.0144532 0 0 0 0)
(0 0.0398311 0 0.0398311 0.0158979 0 0 0 0)
(0 0.0429455 0 0.0429455 0.0171857 0 0 0 0)
(0 0.0471873 0 0.0471873 0.0181796 0 0 0 0)
(0 0.0532613 0 0.0532613 0.018722 0 0 0 0)
(0 0.0620681 0 0.0620681 0.0186537 0 0 0 0)
(0 0.0744262 0 0.0744262 0.0178591 0 0 0 0)
(0 0.0904163 0 0.0904163 0.0163411 0 0 0 0)
(0 0.108824 0 0.108824 0.0142951 0 0 0 0)
(0 0.127678 0 0.127678 0.0120508 0 0 0 0)
(0 0.145512 0 0.145512 0.00986258 0 0 0 0)
(0 0.161816 0 0.161816 0.00779856 0 0 0 0)
(0 0.176463 0 0.176463 0.00583627 0 0 0 0)
(0 0.189099 0 0.189099 0.00396776 0 0 0 0)
(0 0.200048 0 0.200048 0.00214466 0 0 0 0)
(8.88209e-16 0.210535 0 0.210535 0.0002207 0 0 0 0)
(0 0.220754 0 0.220754 -0.00182108 0 0 0 0)
(0 0.228779 0 0.228779 -0.00375983 0 0 0 0)
(-1.044e-15 0.235037 0 0.235037 -0.00563239 0 0 0 0)
(0 0.242365 0 0.242365 -0.0077906 0 0 0 0)
(1.13183e-15 0.248974 0 0.248974 -0.0100543 0 0 0 0)
(0 0.252277 0 0.252277 -0.0120258 0 0 0 0)
(-1.18824e-15 0.255129 0 0.255129 -0.0140163 0 0 0 0)
(0 0.258535 0 0.258535 -0.0162233 0 0 0 0)
(0 0.259954 0 0.259954 -0.0182694 0 0 0 0)
(0 0.260196 0 0.260196 -0.0201728 0 0 0 0)
(-1.24866e-15 0.260277 0 0.260277 -0.0220749 0 0 0 0)
(0 0.258366 0 0.258366 -0.0236597 0 0 0 0)
(0 0.255616 0 0.255616 -0.0249852 0 0 0 0)
(0 0.253471 0 0.253471 -0.0262358 0 0 0 0)
(0 0.248847 0 0.248847 -0.0269449 0 0 0 0)
(0 0.242423 0 0.242423 -0.0271942 0 0 0 0)
(1.19644e-15 0.237383 0 0.237383 -0.0275797 0 0 0 0)
(0 0.232248 0 0.232248 -0.0279833 0 0 0 0)
(1.15247e-15 0.226041 0 0.226041 -0.0282376 0 0 0 0)
(0 0.219564 0 0.219564 -0.0284671 0 0 0 0)
(1.09935e-15 0.21274 0 0.21274 -0.0286434 0 0 0 0)
(0 0.206698 0 0.206698 -0.0289478 0 0 0 0)
(0 0.200989 0 0.200989 -0.0293435 0 0 0 0)
(0 0.194051 0 0.194051 -0.029512 0 0 0 0)
(0 0.187535 0 0.187535 -0.0297479 0 0 0 0)
(-9.40127e-16 0.181476 0 0.181476 -0.0301037 0 0 0 0)
(-9.04401e-16 0.174608 0 0.174608 -0.0302845 0 0 0 0)
(0 0.167886 0 0.167886 -0.0304938 0 0 0 0)
(0 0.161134 0 0.161134 -0.0307155 0 0 0 0)
(0 0.153688 0 0.153688 -0.0307717 0 0 0 0)
(0 0.145805 0 0.145805 -0.0307119 0 0 0 0)
(0 0.13787 0 0.13787 -0.0306253 0 0 0 0)
(0 0.129786 0 0.129786 -0.0304682 0 0 0 0)
(0 0.121604 0 0.121604 -0.0303129 0 0 0 0)
(0 0.109611 0 0.109611 -0.0291721 0 0 0 0)
(0 0.0876336 0 0.0876336 -0.024856 0 0 0 0)
(0 0.0578379 0 0.0578379 -0.0172371 0 0 0 0)
(0 0.0381873 0 0.0381873 -0.0134974 0 0 0 0)
(0 0 0 0 -0 0 0 0 0)
(0 0 0 0 -0 0 0 0 0)
(-0 0 0 0 0 0 0 0 0)
(0 0 0 0 -0 0 0 0 0)
(0 0 0 0 -0 0 0 0 0)
(0 0 0 0 -0 0 0 0 0)
(-0 0 0 0 -0 0 0 0 0)
(0 0 0 0 -0 0 0 0 0)
(0 0 0 0 -0 0 0 0 0)
(-0 0 0 0 -0 0 0 0 0)
(0 0 0 0 -0 0 0 0 0)
(0 0 0 0 -0 0 0 0 0)
(0 0 0 0 -0 0 0 0 0)
(0 0 0 0 -0 0 0 0 0)
(0 0 0 0 -0 0 0 0 0)
(0 0 0 0 -0 0 0 0 0)
(0 0 0 0 -0 0 0 0 0)
(0 0 0 0 -0 0 0 0 0)
(0 0 0 0 -0 0 0 0 0)
(0 0 0 0 -0 0 0 0 0)
(0 0 0 0 -0 0 0 0 0)
(0 0 0 0 -0 0 0 0 0)
(0 0 0 0 0 0 0 0 0)
(0 0 0 0 -0 0 0 0 0)
(0 0 0 0 -0 0 0 0 0)
(0 0 0 0 0 0 0 0 0)
(0 0 0 0 -0 0 0 0 0)
(0 0 0 0 -0 0 0 0 0)
(0 0 0 0 0 0 0 0 0)
(0 0 0 0 -0 0 0 0 0)
(0 0 0 0 0 0 0 0 0)
(0 0 0 0 -0 0 0 0 0)
(0 0 0 0 0 0 0 0 0)
(0 0 0 0 -0 0 0 0 0)
(0 0 0 0 0 0 0 0 0)
(0 0 0 0 -0 0 0 0 0)
(0 0 0 0 0 0 0 0 0)
(0 0 0 0 -0 0 0 0 0)
(0 0 0 0 0 0 0 0 0)
(0 0 0 0 -0 0 0 0 0)
(0 0 0 0 0 0 0 0 0)
(0 0 0 0 -0 0 0 0 0)
(0 0 0 0 0 0 0 0 0)
(0 0 0 0 -0 0 0 0 0)
(0 0 0 0 0 0 0 0 0)
(0 0 0 0 -0 0 0 0 0)
(0 0 0 0 0 0 0 0 0)
(0 0 0 0 -0 0 0 0 0)
(0 -0 0 -0 0 0 0 0 0)
(0 0 0 0 -0 0 0 0 0)
(0 -0 0 -0 0 0 0 0 0)
(0 0 0 0 -0 0 0 0 0)
(0 -0 0 -0 0 0 0 0 0)
(0 0 0 0 -0 0 0 0 0)
(0 -0 0 -0 0 0 0 0 0)
(0 0 0 0 -0 0 0 0 0)
(0 -0 0 -0 0 0 0 0 0)
(0 0 0 0 -0 0 0 0 0)
(-0 -0 0 -0 0 0 0 0 0)
(0 0 0 0 -0 0 0 0 0)
(0 -0 0 -0 0 0 0 0 0)
(0 0 0 0 -0 0 0 0 0)
(0 -0 0 -0 0 0 0 0 0)
(0 0 0 0 -0 0 0 0 0)
(0 -0 0 -0 0 0 0 0 0)
(0 0 0 0 -0 0 0 0 0)
(0 0 0 0 0 0 0 0 0)
(0 0 0 0 -0 0 0 0 0)
(0 0 0 0 -0 0 0 0 0)
(0 -0 0 -0 0 0 0 0 0)
(0 0 0 0 -0 0 0 0 0)
(0 -0 0 -0 0 0 0 0 0)
(0 0 0 0 -0 0 0 0 0)
(0 -0 0 -0 0 0 0 0 0)
(0 0 0 0 -0 0 0 0 0)
(0 -0 0 -0 0 0 0 0 0)
(0 0 0 0 -0 0 0 0 0)
(0 -0 0 -0 0 0 0 0 0)
(0 0 0 0 -0 0 0 0 0)
(0 -0 0 -0 0 0 0 0 0)
(0 0 0 0 -0 0 0 0 0)
(0 -0 0 -0 0 0 0 0 0)
(0 0 0 0 -0 0 0 0 0)
(0 -0 0 -0 0 0 0 0 0)
(0 0 0 0 -0 0 0 0 0)
(0 -0 0 -0 0 0 0 0 0)
(0 0 0 0 -0 0 0 0 0)
(0 -0 0 -0 0 0 0 0 0)
(0 0 0 0 -0 0 0 0 0)
(0 -0 0 -0 0 0 0 0 0)
(0 0 0 0 -0 0 0 0 0)
(0 -0 0 -0 0 0 0 0 0)
(0 0 0 0 -0 0 0 0 0)
(0 -0 0 -0 0 0 0 0 0)
(0 0 0 0 -0 0 0 0 0)
(0 -0 0 -0 0 0 0 0 0)
(0 0 0 0 -0 0 0 0 0)
(0 -0 0 -0 0 0 0 0 0)
(0 0 0 0 -0 0 0 0 0)
(0 -0 0 -0 0 0 0 0 0)
(0 0 0 0 -0 0 0 0 0)
(0 -0 0 -0 0 0 0 0 0)
(0 0 0 0 -0 0 0 0 0)
(0 -0 0 -0 0 0 0 0 0)
(0 0 0 0 -0 0 0 0 0)
(0 -0 0 -0 0 0 0 0 0)
(0 0 0 0 -0 0 0 0 0)
(0 -0 0 -0 0 0 0 0 0)
(0 0 0 0 -0 0 0 0 0)
(0 -0 0 -0 0 0 0 0 0)
(0 0 0 0 -0 0 0 0 0)
(0 0 0 0 0 0 0 0 0)
(0 0 0 0 0 0 0 0 0)
(0 0 0 0 0 0 0 0 0)
(0 0 0 0 0 0 0 0 0)
(0 0 0 0 0 0 0 0 0)
(0 0 0 0 0 0 0 0 0)
(0 0 0 0 0 0 0 0 0)
(0 0 0 0 0 0 0 0 0)
)
;

boundaryField
{
    inandouthalf11
    {
        type            cyclic;
    }
    inandouthalf12
    {
        type            cyclic;
    }
    inandouthalf21
    {
        type            cyclic;
    }
    inandouthalf22
    {
        type            cyclic;
    }
    inandouthalf31
    {
        type            cyclic;
    }
    inandouthalf32
    {
        type            cyclic;
    }
    inandouthalf41
    {
        type            cyclic;
    }
    inandouthalf42
    {
        type            cyclic;
    }
    top
    {
        type            symmetryPlane;
    }
    walls
    {
        type            zeroGradient;
    }
    frontAndBackPlanes
    {
        type            empty;
    }
}


// ************************************************************************* //
