/*--------------------------------*- C++ -*----------------------------------*\
| =========                 |                                                 |
| \\      /  F ield         | OpenFOAM: The Open Source CFD Toolbox           |
|  \\    /   O peration     | Version:  2.4.x                                 |
|   \\  /    A nd           | Web:      www.OpenFOAM.org                      |
|    \\/     M anipulation  |                                                 |
\*---------------------------------------------------------------------------*/
FoamFile
{
    version     2.0;
    format      ascii;
    class       volScalarField;
    location    "3.15";
    object      Theta;
}
// * * * * * * * * * * * * * * * * * * * * * * * * * * * * * * * * * * * * * //

dimensions      [0 2 -2 0 0 0 0];

internalField   nonuniform List<scalar> 
360
(
6.69354e-21
6.85506e-21
6.90271e-21
6.8462e-21
6.80591e-21
6.78787e-21
6.7831e-21
6.78389e-21
6.7856e-21
6.78906e-21
6.79871e-21
6.81954e-21
6.85492e-21
6.90122e-21
6.93803e-21
6.92797e-21
6.85421e-21
6.75859e-21
6.69497e-21
6.66982e-21
6.66316e-21
6.66176e-21
6.66148e-21
6.66141e-21
6.66139e-21
6.66139e-21
6.66139e-21
6.6614e-21
6.66141e-21
6.66142e-21
6.66143e-21
6.66143e-21
6.66143e-21
6.66143e-21
6.66143e-21
6.66143e-21
6.66142e-21
6.66142e-21
6.66142e-21
6.66142e-21
6.66142e-21
6.66142e-21
6.66143e-21
6.66143e-21
6.66143e-21
6.66143e-21
6.66143e-21
6.66143e-21
6.66144e-21
6.66144e-21
6.66144e-21
6.66145e-21
6.66145e-21
6.66146e-21
6.66146e-21
6.66147e-21
6.66148e-21
6.66149e-21
6.6615e-21
6.6615e-21
6.66151e-21
6.66152e-21
6.66153e-21
6.66154e-21
6.66154e-21
6.66155e-21
6.66156e-21
6.66156e-21
6.66157e-21
6.66158e-21
6.6616e-21
6.66162e-21
6.66164e-21
6.66167e-21
6.66169e-21
6.66172e-21
6.66174e-21
6.66176e-21
6.66178e-21
6.6618e-21
6.66182e-21
6.66183e-21
6.66185e-21
6.66188e-21
6.6619e-21
6.66193e-21
6.66195e-21
6.66198e-21
6.662e-21
6.66202e-21
6.66204e-21
6.66206e-21
6.66208e-21
6.6621e-21
6.66211e-21
6.66213e-21
6.66215e-21
6.66216e-21
6.66218e-21
6.66213e-21
0
0
0
0
0
0
0
0
0
0
0
0
0
0
0
6.66229e-21
6.66229e-21
6.6623e-21
6.66231e-21
6.66234e-21
6.66238e-21
6.66245e-21
6.66253e-21
6.66264e-21
6.6628e-21
6.66299e-21
6.66323e-21
6.66353e-21
6.66545e-21
2.26968e-20
1.04555e-19
4.66951e-19
1.94875e-18
7.54171e-18
2.69031e-17
8.77789e-17
2.59185e-16
6.84384e-16
1.60136e-15
3.3006e-15
5.90759e-15
9.153e-15
1.70298e-14
8.17255e-14
8.9611e-13
1.56264e-11
4.11822e-10
3.6355e-08
2.93819e-06
7.04917e-05
0.000571768
0.00118799
0.00133165
0.00143739
0.00155138
0.00167393
0.00180234
0.00193384
0.0020661
0.00219734
0.00232618
0.00245156
0.00257263
0.00268876
0.00279945
0.00290429
0.00300298
0.0030953
0.00318108
0.00326024
0.00333271
0.00339852
0.00345771
0.00351037
0.00355663
0.00359667
0.00363069
0.00365892
0.00368162
0.00369907
0.00371157
0.00371943
0.00372298
0.00372253
0.00371843
0.003711
0.00370056
0.00368744
0.00367195
0.0036544
0.00363508
0.00361428
0.0035922
0.00356904
0.0035449
0.00351987
0.00349399
0.00346733
0.00343991
0.0034118
0.00338303
0.00335336
0.0033225
0.00329042
0.00325713
0.00322261
0.00318683
0.00314977
0.0031114
0.00307168
0.00303058
0.00298805
0.00294403
0.00289849
0.00285134
0.00280252
0.00275197
0.00269958
0.00264527
0.00258893
0.00253045
0.0024697
0.00240653
0.00234081
0.00227238
0.00220104
0.0021266
0.00204882
0.00196745
0.00188218
0.00179266
0.00169846
0.00159907
0.00149386
0.00138204
0.00126255
0.00113395
0.000994176
0.000840012
0.000665896
0.000459702
0
0
0
0
0
0
0
0
0
0
0
0
0
0
0
0
0
0
0
0
0
0
0
0
0
0
0
0
0
0
0
0
0
0
0
0
0
0
0
0
0
0
0
0
0
0
0
0
0
0
0
0
0
0
0
0
0
0
0
0
0
0
0
0
0
0
0
0
0
0
0
0
0
0
0
0
0
0
0
0
0
0
0
0
0
0
0
0
0
0
0
0
0
0
0
0
0
0
0
0
0
0
0
0
0
0
0
0
0
0
0
0
0
0
0
0
0
0
0
)
;

boundaryField
{
    inandouthalf11
    {
        type            cyclic;
    }
    inandouthalf12
    {
        type            cyclic;
    }
    inandouthalf21
    {
        type            cyclic;
    }
    inandouthalf22
    {
        type            cyclic;
    }
    inandouthalf31
    {
        type            cyclic;
    }
    inandouthalf32
    {
        type            cyclic;
    }
    inandouthalf41
    {
        type            cyclic;
    }
    inandouthalf42
    {
        type            cyclic;
    }
    top
    {
        type            symmetryPlane;
    }
    walls
    {
        type            zeroGradient;
    }
    frontAndBackPlanes
    {
        type            empty;
    }
}


// ************************************************************************* //
