/*--------------------------------*- C++ -*----------------------------------*\
| =========                 |                                                 |
| \\      /  F ield         | OpenFOAM: The Open Source CFD Toolbox           |
|  \\    /   O peration     | Version:  2.4.x                                 |
|   \\  /    A nd           | Web:      www.OpenFOAM.org                      |
|    \\/     M anipulation  |                                                 |
\*---------------------------------------------------------------------------*/
FoamFile
{
    version     2.0;
    format      ascii;
    class       volScalarField;
    location    "3.15";
    object      tmf;
}
// * * * * * * * * * * * * * * * * * * * * * * * * * * * * * * * * * * * * * //

dimensions      [0 0 0 0 0 0 0];

internalField   nonuniform List<scalar> 
360
(
0.999204
0.999205
0.999206
0.999206
0.999206
0.999206
0.999205
0.999205
0.999205
0.999205
0.999205
0.999205
0.999205
0.999205
0.999204
0.999204
0.999204
0.999204
0.999204
0.999204
0.999204
0.999204
0.999204
0.999204
0.999204
0.999204
0.999204
0.999204
0.999204
0.999204
0.999204
0.999204
0.999204
0.999204
0.999204
0.999204
0.999204
0.999204
0.999204
0.999204
0.999204
0.999204
0.999204
0.999204
0.999204
0.999203
0.999203
0.999203
0.999203
0.999203
0.999203
0.999203
0.999203
0.999203
0.999203
0.999203
0.999203
0.999203
0.999203
0.999203
0.999203
0.999203
0.999202
0.999202
0.999202
0.999202
0.999202
0.999202
0.999202
0.999202
0.999202
0.999201
0.999201
0.999201
0.999201
0.999201
0.999201
0.999201
0.999201
0.9992
0.9992
0.9992
0.9992
0.9992
0.9992
0.999199
0.999199
0.999199
0.999199
0.999199
0.999199
0.999198
0.999198
0.999198
0.999198
0.999197
0.999197
0.999197
0.999197
0.999197
0.999196
0.999196
0.999196
0.999196
0.999195
0.999195
0.999195
0.999195
0.999194
0.999194
0.999194
0.999193
0.999193
0.999193
0.999192
0.999192
0.999192
0.999191
0.999191
0.99919
0.99919
0.99919
0.999189
0.999189
0.999188
0.999188
0.999187
0.999187
0.999186
0.999232
0.999219
0.999203
0.999186
0.999167
0.999145
0.99912
0.999089
0.999046
0.998986
0.998895
0.99872
0.998233
0.996883
0.994893
0.992823
0.990463
0.98757
0.984051
0.979404
0.970997
0.856741
0.88639
0.93012
0.953676
0.965069
0.970962
0.97423
0.976143
0.977301
0.978008
0.978436
0.978683
0.978809
0.978855
0.978845
0.978795
0.978716
0.978616
0.978501
0.978372
0.978232
0.978082
0.977922
0.977751
0.977571
0.977379
0.977176
0.976961
0.976736
0.976503
0.976269
0.976047
0.975857
0.975732
0.975716
0.975849
0.976152
0.976615
0.977202
0.97787
0.97858
0.979303
0.980022
0.980722
0.981397
0.982042
0.982657
0.983244
0.983805
0.984344
0.984861
0.985366
0.985865
0.986359
0.98685
0.987341
0.987834
0.988331
0.988838
0.989359
0.989901
0.990473
0.991088
0.991765
0.992535
0.993452
0.994635
0.995861
0.9965
0.99654
0.996511
0.99648
0.996449
0.996419
0.996388
0.996304
0.99585
0.995757
0.995735
0.995713
0.99569
0.995666
0.995642
0.995618
0.995593
0.995568
0.995542
0.995516
0.99549
0.995469
0.995455
0.99544
0.9942
0.9942
0.9942
0.9942
0.9942
0.9942
0.9942
0.9942
0.9942
0.9942
0.9942
0.9942
0.9942
0.9942
0.9942
0.9942
0.9942
0.9942
0.9942
0.9942
0.9942
0.9942
0.9942
0.9942
0.9942
0.9942
0.9942
0.9942
0.9942
0.9942
0.9942
0.9942
0.9942
0.9942
0.9942
0.9942
0.9942
0.9942
0.9942
0.9942
0.9942
0.9942
0.9942
0.9942
0.9942
0.9942
0.9942
0.9942
0.9942
0.9942
0.9942
0.9942
0.9942
0.9942
0.9942
0.9942
0.9942
0.9942
0.9942
0.9942
0.9942
0.9942
0.9942
0.9942
0.9942
0.9942
0.9942
0.9942
0.9942
0.9942
0.9942
0.9942
0.9942
0.9942
0.9942
0.9942
0.9942
0.9942
0.9942
0.9942
0.9942
0.9942
0.9942
0.9942
0.9942
0.9942
0.9942
0.9942
0.9942
0.9942
0.9942
0.9942
0.9942
0.9942
0.9942
0.9942
0.9942
0.9942
0.9942
0.9942
0.9942
0.9942
0.9942
0.9942
0.9942
0.9942
0.9942
0.9942
0.9942
0.9942
0.9942
0.9942
0.9942
0.9942
0.9942
0.9942
0.994185
0.99328
)
;

boundaryField
{
    inandouthalf11
    {
        type            cyclic;
    }
    inandouthalf12
    {
        type            cyclic;
    }
    inandouthalf21
    {
        type            cyclic;
    }
    inandouthalf22
    {
        type            cyclic;
    }
    inandouthalf31
    {
        type            cyclic;
    }
    inandouthalf32
    {
        type            cyclic;
    }
    inandouthalf41
    {
        type            cyclic;
    }
    inandouthalf42
    {
        type            cyclic;
    }
    top
    {
        type            symmetryPlane;
    }
    walls
    {
        type            calculated;
        value           uniform 0;
    }
    frontAndBackPlanes
    {
        type            empty;
    }
}


// ************************************************************************* //
