/*--------------------------------*- C++ -*----------------------------------*\
| =========                 |                                                 |
| \\      /  F ield         | OpenFOAM: The Open Source CFD Toolbox           |
|  \\    /   O peration     | Version:  2.4.x                                 |
|   \\  /    A nd           | Web:      www.OpenFOAM.org                      |
|    \\/     M anipulation  |                                                 |
\*---------------------------------------------------------------------------*/
FoamFile
{
    version     2.0;
    format      ascii;
    class       volVectorField;
    location    "3.15";
    object      U;
}
// * * * * * * * * * * * * * * * * * * * * * * * * * * * * * * * * * * * * * //

dimensions      [0 1 -1 0 0 0 0];

internalField   nonuniform List<vector> 
360
(
(-0.000101822 6.60427e-08 0)
(-0.000101777 2.47697e-08 0)
(-0.00010178 -1.30549e-08 0)
(-0.00010193 -1.48731e-08 0)
(-0.000102099 -7.61742e-09 0)
(-0.00010226 -2.81673e-09 0)
(-0.000102423 -2.24899e-10 0)
(-0.000102582 5.29187e-10 0)
(-0.000102732 5.82911e-10 0)
(-0.00010288 1.51455e-09 0)
(-0.000103031 3.82727e-09 0)
(-0.000103193 6.98359e-09 0)
(-0.000103371 9.79127e-09 0)
(-0.000103567 9.9346e-09 0)
(-0.000103781 4.29895e-09 0)
(-0.000104 -8.27363e-09 0)
(-0.000104199 -2.24404e-08 0)
(-0.000104353 -2.84622e-08 0)
(-0.000104451 -2.33194e-08 0)
(-0.000104504 -1.37167e-08 0)
(-0.000104528 -6.45159e-09 0)
(-0.00010454 -2.68341e-09 0)
(-0.000104547 -1.08543e-09 0)
(-0.000104552 -4.2776e-10 0)
(-0.000104556 -1.31601e-10 0)
(-0.000104559 2.33329e-11 0)
(-0.000104563 9.28151e-11 0)
(-0.000104569 1.51624e-10 0)
(-0.000104574 1.49336e-10 0)
(-0.00010458 1.15159e-10 0)
(-0.000104587 4.85484e-11 0)
(-0.000104595 3.93856e-11 0)
(-0.000104602 -4.9252e-11 0)
(-0.000104611 -1.07011e-11 0)
(-0.000104619 -5.20388e-11 0)
(-0.000104628 -2.78543e-11 0)
(-0.000104637 -3.57014e-11 0)
(-0.000104647 -2.42154e-11 0)
(-0.000104658 2.16497e-11 0)
(-0.000104668 -2.75851e-11 0)
(-0.000104681 1.52141e-11 0)
(-0.000104693 1.79496e-11 0)
(-0.000104706 -1.69126e-11 0)
(-0.000104721 2.25595e-11 0)
(-0.000104736 4.4656e-12 0)
(-0.000104752 5.48147e-12 0)
(-0.000104769 2.63861e-11 0)
(-0.000104786 -6.20538e-12 0)
(-0.000104805 8.16337e-13 0)
(-0.000104826 4.3013e-11 0)
(-0.000104847 9.93515e-12 0)
(-0.00010487 3.39939e-11 0)
(-0.000104894 2.24773e-11 0)
(-0.00010492 4.80913e-11 0)
(-0.000104947 2.00194e-11 0)
(-0.000104977 6.48606e-11 0)
(-0.000105007 3.57707e-11 0)
(-0.00010504 6.06867e-11 0)
(-0.000105074 6.57953e-11 0)
(-0.000105109 3.53531e-11 0)
(-0.000105147 7.39145e-11 0)
(-0.000105186 3.87347e-11 0)
(-0.000105226 5.34299e-11 0)
(-0.000105268 3.32447e-11 0)
(-0.00010531 3.18437e-11 0)
(-0.000105353 1.9033e-11 0)
(-0.000105397 2.62004e-11 0)
(-0.000105444 3.72928e-11 0)
(-0.000105491 5.50889e-11 0)
(-0.00010554 5.40033e-11 0)
(-0.000105592 8.55456e-11 0)
(-0.000105645 1.21376e-10 0)
(-0.0001057 1.02692e-10 0)
(-0.000105758 1.2861e-10 0)
(-0.000105817 1.13915e-10 0)
(-0.000105878 1.20112e-10 0)
(-0.00010594 9.30883e-11 0)
(-0.000106003 7.60446e-11 0)
(-0.000106069 6.34097e-11 0)
(-0.000106136 5.94189e-11 0)
(-0.000106204 5.03266e-11 0)
(-0.000106274 5.57604e-11 0)
(-0.000106346 6.51076e-11 0)
(-0.00010642 7.20375e-11 0)
(-0.000106496 8.06051e-11 0)
(-0.000106574 8.1902e-11 0)
(-0.000106654 8.2971e-11 0)
(-0.000106735 7.56706e-11 0)
(-0.000106818 6.52218e-11 0)
(-0.000106903 5.54817e-11 0)
(-0.00010699 4.59689e-11 0)
(-0.000107078 3.70517e-11 0)
(-0.000107169 3.27192e-11 0)
(-0.000107261 3.03078e-11 0)
(-0.000107356 2.91758e-11 0)
(-0.000107452 2.88008e-11 0)
(-0.000107551 2.83001e-11 0)
(-0.000107651 2.69033e-11 0)
(-0.000107754 2.44862e-11 0)
(-0.000107859 2.14207e-11 0)
(-0.000107966 1.75011e-11 0)
(-0.000108076 1.28497e-11 0)
(-0.000108188 7.71241e-12 0)
(-0.000108302 1.82534e-12 0)
(-0.000108419 -4.97143e-12 0)
(-0.000108538 -1.26481e-11 0)
(-0.00010866 -2.11999e-11 0)
(-0.000108785 -3.04813e-11 0)
(-0.000108912 -4.01777e-11 0)
(-0.000109043 -4.99013e-11 0)
(-0.000109176 -5.91584e-11 0)
(-0.000109313 -6.73275e-11 0)
(-0.000109452 -7.36819e-11 0)
(-0.000109595 -7.73833e-11 0)
(-0.000109741 -7.7496e-11 0)
(-0.000109891 -7.30359e-11 0)
(-0.000110045 -6.30172e-11 0)
(-0.000110203 -4.64972e-11 0)
(-0.000110366 -2.26381e-11 0)
(-0.000110533 9.2131e-12 0)
(-0.000110706 4.94387e-11 0)
(-0.000110884 9.80558e-11 0)
(-0.000111069 1.54578e-10 0)
(-0.00011126 2.17845e-10 0)
(-0.000111459 2.85882e-10 0)
(-0.000111666 3.55733e-10 0)
(-0.000111882 4.23147e-10 0)
(-0.000112108 4.81891e-10 0)
(-0.000112345 5.2278e-10 0)
(-0.000112594 5.33037e-10 0)
(-0.000112856 4.97759e-10 0)
(-0.000113131 4.0382e-10 0)
(-0.00011342 2.49178e-10 0)
(-0.000113725 5.31955e-11 0)
(-0.000114049 -1.72288e-10 0)
(-0.00011439 -4.92467e-10 0)
(-0.000114746 -9.96292e-10 0)
(-0.000115116 -1.70316e-09 0)
(-0.000115513 -2.53119e-09 0)
(-0.000115951 -2.94068e-09 0)
(-0.00011641 -2.37144e-09 0)
(-0.00011683 -3.90063e-09 0)
(-0.000117309 -4.28963e-09 0)
(-0.00011792 -3.33579e-09 0)
(-0.000118666 -9.26127e-09 0)
(-0.000119866 -6.10228e-08 0)
(-0.000123853 4.75606e-07 0)
(-0.000126393 1.40509e-07 0)
(-0.000144123 1.8657e-06 0)
(-0.00644103 -6.50433e-06 0)
(-0.110744 -5.694e-05 0)
(-0.190946 0.000110902 0)
(-0.221974 -2.89561e-05 0)
(-0.235095 1.84973e-05 0)
(-0.240716 2.681e-06 0)
(-0.2429 7.37365e-07 0)
(-0.243241 4.22004e-07 0)
(-0.242429 3.08956e-07 0)
(-0.240813 1.72912e-07 0)
(-0.238589 8.57627e-08 0)
(-0.235884 4.31804e-08 0)
(-0.232787 2.03329e-08 0)
(-0.229362 6.49022e-09 0)
(-0.225661 -2.15394e-09 0)
(-0.221722 -7.51721e-09 0)
(-0.217581 -1.0787e-08 0)
(-0.213264 -1.26942e-08 0)
(-0.208794 -1.3725e-08 0)
(-0.204193 -1.41642e-08 0)
(-0.199475 -1.42125e-08 0)
(-0.194658 -1.39891e-08 0)
(-0.189752 -1.35828e-08 0)
(-0.184769 -1.3043e-08 0)
(-0.179719 -1.24035e-08 0)
(-0.174611 -1.16896e-08 0)
(-0.169452 -1.09242e-08 0)
(-0.164249 -1.01377e-08 0)
(-0.159008 -9.36331e-09 0)
(-0.153735 -8.63288e-09 0)
(-0.148435 -7.96809e-09 0)
(-0.143111 -7.37956e-09 0)
(-0.137769 -6.86609e-09 0)
(-0.132412 -6.42033e-09 0)
(-0.127044 -6.03325e-09 0)
(-0.121667 -5.69973e-09 0)
(-0.116286 -5.42049e-09 0)
(-0.110903 -5.20266e-09 0)
(-0.105521 -5.05031e-09 0)
(-0.100142 -4.93945e-09 0)
(-0.0947699 -4.7703e-09 0)
(-0.0894066 -4.33147e-09 0)
(-0.0840549 -3.41657e-09 0)
(-0.0787178 -2.13297e-09 0)
(-0.0733982 -9.82102e-10 0)
(-0.0680992 -4.97246e-10 0)
(-0.0628237 -6.04436e-10 0)
(-0.0575748 -7.41878e-10 0)
(-0.0523555 -6.32631e-10 0)
(-0.0471688 -3.89237e-10 0)
(-0.0420178 -1.53054e-10 0)
(-0.0369058 -6.33965e-11 0)
(-0.0317849 -1.13487e-10 0)
(-0.0266086 -8.5979e-11 0)
(-0.0213823 8.3189e-11 0)
(-0.0161125 3.24746e-11 0)
(-0.0108071 -1.338e-10 0)
(-0.00547541 7.13006e-12 0)
(-0.000129194 1.15722e-10 0)
(0.00521732 -4.36692e-11 0)
(0.0105465 -5.24087e-11 0)
(0.0158362 6.15581e-11 0)
(0.0210582 9.87289e-12 0)
(0.0261756 -2.76249e-11 0)
(0.031139 3.41939e-11 0)
(0.0358791 3.80544e-12 0)
(0.0402937 -1.99799e-11 0)
(0.0442185 1.13467e-10 0)
(0.0470835 -2.37055e-10 0)
(0.0479087 4.44965e-10 0)
(0.0480338 -6.73982e-10 0)
(0.0481131 9.06578e-10 0)
(0.0481837 -1.11148e-09 0)
(0.0482472 1.35347e-09 0)
(0.0483041 -1.59054e-09 0)
(0.048355 1.86899e-09 0)
(0.0484004 -2.14595e-09 0)
(0.0484408 2.46054e-09 0)
(0.0484767 -2.77503e-09 0)
(0.0485085 3.12078e-09 0)
(0.0485365 -3.46346e-09 0)
(0.0485612 3.83279e-09 0)
(0.0485829 -4.19756e-09 0)
(0.0486019 4.5845e-09 0)
(0.0486185 -4.9669e-09 0)
(0.0486329 5.36829e-09 0)
(0.0486454 -5.76445e-09 0)
(0.0486562 6.17691e-09 0)
(0.0486655 -6.58418e-09 0)
(0.0486735 7.01054e-09 0)
(0.0486803 -7.44953e-09 0)
(0.0486859 7.92351e-09 0)
(0.0486906 -8.39992e-09 0)
(0.0486954 9.2229e-09 0)
(0.0486991 -9.66248e-09 0)
(0.0487021 1.01238e-08 0)
(0.0487046 -1.05949e-08 0)
(0.0487067 1.10871e-08 0)
(0.0487084 -1.15897e-08 0)
(0.0487099 1.21131e-08 0)
(0.0487111 -1.26474e-08 0)
(0.048712 1.3202e-08 0)
(0.0487128 -1.37682e-08 0)
(0.0487134 1.43543e-08 0)
(0.048714 -1.49527e-08 0)
(0.0487144 1.55705e-08 0)
(0.0487147 -1.62012e-08 0)
(0.048715 1.68511e-08 0)
(0.0487152 -1.75144e-08 0)
(0.0487153 1.81967e-08 0)
(0.0487155 -1.88928e-08 0)
(0.0487156 1.96076e-08 0)
(0.0487157 -2.03369e-08 0)
(0.0487157 2.10847e-08 0)
(0.0487158 -2.18473e-08 0)
(0.0487158 2.26282e-08 0)
(0.0487158 -2.34245e-08 0)
(0.0487159 2.42389e-08 0)
(0.0487159 -2.5069e-08 0)
(0.0487159 2.59172e-08 0)
(0.0487159 -2.67814e-08 0)
(0.0487159 2.76637e-08 0)
(0.0487159 -2.85621e-08 0)
(0.0487159 2.94787e-08 0)
(0.0487159 -3.04116e-08 0)
(0.0487159 3.13626e-08 0)
(0.0487159 -3.23302e-08 0)
(0.0487159 3.33158e-08 0)
(0.0487159 -3.43182e-08 0)
(0.0487159 3.53386e-08 0)
(0.0487159 -3.63757e-08 0)
(0.0487159 3.74309e-08 0)
(0.0487159 -3.85029e-08 0)
(0.0487159 3.95929e-08 0)
(0.0487159 -4.06997e-08 0)
(0.0487159 4.18243e-08 0)
(0.0487159 -4.29657e-08 0)
(0.0487159 4.41247e-08 0)
(0.0487159 -4.53003e-08 0)
(0.0487159 4.64934e-08 0)
(0.0487159 -4.77028e-08 0)
(0.0487159 4.89293e-08 0)
(0.0487159 -5.01717e-08 0)
(0.0487159 5.14307e-08 0)
(0.0487159 -5.27051e-08 0)
(0.0487159 5.39952e-08 0)
(0.0487159 -5.52999e-08 0)
(0.0487159 5.66192e-08 0)
(0.0487159 -5.79519e-08 0)
(0.0487159 5.92972e-08 0)
(0.0487159 -6.06539e-08 0)
(0.0487159 6.20205e-08 0)
(0.0487159 -6.33944e-08 0)
(0.0487159 6.47723e-08 0)
(0.0487159 -6.61469e-08 0)
(0.0487159 6.74629e-08 0)
(0.0487159 -6.87681e-08 0)
(0.0487159 7.00784e-08 0)
(0.0487159 -7.13986e-08 0)
(0.0487159 7.27312e-08 0)
(0.0487159 -7.4078e-08 0)
(0.0487159 6.61757e-08 0)
(0.0487159 -6.60295e-08 0)
(0.0487159 6.58776e-08 0)
(0.0487159 -6.57207e-08 0)
(0.0487159 6.55592e-08 0)
(0.0487159 -6.53937e-08 0)
(0.0487159 6.52246e-08 0)
(0.0487159 -6.50522e-08 0)
(0.0487159 6.48769e-08 0)
(0.0487159 -6.46991e-08 0)
(0.0487159 6.4519e-08 0)
(0.0487159 -6.4337e-08 0)
(0.0487159 6.41533e-08 0)
(0.0487159 -6.39683e-08 0)
(0.0487159 6.37821e-08 0)
(0.0487159 -6.35951e-08 0)
(0.0487159 6.34074e-08 0)
(0.0487159 -6.32193e-08 0)
(0.0487159 6.3031e-08 0)
(0.0487159 -6.28429e-08 0)
(0.0487159 6.26548e-08 0)
(0.0487159 -6.24675e-08 0)
(0.0487159 6.22807e-08 0)
(0.0487159 -6.2095e-08 0)
(0.0487159 6.19102e-08 0)
(0.0487159 -6.17271e-08 0)
(0.0487159 6.15453e-08 0)
(0.0487159 -6.13656e-08 0)
(0.0487159 6.11876e-08 0)
(0.0487159 -6.10122e-08 0)
(0.0487159 6.0839e-08 0)
(0.0487159 -6.06689e-08 0)
(0.0487159 6.05014e-08 0)
(0.0487159 -6.03374e-08 0)
(0.0487159 6.01768e-08 0)
(0.0487159 -6.002e-08 0)
(0.0487159 5.98673e-08 0)
(0.0487159 -5.97189e-08 0)
(0.0487159 5.95753e-08 0)
(0.0487159 -5.94366e-08 0)
(0.0487159 5.93035e-08 0)
(0.0487159 -5.91762e-08 0)
(0.0487159 5.90553e-08 0)
(0.0487159 -5.89414e-08 0)
(0.0487159 5.88346e-08 0)
(0.0487159 -5.87369e-08 0)
(0.0487159 5.86477e-08 0)
(0.0487159 -5.85699e-08 0)
(0.0487159 5.85045e-08 0)
(0.0487159 -5.84555e-08 0)
)
;

boundaryField
{
    inandouthalf11
    {
        type            cyclic;
    }
    inandouthalf12
    {
        type            cyclic;
    }
    inandouthalf21
    {
        type            cyclic;
    }
    inandouthalf22
    {
        type            cyclic;
    }
    inandouthalf31
    {
        type            cyclic;
    }
    inandouthalf32
    {
        type            cyclic;
    }
    inandouthalf41
    {
        type            cyclic;
    }
    inandouthalf42
    {
        type            cyclic;
    }
    top
    {
        type            symmetryPlane;
    }
    walls
    {
        type            calculated;
        value           uniform (0 0 0);
    }
    frontAndBackPlanes
    {
        type            empty;
    }
}


// ************************************************************************* //
