/*--------------------------------*- C++ -*----------------------------------*\
| =========                 |                                                 |
| \\      /  F ield         | OpenFOAM: The Open Source CFD Toolbox           |
|  \\    /   O peration     | Version:  2.4.x                                 |
|   \\  /    A nd           | Web:      www.OpenFOAM.org                      |
|    \\/     M anipulation  |                                                 |
\*---------------------------------------------------------------------------*/
FoamFile
{
    version     2.0;
    format      ascii;
    class       volVectorField;
    location    "3.15";
    object      Ua;
}
// * * * * * * * * * * * * * * * * * * * * * * * * * * * * * * * * * * * * * //

dimensions      [0 1 -1 0 0 0 0];

internalField   nonuniform List<vector> 
360
(
(-1.0326e-32 -6.52732e-32 0)
(-1.00147e-07 -4.85466e-07 0)
(-2.66262e-07 -1.1814e-06 0)
(-4.24475e-07 -1.79876e-06 0)
(-5.62271e-07 -2.33193e-06 0)
(-6.86956e-07 -2.81784e-06 0)
(-8.05756e-07 -3.2863e-06 0)
(-9.22923e-07 -3.75459e-06 0)
(-1.03981e-06 -4.22634e-06 0)
(-1.15681e-06 -4.70123e-06 0)
(-1.27558e-06 -5.18591e-06 0)
(-1.3996e-06 -5.69601e-06 0)
(-1.53338e-06 -6.25277e-06 0)
(-1.68051e-06 -6.87494e-06 0)
(-1.84027e-06 -7.5637e-06 0)
(-2.00342e-06 -8.28229e-06 0)
(-2.1514e-06 -8.9475e-06 0)
(-2.2646e-06 -9.46418e-06 0)
(-2.33571e-06 -9.79094e-06 0)
(-2.37299e-06 -9.96187e-06 0)
(-2.39044e-06 -1.0041e-05 0)
(-2.39856e-06 -1.00772e-05 0)
(-2.40278e-06 -1.00955e-05 0)
(-2.40543e-06 -1.01066e-05 0)
(-2.40749e-06 -1.01148e-05 0)
(-2.40941e-06 -1.01222e-05 0)
(-2.41147e-06 -1.01297e-05 0)
(-2.41381e-06 -1.01379e-05 0)
(-2.41654e-06 -1.01472e-05 0)
(-2.41966e-06 -1.01574e-05 0)
(-2.42311e-06 -1.01683e-05 0)
(-2.42681e-06 -1.01797e-05 0)
(-2.43065e-06 -1.01913e-05 0)
(-2.43458e-06 -1.02027e-05 0)
(-2.43853e-06 -1.02139e-05 0)
(-2.44251e-06 -1.02249e-05 0)
(-2.44651e-06 -1.02357e-05 0)
(-2.45057e-06 -1.02463e-05 0)
(-2.4547e-06 -1.02569e-05 0)
(-2.45893e-06 -1.02675e-05 0)
(-2.46329e-06 -1.02782e-05 0)
(-2.46777e-06 -1.02889e-05 0)
(-2.47239e-06 -1.02998e-05 0)
(-2.47716e-06 -1.03107e-05 0)
(-2.48209e-06 -1.03218e-05 0)
(-2.48716e-06 -1.0333e-05 0)
(-2.49239e-06 -1.03444e-05 0)
(-2.49779e-06 -1.03558e-05 0)
(-2.50335e-06 -1.03675e-05 0)
(-2.50912e-06 -1.03793e-05 0)
(-2.51509e-06 -1.03914e-05 0)
(-2.52128e-06 -1.04038e-05 0)
(-2.52772e-06 -1.04164e-05 0)
(-2.53441e-06 -1.04294e-05 0)
(-2.54139e-06 -1.04427e-05 0)
(-2.54867e-06 -1.04565e-05 0)
(-2.55628e-06 -1.04707e-05 0)
(-2.56424e-06 -1.04853e-05 0)
(-2.57255e-06 -1.05005e-05 0)
(-2.58123e-06 -1.05162e-05 0)
(-2.59028e-06 -1.05323e-05 0)
(-2.59968e-06 -1.0549e-05 0)
(-2.60942e-06 -1.05661e-05 0)
(-2.61946e-06 -1.05835e-05 0)
(-2.62976e-06 -1.06013e-05 0)
(-2.64031e-06 -1.06193e-05 0)
(-2.6511e-06 -1.06376e-05 0)
(-2.66215e-06 -1.06562e-05 0)
(-2.6735e-06 -1.06752e-05 0)
(-2.68523e-06 -1.06946e-05 0)
(-2.6974e-06 -1.07146e-05 0)
(-2.7101e-06 -1.07354e-05 0)
(-2.72339e-06 -1.0757e-05 0)
(-2.73731e-06 -1.07796e-05 0)
(-2.75188e-06 -1.0803e-05 0)
(-2.76709e-06 -1.08274e-05 0)
(-2.7829e-06 -1.08526e-05 0)
(-2.79924e-06 -1.08785e-05 0)
(-2.81606e-06 -1.0905e-05 0)
(-2.83331e-06 -1.09321e-05 0)
(-2.85097e-06 -1.09597e-05 0)
(-2.86903e-06 -1.09877e-05 0)
(-2.88751e-06 -1.10164e-05 0)
(-2.90645e-06 -1.10456e-05 0)
(-2.92588e-06 -1.10754e-05 0)
(-2.94583e-06 -1.11059e-05 0)
(-2.9663e-06 -1.11372e-05 0)
(-2.9873e-06 -1.11691e-05 0)
(-3.00879e-06 -1.12017e-05 0)
(-3.03074e-06 -1.12348e-05 0)
(-3.05311e-06 -1.12685e-05 0)
(-3.07587e-06 -1.13026e-05 0)
(-3.099e-06 -1.13372e-05 0)
(-3.12248e-06 -1.13721e-05 0)
(-3.1463e-06 -1.14075e-05 0)
(-3.17046e-06 -1.14433e-05 0)
(-3.19497e-06 -1.14795e-05 0)
(-3.21982e-06 -1.1516e-05 0)
(-3.24502e-06 -1.1553e-05 0)
(-3.27056e-06 -1.15904e-05 0)
(-3.29643e-06 -1.16281e-05 0)
(-3.32263e-06 -1.16662e-05 0)
(-3.34915e-06 -1.17047e-05 0)
(-3.37597e-06 -1.17435e-05 0)
(-3.40307e-06 -1.17825e-05 0)
(-3.43044e-06 -1.18219e-05 0)
(-3.45804e-06 -1.18614e-05 0)
(-3.48587e-06 -1.19012e-05 0)
(-3.51388e-06 -1.1941e-05 0)
(-3.54204e-06 -1.1981e-05 0)
(-3.57033e-06 -1.2021e-05 0)
(-3.59871e-06 -1.2061e-05 0)
(-3.62718e-06 -1.21009e-05 0)
(-3.65571e-06 -1.21408e-05 0)
(-3.68432e-06 -1.21806e-05 0)
(-3.71301e-06 -1.22204e-05 0)
(-3.74185e-06 -1.22602e-05 0)
(-3.7709e-06 -1.23001e-05 0)
(-3.80027e-06 -1.23403e-05 0)
(-3.83012e-06 -1.23809e-05 0)
(-3.86064e-06 -1.24221e-05 0)
(-3.89207e-06 -1.24643e-05 0)
(-3.92471e-06 -1.25079e-05 0)
(-3.95889e-06 -1.25531e-05 0)
(-3.99501e-06 -1.26006e-05 0)
(-4.03351e-06 -1.26508e-05 0)
(-4.07487e-06 -1.27041e-05 0)
(-4.11959e-06 -1.27613e-05 0)
(-4.16816e-06 -1.28226e-05 0)
(-4.22101e-06 -1.28885e-05 0)
(-4.27843e-06 -1.29592e-05 0)
(-4.34049e-06 -1.30344e-05 0)
(-4.40705e-06 -1.31137e-05 0)
(-4.47782e-06 -1.31963e-05 0)
(-4.55226e-06 -1.32816e-05 0)
(-4.62932e-06 -1.33679e-05 0)
(-4.70712e-06 -1.3453e-05 0)
(-4.78317e-06 -1.35337e-05 0)
(-4.85473e-06 -1.36075e-05 0)
(-4.91828e-06 -1.36714e-05 0)
(-4.96854e-06 -1.37211e-05 0)
(-5.00102e-06 -1.37517e-05 0)
(-5.01755e-06 -1.37662e-05 0)
(-5.02435e-06 -1.37717e-05 0)
(-5.02688e-06 -1.37733e-05 0)
(-5.02837e-06 -1.37738e-05 0)
(-5.03071e-06 -1.3775e-05 0)
(-7.62178e-06 -1.55801e-05 0)
(-2.02364e-05 -1.71078e-05 0)
(-0.00612472 -1.29155e-05 0)
(-0.0933126 0.00041402 0)
(-0.170957 -0.000587379 0)
(-0.203186 -0.00359149 0)
(-0.218448 -0.00712567 0)
(-0.226139 -0.0104683 0)
(-0.229863 -0.0131596 0)
(-0.231216 -0.015134 0)
(-0.231031 -0.0165669 0)
(-0.229782 -0.0175913 0)
(-0.22776 -0.018298 0)
(-0.225156 -0.0187559 0)
(-0.222101 -0.0190172 0)
(-0.218688 -0.0191213 0)
(-0.214988 -0.0190987 0)
(-0.211056 -0.0189734 0)
(-0.206935 -0.0187643 0)
(-0.202663 -0.0184866 0)
(-0.19827 -0.0181531 0)
(-0.193783 -0.017774 0)
(-0.189226 -0.0173583 0)
(-0.184622 -0.0169136 0)
(-0.179991 -0.0164468 0)
(-0.17535 -0.0159638 0)
(-0.170718 -0.01547 0)
(-0.166111 -0.0149697 0)
(-0.161544 -0.0144667 0)
(-0.157033 -0.0139631 0)
(-0.152591 -0.0134599 0)
(-0.148232 -0.0129566 0)
(-0.143966 -0.0124513 0)
(-0.139805 -0.0119407 0)
(-0.13576 -0.011421 0)
(-0.131839 -0.0108885 0)
(-0.12805 -0.0103397 0)
(-0.124402 -0.00977304 0)
(-0.120899 -0.00918896 0)
(-0.117549 -0.00859108 0)
(-0.114357 -0.00798676 0)
(-0.111326 -0.00738762 0)
(-0.108459 -0.00680976 0)
(-0.105756 -0.00627313 0)
(-0.103213 -0.00579909 0)
(-0.100819 -0.00540544 0)
(-0.098561 -0.0051001 0)
(-0.0964192 -0.00487753 0)
(-0.0943759 -0.00472191 0)
(-0.092418 -0.00461473 0)
(-0.0905377 -0.00454077 0)
(-0.0887308 -0.00448977 0)
(-0.0869944 -0.00445539 0)
(-0.0853271 -0.00443348 0)
(-0.0837117 -0.00442099 0)
(-0.0821295 -0.00441642 0)
(-0.0805749 -0.00441943 0)
(-0.079046 -0.00442921 0)
(-0.0775451 -0.00444438 0)
(-0.0760667 -0.00446496 0)
(-0.0746024 -0.00449174 0)
(-0.0731555 -0.0045238 0)
(-0.0717288 -0.00456028 0)
(-0.0703139 -0.00460191 0)
(-0.0689086 -0.00464882 0)
(-0.0675164 -0.00470027 0)
(-0.0661328 -0.00475647 0)
(-0.0647577 -0.0048173 0)
(-0.0633968 -0.00488179 0)
(-0.0620425 -0.00495004 0)
(-0.0606936 -0.00502172 0)
(-0.0593643 -0.00509507 0)
(-0.0580495 -0.00517005 0)
(-0.0567385 -0.00524763 0)
(-0.0554362 -0.00532752 0)
(-0.0541427 -0.0054098 0)
(-0.0528581 -0.00549468 0)
(-0.0515817 -0.00558224 0)
(-0.050302 -0.0056737 0)
(-0.049024 -0.00576899 0)
(-0.0477533 -0.00586755 0)
(-0.0464765 -0.00597108 0)
(-0.0451985 -0.0060795 0)
(-0.0439213 -0.00619272 0)
(-0.0426382 -0.00631207 0)
(-0.0413525 -0.00643762 0)
(-0.0400676 -0.00656949 0)
(-0.0387827 -0.00670833 0)
(-0.037494 -0.0068554 0)
(-0.0362 -0.00701158 0)
(-0.0348915 -0.00717988 0)
(-0.0336469 -0.00735143 0)
(-0.0326283 -0.00750095 0)
(-0.0319365 -0.00760634 0)
(-0.0312384 -0.00774691 0)
(0.0536461 -0.0394784 0)
(0.0536497 -0.0394783 0)
(0.0536526 -0.0394783 0)
(0.053655 -0.0394783 0)
(0.053657 -0.0394783 0)
(0.0536587 -0.0394783 0)
(0.05366 -0.0394783 0)
(0.0536612 -0.0394783 0)
(0.0536621 -0.0394783 0)
(0.0536628 -0.0394783 0)
(0.0536635 -0.0394783 0)
(0.053664 -0.0394783 0)
(0.0536643 -0.0394783 0)
(0.0536647 -0.0394783 0)
(0.0536649 -0.0394783 0)
(0.0536651 -0.0394783 0)
(0.0536653 -0.0394783 0)
(0.0536654 -0.0394783 0)
(0.0536655 -0.0394783 0)
(0.0536656 -0.0394783 0)
(0.0536656 -0.0394783 0)
(0.0536657 -0.0394783 0)
(0.0536657 -0.0394783 0)
(0.0536657 -0.0394783 0)
(0.0536658 -0.0394783 0)
(0.0536658 -0.0394783 0)
(0.0536658 -0.0394783 0)
(0.0536658 -0.0394783 0)
(0.0536658 -0.0394783 0)
(0.0536658 -0.0394783 0)
(0.0536658 -0.0394783 0)
(0.0536658 -0.0394783 0)
(0.0536658 -0.0394783 0)
(0.0536658 -0.0394783 0)
(0.0536658 -0.0394783 0)
(0.0536658 -0.0394783 0)
(0.0536658 -0.0394783 0)
(0.0536658 -0.0394783 0)
(0.0536658 -0.0394783 0)
(0.0536658 -0.0394783 0)
(0.0536658 -0.0394783 0)
(0.0536658 -0.0394783 0)
(0.0536658 -0.0394783 0)
(0.0536658 -0.0394783 0)
(0.0536658 -0.0394783 0)
(0.0536658 -0.0394783 0)
(0.0536658 -0.0394783 0)
(0.0536658 -0.0394783 0)
(0.0536658 -0.0394783 0)
(0.0536658 -0.0394783 0)
(0.0536658 -0.0394783 0)
(0.0536658 -0.0394783 0)
(0.0536658 -0.0394783 0)
(0.0536658 -0.0394783 0)
(0.0536658 -0.0394783 0)
(0.0536658 -0.0394783 0)
(0.0536658 -0.0394783 0)
(0.0536658 -0.0394783 0)
(0.0536658 -0.0394783 0)
(0.0536658 -0.0394783 0)
(0.0536658 -0.0394783 0)
(0.0536658 -0.0394783 0)
(0.0536658 -0.0394783 0)
(0.0536658 -0.0394783 0)
(0.0536658 -0.0394783 0)
(0.0536658 -0.0394783 0)
(0.0536658 -0.0394783 0)
(0.0536658 -0.0394783 0)
(0.0536658 -0.0394783 0)
(0.0536658 -0.0394783 0)
(0.0536658 -0.0394783 0)
(0.0536658 -0.0394783 0)
(0.0536658 -0.0394783 0)
(0.0536658 -0.0394783 0)
(0.0536658 -0.0394783 0)
(0.0536658 -0.0394783 0)
(0.0536658 -0.0394783 0)
(0.0536658 -0.0394783 0)
(0.0536658 -0.0394783 0)
(0.0536658 -0.0394783 0)
(0.0536658 -0.0394783 0)
(0.0536658 -0.0394783 0)
(0.0536658 -0.0394783 0)
(0.0536658 -0.0394783 0)
(0.0536658 -0.0394783 0)
(0.0536658 -0.0394783 0)
(0.0536658 -0.0394783 0)
(0.0536658 -0.0394783 0)
(0.0536658 -0.0394783 0)
(0.0536658 -0.0394783 0)
(0.0536658 -0.0394783 0)
(0.0536658 -0.0394783 0)
(0.0536658 -0.0394783 0)
(0.0536658 -0.0394783 0)
(0.0536658 -0.0394783 0)
(0.0536658 -0.0394783 0)
(0.0536658 -0.0394783 0)
(0.0536658 -0.0394783 0)
(0.0536658 -0.0394783 0)
(0.0536658 -0.0394783 0)
(0.0536658 -0.0394783 0)
(0.0536658 -0.0394783 0)
(0.0536658 -0.0394783 0)
(0.0536658 -0.0394783 0)
(0.0536658 -0.0394783 0)
(0.0536658 -0.0394783 0)
(0.0536658 -0.0394783 0)
(0.0536658 -0.0394783 0)
(0.0536658 -0.0394783 0)
(0.0536658 -0.0394783 0)
(0.0536658 -0.0394783 0)
(0.0536658 -0.0394783 0)
(0.0536658 -0.0394783 0)
(0.0536658 -0.0394783 0)
(0.0536659 -0.0394781 0)
(0.0536673 -0.0394696 0)
(0.053701 -0.0391233 0)
(0.0544796 -0.0223598 0)
)
;

boundaryField
{
    inandouthalf11
    {
        type            cyclic;
    }
    inandouthalf12
    {
        type            cyclic;
    }
    inandouthalf21
    {
        type            cyclic;
    }
    inandouthalf22
    {
        type            cyclic;
    }
    inandouthalf31
    {
        type            cyclic;
    }
    inandouthalf32
    {
        type            cyclic;
    }
    inandouthalf41
    {
        type            cyclic;
    }
    inandouthalf42
    {
        type            cyclic;
    }
    top
    {
        type            symmetryPlane;
    }
    walls
    {
        type            fixedValue;
        value           uniform (0 0 0);
    }
    frontAndBackPlanes
    {
        type            empty;
    }
}


// ************************************************************************* //
