/*--------------------------------*- C++ -*----------------------------------*\
| =========                 |                                                 |
| \\      /  F ield         | OpenFOAM: The Open Source CFD Toolbox           |
|  \\    /   O peration     | Version:  2.4.x                                 |
|   \\  /    A nd           | Web:      www.OpenFOAM.org                      |
|    \\/     M anipulation  |                                                 |
\*---------------------------------------------------------------------------*/
FoamFile
{
    version     2.0;
    format      ascii;
    class       volVectorField;
    location    "3.15";
    object      Ua_0;
}
// * * * * * * * * * * * * * * * * * * * * * * * * * * * * * * * * * * * * * //

dimensions      [0 1 -1 0 0 0 0];

internalField   nonuniform List<vector> 
360
(
(-1.03252e-32 -6.52695e-32 0)
(-1.00138e-07 -4.8544e-07 0)
(-2.66257e-07 -1.18143e-06 0)
(-4.24478e-07 -1.79888e-06 0)
(-5.62277e-07 -2.33209e-06 0)
(-6.86957e-07 -2.818e-06 0)
(-8.05748e-07 -3.28645e-06 0)
(-9.22907e-07 -3.75473e-06 0)
(-1.03979e-06 -4.22649e-06 0)
(-1.1568e-06 -4.70144e-06 0)
(-1.27559e-06 -5.18623e-06 0)
(-1.39965e-06 -5.69651e-06 0)
(-1.53348e-06 -6.25352e-06 0)
(-1.68066e-06 -6.87599e-06 0)
(-1.84046e-06 -7.565e-06 0)
(-2.00361e-06 -8.28366e-06 0)
(-2.15152e-06 -8.9486e-06 0)
(-2.2646e-06 -9.46474e-06 0)
(-2.33558e-06 -9.79094e-06 0)
(-2.37278e-06 -9.96149e-06 0)
(-2.39018e-06 -1.00404e-05 0)
(-2.39829e-06 -1.00766e-05 0)
(-2.4025e-06 -1.00948e-05 0)
(-2.40515e-06 -1.01059e-05 0)
(-2.40721e-06 -1.01142e-05 0)
(-2.40913e-06 -1.01215e-05 0)
(-2.41119e-06 -1.0129e-05 0)
(-2.41353e-06 -1.01373e-05 0)
(-2.41626e-06 -1.01465e-05 0)
(-2.41938e-06 -1.01567e-05 0)
(-2.42284e-06 -1.01677e-05 0)
(-2.42654e-06 -1.01791e-05 0)
(-2.43039e-06 -1.01906e-05 0)
(-2.43431e-06 -1.02021e-05 0)
(-2.43827e-06 -1.02133e-05 0)
(-2.44225e-06 -1.02243e-05 0)
(-2.44625e-06 -1.02351e-05 0)
(-2.45031e-06 -1.02457e-05 0)
(-2.45445e-06 -1.02563e-05 0)
(-2.45868e-06 -1.0267e-05 0)
(-2.46304e-06 -1.02776e-05 0)
(-2.46752e-06 -1.02884e-05 0)
(-2.47215e-06 -1.02992e-05 0)
(-2.47692e-06 -1.03102e-05 0)
(-2.48185e-06 -1.03213e-05 0)
(-2.48692e-06 -1.03325e-05 0)
(-2.49216e-06 -1.03438e-05 0)
(-2.49755e-06 -1.03553e-05 0)
(-2.50313e-06 -1.0367e-05 0)
(-2.50889e-06 -1.03788e-05 0)
(-2.51486e-06 -1.03909e-05 0)
(-2.52106e-06 -1.04033e-05 0)
(-2.5275e-06 -1.04159e-05 0)
(-2.5342e-06 -1.04289e-05 0)
(-2.54118e-06 -1.04422e-05 0)
(-2.54847e-06 -1.0456e-05 0)
(-2.55608e-06 -1.04702e-05 0)
(-2.56404e-06 -1.04849e-05 0)
(-2.57235e-06 -1.05e-05 0)
(-2.58104e-06 -1.05157e-05 0)
(-2.59009e-06 -1.05319e-05 0)
(-2.5995e-06 -1.05486e-05 0)
(-2.60924e-06 -1.05657e-05 0)
(-2.61928e-06 -1.05831e-05 0)
(-2.62959e-06 -1.06009e-05 0)
(-2.64014e-06 -1.0619e-05 0)
(-2.65094e-06 -1.06373e-05 0)
(-2.66199e-06 -1.06559e-05 0)
(-2.67336e-06 -1.06748e-05 0)
(-2.68509e-06 -1.06943e-05 0)
(-2.69727e-06 -1.07143e-05 0)
(-2.70997e-06 -1.07351e-05 0)
(-2.72326e-06 -1.07567e-05 0)
(-2.73719e-06 -1.07793e-05 0)
(-2.75177e-06 -1.08027e-05 0)
(-2.76699e-06 -1.08271e-05 0)
(-2.7828e-06 -1.08523e-05 0)
(-2.79915e-06 -1.08782e-05 0)
(-2.81598e-06 -1.09048e-05 0)
(-2.83324e-06 -1.09319e-05 0)
(-2.8509e-06 -1.09595e-05 0)
(-2.86897e-06 -1.09876e-05 0)
(-2.88746e-06 -1.10162e-05 0)
(-2.90641e-06 -1.10454e-05 0)
(-2.92585e-06 -1.10753e-05 0)
(-2.94581e-06 -1.11059e-05 0)
(-2.96629e-06 -1.11371e-05 0)
(-2.98729e-06 -1.11691e-05 0)
(-3.00879e-06 -1.12016e-05 0)
(-3.03075e-06 -1.12348e-05 0)
(-3.05314e-06 -1.12685e-05 0)
(-3.07591e-06 -1.13026e-05 0)
(-3.09905e-06 -1.13372e-05 0)
(-3.12253e-06 -1.13722e-05 0)
(-3.14636e-06 -1.14076e-05 0)
(-3.17053e-06 -1.14434e-05 0)
(-3.19505e-06 -1.14796e-05 0)
(-3.21991e-06 -1.15162e-05 0)
(-3.24512e-06 -1.15532e-05 0)
(-3.27067e-06 -1.15906e-05 0)
(-3.29656e-06 -1.16284e-05 0)
(-3.32277e-06 -1.16665e-05 0)
(-3.34929e-06 -1.1705e-05 0)
(-3.37612e-06 -1.17438e-05 0)
(-3.40324e-06 -1.17829e-05 0)
(-3.43061e-06 -1.18223e-05 0)
(-3.45823e-06 -1.18618e-05 0)
(-3.48607e-06 -1.19016e-05 0)
(-3.51408e-06 -1.19415e-05 0)
(-3.54226e-06 -1.19815e-05 0)
(-3.57056e-06 -1.20215e-05 0)
(-3.59895e-06 -1.20615e-05 0)
(-3.62743e-06 -1.21015e-05 0)
(-3.65597e-06 -1.21414e-05 0)
(-3.68459e-06 -1.21813e-05 0)
(-3.71329e-06 -1.22211e-05 0)
(-3.74214e-06 -1.22609e-05 0)
(-3.7712e-06 -1.23008e-05 0)
(-3.80058e-06 -1.2341e-05 0)
(-3.83044e-06 -1.23816e-05 0)
(-3.86097e-06 -1.24229e-05 0)
(-3.8924e-06 -1.24651e-05 0)
(-3.92505e-06 -1.25087e-05 0)
(-3.95924e-06 -1.2554e-05 0)
(-3.99537e-06 -1.26015e-05 0)
(-4.03388e-06 -1.26517e-05 0)
(-4.07525e-06 -1.27051e-05 0)
(-4.11998e-06 -1.27623e-05 0)
(-4.16856e-06 -1.28237e-05 0)
(-4.22143e-06 -1.28896e-05 0)
(-4.27886e-06 -1.29604e-05 0)
(-4.34094e-06 -1.30356e-05 0)
(-4.40754e-06 -1.3115e-05 0)
(-4.47834e-06 -1.31977e-05 0)
(-4.55281e-06 -1.3283e-05 0)
(-4.6299e-06 -1.33695e-05 0)
(-4.70774e-06 -1.34546e-05 0)
(-4.78383e-06 -1.35355e-05 0)
(-4.85541e-06 -1.36093e-05 0)
(-4.91898e-06 -1.36734e-05 0)
(-4.96926e-06 -1.3723e-05 0)
(-5.00175e-06 -1.37538e-05 0)
(-5.01828e-06 -1.37682e-05 0)
(-5.02507e-06 -1.37737e-05 0)
(-5.02761e-06 -1.37753e-05 0)
(-5.02909e-06 -1.37758e-05 0)
(-5.03143e-06 -1.3777e-05 0)
(-7.62377e-06 -1.55832e-05 0)
(-2.02427e-05 -1.71121e-05 0)
(-0.0061164 -1.28699e-05 0)
(-0.0932862 0.000412896 0)
(-0.170879 -0.00059356 0)
(-0.203072 -0.0036007 0)
(-0.218312 -0.00713629 0)
(-0.225989 -0.0104788 0)
(-0.229702 -0.013169 0)
(-0.231047 -0.0151423 0)
(-0.230856 -0.016574 0)
(-0.229601 -0.0175975 0)
(-0.227575 -0.0183033 0)
(-0.224967 -0.0187604 0)
(-0.221908 -0.0190209 0)
(-0.218492 -0.0191244 0)
(-0.214789 -0.0191012 0)
(-0.210854 -0.0189754 0)
(-0.20673 -0.0187658 0)
(-0.202455 -0.0184877 0)
(-0.19806 -0.0181537 0)
(-0.193571 -0.0177743 0)
(-0.189012 -0.0173582 0)
(-0.184405 -0.0169133 0)
(-0.179772 -0.0164461 0)
(-0.175129 -0.0159629 0)
(-0.170495 -0.0154688 0)
(-0.165886 -0.0149683 0)
(-0.161317 -0.014465 0)
(-0.156805 -0.0139612 0)
(-0.152361 -0.0134578 0)
(-0.148 -0.0129544 0)
(-0.143733 -0.0124488 0)
(-0.139571 -0.0119381 0)
(-0.135524 -0.0114183 0)
(-0.131601 -0.0108856 0)
(-0.127811 -0.0103367 0)
(-0.124161 -0.00976985 0)
(-0.120658 -0.0091856 0)
(-0.117307 -0.00858754 0)
(-0.114113 -0.00798302 0)
(-0.111082 -0.00738367 0)
(-0.108214 -0.00680559 0)
(-0.10551 -0.00626873 0)
(-0.102965 -0.00579447 0)
(-0.100571 -0.00540064 0)
(-0.0983127 -0.00509514 0)
(-0.0961704 -0.00487248 0)
(-0.0941266 -0.0047168 0)
(-0.0921682 -0.00460961 0)
(-0.0902876 -0.00453566 0)
(-0.0884803 -0.00448468 0)
(-0.0867437 -0.00445033 0)
(-0.085076 -0.00442847 0)
(-0.0834604 -0.00441601 0)
(-0.0818779 -0.00441148 0)
(-0.080323 -0.00441453 0)
(-0.0787939 -0.00442435 0)
(-0.0772927 -0.00443957 0)
(-0.0758141 -0.0044602 0)
(-0.0743497 -0.00448701 0)
(-0.0729026 -0.00451912 0)
(-0.0714757 -0.00455563 0)
(-0.0700607 -0.00459731 0)
(-0.0686552 -0.00464425 0)
(-0.0672628 -0.00469574 0)
(-0.0658792 -0.00475197 0)
(-0.064504 -0.00481284 0)
(-0.063143 -0.00487735 0)
(-0.0617887 -0.00494562 0)
(-0.0604398 -0.00501731 0)
(-0.0591106 -0.00509066 0)
(-0.0577958 -0.00516566 0)
(-0.0564848 -0.00524324 0)
(-0.0551825 -0.00532314 0)
(-0.0538891 -0.00540542 0)
(-0.0526045 -0.00549031 0)
(-0.0513281 -0.00557788 0)
(-0.0500485 -0.00566935 0)
(-0.0487705 -0.00576464 0)
(-0.0474999 -0.00586321 0)
(-0.0462232 -0.00596674 0)
(-0.0449453 -0.00607518 0)
(-0.0436682 -0.0061884 0)
(-0.0423852 -0.00630777 0)
(-0.0410996 -0.00643332 0)
(-0.0398148 -0.00656521 0)
(-0.03853 -0.00670406 0)
(-0.0372415 -0.00685115 0)
(-0.0359477 -0.00700733 0)
(-0.0346394 -0.00717565 0)
(-0.0333948 -0.00734725 0)
(-0.0323759 -0.00749686 0)
(-0.0316839 -0.00760234 0)
(-0.0309856 -0.00774297 0)
(0.0538909 -0.0394784 0)
(0.0538945 -0.0394783 0)
(0.0538973 -0.0394783 0)
(0.0538997 -0.0394783 0)
(0.0539018 -0.0394783 0)
(0.0539034 -0.0394783 0)
(0.0539048 -0.0394783 0)
(0.0539059 -0.0394783 0)
(0.0539069 -0.0394783 0)
(0.0539076 -0.0394783 0)
(0.0539082 -0.0394783 0)
(0.0539087 -0.0394783 0)
(0.0539091 -0.0394783 0)
(0.0539094 -0.0394783 0)
(0.0539097 -0.0394783 0)
(0.0539099 -0.0394783 0)
(0.0539101 -0.0394783 0)
(0.0539102 -0.0394783 0)
(0.0539103 -0.0394783 0)
(0.0539104 -0.0394783 0)
(0.0539104 -0.0394783 0)
(0.0539105 -0.0394783 0)
(0.0539105 -0.0394783 0)
(0.0539105 -0.0394783 0)
(0.0539105 -0.0394783 0)
(0.0539106 -0.0394783 0)
(0.0539106 -0.0394783 0)
(0.0539106 -0.0394783 0)
(0.0539106 -0.0394783 0)
(0.0539106 -0.0394783 0)
(0.0539106 -0.0394783 0)
(0.0539106 -0.0394783 0)
(0.0539106 -0.0394783 0)
(0.0539106 -0.0394783 0)
(0.0539106 -0.0394783 0)
(0.0539106 -0.0394783 0)
(0.0539106 -0.0394783 0)
(0.0539106 -0.0394783 0)
(0.0539106 -0.0394783 0)
(0.0539106 -0.0394783 0)
(0.0539106 -0.0394783 0)
(0.0539106 -0.0394783 0)
(0.0539106 -0.0394783 0)
(0.0539106 -0.0394783 0)
(0.0539106 -0.0394783 0)
(0.0539106 -0.0394783 0)
(0.0539106 -0.0394783 0)
(0.0539106 -0.0394783 0)
(0.0539106 -0.0394783 0)
(0.0539106 -0.0394783 0)
(0.0539106 -0.0394783 0)
(0.0539106 -0.0394783 0)
(0.0539106 -0.0394783 0)
(0.0539106 -0.0394783 0)
(0.0539106 -0.0394783 0)
(0.0539106 -0.0394783 0)
(0.0539106 -0.0394783 0)
(0.0539106 -0.0394783 0)
(0.0539106 -0.0394783 0)
(0.0539106 -0.0394783 0)
(0.0539106 -0.0394783 0)
(0.0539106 -0.0394783 0)
(0.0539106 -0.0394783 0)
(0.0539106 -0.0394783 0)
(0.0539106 -0.0394783 0)
(0.0539106 -0.0394783 0)
(0.0539106 -0.0394783 0)
(0.0539106 -0.0394783 0)
(0.0539106 -0.0394783 0)
(0.0539106 -0.0394783 0)
(0.0539106 -0.0394783 0)
(0.0539106 -0.0394783 0)
(0.0539106 -0.0394783 0)
(0.0539106 -0.0394783 0)
(0.0539106 -0.0394783 0)
(0.0539106 -0.0394783 0)
(0.0539106 -0.0394783 0)
(0.0539106 -0.0394783 0)
(0.0539106 -0.0394783 0)
(0.0539106 -0.0394783 0)
(0.0539106 -0.0394783 0)
(0.0539106 -0.0394783 0)
(0.0539106 -0.0394783 0)
(0.0539106 -0.0394783 0)
(0.0539106 -0.0394783 0)
(0.0539106 -0.0394783 0)
(0.0539106 -0.0394783 0)
(0.0539106 -0.0394783 0)
(0.0539106 -0.0394783 0)
(0.0539106 -0.0394783 0)
(0.0539106 -0.0394783 0)
(0.0539106 -0.0394783 0)
(0.0539106 -0.0394783 0)
(0.0539106 -0.0394783 0)
(0.0539106 -0.0394783 0)
(0.0539106 -0.0394783 0)
(0.0539106 -0.0394783 0)
(0.0539106 -0.0394783 0)
(0.0539106 -0.0394783 0)
(0.0539106 -0.0394783 0)
(0.0539106 -0.0394783 0)
(0.0539106 -0.0394783 0)
(0.0539106 -0.0394783 0)
(0.0539106 -0.0394783 0)
(0.0539106 -0.0394783 0)
(0.0539106 -0.0394783 0)
(0.0539106 -0.0394783 0)
(0.0539106 -0.0394783 0)
(0.0539106 -0.0394783 0)
(0.0539106 -0.0394783 0)
(0.0539106 -0.0394783 0)
(0.0539106 -0.0394783 0)
(0.0539106 -0.0394783 0)
(0.0539106 -0.0394783 0)
(0.0539107 -0.0394781 0)
(0.053912 -0.0394696 0)
(0.0539457 -0.0391233 0)
(0.0547245 -0.0223598 0)
)
;

boundaryField
{
    inandouthalf11
    {
        type            cyclic;
    }
    inandouthalf12
    {
        type            cyclic;
    }
    inandouthalf21
    {
        type            cyclic;
    }
    inandouthalf22
    {
        type            cyclic;
    }
    inandouthalf31
    {
        type            cyclic;
    }
    inandouthalf32
    {
        type            cyclic;
    }
    inandouthalf41
    {
        type            cyclic;
    }
    inandouthalf42
    {
        type            cyclic;
    }
    top
    {
        type            symmetryPlane;
    }
    walls
    {
        type            fixedValue;
        value           uniform (0 0 0);
    }
    frontAndBackPlanes
    {
        type            empty;
    }
}


// ************************************************************************* //
