/*--------------------------------*- C++ -*----------------------------------*\
| =========                 |                                                 |
| \\      /  F ield         | OpenFOAM: The Open Source CFD Toolbox           |
|  \\    /   O peration     | Version:  2.4.x                                 |
|   \\  /    A nd           | Web:      www.OpenFOAM.org                      |
|    \\/     M anipulation  |                                                 |
\*---------------------------------------------------------------------------*/
FoamFile
{
    version     2.0;
    format      ascii;
    class       volScalarField;
    location    "6.15";
    object      alpha;
}
// * * * * * * * * * * * * * * * * * * * * * * * * * * * * * * * * * * * * * //

dimensions      [0 0 0 0 0 0 0];

internalField   nonuniform List<scalar> 
360
(
0.610685
0.61144
0.611556
0.611482
0.611433
0.611413
0.611394
0.611371
0.611348
0.611324
0.611299
0.611275
0.61125
0.611226
0.611201
0.611176
0.61115
0.611124
0.611099
0.611072
0.611046
0.611019
0.610992
0.610965
0.610938
0.61091
0.610882
0.610854
0.610826
0.610797
0.610768
0.610739
0.61071
0.61068
0.61065
0.61062
0.610589
0.610558
0.610526
0.610495
0.610462
0.61043
0.610397
0.610364
0.610331
0.610298
0.610265
0.610232
0.610199
0.610165
0.610132
0.610098
0.610063
0.610027
0.60999
0.60995
0.609909
0.609864
0.609816
0.609765
0.609713
0.609664
0.609619
0.60958
0.609546
0.609515
0.609485
0.609453
0.609421
0.609388
0.609353
0.609317
0.609281
0.609242
0.609203
0.609163
0.609122
0.60908
0.609038
0.608994
0.608949
0.608903
0.608856
0.608808
0.608758
0.608707
0.608655
0.608602
0.608548
0.608493
0.608436
0.608378
0.608319
0.608259
0.608197
0.608134
0.608069
0.608002
0.607935
0.607865
0.607794
0.607721
0.607647
0.60757
0.607492
0.607412
0.60733
0.607245
0.607159
0.60707
0.606978
0.606885
0.606788
0.606689
0.606587
0.606482
0.606374
0.606263
0.606148
0.60603
0.605908
0.605782
0.605652
0.605517
0.605378
0.605235
0.605086
0.604932
0.604772
0.604605
0.604432
0.604251
0.604063
0.603864
0.603653
0.60343
0.603196
0.602948
0.602673
0.602357
0.602016
0.601691
0.601302
0.600798
0.600173
0.599031
0.595398
0.592306
0.374737
0.237084
0.179671
0.139983
0.109209
0.0849996
0.0661842
0.0517465
0.0407427
0.0323594
0.0259448
0.0210005
0.0171554
0.0141362
0.0117424
0.00982657
0.00827941
0.00701939
0.00598513
0.00512993
0.00441801
0.00382161
0.00331909
0.00289339
0.00253094
0.00222092
0.0019546
0.00172488
0.001526
0.0013532
0.00120256
0.00107083
0.000955309
0.000853712
0.00076413
0.000684948
0.000614792
0.000552496
0.000497062
0.000447634
0.000403473
0.000363943
0.000328485
0.000296613
0.000267895
0.000241955
0.00021846
0.000197115
0.000177665
0.000159898
0.00014365
0.00012881
0.000115295
0.000102857
9.1297e-05
8.0577e-05
7.0618e-05
6.13675e-05
5.28751e-05
4.51786e-05
3.82897e-05
3.22301e-05
2.6971e-05
2.24717e-05
1.86641e-05
1.54499e-05
1.27716e-05
1.05509e-05
8.70157e-06
7.17413e-06
5.91318e-06
4.87051e-06
4.00419e-06
3.28695e-06
2.69767e-06
2.20695e-06
1.80116e-06
1.46768e-06
1.19197e-06
9.64117e-07
7.77203e-07
6.22009e-07
4.97321e-07
3.90441e-07
3.10047e-07
2.37429e-07
1.92563e-07
1.28867e-07
1.61621e-07
1.30895e-07
3.74785e-08
2.52071e-08
9.43212e-10
4.57304e-27
1.97812e-27
1.61147e-27
7.55083e-28
3.24985e-28
1.51461e-28
8.45532e-29
5.41643e-29
3.90069e-29
3.06482e-29
2.41782e-29
1.70175e-29
8.74455e-30
3.59423e-30
1.77474e-30
9.96758e-31
6.15404e-31
4.1054e-31
2.64166e-31
1.30866e-31
5.962e-32
3.07515e-32
1.66932e-32
9.30898e-33
4.80214e-33
2.34186e-33
1.17791e-33
5.86369e-34
2.86953e-34
1.37898e-34
6.50341e-35
3.00798e-35
1.36352e-35
6.05323e-36
2.62978e-36
1.11713e-36
4.63631e-37
1.87811e-37
7.41878e-38
2.85465e-38
1.06881e-38
3.88916e-39
1.37362e-39
4.70257e-40
1.55816e-40
4.98883e-41
1.54075e-41
4.5812e-42
1.30867e-42
3.58328e-43
9.38041e-44
2.34109e-44
5.55249e-45
1.24703e-45
2.64129e-46
5.25153e-47
9.74872e-48
1.67906e-48
2.66317e-49
3.85513e-50
5.03719e-51
5.85877e-52
5.95747e-53
5.1687e-54
3.69567e-55
2.06416e-56
8.19955e-58
1.87877e-59
8.94282e-62
1.29291e-65
1.39921e-67
7.51423e-70
2.42447e-80
3.87222e-91
4.29807e-102
3.4912e-113
2.32316e-124
1.22761e-135
5.46865e-147
8.55103e-157
3.33209e-167
2.8976e-175
1.00974e-185
9.96697e-194
4.02568e-204
3.42897e-212
1.69654e-222
1.18069e-230
1.07124e-240
4.1161e-249
6.96892e-259
1.46109e-267
3.44265e-277
5.27571e-286
1.62746e-295
1.93385e-304
7.14122e-314
4.4462e-319
2.8055e-319
6.80328e-321
7.09478e-321
6.08689e-321
8.5424e-321
0
0
0
0
0
0
0
0
0
0
0
0
0
0
0
0
)
;

boundaryField
{
    inandouthalf11
    {
        type            cyclic;
    }
    inandouthalf12
    {
        type            cyclic;
    }
    inandouthalf21
    {
        type            cyclic;
    }
    inandouthalf22
    {
        type            cyclic;
    }
    inandouthalf31
    {
        type            cyclic;
    }
    inandouthalf32
    {
        type            cyclic;
    }
    inandouthalf41
    {
        type            cyclic;
    }
    inandouthalf42
    {
        type            cyclic;
    }
    top
    {
        type            symmetryPlane;
    }
    walls
    {
        type            zeroGradient;
    }
    frontAndBackPlanes
    {
        type            empty;
    }
}


// ************************************************************************* //
