/*--------------------------------*- C++ -*----------------------------------*\
| =========                 |                                                 |
| \\      /  F ield         | OpenFOAM: The Open Source CFD Toolbox           |
|  \\    /   O peration     | Version:  2.4.x                                 |
|   \\  /    A nd           | Web:      www.OpenFOAM.org                      |
|    \\/     M anipulation  |                                                 |
\*---------------------------------------------------------------------------*/
FoamFile
{
    version     2.0;
    format      ascii;
    class       surfaceScalarField;
    location    "6.15";
    object      ddt0(phib);
}
// * * * * * * * * * * * * * * * * * * * * * * * * * * * * * * * * * * * * * //

dimensions      [0 3 -2 0 0 0 0];

internalField   nonuniform List<scalar> 
359
(
-2.47558e-13
-6.88317e-13
-1.09912e-12
-1.47936e-12
-1.86143e-12
-2.25484e-12
-2.65572e-12
-3.05911e-12
-3.46264e-12
-3.86666e-12
-4.2724e-12
-4.68049e-12
-5.09113e-12
-5.50402e-12
-5.91895e-12
-6.336e-12
-6.75532e-12
-7.177e-12
-7.601e-12
-8.02735e-12
-8.45546e-12
-8.88515e-12
-9.31594e-12
-9.74719e-12
-1.01783e-11
-1.06087e-11
-1.10381e-11
-1.14671e-11
-1.18965e-11
-1.2328e-11
-1.27642e-11
-1.32089e-11
-1.36654e-11
-1.41384e-11
-1.46303e-11
-1.51424e-11
-1.56723e-11
-1.62136e-11
-1.67542e-11
-1.72749e-11
-1.77527e-11
-1.81605e-11
-1.84731e-11
-1.86731e-11
-1.87568e-11
-1.87402e-11
-1.86625e-11
-1.85857e-11
-1.85931e-11
-1.87871e-11
-1.92893e-11
-2.02461e-11
-2.18382e-11
-2.42912e-11
-2.78663e-11
-3.28105e-11
-3.91561e-11
-4.63384e-11
-5.26303e-11
-5.50251e-11
-5.05821e-11
-3.91751e-11
-2.47453e-11
-1.25352e-11
-5.09289e-12
-1.68992e-12
-4.73969e-13
-1.177e-13
-2.68957e-14
-5.38795e-15
-3.21803e-16
8.91415e-16
1.22297e-15
1.34197e-15
1.37983e-15
1.35849e-15
1.38224e-15
1.37025e-15
1.3816e-15
1.34566e-15
1.33234e-15
1.30744e-15
1.29448e-15
1.2766e-15
1.24181e-15
1.17061e-15
1.13232e-15
1.10146e-15
1.06141e-15
1.05322e-15
1.00223e-15
9.62943e-16
9.32206e-16
9.20623e-16
8.97911e-16
8.58493e-16
8.27277e-16
7.98958e-16
7.70365e-16
7.17004e-16
6.94441e-16
6.68776e-16
6.31153e-16
6.11919e-16
5.98862e-16
5.75648e-16
5.48403e-16
5.31738e-16
4.83942e-16
4.72165e-16
4.56972e-16
3.91774e-16
3.77651e-16
3.4758e-16
2.72298e-16
2.68638e-16
2.67149e-16
2.2648e-16
2.16898e-16
1.75157e-16
1.31793e-16
9.58285e-17
6.67757e-17
6.33756e-18
-2.67589e-17
-5.02565e-17
-1.00976e-16
-1.49168e-16
-1.93563e-16
-2.50709e-16
-3.47866e-16
-4.36688e-16
-5.00742e-16
-6.07075e-16
-6.8622e-16
-7.81552e-16
-8.8447e-16
-1.06253e-15
-1.28786e-15
-1.41975e-15
-1.51827e-15
-1.87342e-15
-2.52733e-15
-3.93017e-15
-1.27175e-14
-1.71391e-14
1.21448e-12
-1.73821e-10
1.49973e-09
1.21627e-09
1.18219e-09
1.00156e-09
8.30781e-10
6.78777e-10
5.52095e-10
4.50201e-10
3.69561e-10
3.05933e-10
2.55653e-10
2.15601e-10
1.83384e-10
1.5719e-10
1.3565e-10
1.1775e-10
1.02728e-10
9.00154e-11
7.91794e-11
6.98883e-11
6.18819e-11
5.49541e-11
4.89378e-11
4.3696e-11
3.91144e-11
3.50974e-11
3.15641e-11
2.84461e-11
2.56854e-11
2.32328e-11
2.10463e-11
1.90902e-11
1.73344e-11
1.57529e-11
1.43239e-11
1.30284e-11
1.18504e-11
1.07761e-11
9.79361e-12
8.89263e-12
8.06388e-12
7.29881e-12
6.58925e-12
5.92725e-12
5.30537e-12
4.71683e-12
4.15572e-12
3.61764e-12
3.10114e-12
2.60891e-12
2.14769e-12
1.72436e-12
1.33989e-12
9.85068e-13
6.61238e-13
3.6806e-13
1.08787e-13
-1.03944e-13
-2.62236e-13
-3.671e-13
-4.22339e-13
-4.36714e-13
-4.21611e-13
-3.88418e-13
-3.46741e-13
-3.01104e-13
-2.56082e-13
-2.15555e-13
-1.79399e-13
-1.47807e-13
-1.21436e-13
-9.96868e-14
-8.13714e-14
-6.5959e-14
-5.35435e-14
-4.33582e-14
-3.48068e-14
-2.79366e-14
-2.23778e-14
-1.78413e-14
-1.41767e-14
-1.12358e-14
-8.86759e-15
-6.87231e-15
-5.19908e-15
-4.06983e-15
-3.09306e-15
-2.26938e-15
-7.31272e-16
-4.85238e-16
3.77534e-15
1.59847e-15
1.11744e-15
3.00207e-16
2.97893e-16
3.10364e-16
3.03058e-16
2.83621e-16
2.91321e-16
2.95647e-16
3.00549e-16
2.94789e-16
2.91192e-16
2.80854e-16
2.73193e-16
2.73831e-16
2.66706e-16
2.59883e-16
2.50745e-16
2.48602e-16
2.32081e-16
2.22809e-16
2.04637e-16
1.89443e-16
1.7582e-16
1.68012e-16
1.66018e-16
1.59335e-16
1.61315e-16
1.55708e-16
1.52339e-16
1.44563e-16
1.3507e-16
1.20151e-16
1.05575e-16
9.65582e-17
8.31735e-17
6.87776e-17
5.49839e-17
3.79733e-17
3.34154e-17
1.61162e-17
7.12566e-18
3.92734e-18
-7.67306e-18
-1.16898e-17
-2.18648e-17
-2.24507e-17
-5.55925e-18
5.13516e-18
1.02821e-17
1.5028e-17
2.64525e-17
4.12254e-17
5.80221e-17
6.79901e-17
7.38436e-17
7.71379e-17
7.7107e-17
8.11419e-17
7.87836e-17
6.66853e-17
6.98701e-17
6.84893e-17
5.79889e-17
5.74106e-17
4.4824e-17
3.17871e-17
2.98672e-17
3.19057e-17
3.37024e-17
3.95651e-17
5.03199e-17
6.47003e-17
7.14052e-17
7.4398e-17
8.45025e-17
9.93646e-17
1.12065e-16
1.25223e-16
1.48855e-16
1.66047e-16
1.80677e-16
2.02426e-16
2.27444e-16
2.42885e-16
2.79722e-16
2.94489e-16
3.22324e-16
3.2915e-16
5.16135e-16
6.77724e-16
8.47038e-16
9.92906e-16
1.16724e-15
1.30212e-15
1.4398e-15
1.52693e-15
1.71059e-15
1.83497e-15
1.96126e-15
2.00696e-15
2.12439e-15
2.14128e-15
2.17229e-15
2.10406e-15
2.29593e-15
2.3558e-15
2.42912e-15
2.32657e-15
2.35463e-15
2.20566e-15
2.05655e-15
1.74172e-15
1.65565e-15
1.41365e-15
1.16043e-15
7.34611e-16
3.91063e-16
-1.14366e-16
-7.1337e-16
)
;

boundaryField
{
    inandouthalf11
    {
        type            cyclic;
        value           nonuniform List<scalar> 
100
(
-9.76861e-11
-9.72384e-11
-9.71686e-11
-9.72517e-11
-9.73102e-11
-9.73459e-11
-9.73819e-11
-9.74212e-11
-9.74611e-11
-9.75016e-11
-9.75426e-11
-9.75837e-11
-9.76251e-11
-9.76667e-11
-9.77086e-11
-9.77509e-11
-9.77936e-11
-9.78367e-11
-9.788e-11
-9.79238e-11
-9.79678e-11
-9.80123e-11
-9.8057e-11
-9.81021e-11
-9.81475e-11
-9.81932e-11
-9.8239e-11
-9.82853e-11
-9.83318e-11
-9.83785e-11
-9.84257e-11
-9.84736e-11
-9.85218e-11
-9.85713e-11
-9.86215e-11
-9.86731e-11
-9.87256e-11
-9.87793e-11
-9.88339e-11
-9.8888e-11
-9.89419e-11
-9.89938e-11
-9.90423e-11
-9.90872e-11
-9.91269e-11
-9.91622e-11
-9.91938e-11
-9.92233e-11
-9.92547e-11
-9.92921e-11
-9.93397e-11
-9.94048e-11
-9.94947e-11
-9.96196e-11
-9.97912e-11
-1.00024e-10
-1.00327e-10
-1.00695e-10
-1.01077e-10
-1.01355e-10
-1.0136e-10
-1.00983e-10
-1.00324e-10
-9.96544e-11
-9.91955e-11
-9.89757e-11
-9.89069e-11
-9.89037e-11
-9.89226e-11
-9.89482e-11
-9.89767e-11
-9.90067e-11
-9.90372e-11
-9.90691e-11
-9.91016e-11
-9.91351e-11
-9.9169e-11
-9.92037e-11
-9.92393e-11
-9.92757e-11
-9.93129e-11
-9.93513e-11
-9.93907e-11
-9.94311e-11
-9.94726e-11
-9.9515e-11
-9.95585e-11
-9.96028e-11
-9.96481e-11
-9.96944e-11
-9.97416e-11
-9.979e-11
-9.98394e-11
-9.98901e-11
-9.9942e-11
-9.99951e-11
-1.0005e-10
-1.00105e-10
-1.00162e-10
-1.00221e-10
)
;
    }
    inandouthalf12
    {
        type            cyclic;
        value           nonuniform List<scalar> 
100
(
9.76861e-11
9.72384e-11
9.71686e-11
9.72517e-11
9.73102e-11
9.73459e-11
9.73819e-11
9.74212e-11
9.74611e-11
9.75016e-11
9.75426e-11
9.75837e-11
9.76251e-11
9.76667e-11
9.77086e-11
9.77509e-11
9.77936e-11
9.78367e-11
9.788e-11
9.79238e-11
9.79678e-11
9.80123e-11
9.8057e-11
9.81021e-11
9.81475e-11
9.81932e-11
9.8239e-11
9.82853e-11
9.83318e-11
9.83785e-11
9.84257e-11
9.84736e-11
9.85218e-11
9.85713e-11
9.86215e-11
9.86731e-11
9.87256e-11
9.87793e-11
9.88339e-11
9.8888e-11
9.89419e-11
9.89938e-11
9.90423e-11
9.90872e-11
9.91269e-11
9.91622e-11
9.91938e-11
9.92233e-11
9.92547e-11
9.92921e-11
9.93397e-11
9.94048e-11
9.94947e-11
9.96196e-11
9.97912e-11
1.00024e-10
1.00327e-10
1.00695e-10
1.01077e-10
1.01355e-10
1.0136e-10
1.00983e-10
1.00324e-10
9.96544e-11
9.91955e-11
9.89757e-11
9.89069e-11
9.89037e-11
9.89226e-11
9.89482e-11
9.89767e-11
9.90067e-11
9.90372e-11
9.90691e-11
9.91016e-11
9.91351e-11
9.9169e-11
9.92037e-11
9.92393e-11
9.92757e-11
9.93129e-11
9.93513e-11
9.93907e-11
9.94311e-11
9.94726e-11
9.9515e-11
9.95585e-11
9.96028e-11
9.96481e-11
9.96944e-11
9.97416e-11
9.979e-11
9.98394e-11
9.98901e-11
9.9942e-11
9.99951e-11
1.0005e-10
1.00105e-10
1.00162e-10
1.00221e-10
)
;
    }
    inandouthalf21
    {
        type            cyclic;
        value           nonuniform List<scalar> 
100
(
-1.0028e-10
-1.00342e-10
-1.00404e-10
-1.00469e-10
-1.00535e-10
-1.00602e-10
-1.00672e-10
-1.00743e-10
-1.00816e-10
-1.00891e-10
-1.00968e-10
-1.01048e-10
-1.01129e-10
-1.01213e-10
-1.013e-10
-1.01389e-10
-1.01481e-10
-1.01576e-10
-1.01673e-10
-1.01774e-10
-1.01878e-10
-1.01985e-10
-1.02097e-10
-1.02211e-10
-1.0233e-10
-1.02453e-10
-1.02581e-10
-1.02713e-10
-1.02851e-10
-1.02995e-10
-1.03144e-10
-1.033e-10
-1.03463e-10
-1.03634e-10
-1.03817e-10
-1.04011e-10
-1.04214e-10
-1.04431e-10
-1.04671e-10
-1.04948e-10
-1.05247e-10
-1.05533e-10
-1.05876e-10
-1.06322e-10
-1.06879e-10
-1.07915e-10
-1.11777e-10
-6.04797e-10
-9.69801e-08
-1.10015e-07
-1.063e-07
-1.09064e-07
-1.14115e-07
-1.19957e-07
-1.25889e-07
-1.31573e-07
-1.36868e-07
-1.41731e-07
-1.46171e-07
-1.50217e-07
-1.53908e-07
-1.57284e-07
-1.60383e-07
-1.63237e-07
-1.65876e-07
-1.68325e-07
-1.70606e-07
-1.72738e-07
-1.74737e-07
-1.76617e-07
-1.78389e-07
-1.80065e-07
-1.81652e-07
-1.83159e-07
-1.84592e-07
-1.85956e-07
-1.87257e-07
-1.88498e-07
-1.89684e-07
-1.90817e-07
-1.919e-07
-1.92936e-07
-1.93925e-07
-1.94869e-07
-1.9577e-07
-1.96628e-07
-1.97444e-07
-1.98218e-07
-1.98951e-07
-1.99642e-07
-2.00292e-07
-2.00898e-07
-2.01462e-07
-2.01982e-07
-2.02457e-07
-2.02886e-07
-2.03267e-07
-2.03598e-07
-2.03879e-07
-2.04106e-07
)
;
    }
    inandouthalf22
    {
        type            cyclic;
        value           nonuniform List<scalar> 
100
(
1.0028e-10
1.00342e-10
1.00404e-10
1.00469e-10
1.00535e-10
1.00602e-10
1.00672e-10
1.00743e-10
1.00816e-10
1.00891e-10
1.00968e-10
1.01048e-10
1.01129e-10
1.01213e-10
1.013e-10
1.01389e-10
1.01481e-10
1.01576e-10
1.01673e-10
1.01774e-10
1.01878e-10
1.01985e-10
1.02097e-10
1.02211e-10
1.0233e-10
1.02453e-10
1.02581e-10
1.02713e-10
1.02851e-10
1.02995e-10
1.03144e-10
1.033e-10
1.03463e-10
1.03634e-10
1.03817e-10
1.04011e-10
1.04214e-10
1.04431e-10
1.04671e-10
1.04948e-10
1.05247e-10
1.05533e-10
1.05876e-10
1.06322e-10
1.06879e-10
1.07915e-10
1.11777e-10
6.04797e-10
9.69801e-08
1.10015e-07
1.063e-07
1.09064e-07
1.14115e-07
1.19957e-07
1.25889e-07
1.31573e-07
1.36868e-07
1.41731e-07
1.46171e-07
1.50217e-07
1.53908e-07
1.57284e-07
1.60383e-07
1.63237e-07
1.65876e-07
1.68325e-07
1.70606e-07
1.72738e-07
1.74737e-07
1.76617e-07
1.78389e-07
1.80065e-07
1.81652e-07
1.83159e-07
1.84592e-07
1.85956e-07
1.87257e-07
1.88498e-07
1.89684e-07
1.90817e-07
1.919e-07
1.92936e-07
1.93925e-07
1.94869e-07
1.9577e-07
1.96628e-07
1.97444e-07
1.98218e-07
1.98951e-07
1.99642e-07
2.00292e-07
2.00898e-07
2.01462e-07
2.01982e-07
2.02457e-07
2.02886e-07
2.03267e-07
2.03598e-07
2.03879e-07
2.04106e-07
)
;
    }
    inandouthalf31
    {
        type            cyclic;
        value           nonuniform List<scalar> 
110
(
-2.04279e-07
-2.08543e-07
-2.12833e-07
-2.1714e-07
-2.21453e-07
-2.2576e-07
-2.30048e-07
-2.34299e-07
-2.38495e-07
-2.42615e-07
-2.46636e-07
-2.5053e-07
-2.54268e-07
-2.57816e-07
-2.61139e-07
-2.64196e-07
-2.66946e-07
-2.69346e-07
-2.71352e-07
-2.72923e-07
-2.74026e-07
-2.74634e-07
-2.74737e-07
-2.74347e-07
-2.73499e-07
-2.72256e-07
-2.70709e-07
-2.6897e-07
-2.67164e-07
-2.65417e-07
-2.63841e-07
-2.62522e-07
-2.61522e-07
-2.60874e-07
-2.60586e-07
-2.60655e-07
-2.61067e-07
-2.6181e-07
-2.6287e-07
-2.64239e-07
-2.65909e-07
-2.67876e-07
-2.7014e-07
-2.72701e-07
-2.7556e-07
-2.78723e-07
-2.822e-07
-2.8601e-07
-2.90182e-07
-2.94764e-07
-2.9983e-07
-3.05501e-07
-3.11988e-07
-3.19761e-07
-3.29561e-07
-3.47371e-07
-3.59591e-07
-3.67185e-07
-3.74644e-07
-3.82249e-07
-3.90007e-07
-3.97923e-07
-4.06e-07
-4.14241e-07
-4.22649e-07
-4.31228e-07
-4.3998e-07
-4.48911e-07
-4.58023e-07
-4.67319e-07
-4.76805e-07
-4.86482e-07
-4.96357e-07
-5.06431e-07
-5.16711e-07
-5.27198e-07
-5.37899e-07
-5.48817e-07
-5.59957e-07
-5.71322e-07
-5.82919e-07
-5.9475e-07
-6.06822e-07
-6.19139e-07
-6.31706e-07
-6.44528e-07
-6.5761e-07
-6.70958e-07
-6.84576e-07
-6.98471e-07
-7.12649e-07
-7.27113e-07
-7.41872e-07
-7.5693e-07
-7.72294e-07
-7.87969e-07
-8.03963e-07
-8.20281e-07
-8.36931e-07
-8.53918e-07
-8.7125e-07
-8.88934e-07
-9.06977e-07
-9.25387e-07
-9.44169e-07
-9.63334e-07
-9.82887e-07
-1.00284e-06
-1.02319e-06
-1.04396e-06
)
;
    }
    inandouthalf32
    {
        type            cyclic;
        value           nonuniform List<scalar> 
110
(
2.04279e-07
2.08543e-07
2.12833e-07
2.1714e-07
2.21453e-07
2.2576e-07
2.30048e-07
2.34299e-07
2.38495e-07
2.42615e-07
2.46636e-07
2.5053e-07
2.54268e-07
2.57816e-07
2.61139e-07
2.64196e-07
2.66946e-07
2.69346e-07
2.71352e-07
2.72923e-07
2.74026e-07
2.74634e-07
2.74737e-07
2.74347e-07
2.73499e-07
2.72256e-07
2.70709e-07
2.6897e-07
2.67164e-07
2.65417e-07
2.63841e-07
2.62522e-07
2.61522e-07
2.60874e-07
2.60586e-07
2.60655e-07
2.61067e-07
2.6181e-07
2.6287e-07
2.64239e-07
2.65909e-07
2.67876e-07
2.7014e-07
2.72701e-07
2.7556e-07
2.78723e-07
2.822e-07
2.8601e-07
2.90182e-07
2.94764e-07
2.9983e-07
3.05501e-07
3.11988e-07
3.19761e-07
3.29561e-07
3.47371e-07
3.59591e-07
3.67185e-07
3.74644e-07
3.82249e-07
3.90007e-07
3.97923e-07
4.06e-07
4.14241e-07
4.22649e-07
4.31228e-07
4.3998e-07
4.48911e-07
4.58023e-07
4.67319e-07
4.76805e-07
4.86482e-07
4.96357e-07
5.06431e-07
5.16711e-07
5.27198e-07
5.37899e-07
5.48817e-07
5.59957e-07
5.71322e-07
5.82919e-07
5.9475e-07
6.06822e-07
6.19139e-07
6.31706e-07
6.44528e-07
6.5761e-07
6.70958e-07
6.84576e-07
6.98471e-07
7.12649e-07
7.27113e-07
7.41872e-07
7.5693e-07
7.72294e-07
7.87969e-07
8.03963e-07
8.20281e-07
8.36931e-07
8.53918e-07
8.7125e-07
8.88934e-07
9.06977e-07
9.25387e-07
9.44169e-07
9.63334e-07
9.82887e-07
1.00284e-06
1.02319e-06
1.04396e-06
)
;
    }
    inandouthalf41
    {
        type            cyclic;
        value           nonuniform List<scalar> 
50
(
-9.3445e-07
-9.3445e-07
-9.3445e-07
-9.3445e-07
-9.3445e-07
-9.3445e-07
-9.3445e-07
-9.3445e-07
-9.3445e-07
-9.3445e-07
-9.3445e-07
-9.3445e-07
-9.3445e-07
-9.3445e-07
-9.3445e-07
-9.3445e-07
-9.3445e-07
-9.3445e-07
-9.3445e-07
-9.3445e-07
-9.3445e-07
-9.3445e-07
-9.3445e-07
-9.3445e-07
-9.3445e-07
-9.3445e-07
-9.3445e-07
-9.3445e-07
-9.3445e-07
-9.3445e-07
-9.3445e-07
-9.3445e-07
-9.3445e-07
-9.3445e-07
-9.3445e-07
-9.3445e-07
-9.3445e-07
-9.3445e-07
-9.3445e-07
-9.3445e-07
-9.3445e-07
-9.3445e-07
-9.3445e-07
-9.3445e-07
-9.3445e-07
-9.3445e-07
-9.3445e-07
-9.3445e-07
-9.3445e-07
-9.3445e-07
)
;
    }
    inandouthalf42
    {
        type            cyclic;
        value           nonuniform List<scalar> 
50
(
9.3445e-07
9.3445e-07
9.3445e-07
9.3445e-07
9.3445e-07
9.3445e-07
9.3445e-07
9.3445e-07
9.3445e-07
9.3445e-07
9.3445e-07
9.3445e-07
9.3445e-07
9.3445e-07
9.3445e-07
9.3445e-07
9.3445e-07
9.3445e-07
9.3445e-07
9.3445e-07
9.3445e-07
9.3445e-07
9.3445e-07
9.3445e-07
9.3445e-07
9.3445e-07
9.3445e-07
9.3445e-07
9.3445e-07
9.3445e-07
9.3445e-07
9.3445e-07
9.3445e-07
9.3445e-07
9.3445e-07
9.3445e-07
9.3445e-07
9.3445e-07
9.3445e-07
9.3445e-07
9.3445e-07
9.3445e-07
9.3445e-07
9.3445e-07
9.3445e-07
9.3445e-07
9.3445e-07
9.3445e-07
9.3445e-07
9.3445e-07
)
;
    }
    top
    {
        type            symmetryPlane;
        value           uniform 0;
    }
    walls
    {
        type            calculated;
        value           uniform 0;
    }
    frontAndBackPlanes
    {
        type            empty;
        value           nonuniform 0();
    }
}


// ************************************************************************* //
