/*--------------------------------*- C++ -*----------------------------------*\
| =========                 |                                                 |
| \\      /  F ield         | OpenFOAM: The Open Source CFD Toolbox           |
|  \\    /   O peration     | Version:  2.4.x                                 |
|   \\  /    A nd           | Web:      www.OpenFOAM.org                      |
|    \\/     M anipulation  |                                                 |
\*---------------------------------------------------------------------------*/
FoamFile
{
    version     2.0;
    format      ascii;
    class       volVectorField;
    location    "6.15";
    object      ddt0(Ub);
}
// * * * * * * * * * * * * * * * * * * * * * * * * * * * * * * * * * * * * * //

dimensions      [0 1 -2 0 0 0 0];

internalField   nonuniform List<vector> 
360
(
(9.76861e-05 -2.95813e-08 0)
(9.72384e-05 -1.15565e-07 0)
(9.71686e-05 -2.23391e-07 0)
(9.72517e-05 -3.22303e-07 0)
(9.73102e-05 -4.17607e-07 0)
(9.73459e-05 -5.14529e-07 0)
(9.73819e-05 -6.13811e-07 0)
(9.74212e-05 -7.14345e-07 0)
(9.74611e-05 -8.15207e-07 0)
(9.75016e-05 -9.16151e-07 0)
(9.75426e-05 -1.01737e-06 0)
(9.75837e-05 -1.1191e-06 0)
(9.76251e-05 -1.22144e-06 0)
(9.76667e-05 -1.32438e-06 0)
(9.77086e-05 -1.42786e-06 0)
(9.77509e-05 -1.53186e-06 0)
(9.77936e-05 -1.6364e-06 0)
(9.78367e-05 -1.74153e-06 0)
(9.788e-05 -1.84724e-06 0)
(9.79238e-05 -1.95353e-06 0)
(9.79678e-05 -2.06034e-06 0)
(9.80123e-05 -2.16757e-06 0)
(9.8057e-05 -2.27512e-06 0)
(9.81021e-05 -2.38288e-06 0)
(9.81475e-05 -2.49067e-06 0)
(9.81932e-05 -2.59836e-06 0)
(9.8239e-05 -2.70584e-06 0)
(9.82853e-05 -2.81315e-06 0)
(9.83318e-05 -2.92045e-06 0)
(9.83785e-05 -3.02806e-06 0)
(9.84257e-05 -3.13651e-06 0)
(9.84736e-05 -3.24662e-06 0)
(9.85218e-05 -3.35926e-06 0)
(9.85713e-05 -3.47546e-06 0)
(9.86215e-05 -3.59606e-06 0)
(9.86731e-05 -3.72157e-06 0)
(9.87256e-05 -3.85182e-06 0)
(9.87793e-05 -3.98572e-06 0)
(9.88339e-05 -4.12097e-06 0)
(9.8888e-05 -4.25362e-06 0)
(9.89419e-05 -4.37846e-06 0)
(9.89938e-05 -4.48918e-06 0)
(9.90423e-05 -4.57922e-06 0)
(9.90872e-05 -4.64332e-06 0)
(9.91269e-05 -4.67878e-06 0)
(9.91622e-05 -4.68716e-06 0)
(9.91938e-05 -4.67537e-06 0)
(9.92233e-05 -4.656e-06 0)
(9.92547e-05 -4.64728e-06 0)
(9.92921e-05 -4.67243e-06 0)
(9.93397e-05 -4.75937e-06 0)
(9.94048e-05 -4.94166e-06 0)
(9.94947e-05 -5.26014e-06 0)
(9.96196e-05 -5.7656e-06 0)
(9.97912e-05 -6.51885e-06 0)
(0.000100024 -7.58358e-06 0)
(0.000100327 -8.9948e-06 0)
(0.000100695 -1.06865e-05 0)
(0.000101077 -1.23722e-05 0)
(0.000101355 -1.34594e-05 0)
(0.00010136 -1.32052e-05 0)
(0.000100983 -1.12241e-05 0)
(0.000100324 -7.99103e-06 0)
(9.96544e-05 -4.65768e-06 0)
(9.91955e-05 -2.20073e-06 0)
(9.89757e-05 -8.46185e-07 0)
(9.89069e-05 -2.69761e-07 0)
(9.89037e-05 -7.36964e-08 0)
(9.89226e-05 -1.79934e-08 0)
(9.89482e-05 -4.01341e-09 0)
(9.89767e-05 -7.07614e-10 0)
(9.90067e-05 7.23064e-11 0)
(9.90372e-05 2.64503e-10 0)
(9.90691e-05 3.20925e-10 0)
(9.91016e-05 3.4039e-10 0)
(9.91351e-05 3.42421e-10 0)
(9.9169e-05 3.4235e-10 0)
(9.92037e-05 3.44034e-10 0)
(9.92393e-05 3.44031e-10 0)
(9.92757e-05 3.40811e-10 0)
(9.93129e-05 3.34627e-10 0)
(9.93513e-05 3.30036e-10 0)
(9.93907e-05 3.25261e-10 0)
(9.94311e-05 3.21427e-10 0)
(9.94726e-05 3.14843e-10 0)
(9.9515e-05 3.0161e-10 0)
(9.95585e-05 2.87921e-10 0)
(9.96028e-05 2.79184e-10 0)
(9.96481e-05 2.70335e-10 0)
(9.96944e-05 2.64315e-10 0)
(9.97416e-05 2.56876e-10 0)
(9.979e-05 2.45604e-10 0)
(9.98394e-05 2.36886e-10 0)
(9.98901e-05 2.31594e-10 0)
(9.9942e-05 2.27312e-10 0)
(9.99951e-05 2.19552e-10 0)
(0.00010005 2.10717e-10 0)
(0.000100105 2.03265e-10 0)
(0.000100162 1.96146e-10 0)
(0.000100221 1.85898e-10 0)
(0.00010028 1.76401e-10 0)
(0.000100342 1.70372e-10 0)
(0.000100404 1.62463e-10 0)
(0.000100469 1.55353e-10 0)
(0.000100535 1.51314e-10 0)
(0.000100602 1.46778e-10 0)
(0.000100672 1.40467e-10 0)
(0.000100743 1.34974e-10 0)
(0.000100816 1.26914e-10 0)
(0.000100891 1.19464e-10 0)
(0.000100968 1.1609e-10 0)
(0.000101048 1.06039e-10 0)
(0.000101129 9.61207e-11 0)
(0.000101213 9.0593e-11 0)
(0.0001013 7.74211e-11 0)
(0.000101389 6.75495e-11 0)
(0.000101481 6.69014e-11 0)
(0.000101576 6.16272e-11 0)
(0.000101673 5.53414e-11 0)
(0.000101774 4.89218e-11 0)
(0.000101878 3.82804e-11 0)
(0.000101985 2.83623e-11 0)
(0.000102097 2.02271e-11 0)
(0.000102211 9.01838e-12 0)
(0.00010233 -2.71788e-12 0)
(0.000102453 -9.85591e-12 0)
(0.000102581 -1.91889e-11 0)
(0.000102713 -3.15497e-11 0)
(0.000102851 -4.30325e-11 0)
(0.000102995 -5.56513e-11 0)
(0.000103144 -7.51885e-11 0)
(0.0001033 -9.91679e-11 0)
(0.000103463 -1.18751e-10 0)
(0.000103634 -1.39098e-10 0)
(0.000103817 -1.60898e-10 0)
(0.000104011 -1.84169e-10 0)
(0.000104214 -2.1434e-10 0)
(0.000104431 -2.53143e-10 0)
(0.000104671 -2.92521e-10 0)
(0.000104948 -3.15677e-10 0)
(0.000105247 -3.82284e-10 0)
(0.000105533 -4.74397e-10 0)
(0.000105876 -5.68278e-10 0)
(0.000106322 -1.04127e-09 0)
(0.000106879 -3.86445e-09 0)
(0.000107915 -5.34376e-08 0)
(0.000111777 4.66111e-06 0)
(0.000604797 -2.81108e-05 0)
(0.0969801 6.03532e-06 0)
(0.110015 0.000524651 0)
(0.1063 0.000232124 0)
(0.109064 0.000281482 0)
(0.114115 0.000233296 0)
(0.119957 0.000188374 0)
(0.125889 0.00015261 0)
(0.131573 0.000124095 0)
(0.136868 0.000101438 0)
(0.141731 8.35794e-05 0)
(0.146171 6.95107e-05 0)
(0.150217 5.83683e-05 0)
(0.153908 4.9455e-05 0)
(0.157284 4.22468e-05 0)
(0.160383 3.63509e-05 0)
(0.163237 3.14746e-05 0)
(0.165876 2.73998e-05 0)
(0.168325 2.39639e-05 0)
(0.170606 2.1044e-05 0)
(0.172738 1.85465e-05 0)
(0.174737 1.63987e-05 0)
(0.176617 1.45434e-05 0)
(0.178389 1.29347e-05 0)
(0.180065 1.15351e-05 0)
(0.181652 1.03135e-05 0)
(0.183159 9.244e-06 0)
(0.184592 8.30434e-06 0)
(0.185956 7.47773e-06 0)
(0.187257 6.76226e-06 0)
(0.188498 6.11331e-06 0)
(0.189684 5.51982e-06 0)
(0.190817 5.00308e-06 0)
(0.1919 4.54123e-06 0)
(0.192936 4.12564e-06 0)
(0.193925 3.75059e-06 0)
(0.194869 3.4111e-06 0)
(0.19577 3.10285e-06 0)
(0.196628 2.82212e-06 0)
(0.197444 2.56572e-06 0)
(0.198218 2.33091e-06 0)
(0.198951 2.11526e-06 0)
(0.199642 1.91656e-06 0)
(0.200292 1.73273e-06 0)
(0.200898 1.56177e-06 0)
(0.201462 1.40173e-06 0)
(0.201982 1.25081e-06 0)
(0.202457 1.1074e-06 0)
(0.202886 9.7014e-07 0)
(0.203267 8.38255e-07 0)
(0.203598 7.11937e-07 0)
(0.203879 5.92491e-07 0)
(0.204106 4.81728e-07 0)
(0.204278 3.80683e-07 0)
(0.204394 2.88249e-07 0)
(0.204449 2.03386e-07 0)
(0.204436 1.26061e-07 0)
(0.204349 5.67108e-08 0)
(0.20418 -2.60441e-09 0)
(0.203918 -4.91981e-08 0)
(0.203555 -8.19827e-08 0)
(0.203078 -1.01564e-07 0)
(0.202477 -1.09653e-07 0)
(0.201738 -1.08875e-07 0)
(0.200846 -1.0221e-07 0)
(0.199788 -9.23362e-08 0)
(0.198546 -8.10566e-08 0)
(0.197104 -6.95113e-08 0)
(0.195444 -5.868e-08 0)
(0.19355 -4.90274e-08 0)
(0.191405 -4.0561e-08 0)
(0.188995 -3.33367e-08 0)
(0.186308 -2.73517e-08 0)
(0.183339 -2.23857e-08 0)
(0.18009 -1.82124e-08 0)
(0.176574 -1.47639e-08 0)
(0.172816 -1.19631e-08 0)
(0.168855 -9.64849e-09 0)
(0.164743 -7.74142e-09 0)
(0.160548 -6.20283e-09 0)
(0.156344 -4.9564e-09 0)
(0.152205 -3.94492e-09 0)
(0.148201 -3.1306e-09 0)
(0.14439 -2.47611e-09 0)
(0.140811 -1.93666e-09 0)
(0.137484 -1.48649e-09 0)
(0.134414 -1.13721e-09 0)
(0.131595 -8.30245e-10 0)
(0.129011 -7.16061e-10 0)
(0.126645 -5.04907e-10 0)
(0.124479 -8.94436e-11 0)
(0.122497 5.3268e-10 0)
(0.120685 6.76513e-10 0)
(0.119031 3.54384e-10 0)
(0.117527 1.63005e-10 0)
(0.116162 2.54003e-11 0)
(0.11493 6.39172e-11 0)
(0.113825 7.98834e-11 0)
(0.112841 7.49313e-11 0)
(0.111976 8.0933e-11 0)
(0.11123 2.98366e-11 0)
(0.110608 1.50165e-10 0)
(0.110119 -1.51788e-12 0)
(0.109783 9.96079e-11 0)
(0.109634 1.47044e-10 0)
(0.109735 -1.5159e-10 0)
(0.110232 4.60922e-10 0)
(0.11135 -5.0393e-10 0)
(0.115032 8.07926e-10 0)
(0.11671 -8.34558e-10 0)
(0.116804 1.103e-09 0)
(0.116806 -1.10825e-09 0)
(0.116806 1.33692e-09 0)
(0.116806 -1.32389e-09 0)
(0.116806 1.51298e-09 0)
(0.116806 -1.49777e-09 0)
(0.116806 1.66382e-09 0)
(0.116806 -1.65598e-09 0)
(0.116806 1.81682e-09 0)
(0.116806 -1.81646e-09 0)
(0.116806 1.97895e-09 0)
(0.116806 -1.98666e-09 0)
(0.116806 2.15055e-09 0)
(0.116806 -2.17005e-09 0)
(0.116806 2.33067e-09 0)
(0.116806 -2.36745e-09 0)
(0.116806 2.52077e-09 0)
(0.116806 -2.57552e-09 0)
(0.116806 2.72194e-09 0)
(0.116806 -2.79561e-09 0)
(0.116806 2.93363e-09 0)
(0.116806 -3.02678e-09 0)
(0.116806 3.15807e-09 0)
(0.116806 -3.26781e-09 0)
(0.116806 3.39432e-09 0)
(0.116806 -3.5182e-09 0)
(0.116806 3.64318e-09 0)
(0.116806 -3.78019e-09 0)
(0.116806 3.90486e-09 0)
(0.116806 -4.05004e-09 0)
(0.116806 4.18507e-09 0)
(0.116806 -4.32606e-09 0)
(0.116806 4.47659e-09 0)
(0.116806 -4.61646e-09 0)
(0.116806 4.78197e-09 0)
(0.116806 -4.91559e-09 0)
(0.116806 5.10071e-09 0)
(0.116806 -5.2277e-09 0)
(0.116806 5.42775e-09 0)
(0.116806 -5.55596e-09 0)
(0.116806 5.76297e-09 0)
(0.116806 -5.89919e-09 0)
(0.116806 6.11414e-09 0)
(0.116806 -6.25784e-09 0)
(0.116806 6.47565e-09 0)
(0.116806 -6.62954e-09 0)
(0.116806 6.84904e-09 0)
(0.116806 -7.01475e-09 0)
(0.116806 7.2318e-09 0)
(0.116806 -7.41101e-09 0)
(0.116806 7.62527e-09 0)
(0.116806 -7.80893e-09 0)
(0.116806 8.02783e-09 0)
(0.116806 -7.20387e-09 0)
(0.116806 7.26805e-09 0)
(0.116806 -7.2747e-09 0)
(0.116806 7.34757e-09 0)
(0.116806 -7.34754e-09 0)
(0.116806 7.42891e-09 0)
(0.116806 -7.41792e-09 0)
(0.116806 7.51269e-09 0)
(0.116806 -7.48649e-09 0)
(0.116806 7.59769e-09 0)
(0.116806 -7.55222e-09 0)
(0.116806 7.68022e-09 0)
(0.116806 -7.61494e-09 0)
(0.116806 7.7656e-09 0)
(0.116806 -7.67671e-09 0)
(0.116806 7.84843e-09 0)
(0.116806 -7.73397e-09 0)
(0.116806 7.92732e-09 0)
(0.116806 -7.76892e-09 0)
(0.116806 8.05681e-09 0)
(0.116806 -7.74872e-09 0)
(0.116806 8.20044e-09 0)
(0.116806 -7.731e-09 0)
(0.116806 8.33934e-09 0)
(0.116806 -7.71855e-09 0)
(0.116806 8.46028e-09 0)
(0.116806 -7.7111e-09 0)
(0.116806 8.58582e-09 0)
(0.116806 -7.69652e-09 0)
(0.116806 8.69218e-09 0)
(0.116806 -7.7051e-09 0)
(0.116806 8.77892e-09 0)
(0.116806 -7.73344e-09 0)
(0.116806 8.83045e-09 0)
(0.116806 -7.76364e-09 0)
(0.116806 8.91622e-09 0)
(0.116806 -7.76175e-09 0)
(0.116806 8.97287e-09 0)
(0.116806 -7.8127e-09 0)
(0.116806 8.98574e-09 0)
(0.116806 -7.90935e-09 0)
(0.116806 8.9377e-09 0)
(0.116806 -8.04502e-09 0)
(0.116806 8.86738e-09 0)
(0.116806 -8.1844e-09 0)
(0.116806 8.7487e-09 0)
(0.116806 -8.35087e-09 0)
(0.116806 8.45957e-09 0)
(0.116806 -8.50838e-09 0)
(0.116806 8.61585e-09 0)
)
;

boundaryField
{
    inandouthalf11
    {
        type            cyclic;
    }
    inandouthalf12
    {
        type            cyclic;
    }
    inandouthalf21
    {
        type            cyclic;
    }
    inandouthalf22
    {
        type            cyclic;
    }
    inandouthalf31
    {
        type            cyclic;
    }
    inandouthalf32
    {
        type            cyclic;
    }
    inandouthalf41
    {
        type            cyclic;
    }
    inandouthalf42
    {
        type            cyclic;
    }
    top
    {
        type            symmetryPlane;
    }
    walls
    {
        type            calculated;
        value           uniform (0 0 0);
    }
    frontAndBackPlanes
    {
        type            empty;
    }
}


// ************************************************************************* //
