/*--------------------------------*- C++ -*----------------------------------*\
| =========                 |                                                 |
| \\      /  F ield         | OpenFOAM: The Open Source CFD Toolbox           |
|  \\    /   O peration     | Version:  2.4.x                                 |
|   \\  /    A nd           | Web:      www.OpenFOAM.org                      |
|    \\/     M anipulation  |                                                 |
\*---------------------------------------------------------------------------*/
FoamFile
{
    version     2.0;
    format      ascii;
    class       volScalarField;
    location    "6.15";
    object      ddt0(((1.5*(alpha+1e-08))*rho),Theta);
}
// * * * * * * * * * * * * * * * * * * * * * * * * * * * * * * * * * * * * * //

dimensions      [1 -1 -3 0 0 0 0];

internalField   nonuniform List<scalar> 
360
(
-8.64965e-21
-3.13496e-20
-2.38831e-20
-2.01994e-20
-2.1245e-20
-2.26499e-20
-2.33146e-20
-2.35454e-20
-2.36585e-20
-2.3827e-20
-2.41006e-20
-2.44328e-20
-2.47669e-20
-2.50765e-20
-2.53699e-20
-2.56704e-20
-2.59866e-20
-2.63123e-20
-2.66427e-20
-2.69666e-20
-2.72694e-20
-2.75508e-20
-2.78051e-20
-2.80191e-20
-2.8188e-20
-2.83138e-20
-2.84204e-20
-2.85481e-20
-2.87345e-20
-2.90316e-20
-2.95159e-20
-3.025e-20
-3.1282e-20
-3.26333e-20
-3.42455e-20
-3.59904e-20
-3.76611e-20
-3.89374e-20
-3.93494e-20
-3.8367e-20
-3.55371e-20
-3.05522e-20
-2.3516e-20
-1.50951e-20
-6.46825e-21
7.90205e-22
5.02493e-21
4.81696e-21
-9.20338e-22
-1.31979e-20
-3.35351e-20
-6.49411e-20
-1.13293e-19
-1.89102e-19
-3.09286e-19
-4.94941e-19
-7.52185e-19
-1.01119e-18
-1.0249e-18
-4.17158e-19
7.85122e-19
1.67044e-18
1.46225e-18
6.96437e-19
1.92201e-19
3.22472e-20
3.52489e-21
2.80855e-22
2.09489e-23
3.29707e-24
1.92425e-24
1.75648e-24
1.72466e-24
1.71685e-24
1.71493e-24
1.71477e-24
1.71522e-24
1.71551e-24
1.71575e-24
1.71612e-24
1.71637e-24
1.71653e-24
1.71668e-24
1.71698e-24
1.71735e-24
1.71778e-24
1.71833e-24
1.71902e-24
1.71966e-24
1.72032e-24
1.72107e-24
1.72169e-24
1.72227e-24
1.72296e-24
1.72357e-24
1.72418e-24
1.72499e-24
1.72573e-24
1.72645e-24
1.7272e-24
1.72794e-24
1.72872e-24
1.72933e-24
1.73003e-24
1.73073e-24
1.73145e-24
1.73205e-24
1.73273e-24
1.73336e-24
1.73391e-24
1.73454e-24
1.73507e-24
1.73551e-24
1.73603e-24
1.73643e-24
1.73688e-24
1.73721e-24
1.73757e-24
1.73786e-24
1.73801e-24
1.73819e-24
1.73832e-24
1.73831e-24
1.73831e-24
1.73823e-24
1.73791e-24
1.7374e-24
1.73656e-24
1.73543e-24
1.73401e-24
1.73228e-24
-5.61819e-23
-1.1397e-17
-4.97412e-17
-2.32724e-16
-1.33418e-15
-9.41666e-15
-7.78123e-14
-7.25578e-13
-7.57905e-12
-8.94834e-11
-1.21228e-09
-1.91907e-08
-3.62315e-07
-9.45975e-06
-0.000683586
-0.0322271
-0.425833
-1.75902
-1.29565
-0.761828
-0.529756
-0.385175
-0.283376
-0.210403
-0.157991
-0.120044
-0.0921768
-0.0713942
-0.0556701
-0.0436289
-0.0343175
-0.0270587
-0.021362
-0.0168657
-0.0133002
-0.0104606
-0.00819202
-0.0063735
-0.00491287
-0.00373766
-0.00279152
-0.00202993
-0.0014175
-0.000926328
-0.000533943
-0.000222276
2.33456e-05
0.000214743
0.000361667
0.000472041
0.000552464
0.000608333
0.00064418
0.000663733
0.000670138
0.000666007
0.000653526
0.000634521
0.000610519
0.000582789
0.000552378
0.000520149
0.000486808
0.000452932
0.000418985
0.000385351
0.000352368
0.000320355
0.000289645
0.000260536
0.00023287
0.000206496
0.000181573
0.000158133
0.000136233
0.000116121
9.79693e-05
8.18488e-05
6.78149e-05
5.57848e-05
4.5632e-05
3.71651e-05
3.01319e-05
2.4366e-05
1.96651e-05
1.58219e-05
1.27062e-05
1.0184e-05
8.14158e-06
6.48302e-06
5.14238e-06
4.06735e-06
3.19704e-06
2.49816e-06
1.94101e-06
1.49582e-06
1.14136e-06
8.61753e-07
6.40167e-07
4.69529e-07
3.32938e-07
2.33362e-07
1.52489e-07
9.89998e-08
4.68743e-08
0
0
0
0
0
0
0
0
0
0
0
0
0
0
0
0
0
0
0
0
0
0
0
0
0
0
0
0
0
0
0
0
0
0
0
0
0
0
0
0
0
0
0
0
0
0
0
0
0
0
0
0
0
0
0
0
0
0
0
0
0
0
0
0
0
0
0
0
0
0
0
0
0
0
0
0
0
0
0
0
0
0
0
0
0
0
0
0
0
0
0
0
0
0
0
0
0
0
0
0
0
0
0
0
0
0
0
0
0
0
0
0
0
0
0
0
0
0
0
0
0
0
0
0
)
;

boundaryField
{
    inandouthalf11
    {
        type            cyclic;
    }
    inandouthalf12
    {
        type            cyclic;
    }
    inandouthalf21
    {
        type            cyclic;
    }
    inandouthalf22
    {
        type            cyclic;
    }
    inandouthalf31
    {
        type            cyclic;
    }
    inandouthalf32
    {
        type            cyclic;
    }
    inandouthalf41
    {
        type            cyclic;
    }
    inandouthalf42
    {
        type            cyclic;
    }
    top
    {
        type            symmetryPlane;
    }
    walls
    {
        type            calculated;
        value           uniform -8.64965e-21;
    }
    frontAndBackPlanes
    {
        type            empty;
    }
}


// ************************************************************************* //
