/*--------------------------------*- C++ -*----------------------------------*\
| =========                 |                                                 |
| \\      /  F ield         | OpenFOAM: The Open Source CFD Toolbox           |
|  \\    /   O peration     | Version:  2.4.x                                 |
|   \\  /    A nd           | Web:      www.OpenFOAM.org                      |
|    \\/     M anipulation  |                                                 |
\*---------------------------------------------------------------------------*/
FoamFile
{
    version     2.0;
    format      ascii;
    class       surfaceScalarField;
    location    "6.15";
    object      ddt0(phia);
}
// * * * * * * * * * * * * * * * * * * * * * * * * * * * * * * * * * * * * * //

dimensions      [0 3 -2 0 0 0 0];

internalField   nonuniform List<scalar> 
359
(
1.5783e-13
4.38074e-13
6.99356e-13
9.41482e-13
1.18484e-12
1.43542e-12
1.69077e-12
1.9478e-12
2.20496e-12
2.46252e-12
2.72124e-12
2.9815e-12
3.24345e-12
3.50687e-12
3.77167e-12
4.03789e-12
4.30562e-12
4.57493e-12
4.84579e-12
5.1182e-12
5.39183e-12
5.66655e-12
5.94203e-12
6.21787e-12
6.4937e-12
6.76917e-12
7.04411e-12
7.31881e-12
7.59385e-12
7.87032e-12
8.14988e-12
8.4349e-12
8.72763e-12
9.03095e-12
9.34645e-12
9.67496e-12
1.0015e-11
1.03624e-11
1.07094e-11
1.10439e-11
1.1351e-11
1.16136e-11
1.18152e-11
1.1945e-11
1.20003e-11
1.19915e-11
1.19435e-11
1.1896e-11
1.19024e-11
1.20285e-11
1.23518e-11
1.29665e-11
1.39884e-11
1.55624e-11
1.78562e-11
2.10287e-11
2.51013e-11
2.97128e-11
3.3756e-11
3.53017e-11
3.24607e-11
2.51476e-11
1.58895e-11
8.05181e-12
3.27282e-12
1.08689e-12
3.05564e-13
7.65591e-14
1.81783e-14
4.33997e-15
1.0746e-15
2.63511e-16
4.30148e-17
-2.40116e-17
-4.66106e-17
-5.46451e-17
-5.71313e-17
-5.70412e-17
-5.53771e-17
-5.24228e-17
-4.81749e-17
-4.25188e-17
-3.53223e-17
-2.64987e-17
-1.60513e-17
-4.09917e-18
9.12358e-18
2.32851e-17
3.79995e-17
5.2871e-17
6.75369e-17
8.16986e-17
9.5137e-17
1.07713e-16
1.19357e-16
1.30059e-16
1.39847e-16
1.48782e-16
1.56939e-16
1.64406e-16
1.7127e-16
1.77617e-16
1.83526e-16
1.89072e-16
1.94317e-16
1.99318e-16
2.04123e-16
2.08772e-16
2.13299e-16
2.1773e-16
2.22089e-16
2.26395e-16
2.30663e-16
2.34907e-16
2.39137e-16
2.43366e-16
2.47602e-16
2.51859e-16
2.56145e-16
2.60473e-16
2.64854e-16
2.69298e-16
2.73811e-16
2.78395e-16
2.83048e-16
2.87755e-16
2.92492e-16
2.97226e-16
3.01908e-16
3.06478e-16
3.10869e-16
3.15018e-16
3.18877e-16
3.2243e-16
3.25685e-16
3.28658e-16
3.31375e-16
3.33871e-16
3.36183e-16
3.38289e-16
3.40029e-16
3.4116e-16
3.41748e-16
3.41981e-16
3.42034e-16
3.41932e-16
3.43051e-16
2.22553e-10
-2.90566e-09
-4.45847e-09
-6.38988e-09
-7.53501e-09
-8.56268e-09
-9.47978e-09
-1.03074e-08
-1.10554e-08
-1.17314e-08
-1.23409e-08
-1.28951e-08
-1.33999e-08
-1.38613e-08
-1.42837e-08
-1.46693e-08
-1.50202e-08
-1.53379e-08
-1.56245e-08
-1.58825e-08
-1.61155e-08
-1.63274e-08
-1.65229e-08
-1.6707e-08
-1.68845e-08
-1.706e-08
-1.72376e-08
-1.74209e-08
-1.76127e-08
-1.78154e-08
-1.80306e-08
-1.82593e-08
-1.85021e-08
-1.8759e-08
-1.90296e-08
-1.93131e-08
-1.96084e-08
-1.99141e-08
-2.02285e-08
-2.05496e-08
-2.08752e-08
-2.12022e-08
-2.15268e-08
-2.18433e-08
-2.21441e-08
-2.24187e-08
-2.26546e-08
-2.28368e-08
-2.2949e-08
-2.29748e-08
-2.29022e-08
-2.27266e-08
-2.24554e-08
-2.20987e-08
-2.16472e-08
-2.10987e-08
-2.0453e-08
-1.9698e-08
-1.88418e-08
-1.79185e-08
-1.69569e-08
-1.59915e-08
-1.50569e-08
-1.41744e-08
-1.33631e-08
-1.26234e-08
-1.19528e-08
-1.13581e-08
-1.08263e-08
-1.03483e-08
-9.92426e-09
-9.54596e-09
-9.20579e-09
-8.89666e-09
-8.6219e-09
-8.37803e-09
-8.15547e-09
-7.9599e-09
-7.78956e-09
-7.63734e-09
-7.50426e-09
-7.38289e-09
-7.27592e-09
-7.16913e-09
-7.0643e-09
-6.96145e-09
-6.91256e-09
-6.75631e-09
-6.32273e-09
-7.27489e-09
8.16625e-10
-1.26885e-07
-1.16219e-07
1.6815e-07
3.14049e-08
-3.00028e-10
2.76746e-10
5.43751e-11
9.26575e-11
9.34639e-11
9.40444e-11
9.07122e-11
8.30865e-11
6.97794e-11
4.75484e-11
2.15254e-12
-5.95903e-11
-2.96502e-10
-9.48995e-11
2.08324e-11
1.95657e-11
1.92241e-11
1.91082e-11
1.91296e-11
1.9111e-11
1.91299e-11
1.91109e-11
1.91303e-11
1.91108e-11
1.91306e-11
1.91106e-11
1.91309e-11
1.91104e-11
1.9131e-11
1.91103e-11
1.91311e-11
1.91102e-11
1.91311e-11
1.91101e-11
1.91313e-11
1.91098e-11
1.91316e-11
1.91096e-11
1.91318e-11
1.91093e-11
1.9132e-11
1.91091e-11
1.91322e-11
1.9109e-11
1.91323e-11
1.91089e-11
1.91324e-11
1.91088e-11
1.91325e-11
1.91088e-11
1.91325e-11
1.91088e-11
1.91324e-11
1.91089e-11
1.91323e-11
1.9109e-11
1.91322e-11
1.91092e-11
1.91319e-11
1.91095e-11
1.91317e-11
1.91098e-11
1.91313e-11
1.91102e-11
1.91309e-11
1.91106e-11
1.91304e-11
1.91111e-11
1.91299e-11
1.91115e-11
1.91295e-11
1.91119e-11
1.91291e-11
1.91123e-11
1.91288e-11
1.91127e-11
1.91284e-11
1.91131e-11
1.9128e-11
1.91135e-11
1.91276e-11
1.91139e-11
1.91273e-11
1.91143e-11
1.91269e-11
1.91147e-11
1.91265e-11
1.91151e-11
1.91261e-11
1.91156e-11
1.91258e-11
1.9116e-11
1.91254e-11
1.91164e-11
1.91251e-11
1.91168e-11
1.91247e-11
1.91172e-11
1.91243e-11
1.91176e-11
1.91239e-11
1.91179e-11
1.91236e-11
1.91183e-11
1.91232e-11
1.91187e-11
1.91229e-11
1.91191e-11
1.91225e-11
1.91194e-11
1.9122e-11
1.91199e-11
1.91218e-11
1.91089e-11
1.74599e-11
-1.14195e-10
2.1095e-09
)
;

boundaryField
{
    inandouthalf11
    {
        type            cyclic;
        value           nonuniform List<scalar> 
100
(
-2.70333e-39
-1.91204e-14
-4.16457e-14
-6.1612e-14
-8.11574e-14
-1.0134e-13
-1.22018e-13
-1.42909e-13
-1.63883e-13
-1.8492e-13
-2.06061e-13
-2.27347e-13
-2.48793e-13
-2.70395e-13
-2.92142e-13
-3.14032e-13
-3.36073e-13
-3.5827e-13
-3.80626e-13
-4.03143e-13
-4.25813e-13
-4.48622e-13
-4.7156e-13
-4.94606e-13
-5.17738e-13
-5.40932e-13
-5.64171e-13
-5.87457e-13
-6.10813e-13
-6.34289e-13
-6.5797e-13
-6.81979e-13
-7.06472e-13
-7.3162e-13
-7.57581e-13
-7.84456e-13
-8.12246e-13
-8.408e-13
-8.69747e-13
-8.98445e-13
-9.25983e-13
-9.51242e-13
-9.73015e-13
-9.90257e-13
-1.00237e-12
-1.00948e-12
-1.01269e-12
-1.01422e-12
-1.01734e-12
-1.02632e-12
-1.04644e-12
-1.08407e-12
-1.14713e-12
-1.24562e-12
-1.39192e-12
-1.59975e-12
-1.87909e-12
-2.22223e-12
-2.57773e-12
-2.82326e-12
-2.78468e-12
-2.35301e-12
-1.63163e-12
-9.03254e-13
-3.96469e-13
-1.40081e-13
-4.12817e-14
-1.06974e-14
-2.6019e-15
-6.37705e-16
-1.69175e-16
-5.26285e-17
-2.11105e-17
-1.16149e-17
-8.41993e-18
-7.25154e-18
-6.82747e-18
-6.72513e-18
-6.79684e-18
-6.99352e-18
-7.30572e-18
-7.74104e-18
-8.3136e-18
-9.03706e-18
-9.91984e-18
-1.09613e-17
-1.21501e-17
-1.3464e-17
-1.48727e-17
-1.6341e-17
-1.78333e-17
-1.93175e-17
-2.07668e-17
-2.21616e-17
-2.34888e-17
-2.47414e-17
-2.59172e-17
-2.70178e-17
-2.80472e-17
-2.90112e-17
)
;
    }
    inandouthalf12
    {
        type            cyclic;
        value           nonuniform List<scalar> 
100
(
2.70333e-39
1.91204e-14
4.16457e-14
6.1612e-14
8.11574e-14
1.0134e-13
1.22018e-13
1.42909e-13
1.63883e-13
1.8492e-13
2.06061e-13
2.27347e-13
2.48793e-13
2.70395e-13
2.92142e-13
3.14032e-13
3.36073e-13
3.5827e-13
3.80626e-13
4.03143e-13
4.25813e-13
4.48622e-13
4.7156e-13
4.94606e-13
5.17738e-13
5.40932e-13
5.64171e-13
5.87457e-13
6.10813e-13
6.34289e-13
6.5797e-13
6.81979e-13
7.06472e-13
7.3162e-13
7.57581e-13
7.84456e-13
8.12246e-13
8.408e-13
8.69747e-13
8.98445e-13
9.25983e-13
9.51242e-13
9.73015e-13
9.90257e-13
1.00237e-12
1.00948e-12
1.01269e-12
1.01422e-12
1.01734e-12
1.02632e-12
1.04644e-12
1.08407e-12
1.14713e-12
1.24562e-12
1.39192e-12
1.59975e-12
1.87909e-12
2.22223e-12
2.57773e-12
2.82326e-12
2.78468e-12
2.35301e-12
1.63163e-12
9.03254e-13
3.96469e-13
1.40081e-13
4.12817e-14
1.06974e-14
2.6019e-15
6.37705e-16
1.69175e-16
5.26285e-17
2.11105e-17
1.16149e-17
8.41993e-18
7.25154e-18
6.82747e-18
6.72513e-18
6.79684e-18
6.99352e-18
7.30572e-18
7.74104e-18
8.3136e-18
9.03706e-18
9.91984e-18
1.09613e-17
1.21501e-17
1.3464e-17
1.48727e-17
1.6341e-17
1.78333e-17
1.93175e-17
2.07668e-17
2.21616e-17
2.34888e-17
2.47414e-17
2.59172e-17
2.70178e-17
2.80472e-17
2.90112e-17
)
;
    }
    inandouthalf21
    {
        type            cyclic;
        value           nonuniform List<scalar> 
100
(
-2.99166e-17
-3.07704e-17
-3.15797e-17
-3.23514e-17
-3.30918e-17
-3.38066e-17
-3.4501e-17
-3.51792e-17
-3.58454e-17
-3.65028e-17
-3.71543e-17
-3.78026e-17
-3.84498e-17
-3.90982e-17
-3.97497e-17
-4.04063e-17
-4.10701e-17
-4.17434e-17
-4.24286e-17
-4.31284e-17
-4.38459e-17
-4.45843e-17
-4.53465e-17
-4.61355e-17
-4.69532e-17
-4.78009e-17
-4.86781e-17
-4.95821e-17
-5.05082e-17
-5.14484e-17
-5.23918e-17
-5.33259e-17
-5.42387e-17
-5.51228e-17
-5.59757e-17
-5.67997e-17
-5.75999e-17
-5.83865e-17
-5.91739e-17
-5.99667e-17
-6.07253e-17
-6.13548e-17
-6.1779e-17
-6.20026e-17
-6.20943e-17
-6.21364e-17
-6.21795e-17
-6.31224e-17
-8.79732e-08
-1.11093e-07
-1.06177e-07
-1.07905e-07
-1.12478e-07
-1.18099e-07
-1.23936e-07
-1.29586e-07
-1.34872e-07
-1.39733e-07
-1.44171e-07
-1.48213e-07
-1.51898e-07
-1.55266e-07
-1.58354e-07
-1.61195e-07
-1.6382e-07
-1.66253e-07
-1.68516e-07
-1.70625e-07
-1.72594e-07
-1.74434e-07
-1.76152e-07
-1.77755e-07
-1.79246e-07
-1.80628e-07
-1.81903e-07
-1.83073e-07
-1.84139e-07
-1.85101e-07
-1.8596e-07
-1.86715e-07
-1.87367e-07
-1.87916e-07
-1.88362e-07
-1.88705e-07
-1.88945e-07
-1.89083e-07
-1.8912e-07
-1.89057e-07
-1.88895e-07
-1.88636e-07
-1.88283e-07
-1.87837e-07
-1.87302e-07
-1.86682e-07
-1.85983e-07
-1.85209e-07
-1.84369e-07
-1.83471e-07
-1.82524e-07
-1.81537e-07
)
;
    }
    inandouthalf22
    {
        type            cyclic;
        value           nonuniform List<scalar> 
100
(
2.99166e-17
3.07704e-17
3.15797e-17
3.23514e-17
3.30918e-17
3.38066e-17
3.4501e-17
3.51792e-17
3.58454e-17
3.65028e-17
3.71543e-17
3.78026e-17
3.84498e-17
3.90982e-17
3.97497e-17
4.04063e-17
4.10701e-17
4.17434e-17
4.24286e-17
4.31284e-17
4.38459e-17
4.45843e-17
4.53465e-17
4.61355e-17
4.69532e-17
4.78009e-17
4.86781e-17
4.95821e-17
5.05082e-17
5.14484e-17
5.23918e-17
5.33259e-17
5.42387e-17
5.51228e-17
5.59757e-17
5.67997e-17
5.75999e-17
5.83865e-17
5.91739e-17
5.99667e-17
6.07253e-17
6.13548e-17
6.1779e-17
6.20026e-17
6.20943e-17
6.21364e-17
6.21795e-17
6.31224e-17
8.79732e-08
1.11093e-07
1.06177e-07
1.07905e-07
1.12478e-07
1.18099e-07
1.23936e-07
1.29586e-07
1.34872e-07
1.39733e-07
1.44171e-07
1.48213e-07
1.51898e-07
1.55266e-07
1.58354e-07
1.61195e-07
1.6382e-07
1.66253e-07
1.68516e-07
1.70625e-07
1.72594e-07
1.74434e-07
1.76152e-07
1.77755e-07
1.79246e-07
1.80628e-07
1.81903e-07
1.83073e-07
1.84139e-07
1.85101e-07
1.8596e-07
1.86715e-07
1.87367e-07
1.87916e-07
1.88362e-07
1.88705e-07
1.88945e-07
1.89083e-07
1.8912e-07
1.89057e-07
1.88895e-07
1.88636e-07
1.88283e-07
1.87837e-07
1.87302e-07
1.86682e-07
1.85983e-07
1.85209e-07
1.84369e-07
1.83471e-07
1.82524e-07
1.81537e-07
)
;
    }
    inandouthalf31
    {
        type            cyclic;
        value           nonuniform List<scalar> 
110
(
-1.80522e-07
-1.8312e-07
-1.85718e-07
-1.88326e-07
-1.90958e-07
-1.93631e-07
-1.96364e-07
-1.99176e-07
-2.02085e-07
-2.05106e-07
-2.08249e-07
-2.11524e-07
-2.14933e-07
-2.18481e-07
-2.22165e-07
-2.25983e-07
-2.29931e-07
-2.34006e-07
-2.38199e-07
-2.42508e-07
-2.46928e-07
-2.51455e-07
-2.5608e-07
-2.60801e-07
-2.65614e-07
-2.70512e-07
-2.75493e-07
-2.80556e-07
-2.85702e-07
-2.90933e-07
-2.96257e-07
-3.01687e-07
-3.07225e-07
-3.12863e-07
-3.18686e-07
-3.24744e-07
-3.30804e-07
-2.42095e-07
-2.55455e-07
-2.57228e-07
-2.58154e-07
-2.68697e-07
-2.58463e-07
-2.67994e-07
-2.70407e-07
-2.73573e-07
-2.77028e-07
-2.80817e-07
-2.84971e-07
-2.89543e-07
-2.94617e-07
-3.00324e-07
-3.06855e-07
-3.1408e-07
-3.2701e-07
-3.43304e-07
-3.54034e-07
-3.61425e-07
-3.68766e-07
-3.7625e-07
-3.83887e-07
-3.91679e-07
-3.99629e-07
-4.07741e-07
-4.16017e-07
-4.24461e-07
-4.33076e-07
-4.41866e-07
-4.50835e-07
-4.59986e-07
-4.69322e-07
-4.78848e-07
-4.88568e-07
-4.98484e-07
-5.08602e-07
-5.18926e-07
-5.29458e-07
-5.40205e-07
-5.5117e-07
-5.62357e-07
-5.73771e-07
-5.85417e-07
-5.973e-07
-6.09423e-07
-6.21793e-07
-6.34414e-07
-6.47291e-07
-6.60429e-07
-6.73834e-07
-6.87511e-07
-7.01466e-07
-7.15703e-07
-7.3023e-07
-7.45052e-07
-7.60175e-07
-7.75604e-07
-7.91347e-07
-8.07409e-07
-8.23797e-07
-8.40518e-07
-8.57578e-07
-8.74985e-07
-8.92745e-07
-9.10865e-07
-9.29353e-07
-9.48217e-07
-9.67463e-07
-9.871e-07
-1.00714e-06
-1.02758e-06
)
;
    }
    inandouthalf32
    {
        type            cyclic;
        value           nonuniform List<scalar> 
110
(
1.80522e-07
1.8312e-07
1.85718e-07
1.88326e-07
1.90958e-07
1.93631e-07
1.96364e-07
1.99176e-07
2.02085e-07
2.05106e-07
2.08249e-07
2.11524e-07
2.14933e-07
2.18481e-07
2.22165e-07
2.25983e-07
2.29931e-07
2.34006e-07
2.38199e-07
2.42508e-07
2.46928e-07
2.51455e-07
2.5608e-07
2.60801e-07
2.65614e-07
2.70512e-07
2.75493e-07
2.80556e-07
2.85702e-07
2.90933e-07
2.96257e-07
3.01687e-07
3.07225e-07
3.12863e-07
3.18686e-07
3.24744e-07
3.30804e-07
2.42095e-07
2.55455e-07
2.57228e-07
2.58154e-07
2.68697e-07
2.58463e-07
2.67994e-07
2.70407e-07
2.73573e-07
2.77028e-07
2.80817e-07
2.84971e-07
2.89543e-07
2.94617e-07
3.00324e-07
3.06855e-07
3.1408e-07
3.2701e-07
3.43304e-07
3.54034e-07
3.61425e-07
3.68766e-07
3.7625e-07
3.83887e-07
3.91679e-07
3.99629e-07
4.07741e-07
4.16017e-07
4.24461e-07
4.33076e-07
4.41866e-07
4.50835e-07
4.59986e-07
4.69322e-07
4.78848e-07
4.88568e-07
4.98484e-07
5.08602e-07
5.18926e-07
5.29458e-07
5.40205e-07
5.5117e-07
5.62357e-07
5.73771e-07
5.85417e-07
5.973e-07
6.09423e-07
6.21793e-07
6.34414e-07
6.47291e-07
6.60429e-07
6.73834e-07
6.87511e-07
7.01466e-07
7.15703e-07
7.3023e-07
7.45052e-07
7.60175e-07
7.75604e-07
7.91347e-07
8.07409e-07
8.23797e-07
8.40518e-07
8.57578e-07
8.74985e-07
8.92745e-07
9.10865e-07
9.29353e-07
9.48217e-07
9.67463e-07
9.871e-07
1.00714e-06
1.02758e-06
)
;
    }
    inandouthalf41
    {
        type            cyclic;
        value           nonuniform List<scalar> 
50
(
-9.19787e-07
-9.19787e-07
-9.19787e-07
-9.19787e-07
-9.19787e-07
-9.19787e-07
-9.19787e-07
-9.19787e-07
-9.19787e-07
-9.19787e-07
-9.19787e-07
-9.19787e-07
-9.19787e-07
-9.19787e-07
-9.19787e-07
-9.19787e-07
-9.19787e-07
-9.19787e-07
-9.19787e-07
-9.19787e-07
-9.19787e-07
-9.19787e-07
-9.19787e-07
-9.19787e-07
-9.19787e-07
-9.19787e-07
-9.19787e-07
-9.19787e-07
-9.19787e-07
-9.19787e-07
-9.19787e-07
-9.19787e-07
-9.19787e-07
-9.19787e-07
-9.19787e-07
-9.19787e-07
-9.19787e-07
-9.19787e-07
-9.19787e-07
-9.19787e-07
-9.19787e-07
-9.19787e-07
-9.19787e-07
-9.19787e-07
-9.19787e-07
-9.19787e-07
-9.19787e-07
-9.19783e-07
-9.19686e-07
-9.17352e-07
)
;
    }
    inandouthalf42
    {
        type            cyclic;
        value           nonuniform List<scalar> 
50
(
9.19787e-07
9.19787e-07
9.19787e-07
9.19787e-07
9.19787e-07
9.19787e-07
9.19787e-07
9.19787e-07
9.19787e-07
9.19787e-07
9.19787e-07
9.19787e-07
9.19787e-07
9.19787e-07
9.19787e-07
9.19787e-07
9.19787e-07
9.19787e-07
9.19787e-07
9.19787e-07
9.19787e-07
9.19787e-07
9.19787e-07
9.19787e-07
9.19787e-07
9.19787e-07
9.19787e-07
9.19787e-07
9.19787e-07
9.19787e-07
9.19787e-07
9.19787e-07
9.19787e-07
9.19787e-07
9.19787e-07
9.19787e-07
9.19787e-07
9.19787e-07
9.19787e-07
9.19787e-07
9.19787e-07
9.19787e-07
9.19787e-07
9.19787e-07
9.19787e-07
9.19787e-07
9.19787e-07
9.19783e-07
9.19686e-07
9.17352e-07
)
;
    }
    top
    {
        type            symmetryPlane;
        value           uniform 0;
    }
    walls
    {
        type            calculated;
        value           uniform 0;
    }
    frontAndBackPlanes
    {
        type            empty;
        value           nonuniform 0();
    }
}


// ************************************************************************* //
