/*--------------------------------*- C++ -*----------------------------------*\
| =========                 |                                                 |
| \\      /  F ield         | OpenFOAM: The Open Source CFD Toolbox           |
|  \\    /   O peration     | Version:  2.4.x                                 |
|   \\  /    A nd           | Web:      www.OpenFOAM.org                      |
|    \\/     M anipulation  |                                                 |
\*---------------------------------------------------------------------------*/
FoamFile
{
    version     2.0;
    format      ascii;
    class       volScalarField;
    location    "6.15";
    object      epsilon_0;
}
// * * * * * * * * * * * * * * * * * * * * * * * * * * * * * * * * * * * * * //

dimensions      [0 2 -3 0 0 0 0];

internalField   nonuniform List<scalar> 
360
(
1.60309e-27
1e-20
1e-20
1e-20
1e-20
1e-20
1e-20
1e-20
1e-20
1e-20
1e-20
1e-20
1e-20
1e-20
1e-20
1e-20
1e-20
1e-20
1e-20
1e-20
1e-20
1e-20
1e-20
1e-20
1e-20
1e-20
1e-20
1e-20
1e-20
1e-20
1e-20
1e-20
1e-20
1e-20
1e-20
1e-20
1e-20
1e-20
1e-20
1e-20
1e-20
1e-20
1e-20
1e-20
1e-20
1e-20
1e-20
1e-20
1e-20
1e-20
1e-20
1e-20
1e-20
1e-20
1e-20
1e-20
1e-20
1e-20
1e-20
1e-20
1e-20
1e-20
1e-20
1e-20
1e-20
1e-20
1e-20
1e-20
1e-20
1e-20
1e-20
1e-20
1e-20
1e-20
1e-20
1e-20
1e-20
1e-20
1e-20
1e-20
1e-20
1e-20
1e-20
1e-20
1e-20
1e-20
1e-20
1e-20
1e-20
1e-20
1e-20
1e-20
1e-20
1e-20
1e-20
1e-20
1e-20
1e-20
1e-20
1e-20
1e-20
1e-20
1e-20
1e-20
1e-20
1e-20
1e-20
1e-20
1e-20
1e-20
1e-20
1e-20
1e-20
1e-20
1e-20
1e-20
1e-20
1e-20
1e-20
1e-20
1e-20
1e-20
1e-20
1e-20
1e-20
1e-20
1e-20
1e-20
1e-20
1e-20
1e-20
1e-20
1.86443e-20
9.04294e-20
5.1955e-19
3.28834e-18
2.30347e-17
1.80494e-16
1.6026e-15
1.63496e-14
1.94359e-13
2.73139e-12
4.60626e-11
9.44197e-10
2.37639e-08
7.40701e-07
2.86541e-05
0.00127357
0.0326003
0.127419
0.143768
0.138413
0.127991
0.116882
0.10648
0.0971804
0.0890125
0.0818774
0.0756404
0.0701687
0.0653437
0.0610644
0.0572467
0.0538208
0.0507293
0.0479248
0.0453677
0.0430254
0.0408704
0.0388796
0.0370335
0.0353155
0.0337114
0.0322091
0.0307979
0.0294688
0.0282138
0.0270261
0.0258994
0.0248285
0.0238086
0.0228356
0.0219056
0.0210155
0.0201621
0.019343
0.0185557
0.0177981
0.0170682
0.0163645
0.0156852
0.015029
0.0143947
0.0137812
0.0131873
0.0126122
0.0120551
0.0115152
0.0109919
0.0104845
0.00999263
0.00951085
0.0090346
0.00856421
0.00810006
0.00764258
0.00719226
0.00674964
0.00631533
0.00589
0.0054744
0.00506934
0.00467569
0.00429441
0.00392648
0.00357297
0.00323495
0.00291353
0.00260978
0.00232475
0.00205936
0.00181441
0.00159049
0.00138793
0.00120674
0.00104657
0.000906685
0.000785994
0.000683072
0.000596239
0.000523659
0.000463436
0.00041371
0.000372727
0.000338885
0.000310762
0.000287116
0.000266879
0.000249142
0.000233138
0.000218226
0.000203881
0.000189681
0.000175299
0.0001605
0.000145136
0.000129145
0.000112554
9.54793e-05
7.81425e-05
6.08794e-05
4.41658e-05
2.86577e-05
1.52588e-05
5.16665e-06
6.30475e-07
2.06386e-08
3.96565e-10
6.9944e-12
1.15973e-13
1.80967e-15
2.65993e-17
3.75684e-19
1.32153e-20
1e-20
1e-20
1e-20
1e-20
1e-20
1e-20
1e-20
1e-20
1e-20
1e-20
1e-20
1e-20
1e-20
1e-20
1e-20
1e-20
1e-20
1e-20
1e-20
1e-20
1e-20
1e-20
1e-20
1e-20
1e-20
1e-20
1e-20
1e-20
1e-20
1e-20
1e-20
1e-20
1e-20
1e-20
1e-20
1e-20
1e-20
1e-20
1e-20
1e-20
1e-20
1e-20
1e-20
1e-20
1e-20
1e-20
1e-20
1e-20
1e-20
1e-20
1e-20
1e-20
1e-20
1e-20
1e-20
1e-20
1e-20
1e-20
1e-20
1e-20
1e-20
1e-20
1e-20
1e-20
1e-20
1e-20
1e-20
1e-20
1e-20
1e-20
1e-20
1e-20
1e-20
1e-20
1e-20
1e-20
1e-20
1e-20
1e-20
1e-20
1e-20
1e-20
1e-20
1e-20
1e-20
1e-20
1e-20
1e-20
1e-20
1e-20
1e-20
1e-20
1e-20
1e-20
1e-20
1e-20
)
;

boundaryField
{
    inandouthalf11
    {
        type            cyclic;
    }
    inandouthalf12
    {
        type            cyclic;
    }
    inandouthalf21
    {
        type            cyclic;
    }
    inandouthalf22
    {
        type            cyclic;
    }
    inandouthalf31
    {
        type            cyclic;
    }
    inandouthalf32
    {
        type            cyclic;
    }
    inandouthalf41
    {
        type            cyclic;
    }
    inandouthalf42
    {
        type            cyclic;
    }
    top
    {
        type            symmetryPlane;
    }
    walls
    {
        type            zeroGradient;
    }
    frontAndBackPlanes
    {
        type            empty;
    }
}


// ************************************************************************* //
