/*--------------------------------*- C++ -*----------------------------------*\
| =========                 |                                                 |
| \\      /  F ield         | OpenFOAM: The Open Source CFD Toolbox           |
|  \\    /   O peration     | Version:  2.4.x                                 |
|   \\  /    A nd           | Web:      www.OpenFOAM.org                      |
|    \\/     M anipulation  |                                                 |
\*---------------------------------------------------------------------------*/
FoamFile
{
    version     2.0;
    format      ascii;
    class       volVectorField;
    location    "6.15";
    object      gradPf;
}
// * * * * * * * * * * * * * * * * * * * * * * * * * * * * * * * * * * * * * //

dimensions      [0 1 -2 0 0 0 0];

internalField   nonuniform List<vector> 
360
(
(0 58.0507 0)
(0 68.2039 0)
(0 3.63469 0)
(0 -10.7743 0)
(-3.34563e-14 -5.89297 0)
(-3.34574e-14 -3.35013 0)
(-3.34585e-14 -3.56009 0)
(0 -3.8719 0)
(-3.3461e-14 -3.95595 0)
(0 -4.03302 0)
(-1.67318e-14 -4.04275 0)
(0 -4.02078 0)
(-1.67332e-14 -4.00713 0)
(0 -3.99668 0)
(0 -4.00911 0)
(0 -4.02692 0)
(0 -4.03205 0)
(-1.67366e-14 -4.02884 0)
(0 -4.045 0)
(0 -4.0404 0)
(0 -4.03743 0)
(-3.3479e-14 -4.05569 0)
(0 -4.05466 0)
(0 -4.05921 0)
(0 -4.06299 0)
(-3.3485e-14 -4.05544 0)
(0 -4.06461 0)
(0 -4.07471 0)
(0 -4.06451 0)
(0 -4.05994 0)
(0 -4.07771 0)
(0 -4.06124 0)
(0 -4.07508 0)
(0 -4.09068 0)
(0 -4.08029 0)
(1.67504e-14 -4.09199 0)
(0 -4.10139 0)
(0 -4.14001 0)
(0 -4.11704 0)
(0 -4.12935 0)
(0 -4.1616 0)
(0 -4.11236 0)
(1.67566e-14 -4.11924 0)
(0 -4.11123 0)
(0 -4.06339 0)
(0 -4.04628 0)
(0 -3.97664 0)
(0 -3.93297 0)
(0 -3.96079 0)
(0 -3.92373 0)
(1.67638e-14 -3.91125 0)
(0 -3.9562 0)
(0 -4.01594 0)
(0 -4.09928 0)
(0 -4.2559 0)
(0 -4.45106 0)
(0 -4.69061 0)
(0 -4.98726 0)
(0 -5.1977 0)
(0 -5.33536 0)
(0 -5.19911 0)
(0 -4.75954 0)
(0 -4.16607 0)
(0 -3.57432 0)
(0 -3.17673 0)
(0 -2.99501 0)
(0 -2.97195 0)
(0 -3.00726 0)
(0 -3.06067 0)
(0 -3.16186 0)
(0 -3.27904 0)
(0 -3.32333 0)
(0 -3.38595 0)
(0 -3.45961 0)
(0 -3.50608 0)
(0 -3.53684 0)
(0 -3.55295 0)
(0 -3.59408 0)
(0 -3.63687 0)
(0 -3.67344 0)
(0 -3.71836 0)
(0 -3.77433 0)
(0 -3.82229 0)
(0 -3.86635 0)
(0 -3.90482 0)
(0 -3.93764 0)
(0 -3.96363 0)
(0 -3.98308 0)
(0 -4.00463 0)
(0 -4.02678 0)
(0 -4.04852 0)
(0 -4.07332 0)
(0 -4.09989 0)
(0 -4.12501 0)
(0 -4.14888 0)
(0 -4.17097 0)
(0 -4.19076 0)
(0 -4.20861 0)
(0 -4.22529 0)
(0 -4.24108 0)
(0 -4.2561 0)
(0 -4.27073 0)
(0 -4.28483 0)
(0 -4.29813 0)
(0 -4.31064 0)
(0 -4.32236 0)
(0 -4.3333 0)
(0 -4.3435 0)
(0 -4.35299 0)
(0 -4.36173 0)
(0 -4.36965 0)
(0 -4.37666 0)
(0 -4.38265 0)
(0 -4.38752 0)
(0 -4.39115 0)
(0 -4.39341 0)
(0 -4.39419 0)
(0 -4.3934 0)
(0 -4.39094 0)
(0 -4.38669 0)
(0 -4.38049 0)
(0 -4.37208 0)
(0 -4.36125 0)
(0 -4.34796 0)
(0 -4.33264 0)
(0 -4.31645 0)
(0 -4.30096 0)
(0 -4.28711 0)
(0 -4.27363 0)
(0 -4.25659 0)
(0 -4.23309 0)
(0 -4.20972 0)
(0 -4.2045 0)
(0 -4.22499 0)
(0 -4.24178 0)
(0 -4.22034 0)
(0 -4.19469 0)
(0 -4.26959 0)
(0 -4.487 0)
(0 -4.6152 0)
(0 -4.31952 0)
(0 -4.22447 0)
(0 -4.77111 0)
(0 -5.33029 0)
(0 -6.84479 0)
(0 -11.5865 0)
(0 -10.3983 0)
(0 -5.35826 0)
(0 -3.93974 0)
(0 0 0)
(0 0 0)
(0 0 0)
(0 0 0)
(0 0 0)
(0 0 0)
(0 0 0)
(0 0 0)
(0 0 0)
(0 0 0)
(0 0 0)
(0 0 0)
(0 0 0)
(0 0 0)
(0 0 0)
(0 0 0)
(0 0 0)
(0 0 0)
(0 0 0)
(0 0 0)
(0 0 0)
(0 0 0)
(0 0 0)
(0 0 0)
(0 0 0)
(0 0 0)
(0 0 0)
(0 0 0)
(0 0 0)
(0 0 0)
(0 0 0)
(0 0 0)
(0 0 0)
(0 0 0)
(0 0 0)
(0 0 0)
(0 0 0)
(0 0 0)
(0 0 0)
(0 0 0)
(0 0 0)
(0 0 0)
(0 0 0)
(0 0 0)
(0 0 0)
(0 0 0)
(0 0 0)
(0 0 0)
(0 0 0)
(0 0 0)
(0 0 0)
(0 0 0)
(0 0 0)
(0 0 0)
(0 0 0)
(0 0 0)
(0 0 0)
(0 0 0)
(0 0 0)
(0 0 0)
(0 0 0)
(0 0 0)
(0 0 0)
(0 0 0)
(0 0 0)
(0 0 0)
(0 0 0)
(0 0 0)
(0 0 0)
(0 0 0)
(0 0 0)
(0 0 0)
(0 0 0)
(0 0 0)
(0 0 0)
(0 0 0)
(0 0 0)
(0 0 0)
(0 0 0)
(0 0 0)
(0 0 0)
(0 0 0)
(0 0 0)
(0 0 0)
(0 0 0)
(0 0 0)
(0 0 0)
(0 0 0)
(0 0 0)
(0 0 0)
(0 0 0)
(0 0 0)
(0 0 0)
(0 0 0)
(0 0 0)
(0 0 0)
(0 0 0)
(0 0 0)
(0 0 0)
(0 0 0)
(0 0 0)
(0 0 0)
(0 0 0)
(0 0 0)
(0 0 0)
(0 0 0)
(0 0 0)
(0 0 0)
(0 0 0)
(0 0 0)
(0 0 0)
(0 0 0)
(0 0 0)
(0 0 0)
(0 0 0)
(0 0 0)
(0 0 0)
(0 0 0)
(0 0 0)
(0 0 0)
(0 0 0)
(0 0 0)
(0 0 0)
(0 0 0)
(0 0 0)
(0 0 0)
(0 0 0)
(0 0 0)
(0 0 0)
(0 0 0)
(0 0 0)
(0 0 0)
(0 0 0)
(0 0 0)
(0 0 0)
(0 0 0)
(0 0 0)
(0 0 0)
(0 0 0)
(0 0 0)
(0 0 0)
(0 0 0)
(0 0 0)
(0 0 0)
(0 0 0)
(0 0 0)
(0 0 0)
(0 0 0)
(0 0 0)
(0 0 0)
(0 0 0)
(0 0 0)
(0 0 0)
(0 0 0)
(0 0 0)
(0 0 0)
(0 0 0)
(0 0 0)
(0 0 0)
(0 0 0)
(0 0 0)
(0 0 0)
(0 0 0)
(0 0 0)
(0 0 0)
(0 0 0)
(0 0 0)
(0 0 0)
(0 0 0)
(0 0 0)
(0 0 0)
(0 0 0)
(0 0 0)
(0 0 0)
(0 0 0)
(0 0 0)
(0 0 0)
(0 0 0)
(0 0 0)
(0 0 0)
(0 0 0)
(0 0 0)
(0 0 0)
(0 0 0)
(0 0 0)
(0 0 0)
(0 0 0)
(0 0 0)
(0 0 0)
(0 0 0)
(0 0 0)
(0 0 0)
(0 0 0)
(0 0 0)
(0 0 0)
(0 0 0)
(0 0 0)
(0 0 0)
(0 0 0)
(0 0 0)
(0 0 0)
(0 0 0)
(0 0 0)
(0 0 0)
(0 0 0)
(0 0 0)
(0 0 0)
(0 0 0)
(0 0 0)
(0 0 0)
(0 0 0)
)
;

boundaryField
{
    inandouthalf11
    {
        type            cyclic;
    }
    inandouthalf12
    {
        type            cyclic;
    }
    inandouthalf21
    {
        type            cyclic;
    }
    inandouthalf22
    {
        type            cyclic;
    }
    inandouthalf31
    {
        type            cyclic;
    }
    inandouthalf32
    {
        type            cyclic;
    }
    inandouthalf41
    {
        type            cyclic;
    }
    inandouthalf42
    {
        type            cyclic;
    }
    top
    {
        type            symmetryPlane;
    }
    walls
    {
        type            calculated;
        value           uniform (0 0 0);
    }
    frontAndBackPlanes
    {
        type            empty;
    }
}


// ************************************************************************* //
