/*--------------------------------*- C++ -*----------------------------------*\
| =========                 |                                                 |
| \\      /  F ield         | OpenFOAM: The Open Source CFD Toolbox           |
|  \\    /   O peration     | Version:  2.4.x                                 |
|   \\  /    A nd           | Web:      www.OpenFOAM.org                      |
|    \\/     M anipulation  |                                                 |
\*---------------------------------------------------------------------------*/
FoamFile
{
    version     2.0;
    format      ascii;
    class       volScalarField;
    location    "6.15";
    object      nutb;
}
// * * * * * * * * * * * * * * * * * * * * * * * * * * * * * * * * * * * * * //

dimensions      [0 2 -1 0 0 0 0];

internalField   nonuniform List<scalar> 
360
(
9e-22
9e-22
9e-22
9e-22
9e-22
9e-22
9e-22
9e-22
9e-22
9e-22
9e-22
9e-22
9e-22
9e-22
9e-22
9e-22
9e-22
9e-22
9e-22
9e-22
9e-22
9e-22
9e-22
9e-22
9e-22
9e-22
9e-22
9e-22
9e-22
9e-22
9e-22
9e-22
9e-22
9e-22
9e-22
9e-22
9e-22
9e-22
9e-22
9e-22
9e-22
9e-22
9e-22
9e-22
9e-22
9e-22
9e-22
9e-22
9e-22
9e-22
9e-22
9e-22
9e-22
9e-22
9e-22
9e-22
9e-22
9e-22
9e-22
9e-22
9e-22
9e-22
9e-22
9e-22
9e-22
9e-22
9e-22
9e-22
9e-22
9e-22
9e-22
9e-22
9e-22
9e-22
9e-22
9e-22
9e-22
9e-22
9e-22
9e-22
9e-22
9e-22
9e-22
9e-22
9e-22
9e-22
9e-22
9e-22
9e-22
9e-22
9e-22
9e-22
9e-22
9e-22
9e-22
9e-22
9e-22
9e-22
9e-22
9e-22
9e-22
9e-22
9e-22
9e-22
9e-22
9e-22
9e-22
9e-22
9e-22
9e-22
9e-22
9e-22
9e-22
9e-22
9e-22
9e-22
9e-22
9e-22
9e-22
9e-22
9e-22
9e-22
9e-22
9e-22
9e-22
9e-22
9e-22
9e-22
9e-22
9e-22
9e-22
9e-22
9.62025e-22
3.45279e-21
1.5379e-20
7.40824e-20
3.85545e-19
2.18817e-18
1.37326e-17
9.68052e-17
7.77565e-16
7.21632e-15
7.88739e-14
1.03326e-12
1.64198e-11
3.20497e-10
7.76071e-09
2.05448e-07
3.32889e-06
1.14646e-05
1.8912e-05
2.57273e-05
3.24261e-05
3.92097e-05
4.61429e-05
5.32113e-05
6.03625e-05
6.75325e-05
7.46596e-05
8.16905e-05
8.85819e-05
9.52997e-05
0.000101818
0.000108117
0.000114183
0.000120005
0.000125577
0.000130895
0.000135956
0.000140759
0.000145305
0.000149595
0.000153631
0.000157416
0.000160953
0.000164246
0.000167298
0.000170113
0.000172695
0.000175049
0.000177179
0.000179089
0.000180784
0.000182269
0.000183547
0.000184623
0.000185503
0.00018619
0.00018669
0.000187006
0.000187144
0.000187108
0.000186903
0.000186534
0.000186005
0.000185321
0.000184488
0.00018351
0.000182393
0.000181141
0.00017976
0.00017824
0.000176566
0.000174735
0.000172745
0.000170596
0.000168288
0.000165824
0.000163204
0.000160433
0.000157516
0.00015446
0.000151275
0.000147972
0.000144566
0.000141076
0.000137524
0.000133935
0.000130339
0.00012677
0.000123267
0.00011987
0.000116623
0.000113568
0.000110742
0.000108178
0.000105892
0.000103886
0.000102141
0.000100617
9.9255e-05
9.79826e-05
9.67217e-05
9.53969e-05
9.39428e-05
9.23084e-05
9.04585e-05
8.83719e-05
8.60382e-05
8.34529e-05
8.06133e-05
7.75164e-05
7.41562e-05
7.05235e-05
6.66057e-05
6.23874e-05
5.78512e-05
5.29784e-05
4.77502e-05
4.21486e-05
3.61571e-05
2.97626e-05
2.29574e-05
1.57345e-05
8.0064e-06
1.55148e-06
6.26685e-08
1.20469e-09
2.09765e-11
3.4352e-13
5.29709e-15
7.69421e-17
1.0398e-18
8.3512e-21
9e-22
9e-22
9e-22
9e-22
9e-22
9e-22
9e-22
9e-22
9e-22
9e-22
9e-22
9e-22
9e-22
9e-22
9e-22
9e-22
9e-22
9e-22
9e-22
9e-22
9e-22
9e-22
9e-22
9e-22
9e-22
9e-22
9e-22
9e-22
9e-22
9e-22
9e-22
9e-22
9e-22
9e-22
9e-22
9e-22
9e-22
9e-22
9e-22
9e-22
9e-22
9e-22
9e-22
9e-22
9e-22
9e-22
9e-22
9e-22
9e-22
9e-22
9e-22
9e-22
9e-22
9e-22
9e-22
9e-22
9e-22
9e-22
9e-22
9e-22
9e-22
9e-22
9e-22
9e-22
9e-22
9e-22
9e-22
9e-22
9e-22
9e-22
9e-22
9e-22
9e-22
9e-22
9e-22
9e-22
9e-22
9e-22
9e-22
9e-22
9e-22
9e-22
9e-22
9e-22
9e-22
9e-22
9e-22
9e-22
9e-22
9e-22
9e-22
9e-22
9e-22
9e-22
9e-22
9e-22
)
;

boundaryField
{
    inandouthalf11
    {
        type            cyclic;
    }
    inandouthalf12
    {
        type            cyclic;
    }
    inandouthalf21
    {
        type            cyclic;
    }
    inandouthalf22
    {
        type            cyclic;
    }
    inandouthalf31
    {
        type            cyclic;
    }
    inandouthalf32
    {
        type            cyclic;
    }
    inandouthalf41
    {
        type            cyclic;
    }
    inandouthalf42
    {
        type            cyclic;
    }
    top
    {
        type            symmetryPlane;
    }
    walls
    {
        type            calculated;
        value           uniform 0;
    }
    frontAndBackPlanes
    {
        type            empty;
    }
}


// ************************************************************************* //
