/*--------------------------------*- C++ -*----------------------------------*\
| =========                 |                                                 |
| \\      /  F ield         | OpenFOAM: The Open Source CFD Toolbox           |
|  \\    /   O peration     | Version:  2.4.x                                 |
|   \\  /    A nd           | Web:      www.OpenFOAM.org                      |
|    \\/     M anipulation  |                                                 |
\*---------------------------------------------------------------------------*/
FoamFile
{
    version     2.0;
    format      ascii;
    class       volVectorField;
    location    "6.15";
    object      susb;
}
// * * * * * * * * * * * * * * * * * * * * * * * * * * * * * * * * * * * * * //

dimensions      [0 1 -2 0 0 0 0];

internalField   nonuniform List<vector> 
360
(
(0 5.23647e-18 0)
(0 6.07671e-18 0)
(0 2.92809e-19 0)
(0 -8.58234e-19 0)
(-3.6918e-31 -4.7618e-19 0)
(-3.6913e-31 -2.73518e-19 0)
(-7.38163e-31 -2.92536e-19 0)
(0 -3.20199e-19 0)
(-3.68967e-31 -3.29456e-19 0)
(0 -3.38297e-19 0)
(-3.68845e-31 -3.41592e-19 0)
(0 -3.42254e-19 0)
(-7.37445e-31 -3.43617e-19 0)
(0 -3.45276e-19 0)
(0 -3.48949e-19 0)
(0 -3.53153e-19 0)
(0 -3.56305e-19 0)
(-3.68408e-31 -3.58765e-19 0)
(0 -3.6301e-19 0)
(0 -3.65426e-19 0)
(0 -3.68054e-19 0)
(-3.68146e-31 -3.72656e-19 0)
(0 -3.75556e-19 0)
(0 -3.79027e-19 0)
(0 -3.82477e-19 0)
(-3.67874e-31 -3.84906e-19 0)
(0 -3.88986e-19 0)
(0 -3.9321e-19 0)
(0 -3.95538e-19 0)
(0 -3.98451e-19 0)
(0 -4.03634e-19 0)
(0 -4.05456e-19 0)
(0 -4.10419e-19 0)
(0 -4.15584e-19 0)
(0 -4.1824e-19 0)
(3.67152e-31 -4.23183e-19 0)
(0 -4.28015e-19 0)
(0 -4.36018e-19 0)
(0 -4.37596e-19 0)
(0 -4.43063e-19 0)
(0 -4.5072e-19 0)
(0 -4.4964e-19 0)
(3.66601e-31 -4.54746e-19 0)
(0 -4.58209e-19 0)
(0 -4.57289e-19 0)
(0 -4.59778e-19 0)
(0 -4.56215e-19 0)
(0 -4.55594e-19 0)
(0 -4.63268e-19 0)
(0 -4.63381e-19 0)
(3.65944e-31 -4.6649e-19 0)
(0 -4.76519e-19 0)
(0 -4.88661e-19 0)
(0 -5.03997e-19 0)
(0 -5.29007e-19 0)
(0 -5.59552e-19 0)
(0 -5.96916e-19 0)
(0 -6.42891e-19 0)
(0 -6.79276e-19 0)
(0 -7.07375e-19 0)
(0 -6.99215e-19 0)
(0 -6.49064e-19 0)
(0 -5.7531e-19 0)
(0 -4.99192e-19 0)
(0 -4.48106e-19 0)
(0 -4.26391e-19 0)
(0 -4.26887e-19 0)
(0 -4.3584e-19 0)
(0 -4.4765e-19 0)
(0 -4.66873e-19 0)
(0 -4.8895e-19 0)
(0 -5.00601e-19 0)
(0 -5.15452e-19 0)
(0 -5.32334e-19 0)
(0 -5.4552e-19 0)
(0 -5.56539e-19 0)
(0 -5.65576e-19 0)
(0 -5.78884e-19 0)
(0 -5.92856e-19 0)
(0 -6.06211e-19 0)
(0 -6.21398e-19 0)
(0 -6.3893e-19 0)
(0 -6.55658e-19 0)
(0 -6.72268e-19 0)
(0 -6.88434e-19 0)
(0 -7.0414e-19 0)
(0 -7.19119e-19 0)
(0 -7.33399e-19 0)
(0 -7.48551e-19 0)
(0 -7.6433e-19 0)
(0 -7.80585e-19 0)
(0 -7.98024e-19 0)
(0 -8.16448e-19 0)
(0 -8.35271e-19 0)
(0 -8.54549e-19 0)
(0 -8.74197e-19 0)
(0 -8.94119e-19 0)
(0 -9.14401e-19 0)
(0 -9.35238e-19 0)
(0 -9.56715e-19 0)
(0 -9.78902e-19 0)
(0 -1.00193e-18 0)
(0 -1.02581e-18 0)
(0 -1.05053e-18 0)
(0 -1.07616e-18 0)
(0 -1.10274e-18 0)
(0 -1.13034e-18 0)
(0 -1.15904e-18 0)
(0 -1.18892e-18 0)
(0 -1.22004e-18 0)
(0 -1.25249e-18 0)
(0 -1.28632e-18 0)
(0 -1.32161e-18 0)
(0 -1.35842e-18 0)
(0 -1.39683e-18 0)
(0 -1.43692e-18 0)
(0 -1.47879e-18 0)
(0 -1.52254e-18 0)
(0 -1.56827e-18 0)
(0 -1.61611e-18 0)
(0 -1.66616e-18 0)
(0 -1.7185e-18 0)
(0 -1.77322e-18 0)
(0 -1.83051e-18 0)
(0 -1.89078e-18 0)
(0 -1.95482e-18 0)
(0 -2.02379e-18 0)
(0 -2.09872e-18 0)
(0 -2.17965e-18 0)
(0 -2.26517e-18 0)
(0 -2.35413e-18 0)
(0 -2.45078e-18 0)
(0 -2.74448e-18 0)
(0 -1.04072e-17 0)
(0 -4.90596e-17 0)
(0 -2.48537e-16 0)
(0 -1.36312e-15 0)
(0 -8.38669e-15 0)
(0 -5.92887e-14 0)
(0 -4.63553e-13 0)
(0 -3.76787e-12 0)
(0 -3.73787e-11 0)
(0 -5.09808e-10 0)
(0 -8.4179e-09 0)
(0 -2.0838e-07 0)
(0 -1.09083e-05 0)
(0 -0.000363184 0)
(0 -0.309161 0)
(0 -2.22433 0)
(0 -1.9239 0)
(0 -1.06537 0)
(0 -0.864568 0)
(0 -0.735252 0)
(0 -0.623827 0)
(0 -0.523446 0)
(0 -0.435527 0)
(0 -0.360984 0)
(0 -0.29921 0)
(0 -0.248676 0)
(0 -0.207566 0)
(0 -0.174142 0)
(0 -0.146899 0)
(0 -0.1246 0)
(0 -0.106253 0)
(0 -0.0910706 0)
(0 -0.0784352 0)
(0 -0.0678593 0)
(0 -0.0589584 0)
(0 -0.0514278 0)
(0 -0.0450246 0)
(0 -0.0395542 0)
(0 -0.0348601 0)
(0 -0.030815 0)
(0 -0.0273156 0)
(0 -0.0242769 0)
(0 -0.021629 0)
(0 -0.0193141 0)
(0 -0.0172839 0)
(0 -0.0154981 0)
(0 -0.013923 0)
(0 -0.0125301 0)
(0 -0.0112951 0)
(0 -0.0101976 0)
(0 -0.00922013 0)
(0 -0.00834764 0)
(0 -0.0075673 0)
(0 -0.00686808 0)
(0 -0.00624052 0)
(0 -0.00567657 0)
(0 -0.00516943 0)
(0 -0.00471344 0)
(0 -0.00430374 0)
(0 -0.00393593 0)
(0 -0.00360599 0)
(0 -0.00331038 0)
(0 -0.00304565 0)
(0 -0.00280748 0)
(0 -0.00259048 0)
(0 -0.0023881 0)
(0 -0.0021951 0)
(0 -0.00201332 0)
(0 -0.00184527 0)
(-9.78755e-19 -0.00168785 0)
(0 -0.001542 0)
(0 -0.00140858 0)
(4.65307e-19 -0.00127808 0)
(0 -0.00114425 0)
(-4.47379e-19 -0.00101029 0)
(0 -0.000877804 0)
(2.13921e-19 -0.000749887 0)
(0 -0.000630881 0)
(0 -0.000523221 0)
(0 -0.000430163 0)
(9.60169e-20 -0.00035052 0)
(0 -0.000282482 0)
(0 -0.000227087 0)
(0 -0.000182018 0)
(0 -0.000144968 0)
(0 -0.000115345 0)
(-3.8868e-20 -9.19385e-05 0)
(0 -7.32828e-05 0)
(-1.79296e-20 -5.80557e-05 0)
(0 -4.60573e-05 0)
(-8.25848e-21 -3.66964e-05 0)
(0 -2.90572e-05 0)
(0 -2.30096e-05 0)
(0 -1.82981e-05 0)
(0 -1.45184e-05 0)
(3.4054e-21 -1.15485e-05 0)
(0 -9.12233e-06 0)
(0 -7.28771e-06 0)
(0 -5.69554e-06 0)
(0 -4.48629e-06 0)
(0 -3.32486e-06 0)
(0 -2.94149e-06 0)
(0 -8.30337e-07 0)
(0 6.62152e-08 0)
(0 -1.30172e-06 0)
(0 -1.03358e-06 0)
(0 -3.98777e-07 0)
(0 -2.58861e-07 0)
(0 -1.31056e-08 0)
(0 -3.89806e-26 0)
(-4.16219e-42 -1.48197e-26 0)
(1.92652e-42 -1.45372e-26 0)
(0 -6.26772e-27 0)
(0 -2.26938e-27 0)
(-1.80343e-43 -8.23719e-28 0)
(0 -3.40495e-28 0)
(0 -1.52022e-28 0)
(-2.89707e-44 -8.04686e-29 0)
(0 -5.95685e-29 0)
(0 -5.09788e-29 0)
(0 -2.98744e-29 0)
(0 -7.75464e-30 0)
(0 -5.48411e-31 0)
(0 -9.68422e-33 0)
(0 -9.22213e-35 0)
(0 -9.41714e-37 0)
(0 -1.2021e-38 0)
(0 -1.33216e-40 0)
(0 -9.29361e-43 0)
(0 -5.27391e-45 0)
(0 -2.07303e-47 0)
(0 -1.21344e-48 0)
(0 -6.97184e-49 0)
(6.381e-65 -3.55682e-49 0)
(0 -1.68803e-49 0)
(0 -8.39688e-50 0)
(0 -4.14288e-50 0)
(0 -2.00942e-50 0)
(0 -9.56928e-51 0)
(0 -4.47147e-51 0)
(0 -2.0488e-51 0)
(0 -9.1987e-52 0)
(0 -4.04405e-52 0)
(0 -1.73955e-52 0)
(0 -7.31526e-53 0)
(0 -3.00486e-53 0)
(0 -1.20453e-53 0)
(0 -4.7075e-54 0)
(0 -1.79178e-54 0)
(0 -6.63466e-55 0)
(0 -2.38711e-55 0)
(0 -8.3347e-56 0)
(0 -2.82013e-56 0)
(1.27234e-72 -9.2334e-57 0)
(0 -2.92055e-57 0)
(0 -8.90867e-58 0)
(0 -2.61561e-58 0)
(0 -7.37616e-59 0)
(0 -1.99333e-59 0)
(0 -5.14879e-60 0)
(0 -1.26757e-60 0)
(0 -2.96478e-61 0)
(0 -6.56464e-62 0)
(0 -1.37042e-62 0)
(0 -2.68472e-63 0)
(0 -4.90911e-64 0)
(0 -8.32575e-65 0)
(0 -1.29992e-65 0)
(0 -1.85168e-66 0)
(0 -2.37998e-67 0)
(0 -2.72199e-68 0)
(0 -2.72064e-69 0)
(0 -2.31923e-70 0)
(0 -1.62863e-71 0)
(0 -8.92987e-73 0)
(0 -3.48058e-74 0)
(0 -7.8225e-76 0)
(0 -3.88967e-78 0)
(0 -5.95262e-82 0)
(0 -6.44241e-84 0)
(0 -3.45979e-86 0)
(0 -1.1163e-96 0)
(0 -1.78289e-107 0)
(0 -1.97897e-118 0)
(0 -1.60746e-129 0)
(0 -1.06965e-140 0)
(0 -5.65232e-152 0)
(0 -2.51794e-163 0)
(0 -3.93716e-173 0)
(0 -1.5342e-183 0)
(0 -1.33415e-191 0)
(0 -4.64916e-202 0)
(0 -4.5891e-210 0)
(0 -1.85355e-220 0)
(0 -1.57881e-228 0)
(0 -7.81142e-239 0)
(0 -5.43627e-247 0)
(0 -4.93234e-257 0)
(0 -1.89518e-265 0)
(0 -3.20871e-275 0)
(0 -6.72733e-284 0)
(0 -1.5851e-293 0)
(0 -2.4291e-302 0)
(0 -7.49336e-312 0)
(0 -8.90306e-321 0)
(0 -0 0)
(0 0 0)
(0 0 0)
(0 0 0)
(0 0 0)
(0 0 0)
(0 0 0)
(0 0 0)
(0 0 0)
(0 0 0)
(0 0 0)
(0 0 0)
(0 0 0)
(0 0 0)
(0 0 0)
(0 0 0)
(0 0 0)
(0 0 0)
(0 0 0)
(0 0 0)
(0 0 0)
(0 0 0)
)
;

boundaryField
{
    inandouthalf11
    {
        type            cyclic;
    }
    inandouthalf12
    {
        type            cyclic;
    }
    inandouthalf21
    {
        type            cyclic;
    }
    inandouthalf22
    {
        type            cyclic;
    }
    inandouthalf31
    {
        type            cyclic;
    }
    inandouthalf32
    {
        type            cyclic;
    }
    inandouthalf41
    {
        type            cyclic;
    }
    inandouthalf42
    {
        type            cyclic;
    }
    top
    {
        type            symmetryPlane;
    }
    walls
    {
        type            zeroGradient;
    }
    frontAndBackPlanes
    {
        type            empty;
    }
}


// ************************************************************************* //
