/*--------------------------------*- C++ -*----------------------------------*\
| =========                 |                                                 |
| \\      /  F ield         | OpenFOAM: The Open Source CFD Toolbox           |
|  \\    /   O peration     | Version:  2.4.x                                 |
|   \\  /    A nd           | Web:      www.OpenFOAM.org                      |
|    \\/     M anipulation  |                                                 |
\*---------------------------------------------------------------------------*/
FoamFile
{
    version     2.0;
    format      ascii;
    class       volTensorField;
    location    "6.15";
    object      Tauf;
}
// * * * * * * * * * * * * * * * * * * * * * * * * * * * * * * * * * * * * * //

dimensions      [0 2 -2 0 0 0 0];

internalField   nonuniform List<tensor> 
360
(
(0 4.93926e-08 0 4.93926e-08 6.69681e-10 0 0 0 0)
(0 -1.9232e-10 0 -1.9232e-10 8.39903e-10 0 0 0 0)
(0 -6.21472e-11 0 -6.21472e-11 8.75024e-10 0 0 0 0)
(0 -2.47367e-11 0 -2.47367e-11 8.25996e-10 0 0 0 0)
(-3.23117e-24 -3.71161e-11 0 -3.71161e-11 8.24064e-10 0 0 0 0)
(-6.46235e-24 -4.4954e-11 0 -4.4954e-11 8.40539e-10 0 0 0 0)
(-3.23117e-24 -4.55076e-11 0 -4.55076e-11 8.51854e-10 0 0 0 0)
(0 -4.53962e-11 0 -4.53962e-11 8.56982e-10 0 0 0 0)
(-6.46235e-24 -4.5785e-11 0 -4.5785e-11 8.60497e-10 0 0 0 0)
(0 -4.62669e-11 0 -4.62669e-11 8.64986e-10 0 0 0 0)
(-3.23117e-24 -4.70008e-11 0 -4.70008e-11 8.70683e-10 0 0 0 0)
(0 -4.78548e-11 0 -4.78548e-11 8.76855e-10 0 0 0 0)
(-6.46235e-24 -4.8688e-11 0 -4.8688e-11 8.82911e-10 0 0 0 0)
(0 -4.94982e-11 0 -4.94982e-11 8.8862e-10 0 0 0 0)
(0 -5.02439e-11 0 -5.02439e-11 8.94114e-10 0 0 0 0)
(0 -5.09859e-11 0 -5.09859e-11 8.99633e-10 0 0 0 0)
(0 -5.17775e-11 0 -5.17775e-11 9.05261e-10 0 0 0 0)
(-6.46235e-24 -5.26057e-11 0 -5.26057e-11 9.10939e-10 0 0 0 0)
(0 -5.3395e-11 0 -5.3395e-11 9.1668e-10 0 0 0 0)
(0 -5.42497e-11 0 -5.42497e-11 9.22412e-10 0 0 0 0)
(0 -5.51056e-11 0 -5.51056e-11 9.28063e-10 0 0 0 0)
(-6.46235e-24 -5.59137e-11 0 -5.59137e-11 9.33722e-10 0 0 0 0)
(0 -5.67843e-11 0 -5.67843e-11 9.39355e-10 0 0 0 0)
(0 -5.76438e-11 0 -5.76438e-11 9.44889e-10 0 0 0 0)
(0 -5.85041e-11 0 -5.85041e-11 9.50267e-10 0 0 0 0)
(-6.46235e-24 -5.93907e-11 0 -5.93907e-11 9.55396e-10 0 0 0 0)
(0 -6.02264e-11 0 -6.02264e-11 9.60331e-10 0 0 0 0)
(0 -6.10621e-11 0 -6.10621e-11 9.65162e-10 0 0 0 0)
(0 -6.19583e-11 0 -6.19583e-11 9.69856e-10 0 0 0 0)
(0 -6.28459e-11 0 -6.28459e-11 9.7447e-10 0 0 0 0)
(0 -6.3694e-11 0 -6.3694e-11 9.79328e-10 0 0 0 0)
(0 -6.46914e-11 0 -6.46914e-11 9.84569e-10 0 0 0 0)
(0 -6.56683e-11 0 -6.56683e-11 9.90556e-10 0 0 0 0)
(0 -6.67402e-11 0 -6.67402e-11 9.97622e-10 0 0 0 0)
(0 -6.80003e-11 0 -6.80003e-11 1.00581e-09 0 0 0 0)
(6.46235e-24 -6.93122e-11 0 -6.93122e-11 1.01526e-09 0 0 0 0)
(0 -7.07532e-11 0 -7.07532e-11 1.02589e-09 0 0 0 0)
(0 -7.22061e-11 0 -7.22061e-11 1.03757e-09 0 0 0 0)
(0 -7.38913e-11 0 -7.38913e-11 1.04927e-09 0 0 0 0)
(0 -7.54053e-11 0 -7.54053e-11 1.05994e-09 0 0 0 0)
(0 -7.66934e-11 0 -7.66934e-11 1.06849e-09 0 0 0 0)
(0 -7.79397e-11 0 -7.79397e-11 1.073e-09 0 0 0 0)
(3.23117e-24 -7.85624e-11 0 -7.85624e-11 1.07229e-09 0 0 0 0)
(0 -7.87111e-11 0 -7.87111e-11 1.06547e-09 0 0 0 0)
(0 -7.84193e-11 0 -7.84193e-11 1.05202e-09 0 0 0 0)
(0 -7.74878e-11 0 -7.74878e-11 1.03276e-09 0 0 0 0)
(0 -7.63495e-11 0 -7.63495e-11 1.00932e-09 0 0 0 0)
(0 -7.5017e-11 0 -7.5017e-11 9.8491e-10 0 0 0 0)
(0 -7.37425e-11 0 -7.37425e-11 9.64329e-10 0 0 0 0)
(0 -7.34614e-11 0 -7.34614e-11 9.52202e-10 0 0 0 0)
(3.23117e-24 -7.43613e-11 0 -7.43613e-11 9.53968e-10 0 0 0 0)
(0 -7.69542e-11 0 -7.69542e-11 9.76191e-10 0 0 0 0)
(0 -8.21554e-11 0 -8.21554e-11 1.02657e-09 0 0 0 0)
(0 -9.08721e-11 0 -9.08721e-11 1.11429e-09 0 0 0 0)
(0 -1.04054e-10 0 -1.04054e-10 1.25038e-09 0 0 0 0)
(0 -1.23028e-10 0 -1.23028e-10 1.44515e-09 0 0 0 0)
(0 -1.48434e-10 0 -1.48434e-10 1.70196e-09 0 0 0 0)
(0 -1.79008e-10 0 -1.79008e-10 2.00381e-09 0 0 0 0)
(0 -2.09911e-10 0 -2.09911e-10 2.29229e-09 0 0 0 0)
(0 -2.29848e-10 0 -2.29848e-10 2.46163e-09 0 0 0 0)
(0 -2.25312e-10 0 -2.25312e-10 2.3907e-09 0 0 0 0)
(0 -1.88931e-10 0 -1.88931e-10 2.0268e-09 0 0 0 0)
(0 -1.29553e-10 0 -1.29553e-10 1.45662e-09 0 0 0 0)
(0 -6.90608e-11 0 -6.90608e-11 8.68203e-10 0 0 0 0)
(0 -2.52132e-11 0 -2.52132e-11 4.22743e-10 0 0 0 0)
(0 -1.51797e-12 0 -1.51797e-12 1.65627e-10 0 0 0 0)
(0 8.53489e-12 0 8.53489e-12 4.96266e-11 0 0 0 0)
(0 1.21177e-11 0 1.21177e-11 7.53086e-12 0 0 0 0)
(0 1.33993e-11 0 1.33993e-11 -5.37316e-12 0 0 0 0)
(0 1.42199e-11 0 1.42199e-11 -8.97777e-12 0 0 0 0)
(0 1.4956e-11 0 1.4956e-11 -1.00162e-11 0 0 0 0)
(0 1.53339e-11 0 1.53339e-11 -1.06649e-11 0 0 0 0)
(0 1.58006e-11 0 1.58006e-11 -1.10082e-11 0 0 0 0)
(0 1.63278e-11 0 1.63278e-11 -1.12894e-11 0 0 0 0)
(0 1.67419e-11 0 1.67419e-11 -1.15995e-11 0 0 0 0)
(0 1.709e-11 0 1.709e-11 -1.18395e-11 0 0 0 0)
(0 1.73778e-11 0 1.73778e-11 -1.21335e-11 0 0 0 0)
(0 1.77972e-11 0 1.77972e-11 -1.23609e-11 0 0 0 0)
(0 1.82378e-11 0 1.82378e-11 -1.26394e-11 0 0 0 0)
(0 1.86603e-11 0 1.86603e-11 -1.29644e-11 0 0 0 0)
(0 1.91399e-11 0 1.91399e-11 -1.32976e-11 0 0 0 0)
(0 1.96927e-11 0 1.96927e-11 -1.36224e-11 0 0 0 0)
(0 2.02219e-11 0 2.02219e-11 -1.39912e-11 0 0 0 0)
(0 2.07484e-11 0 2.07484e-11 -1.43415e-11 0 0 0 0)
(0 2.12624e-11 0 2.12624e-11 -1.46872e-11 0 0 0 0)
(0 2.17631e-11 0 2.17631e-11 -1.50192e-11 0 0 0 0)
(0 2.22425e-11 0 2.22425e-11 -1.53405e-11 0 0 0 0)
(0 2.27013e-11 0 2.27013e-11 -1.56715e-11 0 0 0 0)
(0 2.31881e-11 0 2.31881e-11 -1.59923e-11 0 0 0 0)
(0 2.36955e-11 0 2.36955e-11 -1.6328e-11 0 0 0 0)
(0 2.42189e-11 0 2.42189e-11 -1.66877e-11 0 0 0 0)
(0 2.47803e-11 0 2.47803e-11 -1.70584e-11 0 0 0 0)
(0 2.53737e-11 0 2.53737e-11 -1.74441e-11 0 0 0 0)
(0 2.5981e-11 0 2.5981e-11 -1.78487e-11 0 0 0 0)
(0 2.6604e-11 0 2.6604e-11 -1.8261e-11 0 0 0 0)
(0 2.72402e-11 0 2.72402e-11 -1.86811e-11 0 0 0 0)
(0 2.78867e-11 0 2.78867e-11 -1.91102e-11 0 0 0 0)
(0 2.85462e-11 0 2.85462e-11 -1.95489e-11 0 0 0 0)
(0 2.92249e-11 0 2.92249e-11 -1.99979e-11 0 0 0 0)
(0 2.99255e-11 0 2.99255e-11 -2.04605e-11 0 0 0 0)
(0 3.06505e-11 0 3.06505e-11 -2.09393e-11 0 0 0 0)
(0 3.1404e-11 0 3.1404e-11 -2.14345e-11 0 0 0 0)
(0 3.21866e-11 0 3.21866e-11 -2.19477e-11 0 0 0 0)
(0 3.29982e-11 0 3.29982e-11 -2.24803e-11 0 0 0 0)
(0 3.38408e-11 0 3.38408e-11 -2.30323e-11 0 0 0 0)
(0 3.47163e-11 0 3.47163e-11 -2.36051e-11 0 0 0 0)
(0 3.56268e-11 0 3.56268e-11 -2.42002e-11 0 0 0 0)
(0 3.65752e-11 0 3.65752e-11 -2.48191e-11 0 0 0 0)
(0 3.75642e-11 0 3.75642e-11 -2.54633e-11 0 0 0 0)
(0 3.85965e-11 0 3.85965e-11 -2.61345e-11 0 0 0 0)
(0 3.96744e-11 0 3.96744e-11 -2.68342e-11 0 0 0 0)
(0 4.08004e-11 0 4.08004e-11 -2.75639e-11 0 0 0 0)
(0 4.1977e-11 0 4.1977e-11 -2.83252e-11 0 0 0 0)
(0 4.32071e-11 0 4.32071e-11 -2.91195e-11 0 0 0 0)
(0 4.44933e-11 0 4.44933e-11 -2.99487e-11 0 0 0 0)
(0 4.58388e-11 0 4.58388e-11 -3.08145e-11 0 0 0 0)
(0 4.72469e-11 0 4.72469e-11 -3.17189e-11 0 0 0 0)
(0 4.87216e-11 0 4.87216e-11 -3.26642e-11 0 0 0 0)
(0 5.0267e-11 0 5.0267e-11 -3.36527e-11 0 0 0 0)
(0 5.18875e-11 0 5.18875e-11 -3.46867e-11 0 0 0 0)
(0 5.3587e-11 0 5.3587e-11 -3.57684e-11 0 0 0 0)
(0 5.53694e-11 0 5.53694e-11 -3.69001e-11 0 0 0 0)
(0 5.72382e-11 0 5.72382e-11 -3.8085e-11 0 0 0 0)
(0 5.92003e-11 0 5.92003e-11 -3.93295e-11 0 0 0 0)
(0 6.12701e-11 0 6.12701e-11 -4.0645e-11 0 0 0 0)
(0 6.34749e-11 0 6.34749e-11 -4.20481e-11 0 0 0 0)
(0 6.58533e-11 0 6.58533e-11 -4.35561e-11 0 0 0 0)
(0 6.8441e-11 0 6.8441e-11 -4.51775e-11 0 0 0 0)
(0 7.12421e-11 0 7.12421e-11 -4.69055e-11 0 0 0 0)
(0 7.42127e-11 0 7.42127e-11 -4.87381e-11 0 0 0 0)
(0 7.73176e-11 0 7.73176e-11 -5.07329e-11 0 0 0 0)
(0 8.0699e-11 0 8.0699e-11 -5.30262e-11 0 0 0 0)
(0 8.47705e-11 0 8.47705e-11 -5.56887e-11 0 0 0 0)
(0 8.98175e-11 0 8.98175e-11 -5.85838e-11 0 0 0 0)
(0 9.53424e-11 0 9.53424e-11 -6.16402e-11 0 0 0 0)
(0 1.00587e-10 0 1.00587e-10 -6.52472e-11 0 0 0 0)
(0 1.06361e-10 0 1.06361e-10 -7.02343e-11 0 0 0 0)
(0 1.15714e-10 0 1.15714e-10 -7.70558e-11 0 0 0 0)
(0 1.30856e-10 0 1.30856e-10 -8.35754e-11 0 0 0 0)
(0 1.45768e-10 0 1.45768e-10 -8.69502e-11 0 0 0 0)
(0 1.4822e-10 0 1.4822e-10 -9.8131e-11 0 0 0 0)
(0 1.59235e-10 0 1.59235e-10 -1.1445e-10 0 0 0 0)
(0 1.99816e-10 0 1.99816e-10 -1.31396e-10 0 0 0 0)
(0 2.53736e-10 0 2.53736e-10 -1.98998e-10 0 0 0 0)
(0 3.99625e-10 0 3.99625e-10 -4.91812e-10 0 0 0 0)
(0 9.56579e-10 0 9.56579e-10 3.87452e-10 0 0 0 0)
(0 -1.2995e-07 0 -1.2995e-07 -1.35699e-08 0 0 0 0)
(0 -4.75889e-05 0 -4.75889e-05 1.01495e-07 0 0 0 0)
(0 -0.000604118 0 -0.000604118 1.32142e-06 0 0 0 0)
(0 -0.00219189 0 -0.00219189 1.52147e-06 0 0 0 0)
(0 -0.00266795 0 -0.00266795 -1.95797e-06 0 0 0 0)
(0 -0.00281369 0 -0.00281369 -1.14286e-06 0 0 0 0)
(0 -0.00286439 0 -0.00286439 -2.00503e-06 0 0 0 0)
(0 -0.00287385 0 -0.00287385 -2.36762e-06 0 0 0 0)
(0 -0.00286684 0 -0.00286684 -2.47215e-06 0 0 0 0)
(0 -0.00285372 0 -0.00285372 -2.43094e-06 0 0 0 0)
(0 -0.00283849 0 -0.00283849 -2.30187e-06 0 0 0 0)
(0 -0.00282248 0 -0.00282248 -2.12257e-06 0 0 0 0)
(0 -0.00280596 0 -0.00280596 -1.92147e-06 0 0 0 0)
(0 -0.00278887 0 -0.00278887 -1.71757e-06 0 0 0 0)
(0 -0.00277104 0 -0.00277104 -1.5219e-06 0 0 0 0)
(0 -0.00275233 0 -0.00275233 -1.34013e-06 0 0 0 0)
(0 -0.00273266 0 -0.00273266 -1.17462e-06 0 0 0 0)
(0 -0.00271194 0 -0.00271194 -1.02591e-06 0 0 0 0)
(0 -0.00269017 0 -0.00269017 -8.93454e-07 0 0 0 0)
(0 -0.00266733 0 -0.00266733 -7.76199e-07 0 0 0 0)
(0 -0.00264343 0 -0.00264343 -6.72838e-07 0 0 0 0)
(0 -0.00261852 0 -0.00261852 -5.81998e-07 0 0 0 0)
(0 -0.0025926 0 -0.0025926 -5.02336e-07 0 0 0 0)
(0 -0.00256573 0 -0.00256573 -4.32594e-07 0 0 0 0)
(0 -0.00253792 0 -0.00253792 -3.71615e-07 0 0 0 0)
(0 -0.00250923 0 -0.00250923 -3.18354e-07 0 0 0 0)
(0 -0.00247969 0 -0.00247969 -2.71878e-07 0 0 0 0)
(0 -0.00244932 0 -0.00244932 -2.31359e-07 0 0 0 0)
(0 -0.00241817 0 -0.00241817 -1.96065e-07 0 0 0 0)
(0 -0.00238627 0 -0.00238627 -1.65347e-07 0 0 0 0)
(0 -0.00235366 0 -0.00235366 -1.38645e-07 0 0 0 0)
(0 -0.00232035 0 -0.00232035 -1.15463e-07 0 0 0 0)
(0 -0.00228638 0 -0.00228638 -9.53506e-08 0 0 0 0)
(0 -0.00225177 0 -0.00225177 -7.7926e-08 0 0 0 0)
(0 -0.00221656 0 -0.00221656 -6.28581e-08 0 0 0 0)
(0 -0.00218076 0 -0.00218076 -4.98484e-08 0 0 0 0)
(0 -0.00214441 0 -0.00214441 -3.86364e-08 0 0 0 0)
(0 -0.00210752 0 -0.00210752 -2.89944e-08 0 0 0 0)
(0 -0.00207012 0 -0.00207012 -2.07227e-08 0 0 0 0)
(0 -0.00203223 0 -0.00203223 -1.36464e-08 0 0 0 0)
(0 -0.00199388 0 -0.00199388 -7.6117e-09 0 0 0 0)
(0 -0.00195508 0 -0.00195508 -2.48198e-09 0 0 0 0)
(0 -0.00191585 0 -0.00191585 1.8662e-09 0 0 0 0)
(0 -0.00187622 0 -0.00187622 5.5475e-09 0 0 0 0)
(0 -0.00183621 0 -0.00183621 8.67052e-09 0 0 0 0)
(0 -0.00179583 0 -0.00179583 1.13372e-08 0 0 0 0)
(0 -0.00175512 0 -0.00175512 1.36392e-08 0 0 0 0)
(0 -0.00171409 0 -0.00171409 1.56554e-08 0 0 0 0)
(0 -0.00167276 0 -0.00167276 1.74514e-08 0 0 0 0)
(0 -0.00163116 0 -0.00163116 1.90729e-08 0 0 0 0)
(0 -0.00158931 0 -0.00158931 2.05279e-08 0 0 0 0)
(0 -0.00154723 0 -0.00154723 2.17713e-08 0 0 0 0)
(0 -0.00150494 0 -0.00150494 2.27145e-08 0 0 0 0)
(0 -0.00146247 0 -0.00146247 2.32878e-08 0 0 0 0)
(0 -0.00141985 0 -0.00141985 2.3511e-08 0 0 0 0)
(0 -0.00137667 0 -0.00137667 2.34656e-08 0 0 0 0)
(1.80599e-17 -0.00133253 0 -0.00133253 2.3215e-08 0 0 0 0)
(0 -0.00128742 0 -0.00128742 2.28022e-08 0 0 0 0)
(0 -0.00124136 0 -0.00124136 2.22189e-08 0 0 0 0)
(-1.64317e-17 -0.00119437 0 -0.00119437 2.13575e-08 0 0 0 0)
(0 -0.00114647 0 -0.00114647 2.01148e-08 0 0 0 0)
(3.06909e-17 -0.0010977 0 -0.0010977 1.85023e-08 0 0 0 0)
(0 -0.00104811 0 -0.00104811 1.66079e-08 0 0 0 0)
(-2.85292e-17 -0.000997748 0 -0.000997748 1.455e-08 0 0 0 0)
(0 -0.000946695 0 -0.000946695 1.24639e-08 0 0 0 0)
(0 -0.000895036 0 -0.000895036 1.0475e-08 0 0 0 0)
(0 -0.000842874 0 -0.000842874 8.67243e-09 0 0 0 0)
(-2.42938e-17 -0.000790328 0 -0.000790328 7.08913e-09 0 0 0 0)
(0 -0.000737537 0 -0.000737537 5.72964e-09 0 0 0 0)
(0 -0.00068466 0 -0.00068466 4.59595e-09 0 0 0 0)
(0 -0.000631876 0 -0.000631876 3.66807e-09 0 0 0 0)
(0 -0.000579387 0 -0.000579387 2.91254e-09 0 0 0 0)
(0 -0.000527417 0 -0.000527417 2.30564e-09 0 0 0 0)
(0 -0.000476213 0 -0.000476213 1.82517e-09 0 0 0 0)
(0 -0.000426041 0 -0.000426041 1.44374e-09 0 0 0 0)
(1.6784e-17 -0.000377181 0 -0.000377181 1.13884e-09 0 0 0 0)
(0 -0.000329925 0 -0.000329925 8.97676e-10 0 0 0 0)
(1.52822e-17 -0.000284562 0 -0.000284562 7.08518e-10 0 0 0 0)
(0 -0.00024137 0 -0.00024137 5.58609e-10 0 0 0 0)
(0 -0.000200602 0 -0.000200602 4.3997e-10 0 0 0 0)
(0 -0.000162469 0 -0.000162469 3.47136e-10 0 0 0 0)
(0 -0.00012713 0 -0.00012713 2.74263e-10 0 0 0 0)
(-1.24429e-17 -9.46845e-05 0 -9.46845e-05 2.16631e-10 0 0 0 0)
(-1.20151e-17 -6.51708e-05 0 -6.51708e-05 1.71091e-10 0 0 0 0)
(0 -3.85699e-05 0 -3.85699e-05 1.35047e-10 0 0 0 0)
(0 -1.48171e-05 0 -1.48171e-05 1.06014e-10 0 0 0 0)
(0 6.18601e-06 0 6.18601e-06 8.24813e-11 0 0 0 0)
(0 2.45578e-05 0 2.45578e-05 6.45471e-11 0 0 0 0)
(0 4.04257e-05 0 4.04257e-05 4.43053e-11 0 0 0 0)
(0 5.39187e-05 0 5.39187e-05 3.43733e-11 0 0 0 0)
(0 6.51598e-05 0 6.51598e-05 4.69938e-11 0 0 0 0)
(0 7.42711e-05 0 7.42711e-05 3.83365e-11 0 0 0 0)
(0 8.13659e-05 0 8.13659e-05 1.07009e-11 0 0 0 0)
(0 8.65466e-05 0 8.65466e-05 5.19453e-12 0 0 0 0)
(0 8.99151e-05 0 8.99151e-05 5.01404e-12 0 0 0 0)
(0 9.15699e-05 0 9.15699e-05 -1.98962e-13 0 0 0 0)
(0 9.16065e-05 0 9.16065e-05 -7.68783e-13 0 0 0 0)
(1.27664e-17 9.0119e-05 0 9.0119e-05 2.52466e-14 0 0 0 0)
(-1.1827e-17 8.72004e-05 0 8.72004e-05 8.57595e-14 0 0 0 0)
(0 8.29444e-05 0 8.29444e-05 2.61505e-13 0 0 0 0)
(0 7.7447e-05 0 7.7447e-05 -1.04999e-12 0 0 0 0)
(8.89061e-18 7.08102e-05 0 7.08102e-05 2.13436e-12 0 0 0 0)
(0 6.31462e-05 0 6.31462e-05 -3.22169e-12 0 0 0 0)
(0 5.45848e-05 0 5.45848e-05 4.12515e-12 0 0 0 0)
(5.762e-18 4.52839e-05 0 4.52839e-05 -4.66241e-12 0 0 0 0)
(0 3.54462e-05 0 3.54462e-05 4.74018e-12 0 0 0 0)
(0 2.53537e-05 0 2.53537e-05 -4.28676e-12 0 0 0 0)
(0 1.54671e-05 0 1.54671e-05 3.32199e-12 0 0 0 0)
(0 6.00352e-06 0 6.00352e-06 -1.8985e-12 0 0 0 0)
(0 7.29119e-07 0 7.29119e-07 5.51597e-13 0 0 0 0)
(0 4.61396e-08 0 4.61396e-08 -2.29592e-13 0 0 0 0)
(0 1.67504e-09 0 1.67504e-09 2.13918e-13 0 0 0 0)
(0 1.29274e-10 0 1.29274e-10 -2.10393e-13 0 0 0 0)
(0 7.76934e-11 0 7.76934e-11 2.07398e-13 0 0 0 0)
(0 5.92102e-11 0 5.92102e-11 -2.04274e-13 0 0 0 0)
(0 4.51822e-11 0 4.51822e-11 2.0151e-13 0 0 0 0)
(0 3.4303e-11 0 3.4303e-11 -1.98618e-13 0 0 0 0)
(0 2.59017e-11 0 2.59017e-11 1.96041e-13 0 0 0 0)
(0 1.94479e-11 0 1.94479e-11 -1.93354e-13 0 0 0 0)
(0 1.45175e-11 0 1.45175e-11 1.90906e-13 0 0 0 0)
(-1.12435e-19 1.07731e-11 0 1.07731e-11 -1.88376e-13 0 0 0 0)
(0 7.94648e-12 0 7.94648e-12 1.86016e-13 0 0 0 0)
(0 5.8251e-12 0 5.8251e-12 -1.83583e-13 0 0 0 0)
(0 4.24329e-12 0 4.24329e-12 1.81278e-13 0 0 0 0)
(0 3.07131e-12 0 3.07131e-12 -1.78901e-13 0 0 0 0)
(0 2.20846e-12 0 2.20846e-12 1.76623e-13 0 0 0 0)
(0 1.57724e-12 0 1.57724e-12 -1.74273e-13 0 0 0 0)
(0 1.11892e-12 0 1.11892e-12 1.71995e-13 0 0 0 0)
(0 7.8858e-13 0 7.8858e-13 -1.69651e-13 0 0 0 0)
(0 5.51463e-13 0 5.51463e-13 1.67363e-13 0 0 0 0)
(0 3.82696e-13 0 3.82696e-13 -1.65004e-13 0 0 0 0)
(0 2.63791e-13 0 2.63791e-13 1.62694e-13 0 0 0 0)
(0 1.80587e-13 0 1.80587e-13 -1.6031e-13 0 0 0 0)
(0 1.22704e-13 0 1.22704e-13 1.57971e-13 0 0 0 0)
(0 8.26566e-14 0 8.26566e-14 -1.55559e-13 0 0 0 0)
(0 5.50899e-14 0 5.50899e-14 1.53181e-13 0 0 0 0)
(0 3.66126e-14 0 3.66126e-14 -1.50738e-13 0 0 0 0)
(0 2.40235e-14 0 2.40235e-14 1.48324e-13 0 0 0 0)
(0 1.56295e-14 0 1.56295e-14 -1.45845e-13 0 0 0 0)
(0 1.01959e-14 0 1.01959e-14 1.43393e-13 0 0 0 0)
(-1.50452e-19 6.45586e-15 0 6.45586e-15 -1.40864e-13 0 0 0 0)
(0 4.08841e-15 0 4.08841e-15 1.38386e-13 0 0 0 0)
(0 2.54289e-15 0 2.54289e-15 -1.35835e-13 0 0 0 0)
(0 1.52862e-15 0 1.52862e-15 1.33311e-13 0 0 0 0)
(0 1.01525e-15 0 1.01525e-15 -1.30727e-13 0 0 0 0)
(0 6.71577e-16 0 6.71577e-16 1.28171e-13 0 0 0 0)
(0 3.72651e-16 0 3.72651e-16 -1.25556e-13 0 0 0 0)
(0 1.81067e-16 0 1.81067e-16 1.22968e-13 0 0 0 0)
(0 1.55782e-16 0 1.55782e-16 -1.20325e-13 0 0 0 0)
(0 1.37113e-16 0 1.37113e-16 1.17706e-13 0 0 0 0)
(-1.23064e-19 -3.84575e-17 0 -3.84575e-17 -1.15034e-13 0 0 0 0)
(0 -5.40358e-17 0 -5.40358e-17 1.12387e-13 0 0 0 0)
(0 9.1322e-18 0 9.1322e-18 -1.0971e-13 0 0 0 0)
(1.15864e-19 5.35584e-17 0 5.35584e-17 1.07033e-13 0 0 0 0)
(0 7.16561e-17 0 7.16561e-17 -1.04328e-13 0 0 0 0)
(0 2.42635e-17 0 2.42635e-17 1.0162e-13 0 0 0 0)
(0 -4.45345e-17 0 -4.45345e-17 -9.88939e-14 0 0 0 0)
(0 -4.2018e-17 0 -4.2018e-17 9.61588e-14 0 0 0 0)
(0 1.0086e-17 0 1.0086e-17 -9.34073e-14 0 0 0 0)
(0 7.36905e-17 0 7.36905e-17 9.06459e-14 0 0 0 0)
(0 -1.76409e-17 0 -1.76409e-17 -8.78679e-14 0 0 0 0)
(0 -3.19902e-17 0 -3.19902e-17 8.50766e-14 0 0 0 0)
(0 3.89444e-17 0 3.89444e-17 -8.22701e-14 0 0 0 0)
(0 -6.81889e-17 0 -6.81889e-17 7.94933e-14 0 0 0 0)
(0 -8.73767e-17 0 -8.73767e-17 -8.76706e-14 0 0 0 0)
(0 -2.03553e-17 0 -2.03553e-17 8.67053e-14 0 0 0 0)
(0 3.43313e-17 0 3.43313e-17 -8.57788e-14 0 0 0 0)
(0 1.15938e-17 0 1.15938e-17 8.48416e-14 0 0 0 0)
(0 2.64698e-19 0 2.64698e-19 -8.3898e-14 0 0 0 0)
(0 3.56548e-17 0 3.56548e-17 8.29422e-14 0 0 0 0)
(0 -2.44581e-17 0 -2.44581e-17 -8.19797e-14 0 0 0 0)
(0 -1.19643e-17 0 -1.19643e-17 8.10031e-14 0 0 0 0)
(0 3.97311e-17 0 3.97311e-17 -8.00194e-14 0 0 0 0)
(0 -4.97632e-17 0 -4.97632e-17 7.90205e-14 0 0 0 0)
(0 -3.22137e-17 0 -3.22137e-17 -7.80144e-14 0 0 0 0)
(0 2.8455e-17 0 2.8455e-17 7.69893e-14 0 0 0 0)
(0 3.71106e-17 0 3.71106e-17 -7.59581e-14 0 0 0 0)
(0 6.35275e-18 0 6.35275e-18 7.49076e-14 0 0 0 0)
(0 -8.62915e-18 0 -8.62915e-18 -7.385e-14 0 0 0 0)
(0 -4.07635e-18 0 -4.07635e-18 7.27692e-14 0 0 0 0)
(0 -2.23934e-17 0 -2.23934e-17 -7.16828e-14 0 0 0 0)
(0 2.9302e-17 0 2.9302e-17 7.057e-14 0 0 0 0)
(0 2.19699e-18 0 2.19699e-18 -6.94762e-14 0 0 0 0)
(0 -6.69685e-18 0 -6.69685e-18 6.82945e-14 0 0 0 0)
(0 -3.89106e-18 0 -3.89106e-18 -6.71855e-14 0 0 0 0)
(0 -2.32669e-17 0 -2.32669e-17 6.59714e-14 0 0 0 0)
(0 5.02926e-18 0 5.02926e-18 -6.48179e-14 0 0 0 0)
(0 2.62316e-17 0 2.62316e-17 6.35625e-14 0 0 0 0)
(0 5.71747e-18 0 5.71747e-18 -6.23515e-14 0 0 0 0)
(0 1.98523e-18 0 1.98523e-18 6.10652e-14 0 0 0 0)
(0 -1.927e-17 0 -1.927e-17 -5.98035e-14 0 0 0 0)
(0 -1.16732e-17 0 -1.16732e-17 5.84502e-14 0 0 0 0)
(0 -3.944e-18 0 -3.944e-18 -5.71223e-14 0 0 0 0)
(0 -9.27501e-17 0 -9.27501e-17 5.57367e-14 0 0 0 0)
(0 -3.01226e-16 0 -3.01226e-16 -5.43194e-14 0 0 0 0)
(0 -4.23516e-19 0 -4.23516e-19 5.28708e-14 0 0 0 0)
(0 3.00273e-16 0 3.00273e-16 -5.13473e-14 0 0 0 0)
(0 8.50474e-17 0 8.50474e-17 4.98504e-14 0 0 0 0)
(0 -1.48231e-18 0 -1.48231e-18 -4.82383e-14 0 0 0 0)
(0 8.89385e-18 0 8.89385e-18 4.6609e-14 0 0 0 0)
(0 5.55071e-17 0 5.55071e-17 -4.48801e-14 0 0 0 0)
(0 2.12552e-17 0 2.12552e-17 4.31748e-14 0 0 0 0)
(0 -2.67609e-17 0 -2.67609e-17 -4.12655e-14 0 0 0 0)
(0 -8.21887e-17 0 -8.21887e-17 3.94188e-14 0 0 0 0)
(0 5.37337e-18 0 5.37337e-18 -3.72866e-14 0 0 0 0)
(0 1.17685e-16 0 1.17685e-16 3.53154e-14 0 0 0 0)
(0 6.07481e-17 0 6.07481e-17 -3.28975e-14 0 0 0 0)
(0 -3.04138e-17 0 -3.04138e-17 3.06051e-14 0 0 0 0)
(0 -4.44428e-17 0 -4.44428e-17 -2.7784e-14 0 0 0 0)
(0 -4.27222e-17 0 -4.27222e-17 2.50777e-14 0 0 0 0)
(0 -3.21608e-17 0 -3.21608e-17 -2.15726e-14 0 0 0 0)
(0 2.68668e-17 0 2.68668e-17 1.79916e-14 0 0 0 0)
(0 -3.83547e-17 0 -3.83547e-17 -1.28948e-14 0 0 0 0)
(0 -6.17805e-17 0 -6.17805e-17 4.25203e-15 0 0 0 0)
)
;

boundaryField
{
    inandouthalf11
    {
        type            cyclic;
    }
    inandouthalf12
    {
        type            cyclic;
    }
    inandouthalf21
    {
        type            cyclic;
    }
    inandouthalf22
    {
        type            cyclic;
    }
    inandouthalf31
    {
        type            cyclic;
    }
    inandouthalf32
    {
        type            cyclic;
    }
    inandouthalf41
    {
        type            cyclic;
    }
    inandouthalf42
    {
        type            cyclic;
    }
    top
    {
        type            symmetryPlane;
    }
    walls
    {
        type            zeroGradient;
    }
    frontAndBackPlanes
    {
        type            empty;
    }
}


// ************************************************************************* //
