/*--------------------------------*- C++ -*----------------------------------*\
| =========                 |                                                 |
| \\      /  F ield         | OpenFOAM: The Open Source CFD Toolbox           |
|  \\    /   O peration     | Version:  2.4.x                                 |
|   \\  /    A nd           | Web:      www.OpenFOAM.org                      |
|    \\/     M anipulation  |                                                 |
\*---------------------------------------------------------------------------*/
FoamFile
{
    version     2.0;
    format      ascii;
    class       volScalarField;
    location    "6.15";
    object      Theta_0;
}
// * * * * * * * * * * * * * * * * * * * * * * * * * * * * * * * * * * * * * //

dimensions      [0 2 -2 0 0 0 0];

internalField   nonuniform List<scalar> 
360
(
6.66551e-21
6.67547e-21
6.67147e-21
6.67011e-21
6.67071e-21
6.67129e-21
6.6715e-21
6.67158e-21
6.67166e-21
6.67177e-21
6.67192e-21
6.67208e-21
6.67223e-21
6.67238e-21
6.67252e-21
6.67266e-21
6.67281e-21
6.67296e-21
6.67312e-21
6.67327e-21
6.67342e-21
6.67358e-21
6.67373e-21
6.67389e-21
6.67404e-21
6.67419e-21
6.67433e-21
6.67447e-21
6.6746e-21
6.67474e-21
6.67488e-21
6.67503e-21
6.6752e-21
6.67541e-21
6.67565e-21
6.67593e-21
6.67626e-21
6.67661e-21
6.67698e-21
6.67732e-21
6.6776e-21
6.67777e-21
6.67776e-21
6.67757e-21
6.67718e-21
6.67661e-21
6.67591e-21
6.67521e-21
6.67461e-21
6.67427e-21
6.67429e-21
6.67487e-21
6.67627e-21
6.67889e-21
6.68341e-21
6.69087e-21
6.70262e-21
6.7195e-21
6.73936e-21
6.75369e-21
6.74968e-21
6.72386e-21
6.6918e-21
6.67108e-21
6.66335e-21
6.66162e-21
6.66137e-21
6.66135e-21
6.66134e-21
6.66134e-21
6.66134e-21
6.66134e-21
6.66134e-21
6.66134e-21
6.66134e-21
6.66134e-21
6.66134e-21
6.66134e-21
6.66133e-21
6.66133e-21
6.66133e-21
6.66133e-21
6.66133e-21
6.66133e-21
6.66133e-21
6.66133e-21
6.66133e-21
6.66132e-21
6.66132e-21
6.66132e-21
6.66132e-21
6.66132e-21
6.66132e-21
6.66132e-21
6.66132e-21
6.66131e-21
6.66131e-21
6.66131e-21
6.66131e-21
6.66131e-21
6.66131e-21
6.6613e-21
6.6613e-21
6.6613e-21
6.6613e-21
6.6613e-21
6.6613e-21
6.66129e-21
6.66129e-21
6.66129e-21
6.66129e-21
6.66129e-21
6.66128e-21
6.66128e-21
6.66128e-21
6.66128e-21
6.66127e-21
6.66127e-21
6.66127e-21
6.66127e-21
6.66126e-21
6.66126e-21
6.66126e-21
6.66126e-21
6.66125e-21
6.66125e-21
6.66125e-21
6.66124e-21
6.66124e-21
6.66123e-21
6.66123e-21
6.66124e-21
9.40306e-21
3.92259e-20
1.98395e-19
1.09524e-18
6.61137e-18
4.40771e-17
3.28908e-16
2.78799e-15
2.72274e-14
3.1073e-13
4.21653e-12
6.92399e-11
1.46857e-09
6.89584e-08
3.69611e-06
6.66308e-05
0.000725567
0.00209061
0.00282787
0.00328696
0.00363432
0.00392439
0.00417447
0.00439035
0.00457495
0.00473103
0.00486147
0.00496927
0.00505728
0.00512803
0.0051838
0.00522652
0.00525785
0.00527917
0.00529168
0.00529636
0.00529407
0.00528553
0.00527138
0.00525216
0.00522834
0.00520034
0.00516856
0.00513332
0.00509494
0.0050537
0.00500987
0.0049637
0.00491541
0.00486523
0.00481337
0.00476001
0.00470534
0.00464955
0.0045928
0.00453525
0.00447706
0.00441836
0.00435929
0.00429999
0.00424056
0.00418112
0.00412177
0.0040626
0.00400368
0.00394509
0.00388688
0.00382909
0.00377175
0.00371431
0.00365621
0.00359747
0.00353806
0.00347798
0.00341717
0.00335558
0.00329314
0.00322976
0.00316532
0.00309971
0.0030328
0.00296445
0.00289453
0.00282286
0.00274929
0.00267364
0.00259573
0.00251535
0.00243228
0.00234629
0.00225709
0.00216438
0.00206783
0.00196702
0.00186148
0.00175065
0.00163383
0.00151014
0.00137842
0.00123713
0.00108401
0.000915568
0.000725658
0.000500936
0
0
0
0
0
0
0
0
0
0
0
0
0
0
0
0
0
0
0
0
0
0
0
0
0
0
0
0
0
0
0
0
0
0
0
0
0
0
0
0
0
0
0
0
0
0
0
0
0
0
0
0
0
0
0
0
0
0
0
0
0
0
0
0
0
0
0
0
0
0
0
0
0
0
0
0
0
0
0
0
0
0
0
0
0
0
0
0
0
0
0
0
0
0
0
0
0
0
0
0
0
0
0
0
0
0
0
0
0
0
0
0
0
0
0
0
0
0
0
0
0
0
0
0
)
;

boundaryField
{
    inandouthalf11
    {
        type            cyclic;
    }
    inandouthalf12
    {
        type            cyclic;
    }
    inandouthalf21
    {
        type            cyclic;
    }
    inandouthalf22
    {
        type            cyclic;
    }
    inandouthalf31
    {
        type            cyclic;
    }
    inandouthalf32
    {
        type            cyclic;
    }
    inandouthalf41
    {
        type            cyclic;
    }
    inandouthalf42
    {
        type            cyclic;
    }
    top
    {
        type            symmetryPlane;
    }
    walls
    {
        type            zeroGradient;
    }
    frontAndBackPlanes
    {
        type            empty;
    }
}


// ************************************************************************* //
