/*--------------------------------*- C++ -*----------------------------------*\
| =========                 |                                                 |
| \\      /  F ield         | OpenFOAM: The Open Source CFD Toolbox           |
|  \\    /   O peration     | Version:  2.4.x                                 |
|   \\  /    A nd           | Web:      www.OpenFOAM.org                      |
|    \\/     M anipulation  |                                                 |
\*---------------------------------------------------------------------------*/
FoamFile
{
    version     2.0;
    format      ascii;
    class       volVectorField;
    location    "6.15";
    object      Ua;
}
// * * * * * * * * * * * * * * * * * * * * * * * * * * * * * * * * * * * * * //

dimensions      [0 1 -1 0 0 0 0];

internalField   nonuniform List<vector> 
360
(
(-9.60448e-33 -9.40139e-32 0)
(-2.51607e-08 -1.74691e-07 0)
(-5.34237e-08 -3.21156e-07 0)
(-7.85193e-08 -4.4572e-07 0)
(-1.03604e-07 -5.73263e-07 0)
(-1.29784e-07 -7.06502e-07 0)
(-1.56685e-07 -8.41941e-07 0)
(-1.83981e-07 -9.78009e-07 0)
(-2.11595e-07 -1.11451e-06 0)
(-2.39558e-07 -1.25163e-06 0)
(-2.67921e-07 -1.38964e-06 0)
(-2.96718e-07 -1.52869e-06 0)
(-3.25958e-07 -1.66878e-06 0)
(-3.55632e-07 -1.80983e-06 0)
(-3.85734e-07 -1.95178e-06 0)
(-4.16267e-07 -2.09463e-06 0)
(-4.47239e-07 -2.23839e-06 0)
(-4.78661e-07 -2.38309e-06 0)
(-5.10538e-07 -2.52873e-06 0)
(-5.42879e-07 -2.67533e-06 0)
(-5.75687e-07 -2.82287e-06 0)
(-6.08965e-07 -2.97134e-06 0)
(-6.42722e-07 -3.12075e-06 0)
(-6.76962e-07 -3.27109e-06 0)
(-7.11686e-07 -3.42235e-06 0)
(-7.46893e-07 -3.57448e-06 0)
(-7.8258e-07 -3.72744e-06 0)
(-8.18749e-07 -3.88122e-06 0)
(-8.55403e-07 -4.0358e-06 0)
(-8.92542e-07 -4.19116e-06 0)
(-9.30175e-07 -4.34728e-06 0)
(-9.68322e-07 -4.50423e-06 0)
(-1.00701e-06 -4.66209e-06 0)
(-1.04629e-06 -4.82102e-06 0)
(-1.08621e-06 -4.98121e-06 0)
(-1.12683e-06 -5.14284e-06 0)
(-1.16821e-06 -5.30613e-06 0)
(-1.21043e-06 -5.47128e-06 0)
(-1.25351e-06 -5.63845e-06 0)
(-1.29746e-06 -5.80754e-06 0)
(-1.34223e-06 -5.97833e-06 0)
(-1.3877e-06 -6.15037e-06 0)
(-1.43369e-06 -6.32284e-06 0)
(-1.47995e-06 -6.49483e-06 0)
(-1.5262e-06 -6.66526e-06 0)
(-1.57215e-06 -6.83302e-06 0)
(-1.61756e-06 -6.99723e-06 0)
(-1.66227e-06 -7.15735e-06 0)
(-1.70633e-06 -7.3135e-06 0)
(-1.75e-06 -7.46672e-06 0)
(-1.79378e-06 -7.6187e-06 0)
(-1.83845e-06 -7.77209e-06 0)
(-1.88512e-06 -7.93068e-06 0)
(-1.93534e-06 -8.09959e-06 0)
(-1.99118e-06 -8.28553e-06 0)
(-2.05532e-06 -8.49723e-06 0)
(-2.13103e-06 -8.74522e-06 0)
(-2.22169e-06 -9.04037e-06 0)
(-2.32936e-06 -9.38957e-06 0)
(-2.45206e-06 -9.78655e-06 0)
(-2.58064e-06 -1.0202e-05 0)
(-2.69875e-06 -1.05826e-05 0)
(-2.78961e-06 -1.08738e-05 0)
(-2.84617e-06 -1.10533e-05 0)
(-2.87417e-06 -1.11408e-05 0)
(-2.88523e-06 -1.11748e-05 0)
(-2.88879e-06 -1.11855e-05 0)
(-2.88976e-06 -1.11884e-05 0)
(-2.89001e-06 -1.11891e-05 0)
(-2.89006e-06 -1.11893e-05 0)
(-2.89008e-06 -1.11893e-05 0)
(-2.89008e-06 -1.11893e-05 0)
(-2.89008e-06 -1.11893e-05 0)
(-2.89008e-06 -1.11893e-05 0)
(-2.89008e-06 -1.11893e-05 0)
(-2.89008e-06 -1.11893e-05 0)
(-2.89008e-06 -1.11893e-05 0)
(-2.89008e-06 -1.11893e-05 0)
(-2.89008e-06 -1.11893e-05 0)
(-2.89008e-06 -1.11893e-05 0)
(-2.89008e-06 -1.11893e-05 0)
(-2.89008e-06 -1.11893e-05 0)
(-2.89008e-06 -1.11893e-05 0)
(-2.89008e-06 -1.11893e-05 0)
(-2.89008e-06 -1.11893e-05 0)
(-2.89008e-06 -1.11893e-05 0)
(-2.89008e-06 -1.11893e-05 0)
(-2.89008e-06 -1.11893e-05 0)
(-2.89008e-06 -1.11893e-05 0)
(-2.89008e-06 -1.11893e-05 0)
(-2.89008e-06 -1.11893e-05 0)
(-2.89008e-06 -1.11893e-05 0)
(-2.89008e-06 -1.11893e-05 0)
(-2.89008e-06 -1.11893e-05 0)
(-2.89008e-06 -1.11893e-05 0)
(-2.89009e-06 -1.11893e-05 0)
(-2.89009e-06 -1.11893e-05 0)
(-2.89009e-06 -1.11893e-05 0)
(-2.89009e-06 -1.11893e-05 0)
(-2.89009e-06 -1.11893e-05 0)
(-2.89009e-06 -1.11893e-05 0)
(-2.89009e-06 -1.11893e-05 0)
(-2.89009e-06 -1.11893e-05 0)
(-2.89009e-06 -1.11893e-05 0)
(-2.89009e-06 -1.11893e-05 0)
(-2.89009e-06 -1.11893e-05 0)
(-2.89009e-06 -1.11893e-05 0)
(-2.89009e-06 -1.11893e-05 0)
(-2.89009e-06 -1.11893e-05 0)
(-2.89009e-06 -1.11893e-05 0)
(-2.89009e-06 -1.11893e-05 0)
(-2.89009e-06 -1.11893e-05 0)
(-2.89009e-06 -1.11893e-05 0)
(-2.89009e-06 -1.11893e-05 0)
(-2.89009e-06 -1.11893e-05 0)
(-2.89009e-06 -1.11893e-05 0)
(-2.89009e-06 -1.11893e-05 0)
(-2.89009e-06 -1.11893e-05 0)
(-2.89009e-06 -1.11893e-05 0)
(-2.89009e-06 -1.11893e-05 0)
(-2.89009e-06 -1.11893e-05 0)
(-2.89009e-06 -1.11893e-05 0)
(-2.89009e-06 -1.11893e-05 0)
(-2.89009e-06 -1.11893e-05 0)
(-2.89009e-06 -1.11893e-05 0)
(-2.89009e-06 -1.11893e-05 0)
(-2.89009e-06 -1.11893e-05 0)
(-2.89009e-06 -1.11893e-05 0)
(-2.89009e-06 -1.11893e-05 0)
(-2.89009e-06 -1.11893e-05 0)
(-2.89009e-06 -1.11893e-05 0)
(-2.89009e-06 -1.11893e-05 0)
(-2.89009e-06 -1.11893e-05 0)
(-2.89009e-06 -1.11893e-05 0)
(-2.8901e-06 -1.11893e-05 0)
(-2.8901e-06 -1.11893e-05 0)
(-2.8901e-06 -1.11893e-05 0)
(-2.8901e-06 -1.11893e-05 0)
(-2.8901e-06 -1.11893e-05 0)
(-2.8901e-06 -1.11893e-05 0)
(-2.8901e-06 -1.11893e-05 0)
(-2.8901e-06 -1.11893e-05 0)
(-2.8901e-06 -1.11893e-05 0)
(-2.8901e-06 -1.11893e-05 0)
(-2.8901e-06 -1.11893e-05 0)
(-2.8901e-06 -1.11893e-05 0)
(-2.8901e-06 -1.11893e-05 0)
(-2.8901e-06 -1.11893e-05 0)
(-0.0347383 -6.77331e-05 0)
(-0.129797 -0.000431336 0)
(-0.207404 -0.000572828 0)
(-0.267479 -0.000687563 0)
(-0.315523 -0.000792231 0)
(-0.354977 -0.000886754 0)
(-0.388084 -0.000969742 0)
(-0.416387 -0.00104049 0)
(-0.440982 -0.00109848 0)
(-0.462663 -0.00114342 0)
(-0.482016 -0.00117536 0)
(-0.499476 -0.00119458 0)
(-0.515373 -0.00120154 0)
(-0.529962 -0.00119679 0)
(-0.543439 -0.00118094 0)
(-0.555962 -0.00115455 0)
(-0.567655 -0.00111821 0)
(-0.578621 -0.00107245 0)
(-0.588942 -0.00101776 0)
(-0.598687 -0.000954612 0)
(-0.607913 -0.000883424 0)
(-0.616669 -0.00080459 0)
(-0.624995 -0.000718471 0)
(-0.632925 -0.000625401 0)
(-0.64049 -0.000525685 0)
(-0.647714 -0.000419609 0)
(-0.654621 -0.000307435 0)
(-0.661228 -0.000189405 0)
(-0.667553 -6.57458e-05 0)
(-0.67361 6.33344e-05 0)
(-0.679412 0.00019764 0)
(-0.684971 0.00033699 0)
(-0.690296 0.000481212 0)
(-0.695398 0.000630143 0)
(-0.700283 0.000783626 0)
(-0.704959 0.00094151 0)
(-0.709433 0.00110364 0)
(-0.71371 0.00126988 0)
(-0.717797 0.00144006 0)
(-0.721697 0.00161404 0)
(-0.725417 0.00179164 0)
(-0.72896 0.00197267 0)
(-0.732331 0.00215688 0)
(-0.735533 0.00234394 0)
(-0.738571 0.00253341 0)
(-0.741448 0.00272465 0)
(-0.744168 0.00291688 0)
(-0.746735 0.00310906 0)
(-0.749152 0.00329994 0)
(-0.751424 0.00348808 0)
(-0.753555 0.00367196 0)
(-0.75555 0.00385023 0)
(-0.757413 0.00402194 0)
(-0.759168 0.00418797 0)
(-0.76083 0.0043488 0)
(-0.762402 0.00450307 0)
(-0.763882 0.00464912 0)
(-0.765273 0.00478486 0)
(-0.766578 0.00490833 0)
(-0.767801 0.00501818 0)
(-0.768948 0.00511367 0)
(-0.770025 0.00519472 0)
(-0.771037 0.0052619 0)
(-0.771993 0.0053162 0)
(-0.772898 0.00535896 0)
(-0.77376 0.0053914 0)
(-0.774586 0.00541471 0)
(-0.77538 0.00543021 0)
(-0.776149 0.00543889 0)
(-0.776898 0.00544157 0)
(-0.777631 0.00543905 0)
(-0.778352 0.00543197 0)
(-0.779064 0.00542075 0)
(-0.779771 0.0054056 0)
(-0.780475 0.00538692 0)
(-0.781178 0.0053649 0)
(-0.781882 0.00533951 0)
(-0.782588 0.00531085 0)
(-0.783295 0.00527896 0)
(-0.784005 0.00524361 0)
(-0.784716 0.00520455 0)
(-0.785427 0.00516107 0)
(-0.786136 0.00511268 0)
(-0.78684 0.00505721 0)
(-0.787534 0.00499355 0)
(-0.788209 0.00491679 0)
(-0.788844 0.00482896 0)
(-0.789448 0.00470053 0)
(-0.790232 0.00448456 0)
(-0.88641 0.00091905 0)
(-0.887791 2.7015e-05 0)
(-0.886615 0.0075412 0)
(-0.885144 -0.00656082 0)
(-0.88372 -0.0380293 0)
(-0.882212 -0.0396791 0)
(-0.880734 -0.0395689 0)
(-0.879188 -0.0395785 0)
(-0.877586 -0.0395789 0)
(-0.875939 -0.03958 0)
(-0.87426 -0.039581 0)
(-0.872564 -0.0395818 0)
(-0.870869 -0.0395823 0)
(-0.869195 -0.0395824 0)
(-0.86757 -0.0395818 0)
(-0.866029 -0.0395802 0)
(-0.864623 -0.0395768 0)
(-0.863455 -0.0395684 0)
(-0.862894 -0.0395572 0)
(-0.862803 -0.0395506 0)
(-0.8628 -0.0395495 0)
(-0.8628 -0.0395495 0)
(-0.862799 -0.0395495 0)
(-0.862799 -0.0395495 0)
(-0.862799 -0.0395495 0)
(-0.862799 -0.0395495 0)
(-0.862799 -0.0395495 0)
(-0.862799 -0.0395495 0)
(-0.862799 -0.0395495 0)
(-0.862799 -0.0395495 0)
(-0.862799 -0.0395495 0)
(-0.862799 -0.0395495 0)
(-0.862799 -0.0395495 0)
(-0.862799 -0.0395495 0)
(-0.862799 -0.0395495 0)
(-0.862799 -0.0395495 0)
(-0.862799 -0.0395495 0)
(-0.862799 -0.0395495 0)
(-0.862799 -0.0395495 0)
(-0.862799 -0.0395495 0)
(-0.862799 -0.0395495 0)
(-0.862799 -0.0395495 0)
(-0.862799 -0.0395495 0)
(-0.862799 -0.0395495 0)
(-0.862799 -0.0395495 0)
(-0.862799 -0.0395495 0)
(-0.862799 -0.0395495 0)
(-0.862799 -0.0395495 0)
(-0.862799 -0.0395495 0)
(-0.862799 -0.0395495 0)
(-0.862799 -0.0395495 0)
(-0.862799 -0.0395495 0)
(-0.862799 -0.0395495 0)
(-0.862799 -0.0395495 0)
(-0.862799 -0.0395495 0)
(-0.862799 -0.0395495 0)
(-0.862799 -0.0395495 0)
(-0.862799 -0.0395495 0)
(-0.862799 -0.0395495 0)
(-0.862799 -0.0395495 0)
(-0.862799 -0.0395495 0)
(-0.862799 -0.0395495 0)
(-0.862799 -0.0395495 0)
(-0.862799 -0.0395495 0)
(-0.862799 -0.0395495 0)
(-0.862799 -0.0395495 0)
(-0.862799 -0.0395495 0)
(-0.862799 -0.0395495 0)
(-0.862799 -0.0395495 0)
(-0.862799 -0.0395495 0)
(-0.862799 -0.0395495 0)
(-0.862799 -0.0395495 0)
(-0.862799 -0.0395495 0)
(-0.862799 -0.0395495 0)
(-0.862799 -0.0395495 0)
(-0.862799 -0.0395495 0)
(-0.862799 -0.0395495 0)
(-0.862799 -0.0395495 0)
(-0.862799 -0.0395495 0)
(-0.862799 -0.0395495 0)
(-0.862799 -0.0395495 0)
(-0.862799 -0.0395495 0)
(-0.862799 -0.0395495 0)
(-0.862799 -0.0395495 0)
(-0.862799 -0.0395495 0)
(-0.862799 -0.0395495 0)
(-0.862799 -0.0395495 0)
(-0.862799 -0.0395495 0)
(-0.862799 -0.0395495 0)
(-0.862799 -0.0395495 0)
(-0.862799 -0.0395495 0)
(-0.862799 -0.0395495 0)
(-0.862799 -0.0395495 0)
(-0.862799 -0.0395495 0)
(-0.862799 -0.0395495 0)
(-0.862799 -0.0395495 0)
(-0.862799 -0.0395495 0)
(-0.862799 -0.0395495 0)
(-0.862799 -0.0395495 0)
(-0.862799 -0.0395495 0)
(-0.862799 -0.0395495 0)
(-0.862799 -0.0395495 0)
(-0.862799 -0.0395495 0)
(-0.862799 -0.0395495 0)
(-0.862799 -0.0395495 0)
(-0.862799 -0.0395495 0)
(-0.862799 -0.0395495 0)
(-0.862799 -0.0395495 0)
(-0.862799 -0.0395495 0)
(-0.862799 -0.0395495 0)
(-0.862799 -0.0395495 0)
(-0.862799 -0.0395495 0)
(-0.862799 -0.0395495 0)
(-0.862799 -0.0395495 0)
(-0.862799 -0.0395495 0)
(-0.862799 -0.0395495 0)
(-0.862799 -0.0395495 0)
(-0.862799 -0.0395495 0)
(-0.862799 -0.0395495 0)
(-0.862799 -0.0395493 0)
(-0.862799 -0.0395408 0)
(-0.862802 -0.0391964 0)
(-0.862874 -0.0224993 0)
)
;

boundaryField
{
    inandouthalf11
    {
        type            cyclic;
    }
    inandouthalf12
    {
        type            cyclic;
    }
    inandouthalf21
    {
        type            cyclic;
    }
    inandouthalf22
    {
        type            cyclic;
    }
    inandouthalf31
    {
        type            cyclic;
    }
    inandouthalf32
    {
        type            cyclic;
    }
    inandouthalf41
    {
        type            cyclic;
    }
    inandouthalf42
    {
        type            cyclic;
    }
    top
    {
        type            symmetryPlane;
    }
    walls
    {
        type            fixedValue;
        value           uniform (0 0 0);
    }
    frontAndBackPlanes
    {
        type            empty;
    }
}


// ************************************************************************* //
