/*--------------------------------*- C++ -*----------------------------------*\
| =========                 |                                                 |
| \\      /  F ield         | OpenFOAM: The Open Source CFD Toolbox           |
|  \\    /   O peration     | Version:  2.4.x                                 |
|   \\  /    A nd           | Web:      www.OpenFOAM.org                      |
|    \\/     M anipulation  |                                                 |
\*---------------------------------------------------------------------------*/
FoamFile
{
    version     2.0;
    format      ascii;
    class       volVectorField;
    location    "6.15";
    object      Ua_0;
}
// * * * * * * * * * * * * * * * * * * * * * * * * * * * * * * * * * * * * * //

dimensions      [0 1 -1 0 0 0 0];

internalField   nonuniform List<vector> 
360
(
(-9.60499e-33 -9.40127e-32 0)
(-2.51643e-08 -1.74705e-07 0)
(-5.34316e-08 -3.21183e-07 0)
(-7.8531e-08 -4.45759e-07 0)
(-1.03619e-07 -5.73313e-07 0)
(-1.29803e-07 -7.06564e-07 0)
(-1.56709e-07 -8.42015e-07 0)
(-1.84008e-07 -9.78096e-07 0)
(-2.11627e-07 -1.11461e-06 0)
(-2.39593e-07 -1.25174e-06 0)
(-2.6796e-07 -1.38976e-06 0)
(-2.96761e-07 -1.52883e-06 0)
(-3.26005e-07 -1.66893e-06 0)
(-3.55683e-07 -1.80999e-06 0)
(-3.8579e-07 -1.95196e-06 0)
(-4.16326e-07 -2.09481e-06 0)
(-4.47303e-07 -2.23859e-06 0)
(-4.78729e-07 -2.3833e-06 0)
(-5.1061e-07 -2.52896e-06 0)
(-5.42956e-07 -2.67557e-06 0)
(-5.75768e-07 -2.82312e-06 0)
(-6.09051e-07 -2.9716e-06 0)
(-6.42812e-07 -3.12102e-06 0)
(-6.77056e-07 -3.27138e-06 0)
(-7.11785e-07 -3.42265e-06 0)
(-7.46996e-07 -3.57479e-06 0)
(-7.82688e-07 -3.72777e-06 0)
(-8.18861e-07 -3.88156e-06 0)
(-8.55519e-07 -4.03616e-06 0)
(-8.92663e-07 -4.19152e-06 0)
(-9.303e-07 -4.34766e-06 0)
(-9.68451e-07 -4.50463e-06 0)
(-1.00715e-06 -4.6625e-06 0)
(-1.04643e-06 -4.82144e-06 0)
(-1.08635e-06 -4.98165e-06 0)
(-1.12698e-06 -5.14329e-06 0)
(-1.16837e-06 -5.3066e-06 0)
(-1.21059e-06 -5.47176e-06 0)
(-1.25368e-06 -5.63895e-06 0)
(-1.29763e-06 -5.80806e-06 0)
(-1.3424e-06 -5.97886e-06 0)
(-1.38788e-06 -6.15091e-06 0)
(-1.43388e-06 -6.3234e-06 0)
(-1.48014e-06 -6.49539e-06 0)
(-1.52639e-06 -6.66583e-06 0)
(-1.57234e-06 -6.83359e-06 0)
(-1.61775e-06 -6.9978e-06 0)
(-1.66246e-06 -7.15791e-06 0)
(-1.70652e-06 -7.31407e-06 0)
(-1.75019e-06 -7.46729e-06 0)
(-1.79398e-06 -7.61928e-06 0)
(-1.83865e-06 -7.77269e-06 0)
(-1.88534e-06 -7.93132e-06 0)
(-1.93558e-06 -8.10028e-06 0)
(-1.99145e-06 -8.28632e-06 0)
(-2.05563e-06 -8.49814e-06 0)
(-2.13139e-06 -8.7463e-06 0)
(-2.22211e-06 -9.04167e-06 0)
(-2.32985e-06 -9.39109e-06 0)
(-2.4526e-06 -9.78823e-06 0)
(-2.58117e-06 -1.02036e-05 0)
(-2.6992e-06 -1.0584e-05 0)
(-2.78992e-06 -1.08748e-05 0)
(-2.84634e-06 -1.10538e-05 0)
(-2.87425e-06 -1.11411e-05 0)
(-2.88525e-06 -1.11749e-05 0)
(-2.8888e-06 -1.11855e-05 0)
(-2.88977e-06 -1.11884e-05 0)
(-2.89001e-06 -1.11891e-05 0)
(-2.89006e-06 -1.11893e-05 0)
(-2.89008e-06 -1.11893e-05 0)
(-2.89008e-06 -1.11893e-05 0)
(-2.89008e-06 -1.11893e-05 0)
(-2.89008e-06 -1.11893e-05 0)
(-2.89008e-06 -1.11893e-05 0)
(-2.89008e-06 -1.11893e-05 0)
(-2.89008e-06 -1.11893e-05 0)
(-2.89008e-06 -1.11893e-05 0)
(-2.89008e-06 -1.11893e-05 0)
(-2.89008e-06 -1.11893e-05 0)
(-2.89008e-06 -1.11893e-05 0)
(-2.89008e-06 -1.11893e-05 0)
(-2.89008e-06 -1.11893e-05 0)
(-2.89008e-06 -1.11893e-05 0)
(-2.89008e-06 -1.11893e-05 0)
(-2.89008e-06 -1.11893e-05 0)
(-2.89008e-06 -1.11893e-05 0)
(-2.89008e-06 -1.11893e-05 0)
(-2.89008e-06 -1.11893e-05 0)
(-2.89008e-06 -1.11893e-05 0)
(-2.89008e-06 -1.11893e-05 0)
(-2.89008e-06 -1.11893e-05 0)
(-2.89008e-06 -1.11893e-05 0)
(-2.89008e-06 -1.11893e-05 0)
(-2.89008e-06 -1.11893e-05 0)
(-2.89009e-06 -1.11893e-05 0)
(-2.89009e-06 -1.11893e-05 0)
(-2.89009e-06 -1.11893e-05 0)
(-2.89009e-06 -1.11893e-05 0)
(-2.89009e-06 -1.11893e-05 0)
(-2.89009e-06 -1.11893e-05 0)
(-2.89009e-06 -1.11893e-05 0)
(-2.89009e-06 -1.11893e-05 0)
(-2.89009e-06 -1.11893e-05 0)
(-2.89009e-06 -1.11893e-05 0)
(-2.89009e-06 -1.11893e-05 0)
(-2.89009e-06 -1.11893e-05 0)
(-2.89009e-06 -1.11893e-05 0)
(-2.89009e-06 -1.11893e-05 0)
(-2.89009e-06 -1.11893e-05 0)
(-2.89009e-06 -1.11893e-05 0)
(-2.89009e-06 -1.11893e-05 0)
(-2.89009e-06 -1.11893e-05 0)
(-2.89009e-06 -1.11893e-05 0)
(-2.89009e-06 -1.11893e-05 0)
(-2.89009e-06 -1.11893e-05 0)
(-2.89009e-06 -1.11893e-05 0)
(-2.89009e-06 -1.11893e-05 0)
(-2.89009e-06 -1.11893e-05 0)
(-2.89009e-06 -1.11893e-05 0)
(-2.89009e-06 -1.11893e-05 0)
(-2.89009e-06 -1.11893e-05 0)
(-2.89009e-06 -1.11893e-05 0)
(-2.89009e-06 -1.11893e-05 0)
(-2.89009e-06 -1.11893e-05 0)
(-2.89009e-06 -1.11893e-05 0)
(-2.89009e-06 -1.11893e-05 0)
(-2.89009e-06 -1.11893e-05 0)
(-2.89009e-06 -1.11893e-05 0)
(-2.89009e-06 -1.11893e-05 0)
(-2.89009e-06 -1.11893e-05 0)
(-2.89009e-06 -1.11893e-05 0)
(-2.89009e-06 -1.11893e-05 0)
(-2.89009e-06 -1.11893e-05 0)
(-2.8901e-06 -1.11893e-05 0)
(-2.8901e-06 -1.11893e-05 0)
(-2.8901e-06 -1.11893e-05 0)
(-2.8901e-06 -1.11893e-05 0)
(-2.8901e-06 -1.11893e-05 0)
(-2.8901e-06 -1.11893e-05 0)
(-2.8901e-06 -1.11893e-05 0)
(-2.8901e-06 -1.11893e-05 0)
(-2.8901e-06 -1.11893e-05 0)
(-2.8901e-06 -1.11893e-05 0)
(-2.8901e-06 -1.11893e-05 0)
(-2.8901e-06 -1.11893e-05 0)
(-2.8901e-06 -1.11893e-05 0)
(-2.8901e-06 -1.11893e-05 0)
(-0.034755 -6.77399e-05 0)
(-0.129818 -0.000431121 0)
(-0.207425 -0.000572566 0)
(-0.2675 -0.00068723 0)
(-0.315544 -0.000791846 0)
(-0.354999 -0.000886324 0)
(-0.388108 -0.00096927 0)
(-0.416411 -0.00103998 0)
(-0.441007 -0.00109793 0)
(-0.46269 -0.00114285 0)
(-0.482044 -0.00117476 0)
(-0.499504 -0.00119395 0)
(-0.515402 -0.00120089 0)
(-0.529991 -0.00119613 0)
(-0.543469 -0.00118025 0)
(-0.555992 -0.00115385 0)
(-0.567686 -0.00111749 0)
(-0.578652 -0.00107172 0)
(-0.588974 -0.00101702 0)
(-0.598719 -0.000953852 0)
(-0.607946 -0.000882654 0)
(-0.616702 -0.00080381 0)
(-0.625028 -0.000717683 0)
(-0.632959 -0.000624604 0)
(-0.640524 -0.00052488 0)
(-0.647749 -0.000418796 0)
(-0.654655 -0.000306613 0)
(-0.661263 -0.000188575 0)
(-0.667588 -6.49059e-05 0)
(-0.673645 6.41841e-05 0)
(-0.679447 0.000198501 0)
(-0.685006 0.000337861 0)
(-0.690332 0.000482095 0)
(-0.695433 0.000631038 0)
(-0.700319 0.000784535 0)
(-0.704995 0.000942432 0)
(-0.709468 0.00110458 0)
(-0.713746 0.00127083 0)
(-0.717832 0.00144103 0)
(-0.721733 0.00161502 0)
(-0.725453 0.00179264 0)
(-0.728996 0.00197368 0)
(-0.732367 0.00215791 0)
(-0.735569 0.00234499 0)
(-0.738607 0.00253446 0)
(-0.741484 0.00272572 0)
(-0.744203 0.00291796 0)
(-0.74677 0.00311014 0)
(-0.749187 0.00330103 0)
(-0.751459 0.00348917 0)
(-0.75359 0.00367304 0)
(-0.755585 0.00385131 0)
(-0.757448 0.00402299 0)
(-0.759202 0.00418901 0)
(-0.760864 0.00434982 0)
(-0.762435 0.00450405 0)
(-0.763915 0.00465007 0)
(-0.765306 0.00478578 0)
(-0.766611 0.0049092 0)
(-0.767834 0.00501901 0)
(-0.768981 0.00511445 0)
(-0.770057 0.00519545 0)
(-0.771069 0.00526259 0)
(-0.772025 0.00531685 0)
(-0.77293 0.00535958 0)
(-0.773792 0.00539198 0)
(-0.774618 0.00541526 0)
(-0.775412 0.00543074 0)
(-0.776181 0.0054394 0)
(-0.77693 0.00544205 0)
(-0.777663 0.00543951 0)
(-0.778383 0.00543242 0)
(-0.779096 0.00542118 0)
(-0.779802 0.00540602 0)
(-0.780506 0.00538732 0)
(-0.781209 0.00536529 0)
(-0.781913 0.00533989 0)
(-0.782619 0.00531122 0)
(-0.783326 0.00527932 0)
(-0.784036 0.00524397 0)
(-0.784747 0.0052049 0)
(-0.785458 0.00516142 0)
(-0.786167 0.00511303 0)
(-0.786871 0.00505755 0)
(-0.787564 0.00499388 0)
(-0.78824 0.00491712 0)
(-0.788875 0.00482929 0)
(-0.789479 0.00470085 0)
(-0.790263 0.00448488 0)
(-0.886432 0.00091893 0)
(-0.887813 2.73187e-05 0)
(-0.886638 0.00755539 0)
(-0.885166 -0.00656784 0)
(-0.883742 -0.0380353 0)
(-0.882233 -0.039679 0)
(-0.880756 -0.039569 0)
(-0.87921 -0.0395785 0)
(-0.877608 -0.0395789 0)
(-0.87596 -0.03958 0)
(-0.874281 -0.039581 0)
(-0.872585 -0.0395818 0)
(-0.87089 -0.0395823 0)
(-0.869216 -0.0395824 0)
(-0.86759 -0.0395818 0)
(-0.86605 -0.0395802 0)
(-0.864643 -0.0395768 0)
(-0.863476 -0.0395684 0)
(-0.862916 -0.0395572 0)
(-0.862825 -0.0395506 0)
(-0.862822 -0.0395495 0)
(-0.862821 -0.0395495 0)
(-0.862821 -0.0395495 0)
(-0.862821 -0.0395495 0)
(-0.862821 -0.0395495 0)
(-0.862821 -0.0395495 0)
(-0.862821 -0.0395495 0)
(-0.862821 -0.0395495 0)
(-0.862821 -0.0395495 0)
(-0.862821 -0.0395495 0)
(-0.862821 -0.0395495 0)
(-0.862821 -0.0395495 0)
(-0.862821 -0.0395495 0)
(-0.862821 -0.0395495 0)
(-0.862821 -0.0395495 0)
(-0.862821 -0.0395495 0)
(-0.862821 -0.0395495 0)
(-0.862821 -0.0395495 0)
(-0.862821 -0.0395495 0)
(-0.862821 -0.0395495 0)
(-0.862821 -0.0395495 0)
(-0.862821 -0.0395495 0)
(-0.862821 -0.0395495 0)
(-0.862821 -0.0395495 0)
(-0.862821 -0.0395495 0)
(-0.862821 -0.0395495 0)
(-0.862821 -0.0395495 0)
(-0.862821 -0.0395495 0)
(-0.862821 -0.0395495 0)
(-0.862821 -0.0395495 0)
(-0.862821 -0.0395495 0)
(-0.862821 -0.0395495 0)
(-0.862821 -0.0395495 0)
(-0.862821 -0.0395495 0)
(-0.862821 -0.0395495 0)
(-0.862821 -0.0395495 0)
(-0.862821 -0.0395495 0)
(-0.862821 -0.0395495 0)
(-0.862821 -0.0395495 0)
(-0.862821 -0.0395495 0)
(-0.862821 -0.0395495 0)
(-0.862821 -0.0395495 0)
(-0.862821 -0.0395495 0)
(-0.862821 -0.0395495 0)
(-0.862821 -0.0395495 0)
(-0.862821 -0.0395495 0)
(-0.862821 -0.0395495 0)
(-0.862821 -0.0395495 0)
(-0.862821 -0.0395495 0)
(-0.862821 -0.0395495 0)
(-0.862821 -0.0395495 0)
(-0.862821 -0.0395495 0)
(-0.862821 -0.0395495 0)
(-0.862821 -0.0395495 0)
(-0.862821 -0.0395495 0)
(-0.862821 -0.0395495 0)
(-0.862821 -0.0395495 0)
(-0.862821 -0.0395495 0)
(-0.862821 -0.0395495 0)
(-0.862821 -0.0395495 0)
(-0.862821 -0.0395495 0)
(-0.862821 -0.0395495 0)
(-0.862821 -0.0395495 0)
(-0.862821 -0.0395495 0)
(-0.862821 -0.0395495 0)
(-0.862821 -0.0395495 0)
(-0.862821 -0.0395495 0)
(-0.862821 -0.0395495 0)
(-0.862821 -0.0395495 0)
(-0.862821 -0.0395495 0)
(-0.862821 -0.0395495 0)
(-0.862821 -0.0395495 0)
(-0.862821 -0.0395495 0)
(-0.862821 -0.0395495 0)
(-0.862821 -0.0395495 0)
(-0.862821 -0.0395495 0)
(-0.862821 -0.0395495 0)
(-0.862821 -0.0395495 0)
(-0.862821 -0.0395495 0)
(-0.862821 -0.0395495 0)
(-0.862821 -0.0395495 0)
(-0.862821 -0.0395495 0)
(-0.862821 -0.0395495 0)
(-0.862821 -0.0395495 0)
(-0.862821 -0.0395495 0)
(-0.862821 -0.0395495 0)
(-0.862821 -0.0395495 0)
(-0.862821 -0.0395495 0)
(-0.862821 -0.0395495 0)
(-0.862821 -0.0395495 0)
(-0.862821 -0.0395495 0)
(-0.862821 -0.0395495 0)
(-0.862821 -0.0395495 0)
(-0.862821 -0.0395495 0)
(-0.862821 -0.0395495 0)
(-0.862821 -0.0395495 0)
(-0.862821 -0.0395495 0)
(-0.862821 -0.0395495 0)
(-0.862821 -0.0395495 0)
(-0.862821 -0.0395493 0)
(-0.862821 -0.0395408 0)
(-0.862824 -0.0391964 0)
(-0.862896 -0.0224993 0)
)
;

boundaryField
{
    inandouthalf11
    {
        type            cyclic;
    }
    inandouthalf12
    {
        type            cyclic;
    }
    inandouthalf21
    {
        type            cyclic;
    }
    inandouthalf22
    {
        type            cyclic;
    }
    inandouthalf31
    {
        type            cyclic;
    }
    inandouthalf32
    {
        type            cyclic;
    }
    inandouthalf41
    {
        type            cyclic;
    }
    inandouthalf42
    {
        type            cyclic;
    }
    top
    {
        type            symmetryPlane;
    }
    walls
    {
        type            fixedValue;
        value           uniform (0 0 0);
    }
    frontAndBackPlanes
    {
        type            empty;
    }
}


// ************************************************************************* //
