/*--------------------------------*- C++ -*----------------------------------*\
| =========                 |                                                 |
| \\      /  F ield         | OpenFOAM: The Open Source CFD Toolbox           |
|  \\    /   O peration     | Version:  2.4.x                                 |
|   \\  /    A nd           | Web:      www.OpenFOAM.org                      |
|    \\/     M anipulation  |                                                 |
\*---------------------------------------------------------------------------*/
FoamFile
{
    version     2.0;
    format      ascii;
    class       volVectorField;
    location    "6.15";
    object      Ub;
}
// * * * * * * * * * * * * * * * * * * * * * * * * * * * * * * * * * * * * * //

dimensions      [0 1 -1 0 0 0 0];

internalField   nonuniform List<vector> 
360
(
(2.47662e-05 7.16313e-08 0)
(2.46264e-05 2.63209e-07 0)
(2.45739e-05 4.91583e-07 0)
(2.45642e-05 7.00721e-07 0)
(2.45492e-05 9.04581e-07 0)
(2.45271e-05 1.11275e-06 0)
(2.45042e-05 1.32485e-06 0)
(2.44816e-05 1.53868e-06 0)
(2.44588e-05 1.75334e-06 0)
(2.44358e-05 1.96893e-06 0)
(2.44126e-05 2.18583e-06 0)
(2.43888e-05 2.40427e-06 0)
(2.43647e-05 2.62426e-06 0)
(2.43401e-05 2.84573e-06 0)
(2.43152e-05 3.06857e-06 0)
(2.42899e-05 3.29278e-06 0)
(2.42642e-05 3.51839e-06 0)
(2.42381e-05 3.74541e-06 0)
(2.42116e-05 3.97386e-06 0)
(2.41847e-05 4.20375e-06 0)
(2.41574e-05 4.43506e-06 0)
(2.41296e-05 4.66778e-06 0)
(2.41014e-05 4.90192e-06 0)
(2.40728e-05 5.13746e-06 0)
(2.40438e-05 5.37437e-06 0)
(2.40143e-05 5.6126e-06 0)
(2.39844e-05 5.85207e-06 0)
(2.39541e-05 6.09276e-06 0)
(2.39233e-05 6.33465e-06 0)
(2.38921e-05 6.57769e-06 0)
(2.38605e-05 6.82188e-06 0)
(2.38284e-05 7.06735e-06 0)
(2.37958e-05 7.31417e-06 0)
(2.37628e-05 7.56263e-06 0)
(2.37291e-05 7.81298e-06 0)
(2.36948e-05 8.06554e-06 0)
(2.36598e-05 8.32061e-06 0)
(2.3624e-05 8.57848e-06 0)
(2.35876e-05 8.83939e-06 0)
(2.35501e-05 9.10312e-06 0)
(2.35121e-05 9.36936e-06 0)
(2.34734e-05 9.63736e-06 0)
(2.34342e-05 9.90586e-06 0)
(2.33949e-05 1.01735e-05 0)
(2.33555e-05 1.04386e-05 0)
(2.33165e-05 1.06995e-05 0)
(2.3278e-05 1.0955e-05 0)
(2.32401e-05 1.12042e-05 0)
(2.3203e-05 1.14474e-05 0)
(2.31664e-05 1.16863e-05 0)
(2.31295e-05 1.19235e-05 0)
(2.3092e-05 1.21633e-05 0)
(2.30526e-05 1.24116e-05 0)
(2.30099e-05 1.26766e-05 0)
(2.29617e-05 1.29688e-05 0)
(2.29058e-05 1.33018e-05 0)
(2.28387e-05 1.36914e-05 0)
(2.27574e-05 1.41528e-05 0)
(2.26597e-05 1.46933e-05 0)
(2.25475e-05 1.52989e-05 0)
(2.24298e-05 1.59241e-05 0)
(2.23221e-05 1.64943e-05 0)
(2.22409e-05 1.69375e-05 0)
(2.21926e-05 1.72226e-05 0)
(2.21718e-05 1.73716e-05 0)
(2.21674e-05 1.7434e-05 0)
(2.21703e-05 1.74544e-05 0)
(2.21759e-05 1.74588e-05 0)
(2.21824e-05 1.74581e-05 0)
(2.21893e-05 1.74561e-05 0)
(2.21966e-05 1.74537e-05 0)
(2.22043e-05 1.74511e-05 0)
(2.2212e-05 1.74483e-05 0)
(2.22201e-05 1.74456e-05 0)
(2.22283e-05 1.74427e-05 0)
(2.22368e-05 1.74398e-05 0)
(2.22454e-05 1.74368e-05 0)
(2.22542e-05 1.74337e-05 0)
(2.22632e-05 1.74306e-05 0)
(2.22724e-05 1.74274e-05 0)
(2.22819e-05 1.74241e-05 0)
(2.22916e-05 1.74207e-05 0)
(2.23015e-05 1.74173e-05 0)
(2.23118e-05 1.74137e-05 0)
(2.23223e-05 1.74101e-05 0)
(2.2333e-05 1.74064e-05 0)
(2.23441e-05 1.74026e-05 0)
(2.23553e-05 1.73987e-05 0)
(2.23668e-05 1.73948e-05 0)
(2.23785e-05 1.73907e-05 0)
(2.23905e-05 1.73866e-05 0)
(2.24027e-05 1.73824e-05 0)
(2.24152e-05 1.73781e-05 0)
(2.24281e-05 1.73737e-05 0)
(2.24412e-05 1.73692e-05 0)
(2.24547e-05 1.73645e-05 0)
(2.24685e-05 1.73598e-05 0)
(2.24826e-05 1.7355e-05 0)
(2.2497e-05 1.735e-05 0)
(2.25118e-05 1.7345e-05 0)
(2.25269e-05 1.73398e-05 0)
(2.25424e-05 1.73345e-05 0)
(2.25583e-05 1.73291e-05 0)
(2.25746e-05 1.73235e-05 0)
(2.25913e-05 1.73179e-05 0)
(2.26085e-05 1.7312e-05 0)
(2.2626e-05 1.7306e-05 0)
(2.26441e-05 1.72999e-05 0)
(2.26626e-05 1.72936e-05 0)
(2.26817e-05 1.72872e-05 0)
(2.27012e-05 1.72806e-05 0)
(2.27213e-05 1.72738e-05 0)
(2.2742e-05 1.72668e-05 0)
(2.27633e-05 1.72596e-05 0)
(2.27852e-05 1.72522e-05 0)
(2.28078e-05 1.72446e-05 0)
(2.28311e-05 1.72368e-05 0)
(2.2855e-05 1.72288e-05 0)
(2.28798e-05 1.72205e-05 0)
(2.29053e-05 1.7212e-05 0)
(2.29317e-05 1.72031e-05 0)
(2.29589e-05 1.71941e-05 0)
(2.2987e-05 1.71847e-05 0)
(2.30161e-05 1.7175e-05 0)
(2.30462e-05 1.7165e-05 0)
(2.30774e-05 1.71547e-05 0)
(2.31097e-05 1.7144e-05 0)
(2.31433e-05 1.71329e-05 0)
(2.31782e-05 1.71214e-05 0)
(2.32145e-05 1.71095e-05 0)
(2.32524e-05 1.70971e-05 0)
(2.32918e-05 1.70841e-05 0)
(2.33331e-05 1.70705e-05 0)
(2.33766e-05 1.70563e-05 0)
(2.34229e-05 1.70412e-05 0)
(2.34719e-05 1.70254e-05 0)
(2.35235e-05 1.70086e-05 0)
(2.35783e-05 1.69903e-05 0)
(2.36392e-05 1.69701e-05 0)
(2.37092e-05 1.69485e-05 0)
(2.3785e-05 1.69266e-05 0)
(2.38574e-05 1.68995e-05 0)
(2.39442e-05 1.68694e-05 0)
(2.40572e-05 1.68338e-05 0)
(2.41979e-05 1.67699e-05 0)
(2.44568e-05 1.65879e-05 0)
(2.51542e-05 1.69636e-05 0)
(-0.000104493 9.85517e-06 0)
(-0.039453 5.90621e-05 0)
(-0.139659 0.000162484 0)
(-0.215302 0.000120094 0)
(-0.273646 0.000113318 0)
(-0.320576 9.87137e-05 0)
(-0.35934 8.33261e-05 0)
(-0.392047 6.92728e-05 0)
(-0.420151 5.71064e-05 0)
(-0.444688 4.68519e-05 0)
(-0.466409 3.835e-05 0)
(-0.485872 3.1366e-05 0)
(-0.503496 2.56519e-05 0)
(-0.519599 2.09805e-05 0)
(-0.534429 1.71574e-05 0)
(-0.54818 1.40224e-05 0)
(-0.561006 1.14453e-05 0)
(-0.573033 9.32145e-06 0)
(-0.584362 7.56688e-06 0)
(-0.595076 6.11415e-06 0)
(-0.605246 4.90907e-06 0)
(-0.614929 3.90787e-06 0)
(-0.624176 3.07513e-06 0)
(-0.633028 2.38206e-06 0)
(-0.641523 1.80513e-06 0)
(-0.649691 1.32507e-06 0)
(-0.657559 9.26013e-07 0)
(-0.665152 5.94846e-07 0)
(-0.67249 3.207e-07 0)
(-0.679593 9.45385e-08 0)
(-0.686475 -9.12054e-08 0)
(-0.693153 -2.4285e-07 0)
(-0.699639 -3.65682e-07 0)
(-0.705944 -4.64169e-07 0)
(-0.712079 -5.42073e-07 0)
(-0.718053 -6.02568e-07 0)
(-0.723875 -6.48343e-07 0)
(-0.729553 -6.81672e-07 0)
(-0.735092 -7.04487e-07 0)
(-0.740501 -7.1843e-07 0)
(-0.745783 -7.24894e-07 0)
(-0.750945 -7.2506e-07 0)
(-0.755991 -7.19922e-07 0)
(-0.760925 -7.10306e-07 0)
(-0.76575 -6.9688e-07 0)
(-0.770471 -6.80172e-07 0)
(-0.775091 -6.60587e-07 0)
(-0.779612 -6.38431e-07 0)
(-0.784036 -6.13927e-07 0)
(-0.788366 -5.87248e-07 0)
(-0.792604 -5.58592e-07 0)
(-0.796752 -5.28251e-07 0)
(-0.80081 -4.96663e-07 0)
(-0.804781 -4.64323e-07 0)
(-0.808705 -4.31297e-07 0)
(-0.812618 -3.97528e-07 0)
(-0.816517 -3.63241e-07 0)
(-0.820399 -3.28617e-07 0)
(-0.824259 -2.93947e-07 0)
(-0.828094 -2.59812e-07 0)
(-0.831899 -2.26938e-07 0)
(-0.835668 -1.96002e-07 0)
(-0.839395 -1.67572e-07 0)
(-0.843073 -1.42032e-07 0)
(-0.846696 -1.19539e-07 0)
(-0.850254 -1.00038e-07 0)
(-0.853739 -8.33256e-08 0)
(-0.857142 -6.91667e-08 0)
(-0.860451 -5.72741e-08 0)
(-0.863655 -4.73224e-08 0)
(-0.866741 -3.90303e-08 0)
(-0.869696 -3.21495e-08 0)
(-0.872505 -2.64397e-08 0)
(-0.875154 -2.16962e-08 0)
(-0.877628 -1.77655e-08 0)
(-0.879911 -1.45189e-08 0)
(-0.88199 -1.18338e-08 0)
(-0.883852 -9.61481e-09 0)
(-0.885487 -7.78921e-09 0)
(-0.886886 -6.28819e-09 0)
(-0.888047 -5.05397e-09 0)
(-0.888969 -4.04113e-09 0)
(-0.889656 -3.21245e-09 0)
(-0.890115 -2.53497e-09 0)
(-0.890357 -1.98302e-09 0)
(-0.890392 -1.53764e-09 0)
(-0.890235 -1.18114e-09 0)
(-0.889896 -8.885e-10 0)
(-0.88939 -7.20355e-10 0)
(-0.888727 -5.15995e-10 0)
(-0.88792 -1.89524e-10 0)
(-0.886978 -6.69429e-11 0)
(-0.885912 -5.87578e-11 0)
(-0.884733 9.10343e-13 0)
(-0.88345 9.35028e-12 0)
(-0.882074 -2.17814e-12 0)
(-0.880615 -2.4306e-12 0)
(-0.879083 -1.75e-12 0)
(-0.877491 -8.93339e-13 0)
(-0.875851 3.37942e-12 0)
(-0.874175 -2.36901e-11 0)
(-0.872477 5.52813e-11 0)
(-0.870776 -1.12862e-10 0)
(-0.869091 1.87947e-10 0)
(-0.867448 -2.92054e-10 0)
(-0.865881 4.14557e-10 0)
(-0.864441 -5.63339e-10 0)
(-0.863202 7.25249e-10 0)
(-0.862473 -9.04603e-10 0)
(-0.862345 1.08806e-09 0)
(-0.86234 -1.28126e-09 0)
(-0.86234 1.47539e-09 0)
(-0.86234 -1.67804e-09 0)
(-0.86234 1.8822e-09 0)
(-0.86234 -2.09479e-09 0)
(-0.86234 2.30964e-09 0)
(-0.86234 -2.53287e-09 0)
(-0.86234 2.75908e-09 0)
(-0.86234 -2.99365e-09 0)
(-0.86234 3.23182e-09 0)
(-0.86234 -3.47839e-09 0)
(-0.86234 3.72909e-09 0)
(-0.86234 -3.98827e-09 0)
(-0.86234 4.25204e-09 0)
(-0.86234 -4.52437e-09 0)
(-0.86234 4.80172e-09 0)
(-0.86234 -5.0877e-09 0)
(-0.86234 5.37909e-09 0)
(-0.86234 -5.6792e-09 0)
(-0.86234 5.98507e-09 0)
(-0.86234 -6.29973e-09 0)
(-0.86234 6.62051e-09 0)
(-0.86234 -6.95013e-09 0)
(-0.86234 7.28621e-09 0)
(-0.86234 -7.63119e-09 0)
(-0.86234 7.98293e-09 0)
(-0.86234 -8.34364e-09 0)
(-0.86234 8.71141e-09 0)
(-0.86234 -9.08819e-09 0)
(-0.86234 9.47232e-09 0)
(-0.86234 -9.86547e-09 0)
(-0.86234 1.02663e-08 0)
(-0.86234 -1.06762e-08 0)
(-0.86234 1.1094e-08 0)
(-0.86234 -1.15209e-08 0)
(-0.86234 1.1956e-08 0)
(-0.86234 -1.24002e-08 0)
(-0.86234 1.28529e-08 0)
(-0.86234 -1.33146e-08 0)
(-0.86234 1.3785e-08 0)
(-0.86234 -1.42645e-08 0)
(-0.86234 1.4753e-08 0)
(-0.86234 -1.52505e-08 0)
(-0.86234 1.57572e-08 0)
(-0.86234 -1.62729e-08 0)
(-0.86234 1.67979e-08 0)
(-0.86234 -1.7332e-08 0)
(-0.86234 1.78754e-08 0)
(-0.86234 -1.8428e-08 0)
(-0.86234 1.89899e-08 0)
(-0.86234 -1.95609e-08 0)
(-0.86234 2.01413e-08 0)
(-0.86234 -2.07308e-08 0)
(-0.86234 1.87233e-08 0)
(-0.86234 -1.88976e-08 0)
(-0.86234 1.90701e-08 0)
(-0.86234 -1.92407e-08 0)
(-0.86234 1.94095e-08 0)
(-0.86234 -1.95763e-08 0)
(-0.86234 1.97412e-08 0)
(-0.86234 -1.99042e-08 0)
(-0.86234 2.00653e-08 0)
(-0.86234 -2.02243e-08 0)
(-0.86234 2.03813e-08 0)
(-0.86234 -2.05363e-08 0)
(-0.86234 2.06893e-08 0)
(-0.86234 -2.08402e-08 0)
(-0.86234 2.09889e-08 0)
(-0.86234 -2.11356e-08 0)
(-0.86234 2.128e-08 0)
(-0.86234 -2.14223e-08 0)
(-0.86234 2.15623e-08 0)
(-0.86234 -2.17002e-08 0)
(-0.86234 2.18355e-08 0)
(-0.86234 -2.19689e-08 0)
(-0.86234 2.20993e-08 0)
(-0.86234 -2.22282e-08 0)
(-0.86234 2.23536e-08 0)
(-0.86234 -2.24776e-08 0)
(-0.86234 2.25979e-08 0)
(-0.86234 -2.27168e-08 0)
(-0.86234 2.28317e-08 0)
(-0.86234 -2.29453e-08 0)
(-0.86234 2.30546e-08 0)
(-0.86234 -2.31626e-08 0)
(-0.86234 2.32661e-08 0)
(-0.86234 -2.3368e-08 0)
(-0.86234 2.34655e-08 0)
(-0.86234 -2.35609e-08 0)
(-0.86234 2.36519e-08 0)
(-0.86234 -2.37405e-08 0)
(-0.86234 2.38246e-08 0)
(-0.86234 -2.39055e-08 0)
(-0.86234 2.39823e-08 0)
(-0.86234 -2.40547e-08 0)
(-0.86234 2.41236e-08 0)
(-0.86234 -2.41863e-08 0)
(-0.86234 2.4246e-08 0)
(-0.86234 -2.42974e-08 0)
(-0.86234 2.43463e-08 0)
(-0.86234 -2.43837e-08 0)
(-0.86234 2.44183e-08 0)
(-0.86234 -2.44353e-08 0)
)
;

boundaryField
{
    inandouthalf11
    {
        type            cyclic;
    }
    inandouthalf12
    {
        type            cyclic;
    }
    inandouthalf21
    {
        type            cyclic;
    }
    inandouthalf22
    {
        type            cyclic;
    }
    inandouthalf31
    {
        type            cyclic;
    }
    inandouthalf32
    {
        type            cyclic;
    }
    inandouthalf41
    {
        type            cyclic;
    }
    inandouthalf42
    {
        type            cyclic;
    }
    top
    {
        type            symmetryPlane;
    }
    walls
    {
        type            fixedValue;
        value           uniform (0 0 0);
    }
    frontAndBackPlanes
    {
        type            empty;
    }
}


// ************************************************************************* //
