/*--------------------------------*- C++ -*----------------------------------*\
| =========                 |                                                 |
| \\      /  F ield         | OpenFOAM: The Open Source CFD Toolbox           |
|  \\    /   O peration     | Version:  2.4.x                                 |
|   \\  /    A nd           | Web:      www.OpenFOAM.org                      |
|    \\/     M anipulation  |                                                 |
\*---------------------------------------------------------------------------*/
FoamFile
{
    version     2.0;
    format      ascii;
    class       volVectorField;
    location    "6.15";
    object      Ub_0;
}
// * * * * * * * * * * * * * * * * * * * * * * * * * * * * * * * * * * * * * //

dimensions      [0 1 -1 0 0 0 0];

internalField   nonuniform List<vector> 
360
(
(2.47477e-05 7.16369e-08 0)
(2.46079e-05 2.63231e-07 0)
(2.45554e-05 4.91625e-07 0)
(2.45458e-05 7.00782e-07 0)
(2.45307e-05 9.0466e-07 0)
(2.45086e-05 1.11285e-06 0)
(2.44857e-05 1.32497e-06 0)
(2.44631e-05 1.53882e-06 0)
(2.44403e-05 1.7535e-06 0)
(2.44173e-05 1.9691e-06 0)
(2.4394e-05 2.18603e-06 0)
(2.43703e-05 2.40448e-06 0)
(2.43461e-05 2.62449e-06 0)
(2.43216e-05 2.84598e-06 0)
(2.42966e-05 3.06884e-06 0)
(2.42713e-05 3.29307e-06 0)
(2.42456e-05 3.5187e-06 0)
(2.42195e-05 3.74574e-06 0)
(2.4193e-05 3.97421e-06 0)
(2.41661e-05 4.20412e-06 0)
(2.41387e-05 4.43545e-06 0)
(2.4111e-05 4.6682e-06 0)
(2.40828e-05 4.90236e-06 0)
(2.40542e-05 5.13791e-06 0)
(2.40251e-05 5.37484e-06 0)
(2.39957e-05 5.61309e-06 0)
(2.39657e-05 5.85258e-06 0)
(2.39354e-05 6.0933e-06 0)
(2.39047e-05 6.3352e-06 0)
(2.38734e-05 6.57826e-06 0)
(2.38418e-05 6.82248e-06 0)
(2.38097e-05 7.06797e-06 0)
(2.37771e-05 7.31481e-06 0)
(2.3744e-05 7.56329e-06 0)
(2.37103e-05 7.81366e-06 0)
(2.3676e-05 8.06625e-06 0)
(2.3641e-05 8.32134e-06 0)
(2.36053e-05 8.57924e-06 0)
(2.35688e-05 8.84017e-06 0)
(2.35313e-05 9.10392e-06 0)
(2.34933e-05 9.37019e-06 0)
(2.34546e-05 9.63821e-06 0)
(2.34154e-05 9.90673e-06 0)
(2.3376e-05 1.01744e-05 0)
(2.33367e-05 1.04395e-05 0)
(2.32976e-05 1.07004e-05 0)
(2.32592e-05 1.09559e-05 0)
(2.32213e-05 1.12051e-05 0)
(2.31841e-05 1.14483e-05 0)
(2.31475e-05 1.16872e-05 0)
(2.31106e-05 1.19244e-05 0)
(2.30731e-05 1.21643e-05 0)
(2.30337e-05 1.24126e-05 0)
(2.29909e-05 1.26777e-05 0)
(2.29427e-05 1.297e-05 0)
(2.28868e-05 1.33032e-05 0)
(2.28196e-05 1.36931e-05 0)
(2.27382e-05 1.41548e-05 0)
(2.26405e-05 1.46956e-05 0)
(2.25282e-05 1.53015e-05 0)
(2.24106e-05 1.59266e-05 0)
(2.23029e-05 1.64964e-05 0)
(2.22218e-05 1.6939e-05 0)
(2.21736e-05 1.72235e-05 0)
(2.2153e-05 1.7372e-05 0)
(2.21486e-05 1.74341e-05 0)
(2.21515e-05 1.74544e-05 0)
(2.21571e-05 1.74588e-05 0)
(2.21636e-05 1.74582e-05 0)
(2.21705e-05 1.74561e-05 0)
(2.21778e-05 1.74537e-05 0)
(2.21855e-05 1.74511e-05 0)
(2.21932e-05 1.74483e-05 0)
(2.22012e-05 1.74456e-05 0)
(2.22095e-05 1.74427e-05 0)
(2.2218e-05 1.74398e-05 0)
(2.22265e-05 1.74368e-05 0)
(2.22353e-05 1.74337e-05 0)
(2.22443e-05 1.74306e-05 0)
(2.22536e-05 1.74274e-05 0)
(2.2263e-05 1.74241e-05 0)
(2.22727e-05 1.74207e-05 0)
(2.22827e-05 1.74173e-05 0)
(2.22929e-05 1.74137e-05 0)
(2.23034e-05 1.74101e-05 0)
(2.23141e-05 1.74064e-05 0)
(2.23251e-05 1.74026e-05 0)
(2.23364e-05 1.73987e-05 0)
(2.23478e-05 1.73948e-05 0)
(2.23595e-05 1.73907e-05 0)
(2.23715e-05 1.73866e-05 0)
(2.23837e-05 1.73824e-05 0)
(2.23963e-05 1.73781e-05 0)
(2.24091e-05 1.73737e-05 0)
(2.24222e-05 1.73692e-05 0)
(2.24357e-05 1.73645e-05 0)
(2.24494e-05 1.73598e-05 0)
(2.24635e-05 1.7355e-05 0)
(2.2478e-05 1.735e-05 0)
(2.24927e-05 1.7345e-05 0)
(2.25079e-05 1.73398e-05 0)
(2.25234e-05 1.73345e-05 0)
(2.25393e-05 1.73291e-05 0)
(2.25555e-05 1.73235e-05 0)
(2.25722e-05 1.73179e-05 0)
(2.25893e-05 1.7312e-05 0)
(2.26069e-05 1.7306e-05 0)
(2.26249e-05 1.72999e-05 0)
(2.26435e-05 1.72936e-05 0)
(2.26625e-05 1.72872e-05 0)
(2.2682e-05 1.72806e-05 0)
(2.27021e-05 1.72738e-05 0)
(2.27228e-05 1.72668e-05 0)
(2.27441e-05 1.72596e-05 0)
(2.2766e-05 1.72522e-05 0)
(2.27885e-05 1.72446e-05 0)
(2.28118e-05 1.72368e-05 0)
(2.28357e-05 1.72288e-05 0)
(2.28605e-05 1.72205e-05 0)
(2.2886e-05 1.7212e-05 0)
(2.29123e-05 1.72031e-05 0)
(2.29395e-05 1.71941e-05 0)
(2.29676e-05 1.71847e-05 0)
(2.29967e-05 1.7175e-05 0)
(2.30268e-05 1.7165e-05 0)
(2.30579e-05 1.71547e-05 0)
(2.30902e-05 1.7144e-05 0)
(2.31237e-05 1.71329e-05 0)
(2.31586e-05 1.71214e-05 0)
(2.31949e-05 1.71095e-05 0)
(2.32328e-05 1.70971e-05 0)
(2.32722e-05 1.70841e-05 0)
(2.33134e-05 1.70705e-05 0)
(2.33569e-05 1.70563e-05 0)
(2.34032e-05 1.70412e-05 0)
(2.34522e-05 1.70254e-05 0)
(2.35037e-05 1.70086e-05 0)
(2.35585e-05 1.69903e-05 0)
(2.36193e-05 1.69701e-05 0)
(2.36892e-05 1.69485e-05 0)
(2.3765e-05 1.69266e-05 0)
(2.38373e-05 1.68995e-05 0)
(2.39241e-05 1.68694e-05 0)
(2.4037e-05 1.68338e-05 0)
(2.41776e-05 1.67699e-05 0)
(2.44363e-05 1.65879e-05 0)
(2.5133e-05 1.69627e-05 0)
(-0.000104608 9.86046e-06 0)
(-0.0394714 5.90607e-05 0)
(-0.13968 0.000162384 0)
(-0.215322 0.00012005 0)
(-0.273667 0.000113265 0)
(-0.320597 9.86694e-05 0)
(-0.359363 8.32903e-05 0)
(-0.392071 6.92438e-05 0)
(-0.420176 5.70828e-05 0)
(-0.444714 4.68326e-05 0)
(-0.466436 3.83342e-05 0)
(-0.4859 3.13528e-05 0)
(-0.503524 2.56408e-05 0)
(-0.519628 2.09711e-05 0)
(-0.534459 1.71494e-05 0)
(-0.54821 1.40155e-05 0)
(-0.561037 1.14393e-05 0)
(-0.573065 9.31624e-06 0)
(-0.584394 7.56232e-06 0)
(-0.595109 6.11016e-06 0)
(-0.605279 4.90554e-06 0)
(-0.614962 3.90475e-06 0)
(-0.62421 3.07237e-06 0)
(-0.633062 2.3796e-06 0)
(-0.641557 1.80294e-06 0)
(-0.649725 1.32311e-06 0)
(-0.657594 9.24259e-07 0)
(-0.665187 5.9327e-07 0)
(-0.672526 3.19282e-07 0)
(-0.679628 9.3256e-08 0)
(-0.686511 -9.23647e-08 0)
(-0.693189 -2.43897e-07 0)
(-0.699675 -3.66631e-07 0)
(-0.70598 -4.6503e-07 0)
(-0.712115 -5.42855e-07 0)
(-0.71809 -6.0328e-07 0)
(-0.723912 -6.48989e-07 0)
(-0.72959 -6.8226e-07 0)
(-0.73513 -7.05023e-07 0)
(-0.740538 -7.18917e-07 0)
(-0.745821 -7.25336e-07 0)
(-0.750983 -7.25461e-07 0)
(-0.756029 -7.20286e-07 0)
(-0.760963 -7.10635e-07 0)
(-0.765789 -6.97176e-07 0)
(-0.77051 -6.80437e-07 0)
(-0.775129 -6.60824e-07 0)
(-0.77965 -6.38641e-07 0)
(-0.784075 -6.14111e-07 0)
(-0.788405 -5.87407e-07 0)
(-0.792643 -5.58727e-07 0)
(-0.796791 -5.28363e-07 0)
(-0.800849 -4.96754e-07 0)
(-0.80482 -4.64395e-07 0)
(-0.808744 -4.31352e-07 0)
(-0.812656 -3.97567e-07 0)
(-0.816556 -3.63265e-07 0)
(-0.820437 -3.28627e-07 0)
(-0.824298 -2.93947e-07 0)
(-0.828133 -2.59803e-07 0)
(-0.831938 -2.26922e-07 0)
(-0.835706 -1.95982e-07 0)
(-0.839433 -1.67552e-07 0)
(-0.843111 -1.42011e-07 0)
(-0.846734 -1.1952e-07 0)
(-0.850292 -1.0002e-07 0)
(-0.853777 -8.33102e-08 0)
(-0.85718 -6.91535e-08 0)
(-0.860488 -5.7263e-08 0)
(-0.863692 -4.73131e-08 0)
(-0.866778 -3.90226e-08 0)
(-0.869732 -3.21431e-08 0)
(-0.872541 -2.64345e-08 0)
(-0.875189 -2.1692e-08 0)
(-0.877662 -1.7762e-08 0)
(-0.879945 -1.45161e-08 0)
(-0.882023 -1.18316e-08 0)
(-0.883884 -9.61297e-09 0)
(-0.885518 -7.78773e-09 0)
(-0.886917 -6.287e-09 0)
(-0.888077 -5.05301e-09 0)
(-0.888998 -4.04037e-09 0)
(-0.889684 -3.21185e-09 0)
(-0.890143 -2.53449e-09 0)
(-0.890384 -1.98264e-09 0)
(-0.890419 -1.53735e-09 0)
(-0.89026 -1.18091e-09 0)
(-0.889921 -8.88329e-10 0)
(-0.889414 -7.20206e-10 0)
(-0.888751 -5.15885e-10 0)
(-0.887943 -1.89485e-10 0)
(-0.887001 -6.70259e-11 0)
(-0.885935 -5.88757e-11 0)
(-0.884756 8.57385e-13 0)
(-0.883472 9.33372e-12 0)
(-0.882096 -2.16854e-12 0)
(-0.880636 -2.42793e-12 0)
(-0.879105 -1.75015e-12 0)
(-0.877513 -8.93159e-13 0)
(-0.875872 3.37802e-12 0)
(-0.874196 -2.36814e-11 0)
(-0.872498 5.52682e-11 0)
(-0.870797 -1.12847e-10 0)
(-0.869112 1.87945e-10 0)
(-0.867469 -2.92068e-10 0)
(-0.865902 4.14601e-10 0)
(-0.864462 -5.63413e-10 0)
(-0.863223 7.2536e-10 0)
(-0.862495 -9.04742e-10 0)
(-0.862368 1.08823e-09 0)
(-0.862363 -1.28146e-09 0)
(-0.862362 1.47561e-09 0)
(-0.862362 -1.67828e-09 0)
(-0.862362 1.88246e-09 0)
(-0.862362 -2.09506e-09 0)
(-0.862362 2.30994e-09 0)
(-0.862362 -2.53318e-09 0)
(-0.862362 2.75941e-09 0)
(-0.862362 -2.99398e-09 0)
(-0.862362 3.23217e-09 0)
(-0.862362 -3.47876e-09 0)
(-0.862362 3.72948e-09 0)
(-0.862362 -3.98867e-09 0)
(-0.862362 4.25247e-09 0)
(-0.862362 -4.52481e-09 0)
(-0.862362 4.80218e-09 0)
(-0.862362 -5.08817e-09 0)
(-0.862362 5.37959e-09 0)
(-0.862362 -5.67971e-09 0)
(-0.862362 5.98561e-09 0)
(-0.862362 -6.30028e-09 0)
(-0.862362 6.62109e-09 0)
(-0.862362 -6.95073e-09 0)
(-0.862362 7.28683e-09 0)
(-0.862362 -7.63183e-09 0)
(-0.862362 7.9836e-09 0)
(-0.862362 -8.34433e-09 0)
(-0.862362 8.71213e-09 0)
(-0.862362 -9.08893e-09 0)
(-0.862362 9.47309e-09 0)
(-0.862362 -9.86626e-09 0)
(-0.862362 1.02671e-08 0)
(-0.862362 -1.0677e-08 0)
(-0.862362 1.10949e-08 0)
(-0.862362 -1.15218e-08 0)
(-0.862362 1.1957e-08 0)
(-0.862362 -1.24011e-08 0)
(-0.862362 1.28539e-08 0)
(-0.862362 -1.33156e-08 0)
(-0.862362 1.37861e-08 0)
(-0.862362 -1.42656e-08 0)
(-0.862362 1.47541e-08 0)
(-0.862362 -1.52517e-08 0)
(-0.862362 1.57584e-08 0)
(-0.862362 -1.62742e-08 0)
(-0.862362 1.67992e-08 0)
(-0.862362 -1.73333e-08 0)
(-0.862362 1.78768e-08 0)
(-0.862362 -1.84294e-08 0)
(-0.862362 1.89913e-08 0)
(-0.862362 -1.95624e-08 0)
(-0.862362 2.01428e-08 0)
(-0.862362 -2.07323e-08 0)
(-0.862362 1.87247e-08 0)
(-0.862362 -1.88989e-08 0)
(-0.862362 1.90715e-08 0)
(-0.862362 -1.92421e-08 0)
(-0.862362 1.94109e-08 0)
(-0.862362 -1.95777e-08 0)
(-0.862362 1.97427e-08 0)
(-0.862362 -1.99056e-08 0)
(-0.862362 2.00667e-08 0)
(-0.862362 -2.02257e-08 0)
(-0.862362 2.03828e-08 0)
(-0.862362 -2.05378e-08 0)
(-0.862362 2.06908e-08 0)
(-0.862362 -2.08416e-08 0)
(-0.862362 2.09904e-08 0)
(-0.862362 -2.1137e-08 0)
(-0.862362 2.12815e-08 0)
(-0.862362 -2.14238e-08 0)
(-0.862362 2.15638e-08 0)
(-0.862362 -2.17017e-08 0)
(-0.862362 2.1837e-08 0)
(-0.862362 -2.19705e-08 0)
(-0.862362 2.21009e-08 0)
(-0.862362 -2.22297e-08 0)
(-0.862362 2.23551e-08 0)
(-0.862362 -2.24792e-08 0)
(-0.862362 2.25994e-08 0)
(-0.862362 -2.27184e-08 0)
(-0.862362 2.28332e-08 0)
(-0.862362 -2.29469e-08 0)
(-0.862362 2.30562e-08 0)
(-0.862362 -2.31642e-08 0)
(-0.862362 2.32676e-08 0)
(-0.862362 -2.33696e-08 0)
(-0.862362 2.34671e-08 0)
(-0.862362 -2.35625e-08 0)
(-0.862362 2.36535e-08 0)
(-0.862362 -2.37421e-08 0)
(-0.862362 2.38262e-08 0)
(-0.862362 -2.39071e-08 0)
(-0.862362 2.39839e-08 0)
(-0.862362 -2.40563e-08 0)
(-0.862362 2.41252e-08 0)
(-0.862362 -2.41879e-08 0)
(-0.862362 2.42476e-08 0)
(-0.862362 -2.4299e-08 0)
(-0.862362 2.43479e-08 0)
(-0.862362 -2.43853e-08 0)
(-0.862362 2.44199e-08 0)
(-0.862362 -2.44369e-08 0)
)
;

boundaryField
{
    inandouthalf11
    {
        type            cyclic;
    }
    inandouthalf12
    {
        type            cyclic;
    }
    inandouthalf21
    {
        type            cyclic;
    }
    inandouthalf22
    {
        type            cyclic;
    }
    inandouthalf31
    {
        type            cyclic;
    }
    inandouthalf32
    {
        type            cyclic;
    }
    inandouthalf41
    {
        type            cyclic;
    }
    inandouthalf42
    {
        type            cyclic;
    }
    top
    {
        type            symmetryPlane;
    }
    walls
    {
        type            fixedValue;
        value           uniform (0 0 0);
    }
    frontAndBackPlanes
    {
        type            empty;
    }
}


// ************************************************************************* //
