/*--------------------------------*- C++ -*----------------------------------*\
| =========                 |                                                 |
| \\      /  F ield         | OpenFOAM: The Open Source CFD Toolbox           |
|  \\    /   O peration     | Version:  2.4.x                                 |
|   \\  /    A nd           | Web:      www.OpenFOAM.org                      |
|    \\/     M anipulation  |                                                 |
\*---------------------------------------------------------------------------*/
FoamFile
{
    version     2.0;
    format      ascii;
    class       volVectorField;
    location    "6.15";
    object      Ur;
}
// * * * * * * * * * * * * * * * * * * * * * * * * * * * * * * * * * * * * * //

dimensions      [0 1 -1 0 0 0 0];

internalField   nonuniform List<vector> 
360
(
(2.47662e-05 7.16313e-08 0)
(2.46515e-05 4.379e-07 0)
(2.46273e-05 8.12739e-07 0)
(2.46428e-05 1.14644e-06 0)
(2.46528e-05 1.47784e-06 0)
(2.46569e-05 1.81926e-06 0)
(2.46609e-05 2.16679e-06 0)
(2.46656e-05 2.51669e-06 0)
(2.46704e-05 2.86786e-06 0)
(2.46754e-05 3.22056e-06 0)
(2.46805e-05 3.57547e-06 0)
(2.46855e-05 3.93296e-06 0)
(2.46907e-05 4.29304e-06 0)
(2.46958e-05 4.65556e-06 0)
(2.47009e-05 5.02035e-06 0)
(2.47062e-05 5.38741e-06 0)
(2.47115e-05 5.75678e-06 0)
(2.47168e-05 6.1285e-06 0)
(2.47221e-05 6.50259e-06 0)
(2.47276e-05 6.87909e-06 0)
(2.4733e-05 7.25794e-06 0)
(2.47386e-05 7.63912e-06 0)
(2.47442e-05 8.02267e-06 0)
(2.47498e-05 8.40855e-06 0)
(2.47555e-05 8.79671e-06 0)
(2.47612e-05 9.18707e-06 0)
(2.4767e-05 9.57951e-06 0)
(2.47729e-05 9.97398e-06 0)
(2.47787e-05 1.03705e-05 0)
(2.47847e-05 1.07688e-05 0)
(2.47907e-05 1.11692e-05 0)
(2.47968e-05 1.15716e-05 0)
(2.48028e-05 1.19763e-05 0)
(2.48091e-05 1.23836e-05 0)
(2.48153e-05 1.27942e-05 0)
(2.48216e-05 1.32084e-05 0)
(2.4828e-05 1.36267e-05 0)
(2.48345e-05 1.40498e-05 0)
(2.48411e-05 1.44778e-05 0)
(2.48476e-05 1.49107e-05 0)
(2.48544e-05 1.53477e-05 0)
(2.48611e-05 1.57877e-05 0)
(2.48679e-05 1.62287e-05 0)
(2.48748e-05 1.66683e-05 0)
(2.48817e-05 1.71039e-05 0)
(2.48886e-05 1.75325e-05 0)
(2.48956e-05 1.79522e-05 0)
(2.49024e-05 1.83615e-05 0)
(2.49093e-05 1.87609e-05 0)
(2.49164e-05 1.91531e-05 0)
(2.49233e-05 1.95422e-05 0)
(2.49305e-05 1.99354e-05 0)
(2.49377e-05 2.03423e-05 0)
(2.49452e-05 2.07762e-05 0)
(2.49529e-05 2.12543e-05 0)
(2.49611e-05 2.1799e-05 0)
(2.49697e-05 2.24366e-05 0)
(2.49791e-05 2.31932e-05 0)
(2.4989e-05 2.40828e-05 0)
(2.49995e-05 2.50855e-05 0)
(2.50105e-05 2.6126e-05 0)
(2.50209e-05 2.70769e-05 0)
(2.50305e-05 2.78113e-05 0)
(2.50388e-05 2.82759e-05 0)
(2.5046e-05 2.85124e-05 0)
(2.50526e-05 2.86087e-05 0)
(2.50591e-05 2.86399e-05 0)
(2.50657e-05 2.86472e-05 0)
(2.50724e-05 2.86473e-05 0)
(2.50794e-05 2.86454e-05 0)
(2.50867e-05 2.8643e-05 0)
(2.50943e-05 2.86404e-05 0)
(2.51021e-05 2.86376e-05 0)
(2.51101e-05 2.86349e-05 0)
(2.51184e-05 2.8632e-05 0)
(2.51269e-05 2.86291e-05 0)
(2.51355e-05 2.86261e-05 0)
(2.51443e-05 2.8623e-05 0)
(2.51533e-05 2.86199e-05 0)
(2.51625e-05 2.86167e-05 0)
(2.51719e-05 2.86134e-05 0)
(2.51816e-05 2.86101e-05 0)
(2.51916e-05 2.86066e-05 0)
(2.52019e-05 2.86031e-05 0)
(2.52124e-05 2.85994e-05 0)
(2.52231e-05 2.85957e-05 0)
(2.52341e-05 2.85919e-05 0)
(2.52454e-05 2.85881e-05 0)
(2.52568e-05 2.85841e-05 0)
(2.52686e-05 2.85801e-05 0)
(2.52805e-05 2.85759e-05 0)
(2.52928e-05 2.85717e-05 0)
(2.53053e-05 2.85674e-05 0)
(2.53182e-05 2.8563e-05 0)
(2.53313e-05 2.85585e-05 0)
(2.53448e-05 2.85539e-05 0)
(2.53585e-05 2.85491e-05 0)
(2.53726e-05 2.85443e-05 0)
(2.53871e-05 2.85394e-05 0)
(2.54019e-05 2.85343e-05 0)
(2.5417e-05 2.85291e-05 0)
(2.54325e-05 2.85238e-05 0)
(2.54484e-05 2.85184e-05 0)
(2.54647e-05 2.85129e-05 0)
(2.54814e-05 2.85072e-05 0)
(2.54986e-05 2.85014e-05 0)
(2.55161e-05 2.84954e-05 0)
(2.55342e-05 2.84893e-05 0)
(2.55527e-05 2.8483e-05 0)
(2.55717e-05 2.84765e-05 0)
(2.55913e-05 2.84699e-05 0)
(2.56114e-05 2.84631e-05 0)
(2.56321e-05 2.84561e-05 0)
(2.56534e-05 2.8449e-05 0)
(2.56753e-05 2.84416e-05 0)
(2.56979e-05 2.8434e-05 0)
(2.57212e-05 2.84262e-05 0)
(2.57451e-05 2.84181e-05 0)
(2.57699e-05 2.84098e-05 0)
(2.57954e-05 2.84013e-05 0)
(2.58218e-05 2.83925e-05 0)
(2.5849e-05 2.83834e-05 0)
(2.58771e-05 2.8374e-05 0)
(2.59062e-05 2.83644e-05 0)
(2.59363e-05 2.83544e-05 0)
(2.59675e-05 2.8344e-05 0)
(2.59998e-05 2.83334e-05 0)
(2.60334e-05 2.83223e-05 0)
(2.60683e-05 2.83108e-05 0)
(2.61046e-05 2.82988e-05 0)
(2.61425e-05 2.82864e-05 0)
(2.61819e-05 2.82735e-05 0)
(2.62232e-05 2.82599e-05 0)
(2.62667e-05 2.82456e-05 0)
(2.6313e-05 2.82306e-05 0)
(2.6362e-05 2.82148e-05 0)
(2.64136e-05 2.8198e-05 0)
(2.64684e-05 2.81797e-05 0)
(2.65293e-05 2.81594e-05 0)
(2.65992e-05 2.81379e-05 0)
(2.66751e-05 2.8116e-05 0)
(2.67475e-05 2.80888e-05 0)
(2.68343e-05 2.80587e-05 0)
(2.69473e-05 2.80231e-05 0)
(2.7088e-05 2.79592e-05 0)
(2.73469e-05 2.77772e-05 0)
(2.80443e-05 2.81529e-05 0)
(-0.000101603 2.10445e-05 0)
(-0.00471472 0.000126795 0)
(-0.00986284 0.00059382 0)
(-0.00789743 0.000692921 0)
(-0.00616716 0.000800882 0)
(-0.00505292 0.000890945 0)
(-0.00436284 0.00097008 0)
(-0.00396307 0.00103901 0)
(-0.00376459 0.0010976 0)
(-0.00370601 0.00114533 0)
(-0.00374564 0.00118177 0)
(-0.00385599 0.00120673 0)
(-0.00401955 0.00122023 0)
(-0.00422543 0.00122252 0)
(-0.00446711 0.00121395 0)
(-0.00474087 0.00119496 0)
(-0.0050448 0.001166 0)
(-0.00537821 0.00112754 0)
(-0.00574122 0.00108002 0)
(-0.00613447 0.00102388 0)
(-0.00655897 0.000959521 0)
(-0.007016 0.000887332 0)
(-0.00750704 0.000807665 0)
(-0.0080337 0.000720853 0)
(-0.00859767 0.000627206 0)
(-0.00920073 0.00052701 0)
(-0.00984468 0.000420535 0)
(-0.0105313 0.00030803 0)
(-0.0112625 0.000189726 0)
(-0.0120401 6.58404e-05 0)
(-0.0128656 -6.34256e-05 0)
(-0.0137409 -0.000197883 0)
(-0.0146676 -0.000337356 0)
(-0.0156471 -0.000481676 0)
(-0.0166809 -0.000630685 0)
(-0.0177702 -0.000784229 0)
(-0.0189163 -0.000942158 0)
(-0.02012 -0.00110433 0)
(-0.0213825 -0.00127058 0)
(-0.0227043 -0.00144078 0)
(-0.024086 -0.00161476 0)
(-0.025528 -0.00179236 0)
(-0.0270305 -0.00197339 0)
(-0.0285936 -0.00215759 0)
(-0.030217 -0.00234464 0)
(-0.0319003 -0.00253409 0)
(-0.0336429 -0.00272531 0)
(-0.0354437 -0.00291751 0)
(-0.0373014 -0.00310967 0)
(-0.0392143 -0.00330053 0)
(-0.0411803 -0.00348864 0)
(-0.0431966 -0.00367249 0)
(-0.0452604 -0.00385073 0)
(-0.0473679 -0.0040224 0)
(-0.0495371 -0.0041884 0)
(-0.0517871 -0.0043492 0)
(-0.054115 -0.00450343 0)
(-0.0565167 -0.00464945 0)
(-0.0589862 -0.00478516 0)
(-0.0615162 -0.00490859 0)
(-0.0640975 -0.00501841 0)
(-0.0667196 -0.00511386 0)
(-0.0693702 -0.00519489 0)
(-0.072036 -0.00526204 0)
(-0.0747029 -0.00531632 0)
(-0.0773558 -0.00535906 0)
(-0.0799791 -0.00539148 0)
(-0.0825564 -0.00541478 0)
(-0.085071 -0.00543027 0)
(-0.0875059 -0.00543894 0)
(-0.0898431 -0.00544161 0)
(-0.0920651 -0.00543908 0)
(-0.0941536 -0.005432 0)
(-0.0960903 -0.00542077 0)
(-0.0978569 -0.00540562 0)
(-0.0994362 -0.00538694 0)
(-0.100812 -0.00536491 0)
(-0.10197 -0.00533952 0)
(-0.102899 -0.00531085 0)
(-0.103591 -0.00527896 0)
(-0.104042 -0.00524361 0)
(-0.104253 -0.00520455 0)
(-0.104229 -0.00516107 0)
(-0.103979 -0.00511269 0)
(-0.103516 -0.00505721 0)
(-0.102859 -0.00499355 0)
(-0.102025 -0.00491679 0)
(-0.101052 -0.00482896 0)
(-0.0999416 -0.00470053 0)
(-0.098495 -0.00448456 0)
(-0.00150958 -0.00091905 0)
(0.000812669 -2.70151e-05 0)
(0.00070315 -0.0075412 0)
(0.000411175 0.00656082 0)
(0.000269938 0.0380293 0)
(0.000137886 0.0396791 0)
(0.000119679 0.0395689 0)
(0.000105026 0.0395785 0)
(9.50194e-05 0.0395789 0)
(8.84826e-05 0.03958 0)
(8.57133e-05 0.039581 0)
(8.6959e-05 0.0395818 0)
(9.27016e-05 0.0395823 0)
(0.000103761 0.0395824 0)
(0.00012152 0.0395818 0)
(0.000147999 0.0395802 0)
(0.000182166 0.0395768 0)
(0.000252643 0.0395684 0)
(0.000420979 0.0395572 0)
(0.000457839 0.0395506 0)
(0.000459326 0.0395495 0)
(0.000459361 0.0395495 0)
(0.000459371 0.0395495 0)
(0.000459375 0.0395495 0)
(0.000459379 0.0395495 0)
(0.000459381 0.0395495 0)
(0.000459384 0.0395495 0)
(0.000459385 0.0395495 0)
(0.000459386 0.0395495 0)
(0.000459387 0.0395495 0)
(0.000459388 0.0395495 0)
(0.000459389 0.0395495 0)
(0.000459389 0.0395495 0)
(0.000459389 0.0395495 0)
(0.000459389 0.0395495 0)
(0.00045939 0.0395495 0)
(0.00045939 0.0395495 0)
(0.00045939 0.0395495 0)
(0.00045939 0.0395495 0)
(0.00045939 0.0395495 0)
(0.00045939 0.0395495 0)
(0.00045939 0.0395495 0)
(0.00045939 0.0395495 0)
(0.00045939 0.0395495 0)
(0.00045939 0.0395495 0)
(0.00045939 0.0395495 0)
(0.00045939 0.0395495 0)
(0.00045939 0.0395495 0)
(0.00045939 0.0395495 0)
(0.00045939 0.0395495 0)
(0.00045939 0.0395495 0)
(0.00045939 0.0395495 0)
(0.00045939 0.0395495 0)
(0.00045939 0.0395495 0)
(0.00045939 0.0395495 0)
(0.00045939 0.0395495 0)
(0.00045939 0.0395495 0)
(0.00045939 0.0395495 0)
(0.00045939 0.0395495 0)
(0.00045939 0.0395495 0)
(0.00045939 0.0395495 0)
(0.00045939 0.0395495 0)
(0.00045939 0.0395495 0)
(0.00045939 0.0395495 0)
(0.00045939 0.0395495 0)
(0.00045939 0.0395495 0)
(0.00045939 0.0395495 0)
(0.00045939 0.0395495 0)
(0.00045939 0.0395495 0)
(0.00045939 0.0395495 0)
(0.00045939 0.0395495 0)
(0.00045939 0.0395495 0)
(0.00045939 0.0395495 0)
(0.00045939 0.0395495 0)
(0.00045939 0.0395495 0)
(0.00045939 0.0395495 0)
(0.00045939 0.0395495 0)
(0.00045939 0.0395495 0)
(0.00045939 0.0395495 0)
(0.00045939 0.0395495 0)
(0.00045939 0.0395495 0)
(0.00045939 0.0395495 0)
(0.00045939 0.0395495 0)
(0.00045939 0.0395495 0)
(0.00045939 0.0395495 0)
(0.00045939 0.0395495 0)
(0.00045939 0.0395495 0)
(0.00045939 0.0395495 0)
(0.00045939 0.0395495 0)
(0.00045939 0.0395495 0)
(0.00045939 0.0395495 0)
(0.00045939 0.0395495 0)
(0.00045939 0.0395495 0)
(0.00045939 0.0395495 0)
(0.00045939 0.0395495 0)
(0.00045939 0.0395495 0)
(0.00045939 0.0395495 0)
(0.00045939 0.0395495 0)
(0.00045939 0.0395495 0)
(0.00045939 0.0395495 0)
(0.00045939 0.0395495 0)
(0.00045939 0.0395495 0)
(0.00045939 0.0395495 0)
(0.00045939 0.0395495 0)
(0.00045939 0.0395495 0)
(0.00045939 0.0395495 0)
(0.00045939 0.0395495 0)
(0.00045939 0.0395495 0)
(0.00045939 0.0395495 0)
(0.00045939 0.0395495 0)
(0.00045939 0.0395495 0)
(0.00045939 0.0395495 0)
(0.00045939 0.0395495 0)
(0.00045939 0.0395495 0)
(0.00045939 0.0395495 0)
(0.00045939 0.0395495 0)
(0.00045939 0.0395495 0)
(0.00045939 0.0395495 0)
(0.00045939 0.0395495 0)
(0.000459395 0.0395493 0)
(0.000459519 0.0395408 0)
(0.000462586 0.0391964 0)
(0.00053475 0.0224993 0)
)
;

boundaryField
{
    inandouthalf11
    {
        type            cyclic;
    }
    inandouthalf12
    {
        type            cyclic;
    }
    inandouthalf21
    {
        type            cyclic;
    }
    inandouthalf22
    {
        type            cyclic;
    }
    inandouthalf31
    {
        type            cyclic;
    }
    inandouthalf32
    {
        type            cyclic;
    }
    inandouthalf41
    {
        type            cyclic;
    }
    inandouthalf42
    {
        type            cyclic;
    }
    top
    {
        type            symmetryPlane;
    }
    walls
    {
        type            calculated;
        value           uniform (0 0 0);
    }
    frontAndBackPlanes
    {
        type            empty;
    }
}


// ************************************************************************* //
