/*--------------------------------*- C++ -*----------------------------------*\
| =========                 |                                                 |
| \\      /  F ield         | OpenFOAM: The Open Source CFD Toolbox           |
|  \\    /   O peration     | Version:  2.4.x                                 |
|   \\  /    A nd           | Web:      www.OpenFOAM.org                      |
|    \\/     M anipulation  |                                                 |
\*---------------------------------------------------------------------------*/
FoamFile
{
    version     2.0;
    format      ascii;
    class       volScalarField;
    location    "5.05";
    object      ddt0(alpha);
}
// * * * * * * * * * * * * * * * * * * * * * * * * * * * * * * * * * * * * * //

dimensions      [0 0 -1 0 0 0 0];

internalField   nonuniform List<scalar> 
360
(
0.000153988
0.000263328
0.000243595
0.000225473
0.000226599
0.000232851
0.00023714
0.00023919
0.000240126
0.000241253
0.000242951
0.000244959
0.000247067
0.000248992
0.000250771
0.000252522
0.00025432
0.000256184
0.000258132
0.00026032
0.000262604
0.000265303
0.000268372
0.00027182
0.000275551
0.000279343
0.000282832
0.000285697
0.00028724
0.000286968
0.00028459
0.000280444
0.000274873
0.000269782
0.00026654
0.000268024
0.000277079
0.000297631
0.000334187
0.000390499
0.000468056
0.000554007
0.000611571
0.000587437
0.000456278
0.000270948
0.000119056
3.85929e-05
9.52111e-06
1.82043e-06
1.37482e-07
-2.30022e-07
-3.30236e-07
-3.72378e-07
-4.08342e-07
-4.37088e-07
-4.61453e-07
-4.91208e-07
-5.06132e-07
-5.34922e-07
-5.564e-07
-5.70788e-07
-5.87967e-07
-5.98462e-07
-6.12748e-07
-6.31197e-07
-6.55423e-07
-6.78546e-07
-7.00553e-07
-7.32754e-07
-7.69287e-07
-7.8852e-07
-8.12491e-07
-8.39707e-07
-8.60873e-07
-8.78401e-07
-8.92569e-07
-9.13651e-07
-9.35948e-07
-9.5723e-07
-9.81451e-07
-1.00953e-06
-1.03632e-06
-1.06288e-06
-1.08871e-06
-1.11381e-06
-1.13777e-06
-1.16065e-06
-1.18502e-06
-1.21055e-06
-1.23696e-06
-1.26541e-06
-1.29558e-06
-1.32649e-06
-1.35823e-06
-1.39064e-06
-1.42356e-06
-1.45715e-06
-1.49173e-06
-1.52744e-06
-1.5644e-06
-1.60284e-06
-1.64279e-06
-1.68423e-06
-1.72726e-06
-1.77198e-06
-1.8185e-06
-1.86694e-06
-1.91747e-06
-1.97018e-06
-2.0252e-06
-2.08264e-06
-2.14263e-06
-2.20527e-06
-2.2707e-06
-2.33905e-06
-2.41046e-06
-2.48511e-06
-2.56319e-06
-2.6449e-06
-2.73042e-06
-2.81995e-06
-2.91366e-06
-3.01192e-06
-3.11548e-06
-3.22577e-06
-3.3448e-06
-3.47446e-06
-3.61501e-06
-3.76423e-06
-3.92018e-06
-4.0897e-06
-4.2936e-06
-4.54655e-06
-4.82335e-06
-5.08431e-06
-5.36807e-06
-5.8278e-06
-6.57954e-06
-7.32686e-06
-7.43747e-06
-7.95005e-06
-9.93371e-06
-1.2522e-05
-1.89956e-05
-7.45365e-05
0.000627762
0.122607
0.0330169
-0.00458841
-0.0147882
-0.0193439
-0.0212768
-0.0213127
-0.0199461
-0.0176998
-0.0150588
-0.0123901
-0.00992085
-0.0077611
-0.00594147
-0.00444543
-0.00324004
-0.00228052
-0.00152512
-0.000936066
-0.000481048
-0.000133147
0.000129617
0.000325023
0.000467334
0.000567966
0.000636024
0.000678753
0.0007019
0.000710026
0.000706889
0.000695953
0.000680877
0.000665477
0.00065268
0.000642672
0.000631581
0.000612416
0.000578635
0.000528165
0.0004648
0.0003961
0.000329688
0.00027057
0.000220972
0.000181782
0.00015287
0.000131831
0.000114379
9.74958e-05
8.11708e-05
6.67605e-05
5.49506e-05
4.53415e-05
3.73492e-05
3.09747e-05
2.60844e-05
2.17226e-05
1.77095e-05
1.48836e-05
1.2744e-05
1.04391e-05
8.58701e-06
7.3761e-06
6.1797e-06
5.12031e-06
4.35729e-06
3.62177e-06
3.02676e-06
2.61273e-06
2.1321e-06
1.74229e-06
1.52329e-06
1.25888e-06
1.02088e-06
8.61782e-07
7.13459e-07
6.00069e-07
4.88659e-07
3.9168e-07
3.3255e-07
2.64947e-07
2.09327e-07
1.7248e-07
1.38729e-07
1.12642e-07
8.4965e-08
5.21977e-08
3.57393e-08
2.5678e-08
-1.12503e-08
1.20197e-07
4.57636e-10
2.80076e-17
-5.58701e-20
-3.37243e-20
-1.86118e-20
-2.15802e-20
-2.54343e-20
-2.80286e-20
-2.83525e-20
-1.31244e-20
-4.87912e-21
-2.11482e-21
-1.02645e-21
-5.27026e-22
-3.25838e-22
-2.99679e-22
-3.54627e-22
-4.23919e-22
-2.52386e-22
-8.70744e-23
-3.64459e-23
-1.75141e-23
-8.94923e-24
-5.34424e-24
-4.37047e-24
-3.90469e-24
-1.63743e-24
-7.07019e-25
-3.4848e-25
-1.79008e-25
-1.02836e-25
-5.86984e-26
-2.72861e-26
-1.361e-26
-6.74888e-27
-3.28557e-27
-1.56734e-27
-7.32047e-28
-3.34489e-28
-1.4939e-28
-6.51576e-29
-2.77263e-29
-1.14989e-29
-4.64282e-30
-1.82288e-30
-6.9508e-31
-2.57055e-31
-9.20645e-32
-3.18821e-32
-1.06572e-32
-3.4321e-33
-1.0627e-33
-3.15651e-34
-8.97156e-35
-2.43325e-35
-6.27795e-36
-1.53548e-36
-3.54605e-37
-7.69766e-38
-1.56248e-38
-2.94758e-39
-5.13067e-40
-8.16899e-41
-1.17714e-41
-1.5148e-42
-1.71099e-43
-1.65741e-44
-1.33234e-45
-8.4517e-47
-3.87816e-48
-1.06567e-49
-7.82904e-52
-4.72884e-55
-6.26423e-57
-4.11808e-59
-8.89349e-70
-9.6328e-81
-7.54289e-92
-4.3717e-103
-2.13602e-114
-8.47109e-126
-3.06821e-137
-4.60147e-146
-1.41052e-156
-1.58683e-164
-4.437e-175
-5.45892e-183
-1.8493e-193
-1.87779e-201
-8.12776e-212
-6.46487e-220
-5.36416e-230
-2.24973e-238
-3.54114e-248
-7.95893e-257
-1.77169e-266
-2.86047e-275
-8.3942e-285
-1.04361e-293
-3.69854e-303
-3.87125e-312
-9.83685e-321
0
0
0
0
0
0
0
0
0
0
0
0
0
0
0
0
0
0
0
0
)
;

boundaryField
{
    inandouthalf11
    {
        type            cyclic;
    }
    inandouthalf12
    {
        type            cyclic;
    }
    inandouthalf21
    {
        type            cyclic;
    }
    inandouthalf22
    {
        type            cyclic;
    }
    inandouthalf31
    {
        type            cyclic;
    }
    inandouthalf32
    {
        type            cyclic;
    }
    inandouthalf41
    {
        type            cyclic;
    }
    inandouthalf42
    {
        type            cyclic;
    }
    top
    {
        type            symmetryPlane;
    }
    walls
    {
        type            calculated;
        value           uniform 0.000153988;
    }
    frontAndBackPlanes
    {
        type            empty;
    }
}


// ************************************************************************* //
