/*--------------------------------*- C++ -*----------------------------------*\
| =========                 |                                                 |
| \\      /  F ield         | OpenFOAM: The Open Source CFD Toolbox           |
|  \\    /   O peration     | Version:  2.4.x                                 |
|   \\  /    A nd           | Web:      www.OpenFOAM.org                      |
|    \\/     M anipulation  |                                                 |
\*---------------------------------------------------------------------------*/
FoamFile
{
    version     2.0;
    format      ascii;
    class       volScalarField;
    location    "5.05";
    object      epsilon_0;
}
// * * * * * * * * * * * * * * * * * * * * * * * * * * * * * * * * * * * * * //

dimensions      [0 2 -3 0 0 0 0];

internalField   nonuniform List<scalar> 
360
(
1.60309e-27
1e-20
1e-20
1e-20
1e-20
1e-20
1e-20
1e-20
1e-20
1e-20
1e-20
1e-20
1e-20
1e-20
1e-20
1e-20
1e-20
1e-20
1e-20
1e-20
1e-20
1e-20
1e-20
1e-20
1e-20
1e-20
1e-20
1e-20
1e-20
1e-20
1e-20
1e-20
1e-20
1e-20
1e-20
1e-20
1e-20
1e-20
1e-20
1e-20
1e-20
1e-20
1e-20
1e-20
1e-20
1e-20
1e-20
1e-20
1e-20
1e-20
1e-20
1e-20
1e-20
1e-20
1e-20
1e-20
1e-20
1e-20
1e-20
1e-20
1e-20
1e-20
1e-20
1e-20
1e-20
1e-20
1e-20
1e-20
1e-20
1e-20
1e-20
1e-20
1e-20
1e-20
1e-20
1e-20
1e-20
1e-20
1e-20
1e-20
1e-20
1e-20
1e-20
1e-20
1e-20
1e-20
1e-20
1e-20
1e-20
1e-20
1e-20
1e-20
1e-20
1e-20
1e-20
1e-20
1e-20
1e-20
1e-20
1e-20
1e-20
1e-20
1e-20
1e-20
1e-20
1e-20
1e-20
1e-20
1e-20
1e-20
1e-20
1e-20
1e-20
1e-20
1e-20
1e-20
1e-20
1e-20
1e-20
1e-20
1e-20
1e-20
1e-20
1e-20
1e-20
1e-20
1e-20
1e-20
1e-20
1e-20
1e-20
1e-20
3.20792e-20
1.84176e-19
1.17019e-18
8.03973e-18
6.07919e-17
5.15817e-16
5.00227e-15
5.63664e-14
7.4884e-13
1.18901e-11
2.28638e-10
5.38287e-09
1.56465e-07
5.65176e-06
0.000250325
0.00970852
0.104202
0.178213
0.187218
0.180092
0.168114
0.15502
0.142259
0.130391
0.119589
0.109855
0.101116
0.093273
0.086221
0.0798607
0.0741029
0.0688692
0.0640921
0.0597134
0.0556839
0.0519614
0.04851
0.045299
0.0423024
0.0394979
0.0368663
0.0343912
0.0320586
0.0298566
0.0277747
0.0258043
0.0239378
0.0221689
0.0204923
0.0189035
0.0173988
0.0159754
0.0146306
0.0133627
0.0121701
0.0110516
0.010006
0.00903259
0.0081303
0.0072981
0.00653473
0.00583864
0.0052079
0.00464016
0.00413262
0.00368201
0.00328467
0.00293657
0.00263345
0.00236828
0.00213581
0.00193348
0.00175856
0.00160822
0.00147969
0.00137029
0.00127753
0.00119912
0.00113302
0.00107739
0.00103064
0.000991361
0.000958315
0.000930424
0.00090674
0.000886426
0.000868736
0.000853005
0.000838632
0.000825075
0.000811841
0.00079848
0.000784581
0.000769769
0.000753704
0.000736077
0.000716614
0.000695073
0.000671246
0.000644964
0.000616094
0.00058455
0.000550291
0.000513335
0.00047376
0.00043172
0.000387455
0.000341312
0.000293763
0.000245435
0.000197154
0.000149991
0.000105339
6.50276e-05
3.15513e-05
8.42965e-06
6.59746e-07
1.3991e-08
2.10312e-10
2.96194e-12
3.94114e-14
4.95788e-16
5.9065e-18
7.45941e-20
1.00606e-20
1e-20
1e-20
1e-20
1e-20
1e-20
1e-20
1e-20
1e-20
1e-20
1e-20
1e-20
1e-20
1e-20
1e-20
1e-20
1e-20
1e-20
1e-20
1e-20
1e-20
1e-20
1e-20
1e-20
1e-20
1e-20
1e-20
1e-20
1e-20
1e-20
1e-20
1e-20
1e-20
1e-20
1e-20
1e-20
1e-20
1e-20
1e-20
1e-20
1e-20
1e-20
1e-20
1e-20
1e-20
1e-20
1e-20
1e-20
1e-20
1e-20
1e-20
1e-20
1e-20
1e-20
1e-20
1e-20
1e-20
1e-20
1e-20
1e-20
1e-20
1e-20
1e-20
1e-20
1e-20
1e-20
1e-20
1e-20
1e-20
1e-20
1e-20
1e-20
1e-20
1e-20
1e-20
1e-20
1e-20
1e-20
1e-20
1e-20
1e-20
1e-20
1e-20
1e-20
1e-20
1e-20
1e-20
1e-20
1e-20
1e-20
1e-20
1e-20
1e-20
1e-20
1e-20
1e-20
1e-20
1e-20
1e-20
1e-20
1e-20
1e-20
1e-20
1e-20
)
;

boundaryField
{
    inandouthalf11
    {
        type            cyclic;
    }
    inandouthalf12
    {
        type            cyclic;
    }
    inandouthalf21
    {
        type            cyclic;
    }
    inandouthalf22
    {
        type            cyclic;
    }
    inandouthalf31
    {
        type            cyclic;
    }
    inandouthalf32
    {
        type            cyclic;
    }
    inandouthalf41
    {
        type            cyclic;
    }
    inandouthalf42
    {
        type            cyclic;
    }
    top
    {
        type            symmetryPlane;
    }
    walls
    {
        type            zeroGradient;
    }
    frontAndBackPlanes
    {
        type            empty;
    }
}


// ************************************************************************* //
