/*--------------------------------*- C++ -*----------------------------------*\
| =========                 |                                                 |
| \\      /  F ield         | OpenFOAM: The Open Source CFD Toolbox           |
|  \\    /   O peration     | Version:  2.4.x                                 |
|   \\  /    A nd           | Web:      www.OpenFOAM.org                      |
|    \\/     M anipulation  |                                                 |
\*---------------------------------------------------------------------------*/
FoamFile
{
    version     2.0;
    format      ascii;
    class       volVectorField;
    location    "5.05";
    object      gradPf;
}
// * * * * * * * * * * * * * * * * * * * * * * * * * * * * * * * * * * * * * //

dimensions      [0 1 -2 0 0 0 0];

internalField   nonuniform List<vector> 
360
(
(0 47.4901 0)
(0 58.5812 0)
(0 6.26949 0)
(0 -8.98324 0)
(-3.34681e-14 -6.16847 0)
(-3.34695e-14 -3.84561 0)
(-3.34708e-14 -3.68425 0)
(0 -3.77173 0)
(-3.34734e-14 -3.82374 0)
(0 -3.95563 0)
(-3.34762e-14 -4.01158 0)
(0 -4.00318 0)
(-3.34791e-14 -3.97757 0)
(0 -3.9462 0)
(0 -3.94766 0)
(0 -3.96324 0)
(0 -3.96744 0)
(-1.67432e-14 -3.96015 0)
(0 -3.97477 0)
(0 -3.9641 0)
(0 -3.95843 0)
(-1.67462e-14 -3.984 0)
(0 -3.99038 0)
(0 -4.00618 0)
(0 -4.02284 0)
(-3.34988e-14 -4.02717 0)
(0 -4.05018 0)
(0 -4.06544 0)
(0 -4.0401 0)
(0 -4.00064 0)
(0 -3.96937 0)
(0 -3.87758 0)
(0 -3.8125 0)
(0 -3.75074 0)
(0 -3.677 0)
(1.67577e-14 -3.67913 0)
(0 -3.75281 0)
(0 -3.97038 0)
(0 -4.24895 0)
(0 -4.73567 0)
(0 -5.39604 0)
(0 -5.96476 0)
(3.35306e-14 -6.31173 0)
(0 -5.98072 0)
(0 -4.85311 0)
(0 -3.43681 0)
(0 -2.22832 0)
(0 -1.60547 0)
(0 -1.49466 0)
(0 -1.47704 0)
(1.67715e-14 -1.52515 0)
(0 -1.63444 0)
(0 -1.73635 0)
(0 -1.82997 0)
(0 -1.95879 0)
(0 -2.07338 0)
(0 -2.17412 0)
(0 -2.30366 0)
(0 -2.36706 0)
(0 -2.49418 0)
(0 -2.58758 0)
(0 -2.64567 0)
(0 -2.71262 0)
(0 -2.74452 0)
(0 -2.78827 0)
(0 -2.84522 0)
(0 -2.9231 0)
(0 -2.99286 0)
(0 -3.05552 0)
(0 -3.15843 0)
(0 -3.27688 0)
(0 -3.32197 0)
(0 -3.38426 0)
(0 -3.45813 0)
(0 -3.50513 0)
(0 -3.53627 0)
(0 -3.55225 0)
(0 -3.59305 0)
(0 -3.6359 0)
(0 -3.67244 0)
(0 -3.71711 0)
(0 -3.77305 0)
(0 -3.82116 0)
(0 -3.86534 0)
(0 -3.90395 0)
(0 -3.93692 0)
(0 -3.96308 0)
(0 -3.98258 0)
(0 -4.0041 0)
(0 -4.02624 0)
(0 -4.04795 0)
(0 -4.07269 0)
(0 -4.09925 0)
(0 -4.1244 0)
(0 -4.1483 0)
(0 -4.17045 0)
(0 -4.19029 0)
(0 -4.20817 0)
(0 -4.22489 0)
(0 -4.24069 0)
(0 -4.25573 0)
(0 -4.27037 0)
(0 -4.28448 0)
(0 -4.2978 0)
(0 -4.31033 0)
(0 -4.32207 0)
(0 -4.33302 0)
(0 -4.34324 0)
(0 -4.35275 0)
(0 -4.36151 0)
(0 -4.36945 0)
(0 -4.37648 0)
(0 -4.3825 0)
(0 -4.3874 0)
(0 -4.39106 0)
(0 -4.39335 0)
(0 -4.39418 0)
(0 -4.39343 0)
(0 -4.39101 0)
(0 -4.38681 0)
(0 -4.38065 0)
(0 -4.37231 0)
(0 -4.36154 0)
(0 -4.34829 0)
(0 -4.33301 0)
(0 -4.31683 0)
(0 -4.3013 0)
(0 -4.28743 0)
(0 -4.27399 0)
(0 -4.25706 0)
(0 -4.23364 0)
(0 -4.21003 0)
(0 -4.20426 0)
(0 -4.2245 0)
(0 -4.24183 0)
(0 -4.2209 0)
(0 -4.194 0)
(0 -4.26583 0)
(0 -4.48271 0)
(0 -4.6176 0)
(0 -4.32414 0)
(0 -4.21812 0)
(0 -4.75722 0)
(0 -5.30215 0)
(0 -6.651 0)
(0 -11.436 0)
(0 -13.1359 0)
(0 -6.46649 0)
(0 0 0)
(0 0 0)
(0 0 0)
(0 0 0)
(0 0 0)
(0 0 0)
(0 0 0)
(0 0 0)
(0 0 0)
(0 0 0)
(0 0 0)
(0 0 0)
(0 0 0)
(0 0 0)
(0 0 0)
(0 0 0)
(0 0 0)
(0 0 0)
(0 0 0)
(0 0 0)
(0 0 0)
(0 0 0)
(0 0 0)
(0 0 0)
(0 0 0)
(0 0 0)
(0 0 0)
(0 0 0)
(0 0 0)
(0 0 0)
(0 0 0)
(0 0 0)
(0 0 0)
(0 0 0)
(0 0 0)
(0 0 0)
(0 0 0)
(0 0 0)
(0 0 0)
(0 0 0)
(0 0 0)
(0 0 0)
(0 0 0)
(0 0 0)
(0 0 0)
(0 0 0)
(0 0 0)
(0 0 0)
(0 0 0)
(0 0 0)
(0 0 0)
(0 0 0)
(0 0 0)
(0 0 0)
(0 0 0)
(0 0 0)
(0 0 0)
(0 0 0)
(0 0 0)
(0 0 0)
(0 0 0)
(0 0 0)
(0 0 0)
(0 0 0)
(0 0 0)
(0 0 0)
(0 0 0)
(0 0 0)
(0 0 0)
(0 0 0)
(0 0 0)
(0 0 0)
(0 0 0)
(0 0 0)
(0 0 0)
(0 0 0)
(0 0 0)
(0 0 0)
(0 0 0)
(0 0 0)
(0 0 0)
(0 0 0)
(0 0 0)
(0 0 0)
(0 0 0)
(0 0 0)
(0 0 0)
(0 0 0)
(0 0 0)
(0 0 0)
(0 0 0)
(0 0 0)
(0 0 0)
(0 0 0)
(0 0 0)
(0 0 0)
(0 0 0)
(0 0 0)
(0 0 0)
(0 0 0)
(0 0 0)
(0 0 0)
(0 0 0)
(0 0 0)
(0 0 0)
(0 0 0)
(0 0 0)
(0 0 0)
(0 0 0)
(0 0 0)
(0 0 0)
(0 0 0)
(0 0 0)
(0 0 0)
(0 0 0)
(0 0 0)
(0 0 0)
(0 0 0)
(0 0 0)
(0 0 0)
(0 0 0)
(0 0 0)
(0 0 0)
(0 0 0)
(0 0 0)
(0 0 0)
(0 0 0)
(0 0 0)
(0 0 0)
(0 0 0)
(0 0 0)
(0 0 0)
(0 0 0)
(0 0 0)
(0 0 0)
(0 0 0)
(0 0 0)
(0 0 0)
(0 0 0)
(0 0 0)
(0 0 0)
(0 0 0)
(0 0 0)
(0 0 0)
(0 0 0)
(0 0 0)
(0 0 0)
(0 0 0)
(0 0 0)
(0 0 0)
(0 0 0)
(0 0 0)
(0 0 0)
(0 0 0)
(0 0 0)
(0 0 0)
(0 0 0)
(0 0 0)
(0 0 0)
(0 0 0)
(0 0 0)
(0 0 0)
(0 0 0)
(0 0 0)
(0 0 0)
(0 0 0)
(0 0 0)
(0 0 0)
(0 0 0)
(0 0 0)
(0 0 0)
(0 0 0)
(0 0 0)
(0 0 0)
(0 0 0)
(0 0 0)
(0 0 0)
(0 0 0)
(0 0 0)
(0 0 0)
(0 0 0)
(0 0 0)
(0 0 0)
(0 0 0)
(0 0 0)
(0 0 0)
(0 0 0)
(0 0 0)
(0 0 0)
(0 0 0)
(0 0 0)
(0 0 0)
(0 0 0)
(0 0 0)
(0 0 0)
(0 0 0)
(0 0 0)
(0 0 0)
(0 0 0)
(0 0 0)
(0 0 0)
(0 0 0)
(0 0 0)
(0 0 0)
(0 0 0)
(0 0 0)
(0 0 0)
(0 0 0)
(0 0 0)
(0 0 0)
(0 0 0)
(0 0 0)
)
;

boundaryField
{
    inandouthalf11
    {
        type            cyclic;
    }
    inandouthalf12
    {
        type            cyclic;
    }
    inandouthalf21
    {
        type            cyclic;
    }
    inandouthalf22
    {
        type            cyclic;
    }
    inandouthalf31
    {
        type            cyclic;
    }
    inandouthalf32
    {
        type            cyclic;
    }
    inandouthalf41
    {
        type            cyclic;
    }
    inandouthalf42
    {
        type            cyclic;
    }
    top
    {
        type            symmetryPlane;
    }
    walls
    {
        type            calculated;
        value           uniform (0 0 0);
    }
    frontAndBackPlanes
    {
        type            empty;
    }
}


// ************************************************************************* //
