/*--------------------------------*- C++ -*----------------------------------*\
| =========                 |                                                 |
| \\      /  F ield         | OpenFOAM: The Open Source CFD Toolbox           |
|  \\    /   O peration     | Version:  2.4.x                                 |
|   \\  /    A nd           | Web:      www.OpenFOAM.org                      |
|    \\/     M anipulation  |                                                 |
\*---------------------------------------------------------------------------*/
FoamFile
{
    version     2.0;
    format      ascii;
    class       volScalarField;
    location    "5.05";
    object      k;
}
// * * * * * * * * * * * * * * * * * * * * * * * * * * * * * * * * * * * * * //

dimensions      [0 2 -2 0 0 0 0];

internalField   nonuniform List<scalar> 
360
(
1e-20
1e-20
1e-20
1e-20
1e-20
1e-20
1e-20
1e-20
1e-20
1e-20
1e-20
1e-20
1e-20
1e-20
1e-20
1e-20
1e-20
1e-20
1e-20
1e-20
1e-20
1e-20
1e-20
1e-20
1e-20
1e-20
1e-20
1e-20
1e-20
1e-20
1e-20
1e-20
1e-20
1e-20
1e-20
1e-20
1e-20
1e-20
1e-20
1e-20
1e-20
1e-20
1e-20
1e-20
1e-20
1e-20
1e-20
1e-20
1e-20
1e-20
1e-20
1e-20
1e-20
1e-20
1e-20
1e-20
1e-20
1e-20
1e-20
1e-20
1e-20
1e-20
1e-20
1e-20
1e-20
1e-20
1e-20
1e-20
1e-20
1e-20
1e-20
1e-20
1e-20
1e-20
1e-20
1e-20
1e-20
1e-20
1e-20
1e-20
1e-20
1e-20
1e-20
1e-20
1e-20
1e-20
1e-20
1e-20
1e-20
1e-20
1e-20
1e-20
1e-20
1e-20
1e-20
1e-20
1e-20
1e-20
1e-20
1e-20
1e-20
1e-20
1e-20
1e-20
1e-20
1e-20
1e-20
1e-20
1e-20
1e-20
1e-20
1e-20
1e-20
1e-20
1e-20
1e-20
1e-20
1e-20
1e-20
1e-20
1e-20
1e-20
1e-20
1e-20
1e-20
1e-20
1e-20
1e-20
1e-20
1e-20
1e-20
1e-20
2.18852e-20
1.09766e-19
6.15672e-19
3.67999e-18
2.38328e-17
1.70667e-16
1.37886e-15
1.2801e-14
1.38687e-13
1.77804e-12
2.73885e-11
5.13489e-10
1.18257e-08
3.37147e-07
1.17226e-05
0.000352979
0.0030306
0.00568872
0.00696485
0.00769567
0.00814736
0.00843498
0.00861841
0.00873084
0.00879142
0.00881173
0.00879923
0.00875911
0.00869522
0.00861062
0.00850784
0.00838901
0.00825596
0.00811031
0.00795344
0.00778661
0.0076109
0.00742732
0.00723676
0.00704003
0.0068379
0.00663106
0.00642019
0.00620593
0.00598891
0.00576972
0.00554899
0.00532732
0.00510534
0.00488369
0.00466304
0.00444407
0.00422749
0.00401403
0.00380445
0.00359951
0.0034
0.0032067
0.0030204
0.00284187
0.00267184
0.00251098
0.00235985
0.00221893
0.00208853
0.00196881
0.00185977
0.00176122
0.00167282
0.00159328
0.00152164
0.00145769
0.00140105
0.00135128
0.00130784
0.00127016
0.00123763
0.00120966
0.00118568
0.00116512
0.00114748
0.00113226
0.001119
0.0011073
0.00109674
0.00108696
0.00107761
0.00106834
0.00105886
0.00104884
0.001038
0.00102607
0.00101277
0.000997856
0.000981074
0.000962197
0.000941006
0.000917295
0.000890875
0.000861573
0.000829233
0.000793725
0.000754941
0.000712805
0.000667278
0.000618365
0.000566127
0.000510698
0.000452302
0.000391283
0.000328155
0.000263662
0.000198895
0.000135506
7.62183e-05
2.57021e-05
2.52228e-06
5.7338e-08
8.59306e-10
1.20393e-11
1.59375e-13
1.99485e-15
2.36276e-17
2.72871e-19
1.19547e-20
1e-20
1e-20
1e-20
1e-20
1e-20
1e-20
1e-20
1e-20
1e-20
1e-20
1e-20
1e-20
1e-20
1e-20
1e-20
1e-20
1e-20
1e-20
1e-20
1e-20
1e-20
1e-20
1e-20
1e-20
1e-20
1e-20
1e-20
1e-20
1e-20
1e-20
1e-20
1e-20
1e-20
1e-20
1e-20
1e-20
1e-20
1e-20
1e-20
1e-20
1e-20
1e-20
1e-20
1e-20
1e-20
1e-20
1e-20
1e-20
1e-20
1e-20
1e-20
1e-20
1e-20
1e-20
1e-20
1e-20
1e-20
1e-20
1e-20
1e-20
1e-20
1e-20
1e-20
1e-20
1e-20
1e-20
1e-20
1e-20
1e-20
1e-20
1e-20
1e-20
1e-20
1e-20
1e-20
1e-20
1e-20
1e-20
1e-20
1e-20
1e-20
1e-20
1e-20
1e-20
1e-20
1e-20
1e-20
1e-20
1e-20
1e-20
1e-20
1e-20
1e-20
1e-20
1e-20
1e-20
1e-20
1e-20
1e-20
1e-20
1e-20
1e-20
1e-20
)
;

boundaryField
{
    inandouthalf11
    {
        type            cyclic;
    }
    inandouthalf12
    {
        type            cyclic;
    }
    inandouthalf21
    {
        type            cyclic;
    }
    inandouthalf22
    {
        type            cyclic;
    }
    inandouthalf31
    {
        type            cyclic;
    }
    inandouthalf32
    {
        type            cyclic;
    }
    inandouthalf41
    {
        type            cyclic;
    }
    inandouthalf42
    {
        type            cyclic;
    }
    top
    {
        type            symmetryPlane;
    }
    walls
    {
        type            zeroGradient;
    }
    frontAndBackPlanes
    {
        type            empty;
    }
}


// ************************************************************************* //
