/*--------------------------------*- C++ -*----------------------------------*\
| =========                 |                                                 |
| \\      /  F ield         | OpenFOAM: The Open Source CFD Toolbox           |
|  \\    /   O peration     | Version:  2.4.x                                 |
|   \\  /    A nd           | Web:      www.OpenFOAM.org                      |
|    \\/     M anipulation  |                                                 |
\*---------------------------------------------------------------------------*/
FoamFile
{
    version     2.0;
    format      ascii;
    class       volScalarField;
    location    "5.05";
    object      mua;
}
// * * * * * * * * * * * * * * * * * * * * * * * * * * * * * * * * * * * * * //

dimensions      [1 -1 -1 0 0 0 0];

internalField   nonuniform List<scalar> 
360
(
644502
404437
477268
514043
497236
478151
466779
459811
454616
449151
442656
435600
428570
421950
415696
409571
403451
397319
391104
384720
378192
371280
363952
356290
348456
340760
333575
327317
322630
320041
319765
321666
325137
328466
329449
324829
311402
287224
253417
214490
176854
147388
131489
134871
171135
284554
640685
1.95344e+06
7.6948e+06
3.53515e+07
1.63592e+08
6.5173e+08
1.98906e+09
4.38891e+09
6.98944e+09
8.38953e+09
8.17722e+09
7.01579e+09
5.68313e+09
4.56564e+09
3.74561e+09
3.18882e+09
2.83092e+09
2.61783e+09
2.50689e+09
2.46534e+09
2.46619e+09
2.48763e+09
2.51164e+09
2.52311e+09
2.51121e+09
2.47468e+09
2.41754e+09
2.34356e+09
2.26004e+09
2.17366e+09
2.08999e+09
2.01065e+09
1.93546e+09
1.86374e+09
1.7944e+09
1.72591e+09
1.65774e+09
1.59031e+09
1.52451e+09
1.46154e+09
1.40252e+09
1.34833e+09
1.29919e+09
1.25479e+09
1.21453e+09
1.17762e+09
1.14322e+09
1.11068e+09
1.07957e+09
1.04967e+09
1.02088e+09
9.93227e+08
9.66714e+08
9.4134e+08
9.17078e+08
8.93872e+08
8.71659e+08
8.50378e+08
8.29979e+08
8.10414e+08
7.9163e+08
7.73569e+08
7.56155e+08
7.393e+08
7.22898e+08
7.06825e+08
6.90944e+08
6.75096e+08
6.59109e+08
6.428e+08
6.25988e+08
6.0851e+08
5.90246e+08
5.71152e+08
5.51292e+08
5.30867e+08
5.10223e+08
4.89839e+08
4.70281e+08
4.52151e+08
4.36051e+08
4.22586e+08
4.12413e+08
4.06256e+08
4.04773e+08
4.08141e+08
4.15498e+08
4.24819e+08
4.33835e+08
4.41097e+08
4.45152e+08
4.43186e+08
4.3494e+08
4.33769e+08
4.75502e+08
6.23108e+08
9.90763e+08
1.87676e+09
3.58992e+09
3.24716e+09
1.02284
0.0250879
0.0114332
0.00900727
0.00777928
0.00696793
0.00643355
0.0060932
0.00588755
0.0057712
0.0057105
0.00568197
0.0056701
0.00566518
0.00566142
0.00565555
0.00564584
0.00563148
0.00561224
0.00558816
0.00555948
0.00552652
0.00548967
0.00544931
0.00540587
0.00535976
0.0053114
0.0052612
0.00520959
0.00515697
0.00510375
0.0050503
0.004997
0.0049442
0.00489221
0.00484132
0.00479175
0.00474366
0.00469716
0.00465229
0.00460902
0.00456732
0.00452711
0.0044883
0.00445081
0.00441455
0.00437943
0.00434538
0.00431227
0.00428001
0.00424846
0.00421752
0.00418707
0.00415701
0.00412725
0.00409742
0.00406712
0.0040363
0.00400485
0.00397271
0.00393978
0.00390598
0.00387121
0.00383538
0.00379838
0.00376012
0.00372047
0.00367931
0.00363652
0.00359194
0.00354542
0.00349677
0.0034458
0.00339229
0.00333596
0.00327653
0.00321365
0.0031469
0.0030758
0.00299973
0.00291797
0.00282956
0.0027333
0.00262758
0.00251016
0.00237784
0.00222565
0.00204527
0.00182071
0.00151264
0
0
0
0
0
0
0
0
0
0
0
0
0
0
0
0
0
0
0
0
0
0
0
0
0
0
0
0
0
0
0
0
0
0
0
0
0
0
0
0
0
0
0
0
0
0
0
0
0
0
0
0
0
0
0
0
0
0
0
0
0
0
0
0
0
0
0
0
0
0
0
0
0
0
0
0
0
0
0
0
0
0
0
0
0
0
0
0
0
0
0
0
0
0
0
0
0
0
0
0
0
0
0
0
0
0
0
0
0
0
0
0
0
0
0
0
0
0
0
0
0
0
0
0
)
;

boundaryField
{
    inandouthalf11
    {
        type            cyclic;
    }
    inandouthalf12
    {
        type            cyclic;
    }
    inandouthalf21
    {
        type            cyclic;
    }
    inandouthalf22
    {
        type            cyclic;
    }
    inandouthalf31
    {
        type            cyclic;
    }
    inandouthalf32
    {
        type            cyclic;
    }
    inandouthalf41
    {
        type            cyclic;
    }
    inandouthalf42
    {
        type            cyclic;
    }
    top
    {
        type            symmetryPlane;
    }
    walls
    {
        type            calculated;
        value           uniform 1e+30;
    }
    frontAndBackPlanes
    {
        type            empty;
    }
}


// ************************************************************************* //
