/*--------------------------------*- C++ -*----------------------------------*\
| =========                 |                                                 |
| \\      /  F ield         | OpenFOAM: The Open Source CFD Toolbox           |
|  \\    /   O peration     | Version:  2.4.x                                 |
|   \\  /    A nd           | Web:      www.OpenFOAM.org                      |
|    \\/     M anipulation  |                                                 |
\*---------------------------------------------------------------------------*/
FoamFile
{
    version     2.0;
    format      ascii;
    class       surfaceScalarField;
    location    "5.05";
    object      phia;
}
// * * * * * * * * * * * * * * * * * * * * * * * * * * * * * * * * * * * * * //

dimensions      [0 3 -1 0 0 0 0];

internalField   nonuniform List<scalar> 
359
(
-5.03558e-13
-1.36518e-12
-2.16231e-12
-2.90003e-12
-3.64164e-12
-4.40369e-12
-5.17983e-12
-5.96273e-12
-6.74877e-12
-7.53857e-12
-8.33399e-12
-9.13606e-12
-9.9451e-12
-1.07605e-11
-1.15818e-11
-1.24089e-11
-1.3242e-11
-1.40812e-11
-1.49269e-11
-1.57799e-11
-1.66403e-11
-1.75098e-11
-1.83893e-11
-1.92802e-11
-2.01835e-11
-2.10992e-11
-2.20265e-11
-2.29633e-11
-2.39052e-11
-2.48464e-11
-2.57799e-11
-2.67e-11
-2.76018e-11
-2.84871e-11
-2.93617e-11
-3.02412e-11
-3.11504e-11
-3.21268e-11
-3.3223e-11
-3.45038e-11
-3.6039e-11
-3.78566e-11
-3.98644e-11
-4.17951e-11
-4.3297e-11
-4.41908e-11
-4.45847e-11
-4.47132e-11
-4.47457e-11
-4.47527e-11
-4.47542e-11
-4.47546e-11
-4.47547e-11
-4.47548e-11
-4.47548e-11
-4.47549e-11
-4.47549e-11
-4.47549e-11
-4.4755e-11
-4.4755e-11
-4.47551e-11
-4.47551e-11
-4.47552e-11
-4.47553e-11
-4.47554e-11
-4.47555e-11
-4.47556e-11
-4.47557e-11
-4.47558e-11
-4.47558e-11
-4.47559e-11
-4.4756e-11
-4.47561e-11
-4.47562e-11
-4.47563e-11
-4.47564e-11
-4.47565e-11
-4.47566e-11
-4.47567e-11
-4.47568e-11
-4.47569e-11
-4.4757e-11
-4.47571e-11
-4.47572e-11
-4.47573e-11
-4.47574e-11
-4.47575e-11
-4.47577e-11
-4.47578e-11
-4.47579e-11
-4.47581e-11
-4.47582e-11
-4.47583e-11
-4.47585e-11
-4.47586e-11
-4.47588e-11
-4.47589e-11
-4.4759e-11
-4.47592e-11
-4.47593e-11
-4.47595e-11
-4.47596e-11
-4.47598e-11
-4.47599e-11
-4.47601e-11
-4.47602e-11
-4.47604e-11
-4.47605e-11
-4.47607e-11
-4.47608e-11
-4.47609e-11
-4.47611e-11
-4.47612e-11
-4.47614e-11
-4.47615e-11
-4.47617e-11
-4.47618e-11
-4.4762e-11
-4.47621e-11
-4.47622e-11
-4.47624e-11
-4.47625e-11
-4.47627e-11
-4.47628e-11
-4.47629e-11
-4.47631e-11
-4.47632e-11
-4.47634e-11
-4.47635e-11
-4.47636e-11
-4.47637e-11
-4.47638e-11
-4.47639e-11
-4.4764e-11
-4.47641e-11
-4.47642e-11
-4.47643e-11
-4.47643e-11
-4.47644e-11
-4.47644e-11
-4.47645e-11
-4.47645e-11
-4.47645e-11
-4.47645e-11
-4.47645e-11
-4.47645e-11
-5.51189e-11
-7.32586e-10
-1.2604e-09
-1.57567e-09
-1.74499e-09
-1.84434e-09
-1.88376e-09
-1.86361e-09
-1.78166e-09
-1.63601e-09
-1.42592e-09
-1.15181e-09
-8.15051e-10
-4.17624e-10
3.81388e-11
5.49551e-10
1.11419e-09
1.72947e-09
2.39292e-09
3.10214e-09
3.85475e-09
4.64845e-09
5.48088e-09
6.34967e-09
7.25234e-09
8.18627e-09
9.14861e-09
1.01362e-08
1.11457e-08
1.21729e-08
1.32134e-08
1.42612e-08
1.53081e-08
1.63409e-08
1.7339e-08
1.82737e-08
1.91113e-08
1.98196e-08
2.03778e-08
2.07822e-08
2.10469e-08
2.11984e-08
2.12683e-08
2.12862e-08
2.12771e-08
2.12592e-08
2.12413e-08
2.12218e-08
2.11935e-08
2.11521e-08
2.10986e-08
2.10368e-08
2.09701e-08
2.09004e-08
2.08295e-08
2.07585e-08
2.06876e-08
2.06142e-08
2.05407e-08
2.04702e-08
2.03977e-08
2.0322e-08
2.02485e-08
2.01741e-08
2.00954e-08
2.00162e-08
1.99342e-08
1.98463e-08
1.97575e-08
1.96628e-08
1.95577e-08
1.94522e-08
1.93398e-08
1.92139e-08
1.90839e-08
1.89431e-08
1.87916e-08
1.86301e-08
1.84471e-08
1.82552e-08
1.8044e-08
1.78046e-08
1.75494e-08
1.72632e-08
1.69444e-08
1.65791e-08
1.61481e-08
1.56596e-08
1.52406e-08
1.4686e-08
1.83767e-08
2.14447e-10
-1.07936e-07
-1.58498e-07
-1.58465e-07
-1.58472e-07
-1.58472e-07
-1.58467e-07
-1.58454e-07
-1.58429e-07
-1.58385e-07
-1.58272e-07
-1.58203e-07
-1.582e-07
-1.582e-07
-1.582e-07
-1.582e-07
-1.582e-07
-1.582e-07
-1.582e-07
-1.582e-07
-1.582e-07
-1.582e-07
-1.582e-07
-1.582e-07
-1.582e-07
-1.582e-07
-1.582e-07
-1.582e-07
-1.582e-07
-1.582e-07
-1.582e-07
-1.582e-07
-1.582e-07
-1.582e-07
-1.582e-07
-1.582e-07
-1.582e-07
-1.582e-07
-1.582e-07
-1.582e-07
-1.582e-07
-1.582e-07
-1.582e-07
-1.582e-07
-1.582e-07
-1.582e-07
-1.582e-07
-1.582e-07
-1.582e-07
-1.582e-07
-1.582e-07
-1.582e-07
-1.582e-07
-1.582e-07
-1.582e-07
-1.582e-07
-1.582e-07
-1.582e-07
-1.582e-07
-1.582e-07
-1.582e-07
-1.582e-07
-1.582e-07
-1.582e-07
-1.582e-07
-1.582e-07
-1.582e-07
-1.582e-07
-1.582e-07
-1.582e-07
-1.582e-07
-1.582e-07
-1.582e-07
-1.582e-07
-1.582e-07
-1.582e-07
-1.582e-07
-1.582e-07
-1.582e-07
-1.582e-07
-1.582e-07
-1.582e-07
-1.582e-07
-1.582e-07
-1.582e-07
-1.582e-07
-1.582e-07
-1.582e-07
-1.582e-07
-1.582e-07
-1.582e-07
-1.582e-07
-1.582e-07
-1.582e-07
-1.582e-07
-1.582e-07
-1.582e-07
-1.582e-07
-1.582e-07
-1.582e-07
-1.582e-07
-1.582e-07
-1.582e-07
-1.582e-07
-1.582e-07
-1.582e-07
-1.582e-07
-1.582e-07
-1.582e-07
-1.582e-07
-1.582e-07
-1.582e-07
-1.582e-07
-1.582e-07
-1.582e-07
-1.582e-07
-1.582e-07
-1.582e-07
-1.582e-07
-1.58183e-07
-1.57477e-07
-1.32608e-07
)
;

boundaryField
{
    inandouthalf11
    {
        type            cyclic;
        value           nonuniform List<scalar> 
100
(
1.01156e-38
3.85702e-14
8.44621e-14
1.25278e-13
1.65286e-13
2.06762e-13
2.49571e-13
2.9322e-13
3.37442e-13
3.82177e-13
4.27502e-13
4.73514e-13
5.20263e-13
5.67748e-13
6.15945e-13
6.64848e-13
7.14467e-13
7.64824e-13
8.15946e-13
8.67872e-13
9.2065e-13
9.74344e-13
1.02905e-12
1.08485e-12
1.14185e-12
1.20008e-12
1.25956e-12
1.32021e-12
1.38183e-12
1.44409e-12
1.50658e-12
1.56885e-12
1.63056e-12
1.69156e-12
1.75211e-12
1.81292e-12
1.8754e-12
1.94173e-12
2.01508e-12
2.09973e-12
2.20082e-12
2.32267e-12
2.46418e-12
2.61217e-12
2.74085e-12
2.82717e-12
2.86964e-12
2.88477e-12
2.88884e-12
2.88975e-12
2.88994e-12
2.88999e-12
2.89001e-12
2.89001e-12
2.89002e-12
2.89002e-12
2.89002e-12
2.89002e-12
2.89003e-12
2.89003e-12
2.89004e-12
2.89004e-12
2.89005e-12
2.89006e-12
2.89007e-12
2.89007e-12
2.89008e-12
2.89009e-12
2.8901e-12
2.89011e-12
2.89012e-12
2.89013e-12
2.89013e-12
2.89014e-12
2.89015e-12
2.89016e-12
2.89017e-12
2.89018e-12
2.89019e-12
2.8902e-12
2.89021e-12
2.89023e-12
2.89024e-12
2.89025e-12
2.89026e-12
2.89028e-12
2.89029e-12
2.8903e-12
2.89032e-12
2.89033e-12
2.89035e-12
2.89037e-12
2.89038e-12
2.8904e-12
2.89042e-12
2.89043e-12
2.89045e-12
2.89047e-12
2.89049e-12
2.89051e-12
)
;
    }
    inandouthalf12
    {
        type            cyclic;
        value           nonuniform List<scalar> 
100
(
-1.01156e-38
-3.85702e-14
-8.44621e-14
-1.25278e-13
-1.65286e-13
-2.06762e-13
-2.49571e-13
-2.9322e-13
-3.37442e-13
-3.82177e-13
-4.27502e-13
-4.73514e-13
-5.20263e-13
-5.67748e-13
-6.15945e-13
-6.64848e-13
-7.14467e-13
-7.64824e-13
-8.15946e-13
-8.67872e-13
-9.2065e-13
-9.74344e-13
-1.02905e-12
-1.08485e-12
-1.14185e-12
-1.20008e-12
-1.25956e-12
-1.32021e-12
-1.38183e-12
-1.44409e-12
-1.50658e-12
-1.56885e-12
-1.63056e-12
-1.69156e-12
-1.75211e-12
-1.81292e-12
-1.8754e-12
-1.94173e-12
-2.01508e-12
-2.09973e-12
-2.20082e-12
-2.32267e-12
-2.46418e-12
-2.61217e-12
-2.74085e-12
-2.82717e-12
-2.86964e-12
-2.88477e-12
-2.88884e-12
-2.88975e-12
-2.88994e-12
-2.88999e-12
-2.89001e-12
-2.89001e-12
-2.89002e-12
-2.89002e-12
-2.89002e-12
-2.89002e-12
-2.89003e-12
-2.89003e-12
-2.89004e-12
-2.89004e-12
-2.89005e-12
-2.89006e-12
-2.89007e-12
-2.89007e-12
-2.89008e-12
-2.89009e-12
-2.8901e-12
-2.89011e-12
-2.89012e-12
-2.89013e-12
-2.89013e-12
-2.89014e-12
-2.89015e-12
-2.89016e-12
-2.89017e-12
-2.89018e-12
-2.89019e-12
-2.8902e-12
-2.89021e-12
-2.89023e-12
-2.89024e-12
-2.89025e-12
-2.89026e-12
-2.89028e-12
-2.89029e-12
-2.8903e-12
-2.89032e-12
-2.89033e-12
-2.89035e-12
-2.89037e-12
-2.89038e-12
-2.8904e-12
-2.89042e-12
-2.89043e-12
-2.89045e-12
-2.89047e-12
-2.89049e-12
-2.89051e-12
)
;
    }
    inandouthalf21
    {
        type            cyclic;
        value           nonuniform List<scalar> 
100
(
2.89053e-12
2.89054e-12
2.89056e-12
2.89058e-12
2.8906e-12
2.89062e-12
2.89065e-12
2.89067e-12
2.89069e-12
2.89071e-12
2.89073e-12
2.89075e-12
2.89077e-12
2.89079e-12
2.89082e-12
2.89084e-12
2.89086e-12
2.89089e-12
2.89091e-12
2.89093e-12
2.89096e-12
2.89098e-12
2.89101e-12
2.89103e-12
2.89106e-12
2.89108e-12
2.89111e-12
2.89114e-12
2.89117e-12
2.8912e-12
2.89122e-12
2.89125e-12
2.89128e-12
2.8913e-12
2.89133e-12
2.89135e-12
2.89137e-12
2.8914e-12
2.89142e-12
2.89144e-12
2.89146e-12
2.89147e-12
2.89148e-12
2.89149e-12
2.89149e-12
2.89149e-12
2.8915e-12
4.08763e-09
8.8568e-08
1.86502e-07
2.6387e-07
3.26996e-07
3.79684e-07
4.24448e-07
4.63028e-07
4.96687e-07
5.26379e-07
5.52835e-07
5.76622e-07
5.98184e-07
6.17869e-07
6.35951e-07
6.52649e-07
6.68137e-07
6.82555e-07
6.96017e-07
7.08615e-07
7.20425e-07
7.31507e-07
7.41915e-07
7.51689e-07
7.60867e-07
7.69477e-07
7.77546e-07
7.85096e-07
7.92146e-07
7.98714e-07
8.04816e-07
8.10467e-07
8.15684e-07
8.20481e-07
8.24876e-07
8.28886e-07
8.32534e-07
8.35841e-07
8.38834e-07
8.41539e-07
8.43981e-07
8.46187e-07
8.48177e-07
8.49974e-07
8.51593e-07
8.53051e-07
8.54364e-07
8.55546e-07
8.56613e-07
8.57579e-07
8.58458e-07
8.5926e-07
8.59995e-07
)
;
    }
    inandouthalf22
    {
        type            cyclic;
        value           nonuniform List<scalar> 
100
(
-2.89053e-12
-2.89054e-12
-2.89056e-12
-2.89058e-12
-2.8906e-12
-2.89062e-12
-2.89065e-12
-2.89067e-12
-2.89069e-12
-2.89071e-12
-2.89073e-12
-2.89075e-12
-2.89077e-12
-2.89079e-12
-2.89082e-12
-2.89084e-12
-2.89086e-12
-2.89089e-12
-2.89091e-12
-2.89093e-12
-2.89096e-12
-2.89098e-12
-2.89101e-12
-2.89103e-12
-2.89106e-12
-2.89108e-12
-2.89111e-12
-2.89114e-12
-2.89117e-12
-2.8912e-12
-2.89122e-12
-2.89125e-12
-2.89128e-12
-2.8913e-12
-2.89133e-12
-2.89135e-12
-2.89137e-12
-2.8914e-12
-2.89142e-12
-2.89144e-12
-2.89146e-12
-2.89147e-12
-2.89148e-12
-2.89149e-12
-2.89149e-12
-2.89149e-12
-2.8915e-12
-4.08763e-09
-8.8568e-08
-1.86502e-07
-2.6387e-07
-3.26996e-07
-3.79684e-07
-4.24448e-07
-4.63028e-07
-4.96687e-07
-5.26379e-07
-5.52835e-07
-5.76622e-07
-5.98184e-07
-6.17869e-07
-6.35951e-07
-6.52649e-07
-6.68137e-07
-6.82555e-07
-6.96017e-07
-7.08615e-07
-7.20425e-07
-7.31507e-07
-7.41915e-07
-7.51689e-07
-7.60867e-07
-7.69477e-07
-7.77546e-07
-7.85096e-07
-7.92146e-07
-7.98714e-07
-8.04816e-07
-8.10467e-07
-8.15684e-07
-8.20481e-07
-8.24876e-07
-8.28886e-07
-8.32534e-07
-8.35841e-07
-8.38834e-07
-8.41539e-07
-8.43981e-07
-8.46187e-07
-8.48177e-07
-8.49974e-07
-8.51593e-07
-8.53051e-07
-8.54364e-07
-8.55546e-07
-8.56613e-07
-8.57579e-07
-8.58458e-07
-8.5926e-07
-8.59995e-07
)
;
    }
    inandouthalf31
    {
        type            cyclic;
        value           nonuniform List<scalar> 
110
(
8.60673e-07
8.78785e-07
8.97241e-07
9.1605e-07
9.35222e-07
9.54767e-07
9.74694e-07
9.95014e-07
1.01574e-06
1.03687e-06
1.05842e-06
1.08041e-06
1.10284e-06
1.12572e-06
1.14906e-06
1.17287e-06
1.19717e-06
1.22196e-06
1.24725e-06
1.27305e-06
1.29938e-06
1.32624e-06
1.35365e-06
1.38161e-06
1.41014e-06
1.43924e-06
1.46894e-06
1.49923e-06
1.53014e-06
1.56167e-06
1.59383e-06
1.62663e-06
1.6601e-06
1.69424e-06
1.72903e-06
1.76445e-06
1.80065e-06
1.90134e-06
1.93632e-06
1.97082e-06
2.00484e-06
2.04017e-06
2.07611e-06
2.11282e-06
2.15041e-06
2.18901e-06
2.22881e-06
2.27059e-06
2.31536e-06
2.36222e-06
2.41016e-06
2.45908e-06
2.50899e-06
2.55991e-06
2.61187e-06
2.66489e-06
2.71897e-06
2.77416e-06
2.83047e-06
2.88792e-06
2.94654e-06
3.00634e-06
3.06736e-06
3.12962e-06
3.19315e-06
3.25796e-06
3.32409e-06
3.39156e-06
3.4604e-06
3.53063e-06
3.60229e-06
3.67541e-06
3.75001e-06
3.82613e-06
3.90379e-06
3.98302e-06
4.06387e-06
4.14636e-06
4.23052e-06
4.31638e-06
4.40399e-06
4.49338e-06
4.58459e-06
4.67764e-06
4.77259e-06
4.86946e-06
4.96829e-06
5.06914e-06
5.17203e-06
5.27701e-06
5.38411e-06
5.4934e-06
5.6049e-06
5.71866e-06
5.83474e-06
5.95317e-06
6.074e-06
6.19729e-06
6.32308e-06
6.45142e-06
6.58236e-06
6.71597e-06
6.85228e-06
6.99137e-06
7.13327e-06
7.27806e-06
7.42578e-06
7.57651e-06
7.73029e-06
7.8872e-06
)
;
    }
    inandouthalf32
    {
        type            cyclic;
        value           nonuniform List<scalar> 
110
(
-8.60673e-07
-8.78785e-07
-8.97241e-07
-9.1605e-07
-9.35222e-07
-9.54767e-07
-9.74694e-07
-9.95014e-07
-1.01574e-06
-1.03687e-06
-1.05842e-06
-1.08041e-06
-1.10284e-06
-1.12572e-06
-1.14906e-06
-1.17287e-06
-1.19717e-06
-1.22196e-06
-1.24725e-06
-1.27305e-06
-1.29938e-06
-1.32624e-06
-1.35365e-06
-1.38161e-06
-1.41014e-06
-1.43924e-06
-1.46894e-06
-1.49923e-06
-1.53014e-06
-1.56167e-06
-1.59383e-06
-1.62663e-06
-1.6601e-06
-1.69424e-06
-1.72903e-06
-1.76445e-06
-1.80065e-06
-1.90134e-06
-1.93632e-06
-1.97082e-06
-2.00484e-06
-2.04017e-06
-2.07611e-06
-2.11282e-06
-2.15041e-06
-2.18901e-06
-2.22881e-06
-2.27059e-06
-2.31536e-06
-2.36222e-06
-2.41016e-06
-2.45908e-06
-2.50899e-06
-2.55991e-06
-2.61187e-06
-2.66489e-06
-2.71897e-06
-2.77416e-06
-2.83047e-06
-2.88792e-06
-2.94654e-06
-3.00634e-06
-3.06736e-06
-3.12962e-06
-3.19315e-06
-3.25796e-06
-3.32409e-06
-3.39156e-06
-3.4604e-06
-3.53063e-06
-3.60229e-06
-3.67541e-06
-3.75001e-06
-3.82613e-06
-3.90379e-06
-3.98302e-06
-4.06387e-06
-4.14636e-06
-4.23052e-06
-4.31638e-06
-4.40399e-06
-4.49338e-06
-4.58459e-06
-4.67764e-06
-4.77259e-06
-4.86946e-06
-4.96829e-06
-5.06914e-06
-5.17203e-06
-5.27701e-06
-5.38411e-06
-5.4934e-06
-5.6049e-06
-5.71866e-06
-5.83474e-06
-5.95317e-06
-6.074e-06
-6.19729e-06
-6.32308e-06
-6.45142e-06
-6.58236e-06
-6.71597e-06
-6.85228e-06
-6.99137e-06
-7.13327e-06
-7.27806e-06
-7.42578e-06
-7.57651e-06
-7.73029e-06
-7.8872e-06
)
;
    }
    inandouthalf41
    {
        type            cyclic;
        value           nonuniform List<scalar> 
50
(
7.05984e-06
7.05984e-06
7.05984e-06
7.05984e-06
7.05984e-06
7.05984e-06
7.05984e-06
7.05984e-06
7.05984e-06
7.05984e-06
7.05984e-06
7.05984e-06
7.05984e-06
7.05984e-06
7.05984e-06
7.05984e-06
7.05984e-06
7.05984e-06
7.05984e-06
7.05984e-06
7.05984e-06
7.05984e-06
7.05984e-06
7.05984e-06
7.05984e-06
7.05984e-06
7.05984e-06
7.05984e-06
7.05984e-06
7.05984e-06
7.05984e-06
7.05984e-06
7.05984e-06
7.05984e-06
7.05984e-06
7.05984e-06
7.05984e-06
7.05984e-06
7.05984e-06
7.05984e-06
7.05984e-06
7.05984e-06
7.05984e-06
7.05984e-06
7.05984e-06
7.05984e-06
7.05984e-06
7.05984e-06
7.05984e-06
7.05985e-06
)
;
    }
    inandouthalf42
    {
        type            cyclic;
        value           nonuniform List<scalar> 
50
(
-7.05984e-06
-7.05984e-06
-7.05984e-06
-7.05984e-06
-7.05984e-06
-7.05984e-06
-7.05984e-06
-7.05984e-06
-7.05984e-06
-7.05984e-06
-7.05984e-06
-7.05984e-06
-7.05984e-06
-7.05984e-06
-7.05984e-06
-7.05984e-06
-7.05984e-06
-7.05984e-06
-7.05984e-06
-7.05984e-06
-7.05984e-06
-7.05984e-06
-7.05984e-06
-7.05984e-06
-7.05984e-06
-7.05984e-06
-7.05984e-06
-7.05984e-06
-7.05984e-06
-7.05984e-06
-7.05984e-06
-7.05984e-06
-7.05984e-06
-7.05984e-06
-7.05984e-06
-7.05984e-06
-7.05984e-06
-7.05984e-06
-7.05984e-06
-7.05984e-06
-7.05984e-06
-7.05984e-06
-7.05984e-06
-7.05984e-06
-7.05984e-06
-7.05984e-06
-7.05984e-06
-7.05984e-06
-7.05984e-06
-7.05985e-06
)
;
    }
    top
    {
        type            symmetryPlane;
        value           uniform 0;
    }
    walls
    {
        type            fixedValue;
        value           uniform 0;
    }
    frontAndBackPlanes
    {
        type            empty;
        value           nonuniform 0();
    }
}


// ************************************************************************* //
