/*--------------------------------*- C++ -*----------------------------------*\
| =========                 |                                                 |
| \\      /  F ield         | OpenFOAM: The Open Source CFD Toolbox           |
|  \\    /   O peration     | Version:  2.4.x                                 |
|   \\  /    A nd           | Web:      www.OpenFOAM.org                      |
|    \\/     M anipulation  |                                                 |
\*---------------------------------------------------------------------------*/
FoamFile
{
    version     2.0;
    format      ascii;
    class       surfaceScalarField;
    location    "5.05";
    object      phib_0;
}
// * * * * * * * * * * * * * * * * * * * * * * * * * * * * * * * * * * * * * //

dimensions      [0 3 -1 0 0 0 0];

internalField   nonuniform List<scalar> 
359
(
7.90501e-13
2.1467e-12
3.40074e-12
4.55992e-12
5.72507e-12
6.9224e-12
8.14166e-12
9.37129e-12
1.06056e-11
1.18455e-11
1.30939e-11
1.43525e-11
1.56217e-11
1.69007e-11
1.81886e-11
1.94854e-11
2.07912e-11
2.21064e-11
2.34313e-11
2.47674e-11
2.61149e-11
2.74761e-11
2.88528e-11
3.0247e-11
3.16601e-11
3.30925e-11
3.45425e-11
3.6007e-11
3.74792e-11
3.89498e-11
4.04079e-11
4.18447e-11
4.32526e-11
4.46342e-11
4.59989e-11
4.73709e-11
4.8789e-11
5.03118e-11
5.20214e-11
5.40187e-11
5.64123e-11
5.92454e-11
6.23732e-11
6.53781e-11
6.77126e-11
6.90988e-11
6.97071e-11
6.9903e-11
6.99495e-11
6.99564e-11
6.99546e-11
6.99506e-11
6.9946e-11
6.9941e-11
6.99355e-11
6.99297e-11
6.99236e-11
6.9917e-11
6.99103e-11
6.99031e-11
6.98957e-11
6.9888e-11
6.98801e-11
6.9872e-11
6.98638e-11
6.98553e-11
6.98465e-11
6.98374e-11
6.9828e-11
6.98182e-11
6.98079e-11
6.97973e-11
6.97865e-11
6.97753e-11
6.97638e-11
6.97521e-11
6.97401e-11
6.97279e-11
6.97155e-11
6.97027e-11
6.96896e-11
6.96761e-11
6.96623e-11
6.96482e-11
6.96337e-11
6.96188e-11
6.96037e-11
6.95882e-11
6.95724e-11
6.95563e-11
6.95399e-11
6.9523e-11
6.95058e-11
6.94882e-11
6.94701e-11
6.94517e-11
6.94328e-11
6.94135e-11
6.93937e-11
6.93735e-11
6.93528e-11
6.93316e-11
6.931e-11
6.92877e-11
6.92649e-11
6.92416e-11
6.92176e-11
6.91931e-11
6.91679e-11
6.9142e-11
6.91154e-11
6.90881e-11
6.90601e-11
6.90312e-11
6.90015e-11
6.8971e-11
6.89395e-11
6.89071e-11
6.88737e-11
6.88393e-11
6.88038e-11
6.87672e-11
6.87294e-11
6.86904e-11
6.865e-11
6.86083e-11
6.85651e-11
6.85202e-11
6.84736e-11
6.84252e-11
6.83748e-11
6.83223e-11
6.82673e-11
6.82091e-11
6.81475e-11
6.80827e-11
6.80143e-11
6.79403e-11
6.78568e-11
6.7764e-11
6.767e-11
6.75697e-11
6.74447e-11
6.72876e-11
6.705e-11
6.6409e-11
6.85078e-11
5.09753e-10
4.64151e-10
4.17515e-10
3.62987e-10
3.051e-10
2.48113e-10
1.95098e-10
1.48077e-10
1.08001e-10
7.49343e-11
4.83594e-11
2.74624e-11
1.13433e-11
-8.60139e-13
-9.90895e-12
-1.64543e-11
-2.10298e-11
-2.40682e-11
-2.59165e-11
-2.68506e-11
-2.70891e-11
-2.68042e-11
-2.61317e-11
-2.51778e-11
-2.40258e-11
-2.27405e-11
-2.13722e-11
-1.99597e-11
-1.85327e-11
-1.71134e-11
-1.57171e-11
-1.4352e-11
-1.30184e-11
-1.1711e-11
-1.04241e-11
-9.15984e-12
-7.93418e-12
-6.77632e-12
-5.71956e-12
-4.78964e-12
-3.99721e-12
-3.33767e-12
-2.7964e-12
-2.35436e-12
-1.99072e-12
-1.68492e-12
-1.42121e-12
-1.19241e-12
-9.97395e-13
-8.35031e-13
-7.01493e-13
-5.91578e-13
-5.00885e-13
-4.26178e-13
-3.62964e-13
-3.08651e-13
-2.62502e-13
-2.24114e-13
-1.91198e-13
-1.62442e-13
-1.38408e-13
-1.18237e-13
-1.00559e-13
-8.5448e-14
-7.26732e-14
-6.15813e-14
-5.21747e-14
-4.41539e-14
-3.70897e-14
-3.1208e-14
-2.63041e-14
-2.19295e-14
-1.82408e-14
-1.51888e-14
-1.25601e-14
-1.03396e-14
-8.43405e-15
-6.85077e-15
-5.55593e-15
-4.4342e-15
-3.52235e-15
-2.78723e-15
-2.16921e-15
-1.66196e-15
-1.24173e-15
-9.18246e-16
-7.15421e-16
-5.73641e-16
-4.6968e-16
-5.08671e-16
-9.9593e-18
-7.75174e-18
-7.55215e-18
-7.31951e-18
-7.10879e-18
-6.87311e-18
-6.65359e-18
-6.41959e-18
-6.19949e-18
-5.95817e-18
-5.72324e-18
-5.48039e-18
-5.25309e-18
-5.01319e-18
-4.78221e-18
-4.5342e-18
-4.29743e-18
-4.04633e-18
-3.80702e-18
-3.55612e-18
-3.31574e-18
-3.06589e-18
-2.82578e-18
-2.58183e-18
-2.34899e-18
-2.1182e-18
-1.90441e-18
-1.7045e-18
-1.52147e-18
-1.31586e-18
-1.15299e-18
-9.99271e-19
-8.53499e-19
-7.14261e-19
-5.80801e-19
-4.54582e-19
-3.36343e-19
-2.25578e-19
-1.24545e-19
-2.43704e-20
6.33e-20
1.46757e-19
2.19343e-19
3.14202e-19
3.91673e-19
4.64365e-19
5.06609e-19
5.65186e-19
5.84037e-19
5.53915e-19
5.30361e-19
5.56873e-19
5.44221e-19
5.28917e-19
4.65093e-19
4.33705e-19
3.60901e-19
2.92969e-19
2.03332e-19
2.20918e-19
2.40262e-19
2.70669e-19
3.46621e-19
3.81209e-19
3.91955e-19
4.03538e-19
3.91832e-19
4.23072e-19
4.30852e-19
4.40164e-19
4.22327e-19
4.25431e-19
4.03321e-19
3.85163e-19
3.52422e-19
3.51987e-19
3.40932e-19
3.31949e-19
3.11644e-19
2.99779e-19
2.78432e-19
2.58098e-19
2.30194e-19
2.11866e-19
1.8877e-19
1.65701e-19
1.38223e-19
1.12949e-19
8.59341e-20
5.77066e-20
2.90498e-20
-8.5911e-21
-4.64594e-20
-8.50879e-20
-1.25975e-19
-1.65904e-19
-2.07373e-19
-2.49672e-19
-2.90603e-19
-3.39134e-19
-3.83028e-19
-4.2657e-19
-4.60147e-19
-5.11375e-19
-5.35465e-19
-5.65479e-19
-5.51863e-19
-6.6388e-19
-6.95202e-19
-7.28519e-19
-6.27708e-19
-6.5695e-19
-4.71557e-19
-2.79168e-19
2.86961e-19
2.67823e-19
7.86533e-19
1.36607e-18
2.76658e-18
3.52891e-18
5.59048e-18
8.99075e-18
)
;

boundaryField
{
    inandouthalf11
    {
        type            cyclic;
        value           nonuniform List<scalar> 
100
(
-4.25477e-13
-3.85316e-13
-3.38942e-13
-2.98325e-13
-2.5849e-13
-2.17099e-13
-1.74366e-13
-1.30796e-13
-8.66521e-14
-4.19992e-14
3.23992e-15
4.91664e-14
9.58291e-14
1.43228e-13
1.9134e-13
2.40155e-13
2.89687e-13
3.39956e-13
3.90989e-13
4.42826e-13
4.95515e-13
5.4912e-13
6.03732e-13
6.59447e-13
7.16351e-13
7.74497e-13
8.33885e-13
8.94434e-13
9.55954e-13
1.01812e-12
1.08051e-12
1.14268e-12
1.20428e-12
1.26518e-12
1.32563e-12
1.38636e-12
1.44876e-12
1.51501e-12
1.58831e-12
1.67293e-12
1.77399e-12
1.89581e-12
2.03722e-12
2.18496e-12
2.31324e-12
2.39915e-12
2.44133e-12
2.45631e-12
2.4603e-12
2.46115e-12
2.4613e-12
2.46129e-12
2.46125e-12
2.46119e-12
2.46113e-12
2.46107e-12
2.461e-12
2.46092e-12
2.46084e-12
2.46076e-12
2.46067e-12
2.46059e-12
2.4605e-12
2.46041e-12
2.46031e-12
2.46022e-12
2.46012e-12
2.46002e-12
2.45991e-12
2.4598e-12
2.45968e-12
2.45956e-12
2.45944e-12
2.45931e-12
2.45918e-12
2.45904e-12
2.4589e-12
2.45876e-12
2.45862e-12
2.45847e-12
2.45832e-12
2.45817e-12
2.45801e-12
2.45785e-12
2.45768e-12
2.45751e-12
2.45734e-12
2.45716e-12
2.45698e-12
2.45679e-12
2.45661e-12
2.45641e-12
2.45621e-12
2.45601e-12
2.45581e-12
2.45559e-12
2.45538e-12
2.45515e-12
2.45492e-12
2.45469e-12
)
;
    }
    inandouthalf12
    {
        type            cyclic;
        value           nonuniform List<scalar> 
100
(
4.25477e-13
3.85316e-13
3.38942e-13
2.98325e-13
2.5849e-13
2.17099e-13
1.74366e-13
1.30796e-13
8.66521e-14
4.19992e-14
-3.23992e-15
-4.91664e-14
-9.58291e-14
-1.43228e-13
-1.9134e-13
-2.40155e-13
-2.89687e-13
-3.39956e-13
-3.90989e-13
-4.42826e-13
-4.95515e-13
-5.4912e-13
-6.03732e-13
-6.59447e-13
-7.16351e-13
-7.74497e-13
-8.33885e-13
-8.94434e-13
-9.55954e-13
-1.01812e-12
-1.08051e-12
-1.14268e-12
-1.20428e-12
-1.26518e-12
-1.32563e-12
-1.38636e-12
-1.44876e-12
-1.51501e-12
-1.58831e-12
-1.67293e-12
-1.77399e-12
-1.89581e-12
-2.03722e-12
-2.18496e-12
-2.31324e-12
-2.39915e-12
-2.44133e-12
-2.45631e-12
-2.4603e-12
-2.46115e-12
-2.4613e-12
-2.46129e-12
-2.46125e-12
-2.46119e-12
-2.46113e-12
-2.46107e-12
-2.461e-12
-2.46092e-12
-2.46084e-12
-2.46076e-12
-2.46067e-12
-2.46059e-12
-2.4605e-12
-2.46041e-12
-2.46031e-12
-2.46022e-12
-2.46012e-12
-2.46002e-12
-2.45991e-12
-2.4598e-12
-2.45968e-12
-2.45956e-12
-2.45944e-12
-2.45931e-12
-2.45918e-12
-2.45904e-12
-2.4589e-12
-2.45876e-12
-2.45862e-12
-2.45847e-12
-2.45832e-12
-2.45817e-12
-2.45801e-12
-2.45785e-12
-2.45768e-12
-2.45751e-12
-2.45734e-12
-2.45716e-12
-2.45698e-12
-2.45679e-12
-2.45661e-12
-2.45641e-12
-2.45621e-12
-2.45601e-12
-2.45581e-12
-2.45559e-12
-2.45538e-12
-2.45515e-12
-2.45492e-12
-2.45469e-12
)
;
    }
    inandouthalf21
    {
        type            cyclic;
        value           nonuniform List<scalar> 
100
(
2.45445e-12
2.45421e-12
2.45395e-12
2.45369e-12
2.45343e-12
2.45316e-12
2.45288e-12
2.45259e-12
2.4523e-12
2.45199e-12
2.45168e-12
2.45136e-12
2.45103e-12
2.45068e-12
2.45033e-12
2.44997e-12
2.44959e-12
2.44921e-12
2.44881e-12
2.4484e-12
2.44797e-12
2.44753e-12
2.44708e-12
2.4466e-12
2.44612e-12
2.44561e-12
2.44509e-12
2.44454e-12
2.44398e-12
2.44338e-12
2.44277e-12
2.44212e-12
2.44144e-12
2.44073e-12
2.43996e-12
2.43915e-12
2.43829e-12
2.43738e-12
2.43636e-12
2.43519e-12
2.43392e-12
2.4327e-12
2.43123e-12
2.42932e-12
2.42696e-12
2.43126e-12
1.12171e-11
5.22527e-09
9.78009e-08
1.95377e-07
2.71164e-07
3.32937e-07
3.84676e-07
4.28793e-07
4.66955e-07
5.00379e-07
5.29982e-07
5.56469e-07
5.80387e-07
6.02165e-07
6.22142e-07
6.40588e-07
6.57721e-07
6.73717e-07
6.8872e-07
7.02848e-07
7.162e-07
7.28857e-07
7.40889e-07
7.52354e-07
7.63302e-07
7.73774e-07
7.83806e-07
7.9343e-07
8.02671e-07
8.11551e-07
8.2009e-07
8.28304e-07
8.36207e-07
8.43808e-07
8.51118e-07
8.58143e-07
8.64889e-07
8.71359e-07
8.77556e-07
8.83479e-07
8.89129e-07
8.94504e-07
8.99601e-07
9.04419e-07
9.08955e-07
9.13206e-07
9.17168e-07
9.20841e-07
9.24224e-07
9.27316e-07
9.30122e-07
9.32644e-07
9.34891e-07
9.36872e-07
)
;
    }
    inandouthalf22
    {
        type            cyclic;
        value           nonuniform List<scalar> 
100
(
-2.45445e-12
-2.45421e-12
-2.45395e-12
-2.45369e-12
-2.45343e-12
-2.45316e-12
-2.45288e-12
-2.45259e-12
-2.4523e-12
-2.45199e-12
-2.45168e-12
-2.45136e-12
-2.45103e-12
-2.45068e-12
-2.45033e-12
-2.44997e-12
-2.44959e-12
-2.44921e-12
-2.44881e-12
-2.4484e-12
-2.44797e-12
-2.44753e-12
-2.44708e-12
-2.4466e-12
-2.44612e-12
-2.44561e-12
-2.44509e-12
-2.44454e-12
-2.44398e-12
-2.44338e-12
-2.44277e-12
-2.44212e-12
-2.44144e-12
-2.44073e-12
-2.43996e-12
-2.43915e-12
-2.43829e-12
-2.43738e-12
-2.43636e-12
-2.43519e-12
-2.43392e-12
-2.4327e-12
-2.43123e-12
-2.42932e-12
-2.42696e-12
-2.43126e-12
-1.12171e-11
-5.22527e-09
-9.78009e-08
-1.95377e-07
-2.71164e-07
-3.32937e-07
-3.84676e-07
-4.28793e-07
-4.66955e-07
-5.00379e-07
-5.29982e-07
-5.56469e-07
-5.80387e-07
-6.02165e-07
-6.22142e-07
-6.40588e-07
-6.57721e-07
-6.73717e-07
-6.8872e-07
-7.02848e-07
-7.162e-07
-7.28857e-07
-7.40889e-07
-7.52354e-07
-7.63302e-07
-7.73774e-07
-7.83806e-07
-7.9343e-07
-8.02671e-07
-8.11551e-07
-8.2009e-07
-8.28304e-07
-8.36207e-07
-8.43808e-07
-8.51118e-07
-8.58143e-07
-8.64889e-07
-8.71359e-07
-8.77556e-07
-8.83479e-07
-8.89129e-07
-8.94504e-07
-8.99601e-07
-9.04419e-07
-9.08955e-07
-9.13206e-07
-9.17168e-07
-9.20841e-07
-9.24224e-07
-9.27316e-07
-9.30122e-07
-9.32644e-07
-9.34891e-07
-9.36872e-07
)
;
    }
    inandouthalf31
    {
        type            cyclic;
        value           nonuniform List<scalar> 
110
(
9.38601e-07
9.59183e-07
9.79998e-07
1.00105e-06
1.02234e-06
1.04387e-06
1.06565e-06
1.08769e-06
1.11e-06
1.13259e-06
1.15546e-06
1.17863e-06
1.2021e-06
1.22587e-06
1.24997e-06
1.27439e-06
1.29913e-06
1.32422e-06
1.34964e-06
1.3754e-06
1.40151e-06
1.42798e-06
1.4548e-06
1.48199e-06
1.50954e-06
1.53747e-06
1.56577e-06
1.59445e-06
1.62353e-06
1.653e-06
1.68287e-06
1.71315e-06
1.74386e-06
1.77499e-06
1.80657e-06
1.83861e-06
1.87112e-06
1.90412e-06
1.93763e-06
1.97169e-06
2.00633e-06
2.04159e-06
2.07752e-06
2.1142e-06
2.15172e-06
2.19023e-06
2.22992e-06
2.27118e-06
2.31541e-06
2.36221e-06
2.41014e-06
2.45906e-06
2.50897e-06
2.5599e-06
2.61185e-06
2.66487e-06
2.71895e-06
2.77414e-06
2.83045e-06
2.8879e-06
2.94652e-06
3.00632e-06
3.06734e-06
3.1296e-06
3.19312e-06
3.25793e-06
3.32406e-06
3.39153e-06
3.46037e-06
3.53061e-06
3.60227e-06
3.67539e-06
3.74999e-06
3.8261e-06
3.90376e-06
3.983e-06
4.06384e-06
4.14633e-06
4.23048e-06
4.31635e-06
4.40396e-06
4.49335e-06
4.58455e-06
4.67761e-06
4.77255e-06
4.86942e-06
4.96826e-06
5.0691e-06
5.17199e-06
5.27697e-06
5.38408e-06
5.49336e-06
5.60486e-06
5.71862e-06
5.83469e-06
5.95312e-06
6.07396e-06
6.19724e-06
6.32303e-06
6.45137e-06
6.58231e-06
6.71592e-06
6.85223e-06
6.99132e-06
7.13322e-06
7.27801e-06
7.42573e-06
7.57645e-06
7.73023e-06
7.88714e-06
)
;
    }
    inandouthalf32
    {
        type            cyclic;
        value           nonuniform List<scalar> 
110
(
-9.38601e-07
-9.59183e-07
-9.79998e-07
-1.00105e-06
-1.02234e-06
-1.04387e-06
-1.06565e-06
-1.08769e-06
-1.11e-06
-1.13259e-06
-1.15546e-06
-1.17863e-06
-1.2021e-06
-1.22587e-06
-1.24997e-06
-1.27439e-06
-1.29913e-06
-1.32422e-06
-1.34964e-06
-1.3754e-06
-1.40151e-06
-1.42798e-06
-1.4548e-06
-1.48199e-06
-1.50954e-06
-1.53747e-06
-1.56577e-06
-1.59445e-06
-1.62353e-06
-1.653e-06
-1.68287e-06
-1.71315e-06
-1.74386e-06
-1.77499e-06
-1.80657e-06
-1.83861e-06
-1.87112e-06
-1.90412e-06
-1.93763e-06
-1.97169e-06
-2.00633e-06
-2.04159e-06
-2.07752e-06
-2.1142e-06
-2.15172e-06
-2.19023e-06
-2.22992e-06
-2.27118e-06
-2.31541e-06
-2.36221e-06
-2.41014e-06
-2.45906e-06
-2.50897e-06
-2.5599e-06
-2.61185e-06
-2.66487e-06
-2.71895e-06
-2.77414e-06
-2.83045e-06
-2.8879e-06
-2.94652e-06
-3.00632e-06
-3.06734e-06
-3.1296e-06
-3.19312e-06
-3.25793e-06
-3.32406e-06
-3.39153e-06
-3.46037e-06
-3.53061e-06
-3.60227e-06
-3.67539e-06
-3.74999e-06
-3.8261e-06
-3.90376e-06
-3.983e-06
-4.06384e-06
-4.14633e-06
-4.23048e-06
-4.31635e-06
-4.40396e-06
-4.49335e-06
-4.58455e-06
-4.67761e-06
-4.77255e-06
-4.86942e-06
-4.96826e-06
-5.0691e-06
-5.17199e-06
-5.27697e-06
-5.38408e-06
-5.49336e-06
-5.60486e-06
-5.71862e-06
-5.83469e-06
-5.95312e-06
-6.07396e-06
-6.19724e-06
-6.32303e-06
-6.45137e-06
-6.58231e-06
-6.71592e-06
-6.85223e-06
-6.99132e-06
-7.13322e-06
-7.27801e-06
-7.42573e-06
-7.57645e-06
-7.73023e-06
-7.88714e-06
)
;
    }
    inandouthalf41
    {
        type            cyclic;
        value           nonuniform List<scalar> 
50
(
7.05979e-06
7.05979e-06
7.05979e-06
7.05979e-06
7.05979e-06
7.05979e-06
7.05979e-06
7.05979e-06
7.05979e-06
7.05979e-06
7.05979e-06
7.05979e-06
7.05979e-06
7.05979e-06
7.05979e-06
7.05979e-06
7.05979e-06
7.05979e-06
7.05979e-06
7.05979e-06
7.05979e-06
7.05979e-06
7.05979e-06
7.05979e-06
7.05979e-06
7.05979e-06
7.05979e-06
7.05979e-06
7.05979e-06
7.05979e-06
7.05979e-06
7.05979e-06
7.05979e-06
7.05979e-06
7.05979e-06
7.05979e-06
7.05979e-06
7.05979e-06
7.05979e-06
7.05979e-06
7.05979e-06
7.05979e-06
7.05979e-06
7.05979e-06
7.05979e-06
7.05979e-06
7.05979e-06
7.05979e-06
7.05979e-06
7.05979e-06
)
;
    }
    inandouthalf42
    {
        type            cyclic;
        value           nonuniform List<scalar> 
50
(
-7.05979e-06
-7.05979e-06
-7.05979e-06
-7.05979e-06
-7.05979e-06
-7.05979e-06
-7.05979e-06
-7.05979e-06
-7.05979e-06
-7.05979e-06
-7.05979e-06
-7.05979e-06
-7.05979e-06
-7.05979e-06
-7.05979e-06
-7.05979e-06
-7.05979e-06
-7.05979e-06
-7.05979e-06
-7.05979e-06
-7.05979e-06
-7.05979e-06
-7.05979e-06
-7.05979e-06
-7.05979e-06
-7.05979e-06
-7.05979e-06
-7.05979e-06
-7.05979e-06
-7.05979e-06
-7.05979e-06
-7.05979e-06
-7.05979e-06
-7.05979e-06
-7.05979e-06
-7.05979e-06
-7.05979e-06
-7.05979e-06
-7.05979e-06
-7.05979e-06
-7.05979e-06
-7.05979e-06
-7.05979e-06
-7.05979e-06
-7.05979e-06
-7.05979e-06
-7.05979e-06
-7.05979e-06
-7.05979e-06
-7.05979e-06
)
;
    }
    top
    {
        type            symmetryPlane;
        value           uniform 0;
    }
    walls
    {
        type            fixedValue;
        value           uniform 0;
    }
    frontAndBackPlanes
    {
        type            empty;
        value           nonuniform 0();
    }
}


// ************************************************************************* //
