/*--------------------------------*- C++ -*----------------------------------*\
| =========                 |                                                 |
| \\      /  F ield         | OpenFOAM: The Open Source CFD Toolbox           |
|  \\    /   O peration     | Version:  2.4.x                                 |
|   \\  /    A nd           | Web:      www.OpenFOAM.org                      |
|    \\/     M anipulation  |                                                 |
\*---------------------------------------------------------------------------*/
FoamFile
{
    version     2.0;
    format      ascii;
    class       volVectorField;
    location    "5.05";
    object      susb;
}
// * * * * * * * * * * * * * * * * * * * * * * * * * * * * * * * * * * * * * //

dimensions      [0 1 -2 0 0 0 0];

internalField   nonuniform List<vector> 
360
(
(0 4.55021e-18 0)
(0 5.52274e-18 0)
(0 5.41364e-19 0)
(0 -7.65073e-19 0)
(-3.68624e-31 -5.32046e-19 0)
(-3.6856e-31 -3.35389e-19 0)
(-7.37008e-31 -3.2372e-19 0)
(0 -3.33714e-19 0)
(-3.68385e-31 -3.40805e-19 0)
(0 -3.55201e-19 0)
(-3.68258e-31 -3.62984e-19 0)
(0 -3.65064e-19 0)
(-3.68128e-31 -3.65568e-19 0)
(0 -3.65541e-19 0)
(0 -3.68565e-19 0)
(0 -3.72964e-19 0)
(0 -3.76355e-19 0)
(-7.35595e-31 -3.78704e-19 0)
(0 -3.83214e-19 0)
(0 -3.85309e-19 0)
(0 -3.87964e-19 0)
(-3.67522e-31 -3.93724e-19 0)
(0 -3.9769e-19 0)
(0 -4.02681e-19 0)
(0 -4.0785e-19 0)
(-7.34471e-31 -4.11856e-19 0)
(0 -4.17884e-19 0)
(0 -4.232e-19 0)
(0 -4.24353e-19 0)
(0 -4.23996e-19 0)
(0 -4.24485e-19 0)
(0 -4.18342e-19 0)
(0 -4.1501e-19 0)
(0 -4.11817e-19 0)
(0 -4.07269e-19 0)
(7.32982e-31 -4.11031e-19 0)
(0 -4.23008e-19 0)
(0 -4.51709e-19 0)
(0 -4.88208e-19 0)
(0 -5.50256e-19 0)
(0 -6.34819e-19 0)
(0 -7.11664e-19 0)
(3.65807e-31 -7.64644e-19 0)
(0 -7.35498e-19 0)
(0 -6.05008e-19 0)
(0 -4.33109e-19 0)
(0 -2.83003e-19 0)
(0 -2.05047e-19 0)
(0 -1.91725e-19 0)
(0 -1.90208e-19 0)
(3.6525e-31 -1.97229e-19 0)
(0 -2.12251e-19 0)
(0 -2.26533e-19 0)
(0 -2.39891e-19 0)
(0 -2.58146e-19 0)
(0 -2.74727e-19 0)
(0 -2.8981e-19 0)
(0 -3.08968e-19 0)
(0 -3.19547e-19 0)
(0 -3.39057e-19 0)
(0 -3.54239e-19 0)
(0 -3.64943e-19 0)
(0 -3.77034e-19 0)
(0 -3.84505e-19 0)
(0 -3.93787e-19 0)
(0 -4.05185e-19 0)
(0 -4.19841e-19 0)
(0 -4.33669e-19 0)
(0 -4.46791e-19 0)
(0 -4.66248e-19 0)
(0 -4.885e-19 0)
(0 -5.00261e-19 0)
(0 -5.15052e-19 0)
(0 -5.31954e-19 0)
(0 -5.45212e-19 0)
(0 -5.56283e-19 0)
(0 -5.65292e-19 0)
(0 -5.78538e-19 0)
(0 -5.9251e-19 0)
(0 -6.0585e-19 0)
(0 -6.20985e-19 0)
(0 -6.38498e-19 0)
(0 -6.55237e-19 0)
(0 -6.71853e-19 0)
(0 -6.88031e-19 0)
(0 -7.0375e-19 0)
(0 -7.18747e-19 0)
(0 -7.33024e-19 0)
(0 -7.48157e-19 0)
(0 -7.63923e-19 0)
(0 -7.80157e-19 0)
(0 -7.97568e-19 0)
(0 -8.15975e-19 0)
(0 -8.34786e-19 0)
(0 -8.54054e-19 0)
(0 -8.73693e-19 0)
(0 -8.93607e-19 0)
(0 -9.13878e-19 0)
(0 -9.347e-19 0)
(0 -9.56159e-19 0)
(0 -9.78327e-19 0)
(0 -1.00133e-18 0)
(0 -1.02519e-18 0)
(0 -1.04989e-18 0)
(0 -1.0755e-18 0)
(0 -1.10205e-18 0)
(0 -1.12962e-18 0)
(0 -1.15829e-18 0)
(0 -1.18814e-18 0)
(0 -1.21924e-18 0)
(0 -1.25165e-18 0)
(0 -1.28544e-18 0)
(0 -1.32069e-18 0)
(0 -1.35746e-18 0)
(0 -1.39583e-18 0)
(0 -1.43589e-18 0)
(0 -1.47771e-18 0)
(0 -1.5214e-18 0)
(0 -1.56709e-18 0)
(0 -1.61487e-18 0)
(0 -1.66486e-18 0)
(0 -1.71714e-18 0)
(0 -1.7718e-18 0)
(0 -1.82902e-18 0)
(0 -1.88921e-18 0)
(0 -1.95314e-18 0)
(0 -2.02198e-18 0)
(0 -2.09675e-18 0)
(0 -2.17755e-18 0)
(0 -2.26296e-18 0)
(0 -2.35179e-18 0)
(0 -2.4481e-18 0)
(0 -3.82815e-18 0)
(0 -1.77209e-17 0)
(0 -9.28775e-17 0)
(0 -5.0798e-16 0)
(0 -2.96848e-15 0)
(0 -1.94324e-14 0)
(0 -1.47307e-13 0)
(0 -1.25142e-12 0)
(0 -1.11932e-11 0)
(0 -1.23509e-10 0)
(0 -1.89838e-09 0)
(0 -3.56005e-08 0)
(0 -9.8133e-07 0)
(0 -5.96282e-05 0)
(0 -0.029754 0)
(0 -1.37755 0)
(0 -2.94373 0)
(0 -1.59162 0)
(0 -1.03793 0)
(0 -0.907533 0)
(0 -0.806533 0)
(0 -0.711651 0)
(0 -0.61917 0)
(0 -0.531552 0)
(0 -0.451651 0)
(0 -0.381132 0)
(0 -0.320386 0)
(0 -0.268915 0)
(0 -0.22575 0)
(0 -0.18976 0)
(0 -0.159827 0)
(0 -0.13494 0)
(0 -0.114225 0)
(0 -0.096949 0)
(0 -0.0825036 0)
(0 -0.0703899 0)
(0 -0.0602005 0)
(0 -0.0516031 0)
(0 -0.0443264 0)
(0 -0.0381491 0)
(0 -0.0328896 0)
(0 -0.0283992 0)
(0 -0.0245553 0)
(0 -0.0212566 0)
(0 -0.0184207 0)
(0 -0.0159816 0)
(0 -0.0138892 0)
(0 -0.0121042 0)
(0 -0.0105898 0)
(0 -0.00930153 0)
(0 -0.00818189 0)
(0 -0.00716861 0)
(0 -0.00621298 0)
(0 -0.00529631 0)
(0 -0.00443112 0)
(0 -0.00364653 0)
(0 -0.00296808 0)
(0 -0.00240499 0)
(0 -0.00195309 0)
(0 -0.0016057 0)
(0 -0.00135295 0)
(0 -0.0011689 0)
(0 -0.00101502 0)
(0 -0.000866226 0)
(0 -0.000723441 0)
(0 -0.000598503 0)
(0 -0.00049692 0)
(0 -0.000414618 0)
(0 -0.000346146 0)
(0 -0.000291724 0)
(-7.87467e-20 -0.000250191 0)
(0 -0.000212321 0)
(0 -0.000176634 0)
(3.90301e-20 -0.000151816 0)
(0 -0.00013282 0)
(-3.88686e-20 -0.000110999 0)
(0 -9.32367e-05 0)
(1.92928e-20 -8.16834e-05 0)
(0 -6.95889e-05 0)
(0 -5.85823e-05 0)
(0 -5.0545e-05 0)
(1.86181e-20 -4.24506e-05 0)
(0 -3.58252e-05 0)
(0 -3.11476e-05 0)
(0 -2.54756e-05 0)
(0 -2.08821e-05 0)
(0 -1.82796e-05 0)
(-4.11479e-21 -1.50462e-05 0)
(0 -1.21525e-05 0)
(-3.87295e-21 -1.01942e-05 0)
(0 -8.36739e-06 0)
(-1.80456e-21 -6.97253e-06 0)
(0 -5.59246e-06 0)
(0 -4.41921e-06 0)
(0 -3.69442e-06 0)
(0 -2.87913e-06 0)
(7.20451e-22 -2.22732e-06 0)
(6.82088e-22 -1.79281e-06 0)
(0 -1.40556e-06 0)
(0 -1.11021e-06 0)
(0 -8.07283e-07 0)
(0 -4.65582e-07 0)
(0 -3.09785e-07 0)
(0 -2.00474e-07 0)
(0 -1.34606e-07 0)
(0 -3.23398e-07 0)
(0 -2.48733e-07 0)
(0 -2.96127e-12 0)
(0 3.40686e-20 0)
(0 -2.84014e-20 0)
(0 -9.44131e-21 0)
(-5.16331e-36 -9.30954e-21 0)
(4.09966e-36 -8.88619e-21 0)
(0 -7.35721e-21 0)
(0 -4.34765e-21 0)
(-2.00827e-37 -1.08585e-21 0)
(0 -4.98971e-23 0)
(0 -4.90553e-25 0)
(-1.05434e-42 -3.36923e-27 0)
(0 -2.37603e-29 0)
(0 -1.93799e-31 0)
(0 -2.22439e-33 0)
(0 -3.10136e-35 0)
(0 -3.56714e-37 0)
(0 -3.52437e-39 0)
(0 -9.68348e-40 0)
(0 -3.69141e-40 0)
(0 -1.65828e-40 0)
(0 -8.30785e-41 0)
(0 -4.96733e-41 0)
(0 -4.06728e-41 0)
(0 -3.29437e-41 0)
(0 -1.79428e-41 0)
(0 -7.06413e-42 0)
(5.35268e-58 -3.25923e-42 0)
(0 -1.66245e-42 0)
(0 -9.48102e-43 0)
(0 -5.42599e-43 0)
(0 -2.62554e-43 0)
(0 -1.26248e-43 0)
(0 -6.25888e-44 0)
(0 -3.06548e-44 0)
(0 -1.47285e-44 0)
(0 -6.93253e-45 0)
(0 -3.19412e-45 0)
(0 -1.43941e-45 0)
(0 -6.33894e-46 0)
(0 -2.72555e-46 0)
(0 -1.14308e-46 0)
(0 -4.67123e-47 0)
(0 -1.85799e-47 0)
(0 -7.18451e-48 0)
(0 -2.6974e-48 0)
(0 -9.81957e-49 0)
(8.53841e-65 -3.46101e-49 0)
(0 -1.17918e-49 0)
(0 -3.87686e-50 0)
(0 -1.22766e-50 0)
(0 -3.73659e-51 0)
(0 -1.09066e-51 0)
(0 -3.04532e-52 0)
(0 -8.1113e-53 0)
(0 -2.05453e-53 0)
(0 -4.93145e-54 0)
(1.33211e-70 -1.11726e-54 0)
(0 -2.37836e-55 0)
(0 -4.73227e-56 0)
(-9.79826e-73 -8.74721e-57 0)
(0 -1.49118e-57 0)
(0 -2.32417e-58 0)
(0 -3.27677e-59 0)
(0 -4.12327e-60 0)
(0 -4.55127e-61 0)
(0 -4.3053e-62 0)
(0 -3.37688e-63 0)
(0 -2.08793e-64 0)
(0 -9.32474e-66 0)
(0 -2.48804e-67 0)
(0 -1.86671e-69 0)
(0 -1.11851e-72 0)
(0 -1.46713e-74 0)
(0 -9.5503e-77 0)
(0 -2.12e-87 0)
(0 -2.3579e-98 0)
(0 -1.88775e-109 0)
(0 -1.11816e-120 0)
(0 -5.56486e-132 0)
(0 -2.24301e-143 0)
(0 -8.16157e-155 0)
(0 -1.06724e-163 0)
(0 -3.31773e-174 0)
(0 -3.68016e-182 0)
(0 -1.04029e-192 0)
(0 -1.26602e-200 0)
(0 -4.31928e-211 0)
(0 -4.35494e-219 0)
(0 -1.89215e-229 0)
(0 -1.49931e-237 0)
(0 -1.24541e-247 0)
(0 -5.21756e-256 0)
(0 -8.21608e-266 0)
(0 -1.8458e-274 0)
(0 -4.10859e-284 0)
(0 -6.63396e-293 0)
(0 -1.94694e-302 0)
(0 -2.42032e-311 0)
(0 -8.57698e-321 0)
(0 -0 0)
(0 0 0)
(0 0 0)
(0 0 0)
(0 0 0)
(0 0 0)
(0 0 0)
(0 0 0)
(0 0 0)
(0 0 0)
(0 0 0)
(0 0 0)
(0 0 0)
(0 0 0)
(0 0 0)
(0 0 0)
(0 0 0)
(0 0 0)
(0 0 0)
(0 0 0)
(0 0 0)
)
;

boundaryField
{
    inandouthalf11
    {
        type            cyclic;
    }
    inandouthalf12
    {
        type            cyclic;
    }
    inandouthalf21
    {
        type            cyclic;
    }
    inandouthalf22
    {
        type            cyclic;
    }
    inandouthalf31
    {
        type            cyclic;
    }
    inandouthalf32
    {
        type            cyclic;
    }
    inandouthalf41
    {
        type            cyclic;
    }
    inandouthalf42
    {
        type            cyclic;
    }
    top
    {
        type            symmetryPlane;
    }
    walls
    {
        type            zeroGradient;
    }
    frontAndBackPlanes
    {
        type            empty;
    }
}


// ************************************************************************* //
