/*--------------------------------*- C++ -*----------------------------------*\
| =========                 |                                                 |
| \\      /  F ield         | OpenFOAM: The Open Source CFD Toolbox           |
|  \\    /   O peration     | Version:  2.4.x                                 |
|   \\  /    A nd           | Web:      www.OpenFOAM.org                      |
|    \\/     M anipulation  |                                                 |
\*---------------------------------------------------------------------------*/
FoamFile
{
    version     2.0;
    format      ascii;
    class       volTensorField;
    location    "5.05";
    object      Tauf;
}
// * * * * * * * * * * * * * * * * * * * * * * * * * * * * * * * * * * * * * //

dimensions      [0 2 -2 0 0 0 0];

internalField   nonuniform List<tensor> 
360
(
(0 8.14633e-10 0 8.14633e-10 9.16862e-10 0 0 0 0)
(0 -8.65405e-11 0 -8.65405e-11 1.19621e-09 0 0 0 0)
(0 -8.69866e-11 0 -8.69866e-11 1.26359e-09 0 0 0 0)
(0 -8.04455e-11 0 -8.04455e-11 1.18463e-09 0 0 0 0)
(-1.00974e-25 -8.122e-11 0 -8.122e-11 1.17162e-09 0 0 0 0)
(-5.04871e-26 -8.41188e-11 0 -8.41188e-11 1.1946e-09 0 0 0 0)
(-2.52435e-26 -8.62981e-11 0 -8.62981e-11 1.2163e-09 0 0 0 0)
(0 -8.77078e-11 0 -8.77078e-11 1.22815e-09 0 0 0 0)
(-2.52435e-26 -8.87904e-11 0 -8.87904e-11 1.23445e-09 0 0 0 0)
(0 -8.98858e-11 0 -8.98858e-11 1.24057e-09 0 0 0 0)
(3.9443e-28 -9.11592e-11 0 -9.11592e-11 1.24878e-09 0 0 0 0)
(0 -9.25825e-11 0 -9.25825e-11 1.25866e-09 0 0 0 0)
(2.52435e-26 -9.40545e-11 0 -9.40545e-11 1.26895e-09 0 0 0 0)
(0 -9.55035e-11 0 -9.55035e-11 1.27871e-09 0 0 0 0)
(0 -9.69204e-11 0 -9.69204e-11 1.28782e-09 0 0 0 0)
(0 -9.83398e-11 0 -9.83398e-11 1.29673e-09 0 0 0 0)
(0 -9.97924e-11 0 -9.97924e-11 1.3058e-09 0 0 0 0)
(5.04871e-26 -1.01294e-10 0 -1.01294e-10 1.31519e-09 0 0 0 0)
(0 -1.02862e-10 0 -1.02862e-10 1.32521e-09 0 0 0 0)
(0 -1.04517e-10 0 -1.04517e-10 1.33605e-09 0 0 0 0)
(0 -1.06284e-10 0 -1.06284e-10 1.34797e-09 0 0 0 0)
(1.00974e-25 -1.08206e-10 0 -1.08206e-10 1.36156e-09 0 0 0 0)
(0 -1.10316e-10 0 -1.10316e-10 1.37709e-09 0 0 0 0)
(0 -1.12607e-10 0 -1.12607e-10 1.39444e-09 0 0 0 0)
(0 -1.15039e-10 0 -1.15039e-10 1.41309e-09 0 0 0 0)
(2.01948e-25 -1.17523e-10 0 -1.17523e-10 1.43184e-09 0 0 0 0)
(0 -1.19925e-10 0 -1.19925e-10 1.44911e-09 0 0 0 0)
(0 -1.22057e-10 0 -1.22057e-10 1.46272e-09 0 0 0 0)
(0 -1.23674e-10 0 -1.23674e-10 1.46979e-09 0 0 0 0)
(0 -1.24544e-10 0 -1.24544e-10 1.46781e-09 0 0 0 0)
(0 -1.24554e-10 0 -1.24554e-10 1.45591e-09 0 0 0 0)
(0 -1.23769e-10 0 -1.23769e-10 1.43483e-09 0 0 0 0)
(0 -1.22498e-10 0 -1.22498e-10 1.40851e-09 0 0 0 0)
(0 -1.21344e-10 0 -1.21344e-10 1.38392e-09 0 0 0 0)
(0 -1.21168e-10 0 -1.21168e-10 1.37061e-09 0 0 0 0)
(-4.03897e-25 -1.23109e-10 0 -1.23109e-10 1.38145e-09 0 0 0 0)
(0 -1.28628e-10 0 -1.28628e-10 1.43226e-09 0 0 0 0)
(0 -1.39513e-10 0 -1.39513e-10 1.54267e-09 0 0 0 0)
(0 -1.5785e-10 0 -1.5785e-10 1.73371e-09 0 0 0 0)
(0 -1.85584e-10 0 -1.85584e-10 2.02304e-09 0 0 0 0)
(0 -2.22763e-10 0 -2.22763e-10 2.40317e-09 0 0 0 0)
(0 -2.63113e-10 0 -2.63113e-10 2.79616e-09 0 0 0 0)
(-4.03897e-25 -2.89106e-10 0 -2.89106e-10 3.02424e-09 0 0 0 0)
(0 -2.76119e-10 0 -2.76119e-10 2.87069e-09 0 0 0 0)
(0 -2.144e-10 0 -2.144e-10 2.26806e-09 0 0 0 0)
(0 -1.28303e-10 0 -1.28303e-10 1.43067e-09 0 0 0 0)
(0 -5.73023e-11 0 -5.73023e-11 6.99999e-10 0 0 0 0)
(0 -1.90305e-11 0 -1.90305e-11 2.61403e-10 0 0 0 0)
(0 -4.85796e-12 0 -4.85796e-12 7.3976e-11 0 0 0 0)
(0 -1.00367e-12 0 -1.00367e-12 1.45637e-11 0 0 0 0)
(-4.03897e-25 -1.40826e-13 0 -1.40826e-13 -2.62814e-13 0 0 0 0)
(0 4.8288e-14 0 4.8288e-14 -3.58093e-12 0 0 0 0)
(0 9.74228e-14 0 9.74228e-14 -4.54852e-12 0 0 0 0)
(0 1.15725e-13 0 1.15725e-13 -5.08583e-12 0 0 0 0)
(0 1.28829e-13 0 1.28829e-13 -5.41502e-12 0 0 0 0)
(0 1.38553e-13 0 1.38553e-13 -5.78385e-12 0 0 0 0)
(0 1.46376e-13 0 1.46376e-13 -6.19454e-12 0 0 0 0)
(0 1.55612e-13 0 1.55612e-13 -6.39445e-12 0 0 0 0)
(0 1.59825e-13 0 1.59825e-13 -6.88801e-12 0 0 0 0)
(0 1.68288e-13 0 1.68288e-13 -7.07795e-12 0 0 0 0)
(0 1.74287e-13 0 1.74287e-13 -7.38324e-12 0 0 0 0)
(0 1.77987e-13 0 1.77987e-13 -7.69003e-12 0 0 0 0)
(0 1.82693e-13 0 1.82693e-13 -7.83947e-12 0 0 0 0)
(0 1.85433e-13 0 1.85433e-13 -8.0928e-12 0 0 0 0)
(0 1.89618e-13 0 1.89618e-13 -8.29111e-12 0 0 0 0)
(0 1.95349e-13 0 1.95349e-13 -8.55141e-12 0 0 0 0)
(0 2.03096e-13 0 2.03096e-13 -8.80012e-12 0 0 0 0)
(0 2.10575e-13 0 2.10575e-13 -9.09969e-12 0 0 0 0)
(0 2.17724e-13 0 2.17724e-13 -9.49487e-12 0 0 0 0)
(0 2.28134e-13 0 2.28134e-13 -9.85564e-12 0 0 0 0)
(0 2.39889e-13 0 2.39889e-13 -1.01194e-11 0 0 0 0)
(0 2.45999e-13 0 2.45999e-13 -1.05863e-11 0 0 0 0)
(0 2.53558e-13 0 2.53558e-13 -1.08863e-11 0 0 0 0)
(0 2.62107e-13 0 2.62107e-13 -1.11529e-11 0 0 0 0)
(0 2.68648e-13 0 2.68648e-13 -1.14565e-11 0 0 0 0)
(0 2.73982e-13 0 2.73982e-13 -1.16918e-11 0 0 0 0)
(0 2.7821e-13 0 2.7821e-13 -1.19815e-11 0 0 0 0)
(0 2.84668e-13 0 2.84668e-13 -1.2205e-11 0 0 0 0)
(0 2.91516e-13 0 2.91516e-13 -1.24784e-11 0 0 0 0)
(0 2.98035e-13 0 2.98035e-13 -1.27989e-11 0 0 0 0)
(0 3.05493e-13 0 3.05493e-13 -1.31282e-11 0 0 0 0)
(0 3.14184e-13 0 3.14184e-13 -1.34485e-11 0 0 0 0)
(0 3.22436e-13 0 3.22436e-13 -1.38128e-11 0 0 0 0)
(0 3.3059e-13 0 3.3059e-13 -1.41589e-11 0 0 0 0)
(0 3.38486e-13 0 3.38486e-13 -1.45002e-11 0 0 0 0)
(0 3.46134e-13 0 3.46134e-13 -1.48279e-11 0 0 0 0)
(0 3.53415e-13 0 3.53415e-13 -1.51446e-11 0 0 0 0)
(0 3.60357e-13 0 3.60357e-13 -1.54715e-11 0 0 0 0)
(0 3.67813e-13 0 3.67813e-13 -1.57884e-11 0 0 0 0)
(0 3.75676e-13 0 3.75676e-13 -1.61202e-11 0 0 0 0)
(0 3.83861e-13 0 3.83861e-13 -1.64765e-11 0 0 0 0)
(0 3.92741e-13 0 3.92741e-13 -1.68443e-11 0 0 0 0)
(0 4.02207e-13 0 4.02207e-13 -1.72271e-11 0 0 0 0)
(0 4.11937e-13 0 4.11937e-13 -1.76292e-11 0 0 0 0)
(0 4.21951e-13 0 4.21951e-13 -1.80392e-11 0 0 0 0)
(0 4.32199e-13 0 4.32199e-13 -1.84572e-11 0 0 0 0)
(0 4.42633e-13 0 4.42633e-13 -1.88842e-11 0 0 0 0)
(0 4.53299e-13 0 4.53299e-13 -1.93209e-11 0 0 0 0)
(0 4.64305e-13 0 4.64305e-13 -1.97681e-11 0 0 0 0)
(0 4.75705e-13 0 4.75705e-13 -2.02289e-11 0 0 0 0)
(0 4.87539e-13 0 4.87539e-13 -2.07061e-11 0 0 0 0)
(0 4.99881e-13 0 4.99881e-13 -2.12e-11 0 0 0 0)
(0 5.12745e-13 0 5.12745e-13 -2.17119e-11 0 0 0 0)
(0 5.26128e-13 0 5.26128e-13 -2.22435e-11 0 0 0 0)
(0 5.40063e-13 0 5.40063e-13 -2.27947e-11 0 0 0 0)
(0 5.54586e-13 0 5.54586e-13 -2.33668e-11 0 0 0 0)
(0 5.69733e-13 0 5.69733e-13 -2.39616e-11 0 0 0 0)
(0 5.85551e-13 0 5.85551e-13 -2.45802e-11 0 0 0 0)
(0 6.02089e-13 0 6.02089e-13 -2.52244e-11 0 0 0 0)
(0 6.19384e-13 0 6.19384e-13 -2.58957e-11 0 0 0 0)
(0 6.37477e-13 0 6.37477e-13 -2.65957e-11 0 0 0 0)
(0 6.56402e-13 0 6.56402e-13 -2.73258e-11 0 0 0 0)
(0 6.76196e-13 0 6.76196e-13 -2.80876e-11 0 0 0 0)
(0 6.96894e-13 0 6.96894e-13 -2.88825e-11 0 0 0 0)
(0 7.18531e-13 0 7.18531e-13 -2.97122e-11 0 0 0 0)
(0 7.41144e-13 0 7.41144e-13 -3.05785e-11 0 0 0 0)
(0 7.64772e-13 0 7.64772e-13 -3.14833e-11 0 0 0 0)
(0 7.89464e-13 0 7.89464e-13 -3.24288e-11 0 0 0 0)
(0 8.15271e-13 0 8.15271e-13 -3.34171e-11 0 0 0 0)
(0 8.4225e-13 0 8.4225e-13 -3.44508e-11 0 0 0 0)
(0 8.70462e-13 0 8.70462e-13 -3.55318e-11 0 0 0 0)
(0 8.99965e-13 0 8.99965e-13 -3.66625e-11 0 0 0 0)
(0 9.3084e-13 0 9.3084e-13 -3.78464e-11 0 0 0 0)
(0 9.63232e-13 0 9.63232e-13 -3.90898e-11 0 0 0 0)
(0 9.97441e-13 0 9.97441e-13 -4.04043e-11 0 0 0 0)
(0 1.03401e-12 0 1.03401e-12 -4.18067e-11 0 0 0 0)
(0 1.07368e-12 0 1.07368e-12 -4.33149e-11 0 0 0 0)
(0 1.11721e-12 0 1.11721e-12 -4.49379e-11 0 0 0 0)
(0 1.16481e-12 0 1.16481e-12 -4.66695e-11 0 0 0 0)
(0 1.21588e-12 0 1.21588e-12 -4.85072e-11 0 0 0 0)
(0 1.26989e-12 0 1.26989e-12 -5.05072e-11 0 0 0 0)
(0 1.32916e-12 0 1.32916e-12 -5.28052e-11 0 0 0 0)
(0 1.4006e-12 0 1.4006e-12 -5.54744e-11 0 0 0 0)
(0 1.48903e-12 0 1.48903e-12 -5.83793e-11 0 0 0 0)
(0 1.58588e-12 0 1.58588e-12 -6.14411e-11 0 0 0 0)
(0 1.67768e-12 0 1.67768e-12 -6.50378e-11 0 0 0 0)
(0 1.77739e-12 0 1.77739e-12 -6.99979e-11 0 0 0 0)
(0 1.93685e-12 0 1.93685e-12 -7.68119e-11 0 0 0 0)
(0 2.19614e-12 0 2.19614e-12 -8.3385e-11 0 0 0 0)
(0 2.45653e-12 0 2.45653e-12 -8.6715e-11 0 0 0 0)
(0 2.50496e-12 0 2.50496e-12 -9.77545e-11 0 0 0 0)
(0 2.69542e-12 0 2.69542e-12 -1.14043e-10 0 0 0 0)
(0 3.39314e-12 0 3.39314e-12 -1.30305e-10 0 0 0 0)
(0 4.29734e-12 0 4.29734e-12 -1.9286e-10 0 0 0 0)
(0 -1.89544e-12 0 -1.89544e-12 2.65765e-10 0 0 0 0)
(0 -8.79483e-09 0 -8.79483e-09 -1.17603e-08 0 0 0 0)
(0 -5.47475e-06 0 -5.47475e-06 4.40244e-08 0 0 0 0)
(0 -0.00021075 0 -0.00021075 6.87215e-07 0 0 0 0)
(0 -0.00169874 0 -0.00169874 1.10581e-06 0 0 0 0)
(0 -0.0030068 0 -0.0030068 -2.41855e-06 0 0 0 0)
(0 -0.00334551 0 -0.00334551 -7.3067e-07 0 0 0 0)
(0 -0.00347314 0 -0.00347314 -1.8981e-06 0 0 0 0)
(0 -0.00350232 0 -0.00350232 -2.14814e-06 0 0 0 0)
(0 -0.00348107 0 -0.00348107 -2.27461e-06 0 0 0 0)
(0 -0.00343555 0 -0.00343555 -2.2758e-06 0 0 0 0)
(0 -0.00337921 0 -0.00337921 -2.16338e-06 0 0 0 0)
(0 -0.00331866 0 -0.00331866 -1.96733e-06 0 0 0 0)
(0 -0.00325682 0 -0.00325682 -1.72462e-06 0 0 0 0)
(0 -0.00319481 0 -0.00319481 -1.46597e-06 0 0 0 0)
(0 -0.00313285 0 -0.00313285 -1.21263e-06 0 0 0 0)
(0 -0.00307081 0 -0.00307081 -9.77222e-07 0 0 0 0)
(0 -0.00300845 0 -0.00300845 -7.66291e-07 0 0 0 0)
(0 -0.00294554 0 -0.00294554 -5.82571e-07 0 0 0 0)
(0 -0.00288187 0 -0.00288187 -4.25803e-07 0 0 0 0)
(0 -0.00281731 0 -0.00281731 -2.9414e-07 0 0 0 0)
(0 -0.00275174 0 -0.00275174 -1.85268e-07 0 0 0 0)
(0 -0.00268512 0 -0.00268512 -9.65661e-08 0 0 0 0)
(0 -0.00261742 0 -0.00261742 -2.53782e-08 0 0 0 0)
(0 -0.00254863 0 -0.00254863 3.0814e-08 0 0 0 0)
(0 -0.00247877 0 -0.00247877 7.43102e-08 0 0 0 0)
(0 -0.00240788 0 -0.00240788 1.07164e-07 0 0 0 0)
(0 -0.00233599 0 -0.00233599 1.3118e-07 0 0 0 0)
(0 -0.00226315 0 -0.00226315 1.47926e-07 0 0 0 0)
(0 -0.00218943 0 -0.00218943 1.58748e-07 0 0 0 0)
(0 -0.00211489 0 -0.00211489 1.64787e-07 0 0 0 0)
(0 -0.00203961 0 -0.00203961 1.6701e-07 0 0 0 0)
(0 -0.00196367 0 -0.00196367 1.66273e-07 0 0 0 0)
(0 -0.00188715 0 -0.00188715 1.6342e-07 0 0 0 0)
(0 -0.00181015 0 -0.00181015 1.5936e-07 0 0 0 0)
(0 -0.00173277 0 -0.00173277 1.55014e-07 0 0 0 0)
(0 -0.00165512 0 -0.00165512 1.51043e-07 0 0 0 0)
(0 -0.00157732 0 -0.00157732 1.4745e-07 0 0 0 0)
(0 -0.00149949 0 -0.00149949 1.4337e-07 0 0 0 0)
(0 -0.00142177 0 -0.00142177 1.37365e-07 0 0 0 0)
(0 -0.0013443 0 -0.0013443 1.28189e-07 0 0 0 0)
(0 -0.00126727 0 -0.00126727 1.15574e-07 0 0 0 0)
(0 -0.00119086 0 -0.00119086 1.00454e-07 0 0 0 0)
(0 -0.00111528 0 -0.00111528 8.44952e-08 0 0 0 0)
(0 -0.00104077 0 -0.00104077 6.93343e-08 0 0 0 0)
(0 -0.000967567 0 -0.000967567 5.60499e-08 0 0 0 0)
(0 -0.000895918 0 -0.000895918 4.51233e-08 0 0 0 0)
(0 -0.000826067 0 -0.000826067 3.66509e-08 0 0 0 0)
(0 -0.000758251 0 -0.000758251 3.04205e-08 0 0 0 0)
(0 -0.000692692 0 -0.000692692 2.58508e-08 0 0 0 0)
(0 -0.000629592 0 -0.000629592 2.21558e-08 0 0 0 0)
(0 -0.000569131 0 -0.000569131 1.87733e-08 0 0 0 0)
(0 -0.000511461 0 -0.000511461 1.56046e-08 0 0 0 0)
(0 -0.0004567 0 -0.0004567 1.28194e-08 0 0 0 0)
(0 -0.000404925 0 -0.000404925 1.05322e-08 0 0 0 0)
(0 -0.000356165 0 -0.000356165 8.69755e-09 0 0 0 0)
(0 -0.000310401 0 -0.000310401 7.22487e-09 0 0 0 0)
(0 -0.000267175 0 -0.000267175 6.0572e-09 0 0 0 0)
(2.00424e-17 -0.000226063 0 -0.000226063 5.12234e-09 0 0 0 0)
(0 -0.000187087 0 -0.000187087 4.31929e-09 0 0 0 0)
(0 -0.000150235 0 -0.000150235 3.62428e-09 0 0 0 0)
(-1.9756e-17 -0.000115466 0 -0.000115466 3.08065e-09 0 0 0 0)
(0 -8.27173e-05 0 -8.27173e-05 2.64434e-09 0 0 0 0)
(1.96739e-17 -5.19103e-05 0 -5.19103e-05 2.24031e-09 0 0 0 0)
(0 -2.29622e-05 0 -2.29622e-05 1.89121e-09 0 0 0 0)
(-1.95836e-17 4.21141e-06 0 4.21141e-06 1.62092e-09 0 0 0 0)
(0 2.96925e-05 0 2.96925e-05 1.38941e-09 0 0 0 0)
(0 5.35556e-05 0 5.35556e-05 1.18093e-09 0 0 0 0)
(0 7.58663e-05 0 7.58663e-05 1.00434e-09 0 0 0 0)
(-1.91434e-17 9.6681e-05 0 9.6681e-05 8.52173e-10 0 0 0 0)
(0 0.000116046 0 0.000116046 7.24069e-10 0 0 0 0)
(0 0.000133997 0 0.000133997 6.16232e-10 0 0 0 0)
(0 0.000150565 0 0.000150565 5.15164e-10 0 0 0 0)
(0 0.000165768 0 0.000165768 4.28922e-10 0 0 0 0)
(0 0.000179622 0 0.000179622 3.6367e-10 0 0 0 0)
(1.75551e-17 0.000192134 0 0.000192134 3.05174e-10 0 0 0 0)
(0 0.000203309 0 0.000203309 2.50909e-10 0 0 0 0)
(1.68044e-17 0.000213148 0 0.000213148 2.07381e-10 0 0 0 0)
(0 0.000221646 0 0.000221646 1.7258e-10 0 0 0 0)
(1.59654e-17 0.0002288 0 0.0002288 1.42702e-10 0 0 0 0)
(0 0.000234601 0 0.000234601 1.15958e-10 0 0 0 0)
(0 0.000239041 0 0.000239041 9.34658e-11 0 0 0 0)
(0 0.000242108 0 0.000242108 7.58768e-11 0 0 0 0)
(0 0.000243794 0 0.000243794 6.06412e-11 0 0 0 0)
(-1.35392e-17 0.000244085 0 0.000244085 4.75729e-11 0 0 0 0)
(-1.30027e-17 0.00024297 0 0.00024297 3.76775e-11 0 0 0 0)
(0 0.000240439 0 0.000240439 2.99987e-11 0 0 0 0)
(0 0.000236481 0 0.000236481 2.33689e-11 0 0 0 0)
(0 0.000231087 0 0.000231087 1.68732e-11 0 0 0 0)
(0 0.000224254 0 0.000224254 1.1013e-11 0 0 0 0)
(0 0.000215979 0 0.000215979 6.97127e-12 0 0 0 0)
(0 0.000206266 0 0.000206266 1.47468e-12 0 0 0 0)
(0 0.000195129 0 0.000195129 4.84718e-12 0 0 0 0)
(0 0.000182589 0 0.000182589 1.23697e-11 0 0 0 0)
(0 0.000168684 0 0.000168684 4.45703e-12 0 0 0 0)
(0 0.000153467 0 0.000153467 -6.98627e-13 0 0 0 0)
(0 0.000137021 0 0.000137021 -2.52907e-12 0 0 0 0)
(0 0.000119459 0 0.000119459 4.55831e-12 0 0 0 0)
(0 0.000100945 0 0.000100945 -6.21289e-12 0 0 0 0)
(7.62162e-18 8.17124e-05 0 8.17124e-05 7.28982e-12 0 0 0 0)
(-6.08491e-18 6.20938e-05 0 6.20938e-05 -7.49452e-12 0 0 0 0)
(0 4.25723e-05 0 4.25723e-05 6.72985e-12 0 0 0 0)
(0 2.40348e-05 0 2.40348e-05 -4.99711e-12 0 0 0 0)
(1.32306e-18 7.12141e-06 0 7.12141e-06 2.43383e-12 0 0 0 0)
(0 5.6397e-07 0 5.6397e-07 -5.76392e-13 0 0 0 0)
(0 3.07064e-08 0 3.07064e-08 3.14853e-13 0 0 0 0)
(1.5512e-19 1.33352e-09 0 1.33352e-09 -3.04024e-13 0 0 0 0)
(0 5.48206e-10 0 5.48206e-10 2.99343e-13 0 0 0 0)
(0 4.2695e-10 0 4.2695e-10 -2.94642e-13 0 0 0 0)
(0 3.36855e-10 0 3.36855e-10 2.90551e-13 0 0 0 0)
(0 2.64818e-10 0 2.64818e-10 -2.8636e-13 0 0 0 0)
(0 2.07404e-10 0 2.07404e-10 2.827e-13 0 0 0 0)
(0 1.61811e-10 0 1.61811e-10 -2.78888e-13 0 0 0 0)
(0 1.25741e-10 0 1.25741e-10 2.75538e-13 0 0 0 0)
(0 9.73154e-11 0 9.73154e-11 -2.71996e-13 0 0 0 0)
(0 7.49954e-11 0 7.49954e-11 2.68859e-13 0 0 0 0)
(0 5.75297e-11 0 5.75297e-11 -2.65505e-13 0 0 0 0)
(0 4.39125e-11 0 4.39125e-11 2.62502e-13 0 0 0 0)
(0 3.33419e-11 0 3.33419e-11 -2.59272e-13 0 0 0 0)
(0 2.51767e-11 0 2.51767e-11 2.56341e-13 0 0 0 0)
(0 1.89037e-11 0 1.89037e-11 -2.53193e-13 0 0 0 0)
(0 1.41113e-11 0 1.41113e-11 2.50283e-13 0 0 0 0)
(-1.12435e-19 1.04716e-11 0 1.04716e-11 -2.4717e-13 0 0 0 0)
(0 7.72389e-12 0 7.72389e-12 2.44259e-13 0 0 0 0)
(0 5.66189e-12 0 5.66189e-12 -2.41166e-13 0 0 0 0)
(0 4.12433e-12 0 4.12433e-12 2.38219e-13 0 0 0 0)
(0 2.98511e-12 0 2.98511e-12 -2.35112e-13 0 0 0 0)
(0 2.14655e-12 0 2.14655e-12 2.32123e-13 0 0 0 0)
(0 1.53315e-12 0 1.53315e-12 -2.28986e-13 0 0 0 0)
(0 1.08753e-12 0 1.08753e-12 2.25945e-13 0 0 0 0)
(0 7.66218e-13 0 7.66218e-13 -2.22772e-13 0 0 0 0)
(0 5.35949e-13 0 5.35949e-13 2.19672e-13 0 0 0 0)
(0 3.72191e-13 0 3.72191e-13 -2.16455e-13 0 0 0 0)
(0 2.56612e-13 0 2.56612e-13 2.13304e-13 0 0 0 0)
(0 1.75468e-13 0 1.75468e-13 -2.10057e-13 0 0 0 0)
(0 1.19027e-13 0 1.19027e-13 2.06853e-13 0 0 0 0)
(0 8.02116e-14 0 8.02116e-14 -2.03557e-13 0 0 0 0)
(0 5.36135e-14 0 5.36135e-14 2.00305e-13 0 0 0 0)
(0 3.5605e-14 0 3.5605e-14 -1.96964e-13 0 0 0 0)
(0 2.34042e-14 0 2.34042e-14 1.93649e-13 0 0 0 0)
(0 1.52702e-14 0 1.52702e-14 -1.90269e-13 0 0 0 0)
(0 9.9141e-15 0 9.9141e-15 1.869e-13 0 0 0 0)
(-1.50452e-19 6.2992e-15 0 6.2992e-15 -1.83493e-13 0 0 0 0)
(0 3.9846e-15 0 3.9846e-15 1.80053e-13 0 0 0 0)
(0 2.47034e-15 0 2.47034e-15 -1.76606e-13 0 0 0 0)
(0 1.47132e-15 0 1.47132e-15 1.73146e-13 0 0 0 0)
(0 9.24277e-16 0 9.24277e-16 -1.6967e-13 0 0 0 0)
(0 6.54942e-16 0 6.54942e-16 1.6616e-13 0 0 0 0)
(0 4.13361e-16 0 4.13361e-16 -1.62662e-13 0 0 0 0)
(0 1.88746e-16 0 1.88746e-16 1.59121e-13 0 0 0 0)
(0 4.67282e-17 0 4.67282e-17 -1.55604e-13 0 0 0 0)
(0 -3.86102e-18 0 -3.86102e-18 1.5203e-13 0 0 0 0)
(-1.23064e-19 3.90112e-17 0 3.90112e-17 -1.48482e-13 0 0 0 0)
(0 8.01491e-17 0 8.01491e-17 1.44924e-13 0 0 0 0)
(0 3.115e-17 0 3.115e-17 -1.41344e-13 0 0 0 0)
(1.15864e-19 -2.59247e-17 0 -2.59247e-17 1.37779e-13 0 0 0 0)
(0 4.01717e-17 0 4.01717e-17 -1.34175e-13 0 0 0 0)
(0 2.87433e-17 0 2.87433e-17 1.30581e-13 0 0 0 0)
(0 -4.73162e-17 0 -4.73162e-17 -1.26968e-13 0 0 0 0)
(0 7.77815e-18 0 7.77815e-18 1.23348e-13 0 0 0 0)
(0 -4.57143e-17 0 -4.57143e-17 -1.19716e-13 0 0 0 0)
(0 -6.95053e-17 0 -6.95053e-17 1.16082e-13 0 0 0 0)
(0 8.11079e-17 0 8.11079e-17 -1.12429e-13 0 0 0 0)
(0 1.18613e-16 0 1.18613e-16 1.08762e-13 0 0 0 0)
(0 -5.05963e-17 0 -5.05963e-17 -1.05084e-13 0 0 0 0)
(0 -1.39742e-16 0 -1.39742e-16 1.01443e-13 0 0 0 0)
(0 -4.31193e-17 0 -4.31193e-17 -1.11779e-13 0 0 0 0)
(0 -2.77933e-17 0 -2.77933e-17 1.10445e-13 0 0 0 0)
(0 -3.4146e-18 0 -3.4146e-18 -1.09166e-13 0 0 0 0)
(0 3.0255e-17 0 3.0255e-17 1.07871e-13 0 0 0 0)
(0 1.08526e-17 0 1.08526e-17 -1.06569e-13 0 0 0 0)
(0 9.87323e-18 0 9.87323e-18 1.0525e-13 0 0 0 0)
(0 -5.58512e-18 0 -5.58512e-18 -1.03927e-13 0 0 0 0)
(0 6.08805e-19 0 6.08805e-19 1.02583e-13 0 0 0 0)
(0 1.02173e-17 0 1.02173e-17 -1.01237e-13 0 0 0 0)
(0 -4.12929e-17 0 -4.12929e-17 9.98664e-14 0 0 0 0)
(0 -4.10282e-18 0 -4.10282e-18 -9.84946e-14 0 0 0 0)
(0 3.42519e-17 0 3.42519e-17 9.70983e-14 0 0 0 0)
(0 3.30872e-18 0 3.30872e-18 -9.56991e-14 0 0 0 0)
(0 2.67345e-18 0 2.67345e-18 9.42727e-14 0 0 0 0)
(0 2.75286e-18 0 2.75286e-18 -9.28446e-14 0 0 0 0)
(0 9.79382e-19 0 9.79382e-19 9.13869e-14 0 0 0 0)
(0 -2.85874e-18 0 -2.85874e-18 -8.99275e-14 0 0 0 0)
(0 5.63806e-18 0 5.63806e-18 8.84352e-14 0 0 0 0)
(0 -2.56757e-18 0 -2.56757e-18 -8.69446e-14 0 0 0 0)
(0 -7.01449e-18 0 -7.01449e-18 8.54132e-14 0 0 0 0)
(0 -6.40569e-18 0 -6.40569e-18 -8.38881e-14 0 0 0 0)
(0 -5.82335e-19 0 -5.82335e-19 8.23151e-14 0 0 0 0)
(0 1.05879e-17 0 1.05879e-17 -8.07474e-14 0 0 0 0)
(0 6.40569e-18 0 6.40569e-18 7.91284e-14 0 0 0 0)
(0 5.00279e-18 0 5.00279e-18 -7.7512e-14 0 0 0 0)
(0 4.20869e-18 0 4.20869e-18 7.58417e-14 0 0 0 0)
(0 -1.89524e-17 0 -1.89524e-17 -7.41715e-14 0 0 0 0)
(0 -1.45054e-17 0 -1.45054e-17 7.24413e-14 0 0 0 0)
(0 -2.92491e-17 0 -2.92491e-17 -7.07073e-14 0 0 0 0)
(0 -6.36334e-17 0 -6.36334e-17 6.89119e-14 0 0 0 0)
(0 -1.95268e-16 0 -1.95268e-16 -6.71031e-14 0 0 0 0)
(0 2.14405e-18 0 2.14405e-18 6.52292e-14 0 0 0 0)
(0 1.92012e-16 0 1.92012e-16 -6.3328e-14 0 0 0 0)
(0 5.21455e-17 0 5.21455e-17 6.13669e-14 0 0 0 0)
(0 2.01435e-17 0 2.01435e-17 -5.93697e-14 0 0 0 0)
(0 8.04681e-18 0 8.04681e-18 5.72802e-14 0 0 0 0)
(0 2.99109e-17 0 2.99109e-17 -5.51512e-14 0 0 0 0)
(0 1.34466e-17 0 1.34466e-17 5.29418e-14 0 0 0 0)
(0 -1.54848e-17 0 -1.54848e-17 -5.06289e-14 0 0 0 0)
(0 -6.45069e-17 0 -6.45069e-17 4.82471e-14 0 0 0 0)
(0 4.65868e-18 0 4.65868e-18 -4.56748e-14 0 0 0 0)
(0 1.15117e-16 0 1.15117e-16 4.31155e-14 0 0 0 0)
(0 5.26484e-17 0 5.26484e-17 -4.0231e-14 0 0 0 0)
(0 -4.79897e-17 0 -4.79897e-17 3.72972e-14 0 0 0 0)
(0 -4.07899e-17 0 -4.07899e-17 -3.39019e-14 0 0 0 0)
(0 -9.31736e-18 0 -9.31736e-18 3.05726e-14 0 0 0 0)
(0 -2.75286e-18 0 -2.75286e-18 -2.62712e-14 0 0 0 0)
(0 4.65868e-18 0 4.65868e-18 2.19747e-14 0 0 0 0)
(0 -3.94929e-17 0 -3.94929e-17 -1.58032e-14 0 0 0 0)
(0 -3.94135e-17 0 -3.94135e-17 5.50976e-15 0 0 0 0)
)
;

boundaryField
{
    inandouthalf11
    {
        type            cyclic;
    }
    inandouthalf12
    {
        type            cyclic;
    }
    inandouthalf21
    {
        type            cyclic;
    }
    inandouthalf22
    {
        type            cyclic;
    }
    inandouthalf31
    {
        type            cyclic;
    }
    inandouthalf32
    {
        type            cyclic;
    }
    inandouthalf41
    {
        type            cyclic;
    }
    inandouthalf42
    {
        type            cyclic;
    }
    top
    {
        type            symmetryPlane;
    }
    walls
    {
        type            zeroGradient;
    }
    frontAndBackPlanes
    {
        type            empty;
    }
}


// ************************************************************************* //
