/*--------------------------------*- C++ -*----------------------------------*\
| =========                 |                                                 |
| \\      /  F ield         | OpenFOAM: The Open Source CFD Toolbox           |
|  \\    /   O peration     | Version:  2.4.x                                 |
|   \\  /    A nd           | Web:      www.OpenFOAM.org                      |
|    \\/     M anipulation  |                                                 |
\*---------------------------------------------------------------------------*/
FoamFile
{
    version     2.0;
    format      ascii;
    class       volVectorField;
    location    "5.05";
    object      Ub;
}
// * * * * * * * * * * * * * * * * * * * * * * * * * * * * * * * * * * * * * //

dimensions      [0 1 -1 0 0 0 0];

internalField   nonuniform List<vector> 
360
(
(4.274e-07 9.51818e-08 0)
(3.87233e-07 3.63249e-07 0)
(3.4086e-07 6.93287e-07 0)
(3.00246e-07 9.95042e-07 0)
(2.60414e-07 1.2856e-06 0)
(2.19026e-07 1.58085e-06 0)
(1.76295e-07 1.8829e-06 0)
(1.32728e-07 2.189e-06 0)
(8.85875e-08 2.49697e-06 0)
(4.39377e-08 2.80623e-06 0)
(-1.29833e-09 3.11726e-06 0)
(-4.72215e-08 3.43062e-06 0)
(-9.38808e-08 3.74659e-06 0)
(-1.41276e-07 4.0651e-06 0)
(-1.89384e-07 4.38594e-06 0)
(-2.38196e-07 4.70901e-06 0)
(-2.87724e-07 5.03431e-06 0)
(-3.37989e-07 5.36191e-06 0)
(-3.89018e-07 5.6919e-06 0)
(-4.40851e-07 6.02452e-06 0)
(-4.93535e-07 6.35993e-06 0)
(-5.47135e-07 6.6985e-06 0)
(-6.01742e-07 7.04071e-06 0)
(-6.57451e-07 7.38705e-06 0)
(-7.14349e-07 7.73793e-06 0)
(-7.7249e-07 8.09359e-06 0)
(-8.31872e-07 8.45385e-06 0)
(-8.92415e-07 8.81815e-06 0)
(-9.53929e-07 9.18521e-06 0)
(-1.01609e-06 9.55304e-06 0)
(-1.07847e-06 9.91912e-06 0)
(-1.14064e-06 1.0281e-05 0)
(-1.20224e-06 1.06365e-05 0)
(-1.26314e-06 1.09852e-05 0)
(-1.32358e-06 1.13285e-05 0)
(-1.38431e-06 1.16706e-05 0)
(-1.44669e-06 1.20192e-05 0)
(-1.51293e-06 1.23867e-05 0)
(-1.58621e-06 1.27906e-05 0)
(-1.67078e-06 1.32535e-05 0)
(-1.77179e-06 1.38021e-05 0)
(-1.89355e-06 1.44551e-05 0)
(-2.0349e-06 1.52002e-05 0)
(-2.18265e-06 1.59672e-05 0)
(-2.31102e-06 1.66355e-05 0)
(-2.39705e-06 1.71013e-05 0)
(-2.43933e-06 1.73508e-05 0)
(-2.45436e-06 1.74513e-05 0)
(-2.45836e-06 1.74815e-05 0)
(-2.45921e-06 1.74883e-05 0)
(-2.45936e-06 1.74888e-05 0)
(-2.45935e-06 1.74881e-05 0)
(-2.45931e-06 1.7487e-05 0)
(-2.45926e-06 1.74859e-05 0)
(-2.4592e-06 1.74845e-05 0)
(-2.45913e-06 1.74831e-05 0)
(-2.45906e-06 1.74816e-05 0)
(-2.45898e-06 1.748e-05 0)
(-2.4589e-06 1.74784e-05 0)
(-2.45882e-06 1.74766e-05 0)
(-2.45873e-06 1.74749e-05 0)
(-2.45865e-06 1.74729e-05 0)
(-2.45856e-06 1.7471e-05 0)
(-2.45846e-06 1.7469e-05 0)
(-2.45837e-06 1.7467e-05 0)
(-2.45828e-06 1.74648e-05 0)
(-2.45818e-06 1.74627e-05 0)
(-2.45807e-06 1.74604e-05 0)
(-2.45796e-06 1.74581e-05 0)
(-2.45785e-06 1.74557e-05 0)
(-2.45774e-06 1.74532e-05 0)
(-2.45761e-06 1.74506e-05 0)
(-2.45749e-06 1.74479e-05 0)
(-2.45736e-06 1.74452e-05 0)
(-2.45723e-06 1.74423e-05 0)
(-2.45709e-06 1.74395e-05 0)
(-2.45695e-06 1.74365e-05 0)
(-2.45681e-06 1.74335e-05 0)
(-2.45667e-06 1.74304e-05 0)
(-2.45652e-06 1.74272e-05 0)
(-2.45637e-06 1.7424e-05 0)
(-2.45622e-06 1.74207e-05 0)
(-2.45606e-06 1.74173e-05 0)
(-2.45589e-06 1.74138e-05 0)
(-2.45573e-06 1.74102e-05 0)
(-2.45556e-06 1.74065e-05 0)
(-2.45538e-06 1.74028e-05 0)
(-2.4552e-06 1.73989e-05 0)
(-2.45502e-06 1.7395e-05 0)
(-2.45483e-06 1.7391e-05 0)
(-2.45464e-06 1.7387e-05 0)
(-2.45445e-06 1.73828e-05 0)
(-2.45425e-06 1.73786e-05 0)
(-2.45405e-06 1.73742e-05 0)
(-2.45384e-06 1.73697e-05 0)
(-2.45363e-06 1.73652e-05 0)
(-2.45341e-06 1.73605e-05 0)
(-2.45318e-06 1.73557e-05 0)
(-2.45295e-06 1.73509e-05 0)
(-2.45272e-06 1.73459e-05 0)
(-2.45248e-06 1.73407e-05 0)
(-2.45223e-06 1.73355e-05 0)
(-2.45198e-06 1.73301e-05 0)
(-2.45172e-06 1.73246e-05 0)
(-2.45145e-06 1.7319e-05 0)
(-2.45118e-06 1.73132e-05 0)
(-2.4509e-06 1.73073e-05 0)
(-2.45061e-06 1.73013e-05 0)
(-2.45031e-06 1.7295e-05 0)
(-2.45001e-06 1.72887e-05 0)
(-2.44969e-06 1.72821e-05 0)
(-2.44937e-06 1.72754e-05 0)
(-2.44904e-06 1.72684e-05 0)
(-2.44869e-06 1.72613e-05 0)
(-2.44834e-06 1.7254e-05 0)
(-2.44798e-06 1.72465e-05 0)
(-2.4476e-06 1.72387e-05 0)
(-2.44721e-06 1.72307e-05 0)
(-2.44681e-06 1.72225e-05 0)
(-2.4464e-06 1.7214e-05 0)
(-2.44597e-06 1.72053e-05 0)
(-2.44552e-06 1.71962e-05 0)
(-2.44507e-06 1.71869e-05 0)
(-2.44459e-06 1.71773e-05 0)
(-2.4441e-06 1.71674e-05 0)
(-2.4436e-06 1.71571e-05 0)
(-2.44307e-06 1.71465e-05 0)
(-2.44252e-06 1.71355e-05 0)
(-2.44195e-06 1.7124e-05 0)
(-2.44136e-06 1.71121e-05 0)
(-2.44074e-06 1.70998e-05 0)
(-2.44009e-06 1.70869e-05 0)
(-2.43941e-06 1.70734e-05 0)
(-2.43869e-06 1.70591e-05 0)
(-2.43792e-06 1.70442e-05 0)
(-2.4371e-06 1.70284e-05 0)
(-2.43624e-06 1.70116e-05 0)
(-2.43532e-06 1.69934e-05 0)
(-2.4343e-06 1.69732e-05 0)
(-2.43313e-06 1.69517e-05 0)
(-2.43185e-06 1.69299e-05 0)
(-2.43062e-06 1.69028e-05 0)
(-2.42915e-06 1.68729e-05 0)
(-2.42723e-06 1.68377e-05 0)
(-2.42486e-06 1.67764e-05 0)
(-2.42913e-06 1.69706e-05 0)
(-1.12038e-05 1.09069e-05 0)
(-0.00521932 3.7946e-05 0)
(-0.0977883 0.000170323 0)
(-0.195364 9.98345e-05 0)
(-0.271151 0.0001006 0)
(-0.332923 8.48129e-05 0)
(-0.38466 6.95834e-05 0)
(-0.428776 5.54171e-05 0)
(-0.466937 4.27026e-05 0)
(-0.50036 3.17077e-05 0)
(-0.529962 2.25284e-05 0)
(-0.556447 1.50831e-05 0)
(-0.580364 9.18331e-06 0)
(-0.602141 4.59958e-06 0)
(-0.622117 1.10269e-06 0)
(-0.640563 -1.51385e-06 0)
(-0.657695 -3.42838e-06 0)
(-0.67369 -4.78986e-06 0)
(-0.688692 -5.71835e-06 0)
(-0.70282 -6.31049e-06 0)
(-0.716171 -6.64338e-06 0)
(-0.728828 -6.77816e-06 0)
(-0.740859 -6.76307e-06 0)
(-0.752324 -6.63612e-06 0)
(-0.763271 -6.42713e-06 0)
(-0.773743 -6.15949e-06 0)
(-0.783775 -5.85143e-06 0)
(-0.793398 -5.51713e-06 0)
(-0.802638 -5.16756e-06 0)
(-0.811519 -4.81117e-06 0)
(-0.820058 -4.45438e-06 0)
(-0.828272 -4.10189e-06 0)
(-0.836174 -3.75659e-06 0)
(-0.843775 -3.41945e-06 0)
(-0.851085 -3.0896e-06 0)
(-0.85811 -2.76535e-06 0)
(-0.864857 -2.44592e-06 0)
(-0.871327 -2.13352e-06 0)
(-0.877523 -1.83402e-06 0)
(-0.883447 -1.55565e-06 0)
(-0.889097 -1.30626e-06 0)
(-0.894472 -1.09063e-06 0)
(-0.899571 -9.09511e-07 0)
(-0.904389 -7.60301e-07 0)
(-0.908926 -6.38543e-07 0)
(-0.913177 -5.39004e-07 0)
(-0.917141 -4.56308e-07 0)
(-0.920815 -3.85799e-07 0)
(-0.924198 -3.24616e-07 0)
(-0.927292 -2.71826e-07 0)
(-0.930099 -2.273e-07 0)
(-0.932622 -1.90511e-07 0)
(-0.934871 -1.60326e-07 0)
(-0.936852 -1.35499e-07 0)
(-0.93858 -1.15037e-07 0)
(-0.940081 -9.79283e-08 0)
(-0.941376 -8.33465e-08 0)
(-0.942468 -7.08895e-08 0)
(-0.943363 -6.03983e-08 0)
(-0.944071 -5.15442e-08 0)
(-0.944599 -4.39003e-08 0)
(-0.944958 -3.7351e-08 0)
(-0.945156 -3.18541e-08 0)
(-0.945204 -2.71606e-08 0)
(-0.945109 -2.30969e-08 0)
(-0.94488 -1.9628e-08 0)
(-0.944524 -1.66635e-08 0)
(-0.944047 -1.41217e-08 0)
(-0.943453 -1.1954e-08 0)
(-0.942749 -1.00805e-08 0)
(-0.941938 -8.47462e-09 0)
(-0.941023 -7.13261e-09 0)
(-0.940009 -5.98185e-09 0)
(-0.938897 -4.9822e-09 0)
(-0.93769 -4.14289e-09 0)
(-0.936392 -3.43826e-09 0)
(-0.935003 -2.83729e-09 0)
(-0.933528 -2.32464e-09 0)
(-0.931968 -1.89173e-09 0)
(-0.930325 -1.53412e-09 0)
(-0.928603 -1.23468e-09 0)
(-0.926804 -9.82915e-10 0)
(-0.92493 -7.78468e-10 0)
(-0.922986 -6.1126e-10 0)
(-0.920973 -4.71945e-10 0)
(-0.918895 -3.56374e-10 0)
(-0.916757 -2.63914e-10 0)
(-0.914562 -1.98478e-10 0)
(-0.912316 -1.55094e-10 0)
(-0.910023 -1.2536e-10 0)
(-0.90769 -1.38993e-10 0)
(-0.905323 -6.61201e-11 0)
(-0.902932 2.23236e-11 0)
(-0.900525 -3.88742e-12 0)
(-0.898116 1.17826e-11 0)
(-0.895718 -4.90221e-11 0)
(-0.89335 1.04862e-10 0)
(-0.891037 -1.97665e-10 0)
(-0.888811 3.15597e-10 0)
(-0.886717 -4.71543e-10 0)
(-0.884829 6.49672e-10 0)
(-0.883268 -8.56765e-10 0)
(-0.882558 1.07374e-09 0)
(-0.882481 -1.30586e-09 0)
(-0.882478 1.53895e-09 0)
(-0.882477 -1.78284e-09 0)
(-0.882476 2.02767e-09 0)
(-0.882476 -2.28329e-09 0)
(-0.882475 2.54087e-09 0)
(-0.882475 -2.80927e-09 0)
(-0.882475 3.08064e-09 0)
(-0.882474 -3.36282e-09 0)
(-0.882474 3.64891e-09 0)
(-0.882474 -3.94576e-09 0)
(-0.882474 4.24745e-09 0)
(-0.882474 -4.55981e-09 0)
(-0.882474 4.87788e-09 0)
(-0.882474 -5.20654e-09 0)
(-0.882474 5.54172e-09 0)
(-0.882474 -5.88742e-09 0)
(-0.882474 6.24039e-09 0)
(-0.882474 -6.60382e-09 0)
(-0.882474 6.97523e-09 0)
(-0.882474 -7.35707e-09 0)
(-0.882474 7.7475e-09 0)
(-0.882474 -8.14839e-09 0)
(-0.882474 8.55844e-09 0)
(-0.882474 -8.97896e-09 0)
(-0.882474 9.40918e-09 0)
(-0.882474 -9.84992e-09 0)
(-0.882474 1.03009e-08 0)
(-0.882474 -1.07624e-08 0)
(-0.882474 1.12346e-08 0)
(-0.882474 -1.17175e-08 0)
(-0.882474 1.22115e-08 0)
(-0.882474 -1.27162e-08 0)
(-0.882474 1.32325e-08 0)
(-0.882474 -1.37597e-08 0)
(-0.882474 1.42989e-08 0)
(-0.882474 -1.4849e-08 0)
(-0.882474 1.54114e-08 0)
(-0.882474 -1.5985e-08 0)
(-0.882474 1.6571e-08 0)
(-0.882474 -1.71685e-08 0)
(-0.882474 1.77788e-08 0)
(-0.882474 -1.84007e-08 0)
(-0.882474 1.90355e-08 0)
(-0.882474 -1.96824e-08 0)
(-0.882474 2.03422e-08 0)
(-0.882474 -2.10144e-08 0)
(-0.882474 2.16996e-08 0)
(-0.882474 -2.23975e-08 0)
(-0.882474 2.31087e-08 0)
(-0.882474 -2.38327e-08 0)
(-0.882474 2.45702e-08 0)
(-0.882474 -2.53206e-08 0)
(-0.882474 2.60848e-08 0)
(-0.882474 -2.6862e-08 0)
(-0.882474 2.7653e-08 0)
(-0.882474 -2.84572e-08 0)
(-0.882474 2.92755e-08 0)
(-0.882474 -3.01069e-08 0)
(-0.882474 3.09524e-08 0)
(-0.882474 -3.18112e-08 0)
(-0.882474 2.86876e-08 0)
(-0.882474 -2.89095e-08 0)
(-0.882474 2.91293e-08 0)
(-0.882474 -2.93462e-08 0)
(-0.882474 2.95608e-08 0)
(-0.882474 -2.97725e-08 0)
(-0.882474 2.99818e-08 0)
(-0.882474 -3.01882e-08 0)
(-0.882474 3.03921e-08 0)
(-0.882474 -3.05931e-08 0)
(-0.882474 3.07916e-08 0)
(-0.882474 -3.09871e-08 0)
(-0.882474 3.118e-08 0)
(-0.882474 -3.13699e-08 0)
(-0.882474 3.15571e-08 0)
(-0.882474 -3.17413e-08 0)
(-0.882474 3.19226e-08 0)
(-0.882474 -3.2101e-08 0)
(-0.882474 3.22764e-08 0)
(-0.882474 -3.24488e-08 0)
(-0.882474 3.2618e-08 0)
(-0.882474 -3.27843e-08 0)
(-0.882474 3.29473e-08 0)
(-0.882474 -3.31073e-08 0)
(-0.882474 3.32638e-08 0)
(-0.882474 -3.34174e-08 0)
(-0.882474 3.35672e-08 0)
(-0.882474 -3.37141e-08 0)
(-0.882474 3.38569e-08 0)
(-0.882474 -3.39969e-08 0)
(-0.882474 3.41326e-08 0)
(-0.882474 -3.42653e-08 0)
(-0.882474 3.43935e-08 0)
(-0.882474 -3.45186e-08 0)
(-0.882474 3.4639e-08 0)
(-0.882474 -3.47561e-08 0)
(-0.882474 3.48681e-08 0)
(-0.882474 -3.49767e-08 0)
(-0.882474 3.50799e-08 0)
(-0.882474 -3.51792e-08 0)
(-0.882474 3.52729e-08 0)
(-0.882474 -3.53619e-08 0)
(-0.882474 3.54453e-08 0)
(-0.882474 -3.55228e-08 0)
(-0.882474 3.55945e-08 0)
(-0.882474 -3.56584e-08 0)
(-0.882474 3.57168e-08 0)
(-0.882474 -3.57635e-08 0)
(-0.882474 3.58047e-08 0)
(-0.882474 -3.58267e-08 0)
)
;

boundaryField
{
    inandouthalf11
    {
        type            cyclic;
    }
    inandouthalf12
    {
        type            cyclic;
    }
    inandouthalf21
    {
        type            cyclic;
    }
    inandouthalf22
    {
        type            cyclic;
    }
    inandouthalf31
    {
        type            cyclic;
    }
    inandouthalf32
    {
        type            cyclic;
    }
    inandouthalf41
    {
        type            cyclic;
    }
    inandouthalf42
    {
        type            cyclic;
    }
    top
    {
        type            symmetryPlane;
    }
    walls
    {
        type            fixedValue;
        value           uniform (0 0 0);
    }
    frontAndBackPlanes
    {
        type            empty;
    }
}


// ************************************************************************* //
