/*--------------------------------*- C++ -*----------------------------------*\
| =========                 |                                                 |
| \\      /  F ield         | OpenFOAM: The Open Source CFD Toolbox           |
|  \\    /   O peration     | Version:  2.4.x                                 |
|   \\  /    A nd           | Web:      www.OpenFOAM.org                      |
|    \\/     M anipulation  |                                                 |
\*---------------------------------------------------------------------------*/
FoamFile
{
    version     2.0;
    format      ascii;
    class       volScalarField;
    location    "2.5";
    object      alpha_0;
}
// * * * * * * * * * * * * * * * * * * * * * * * * * * * * * * * * * * * * * //

dimensions      [0 0 0 0 0 0 0];

internalField   nonuniform List<scalar> 
360
(
0.609996
0.609996
0.609995
0.609995
0.609995
0.609994
0.609994
0.609993
0.609993
0.609992
0.609991
0.609991
0.60999
0.609989
0.609988
0.609987
0.609986
0.609986
0.609985
0.609984
0.609985
0.609985
0.609985
0.609985
0.609986
0.609987
0.609987
0.609986
0.609985
0.609983
0.609981
0.609978
0.609976
0.609972
0.609969
0.609964
0.60996
0.609955
0.609949
0.609943
0.609936
0.609929
0.609922
0.609913
0.609904
0.609894
0.609883
0.609872
0.60986
0.609846
0.609832
0.609816
0.6098
0.609782
0.609763
0.609742
0.609721
0.609698
0.609674
0.609649
0.609622
0.609595
0.609567
0.609538
0.609508
0.609478
0.609447
0.609415
0.609381
0.609345
0.609308
0.609268
0.609228
0.609185
0.609142
0.609098
0.609054
0.609009
0.608964
0.608919
0.608873
0.608826
0.608778
0.608728
0.608676
0.608624
0.608569
0.608514
0.608458
0.608401
0.608343
0.608284
0.608224
0.608162
0.608099
0.608035
0.60797
0.607903
0.607835
0.607765
0.607693
0.60762
0.607546
0.607469
0.607391
0.607311
0.607229
0.607144
0.607058
0.60697
0.606879
0.606786
0.60669
0.606591
0.60649
0.606386
0.606279
0.606169
0.606055
0.605938
0.605816
0.605691
0.605562
0.605428
0.605289
0.605145
0.604995
0.604839
0.604677
0.604507
0.60433
0.604146
0.603954
0.603752
0.603539
0.603315
0.603083
0.60284
0.602573
0.602271
0.60195
0.601657
0.601304
0.60083
0.600242
0.599413
0.590605
0.382377
0.267791
0.213286
0.176186
0.147442
0.124914
0.106813
0.0919889
0.0796721
0.0693237
0.0605523
0.0530591
0.0466142
0.0410349
0.0361751
0.0319176
0.0281682
0.0248502
0.0219013
0.0192712
0.0169193
0.0148129
0.0129253
0.0112337
0.0097177
0.00835847
0.00713933
0.0060466
0.00506944
0.00419699
0.00341262
0.00269217
0.00201725
0.00140062
0.000888915
0.00052129
0.000294395
0.000169696
0.000105247
7.16398e-05
5.30273e-05
4.14723e-05
3.36561e-05
2.7887e-05
2.35607e-05
2.00788e-05
1.72478e-05
1.49062e-05
1.29813e-05
1.1395e-05
9.99697e-06
8.79131e-06
7.74611e-06
6.88605e-06
6.15347e-06
5.45179e-06
4.7758e-06
4.21959e-06
3.79571e-06
3.38358e-06
2.93089e-06
2.56867e-06
2.30651e-06
2.03027e-06
1.7571e-06
1.5512e-06
1.36885e-06
1.18004e-06
1.02926e-06
9.15911e-07
7.91624e-07
6.71018e-07
5.90362e-07
5.15798e-07
4.38655e-07
3.78573e-07
3.23881e-07
2.73002e-07
2.36004e-07
2.0088e-07
1.66079e-07
1.41974e-07
1.19921e-07
9.82628e-08
8.31361e-08
6.86761e-08
5.67789e-08
4.618e-08
3.76888e-08
3.06538e-08
2.43838e-08
1.92883e-08
1.58995e-08
1.33282e-08
4.60485e-08
1.53896e-11
5.05077e-12
4.2515e-12
3.16676e-12
2.74663e-12
2.23033e-12
1.9534e-12
1.46473e-12
1.22394e-12
8.81836e-13
7.45904e-13
6.38795e-13
4.81014e-13
3.67486e-13
2.4922e-13
2.09521e-13
1.81113e-13
1.38589e-13
8.98594e-14
6.56683e-14
5.47071e-14
4.57406e-14
3.05178e-14
2.00217e-14
1.59988e-14
1.33154e-14
9.13005e-15
5.67341e-15
4.36698e-15
3.54758e-15
2.32506e-15
1.408e-15
1.05721e-15
8.12657e-16
4.81109e-16
3.16668e-16
2.36152e-16
1.43976e-16
9.59167e-17
6.88052e-17
4.08811e-17
2.90251e-17
1.63686e-17
1.02425e-17
3.92864e-18
1.75649e-18
7.30483e-19
2.96657e-19
1.22975e-19
4.99604e-20
1.97455e-20
7.52789e-21
2.75059e-21
9.56591e-22
3.14674e-22
9.73386e-23
2.81418e-23
7.5525e-24
1.86652e-24
4.20758e-25
8.5511e-26
1.54387e-26
2.42909e-27
3.24366e-28
3.53592e-29
2.95355e-30
1.6718e-31
4.44861e-33
4.63433e-35
1.19842e-36
1.53372e-38
2.05858e-49
1.38295e-60
6.6603e-72
2.38915e-83
7.33547e-95
2.29922e-106
1.17111e-117
1.71564e-125
3.35714e-136
5.90292e-144
1.14415e-154
2.03051e-162
4.853e-173
6.98276e-181
2.19434e-191
2.40282e-199
1.48805e-209
8.32086e-218
9.88112e-228
2.91118e-236
5.05542e-246
1.02913e-254
2.40713e-264
3.6841e-273
1.06797e-282
1.33367e-291
4.58392e-301
4.88876e-310
6.34966e-318
5.31121e-321
8.5424e-321
0
0
0
0
0
0
0
0
0
0
0
0
0
0
0
0
)
;

boundaryField
{
    inandouthalf11
    {
        type            cyclic;
    }
    inandouthalf12
    {
        type            cyclic;
    }
    inandouthalf21
    {
        type            cyclic;
    }
    inandouthalf22
    {
        type            cyclic;
    }
    inandouthalf31
    {
        type            cyclic;
    }
    inandouthalf32
    {
        type            cyclic;
    }
    inandouthalf41
    {
        type            cyclic;
    }
    inandouthalf42
    {
        type            cyclic;
    }
    top
    {
        type            symmetryPlane;
    }
    walls
    {
        type            zeroGradient;
    }
    frontAndBackPlanes
    {
        type            empty;
    }
}


// ************************************************************************* //
