/*--------------------------------*- C++ -*----------------------------------*\
| =========                 |                                                 |
| \\      /  F ield         | OpenFOAM: The Open Source CFD Toolbox           |
|  \\    /   O peration     | Version:  2.4.x                                 |
|   \\  /    A nd           | Web:      www.OpenFOAM.org                      |
|    \\/     M anipulation  |                                                 |
\*---------------------------------------------------------------------------*/
FoamFile
{
    version     2.0;
    format      ascii;
    class       surfaceScalarField;
    location    "2.5";
    object      ddt0(phia);
}
// * * * * * * * * * * * * * * * * * * * * * * * * * * * * * * * * * * * * * //

dimensions      [0 3 -2 0 0 0 0];

internalField   nonuniform List<scalar> 
359
(
-3.65589e-39
-3.65647e-39
-7.67611e-20
-1.62049e-18
-1.81747e-17
-1.44672e-16
-9.1513e-16
-4.89281e-15
-2.2819e-14
-9.46773e-14
-3.52512e-13
-1.18144e-12
-3.57368e-12
-9.74744e-12
-2.39371e-11
-5.28541e-11
-1.04867e-10
-1.87039e-10
-3.00308e-10
-4.35423e-10
-5.72329e-10
-6.86404e-10
-7.57081e-10
-7.75373e-10
-7.45406e-10
-6.80389e-10
-5.96378e-10
-5.07257e-10
-4.22702e-10
-3.47996e-10
-2.85052e-10
-2.33572e-10
-1.92315e-10
-1.59517e-10
-1.33586e-10
-1.13046e-10
-9.67093e-11
-8.36144e-11
-7.30242e-11
-6.43967e-11
-5.72901e-11
-5.13836e-11
-4.64294e-11
-4.22279e-11
-3.86362e-11
-3.55405e-11
-3.28534e-11
-3.05083e-11
-2.84474e-11
-2.6626e-11
-2.50142e-11
-2.35851e-11
-2.23194e-11
-2.11999e-11
-2.02141e-11
-1.93504e-11
-1.86017e-11
-1.79618e-11
-1.7427e-11
-1.69948e-11
-1.66626e-11
-1.6429e-11
-1.62909e-11
-1.62444e-11
-1.62841e-11
-1.64028e-11
-1.65924e-11
-1.68433e-11
-1.71435e-11
-1.74763e-11
-1.78175e-11
-1.81301e-11
-1.83611e-11
-1.84429e-11
-1.82989e-11
-1.78588e-11
-1.70778e-11
-1.59513e-11
-1.45168e-11
-1.28426e-11
-1.10084e-11
-9.08452e-12
-7.12133e-12
-5.14624e-12
-3.16677e-12
-1.17714e-12
8.35548e-13
2.88496e-12
4.98197e-12
7.13247e-12
9.33691e-12
1.15914e-11
1.38897e-11
1.62245e-11
1.85888e-11
2.09758e-11
2.33792e-11
2.57927e-11
2.82099e-11
3.06245e-11
3.303e-11
3.54206e-11
3.77909e-11
4.01363e-11
4.2453e-11
4.47377e-11
4.69878e-11
4.92014e-11
5.13773e-11
5.35147e-11
5.56137e-11
5.76751e-11
5.97006e-11
6.16926e-11
6.36543e-11
6.55897e-11
6.75036e-11
6.9401e-11
7.12873e-11
7.31668e-11
7.50431e-11
7.69172e-11
7.87869e-11
8.0646e-11
8.24833e-11
8.42818e-11
8.60185e-11
8.76633e-11
8.91798e-11
9.05268e-11
9.16645e-11
9.25651e-11
9.32244e-11
9.3671e-11
9.39711e-11
9.42359e-11
9.46327e-11
9.54012e-11
9.68689e-11
9.93798e-11
1.02956e-10
1.06823e-10
1.10099e-10
1.12073e-10
1.12672e-10
1.12633e-10
1.93642e-08
-1.85373e-08
-4.71194e-08
-7.03627e-08
-9.54493e-08
-1.21293e-07
-1.4533e-07
-1.66292e-07
-1.8404e-07
-1.98458e-07
-2.09501e-07
-2.17786e-07
-2.24245e-07
-2.29904e-07
-2.35827e-07
-2.42504e-07
-2.5008e-07
-2.59106e-07
-2.70144e-07
-2.84308e-07
-3.02396e-07
-3.25306e-07
-3.52732e-07
-3.83207e-07
-4.14188e-07
-4.43331e-07
-4.69062e-07
-4.90703e-07
-5.08394e-07
-5.22543e-07
-5.3166e-07
-5.28321e-07
-4.98251e-07
-4.31388e-07
-3.39829e-07
-2.54956e-07
-2.00242e-07
-1.7586e-07
-1.70339e-07
-1.73072e-07
-1.76759e-07
-1.80585e-07
-1.84166e-07
-1.87374e-07
-1.90234e-07
-1.92794e-07
-1.95069e-07
-1.97101e-07
-1.98928e-07
-2.00592e-07
-2.02094e-07
-2.03428e-07
-2.04618e-07
-2.05697e-07
-2.06697e-07
-2.07599e-07
-2.08352e-07
-2.09005e-07
-2.09661e-07
-2.1029e-07
-2.10751e-07
-2.11073e-07
-2.11422e-07
-2.11754e-07
-2.11935e-07
-2.12039e-07
-2.12145e-07
-2.12153e-07
-2.12067e-07
-2.12014e-07
-2.11914e-07
-2.1163e-07
-2.11304e-07
-2.11039e-07
-2.10679e-07
-2.10202e-07
-2.09676e-07
-2.09055e-07
-2.08395e-07
-2.07723e-07
-2.06898e-07
-2.05982e-07
-2.05079e-07
-2.04053e-07
-2.02924e-07
-2.01789e-07
-2.0057e-07
-1.99249e-07
-1.97864e-07
-1.96464e-07
-1.95031e-07
-1.9359e-07
-1.92353e-07
-1.91697e-07
-1.91368e-07
-9.64222e-08
3.03524e-10
3.03785e-10
3.03811e-10
3.03736e-10
3.03817e-10
3.03712e-10
3.03825e-10
3.0369e-10
3.03836e-10
3.03669e-10
3.0385e-10
3.03649e-10
3.03866e-10
3.0363e-10
3.03883e-10
3.0361e-10
3.03901e-10
3.0359e-10
3.03912e-10
3.03587e-10
3.03916e-10
3.03573e-10
3.03935e-10
3.03564e-10
3.03939e-10
3.03562e-10
3.03937e-10
3.03562e-10
3.03936e-10
3.03564e-10
3.03933e-10
3.03568e-10
3.03929e-10
3.03572e-10
3.03924e-10
3.03577e-10
3.03919e-10
3.03583e-10
3.03913e-10
3.03588e-10
3.03907e-10
3.03595e-10
3.03901e-10
3.03601e-10
3.03894e-10
3.03608e-10
3.03887e-10
3.03615e-10
3.03881e-10
3.03621e-10
3.03874e-10
3.03628e-10
3.03867e-10
3.03635e-10
3.0386e-10
3.03642e-10
3.03853e-10
3.03648e-10
3.03847e-10
3.03655e-10
3.03841e-10
3.03661e-10
3.03834e-10
3.03667e-10
3.03828e-10
3.03673e-10
3.03823e-10
3.03679e-10
3.03817e-10
3.03684e-10
3.03812e-10
3.03689e-10
3.03808e-10
3.03693e-10
3.03804e-10
3.03697e-10
3.038e-10
3.03701e-10
3.03796e-10
3.03704e-10
3.03793e-10
3.03707e-10
3.0379e-10
3.0371e-10
3.03787e-10
3.03713e-10
3.03784e-10
3.03715e-10
3.03782e-10
3.03718e-10
3.03779e-10
3.03721e-10
3.03777e-10
3.03723e-10
3.03774e-10
3.03725e-10
3.03772e-10
3.03728e-10
3.03769e-10
3.0373e-10
3.03767e-10
3.03732e-10
3.03765e-10
3.03734e-10
3.03762e-10
3.03736e-10
3.0376e-10
3.03738e-10
3.03758e-10
3.0374e-10
3.03756e-10
3.03742e-10
3.03753e-10
3.03752e-10
3.0392e-10
3.07405e-10
4.66555e-10
)
;

boundaryField
{
    inandouthalf11
    {
        type            cyclic;
        value           nonuniform List<scalar> 
100
(
1.15009e-40
1.15027e-40
1.15127e-40
6.26175e-21
1.26954e-19
1.37992e-18
1.07103e-17
6.64698e-17
3.49759e-16
1.61016e-15
6.59969e-15
2.42608e-14
8.0248e-14
2.39135e-13
6.41163e-13
1.54388e-12
3.3341e-12
6.45441e-12
1.12089e-11
1.7499e-11
2.46439e-11
3.14768e-11
3.67356e-11
3.95376e-11
3.96668e-11
3.75325e-11
3.38904e-11
2.95311e-11
2.50845e-11
2.09575e-11
1.73534e-11
1.43284e-11
1.18534e-11
9.85806e-12
8.26151e-12
6.98701e-12
5.96755e-12
5.14779e-12
4.48396e-12
3.9425e-12
3.49724e-12
3.1279e-12
2.81894e-12
2.55818e-12
2.33622e-12
2.14594e-12
1.98181e-12
1.83953e-12
1.71562e-12
1.60729e-12
1.51249e-12
1.42969e-12
1.35769e-12
1.29554e-12
1.24249e-12
1.19797e-12
1.16158e-12
1.13308e-12
1.11231e-12
1.09924e-12
1.09386e-12
1.09614e-12
1.10606e-12
1.12346e-12
1.14814e-12
1.17983e-12
1.21826e-12
1.26324e-12
1.31461e-12
1.37213e-12
1.43536e-12
1.5033e-12
1.57401e-12
1.6444e-12
1.71026e-12
1.76681e-12
1.80973e-12
1.83647e-12
1.84704e-12
1.84392e-12
1.83115e-12
1.81316e-12
1.79373e-12
1.77556e-12
1.76014e-12
1.74801e-12
1.73905e-12
1.73275e-12
1.72849e-12
1.7257e-12
1.72397e-12
1.7231e-12
1.72306e-12
1.72393e-12
1.72587e-12
1.72906e-12
1.73368e-12
1.73991e-12
1.74796e-12
1.75803e-12
)
;
    }
    inandouthalf12
    {
        type            cyclic;
        value           nonuniform List<scalar> 
100
(
-1.15009e-40
-1.15027e-40
-1.15127e-40
-6.26175e-21
-1.26954e-19
-1.37992e-18
-1.07103e-17
-6.64698e-17
-3.49759e-16
-1.61016e-15
-6.59969e-15
-2.42608e-14
-8.0248e-14
-2.39135e-13
-6.41163e-13
-1.54388e-12
-3.3341e-12
-6.45441e-12
-1.12089e-11
-1.7499e-11
-2.46439e-11
-3.14768e-11
-3.67356e-11
-3.95376e-11
-3.96668e-11
-3.75325e-11
-3.38904e-11
-2.95311e-11
-2.50845e-11
-2.09575e-11
-1.73534e-11
-1.43284e-11
-1.18534e-11
-9.85806e-12
-8.26151e-12
-6.98701e-12
-5.96755e-12
-5.14779e-12
-4.48396e-12
-3.9425e-12
-3.49724e-12
-3.1279e-12
-2.81894e-12
-2.55818e-12
-2.33622e-12
-2.14594e-12
-1.98181e-12
-1.83953e-12
-1.71562e-12
-1.60729e-12
-1.51249e-12
-1.42969e-12
-1.35769e-12
-1.29554e-12
-1.24249e-12
-1.19797e-12
-1.16158e-12
-1.13308e-12
-1.11231e-12
-1.09924e-12
-1.09386e-12
-1.09614e-12
-1.10606e-12
-1.12346e-12
-1.14814e-12
-1.17983e-12
-1.21826e-12
-1.26324e-12
-1.31461e-12
-1.37213e-12
-1.43536e-12
-1.5033e-12
-1.57401e-12
-1.6444e-12
-1.71026e-12
-1.76681e-12
-1.80973e-12
-1.83647e-12
-1.84704e-12
-1.84392e-12
-1.83115e-12
-1.81316e-12
-1.79373e-12
-1.77556e-12
-1.76014e-12
-1.74801e-12
-1.73905e-12
-1.73275e-12
-1.72849e-12
-1.7257e-12
-1.72397e-12
-1.7231e-12
-1.72306e-12
-1.72393e-12
-1.72587e-12
-1.72906e-12
-1.73368e-12
-1.73991e-12
-1.74796e-12
-1.75803e-12
)
;
    }
    inandouthalf21
    {
        type            cyclic;
        value           nonuniform List<scalar> 
100
(
1.77032e-12
1.78502e-12
1.8023e-12
1.82233e-12
1.84523e-12
1.87111e-12
1.90006e-12
1.93214e-12
1.96739e-12
2.00582e-12
2.04744e-12
2.0922e-12
2.14007e-12
2.19097e-12
2.24481e-12
2.30146e-12
2.36083e-12
2.42278e-12
2.48722e-12
2.5541e-12
2.6234e-12
2.6952e-12
2.76963e-12
2.84696e-12
2.9275e-12
3.01168e-12
3.09996e-12
3.19276e-12
3.29034e-12
3.39259e-12
3.49881e-12
3.60765e-12
3.71753e-12
3.8273e-12
3.93703e-12
4.04884e-12
4.16857e-12
4.3091e-12
4.49582e-12
4.7703e-12
5.1751e-12
5.70011e-12
6.25605e-12
6.70246e-12
6.90263e-12
6.91086e-12
6.9143e-12
4.60528e-07
3.88228e-07
3.13903e-07
3.19666e-07
3.6268e-07
4.22723e-07
4.9033e-07
5.60701e-07
6.31266e-07
7.00661e-07
7.68173e-07
8.33489e-07
8.96529e-07
9.57296e-07
1.01586e-06
1.07228e-06
1.12661e-06
1.17884e-06
1.22894e-06
1.27683e-06
1.32246e-06
1.36572e-06
1.40644e-06
1.44426e-06
1.47855e-06
1.50839e-06
1.53262e-06
1.54989e-06
1.55875e-06
1.55769e-06
1.54538e-06
1.52134e-06
1.487e-06
1.4467e-06
1.4069e-06
1.37311e-06
1.34736e-06
1.32858e-06
1.31439e-06
1.30312e-06
1.29413e-06
1.28652e-06
1.27978e-06
1.27371e-06
1.26816e-06
1.26307e-06
1.25841e-06
1.2541e-06
1.25006e-06
1.24627e-06
1.24277e-06
1.23955e-06
1.23652e-06
)
;
    }
    inandouthalf22
    {
        type            cyclic;
        value           nonuniform List<scalar> 
100
(
-1.77032e-12
-1.78502e-12
-1.8023e-12
-1.82233e-12
-1.84523e-12
-1.87111e-12
-1.90006e-12
-1.93214e-12
-1.96739e-12
-2.00582e-12
-2.04744e-12
-2.0922e-12
-2.14007e-12
-2.19097e-12
-2.24481e-12
-2.30146e-12
-2.36083e-12
-2.42278e-12
-2.48722e-12
-2.5541e-12
-2.6234e-12
-2.6952e-12
-2.76963e-12
-2.84696e-12
-2.9275e-12
-3.01168e-12
-3.09996e-12
-3.19276e-12
-3.29034e-12
-3.39259e-12
-3.49881e-12
-3.60765e-12
-3.71753e-12
-3.8273e-12
-3.93703e-12
-4.04884e-12
-4.16857e-12
-4.3091e-12
-4.49582e-12
-4.7703e-12
-5.1751e-12
-5.70011e-12
-6.25605e-12
-6.70246e-12
-6.90263e-12
-6.91086e-12
-6.9143e-12
-4.60528e-07
-3.88228e-07
-3.13903e-07
-3.19666e-07
-3.6268e-07
-4.22723e-07
-4.9033e-07
-5.60701e-07
-6.31266e-07
-7.00661e-07
-7.68173e-07
-8.33489e-07
-8.96529e-07
-9.57296e-07
-1.01586e-06
-1.07228e-06
-1.12661e-06
-1.17884e-06
-1.22894e-06
-1.27683e-06
-1.32246e-06
-1.36572e-06
-1.40644e-06
-1.44426e-06
-1.47855e-06
-1.50839e-06
-1.53262e-06
-1.54989e-06
-1.55875e-06
-1.55769e-06
-1.54538e-06
-1.52134e-06
-1.487e-06
-1.4467e-06
-1.4069e-06
-1.37311e-06
-1.34736e-06
-1.32858e-06
-1.31439e-06
-1.30312e-06
-1.29413e-06
-1.28652e-06
-1.27978e-06
-1.27371e-06
-1.26816e-06
-1.26307e-06
-1.25841e-06
-1.2541e-06
-1.25006e-06
-1.24627e-06
-1.24277e-06
-1.23955e-06
-1.23652e-06
)
;
    }
    inandouthalf31
    {
        type            cyclic;
        value           nonuniform List<scalar> 
110
(
1.2336e-06
1.25576e-06
1.27858e-06
1.30209e-06
1.32599e-06
1.35015e-06
1.37498e-06
1.40074e-06
1.42695e-06
1.4534e-06
1.48058e-06
1.50858e-06
1.53699e-06
1.56597e-06
1.59578e-06
1.62606e-06
1.65675e-06
1.68838e-06
1.72089e-06
1.75373e-06
1.78716e-06
1.82154e-06
1.85665e-06
1.89252e-06
1.92919e-06
1.96646e-06
2.00461e-06
2.04379e-06
2.08362e-06
2.12429e-06
2.16602e-06
2.20856e-06
2.252e-06
2.29651e-06
2.34206e-06
2.38863e-06
2.43626e-06
2.48508e-06
2.53502e-06
2.58587e-06
2.63744e-06
2.68997e-06
2.79235e-06
2.84902e-06
2.90685e-06
2.96585e-06
3.02605e-06
3.08747e-06
3.15014e-06
3.21408e-06
3.27931e-06
3.34588e-06
3.41379e-06
3.48308e-06
3.55378e-06
3.62591e-06
3.6995e-06
3.77459e-06
3.85121e-06
3.92938e-06
4.00913e-06
4.09051e-06
4.17353e-06
4.25825e-06
4.34468e-06
4.43286e-06
4.52284e-06
4.61464e-06
4.7083e-06
4.80387e-06
4.90138e-06
5.00086e-06
5.10237e-06
5.20593e-06
5.3116e-06
5.41941e-06
5.52941e-06
5.64164e-06
5.75615e-06
5.87298e-06
5.99219e-06
6.11382e-06
6.23791e-06
6.36452e-06
6.49371e-06
6.62551e-06
6.75999e-06
6.8972e-06
7.0372e-06
7.18003e-06
7.32577e-06
7.47446e-06
7.62617e-06
7.78096e-06
7.9389e-06
8.10003e-06
8.26444e-06
8.43219e-06
8.60334e-06
8.77797e-06
8.95614e-06
9.13792e-06
9.3234e-06
9.51264e-06
9.70572e-06
9.90272e-06
1.01037e-05
1.03088e-05
1.0518e-05
1.07315e-05
)
;
    }
    inandouthalf32
    {
        type            cyclic;
        value           nonuniform List<scalar> 
110
(
-1.2336e-06
-1.25576e-06
-1.27858e-06
-1.30209e-06
-1.32599e-06
-1.35015e-06
-1.37498e-06
-1.40074e-06
-1.42695e-06
-1.4534e-06
-1.48058e-06
-1.50858e-06
-1.53699e-06
-1.56597e-06
-1.59578e-06
-1.62606e-06
-1.65675e-06
-1.68838e-06
-1.72089e-06
-1.75373e-06
-1.78716e-06
-1.82154e-06
-1.85665e-06
-1.89252e-06
-1.92919e-06
-1.96646e-06
-2.00461e-06
-2.04379e-06
-2.08362e-06
-2.12429e-06
-2.16602e-06
-2.20856e-06
-2.252e-06
-2.29651e-06
-2.34206e-06
-2.38863e-06
-2.43626e-06
-2.48508e-06
-2.53502e-06
-2.58587e-06
-2.63744e-06
-2.68997e-06
-2.79235e-06
-2.84902e-06
-2.90685e-06
-2.96585e-06
-3.02605e-06
-3.08747e-06
-3.15014e-06
-3.21408e-06
-3.27931e-06
-3.34588e-06
-3.41379e-06
-3.48308e-06
-3.55378e-06
-3.62591e-06
-3.6995e-06
-3.77459e-06
-3.85121e-06
-3.92938e-06
-4.00913e-06
-4.09051e-06
-4.17353e-06
-4.25825e-06
-4.34468e-06
-4.43286e-06
-4.52284e-06
-4.61464e-06
-4.7083e-06
-4.80387e-06
-4.90138e-06
-5.00086e-06
-5.10237e-06
-5.20593e-06
-5.3116e-06
-5.41941e-06
-5.52941e-06
-5.64164e-06
-5.75615e-06
-5.87298e-06
-5.99219e-06
-6.11382e-06
-6.23791e-06
-6.36452e-06
-6.49371e-06
-6.62551e-06
-6.75999e-06
-6.8972e-06
-7.0372e-06
-7.18003e-06
-7.32577e-06
-7.47446e-06
-7.62617e-06
-7.78096e-06
-7.9389e-06
-8.10003e-06
-8.26444e-06
-8.43219e-06
-8.60334e-06
-8.77797e-06
-8.95614e-06
-9.13792e-06
-9.3234e-06
-9.51264e-06
-9.70572e-06
-9.90272e-06
-1.01037e-05
-1.03088e-05
-1.0518e-05
-1.07315e-05
)
;
    }
    inandouthalf41
    {
        type            cyclic;
        value           nonuniform List<scalar> 
50
(
9.60581e-06
9.60581e-06
9.60581e-06
9.60581e-06
9.60581e-06
9.60581e-06
9.60581e-06
9.60581e-06
9.60581e-06
9.60581e-06
9.60581e-06
9.60581e-06
9.60581e-06
9.60581e-06
9.60581e-06
9.60581e-06
9.60581e-06
9.60581e-06
9.60581e-06
9.60581e-06
9.60581e-06
9.60581e-06
9.60581e-06
9.60581e-06
9.60581e-06
9.60581e-06
9.60581e-06
9.60581e-06
9.60581e-06
9.60581e-06
9.60581e-06
9.60581e-06
9.60581e-06
9.60581e-06
9.60581e-06
9.60581e-06
9.60581e-06
9.60581e-06
9.60581e-06
9.60581e-06
9.60581e-06
9.60581e-06
9.60581e-06
9.60581e-06
9.60581e-06
9.60581e-06
9.60581e-06
9.6058e-06
9.60566e-06
9.60243e-06
)
;
    }
    inandouthalf42
    {
        type            cyclic;
        value           nonuniform List<scalar> 
50
(
-9.60581e-06
-9.60581e-06
-9.60581e-06
-9.60581e-06
-9.60581e-06
-9.60581e-06
-9.60581e-06
-9.60581e-06
-9.60581e-06
-9.60581e-06
-9.60581e-06
-9.60581e-06
-9.60581e-06
-9.60581e-06
-9.60581e-06
-9.60581e-06
-9.60581e-06
-9.60581e-06
-9.60581e-06
-9.60581e-06
-9.60581e-06
-9.60581e-06
-9.60581e-06
-9.60581e-06
-9.60581e-06
-9.60581e-06
-9.60581e-06
-9.60581e-06
-9.60581e-06
-9.60581e-06
-9.60581e-06
-9.60581e-06
-9.60581e-06
-9.60581e-06
-9.60581e-06
-9.60581e-06
-9.60581e-06
-9.60581e-06
-9.60581e-06
-9.60581e-06
-9.60581e-06
-9.60581e-06
-9.60581e-06
-9.60581e-06
-9.60581e-06
-9.60581e-06
-9.60581e-06
-9.6058e-06
-9.60566e-06
-9.60243e-06
)
;
    }
    top
    {
        type            symmetryPlane;
        value           uniform 0;
    }
    walls
    {
        type            calculated;
        value           uniform 0;
    }
    frontAndBackPlanes
    {
        type            empty;
        value           nonuniform 0();
    }
}


// ************************************************************************* //
