/*--------------------------------*- C++ -*----------------------------------*\
| =========                 |                                                 |
| \\      /  F ield         | OpenFOAM: The Open Source CFD Toolbox           |
|  \\    /   O peration     | Version:  2.4.x                                 |
|   \\  /    A nd           | Web:      www.OpenFOAM.org                      |
|    \\/     M anipulation  |                                                 |
\*---------------------------------------------------------------------------*/
FoamFile
{
    version     2.0;
    format      ascii;
    class       volScalarField;
    location    "2.5";
    object      mua;
}
// * * * * * * * * * * * * * * * * * * * * * * * * * * * * * * * * * * * * * //

dimensions      [1 -1 -1 0 0 0 0];

internalField   nonuniform List<scalar> 
360
(
3.00609e+32
1.02358e+36
1.48834e+15
7.41149e+13
6.88513e+12
8.9325e+11
1.44276e+11
2.72998e+10
5.86159e+09
1.40141e+09
3.70658e+08
1.08145e+08
3.47411e+07
1.23167e+07
4.8324e+06
2.10278e+06
1.01616e+06
545455
324855
214250
156107
124928
109110
103163
104544
112266
126210
146791
174984
212009
258968
316671
385770
465783
556545
656654
764231
876778
992744
1.11159e+06
1.23042e+06
1.34862e+06
1.46485e+06
1.57592e+06
1.68191e+06
1.7818e+06
1.87454e+06
1.95858e+06
2.02887e+06
2.08428e+06
2.12755e+06
2.15718e+06
2.17255e+06
2.17255e+06
2.15693e+06
2.12454e+06
2.07815e+06
2.0187e+06
1.94974e+06
1.87373e+06
1.79185e+06
1.7081e+06
1.62338e+06
1.53824e+06
1.4507e+06
1.35774e+06
1.25638e+06
1.14597e+06
1.0283e+06
906840
786420
673538
573345
488087
418727
364585
324055
294713
274069
259843
249958
242506
235989
229396
222196
214320
206018
197714
189797
182535
176065
170392
165420
161028
157099
153537
150278
147283
144527
141984
139631
137438
135373
133408
131518
129683
127886
126113
124352
122594
120830
119055
117267
115464
113649
111826
110001
108184
106387
104626
102920
101293
99766.3
98353.8
97051.5
95831.2
94645.3
93448.8
92235.1
91055
89968.1
88901.9
87499.7
85188.1
81579.3
76734.2
70702.6
63061.8
53902.3
45523.4
41634.7
44809.7
57192.5
94848.1
284940
4.533e+06
0.0955021
0.0126017
0.00898546
0.00779298
0.00717507
0.00686878
0.00674188
0.00671414
0.00674227
0.00680103
0.0068749
0.00695341
0.00702991
0.00709952
0.00715908
0.00720663
0.00724076
0.0072606
0.00726554
0.00725546
0.00723029
0.00719031
0.00713579
0.00706728
0.00698535
0.00689076
0.00678452
0.00666805
0.00654341
0.00641339
0.00628162
0.00615255
0.0060311
0.005922
0.00582856
0.00575165
0.00568951
0.0056388
0.00559613
0.00555892
0.00552548
0.00549453
0.00546525
0.00543713
0.00540985
0.00538315
0.00535688
0.00533089
0.00530508
0.00527936
0.00525367
0.00522794
0.00520213
0.0051762
0.00515011
0.00512358
0.00509629
0.0050682
0.00503924
0.00500938
0.00497855
0.0049467
0.00491377
0.00487968
0.00484437
0.00480776
0.00476978
0.00473033
0.00468933
0.00464666
0.00460222
0.00455589
0.00450753
0.00445699
0.00440411
0.0043487
0.00429056
0.00422944
0.00416508
0.00409716
0.00402532
0.00394913
0.0038681
0.00378161
0.00368892
0.00358913
0.00348108
0.00336326
0.00323371
0.00308966
0.00292717
0.00274013
0.00251829
0.00224196
0.00186271
0
0
0
0
0
0
0
0
0
0
0
0
0
0
0
0
0
0
0
0
0
0
0
0
0
0
0
0
0
0
0
0
0
0
0
0
0
0
0
0
0
0
0
0
0
0
0
0
0
0
0
0
0
0
0
0
0
0
0
0
0
0
0
0
0
0
0
0
0
0
0
0
0
0
0
0
0
0
0
0
0
0
0
0
0
0
0
0
0
0
0
0
0
0
0
0
0
0
0
0
0
0
0
0
0
0
0
0
0
0
0
0
0
0
0
0
0
0
0
)
;

boundaryField
{
    inandouthalf11
    {
        type            cyclic;
    }
    inandouthalf12
    {
        type            cyclic;
    }
    inandouthalf21
    {
        type            cyclic;
    }
    inandouthalf22
    {
        type            cyclic;
    }
    inandouthalf31
    {
        type            cyclic;
    }
    inandouthalf32
    {
        type            cyclic;
    }
    inandouthalf41
    {
        type            cyclic;
    }
    inandouthalf42
    {
        type            cyclic;
    }
    top
    {
        type            symmetryPlane;
    }
    walls
    {
        type            calculated;
        value           uniform 1e+30;
    }
    frontAndBackPlanes
    {
        type            empty;
    }
}


// ************************************************************************* //
