/*--------------------------------*- C++ -*----------------------------------*\
| =========                 |                                                 |
| \\      /  F ield         | OpenFOAM: The Open Source CFD Toolbox           |
|  \\    /   O peration     | Version:  2.4.x                                 |
|   \\  /    A nd           | Web:      www.OpenFOAM.org                      |
|    \\/     M anipulation  |                                                 |
\*---------------------------------------------------------------------------*/
FoamFile
{
    version     2.0;
    format      ascii;
    class       volScalarField;
    location    "2.5";
    object      p;
}
// * * * * * * * * * * * * * * * * * * * * * * * * * * * * * * * * * * * * * //

dimensions      [1 -1 -2 0 0 0 0];

internalField   nonuniform List<scalar> 
360
(
4905.49
4900.58
4895.68
4890.77
4885.87
4880.96
4876.06
4871.15
4866.25
4861.34
4856.44
4851.53
4846.63
4841.72
4836.82
4831.91
4827.01
4822.1
4817.2
4812.29
4807.38
4802.47
4797.55
4792.63
4787.71
4782.78
4777.85
4772.92
4767.98
4763.05
4758.11
4753.16
4748.22
4743.28
4738.33
4733.39
4728.44
4723.5
4718.55
4713.6
4708.66
4703.71
4698.76
4693.81
4688.87
4683.92
4678.97
4674.02
4669.07
4664.12
4659.17
4654.22
4649.27
4644.32
4639.37
4634.42
4629.47
4624.52
4619.57
4614.62
4609.67
4604.72
4599.77
4594.81
4589.86
4584.91
4579.96
4575.01
4570.05
4565.1
4560.15
4555.19
4550.24
4545.28
4540.33
4535.37
4530.42
4525.46
4520.5
4515.54
4510.58
4505.62
4500.65
4495.69
4490.72
4485.76
4480.79
4475.82
4470.85
4465.88
4460.91
4455.93
4450.96
4445.98
4441
4436.02
4431.04
4426.06
4421.07
4416.09
4411.1
4406.11
4401.13
4396.13
4391.14
4386.15
4381.15
4376.16
4371.16
4366.16
4361.16
4356.16
4351.16
4346.15
4341.15
4336.14
4331.13
4326.12
4321.11
4316.1
4311.09
4306.08
4301.06
4296.05
4291.03
4286.01
4280.99
4275.98
4270.96
4265.93
4260.91
4255.89
4250.87
4245.84
4240.82
4235.79
4230.77
4225.74
4220.72
4215.69
4210.66
4205.63
4200.61
4195.58
4190.55
4185.52
4180.42
4172.92
4164.26
4156.7
4149.68
4142.95
4136.45
4130.15
4124.02
4118.06
4112.23
4106.53
4100.95
4095.47
4090.09
4084.81
4079.61
4074.49
4069.45
4064.48
4059.58
4054.75
4049.97
4045.26
4040.61
4036
4031.45
4026.95
4022.5
4018.09
4013.72
4009.39
4005.1
4000.83
3996.59
3992.37
3988.15
3983.93
3979.66
3975.29
3970.58
3965.69
3960.79
3955.88
3950.98
3946.07
3941.17
3936.26
3931.36
3926.45
3921.55
3916.64
3911.74
3906.83
3901.93
3896.97
3891.92
3886.76
3881.5
3876.13
3870.65
3865.06
3859.36
3853.54
3847.6
3841.54
3835.36
3829.06
3822.62
3816.06
3809.36
3802.53
3795.55
3788.44
3781.18
3773.78
3766.22
3758.51
3750.65
3742.62
3734.43
3726.08
3717.55
3708.86
3699.98
3690.93
3681.69
3672.27
3662.65
3652.84
3642.83
3632.61
3622.19
3611.56
3600.71
3589.64
3578.35
3566.83
3555.07
3543.08
3530.84
3518.35
3505.61
3492.61
3479.35
3465.82
3452.01
3437.92
3423.55
3408.88
3393.92
3378.66
3363.08
3347.19
3330.97
3314.43
3297.55
3280.33
3262.76
3244.83
3226.54
3207.87
3188.83
3169.4
3149.58
3129.35
3108.72
3087.66
3066.18
3044.26
3021.9
2999.08
2975.8
2952.05
2927.81
2903.09
2877.86
2852.12
2825.86
2799.06
2771.72
2743.82
2715.36
2686.32
2656.7
2626.47
2595.62
2564.15
2532.05
2499.29
2465.86
2431.76
2396.96
2361.46
2325.24
2288.28
2250.57
2212.1
2172.85
2132.8
2091.93
2050.24
2007.7
1964.3
1922.76
1883.52
1844.28
1805.04
1765.8
1726.56
1687.32
1648.08
1608.84
1569.6
1530.36
1491.12
1451.88
1412.64
1373.4
1334.16
1294.92
1255.68
1216.44
1177.2
1137.96
1098.72
1059.48
1020.24
981
941.76
902.52
863.28
824.04
784.8
745.56
706.32
667.08
627.84
588.6
549.36
510.12
470.88
431.64
392.4
353.16
313.92
274.68
235.44
196.2
156.96
117.72
78.48
39.24
-2.10859e-07
)
;

boundaryField
{
    inandouthalf11
    {
        type            cyclic;
    }
    inandouthalf12
    {
        type            cyclic;
    }
    inandouthalf21
    {
        type            cyclic;
    }
    inandouthalf22
    {
        type            cyclic;
    }
    inandouthalf31
    {
        type            cyclic;
    }
    inandouthalf32
    {
        type            cyclic;
    }
    inandouthalf41
    {
        type            cyclic;
    }
    inandouthalf42
    {
        type            cyclic;
    }
    top
    {
        type            symmetryPlane;
    }
    walls
    {
        type            slip;
    }
    frontAndBackPlanes
    {
        type            empty;
    }
}


// ************************************************************************* //
