/*--------------------------------*- C++ -*----------------------------------*\
| =========                 |                                                 |
| \\      /  F ield         | OpenFOAM: The Open Source CFD Toolbox           |
|  \\    /   O peration     | Version:  2.4.x                                 |
|   \\  /    A nd           | Web:      www.OpenFOAM.org                      |
|    \\/     M anipulation  |                                                 |
\*---------------------------------------------------------------------------*/
FoamFile
{
    version     2.0;
    format      ascii;
    class       surfaceScalarField;
    location    "2.5";
    object      phia_0;
}
// * * * * * * * * * * * * * * * * * * * * * * * * * * * * * * * * * * * * * //

dimensions      [0 3 -1 0 0 0 0];

internalField   nonuniform List<scalar> 
359
(
-8.8225e-40
-8.82466e-40
-1.77041e-22
-3.73263e-21
-4.19796e-20
-3.36823e-19
-2.16088e-18
-1.18019e-17
-5.66775e-17
-2.44271e-16
-9.5351e-16
-3.38283e-15
-1.09422e-14
-3.2253e-14
-8.65411e-14
-2.11235e-13
-4.69139e-13
-9.49436e-13
-1.75526e-12
-2.97704e-12
-4.65266e-12
-6.74619e-12
-9.14232e-12
-1.16758e-11
-1.41751e-11
-1.65018e-11
-1.85701e-11
-2.03475e-11
-2.18371e-11
-2.30655e-11
-2.40698e-11
-2.48905e-11
-2.55629e-11
-2.61193e-11
-2.65839e-11
-2.69772e-11
-2.73145e-11
-2.76079e-11
-2.78665e-11
-2.80969e-11
-2.83045e-11
-2.84936e-11
-2.86671e-11
-2.88279e-11
-2.89782e-11
-2.91195e-11
-2.92535e-11
-2.93812e-11
-2.9504e-11
-2.96231e-11
-2.97393e-11
-2.98533e-11
-2.9966e-11
-3.00781e-11
-3.01904e-11
-3.03037e-11
-3.04189e-11
-3.05367e-11
-3.06579e-11
-3.0783e-11
-3.0913e-11
-3.10482e-11
-3.11895e-11
-3.13374e-11
-3.14929e-11
-3.16577e-11
-3.18343e-11
-3.20262e-11
-3.22382e-11
-3.24762e-11
-3.27478e-11
-3.30618e-11
-3.34266e-11
-3.38504e-11
-3.43388e-11
-3.48933e-11
-3.55099e-11
-3.61801e-11
-3.68922e-11
-3.76345e-11
-3.83968e-11
-3.91729e-11
-3.99604e-11
-4.07601e-11
-4.15747e-11
-4.24078e-11
-4.32623e-11
-4.41402e-11
-4.50414e-11
-4.59648e-11
-4.69079e-11
-4.78677e-11
-4.88411e-11
-4.98255e-11
-5.08183e-11
-5.18176e-11
-5.28216e-11
-5.38286e-11
-5.48371e-11
-5.58456e-11
-5.68525e-11
-5.78567e-11
-5.8857e-11
-5.98526e-11
-6.08427e-11
-6.18266e-11
-6.28039e-11
-6.3774e-11
-6.47367e-11
-6.56918e-11
-6.66388e-11
-6.75778e-11
-6.85084e-11
-6.94306e-11
-7.0344e-11
-7.12485e-11
-7.21438e-11
-7.30293e-11
-7.39047e-11
-7.47691e-11
-7.56218e-11
-7.64616e-11
-7.72873e-11
-7.80973e-11
-7.88905e-11
-7.96655e-11
-8.04215e-11
-8.1158e-11
-8.18747e-11
-8.25706e-11
-8.32444e-11
-8.38955e-11
-8.45258e-11
-8.51408e-11
-8.5749e-11
-8.63595e-11
-8.69833e-11
-8.76385e-11
-8.83502e-11
-8.91267e-11
-8.99114e-11
-9.05702e-11
-9.10345e-11
-9.1282e-11
-9.1353e-11
-9.13503e-11
-6.48456e-10
-4.71886e-09
-7.77855e-09
-1.00765e-08
-1.17736e-08
-1.28605e-08
-1.33456e-08
-1.3315e-08
-1.28685e-08
-1.20987e-08
-1.10713e-08
-9.83662e-09
-8.41652e-09
-6.824e-09
-5.06281e-09
-3.13009e-09
-1.02253e-09
1.26715e-09
3.74734e-09
6.43635e-09
9.36034e-09
1.25598e-08
1.60823e-08
1.99734e-08
2.42578e-08
2.89303e-08
3.39579e-08
3.92926e-08
4.4886e-08
5.06982e-08
5.66752e-08
6.26567e-08
6.82351e-08
7.27379e-08
7.55426e-08
7.65542e-08
7.62534e-08
7.53128e-08
7.41938e-08
7.31279e-08
7.21615e-08
7.12943e-08
7.05157e-08
6.98143e-08
6.91776e-08
6.8597e-08
6.80631e-08
6.75689e-08
6.71078e-08
6.66753e-08
6.62677e-08
6.58803e-08
6.55095e-08
6.5152e-08
6.48066e-08
6.44654e-08
6.41258e-08
6.37841e-08
6.34408e-08
6.30992e-08
6.27568e-08
6.24068e-08
6.205e-08
6.1691e-08
6.13258e-08
6.09497e-08
6.05656e-08
6.0173e-08
5.97664e-08
5.93477e-08
5.89215e-08
5.848e-08
5.80173e-08
5.75413e-08
5.70519e-08
5.65414e-08
5.60107e-08
5.54566e-08
5.48751e-08
5.42718e-08
5.36413e-08
5.29736e-08
5.22758e-08
5.15447e-08
5.077e-08
4.99568e-08
4.9102e-08
4.82004e-08
4.72468e-08
4.6242e-08
4.51854e-08
4.40689e-08
4.28946e-08
4.16783e-08
4.04255e-08
-5.81176e-08
-1.5793e-07
-1.5793e-07
-1.5793e-07
-1.5793e-07
-1.5793e-07
-1.5793e-07
-1.5793e-07
-1.5793e-07
-1.5793e-07
-1.5793e-07
-1.5793e-07
-1.5793e-07
-1.5793e-07
-1.5793e-07
-1.5793e-07
-1.5793e-07
-1.5793e-07
-1.5793e-07
-1.5793e-07
-1.5793e-07
-1.5793e-07
-1.5793e-07
-1.5793e-07
-1.5793e-07
-1.5793e-07
-1.5793e-07
-1.5793e-07
-1.5793e-07
-1.5793e-07
-1.5793e-07
-1.5793e-07
-1.5793e-07
-1.5793e-07
-1.5793e-07
-1.5793e-07
-1.5793e-07
-1.5793e-07
-1.5793e-07
-1.5793e-07
-1.5793e-07
-1.5793e-07
-1.5793e-07
-1.5793e-07
-1.5793e-07
-1.5793e-07
-1.5793e-07
-1.5793e-07
-1.5793e-07
-1.5793e-07
-1.5793e-07
-1.5793e-07
-1.5793e-07
-1.5793e-07
-1.5793e-07
-1.5793e-07
-1.5793e-07
-1.5793e-07
-1.5793e-07
-1.5793e-07
-1.5793e-07
-1.5793e-07
-1.5793e-07
-1.5793e-07
-1.5793e-07
-1.5793e-07
-1.5793e-07
-1.5793e-07
-1.5793e-07
-1.5793e-07
-1.5793e-07
-1.5793e-07
-1.5793e-07
-1.5793e-07
-1.5793e-07
-1.5793e-07
-1.5793e-07
-1.5793e-07
-1.5793e-07
-1.5793e-07
-1.5793e-07
-1.5793e-07
-1.5793e-07
-1.5793e-07
-1.5793e-07
-1.5793e-07
-1.5793e-07
-1.5793e-07
-1.5793e-07
-1.5793e-07
-1.5793e-07
-1.5793e-07
-1.5793e-07
-1.5793e-07
-1.5793e-07
-1.5793e-07
-1.5793e-07
-1.5793e-07
-1.5793e-07
-1.5793e-07
-1.5793e-07
-1.5793e-07
-1.5793e-07
-1.5793e-07
-1.5793e-07
-1.5793e-07
-1.5793e-07
-1.5793e-07
-1.5793e-07
-1.5793e-07
-1.5793e-07
-1.5793e-07
-1.5793e-07
-1.5793e-07
-1.5793e-07
-1.57912e-07
-1.57203e-07
-1.32188e-07
)
;

boundaryField
{
    inandouthalf11
    {
        type            cyclic;
        value           nonuniform List<scalar> 
100
(
2.14455e-41
2.145e-41
2.1469e-41
1.43652e-23
2.90822e-22
3.17055e-21
2.48189e-20
1.56368e-19
8.41587e-19
3.99599e-18
1.70468e-17
6.58482e-17
2.31179e-16
7.38944e-16
2.14863e-15
5.67604e-15
1.36139e-14
2.96595e-14
5.88e-14
1.06414e-13
1.76564e-13
2.70126e-13
3.83827e-13
5.10686e-13
6.41881e-13
7.69065e-13
8.86073e-13
9.89506e-13
1.07831e-12
1.15304e-12
1.21518e-12
1.26664e-12
1.30932e-12
1.34495e-12
1.37498e-12
1.40059e-12
1.42271e-12
1.44207e-12
1.45925e-12
1.47467e-12
1.48865e-12
1.50147e-12
1.51332e-12
1.52437e-12
1.53476e-12
1.54459e-12
1.55396e-12
1.56295e-12
1.57162e-12
1.58007e-12
1.58833e-12
1.59648e-12
1.60455e-12
1.61259e-12
1.62067e-12
1.62882e-12
1.63711e-12
1.64559e-12
1.65431e-12
1.66333e-12
1.67269e-12
1.68244e-12
1.69262e-12
1.70328e-12
1.71447e-12
1.72629e-12
1.73889e-12
1.75248e-12
1.76736e-12
1.78392e-12
1.80265e-12
1.82412e-12
1.84895e-12
1.87773e-12
1.91094e-12
1.94882e-12
1.99124e-12
2.03768e-12
2.08734e-12
2.13932e-12
2.19279e-12
2.24711e-12
2.30195e-12
2.35723e-12
2.41307e-12
2.46964e-12
2.52715e-12
2.58571e-12
2.64537e-12
2.70602e-12
2.76751e-12
2.8296e-12
2.89205e-12
2.95463e-12
3.01715e-12
3.07942e-12
3.14129e-12
3.20262e-12
3.26329e-12
3.32316e-12
)
;
    }
    inandouthalf12
    {
        type            cyclic;
        value           nonuniform List<scalar> 
100
(
-2.14455e-41
-2.145e-41
-2.1469e-41
-1.43652e-23
-2.90822e-22
-3.17055e-21
-2.48189e-20
-1.56368e-19
-8.41587e-19
-3.99599e-18
-1.70468e-17
-6.58482e-17
-2.31179e-16
-7.38944e-16
-2.14863e-15
-5.67604e-15
-1.36139e-14
-2.96595e-14
-5.88e-14
-1.06414e-13
-1.76564e-13
-2.70126e-13
-3.83827e-13
-5.10686e-13
-6.41881e-13
-7.69065e-13
-8.86073e-13
-9.89506e-13
-1.07831e-12
-1.15304e-12
-1.21518e-12
-1.26664e-12
-1.30932e-12
-1.34495e-12
-1.37498e-12
-1.40059e-12
-1.42271e-12
-1.44207e-12
-1.45925e-12
-1.47467e-12
-1.48865e-12
-1.50147e-12
-1.51332e-12
-1.52437e-12
-1.53476e-12
-1.54459e-12
-1.55396e-12
-1.56295e-12
-1.57162e-12
-1.58007e-12
-1.58833e-12
-1.59648e-12
-1.60455e-12
-1.61259e-12
-1.62067e-12
-1.62882e-12
-1.63711e-12
-1.64559e-12
-1.65431e-12
-1.66333e-12
-1.67269e-12
-1.68244e-12
-1.69262e-12
-1.70328e-12
-1.71447e-12
-1.72629e-12
-1.73889e-12
-1.75248e-12
-1.76736e-12
-1.78392e-12
-1.80265e-12
-1.82412e-12
-1.84895e-12
-1.87773e-12
-1.91094e-12
-1.94882e-12
-1.99124e-12
-2.03768e-12
-2.08734e-12
-2.13932e-12
-2.19279e-12
-2.24711e-12
-2.30195e-12
-2.35723e-12
-2.41307e-12
-2.46964e-12
-2.52715e-12
-2.58571e-12
-2.64537e-12
-2.70602e-12
-2.76751e-12
-2.8296e-12
-2.89205e-12
-2.95463e-12
-3.01715e-12
-3.07942e-12
-3.14129e-12
-3.20262e-12
-3.26329e-12
-3.32316e-12
)
;
    }
    inandouthalf21
    {
        type            cyclic;
        value           nonuniform List<scalar> 
100
(
3.38213e-12
3.44008e-12
3.49691e-12
3.55256e-12
3.60693e-12
3.65998e-12
3.71163e-12
3.76184e-12
3.81057e-12
3.85776e-12
3.90337e-12
3.94737e-12
3.98971e-12
4.03034e-12
4.06922e-12
4.1063e-12
4.14152e-12
4.17482e-12
4.20613e-12
4.23539e-12
4.26251e-12
4.2874e-12
4.30998e-12
4.33015e-12
4.34783e-12
4.36293e-12
4.37537e-12
4.38511e-12
4.39207e-12
4.39619e-12
4.3974e-12
4.39563e-12
4.39081e-12
4.3828e-12
4.37131e-12
4.35583e-12
4.33557e-12
4.3092e-12
4.27439e-12
4.22791e-12
4.1685e-12
4.10219e-12
4.04064e-12
3.99593e-12
3.97694e-12
3.97569e-12
3.97502e-12
-1.7319e-08
-7.15602e-08
-1.18332e-07
-1.58122e-07
-1.93601e-07
-2.25976e-07
-2.56014e-07
-2.84232e-07
-3.10988e-07
-3.36537e-07
-3.61071e-07
-3.84733e-07
-4.07637e-07
-4.29871e-07
-4.51503e-07
-4.72585e-07
-4.93155e-07
-5.13238e-07
-5.32848e-07
-5.51986e-07
-5.70645e-07
-5.88808e-07
-6.0645e-07
-6.23538e-07
-6.4003e-07
-6.55875e-07
-6.71003e-07
-6.85329e-07
-6.98751e-07
-7.11149e-07
-7.22394e-07
-7.32358e-07
-7.40946e-07
-7.48142e-07
-7.54053e-07
-7.58899e-07
-7.62948e-07
-7.66439e-07
-7.69545e-07
-7.72371e-07
-7.74987e-07
-7.77435e-07
-7.79741e-07
-7.81923e-07
-7.83994e-07
-7.85963e-07
-7.87841e-07
-7.89635e-07
-7.91352e-07
-7.92993e-07
-7.94563e-07
-7.96068e-07
-7.97511e-07
)
;
    }
    inandouthalf22
    {
        type            cyclic;
        value           nonuniform List<scalar> 
100
(
-3.38213e-12
-3.44008e-12
-3.49691e-12
-3.55256e-12
-3.60693e-12
-3.65998e-12
-3.71163e-12
-3.76184e-12
-3.81057e-12
-3.85776e-12
-3.90337e-12
-3.94737e-12
-3.98971e-12
-4.03034e-12
-4.06922e-12
-4.1063e-12
-4.14152e-12
-4.17482e-12
-4.20613e-12
-4.23539e-12
-4.26251e-12
-4.2874e-12
-4.30998e-12
-4.33015e-12
-4.34783e-12
-4.36293e-12
-4.37537e-12
-4.38511e-12
-4.39207e-12
-4.39619e-12
-4.3974e-12
-4.39563e-12
-4.39081e-12
-4.3828e-12
-4.37131e-12
-4.35583e-12
-4.33557e-12
-4.3092e-12
-4.27439e-12
-4.22791e-12
-4.1685e-12
-4.10219e-12
-4.04064e-12
-3.99593e-12
-3.97694e-12
-3.97569e-12
-3.97502e-12
1.7319e-08
7.15602e-08
1.18332e-07
1.58122e-07
1.93601e-07
2.25976e-07
2.56014e-07
2.84232e-07
3.10988e-07
3.36537e-07
3.61071e-07
3.84733e-07
4.07637e-07
4.29871e-07
4.51503e-07
4.72585e-07
4.93155e-07
5.13238e-07
5.32848e-07
5.51986e-07
5.70645e-07
5.88808e-07
6.0645e-07
6.23538e-07
6.4003e-07
6.55875e-07
6.71003e-07
6.85329e-07
6.98751e-07
7.11149e-07
7.22394e-07
7.32358e-07
7.40946e-07
7.48142e-07
7.54053e-07
7.58899e-07
7.62948e-07
7.66439e-07
7.69545e-07
7.72371e-07
7.74987e-07
7.77435e-07
7.79741e-07
7.81923e-07
7.83994e-07
7.85963e-07
7.87841e-07
7.89635e-07
7.91352e-07
7.92993e-07
7.94563e-07
7.96068e-07
7.97511e-07
)
;
    }
    inandouthalf31
    {
        type            cyclic;
        value           nonuniform List<scalar> 
110
(
-7.98894e-07
-8.16464e-07
-8.34381e-07
-8.52662e-07
-8.71318e-07
-8.90343e-07
-9.09741e-07
-9.29539e-07
-9.49754e-07
-9.70375e-07
-9.91409e-07
-1.01288e-06
-1.03481e-06
-1.05717e-06
-1.08001e-06
-1.10332e-06
-1.12711e-06
-1.15139e-06
-1.17618e-06
-1.2015e-06
-1.22733e-06
-1.2537e-06
-1.28063e-06
-1.30812e-06
-1.33619e-06
-1.36485e-06
-1.39409e-06
-1.42396e-06
-1.45447e-06
-1.48559e-06
-1.51737e-06
-1.54982e-06
-1.58292e-06
-1.61671e-06
-1.65117e-06
-1.68633e-06
-1.72217e-06
-1.75869e-06
-1.79589e-06
-1.83374e-06
-1.87219e-06
-1.91146e-06
-2.05985e-06
-2.10167e-06
-2.14433e-06
-2.18786e-06
-2.23228e-06
-2.27759e-06
-2.32382e-06
-2.37099e-06
-2.41912e-06
-2.46822e-06
-2.51832e-06
-2.56944e-06
-2.62159e-06
-2.67481e-06
-2.7291e-06
-2.78449e-06
-2.84101e-06
-2.89868e-06
-2.95751e-06
-3.01754e-06
-3.07879e-06
-3.14128e-06
-3.20504e-06
-3.27009e-06
-3.33647e-06
-3.40419e-06
-3.47329e-06
-3.54378e-06
-3.61571e-06
-3.6891e-06
-3.76398e-06
-3.84038e-06
-3.91833e-06
-3.99786e-06
-4.07901e-06
-4.1618e-06
-4.24627e-06
-4.33246e-06
-4.4204e-06
-4.51012e-06
-4.60167e-06
-4.69507e-06
-4.79036e-06
-4.8876e-06
-4.9868e-06
-5.08802e-06
-5.19129e-06
-5.29666e-06
-5.40417e-06
-5.51386e-06
-5.62578e-06
-5.73997e-06
-5.85647e-06
-5.97534e-06
-6.09663e-06
-6.22037e-06
-6.34663e-06
-6.47545e-06
-6.60688e-06
-6.74099e-06
-6.87781e-06
-7.01741e-06
-7.15985e-06
-7.30517e-06
-7.45345e-06
-7.60473e-06
-7.75909e-06
-7.91658e-06
)
;
    }
    inandouthalf32
    {
        type            cyclic;
        value           nonuniform List<scalar> 
110
(
7.98894e-07
8.16464e-07
8.34381e-07
8.52662e-07
8.71318e-07
8.90343e-07
9.09741e-07
9.29539e-07
9.49754e-07
9.70375e-07
9.91409e-07
1.01288e-06
1.03481e-06
1.05717e-06
1.08001e-06
1.10332e-06
1.12711e-06
1.15139e-06
1.17618e-06
1.2015e-06
1.22733e-06
1.2537e-06
1.28063e-06
1.30812e-06
1.33619e-06
1.36485e-06
1.39409e-06
1.42396e-06
1.45447e-06
1.48559e-06
1.51737e-06
1.54982e-06
1.58292e-06
1.61671e-06
1.65117e-06
1.68633e-06
1.72217e-06
1.75869e-06
1.79589e-06
1.83374e-06
1.87219e-06
1.91146e-06
2.05985e-06
2.10167e-06
2.14433e-06
2.18786e-06
2.23228e-06
2.27759e-06
2.32382e-06
2.37099e-06
2.41912e-06
2.46822e-06
2.51832e-06
2.56944e-06
2.62159e-06
2.67481e-06
2.7291e-06
2.78449e-06
2.84101e-06
2.89868e-06
2.95751e-06
3.01754e-06
3.07879e-06
3.14128e-06
3.20504e-06
3.27009e-06
3.33647e-06
3.40419e-06
3.47329e-06
3.54378e-06
3.61571e-06
3.6891e-06
3.76398e-06
3.84038e-06
3.91833e-06
3.99786e-06
4.07901e-06
4.1618e-06
4.24627e-06
4.33246e-06
4.4204e-06
4.51012e-06
4.60167e-06
4.69507e-06
4.79036e-06
4.8876e-06
4.9868e-06
5.08802e-06
5.19129e-06
5.29666e-06
5.40417e-06
5.51386e-06
5.62578e-06
5.73997e-06
5.85647e-06
5.97534e-06
6.09663e-06
6.22037e-06
6.34663e-06
6.47545e-06
6.60688e-06
6.74099e-06
6.87781e-06
7.01741e-06
7.15985e-06
7.30517e-06
7.45345e-06
7.60473e-06
7.75909e-06
7.91658e-06
)
;
    }
    inandouthalf41
    {
        type            cyclic;
        value           nonuniform List<scalar> 
50
(
-7.08614e-06
-7.08614e-06
-7.08614e-06
-7.08614e-06
-7.08614e-06
-7.08614e-06
-7.08614e-06
-7.08614e-06
-7.08614e-06
-7.08614e-06
-7.08614e-06
-7.08614e-06
-7.08614e-06
-7.08614e-06
-7.08614e-06
-7.08614e-06
-7.08614e-06
-7.08614e-06
-7.08614e-06
-7.08614e-06
-7.08614e-06
-7.08614e-06
-7.08614e-06
-7.08614e-06
-7.08614e-06
-7.08614e-06
-7.08614e-06
-7.08614e-06
-7.08614e-06
-7.08614e-06
-7.08614e-06
-7.08614e-06
-7.08614e-06
-7.08614e-06
-7.08614e-06
-7.08614e-06
-7.08614e-06
-7.08614e-06
-7.08614e-06
-7.08614e-06
-7.08614e-06
-7.08614e-06
-7.08614e-06
-7.08614e-06
-7.08614e-06
-7.08614e-06
-7.08614e-06
-7.08615e-06
-7.08641e-06
-7.09246e-06
)
;
    }
    inandouthalf42
    {
        type            cyclic;
        value           nonuniform List<scalar> 
50
(
7.08614e-06
7.08614e-06
7.08614e-06
7.08614e-06
7.08614e-06
7.08614e-06
7.08614e-06
7.08614e-06
7.08614e-06
7.08614e-06
7.08614e-06
7.08614e-06
7.08614e-06
7.08614e-06
7.08614e-06
7.08614e-06
7.08614e-06
7.08614e-06
7.08614e-06
7.08614e-06
7.08614e-06
7.08614e-06
7.08614e-06
7.08614e-06
7.08614e-06
7.08614e-06
7.08614e-06
7.08614e-06
7.08614e-06
7.08614e-06
7.08614e-06
7.08614e-06
7.08614e-06
7.08614e-06
7.08614e-06
7.08614e-06
7.08614e-06
7.08614e-06
7.08614e-06
7.08614e-06
7.08614e-06
7.08614e-06
7.08614e-06
7.08614e-06
7.08614e-06
7.08614e-06
7.08614e-06
7.08615e-06
7.08641e-06
7.09246e-06
)
;
    }
    top
    {
        type            symmetryPlane;
        value           uniform 0;
    }
    walls
    {
        type            fixedValue;
        value           uniform 0;
    }
    frontAndBackPlanes
    {
        type            empty;
        value           nonuniform 0();
    }
}


// ************************************************************************* //
