/*--------------------------------*- C++ -*----------------------------------*\
| =========                 |                                                 |
| \\      /  F ield         | OpenFOAM: The Open Source CFD Toolbox           |
|  \\    /   O peration     | Version:  2.4.x                                 |
|   \\  /    A nd           | Web:      www.OpenFOAM.org                      |
|    \\/     M anipulation  |                                                 |
\*---------------------------------------------------------------------------*/
FoamFile
{
    version     2.0;
    format      ascii;
    class       surfaceScalarField;
    location    "2.5";
    object      phib_0;
}
// * * * * * * * * * * * * * * * * * * * * * * * * * * * * * * * * * * * * * //

dimensions      [0 3 -1 0 0 0 0];

internalField   nonuniform List<scalar> 
359
(
-1.39575e-18
-2.79966e-18
-4.20281e-18
-5.60278e-18
-6.94539e-18
-7.88646e-18
-6.42853e-18
7.25561e-18
7.60628e-17
3.68086e-16
1.476e-15
5.27418e-15
1.70959e-14
5.04252e-14
1.35331e-13
3.30353e-13
7.33716e-13
1.4849e-12
2.7452e-12
4.65606e-12
7.27674e-12
1.0551e-11
1.42986e-11
1.82611e-11
2.217e-11
2.58091e-11
2.90439e-11
3.18236e-11
3.41532e-11
3.60741e-11
3.76444e-11
3.89276e-11
3.99785e-11
4.08481e-11
4.15741e-11
4.21884e-11
4.2715e-11
4.31727e-11
4.35761e-11
4.39352e-11
4.42586e-11
4.45528e-11
4.48225e-11
4.50724e-11
4.53055e-11
4.55245e-11
4.57319e-11
4.59293e-11
4.61187e-11
4.63022e-11
4.64808e-11
4.66559e-11
4.68286e-11
4.70002e-11
4.71717e-11
4.73447e-11
4.75202e-11
4.76995e-11
4.78838e-11
4.80741e-11
4.82716e-11
4.84771e-11
4.86918e-11
4.89167e-11
4.91534e-11
4.94042e-11
4.96732e-11
4.99656e-11
5.0289e-11
5.06524e-11
5.10679e-11
5.15488e-11
5.21085e-11
5.27598e-11
5.35111e-11
5.43652e-11
5.53156e-11
5.63489e-11
5.74472e-11
5.85918e-11
5.97669e-11
6.09628e-11
6.21755e-11
6.34062e-11
6.46593e-11
6.59401e-11
6.72535e-11
6.86021e-11
6.99862e-11
7.14037e-11
7.28509e-11
7.43228e-11
7.58149e-11
7.73227e-11
7.88424e-11
8.03709e-11
8.19054e-11
8.34433e-11
8.4982e-11
8.65191e-11
8.80525e-11
8.958e-11
9.11e-11
9.26109e-11
9.41116e-11
9.5601e-11
9.70782e-11
9.85426e-11
9.99936e-11
1.01431e-10
1.02853e-10
1.04261e-10
1.05654e-10
1.07031e-10
1.08393e-10
1.09738e-10
1.11066e-10
1.12377e-10
1.13669e-10
1.14941e-10
1.16192e-10
1.17419e-10
1.18622e-10
1.19797e-10
1.20942e-10
1.22055e-10
1.23134e-10
1.24179e-10
1.25189e-10
1.26162e-10
1.27095e-10
1.27989e-10
1.28844e-10
1.29669e-10
1.30476e-10
1.3128e-10
1.32097e-10
1.3295e-10
1.33871e-10
1.34872e-10
1.35885e-10
1.36696e-10
1.37161e-10
1.37229e-10
1.36931e-10
1.34211e-10
6.14338e-10
2.27291e-09
2.46364e-09
2.43679e-09
2.27293e-09
2.0274e-09
1.7489e-09
1.46961e-09
1.20821e-09
9.73883e-10
7.68881e-10
5.9243e-10
4.41452e-10
3.12766e-10
2.03298e-10
1.10324e-10
3.16711e-11
-3.4506e-11
-8.96935e-11
-1.35285e-10
-1.72499e-10
-2.02488e-10
-2.26184e-10
-2.44218e-10
-2.56808e-10
-2.63859e-10
-2.65191e-10
-2.60774e-10
-2.50872e-10
-2.35989e-10
-2.16462e-10
-1.91839e-10
-1.61053e-10
-1.24517e-10
-8.65779e-11
-5.40166e-11
-3.11121e-11
-1.74801e-11
-1.02009e-11
-6.46826e-12
-4.49838e-12
-3.36881e-12
-2.64898e-12
-2.14837e-12
-1.77957e-12
-1.49681e-12
-1.27032e-12
-1.08634e-12
-9.35762e-13
-8.12674e-13
-7.0882e-13
-6.18908e-13
-5.41697e-13
-4.76674e-13
-4.22778e-13
-3.74312e-13
-3.28159e-13
-2.87075e-13
-2.54398e-13
-2.26649e-13
-1.98295e-13
-1.71733e-13
-1.51348e-13
-1.3387e-13
-1.16231e-13
-1.00897e-13
-8.84971e-14
-7.67589e-14
-6.60806e-14
-5.77689e-14
-5.03565e-14
-4.28176e-14
-3.6629e-14
-3.18611e-14
-2.72635e-14
-2.31355e-14
-1.97027e-14
-1.65796e-14
-1.3991e-14
-1.18798e-14
-9.86647e-15
-8.18082e-15
-6.86627e-15
-5.64385e-15
-4.62382e-15
-3.81085e-15
-3.09819e-15
-2.49914e-15
-1.99852e-15
-1.59705e-15
-1.26011e-15
-9.78666e-16
-7.7061e-16
-6.24806e-16
-1.20863e-15
1.33694e-15
-1.33281e-17
-1.41265e-17
-1.4155e-17
-1.41647e-17
-1.40456e-17
-1.39339e-17
-1.37573e-17
-1.36213e-17
-1.33614e-17
-1.31523e-17
-1.28314e-17
-1.25452e-17
-1.21714e-17
-1.18329e-17
-1.1414e-17
-1.10217e-17
-1.05607e-17
-1.01369e-17
-9.6689e-18
-9.24402e-18
-8.80236e-18
-8.44358e-18
-8.13704e-18
-7.90959e-18
-7.64487e-18
-7.46329e-18
-7.30001e-18
-7.14321e-18
-6.97394e-18
-6.80657e-18
-6.6852e-18
-6.55428e-18
-6.40738e-18
-6.21993e-18
-6.04741e-18
-5.82684e-18
-5.595e-18
-5.33433e-18
-5.16289e-18
-4.96679e-18
-4.77001e-18
-4.51985e-18
-4.29907e-18
-4.02334e-18
-3.69551e-18
-3.36155e-18
-3.0871e-18
-2.77347e-18
-2.45607e-18
-2.0979e-18
-1.76874e-18
-1.41351e-18
-1.07828e-18
-7.70585e-19
-8.32554e-19
-7.53753e-19
-7.0392e-19
-6.012e-19
-5.73671e-19
-5.39098e-19
-5.07359e-19
-4.68321e-19
-4.53393e-19
-4.3397e-19
-4.16158e-19
-3.92954e-19
-3.73851e-19
-3.51506e-19
-3.31239e-19
-3.10052e-19
-2.9845e-19
-2.86841e-19
-2.76634e-19
-2.64299e-19
-2.54426e-19
-2.43436e-19
-2.33004e-19
-2.21594e-19
-2.16996e-19
-2.10668e-19
-2.05488e-19
-1.96942e-19
-1.9788e-19
-1.95471e-19
-2.03804e-19
-2.27647e-19
-3.52889e-19
-4.84881e-19
-6.26938e-19
-7.42252e-19
-8.93555e-19
-9.96227e-19
-1.10253e-18
-1.15002e-18
-1.31741e-18
-1.3962e-18
-1.47555e-18
-1.4339e-18
-1.49272e-18
-1.40145e-18
-1.31759e-18
-1.09982e-18
-1.14678e-18
-1.03056e-18
-9.16237e-19
-6.14429e-19
-3.92353e-19
-6.16043e-20
2.8633e-19
4.43467e-19
1.32621e-18
1.70481e-18
2.05872e-18
1.27042e-18
2.13723e-18
1.77482e-19
-3.22751e-18
)
;

boundaryField
{
    inandouthalf11
    {
        type            cyclic;
        value           nonuniform List<scalar> 
100
(
2.56505e-10
2.56942e-10
2.56945e-10
2.56945e-10
2.56945e-10
2.56947e-10
2.56947e-10
2.56949e-10
2.56949e-10
2.56951e-10
2.56953e-10
2.56953e-10
2.56956e-10
2.56958e-10
2.56962e-10
2.56967e-10
2.56976e-10
2.56993e-10
2.57022e-10
2.5707e-10
2.57137e-10
2.57229e-10
2.57341e-10
2.57466e-10
2.57596e-10
2.57722e-10
2.5784e-10
2.57946e-10
2.58039e-10
2.58118e-10
2.58185e-10
2.58243e-10
2.58291e-10
2.58336e-10
2.58374e-10
2.58409e-10
2.58441e-10
2.58472e-10
2.58503e-10
2.5853e-10
2.58559e-10
2.58588e-10
2.58615e-10
2.58646e-10
2.58676e-10
2.58707e-10
2.5874e-10
2.58772e-10
2.58808e-10
2.58847e-10
2.58885e-10
2.58927e-10
2.58971e-10
2.59017e-10
2.59065e-10
2.59118e-10
2.59172e-10
2.59231e-10
2.59292e-10
2.59355e-10
2.59422e-10
2.59491e-10
2.59563e-10
2.59635e-10
2.5971e-10
2.59787e-10
2.59868e-10
2.59952e-10
2.6004e-10
2.60133e-10
2.60234e-10
2.60341e-10
2.60453e-10
2.60574e-10
2.60701e-10
2.60835e-10
2.60974e-10
2.61117e-10
2.61264e-10
2.61414e-10
2.61568e-10
2.61724e-10
2.61885e-10
2.62049e-10
2.62217e-10
2.62388e-10
2.62564e-10
2.62743e-10
2.62925e-10
2.6311e-10
2.63298e-10
2.6349e-10
2.63684e-10
2.63881e-10
2.6408e-10
2.64283e-10
2.64488e-10
2.64696e-10
2.64907e-10
2.6512e-10
)
;
    }
    inandouthalf12
    {
        type            cyclic;
        value           nonuniform List<scalar> 
100
(
-2.56505e-10
-2.56942e-10
-2.56945e-10
-2.56945e-10
-2.56945e-10
-2.56947e-10
-2.56947e-10
-2.56949e-10
-2.56949e-10
-2.56951e-10
-2.56953e-10
-2.56953e-10
-2.56956e-10
-2.56958e-10
-2.56962e-10
-2.56967e-10
-2.56976e-10
-2.56993e-10
-2.57022e-10
-2.5707e-10
-2.57137e-10
-2.57229e-10
-2.57341e-10
-2.57466e-10
-2.57596e-10
-2.57722e-10
-2.5784e-10
-2.57946e-10
-2.58039e-10
-2.58118e-10
-2.58185e-10
-2.58243e-10
-2.58291e-10
-2.58336e-10
-2.58374e-10
-2.58409e-10
-2.58441e-10
-2.58472e-10
-2.58503e-10
-2.5853e-10
-2.58559e-10
-2.58588e-10
-2.58615e-10
-2.58646e-10
-2.58676e-10
-2.58707e-10
-2.5874e-10
-2.58772e-10
-2.58808e-10
-2.58847e-10
-2.58885e-10
-2.58927e-10
-2.58971e-10
-2.59017e-10
-2.59065e-10
-2.59118e-10
-2.59172e-10
-2.59231e-10
-2.59292e-10
-2.59355e-10
-2.59422e-10
-2.59491e-10
-2.59563e-10
-2.59635e-10
-2.5971e-10
-2.59787e-10
-2.59868e-10
-2.59952e-10
-2.6004e-10
-2.60133e-10
-2.60234e-10
-2.60341e-10
-2.60453e-10
-2.60574e-10
-2.60701e-10
-2.60835e-10
-2.60974e-10
-2.61117e-10
-2.61264e-10
-2.61414e-10
-2.61568e-10
-2.61724e-10
-2.61885e-10
-2.62049e-10
-2.62217e-10
-2.62388e-10
-2.62564e-10
-2.62743e-10
-2.62925e-10
-2.6311e-10
-2.63298e-10
-2.6349e-10
-2.63684e-10
-2.63881e-10
-2.6408e-10
-2.64283e-10
-2.64488e-10
-2.64696e-10
-2.64907e-10
-2.6512e-10
)
;
    }
    inandouthalf21
    {
        type            cyclic;
        value           nonuniform List<scalar> 
100
(
2.65335e-10
2.65554e-10
2.65774e-10
2.65998e-10
2.66225e-10
2.66454e-10
2.66687e-10
2.66922e-10
2.67161e-10
2.67404e-10
2.6765e-10
2.679e-10
2.68154e-10
2.68412e-10
2.68675e-10
2.68942e-10
2.69215e-10
2.69493e-10
2.69777e-10
2.70068e-10
2.70364e-10
2.70668e-10
2.70979e-10
2.71299e-10
2.71626e-10
2.71964e-10
2.72311e-10
2.7267e-10
2.73042e-10
2.73427e-10
2.73826e-10
2.74239e-10
2.74667e-10
2.75114e-10
2.75586e-10
2.76079e-10
2.76585e-10
2.77112e-10
2.77684e-10
2.78328e-10
2.79003e-10
2.79608e-10
2.80359e-10
2.81406e-10
2.8275e-10
2.84588e-10
2.11373e-10
-1.98011e-08
-7.55281e-08
-1.21275e-07
-1.60186e-07
-1.94763e-07
-2.26303e-07
-2.55583e-07
-2.83109e-07
-3.09235e-07
-3.34213e-07
-3.58233e-07
-3.81442e-07
-4.03954e-07
-4.25863e-07
-4.47241e-07
-4.68152e-07
-4.88643e-07
-5.08758e-07
-5.2853e-07
-5.47988e-07
-5.67156e-07
-5.86051e-07
-6.0469e-07
-6.23085e-07
-6.41243e-07
-6.59169e-07
-6.76867e-07
-6.94334e-07
-7.11568e-07
-7.28558e-07
-7.4529e-07
-7.61744e-07
-7.77883e-07
-7.93653e-07
-8.0897e-07
-8.23707e-07
-8.37676e-07
-8.50567e-07
-8.61716e-07
-8.67165e-07
-8.68691e-07
-8.69692e-07
-8.70593e-07
-8.71419e-07
-8.72175e-07
-8.72869e-07
-8.73506e-07
-8.74093e-07
-8.74632e-07
-8.75128e-07
-8.75584e-07
-8.76004e-07
-8.76391e-07
)
;
    }
    inandouthalf22
    {
        type            cyclic;
        value           nonuniform List<scalar> 
100
(
-2.65335e-10
-2.65554e-10
-2.65774e-10
-2.65998e-10
-2.66225e-10
-2.66454e-10
-2.66687e-10
-2.66922e-10
-2.67161e-10
-2.67404e-10
-2.6765e-10
-2.679e-10
-2.68154e-10
-2.68412e-10
-2.68675e-10
-2.68942e-10
-2.69215e-10
-2.69493e-10
-2.69777e-10
-2.70068e-10
-2.70364e-10
-2.70668e-10
-2.70979e-10
-2.71299e-10
-2.71626e-10
-2.71964e-10
-2.72311e-10
-2.7267e-10
-2.73042e-10
-2.73427e-10
-2.73826e-10
-2.74239e-10
-2.74667e-10
-2.75114e-10
-2.75586e-10
-2.76079e-10
-2.76585e-10
-2.77112e-10
-2.77684e-10
-2.78328e-10
-2.79003e-10
-2.79608e-10
-2.80359e-10
-2.81406e-10
-2.8275e-10
-2.84588e-10
-2.11373e-10
1.98011e-08
7.55281e-08
1.21275e-07
1.60186e-07
1.94763e-07
2.26303e-07
2.55583e-07
2.83109e-07
3.09235e-07
3.34213e-07
3.58233e-07
3.81442e-07
4.03954e-07
4.25863e-07
4.47241e-07
4.68152e-07
4.88643e-07
5.08758e-07
5.2853e-07
5.47988e-07
5.67156e-07
5.86051e-07
6.0469e-07
6.23085e-07
6.41243e-07
6.59169e-07
6.76867e-07
6.94334e-07
7.11568e-07
7.28558e-07
7.4529e-07
7.61744e-07
7.77883e-07
7.93653e-07
8.0897e-07
8.23707e-07
8.37676e-07
8.50567e-07
8.61716e-07
8.67165e-07
8.68691e-07
8.69692e-07
8.70593e-07
8.71419e-07
8.72175e-07
8.72869e-07
8.73506e-07
8.74093e-07
8.74632e-07
8.75128e-07
8.75584e-07
8.76004e-07
8.76391e-07
)
;
    }
    inandouthalf31
    {
        type            cyclic;
        value           nonuniform List<scalar> 
110
(
-8.76751e-07
-8.94885e-07
-9.13373e-07
-9.32221e-07
-9.51438e-07
-9.71031e-07
-9.91008e-07
-1.01138e-06
-1.03215e-06
-1.05332e-06
-1.07492e-06
-1.09694e-06
-1.1194e-06
-1.14229e-06
-1.16565e-06
-1.18946e-06
-1.21375e-06
-1.23853e-06
-1.26379e-06
-1.28956e-06
-1.31584e-06
-1.34265e-06
-1.36999e-06
-1.39789e-06
-1.42634e-06
-1.45536e-06
-1.48496e-06
-1.51516e-06
-1.54597e-06
-1.57739e-06
-1.60945e-06
-1.64216e-06
-1.67552e-06
-1.70956e-06
-1.74429e-06
-1.77972e-06
-1.81586e-06
-1.85274e-06
-1.89036e-06
-1.92875e-06
-1.96791e-06
-2.00786e-06
-2.04862e-06
-2.09021e-06
-2.13265e-06
-2.17594e-06
-2.22011e-06
-2.26518e-06
-2.31116e-06
-2.35807e-06
-2.40594e-06
-2.45477e-06
-2.5046e-06
-2.55544e-06
-2.60731e-06
-2.66023e-06
-2.71423e-06
-2.76932e-06
-2.82553e-06
-2.88288e-06
-2.9414e-06
-3.0011e-06
-3.06201e-06
-3.12417e-06
-3.18758e-06
-3.25228e-06
-3.31829e-06
-3.38564e-06
-3.45436e-06
-3.52448e-06
-3.59601e-06
-3.669e-06
-3.74347e-06
-3.81946e-06
-3.89698e-06
-3.97608e-06
-4.05678e-06
-4.13913e-06
-4.22314e-06
-4.30886e-06
-4.39632e-06
-4.48555e-06
-4.57659e-06
-4.66949e-06
-4.76426e-06
-4.86097e-06
-4.95963e-06
-5.0603e-06
-5.16301e-06
-5.2678e-06
-5.37473e-06
-5.48382e-06
-5.59513e-06
-5.70869e-06
-5.82456e-06
-5.94279e-06
-6.06341e-06
-6.18648e-06
-6.31205e-06
-6.44017e-06
-6.57089e-06
-6.70426e-06
-6.84034e-06
-6.97918e-06
-7.12084e-06
-7.26537e-06
-7.41284e-06
-7.5633e-06
-7.71681e-06
-7.87344e-06
)
;
    }
    inandouthalf32
    {
        type            cyclic;
        value           nonuniform List<scalar> 
110
(
8.76751e-07
8.94885e-07
9.13373e-07
9.32221e-07
9.51438e-07
9.71031e-07
9.91008e-07
1.01138e-06
1.03215e-06
1.05332e-06
1.07492e-06
1.09694e-06
1.1194e-06
1.14229e-06
1.16565e-06
1.18946e-06
1.21375e-06
1.23853e-06
1.26379e-06
1.28956e-06
1.31584e-06
1.34265e-06
1.36999e-06
1.39789e-06
1.42634e-06
1.45536e-06
1.48496e-06
1.51516e-06
1.54597e-06
1.57739e-06
1.60945e-06
1.64216e-06
1.67552e-06
1.70956e-06
1.74429e-06
1.77972e-06
1.81586e-06
1.85274e-06
1.89036e-06
1.92875e-06
1.96791e-06
2.00786e-06
2.04862e-06
2.09021e-06
2.13265e-06
2.17594e-06
2.22011e-06
2.26518e-06
2.31116e-06
2.35807e-06
2.40594e-06
2.45477e-06
2.5046e-06
2.55544e-06
2.60731e-06
2.66023e-06
2.71423e-06
2.76932e-06
2.82553e-06
2.88288e-06
2.9414e-06
3.0011e-06
3.06201e-06
3.12417e-06
3.18758e-06
3.25228e-06
3.31829e-06
3.38564e-06
3.45436e-06
3.52448e-06
3.59601e-06
3.669e-06
3.74347e-06
3.81946e-06
3.89698e-06
3.97608e-06
4.05678e-06
4.13913e-06
4.22314e-06
4.30886e-06
4.39632e-06
4.48555e-06
4.57659e-06
4.66949e-06
4.76426e-06
4.86097e-06
4.95963e-06
5.0603e-06
5.16301e-06
5.2678e-06
5.37473e-06
5.48382e-06
5.59513e-06
5.70869e-06
5.82456e-06
5.94279e-06
6.06341e-06
6.18648e-06
6.31205e-06
6.44017e-06
6.57089e-06
6.70426e-06
6.84034e-06
6.97918e-06
7.12084e-06
7.26537e-06
7.41284e-06
7.5633e-06
7.71681e-06
7.87344e-06
)
;
    }
    inandouthalf41
    {
        type            cyclic;
        value           nonuniform List<scalar> 
50
(
-7.04753e-06
-7.04753e-06
-7.04753e-06
-7.04753e-06
-7.04753e-06
-7.04753e-06
-7.04753e-06
-7.04753e-06
-7.04753e-06
-7.04753e-06
-7.04753e-06
-7.04753e-06
-7.04753e-06
-7.04753e-06
-7.04753e-06
-7.04753e-06
-7.04753e-06
-7.04753e-06
-7.04753e-06
-7.04753e-06
-7.04753e-06
-7.04753e-06
-7.04753e-06
-7.04753e-06
-7.04753e-06
-7.04753e-06
-7.04753e-06
-7.04753e-06
-7.04753e-06
-7.04753e-06
-7.04753e-06
-7.04753e-06
-7.04753e-06
-7.04753e-06
-7.04753e-06
-7.04753e-06
-7.04753e-06
-7.04753e-06
-7.04753e-06
-7.04753e-06
-7.04753e-06
-7.04753e-06
-7.04753e-06
-7.04753e-06
-7.04753e-06
-7.04753e-06
-7.04753e-06
-7.04753e-06
-7.04753e-06
-7.04753e-06
)
;
    }
    inandouthalf42
    {
        type            cyclic;
        value           nonuniform List<scalar> 
50
(
7.04753e-06
7.04753e-06
7.04753e-06
7.04753e-06
7.04753e-06
7.04753e-06
7.04753e-06
7.04753e-06
7.04753e-06
7.04753e-06
7.04753e-06
7.04753e-06
7.04753e-06
7.04753e-06
7.04753e-06
7.04753e-06
7.04753e-06
7.04753e-06
7.04753e-06
7.04753e-06
7.04753e-06
7.04753e-06
7.04753e-06
7.04753e-06
7.04753e-06
7.04753e-06
7.04753e-06
7.04753e-06
7.04753e-06
7.04753e-06
7.04753e-06
7.04753e-06
7.04753e-06
7.04753e-06
7.04753e-06
7.04753e-06
7.04753e-06
7.04753e-06
7.04753e-06
7.04753e-06
7.04753e-06
7.04753e-06
7.04753e-06
7.04753e-06
7.04753e-06
7.04753e-06
7.04753e-06
7.04753e-06
7.04753e-06
7.04753e-06
)
;
    }
    top
    {
        type            symmetryPlane;
        value           uniform 0;
    }
    walls
    {
        type            fixedValue;
        value           uniform 0;
    }
    frontAndBackPlanes
    {
        type            empty;
        value           nonuniform 0();
    }
}


// ************************************************************************* //
