/*--------------------------------*- C++ -*----------------------------------*\
| =========                 |                                                 |
| \\      /  F ield         | OpenFOAM: The Open Source CFD Toolbox           |
|  \\    /   O peration     | Version:  2.4.x                                 |
|   \\  /    A nd           | Web:      www.OpenFOAM.org                      |
|    \\/     M anipulation  |                                                 |
\*---------------------------------------------------------------------------*/
FoamFile
{
    version     2.0;
    format      ascii;
    class       volTensorField;
    location    "2.5";
    object      Tauf;
}
// * * * * * * * * * * * * * * * * * * * * * * * * * * * * * * * * * * * * * //

dimensions      [0 2 -2 0 0 0 0];

internalField   nonuniform List<tensor> 
360
(
(0 -5.13503e-07 0 -5.13503e-07 -1.4015e-15 0 0 0 0)
(0 -4.39734e-10 0 -4.39734e-10 -1.40582e-15 0 0 0 0)
(0 -2.52938e-12 0 -2.52938e-12 -1.408e-15 0 0 0 0)
(0 -3.9932e-15 0 -3.9932e-15 -1.39151e-15 0 0 0 0)
(5.16988e-23 -2.15652e-12 0 -2.15652e-12 -1.25028e-15 0 0 0 0)
(5.16988e-23 -2.15837e-12 0 -2.15837e-12 -3.68414e-16 0 0 0 0)
(5.16988e-23 -2.1585e-12 0 -2.1585e-12 4.29656e-15 0 0 0 0)
(0 -2.15911e-12 0 -2.15911e-12 2.57024e-14 0 0 0 0)
(5.16988e-23 -2.16371e-12 0 -2.16371e-12 1.12372e-13 0 0 0 0)
(0 -4.32794e-12 0 -4.32794e-12 4.32532e-13 0 0 0 0)
(5.16988e-23 -2.21716e-12 0 -2.21716e-12 1.53854e-12 0 0 0 0)
(0 -2.35817e-12 0 -2.35817e-12 5.06637e-12 0 0 0 0)
(5.16988e-23 -4.93958e-12 0 -4.93958e-12 1.5236e-11 0 0 0 0)
(0 -6.1027e-12 0 -6.1027e-12 4.14967e-11 0 0 0 0)
(0 -8.93115e-12 0 -8.93115e-12 1.02039e-10 0 0 0 0)
(0 -1.50678e-11 0 -1.50678e-11 2.26249e-10 0 0 0 0)
(0 -2.68756e-11 0 -2.68756e-11 4.52315e-10 0 0 0 0)
(5.16988e-23 -4.69439e-11 0 -4.69439e-11 8.15973e-10 0 0 0 0)
(0 -7.90701e-11 0 -7.90701e-11 1.33128e-09 0 0 0 0)
(0 -1.18144e-10 0 -1.18144e-10 1.96926e-09 0 0 0 0)
(0 -1.62078e-10 0 -1.62078e-10 2.65109e-09 0 0 0 0)
(5.16988e-23 -2.0605e-10 0 -2.0605e-10 3.26608e-09 0 0 0 0)
(0 -2.38236e-10 0 -2.38236e-10 3.70568e-09 0 0 0 0)
(0 -2.554e-10 0 -2.554e-10 3.90158e-09 0 0 0 0)
(0 -2.56127e-10 0 -2.56127e-10 3.84644e-09 0 0 0 0)
(5.16988e-23 -2.42858e-10 0 -2.42858e-10 3.5864e-09 0 0 0 0)
(0 -2.22396e-10 0 -2.22396e-10 3.19698e-09 0 0 0 0)
(0 -1.97547e-10 0 -1.97547e-10 2.7539e-09 0 0 0 0)
(0 -1.70027e-10 0 -1.70027e-10 2.31394e-09 0 0 0 0)
(0 -1.44426e-10 0 -1.44426e-10 1.91224e-09 0 0 0 0)
(0 -1.24126e-10 0 -1.24126e-10 1.56659e-09 0 0 0 0)
(0 -1.05338e-10 0 -1.05338e-10 1.28075e-09 0 0 0 0)
(0 -9.20938e-11 0 -9.20938e-11 1.05071e-09 0 0 0 0)
(0 -8.18982e-11 0 -8.18982e-11 8.68763e-10 0 0 0 0)
(0 -7.21176e-11 0 -7.21176e-11 7.2579e-10 0 0 0 0)
(-5.16988e-23 -6.64194e-11 0 -6.64194e-11 6.13855e-10 0 0 0 0)
(0 -6.23182e-11 0 -6.23182e-11 5.26117e-10 0 0 0 0)
(0 -6.15606e-11 0 -6.15606e-11 4.57331e-10 0 0 0 0)
(0 -5.76271e-11 0 -5.76271e-11 4.02529e-10 0 0 0 0)
(0 -5.65225e-11 0 -5.65225e-11 3.58481e-10 0 0 0 0)
(0 -5.80487e-11 0 -5.80487e-11 3.22888e-10 0 0 0 0)
(0 -5.58151e-11 0 -5.58151e-11 2.93455e-10 0 0 0 0)
(-5.16988e-23 -5.8034e-11 0 -5.8034e-11 2.69331e-10 0 0 0 0)
(0 -6.05047e-11 0 -6.05047e-11 2.49357e-10 0 0 0 0)
(0 -6.11145e-11 0 -6.11145e-11 2.32598e-10 0 0 0 0)
(0 -6.39495e-11 0 -6.39495e-11 2.18712e-10 0 0 0 0)
(0 -6.47622e-11 0 -6.47622e-11 2.06913e-10 0 0 0 0)
(0 -6.7619e-11 0 -6.7619e-11 1.9709e-10 0 0 0 0)
(0 -7.45954e-11 0 -7.45954e-11 1.8938e-10 0 0 0 0)
(0 -7.75033e-11 0 -7.75033e-11 1.83162e-10 0 0 0 0)
(-5.16988e-23 -8.04564e-11 0 -8.04564e-11 1.78398e-10 0 0 0 0)
(0 -8.54395e-11 0 -8.54395e-11 1.74941e-10 0 0 0 0)
(0 -9.02519e-11 0 -9.02519e-11 1.72639e-10 0 0 0 0)
(0 -9.48301e-11 0 -9.48301e-11 1.71477e-10 0 0 0 0)
(0 -1.01123e-10 0 -1.01123e-10 1.71618e-10 0 0 0 0)
(0 -1.07052e-10 0 -1.07052e-10 1.72985e-10 0 0 0 0)
(0 -1.12533e-10 0 -1.12533e-10 1.75546e-10 0 0 0 0)
(0 -1.19442e-10 0 -1.19442e-10 1.79473e-10 0 0 0 0)
(0 -1.23553e-10 0 -1.23553e-10 1.84325e-10 0 0 0 0)
(0 -1.30515e-10 0 -1.30515e-10 1.90478e-10 0 0 0 0)
(0 -1.36146e-10 0 -1.36146e-10 1.97633e-10 0 0 0 0)
(0 -1.40221e-10 0 -1.40221e-10 2.05747e-10 0 0 0 0)
(0 -1.44736e-10 0 -1.44736e-10 2.14948e-10 0 0 0 0)
(0 -1.47884e-10 0 -1.47884e-10 2.25242e-10 0 0 0 0)
(0 -1.51933e-10 0 -1.51933e-10 2.37251e-10 0 0 0 0)
(0 -1.57271e-10 0 -1.57271e-10 2.5183e-10 0 0 0 0)
(0 -1.64529e-10 0 -1.64529e-10 2.70346e-10 0 0 0 0)
(0 -1.72546e-10 0 -1.72546e-10 2.94361e-10 0 0 0 0)
(0 -1.81397e-10 0 -1.81397e-10 3.2567e-10 0 0 0 0)
(0 -1.93517e-10 0 -1.93517e-10 3.66486e-10 0 0 0 0)
(0 -2.0791e-10 0 -2.0791e-10 4.19008e-10 0 0 0 0)
(0 -2.19819e-10 0 -2.19819e-10 4.84324e-10 0 0 0 0)
(0 -2.33339e-10 0 -2.33339e-10 5.62935e-10 0 0 0 0)
(0 -2.47902e-10 0 -2.47902e-10 6.53432e-10 0 0 0 0)
(0 -2.60976e-10 0 -2.60976e-10 7.51974e-10 0 0 0 0)
(0 -2.72296e-10 0 -2.72296e-10 8.52348e-10 0 0 0 0)
(0 -2.81341e-10 0 -2.81341e-10 9.46767e-10 0 0 0 0)
(0 -2.90125e-10 0 -2.90125e-10 1.02847e-09 0 0 0 0)
(0 -2.97685e-10 0 -2.97685e-10 1.09317e-09 0 0 0 0)
(0 -3.03907e-10 0 -3.03907e-10 1.14011e-09 0 0 0 0)
(0 -3.10146e-10 0 -3.10146e-10 1.17208e-09 0 0 0 0)
(0 -3.17188e-10 0 -3.17188e-10 1.19428e-09 0 0 0 0)
(0 -3.24292e-10 0 -3.24292e-10 1.21238e-09 0 0 0 0)
(0 -3.31774e-10 0 -3.31774e-10 1.23119e-09 0 0 0 0)
(0 -3.39454e-10 0 -3.39454e-10 1.2538e-09 0 0 0 0)
(0 -3.47127e-10 0 -3.47127e-10 1.2814e-09 0 0 0 0)
(0 -3.54435e-10 0 -3.54435e-10 1.31341e-09 0 0 0 0)
(0 -3.61119e-10 0 -3.61119e-10 1.34802e-09 0 0 0 0)
(0 -3.6758e-10 0 -3.6758e-10 1.38292e-09 0 0 0 0)
(0 -3.73711e-10 0 -3.73711e-10 1.4159e-09 0 0 0 0)
(0 -3.79481e-10 0 -3.79481e-10 1.44525e-09 0 0 0 0)
(0 -3.85233e-10 0 -3.85233e-10 1.47007e-09 0 0 0 0)
(0 -3.91019e-10 0 -3.91019e-10 1.49024e-09 0 0 0 0)
(0 -3.96699e-10 0 -3.96699e-10 1.5061e-09 0 0 0 0)
(0 -4.02315e-10 0 -4.02315e-10 1.5182e-09 0 0 0 0)
(0 -4.07836e-10 0 -4.07836e-10 1.52707e-09 0 0 0 0)
(0 -4.1321e-10 0 -4.1321e-10 1.53309e-09 0 0 0 0)
(0 -4.18445e-10 0 -4.18445e-10 1.53647e-09 0 0 0 0)
(0 -4.23612e-10 0 -4.23612e-10 1.53734e-09 0 0 0 0)
(0 -4.28757e-10 0 -4.28757e-10 1.53582e-09 0 0 0 0)
(0 -4.33932e-10 0 -4.33932e-10 1.53208e-09 0 0 0 0)
(0 -4.39213e-10 0 -4.39213e-10 1.52634e-09 0 0 0 0)
(0 -4.44635e-10 0 -4.44635e-10 1.51885e-09 0 0 0 0)
(0 -4.50209e-10 0 -4.50209e-10 1.50989e-09 0 0 0 0)
(0 -4.55968e-10 0 -4.55968e-10 1.49969e-09 0 0 0 0)
(0 -4.61938e-10 0 -4.61938e-10 1.48845e-09 0 0 0 0)
(0 -4.68148e-10 0 -4.68148e-10 1.47636e-09 0 0 0 0)
(0 -4.74636e-10 0 -4.74636e-10 1.46354e-09 0 0 0 0)
(0 -4.81437e-10 0 -4.81437e-10 1.45012e-09 0 0 0 0)
(0 -4.88584e-10 0 -4.88584e-10 1.43621e-09 0 0 0 0)
(0 -4.96109e-10 0 -4.96109e-10 1.42187e-09 0 0 0 0)
(0 -5.04041e-10 0 -5.04041e-10 1.40716e-09 0 0 0 0)
(0 -5.12413e-10 0 -5.12413e-10 1.39208e-09 0 0 0 0)
(0 -5.21261e-10 0 -5.21261e-10 1.37664e-09 0 0 0 0)
(0 -5.30624e-10 0 -5.30624e-10 1.36077e-09 0 0 0 0)
(0 -5.40547e-10 0 -5.40547e-10 1.3444e-09 0 0 0 0)
(0 -5.51083e-10 0 -5.51083e-10 1.32743e-09 0 0 0 0)
(0 -5.62289e-10 0 -5.62289e-10 1.30969e-09 0 0 0 0)
(0 -5.74229e-10 0 -5.74229e-10 1.29101e-09 0 0 0 0)
(0 -5.86965e-10 0 -5.86965e-10 1.27112e-09 0 0 0 0)
(0 -6.00556e-10 0 -6.00556e-10 1.24975e-09 0 0 0 0)
(0 -6.15063e-10 0 -6.15063e-10 1.22656e-09 0 0 0 0)
(0 -6.30561e-10 0 -6.30561e-10 1.20126e-09 0 0 0 0)
(0 -6.47177e-10 0 -6.47177e-10 1.17366e-09 0 0 0 0)
(0 -6.65143e-10 0 -6.65143e-10 1.14381e-09 0 0 0 0)
(0 -6.84817e-10 0 -6.84817e-10 1.11198e-09 0 0 0 0)
(0 -7.0661e-10 0 -7.0661e-10 1.07864e-09 0 0 0 0)
(0 -7.30754e-10 0 -7.30754e-10 1.04418e-09 0 0 0 0)
(0 -7.56945e-10 0 -7.56945e-10 1.00865e-09 0 0 0 0)
(0 -7.84226e-10 0 -7.84226e-10 9.71655e-10 0 0 0 0)
(0 -8.11783e-10 0 -8.11783e-10 9.32911e-10 0 0 0 0)
(0 -8.40945e-10 0 -8.40945e-10 8.93413e-10 0 0 0 0)
(0 -8.76104e-10 0 -8.76104e-10 8.56587e-10 0 0 0 0)
(0 -9.19699e-10 0 -9.19699e-10 8.27729e-10 0 0 0 0)
(0 -9.64305e-10 0 -9.64305e-10 8.10983e-10 0 0 0 0)
(0 -9.99318e-10 0 -9.99318e-10 8.07752e-10 0 0 0 0)
(0 -1.03318e-09 0 -1.03318e-09 8.20558e-10 0 0 0 0)
(0 -1.09887e-09 0 -1.09887e-09 8.57323e-10 0 0 0 0)
(0 -1.21662e-09 0 -1.21662e-09 9.23976e-10 0 0 0 0)
(0 -1.31949e-09 0 -1.31949e-09 9.92207e-10 0 0 0 0)
(0 -1.2806e-09 0 -1.2806e-09 9.53001e-10 0 0 0 0)
(0 -1.3563e-09 0 -1.3563e-09 7.53368e-10 0 0 0 0)
(0 -1.79831e-09 0 -1.79831e-09 4.44472e-10 0 0 0 0)
(0 -2.39208e-09 0 -2.39208e-09 6.26648e-11 0 0 0 0)
(0 -3.19092e-09 0 -3.19092e-09 -2.60176e-09 0 0 0 0)
(0 7.33101e-08 0 7.33101e-08 -3.48407e-09 0 0 0 0)
(0 3.02367e-05 0 3.02367e-05 8.49289e-07 0 0 0 0)
(0 0.000473518 0 0.000473518 8.23573e-06 0 0 0 0)
(0 0.00175718 0 0.00175718 1.09276e-05 0 0 0 0)
(0 0.00242177 0 0.00242177 -5.0636e-06 0 0 0 0)
(0 0.002892 0 0.002892 -6.72322e-06 0 0 0 0)
(0 0.00328364 0 0.00328364 -1.26043e-05 0 0 0 0)
(0 0.00362025 0 0.00362025 -1.67215e-05 0 0 0 0)
(0 0.00391148 0 0.00391148 -1.93416e-05 0 0 0 0)
(0 0.00416353 0 0.00416353 -2.0391e-05 0 0 0 0)
(0 0.0043805 0 0.0043805 -2.01978e-05 0 0 0 0)
(0 0.00456531 0 0.00456531 -1.91853e-05 0 0 0 0)
(0 0.00472015 0 0.00472015 -1.77193e-05 0 0 0 0)
(0 0.00484672 0 0.00484672 -1.60649e-05 0 0 0 0)
(0 0.00494635 0 0.00494635 -1.43785e-05 0 0 0 0)
(0 0.0050201 0 0.0050201 -1.27368e-05 0 0 0 0)
(0 0.00506883 0 0.00506883 -1.11751e-05 0 0 0 0)
(0 0.00509325 0 0.00509325 -9.70311e-06 0 0 0 0)
(0 0.00509397 0 0.00509397 -8.32222e-06 0 0 0 0)
(0 0.00507153 0 0.00507153 -7.03715e-06 0 0 0 0)
(0 0.00502641 0 0.00502641 -5.85788e-06 0 0 0 0)
(0 0.00495904 0 0.00495904 -4.79473e-06 0 0 0 0)
(0 0.00486981 0 0.00486981 -3.85146e-06 0 0 0 0)
(0 0.00475911 0 0.00475911 -3.01678e-06 0 0 0 0)
(0 0.00462725 0 0.00462725 -2.26096e-06 0 0 0 0)
(0 0.0044746 0 0.0044746 -1.54603e-06 0 0 0 0)
(0 0.0043015 0 0.0043015 -8.45728e-07 0 0 0 0)
(0 0.00410836 0 0.00410836 -1.61732e-07 0 0 0 0)
(0 0.00389563 0 0.00389563 4.76001e-07 0 0 0 0)
(0 0.0036638 0 0.0036638 1.02588e-06 0 0 0 0)
(0 0.00341338 0 0.00341338 1.46527e-06 0 0 0 0)
(0 0.00314492 0 0.00314492 1.81867e-06 0 0 0 0)
(0 0.00285896 0 0.00285896 2.13975e-06 0 0 0 0)
(0 0.00255606 0 0.00255606 2.42182e-06 0 0 0 0)
(0 0.00223683 0 0.00223683 2.52502e-06 0 0 0 0)
(0 0.00190214 0 0.00190214 2.27446e-06 0 0 0 0)
(0 0.0015538 0 0.0015538 1.67828e-06 0 0 0 0)
(0 0.00119545 0 0.00119545 9.7872e-07 0 0 0 0)
(0 0.000833081 0 0.000833081 4.38481e-07 0 0 0 0)
(0 0.000477499 0 0.000477499 1.4589e-07 0 0 0 0)
(0 0.000131422 0 0.000131422 2.85645e-08 0 0 0 0)
(0 1.13419e-05 0 1.13419e-05 2.93571e-09 0 0 0 0)
(0 2.57411e-06 0 2.57411e-06 1.07506e-09 0 0 0 0)
(0 1.90363e-06 0 1.90363e-06 7.17367e-10 0 0 0 0)
(0 1.72685e-06 0 1.72685e-06 5.06472e-10 0 0 0 0)
(0 1.58133e-06 0 1.58133e-06 3.73195e-10 0 0 0 0)
(0 1.45035e-06 0 1.45035e-06 2.84734e-10 0 0 0 0)
(0 1.33185e-06 0 1.33185e-06 2.28312e-10 0 0 0 0)
(0 1.22399e-06 0 1.22399e-06 1.83935e-10 0 0 0 0)
(0 1.12556e-06 0 1.12556e-06 1.51428e-10 0 0 0 0)
(0 1.03515e-06 0 1.03515e-06 1.23439e-10 0 0 0 0)
(0 9.52256e-07 0 9.52256e-07 1.05244e-10 0 0 0 0)
(0 8.76324e-07 0 8.76324e-07 8.92844e-11 0 0 0 0)
(0 8.07024e-07 0 8.07024e-07 7.73437e-11 0 0 0 0)
(0 7.43554e-07 0 7.43554e-07 6.46214e-11 0 0 0 0)
(0 6.85022e-07 0 6.85022e-07 5.38661e-11 0 0 0 0)
(0 6.30303e-07 0 6.30303e-07 4.97485e-11 0 0 0 0)
(-2.03416e-19 5.78818e-07 0 5.78818e-07 4.2518e-11 0 0 0 0)
(0 5.30892e-07 0 5.30892e-07 3.98387e-11 0 0 0 0)
(0 4.86633e-07 0 4.86633e-07 2.80095e-11 0 0 0 0)
(1.91516e-19 4.4543e-07 0 4.4543e-07 2.79149e-11 0 0 0 0)
(0 4.06554e-07 0 4.06554e-07 2.31026e-11 0 0 0 0)
(-1.83972e-19 3.70034e-07 0 3.70034e-07 2.49066e-11 0 0 0 0)
(0 3.36459e-07 0 3.36459e-07 1.49352e-11 0 0 0 0)
(1.76725e-19 3.05749e-07 0 3.05749e-07 1.7262e-11 0 0 0 0)
(0 2.77096e-07 0 2.77096e-07 1.19782e-11 0 0 0 0)
(0 2.50383e-07 0 2.50383e-07 1.45889e-11 0 0 0 0)
(0 2.2603e-07 0 2.2603e-07 7.39214e-12 0 0 0 0)
(1.63076e-19 2.03801e-07 0 2.03801e-07 1.14641e-11 0 0 0 0)
(0 1.83127e-07 0 1.83127e-07 5.6875e-12 0 0 0 0)
(0 1.64078e-07 0 1.64078e-07 8.40641e-12 0 0 0 0)
(0 1.46919e-07 0 1.46919e-07 3.19442e-12 0 0 0 0)
(0 1.31391e-07 0 1.31391e-07 7.49273e-12 0 0 0 0)
(0 1.17079e-07 0 1.17079e-07 2.2431e-12 0 0 0 0)
(0 1.03983e-07 0 1.03983e-07 5.22663e-12 0 0 0 0)
(0 9.22177e-08 0 9.22177e-08 1.20837e-12 0 0 0 0)
(-1.3886e-19 8.16358e-08 0 8.16358e-08 4.46891e-12 0 0 0 0)
(0 7.20331e-08 0 7.20331e-08 5.44663e-13 0 0 0 0)
(-1.3339e-19 6.34017e-08 0 6.34017e-08 3.52536e-12 0 0 0 0)
(0 5.57103e-08 0 5.57103e-08 1.46545e-13 0 0 0 0)
(0 4.8789e-08 0 4.8789e-08 2.62451e-12 0 0 0 0)
(0 4.25908e-08 0 4.25908e-08 -4.62198e-14 0 0 0 0)
(0 3.71207e-08 0 3.71207e-08 2.11153e-12 0 0 0 0)
(1.2064e-19 3.22589e-08 0 3.22589e-08 -2.83848e-13 0 0 0 0)
(1.1824e-19 2.79199e-08 0 2.79199e-08 1.61936e-12 0 0 0 0)
(0 2.41176e-08 0 2.41176e-08 -2.83141e-13 0 0 0 0)
(0 2.07878e-08 0 2.07878e-08 1.1876e-12 0 0 0 0)
(0 1.7837e-08 0 1.7837e-08 -2.92206e-13 0 0 0 0)
(0 1.52673e-08 0 1.52673e-08 8.93697e-13 0 0 0 0)
(0 1.30292e-08 0 1.30292e-08 -2.54891e-13 0 0 0 0)
(0 1.10765e-08 0 1.10765e-08 6.3325e-13 0 0 0 0)
(0 9.3837e-09 0 9.3837e-09 -2.01543e-13 0 0 0 0)
(0 7.91039e-09 0 7.91039e-09 4.30603e-13 0 0 0 0)
(0 6.64456e-09 0 6.64456e-09 -1.32177e-13 0 0 0 0)
(0 5.55643e-09 0 5.55643e-09 2.24935e-13 0 0 0 0)
(0 4.60351e-09 0 4.60351e-09 -3.01438e-13 0 0 0 0)
(0 3.93456e-09 0 3.93456e-09 1.04217e-12 0 0 0 0)
(0 3.347e-09 0 3.347e-09 -4.80099e-13 0 0 0 0)
(-1.78492e-19 2.71172e-09 0 2.71172e-09 -1.03863e-13 0 0 0 0)
(1.74941e-19 2.234e-09 0 2.234e-09 1.26032e-13 0 0 0 0)
(0 1.83866e-09 0 1.83866e-09 -1.50533e-13 0 0 0 0)
(0 1.50056e-09 0 1.50056e-09 1.75658e-13 0 0 0 0)
(-1.64707e-19 1.21567e-09 0 1.21567e-09 -2.00467e-13 0 0 0 0)
(0 9.80315e-10 0 9.80315e-10 2.24912e-13 0 0 0 0)
(0 7.88073e-10 0 7.88073e-10 -2.48355e-13 0 0 0 0)
(-1.55071e-19 6.31139e-10 0 6.31139e-10 2.71173e-13 0 0 0 0)
(0 5.02287e-10 0 5.02287e-10 -2.92722e-13 0 0 0 0)
(0 3.97567e-10 0 3.97567e-10 3.13648e-13 0 0 0 0)
(0 3.13758e-10 0 3.13758e-10 -3.33178e-13 0 0 0 0)
(0 2.46916e-10 0 2.46916e-10 3.5215e-13 0 0 0 0)
(0 1.93547e-10 0 1.93547e-10 -3.69672e-13 0 0 0 0)
(0 1.51069e-10 0 1.51069e-10 3.86711e-13 0 0 0 0)
(0 1.17458e-10 0 1.17458e-10 -4.02285e-13 0 0 0 0)
(0 9.09758e-11 0 9.09758e-11 4.17458e-13 0 0 0 0)
(0 7.01603e-11 0 7.01603e-11 -4.3118e-13 0 0 0 0)
(0 5.38494e-11 0 5.38494e-11 4.4457e-13 0 0 0 0)
(0 4.11124e-11 0 4.11124e-11 -4.56573e-13 0 0 0 0)
(0 3.12193e-11 0 3.12193e-11 4.68276e-13 0 0 0 0)
(0 2.35739e-11 0 2.35739e-11 -4.78716e-13 0 0 0 0)
(0 1.76999e-11 0 1.76999e-11 4.88828e-13 0 0 0 0)
(0 1.32129e-11 0 1.32129e-11 -4.97897e-13 0 0 0 0)
(1.12435e-19 9.80463e-12 0 9.80463e-12 5.06479e-13 0 0 0 0)
(0 7.23151e-12 0 7.23151e-12 -5.13986e-13 0 0 0 0)
(0 5.30092e-12 0 5.30092e-12 5.29194e-13 0 0 0 0)
(0 3.86135e-12 0 3.86135e-12 -5.51361e-13 0 0 0 0)
(0 2.79427e-12 0 2.79427e-12 5.72109e-13 0 0 0 0)
(0 2.00966e-12 0 2.00966e-12 -5.90831e-13 0 0 0 0)
(0 1.43562e-12 0 1.43562e-12 6.07933e-13 0 0 0 0)
(0 1.01833e-12 0 1.01833e-12 -6.23175e-13 0 0 0 0)
(0 7.16726e-13 0 7.16726e-13 6.36852e-13 0 0 0 0)
(0 5.01453e-13 0 5.01453e-13 -6.48759e-13 0 0 0 0)
(0 3.48935e-13 0 3.48935e-13 6.59247e-13 0 0 0 0)
(0 2.4068e-13 0 2.4068e-13 -6.68057e-13 0 0 0 0)
(0 1.6406e-13 0 1.6406e-13 6.75597e-13 0 0 0 0)
(0 1.11011e-13 0 1.11011e-13 -6.8155e-13 0 0 0 0)
(0 7.49757e-14 0 7.49757e-14 6.86364e-13 0 0 0 0)
(0 5.04132e-14 0 5.04132e-14 -6.89751e-13 0 0 0 0)
(0 3.3199e-14 0 3.3199e-14 6.9208e-13 0 0 0 0)
(0 2.19903e-14 0 2.19903e-14 -6.93101e-13 0 0 0 0)
(0 1.44967e-14 0 1.44967e-14 6.93206e-13 0 0 0 0)
(0 9.19688e-15 0 9.19688e-15 -6.921e-13 0 0 0 0)
(1.50452e-19 5.90596e-15 0 5.90596e-15 6.9022e-13 0 0 0 0)
(0 3.68887e-15 0 3.68887e-15 -6.87196e-13 0 0 0 0)
(0 2.31151e-15 0 2.31151e-15 6.83528e-13 0 0 0 0)
(0 1.3779e-15 0 1.3779e-15 -6.78843e-13 0 0 0 0)
(0 7.5098e-16 0 7.5098e-16 6.73602e-13 0 0 0 0)
(0 6.58854e-16 0 6.58854e-16 -6.67434e-13 0 0 0 0)
(0 4.88978e-16 0 4.88978e-16 6.60824e-13 0 0 0 0)
(0 1.92929e-16 0 1.92929e-16 -6.53379e-13 0 0 0 0)
(0 -9.88371e-17 0 -9.88371e-17 6.45578e-13 0 0 0 0)
(0 -2.23845e-16 0 -2.23845e-16 -6.37045e-13 0 0 0 0)
(1.23064e-19 1.52999e-16 0 1.52999e-16 6.28161e-13 0 0 0 0)
(0 2.36527e-16 0 2.36527e-16 -6.18792e-13 0 0 0 0)
(0 6.06154e-17 0 6.06154e-17 6.09037e-13 0 0 0 0)
(-1.15864e-19 -1.1795e-16 0 -1.1795e-16 -5.98871e-13 0 0 0 0)
(0 -4.89158e-17 0 -4.89158e-17 5.88411e-13 0 0 0 0)
(0 -1.55821e-17 0 -1.55821e-17 -5.77623e-13 0 0 0 0)
(0 9.21779e-18 0 9.21779e-18 5.66585e-13 0 0 0 0)
(0 1.46288e-16 0 1.46288e-16 -5.5529e-13 0 0 0 0)
(0 -9.81613e-17 0 -9.81613e-17 5.43804e-13 0 0 0 0)
(0 -2.48828e-16 0 -2.48828e-16 -5.32125e-13 0 0 0 0)
(0 1.94704e-16 0 1.94704e-16 5.20303e-13 0 0 0 0)
(0 2.99306e-16 0 2.99306e-16 -5.08342e-13 0 0 0 0)
(0 -1.70862e-16 0 -1.70862e-16 4.96286e-13 0 0 0 0)
(0 -2.44892e-16 0 -2.44892e-16 -4.83988e-13 0 0 0 0)
(0 1.12497e-17 0 1.12497e-17 5.37304e-13 0 0 0 0)
(0 -2.2764e-18 0 -2.2764e-18 -5.3316e-13 0 0 0 0)
(0 -3.1102e-17 0 -3.1102e-17 5.28397e-13 0 0 0 0)
(0 4.16105e-17 0 4.16105e-17 -5.23163e-13 0 0 0 0)
(0 -3.46754e-18 0 -3.46754e-18 5.1749e-13 0 0 0 0)
(0 -2.19699e-17 0 -2.19699e-17 -5.11382e-13 0 0 0 0)
(0 2.8905e-17 0 2.8905e-17 5.04868e-13 0 0 0 0)
(0 -6.16746e-18 0 -6.16746e-18 -4.97955e-13 0 0 0 0)
(0 -2.40875e-17 0 -2.40875e-17 4.90667e-13 0 0 0 0)
(0 1.45584e-17 0 1.45584e-17 -4.83009e-13 0 0 0 0)
(0 2.96462e-17 0 2.96462e-17 4.75005e-13 0 0 0 0)
(0 6.56451e-18 0 6.56451e-18 -4.66661e-13 0 0 0 0)
(0 -2.83227e-17 0 -2.83227e-17 4.57997e-13 0 0 0 0)
(0 4.87044e-18 0 4.87044e-18 -4.49018e-13 0 0 0 0)
(0 5.29396e-18 0 5.29396e-18 4.39743e-13 0 0 0 0)
(0 6.08805e-19 0 6.08805e-19 -4.30179e-13 0 0 0 0)
(0 2.36905e-17 0 2.36905e-17 4.2034e-13 0 0 0 0)
(0 -2.67874e-17 0 -2.67874e-17 -4.10239e-13 0 0 0 0)
(0 2.77933e-18 0 2.77933e-18 3.99862e-13 0 0 0 0)
(0 -1.58819e-19 0 -1.58819e-19 -3.89292e-13 0 0 0 0)
(0 -2.5808e-17 0 -2.5808e-17 3.78422e-13 0 0 0 0)
(0 2.74492e-17 0 2.74492e-17 -3.67392e-13 0 0 0 0)
(0 2.39287e-17 0 2.39287e-17 3.56084e-13 0 0 0 0)
(0 -3.02814e-17 0 -3.02814e-17 -3.44635e-13 0 0 0 0)
(0 5.84982e-18 0 5.84982e-18 3.32933e-13 0 0 0 0)
(0 1.98523e-17 0 1.98523e-17 -3.21088e-13 0 0 0 0)
(0 -2.00112e-17 0 -2.00112e-17 3.0902e-13 0 0 0 0)
(0 -2.05935e-17 0 -2.05935e-17 -2.96839e-13 0 0 0 0)
(0 -2.33993e-17 0 -2.33993e-17 2.84446e-13 0 0 0 0)
(0 5.77041e-18 0 5.77041e-18 -2.71926e-13 0 0 0 0)
(0 -1.16467e-17 0 -1.16467e-17 2.59251e-13 0 0 0 0)
(0 3.81165e-18 0 3.81165e-18 -2.48994e-13 0 0 0 0)
(0 5.55865e-18 0 5.55865e-18 2.41777e-13 0 0 0 0)
(0 -1.98523e-17 0 -1.98523e-17 -2.34919e-13 0 0 0 0)
(0 1.0085e-17 0 1.0085e-17 2.2789e-13 0 0 0 0)
(0 6.24687e-18 0 6.24687e-18 -2.20589e-13 0 0 0 0)
(0 1.10644e-17 0 1.10644e-17 2.13032e-13 0 0 0 0)
(0 1.34996e-17 0 1.34996e-17 -2.05082e-13 0 0 0 0)
(0 -7.30566e-18 0 -7.30566e-18 1.9689e-13 0 0 0 0)
(0 -3.00432e-17 0 -3.00432e-17 -1.88179e-13 0 0 0 0)
(0 -5.32043e-18 0 -5.32043e-18 1.79186e-13 0 0 0 0)
(0 6.49833e-17 0 6.49833e-17 -1.69558e-13 0 0 0 0)
(0 2.03023e-17 0 2.03023e-17 1.59533e-13 0 0 0 0)
(0 -4.2484e-17 0 -4.2484e-17 -1.48511e-13 0 0 0 0)
(0 -9.82029e-18 0 -9.82029e-18 1.36806e-13 0 0 0 0)
(0 2.45375e-17 0 2.45375e-17 -1.23872e-13 0 0 0 0)
(0 2.70256e-17 0 2.70256e-17 1.09336e-13 0 0 0 0)
(0 -2.06729e-17 0 -2.06729e-17 -9.25568e-14 0 0 0 0)
(0 -1.77348e-18 0 -1.77348e-18 7.07236e-14 0 0 0 0)
(0 2.43257e-17 0 2.43257e-17 -2.91701e-14 0 0 0 0)
)
;

boundaryField
{
    inandouthalf11
    {
        type            cyclic;
    }
    inandouthalf12
    {
        type            cyclic;
    }
    inandouthalf21
    {
        type            cyclic;
    }
    inandouthalf22
    {
        type            cyclic;
    }
    inandouthalf31
    {
        type            cyclic;
    }
    inandouthalf32
    {
        type            cyclic;
    }
    inandouthalf41
    {
        type            cyclic;
    }
    inandouthalf42
    {
        type            cyclic;
    }
    top
    {
        type            symmetryPlane;
    }
    walls
    {
        type            zeroGradient;
    }
    frontAndBackPlanes
    {
        type            empty;
    }
}


// ************************************************************************* //
