/*--------------------------------*- C++ -*----------------------------------*\
| =========                 |                                                 |
| \\      /  F ield         | OpenFOAM: The Open Source CFD Toolbox           |
|  \\    /   O peration     | Version:  2.4.x                                 |
|   \\  /    A nd           | Web:      www.OpenFOAM.org                      |
|    \\/     M anipulation  |                                                 |
\*---------------------------------------------------------------------------*/
FoamFile
{
    version     2.0;
    format      ascii;
    class       volScalarField;
    location    "2.5";
    object      Theta_0;
}
// * * * * * * * * * * * * * * * * * * * * * * * * * * * * * * * * * * * * * //

dimensions      [0 2 -2 0 0 0 0];

internalField   nonuniform List<scalar> 
360
(
6.66136e-21
6.66136e-21
6.66136e-21
6.66136e-21
6.66136e-21
6.66136e-21
6.66136e-21
6.66136e-21
6.66136e-21
6.66136e-21
6.66136e-21
6.66136e-21
6.66136e-21
6.66137e-21
6.66144e-21
6.66179e-21
6.66325e-21
6.66809e-21
6.68084e-21
6.70737e-21
6.75053e-21
6.8045e-21
6.85389e-21
6.8815e-21
6.87943e-21
6.85282e-21
6.81414e-21
6.77486e-21
6.74143e-21
6.71594e-21
6.69791e-21
6.68573e-21
6.67773e-21
6.67253e-21
6.66914e-21
6.66692e-21
6.66544e-21
6.66443e-21
6.66374e-21
6.66325e-21
6.66289e-21
6.66262e-21
6.66242e-21
6.66227e-21
6.66215e-21
6.66206e-21
6.66199e-21
6.66193e-21
6.66189e-21
6.66185e-21
6.66183e-21
6.66181e-21
6.6618e-21
6.66179e-21
6.66179e-21
6.6618e-21
6.66182e-21
6.66184e-21
6.66186e-21
6.6619e-21
6.66194e-21
6.66199e-21
6.66204e-21
6.66211e-21
6.66219e-21
6.66229e-21
6.66243e-21
6.66262e-21
6.6629e-21
6.6633e-21
6.66389e-21
6.66474e-21
6.66594e-21
6.66754e-21
6.66957e-21
6.67195e-21
6.67446e-21
6.67683e-21
6.67883e-21
6.68034e-21
6.68138e-21
6.6821e-21
6.6827e-21
6.68335e-21
6.68417e-21
6.6852e-21
6.68643e-21
6.6878e-21
6.68921e-21
6.69058e-21
6.69182e-21
6.69288e-21
6.69376e-21
6.69447e-21
6.69502e-21
6.69543e-21
6.69572e-21
6.6959e-21
6.69597e-21
6.69585e-21
0
0
0
0
0
0
0
0
0
0
0
0
0
0
0
6.68864e-21
6.68805e-21
6.68743e-21
6.6868e-21
6.68613e-21
6.68542e-21
6.68466e-21
6.68385e-21
6.68297e-21
6.68204e-21
6.68107e-21
6.68009e-21
6.6791e-21
6.67813e-21
6.67714e-21
6.67612e-21
6.67512e-21
6.69559e-21
2.99147e-20
4.65282e-19
7.55973e-18
1.18579e-16
1.78974e-15
2.59753e-14
3.62775e-13
4.89219e-12
6.43858e-11
8.52859e-10
1.24664e-08
2.7729e-07
6.98783e-06
8.54755e-05
0.000667214
0.00177123
0.00263993
0.00336188
0.00405165
0.0046993
0.00530288
0.00586194
0.00637577
0.00684368
0.00726386
0.0076355
0.00795714
0.00822819
0.00844886
0.00861936
0.00874035
0.00881254
0.0088376
0.00881708
0.0087533
0.00864858
0.00850592
0.00832837
0.00811949
0.00788341
0.00762518
0.00735103
0.00706853
0.00678657
0.00651515
0.00626449
0.00604346
0.0058574
0.00570637
0.0055855
0.00548746
0.00540532
0.005334
0.00527019
0.00521142
0.00515609
0.00510322
0.00505215
0.00500244
0.00495374
0.00490581
0.00485843
0.00481145
0.00476474
0.00471819
0.00467173
0.00462528
0.00457878
0.00453172
0.00448358
0.00443428
0.00438377
0.00433196
0.00427881
0.00422424
0.00416818
0.00411055
0.00405128
0.00399029
0.00392749
0.00386279
0.00379612
0.00372735
0.00365639
0.00358315
0.00350748
0.00342927
0.00334838
0.00326466
0.00317794
0.00308805
0.00299478
0.00289791
0.00279717
0.0026923
0.00258294
0.00246872
0.00234919
0.00222381
0.00209192
0.00195272
0.00180518
0.00164794
0.00147916
0.00129616
0.00109479
0.00086771
0.000598975
0
0
0
0
0
0
0
0
0
0
0
0
0
0
0
0
0
0
0
0
0
0
0
0
0
0
0
0
0
0
0
0
0
0
0
0
0
0
0
0
0
0
0
0
0
0
0
0
0
0
0
0
0
0
0
0
0
0
0
0
0
0
0
0
0
0
0
0
0
0
0
0
0
0
0
0
0
0
0
0
0
0
0
0
0
0
0
0
0
0
0
0
0
0
0
0
0
0
0
0
0
0
0
0
0
0
0
0
0
0
0
0
0
0
0
0
0
0
0
)
;

boundaryField
{
    inandouthalf11
    {
        type            cyclic;
    }
    inandouthalf12
    {
        type            cyclic;
    }
    inandouthalf21
    {
        type            cyclic;
    }
    inandouthalf22
    {
        type            cyclic;
    }
    inandouthalf31
    {
        type            cyclic;
    }
    inandouthalf32
    {
        type            cyclic;
    }
    inandouthalf41
    {
        type            cyclic;
    }
    inandouthalf42
    {
        type            cyclic;
    }
    top
    {
        type            symmetryPlane;
    }
    walls
    {
        type            zeroGradient;
    }
    frontAndBackPlanes
    {
        type            empty;
    }
}


// ************************************************************************* //
