/*--------------------------------*- C++ -*----------------------------------*\
| =========                 |                                                 |
| \\      /  F ield         | OpenFOAM: The Open Source CFD Toolbox           |
|  \\    /   O peration     | Version:  2.4.x                                 |
|   \\  /    A nd           | Web:      www.OpenFOAM.org                      |
|    \\/     M anipulation  |                                                 |
\*---------------------------------------------------------------------------*/
FoamFile
{
    version     2.0;
    format      ascii;
    class       volScalarField;
    location    "2.5";
    object      tmf;
}
// * * * * * * * * * * * * * * * * * * * * * * * * * * * * * * * * * * * * * //

dimensions      [0 0 0 0 0 0 0];

internalField   nonuniform List<scalar> 
360
(
0.999204
0.999204
0.999204
0.999204
0.999204
0.999204
0.999204
0.999204
0.999204
0.999204
0.999204
0.999204
0.999204
0.999204
0.999204
0.999204
0.999204
0.999204
0.999204
0.999204
0.999204
0.999204
0.999204
0.999204
0.999204
0.999204
0.999204
0.999204
0.999204
0.999204
0.999204
0.999204
0.999204
0.999204
0.999204
0.999204
0.999204
0.999204
0.999204
0.999204
0.999204
0.999204
0.999204
0.999203
0.999203
0.999203
0.999203
0.999203
0.999203
0.999203
0.999203
0.999203
0.999203
0.999203
0.999203
0.999203
0.999203
0.999203
0.999203
0.999203
0.999203
0.999202
0.999202
0.999202
0.999202
0.999202
0.999202
0.999202
0.999202
0.999202
0.999201
0.999201
0.999201
0.999201
0.999201
0.999201
0.999201
0.9992
0.9992
0.9992
0.9992
0.9992
0.9992
0.9992
0.999199
0.999199
0.999199
0.999199
0.999199
0.999198
0.999198
0.999198
0.999198
0.999198
0.999197
0.999197
0.999197
0.999197
0.999197
0.999196
0.999196
0.999196
0.999196
0.999195
0.999195
0.999195
0.999194
0.999194
0.999194
0.999194
0.999193
0.999193
0.999193
0.999192
0.999192
0.999192
0.999191
0.999191
0.999191
0.99919
0.99919
0.999189
0.999189
0.999188
0.999188
0.999187
0.999187
0.999186
0.999186
0.999185
0.999185
0.999184
0.998889
0.997823
0.997633
0.997491
0.997324
0.997123
0.996873
0.996555
0.996133
0.995547
0.994707
0.993493
0.991754
0.989292
0.985211
0.961618
0.9393
0.92725
0.916727
0.914232
0.912697
0.911773
0.911273
0.911098
0.911183
0.911472
0.911909
0.912447
0.913044
0.913668
0.914295
0.914905
0.915488
0.916046
0.916604
0.917237
0.918096
0.919402
0.921347
0.923962
0.927117
0.930644
0.934416
0.938352
0.942398
0.946512
0.95065
0.954777
0.958877
0.962971
0.967129
0.971516
0.976552
0.982194
0.985784
0.986383
0.986266
0.986134
0.986003
0.985874
0.985747
0.985674
0.98861
0.995313
0.995515
0.995492
0.995469
0.995446
0.995424
0.995402
0.99538
0.995357
0.995335
0.995313
0.995291
0.995268
0.995245
0.995222
0.995199
0.995176
0.995152
0.995128
0.995104
0.99508
0.995055
0.99503
0.995005
0.994979
0.994953
0.994927
0.9949
0.994873
0.994845
0.994817
0.994789
0.99476
0.994731
0.994702
0.994672
0.994641
0.994611
0.99458
0.994549
0.994518
0.994488
0.994458
0.99443
0.994403
0.994379
0.994354
0.994199
0.994199
0.994199
0.994199
0.994199
0.994199
0.994199
0.994199
0.994199
0.994199
0.994199
0.994199
0.994199
0.994199
0.994199
0.994199
0.994199
0.994199
0.994199
0.994199
0.994199
0.994199
0.994199
0.994199
0.994199
0.994199
0.994199
0.994199
0.994199
0.994199
0.994199
0.994199
0.994199
0.994199
0.994199
0.994199
0.994199
0.994199
0.994199
0.994199
0.994199
0.994199
0.994199
0.994199
0.994199
0.994199
0.994199
0.994199
0.994199
0.994199
0.994199
0.994199
0.994199
0.994199
0.994199
0.994199
0.994199
0.994199
0.994199
0.994199
0.994199
0.994199
0.994199
0.994199
0.994199
0.994199
0.994199
0.994199
0.994199
0.994199
0.994199
0.994199
0.994199
0.994199
0.994199
0.994199
0.994199
0.994199
0.994199
0.994199
0.994199
0.994199
0.994199
0.994199
0.994199
0.994199
0.994199
0.994199
0.994199
0.994199
0.994199
0.994199
0.994199
0.994199
0.994199
0.994199
0.994199
0.994199
0.994199
0.994199
0.994199
0.994199
0.994199
0.994199
0.994199
0.994199
0.994199
0.994199
0.994199
0.994199
0.994199
0.994199
0.994199
0.994199
0.994199
0.994199
0.994184
0.993278
)
;

boundaryField
{
    inandouthalf11
    {
        type            cyclic;
    }
    inandouthalf12
    {
        type            cyclic;
    }
    inandouthalf21
    {
        type            cyclic;
    }
    inandouthalf22
    {
        type            cyclic;
    }
    inandouthalf31
    {
        type            cyclic;
    }
    inandouthalf32
    {
        type            cyclic;
    }
    inandouthalf41
    {
        type            cyclic;
    }
    inandouthalf42
    {
        type            cyclic;
    }
    top
    {
        type            symmetryPlane;
    }
    walls
    {
        type            calculated;
        value           uniform 0;
    }
    frontAndBackPlanes
    {
        type            empty;
    }
}


// ************************************************************************* //
