/*--------------------------------*- C++ -*----------------------------------*\
| =========                 |                                                 |
| \\      /  F ield         | OpenFOAM: The Open Source CFD Toolbox           |
|  \\    /   O peration     | Version:  2.4.x                                 |
|   \\  /    A nd           | Web:      www.OpenFOAM.org                      |
|    \\/     M anipulation  |                                                 |
\*---------------------------------------------------------------------------*/
FoamFile
{
    version     2.0;
    format      ascii;
    class       volVectorField;
    location    "2.5";
    object      U;
}
// * * * * * * * * * * * * * * * * * * * * * * * * * * * * * * * * * * * * * //

dimensions      [0 1 -1 0 0 0 0];

internalField   nonuniform List<vector> 
360
(
(-0.000100049 -6.82236e-14 0)
(-0.000100219 -2.05071e-13 0)
(-0.000100221 -3.42362e-13 0)
(-0.000100221 -4.79695e-13 0)
(-0.000100221 -6.14895e-13 0)
(-0.000100222 -7.3624e-13 0)
(-0.000100222 -7.84783e-13 0)
(-0.000100223 -5.04458e-13 0)
(-0.000100223 1.03236e-12 0)
(-0.000100224 6.57195e-12 0)
(-0.000100225 2.35614e-11 0)
(-0.000100225 7.39257e-11 0)
(-0.000100226 2.17906e-10 0)
(-0.000100228 5.88311e-10 0)
(-0.00010023 1.42177e-09 0)
(-0.000100235 3.03998e-09 0)
(-0.000100244 5.70746e-09 0)
(-0.000100261 9.35797e-09 0)
(-0.000100291 1.32868e-08 0)
(-0.00010034 1.61824e-08 0)
(-0.000100411 1.65483e-08 0)
(-0.000100505 1.37174e-08 0)
(-0.000100619 8.1449e-09 0)
(-0.000100746 1.38048e-09 0)
(-0.000100876 -4.71283e-09 0)
(-0.000101003 -8.89274e-09 0)
(-0.000101119 -1.09196e-08 0)
(-0.000101223 -1.12396e-08 0)
(-0.000101313 -1.04909e-08 0)
(-0.000101389 -9.16286e-09 0)
(-0.000101452 -7.64807e-09 0)
(-0.000101507 -6.16684e-09 0)
(-0.000101552 -4.91569e-09 0)
(-0.000101592 -3.83362e-09 0)
(-0.000101625 -3.02204e-09 0)
(-0.000101655 -2.35685e-09 0)
(-0.000101682 -1.85678e-09 0)
(-0.000101707 -1.4703e-09 0)
(-0.000101731 -1.15717e-09 0)
(-0.000101752 -9.73229e-10 0)
(-0.000101774 -7.75032e-10 0)
(-0.000101795 -6.39389e-10 0)
(-0.000101815 -5.55087e-10 0)
(-0.000101836 -4.38877e-10 0)
(-0.000101856 -3.81038e-10 0)
(-0.000101877 -3.2385e-10 0)
(-0.000101898 -2.60341e-10 0)
(-0.000101919 -2.3816e-10 0)
(-0.000101941 -1.91974e-10 0)
(-0.000101965 -1.27737e-10 0)
(-0.000101989 -1.24407e-10 0)
(-0.000102014 -8.14213e-11 0)
(-0.00010204 -6.49768e-11 0)
(-0.000102068 -2.09596e-11 0)
(-0.000102096 -1.57148e-11 0)
(-0.000102127 4.39356e-11 0)
(-0.000102159 4.89323e-11 0)
(-0.000102193 9.33782e-11 0)
(-0.000102228 1.23734e-10 0)
(-0.000102264 1.27752e-10 0)
(-0.000102304 1.84587e-10 0)
(-0.000102343 1.85445e-10 0)
(-0.000102385 2.26536e-10 0)
(-0.000102427 2.48208e-10 0)
(-0.000102471 2.98834e-10 0)
(-0.000102516 3.64274e-10 0)
(-0.000102563 4.76358e-10 0)
(-0.000102613 6.28793e-10 0)
(-0.000102665 8.32278e-10 0)
(-0.00010272 1.07447e-09 0)
(-0.000102781 1.39245e-09 0)
(-0.000102846 1.74461e-09 0)
(-0.000102916 2.04985e-09 0)
(-0.000102991 2.34573e-09 0)
(-0.000103072 2.48722e-09 0)
(-0.000103159 2.46174e-09 0)
(-0.000103251 2.20322e-09 0)
(-0.000103346 1.79668e-09 0)
(-0.000103446 1.32403e-09 0)
(-0.000103548 8.86406e-10 0)
(-0.000103653 5.54889e-10 0)
(-0.000103759 3.87432e-10 0)
(-0.000103868 3.63693e-10 0)
(-0.000103979 4.38983e-10 0)
(-0.000104092 5.70947e-10 0)
(-0.000104207 7.03371e-10 0)
(-0.000104325 8.0441e-10 0)
(-0.000104445 8.42165e-10 0)
(-0.000104567 8.16776e-10 0)
(-0.000104691 7.40357e-10 0)
(-0.000104818 6.29122e-10 0)
(-0.000104946 5.04787e-10 0)
(-0.000105075 3.89207e-10 0)
(-0.000105207 2.87812e-10 0)
(-0.000105339 2.01701e-10 0)
(-0.000105473 1.27935e-10 0)
(-0.000105609 6.12174e-11 0)
(-0.000105745 -2.55784e-12 0)
(-0.000105882 -6.44881e-11 0)
(-0.00010602 -1.23365e-10 0)
(-0.00010616 -1.77897e-10 0)
(-0.000106299 -2.2638e-10 0)
(-0.00010644 -2.67809e-10 0)
(-0.000106582 -3.02868e-10 0)
(-0.000106724 -3.32579e-10 0)
(-0.000106868 -3.57819e-10 0)
(-0.000107012 -3.79476e-10 0)
(-0.000107157 -3.98161e-10 0)
(-0.000107304 -4.14291e-10 0)
(-0.000107451 -4.2839e-10 0)
(-0.000107599 -4.41119e-10 0)
(-0.000107749 -4.53228e-10 0)
(-0.0001079 -4.6555e-10 0)
(-0.000108052 -4.78912e-10 0)
(-0.000108206 -4.94113e-10 0)
(-0.000108361 -5.11959e-10 0)
(-0.000108518 -5.33331e-10 0)
(-0.000108677 -5.59252e-10 0)
(-0.000108838 -5.90965e-10 0)
(-0.000109002 -6.29892e-10 0)
(-0.000109167 -6.77316e-10 0)
(-0.000109336 -7.33689e-10 0)
(-0.000109506 -7.97695e-10 0)
(-0.00010968 -8.65481e-10 0)
(-0.000109858 -9.30846e-10 0)
(-0.000110038 -9.87334e-10 0)
(-0.000110223 -1.03216e-09 0)
(-0.000110413 -1.06979e-09 0)
(-0.000110608 -1.11077e-09 0)
(-0.000110808 -1.16227e-09 0)
(-0.000111014 -1.2136e-09 0)
(-0.000111226 -1.23219e-09 0)
(-0.000111445 -1.17236e-09 0)
(-0.000111672 -9.76636e-10 0)
(-0.00011191 -6.09429e-10 0)
(-0.000112157 -1.60971e-10 0)
(-0.000112409 2.51497e-10 0)
(-0.000112668 6.68002e-10 0)
(-0.000112947 1.06733e-09 0)
(-0.000113258 9.48983e-10 0)
(-0.000113579 -9.28428e-10 0)
(-0.000113861 -8.77011e-09 0)
(-0.000114221 -1.337e-08 0)
(-0.000114743 -1.33595e-08 0)
(-0.000115432 -1.41407e-08 0)
(-0.000116399 -4.73062e-07 0)
(-8.91184e-05 -1.54854e-07 0)
(0.0187584 4.98104e-05 0)
(0.074389 5.35469e-05 0)
(0.120582 9.94608e-06 0)
(0.159755 3.98886e-06 0)
(0.194514 4.87023e-06 0)
(0.226173 2.91582e-06 0)
(0.255526 1.42933e-06 0)
(0.283096 5.19864e-07 0)
(0.309244 -6.68699e-09 0)
(0.33423 -2.88932e-07 0)
(0.358247 -4.33696e-07 0)
(0.381446 -4.95358e-07 0)
(0.403943 -5.1564e-07 0)
(0.425833 -5.16392e-07 0)
(0.447189 -5.07285e-07 0)
(0.468075 -4.95378e-07 0)
(0.488542 -4.82464e-07 0)
(0.50863 -4.70636e-07 0)
(0.528374 -4.60464e-07 0)
(0.547804 -4.51571e-07 0)
(0.566943 -4.41729e-07 0)
(0.585811 -4.29146e-07 0)
(0.604422 -4.14447e-07 0)
(0.622789 -3.99597e-07 0)
(0.640921 -3.85615e-07 0)
(0.658822 -3.72131e-07 0)
(0.676497 -3.60603e-07 0)
(0.693943 -3.54054e-07 0)
(0.711157 -3.46203e-07 0)
(0.728131 -3.06995e-07 0)
(0.744851 -2.01927e-07 0)
(0.761296 -7.10606e-08 0)
(0.777433 -5.72138e-08 0)
(0.793209 -1.9863e-07 0)
(0.808537 -2.66307e-07 0)
(0.823287 -1.29138e-07 0)
(0.837269 5.70111e-08 0)
(0.850174 1.01603e-07 0)
(0.861363 7.15847e-08 0)
(0.866898 3.71175e-08 0)
(0.868445 -4.43548e-09 0)
(0.869448 1.02267e-09 0)
(0.87035 -7.18677e-09 0)
(0.871176 3.18623e-09 0)
(0.871933 -5.44443e-09 0)
(0.872627 3.90027e-09 0)
(0.873265 -4.71421e-09 0)
(0.873852 3.74644e-09 0)
(0.874391 -4.38514e-09 0)
(0.874887 3.8501e-09 0)
(0.875343 -3.73349e-09 0)
(0.875764 3.50352e-09 0)
(0.876151 -3.69757e-09 0)
(0.876507 3.27302e-09 0)
(0.876839 -3.8034e-09 0)
(0.87715 4.57043e-09 0)
(0.877442 -4.9309e-09 0)
(0.877714 5.36882e-09 0)
(0.877969 -6.33036e-09 0)
(0.878207 7.17915e-09 0)
(0.878428 -7.75508e-09 0)
(0.878632 8.5389e-09 0)
(0.878823 -9.53345e-09 0)
(0.878999 1.05258e-08 0)
(0.879161 -1.14515e-08 0)
(0.879311 1.24139e-08 0)
(0.879449 -1.34494e-08 0)
(0.879575 1.45305e-08 0)
(0.879691 -1.56072e-08 0)
(0.879797 1.66805e-08 0)
(0.879894 -1.77794e-08 0)
(0.879982 1.88986e-08 0)
(0.880062 -2.00259e-08 0)
(0.880134 2.11471e-08 0)
(0.8802 -2.22705e-08 0)
(0.880259 2.33848e-08 0)
(0.880312 -2.45032e-08 0)
(0.880359 2.56061e-08 0)
(0.880402 -2.67087e-08 0)
(0.88044 2.77924e-08 0)
(0.880474 -2.88708e-08 0)
(0.880504 2.99251e-08 0)
(0.88053 -3.09799e-08 0)
(0.880554 3.20089e-08 0)
(0.880574 -3.30353e-08 0)
(0.880592 3.40369e-08 0)
(0.880608 -3.50375e-08 0)
(0.880622 3.60123e-08 0)
(0.880634 -3.69875e-08 0)
(0.880644 3.79374e-08 0)
(0.880653 -3.88883e-08 0)
(0.880661 3.98119e-08 0)
(0.880668 -4.07343e-08 0)
(0.880673 4.16218e-08 0)
(0.880678 -4.24571e-08 0)
(0.880682 4.43973e-08 0)
(0.880686 -4.52509e-08 0)
(0.880689 4.60929e-08 0)
(0.880691 -4.69508e-08 0)
(0.880693 4.77937e-08 0)
(0.880695 -4.86502e-08 0)
(0.880696 4.94909e-08 0)
(0.880697 -5.03442e-08 0)
(0.880698 5.11816e-08 0)
(0.880699 -5.20308e-08 0)
(0.8807 5.28646e-08 0)
(0.8807 -5.37095e-08 0)
(0.880701 5.45396e-08 0)
(0.880701 -5.53802e-08 0)
(0.880701 5.62069e-08 0)
(0.880701 -5.70434e-08 0)
(0.880702 5.78668e-08 0)
(0.880702 -5.86995e-08 0)
(0.880702 5.95201e-08 0)
(0.880702 -6.03493e-08 0)
(0.880702 6.11676e-08 0)
(0.880702 -6.19937e-08 0)
(0.880702 6.28099e-08 0)
(0.880702 -6.36335e-08 0)
(0.880702 6.4448e-08 0)
(0.880702 -6.52696e-08 0)
(0.880702 6.60832e-08 0)
(0.880702 -6.68877e-08 0)
(0.880702 6.7668e-08 0)
(0.880702 -6.84393e-08 0)
(0.880702 6.91878e-08 0)
(0.880702 -6.99279e-08 0)
(0.880702 7.06468e-08 0)
(0.880702 -7.13583e-08 0)
(0.880702 7.20502e-08 0)
(0.880702 -7.27358e-08 0)
(0.880702 7.34036e-08 0)
(0.880702 -7.40662e-08 0)
(0.880702 7.47132e-08 0)
(0.880702 -7.5356e-08 0)
(0.880702 7.59853e-08 0)
(0.880702 -7.66119e-08 0)
(0.880702 7.72271e-08 0)
(0.880702 -7.78409e-08 0)
(0.880702 7.84457e-08 0)
(0.880702 -7.90505e-08 0)
(0.880702 7.96487e-08 0)
(0.880702 -8.02483e-08 0)
(0.880702 8.0844e-08 0)
(0.880702 -8.14423e-08 0)
(0.880702 8.20395e-08 0)
(0.880702 -8.26407e-08 0)
(0.880702 8.32436e-08 0)
(0.880702 -8.38519e-08 0)
(0.880702 8.44646e-08 0)
(0.880702 -8.50846e-08 0)
(0.880702 8.57112e-08 0)
(0.880702 -8.63472e-08 0)
(0.880702 8.69923e-08 0)
(0.880702 -8.76488e-08 0)
(0.880702 8.83168e-08 0)
(0.880702 -8.89984e-08 0)
(0.880702 8.96938e-08 0)
(0.880702 -9.04052e-08 0)
(0.880702 9.11328e-08 0)
(0.880702 -9.18787e-08 0)
(0.880702 9.26431e-08 0)
(0.880702 -9.34282e-08 0)
(0.880702 8.26058e-08 0)
(0.880702 -8.15351e-08 0)
(0.880702 8.04732e-08 0)
(0.880702 -7.94216e-08 0)
(0.880702 7.83805e-08 0)
(0.880702 -7.73516e-08 0)
(0.880702 7.6335e-08 0)
(0.880702 -7.53321e-08 0)
(0.880702 7.43432e-08 0)
(0.880702 -7.33695e-08 0)
(0.880702 7.24112e-08 0)
(0.880702 -7.14694e-08 0)
(0.880702 7.05445e-08 0)
(0.880702 -6.96375e-08 0)
(0.880702 6.87484e-08 0)
(0.880702 -6.78785e-08 0)
(0.880702 6.70277e-08 0)
(0.880702 -6.61971e-08 0)
(0.880702 6.53868e-08 0)
(0.880702 -6.45977e-08 0)
(0.880702 6.38296e-08 0)
(0.880702 -6.3084e-08 0)
(0.880702 6.236e-08 0)
(0.880702 -6.16597e-08 0)
(0.880702 6.09815e-08 0)
(0.880702 -6.03279e-08 0)
(0.880702 5.96971e-08 0)
(0.880702 -5.90918e-08 0)
(0.880702 5.85098e-08 0)
(0.880702 -5.79541e-08 0)
(0.880702 5.74221e-08 0)
(0.880702 -5.6917e-08 0)
(0.880702 5.64261e-08 0)
(0.880702 -5.59499e-08 0)
(0.880702 5.54864e-08 0)
(0.880702 -5.50384e-08 0)
(0.880702 5.46041e-08 0)
(0.880702 -5.41863e-08 0)
(0.880702 5.37837e-08 0)
(0.880702 -5.33987e-08 0)
(0.880702 5.3031e-08 0)
(0.880702 -5.2682e-08 0)
(0.880702 5.23528e-08 0)
(0.880702 -5.20438e-08 0)
(0.880702 5.17588e-08 0)
(0.880702 -5.14966e-08 0)
(0.880702 5.12633e-08 0)
(0.880702 -5.10593e-08 0)
(0.880702 5.0893e-08 0)
(0.880702 -5.07764e-08 0)
)
;

boundaryField
{
    inandouthalf11
    {
        type            cyclic;
    }
    inandouthalf12
    {
        type            cyclic;
    }
    inandouthalf21
    {
        type            cyclic;
    }
    inandouthalf22
    {
        type            cyclic;
    }
    inandouthalf31
    {
        type            cyclic;
    }
    inandouthalf32
    {
        type            cyclic;
    }
    inandouthalf41
    {
        type            cyclic;
    }
    inandouthalf42
    {
        type            cyclic;
    }
    top
    {
        type            symmetryPlane;
    }
    walls
    {
        type            calculated;
        value           uniform (0 0 0);
    }
    frontAndBackPlanes
    {
        type            empty;
    }
}


// ************************************************************************* //
