/*--------------------------------*- C++ -*----------------------------------*\
| =========                 |                                                 |
| \\      /  F ield         | OpenFOAM: The Open Source CFD Toolbox           |
|  \\    /   O peration     | Version:  2.4.x                                 |
|   \\  /    A nd           | Web:      www.OpenFOAM.org                      |
|    \\/     M anipulation  |                                                 |
\*---------------------------------------------------------------------------*/
FoamFile
{
    version     2.0;
    format      ascii;
    class       volVectorField;
    location    "2.5";
    object      Ub_0;
}
// * * * * * * * * * * * * * * * * * * * * * * * * * * * * * * * * * * * * * //

dimensions      [0 1 -1 0 0 0 0];

internalField   nonuniform List<vector> 
360
(
(-0.000256505 -1.74426e-13 0)
(-0.000256942 -5.24457e-13 0)
(-0.000256945 -8.75312e-13 0)
(-0.000256945 -1.22572e-12 0)
(-0.000256945 -1.56861e-12 0)
(-0.000256947 -1.85451e-12 0)
(-0.000256947 -1.79285e-12 0)
(-0.000256949 6.84709e-14 0)
(-0.000256949 1.00204e-11 0)
(-0.000256951 5.20835e-11 0)
(-0.000256953 2.10909e-10 0)
(-0.000256953 7.68651e-10 0)
(-0.000256956 2.57996e-09 0)
(-0.000256958 7.92898e-09 0)
(-0.000256962 2.21903e-08 0)
(-0.000256967 5.64312e-08 0)
(-0.000256976 1.30376e-07 0)
(-0.000256993 2.74023e-07 0)
(-0.000257022 5.25278e-07 0)
(-0.00025707 9.22147e-07 0)
(-0.000257137 1.48952e-06 0)
(-0.000257229 2.22738e-06 0)
(-0.000257341 3.10582e-06 0)
(-0.000257466 4.06989e-06 0)
(-0.000257596 5.05393e-06 0)
(-0.000257722 5.99753e-06 0)
(-0.00025784 6.85681e-06 0)
(-0.000257946 7.60865e-06 0)
(-0.000258039 8.24728e-06 0)
(-0.000258118 8.77855e-06 0)
(-0.000258185 9.2149e-06 0)
(-0.000258243 9.57159e-06 0)
(-0.000258291 9.86327e-06 0)
(-0.000258336 1.01034e-05 0)
(-0.000258374 1.03028e-05 0)
(-0.000258409 1.04703e-05 0)
(-0.000258441 1.06129e-05 0)
(-0.000258472 1.0736e-05 0)
(-0.000258503 1.08436e-05 0)
(-0.00025853 1.09389e-05 0)
(-0.000258559 1.10242e-05 0)
(-0.000258588 1.11014e-05 0)
(-0.000258615 1.11719e-05 0)
(-0.000258646 1.12369e-05 0)
(-0.000258676 1.12972e-05 0)
(-0.000258707 1.13537e-05 0)
(-0.00025874 1.1407e-05 0)
(-0.000258772 1.14576e-05 0)
(-0.000258808 1.1506e-05 0)
(-0.000258847 1.15526e-05 0)
(-0.000258885 1.15978e-05 0)
(-0.000258927 1.16421e-05 0)
(-0.000258971 1.16855e-05 0)
(-0.000259017 1.17286e-05 0)
(-0.000259065 1.17714e-05 0)
(-0.000259118 1.18145e-05 0)
(-0.000259172 1.18581e-05 0)
(-0.000259231 1.19024e-05 0)
(-0.000259292 1.19479e-05 0)
(-0.000259355 1.19947e-05 0)
(-0.000259422 1.20432e-05 0)
(-0.000259491 1.20935e-05 0)
(-0.000259563 1.21461e-05 0)
(-0.000259635 1.2201e-05 0)
(-0.00025971 1.22587e-05 0)
(-0.000259787 1.23197e-05 0)
(-0.000259868 1.23846e-05 0)
(-0.000259952 1.24548e-05 0)
(-0.00026004 1.25318e-05 0)
(-0.000260133 1.26176e-05 0)
(-0.000260234 1.2715e-05 0)
(-0.000260341 1.2827e-05 0)
(-0.000260453 1.29571e-05 0)
(-0.000260574 1.31085e-05 0)
(-0.000260701 1.32838e-05 0)
(-0.000260835 1.34845e-05 0)
(-0.000260974 1.371e-05 0)
(-0.000261117 1.3958e-05 0)
(-0.000261264 1.42244e-05 0)
(-0.000261414 1.45048e-05 0)
(-0.000261568 1.47948e-05 0)
(-0.000261724 1.50911e-05 0)
(-0.000261885 1.53922e-05 0)
(-0.000262049 1.56976e-05 0)
(-0.000262217 1.60081e-05 0)
(-0.000262388 1.63248e-05 0)
(-0.000262564 1.66491e-05 0)
(-0.000262743 1.69818e-05 0)
(-0.000262925 1.73234e-05 0)
(-0.00026311 1.76736e-05 0)
(-0.000263298 1.80317e-05 0)
(-0.00026349 1.83966e-05 0)
(-0.000263684 1.87671e-05 0)
(-0.000263881 1.91421e-05 0)
(-0.00026408 1.95205e-05 0)
(-0.000264283 1.99015e-05 0)
(-0.000264488 2.02844e-05 0)
(-0.000264696 2.06684e-05 0)
(-0.000264907 2.1053e-05 0)
(-0.00026512 2.14375e-05 0)
(-0.000265335 2.18213e-05 0)
(-0.000265554 2.22039e-05 0)
(-0.000265774 2.25848e-05 0)
(-0.000265998 2.29637e-05 0)
(-0.000266225 2.33401e-05 0)
(-0.000266454 2.37139e-05 0)
(-0.000266687 2.40847e-05 0)
(-0.000266922 2.44524e-05 0)
(-0.000267161 2.48168e-05 0)
(-0.000267404 2.51778e-05 0)
(-0.00026765 2.55352e-05 0)
(-0.0002679 2.5889e-05 0)
(-0.000268154 2.62391e-05 0)
(-0.000268412 2.65854e-05 0)
(-0.000268675 2.69278e-05 0)
(-0.000268942 2.72661e-05 0)
(-0.000269215 2.76002e-05 0)
(-0.000269493 2.79301e-05 0)
(-0.000269777 2.82554e-05 0)
(-0.000270068 2.85759e-05 0)
(-0.000270364 2.88912e-05 0)
(-0.000270668 2.9201e-05 0)
(-0.000270979 2.95048e-05 0)
(-0.000271299 2.98019e-05 0)
(-0.000271626 3.00919e-05 0)
(-0.000271964 3.03741e-05 0)
(-0.000272311 3.06481e-05 0)
(-0.00027267 3.09137e-05 0)
(-0.000273042 3.11705e-05 0)
(-0.000273427 3.14182e-05 0)
(-0.000273826 3.16565e-05 0)
(-0.000274239 3.18848e-05 0)
(-0.000274667 3.21033e-05 0)
(-0.000275114 3.23132e-05 0)
(-0.000275586 3.25172e-05 0)
(-0.000276079 3.27188e-05 0)
(-0.000276585 3.29212e-05 0)
(-0.000277112 3.31291e-05 0)
(-0.000277684 3.33499e-05 0)
(-0.000278328 3.35913e-05 0)
(-0.000279003 3.38464e-05 0)
(-0.000279608 3.40683e-05 0)
(-0.000280359 3.42236e-05 0)
(-0.000281406 3.42909e-05 0)
(-0.00028275 3.42552e-05 0)
(-0.000284588 3.29855e-05 0)
(-0.000211373 3.28219e-05 0)
(0.0198011 0.000314623 0)
(0.0755281 0.000689278 0)
(0.121275 0.000628591 0)
(0.160186 0.000601176 0)
(0.194763 0.000543067 0)
(0.226303 0.000474325 0)
(0.255583 0.000402707 0)
(0.283109 0.000334011 0)
(0.309235 0.00027148 0)
(0.334213 0.000216363 0)
(0.358233 0.000168695 0)
(0.381442 0.00012788 0)
(0.403954 9.30751e-05 0)
(0.425863 6.34553e-05 0)
(0.447241 3.82834e-05 0)
(0.468152 1.69438e-05 0)
(0.488643 -1.06256e-06 0)
(0.508758 -1.61473e-05 0)
(0.52853 -2.86678e-05 0)
(0.547988 -3.89499e-05 0)
(0.567156 -4.7293e-05 0)
(0.586051 -5.39619e-05 0)
(0.60469 -5.91548e-05 0)
(0.623085 -6.29756e-05 0)
(0.641243 -6.54327e-05 0)
(0.659169 -6.64814e-05 0)
(0.676867 -6.60873e-05 0)
(0.694334 -6.42825e-05 0)
(0.711568 -6.11768e-05 0)
(0.728558 -5.68839e-05 0)
(0.74529 -5.13705e-05 0)
(0.761744 -4.44043e-05 0)
(0.777883 -3.58665e-05 0)
(0.793653 -2.63401e-05 0)
(0.80897 -1.72532e-05 0)
(0.823707 -1.01141e-05 0)
(0.837676 -5.52674e-06 0)
(0.850567 -3.07114e-06 0)
(0.861716 -1.86666e-06 0)
(0.867165 -1.26416e-06 0)
(0.868691 -9.55356e-07 0)
(0.869692 -7.3391e-07 0)
(0.870593 -5.9744e-07 0)
(0.871419 -4.81213e-07 0)
(0.872175 -4.11148e-07 0)
(0.872869 -3.39035e-07 0)
(0.873506 -2.97113e-07 0)
(0.874093 -2.47156e-07 0)
(0.874632 -2.21463e-07 0)
(0.875128 -1.85484e-07 0)
(0.875584 -1.68871e-07 0)
(0.876004 -1.40865e-07 0)
(0.876391 -1.30219e-07 0)
(0.876748 -1.08574e-07 0)
(0.877079 -1.03245e-07 0)
(0.877391 -8.30468e-08 0)
(0.877682 -8.13041e-08 0)
(0.877954 -6.17198e-08 0)
(0.878209 -6.63825e-08 0)
(0.878447 -4.60333e-08 0)
(0.878667 -5.36297e-08 0)
(0.878872 -3.14023e-08 0)
(0.879062 -4.52294e-08 0)
(0.879239 -2.06724e-08 0)
(0.879401 -3.83312e-08 0)
(0.879551 -1.11239e-08 0)
(0.879689 -3.41336e-08 0)
(0.879815 -3.13628e-09 0)
(0.879931 -3.09584e-08 0)
(0.880037 3.16707e-09 0)
(0.880134 -2.94249e-08 0)
(0.880222 9.15493e-09 0)
(0.880302 -2.85822e-08 0)
(0.880374 1.37876e-08 0)
(0.880439 -2.85289e-08 0)
(0.880498 1.80882e-08 0)
(0.880551 -2.90463e-08 0)
(0.880599 2.18711e-08 0)
(0.880642 -2.99591e-08 0)
(0.88068 2.5113e-08 0)
(0.880713 -3.1115e-08 0)
(0.880743 2.8088e-08 0)
(0.88077 -3.25671e-08 0)
(0.880793 3.07829e-08 0)
(0.880814 -3.4113e-08 0)
(0.880832 3.32172e-08 0)
(0.880848 -3.5759e-08 0)
(0.880862 3.54921e-08 0)
(0.880874 -3.74587e-08 0)
(0.880884 3.76176e-08 0)
(0.880893 -3.91909e-08 0)
(0.880901 3.96324e-08 0)
(0.880907 -4.09321e-08 0)
(0.880913 4.15138e-08 0)
(0.880918 -4.29423e-08 0)
(0.880922 4.44248e-08 0)
(0.880925 -4.52776e-08 0)
(0.880928 4.612e-08 0)
(0.880931 -4.69776e-08 0)
(0.880933 4.78208e-08 0)
(0.880935 -4.86771e-08 0)
(0.880936 4.95181e-08 0)
(0.880937 -5.03712e-08 0)
(0.880938 5.12087e-08 0)
(0.880939 -5.20578e-08 0)
(0.880939 5.28917e-08 0)
(0.88094 -5.37366e-08 0)
(0.88094 5.45667e-08 0)
(0.880941 -5.54073e-08 0)
(0.880941 5.6234e-08 0)
(0.880941 -5.70704e-08 0)
(0.880941 5.78939e-08 0)
(0.880941 -5.87265e-08 0)
(0.880942 5.95472e-08 0)
(0.880942 -6.03763e-08 0)
(0.880942 6.11945e-08 0)
(0.880942 -6.20206e-08 0)
(0.880942 6.28368e-08 0)
(0.880942 -6.36603e-08 0)
(0.880942 6.44748e-08 0)
(0.880942 -6.52963e-08 0)
(0.880942 6.61096e-08 0)
(0.880942 -6.69132e-08 0)
(0.880942 6.76929e-08 0)
(0.880942 -6.84635e-08 0)
(0.880942 6.92113e-08 0)
(0.880942 -6.99508e-08 0)
(0.880942 7.0669e-08 0)
(0.880942 -7.13797e-08 0)
(0.880942 7.2071e-08 0)
(0.880942 -7.27558e-08 0)
(0.880942 7.3423e-08 0)
(0.880942 -7.40848e-08 0)
(0.880942 7.47311e-08 0)
(0.880942 -7.53733e-08 0)
(0.880942 7.60019e-08 0)
(0.880942 -7.66278e-08 0)
(0.880942 7.72423e-08 0)
(0.880942 -7.78555e-08 0)
(0.880942 7.84596e-08 0)
(0.880942 -7.90637e-08 0)
(0.880942 7.96614e-08 0)
(0.880942 -8.02603e-08 0)
(0.880942 8.08554e-08 0)
(0.880942 -8.14531e-08 0)
(0.880942 8.20497e-08 0)
(0.880942 -8.26503e-08 0)
(0.880942 8.32526e-08 0)
(0.880942 -8.38604e-08 0)
(0.880942 8.44725e-08 0)
(0.880942 -8.50919e-08 0)
(0.880942 8.5718e-08 0)
(0.880942 -8.63535e-08 0)
(0.880942 8.69981e-08 0)
(0.880942 -8.76541e-08 0)
(0.880942 8.83216e-08 0)
(0.880942 -8.90027e-08 0)
(0.880942 8.96977e-08 0)
(0.880942 -9.04086e-08 0)
(0.880942 9.11358e-08 0)
(0.880942 -9.18812e-08 0)
(0.880942 9.26452e-08 0)
(0.880942 -9.34299e-08 0)
(0.880942 8.26069e-08 0)
(0.880942 -8.15358e-08 0)
(0.880942 8.04734e-08 0)
(0.880942 -7.94214e-08 0)
(0.880942 7.838e-08 0)
(0.880942 -7.73507e-08 0)
(0.880942 7.63338e-08 0)
(0.880942 -7.53305e-08 0)
(0.880942 7.43413e-08 0)
(0.880942 -7.33672e-08 0)
(0.880942 7.24086e-08 0)
(0.880942 -7.14666e-08 0)
(0.880942 7.05414e-08 0)
(0.880942 -6.96341e-08 0)
(0.880942 6.87448e-08 0)
(0.880942 -6.78746e-08 0)
(0.880942 6.70236e-08 0)
(0.880942 -6.61927e-08 0)
(0.880942 6.53822e-08 0)
(0.880942 -6.45928e-08 0)
(0.880942 6.38246e-08 0)
(0.880942 -6.30788e-08 0)
(0.880942 6.23546e-08 0)
(0.880942 -6.1654e-08 0)
(0.880942 6.09757e-08 0)
(0.880942 -6.0322e-08 0)
(0.880942 5.9691e-08 0)
(0.880942 -5.90856e-08 0)
(0.880942 5.85034e-08 0)
(0.880942 -5.79475e-08 0)
(0.880942 5.74154e-08 0)
(0.880942 -5.69102e-08 0)
(0.880942 5.64192e-08 0)
(0.880942 -5.5943e-08 0)
(0.880942 5.54794e-08 0)
(0.880942 -5.50313e-08 0)
(0.880942 5.4597e-08 0)
(0.880942 -5.4179e-08 0)
(0.880942 5.37765e-08 0)
(0.880942 -5.33914e-08 0)
(0.880942 5.30237e-08 0)
(0.880942 -5.26745e-08 0)
(0.880942 5.23454e-08 0)
(0.880942 -5.20363e-08 0)
(0.880942 5.17513e-08 0)
(0.880942 -5.1489e-08 0)
(0.880942 5.12557e-08 0)
(0.880942 -5.10516e-08 0)
(0.880942 5.08855e-08 0)
(0.880942 -5.07687e-08 0)
)
;

boundaryField
{
    inandouthalf11
    {
        type            cyclic;
    }
    inandouthalf12
    {
        type            cyclic;
    }
    inandouthalf21
    {
        type            cyclic;
    }
    inandouthalf22
    {
        type            cyclic;
    }
    inandouthalf31
    {
        type            cyclic;
    }
    inandouthalf32
    {
        type            cyclic;
    }
    inandouthalf41
    {
        type            cyclic;
    }
    inandouthalf42
    {
        type            cyclic;
    }
    top
    {
        type            symmetryPlane;
    }
    walls
    {
        type            fixedValue;
        value           uniform (0 0 0);
    }
    frontAndBackPlanes
    {
        type            empty;
    }
}


// ************************************************************************* //
