/*--------------------------------*- C++ -*----------------------------------*\
| =========                 |                                                 |
| \\      /  F ield         | OpenFOAM: The Open Source CFD Toolbox           |
|  \\    /   O peration     | Version:  2.4.x                                 |
|   \\  /    A nd           | Web:      www.OpenFOAM.org                      |
|    \\/     M anipulation  |                                                 |
\*---------------------------------------------------------------------------*/
FoamFile
{
    version     2.0;
    format      ascii;
    class       volVectorField;
    location    "2.5";
    object      Ur;
}
// * * * * * * * * * * * * * * * * * * * * * * * * * * * * * * * * * * * * * //

dimensions      [0 1 -1 0 0 0 0];

internalField   nonuniform List<vector> 
360
(
(-0.000256533 -1.7493e-13 0)
(-0.00025697 -5.25819e-13 0)
(-0.000256973 -8.77841e-13 0)
(-0.000256973 -1.22972e-12 0)
(-0.000256973 -1.57166e-12 0)
(-0.000256975 -1.83398e-12 0)
(-0.000256975 -1.59513e-12 0)
(-0.000256977 1.30785e-12 0)
(-0.000256977 1.64937e-11 0)
(-0.000256979 8.18166e-11 0)
(-0.000256981 3.341e-10 0)
(-0.000256981 1.23251e-09 0)
(-0.000256983 4.16833e-09 0)
(-0.000256985 1.2878e-08 0)
(-0.000256987 3.62091e-08 0)
(-0.000256989 9.24993e-08 0)
(-0.00025699 2.14637e-07 0)
(-0.000256991 4.52901e-07 0)
(-0.000256991 8.71058e-07 0)
(-0.000256991 1.53296e-06 0)
(-0.000256988 2.4799e-06 0)
(-0.000256987 3.71008e-06 0)
(-0.000256985 5.17086e-06 0)
(-0.000256983 6.76781e-06 0)
(-0.000256981 8.39002e-06 0)
(-0.000256981 9.93753e-06 0)
(-0.000256981 1.13399e-05 0)
(-0.000256985 1.25619e-05 0)
(-0.000256988 1.35966e-05 0)
(-0.000256993 1.44553e-05 0)
(-0.000256997 1.51595e-05 0)
(-0.000257005 1.57346e-05 0)
(-0.00025701 1.6205e-05 0)
(-0.000257019 1.65923e-05 0)
(-0.000257027 1.69142e-05 0)
(-0.000257036 1.7185e-05 0)
(-0.000257046 1.74157e-05 0)
(-0.000257057 1.76151e-05 0)
(-0.000257071 1.77898e-05 0)
(-0.000257083 1.79446e-05 0)
(-0.000257098 1.80834e-05 0)
(-0.000257114 1.82091e-05 0)
(-0.00025713 1.8324e-05 0)
(-0.000257149 1.84301e-05 0)
(-0.000257169 1.85287e-05 0)
(-0.00025719 1.86212e-05 0)
(-0.000257214 1.87084e-05 0)
(-0.000257237 1.87913e-05 0)
(-0.000257264 1.88706e-05 0)
(-0.000257294 1.89472e-05 0)
(-0.000257325 1.90216e-05 0)
(-0.000257358 1.90943e-05 0)
(-0.000257394 1.91659e-05 0)
(-0.000257433 1.92369e-05 0)
(-0.000257473 1.93076e-05 0)
(-0.000257518 1.93787e-05 0)
(-0.000257563 1.94507e-05 0)
(-0.000257613 1.9524e-05 0)
(-0.000257665 1.95992e-05 0)
(-0.000257719 1.96767e-05 0)
(-0.000257778 1.9757e-05 0)
(-0.000257836 1.98405e-05 0)
(-0.000257898 1.99275e-05 0)
(-0.00025796 2.00185e-05 0)
(-0.000258024 2.01141e-05 0)
(-0.000258089 2.02149e-05 0)
(-0.000258157 2.03224e-05 0)
(-0.000258227 2.04384e-05 0)
(-0.000258301 2.05656e-05 0)
(-0.000258377 2.07072e-05 0)
(-0.000258459 2.08679e-05 0)
(-0.000258545 2.10526e-05 0)
(-0.000258632 2.1267e-05 0)
(-0.000258725 2.15165e-05 0)
(-0.000258818 2.18056e-05 0)
(-0.000258914 2.21367e-05 0)
(-0.00025901 2.2509e-05 0)
(-0.000259107 2.29183e-05 0)
(-0.000259204 2.33582e-05 0)
(-0.000259303 2.38209e-05 0)
(-0.000259403 2.42992e-05 0)
(-0.000259505 2.47879e-05 0)
(-0.000259611 2.52842e-05 0)
(-0.00025972 2.57876e-05 0)
(-0.000259832 2.62994e-05 0)
(-0.000259947 2.68217e-05 0)
(-0.000260065 2.73565e-05 0)
(-0.000260185 2.79054e-05 0)
(-0.000260307 2.84692e-05 0)
(-0.000260432 2.90473e-05 0)
(-0.000260559 2.96386e-05 0)
(-0.000260688 3.02413e-05 0)
(-0.00026082 3.08533e-05 0)
(-0.000260954 3.14729e-05 0)
(-0.000261091 3.20983e-05 0)
(-0.000261232 3.27282e-05 0)
(-0.000261375 3.33612e-05 0)
(-0.000261522 3.39965e-05 0)
(-0.000261671 3.46328e-05 0)
(-0.000261825 3.52691e-05 0)
(-0.000261981 3.59046e-05 0)
(-0.000262142 3.65384e-05 0)
(-0.000262306 3.71697e-05 0)
(-0.000262474 3.77978e-05 0)
(-0.000262646 3.84222e-05 0)
(-0.000262822 3.90424e-05 0)
(-0.000263003 3.96581e-05 0)
(-0.000263189 4.0269e-05 0)
(-0.000263379 4.08748e-05 0)
(-0.000263574 4.14752e-05 0)
(-0.000263775 4.20702e-05 0)
(-0.000263981 4.26595e-05 0)
(-0.000264192 4.3243e-05 0)
(-0.00026441 4.38206e-05 0)
(-0.000264634 4.43922e-05 0)
(-0.000264865 4.49576e-05 0)
(-0.000265102 4.55165e-05 0)
(-0.000265347 4.60687e-05 0)
(-0.0002656 4.66139e-05 0)
(-0.000265861 4.71517e-05 0)
(-0.000266131 4.76815e-05 0)
(-0.000266409 4.82027e-05 0)
(-0.000266698 4.87145e-05 0)
(-0.000266997 4.9216e-05 0)
(-0.000267307 4.97062e-05 0)
(-0.00026763 5.01843e-05 0)
(-0.000267965 5.06495e-05 0)
(-0.000268314 5.11014e-05 0)
(-0.000268679 5.15397e-05 0)
(-0.00026906 5.19639e-05 0)
(-0.000269458 5.23733e-05 0)
(-0.000269872 5.27672e-05 0)
(-0.000270305 5.31455e-05 0)
(-0.000270761 5.35105e-05 0)
(-0.000271244 5.38669e-05 0)
(-0.000271752 5.42201e-05 0)
(-0.000272279 5.45759e-05 0)
(-0.000272832 5.4942e-05 0)
(-0.000273439 5.53321e-05 0)
(-0.00027413 5.57606e-05 0)
(-0.000274864 5.62168e-05 0)
(-0.000275536 5.66256e-05 0)
(-0.000276348 5.69244e-05 0)
(-0.00027744 5.7081e-05 0)
(-0.000278804 5.70785e-05 0)
(-0.000280643 5.5818e-05 0)
(-0.00020798 5.53967e-05 0)
(0.00247967 0.000690023 0)
(0.00396933 0.00237847 0)
(0.00293945 0.00290402 0)
(0.00205938 0.0033946 0)
(0.00115562 0.0036566 0)
(0.000321443 0.00378146 0)
(-0.000437186 0.00376548 0)
(-0.00112845 0.00363494 0)
(-0.00175838 0.00341789 0)
(-0.00232958 0.00313613 0)
(-0.00284245 0.00280442 0)
(-0.00329583 0.0024311 0)
(-0.00368714 0.00201963 0)
(-0.00401246 0.00157104 0)
(-0.00426561 0.00108465 0)
(-0.00443764 0.000559041 0)
(-0.00451623 -7.55709e-06 0)
(-0.00448513 -0.000617346 0)
(-0.00432332 -0.00127383 0)
(-0.0040046 -0.00198283 0)
(-0.00349761 -0.00275322 0)
(-0.00276627 -0.00359679 0)
(-0.00177049 -0.00452603 0)
(-0.00046617 -0.00555026 0)
(0.0011963 -0.00667205 0)
(0.00327522 -0.00788626 0)
(0.00584075 -0.00918213 0)
(0.00897687 -0.0105475 0)
(0.0127816 -0.0119736 0)
(0.0173649 -0.0134539 0)
(0.0228424 -0.0149675 0)
(0.0293195 -0.0164418 0)
(0.0368575 -0.0177278 0)
(0.0454185 -0.0186437 0)
(0.054813 -0.0190951 0)
(0.0646954 -0.0191471 0)
(0.074612 -0.0189628 0)
(0.0840136 -0.0186884 0)
(0.0920897 -0.0184068 0)
(0.0947936 -0.0181488 0)
(0.093721 -0.0179185 0)
(0.092273 -0.0177129 0)
(0.0908671 -0.0175283 0)
(0.0895091 -0.0173614 0)
(0.0881937 -0.0172095 0)
(0.0869176 -0.0170705 0)
(0.0856764 -0.0169423 0)
(0.0844676 -0.0168231 0)
(0.0832896 -0.0167115 0)
(0.0821436 -0.0166066 0)
(0.0810286 -0.0165074 0)
(0.079943 -0.0164128 0)
(0.0788866 -0.0163218 0)
(0.0778625 -0.016234 0)
(0.076866 -0.0161482 0)
(0.0758845 -0.0160632 0)
(0.0749086 -0.0159782 0)
(0.0739362 -0.0158923 0)
(0.0729785 -0.0158066 0)
(0.0720395 -0.0157214 0)
(0.0711024 -0.0156351 0)
(0.0701597 -0.0155464 0)
(0.0692276 -0.0154569 0)
(0.0683089 -0.0153667 0)
(0.0673876 -0.0152741 0)
(0.066466 -0.0151788 0)
(0.0655539 -0.015082 0)
(0.0646414 -0.0149823 0)
(0.0637242 -0.0148788 0)
(0.0628185 -0.0147731 0)
(0.0619228 -0.0146654 0)
(0.0610163 -0.0145522 0)
(0.0601085 -0.0144344 0)
(0.0592151 -0.0143141 0)
(0.0583239 -0.0141895 0)
(0.0574323 -0.0140591 0)
(0.0565448 -0.013924 0)
(0.0556534 -0.0137819 0)
(0.0547654 -0.0136336 0)
(0.0538884 -0.0134802 0)
(0.0530066 -0.013318 0)
(0.052125 -0.0131467 0)
(0.0512562 -0.0129691 0)
(0.0503877 -0.0127809 0)
(0.0495248 -0.0125821 0)
(0.0486764 -0.0123741 0)
(0.0478408 -0.0121548 0)
(0.0470203 -0.0119231 0)
(0.0462191 -0.0116781 0)
(0.0454482 -0.0114207 0)
(0.0447122 -0.0111498 0)
(0.0440185 -0.0108624 0)
(0.0433877 -0.0105628 0)
(0.0428413 -0.0102543 0)
(0.0422918 -0.00993067 0)
(-0.00482706 0.0394826 0)
(-0.00482723 0.0394824 0)
(-0.00482708 0.0394825 0)
(-0.00482699 0.0394824 0)
(-0.0048269 0.0394825 0)
(-0.00482683 0.0394825 0)
(-0.00482677 0.0394825 0)
(-0.00482673 0.0394825 0)
(-0.00482669 0.0394825 0)
(-0.00482666 0.0394825 0)
(-0.00482663 0.0394825 0)
(-0.00482661 0.0394825 0)
(-0.00482659 0.0394825 0)
(-0.00482658 0.0394825 0)
(-0.00482657 0.0394825 0)
(-0.00482656 0.0394825 0)
(-0.00482655 0.0394825 0)
(-0.00482655 0.0394825 0)
(-0.00482655 0.0394825 0)
(-0.00482655 0.0394825 0)
(-0.00482654 0.0394825 0)
(-0.00482654 0.0394824 0)
(-0.00482654 0.0394825 0)
(-0.00482654 0.0394824 0)
(-0.00482653 0.0394826 0)
(-0.00482654 0.0394824 0)
(-0.00482653 0.0394826 0)
(-0.00482654 0.0394824 0)
(-0.00482653 0.0394826 0)
(-0.00482654 0.0394824 0)
(-0.00482653 0.0394826 0)
(-0.00482654 0.0394824 0)
(-0.00482653 0.0394826 0)
(-0.00482654 0.0394824 0)
(-0.00482653 0.0394826 0)
(-0.00482654 0.0394824 0)
(-0.00482653 0.0394826 0)
(-0.00482654 0.0394824 0)
(-0.00482653 0.0394826 0)
(-0.00482654 0.0394824 0)
(-0.00482653 0.0394826 0)
(-0.00482654 0.0394824 0)
(-0.00482653 0.0394826 0)
(-0.00482654 0.0394824 0)
(-0.00482653 0.0394826 0)
(-0.00482654 0.0394824 0)
(-0.00482653 0.0394826 0)
(-0.00482654 0.0394824 0)
(-0.00482653 0.0394826 0)
(-0.00482654 0.0394824 0)
(-0.00482653 0.0394826 0)
(-0.00482654 0.0394824 0)
(-0.00482653 0.0394826 0)
(-0.00482654 0.0394824 0)
(-0.00482653 0.0394826 0)
(-0.00482654 0.0394824 0)
(-0.00482653 0.0394826 0)
(-0.00482654 0.0394824 0)
(-0.00482653 0.0394826 0)
(-0.00482654 0.0394824 0)
(-0.00482653 0.0394826 0)
(-0.00482654 0.0394824 0)
(-0.00482653 0.0394826 0)
(-0.00482654 0.0394824 0)
(-0.00482653 0.0394826 0)
(-0.00482654 0.0394824 0)
(-0.00482653 0.0394826 0)
(-0.00482654 0.0394824 0)
(-0.00482653 0.0394826 0)
(-0.00482654 0.0394824 0)
(-0.00482653 0.0394826 0)
(-0.00482654 0.0394824 0)
(-0.00482653 0.0394826 0)
(-0.00482654 0.0394824 0)
(-0.00482653 0.0394826 0)
(-0.00482654 0.0394824 0)
(-0.00482653 0.0394826 0)
(-0.00482654 0.0394824 0)
(-0.00482653 0.0394826 0)
(-0.00482654 0.0394824 0)
(-0.00482653 0.0394826 0)
(-0.00482654 0.0394824 0)
(-0.00482653 0.0394826 0)
(-0.00482654 0.0394824 0)
(-0.00482653 0.0394826 0)
(-0.00482654 0.0394824 0)
(-0.00482653 0.0394825 0)
(-0.00482654 0.0394824 0)
(-0.00482653 0.0394825 0)
(-0.00482654 0.0394824 0)
(-0.00482653 0.0394825 0)
(-0.00482654 0.0394824 0)
(-0.00482653 0.0394825 0)
(-0.00482654 0.0394825 0)
(-0.00482653 0.0394825 0)
(-0.00482654 0.0394825 0)
(-0.00482653 0.0394825 0)
(-0.00482654 0.0394825 0)
(-0.00482653 0.0394825 0)
(-0.00482654 0.0394825 0)
(-0.00482653 0.0394825 0)
(-0.00482654 0.0394825 0)
(-0.00482653 0.0394825 0)
(-0.00482654 0.0394825 0)
(-0.00482653 0.0394825 0)
(-0.00482654 0.0394825 0)
(-0.00482653 0.0394825 0)
(-0.00482654 0.0394825 0)
(-0.00482653 0.0394825 0)
(-0.00482654 0.0394825 0)
(-0.00482653 0.0394825 0)
(-0.00482654 0.0394825 0)
(-0.00482653 0.0394825 0)
(-0.00482654 0.0394825 0)
(-0.00482658 0.0394823 0)
(-0.00482792 0.0394737 0)
(-0.00486049 0.0391277 0)
(-0.0056157 0.0223684 0)
)
;

boundaryField
{
    inandouthalf11
    {
        type            cyclic;
    }
    inandouthalf12
    {
        type            cyclic;
    }
    inandouthalf21
    {
        type            cyclic;
    }
    inandouthalf22
    {
        type            cyclic;
    }
    inandouthalf31
    {
        type            cyclic;
    }
    inandouthalf32
    {
        type            cyclic;
    }
    inandouthalf41
    {
        type            cyclic;
    }
    inandouthalf42
    {
        type            cyclic;
    }
    top
    {
        type            symmetryPlane;
    }
    walls
    {
        type            calculated;
        value           uniform (0 0 0);
    }
    frontAndBackPlanes
    {
        type            empty;
    }
}


// ************************************************************************* //
