/*--------------------------------*- C++ -*----------------------------------*\
| =========                 |                                                 |
| \\      /  F ield         | OpenFOAM: The Open Source CFD Toolbox           |
|  \\    /   O peration     | Version:  2.4.x                                 |
|   \\  /    A nd           | Web:      www.OpenFOAM.org                      |
|    \\/     M anipulation  |                                                 |
\*---------------------------------------------------------------------------*/
FoamFile
{
    version     2.0;
    format      ascii;
    class       volScalarField;
    location    "2.45";
    object      ddt0(((1.5*(alpha+1e-08))*rho),Theta);
}
// * * * * * * * * * * * * * * * * * * * * * * * * * * * * * * * * * * * * * //

dimensions      [1 -1 -3 0 0 0 0];

internalField   nonuniform List<scalar> 
360
(
4.30856e-24
4.31595e-24
4.31597e-24
4.31599e-24
4.316e-24
4.31609e-24
4.31604e-24
4.3161e-24
4.31613e-24
4.31618e-24
4.31626e-24
4.31629e-24
4.3163e-24
4.3164e-24
4.31643e-24
4.31655e-24
4.31662e-24
4.31688e-24
4.31769e-24
4.32123e-24
4.33664e-24
4.40385e-24
4.69744e-24
6.08771e-24
1.45486e-23
8.30634e-23
6.83135e-22
5.41427e-21
3.62697e-20
1.96953e-19
8.53557e-19
2.927e-18
7.90103e-18
1.67128e-17
2.74803e-17
3.45756e-17
3.18963e-17
1.83552e-17
-4.0522e-19
-1.63499e-17
-2.47889e-17
-2.5896e-17
-2.24988e-17
-1.75114e-17
-1.27107e-17
-8.83281e-18
-5.98928e-18
-4.02139e-18
-2.70803e-18
-1.84136e-18
-1.26646e-18
-8.83151e-19
-6.25723e-19
-4.5079e-19
-3.30429e-19
-2.46379e-19
-1.86525e-19
-1.43048e-19
-1.10761e-19
-8.63087e-20
-6.74763e-20
-5.26627e-20
-4.08321e-20
-3.13094e-20
-2.36261e-20
-1.74195e-20
-1.23414e-20
-8.03743e-21
-4.17863e-21
-5.19322e-22
3.00204e-21
6.00621e-21
7.23751e-21
4.09125e-21
-7.50545e-21
-3.20306e-20
-7.17161e-20
-1.23761e-19
-1.80042e-19
-2.30348e-19
-2.67275e-19
-2.89091e-19
-2.98803e-19
-3.01434e-19
-3.01819e-19
-3.03458e-19
-3.08284e-19
-3.16864e-19
-3.28813e-19
-3.43165e-19
-3.58693e-19
-3.74295e-19
-3.89244e-19
-4.03163e-19
-4.15894e-19
-4.27363e-19
-4.37442e-19
-4.45912e-19
-4.52514e-19
-4.569e-19
0
0
0
0
0
0
0
0
0
0
0
0
0
0
0
-3.48022e-19
-3.39512e-19
-3.31701e-19
-3.24679e-19
-3.18466e-19
-3.12974e-19
-3.07972e-19
-3.0306e-19
-2.97682e-19
-2.91161e-19
-2.8274e-19
-2.71602e-19
-2.56863e-19
-2.37651e-19
-2.13462e-19
-1.849e-19
-1.54361e-19
-1.23054e-19
2.72662e-16
7.20247e-15
1.30271e-13
2.24364e-12
3.69517e-11
5.78624e-10
8.53025e-09
1.15969e-07
1.37966e-06
1.1923e-05
-7.71216e-05
-0.0124255
-0.29814
-2.43885
-5.9377
-8.46449
-10.0811
-10.6228
-10.3617
-9.65283
-8.69795
-7.48781
-5.98713
-5.0311
-4.80277
-4.66922
-4.41068
-3.99272
-3.49708
-2.97678
-2.47068
-1.98614
-1.55223
-1.16074
-0.825789
-0.542381
-0.313745
-0.136325
-0.00856833
0.073658
0.115574
0.124344
0.108513
0.0783443
0.0455479
0.0205872
0.00697876
0.00160501
2.54768e-05
-0.000311692
-0.000309472
-0.00025354
-0.000204034
-0.000164857
-0.000134284
-0.000109494
-9.00643e-05
-7.42322e-05
-6.16321e-05
-5.10155e-05
-4.26158e-05
-3.57313e-05
-3.01631e-05
-2.54644e-05
-2.14953e-05
-1.83221e-05
-1.57137e-05
-1.35819e-05
-1.16376e-05
-9.89793e-06
-8.51526e-06
-7.45909e-06
-6.47314e-06
-5.46906e-06
-4.64643e-06
-4.08665e-06
-3.54275e-06
-2.9802e-06
-2.55421e-06
-2.22252e-06
-1.882e-06
-1.58854e-06
-1.38025e-06
-1.18263e-06
-9.75885e-07
-8.23434e-07
-7.15455e-07
-5.96137e-07
-4.93765e-07
-4.17562e-07
-3.44345e-07
-2.8492e-07
-2.40593e-07
-1.95598e-07
-1.5841e-07
-1.32923e-07
-1.07255e-07
-8.57492e-08
-7.07365e-08
-5.60802e-08
-4.47857e-08
-3.50662e-08
-2.75112e-08
-2.118e-08
-1.58232e-08
-1.16182e-08
-8.32932e-09
-5.34357e-09
0
0
0
0
0
0
0
0
0
0
0
0
0
0
0
0
0
0
0
0
0
0
0
0
0
0
0
0
0
0
0
0
0
0
0
0
0
0
0
0
0
0
0
0
0
0
0
0
0
0
0
0
0
0
0
0
0
0
0
0
0
0
0
0
0
0
0
0
0
0
0
0
0
0
0
0
0
0
0
0
0
0
0
0
0
0
0
0
0
0
0
0
0
0
0
0
0
0
0
0
0
0
0
0
0
0
0
0
0
0
0
0
0
0
0
0
0
0
0
)
;

boundaryField
{
    inandouthalf11
    {
        type            cyclic;
    }
    inandouthalf12
    {
        type            cyclic;
    }
    inandouthalf21
    {
        type            cyclic;
    }
    inandouthalf22
    {
        type            cyclic;
    }
    inandouthalf31
    {
        type            cyclic;
    }
    inandouthalf32
    {
        type            cyclic;
    }
    inandouthalf41
    {
        type            cyclic;
    }
    inandouthalf42
    {
        type            cyclic;
    }
    top
    {
        type            symmetryPlane;
    }
    walls
    {
        type            calculated;
        value           uniform 4.30856e-24;
    }
    frontAndBackPlanes
    {
        type            empty;
    }
}


// ************************************************************************* //
