/*--------------------------------*- C++ -*----------------------------------*\
| =========                 |                                                 |
| \\      /  F ield         | OpenFOAM: The Open Source CFD Toolbox           |
|  \\    /   O peration     | Version:  2.4.x                                 |
|   \\  /    A nd           | Web:      www.OpenFOAM.org                      |
|    \\/     M anipulation  |                                                 |
\*---------------------------------------------------------------------------*/
FoamFile
{
    version     2.0;
    format      ascii;
    class       volVectorField;
    location    "2.45";
    object      ddt0(Ua);
}
// * * * * * * * * * * * * * * * * * * * * * * * * * * * * * * * * * * * * * //

dimensions      [0 1 -2 0 0 0 0];

internalField   nonuniform List<vector> 
360
(
(-1.05383e-34 -9.1676e-34 0)
(-1.05381e-34 -9.16728e-34 0)
(-1.05391e-34 -9.1663e-34 0)
(-3.62096e-23 -2.44741e-22 0)
(-5.07679e-22 -3.40996e-21 0)
(-3.84014e-21 -2.56333e-20 0)
(-2.11987e-20 -1.4059e-19 0)
(-9.72807e-20 -6.40822e-19 0)
(-4.00363e-19 -2.61873e-18 0)
(-1.552e-18 -1.00766e-17 0)
(-5.86381e-18 -3.77885e-17 0)
(-2.20842e-17 -1.41188e-16 0)
(-8.42344e-17 -5.34058e-16 0)
(-3.2911e-16 -2.06924e-15 0)
(-1.32447e-15 -8.25649e-15 0)
(-5.49916e-15 -3.39809e-14 0)
(-2.35295e-14 -1.4409e-13 0)
(-1.03392e-13 -6.27321e-13 0)
(-4.64e-13 -2.78872e-12 0)
(-2.11048e-12 -1.25652e-11 0)
(-9.62375e-12 -5.67504e-11 0)
(-4.33997e-11 -2.53429e-10 0)
(-1.90872e-10 -1.10378e-09 0)
(-8.05584e-10 -4.61266e-09 0)
(-3.21195e-09 -1.82063e-08 0)
(-1.19307e-08 -6.69322e-08 0)
(-4.08149e-08 -2.26573e-07 0)
(-1.27448e-07 -7.0008e-07 0)
(-3.6058e-07 -1.96006e-06 0)
(-9.18563e-07 -4.94043e-06 0)
(-2.09867e-06 -1.11658e-05 0)
(-4.29304e-06 -2.25918e-05 0)
(-7.86164e-06 -4.09093e-05 0)
(-1.29079e-05 -6.64019e-05 0)
(-1.90624e-05 -9.69165e-05 0)
(-2.54455e-05 -0.000127809 0)
(-3.09189e-05 -0.000153382 0)
(-3.45064e-05 -0.000169033 0)
(-3.57373e-05 -0.000172861 0)
(-3.47359e-05 -0.000165918 0)
(-3.20586e-05 -0.000151249 0)
(-2.84151e-05 -0.000132443 0)
(-2.44442e-05 -0.000112593 0)
(-2.05984e-05 -9.37775e-05 0)
(-1.71357e-05 -7.71057e-05 0)
(-1.41638e-05 -6.29799e-05 0)
(-1.16921e-05 -5.13513e-05 0)
(-9.67709e-06 -4.19519e-05 0)
(-8.05225e-06 -3.44225e-05 0)
(-6.74784e-06 -2.84031e-05 0)
(-5.70253e-06 -2.35915e-05 0)
(-4.86491e-06 -1.9739e-05 0)
(-4.1927e-06 -1.66435e-05 0)
(-3.65202e-06 -1.41448e-05 0)
(-3.2161e-06 -1.21182e-05 0)
(-2.86392e-06 -1.04659e-05 0)
(-2.57923e-06 -9.11322e-06 0)
(-2.34954e-06 -8.00292e-06 0)
(-2.16518e-06 -7.09092e-06 0)
(-2.01868e-06 -6.3436e-06 0)
(-1.90408e-06 -5.73391e-06 0)
(-1.81663e-06 -5.24057e-06 0)
(-1.75246e-06 -4.84643e-06 0)
(-1.70834e-06 -4.53699e-06 0)
(-1.68146e-06 -4.29967e-06 0)
(-1.66945e-06 -4.12324e-06 0)
(-1.67034e-06 -3.99781e-06 0)
(-1.6827e-06 -3.91496e-06 0)
(-1.70556e-06 -3.86765e-06 0)
(-1.73837e-06 -3.84985e-06 0)
(-1.78084e-06 -3.85565e-06 0)
(-1.83264e-06 -3.87811e-06 0)
(-1.89287e-06 -3.90751e-06 0)
(-1.95961e-06 -3.92961e-06 0)
(-2.02955e-06 -3.92482e-06 0)
(-2.09799e-06 -3.8694e-06 0)
(-2.15961e-06 -3.73985e-06 0)
(-2.20988e-06 -3.51961e-06 0)
(-2.24654e-06 -3.20476e-06 0)
(-2.27022e-06 -2.80564e-06 0)
(-2.28402e-06 -2.34328e-06 0)
(-2.29228e-06 -1.84237e-06 0)
(-2.29925e-06 -1.32458e-06 0)
(-2.30827e-06 -8.05015e-07 0)
(-2.32142e-06 -2.91463e-07 0)
(-2.33967e-06 2.14389e-07 0)
(-2.36308e-06 7.14952e-07 0)
(-2.39115e-06 1.2147e-06 0)
(-2.42304e-06 1.7185e-06 0)
(-2.45783e-06 2.23061e-06 0)
(-2.49466e-06 2.75399e-06 0)
(-2.53282e-06 3.29026e-06 0)
(-2.57178e-06 3.83994e-06 0)
(-2.61118e-06 4.40289e-06 0)
(-2.65081e-06 4.97861e-06 0)
(-2.69055e-06 5.56643e-06 0)
(-2.73036e-06 6.16548e-06 0)
(-2.7703e-06 6.77469e-06 0)
(-2.81047e-06 7.39266e-06 0)
(-2.85104e-06 8.01769e-06 0)
(-2.89222e-06 8.64786e-06 0)
(-2.93426e-06 9.28111e-06 0)
(-2.97741e-06 9.91542e-06 0)
(-3.02192e-06 1.05489e-05 0)
(-3.06799e-06 1.11797e-05 0)
(-3.11584e-06 1.18065e-05 0)
(-3.16562e-06 1.24278e-05 0)
(-3.21748e-06 1.30426e-05 0)
(-3.27151e-06 1.365e-05 0)
(-3.32781e-06 1.42492e-05 0)
(-3.38644e-06 1.48399e-05 0)
(-3.44742e-06 1.54216e-05 0)
(-3.5108e-06 1.59943e-05 0)
(-3.57657e-06 1.6558e-05 0)
(-3.64473e-06 1.71129e-05 0)
(-3.71526e-06 1.76594e-05 0)
(-3.78814e-06 1.81981e-05 0)
(-3.86333e-06 1.87299e-05 0)
(-3.94079e-06 1.92561e-05 0)
(-4.02047e-06 1.97778e-05 0)
(-4.10235e-06 2.02966e-05 0)
(-4.18645e-06 2.08139e-05 0)
(-4.27281e-06 2.13307e-05 0)
(-4.36155e-06 2.18477e-05 0)
(-4.45285e-06 2.23643e-05 0)
(-4.54695e-06 2.2879e-05 0)
(-4.64416e-06 2.33885e-05 0)
(-4.74474e-06 2.38876e-05 0)
(-4.84877e-06 2.43691e-05 0)
(-4.95594e-06 2.48234e-05 0)
(-5.06539e-06 2.52398e-05 0)
(-5.17573e-06 2.56086e-05 0)
(-5.28556e-06 2.59247e-05 0)
(-5.39425e-06 2.61907e-05 0)
(-5.5027e-06 2.64177e-05 0)
(-5.61408e-06 2.6625e-05 0)
(-5.73526e-06 2.68416e-05 0)
(-5.88004e-06 2.71099e-05 0)
(-6.07458e-06 2.74941e-05 0)
(-6.36125e-06 2.80833e-05 0)
(-6.78127e-06 2.89375e-05 0)
(-7.31676e-06 2.99409e-05 0)
(-7.86909e-06 3.08509e-05 0)
(-8.30054e-06 3.14847e-05 0)
(-8.48944e-06 3.17379e-05 0)
(-8.49603e-06 3.17421e-05 0)
(-8.49909e-06 3.17404e-05 0)
(0.0114761 -0.0225145 0)
(0.0284434 -0.0375987 0)
(-0.0237146 -0.0504944 0)
(-0.107795 -0.0645377 0)
(-0.203834 -0.0768312 0)
(-0.300817 -0.0889186 0)
(-0.39427 -0.0981473 0)
(-0.482721 -0.0985149 0)
(-0.566884 -0.0864369 0)
(-0.64755 -0.0849485 0)
(-0.723452 -0.11049 0)
(-0.796713 -0.147536 0)
(-0.869477 -0.179245 0)
(-0.942093 -0.199643 0)
(-1.01406 -0.21062 0)
(-1.08484 -0.215032 0)
(-1.15393 -0.215163 0)
(-1.22091 -0.212538 0)
(-1.28528 -0.208239 0)
(-1.34648 -0.203058 0)
(-1.40376 -0.197536 0)
(-1.45617 -0.192045 0)
(-1.50255 -0.186801 0)
(-1.54143 -0.181919 0)
(-1.57102 -0.177498 0)
(-1.58923 -0.173813 0)
(-1.59366 -0.171297 0)
(-1.58179 -0.169546 0)
(-1.55155 -0.16528 0)
(-1.50288 -0.152113 0)
(-1.44011 -0.126132 0)
(-1.37294 -0.093268 0)
(-1.31256 -0.0659656 0)
(-1.26546 -0.0509817 0)
(-1.23161 -0.0464404 0)
(-1.2073 -0.0464186 0)
(-1.1906 -0.0471151 0)
(-1.17849 -0.0476887 0)
(-1.16869 -0.0481245 0)
(-1.16021 -0.048449 0)
(-1.15264 -0.0486669 0)
(-1.1458 -0.0487915 0)
(-1.13955 -0.0488443 0)
(-1.13379 -0.0488439 0)
(-1.12847 -0.0487981 0)
(-1.12357 -0.0487118 0)
(-1.11899 -0.0485984 0)
(-1.11467 -0.0484709 0)
(-1.1106 -0.0483298 0)
(-1.10686 -0.0481708 0)
(-1.10339 -0.0479945 0)
(-1.10008 -0.0478168 0)
(-1.09687 -0.0476463 0)
(-1.09385 -0.047477 0)
(-1.09116 -0.0472878 0)
(-1.08874 -0.0470745 0)
(-1.08621 -0.046874 0)
(-1.08353 -0.0467048 0)
(-1.08111 -0.0465223 0)
(-1.0792 -0.046286 0)
(-1.07729 -0.046044 0)
(-1.07504 -0.0458535 0)
(-1.07298 -0.0456581 0)
(-1.07135 -0.0454075 0)
(-1.06966 -0.0451636 0)
(-1.06784 -0.0449505 0)
(-1.0663 -0.0447057 0)
(-1.06484 -0.0444431 0)
(-1.06317 -0.0442233 0)
(-1.06167 -0.043995 0)
(-1.06057 -0.043699 0)
(-1.05933 -0.0434178 0)
(-1.05786 -0.0431955 0)
(-1.05669 -0.042934 0)
(-1.05571 -0.0426297 0)
(-1.05469 -0.0423445 0)
(-1.05379 -0.0420406 0)
(-1.05293 -0.0417273 0)
(-1.05203 -0.0414396 0)
(-1.05139 -0.041105 0)
(-1.05085 -0.0407376 0)
(-1.05021 -0.040416 0)
(-1.04976 -0.0400636 0)
(-1.04947 -0.0396661 0)
(-1.04914 -0.0393056 0)
(-1.04895 -0.0389292 0)
(-1.04894 -0.0385191 0)
(-1.04903 -0.03811 0)
(-1.04922 -0.0377077 0)
(-1.04955 -0.0373158 0)
(-1.05004 -0.0369202 0)
(-1.05057 -0.0365992 0)
(-1.051 -0.03645 0)
(-1.05125 -0.0365892 0)
(-1.05166 -0.0366334 0)
(-1.16521 8.39555e-05 0)
(-1.16521 8.41667e-05 0)
(-1.16521 8.40701e-05 0)
(-1.16521 8.41519e-05 0)
(-1.16521 8.40679e-05 0)
(-1.16521 8.41492e-05 0)
(-1.16521 8.40656e-05 0)
(-1.16521 8.41473e-05 0)
(-1.16521 8.40642e-05 0)
(-1.16521 8.4146e-05 0)
(-1.16521 8.40632e-05 0)
(-1.16521 8.4145e-05 0)
(-1.16521 8.40627e-05 0)
(-1.16521 8.41445e-05 0)
(-1.16521 8.40623e-05 0)
(-1.16521 8.41446e-05 0)
(-1.16521 8.40614e-05 0)
(-1.16521 8.41436e-05 0)
(-1.16521 8.4066e-05 0)
(-1.16521 8.41338e-05 0)
(-1.16521 8.40751e-05 0)
(-1.16521 8.4126e-05 0)
(-1.16521 8.40779e-05 0)
(-1.16521 8.41305e-05 0)
(-1.16521 8.40752e-05 0)
(-1.16521 8.41289e-05 0)
(-1.16521 8.40767e-05 0)
(-1.16521 8.41273e-05 0)
(-1.16521 8.40782e-05 0)
(-1.16521 8.41257e-05 0)
(-1.16521 8.40797e-05 0)
(-1.16521 8.41242e-05 0)
(-1.16521 8.40813e-05 0)
(-1.16521 8.41226e-05 0)
(-1.16521 8.40828e-05 0)
(-1.16521 8.41211e-05 0)
(-1.16521 8.40843e-05 0)
(-1.16521 8.41196e-05 0)
(-1.16521 8.40857e-05 0)
(-1.16521 8.41181e-05 0)
(-1.16521 8.40872e-05 0)
(-1.16521 8.41167e-05 0)
(-1.16521 8.40885e-05 0)
(-1.16521 8.41153e-05 0)
(-1.16521 8.40899e-05 0)
(-1.16521 8.41141e-05 0)
(-1.16521 8.40912e-05 0)
(-1.16521 8.41128e-05 0)
(-1.16521 8.40924e-05 0)
(-1.16521 8.41117e-05 0)
(-1.16521 8.40936e-05 0)
(-1.16521 8.41105e-05 0)
(-1.16521 8.40948e-05 0)
(-1.16521 8.41095e-05 0)
(-1.16521 8.40959e-05 0)
(-1.16521 8.41084e-05 0)
(-1.16521 8.4097e-05 0)
(-1.16521 8.41074e-05 0)
(-1.16521 8.40979e-05 0)
(-1.16521 8.41065e-05 0)
(-1.16521 8.40989e-05 0)
(-1.16521 8.41055e-05 0)
(-1.16521 8.40998e-05 0)
(-1.16521 8.41046e-05 0)
(-1.16521 8.41007e-05 0)
(-1.16521 8.41038e-05 0)
(-1.16521 8.41016e-05 0)
(-1.16521 8.4103e-05 0)
(-1.16521 8.41024e-05 0)
(-1.16521 8.41022e-05 0)
(-1.16521 8.41032e-05 0)
(-1.16521 8.41014e-05 0)
(-1.16521 8.4104e-05 0)
(-1.16521 8.41007e-05 0)
(-1.16521 8.41047e-05 0)
(-1.16521 8.41001e-05 0)
(-1.16521 8.41053e-05 0)
(-1.16521 8.40995e-05 0)
(-1.16521 8.4106e-05 0)
(-1.16521 8.4099e-05 0)
(-1.16521 8.41066e-05 0)
(-1.16521 8.40985e-05 0)
(-1.16521 8.41071e-05 0)
(-1.16521 8.4098e-05 0)
(-1.16521 8.41077e-05 0)
(-1.16521 8.40976e-05 0)
(-1.16521 8.41083e-05 0)
(-1.16521 8.40975e-05 0)
(-1.16521 8.41091e-05 0)
(-1.16521 8.40974e-05 0)
(-1.16521 8.41098e-05 0)
(-1.16521 8.40974e-05 0)
(-1.16521 8.41106e-05 0)
(-1.16521 8.40973e-05 0)
(-1.16521 8.41112e-05 0)
(-1.16521 8.40973e-05 0)
(-1.16521 8.41118e-05 0)
(-1.16521 8.40973e-05 0)
(-1.16521 8.41124e-05 0)
(-1.16521 8.40975e-05 0)
(-1.16521 8.41133e-05 0)
(-1.16521 8.40981e-05 0)
(-1.16521 8.41137e-05 0)
(-1.16521 8.40973e-05 0)
(-1.16521 8.41135e-05 0)
(-1.16521 8.40968e-05 0)
(-1.16521 8.41132e-05 0)
(-1.16521 8.40966e-05 0)
(-1.16521 8.41129e-05 0)
(-1.16521 8.40959e-05 0)
(-1.16521 8.41123e-05 0)
(-1.16521 8.40955e-05 0)
(-1.16521 8.41119e-05 0)
(-1.16521 8.4094e-05 0)
(-1.16521 8.41153e-05 0)
(-1.16521 8.4181e-05 0)
(-1.16519 8.60498e-05 0)
(-1.16473 0.000162008 0)
)
;

boundaryField
{
    inandouthalf11
    {
        type            cyclic;
    }
    inandouthalf12
    {
        type            cyclic;
    }
    inandouthalf21
    {
        type            cyclic;
    }
    inandouthalf22
    {
        type            cyclic;
    }
    inandouthalf31
    {
        type            cyclic;
    }
    inandouthalf32
    {
        type            cyclic;
    }
    inandouthalf41
    {
        type            cyclic;
    }
    inandouthalf42
    {
        type            cyclic;
    }
    top
    {
        type            symmetryPlane;
    }
    walls
    {
        type            calculated;
        value           uniform (0 0 0);
    }
    frontAndBackPlanes
    {
        type            empty;
    }
}


// ************************************************************************* //
