/*--------------------------------*- C++ -*----------------------------------*\
| =========                 |                                                 |
| \\      /  F ield         | OpenFOAM: The Open Source CFD Toolbox           |
|  \\    /   O peration     | Version:  2.4.x                                 |
|   \\  /    A nd           | Web:      www.OpenFOAM.org                      |
|    \\/     M anipulation  |                                                 |
\*---------------------------------------------------------------------------*/
FoamFile
{
    version     2.0;
    format      ascii;
    class       volVectorField;
    location    "2.45";
    object      gradPf;
}
// * * * * * * * * * * * * * * * * * * * * * * * * * * * * * * * * * * * * * //

dimensions      [0 1 -2 0 0 0 0];

internalField   nonuniform List<vector> 
360
(
(0 -1.3846e-09 0)
(0 -0.0556701 0)
(0 -0.0556702 0)
(0 3.02192e-09 0)
(-3.35352e-14 -0.0556536 0)
(-3.35353e-14 -0.0556537 0)
(-1.67676e-14 -0.0556372 0)
(0 -0.0556373 0)
(-1.67677e-14 -0.0556207 0)
(0 -0.111225 0)
(-3.35354e-14 -0.0556044 0)
(0 -0.0555879 0)
(-1.67677e-14 -0.111159 0)
(0 -0.111127 0)
(0 -0.111094 0)
(0 -0.111061 0)
(0 -0.111028 0)
(-1.67679e-14 -0.110995 0)
(0 -0.166419 0)
(0 -0.16637 0)
(0 -0.166271 0)
(-1.6768e-14 -0.221596 0)
(0 -0.221463 0)
(0 -0.221322 0)
(0 -0.221152 0)
(-1.67683e-14 -0.220892 0)
(0 -0.275558 0)
(0 -0.329436 0)
(0 -0.326387 0)
(0 -0.319973 0)
(0 -0.362542 0)
(0 -0.341007 0)
(0 -0.362535 0)
(0 -0.372362 0)
(0 -0.318777 0)
(1.67691e-14 -0.318551 0)
(0 -0.325018 0)
(0 -0.399695 0)
(0 -0.384431 0)
(0 -0.440012 0)
(0 -0.562013 0)
(0 -0.583611 0)
(1.67699e-14 -0.712466 0)
(0 -0.838743 0)
(0 -0.907653 0)
(0 -1.02353 0)
(0 -1.07997 0)
(0 -1.17948 0)
(0 -1.37382 0)
(0 -1.45949 0)
(1.67722e-14 -1.53997 0)
(0 -1.66545 0)
(0 -1.78123 0)
(0 -1.88653 0)
(0 -2.02774 0)
(0 -2.15511 0)
(0 -2.26567 0)
(0 -2.40523 0)
(0 -2.47327 0)
(0 -2.60306 0)
(0 -2.69725 0)
(0 -2.75055 0)
(0 -2.81083 0)
(0 -2.8361 0)
(0 -2.87777 0)
(0 -2.94179 0)
(0 -3.03898 0)
(0 -3.13978 0)
(0 -3.24209 0)
(0 -3.39299 0)
(0 -3.56596 0)
(0 -3.65747 0)
(0 -3.75271 0)
(0 -3.84195 0)
(0 -3.87842 0)
(0 -3.86985 0)
(0 -3.82093 0)
(0 -3.78665 0)
(0 -3.75799 0)
(0 -3.73681 0)
(0 -3.74524 0)
(0 -3.7888 0)
(0 -3.84236 0)
(0 -3.90205 0)
(0 -3.95804 0)
(0 -4.0036 0)
(0 -4.03306 0)
(0 -4.04483 0)
(0 -4.04971 0)
(0 -4.04959 0)
(0 -4.04689 0)
(0 -4.04863 0)
(0 -4.05575 0)
(0 -4.06526 0)
(0 -4.07677 0)
(0 -4.08875 0)
(0 -4.09962 0)
(0 -4.10903 0)
(0 -4.11761 0)
(0 -4.12567 0)
(0 -4.13354 0)
(0 -4.14173 0)
(0 -4.15017 0)
(0 -4.15845 0)
(0 -4.16644 0)
(0 -4.17402 0)
(0 -4.18109 0)
(0 -4.18768 0)
(0 -4.19382 0)
(0 -4.19949 0)
(0 -4.20464 0)
(0 -4.20923 0)
(0 -4.21322 0)
(0 -4.21659 0)
(0 -4.21937 0)
(0 -4.22157 0)
(0 -4.22325 0)
(0 -4.22446 0)
(0 -4.22522 0)
(0 -4.22548 0)
(0 -4.22511 0)
(0 -4.22392 0)
(0 -4.22176 0)
(0 -4.21874 0)
(0 -4.2155 0)
(0 -4.21319 0)
(0 -4.21287 0)
(0 -4.21411 0)
(0 -4.21338 0)
(0 -4.20424 0)
(0 -4.18242 0)
(0 -4.15512 0)
(0 -4.14228 0)
(0 -4.15085 0)
(0 -4.1451 0)
(0 -4.08534 0)
(0 -4.01307 0)
(0 -4.04501 0)
(0 -4.21962 0)
(0 -4.28972 0)
(0 -3.8995 0)
(0 -3.75201 0)
(0 -4.36727 0)
(0 -5.01253 0)
(0 -5.61854 0)
(0 -17.0842 0)
(0 -14.621 0)
(0 -0.12681 0)
(0 0 0)
(0 0 0)
(0 0 0)
(0 0 0)
(0 0 0)
(0 0 0)
(0 0 0)
(0 0 0)
(0 0 0)
(0 0 0)
(0 0 0)
(0 0 0)
(0 0 0)
(0 0 0)
(0 0 0)
(0 0 0)
(0 0 0)
(0 0 0)
(0 0 0)
(0 0 0)
(0 0 0)
(0 0 0)
(0 0 0)
(0 0 0)
(0 0 0)
(0 0 0)
(0 0 0)
(0 0 0)
(0 0 0)
(0 0 0)
(0 0 0)
(0 0 0)
(0 0 0)
(0 0 0)
(0 0 0)
(0 0 0)
(0 0 0)
(0 0 0)
(0 0 0)
(0 0 0)
(0 0 0)
(0 0 0)
(0 0 0)
(0 0 0)
(0 0 0)
(0 0 0)
(0 0 0)
(0 0 0)
(0 0 0)
(0 0 0)
(0 0 0)
(0 0 0)
(0 0 0)
(0 0 0)
(0 0 0)
(0 0 0)
(0 0 0)
(0 0 0)
(0 0 0)
(0 0 0)
(0 0 0)
(0 0 0)
(0 0 0)
(0 0 0)
(0 0 0)
(0 0 0)
(0 0 0)
(0 0 0)
(0 0 0)
(0 0 0)
(0 0 0)
(0 0 0)
(0 0 0)
(0 0 0)
(0 0 0)
(0 0 0)
(0 0 0)
(0 0 0)
(0 0 0)
(0 0 0)
(0 0 0)
(0 0 0)
(0 0 0)
(0 0 0)
(0 0 0)
(0 0 0)
(0 0 0)
(0 0 0)
(0 0 0)
(0 0 0)
(0 0 0)
(0 0 0)
(0 0 0)
(0 0 0)
(0 0 0)
(0 0 0)
(0 0 0)
(0 0 0)
(0 0 0)
(0 0 0)
(0 0 0)
(0 0 0)
(0 0 0)
(0 0 0)
(0 0 0)
(0 0 0)
(0 0 0)
(0 0 0)
(0 0 0)
(0 0 0)
(0 0 0)
(0 0 0)
(0 0 0)
(0 0 0)
(0 0 0)
(0 0 0)
(0 0 0)
(0 0 0)
(0 0 0)
(0 0 0)
(0 0 0)
(0 0 0)
(0 0 0)
(0 0 0)
(0 0 0)
(0 0 0)
(0 0 0)
(0 0 0)
(0 0 0)
(0 0 0)
(0 0 0)
(0 0 0)
(0 0 0)
(0 0 0)
(0 0 0)
(0 0 0)
(0 0 0)
(0 0 0)
(0 0 0)
(0 0 0)
(0 0 0)
(0 0 0)
(0 0 0)
(0 0 0)
(0 0 0)
(0 0 0)
(0 0 0)
(0 0 0)
(0 0 0)
(0 0 0)
(0 0 0)
(0 0 0)
(0 0 0)
(0 0 0)
(0 0 0)
(0 0 0)
(0 0 0)
(0 0 0)
(0 0 0)
(0 0 0)
(0 0 0)
(0 0 0)
(0 0 0)
(0 0 0)
(0 0 0)
(0 0 0)
(0 0 0)
(0 0 0)
(0 0 0)
(0 0 0)
(0 0 0)
(0 0 0)
(0 0 0)
(0 0 0)
(0 0 0)
(0 0 0)
(0 0 0)
(0 0 0)
(0 0 0)
(0 0 0)
(0 0 0)
(0 0 0)
(0 0 0)
(0 0 0)
(0 0 0)
(0 0 0)
(0 0 0)
(0 0 0)
(0 0 0)
(0 0 0)
(0 0 0)
(0 0 0)
(0 0 0)
(0 0 0)
(0 0 0)
(0 0 0)
(0 0 0)
(0 0 0)
(0 0 0)
(0 0 0)
(0 0 0)
(0 0 0)
(0 0 0)
(0 0 0)
(0 0 0)
(0 0 0)
(0 0 0)
(0 0 0)
(0 0 0)
(0 0 0)
(0 0 0)
(0 0 0)
)
;

boundaryField
{
    inandouthalf11
    {
        type            cyclic;
    }
    inandouthalf12
    {
        type            cyclic;
    }
    inandouthalf21
    {
        type            cyclic;
    }
    inandouthalf22
    {
        type            cyclic;
    }
    inandouthalf31
    {
        type            cyclic;
    }
    inandouthalf32
    {
        type            cyclic;
    }
    inandouthalf41
    {
        type            cyclic;
    }
    inandouthalf42
    {
        type            cyclic;
    }
    top
    {
        type            symmetryPlane;
    }
    walls
    {
        type            calculated;
        value           uniform (0 0 0);
    }
    frontAndBackPlanes
    {
        type            empty;
    }
}


// ************************************************************************* //
