/*--------------------------------*- C++ -*----------------------------------*\
| =========                 |                                                 |
| \\      /  F ield         | OpenFOAM: The Open Source CFD Toolbox           |
|  \\    /   O peration     | Version:  2.4.x                                 |
|   \\  /    A nd           | Web:      www.OpenFOAM.org                      |
|    \\/     M anipulation  |                                                 |
\*---------------------------------------------------------------------------*/
FoamFile
{
    version     2.0;
    format      ascii;
    class       surfaceScalarField;
    location    "2.45";
    object      phia;
}
// * * * * * * * * * * * * * * * * * * * * * * * * * * * * * * * * * * * * * //

dimensions      [0 3 -1 0 0 0 0];

internalField   nonuniform List<scalar> 
359
(
-7.02649e-40
-7.02865e-40
-1.75029e-30
-2.55376e-29
-1.97804e-28
-1.10277e-27
-5.04046e-27
-2.04447e-26
-7.7363e-26
-2.83458e-25
-1.03105e-24
-3.78598e-24
-1.42297e-23
-5.51273e-23
-2.20797e-22
-9.143e-22
-3.90519e-21
-1.71325e-20
-7.66721e-20
-3.47127e-19
-1.56834e-18
-6.98731e-18
-3.02303e-17
-1.25111e-16
-4.88613e-16
-1.78072e-15
-6.00125e-15
-1.85819e-14
-5.25336e-14
-1.35111e-13
-3.1561e-13
-6.70408e-13
-1.2963e-12
-2.29244e-12
-3.72249e-12
-5.58802e-12
-7.81234e-12
-1.02594e-11
-1.27673e-11
-1.51816e-11
-1.73961e-11
-1.93489e-11
-2.10223e-11
-2.24318e-11
-2.36055e-11
-2.4579e-11
-2.53874e-11
-2.60619e-11
-2.66304e-11
-2.71153e-11
-2.7533e-11
-2.78975e-11
-2.82192e-11
-2.85067e-11
-2.87667e-11
-2.90049e-11
-2.92255e-11
-2.94323e-11
-2.9628e-11
-2.9815e-11
-2.99955e-11
-3.01711e-11
-3.03434e-11
-3.05139e-11
-3.06847e-11
-3.08581e-11
-3.10376e-11
-3.12275e-11
-3.14331e-11
-3.16616e-11
-3.19217e-11
-3.22237e-11
-3.25785e-11
-3.29981e-11
-3.34918e-11
-3.40655e-11
-3.47183e-11
-3.54427e-11
-3.62259e-11
-3.70527e-11
-3.79086e-11
-3.87835e-11
-3.96717e-11
-4.05722e-11
-4.14872e-11
-4.24202e-11
-4.33751e-11
-4.43544e-11
-4.5359e-11
-4.6388e-11
-4.74394e-11
-4.85099e-11
-4.95965e-11
-5.06961e-11
-5.18062e-11
-5.29244e-11
-5.40488e-11
-5.51773e-11
-5.63081e-11
-5.74393e-11
-5.85692e-11
-5.96961e-11
-6.08186e-11
-6.19355e-11
-6.30458e-11
-6.41487e-11
-6.52434e-11
-6.63294e-11
-6.74062e-11
-6.84735e-11
-6.95309e-11
-7.05784e-11
-7.16158e-11
-7.26429e-11
-7.36597e-11
-7.46661e-11
-7.5662e-11
-7.66472e-11
-7.76215e-11
-7.85845e-11
-7.95355e-11
-8.04736e-11
-8.13975e-11
-8.23054e-11
-8.31956e-11
-8.40662e-11
-8.49152e-11
-8.57408e-11
-8.65408e-11
-8.73124e-11
-8.80526e-11
-8.87594e-11
-8.94345e-11
-9.00849e-11
-9.07221e-11
-9.13603e-11
-9.20175e-11
-9.27229e-11
-9.35175e-11
-9.44266e-11
-9.53959e-11
-9.62536e-11
-9.68879e-11
-9.72394e-11
-9.73419e-11
-9.73379e-11
-9.01962e-10
-1.54193e-09
-2.18078e-09
-2.73799e-09
-3.16573e-09
-3.3854e-09
-3.38143e-09
-3.176e-09
-2.72894e-09
-1.93896e-09
-6.73523e-10
1.17141e-09
3.68034e-09
6.72869e-09
1.01824e-08
1.39372e-08
1.79202e-08
2.2081e-08
2.63917e-08
3.08319e-08
3.53982e-08
4.00885e-08
4.49068e-08
4.98563e-08
5.49384e-08
6.01529e-08
6.55053e-08
7.10119e-08
7.66542e-08
8.22074e-08
8.70466e-08
9.0297e-08
9.14961e-08
9.10139e-08
8.96867e-08
8.821e-08
8.68635e-08
8.56585e-08
8.45822e-08
8.36216e-08
8.27592e-08
8.19809e-08
8.12724e-08
8.0624e-08
8.0026e-08
7.94718e-08
7.89532e-08
7.8466e-08
7.80054e-08
7.75683e-08
7.71502e-08
7.67472e-08
7.63578e-08
7.59803e-08
7.56134e-08
7.52458e-08
7.48747e-08
7.45015e-08
7.41293e-08
7.37555e-08
7.33726e-08
7.29807e-08
7.25869e-08
7.2188e-08
7.17761e-08
7.13538e-08
7.09245e-08
7.04817e-08
7.00237e-08
6.95578e-08
6.908e-08
6.85789e-08
6.80598e-08
6.75314e-08
6.69834e-08
6.64106e-08
6.58169e-08
6.51962e-08
6.45487e-08
6.38792e-08
6.31745e-08
6.24314e-08
6.16607e-08
6.085e-08
5.99932e-08
5.91e-08
5.81614e-08
5.71726e-08
5.61315e-08
5.5041e-08
5.38995e-08
5.27025e-08
5.14668e-08
5.02288e-08
4.89756e-08
-5.38073e-08
-1.57946e-07
-1.57946e-07
-1.57946e-07
-1.57946e-07
-1.57946e-07
-1.57946e-07
-1.57946e-07
-1.57946e-07
-1.57946e-07
-1.57946e-07
-1.57946e-07
-1.57946e-07
-1.57946e-07
-1.57946e-07
-1.57946e-07
-1.57946e-07
-1.57946e-07
-1.57946e-07
-1.57946e-07
-1.57946e-07
-1.57946e-07
-1.57946e-07
-1.57946e-07
-1.57946e-07
-1.57946e-07
-1.57946e-07
-1.57946e-07
-1.57946e-07
-1.57946e-07
-1.57946e-07
-1.57946e-07
-1.57946e-07
-1.57946e-07
-1.57946e-07
-1.57946e-07
-1.57946e-07
-1.57946e-07
-1.57946e-07
-1.57946e-07
-1.57946e-07
-1.57946e-07
-1.57946e-07
-1.57946e-07
-1.57946e-07
-1.57946e-07
-1.57946e-07
-1.57946e-07
-1.57946e-07
-1.57946e-07
-1.57946e-07
-1.57946e-07
-1.57946e-07
-1.57946e-07
-1.57946e-07
-1.57946e-07
-1.57946e-07
-1.57946e-07
-1.57946e-07
-1.57946e-07
-1.57946e-07
-1.57946e-07
-1.57946e-07
-1.57946e-07
-1.57946e-07
-1.57946e-07
-1.57946e-07
-1.57946e-07
-1.57946e-07
-1.57946e-07
-1.57946e-07
-1.57946e-07
-1.57946e-07
-1.57946e-07
-1.57946e-07
-1.57946e-07
-1.57946e-07
-1.57946e-07
-1.57946e-07
-1.57946e-07
-1.57946e-07
-1.57946e-07
-1.57946e-07
-1.57946e-07
-1.57946e-07
-1.57946e-07
-1.57946e-07
-1.57946e-07
-1.57946e-07
-1.57946e-07
-1.57946e-07
-1.57946e-07
-1.57946e-07
-1.57946e-07
-1.57946e-07
-1.57946e-07
-1.57946e-07
-1.57946e-07
-1.57946e-07
-1.57946e-07
-1.57946e-07
-1.57946e-07
-1.57946e-07
-1.57946e-07
-1.57946e-07
-1.57946e-07
-1.57946e-07
-1.57946e-07
-1.57946e-07
-1.57946e-07
-1.57946e-07
-1.57946e-07
-1.57946e-07
-1.57946e-07
-1.57946e-07
-1.57928e-07
-1.57219e-07
-1.32212e-07
)
;

boundaryField
{
    inandouthalf11
    {
        type            cyclic;
        value           nonuniform List<scalar> 
100
(
1.60628e-41
1.6067e-41
1.6084e-41
1.28865e-31
1.76202e-30
1.2978e-29
6.968e-29
3.10774e-28
1.24259e-27
4.67989e-27
1.71853e-26
6.29557e-26
2.33844e-25
8.91112e-25
3.50479e-24
1.4258e-23
5.99652e-23
2.60012e-22
1.1569e-21
5.24654e-21
2.40108e-20
1.09489e-19
4.90997e-19
2.13215e-18
8.83041e-18
3.44085e-17
1.24737e-16
4.17048e-16
1.27688e-15
3.55883e-15
8.99893e-15
2.06263e-14
4.28938e-14
8.11439e-14
1.40233e-13
2.22623e-13
3.27007e-13
4.48187e-13
5.78333e-13
7.0893e-13
8.32805e-13
9.45194e-13
1.04378e-12
1.1283e-12
1.19974e-12
1.25968e-12
1.30991e-12
1.35212e-12
1.38787e-12
1.41846e-12
1.44494e-12
1.4681e-12
1.48859e-12
1.50694e-12
1.52356e-12
1.5388e-12
1.55293e-12
1.56619e-12
1.57875e-12
1.59077e-12
1.60238e-12
1.61369e-12
1.62479e-12
1.63578e-12
1.64678e-12
1.65792e-12
1.66939e-12
1.68142e-12
1.69434e-12
1.70854e-12
1.72453e-12
1.74291e-12
1.76436e-12
1.78961e-12
1.81933e-12
1.85399e-12
1.89371e-12
1.93816e-12
1.9866e-12
2.03804e-12
2.09146e-12
2.14601e-12
2.20116e-12
2.25668e-12
2.31257e-12
2.369e-12
2.42615e-12
2.48418e-12
2.54316e-12
2.60303e-12
2.66365e-12
2.72482e-12
2.78632e-12
2.84792e-12
2.90941e-12
2.97063e-12
3.03141e-12
3.09161e-12
3.1511e-12
3.20973e-12
)
;
    }
    inandouthalf12
    {
        type            cyclic;
        value           nonuniform List<scalar> 
100
(
-1.60628e-41
-1.6067e-41
-1.6084e-41
-1.28865e-31
-1.76202e-30
-1.2978e-29
-6.968e-29
-3.10774e-28
-1.24259e-27
-4.67989e-27
-1.71853e-26
-6.29557e-26
-2.33844e-25
-8.91112e-25
-3.50479e-24
-1.4258e-23
-5.99652e-23
-2.60012e-22
-1.1569e-21
-5.24654e-21
-2.40108e-20
-1.09489e-19
-4.90997e-19
-2.13215e-18
-8.83041e-18
-3.44085e-17
-1.24737e-16
-4.17048e-16
-1.27688e-15
-3.55883e-15
-8.99893e-15
-2.06263e-14
-4.28938e-14
-8.11439e-14
-1.40233e-13
-2.22623e-13
-3.27007e-13
-4.48187e-13
-5.78333e-13
-7.0893e-13
-8.32805e-13
-9.45194e-13
-1.04378e-12
-1.1283e-12
-1.19974e-12
-1.25968e-12
-1.30991e-12
-1.35212e-12
-1.38787e-12
-1.41846e-12
-1.44494e-12
-1.4681e-12
-1.48859e-12
-1.50694e-12
-1.52356e-12
-1.5388e-12
-1.55293e-12
-1.56619e-12
-1.57875e-12
-1.59077e-12
-1.60238e-12
-1.61369e-12
-1.62479e-12
-1.63578e-12
-1.64678e-12
-1.65792e-12
-1.66939e-12
-1.68142e-12
-1.69434e-12
-1.70854e-12
-1.72453e-12
-1.74291e-12
-1.76436e-12
-1.78961e-12
-1.81933e-12
-1.85399e-12
-1.89371e-12
-1.93816e-12
-1.9866e-12
-2.03804e-12
-2.09146e-12
-2.14601e-12
-2.20116e-12
-2.25668e-12
-2.31257e-12
-2.369e-12
-2.42615e-12
-2.48418e-12
-2.54316e-12
-2.60303e-12
-2.66365e-12
-2.72482e-12
-2.78632e-12
-2.84792e-12
-2.90941e-12
-2.97063e-12
-3.03141e-12
-3.09161e-12
-3.1511e-12
-3.20973e-12
)
;
    }
    inandouthalf21
    {
        type            cyclic;
        value           nonuniform List<scalar> 
100
(
3.26739e-12
3.32395e-12
3.3793e-12
3.43336e-12
3.48604e-12
3.53727e-12
3.58699e-12
3.63514e-12
3.68166e-12
3.72651e-12
3.76965e-12
3.81103e-12
3.85061e-12
3.88835e-12
3.9242e-12
3.95811e-12
3.99004e-12
4.01992e-12
4.0477e-12
4.0733e-12
4.09664e-12
4.11764e-12
4.1362e-12
4.15222e-12
4.16559e-12
4.17622e-12
4.18402e-12
4.18892e-12
4.19084e-12
4.18973e-12
4.18556e-12
4.17835e-12
4.16809e-12
4.15469e-12
4.13783e-12
4.11688e-12
4.09074e-12
4.05745e-12
4.0134e-12
3.95327e-12
3.87357e-12
3.78059e-12
3.69035e-12
3.62216e-12
3.59254e-12
3.59109e-12
3.59038e-12
-2.88831e-08
-7.95861e-08
-1.26266e-07
-1.68531e-07
-2.07561e-07
-2.43903e-07
-2.78043e-07
-3.1036e-07
-3.41138e-07
-3.70573e-07
-3.98812e-07
-4.25999e-07
-4.52268e-07
-4.7773e-07
-5.02474e-07
-5.26563e-07
-5.50045e-07
-5.72947e-07
-5.95281e-07
-6.17041e-07
-6.38205e-07
-6.58733e-07
-6.78565e-07
-6.97618e-07
-7.1579e-07
-7.32949e-07
-7.48942e-07
-7.63586e-07
-7.76685e-07
-7.88047e-07
-7.97551e-07
-8.05224e-07
-8.11292e-07
-8.16114e-07
-8.20059e-07
-8.23411e-07
-8.2637e-07
-8.29063e-07
-8.3156e-07
-8.33898e-07
-8.36098e-07
-8.3818e-07
-8.40156e-07
-8.42037e-07
-8.4383e-07
-8.45545e-07
-8.47188e-07
-8.48763e-07
-8.50273e-07
-8.51722e-07
-8.53116e-07
-8.54456e-07
-8.55742e-07
)
;
    }
    inandouthalf22
    {
        type            cyclic;
        value           nonuniform List<scalar> 
100
(
-3.26739e-12
-3.32395e-12
-3.3793e-12
-3.43336e-12
-3.48604e-12
-3.53727e-12
-3.58699e-12
-3.63514e-12
-3.68166e-12
-3.72651e-12
-3.76965e-12
-3.81103e-12
-3.85061e-12
-3.88835e-12
-3.9242e-12
-3.95811e-12
-3.99004e-12
-4.01992e-12
-4.0477e-12
-4.0733e-12
-4.09664e-12
-4.11764e-12
-4.1362e-12
-4.15222e-12
-4.16559e-12
-4.17622e-12
-4.18402e-12
-4.18892e-12
-4.19084e-12
-4.18973e-12
-4.18556e-12
-4.17835e-12
-4.16809e-12
-4.15469e-12
-4.13783e-12
-4.11688e-12
-4.09074e-12
-4.05745e-12
-4.0134e-12
-3.95327e-12
-3.87357e-12
-3.78059e-12
-3.69035e-12
-3.62216e-12
-3.59254e-12
-3.59109e-12
-3.59038e-12
2.88831e-08
7.95861e-08
1.26266e-07
1.68531e-07
2.07561e-07
2.43903e-07
2.78043e-07
3.1036e-07
3.41138e-07
3.70573e-07
3.98812e-07
4.25999e-07
4.52268e-07
4.7773e-07
5.02474e-07
5.26563e-07
5.50045e-07
5.72947e-07
5.95281e-07
6.17041e-07
6.38205e-07
6.58733e-07
6.78565e-07
6.97618e-07
7.1579e-07
7.32949e-07
7.48942e-07
7.63586e-07
7.76685e-07
7.88047e-07
7.97551e-07
8.05224e-07
8.11292e-07
8.16114e-07
8.20059e-07
8.23411e-07
8.2637e-07
8.29063e-07
8.3156e-07
8.33898e-07
8.36098e-07
8.3818e-07
8.40156e-07
8.42037e-07
8.4383e-07
8.45545e-07
8.47188e-07
8.48763e-07
8.50273e-07
8.51722e-07
8.53116e-07
8.54456e-07
8.55742e-07
)
;
    }
    inandouthalf31
    {
        type            cyclic;
        value           nonuniform List<scalar> 
110
(
-8.56973e-07
-8.75579e-07
-8.94567e-07
-9.13943e-07
-9.33705e-07
-9.53858e-07
-9.74427e-07
-9.95432e-07
-1.01686e-06
-1.03872e-06
-1.06103e-06
-1.08382e-06
-1.10707e-06
-1.1308e-06
-1.15503e-06
-1.17976e-06
-1.20499e-06
-1.23076e-06
-1.25708e-06
-1.28394e-06
-1.31135e-06
-1.33934e-06
-1.36792e-06
-1.3971e-06
-1.4269e-06
-1.45731e-06
-1.48837e-06
-1.52009e-06
-1.55248e-06
-1.58553e-06
-1.6193e-06
-1.65376e-06
-1.68893e-06
-1.72483e-06
-1.76147e-06
-1.79885e-06
-1.83697e-06
-1.87583e-06
-1.91543e-06
-1.95571e-06
-1.99662e-06
-2.03841e-06
-2.19691e-06
-2.24151e-06
-2.28701e-06
-2.33344e-06
-2.38081e-06
-2.42914e-06
-2.47845e-06
-2.52875e-06
-2.58008e-06
-2.63245e-06
-2.68589e-06
-2.74041e-06
-2.79603e-06
-2.85278e-06
-2.91069e-06
-2.96977e-06
-3.03005e-06
-3.09155e-06
-3.1543e-06
-3.21832e-06
-3.28365e-06
-3.3503e-06
-3.4183e-06
-3.48768e-06
-3.55847e-06
-3.6307e-06
-3.70439e-06
-3.77958e-06
-3.8563e-06
-3.93457e-06
-4.01443e-06
-4.09591e-06
-4.17905e-06
-4.26387e-06
-4.35042e-06
-4.43872e-06
-4.52881e-06
-4.62074e-06
-4.71453e-06
-4.81022e-06
-4.90785e-06
-5.00747e-06
-5.10911e-06
-5.21281e-06
-5.31861e-06
-5.42657e-06
-5.53671e-06
-5.64909e-06
-5.76376e-06
-5.88074e-06
-6.00011e-06
-6.12189e-06
-6.24615e-06
-6.37293e-06
-6.50229e-06
-6.63427e-06
-6.76892e-06
-6.90631e-06
-7.04649e-06
-7.18952e-06
-7.33545e-06
-7.48434e-06
-7.63625e-06
-7.79124e-06
-7.94939e-06
-8.11074e-06
-8.27536e-06
-8.44333e-06
)
;
    }
    inandouthalf32
    {
        type            cyclic;
        value           nonuniform List<scalar> 
110
(
8.56973e-07
8.75579e-07
8.94567e-07
9.13943e-07
9.33705e-07
9.53858e-07
9.74427e-07
9.95432e-07
1.01686e-06
1.03872e-06
1.06103e-06
1.08382e-06
1.10707e-06
1.1308e-06
1.15503e-06
1.17976e-06
1.20499e-06
1.23076e-06
1.25708e-06
1.28394e-06
1.31135e-06
1.33934e-06
1.36792e-06
1.3971e-06
1.4269e-06
1.45731e-06
1.48837e-06
1.52009e-06
1.55248e-06
1.58553e-06
1.6193e-06
1.65376e-06
1.68893e-06
1.72483e-06
1.76147e-06
1.79885e-06
1.83697e-06
1.87583e-06
1.91543e-06
1.95571e-06
1.99662e-06
2.03841e-06
2.19691e-06
2.24151e-06
2.28701e-06
2.33344e-06
2.38081e-06
2.42914e-06
2.47845e-06
2.52875e-06
2.58008e-06
2.63245e-06
2.68589e-06
2.74041e-06
2.79603e-06
2.85278e-06
2.91069e-06
2.96977e-06
3.03005e-06
3.09155e-06
3.1543e-06
3.21832e-06
3.28365e-06
3.3503e-06
3.4183e-06
3.48768e-06
3.55847e-06
3.6307e-06
3.70439e-06
3.77958e-06
3.8563e-06
3.93457e-06
4.01443e-06
4.09591e-06
4.17905e-06
4.26387e-06
4.35042e-06
4.43872e-06
4.52881e-06
4.62074e-06
4.71453e-06
4.81022e-06
4.90785e-06
5.00747e-06
5.10911e-06
5.21281e-06
5.31861e-06
5.42657e-06
5.53671e-06
5.64909e-06
5.76376e-06
5.88074e-06
6.00011e-06
6.12189e-06
6.24615e-06
6.37293e-06
6.50229e-06
6.63427e-06
6.76892e-06
6.90631e-06
7.04649e-06
7.18952e-06
7.33545e-06
7.48434e-06
7.63625e-06
7.79124e-06
7.94939e-06
8.11074e-06
8.27536e-06
8.44333e-06
)
;
    }
    inandouthalf41
    {
        type            cyclic;
        value           nonuniform List<scalar> 
50
(
-7.55764e-06
-7.55764e-06
-7.55764e-06
-7.55764e-06
-7.55764e-06
-7.55764e-06
-7.55764e-06
-7.55764e-06
-7.55764e-06
-7.55764e-06
-7.55764e-06
-7.55764e-06
-7.55764e-06
-7.55764e-06
-7.55764e-06
-7.55764e-06
-7.55764e-06
-7.55764e-06
-7.55764e-06
-7.55764e-06
-7.55764e-06
-7.55764e-06
-7.55764e-06
-7.55764e-06
-7.55764e-06
-7.55764e-06
-7.55764e-06
-7.55764e-06
-7.55764e-06
-7.55764e-06
-7.55764e-06
-7.55764e-06
-7.55764e-06
-7.55764e-06
-7.55764e-06
-7.55764e-06
-7.55764e-06
-7.55764e-06
-7.55764e-06
-7.55764e-06
-7.55764e-06
-7.55764e-06
-7.55764e-06
-7.55764e-06
-7.55764e-06
-7.55764e-06
-7.55764e-06
-7.55765e-06
-7.55791e-06
-7.56377e-06
)
;
    }
    inandouthalf42
    {
        type            cyclic;
        value           nonuniform List<scalar> 
50
(
7.55764e-06
7.55764e-06
7.55764e-06
7.55764e-06
7.55764e-06
7.55764e-06
7.55764e-06
7.55764e-06
7.55764e-06
7.55764e-06
7.55764e-06
7.55764e-06
7.55764e-06
7.55764e-06
7.55764e-06
7.55764e-06
7.55764e-06
7.55764e-06
7.55764e-06
7.55764e-06
7.55764e-06
7.55764e-06
7.55764e-06
7.55764e-06
7.55764e-06
7.55764e-06
7.55764e-06
7.55764e-06
7.55764e-06
7.55764e-06
7.55764e-06
7.55764e-06
7.55764e-06
7.55764e-06
7.55764e-06
7.55764e-06
7.55764e-06
7.55764e-06
7.55764e-06
7.55764e-06
7.55764e-06
7.55764e-06
7.55764e-06
7.55764e-06
7.55764e-06
7.55764e-06
7.55764e-06
7.55765e-06
7.55791e-06
7.56377e-06
)
;
    }
    top
    {
        type            symmetryPlane;
        value           uniform 0;
    }
    walls
    {
        type            fixedValue;
        value           uniform 0;
    }
    frontAndBackPlanes
    {
        type            empty;
        value           nonuniform 0();
    }
}


// ************************************************************************* //
