/*--------------------------------*- C++ -*----------------------------------*\
| =========                 |                                                 |
| \\      /  F ield         | OpenFOAM: The Open Source CFD Toolbox           |
|  \\    /   O peration     | Version:  2.4.x                                 |
|   \\  /    A nd           | Web:      www.OpenFOAM.org                      |
|    \\/     M anipulation  |                                                 |
\*---------------------------------------------------------------------------*/
FoamFile
{
    version     2.0;
    format      ascii;
    class       surfaceScalarField;
    location    "2.45";
    object      phia_0;
}
// * * * * * * * * * * * * * * * * * * * * * * * * * * * * * * * * * * * * * //

dimensions      [0 3 -1 0 0 0 0];

internalField   nonuniform List<scalar> 
359
(
-7.01919e-40
-7.02134e-40
-1.64868e-30
-2.40183e-29
-1.85722e-28
-1.03351e-27
-4.71454e-27
-1.90827e-26
-7.20517e-26
-2.63405e-25
-9.5593e-25
-3.50219e-24
-1.3134e-23
-5.07755e-23
-2.02974e-22
-8.39084e-22
-3.57911e-21
-1.56877e-20
-7.01804e-20
-3.17823e-19
-1.43737e-18
-6.41509e-18
-2.78252e-17
-1.15535e-16
-4.52995e-16
-1.65834e-15
-5.61635e-15
-1.74812e-14
-4.969e-14
-1.28501e-13
-3.01814e-13
-6.44556e-13
-1.2528e-12
-2.22647e-12
-3.63206e-12
-5.47524e-12
-7.68342e-12
-1.0123e-11
-1.26325e-11
-1.50556e-11
-1.72836e-11
-1.92519e-11
-2.09406e-11
-2.23642e-11
-2.35501e-11
-2.45338e-11
-2.53505e-11
-2.60317e-11
-2.66055e-11
-2.70947e-11
-2.75159e-11
-2.78831e-11
-2.8207e-11
-2.84963e-11
-2.87577e-11
-2.89971e-11
-2.92187e-11
-2.94263e-11
-2.96227e-11
-2.98102e-11
-2.99911e-11
-3.01671e-11
-3.03396e-11
-3.05104e-11
-3.06813e-11
-3.08549e-11
-3.10345e-11
-3.12244e-11
-3.14301e-11
-3.16585e-11
-3.19186e-11
-3.22205e-11
-3.25754e-11
-3.29949e-11
-3.34887e-11
-3.40625e-11
-3.47154e-11
-3.544e-11
-3.62235e-11
-3.70506e-11
-3.7907e-11
-3.87822e-11
-3.96708e-11
-4.05718e-11
-4.14871e-11
-4.24206e-11
-4.33759e-11
-4.43556e-11
-4.53606e-11
-4.639e-11
-4.74418e-11
-4.85127e-11
-4.95998e-11
-5.06998e-11
-5.18104e-11
-5.29291e-11
-5.40539e-11
-5.5183e-11
-5.63143e-11
-5.7446e-11
-5.85763e-11
-5.97037e-11
-6.08268e-11
-6.19442e-11
-6.3055e-11
-6.41583e-11
-6.52535e-11
-6.634e-11
-6.74173e-11
-6.8485e-11
-6.9543e-11
-7.05909e-11
-7.16287e-11
-7.26563e-11
-7.36735e-11
-7.46804e-11
-7.56767e-11
-7.66623e-11
-7.76371e-11
-7.86005e-11
-7.95519e-11
-8.04904e-11
-8.14147e-11
-8.2323e-11
-8.32137e-11
-8.40846e-11
-8.4934e-11
-8.576e-11
-8.65603e-11
-8.73323e-11
-8.80728e-11
-8.87799e-11
-8.94552e-11
-9.01058e-11
-9.07432e-11
-9.13815e-11
-9.2039e-11
-9.27447e-11
-9.35396e-11
-9.44493e-11
-9.54193e-11
-9.62778e-11
-9.69128e-11
-9.72646e-11
-9.73672e-11
-9.73632e-11
-8.92961e-10
-1.51902e-09
-2.14589e-09
-2.69222e-09
-3.10957e-09
-3.31934e-09
-3.30648e-09
-3.0961e-09
-2.65333e-09
-1.87609e-09
-5.97821e-10
1.27049e-09
3.80934e-09
6.879e-09
1.03455e-08
1.41067e-08
1.80916e-08
2.22516e-08
2.65595e-08
3.09959e-08
3.55579e-08
4.02439e-08
4.50579e-08
5.00033e-08
5.50818e-08
6.0293e-08
6.56427e-08
7.11472e-08
7.67872e-08
8.23344e-08
8.71589e-08
9.03856e-08
9.15595e-08
9.10599e-08
8.97249e-08
8.82472e-08
8.6901e-08
8.56964e-08
8.46204e-08
8.36601e-08
8.27979e-08
8.20198e-08
8.13113e-08
8.0663e-08
8.0065e-08
7.95107e-08
7.8992e-08
7.85047e-08
7.8044e-08
7.76067e-08
7.71885e-08
7.67854e-08
7.63958e-08
7.60182e-08
7.56511e-08
7.52835e-08
7.49122e-08
7.45388e-08
7.41665e-08
7.37925e-08
7.34095e-08
7.30174e-08
7.26234e-08
7.22243e-08
7.18122e-08
7.13897e-08
7.09603e-08
7.05172e-08
7.00591e-08
6.9593e-08
6.9115e-08
6.86136e-08
6.80943e-08
6.75658e-08
6.70175e-08
6.64444e-08
6.58506e-08
6.52296e-08
6.45818e-08
6.39121e-08
6.32071e-08
6.24638e-08
6.16928e-08
6.08818e-08
6.00247e-08
5.91312e-08
5.81922e-08
5.72031e-08
5.61617e-08
5.50709e-08
5.39291e-08
5.27318e-08
5.14959e-08
5.02579e-08
4.90048e-08
-5.37926e-08
-1.57946e-07
-1.57946e-07
-1.57946e-07
-1.57946e-07
-1.57946e-07
-1.57946e-07
-1.57946e-07
-1.57946e-07
-1.57946e-07
-1.57946e-07
-1.57946e-07
-1.57946e-07
-1.57946e-07
-1.57946e-07
-1.57946e-07
-1.57946e-07
-1.57946e-07
-1.57946e-07
-1.57946e-07
-1.57946e-07
-1.57946e-07
-1.57946e-07
-1.57946e-07
-1.57946e-07
-1.57946e-07
-1.57946e-07
-1.57946e-07
-1.57946e-07
-1.57946e-07
-1.57946e-07
-1.57946e-07
-1.57946e-07
-1.57946e-07
-1.57946e-07
-1.57946e-07
-1.57946e-07
-1.57946e-07
-1.57946e-07
-1.57946e-07
-1.57946e-07
-1.57946e-07
-1.57946e-07
-1.57946e-07
-1.57946e-07
-1.57946e-07
-1.57946e-07
-1.57946e-07
-1.57946e-07
-1.57946e-07
-1.57946e-07
-1.57946e-07
-1.57946e-07
-1.57946e-07
-1.57946e-07
-1.57946e-07
-1.57946e-07
-1.57946e-07
-1.57946e-07
-1.57946e-07
-1.57946e-07
-1.57946e-07
-1.57946e-07
-1.57946e-07
-1.57946e-07
-1.57946e-07
-1.57946e-07
-1.57946e-07
-1.57946e-07
-1.57946e-07
-1.57946e-07
-1.57946e-07
-1.57946e-07
-1.57946e-07
-1.57946e-07
-1.57946e-07
-1.57946e-07
-1.57946e-07
-1.57946e-07
-1.57946e-07
-1.57946e-07
-1.57946e-07
-1.57946e-07
-1.57946e-07
-1.57946e-07
-1.57946e-07
-1.57946e-07
-1.57946e-07
-1.57946e-07
-1.57946e-07
-1.57946e-07
-1.57946e-07
-1.57946e-07
-1.57946e-07
-1.57946e-07
-1.57946e-07
-1.57946e-07
-1.57946e-07
-1.57946e-07
-1.57946e-07
-1.57946e-07
-1.57946e-07
-1.57946e-07
-1.57946e-07
-1.57946e-07
-1.57946e-07
-1.57946e-07
-1.57946e-07
-1.57946e-07
-1.57946e-07
-1.57946e-07
-1.57946e-07
-1.57946e-07
-1.57946e-07
-1.57946e-07
-1.57928e-07
-1.57219e-07
-1.32212e-07
)
;

boundaryField
{
    inandouthalf11
    {
        type            cyclic;
        value           nonuniform List<scalar> 
100
(
1.60418e-41
1.6046e-41
1.6063e-41
1.21347e-31
1.6565e-30
1.21788e-29
6.52623e-29
2.90473e-28
1.15892e-27
4.35504e-27
1.59561e-26
5.83192e-26
2.16133e-25
8.21815e-25
3.22554e-24
1.30972e-23
5.49936e-23
2.38151e-22
1.05876e-21
4.80018e-21
2.19765e-20
1.00326e-19
4.50761e-19
1.96271e-18
8.15666e-18
3.19138e-17
1.16233e-16
3.90595e-16
1.20233e-15
3.36973e-15
8.56869e-15
1.97499e-14
4.12955e-14
7.85303e-14
1.36388e-13
2.17509e-13
3.20813e-13
4.41294e-13
5.71213e-13
7.02023e-13
8.26441e-13
9.39561e-13
1.03894e-12
1.12422e-12
1.19635e-12
1.25688e-12
1.3076e-12
1.35021e-12
1.38628e-12
1.41713e-12
1.44381e-12
1.46713e-12
1.48776e-12
1.50621e-12
1.52292e-12
1.53823e-12
1.55242e-12
1.56572e-12
1.57832e-12
1.59037e-12
1.602e-12
1.61332e-12
1.62444e-12
1.63544e-12
1.64645e-12
1.65759e-12
1.66905e-12
1.68109e-12
1.694e-12
1.7082e-12
1.72417e-12
1.74254e-12
1.76398e-12
1.78922e-12
1.81892e-12
1.85357e-12
1.89328e-12
1.93772e-12
1.98616e-12
2.03759e-12
2.09101e-12
2.14556e-12
2.20071e-12
2.25622e-12
2.31211e-12
2.36853e-12
2.42568e-12
2.48371e-12
2.54267e-12
2.60254e-12
2.66315e-12
2.72432e-12
2.78581e-12
2.8474e-12
2.90888e-12
2.97009e-12
3.03087e-12
3.09106e-12
3.15054e-12
3.20916e-12
)
;
    }
    inandouthalf12
    {
        type            cyclic;
        value           nonuniform List<scalar> 
100
(
-1.60418e-41
-1.6046e-41
-1.6063e-41
-1.21347e-31
-1.6565e-30
-1.21788e-29
-6.52623e-29
-2.90473e-28
-1.15892e-27
-4.35504e-27
-1.59561e-26
-5.83192e-26
-2.16133e-25
-8.21815e-25
-3.22554e-24
-1.30972e-23
-5.49936e-23
-2.38151e-22
-1.05876e-21
-4.80018e-21
-2.19765e-20
-1.00326e-19
-4.50761e-19
-1.96271e-18
-8.15666e-18
-3.19138e-17
-1.16233e-16
-3.90595e-16
-1.20233e-15
-3.36973e-15
-8.56869e-15
-1.97499e-14
-4.12955e-14
-7.85303e-14
-1.36388e-13
-2.17509e-13
-3.20813e-13
-4.41294e-13
-5.71213e-13
-7.02023e-13
-8.26441e-13
-9.39561e-13
-1.03894e-12
-1.12422e-12
-1.19635e-12
-1.25688e-12
-1.3076e-12
-1.35021e-12
-1.38628e-12
-1.41713e-12
-1.44381e-12
-1.46713e-12
-1.48776e-12
-1.50621e-12
-1.52292e-12
-1.53823e-12
-1.55242e-12
-1.56572e-12
-1.57832e-12
-1.59037e-12
-1.602e-12
-1.61332e-12
-1.62444e-12
-1.63544e-12
-1.64645e-12
-1.65759e-12
-1.66905e-12
-1.68109e-12
-1.694e-12
-1.7082e-12
-1.72417e-12
-1.74254e-12
-1.76398e-12
-1.78922e-12
-1.81892e-12
-1.85357e-12
-1.89328e-12
-1.93772e-12
-1.98616e-12
-2.03759e-12
-2.09101e-12
-2.14556e-12
-2.20071e-12
-2.25622e-12
-2.31211e-12
-2.36853e-12
-2.42568e-12
-2.48371e-12
-2.54267e-12
-2.60254e-12
-2.66315e-12
-2.72432e-12
-2.78581e-12
-2.8474e-12
-2.90888e-12
-2.97009e-12
-3.03087e-12
-3.09106e-12
-3.15054e-12
-3.20916e-12
)
;
    }
    inandouthalf21
    {
        type            cyclic;
        value           nonuniform List<scalar> 
100
(
3.26681e-12
3.32336e-12
3.37871e-12
3.43276e-12
3.48543e-12
3.53665e-12
3.58636e-12
3.6345e-12
3.68101e-12
3.72585e-12
3.76898e-12
3.81034e-12
3.84991e-12
3.88764e-12
3.92347e-12
3.95737e-12
3.98928e-12
4.01915e-12
4.04691e-12
4.0725e-12
4.09583e-12
4.11681e-12
4.13535e-12
4.15135e-12
4.16471e-12
4.17532e-12
4.1831e-12
4.18797e-12
4.18987e-12
4.18874e-12
4.18456e-12
4.17732e-12
4.16704e-12
4.15362e-12
4.13673e-12
4.11576e-12
4.0896e-12
4.05628e-12
4.0122e-12
3.95201e-12
3.87222e-12
3.77913e-12
3.68878e-12
3.62051e-12
3.59085e-12
3.5894e-12
3.58869e-12
-2.8881e-08
-7.95807e-08
-1.26271e-07
-1.68553e-07
-2.07602e-07
-2.43963e-07
-2.78122e-07
-3.10456e-07
-3.41251e-07
-3.70702e-07
-3.98957e-07
-4.26158e-07
-4.52441e-07
-4.77918e-07
-5.02675e-07
-5.26779e-07
-5.50274e-07
-5.7319e-07
-5.95536e-07
-6.17309e-07
-6.38485e-07
-6.59023e-07
-6.78864e-07
-6.97925e-07
-7.16102e-07
-7.33266e-07
-7.49259e-07
-7.63902e-07
-7.76994e-07
-7.88346e-07
-7.97838e-07
-8.05498e-07
-8.11554e-07
-8.16366e-07
-8.20304e-07
-8.23652e-07
-8.26607e-07
-8.29298e-07
-8.31793e-07
-8.34129e-07
-8.36328e-07
-8.38409e-07
-8.40383e-07
-8.42262e-07
-8.44055e-07
-8.45768e-07
-8.47411e-07
-8.48985e-07
-8.50494e-07
-8.51942e-07
-8.53336e-07
-8.54676e-07
-8.5596e-07
)
;
    }
    inandouthalf22
    {
        type            cyclic;
        value           nonuniform List<scalar> 
100
(
-3.26681e-12
-3.32336e-12
-3.37871e-12
-3.43276e-12
-3.48543e-12
-3.53665e-12
-3.58636e-12
-3.6345e-12
-3.68101e-12
-3.72585e-12
-3.76898e-12
-3.81034e-12
-3.84991e-12
-3.88764e-12
-3.92347e-12
-3.95737e-12
-3.98928e-12
-4.01915e-12
-4.04691e-12
-4.0725e-12
-4.09583e-12
-4.11681e-12
-4.13535e-12
-4.15135e-12
-4.16471e-12
-4.17532e-12
-4.1831e-12
-4.18797e-12
-4.18987e-12
-4.18874e-12
-4.18456e-12
-4.17732e-12
-4.16704e-12
-4.15362e-12
-4.13673e-12
-4.11576e-12
-4.0896e-12
-4.05628e-12
-4.0122e-12
-3.95201e-12
-3.87222e-12
-3.77913e-12
-3.68878e-12
-3.62051e-12
-3.59085e-12
-3.5894e-12
-3.58869e-12
2.8881e-08
7.95807e-08
1.26271e-07
1.68553e-07
2.07602e-07
2.43963e-07
2.78122e-07
3.10456e-07
3.41251e-07
3.70702e-07
3.98957e-07
4.26158e-07
4.52441e-07
4.77918e-07
5.02675e-07
5.26779e-07
5.50274e-07
5.7319e-07
5.95536e-07
6.17309e-07
6.38485e-07
6.59023e-07
6.78864e-07
6.97925e-07
7.16102e-07
7.33266e-07
7.49259e-07
7.63902e-07
7.76994e-07
7.88346e-07
7.97838e-07
8.05498e-07
8.11554e-07
8.16366e-07
8.20304e-07
8.23652e-07
8.26607e-07
8.29298e-07
8.31793e-07
8.34129e-07
8.36328e-07
8.38409e-07
8.40383e-07
8.42262e-07
8.44055e-07
8.45768e-07
8.47411e-07
8.48985e-07
8.50494e-07
8.51942e-07
8.53336e-07
8.54676e-07
8.5596e-07
)
;
    }
    inandouthalf31
    {
        type            cyclic;
        value           nonuniform List<scalar> 
110
(
-8.57191e-07
-8.75801e-07
-8.94792e-07
-9.14173e-07
-9.33939e-07
-9.54096e-07
-9.74669e-07
-9.95679e-07
-1.01711e-06
-1.03898e-06
-1.06129e-06
-1.08409e-06
-1.10734e-06
-1.13107e-06
-1.15531e-06
-1.18005e-06
-1.20528e-06
-1.23106e-06
-1.25739e-06
-1.28425e-06
-1.31166e-06
-1.33966e-06
-1.36824e-06
-1.39743e-06
-1.42724e-06
-1.45766e-06
-1.48872e-06
-1.52045e-06
-1.55284e-06
-1.58591e-06
-1.61968e-06
-1.65415e-06
-1.68933e-06
-1.72524e-06
-1.76189e-06
-1.79928e-06
-1.8374e-06
-1.87627e-06
-1.91588e-06
-1.95617e-06
-1.99709e-06
-2.03889e-06
-2.19745e-06
-2.24206e-06
-2.28758e-06
-2.33401e-06
-2.38139e-06
-2.42973e-06
-2.47905e-06
-2.52938e-06
-2.58072e-06
-2.6331e-06
-2.68655e-06
-2.74108e-06
-2.79672e-06
-2.85348e-06
-2.9114e-06
-2.9705e-06
-3.03079e-06
-3.09231e-06
-3.15507e-06
-3.21911e-06
-3.28445e-06
-3.35112e-06
-3.41914e-06
-3.48854e-06
-3.55935e-06
-3.63159e-06
-3.7053e-06
-3.78051e-06
-3.85724e-06
-3.93554e-06
-4.01542e-06
-4.09692e-06
-4.18008e-06
-4.26492e-06
-4.35149e-06
-4.43981e-06
-4.52993e-06
-4.62187e-06
-4.71568e-06
-4.8114e-06
-4.90906e-06
-5.0087e-06
-5.11036e-06
-5.21409e-06
-5.31992e-06
-5.4279e-06
-5.53807e-06
-5.65048e-06
-5.76517e-06
-5.88219e-06
-6.00158e-06
-6.1234e-06
-6.24769e-06
-6.3745e-06
-6.50388e-06
-6.6359e-06
-6.77059e-06
-6.90801e-06
-7.04823e-06
-7.19129e-06
-7.33725e-06
-7.48618e-06
-7.63813e-06
-7.79316e-06
-7.95134e-06
-8.11273e-06
-8.2774e-06
-8.44541e-06
)
;
    }
    inandouthalf32
    {
        type            cyclic;
        value           nonuniform List<scalar> 
110
(
8.57191e-07
8.75801e-07
8.94792e-07
9.14173e-07
9.33939e-07
9.54096e-07
9.74669e-07
9.95679e-07
1.01711e-06
1.03898e-06
1.06129e-06
1.08409e-06
1.10734e-06
1.13107e-06
1.15531e-06
1.18005e-06
1.20528e-06
1.23106e-06
1.25739e-06
1.28425e-06
1.31166e-06
1.33966e-06
1.36824e-06
1.39743e-06
1.42724e-06
1.45766e-06
1.48872e-06
1.52045e-06
1.55284e-06
1.58591e-06
1.61968e-06
1.65415e-06
1.68933e-06
1.72524e-06
1.76189e-06
1.79928e-06
1.8374e-06
1.87627e-06
1.91588e-06
1.95617e-06
1.99709e-06
2.03889e-06
2.19745e-06
2.24206e-06
2.28758e-06
2.33401e-06
2.38139e-06
2.42973e-06
2.47905e-06
2.52938e-06
2.58072e-06
2.6331e-06
2.68655e-06
2.74108e-06
2.79672e-06
2.85348e-06
2.9114e-06
2.9705e-06
3.03079e-06
3.09231e-06
3.15507e-06
3.21911e-06
3.28445e-06
3.35112e-06
3.41914e-06
3.48854e-06
3.55935e-06
3.63159e-06
3.7053e-06
3.78051e-06
3.85724e-06
3.93554e-06
4.01542e-06
4.09692e-06
4.18008e-06
4.26492e-06
4.35149e-06
4.43981e-06
4.52993e-06
4.62187e-06
4.71568e-06
4.8114e-06
4.90906e-06
5.0087e-06
5.11036e-06
5.21409e-06
5.31992e-06
5.4279e-06
5.53807e-06
5.65048e-06
5.76517e-06
5.88219e-06
6.00158e-06
6.1234e-06
6.24769e-06
6.3745e-06
6.50388e-06
6.6359e-06
6.77059e-06
6.90801e-06
7.04823e-06
7.19129e-06
7.33725e-06
7.48618e-06
7.63813e-06
7.79316e-06
7.95134e-06
8.11273e-06
8.2774e-06
8.44541e-06
)
;
    }
    inandouthalf41
    {
        type            cyclic;
        value           nonuniform List<scalar> 
50
(
-7.5595e-06
-7.5595e-06
-7.5595e-06
-7.5595e-06
-7.5595e-06
-7.5595e-06
-7.5595e-06
-7.5595e-06
-7.5595e-06
-7.5595e-06
-7.5595e-06
-7.5595e-06
-7.5595e-06
-7.5595e-06
-7.5595e-06
-7.5595e-06
-7.5595e-06
-7.5595e-06
-7.5595e-06
-7.5595e-06
-7.5595e-06
-7.5595e-06
-7.5595e-06
-7.5595e-06
-7.5595e-06
-7.5595e-06
-7.5595e-06
-7.5595e-06
-7.5595e-06
-7.5595e-06
-7.5595e-06
-7.5595e-06
-7.5595e-06
-7.5595e-06
-7.5595e-06
-7.5595e-06
-7.5595e-06
-7.5595e-06
-7.5595e-06
-7.5595e-06
-7.5595e-06
-7.5595e-06
-7.5595e-06
-7.5595e-06
-7.5595e-06
-7.5595e-06
-7.5595e-06
-7.55951e-06
-7.55976e-06
-7.56563e-06
)
;
    }
    inandouthalf42
    {
        type            cyclic;
        value           nonuniform List<scalar> 
50
(
7.5595e-06
7.5595e-06
7.5595e-06
7.5595e-06
7.5595e-06
7.5595e-06
7.5595e-06
7.5595e-06
7.5595e-06
7.5595e-06
7.5595e-06
7.5595e-06
7.5595e-06
7.5595e-06
7.5595e-06
7.5595e-06
7.5595e-06
7.5595e-06
7.5595e-06
7.5595e-06
7.5595e-06
7.5595e-06
7.5595e-06
7.5595e-06
7.5595e-06
7.5595e-06
7.5595e-06
7.5595e-06
7.5595e-06
7.5595e-06
7.5595e-06
7.5595e-06
7.5595e-06
7.5595e-06
7.5595e-06
7.5595e-06
7.5595e-06
7.5595e-06
7.5595e-06
7.5595e-06
7.5595e-06
7.5595e-06
7.5595e-06
7.5595e-06
7.5595e-06
7.5595e-06
7.5595e-06
7.55951e-06
7.55976e-06
7.56563e-06
)
;
    }
    top
    {
        type            symmetryPlane;
        value           uniform 0;
    }
    walls
    {
        type            fixedValue;
        value           uniform 0;
    }
    frontAndBackPlanes
    {
        type            empty;
        value           nonuniform 0();
    }
}


// ************************************************************************* //
