/*--------------------------------*- C++ -*----------------------------------*\
| =========                 |                                                 |
| \\      /  F ield         | OpenFOAM: The Open Source CFD Toolbox           |
|  \\    /   O peration     | Version:  2.4.x                                 |
|   \\  /    A nd           | Web:      www.OpenFOAM.org                      |
|    \\/     M anipulation  |                                                 |
\*---------------------------------------------------------------------------*/
FoamFile
{
    version     2.0;
    format      ascii;
    class       surfaceScalarField;
    location    "2.45";
    object      phib;
}
// * * * * * * * * * * * * * * * * * * * * * * * * * * * * * * * * * * * * * //

dimensions      [0 3 -1 0 0 0 0];

internalField   nonuniform List<scalar> 
359
(
-1.09416e-18
-2.19282e-18
-3.29426e-18
-4.39493e-18
-5.49471e-18
-6.5911e-18
-7.68399e-18
-8.77234e-18
-9.84988e-18
-1.09294e-17
-1.1992e-17
-1.30557e-17
-1.40988e-17
-1.51408e-17
-1.61637e-17
-1.71836e-17
-1.81767e-17
-1.91512e-17
-2.00281e-17
-2.05696e-17
-1.95992e-17
-1.20593e-17
2.33856e-17
1.70871e-16
7.38489e-16
2.75835e-15
9.35793e-15
2.90314e-14
8.21258e-14
2.11262e-13
4.93523e-13
1.04835e-12
2.02708e-12
3.58476e-12
5.82093e-12
8.73798e-12
1.2216e-11
1.60422e-11
1.99635e-11
2.37381e-11
2.72001e-11
3.02529e-11
3.28684e-11
3.5071e-11
3.69047e-11
3.84251e-11
3.96873e-11
4.07398e-11
4.16262e-11
4.23816e-11
4.3032e-11
4.35988e-11
4.40984e-11
4.45443e-11
4.49468e-11
4.5315e-11
4.56555e-11
4.59739e-11
4.62749e-11
4.65619e-11
4.68385e-11
4.71071e-11
4.73704e-11
4.76308e-11
4.78914e-11
4.81559e-11
4.84294e-11
4.87188e-11
4.90325e-11
4.93812e-11
4.97787e-11
5.0241e-11
5.07853e-11
5.14298e-11
5.21894e-11
5.30734e-11
5.40801e-11
5.51979e-11
5.64069e-11
5.76831e-11
5.90041e-11
6.03536e-11
6.1723e-11
6.31105e-11
6.45196e-11
6.59558e-11
6.74249e-11
6.8931e-11
7.04753e-11
7.20567e-11
7.36715e-11
7.53151e-11
7.69823e-11
7.86686e-11
8.03698e-11
8.20822e-11
8.38027e-11
8.55282e-11
8.72558e-11
8.89824e-11
9.07052e-11
9.24218e-11
9.41299e-11
9.58275e-11
9.7513e-11
9.91851e-11
1.00843e-10
1.02485e-10
1.0411e-10
1.05719e-10
1.0731e-10
1.08884e-10
1.10439e-10
1.11977e-10
1.13495e-10
1.14995e-10
1.16476e-10
1.17937e-10
1.19379e-10
1.20799e-10
1.22198e-10
1.23574e-10
1.24924e-10
1.26245e-10
1.27535e-10
1.28791e-10
1.30009e-10
1.31185e-10
1.32318e-10
1.33401e-10
1.34431e-10
1.35403e-10
1.36321e-10
1.37194e-10
1.38038e-10
1.38876e-10
1.39736e-10
1.40658e-10
1.41694e-10
1.42885e-10
1.44167e-10
1.45269e-10
1.45977e-10
1.46184e-10
1.45919e-10
1.40072e-10
8.08701e-10
7.06216e-10
6.80196e-10
6.62239e-10
6.20297e-10
5.49155e-10
4.61213e-10
3.68029e-10
2.70475e-10
1.65108e-10
4.94782e-11
-7.45977e-11
-2.0408e-10
-3.25991e-10
-4.31991e-10
-5.18451e-10
-5.84719e-10
-6.31666e-10
-6.61021e-10
-6.74627e-10
-6.74525e-10
-6.62495e-10
-6.40199e-10
-6.09088e-10
-5.70479e-10
-5.25654e-10
-4.75999e-10
-4.22832e-10
-3.66521e-10
-3.0558e-10
-2.38461e-10
-1.68685e-10
-1.06348e-10
-6.06357e-11
-3.28056e-11
-1.80148e-11
-1.06697e-11
-6.99266e-12
-5.01627e-12
-3.8441e-12
-3.06919e-12
-2.51203e-12
-2.09139e-12
-1.76555e-12
-1.50531e-12
-1.29141e-12
-1.1135e-12
-9.67756e-13
-8.45712e-13
-7.41526e-13
-6.49737e-13
-5.71336e-13
-5.05739e-13
-4.49955e-13
-3.99867e-13
-3.51867e-13
-3.09768e-13
-2.76345e-13
-2.47382e-13
-2.17327e-13
-1.88552e-13
-1.66635e-13
-1.48828e-13
-1.29952e-13
-1.12578e-13
-9.919e-14
-8.69608e-14
-7.50076e-14
-6.54678e-14
-5.76559e-14
-4.95195e-14
-4.2108e-14
-3.67586e-14
-3.1966e-14
-2.70905e-14
-2.31093e-14
-1.97079e-14
-1.65973e-14
-1.41399e-14
-1.1966e-14
-9.88978e-15
-8.29745e-15
-6.97341e-15
-5.70207e-15
-4.71267e-15
-3.89527e-15
-3.15813e-15
-2.55256e-15
-2.04816e-15
-1.64182e-15
-1.29389e-15
-1.01305e-15
-8.16984e-16
-6.89028e-16
-1.28595e-15
1.06598e-15
-1.03971e-17
-1.16893e-17
-1.18701e-17
-1.20513e-17
-1.20877e-17
-1.21002e-17
-1.20274e-17
-1.19871e-17
-1.18243e-17
-1.17226e-17
-1.15107e-17
-1.13147e-17
-1.10303e-17
-1.07799e-17
-1.04588e-17
-1.01577e-17
-9.78256e-18
-9.4382e-18
-9.05287e-18
-8.70926e-18
-8.34434e-18
-8.05501e-18
-7.81323e-18
-7.64395e-18
-7.42401e-18
-7.29145e-18
-7.17331e-18
-7.05866e-18
-6.92838e-18
-6.7981e-18
-6.71059e-18
-6.61015e-18
-6.49165e-18
-6.32913e-18
-6.18022e-18
-5.98042e-18
-5.76734e-18
-5.52352e-18
-5.37214e-18
-5.19269e-18
-5.01081e-18
-4.76783e-18
-4.55644e-18
-4.27996e-18
-3.95834e-18
-3.61395e-18
-3.3389e-18
-3.01625e-18
-2.68867e-18
-2.30658e-18
-1.96275e-18
-1.5811e-18
-1.22014e-18
-8.79104e-19
-9.34932e-19
-8.56228e-19
-8.09917e-19
-6.88497e-19
-6.65722e-19
-6.28814e-19
-5.94013e-19
-5.46597e-19
-5.34066e-19
-5.10897e-19
-4.89416e-19
-4.54785e-19
-4.29276e-19
-3.9357e-19
-3.62809e-19
-3.28767e-19
-3.06743e-19
-2.84344e-19
-2.62266e-19
-2.40491e-19
-2.18573e-19
-1.99386e-19
-1.79633e-19
-1.63518e-19
-1.40562e-19
-1.23723e-19
-1.07091e-19
-9.98399e-20
-8.44386e-20
-8.10505e-20
-7.66466e-20
-8.43443e-20
-5.33697e-20
-5.39222e-20
-5.49446e-20
-1.16168e-19
-1.2413e-19
-2.21974e-19
-3.17692e-19
-5.06368e-19
-5.4292e-19
-6.97869e-19
-8.5434e-19
-1.15583e-18
-1.36777e-18
-1.71702e-18
-2.07692e-18
-2.53597e-18
-2.98772e-18
-3.49084e-18
-4.00345e-18
-4.51316e-18
-5.11276e-18
-5.54233e-18
-6.0127e-18
-6.30321e-18
-7.19694e-18
-7.46703e-18
-7.72531e-18
-7.19498e-18
-6.77078e-18
-6.20839e-18
-6.56288e-18
)
;

boundaryField
{
    inandouthalf11
    {
        type            cyclic;
        value           nonuniform List<scalar> 
100
(
2.49048e-10
2.49472e-10
2.49474e-10
2.49474e-10
2.49474e-10
2.49477e-10
2.49477e-10
2.49479e-10
2.49479e-10
2.49481e-10
2.49483e-10
2.49483e-10
2.49485e-10
2.49487e-10
2.49489e-10
2.49491e-10
2.49493e-10
2.49495e-10
2.49498e-10
2.49502e-10
2.49504e-10
2.49508e-10
2.49512e-10
2.49516e-10
2.49521e-10
2.49525e-10
2.49529e-10
2.49536e-10
2.49543e-10
2.49551e-10
2.49562e-10
2.49581e-10
2.49608e-10
2.49653e-10
2.49716e-10
2.49804e-10
2.49912e-10
2.50039e-10
2.50178e-10
2.50315e-10
2.5045e-10
2.50574e-10
2.50685e-10
2.50787e-10
2.50875e-10
2.50955e-10
2.51027e-10
2.5109e-10
2.51152e-10
2.51211e-10
2.51267e-10
2.51323e-10
2.51377e-10
2.51433e-10
2.51488e-10
2.51547e-10
2.51605e-10
2.51667e-10
2.5173e-10
2.51794e-10
2.51863e-10
2.51931e-10
2.52002e-10
2.52074e-10
2.52147e-10
2.52221e-10
2.52299e-10
2.5238e-10
2.52465e-10
2.52554e-10
2.5265e-10
2.52754e-10
2.52862e-10
2.52978e-10
2.53101e-10
2.53232e-10
2.53367e-10
2.53507e-10
2.53652e-10
2.538e-10
2.53951e-10
2.54106e-10
2.54264e-10
2.54425e-10
2.5459e-10
2.54759e-10
2.54931e-10
2.55107e-10
2.55286e-10
2.55467e-10
2.55652e-10
2.55839e-10
2.56029e-10
2.56221e-10
2.56416e-10
2.56614e-10
2.56814e-10
2.57016e-10
2.57221e-10
2.57429e-10
)
;
    }
    inandouthalf12
    {
        type            cyclic;
        value           nonuniform List<scalar> 
100
(
-2.49048e-10
-2.49472e-10
-2.49474e-10
-2.49474e-10
-2.49474e-10
-2.49477e-10
-2.49477e-10
-2.49479e-10
-2.49479e-10
-2.49481e-10
-2.49483e-10
-2.49483e-10
-2.49485e-10
-2.49487e-10
-2.49489e-10
-2.49491e-10
-2.49493e-10
-2.49495e-10
-2.49498e-10
-2.49502e-10
-2.49504e-10
-2.49508e-10
-2.49512e-10
-2.49516e-10
-2.49521e-10
-2.49525e-10
-2.49529e-10
-2.49536e-10
-2.49543e-10
-2.49551e-10
-2.49562e-10
-2.49581e-10
-2.49608e-10
-2.49653e-10
-2.49716e-10
-2.49804e-10
-2.49912e-10
-2.50039e-10
-2.50178e-10
-2.50315e-10
-2.5045e-10
-2.50574e-10
-2.50685e-10
-2.50787e-10
-2.50875e-10
-2.50955e-10
-2.51027e-10
-2.5109e-10
-2.51152e-10
-2.51211e-10
-2.51267e-10
-2.51323e-10
-2.51377e-10
-2.51433e-10
-2.51488e-10
-2.51547e-10
-2.51605e-10
-2.51667e-10
-2.5173e-10
-2.51794e-10
-2.51863e-10
-2.51931e-10
-2.52002e-10
-2.52074e-10
-2.52147e-10
-2.52221e-10
-2.52299e-10
-2.5238e-10
-2.52465e-10
-2.52554e-10
-2.5265e-10
-2.52754e-10
-2.52862e-10
-2.52978e-10
-2.53101e-10
-2.53232e-10
-2.53367e-10
-2.53507e-10
-2.53652e-10
-2.538e-10
-2.53951e-10
-2.54106e-10
-2.54264e-10
-2.54425e-10
-2.5459e-10
-2.54759e-10
-2.54931e-10
-2.55107e-10
-2.55286e-10
-2.55467e-10
-2.55652e-10
-2.55839e-10
-2.56029e-10
-2.56221e-10
-2.56416e-10
-2.56614e-10
-2.56814e-10
-2.57016e-10
-2.57221e-10
-2.57429e-10
)
;
    }
    inandouthalf21
    {
        type            cyclic;
        value           nonuniform List<scalar> 
100
(
2.57639e-10
2.57851e-10
2.58065e-10
2.58282e-10
2.58502e-10
2.58724e-10
2.58949e-10
2.59177e-10
2.59408e-10
2.59642e-10
2.59879e-10
2.6012e-10
2.60365e-10
2.60614e-10
2.60867e-10
2.61125e-10
2.61387e-10
2.61654e-10
2.61927e-10
2.62205e-10
2.6249e-10
2.62781e-10
2.6308e-10
2.63386e-10
2.637e-10
2.64022e-10
2.64355e-10
2.64698e-10
2.65053e-10
2.65421e-10
2.65802e-10
2.66197e-10
2.66606e-10
2.67034e-10
2.67486e-10
2.67958e-10
2.68444e-10
2.68949e-10
2.69497e-10
2.7011e-10
2.70745e-10
2.713e-10
2.71991e-10
2.72974e-10
2.74259e-10
2.75797e-10
1.0315e-10
-3.14512e-08
-8.41157e-08
-1.30652e-07
-1.72437e-07
-2.10698e-07
-2.4623e-07
-2.79571e-07
-3.11116e-07
-3.41159e-07
-3.69933e-07
-3.97625e-07
-4.24386e-07
-4.50343e-07
-4.75598e-07
-5.00235e-07
-5.24321e-07
-5.47914e-07
-5.7106e-07
-5.93798e-07
-6.1616e-07
-6.38172e-07
-6.59855e-07
-6.81225e-07
-7.02292e-07
-7.23063e-07
-7.43541e-07
-7.63719e-07
-7.83588e-07
-8.03126e-07
-8.22299e-07
-8.41045e-07
-8.59263e-07
-8.76781e-07
-8.93323e-07
-9.08543e-07
-9.19423e-07
-9.22957e-07
-9.24446e-07
-9.25709e-07
-9.2686e-07
-9.27911e-07
-9.28874e-07
-9.29758e-07
-9.3057e-07
-9.31315e-07
-9.32001e-07
-9.32631e-07
-9.33212e-07
-9.33746e-07
-9.34238e-07
-9.3469e-07
-9.35107e-07
-9.35492e-07
)
;
    }
    inandouthalf22
    {
        type            cyclic;
        value           nonuniform List<scalar> 
100
(
-2.57639e-10
-2.57851e-10
-2.58065e-10
-2.58282e-10
-2.58502e-10
-2.58724e-10
-2.58949e-10
-2.59177e-10
-2.59408e-10
-2.59642e-10
-2.59879e-10
-2.6012e-10
-2.60365e-10
-2.60614e-10
-2.60867e-10
-2.61125e-10
-2.61387e-10
-2.61654e-10
-2.61927e-10
-2.62205e-10
-2.6249e-10
-2.62781e-10
-2.6308e-10
-2.63386e-10
-2.637e-10
-2.64022e-10
-2.64355e-10
-2.64698e-10
-2.65053e-10
-2.65421e-10
-2.65802e-10
-2.66197e-10
-2.66606e-10
-2.67034e-10
-2.67486e-10
-2.67958e-10
-2.68444e-10
-2.68949e-10
-2.69497e-10
-2.7011e-10
-2.70745e-10
-2.713e-10
-2.71991e-10
-2.72974e-10
-2.74259e-10
-2.75797e-10
-1.0315e-10
3.14512e-08
8.41157e-08
1.30652e-07
1.72437e-07
2.10698e-07
2.4623e-07
2.79571e-07
3.11116e-07
3.41159e-07
3.69933e-07
3.97625e-07
4.24386e-07
4.50343e-07
4.75598e-07
5.00235e-07
5.24321e-07
5.47914e-07
5.7106e-07
5.93798e-07
6.1616e-07
6.38172e-07
6.59855e-07
6.81225e-07
7.02292e-07
7.23063e-07
7.43541e-07
7.63719e-07
7.83588e-07
8.03126e-07
8.22299e-07
8.41045e-07
8.59263e-07
8.76781e-07
8.93323e-07
9.08543e-07
9.19423e-07
9.22957e-07
9.24446e-07
9.25709e-07
9.2686e-07
9.27911e-07
9.28874e-07
9.29758e-07
9.3057e-07
9.31315e-07
9.32001e-07
9.32631e-07
9.33212e-07
9.33746e-07
9.34238e-07
9.3469e-07
9.35107e-07
9.35492e-07
)
;
    }
    inandouthalf31
    {
        type            cyclic;
        value           nonuniform List<scalar> 
110
(
-9.35849e-07
-9.55181e-07
-9.74891e-07
-9.94986e-07
-1.01548e-06
-1.03637e-06
-1.05767e-06
-1.07939e-06
-1.10154e-06
-1.12412e-06
-1.14715e-06
-1.17064e-06
-1.19459e-06
-1.21902e-06
-1.24393e-06
-1.26933e-06
-1.29524e-06
-1.32167e-06
-1.34862e-06
-1.37611e-06
-1.40415e-06
-1.43275e-06
-1.46192e-06
-1.49168e-06
-1.52203e-06
-1.55299e-06
-1.58458e-06
-1.6168e-06
-1.64967e-06
-1.6832e-06
-1.71741e-06
-1.75231e-06
-1.78791e-06
-1.82423e-06
-1.86128e-06
-1.89909e-06
-1.93765e-06
-1.977e-06
-2.01715e-06
-2.0581e-06
-2.09989e-06
-2.14252e-06
-2.18602e-06
-2.2304e-06
-2.27568e-06
-2.32187e-06
-2.369e-06
-2.41709e-06
-2.46616e-06
-2.51622e-06
-2.56729e-06
-2.6194e-06
-2.67257e-06
-2.72682e-06
-2.78217e-06
-2.83864e-06
-2.89626e-06
-2.95505e-06
-3.01502e-06
-3.07622e-06
-3.13866e-06
-3.20237e-06
-3.26737e-06
-3.33369e-06
-3.40135e-06
-3.47039e-06
-3.54083e-06
-3.6127e-06
-3.68603e-06
-3.76085e-06
-3.83718e-06
-3.91506e-06
-3.99453e-06
-4.07561e-06
-4.15833e-06
-4.24274e-06
-4.32885e-06
-4.41672e-06
-4.50636e-06
-4.59783e-06
-4.69115e-06
-4.78637e-06
-4.88352e-06
-4.98265e-06
-5.08378e-06
-5.18697e-06
-5.29225e-06
-5.39967e-06
-5.50927e-06
-5.62109e-06
-5.73518e-06
-5.85159e-06
-5.97036e-06
-6.09155e-06
-6.21519e-06
-6.34134e-06
-6.47005e-06
-6.60138e-06
-6.73537e-06
-6.87208e-06
-7.01156e-06
-7.15388e-06
-7.29908e-06
-7.44723e-06
-7.59839e-06
-7.75262e-06
-7.90998e-06
-8.07053e-06
-8.23434e-06
-8.40148e-06
)
;
    }
    inandouthalf32
    {
        type            cyclic;
        value           nonuniform List<scalar> 
110
(
9.35849e-07
9.55181e-07
9.74891e-07
9.94986e-07
1.01548e-06
1.03637e-06
1.05767e-06
1.07939e-06
1.10154e-06
1.12412e-06
1.14715e-06
1.17064e-06
1.19459e-06
1.21902e-06
1.24393e-06
1.26933e-06
1.29524e-06
1.32167e-06
1.34862e-06
1.37611e-06
1.40415e-06
1.43275e-06
1.46192e-06
1.49168e-06
1.52203e-06
1.55299e-06
1.58458e-06
1.6168e-06
1.64967e-06
1.6832e-06
1.71741e-06
1.75231e-06
1.78791e-06
1.82423e-06
1.86128e-06
1.89909e-06
1.93765e-06
1.977e-06
2.01715e-06
2.0581e-06
2.09989e-06
2.14252e-06
2.18602e-06
2.2304e-06
2.27568e-06
2.32187e-06
2.369e-06
2.41709e-06
2.46616e-06
2.51622e-06
2.56729e-06
2.6194e-06
2.67257e-06
2.72682e-06
2.78217e-06
2.83864e-06
2.89626e-06
2.95505e-06
3.01502e-06
3.07622e-06
3.13866e-06
3.20237e-06
3.26737e-06
3.33369e-06
3.40135e-06
3.47039e-06
3.54083e-06
3.6127e-06
3.68603e-06
3.76085e-06
3.83718e-06
3.91506e-06
3.99453e-06
4.07561e-06
4.15833e-06
4.24274e-06
4.32885e-06
4.41672e-06
4.50636e-06
4.59783e-06
4.69115e-06
4.78637e-06
4.88352e-06
4.98265e-06
5.08378e-06
5.18697e-06
5.29225e-06
5.39967e-06
5.50927e-06
5.62109e-06
5.73518e-06
5.85159e-06
5.97036e-06
6.09155e-06
6.21519e-06
6.34134e-06
6.47005e-06
6.60138e-06
6.73537e-06
6.87208e-06
7.01156e-06
7.15388e-06
7.29908e-06
7.44723e-06
7.59839e-06
7.75262e-06
7.90998e-06
8.07053e-06
8.23434e-06
8.40148e-06
)
;
    }
    inandouthalf41
    {
        type            cyclic;
        value           nonuniform List<scalar> 
50
(
-7.52018e-06
-7.52018e-06
-7.52018e-06
-7.52018e-06
-7.52018e-06
-7.52018e-06
-7.52018e-06
-7.52018e-06
-7.52018e-06
-7.52018e-06
-7.52018e-06
-7.52018e-06
-7.52018e-06
-7.52018e-06
-7.52018e-06
-7.52018e-06
-7.52018e-06
-7.52018e-06
-7.52018e-06
-7.52018e-06
-7.52018e-06
-7.52018e-06
-7.52018e-06
-7.52018e-06
-7.52018e-06
-7.52018e-06
-7.52018e-06
-7.52018e-06
-7.52018e-06
-7.52018e-06
-7.52018e-06
-7.52018e-06
-7.52018e-06
-7.52018e-06
-7.52018e-06
-7.52018e-06
-7.52018e-06
-7.52018e-06
-7.52018e-06
-7.52018e-06
-7.52018e-06
-7.52018e-06
-7.52018e-06
-7.52018e-06
-7.52018e-06
-7.52018e-06
-7.52018e-06
-7.52018e-06
-7.52018e-06
-7.52018e-06
)
;
    }
    inandouthalf42
    {
        type            cyclic;
        value           nonuniform List<scalar> 
50
(
7.52018e-06
7.52018e-06
7.52018e-06
7.52018e-06
7.52018e-06
7.52018e-06
7.52018e-06
7.52018e-06
7.52018e-06
7.52018e-06
7.52018e-06
7.52018e-06
7.52018e-06
7.52018e-06
7.52018e-06
7.52018e-06
7.52018e-06
7.52018e-06
7.52018e-06
7.52018e-06
7.52018e-06
7.52018e-06
7.52018e-06
7.52018e-06
7.52018e-06
7.52018e-06
7.52018e-06
7.52018e-06
7.52018e-06
7.52018e-06
7.52018e-06
7.52018e-06
7.52018e-06
7.52018e-06
7.52018e-06
7.52018e-06
7.52018e-06
7.52018e-06
7.52018e-06
7.52018e-06
7.52018e-06
7.52018e-06
7.52018e-06
7.52018e-06
7.52018e-06
7.52018e-06
7.52018e-06
7.52018e-06
7.52018e-06
7.52018e-06
)
;
    }
    top
    {
        type            symmetryPlane;
        value           uniform 0;
    }
    walls
    {
        type            fixedValue;
        value           uniform 0;
    }
    frontAndBackPlanes
    {
        type            empty;
        value           nonuniform 0();
    }
}


// ************************************************************************* //
