/*--------------------------------*- C++ -*----------------------------------*\
| =========                 |                                                 |
| \\      /  F ield         | OpenFOAM: The Open Source CFD Toolbox           |
|  \\    /   O peration     | Version:  2.4.x                                 |
|   \\  /    A nd           | Web:      www.OpenFOAM.org                      |
|    \\/     M anipulation  |                                                 |
\*---------------------------------------------------------------------------*/
FoamFile
{
    version     2.0;
    format      ascii;
    class       volTensorField;
    location    "2.45";
    object      Tauf;
}
// * * * * * * * * * * * * * * * * * * * * * * * * * * * * * * * * * * * * * //

dimensions      [0 2 -2 0 0 0 0];

internalField   nonuniform List<tensor> 
360
(
(0 -4.9852e-07 0 -4.9852e-07 -1.09525e-15 0 0 0 0)
(0 -4.26908e-10 0 -4.26908e-10 -1.09832e-15 0 0 0 0)
(0 -2.45559e-12 0 -2.45559e-12 -1.1005e-15 0 0 0 0)
(0 -3.87651e-15 0 -3.87651e-15 -1.10063e-15 0 0 0 0)
(5.16988e-23 -2.0936e-12 0 -2.0936e-12 -1.09916e-15 0 0 0 0)
(5.16988e-23 -2.09538e-12 0 -2.09538e-12 -1.09636e-15 0 0 0 0)
(5.16988e-23 -2.09539e-12 0 -2.09539e-12 -1.09263e-15 0 0 0 0)
(0 -2.0954e-12 0 -2.0954e-12 -1.08678e-15 0 0 0 0)
(5.16988e-23 -2.09719e-12 0 -2.09719e-12 -1.08074e-15 0 0 0 0)
(0 -4.18727e-12 0 -4.18727e-12 -1.07484e-15 0 0 0 0)
(5.16988e-23 -2.09721e-12 0 -2.09721e-12 -1.06708e-15 0 0 0 0)
(0 -2.09723e-12 0 -2.09723e-12 -1.05823e-15 0 0 0 0)
(5.16988e-23 -4.18911e-12 0 -4.18911e-12 -1.04798e-15 0 0 0 0)
(0 -4.19093e-12 0 -4.19093e-12 -1.03752e-15 0 0 0 0)
(0 -4.19096e-12 0 -4.19096e-12 -1.02692e-15 0 0 0 0)
(0 -4.19099e-12 0 -4.19099e-12 -1.01394e-15 0 0 0 0)
(0 -4.19103e-12 0 -4.19103e-12 -9.9518e-16 0 0 0 0)
(5.16988e-23 -4.19284e-12 0 -4.19284e-12 -9.54855e-16 0 0 0 0)
(0 -6.28487e-12 0 -6.28487e-12 -8.18041e-16 0 0 0 0)
(0 -6.28672e-12 0 -6.28672e-12 -2.50266e-16 0 0 0 0)
(0 -6.28867e-12 0 -6.28867e-12 2.21267e-15 0 0 0 0)
(5.16988e-23 -8.38109e-12 0 -8.38109e-12 1.26351e-14 0 0 0 0)
(0 -8.38431e-12 0 -8.38431e-12 5.41428e-14 0 0 0 0)
(0 -8.38981e-12 0 -8.38981e-12 2.08171e-13 0 0 0 0)
(0 -8.41045e-12 0 -8.41045e-12 7.50681e-13 0 0 0 0)
(5.16988e-23 -8.48463e-12 0 -8.48463e-12 2.56077e-12 0 0 0 0)
(0 -1.08114e-11 0 -1.08114e-11 8.12441e-12 0 0 0 0)
(0 -1.3583e-11 0 -1.3583e-11 2.35338e-11 0 0 0 0)
(0 -1.53541e-11 0 -1.53541e-11 6.16522e-11 0 0 0 0)
(0 -1.94696e-11 0 -1.94696e-11 1.45451e-10 0 0 0 0)
(0 -3.00399e-11 0 -3.00399e-11 3.08882e-10 0 0 0 0)
(0 -4.54671e-11 0 -4.54671e-11 5.90228e-10 0 0 0 0)
(0 -7.22108e-11 0 -7.22108e-11 1.017e-09 0 0 0 0)
(0 -1.0876e-10 0 -1.0876e-10 1.58444e-09 0 0 0 0)
(0 -1.50517e-10 0 -1.50517e-10 2.24025e-09 0 0 0 0)
(-5.16988e-23 -1.95955e-10 0 -1.95955e-10 2.89072e-09 0 0 0 0)
(0 -2.35678e-10 0 -2.35678e-10 3.42745e-09 0 0 0 0)
(0 -2.65351e-10 0 -2.65351e-10 3.76426e-09 0 0 0 0)
(0 -2.7534e-10 0 -2.7534e-10 3.86132e-09 0 0 0 0)
(0 -2.72206e-10 0 -2.72206e-10 3.73342e-09 0 0 0 0)
(0 -2.59382e-10 0 -2.59382e-10 3.43814e-09 0 0 0 0)
(0 -2.35307e-10 0 -2.35307e-10 3.04577e-09 0 0 0 0)
(-1.03398e-22 -2.12517e-10 0 -2.12517e-10 2.62152e-09 0 0 0 0)
(0 -1.90196e-10 0 -1.90196e-10 2.2135e-09 0 0 0 0)
(0 -1.68174e-10 0 -1.68174e-10 1.84744e-09 0 0 0 0)
(0 -1.51318e-10 0 -1.51318e-10 1.53411e-09 0 0 0 0)
(0 -1.35669e-10 0 -1.35669e-10 1.2742e-09 0 0 0 0)
(0 -1.25017e-10 0 -1.25017e-10 1.06326e-09 0 0 0 0)
(0 -1.21015e-10 0 -1.21015e-10 8.95225e-10 0 0 0 0)
(0 -1.15186e-10 0 -1.15186e-10 7.6188e-10 0 0 0 0)
(-5.16988e-23 -1.11076e-10 0 -1.11076e-10 6.55687e-10 0 0 0 0)
(0 -1.10268e-10 0 -1.10268e-10 5.70882e-10 0 0 0 0)
(0 -1.10344e-10 0 -1.10344e-10 5.02969e-10 0 0 0 0)
(0 -1.11017e-10 0 -1.11017e-10 4.48439e-10 0 0 0 0)
(0 -1.14009e-10 0 -1.14009e-10 4.04791e-10 0 0 0 0)
(0 -1.17152e-10 0 -1.17152e-10 3.69845e-10 0 0 0 0)
(0 -1.20246e-10 0 -1.20246e-10 3.41844e-10 0 0 0 0)
(0 -1.25028e-10 0 -1.25028e-10 3.19642e-10 0 0 0 0)
(0 -1.27314e-10 0 -1.27314e-10 3.01796e-10 0 0 0 0)
(0 -1.32554e-10 0 -1.32554e-10 2.87922e-10 0 0 0 0)
(0 -1.36646e-10 0 -1.36646e-10 2.77229e-10 0 0 0 0)
(0 -1.39348e-10 0 -1.39348e-10 2.69273e-10 0 0 0 0)
(0 -1.42592e-10 0 -1.42592e-10 2.63948e-10 0 0 0 0)
(0 -1.44625e-10 0 -1.44625e-10 2.6116e-10 0 0 0 0)
(0 -1.47663e-10 0 -1.47663e-10 2.61477e-10 0 0 0 0)
(0 -1.52091e-10 0 -1.52091e-10 2.65729e-10 0 0 0 0)
(0 -1.58522e-10 0 -1.58522e-10 2.75228e-10 0 0 0 0)
(0 -1.65823e-10 0 -1.65823e-10 2.91482e-10 0 0 0 0)
(0 -1.74067e-10 0 -1.74067e-10 3.16305e-10 0 0 0 0)
(0 -1.85635e-10 0 -1.85635e-10 3.521e-10 0 0 0 0)
(0 -1.99583e-10 0 -1.99583e-10 4.01532e-10 0 0 0 0)
(0 -2.11302e-10 0 -2.11302e-10 4.66544e-10 0 0 0 0)
(0 -2.24836e-10 0 -2.24836e-10 5.48829e-10 0 0 0 0)
(0 -2.39658e-10 0 -2.39658e-10 6.48273e-10 0 0 0 0)
(0 -2.5329e-10 0 -2.5329e-10 7.61965e-10 0 0 0 0)
(0 -2.65387e-10 0 -2.65387e-10 8.8359e-10 0 0 0 0)
(0 -2.75306e-10 0 -2.75306e-10 1.00378e-09 0 0 0 0)
(0 -2.84862e-10 0 -2.84862e-10 1.11283e-09 0 0 0 0)
(0 -2.92981e-10 0 -2.92981e-10 1.20297e-09 0 0 0 0)
(0 -2.99487e-10 0 -2.99487e-10 1.27054e-09 0 0 0 0)
(0 -3.05733e-10 0 -3.05733e-10 1.31686e-09 0 0 0 0)
(0 -3.12573e-10 0 -3.12573e-10 1.34732e-09 0 0 0 0)
(0 -3.19365e-10 0 -3.19365e-10 1.36894e-09 0 0 0 0)
(0 -3.26488e-10 0 -3.26488e-10 1.38838e-09 0 0 0 0)
(0 -3.338e-10 0 -3.338e-10 1.41045e-09 0 0 0 0)
(0 -3.41109e-10 0 -3.41109e-10 1.43764e-09 0 0 0 0)
(0 -3.48053e-10 0 -3.48053e-10 1.47015e-09 0 0 0 0)
(0 -3.54361e-10 0 -3.54361e-10 1.5064e-09 0 0 0 0)
(0 -3.60424e-10 0 -3.60424e-10 1.54401e-09 0 0 0 0)
(0 -3.66134e-10 0 -3.66134e-10 1.58045e-09 0 0 0 0)
(0 -3.71472e-10 0 -3.71472e-10 1.61362e-09 0 0 0 0)
(0 -3.76792e-10 0 -3.76792e-10 1.64228e-09 0 0 0 0)
(0 -3.82156e-10 0 -3.82156e-10 1.66608e-09 0 0 0 0)
(0 -3.87432e-10 0 -3.87432e-10 1.68523e-09 0 0 0 0)
(0 -3.9266e-10 0 -3.9266e-10 1.70024e-09 0 0 0 0)
(0 -3.978e-10 0 -3.978e-10 1.71162e-09 0 0 0 0)
(0 -4.02789e-10 0 -4.02789e-10 1.71972e-09 0 0 0 0)
(0 -4.07629e-10 0 -4.07629e-10 1.72474e-09 0 0 0 0)
(0 -4.12381e-10 0 -4.12381e-10 1.72676e-09 0 0 0 0)
(0 -4.17091e-10 0 -4.17091e-10 1.72587e-09 0 0 0 0)
(0 -4.21809e-10 0 -4.21809e-10 1.72221e-09 0 0 0 0)
(0 -4.26614e-10 0 -4.26614e-10 1.716e-09 0 0 0 0)
(0 -4.31542e-10 0 -4.31542e-10 1.70755e-09 0 0 0 0)
(0 -4.36607e-10 0 -4.36607e-10 1.69717e-09 0 0 0 0)
(0 -4.41839e-10 0 -4.41839e-10 1.68516e-09 0 0 0 0)
(0 -4.47269e-10 0 -4.47269e-10 1.67177e-09 0 0 0 0)
(0 -4.52924e-10 0 -4.52924e-10 1.65723e-09 0 0 0 0)
(0 -4.58842e-10 0 -4.58842e-10 1.64175e-09 0 0 0 0)
(0 -4.65061e-10 0 -4.65061e-10 1.62548e-09 0 0 0 0)
(0 -4.71613e-10 0 -4.71613e-10 1.60859e-09 0 0 0 0)
(0 -4.7853e-10 0 -4.7853e-10 1.59122e-09 0 0 0 0)
(0 -4.85843e-10 0 -4.85843e-10 1.57345e-09 0 0 0 0)
(0 -4.93583e-10 0 -4.93583e-10 1.55538e-09 0 0 0 0)
(0 -5.01786e-10 0 -5.01786e-10 1.53706e-09 0 0 0 0)
(0 -5.10491e-10 0 -5.10491e-10 1.51851e-09 0 0 0 0)
(0 -5.19742e-10 0 -5.19742e-10 1.49972e-09 0 0 0 0)
(0 -5.29588e-10 0 -5.29588e-10 1.48065e-09 0 0 0 0)
(0 -5.40084e-10 0 -5.40084e-10 1.4612e-09 0 0 0 0)
(0 -5.51286e-10 0 -5.51286e-10 1.44121e-09 0 0 0 0)
(0 -5.63246e-10 0 -5.63246e-10 1.42043e-09 0 0 0 0)
(0 -5.76013e-10 0 -5.76013e-10 1.39847e-09 0 0 0 0)
(0 -5.89638e-10 0 -5.89638e-10 1.37486e-09 0 0 0 0)
(0 -6.04187e-10 0 -6.04187e-10 1.34907e-09 0 0 0 0)
(0 -6.19782e-10 0 -6.19782e-10 1.32062e-09 0 0 0 0)
(0 -6.36651e-10 0 -6.36651e-10 1.28916e-09 0 0 0 0)
(0 -6.5515e-10 0 -6.5515e-10 1.25454e-09 0 0 0 0)
(0 -6.75682e-10 0 -6.75682e-10 1.21677e-09 0 0 0 0)
(0 -6.98475e-10 0 -6.98475e-10 1.17576e-09 0 0 0 0)
(0 -7.23244e-10 0 -7.23244e-10 1.13109e-09 0 0 0 0)
(0 -7.491e-10 0 -7.491e-10 1.08212e-09 0 0 0 0)
(0 -7.75349e-10 0 -7.75349e-10 1.02877e-09 0 0 0 0)
(0 -8.03421e-10 0 -8.03421e-10 9.72922e-10 0 0 0 0)
(0 -8.37669e-10 0 -8.37669e-10 9.19677e-10 0 0 0 0)
(0 -8.80395e-10 0 -8.80395e-10 8.76575e-10 0 0 0 0)
(0 -9.24128e-10 0 -9.24128e-10 8.50306e-10 0 0 0 0)
(0 -9.58237e-10 0 -9.58237e-10 8.45178e-10 0 0 0 0)
(0 -9.90574e-10 0 -9.90574e-10 8.67532e-10 0 0 0 0)
(0 -1.05238e-09 0 -1.05238e-09 9.30755e-10 0 0 0 0)
(0 -1.16103e-09 0 -1.16103e-09 1.04674e-09 0 0 0 0)
(0 -1.24802e-09 0 -1.24802e-09 1.18488e-09 0 0 0 0)
(0 -1.18973e-09 0 -1.18973e-09 1.20827e-09 0 0 0 0)
(0 -1.24603e-09 0 -1.24603e-09 1.02641e-09 0 0 0 0)
(0 -1.67387e-09 0 -1.67387e-09 6.74469e-10 0 0 0 0)
(0 -2.26881e-09 0 -2.26881e-09 5.07235e-10 0 0 0 0)
(0 -2.83424e-09 0 -2.83424e-09 -1.13604e-08 0 0 0 0)
(0 1.82429e-07 0 1.82429e-07 5.43163e-08 0 0 0 0)
(0 6.20201e-05 0 6.20201e-05 9.12388e-07 0 0 0 0)
(0 0.000725636 0 0.000725636 1.65274e-06 0 0 0 0)
(0 0.00209974 0 0.00209974 -3.90641e-06 0 0 0 0)
(0 0.00294513 0 0.00294513 3.78269e-07 0 0 0 0)
(0 0.00357632 0 0.00357632 -2.16229e-06 0 0 0 0)
(0 0.0040787 0 0.0040787 -4.0471e-06 0 0 0 0)
(0 0.00448803 0 0.00448803 -5.67464e-06 0 0 0 0)
(0 0.00482291 0 0.00482291 -6.92866e-06 0 0 0 0)
(0 0.00509639 0 0.00509639 -8.097e-06 0 0 0 0)
(0 0.00531775 0 0.00531775 -9.56287e-06 0 0 0 0)
(0 0.005494 0 0.005494 -1.12926e-05 0 0 0 0)
(0 0.00563026 0 0.00563026 -1.29549e-05 0 0 0 0)
(0 0.00572987 0 0.00572987 -1.396e-05 0 0 0 0)
(0 0.00579498 0 0.00579498 -1.37517e-05 0 0 0 0)
(0 0.00582722 0 0.00582722 -1.23881e-05 0 0 0 0)
(0 0.00582787 0 0.00582787 -1.03524e-05 0 0 0 0)
(0 0.00579807 0 0.00579807 -8.06424e-06 0 0 0 0)
(0 0.00573873 0 0.00573873 -5.77249e-06 0 0 0 0)
(0 0.00565066 0 0.00565066 -3.61757e-06 0 0 0 0)
(0 0.00553456 0 0.00553456 -1.67688e-06 0 0 0 0)
(0 0.00539106 0 0.00539106 1.06124e-08 0 0 0 0)
(0 0.00522072 0 0.00522072 1.43468e-06 0 0 0 0)
(0 0.00502406 0 0.00502406 2.60123e-06 0 0 0 0)
(0 0.00480159 0 0.00480159 3.52107e-06 0 0 0 0)
(0 0.0045538 0 0.0045538 4.2028e-06 0 0 0 0)
(0 0.00428117 0 0.00428117 4.64556e-06 0 0 0 0)
(0 0.00398423 0 0.00398423 4.84995e-06 0 0 0 0)
(0 0.00366352 0 0.00366352 4.85751e-06 0 0 0 0)
(0 0.0033196 0 0.0033196 4.7762e-06 0 0 0 0)
(0 0.00295305 0 0.00295305 4.69742e-06 0 0 0 0)
(0 0.00256448 0 0.00256448 4.52693e-06 0 0 0 0)
(0 0.00215472 0 0.00215472 3.99454e-06 0 0 0 0)
(0 0.00172547 0 0.00172547 2.97663e-06 0 0 0 0)
(0 0.00128106 0 0.00128106 1.74784e-06 0 0 0 0)
(0 0.000834061 0 0.000834061 7.58311e-07 0 0 0 0)
(0 0.00036455 0 0.00036455 2.09984e-07 0 0 0 0)
(0 4.93775e-05 0 4.93775e-05 2.38185e-08 0 0 0 0)
(0 5.40957e-06 0 5.40957e-06 3.64245e-09 0 0 0 0)
(0 2.75512e-06 0 2.75512e-06 1.90499e-09 0 0 0 0)
(0 2.41365e-06 0 2.41365e-06 1.19366e-09 0 0 0 0)
(0 2.20134e-06 0 2.20134e-06 7.89181e-10 0 0 0 0)
(0 2.01467e-06 0 2.01467e-06 5.60493e-10 0 0 0 0)
(0 1.84706e-06 0 1.84706e-06 4.25468e-10 0 0 0 0)
(0 1.6955e-06 0 1.6955e-06 3.25977e-10 0 0 0 0)
(0 1.5573e-06 0 1.5573e-06 2.64409e-10 0 0 0 0)
(0 1.43109e-06 0 1.43109e-06 2.12626e-10 0 0 0 0)
(0 1.31604e-06 0 1.31604e-06 1.79007e-10 0 0 0 0)
(0 1.21099e-06 0 1.21099e-06 1.4493e-10 0 0 0 0)
(0 1.11486e-06 0 1.11486e-06 1.24349e-10 0 0 0 0)
(0 1.02614e-06 0 1.02614e-06 1.0357e-10 0 0 0 0)
(0 9.44436e-07 0 9.44436e-07 9.24807e-11 0 0 0 0)
(0 8.69457e-07 0 8.69457e-07 7.68491e-11 0 0 0 0)
(0 8.01217e-07 0 8.01217e-07 6.68076e-11 0 0 0 0)
(0 7.38719e-07 0 7.38719e-07 5.59908e-11 0 0 0 0)
(0 6.80926e-07 0 6.80926e-07 4.99861e-11 0 0 0 0)
(0 6.26534e-07 0 6.26534e-07 4.86992e-11 0 0 0 0)
(-2.03416e-19 5.75303e-07 0 5.75303e-07 3.71665e-11 0 0 0 0)
(0 5.27897e-07 0 5.27897e-07 3.40696e-11 0 0 0 0)
(0 4.84286e-07 0 4.84286e-07 2.45056e-11 0 0 0 0)
(1.91516e-19 4.43402e-07 0 4.43402e-07 3.04267e-11 0 0 0 0)
(0 4.0455e-07 0 4.0455e-07 2.20495e-11 0 0 0 0)
(0 3.68223e-07 0 3.68223e-07 2.17689e-11 0 0 0 0)
(0 3.35028e-07 0 3.35028e-07 1.25852e-11 0 0 0 0)
(1.76725e-19 3.04537e-07 0 3.04537e-07 1.87519e-11 0 0 0 0)
(0 2.75949e-07 0 2.75949e-07 1.11557e-11 0 0 0 0)
(0 2.49367e-07 0 2.49367e-07 1.35052e-11 0 0 0 0)
(0 2.25185e-07 0 2.25185e-07 7.0595e-12 0 0 0 0)
(1.63076e-19 2.03074e-07 0 2.03074e-07 1.17043e-11 0 0 0 0)
(0 1.82486e-07 0 1.82486e-07 4.73037e-12 0 0 0 0)
(0 1.63518e-07 0 1.63518e-07 8.1145e-12 0 0 0 0)
(0 1.46422e-07 0 1.46422e-07 3.77643e-12 0 0 0 0)
(0 1.30964e-07 0 1.30964e-07 7.22323e-12 0 0 0 0)
(0 1.1673e-07 0 1.1673e-07 1.86745e-12 0 0 0 0)
(-1.44554e-19 1.03674e-07 0 1.03674e-07 5.01708e-12 0 0 0 0)
(0 9.19344e-08 0 9.19344e-08 1.67883e-12 0 0 0 0)
(0 8.14046e-08 0 8.14046e-08 4.02919e-12 0 0 0 0)
(0 7.18326e-08 0 7.18326e-08 9.09979e-13 0 0 0 0)
(-1.3339e-19 6.32199e-08 0 6.32199e-08 3.10378e-12 0 0 0 0)
(0 5.55675e-08 0 5.55675e-08 4.96617e-13 0 0 0 0)
(0 4.86671e-08 0 4.86671e-08 2.21537e-12 0 0 0 0)
(0 4.24753e-08 0 4.24753e-08 4.58092e-13 0 0 0 0)
(0 3.70293e-08 0 3.70293e-08 1.57575e-12 0 0 0 0)
(1.2064e-19 3.2186e-08 0 3.2186e-08 2.15413e-13 0 0 0 0)
(1.1824e-19 2.78505e-08 0 2.78505e-08 1.14289e-12 0 0 0 0)
(0 2.40609e-08 0 2.40609e-08 2.12037e-13 0 0 0 0)
(0 2.07438e-08 0 2.07438e-08 6.63857e-13 0 0 0 0)
(0 1.77966e-08 0 1.77966e-08 2.82292e-13 0 0 0 0)
(0 1.5234e-08 0 1.5234e-08 3.01388e-13 0 0 0 0)
(0 1.3002e-08 0 1.3002e-08 3.43239e-13 0 0 0 0)
(0 1.10537e-08 0 1.10537e-08 5.87618e-14 0 0 0 0)
(0 9.36515e-09 0 9.36515e-09 3.57012e-13 0 0 0 0)
(0 7.89427e-09 0 7.89427e-09 -9.37328e-14 0 0 0 0)
(0 6.63201e-09 0 6.63201e-09 3.53628e-13 0 0 0 0)
(0 5.5473e-09 0 5.5473e-09 -2.37484e-13 0 0 0 0)
(0 4.60317e-09 0 4.60317e-09 9.50954e-14 0 0 0 0)
(0 3.92557e-09 0 3.92557e-09 6.11151e-13 0 0 0 0)
(0 3.33089e-09 0 3.33089e-09 -8.55946e-14 0 0 0 0)
(-1.78492e-19 2.70582e-09 0 2.70582e-09 -3.38104e-13 0 0 0 0)
(1.74941e-19 2.23091e-09 0 2.23091e-09 3.61456e-13 0 0 0 0)
(0 1.83656e-09 0 1.83656e-09 -3.85539e-13 0 0 0 0)
(0 1.49869e-09 0 1.49869e-09 4.09095e-13 0 0 0 0)
(-1.64707e-19 1.21401e-09 0 1.21401e-09 -4.32197e-13 0 0 0 0)
(0 9.78935e-10 0 9.78935e-10 4.54571e-13 0 0 0 0)
(0 7.86987e-10 0 7.86987e-10 -4.76036e-13 0 0 0 0)
(-1.55071e-19 6.30309e-10 0 6.30309e-10 4.9669e-13 0 0 0 0)
(0 5.01605e-10 0 5.01605e-10 -5.16204e-13 0 0 0 0)
(0 3.97002e-10 0 3.97002e-10 5.34925e-13 0 0 0 0)
(0 3.13318e-10 0 3.13318e-10 -5.52378e-13 0 0 0 0)
(0 2.4658e-10 0 2.4658e-10 5.69125e-13 0 0 0 0)
(0 1.93286e-10 0 1.93286e-10 -5.84549e-13 0 0 0 0)
(0 1.50866e-10 0 1.50866e-10 5.99373e-13 0 0 0 0)
(0 1.17301e-10 0 1.17301e-10 -6.12812e-13 0 0 0 0)
(0 9.08562e-11 0 9.08562e-11 6.29892e-13 0 0 0 0)
(0 7.00691e-11 0 7.00691e-11 -6.57279e-13 0 0 0 0)
(0 5.37799e-11 0 5.37799e-11 6.90783e-13 0 0 0 0)
(0 4.10594e-11 0 4.10594e-11 -7.2127e-13 0 0 0 0)
(0 3.11791e-11 0 3.11791e-11 7.49581e-13 0 0 0 0)
(0 2.35435e-11 0 2.35435e-11 -7.74964e-13 0 0 0 0)
(0 1.76771e-11 0 1.76771e-11 7.98229e-13 0 0 0 0)
(0 1.31958e-11 0 1.31958e-11 -8.18864e-13 0 0 0 0)
(1.12435e-19 9.79198e-12 0 9.79198e-12 8.37432e-13 0 0 0 0)
(0 7.22219e-12 0 7.22219e-12 -8.53604e-13 0 0 0 0)
(0 5.29408e-12 0 5.29408e-12 8.6782e-13 0 0 0 0)
(0 3.85637e-12 0 3.85637e-12 -8.79882e-13 0 0 0 0)
(0 2.79065e-12 0 2.79065e-12 8.90116e-13 0 0 0 0)
(0 2.00708e-12 0 2.00708e-12 -8.98362e-13 0 0 0 0)
(0 1.43375e-12 0 1.43375e-12 9.04944e-13 0 0 0 0)
(0 1.017e-12 0 1.017e-12 -9.09736e-13 0 0 0 0)
(0 7.15804e-13 0 7.15804e-13 9.13009e-13 0 0 0 0)
(0 5.00808e-13 0 5.00808e-13 -9.14641e-13 0 0 0 0)
(0 3.48481e-13 0 3.48481e-13 9.14958e-13 0 0 0 0)
(0 2.40366e-13 0 2.40366e-13 -9.13766e-13 0 0 0 0)
(0 1.63848e-13 0 1.63848e-13 9.11452e-13 0 0 0 0)
(0 1.10869e-13 0 1.10869e-13 -9.07749e-13 0 0 0 0)
(0 7.48767e-14 0 7.48767e-14 9.03091e-13 0 0 0 0)
(0 5.03455e-14 0 5.03455e-14 -8.97232e-13 0 0 0 0)
(0 3.31555e-14 0 3.31555e-14 8.90524e-13 0 0 0 0)
(0 2.19635e-14 0 2.19635e-14 -8.82753e-13 0 0 0 0)
(0 1.44766e-14 0 1.44766e-14 8.74303e-13 0 0 0 0)
(0 9.18114e-15 0 9.18114e-15 -8.64898e-13 0 0 0 0)
(0 5.89862e-15 0 5.89862e-15 8.54972e-13 0 0 0 0)
(0 3.68578e-15 0 3.68578e-15 -8.44164e-13 0 0 0 0)
(0 2.31107e-15 0 2.31107e-15 8.32979e-13 0 0 0 0)
(0 1.37674e-15 0 1.37674e-15 -8.21041e-13 0 0 0 0)
(0 7.48793e-16 0 7.48793e-16 8.08817e-13 0 0 0 0)
(0 6.56371e-16 0 6.56371e-16 -7.95925e-13 0 0 0 0)
(0 4.87644e-16 0 4.87644e-16 7.82865e-13 0 0 0 0)
(0 1.91785e-16 0 1.91785e-16 -7.69221e-13 0 0 0 0)
(0 -9.68834e-17 0 -9.68834e-17 7.5549e-13 0 0 0 0)
(0 -2.18917e-16 0 -2.18917e-16 -7.41264e-13 0 0 0 0)
(1.23064e-19 1.5463e-16 0 1.5463e-16 7.26948e-13 0 0 0 0)
(0 2.32728e-16 0 2.32728e-16 -7.12382e-13 0 0 0 0)
(0 5.80146e-17 0 5.80146e-17 6.97663e-13 0 0 0 0)
(-1.15864e-19 -1.14995e-16 0 -1.14995e-16 -6.8276e-13 0 0 0 0)
(0 -4.59348e-17 0 -4.59348e-17 6.67783e-13 0 0 0 0)
(0 -1.47195e-17 0 -1.47195e-17 -6.52689e-13 0 0 0 0)
(0 5.59067e-18 0 5.59067e-18 6.37546e-13 0 0 0 0)
(0 1.4407e-16 0 1.4407e-16 -6.22338e-13 0 0 0 0)
(0 -9.49652e-17 0 -9.49652e-17 6.07125e-13 0 0 0 0)
(0 -2.47056e-16 0 -2.47056e-16 -5.91896e-13 0 0 0 0)
(0 1.95258e-16 0 1.95258e-16 5.7669e-13 0 0 0 0)
(0 2.94817e-16 0 2.94817e-16 -5.61502e-13 0 0 0 0)
(0 -1.70886e-16 0 -1.70886e-16 5.46373e-13 0 0 0 0)
(0 -2.38851e-16 0 -2.38851e-16 -5.31138e-13 0 0 0 0)
(0 1.04026e-17 0 1.04026e-17 5.87988e-13 0 0 0 0)
(0 -4.63221e-18 0 -4.63221e-18 -5.82038e-13 0 0 0 0)
(0 -3.18431e-17 0 -3.18431e-17 5.75553e-13 0 0 0 0)
(0 4.21134e-17 0 4.21134e-17 -5.68664e-13 0 0 0 0)
(0 -2.62051e-18 0 -2.62051e-18 5.6141e-13 0 0 0 0)
(0 -2.25258e-17 0 -2.25258e-17 -5.53782e-13 0 0 0 0)
(0 2.90638e-17 0 2.90638e-17 5.45816e-13 0 0 0 0)
(0 -6.2204e-18 0 -6.2204e-18 -5.37503e-13 0 0 0 0)
(0 -2.55698e-17 0 -2.55698e-17 5.28875e-13 0 0 0 0)
(0 1.49554e-17 0 1.49554e-17 -5.19923e-13 0 0 0 0)
(0 3.07579e-17 0 3.07579e-17 5.10678e-13 0 0 0 0)
(0 7.27919e-18 0 7.27919e-18 -5.01131e-13 0 0 0 0)
(0 -2.89579e-17 0 -2.89579e-17 4.9131e-13 0 0 0 0)
(0 4.42045e-18 0 4.42045e-18 -4.81208e-13 0 0 0 0)
(0 6.61744e-18 0 6.61744e-18 4.70849e-13 0 0 0 0)
(0 5.82335e-19 0 5.82335e-19 -4.60231e-13 0 0 0 0)
(0 2.35846e-17 0 2.35846e-17 4.49367e-13 0 0 0 0)
(0 -2.70521e-17 0 -2.70521e-17 -4.3826e-13 0 0 0 0)
(0 2.83227e-18 0 2.83227e-18 4.26929e-13 0 0 0 0)
(0 1.61466e-18 0 1.61466e-18 -4.15373e-13 0 0 0 0)
(0 -2.57551e-17 0 -2.57551e-17 4.03601e-13 0 0 0 0)
(0 2.65757e-17 0 2.65757e-17 -3.91626e-13 0 0 0 0)
(0 2.3214e-17 0 2.3214e-17 3.79437e-13 0 0 0 0)
(0 -3.01491e-17 0 -3.01491e-17 -3.67083e-13 0 0 0 0)
(0 6.27334e-18 0 6.27334e-18 3.54503e-13 0 0 0 0)
(0 1.98259e-17 0 1.98259e-17 -3.41795e-13 0 0 0 0)
(0 -1.97994e-17 0 -1.97994e-17 3.28863e-13 0 0 0 0)
(0 -2.02759e-17 0 -2.02759e-17 -3.15834e-13 0 0 0 0)
(0 -2.32405e-17 0 -2.32405e-17 3.02575e-13 0 0 0 0)
(0 5.82335e-18 0 5.82335e-18 -2.89266e-13 0 0 0 0)
(0 -7.3586e-18 0 -7.3586e-18 2.75711e-13 0 0 0 0)
(0 3.04402e-18 0 3.04402e-18 -2.62141e-13 0 0 0 0)
(0 -1.58819e-19 0 -1.58819e-19 2.50467e-13 0 0 0 0)
(0 -1.95876e-17 0 -1.95876e-17 -2.42262e-13 0 0 0 0)
(0 1.16996e-17 0 1.16996e-17 2.34833e-13 0 0 0 0)
(0 7.88799e-18 0 7.88799e-18 -2.27413e-13 0 0 0 0)
(0 1.01644e-17 0 1.01644e-17 2.19472e-13 0 0 0 0)
(0 1.06144e-17 0 1.06144e-17 -2.11438e-13 0 0 0 0)
(0 -5.79688e-18 0 -5.79688e-18 2.02819e-13 0 0 0 0)
(0 -2.8508e-17 0 -2.8508e-17 -1.94051e-13 0 0 0 0)
(0 -5.98217e-18 0 -5.98217e-18 1.84604e-13 0 0 0 0)
(0 6.36334e-17 0 6.36334e-17 -1.74887e-13 0 0 0 0)
(0 1.92171e-17 0 1.92171e-17 1.64318e-13 0 0 0 0)
(0 -4.26428e-17 0 -4.26428e-17 -1.53203e-13 0 0 0 0)
(0 -1.0032e-17 0 -1.0032e-17 1.40987e-13 0 0 0 0)
(0 2.50934e-17 0 2.50934e-17 -1.27562e-13 0 0 0 0)
(0 2.71315e-17 0 2.71315e-17 1.12632e-13 0 0 0 0)
(0 -2.01435e-17 0 -2.01435e-17 -9.50994e-14 0 0 0 0)
(0 -1.16467e-18 0 -1.16467e-18 7.35598e-14 0 0 0 0)
(0 2.4061e-17 0 2.4061e-17 -2.99443e-14 0 0 0 0)
)
;

boundaryField
{
    inandouthalf11
    {
        type            cyclic;
    }
    inandouthalf12
    {
        type            cyclic;
    }
    inandouthalf21
    {
        type            cyclic;
    }
    inandouthalf22
    {
        type            cyclic;
    }
    inandouthalf31
    {
        type            cyclic;
    }
    inandouthalf32
    {
        type            cyclic;
    }
    inandouthalf41
    {
        type            cyclic;
    }
    inandouthalf42
    {
        type            cyclic;
    }
    top
    {
        type            symmetryPlane;
    }
    walls
    {
        type            zeroGradient;
    }
    frontAndBackPlanes
    {
        type            empty;
    }
}


// ************************************************************************* //
