/*--------------------------------*- C++ -*----------------------------------*\
| =========                 |                                                 |
| \\      /  F ield         | OpenFOAM: The Open Source CFD Toolbox           |
|  \\    /   O peration     | Version:  2.4.x                                 |
|   \\  /    A nd           | Web:      www.OpenFOAM.org                      |
|    \\/     M anipulation  |                                                 |
\*---------------------------------------------------------------------------*/
FoamFile
{
    version     2.0;
    format      ascii;
    class       volScalarField;
    location    "2.45";
    object      tmf;
}
// * * * * * * * * * * * * * * * * * * * * * * * * * * * * * * * * * * * * * //

dimensions      [0 0 0 0 0 0 0];

internalField   nonuniform List<scalar> 
360
(
0.999204
0.999204
0.999204
0.999204
0.999204
0.999204
0.999204
0.999204
0.999204
0.999204
0.999204
0.999204
0.999204
0.999204
0.999204
0.999204
0.999204
0.999204
0.999204
0.999204
0.999204
0.999204
0.999204
0.999204
0.999204
0.999204
0.999204
0.999204
0.999204
0.999204
0.999204
0.999204
0.999204
0.999204
0.999204
0.999204
0.999204
0.999204
0.999204
0.999204
0.999203
0.999203
0.999203
0.999203
0.999203
0.999203
0.999203
0.999203
0.999203
0.999203
0.999203
0.999203
0.999203
0.999203
0.999203
0.999203
0.999203
0.999203
0.999203
0.999203
0.999202
0.999202
0.999202
0.999202
0.999202
0.999202
0.999202
0.999202
0.999202
0.999202
0.999201
0.999201
0.999201
0.999201
0.999201
0.999201
0.999201
0.9992
0.9992
0.9992
0.9992
0.9992
0.9992
0.999199
0.999199
0.999199
0.999199
0.999199
0.999199
0.999198
0.999198
0.999198
0.999198
0.999198
0.999197
0.999197
0.999197
0.999197
0.999196
0.999196
0.999196
0.999196
0.999195
0.999195
0.999195
0.999195
0.999194
0.999194
0.999194
0.999194
0.999193
0.999193
0.999193
0.999192
0.999192
0.999192
0.999191
0.999191
0.99919
0.99919
0.99919
0.999189
0.999189
0.999188
0.999188
0.999187
0.999187
0.999186
0.999186
0.999185
0.999185
0.999184
0.999183
0.998286
0.997349
0.997154
0.996953
0.99671
0.996411
0.996037
0.995562
0.994939
0.9941
0.992937
0.991289
0.988897
0.984172
0.957535
0.936356
0.922557
0.910123
0.905502
0.901612
0.898159
0.894974
0.892407
0.892351
0.893986
0.895923
0.898023
0.90023
0.902475
0.904711
0.906916
0.909085
0.911231
0.913383
0.915582
0.917884
0.920357
0.923076
0.926114
0.929529
0.933351
0.937569
0.942126
0.946932
0.95191
0.957041
0.962401
0.968228
0.975254
0.981283
0.983602
0.983579
0.983436
0.983299
0.983167
0.983038
0.98292
0.983684
0.993975
0.995613
0.995594
0.995574
0.995554
0.995535
0.995515
0.995496
0.995477
0.995458
0.99544
0.995421
0.995402
0.995383
0.995364
0.995345
0.995326
0.995306
0.995286
0.995266
0.995246
0.995225
0.995204
0.995183
0.995162
0.99514
0.995118
0.995095
0.995073
0.99505
0.995027
0.995003
0.994979
0.994954
0.994929
0.994904
0.994878
0.994851
0.994825
0.994797
0.994769
0.994742
0.994713
0.994685
0.994656
0.994628
0.9946
0.994573
0.994548
0.994526
0.994503
0.994199
0.994199
0.994199
0.994199
0.994199
0.994199
0.994199
0.994199
0.994199
0.994199
0.994199
0.994199
0.994199
0.994199
0.994199
0.994199
0.994199
0.994199
0.994199
0.994199
0.994199
0.994199
0.994199
0.994199
0.994199
0.994199
0.994199
0.994199
0.994199
0.994199
0.994199
0.994199
0.994199
0.994199
0.994199
0.994199
0.994199
0.994199
0.994199
0.994199
0.994199
0.994199
0.994199
0.994199
0.994199
0.994199
0.994199
0.994199
0.994199
0.994199
0.994199
0.994199
0.994199
0.994199
0.994199
0.994199
0.994199
0.994199
0.994199
0.994199
0.994199
0.994199
0.994199
0.994199
0.994199
0.994199
0.994199
0.994199
0.994199
0.994199
0.994199
0.994199
0.994199
0.994199
0.994199
0.994199
0.994199
0.994199
0.994199
0.994199
0.994199
0.994199
0.994199
0.994199
0.994199
0.994199
0.994199
0.994199
0.994199
0.994199
0.994199
0.994199
0.994199
0.994199
0.994199
0.994199
0.994199
0.994199
0.994199
0.994199
0.994199
0.994199
0.994199
0.994199
0.994199
0.994199
0.994199
0.994199
0.994199
0.994199
0.994199
0.994199
0.994199
0.994199
0.994199
0.994198
0.994183
0.993276
)
;

boundaryField
{
    inandouthalf11
    {
        type            cyclic;
    }
    inandouthalf12
    {
        type            cyclic;
    }
    inandouthalf21
    {
        type            cyclic;
    }
    inandouthalf22
    {
        type            cyclic;
    }
    inandouthalf31
    {
        type            cyclic;
    }
    inandouthalf32
    {
        type            cyclic;
    }
    inandouthalf41
    {
        type            cyclic;
    }
    inandouthalf42
    {
        type            cyclic;
    }
    top
    {
        type            symmetryPlane;
    }
    walls
    {
        type            calculated;
        value           uniform 0;
    }
    frontAndBackPlanes
    {
        type            empty;
    }
}


// ************************************************************************* //
