/*--------------------------------*- C++ -*----------------------------------*\
| =========                 |                                                 |
| \\      /  F ield         | OpenFOAM: The Open Source CFD Toolbox           |
|  \\    /   O peration     | Version:  2.4.x                                 |
|   \\  /    A nd           | Web:      www.OpenFOAM.org                      |
|    \\/     M anipulation  |                                                 |
\*---------------------------------------------------------------------------*/
FoamFile
{
    version     2.0;
    format      ascii;
    class       volVectorField;
    location    "2.45";
    object      U;
}
// * * * * * * * * * * * * * * * * * * * * * * * * * * * * * * * * * * * * * //

dimensions      [0 1 -1 0 0 0 0];

internalField   nonuniform List<vector> 
360
(
(-9.71295e-05 -5.33234e-14 0)
(-9.72951e-05 -1.60252e-13 0)
(-9.72963e-05 -2.67499e-13 0)
(-9.72963e-05 -3.74853e-13 0)
(-9.72963e-05 -4.82125e-13 0)
(-9.72974e-05 -5.89194e-13 0)
(-9.72974e-05 -6.9592e-13 0)
(-9.72984e-05 -8.02262e-13 0)
(-9.72984e-05 -9.07847e-13 0)
(-9.72995e-05 -1.01301e-12 0)
(-9.73006e-05 -1.11745e-12 0)
(-9.73006e-05 -1.2211e-12 0)
(-9.73016e-05 -1.32381e-12 0)
(-9.73027e-05 -1.42547e-12 0)
(-9.73038e-05 -1.52615e-12 0)
(-9.73048e-05 -1.62579e-12 0)
(-9.73059e-05 -1.7241e-12 0)
(-9.7307e-05 -1.82077e-12 0)
(-9.7308e-05 -1.91435e-12 0)
(-9.73102e-05 -1.99848e-12 0)
(-9.73112e-05 -2.04563e-12 0)
(-9.73134e-05 -1.93949e-12 0)
(-9.73155e-05 -1.23437e-12 0)
(-9.73176e-05 1.53021e-12 0)
(-9.73198e-05 1.04246e-11 0)
(-9.73219e-05 3.70611e-11 0)
(-9.73241e-05 1.15813e-10 0)
(-9.73276e-05 3.34128e-10 0)
(-9.73316e-05 8.6855e-10 0)
(-9.7337e-05 2.00288e-09 0)
(-9.73454e-05 4.05358e-09 0)
(-9.73608e-05 7.17894e-09 0)
(-9.73853e-05 1.10028e-08 0)
(-9.74275e-05 1.45553e-08 0)
(-9.74888e-05 1.6328e-08 0)
(-9.7574e-05 1.52669e-08 0)
(-9.76806e-05 1.12832e-08 0)
(-9.78049e-05 5.36089e-09 0)
(-9.79393e-05 -9.14738e-10 0)
(-9.80731e-05 -6.04409e-09 0)
(-9.82027e-05 -9.24001e-09 0)
(-9.8321e-05 -1.05944e-08 0)
(-9.84258e-05 -1.05281e-08 0)
(-9.85188e-05 -9.58182e-09 0)
(-9.8599e-05 -8.2954e-09 0)
(-9.86688e-05 -6.93537e-09 0)
(-9.87299e-05 -5.64652e-09 0)
(-9.87831e-05 -4.53228e-09 0)
(-9.88318e-05 -3.58887e-09 0)
(-9.88772e-05 -2.83044e-09 0)
(-9.89184e-05 -2.28584e-09 0)
(-9.89581e-05 -1.82308e-09 0)
(-9.89959e-05 -1.47533e-09 0)
(-9.90333e-05 -1.17485e-09 0)
(-9.90696e-05 -9.65957e-10 0)
(-9.9107e-05 -7.52174e-10 0)
(-9.91436e-05 -6.25632e-10 0)
(-9.91816e-05 -4.90192e-10 0)
(-9.922e-05 -3.88314e-10 0)
(-9.92585e-05 -3.26226e-10 0)
(-9.92991e-05 -2.24235e-10 0)
(-9.93394e-05 -1.8368e-10 0)
(-9.93811e-05 -1.07951e-10 0)
(-9.94229e-05 -5.18147e-11 0)
(-9.94656e-05 3.2536e-11 0)
(-9.9509e-05 1.31145e-10 0)
(-9.95541e-05 2.74091e-10 0)
(-9.96013e-05 4.55857e-10 0)
(-9.96509e-05 6.89809e-10 0)
(-9.97033e-05 9.69385e-10 0)
(-9.97603e-05 1.3393e-09 0)
(-9.98219e-05 1.76942e-09 0)
(-9.98876e-05 2.18799e-09 0)
(-9.99595e-05 2.63137e-09 0)
(-0.000100037 2.9399e-09 0)
(-0.00010012 3.06514e-09 0)
(-0.000100209 2.89631e-09 0)
(-0.000100302 2.48688e-09 0)
(-0.000100399 1.91834e-09 0)
(-0.0001005 1.32336e-09 0)
(-0.000100604 8.20955e-10 0)
(-0.000100709 5.10291e-10 0)
(-0.000100817 3.91298e-10 0)
(-0.000100926 4.20592e-10 0)
(-0.000101038 5.46195e-10 0)
(-0.000101152 6.97644e-10 0)
(-0.000101268 8.29255e-10 0)
(-0.000101386 8.97942e-10 0)
(-0.000101506 8.96739e-10 0)
(-0.000101628 8.34324e-10 0)
(-0.000101752 7.26802e-10 0)
(-0.000101878 5.98517e-10 0)
(-0.000102005 4.74871e-10 0)
(-0.000102133 3.63784e-10 0)
(-0.000102263 2.67716e-10 0)
(-0.000102394 1.83958e-10 0)
(-0.000102526 1.067e-10 0)
(-0.000102659 3.13111e-11 0)
(-0.000102793 -4.34017e-11 0)
(-0.000102927 -1.15853e-10 0)
(-0.000103063 -1.84112e-10 0)
(-0.000103199 -2.45751e-10 0)
(-0.000103336 -2.99214e-10 0)
(-0.000103473 -3.4494e-10 0)
(-0.000103612 -3.83897e-10 0)
(-0.00010375 -4.1699e-10 0)
(-0.00010389 -4.45167e-10 0)
(-0.00010403 -4.69074e-10 0)
(-0.000104171 -4.89122e-10 0)
(-0.000104313 -5.05809e-10 0)
(-0.000104456 -5.19746e-10 0)
(-0.000104599 -5.3161e-10 0)
(-0.000104744 -5.42125e-10 0)
(-0.00010489 -5.51999e-10 0)
(-0.000105037 -5.61927e-10 0)
(-0.000105186 -5.72707e-10 0)
(-0.000105336 -5.8539e-10 0)
(-0.000105488 -6.01456e-10 0)
(-0.000105641 -6.22988e-10 0)
(-0.000105797 -6.52689e-10 0)
(-0.000105955 -6.93556e-10 0)
(-0.000106114 -7.48062e-10 0)
(-0.000106277 -8.16996e-10 0)
(-0.000106442 -8.98419e-10 0)
(-0.00010661 -9.8765e-10 0)
(-0.000106781 -1.07935e-09 0)
(-0.000106956 -1.17161e-09 0)
(-0.000107135 -1.26927e-09 0)
(-0.000107319 -1.38121e-09 0)
(-0.000107508 -1.50765e-09 0)
(-0.000107702 -1.6229e-09 0)
(-0.000107902 -1.67397e-09 0)
(-0.000108108 -1.59801e-09 0)
(-0.000108322 -1.32648e-09 0)
(-0.000108548 -8.12265e-10 0)
(-0.000108781 -1.35173e-10 0)
(-0.00010902 5.99376e-10 0)
(-0.000109264 1.47793e-09 0)
(-0.000109526 2.54001e-09 0)
(-0.000109815 3.0235e-09 0)
(-0.000110105 7.97288e-10 0)
(-0.000110348 -8.99775e-09 0)
(-0.000110663 -1.55897e-08 0)
(-0.00011114 -1.68797e-08 0)
(-0.000111794 4.46442e-08 0)
(-0.000112623 -2.22952e-06 0)
(-4.53505e-05 1.19296e-05 0)
(0.030514 2.03144e-05 0)
(0.0829229 -2.8597e-06 0)
(0.129722 4.17204e-06 0)
(0.171744 1.76183e-06 0)
(0.210227 1.12687e-06 0)
(0.24593 5.77632e-07 0)
(0.279401 2.6499e-07 0)
(0.311043 -8.63183e-08 0)
(0.341157 -5.96279e-07 0)
(0.36998 -9.0868e-07 0)
(0.397701 -8.48789e-07 0)
(0.424476 -6.91705e-07 0)
(0.450438 -7.55445e-07 0)
(0.475691 -8.88194e-07 0)
(0.50032 -9.43974e-07 0)
(0.524396 -9.34032e-07 0)
(0.547977 -8.94738e-07 0)
(0.571109 -8.43116e-07 0)
(0.593832 -7.89059e-07 0)
(0.616178 -7.33009e-07 0)
(0.638173 -6.7885e-07 0)
(0.659838 -6.27299e-07 0)
(0.68119 -5.77464e-07 0)
(0.70224 -5.32354e-07 0)
(0.722995 -5.01972e-07 0)
(0.743457 -4.9294e-07 0)
(0.763623 -4.72835e-07 0)
(0.783482 -3.56358e-07 0)
(0.803015 -1.22792e-07 0)
(0.822189 1.60543e-08 0)
(0.840947 -1.84728e-07 0)
(0.859184 -4.40646e-07 0)
(0.876725 -3.05186e-07 0)
(0.893286 4.93614e-08 0)
(0.908521 2.26964e-07 0)
(0.919408 1.51416e-07 0)
(0.922948 1.73406e-08 0)
(0.92444 -1.23578e-09 0)
(0.925705 -2.13843e-08 0)
(0.926856 8.58679e-09 0)
(0.927908 -1.4701e-08 0)
(0.928872 1.00153e-08 0)
(0.929756 -1.24424e-08 0)
(0.930568 9.98898e-09 0)
(0.931314 -1.04251e-08 0)
(0.932 9.30807e-09 0)
(0.93263 -9.91233e-09 0)
(0.933211 8.876e-09 0)
(0.933745 -8.77958e-09 0)
(0.934237 8.55605e-09 0)
(0.93469 -8.44369e-09 0)
(0.935107 7.76956e-09 0)
(0.935491 -7.84627e-09 0)
(0.935846 7.86728e-09 0)
(0.936176 -8.05926e-09 0)
(0.936485 9.04145e-09 0)
(0.936774 -1.01324e-08 0)
(0.937045 1.08216e-08 0)
(0.937299 -1.17734e-08 0)
(0.937536 1.30936e-08 0)
(0.937755 -1.42507e-08 0)
(0.937959 1.52296e-08 0)
(0.938149 -1.63777e-08 0)
(0.938324 1.76868e-08 0)
(0.938486 -1.89584e-08 0)
(0.938635 2.01752e-08 0)
(0.938772 -2.13909e-08 0)
(0.938899 2.26571e-08 0)
(0.939014 -2.39402e-08 0)
(0.93912 2.51973e-08 0)
(0.939216 -2.64156e-08 0)
(0.939304 2.76339e-08 0)
(0.939384 -2.88619e-08 0)
(0.939456 3.00727e-08 0)
(0.939521 -3.12537e-08 0)
(0.93958 3.24091e-08 0)
(0.939633 -3.35487e-08 0)
(0.93968 3.46649e-08 0)
(0.939723 -3.5769e-08 0)
(0.93976 3.68458e-08 0)
(0.939794 -3.79017e-08 0)
(0.939824 3.89271e-08 0)
(0.939851 -3.99387e-08 0)
(0.939874 4.09194e-08 0)
(0.939895 -4.18846e-08 0)
(0.939913 4.28124e-08 0)
(0.939928 -4.37051e-08 0)
(0.939942 4.45579e-08 0)
(0.939954 -4.54083e-08 0)
(0.939964 4.62385e-08 0)
(0.939973 -4.70726e-08 0)
(0.939981 4.78909e-08 0)
(0.939988 -4.87161e-08 0)
(0.939993 4.95243e-08 0)
(0.939998 -5.03062e-08 0)
(0.940002 5.21036e-08 0)
(0.940006 -5.29746e-08 0)
(0.940009 5.38319e-08 0)
(0.940011 -5.47004e-08 0)
(0.940013 5.55539e-08 0)
(0.940015 -5.64175e-08 0)
(0.940016 5.72654e-08 0)
(0.940017 -5.81226e-08 0)
(0.940018 5.89639e-08 0)
(0.940019 -5.98139e-08 0)
(0.94002 6.06483e-08 0)
(0.94002 -6.14908e-08 0)
(0.940021 6.23181e-08 0)
(0.940021 -6.31531e-08 0)
(0.940021 6.39733e-08 0)
(0.940021 -6.48007e-08 0)
(0.940022 6.56141e-08 0)
(0.940022 -6.64273e-08 0)
(0.940022 6.72078e-08 0)
(0.940022 -6.79748e-08 0)
(0.940022 6.87106e-08 0)
(0.940022 -6.94332e-08 0)
(0.940022 7.01265e-08 0)
(0.940022 -7.08071e-08 0)
(0.940022 7.14601e-08 0)
(0.940022 -7.21015e-08 0)
(0.940022 7.27171e-08 0)
(0.940022 -7.33223e-08 0)
(0.940022 7.39034e-08 0)
(0.940022 -7.44754e-08 0)
(0.940022 7.50253e-08 0)
(0.940022 -7.55676e-08 0)
(0.940022 7.60898e-08 0)
(0.940022 -7.66059e-08 0)
(0.940022 7.7104e-08 0)
(0.940022 -7.75977e-08 0)
(0.940022 7.80756e-08 0)
(0.940022 -7.85506e-08 0)
(0.940022 7.90122e-08 0)
(0.940022 -7.94724e-08 0)
(0.940022 7.99216e-08 0)
(0.940022 -8.0371e-08 0)
(0.940022 8.08118e-08 0)
(0.940022 -8.12544e-08 0)
(0.940022 8.16909e-08 0)
(0.940022 -8.21307e-08 0)
(0.940022 8.25669e-08 0)
(0.940022 -8.30078e-08 0)
(0.940022 8.34479e-08 0)
(0.940022 -8.38941e-08 0)
(0.940022 8.4342e-08 0)
(0.940022 -8.47975e-08 0)
(0.940022 8.52575e-08 0)
(0.940022 -8.57262e-08 0)
(0.940022 8.62023e-08 0)
(0.940022 -8.66888e-08 0)
(0.940022 8.71848e-08 0)
(0.940022 -8.76932e-08 0)
(0.940022 8.82134e-08 0)
(0.940022 -8.87479e-08 0)
(0.940022 8.92964e-08 0)
(0.940022 -8.98614e-08 0)
(0.940022 9.04426e-08 0)
(0.940022 -9.10424e-08 0)
(0.940022 9.16607e-08 0)
(0.940022 -9.22998e-08 0)
(0.940022 9.29598e-08 0)
(0.940022 -9.36428e-08 0)
(0.940022 8.27001e-08 0)
(0.940022 -8.15299e-08 0)
(0.940022 8.03719e-08 0)
(0.940022 -7.92276e-08 0)
(0.940022 7.80972e-08 0)
(0.940022 -7.6982e-08 0)
(0.940022 7.58821e-08 0)
(0.940022 -7.47987e-08 0)
(0.940022 7.37321e-08 0)
(0.940022 -7.26832e-08 0)
(0.940022 7.16524e-08 0)
(0.940022 -7.06405e-08 0)
(0.940022 6.96479e-08 0)
(0.940022 -6.86753e-08 0)
(0.940022 6.77231e-08 0)
(0.940022 -6.67919e-08 0)
(0.940022 6.58821e-08 0)
(0.940022 -6.49944e-08 0)
(0.940022 6.41291e-08 0)
(0.940022 -6.32867e-08 0)
(0.940022 6.24676e-08 0)
(0.940022 -6.16723e-08 0)
(0.940022 6.09011e-08 0)
(0.940022 -6.01546e-08 0)
(0.940022 5.94328e-08 0)
(0.940022 -5.87365e-08 0)
(0.940022 5.80656e-08 0)
(0.940022 -5.74211e-08 0)
(0.940022 5.68022e-08 0)
(0.940022 -5.62108e-08 0)
(0.940022 5.56452e-08 0)
(0.940022 -5.5108e-08 0)
(0.940022 5.45966e-08 0)
(0.940022 -5.41061e-08 0)
(0.940022 5.36276e-08 0)
(0.940022 -5.31668e-08 0)
(0.940022 5.27179e-08 0)
(0.940022 -5.22889e-08 0)
(0.940022 5.18722e-08 0)
(0.940022 -5.14776e-08 0)
(0.940022 5.1096e-08 0)
(0.940022 -5.07392e-08 0)
(0.940022 5.03964e-08 0)
(0.940022 -5.00819e-08 0)
(0.940022 4.97836e-08 0)
(0.940022 -4.95179e-08 0)
(0.940022 4.92734e-08 0)
(0.940022 -4.90674e-08 0)
(0.940022 4.8893e-08 0)
(0.940022 -4.87732e-08 0)
)
;

boundaryField
{
    inandouthalf11
    {
        type            cyclic;
    }
    inandouthalf12
    {
        type            cyclic;
    }
    inandouthalf21
    {
        type            cyclic;
    }
    inandouthalf22
    {
        type            cyclic;
    }
    inandouthalf31
    {
        type            cyclic;
    }
    inandouthalf32
    {
        type            cyclic;
    }
    inandouthalf41
    {
        type            cyclic;
    }
    inandouthalf42
    {
        type            cyclic;
    }
    top
    {
        type            symmetryPlane;
    }
    walls
    {
        type            calculated;
        value           uniform (0 0 0);
    }
    frontAndBackPlanes
    {
        type            empty;
    }
}


// ************************************************************************* //
