/*--------------------------------*- C++ -*----------------------------------*\
| =========                 |                                                 |
| \\      /  F ield         | OpenFOAM: The Open Source CFD Toolbox           |
|  \\    /   O peration     | Version:  2.4.x                                 |
|   \\  /    A nd           | Web:      www.OpenFOAM.org                      |
|    \\/     M anipulation  |                                                 |
\*---------------------------------------------------------------------------*/
FoamFile
{
    version     2.0;
    format      ascii;
    class       volVectorField;
    location    "2.45";
    object      Ub_0;
}
// * * * * * * * * * * * * * * * * * * * * * * * * * * * * * * * * * * * * * //

dimensions      [0 1 -1 0 0 0 0];

internalField   nonuniform List<vector> 
360
(
(-0.000249016 -1.59445e-13 0)
(-0.00024944 -4.79322e-13 0)
(-0.000249443 -7.99881e-13 0)
(-0.000249443 -1.12074e-12 0)
(-0.000249443 -1.44116e-12 0)
(-0.000249445 -1.7611e-12 0)
(-0.000249445 -2.07995e-12 0)
(-0.000249447 -2.39759e-12 0)
(-0.000249447 -2.71338e-12 0)
(-0.000249449 -3.0275e-12 0)
(-0.000249451 -3.33925e-12 0)
(-0.000249451 -3.64817e-12 0)
(-0.000249453 -3.95442e-12 0)
(-0.000249455 -4.25786e-12 0)
(-0.000249457 -4.55808e-12 0)
(-0.000249459 -4.8549e-12 0)
(-0.000249461 -5.14738e-12 0)
(-0.000249463 -5.43389e-12 0)
(-0.000249466 -5.7057e-12 0)
(-0.00024947 -5.92742e-12 0)
(-0.000249472 -5.93724e-12 0)
(-0.000249476 -5.02516e-12 0)
(-0.00024948 -2.28813e-13 0)
(-0.000249484 1.9902e-11 0)
(-0.000249489 9.62927e-11 0)
(-0.000249493 3.69315e-10 0)
(-0.000249497 1.29296e-09 0)
(-0.000249504 4.18508e-09 0)
(-0.000249511 1.2409e-08 0)
(-0.000249519 3.34789e-08 0)
(-0.00024953 8.19349e-08 0)
(-0.000249548 1.82012e-07 0)
(-0.000249574 3.67441e-07 0)
(-0.000249619 6.76801e-07 0)
(-0.000249681 1.14259e-06 0)
(-0.000249767 1.77858e-06 0)
(-0.000249875 2.57129e-06 0)
(-0.000250001 3.48021e-06 0)
(-0.000250139 4.4477e-06 0)
(-0.000250276 5.41176e-06 0)
(-0.000250412 6.32079e-06 0)
(-0.000250537 7.14083e-06 0)
(-0.000250649 7.85535e-06 0)
(-0.000250751 8.46338e-06 0)
(-0.00025084 8.973e-06 0)
(-0.00025092 9.39661e-06 0)
(-0.000250992 9.74805e-06 0)
(-0.000251057 1.00403e-05 0)
(-0.000251118 1.0285e-05 0)
(-0.000251178 1.04921e-05 0)
(-0.000251234 1.06693e-05 0)
(-0.00025129 1.08227e-05 0)
(-0.000251344 1.09569e-05 0)
(-0.0002514 1.10759e-05 0)
(-0.000251456 1.11825e-05 0)
(-0.000251514 1.12795e-05 0)
(-0.000251573 1.13684e-05 0)
(-0.000251635 1.14511e-05 0)
(-0.000251698 1.15289e-05 0)
(-0.000251762 1.16026e-05 0)
(-0.000251831 1.16732e-05 0)
(-0.000251899 1.17415e-05 0)
(-0.00025197 1.18082e-05 0)
(-0.000252041 1.18737e-05 0)
(-0.000252115 1.19389e-05 0)
(-0.000252189 1.20046e-05 0)
(-0.000252267 1.20719e-05 0)
(-0.000252348 1.21423e-05 0)
(-0.000252432 1.22177e-05 0)
(-0.000252522 1.23004e-05 0)
(-0.000252618 1.23937e-05 0)
(-0.000252721 1.25012e-05 0)
(-0.000252829 1.2627e-05 0)
(-0.000252946 1.27756e-05 0)
(-0.000253069 1.29511e-05 0)
(-0.000253199 1.31566e-05 0)
(-0.000253334 1.3393e-05 0)
(-0.000253474 1.36586e-05 0)
(-0.000253619 1.39495e-05 0)
(-0.000253767 1.42603e-05 0)
(-0.000253919 1.45851e-05 0)
(-0.000254073 1.4919e-05 0)
(-0.000254231 1.5259e-05 0)
(-0.000254392 1.56038e-05 0)
(-0.000254558 1.59536e-05 0)
(-0.000254726 1.63094e-05 0)
(-0.000254899 1.66727e-05 0)
(-0.000255074 1.70447e-05 0)
(-0.000255253 1.74262e-05 0)
(-0.000255435 1.78171e-05 0)
(-0.000255619 1.82167e-05 0)
(-0.000255806 1.86242e-05 0)
(-0.000255996 1.90382e-05 0)
(-0.000256188 1.94576e-05 0)
(-0.000256383 1.98812e-05 0)
(-0.000256581 2.03081e-05 0)
(-0.000256781 2.07374e-05 0)
(-0.000256984 2.11683e-05 0)
(-0.000257189 2.16001e-05 0)
(-0.000257396 2.20321e-05 0)
(-0.000257606 2.24634e-05 0)
(-0.000257818 2.28936e-05 0)
(-0.000258032 2.33218e-05 0)
(-0.000258249 2.37477e-05 0)
(-0.000258469 2.41708e-05 0)
(-0.000258691 2.45907e-05 0)
(-0.000258916 2.50071e-05 0)
(-0.000259144 2.54197e-05 0)
(-0.000259375 2.58283e-05 0)
(-0.000259609 2.62328e-05 0)
(-0.000259846 2.6633e-05 0)
(-0.000260087 2.70287e-05 0)
(-0.000260332 2.742e-05 0)
(-0.000260581 2.78068e-05 0)
(-0.000260834 2.81889e-05 0)
(-0.000261091 2.85664e-05 0)
(-0.000261353 2.89391e-05 0)
(-0.000261621 2.9307e-05 0)
(-0.000261893 2.967e-05 0)
(-0.000262172 3.00279e-05 0)
(-0.000262456 3.03805e-05 0)
(-0.000262748 3.07275e-05 0)
(-0.000263046 3.10683e-05 0)
(-0.000263352 3.14023e-05 0)
(-0.000263666 3.17289e-05 0)
(-0.000263988 3.20472e-05 0)
(-0.000264321 3.23565e-05 0)
(-0.000264664 3.26559e-05 0)
(-0.000265019 3.29446e-05 0)
(-0.000265387 3.32217e-05 0)
(-0.000265768 3.3486e-05 0)
(-0.000266162 3.37363e-05 0)
(-0.000266571 3.39726e-05 0)
(-0.000267 3.41963e-05 0)
(-0.000267451 3.4411e-05 0)
(-0.000267924 3.46216e-05 0)
(-0.000268409 3.48338e-05 0)
(-0.000268914 3.50555e-05 0)
(-0.000269462 3.52993e-05 0)
(-0.000270075 3.55792e-05 0)
(-0.000270709 3.58922e-05 0)
(-0.000271264 3.61838e-05 0)
(-0.000271955 3.64059e-05 0)
(-0.000272937 3.65214e-05 0)
(-0.000274223 3.66557e-05 0)
(-0.000275759 3.09334e-05 0)
(-0.000102953 6.18156e-05 0)
(0.0314508 0.000261221 0)
(0.0841155 0.000155167 0)
(0.130665 0.000169183 0)
(0.172469 0.000160905 0)
(0.21075 0.000145011 0)
(0.246302 0.000124458 0)
(0.279663 0.000101755 0)
(0.311225 7.8408e-05 0)
(0.341286 5.37167e-05 0)
(0.370078 2.62787e-05 0)
(0.397785 -4.21216e-06 0)
(0.424562 -3.67485e-05 0)
(0.450535 -6.88131e-05 0)
(0.475804 -9.76274e-05 0)
(0.500455 -0.000121691 0)
(0.524555 -0.000140601 0)
(0.548161 -0.000154491 0)
(0.571321 -0.000163742 0)
(0.594072 -0.000168828 0)
(0.616447 -0.000170249 0)
(0.638471 -0.00016849 0)
(0.660167 -0.000163983 0)
(0.681548 -0.000157112 0)
(0.702627 -0.000148217 0)
(0.72341 -0.000137623 0)
(0.743899 -0.000125678 0)
(0.764088 -0.00011274 0)
(0.783968 -9.90047e-05 0)
(0.803516 -8.42716e-05 0)
(0.822698 -6.80959e-05 0)
(0.841452 -5.06943e-05 0)
(0.859676 -3.3766e-05 0)
(0.877197 -1.98682e-05 0)
(0.893736 -1.05821e-05 0)
(0.908947 -5.49407e-06 0)
(0.919726 -3.11322e-06 0)
(0.923196 -2.04352e-06 0)
(0.92468 -1.43176e-06 0)
(0.925943 -1.09564e-06 0)
(0.927093 -8.37183e-07 0)
(0.928144 -7.02217e-07 0)
(0.929107 -5.57585e-07 0)
(0.929991 -4.89876e-07 0)
(0.930803 -3.9486e-07 0)
(0.931548 -3.57842e-07 0)
(0.932234 -2.88674e-07 0)
(0.932864 -2.68433e-07 0)
(0.933445 -2.16288e-07 0)
(0.933979 -2.0631e-07 0)
(0.934471 -1.64543e-07 0)
(0.934923 -1.601e-07 0)
(0.93534 -1.26151e-07 0)
(0.935724 -1.26721e-07 0)
(0.936079 -9.81723e-08 0)
(0.936409 -1.01771e-07 0)
(0.936718 -7.3012e-08 0)
(0.937007 -8.28333e-08 0)
(0.937278 -5.45493e-08 0)
(0.937532 -6.99969e-08 0)
(0.937769 -3.72394e-08 0)
(0.937988 -5.81088e-08 0)
(0.938192 -2.41713e-08 0)
(0.938382 -5.13352e-08 0)
(0.938557 -1.22688e-08 0)
(0.938719 -4.52455e-08 0)
(0.938868 -3.09517e-09 0)
(0.939005 -4.15633e-08 0)
(0.939131 5.36005e-09 0)
(0.939247 -3.93538e-08 0)
(0.939352 1.18069e-08 0)
(0.939449 -3.77599e-08 0)
(0.939537 1.79437e-08 0)
(0.939616 -3.75372e-08 0)
(0.939688 2.27808e-08 0)
(0.939754 -3.74926e-08 0)
(0.939812 2.7105e-08 0)
(0.939865 -3.8087e-08 0)
(0.939913 3.09144e-08 0)
(0.939955 -3.90796e-08 0)
(0.939993 3.41821e-08 0)
(0.940027 -4.01743e-08 0)
(0.940057 3.70577e-08 0)
(0.940083 -4.15484e-08 0)
(0.940107 3.96842e-08 0)
(0.940127 -4.29988e-08 0)
(0.940145 4.19843e-08 0)
(0.940161 -4.44486e-08 0)
(0.940175 4.40308e-08 0)
(0.940187 -4.58993e-08 0)
(0.940197 4.59142e-08 0)
(0.940206 -4.73893e-08 0)
(0.940214 4.77067e-08 0)
(0.94022 -4.89347e-08 0)
(0.940226 4.94039e-08 0)
(0.940231 -5.08216e-08 0)
(0.940235 5.21396e-08 0)
(0.940238 -5.301e-08 0)
(0.940241 5.38673e-08 0)
(0.940244 -5.4736e-08 0)
(0.940246 5.55893e-08 0)
(0.940247 -5.64532e-08 0)
(0.940249 5.73008e-08 0)
(0.94025 -5.81583e-08 0)
(0.940251 5.89993e-08 0)
(0.940252 -5.98497e-08 0)
(0.940252 6.06836e-08 0)
(0.940253 -6.15265e-08 0)
(0.940253 6.23534e-08 0)
(0.940254 -6.31887e-08 0)
(0.940254 6.40085e-08 0)
(0.940254 -6.48362e-08 0)
(0.940254 6.56491e-08 0)
(0.940254 -6.64619e-08 0)
(0.940254 6.72412e-08 0)
(0.940255 -6.80076e-08 0)
(0.940255 6.87422e-08 0)
(0.940255 -6.94642e-08 0)
(0.940255 7.01563e-08 0)
(0.940255 -7.08362e-08 0)
(0.940255 7.14882e-08 0)
(0.940255 -7.21289e-08 0)
(0.940255 7.27433e-08 0)
(0.940255 -7.33477e-08 0)
(0.940255 7.39278e-08 0)
(0.940255 -7.44991e-08 0)
(0.940255 7.50479e-08 0)
(0.940255 -7.55895e-08 0)
(0.940255 7.61107e-08 0)
(0.940255 -7.66261e-08 0)
(0.940255 7.71233e-08 0)
(0.940255 -7.76163e-08 0)
(0.940255 7.80933e-08 0)
(0.940255 -7.85675e-08 0)
(0.940255 7.90283e-08 0)
(0.940255 -7.94878e-08 0)
(0.940255 7.99362e-08 0)
(0.940255 -8.03849e-08 0)
(0.940255 8.08249e-08 0)
(0.940255 -8.12669e-08 0)
(0.940255 8.17026e-08 0)
(0.940255 -8.21418e-08 0)
(0.940255 8.25774e-08 0)
(0.940255 -8.30177e-08 0)
(0.940255 8.34571e-08 0)
(0.940255 -8.39027e-08 0)
(0.940255 8.43501e-08 0)
(0.940255 -8.4805e-08 0)
(0.940255 8.52644e-08 0)
(0.940255 -8.57327e-08 0)
(0.940255 8.62082e-08 0)
(0.940255 -8.66942e-08 0)
(0.940255 8.71897e-08 0)
(0.940255 -8.76976e-08 0)
(0.940255 8.82173e-08 0)
(0.940255 -8.87513e-08 0)
(0.940255 8.92994e-08 0)
(0.940255 -8.98639e-08 0)
(0.940255 9.04447e-08 0)
(0.940255 -9.10441e-08 0)
(0.940255 9.1662e-08 0)
(0.940255 -9.23007e-08 0)
(0.940255 9.29602e-08 0)
(0.940255 -9.36429e-08 0)
(0.940255 8.26997e-08 0)
(0.940255 -8.15292e-08 0)
(0.940255 8.03708e-08 0)
(0.940255 -7.92263e-08 0)
(0.940255 7.80955e-08 0)
(0.940255 -7.698e-08 0)
(0.940255 7.58797e-08 0)
(0.940255 -7.47962e-08 0)
(0.940255 7.37291e-08 0)
(0.940255 -7.26801e-08 0)
(0.940255 7.16489e-08 0)
(0.940255 -7.06368e-08 0)
(0.940255 6.96438e-08 0)
(0.940255 -6.86711e-08 0)
(0.940255 6.77185e-08 0)
(0.940255 -6.67872e-08 0)
(0.940255 6.58772e-08 0)
(0.940255 -6.49892e-08 0)
(0.940255 6.41237e-08 0)
(0.940255 -6.32811e-08 0)
(0.940255 6.24618e-08 0)
(0.940255 -6.16663e-08 0)
(0.940255 6.08949e-08 0)
(0.940255 -6.01482e-08 0)
(0.940255 5.94263e-08 0)
(0.940255 -5.87297e-08 0)
(0.940255 5.80589e-08 0)
(0.940255 -5.74139e-08 0)
(0.940255 5.67954e-08 0)
(0.940255 -5.62031e-08 0)
(0.940255 5.56383e-08 0)
(0.940255 -5.50997e-08 0)
(0.940255 5.45897e-08 0)
(0.940255 -5.40972e-08 0)
(0.940255 5.36212e-08 0)
(0.940255 -5.31572e-08 0)
(0.940255 5.27118e-08 0)
(0.940255 -5.22788e-08 0)
(0.940255 5.18665e-08 0)
(0.940255 -5.14669e-08 0)
(0.940255 5.10908e-08 0)
(0.940255 -5.0728e-08 0)
(0.940255 5.03917e-08 0)
(0.940255 -5.007e-08 0)
(0.940255 4.97793e-08 0)
(0.940255 -4.9506e-08 0)
(0.940255 4.92684e-08 0)
(0.940255 -4.90564e-08 0)
(0.940255 4.88869e-08 0)
(0.940255 -4.87639e-08 0)
)
;

boundaryField
{
    inandouthalf11
    {
        type            cyclic;
    }
    inandouthalf12
    {
        type            cyclic;
    }
    inandouthalf21
    {
        type            cyclic;
    }
    inandouthalf22
    {
        type            cyclic;
    }
    inandouthalf31
    {
        type            cyclic;
    }
    inandouthalf32
    {
        type            cyclic;
    }
    inandouthalf41
    {
        type            cyclic;
    }
    inandouthalf42
    {
        type            cyclic;
    }
    top
    {
        type            symmetryPlane;
    }
    walls
    {
        type            fixedValue;
        value           uniform (0 0 0);
    }
    frontAndBackPlanes
    {
        type            empty;
    }
}


// ************************************************************************* //
