/*--------------------------------*- C++ -*----------------------------------*\
| =========                 |                                                 |
| \\      /  F ield         | OpenFOAM: The Open Source CFD Toolbox           |
|  \\    /   O peration     | Version:  2.4.x                                 |
|   \\  /    A nd           | Web:      www.OpenFOAM.org                      |
|    \\/     M anipulation  |                                                 |
\*---------------------------------------------------------------------------*/
FoamFile
{
    version     2.0;
    format      ascii;
    class       volVectorField;
    location    "2.45";
    object      Ur;
}
// * * * * * * * * * * * * * * * * * * * * * * * * * * * * * * * * * * * * * //

dimensions      [0 1 -1 0 0 0 0];

internalField   nonuniform List<vector> 
360
(
(-0.000249048 -1.36725e-13 0)
(-0.000249472 -4.109e-13 0)
(-0.000249474 -6.85885e-13 0)
(-0.000249474 -9.61149e-13 0)
(-0.000249474 -1.2362e-12 0)
(-0.000249477 -1.51073e-12 0)
(-0.000249477 -1.78438e-12 0)
(-0.000249479 -2.05705e-12 0)
(-0.000249479 -2.32777e-12 0)
(-0.000249481 -2.59741e-12 0)
(-0.000249483 -2.86519e-12 0)
(-0.000249483 -3.13096e-12 0)
(-0.000249485 -3.3943e-12 0)
(-0.000249487 -3.65494e-12 0)
(-0.000249489 -3.91304e-12 0)
(-0.000249491 -4.16832e-12 0)
(-0.000249493 -4.41967e-12 0)
(-0.000249495 -4.66441e-12 0)
(-0.000249498 -4.89048e-12 0)
(-0.000249502 -5.04365e-12 0)
(-0.000249504 -4.88043e-12 0)
(-0.000249508 -3.32665e-12 0)
(-0.000249512 4.14656e-12 0)
(-0.000249516 3.53662e-11 0)
(-0.000249521 1.55672e-10 0)
(-0.000249525 5.92458e-10 0)
(-0.000249529 2.082e-09 0)
(-0.000249535 6.76516e-09 0)
(-0.000249541 2.01391e-08 0)
(-0.000249547 5.45673e-08 0)
(-0.000249553 1.34148e-07 0)
(-0.00024956 2.99283e-07 0)
(-0.000249565 6.06589e-07 0)
(-0.000249572 1.12087e-06 0)
(-0.000249576 1.89671e-06 0)
(-0.000249581 2.95617e-06 0)
(-0.000249585 4.27468e-06 0)
(-0.000249591 5.78212e-06 0)
(-0.000249599 7.38054e-06 0)
(-0.000249606 8.96627e-06 0)
(-0.000249617 1.04549e-05 0)
(-0.000249629 1.17924e-05 0)
(-0.000249641 1.2954e-05 0)
(-0.000249658 1.39401e-05 0)
(-0.000249676 1.47654e-05 0)
(-0.000249695 1.54507e-05 0)
(-0.000249717 1.60192e-05 0)
(-0.000249738 1.6492e-05 0)
(-0.000249764 1.68881e-05 0)
(-0.000249793 1.72239e-05 0)
(-0.000249822 1.75114e-05 0)
(-0.000249854 1.77606e-05 0)
(-0.000249889 1.79791e-05 0)
(-0.000249926 1.8173e-05 0)
(-0.000249965 1.8347e-05 0)
(-0.000250008 1.85054e-05 0)
(-0.000250052 1.8651e-05 0)
(-0.000250101 1.87866e-05 0)
(-0.000250152 1.89142e-05 0)
(-0.000250204 1.90354e-05 0)
(-0.000250261 1.91517e-05 0)
(-0.000250317 1.92642e-05 0)
(-0.000250377 1.93741e-05 0)
(-0.000250438 1.94823e-05 0)
(-0.0002505 1.959e-05 0)
(-0.000250563 1.96985e-05 0)
(-0.00025063 1.98096e-05 0)
(-0.000250698 1.99258e-05 0)
(-0.00025077 2.00503e-05 0)
(-0.000250845 2.01868e-05 0)
(-0.000250926 2.03406e-05 0)
(-0.000251011 2.05176e-05 0)
(-0.000251097 2.07248e-05 0)
(-0.000251189 2.09695e-05 0)
(-0.000251282 2.12587e-05 0)
(-0.000251378 2.15974e-05 0)
(-0.000251473 2.19873e-05 0)
(-0.000251569 2.24257e-05 0)
(-0.000251665 2.29059e-05 0)
(-0.000251762 2.34188e-05 0)
(-0.00025186 2.39545e-05 0)
(-0.00025196 2.45052e-05 0)
(-0.000252063 2.50656e-05 0)
(-0.000252168 2.56338e-05 0)
(-0.000252278 2.62101e-05 0)
(-0.00025239 2.67965e-05 0)
(-0.000252505 2.73954e-05 0)
(-0.000252623 2.8009e-05 0)
(-0.000252742 2.86383e-05 0)
(-0.000252864 2.92833e-05 0)
(-0.000252988 2.9943e-05 0)
(-0.000253114 3.06157e-05 0)
(-0.000253242 3.12994e-05 0)
(-0.000253373 3.19921e-05 0)
(-0.000253507 3.26919e-05 0)
(-0.000253643 3.33972e-05 0)
(-0.000253782 3.41068e-05 0)
(-0.000253925 3.48193e-05 0)
(-0.00025407 3.55334e-05 0)
(-0.000254219 3.62481e-05 0)
(-0.000254371 3.6962e-05 0)
(-0.000254527 3.76741e-05 0)
(-0.000254686 3.83834e-05 0)
(-0.000254849 3.90891e-05 0)
(-0.000255016 3.97905e-05 0)
(-0.000255187 4.04869e-05 0)
(-0.000255362 4.11778e-05 0)
(-0.000255542 4.18628e-05 0)
(-0.000255726 4.25416e-05 0)
(-0.000255915 4.3214e-05 0)
(-0.00025611 4.38796e-05 0)
(-0.000256309 4.45383e-05 0)
(-0.000256515 4.51901e-05 0)
(-0.000256726 4.58347e-05 0)
(-0.000256943 4.64721e-05 0)
(-0.000257166 4.71023e-05 0)
(-0.000257397 4.77252e-05 0)
(-0.000257634 4.83406e-05 0)
(-0.000257879 4.89484e-05 0)
(-0.000258132 4.95484e-05 0)
(-0.000258394 5.01401e-05 0)
(-0.000258664 5.07231e-05 0)
(-0.000258944 5.12966e-05 0)
(-0.000259233 5.18596e-05 0)
(-0.000259534 5.24109e-05 0)
(-0.000259846 5.29493e-05 0)
(-0.000260171 5.34734e-05 0)
(-0.000260509 5.39821e-05 0)
(-0.000260862 5.44741e-05 0)
(-0.000261231 5.49477e-05 0)
(-0.000261617 5.5401e-05 0)
(-0.000262018 5.58322e-05 0)
(-0.000262438 5.62408e-05 0)
(-0.00026288 5.66296e-05 0)
(-0.000263348 5.70044e-05 0)
(-0.000263841 5.73734e-05 0)
(-0.000264354 5.77459e-05 0)
(-0.000264891 5.81355e-05 0)
(-0.000265483 5.8564e-05 0)
(-0.000266157 5.90571e-05 0)
(-0.000266871 5.9612e-05 0)
(-0.000267519 6.01413e-05 0)
(-0.0002683 6.05562e-05 0)
(-0.000269351 6.07977e-05 0)
(-0.000270666 6.09846e-05 0)
(-0.000272206 5.51898e-05 0)
(-9.95591e-05 8.64588e-05 0)
(0.00256806 0.000668368 0)
(0.00452951 0.000610987 0)
(0.00438596 0.000790769 0)
(0.0039059 0.000913076 0)
(0.00313673 0.000975415 0)
(0.00232654 0.000982061 0)
(0.00152828 0.000934542 0)
(0.000755349 0.000835237 0)
(2.11642e-05 0.000666139 0)
(-0.000639847 0.000390239 0)
(-0.00118767 -2.97735e-05 0)
(-0.00161323 -0.000614253 0)
(-0.00192489 -0.0013472 0)
(-0.00213219 -0.00219374 0)
(-0.00223896 -0.00312259 0)
(-0.00224204 -0.00411137 0)
(-0.00213089 -0.00514505 0)
(-0.00188688 -0.00621437 0)
(-0.0014826 -0.00731392 0)
(-0.000880786 -0.00844143 0)
(-3.30521e-05 -0.00959683 0)
(0.00112191 -0.010781 0)
(0.00266005 -0.0119953 0)
(0.00467379 -0.0132404 0)
(0.00727393 -0.0145161 0)
(0.0105913 -0.0158242 0)
(0.0147772 -0.0171724 0)
(0.0200016 -0.0185692 0)
(0.0264418 -0.0199889 0)
(0.0342521 -0.0213138 0)
(0.0434945 -0.0223303 0)
(0.0540381 -0.0228542 0)
(0.0654885 -0.0228901 0)
(0.0772087 -0.02262 0)
(0.0884848 -0.0222463 0)
(0.0960115 -0.0218832 0)
(0.0965874 -0.0215602 0)
(0.095383 -0.0212744 0)
(0.0941494 -0.0210202 0)
(0.092962 -0.0207929 0)
(0.0918124 -0.0205885 0)
(0.0906939 -0.0204032 0)
(0.0896017 -0.0202341 0)
(0.0885332 -0.0200787 0)
(0.0874855 -0.0199351 0)
(0.0864563 -0.0198014 0)
(0.0854436 -0.0196759 0)
(0.0844492 -0.0195576 0)
(0.0834734 -0.0194456 0)
(0.0825161 -0.0193389 0)
(0.0815745 -0.0192365 0)
(0.0806509 -0.0191375 0)
(0.0797498 -0.0190417 0)
(0.0788756 -0.0189488 0)
(0.0780178 -0.0188572 0)
(0.0771597 -0.0187649 0)
(0.0763015 -0.0186717 0)
(0.0754544 -0.0185784 0)
(0.0746218 -0.0184855 0)
(0.0737874 -0.0183913 0)
(0.0729415 -0.0182941 0)
(0.0721007 -0.0181956 0)
(0.0712741 -0.018097 0)
(0.070443 -0.0179959 0)
(0.0696032 -0.0178912 0)
(0.0687697 -0.0177848 0)
(0.0679385 -0.0176763 0)
(0.0670979 -0.0175633 0)
(0.0662604 -0.0174476 0)
(0.0654348 -0.0173303 0)
(0.0646008 -0.0172083 0)
(0.0637537 -0.0170798 0)
(0.0629175 -0.016949 0)
(0.0620897 -0.0168153 0)
(0.0612529 -0.0166749 0)
(0.0604157 -0.016529 0)
(0.0595784 -0.0163778 0)
(0.0587342 -0.0162186 0)
(0.0578968 -0.0160543 0)
(0.0570617 -0.0158835 0)
(0.0562142 -0.0157018 0)
(0.0553716 -0.0155123 0)
(0.0545366 -0.015316 0)
(0.0536936 -0.0151067 0)
(0.0528577 -0.0148879 0)
(0.0520322 -0.0146596 0)
(0.0512125 -0.0144187 0)
(0.0504031 -0.014165 0)
(0.0496095 -0.0138982 0)
(0.0488414 -0.0136195 0)
(0.0481012 -0.0133272 0)
(0.0474007 -0.0130209 0)
(0.0467666 -0.0127094 0)
(0.0462252 -0.0124021 0)
(0.0456777 -0.0120771 0)
(-0.00468373 0.0394866 0)
(-0.0046839 0.0394864 0)
(-0.00468375 0.0394865 0)
(-0.00468366 0.0394864 0)
(-0.00468357 0.0394865 0)
(-0.0046835 0.0394865 0)
(-0.00468344 0.0394865 0)
(-0.0046834 0.0394865 0)
(-0.00468336 0.0394865 0)
(-0.00468333 0.0394865 0)
(-0.0046833 0.0394865 0)
(-0.00468328 0.0394865 0)
(-0.00468326 0.0394865 0)
(-0.00468325 0.0394865 0)
(-0.00468324 0.0394866 0)
(-0.00468323 0.0394865 0)
(-0.00468322 0.0394866 0)
(-0.00468322 0.0394865 0)
(-0.00468322 0.0394866 0)
(-0.00468322 0.0394864 0)
(-0.00468321 0.0394866 0)
(-0.00468321 0.0394864 0)
(-0.00468321 0.0394866 0)
(-0.00468321 0.0394864 0)
(-0.0046832 0.0394866 0)
(-0.00468321 0.0394864 0)
(-0.0046832 0.0394866 0)
(-0.00468321 0.0394864 0)
(-0.0046832 0.0394866 0)
(-0.00468321 0.0394864 0)
(-0.0046832 0.0394866 0)
(-0.00468321 0.0394864 0)
(-0.0046832 0.0394866 0)
(-0.00468321 0.0394864 0)
(-0.0046832 0.0394866 0)
(-0.00468321 0.0394864 0)
(-0.0046832 0.0394866 0)
(-0.00468321 0.0394864 0)
(-0.0046832 0.0394866 0)
(-0.00468321 0.0394864 0)
(-0.0046832 0.0394866 0)
(-0.00468321 0.0394864 0)
(-0.0046832 0.0394866 0)
(-0.00468321 0.0394864 0)
(-0.0046832 0.0394866 0)
(-0.00468321 0.0394864 0)
(-0.0046832 0.0394866 0)
(-0.00468321 0.0394864 0)
(-0.0046832 0.0394866 0)
(-0.00468321 0.0394864 0)
(-0.0046832 0.0394866 0)
(-0.00468321 0.0394864 0)
(-0.0046832 0.0394866 0)
(-0.00468321 0.0394864 0)
(-0.0046832 0.0394866 0)
(-0.00468321 0.0394864 0)
(-0.0046832 0.0394866 0)
(-0.00468321 0.0394864 0)
(-0.0046832 0.0394866 0)
(-0.00468321 0.0394864 0)
(-0.0046832 0.0394866 0)
(-0.00468321 0.0394864 0)
(-0.0046832 0.0394866 0)
(-0.00468321 0.0394864 0)
(-0.0046832 0.0394866 0)
(-0.00468321 0.0394864 0)
(-0.0046832 0.0394866 0)
(-0.00468321 0.0394864 0)
(-0.0046832 0.0394866 0)
(-0.00468321 0.0394864 0)
(-0.0046832 0.0394866 0)
(-0.00468321 0.0394864 0)
(-0.0046832 0.0394866 0)
(-0.00468321 0.0394864 0)
(-0.0046832 0.0394866 0)
(-0.00468321 0.0394864 0)
(-0.0046832 0.0394866 0)
(-0.00468321 0.0394864 0)
(-0.0046832 0.0394866 0)
(-0.00468321 0.0394864 0)
(-0.0046832 0.0394866 0)
(-0.00468321 0.0394864 0)
(-0.0046832 0.0394866 0)
(-0.00468321 0.0394864 0)
(-0.0046832 0.0394866 0)
(-0.00468321 0.0394865 0)
(-0.0046832 0.0394866 0)
(-0.00468321 0.0394865 0)
(-0.0046832 0.0394866 0)
(-0.00468321 0.0394865 0)
(-0.0046832 0.0394866 0)
(-0.00468321 0.0394865 0)
(-0.0046832 0.0394865 0)
(-0.00468321 0.0394865 0)
(-0.0046832 0.0394865 0)
(-0.00468321 0.0394865 0)
(-0.0046832 0.0394865 0)
(-0.00468321 0.0394865 0)
(-0.0046832 0.0394865 0)
(-0.00468321 0.0394865 0)
(-0.0046832 0.0394865 0)
(-0.00468321 0.0394865 0)
(-0.0046832 0.0394865 0)
(-0.00468321 0.0394865 0)
(-0.0046832 0.0394865 0)
(-0.00468321 0.0394865 0)
(-0.0046832 0.0394865 0)
(-0.00468321 0.0394865 0)
(-0.0046832 0.0394865 0)
(-0.00468321 0.0394865 0)
(-0.0046832 0.0394865 0)
(-0.00468321 0.0394865 0)
(-0.0046832 0.0394865 0)
(-0.00468321 0.0394865 0)
(-0.00468325 0.0394863 0)
(-0.00468455 0.0394778 0)
(-0.00471617 0.0391318 0)
(-0.00544971 0.0223761 0)
)
;

boundaryField
{
    inandouthalf11
    {
        type            cyclic;
    }
    inandouthalf12
    {
        type            cyclic;
    }
    inandouthalf21
    {
        type            cyclic;
    }
    inandouthalf22
    {
        type            cyclic;
    }
    inandouthalf31
    {
        type            cyclic;
    }
    inandouthalf32
    {
        type            cyclic;
    }
    inandouthalf41
    {
        type            cyclic;
    }
    inandouthalf42
    {
        type            cyclic;
    }
    top
    {
        type            symmetryPlane;
    }
    walls
    {
        type            calculated;
        value           uniform (0 0 0);
    }
    frontAndBackPlanes
    {
        type            empty;
    }
}


// ************************************************************************* //
