/*--------------------------------*- C++ -*----------------------------------*\
| =========                 |                                                 |
| \\      /  F ield         | OpenFOAM: The Open Source CFD Toolbox           |
|  \\    /   O peration     | Version:  2.4.x                                 |
|   \\  /    A nd           | Web:      www.OpenFOAM.org                      |
|    \\/     M anipulation  |                                                 |
\*---------------------------------------------------------------------------*/
FoamFile
{
    version     2.0;
    format      ascii;
    class       volScalarField;
    location    "0";
    object      alpha;
}
// * * * * * * * * * * * * * * * * * * * * * * * * * * * * * * * * * * * * * //

dimensions      [0 0 0 0 0 0 0];

internalField   nonuniform List<scalar> 
360
(
0.609996
0.609996
0.609995
0.609995
0.609995
0.609994
0.609994
0.609993
0.609993
0.609992
0.609991
0.609991
0.60999
0.609989
0.609988
0.609987
0.609986
0.609985
0.609984
0.609982
0.609981
0.609979
0.609977
0.609975
0.609973
0.609971
0.609969
0.609966
0.609963
0.60996
0.609957
0.609953
0.60995
0.609945
0.609941
0.609936
0.609931
0.609925
0.609918
0.609912
0.609904
0.609896
0.609888
0.609878
0.609868
0.609857
0.609845
0.609833
0.609819
0.609803
0.609787
0.609769
0.60975
0.609729
0.609707
0.609682
0.609656
0.609627
0.609596
0.609563
0.609526
0.609487
0.609444
0.609398
0.609348
0.609294
0.609235
0.609171
0.609102
0.609028
0.608947
0.608859
0.608765
0.608662
0.608551
0.60843
0.6083
0.608159
0.608006
0.60784
0.607661
0.607467
0.607257
0.60703
0.606784
0.606518
0.606229
0.605917
0.60558
0.605215
0.604819
0.604392
0.603929
0.603429
0.602888
0.602304
0.601671
0.600988
0.600249
0.599451
0.598589
0.597658
0.596652
0.595567
0.594396
0.593132
0.591769
0.5903
0.588716
0.58701
0.585174
0.583197
0.58107
0.578784
0.576328
0.57369
0.57086
0.567826
0.564575
0.561095
0.557373
0.553396
0.549152
0.544627
0.539809
0.534685
0.529243
0.523471
0.517359
0.510896
0.504076
0.496889
0.489332
0.481401
0.473094
0.464413
0.455361
0.445946
0.436176
0.426064
0.415626
0.404881
0.39385
0.38256
0.371038
0.359315
0.347423
0.335399
0.323278
0.311099
0.298901
0.286722
0.274601
0.262577
0.250685
0.238962
0.22744
0.21615
0.205119
0.194374
0.183936
0.173824
0.164054
0.154639
0.145587
0.136906
0.128599
0.120668
0.113111
0.105924
0.0991037
0.0926414
0.0865291
0.0807572
0.0753149
0.0701907
0.0653725
0.0608478
0.0566037
0.0526273
0.0489055
0.0454254
0.0421744
0.03914
0.0363099
0.0336723
0.031216
0.0289298
0.0268033
0.0248264
0.0229896
0.0212838
0.0197002
0.0182309
0.016868
0.0156043
0.014433
0.0133476
0.0123421
0.011411
0.0105488
0.00974297
0.00898322
0.00826823
0.00759662
0.00696691
0.00637762
0.00582722
0.00531414
0.00483681
0.00439363
0.003983
0.00360334
0.00325304
0.00293053
0.00263427
0.00236272
0.00211439
0.00188782
0.00168158
0.0014943
0.00132466
0.00117136
0.0010332
0.000908984
0.000797608
0.000698007
0.00060918
0.00053018
0.000460118
0.000398161
0.000343532
0.000295508
0.000253419
0.000216646
0.000184619
0.000156815
0.000132757
0.00011201
9.41789e-05
7.89081e-05
6.58761e-05
5.47951e-05
4.54078e-05
3.74854e-05
3.08249e-05
2.52474e-05
2.05955e-05
1.67313e-05
1.35349e-05
1.09022e-05
8.74307e-06
6.98021e-06
5.54737e-06
4.38814e-06
3.45468e-06
2.70661e-06
2.11005e-06
1.63669e-06
1.26299e-06
9.69497e-07
7.40224e-07
5.62084e-07
4.24437e-07
3.18675e-07
2.3788e-07
1.76518e-07
1.30194e-07
9.54351e-08
6.95166e-08
5.03125e-08
3.61754e-08
2.5837e-08
1.83275e-08
1.29104e-08
9.02997e-09
6.27021e-09
4.32178e-09
2.95639e-09
2.00685e-09
1.35161e-09
9.03039e-10
5.98418e-10
3.93257e-10
2.5624e-10
1.65517e-10
1.0597e-10
6.7235e-11
4.22665e-11
2.63212e-11
1.62345e-11
9.91548e-12
5.99574e-12
3.58867e-12
2.12571e-12
1.24584e-12
7.22272e-13
4.1413e-13
2.34798e-13
1.31587e-13
7.28706e-14
3.98892e-14
2.157e-14
1.1513e-14
6.06126e-15
3.14915e-15
1.62537e-15
8.12683e-16
4.06342e-16
2.03171e-16
1.01585e-16
6.77236e-17
3.38618e-17
0
0
0
0
0
0
0
0
0
0
0
0
0
0
0
0
0
0
0
0
0
0
0
0
0
0
0
0
0
0
0
0
0
0
0
0
0
0
0
0
0
0
0
0
0
0
0
)
;

boundaryField
{
    inandouthalf11
    {
        type            cyclic;
    }
    inandouthalf12
    {
        type            cyclic;
    }
    inandouthalf21
    {
        type            cyclic;
    }
    inandouthalf22
    {
        type            cyclic;
    }
    inandouthalf31
    {
        type            cyclic;
    }
    inandouthalf32
    {
        type            cyclic;
    }
    inandouthalf41
    {
        type            cyclic;
    }
    inandouthalf42
    {
        type            cyclic;
    }
    top
    {
        type            symmetryPlane;
    }
    walls
    {
        type            zeroGradient;
    }
    frontAndBackPlanes
    {
        type            empty;
    }
}


// ************************************************************************* //
