/*--------------------------------*- C++ -*----------------------------------*\
| =========                 |                                                 |
| \\      /  F ield         | OpenFOAM: The Open Source CFD Toolbox           |
|  \\    /   O peration     | Version:  2.4.x                                 |
|   \\  /    A nd           | Web:      www.OpenFOAM.org                      |
|    \\/     M anipulation  |                                                 |
\*---------------------------------------------------------------------------*/
FoamFile
{
    version     2.0;
    format      ascii;
    class       volScalarField;
    location    "0";
    object      ccy;
}
// * * * * * * * * * * * * * * * * * * * * * * * * * * * * * * * * * * * * * //

dimensions      [0 1 0 0 0 0 0];

internalField   nonuniform List<scalar> 
360
(
0.00025
0.00075
0.00125
0.00175
0.00225
0.00275
0.00325
0.00375
0.00425
0.00475
0.00525
0.00575
0.00625
0.00675
0.00725
0.00775
0.00825
0.00875
0.00925
0.00975
0.01025
0.01075
0.01125
0.01175
0.01225
0.01275
0.01325
0.01375
0.01425
0.01475
0.01525
0.01575
0.01625
0.01675
0.01725
0.01775
0.01825
0.01875
0.01925
0.01975
0.02025
0.02075
0.02125
0.02175
0.02225
0.02275
0.02325
0.02375
0.02425
0.02475
0.02525
0.02575
0.02625
0.02675
0.02725
0.02775
0.02825
0.02875
0.02925
0.02975
0.03025
0.03075
0.03125
0.03175
0.03225
0.03275
0.03325
0.03375
0.03425
0.03475
0.03525
0.03575
0.03625
0.03675
0.03725
0.03775
0.03825
0.03875
0.03925
0.03975
0.04025
0.04075
0.04125
0.04175
0.04225
0.04275
0.04325
0.04375
0.04425
0.04475
0.04525
0.04575
0.04625
0.04675
0.04725
0.04775
0.04825
0.04875
0.04925
0.04975
0.05025
0.05075
0.05125
0.05175
0.05225
0.05275
0.05325
0.05375
0.05425
0.05475
0.05525
0.05575
0.05625
0.05675
0.05725
0.05775
0.05825
0.05875
0.05925
0.05975
0.06025
0.06075
0.06125
0.06175
0.06225
0.06275
0.06325
0.06375
0.06425
0.06475
0.06525
0.06575
0.06625
0.06675
0.06725
0.06775
0.06825
0.06875
0.06925
0.06975
0.07025
0.07075
0.07125
0.07175
0.07225
0.07275
0.07325
0.07375
0.07425
0.07475
0.07525
0.07575
0.07625
0.07675
0.07725
0.07775
0.07825
0.07875
0.07925
0.07975
0.08025
0.08075
0.08125
0.08175
0.08225
0.08275
0.08325
0.08375
0.08425
0.08475
0.08525
0.08575
0.08625
0.08675
0.08725
0.08775
0.08825
0.08875
0.08925
0.08975
0.09025
0.09075
0.09125
0.09175
0.09225
0.09275
0.09325
0.09375
0.09425
0.09475
0.09525
0.09575
0.09625
0.09675
0.09725
0.09775
0.09825
0.09875
0.09925
0.09975
0.10025
0.100755
0.10127
0.101796
0.102333
0.10288
0.103438
0.104008
0.10459
0.105183
0.105788
0.106405
0.107035
0.107678
0.108334
0.109003
0.109686
0.110383
0.111093
0.111819
0.112558
0.113313
0.114084
0.114869
0.115671
0.116489
0.117324
0.118176
0.119045
0.119931
0.120836
0.121759
0.1227
0.123661
0.124641
0.125641
0.126662
0.127703
0.128765
0.129849
0.130955
0.132083
0.133235
0.134409
0.135608
0.13683
0.138078
0.139351
0.140649
0.141974
0.143326
0.144706
0.146113
0.147549
0.149014
0.150509
0.152034
0.153591
0.155178
0.156798
0.158451
0.160138
0.161858
0.163614
0.165405
0.167233
0.169097
0.171
0.172941
0.174921
0.176942
0.179004
0.181107
0.183254
0.185443
0.187678
0.189957
0.192283
0.194656
0.197078
0.199548
0.202068
0.20464
0.207264
0.209941
0.212673
0.21546
0.218303
0.221205
0.224165
0.227185
0.230266
0.23341
0.236618
0.239891
0.243231
0.246638
0.250114
0.253661
0.25728
0.260973
0.26474
0.268584
0.272505
0.276507
0.280589
0.284755
0.289005
0.293341
0.297766
0.302
0.306
0.31
0.314
0.318
0.322
0.326
0.33
0.334
0.338
0.342
0.346
0.35
0.354
0.358
0.362
0.366
0.37
0.374
0.378
0.382
0.386
0.39
0.394
0.398
0.402
0.406
0.41
0.414
0.418
0.422
0.426
0.43
0.434
0.438
0.442
0.446
0.45
0.454
0.458
0.462
0.466
0.47
0.474
0.478
0.482
0.486
0.49
0.494
0.498
)
;

boundaryField
{
    inandouthalf11
    {
        type            cyclic;
    }
    inandouthalf12
    {
        type            cyclic;
    }
    inandouthalf21
    {
        type            cyclic;
    }
    inandouthalf22
    {
        type            cyclic;
    }
    inandouthalf31
    {
        type            cyclic;
    }
    inandouthalf32
    {
        type            cyclic;
    }
    inandouthalf41
    {
        type            cyclic;
    }
    inandouthalf42
    {
        type            cyclic;
    }
    top
    {
        type            symmetryPlane;
    }
    walls
    {
        type            calculated;
        value           uniform 0;
    }
    frontAndBackPlanes
    {
        type            empty;
    }
}


// ************************************************************************* //
