/*--------------------------------*- C++ -*----------------------------------*\
| =========                 |                                                 |
| \\      /  F ield         | OpenFOAM: The Open Source CFD Toolbox           |
|  \\    /   O peration     | Version:  2.4.x                                 |
|   \\  /    A nd           | Web:      www.OpenFOAM.org                      |
|    \\/     M anipulation  |                                                 |
\*---------------------------------------------------------------------------*/
FoamFile
{
    version     2.0;
    format      ascii;
    class       volScalarField;
    location    "0";
    object      V;
}
// * * * * * * * * * * * * * * * * * * * * * * * * * * * * * * * * * * * * * //

dimensions      [0 3 0 0 0 0 0];

internalField   nonuniform List<scalar> 
360
(
2e-09
2e-09
2e-09
2e-09
2e-09
2e-09
2e-09
2e-09
2e-09
2e-09
2e-09
2e-09
2e-09
2e-09
2e-09
2e-09
2e-09
2e-09
2e-09
2e-09
2e-09
2e-09
2e-09
2e-09
2e-09
2e-09
2e-09
2e-09
2e-09
2e-09
2e-09
2e-09
2e-09
2e-09
2e-09
2e-09
2e-09
2e-09
2e-09
2e-09
2e-09
2e-09
2e-09
2e-09
2e-09
2e-09
2e-09
2e-09
2e-09
2e-09
2e-09
2e-09
2e-09
2e-09
2e-09
2e-09
2e-09
2e-09
2e-09
2e-09
2e-09
2e-09
2e-09
2e-09
2e-09
2e-09
2e-09
2e-09
2e-09
2e-09
2e-09
2e-09
2e-09
2e-09
2e-09
2e-09
2e-09
2e-09
2e-09
2e-09
2e-09
2e-09
2e-09
2e-09
2e-09
2e-09
2e-09
2e-09
2e-09
2e-09
2e-09
2e-09
2e-09
2e-09
2e-09
2e-09
2e-09
2e-09
2e-09
2e-09
2e-09
2e-09
2e-09
2e-09
2e-09
2e-09
2e-09
2e-09
2e-09
2e-09
2e-09
2e-09
2e-09
2e-09
2e-09
2e-09
2e-09
2e-09
2e-09
2e-09
2e-09
2e-09
2e-09
2e-09
2e-09
2e-09
2e-09
2e-09
2e-09
2e-09
2e-09
2e-09
2e-09
2e-09
2e-09
2e-09
2e-09
2e-09
2e-09
2e-09
2e-09
2e-09
2e-09
2e-09
2e-09
2e-09
2e-09
2e-09
2e-09
2e-09
2e-09
2e-09
2e-09
2e-09
2e-09
2e-09
2e-09
2e-09
2e-09
2e-09
2e-09
2e-09
2e-09
2e-09
2e-09
2e-09
2e-09
2e-09
2e-09
2e-09
2e-09
2e-09
2e-09
2e-09
2e-09
2e-09
2e-09
2e-09
2e-09
2e-09
2e-09
2e-09
2e-09
2e-09
2e-09
2e-09
2e-09
2e-09
2e-09
2e-09
2e-09
2e-09
2e-09
2e-09
2e-09
2e-09
2e-09
2e-09
2e-09
2e-09
2.00001e-09
2.0406e-09
2.08202e-09
2.12428e-09
2.1674e-09
2.21139e-09
2.25627e-09
2.30207e-09
2.3488e-09
2.39647e-09
2.44511e-09
2.49474e-09
2.54538e-09
2.59704e-09
2.64976e-09
2.70354e-09
2.75841e-09
2.8144e-09
2.87153e-09
2.92981e-09
2.98928e-09
3.04995e-09
3.11186e-09
3.17502e-09
3.23947e-09
3.30522e-09
3.37231e-09
3.44076e-09
3.51059e-09
3.58185e-09
3.65455e-09
3.72873e-09
3.80441e-09
3.88163e-09
3.96042e-09
4.0408e-09
4.12282e-09
4.2065e-09
4.29188e-09
4.379e-09
4.46788e-09
4.55857e-09
4.65109e-09
4.7455e-09
4.84182e-09
4.9401e-09
5.04037e-09
5.14267e-09
5.24705e-09
5.35356e-09
5.46222e-09
5.57309e-09
5.68621e-09
5.80162e-09
5.91938e-09
6.03953e-09
6.16211e-09
6.28719e-09
6.4148e-09
6.545e-09
6.67785e-09
6.81339e-09
6.95169e-09
7.09279e-09
7.23675e-09
7.38364e-09
7.53351e-09
7.68642e-09
7.84243e-09
8.00161e-09
8.16402e-09
8.32973e-09
8.4988e-09
8.6713e-09
8.84731e-09
9.02688e-09
9.21011e-09
9.39705e-09
9.58778e-09
9.78239e-09
9.98095e-09
1.01835e-08
1.03902e-08
1.06011e-08
1.08163e-08
1.10358e-08
1.12598e-08
1.14884e-08
1.17216e-08
1.19595e-08
1.22022e-08
1.24499e-08
1.27026e-08
1.29604e-08
1.32235e-08
1.34919e-08
1.37657e-08
1.40452e-08
1.43302e-08
1.46211e-08
1.49179e-08
1.52207e-08
1.55296e-08
1.58448e-08
1.61664e-08
1.64946e-08
1.68293e-08
1.71709e-08
1.75195e-08
1.78751e-08
1.6e-08
1.6e-08
1.6e-08
1.6e-08
1.6e-08
1.6e-08
1.6e-08
1.6e-08
1.6e-08
1.6e-08
1.6e-08
1.6e-08
1.6e-08
1.6e-08
1.6e-08
1.6e-08
1.6e-08
1.6e-08
1.6e-08
1.6e-08
1.6e-08
1.6e-08
1.6e-08
1.6e-08
1.6e-08
1.6e-08
1.6e-08
1.6e-08
1.6e-08
1.6e-08
1.6e-08
1.6e-08
1.6e-08
1.6e-08
1.6e-08
1.6e-08
1.6e-08
1.6e-08
1.6e-08
1.6e-08
1.6e-08
1.6e-08
1.6e-08
1.6e-08
1.6e-08
1.6e-08
1.6e-08
1.6e-08
1.6e-08
1.6e-08
)
;

boundaryField
{
    inandouthalf11
    {
        type            cyclic;
    }
    inandouthalf12
    {
        type            cyclic;
    }
    inandouthalf21
    {
        type            cyclic;
    }
    inandouthalf22
    {
        type            cyclic;
    }
    inandouthalf31
    {
        type            cyclic;
    }
    inandouthalf32
    {
        type            cyclic;
    }
    inandouthalf41
    {
        type            cyclic;
    }
    inandouthalf42
    {
        type            cyclic;
    }
    top
    {
        type            symmetryPlane;
    }
    walls
    {
        type            calculated;
        value           uniform 4e-06;
    }
    frontAndBackPlanes
    {
        type            empty;
    }
}


// ************************************************************************* //
