/*--------------------------------*- C++ -*----------------------------------*\
| =========                 |                                                 |
| \\      /  F ield         | OpenFOAM: The Open Source CFD Toolbox           |
|  \\    /   O peration     | Version:  2.4.x                                 |
|   \\  /    A nd           | Web:      www.OpenFOAM.org                      |
|    \\/     M anipulation  |                                                 |
\*---------------------------------------------------------------------------*/
FoamFile
{
    version     2.0;
    format      ascii;
    class       volScalarField;
    location    "1.3";
    object      alpha_0;
}
// * * * * * * * * * * * * * * * * * * * * * * * * * * * * * * * * * * * * * //

dimensions      [0 0 0 0 0 0 0];

internalField   nonuniform List<scalar> 
360
(
0.609996
0.609996
0.609995
0.609995
0.609995
0.609994
0.609994
0.609993
0.609993
0.609992
0.609991
0.609991
0.60999
0.609989
0.609988
0.609987
0.609986
0.609985
0.609984
0.609982
0.609981
0.609979
0.609977
0.609975
0.609973
0.609971
0.609969
0.609966
0.609963
0.60996
0.609957
0.609953
0.60995
0.609945
0.609941
0.609936
0.609931
0.609925
0.609918
0.609912
0.609904
0.609896
0.609888
0.609878
0.609868
0.609857
0.609845
0.609833
0.609819
0.609803
0.609787
0.609769
0.60975
0.609729
0.609707
0.609682
0.609656
0.609627
0.609596
0.609563
0.609526
0.609487
0.609444
0.609398
0.609348
0.609294
0.609235
0.609171
0.609102
0.609028
0.608947
0.608859
0.608765
0.608662
0.608551
0.60843
0.6083
0.608159
0.608022
0.607944
0.60796
0.608008
0.608018
0.607981
0.607914
0.607833
0.607749
0.607669
0.607595
0.607526
0.607458
0.607389
0.607317
0.607241
0.607163
0.607083
0.607001
0.606918
0.606834
0.606747
0.606659
0.606568
0.606475
0.60638
0.606282
0.606182
0.60608
0.605975
0.605867
0.605756
0.605642
0.605525
0.605405
0.605281
0.605154
0.605022
0.604887
0.604747
0.604603
0.604454
0.604301
0.604144
0.603981
0.603811
0.603633
0.603445
0.603248
0.603046
0.602852
0.602679
0.602532
0.602407
0.602284
0.602132
0.601891
0.601513
0.601026
0.600378
0.599167
0.597389
0.595429
0.59294
0.588329
0.572075
0.557255
0.551376
0.540419
0.523367
0.500848
0.48748
0.498592
0.376533
0.0271476
0.00213852
0.00098
0.000684592
0.000539293
0.000425852
0.000371038
0.000306321
0.000265255
0.000235539
0.000200692
0.000183692
0.000156728
0.000143888
0.000125215
0.000116305
0.00010042
9.21082e-05
8.35954e-05
7.4031e-05
6.90002e-05
6.04168e-05
5.64488e-05
5.01393e-05
4.70029e-05
4.11604e-05
3.84705e-05
3.50458e-05
3.1413e-05
2.94287e-05
2.61307e-05
2.45882e-05
2.19429e-05
2.06241e-05
1.82532e-05
1.7171e-05
1.54641e-05
1.45931e-05
1.28596e-05
1.20034e-05
1.10934e-05
9.98704e-06
9.42943e-06
8.41457e-06
7.91285e-06
7.05383e-06
6.66416e-06
6.02365e-06
5.70208e-06
5.0449e-06
4.64613e-06
4.24984e-06
4.04999e-06
3.62771e-06
3.15191e-06
2.91888e-06
2.75784e-06
2.47125e-06
2.16693e-06
1.96887e-06
1.80601e-06
1.64269e-06
1.39858e-06
1.29392e-06
1.19272e-06
1.00768e-06
8.88255e-07
8.28646e-07
7.30525e-07
6.19736e-07
5.66447e-07
4.88923e-07
4.22169e-07
3.86595e-07
3.23891e-07
2.92024e-07
2.39656e-07
2.16441e-07
1.81687e-07
1.6418e-07
1.31158e-07
1.15454e-07
9.69135e-08
8.6779e-08
6.74405e-08
5.84475e-08
5.20638e-08
4.06836e-08
3.3576e-08
2.97325e-08
2.32072e-08
1.90791e-08
1.64605e-08
1.27269e-08
1.12189e-08
1.03667e-08
9.98385e-09
8.32484e-09
3.12636e-09
2.10481e-09
1.84357e-09
1.47292e-09
1.02944e-09
8.45961e-10
7.11198e-10
5.11128e-10
3.97197e-10
3.21603e-10
2.27659e-10
1.86367e-10
1.33065e-10
1.07894e-10
7.32333e-11
5.8323e-11
4.12641e-11
3.32124e-11
2.1082e-11
1.59899e-11
1.20871e-11
8.01193e-12
6.17017e-12
3.98262e-12
3.02435e-12
1.96673e-12
1.49572e-12
9.19652e-13
6.64334e-13
4.17775e-13
3.15136e-13
1.84191e-13
1.20076e-13
8.45582e-14
5.02656e-14
3.51496e-14
2.01353e-14
1.37595e-14
8.11161e-15
5.49528e-15
2.87044e-15
1.86449e-15
1.18943e-15
6.00933e-16
3.67944e-16
2.21234e-16
1.2041e-16
7.47407e-17
3.90011e-17
2.24928e-17
9.14344e-18
3.63744e-18
1.1797e-18
3.63983e-19
9.92723e-20
2.38187e-20
4.79412e-21
7.69093e-22
9.05779e-23
6.4659e-24
2.6892e-25
1.28591e-26
3.01797e-28
2.02945e-39
6.88195e-51
1.70411e-62
3.20848e-74
5.26007e-86
1.03963e-96
8.21554e-108
3.37766e-115
3.60273e-126
1.16106e-133
1.25942e-144
3.99349e-152
5.32618e-163
1.37304e-170
2.41761e-181
4.72252e-189
1.78196e-199
1.62907e-207
1.23432e-217
5.64364e-226
6.418e-236
1.9642e-244
3.03906e-254
6.87274e-263
1.34254e-272
2.41867e-281
5.69261e-291
8.5549e-300
2.32008e-309
1.20635e-317
7.47521e-321
0
0
0
0
0
0
0
0
0
0
0
0
0
0
0
0
)
;

boundaryField
{
    inandouthalf11
    {
        type            cyclic;
    }
    inandouthalf12
    {
        type            cyclic;
    }
    inandouthalf21
    {
        type            cyclic;
    }
    inandouthalf22
    {
        type            cyclic;
    }
    inandouthalf31
    {
        type            cyclic;
    }
    inandouthalf32
    {
        type            cyclic;
    }
    inandouthalf41
    {
        type            cyclic;
    }
    inandouthalf42
    {
        type            cyclic;
    }
    top
    {
        type            symmetryPlane;
    }
    walls
    {
        type            zeroGradient;
    }
    frontAndBackPlanes
    {
        type            empty;
    }
}


// ************************************************************************* //
