/*--------------------------------*- C++ -*----------------------------------*\
| =========                 |                                                 |
| \\      /  F ield         | OpenFOAM: The Open Source CFD Toolbox           |
|  \\    /   O peration     | Version:  2.4.x                                 |
|   \\  /    A nd           | Web:      www.OpenFOAM.org                      |
|    \\/     M anipulation  |                                                 |
\*---------------------------------------------------------------------------*/
FoamFile
{
    version     2.0;
    format      ascii;
    class       volVectorField;
    location    "1.3";
    object      gradPs;
}
// * * * * * * * * * * * * * * * * * * * * * * * * * * * * * * * * * * * * * //

dimensions      [0 1 -2 0 0 0 0];

internalField   nonuniform List<vector> 
360
(
(0 5.29072e-26 0)
(0 -1.76837e-21 0)
(0 -1.76843e-21 0)
(0 6.35845e-29 0)
(-1.45436e-32 -1.76841e-21 0)
(-1.45436e-32 -1.76841e-21 0)
(-1.45436e-32 -1.76839e-21 0)
(0 -1.76839e-21 0)
(-1.45436e-32 -1.76837e-21 0)
(0 -3.53673e-21 0)
(-1.45437e-32 -1.76836e-21 0)
(0 -1.76834e-21 0)
(-2.90874e-32 -3.53666e-21 0)
(0 -3.53663e-21 0)
(0 -3.53659e-21 0)
(0 -3.53656e-21 0)
(0 -3.53652e-21 0)
(-1.45438e-32 -3.53649e-21 0)
(0 -5.30465e-21 0)
(0 -5.3046e-21 0)
(0 -5.30449e-21 0)
(-1.4544e-32 -7.07256e-21 0)
(0 -7.07242e-21 0)
(0 -7.07228e-21 0)
(0 -7.07214e-21 0)
(-2.90883e-32 -7.072e-21 0)
(0 -8.83977e-21 0)
(0 -1.06075e-20 0)
(0 -1.06072e-20 0)
(0 -1.06068e-20 0)
(0 -1.23742e-20 0)
(0 -1.23739e-20 0)
(0 -1.41409e-20 0)
(0 -1.5908e-20 0)
(0 -1.59072e-20 0)
(1.4545e-32 -1.76739e-20 0)
(0 -1.94402e-20 0)
(0 -2.29734e-20 0)
(0 -2.29721e-20 0)
(0 -2.47373e-20 0)
(0 -2.82692e-20 0)
(0 -2.8267e-20 0)
(1.45461e-32 -3.17975e-20 0)
(0 -3.53275e-20 0)
(0 -3.709e-20 0)
(0 -4.06179e-20 0)
(0 -4.23791e-20 0)
(0 -4.59048e-20 0)
(0 -5.29597e-20 0)
(0 -5.64821e-20 0)
(2.90971e-32 -6.0002e-20 0)
(0 -6.52851e-20 0)
(0 -7.05648e-20 0)
(0 -7.58418e-20 0)
(0 -8.28779e-20 0)
(0 -8.99102e-20 0)
(0 -9.69359e-20 0)
(0 -1.05719e-19 0)
(0 -1.12732e-19 0)
(0 -1.23259e-19 0)
(0 -1.33777e-19 0)
(0 -1.44281e-19 0)
(0 -1.56532e-19 0)
(0 -1.68766e-19 0)
(0 -1.82739e-19 0)
(0 -1.98446e-19 0)
(0 -2.15882e-19 0)
(0 -2.33286e-19 0)
(0 -2.50656e-19 0)
(0 -2.71488e-19 0)
(0 -2.95773e-19 0)
(0 -3.18251e-19 0)
(0 -3.44155e-19 0)
(0 -3.73476e-19 0)
(0 -4.04443e-19 0)
(0 -4.37047e-19 0)
(0 -4.62709e-19 0)
(0 6.69655e-19 0)
(0 1.32857e-17 0)
(0 3.68271e-17 0)
(0 2.44471e-17 0)
(0 -1.50606e-17 0)
(0 -2.41654e-17 0)
(0 -1.25194e-17 0)
(0 -3.9299e-18 0)
(0 5.28767e-19 0)
(0 2.78916e-18 0)
(0 3.34516e-18 0)
(0 2.44375e-18 0)
(0 9.06352e-19 0)
(0 -2.47595e-19 0)
(0 -5.39737e-19 0)
(0 -1.2816e-19 0)
(0 5.95671e-19 0)
(0 1.31872e-18 0)
(0 1.88226e-18 0)
(0 2.25611e-18 0)
(0 2.49272e-18 0)
(0 2.667e-18 0)
(0 -1.95164e-16 0)
(0 -1.96566e-16 0)
(0 0 0)
(0 0 0)
(0 0 0)
(0 0 0)
(0 0 0)
(0 0 0)
(0 0 0)
(0 0 0)
(0 0 0)
(0 0 0)
(0 0 0)
(0 0 0)
(0 0 0)
(0 2.45013e-16 0)
(0 2.52455e-16 0)
(0 1.59115e-17 0)
(0 1.82804e-17 0)
(0 2.09362e-17 0)
(0 2.42452e-17 0)
(0 2.91905e-17 0)
(0 3.76516e-17 0)
(0 5.23689e-17 0)
(0 7.58411e-17 0)
(0 1.05957e-16 0)
(0 1.25631e-16 0)
(0 9.79335e-17 0)
(0 5.59958e-18 0)
(0 -8.83902e-17 0)
(0 -8.42404e-17 0)
(0 1.19114e-16 0)
(0 1.86641e-15 0)
(0 9.31749e-13 0)
(0 1.35995e-08 0)
(0 4.79793e-05 0)
(0 0.012112 0)
(0 0.384147 0)
(0 2.25754 0)
(0 3.9771 0)
(0 2.90792 0)
(0 0.916557 0)
(0 -0.0974366 0)
(0 -1.25333 0)
(0 -2.39247 0)
(0 -2.4457 0)
(0 -2.04408 0)
(0 -1.61434 0)
(0 -0.973666 0)
(0 -0.343177 0)
(0 -0.0137596 0)
(0 0.0872374 0)
(0 -0.0311407 0)
(0 -2.05055 0)
(0 -7.55275 0)
(0 -1.48454 0)
(0 -0.771088 0)
(0 -0.751794 0)
(0 -0.727128 0)
(0 -0.681637 0)
(0 -0.812612 0)
(0 -0.663172 0)
(0 -0.713506 0)
(0 -0.690203 0)
(0 -0.647688 0)
(0 -0.685999 0)
(0 -0.592915 0)
(0 -0.591064 0)
(0 -0.561056 0)
(0 -0.613796 0)
(0 -0.469609 0)
(0 -0.52921 0)
(0 -0.475846 0)
(0 -0.460313 0)
(0 -0.468162 0)
(0 -0.403011 0)
(0 -0.403039 0)
(0 -0.39304 0)
(0 -0.4078 0)
(0 -0.312184 0)
(0 -0.37023 0)
(0 -0.320669 0)
(0 -0.309776 0)
(0 -0.305742 0)
(0 -0.273152 0)
(0 -0.275758 0)
(0 -0.262539 0)
(0 -0.262721 0)
(0 -0.220146 0)
(0 -0.214918 0)
(0 -0.219272 0)
(0 -0.230321 0)
(0 -0.165906 0)
(0 -0.191275 0)
(0 -0.166613 0)
(0 -0.159556 0)
(0 -0.160385 0)
(0 -0.146324 0)
(0 -0.139982 0)
(0 -0.118068 0)
(0 -0.113818 0)
(0 -0.115078 0)
(0 -0.125556 0)
(-7.99886e-17 -0.0955537 0)
(0 -0.0736275 0)
(0 -0.0744643 0)
(4.04702e-17 -0.103868 0)
(0 -0.0835717 0)
(-4.10032e-17 -0.0483189 0)
(0 -0.0527035 0)
(2.0402e-17 -0.0670018 0)
(0 -0.0570717 0)
(0 -0.0413524 0)
(0 -0.0369314 0)
(2.01653e-17 -0.0438772 0)
(0 -0.0376319 0)
(0 -0.022772 0)
(0 -0.0294524 0)
(0 -0.0305502 0)
(0 -0.0183965 0)
(-9.60857e-18 -0.0157988 0)
(0 -0.0196111 0)
(-4.70582e-18 -0.0153338 0)
(0 -0.0119692 0)
(-4.57681e-18 -0.0125899 0)
(0 -0.00895997 0)
(0 -0.00819145 0)
(0 -0.00765365 0)
(0 -0.00651124 0)
(2.12e-18 -0.00570356 0)
(0 -0.0042607 0)
(0 -0.00373799 0)
(0 -0.00337937 0)
(0 -0.00312232 0)
(0 -0.00215749 0)
(0 -0.001766 0)
(0 -0.00165519 0)
(0 -0.0015063 0)
(0 -0.000860573 0)
(0 -0.000871455 0)
(0 -0.000828302 0)
(0 -0.00050874 0)
(0 -0.00043396 0)
(0 -0.000399083 0)
(-1.00176e-19 -0.000260287 0)
(4.91046e-20 -0.000215869 0)
(0 -0.000172701 0)
(0 -0.000112703 0)
(-2.313e-20 -0.000139112 0)
(0 -8.81702e-05 0)
(0 0 0)
(0 0 0)
(0 0 0)
(0 0 0)
(0 0 0)
(0 0 0)
(0 0 0)
(0 0 0)
(0 0 0)
(0 0 0)
(0 0 0)
(0 0 0)
(0 0 0)
(0 0 0)
(0 0 0)
(0 0 0)
(0 0 0)
(0 0 0)
(0 0 0)
(0 0 0)
(0 0 0)
(0 0 0)
(0 0 0)
(0 0 0)
(0 0 0)
(0 0 0)
(0 0 0)
(0 0 0)
(0 0 0)
(0 0 0)
(0 0 0)
(0 0 0)
(0 0 0)
(0 0 0)
(0 0 0)
(0 0 0)
(0 0 0)
(0 0 0)
(0 0 0)
(0 0 0)
(0 0 0)
(0 0 0)
(0 0 0)
(0 0 0)
(0 0 0)
(0 0 0)
(0 0 0)
(0 0 0)
(0 0 0)
(0 0 0)
(0 0 0)
(0 0 0)
(0 0 0)
(0 0 0)
(0 0 0)
(0 0 0)
(0 0 0)
(0 0 0)
(0 0 0)
(0 0 0)
(0 0 0)
(0 0 0)
(0 0 0)
(0 0 0)
(0 0 0)
(0 0 0)
(0 0 0)
(0 0 0)
(0 0 0)
(0 0 0)
(0 0 0)
(0 0 0)
(0 0 0)
(0 0 0)
(0 0 0)
(0 0 0)
(0 0 0)
(0 0 0)
(0 0 0)
(0 0 0)
(0 0 0)
(0 0 0)
(0 0 0)
(0 0 0)
(0 0 0)
(0 0 0)
(0 0 0)
(0 0 0)
(0 0 0)
(0 0 0)
(0 0 0)
(0 0 0)
(0 0 0)
(0 0 0)
(0 0 0)
(0 0 0)
(0 0 0)
(0 0 0)
(0 0 0)
(0 0 0)
(0 0 0)
(0 0 0)
(0 0 0)
(0 0 0)
(0 0 0)
(0 0 0)
(0 0 0)
(0 0 0)
(0 0 0)
(0 0 0)
(0 0 0)
)
;

boundaryField
{
    inandouthalf11
    {
        type            cyclic;
    }
    inandouthalf12
    {
        type            cyclic;
    }
    inandouthalf21
    {
        type            cyclic;
    }
    inandouthalf22
    {
        type            cyclic;
    }
    inandouthalf31
    {
        type            cyclic;
    }
    inandouthalf32
    {
        type            cyclic;
    }
    inandouthalf41
    {
        type            cyclic;
    }
    inandouthalf42
    {
        type            cyclic;
    }
    top
    {
        type            symmetryPlane;
    }
    walls
    {
        type            calculated;
        value           uniform (0 0 0);
    }
    frontAndBackPlanes
    {
        type            empty;
    }
}


// ************************************************************************* //
