/*--------------------------------*- C++ -*----------------------------------*\
| =========                 |                                                 |
| \\      /  F ield         | OpenFOAM: The Open Source CFD Toolbox           |
|  \\    /   O peration     | Version:  2.4.x                                 |
|   \\  /    A nd           | Web:      www.OpenFOAM.org                      |
|    \\/     M anipulation  |                                                 |
\*---------------------------------------------------------------------------*/
FoamFile
{
    version     2.0;
    format      ascii;
    class       volVectorField;
    location    "1.3";
    object      gradPf;
}
// * * * * * * * * * * * * * * * * * * * * * * * * * * * * * * * * * * * * * //

dimensions      [0 1 -2 0 0 0 0];

internalField   nonuniform List<vector> 
360
(
(0 -1.3785e-09 0)
(0 -0.0556701 0)
(0 -0.0556702 0)
(0 1.98367e-09 0)
(-3.35352e-14 -0.0556536 0)
(-1.67676e-14 -0.0556537 0)
(-1.67676e-14 -0.0556372 0)
(0 -0.0556373 0)
(-1.67677e-14 -0.0556207 0)
(0 -0.111225 0)
(-1.67677e-14 -0.0556044 0)
(0 -0.0555879 0)
(-1.67677e-14 -0.111159 0)
(0 -0.111127 0)
(0 -0.111094 0)
(0 -0.111061 0)
(0 -0.111028 0)
(-1.67679e-14 -0.110995 0)
(0 -0.166419 0)
(0 -0.16637 0)
(0 -0.166271 0)
(-1.6768e-14 -0.221597 0)
(0 -0.221466 0)
(0 -0.221336 0)
(0 -0.221205 0)
(-1.67683e-14 -0.221074 0)
(0 -0.276138 0)
(0 -0.331122 0)
(0 -0.330829 0)
(0 -0.330536 0)
(0 -0.385226 0)
(0 -0.384886 0)
(0 -0.439284 0)
(0 -0.493686 0)
(0 -0.492957 0)
(1.67692e-14 -0.547004 0)
(0 -0.600728 0)
(0 -0.708696 0)
(0 -0.707444 0)
(0 -0.760177 0)
(0 -0.866984 0)
(0 -0.864942 0)
(1.67705e-14 -0.97048 0)
(0 -1.07546 0)
(0 -1.12574 0)
(0 -1.22897 0)
(0 -1.27807 0)
(0 -1.37929 0)
(0 -1.58494 0)
(0 -1.68317 0)
(1.67733e-14 -1.77945 0)
(0 -1.92653 0)
(0 -2.07085 0)
(0 -2.21281 0)
(0 -2.40239 0)
(0 -2.58858 0)
(0 -2.76962 0)
(0 -2.99631 0)
(0 -3.16723 0)
(0 -3.42991 0)
(0 -3.68499 0)
(0 -3.92981 0)
(0 -4.21283 0)
(0 -4.48313 0)
(0 -4.7867 0)
(0 -5.11936 0)
(0 -5.47801 0)
(0 -5.81478 0)
(0 -6.12872 0)
(0 -6.50104 0)
(0 -6.92512 0)
(0 -7.27301 0)
(0 -7.66024 0)
(0 -8.08143 0)
(0 -8.48635 0)
(0 -8.87279 0)
(0 -9.22892 0)
(0 -9.12421 0)
(0 -6.83681 0)
(0 -1.91089 0)
(0 2.00262 0)
(0 1.80127 0)
(0 -0.847994 0)
(0 -3.23369 0)
(0 -4.52271 0)
(0 -4.93682 0)
(0 -4.80611 0)
(0 -4.41152 0)
(0 -4.00882 0)
(0 -3.75224 0)
(0 -3.67707 0)
(0 -3.73379 0)
(0 -3.83452 0)
(0 -3.90984 0)
(0 -3.93863 0)
(0 -3.9304 0)
(0 -3.90674 0)
(0 -3.88622 0)
(0 -3.87709 0)
(0 -3.87675 0)
(0 -3.87861 0)
(0 -3.8785 0)
(0 -3.87473 0)
(0 -3.86775 0)
(0 -3.85928 0)
(0 -3.85044 0)
(0 -3.84132 0)
(0 -3.83165 0)
(0 -3.82113 0)
(0 -3.80962 0)
(0 -3.79722 0)
(0 -3.78407 0)
(0 -3.77037 0)
(0 -3.75628 0)
(0 -3.74184 0)
(0 -3.72669 0)
(0 -3.70977 0)
(0 -3.68923 0)
(0 -3.66292 0)
(0 -3.62981 0)
(0 -3.59208 0)
(0 -3.55682 0)
(0 -3.5352 0)
(0 -3.53734 0)
(0 -3.56126 0)
(0 -3.57786 0)
(0 -3.52306 0)
(0 -3.3197 0)
(0 -2.93814 0)
(0 -2.45067 0)
(0 -2.00919 0)
(0 -1.77037 0)
(0 -1.89065 0)
(0 -2.58556 0)
(0 -3.80782 0)
(0 -4.86992 0)
(0 -5.63871 0)
(0 -7.5289 0)
(0 -9.14786 0)
(0 -7.9212 0)
(0 -5.75003 0)
(0 -4.51195 0)
(0 -2.94888 0)
(0 -0.92303 0)
(0 -0.000342205 0)
(0 0 0)
(0 0 0)
(0 0 0)
(0 0 0)
(0 0 0)
(0 0 0)
(0 0 0)
(0 0 0)
(0 0 0)
(0 0 0)
(0 0 0)
(0 0 0)
(0 0 0)
(0 0 0)
(0 0 0)
(0 0 0)
(0 0 0)
(0 0 0)
(0 0 0)
(0 0 0)
(0 0 0)
(0 0 0)
(0 0 0)
(0 0 0)
(0 0 0)
(0 0 0)
(0 0 0)
(0 0 0)
(0 0 0)
(0 0 0)
(0 0 0)
(0 0 0)
(0 0 0)
(0 0 0)
(0 0 0)
(0 0 0)
(0 0 0)
(0 0 0)
(0 0 0)
(0 0 0)
(0 0 0)
(0 0 0)
(0 0 0)
(0 0 0)
(0 0 0)
(0 0 0)
(0 0 0)
(0 0 0)
(0 0 0)
(0 0 0)
(0 0 0)
(0 0 0)
(0 0 0)
(0 0 0)
(0 0 0)
(0 0 0)
(0 0 0)
(0 0 0)
(0 0 0)
(0 0 0)
(0 0 0)
(0 0 0)
(0 0 0)
(0 0 0)
(0 0 0)
(0 0 0)
(0 0 0)
(0 0 0)
(0 0 0)
(0 0 0)
(0 0 0)
(0 0 0)
(0 0 0)
(0 0 0)
(0 0 0)
(0 0 0)
(0 0 0)
(0 0 0)
(0 0 0)
(0 0 0)
(0 0 0)
(0 0 0)
(0 0 0)
(0 0 0)
(0 0 0)
(0 0 0)
(0 0 0)
(0 0 0)
(0 0 0)
(0 0 0)
(0 0 0)
(0 0 0)
(0 0 0)
(0 0 0)
(0 0 0)
(0 0 0)
(0 0 0)
(0 0 0)
(0 0 0)
(0 0 0)
(0 0 0)
(0 0 0)
(0 0 0)
(0 0 0)
(0 0 0)
(0 0 0)
(0 0 0)
(0 0 0)
(0 0 0)
(0 0 0)
(0 0 0)
(0 0 0)
(0 0 0)
(0 0 0)
(0 0 0)
(0 0 0)
(0 0 0)
(0 0 0)
(0 0 0)
(0 0 0)
(0 0 0)
(0 0 0)
(0 0 0)
(0 0 0)
(0 0 0)
(0 0 0)
(0 0 0)
(0 0 0)
(0 0 0)
(0 0 0)
(0 0 0)
(0 0 0)
(0 0 0)
(0 0 0)
(0 0 0)
(0 0 0)
(0 0 0)
(0 0 0)
(0 0 0)
(0 0 0)
(0 0 0)
(0 0 0)
(0 0 0)
(0 0 0)
(0 0 0)
(0 0 0)
(0 0 0)
(0 0 0)
(0 0 0)
(0 0 0)
(0 0 0)
(0 0 0)
(0 0 0)
(0 0 0)
(0 0 0)
(0 0 0)
(0 0 0)
(0 0 0)
(0 0 0)
(0 0 0)
(0 0 0)
(0 0 0)
(0 0 0)
(0 0 0)
(0 0 0)
(0 0 0)
(0 0 0)
(0 0 0)
(0 0 0)
(0 0 0)
(0 0 0)
(0 0 0)
(0 0 0)
(0 0 0)
(0 0 0)
(0 0 0)
(0 0 0)
(0 0 0)
(0 0 0)
(0 0 0)
(0 0 0)
(0 0 0)
(0 0 0)
(0 0 0)
(0 0 0)
(0 0 0)
(0 0 0)
(0 0 0)
(0 0 0)
(0 0 0)
(0 0 0)
(0 0 0)
(0 0 0)
(0 0 0)
(0 0 0)
(0 0 0)
(0 0 0)
(0 0 0)
(0 0 0)
(0 0 0)
(0 0 0)
(0 0 0)
(0 0 0)
(0 0 0)
(0 0 0)
(0 0 0)
(0 0 0)
(0 0 0)
(0 0 0)
(0 0 0)
(0 0 0)
(0 0 0)
(0 0 0)
(0 0 0)
(0 0 0)
)
;

boundaryField
{
    inandouthalf11
    {
        type            cyclic;
    }
    inandouthalf12
    {
        type            cyclic;
    }
    inandouthalf21
    {
        type            cyclic;
    }
    inandouthalf22
    {
        type            cyclic;
    }
    inandouthalf31
    {
        type            cyclic;
    }
    inandouthalf32
    {
        type            cyclic;
    }
    inandouthalf41
    {
        type            cyclic;
    }
    inandouthalf42
    {
        type            cyclic;
    }
    top
    {
        type            symmetryPlane;
    }
    walls
    {
        type            calculated;
        value           uniform (0 0 0);
    }
    frontAndBackPlanes
    {
        type            empty;
    }
}


// ************************************************************************* //
