/*--------------------------------*- C++ -*----------------------------------*\
| =========                 |                                                 |
| \\      /  F ield         | OpenFOAM: The Open Source CFD Toolbox           |
|  \\    /   O peration     | Version:  2.4.x                                 |
|   \\  /    A nd           | Web:      www.OpenFOAM.org                      |
|    \\/     M anipulation  |                                                 |
\*---------------------------------------------------------------------------*/
FoamFile
{
    version     2.0;
    format      ascii;
    class       volScalarField;
    location    "1.3";
    object      p;
}
// * * * * * * * * * * * * * * * * * * * * * * * * * * * * * * * * * * * * * //

dimensions      [1 -1 -2 0 0 0 0];

internalField   nonuniform List<scalar> 
360
(
4931.67
4926.76
4921.86
4916.95
4912.05
4907.14
4902.24
4897.33
4892.43
4887.52
4882.62
4877.71
4872.81
4867.9
4863
4858.09
4853.19
4848.28
4843.38
4838.47
4833.57
4828.66
4823.76
4818.85
4813.95
4809.04
4804.14
4799.23
4794.33
4789.42
4784.52
4779.61
4774.71
4769.8
4764.9
4759.99
4755.09
4750.18
4745.28
4740.37
4735.47
4730.56
4725.66
4720.75
4715.85
4710.94
4706.04
4701.13
4696.23
4691.32
4686.42
4681.51
4676.61
4671.7
4666.8
4661.89
4656.99
4652.08
4647.18
4642.27
4637.37
4632.46
4627.56
4622.65
4617.75
4612.84
4607.94
4603.03
4598.13
4593.22
4588.32
4583.41
4578.51
4573.6
4568.7
4563.79
4558.89
4553.98
4549.08
4544.17
4539.26
4534.34
4529.41
4524.47
4519.53
4514.58
4509.63
4504.67
4499.71
4494.74
4489.77
4484.79
4479.8
4474.81
4469.82
4464.81
4459.81
4454.79
4449.77
4444.74
4439.71
4434.67
4429.62
4424.56
4419.5
4414.43
4409.35
4404.26
4399.17
4394.06
4388.95
4383.83
4378.7
4373.56
4368.41
4363.25
4358.08
4352.9
4347.7
4342.5
4337.28
4332.05
4326.81
4321.56
4316.29
4311.01
4305.71
4300.39
4295.06
4289.72
4284.36
4278.99
4273.61
4268.22
4262.81
4257.38
4251.91
4246.39
4240.79
4235.09
4229.25
4223.26
4217.07
4210.48
4203.01
4195.26
4187.28
4179
4170.35
4161.54
4152.54
4143.42
4137.35
4132.55
4127.51
4122.74
4117.7
4112.92
4107.89
4103.11
4098.08
4093.29
4088.28
4083.47
4078.47
4073.66
4068.66
4063.84
4058.86
4054.02
4049.05
4044.21
4039.24
4034.39
4029.44
4024.58
4019.63
4014.76
4009.82
4004.95
4000.02
3995.14
3990.21
3985.32
3980.4
3975.51
3970.59
3965.7
3960.78
3955.89
3950.97
3946.08
3941.16
3936.27
3931.35
3926.46
3921.55
3916.65
3911.74
3906.83
3901.93
3896.97
3891.92
3886.76
3881.5
3876.13
3870.65
3865.06
3859.36
3853.54
3847.6
3841.54
3835.36
3829.06
3822.62
3816.06
3809.36
3802.53
3795.55
3788.44
3781.18
3773.78
3766.22
3758.51
3750.65
3742.62
3734.43
3726.08
3717.55
3708.86
3699.98
3690.93
3681.69
3672.27
3662.65
3652.84
3642.83
3632.61
3622.19
3611.56
3600.71
3589.64
3578.35
3566.83
3555.07
3543.08
3530.84
3518.35
3505.61
3492.61
3479.35
3465.82
3452.01
3437.92
3423.55
3408.88
3393.92
3378.66
3363.08
3347.19
3330.97
3314.43
3297.55
3280.33
3262.76
3244.83
3226.54
3207.87
3188.83
3169.4
3149.58
3129.35
3108.72
3087.66
3066.18
3044.26
3021.9
2999.08
2975.8
2952.05
2927.81
2903.09
2877.86
2852.12
2825.86
2799.06
2771.72
2743.82
2715.36
2686.32
2656.7
2626.47
2595.62
2564.15
2532.05
2499.29
2465.86
2431.76
2396.96
2361.46
2325.24
2288.28
2250.57
2212.1
2172.85
2132.8
2091.93
2050.24
2007.7
1964.3
1922.76
1883.52
1844.28
1805.04
1765.8
1726.56
1687.32
1648.08
1608.84
1569.6
1530.36
1491.12
1451.88
1412.64
1373.4
1334.16
1294.92
1255.68
1216.44
1177.2
1137.96
1098.72
1059.48
1020.24
981
941.76
902.52
863.28
824.04
784.8
745.56
706.32
667.08
627.84
588.6
549.36
510.12
470.88
431.64
392.4
353.16
313.92
274.68
235.44
196.2
156.96
117.72
78.48
39.24
-2.68012e-07
)
;

boundaryField
{
    inandouthalf11
    {
        type            cyclic;
    }
    inandouthalf12
    {
        type            cyclic;
    }
    inandouthalf21
    {
        type            cyclic;
    }
    inandouthalf22
    {
        type            cyclic;
    }
    inandouthalf31
    {
        type            cyclic;
    }
    inandouthalf32
    {
        type            cyclic;
    }
    inandouthalf41
    {
        type            cyclic;
    }
    inandouthalf42
    {
        type            cyclic;
    }
    top
    {
        type            symmetryPlane;
    }
    walls
    {
        type            slip;
    }
    frontAndBackPlanes
    {
        type            empty;
    }
}


// ************************************************************************* //
