/*--------------------------------*- C++ -*----------------------------------*\
| =========                 |                                                 |
| \\      /  F ield         | OpenFOAM: The Open Source CFD Toolbox           |
|  \\    /   O peration     | Version:  2.4.x                                 |
|   \\  /    A nd           | Web:      www.OpenFOAM.org                      |
|    \\/     M anipulation  |                                                 |
\*---------------------------------------------------------------------------*/
FoamFile
{
    version     2.0;
    format      ascii;
    class       volScalarField;
    location    "1.3";
    object      pa;
}
// * * * * * * * * * * * * * * * * * * * * * * * * * * * * * * * * * * * * * //

dimensions      [1 -1 -2 0 0 0 0];

internalField   nonuniform List<scalar> 
360
(
2.87809e-16
2.87809e-16
2.87806e-16
2.87806e-16
2.87806e-16
2.87803e-16
2.87803e-16
2.878e-16
2.878e-16
2.87797e-16
2.87795e-16
2.87795e-16
2.87792e-16
2.87789e-16
2.87786e-16
2.87783e-16
2.8778e-16
2.87777e-16
2.87775e-16
2.87769e-16
2.87766e-16
2.8776e-16
2.87755e-16
2.87749e-16
2.87743e-16
2.87737e-16
2.87732e-16
2.87723e-16
2.87715e-16
2.87706e-16
2.87697e-16
2.87686e-16
2.87677e-16
2.87663e-16
2.87652e-16
2.87637e-16
2.87623e-16
2.87606e-16
2.87586e-16
2.87569e-16
2.87546e-16
2.87523e-16
2.875e-16
2.87472e-16
2.87443e-16
2.87412e-16
2.87378e-16
2.87343e-16
2.87303e-16
2.87258e-16
2.87212e-16
2.87161e-16
2.87107e-16
2.87047e-16
2.86984e-16
2.86913e-16
2.86839e-16
2.86756e-16
2.86668e-16
2.86574e-16
2.86469e-16
2.86358e-16
2.86236e-16
2.86105e-16
2.85963e-16
2.8581e-16
2.85643e-16
2.85462e-16
2.85266e-16
2.85057e-16
2.84828e-16
2.8458e-16
2.84315e-16
2.84025e-16
2.83712e-16
2.83372e-16
2.83008e-16
2.82626e-16
2.84087e-16
3.04033e-16
3.43418e-16
3.43421e-16
3.19152e-16
3.04484e-16
2.98981e-16
2.98153e-16
2.99833e-16
3.02645e-16
3.05219e-16
3.0658e-16
3.06679e-16
3.06181e-16
3.0581e-16
3.05975e-16
3.06768e-16
3.08097e-16
3.09797e-16
3.11726e-16
3.13806e-16
3.16015e-16
0
0
0
0
0
0
0
0
0
0
0
0
0
0
0
3.92923e-16
4.04771e-16
4.18429e-16
4.34067e-16
4.51973e-16
4.72904e-16
4.9872e-16
5.33185e-16
5.8254e-16
6.5454e-16
7.52035e-16
8.55443e-16
9.08595e-16
8.64392e-16
7.67384e-16
7.29849e-16
9.57578e-16
3.7094e-15
1.4881e-12
2.17004e-08
7.65289e-05
0.0193071
0.611927
3.61113
6.92691
8.21473
8.37317
8.06163
6.41902
4.43411
2.80714
1.44721
0.494973
0.0965602
0.0394221
0.0787838
0.154708
0.0477435
0.00782671
0.00481931
0.00393603
0.0034012
0.00284254
0.00256192
0.00215468
0.00188125
0.00167122
0.00141729
0.0012861
0.00108505
0.000983193
0.000843403
0.000771524
0.000655724
0.00059204
0.000528717
0.000460862
0.000422814
0.000364552
0.000335502
0.000293623
0.000271304
0.000234286
0.000216047
0.000194204
0.000171877
0.00015903
0.000139526
0.00012977
0.000114501
0.000106438
9.32049e-05
8.67762e-05
7.73597e-05
7.22791e-05
6.30753e-05
5.83328e-05
5.34045e-05
4.7645e-05
4.45826e-05
3.94324e-05
3.67585e-05
3.24887e-05
3.04341e-05
2.72761e-05
2.56022e-05
2.24572e-05
2.05082e-05
1.85977e-05
1.75644e-05
1.55841e-05
1.3416e-05
1.23095e-05
1.15153e-05
1.02121e-05
8.862e-06
7.96731e-06
7.22768e-06
6.49702e-06
5.46701e-06
4.99676e-06
4.54597e-06
3.78893e-06
3.29468e-06
3.02915e-06
2.62922e-06
2.19536e-06
1.97331e-06
1.67312e-06
1.41824e-06
1.27341e-06
1.0448e-06
9.21413e-07
7.387e-07
6.50707e-07
5.31804e-07
4.6696e-07
3.61699e-07
3.08025e-07
2.49406e-07
2.14695e-07
1.59815e-07
1.32129e-07
1.11642e-07
8.22242e-08
6.34947e-08
5.20796e-08
3.71701e-08
2.74807e-08
2.08029e-08
1.36038e-08
9.51544e-09
6.07498e-09
0
0
0
0
0
0
0
0
0
0
0
0
0
0
0
0
0
0
0
0
0
0
0
0
0
0
0
0
0
0
0
0
0
0
0
0
0
0
0
0
0
0
0
0
0
0
0
0
0
0
0
0
0
0
0
0
0
0
0
0
0
0
0
0
0
0
0
0
0
0
0
0
0
0
0
0
0
0
0
0
0
0
0
0
0
0
0
0
0
0
0
0
0
0
0
0
0
0
0
0
0
0
0
0
0
0
0
0
0
0
0
0
)
;

boundaryField
{
    inandouthalf11
    {
        type            cyclic;
    }
    inandouthalf12
    {
        type            cyclic;
    }
    inandouthalf21
    {
        type            cyclic;
    }
    inandouthalf22
    {
        type            cyclic;
    }
    inandouthalf31
    {
        type            cyclic;
    }
    inandouthalf32
    {
        type            cyclic;
    }
    inandouthalf41
    {
        type            cyclic;
    }
    inandouthalf42
    {
        type            cyclic;
    }
    top
    {
        type            symmetryPlane;
    }
    walls
    {
        type            calculated;
        value           uniform 2.87809e-16;
    }
    frontAndBackPlanes
    {
        type            empty;
    }
}


// ************************************************************************* //
