/*--------------------------------*- C++ -*----------------------------------*\
| =========                 |                                                 |
| \\      /  F ield         | OpenFOAM: The Open Source CFD Toolbox           |
|  \\    /   O peration     | Version:  2.4.x                                 |
|   \\  /    A nd           | Web:      www.OpenFOAM.org                      |
|    \\/     M anipulation  |                                                 |
\*---------------------------------------------------------------------------*/
FoamFile
{
    version     2.0;
    format      ascii;
    class       surfaceScalarField;
    location    "1.3";
    object      phia;
}
// * * * * * * * * * * * * * * * * * * * * * * * * * * * * * * * * * * * * * //

dimensions      [0 3 -1 0 0 0 0];

internalField   nonuniform List<scalar> 
359
(
-1.66909e-41
-1.66846e-41
-1.66851e-41
-1.66857e-41
-1.66868e-41
-1.66885e-41
-1.66907e-41
-1.66933e-41
-1.66965e-41
-1.67002e-41
-1.67043e-41
-1.67089e-41
-1.6714e-41
-1.67195e-41
-1.67255e-41
-1.67319e-41
-1.67387e-41
-1.6746e-41
-1.67537e-41
-1.67618e-41
-1.67703e-41
-1.67793e-41
-1.67886e-41
-1.67984e-41
-1.68085e-41
-1.6819e-41
-1.68299e-41
-1.68411e-41
-1.68528e-41
-1.68648e-41
-1.68772e-41
-1.689e-41
-1.69031e-41
-1.69167e-41
-1.69306e-41
-1.69449e-41
-1.69596e-41
-1.69747e-41
-1.69902e-41
-1.70061e-41
-1.70225e-41
-1.70394e-41
-1.70567e-41
-1.70745e-41
-1.70928e-41
-1.71117e-41
-1.71311e-41
-1.71511e-41
-1.71717e-41
-1.71931e-41
-1.72153e-41
-1.72382e-41
-1.7262e-41
-1.72868e-41
-1.73126e-41
-1.73396e-41
-1.73679e-41
-1.73976e-41
-1.74289e-41
-1.7462e-41
-1.74972e-41
-1.75348e-41
-1.75752e-41
-1.76187e-41
-1.76661e-41
-1.7718e-41
-1.77756e-41
-1.78403e-41
-1.79142e-41
-1.80012e-41
-1.81096e-41
-1.82622e-41
-1.85287e-41
-1.93185e-41
-2.57041e-41
-5.35704e-40
-3.48352e-33
-1.04029e-13
-1.24931e-12
-5.10325e-12
-1.12192e-11
-1.71905e-11
-2.18895e-11
-2.55933e-11
-2.88495e-11
-3.20597e-11
-3.54568e-11
-3.91211e-11
-4.30085e-11
-4.70106e-11
-5.1029e-11
-5.50195e-11
-5.89928e-11
-6.29897e-11
-6.70565e-11
-7.12294e-11
-7.55299e-11
-7.99679e-11
-8.45474e-11
-8.92706e-11
-9.41405e-11
-9.91599e-11
-1.04331e-10
-1.09656e-10
-1.15135e-10
-1.2077e-10
-1.26563e-10
-1.32521e-10
-1.38648e-10
-1.44955e-10
-1.51451e-10
-1.58147e-10
-1.65057e-10
-1.72196e-10
-1.7958e-10
-1.87226e-10
-1.95149e-10
-2.03363e-10
-2.11877e-10
-2.20696e-10
-2.29828e-10
-2.39301e-10
-2.49171e-10
-2.59538e-10
-2.70515e-10
-2.8215e-10
-2.94279e-10
-3.06395e-10
-3.17731e-10
-3.27679e-10
-3.3624e-10
-3.44134e-10
-3.52824e-10
-3.65113e-10
-3.85536e-10
-4.14923e-10
-4.50682e-10
-5.0488e-10
-6.04776e-10
-7.21314e-10
-8.53036e-10
-1.04821e-09
-1.49965e-09
-2.84139e-09
-3.41389e-09
-3.98221e-09
-5.01973e-09
-6.91513e-09
-8.65663e-09
-8.95978e-09
-1.38228e-08
-2.79947e-08
-2.55091e-08
-3.51069e-08
-4.15903e-08
-4.67014e-08
-5.06192e-08
-5.37519e-08
-5.62846e-08
-5.84427e-08
-6.03319e-08
-6.19459e-08
-6.34491e-08
-6.47453e-08
-6.59831e-08
-6.70742e-08
-6.81186e-08
-6.9048e-08
-6.99445e-08
-7.07626e-08
-7.15307e-08
-7.22554e-08
-7.29261e-08
-7.3568e-08
-7.41642e-08
-7.4734e-08
-7.52645e-08
-7.57761e-08
-7.62566e-08
-7.67122e-08
-7.7151e-08
-7.75625e-08
-7.79623e-08
-7.83378e-08
-7.87027e-08
-7.9047e-08
-7.93835e-08
-7.97022e-08
-8.00119e-08
-8.03057e-08
-8.05946e-08
-8.08712e-08
-8.11379e-08
-8.13978e-08
-8.16465e-08
-8.18903e-08
-8.21247e-08
-8.2355e-08
-8.25761e-08
-8.27917e-08
-8.29984e-08
-8.32072e-08
-8.34148e-08
-8.36204e-08
-8.382e-08
-8.40208e-08
-8.4227e-08
-8.44311e-08
-8.46297e-08
-8.48293e-08
-8.50334e-08
-8.52378e-08
-8.54404e-08
-8.56434e-08
-8.58539e-08
-8.60626e-08
-8.62696e-08
-8.6486e-08
-8.67074e-08
-8.69253e-08
-8.71469e-08
-8.73776e-08
-8.76098e-08
-8.78492e-08
-8.80958e-08
-8.83436e-08
-8.86007e-08
-8.88639e-08
-8.91409e-08
-8.94241e-08
-8.97166e-08
-9.00157e-08
-9.03347e-08
-9.06666e-08
-9.10092e-08
-9.13611e-08
-9.17397e-08
-9.21305e-08
-9.25251e-08
-9.29436e-08
-9.33774e-08
-9.38107e-08
-9.42535e-08
-9.46946e-08
-9.51165e-08
-9.55138e-08
-9.58528e-08
-9.61696e-08
-1.0125e-07
-1.31935e-07
-1.5815e-07
-1.58153e-07
-1.5815e-07
-1.58152e-07
-1.5815e-07
-1.58152e-07
-1.5815e-07
-1.58152e-07
-1.58151e-07
-1.58152e-07
-1.58151e-07
-1.58151e-07
-1.58151e-07
-1.58151e-07
-1.58151e-07
-1.58151e-07
-1.58151e-07
-1.58151e-07
-1.58151e-07
-1.58151e-07
-1.58151e-07
-1.58151e-07
-1.58151e-07
-1.58151e-07
-1.58151e-07
-1.58151e-07
-1.58151e-07
-1.58151e-07
-1.58151e-07
-1.58151e-07
-1.58151e-07
-1.58151e-07
-1.58151e-07
-1.58151e-07
-1.58151e-07
-1.58151e-07
-1.58151e-07
-1.58151e-07
-1.58151e-07
-1.58151e-07
-1.58151e-07
-1.58151e-07
-1.58151e-07
-1.58151e-07
-1.58151e-07
-1.58151e-07
-1.58151e-07
-1.58151e-07
-1.58151e-07
-1.58151e-07
-1.58151e-07
-1.58151e-07
-1.58151e-07
-1.58151e-07
-1.58151e-07
-1.58151e-07
-1.58151e-07
-1.58151e-07
-1.58151e-07
-1.58151e-07
-1.58151e-07
-1.58151e-07
-1.58151e-07
-1.58151e-07
-1.58151e-07
-1.58151e-07
-1.58151e-07
-1.58151e-07
-1.58151e-07
-1.58151e-07
-1.58151e-07
-1.58151e-07
-1.58151e-07
-1.58151e-07
-1.58151e-07
-1.58151e-07
-1.58151e-07
-1.58151e-07
-1.58151e-07
-1.58151e-07
-1.58151e-07
-1.58151e-07
-1.58151e-07
-1.58151e-07
-1.58151e-07
-1.58151e-07
-1.58151e-07
-1.58151e-07
-1.58151e-07
-1.58151e-07
-1.58151e-07
-1.58151e-07
-1.58151e-07
-1.58151e-07
-1.58151e-07
-1.58151e-07
-1.58151e-07
-1.58151e-07
-1.58151e-07
-1.58151e-07
-1.58151e-07
-1.58151e-07
-1.58151e-07
-1.58151e-07
-1.58151e-07
-1.58151e-07
-1.58133e-07
-1.57427e-07
-1.3253e-07
)
;

boundaryField
{
    inandouthalf11
    {
        type            cyclic;
        value           nonuniform List<scalar> 
100
(
-1.07847e-42
-1.07847e-42
-1.07851e-42
-1.07861e-42
-1.07877e-42
-1.07899e-42
-1.07927e-42
-1.07962e-42
-1.08004e-42
-1.08052e-42
-1.08106e-42
-1.08168e-42
-1.08235e-42
-1.0831e-42
-1.08392e-42
-1.0848e-42
-1.08575e-42
-1.08677e-42
-1.08786e-42
-1.08902e-42
-1.09025e-42
-1.09155e-42
-1.09292e-42
-1.09437e-42
-1.09588e-42
-1.09747e-42
-1.09912e-42
-1.10085e-42
-1.10266e-42
-1.10453e-42
-1.10648e-42
-1.1085e-42
-1.1106e-42
-1.11278e-42
-1.11503e-42
-1.11735e-42
-1.11976e-42
-1.12224e-42
-1.12481e-42
-1.12745e-42
-1.13018e-42
-1.13299e-42
-1.13589e-42
-1.13888e-42
-1.14196e-42
-1.14513e-42
-1.1484e-42
-1.15176e-42
-1.15523e-42
-1.15881e-42
-1.1625e-42
-1.16631e-42
-1.17024e-42
-1.17431e-42
-1.17851e-42
-1.18287e-42
-1.18739e-42
-1.19209e-42
-1.19699e-42
-1.2021e-42
-1.20745e-42
-1.21306e-42
-1.21898e-42
-1.22524e-42
-1.23191e-42
-1.23905e-42
-1.24677e-42
-1.25519e-42
-1.26452e-42
-1.27502e-42
-1.28736e-42
-1.30289e-42
-1.32587e-42
-1.36936e-42
-1.51865e-42
-2.86775e-42
-1.15406e-40
-7.44731e-34
-2.15441e-14
-2.32019e-13
-8.00917e-13
-1.53237e-12
-2.17059e-12
-2.67517e-12
-3.10099e-12
-3.50257e-12
-3.91711e-12
-4.36465e-12
-4.84865e-12
-5.35999e-12
-5.88545e-12
-6.41589e-12
-6.94939e-12
-7.48979e-12
-8.04344e-12
-8.61655e-12
-9.21383e-12
-9.83825e-12
-1.04916e-11
-1.11753e-11
)
;
    }
    inandouthalf12
    {
        type            cyclic;
        value           nonuniform List<scalar> 
100
(
1.07847e-42
1.07847e-42
1.07851e-42
1.07861e-42
1.07877e-42
1.07899e-42
1.07927e-42
1.07962e-42
1.08004e-42
1.08052e-42
1.08106e-42
1.08168e-42
1.08235e-42
1.0831e-42
1.08392e-42
1.0848e-42
1.08575e-42
1.08677e-42
1.08786e-42
1.08902e-42
1.09025e-42
1.09155e-42
1.09292e-42
1.09437e-42
1.09588e-42
1.09747e-42
1.09912e-42
1.10085e-42
1.10266e-42
1.10453e-42
1.10648e-42
1.1085e-42
1.1106e-42
1.11278e-42
1.11503e-42
1.11735e-42
1.11976e-42
1.12224e-42
1.12481e-42
1.12745e-42
1.13018e-42
1.13299e-42
1.13589e-42
1.13888e-42
1.14196e-42
1.14513e-42
1.1484e-42
1.15176e-42
1.15523e-42
1.15881e-42
1.1625e-42
1.16631e-42
1.17024e-42
1.17431e-42
1.17851e-42
1.18287e-42
1.18739e-42
1.19209e-42
1.19699e-42
1.2021e-42
1.20745e-42
1.21306e-42
1.21898e-42
1.22524e-42
1.23191e-42
1.23905e-42
1.24677e-42
1.25519e-42
1.26452e-42
1.27502e-42
1.28736e-42
1.30289e-42
1.32587e-42
1.36936e-42
1.51865e-42
2.86775e-42
1.15406e-40
7.44731e-34
2.15441e-14
2.32019e-13
8.00917e-13
1.53237e-12
2.17059e-12
2.67517e-12
3.10099e-12
3.50257e-12
3.91711e-12
4.36465e-12
4.84865e-12
5.35999e-12
5.88545e-12
6.41589e-12
6.94939e-12
7.48979e-12
8.04344e-12
8.61655e-12
9.21383e-12
9.83825e-12
1.04916e-11
1.11753e-11
)
;
    }
    inandouthalf21
    {
        type            cyclic;
        value           nonuniform List<scalar> 
100
(
-1.18907e-11
-1.26392e-11
-1.34226e-11
-1.42423e-11
-1.51e-11
-1.59976e-11
-1.6937e-11
-1.7921e-11
-1.89527e-11
-2.00359e-11
-2.1175e-11
-2.23752e-11
-2.36426e-11
-2.49839e-11
-2.64072e-11
-2.79215e-11
-2.95369e-11
-3.12646e-11
-3.31163e-11
-3.51049e-11
-3.72455e-11
-3.95582e-11
-4.20737e-11
-4.48378e-11
-4.79141e-11
-5.13722e-11
-5.52547e-11
-5.95211e-11
-6.40163e-11
-6.85497e-11
-7.31117e-11
-7.81333e-11
-8.49873e-11
-9.81676e-11
-1.38912e-10
-3.68004e-10
-2.59266e-09
-1.97497e-08
-7.31879e-08
-1.53198e-07
-2.41263e-07
-3.31045e-07
-4.21288e-07
-5.12928e-07
-6.03585e-07
-6.86131e-07
-7.58165e-07
-8.19665e-07
-8.63639e-07
-8.93788e-07
-9.26892e-07
-9.64072e-07
-1.01013e-06
-1.0412e-06
-1.06756e-06
-1.09055e-06
-1.111e-06
-1.12934e-06
-1.14587e-06
-1.16071e-06
-1.17408e-06
-1.1861e-06
-1.19689e-06
-1.2066e-06
-1.21533e-06
-1.22323e-06
-1.23035e-06
-1.23682e-06
-1.24268e-06
-1.24802e-06
-1.25289e-06
-1.25734e-06
-1.26141e-06
-1.26514e-06
-1.26857e-06
-1.27172e-06
-1.27463e-06
-1.2773e-06
-1.27977e-06
-1.28205e-06
-1.28417e-06
-1.28613e-06
-1.28796e-06
-1.28965e-06
-1.29123e-06
-1.29271e-06
-1.29409e-06
-1.29538e-06
-1.2966e-06
-1.29774e-06
-1.29881e-06
-1.29984e-06
-1.3008e-06
-1.30172e-06
-1.30259e-06
-1.30343e-06
-1.30423e-06
-1.305e-06
-1.30574e-06
-1.30646e-06
)
;
    }
    inandouthalf22
    {
        type            cyclic;
        value           nonuniform List<scalar> 
100
(
1.18907e-11
1.26392e-11
1.34226e-11
1.42423e-11
1.51e-11
1.59976e-11
1.6937e-11
1.7921e-11
1.89527e-11
2.00359e-11
2.1175e-11
2.23752e-11
2.36426e-11
2.49839e-11
2.64072e-11
2.79215e-11
2.95369e-11
3.12646e-11
3.31163e-11
3.51049e-11
3.72455e-11
3.95582e-11
4.20737e-11
4.48378e-11
4.79141e-11
5.13722e-11
5.52547e-11
5.95211e-11
6.40163e-11
6.85497e-11
7.31117e-11
7.81333e-11
8.49873e-11
9.81676e-11
1.38912e-10
3.68004e-10
2.59266e-09
1.97497e-08
7.31879e-08
1.53198e-07
2.41263e-07
3.31045e-07
4.21288e-07
5.12928e-07
6.03585e-07
6.86131e-07
7.58165e-07
8.19665e-07
8.63639e-07
8.93788e-07
9.26892e-07
9.64072e-07
1.01013e-06
1.0412e-06
1.06756e-06
1.09055e-06
1.111e-06
1.12934e-06
1.14587e-06
1.16071e-06
1.17408e-06
1.1861e-06
1.19689e-06
1.2066e-06
1.21533e-06
1.22323e-06
1.23035e-06
1.23682e-06
1.24268e-06
1.24802e-06
1.25289e-06
1.25734e-06
1.26141e-06
1.26514e-06
1.26857e-06
1.27172e-06
1.27463e-06
1.2773e-06
1.27977e-06
1.28205e-06
1.28417e-06
1.28613e-06
1.28796e-06
1.28965e-06
1.29123e-06
1.29271e-06
1.29409e-06
1.29538e-06
1.2966e-06
1.29774e-06
1.29881e-06
1.29984e-06
1.3008e-06
1.30172e-06
1.30259e-06
1.30343e-06
1.30423e-06
1.305e-06
1.30574e-06
1.30646e-06
)
;
    }
    inandouthalf31
    {
        type            cyclic;
        value           nonuniform List<scalar> 
110
(
-1.30715e-06
-1.33438e-06
-1.36217e-06
-1.39055e-06
-1.4195e-06
-1.44904e-06
-1.47921e-06
-1.51003e-06
-1.54147e-06
-1.57356e-06
-1.60633e-06
-1.6398e-06
-1.67396e-06
-1.70884e-06
-1.74446e-06
-1.78084e-06
-1.81797e-06
-1.8559e-06
-1.89466e-06
-1.93424e-06
-1.97463e-06
-2.01591e-06
-2.05808e-06
-2.10115e-06
-2.14517e-06
-2.19012e-06
-2.23604e-06
-2.28297e-06
-2.33093e-06
-2.37995e-06
-2.43004e-06
-2.48121e-06
-2.53353e-06
-2.58705e-06
-2.64175e-06
-2.69765e-06
-2.75482e-06
-2.81335e-06
-2.87311e-06
-2.93421e-06
-2.99677e-06
-3.06066e-06
-3.12592e-06
-3.19265e-06
-3.26069e-06
-3.33005e-06
-3.40064e-06
-3.47221e-06
-3.54569e-06
-3.66933e-06
-3.8895e-06
-3.96845e-06
-4.049e-06
-4.13118e-06
-4.21504e-06
-4.30059e-06
-4.38788e-06
-4.47694e-06
-4.56781e-06
-4.66053e-06
-4.75513e-06
-4.85164e-06
-4.95012e-06
-5.05059e-06
-5.15311e-06
-5.2577e-06
-5.36442e-06
-5.4733e-06
-5.5844e-06
-5.69774e-06
-5.81339e-06
-5.93139e-06
-6.05178e-06
-6.17462e-06
-6.29994e-06
-6.42782e-06
-6.55828e-06
-6.6914e-06
-6.82722e-06
-6.96579e-06
-7.10718e-06
-7.25144e-06
-7.39862e-06
-7.54879e-06
-7.70201e-06
-7.85834e-06
-8.01785e-06
-8.18059e-06
-8.34663e-06
-8.51605e-06
-8.6889e-06
-8.86526e-06
-9.0452e-06
-9.2288e-06
-9.41611e-06
-9.60724e-06
-9.80224e-06
-1.00012e-05
-1.02042e-05
-1.04113e-05
-1.06226e-05
-1.08382e-05
-1.10582e-05
-1.12827e-05
-1.15117e-05
-1.17454e-05
-1.19838e-05
-1.2227e-05
-1.24752e-05
-1.27284e-05
)
;
    }
    inandouthalf32
    {
        type            cyclic;
        value           nonuniform List<scalar> 
110
(
1.30715e-06
1.33438e-06
1.36217e-06
1.39055e-06
1.4195e-06
1.44904e-06
1.47921e-06
1.51003e-06
1.54147e-06
1.57356e-06
1.60633e-06
1.6398e-06
1.67396e-06
1.70884e-06
1.74446e-06
1.78084e-06
1.81797e-06
1.8559e-06
1.89466e-06
1.93424e-06
1.97463e-06
2.01591e-06
2.05808e-06
2.10115e-06
2.14517e-06
2.19012e-06
2.23604e-06
2.28297e-06
2.33093e-06
2.37995e-06
2.43004e-06
2.48121e-06
2.53353e-06
2.58705e-06
2.64175e-06
2.69765e-06
2.75482e-06
2.81335e-06
2.87311e-06
2.93421e-06
2.99677e-06
3.06066e-06
3.12592e-06
3.19265e-06
3.26069e-06
3.33005e-06
3.40064e-06
3.47221e-06
3.54569e-06
3.66933e-06
3.8895e-06
3.96845e-06
4.049e-06
4.13118e-06
4.21504e-06
4.30059e-06
4.38788e-06
4.47694e-06
4.56781e-06
4.66053e-06
4.75513e-06
4.85164e-06
4.95012e-06
5.05059e-06
5.15311e-06
5.2577e-06
5.36442e-06
5.4733e-06
5.5844e-06
5.69774e-06
5.81339e-06
5.93139e-06
6.05178e-06
6.17462e-06
6.29994e-06
6.42782e-06
6.55828e-06
6.6914e-06
6.82722e-06
6.96579e-06
7.10718e-06
7.25144e-06
7.39862e-06
7.54879e-06
7.70201e-06
7.85834e-06
8.01785e-06
8.18059e-06
8.34663e-06
8.51605e-06
8.6889e-06
8.86526e-06
9.0452e-06
9.2288e-06
9.41611e-06
9.60724e-06
9.80224e-06
1.00012e-05
1.02042e-05
1.04113e-05
1.06226e-05
1.08382e-05
1.10582e-05
1.12827e-05
1.15117e-05
1.17454e-05
1.19838e-05
1.2227e-05
1.24752e-05
1.27284e-05
)
;
    }
    inandouthalf41
    {
        type            cyclic;
        value           nonuniform List<scalar> 
50
(
-1.13932e-05
-1.13932e-05
-1.13932e-05
-1.13932e-05
-1.13932e-05
-1.13932e-05
-1.13932e-05
-1.13932e-05
-1.13932e-05
-1.13932e-05
-1.13932e-05
-1.13932e-05
-1.13932e-05
-1.13932e-05
-1.13932e-05
-1.13932e-05
-1.13932e-05
-1.13932e-05
-1.13932e-05
-1.13932e-05
-1.13932e-05
-1.13932e-05
-1.13932e-05
-1.13932e-05
-1.13932e-05
-1.13932e-05
-1.13932e-05
-1.13932e-05
-1.13932e-05
-1.13932e-05
-1.13932e-05
-1.13932e-05
-1.13932e-05
-1.13932e-05
-1.13932e-05
-1.13932e-05
-1.13932e-05
-1.13932e-05
-1.13932e-05
-1.13932e-05
-1.13932e-05
-1.13932e-05
-1.13932e-05
-1.13932e-05
-1.13932e-05
-1.13932e-05
-1.13932e-05
-1.13932e-05
-1.13931e-05
-1.13904e-05
)
;
    }
    inandouthalf42
    {
        type            cyclic;
        value           nonuniform List<scalar> 
50
(
1.13932e-05
1.13932e-05
1.13932e-05
1.13932e-05
1.13932e-05
1.13932e-05
1.13932e-05
1.13932e-05
1.13932e-05
1.13932e-05
1.13932e-05
1.13932e-05
1.13932e-05
1.13932e-05
1.13932e-05
1.13932e-05
1.13932e-05
1.13932e-05
1.13932e-05
1.13932e-05
1.13932e-05
1.13932e-05
1.13932e-05
1.13932e-05
1.13932e-05
1.13932e-05
1.13932e-05
1.13932e-05
1.13932e-05
1.13932e-05
1.13932e-05
1.13932e-05
1.13932e-05
1.13932e-05
1.13932e-05
1.13932e-05
1.13932e-05
1.13932e-05
1.13932e-05
1.13932e-05
1.13932e-05
1.13932e-05
1.13932e-05
1.13932e-05
1.13932e-05
1.13932e-05
1.13932e-05
1.13932e-05
1.13931e-05
1.13904e-05
)
;
    }
    top
    {
        type            symmetryPlane;
        value           uniform 0;
    }
    walls
    {
        type            fixedValue;
        value           uniform 0;
    }
    frontAndBackPlanes
    {
        type            empty;
        value           nonuniform 0();
    }
}


// ************************************************************************* //
