/*--------------------------------*- C++ -*----------------------------------*\
| =========                 |                                                 |
| \\      /  F ield         | OpenFOAM: The Open Source CFD Toolbox           |
|  \\    /   O peration     | Version:  2.4.x                                 |
|   \\  /    A nd           | Web:      www.OpenFOAM.org                      |
|    \\/     M anipulation  |                                                 |
\*---------------------------------------------------------------------------*/
FoamFile
{
    version     2.0;
    format      ascii;
    class       surfaceScalarField;
    location    "1.3";
    object      phib_0;
}
// * * * * * * * * * * * * * * * * * * * * * * * * * * * * * * * * * * * * * //

dimensions      [0 3 -1 0 0 0 0];

internalField   nonuniform List<scalar> 
359
(
6.55186e-19
1.31441e-18
1.97682e-18
2.64007e-18
3.3028e-18
3.96642e-18
4.62819e-18
5.29277e-18
5.95359e-18
6.61561e-18
7.27451e-18
7.93348e-18
8.59094e-18
9.24829e-18
9.90055e-18
1.05574e-17
1.12065e-17
1.18614e-17
1.25083e-17
1.31589e-17
1.38013e-17
1.44481e-17
1.50849e-17
1.57274e-17
1.63604e-17
1.69959e-17
1.76226e-17
1.82537e-17
1.8875e-17
1.95013e-17
2.01162e-17
2.07373e-17
2.13457e-17
2.1959e-17
2.25593e-17
2.31665e-17
2.37636e-17
2.43652e-17
2.49522e-17
2.55466e-17
2.61272e-17
2.67129e-17
2.72853e-17
2.78636e-17
2.84296e-17
2.90015e-17
2.95579e-17
3.01219e-17
3.06686e-17
3.12246e-17
3.1764e-17
3.23108e-17
3.28395e-17
3.3379e-17
3.38981e-17
3.44254e-17
3.49374e-17
3.54557e-17
3.59583e-17
3.64683e-17
3.69614e-17
3.74611e-17
3.79413e-17
3.84297e-17
3.88989e-17
3.93768e-17
3.98356e-17
4.03012e-17
4.07475e-17
4.12031e-17
4.16364e-17
4.20797e-17
4.25001e-17
4.29344e-17
4.33398e-17
4.3759e-17
4.41527e-17
1.53981e-13
1.89662e-12
7.82764e-12
1.73059e-11
2.65984e-11
3.39187e-11
3.96792e-11
4.47293e-11
4.96959e-11
5.49433e-11
6.05987e-11
6.65954e-11
7.27669e-11
7.89608e-11
8.5108e-11
9.12245e-11
9.73734e-11
1.03626e-10
1.10038e-10
1.16643e-10
1.23456e-10
1.30481e-10
1.37722e-10
1.45182e-10
1.52865e-10
1.60775e-10
1.68914e-10
1.77281e-10
1.85879e-10
1.94712e-10
2.03786e-10
2.13112e-10
2.22701e-10
2.32568e-10
2.4273e-10
2.53207e-10
2.64021e-10
2.75194e-10
2.86751e-10
2.98716e-10
3.11105e-10
3.23932e-10
3.37203e-10
3.5093e-10
3.6515e-10
3.79949e-10
3.95472e-10
4.11885e-10
4.29256e-10
4.47336e-10
4.65365e-10
4.82206e-10
4.96964e-10
5.09653e-10
5.21348e-10
5.34217e-10
5.52398e-10
5.82585e-10
6.25864e-10
6.78175e-10
7.5723e-10
9.01205e-10
1.06653e-09
1.24973e-09
1.51389e-09
2.07776e-09
3.68964e-09
4.2477e-09
4.79122e-09
5.70934e-09
7.26814e-09
8.46152e-09
8.71709e-09
1.0744e-08
7.0761e-09
3.78635e-10
5.47881e-11
3.46294e-11
2.85882e-11
2.4435e-11
2.14233e-11
1.90678e-11
1.67065e-11
1.51108e-11
1.35147e-11
1.21974e-11
1.10229e-11
9.92009e-12
9.02699e-12
8.22787e-12
7.48393e-12
6.73468e-12
6.21802e-12
5.63883e-12
5.16855e-12
4.72e-12
4.29975e-12
3.95341e-12
3.63074e-12
3.31854e-12
3.01775e-12
2.8037e-12
2.5497e-12
2.34755e-12
2.15517e-12
1.97755e-12
1.82301e-12
1.67547e-12
1.53694e-12
1.40639e-12
1.30087e-12
1.20277e-12
1.10258e-12
1.00217e-12
9.34173e-13
8.55434e-13
7.90439e-13
7.28646e-13
6.68711e-13
6.14736e-13
5.65031e-13
5.24003e-13
4.85536e-13
4.46395e-13
4.03468e-13
3.71306e-13
3.47207e-13
3.2205e-13
2.85106e-13
2.55844e-13
2.39793e-13
2.21465e-13
1.96925e-13
1.75988e-13
1.61011e-13
1.47455e-13
1.30389e-13
1.15674e-13
1.07092e-13
9.5036e-14
8.20765e-14
7.44966e-14
6.78434e-14
5.89164e-14
5.18767e-14
4.62933e-14
4.00758e-14
3.56658e-14
3.14357e-14
2.73226e-14
2.3669e-14
2.03598e-14
1.78369e-14
1.55422e-14
1.33261e-14
1.11637e-14
9.65301e-15
8.3802e-15
7.0699e-15
5.79426e-15
5.10898e-15
4.31089e-15
3.46877e-15
2.97171e-15
2.50003e-15
2.00818e-15
1.69707e-15
1.40266e-15
1.15675e-15
1.04703e-15
9.90533e-16
9.32923e-16
7.65725e-16
4.24861e-16
3.22505e-16
2.72242e-16
2.07575e-16
1.57386e-16
1.3181e-16
1.04967e-16
7.96797e-17
6.4233e-17
5.04406e-17
3.92827e-17
3.14235e-17
2.48018e-17
1.97421e-17
1.55101e-17
1.27432e-17
1.04714e-17
8.68006e-18
7.13253e-18
6.25235e-18
5.45335e-18
4.82383e-18
4.37623e-18
3.99931e-18
3.70923e-18
3.44356e-18
3.22595e-18
3.00901e-18
2.81506e-18
2.62373e-18
2.48085e-18
2.33507e-18
2.19936e-18
2.052e-18
1.91654e-18
1.76944e-18
1.65415e-18
1.49781e-18
1.35274e-18
1.20468e-18
1.05678e-18
9.0782e-19
7.62013e-19
6.18147e-19
4.81985e-19
3.51764e-19
3.02523e-19
2.59224e-19
2.25929e-19
1.76526e-19
1.52111e-19
1.28549e-19
1.0669e-19
8.43203e-20
6.76063e-20
5.05093e-20
3.32494e-20
1.30901e-20
-3.64208e-21
-2.53721e-20
-4.40556e-20
-6.65351e-20
-8.29927e-20
-1.0391e-19
-1.23836e-19
-1.50317e-19
-1.72324e-19
-2.01677e-19
-2.31914e-19
-2.6905e-19
-3.09825e-19
-3.59541e-19
-4.12187e-19
-4.78903e-19
-5.62592e-19
-6.63579e-19
-7.98771e-19
-9.32156e-19
-1.53338e-18
-2.1512e-18
-2.80598e-18
-3.52027e-18
-4.21709e-18
-4.99478e-18
-5.77663e-18
-6.6357e-18
-7.41371e-18
-8.27717e-18
-9.14741e-18
-1.01061e-17
-1.10775e-17
-1.20742e-17
-1.31339e-17
-1.41606e-17
-1.6017e-17
-1.76458e-17
-1.93197e-17
-2.05076e-17
-2.22909e-17
-2.31618e-17
-2.41344e-17
-2.41565e-17
-2.66958e-17
-2.73557e-17
-2.80101e-17
-2.61255e-17
-2.57956e-17
-2.31451e-17
-2.16596e-17
)
;

boundaryField
{
    inandouthalf11
    {
        type            cyclic;
        value           nonuniform List<scalar> 
100
(
-1.04648e-10
-1.04827e-10
-1.04828e-10
-1.04828e-10
-1.04828e-10
-1.04829e-10
-1.04829e-10
-1.0483e-10
-1.0483e-10
-1.04831e-10
-1.04831e-10
-1.04831e-10
-1.04832e-10
-1.04833e-10
-1.04834e-10
-1.04835e-10
-1.04836e-10
-1.04837e-10
-1.04838e-10
-1.04839e-10
-1.0484e-10
-1.04842e-10
-1.04844e-10
-1.04846e-10
-1.04847e-10
-1.04849e-10
-1.04851e-10
-1.04853e-10
-1.04856e-10
-1.04859e-10
-1.04861e-10
-1.04865e-10
-1.04868e-10
-1.04872e-10
-1.04876e-10
-1.0488e-10
-1.04884e-10
-1.0489e-10
-1.04896e-10
-1.04901e-10
-1.04908e-10
-1.04915e-10
-1.04922e-10
-1.04931e-10
-1.0494e-10
-1.0495e-10
-1.0496e-10
-1.04971e-10
-1.04983e-10
-1.04997e-10
-1.05011e-10
-1.05027e-10
-1.05044e-10
-1.05063e-10
-1.05082e-10
-1.05104e-10
-1.05127e-10
-1.05153e-10
-1.0518e-10
-1.05209e-10
-1.05242e-10
-1.05277e-10
-1.05315e-10
-1.05355e-10
-1.054e-10
-1.05448e-10
-1.055e-10
-1.05557e-10
-1.05618e-10
-1.05684e-10
-1.05755e-10
-1.05834e-10
-1.05917e-10
-1.06009e-10
-1.06108e-10
-1.06216e-10
-1.06332e-10
-1.06458e-10
-1.066e-10
-1.06873e-10
-1.07422e-10
-1.08113e-10
-1.08749e-10
-1.09291e-10
-1.09781e-10
-1.10257e-10
-1.10748e-10
-1.11267e-10
-1.11817e-10
-1.1239e-10
-1.12975e-10
-1.13567e-10
-1.14165e-10
-1.14774e-10
-1.15398e-10
-1.16044e-10
-1.16715e-10
-1.17415e-10
-1.18145e-10
-1.18907e-10
)
;
    }
    inandouthalf12
    {
        type            cyclic;
        value           nonuniform List<scalar> 
100
(
1.04648e-10
1.04827e-10
1.04828e-10
1.04828e-10
1.04828e-10
1.04829e-10
1.04829e-10
1.0483e-10
1.0483e-10
1.04831e-10
1.04831e-10
1.04831e-10
1.04832e-10
1.04833e-10
1.04834e-10
1.04835e-10
1.04836e-10
1.04837e-10
1.04838e-10
1.04839e-10
1.0484e-10
1.04842e-10
1.04844e-10
1.04846e-10
1.04847e-10
1.04849e-10
1.04851e-10
1.04853e-10
1.04856e-10
1.04859e-10
1.04861e-10
1.04865e-10
1.04868e-10
1.04872e-10
1.04876e-10
1.0488e-10
1.04884e-10
1.0489e-10
1.04896e-10
1.04901e-10
1.04908e-10
1.04915e-10
1.04922e-10
1.04931e-10
1.0494e-10
1.0495e-10
1.0496e-10
1.04971e-10
1.04983e-10
1.04997e-10
1.05011e-10
1.05027e-10
1.05044e-10
1.05063e-10
1.05082e-10
1.05104e-10
1.05127e-10
1.05153e-10
1.0518e-10
1.05209e-10
1.05242e-10
1.05277e-10
1.05315e-10
1.05355e-10
1.054e-10
1.05448e-10
1.055e-10
1.05557e-10
1.05618e-10
1.05684e-10
1.05755e-10
1.05834e-10
1.05917e-10
1.06009e-10
1.06108e-10
1.06216e-10
1.06332e-10
1.06458e-10
1.066e-10
1.06873e-10
1.07422e-10
1.08113e-10
1.08749e-10
1.09291e-10
1.09781e-10
1.10257e-10
1.10748e-10
1.11267e-10
1.11817e-10
1.1239e-10
1.12975e-10
1.13567e-10
1.14165e-10
1.14774e-10
1.15398e-10
1.16044e-10
1.16715e-10
1.17415e-10
1.18145e-10
1.18907e-10
)
;
    }
    inandouthalf21
    {
        type            cyclic;
        value           nonuniform List<scalar> 
100
(
-1.19704e-10
-1.20535e-10
-1.21403e-10
-1.2231e-10
-1.23256e-10
-1.24245e-10
-1.25278e-10
-1.26358e-10
-1.27488e-10
-1.28673e-10
-1.29916e-10
-1.31223e-10
-1.32601e-10
-1.34056e-10
-1.35597e-10
-1.37232e-10
-1.38973e-10
-1.4083e-10
-1.42815e-10
-1.44942e-10
-1.47225e-10
-1.49684e-10
-1.52352e-10
-1.55275e-10
-1.58519e-10
-1.62156e-10
-1.66226e-10
-1.70683e-10
-1.7536e-10
-1.80057e-10
-1.84759e-10
-1.89911e-10
-1.96913e-10
-2.10386e-10
-2.52043e-10
-4.87183e-10
-2.76645e-09
-2.01599e-08
-7.38738e-08
-1.5398e-07
-2.4206e-07
-3.31846e-07
-4.221e-07
-5.13786e-07
-6.04426e-07
-6.86872e-07
-7.58812e-07
-8.20174e-07
-8.63818e-07
-8.93734e-07
-9.26772e-07
-9.63798e-07
-1.00949e-06
-1.05785e-06
-1.10501e-06
-1.14875e-06
-1.18808e-06
-1.22283e-06
-1.25291e-06
-1.27854e-06
-1.29997e-06
-1.31747e-06
-1.33168e-06
-1.34302e-06
-1.35224e-06
-1.35976e-06
-1.36609e-06
-1.3715e-06
-1.37624e-06
-1.38046e-06
-1.38421e-06
-1.38763e-06
-1.39071e-06
-1.39353e-06
-1.39609e-06
-1.39845e-06
-1.4006e-06
-1.40258e-06
-1.4044e-06
-1.40608e-06
-1.40762e-06
-1.40904e-06
-1.41035e-06
-1.41156e-06
-1.41267e-06
-1.4137e-06
-1.41465e-06
-1.41552e-06
-1.41633e-06
-1.41708e-06
-1.41777e-06
-1.4184e-06
-1.41899e-06
-1.41953e-06
-1.42003e-06
-1.4205e-06
-1.42092e-06
-1.42132e-06
-1.42168e-06
-1.42202e-06
)
;
    }
    inandouthalf22
    {
        type            cyclic;
        value           nonuniform List<scalar> 
100
(
1.19704e-10
1.20535e-10
1.21403e-10
1.2231e-10
1.23256e-10
1.24245e-10
1.25278e-10
1.26358e-10
1.27488e-10
1.28673e-10
1.29916e-10
1.31223e-10
1.32601e-10
1.34056e-10
1.35597e-10
1.37232e-10
1.38973e-10
1.4083e-10
1.42815e-10
1.44942e-10
1.47225e-10
1.49684e-10
1.52352e-10
1.55275e-10
1.58519e-10
1.62156e-10
1.66226e-10
1.70683e-10
1.7536e-10
1.80057e-10
1.84759e-10
1.89911e-10
1.96913e-10
2.10386e-10
2.52043e-10
4.87183e-10
2.76645e-09
2.01599e-08
7.38738e-08
1.5398e-07
2.4206e-07
3.31846e-07
4.221e-07
5.13786e-07
6.04426e-07
6.86872e-07
7.58812e-07
8.20174e-07
8.63818e-07
8.93734e-07
9.26772e-07
9.63798e-07
1.00949e-06
1.05785e-06
1.10501e-06
1.14875e-06
1.18808e-06
1.22283e-06
1.25291e-06
1.27854e-06
1.29997e-06
1.31747e-06
1.33168e-06
1.34302e-06
1.35224e-06
1.35976e-06
1.36609e-06
1.3715e-06
1.37624e-06
1.38046e-06
1.38421e-06
1.38763e-06
1.39071e-06
1.39353e-06
1.39609e-06
1.39845e-06
1.4006e-06
1.40258e-06
1.4044e-06
1.40608e-06
1.40762e-06
1.40904e-06
1.41035e-06
1.41156e-06
1.41267e-06
1.4137e-06
1.41465e-06
1.41552e-06
1.41633e-06
1.41708e-06
1.41777e-06
1.4184e-06
1.41899e-06
1.41953e-06
1.42003e-06
1.4205e-06
1.42092e-06
1.42132e-06
1.42168e-06
1.42202e-06
)
;
    }
    inandouthalf31
    {
        type            cyclic;
        value           nonuniform List<scalar> 
110
(
-1.42233e-06
-1.4515e-06
-1.48124e-06
-1.51158e-06
-1.54252e-06
-1.57408e-06
-1.60627e-06
-1.6391e-06
-1.67258e-06
-1.70673e-06
-1.74156e-06
-1.7771e-06
-1.81334e-06
-1.8503e-06
-1.88801e-06
-1.92647e-06
-1.96571e-06
-2.00573e-06
-2.04655e-06
-2.0882e-06
-2.13068e-06
-2.17402e-06
-2.21823e-06
-2.26333e-06
-2.30934e-06
-2.35628e-06
-2.40416e-06
-2.45301e-06
-2.50285e-06
-2.55369e-06
-2.60557e-06
-2.65849e-06
-2.71248e-06
-2.76757e-06
-2.82376e-06
-2.8811e-06
-2.9396e-06
-2.99928e-06
-3.06018e-06
-3.1223e-06
-3.18569e-06
-3.25036e-06
-3.31634e-06
-3.38366e-06
-3.45235e-06
-3.52243e-06
-3.59393e-06
-3.66688e-06
-3.74131e-06
-3.81725e-06
-3.89474e-06
-3.97379e-06
-4.05445e-06
-4.13675e-06
-4.22071e-06
-4.30638e-06
-4.39379e-06
-4.48298e-06
-4.57397e-06
-4.66681e-06
-4.76153e-06
-4.85818e-06
-4.95679e-06
-5.0574e-06
-5.16005e-06
-5.26478e-06
-5.37165e-06
-5.48068e-06
-5.59192e-06
-5.70542e-06
-5.82122e-06
-5.93938e-06
-6.05993e-06
-6.18293e-06
-6.30843e-06
-6.43648e-06
-6.56712e-06
-6.70041e-06
-6.83641e-06
-6.97517e-06
-7.11675e-06
-7.2612e-06
-7.40859e-06
-7.55896e-06
-7.71239e-06
-7.86893e-06
-8.02865e-06
-8.19161e-06
-8.35788e-06
-8.52752e-06
-8.7006e-06
-8.8772e-06
-9.05739e-06
-9.24123e-06
-9.4288e-06
-9.62018e-06
-9.81544e-06
-1.00147e-05
-1.02179e-05
-1.04253e-05
-1.06369e-05
-1.08528e-05
-1.10731e-05
-1.12979e-05
-1.15272e-05
-1.17612e-05
-1.19999e-05
-1.22435e-05
-1.2492e-05
-1.27455e-05
)
;
    }
    inandouthalf32
    {
        type            cyclic;
        value           nonuniform List<scalar> 
110
(
1.42233e-06
1.4515e-06
1.48124e-06
1.51158e-06
1.54252e-06
1.57408e-06
1.60627e-06
1.6391e-06
1.67258e-06
1.70673e-06
1.74156e-06
1.7771e-06
1.81334e-06
1.8503e-06
1.88801e-06
1.92647e-06
1.96571e-06
2.00573e-06
2.04655e-06
2.0882e-06
2.13068e-06
2.17402e-06
2.21823e-06
2.26333e-06
2.30934e-06
2.35628e-06
2.40416e-06
2.45301e-06
2.50285e-06
2.55369e-06
2.60557e-06
2.65849e-06
2.71248e-06
2.76757e-06
2.82376e-06
2.8811e-06
2.9396e-06
2.99928e-06
3.06018e-06
3.1223e-06
3.18569e-06
3.25036e-06
3.31634e-06
3.38366e-06
3.45235e-06
3.52243e-06
3.59393e-06
3.66688e-06
3.74131e-06
3.81725e-06
3.89474e-06
3.97379e-06
4.05445e-06
4.13675e-06
4.22071e-06
4.30638e-06
4.39379e-06
4.48298e-06
4.57397e-06
4.66681e-06
4.76153e-06
4.85818e-06
4.95679e-06
5.0574e-06
5.16005e-06
5.26478e-06
5.37165e-06
5.48068e-06
5.59192e-06
5.70542e-06
5.82122e-06
5.93938e-06
6.05993e-06
6.18293e-06
6.30843e-06
6.43648e-06
6.56712e-06
6.70041e-06
6.83641e-06
6.97517e-06
7.11675e-06
7.2612e-06
7.40859e-06
7.55896e-06
7.71239e-06
7.86893e-06
8.02865e-06
8.19161e-06
8.35788e-06
8.52752e-06
8.7006e-06
8.8772e-06
9.05739e-06
9.24123e-06
9.4288e-06
9.62018e-06
9.81544e-06
1.00147e-05
1.02179e-05
1.04253e-05
1.06369e-05
1.08528e-05
1.10731e-05
1.12979e-05
1.15272e-05
1.17612e-05
1.19999e-05
1.22435e-05
1.2492e-05
1.27455e-05
)
;
    }
    inandouthalf41
    {
        type            cyclic;
        value           nonuniform List<scalar> 
50
(
-1.14085e-05
-1.14085e-05
-1.14085e-05
-1.14085e-05
-1.14085e-05
-1.14085e-05
-1.14085e-05
-1.14085e-05
-1.14085e-05
-1.14085e-05
-1.14085e-05
-1.14085e-05
-1.14085e-05
-1.14085e-05
-1.14085e-05
-1.14085e-05
-1.14085e-05
-1.14085e-05
-1.14085e-05
-1.14085e-05
-1.14085e-05
-1.14085e-05
-1.14085e-05
-1.14085e-05
-1.14085e-05
-1.14085e-05
-1.14085e-05
-1.14085e-05
-1.14085e-05
-1.14085e-05
-1.14085e-05
-1.14085e-05
-1.14085e-05
-1.14085e-05
-1.14085e-05
-1.14085e-05
-1.14085e-05
-1.14085e-05
-1.14085e-05
-1.14085e-05
-1.14085e-05
-1.14085e-05
-1.14085e-05
-1.14085e-05
-1.14085e-05
-1.14085e-05
-1.14085e-05
-1.14085e-05
-1.14085e-05
-1.14085e-05
)
;
    }
    inandouthalf42
    {
        type            cyclic;
        value           nonuniform List<scalar> 
50
(
1.14085e-05
1.14085e-05
1.14085e-05
1.14085e-05
1.14085e-05
1.14085e-05
1.14085e-05
1.14085e-05
1.14085e-05
1.14085e-05
1.14085e-05
1.14085e-05
1.14085e-05
1.14085e-05
1.14085e-05
1.14085e-05
1.14085e-05
1.14085e-05
1.14085e-05
1.14085e-05
1.14085e-05
1.14085e-05
1.14085e-05
1.14085e-05
1.14085e-05
1.14085e-05
1.14085e-05
1.14085e-05
1.14085e-05
1.14085e-05
1.14085e-05
1.14085e-05
1.14085e-05
1.14085e-05
1.14085e-05
1.14085e-05
1.14085e-05
1.14085e-05
1.14085e-05
1.14085e-05
1.14085e-05
1.14085e-05
1.14085e-05
1.14085e-05
1.14085e-05
1.14085e-05
1.14085e-05
1.14085e-05
1.14085e-05
1.14085e-05
)
;
    }
    top
    {
        type            symmetryPlane;
        value           uniform 0;
    }
    walls
    {
        type            fixedValue;
        value           uniform 0;
    }
    frontAndBackPlanes
    {
        type            empty;
        value           nonuniform 0();
    }
}


// ************************************************************************* //
