/*--------------------------------*- C++ -*----------------------------------*\
| =========                 |                                                 |
| \\      /  F ield         | OpenFOAM: The Open Source CFD Toolbox           |
|  \\    /   O peration     | Version:  2.4.x                                 |
|   \\  /    A nd           | Web:      www.OpenFOAM.org                      |
|    \\/     M anipulation  |                                                 |
\*---------------------------------------------------------------------------*/
FoamFile
{
    version     2.0;
    format      ascii;
    class       volVectorField;
    location    "1.3";
    object      susb;
}
// * * * * * * * * * * * * * * * * * * * * * * * * * * * * * * * * * * * * * //

dimensions      [0 1 -2 0 0 0 0];

internalField   nonuniform List<vector> 
360
(
(0 -1.72593e-28 0)
(0 -6.90719e-21 0)
(0 -6.90715e-21 0)
(0 2.45724e-28 0)
(-3.65661e-31 -6.90715e-21 0)
(-7.31318e-31 -6.9071e-21 0)
(-3.65659e-31 -6.9071e-21 0)
(0 -6.90705e-21 0)
(-3.65656e-31 -6.90705e-21 0)
(0 -1.3814e-20 0)
(-3.65651e-31 -6.90696e-21 0)
(0 -6.90696e-21 0)
(-3.65649e-31 -1.38138e-20 0)
(0 -1.38137e-20 0)
(0 -1.38136e-20 0)
(0 -1.38135e-20 0)
(0 -1.38135e-20 0)
(-3.65637e-31 -1.38134e-20 0)
(0 -2.07199e-20 0)
(0 -2.07196e-20 0)
(0 -2.07195e-20 0)
(-3.65622e-31 -2.76256e-20 0)
(0 -2.76252e-20 0)
(0 -2.76248e-20 0)
(0 -2.76245e-20 0)
(-3.65602e-31 -2.76241e-20 0)
(0 -3.45297e-20 0)
(0 -4.14347e-20 0)
(0 -4.14339e-20 0)
(0 -4.14331e-20 0)
(0 -4.83376e-20 0)
(0 -4.83363e-20 0)
(0 -5.52404e-20 0)
(0 -6.21433e-20 0)
(0 -6.21416e-20 0)
(3.65515e-31 -6.90439e-20 0)
(0 -7.59457e-20 0)
(0 -8.97504e-20 0)
(0 -8.97461e-20 0)
(0 -9.66458e-20 0)
(0 -1.10446e-19 0)
(0 -1.1044e-19 0)
(3.65397e-31 -1.24239e-19 0)
(0 -1.38034e-19 0)
(0 -1.44926e-19 0)
(0 -1.58716e-19 0)
(0 -1.65603e-19 0)
(0 -1.79389e-19 0)
(0 -2.06968e-19 0)
(0 -2.20742e-19 0)
(3.65147e-31 -2.34513e-19 0)
(0 -2.55174e-19 0)
(0 -2.75828e-19 0)
(0 -2.96473e-19 0)
(0 -3.24004e-19 0)
(0 -3.5152e-19 0)
(0 -3.79023e-19 0)
(0 -4.13399e-19 0)
(0 -4.40866e-19 0)
(0 -4.8209e-19 0)
(0 -5.23281e-19 0)
(0 -5.64444e-19 0)
(0 -6.1245e-19 0)
(0 -6.60415e-19 0)
(0 -7.15208e-19 0)
(0 -7.76817e-19 0)
(0 -8.45225e-19 0)
(0 -9.13547e-19 0)
(0 -9.81777e-19 0)
(0 -1.06363e-18 0)
(0 -1.15907e-18 0)
(0 -1.24749e-18 0)
(0 -1.34944e-18 0)
(0 -1.46487e-18 0)
(0 -1.5869e-18 0)
(0 -1.71546e-18 0)
(0 -1.85002e-18 0)
(0 -1.89744e-18 0)
(0 -1.46491e-18 0)
(0 -4.16265e-19 0)
(0 4.38161e-19 0)
(0 3.9279e-19 0)
(0 -1.84656e-19 0)
(0 -7.0961e-19 0)
(0 -1.00851e-18 0)
(0 -1.12374e-18 0)
(0 -1.11824e-18 0)
(0 -1.04874e-18 0)
(0 -9.72541e-19 0)
(0 -9.27927e-19 0)
(0 -9.26493e-19 0)
(0 -9.58714e-19 0)
(0 -1.00396e-18 0)
(0 -1.04464e-18 0)
(0 -1.0746e-18 0)
(0 -1.09559e-18 0)
(0 -1.11302e-18 0)
(0 -1.132e-18 0)
(0 -1.15511e-18 0)
(0 -1.1819e-18 0)
(0 -1.21061e-18 0)
(0 -1.24005e-18 0)
(0 -1.26969e-18 0)
(0 -1.29968e-18 0)
(0 -1.33061e-18 0)
(0 -1.36293e-18 0)
(0 -1.39677e-18 0)
(0 -1.43214e-18 0)
(0 -1.46904e-18 0)
(0 -1.50752e-18 0)
(0 -1.54774e-18 0)
(0 -1.58991e-18 0)
(0 -1.63424e-18 0)
(0 -1.681e-18 0)
(0 -1.73043e-18 0)
(0 -1.78258e-18 0)
(0 -1.83717e-18 0)
(0 -1.89342e-18 0)
(0 -1.95024e-18 0)
(0 -2.00693e-18 0)
(0 -2.06459e-18 0)
(0 -2.12749e-18 0)
(0 -2.20343e-18 0)
(0 -2.30111e-18 0)
(0 -2.42266e-18 0)
(0 -2.55068e-18 0)
(0 -2.63629e-18 0)
(0 -2.60767e-18 0)
(0 -2.41747e-18 0)
(0 -2.10298e-18 0)
(0 -1.78891e-18 0)
(0 -1.62936e-18 0)
(0 -1.80046e-18 0)
(0 -2.57402e-18 0)
(0 -4.04135e-18 0)
(0 -3.78796e-18 0)
(0 -2.1693e-18 0)
(0 -1.39924e-18 0)
(0 -1.26579e-18 0)
(0 -1.25871e-18 0)
(0 -1.39613e-18 0)
(0 -2.15383e-18 0)
(0 -6.02921e-18 0)
(0 -7.89678e-18 0)
(0 -4.95742e-18 0)
(0 -4.31522e-18 0)
(0 -7.68714e-18 0)
(0 -1.24535e-17 0)
(0 -1.42707e-17 0)
(0 -9.05839e-19 0)
(0 -4.11336e-17 0)
(0 -3.45975e-17 0)
(0 -1.72608e-16 0)
(0 -2.38553e-16 0)
(0 -7.71921e-17 0)
(0 -4.87073e-17 0)
(0 -3.52324e-17 0)
(0 -2.01569e-17 0)
(0 -9.55483e-18 0)
(0 -4.66843e-18 0)
(0 -1.47478e-18 0)
(0 -5.95745e-19 0)
(0 -2.13811e-19 0)
(0 -9.39308e-20 0)
(0 -5.49794e-20 0)
(0 -3.51182e-20 0)
(0 -2.77324e-20 0)
(0 -2.37317e-20 0)
(0 -2.22308e-20 0)
(0 -1.50688e-20 0)
(0 -1.58058e-20 0)
(0 -1.2568e-20 0)
(0 -1.15312e-20 0)
(0 -1.04811e-20 0)
(0 -8.39048e-21 0)
(0 -7.47702e-21 0)
(0 -6.74514e-21 0)
(0 -5.95317e-21 0)
(0 -3.87882e-21 0)
(0 -4.04739e-21 0)
(0 -3.16119e-21 0)
(0 -2.96785e-21 0)
(0 -2.71445e-21 0)
(0 -2.34529e-21 0)
(0 -2.21747e-21 0)
(0 -2.05966e-21 0)
(0 -1.92391e-21 0)
(0 -1.55215e-21 0)
(0 -1.43377e-21 0)
(0 -1.44682e-21 0)
(0 -1.43487e-21 0)
(0 -9.77364e-22 0)
(0 -1.1155e-21 0)
(0 -9.18554e-22 0)
(0 -8.67531e-22 0)
(0 -8.35615e-22 0)
(0 -7.48326e-22 0)
(0 -6.85569e-22 0)
(0 -5.65161e-22 0)
(0 -5.274e-22 0)
(0 -5.32512e-22 0)
(0 -5.66883e-22 0)
(-2.11849e-37 -4.16005e-22 0)
(0 -3.0661e-22 0)
(0 -3.11972e-22 0)
(1.98543e-37 -4.4131e-22 0)
(0 -3.41146e-22 0)
(-9.50353e-38 -1.85334e-22 0)
(0 -2.05814e-22 0)
(9.0967e-38 -2.66164e-22 0)
(0 -2.21473e-22 0)
(0 -1.55435e-22 0)
(0 -1.37612e-22 0)
(8.32736e-38 -1.67639e-22 0)
(0 -1.40886e-22 0)
(0 -8.11519e-23 0)
(0 -1.10168e-22 0)
(0 -1.14913e-22 0)
(0 -6.60395e-23 0)
(-3.63854e-38 -5.67317e-23 0)
(0 -7.35419e-23 0)
(-3.47655e-38 -5.66026e-23 0)
(0 -4.39177e-23 0)
(-1.66019e-38 -4.74514e-23 0)
(0 -3.29355e-23 0)
(0 -3.07575e-23 0)
(0 -2.90909e-23 0)
(0 -2.51525e-23 0)
(7.38619e-39 -2.21754e-23 0)
(7.21285e-39 -1.65172e-23 0)
(0 -1.46239e-23 0)
(0 -1.37168e-23 0)
(0 -1.299e-23 0)
(0 -8.86717e-24 0)
(0 -7.27953e-24 0)
(0 -7.25678e-24 0)
(0 -6.8436e-24 0)
(0 -3.61446e-24 0)
(0 -4.06012e-24 0)
(0 -4.1362e-24 0)
(0 -2.3874e-24 0)
(0 -2.19392e-24 0)
(0 -2.20592e-24 0)
(-6.35578e-40 -1.36047e-24 0)
(6.19307e-40 -1.24361e-24 0)
(0 -1.00515e-24 0)
(0 -4.40181e-25 0)
(-2.87099e-40 -2.25191e-25 0)
(0 -3.62141e-25 0)
(0 -1.08477e-24 0)
(-1.06424e-40 -8.43187e-25 0)
(0 -1.70041e-25 0)
(0 -8.17787e-26 0)
(0 -1.03279e-25 0)
(0 -7.81737e-26 0)
(0 -3.88154e-26 0)
(0 -3.99577e-26 0)
(0 -3.68592e-26 0)
(0 -2.17755e-26 0)
(0 -1.90477e-26 0)
(0 -1.49581e-26 0)
(0 -1.02047e-26 0)
(0 -8.33949e-27 0)
(0 -6.19869e-27 0)
(0 -5.06038e-27 0)
(0 -3.18379e-27 0)
(1.20568e-42 -2.46259e-27 0)
(0 -1.92907e-27 0)
(0 -1.62229e-27 0)
(0 -8.28163e-28 0)
(0 -7.19287e-28 0)
(0 -5.247e-28 0)
(0 -3.48617e-28 0)
(0 -2.68026e-28 0)
(0 -1.67595e-28 0)
(0 -1.25112e-28 0)
(0 -8.35986e-29 0)
(0 -6.53685e-29 0)
(0 -3.85202e-29 0)
(0 -2.63741e-29 0)
(0 -1.72101e-29 0)
(0 -1.41472e-29 0)
(0 -7.07345e-30 0)
(0 -4.84746e-30 0)
(0 -3.37487e-30 0)
(0 -2.00937e-30 0)
(7.87764e-46 -1.40362e-30 0)
(0 -7.70672e-31 0)
(0 -5.20864e-31 0)
(0 -3.22531e-31 0)
(0 -2.19906e-31 0)
(0 -9.95681e-32 0)
(0 -7.32767e-32 0)
(0 -4.68375e-32 0)
(0 -2.11775e-32 0)
(0 -1.35287e-32 0)
(2.51703e-48 -7.8605e-33 0)
(0 -4.27117e-33 0)
(0 -2.69355e-33 0)
(-5.92445e-49 -1.5046e-33 0)
(0 -9.33977e-34 0)
(0 -3.86303e-34 0)
(0 -1.55753e-34 0)
(0 -5.03881e-35 0)
(0 -1.55539e-35 0)
(0 -4.2353e-36 0)
(0 -1.01312e-36 0)
(0 -2.02717e-37 0)
(0 -3.22312e-38 0)
(0 -3.75994e-39 0)
(0 -2.80449e-40 0)
(0 -1.23264e-41 0)
(0 -5.89996e-43 0)
(0 -1.3845e-44 0)
(0 -9.31013e-56 0)
(0 -3.15707e-67 0)
(0 -7.81768e-79 0)
(0 -1.4719e-90 0)
(0 -2.41314e-102 0)
(0 -4.76933e-113 0)
(0 -3.7689e-124 0)
(0 -1.54951e-131 0)
(0 -1.65279e-142 0)
(0 -5.32639e-150 0)
(0 -5.77761e-161 0)
(0 -1.83202e-168 0)
(0 -2.4434e-179 0)
(0 -6.29884e-187 0)
(0 -1.10909e-197 0)
(0 -2.16647e-205 0)
(0 -8.17482e-216 0)
(0 -7.47339e-224 0)
(0 -5.66251e-234 0)
(0 -2.58903e-242 0)
(0 -2.94427e-252 0)
(0 -9.01083e-261 0)
(0 -1.39418e-270 0)
(0 -3.15289e-279 0)
(0 -6.15893e-289 0)
(0 -1.10957e-297 0)
(0 -2.6115e-307 0)
(0 -3.92458e-316 0)
(0 -0 0)
(0 -0 0)
(0 0 0)
(0 0 0)
(0 0 0)
(0 0 0)
(0 0 0)
(0 0 0)
(0 0 0)
(0 0 0)
(0 0 0)
(0 0 0)
(0 0 0)
(0 0 0)
(0 0 0)
(0 0 0)
(0 0 0)
(0 0 0)
)
;

boundaryField
{
    inandouthalf11
    {
        type            cyclic;
    }
    inandouthalf12
    {
        type            cyclic;
    }
    inandouthalf21
    {
        type            cyclic;
    }
    inandouthalf22
    {
        type            cyclic;
    }
    inandouthalf31
    {
        type            cyclic;
    }
    inandouthalf32
    {
        type            cyclic;
    }
    inandouthalf41
    {
        type            cyclic;
    }
    inandouthalf42
    {
        type            cyclic;
    }
    top
    {
        type            symmetryPlane;
    }
    walls
    {
        type            zeroGradient;
    }
    frontAndBackPlanes
    {
        type            empty;
    }
}


// ************************************************************************* //
