/*--------------------------------*- C++ -*----------------------------------*\
| =========                 |                                                 |
| \\      /  F ield         | OpenFOAM: The Open Source CFD Toolbox           |
|  \\    /   O peration     | Version:  2.4.x                                 |
|   \\  /    A nd           | Web:      www.OpenFOAM.org                      |
|    \\/     M anipulation  |                                                 |
\*---------------------------------------------------------------------------*/
FoamFile
{
    version     2.0;
    format      ascii;
    class       volTensorField;
    location    "1.3";
    object      Taus;
}
// * * * * * * * * * * * * * * * * * * * * * * * * * * * * * * * * * * * * * //

dimensions      [0 2 -2 0 0 0 0];

internalField   nonuniform List<tensor> 
360
(
(0 0.0207273 0 0.0207273 -0.160385 0 0 0 0)
(0 0.000163206 0 0.000163206 0.0226943 0 0 0 0)
(0 0.000635878 0 0.000635878 -0.00222754 0 0 0 0)
(0 0.00118021 0 0.00118021 -0.00282149 0 0 0 0)
(-1.45825e-15 0.00173373 0 0.00173373 -0.00526816 0 0 0 0)
(-7.17814e-16 0.00227927 0 0.00227927 -0.00750478 0 0 0 0)
(-1.4142e-15 0.00281457 0 0.00281457 -0.00964876 0 0 0 0)
(0 0.00333892 0 0.00333892 -0.0116931 0 0 0 0)
(-1.3735e-15 0.00385451 0 0.00385451 -0.0136468 0 0 0 0)
(0 0.00435957 0 0.00435957 -0.0155324 0 0 0 0)
(-6.6762e-16 0.0048553 0 0.0048553 -0.0173317 0 0 0 0)
(0 0.00534388 0 0.00534388 -0.01903 0 0 0 0)
(-6.50244e-16 0.0058226 0 0.0058226 -0.0206703 0 0 0 0)
(0 0.00629322 0 0.00629322 -0.0222582 0 0 0 0)
(0 0.0067561 0 0.0067561 -0.0237729 0 0 0 0)
(0 0.0072113 0 0.0072113 -0.0252187 0 0 0 0)
(0 0.00765912 0 0.00765912 -0.0265985 0 0 0 0)
(-1.22264e-15 0.00810017 0 0.00810017 -0.0279145 0 0 0 0)
(0 0.00853461 0 0.00853461 -0.0291935 0 0 0 0)
(0 0.00896014 0 0.00896014 -0.0304284 0 0 0 0)
(0 0.00938227 0 0.00938227 -0.0316131 0 0 0 0)
(-1.16823e-15 0.00979575 0 0.00979575 -0.0327575 0 0 0 0)
(0 0.0102031 0 0.0102031 -0.033871 0 0 0 0)
(0 0.0106048 0 0.0106048 -0.0349317 0 0 0 0)
(0 0.0110006 0 0.0110006 -0.0359423 0 0 0 0)
(-5.59684e-16 0.0113911 0 0.0113911 -0.0369046 0 0 0 0)
(0 0.0117769 0 0.0117769 -0.0378438 0 0 0 0)
(0 0.0121545 0 0.0121545 -0.0387736 0 0 0 0)
(0 0.0125273 0 0.0125273 -0.0396803 0 0 0 0)
(0 0.0128958 0 0.0128958 -0.0405418 0 0 0 0)
(0 0.0132592 0 0.0132592 -0.0413835 0 0 0 0)
(0 0.0136147 0 0.0136147 -0.0421942 0 0 0 0)
(0 0.0139702 0 0.0139702 -0.0429974 0 0 0 0)
(0 0.0143135 0 0.0143135 -0.0437819 0 0 0 0)
(0 0.014657 0 0.014657 -0.044559 0 0 0 0)
(1.00968e-15 0.014993 0 0.014993 -0.0453056 0 0 0 0)
(0 0.0153257 0 0.0153257 -0.0460568 0 0 0 0)
(0 0.0156507 0 0.0156507 -0.0468225 0 0 0 0)
(0 0.0159679 0 0.0159679 -0.0475772 0 0 0 0)
(0 0.0162872 0 0.0162872 -0.0483236 0 0 0 0)
(0 0.0165932 0 0.0165932 -0.0490682 0 0 0 0)
(0 0.0168963 0 0.0168963 -0.0498124 0 0 0 0)
(9.30901e-16 0.0171976 0 0.0171976 -0.0505565 0 0 0 0)
(0 0.0174858 0 0.0174858 -0.0513165 0 0 0 0)
(0 0.017772 0 0.017772 -0.0520946 0 0 0 0)
(0 0.0180507 0 0.0180507 -0.052875 0 0 0 0)
(0 0.0183218 0 0.0183218 -0.0536554 0 0 0 0)
(0 0.0185925 0 0.0185925 -0.0544497 0 0 0 0)
(0 0.018851 0 0.018851 -0.0552924 0 0 0 0)
(0 0.0190976 0 0.0190976 -0.056177 0 0 0 0)
(8.21902e-16 0.0193444 0 0.0193444 -0.0570859 0 0 0 0)
(0 0.0195793 0 0.0195793 -0.0580062 0 0 0 0)
(0 0.0198077 0 0.0198077 -0.0589709 0 0 0 0)
(0 0.0200257 0 0.0200257 -0.0599598 0 0 0 0)
(0 0.0202387 0 0.0202387 -0.0610055 0 0 0 0)
(0 0.0204358 0 0.0204358 -0.0620892 0 0 0 0)
(0 0.0206294 0 0.0206294 -0.063238 0 0 0 0)
(0 0.0208074 0 0.0208074 -0.0644299 0 0 0 0)
(0 0.0209773 0 0.0209773 -0.0656749 0 0 0 0)
(0 0.02114 0 0.02114 -0.0669863 0 0 0 0)
(0 0.0212831 0 0.0212831 -0.0683568 0 0 0 0)
(0 0.0214212 0 0.0214212 -0.0698139 0 0 0 0)
(0 0.0215425 0 0.0215425 -0.0713267 0 0 0 0)
(0 0.0216555 0 0.0216555 -0.0729252 0 0 0 0)
(0 0.0217549 0 0.0217549 -0.0745905 0 0 0 0)
(0 0.0218472 0 0.0218472 -0.0763639 0 0 0 0)
(0 0.0219235 0 0.0219235 -0.0782244 0 0 0 0)
(0 0.0220009 0 0.0220009 -0.0802309 0 0 0 0)
(0 0.0220813 0 0.0220813 -0.0823069 0 0 0 0)
(0 0.0222526 0 0.0222526 -0.0847714 0 0 0 0)
(0 0.0225754 0 0.0225754 -0.087779 0 0 0 0)
(0 0.0232554 0 0.0232554 -0.0920916 0 0 0 0)
(0 0.0242544 0 0.0242544 -0.0972643 0 0 0 0)
(0 0.0250895 0 0.0250895 -0.102654 0 0 0 0)
(0 0.0241607 0 0.0241607 -0.102847 0 0 0 0)
(0 0.0223761 0 0.0223761 -0.10001 0 0 0 0)
(0 0.0220823 0 0.0220823 -0.103592 0 0 0 0)
(0 0.0202662 0 0.0202662 -0.0994896 0 0 0 0)
(0 0.0186688 0 0.0186688 -0.0934657 0 0 0 0)
(0 0.0183891 0 0.0183891 -0.0903587 0 0 0 0)
(0 0.0191415 0 0.0191415 -0.0896634 0 0 0 0)
(0 0.0204634 0 0.0204634 -0.0896677 0 0 0 0)
(0 0.0215955 0 0.0215955 -0.0889772 0 0 0 0)
(0 0.0220411 0 0.0220411 -0.0876693 0 0 0 0)
(0 0.0218951 0 0.0218951 -0.0860937 0 0 0 0)
(0 0.0214664 0 0.0214664 -0.0844079 0 0 0 0)
(0 0.0209905 0 0.0209905 -0.0826864 0 0 0 0)
(0 0.0205984 0 0.0205984 -0.0810014 0 0 0 0)
(0 0.0203294 0 0.0203294 -0.0793839 0 0 0 0)
(0 0.0201603 0 0.0201603 -0.0778205 0 0 0 0)
(0 0.0200402 0 0.0200402 -0.0762761 0 0 0 0)
(0 0.0199191 0 0.0199191 -0.0747212 0 0 0 0)
(0 0.0197677 0 0.0197677 -0.0731421 0 0 0 0)
(0 0.0195835 0 0.0195835 -0.0715454 0 0 0 0)
(0 0.0193789 0 0.0193789 -0.069942 0 0 0 0)
(0 0.0191689 0 0.0191689 -0.0683414 0 0 0 0)
(0 0.0189623 0 0.0189623 -0.0667478 0 0 0 0)
(0 0.0187612 0 0.0187612 -0.065161 0 0 0 0)
(0 0.018563 0 0.018563 -0.0635783 0 0 0 0)
(0 0.0183637 0 0.0183637 -0.061997 0 0 0 0)
(0 0.0181615 0 0.0181615 -0.0604159 0 0 0 0)
(0 0.0179561 0 0.0179561 -0.0588351 0 0 0 0)
(0 0.0177484 0 0.0177484 -0.0572546 0 0 0 0)
(0 0.0175395 0 0.0175395 -0.0556748 0 0 0 0)
(0 0.0173302 0 0.0173302 -0.0540955 0 0 0 0)
(0 0.0171206 0 0.0171206 -0.0525165 0 0 0 0)
(0 0.0169106 0 0.0169106 -0.0509374 0 0 0 0)
(0 0.0167003 0 0.0167003 -0.049358 0 0 0 0)
(0 0.0164898 0 0.0164898 -0.0477783 0 0 0 0)
(0 0.0162792 0 0.0162792 -0.0461981 0 0 0 0)
(0 0.0160688 0 0.0160688 -0.0446173 0 0 0 0)
(0 0.0158588 0 0.0158588 -0.0430358 0 0 0 0)
(0 0.0156491 0 0.0156491 -0.0414533 0 0 0 0)
(0 0.0154398 0 0.0154398 -0.0398695 0 0 0 0)
(0 0.0152306 0 0.0152306 -0.0382841 0 0 0 0)
(0 0.0150214 0 0.0150214 -0.0366967 0 0 0 0)
(0 0.0148122 0 0.0148122 -0.0351067 0 0 0 0)
(0 0.0146036 0 0.0146036 -0.0335135 0 0 0 0)
(0 0.0143968 0 0.0143968 -0.0319161 0 0 0 0)
(0 0.0141938 0 0.0141938 -0.0303131 0 0 0 0)
(0 0.0139967 0 0.0139967 -0.0287026 0 0 0 0)
(0 0.013805 0 0.013805 -0.0270826 0 0 0 0)
(0 0.0136145 0 0.0136145 -0.025452 0 0 0 0)
(0 0.0134151 0 0.0134151 -0.0238125 0 0 0 0)
(0 0.0131936 0 0.0131936 -0.022169 0 0 0 0)
(0 0.0129424 0 0.0129424 -0.0205257 0 0 0 0)
(0 0.012674 0 0.012674 -0.0188767 0 0 0 0)
(0 0.0124331 0 0.0124331 -0.0171928 0 0 0 0)
(0 0.0122884 0 0.0122884 -0.0154134 0 0 0 0)
(0 0.0123002 0 0.0123002 -0.0134342 0 0 0 0)
(0 0.0124684 0 0.0124684 -0.0111203 0 0 0 0)
(0 0.0126965 0 0.0126965 -0.00838414 0 0 0 0)
(0 0.0127998 0 0.0127998 -0.00536021 0 0 0 0)
(0 0.0125766 0 0.0125766 -0.00256637 0 0 0 0)
(0 0.0119047 0 0.0119047 -0.0007809 0 0 0 0)
(0 0.0108565 0 0.0108565 -0.000143898 0 0 0 0)
(0 0.00969659 0 0.00969659 -2.43944e-05 0 0 0 0)
(0 0.00884346 0 0.00884346 -7.54269e-06 0 0 0 0)
(0 0.00872836 0 0.00872836 -5.57214e-06 0 0 0 0)
(0 0.00842244 0 0.00842244 -5.60156e-06 0 0 0 0)
(0 0.00753002 0 0.00753002 -5.83748e-06 0 0 0 0)
(0 0.00644873 0 0.00644873 -7.68901e-06 0 0 0 0)
(0 0.00538176 0 0.00538176 -1.74713e-05 0 0 0 0)
(0 0.00422835 0 0.00422835 -2.27689e-05 0 0 0 0)
(0 0.00320232 0 0.00320232 -1.44547e-05 0 0 0 0)
(0 0.00223808 0 0.00223808 -9.15559e-06 0 0 0 0)
(0 0.00134888 0 0.00134888 -1.09895e-05 0 0 0 0)
(0 0.0005972 0 0.0005972 -9.60298e-06 0 0 0 0)
(0 0.000175969 0 0.000175969 -3.73466e-06 0 0 0 0)
(0 9.32364e-05 0 9.32364e-05 -1.01096e-06 0 0 0 0)
(0 0.000149982 0 0.000149982 -1.22971e-05 0 0 0 0)
(0 0.000205781 0 0.000205781 -2.27954e-05 0 0 0 0)
(0 0.00205278 0 0.00205278 -0.000126129 0 0 0 0)
(0 0.028521 0 0.028521 -0.00269736 0 0 0 0)
(0 0.0616827 0 0.0616827 -0.00905386 0 0 0 0)
(0 0.0836991 0 0.0836991 -0.0100244 0 0 0 0)
(0 0.0989761 0 0.0989761 -0.0100164 0 0 0 0)
(0 0.11535 0 0.11535 -0.0102981 0 0 0 0)
(0 0.120756 0 0.120756 -0.00982202 0 0 0 0)
(0 0.132062 0 0.132062 -0.0100939 0 0 0 0)
(0 0.1371 0 0.1371 -0.0101038 0 0 0 0)
(0 0.138127 0 0.138127 -0.00995537 0 0 0 0)
(0 0.144378 0 0.144378 -0.0103526 0 0 0 0)
(0 0.140695 0 0.140695 -0.0101256 0 0 0 0)
(0 0.146485 0 0.146485 -0.0106716 0 0 0 0)
(0 0.142453 0 0.142453 -0.0105534 0 0 0 0)
(0 0.145657 0 0.145657 -0.0109802 0 0 0 0)
(0 0.140317 0 0.140317 -0.0107913 0 0 0 0)
(0 0.144811 0 0.144811 -0.0114116 0 0 0 0)
(0 0.141592 0 0.141592 -0.0114217 0 0 0 0)
(0 0.139801 0 0.139801 -0.01153 0 0 0 0)
(0 0.141278 0 0.141278 -0.011949 0 0 0 0)
(0 0.13653 0 0.13653 -0.011829 0 0 0 0)
(0 0.139467 0 0.139467 -0.012403 0 0 0 0)
(0 0.134791 0 0.134791 -0.0122981 0 0 0 0)
(0 0.135936 0 0.135936 -0.012712 0 0 0 0)
(0 0.131162 0 0.131162 -0.0125881 0 0 0 0)
(0 0.134027 0 0.134027 -0.013229 0 0 0 0)
(0 0.129811 0 0.129811 -0.013147 0 0 0 0)
(0 0.128338 0 0.128338 -0.0133375 0 0 0 0)
(0 0.128646 0 0.128646 -0.0137437 0 0 0 0)
(0 0.124618 0 0.124618 -0.0136627 0 0 0 0)
(0 0.125692 0 0.125692 -0.0141522 0 0 0 0)
(0 0.121519 0 0.121519 -0.0140411 0 0 0 0)
(0 0.121964 0 0.121964 -0.0144544 0 0 0 0)
(0 0.118249 0 0.118249 -0.0143785 0 0 0 0)
(0 0.119497 0 0.119497 -0.014909 0 0 0 0)
(0 0.115964 0 0.115964 -0.0148208 0 0 0 0)
(0 0.115478 0 0.115478 -0.0150851 0 0 0 0)
(0 0.112005 0 0.112005 -0.0149592 0 0 0 0)
(0 0.113589 0 0.113589 -0.0155327 0 0 0 0)
(0 0.111175 0 0.111175 -0.0155018 0 0 0 0)
(0 0.109362 0 0.109362 -0.015519 0 0 0 0)
(0 0.109334 0 0.109334 -0.0157856 0 0 0 0)
(0 0.106666 0 0.106666 -0.0156227 0 0 0 0)
(0 0.107218 0 0.107218 -0.0159156 0 0 0 0)
(0 0.105437 0 0.105437 -0.0158301 0 0 0 0)
(0 0.106258 0 0.106258 -0.0160952 0 0 0 0)
(0 0.104401 0 0.104401 -0.0158978 0 0 0 0)
(0 0.104284 0 0.104284 -0.0159025 0 0 0 0)
(0 0.10279 0 0.10279 -0.0156629 0 0 0 0)
(0 0.104677 0 0.104677 -0.0159601 0 0 0 0)
(-1.62885e-14 0.105 0 0.105 -0.0160042 0 0 0 0)
(0 0.104216 0 0.104216 -0.0157999 0 0 0 0)
(0 0.101633 0 0.101633 -0.0152912 0 0 0 0)
(1.62623e-14 0.102738 0 0.102738 -0.0154449 0 0 0 0)
(0 0.105782 0 0.105782 -0.0159521 0 0 0 0)
(-1.63212e-14 0.104842 0 0.104842 -0.0157201 0 0 0 0)
(0 0.102106 0 0.102106 -0.0151592 0 0 0 0)
(3.21612e-14 0.102414 0 0.102414 -0.0151648 0 0 0 0)
(0 0.104313 0 0.104313 -0.0154566 0 0 0 0)
(0 0.104208 0 0.104208 -0.0153806 0 0 0 0)
(0 0.102692 0 0.102692 -0.0150363 0 0 0 0)
(1.55499e-14 0.102627 0 0.102627 -0.0149781 0 0 0 0)
(0 0.104643 0 0.104643 -0.0153 0 0 0 0)
(0 0.10324 0 0.10324 -0.0149982 0 0 0 0)
(0 0.101768 0 0.101768 -0.0146789 0 0 0 0)
(0 0.104135 0 0.104135 -0.0150849 0 0 0 0)
(0 0.104794 0 0.104794 -0.0151819 0 0 0 0)
(-2.84882e-14 0.102308 0 0.102308 -0.014701 0 0 0 0)
(0 0.102073 0 0.102073 -0.0146591 0 0 0 0)
(-2.74714e-14 0.10334 0 0.10334 -0.0148943 0 0 0 0)
(0 0.102664 0 0.102664 -0.0147665 0 0 0 0)
(-2.62616e-14 0.102956 0 0.102956 -0.0148418 0 0 0 0)
(0 0.103017 0 0.103017 -0.0148879 0 0 0 0)
(0 0.101765 0 0.101765 -0.0147018 0 0 0 0)
(0 0.101589 0 0.101589 -0.0147248 0 0 0 0)
(0 0.101772 0 0.101772 -0.0148211 0 0 0 0)
(2.30888e-14 0.102458 0 0.102458 -0.0150193 0 0 0 0)
(0 0.102069 0 0.102069 -0.0150478 0 0 0 0)
(0 0.100926 0 0.100926 -0.0149383 0 0 0 0)
(0 0.100365 0 0.100365 -0.0149433 0 0 0 0)
(0 0.101452 0 0.101452 -0.0152727 0 0 0 0)
(0 0.101648 0 0.101648 -0.0154585 0 0 0 0)
(0 0.099969 0 0.099969 -0.0152848 0 0 0 0)
(0 0.0989522 0 0.0989522 -0.0152352 0 0 0 0)
(0 0.0999955 0 0.0999955 -0.0156214 0 0 0 0)
(0 0.0983556 0 0.0983556 -0.0154904 0 0 0 0)
(0 0.0950014 0 0.0950014 -0.014997 0 0 0 0)
(0 0.0943836 0 0.0943836 -0.0150834 0 0 0 0)
(0 0.0921031 0 0.0921031 -0.0148341 0 0 0 0)
(0 0.0871225 0 0.0871225 -0.0140353 0 0 0 0)
(0 0.0827611 0 0.0827611 -0.0134005 0 0 0 0)
(-1.19328e-14 0.0766332 0 0.0766332 -0.0124215 0 0 0 0)
(1.09588e-14 0.067878 0 0.067878 -0.0109375 0 0 0 0)
(0 0.0577589 0 0.0577589 -0.00925069 0 0 0 0)
(0 0.0444707 0 0.0444707 -0.006898 0 0 0 0)
(-7.02783e-15 0.035438 0 0.035438 -0.00537186 0 0 0 0)
(0 0 0 0 -0 0 0 0 0)
(0 0 0 0 -0 0 0 0 0)
(0 0 0 0 -0 0 0 0 0)
(0 0 0 0 0 0 0 0 0)
(0 0 0 0 -0 0 0 0 0)
(0 0 0 0 0 0 0 0 0)
(0 0 0 0 -0 0 0 0 0)
(0 0 0 0 0 0 0 0 0)
(0 0 0 0 -0 0 0 0 0)
(0 0 0 0 0 0 0 0 0)
(0 0 0 0 -0 0 0 0 0)
(0 0 0 0 0 0 0 0 0)
(0 0 0 0 -0 0 0 0 0)
(0 0 0 0 0 0 0 0 0)
(0 0 0 0 -0 0 0 0 0)
(0 0 0 0 0 0 0 0 0)
(0 0 0 0 -0 0 0 0 0)
(0 0 0 0 0 0 0 0 0)
(0 0 0 0 -0 0 0 0 0)
(0 0 0 0 0 0 0 0 0)
(0 0 0 0 -0 0 0 0 0)
(0 0 0 0 0 0 0 0 0)
(0 0 0 0 0 0 0 0 0)
(0 0 0 0 -0 0 0 0 0)
(0 0 0 0 0 0 0 0 0)
(0 0 0 0 -0 0 0 0 0)
(0 0 0 0 0 0 0 0 0)
(0 0 0 0 -0 0 0 0 0)
(0 0 0 0 0 0 0 0 0)
(0 0 0 0 -0 0 0 0 0)
(0 0 0 0 0 0 0 0 0)
(0 0 0 0 -0 0 0 0 0)
(0 0 0 0 0 0 0 0 0)
(0 0 0 0 -0 0 0 0 0)
(0 0 0 0 0 0 0 0 0)
(0 -0 0 -0 -0 0 0 0 0)
(0 0 0 0 0 0 0 0 0)
(0 -0 0 -0 -0 0 0 0 0)
(0 0 0 0 0 0 0 0 0)
(0 -0 0 -0 -0 0 0 0 0)
(0 0 0 0 0 0 0 0 0)
(0 -0 0 -0 -0 0 0 0 0)
(0 0 0 0 0 0 0 0 0)
(0 -0 0 -0 -0 0 0 0 0)
(0 0 0 0 0 0 0 0 0)
(0 -0 0 -0 -0 0 0 0 0)
(0 0 0 0 0 0 0 0 0)
(0 -0 0 -0 -0 0 0 0 0)
(0 0 0 0 0 0 0 0 0)
(0 -0 0 -0 -0 0 0 0 0)
(0 0 0 0 0 0 0 0 0)
(0 -0 0 -0 -0 0 0 0 0)
(0 0 0 0 0 0 0 0 0)
(0 -0 0 -0 -0 0 0 0 0)
(0 0 0 0 0 0 0 0 0)
(0 -0 0 -0 -0 0 0 0 0)
(0 0 0 0 0 0 0 0 0)
(0 -0 0 -0 -0 0 0 0 0)
(0 0 0 0 0 0 0 0 0)
(0 -0 0 -0 -0 0 0 0 0)
(0 0 0 0 0 0 0 0 0)
(0 -0 0 -0 -0 0 0 0 0)
(0 0 0 0 0 0 0 0 0)
(0 -0 0 -0 -0 0 0 0 0)
(0 0 0 0 0 0 0 0 0)
(0 -0 0 -0 -0 0 0 0 0)
(0 0 0 0 0 0 0 0 0)
(0 -0 0 -0 -0 0 0 0 0)
(0 0 0 0 0 0 0 0 0)
(0 -0 0 -0 -0 0 0 0 0)
(0 0 0 0 0 0 0 0 0)
(0 -0 0 -0 -0 0 0 0 0)
(0 0 0 0 0 0 0 0 0)
(0 -0 0 -0 -0 0 0 0 0)
(0 0 0 0 0 0 0 0 0)
(0 -0 0 -0 -0 0 0 0 0)
(0 0 0 0 0 0 0 0 0)
(0 -0 0 -0 -0 0 0 0 0)
(0 0 0 0 0 0 0 0 0)
(0 -0 0 -0 -0 0 0 0 0)
(0 0 0 0 0 0 0 0 0)
(0 -0 0 -0 -0 0 0 0 0)
(0 0 0 0 0 0 0 0 0)
(0 -0 0 -0 -0 0 0 0 0)
(0 0 0 0 0 0 0 0 0)
(0 -0 0 -0 -0 0 0 0 0)
(0 0 0 0 0 0 0 0 0)
(0 -0 0 -0 -0 0 0 0 0)
(0 0 0 0 0 0 0 0 0)
(0 -0 0 -0 -0 0 0 0 0)
(0 0 0 0 0 0 0 0 0)
(0 -0 0 -0 -0 0 0 0 0)
(0 -0 0 -0 -0 0 0 0 0)
(0 0 0 0 -0 0 0 0 0)
(0 0 0 0 -0 0 0 0 0)
(0 0 0 0 -0 0 0 0 0)
(0 0 0 0 -0 0 0 0 0)
(0 0 0 0 -0 0 0 0 0)
(0 -0 0 -0 -0 0 0 0 0)
(0 -0 0 -0 -0 0 0 0 0)
(0 0 0 0 -0 0 0 0 0)
(0 -0 0 -0 -0 0 0 0 0)
(0 0 0 0 -0 0 0 0 0)
(0 0 0 0 -0 0 0 0 0)
(0 -0 0 -0 0 0 0 0 0)
(0 -0 0 -0 0 0 0 0 0)
(0 -0 0 -0 0 0 0 0 0)
(0 -0 0 -0 0 0 0 0 0)
(0 -0 0 -0 0 0 0 0 0)
(0 -0 0 -0 0 0 0 0 0)
(0 -0 0 -0 0 0 0 0 0)
(0 -0 0 -0 0 0 0 0 0)
)
;

boundaryField
{
    inandouthalf11
    {
        type            cyclic;
    }
    inandouthalf12
    {
        type            cyclic;
    }
    inandouthalf21
    {
        type            cyclic;
    }
    inandouthalf22
    {
        type            cyclic;
    }
    inandouthalf31
    {
        type            cyclic;
    }
    inandouthalf32
    {
        type            cyclic;
    }
    inandouthalf41
    {
        type            cyclic;
    }
    inandouthalf42
    {
        type            cyclic;
    }
    top
    {
        type            symmetryPlane;
    }
    walls
    {
        type            zeroGradient;
    }
    frontAndBackPlanes
    {
        type            empty;
    }
}


// ************************************************************************* //
