/*--------------------------------*- C++ -*----------------------------------*\
| =========                 |                                                 |
| \\      /  F ield         | OpenFOAM: The Open Source CFD Toolbox           |
|  \\    /   O peration     | Version:  2.4.x                                 |
|   \\  /    A nd           | Web:      www.OpenFOAM.org                      |
|    \\/     M anipulation  |                                                 |
\*---------------------------------------------------------------------------*/
FoamFile
{
    version     2.0;
    format      ascii;
    class       volScalarField;
    location    "1.3";
    object      tmf;
}
// * * * * * * * * * * * * * * * * * * * * * * * * * * * * * * * * * * * * * //

dimensions      [0 0 0 0 0 0 0];

internalField   nonuniform List<scalar> 
360
(
0.999203
0.999203
0.999203
0.999203
0.999203
0.999203
0.999203
0.999203
0.999203
0.999203
0.999203
0.999203
0.999203
0.999203
0.999203
0.999203
0.999203
0.999203
0.999203
0.999203
0.999203
0.999203
0.999203
0.999203
0.999203
0.999203
0.999203
0.999203
0.999203
0.999203
0.999203
0.999203
0.999203
0.999203
0.999203
0.999203
0.999203
0.999203
0.999203
0.999203
0.999203
0.999203
0.999203
0.999203
0.999203
0.999203
0.999203
0.999203
0.999203
0.999203
0.999203
0.999203
0.999203
0.999203
0.999203
0.999202
0.999202
0.999202
0.999202
0.999202
0.999202
0.999202
0.999202
0.999201
0.999201
0.999201
0.999201
0.999201
0.999201
0.9992
0.9992
0.9992
0.999199
0.999199
0.999199
0.999198
0.999198
0.999197
0.999197
0.999197
0.999197
0.999197
0.999197
0.999197
0.999197
0.999196
0.999196
0.999196
0.999195
0.999195
0.999195
0.999195
0.999195
0.999194
0.999194
0.999194
0.999193
0.999193
0.999193
0.999193
0.999192
0.999192
0.999192
0.999191
0.999191
0.999191
0.99919
0.99919
0.99919
0.999189
0.999189
0.999189
0.999188
0.999188
0.999187
0.999187
0.999186
0.999186
0.999185
0.999185
0.999184
0.999184
0.999183
0.999183
0.999182
0.999182
0.999181
0.99918
0.99918
0.999179
0.999178
0.999178
0.999178
0.999177
0.999176
0.998769
0.997181
0.992884
0.987433
0.984294
0.983251
0.982807
0.982169
0.980456
0.979924
0.981537
0.983173
0.985821
0.989256
0.989725
0.988481
0.9485
0.819578
0.863626
0.896255
0.915683
0.931247
0.942906
0.952722
0.960489
0.967204
0.972739
0.977667
0.981978
0.985805
0.988738
0.990842
0.992233
0.993238
0.993955
0.994544
0.995006
0.995414
0.995744
0.996033
0.99625
0.996409
0.996467
0.996419
0.996233
0.996196
0.996188
0.996182
0.996176
0.99617
0.996164
0.996159
0.996153
0.996148
0.996143
0.996138
0.996132
0.996128
0.996122
0.996118
0.996112
0.996108
0.996102
0.996097
0.996092
0.996087
0.996082
0.996076
0.99607
0.996064
0.996058
0.996051
0.996045
0.996038
0.99603
0.996023
0.996015
0.996007
0.995999
0.99599
0.995981
0.995972
0.995962
0.995952
0.995941
0.995931
0.99592
0.995908
0.995896
0.995883
0.995871
0.995857
0.995843
0.995829
0.995814
0.995798
0.995782
0.995765
0.995746
0.995728
0.995708
0.995688
0.995666
0.995644
0.99562
0.995596
0.99557
0.995545
0.995518
0.995492
0.995466
0.995442
0.995422
0.995398
0.995021
0.994191
0.994191
0.994191
0.994191
0.994191
0.994191
0.994191
0.994191
0.994191
0.994191
0.994191
0.994191
0.994191
0.994191
0.994191
0.994191
0.994191
0.994191
0.994191
0.994191
0.994191
0.994191
0.994191
0.994191
0.994191
0.994191
0.994191
0.994191
0.994191
0.994191
0.994191
0.994191
0.994191
0.994191
0.994191
0.994191
0.994191
0.994191
0.994191
0.994191
0.994191
0.994191
0.994191
0.994191
0.994191
0.994191
0.994191
0.994191
0.994191
0.994191
0.994191
0.994191
0.994191
0.994191
0.994191
0.994191
0.994191
0.994191
0.994191
0.994191
0.994191
0.994191
0.994191
0.994191
0.994191
0.994191
0.994191
0.994191
0.994191
0.994191
0.994191
0.994191
0.994191
0.994191
0.994191
0.994191
0.994191
0.994191
0.994191
0.994191
0.994191
0.994191
0.994191
0.994191
0.994191
0.994191
0.994191
0.994191
0.994191
0.994191
0.994191
0.994191
0.994191
0.994191
0.994191
0.994191
0.994191
0.994191
0.994191
0.994191
0.994191
0.994191
0.994191
0.994191
0.994191
0.994191
0.994191
0.994191
0.994176
0.993246
)
;

boundaryField
{
    inandouthalf11
    {
        type            cyclic;
    }
    inandouthalf12
    {
        type            cyclic;
    }
    inandouthalf21
    {
        type            cyclic;
    }
    inandouthalf22
    {
        type            cyclic;
    }
    inandouthalf31
    {
        type            cyclic;
    }
    inandouthalf32
    {
        type            cyclic;
    }
    inandouthalf41
    {
        type            cyclic;
    }
    inandouthalf42
    {
        type            cyclic;
    }
    top
    {
        type            symmetryPlane;
    }
    walls
    {
        type            calculated;
        value           uniform 0;
    }
    frontAndBackPlanes
    {
        type            empty;
    }
}


// ************************************************************************* //
