/*--------------------------------*- C++ -*----------------------------------*\
| =========                 |                                                 |
| \\      /  F ield         | OpenFOAM: The Open Source CFD Toolbox           |
|  \\    /   O peration     | Version:  2.4.x                                 |
|   \\  /    A nd           | Web:      www.OpenFOAM.org                      |
|    \\/     M anipulation  |                                                 |
\*---------------------------------------------------------------------------*/
FoamFile
{
    version     2.0;
    format      ascii;
    class       volVectorField;
    location    "1.3";
    object      Ub_0;
}
// * * * * * * * * * * * * * * * * * * * * * * * * * * * * * * * * * * * * * //

dimensions      [0 1 -1 0 0 0 0];

internalField   nonuniform List<vector> 
360
(
(0.000104648 8.19093e-14 0)
(0.000104827 2.46203e-13 0)
(0.000104828 4.11404e-13 0)
(0.000104828 5.77111e-13 0)
(0.000104828 7.42857e-13 0)
(0.000104829 9.08654e-13 0)
(0.000104829 1.07432e-12 0)
(0.00010483 1.24012e-12 0)
(0.00010483 1.40579e-12 0)
(0.000104831 1.57115e-12 0)
(0.000104831 1.73627e-12 0)
(0.000104831 1.90099e-12 0)
(0.000104832 2.06555e-12 0)
(0.000104833 2.2299e-12 0)
(0.000104834 2.3936e-12 0)
(0.000104835 2.55724e-12 0)
(0.000104836 2.72049e-12 0)
(0.000104837 2.88349e-12 0)
(0.000104838 3.04621e-12 0)
(0.000104839 3.20841e-12 0)
(0.00010484 3.37002e-12 0)
(0.000104842 3.53118e-12 0)
(0.000104844 3.69162e-12 0)
(0.000104846 3.85153e-12 0)
(0.000104847 4.01098e-12 0)
(0.000104849 4.16954e-12 0)
(0.000104851 4.3273e-12 0)
(0.000104853 4.48453e-12 0)
(0.000104856 4.64109e-12 0)
(0.000104859 4.79704e-12 0)
(0.000104861 4.95218e-12 0)
(0.000104865 5.1067e-12 0)
(0.000104868 5.26035e-12 0)
(0.000104872 5.41309e-12 0)
(0.000104876 5.56477e-12 0)
(0.00010488 5.71572e-12 0)
(0.000104884 5.86624e-12 0)
(0.00010489 6.01608e-12 0)
(0.000104896 6.16469e-12 0)
(0.000104901 6.31232e-12 0)
(0.000104908 6.45923e-12 0)
(0.000104915 6.60501e-12 0)
(0.000104922 6.74974e-12 0)
(0.000104931 6.89361e-12 0)
(0.00010494 7.03664e-12 0)
(0.00010495 7.17887e-12 0)
(0.00010496 7.31991e-12 0)
(0.000104971 7.45993e-12 0)
(0.000104983 7.59877e-12 0)
(0.000104997 7.73665e-12 0)
(0.000105011 7.87354e-12 0)
(0.000105027 8.00933e-12 0)
(0.000105044 8.14374e-12 0)
(0.000105063 8.27728e-12 0)
(0.000105082 8.40957e-12 0)
(0.000105104 8.54041e-12 0)
(0.000105127 8.67027e-12 0)
(0.000105153 8.79908e-12 0)
(0.00010518 8.9267e-12 0)
(0.000105209 9.05323e-12 0)
(0.000105242 9.17866e-12 0)
(0.000105277 9.30272e-12 0)
(0.000105315 9.42523e-12 0)
(0.000105355 9.54627e-12 0)
(0.0001054 9.66597e-12 0)
(0.000105448 9.78434e-12 0)
(0.0001055 9.90142e-12 0)
(0.000105557 1.0017e-11 0)
(0.000105618 1.0131e-11 0)
(0.000105684 1.02436e-11 0)
(0.000105755 1.03549e-11 0)
(0.000105834 1.0464e-11 0)
(0.000105917 1.06504e-11 0)
(0.000106009 7.28851e-15 0)
(0.000106108 1.37666e-10 0)
(0.000106216 -5.33272e-10 0)
(0.000106332 2.21188e-09 0)
(0.000106458 -9.32931e-09 0)
(0.0001066 1.66862e-07 0)
(0.000106873 1.14351e-06 0)
(0.000107422 3.1279e-06 0)
(0.000108113 5.48968e-06 0)
(0.000108749 7.56666e-06 0)
(0.000109291 9.20011e-06 0)
(0.000109781 1.05507e-05 0)
(0.000110257 1.18027e-05 0)
(0.000110748 1.30796e-05 0)
(0.000111267 1.44425e-05 0)
(0.000111817 1.5899e-05 0)
(0.00011239 1.742e-05 0)
(0.000112975 1.89655e-05 0)
(0.000113567 2.05081e-05 0)
(0.000114165 2.2041e-05 0)
(0.000114774 2.35742e-05 0)
(0.000115398 2.51244e-05 0)
(0.000116044 2.67075e-05 0)
(0.000116715 2.83346e-05 0)
(0.000117415 3.00118e-05 0)
(0.000118145 3.17414e-05 0)
(0.000118907 3.35246e-05 0)
(0.000119704 3.53622e-05 0)
(0.000120535 3.72551e-05 0)
(0.000121403 3.92043e-05 0)
(0.00012231 4.12102e-05 0)
(0.000123256 4.32733e-05 0)
(0.000124245 4.53939e-05 0)
(0.000125278 4.75727e-05 0)
(0.000126358 4.98111e-05 0)
(0.000127488 5.2111e-05 0)
(0.000128673 5.44752e-05 0)
(0.000129916 5.69072e-05 0)
(0.000131223 5.94108e-05 0)
(0.000132601 6.19906e-05 0)
(0.000134056 6.46518e-05 0)
(0.000135597 6.74e-05 0)
(0.000137232 7.02412e-05 0)
(0.000138973 7.31813e-05 0)
(0.00014083 7.62254e-05 0)
(0.000142815 7.93774e-05 0)
(0.000144942 8.26394e-05 0)
(0.000147225 8.6014e-05 0)
(0.000149684 8.95071e-05 0)
(0.000152352 9.3134e-05 0)
(0.000155275 9.69235e-05 0)
(0.000158519 0.000100915 0)
(0.000162156 0.000105138 0)
(0.000166226 0.00010957 0)
(0.000170683 0.000114087 0)
(0.00017536 0.000118449 0)
(0.000180057 0.000122401 0)
(0.000184759 0.000125831 0)
(0.000189911 0.000128875 0)
(0.000196913 0.000131935 0)
(0.000210386 0.000135794 0)
(0.000252043 0.000141817 0)
(0.000487183 0.000151001 0)
(0.00276645 0.000162915 0)
(0.0201599 0.000179081 0)
(0.0738738 0.000206817 0)
(0.15398 0.000245612 0)
(0.24206 0.000288831 0)
(0.331846 0.000342946 0)
(0.4221 0.000428582 0)
(0.513786 0.000706603 0)
(0.604426 0.00101007 0)
(0.686872 0.00111542 0)
(0.758812 0.00128859 0)
(0.820174 0.00158835 0)
(0.863818 0.00199027 0)
(0.893734 0.00225014 0)
(0.926772 0.00200424 0)
(0.963798 0.00264397 0)
(1.00949 0.00161723 0)
(1.05785 -0.00131482 0)
(1.10501 0.00127223 0)
(1.14875 -0.00118434 0)
(1.18808 0.00112815 0)
(1.22283 -0.00104635 0)
(1.25291 0.000989021 0)
(1.27854 -0.000913464 0)
(1.29997 0.000858176 0)
(1.31747 -0.000789618 0)
(1.33168 0.000738186 0)
(1.34302 -0.000676816 0)
(1.35224 0.000630025 0)
(1.35976 -0.000575739 0)
(1.36609 0.000533873 0)
(1.3715 -0.000486272 0)
(1.37624 0.000449341 0)
(1.38046 -0.000408022 0)
(1.38421 0.000375795 0)
(1.38763 -0.000340144 0)
(1.39071 0.000312283 0)
(1.39353 -0.000281743 0)
(1.39609 0.000257856 0)
(1.39845 -0.000231865 0)
(1.4006 0.000211568 0)
(1.40258 -0.000189582 0)
(1.4044 0.000172435 0)
(1.40608 -0.000153938 0)
(1.40762 0.000139574 0)
(1.40904 -0.000124115 0)
(1.41035 0.000112165 0)
(1.41156 -9.93143e-05 0)
(1.41267 8.94423e-05 0)
(1.4137 -7.88173e-05 0)
(1.41465 7.07172e-05 0)
(1.41552 -6.1991e-05 0)
(1.41633 5.53954e-05 0)
(1.41708 -4.82608e-05 0)
(1.41777 4.29315e-05 0)
(1.4184 -3.71464e-05 0)
(1.41899 3.28737e-05 0)
(1.41953 -2.82018e-05 0)
(1.42003 2.48034e-05 0)
(1.4205 -2.1054e-05 0)
(1.42092 1.8373e-05 0)
(1.42132 -1.5384e-05 0)
(1.42168 1.32855e-05 0)
(1.42202 -1.09125e-05 0)
(1.42233 9.28594e-06 0)
(1.42262 -7.57785e-06 0)
(1.42289 6.45982e-06 0)
(1.42315 -5.1031e-06 0)
(1.42339 4.23914e-06 0)
(1.42361 -3.16107e-06 0)
(1.42382 2.49491e-06 0)
(1.42402 -1.6563e-06 0)
(1.4242 1.15374e-06 0)
(1.42437 -5.004e-07 0)
(1.42453 1.28123e-07 0)
(1.42467 3.65544e-07 0)
(1.42481 -6.32197e-07 0)
(1.42493 1.0002e-06 0)
(1.42504 -1.18184e-06 0)
(1.42515 1.44371e-06 0)
(1.42524 -1.55584e-06 0)
(1.42533 1.73443e-06 0)
(1.42541 -1.7935e-06 0)
(1.42548 1.90478e-06 0)
(1.42555 -1.92723e-06 0)
(1.42561 1.97645e-06 0)
(1.42566 -1.95833e-06 0)
(1.42571 1.9733e-06 0)
(1.42575 -1.93108e-06 0)
(1.42579 1.91445e-06 0)
(1.42583 -1.85377e-06 0)
(1.42586 1.81357e-06 0)
(1.42588 -1.7405e-06 0)
(1.42591 1.68342e-06 0)
(1.42593 -1.60247e-06 0)
(1.42595 1.53452e-06 0)
(1.42597 -1.44947e-06 0)
(1.42598 1.37488e-06 0)
(1.42599 -1.2889e-06 0)
(1.426 1.21165e-06 0)
(1.42601 -1.12704e-06 0)
(1.42602 1.04975e-06 0)
(1.42603 -9.68396e-07 0)
(1.42604 8.93534e-07 0)
(1.42604 -8.16927e-07 0)
(1.42605 7.45971e-07 0)
(1.42605 -6.74959e-07 0)
(1.42605 6.09072e-07 0)
(1.42606 -5.44359e-07 0)
(1.42606 4.84333e-07 0)
(1.42606 -4.26244e-07 0)
(1.42606 3.72518e-07 0)
(1.42606 -3.21052e-07 0)
(1.42606 2.73819e-07 0)
(1.42606 -2.2898e-07 0)
(1.42606 1.87928e-07 0)
(1.42607 -1.49626e-07 0)
(1.42607 1.14664e-07 0)
(1.42607 -8.24095e-08 0)
(1.42607 5.31807e-08 0)
(1.42607 -2.65378e-08 0)
(1.42607 2.62388e-09 0)
(1.42607 1.88961e-08 0)
(1.42607 -3.79862e-08 0)
(1.42607 5.49059e-08 0)
(1.42607 -6.96847e-08 0)
(1.42607 8.25342e-08 0)
(1.42607 -9.3522e-08 0)
(1.42607 1.02828e-07 0)
(1.42607 -1.1054e-07 0)
(1.42607 1.16815e-07 0)
(1.42607 -1.21745e-07 0)
(1.42607 1.25455e-07 0)
(1.42607 -1.27978e-07 0)
(1.42607 1.2957e-07 0)
(1.42607 -1.3026e-07 0)
(1.42607 1.30143e-07 0)
(1.42607 -1.293e-07 0)
(1.42607 1.27826e-07 0)
(1.42607 -1.25794e-07 0)
(1.42607 1.23287e-07 0)
(1.42607 -1.20369e-07 0)
(1.42607 1.17109e-07 0)
(1.42607 -1.13562e-07 0)
(1.42607 1.09787e-07 0)
(1.42607 -1.05828e-07 0)
(1.42607 1.01736e-07 0)
(1.42607 -9.75472e-08 0)
(1.42607 9.33032e-08 0)
(1.42607 -8.90329e-08 0)
(1.42607 8.47696e-08 0)
(1.42607 -8.05358e-08 0)
(1.42607 7.63576e-08 0)
(1.42607 -7.22519e-08 0)
(1.42607 6.82386e-08 0)
(1.42607 -6.43298e-08 0)
(1.42607 6.05399e-08 0)
(1.42607 -5.6877e-08 0)
(1.42607 5.33511e-08 0)
(1.42607 -4.9967e-08 0)
(1.42607 4.67307e-08 0)
(1.42607 -4.36449e-08 0)
(1.42607 4.07122e-08 0)
(1.42607 -3.79333e-08 0)
(1.42607 3.53086e-08 0)
(1.42607 -3.28372e-08 0)
(1.42607 3.0518e-08 0)
(1.42607 -2.83487e-08 0)
(1.42607 2.63272e-08 0)
(1.42607 -2.44505e-08 0)
(1.42607 2.27157e-08 0)
(1.42607 -2.11195e-08 0)
(1.42607 1.96587e-08 0)
(1.42607 -1.83297e-08 0)
(1.42607 1.49321e-08 0)
(1.42607 -1.35053e-08 0)
(1.42607 1.21999e-08 0)
(1.42607 -1.10076e-08 0)
(1.42607 9.92035e-09 0)
(1.42607 -8.93076e-09 0)
(1.42607 8.03134e-09 0)
(1.42607 -7.21554e-09 0)
(1.42607 6.4765e-09 0)
(1.42607 -5.80847e-09 0)
(1.42607 5.20515e-09 0)
(1.42607 -4.66155e-09 0)
(1.42607 4.16639e-09 0)
(1.42607 -3.69839e-09 0)
(1.42607 3.25688e-09 0)
(1.42607 -2.843e-09 0)
(1.42607 2.45579e-09 0)
(1.42607 -2.09677e-09 0)
(1.42607 1.76452e-09 0)
(1.42607 -1.46134e-09 0)
(1.42607 1.18435e-09 0)
(1.42607 -9.38084e-10 0)
(1.42607 7.17121e-10 0)
(1.42607 -5.28717e-10 0)
(1.42607 3.64609e-10 0)
(1.42607 -2.35035e-10 0)
(1.42607 1.2865e-10 0)
(1.42607 -5.89567e-11 0)
(1.42607 1.13665e-11 0)
(1.42607 -2.92865e-12 0)
(1.42607 -2.64784e-12 0)
(1.42607 -2.89553e-12 0)
(1.42607 -3.15256e-12 0)
(1.42607 -3.41036e-12 0)
(1.42607 -3.77155e-12 0)
(1.42607 -4.21005e-12 0)
(1.42607 -4.62495e-12 0)
(1.42607 -4.97668e-12 0)
(1.42607 -5.34766e-12 0)
(1.42607 -5.68498e-12 0)
(1.42607 -5.91529e-12 0)
(1.42607 -6.03682e-12 0)
(1.42607 -6.35555e-12 0)
(1.42607 -6.75817e-12 0)
(1.42607 -6.91961e-12 0)
(1.42607 -6.76594e-12 0)
(1.42607 -6.48901e-12 0)
(1.42607 -6.11474e-12 0)
(1.42607 -5.60285e-12 0)
(1.42607 -2.71075e-12 0)
)
;

boundaryField
{
    inandouthalf11
    {
        type            cyclic;
    }
    inandouthalf12
    {
        type            cyclic;
    }
    inandouthalf21
    {
        type            cyclic;
    }
    inandouthalf22
    {
        type            cyclic;
    }
    inandouthalf31
    {
        type            cyclic;
    }
    inandouthalf32
    {
        type            cyclic;
    }
    inandouthalf41
    {
        type            cyclic;
    }
    inandouthalf42
    {
        type            cyclic;
    }
    top
    {
        type            symmetryPlane;
    }
    walls
    {
        type            fixedValue;
        value           uniform (0 0 0);
    }
    frontAndBackPlanes
    {
        type            empty;
    }
}


// ************************************************************************* //
