/*--------------------------------*- C++ -*----------------------------------*\
| =========                 |                                                 |
| \\      /  F ield         | OpenFOAM: The Open Source CFD Toolbox           |
|  \\    /   O peration     | Version:  2.4.x                                 |
|   \\  /    A nd           | Web:      www.OpenFOAM.org                      |
|    \\/     M anipulation  |                                                 |
\*---------------------------------------------------------------------------*/
FoamFile
{
    version     2.0;
    format      ascii;
    class       volScalarField;
    location    "4.3";
    object      alpha;
}
// * * * * * * * * * * * * * * * * * * * * * * * * * * * * * * * * * * * * * //

dimensions      [0 0 0 0 0 0 0];

internalField   nonuniform List<scalar> 
360
(
0.610411
0.610972
0.611123
0.61108
0.61103
0.610999
0.610972
0.610945
0.61092
0.610894
0.610866
0.610838
0.610809
0.610781
0.610752
0.610723
0.610693
0.610663
0.610632
0.610601
0.610571
0.61054
0.61051
0.61048
0.61045
0.610421
0.610391
0.61036
0.610327
0.610291
0.610249
0.6102
0.610146
0.61009
0.610042
0.610007
0.609987
0.609975
0.609967
0.609961
0.609954
0.609947
0.60994
0.609931
0.609922
0.609912
0.609902
0.609891
0.609879
0.609866
0.609852
0.609837
0.609822
0.609804
0.609787
0.609767
0.609747
0.609725
0.609702
0.609679
0.609653
0.609627
0.6096
0.609573
0.609544
0.609515
0.609485
0.609454
0.609422
0.60939
0.609355
0.609318
0.609282
0.609244
0.609205
0.609164
0.609124
0.609082
0.609039
0.608996
0.608951
0.608905
0.608858
0.608809
0.60876
0.608709
0.608657
0.608604
0.60855
0.608495
0.608438
0.608381
0.608322
0.608261
0.608199
0.608136
0.608071
0.608005
0.607937
0.607868
0.607797
0.607724
0.60765
0.607573
0.607495
0.607415
0.607333
0.607248
0.607162
0.607073
0.606982
0.606888
0.606792
0.606693
0.606591
0.606486
0.606378
0.606267
0.606153
0.606034
0.605912
0.605787
0.605657
0.605523
0.605384
0.605241
0.605092
0.604938
0.604778
0.604612
0.604439
0.604259
0.604071
0.603872
0.603662
0.60344
0.603206
0.602959
0.602685
0.60237
0.602029
0.601705
0.60132
0.600821
0.600208
0.599174
0.595816
0.512797
0.311073
0.233512
0.192853
0.16127
0.134489
0.111176
0.0909363
0.0736129
0.059044
0.046998
0.037181
0.0292728
0.0229577
0.0179472
0.0139908
0.0108782
0.00843618
0.00652498
0.00503247
0.00386894
0.00296197
0.00225314
0.00169802
0.00126691
0.000940744
0.000702769
0.000534073
0.000415552
0.00033138
0.000270218
0.000224541
0.00018947
0.000161818
0.000139461
0.00012094
0.000105225
9.15644e-05
7.93961e-05
6.83065e-05
5.8051e-05
4.86361e-05
4.03555e-05
3.35741e-05
2.83254e-05
2.42043e-05
2.07397e-05
1.77531e-05
1.52595e-05
1.31992e-05
1.14425e-05
9.92303e-06
8.63027e-06
7.55438e-06
6.63201e-06
5.78025e-06
5.00756e-06
4.38218e-06
3.86603e-06
3.35261e-06
2.8693e-06
2.51192e-06
2.20428e-06
1.88144e-06
1.61838e-06
1.41241e-06
1.20498e-06
1.02916e-06
8.96538e-07
7.59243e-07
6.32956e-07
5.49267e-07
4.69169e-07
3.82922e-07
3.24401e-07
2.72505e-07
2.22704e-07
1.87334e-07
1.51531e-07
1.21768e-07
1.02413e-07
7.94421e-08
6.19159e-08
4.95979e-08
3.86658e-08
3.37494e-08
3.06867e-08
2.62765e-08
1.85003e-08
6.55271e-09
5.33014e-16
1.06417e-16
8.50191e-17
5.08348e-17
3.85015e-17
3.33548e-17
3.08671e-17
2.93033e-17
2.72834e-17
2.37636e-17
1.83221e-17
1.13067e-17
5.57774e-18
3.43167e-18
2.53825e-18
2.0922e-18
1.7678e-18
1.31403e-18
6.4206e-19
2.13756e-19
8.51219e-20
4.03726e-20
2.1849e-20
1.30723e-20
8.61499e-21
6.10488e-21
4.27247e-21
2.61573e-21
1.22334e-21
5.97011e-22
3.2568e-22
1.91315e-22
1.18162e-22
6.6637e-23
3.0635e-23
1.51171e-23
7.7061e-24
3.91629e-24
1.93511e-24
9.41298e-25
4.47858e-25
2.08216e-25
9.44955e-26
4.18186e-26
1.80261e-26
7.55949e-27
3.08026e-27
1.21785e-27
4.66529e-28
1.72883e-28
6.1869e-29
2.13418e-29
7.08176e-30
2.25546e-30
6.87767e-31
2.0025e-31
5.55016e-32
1.45932e-32
3.62596e-33
8.47616e-34
1.85465e-34
3.77596e-35
7.10294e-36
1.22413e-36
1.91297e-37
2.67589e-38
3.29508e-39
3.49305e-40
3.08893e-41
2.17212e-42
1.11914e-43
3.55075e-45
3.51761e-47
4.86071e-50
7.45444e-52
5.67296e-54
9.41615e-65
7.90905e-76
5.01098e-87
2.33538e-98
9.54565e-110
3.24219e-121
1.21394e-132
6.34268e-141
1.64208e-151
2.1853e-159
5.3141e-170
7.51776e-178
2.27258e-188
2.58573e-196
1.02088e-206
8.90091e-215
6.9119e-225
3.09366e-233
4.60118e-243
1.0916e-251
2.31756e-261
3.90836e-270
1.09721e-279
1.41918e-288
4.83643e-298
5.2346e-307
2.10298e-316
4.58987e-321
7.09478e-321
6.08689e-321
8.5424e-321
0
0
0
0
0
0
0
0
0
0
0
0
0
0
0
0
)
;

boundaryField
{
    inandouthalf11
    {
        type            cyclic;
    }
    inandouthalf12
    {
        type            cyclic;
    }
    inandouthalf21
    {
        type            cyclic;
    }
    inandouthalf22
    {
        type            cyclic;
    }
    inandouthalf31
    {
        type            cyclic;
    }
    inandouthalf32
    {
        type            cyclic;
    }
    inandouthalf41
    {
        type            cyclic;
    }
    inandouthalf42
    {
        type            cyclic;
    }
    top
    {
        type            symmetryPlane;
    }
    walls
    {
        type            zeroGradient;
    }
    frontAndBackPlanes
    {
        type            empty;
    }
}


// ************************************************************************* //
