/*--------------------------------*- C++ -*----------------------------------*\
| =========                 |                                                 |
| \\      /  F ield         | OpenFOAM: The Open Source CFD Toolbox           |
|  \\    /   O peration     | Version:  2.4.x                                 |
|   \\  /    A nd           | Web:      www.OpenFOAM.org                      |
|    \\/     M anipulation  |                                                 |
\*---------------------------------------------------------------------------*/
FoamFile
{
    version     2.0;
    format      ascii;
    class       volVectorField;
    location    "4.3";
    object      ddt0(Ub);
}
// * * * * * * * * * * * * * * * * * * * * * * * * * * * * * * * * * * * * * //

dimensions      [0 1 -2 0 0 0 0];

internalField   nonuniform List<vector> 
360
(
(0.000147003 -5.09708e-08 0)
(0.000146669 -2.38572e-07 0)
(0.000146531 -5.08038e-07 0)
(0.000146622 -7.59018e-07 0)
(0.000146729 -9.8692e-07 0)
(0.000146816 -1.20704e-06 0)
(0.000146899 -1.43092e-06 0)
(0.000146981 -1.66127e-06 0)
(0.00014706 -1.89537e-06 0)
(0.000147141 -2.13031e-06 0)
(0.000147223 -2.36594e-06 0)
(0.000147307 -2.60419e-06 0)
(0.000147392 -2.84762e-06 0)
(0.000147479 -3.09778e-06 0)
(0.000147566 -3.35435e-06 0)
(0.000147654 -3.61483e-06 0)
(0.000147743 -3.87419e-06 0)
(0.00014783 -4.12451e-06 0)
(0.000147914 -4.35529e-06 0)
(0.000147991 -4.55498e-06 0)
(0.00014806 -4.71379e-06 0)
(0.00014812 -4.82823e-06 0)
(0.000148172 -4.90577e-06 0)
(0.000148219 -4.9683e-06 0)
(0.00014827 -5.05364e-06 0)
(0.000148334 -5.21496e-06 0)
(0.000148425 -5.51967e-06 0)
(0.000148562 -6.04894e-06 0)
(0.000148762 -6.89308e-06 0)
(0.000149044 -8.12683e-06 0)
(0.00014941 -9.72558e-06 0)
(0.000149809 -1.1385e-05 0)
(0.000150082 -1.23414e-05 0)
(0.000149991 -1.16112e-05 0)
(0.000149434 -8.90416e-06 0)
(0.000148672 -5.29265e-06 0)
(0.000148094 -2.35646e-06 0)
(0.00014782 -7.57958e-07 0)
(0.000147733 -1.41586e-07 0)
(0.000147714 3.97254e-08 0)
(0.000147717 8.53264e-08 0)
(0.000147724 9.6447e-08 0)
(0.000147733 9.90961e-08 0)
(0.000147744 9.93699e-08 0)
(0.000147755 9.87321e-08 0)
(0.000147767 9.75433e-08 0)
(0.00014778 9.5913e-08 0)
(0.000147794 9.39459e-08 0)
(0.000147809 9.17748e-08 0)
(0.000147827 8.95464e-08 0)
(0.000147844 8.73904e-08 0)
(0.000147863 8.53763e-08 0)
(0.000147884 8.35175e-08 0)
(0.000147905 8.17763e-08 0)
(0.000147928 8.01002e-08 0)
(0.000147953 7.84359e-08 0)
(0.000147978 7.674e-08 0)
(0.000148006 7.4983e-08 0)
(0.000148035 7.31383e-08 0)
(0.000148065 7.11981e-08 0)
(0.000148098 6.91526e-08 0)
(0.00014813 6.70152e-08 0)
(0.000148165 6.47983e-08 0)
(0.0001482 6.25106e-08 0)
(0.000148236 6.01687e-08 0)
(0.000148273 5.77895e-08 0)
(0.000148311 5.53834e-08 0)
(0.00014835 5.29494e-08 0)
(0.000148391 5.04893e-08 0)
(0.000148433 4.79881e-08 0)
(0.000148478 4.5432e-08 0)
(0.000148524 4.28092e-08 0)
(0.00014857 4.01017e-08 0)
(0.000148619 3.72993e-08 0)
(0.000148669 3.44073e-08 0)
(0.000148721 3.14194e-08 0)
(0.000148773 2.83372e-08 0)
(0.000148826 2.51743e-08 0)
(0.000148881 2.19321e-08 0)
(0.000148937 1.86189e-08 0)
(0.000148994 1.52357e-08 0)
(0.000149053 1.17868e-08 0)
(0.000149113 8.26561e-09 0)
(0.000149176 4.66789e-09 0)
(0.000149239 9.94106e-10 0)
(0.000149305 -2.7628e-09 0)
(0.000149371 -6.60549e-09 0)
(0.00014944 -1.05399e-08 0)
(0.000149509 -1.45534e-08 0)
(0.000149581 -1.86347e-08 0)
(0.000149653 -2.2777e-08 0)
(0.000149728 -2.69767e-08 0)
(0.000149804 -3.12351e-08 0)
(0.000149882 -3.55409e-08 0)
(0.000149962 -3.9891e-08 0)
(0.000150043 -4.42849e-08 0)
(0.000150127 -4.87205e-08 0)
(0.000150213 -5.3196e-08 0)
(0.0001503 -5.77089e-08 0)
(0.00015039 -6.22515e-08 0)
(0.000150482 -6.6821e-08 0)
(0.000150576 -7.14216e-08 0)
(0.000150672 -7.60439e-08 0)
(0.000150771 -8.06795e-08 0)
(0.000150872 -8.53265e-08 0)
(0.000150976 -8.99794e-08 0)
(0.000151083 -9.46331e-08 0)
(0.000151192 -9.9284e-08 0)
(0.000151304 -1.03922e-07 0)
(0.000151419 -1.08547e-07 0)
(0.000151537 -1.13154e-07 0)
(0.000151659 -1.17739e-07 0)
(0.000151784 -1.223e-07 0)
(0.000151912 -1.26835e-07 0)
(0.000152045 -1.31341e-07 0)
(0.000152181 -1.35821e-07 0)
(0.000152321 -1.40275e-07 0)
(0.000152466 -1.447e-07 0)
(0.000152615 -1.49103e-07 0)
(0.000152768 -1.53487e-07 0)
(0.000152927 -1.57859e-07 0)
(0.000153091 -1.62217e-07 0)
(0.00015326 -1.66558e-07 0)
(0.000153435 -1.70876e-07 0)
(0.000153616 -1.7516e-07 0)
(0.000153804 -1.79399e-07 0)
(0.000153998 -1.83567e-07 0)
(0.000154199 -1.87638e-07 0)
(0.000154409 -1.91576e-07 0)
(0.000154627 -1.95346e-07 0)
(0.000154854 -1.98906e-07 0)
(0.00015509 -2.02215e-07 0)
(0.000155336 -2.05247e-07 0)
(0.000155596 -2.07985e-07 0)
(0.000155872 -2.1044e-07 0)
(0.000156164 -2.12625e-07 0)
(0.000156471 -2.14547e-07 0)
(0.000156797 -2.16215e-07 0)
(0.000157158 -2.17618e-07 0)
(0.000157572 -2.18746e-07 0)
(0.000158023 -2.19637e-07 0)
(0.000158452 -2.20132e-07 0)
(0.000158961 -2.2015e-07 0)
(0.000159623 -2.19795e-07 0)
(0.000160438 -5.92744e-08 0)
(0.000161617 -3.92376e-06 0)
(-2.1523e-05 1.19387e-05 0)
(-0.0879167 0.000254273 0)
(-0.159829 0.00148882 0)
(-0.0994175 0.00109814 0)
(-0.053474 0.000821162 0)
(-0.016945 0.000901198 0)
(0.0116309 0.00106989 0)
(0.0332811 0.00116799 0)
(0.0491179 0.0011553 0)
(0.0602956 0.00104833 0)
(0.0678806 0.000883411 0)
(0.0727776 0.000697112 0)
(0.0757002 0.000517614 0)
(0.0771747 0.00036229 0)
(0.0775615 0.000238359 0)
(0.0770825 0.000145527 0)
(0.0758499 7.93333e-05 0)
(0.0738906 3.39844e-05 0)
(0.0711651 4.0662e-06 0)
(0.0675829 -1.48058e-05 0)
(0.0630142 -2.59987e-05 0)
(0.0573 -3.21495e-05 0)
(0.0502638 -3.53222e-05 0)
(0.0417259 -3.67487e-05 0)
(0.0315276 -3.64671e-05 0)
(0.0195695 -3.37876e-05 0)
(0.00586154 -2.86255e-05 0)
(-0.00943322 -2.21812e-05 0)
(-0.0259819 -1.61028e-05 0)
(-0.0433009 -1.13559e-05 0)
(-0.0608097 -8.02886e-06 0)
(-0.0779124 -5.78688e-06 0)
(-0.0940874 -4.2695e-06 0)
(-0.108957 -3.22205e-06 0)
(-0.122316 -2.48395e-06 0)
(-0.13412 -1.95438e-06 0)
(-0.144444 -1.56881e-06 0)
(-0.153436 -1.28528e-06 0)
(-0.161273 -1.07601e-06 0)
(-0.168136 -9.21527e-07 0)
(-0.174194 -8.05726e-07 0)
(-0.17959 -7.12217e-07 0)
(-0.184445 -6.2485e-07 0)
(-0.18886 -5.34039e-07 0)
(-0.192914 -4.42855e-07 0)
(-0.196669 -3.63081e-07 0)
(-0.200176 -3.02451e-07 0)
(-0.203475 -2.57744e-07 0)
(-0.206598 -2.2114e-07 0)
(-0.209569 -1.8896e-07 0)
(-0.212409 -1.61754e-07 0)
(-0.215134 -1.39547e-07 0)
(-0.217756 -1.20701e-07 0)
(-0.220285 -1.04114e-07 0)
(-0.222732 -9.01154e-08 0)
(-0.225126 -7.8852e-08 0)
(-0.227495 -6.91471e-08 0)
(-0.229841 -5.97652e-08 0)
(-0.232167 -5.13119e-08 0)
(-0.234474 -4.48895e-08 0)
(-0.236764 -3.96224e-08 0)
(-0.239038 -3.41683e-08 0)
(-0.241296 -2.91609e-08 0)
(-0.24354 -2.54151e-08 0)
(-0.245769 -2.21883e-08 0)
(-0.247985 -1.90094e-08 0)
(-0.250186 -1.63081e-08 0)
(-0.252374 -1.40548e-08 0)
(-0.254547 -1.20077e-08 0)
(-0.256705 -1.03098e-08 0)
(-0.258846 -8.86291e-09 0)
(-0.26097 -7.45449e-09 0)
(-0.263074 -6.26773e-09 0)
(-0.265156 -5.35646e-09 0)
(-0.267214 -4.50315e-09 0)
(-0.269244 -3.71535e-09 0)
(-0.271241 -3.0831e-09 0)
(-0.273201 -2.55924e-09 0)
(-0.275116 -2.11934e-09 0)
(-0.276979 -1.74704e-09 0)
(-0.27878 -1.42858e-09 0)
(-0.280507 -1.1775e-09 0)
(-0.282145 -9.67029e-10 0)
(-0.283677 -7.77601e-10 0)
(-0.285079 -6.24197e-10 0)
(-0.286322 -5.16914e-10 0)
(-0.287367 -4.43116e-10 0)
(-0.288162 -4.3565e-10 0)
(-0.288638 -3.37558e-10 0)
(-0.288695 -2.0191e-10 0)
(-0.288183 -4.98397e-10 0)
(-0.286841 8.08273e-10 0)
(-0.284099 -1.40179e-09 0)
(-0.279326 1.58595e-09 0)
(-0.263621 -2.10677e-09 0)
(-0.256178 2.18248e-09 0)
(-0.255804 -2.60322e-09 0)
(-0.255798 2.6365e-09 0)
(-0.255798 -3.00716e-09 0)
(-0.255798 3.00057e-09 0)
(-0.255798 -3.31726e-09 0)
(-0.255798 3.27597e-09 0)
(-0.255798 -3.56304e-09 0)
(-0.255798 3.51481e-09 0)
(-0.255798 -3.7944e-09 0)
(-0.255797 3.75442e-09 0)
(-0.255797 -4.0364e-09 0)
(-0.255797 4.01499e-09 0)
(-0.255797 -4.29702e-09 0)
(-0.255797 4.29918e-09 0)
(-0.255797 -4.58797e-09 0)
(-0.255797 4.6099e-09 0)
(-0.255797 -4.89427e-09 0)
(-0.255797 4.92393e-09 0)
(-0.255797 -5.21296e-09 0)
(-0.255797 5.26188e-09 0)
(-0.255797 -5.55742e-09 0)
(-0.255797 5.61935e-09 0)
(-0.255797 -5.92206e-09 0)
(-0.255797 5.99557e-09 0)
(-0.255797 -6.31019e-09 0)
(-0.255797 6.39211e-09 0)
(-0.255797 -6.71727e-09 0)
(-0.255797 6.81181e-09 0)
(-0.255797 -7.14296e-09 0)
(-0.255797 7.25252e-09 0)
(-0.255797 -7.59106e-09 0)
(-0.255797 7.7115e-09 0)
(-0.255797 -8.0602e-09 0)
(-0.255797 8.19222e-09 0)
(-0.255797 -8.54823e-09 0)
(-0.255797 8.69332e-09 0)
(-0.255797 -9.05815e-09 0)
(-0.255797 9.21231e-09 0)
(-0.255797 -9.58804e-09 0)
(-0.255797 9.75517e-09 0)
(-0.255797 -1.01369e-08 0)
(-0.255797 1.03185e-08 0)
(-0.255797 -1.07069e-08 0)
(-0.255797 1.08993e-08 0)
(-0.255797 -1.13006e-08 0)
(-0.255797 1.15035e-08 0)
(-0.255797 -1.19101e-08 0)
(-0.255797 1.21263e-08 0)
(-0.255797 -1.2544e-08 0)
(-0.255797 1.27668e-08 0)
(-0.255797 -1.31996e-08 0)
(-0.255797 1.34295e-08 0)
(-0.255797 -1.38723e-08 0)
(-0.255797 1.41095e-08 0)
(-0.255797 -1.45679e-08 0)
(-0.255797 1.4817e-08 0)
(-0.255797 -1.52755e-08 0)
(-0.255797 1.55528e-08 0)
(-0.255797 -1.60066e-08 0)
(-0.255797 1.62914e-08 0)
(-0.255797 -1.67568e-08 0)
(-0.255797 1.70532e-08 0)
(-0.255797 -1.75226e-08 0)
(-0.255797 1.78315e-08 0)
(-0.255797 -1.82975e-08 0)
(-0.255797 1.86138e-08 0)
(-0.255797 -1.90806e-08 0)
(-0.255797 1.93967e-08 0)
(-0.255797 -1.74334e-08 0)
(-0.255797 1.73487e-08 0)
(-0.255797 -1.74169e-08 0)
(-0.255797 1.73249e-08 0)
(-0.255797 -1.73867e-08 0)
(-0.255797 1.72917e-08 0)
(-0.255797 -1.73512e-08 0)
(-0.255797 1.72486e-08 0)
(-0.255797 -1.73048e-08 0)
(-0.255797 1.71968e-08 0)
(-0.255797 -1.72488e-08 0)
(-0.255797 1.71295e-08 0)
(-0.255797 -1.71792e-08 0)
(-0.255797 1.70514e-08 0)
(-0.255797 -1.70948e-08 0)
(-0.255797 1.69574e-08 0)
(-0.255797 -1.69921e-08 0)
(-0.255797 1.6842e-08 0)
(-0.255797 -1.68765e-08 0)
(-0.255797 1.67189e-08 0)
(-0.255797 -1.67346e-08 0)
(-0.255797 1.65756e-08 0)
(-0.255797 -1.65786e-08 0)
(-0.255797 1.64139e-08 0)
(-0.255797 -1.6403e-08 0)
(-0.255797 1.62343e-08 0)
(-0.255797 -1.62053e-08 0)
(-0.255797 1.60341e-08 0)
(-0.255797 -1.5987e-08 0)
(-0.255797 1.58103e-08 0)
(-0.255797 -1.57486e-08 0)
(-0.255797 1.55641e-08 0)
(-0.255797 -1.54834e-08 0)
(-0.255797 1.52869e-08 0)
(-0.255797 -1.51864e-08 0)
(-0.255797 1.49787e-08 0)
(-0.255797 -1.48569e-08 0)
(-0.255797 1.46368e-08 0)
(-0.255797 -1.44883e-08 0)
(-0.255797 1.4245e-08 0)
(-0.255797 -1.40802e-08 0)
(-0.255797 1.38104e-08 0)
(-0.255797 -1.36235e-08 0)
(-0.255797 1.32973e-08 0)
(-0.255797 -1.30215e-08 0)
(-0.255797 1.21064e-08 0)
(-0.255797 -1.1908e-08 0)
(-0.255797 1.17515e-08 0)
(-0.255797 -1.17629e-08 0)
(-0.255797 1.15306e-08 0)
)
;

boundaryField
{
    inandouthalf11
    {
        type            cyclic;
    }
    inandouthalf12
    {
        type            cyclic;
    }
    inandouthalf21
    {
        type            cyclic;
    }
    inandouthalf22
    {
        type            cyclic;
    }
    inandouthalf31
    {
        type            cyclic;
    }
    inandouthalf32
    {
        type            cyclic;
    }
    inandouthalf41
    {
        type            cyclic;
    }
    inandouthalf42
    {
        type            cyclic;
    }
    top
    {
        type            symmetryPlane;
    }
    walls
    {
        type            calculated;
        value           uniform (0 0 0);
    }
    frontAndBackPlanes
    {
        type            empty;
    }
}


// ************************************************************************* //
