/*--------------------------------*- C++ -*----------------------------------*\
| =========                 |                                                 |
| \\      /  F ield         | OpenFOAM: The Open Source CFD Toolbox           |
|  \\    /   O peration     | Version:  2.4.x                                 |
|   \\  /    A nd           | Web:      www.OpenFOAM.org                      |
|    \\/     M anipulation  |                                                 |
\*---------------------------------------------------------------------------*/
FoamFile
{
    version     2.0;
    format      ascii;
    class       volScalarField;
    location    "4.3";
    object      ddt0(((1.5*(alpha+1e-08))*rho),Theta);
}
// * * * * * * * * * * * * * * * * * * * * * * * * * * * * * * * * * * * * * //

dimensions      [1 -1 -3 0 0 0 0];

internalField   nonuniform List<scalar> 
360
(
-2.74433e-20
-1.27956e-19
-1.22829e-19
-9.53613e-20
-8.9387e-20
-9.27132e-20
-9.81469e-20
-1.02189e-19
-1.03851e-19
-1.04514e-19
-1.06003e-19
-1.09109e-19
-1.13607e-19
-1.18664e-19
-1.23258e-19
-1.26252e-19
-1.26171e-19
-1.21252e-19
-1.10029e-19
-9.21681e-20
-6.95642e-20
-4.70104e-20
-3.15349e-20
-3.09905e-20
-5.28881e-20
-1.04887e-19
-1.98181e-19
-3.53203e-19
-6.0307e-19
-9.76727e-19
-1.4018e-18
-1.45374e-18
-3.35531e-19
1.7526e-18
2.60249e-18
1.51804e-18
4.17999e-19
5.96132e-20
5.19208e-21
3.61151e-22
2.53175e-23
-3.21425e-25
-3.11829e-24
-3.6402e-24
-3.86066e-24
-4.0637e-24
-4.29525e-24
-4.53457e-24
-4.73071e-24
-4.83677e-24
-4.84639e-24
-4.79334e-24
-4.72243e-24
-4.66706e-24
-4.64368e-24
-4.6549e-24
-4.69676e-24
-4.76428e-24
-4.85005e-24
-4.94953e-24
-5.056e-24
-5.16112e-24
-5.25795e-24
-5.34076e-24
-5.40834e-24
-5.46489e-24
-5.51798e-24
-5.57548e-24
-5.64473e-24
-5.73451e-24
-5.85093e-24
-5.99243e-24
-6.15601e-24
-6.33771e-24
-6.52989e-24
-6.7221e-24
-6.90491e-24
-7.07514e-24
-7.23436e-24
-7.38657e-24
-7.53851e-24
-7.69896e-24
-7.87393e-24
-8.06587e-24
-8.27375e-24
-8.49299e-24
-8.71656e-24
-8.93626e-24
-9.1461e-24
-9.34249e-24
-9.5248e-24
-9.69476e-24
-9.85612e-24
-1.00119e-23
-1.01643e-23
-1.0314e-23
-1.04601e-23
-1.06013e-23
-1.07354e-23
-1.36345e-23
0
0
0
0
0
0
0
0
0
0
0
0
0
0
0
-1.12761e-23
-1.12576e-23
-1.1251e-23
-1.12591e-23
-1.12828e-23
-1.1321e-23
-1.13689e-23
-1.14178e-23
-1.14542e-23
-1.14605e-23
-1.14171e-23
-1.13035e-23
-1.11013e-23
-1.07959e-23
-1.03788e-23
-9.85658e-24
-9.25942e-24
-8.20679e-24
1.82121e-19
4.35734e-16
3.71513e-15
3.23467e-14
3.14596e-13
3.47974e-12
4.37248e-11
6.21641e-10
9.97871e-09
1.81003e-07
3.86381e-06
0.000170384
0.0105929
0.196847
2.03443
1.87332
-0.449173
-0.871117
-0.681082
-0.377789
-0.120779
0.0559849
0.161885
0.216598
0.237701
0.23746
0.224974
0.204916
0.181047
0.155829
0.130979
0.107666
0.0866267
0.068261
0.0527027
0.0398757
0.0295583
0.0214681
0.0153276
0.010857
0.00773442
0.00561095
0.00417301
0.00318458
0.00248768
0.00198228
0.00160567
0.00131796
0.00109308
0.000913536
0.00076721
0.000645507
0.00054218
0.000452697
0.000374125
0.000305414
0.000247386
0.000201256
0.000166264
0.000139281
0.000117113
9.8455e-05
8.31704e-05
7.07432e-05
6.03357e-05
5.14963e-05
4.40925e-05
3.80051e-05
3.28542e-05
2.81912e-05
2.40385e-05
2.06985e-05
1.79602e-05
1.53131e-05
1.28794e-05
1.10738e-05
9.53793e-06
7.98623e-06
6.73377e-06
5.75534e-06
4.80518e-06
4.01246e-06
3.41308e-06
2.81996e-06
2.29136e-06
1.93418e-06
1.60503e-06
1.27188e-06
1.04343e-06
8.47296e-07
6.68654e-07
5.41181e-07
4.20939e-07
3.24575e-07
2.60096e-07
1.92894e-07
1.43173e-07
1.08171e-07
7.9189e-08
6.23224e-08
4.89202e-08
3.45528e-08
1.87308e-08
0
0
0
0
0
0
0
0
0
0
0
0
0
0
0
0
0
0
0
0
0
0
0
0
0
0
0
0
0
0
0
0
0
0
0
0
0
0
0
0
0
0
0
0
0
0
0
0
0
0
0
0
0
0
0
0
0
0
0
0
0
0
0
0
0
0
0
0
0
0
0
0
0
0
0
0
0
0
0
0
0
0
0
0
0
0
0
0
0
0
0
0
0
0
0
0
0
0
0
0
0
0
0
0
0
0
0
0
0
0
0
0
0
0
0
0
0
0
0
0
0
0
0
0
)
;

boundaryField
{
    inandouthalf11
    {
        type            cyclic;
    }
    inandouthalf12
    {
        type            cyclic;
    }
    inandouthalf21
    {
        type            cyclic;
    }
    inandouthalf22
    {
        type            cyclic;
    }
    inandouthalf31
    {
        type            cyclic;
    }
    inandouthalf32
    {
        type            cyclic;
    }
    inandouthalf41
    {
        type            cyclic;
    }
    inandouthalf42
    {
        type            cyclic;
    }
    top
    {
        type            symmetryPlane;
    }
    walls
    {
        type            calculated;
        value           uniform -2.74433e-20;
    }
    frontAndBackPlanes
    {
        type            empty;
    }
}


// ************************************************************************* //
