/*--------------------------------*- C++ -*----------------------------------*\
| =========                 |                                                 |
| \\      /  F ield         | OpenFOAM: The Open Source CFD Toolbox           |
|  \\    /   O peration     | Version:  2.4.x                                 |
|   \\  /    A nd           | Web:      www.OpenFOAM.org                      |
|    \\/     M anipulation  |                                                 |
\*---------------------------------------------------------------------------*/
FoamFile
{
    version     2.0;
    format      ascii;
    class       volVectorField;
    location    "4.3";
    object      gradPs;
}
// * * * * * * * * * * * * * * * * * * * * * * * * * * * * * * * * * * * * * //

dimensions      [0 1 -2 0 0 0 0];

internalField   nonuniform List<vector> 
360
(
(0 1.91547e-18 0)
(0 1.99736e-18 0)
(0 -1.91599e-19 0)
(0 -3.65e-19 0)
(-1.45189e-32 -9.30471e-20 0)
(-1.45197e-32 -5.4956e-21 0)
(-2.90406e-32 -2.04183e-20 0)
(0 -4.78936e-20 0)
(-2.90431e-32 -6.47529e-20 0)
(0 -6.76112e-20 0)
(-2.90457e-32 -5.87649e-20 0)
(0 -4.79512e-20 0)
(-1.45242e-32 -4.04994e-20 0)
(0 -3.60477e-20 0)
(0 -3.34363e-20 0)
(0 -3.20868e-20 0)
(0 -3.41099e-20 0)
(-1.45277e-32 -4.25199e-20 0)
(0 -6.07064e-20 0)
(0 -8.76236e-20 0)
(0 -1.19814e-19 0)
(-2.90612e-32 -1.50095e-19 0)
(0 -1.67637e-19 0)
(0 -1.62694e-19 0)
(0 -1.24248e-19 0)
(-2.90669e-32 -4.02638e-20 0)
(0 1.05588e-19 0)
(0 3.43758e-19 0)
(0 7.20899e-19 0)
(0 1.26239e-18 0)
(0 1.80103e-18 0)
(0 1.67805e-18 0)
(0 1.52487e-20 0)
(0 -2.5797e-18 0)
(0 -3.67914e-18 0)
(2.90866e-32 -2.49794e-18 0)
(0 -9.23837e-19 0)
(0 -2.07193e-19 0)
(0 -4.48525e-20 0)
(0 -2.48883e-20 0)
(0 -2.57211e-20 0)
(0 -2.52175e-20 0)
(1.45449e-32 -2.8311e-20 0)
(0 -3.13198e-20 0)
(0 -3.26854e-20 0)
(0 -3.56796e-20 0)
(0 -3.68845e-20 0)
(0 -3.96438e-20 0)
(0 -4.54561e-20 0)
(0 -4.78414e-20 0)
(1.4547e-32 -5.02731e-20 0)
(0 -5.42421e-20 0)
(0 -5.79267e-20 0)
(0 -6.13389e-20 0)
(0 -6.59988e-20 0)
(0 -7.02431e-20 0)
(0 -7.40898e-20 0)
(0 -7.89951e-20 0)
(0 -8.1694e-20 0)
(0 -8.66671e-20 0)
(0 -9.05626e-20 0)
(0 -9.3298e-20 0)
(0 -9.63887e-20 0)
(0 -9.82959e-20 0)
(0 -1.00652e-19 0)
(0 -1.03546e-19 0)
(0 -1.07279e-19 0)
(0 -1.10809e-19 0)
(0 -1.14142e-19 0)
(0 -1.19085e-19 0)
(0 -1.24779e-19 0)
(0 -1.27788e-19 0)
(0 -1.31542e-19 0)
(0 -1.35849e-19 0)
(0 -1.39231e-19 0)
(0 -1.4205e-19 0)
(0 -1.44326e-19 0)
(0 -1.47677e-19 0)
(0 -1.51223e-19 0)
(0 -1.54605e-19 0)
(0 -1.58437e-19 0)
(0 -1.62881e-19 0)
(0 -1.67131e-19 0)
(0 -1.71347e-19 0)
(0 -1.75449e-19 0)
(0 -1.79434e-19 0)
(0 -1.83232e-19 0)
(0 -1.86841e-19 0)
(0 -1.90663e-19 0)
(0 -1.94645e-19 0)
(0 -1.98743e-19 0)
(0 -2.03138e-19 0)
(0 -2.07786e-19 0)
(0 -2.12536e-19 0)
(0 -2.174e-19 0)
(0 -2.22356e-19 0)
(0 -2.27378e-19 0)
(0 -2.32488e-19 0)
(0 -2.39488e-19 0)
(0 -1.75055e-16 0)
(0 -1.74954e-16 0)
(0 0 0)
(0 0 0)
(0 0 0)
(0 0 0)
(0 0 0)
(0 0 0)
(0 0 0)
(0 0 0)
(0 0 0)
(0 0 0)
(0 0 0)
(0 0 0)
(0 0 0)
(0 1.72925e-16 0)
(0 1.7277e-16 0)
(0 -3.7399e-19 0)
(0 -3.84915e-19 0)
(0 -3.96331e-19 0)
(0 -4.08266e-19 0)
(0 -4.20744e-19 0)
(0 -4.33786e-19 0)
(0 -4.47413e-19 0)
(0 -4.61667e-19 0)
(0 -4.76648e-19 0)
(0 -4.92551e-19 0)
(0 -5.09661e-19 0)
(0 -5.28241e-19 0)
(0 -5.48313e-19 0)
(0 -5.69524e-19 0)
(0 -5.91554e-19 0)
(0 -6.15396e-19 0)
(0 -7.24011e-19 0)
(0 6.0077e-16 0)
(0 6.12488e-15 0)
(0 5.6167e-14 0)
(0 5.53207e-13 0)
(0 6.02716e-12 0)
(0 7.39455e-11 0)
(0 1.03489e-09 0)
(0 1.66993e-08 0)
(0 3.14233e-07 0)
(0 7.10901e-06 0)
(0 0.000307083 0)
(0 0.0246459 0)
(0 0.683455 0)
(0 4.15273 0)
(0 3.6223 0)
(0 -1.51216 0)
(0 -2.59358 0)
(0 -3.55394 0)
(0 -3.76553 0)
(0 -3.78228 0)
(0 -3.73188 0)
(0 -3.65313 0)
(0 -3.56395 0)
(0 -3.47251 0)
(0 -3.38209 0)
(0 -3.29355 0)
(0 -3.20652 0)
(0 -3.12 0)
(0 -3.03308 0)
(0 -2.94513 0)
(0 -2.8558 0)
(0 -2.7651 0)
(0 -2.67349 0)
(0 -2.58228 0)
(0 -2.49512 0)
(0 -2.41952 0)
(0 -2.36385 0)
(0 -2.32548 0)
(0 -2.27954 0)
(0 -2.18824 0)
(0 -2.03119 0)
(0 -1.82452 0)
(0 -1.6051 0)
(0 -1.40288 0)
(0 -1.23068 0)
(0 -1.08954 0)
(0 -0.976026 0)
(0 -0.886081 0)
(0 -0.816408 0)
(0 -0.764821 0)
(0 -0.730212 0)
(0 -0.712505 0)
(0 -0.712288 0)
(0 -0.728907 0)
(0 -0.755537 0)
(0 -0.773108 0)
(0 -0.754311 0)
(0 -0.688737 0)
(0 -0.605054 0)
(0 -0.543705 0)
(0 -0.508288 0)
(0 -0.47275 0)
(0 -0.427538 0)
(0 -0.386418 0)
(0 -0.354854 0)
(0 -0.324295 0)
(0 -0.289486 0)
(0 -0.255851 0)
(0 -0.233357 0)
(-7.42242e-17 -0.217511 0)
(0 -0.191217 0)
(0 -0.158993 0)
(3.97647e-17 -0.143536 0)
(0 -0.13832 0)
(-4.11567e-17 -0.117705 0)
(0 -0.0935811 0)
(2.08449e-17 -0.0870142 0)
(0 -0.0797977 0)
(0 -0.0636939 0)
(0 -0.0549531 0)
(2.09505e-17 -0.0496783 0)
(0 -0.0395475 0)
(0 -0.03359 0)
(0 -0.0314181 0)
(0 -0.0246391 0)
(0 -0.0188262 0)
(-4.96904e-18 -0.0179542 0)
(0 -0.0150751 0)
(-2.42012e-18 -0.0112093 0)
(0 -0.00974456 0)
(-2.34791e-18 -0.00784043 0)
(0 -0.00622206 0)
(0 -0.00535138 0)
(0 -0.00389157 0)
(0 -0.00310973 0)
(5.38415e-19 -0.00270982 0)
(0 -0.00190547 0)
(0 -0.00138884 0)
(0 -0.000950149 0)
(0 -0.000577757 0)
(0 -0.000501725 0)
(0 -0.000528598 0)
(0 -0.000525315 0)
(0 -0.000252952 0)
(0 0 0)
(0 0 0)
(0 0 0)
(0 0 0)
(0 0 0)
(0 0 0)
(0 0 0)
(0 0 0)
(0 0 0)
(0 0 0)
(0 0 0)
(0 0 0)
(0 0 0)
(0 0 0)
(0 0 0)
(0 0 0)
(0 0 0)
(0 0 0)
(0 0 0)
(0 0 0)
(0 0 0)
(0 0 0)
(0 0 0)
(0 0 0)
(0 0 0)
(0 0 0)
(0 0 0)
(0 0 0)
(0 0 0)
(0 0 0)
(0 0 0)
(0 0 0)
(0 0 0)
(0 0 0)
(0 0 0)
(0 0 0)
(0 0 0)
(0 0 0)
(0 0 0)
(0 0 0)
(0 0 0)
(0 0 0)
(0 0 0)
(0 0 0)
(0 0 0)
(0 0 0)
(0 0 0)
(0 0 0)
(0 0 0)
(0 0 0)
(0 0 0)
(0 0 0)
(0 0 0)
(0 0 0)
(0 0 0)
(0 0 0)
(0 0 0)
(0 0 0)
(0 0 0)
(0 0 0)
(0 0 0)
(0 0 0)
(0 0 0)
(0 0 0)
(0 0 0)
(0 0 0)
(0 0 0)
(0 0 0)
(0 0 0)
(0 0 0)
(0 0 0)
(0 0 0)
(0 0 0)
(0 0 0)
(0 0 0)
(0 0 0)
(0 0 0)
(0 0 0)
(0 0 0)
(0 0 0)
(0 0 0)
(0 0 0)
(0 0 0)
(0 0 0)
(0 0 0)
(0 0 0)
(0 0 0)
(0 0 0)
(0 0 0)
(0 0 0)
(0 0 0)
(0 0 0)
(0 0 0)
(0 0 0)
(0 0 0)
(0 0 0)
(0 0 0)
(0 0 0)
(0 0 0)
(0 0 0)
(0 0 0)
(0 0 0)
(0 0 0)
(0 0 0)
(0 0 0)
(0 0 0)
(0 0 0)
(0 0 0)
(0 0 0)
(0 0 0)
(0 0 0)
(0 0 0)
(0 0 0)
(0 0 0)
(0 0 0)
(0 0 0)
(0 0 0)
(0 0 0)
(0 0 0)
(0 0 0)
(0 0 0)
(0 0 0)
(0 0 0)
)
;

boundaryField
{
    inandouthalf11
    {
        type            cyclic;
    }
    inandouthalf12
    {
        type            cyclic;
    }
    inandouthalf21
    {
        type            cyclic;
    }
    inandouthalf22
    {
        type            cyclic;
    }
    inandouthalf31
    {
        type            cyclic;
    }
    inandouthalf32
    {
        type            cyclic;
    }
    inandouthalf41
    {
        type            cyclic;
    }
    inandouthalf42
    {
        type            cyclic;
    }
    top
    {
        type            symmetryPlane;
    }
    walls
    {
        type            calculated;
        value           uniform (0 0 0);
    }
    frontAndBackPlanes
    {
        type            empty;
    }
}


// ************************************************************************* //
