/*--------------------------------*- C++ -*----------------------------------*\
| =========                 |                                                 |
| \\      /  F ield         | OpenFOAM: The Open Source CFD Toolbox           |
|  \\    /   O peration     | Version:  2.4.x                                 |
|   \\  /    A nd           | Web:      www.OpenFOAM.org                      |
|    \\/     M anipulation  |                                                 |
\*---------------------------------------------------------------------------*/
FoamFile
{
    version     2.0;
    format      ascii;
    class       volScalarField;
    location    "4.3";
    object      p;
}
// * * * * * * * * * * * * * * * * * * * * * * * * * * * * * * * * * * * * * //

dimensions      [1 -1 -2 0 0 0 0];

internalField   nonuniform List<scalar> 
360
(
4899.62
4894.71
4889.81
4884.9
4879.99
4875.07
4870.16
4865.25
4860.33
4855.41
4850.49
4845.57
4840.65
4835.72
4830.8
4825.87
4820.94
4816.01
4811.08
4806.14
4801.2
4796.27
4791.33
4786.38
4781.44
4776.5
4771.55
4766.6
4761.65
4756.7
4751.74
4746.79
4741.83
4736.86
4731.9
4726.93
4721.95
4716.98
4712.01
4707.04
4702.07
4697.09
4692.12
4687.15
4682.18
4677.21
4672.23
4667.26
4662.29
4657.32
4652.35
4647.37
4642.4
4637.43
4632.46
4627.49
4622.51
4617.54
4612.57
4607.6
4602.63
4597.66
4592.68
4587.71
4582.74
4577.77
4572.8
4567.83
4562.85
4557.88
4552.91
4547.94
4542.97
4538
4533.02
4528.05
4523.08
4518.11
4513.14
4508.17
4503.2
4498.22
4493.25
4488.28
4483.31
4478.34
4473.37
4468.4
4463.43
4458.45
4453.48
4448.51
4443.54
4438.57
4433.6
4428.63
4423.66
4418.69
4413.72
4408.75
4403.77
4398.8
4393.83
4388.86
4383.89
4378.92
4373.95
4368.98
4364.01
4359.04
4354.07
4349.1
4344.13
4339.16
4334.19
4329.22
4324.25
4319.28
4314.31
4309.34
4304.37
4299.4
4294.44
4289.47
4284.5
4279.53
4274.56
4269.59
4264.62
4259.65
4254.68
4249.72
4244.75
4239.78
4234.81
4229.84
4224.88
4219.91
4214.94
4209.97
4205.01
4200.04
4195.08
4190.11
4185.14
4180.18
4175.21
4169.69
4160.81
4152.64
4146.01
4139.96
4134.23
4128.72
4123.37
4118.16
4113.06
4108.05
4103.11
4098.24
4093.42
4088.64
4083.9
4079.18
4074.47
4069.79
4065.11
4060.44
4055.76
4051.09
4046.41
4041.71
4037.01
4032.28
4027.54
4022.78
4018
4013.21
4008.39
4003.55
3998.7
3993.84
3988.97
3984.09
3979.2
3974.31
3969.41
3964.51
3959.61
3954.71
3949.8
3944.89
3939.98
3935.07
3930.16
3925.25
3920.34
3915.43
3910.52
3905.61
3900.7
3895.74
3890.68
3885.52
3880.25
3874.88
3869.4
3863.81
3858.11
3852.3
3846.36
3840.31
3834.14
3827.84
3821.42
3814.87
3808.19
3801.37
3794.42
3787.33
3780.1
3772.73
3765.2
3757.53
3749.7
3741.72
3733.58
3725.27
3716.8
3708.16
3699.34
3690.35
3681.18
3671.82
3662.27
3652.53
3642.59
3632.45
3622.09
3611.52
3600.7
3589.64
3578.35
3566.83
3555.07
3543.08
3530.84
3518.35
3505.61
3492.61
3479.35
3465.82
3452.01
3437.92
3423.55
3408.88
3393.92
3378.66
3363.08
3347.19
3330.97
3314.43
3297.55
3280.33
3262.76
3244.83
3226.54
3207.87
3188.83
3169.4
3149.58
3129.35
3108.72
3087.66
3066.18
3044.26
3021.9
2999.08
2975.8
2952.05
2927.81
2903.09
2877.86
2852.12
2825.86
2799.06
2771.72
2743.82
2715.36
2686.32
2656.7
2626.47
2595.62
2564.15
2532.05
2499.29
2465.86
2431.76
2396.96
2361.46
2325.24
2288.28
2250.57
2212.1
2172.85
2132.8
2091.93
2050.24
2007.7
1964.3
1922.76
1883.52
1844.28
1805.04
1765.8
1726.56
1687.32
1648.08
1608.84
1569.6
1530.36
1491.12
1451.88
1412.64
1373.4
1334.16
1294.92
1255.68
1216.44
1177.2
1137.96
1098.72
1059.48
1020.24
981
941.76
902.52
863.28
824.04
784.8
745.56
706.32
667.08
627.84
588.6
549.36
510.12
470.88
431.64
392.4
353.16
313.92
274.68
235.44
196.2
156.96
117.72
78.48
39.24
-1.80551e-07
)
;

boundaryField
{
    inandouthalf11
    {
        type            cyclic;
    }
    inandouthalf12
    {
        type            cyclic;
    }
    inandouthalf21
    {
        type            cyclic;
    }
    inandouthalf22
    {
        type            cyclic;
    }
    inandouthalf31
    {
        type            cyclic;
    }
    inandouthalf32
    {
        type            cyclic;
    }
    inandouthalf41
    {
        type            cyclic;
    }
    inandouthalf42
    {
        type            cyclic;
    }
    top
    {
        type            symmetryPlane;
    }
    walls
    {
        type            slip;
    }
    frontAndBackPlanes
    {
        type            empty;
    }
}


// ************************************************************************* //
