/*--------------------------------*- C++ -*----------------------------------*\
| =========                 |                                                 |
| \\      /  F ield         | OpenFOAM: The Open Source CFD Toolbox           |
|  \\    /   O peration     | Version:  2.4.x                                 |
|   \\  /    A nd           | Web:      www.OpenFOAM.org                      |
|    \\/     M anipulation  |                                                 |
\*---------------------------------------------------------------------------*/
FoamFile
{
    version     2.0;
    format      ascii;
    class       surfaceScalarField;
    location    "4.3";
    object      phia_0;
}
// * * * * * * * * * * * * * * * * * * * * * * * * * * * * * * * * * * * * * //

dimensions      [0 3 -1 0 0 0 0];

internalField   nonuniform List<scalar> 
359
(
-6.02713e-13
-1.70837e-12
-2.7548e-12
-3.71269e-12
-4.66066e-12
-5.63363e-12
-6.63231e-12
-7.6473e-12
-8.67e-12
-9.69895e-12
-1.0737e-11
-1.17876e-11
-1.28533e-11
-1.39352e-11
-1.50338e-11
-1.615e-11
-1.72839e-11
-1.84346e-11
-1.95991e-11
-2.07726e-11
-2.19473e-11
-2.31159e-11
-2.4272e-11
-2.54129e-11
-2.65425e-11
-2.76743e-11
-2.88339e-11
-3.00624e-11
-3.14169e-11
-3.29701e-11
-3.47946e-11
-3.69165e-11
-3.92206e-11
-4.1401e-11
-4.30709e-11
-4.40543e-11
-4.44894e-11
-4.46373e-11
-4.46792e-11
-4.46905e-11
-4.4694e-11
-4.46953e-11
-4.46961e-11
-4.46966e-11
-4.46972e-11
-4.46977e-11
-4.46984e-11
-4.46992e-11
-4.47002e-11
-4.47012e-11
-4.47024e-11
-4.47036e-11
-4.47048e-11
-4.4706e-11
-4.47072e-11
-4.47085e-11
-4.47097e-11
-4.47109e-11
-4.47122e-11
-4.47135e-11
-4.47148e-11
-4.47161e-11
-4.47175e-11
-4.47189e-11
-4.47204e-11
-4.47218e-11
-4.47233e-11
-4.47248e-11
-4.47264e-11
-4.4728e-11
-4.47296e-11
-4.47313e-11
-4.4733e-11
-4.47348e-11
-4.47367e-11
-4.47386e-11
-4.47406e-11
-4.47426e-11
-4.47447e-11
-4.47468e-11
-4.4749e-11
-4.47512e-11
-4.47534e-11
-4.47557e-11
-4.47581e-11
-4.47605e-11
-4.47629e-11
-4.47654e-11
-4.4768e-11
-4.47706e-11
-4.47732e-11
-4.47759e-11
-4.47786e-11
-4.47813e-11
-4.4784e-11
-4.47868e-11
-4.47897e-11
-4.47925e-11
-4.47954e-11
-4.47983e-11
-4.48012e-11
-4.48041e-11
-4.4807e-11
-4.481e-11
-4.48129e-11
-4.48159e-11
-4.48189e-11
-4.48218e-11
-4.48248e-11
-4.48277e-11
-4.48307e-11
-4.48336e-11
-4.48365e-11
-4.48394e-11
-4.48423e-11
-4.48451e-11
-4.4848e-11
-4.48508e-11
-4.48536e-11
-4.48564e-11
-4.48593e-11
-4.48621e-11
-4.48648e-11
-4.48676e-11
-4.48704e-11
-4.48731e-11
-4.48758e-11
-4.48784e-11
-4.4881e-11
-4.48834e-11
-4.48857e-11
-4.48878e-11
-4.48897e-11
-4.48915e-11
-4.48931e-11
-4.48945e-11
-4.48958e-11
-4.48968e-11
-4.48978e-11
-4.48986e-11
-4.48992e-11
-4.48995e-11
-4.48996e-11
-4.48997e-11
-4.48997e-11
-4.48995e-11
-3.85436e-11
1.41683e-09
2.98186e-09
3.73853e-09
4.2747e-09
4.87146e-09
5.59659e-09
6.46291e-09
7.4612e-09
8.57405e-09
9.78085e-09
1.10598e-08
1.23894e-08
1.37511e-08
1.51288e-08
1.65093e-08
1.78802e-08
1.92289e-08
2.05407e-08
2.17981e-08
2.29796e-08
2.40539e-08
2.49665e-08
2.56217e-08
2.58944e-08
2.56975e-08
2.50562e-08
2.41014e-08
2.29973e-08
2.18799e-08
2.08393e-08
1.99258e-08
1.91625e-08
1.85551e-08
1.80986e-08
1.77819e-08
1.75896e-08
1.75029e-08
1.75004e-08
1.75572e-08
1.76457e-08
1.7737e-08
1.78046e-08
1.78335e-08
1.78261e-08
1.77965e-08
1.77557e-08
1.77037e-08
1.76383e-08
1.75624e-08
1.74794e-08
1.73895e-08
1.72918e-08
1.7187e-08
1.70779e-08
1.69641e-08
1.68419e-08
1.67073e-08
1.65658e-08
1.64234e-08
1.62709e-08
1.60994e-08
1.5923e-08
1.57442e-08
1.55458e-08
1.53335e-08
1.51174e-08
1.48832e-08
1.46321e-08
1.43787e-08
1.41074e-08
1.38091e-08
1.351e-08
1.32045e-08
1.28681e-08
1.25259e-08
1.21743e-08
1.17958e-08
1.14116e-08
1.09956e-08
1.05408e-08
1.00827e-08
9.56291e-09
8.98511e-09
8.37176e-09
7.71369e-09
7.11416e-09
6.63496e-09
6.29323e-09
6.04387e-09
-6.39574e-08
-1.53324e-07
-1.58716e-07
-1.58367e-07
-1.58206e-07
-1.58185e-07
-1.58187e-07
-1.58187e-07
-1.58187e-07
-1.58187e-07
-1.58187e-07
-1.58187e-07
-1.58187e-07
-1.58187e-07
-1.58187e-07
-1.58187e-07
-1.58187e-07
-1.58187e-07
-1.58187e-07
-1.58187e-07
-1.58187e-07
-1.58187e-07
-1.58187e-07
-1.58187e-07
-1.58187e-07
-1.58187e-07
-1.58187e-07
-1.58187e-07
-1.58187e-07
-1.58187e-07
-1.58187e-07
-1.58187e-07
-1.58187e-07
-1.58187e-07
-1.58187e-07
-1.58187e-07
-1.58187e-07
-1.58187e-07
-1.58187e-07
-1.58187e-07
-1.58187e-07
-1.58187e-07
-1.58187e-07
-1.58187e-07
-1.58187e-07
-1.58187e-07
-1.58187e-07
-1.58187e-07
-1.58187e-07
-1.58187e-07
-1.58187e-07
-1.58187e-07
-1.58187e-07
-1.58187e-07
-1.58187e-07
-1.58187e-07
-1.58187e-07
-1.58187e-07
-1.58187e-07
-1.58187e-07
-1.58187e-07
-1.58187e-07
-1.58187e-07
-1.58187e-07
-1.58187e-07
-1.58187e-07
-1.58187e-07
-1.58187e-07
-1.58187e-07
-1.58187e-07
-1.58187e-07
-1.58187e-07
-1.58187e-07
-1.58187e-07
-1.58187e-07
-1.58187e-07
-1.58187e-07
-1.58187e-07
-1.58187e-07
-1.58187e-07
-1.58187e-07
-1.58187e-07
-1.58187e-07
-1.58187e-07
-1.58187e-07
-1.58187e-07
-1.58187e-07
-1.58187e-07
-1.58187e-07
-1.58187e-07
-1.58187e-07
-1.58187e-07
-1.58187e-07
-1.58187e-07
-1.58187e-07
-1.58187e-07
-1.58187e-07
-1.58187e-07
-1.58187e-07
-1.58187e-07
-1.58187e-07
-1.58187e-07
-1.58187e-07
-1.58187e-07
-1.58187e-07
-1.58187e-07
-1.58187e-07
-1.58187e-07
-1.58187e-07
-1.58187e-07
-1.58187e-07
-1.58187e-07
-1.58187e-07
-1.58187e-07
-1.58187e-07
-1.58187e-07
-1.58187e-07
-1.58187e-07
-1.58187e-07
-1.58187e-07
-1.58169e-07
-1.57463e-07
-1.3237e-07
)
;

boundaryField
{
    inandouthalf11
    {
        type            cyclic;
        value           nonuniform List<scalar> 
100
(
1.0731e-38
5.26193e-14
1.19367e-13
1.79076e-13
2.36336e-13
2.94949e-13
3.55519e-13
4.17608e-13
4.80682e-13
5.44444e-13
6.08936e-13
6.74374e-13
7.40962e-13
8.08824e-13
8.78018e-13
9.48596e-13
1.0206e-12
1.09403e-12
1.16878e-12
1.24459e-12
1.32106e-12
1.39772e-12
1.47408e-12
1.54984e-12
1.62504e-12
1.70023e-12
1.7767e-12
1.85666e-12
1.94338e-12
2.04127e-12
2.15547e-12
2.29002e-12
2.44292e-12
2.59951e-12
2.7329e-12
2.82081e-12
2.86381e-12
2.87956e-12
2.8842e-12
2.88547e-12
2.88585e-12
2.88599e-12
2.88606e-12
2.88611e-12
2.88616e-12
2.8862e-12
2.88626e-12
2.88632e-12
2.8864e-12
2.8865e-12
2.88661e-12
2.88673e-12
2.88685e-12
2.88698e-12
2.8871e-12
2.88723e-12
2.88737e-12
2.8875e-12
2.88764e-12
2.88779e-12
2.88794e-12
2.8881e-12
2.88826e-12
2.88843e-12
2.8886e-12
2.88878e-12
2.88897e-12
2.88916e-12
2.88935e-12
2.88956e-12
2.88977e-12
2.88999e-12
2.89022e-12
2.89046e-12
2.89071e-12
2.89097e-12
2.89124e-12
2.89153e-12
2.89182e-12
2.89212e-12
2.89243e-12
2.89275e-12
2.89308e-12
2.89341e-12
2.89376e-12
2.89412e-12
2.89449e-12
2.89487e-12
2.89527e-12
2.89567e-12
2.89608e-12
2.8965e-12
2.89694e-12
2.89738e-12
2.89783e-12
2.89828e-12
2.89875e-12
2.89923e-12
2.89971e-12
2.9002e-12
)
;
    }
    inandouthalf12
    {
        type            cyclic;
        value           nonuniform List<scalar> 
100
(
-1.0731e-38
-5.26193e-14
-1.19367e-13
-1.79076e-13
-2.36336e-13
-2.94949e-13
-3.55519e-13
-4.17608e-13
-4.80682e-13
-5.44444e-13
-6.08936e-13
-6.74374e-13
-7.40962e-13
-8.08824e-13
-8.78018e-13
-9.48596e-13
-1.0206e-12
-1.09403e-12
-1.16878e-12
-1.24459e-12
-1.32106e-12
-1.39772e-12
-1.47408e-12
-1.54984e-12
-1.62504e-12
-1.70023e-12
-1.7767e-12
-1.85666e-12
-1.94338e-12
-2.04127e-12
-2.15547e-12
-2.29002e-12
-2.44292e-12
-2.59951e-12
-2.7329e-12
-2.82081e-12
-2.86381e-12
-2.87956e-12
-2.8842e-12
-2.88547e-12
-2.88585e-12
-2.88599e-12
-2.88606e-12
-2.88611e-12
-2.88616e-12
-2.8862e-12
-2.88626e-12
-2.88632e-12
-2.8864e-12
-2.8865e-12
-2.88661e-12
-2.88673e-12
-2.88685e-12
-2.88698e-12
-2.8871e-12
-2.88723e-12
-2.88737e-12
-2.8875e-12
-2.88764e-12
-2.88779e-12
-2.88794e-12
-2.8881e-12
-2.88826e-12
-2.88843e-12
-2.8886e-12
-2.88878e-12
-2.88897e-12
-2.88916e-12
-2.88935e-12
-2.88956e-12
-2.88977e-12
-2.88999e-12
-2.89022e-12
-2.89046e-12
-2.89071e-12
-2.89097e-12
-2.89124e-12
-2.89153e-12
-2.89182e-12
-2.89212e-12
-2.89243e-12
-2.89275e-12
-2.89308e-12
-2.89341e-12
-2.89376e-12
-2.89412e-12
-2.89449e-12
-2.89487e-12
-2.89527e-12
-2.89567e-12
-2.89608e-12
-2.8965e-12
-2.89694e-12
-2.89738e-12
-2.89783e-12
-2.89828e-12
-2.89875e-12
-2.89923e-12
-2.89971e-12
-2.9002e-12
)
;
    }
    inandouthalf21
    {
        type            cyclic;
        value           nonuniform List<scalar> 
100
(
2.9007e-12
2.90121e-12
2.90173e-12
2.90225e-12
2.90278e-12
2.90332e-12
2.90386e-12
2.90441e-12
2.90496e-12
2.90552e-12
2.90608e-12
2.90665e-12
2.90722e-12
2.9078e-12
2.90838e-12
2.90897e-12
2.90956e-12
2.91015e-12
2.91076e-12
2.91137e-12
2.91199e-12
2.91262e-12
2.91327e-12
2.91392e-12
2.91459e-12
2.91527e-12
2.91596e-12
2.91666e-12
2.91736e-12
2.91806e-12
2.91875e-12
2.91942e-12
2.92007e-12
2.92069e-12
2.92129e-12
2.92186e-12
2.9224e-12
2.92293e-12
2.92344e-12
2.92392e-12
2.92435e-12
2.92468e-12
2.92489e-12
2.925e-12
2.92505e-12
2.92509e-12
2.92514e-12
8.95617e-09
9.80152e-08
2.03398e-07
2.88947e-07
3.60156e-07
4.20574e-07
4.72613e-07
5.17947e-07
5.57801e-07
5.93106e-07
6.24585e-07
6.52808e-07
6.7822e-07
7.01172e-07
7.21934e-07
7.40719e-07
7.5769e-07
7.72977e-07
7.86684e-07
7.98901e-07
8.09713e-07
8.19203e-07
8.27459e-07
8.34583e-07
8.4069e-07
8.45909e-07
8.50368e-07
8.54187e-07
8.57466e-07
8.60287e-07
8.62716e-07
8.64804e-07
8.66596e-07
8.68128e-07
8.69432e-07
8.70534e-07
8.71459e-07
8.72229e-07
8.72863e-07
8.7338e-07
8.73798e-07
8.74133e-07
8.74399e-07
8.74612e-07
8.7478e-07
8.74912e-07
8.75013e-07
8.75088e-07
8.75143e-07
8.75179e-07
8.75202e-07
8.75212e-07
8.75212e-07
)
;
    }
    inandouthalf22
    {
        type            cyclic;
        value           nonuniform List<scalar> 
100
(
-2.9007e-12
-2.90121e-12
-2.90173e-12
-2.90225e-12
-2.90278e-12
-2.90332e-12
-2.90386e-12
-2.90441e-12
-2.90496e-12
-2.90552e-12
-2.90608e-12
-2.90665e-12
-2.90722e-12
-2.9078e-12
-2.90838e-12
-2.90897e-12
-2.90956e-12
-2.91015e-12
-2.91076e-12
-2.91137e-12
-2.91199e-12
-2.91262e-12
-2.91327e-12
-2.91392e-12
-2.91459e-12
-2.91527e-12
-2.91596e-12
-2.91666e-12
-2.91736e-12
-2.91806e-12
-2.91875e-12
-2.91942e-12
-2.92007e-12
-2.92069e-12
-2.92129e-12
-2.92186e-12
-2.9224e-12
-2.92293e-12
-2.92344e-12
-2.92392e-12
-2.92435e-12
-2.92468e-12
-2.92489e-12
-2.925e-12
-2.92505e-12
-2.92509e-12
-2.92514e-12
-8.95617e-09
-9.80152e-08
-2.03398e-07
-2.88947e-07
-3.60156e-07
-4.20574e-07
-4.72613e-07
-5.17947e-07
-5.57801e-07
-5.93106e-07
-6.24585e-07
-6.52808e-07
-6.7822e-07
-7.01172e-07
-7.21934e-07
-7.40719e-07
-7.5769e-07
-7.72977e-07
-7.86684e-07
-7.98901e-07
-8.09713e-07
-8.19203e-07
-8.27459e-07
-8.34583e-07
-8.4069e-07
-8.45909e-07
-8.50368e-07
-8.54187e-07
-8.57466e-07
-8.60287e-07
-8.62716e-07
-8.64804e-07
-8.66596e-07
-8.68128e-07
-8.69432e-07
-8.70534e-07
-8.71459e-07
-8.72229e-07
-8.72863e-07
-8.7338e-07
-8.73798e-07
-8.74133e-07
-8.74399e-07
-8.74612e-07
-8.7478e-07
-8.74912e-07
-8.75013e-07
-8.75088e-07
-8.75143e-07
-8.75179e-07
-8.75202e-07
-8.75212e-07
-8.75212e-07
)
;
    }
    inandouthalf31
    {
        type            cyclic;
        value           nonuniform List<scalar> 
110
(
8.75207e-07
8.92956e-07
9.11059e-07
9.29522e-07
9.48353e-07
9.67559e-07
9.87149e-07
1.00713e-06
1.02751e-06
1.04829e-06
1.06949e-06
1.09111e-06
1.11316e-06
1.13565e-06
1.15858e-06
1.18197e-06
1.20583e-06
1.23015e-06
1.25496e-06
1.28025e-06
1.30604e-06
1.33234e-06
1.35915e-06
1.38649e-06
1.41435e-06
1.44274e-06
1.47168e-06
1.50117e-06
1.53123e-06
1.56183e-06
1.59301e-06
1.62478e-06
1.65717e-06
1.69026e-06
1.72408e-06
1.75868e-06
1.79383e-06
1.73062e-06
1.76152e-06
1.79257e-06
1.82692e-06
1.86367e-06
1.90148e-06
1.94007e-06
1.97944e-06
2.01961e-06
2.0606e-06
2.10242e-06
2.14509e-06
2.18863e-06
2.23305e-06
2.27837e-06
2.32461e-06
2.37179e-06
2.41993e-06
2.46905e-06
2.51917e-06
2.5703e-06
2.62247e-06
2.6757e-06
2.73e-06
2.78542e-06
2.84195e-06
2.89964e-06
2.95849e-06
3.01854e-06
3.07981e-06
3.14232e-06
3.2061e-06
3.27118e-06
3.33757e-06
3.40532e-06
3.47444e-06
3.54496e-06
3.61691e-06
3.69032e-06
3.76523e-06
3.84165e-06
3.91963e-06
3.99918e-06
4.08036e-06
4.16318e-06
4.24768e-06
4.3339e-06
4.42186e-06
4.51161e-06
4.60319e-06
4.69662e-06
4.79195e-06
4.88921e-06
4.98845e-06
5.0897e-06
5.19301e-06
5.29842e-06
5.40596e-06
5.51569e-06
5.62764e-06
5.74187e-06
5.85841e-06
5.97732e-06
6.09864e-06
6.22243e-06
6.34873e-06
6.47759e-06
6.60907e-06
6.74322e-06
6.88009e-06
7.01973e-06
7.16221e-06
7.30759e-06
)
;
    }
    inandouthalf32
    {
        type            cyclic;
        value           nonuniform List<scalar> 
110
(
-8.75207e-07
-8.92956e-07
-9.11059e-07
-9.29522e-07
-9.48353e-07
-9.67559e-07
-9.87149e-07
-1.00713e-06
-1.02751e-06
-1.04829e-06
-1.06949e-06
-1.09111e-06
-1.11316e-06
-1.13565e-06
-1.15858e-06
-1.18197e-06
-1.20583e-06
-1.23015e-06
-1.25496e-06
-1.28025e-06
-1.30604e-06
-1.33234e-06
-1.35915e-06
-1.38649e-06
-1.41435e-06
-1.44274e-06
-1.47168e-06
-1.50117e-06
-1.53123e-06
-1.56183e-06
-1.59301e-06
-1.62478e-06
-1.65717e-06
-1.69026e-06
-1.72408e-06
-1.75868e-06
-1.79383e-06
-1.73062e-06
-1.76152e-06
-1.79257e-06
-1.82692e-06
-1.86367e-06
-1.90148e-06
-1.94007e-06
-1.97944e-06
-2.01961e-06
-2.0606e-06
-2.10242e-06
-2.14509e-06
-2.18863e-06
-2.23305e-06
-2.27837e-06
-2.32461e-06
-2.37179e-06
-2.41993e-06
-2.46905e-06
-2.51917e-06
-2.5703e-06
-2.62247e-06
-2.6757e-06
-2.73e-06
-2.78542e-06
-2.84195e-06
-2.89964e-06
-2.95849e-06
-3.01854e-06
-3.07981e-06
-3.14232e-06
-3.2061e-06
-3.27118e-06
-3.33757e-06
-3.40532e-06
-3.47444e-06
-3.54496e-06
-3.61691e-06
-3.69032e-06
-3.76523e-06
-3.84165e-06
-3.91963e-06
-3.99918e-06
-4.08036e-06
-4.16318e-06
-4.24768e-06
-4.3339e-06
-4.42186e-06
-4.51161e-06
-4.60319e-06
-4.69662e-06
-4.79195e-06
-4.88921e-06
-4.98845e-06
-5.0897e-06
-5.19301e-06
-5.29842e-06
-5.40596e-06
-5.51569e-06
-5.62764e-06
-5.74187e-06
-5.85841e-06
-5.97732e-06
-6.09864e-06
-6.22243e-06
-6.34873e-06
-6.47759e-06
-6.60907e-06
-6.74322e-06
-6.88009e-06
-7.01973e-06
-7.16221e-06
-7.30759e-06
)
;
    }
    inandouthalf41
    {
        type            cyclic;
        value           nonuniform List<scalar> 
50
(
6.54104e-06
6.54104e-06
6.54104e-06
6.54104e-06
6.54104e-06
6.54104e-06
6.54104e-06
6.54104e-06
6.54104e-06
6.54104e-06
6.54104e-06
6.54104e-06
6.54104e-06
6.54104e-06
6.54104e-06
6.54104e-06
6.54104e-06
6.54104e-06
6.54104e-06
6.54104e-06
6.54104e-06
6.54104e-06
6.54104e-06
6.54104e-06
6.54104e-06
6.54104e-06
6.54104e-06
6.54104e-06
6.54104e-06
6.54104e-06
6.54104e-06
6.54104e-06
6.54104e-06
6.54104e-06
6.54104e-06
6.54104e-06
6.54104e-06
6.54104e-06
6.54104e-06
6.54104e-06
6.54104e-06
6.54104e-06
6.54104e-06
6.54104e-06
6.54104e-06
6.54104e-06
6.54104e-06
6.54103e-06
6.54097e-06
6.53959e-06
)
;
    }
    inandouthalf42
    {
        type            cyclic;
        value           nonuniform List<scalar> 
50
(
-6.54104e-06
-6.54104e-06
-6.54104e-06
-6.54104e-06
-6.54104e-06
-6.54104e-06
-6.54104e-06
-6.54104e-06
-6.54104e-06
-6.54104e-06
-6.54104e-06
-6.54104e-06
-6.54104e-06
-6.54104e-06
-6.54104e-06
-6.54104e-06
-6.54104e-06
-6.54104e-06
-6.54104e-06
-6.54104e-06
-6.54104e-06
-6.54104e-06
-6.54104e-06
-6.54104e-06
-6.54104e-06
-6.54104e-06
-6.54104e-06
-6.54104e-06
-6.54104e-06
-6.54104e-06
-6.54104e-06
-6.54104e-06
-6.54104e-06
-6.54104e-06
-6.54104e-06
-6.54104e-06
-6.54104e-06
-6.54104e-06
-6.54104e-06
-6.54104e-06
-6.54104e-06
-6.54104e-06
-6.54104e-06
-6.54104e-06
-6.54104e-06
-6.54104e-06
-6.54104e-06
-6.54103e-06
-6.54097e-06
-6.53959e-06
)
;
    }
    top
    {
        type            symmetryPlane;
        value           uniform 0;
    }
    walls
    {
        type            fixedValue;
        value           uniform 0;
    }
    frontAndBackPlanes
    {
        type            empty;
        value           nonuniform 0();
    }
}


// ************************************************************************* //
