/*--------------------------------*- C++ -*----------------------------------*\
| =========                 |                                                 |
| \\      /  F ield         | OpenFOAM: The Open Source CFD Toolbox           |
|  \\    /   O peration     | Version:  2.4.x                                 |
|   \\  /    A nd           | Web:      www.OpenFOAM.org                      |
|    \\/     M anipulation  |                                                 |
\*---------------------------------------------------------------------------*/
FoamFile
{
    version     2.0;
    format      ascii;
    class       surfaceScalarField;
    location    "4.3";
    object      phib;
}
// * * * * * * * * * * * * * * * * * * * * * * * * * * * * * * * * * * * * * //

dimensions      [0 3 -1 0 0 0 0];

internalField   nonuniform List<scalar> 
359
(
9.45366e-13
2.68358e-12
4.32832e-12
5.83219e-12
7.32009e-12
8.84718e-12
1.04144e-11
1.20068e-11
1.36111e-11
1.52247e-11
1.68523e-11
1.84989e-11
2.0169e-11
2.1864e-11
2.35849e-11
2.53327e-11
2.71079e-11
2.89091e-11
3.07312e-11
3.25672e-11
3.44045e-11
3.62319e-11
3.80393e-11
3.98224e-11
4.15874e-11
4.33554e-11
4.51662e-11
4.70839e-11
4.91976e-11
5.16205e-11
5.44657e-11
5.77741e-11
6.13661e-11
6.47653e-11
6.7369e-11
6.8902e-11
6.95795e-11
6.98087e-11
6.98723e-11
6.98882e-11
6.98915e-11
6.98915e-11
6.98904e-11
6.98886e-11
6.98867e-11
6.98847e-11
6.98827e-11
6.98806e-11
6.98783e-11
6.9876e-11
6.98736e-11
6.9871e-11
6.98681e-11
6.98649e-11
6.98613e-11
6.98573e-11
6.98531e-11
6.98484e-11
6.98436e-11
6.98384e-11
6.98329e-11
6.98272e-11
6.98214e-11
6.98154e-11
6.98093e-11
6.98029e-11
6.97963e-11
6.97894e-11
6.97823e-11
6.97748e-11
6.9767e-11
6.97589e-11
6.97507e-11
6.97421e-11
6.97334e-11
6.97246e-11
6.97156e-11
6.97064e-11
6.9697e-11
6.96874e-11
6.96775e-11
6.96673e-11
6.96568e-11
6.96461e-11
6.9635e-11
6.96237e-11
6.96122e-11
6.96004e-11
6.95884e-11
6.95761e-11
6.95636e-11
6.95507e-11
6.95374e-11
6.95238e-11
6.95099e-11
6.94955e-11
6.94808e-11
6.94656e-11
6.94501e-11
6.94341e-11
6.94177e-11
6.94008e-11
6.93834e-11
6.93655e-11
6.9347e-11
6.9328e-11
6.93084e-11
6.92882e-11
6.92673e-11
6.92457e-11
6.92234e-11
6.92004e-11
6.91765e-11
6.91519e-11
6.91264e-11
6.91e-11
6.90726e-11
6.90443e-11
6.9015e-11
6.89846e-11
6.89532e-11
6.89206e-11
6.88868e-11
6.88517e-11
6.88153e-11
6.87775e-11
6.87381e-11
6.8697e-11
6.8654e-11
6.86089e-11
6.85618e-11
6.85122e-11
6.84599e-11
6.84042e-11
6.83447e-11
6.82818e-11
6.82151e-11
6.81426e-11
6.80603e-11
6.79685e-11
6.78751e-11
6.77752e-11
6.76505e-11
6.74939e-11
6.72627e-11
6.66505e-11
4.80257e-11
-9.91868e-10
-1.11491e-09
-1.0123e-09
-9.19084e-10
-8.44642e-10
-7.82838e-10
-7.25633e-10
-6.68035e-10
-6.08332e-10
-5.46977e-10
-4.85437e-10
-4.25411e-10
-3.68446e-10
-3.15665e-10
-2.6776e-10
-2.25021e-10
-1.8743e-10
-1.54759e-10
-1.26659e-10
-1.02706e-10
-8.24193e-11
-6.52614e-11
-5.0713e-11
-3.84438e-11
-2.8399e-11
-2.06102e-11
-1.49174e-11
-1.09276e-11
-8.17697e-12
-6.27236e-12
-4.9321e-12
-3.96888e-12
-3.26072e-12
-2.72763e-12
-2.31622e-12
-1.98988e-12
-1.72284e-12
-1.49646e-12
-1.29704e-12
-1.11518e-12
-9.46431e-13
-7.92456e-13
-6.59395e-13
-5.51863e-13
-4.67549e-13
-3.99112e-13
-3.40822e-13
-2.9122e-13
-2.49966e-13
-2.15417e-13
-1.85816e-13
-1.60451e-13
-1.39118e-13
-1.21246e-13
-1.0538e-13
-9.09312e-14
-7.85097e-14
-6.83779e-14
-5.93328e-14
-5.06683e-14
-4.33547e-14
-3.75798e-14
-3.21943e-14
-2.72284e-14
-2.32552e-14
-1.98018e-14
-1.66397e-14
-1.40985e-14
-1.19135e-14
-9.82807e-15
-8.16702e-15
-6.88311e-15
-5.6292e-15
-4.5522e-15
-3.73893e-15
-3.01454e-15
-2.41743e-15
-1.93244e-15
-1.50104e-15
-1.1794e-15
-9.1483e-16
-6.73642e-16
-4.98503e-16
-3.66971e-16
-2.7664e-16
-2.26602e-16
-1.8654e-16
-1.38675e-16
-7.36913e-17
2.13917e-16
2.1654e-18
2.01694e-18
1.87116e-18
1.72863e-18
1.58853e-18
1.45353e-18
1.30897e-18
1.17819e-18
1.05297e-18
9.34415e-19
8.00181e-19
6.92038e-19
5.83272e-19
4.72165e-19
3.74112e-19
2.86169e-19
1.98615e-19
1.22261e-19
4.50474e-20
-2.16837e-20
-8.94538e-20
-1.46944e-19
-2.05776e-19
-2.56624e-19
-3.08557e-19
-3.54983e-19
-4.0562e-19
-4.56055e-19
-5.10274e-19
-5.17903e-19
-5.66912e-19
-6.1365e-19
-6.56713e-19
-6.9366e-19
-7.27371e-19
-7.6412e-19
-7.94349e-19
-8.18604e-19
-8.31671e-19
-8.45048e-19
-8.46083e-19
-8.42464e-19
-8.30779e-19
-8.37827e-19
-8.348e-19
-8.29338e-19
-8.06098e-19
-7.91236e-19
-7.55734e-19
-7.12918e-19
-6.56257e-19
-6.19387e-19
-5.67419e-19
-5.13349e-19
-4.40972e-19
-3.79394e-19
-3.04544e-19
-2.33425e-19
-1.65956e-19
-1.32236e-19
-1.10434e-19
-9.46857e-20
3.50625e-20
4.76357e-20
5.9777e-20
7.10598e-20
8.11506e-20
9.30553e-20
1.00866e-19
1.07511e-19
1.08088e-19
1.14548e-19
1.11213e-19
1.09346e-19
1.01962e-19
1.03842e-19
1.00814e-19
9.69753e-20
8.59532e-20
8.01315e-20
6.63597e-20
5.28089e-20
3.24106e-20
1.56767e-20
-6.64722e-21
-3.04568e-20
-6.08234e-20
-9.44756e-20
-1.36066e-19
-1.90284e-19
-2.84431e-19
-4.53147e-19
-6.67266e-19
-8.95215e-19
-1.14011e-18
-1.38501e-18
-1.64436e-18
-1.90697e-18
-2.17042e-18
-2.46616e-18
-2.74257e-18
-3.02033e-18
-3.25393e-18
-3.55564e-18
-3.75761e-18
-3.98189e-18
-4.09761e-18
-4.62592e-18
-4.92899e-18
-5.24196e-18
-5.18768e-18
-5.42457e-18
-5.18501e-18
-4.94611e-18
-4.41085e-18
-4.1043e-18
-3.43011e-18
-2.73193e-18
-1.98989e-18
-2.68921e-19
-3.06245e-19
-1.62118e-18
)
;

boundaryField
{
    inandouthalf11
    {
        type            cyclic;
        value           nonuniform List<scalar> 
100
(
5.43663e-11
5.4255e-11
5.42528e-11
5.4332e-11
5.44123e-11
5.4485e-11
5.45579e-11
5.46321e-11
5.47067e-11
5.47824e-11
5.48596e-11
5.4938e-11
5.50177e-11
5.50986e-11
5.51809e-11
5.52648e-11
5.53504e-11
5.54376e-11
5.55262e-11
5.56162e-11
5.57065e-11
5.57973e-11
5.58875e-11
5.5977e-11
5.60658e-11
5.61544e-11
5.62444e-11
5.63385e-11
5.64404e-11
5.6555e-11
5.66883e-11
5.68452e-11
5.70227e-11
5.72051e-11
5.73604e-11
5.74642e-11
5.75165e-11
5.75375e-11
5.7546e-11
5.75499e-11
5.75537e-11
5.75571e-11
5.75604e-11
5.75646e-11
5.75687e-11
5.75732e-11
5.75781e-11
5.75829e-11
5.75885e-11
5.75949e-11
5.76012e-11
5.76082e-11
5.76156e-11
5.76236e-11
5.76318e-11
5.76411e-11
5.76504e-11
5.76607e-11
5.76713e-11
5.76823e-11
5.76943e-11
5.77063e-11
5.7719e-11
5.77318e-11
5.77451e-11
5.77586e-11
5.77726e-11
5.77871e-11
5.7802e-11
5.78174e-11
5.78337e-11
5.78507e-11
5.78678e-11
5.78857e-11
5.7904e-11
5.79229e-11
5.7942e-11
5.79616e-11
5.79816e-11
5.80021e-11
5.80231e-11
5.80447e-11
5.80669e-11
5.80897e-11
5.8113e-11
5.8137e-11
5.81615e-11
5.81865e-11
5.8212e-11
5.82381e-11
5.82647e-11
5.8292e-11
5.83199e-11
5.83484e-11
5.83777e-11
5.84076e-11
5.84383e-11
5.84697e-11
5.85018e-11
5.85347e-11
)
;
    }
    inandouthalf12
    {
        type            cyclic;
        value           nonuniform List<scalar> 
100
(
-5.43663e-11
-5.4255e-11
-5.42528e-11
-5.4332e-11
-5.44123e-11
-5.4485e-11
-5.45579e-11
-5.46321e-11
-5.47067e-11
-5.47824e-11
-5.48596e-11
-5.4938e-11
-5.50177e-11
-5.50986e-11
-5.51809e-11
-5.52648e-11
-5.53504e-11
-5.54376e-11
-5.55262e-11
-5.56162e-11
-5.57065e-11
-5.57973e-11
-5.58875e-11
-5.5977e-11
-5.60658e-11
-5.61544e-11
-5.62444e-11
-5.63385e-11
-5.64404e-11
-5.6555e-11
-5.66883e-11
-5.68452e-11
-5.70227e-11
-5.72051e-11
-5.73604e-11
-5.74642e-11
-5.75165e-11
-5.75375e-11
-5.7546e-11
-5.75499e-11
-5.75537e-11
-5.75571e-11
-5.75604e-11
-5.75646e-11
-5.75687e-11
-5.75732e-11
-5.75781e-11
-5.75829e-11
-5.75885e-11
-5.75949e-11
-5.76012e-11
-5.76082e-11
-5.76156e-11
-5.76236e-11
-5.76318e-11
-5.76411e-11
-5.76504e-11
-5.76607e-11
-5.76713e-11
-5.76823e-11
-5.76943e-11
-5.77063e-11
-5.7719e-11
-5.77318e-11
-5.77451e-11
-5.77586e-11
-5.77726e-11
-5.77871e-11
-5.7802e-11
-5.78174e-11
-5.78337e-11
-5.78507e-11
-5.78678e-11
-5.78857e-11
-5.7904e-11
-5.79229e-11
-5.7942e-11
-5.79616e-11
-5.79816e-11
-5.80021e-11
-5.80231e-11
-5.80447e-11
-5.80669e-11
-5.80897e-11
-5.8113e-11
-5.8137e-11
-5.81615e-11
-5.81865e-11
-5.8212e-11
-5.82381e-11
-5.82647e-11
-5.8292e-11
-5.83199e-11
-5.83484e-11
-5.83777e-11
-5.84076e-11
-5.84383e-11
-5.84697e-11
-5.85018e-11
-5.85347e-11
)
;
    }
    inandouthalf21
    {
        type            cyclic;
        value           nonuniform List<scalar> 
100
(
5.85684e-11
5.86029e-11
5.86382e-11
5.86744e-11
5.87116e-11
5.87496e-11
5.87887e-11
5.88288e-11
5.88699e-11
5.89122e-11
5.89556e-11
5.90002e-11
5.90461e-11
5.90933e-11
5.91419e-11
5.9192e-11
5.92435e-11
5.92967e-11
5.93514e-11
5.9408e-11
5.94663e-11
5.95266e-11
5.95889e-11
5.96533e-11
5.97199e-11
5.97888e-11
5.98602e-11
5.99344e-11
6.00115e-11
6.00918e-11
6.01754e-11
6.02624e-11
6.03534e-11
6.04492e-11
6.05511e-11
6.0659e-11
6.07723e-11
6.08927e-11
6.10261e-11
6.11793e-11
6.13459e-11
6.15046e-11
6.16934e-11
6.1939e-11
6.22416e-11
6.27734e-11
8.24488e-11
1.03146e-08
1.08476e-07
2.14038e-07
2.98091e-07
3.67884e-07
4.27298e-07
4.78667e-07
5.23601e-07
5.63288e-07
5.98636e-07
6.30359e-07
6.59021e-07
6.85075e-07
7.08884e-07
7.30741e-07
7.5088e-07
7.6949e-07
7.86721e-07
8.02691e-07
8.17492e-07
8.31193e-07
8.43843e-07
8.55476e-07
8.66112e-07
8.75763e-07
8.84435e-07
8.92138e-07
8.98887e-07
9.04712e-07
9.0966e-07
9.1379e-07
9.17177e-07
9.19905e-07
9.22057e-07
9.23716e-07
9.24955e-07
9.2584e-07
9.26426e-07
9.26758e-07
9.26873e-07
9.26803e-07
9.26571e-07
9.26198e-07
9.257e-07
9.25091e-07
9.24381e-07
9.23581e-07
9.22698e-07
9.2174e-07
9.20712e-07
9.19621e-07
9.1847e-07
9.17264e-07
)
;
    }
    inandouthalf22
    {
        type            cyclic;
        value           nonuniform List<scalar> 
100
(
-5.85684e-11
-5.86029e-11
-5.86382e-11
-5.86744e-11
-5.87116e-11
-5.87496e-11
-5.87887e-11
-5.88288e-11
-5.88699e-11
-5.89122e-11
-5.89556e-11
-5.90002e-11
-5.90461e-11
-5.90933e-11
-5.91419e-11
-5.9192e-11
-5.92435e-11
-5.92967e-11
-5.93514e-11
-5.9408e-11
-5.94663e-11
-5.95266e-11
-5.95889e-11
-5.96533e-11
-5.97199e-11
-5.97888e-11
-5.98602e-11
-5.99344e-11
-6.00115e-11
-6.00918e-11
-6.01754e-11
-6.02624e-11
-6.03534e-11
-6.04492e-11
-6.05511e-11
-6.0659e-11
-6.07723e-11
-6.08927e-11
-6.10261e-11
-6.11793e-11
-6.13459e-11
-6.15046e-11
-6.16934e-11
-6.1939e-11
-6.22416e-11
-6.27734e-11
-8.24488e-11
-1.03146e-08
-1.08476e-07
-2.14038e-07
-2.98091e-07
-3.67884e-07
-4.27298e-07
-4.78667e-07
-5.23601e-07
-5.63288e-07
-5.98636e-07
-6.30359e-07
-6.59021e-07
-6.85075e-07
-7.08884e-07
-7.30741e-07
-7.5088e-07
-7.6949e-07
-7.86721e-07
-8.02691e-07
-8.17492e-07
-8.31193e-07
-8.43843e-07
-8.55476e-07
-8.66112e-07
-8.75763e-07
-8.84435e-07
-8.92138e-07
-8.98887e-07
-9.04712e-07
-9.0966e-07
-9.1379e-07
-9.17177e-07
-9.19905e-07
-9.22057e-07
-9.23716e-07
-9.24955e-07
-9.2584e-07
-9.26426e-07
-9.26758e-07
-9.26873e-07
-9.26803e-07
-9.26571e-07
-9.26198e-07
-9.257e-07
-9.25091e-07
-9.24381e-07
-9.23581e-07
-9.22698e-07
-9.2174e-07
-9.20712e-07
-9.19621e-07
-9.1847e-07
-9.17264e-07
)
;
    }
    inandouthalf31
    {
        type            cyclic;
        value           nonuniform List<scalar> 
110
(
9.1601e-07
9.33258e-07
9.50752e-07
9.68494e-07
9.86485e-07
1.00473e-06
1.02322e-06
1.04196e-06
1.06096e-06
1.08021e-06
1.09972e-06
1.11948e-06
1.1395e-06
1.15978e-06
1.18032e-06
1.20112e-06
1.22217e-06
1.2435e-06
1.26508e-06
1.28694e-06
1.30906e-06
1.33145e-06
1.35412e-06
1.37707e-06
1.40031e-06
1.42383e-06
1.44766e-06
1.47179e-06
1.49624e-06
1.52103e-06
1.54618e-06
1.5717e-06
1.59763e-06
1.624e-06
1.65087e-06
1.67829e-06
1.70637e-06
1.73521e-06
1.76502e-06
1.79609e-06
1.82959e-06
1.86619e-06
1.90404e-06
1.94268e-06
1.9821e-06
2.02232e-06
2.06337e-06
2.10524e-06
2.14797e-06
2.19156e-06
2.23604e-06
2.28143e-06
2.32773e-06
2.37498e-06
2.42318e-06
2.47237e-06
2.52255e-06
2.57375e-06
2.62599e-06
2.67929e-06
2.73367e-06
2.78916e-06
2.84577e-06
2.90353e-06
2.96246e-06
3.02259e-06
3.08394e-06
3.14654e-06
3.21041e-06
3.27557e-06
3.34205e-06
3.40989e-06
3.4791e-06
3.54972e-06
3.62177e-06
3.69528e-06
3.77028e-06
3.84681e-06
3.92489e-06
4.00455e-06
4.08584e-06
4.16877e-06
4.25338e-06
4.33971e-06
4.4278e-06
4.51767e-06
4.60937e-06
4.70293e-06
4.79838e-06
4.89578e-06
4.99515e-06
5.09654e-06
5.19998e-06
5.30553e-06
5.41322e-06
5.52309e-06
5.6352e-06
5.74957e-06
5.86628e-06
5.98535e-06
6.10683e-06
6.23078e-06
6.35725e-06
6.48629e-06
6.61794e-06
6.75227e-06
6.88932e-06
7.02916e-06
7.17183e-06
7.3174e-06
)
;
    }
    inandouthalf32
    {
        type            cyclic;
        value           nonuniform List<scalar> 
110
(
-9.1601e-07
-9.33258e-07
-9.50752e-07
-9.68494e-07
-9.86485e-07
-1.00473e-06
-1.02322e-06
-1.04196e-06
-1.06096e-06
-1.08021e-06
-1.09972e-06
-1.11948e-06
-1.1395e-06
-1.15978e-06
-1.18032e-06
-1.20112e-06
-1.22217e-06
-1.2435e-06
-1.26508e-06
-1.28694e-06
-1.30906e-06
-1.33145e-06
-1.35412e-06
-1.37707e-06
-1.40031e-06
-1.42383e-06
-1.44766e-06
-1.47179e-06
-1.49624e-06
-1.52103e-06
-1.54618e-06
-1.5717e-06
-1.59763e-06
-1.624e-06
-1.65087e-06
-1.67829e-06
-1.70637e-06
-1.73521e-06
-1.76502e-06
-1.79609e-06
-1.82959e-06
-1.86619e-06
-1.90404e-06
-1.94268e-06
-1.9821e-06
-2.02232e-06
-2.06337e-06
-2.10524e-06
-2.14797e-06
-2.19156e-06
-2.23604e-06
-2.28143e-06
-2.32773e-06
-2.37498e-06
-2.42318e-06
-2.47237e-06
-2.52255e-06
-2.57375e-06
-2.62599e-06
-2.67929e-06
-2.73367e-06
-2.78916e-06
-2.84577e-06
-2.90353e-06
-2.96246e-06
-3.02259e-06
-3.08394e-06
-3.14654e-06
-3.21041e-06
-3.27557e-06
-3.34205e-06
-3.40989e-06
-3.4791e-06
-3.54972e-06
-3.62177e-06
-3.69528e-06
-3.77028e-06
-3.84681e-06
-3.92489e-06
-4.00455e-06
-4.08584e-06
-4.16877e-06
-4.25338e-06
-4.33971e-06
-4.4278e-06
-4.51767e-06
-4.60937e-06
-4.70293e-06
-4.79838e-06
-4.89578e-06
-4.99515e-06
-5.09654e-06
-5.19998e-06
-5.30553e-06
-5.41322e-06
-5.52309e-06
-5.6352e-06
-5.74957e-06
-5.86628e-06
-5.98535e-06
-6.10683e-06
-6.23078e-06
-6.35725e-06
-6.48629e-06
-6.61794e-06
-6.75227e-06
-6.88932e-06
-7.02916e-06
-7.17183e-06
-7.3174e-06
)
;
    }
    inandouthalf41
    {
        type            cyclic;
        value           nonuniform List<scalar> 
50
(
6.54982e-06
6.54982e-06
6.54982e-06
6.54982e-06
6.54982e-06
6.54982e-06
6.54982e-06
6.54982e-06
6.54982e-06
6.54982e-06
6.54982e-06
6.54982e-06
6.54982e-06
6.54982e-06
6.54982e-06
6.54982e-06
6.54982e-06
6.54982e-06
6.54982e-06
6.54982e-06
6.54982e-06
6.54982e-06
6.54982e-06
6.54982e-06
6.54982e-06
6.54982e-06
6.54982e-06
6.54982e-06
6.54982e-06
6.54982e-06
6.54982e-06
6.54982e-06
6.54982e-06
6.54982e-06
6.54982e-06
6.54982e-06
6.54982e-06
6.54982e-06
6.54982e-06
6.54982e-06
6.54982e-06
6.54982e-06
6.54982e-06
6.54982e-06
6.54982e-06
6.54982e-06
6.54982e-06
6.54982e-06
6.54982e-06
6.54982e-06
)
;
    }
    inandouthalf42
    {
        type            cyclic;
        value           nonuniform List<scalar> 
50
(
-6.54982e-06
-6.54982e-06
-6.54982e-06
-6.54982e-06
-6.54982e-06
-6.54982e-06
-6.54982e-06
-6.54982e-06
-6.54982e-06
-6.54982e-06
-6.54982e-06
-6.54982e-06
-6.54982e-06
-6.54982e-06
-6.54982e-06
-6.54982e-06
-6.54982e-06
-6.54982e-06
-6.54982e-06
-6.54982e-06
-6.54982e-06
-6.54982e-06
-6.54982e-06
-6.54982e-06
-6.54982e-06
-6.54982e-06
-6.54982e-06
-6.54982e-06
-6.54982e-06
-6.54982e-06
-6.54982e-06
-6.54982e-06
-6.54982e-06
-6.54982e-06
-6.54982e-06
-6.54982e-06
-6.54982e-06
-6.54982e-06
-6.54982e-06
-6.54982e-06
-6.54982e-06
-6.54982e-06
-6.54982e-06
-6.54982e-06
-6.54982e-06
-6.54982e-06
-6.54982e-06
-6.54982e-06
-6.54982e-06
-6.54982e-06
)
;
    }
    top
    {
        type            symmetryPlane;
        value           uniform 0;
    }
    walls
    {
        type            fixedValue;
        value           uniform 0;
    }
    frontAndBackPlanes
    {
        type            empty;
        value           nonuniform 0();
    }
}


// ************************************************************************* //
