/*--------------------------------*- C++ -*----------------------------------*\
| =========                 |                                                 |
| \\      /  F ield         | OpenFOAM: The Open Source CFD Toolbox           |
|  \\    /   O peration     | Version:  2.4.x                                 |
|   \\  /    A nd           | Web:      www.OpenFOAM.org                      |
|    \\/     M anipulation  |                                                 |
\*---------------------------------------------------------------------------*/
FoamFile
{
    version     2.0;
    format      ascii;
    class       volTensorField;
    location    "4.3";
    object      Tauf;
}
// * * * * * * * * * * * * * * * * * * * * * * * * * * * * * * * * * * * * * //

dimensions      [0 2 -2 0 0 0 0];

internalField   nonuniform List<tensor> 
360
(
(0 -1.08621e-07 0 -1.08621e-07 1.11823e-09 0 0 0 0)
(0 1.13442e-10 0 1.13442e-10 1.52884e-09 0 0 0 0)
(0 -7.702e-11 0 -7.702e-11 1.64574e-09 0 0 0 0)
(0 -1.59434e-10 0 -1.59434e-10 1.53539e-09 0 0 0 0)
(6.46235e-24 -1.52981e-10 0 -1.52981e-10 1.50166e-09 0 0 0 0)
(1.29247e-23 -1.45623e-10 0 -1.45623e-10 1.5272e-09 0 0 0 0)
(6.46235e-24 -1.47103e-10 0 -1.47103e-10 1.56348e-09 0 0 0 0)
(0 -1.48809e-10 0 -1.48809e-10 1.58909e-09 0 0 0 0)
(6.46235e-24 -1.50334e-10 0 -1.50334e-10 1.60361e-09 0 0 0 0)
(0 -1.52911e-10 0 -1.52911e-10 1.61476e-09 0 0 0 0)
(1.29247e-23 -1.55527e-10 0 -1.55527e-10 1.62884e-09 0 0 0 0)
(0 -1.58074e-10 0 -1.58074e-10 1.64773e-09 0 0 0 0)
(1.29247e-23 -1.60646e-10 0 -1.60646e-10 1.67046e-09 0 0 0 0)
(0 -1.63247e-10 0 -1.63247e-10 1.69523e-09 0 0 0 0)
(0 -1.66227e-10 0 -1.66227e-10 1.72114e-09 0 0 0 0)
(0 -1.6949e-10 0 -1.6949e-10 1.74794e-09 0 0 0 0)
(0 -1.72759e-10 0 -1.72759e-10 1.77486e-09 0 0 0 0)
(1.29247e-23 -1.75796e-10 0 -1.75796e-10 1.7999e-09 0 0 0 0)
(0 -1.78568e-10 0 -1.78568e-10 1.82037e-09 0 0 0 0)
(0 -1.80344e-10 0 -1.80344e-10 1.83285e-09 0 0 0 0)
(0 -1.81101e-10 0 -1.81101e-10 1.83452e-09 0 0 0 0)
(1.29247e-23 -1.80983e-10 0 -1.80983e-10 1.82493e-09 0 0 0 0)
(0 -1.79766e-10 0 -1.79766e-10 1.80632e-09 0 0 0 0)
(0 -1.78254e-10 0 -1.78254e-10 1.78462e-09 0 0 0 0)
(0 -1.7741e-10 0 -1.7741e-10 1.77025e-09 0 0 0 0)
(1.29247e-23 -1.78626e-10 0 -1.78626e-10 1.77785e-09 0 0 0 0)
(0 -1.84113e-10 0 -1.84113e-10 1.82666e-09 0 0 0 0)
(0 -1.95952e-10 0 -1.95952e-10 1.93974e-09 0 0 0 0)
(0 -2.16418e-10 0 -2.16418e-10 2.14162e-09 0 0 0 0)
(0 -2.47927e-10 0 -2.47927e-10 2.45072e-09 0 0 0 0)
(0 -2.90271e-10 0 -2.90271e-10 2.85531e-09 0 0 0 0)
(0 -3.34459e-10 0 -3.34459e-10 3.2639e-09 0 0 0 0)
(0 -3.59838e-10 0 -3.59838e-10 3.47428e-09 0 0 0 0)
(0 -3.37676e-10 0 -3.37676e-10 3.25059e-09 0 0 0 0)
(0 -2.59144e-10 0 -2.59144e-10 2.53612e-09 0 0 0 0)
(-1.29247e-23 -1.56045e-10 0 -1.56045e-10 1.58632e-09 0 0 0 0)
(0 -7.33304e-11 0 -7.33304e-11 7.77897e-10 0 0 0 0)
(0 -2.94976e-11 0 -2.94976e-11 2.99028e-10 0 0 0 0)
(0 -1.23737e-11 0 -1.23737e-11 9.25567e-11 0 0 0 0)
(0 -7.69984e-12 0 -7.69984e-12 2.44367e-11 0 0 0 0)
(0 -7.17816e-12 0 -7.17816e-12 5.72697e-12 0 0 0 0)
(0 -6.77055e-12 0 -6.77055e-12 4.15507e-13 0 0 0 0)
(-1.29247e-23 -7.48504e-12 0 -7.48504e-12 -1.00525e-12 0 0 0 0)
(0 -8.24076e-12 0 -8.24076e-12 -1.56841e-12 0 0 0 0)
(0 -8.59564e-12 0 -8.59564e-12 -1.96667e-12 0 0 0 0)
(0 -9.38711e-12 0 -9.38711e-12 -1.93572e-12 0 0 0 0)
(0 -9.72407e-12 0 -9.72407e-12 -2.09373e-12 0 0 0 0)
(0 -1.04715e-11 0 -1.04715e-11 -2.22307e-12 0 0 0 0)
(0 -1.20146e-11 0 -1.20146e-11 -2.10159e-12 0 0 0 0)
(0 -1.26658e-11 0 -1.26658e-11 -2.33815e-12 0 0 0 0)
(-1.29247e-23 -1.33241e-11 0 -1.33241e-11 -2.50001e-12 0 0 0 0)
(0 -1.43765e-11 0 -1.43765e-11 -2.63369e-12 0 0 0 0)
(0 -1.53506e-11 0 -1.53506e-11 -2.90084e-12 0 0 0 0)
(0 -1.6251e-11 0 -1.6251e-11 -3.26817e-12 0 0 0 0)
(0 -1.74755e-11 0 -1.74755e-11 -3.55418e-12 0 0 0 0)
(0 -1.85928e-11 0 -1.85928e-11 -3.91079e-12 0 0 0 0)
(0 -1.96092e-11 0 -1.96092e-11 -4.3162e-12 0 0 0 0)
(0 -2.09035e-11 0 -2.09035e-11 -4.50393e-12 0 0 0 0)
(0 -2.16265e-11 0 -2.16265e-11 -4.97817e-12 0 0 0 0)
(0 -2.29449e-11 0 -2.29449e-11 -5.14292e-12 0 0 0 0)
(0 -2.39849e-11 0 -2.39849e-11 -5.4136e-12 0 0 0 0)
(0 -2.47241e-11 0 -2.47241e-11 -5.6841e-12 0 0 0 0)
(0 -2.55562e-11 0 -2.55562e-11 -5.79517e-12 0 0 0 0)
(0 -2.60799e-11 0 -2.60799e-11 -6.00999e-12 0 0 0 0)
(0 -2.67208e-11 0 -2.67208e-11 -6.17193e-12 0 0 0 0)
(0 -2.7503e-11 0 -2.7503e-11 -6.39612e-12 0 0 0 0)
(0 -2.85062e-11 0 -2.85062e-11 -6.60707e-12 0 0 0 0)
(0 -2.94583e-11 0 -2.94583e-11 -6.8633e-12 0 0 0 0)
(0 -3.03622e-11 0 -3.03622e-11 -7.20848e-12 0 0 0 0)
(0 -3.1692e-11 0 -3.1692e-11 -7.51077e-12 0 0 0 0)
(0 -3.32229e-11 0 -3.32229e-11 -7.70195e-12 0 0 0 0)
(0 -3.40543e-11 0 -3.40543e-11 -8.08611e-12 0 0 0 0)
(0 -3.50846e-11 0 -3.50846e-11 -8.298e-12 0 0 0 0)
(0 -3.62629e-11 0 -3.62629e-11 -8.47035e-12 0 0 0 0)
(0 -3.72008e-11 0 -3.72008e-11 -8.67964e-12 0 0 0 0)
(0 -3.79915e-11 0 -3.79915e-11 -8.82498e-12 0 0 0 0)
(0 -3.86398e-11 0 -3.86398e-11 -9.033e-12 0 0 0 0)
(0 -3.95715e-11 0 -3.95715e-11 -9.18391e-12 0 0 0 0)
(0 -4.05555e-11 0 -4.05555e-11 -9.39144e-12 0 0 0 0)
(0 -4.14977e-11 0 -4.14977e-11 -9.65155e-12 0 0 0 0)
(0 -4.25611e-11 0 -4.25611e-11 -9.9229e-12 0 0 0 0)
(0 -4.37892e-11 0 -4.37892e-11 -1.01832e-11 0 0 0 0)
(0 -4.49703e-11 0 -4.49703e-11 -1.04834e-11 0 0 0 0)
(0 -4.61463e-11 0 -4.61463e-11 -1.07608e-11 0 0 0 0)
(0 -4.72964e-11 0 -4.72964e-11 -1.1029e-11 0 0 0 0)
(0 -4.84186e-11 0 -4.84186e-11 -1.12811e-11 0 0 0 0)
(0 -4.94944e-11 0 -4.94944e-11 -1.15222e-11 0 0 0 0)
(0 -5.05225e-11 0 -5.05225e-11 -1.17765e-11 0 0 0 0)
(0 -5.16094e-11 0 -5.16094e-11 -1.20257e-11 0 0 0 0)
(0 -5.27409e-11 0 -5.27409e-11 -1.22955e-11 0 0 0 0)
(0 -5.39057e-11 0 -5.39057e-11 -1.25959e-11 0 0 0 0)
(0 -5.51523e-11 0 -5.51523e-11 -1.29129e-11 0 0 0 0)
(0 -5.64697e-11 0 -5.64697e-11 -1.32489e-11 0 0 0 0)
(0 -5.7818e-11 0 -5.7818e-11 -1.3607e-11 0 0 0 0)
(0 -5.92008e-11 0 -5.92008e-11 -1.39752e-11 0 0 0 0)
(0 -6.06125e-11 0 -6.06125e-11 -1.43531e-11 0 0 0 0)
(0 -6.20467e-11 0 -6.20467e-11 -1.4742e-11 0 0 0 0)
(0 -6.35088e-11 0 -6.35088e-11 -1.5143e-11 0 0 0 0)
(0 -6.50122e-11 0 -6.50122e-11 -1.55574e-11 0 0 0 0)
(0 -6.65632e-11 0 -6.65632e-11 -1.59888e-11 0 0 0 0)
(0 -6.81666e-11 0 -6.81666e-11 -1.64405e-11 0 0 0 0)
(0 -6.98316e-11 0 -6.98316e-11 -1.69128e-11 0 0 0 0)
(0 -7.156e-11 0 -7.156e-11 -1.74076e-11 0 0 0 0)
(0 -7.33512e-11 0 -7.33512e-11 -1.79263e-11 0 0 0 0)
(0 -7.52094e-11 0 -7.52094e-11 -1.84694e-11 0 0 0 0)
(0 -7.71388e-11 0 -7.71388e-11 -1.90381e-11 0 0 0 0)
(0 -7.91441e-11 0 -7.91441e-11 -1.96341e-11 0 0 0 0)
(0 -8.12315e-11 0 -8.12315e-11 -2.02588e-11 0 0 0 0)
(0 -8.34072e-11 0 -8.34072e-11 -2.09137e-11 0 0 0 0)
(0 -8.56767e-11 0 -8.56767e-11 -2.16001e-11 0 0 0 0)
(0 -8.80456e-11 0 -8.80456e-11 -2.23191e-11 0 0 0 0)
(0 -9.05195e-11 0 -9.05195e-11 -2.30716e-11 0 0 0 0)
(0 -9.31043e-11 0 -9.31043e-11 -2.38584e-11 0 0 0 0)
(0 -9.5806e-11 0 -9.5806e-11 -2.46803e-11 0 0 0 0)
(0 -9.86312e-11 0 -9.86312e-11 -2.55379e-11 0 0 0 0)
(0 -1.01587e-10 0 -1.01587e-10 -2.6432e-11 0 0 0 0)
(0 -1.04681e-10 0 -1.04681e-10 -2.73635e-11 0 0 0 0)
(0 -1.07923e-10 0 -1.07923e-10 -2.83335e-11 0 0 0 0)
(0 -1.11321e-10 0 -1.11321e-10 -2.93439e-11 0 0 0 0)
(0 -1.14886e-10 0 -1.14886e-10 -3.03966e-11 0 0 0 0)
(0 -1.18627e-10 0 -1.18627e-10 -3.14944e-11 0 0 0 0)
(0 -1.22551e-10 0 -1.22551e-10 -3.26411e-11 0 0 0 0)
(0 -1.26666e-10 0 -1.26666e-10 -3.38429e-11 0 0 0 0)
(0 -1.30986e-10 0 -1.30986e-10 -3.51101e-11 0 0 0 0)
(0 -1.35539e-10 0 -1.35539e-10 -3.64592e-11 0 0 0 0)
(0 -1.40382e-10 0 -1.40382e-10 -3.79127e-11 0 0 0 0)
(0 -1.45598e-10 0 -1.45598e-10 -3.94946e-11 0 0 0 0)
(0 -1.51263e-10 0 -1.51263e-10 -4.12198e-11 0 0 0 0)
(0 -1.57389e-10 0 -1.57389e-10 -4.30876e-11 0 0 0 0)
(0 -1.63877e-10 0 -1.63877e-10 -4.50985e-11 0 0 0 0)
(0 -1.70641e-10 0 -1.70641e-10 -4.73083e-11 0 0 0 0)
(0 -1.77974e-10 0 -1.77974e-10 -4.98475e-11 0 0 0 0)
(0 -1.8678e-10 0 -1.8678e-10 -5.27796e-11 0 0 0 0)
(0 -1.97731e-10 0 -1.97731e-10 -5.59543e-11 0 0 0 0)
(0 -2.09788e-10 0 -2.09788e-10 -5.92767e-11 0 0 0 0)
(0 -2.21235e-10 0 -2.21235e-10 -6.3115e-11 0 0 0 0)
(0 -2.33674e-10 0 -2.33674e-10 -6.83002e-11 0 0 0 0)
(0 -2.53727e-10 0 -2.53727e-10 -7.53492e-11 0 0 0 0)
(0 -2.86635e-10 0 -2.86635e-10 -8.21967e-11 0 0 0 0)
(0 -3.19835e-10 0 -3.19835e-10 -8.57432e-11 0 0 0 0)
(0 -3.25265e-10 0 -3.25265e-10 -9.7003e-11 0 0 0 0)
(0 -3.47501e-10 0 -3.47501e-10 -1.13572e-10 0 0 0 0)
(0 -4.34384e-10 0 -4.34384e-10 -1.2988e-10 0 0 0 0)
(0 -5.48247e-10 0 -5.48247e-10 -1.47214e-10 0 0 0 0)
(0 -8.34474e-10 0 -8.34474e-10 -2.72372e-09 0 0 0 0)
(0 -2.02441e-08 0 -2.02441e-08 2.02961e-08 0 0 0 0)
(0 -1.08156e-05 0 -1.08156e-05 -9.34403e-08 0 0 0 0)
(0 -0.000249666 0 -0.000249666 -1.78991e-06 0 0 0 0)
(0 -0.0019476 0 -0.0019476 -4.4884e-06 0 0 0 0)
(0 -0.0034368 0 -0.0034368 4.15385e-06 0 0 0 0)
(0 -0.00383834 0 -0.00383834 2.07813e-06 0 0 0 0)
(0 -0.0039674 0 -0.0039674 2.63118e-06 0 0 0 0)
(0 -0.00395941 0 -0.00395941 2.33734e-06 0 0 0 0)
(0 -0.00387416 0 -0.00387416 2.36407e-06 0 0 0 0)
(0 -0.00374718 0 -0.00374718 2.58551e-06 0 0 0 0)
(0 -0.00359878 0 -0.00359878 2.88541e-06 0 0 0 0)
(0 -0.00344064 0 -0.00344064 3.16239e-06 0 0 0 0)
(0 -0.00327909 0 -0.00327909 3.35257e-06 0 0 0 0)
(0 -0.00311737 0 -0.00311737 3.42699e-06 0 0 0 0)
(0 -0.00295692 0 -0.00295692 3.38354e-06 0 0 0 0)
(0 -0.0027983 0 -0.0027983 3.23825e-06 0 0 0 0)
(0 -0.0026416 0 -0.0026416 3.0164e-06 0 0 0 0)
(0 -0.00248676 0 -0.00248676 2.74525e-06 0 0 0 0)
(0 -0.00233369 0 -0.00233369 2.44948e-06 0 0 0 0)
(0 -0.00218233 0 -0.00218233 2.14861e-06 0 0 0 0)
(0 -0.00203271 0 -0.00203271 1.85683e-06 0 0 0 0)
(0 -0.00188498 0 -0.00188498 1.58457e-06 0 0 0 0)
(0 -0.00173937 0 -0.00173937 1.34033e-06 0 0 0 0)
(0 -0.00159627 0 -0.00159627 1.12995e-06 0 0 0 0)
(0 -0.00145618 0 -0.00145618 9.52262e-07 0 0 0 0)
(0 -0.00131973 0 -0.00131973 7.96397e-07 0 0 0 0)
(0 -0.00118769 0 -0.00118769 6.48477e-07 0 0 0 0)
(0 -0.00106091 0 -0.00106091 5.04092e-07 0 0 0 0)
(0 -0.000940334 0 -0.000940334 3.7187e-07 0 0 0 0)
(0 -0.000826821 0 -0.000826821 2.63765e-07 0 0 0 0)
(0 -0.000721041 0 -0.000721041 1.8454e-07 0 0 0 0)
(0 -0.000623359 0 -0.000623359 1.30582e-07 0 0 0 0)
(0 -0.000533792 0 -0.000533792 9.4832e-08 0 0 0 0)
(0 -0.000452047 0 -0.000452047 7.09587e-08 0 0 0 0)
(0 -0.000377598 0 -0.000377598 5.46463e-08 0 0 0 0)
(0 -0.000309781 0 -0.000309781 4.32406e-08 0 0 0 0)
(0 -0.000247884 0 -0.000247884 3.51339e-08 0 0 0 0)
(0 -0.000191206 0 -0.000191206 2.93386e-08 0 0 0 0)
(0 -0.000139101 0 -0.000139101 2.52417e-08 0 0 0 0)
(0 -9.09943e-05 0 -9.09943e-05 2.24568e-08 0 0 0 0)
(0 -4.6392e-05 0 -4.6392e-05 2.07057e-08 0 0 0 0)
(0 -4.87614e-06 0 -4.87614e-06 1.96805e-08 0 0 0 0)
(0 3.39015e-05 0 3.39015e-05 1.89063e-08 0 0 0 0)
(0 7.02268e-05 0 7.02268e-05 1.7766e-08 0 0 0 0)
(0 0.000104331 0 0.000104331 1.58324e-08 0 0 0 0)
(0 0.000136398 0 0.000136398 1.3273e-08 0 0 0 0)
(0 0.000166574 0 0.000166574 1.07735e-08 0 0 0 0)
(0 0.000194982 0 0.000194982 8.89934e-09 0 0 0 0)
(0 0.000221724 0 0.000221724 7.62792e-09 0 0 0 0)
(0 0.000246891 0 0.000246891 6.60107e-09 0 0 0 0)
(0 0.00027056 0 0.00027056 5.63709e-09 0 0 0 0)
(0 0.000292798 0 0.000292798 4.80001e-09 0 0 0 0)
(0 0.000313661 0 0.000313661 4.13313e-09 0 0 0 0)
(0 0.000333202 0 0.000333202 3.56561e-09 0 0 0 0)
(0 0.000351468 0 0.000351468 3.04117e-09 0 0 0 0)
(0 0.0003685 0 0.0003685 2.59414e-09 0 0 0 0)
(0 0.000384493 0 0.000384493 2.26332e-09 0 0 0 0)
(2.96355e-17 0.000399595 0 0.000399595 1.99192e-09 0 0 0 0)
(0 0.000413778 0 0.000413778 1.69577e-09 0 0 0 0)
(0 0.000427006 0 0.000427006 1.40892e-09 0 0 0 0)
(-2.82206e-17 0.000439246 0 0.000439246 1.22171e-09 0 0 0 0)
(0 0.00045046 0 0.00045046 1.09499e-09 0 0 0 0)
(2.71719e-17 0.00046061 0 0.00046061 9.30749e-10 0 0 0 0)
(0 0.000469657 0 0.000469657 7.6112e-10 0 0 0 0)
(-2.60467e-17 0.000477559 0 0.000477559 6.55915e-10 0 0 0 0)
(0 0.000484273 0 0.000484273 5.7561e-10 0 0 0 0)
(0 0.000489758 0 0.000489758 4.8027e-10 0 0 0 0)
(0 0.000493967 0 0.000493967 4.00005e-10 0 0 0 0)
(-2.35829e-17 0.000496855 0 0.000496855 3.39714e-10 0 0 0 0)
(0 0.000498375 0 0.000498375 2.81114e-10 0 0 0 0)
(0 0.00049848 0 0.00049848 2.35515e-10 0 0 0 0)
(0 0.000497122 0 0.000497122 2.02508e-10 0 0 0 0)
(0 0.000494254 0 0.000494254 1.64125e-10 0 0 0 0)
(0 0.000489826 0 0.000489826 1.29695e-10 0 0 0 0)
(1.93823e-17 0.000483792 0 0.000483792 1.10186e-10 0 0 0 0)
(0 0.000476104 0 0.000476104 9.24347e-11 0 0 0 0)
(1.78497e-17 0.000466718 0 0.000466718 7.22267e-11 0 0 0 0)
(0 0.000455591 0 0.000455591 5.69634e-11 0 0 0 0)
(1.62508e-17 0.000442684 0 0.000442684 4.56428e-11 0 0 0 0)
(0 0.00042796 0 0.00042796 3.61924e-11 0 0 0 0)
(0 0.000411391 0 0.000411391 2.84988e-11 0 0 0 0)
(0 0.000392955 0 0.000392955 2.15452e-11 0 0 0 0)
(0 0.000372641 0 0.000372641 1.64011e-11 0 0 0 0)
(0 0.000350449 0 0.000350449 1.29078e-11 0 0 0 0)
(-1.1057e-17 0.000326397 0 0.000326397 9.47089e-12 0 0 0 0)
(0 0.000300526 0 0.000300526 6.32449e-12 0 0 0 0)
(0 0.000272903 0 0.000272903 3.69466e-12 0 0 0 0)
(0 0.000243633 0 0.000243633 9.21838e-13 0 0 0 0)
(0 0.000212874 0 0.000212874 5.39599e-12 0 0 0 0)
(0 0.000180852 0 0.000180852 -5.80922e-12 0 0 0 0)
(0 0.00014789 0 0.00014789 1.12273e-11 0 0 0 0)
(0 0.000114452 0 0.000114452 -5.22801e-12 0 0 0 0)
(0 8.12459e-05 0 8.12459e-05 7.00865e-12 0 0 0 0)
(0 4.95029e-05 0 4.95029e-05 -7.84038e-12 0 0 0 0)
(0 1.94861e-05 0 1.94861e-05 4.57635e-12 0 0 0 0)
(0 2.23372e-06 0 2.23372e-06 -1.24175e-12 0 0 0 0)
(0 1.18279e-07 0 1.18279e-07 4.22031e-13 0 0 0 0)
(0 6.85949e-09 0 6.85949e-09 -3.88707e-13 0 0 0 0)
(1.78494e-19 3.00536e-09 0 3.00536e-09 3.8248e-13 0 0 0 0)
(-1.74941e-19 2.39375e-09 0 2.39375e-09 -3.77005e-13 0 0 0 0)
(0 1.93859e-09 0 1.93859e-09 3.71667e-13 0 0 0 0)
(0 1.57417e-09 0 1.57417e-09 -3.6686e-13 0 0 0 0)
(1.64707e-19 1.27601e-09 0 1.27601e-09 3.62153e-13 0 0 0 0)
(0 1.03012e-09 0 1.03012e-09 -3.57904e-13 0 0 0 0)
(0 8.27955e-10 0 8.27955e-10 3.53712e-13 0 0 0 0)
(1.55071e-19 6.62489e-10 0 6.62489e-10 -3.49879e-13 0 0 0 0)
(0 5.27543e-10 0 5.27543e-10 3.46054e-13 0 0 0 0)
(0 4.18071e-10 0 4.18071e-10 -3.42506e-13 0 0 0 0)
(0 3.29926e-10 0 3.29926e-10 3.38936e-13 0 0 0 0)
(0 2.59408e-10 0 2.59408e-10 -3.35564e-13 0 0 0 0)
(0 2.03212e-10 0 2.03212e-10 3.3214e-13 0 0 0 0)
(0 1.5857e-10 0 1.5857e-10 -3.28854e-13 0 0 0 0)
(0 1.23244e-10 0 1.23244e-10 3.25509e-13 0 0 0 0)
(0 9.54021e-11 0 9.54021e-11 -3.22264e-13 0 0 0 0)
(0 7.35359e-11 0 7.35359e-11 3.18941e-13 0 0 0 0)
(0 5.64191e-11 0 5.64191e-11 -3.15673e-13 0 0 0 0)
(0 4.30688e-11 0 4.30688e-11 3.12319e-13 0 0 0 0)
(0 3.27026e-11 0 3.27026e-11 -3.08994e-13 0 0 0 0)
(0 2.46943e-11 0 2.46943e-11 3.05578e-13 0 0 0 0)
(0 1.85414e-11 0 1.85414e-11 -3.02177e-13 0 0 0 0)
(0 1.38409e-11 0 1.38409e-11 2.98676e-13 0 0 0 0)
(-1.12435e-19 1.02709e-11 0 1.02709e-11 -2.9517e-13 0 0 0 0)
(0 7.57567e-12 0 7.57567e-12 2.91584e-13 0 0 0 0)
(0 5.55324e-12 0 5.55324e-12 -2.87991e-13 0 0 0 0)
(0 4.04515e-12 0 4.04515e-12 2.84298e-13 0 0 0 0)
(0 2.9277e-12 0 2.9277e-12 -2.80597e-13 0 0 0 0)
(0 2.10532e-12 0 2.10532e-12 2.76808e-13 0 0 0 0)
(0 1.50383e-12 0 1.50383e-12 -2.73002e-13 0 0 0 0)
(0 1.06667e-12 0 1.06667e-12 2.69115e-13 0 0 0 0)
(0 7.51245e-13 0 7.51245e-13 -2.65208e-13 0 0 0 0)
(0 5.25569e-13 0 5.25569e-13 2.61233e-13 0 0 0 0)
(0 3.65303e-13 0 3.65303e-13 -2.57228e-13 0 0 0 0)
(0 2.51877e-13 0 2.51877e-13 2.5317e-13 0 0 0 0)
(0 1.72025e-13 0 1.72025e-13 -2.49073e-13 0 0 0 0)
(0 1.16543e-13 0 1.16543e-13 2.44941e-13 0 0 0 0)
(0 7.85904e-14 0 7.85904e-14 -2.40769e-13 0 0 0 0)
(0 5.26695e-14 0 5.26695e-14 2.36564e-13 0 0 0 0)
(0 3.4895e-14 0 3.4895e-14 -2.32326e-13 0 0 0 0)
(0 2.2991e-14 0 2.2991e-14 2.28063e-13 0 0 0 0)
(0 1.50497e-14 0 1.50497e-14 -2.2376e-13 0 0 0 0)
(0 9.72179e-15 0 9.72179e-15 2.19446e-13 0 0 0 0)
(-1.50452e-19 6.19637e-15 0 6.19637e-15 -2.15085e-13 0 0 0 0)
(0 3.89277e-15 0 3.89277e-15 2.10731e-13 0 0 0 0)
(0 2.41972e-15 0 2.41972e-15 -2.06325e-13 0 0 0 0)
(0 1.43453e-15 0 1.43453e-15 2.01932e-13 0 0 0 0)
(0 8.55868e-16 0 8.55868e-16 -1.97489e-13 0 0 0 0)
(0 6.50452e-16 0 6.50452e-16 1.93069e-13 0 0 0 0)
(0 4.53703e-16 0 4.53703e-16 -1.88592e-13 0 0 0 0)
(0 1.99105e-16 0 1.99105e-16 1.84147e-13 0 0 0 0)
(0 -3.77285e-17 0 -3.77285e-17 -1.79646e-13 0 0 0 0)
(0 -1.02772e-16 0 -1.02772e-16 1.75178e-13 0 0 0 0)
(-1.23064e-19 9.29748e-17 0 9.29748e-17 -1.70668e-13 0 0 0 0)
(0 1.54539e-16 0 1.54539e-16 1.66173e-13 0 0 0 0)
(0 5.5207e-17 0 5.5207e-17 -1.61656e-13 0 0 0 0)
(1.15864e-19 -6.79835e-17 0 -6.79835e-17 1.57155e-13 0 0 0 0)
(0 1.22076e-18 0 1.22076e-18 -1.52607e-13 0 0 0 0)
(0 1.97558e-17 0 1.97558e-17 1.48075e-13 0 0 0 0)
(0 -2.99987e-17 0 -2.99987e-17 -1.43528e-13 0 0 0 0)
(0 6.1263e-17 0 6.1263e-17 1.38976e-13 0 0 0 0)
(0 -8.87303e-17 0 -8.87303e-17 -1.34407e-13 0 0 0 0)
(0 -1.68769e-16 0 -1.68769e-16 1.29829e-13 0 0 0 0)
(0 1.57434e-16 0 1.57434e-16 -1.25233e-13 0 0 0 0)
(0 2.12215e-16 0 2.12215e-16 1.20622e-13 0 0 0 0)
(0 -1.13836e-16 0 -1.13836e-16 -1.15989e-13 0 0 0 0)
(0 -1.91535e-16 0 -1.91535e-16 1.11403e-13 0 0 0 0)
(0 -2.60463e-17 0 -2.60463e-17 -1.22131e-13 0 0 0 0)
(0 -3.29284e-17 0 -3.29284e-17 1.20093e-13 0 0 0 0)
(0 -1.52995e-17 0 -1.52995e-17 -1.18108e-13 0 0 0 0)
(0 5.57718e-17 0 5.57718e-17 1.16108e-13 0 0 0 0)
(0 3.30872e-18 0 3.30872e-18 -1.14093e-13 0 0 0 0)
(0 -1.01644e-17 0 -1.01644e-17 1.1206e-13 0 0 0 0)
(0 1.51407e-17 0 1.51407e-17 -1.10014e-13 0 0 0 0)
(0 -3.49401e-18 0 -3.49401e-18 1.07947e-13 0 0 0 0)
(0 -1.52995e-17 0 -1.52995e-17 -1.05869e-13 0 0 0 0)
(0 -2.19699e-17 0 -2.19699e-17 1.03765e-13 0 0 0 0)
(0 1.85818e-17 0 1.85818e-17 -1.01652e-13 0 0 0 0)
(0 3.50989e-17 0 3.50989e-17 9.95103e-14 0 0 0 0)
(0 -1.21496e-17 0 -1.21496e-17 -9.73614e-14 0 0 0 0)
(0 -1.87935e-18 0 -1.87935e-18 9.51809e-14 0 0 0 0)
(0 2.83227e-18 0 2.83227e-18 -9.2995e-14 0 0 0 0)
(0 5.02926e-18 0 5.02926e-18 9.07715e-14 0 0 0 0)
(0 1.11438e-17 0 1.11438e-17 -8.85484e-14 0 0 0 0)
(0 -1.21761e-17 0 -1.21761e-17 8.62741e-14 0 0 0 0)
(0 -2.22346e-18 0 -2.22346e-18 -8.40313e-14 0 0 0 0)
(0 -1.90582e-18 0 -1.90582e-18 8.16871e-14 0 0 0 0)
(0 -1.2282e-17 0 -1.2282e-17 -7.94229e-14 0 0 0 0)
(0 1.32614e-17 0 1.32614e-17 7.702e-14 0 0 0 0)
(0 1.36849e-17 0 1.36849e-17 -7.47119e-14 0 0 0 0)
(0 -1.11173e-17 0 -1.11173e-17 7.22528e-14 0 0 0 0)
(0 4.87044e-18 0 4.87044e-18 -6.98942e-14 0 0 0 0)
(0 1.02438e-17 0 1.02438e-17 6.73753e-14 0 0 0 0)
(0 -1.68348e-17 0 -1.68348e-17 -6.49619e-14 0 0 0 0)
(0 -2.09641e-17 0 -2.09641e-17 6.2375e-14 0 0 0 0)
(0 -4.4628e-17 0 -4.4628e-17 -5.98943e-14 0 0 0 0)
(0 -4.01017e-17 0 -4.01017e-17 5.72435e-14 0 0 0 0)
(0 -1.19749e-16 0 -1.19749e-16 -5.46849e-14 0 0 0 0)
(0 3.44107e-19 0 3.44107e-19 5.19542e-14 0 0 0 0)
(0 1.13158e-16 0 1.13158e-16 -4.92938e-14 0 0 0 0)
(0 2.9805e-17 0 2.9805e-17 4.64883e-14 0 0 0 0)
(0 3.52048e-17 0 3.52048e-17 -4.37564e-14 0 0 0 0)
(0 9.34383e-18 0 9.34383e-18 4.07834e-14 0 0 0 0)
(0 1.46907e-17 0 1.46907e-17 -3.79224e-14 0 0 0 0)
(0 1.06409e-17 0 1.06409e-17 3.48732e-14 0 0 0 0)
(0 -1.06409e-17 0 -1.06409e-17 -3.17908e-14 0 0 0 0)
(0 -5.56924e-17 0 -5.56924e-17 2.85795e-14 0 0 0 0)
(0 3.22931e-18 0 3.22931e-18 -2.51691e-14 0 0 0 0)
(0 1.13714e-16 0 1.13714e-16 2.17281e-14 0 0 0 0)
(0 5.24102e-17 0 5.24102e-17 -1.78098e-14 0 0 0 0)
(0 -5.91335e-17 0 -5.91335e-17 1.36494e-14 0 0 0 0)
(0 -4.35957e-17 0 -4.35957e-17 -8.03513e-15 0 0 0 0)
(0 1.30496e-17 0 1.30496e-17 7.88785e-17 0 0 0 0)
(0 1.46378e-17 0 1.46378e-17 6.47298e-15 0 0 0 0)
(0 -9.23795e-18 0 -9.23795e-18 -8.34862e-15 0 0 0 0)
(0 -3.52577e-17 0 -3.52577e-17 8.77611e-15 0 0 0 0)
(0 -2.45375e-17 0 -2.45375e-17 -4.15111e-15 0 0 0 0)
)
;

boundaryField
{
    inandouthalf11
    {
        type            cyclic;
    }
    inandouthalf12
    {
        type            cyclic;
    }
    inandouthalf21
    {
        type            cyclic;
    }
    inandouthalf22
    {
        type            cyclic;
    }
    inandouthalf31
    {
        type            cyclic;
    }
    inandouthalf32
    {
        type            cyclic;
    }
    inandouthalf41
    {
        type            cyclic;
    }
    inandouthalf42
    {
        type            cyclic;
    }
    top
    {
        type            symmetryPlane;
    }
    walls
    {
        type            zeroGradient;
    }
    frontAndBackPlanes
    {
        type            empty;
    }
}


// ************************************************************************* //
