/*--------------------------------*- C++ -*----------------------------------*\
| =========                 |                                                 |
| \\      /  F ield         | OpenFOAM: The Open Source CFD Toolbox           |
|  \\    /   O peration     | Version:  2.4.x                                 |
|   \\  /    A nd           | Web:      www.OpenFOAM.org                      |
|    \\/     M anipulation  |                                                 |
\*---------------------------------------------------------------------------*/
FoamFile
{
    version     2.0;
    format      ascii;
    class       volScalarField;
    location    "4.3";
    object      Theta_0;
}
// * * * * * * * * * * * * * * * * * * * * * * * * * * * * * * * * * * * * * //

dimensions      [0 2 -2 0 0 0 0];

internalField   nonuniform List<scalar> 
360
(
6.67259e-21
6.70648e-21
6.69951e-21
6.69216e-21
6.69219e-21
6.69413e-21
6.69584e-21
6.69694e-21
6.69752e-21
6.69796e-21
6.69861e-21
6.69952e-21
6.70062e-21
6.70183e-21
6.70311e-21
6.70445e-21
6.70584e-21
6.70717e-21
6.70829e-21
6.709e-21
6.70912e-21
6.70861e-21
6.7076e-21
6.7064e-21
6.70552e-21
6.70571e-21
6.70796e-21
6.7137e-21
6.72508e-21
6.74528e-21
6.7775e-21
6.81867e-21
6.84704e-21
6.82645e-21
6.75743e-21
6.69444e-21
6.66782e-21
6.6621e-21
6.66142e-21
6.66136e-21
6.66136e-21
6.66136e-21
6.66135e-21
6.66135e-21
6.66135e-21
6.66135e-21
6.66135e-21
6.66135e-21
6.66135e-21
6.66135e-21
6.66135e-21
6.66135e-21
6.66135e-21
6.66135e-21
6.66135e-21
6.66135e-21
6.66135e-21
6.66135e-21
6.66135e-21
6.66135e-21
6.66135e-21
6.66135e-21
6.66135e-21
6.66135e-21
6.66135e-21
6.66135e-21
6.66134e-21
6.66134e-21
6.66134e-21
6.66134e-21
6.66134e-21
6.66134e-21
6.66134e-21
6.66134e-21
6.66134e-21
6.66134e-21
6.66134e-21
6.66134e-21
6.66133e-21
6.66133e-21
6.66133e-21
6.66133e-21
6.66133e-21
6.66133e-21
6.66133e-21
6.66133e-21
6.66133e-21
6.66133e-21
6.66132e-21
6.66132e-21
6.66132e-21
6.66132e-21
6.66132e-21
6.66132e-21
6.66132e-21
6.66131e-21
6.66131e-21
6.66131e-21
6.66131e-21
6.66124e-21
0
0
0
0
0
0
0
0
0
0
0
0
0
0
0
6.66128e-21
6.66128e-21
6.66127e-21
6.66127e-21
6.66127e-21
6.66126e-21
6.66126e-21
6.66126e-21
6.66126e-21
6.66125e-21
6.66125e-21
6.66125e-21
6.66124e-21
6.66124e-21
6.66124e-21
6.66123e-21
6.66123e-21
6.66122e-21
6.65805e-21
3.03424e-20
2.48346e-19
2.25101e-18
2.21654e-17
2.41575e-16
2.966e-15
4.15571e-14
6.71387e-13
1.26605e-11
2.8739e-10
1.24616e-08
1.00878e-06
2.88677e-05
0.000376958
0.0018723
0.00326376
0.00392901
0.00434081
0.00462083
0.0048214
0.00496531
0.00506242
0.00511714
0.00513209
0.00511006
0.0050543
0.00496892
0.00485861
0.00472831
0.00458305
0.00442781
0.00426738
0.00410617
0.00394816
0.00379663
0.00365412
0.00352221
0.00340151
0.00329177
0.00319216
0.00310166
0.00301926
0.00294405
0.00287525
0.00281218
0.00275424
0.00270088
0.00265161
0.00260596
0.00256353
0.00252392
0.00248677
0.00245174
0.0024185
0.00238675
0.00235621
0.00232663
0.0022978
0.00226956
0.00224181
0.00221442
0.00218732
0.00216043
0.00213369
0.00210705
0.00208048
0.00205393
0.00202709
0.00199968
0.00197165
0.00194296
0.00191357
0.00188343
0.00185252
0.00182079
0.00178818
0.00175466
0.00172018
0.00168468
0.00164812
0.00161043
0.00157154
0.0015314
0.00148991
0.00144701
0.00140259
0.00135656
0.00130879
0.00125916
0.0012075
0.00115364
0.00109738
0.00103845
0.000976561
0.000911322
0.000842254
0.000768722
0.000689855
0.000604405
0.000510426
0.000404503
0.000279201
0
0
0
0
0
0
0
0
0
0
0
0
0
0
0
0
0
0
0
0
0
0
0
0
0
0
0
0
0
0
0
0
0
0
0
0
0
0
0
0
0
0
0
0
0
0
0
0
0
0
0
0
0
0
0
0
0
0
0
0
0
0
0
0
0
0
0
0
0
0
0
0
0
0
0
0
0
0
0
0
0
0
0
0
0
0
0
0
0
0
0
0
0
0
0
0
0
0
0
0
0
0
0
0
0
0
0
0
0
0
0
0
0
0
0
0
0
0
0
0
0
0
0
0
)
;

boundaryField
{
    inandouthalf11
    {
        type            cyclic;
    }
    inandouthalf12
    {
        type            cyclic;
    }
    inandouthalf21
    {
        type            cyclic;
    }
    inandouthalf22
    {
        type            cyclic;
    }
    inandouthalf31
    {
        type            cyclic;
    }
    inandouthalf32
    {
        type            cyclic;
    }
    inandouthalf41
    {
        type            cyclic;
    }
    inandouthalf42
    {
        type            cyclic;
    }
    top
    {
        type            symmetryPlane;
    }
    walls
    {
        type            zeroGradient;
    }
    frontAndBackPlanes
    {
        type            empty;
    }
}


// ************************************************************************* //
