/*--------------------------------*- C++ -*----------------------------------*\
| =========                 |                                                 |
| \\      /  F ield         | OpenFOAM: The Open Source CFD Toolbox           |
|  \\    /   O peration     | Version:  2.4.x                                 |
|   \\  /    A nd           | Web:      www.OpenFOAM.org                      |
|    \\/     M anipulation  |                                                 |
\*---------------------------------------------------------------------------*/
FoamFile
{
    version     2.0;
    format      ascii;
    class       volVectorField;
    location    "4.3";
    object      Ub_0;
}
// * * * * * * * * * * * * * * * * * * * * * * * * * * * * * * * * * * * * * //

dimensions      [0 1 -1 0 0 0 0];

internalField   nonuniform List<vector> 
360
(
(-5.4394e-05 1.11944e-07 0)
(-5.42827e-05 4.47224e-07 0)
(-5.42805e-05 8.76452e-07 0)
(-5.43597e-05 1.27019e-06 0)
(-5.444e-05 1.64424e-06 0)
(-5.45127e-05 2.02111e-06 0)
(-5.45856e-05 2.40792e-06 0)
(-5.46599e-05 2.80293e-06 0)
(-5.47345e-05 3.20255e-06 0)
(-5.48102e-05 3.60483e-06 0)
(-5.48874e-05 4.01002e-06 0)
(-5.49658e-05 4.41934e-06 0)
(-5.50455e-05 4.83398e-06 0)
(-5.51265e-05 5.25466e-06 0)
(-5.52088e-05 5.68169e-06 0)
(-5.52927e-05 6.11532e-06 0)
(-5.53783e-05 6.55576e-06 0)
(-5.54655e-05 7.00285e-06 0)
(-5.55541e-05 7.4558e-06 0)
(-5.56441e-05 7.91312e-06 0)
(-5.57345e-05 8.37229e-06 0)
(-5.58252e-05 8.83043e-06 0)
(-5.59155e-05 9.2848e-06 0)
(-5.6005e-05 9.73361e-06 0)
(-5.60938e-05 1.01771e-05 0)
(-5.61824e-05 1.06188e-05 0)
(-5.62724e-05 1.10661e-05 0)
(-5.63666e-05 1.15323e-05 0)
(-5.64685e-05 1.20363e-05 0)
(-5.65831e-05 1.26035e-05 0)
(-5.67165e-05 1.32622e-05 0)
(-5.68735e-05 1.40317e-05 0)
(-5.70511e-05 1.48946e-05 0)
(-5.72334e-05 1.57689e-05 0)
(-5.73886e-05 1.65193e-05 0)
(-5.74923e-05 1.70358e-05 0)
(-5.75444e-05 1.73112e-05 0)
(-5.75655e-05 1.74239e-05 0)
(-5.75739e-05 1.74603e-05 0)
(-5.75778e-05 1.747e-05 0)
(-5.75816e-05 1.74724e-05 0)
(-5.7585e-05 1.74729e-05 0)
(-5.75883e-05 1.74727e-05 0)
(-5.75925e-05 1.74724e-05 0)
(-5.75966e-05 1.74719e-05 0)
(-5.76011e-05 1.74714e-05 0)
(-5.7606e-05 1.74709e-05 0)
(-5.76108e-05 1.74703e-05 0)
(-5.76164e-05 1.74698e-05 0)
(-5.76228e-05 1.74693e-05 0)
(-5.76291e-05 1.74686e-05 0)
(-5.76362e-05 1.7468e-05 0)
(-5.76435e-05 1.74673e-05 0)
(-5.76515e-05 1.74666e-05 0)
(-5.76598e-05 1.74657e-05 0)
(-5.7669e-05 1.74648e-05 0)
(-5.76784e-05 1.74637e-05 0)
(-5.76886e-05 1.74626e-05 0)
(-5.76993e-05 1.74615e-05 0)
(-5.77103e-05 1.74602e-05 0)
(-5.77222e-05 1.74589e-05 0)
(-5.77343e-05 1.74575e-05 0)
(-5.7747e-05 1.74561e-05 0)
(-5.77598e-05 1.74546e-05 0)
(-5.77731e-05 1.74531e-05 0)
(-5.77866e-05 1.74515e-05 0)
(-5.78006e-05 1.74499e-05 0)
(-5.78151e-05 1.74482e-05 0)
(-5.78301e-05 1.74464e-05 0)
(-5.78455e-05 1.74446e-05 0)
(-5.78618e-05 1.74427e-05 0)
(-5.78787e-05 1.74407e-05 0)
(-5.78958e-05 1.74386e-05 0)
(-5.79138e-05 1.74366e-05 0)
(-5.79321e-05 1.74344e-05 0)
(-5.7951e-05 1.74322e-05 0)
(-5.79701e-05 1.743e-05 0)
(-5.79897e-05 1.74277e-05 0)
(-5.80097e-05 1.74254e-05 0)
(-5.80303e-05 1.7423e-05 0)
(-5.80512e-05 1.74206e-05 0)
(-5.80728e-05 1.74181e-05 0)
(-5.80951e-05 1.74155e-05 0)
(-5.81178e-05 1.74128e-05 0)
(-5.81412e-05 1.74101e-05 0)
(-5.81652e-05 1.74073e-05 0)
(-5.81897e-05 1.74045e-05 0)
(-5.82147e-05 1.74015e-05 0)
(-5.82402e-05 1.73986e-05 0)
(-5.82663e-05 1.73955e-05 0)
(-5.8293e-05 1.73924e-05 0)
(-5.83202e-05 1.73892e-05 0)
(-5.83482e-05 1.7386e-05 0)
(-5.83767e-05 1.73826e-05 0)
(-5.8406e-05 1.73792e-05 0)
(-5.8436e-05 1.73756e-05 0)
(-5.84667e-05 1.7372e-05 0)
(-5.84981e-05 1.73683e-05 0)
(-5.85302e-05 1.73644e-05 0)
(-5.85631e-05 1.73605e-05 0)
(-5.85968e-05 1.73564e-05 0)
(-5.86313e-05 1.73523e-05 0)
(-5.86667e-05 1.7348e-05 0)
(-5.87029e-05 1.73436e-05 0)
(-5.87401e-05 1.7339e-05 0)
(-5.87782e-05 1.73343e-05 0)
(-5.88172e-05 1.73295e-05 0)
(-5.88573e-05 1.73245e-05 0)
(-5.88985e-05 1.73194e-05 0)
(-5.89408e-05 1.73141e-05 0)
(-5.89842e-05 1.73086e-05 0)
(-5.90289e-05 1.73029e-05 0)
(-5.90748e-05 1.7297e-05 0)
(-5.9122e-05 1.7291e-05 0)
(-5.91706e-05 1.72847e-05 0)
(-5.92207e-05 1.72782e-05 0)
(-5.92723e-05 1.72715e-05 0)
(-5.93254e-05 1.72645e-05 0)
(-5.93803e-05 1.72573e-05 0)
(-5.94368e-05 1.72499e-05 0)
(-5.94952e-05 1.72421e-05 0)
(-5.95555e-05 1.72341e-05 0)
(-5.96178e-05 1.72258e-05 0)
(-5.96822e-05 1.72172e-05 0)
(-5.97489e-05 1.72083e-05 0)
(-5.98179e-05 1.7199e-05 0)
(-5.98893e-05 1.71893e-05 0)
(-5.99635e-05 1.71792e-05 0)
(-6.00407e-05 1.71687e-05 0)
(-6.0121e-05 1.71577e-05 0)
(-6.02046e-05 1.71461e-05 0)
(-6.02917e-05 1.7134e-05 0)
(-6.03827e-05 1.71212e-05 0)
(-6.04786e-05 1.71076e-05 0)
(-6.05805e-05 1.70932e-05 0)
(-6.06885e-05 1.7078e-05 0)
(-6.08019e-05 1.70617e-05 0)
(-6.09223e-05 1.70438e-05 0)
(-6.10557e-05 1.7024e-05 0)
(-6.12091e-05 1.70027e-05 0)
(-6.13757e-05 1.69811e-05 0)
(-6.15345e-05 1.69542e-05 0)
(-6.17234e-05 1.69244e-05 0)
(-6.19691e-05 1.68893e-05 0)
(-6.22719e-05 1.68507e-05 0)
(-6.28039e-05 1.55282e-05 0)
(-8.24448e-05 2.69783e-05 0)
(-0.010298 -2.88044e-05 0)
(-0.108446 -0.000361848 0)
(-0.214019 -0.000263713 0)
(-0.298081 -0.000247135 0)
(-0.367881 -0.000222029 0)
(-0.4273 -0.000204336 0)
(-0.478673 -0.00018938 0)
(-0.52361 -0.000174969 0)
(-0.563299 -0.000160164 0)
(-0.598649 -0.000144838 0)
(-0.630372 -0.000129275 0)
(-0.659035 -0.0001139 0)
(-0.685089 -9.91361e-05 0)
(-0.708899 -8.53188e-05 0)
(-0.730756 -7.26722e-05 0)
(-0.750894 -6.13115e-05 0)
(-0.769504 -5.12626e-05 0)
(-0.786734 -4.24876e-05 0)
(-0.802704 -3.49093e-05 0)
(-0.817504 -2.84276e-05 0)
(-0.831204 -2.29263e-05 0)
(-0.843853 -1.82731e-05 0)
(-0.855484 -1.43308e-05 0)
(-0.866118 -1.09915e-05 0)
(-0.875767 -8.21025e-06 0)
(-0.884436 -5.99075e-06 0)
(-0.892136 -4.3222e-06 0)
(-0.898882 -3.13552e-06 0)
(-0.904704 -2.3185e-06 0)
(-0.909648 -1.75849e-06 0)
(-0.913775 -1.3688e-06 0)
(-0.917159 -1.09143e-06 0)
(-0.919884 -8.89332e-07 0)
(-0.922034 -7.38643e-07 0)
(-0.923691 -6.23577e-07 0)
(-0.924928 -5.33426e-07 0)
(-0.925811 -4.60719e-07 0)
(-0.926396 -4.0009e-07 0)
(-0.926726 -3.47574e-07 0)
(-0.92684 -3.00292e-07 0)
(-0.926769 -2.56533e-07 0)
(-0.926536 -2.16067e-07 0)
(-0.926162 -1.80061e-07 0)
(-0.925664 -1.50005e-07 0)
(-0.925054 -1.26208e-07 0)
(-0.924343 -1.07378e-07 0)
(-0.923543 -9.1775e-08 0)
(-0.922659 -7.84461e-08 0)
(-0.921701 -6.71789e-08 0)
(-0.920672 -5.77706e-08 0)
(-0.91958 -4.9817e-08 0)
(-0.918429 -4.30027e-08 0)
(-0.917222 -3.72128e-08 0)
(-0.915965 -3.23522e-08 0)
(-0.914646 -2.81582e-08 0)
(-0.913255 -2.43886e-08 0)
(-0.911789 -2.10496e-08 0)
(-0.910251 -1.82456e-08 0)
(-0.908639 -1.58615e-08 0)
(-0.906953 -1.3666e-08 0)
(-0.905194 -1.16811e-08 0)
(-0.903362 -1.00447e-08 0)
(-0.901456 -8.65784e-09 0)
(-0.899478 -7.38087e-09 0)
(-0.897427 -6.26663e-09 0)
(-0.895303 -5.33749e-09 0)
(-0.893107 -4.52038e-09 0)
(-0.89084 -3.81422e-09 0)
(-0.888502 -3.22389e-09 0)
(-0.886094 -2.69466e-09 0)
(-0.883617 -2.23045e-09 0)
(-0.881072 -1.86262e-09 0)
(-0.878461 -1.54902e-09 0)
(-0.875785 -1.2613e-09 0)
(-0.873047 -1.02435e-09 0)
(-0.870247 -8.33604e-10 0)
(-0.86739 -6.71291e-10 0)
(-0.864477 -5.36687e-10 0)
(-0.861514 -4.23253e-10 0)
(-0.858504 -3.30145e-10 0)
(-0.855451 -2.57395e-10 0)
(-0.852364 -1.95243e-10 0)
(-0.849248 -1.4334e-10 0)
(-0.846112 -1.0475e-10 0)
(-0.842967 -7.74254e-11 0)
(-0.839827 -6.2367e-11 0)
(-0.836707 -6.57838e-11 0)
(-0.833629 1.70412e-11 0)
(-0.830618 -1.66306e-10 0)
(-0.827712 2.47705e-10 0)
(-0.824961 -3.05474e-10 0)
(-0.82244 4.88927e-10 0)
(-0.820266 -6.97705e-10 0)
(-0.818947 9.28953e-10 0)
(-0.818712 -1.1713e-09 0)
(-0.8187 1.4233e-09 0)
(-0.818696 -1.68012e-09 0)
(-0.818693 1.94471e-09 0)
(-0.818691 -2.21472e-09 0)
(-0.818688 2.49285e-09 0)
(-0.818687 -2.77727e-09 0)
(-0.818685 3.07018e-09 0)
(-0.818684 -3.37022e-09 0)
(-0.818683 3.67912e-09 0)
(-0.818682 -3.99595e-09 0)
(-0.818681 4.32196e-09 0)
(-0.818681 -4.65663e-09 0)
(-0.818681 5.00081e-09 0)
(-0.81868 -5.3543e-09 0)
(-0.81868 5.71759e-09 0)
(-0.81868 -6.0908e-09 0)
(-0.81868 6.47412e-09 0)
(-0.818679 -6.86792e-09 0)
(-0.818679 7.27212e-09 0)
(-0.818679 -7.6873e-09 0)
(-0.818679 8.11316e-09 0)
(-0.818679 -8.55049e-09 0)
(-0.818679 8.99877e-09 0)
(-0.818679 -9.45897e-09 0)
(-0.818679 9.93036e-09 0)
(-0.818679 -1.04141e-08 0)
(-0.818679 1.09093e-08 0)
(-0.818679 -1.14173e-08 0)
(-0.818679 1.1937e-08 0)
(-0.818679 -1.24699e-08 0)
(-0.818679 1.30147e-08 0)
(-0.818679 -1.35731e-08 0)
(-0.818679 1.41437e-08 0)
(-0.818679 -1.47283e-08 0)
(-0.818679 1.53253e-08 0)
(-0.818679 -1.59366e-08 0)
(-0.818679 1.65606e-08 0)
(-0.818679 -1.71993e-08 0)
(-0.818679 1.7851e-08 0)
(-0.818679 -1.85176e-08 0)
(-0.818679 1.91976e-08 0)
(-0.818679 -1.98928e-08 0)
(-0.818679 2.06016e-08 0)
(-0.818679 -2.1326e-08 0)
(-0.818679 2.20643e-08 0)
(-0.818679 -2.28183e-08 0)
(-0.818679 2.35867e-08 0)
(-0.818679 -2.4371e-08 0)
(-0.818679 2.517e-08 0)
(-0.818679 -2.59851e-08 0)
(-0.818679 2.68154e-08 0)
(-0.818679 -2.76618e-08 0)
(-0.818679 2.85238e-08 0)
(-0.818679 -2.94022e-08 0)
(-0.818679 3.02965e-08 0)
(-0.818679 -3.12072e-08 0)
(-0.818679 3.21343e-08 0)
(-0.818679 -3.30779e-08 0)
(-0.818679 3.40382e-08 0)
(-0.818679 -3.50152e-08 0)
(-0.818679 3.6009e-08 0)
(-0.818679 -3.70197e-08 0)
(-0.818679 3.80474e-08 0)
(-0.818679 -3.90921e-08 0)
(-0.818679 4.01539e-08 0)
(-0.818679 -4.12328e-08 0)
(-0.818679 4.23289e-08 0)
(-0.818679 -4.34421e-08 0)
(-0.818679 3.91185e-08 0)
(-0.818679 -3.93607e-08 0)
(-0.818679 3.95989e-08 0)
(-0.818679 -3.98331e-08 0)
(-0.818679 4.00633e-08 0)
(-0.818679 -4.02895e-08 0)
(-0.818679 4.05116e-08 0)
(-0.818679 -4.07295e-08 0)
(-0.818679 4.09434e-08 0)
(-0.818679 -4.1153e-08 0)
(-0.818679 4.13584e-08 0)
(-0.818679 -4.15596e-08 0)
(-0.818679 4.17564e-08 0)
(-0.818679 -4.1949e-08 0)
(-0.818679 4.21371e-08 0)
(-0.818679 -4.2321e-08 0)
(-0.818679 4.25002e-08 0)
(-0.818679 -4.26751e-08 0)
(-0.818679 4.28453e-08 0)
(-0.818679 -4.30112e-08 0)
(-0.818679 4.3172e-08 0)
(-0.818679 -4.33289e-08 0)
(-0.818679 4.34801e-08 0)
(-0.818679 -4.36277e-08 0)
(-0.818679 4.3769e-08 0)
(-0.818679 -4.39073e-08 0)
(-0.818679 4.40385e-08 0)
(-0.818679 -4.41671e-08 0)
(-0.818679 4.4288e-08 0)
(-0.818679 -4.44066e-08 0)
(-0.818679 4.45169e-08 0)
(-0.818679 -4.46253e-08 0)
(-0.818679 4.47246e-08 0)
(-0.818679 -4.48224e-08 0)
(-0.818679 4.49105e-08 0)
(-0.818679 -4.49974e-08 0)
(-0.818679 4.50736e-08 0)
(-0.818679 -4.5149e-08 0)
(-0.818679 4.5213e-08 0)
(-0.818679 -4.52761e-08 0)
(-0.818679 4.53273e-08 0)
(-0.818679 -4.53767e-08 0)
(-0.818679 4.54141e-08 0)
(-0.818679 -4.54478e-08 0)
(-0.818679 4.54686e-08 0)
(-0.818679 -4.54798e-08 0)
(-0.818679 4.54687e-08 0)
(-0.818679 -4.54538e-08 0)
(-0.818679 4.54353e-08 0)
(-0.818679 -4.54186e-08 0)
)
;

boundaryField
{
    inandouthalf11
    {
        type            cyclic;
    }
    inandouthalf12
    {
        type            cyclic;
    }
    inandouthalf21
    {
        type            cyclic;
    }
    inandouthalf22
    {
        type            cyclic;
    }
    inandouthalf31
    {
        type            cyclic;
    }
    inandouthalf32
    {
        type            cyclic;
    }
    inandouthalf41
    {
        type            cyclic;
    }
    inandouthalf42
    {
        type            cyclic;
    }
    top
    {
        type            symmetryPlane;
    }
    walls
    {
        type            fixedValue;
        value           uniform (0 0 0);
    }
    frontAndBackPlanes
    {
        type            empty;
    }
}


// ************************************************************************* //
