/*--------------------------------*- C++ -*----------------------------------*\
| =========                 |                                                 |
| \\      /  F ield         | OpenFOAM: The Open Source CFD Toolbox           |
|  \\    /   O peration     | Version:  2.4.x                                 |
|   \\  /    A nd           | Web:      www.OpenFOAM.org                      |
|    \\/     M anipulation  |                                                 |
\*---------------------------------------------------------------------------*/
FoamFile
{
    version     2.0;
    format      ascii;
    class       volScalarField;
    location    "3.8";
    object      ddt0(k);
}
// * * * * * * * * * * * * * * * * * * * * * * * * * * * * * * * * * * * * * //

dimensions      [0 2 -3 0 0 0 0];

internalField   nonuniform List<scalar> 
360
(
0
0
0
0
0
0
0
0
0
0
0
0
0
0
0
0
0
0
0
0
0
0
0
0
0
0
0
0
0
0
0
0
0
0
0
0
0
0
0
0
0
0
0
0
0
0
0
0
0
0
0
0
0
0
0
0
0
0
0
0
0
0
0
0
0
0
0
0
0
0
0
0
0
0
0
0
0
0
0
0
0
0
0
0
0
0
0
0
0
0
0
0
0
0
0
0
0
0
0
0
0
0
0
0
0
0
0
0
0
0
0
0
0
0
0
0
0
0
0
0
0
0
0
0
0
0
0
0
0
-4.67756e-20
-1.49486e-19
-4.04847e-19
-9.95232e-19
-2.22441e-18
-4.49189e-18
-8.07464e-18
-1.23006e-17
-1.15239e-17
3.86169e-17
6.66855e-16
1.05215e-14
1.85671e-13
3.73051e-12
8.65531e-11
2.34735e-09
7.53752e-08
2.89918e-06
0.000129489
0.00381861
0.0113496
0.00519684
0.00523681
0.0061454
0.00728388
0.00841138
0.00942959
0.0102737
0.0108739
0.0111431
0.0109849
0.0103239
0.00915738
0.0075989
0.00586176
0.00417526
0.00269894
0.00149458
0.000550991
-0.000176687
-0.000738828
-0.00117854
-0.00152864
-0.00181272
-0.00204733
-0.00224396
-0.0024106
-0.00255287
-0.00267473
-0.00277905
-0.00286794
-0.00294296
-0.00300535
-0.00305604
-0.00309583
-0.00312536
-0.00314518
-0.00315577
-0.00315756
-0.00315093
-0.00313622
-0.00311373
-0.00308378
-0.00304661
-0.00300252
-0.00295176
-0.00289456
-0.00283117
-0.0027618
-0.00268669
-0.00260603
-0.00252004
-0.00242799
-0.00232888
-0.00222257
-0.00210893
-0.00198784
-0.00185919
-0.00172289
-0.00157886
-0.00142705
-0.00126744
-0.00110007
-0.000924997
-0.000742352
-0.00055234
-0.000355252
-0.000151491
5.84002e-05
0.000273706
0.000493494
0.000716553
0.000941314
0.00116574
0.00138719
0.00160218
0.00180604
0.00199245
0.00215247
0.00227298
0.00233406
0.00230602
0.00213462
0.00138787
0.000193017
4.01749e-06
5.09549e-08
6.07675e-10
6.88186e-12
7.40575e-14
7.57603e-16
7.3607e-18
5.83915e-20
0
0
0
0
0
0
0
0
0
0
0
0
0
0
0
0
0
0
0
0
0
0
0
0
0
0
0
0
0
0
0
0
0
0
0
0
0
0
0
0
0
0
0
0
0
0
0
0
0
0
0
0
0
0
0
0
0
0
0
0
0
0
0
0
0
0
0
0
0
0
0
0
0
0
0
0
0
0
0
0
0
0
0
0
0
0
0
0
0
0
0
0
0
0
0
0
0
0
0
0
0
0
0
0
0
0
0
0
0
0
0
0
0
0
0
0
0
0
)
;

boundaryField
{
    inandouthalf11
    {
        type            cyclic;
    }
    inandouthalf12
    {
        type            cyclic;
    }
    inandouthalf21
    {
        type            cyclic;
    }
    inandouthalf22
    {
        type            cyclic;
    }
    inandouthalf31
    {
        type            cyclic;
    }
    inandouthalf32
    {
        type            cyclic;
    }
    inandouthalf41
    {
        type            cyclic;
    }
    inandouthalf42
    {
        type            cyclic;
    }
    top
    {
        type            symmetryPlane;
    }
    walls
    {
        type            calculated;
        value           uniform 0;
    }
    frontAndBackPlanes
    {
        type            empty;
    }
}


// ************************************************************************* //
