/*--------------------------------*- C++ -*----------------------------------*\
| =========                 |                                                 |
| \\      /  F ield         | OpenFOAM: The Open Source CFD Toolbox           |
|  \\    /   O peration     | Version:  2.4.x                                 |
|   \\  /    A nd           | Web:      www.OpenFOAM.org                      |
|    \\/     M anipulation  |                                                 |
\*---------------------------------------------------------------------------*/
FoamFile
{
    version     2.0;
    format      ascii;
    class       volVectorField;
    location    "3.8";
    object      ddt0(Ub);
}
// * * * * * * * * * * * * * * * * * * * * * * * * * * * * * * * * * * * * * //

dimensions      [0 1 -2 0 0 0 0];

internalField   nonuniform List<vector> 
360
(
(0.000205971 -6.0255e-09 0)
(0.000205801 -1.03024e-07 0)
(0.000205563 -3.05778e-07 0)
(0.000205606 -5.19347e-07 0)
(0.000205711 -7.0884e-07 0)
(0.000205816 -8.84519e-07 0)
(0.000205924 -1.06974e-06 0)
(0.000206029 -1.27774e-06 0)
(0.000206126 -1.5063e-06 0)
(0.000206221 -1.74413e-06 0)
(0.000206318 -1.97869e-06 0)
(0.000206414 -2.19902e-06 0)
(0.000206506 -2.39576e-06 0)
(0.000206589 -2.56134e-06 0)
(0.00020666 -2.69313e-06 0)
(0.000206723 -2.79872e-06 0)
(0.000206782 -2.90073e-06 0)
(0.000206848 -3.03936e-06 0)
(0.000206933 -3.27242e-06 0)
(0.000207056 -3.67478e-06 0)
(0.000207236 -4.33659e-06 0)
(0.0002075 -5.35871e-06 0)
(0.000207869 -6.82643e-06 0)
(0.000208345 -8.72294e-06 0)
(0.000208865 -1.07451e-05 0)
(0.000209247 -1.21162e-05 0)
(0.000209214 -1.17923e-05 0)
(0.00020863 -9.34274e-06 0)
(0.000207751 -5.707e-06 0)
(0.000207019 -2.5089e-06 0)
(0.000206624 -6.05819e-07 0)
(0.000206474 2.16916e-07 0)
(0.000206428 4.9801e-07 0)
(0.00020642 5.82301e-07 0)
(0.000206422 6.0607e-07 0)
(0.000206429 6.11138e-07 0)
(0.000206437 6.09263e-07 0)
(0.000206448 6.03782e-07 0)
(0.000206461 5.95822e-07 0)
(0.000206472 5.86129e-07 0)
(0.000206488 5.75551e-07 0)
(0.000206503 5.64934e-07 0)
(0.000206519 5.54948e-07 0)
(0.000206537 5.45891e-07 0)
(0.000206555 5.37713e-07 0)
(0.000206574 5.30192e-07 0)
(0.000206594 5.23015e-07 0)
(0.000206614 5.15914e-07 0)
(0.000206638 5.08692e-07 0)
(0.000206664 5.01202e-07 0)
(0.00020669 4.93372e-07 0)
(0.000206719 4.85179e-07 0)
(0.000206749 4.76627e-07 0)
(0.000206782 4.67743e-07 0)
(0.000206816 4.5853e-07 0)
(0.000206854 4.49005e-07 0)
(0.000206893 4.39185e-07 0)
(0.000206935 4.29079e-07 0)
(0.000206979 4.18684e-07 0)
(0.000207024 4.08011e-07 0)
(0.000207074 3.97053e-07 0)
(0.000207123 3.85825e-07 0)
(0.000207175 3.74357e-07 0)
(0.000207228 3.62663e-07 0)
(0.000207283 3.50785e-07 0)
(0.000207338 3.38751e-07 0)
(0.000207396 3.26558e-07 0)
(0.000207455 3.14181e-07 0)
(0.000207517 3.01581e-07 0)
(0.00020758 2.88706e-07 0)
(0.000207647 2.75477e-07 0)
(0.000207717 2.61814e-07 0)
(0.000207787 2.47667e-07 0)
(0.000207861 2.32994e-07 0)
(0.000207937 2.17776e-07 0)
(0.000208015 2.02024e-07 0)
(0.000208094 1.85774e-07 0)
(0.000208175 1.69074e-07 0)
(0.000208258 1.51969e-07 0)
(0.000208343 1.345e-07 0)
(0.00020843 1.16684e-07 0)
(0.00020852 9.85272e-08 0)
(0.000208612 8.00171e-08 0)
(0.000208706 6.11278e-08 0)
(0.000208803 4.18309e-08 0)
(0.000208903 2.21062e-08 0)
(0.000209005 1.94806e-09 0)
(0.000209109 -1.86336e-08 0)
(0.000209215 -3.96104e-08 0)
(0.000209323 -6.09499e-08 0)
(0.000209434 -8.26211e-08 0)
(0.000209547 -1.0459e-07 0)
(0.000209663 -1.26835e-07 0)
(0.000209782 -1.49342e-07 0)
(0.000209903 -1.72096e-07 0)
(0.000210028 -1.95094e-07 0)
(0.000210155 -2.18325e-07 0)
(0.000210285 -2.41779e-07 0)
(0.000210418 -2.65444e-07 0)
(0.000210554 -2.89308e-07 0)
(0.000210693 -3.13353e-07 0)
(0.000210835 -3.37554e-07 0)
(0.000210981 -3.6189e-07 0)
(0.00021113 -3.86337e-07 0)
(0.000211283 -4.10865e-07 0)
(0.000211439 -4.35448e-07 0)
(0.000211599 -4.60061e-07 0)
(0.000211764 -4.8468e-07 0)
(0.000211932 -5.09282e-07 0)
(0.000212104 -5.33842e-07 0)
(0.000212281 -5.58345e-07 0)
(0.000212463 -5.82783e-07 0)
(0.000212649 -6.07151e-07 0)
(0.000212841 -6.31448e-07 0)
(0.000213037 -6.55686e-07 0)
(0.00021324 -6.79893e-07 0)
(0.000213448 -7.04104e-07 0)
(0.000213662 -7.28357e-07 0)
(0.000213883 -7.52703e-07 0)
(0.000214111 -7.77201e-07 0)
(0.000214346 -8.01901e-07 0)
(0.000214588 -8.26849e-07 0)
(0.000214839 -8.52075e-07 0)
(0.000215097 -8.77577e-07 0)
(0.000215365 -9.03319e-07 0)
(0.000215642 -9.29224e-07 0)
(0.000215929 -9.55163e-07 0)
(0.000216226 -9.80977e-07 0)
(0.000216534 -1.00646e-06 0)
(0.000216855 -1.03139e-06 0)
(0.000217188 -1.0555e-06 0)
(0.000217534 -1.07855e-06 0)
(0.000217894 -1.10034e-06 0)
(0.000218272 -1.12075e-06 0)
(0.000218672 -1.13973e-06 0)
(0.000219096 -1.15726e-06 0)
(0.000219539 -1.17325e-06 0)
(0.000220007 -1.18754e-06 0)
(0.000220524 -1.19994e-06 0)
(0.000221114 -1.21025e-06 0)
(0.000221754 -1.21816e-06 0)
(0.00022236 -1.22264e-06 0)
(0.000223072 -1.22401e-06 0)
(0.000223995 -1.22331e-06 0)
(0.000225125 -1.22258e-06 0)
(0.000226992 1.45507e-07 0)
(0.000231428 -1.60167e-05 0)
(-0.000208753 4.47489e-05 0)
(-0.169695 -0.000265438 0)
(-0.299432 0.000943711 0)
(-0.18167 0.00215683 0)
(-0.134001 0.000813611 0)
(-0.11157 0.000457434 0)
(-0.102876 0.000189061 0)
(-0.102623 -2.45262e-05 0)
(-0.108339 -0.000176964 0)
(-0.119108 -0.00026947 0)
(-0.135013 -0.000311712 0)
(-0.156784 -0.000316304 0)
(-0.185395 -0.000296201 0)
(-0.221478 -0.000260508 0)
(-0.264499 -0.000212282 0)
(-0.312063 -0.000155267 0)
(-0.360146 -0.000101612 0)
(-0.404568 -6.32757e-05 0)
(-0.442623 -4.10991e-05 0)
(-0.473562 -2.90347e-05 0)
(-0.498022 -2.19558e-05 0)
(-0.517231 -1.69502e-05 0)
(-0.532452 -1.37993e-05 0)
(-0.544744 -1.19602e-05 0)
(-0.554916 -1.02354e-05 0)
(-0.563554 -8.89613e-06 0)
(-0.571075 -7.81759e-06 0)
(-0.577774 -6.91565e-06 0)
(-0.583857 -6.15167e-06 0)
(-0.589472 -5.49324e-06 0)
(-0.594723 -4.91008e-06 0)
(-0.599685 -4.38512e-06 0)
(-0.604414 -3.90855e-06 0)
(-0.608948 -3.47027e-06 0)
(-0.613318 -3.06151e-06 0)
(-0.617547 -2.67542e-06 0)
(-0.621651 -2.30759e-06 0)
(-0.625644 -1.95712e-06 0)
(-0.629536 -1.62808e-06 0)
(-0.633336 -1.33014e-06 0)
(-0.63705 -1.07613e-06 0)
(-0.640684 -8.75625e-07 0)
(-0.644243 -7.27727e-07 0)
(-0.647731 -6.1962e-07 0)
(-0.651152 -5.34146e-07 0)
(-0.654508 -4.60221e-07 0)
(-0.657803 -3.95797e-07 0)
(-0.661039 -3.41976e-07 0)
(-0.664218 -2.9743e-07 0)
(-0.667342 -2.59216e-07 0)
(-0.670413 -2.25844e-07 0)
(-0.673431 -1.97292e-07 0)
(-0.676399 -1.73219e-07 0)
(-0.679317 -1.52421e-07 0)
(-0.682216 -1.33592e-07 0)
(-0.685124 -1.16665e-07 0)
(-0.688039 -1.02453e-07 0)
(-0.69096 -9.05757e-08 0)
(-0.693885 -7.94746e-08 0)
(-0.696813 -6.8821e-08 0)
(-0.699742 -5.9861e-08 0)
(-0.702668 -5.27178e-08 0)
(-0.705587 -4.6053e-08 0)
(-0.708498 -3.96783e-08 0)
(-0.711393 -3.43846e-08 0)
(-0.714269 -2.99289e-08 0)
(-0.717119 -2.58026e-08 0)
(-0.719935 -2.22672e-08 0)
(-0.722708 -1.92839e-08 0)
(-0.725429 -1.64374e-08 0)
(-0.728084 -1.39386e-08 0)
(-0.730658 -1.20317e-08 0)
(-0.733133 -1.03117e-08 0)
(-0.735487 -8.61238e-09 0)
(-0.737693 -7.21757e-09 0)
(-0.739718 -6.09562e-09 0)
(-0.741517 -5.09528e-09 0)
(-0.743038 -4.24854e-09 0)
(-0.744207 -3.50372e-09 0)
(-0.744926 -2.80052e-09 0)
(-0.745059 -2.07596e-09 0)
(-0.7444 -2.88862e-09 0)
(-0.742634 4.16014e-10 0)
(-0.739292 -4.07042e-09 0)
(-0.733438 2.91224e-09 0)
(-0.716997 -5.08829e-09 0)
(-0.691627 4.24211e-09 0)
(-0.687495 -5.64197e-09 0)
(-0.687402 4.68637e-09 0)
(-0.6874 -5.9608e-09 0)
(-0.687399 5.51994e-09 0)
(-0.687399 -6.1419e-09 0)
(-0.687398 6.44511e-09 0)
(-0.687398 -6.20105e-09 0)
(-0.687398 6.53847e-09 0)
(-0.687398 -6.30339e-09 0)
(-0.687398 6.65615e-09 0)
(-0.687398 -6.44669e-09 0)
(-0.687398 6.80417e-09 0)
(-0.687398 -6.62332e-09 0)
(-0.687398 6.98572e-09 0)
(-0.687398 -6.83389e-09 0)
(-0.687398 7.20109e-09 0)
(-0.687398 -7.07477e-09 0)
(-0.687398 7.44893e-09 0)
(-0.687398 -7.35038e-09 0)
(-0.687398 7.72677e-09 0)
(-0.687398 -7.65672e-09 0)
(-0.687398 8.03503e-09 0)
(-0.687397 -7.99475e-09 0)
(-0.687397 8.37193e-09 0)
(-0.687397 -8.36267e-09 0)
(-0.687397 8.73713e-09 0)
(-0.687397 -8.7616e-09 0)
(-0.687397 9.13062e-09 0)
(-0.687397 -9.18445e-09 0)
(-0.687397 9.55591e-09 0)
(-0.687397 -9.63372e-09 0)
(-0.687397 1.00079e-08 0)
(-0.687397 -1.0108e-08 0)
(-0.687397 1.04897e-08 0)
(-0.687397 -1.06064e-08 0)
(-0.687397 1.09987e-08 0)
(-0.687397 -1.11295e-08 0)
(-0.687397 1.15325e-08 0)
(-0.687397 -1.1678e-08 0)
(-0.687397 1.20918e-08 0)
(-0.687397 -1.22509e-08 0)
(-0.687397 1.2675e-08 0)
(-0.687397 -1.28477e-08 0)
(-0.687397 1.32815e-08 0)
(-0.687397 -1.34676e-08 0)
(-0.687397 1.39112e-08 0)
(-0.687397 -1.41131e-08 0)
(-0.687397 1.45628e-08 0)
(-0.687397 -1.47806e-08 0)
(-0.687397 1.52355e-08 0)
(-0.687397 -1.54708e-08 0)
(-0.687397 1.59263e-08 0)
(-0.687397 -1.61839e-08 0)
(-0.687397 1.66381e-08 0)
(-0.687397 -1.692e-08 0)
(-0.687397 1.73681e-08 0)
(-0.687397 -1.76803e-08 0)
(-0.687397 1.81154e-08 0)
(-0.687397 -1.84592e-08 0)
(-0.687397 1.88838e-08 0)
(-0.687397 -1.92605e-08 0)
(-0.687397 1.96513e-08 0)
(-0.687397 -2.00888e-08 0)
(-0.687397 2.04601e-08 0)
(-0.687397 -2.0909e-08 0)
(-0.687397 2.13048e-08 0)
(-0.687397 -2.17471e-08 0)
(-0.687397 2.21497e-08 0)
(-0.687397 -2.25986e-08 0)
(-0.687397 2.30117e-08 0)
(-0.687397 -2.34627e-08 0)
(-0.687397 2.38853e-08 0)
(-0.687397 -2.43373e-08 0)
(-0.687397 2.4773e-08 0)
(-0.687397 -2.52101e-08 0)
(-0.687397 2.56718e-08 0)
(-0.687397 -2.28722e-08 0)
(-0.687397 2.28422e-08 0)
(-0.687397 -2.26731e-08 0)
(-0.687397 2.26677e-08 0)
(-0.687397 -2.24419e-08 0)
(-0.687397 2.24664e-08 0)
(-0.687397 -2.21648e-08 0)
(-0.687397 2.22355e-08 0)
(-0.687397 -2.18442e-08 0)
(-0.687397 2.19758e-08 0)
(-0.687397 -2.14637e-08 0)
(-0.687397 2.16869e-08 0)
(-0.687397 -2.10237e-08 0)
(-0.687397 2.13626e-08 0)
(-0.687397 -2.05076e-08 0)
(-0.687397 2.10116e-08 0)
(-0.687397 -1.98683e-08 0)
(-0.687397 2.07087e-08 0)
(-0.687397 -1.88964e-08 0)
(-0.687397 2.06695e-08 0)
(-0.687397 -1.7428e-08 0)
(-0.687397 2.06984e-08 0)
(-0.687397 -1.56523e-08 0)
(-0.687397 2.04979e-08 0)
(-0.687397 -1.35598e-08 0)
(-0.687397 1.88697e-08 0)
(-0.687397 -1.0568e-08 0)
(-0.687397 1.89745e-08 0)
(-0.687397 -9.14477e-09 0)
(-0.687397 1.91872e-08 0)
(-0.687397 -8.17046e-09 0)
(-0.687397 1.9353e-08 0)
(-0.687397 -7.51713e-09 0)
(-0.687397 1.91988e-08 0)
(-0.687397 -7.00149e-09 0)
(-0.687397 1.95529e-08 0)
(-0.687397 -6.21557e-09 0)
(-0.687397 1.94197e-08 0)
(-0.687397 -6.33381e-09 0)
(-0.687397 1.86432e-08 0)
(-0.687397 -7.24687e-09 0)
(-0.687397 1.6829e-08 0)
(-0.687397 -9.13231e-09 0)
(-0.687397 1.43595e-08 0)
(-0.687397 -1.15665e-08 0)
(-0.687397 1.16533e-08 0)
(-0.687397 -1.45382e-08 0)
(-0.687397 8.36395e-09 0)
(-0.687397 -1.53065e-08 0)
(-0.687397 1.07889e-08 0)
)
;

boundaryField
{
    inandouthalf11
    {
        type            cyclic;
    }
    inandouthalf12
    {
        type            cyclic;
    }
    inandouthalf21
    {
        type            cyclic;
    }
    inandouthalf22
    {
        type            cyclic;
    }
    inandouthalf31
    {
        type            cyclic;
    }
    inandouthalf32
    {
        type            cyclic;
    }
    inandouthalf41
    {
        type            cyclic;
    }
    inandouthalf42
    {
        type            cyclic;
    }
    top
    {
        type            symmetryPlane;
    }
    walls
    {
        type            calculated;
        value           uniform (0 0 0);
    }
    frontAndBackPlanes
    {
        type            empty;
    }
}


// ************************************************************************* //
