/*--------------------------------*- C++ -*----------------------------------*\
| =========                 |                                                 |
| \\      /  F ield         | OpenFOAM: The Open Source CFD Toolbox           |
|  \\    /   O peration     | Version:  2.4.x                                 |
|   \\  /    A nd           | Web:      www.OpenFOAM.org                      |
|    \\/     M anipulation  |                                                 |
\*---------------------------------------------------------------------------*/
FoamFile
{
    version     2.0;
    format      ascii;
    class       surfaceScalarField;
    location    "3.8";
    object      ddt0(phib);
}
// * * * * * * * * * * * * * * * * * * * * * * * * * * * * * * * * * * * * * //

dimensions      [0 3 -2 0 0 0 0];

internalField   nonuniform List<scalar> 
359
(
-1.12621e-13
-7.74956e-13
-1.67194e-12
-2.48305e-12
-3.18819e-12
-3.88852e-12
-4.66977e-12
-5.5522e-12
-6.49833e-12
-7.45496e-12
-8.3748e-12
-9.2175e-12
-9.94837e-12
-1.0542e-11
-1.10027e-11
-1.1387e-11
-1.18193e-11
-1.24967e-11
-1.36851e-11
-1.57176e-11
-1.8983e-11
-2.38984e-11
-3.07268e-11
-3.90639e-11
-4.68851e-11
-5.00086e-11
-4.42644e-11
-3.0426e-11
-1.52427e-11
-4.87267e-12
-4.54579e-15
1.72701e-12
2.25269e-12
2.40433e-12
2.44381e-12
2.44514e-12
2.42891e-12
2.40131e-12
2.36524e-12
2.32381e-12
2.28059e-12
2.2389e-12
2.20072e-12
2.16641e-12
2.13531e-12
2.10623e-12
2.07789e-12
2.04944e-12
2.0201e-12
1.9895e-12
1.95748e-12
1.92395e-12
1.88907e-12
1.85288e-12
1.81537e-12
1.77666e-12
1.73683e-12
1.6958e-12
1.65367e-12
1.61042e-12
1.566e-12
1.5206e-12
1.47425e-12
1.42706e-12
1.37922e-12
1.33079e-12
1.28166e-12
1.23177e-12
1.18087e-12
1.12877e-12
1.07503e-12
1.01947e-12
9.61859e-13
9.0208e-13
8.40111e-13
7.76062e-13
7.10122e-13
6.4246e-13
5.73277e-13
5.02701e-13
4.30753e-13
3.5744e-13
2.82671e-13
2.06324e-13
1.28295e-13
4.85254e-14
-3.29702e-14
-1.16128e-13
-2.00786e-13
-2.86846e-13
-3.74157e-13
-4.62599e-13
-5.52123e-13
-6.42652e-13
-7.34157e-13
-8.26638e-13
-9.20009e-13
-1.01427e-12
-1.10934e-12
-1.20518e-12
-1.3017e-12
-1.39879e-12
-1.49639e-12
-1.59437e-12
-1.69261e-12
-1.79104e-12
-1.88951e-12
-1.988e-12
-2.08633e-12
-2.18448e-12
-2.28236e-12
-2.37999e-12
-2.47731e-12
-2.57437e-12
-2.67122e-12
-2.76803e-12
-2.86491e-12
-2.96206e-12
-3.05969e-12
-3.15804e-12
-3.2573e-12
-3.35764e-12
-3.45911e-12
-3.56165e-12
-3.66506e-12
-3.7689e-12
-3.87258e-12
-3.97542e-12
-4.07647e-12
-4.17484e-12
-4.26938e-12
-4.35925e-12
-4.44374e-12
-4.52255e-12
-4.59559e-12
-4.66275e-12
-4.72358e-12
-4.77729e-12
-4.82307e-12
-4.85966e-12
-4.88513e-12
-4.89682e-12
-4.89725e-12
-4.89076e-12
-4.88072e-12
-4.84329e-12
-6.21505e-12
-2.76727e-10
5.98062e-10
6.54201e-09
4.20039e-09
2.56767e-09
1.29792e-09
3.0746e-10
-4.20144e-10
-9.00503e-10
-1.16506e-09
-1.25535e-09
-1.22052e-09
-1.10904e-09
-9.48068e-10
-7.40422e-10
-5.11664e-10
-3.2509e-10
-2.07902e-10
-1.4139e-10
-1.02762e-10
-7.89258e-11
-6.32445e-11
-5.23837e-11
-4.4407e-11
-3.82999e-11
-3.34474e-11
-2.94706e-11
-2.6128e-11
-2.3292e-11
-2.08139e-11
-1.8589e-11
-1.65869e-11
-1.47581e-11
-1.30645e-11
-1.14754e-11
-9.96857e-12
-8.53303e-12
-7.17386e-12
-5.91719e-12
-4.8083e-12
-3.89556e-12
-3.20062e-12
-2.69553e-12
-2.3136e-12
-1.99321e-12
-1.71155e-12
-1.47353e-12
-1.27902e-12
-1.11469e-12
-9.70446e-13
-8.45677e-13
-7.40685e-13
-6.51767e-13
-5.73273e-13
-5.00647e-13
-4.37379e-13
-3.86376e-13
-3.41767e-13
-2.96948e-13
-2.56119e-13
-2.25364e-13
-1.98933e-13
-1.71257e-13
-1.47494e-13
-1.29271e-13
-1.11768e-13
-9.56993e-14
-8.34016e-14
-7.18959e-14
-6.03854e-14
-5.18222e-14
-4.5158e-14
-3.78039e-14
-3.14481e-14
-2.68172e-14
-2.23978e-14
-1.86437e-14
-1.55951e-14
-1.26192e-14
-1.03521e-14
-8.61461e-15
-6.73312e-15
-5.34626e-15
-4.14201e-15
-3.00239e-15
-2.51638e-15
-2.33832e-15
-2.27779e-15
-2.1441e-15
-1.20801e-15
-9.26966e-16
5.25308e-16
5.70711e-16
5.83126e-16
5.86347e-16
5.81039e-16
5.63941e-16
5.51165e-16
5.43116e-16
5.28172e-16
5.21487e-16
5.02325e-16
4.97634e-16
4.92305e-16
4.73956e-16
4.61981e-16
4.50671e-16
4.34592e-16
4.23638e-16
4.02705e-16
3.88256e-16
3.6988e-16
3.48484e-16
3.24731e-16
3.15731e-16
3.04604e-16
2.96664e-16
2.81528e-16
2.76301e-16
2.72403e-16
2.70658e-16
2.71406e-16
2.67614e-16
2.63525e-16
2.64501e-16
2.63185e-16
2.69053e-16
2.61305e-16
2.62338e-16
2.55322e-16
2.5969e-16
2.48848e-16
2.35718e-16
2.40841e-16
2.33519e-16
2.37117e-16
2.2266e-16
2.1373e-16
2.01145e-16
1.84083e-16
1.66069e-16
1.54081e-16
1.29214e-16
1.09595e-16
8.44186e-17
6.03181e-17
3.16487e-17
-6.60004e-19
-1.86952e-17
-4.03147e-17
-4.43205e-17
-4.82323e-17
-4.37862e-17
-4.44284e-17
-3.76298e-17
-3.50462e-17
-3.35058e-17
-2.76139e-17
-2.24065e-17
-1.5477e-17
1.68391e-17
3.56718e-17
7.09274e-17
1.03265e-16
1.52504e-16
1.8426e-16
2.31286e-16
2.78013e-16
3.51687e-16
4.1329e-16
4.84488e-16
5.68266e-16
6.76562e-16
7.99584e-16
9.3514e-16
1.07929e-15
1.24464e-15
1.45583e-15
1.70123e-15
2.05552e-15
2.79125e-15
4.0637e-15
5.68417e-15
7.40605e-15
9.05958e-15
1.09026e-14
1.25255e-14
1.41674e-14
1.55207e-14
1.76047e-14
1.91644e-14
2.07248e-14
2.14851e-14
2.30026e-14
2.33756e-14
2.38729e-14
2.33546e-14
2.57559e-14
2.65131e-14
2.73046e-14
2.55783e-14
2.55863e-14
2.27303e-14
1.97547e-14
1.52732e-14
1.08558e-14
5.51071e-15
-7.66852e-18
-4.17455e-15
-1.50109e-14
-1.57444e-14
-1.03984e-14
)
;

boundaryField
{
    inandouthalf11
    {
        type            cyclic;
        value           nonuniform List<scalar> 
100
(
-2.05971e-10
-2.05801e-10
-2.05563e-10
-2.05606e-10
-2.05711e-10
-2.05816e-10
-2.05924e-10
-2.06029e-10
-2.06126e-10
-2.06221e-10
-2.06318e-10
-2.06414e-10
-2.06506e-10
-2.06589e-10
-2.0666e-10
-2.06723e-10
-2.06782e-10
-2.06848e-10
-2.06933e-10
-2.07056e-10
-2.07236e-10
-2.075e-10
-2.07869e-10
-2.08345e-10
-2.08865e-10
-2.09247e-10
-2.09214e-10
-2.0863e-10
-2.07751e-10
-2.07019e-10
-2.06624e-10
-2.06474e-10
-2.06428e-10
-2.0642e-10
-2.06422e-10
-2.06429e-10
-2.06437e-10
-2.06448e-10
-2.06461e-10
-2.06472e-10
-2.06488e-10
-2.06503e-10
-2.06519e-10
-2.06537e-10
-2.06555e-10
-2.06574e-10
-2.06594e-10
-2.06614e-10
-2.06638e-10
-2.06664e-10
-2.0669e-10
-2.06719e-10
-2.06749e-10
-2.06782e-10
-2.06816e-10
-2.06854e-10
-2.06893e-10
-2.06935e-10
-2.06979e-10
-2.07024e-10
-2.07074e-10
-2.07123e-10
-2.07175e-10
-2.07228e-10
-2.07283e-10
-2.07338e-10
-2.07396e-10
-2.07455e-10
-2.07517e-10
-2.0758e-10
-2.07647e-10
-2.07717e-10
-2.07787e-10
-2.07861e-10
-2.07937e-10
-2.08015e-10
-2.08094e-10
-2.08175e-10
-2.08258e-10
-2.08343e-10
-2.0843e-10
-2.0852e-10
-2.08612e-10
-2.08706e-10
-2.08803e-10
-2.08903e-10
-2.09005e-10
-2.09109e-10
-2.09215e-10
-2.09323e-10
-2.09434e-10
-2.09547e-10
-2.09663e-10
-2.09782e-10
-2.09903e-10
-2.10028e-10
-2.10155e-10
-2.10285e-10
-2.10418e-10
-2.10554e-10
)
;
    }
    inandouthalf12
    {
        type            cyclic;
        value           nonuniform List<scalar> 
100
(
2.05971e-10
2.05801e-10
2.05563e-10
2.05606e-10
2.05711e-10
2.05816e-10
2.05924e-10
2.06029e-10
2.06126e-10
2.06221e-10
2.06318e-10
2.06414e-10
2.06506e-10
2.06589e-10
2.0666e-10
2.06723e-10
2.06782e-10
2.06848e-10
2.06933e-10
2.07056e-10
2.07236e-10
2.075e-10
2.07869e-10
2.08345e-10
2.08865e-10
2.09247e-10
2.09214e-10
2.0863e-10
2.07751e-10
2.07019e-10
2.06624e-10
2.06474e-10
2.06428e-10
2.0642e-10
2.06422e-10
2.06429e-10
2.06437e-10
2.06448e-10
2.06461e-10
2.06472e-10
2.06488e-10
2.06503e-10
2.06519e-10
2.06537e-10
2.06555e-10
2.06574e-10
2.06594e-10
2.06614e-10
2.06638e-10
2.06664e-10
2.0669e-10
2.06719e-10
2.06749e-10
2.06782e-10
2.06816e-10
2.06854e-10
2.06893e-10
2.06935e-10
2.06979e-10
2.07024e-10
2.07074e-10
2.07123e-10
2.07175e-10
2.07228e-10
2.07283e-10
2.07338e-10
2.07396e-10
2.07455e-10
2.07517e-10
2.0758e-10
2.07647e-10
2.07717e-10
2.07787e-10
2.07861e-10
2.07937e-10
2.08015e-10
2.08094e-10
2.08175e-10
2.08258e-10
2.08343e-10
2.0843e-10
2.0852e-10
2.08612e-10
2.08706e-10
2.08803e-10
2.08903e-10
2.09005e-10
2.09109e-10
2.09215e-10
2.09323e-10
2.09434e-10
2.09547e-10
2.09663e-10
2.09782e-10
2.09903e-10
2.10028e-10
2.10155e-10
2.10285e-10
2.10418e-10
2.10554e-10
)
;
    }
    inandouthalf21
    {
        type            cyclic;
        value           nonuniform List<scalar> 
100
(
-2.10693e-10
-2.10835e-10
-2.10981e-10
-2.1113e-10
-2.11283e-10
-2.11439e-10
-2.11599e-10
-2.11764e-10
-2.11932e-10
-2.12104e-10
-2.12281e-10
-2.12463e-10
-2.12649e-10
-2.12841e-10
-2.13037e-10
-2.1324e-10
-2.13448e-10
-2.13662e-10
-2.13883e-10
-2.14111e-10
-2.14346e-10
-2.14588e-10
-2.14839e-10
-2.15097e-10
-2.15365e-10
-2.15642e-10
-2.15929e-10
-2.16226e-10
-2.16534e-10
-2.16855e-10
-2.17188e-10
-2.17534e-10
-2.17894e-10
-2.18272e-10
-2.18672e-10
-2.19096e-10
-2.19539e-10
-2.20007e-10
-2.20524e-10
-2.21114e-10
-2.21754e-10
-2.2236e-10
-2.23072e-10
-2.23995e-10
-2.25125e-10
-2.26992e-10
-2.31428e-10
2.08753e-10
1.69695e-07
2.99432e-07
1.8167e-07
1.34001e-07
1.1157e-07
1.02876e-07
1.02623e-07
1.08339e-07
1.19108e-07
1.35013e-07
1.56784e-07
1.85395e-07
2.21478e-07
2.64499e-07
3.12063e-07
3.60146e-07
4.04568e-07
4.42623e-07
4.73562e-07
4.98022e-07
5.17231e-07
5.32452e-07
5.44744e-07
5.54916e-07
5.63554e-07
5.71075e-07
5.77774e-07
5.83857e-07
5.89472e-07
5.94723e-07
5.99685e-07
6.04414e-07
6.08948e-07
6.13318e-07
6.17547e-07
6.21651e-07
6.25644e-07
6.29536e-07
6.33336e-07
6.3705e-07
6.40684e-07
6.44243e-07
6.47731e-07
6.51152e-07
6.54508e-07
6.57803e-07
6.61039e-07
6.64218e-07
6.67342e-07
6.70413e-07
6.73431e-07
6.76399e-07
)
;
    }
    inandouthalf22
    {
        type            cyclic;
        value           nonuniform List<scalar> 
100
(
2.10693e-10
2.10835e-10
2.10981e-10
2.1113e-10
2.11283e-10
2.11439e-10
2.11599e-10
2.11764e-10
2.11932e-10
2.12104e-10
2.12281e-10
2.12463e-10
2.12649e-10
2.12841e-10
2.13037e-10
2.1324e-10
2.13448e-10
2.13662e-10
2.13883e-10
2.14111e-10
2.14346e-10
2.14588e-10
2.14839e-10
2.15097e-10
2.15365e-10
2.15642e-10
2.15929e-10
2.16226e-10
2.16534e-10
2.16855e-10
2.17188e-10
2.17534e-10
2.17894e-10
2.18272e-10
2.18672e-10
2.19096e-10
2.19539e-10
2.20007e-10
2.20524e-10
2.21114e-10
2.21754e-10
2.2236e-10
2.23072e-10
2.23995e-10
2.25125e-10
2.26992e-10
2.31428e-10
-2.08753e-10
-1.69695e-07
-2.99432e-07
-1.8167e-07
-1.34001e-07
-1.1157e-07
-1.02876e-07
-1.02623e-07
-1.08339e-07
-1.19108e-07
-1.35013e-07
-1.56784e-07
-1.85395e-07
-2.21478e-07
-2.64499e-07
-3.12063e-07
-3.60146e-07
-4.04568e-07
-4.42623e-07
-4.73562e-07
-4.98022e-07
-5.17231e-07
-5.32452e-07
-5.44744e-07
-5.54916e-07
-5.63554e-07
-5.71075e-07
-5.77774e-07
-5.83857e-07
-5.89472e-07
-5.94723e-07
-5.99685e-07
-6.04414e-07
-6.08948e-07
-6.13318e-07
-6.17547e-07
-6.21651e-07
-6.25644e-07
-6.29536e-07
-6.33336e-07
-6.3705e-07
-6.40684e-07
-6.44243e-07
-6.47731e-07
-6.51152e-07
-6.54508e-07
-6.57803e-07
-6.61039e-07
-6.64218e-07
-6.67342e-07
-6.70413e-07
-6.73431e-07
-6.76399e-07
)
;
    }
    inandouthalf31
    {
        type            cyclic;
        value           nonuniform List<scalar> 
110
(
6.7932e-07
6.96066e-07
7.13221e-07
7.30793e-07
7.48792e-07
7.67225e-07
7.86101e-07
8.05428e-07
8.25212e-07
8.4546e-07
8.66178e-07
8.87371e-07
9.09043e-07
9.31195e-07
9.53826e-07
9.76935e-07
1.00052e-06
1.02456e-06
1.04905e-06
1.07397e-06
1.09929e-06
1.12497e-06
1.15095e-06
1.17717e-06
1.20352e-06
1.22988e-06
1.25606e-06
1.28178e-06
1.30664e-06
1.33e-06
1.35089e-06
1.3674e-06
1.36388e-06
1.34232e-06
1.36138e-06
1.38883e-06
1.41701e-06
1.44577e-06
1.47512e-06
1.50506e-06
1.53561e-06
1.56677e-06
1.59858e-06
1.63102e-06
1.66413e-06
1.69791e-06
1.73237e-06
1.76753e-06
1.80341e-06
1.84001e-06
1.87736e-06
1.91546e-06
1.95434e-06
1.99401e-06
2.03448e-06
2.07578e-06
2.11791e-06
2.1609e-06
2.20476e-06
2.24951e-06
2.29517e-06
2.34175e-06
2.38929e-06
2.43778e-06
2.48726e-06
2.53775e-06
2.58926e-06
2.64181e-06
2.69543e-06
2.75014e-06
2.80596e-06
2.86292e-06
2.92103e-06
2.98032e-06
3.04081e-06
3.10253e-06
3.1655e-06
3.22975e-06
3.29531e-06
3.36219e-06
3.43044e-06
3.50007e-06
3.57111e-06
3.64359e-06
3.71755e-06
3.793e-06
3.86999e-06
3.94854e-06
4.02869e-06
4.11046e-06
4.19389e-06
4.27902e-06
4.36587e-06
4.45448e-06
4.5449e-06
4.63715e-06
4.73127e-06
4.8273e-06
4.92528e-06
5.02525e-06
5.12725e-06
5.23132e-06
5.3375e-06
5.44584e-06
5.55638e-06
5.66916e-06
5.78422e-06
5.90163e-06
6.02142e-06
6.14364e-06
)
;
    }
    inandouthalf32
    {
        type            cyclic;
        value           nonuniform List<scalar> 
110
(
-6.7932e-07
-6.96066e-07
-7.13221e-07
-7.30793e-07
-7.48792e-07
-7.67225e-07
-7.86101e-07
-8.05428e-07
-8.25212e-07
-8.4546e-07
-8.66178e-07
-8.87371e-07
-9.09043e-07
-9.31195e-07
-9.53826e-07
-9.76935e-07
-1.00052e-06
-1.02456e-06
-1.04905e-06
-1.07397e-06
-1.09929e-06
-1.12497e-06
-1.15095e-06
-1.17717e-06
-1.20352e-06
-1.22988e-06
-1.25606e-06
-1.28178e-06
-1.30664e-06
-1.33e-06
-1.35089e-06
-1.3674e-06
-1.36388e-06
-1.34232e-06
-1.36138e-06
-1.38883e-06
-1.41701e-06
-1.44577e-06
-1.47512e-06
-1.50506e-06
-1.53561e-06
-1.56677e-06
-1.59858e-06
-1.63102e-06
-1.66413e-06
-1.69791e-06
-1.73237e-06
-1.76753e-06
-1.80341e-06
-1.84001e-06
-1.87736e-06
-1.91546e-06
-1.95434e-06
-1.99401e-06
-2.03448e-06
-2.07578e-06
-2.11791e-06
-2.1609e-06
-2.20476e-06
-2.24951e-06
-2.29517e-06
-2.34175e-06
-2.38929e-06
-2.43778e-06
-2.48726e-06
-2.53775e-06
-2.58926e-06
-2.64181e-06
-2.69543e-06
-2.75014e-06
-2.80596e-06
-2.86292e-06
-2.92103e-06
-2.98032e-06
-3.04081e-06
-3.10253e-06
-3.1655e-06
-3.22975e-06
-3.29531e-06
-3.36219e-06
-3.43044e-06
-3.50007e-06
-3.57111e-06
-3.64359e-06
-3.71755e-06
-3.793e-06
-3.86999e-06
-3.94854e-06
-4.02869e-06
-4.11046e-06
-4.19389e-06
-4.27902e-06
-4.36587e-06
-4.45448e-06
-4.5449e-06
-4.63715e-06
-4.73127e-06
-4.8273e-06
-4.92528e-06
-5.02525e-06
-5.12725e-06
-5.23132e-06
-5.3375e-06
-5.44584e-06
-5.55638e-06
-5.66916e-06
-5.78422e-06
-5.90163e-06
-6.02142e-06
-6.14364e-06
)
;
    }
    inandouthalf41
    {
        type            cyclic;
        value           nonuniform List<scalar> 
50
(
5.49918e-06
5.49918e-06
5.49918e-06
5.49918e-06
5.49918e-06
5.49918e-06
5.49918e-06
5.49918e-06
5.49918e-06
5.49918e-06
5.49918e-06
5.49918e-06
5.49918e-06
5.49918e-06
5.49918e-06
5.49918e-06
5.49918e-06
5.49918e-06
5.49918e-06
5.49918e-06
5.49918e-06
5.49918e-06
5.49918e-06
5.49918e-06
5.49918e-06
5.49918e-06
5.49918e-06
5.49918e-06
5.49918e-06
5.49918e-06
5.49918e-06
5.49918e-06
5.49918e-06
5.49918e-06
5.49918e-06
5.49918e-06
5.49918e-06
5.49918e-06
5.49918e-06
5.49918e-06
5.49918e-06
5.49918e-06
5.49918e-06
5.49918e-06
5.49918e-06
5.49918e-06
5.49918e-06
5.49918e-06
5.49918e-06
5.49918e-06
)
;
    }
    inandouthalf42
    {
        type            cyclic;
        value           nonuniform List<scalar> 
50
(
-5.49918e-06
-5.49918e-06
-5.49918e-06
-5.49918e-06
-5.49918e-06
-5.49918e-06
-5.49918e-06
-5.49918e-06
-5.49918e-06
-5.49918e-06
-5.49918e-06
-5.49918e-06
-5.49918e-06
-5.49918e-06
-5.49918e-06
-5.49918e-06
-5.49918e-06
-5.49918e-06
-5.49918e-06
-5.49918e-06
-5.49918e-06
-5.49918e-06
-5.49918e-06
-5.49918e-06
-5.49918e-06
-5.49918e-06
-5.49918e-06
-5.49918e-06
-5.49918e-06
-5.49918e-06
-5.49918e-06
-5.49918e-06
-5.49918e-06
-5.49918e-06
-5.49918e-06
-5.49918e-06
-5.49918e-06
-5.49918e-06
-5.49918e-06
-5.49918e-06
-5.49918e-06
-5.49918e-06
-5.49918e-06
-5.49918e-06
-5.49918e-06
-5.49918e-06
-5.49918e-06
-5.49918e-06
-5.49918e-06
-5.49918e-06
)
;
    }
    top
    {
        type            symmetryPlane;
        value           uniform 0;
    }
    walls
    {
        type            calculated;
        value           uniform 0;
    }
    frontAndBackPlanes
    {
        type            empty;
        value           nonuniform 0();
    }
}


// ************************************************************************* //
