/*--------------------------------*- C++ -*----------------------------------*\
| =========                 |                                                 |
| \\      /  F ield         | OpenFOAM: The Open Source CFD Toolbox           |
|  \\    /   O peration     | Version:  2.4.x                                 |
|   \\  /    A nd           | Web:      www.OpenFOAM.org                      |
|    \\/     M anipulation  |                                                 |
\*---------------------------------------------------------------------------*/
FoamFile
{
    version     2.0;
    format      ascii;
    class       volScalarField;
    location    "3.8";
    object      ddt0(((1.5*(alpha+1e-08))*rho),Theta);
}
// * * * * * * * * * * * * * * * * * * * * * * * * * * * * * * * * * * * * * //

dimensions      [1 -1 -3 0 0 0 0];

internalField   nonuniform List<scalar> 
360
(
-1.02262e-20
-9.82627e-20
-1.43927e-19
-1.12513e-19
-9.49146e-20
-9.65102e-20
-1.10806e-19
-1.27908e-19
-1.38954e-19
-1.41311e-19
-1.36516e-19
-1.25859e-19
-1.0963e-19
-8.9078e-20
-6.87408e-20
-5.67446e-20
-6.30291e-20
-9.76377e-20
-1.71163e-19
-2.98266e-19
-5.03841e-19
-8.27439e-19
-1.30266e-18
-1.84648e-18
-1.98994e-18
-8.38609e-19
1.53446e-18
2.82545e-18
1.89636e-18
6.22806e-19
1.1349e-19
1.38023e-20
1.45558e-21
1.68273e-22
1.8923e-23
-4.87725e-24
-1.1855e-23
-1.68321e-23
-2.22441e-23
-2.77059e-23
-3.18267e-23
-3.34724e-23
-3.27243e-23
-3.06763e-23
-2.849e-23
-2.68777e-23
-2.60597e-23
-2.59882e-23
-2.65594e-23
-2.76184e-23
-2.9001e-23
-3.06133e-23
-3.23996e-23
-3.43166e-23
-3.63575e-23
-3.85263e-23
-4.08109e-23
-4.32043e-23
-4.56678e-23
-4.81705e-23
-5.06741e-23
-5.3062e-23
-5.52264e-23
-5.71017e-23
-5.87065e-23
-6.01859e-23
-6.17588e-23
-6.36446e-23
-6.60353e-23
-6.91455e-23
-7.31507e-23
-7.80186e-23
-8.36041e-23
-8.97715e-23
-9.62767e-23
-1.02771e-22
-1.08936e-22
-1.14642e-22
-1.19949e-22
-1.24994e-22
-1.29998e-22
-1.35245e-22
-1.40951e-22
-1.47201e-22
-1.53966e-22
-1.61105e-22
-1.68391e-22
-1.75565e-22
-1.82422e-22
-1.88856e-22
-1.94848e-22
-2.00462e-22
-2.05819e-22
-2.1103e-22
-2.16167e-22
-2.21254e-22
-2.26269e-22
-2.31155e-22
-2.35845e-22
-2.37597e-22
0
0
0
0
0
0
0
0
0
0
0
0
0
0
0
-2.62163e-22
-2.63721e-22
-2.66249e-22
-2.69912e-22
-2.74805e-22
-2.80916e-22
-2.88077e-22
-2.95914e-22
-3.03816e-22
-3.10947e-22
-3.16309e-22
-3.18844e-22
-3.17548e-22
-6.99271e-22
-7.49639e-17
-2.39547e-16
-6.48707e-16
-1.59456e-15
-3.56356e-15
-7.19516e-15
-1.29325e-14
-1.97024e-14
-1.85081e-14
6.1124e-14
1.05666e-12
1.66501e-11
2.93391e-10
5.88551e-09
1.36505e-07
3.86024e-06
0.000273169
0.0234477
0.495596
5.15369
5.70762
1.75844
0.99693
0.859018
0.816991
0.758299
0.668649
0.550834
0.422842
0.30228
0.201897
0.126982
0.0763767
0.0452304
0.0274585
0.0175806
0.0118955
0.00840963
0.00614123
0.0045931
0.00349675
0.00269784
0.00210263
0.00165147
0.00130482
0.00103558
0.000824653
0.000658225
0.000526076
0.000420549
0.000335827
0.000267431
0.000211897
0.000166552
0.000129375
9.89057e-05
7.41726e-05
5.45889e-05
3.974e-05
2.90815e-05
2.17271e-05
1.65672e-05
1.26771e-05
9.59935e-06
7.21079e-06
5.41454e-06
4.0438e-06
2.96605e-06
2.12395e-06
1.47779e-06
9.81207e-07
5.96173e-07
2.95834e-07
6.6621e-08
-1.04739e-07
-2.34048e-07
-3.23942e-07
-3.77216e-07
-4.13874e-07
-4.41562e-07
-4.41826e-07
-4.26087e-07
-4.16722e-07
-3.98378e-07
-3.66469e-07
-3.4204e-07
-3.17966e-07
-2.81178e-07
-2.50132e-07
-2.30511e-07
-2.01849e-07
-1.70298e-07
-1.51156e-07
-1.29837e-07
-1.08544e-07
-9.3569e-08
-7.65492e-08
-6.23802e-08
-5.30987e-08
-4.14759e-08
-3.23469e-08
-2.63429e-08
-1.96776e-08
-1.62704e-08
-1.37131e-08
-1.10344e-08
-7.73211e-09
-3.86444e-09
1.1379e-180
0
0
0
0
0
0
0
0
0
0
0
0
0
0
0
0
0
0
0
0
0
0
0
0
0
0
0
0
0
0
0
0
0
0
0
0
0
0
0
0
0
0
0
0
0
0
0
0
0
0
0
0
0
0
0
0
0
0
0
0
0
0
0
0
0
0
0
0
0
0
0
0
0
0
0
0
0
0
0
0
0
0
0
0
0
0
0
0
0
0
0
0
0
0
0
0
0
0
0
0
0
0
0
0
0
0
0
0
0
0
0
0
0
0
0
0
0
0
0
0
0
0
)
;

boundaryField
{
    inandouthalf11
    {
        type            cyclic;
    }
    inandouthalf12
    {
        type            cyclic;
    }
    inandouthalf21
    {
        type            cyclic;
    }
    inandouthalf22
    {
        type            cyclic;
    }
    inandouthalf31
    {
        type            cyclic;
    }
    inandouthalf32
    {
        type            cyclic;
    }
    inandouthalf41
    {
        type            cyclic;
    }
    inandouthalf42
    {
        type            cyclic;
    }
    top
    {
        type            symmetryPlane;
    }
    walls
    {
        type            calculated;
        value           uniform -1.02262e-20;
    }
    frontAndBackPlanes
    {
        type            empty;
    }
}


// ************************************************************************* //
