/*--------------------------------*- C++ -*----------------------------------*\
| =========                 |                                                 |
| \\      /  F ield         | OpenFOAM: The Open Source CFD Toolbox           |
|  \\    /   O peration     | Version:  2.4.x                                 |
|   \\  /    A nd           | Web:      www.OpenFOAM.org                      |
|    \\/     M anipulation  |                                                 |
\*---------------------------------------------------------------------------*/
FoamFile
{
    version     2.0;
    format      ascii;
    class       volScalarField;
    location    "3.8";
    object      ddt0(epsilon);
}
// * * * * * * * * * * * * * * * * * * * * * * * * * * * * * * * * * * * * * //

dimensions      [0 2 -4 0 0 0 0];

internalField   nonuniform List<scalar> 
360
(
0
0
0
0
0
0
0
0
0
0
0
0
0
0
0
0
0
0
0
0
0
0
0
0
0
0
0
0
0
0
0
0
0
0
0
0
0
0
0
0
0
0
0
0
0
0
0
0
0
0
0
0
0
0
0
0
0
0
0
0
0
0
0
0
0
0
0
0
0
0
0
0
0
0
0
0
0
0
0
0
0
0
0
0
0
0
0
0
0
0
0
0
0
0
0
0
0
0
0
0
0
0
0
0
0
0
0
0
0
0
0
0
0
0
0
0
0
0
0
0
0
0
0
0
0
0
0
0
0
-3.75403e-20
-1.21618e-19
-3.34746e-19
-8.38071e-19
-1.91053e-18
-3.93032e-18
-7.12785e-18
-1.03781e-17
-2.61062e-18
1.85686e-16
3.43642e-15
6.42609e-14
1.35992e-12
3.30855e-11
9.37473e-10
3.13072e-08
1.24696e-06
5.97966e-05
0.00337828
0.129671
0.441939
0.0203812
0.0448696
0.0949288
0.137463
0.168213
0.188403
0.199592
0.202647
0.197751
0.184878
0.164545
0.138548
0.110086
0.082866
0.0596761
0.0416049
0.0283287
0.0188713
0.0121913
0.00743957
0.00400236
0.00146095
-0.000463694
-0.00195647
-0.00314051
-0.00409868
-0.00488748
-0.00554605
-0.00610186
-0.00657455
-0.00697833
-0.00732369
-0.00761845
-0.00786858
-0.00807869
-0.0082524
-0.00839261
-0.0085017
-0.00858165
-0.00863412
-0.00866056
-0.00866225
-0.00864031
-0.00859577
-0.00852958
-0.00844262
-0.00833572
-0.00820968
-0.00806526
-0.0079032
-0.00772423
-0.00752708
-0.00730965
-0.00707164
-0.00681281
-0.00653297
-0.00623201
-0.00590988
-0.00556665
-0.00520252
-0.00481782
-0.00441308
-0.00398901
-0.0035466
-0.00308711
-0.00261219
-0.00212388
-0.00162477
-0.00111802
-0.000607565
-9.82213e-05
0.00040409
0.000892092
0.00135682
0.00178722
0.00216951
0.00248645
0.00271604
0.00282948
0.00278796
0.00254214
0.00204014
0.000956396
9.80917e-05
1.8713e-06
2.37865e-08
2.84867e-10
3.23992e-12
3.50162e-14
3.59731e-16
3.50139e-18
1.41019e-20
0
0
0
0
0
0
0
0
0
0
0
0
0
0
0
0
0
0
0
0
0
0
0
0
0
0
0
0
0
0
0
0
0
0
0
0
0
0
0
0
0
0
0
0
0
0
0
0
0
0
0
0
0
0
0
0
0
0
0
0
0
0
0
0
0
0
0
0
0
0
0
0
0
0
0
0
0
0
0
0
0
0
0
0
0
0
0
0
0
0
0
0
0
0
0
0
0
0
0
0
0
0
0
0
0
0
0
0
0
0
0
0
0
0
0
0
0
0
)
;

boundaryField
{
    inandouthalf11
    {
        type            cyclic;
    }
    inandouthalf12
    {
        type            cyclic;
    }
    inandouthalf21
    {
        type            cyclic;
    }
    inandouthalf22
    {
        type            cyclic;
    }
    inandouthalf31
    {
        type            cyclic;
    }
    inandouthalf32
    {
        type            cyclic;
    }
    inandouthalf41
    {
        type            cyclic;
    }
    inandouthalf42
    {
        type            cyclic;
    }
    top
    {
        type            symmetryPlane;
    }
    walls
    {
        type            calculated;
        value           uniform 0;
    }
    frontAndBackPlanes
    {
        type            empty;
    }
}


// ************************************************************************* //
