/*--------------------------------*- C++ -*----------------------------------*\
| =========                 |                                                 |
| \\      /  F ield         | OpenFOAM: The Open Source CFD Toolbox           |
|  \\    /   O peration     | Version:  2.4.x                                 |
|   \\  /    A nd           | Web:      www.OpenFOAM.org                      |
|    \\/     M anipulation  |                                                 |
\*---------------------------------------------------------------------------*/
FoamFile
{
    version     2.0;
    format      ascii;
    class       volScalarField;
    location    "3.8";
    object      mua;
}
// * * * * * * * * * * * * * * * * * * * * * * * * * * * * * * * * * * * * * //

dimensions      [1 -1 -1 0 0 0 0];

internalField   nonuniform List<scalar> 
360
(
405413
218629
235114
262408
265521
257511
247729
239986
235253
232094
228991
225630
222536
220525
219984
220707
221995
222650
220924
214817
202820
184506
161718
138347
119188
108917
112786
141304
224855
461571
1.18325e+06
3.45564e+06
9.98926e+06
2.46282e+07
4.69744e+07
6.7543e+07
7.61558e+07
7.26504e+07
6.36207e+07
5.45253e+07
4.74814e+07
4.28115e+07
4.01056e+07
3.87972e+07
3.84417e+07
3.86237e+07
3.90009e+07
3.93031e+07
3.92899e+07
3.88943e+07
3.81871e+07
3.72086e+07
3.60374e+07
3.47418e+07
3.33868e+07
3.20021e+07
3.06496e+07
2.93439e+07
2.81224e+07
2.69986e+07
2.59672e+07
2.50627e+07
2.42826e+07
2.36279e+07
2.30704e+07
2.25662e+07
2.20598e+07
2.151e+07
2.08899e+07
2.01806e+07
1.93759e+07
1.85147e+07
1.76453e+07
1.67915e+07
1.59877e+07
1.52567e+07
1.46129e+07
1.40471e+07
1.3542e+07
1.308e+07
1.26443e+07
1.22177e+07
1.17914e+07
1.13648e+07
1.09419e+07
1.05302e+07
1.01371e+07
9.76926e+06
9.42922e+06
9.11588e+06
8.82625e+06
8.55593e+06
8.30001e+06
8.05484e+06
7.81816e+06
7.58892e+06
7.36702e+06
7.15287e+06
6.94691e+06
6.74937e+06
6.56029e+06
6.37947e+06
6.20658e+06
6.0413e+06
5.8833e+06
5.73218e+06
5.58751e+06
5.44869e+06
5.31498e+06
5.18547e+06
5.05909e+06
4.93459e+06
4.81061e+06
4.6857e+06
4.55834e+06
4.4271e+06
4.29073e+06
4.14835e+06
3.99959e+06
3.84486e+06
3.68544e+06
3.52356e+06
3.36233e+06
3.20545e+06
3.0568e+06
2.92004e+06
2.79829e+06
2.69414e+06
2.60989e+06
2.54778e+06
2.50933e+06
2.49341e+06
2.49381e+06
2.49988e+06
2.50297e+06
2.50298e+06
2.50381e+06
2.50421e+06
2.51197e+06
2.59726e+06
2.9581e+06
3.97294e+06
6.25579e+06
1.10162e+07
1.82724e+07
1.51587e+07
547598
0.20706
0.0223333
0.00958083
0.00753997
0.00656261
0.00594161
0.00552942
0.00524562
0.00503367
0.00485546
0.00469111
0.00453352
0.00438333
0.00424447
0.00412042
0.00401222
0.00391871
0.00383788
0.00376789
0.0037072
0.00365456
0.00360884
0.00356908
0.00353443
0.00350412
0.0034775
0.00345398
0.00343305
0.00341425
0.0033972
0.00338154
0.00336698
0.00335326
0.00334015
0.00332746
0.00331503
0.00330273
0.00329044
0.00327807
0.00326556
0.00325286
0.00323993
0.00322676
0.00321333
0.00319962
0.00318564
0.00317138
0.00315684
0.00314202
0.00312691
0.00311152
0.00309585
0.0030799
0.00306367
0.00304698
0.00302966
0.00301166
0.00299297
0.00297353
0.00295333
0.00293231
0.00291043
0.00288765
0.00286391
0.00283915
0.0028133
0.00278631
0.00275807
0.00272851
0.00269753
0.00266501
0.00263082
0.00259482
0.00255683
0.00251666
0.00247408
0.00242881
0.00238055
0.00232889
0.00227336
0.00221338
0.00214821
0.00207688
0.00199812
0.00191016
0.00181048
0.0016953
0.00155834
0.00138751
0.00115291
0
0
0
0
0
0
0
0
0
0
0
0
0
0
0
0
0
0
0
0
0
0
0
0
0
0
0
0
0
0
0
0
0
0
0
0
0
0
0
0
0
0
0
0
0
0
0
0
0
0
0
0
0
0
0
0
0
0
0
0
0
0
0
0
0
0
0
0
0
0
0
0
0
0
0
0
0
0
0
0
0
0
0
0
0
0
0
0
0
0
0
0
0
0
0
0
0
0
0
0
0
0
0
0
0
0
0
0
0
0
0
0
0
0
0
0
0
0
0
0
0
0
0
)
;

boundaryField
{
    inandouthalf11
    {
        type            cyclic;
    }
    inandouthalf12
    {
        type            cyclic;
    }
    inandouthalf21
    {
        type            cyclic;
    }
    inandouthalf22
    {
        type            cyclic;
    }
    inandouthalf31
    {
        type            cyclic;
    }
    inandouthalf32
    {
        type            cyclic;
    }
    inandouthalf41
    {
        type            cyclic;
    }
    inandouthalf42
    {
        type            cyclic;
    }
    top
    {
        type            symmetryPlane;
    }
    walls
    {
        type            calculated;
        value           uniform 1e+30;
    }
    frontAndBackPlanes
    {
        type            empty;
    }
}


// ************************************************************************* //
