/*--------------------------------*- C++ -*----------------------------------*\
| =========                 |                                                 |
| \\      /  F ield         | OpenFOAM: The Open Source CFD Toolbox           |
|  \\    /   O peration     | Version:  2.4.x                                 |
|   \\  /    A nd           | Web:      www.OpenFOAM.org                      |
|    \\/     M anipulation  |                                                 |
\*---------------------------------------------------------------------------*/
FoamFile
{
    version     2.0;
    format      ascii;
    class       volScalarField;
    location    "3.8";
    object      p;
}
// * * * * * * * * * * * * * * * * * * * * * * * * * * * * * * * * * * * * * //

dimensions      [1 -1 -2 0 0 0 0];

internalField   nonuniform List<scalar> 
360
(
4896.4
4891.49
4886.59
4881.68
4876.76
4871.85
4866.93
4862.01
4857.09
4852.17
4847.25
4842.32
4837.39
4832.46
4827.53
4822.6
4817.66
4812.72
4807.78
4802.84
4797.89
4792.94
4788
4783.04
4778.09
4773.13
4768.17
4763.2
4758.23
4753.26
4748.29
4743.32
4738.35
4733.38
4728.41
4723.44
4718.46
4713.49
4708.52
4703.55
4698.58
4693.61
4688.63
4683.66
4678.69
4673.72
4668.75
4663.78
4658.81
4653.83
4648.86
4643.89
4638.92
4633.95
4628.98
4624.01
4619.03
4614.06
4609.09
4604.12
4599.15
4594.18
4589.2
4584.23
4579.26
4574.29
4569.32
4564.35
4559.38
4554.4
4549.43
4544.46
4539.49
4534.52
4529.55
4524.58
4519.6
4514.63
4509.66
4504.69
4499.72
4494.75
4489.78
4484.81
4479.83
4474.86
4469.89
4464.92
4459.95
4454.98
4450.01
4445.04
4440.07
4435.09
4430.12
4425.15
4420.18
4415.21
4410.24
4405.27
4400.3
4395.33
4390.36
4385.38
4380.41
4375.44
4370.47
4365.5
4360.53
4355.56
4350.59
4345.62
4340.65
4335.68
4330.71
4325.74
4320.77
4315.8
4310.83
4305.86
4300.89
4295.92
4290.95
4285.98
4281.01
4276.04
4271.07
4266.1
4261.13
4256.16
4251.19
4246.22
4241.25
4236.28
4231.31
4226.34
4221.37
4216.41
4211.44
4206.47
4201.5
4196.53
4191.57
4186.6
4181.63
4176.67
4171.7
4166.75
4161.22
4153.02
4145.54
4139.52
4134.03
4128.83
4123.84
4118.99
4114.24
4109.57
4104.93
4100.32
4095.7
4091.06
4086.37
4081.64
4076.86
4072.05
4067.2
4062.33
4057.43
4052.53
4047.62
4042.7
4037.77
4032.85
4027.92
4022.99
4018.06
4013.12
4008.19
4003.26
3998.33
3993.4
3988.47
3983.54
3978.61
3973.68
3968.75
3963.83
3958.91
3953.99
3949.07
3944.15
3939.24
3934.32
3929.41
3924.5
3919.6
3914.69
3909.79
3904.89
3899.99
3895.04
3890
3884.85
3879.61
3874.26
3868.8
3863.24
3857.56
3851.77
3845.87
3839.85
3833.72
3827.46
3821.08
3814.57
3807.93
3801.16
3794.26
3787.21
3780.03
3772.71
3765.24
3757.62
3749.85
3741.92
3733.83
3725.58
3717.16
3708.56
3699.79
3690.83
3681.66
3672.26
3662.65
3652.84
3642.83
3632.61
3622.19
3611.56
3600.71
3589.64
3578.35
3566.83
3555.07
3543.08
3530.84
3518.35
3505.61
3492.61
3479.35
3465.82
3452.01
3437.92
3423.55
3408.88
3393.92
3378.66
3363.08
3347.19
3330.97
3314.43
3297.55
3280.33
3262.76
3244.83
3226.54
3207.87
3188.83
3169.4
3149.58
3129.35
3108.72
3087.66
3066.18
3044.26
3021.9
2999.08
2975.8
2952.05
2927.81
2903.09
2877.86
2852.12
2825.86
2799.06
2771.72
2743.82
2715.36
2686.32
2656.7
2626.47
2595.62
2564.15
2532.05
2499.29
2465.86
2431.76
2396.96
2361.46
2325.24
2288.28
2250.57
2212.1
2172.85
2132.8
2091.93
2050.24
2007.7
1964.3
1922.76
1883.52
1844.28
1805.04
1765.8
1726.56
1687.32
1648.08
1608.84
1569.6
1530.36
1491.12
1451.88
1412.64
1373.4
1334.16
1294.92
1255.68
1216.44
1177.2
1137.96
1098.72
1059.48
1020.24
981
941.76
902.52
863.28
824.04
784.8
745.56
706.32
667.08
627.84
588.6
549.36
510.12
470.88
431.64
392.4
353.16
313.92
274.68
235.44
196.2
156.96
117.72
78.48
39.24
-1.8194e-07
)
;

boundaryField
{
    inandouthalf11
    {
        type            cyclic;
    }
    inandouthalf12
    {
        type            cyclic;
    }
    inandouthalf21
    {
        type            cyclic;
    }
    inandouthalf22
    {
        type            cyclic;
    }
    inandouthalf31
    {
        type            cyclic;
    }
    inandouthalf32
    {
        type            cyclic;
    }
    inandouthalf41
    {
        type            cyclic;
    }
    inandouthalf42
    {
        type            cyclic;
    }
    top
    {
        type            symmetryPlane;
    }
    walls
    {
        type            slip;
    }
    frontAndBackPlanes
    {
        type            empty;
    }
}


// ************************************************************************* //
