/*--------------------------------*- C++ -*----------------------------------*\
| =========                 |                                                 |
| \\      /  F ield         | OpenFOAM: The Open Source CFD Toolbox           |
|  \\    /   O peration     | Version:  2.4.x                                 |
|   \\  /    A nd           | Web:      www.OpenFOAM.org                      |
|    \\/     M anipulation  |                                                 |
\*---------------------------------------------------------------------------*/
FoamFile
{
    version     2.0;
    format      ascii;
    class       surfaceScalarField;
    location    "3.8";
    object      phib_0;
}
// * * * * * * * * * * * * * * * * * * * * * * * * * * * * * * * * * * * * * //

dimensions      [0 3 -1 0 0 0 0];

internalField   nonuniform List<scalar> 
359
(
1.14796e-12
3.42441e-12
5.65654e-12
7.67923e-12
9.6354e-12
1.16248e-11
1.36754e-11
1.57756e-11
1.79004e-11
2.0037e-11
2.21849e-11
2.43456e-11
2.65175e-11
2.86898e-11
3.08487e-11
3.29821e-11
3.5085e-11
3.71642e-11
3.92415e-11
4.13604e-11
4.35846e-11
4.60074e-11
4.87435e-11
5.19055e-11
5.55282e-11
5.94372e-11
6.31589e-11
6.6092e-11
6.79154e-11
6.87969e-11
6.91386e-11
6.92548e-11
6.92942e-11
6.93094e-11
6.93168e-11
6.93214e-11
6.93252e-11
6.9329e-11
6.93336e-11
6.9339e-11
6.93451e-11
6.93521e-11
6.93595e-11
6.93668e-11
6.93741e-11
6.9381e-11
6.93877e-11
6.9394e-11
6.93997e-11
6.94053e-11
6.94108e-11
6.94162e-11
6.94215e-11
6.94268e-11
6.9432e-11
6.94373e-11
6.94426e-11
6.9448e-11
6.94535e-11
6.9459e-11
6.94645e-11
6.94701e-11
6.94758e-11
6.94816e-11
6.94873e-11
6.94929e-11
6.94984e-11
6.95039e-11
6.95092e-11
6.95146e-11
6.95199e-11
6.95254e-11
6.95312e-11
6.95373e-11
6.95438e-11
6.95506e-11
6.95578e-11
6.95652e-11
6.95728e-11
6.95805e-11
6.95882e-11
6.9596e-11
6.96039e-11
6.96119e-11
6.962e-11
6.96284e-11
6.96369e-11
6.96456e-11
6.96544e-11
6.96633e-11
6.96722e-11
6.96811e-11
6.96899e-11
6.96986e-11
6.97071e-11
6.97155e-11
6.97238e-11
6.97318e-11
6.97397e-11
6.97473e-11
6.97546e-11
6.97616e-11
6.97682e-11
6.97743e-11
6.978e-11
6.97852e-11
6.97898e-11
6.97937e-11
6.9797e-11
6.97995e-11
6.98012e-11
6.98021e-11
6.98021e-11
6.98012e-11
6.97994e-11
6.97966e-11
6.97928e-11
6.97881e-11
6.97823e-11
6.97757e-11
6.9768e-11
6.97593e-11
6.97496e-11
6.97388e-11
6.97267e-11
6.97131e-11
6.96978e-11
6.96805e-11
6.96607e-11
6.9638e-11
6.96122e-11
6.95827e-11
6.95489e-11
6.95103e-11
6.94663e-11
6.94174e-11
6.93633e-11
6.93016e-11
6.92287e-11
6.91442e-11
6.9056e-11
6.89586e-11
6.8834e-11
6.8676e-11
6.84437e-11
6.79354e-11
6.73787e-11
2.43598e-11
-2.39877e-09
-2.53889e-09
-2.24879e-09
-1.93186e-09
-1.61529e-09
-1.31448e-09
-1.04077e-09
-8.01812e-10
-6.00678e-10
-4.37001e-10
-3.07886e-10
-2.08798e-10
-1.34735e-10
-8.17103e-11
-4.67978e-11
-2.60318e-11
-1.43406e-11
-7.70299e-12
-3.81356e-12
-1.47657e-12
-5.71124e-14
7.98684e-13
1.29729e-12
1.56438e-12
1.67922e-12
1.69331e-12
1.6411e-12
1.54529e-12
1.42286e-12
1.28584e-12
1.14196e-12
9.97396e-13
8.56861e-13
7.24039e-13
6.01879e-13
4.92696e-13
3.98173e-13
3.19317e-13
2.56431e-13
2.08966e-13
1.75088e-13
1.51324e-13
1.33312e-13
1.17814e-13
1.03976e-13
9.2238e-14
8.25104e-14
7.40084e-14
6.62956e-14
5.94876e-14
5.3631e-14
4.84681e-14
4.36498e-14
3.9027e-14
3.49718e-14
3.16283e-14
2.84722e-14
2.51687e-14
2.22398e-14
2.00368e-14
1.79486e-14
1.5713e-14
1.38766e-14
1.24092e-14
1.09071e-14
9.56962e-15
8.52558e-15
7.46167e-15
6.43135e-15
5.70047e-15
5.05437e-15
4.31416e-15
3.72509e-15
3.27545e-15
2.81179e-15
2.43089e-15
2.09838e-15
1.76891e-15
1.53225e-15
1.31431e-15
1.07942e-15
9.13545e-16
7.66743e-16
6.51414e-16
6.13341e-16
5.90146e-16
5.37183e-16
4.05224e-16
2.012e-16
1.57563e-16
1.80357e-17
1.6536e-17
1.60685e-17
1.56306e-17
1.51519e-17
1.4703e-17
1.42166e-17
1.37563e-17
1.32595e-17
1.27666e-17
1.2263e-17
1.17843e-17
1.12754e-17
1.07846e-17
1.02647e-17
9.76085e-18
9.23294e-18
8.72203e-18
8.19438e-18
7.68316e-18
7.16075e-18
6.65429e-18
6.14928e-18
5.66808e-18
5.20183e-18
4.77373e-18
4.38204e-18
4.03287e-18
3.75259e-18
3.4579e-18
3.1868e-18
2.93445e-18
2.69691e-18
2.47589e-18
2.27208e-18
2.08419e-18
1.90727e-18
1.74185e-18
1.58162e-18
1.43286e-18
1.2897e-18
1.15624e-18
1.01991e-18
8.9688e-19
7.8026e-19
6.82577e-19
5.78805e-19
4.97982e-19
4.46362e-19
3.89798e-19
3.10634e-19
2.51255e-19
1.94354e-19
1.62994e-19
1.18814e-19
9.52383e-20
7.19796e-20
5.58504e-20
-5.49289e-20
-8.68358e-20
-1.21319e-19
-1.55924e-19
-1.8991e-19
-2.12177e-19
-2.34836e-19
-2.46767e-19
-2.76928e-19
-2.96293e-19
-3.16514e-19
-3.20688e-19
-3.3769e-19
-3.39444e-19
-3.41272e-19
-3.36528e-19
-3.51458e-19
-3.6058e-19
-3.71263e-19
-3.72707e-19
-3.81518e-19
-3.82004e-19
-3.82898e-19
-3.78874e-19
-3.90328e-19
-3.96941e-19
-4.05235e-19
-4.09309e-19
-4.2714e-19
-4.46581e-19
-4.88322e-19
-6.1006e-19
-8.34554e-19
-1.12597e-18
-1.43834e-18
-1.71846e-18
-2.04623e-18
-2.30812e-18
-2.57504e-18
-2.76596e-18
-3.11254e-18
-3.34849e-18
-3.58483e-18
-3.66542e-18
-3.87999e-18
-3.8987e-18
-3.93472e-18
-3.813e-18
-4.12714e-18
-4.2144e-18
-4.30883e-18
-4.05815e-18
-4.04508e-18
-3.64633e-18
-3.23388e-18
-2.66048e-18
-2.01599e-18
-1.2588e-18
-4.7451e-19
4.95969e-20
1.75557e-18
1.67234e-18
4.4317e-19
)
;

boundaryField
{
    inandouthalf11
    {
        type            cyclic;
        value           nonuniform List<scalar> 
100
(
1.4623e-10
1.45975e-10
1.45878e-10
1.45998e-10
1.46137e-10
1.46262e-10
1.46386e-10
1.4651e-10
1.46631e-10
1.46754e-10
1.46879e-10
1.47007e-10
1.47136e-10
1.47264e-10
1.47392e-10
1.47519e-10
1.47644e-10
1.47767e-10
1.4789e-10
1.48014e-10
1.48141e-10
1.48278e-10
1.48429e-10
1.48601e-10
1.488e-10
1.49021e-10
1.49246e-10
1.49442e-10
1.49579e-10
1.49654e-10
1.49687e-10
1.49702e-10
1.49709e-10
1.49716e-10
1.49721e-10
1.49727e-10
1.49733e-10
1.4974e-10
1.49748e-10
1.49755e-10
1.49764e-10
1.49773e-10
1.49783e-10
1.49794e-10
1.49806e-10
1.49819e-10
1.49832e-10
1.49846e-10
1.49861e-10
1.49879e-10
1.49896e-10
1.49916e-10
1.49936e-10
1.49958e-10
1.4998e-10
1.50006e-10
1.50031e-10
1.5006e-10
1.50089e-10
1.50119e-10
1.50152e-10
1.50185e-10
1.5022e-10
1.50256e-10
1.50292e-10
1.50329e-10
1.50368e-10
1.50408e-10
1.50449e-10
1.50491e-10
1.50536e-10
1.50583e-10
1.5063e-10
1.50679e-10
1.5073e-10
1.50782e-10
1.50834e-10
1.50888e-10
1.50943e-10
1.51e-10
1.51058e-10
1.51118e-10
1.51179e-10
1.51242e-10
1.51306e-10
1.51372e-10
1.5144e-10
1.51509e-10
1.51579e-10
1.51651e-10
1.51725e-10
1.518e-10
1.51877e-10
1.51956e-10
1.52037e-10
1.5212e-10
1.52204e-10
1.52291e-10
1.52379e-10
1.5247e-10
)
;
    }
    inandouthalf12
    {
        type            cyclic;
        value           nonuniform List<scalar> 
100
(
-1.4623e-10
-1.45975e-10
-1.45878e-10
-1.45998e-10
-1.46137e-10
-1.46262e-10
-1.46386e-10
-1.4651e-10
-1.46631e-10
-1.46754e-10
-1.46879e-10
-1.47007e-10
-1.47136e-10
-1.47264e-10
-1.47392e-10
-1.47519e-10
-1.47644e-10
-1.47767e-10
-1.4789e-10
-1.48014e-10
-1.48141e-10
-1.48278e-10
-1.48429e-10
-1.48601e-10
-1.488e-10
-1.49021e-10
-1.49246e-10
-1.49442e-10
-1.49579e-10
-1.49654e-10
-1.49687e-10
-1.49702e-10
-1.49709e-10
-1.49716e-10
-1.49721e-10
-1.49727e-10
-1.49733e-10
-1.4974e-10
-1.49748e-10
-1.49755e-10
-1.49764e-10
-1.49773e-10
-1.49783e-10
-1.49794e-10
-1.49806e-10
-1.49819e-10
-1.49832e-10
-1.49846e-10
-1.49861e-10
-1.49879e-10
-1.49896e-10
-1.49916e-10
-1.49936e-10
-1.49958e-10
-1.4998e-10
-1.50006e-10
-1.50031e-10
-1.5006e-10
-1.50089e-10
-1.50119e-10
-1.50152e-10
-1.50185e-10
-1.5022e-10
-1.50256e-10
-1.50292e-10
-1.50329e-10
-1.50368e-10
-1.50408e-10
-1.50449e-10
-1.50491e-10
-1.50536e-10
-1.50583e-10
-1.5063e-10
-1.50679e-10
-1.5073e-10
-1.50782e-10
-1.50834e-10
-1.50888e-10
-1.50943e-10
-1.51e-10
-1.51058e-10
-1.51118e-10
-1.51179e-10
-1.51242e-10
-1.51306e-10
-1.51372e-10
-1.5144e-10
-1.51509e-10
-1.51579e-10
-1.51651e-10
-1.51725e-10
-1.518e-10
-1.51877e-10
-1.51956e-10
-1.52037e-10
-1.5212e-10
-1.52204e-10
-1.52291e-10
-1.52379e-10
-1.5247e-10
)
;
    }
    inandouthalf21
    {
        type            cyclic;
        value           nonuniform List<scalar> 
100
(
1.52563e-10
1.52658e-10
1.52755e-10
1.52855e-10
1.52957e-10
1.53062e-10
1.53169e-10
1.5328e-10
1.53393e-10
1.53509e-10
1.53628e-10
1.5375e-10
1.53876e-10
1.54006e-10
1.54139e-10
1.54276e-10
1.54417e-10
1.54563e-10
1.54713e-10
1.54867e-10
1.55027e-10
1.55192e-10
1.55362e-10
1.55538e-10
1.5572e-10
1.55908e-10
1.56103e-10
1.56306e-10
1.56516e-10
1.56735e-10
1.56963e-10
1.572e-10
1.57448e-10
1.57708e-10
1.57985e-10
1.58277e-10
1.58584e-10
1.5891e-10
1.5927e-10
1.59684e-10
1.60133e-10
1.60561e-10
1.61068e-10
1.61726e-10
1.62535e-10
1.63893e-10
1.67382e-10
2.04953e-10
2.13002e-08
1.34757e-07
2.46257e-07
3.31238e-07
4.001e-07
4.57408e-07
5.05939e-07
5.47542e-07
5.83495e-07
6.14682e-07
6.41703e-07
6.64944e-07
6.84647e-07
7.00981e-07
7.14132e-07
7.24374e-07
7.32096e-07
7.37754e-07
7.41798e-07
7.44614e-07
7.46508e-07
7.47704e-07
7.48365e-07
7.48607e-07
7.48514e-07
7.48145e-07
7.47545e-07
7.46748e-07
7.45778e-07
7.44657e-07
7.434e-07
7.42021e-07
7.40531e-07
7.3894e-07
7.37257e-07
7.35487e-07
7.33639e-07
7.31718e-07
7.29729e-07
7.27678e-07
7.25568e-07
7.23405e-07
7.21192e-07
7.18932e-07
7.1663e-07
7.14288e-07
7.11909e-07
7.09496e-07
7.07053e-07
7.0458e-07
7.02081e-07
6.99559e-07
)
;
    }
    inandouthalf22
    {
        type            cyclic;
        value           nonuniform List<scalar> 
100
(
-1.52563e-10
-1.52658e-10
-1.52755e-10
-1.52855e-10
-1.52957e-10
-1.53062e-10
-1.53169e-10
-1.5328e-10
-1.53393e-10
-1.53509e-10
-1.53628e-10
-1.5375e-10
-1.53876e-10
-1.54006e-10
-1.54139e-10
-1.54276e-10
-1.54417e-10
-1.54563e-10
-1.54713e-10
-1.54867e-10
-1.55027e-10
-1.55192e-10
-1.55362e-10
-1.55538e-10
-1.5572e-10
-1.55908e-10
-1.56103e-10
-1.56306e-10
-1.56516e-10
-1.56735e-10
-1.56963e-10
-1.572e-10
-1.57448e-10
-1.57708e-10
-1.57985e-10
-1.58277e-10
-1.58584e-10
-1.5891e-10
-1.5927e-10
-1.59684e-10
-1.60133e-10
-1.60561e-10
-1.61068e-10
-1.61726e-10
-1.62535e-10
-1.63893e-10
-1.67382e-10
-2.04953e-10
-2.13002e-08
-1.34757e-07
-2.46257e-07
-3.31238e-07
-4.001e-07
-4.57408e-07
-5.05939e-07
-5.47542e-07
-5.83495e-07
-6.14682e-07
-6.41703e-07
-6.64944e-07
-6.84647e-07
-7.00981e-07
-7.14132e-07
-7.24374e-07
-7.32096e-07
-7.37754e-07
-7.41798e-07
-7.44614e-07
-7.46508e-07
-7.47704e-07
-7.48365e-07
-7.48607e-07
-7.48514e-07
-7.48145e-07
-7.47545e-07
-7.46748e-07
-7.45778e-07
-7.44657e-07
-7.434e-07
-7.42021e-07
-7.40531e-07
-7.3894e-07
-7.37257e-07
-7.35487e-07
-7.33639e-07
-7.31718e-07
-7.29729e-07
-7.27678e-07
-7.25568e-07
-7.23405e-07
-7.21192e-07
-7.18932e-07
-7.1663e-07
-7.14288e-07
-7.11909e-07
-7.09496e-07
-7.07053e-07
-7.0458e-07
-7.02081e-07
-6.99559e-07
)
;
    }
    inandouthalf31
    {
        type            cyclic;
        value           nonuniform List<scalar> 
110
(
6.97016e-07
7.08521e-07
7.20131e-07
7.31844e-07
7.43658e-07
7.55571e-07
7.6758e-07
7.79684e-07
7.91879e-07
8.04164e-07
8.16536e-07
8.28994e-07
8.41537e-07
8.54162e-07
8.66869e-07
8.79658e-07
8.92529e-07
9.05485e-07
9.18527e-07
9.3166e-07
9.44891e-07
9.58228e-07
9.71684e-07
9.85275e-07
9.99021e-07
1.01295e-06
1.02711e-06
1.04154e-06
1.05631e-06
1.07153e-06
1.08735e-06
1.104e-06
1.12198e-06
1.14303e-06
1.16606e-06
1.1897e-06
1.21383e-06
1.23845e-06
1.26357e-06
1.2892e-06
1.31535e-06
1.34204e-06
1.36927e-06
1.39705e-06
1.4254e-06
1.45432e-06
1.48384e-06
1.51395e-06
1.54468e-06
1.57603e-06
1.60801e-06
1.64065e-06
1.67395e-06
1.70792e-06
1.74259e-06
1.77796e-06
1.81404e-06
1.85086e-06
1.88843e-06
1.92676e-06
1.96587e-06
2.00577e-06
2.04648e-06
2.08802e-06
2.1304e-06
2.17364e-06
2.21776e-06
2.26278e-06
2.3087e-06
2.35556e-06
2.40338e-06
2.45216e-06
2.50193e-06
2.55271e-06
2.60453e-06
2.65739e-06
2.71133e-06
2.76636e-06
2.82251e-06
2.8798e-06
2.93825e-06
2.99789e-06
3.05874e-06
3.12083e-06
3.18417e-06
3.2488e-06
3.31474e-06
3.38202e-06
3.45067e-06
3.52071e-06
3.59217e-06
3.66508e-06
3.73947e-06
3.81537e-06
3.89281e-06
3.97183e-06
4.05245e-06
4.1347e-06
4.21862e-06
4.30425e-06
4.39162e-06
4.48075e-06
4.5717e-06
4.66449e-06
4.75917e-06
4.85577e-06
4.95433e-06
5.05489e-06
5.15749e-06
5.26217e-06
)
;
    }
    inandouthalf32
    {
        type            cyclic;
        value           nonuniform List<scalar> 
110
(
-6.97016e-07
-7.08521e-07
-7.20131e-07
-7.31844e-07
-7.43658e-07
-7.55571e-07
-7.6758e-07
-7.79684e-07
-7.91879e-07
-8.04164e-07
-8.16536e-07
-8.28994e-07
-8.41537e-07
-8.54162e-07
-8.66869e-07
-8.79658e-07
-8.92529e-07
-9.05485e-07
-9.18527e-07
-9.3166e-07
-9.44891e-07
-9.58228e-07
-9.71684e-07
-9.85275e-07
-9.99021e-07
-1.01295e-06
-1.02711e-06
-1.04154e-06
-1.05631e-06
-1.07153e-06
-1.08735e-06
-1.104e-06
-1.12198e-06
-1.14303e-06
-1.16606e-06
-1.1897e-06
-1.21383e-06
-1.23845e-06
-1.26357e-06
-1.2892e-06
-1.31535e-06
-1.34204e-06
-1.36927e-06
-1.39705e-06
-1.4254e-06
-1.45432e-06
-1.48384e-06
-1.51395e-06
-1.54468e-06
-1.57603e-06
-1.60801e-06
-1.64065e-06
-1.67395e-06
-1.70792e-06
-1.74259e-06
-1.77796e-06
-1.81404e-06
-1.85086e-06
-1.88843e-06
-1.92676e-06
-1.96587e-06
-2.00577e-06
-2.04648e-06
-2.08802e-06
-2.1304e-06
-2.17364e-06
-2.21776e-06
-2.26278e-06
-2.3087e-06
-2.35556e-06
-2.40338e-06
-2.45216e-06
-2.50193e-06
-2.55271e-06
-2.60453e-06
-2.65739e-06
-2.71133e-06
-2.76636e-06
-2.82251e-06
-2.8798e-06
-2.93825e-06
-2.99789e-06
-3.05874e-06
-3.12083e-06
-3.18417e-06
-3.2488e-06
-3.31474e-06
-3.38202e-06
-3.45067e-06
-3.52071e-06
-3.59217e-06
-3.66508e-06
-3.73947e-06
-3.81537e-06
-3.89281e-06
-3.97183e-06
-4.05245e-06
-4.1347e-06
-4.21862e-06
-4.30425e-06
-4.39162e-06
-4.48075e-06
-4.5717e-06
-4.66449e-06
-4.75917e-06
-4.85577e-06
-4.95433e-06
-5.05489e-06
-5.15749e-06
-5.26217e-06
)
;
    }
    inandouthalf41
    {
        type            cyclic;
        value           nonuniform List<scalar> 
50
(
4.71018e-06
4.71018e-06
4.71018e-06
4.71018e-06
4.71018e-06
4.71018e-06
4.71018e-06
4.71018e-06
4.71018e-06
4.71018e-06
4.71018e-06
4.71018e-06
4.71018e-06
4.71018e-06
4.71018e-06
4.71018e-06
4.71018e-06
4.71018e-06
4.71018e-06
4.71018e-06
4.71018e-06
4.71018e-06
4.71018e-06
4.71018e-06
4.71018e-06
4.71018e-06
4.71018e-06
4.71018e-06
4.71018e-06
4.71018e-06
4.71018e-06
4.71018e-06
4.71018e-06
4.71018e-06
4.71018e-06
4.71018e-06
4.71018e-06
4.71018e-06
4.71018e-06
4.71018e-06
4.71018e-06
4.71018e-06
4.71018e-06
4.71018e-06
4.71018e-06
4.71018e-06
4.71018e-06
4.71018e-06
4.71018e-06
4.71018e-06
)
;
    }
    inandouthalf42
    {
        type            cyclic;
        value           nonuniform List<scalar> 
50
(
-4.71018e-06
-4.71018e-06
-4.71018e-06
-4.71018e-06
-4.71018e-06
-4.71018e-06
-4.71018e-06
-4.71018e-06
-4.71018e-06
-4.71018e-06
-4.71018e-06
-4.71018e-06
-4.71018e-06
-4.71018e-06
-4.71018e-06
-4.71018e-06
-4.71018e-06
-4.71018e-06
-4.71018e-06
-4.71018e-06
-4.71018e-06
-4.71018e-06
-4.71018e-06
-4.71018e-06
-4.71018e-06
-4.71018e-06
-4.71018e-06
-4.71018e-06
-4.71018e-06
-4.71018e-06
-4.71018e-06
-4.71018e-06
-4.71018e-06
-4.71018e-06
-4.71018e-06
-4.71018e-06
-4.71018e-06
-4.71018e-06
-4.71018e-06
-4.71018e-06
-4.71018e-06
-4.71018e-06
-4.71018e-06
-4.71018e-06
-4.71018e-06
-4.71018e-06
-4.71018e-06
-4.71018e-06
-4.71018e-06
-4.71018e-06
)
;
    }
    top
    {
        type            symmetryPlane;
        value           uniform 0;
    }
    walls
    {
        type            fixedValue;
        value           uniform 0;
    }
    frontAndBackPlanes
    {
        type            empty;
        value           nonuniform 0();
    }
}


// ************************************************************************* //
