/*--------------------------------*- C++ -*----------------------------------*\
| =========                 |                                                 |
| \\      /  F ield         | OpenFOAM: The Open Source CFD Toolbox           |
|  \\    /   O peration     | Version:  2.4.x                                 |
|   \\  /    A nd           | Web:      www.OpenFOAM.org                      |
|    \\/     M anipulation  |                                                 |
\*---------------------------------------------------------------------------*/
FoamFile
{
    version     2.0;
    format      ascii;
    class       volTensorField;
    location    "3.8";
    object      Tauf;
}
// * * * * * * * * * * * * * * * * * * * * * * * * * * * * * * * * * * * * * //

dimensions      [0 2 -2 0 0 0 0];

internalField   nonuniform List<tensor> 
360
(
(0 -2.92123e-07 0 -2.92123e-07 1.39045e-09 0 0 0 0)
(0 3.51946e-10 0 3.51946e-10 2.00238e-09 0 0 0 0)
(0 -2.27321e-11 0 -2.27321e-11 2.21061e-09 0 0 0 0)
(0 -2.59354e-10 0 -2.59354e-10 2.05862e-09 0 0 0 0)
(5.16988e-23 -2.64404e-10 0 -2.64404e-10 1.98091e-09 0 0 0 0)
(5.16988e-23 -2.48497e-10 0 -2.48497e-10 1.99616e-09 0 0 0 0)
(2.58494e-23 -2.47374e-10 0 -2.47374e-10 2.04758e-09 0 0 0 0)
(0 -2.45161e-10 0 -2.45161e-10 2.09375e-09 0 0 0 0)
(2.58494e-23 -2.44149e-10 0 -2.44149e-10 2.12131e-09 0 0 0 0)
(0 -2.48236e-10 0 -2.48236e-10 2.13626e-09 0 0 0 0)
(2.58494e-23 -2.52839e-10 0 -2.52839e-10 2.14812e-09 0 0 0 0)
(0 -2.5613e-10 0 -2.5613e-10 2.16018e-09 0 0 0 0)
(2.58494e-23 -2.57378e-10 0 -2.57378e-10 2.16909e-09 0 0 0 0)
(0 -2.56307e-10 0 -2.56307e-10 2.16875e-09 0 0 0 0)
(0 -2.54303e-10 0 -2.54303e-10 2.15578e-09 0 0 0 0)
(0 -2.51636e-10 0 -2.51636e-10 2.13206e-09 0 0 0 0)
(0 -2.48535e-10 0 -2.48535e-10 2.1045e-09 0 0 0 0)
(2.58494e-23 -2.46052e-10 0 -2.46052e-10 2.08445e-09 0 0 0 0)
(0 -2.46741e-10 0 -2.46741e-10 2.08789e-09 0 0 0 0)
(0 -2.51497e-10 0 -2.51497e-10 2.13425e-09 0 0 0 0)
(0 -2.63857e-10 0 -2.63857e-10 2.24653e-09 0 0 0 0)
(2.58494e-23 -2.87492e-10 0 -2.87492e-10 2.45013e-09 0 0 0 0)
(0 -3.23167e-10 0 -3.23167e-10 2.76253e-09 0 0 0 0)
(0 -3.70518e-10 0 -3.70518e-10 3.16899e-09 0 0 0 0)
(0 -4.19583e-10 0 -4.19583e-10 3.57818e-09 0 0 0 0)
(2.58494e-23 -4.46468e-10 0 -4.46468e-10 3.79139e-09 0 0 0 0)
(0 -4.21537e-10 0 -4.21537e-10 3.57441e-09 0 0 0 0)
(0 -3.33311e-10 0 -3.33311e-10 2.85669e-09 0 0 0 0)
(0 -2.11938e-10 0 -2.11938e-10 1.86781e-09 0 0 0 0)
(0 -1.08398e-10 0 -1.08398e-10 9.82711e-10 0 0 0 0)
(0 -4.85535e-11 0 -4.85535e-11 4.20382e-10 0 0 0 0)
(0 -2.19594e-11 0 -2.19594e-11 1.53235e-10 0 0 0 0)
(0 -1.37312e-11 0 -1.37312e-11 5.2492e-11 0 0 0 0)
(0 -1.1834e-11 0 -1.1834e-11 1.93422e-11 0 0 0 0)
(0 -1.08115e-11 0 -1.08115e-11 8.58221e-12 0 0 0 0)
(-2.58494e-23 -1.16007e-11 0 -1.16007e-11 5.11932e-12 0 0 0 0)
(0 -1.26236e-11 0 -1.26236e-11 3.94143e-12 0 0 0 0)
(0 -1.49042e-11 0 -1.49042e-11 4.10731e-12 0 0 0 0)
(0 -1.49506e-11 0 -1.49506e-11 4.48112e-12 0 0 0 0)
(0 -1.62616e-11 0 -1.62616e-11 5.2977e-12 0 0 0 0)
(0 -1.86823e-11 0 -1.86823e-11 6.31512e-12 0 0 0 0)
(0 -1.87265e-11 0 -1.87265e-11 6.7392e-12 0 0 0 0)
(-5.16988e-23 -2.10379e-11 0 -2.10379e-11 7.25317e-12 0 0 0 0)
(0 -2.32284e-11 0 -2.32284e-11 7.38564e-12 0 0 0 0)
(0 -2.42205e-11 0 -2.42205e-11 7.12955e-12 0 0 0 0)
(0 -2.63226e-11 0 -2.63226e-11 7.0121e-12 0 0 0 0)
(0 -2.71699e-11 0 -2.71699e-11 6.57163e-12 0 0 0 0)
(0 -2.90901e-11 0 -2.90901e-11 6.12848e-12 0 0 0 0)
(0 -3.31753e-11 0 -3.31753e-11 5.99368e-12 0 0 0 0)
(0 -3.48985e-11 0 -3.48985e-11 5.61041e-12 0 0 0 0)
(-5.16988e-23 -3.66517e-11 0 -3.66517e-11 5.42147e-12 0 0 0 0)
(0 -3.9496e-11 0 -3.9496e-11 5.38284e-12 0 0 0 0)
(0 -4.21647e-11 0 -4.21647e-11 5.31702e-12 0 0 0 0)
(0 -4.46498e-11 0 -4.46498e-11 5.2293e-12 0 0 0 0)
(0 -4.80192e-11 0 -4.80192e-11 5.27697e-12 0 0 0 0)
(0 -5.1113e-11 0 -5.1113e-11 5.28862e-12 0 0 0 0)
(0 -5.39309e-11 0 -5.39309e-11 5.26411e-12 0 0 0 0)
(0 -5.74998e-11 0 -5.74998e-11 5.458e-12 0 0 0 0)
(0 -5.95233e-11 0 -5.95233e-11 5.35382e-12 0 0 0 0)
(0 -6.31352e-11 0 -6.31352e-11 5.5353e-12 0 0 0 0)
(0 -6.60042e-11 0 -6.60042e-11 5.58594e-12 0 0 0 0)
(0 -6.80504e-11 0 -6.80504e-11 5.59648e-12 0 0 0 0)
(0 -7.03372e-11 0 -7.03372e-11 5.72055e-12 0 0 0 0)
(0 -7.17871e-11 0 -7.17871e-11 5.69504e-12 0 0 0 0)
(0 -7.35407e-11 0 -7.35407e-11 5.68301e-12 0 0 0 0)
(0 -7.56725e-11 0 -7.56725e-11 5.59013e-12 0 0 0 0)
(0 -7.84059e-11 0 -7.84059e-11 5.51667e-12 0 0 0 0)
(0 -8.10149e-11 0 -8.10149e-11 5.42967e-12 0 0 0 0)
(0 -8.34986e-11 0 -8.34986e-11 5.30424e-12 0 0 0 0)
(0 -8.71369e-11 0 -8.71369e-11 5.28883e-12 0 0 0 0)
(0 -9.13462e-11 0 -9.13462e-11 5.46489e-12 0 0 0 0)
(0 -9.36874e-11 0 -9.36874e-11 5.51832e-12 0 0 0 0)
(0 -9.65574e-11 0 -9.65574e-11 5.7936e-12 0 0 0 0)
(0 -9.98356e-11 0 -9.98356e-11 6.14308e-12 0 0 0 0)
(0 -1.02472e-10 0 -1.02472e-10 6.46438e-12 0 0 0 0)
(0 -1.04706e-10 0 -1.04706e-10 6.83095e-12 0 0 0 0)
(0 -1.06543e-10 0 -1.06543e-10 7.09478e-12 0 0 0 0)
(0 -1.09131e-10 0 -1.09131e-10 7.36848e-12 0 0 0 0)
(0 -1.1186e-10 0 -1.1186e-10 7.54584e-12 0 0 0 0)
(0 -1.14473e-10 0 -1.14473e-10 7.64172e-12 0 0 0 0)
(0 -1.1741e-10 0 -1.1741e-10 7.71407e-12 0 0 0 0)
(0 -1.20795e-10 0 -1.20795e-10 7.80471e-12 0 0 0 0)
(0 -1.24062e-10 0 -1.24062e-10 7.87564e-12 0 0 0 0)
(0 -1.27321e-10 0 -1.27321e-10 7.9936e-12 0 0 0 0)
(0 -1.30513e-10 0 -1.30513e-10 8.14187e-12 0 0 0 0)
(0 -1.33632e-10 0 -1.33632e-10 8.31724e-12 0 0 0 0)
(0 -1.36625e-10 0 -1.36625e-10 8.50067e-12 0 0 0 0)
(0 -1.39484e-10 0 -1.39484e-10 8.65323e-12 0 0 0 0)
(0 -1.42493e-10 0 -1.42493e-10 8.78246e-12 0 0 0 0)
(0 -1.45618e-10 0 -1.45618e-10 8.85831e-12 0 0 0 0)
(0 -1.48826e-10 0 -1.48826e-10 8.87091e-12 0 0 0 0)
(0 -1.5225e-10 0 -1.5225e-10 8.83891e-12 0 0 0 0)
(0 -1.55862e-10 0 -1.55862e-10 8.76734e-12 0 0 0 0)
(0 -1.59557e-10 0 -1.59557e-10 8.65945e-12 0 0 0 0)
(0 -1.63344e-10 0 -1.63344e-10 8.53155e-12 0 0 0 0)
(0 -1.67208e-10 0 -1.67208e-10 8.38561e-12 0 0 0 0)
(0 -1.71131e-10 0 -1.71131e-10 8.21964e-12 0 0 0 0)
(0 -1.75128e-10 0 -1.75128e-10 8.03002e-12 0 0 0 0)
(0 -1.79232e-10 0 -1.79232e-10 7.81252e-12 0 0 0 0)
(0 -1.83461e-10 0 -1.83461e-10 7.5605e-12 0 0 0 0)
(0 -1.87828e-10 0 -1.87828e-10 7.26839e-12 0 0 0 0)
(0 -1.92356e-10 0 -1.92356e-10 6.93401e-12 0 0 0 0)
(0 -1.97051e-10 0 -1.97051e-10 6.55423e-12 0 0 0 0)
(0 -2.0191e-10 0 -2.0191e-10 6.12635e-12 0 0 0 0)
(0 -2.06945e-10 0 -2.06945e-10 5.64912e-12 0 0 0 0)
(0 -2.12167e-10 0 -2.12167e-10 5.12053e-12 0 0 0 0)
(0 -2.17588e-10 0 -2.17588e-10 4.53872e-12 0 0 0 0)
(0 -2.23225e-10 0 -2.23225e-10 3.90295e-12 0 0 0 0)
(0 -2.29096e-10 0 -2.29096e-10 3.21334e-12 0 0 0 0)
(0 -2.35215e-10 0 -2.35215e-10 2.47118e-12 0 0 0 0)
(0 -2.416e-10 0 -2.416e-10 1.67928e-12 0 0 0 0)
(0 -2.48267e-10 0 -2.48267e-10 8.41763e-13 0 0 0 0)
(0 -2.55233e-10 0 -2.55233e-10 -3.59651e-14 0 0 0 0)
(0 -2.62518e-10 0 -2.62518e-10 -9.47336e-13 0 0 0 0)
(0 -2.7014e-10 0 -2.7014e-10 -1.88496e-12 0 0 0 0)
(0 -2.78122e-10 0 -2.78122e-10 -2.84111e-12 0 0 0 0)
(0 -2.86488e-10 0 -2.86488e-10 -3.8084e-12 0 0 0 0)
(0 -2.95263e-10 0 -2.95263e-10 -4.78076e-12 0 0 0 0)
(0 -3.04477e-10 0 -3.04477e-10 -5.75468e-12 0 0 0 0)
(0 -3.14155e-10 0 -3.14155e-10 -6.73076e-12 0 0 0 0)
(0 -3.24323e-10 0 -3.24323e-10 -7.7156e-12 0 0 0 0)
(0 -3.34998e-10 0 -3.34998e-10 -8.72394e-12 0 0 0 0)
(0 -3.46198e-10 0 -3.46198e-10 -9.78127e-12 0 0 0 0)
(0 -3.57948e-10 0 -3.57948e-10 -1.0926e-11 0 0 0 0)
(0 -3.70321e-10 0 -3.70321e-10 -1.22103e-11 0 0 0 0)
(0 -3.83455e-10 0 -3.83455e-10 -1.36973e-11 0 0 0 0)
(0 -3.97561e-10 0 -3.97561e-10 -1.54526e-11 0 0 0 0)
(0 -4.12835e-10 0 -4.12835e-10 -1.75312e-11 0 0 0 0)
(0 -4.29296e-10 0 -4.29296e-10 -1.99674e-11 0 0 0 0)
(0 -4.46675e-10 0 -4.46675e-10 -2.27879e-11 0 0 0 0)
(0 -4.64731e-10 0 -4.64731e-10 -2.60557e-11 0 0 0 0)
(0 -4.84242e-10 0 -4.84242e-10 -2.98765e-11 0 0 0 0)
(0 -5.07654e-10 0 -5.07654e-10 -3.42476e-11 0 0 0 0)
(0 -5.36824e-10 0 -5.36824e-10 -3.8927e-11 0 0 0 0)
(0 -5.69011e-10 0 -5.69011e-10 -4.37542e-11 0 0 0 0)
(0 -5.9955e-10 0 -5.9955e-10 -4.90966e-11 0 0 0 0)
(0 -6.32618e-10 0 -6.32618e-10 -5.58231e-11 0 0 0 0)
(0 -6.85925e-10 0 -6.85925e-10 -6.4482e-11 0 0 0 0)
(0 -7.73777e-10 0 -7.73777e-10 -7.30181e-11 0 0 0 0)
(0 -8.6279e-10 0 -8.6279e-10 -7.83485e-11 0 0 0 0)
(0 -8.76583e-10 0 -8.76583e-10 -9.192e-11 0 0 0 0)
(0 -9.33865e-10 0 -9.33865e-10 -1.11249e-10 0 0 0 0)
(0 -1.1647e-09 0 -1.1647e-09 -1.29542e-10 0 0 0 0)
(0 -1.46694e-09 0 -1.46694e-09 -1.88136e-10 0 0 0 0)
(0 -2.16669e-09 0 -2.16669e-09 -6.68765e-12 0 0 0 0)
(0 -4.84597e-09 0 -4.84597e-09 -8.25332e-09 0 0 0 0)
(0 -4.11886e-08 0 -4.11886e-08 4.26644e-08 0 0 0 0)
(0 -2.1945e-05 0 -2.1945e-05 -1.94218e-07 0 0 0 0)
(0 -0.000282313 0 -0.000282313 -3.82978e-06 0 0 0 0)
(0 -0.00195121 0 -0.00195121 -8.40913e-06 0 0 0 0)
(0 -0.00310306 0 -0.00310306 1.08242e-05 0 0 0 0)
(0 -0.00321229 0 -0.00321229 4.85499e-06 0 0 0 0)
(0 -0.00312566 0 -0.00312566 8.11458e-06 0 0 0 0)
(0 -0.00294066 0 -0.00294066 8.60461e-06 0 0 0 0)
(0 -0.00271261 0 -0.00271261 8.36191e-06 0 0 0 0)
(0 -0.00246915 0 -0.00246915 7.6794e-06 0 0 0 0)
(0 -0.00222344 0 -0.00222344 6.70872e-06 0 0 0 0)
(0 -0.00198171 0 -0.00198171 5.60531e-06 0 0 0 0)
(0 -0.00174724 0 -0.00174724 4.51313e-06 0 0 0 0)
(0 -0.00152256 0 -0.00152256 3.53213e-06 0 0 0 0)
(0 -0.00131044 0 -0.00131044 2.69945e-06 0 0 0 0)
(0 -0.001114 0 -0.001114 1.99603e-06 0 0 0 0)
(0 -0.000936049 0 -0.000936049 1.39551e-06 0 0 0 0)
(0 -0.000778004 0 -0.000778004 9.09416e-07 0 0 0 0)
(0 -0.000639331 0 -0.000639331 5.64692e-07 0 0 0 0)
(0 -0.000517933 0 -0.000517933 3.52739e-07 0 0 0 0)
(0 -0.000411055 0 -0.000411055 2.30102e-07 0 0 0 0)
(0 -0.000316009 0 -0.000316009 1.55174e-07 0 0 0 0)
(0 -0.000230496 0 -0.000230496 1.05235e-07 0 0 0 0)
(0 -0.000152669 0 -0.000152669 7.02085e-08 0 0 0 0)
(0 -8.11027e-05 0 -8.11027e-05 4.46831e-08 0 0 0 0)
(0 -1.47183e-05 0 -1.47183e-05 2.57831e-08 0 0 0 0)
(0 4.72867e-05 0 4.72867e-05 1.18671e-08 0 0 0 0)
(0 0.000105506 0 0.000105506 1.59148e-09 0 0 0 0)
(0 0.000160377 0 0.000160377 -5.97255e-09 0 0 0 0)
(0 0.000212227 0 0.000212227 -1.14509e-08 0 0 0 0)
(0 0.000261303 0 0.000261303 -1.52524e-08 0 0 0 0)
(0 0.000307794 0 0.000307794 -1.77227e-08 0 0 0 0)
(0 0.000351847 0 0.000351847 -1.91731e-08 0 0 0 0)
(0 0.000393581 0 0.000393581 -1.97993e-08 0 0 0 0)
(0 0.000433092 0 0.000433092 -1.97231e-08 0 0 0 0)
(0 0.000470461 0 0.000470461 -1.90463e-08 0 0 0 0)
(0 0.000505758 0 0.000505758 -1.78554e-08 0 0 0 0)
(0 0.000539042 0 0.000539042 -1.62326e-08 0 0 0 0)
(0 0.000570367 0 0.000570367 -1.42671e-08 0 0 0 0)
(0 0.000599779 0 0.000599779 -1.20582e-08 0 0 0 0)
(0 0.000627319 0 0.000627319 -9.72168e-09 0 0 0 0)
(0 0.000653023 0 0.000653023 -7.4154e-09 0 0 0 0)
(0 0.000676922 0 0.000676922 -5.368e-09 0 0 0 0)
(0 0.000699044 0 0.000699044 -3.83044e-09 0 0 0 0)
(0 0.000719419 0 0.000719419 -2.91516e-09 0 0 0 0)
(0 0.000738075 0 0.000738075 -2.47123e-09 0 0 0 0)
(0 0.000755044 0 0.000755044 -2.19626e-09 0 0 0 0)
(0 0.000770355 0 0.000770355 -1.90163e-09 0 0 0 0)
(0 0.000784038 0 0.000784038 -1.60962e-09 0 0 0 0)
(0 0.00079612 0 0.00079612 -1.39618e-09 0 0 0 0)
(0 0.000806628 0 0.000806628 -1.24734e-09 0 0 0 0)
(0 0.00081559 0 0.00081559 -1.10523e-09 0 0 0 0)
(0 0.000823033 0 0.000823033 -9.62228e-10 0 0 0 0)
(0 0.000828984 0 0.000828984 -8.52187e-10 0 0 0 0)
(0 0.000833473 0 0.000833473 -7.84267e-10 0 0 0 0)
(0 0.000836559 0 0.000836559 -7.19037e-10 0 0 0 0)
(1.64543e-17 0.000838243 0 0.000838243 -6.21733e-10 0 0 0 0)
(0 0.000838463 0 0.000838463 -5.23122e-10 0 0 0 0)
(0 0.000837153 0 0.000837153 -4.74249e-10 0 0 0 0)
(-3.03316e-17 0.000834246 0 0.000834246 -4.51874e-10 0 0 0 0)
(0 0.000829671 0 0.000829671 -3.94579e-10 0 0 0 0)
(1.4269e-17 0.000823358 0 0.000823358 -3.17463e-10 0 0 0 0)
(0 0.000815236 0 0.000815236 -2.7805e-10 0 0 0 0)
(-1.33414e-17 0.000805233 0 0.000805233 -2.61526e-10 0 0 0 0)
(0 0.000793279 0 0.000793279 -2.24457e-10 0 0 0 0)
(0 0.000779304 0 0.000779304 -1.83657e-10 0 0 0 0)
(0 0.00076324 0 0.00076324 -1.61008e-10 0 0 0 0)
(-1.13918e-17 0.000745018 0 0.000745018 -1.39235e-10 0 0 0 0)
(0 0.000724578 0 0.000724578 -1.15522e-10 0 0 0 0)
(0 0.000701858 0 0.000701858 -1.02277e-10 0 0 0 0)
(0 0.000676807 0 0.000676807 -8.89973e-11 0 0 0 0)
(0 0.000649379 0 0.000649379 -6.89742e-11 0 0 0 0)
(0 0.000619538 0 0.000619538 -5.66059e-11 0 0 0 0)
(8.22475e-18 0.00058726 0 0.00058726 -5.20789e-11 0 0 0 0)
(0 0.00055254 0 0.00055254 -4.31197e-11 0 0 0 0)
(1.42076e-17 0.000515391 0 0.000515391 -3.27645e-11 0 0 0 0)
(0 0.000475854 0 0.000475854 -2.66482e-11 0 0 0 0)
(1.19015e-17 0.000434004 0 0.000434004 -2.17455e-11 0 0 0 0)
(0 0.000389965 0 0.000389965 -1.74173e-11 0 0 0 0)
(0 0.000343917 0 0.000343917 -1.39888e-11 0 0 0 0)
(0 0.000296128 0 0.000296128 -1.034e-11 0 0 0 0)
(0 0.000246978 0 0.000246978 -3.40025e-12 0 0 0 0)
(-5.87545e-18 0.000197019 0 0.000197019 -1.49047e-11 0 0 0 0)
(0 0.000147052 0 0.000147052 7.8067e-12 0 0 0 0)
(0 9.82222e-05 0 9.82222e-05 -1.39511e-11 0 0 0 0)
(0 5.24533e-05 0 5.24533e-05 7.72839e-12 0 0 0 0)
(0 1.27735e-05 0 1.27735e-05 -4.06592e-12 0 0 0 0)
(0 8.02836e-07 0 8.02836e-07 8.33458e-13 0 0 0 0)
(0 5.04327e-08 0 5.04327e-08 -5.67097e-13 0 0 0 0)
(0 1.25957e-08 0 1.25957e-08 4.46248e-13 0 0 0 0)
(0 1.01278e-08 0 1.01278e-08 -5.72709e-13 0 0 0 0)
(0 8.53194e-09 0 8.53194e-09 4.23996e-13 0 0 0 0)
(0 7.13449e-09 0 7.13449e-09 -4.86317e-13 0 0 0 0)
(0 5.93111e-09 0 5.93111e-09 4.02266e-13 0 0 0 0)
(0 4.96664e-09 0 4.96664e-09 -3.98669e-13 0 0 0 0)
(0 4.26566e-09 0 4.26566e-09 3.94287e-13 0 0 0 0)
(0 3.61224e-09 0 3.61224e-09 -3.91177e-13 0 0 0 0)
(8.92459e-20 2.91973e-09 0 2.91973e-09 3.87522e-13 0 0 0 0)
(-8.74705e-20 2.34835e-09 0 2.34835e-09 -3.84983e-13 0 0 0 0)
(0 1.90656e-09 0 1.90656e-09 3.81797e-13 0 0 0 0)
(0 1.55186e-09 0 1.55186e-09 -3.79598e-13 0 0 0 0)
(8.23534e-20 1.25881e-09 0 1.25881e-09 3.76668e-13 0 0 0 0)
(0 1.01619e-09 0 1.01619e-09 -3.74638e-13 0 0 0 0)
(0 8.16722e-10 0 8.16722e-10 3.71833e-13 0 0 0 0)
(7.75356e-20 6.5355e-10 0 6.5355e-10 -3.69824e-13 0 0 0 0)
(0 5.20389e-10 0 5.20389e-10 3.67019e-13 0 0 0 0)
(0 4.1232e-10 0 4.1232e-10 -3.64944e-13 0 0 0 0)
(0 3.25373e-10 0 3.25373e-10 3.62053e-13 0 0 0 0)
(0 2.55865e-10 0 2.55865e-10 -3.59842e-13 0 0 0 0)
(0 2.0047e-10 0 2.0047e-10 3.56812e-13 0 0 0 0)
(0 1.56448e-10 0 1.56448e-10 -3.54417e-13 0 0 0 0)
(0 1.21608e-10 0 1.21608e-10 3.51217e-13 0 0 0 0)
(0 9.41493e-11 0 9.41493e-11 -3.48607e-13 0 0 0 0)
(0 7.25803e-11 0 7.25803e-11 3.45219e-13 0 0 0 0)
(0 5.56918e-11 0 5.56918e-11 -3.42375e-13 0 0 0 0)
(0 4.25158e-11 0 4.25158e-11 3.388e-13 0 0 0 0)
(0 3.22835e-11 0 3.22835e-11 -3.3571e-13 0 0 0 0)
(0 2.43778e-11 0 2.43778e-11 3.31962e-13 0 0 0 0)
(0 1.83037e-11 0 1.83037e-11 -3.28618e-13 0 0 0 0)
(0 1.36635e-11 0 1.36635e-11 3.24721e-13 0 0 0 0)
(0 1.01392e-11 0 1.01392e-11 -3.21121e-13 0 0 0 0)
(0 7.47843e-12 0 7.47843e-12 3.17084e-13 0 0 0 0)
(0 5.48198e-12 0 5.48198e-12 -3.13264e-13 0 0 0 0)
(0 3.99324e-12 0 3.99324e-12 3.09057e-13 0 0 0 0)
(0 2.89001e-12 0 2.89001e-12 -3.0503e-13 0 0 0 0)
(0 2.07828e-12 0 2.07828e-12 3.0067e-13 0 0 0 0)
(0 1.48461e-12 0 1.48461e-12 -2.96454e-13 0 0 0 0)
(0 1.05301e-12 0 1.05301e-12 2.91956e-13 0 0 0 0)
(0 7.41419e-13 0 7.41419e-13 -2.87569e-13 0 0 0 0)
(0 5.18742e-13 0 5.18742e-13 2.82942e-13 0 0 0 0)
(0 3.60759e-13 0 3.60759e-13 -2.78403e-13 0 0 0 0)
(0 2.48768e-13 0 2.48768e-13 2.73658e-13 0 0 0 0)
(0 1.6977e-13 0 1.6977e-13 -2.68984e-13 0 0 0 0)
(0 1.14918e-13 0 1.14918e-13 2.64134e-13 0 0 0 0)
(0 7.75398e-14 0 7.75398e-14 -2.59344e-13 0 0 0 0)
(0 5.20691e-14 0 5.20691e-14 2.54397e-13 0 0 0 0)
(0 3.44174e-14 0 3.44174e-14 -2.49505e-13 0 0 0 0)
(0 2.27099e-14 0 2.27099e-14 2.44484e-13 0 0 0 0)
(0 1.49082e-14 0 1.49082e-14 -2.39501e-13 0 0 0 0)
(0 9.58836e-15 0 9.58836e-15 2.34415e-13 0 0 0 0)
(-7.5226e-20 6.13111e-15 0 6.13111e-15 -2.29349e-13 0 0 0 0)
(0 3.83814e-15 0 3.83814e-15 2.24218e-13 0 0 0 0)
(0 2.38218e-15 0 2.38218e-15 -2.1909e-13 0 0 0 0)
(0 1.40836e-15 0 1.40836e-15 2.13897e-13 0 0 0 0)
(0 8.16057e-16 0 8.16057e-16 -2.08714e-13 0 0 0 0)
(0 6.57663e-16 0 6.57663e-16 2.03486e-13 0 0 0 0)
(0 4.78609e-16 0 4.78609e-16 -1.98251e-13 0 0 0 0)
(0 1.98451e-16 0 1.98451e-16 1.92987e-13 0 0 0 0)
(0 -8.31116e-17 0 -8.31116e-17 -1.87709e-13 0 0 0 0)
(0 -1.691e-16 0 -1.691e-16 1.82412e-13 0 0 0 0)
(0 1.22725e-16 0 1.22725e-16 -1.77109e-13 0 0 0 0)
(0 2.07037e-16 0 2.07037e-16 1.71757e-13 0 0 0 0)
(0 6.62011e-17 0 6.62011e-17 -1.66414e-13 0 0 0 0)
(1.15864e-19 -1.02221e-16 0 -1.02221e-16 1.61035e-13 0 0 0 0)
(0 -1.98445e-17 0 -1.98445e-17 -1.55649e-13 0 0 0 0)
(0 1.93384e-17 0 1.93384e-17 1.50225e-13 0 0 0 0)
(0 -1.53812e-17 0 -1.53812e-17 -1.44784e-13 0 0 0 0)
(0 9.06649e-17 0 9.06649e-17 1.39306e-13 0 0 0 0)
(0 -1.06597e-16 0 -1.06597e-16 -1.338e-13 0 0 0 0)
(0 -2.18324e-16 0 -2.18324e-16 1.28247e-13 0 0 0 0)
(0 1.8265e-16 0 1.8265e-16 -1.22654e-13 0 0 0 0)
(0 2.71213e-16 0 2.71213e-16 1.17002e-13 0 0 0 0)
(0 -1.49952e-16 0 -1.49952e-16 -1.11285e-13 0 0 0 0)
(0 -2.33567e-16 0 -2.33567e-16 1.05586e-13 0 0 0 0)
(0 -3.81165e-18 0 -3.81165e-18 -1.1435e-13 0 0 0 0)
(0 -3.21078e-17 0 -3.21078e-17 1.11145e-13 0 0 0 0)
(0 -2.28964e-17 0 -2.28964e-17 -1.07982e-13 0 0 0 0)
(0 6.52215e-17 0 6.52215e-17 1.04773e-13 0 0 0 0)
(0 -1.53525e-18 0 -1.53525e-18 -1.01513e-13 0 0 0 0)
(0 -1.65171e-17 0 -1.65171e-17 9.82032e-14 0 0 0 0)
(0 2.39816e-17 0 2.39816e-17 -9.48341e-14 0 0 0 0)
(0 -5.39984e-18 0 -5.39984e-18 9.14101e-14 0 0 0 0)
(0 -2.12552e-17 0 -2.12552e-17 -8.79181e-14 0 0 0 0)
(0 -1.93494e-17 0 -1.93494e-17 8.43657e-14 0 0 0 0)
(0 2.54375e-17 0 2.54375e-17 -8.07341e-14 0 0 0 0)
(0 3.83812e-17 0 3.83812e-17 7.70303e-14 0 0 0 0)
(0 -1.95612e-17 0 -1.95612e-17 -7.32348e-14 0 0 0 0)
(0 -3.17637e-19 0 -3.17637e-19 6.93519e-14 0 0 0 0)
(0 2.64698e-20 0 2.64698e-20 -6.53565e-14 0 0 0 0)
(0 4.52633e-18 0 4.52633e-18 6.12507e-14 0 0 0 0)
(0 2.01964e-17 0 2.01964e-17 -5.7001e-14 0 0 0 0)
(0 -1.93759e-17 0 -1.93759e-17 5.26046e-14 0 0 0 0)
(0 -1.58819e-19 0 -1.58819e-19 -4.80181e-14 0 0 0 0)
(0 -5.55865e-18 0 -5.55865e-18 4.32075e-14 0 0 0 0)
(0 -1.89788e-17 0 -1.89788e-17 -3.81181e-14 0 0 0 0)
(0 2.46434e-17 0 2.46434e-17 3.26511e-14 0 0 0 0)
(0 1.94288e-17 0 1.94288e-17 -2.66432e-14 0 0 0 0)
(0 -2.37699e-17 0 -2.37699e-17 1.96658e-14 0 0 0 0)
(0 5.37337e-18 0 5.37337e-18 -6.94716e-15 0 0 0 0)
(0 1.68877e-17 0 1.68877e-17 -6.91532e-15 0 0 0 0)
(0 -1.96935e-17 0 -1.96935e-17 1.38138e-14 0 0 0 0)
(0 -2.43522e-17 0 -2.43522e-17 -1.70528e-14 0 0 0 0)
(0 -5.3416e-17 0 -5.3416e-17 1.92424e-14 0 0 0 0)
(0 -3.12873e-17 0 -3.12873e-17 -2.08472e-14 0 0 0 0)
(0 -6.48774e-17 0 -6.48774e-17 2.20421e-14 0 0 0 0)
(0 4.2881e-18 0 4.2881e-18 -2.29501e-14 0 0 0 0)
(0 6.15158e-17 0 6.15158e-17 2.36095e-14 0 0 0 0)
(0 1.67818e-17 0 1.67818e-17 -2.40737e-14 0 0 0 0)
(0 3.80106e-17 0 3.80106e-17 2.43571e-14 0 0 0 0)
(0 8.70856e-18 0 8.70856e-18 -2.4509e-14 0 0 0 0)
(0 1.0932e-17 0 1.0932e-17 2.45003e-14 0 0 0 0)
(0 1.26526e-17 0 1.26526e-17 -2.43623e-14 0 0 0 0)
(0 -1.0032e-17 0 -1.0032e-17 2.41096e-14 0 0 0 0)
(0 -5.75188e-17 0 -5.75188e-17 -2.37209e-14 0 0 0 0)
(0 6.35275e-19 0 6.35275e-19 2.32477e-14 0 0 0 0)
(0 1.20226e-16 0 1.20226e-16 -2.26161e-14 0 0 0 0)
(0 5.61953e-17 0 5.61953e-17 2.19383e-14 0 0 0 0)
(0 -6.51421e-17 0 -6.51421e-17 -2.10151e-14 0 0 0 0)
(0 -4.50251e-17 0 -4.50251e-17 2.01199e-14 0 0 0 0)
(0 2.06464e-17 0 2.06464e-17 -1.89777e-14 0 0 0 0)
(0 2.11229e-17 0 2.11229e-17 1.7854e-14 0 0 0 0)
(0 -1.86612e-17 0 -1.86612e-17 -1.64562e-14 0 0 0 0)
(0 -3.30872e-17 0 -3.30872e-17 1.39046e-14 0 0 0 0)
(0 -1.32084e-17 0 -1.32084e-17 -6.21256e-15 0 0 0 0)
)
;

boundaryField
{
    inandouthalf11
    {
        type            cyclic;
    }
    inandouthalf12
    {
        type            cyclic;
    }
    inandouthalf21
    {
        type            cyclic;
    }
    inandouthalf22
    {
        type            cyclic;
    }
    inandouthalf31
    {
        type            cyclic;
    }
    inandouthalf32
    {
        type            cyclic;
    }
    inandouthalf41
    {
        type            cyclic;
    }
    inandouthalf42
    {
        type            cyclic;
    }
    top
    {
        type            symmetryPlane;
    }
    walls
    {
        type            zeroGradient;
    }
    frontAndBackPlanes
    {
        type            empty;
    }
}


// ************************************************************************* //
