/*--------------------------------*- C++ -*----------------------------------*\
| =========                 |                                                 |
| \\      /  F ield         | OpenFOAM: The Open Source CFD Toolbox           |
|  \\    /   O peration     | Version:  2.4.x                                 |
|   \\  /    A nd           | Web:      www.OpenFOAM.org                      |
|    \\/     M anipulation  |                                                 |
\*---------------------------------------------------------------------------*/
FoamFile
{
    version     2.0;
    format      ascii;
    class       volTensorField;
    location    "3.8";
    object      Taus;
}
// * * * * * * * * * * * * * * * * * * * * * * * * * * * * * * * * * * * * * //

dimensions      [0 2 -2 0 0 0 0];

internalField   nonuniform List<tensor> 
360
(
(0 -0.0178854 0 -0.0178854 -0.17664 0 0 0 0)
(0 -0.0227915 0 -0.0227915 -0.200306 0 0 0 0)
(0 -0.0269379 0 -0.0269379 -0.208224 0 0 0 0)
(0 -0.0276343 0 -0.0276343 -0.206365 0 0 0 0)
(1.6562e-17 -0.0270392 0 -0.0270392 -0.203793 0 0 0 0)
(1.60633e-17 -0.0265911 0 -0.0265911 -0.201915 0 0 0 0)
(3.09078e-17 -0.0262736 0 -0.0262736 -0.200168 0 0 0 0)
(0 -0.0260236 0 -0.0260236 -0.198517 0 0 0 0)
(2.9354e-17 -0.0258395 0 -0.0258395 -0.197037 0 0 0 0)
(0 -0.0256592 0 -0.0256592 -0.195543 0 0 0 0)
(2.85752e-17 -0.0254453 0 -0.0254453 -0.193967 0 0 0 0)
(0 -0.0252071 0 -0.0252071 -0.192355 0 0 0 0)
(2.77726e-17 -0.0249594 0 -0.0249594 -0.190718 0 0 0 0)
(0 -0.0247229 0 -0.0247229 -0.189113 0 0 0 0)
(0 -0.024503 0 -0.024503 -0.187541 0 0 0 0)
(0 -0.0242963 0 -0.0242963 -0.185991 0 0 0 0)
(0 -0.0241015 0 -0.0241015 -0.184461 0 0 0 0)
(5.55873e-17 -0.0239195 0 -0.0239195 -0.182953 0 0 0 0)
(0 -0.0237449 0 -0.0237449 -0.181462 0 0 0 0)
(0 -0.0235651 0 -0.0235651 -0.179946 0 0 0 0)
(0 -0.0233736 0 -0.0233736 -0.178432 0 0 0 0)
(4.60733e-17 -0.0231347 0 -0.0231347 -0.176822 0 0 0 0)
(0 -0.0228216 0 -0.0228216 -0.175091 0 0 0 0)
(0 -0.0224081 0 -0.0224081 -0.173184 0 0 0 0)
(0 -0.0218863 0 -0.0218863 -0.171063 0 0 0 0)
(2.72059e-17 -0.0212954 0 -0.0212954 -0.168773 0 0 0 0)
(0 -0.0207262 0 -0.0207262 -0.166496 0 0 0 0)
(0 -0.0202888 0 -0.0202888 -0.164501 0 0 0 0)
(0 -0.0200765 0 -0.0200765 -0.163076 0 0 0 0)
(0 -0.0201132 0 -0.0201132 -0.162225 0 0 0 0)
(0 -0.0203588 0 -0.0203588 -0.16173 0 0 0 0)
(0 -0.0207483 0 -0.0207483 -0.161304 0 0 0 0)
(0 -0.0212698 0 -0.0212698 -0.160876 0 0 0 0)
(0 -0.0219311 0 -0.0219311 -0.160261 0 0 0 0)
(0 -0.0228039 0 -0.0228039 -0.159569 0 0 0 0)
(-1.68764e-14 -0.0238646 0 -0.0238646 -0.158746 0 0 0 0)
(0 -0.0250028 0 -0.0250028 -0.1579 0 0 0 0)
(0 -0.0260868 0 -0.0260868 -0.157058 0 0 0 0)
(0 -0.0270681 0 -0.0270681 -0.156242 0 0 0 0)
(0 -0.0279692 0 -0.0279692 -0.15552 0 0 0 0)
(0 -0.0287842 0 -0.0287842 -0.154754 0 0 0 0)
(0 -0.0295574 0 -0.0295574 -0.154005 0 0 0 0)
(-2.00431e-14 -0.0303053 0 -0.0303053 -0.153257 0 0 0 0)
(0 -0.0310133 0 -0.0310133 -0.15243 0 0 0 0)
(0 -0.0317074 0 -0.0317074 -0.151599 0 0 0 0)
(0 -0.0323811 0 -0.0323811 -0.150722 0 0 0 0)
(0 -0.0330349 0 -0.0330349 -0.149804 0 0 0 0)
(0 -0.0336777 0 -0.0336777 -0.148885 0 0 0 0)
(0 -0.0342759 0 -0.0342759 -0.147906 0 0 0 0)
(0 -0.0348292 0 -0.0348292 -0.146873 0 0 0 0)
(-1.90871e-14 -0.0353663 0 -0.0353663 -0.145855 0 0 0 0)
(0 -0.0358644 0 -0.0358644 -0.144784 0 0 0 0)
(0 -0.0363292 0 -0.0363292 -0.143701 0 0 0 0)
(0 -0.0367555 0 -0.0367555 -0.142576 0 0 0 0)
(0 -0.0371506 0 -0.0371506 -0.141448 0 0 0 0)
(0 -0.0374952 0 -0.0374952 -0.140257 0 0 0 0)
(0 -0.0378127 0 -0.0378127 -0.139074 0 0 0 0)
(0 -0.0380841 0 -0.0380841 -0.137839 0 0 0 0)
(0 -0.0383255 0 -0.0383255 -0.136589 0 0 0 0)
(0 -0.038539 0 -0.038539 -0.135332 0 0 0 0)
(0 -0.0387056 0 -0.0387056 -0.13402 0 0 0 0)
(0 -0.0388554 0 -0.0388554 -0.132723 0 0 0 0)
(0 -0.0389769 0 -0.0389769 -0.131387 0 0 0 0)
(0 -0.0390858 0 -0.0390858 -0.130055 0 0 0 0)
(0 -0.0391797 0 -0.0391797 -0.128705 0 0 0 0)
(0 -0.0392585 0 -0.0392585 -0.127352 0 0 0 0)
(0 -0.0393116 0 -0.0393116 -0.12598 0 0 0 0)
(0 -0.0393387 0 -0.0393387 -0.124595 0 0 0 0)
(0 -0.0393423 0 -0.0393423 -0.123196 0 0 0 0)
(0 -0.0393199 0 -0.0393199 -0.121793 0 0 0 0)
(0 -0.0392537 0 -0.0392537 -0.120361 0 0 0 0)
(0 -0.039158 0 -0.039158 -0.118913 0 0 0 0)
(0 -0.0390507 0 -0.0390507 -0.117472 0 0 0 0)
(0 -0.0389141 0 -0.0389141 -0.116002 0 0 0 0)
(0 -0.0387613 0 -0.0387613 -0.114533 0 0 0 0)
(0 -0.0385926 0 -0.0385926 -0.113046 0 0 0 0)
(0 -0.0384209 0 -0.0384209 -0.111563 0 0 0 0)
(0 -0.0382393 0 -0.0382393 -0.11007 0 0 0 0)
(0 -0.0380436 0 -0.0380436 -0.10857 0 0 0 0)
(0 -0.0378338 0 -0.0378338 -0.107062 0 0 0 0)
(0 -0.0376113 0 -0.0376113 -0.105551 0 0 0 0)
(0 -0.0373695 0 -0.0373695 -0.104031 0 0 0 0)
(0 -0.0371088 0 -0.0371088 -0.102505 0 0 0 0)
(0 -0.0368317 0 -0.0368317 -0.100973 0 0 0 0)
(0 -0.0365392 0 -0.0365392 -0.0994359 0 0 0 0)
(0 -0.0362344 0 -0.0362344 -0.0978948 0 0 0 0)
(0 -0.0359188 0 -0.0359188 -0.0963483 0 0 0 0)
(0 -0.0355958 0 -0.0355958 -0.0947994 0 0 0 0)
(0 -0.035266 0 -0.035266 -0.0932472 0 0 0 0)
(0 -0.0349284 0 -0.0349284 -0.0916914 0 0 0 0)
(0 -0.0345832 0 -0.0345832 -0.0901328 0 0 0 0)
(0 -0.0342297 0 -0.0342297 -0.0885716 0 0 0 0)
(0 -0.0338664 0 -0.0338664 -0.087007 0 0 0 0)
(0 -0.0334935 0 -0.0334935 -0.08544 0 0 0 0)
(0 -0.0331113 0 -0.0331113 -0.0838705 0 0 0 0)
(0 -0.0327203 0 -0.0327203 -0.0822988 0 0 0 0)
(0 -0.0323213 0 -0.0323213 -0.080725 0 0 0 0)
(0 -0.0319152 0 -0.0319152 -0.0791494 0 0 0 0)
(0 -0.0315025 0 -0.0315025 -0.077572 0 0 0 0)
(0 -0.0310835 0 -0.0310835 -0.075993 0 0 0 0)
(0 -0.0306586 0 -0.0306586 -0.0744123 0 0 0 0)
(0 -0.030228 0 -0.030228 -0.0728302 0 0 0 0)
(0 -0.0297917 0 -0.0297917 -0.0712466 0 0 0 0)
(0 -0.02935 0 -0.02935 -0.0696617 0 0 0 0)
(0 -0.028903 0 -0.028903 -0.0680756 0 0 0 0)
(0 -0.0284512 0 -0.0284512 -0.0664883 0 0 0 0)
(0 -0.0279947 0 -0.0279947 -0.0648998 0 0 0 0)
(0 -0.0275338 0 -0.0275338 -0.0633102 0 0 0 0)
(0 -0.0270687 0 -0.0270687 -0.0617196 0 0 0 0)
(0 -0.0265997 0 -0.0265997 -0.0601279 0 0 0 0)
(0 -0.026127 0 -0.026127 -0.0585351 0 0 0 0)
(0 -0.0256509 0 -0.0256509 -0.0569411 0 0 0 0)
(0 -0.0251719 0 -0.0251719 -0.055346 0 0 0 0)
(0 -0.0246902 0 -0.0246902 -0.0537497 0 0 0 0)
(0 -0.0242064 0 -0.0242064 -0.0521519 0 0 0 0)
(0 -0.0237208 0 -0.0237208 -0.0505526 0 0 0 0)
(0 -0.0232341 0 -0.0232341 -0.0489516 0 0 0 0)
(0 -0.0227467 0 -0.0227467 -0.0473486 0 0 0 0)
(0 -0.0222593 0 -0.0222593 -0.0457435 0 0 0 0)
(0 -0.0217725 0 -0.0217725 -0.0441359 0 0 0 0)
(0 -0.0212868 0 -0.0212868 -0.0425255 0 0 0 0)
(0 -0.0208029 0 -0.0208029 -0.0409119 0 0 0 0)
(0 -0.0203217 0 -0.0203217 -0.0392949 0 0 0 0)
(0 -0.0198437 0 -0.0198437 -0.0376738 0 0 0 0)
(0 -0.0193697 0 -0.0193697 -0.0360482 0 0 0 0)
(0 -0.0188999 0 -0.0188999 -0.0344175 0 0 0 0)
(0 -0.018434 0 -0.018434 -0.0327812 0 0 0 0)
(0 -0.0179709 0 -0.0179709 -0.0311389 0 0 0 0)
(0 -0.0175094 0 -0.0175094 -0.0294899 0 0 0 0)
(0 -0.0170494 0 -0.0170494 -0.0278329 0 0 0 0)
(0 -0.0165927 0 -0.0165927 -0.0261658 0 0 0 0)
(0 -0.0161408 0 -0.0161408 -0.0244864 0 0 0 0)
(0 -0.0156899 0 -0.0156899 -0.0227948 0 0 0 0)
(0 -0.0152277 0 -0.0152277 -0.0210936 0 0 0 0)
(0 -0.014745 0 -0.014745 -0.0193845 0 0 0 0)
(0 -0.01425 0 -0.01425 -0.0176626 0 0 0 0)
(0 -0.0137561 0 -0.0137561 -0.0159222 0 0 0 0)
(0 -0.0132441 0 -0.0132441 -0.0141791 0 0 0 0)
(0 -0.0126504 0 -0.0126504 -0.0124865 0 0 0 0)
(0 -0.0119368 0 -0.0119368 -0.0108655 0 0 0 0)
(0 -0.0112127 0 -0.0112127 -0.00920814 0 0 0 0)
(0 -0.0106319 0 -0.0106319 -0.00745143 0 0 0 0)
(0 -0.00994446 0 -0.00994446 -0.00555391 0 0 0 0)
(0 -0.0090362 0 -0.0090362 -0.00351295 0 0 0 0)
(0 -0.00797526 0 -0.00797526 -0.00088848 0 0 0 0)
(0 -0.00625136 0 -0.00625136 -0.000243429 0 0 0 0)
(0 -0.00326367 0 -0.00326367 -0.00146176 0 0 0 0)
(0 -0.00254753 0 -0.00254753 2.26726e-05 0 0 0 0)
(0 -0.00208858 0 -0.00208858 5.50091e-05 0 0 0 0)
(0 -0.00282681 0 -0.00282681 6.62944e-05 0 0 0 0)
(0 -0.00295869 0 -0.00295869 4.414e-05 0 0 0 0)
(0 -0.00266569 0 -0.00266569 3.09414e-05 0 0 0 0)
(0 -0.00254788 0 -0.00254788 3.33101e-05 0 0 0 0)
(0 -0.00259607 0 -0.00259607 4.07358e-05 0 0 0 0)
(0 -0.00278866 0 -0.00278866 5.22217e-05 0 0 0 0)
(0 -0.00311431 0 -0.00311431 6.78439e-05 0 0 0 0)
(0 -0.00356617 0 -0.00356617 8.69624e-05 0 0 0 0)
(0 -0.00413963 0 -0.00413963 0.000106134 0 0 0 0)
(0 -0.00482859 0 -0.00482859 0.000113085 0 0 0 0)
(0 -0.00562898 0 -0.00562898 6.94201e-05 0 0 0 0)
(0 -0.00655443 0 -0.00655443 -0.000117937 0 0 0 0)
(0 -0.00764582 0 -0.00764582 -0.000597708 0 0 0 0)
(0 -0.00890056 0 -0.00890056 -0.00147626 0 0 0 0)
(0 -0.0101289 0 -0.0101289 -0.0026442 0 0 0 0)
(0 -0.0110209 0 -0.0110209 -0.00378034 0 0 0 0)
(0 -0.0114111 0 -0.0114111 -0.00463543 0 0 0 0)
(0 -0.0113153 0 -0.0113153 -0.00516751 0 0 0 0)
(0 -0.0108135 0 -0.0108135 -0.00543029 0 0 0 0)
(0 -0.00998773 0 -0.00998773 -0.00548281 0 0 0 0)
(0 -0.00890663 0 -0.00890663 -0.00536919 0 0 0 0)
(0 -0.00762338 0 -0.00762338 -0.00511879 0 0 0 0)
(0 -0.00617826 0 -0.00617826 -0.00474974 0 0 0 0)
(0 -0.004602 0 -0.004602 -0.00427257 0 0 0 0)
(0 -0.0029184 0 -0.0029184 -0.0036934 0 0 0 0)
(0 -0.00114672 0 -0.00114672 -0.00301847 0 0 0 0)
(0 0.000674123 0 0.000674123 -0.00223069 0 0 0 0)
(0 0.00256825 0 0.00256825 -0.00137226 0 0 0 0)
(0 0.0045427 0 0.0045427 -0.000466153 0 0 0 0)
(0 0.00655171 0 0.00655171 0.000509181 0 0 0 0)
(0 0.0086184 0 0.0086184 0.00149875 0 0 0 0)
(0 0.0107615 0 0.0107615 0.00245525 0 0 0 0)
(0 0.0130195 0 0.0130195 0.00330905 0 0 0 0)
(0 0.0154608 0 0.0154608 0.00396449 0 0 0 0)
(0 0.0181966 0 0.0181966 0.00429563 0 0 0 0)
(0 0.0213916 0 0.0213916 0.00414864 0 0 0 0)
(0 0.0252561 0 0.0252561 0.00336476 0 0 0 0)
(0 0.0299719 0 0.0299719 0.00185029 0 0 0 0)
(0 0.0354967 0 0.0354967 -0.000286834 0 0 0 0)
(0 0.0413306 0 0.0413306 -0.00261718 0 0 0 0)
(0 0.046683 0 0.046683 -0.0045608 0 0 0 0)
(0 0.051236 0 0.051236 -0.00590603 0 0 0 0)
(0 0.0554984 0 0.0554984 -0.00699911 0 0 0 0)
(0 0.0600141 0 0.0600141 -0.00822072 0 0 0 0)
(0 0.064558 0 0.064558 -0.00949817 0 0 0 0)
(0 0.068551 0 0.068551 -0.0105239 0 0 0 0)
(0 0.0720065 0 0.0720065 -0.0112709 0 0 0 0)
(0 0.0753151 0 0.0753151 -0.0119266 0 0 0 0)
(0 0.0784033 0 0.0784033 -0.0124747 0 0 0 0)
(0 0.0808722 0 0.0808722 -0.0127221 0 0 0 0)
(0 0.08262 0 0.08262 -0.0126259 0 0 0 0)
(0 0.0839932 0 0.0839932 -0.0124134 0 0 0 0)
(0 0.0855628 0 0.0855628 -0.0123788 0 0 0 0)
(1.61394e-14 0.0871458 0 0.0871458 -0.0124429 0 0 0 0)
(0 0.08784 0 0.08784 -0.0122008 0 0 0 0)
(0 0.0879534 0 0.0879534 -0.0117537 0 0 0 0)
(-8.23647e-15 0.0890254 0 0.0890254 -0.0117987 0 0 0 0)
(0 0.0908948 0 0.0908948 -0.0123247 0 0 0 0)
(8.27691e-15 0.0915007 0 0.0915007 -0.0123675 0 0 0 0)
(0 0.0911273 0 0.0911273 -0.0119804 0 0 0 0)
(-8.1737e-15 0.0921843 0 0.0921843 -0.0123098 0 0 0 0)
(0 0.0937355 0 0.0937355 -0.0130207 0 0 0 0)
(0 0.0938835 0 0.0938835 -0.013127 0 0 0 0)
(0 0.0942455 0 0.0942455 -0.013355 0 0 0 0)
(-1.55909e-14 0.0954367 0 0.0954367 -0.0141187 0 0 0 0)
(0 0.0955938 0 0.0955938 -0.0144553 0 0 0 0)
(0 0.0957306 0 0.0957306 -0.0147955 0 0 0 0)
(0 0.0974512 0 0.0974512 -0.0160958 0 0 0 0)
(0 0.0982501 0 0.0982501 -0.0170817 0 0 0 0)
(0 0.0973564 0 0.0973564 -0.0171797 0 0 0 0)
(0 0.0982182 0 0.0982182 -0.0182885 0 0 0 0)
(0 0.100077 0 0.100077 -0.0201576 0 0 0 0)
(1.28201e-14 0.100146 0 0.100146 -0.0211496 0 0 0 0)
(0 0.100388 0 0.100388 -0.0223175 0 0 0 0)
(1.19885e-14 0.100971 0 0.100971 -0.0238841 0 0 0 0)
(0 0.100838 0 0.100838 -0.0251283 0 0 0 0)
(0 0.101588 0 0.101588 -0.0270023 0 0 0 0)
(0 0.101431 0 0.101431 -0.0286257 0 0 0 0)
(0 0.0997943 0 0.0997943 -0.0294381 0 0 0 0)
(-9.70755e-15 0.0998422 0 0.0998422 -0.0312581 0 0 0 0)
(0 0.0993011 0 0.0993011 -0.0329573 0 0 0 0)
(0 0.0967905 0 0.0967905 -0.0335798 0 0 0 0)
(0 0.092486 0 0.092486 -0.0335328 0 0 0 0)
(0 0.0819141 0 0.0819141 -0.0306434 0 0 0 0)
(0 0.0655802 0 0.0655802 -0.024983 0 0 0 0)
(0 0.0483656 0 0.0483656 -0.0188537 0 0 0 0)
(0 0.033241 0 0.033241 -0.0130693 0 0 0 0)
(0 0.0272059 0 0.0272059 -0.0122752 0 0 0 0)
(0 0 0 0 -0 0 0 0 0)
(0 0 0 0 -0 0 0 0 0)
(0 0 0 0 0 0 0 0 0)
(0 0 0 0 -0 0 0 0 0)
(0 0 0 0 -0 0 0 0 0)
(0 0 0 0 -0 0 0 0 0)
(0 0 0 0 -0 0 0 0 0)
(-0 0 0 0 -0 0 0 0 0)
(0 0 0 0 -0 0 0 0 0)
(0 0 0 0 -0 0 0 0 0)
(0 0 0 0 -0 0 0 0 0)
(0 0 0 0 -0 0 0 0 0)
(0 0 0 0 -0 0 0 0 0)
(0 0 0 0 -0 0 0 0 0)
(0 0 0 0 -0 0 0 0 0)
(0 0 0 0 -0 0 0 0 0)
(0 0 0 0 -0 0 0 0 0)
(0 0 0 0 -0 0 0 0 0)
(0 0 0 0 -0 0 0 0 0)
(0 0 0 0 -0 0 0 0 0)
(0 0 0 0 -0 0 0 0 0)
(0 0 0 0 -0 0 0 0 0)
(0 0 0 0 -0 0 0 0 0)
(0 0 0 0 -0 0 0 0 0)
(0 0 0 0 0 0 0 0 0)
(0 0 0 0 -0 0 0 0 0)
(0 0 0 0 0 0 0 0 0)
(0 0 0 0 -0 0 0 0 0)
(0 0 0 0 0 0 0 0 0)
(0 0 0 0 -0 0 0 0 0)
(0 0 0 0 -0 0 0 0 0)
(0 0 0 0 0 0 0 0 0)
(0 0 0 0 -0 0 0 0 0)
(0 0 0 0 -0 0 0 0 0)
(0 0 0 0 0 0 0 0 0)
(0 0 0 0 -0 0 0 0 0)
(0 0 0 0 0 0 0 0 0)
(0 0 0 0 -0 0 0 0 0)
(0 0 0 0 0 0 0 0 0)
(0 0 0 0 -0 0 0 0 0)
(0 0 0 0 0 0 0 0 0)
(0 0 0 0 -0 0 0 0 0)
(0 0 0 0 0 0 0 0 0)
(0 0 0 0 -0 0 0 0 0)
(0 0 0 0 0 0 0 0 0)
(0 0 0 0 -0 0 0 0 0)
(0 0 0 0 0 0 0 0 0)
(0 0 0 0 -0 0 0 0 0)
(0 0 0 0 0 0 0 0 0)
(-0 0 0 0 -0 0 0 0 0)
(0 0 0 0 0 0 0 0 0)
(0 0 0 0 -0 0 0 0 0)
(0 -0 0 -0 0 0 0 0 0)
(0 0 0 0 -0 0 0 0 0)
(0 -0 0 -0 0 0 0 0 0)
(0 0 0 0 -0 0 0 0 0)
(0 -0 0 -0 0 0 0 0 0)
(0 0 0 0 -0 0 0 0 0)
(0 -0 0 -0 0 0 0 0 0)
(-0 0 0 0 -0 0 0 0 0)
(0 -0 0 -0 0 0 0 0 0)
(0 0 0 0 -0 0 0 0 0)
(0 -0 0 -0 0 0 0 0 0)
(0 0 0 0 -0 0 0 0 0)
(0 -0 0 -0 0 0 0 0 0)
(0 0 0 0 -0 0 0 0 0)
(0 -0 0 -0 0 0 0 0 0)
(0 0 0 0 -0 0 0 0 0)
(0 -0 0 -0 0 0 0 0 0)
(0 0 0 0 -0 0 0 0 0)
(0 -0 0 -0 0 0 0 0 0)
(0 0 0 0 -0 0 0 0 0)
(0 -0 0 -0 0 0 0 0 0)
(0 -0 0 -0 0 0 0 0 0)
(0 -0 0 -0 0 0 0 0 0)
(0 0 0 0 -0 0 0 0 0)
(0 -0 0 -0 0 0 0 0 0)
(0 0 0 0 -0 0 0 0 0)
(0 -0 0 -0 0 0 0 0 0)
(0 0 0 0 -0 0 0 0 0)
(0 -0 0 -0 0 0 0 0 0)
(0 0 0 0 -0 0 0 0 0)
(0 -0 0 -0 0 0 0 0 0)
(0 0 0 0 -0 0 0 0 0)
(0 -0 0 -0 0 0 0 0 0)
(0 0 0 0 -0 0 0 0 0)
(0 -0 0 -0 0 0 0 0 0)
(0 0 0 0 -0 0 0 0 0)
(0 -0 0 -0 0 0 0 0 0)
(0 0 0 0 -0 0 0 0 0)
(0 -0 0 -0 0 0 0 0 0)
(0 0 0 0 -0 0 0 0 0)
(0 -0 0 -0 0 0 0 0 0)
(0 0 0 0 -0 0 0 0 0)
(0 -0 0 -0 0 0 0 0 0)
(0 0 0 0 -0 0 0 0 0)
(0 -0 0 -0 0 0 0 0 0)
(0 0 0 0 -0 0 0 0 0)
(0 0 0 0 -0 0 0 0 0)
(0 -0 0 -0 0 0 0 0 0)
(0 0 0 0 -0 0 0 0 0)
(0 -0 0 -0 0 0 0 0 0)
(0 0 0 0 -0 0 0 0 0)
(0 -0 0 -0 0 0 0 0 0)
(0 0 0 0 -0 0 0 0 0)
(0 -0 0 -0 0 0 0 0 0)
(0 0 0 0 -0 0 0 0 0)
(0 -0 0 -0 0 0 0 0 0)
(0 0 0 0 -0 0 0 0 0)
(0 -0 0 -0 0 0 0 0 0)
(0 0 0 0 -0 0 0 0 0)
(0 -0 0 -0 0 0 0 0 0)
(0 0 0 0 -0 0 0 0 0)
(0 -0 0 -0 0 0 0 0 0)
(0 0 0 0 -0 0 0 0 0)
(0 0 0 0 0 0 0 0 0)
(0 0 0 0 0 0 0 0 0)
(0 0 0 0 0 0 0 0 0)
(0 0 0 0 0 0 0 0 0)
(0 0 0 0 0 0 0 0 0)
(0 0 0 0 0 0 0 0 0)
(0 0 0 0 0 0 0 0 0)
(0 0 0 0 0 0 0 0 0)
)
;

boundaryField
{
    inandouthalf11
    {
        type            cyclic;
    }
    inandouthalf12
    {
        type            cyclic;
    }
    inandouthalf21
    {
        type            cyclic;
    }
    inandouthalf22
    {
        type            cyclic;
    }
    inandouthalf31
    {
        type            cyclic;
    }
    inandouthalf32
    {
        type            cyclic;
    }
    inandouthalf41
    {
        type            cyclic;
    }
    inandouthalf42
    {
        type            cyclic;
    }
    top
    {
        type            symmetryPlane;
    }
    walls
    {
        type            zeroGradient;
    }
    frontAndBackPlanes
    {
        type            empty;
    }
}


// ************************************************************************* //
