/*--------------------------------*- C++ -*----------------------------------*\
| =========                 |                                                 |
| \\      /  F ield         | OpenFOAM: The Open Source CFD Toolbox           |
|  \\    /   O peration     | Version:  2.4.x                                 |
|   \\  /    A nd           | Web:      www.OpenFOAM.org                      |
|    \\/     M anipulation  |                                                 |
\*---------------------------------------------------------------------------*/
FoamFile
{
    version     2.0;
    format      ascii;
    class       volScalarField;
    location    "3.8";
    object      tmf;
}
// * * * * * * * * * * * * * * * * * * * * * * * * * * * * * * * * * * * * * //

dimensions      [0 0 0 0 0 0 0];

internalField   nonuniform List<scalar> 
360
(
0.999205
0.999206
0.999207
0.999207
0.999206
0.999206
0.999206
0.999206
0.999206
0.999206
0.999206
0.999206
0.999206
0.999206
0.999205
0.999205
0.999205
0.999205
0.999205
0.999205
0.999205
0.999205
0.999205
0.999204
0.999204
0.999204
0.999204
0.999204
0.999204
0.999204
0.999204
0.999204
0.999204
0.999204
0.999204
0.999204
0.999204
0.999203
0.999203
0.999203
0.999203
0.999203
0.999203
0.999203
0.999203
0.999203
0.999203
0.999203
0.999203
0.999203
0.999203
0.999203
0.999203
0.999203
0.999203
0.999203
0.999203
0.999203
0.999203
0.999203
0.999202
0.999202
0.999202
0.999202
0.999202
0.999202
0.999202
0.999202
0.999202
0.999202
0.999201
0.999201
0.999201
0.999201
0.999201
0.999201
0.999201
0.999201
0.9992
0.9992
0.9992
0.9992
0.9992
0.9992
0.999199
0.999199
0.999199
0.999199
0.999199
0.999199
0.999198
0.999198
0.999198
0.999198
0.999198
0.999197
0.999197
0.999197
0.999197
0.999196
0.999196
0.999196
0.999196
0.999195
0.999195
0.999195
0.999195
0.999194
0.999194
0.999194
0.999193
0.999193
0.999193
0.999192
0.999192
0.999192
0.999191
0.999191
0.999191
0.99919
0.99919
0.999189
0.999189
0.999189
0.999188
0.999188
0.999187
0.999187
0.999186
0.999332
0.999348
0.999337
0.999323
0.999305
0.999283
0.999241
0.999098
0.9983
0.996585
0.995817
0.995022
0.994024
0.992757
0.991145
0.989087
0.98644
0.982972
0.978488
0.957864
0.884185
0.848228
0.848512
0.853231
0.860257
0.869157
0.879655
0.891348
0.903726
0.916245
0.928386
0.939707
0.949867
0.958642
0.96593
0.971759
0.976275
0.979697
0.982259
0.984168
0.985593
0.98666
0.987463
0.988067
0.988522
0.988861
0.989112
0.98929
0.989413
0.989489
0.989526
0.98953
0.989506
0.989457
0.989385
0.989292
0.989179
0.989047
0.988895
0.988725
0.988533
0.988319
0.988081
0.987815
0.987517
0.987183
0.986803
0.986369
0.985868
0.985308
0.984874
0.985119
0.985723
0.986316
0.986852
0.987338
0.987783
0.988194
0.988577
0.988938
0.98928
0.989606
0.989917
0.990218
0.990508
0.990791
0.991067
0.991337
0.991603
0.991867
0.992131
0.992395
0.99266
0.992931
0.993208
0.993495
0.993796
0.994116
0.994462
0.994846
0.995282
0.995802
0.996461
0.99725
0.997784
0.997882
0.997869
0.997854
0.997838
0.997223
0.997209
0.996943
0.99443
0.994193
0.994193
0.994193
0.994193
0.994193
0.994193
0.994193
0.994193
0.994193
0.994193
0.994193
0.994193
0.994193
0.994193
0.994193
0.994193
0.994193
0.994193
0.994193
0.994193
0.994193
0.994193
0.994193
0.994193
0.994193
0.994193
0.994193
0.994193
0.994193
0.994193
0.994193
0.994193
0.994193
0.994193
0.994193
0.994193
0.994193
0.994193
0.994193
0.994193
0.994193
0.994193
0.994193
0.994193
0.994193
0.994193
0.994193
0.994193
0.994193
0.994193
0.994193
0.994193
0.994193
0.994193
0.994193
0.994193
0.994193
0.994193
0.994193
0.994193
0.994193
0.994193
0.994193
0.994193
0.994193
0.994193
0.994193
0.994193
0.994193
0.994193
0.994193
0.994193
0.994193
0.994193
0.994193
0.994193
0.994193
0.994193
0.994193
0.994193
0.994193
0.994193
0.994193
0.994193
0.994193
0.994193
0.994193
0.994193
0.994193
0.994193
0.994193
0.994193
0.994193
0.994193
0.994193
0.994193
0.994193
0.994193
0.994193
0.994193
0.994193
0.994193
0.994193
0.994193
0.994193
0.994193
0.994193
0.994193
0.994193
0.994193
0.994193
0.994193
0.994193
0.994193
0.994193
0.994192
0.994177
0.993252
)
;

boundaryField
{
    inandouthalf11
    {
        type            cyclic;
    }
    inandouthalf12
    {
        type            cyclic;
    }
    inandouthalf21
    {
        type            cyclic;
    }
    inandouthalf22
    {
        type            cyclic;
    }
    inandouthalf31
    {
        type            cyclic;
    }
    inandouthalf32
    {
        type            cyclic;
    }
    inandouthalf41
    {
        type            cyclic;
    }
    inandouthalf42
    {
        type            cyclic;
    }
    top
    {
        type            symmetryPlane;
    }
    walls
    {
        type            calculated;
        value           uniform 0;
    }
    frontAndBackPlanes
    {
        type            empty;
    }
}


// ************************************************************************* //
