/*--------------------------------*- C++ -*----------------------------------*\
| =========                 |                                                 |
| \\      /  F ield         | OpenFOAM: The Open Source CFD Toolbox           |
|  \\    /   O peration     | Version:  2.4.x                                 |
|   \\  /    A nd           | Web:      www.OpenFOAM.org                      |
|    \\/     M anipulation  |                                                 |
\*---------------------------------------------------------------------------*/
FoamFile
{
    version     2.0;
    format      ascii;
    class       volVectorField;
    location    "3.8";
    object      Ua_0;
}
// * * * * * * * * * * * * * * * * * * * * * * * * * * * * * * * * * * * * * //

dimensions      [0 1 -1 0 0 0 0];

internalField   nonuniform List<vector> 
360
(
(-1.1219e-32 -7.45068e-32 0)
(-7.13554e-08 -3.5235e-07 0)
(-1.68746e-07 -7.41505e-07 0)
(-2.5687e-07 -1.06933e-06 0)
(-3.39254e-07 -1.37815e-06 0)
(-4.21736e-07 -1.69061e-06 0)
(-5.06422e-07 -2.01281e-06 0)
(-5.93421e-07 -2.34459e-06 0)
(-6.81952e-07 -2.6823e-06 0)
(-7.71209e-07 -3.02244e-06 0)
(-8.60893e-07 -3.36413e-06 0)
(-9.51054e-07 -3.7079e-06 0)
(-1.0417e-06 -4.05398e-06 0)
(-1.13256e-06 -4.40135e-06 0)
(-1.22311e-06 -4.74782e-06 0)
(-1.31279e-06 -5.09108e-06 0)
(-1.40123e-06 -5.42957e-06 0)
(-1.48844e-06 -5.76326e-06 0)
(-1.57504e-06 -6.09428e-06 0)
(-1.66233e-06 -6.4277e-06 0)
(-1.75252e-06 -6.77193e-06 0)
(-1.84879e-06 -7.13943e-06 0)
(-1.9554e-06 -7.54728e-06 0)
(-2.07714e-06 -8.01541e-06 0)
(-2.21748e-06 -8.56006e-06 0)
(-2.3742e-06 -9.17639e-06 0)
(-2.53365e-06 -9.81305e-06 0)
(-2.67121e-06 -1.03694e-05 0)
(-2.76556e-06 -1.07532e-05 0)
(-2.81531e-06 -1.09547e-05 0)
(-2.83584e-06 -1.10366e-05 0)
(-2.84304e-06 -1.10648e-05 0)
(-2.84551e-06 -1.10743e-05 0)
(-2.84648e-06 -1.10778e-05 0)
(-2.84695e-06 -1.10795e-05 0)
(-2.84726e-06 -1.10806e-05 0)
(-2.84752e-06 -1.10814e-05 0)
(-2.84779e-06 -1.10822e-05 0)
(-2.8481e-06 -1.10832e-05 0)
(-2.84848e-06 -1.10842e-05 0)
(-2.84893e-06 -1.10855e-05 0)
(-2.84946e-06 -1.10869e-05 0)
(-2.85005e-06 -1.10884e-05 0)
(-2.85068e-06 -1.109e-05 0)
(-2.85134e-06 -1.10916e-05 0)
(-2.85202e-06 -1.10931e-05 0)
(-2.8527e-06 -1.10947e-05 0)
(-2.85339e-06 -1.10963e-05 0)
(-2.85409e-06 -1.10978e-05 0)
(-2.8548e-06 -1.10993e-05 0)
(-2.85553e-06 -1.11008e-05 0)
(-2.8563e-06 -1.11024e-05 0)
(-2.85709e-06 -1.1104e-05 0)
(-2.85793e-06 -1.11056e-05 0)
(-2.8588e-06 -1.11073e-05 0)
(-2.85973e-06 -1.1109e-05 0)
(-2.8607e-06 -1.11108e-05 0)
(-2.86172e-06 -1.11127e-05 0)
(-2.8628e-06 -1.11146e-05 0)
(-2.86393e-06 -1.11166e-05 0)
(-2.86511e-06 -1.11187e-05 0)
(-2.86634e-06 -1.11208e-05 0)
(-2.86761e-06 -1.1123e-05 0)
(-2.86893e-06 -1.11252e-05 0)
(-2.87029e-06 -1.11274e-05 0)
(-2.87168e-06 -1.11297e-05 0)
(-2.8731e-06 -1.1132e-05 0)
(-2.87456e-06 -1.11343e-05 0)
(-2.87605e-06 -1.11367e-05 0)
(-2.8776e-06 -1.11391e-05 0)
(-2.8792e-06 -1.11415e-05 0)
(-2.88087e-06 -1.11441e-05 0)
(-2.88262e-06 -1.11467e-05 0)
(-2.88445e-06 -1.11495e-05 0)
(-2.88637e-06 -1.11523e-05 0)
(-2.88837e-06 -1.11553e-05 0)
(-2.89045e-06 -1.11583e-05 0)
(-2.89261e-06 -1.11614e-05 0)
(-2.89485e-06 -1.11646e-05 0)
(-2.89715e-06 -1.11679e-05 0)
(-2.89952e-06 -1.11712e-05 0)
(-2.90196e-06 -1.11746e-05 0)
(-2.90446e-06 -1.11781e-05 0)
(-2.90704e-06 -1.11816e-05 0)
(-2.90969e-06 -1.11853e-05 0)
(-2.91243e-06 -1.1189e-05 0)
(-2.91525e-06 -1.11928e-05 0)
(-2.91815e-06 -1.11967e-05 0)
(-2.92113e-06 -1.12006e-05 0)
(-2.92418e-06 -1.12046e-05 0)
(-2.92731e-06 -1.12087e-05 0)
(-2.93051e-06 -1.12129e-05 0)
(-2.93377e-06 -1.12171e-05 0)
(-2.93709e-06 -1.12213e-05 0)
(-2.94047e-06 -1.12256e-05 0)
(-2.94392e-06 -1.123e-05 0)
(-2.94743e-06 -1.12344e-05 0)
(-2.951e-06 -1.12388e-05 0)
(-2.95462e-06 -1.12433e-05 0)
(-2.95831e-06 -1.12478e-05 0)
(-2.96205e-06 -1.12524e-05 0)
(-2.96584e-06 -1.1257e-05 0)
(-2.96968e-06 -1.12616e-05 0)
(-2.97357e-06 -1.12662e-05 0)
(-2.97751e-06 -1.12709e-05 0)
(-2.98149e-06 -1.12755e-05 0)
(-2.98551e-06 -1.12802e-05 0)
(-2.98956e-06 -1.12849e-05 0)
(-2.99364e-06 -1.12896e-05 0)
(-2.99776e-06 -1.12942e-05 0)
(-3.0019e-06 -1.12989e-05 0)
(-3.00607e-06 -1.13035e-05 0)
(-3.01027e-06 -1.13082e-05 0)
(-3.01449e-06 -1.13128e-05 0)
(-3.01875e-06 -1.13174e-05 0)
(-3.02304e-06 -1.1322e-05 0)
(-3.02737e-06 -1.13266e-05 0)
(-3.03174e-06 -1.13312e-05 0)
(-3.03618e-06 -1.13358e-05 0)
(-3.04069e-06 -1.13404e-05 0)
(-3.04528e-06 -1.1345e-05 0)
(-3.04997e-06 -1.13496e-05 0)
(-3.05477e-06 -1.13543e-05 0)
(-3.05968e-06 -1.1359e-05 0)
(-3.06471e-06 -1.13637e-05 0)
(-3.06985e-06 -1.13685e-05 0)
(-3.0751e-06 -1.13732e-05 0)
(-3.08042e-06 -1.13779e-05 0)
(-3.0858e-06 -1.13825e-05 0)
(-3.09118e-06 -1.13869e-05 0)
(-3.09653e-06 -1.13912e-05 0)
(-3.10178e-06 -1.13953e-05 0)
(-3.1069e-06 -1.13991e-05 0)
(-3.11186e-06 -1.14026e-05 0)
(-3.11666e-06 -1.14059e-05 0)
(-3.1213e-06 -1.14088e-05 0)
(-3.12577e-06 -1.14115e-05 0)
(-3.13009e-06 -1.14139e-05 0)
(-3.13423e-06 -1.1416e-05 0)
(-3.13814e-06 -1.14179e-05 0)
(-3.14157e-06 -1.14194e-05 0)
(-3.14419e-06 -1.14204e-05 0)
(-3.14584e-06 -1.14209e-05 0)
(-3.14672e-06 -1.14211e-05 0)
(-3.14715e-06 -1.14211e-05 0)
(-3.14742e-06 -1.14211e-05 0)
(-3.1478e-06 -1.14211e-05 0)
(-3.15687e-06 -1.14232e-05 0)
(-0.0193771 7.48523e-05 0)
(-0.120571 0.00157686 0)
(-0.231703 0.00256603 0)
(-0.318889 0.00305768 0)
(-0.389036 0.00347933 0)
(-0.44686 0.00389431 0)
(-0.495224 0.00431252 0)
(-0.535968 0.00472866 0)
(-0.570335 0.00513057 0)
(-0.599183 0.00549919 0)
(-0.623142 0.00580704 0)
(-0.642732 0.00600822 0)
(-0.658459 0.00602308 0)
(-0.67088 0.00575206 0)
(-0.680602 0.00515373 0)
(-0.68822 0.0043102 0)
(-0.694229 0.00337195 0)
(-0.698995 0.00246003 0)
(-0.70278 0.00163376 0)
(-0.705774 0.000910905 0)
(-0.708124 0.00029076 0)
(-0.709942 -0.000234014 0)
(-0.711317 -0.000672467 0)
(-0.71232 -0.00103343 0)
(-0.713011 -0.00132487 0)
(-0.713439 -0.00155377 0)
(-0.713643 -0.00172626 0)
(-0.71366 -0.001848 0)
(-0.713523 -0.00192208 0)
(-0.713251 -0.00195679 0)
(-0.712869 -0.00195546 0)
(-0.712397 -0.00192358 0)
(-0.711852 -0.00186714 0)
(-0.711251 -0.00179298 0)
(-0.710607 -0.00170896 0)
(-0.709931 -0.0016239 0)
(-0.709235 -0.00154719 0)
(-0.708527 -0.00148775 0)
(-0.707811 -0.00145235 0)
(-0.707092 -0.0014435 0)
(-0.706374 -0.00145815 0)
(-0.705659 -0.00148885 0)
(-0.704954 -0.0015275 0)
(-0.70426 -0.00156948 0)
(-0.703578 -0.00161421 0)
(-0.702907 -0.00166209 0)
(-0.702248 -0.00171202 0)
(-0.701601 -0.00176225 0)
(-0.700968 -0.00181209 0)
(-0.700347 -0.00186147 0)
(-0.699739 -0.00190979 0)
(-0.699145 -0.00195597 0)
(-0.698565 -0.00199936 0)
(-0.697994 -0.00204087 0)
(-0.697423 -0.00208194 0)
(-0.69685 -0.00212245 0)
(-0.696281 -0.00216111 0)
(-0.695713 -0.00219837 0)
(-0.695136 -0.00223691 0)
(-0.694551 -0.00227707 0)
(-0.693965 -0.00231597 0)
(-0.693376 -0.00235425 0)
(-0.69277 -0.0023957 0)
(-0.692153 -0.00243909 0)
(-0.69153 -0.00248233 0)
(-0.69089 -0.00252853 0)
(-0.690233 -0.00257822 0)
(-0.689567 -0.00262852 0)
(-0.68888 -0.00268276 0)
(-0.688161 -0.00274458 0)
(-0.68743 -0.00280875 0)
(-0.686685 -0.00287477 0)
(-0.6859 -0.00295119 0)
(-0.685082 -0.00303614 0)
(-0.684245 -0.0031259 0)
(-0.683368 -0.0032267 0)
(-0.68246 -0.00333693 0)
(-0.681518 -0.00345716 0)
(-0.680523 -0.00359446 0)
(-0.679502 -0.0037417 0)
(-0.678447 -0.00390062 0)
(-0.677322 -0.00408284 0)
(-0.676163 -0.00427948 0)
(-0.674964 -0.00449181 0)
(-0.673762 -0.00471479 0)
(-0.672677 -0.00491957 0)
(-0.671767 -0.00509458 0)
(-0.671045 -0.00523756 0)
(-0.670483 -0.00534697 0)
(-0.669752 -0.00552946 0)
(-0.58602 -0.0395271 0)
(-0.586013 -0.0395269 0)
(-0.586007 -0.0395269 0)
(-0.586002 -0.0395269 0)
(-0.585998 -0.0395269 0)
(-0.585994 -0.0395269 0)
(-0.585991 -0.0395269 0)
(-0.585989 -0.0395269 0)
(-0.585987 -0.0395269 0)
(-0.585985 -0.0395269 0)
(-0.585983 -0.0395269 0)
(-0.585982 -0.0395269 0)
(-0.585981 -0.0395269 0)
(-0.585981 -0.0395269 0)
(-0.58598 -0.0395269 0)
(-0.585979 -0.0395269 0)
(-0.585979 -0.0395269 0)
(-0.585979 -0.0395269 0)
(-0.585979 -0.0395269 0)
(-0.585978 -0.0395269 0)
(-0.585978 -0.0395269 0)
(-0.585978 -0.0395269 0)
(-0.585978 -0.0395269 0)
(-0.585978 -0.0395269 0)
(-0.585978 -0.0395269 0)
(-0.585978 -0.0395269 0)
(-0.585978 -0.0395269 0)
(-0.585978 -0.0395269 0)
(-0.585978 -0.0395269 0)
(-0.585978 -0.0395269 0)
(-0.585978 -0.0395269 0)
(-0.585978 -0.0395269 0)
(-0.585978 -0.0395269 0)
(-0.585978 -0.0395269 0)
(-0.585978 -0.0395269 0)
(-0.585978 -0.0395269 0)
(-0.585978 -0.0395269 0)
(-0.585978 -0.0395269 0)
(-0.585978 -0.0395269 0)
(-0.585978 -0.0395269 0)
(-0.585978 -0.0395269 0)
(-0.585978 -0.0395269 0)
(-0.585978 -0.0395269 0)
(-0.585978 -0.0395269 0)
(-0.585978 -0.0395269 0)
(-0.585978 -0.0395269 0)
(-0.585978 -0.0395269 0)
(-0.585978 -0.0395269 0)
(-0.585978 -0.0395269 0)
(-0.585978 -0.0395269 0)
(-0.585978 -0.0395269 0)
(-0.585978 -0.0395269 0)
(-0.585978 -0.0395269 0)
(-0.585978 -0.0395269 0)
(-0.585978 -0.0395269 0)
(-0.585978 -0.0395269 0)
(-0.585978 -0.0395269 0)
(-0.585978 -0.0395269 0)
(-0.585978 -0.0395269 0)
(-0.585978 -0.0395269 0)
(-0.585978 -0.0395269 0)
(-0.585978 -0.0395269 0)
(-0.585978 -0.0395269 0)
(-0.585978 -0.0395269 0)
(-0.585978 -0.0395269 0)
(-0.585978 -0.0395269 0)
(-0.585978 -0.0395269 0)
(-0.585978 -0.0395269 0)
(-0.585978 -0.0395269 0)
(-0.585978 -0.0395269 0)
(-0.585978 -0.0395269 0)
(-0.585978 -0.0395269 0)
(-0.585978 -0.0395269 0)
(-0.585978 -0.0395269 0)
(-0.585978 -0.0395269 0)
(-0.585978 -0.0395269 0)
(-0.585978 -0.0395269 0)
(-0.585978 -0.0395269 0)
(-0.585978 -0.0395269 0)
(-0.585978 -0.0395269 0)
(-0.585978 -0.0395269 0)
(-0.585978 -0.0395269 0)
(-0.585978 -0.0395269 0)
(-0.585978 -0.0395269 0)
(-0.585978 -0.0395269 0)
(-0.585978 -0.0395269 0)
(-0.585978 -0.0395269 0)
(-0.585978 -0.0395269 0)
(-0.585978 -0.0395269 0)
(-0.585978 -0.0395269 0)
(-0.585978 -0.0395269 0)
(-0.585978 -0.0395269 0)
(-0.585978 -0.0395269 0)
(-0.585978 -0.0395269 0)
(-0.585978 -0.0395269 0)
(-0.585978 -0.0395269 0)
(-0.585978 -0.0395269 0)
(-0.585978 -0.0395269 0)
(-0.585978 -0.0395269 0)
(-0.585978 -0.0395269 0)
(-0.585978 -0.0395269 0)
(-0.585978 -0.0395269 0)
(-0.585978 -0.0395269 0)
(-0.585978 -0.0395269 0)
(-0.585978 -0.0395269 0)
(-0.585978 -0.0395269 0)
(-0.585978 -0.0395269 0)
(-0.585978 -0.0395269 0)
(-0.585978 -0.0395269 0)
(-0.585978 -0.0395269 0)
(-0.585978 -0.0395269 0)
(-0.585978 -0.0395269 0)
(-0.585978 -0.0395269 0)
(-0.585978 -0.0395269 0)
(-0.585978 -0.0395269 0)
(-0.585978 -0.0395269 0)
(-0.585978 -0.0395269 0)
(-0.585978 -0.0395269 0)
(-0.585978 -0.0395267 0)
(-0.585977 -0.0395182 0)
(-0.585957 -0.039173 0)
(-0.585504 -0.022454 0)
)
;

boundaryField
{
    inandouthalf11
    {
        type            cyclic;
    }
    inandouthalf12
    {
        type            cyclic;
    }
    inandouthalf21
    {
        type            cyclic;
    }
    inandouthalf22
    {
        type            cyclic;
    }
    inandouthalf31
    {
        type            cyclic;
    }
    inandouthalf32
    {
        type            cyclic;
    }
    inandouthalf41
    {
        type            cyclic;
    }
    inandouthalf42
    {
        type            cyclic;
    }
    top
    {
        type            symmetryPlane;
    }
    walls
    {
        type            fixedValue;
        value           uniform (0 0 0);
    }
    frontAndBackPlanes
    {
        type            empty;
    }
}


// ************************************************************************* //
