/*--------------------------------*- C++ -*----------------------------------*\
| =========                 |                                                 |
| \\      /  F ield         | OpenFOAM: The Open Source CFD Toolbox           |
|  \\    /   O peration     | Version:  2.4.x                                 |
|   \\  /    A nd           | Web:      www.OpenFOAM.org                      |
|    \\/     M anipulation  |                                                 |
\*---------------------------------------------------------------------------*/
FoamFile
{
    version     2.0;
    format      ascii;
    class       volVectorField;
    location    "3.8";
    object      Ub_0;
}
// * * * * * * * * * * * * * * * * * * * * * * * * * * * * * * * * * * * * * //

dimensions      [0 1 -1 0 0 0 0];

internalField   nonuniform List<vector> 
360
(
(-0.00014623 1.33686e-07 0)
(-0.000145975 5.61562e-07 0)
(-0.000145878 1.13494e-06 0)
(-0.000145998 1.66695e-06 0)
(-0.000146137 2.16433e-06 0)
(-0.000146262 2.65748e-06 0)
(-0.000146386 3.16248e-06 0)
(-0.00014651 3.68135e-06 0)
(-0.000146631 4.20944e-06 0)
(-0.000146754 4.7421e-06 0)
(-0.000146879 5.27767e-06 0)
(-0.000147007 5.81625e-06 0)
(-0.000147136 6.35784e-06 0)
(-0.000147264 6.90087e-06 0)
(-0.000147392 7.44227e-06 0)
(-0.000147519 7.9788e-06 0)
(-0.000147644 8.50834e-06 0)
(-0.000147767 9.0311e-06 0)
(-0.00014789 9.55064e-06 0)
(-0.000148014 1.00752e-05 0)
(-0.000148141 1.0618e-05 0)
(-0.000148278 1.11988e-05 0)
(-0.000148429 1.18435e-05 0)
(-0.000148601 1.25807e-05 0)
(-0.0001488 1.34288e-05 0)
(-0.000149021 1.43705e-05 0)
(-0.000149246 1.53247e-05 0)
(-0.000149442 1.61571e-05 0)
(-0.000149579 1.67519e-05 0)
(-0.000149654 1.70897e-05 0)
(-0.000149687 1.72422e-05 0)
(-0.000149702 1.72993e-05 0)
(-0.000149709 1.73186e-05 0)
(-0.000149716 1.73255e-05 0)
(-0.000149721 1.73282e-05 0)
(-0.000149727 1.73298e-05 0)
(-0.000149733 1.73308e-05 0)
(-0.00014974 1.73318e-05 0)
(-0.000149748 1.73329e-05 0)
(-0.000149755 1.7334e-05 0)
(-0.000149764 1.73355e-05 0)
(-0.000149773 1.73372e-05 0)
(-0.000149783 1.73389e-05 0)
(-0.000149794 1.73408e-05 0)
(-0.000149806 1.73426e-05 0)
(-0.000149819 1.73444e-05 0)
(-0.000149832 1.73461e-05 0)
(-0.000149846 1.73476e-05 0)
(-0.000149861 1.73492e-05 0)
(-0.000149879 1.73506e-05 0)
(-0.000149896 1.7352e-05 0)
(-0.000149916 1.73534e-05 0)
(-0.000149936 1.73547e-05 0)
(-0.000149958 1.7356e-05 0)
(-0.00014998 1.73573e-05 0)
(-0.000150006 1.73587e-05 0)
(-0.000150031 1.73599e-05 0)
(-0.00015006 1.73613e-05 0)
(-0.000150089 1.73627e-05 0)
(-0.000150119 1.7364e-05 0)
(-0.000150152 1.73654e-05 0)
(-0.000150185 1.73668e-05 0)
(-0.00015022 1.73682e-05 0)
(-0.000150256 1.73696e-05 0)
(-0.000150292 1.73711e-05 0)
(-0.000150329 1.73725e-05 0)
(-0.000150368 1.73739e-05 0)
(-0.000150408 1.73753e-05 0)
(-0.000150449 1.73766e-05 0)
(-0.000150491 1.73779e-05 0)
(-0.000150536 1.73793e-05 0)
(-0.000150583 1.73806e-05 0)
(-0.00015063 1.7382e-05 0)
(-0.000150679 1.73835e-05 0)
(-0.00015073 1.73851e-05 0)
(-0.000150782 1.73868e-05 0)
(-0.000150834 1.73885e-05 0)
(-0.000150888 1.73903e-05 0)
(-0.000150943 1.73922e-05 0)
(-0.000151 1.73941e-05 0)
(-0.000151058 1.7396e-05 0)
(-0.000151118 1.7398e-05 0)
(-0.000151179 1.73999e-05 0)
(-0.000151242 1.74019e-05 0)
(-0.000151306 1.7404e-05 0)
(-0.000151372 1.7406e-05 0)
(-0.00015144 1.74081e-05 0)
(-0.000151509 1.74103e-05 0)
(-0.000151579 1.74125e-05 0)
(-0.000151651 1.74147e-05 0)
(-0.000151725 1.74169e-05 0)
(-0.0001518 1.74191e-05 0)
(-0.000151877 1.74213e-05 0)
(-0.000151956 1.74235e-05 0)
(-0.000152037 1.74257e-05 0)
(-0.00015212 1.74278e-05 0)
(-0.000152204 1.74299e-05 0)
(-0.000152291 1.74319e-05 0)
(-0.000152379 1.74339e-05 0)
(-0.00015247 1.74358e-05 0)
(-0.000152563 1.74377e-05 0)
(-0.000152658 1.74395e-05 0)
(-0.000152755 1.74411e-05 0)
(-0.000152855 1.74427e-05 0)
(-0.000152957 1.74442e-05 0)
(-0.000153062 1.74456e-05 0)
(-0.000153169 1.74468e-05 0)
(-0.00015328 1.74479e-05 0)
(-0.000153393 1.74488e-05 0)
(-0.000153509 1.74495e-05 0)
(-0.000153628 1.745e-05 0)
(-0.00015375 1.74503e-05 0)
(-0.000153876 1.74504e-05 0)
(-0.000154006 1.74503e-05 0)
(-0.000154139 1.745e-05 0)
(-0.000154276 1.74494e-05 0)
(-0.000154417 1.74486e-05 0)
(-0.000154563 1.74475e-05 0)
(-0.000154713 1.74462e-05 0)
(-0.000154867 1.74446e-05 0)
(-0.000155027 1.74428e-05 0)
(-0.000155192 1.74408e-05 0)
(-0.000155362 1.74385e-05 0)
(-0.000155538 1.74359e-05 0)
(-0.00015572 1.7433e-05 0)
(-0.000155908 1.74298e-05 0)
(-0.000156103 1.74262e-05 0)
(-0.000156306 1.74221e-05 0)
(-0.000156516 1.74174e-05 0)
(-0.000156735 1.74121e-05 0)
(-0.000156963 1.7406e-05 0)
(-0.0001572 1.73991e-05 0)
(-0.000157448 1.73911e-05 0)
(-0.000157708 1.7382e-05 0)
(-0.000157985 1.73717e-05 0)
(-0.000158277 1.73601e-05 0)
(-0.000158584 1.73471e-05 0)
(-0.00015891 1.73322e-05 0)
(-0.00015927 1.73149e-05 0)
(-0.000159684 1.72957e-05 0)
(-0.000160133 1.72757e-05 0)
(-0.000160561 1.72497e-05 0)
(-0.000161068 1.72201e-05 0)
(-0.000161726 1.7185e-05 0)
(-0.000162535 1.7126e-05 0)
(-0.000163893 1.71813e-05 0)
(-0.000167382 1.30024e-05 0)
(-0.000204953 3.8483e-05 0)
(-0.0213002 -8.06132e-05 0)
(-0.134757 -0.000874749 0)
(-0.246257 -0.000565848 0)
(-0.331238 -0.000532094 0)
(-0.4001 -0.000449264 0)
(-0.457408 -0.000368203 0)
(-0.505939 -0.000294323 0)
(-0.547542 -0.000229203 0)
(-0.583495 -0.000173664 0)
(-0.614682 -0.000127879 0)
(-0.641703 -9.13229e-05 0)
(-0.664944 -6.29557e-05 0)
(-0.684647 -4.15072e-05 0)
(-0.700981 -2.58386e-05 0)
(-0.714132 -1.50965e-05 0)
(-0.724374 -8.40839e-06 0)
(-0.732096 -4.60465e-06 0)
(-0.737754 -2.50425e-06 0)
(-0.741798 -1.30321e-06 0)
(-0.744614 -5.84925e-07 0)
(-0.746508 -1.471e-07 0)
(-0.747704 1.20281e-07 0)
(-0.748365 2.80187e-07 0)
(-0.748607 3.69682e-07 0)
(-0.748514 4.13342e-07 0)
(-0.748145 4.26792e-07 0)
(-0.747545 4.20233e-07 0)
(-0.746748 4.00486e-07 0)
(-0.745778 3.72338e-07 0)
(-0.744657 3.39279e-07 0)
(-0.7434 3.03711e-07 0)
(-0.742021 2.6732e-07 0)
(-0.740531 2.31421e-07 0)
(-0.73894 1.97045e-07 0)
(-0.737257 1.6501e-07 0)
(-0.735487 1.35969e-07 0)
(-0.733639 1.10422e-07 0)
(-0.731718 8.87096e-08 0)
(-0.729729 7.10088e-08 0)
(-0.727678 5.73056e-08 0)
(-0.725568 4.73021e-08 0)
(-0.723405 4.03002e-08 0)
(-0.721192 3.52642e-08 0)
(-0.718932 3.12024e-08 0)
(-0.71663 2.75976e-08 0)
(-0.714288 2.44219e-08 0)
(-0.711909 2.1749e-08 0)
(-0.709496 1.94855e-08 0)
(-0.707053 1.74753e-08 0)
(-0.70458 1.5671e-08 0)
(-0.702081 1.40956e-08 0)
(-0.699559 1.27259e-08 0)
(-0.697014 1.14826e-08 0)
(-0.694423 1.0303e-08 0)
(-0.691761 9.21991e-09 0)
(-0.689028 8.29804e-09 0)
(-0.686222 7.48846e-09 0)
(-0.683345 6.68442e-09 0)
(-0.680396 5.90704e-09 0)
(-0.677376 5.26291e-09 0)
(-0.674285 4.72711e-09 0)
(-0.671123 4.19425e-09 0)
(-0.667892 3.68704e-09 0)
(-0.664593 3.26926e-09 0)
(-0.661227 2.90041e-09 0)
(-0.657795 2.55095e-09 0)
(-0.654301 2.25236e-09 0)
(-0.650745 1.98814e-09 0)
(-0.647132 1.72908e-09 0)
(-0.643465 1.50892e-09 0)
(-0.639748 1.33662e-09 0)
(-0.635986 1.16666e-09 0)
(-0.632187 1.00079e-09 0)
(-0.628356 8.68718e-10 0)
(-0.624504 7.56336e-10 0)
(-0.620641 6.52401e-10 0)
(-0.616781 5.62677e-10 0)
(-0.612941 4.80232e-10 0)
(-0.609142 4.07145e-10 0)
(-0.605412 3.48652e-10 0)
(-0.601785 3.57206e-10 0)
(-0.598313 7.66906e-11 0)
(-0.595065 5.43423e-10 0)
(-0.59216 -3.75009e-10 0)
(-0.589833 9.52398e-10 0)
(-0.588943 -9.23055e-10 0)
(-0.58886 1.50824e-09 0)
(-0.588845 -1.53384e-09 0)
(-0.588834 2.02535e-09 0)
(-0.588824 -2.20247e-09 0)
(-0.588816 2.56158e-09 0)
(-0.588809 -2.82638e-09 0)
(-0.588803 3.11578e-09 0)
(-0.588798 -3.39675e-09 0)
(-0.588794 3.70186e-09 0)
(-0.58879 -4.00025e-09 0)
(-0.588787 4.3226e-09 0)
(-0.588784 -4.63987e-09 0)
(-0.588782 4.98083e-09 0)
(-0.58878 -5.31829e-09 0)
(-0.588779 5.67907e-09 0)
(-0.588777 -6.0379e-09 0)
(-0.588776 6.41961e-09 0)
(-0.588776 -6.80087e-09 0)
(-0.588775 7.20451e-09 0)
(-0.588775 -7.60918e-09 0)
(-0.588774 8.03565e-09 0)
(-0.588774 -8.46463e-09 0)
(-0.588773 8.91479e-09 0)
(-0.588773 -9.3689e-09 0)
(-0.588773 9.84356e-09 0)
(-0.588773 -1.03236e-08 0)
(-0.588773 1.08235e-08 0)
(-0.588773 -1.13302e-08 0)
(-0.588773 1.18562e-08 0)
(-0.588773 -1.23902e-08 0)
(-0.588773 1.29429e-08 0)
(-0.588773 -1.3505e-08 0)
(-0.588773 1.40853e-08 0)
(-0.588773 -1.46759e-08 0)
(-0.588773 1.52845e-08 0)
(-0.588773 -1.59044e-08 0)
(-0.588773 1.65421e-08 0)
(-0.588773 -1.71919e-08 0)
(-0.588773 1.78593e-08 0)
(-0.588773 -1.85396e-08 0)
(-0.588773 1.92375e-08 0)
(-0.588773 -1.99489e-08 0)
(-0.588773 2.06779e-08 0)
(-0.588773 -2.14211e-08 0)
(-0.588773 2.21818e-08 0)
(-0.588773 -2.29574e-08 0)
(-0.588773 2.37506e-08 0)
(-0.588773 -2.45592e-08 0)
(-0.588773 2.53854e-08 0)
(-0.588773 -2.62276e-08 0)
(-0.588773 2.70876e-08 0)
(-0.588773 -2.7964e-08 0)
(-0.588773 2.88583e-08 0)
(-0.588773 -2.97695e-08 0)
(-0.588773 3.06988e-08 0)
(-0.588773 -3.16454e-08 0)
(-0.588773 3.26102e-08 0)
(-0.588773 -3.35928e-08 0)
(-0.588773 3.45937e-08 0)
(-0.588773 -3.56128e-08 0)
(-0.588773 3.66504e-08 0)
(-0.588773 -3.77064e-08 0)
(-0.588773 3.87811e-08 0)
(-0.588773 -3.98746e-08 0)
(-0.588773 4.09868e-08 0)
(-0.588773 -4.21181e-08 0)
(-0.588773 4.32682e-08 0)
(-0.588773 -4.44376e-08 0)
(-0.588773 4.56259e-08 0)
(-0.588773 -4.68335e-08 0)
(-0.588773 4.80599e-08 0)
(-0.588773 -4.93058e-08 0)
(-0.588773 5.05704e-08 0)
(-0.588773 -5.18543e-08 0)
(-0.588773 5.31567e-08 0)
(-0.588773 -5.44781e-08 0)
(-0.588773 4.89831e-08 0)
(-0.588773 -4.92086e-08 0)
(-0.588773 4.94276e-08 0)
(-0.588773 -4.96405e-08 0)
(-0.588773 4.98466e-08 0)
(-0.588773 -5.00465e-08 0)
(-0.588773 5.02394e-08 0)
(-0.588773 -5.04258e-08 0)
(-0.588773 5.0605e-08 0)
(-0.588773 -5.07774e-08 0)
(-0.588773 5.09424e-08 0)
(-0.588773 -5.11003e-08 0)
(-0.588773 5.12504e-08 0)
(-0.588773 -5.13932e-08 0)
(-0.588773 5.15277e-08 0)
(-0.588773 -5.16545e-08 0)
(-0.588773 5.17726e-08 0)
(-0.588773 -5.18825e-08 0)
(-0.588773 5.19828e-08 0)
(-0.588773 -5.20745e-08 0)
(-0.588773 5.21554e-08 0)
(-0.588773 -5.2227e-08 0)
(-0.588773 5.22856e-08 0)
(-0.588773 -5.23335e-08 0)
(-0.588773 5.23639e-08 0)
(-0.588773 -5.23609e-08 0)
(-0.588773 5.23357e-08 0)
(-0.588773 -5.23056e-08 0)
(-0.588773 5.22673e-08 0)
(-0.588773 -5.22287e-08 0)
(-0.588773 5.21837e-08 0)
(-0.588773 -5.21405e-08 0)
(-0.588773 5.20918e-08 0)
(-0.588773 -5.2046e-08 0)
(-0.588773 5.19955e-08 0)
(-0.588773 -5.19486e-08 0)
(-0.588773 5.18974e-08 0)
(-0.588773 -5.18505e-08 0)
(-0.588773 5.17999e-08 0)
(-0.588773 -5.1754e-08 0)
(-0.588773 5.17051e-08 0)
(-0.588773 -5.16608e-08 0)
(-0.588773 5.16148e-08 0)
(-0.588773 -5.15728e-08 0)
(-0.588773 5.15309e-08 0)
(-0.588773 -5.1492e-08 0)
(-0.588773 5.14553e-08 0)
(-0.588773 -5.14203e-08 0)
(-0.588773 5.13898e-08 0)
(-0.588773 -5.13645e-08 0)
)
;

boundaryField
{
    inandouthalf11
    {
        type            cyclic;
    }
    inandouthalf12
    {
        type            cyclic;
    }
    inandouthalf21
    {
        type            cyclic;
    }
    inandouthalf22
    {
        type            cyclic;
    }
    inandouthalf31
    {
        type            cyclic;
    }
    inandouthalf32
    {
        type            cyclic;
    }
    inandouthalf41
    {
        type            cyclic;
    }
    inandouthalf42
    {
        type            cyclic;
    }
    top
    {
        type            symmetryPlane;
    }
    walls
    {
        type            fixedValue;
        value           uniform (0 0 0);
    }
    frontAndBackPlanes
    {
        type            empty;
    }
}


// ************************************************************************* //
