/*--------------------------------*- C++ -*----------------------------------*\
| =========                 |                                                 |
| \\      /  F ield         | OpenFOAM: The Open Source CFD Toolbox           |
|  \\    /   O peration     | Version:  2.4.x                                 |
|   \\  /    A nd           | Web:      www.OpenFOAM.org                      |
|    \\/     M anipulation  |                                                 |
\*---------------------------------------------------------------------------*/
FoamFile
{
    version     2.0;
    format      ascii;
    class       volScalarField;
    location    "6.05";
    object      ddt0(alpha);
}
// * * * * * * * * * * * * * * * * * * * * * * * * * * * * * * * * * * * * * //

dimensions      [0 0 -1 0 0 0 0];

internalField   nonuniform List<scalar> 
360
(
0.000119241
0.000191697
0.000175349
0.000164261
0.000166897
0.000171226
0.000173312
0.000174133
0.000174715
0.000175626
0.000176845
0.00017813
0.000179397
0.000180559
0.000181675
0.00018281
0.000183978
0.000185157
0.00018633
0.000187543
0.000188672
0.00018984
0.000190981
0.000192092
0.000193163
0.000194182
0.000195137
0.000196121
0.000197086
0.000198077
0.000199143
0.000200438
0.000201821
0.00020364
0.000205594
0.000207862
0.000210227
0.000212634
0.000214841
0.000216266
0.000216952
0.000216315
0.000214161
0.000210789
0.00020619
0.000201051
0.000196172
0.000192442
0.000191346
0.00019424
0.000202364
0.00021791
0.000242962
0.000280207
0.000330981
0.000393967
0.000458159
0.00050126
0.000492086
0.000413774
0.000287002
0.000159553
7.03248e-05
2.44973e-05
6.66016e-06
1.16126e-06
-2.67482e-07
-6.11951e-07
-7.04744e-07
-7.53099e-07
-7.93503e-07
-8.13915e-07
-8.38698e-07
-8.66567e-07
-8.88345e-07
-9.0657e-07
-9.21536e-07
-9.43458e-07
-9.66477e-07
-9.88492e-07
-1.0135e-06
-1.04235e-06
-1.06991e-06
-1.09729e-06
-1.12398e-06
-1.14995e-06
-1.17477e-06
-1.19848e-06
-1.22365e-06
-1.24989e-06
-1.27695e-06
-1.30599e-06
-1.3367e-06
-1.3681e-06
-1.4003e-06
-1.43314e-06
-1.46649e-06
-1.50047e-06
-1.53541e-06
-1.57144e-06
-1.6087e-06
-1.64739e-06
-1.68755e-06
-1.72916e-06
-1.77231e-06
-1.81711e-06
-1.86366e-06
-1.9121e-06
-1.96257e-06
-2.01519e-06
-2.07009e-06
-2.12739e-06
-2.18719e-06
-2.24965e-06
-2.31488e-06
-2.38305e-06
-2.45429e-06
-2.52882e-06
-2.60682e-06
-2.68849e-06
-2.77405e-06
-2.86363e-06
-2.95743e-06
-3.05575e-06
-3.15932e-06
-3.26951e-06
-3.38827e-06
-3.51737e-06
-3.65697e-06
-3.80476e-06
-3.95885e-06
-4.12641e-06
-4.32845e-06
-4.57936e-06
-4.85353e-06
-5.11205e-06
-5.39571e-06
-5.85856e-06
-6.61148e-06
-7.34944e-06
-7.45454e-06
-7.98374e-06
-9.98694e-06
-1.26261e-05
-1.96965e-05
-7.59825e-05
-6.35509e-05
0.0104334
0.111146
0.0230926
-0.00135044
-0.0111826
-0.0158663
-0.0174918
-0.0171399
-0.0156749
-0.0137361
-0.0117236
-0.00984673
-0.0081928
-0.00678092
-0.00559726
-0.00461485
-0.00380368
-0.00313536
-0.0025849
-0.00213118
-0.00175667
-0.00144701
-0.00119051
-0.000977642
-0.000800691
-0.00065337
-0.000530556
-0.000428062
-0.000342458
-0.00027092
-0.000211121
-0.000161134
-0.000119362
-8.44753e-05
-5.5368e-05
-3.11164e-05
-1.09491e-05
5.77892e-06
1.96101e-05
3.1005e-05
4.0364e-05
4.80464e-05
5.43873e-05
5.97042e-05
6.42837e-05
6.8355e-05
7.20819e-05
7.55718e-05
7.88323e-05
8.16862e-05
8.37787e-05
8.47165e-05
8.43764e-05
8.32094e-05
8.16143e-05
7.94992e-05
7.70012e-05
7.39802e-05
6.96704e-05
6.40844e-05
5.77634e-05
5.09152e-05
4.39833e-05
3.73956e-05
3.13745e-05
2.61369e-05
2.1555e-05
1.76269e-05
1.44415e-05
1.1776e-05
9.55504e-06
7.77861e-06
6.34186e-06
5.15754e-06
4.1708e-06
3.38922e-06
2.7561e-06
2.22034e-06
1.79401e-06
1.45176e-06
1.16859e-06
9.4141e-07
7.53224e-07
6.07345e-07
4.78172e-07
3.77864e-07
2.90911e-07
2.52217e-07
1.67653e-07
2.5389e-08
3.89039e-07
1.02157e-08
5.8753e-08
0
-1.47836e-25
-2.37687e-26
-1.47703e-26
-1.49683e-26
-1.83508e-26
-2.186e-26
-2.22719e-26
-8.98066e-27
-3.33949e-27
-1.46309e-27
-7.18852e-28
-3.74335e-28
-2.44194e-28
-2.28799e-28
-2.47775e-28
-1.30241e-28
-4.8987e-29
-2.24842e-29
-1.13144e-29
-6.22058e-30
-4.32942e-30
-3.0712e-30
-1.25181e-30
-6.07643e-31
-3.08667e-31
-1.67252e-31
-8.48509e-32
-4.19229e-32
-2.06707e-32
-1.00115e-32
-4.75888e-33
-2.21862e-33
-1.01377e-33
-4.53688e-34
-1.98704e-34
-8.51009e-35
-3.56097e-35
-1.45449e-35
-5.79349e-36
-2.24805e-36
-8.48844e-37
-3.11522e-37
-1.10977e-37
-3.83236e-38
-1.28098e-38
-4.1377e-39
-1.28932e-39
-3.86824e-40
-1.11509e-40
-3.08142e-41
-8.14193e-42
-2.0512e-42
-4.91152e-43
-1.11378e-43
-2.38232e-44
-4.7841e-45
-8.97164e-46
-1.56131e-46
-2.50277e-47
-3.66251e-48
-4.83929e-49
-5.69405e-50
-5.86007e-51
-5.14885e-52
-3.73135e-53
-2.11485e-54
-8.54192e-56
-1.999e-57
-1.00501e-59
-1.76423e-63
-1.95627e-65
-1.07641e-67
-3.31747e-78
-5.04561e-89
-5.33047e-100
-4.10749e-111
-2.59004e-122
-1.29064e-133
-5.42342e-145
-1.21546e-154
-4.56886e-165
-4.15019e-173
-1.38342e-183
-1.4276e-191
-5.54002e-202
-4.91121e-210
-2.34603e-220
-1.69094e-228
-1.4919e-238
-5.89142e-247
-9.74485e-257
-2.08861e-265
-4.8235e-275
-7.52926e-284
-2.28359e-293
-2.75517e-302
-1.00297e-311
-9.84179e-321
0
0
0
0
0
0
0
0
0
0
0
0
0
0
0
0
0
0
0
0
0
)
;

boundaryField
{
    inandouthalf11
    {
        type            cyclic;
    }
    inandouthalf12
    {
        type            cyclic;
    }
    inandouthalf21
    {
        type            cyclic;
    }
    inandouthalf22
    {
        type            cyclic;
    }
    inandouthalf31
    {
        type            cyclic;
    }
    inandouthalf32
    {
        type            cyclic;
    }
    inandouthalf41
    {
        type            cyclic;
    }
    inandouthalf42
    {
        type            cyclic;
    }
    top
    {
        type            symmetryPlane;
    }
    walls
    {
        type            calculated;
        value           uniform 0.000119241;
    }
    frontAndBackPlanes
    {
        type            empty;
    }
}


// ************************************************************************* //
