/*--------------------------------*- C++ -*----------------------------------*\
| =========                 |                                                 |
| \\      /  F ield         | OpenFOAM: The Open Source CFD Toolbox           |
|  \\    /   O peration     | Version:  2.4.x                                 |
|   \\  /    A nd           | Web:      www.OpenFOAM.org                      |
|    \\/     M anipulation  |                                                 |
\*---------------------------------------------------------------------------*/
FoamFile
{
    version     2.0;
    format      ascii;
    class       surfaceScalarField;
    location    "6.05";
    object      ddt0(phia);
}
// * * * * * * * * * * * * * * * * * * * * * * * * * * * * * * * * * * * * * //

dimensions      [0 3 -2 0 0 0 0];

internalField   nonuniform List<scalar> 
359
(
1.47451e-13
4.14813e-13
6.64367e-13
8.94279e-13
1.12432e-12
1.3612e-12
1.60293e-12
1.84638e-12
2.08985e-12
2.3335e-12
2.57813e-12
2.82419e-12
3.07186e-12
3.32096e-12
3.57138e-12
3.82316e-12
4.0764e-12
4.33114e-12
4.5873e-12
4.84483e-12
5.10333e-12
5.36259e-12
5.62225e-12
5.88192e-12
6.1413e-12
6.40026e-12
6.65894e-12
6.91812e-12
7.17892e-12
7.44305e-12
7.71268e-12
7.99048e-12
8.27856e-12
8.57902e-12
8.89182e-12
9.21511e-12
9.54365e-12
9.8687e-12
1.01776e-11
1.04542e-11
1.06818e-11
1.08457e-11
1.09381e-11
1.09622e-11
1.09352e-11
1.08897e-11
1.08726e-11
1.09436e-11
1.11751e-11
1.16542e-11
1.24878e-11
1.38112e-11
1.57862e-11
1.85762e-11
2.22376e-11
2.64895e-11
3.03404e-11
3.19691e-11
2.95019e-11
2.27805e-11
1.42116e-11
7.03231e-12
2.75627e-12
8.71759e-13
2.31172e-13
5.44739e-14
1.22129e-14
2.7594e-15
6.25193e-16
1.07076e-16
-3.3957e-17
-7.73502e-17
-9.18832e-17
-9.64457e-17
-9.67582e-17
-9.46474e-17
-9.06308e-17
-8.4745e-17
-7.68681e-17
-6.68795e-17
-5.47586e-17
-4.06262e-17
-2.47611e-17
-7.57814e-18
1.0418e-17
2.86886e-17
4.67221e-17
6.40794e-17
8.04325e-17
9.55754e-17
1.0942e-16
1.21977e-16
1.33327e-16
1.43598e-16
1.52939e-16
1.61502e-16
1.69435e-16
1.7687e-16
1.83926e-16
1.90701e-16
1.9728e-16
2.03731e-16
2.10109e-16
2.16458e-16
2.2281e-16
2.2919e-16
2.35615e-16
2.42098e-16
2.48645e-16
2.55261e-16
2.61946e-16
2.68701e-16
2.75525e-16
2.82416e-16
2.89377e-16
2.96407e-16
3.03513e-16
3.107e-16
3.17978e-16
3.25359e-16
3.32855e-16
3.40478e-16
3.48234e-16
3.56125e-16
3.64138e-16
3.7225e-16
3.80416e-16
3.88573e-16
3.96638e-16
4.04507e-16
4.12063e-16
4.19195e-16
4.25826e-16
4.31927e-16
4.37513e-16
4.42616e-16
4.47279e-16
4.51568e-16
4.55545e-16
4.59167e-16
4.6216e-16
4.64105e-16
4.65115e-16
4.65514e-16
4.65603e-16
4.65433e-16
4.67539e-16
1.08743e-10
-2.02368e-09
-3.56453e-09
-4.64593e-09
-5.52931e-09
-6.33044e-09
-7.08402e-09
-7.79889e-09
-8.47571e-09
-9.11318e-09
-9.71048e-09
-1.0268e-08
-1.07873e-08
-1.12709e-08
-1.17219e-08
-1.21438e-08
-1.25396e-08
-1.29125e-08
-1.3265e-08
-1.35995e-08
-1.39182e-08
-1.42229e-08
-1.45153e-08
-1.47972e-08
-1.50701e-08
-1.53357e-08
-1.55956e-08
-1.58514e-08
-1.61047e-08
-1.63571e-08
-1.66101e-08
-1.68647e-08
-1.71221e-08
-1.73828e-08
-1.76474e-08
-1.79159e-08
-1.81882e-08
-1.84636e-08
-1.87414e-08
-1.90203e-08
-1.92982e-08
-1.95717e-08
-1.98351e-08
-2.008e-08
-2.02942e-08
-2.04623e-08
-2.05665e-08
-2.05872e-08
-2.05056e-08
-2.0308e-08
-1.99916e-08
-1.95666e-08
-1.90536e-08
-1.84632e-08
-1.77796e-08
-1.70065e-08
-1.61423e-08
-1.51845e-08
-1.41696e-08
-1.3141e-08
-1.21252e-08
-1.1158e-08
-1.02628e-08
-9.44881e-09
-8.72333e-09
-8.07506e-09
-7.50316e-09
-7.00753e-09
-6.56788e-09
-6.18168e-09
-5.84765e-09
-5.55353e-09
-5.29326e-09
-5.0626e-09
-4.86497e-09
-4.69098e-09
-4.53289e-09
-4.39788e-09
-4.27661e-09
-4.16044e-09
-4.04823e-09
-3.92745e-09
-3.7952e-09
-3.62784e-09
-3.42211e-09
-3.1669e-09
-2.8607e-09
-2.35997e-09
3.57983e-10
1.82862e-07
4.66239e-07
1.33897e-08
3.46117e-08
1.23632e-07
1.48249e-10
6.66832e-11
8.68457e-11
9.30982e-11
9.71816e-11
9.79097e-11
9.51648e-11
8.83399e-11
7.62327e-11
5.63833e-11
2.25444e-11
-2.49351e-11
-2.29523e-10
-2.60654e-10
-1.14615e-11
1.11655e-11
9.72578e-12
9.60755e-12
9.60099e-12
9.59923e-12
9.60139e-12
9.59935e-12
9.60156e-12
9.5994e-12
9.60168e-12
9.59941e-12
9.60177e-12
9.5994e-12
9.60188e-12
9.59935e-12
9.6018e-12
9.59964e-12
9.6016e-12
9.59946e-12
9.60182e-12
9.59943e-12
9.60185e-12
9.5994e-12
9.60187e-12
9.59938e-12
9.60189e-12
9.59936e-12
9.6019e-12
9.59935e-12
9.60192e-12
9.59934e-12
9.60192e-12
9.59934e-12
9.60193e-12
9.59934e-12
9.60193e-12
9.59936e-12
9.60194e-12
9.59938e-12
9.60194e-12
9.59941e-12
9.6019e-12
9.59942e-12
9.60187e-12
9.59945e-12
9.60184e-12
9.59949e-12
9.6018e-12
9.59953e-12
9.60175e-12
9.59958e-12
9.6017e-12
9.59966e-12
9.6017e-12
9.59969e-12
9.60161e-12
9.59974e-12
9.60156e-12
9.59978e-12
9.60152e-12
9.59983e-12
9.60148e-12
9.59988e-12
9.60144e-12
9.59992e-12
9.6014e-12
9.59997e-12
9.60136e-12
9.60002e-12
9.60133e-12
9.60007e-12
9.6013e-12
9.60013e-12
9.60127e-12
9.60019e-12
9.60126e-12
9.60025e-12
9.60124e-12
9.60031e-12
9.60122e-12
9.60037e-12
9.60121e-12
9.60043e-12
9.60119e-12
9.60048e-12
9.60116e-12
9.60051e-12
9.60112e-12
9.60056e-12
9.60109e-12
9.6006e-12
9.60103e-12
9.60063e-12
9.60096e-12
9.60063e-12
9.60085e-12
9.60061e-12
9.60075e-12
9.60076e-12
9.6008e-12
9.6073e-12
9.72837e-12
1.50054e-11
)
;

boundaryField
{
    inandouthalf11
    {
        type            cyclic;
        value           nonuniform List<scalar> 
100
(
-1.91053e-39
-1.70472e-14
-3.74665e-14
-5.55672e-14
-7.31901e-14
-9.13629e-14
-1.10014e-13
-1.28892e-13
-1.47857e-13
-1.66881e-13
-1.86001e-13
-2.05262e-13
-2.24684e-13
-2.44263e-13
-2.63993e-13
-2.83871e-13
-3.03905e-13
-3.241e-13
-3.4446e-13
-3.64981e-13
-3.85653e-13
-4.06459e-13
-4.27384e-13
-4.48408e-13
-4.69508e-13
-4.90672e-13
-5.11897e-13
-5.3321e-13
-5.5467e-13
-5.76364e-13
-5.98417e-13
-6.20986e-13
-6.44236e-13
-6.68317e-13
-6.93318e-13
-7.19202e-13
-7.45763e-13
-7.72565e-13
-7.98903e-13
-8.23801e-13
-8.46108e-13
-8.64678e-13
-8.78628e-13
-8.87674e-13
-8.92408e-13
-8.94481e-13
-8.96646e-13
-9.0269e-13
-9.17381e-13
-9.46554e-13
-9.97411e-13
-1.07905e-12
-1.20294e-12
-1.38232e-12
-1.62809e-12
-1.93661e-12
-2.2649e-12
-2.5022e-12
-2.48287e-12
-2.0977e-12
-1.44092e-12
-7.80934e-13
-3.31153e-13
-1.11532e-13
-3.10029e-14
-7.55183e-15
-1.73798e-15
-4.10121e-16
-1.07971e-16
-3.47989e-17
-1.50715e-17
-9.05036e-18
-7.00601e-18
-6.29111e-18
-6.10513e-18
-6.18693e-18
-6.45351e-18
-6.88811e-18
-7.49977e-18
-8.30468e-18
-9.31506e-18
-1.05323e-17
-1.19437e-17
-1.35221e-17
-1.5228e-17
-1.70144e-17
-1.88317e-17
-2.06334e-17
-2.238e-17
-2.40422e-17
-2.56016e-17
-2.70506e-17
-2.83898e-17
-2.96262e-17
-3.07707e-17
-3.18361e-17
-3.28358e-17
-3.37826e-17
-3.46884e-17
-3.55639e-17
)
;
    }
    inandouthalf12
    {
        type            cyclic;
        value           nonuniform List<scalar> 
100
(
1.91053e-39
1.70472e-14
3.74665e-14
5.55672e-14
7.31901e-14
9.13629e-14
1.10014e-13
1.28892e-13
1.47857e-13
1.66881e-13
1.86001e-13
2.05262e-13
2.24684e-13
2.44263e-13
2.63993e-13
2.83871e-13
3.03905e-13
3.241e-13
3.4446e-13
3.64981e-13
3.85653e-13
4.06459e-13
4.27384e-13
4.48408e-13
4.69508e-13
4.90672e-13
5.11897e-13
5.3321e-13
5.5467e-13
5.76364e-13
5.98417e-13
6.20986e-13
6.44236e-13
6.68317e-13
6.93318e-13
7.19202e-13
7.45763e-13
7.72565e-13
7.98903e-13
8.23801e-13
8.46108e-13
8.64678e-13
8.78628e-13
8.87674e-13
8.92408e-13
8.94481e-13
8.96646e-13
9.0269e-13
9.17381e-13
9.46554e-13
9.97411e-13
1.07905e-12
1.20294e-12
1.38232e-12
1.62809e-12
1.93661e-12
2.2649e-12
2.5022e-12
2.48287e-12
2.0977e-12
1.44092e-12
7.80934e-13
3.31153e-13
1.11532e-13
3.10029e-14
7.55183e-15
1.73798e-15
4.10121e-16
1.07971e-16
3.47989e-17
1.50715e-17
9.05036e-18
7.00601e-18
6.29111e-18
6.10513e-18
6.18693e-18
6.45351e-18
6.88811e-18
7.49977e-18
8.30468e-18
9.31506e-18
1.05323e-17
1.19437e-17
1.35221e-17
1.5228e-17
1.70144e-17
1.88317e-17
2.06334e-17
2.238e-17
2.40422e-17
2.56016e-17
2.70506e-17
2.83898e-17
2.96262e-17
3.07707e-17
3.18361e-17
3.28358e-17
3.37826e-17
3.46884e-17
3.55639e-17
)
;
    }
    inandouthalf21
    {
        type            cyclic;
        value           nonuniform List<scalar> 
100
(
-3.64183e-17
-3.72594e-17
-3.8094e-17
-3.89275e-17
-3.97644e-17
-4.06084e-17
-4.14624e-17
-4.23286e-17
-4.32088e-17
-4.41042e-17
-4.50159e-17
-4.59449e-17
-4.68919e-17
-4.78579e-17
-4.88439e-17
-4.98513e-17
-5.08817e-17
-5.19374e-17
-5.30213e-17
-5.41369e-17
-5.52881e-17
-5.64794e-17
-5.77152e-17
-5.89996e-17
-6.03356e-17
-6.17246e-17
-6.31653e-17
-6.46531e-17
-6.61794e-17
-6.77308e-17
-6.92888e-17
-7.08323e-17
-7.23415e-17
-7.38038e-17
-7.52155e-17
-7.65801e-17
-7.79065e-17
-7.92113e-17
-8.05179e-17
-8.18328e-17
-8.3089e-17
-8.41269e-17
-8.48216e-17
-8.51846e-17
-8.53325e-17
-8.54008e-17
-8.54725e-17
-8.75143e-17
-7.15182e-08
-8.71264e-08
-8.29575e-08
-8.39589e-08
-8.72787e-08
-9.15729e-08
-9.61738e-08
-1.00734e-07
-1.05082e-07
-1.09143e-07
-1.12899e-07
-1.16358e-07
-1.19539e-07
-1.22467e-07
-1.25164e-07
-1.27653e-07
-1.29951e-07
-1.32075e-07
-1.34038e-07
-1.35851e-07
-1.37524e-07
-1.39063e-07
-1.40474e-07
-1.41762e-07
-1.42932e-07
-1.43986e-07
-1.44927e-07
-1.45756e-07
-1.46476e-07
-1.47087e-07
-1.47591e-07
-1.47989e-07
-1.48282e-07
-1.48469e-07
-1.48553e-07
-1.48535e-07
-1.48415e-07
-1.48194e-07
-1.47875e-07
-1.47459e-07
-1.46949e-07
-1.46346e-07
-1.45654e-07
-1.44878e-07
-1.44021e-07
-1.43089e-07
-1.42089e-07
-1.41029e-07
-1.3992e-07
-1.38772e-07
-1.37597e-07
-1.36405e-07
)
;
    }
    inandouthalf22
    {
        type            cyclic;
        value           nonuniform List<scalar> 
100
(
3.64183e-17
3.72594e-17
3.8094e-17
3.89275e-17
3.97644e-17
4.06084e-17
4.14624e-17
4.23286e-17
4.32088e-17
4.41042e-17
4.50159e-17
4.59449e-17
4.68919e-17
4.78579e-17
4.88439e-17
4.98513e-17
5.08817e-17
5.19374e-17
5.30213e-17
5.41369e-17
5.52881e-17
5.64794e-17
5.77152e-17
5.89996e-17
6.03356e-17
6.17246e-17
6.31653e-17
6.46531e-17
6.61794e-17
6.77308e-17
6.92888e-17
7.08323e-17
7.23415e-17
7.38038e-17
7.52155e-17
7.65801e-17
7.79065e-17
7.92113e-17
8.05179e-17
8.18328e-17
8.3089e-17
8.41269e-17
8.48216e-17
8.51846e-17
8.53325e-17
8.54008e-17
8.54725e-17
8.75143e-17
7.15182e-08
8.71264e-08
8.29575e-08
8.39589e-08
8.72787e-08
9.15729e-08
9.61738e-08
1.00734e-07
1.05082e-07
1.09143e-07
1.12899e-07
1.16358e-07
1.19539e-07
1.22467e-07
1.25164e-07
1.27653e-07
1.29951e-07
1.32075e-07
1.34038e-07
1.35851e-07
1.37524e-07
1.39063e-07
1.40474e-07
1.41762e-07
1.42932e-07
1.43986e-07
1.44927e-07
1.45756e-07
1.46476e-07
1.47087e-07
1.47591e-07
1.47989e-07
1.48282e-07
1.48469e-07
1.48553e-07
1.48535e-07
1.48415e-07
1.48194e-07
1.47875e-07
1.47459e-07
1.46949e-07
1.46346e-07
1.45654e-07
1.44878e-07
1.44021e-07
1.43089e-07
1.42089e-07
1.41029e-07
1.3992e-07
1.38772e-07
1.37597e-07
1.36405e-07
)
;
    }
    inandouthalf31
    {
        type            cyclic;
        value           nonuniform List<scalar> 
110
(
-1.3521e-07
-1.36729e-07
-1.38249e-07
-1.39782e-07
-1.41347e-07
-1.42963e-07
-1.44648e-07
-1.46418e-07
-1.48288e-07
-1.50266e-07
-1.52359e-07
-1.54569e-07
-1.56897e-07
-1.59341e-07
-1.61896e-07
-1.64557e-07
-1.67321e-07
-1.70179e-07
-1.73126e-07
-1.76158e-07
-1.79271e-07
-1.82458e-07
-1.85712e-07
-1.89034e-07
-1.92419e-07
-1.95859e-07
-1.9936e-07
-2.02923e-07
-2.06551e-07
-2.10254e-07
-2.14048e-07
-2.17952e-07
-2.21981e-07
-2.26169e-07
-2.30656e-07
-2.35612e-07
-2.40782e-07
-2.61306e-07
-1.65015e-07
-1.64738e-07
-1.64549e-07
-1.66686e-07
-1.66961e-07
-1.67817e-07
-1.68866e-07
-1.70161e-07
-1.71719e-07
-1.73568e-07
-1.75758e-07
-1.78361e-07
-1.81496e-07
-1.85362e-07
-1.90277e-07
-1.96785e-07
-2.10785e-07
-2.22853e-07
-2.28409e-07
-2.33072e-07
-2.37803e-07
-2.4263e-07
-2.47555e-07
-2.5258e-07
-2.57706e-07
-2.62937e-07
-2.68274e-07
-2.73719e-07
-2.79275e-07
-2.84943e-07
-2.90727e-07
-2.96628e-07
-3.02649e-07
-3.08792e-07
-3.15059e-07
-3.21454e-07
-3.27979e-07
-3.34636e-07
-3.41428e-07
-3.48358e-07
-3.55429e-07
-3.62643e-07
-3.70004e-07
-3.77514e-07
-3.85177e-07
-3.92995e-07
-4.00972e-07
-4.0911e-07
-4.17414e-07
-4.25886e-07
-4.34531e-07
-4.43351e-07
-4.52349e-07
-4.61531e-07
-4.70899e-07
-4.80457e-07
-4.90209e-07
-5.00159e-07
-5.10311e-07
-5.20669e-07
-5.31237e-07
-5.42019e-07
-5.53021e-07
-5.64246e-07
-5.75698e-07
-5.87384e-07
-5.99306e-07
-6.1147e-07
-6.23881e-07
-6.36545e-07
-6.49465e-07
-6.62647e-07
)
;
    }
    inandouthalf32
    {
        type            cyclic;
        value           nonuniform List<scalar> 
110
(
1.3521e-07
1.36729e-07
1.38249e-07
1.39782e-07
1.41347e-07
1.42963e-07
1.44648e-07
1.46418e-07
1.48288e-07
1.50266e-07
1.52359e-07
1.54569e-07
1.56897e-07
1.59341e-07
1.61896e-07
1.64557e-07
1.67321e-07
1.70179e-07
1.73126e-07
1.76158e-07
1.79271e-07
1.82458e-07
1.85712e-07
1.89034e-07
1.92419e-07
1.95859e-07
1.9936e-07
2.02923e-07
2.06551e-07
2.10254e-07
2.14048e-07
2.17952e-07
2.21981e-07
2.26169e-07
2.30656e-07
2.35612e-07
2.40782e-07
2.61306e-07
1.65015e-07
1.64738e-07
1.64549e-07
1.66686e-07
1.66961e-07
1.67817e-07
1.68866e-07
1.70161e-07
1.71719e-07
1.73568e-07
1.75758e-07
1.78361e-07
1.81496e-07
1.85362e-07
1.90277e-07
1.96785e-07
2.10785e-07
2.22853e-07
2.28409e-07
2.33072e-07
2.37803e-07
2.4263e-07
2.47555e-07
2.5258e-07
2.57706e-07
2.62937e-07
2.68274e-07
2.73719e-07
2.79275e-07
2.84943e-07
2.90727e-07
2.96628e-07
3.02649e-07
3.08792e-07
3.15059e-07
3.21454e-07
3.27979e-07
3.34636e-07
3.41428e-07
3.48358e-07
3.55429e-07
3.62643e-07
3.70004e-07
3.77514e-07
3.85177e-07
3.92995e-07
4.00972e-07
4.0911e-07
4.17414e-07
4.25886e-07
4.34531e-07
4.43351e-07
4.52349e-07
4.61531e-07
4.70899e-07
4.80457e-07
4.90209e-07
5.00159e-07
5.10311e-07
5.20669e-07
5.31237e-07
5.42019e-07
5.53021e-07
5.64246e-07
5.75698e-07
5.87384e-07
5.99306e-07
6.1147e-07
6.23881e-07
6.36545e-07
6.49465e-07
6.62647e-07
)
;
    }
    inandouthalf41
    {
        type            cyclic;
        value           nonuniform List<scalar> 
50
(
-5.93137e-07
-5.93137e-07
-5.93137e-07
-5.93137e-07
-5.93137e-07
-5.93137e-07
-5.93137e-07
-5.93137e-07
-5.93137e-07
-5.93137e-07
-5.93137e-07
-5.93137e-07
-5.93137e-07
-5.93137e-07
-5.93137e-07
-5.93137e-07
-5.93137e-07
-5.93137e-07
-5.93137e-07
-5.93137e-07
-5.93137e-07
-5.93137e-07
-5.93137e-07
-5.93137e-07
-5.93137e-07
-5.93137e-07
-5.93137e-07
-5.93137e-07
-5.93137e-07
-5.93137e-07
-5.93137e-07
-5.93137e-07
-5.93137e-07
-5.93137e-07
-5.93137e-07
-5.93137e-07
-5.93137e-07
-5.93137e-07
-5.93137e-07
-5.93137e-07
-5.93137e-07
-5.93137e-07
-5.93137e-07
-5.93137e-07
-5.93137e-07
-5.93137e-07
-5.93137e-07
-5.93133e-07
-5.93055e-07
-5.91226e-07
)
;
    }
    inandouthalf42
    {
        type            cyclic;
        value           nonuniform List<scalar> 
50
(
5.93137e-07
5.93137e-07
5.93137e-07
5.93137e-07
5.93137e-07
5.93137e-07
5.93137e-07
5.93137e-07
5.93137e-07
5.93137e-07
5.93137e-07
5.93137e-07
5.93137e-07
5.93137e-07
5.93137e-07
5.93137e-07
5.93137e-07
5.93137e-07
5.93137e-07
5.93137e-07
5.93137e-07
5.93137e-07
5.93137e-07
5.93137e-07
5.93137e-07
5.93137e-07
5.93137e-07
5.93137e-07
5.93137e-07
5.93137e-07
5.93137e-07
5.93137e-07
5.93137e-07
5.93137e-07
5.93137e-07
5.93137e-07
5.93137e-07
5.93137e-07
5.93137e-07
5.93137e-07
5.93137e-07
5.93137e-07
5.93137e-07
5.93137e-07
5.93137e-07
5.93137e-07
5.93137e-07
5.93133e-07
5.93055e-07
5.91226e-07
)
;
    }
    top
    {
        type            symmetryPlane;
        value           uniform 0;
    }
    walls
    {
        type            calculated;
        value           uniform 0;
    }
    frontAndBackPlanes
    {
        type            empty;
        value           nonuniform 0();
    }
}


// ************************************************************************* //
