/*--------------------------------*- C++ -*----------------------------------*\
| =========                 |                                                 |
| \\      /  F ield         | OpenFOAM: The Open Source CFD Toolbox           |
|  \\    /   O peration     | Version:  2.4.x                                 |
|   \\  /    A nd           | Web:      www.OpenFOAM.org                      |
|    \\/     M anipulation  |                                                 |
\*---------------------------------------------------------------------------*/
FoamFile
{
    version     2.0;
    format      ascii;
    class       volScalarField;
    location    "6.05";
    object      epsilon_0;
}
// * * * * * * * * * * * * * * * * * * * * * * * * * * * * * * * * * * * * * //

dimensions      [0 2 -3 0 0 0 0];

internalField   nonuniform List<scalar> 
360
(
1.60309e-27
1e-20
1e-20
1e-20
1e-20
1e-20
1e-20
1e-20
1e-20
1e-20
1e-20
1e-20
1e-20
1e-20
1e-20
1e-20
1e-20
1e-20
1e-20
1e-20
1e-20
1e-20
1e-20
1e-20
1e-20
1e-20
1e-20
1e-20
1e-20
1e-20
1e-20
1e-20
1e-20
1e-20
1e-20
1e-20
1e-20
1e-20
1e-20
1e-20
1e-20
1e-20
1e-20
1e-20
1e-20
1e-20
1e-20
1e-20
1e-20
1e-20
1e-20
1e-20
1e-20
1e-20
1e-20
1e-20
1e-20
1e-20
1e-20
1e-20
1e-20
1e-20
1e-20
1e-20
1e-20
1e-20
1e-20
1e-20
1e-20
1e-20
1e-20
1e-20
1e-20
1e-20
1e-20
1e-20
1e-20
1e-20
1e-20
1e-20
1e-20
1e-20
1e-20
1e-20
1e-20
1e-20
1e-20
1e-20
1e-20
1e-20
1e-20
1e-20
1e-20
1e-20
1e-20
1e-20
1e-20
1e-20
1e-20
1e-20
1e-20
1e-20
1e-20
1e-20
1e-20
1e-20
1e-20
1e-20
1e-20
1e-20
1e-20
1e-20
1e-20
1e-20
1e-20
1e-20
1e-20
1e-20
1e-20
1e-20
1e-20
1e-20
1e-20
1e-20
1e-20
1e-20
1e-20
1e-20
1e-20
1e-20
1e-20
1e-20
1.98292e-20
9.64106e-20
5.51968e-19
3.49842e-18
2.46963e-17
1.96116e-16
1.77213e-15
1.84521e-14
2.24318e-13
3.22801e-12
5.57859e-11
1.17222e-09
3.02437e-08
9.66015e-07
3.82472e-05
0.00170623
0.0402301
0.135884
0.149569
0.143481
0.132614
0.121116
0.110343
0.10069
0.0921925
0.0847551
0.078244
0.0725254
0.0674787
0.0630006
0.0590044
0.0554179
0.0521815
0.0492458
0.0465695
0.0441185
0.041864
0.0397818
0.0378514
0.0360553
0.0343785
0.0328084
0.0313338
0.0299451
0.0286341
0.0273933
0.0262164
0.0250978
0.0240326
0.0230162
0.022045
0.0211153
0.0202241
0.0193687
0.0185465
0.0177555
0.0169936
0.016259
0.0155502
0.0148657
0.0142043
0.0135649
0.0129463
0.0123477
0.0117683
0.0112073
0.0106641
0.0101381
0.00962885
0.00913088
0.00863953
0.00815525
0.00767854
0.00720997
0.00675018
0.00629988
0.00585984
0.00543091
0.005014
0.0046101
0.00422025
0.00384556
0.00348713
0.00314613
0.00282367
0.00252083
0.00223857
0.00197774
0.00173893
0.00152251
0.00132849
0.00115654
0.00100592
0.000875526
0.000763914
0.000669377
0.000590038
0.000523952
0.000469199
0.000423957
0.000386558
0.000355507
0.000329496
0.00030739
0.000288218
0.000271152
0.000255494
0.000240658
0.000226162
0.000211618
0.000196723
0.000181259
0.000165088
0.000148152
0.000130473
0.000112166
9.3436e-05
7.46029e-05
5.61176e-05
3.85969e-05
2.28724e-05
1.00827e-05
2.1302e-06
1.23589e-07
2.65394e-09
4.73813e-11
7.93193e-13
1.24974e-14
1.8546e-16
2.60055e-18
4.21475e-20
1e-20
1e-20
1e-20
1e-20
1e-20
1e-20
1e-20
1e-20
1e-20
1e-20
1e-20
1e-20
1e-20
1e-20
1e-20
1e-20
1e-20
1e-20
1e-20
1e-20
1e-20
1e-20
1e-20
1e-20
1e-20
1e-20
1e-20
1e-20
1e-20
1e-20
1e-20
1e-20
1e-20
1e-20
1e-20
1e-20
1e-20
1e-20
1e-20
1e-20
1e-20
1e-20
1e-20
1e-20
1e-20
1e-20
1e-20
1e-20
1e-20
1e-20
1e-20
1e-20
1e-20
1e-20
1e-20
1e-20
1e-20
1e-20
1e-20
1e-20
1e-20
1e-20
1e-20
1e-20
1e-20
1e-20
1e-20
1e-20
1e-20
1e-20
1e-20
1e-20
1e-20
1e-20
1e-20
1e-20
1e-20
1e-20
1e-20
1e-20
1e-20
1e-20
1e-20
1e-20
1e-20
1e-20
1e-20
1e-20
1e-20
1e-20
1e-20
1e-20
1e-20
1e-20
1e-20
1e-20
1e-20
)
;

boundaryField
{
    inandouthalf11
    {
        type            cyclic;
    }
    inandouthalf12
    {
        type            cyclic;
    }
    inandouthalf21
    {
        type            cyclic;
    }
    inandouthalf22
    {
        type            cyclic;
    }
    inandouthalf31
    {
        type            cyclic;
    }
    inandouthalf32
    {
        type            cyclic;
    }
    inandouthalf41
    {
        type            cyclic;
    }
    inandouthalf42
    {
        type            cyclic;
    }
    top
    {
        type            symmetryPlane;
    }
    walls
    {
        type            zeroGradient;
    }
    frontAndBackPlanes
    {
        type            empty;
    }
}


// ************************************************************************* //
