/*--------------------------------*- C++ -*----------------------------------*\
| =========                 |                                                 |
| \\      /  F ield         | OpenFOAM: The Open Source CFD Toolbox           |
|  \\    /   O peration     | Version:  2.4.x                                 |
|   \\  /    A nd           | Web:      www.OpenFOAM.org                      |
|    \\/     M anipulation  |                                                 |
\*---------------------------------------------------------------------------*/
FoamFile
{
    version     2.0;
    format      ascii;
    class       volVectorField;
    location    "6.05";
    object      gradPf;
}
// * * * * * * * * * * * * * * * * * * * * * * * * * * * * * * * * * * * * * //

dimensions      [0 1 -2 0 0 0 0];

internalField   nonuniform List<vector> 
360
(
(0 57.238 0)
(0 67.4765 0)
(0 3.84672 0)
(0 -10.6476 0)
(-3.34572e-14 -5.92207 0)
(-3.34583e-14 -3.38598 0)
(-3.34594e-14 -3.56531 0)
(0 -3.86321 0)
(-1.6731e-14 -3.94758 0)
(0 -4.02921 0)
(-3.34646e-14 -4.04155 0)
(0 -4.01973 0)
(-3.34673e-14 -4.00487 0)
(0 -3.99303 0)
(0 -4.00493 0)
(0 -4.02278 0)
(0 -4.02796 0)
(-3.34742e-14 -4.02453 0)
(0 -4.0406 0)
(0 -4.03548 0)
(0 -4.03197 0)
(-3.348e-14 -4.05004 0)
(0 -4.04841 0)
(0 -4.05225 0)
(0 -4.05514 0)
(-3.3486e-14 -4.04657 0)
(0 -4.05515 0)
(0 -4.06488 0)
(0 -4.0543 0)
(0 -4.04988 0)
(0 -4.06895 0)
(0 -4.05401 0)
(0 -4.07057 0)
(0 -4.0893 0)
(0 -4.0816 0)
(1.6751e-14 -4.09599 0)
(0 -4.10684 0)
(0 -4.14543 0)
(0 -4.11828 0)
(0 -4.12335 0)
(0 -4.14511 0)
(0 -4.08086 0)
(3.35143e-14 -4.07213 0)
(0 -4.04883 0)
(0 -3.98805 0)
(0 -3.96443 0)
(0 -3.89634 0)
(0 -3.86575 0)
(0 -3.92022 0)
(0 -3.92186 0)
(1.67644e-14 -3.96294 0)
(0 -4.07927 0)
(0 -4.23066 0)
(0 -4.42631 0)
(0 -4.70917 0)
(0 -5.01372 0)
(0 -5.28063 0)
(0 -5.42765 0)
(0 -5.2429 0)
(0 -4.81277 0)
(0 -4.16942 0)
(0 -3.53756 0)
(0 -3.12186 0)
(0 -2.89751 0)
(0 -2.83607 0)
(0 -2.85888 0)
(0 -2.92757 0)
(0 -2.99496 0)
(0 -3.05751 0)
(0 -3.16093 0)
(0 -3.2787 0)
(0 -3.32317 0)
(0 -3.38578 0)
(0 -3.45947 0)
(0 -3.50599 0)
(0 -3.53679 0)
(0 -3.55288 0)
(0 -3.59398 0)
(0 -3.63678 0)
(0 -3.67335 0)
(0 -3.71824 0)
(0 -3.77421 0)
(0 -3.82219 0)
(0 -3.86626 0)
(0 -3.90474 0)
(0 -3.93757 0)
(0 -3.96358 0)
(0 -3.98304 0)
(0 -4.00458 0)
(0 -4.02673 0)
(0 -4.04847 0)
(0 -4.07327 0)
(0 -4.09983 0)
(0 -4.12495 0)
(0 -4.14882 0)
(0 -4.17092 0)
(0 -4.19072 0)
(0 -4.20857 0)
(0 -4.22526 0)
(0 -4.24104 0)
(0 -4.25607 0)
(0 -4.2707 0)
(0 -4.2848 0)
(0 -4.2981 0)
(0 -4.31061 0)
(0 -4.32234 0)
(0 -4.33327 0)
(0 -4.34348 0)
(0 -4.35297 0)
(0 -4.36171 0)
(0 -4.36963 0)
(0 -4.37664 0)
(0 -4.38264 0)
(0 -4.38751 0)
(0 -4.39114 0)
(0 -4.3934 0)
(0 -4.39419 0)
(0 -4.39341 0)
(0 -4.39095 0)
(0 -4.38671 0)
(0 -4.3805 0)
(0 -4.37211 0)
(0 -4.36128 0)
(0 -4.34799 0)
(0 -4.33268 0)
(0 -4.31649 0)
(0 -4.30099 0)
(0 -4.28714 0)
(0 -4.27367 0)
(0 -4.25663 0)
(0 -4.23315 0)
(0 -4.20975 0)
(0 -4.20448 0)
(0 -4.22495 0)
(0 -4.24179 0)
(0 -4.22039 0)
(0 -4.19462 0)
(0 -4.26924 0)
(0 -4.48661 0)
(0 -4.61543 0)
(0 -4.31993 0)
(0 -4.22388 0)
(0 -4.76984 0)
(0 -5.32762 0)
(0 -6.82728 0)
(0 -11.5869 0)
(0 -10.96 0)
(0 -5.37462 0)
(0 -3.1955 0)
(0 0 0)
(0 0 0)
(0 0 0)
(0 0 0)
(0 0 0)
(0 0 0)
(0 0 0)
(0 0 0)
(0 0 0)
(0 0 0)
(0 0 0)
(0 0 0)
(0 0 0)
(0 0 0)
(0 0 0)
(0 0 0)
(0 0 0)
(0 0 0)
(0 0 0)
(0 0 0)
(0 0 0)
(0 0 0)
(0 0 0)
(0 0 0)
(0 0 0)
(0 0 0)
(0 0 0)
(0 0 0)
(0 0 0)
(0 0 0)
(0 0 0)
(0 0 0)
(0 0 0)
(0 0 0)
(0 0 0)
(0 0 0)
(0 0 0)
(0 0 0)
(0 0 0)
(0 0 0)
(0 0 0)
(0 0 0)
(0 0 0)
(0 0 0)
(0 0 0)
(0 0 0)
(0 0 0)
(0 0 0)
(0 0 0)
(0 0 0)
(0 0 0)
(0 0 0)
(0 0 0)
(0 0 0)
(0 0 0)
(0 0 0)
(0 0 0)
(0 0 0)
(0 0 0)
(0 0 0)
(0 0 0)
(0 0 0)
(0 0 0)
(0 0 0)
(0 0 0)
(0 0 0)
(0 0 0)
(0 0 0)
(0 0 0)
(0 0 0)
(0 0 0)
(0 0 0)
(0 0 0)
(0 0 0)
(0 0 0)
(0 0 0)
(0 0 0)
(0 0 0)
(0 0 0)
(0 0 0)
(0 0 0)
(0 0 0)
(0 0 0)
(0 0 0)
(0 0 0)
(0 0 0)
(0 0 0)
(0 0 0)
(0 0 0)
(0 0 0)
(0 0 0)
(0 0 0)
(0 0 0)
(0 0 0)
(0 0 0)
(0 0 0)
(0 0 0)
(0 0 0)
(0 0 0)
(0 0 0)
(0 0 0)
(0 0 0)
(0 0 0)
(0 0 0)
(0 0 0)
(0 0 0)
(0 0 0)
(0 0 0)
(0 0 0)
(0 0 0)
(0 0 0)
(0 0 0)
(0 0 0)
(0 0 0)
(0 0 0)
(0 0 0)
(0 0 0)
(0 0 0)
(0 0 0)
(0 0 0)
(0 0 0)
(0 0 0)
(0 0 0)
(0 0 0)
(0 0 0)
(0 0 0)
(0 0 0)
(0 0 0)
(0 0 0)
(0 0 0)
(0 0 0)
(0 0 0)
(0 0 0)
(0 0 0)
(0 0 0)
(0 0 0)
(0 0 0)
(0 0 0)
(0 0 0)
(0 0 0)
(0 0 0)
(0 0 0)
(0 0 0)
(0 0 0)
(0 0 0)
(0 0 0)
(0 0 0)
(0 0 0)
(0 0 0)
(0 0 0)
(0 0 0)
(0 0 0)
(0 0 0)
(0 0 0)
(0 0 0)
(0 0 0)
(0 0 0)
(0 0 0)
(0 0 0)
(0 0 0)
(0 0 0)
(0 0 0)
(0 0 0)
(0 0 0)
(0 0 0)
(0 0 0)
(0 0 0)
(0 0 0)
(0 0 0)
(0 0 0)
(0 0 0)
(0 0 0)
(0 0 0)
(0 0 0)
(0 0 0)
(0 0 0)
(0 0 0)
(0 0 0)
(0 0 0)
(0 0 0)
(0 0 0)
(0 0 0)
(0 0 0)
(0 0 0)
(0 0 0)
(0 0 0)
(0 0 0)
(0 0 0)
(0 0 0)
(0 0 0)
(0 0 0)
(0 0 0)
(0 0 0)
(0 0 0)
(0 0 0)
(0 0 0)
(0 0 0)
(0 0 0)
(0 0 0)
(0 0 0)
(0 0 0)
(0 0 0)
(0 0 0)
(0 0 0)
(0 0 0)
(0 0 0)
(0 0 0)
(0 0 0)
(0 0 0)
(0 0 0)
(0 0 0)
)
;

boundaryField
{
    inandouthalf11
    {
        type            cyclic;
    }
    inandouthalf12
    {
        type            cyclic;
    }
    inandouthalf21
    {
        type            cyclic;
    }
    inandouthalf22
    {
        type            cyclic;
    }
    inandouthalf31
    {
        type            cyclic;
    }
    inandouthalf32
    {
        type            cyclic;
    }
    inandouthalf41
    {
        type            cyclic;
    }
    inandouthalf42
    {
        type            cyclic;
    }
    top
    {
        type            symmetryPlane;
    }
    walls
    {
        type            calculated;
        value           uniform (0 0 0);
    }
    frontAndBackPlanes
    {
        type            empty;
    }
}


// ************************************************************************* //
