/*--------------------------------*- C++ -*----------------------------------*\
| =========                 |                                                 |
| \\      /  F ield         | OpenFOAM: The Open Source CFD Toolbox           |
|  \\    /   O peration     | Version:  2.4.x                                 |
|   \\  /    A nd           | Web:      www.OpenFOAM.org                      |
|    \\/     M anipulation  |                                                 |
\*---------------------------------------------------------------------------*/
FoamFile
{
    version     2.0;
    format      ascii;
    class       volScalarField;
    location    "6.05";
    object      nutb;
}
// * * * * * * * * * * * * * * * * * * * * * * * * * * * * * * * * * * * * * //

dimensions      [0 2 -1 0 0 0 0];

internalField   nonuniform List<scalar> 
360
(
9e-22
9e-22
9e-22
9e-22
9e-22
9e-22
9e-22
9e-22
9e-22
9e-22
9e-22
9e-22
9e-22
9e-22
9e-22
9e-22
9e-22
9e-22
9e-22
9e-22
9e-22
9e-22
9e-22
9e-22
9e-22
9e-22
9e-22
9e-22
9e-22
9e-22
9e-22
9e-22
9e-22
9e-22
9e-22
9e-22
9e-22
9e-22
9e-22
9e-22
9e-22
9e-22
9e-22
9e-22
9e-22
9e-22
9e-22
9e-22
9e-22
9e-22
9e-22
9e-22
9e-22
9e-22
9e-22
9e-22
9e-22
9e-22
9e-22
9e-22
9e-22
9e-22
9e-22
9e-22
9e-22
9e-22
9e-22
9e-22
9e-22
9e-22
9e-22
9e-22
9e-22
9e-22
9e-22
9e-22
9e-22
9e-22
9e-22
9e-22
9e-22
9e-22
9e-22
9e-22
9e-22
9e-22
9e-22
9e-22
9e-22
9e-22
9e-22
9e-22
9e-22
9e-22
9e-22
9e-22
9e-22
9e-22
9e-22
9e-22
9e-22
9e-22
9e-22
9e-22
9e-22
9e-22
9e-22
9e-22
9e-22
9e-22
9e-22
9e-22
9e-22
9e-22
9e-22
9e-22
9e-22
9e-22
9e-22
9e-22
9e-22
9e-22
9e-22
9e-22
9e-22
9e-22
9e-22
9e-22
9e-22
9e-22
9e-22
9e-22
1.01579e-21
3.65866e-21
1.61383e-20
7.72779e-20
4.02606e-19
2.30367e-18
1.46567e-17
1.05154e-16
8.6202e-16
8.18203e-15
9.15889e-14
1.22975e-12
2.00372e-11
4.00937e-10
9.93298e-09
2.61877e-07
3.88183e-06
1.22143e-05
1.96061e-05
2.63843e-05
3.30259e-05
3.97274e-05
4.6557e-05
5.35067e-05
6.05301e-05
6.75673e-05
7.45589e-05
8.1453e-05
8.82062e-05
9.47844e-05
0.000101161
0.000107316
0.000113235
0.000118907
0.000124326
0.000129485
0.000134383
0.000139019
0.000143394
0.000147507
0.000151362
0.000154962
0.000158309
0.000161407
0.00016426
0.000166872
0.000169248
0.000171392
0.000173309
0.000175003
0.00017648
0.000177743
0.000178799
0.000179651
0.000180305
0.000180766
0.000181039
0.000181128
0.00018104
0.000180779
0.00018035
0.000179759
0.000179011
0.000178112
0.000177067
0.000175881
0.000174561
0.000173113
0.000171542
0.000169838
0.000167984
0.000165979
0.000163824
0.000161521
0.000159071
0.000156479
0.00015375
0.000150892
0.000147913
0.000144826
0.000141645
0.000138389
0.000135077
0.000131737
0.000128397
0.00012509
0.000121853
0.000118727
0.000115753
0.000112972
0.000110422
0.000108131
0.00010612
0.000104391
0.000102926
0.00010169
0.000100628
9.96694e-05
9.874e-05
9.77642e-05
9.66752e-05
9.54189e-05
9.39561e-05
9.22616e-05
9.03214e-05
8.81289e-05
8.56817e-05
8.29775e-05
8.00123e-05
7.67796e-05
7.32694e-05
6.9469e-05
6.5363e-05
6.09344e-05
5.61652e-05
5.10372e-05
4.55327e-05
3.96353e-05
3.33307e-05
2.66074e-05
1.94581e-05
1.19048e-05
4.03736e-06
3.37146e-07
7.66443e-09
1.35337e-10
2.23757e-12
3.4833e-14
5.10964e-16
7.05395e-18
8.09764e-20
1.13544e-21
9e-22
9e-22
9e-22
9e-22
9e-22
9e-22
9e-22
9e-22
9e-22
9e-22
9e-22
9e-22
9e-22
9e-22
9e-22
9e-22
9e-22
9e-22
9e-22
9e-22
9e-22
9e-22
9e-22
9e-22
9e-22
9e-22
9e-22
9e-22
9e-22
9e-22
9e-22
9e-22
9e-22
9e-22
9e-22
9e-22
9e-22
9e-22
9e-22
9e-22
9e-22
9e-22
9e-22
9e-22
9e-22
9e-22
9e-22
9e-22
9e-22
9e-22
9e-22
9e-22
9e-22
9e-22
9e-22
9e-22
9e-22
9e-22
9e-22
9e-22
9e-22
9e-22
9e-22
9e-22
9e-22
9e-22
9e-22
9e-22
9e-22
9e-22
9e-22
9e-22
9e-22
9e-22
9e-22
9e-22
9e-22
9e-22
9e-22
9e-22
9e-22
9e-22
9e-22
9e-22
9e-22
9e-22
9e-22
9e-22
9e-22
9e-22
9e-22
9e-22
9e-22
9e-22
9e-22
9e-22
)
;

boundaryField
{
    inandouthalf11
    {
        type            cyclic;
    }
    inandouthalf12
    {
        type            cyclic;
    }
    inandouthalf21
    {
        type            cyclic;
    }
    inandouthalf22
    {
        type            cyclic;
    }
    inandouthalf31
    {
        type            cyclic;
    }
    inandouthalf32
    {
        type            cyclic;
    }
    inandouthalf41
    {
        type            cyclic;
    }
    inandouthalf42
    {
        type            cyclic;
    }
    top
    {
        type            symmetryPlane;
    }
    walls
    {
        type            calculated;
        value           uniform 0;
    }
    frontAndBackPlanes
    {
        type            empty;
    }
}


// ************************************************************************* //
