/*--------------------------------*- C++ -*----------------------------------*\
| =========                 |                                                 |
| \\      /  F ield         | OpenFOAM: The Open Source CFD Toolbox           |
|  \\    /   O peration     | Version:  2.4.x                                 |
|   \\  /    A nd           | Web:      www.OpenFOAM.org                      |
|    \\/     M anipulation  |                                                 |
\*---------------------------------------------------------------------------*/
FoamFile
{
    version     2.0;
    format      ascii;
    class       volTensorField;
    location    "6.05";
    object      Tauf;
}
// * * * * * * * * * * * * * * * * * * * * * * * * * * * * * * * * * * * * * //

dimensions      [0 2 -2 0 0 0 0];

internalField   nonuniform List<tensor> 
360
(
(0 3.1956e-08 0 3.1956e-08 6.97516e-10 0 0 0 0)
(0 -1.46424e-10 0 -1.46424e-10 8.76663e-10 0 0 0 0)
(0 -6.33667e-11 0 -6.33667e-11 9.1433e-10 0 0 0 0)
(0 -3.75058e-11 0 -3.75058e-11 8.63004e-10 0 0 0 0)
(-3.23117e-24 -4.57092e-11 0 -4.57092e-11 8.60599e-10 0 0 0 0)
(-3.23117e-24 -5.15353e-11 0 -5.15353e-11 8.77812e-10 0 0 0 0)
(-3.23117e-24 -5.24025e-11 0 -5.24025e-11 8.89834e-10 0 0 0 0)
(0 -5.26313e-11 0 -5.26313e-11 8.95275e-10 0 0 0 0)
(-3.23117e-24 -5.3131e-11 0 -5.3131e-11 8.98863e-10 0 0 0 0)
(0 -5.37141e-11 0 -5.37141e-11 9.03407e-10 0 0 0 0)
(-3.23117e-24 -5.45025e-11 0 -5.45025e-11 9.09244e-10 0 0 0 0)
(0 -5.53937e-11 0 -5.53937e-11 9.15624e-10 0 0 0 0)
(-3.23117e-24 -5.62751e-11 0 -5.62751e-11 9.21911e-10 0 0 0 0)
(0 -5.71356e-11 0 -5.71356e-11 9.27838e-10 0 0 0 0)
(0 -5.79502e-11 0 -5.79502e-11 9.33536e-10 0 0 0 0)
(0 -5.87662e-11 0 -5.87662e-11 9.39262e-10 0 0 0 0)
(0 -5.96223e-11 0 -5.96223e-11 9.45108e-10 0 0 0 0)
(-3.23117e-24 -6.05091e-11 0 -6.05091e-11 9.51009e-10 0 0 0 0)
(0 -6.13756e-11 0 -6.13756e-11 9.5697e-10 0 0 0 0)
(0 -6.22883e-11 0 -6.22883e-11 9.62903e-10 0 0 0 0)
(0 -6.3202e-11 0 -6.3202e-11 9.6872e-10 0 0 0 0)
(-3.23117e-24 -6.40852e-11 0 -6.40852e-11 9.74502e-10 0 0 0 0)
(0 -6.50104e-11 0 -6.50104e-11 9.80209e-10 0 0 0 0)
(0 -6.59265e-11 0 -6.59265e-11 9.85759e-10 0 0 0 0)
(0 -6.68394e-11 0 -6.68394e-11 9.911e-10 0 0 0 0)
(-3.23117e-24 -6.77652e-11 0 -6.77652e-11 9.96158e-10 0 0 0 0)
(0 -6.86572e-11 0 -6.86572e-11 1.00103e-09 0 0 0 0)
(0 -6.95556e-11 0 -6.95556e-11 1.00587e-09 0 0 0 0)
(0 -7.05055e-11 0 -7.05055e-11 1.01072e-09 0 0 0 0)
(0 -7.1469e-11 0 -7.1469e-11 1.01569e-09 0 0 0 0)
(0 -7.24391e-11 0 -7.24391e-11 1.02122e-09 0 0 0 0)
(0 -7.35528e-11 0 -7.35528e-11 1.02748e-09 0 0 0 0)
(0 -7.47087e-11 0 -7.47087e-11 1.03486e-09 0 0 0 0)
(0 -7.59896e-11 0 -7.59896e-11 1.04363e-09 0 0 0 0)
(0 -7.74498e-11 0 -7.74498e-11 1.05368e-09 0 0 0 0)
(3.23117e-24 -7.898e-11 0 -7.898e-11 1.06486e-09 0 0 0 0)
(0 -8.0603e-11 0 -8.0603e-11 1.07671e-09 0 0 0 0)
(0 -8.21934e-11 0 -8.21934e-11 1.08861e-09 0 0 0 0)
(0 -8.38249e-11 0 -8.38249e-11 1.09894e-09 0 0 0 0)
(0 -8.51497e-11 0 -8.51497e-11 1.10614e-09 0 0 0 0)
(0 -8.6062e-11 0 -8.6062e-11 1.1088e-09 0 0 0 0)
(0 -8.66299e-11 0 -8.66299e-11 1.10503e-09 0 0 0 0)
(3.23117e-24 -8.64643e-11 0 -8.64643e-11 1.09426e-09 0 0 0 0)
(0 -8.57332e-11 0 -8.57332e-11 1.0768e-09 0 0 0 0)
(0 -8.45921e-11 0 -8.45921e-11 1.05388e-09 0 0 0 0)
(0 -8.31083e-11 0 -8.31083e-11 1.02843e-09 0 0 0 0)
(0 -8.1821e-11 0 -8.1821e-11 1.00428e-09 0 0 0 0)
(0 -8.10339e-11 0 -8.10339e-11 9.86758e-10 0 0 0 0)
(0 -8.12465e-11 0 -8.12465e-11 9.82653e-10 0 0 0 0)
(0 -8.34356e-11 0 -8.34356e-11 9.98604e-10 0 0 0 0)
(1.61559e-24 -8.81437e-11 0 -8.81437e-11 1.04254e-09 0 0 0 0)
(0 -9.62538e-11 0 -9.62538e-11 1.12428e-09 0 0 0 0)
(0 -1.09039e-10 0 -1.09039e-10 1.25531e-09 0 0 0 0)
(0 -1.27737e-10 0 -1.27737e-10 1.44688e-09 0 0 0 0)
(0 -1.53068e-10 0 -1.53068e-10 1.70439e-09 0 0 0 0)
(0 -1.84196e-10 0 -1.84196e-10 2.01222e-09 0 0 0 0)
(0 -2.16002e-10 0 -2.16002e-10 2.31238e-09 0 0 0 0)
(0 -2.3717e-10 0 -2.3717e-10 2.49432e-09 0 0 0 0)
(0 -2.33124e-10 0 -2.33124e-10 2.42762e-09 0 0 0 0)
(0 -1.95602e-10 0 -1.95602e-10 2.0551e-09 0 0 0 0)
(0 -1.34393e-10 0 -1.34393e-10 1.46763e-09 0 0 0 0)
(0 -7.24671e-11 0 -7.24671e-11 8.63926e-10 0 0 0 0)
(0 -2.83545e-11 0 -2.83545e-11 4.1245e-10 0 0 0 0)
(0 -5.30048e-12 0 -5.30048e-12 1.56994e-10 0 0 0 0)
(0 3.96835e-12 0 3.96835e-12 4.50158e-11 0 0 0 0)
(0 7.04511e-12 0 7.04511e-12 5.91679e-12 0 0 0 0)
(0 8.08355e-12 0 8.08355e-12 -5.41339e-12 0 0 0 0)
(0 8.53461e-12 0 8.53461e-12 -8.43924e-12 0 0 0 0)
(0 8.83898e-12 0 8.83898e-12 -9.45053e-12 0 0 0 0)
(0 9.23968e-12 0 9.23968e-12 -9.94689e-12 0 0 0 0)
(0 9.68561e-12 0 9.68561e-12 -1.02443e-11 0 0 0 0)
(0 9.92303e-12 0 9.92303e-12 -1.07211e-11 0 0 0 0)
(0 1.0223e-11 0 1.0223e-11 -1.10232e-11 0 0 0 0)
(0 1.05636e-11 0 1.05636e-11 -1.12935e-11 0 0 0 0)
(0 1.08316e-11 0 1.08316e-11 -1.16004e-11 0 0 0 0)
(0 1.10568e-11 0 1.10568e-11 -1.18394e-11 0 0 0 0)
(0 1.12429e-11 0 1.12429e-11 -1.21329e-11 0 0 0 0)
(0 1.15141e-11 0 1.15141e-11 -1.236e-11 0 0 0 0)
(0 1.17992e-11 0 1.17992e-11 -1.26382e-11 0 0 0 0)
(0 1.20725e-11 0 1.20725e-11 -1.29629e-11 0 0 0 0)
(0 1.23827e-11 0 1.23827e-11 -1.32958e-11 0 0 0 0)
(0 1.27402e-11 0 1.27402e-11 -1.36202e-11 0 0 0 0)
(0 1.30826e-11 0 1.30826e-11 -1.39888e-11 0 0 0 0)
(0 1.34232e-11 0 1.34232e-11 -1.43389e-11 0 0 0 0)
(0 1.37557e-11 0 1.37557e-11 -1.46844e-11 0 0 0 0)
(0 1.40797e-11 0 1.40797e-11 -1.50163e-11 0 0 0 0)
(0 1.43899e-11 0 1.43899e-11 -1.53374e-11 0 0 0 0)
(0 1.46867e-11 0 1.46867e-11 -1.56685e-11 0 0 0 0)
(0 1.50016e-11 0 1.50016e-11 -1.59892e-11 0 0 0 0)
(0 1.53299e-11 0 1.53299e-11 -1.6325e-11 0 0 0 0)
(0 1.56684e-11 0 1.56684e-11 -1.66848e-11 0 0 0 0)
(0 1.60316e-11 0 1.60316e-11 -1.70556e-11 0 0 0 0)
(0 1.64155e-11 0 1.64155e-11 -1.74414e-11 0 0 0 0)
(0 1.68084e-11 0 1.68084e-11 -1.78462e-11 0 0 0 0)
(0 1.72115e-11 0 1.72115e-11 -1.82586e-11 0 0 0 0)
(0 1.76231e-11 0 1.76231e-11 -1.86789e-11 0 0 0 0)
(0 1.80414e-11 0 1.80414e-11 -1.91081e-11 0 0 0 0)
(0 1.84681e-11 0 1.84681e-11 -1.95468e-11 0 0 0 0)
(0 1.89071e-11 0 1.89071e-11 -1.99959e-11 0 0 0 0)
(0 1.93604e-11 0 1.93604e-11 -2.04585e-11 0 0 0 0)
(0 1.98295e-11 0 1.98295e-11 -2.09374e-11 0 0 0 0)
(0 2.03169e-11 0 2.03169e-11 -2.14326e-11 0 0 0 0)
(0 2.08232e-11 0 2.08232e-11 -2.19458e-11 0 0 0 0)
(0 2.13483e-11 0 2.13483e-11 -2.24784e-11 0 0 0 0)
(0 2.18934e-11 0 2.18934e-11 -2.30304e-11 0 0 0 0)
(0 2.24598e-11 0 2.24598e-11 -2.36031e-11 0 0 0 0)
(0 2.30488e-11 0 2.30488e-11 -2.41982e-11 0 0 0 0)
(0 2.36624e-11 0 2.36624e-11 -2.4817e-11 0 0 0 0)
(0 2.43022e-11 0 2.43022e-11 -2.54611e-11 0 0 0 0)
(0 2.497e-11 0 2.497e-11 -2.61323e-11 0 0 0 0)
(0 2.56673e-11 0 2.56673e-11 -2.68319e-11 0 0 0 0)
(0 2.63958e-11 0 2.63958e-11 -2.75616e-11 0 0 0 0)
(0 2.7157e-11 0 2.7157e-11 -2.83228e-11 0 0 0 0)
(0 2.79528e-11 0 2.79528e-11 -2.9117e-11 0 0 0 0)
(0 2.87849e-11 0 2.87849e-11 -2.99461e-11 0 0 0 0)
(0 2.96553e-11 0 2.96553e-11 -3.08118e-11 0 0 0 0)
(0 3.05663e-11 0 3.05663e-11 -3.17162e-11 0 0 0 0)
(0 3.15202e-11 0 3.15202e-11 -3.26614e-11 0 0 0 0)
(0 3.252e-11 0 3.252e-11 -3.36498e-11 0 0 0 0)
(0 3.35683e-11 0 3.35683e-11 -3.46836e-11 0 0 0 0)
(0 3.46678e-11 0 3.46678e-11 -3.57652e-11 0 0 0 0)
(0 3.58208e-11 0 3.58208e-11 -3.68967e-11 0 0 0 0)
(0 3.70298e-11 0 3.70298e-11 -3.80815e-11 0 0 0 0)
(0 3.82991e-11 0 3.82991e-11 -3.93259e-11 0 0 0 0)
(0 3.9638e-11 0 3.9638e-11 -4.06412e-11 0 0 0 0)
(0 4.10643e-11 0 4.10643e-11 -4.20441e-11 0 0 0 0)
(0 4.26028e-11 0 4.26028e-11 -4.35519e-11 0 0 0 0)
(0 4.42767e-11 0 4.42767e-11 -4.5173e-11 0 0 0 0)
(0 4.60887e-11 0 4.60887e-11 -4.69008e-11 0 0 0 0)
(0 4.80104e-11 0 4.80104e-11 -4.8733e-11 0 0 0 0)
(0 5.0019e-11 0 5.0019e-11 -5.07274e-11 0 0 0 0)
(0 5.2206e-11 0 5.2206e-11 -5.30201e-11 0 0 0 0)
(0 5.4839e-11 0 5.4839e-11 -5.56819e-11 0 0 0 0)
(0 5.81033e-11 0 5.81033e-11 -5.85767e-11 0 0 0 0)
(0 6.16777e-11 0 6.16777e-11 -6.16324e-11 0 0 0 0)
(0 6.50706e-11 0 6.50706e-11 -6.52372e-11 0 0 0 0)
(0 6.88035e-11 0 6.88035e-11 -7.02209e-11 0 0 0 0)
(0 7.48481e-11 0 7.48481e-11 -7.70409e-11 0 0 0 0)
(0 8.46408e-11 0 8.46408e-11 -8.35643e-11 0 0 0 0)
(0 9.42973e-11 0 9.42973e-11 -8.69338e-11 0 0 0 0)
(0 9.58872e-11 0 9.58872e-11 -9.81005e-11 0 0 0 0)
(0 1.02986e-10 0 1.02986e-10 -1.14414e-10 0 0 0 0)
(0 1.29211e-10 0 1.29211e-10 -1.31296e-10 0 0 0 0)
(0 1.64021e-10 0 1.64021e-10 -1.98376e-10 0 0 0 0)
(0 2.5752e-10 0 2.5752e-10 -4.87944e-10 0 0 0 0)
(0 5.1124e-10 0 5.1124e-10 -1.35652e-10 0 0 0 0)
(0 -1.80261e-07 0 -1.80261e-07 -1.04746e-08 0 0 0 0)
(0 -6.08941e-05 0 -6.08941e-05 9.94128e-08 0 0 0 0)
(0 -0.000728663 0 -0.000728663 1.06122e-06 0 0 0 0)
(0 -0.00233226 0 -0.00233226 1.06477e-06 0 0 0 0)
(0 -0.00275877 0 -0.00275877 -1.26567e-06 0 0 0 0)
(0 -0.00290081 0 -0.00290081 -9.87091e-07 0 0 0 0)
(0 -0.00294788 0 -0.00294788 -1.55041e-06 0 0 0 0)
(0 -0.00295307 0 -0.00295307 -1.85384e-06 0 0 0 0)
(0 -0.00294128 0 -0.00294128 -1.96946e-06 0 0 0 0)
(0 -0.00292318 0 -0.00292318 -1.96156e-06 0 0 0 0)
(0 -0.00290304 0 -0.00290304 -1.8742e-06 0 0 0 0)
(0 -0.00288231 0 -0.00288231 -1.73933e-06 0 0 0 0)
(0 -0.00286132 0 -0.00286132 -1.58129e-06 0 0 0 0)
(0 -0.00284 0 -0.00284 -1.41681e-06 0 0 0 0)
(0 -0.00281817 0 -0.00281817 -1.25614e-06 0 0 0 0)
(0 -0.00279568 0 -0.00279568 -1.10497e-06 0 0 0 0)
(0 -0.0027724 0 -0.0027724 -9.6608e-07 0 0 0 0)
(0 -0.00274823 0 -0.00274823 -8.40457e-07 0 0 0 0)
(0 -0.00272314 0 -0.00272314 -7.28066e-07 0 0 0 0)
(0 -0.0026971 0 -0.0026971 -6.28286e-07 0 0 0 0)
(0 -0.0026701 0 -0.0026701 -5.40199e-07 0 0 0 0)
(0 -0.00264217 0 -0.00264217 -4.62765e-07 0 0 0 0)
(0 -0.00261331 0 -0.00261331 -3.94921e-07 0 0 0 0)
(0 -0.00258355 0 -0.00258355 -3.35639e-07 0 0 0 0)
(0 -0.00255292 0 -0.00255292 -2.83958e-07 0 0 0 0)
(0 -0.00252144 0 -0.00252144 -2.38995e-07 0 0 0 0)
(0 -0.00248915 0 -0.00248915 -1.99952e-07 0 0 0 0)
(0 -0.00245608 0 -0.00245608 -1.66112e-07 0 0 0 0)
(0 -0.00242224 0 -0.00242224 -1.36838e-07 0 0 0 0)
(0 -0.00238768 0 -0.00238768 -1.11562e-07 0 0 0 0)
(0 -0.00235242 0 -0.00235242 -8.9783e-08 0 0 0 0)
(0 -0.00231648 0 -0.00231648 -7.10572e-08 0 0 0 0)
(0 -0.0022799 0 -0.0022799 -5.4994e-08 0 0 0 0)
(0 -0.00224269 0 -0.00224269 -4.12494e-08 0 0 0 0)
(0 -0.00220488 0 -0.00220488 -2.95212e-08 0 0 0 0)
(0 -0.00216649 0 -0.00216649 -1.95446e-08 0 0 0 0)
(0 -0.00212755 0 -0.00212755 -1.10878e-08 0 0 0 0)
(0 -0.00208808 0 -0.00208808 -3.94859e-09 0 0 0 0)
(0 -0.0020481 0 -0.0020481 2.04931e-09 0 0 0 0)
(0 -0.00200764 0 -0.00200764 7.06006e-09 0 0 0 0)
(0 -0.00196671 0 -0.00196671 1.12199e-08 0 0 0 0)
(0 -0.00192535 0 -0.00192535 1.46522e-08 0 0 0 0)
(0 -0.00188357 0 -0.00188357 1.74726e-08 0 0 0 0)
(0 -0.00184139 0 -0.00184139 1.97929e-08 0 0 0 0)
(0 -0.00179884 0 -0.00179884 2.17211e-08 0 0 0 0)
(0 -0.00175594 0 -0.00175594 2.33554e-08 0 0 0 0)
(0 -0.00171272 0 -0.00171272 2.47768e-08 0 0 0 0)
(0 -0.00166919 0 -0.00166919 2.6046e-08 0 0 0 0)
(0 -0.00162539 0 -0.00162539 2.71992e-08 0 0 0 0)
(0 -0.00158134 0 -0.00158134 2.82308e-08 0 0 0 0)
(0 -0.00153706 0 -0.00153706 2.90725e-08 0 0 0 0)
(0 -0.00149258 0 -0.00149258 2.96005e-08 0 0 0 0)
(0 -0.00144793 0 -0.00144793 2.97005e-08 0 0 0 0)
(0 -0.00140314 0 -0.00140314 2.93668e-08 0 0 0 0)
(0 -0.00135824 0 -0.00135824 2.87184e-08 0 0 0 0)
(0 -0.00131283 0 -0.00131283 2.78717e-08 0 0 0 0)
(3.43741e-17 -0.00126645 0 -0.00126645 2.68725e-08 0 0 0 0)
(0 -0.00121913 0 -0.00121913 2.57248e-08 0 0 0 0)
(0 -0.0011709 0 -0.0011709 2.43477e-08 0 0 0 0)
(-3.11254e-17 -0.0011218 0 -0.0011218 2.26147e-08 0 0 0 0)
(0 -0.00107186 0 -0.00107186 2.05202e-08 0 0 0 0)
(2.89718e-17 -0.00102114 0 -0.00102114 1.8188e-08 0 0 0 0)
(0 -0.000969717 0 -0.000969717 1.57594e-08 0 0 0 0)
(0 -0.000917673 0 -0.000917673 1.33703e-08 0 0 0 0)
(0 -0.000865111 0 -0.000865111 1.11439e-08 0 0 0 0)
(0 -0.000812148 0 -0.000812148 9.16223e-09 0 0 0 0)
(0 -0.000758923 0 -0.000758923 7.45471e-09 0 0 0 0)
(-2.2731e-17 -0.000705591 0 -0.000705591 6.00812e-09 0 0 0 0)
(0 -0.00065233 0 -0.00065233 4.80613e-09 0 0 0 0)
(0 -0.00059934 0 -0.00059934 3.83132e-09 0 0 0 0)
(0 -0.00054684 0 -0.00054684 3.04513e-09 0 0 0 0)
(0 -0.000495072 0 -0.000495072 2.4124e-09 0 0 0 0)
(0 -0.000444297 0 -0.000444297 1.91153e-09 0 0 0 0)
(1.73071e-17 -0.000394791 0 -0.000394791 1.51718e-09 0 0 0 0)
(0 -0.000346837 0 -0.000346837 1.20294e-09 0 0 0 0)
(1.58262e-17 -0.000300717 0 -0.000300717 9.52203e-10 0 0 0 0)
(0 -0.000256704 0 -0.000256704 7.55208e-10 0 0 0 0)
(1.4557e-17 -0.000215044 0 -0.000215044 6.00154e-10 0 0 0 0)
(0 -0.000175945 0 -0.000175945 4.76295e-10 0 0 0 0)
(0 -0.000139564 0 -0.000139564 3.78283e-10 0 0 0 0)
(0 -0.000106002 0 -0.000106002 3.01311e-10 0 0 0 0)
(0 -7.53017e-05 0 -7.53017e-05 2.40109e-10 0 0 0 0)
(-1.22603e-17 -4.74493e-05 0 -4.74493e-05 1.91133e-10 0 0 0 0)
(-1.19031e-17 -2.23873e-05 0 -2.23873e-05 1.52029e-10 0 0 0 0)
(0 -2.45727e-08 0 -2.45727e-08 1.20537e-10 0 0 0 0)
(0 1.97501e-05 0 1.97501e-05 9.46821e-11 0 0 0 0)
(0 3.70572e-05 0 3.70572e-05 7.39386e-11 0 0 0 0)
(0 5.20186e-05 0 5.20186e-05 5.86718e-11 0 0 0 0)
(0 6.47519e-05 0 6.47519e-05 3.98905e-11 0 0 0 0)
(0 7.53686e-05 0 7.53686e-05 2.22946e-11 0 0 0 0)
(0 8.39705e-05 0 8.39705e-05 3.81786e-11 0 0 0 0)
(0 9.06576e-05 0 9.06576e-05 4.34694e-11 0 0 0 0)
(0 9.55226e-05 0 9.55226e-05 1.32393e-11 0 0 0 0)
(0 9.86487e-05 0 9.86487e-05 4.55441e-12 0 0 0 0)
(0 0.00010012 0 0.00010012 2.42054e-12 0 0 0 0)
(0 0.000100017 0 0.000100017 -2.2897e-12 0 0 0 0)
(0 9.84197e-05 0 9.84197e-05 4.62972e-13 0 0 0 0)
(1.25781e-17 9.5408e-05 0 9.5408e-05 6.43796e-14 0 0 0 0)
(-1.16096e-17 9.10617e-05 0 9.10617e-05 -5.49892e-14 0 0 0 0)
(0 8.54636e-05 0 8.54636e-05 5.93502e-13 0 0 0 0)
(0 7.87021e-05 0 7.87021e-05 -1.60882e-12 0 0 0 0)
(8.57088e-18 7.08758e-05 0 7.08758e-05 2.77943e-12 0 0 0 0)
(0 6.20992e-05 0 6.20992e-05 -3.84364e-12 0 0 0 0)
(0 5.25124e-05 0 5.25124e-05 4.63215e-12 0 0 0 0)
(0 4.22966e-05 0 4.22966e-05 -4.96871e-12 0 0 0 0)
(0 3.16987e-05 0 3.16987e-05 4.78158e-12 0 0 0 0)
(0 2.1061e-05 0 2.1061e-05 -4.02157e-12 0 0 0 0)
(0 1.08479e-05 0 1.08479e-05 2.75452e-12 0 0 0 0)
(0 2.4194e-06 0 2.4194e-06 -1.11921e-12 0 0 0 0)
(0 1.71226e-07 0 1.71226e-07 3.00101e-13 0 0 0 0)
(0 8.97835e-09 0 8.97835e-09 -2.24069e-13 0 0 0 0)
(0 3.18711e-10 0 3.18711e-10 2.19267e-13 0 0 0 0)
(0 1.0323e-10 0 1.0323e-10 -2.15696e-13 0 0 0 0)
(0 7.70451e-11 0 7.70451e-11 2.12618e-13 0 0 0 0)
(0 5.90488e-11 0 5.90488e-11 -2.09401e-13 0 0 0 0)
(0 4.50651e-11 0 4.50651e-11 2.06608e-13 0 0 0 0)
(0 3.42145e-11 0 3.42145e-11 -2.03659e-13 0 0 0 0)
(0 2.58349e-11 0 2.58349e-11 2.01064e-13 0 0 0 0)
(0 1.93978e-11 0 1.93978e-11 -1.98322e-13 0 0 0 0)
(0 1.44801e-11 0 1.44801e-11 1.9585e-13 0 0 0 0)
(-1.12435e-19 1.07453e-11 0 1.07453e-11 -1.93257e-13 0 0 0 0)
(0 7.92599e-12 0 7.92599e-12 1.90866e-13 0 0 0 0)
(0 5.81006e-12 0 5.81006e-12 -1.88368e-13 0 0 0 0)
(0 4.23234e-12 0 4.23234e-12 1.86021e-13 0 0 0 0)
(0 3.06337e-12 0 3.06337e-12 -1.83575e-13 0 0 0 0)
(0 2.20276e-12 0 2.20276e-12 1.81247e-13 0 0 0 0)
(0 1.57318e-12 0 1.57318e-12 -1.78826e-13 0 0 0 0)
(0 1.11603e-12 0 1.11603e-12 1.76493e-13 0 0 0 0)
(0 7.86523e-13 0 7.86523e-13 -1.74075e-13 0 0 0 0)
(0 5.50028e-13 0 5.50028e-13 1.71727e-13 0 0 0 0)
(0 3.81725e-13 0 3.81725e-13 -1.69293e-13 0 0 0 0)
(0 2.6313e-13 0 2.6313e-13 1.66919e-13 0 0 0 0)
(0 1.80117e-13 0 1.80117e-13 -1.6446e-13 0 0 0 0)
(0 1.22367e-13 0 1.22367e-13 1.62053e-13 0 0 0 0)
(0 8.24304e-14 0 8.24304e-14 -1.59565e-13 0 0 0 0)
(0 5.49505e-14 0 5.49505e-14 1.57119e-13 0 0 0 0)
(0 3.65205e-14 0 3.65205e-14 -1.54599e-13 0 0 0 0)
(0 2.39683e-14 0 2.39683e-14 1.52114e-13 0 0 0 0)
(0 1.55974e-14 0 1.55974e-14 -1.4956e-13 0 0 0 0)
(0 1.01714e-14 0 1.01714e-14 1.47036e-13 0 0 0 0)
(-1.50452e-19 6.44522e-15 0 6.44522e-15 -1.4443e-13 0 0 0 0)
(0 4.07872e-15 0 4.07872e-15 1.41879e-13 0 0 0 0)
(0 2.53404e-15 0 2.53404e-15 -1.39256e-13 0 0 0 0)
(0 1.52745e-15 0 1.52745e-15 1.36658e-13 0 0 0 0)
(0 1.00935e-15 0 1.00935e-15 -1.34003e-13 0 0 0 0)
(0 6.68617e-16 0 6.68617e-16 1.31371e-13 0 0 0 0)
(0 3.73352e-16 0 3.73352e-16 -1.28687e-13 0 0 0 0)
(0 1.80675e-16 0 1.80675e-16 1.26023e-13 0 0 0 0)
(0 1.44316e-16 0 1.44316e-16 -1.23312e-13 0 0 0 0)
(0 1.2462e-16 0 1.2462e-16 1.20617e-13 0 0 0 0)
(-1.23064e-19 -3.19658e-17 0 -3.19658e-17 -1.17878e-13 0 0 0 0)
(0 -4.34217e-17 0 -4.34217e-17 1.15166e-13 0 0 0 0)
(0 1.25309e-17 0 1.25309e-17 -1.12414e-13 0 0 0 0)
(1.15864e-19 4.96769e-17 0 4.96769e-17 1.09673e-13 0 0 0 0)
(0 6.60633e-17 0 6.60633e-17 -1.06892e-13 0 0 0 0)
(0 2.29557e-17 0 2.29557e-17 1.04117e-13 0 0 0 0)
(0 -4.238e-17 0 -4.238e-17 -1.01317e-13 0 0 0 0)
(0 -3.59773e-17 0 -3.59773e-17 9.85143e-14 0 0 0 0)
(0 8.46173e-18 0 8.46173e-18 -9.56895e-14 0 0 0 0)
(0 6.54485e-17 0 6.54485e-17 9.2861e-14 0 0 0 0)
(0 -1.45456e-17 0 -1.45456e-17 -9.00088e-14 0 0 0 0)
(0 -2.02744e-17 0 -2.02744e-17 8.71476e-14 0 0 0 0)
(0 3.35294e-17 0 3.35294e-17 -8.42643e-14 0 0 0 0)
(0 -7.93247e-17 0 -7.93247e-17 8.14159e-14 0 0 0 0)
(0 -8.20298e-17 0 -8.20298e-17 -8.97851e-14 0 0 0 0)
(0 -2.10699e-17 0 -2.10699e-17 8.87982e-14 0 0 0 0)
(0 3.23196e-17 0 3.23196e-17 -8.78476e-14 0 0 0 0)
(0 1.80524e-17 0 1.80524e-17 8.68916e-14 0 0 0 0)
(0 -3.38813e-18 0 -3.38813e-18 -8.5921e-14 0 0 0 0)
(0 3.09432e-17 0 3.09432e-17 8.4943e-14 0 0 0 0)
(0 -2.14141e-17 0 -2.14141e-17 -8.39525e-14 0 0 0 0)
(0 -1.31025e-17 0 -1.31025e-17 8.29526e-14 0 0 0 0)
(0 4.02076e-17 0 4.02076e-17 -8.19407e-14 0 0 0 0)
(0 -4.63751e-17 0 -4.63751e-17 8.0916e-14 0 0 0 0)
(0 -3.12873e-17 0 -3.12873e-17 -7.98798e-14 0 0 0 0)
(0 2.71315e-17 0 2.71315e-17 7.88327e-14 0 0 0 0)
(0 3.51254e-17 0 3.51254e-17 -7.77705e-14 0 0 0 0)
(0 7.57036e-18 0 7.57036e-18 7.66952e-14 0 0 0 0)
(0 -8.57621e-18 0 -8.57621e-18 -7.56048e-14 0 0 0 0)
(0 -4.20869e-18 0 -4.20869e-18 7.45025e-14 0 0 0 0)
(0 -2.05141e-17 0 -2.05141e-17 -7.338e-14 0 0 0 0)
(0 2.5808e-17 0 2.5808e-17 7.2252e-14 0 0 0 0)
(0 1.32349e-18 0 1.32349e-18 -7.10779e-14 0 0 0 0)
(0 -7.19978e-18 0 -7.19978e-18 6.99523e-14 0 0 0 0)
(0 -2.14405e-18 0 -2.14405e-18 -6.87258e-14 0 0 0 0)
(0 -1.87671e-17 0 -1.87671e-17 6.75609e-14 0 0 0 0)
(0 3.86459e-18 0 3.86459e-18 -6.62955e-14 0 0 0 0)
(0 2.33993e-17 0 2.33993e-17 6.50863e-14 0 0 0 0)
(0 4.89691e-18 0 4.89691e-18 -6.37831e-14 0 0 0 0)
(0 2.14405e-18 0 2.14405e-18 6.25097e-14 0 0 0 0)
(0 -2.02229e-17 0 -2.02229e-17 -6.11562e-14 0 0 0 0)
(0 -1.24143e-17 0 -1.24143e-17 5.98398e-14 0 0 0 0)
(0 -6.27334e-18 0 -6.27334e-18 -5.84327e-14 0 0 0 0)
(0 -8.96796e-17 0 -8.96796e-17 5.70298e-14 0 0 0 0)
(0 -2.90718e-16 0 -2.90718e-16 -5.55688e-14 0 0 0 0)
(0 5.29396e-20 0 5.29396e-20 5.40868e-14 0 0 0 0)
(0 2.90479e-16 0 2.90479e-16 -5.256e-14 0 0 0 0)
(0 8.11034e-17 0 8.11034e-17 5.09726e-14 0 0 0 0)
(0 -1.05879e-19 0 -1.05879e-19 -4.93505e-14 0 0 0 0)
(0 9.07913e-18 0 9.07913e-18 4.76854e-14 0 0 0 0)
(0 5.28601e-17 0 5.28601e-17 -4.59441e-14 0 0 0 0)
(0 2.17317e-17 0 2.17317e-17 4.41416e-14 0 0 0 0)
(0 -2.56757e-17 0 -2.56757e-17 -4.22666e-14 0 0 0 0)
(0 -8.1474e-17 0 -8.1474e-17 4.03063e-14 0 0 0 0)
(0 6.67038e-18 0 6.67038e-18 -3.82533e-14 0 0 0 0)
(0 1.18955e-16 0 1.18955e-16 3.60483e-14 0 0 0 0)
(0 6.00335e-17 0 6.00335e-17 -3.37249e-14 0 0 0 0)
(0 -3.38019e-17 0 -3.38019e-17 3.12963e-14 0 0 0 0)
(0 -4.43104e-17 0 -4.43104e-17 -2.8578e-14 0 0 0 0)
(0 -3.75606e-17 0 -3.75606e-17 2.55148e-14 0 0 0 0)
(0 -2.91168e-17 0 -2.91168e-17 -2.20992e-14 0 0 0 0)
(0 2.33993e-17 0 2.33993e-17 1.79121e-14 0 0 0 0)
(0 -3.9837e-17 0 -3.9837e-17 -1.34871e-14 0 0 0 0)
(0 -6.09334e-17 0 -6.09334e-17 5.46214e-15 0 0 0 0)
)
;

boundaryField
{
    inandouthalf11
    {
        type            cyclic;
    }
    inandouthalf12
    {
        type            cyclic;
    }
    inandouthalf21
    {
        type            cyclic;
    }
    inandouthalf22
    {
        type            cyclic;
    }
    inandouthalf31
    {
        type            cyclic;
    }
    inandouthalf32
    {
        type            cyclic;
    }
    inandouthalf41
    {
        type            cyclic;
    }
    inandouthalf42
    {
        type            cyclic;
    }
    top
    {
        type            symmetryPlane;
    }
    walls
    {
        type            zeroGradient;
    }
    frontAndBackPlanes
    {
        type            empty;
    }
}


// ************************************************************************* //
