/*--------------------------------*- C++ -*----------------------------------*\
| =========                 |                                                 |
| \\      /  F ield         | OpenFOAM: The Open Source CFD Toolbox           |
|  \\    /   O peration     | Version:  2.4.x                                 |
|   \\  /    A nd           | Web:      www.OpenFOAM.org                      |
|    \\/     M anipulation  |                                                 |
\*---------------------------------------------------------------------------*/
FoamFile
{
    version     2.0;
    format      ascii;
    class       volTensorField;
    location    "6.05";
    object      Taus;
}
// * * * * * * * * * * * * * * * * * * * * * * * * * * * * * * * * * * * * * //

dimensions      [0 2 -2 0 0 0 0];

internalField   nonuniform List<tensor> 
360
(
(0 -0.0145762 0 -0.0145762 -0.196788 0 0 0 0)
(0 -0.0206888 0 -0.0206888 -0.242001 0 0 0 0)
(0 -0.0251836 0 -0.0251836 -0.249181 0 0 0 0)
(0 -0.0249347 0 -0.0249347 -0.243955 0 0 0 0)
(1.11581e-17 -0.0242898 0 -0.0242898 -0.240715 0 0 0 0)
(1.07646e-17 -0.024253 0 -0.024253 -0.239303 0 0 0 0)
(1.05868e-17 -0.0243491 0 -0.0243491 -0.237918 0 0 0 0)
(0 -0.0243978 0 -0.0243978 -0.236331 0 0 0 0)
(2.07288e-17 -0.0244222 0 -0.0244222 -0.234722 0 0 0 0)
(0 -0.0244327 0 -0.0244327 -0.233077 0 0 0 0)
(2.01887e-17 -0.0244344 0 -0.0244344 -0.231408 0 0 0 0)
(0 -0.0244376 0 -0.0244376 -0.229755 0 0 0 0)
(3.92262e-17 -0.0244424 0 -0.0244424 -0.228102 0 0 0 0)
(0 -0.0244493 0 -0.0244493 -0.226458 0 0 0 0)
(0 -0.0244556 0 -0.0244556 -0.224814 0 0 0 0)
(0 -0.0244587 0 -0.0244587 -0.223161 0 0 0 0)
(0 -0.0244592 0 -0.0244592 -0.221502 0 0 0 0)
(3.66145e-17 -0.0244592 0 -0.0244592 -0.219845 0 0 0 0)
(0 -0.0244581 0 -0.0244581 -0.21819 0 0 0 0)
(0 -0.0244543 0 -0.0244543 -0.21652 0 0 0 0)
(0 -0.0244525 0 -0.0244525 -0.214868 0 0 0 0)
(3.46197e-17 -0.0244475 0 -0.0244475 -0.2132 0 0 0 0)
(0 -0.0244412 0 -0.0244412 -0.211534 0 0 0 0)
(0 -0.0244342 0 -0.0244342 -0.209868 0 0 0 0)
(0 -0.024426 0 -0.024426 -0.208198 0 0 0 0)
(3.27746e-17 -0.0244178 0 -0.0244178 -0.206529 0 0 0 0)
(0 -0.0244097 0 -0.0244097 -0.204865 0 0 0 0)
(0 -0.0243986 0 -0.0243986 -0.203189 0 0 0 0)
(0 -0.0243876 0 -0.0243876 -0.201517 0 0 0 0)
(0 -0.0243776 0 -0.0243776 -0.199848 0 0 0 0)
(0 -0.0243662 0 -0.0243662 -0.198178 0 0 0 0)
(0 -0.0243523 0 -0.0243523 -0.196494 0 0 0 0)
(0 -0.0243411 0 -0.0243411 -0.194835 0 0 0 0)
(0 -0.0243222 0 -0.0243222 -0.193137 0 0 0 0)
(0 -0.0243053 0 -0.0243053 -0.191465 0 0 0 0)
(-1.1243e-16 -0.0242852 0 -0.0242852 -0.189773 0 0 0 0)
(0 -0.0242639 0 -0.0242639 -0.188089 0 0 0 0)
(0 -0.0242366 0 -0.0242366 -0.18639 0 0 0 0)
(0 -0.0242062 0 -0.0242062 -0.184678 0 0 0 0)
(0 -0.0241816 0 -0.0241816 -0.183002 0 0 0 0)
(0 -0.0241492 0 -0.0241492 -0.181286 0 0 0 0)
(0 -0.0241224 0 -0.0241224 -0.179593 0 0 0 0)
(-1.02189e-16 -0.024104 0 -0.024104 -0.177925 0 0 0 0)
(0 -0.0240844 0 -0.0240844 -0.176234 0 0 0 0)
(0 -0.0240758 0 -0.0240758 -0.174579 0 0 0 0)
(0 -0.0240741 0 -0.0240741 -0.172928 0 0 0 0)
(0 -0.0240803 0 -0.0240803 -0.171281 0 0 0 0)
(0 -0.0240998 0 -0.0240998 -0.169669 0 0 0 0)
(0 -0.0241149 0 -0.0241149 -0.168034 0 0 0 0)
(0 -0.0241224 0 -0.0241224 -0.166372 0 0 0 0)
(-1.00061e-16 -0.02413 0 -0.02413 -0.164728 0 0 0 0)
(0 -0.0241172 0 -0.0241172 -0.163032 0 0 0 0)
(0 -0.0240777 0 -0.0240777 -0.161307 0 0 0 0)
(0 -0.0239981 0 -0.0239981 -0.159514 0 0 0 0)
(0 -0.0238691 0 -0.0238691 -0.157676 0 0 0 0)
(0 -0.0236712 0 -0.0236712 -0.155722 0 0 0 0)
(0 -0.0234173 0 -0.0234173 -0.15372 0 0 0 0)
(0 -0.0231171 0 -0.0231171 -0.151638 0 0 0 0)
(0 -0.0228243 0 -0.0228243 -0.149587 0 0 0 0)
(0 -0.0225971 0 -0.0225971 -0.14768 0 0 0 0)
(0 -0.0224717 0 -0.0224717 -0.145957 0 0 0 0)
(0 -0.0224802 0 -0.0224802 -0.144509 0 0 0 0)
(0 -0.0225982 0 -0.0225982 -0.143213 0 0 0 0)
(0 -0.0227957 0 -0.0227957 -0.142014 0 0 0 0)
(0 -0.0230355 0 -0.0230355 -0.140813 0 0 0 0)
(0 -0.0232922 0 -0.0232922 -0.139577 0 0 0 0)
(0 -0.0235461 0 -0.0235461 -0.138265 0 0 0 0)
(0 -0.0237887 0 -0.0237887 -0.136876 0 0 0 0)
(0 -0.0240173 0 -0.0240173 -0.135413 0 0 0 0)
(0 -0.0242247 0 -0.0242247 -0.133892 0 0 0 0)
(0 -0.0243793 0 -0.0243793 -0.132304 0 0 0 0)
(0 -0.0244505 0 -0.0244505 -0.130703 0 0 0 0)
(0 -0.0244023 0 -0.0244023 -0.12916 0 0 0 0)
(0 -0.0241821 0 -0.0241821 -0.127667 0 0 0 0)
(0 -0.023804 0 -0.023804 -0.126269 0 0 0 0)
(0 -0.0233282 0 -0.0233282 -0.124923 0 0 0 0)
(0 -0.0228409 0 -0.0228409 -0.123614 0 0 0 0)
(0 -0.0223969 0 -0.0223969 -0.122292 0 0 0 0)
(0 -0.0220209 0 -0.0220209 -0.120939 0 0 0 0)
(0 -0.0217158 0 -0.0217158 -0.119546 0 0 0 0)
(0 -0.021472 0 -0.021472 -0.118121 0 0 0 0)
(0 -0.0212718 0 -0.0212718 -0.116654 0 0 0 0)
(0 -0.0211027 0 -0.0211027 -0.115154 0 0 0 0)
(0 -0.0209554 0 -0.0209554 -0.113625 0 0 0 0)
(0 -0.0208221 0 -0.0208221 -0.112069 0 0 0 0)
(0 -0.0206984 0 -0.0206984 -0.110494 0 0 0 0)
(0 -0.0205802 0 -0.0205802 -0.108899 0 0 0 0)
(0 -0.0204663 0 -0.0204663 -0.107292 0 0 0 0)
(0 -0.020354 0 -0.020354 -0.105673 0 0 0 0)
(0 -0.0202409 0 -0.0202409 -0.104041 0 0 0 0)
(0 -0.0201252 0 -0.0201252 -0.102399 0 0 0 0)
(0 -0.0200056 0 -0.0200056 -0.100747 0 0 0 0)
(0 -0.01988 0 -0.01988 -0.0990834 0 0 0 0)
(0 -0.0197479 0 -0.0197479 -0.0974105 0 0 0 0)
(0 -0.0196091 0 -0.0196091 -0.0957287 0 0 0 0)
(0 -0.0194635 0 -0.0194635 -0.0940388 0 0 0 0)
(0 -0.0193115 0 -0.0193115 -0.0923418 0 0 0 0)
(0 -0.0191534 0 -0.0191534 -0.0906385 0 0 0 0)
(0 -0.0189895 0 -0.0189895 -0.0889297 0 0 0 0)
(0 -0.0188201 0 -0.0188201 -0.0872156 0 0 0 0)
(0 -0.0186453 0 -0.0186453 -0.0854967 0 0 0 0)
(0 -0.0184653 0 -0.0184653 -0.0837732 0 0 0 0)
(0 -0.0182802 0 -0.0182802 -0.0820453 0 0 0 0)
(0 -0.0180903 0 -0.0180903 -0.0803133 0 0 0 0)
(0 -0.0178958 0 -0.0178958 -0.0785773 0 0 0 0)
(0 -0.017697 0 -0.017697 -0.0768375 0 0 0 0)
(0 -0.0174942 0 -0.0174942 -0.0750942 0 0 0 0)
(0 -0.0172877 0 -0.0172877 -0.0733475 0 0 0 0)
(0 -0.0170777 0 -0.0170777 -0.0715976 0 0 0 0)
(0 -0.0168644 0 -0.0168644 -0.0698445 0 0 0 0)
(0 -0.0166482 0 -0.0166482 -0.0680883 0 0 0 0)
(0 -0.0164294 0 -0.0164294 -0.0663291 0 0 0 0)
(0 -0.0162082 0 -0.0162082 -0.0645671 0 0 0 0)
(0 -0.0159851 0 -0.0159851 -0.0628023 0 0 0 0)
(0 -0.0157604 0 -0.0157604 -0.0610349 0 0 0 0)
(0 -0.0155347 0 -0.0155347 -0.0592649 0 0 0 0)
(0 -0.0153083 0 -0.0153083 -0.0574925 0 0 0 0)
(0 -0.0150818 0 -0.0150818 -0.0557175 0 0 0 0)
(0 -0.0148558 0 -0.0148558 -0.0539402 0 0 0 0)
(0 -0.0146306 0 -0.0146306 -0.0521606 0 0 0 0)
(0 -0.014407 0 -0.014407 -0.0503785 0 0 0 0)
(0 -0.0141854 0 -0.0141854 -0.0485941 0 0 0 0)
(0 -0.0139664 0 -0.0139664 -0.0468074 0 0 0 0)
(0 -0.0137505 0 -0.0137505 -0.0450184 0 0 0 0)
(0 -0.0135383 0 -0.0135383 -0.0432271 0 0 0 0)
(0 -0.0133298 0 -0.0133298 -0.0414331 0 0 0 0)
(0 -0.0131246 0 -0.0131246 -0.039636 0 0 0 0)
(0 -0.0129216 0 -0.0129216 -0.0378348 0 0 0 0)
(0 -0.0127197 0 -0.0127197 -0.0360285 0 0 0 0)
(0 -0.012519 0 -0.012519 -0.0342162 0 0 0 0)
(0 -0.0123212 0 -0.0123212 -0.0323967 0 0 0 0)
(0 -0.0121281 0 -0.0121281 -0.0305689 0 0 0 0)
(0 -0.0119365 0 -0.0119365 -0.0287299 0 0 0 0)
(0 -0.0117362 0 -0.0117362 -0.0268747 0 0 0 0)
(0 -0.0115196 0 -0.0115196 -0.0249988 0 0 0 0)
(0 -0.011295 0 -0.011295 -0.023102 0 0 0 0)
(0 -0.0110743 0 -0.0110743 -0.0211851 0 0 0 0)
(0 -0.0108351 0 -0.0108351 -0.0192537 0 0 0 0)
(0 -0.0105083 0 -0.0105083 -0.0173314 0 0 0 0)
(0 -0.0100549 0 -0.0100549 -0.0154272 0 0 0 0)
(0 -0.00959136 0 -0.00959136 -0.0135026 0 0 0 0)
(0 -0.0092578 0 -0.0092578 -0.0115815 0 0 0 0)
(0 -0.00881924 0 -0.00881924 -0.00952084 0 0 0 0)
(0 -0.0081934 0 -0.0081934 -0.00723857 0 0 0 0)
(0 -0.00756773 0 -0.00756773 -0.00398411 0 0 0 0)
(0 -0.00599515 0 -0.00599515 -0.000850111 0 0 0 0)
(0 -0.00239284 0 -0.00239284 -0.00126997 0 0 0 0)
(0 -0.00163944 0 -0.00163944 -4.3511e-06 0 0 0 0)
(0 -0.00175578 0 -0.00175578 -8.16248e-06 0 0 0 0)
(0 -0.00227264 0 -0.00227264 -9.90021e-06 0 0 0 0)
(0 -0.0019661 0 -0.0019661 -5.74238e-06 0 0 0 0)
(0 -0.00177137 0 -0.00177137 -5.57578e-06 0 0 0 0)
(0 -0.00171268 0 -0.00171268 -6.00585e-06 0 0 0 0)
(0 -0.0017533 0 -0.0017533 -6.51471e-06 0 0 0 0)
(0 -0.00186873 0 -0.00186873 -6.94644e-06 0 0 0 0)
(0 -0.00204399 0 -0.00204399 -7.12188e-06 0 0 0 0)
(0 -0.00227011 0 -0.00227011 -6.79879e-06 0 0 0 0)
(0 -0.00254186 0 -0.00254186 -5.70665e-06 0 0 0 0)
(0 -0.00285639 0 -0.00285639 -3.5631e-06 0 0 0 0)
(0 -0.00321241 0 -0.00321241 -7.47628e-08 0 0 0 0)
(0 -0.00360965 0 -0.00360965 5.0677e-06 0 0 0 0)
(0 -0.0040485 0 -0.0040485 1.21945e-05 0 0 0 0)
(0 -0.00452981 0 -0.00452981 2.16615e-05 0 0 0 0)
(0 -0.0050547 0 -0.0050547 3.38542e-05 0 0 0 0)
(0 -0.00562446 0 -0.00562446 4.91919e-05 0 0 0 0)
(0 -0.00624046 0 -0.00624046 6.81309e-05 0 0 0 0)
(0 -0.00690408 0 -0.00690408 9.11677e-05 0 0 0 0)
(0 -0.00761663 0 -0.00761663 0.000118844 0 0 0 0)
(0 -0.00837934 0 -0.00837934 0.000151748 0 0 0 0)
(0 -0.00919327 0 -0.00919327 0.000190522 0 0 0 0)
(0 -0.0100593 0 -0.0100593 0.000235865 0 0 0 0)
(0 -0.0109779 0 -0.0109779 0.000288538 0 0 0 0)
(0 -0.0119496 0 -0.0119496 0.000349371 0 0 0 0)
(0 -0.0129744 0 -0.0129744 0.000419269 0 0 0 0)
(0 -0.0140518 0 -0.0140518 0.000499217 0 0 0 0)
(0 -0.0151811 0 -0.0151811 0.000590291 0 0 0 0)
(0 -0.0163612 0 -0.0163612 0.000693658 0 0 0 0)
(0 -0.0175904 0 -0.0175904 0.000810582 0 0 0 0)
(0 -0.0188667 0 -0.0188667 0.000942433 0 0 0 0)
(0 -0.0201874 0 -0.0201874 0.00109068 0 0 0 0)
(0 -0.0215493 0 -0.0215493 0.00125691 0 0 0 0)
(0 -0.0229487 0 -0.0229487 0.0014428 0 0 0 0)
(0 -0.0243814 0 -0.0243814 0.00165017 0 0 0 0)
(0 -0.0258423 0 -0.0258423 0.00188091 0 0 0 0)
(0 -0.0273261 0 -0.0273261 0.00213707 0 0 0 0)
(0 -0.0288265 0 -0.0288265 0.0024208 0 0 0 0)
(0 -0.0303369 0 -0.0303369 0.00273431 0 0 0 0)
(0 -0.0318498 0 -0.0318498 0.00307977 0 0 0 0)
(0 -0.0333578 0 -0.0333578 0.00345908 0 0 0 0)
(0 -0.0348532 0 -0.0348532 0.00387341 0 0 0 0)
(0 -0.0363293 0 -0.0363293 0.00432259 0 0 0 0)
(0 -0.0377809 0 -0.0377809 0.00480452 0 0 0 0)
(0 -0.0392047 0 -0.0392047 0.00531473 0 0 0 0)
(0 -0.0406006 0 -0.0406006 0.00584603 0 0 0 0)
(0 -0.041972 0 -0.041972 0.006388 0 0 0 0)
(0 -0.0433268 0 -0.0433268 0.00692715 0 0 0 0)
(0 -0.0446757 0 -0.0446757 0.00744906 0 0 0 0)
(0 -0.0460266 0 -0.0460266 0.00794256 0 0 0 0)
(0 -0.047379 0 -0.047379 0.00840448 0 0 0 0)
(0 -0.0487186 0 -0.0487186 0.00883841 0 0 0 0)
(0 -0.0500359 0 -0.0500359 0.00924156 0 0 0 0)
(0 -0.0513757 0 -0.0513757 0.00960177 0 0 0 0)
(1.86355e-15 -0.0527863 0 -0.0527863 0.00989565 0 0 0 0)
(0 -0.0543137 0 -0.0543137 0.0100817 0 0 0 0)
(0 -0.0560533 0 -0.0560533 0.0101079 0 0 0 0)
(-4.97089e-15 -0.0580627 0 -0.0580627 0.00993893 0 0 0 0)
(0 -0.0603265 0 -0.0603265 0.00956596 0 0 0 0)
(6.13562e-15 -0.0628598 0 -0.0628598 0.00898992 0 0 0 0)
(0 -0.0656464 0 -0.0656464 0.00822108 0 0 0 0)
(-3.78933e-15 -0.0686104 0 -0.0686104 0.00728618 0 0 0 0)
(0 -0.0717068 0 -0.0717068 0.00622039 0 0 0 0)
(0 -0.0748403 0 -0.0748403 0.00505693 0 0 0 0)
(0 -0.0779695 0 -0.0779695 0.00381561 0 0 0 0)
(-1.09147e-14 -0.0810568 0 -0.0810568 0.00252438 0 0 0 0)
(0 -0.0839247 0 -0.0839247 0.00123678 0 0 0 0)
(0 -0.0865738 0 -0.0865738 -3.32878e-05 0 0 0 0)
(0 -0.0889901 0 -0.0889901 -0.00128056 0 0 0 0)
(0 -0.0910187 0 -0.0910187 -0.00245732 0 0 0 0)
(0 -0.0926616 0 -0.0926616 -0.00355129 0 0 0 0)
(1.45499e-14 -0.093933 0 -0.093933 -0.00458466 0 0 0 0)
(0 -0.0948291 0 -0.0948291 -0.00555962 0 0 0 0)
(0 -0.0952404 0 -0.0952404 -0.00643568 0 0 0 0)
(0 -0.0951521 0 -0.0951521 -0.00721701 0 0 0 0)
(1.48396e-14 -0.0946556 0 -0.0946556 -0.00795338 0 0 0 0)
(0 -0.0936271 0 -0.0936271 -0.00861424 0 0 0 0)
(0 -0.0920256 0 -0.0920256 -0.00919211 0 0 0 0)
(0 -0.0899033 0 -0.0899033 -0.00974436 0 0 0 0)
(0 -0.0872201 0 -0.0872201 -0.0102878 0 0 0 0)
(-1.3011e-14 -0.083947 0 -0.083947 -0.0108603 0 0 0 0)
(-1.24172e-14 -0.0800236 0 -0.0800236 -0.0114755 0 0 0 0)
(0 -0.0754512 0 -0.0754512 -0.0122611 0 0 0 0)
(0 -0.0700424 0 -0.0700424 -0.0131694 0 0 0 0)
(0 -0.0634915 0 -0.0634915 -0.01427 0 0 0 0)
(0 -0.055433 0 -0.055433 -0.0152295 0 0 0 0)
(0 -0.0465234 0 -0.0465234 -0.0177832 0 0 0 0)
(0 -0.0430222 0 -0.0430222 -0.0219816 0 0 0 0)
(0 -0 0 -0 -0 0 0 0 0)
(0 -0 0 -0 -0 0 0 0 0)
(0 -0 0 -0 0 0 0 0 0)
(0 0 0 0 -0 0 0 0 0)
(0 0 0 0 -0 0 0 0 0)
(0 0 0 0 -0 0 0 0 0)
(0 0 0 0 0 0 0 0 0)
(0 0 0 0 -0 0 0 0 0)
(-0 0 0 0 -0 0 0 0 0)
(0 0 0 0 -0 0 0 0 0)
(0 0 0 0 -0 0 0 0 0)
(0 0 0 0 -0 0 0 0 0)
(0 0 0 0 -0 0 0 0 0)
(0 0 0 0 -0 0 0 0 0)
(0 0 0 0 0 0 0 0 0)
(0 0 0 0 0 0 0 0 0)
(0 0 0 0 0 0 0 0 0)
(0 0 0 0 0 0 0 0 0)
(0 0 0 0 0 0 0 0 0)
(0 0 0 0 0 0 0 0 0)
(0 0 0 0 0 0 0 0 0)
(0 0 0 0 0 0 0 0 0)
(0 0 0 0 -0 0 0 0 0)
(0 0 0 0 0 0 0 0 0)
(0 0 0 0 -0 0 0 0 0)
(0 0 0 0 0 0 0 0 0)
(0 0 0 0 -0 0 0 0 0)
(0 0 0 0 0 0 0 0 0)
(0 0 0 0 -0 0 0 0 0)
(0 0 0 0 0 0 0 0 0)
(-0 0 0 0 -0 0 0 0 0)
(0 0 0 0 0 0 0 0 0)
(0 0 0 0 -0 0 0 0 0)
(0 0 0 0 0 0 0 0 0)
(0 0 0 0 -0 0 0 0 0)
(0 0 0 0 -0 0 0 0 0)
(0 0 0 0 0 0 0 0 0)
(0 0 0 0 0 0 0 0 0)
(0 0 0 0 -0 0 0 0 0)
(0 0 0 0 0 0 0 0 0)
(0 0 0 0 -0 0 0 0 0)
(0 0 0 0 0 0 0 0 0)
(0 0 0 0 -0 0 0 0 0)
(0 0 0 0 0 0 0 0 0)
(0 0 0 0 -0 0 0 0 0)
(0 0 0 0 0 0 0 0 0)
(0 0 0 0 -0 0 0 0 0)
(0 0 0 0 0 0 0 0 0)
(0 0 0 0 -0 0 0 0 0)
(0 0 0 0 0 0 0 0 0)
(-0 0 0 0 -0 0 0 0 0)
(0 0 0 0 0 0 0 0 0)
(0 0 0 0 -0 0 0 0 0)
(0 0 0 0 0 0 0 0 0)
(0 0 0 0 -0 0 0 0 0)
(0 0 0 0 0 0 0 0 0)
(0 0 0 0 -0 0 0 0 0)
(0 0 0 0 0 0 0 0 0)
(0 0 0 0 -0 0 0 0 0)
(0 0 0 0 0 0 0 0 0)
(-0 -0 0 -0 -0 0 0 0 0)
(0 0 0 0 0 0 0 0 0)
(0 -0 0 -0 -0 0 0 0 0)
(0 0 0 0 0 0 0 0 0)
(0 -0 0 -0 -0 0 0 0 0)
(0 0 0 0 0 0 0 0 0)
(0 -0 0 -0 -0 0 0 0 0)
(0 0 0 0 0 0 0 0 0)
(0 -0 0 -0 -0 0 0 0 0)
(0 0 0 0 0 0 0 0 0)
(0 -0 0 -0 -0 0 0 0 0)
(0 0 0 0 0 0 0 0 0)
(0 -0 0 -0 -0 0 0 0 0)
(0 -0 0 -0 0 0 0 0 0)
(0 -0 0 -0 -0 0 0 0 0)
(0 0 0 0 0 0 0 0 0)
(0 -0 0 -0 -0 0 0 0 0)
(0 0 0 0 0 0 0 0 0)
(0 -0 0 -0 -0 0 0 0 0)
(0 0 0 0 0 0 0 0 0)
(0 -0 0 -0 -0 0 0 0 0)
(0 0 0 0 0 0 0 0 0)
(0 -0 0 -0 -0 0 0 0 0)
(0 0 0 0 0 0 0 0 0)
(0 -0 0 -0 -0 0 0 0 0)
(0 0 0 0 0 0 0 0 0)
(0 -0 0 -0 -0 0 0 0 0)
(0 0 0 0 0 0 0 0 0)
(0 -0 0 -0 -0 0 0 0 0)
(0 0 0 0 0 0 0 0 0)
(0 -0 0 -0 -0 0 0 0 0)
(0 0 0 0 0 0 0 0 0)
(0 -0 0 -0 -0 0 0 0 0)
(0 0 0 0 0 0 0 0 0)
(0 -0 0 -0 -0 0 0 0 0)
(0 0 0 0 0 0 0 0 0)
(0 -0 0 -0 -0 0 0 0 0)
(0 0 0 0 0 0 0 0 0)
(0 -0 0 -0 -0 0 0 0 0)
(0 0 0 0 0 0 0 0 0)
(0 -0 0 -0 -0 0 0 0 0)
(0 0 0 0 0 0 0 0 0)
(0 -0 0 -0 -0 0 0 0 0)
(0 -0 0 -0 0 0 0 0 0)
(0 -0 0 -0 -0 0 0 0 0)
(0 0 0 0 0 0 0 0 0)
(0 0 0 0 -0 0 0 0 0)
(0 0 0 0 0 0 0 0 0)
(0 -0 0 -0 -0 0 0 0 0)
(0 0 0 0 0 0 0 0 0)
(0 0 0 0 -0 0 0 0 0)
(0 0 0 0 0 0 0 0 0)
(0 -0 0 -0 -0 0 0 0 0)
(0 -0 0 -0 0 0 0 0 0)
(0 -0 0 -0 -0 0 0 0 0)
(0 0 0 0 0 0 0 0 0)
(0 -0 0 -0 -0 0 0 0 0)
(0 -0 0 -0 0 0 0 0 0)
(0 -0 0 -0 0 0 0 0 0)
(0 -0 0 -0 0 0 0 0 0)
(0 -0 0 -0 0 0 0 0 0)
(0 -0 0 -0 0 0 0 0 0)
(0 -0 0 -0 0 0 0 0 0)
(0 -0 0 -0 0 0 0 0 0)
)
;

boundaryField
{
    inandouthalf11
    {
        type            cyclic;
    }
    inandouthalf12
    {
        type            cyclic;
    }
    inandouthalf21
    {
        type            cyclic;
    }
    inandouthalf22
    {
        type            cyclic;
    }
    inandouthalf31
    {
        type            cyclic;
    }
    inandouthalf32
    {
        type            cyclic;
    }
    inandouthalf41
    {
        type            cyclic;
    }
    inandouthalf42
    {
        type            cyclic;
    }
    top
    {
        type            symmetryPlane;
    }
    walls
    {
        type            zeroGradient;
    }
    frontAndBackPlanes
    {
        type            empty;
    }
}


// ************************************************************************* //
