/*--------------------------------*- C++ -*----------------------------------*\
| =========                 |                                                 |
| \\      /  F ield         | OpenFOAM: The Open Source CFD Toolbox           |
|  \\    /   O peration     | Version:  2.4.x                                 |
|   \\  /    A nd           | Web:      www.OpenFOAM.org                      |
|    \\/     M anipulation  |                                                 |
\*---------------------------------------------------------------------------*/
FoamFile
{
    version     2.0;
    format      ascii;
    class       volScalarField;
    location    "6.05";
    object      Theta_0;
}
// * * * * * * * * * * * * * * * * * * * * * * * * * * * * * * * * * * * * * //

dimensions      [0 2 -2 0 0 0 0];

internalField   nonuniform List<scalar> 
360
(
6.66586e-21
6.67673e-21
6.67243e-21
6.67092e-21
6.67156e-21
6.67219e-21
6.67243e-21
6.67252e-21
6.6726e-21
6.67272e-21
6.67288e-21
6.67305e-21
6.67322e-21
6.67338e-21
6.67353e-21
6.67369e-21
6.67385e-21
6.67401e-21
6.67418e-21
6.67435e-21
6.67451e-21
6.67468e-21
6.67484e-21
6.67501e-21
6.67516e-21
6.67531e-21
6.67546e-21
6.6756e-21
6.67575e-21
6.6759e-21
6.67607e-21
6.67626e-21
6.67648e-21
6.67675e-21
6.67706e-21
6.67741e-21
6.67779e-21
6.67818e-21
6.67852e-21
6.67877e-21
6.67888e-21
6.67879e-21
6.67846e-21
6.67792e-21
6.67722e-21
6.67645e-21
6.67573e-21
6.67521e-21
6.67506e-21
6.67548e-21
6.67672e-21
6.67917e-21
6.68353e-21
6.69086e-21
6.7026e-21
6.71981e-21
6.74057e-21
6.75615e-21
6.75255e-21
6.72567e-21
6.69219e-21
6.67091e-21
6.66322e-21
6.66158e-21
6.66137e-21
6.66135e-21
6.66134e-21
6.66134e-21
6.66134e-21
6.66134e-21
6.66134e-21
6.66134e-21
6.66134e-21
6.66134e-21
6.66134e-21
6.66134e-21
6.66134e-21
6.66134e-21
6.66133e-21
6.66133e-21
6.66133e-21
6.66133e-21
6.66133e-21
6.66133e-21
6.66133e-21
6.66133e-21
6.66133e-21
6.66132e-21
6.66132e-21
6.66132e-21
6.66132e-21
6.66132e-21
6.66132e-21
6.66132e-21
6.66132e-21
6.66131e-21
6.66131e-21
6.66131e-21
6.66131e-21
6.66131e-21
6.66131e-21
6.6613e-21
6.6613e-21
6.6613e-21
6.6613e-21
6.6613e-21
6.6613e-21
6.66129e-21
6.66129e-21
6.66129e-21
6.66129e-21
6.66129e-21
6.66128e-21
6.66128e-21
6.66128e-21
6.66128e-21
6.66127e-21
6.66127e-21
6.66127e-21
6.66127e-21
6.66126e-21
6.66126e-21
6.66126e-21
6.66126e-21
6.66125e-21
6.66125e-21
6.66125e-21
6.66124e-21
6.66124e-21
6.66123e-21
6.66123e-21
6.66124e-21
9.96499e-21
4.16947e-20
2.09486e-19
1.15379e-18
6.99523e-18
4.71383e-17
3.57275e-16
3.08646e-15
3.07928e-14
3.59619e-13
4.99943e-12
8.42048e-11
1.87589e-09
1.00371e-07
5.11241e-06
8.46259e-05
0.000835158
0.00221409
0.00292478
0.00337394
0.00371572
0.00400159
0.00424825
0.00446131
0.00464347
0.00479726
0.00492541
0.0050308
0.00511619
0.00518411
0.00523683
0.00527629
0.00530417
0.00532187
0.0053306
0.00533138
0.00532508
0.00531245
0.00529412
0.00527066
0.00524257
0.00521028
0.0051742
0.00513467
0.00509204
0.00504659
0.00499862
0.00494839
0.00489614
0.00484212
0.00478654
0.00472961
0.00467155
0.00461253
0.00455275
0.00449237
0.00443155
0.00437046
0.00430924
0.00424801
0.0041869
0.00412602
0.00406547
0.00400533
0.00394569
0.00388658
0.00382807
0.00377016
0.00371289
0.00365569
0.00359797
0.00353976
0.00348101
0.0034217
0.00336175
0.00330111
0.00323967
0.00317733
0.00311397
0.00304947
0.0029837
0.00291652
0.00284778
0.00277732
0.00270499
0.0026306
0.00255398
0.00247493
0.00239323
0.00230863
0.00222088
0.00212968
0.00203468
0.00193549
0.00183165
0.00172259
0.00160764
0.00148592
0.00135632
0.00121729
0.00106663
0.000900882
0.00071402
0.000492903
0
0
0
0
0
0
0
0
0
0
0
0
0
0
0
0
0
0
0
0
0
0
0
0
0
0
0
0
0
0
0
0
0
0
0
0
0
0
0
0
0
0
0
0
0
0
0
0
0
0
0
0
0
0
0
0
0
0
0
0
0
0
0
0
0
0
0
0
0
0
0
0
0
0
0
0
0
0
0
0
0
0
0
0
0
0
0
0
0
0
0
0
0
0
0
0
0
0
0
0
0
0
0
0
0
0
0
0
0
0
0
0
0
0
0
0
0
0
0
0
0
0
0
0
)
;

boundaryField
{
    inandouthalf11
    {
        type            cyclic;
    }
    inandouthalf12
    {
        type            cyclic;
    }
    inandouthalf21
    {
        type            cyclic;
    }
    inandouthalf22
    {
        type            cyclic;
    }
    inandouthalf31
    {
        type            cyclic;
    }
    inandouthalf32
    {
        type            cyclic;
    }
    inandouthalf41
    {
        type            cyclic;
    }
    inandouthalf42
    {
        type            cyclic;
    }
    top
    {
        type            symmetryPlane;
    }
    walls
    {
        type            zeroGradient;
    }
    frontAndBackPlanes
    {
        type            empty;
    }
}


// ************************************************************************* //
