/*--------------------------------*- C++ -*----------------------------------*\
| =========                 |                                                 |
| \\      /  F ield         | OpenFOAM: The Open Source CFD Toolbox           |
|  \\    /   O peration     | Version:  2.4.x                                 |
|   \\  /    A nd           | Web:      www.OpenFOAM.org                      |
|    \\/     M anipulation  |                                                 |
\*---------------------------------------------------------------------------*/
FoamFile
{
    version     2.0;
    format      ascii;
    class       volScalarField;
    location    "10.75";
    object      alpha;
}
// * * * * * * * * * * * * * * * * * * * * * * * * * * * * * * * * * * * * * //

dimensions      [0 0 0 0 0 0 0];

internalField   nonuniform List<scalar> 
360
(
0.61089
0.611756
0.611845
0.611755
0.611713
0.6117
0.611683
0.611661
0.611638
0.611615
0.611592
0.611569
0.611546
0.611523
0.6115
0.611476
0.611452
0.611428
0.611403
0.611378
0.611353
0.611328
0.611303
0.611277
0.611251
0.611224
0.611198
0.611171
0.611144
0.611116
0.611089
0.611061
0.611032
0.611004
0.610975
0.610945
0.610916
0.610886
0.610856
0.610825
0.610794
0.610763
0.610731
0.610699
0.610667
0.610634
0.610601
0.610567
0.610534
0.610499
0.610464
0.610429
0.610394
0.610358
0.610321
0.610284
0.610247
0.610209
0.610171
0.610132
0.610093
0.610053
0.610013
0.609972
0.60993
0.609888
0.609846
0.609803
0.609759
0.609715
0.60967
0.609624
0.609578
0.609531
0.609484
0.609435
0.609386
0.609337
0.609286
0.609235
0.609183
0.60913
0.609076
0.609021
0.608966
0.608909
0.608851
0.608793
0.608734
0.608673
0.608611
0.608549
0.608485
0.608419
0.608353
0.608285
0.608216
0.608146
0.608074
0.608001
0.607926
0.607849
0.607771
0.607691
0.60761
0.607526
0.607441
0.607353
0.607263
0.607172
0.607078
0.606981
0.606882
0.606781
0.606676
0.606569
0.606459
0.606346
0.60623
0.60611
0.605986
0.605859
0.605727
0.605592
0.605451
0.605306
0.605155
0.604999
0.604837
0.604668
0.604493
0.60431
0.604119
0.603919
0.603705
0.603479
0.60324
0.602985
0.602701
0.602378
0.602028
0.601622
0.598763
0.59918
0.598659
0.597796
0.596959
0.596058
0.593724
0.448137
0.165906
0.0774801
0.0389888
0.0212351
0.0131525
0.00925088
0.00714366
0.00584755
0.00497132
0.00433861
0.00385782
0.0034776
0.00316739
0.00290792
0.00268644
0.00249425
0.00232516
0.00217467
0.00203944
0.00191691
0.00180511
0.00170248
0.00160778
0.00152
0.00143832
0.00136204
0.00129061
0.00122354
0.00116041
0.00110088
0.00104463
0.000991416
0.000940989
0.000893147
0.000847708
0.000804506
0.000763396
0.000724242
0.000686925
0.000651333
0.000617362
0.00058492
0.000553917
0.000524272
0.00049591
0.00046876
0.000442758
0.000417847
0.000393975
0.000371099
0.000349184
0.00032799
0.000307332
0.000287245
0.000267777
0.000248976
0.000230896
0.000213584
0.000197083
0.00018142
0.00016661
0.000152645
0.000139504
0.000127147
0.000115525
0.000104585
9.42828e-05
8.45849e-05
7.54785e-05
6.6969e-05
5.90751e-05
5.1819e-05
4.52161e-05
3.92662e-05
3.39516e-05
2.92372e-05
2.50803e-05
2.14175e-05
1.82281e-05
1.54e-05
1.30029e-05
1.08223e-05
9.08984e-06
7.39454e-06
6.21464e-06
5.03559e-06
4.24855e-06
3.45021e-06
2.62204e-06
1.94233e-06
1.41626e-06
1.00993e-06
7.0478e-07
4.80343e-07
3.19693e-07
2.05926e-07
1.30793e-07
7.64271e-08
4.7133e-08
2.1208e-08
1.33546e-08
4.39803e-10
7.11856e-26
0
2.08147e-50
2.33769e-55
5.48856e-57
3.14443e-60
7.48806e-62
2.95301e-64
1.32593e-64
6.67258e-65
3.33444e-65
1.64078e-65
7.94529e-66
3.78434e-66
1.77204e-66
8.15327e-67
3.68405e-67
1.63381e-67
7.10711e-68
3.03054e-68
1.26587e-68
5.17585e-69
2.07003e-69
8.09033e-70
3.08696e-70
1.1492e-70
4.17027e-71
1.47366e-71
5.06559e-72
1.69183e-72
5.48325e-73
1.72226e-73
5.23492e-74
1.53745e-74
4.35551e-75
1.18802e-75
3.11378e-76
7.82479e-77
1.88073e-77
4.31201e-78
9.40232e-79
1.94328e-79
3.79259e-80
6.95938e-81
1.19479e-81
1.90818e-82
2.816e-83
3.80953e-84
4.6789e-85
5.15565e-86
5.0206e-87
4.23675e-88
3.01657e-89
1.74375e-90
7.70438e-92
2.33421e-93
3.75192e-95
4.69881e-98
1.40829e-104
8.82992e-107
2.73935e-109
1.13484e-119
2.40507e-130
3.83343e-141
4.45866e-152
4.53031e-163
3.5688e-174
2.41603e-185
4.42856e-196
1.88104e-206
1.05937e-214
5.34203e-225
3.6432e-233
2.17595e-243
1.25439e-251
9.20155e-262
4.32594e-270
5.91221e-280
1.53419e-288
3.92813e-298
5.67023e-307
1.9483e-316
5.77069e-321
7.83094e-321
2.51973e-321
8.86848e-321
4.57737e-319
2.8055e-319
6.80328e-321
7.09478e-321
6.08689e-321
8.5424e-321
0
0
0
0
0
0
0
0
0
0
0
0
0
0
0
0
)
;

boundaryField
{
    inandouthalf11
    {
        type            cyclic;
    }
    inandouthalf12
    {
        type            cyclic;
    }
    inandouthalf21
    {
        type            cyclic;
    }
    inandouthalf22
    {
        type            cyclic;
    }
    inandouthalf31
    {
        type            cyclic;
    }
    inandouthalf32
    {
        type            cyclic;
    }
    inandouthalf41
    {
        type            cyclic;
    }
    inandouthalf42
    {
        type            cyclic;
    }
    top
    {
        type            symmetryPlane;
    }
    walls
    {
        type            zeroGradient;
    }
    frontAndBackPlanes
    {
        type            empty;
    }
}


// ************************************************************************* //
