/*--------------------------------*- C++ -*----------------------------------*\
| =========                 |                                                 |
| \\      /  F ield         | OpenFOAM: The Open Source CFD Toolbox           |
|  \\    /   O peration     | Version:  2.4.x                                 |
|   \\  /    A nd           | Web:      www.OpenFOAM.org                      |
|    \\/     M anipulation  |                                                 |
\*---------------------------------------------------------------------------*/
FoamFile
{
    version     2.0;
    format      ascii;
    class       volScalarField;
    location    "10.75";
    object      ddt0(((1.5*(alpha+1e-08))*rho),Theta);
}
// * * * * * * * * * * * * * * * * * * * * * * * * * * * * * * * * * * * * * //

dimensions      [1 -1 -3 0 0 0 0];

internalField   nonuniform List<scalar> 
360
(
-5.88233e-23
-1.71748e-22
-1.04078e-22
-8.19928e-23
-7.67141e-23
-6.85739e-23
-5.87796e-23
-5.05718e-23
-4.45013e-23
-4.02756e-23
-3.75721e-23
-3.61069e-23
-3.56481e-23
-3.60014e-23
-3.70021e-23
-3.85103e-23
-4.0402e-23
-4.2574e-23
-4.49548e-23
-4.74892e-23
-5.0133e-23
-5.28656e-23
-5.56699e-23
-5.85271e-23
-6.14264e-23
-6.43556e-23
-6.73129e-23
-7.03026e-23
-7.33091e-23
-7.63192e-23
-7.93413e-23
-8.23644e-23
-8.53818e-23
-8.84039e-23
-9.14072e-23
-9.43761e-23
-9.73238e-23
-1.00266e-22
-1.03169e-22
-1.06015e-22
-1.08846e-22
-1.11621e-22
-1.14326e-22
-1.17012e-22
-1.19653e-22
-1.22237e-22
-1.24731e-22
-1.27119e-22
-1.29498e-22
-1.31848e-22
-1.34077e-22
-1.36221e-22
-1.38311e-22
-1.4031e-22
-1.42227e-22
-1.44071e-22
-1.45814e-22
-1.47456e-22
-1.48958e-22
-1.50346e-22
-1.5169e-22
-1.52949e-22
-1.54112e-22
-1.55161e-22
-1.56062e-22
-1.56839e-22
-1.5752e-22
-1.58069e-22
-1.58421e-22
-1.58644e-22
-1.58848e-22
-1.58936e-22
-1.58836e-22
-1.58652e-22
-1.58409e-22
-1.58033e-22
-1.57455e-22
-1.56706e-22
-1.55842e-22
-1.54845e-22
-1.53709e-22
-1.5248e-22
-1.51181e-22
-1.49799e-22
-1.48323e-22
-1.46746e-22
-1.45051e-22
-1.43219e-22
-1.41255e-22
-1.39182e-22
-1.37021e-22
-1.34794e-22
-1.32529e-22
-1.30237e-22
-1.27918e-22
-1.25564e-22
-1.23167e-22
-1.20715e-22
-1.18206e-22
-1.15639e-22
-1.13021e-22
-1.10362e-22
-1.07673e-22
-1.04971e-22
-1.02275e-22
-9.96113e-23
-9.70153e-23
-9.45305e-23
-9.22095e-23
-9.01109e-23
-8.82952e-23
-8.68183e-23
-8.57214e-23
-8.50172e-23
-8.46739e-23
-8.45968e-23
-8.46154e-23
-8.44798e-23
-8.3875e-23
-8.24552e-23
-7.98911e-23
-7.59151e-23
-7.03402e-23
-6.3029e-23
-5.38005e-23
-4.22727e-23
-5.58234e-23
-7.49581e-17
-1.92459e-16
-4.94806e-16
-1.21889e-15
-2.8795e-15
-6.5194e-15
-1.4157e-14
-2.96584e-14
-6.10471e-14
-1.29281e-13
-3.04821e-13
-8.4156e-13
-2.59624e-12
-8.31723e-12
-2.83482e-11
-1.36892e-10
-6.95039e-10
-1.37091e-09
1.3375e-07
1.68682e-05
0.0031493
0.125775
1.79206
2.44689
1.3596
0.603764
0.242488
0.0971806
0.0364223
0.00738064
-0.00830301
-0.0174375
-0.0230005
-0.0264553
-0.0285854
-0.0298415
-0.0304974
-0.0307274
-0.0306467
-0.0303347
-0.0298477
-0.0292272
-0.0285046
-0.0277042
-0.0268453
-0.0259436
-0.0250118
-0.0240607
-0.0230991
-0.0221344
-0.021173
-0.0202201
-0.0192801
-0.0183566
-0.0174528
-0.016571
-0.0157132
-0.0148809
-0.0140753
-0.0132971
-0.012547
-0.0118253
-0.0111319
-0.0104667
-0.00982962
-0.00922011
-0.00863766
-0.00808179
-0.00755176
-0.00704693
-0.00656659
-0.00611009
-0.00567679
-0.00526612
-0.00487363
-0.00449595
-0.0041338
-0.00378795
-0.00345914
-0.00314801
-0.00285509
-0.00258068
-0.00232484
-0.00208734
-0.00186768
-0.0016651
-0.00147865
-0.00130728
-0.00114996
-0.00100575
-0.000873933
-0.000753989
-0.000645589
-0.00054814
-0.000461729
-0.000385724
-0.000319713
-0.000262913
-0.000214425
-0.000173338
-0.000138653
-0.000109716
-8.53752e-05
-6.5587e-05
-4.88507e-05
-3.58596e-05
-2.45852e-05
-1.63465e-05
-9.13185e-06
0
0
0
0
0
0
0
0
0
0
0
0
0
0
0
0
0
0
0
0
0
0
0
0
0
0
0
0
0
0
0
0
0
0
0
0
0
0
0
0
0
0
0
0
0
0
0
0
0
0
0
0
0
0
0
0
0
0
0
0
0
0
0
0
0
0
0
0
0
0
0
0
0
0
0
0
0
0
0
0
0
0
0
0
0
0
0
0
0
0
0
0
0
0
0
0
0
0
0
0
0
0
0
0
0
0
0
0
0
0
0
0
0
0
0
0
0
0
0
0
0
0
0
0
)
;

boundaryField
{
    inandouthalf11
    {
        type            cyclic;
    }
    inandouthalf12
    {
        type            cyclic;
    }
    inandouthalf21
    {
        type            cyclic;
    }
    inandouthalf22
    {
        type            cyclic;
    }
    inandouthalf31
    {
        type            cyclic;
    }
    inandouthalf32
    {
        type            cyclic;
    }
    inandouthalf41
    {
        type            cyclic;
    }
    inandouthalf42
    {
        type            cyclic;
    }
    top
    {
        type            symmetryPlane;
    }
    walls
    {
        type            calculated;
        value           uniform -5.88233e-23;
    }
    frontAndBackPlanes
    {
        type            empty;
    }
}


// ************************************************************************* //
