/*--------------------------------*- C++ -*----------------------------------*\
| =========                 |                                                 |
| \\      /  F ield         | OpenFOAM: The Open Source CFD Toolbox           |
|  \\    /   O peration     | Version:  2.4.x                                 |
|   \\  /    A nd           | Web:      www.OpenFOAM.org                      |
|    \\/     M anipulation  |                                                 |
\*---------------------------------------------------------------------------*/
FoamFile
{
    version     2.0;
    format      ascii;
    class       volVectorField;
    location    "10.75";
    object      ddt0(Ua);
}
// * * * * * * * * * * * * * * * * * * * * * * * * * * * * * * * * * * * * * //

dimensions      [0 1 -2 0 0 0 0];

internalField   nonuniform List<vector> 
360
(
(-1.39543e-32 4.12872e-33 0)
(-3.73209e-10 7.75501e-09 0)
(-1.00467e-09 1.33088e-08 0)
(-1.79123e-09 1.75497e-08 0)
(-2.77397e-09 2.143e-08 0)
(-3.94226e-09 2.49643e-08 0)
(-5.24233e-09 2.80731e-08 0)
(-6.63058e-09 3.08024e-08 0)
(-8.07679e-09 3.32399e-08 0)
(-9.55502e-09 3.54698e-08 0)
(-1.10414e-08 3.75672e-08 0)
(-1.25146e-08 3.95979e-08 0)
(-1.3956e-08 4.16187e-08 0)
(-1.5351e-08 4.36785e-08 0)
(-1.66883e-08 4.58188e-08 0)
(-1.79598e-08 4.80742e-08 0)
(-1.91604e-08 5.04727e-08 0)
(-2.02868e-08 5.30359e-08 0)
(-2.13381e-08 5.578e-08 0)
(-2.23145e-08 5.87171e-08 0)
(-2.32178e-08 6.1855e-08 0)
(-2.40506e-08 6.51987e-08 0)
(-2.48162e-08 6.87508e-08 0)
(-2.55186e-08 7.25119e-08 0)
(-2.61621e-08 7.64807e-08 0)
(-2.67512e-08 8.06545e-08 0)
(-2.72904e-08 8.50295e-08 0)
(-2.77846e-08 8.96014e-08 0)
(-2.82383e-08 9.43655e-08 0)
(-2.86563e-08 9.93157e-08 0)
(-2.90429e-08 1.04446e-07 0)
(-2.94024e-08 1.0975e-07 0)
(-2.97392e-08 1.15222e-07 0)
(-3.00571e-08 1.20856e-07 0)
(-3.036e-08 1.26645e-07 0)
(-3.06514e-08 1.32582e-07 0)
(-3.09346e-08 1.38662e-07 0)
(-3.12128e-08 1.44878e-07 0)
(-3.14889e-08 1.51226e-07 0)
(-3.17655e-08 1.57698e-07 0)
(-3.20453e-08 1.6429e-07 0)
(-3.23305e-08 1.70997e-07 0)
(-3.26231e-08 1.77813e-07 0)
(-3.29252e-08 1.84734e-07 0)
(-3.32384e-08 1.91756e-07 0)
(-3.35645e-08 1.98873e-07 0)
(-3.39049e-08 2.06084e-07 0)
(-3.42608e-08 2.13381e-07 0)
(-3.46336e-08 2.2076e-07 0)
(-3.50243e-08 2.28221e-07 0)
(-3.54341e-08 2.35759e-07 0)
(-3.58637e-08 2.43368e-07 0)
(-3.63141e-08 2.51048e-07 0)
(-3.6786e-08 2.58793e-07 0)
(-3.72802e-08 2.66601e-07 0)
(-3.77974e-08 2.74468e-07 0)
(-3.83382e-08 2.82391e-07 0)
(-3.89032e-08 2.90367e-07 0)
(-3.94929e-08 2.98391e-07 0)
(-4.01077e-08 3.06458e-07 0)
(-4.07483e-08 3.14566e-07 0)
(-4.1415e-08 3.22713e-07 0)
(-4.21082e-08 3.30896e-07 0)
(-4.28286e-08 3.39112e-07 0)
(-4.35762e-08 3.47356e-07 0)
(-4.43515e-08 3.55624e-07 0)
(-4.51548e-08 3.63913e-07 0)
(-4.59865e-08 3.72219e-07 0)
(-4.68467e-08 3.80538e-07 0)
(-4.77356e-08 3.88863e-07 0)
(-4.86534e-08 3.97193e-07 0)
(-4.96006e-08 4.05528e-07 0)
(-5.05772e-08 4.13861e-07 0)
(-5.15832e-08 4.22187e-07 0)
(-5.2619e-08 4.30506e-07 0)
(-5.36847e-08 4.38815e-07 0)
(-5.47804e-08 4.47109e-07 0)
(-5.5906e-08 4.55382e-07 0)
(-5.70614e-08 4.63629e-07 0)
(-5.82468e-08 4.71846e-07 0)
(-5.9462e-08 4.80031e-07 0)
(-6.0707e-08 4.88177e-07 0)
(-6.19819e-08 4.96285e-07 0)
(-6.32868e-08 5.0435e-07 0)
(-6.46216e-08 5.1237e-07 0)
(-6.59863e-08 5.20342e-07 0)
(-6.73806e-08 5.28262e-07 0)
(-6.88045e-08 5.36126e-07 0)
(-7.02575e-08 5.43929e-07 0)
(-7.17391e-08 5.51668e-07 0)
(-7.32491e-08 5.59339e-07 0)
(-7.47869e-08 5.6694e-07 0)
(-7.63521e-08 5.74468e-07 0)
(-7.79445e-08 5.81922e-07 0)
(-7.95637e-08 5.89302e-07 0)
(-8.12092e-08 5.96606e-07 0)
(-8.28808e-08 6.03832e-07 0)
(-8.45782e-08 6.10979e-07 0)
(-8.63012e-08 6.18044e-07 0)
(-8.80499e-08 6.25022e-07 0)
(-8.98249e-08 6.31912e-07 0)
(-9.1627e-08 6.38709e-07 0)
(-9.34577e-08 6.45408e-07 0)
(-9.5319e-08 6.52006e-07 0)
(-9.72135e-08 6.58499e-07 0)
(-9.91443e-08 6.64882e-07 0)
(-1.01115e-07 6.71155e-07 0)
(-1.03128e-07 6.77316e-07 0)
(-1.05189e-07 6.83368e-07 0)
(-1.07299e-07 6.89316e-07 0)
(-1.09462e-07 6.9517e-07 0)
(-1.11679e-07 7.00947e-07 0)
(-1.13949e-07 7.06665e-07 0)
(-1.16271e-07 7.12348e-07 0)
(-1.18641e-07 7.18022e-07 0)
(-1.21056e-07 7.23712e-07 0)
(-1.23509e-07 7.29438e-07 0)
(-1.25999e-07 7.35208e-07 0)
(-1.28524e-07 7.41012e-07 0)
(-1.3109e-07 7.46817e-07 0)
(-1.33712e-07 7.5256e-07 0)
(-1.36413e-07 7.58151e-07 0)
(-1.39233e-07 7.63466e-07 0)
(-1.42225e-07 7.6836e-07 0)
(-1.45463e-07 7.72665e-07 0)
(-1.49042e-07 7.76198e-07 0)
(-1.53085e-07 7.78765e-07 0)
(-1.57748e-07 7.80162e-07 0)
(-1.63221e-07 7.80183e-07 0)
(-1.69726e-07 7.78655e-07 0)
(-1.77492e-07 7.75519e-07 0)
(-1.86697e-07 7.70977e-07 0)
(-1.97383e-07 7.65683e-07 0)
(-2.0933e-07 7.60853e-07 0)
(-2.21924e-07 7.58098e-07 0)
(-2.34054e-07 7.58758e-07 0)
(-2.44282e-07 7.62783e-07 0)
(-2.51441e-07 7.68209e-07 0)
(-2.55323e-07 7.72434e-07 0)
(-2.5679e-07 7.74331e-07 0)
(-2.5714e-07 7.74712e-07 0)
(-2.57257e-07 7.74762e-07 0)
(-2.57346e-07 7.74733e-07 0)
(2.49138e-06 4.97221e-06 0)
(6.61247e-06 8.94903e-06 0)
(1.19794e-05 1.34038e-05 0)
(2.04799e-05 1.93166e-05 0)
(3.80959e-05 2.64621e-05 0)
(0.000106276 3.43506e-05 0)
(-0.0987519 0.000271602 0)
(-0.20103 0.00532976 0)
(-0.344317 0.0106171 0)
(-0.509703 0.0246334 0)
(-0.632005 0.0376467 0)
(-0.713357 0.0427501 0)
(-0.768951 0.041634 0)
(-0.809362 0.0370953 0)
(-0.840255 0.0319116 0)
(-0.864814 0.0271058 0)
(-0.884983 0.0228566 0)
(-0.902016 0.0191689 0)
(-0.916752 0.0159925 0)
(-0.929767 0.0132553 0)
(-0.941469 0.0108865 0)
(-0.952149 0.00882413 0)
(-0.962018 0.00701647 0)
(-0.971231 0.00542088 0)
(-0.979903 0.00400274 0)
(-0.988119 0.00273401 0)
(-0.995945 0.00159196 0)
(-1.00343 0.000558147 0)
(-1.01062 -0.000382455 0)
(-1.01754 -0.00124214 0)
(-1.02422 -0.002031 0)
(-1.03067 -0.00275741 0)
(-1.03692 -0.0034283 0)
(-1.04297 -0.00404947 0)
(-1.04885 -0.00462583 0)
(-1.05456 -0.00516151 0)
(-1.06011 -0.00566005 0)
(-1.06551 -0.00612449 0)
(-1.07076 -0.00655747 0)
(-1.07587 -0.00696128 0)
(-1.08086 -0.00733794 0)
(-1.08571 -0.00768925 0)
(-1.09044 -0.00801679 0)
(-1.09506 -0.008322 0)
(-1.09956 -0.00860617 0)
(-1.10394 -0.00887046 0)
(-1.10822 -0.00911596 0)
(-1.11238 -0.0093436 0)
(-1.11645 -0.00955424 0)
(-1.1204 -0.00974863 0)
(-1.12426 -0.00992739 0)
(-1.12801 -0.010091 0)
(-1.13166 -0.0102397 0)
(-1.1352 -0.0103738 0)
(-1.13865 -0.0104931 0)
(-1.14199 -0.0105976 0)
(-1.14523 -0.0106868 0)
(-1.14836 -0.0107606 0)
(-1.15142 -0.0108193 0)
(-1.15444 -0.0108632 0)
(-1.15741 -0.0108919 0)
(-1.16032 -0.0109064 0)
(-1.16318 -0.0109085 0)
(-1.16598 -0.0109016 0)
(-1.16871 -0.0108905 0)
(-1.17138 -0.0108815 0)
(-1.17399 -0.0108816 0)
(-1.17652 -0.0108981 0)
(-1.17898 -0.010937 0)
(-1.18136 -0.0110017 0)
(-1.18366 -0.0110917 0)
(-1.18589 -0.0112023 0)
(-1.18803 -0.0113251 0)
(-1.19007 -0.0114503 0)
(-1.19203 -0.0115678 0)
(-1.19388 -0.0116678 0)
(-1.19563 -0.011742 0)
(-1.19728 -0.0117835 0)
(-1.19881 -0.0117875 0)
(-1.20024 -0.0117522 0)
(-1.20157 -0.011678 0)
(-1.20279 -0.0115676 0)
(-1.20392 -0.011425 0)
(-1.20494 -0.0112552 0)
(-1.20588 -0.0110623 0)
(-1.20672 -0.0108513 0)
(-1.20747 -0.0106242 0)
(-1.20813 -0.0103848 0)
(-1.20871 -0.0101318 0)
(-1.20921 -0.00986729 0)
(-1.20964 -0.00958728 0)
(-1.20999 -0.00927879 0)
(-1.21028 -0.00892512 0)
(-1.21054 -0.00850959 0)
(-1.23418 -0.00728306 0)
(-1.23291 -0.00701824 0)
(-1.23105 -0.00646191 0)
(-1.22882 -0.00655247 0)
(-1.22622 -0.00492527 0)
(-1.22322 -0.00405492 0)
(-1.21986 -0.00317132 0)
(-1.21624 -0.000244487 0)
(-1.21216 -0.00175522 0)
(-1.20839 0.00465958 0)
(-1.20387 -0.00088965 0)
(-1.20026 0.00334252 0)
(-1.19562 0.00607523 0)
(-1.19069 -0.0226103 0)
(-1.18393 0.0514171 0)
(-1.18369 0.0322851 0)
(-1.18148 0.00029221 0)
(-1.17922 -0.000144834 0)
(-1.1771 -9.51751e-05 0)
(-1.17527 -8.7409e-05 0)
(-1.17366 -7.86656e-05 0)
(-1.17225 -7.1732e-05 0)
(-1.17102 -6.62646e-05 0)
(-1.16995 -6.20879e-05 0)
(-1.16903 -5.90323e-05 0)
(-1.16824 -5.69483e-05 0)
(-1.16759 -5.57086e-05 0)
(-1.16706 -5.52092e-05 0)
(-1.16665 -5.53697e-05 0)
(-1.16635 -5.6133e-05 0)
(-1.16617 -5.74678e-05 0)
(-1.16611 -5.93725e-05 0)
(-1.16618 -6.1892e-05 0)
(-1.16637 -6.51675e-05 0)
(-1.16671 -6.94905e-05 0)
(-1.16722 -7.51179e-05 0)
(-1.16799 -9.49109e-05 0)
(-1.16945 -9.68897e-05 0)
(-1.17006 -7.96546e-05 0)
(-1.17009 -7.13489e-05 0)
(-1.17009 -7.09022e-05 0)
(-1.17009 -7.08969e-05 0)
(-1.17009 -7.08967e-05 0)
(-1.17009 -7.08968e-05 0)
(-1.17009 -7.08967e-05 0)
(-1.17009 -7.08969e-05 0)
(-1.17009 -7.08967e-05 0)
(-1.17009 -7.08969e-05 0)
(-1.17009 -7.08966e-05 0)
(-1.17009 -7.08969e-05 0)
(-1.17009 -7.08966e-05 0)
(-1.17009 -7.08969e-05 0)
(-1.17009 -7.08966e-05 0)
(-1.17009 -7.08969e-05 0)
(-1.17009 -7.08966e-05 0)
(-1.17009 -7.08969e-05 0)
(-1.17009 -7.08966e-05 0)
(-1.17009 -7.08969e-05 0)
(-1.17009 -7.08966e-05 0)
(-1.17009 -7.08969e-05 0)
(-1.17009 -7.08966e-05 0)
(-1.17009 -7.08969e-05 0)
(-1.17009 -7.08965e-05 0)
(-1.17009 -7.08969e-05 0)
(-1.17009 -7.08965e-05 0)
(-1.17009 -7.0897e-05 0)
(-1.17009 -7.08965e-05 0)
(-1.17009 -7.0897e-05 0)
(-1.17009 -7.08965e-05 0)
(-1.17009 -7.0897e-05 0)
(-1.17009 -7.08964e-05 0)
(-1.17009 -7.0897e-05 0)
(-1.17009 -7.08964e-05 0)
(-1.17009 -7.08969e-05 0)
(-1.17009 -7.08964e-05 0)
(-1.17009 -7.08969e-05 0)
(-1.17009 -7.08964e-05 0)
(-1.17009 -7.08969e-05 0)
(-1.17009 -7.08963e-05 0)
(-1.17009 -7.08968e-05 0)
(-1.17009 -7.08963e-05 0)
(-1.17009 -7.08968e-05 0)
(-1.17009 -7.08962e-05 0)
(-1.17009 -7.08967e-05 0)
(-1.17009 -7.08962e-05 0)
(-1.17009 -7.08967e-05 0)
(-1.17009 -7.08961e-05 0)
(-1.17009 -7.08966e-05 0)
(-1.17009 -7.0896e-05 0)
(-1.17009 -7.08965e-05 0)
(-1.17009 -7.08958e-05 0)
(-1.17009 -7.0896e-05 0)
(-1.17009 -7.0895e-05 0)
(-1.17009 -7.08951e-05 0)
(-1.17009 -7.0894e-05 0)
(-1.17009 -7.08941e-05 0)
(-1.17009 -7.0893e-05 0)
(-1.17009 -7.08932e-05 0)
(-1.17009 -7.08922e-05 0)
(-1.17009 -7.08924e-05 0)
(-1.17009 -7.08913e-05 0)
(-1.17009 -7.08916e-05 0)
(-1.17009 -7.08909e-05 0)
(-1.17009 -7.08914e-05 0)
(-1.17009 -7.08908e-05 0)
(-1.17009 -7.08917e-05 0)
(-1.17009 -7.08916e-05 0)
(-1.17009 -7.08924e-05 0)
(-1.17009 -7.08917e-05 0)
(-1.17009 -7.08927e-05 0)
(-1.17009 -7.0893e-05 0)
(-1.17009 -7.08948e-05 0)
(-1.17009 -7.08956e-05 0)
(-1.17009 -7.08984e-05 0)
(-1.17009 -7.09003e-05 0)
(-1.17009 -7.09042e-05 0)
(-1.17009 -7.09074e-05 0)
(-1.17009 -7.0912e-05 0)
(-1.17009 -7.09145e-05 0)
(-1.17009 -7.09229e-05 0)
(-1.17009 -7.0995e-05 0)
(-1.17011 -7.25129e-05 0)
(-1.17049 -0.000135422 0)
)
;

boundaryField
{
    inandouthalf11
    {
        type            cyclic;
    }
    inandouthalf12
    {
        type            cyclic;
    }
    inandouthalf21
    {
        type            cyclic;
    }
    inandouthalf22
    {
        type            cyclic;
    }
    inandouthalf31
    {
        type            cyclic;
    }
    inandouthalf32
    {
        type            cyclic;
    }
    inandouthalf41
    {
        type            cyclic;
    }
    inandouthalf42
    {
        type            cyclic;
    }
    top
    {
        type            symmetryPlane;
    }
    walls
    {
        type            calculated;
        value           uniform (0 0 0);
    }
    frontAndBackPlanes
    {
        type            empty;
    }
}


// ************************************************************************* //
