/*--------------------------------*- C++ -*----------------------------------*\
| =========                 |                                                 |
| \\      /  F ield         | OpenFOAM: The Open Source CFD Toolbox           |
|  \\    /   O peration     | Version:  2.4.x                                 |
|   \\  /    A nd           | Web:      www.OpenFOAM.org                      |
|    \\/     M anipulation  |                                                 |
\*---------------------------------------------------------------------------*/
FoamFile
{
    version     2.0;
    format      ascii;
    class       volScalarField;
    location    "10.75";
    object      ddt0(alpha);
}
// * * * * * * * * * * * * * * * * * * * * * * * * * * * * * * * * * * * * * //

dimensions      [0 0 -1 0 0 0 0];

internalField   nonuniform List<scalar> 
360
(
7.24326e-06
1.08025e-05
9.93477e-06
9.43368e-06
9.52204e-06
9.5159e-06
9.33168e-06
9.09429e-06
8.85883e-06
8.63605e-06
8.42019e-06
8.20692e-06
8.00045e-06
7.80325e-06
7.6196e-06
7.45215e-06
7.30158e-06
7.16765e-06
7.05035e-06
6.95112e-06
6.86654e-06
6.79925e-06
6.74701e-06
6.70903e-06
6.68459e-06
6.67235e-06
6.67094e-06
6.68112e-06
6.70022e-06
6.7274e-06
6.76185e-06
6.80447e-06
6.84992e-06
6.90425e-06
6.95974e-06
7.02033e-06
7.08251e-06
7.14825e-06
7.21722e-06
7.28326e-06
7.35477e-06
7.42494e-06
7.49295e-06
7.565e-06
7.63405e-06
7.70332e-06
7.7721e-06
7.8356e-06
7.90082e-06
7.96746e-06
8.0271e-06
8.08808e-06
8.14528e-06
8.20262e-06
8.25416e-06
8.30868e-06
8.35541e-06
8.4034e-06
8.44657e-06
8.48423e-06
8.52585e-06
8.55993e-06
8.59584e-06
8.6261e-06
8.65427e-06
8.67795e-06
8.70019e-06
8.7189e-06
8.73321e-06
8.74216e-06
8.75282e-06
8.76152e-06
8.76151e-06
8.76371e-06
8.76115e-06
8.75813e-06
8.7476e-06
8.73367e-06
8.71656e-06
8.69645e-06
8.67175e-06
8.64525e-06
8.61672e-06
8.58561e-06
8.55218e-06
8.5154e-06
8.47555e-06
8.43123e-06
8.38275e-06
8.3307e-06
8.27533e-06
8.21705e-06
8.15677e-06
8.09453e-06
8.03028e-06
7.96383e-06
7.89495e-06
7.8235e-06
7.74958e-06
7.67364e-06
7.59631e-06
7.51842e-06
7.441e-06
7.3651e-06
7.29178e-06
7.22213e-06
7.15718e-06
7.09784e-06
7.04475e-06
6.99815e-06
6.95771e-06
6.92237e-06
6.89027e-06
6.85874e-06
6.82442e-06
6.78362e-06
6.73282e-06
6.66946e-06
6.59289e-06
6.50528e-06
6.41261e-06
6.32525e-06
6.25846e-06
6.23259e-06
6.27322e-06
6.41145e-06
6.68384e-06
7.13096e-06
7.79228e-06
8.69369e-06
9.82439e-06
1.11033e-05
1.23394e-05
1.31912e-05
1.31579e-05
1.1733e-05
8.84865e-06
5.24534e-06
2.11719e-06
2.48267e-07
-4.76682e-07
-8.41306e-06
0.000238229
0.000357431
0.000423502
0.000571823
0.000920634
0.00103888
-0.000987278
-0.343247
0.102594
0.176548
0.126448
0.0574093
0.0202624
0.00361632
-0.00295925
-0.00553433
-0.00655261
-0.00687513
-0.0068626
-0.0066879
-0.00643581
-0.00614949
-0.00585172
-0.00555467
-0.00526479
-0.00498539
-0.004718
-0.00446315
-0.00422084
-0.00399072
-0.00377232
-0.00356509
-0.00336844
-0.0031818
-0.00300464
-0.00283642
-0.00267666
-0.00252492
-0.00238076
-0.00224379
-0.00211366
-0.00199001
-0.00187253
-0.00176092
-0.00165491
-0.00155422
-0.0014586
-0.00136782
-0.00128165
-0.00119987
-0.00112226
-0.00104862
-0.000978762
-0.000912486
-0.00084961
-0.000789964
-0.000733388
-0.000679743
-0.000628911
-0.000580316
-0.000533546
-0.000488712
-0.000445958
-0.000405446
-0.000367337
-0.000331777
-0.000298871
-0.000268662
-0.000241117
-0.000216116
-0.000193458
-0.000172874
-0.00015406
-0.000136716
-0.000120593
-0.000105519
-9.14119e-05
-7.82829e-05
-6.62121e-05
-5.53095e-05
-4.56708e-05
-3.73366e-05
-3.02809e-05
-2.44041e-05
-1.96053e-05
-1.56537e-05
-1.25451e-05
-9.90437e-06
-7.95498e-06
-6.13809e-06
-4.99583e-06
-3.70336e-06
-2.9134e-06
-2.18084e-06
-4.21006e-06
-2.97165e-06
-1.74865e-06
-8.81213e-07
-3.44991e-07
-3.37377e-08
1.3038e-07
1.90451e-07
1.9488e-07
1.60126e-07
1.32348e-07
8.39123e-08
6.68877e-08
3.53645e-08
2.53016e-08
1.25145e-08
-1.29085e-24
-3.34974e-222
-5.58888e-49
-1.18935e-53
-2.82788e-55
-1.53119e-58
-3.68888e-60
-6.25875e-63
-2.32643e-63
-1.15585e-63
-5.7776e-64
-2.84436e-64
-1.37803e-64
-6.56685e-65
-3.07654e-65
-1.41627e-65
-6.40275e-66
-2.84101e-66
-1.23651e-66
-5.27545e-67
-2.20478e-67
-9.01982e-68
-3.60942e-68
-1.41137e-68
-5.3882e-69
-2.00707e-69
-7.28769e-70
-2.57684e-70
-8.86309e-71
-2.96198e-71
-9.60596e-72
-3.01912e-72
-9.1829e-73
-2.69875e-73
-7.6506e-74
-2.08825e-74
-5.47715e-75
-1.37738e-75
-3.31305e-76
-7.60168e-77
-1.65882e-77
-3.43118e-78
-6.70189e-79
-1.23082e-79
-2.11489e-80
-3.38061e-81
-4.99351e-82
-6.76167e-83
-8.3129e-84
-9.1693e-85
-8.93871e-86
-7.55171e-87
-5.38337e-88
-3.11599e-89
-1.37877e-90
-4.18454e-92
-6.7419e-94
-8.56441e-97
-2.76531e-103
-1.74194e-105
-5.42948e-108
-2.23757e-118
-4.71928e-129
-7.49068e-140
-8.68533e-151
-8.8004e-162
-6.92701e-173
-4.69307e-184
-8.73466e-195
-3.71926e-205
-2.0997e-213
-1.05907e-223
-7.22089e-232
-4.3125e-242
-2.48623e-250
-1.82344e-260
-8.57414e-269
-1.17167e-278
-3.04075e-287
-7.78384e-297
-1.12385e-305
-3.69599e-315
-1.65808e-320
0
0
0
0
0
0
0
0
0
0
0
0
0
0
0
0
0
0
0
0
0
0
0
0
0
)
;

boundaryField
{
    inandouthalf11
    {
        type            cyclic;
    }
    inandouthalf12
    {
        type            cyclic;
    }
    inandouthalf21
    {
        type            cyclic;
    }
    inandouthalf22
    {
        type            cyclic;
    }
    inandouthalf31
    {
        type            cyclic;
    }
    inandouthalf32
    {
        type            cyclic;
    }
    inandouthalf41
    {
        type            cyclic;
    }
    inandouthalf42
    {
        type            cyclic;
    }
    top
    {
        type            symmetryPlane;
    }
    walls
    {
        type            calculated;
        value           uniform 7.24326e-06;
    }
    frontAndBackPlanes
    {
        type            empty;
    }
}


// ************************************************************************* //
