/*--------------------------------*- C++ -*----------------------------------*\
| =========                 |                                                 |
| \\      /  F ield         | OpenFOAM: The Open Source CFD Toolbox           |
|  \\    /   O peration     | Version:  2.4.x                                 |
|   \\  /    A nd           | Web:      www.OpenFOAM.org                      |
|    \\/     M anipulation  |                                                 |
\*---------------------------------------------------------------------------*/
FoamFile
{
    version     2.0;
    format      ascii;
    class       surfaceScalarField;
    location    "10.75";
    object      ddt0(phia);
}
// * * * * * * * * * * * * * * * * * * * * * * * * * * * * * * * * * * * * * //

dimensions      [0 3 -2 0 0 0 0];

internalField   nonuniform List<scalar> 
359
(
1.67037e-14
4.12121e-14
6.13786e-14
7.79874e-14
9.28239e-14
1.06076e-13
1.17747e-13
1.28084e-13
1.37419e-13
1.46074e-13
1.5433e-13
1.62433e-13
1.70594e-13
1.78994e-13
1.87786e-13
1.97094e-13
2.07017e-13
2.17632e-13
2.28994e-13
2.41145e-13
2.54107e-13
2.67899e-13
2.82526e-13
2.97985e-13
3.1427e-13
3.31368e-13
3.49261e-13
3.67934e-13
3.87362e-13
4.07523e-13
4.28392e-13
4.49947e-13
4.72155e-13
4.95003e-13
5.18454e-13
5.42489e-13
5.6708e-13
5.92206e-13
6.1785e-13
6.43975e-13
6.70575e-13
6.97623e-13
7.25093e-13
7.5298e-13
7.81258e-13
8.09914e-13
8.38931e-13
8.68281e-13
8.97959e-13
9.2796e-13
9.58253e-13
9.88833e-13
1.01968e-12
1.05079e-12
1.08214e-12
1.11372e-12
1.14551e-12
1.17751e-12
1.2097e-12
1.24204e-12
1.27456e-12
1.30722e-12
1.34002e-12
1.37294e-12
1.40596e-12
1.43907e-12
1.47226e-12
1.50551e-12
1.5388e-12
1.57211e-12
1.60544e-12
1.63878e-12
1.67209e-12
1.70539e-12
1.73864e-12
1.77185e-12
1.80498e-12
1.83802e-12
1.87095e-12
1.90375e-12
1.93642e-12
1.96892e-12
2.00127e-12
2.03344e-12
2.06542e-12
2.09721e-12
2.12877e-12
2.16011e-12
2.19119e-12
2.22201e-12
2.25256e-12
2.28281e-12
2.31278e-12
2.34245e-12
2.37182e-12
2.40088e-12
2.42962e-12
2.45805e-12
2.48613e-12
2.51387e-12
2.54124e-12
2.56823e-12
2.59483e-12
2.62101e-12
2.64676e-12
2.67208e-12
2.69694e-12
2.72137e-12
2.74537e-12
2.76897e-12
2.79223e-12
2.81522e-12
2.83802e-12
2.86074e-12
2.88347e-12
2.9063e-12
2.92929e-12
2.95244e-12
2.97566e-12
2.99875e-12
3.02142e-12
3.04323e-12
3.06365e-12
3.08205e-12
3.09772e-12
3.10993e-12
3.11785e-12
3.12069e-12
3.11768e-12
3.10835e-12
3.09299e-12
3.07332e-12
3.05307e-12
3.0379e-12
3.03371e-12
3.04309e-12
3.062e-12
3.08129e-12
3.09352e-12
3.09809e-12
3.09895e-12
3.09907e-12
1.25808e-11
2.7141e-11
4.39101e-11
6.53489e-11
9.67792e-11
1.35468e-10
2.59881e-10
1.2977e-08
3.28922e-08
6.98046e-08
1.25863e-07
1.61687e-07
1.71215e-07
1.57274e-07
1.37431e-07
1.17875e-07
9.98777e-08
8.4018e-08
7.03062e-08
5.8488e-08
4.82793e-08
3.94188e-08
3.16798e-08
2.48737e-08
1.88465e-08
1.34729e-08
8.65138e-09
4.29968e-09
3.5085e-10
-3.24972e-09
-6.54683e-09
-9.57737e-09
-1.23719e-08
-1.49561e-08
-1.73511e-08
-1.95752e-08
-2.16436e-08
-2.35696e-08
-2.53644e-08
-2.70379e-08
-2.85989e-08
-3.00548e-08
-3.14125e-08
-3.26779e-08
-3.38567e-08
-3.49536e-08
-3.59731e-08
-3.69194e-08
-3.77959e-08
-3.86059e-08
-3.93522e-08
-4.00369e-08
-4.06615e-08
-4.12272e-08
-4.17339e-08
-4.21815e-08
-4.25688e-08
-4.28949e-08
-4.3159e-08
-4.33646e-08
-4.35103e-08
-4.35972e-08
-4.36307e-08
-4.36212e-08
-4.35852e-08
-4.35446e-08
-4.35261e-08
-4.35582e-08
-4.36676e-08
-4.38736e-08
-4.41827e-08
-4.45842e-08
-4.50516e-08
-4.55483e-08
-4.60341e-08
-4.64698e-08
-4.68193e-08
-4.70516e-08
-4.71436e-08
-4.70819e-08
-4.68633e-08
-4.64944e-08
-4.59893e-08
-4.53631e-08
-4.46411e-08
-4.38279e-08
-4.29605e-08
-4.20154e-08
-4.1048e-08
-3.99911e-08
-3.89202e-08
-3.77431e-08
-3.66212e-08
-3.37552e-08
-3.34201e-08
-3.07619e-08
-2.27139e-08
-2.51658e-08
-2.28105e-08
-1.91486e-08
-1.40146e-08
-8.04528e-09
-2.28301e-09
3.32928e-09
1.08255e-08
2.5002e-09
2.28686e-08
-2.67766e-08
6.78237e-08
2.00339e-07
2.07232e-08
3.05092e-10
-4.77902e-10
-3.62298e-10
-3.29551e-10
-2.98479e-10
-2.73974e-10
-2.54965e-10
-2.40749e-10
-2.30685e-10
-2.24218e-10
-2.20888e-10
-2.20326e-10
-2.22256e-10
-2.26501e-10
-2.32988e-10
-2.41776e-10
-2.53137e-10
-2.67706e-10
-2.88124e-10
-3.1503e-10
-4.29877e-10
-3.56954e-10
-2.83625e-10
-2.83401e-10
-2.83584e-10
-2.83587e-10
-2.83587e-10
-2.83587e-10
-2.83587e-10
-2.83587e-10
-2.83587e-10
-2.83587e-10
-2.83587e-10
-2.83587e-10
-2.83587e-10
-2.83587e-10
-2.83587e-10
-2.83587e-10
-2.83587e-10
-2.83587e-10
-2.83587e-10
-2.83587e-10
-2.83587e-10
-2.83587e-10
-2.83587e-10
-2.83587e-10
-2.83587e-10
-2.83587e-10
-2.83587e-10
-2.83587e-10
-2.83587e-10
-2.83587e-10
-2.83587e-10
-2.83587e-10
-2.83587e-10
-2.83587e-10
-2.83587e-10
-2.83587e-10
-2.83586e-10
-2.83587e-10
-2.83586e-10
-2.83586e-10
-2.83586e-10
-2.83586e-10
-2.83586e-10
-2.83586e-10
-2.83586e-10
-2.83586e-10
-2.83586e-10
-2.83586e-10
-2.83585e-10
-2.83585e-10
-2.83585e-10
-2.83585e-10
-2.83584e-10
-2.83582e-10
-2.8358e-10
-2.83578e-10
-2.83576e-10
-2.83574e-10
-2.83572e-10
-2.83571e-10
-2.8357e-10
-2.83567e-10
-2.83566e-10
-2.83565e-10
-2.83565e-10
-2.83564e-10
-2.83565e-10
-2.83566e-10
-2.83569e-10
-2.83567e-10
-2.83569e-10
-2.8357e-10
-2.83576e-10
-2.8358e-10
-2.83588e-10
-2.83597e-10
-2.83608e-10
-2.83623e-10
-2.83639e-10
-2.83655e-10
-2.8367e-10
-2.83843e-10
-2.87019e-10
-4.33643e-10
)
;

boundaryField
{
    inandouthalf11
    {
        type            cyclic;
        value           nonuniform List<scalar> 
100
(
1.39543e-38
3.73209e-16
1.00467e-15
1.79123e-15
2.77397e-15
3.94226e-15
5.24233e-15
6.63058e-15
8.07679e-15
9.55502e-15
1.10414e-14
1.25146e-14
1.3956e-14
1.5351e-14
1.66883e-14
1.79598e-14
1.91604e-14
2.02868e-14
2.13381e-14
2.23145e-14
2.32178e-14
2.40506e-14
2.48162e-14
2.55186e-14
2.61621e-14
2.67512e-14
2.72904e-14
2.77846e-14
2.82383e-14
2.86563e-14
2.90429e-14
2.94024e-14
2.97392e-14
3.00571e-14
3.036e-14
3.06514e-14
3.09346e-14
3.12128e-14
3.14889e-14
3.17655e-14
3.20453e-14
3.23305e-14
3.26231e-14
3.29252e-14
3.32384e-14
3.35645e-14
3.39049e-14
3.42608e-14
3.46336e-14
3.50243e-14
3.54341e-14
3.58637e-14
3.63141e-14
3.6786e-14
3.72802e-14
3.77974e-14
3.83382e-14
3.89032e-14
3.94929e-14
4.01077e-14
4.07483e-14
4.1415e-14
4.21082e-14
4.28286e-14
4.35762e-14
4.43515e-14
4.51548e-14
4.59865e-14
4.68467e-14
4.77356e-14
4.86534e-14
4.96006e-14
5.05772e-14
5.15832e-14
5.2619e-14
5.36847e-14
5.47804e-14
5.5906e-14
5.70614e-14
5.82468e-14
5.9462e-14
6.0707e-14
6.19819e-14
6.32868e-14
6.46216e-14
6.59863e-14
6.73806e-14
6.88045e-14
7.02575e-14
7.17391e-14
7.32491e-14
7.47869e-14
7.63521e-14
7.79445e-14
7.95637e-14
8.12092e-14
8.28808e-14
8.45782e-14
8.63012e-14
8.80499e-14
)
;
    }
    inandouthalf12
    {
        type            cyclic;
        value           nonuniform List<scalar> 
100
(
-1.39543e-38
-3.73209e-16
-1.00467e-15
-1.79123e-15
-2.77397e-15
-3.94226e-15
-5.24233e-15
-6.63058e-15
-8.07679e-15
-9.55502e-15
-1.10414e-14
-1.25146e-14
-1.3956e-14
-1.5351e-14
-1.66883e-14
-1.79598e-14
-1.91604e-14
-2.02868e-14
-2.13381e-14
-2.23145e-14
-2.32178e-14
-2.40506e-14
-2.48162e-14
-2.55186e-14
-2.61621e-14
-2.67512e-14
-2.72904e-14
-2.77846e-14
-2.82383e-14
-2.86563e-14
-2.90429e-14
-2.94024e-14
-2.97392e-14
-3.00571e-14
-3.036e-14
-3.06514e-14
-3.09346e-14
-3.12128e-14
-3.14889e-14
-3.17655e-14
-3.20453e-14
-3.23305e-14
-3.26231e-14
-3.29252e-14
-3.32384e-14
-3.35645e-14
-3.39049e-14
-3.42608e-14
-3.46336e-14
-3.50243e-14
-3.54341e-14
-3.58637e-14
-3.63141e-14
-3.6786e-14
-3.72802e-14
-3.77974e-14
-3.83382e-14
-3.89032e-14
-3.94929e-14
-4.01077e-14
-4.07483e-14
-4.1415e-14
-4.21082e-14
-4.28286e-14
-4.35762e-14
-4.43515e-14
-4.51548e-14
-4.59865e-14
-4.68467e-14
-4.77356e-14
-4.86534e-14
-4.96006e-14
-5.05772e-14
-5.15832e-14
-5.2619e-14
-5.36847e-14
-5.47804e-14
-5.5906e-14
-5.70614e-14
-5.82468e-14
-5.9462e-14
-6.0707e-14
-6.19819e-14
-6.32868e-14
-6.46216e-14
-6.59863e-14
-6.73806e-14
-6.88045e-14
-7.02575e-14
-7.17391e-14
-7.32491e-14
-7.47869e-14
-7.63521e-14
-7.79445e-14
-7.95637e-14
-8.12092e-14
-8.28808e-14
-8.45782e-14
-8.63012e-14
-8.80499e-14
)
;
    }
    inandouthalf21
    {
        type            cyclic;
        value           nonuniform List<scalar> 
100
(
8.98249e-14
9.1627e-14
9.34577e-14
9.5319e-14
9.72135e-14
9.91443e-14
1.01115e-13
1.03128e-13
1.05189e-13
1.07299e-13
1.09462e-13
1.11679e-13
1.13949e-13
1.16271e-13
1.18641e-13
1.21056e-13
1.23509e-13
1.25999e-13
1.28524e-13
1.3109e-13
1.33712e-13
1.36413e-13
1.39233e-13
1.42225e-13
1.45463e-13
1.49042e-13
1.53085e-13
1.57748e-13
1.63221e-13
1.69726e-13
1.77492e-13
1.86697e-13
1.97383e-13
2.0933e-13
2.21924e-13
2.34054e-13
2.44282e-13
2.51441e-13
2.55323e-13
2.5679e-13
2.5714e-13
2.57257e-13
2.57346e-13
-2.49138e-12
-6.61247e-12
-1.19794e-11
-2.04799e-11
-3.80959e-11
-1.06276e-10
9.87519e-08
2.0103e-07
3.44317e-07
5.09703e-07
6.32005e-07
7.13357e-07
7.68951e-07
8.09362e-07
8.40255e-07
8.64814e-07
8.84983e-07
9.02016e-07
9.16752e-07
9.29767e-07
9.41469e-07
9.52149e-07
9.62018e-07
9.71231e-07
9.79903e-07
9.88119e-07
9.95945e-07
1.00343e-06
1.01062e-06
1.01754e-06
1.02422e-06
1.03067e-06
1.03692e-06
1.04297e-06
1.04885e-06
1.05456e-06
1.06011e-06
1.06551e-06
1.07076e-06
1.07587e-06
1.08086e-06
1.08571e-06
1.09044e-06
1.09506e-06
1.09956e-06
1.10394e-06
1.10822e-06
1.11238e-06
1.11645e-06
1.1204e-06
1.12426e-06
1.12801e-06
1.13166e-06
1.1352e-06
1.13865e-06
1.14199e-06
1.14523e-06
)
;
    }
    inandouthalf22
    {
        type            cyclic;
        value           nonuniform List<scalar> 
100
(
-8.98249e-14
-9.1627e-14
-9.34577e-14
-9.5319e-14
-9.72135e-14
-9.91443e-14
-1.01115e-13
-1.03128e-13
-1.05189e-13
-1.07299e-13
-1.09462e-13
-1.11679e-13
-1.13949e-13
-1.16271e-13
-1.18641e-13
-1.21056e-13
-1.23509e-13
-1.25999e-13
-1.28524e-13
-1.3109e-13
-1.33712e-13
-1.36413e-13
-1.39233e-13
-1.42225e-13
-1.45463e-13
-1.49042e-13
-1.53085e-13
-1.57748e-13
-1.63221e-13
-1.69726e-13
-1.77492e-13
-1.86697e-13
-1.97383e-13
-2.0933e-13
-2.21924e-13
-2.34054e-13
-2.44282e-13
-2.51441e-13
-2.55323e-13
-2.5679e-13
-2.5714e-13
-2.57257e-13
-2.57346e-13
2.49138e-12
6.61247e-12
1.19794e-11
2.04799e-11
3.80959e-11
1.06276e-10
-9.87519e-08
-2.0103e-07
-3.44317e-07
-5.09703e-07
-6.32005e-07
-7.13357e-07
-7.68951e-07
-8.09362e-07
-8.40255e-07
-8.64814e-07
-8.84983e-07
-9.02016e-07
-9.16752e-07
-9.29767e-07
-9.41469e-07
-9.52149e-07
-9.62018e-07
-9.71231e-07
-9.79903e-07
-9.88119e-07
-9.95945e-07
-1.00343e-06
-1.01062e-06
-1.01754e-06
-1.02422e-06
-1.03067e-06
-1.03692e-06
-1.04297e-06
-1.04885e-06
-1.05456e-06
-1.06011e-06
-1.06551e-06
-1.07076e-06
-1.07587e-06
-1.08086e-06
-1.08571e-06
-1.09044e-06
-1.09506e-06
-1.09956e-06
-1.10394e-06
-1.10822e-06
-1.11238e-06
-1.11645e-06
-1.1204e-06
-1.12426e-06
-1.12801e-06
-1.13166e-06
-1.1352e-06
-1.13865e-06
-1.14199e-06
-1.14523e-06
)
;
    }
    inandouthalf31
    {
        type            cyclic;
        value           nonuniform List<scalar> 
110
(
1.14837e-06
1.1748e-06
1.20178e-06
1.22933e-06
1.25744e-06
1.28612e-06
1.31538e-06
1.34523e-06
1.37567e-06
1.40671e-06
1.43836e-06
1.47062e-06
1.5035e-06
1.53701e-06
1.57116e-06
1.60594e-06
1.64136e-06
1.67742e-06
1.71413e-06
1.75149e-06
1.78949e-06
1.82816e-06
1.86749e-06
1.90751e-06
1.9482e-06
1.98961e-06
2.03172e-06
2.07456e-06
2.11814e-06
2.16248e-06
2.20759e-06
2.25348e-06
2.30018e-06
2.34768e-06
2.39604e-06
2.44525e-06
2.49541e-06
2.59579e-06
2.64576e-06
2.69538e-06
2.74511e-06
2.79489e-06
2.84466e-06
2.89442e-06
2.9444e-06
2.9941e-06
3.04537e-06
3.09554e-06
3.14891e-06
3.2004e-06
3.25191e-06
3.29907e-06
3.36536e-06
3.42725e-06
3.49013e-06
3.55457e-06
3.62108e-06
3.68951e-06
3.75987e-06
3.83215e-06
3.90636e-06
3.98251e-06
4.06063e-06
4.14073e-06
4.22285e-06
4.30705e-06
4.39336e-06
4.48184e-06
4.57258e-06
4.66564e-06
4.76114e-06
4.8592e-06
4.95999e-06
5.064e-06
5.17322e-06
5.281e-06
5.38834e-06
5.49771e-06
5.6093e-06
5.72315e-06
5.83932e-06
5.95784e-06
6.07877e-06
6.20215e-06
6.32804e-06
6.45648e-06
6.58753e-06
6.72124e-06
6.85766e-06
6.99685e-06
7.13887e-06
7.28377e-06
7.43161e-06
7.58245e-06
7.73636e-06
7.89338e-06
8.0536e-06
8.21707e-06
8.38385e-06
8.55402e-06
8.72764e-06
8.90479e-06
9.08554e-06
9.26995e-06
9.4581e-06
9.65008e-06
9.84595e-06
1.00458e-05
1.02497e-05
1.04577e-05
)
;
    }
    inandouthalf32
    {
        type            cyclic;
        value           nonuniform List<scalar> 
110
(
-1.14837e-06
-1.1748e-06
-1.20178e-06
-1.22933e-06
-1.25744e-06
-1.28612e-06
-1.31538e-06
-1.34523e-06
-1.37567e-06
-1.40671e-06
-1.43836e-06
-1.47062e-06
-1.5035e-06
-1.53701e-06
-1.57116e-06
-1.60594e-06
-1.64136e-06
-1.67742e-06
-1.71413e-06
-1.75149e-06
-1.78949e-06
-1.82816e-06
-1.86749e-06
-1.90751e-06
-1.9482e-06
-1.98961e-06
-2.03172e-06
-2.07456e-06
-2.11814e-06
-2.16248e-06
-2.20759e-06
-2.25348e-06
-2.30018e-06
-2.34768e-06
-2.39604e-06
-2.44525e-06
-2.49541e-06
-2.59579e-06
-2.64576e-06
-2.69538e-06
-2.74511e-06
-2.79489e-06
-2.84466e-06
-2.89442e-06
-2.9444e-06
-2.9941e-06
-3.04537e-06
-3.09554e-06
-3.14891e-06
-3.2004e-06
-3.25191e-06
-3.29907e-06
-3.36536e-06
-3.42725e-06
-3.49013e-06
-3.55457e-06
-3.62108e-06
-3.68951e-06
-3.75987e-06
-3.83215e-06
-3.90636e-06
-3.98251e-06
-4.06063e-06
-4.14073e-06
-4.22285e-06
-4.30705e-06
-4.39336e-06
-4.48184e-06
-4.57258e-06
-4.66564e-06
-4.76114e-06
-4.8592e-06
-4.95999e-06
-5.064e-06
-5.17322e-06
-5.281e-06
-5.38834e-06
-5.49771e-06
-5.6093e-06
-5.72315e-06
-5.83932e-06
-5.95784e-06
-6.07877e-06
-6.20215e-06
-6.32804e-06
-6.45648e-06
-6.58753e-06
-6.72124e-06
-6.85766e-06
-6.99685e-06
-7.13887e-06
-7.28377e-06
-7.43161e-06
-7.58245e-06
-7.73636e-06
-7.89338e-06
-8.0536e-06
-8.21707e-06
-8.38385e-06
-8.55402e-06
-8.72764e-06
-8.90479e-06
-9.08554e-06
-9.26995e-06
-9.4581e-06
-9.65008e-06
-9.84595e-06
-1.00458e-05
-1.02497e-05
-1.04577e-05
)
;
    }
    inandouthalf41
    {
        type            cyclic;
        value           nonuniform List<scalar> 
50
(
9.36074e-06
9.36074e-06
9.36074e-06
9.36074e-06
9.36074e-06
9.36074e-06
9.36074e-06
9.36074e-06
9.36074e-06
9.36074e-06
9.36074e-06
9.36074e-06
9.36074e-06
9.36074e-06
9.36074e-06
9.36074e-06
9.36074e-06
9.36074e-06
9.36074e-06
9.36074e-06
9.36074e-06
9.36074e-06
9.36074e-06
9.36074e-06
9.36074e-06
9.36074e-06
9.36074e-06
9.36074e-06
9.36074e-06
9.36074e-06
9.36074e-06
9.36074e-06
9.36074e-06
9.36074e-06
9.36074e-06
9.36074e-06
9.36074e-06
9.36074e-06
9.36074e-06
9.36074e-06
9.36074e-06
9.36074e-06
9.36074e-06
9.36074e-06
9.36074e-06
9.36074e-06
9.36074e-06
9.36075e-06
9.36088e-06
9.36392e-06
)
;
    }
    inandouthalf42
    {
        type            cyclic;
        value           nonuniform List<scalar> 
50
(
-9.36074e-06
-9.36074e-06
-9.36074e-06
-9.36074e-06
-9.36074e-06
-9.36074e-06
-9.36074e-06
-9.36074e-06
-9.36074e-06
-9.36074e-06
-9.36074e-06
-9.36074e-06
-9.36074e-06
-9.36074e-06
-9.36074e-06
-9.36074e-06
-9.36074e-06
-9.36074e-06
-9.36074e-06
-9.36074e-06
-9.36074e-06
-9.36074e-06
-9.36074e-06
-9.36074e-06
-9.36074e-06
-9.36074e-06
-9.36074e-06
-9.36074e-06
-9.36074e-06
-9.36074e-06
-9.36074e-06
-9.36074e-06
-9.36074e-06
-9.36074e-06
-9.36074e-06
-9.36074e-06
-9.36074e-06
-9.36074e-06
-9.36074e-06
-9.36074e-06
-9.36074e-06
-9.36074e-06
-9.36074e-06
-9.36074e-06
-9.36074e-06
-9.36074e-06
-9.36074e-06
-9.36075e-06
-9.36088e-06
-9.36392e-06
)
;
    }
    top
    {
        type            symmetryPlane;
        value           uniform 0;
    }
    walls
    {
        type            calculated;
        value           uniform 0;
    }
    frontAndBackPlanes
    {
        type            empty;
        value           nonuniform 0();
    }
}


// ************************************************************************* //
