/*--------------------------------*- C++ -*----------------------------------*\
| =========                 |                                                 |
| \\      /  F ield         | OpenFOAM: The Open Source CFD Toolbox           |
|  \\    /   O peration     | Version:  2.4.x                                 |
|   \\  /    A nd           | Web:      www.OpenFOAM.org                      |
|    \\/     M anipulation  |                                                 |
\*---------------------------------------------------------------------------*/
FoamFile
{
    version     2.0;
    format      ascii;
    class       surfaceScalarField;
    location    "10.75";
    object      phia;
}
// * * * * * * * * * * * * * * * * * * * * * * * * * * * * * * * * * * * * * //

dimensions      [0 3 -1 0 0 0 0];

internalField   nonuniform List<scalar> 
359
(
-2.36507e-14
-5.89716e-14
-9.14561e-14
-1.22292e-13
-1.53423e-13
-1.84535e-13
-2.15048e-13
-2.44789e-13
-2.73762e-13
-3.0201e-13
-3.29554e-13
-3.56402e-13
-3.82578e-13
-4.0811e-13
-4.33044e-13
-4.57432e-13
-4.81329e-13
-5.0479e-13
-5.2787e-13
-5.50626e-13
-5.73107e-13
-5.9537e-13
-6.17464e-13
-6.39435e-13
-6.61328e-13
-6.83183e-13
-7.05036e-13
-7.26923e-13
-7.48875e-13
-7.70918e-13
-7.93076e-13
-8.15376e-13
-8.37826e-13
-8.60457e-13
-8.83272e-13
-9.06287e-13
-9.29508e-13
-9.52948e-13
-9.76615e-13
-1.0005e-12
-1.02463e-12
-1.04898e-12
-1.07356e-12
-1.09839e-12
-1.12344e-12
-1.14872e-12
-1.17423e-12
-1.19995e-12
-1.22588e-12
-1.25204e-12
-1.2784e-12
-1.30496e-12
-1.33172e-12
-1.35866e-12
-1.38578e-12
-1.41308e-12
-1.44054e-12
-1.46816e-12
-1.49593e-12
-1.52382e-12
-1.55186e-12
-1.58001e-12
-1.60829e-12
-1.63667e-12
-1.66515e-12
-1.69371e-12
-1.72235e-12
-1.75105e-12
-1.77981e-12
-1.80861e-12
-1.83744e-12
-1.86631e-12
-1.89519e-12
-1.92408e-12
-1.95297e-12
-1.98185e-12
-2.01071e-12
-2.03953e-12
-2.0683e-12
-2.09701e-12
-2.12565e-12
-2.15421e-12
-2.18269e-12
-2.21107e-12
-2.23935e-12
-2.26752e-12
-2.29556e-12
-2.32347e-12
-2.35123e-12
-2.37883e-12
-2.40626e-12
-2.4335e-12
-2.46056e-12
-2.48743e-12
-2.51409e-12
-2.54055e-12
-2.56679e-12
-2.59281e-12
-2.6186e-12
-2.64415e-12
-2.66946e-12
-2.69453e-12
-2.71936e-12
-2.74395e-12
-2.76831e-12
-2.79247e-12
-2.81642e-12
-2.8402e-12
-2.86382e-12
-2.8873e-12
-2.91067e-12
-2.93394e-12
-2.95712e-12
-2.98022e-12
-3.00323e-12
-3.02613e-12
-3.04888e-12
-3.07145e-12
-3.0938e-12
-3.11588e-12
-3.13768e-12
-3.15922e-12
-3.18058e-12
-3.20188e-12
-3.22336e-12
-3.24533e-12
-3.26824e-12
-3.29268e-12
-3.31935e-12
-3.34906e-12
-3.38257e-12
-3.42037e-12
-3.46235e-12
-3.50723e-12
-3.55211e-12
-3.59237e-12
-3.62318e-12
-3.64219e-12
-3.65105e-12
-3.65391e-12
-3.65463e-12
-3.65457e-12
-4.43179e-12
-5.62747e-12
-7.03951e-12
-8.95545e-12
-1.20428e-11
-1.55631e-11
-1.6345e-11
2.06069e-09
3.88365e-09
2.10165e-09
-4.45518e-09
-1.4414e-08
-2.55886e-08
-3.5873e-08
-4.43777e-08
-5.12565e-08
-5.67605e-08
-6.11262e-08
-6.45673e-08
-6.72574e-08
-6.93334e-08
-7.09031e-08
-7.20519e-08
-7.28481e-08
-7.33465e-08
-7.35917e-08
-7.36204e-08
-7.34628e-08
-7.31442e-08
-7.26859e-08
-7.21057e-08
-7.14192e-08
-7.06395e-08
-6.9778e-08
-6.88448e-08
-6.78484e-08
-6.67967e-08
-6.56964e-08
-6.45537e-08
-6.33739e-08
-6.21621e-08
-6.09227e-08
-5.96599e-08
-5.83777e-08
-5.70795e-08
-5.5769e-08
-5.44494e-08
-5.3124e-08
-5.1796e-08
-5.04687e-08
-4.91455e-08
-4.78296e-08
-4.65247e-08
-4.52345e-08
-4.39627e-08
-4.2713e-08
-4.14893e-08
-4.02952e-08
-3.91337e-08
-3.79851e-08
-3.68526e-08
-3.57392e-08
-3.46461e-08
-3.35731e-08
-3.25181e-08
-3.14769e-08
-3.04434e-08
-2.941e-08
-2.83685e-08
-2.73105e-08
-2.62296e-08
-2.51222e-08
-2.39888e-08
-2.28347e-08
-2.16692e-08
-2.05048e-08
-1.93556e-08
-1.82356e-08
-1.71574e-08
-1.61311e-08
-1.51634e-08
-1.42579e-08
-1.34156e-08
-1.26361e-08
-1.19165e-08
-1.12581e-08
-1.06521e-08
-1.01126e-08
-9.61336e-09
-9.20295e-09
-8.80785e-09
-8.55623e-09
-8.29603e-09
-8.1537e-09
-5.32391e-09
-2.63244e-09
-2.11319e-10
2.00922e-09
4.05443e-09
5.92065e-09
7.54971e-09
8.93289e-09
1.00159e-08
1.09484e-08
1.13634e-08
1.20864e-08
1.15946e-08
1.19992e-08
1.00502e-08
-1.02661e-07
-1.57973e-07
-1.581e-07
-1.5807e-07
-1.58062e-07
-1.58055e-07
-1.58051e-07
-1.58049e-07
-1.58048e-07
-1.58048e-07
-1.58049e-07
-1.5805e-07
-1.58051e-07
-1.58052e-07
-1.58052e-07
-1.58052e-07
-1.5805e-07
-1.58048e-07
-1.58043e-07
-1.58037e-07
-1.58027e-07
-1.58014e-07
-1.57984e-07
-1.57946e-07
-1.57939e-07
-1.57939e-07
-1.57939e-07
-1.57939e-07
-1.57939e-07
-1.57939e-07
-1.57939e-07
-1.57939e-07
-1.57939e-07
-1.57939e-07
-1.57939e-07
-1.57939e-07
-1.57939e-07
-1.57939e-07
-1.57939e-07
-1.57939e-07
-1.57939e-07
-1.57939e-07
-1.57939e-07
-1.57939e-07
-1.57939e-07
-1.57939e-07
-1.57939e-07
-1.57939e-07
-1.57939e-07
-1.57939e-07
-1.57939e-07
-1.57939e-07
-1.57939e-07
-1.57939e-07
-1.57939e-07
-1.57939e-07
-1.57939e-07
-1.57939e-07
-1.57939e-07
-1.57939e-07
-1.57939e-07
-1.57939e-07
-1.57939e-07
-1.57939e-07
-1.57939e-07
-1.57939e-07
-1.57939e-07
-1.57939e-07
-1.57939e-07
-1.57939e-07
-1.57939e-07
-1.57939e-07
-1.57939e-07
-1.57939e-07
-1.57939e-07
-1.57939e-07
-1.57939e-07
-1.57939e-07
-1.57939e-07
-1.57939e-07
-1.57939e-07
-1.57939e-07
-1.57939e-07
-1.57939e-07
-1.57939e-07
-1.57939e-07
-1.57939e-07
-1.57939e-07
-1.57939e-07
-1.57939e-07
-1.57939e-07
-1.57939e-07
-1.57939e-07
-1.57939e-07
-1.57939e-07
-1.57939e-07
-1.57939e-07
-1.57939e-07
-1.57939e-07
-1.57939e-07
-1.57939e-07
-1.57939e-07
-1.57939e-07
-1.57939e-07
-1.57939e-07
-1.57921e-07
-1.57212e-07
-1.32201e-07
)
;

boundaryField
{
    inandouthalf11
    {
        type            cyclic;
        value           nonuniform List<scalar> 
100
(
1.75976e-38
2.65229e-15
5.47657e-15
7.97648e-15
1.04747e-14
1.30128e-14
1.55171e-14
1.79545e-14
2.03237e-14
2.26279e-14
2.48696e-14
2.70505e-14
2.91721e-14
3.12368e-14
3.3248e-14
3.521e-14
3.71274e-14
3.90047e-14
4.08466e-14
4.26578e-14
4.44426e-14
4.62055e-14
4.79507e-14
4.9682e-14
5.14032e-14
5.31177e-14
5.48284e-14
5.65383e-14
5.825e-14
5.99658e-14
6.16875e-14
6.3417e-14
6.51559e-14
6.69055e-14
6.86671e-14
7.04414e-14
7.22292e-14
7.40311e-14
7.58478e-14
7.76794e-14
7.95261e-14
8.13882e-14
8.32653e-14
8.51575e-14
8.70648e-14
8.8987e-14
9.09236e-14
9.28739e-14
9.48376e-14
9.68147e-14
9.88045e-14
1.00806e-13
1.02819e-13
1.04844e-13
1.06878e-13
1.08922e-13
1.10975e-13
1.13036e-13
1.15105e-13
1.1718e-13
1.19261e-13
1.21347e-13
1.23438e-13
1.25533e-13
1.27631e-13
1.29732e-13
1.31834e-13
1.33936e-13
1.36038e-13
1.38139e-13
1.40238e-13
1.42334e-13
1.44427e-13
1.46516e-13
1.486e-13
1.50679e-13
1.52751e-13
1.54816e-13
1.56872e-13
1.58919e-13
1.60956e-13
1.62982e-13
1.64996e-13
1.66998e-13
1.68988e-13
1.70964e-13
1.72927e-13
1.74874e-13
1.76806e-13
1.7872e-13
1.80617e-13
1.82496e-13
1.84356e-13
1.86196e-13
1.88016e-13
1.89816e-13
1.91596e-13
1.93354e-13
1.9509e-13
1.96803e-13
)
;
    }
    inandouthalf12
    {
        type            cyclic;
        value           nonuniform List<scalar> 
100
(
-1.75976e-38
-2.65229e-15
-5.47657e-15
-7.97648e-15
-1.04747e-14
-1.30128e-14
-1.55171e-14
-1.79545e-14
-2.03237e-14
-2.26279e-14
-2.48696e-14
-2.70505e-14
-2.91721e-14
-3.12368e-14
-3.3248e-14
-3.521e-14
-3.71274e-14
-3.90047e-14
-4.08466e-14
-4.26578e-14
-4.44426e-14
-4.62055e-14
-4.79507e-14
-4.9682e-14
-5.14032e-14
-5.31177e-14
-5.48284e-14
-5.65383e-14
-5.825e-14
-5.99658e-14
-6.16875e-14
-6.3417e-14
-6.51559e-14
-6.69055e-14
-6.86671e-14
-7.04414e-14
-7.22292e-14
-7.40311e-14
-7.58478e-14
-7.76794e-14
-7.95261e-14
-8.13882e-14
-8.32653e-14
-8.51575e-14
-8.70648e-14
-8.8987e-14
-9.09236e-14
-9.28739e-14
-9.48376e-14
-9.68147e-14
-9.88045e-14
-1.00806e-13
-1.02819e-13
-1.04844e-13
-1.06878e-13
-1.08922e-13
-1.10975e-13
-1.13036e-13
-1.15105e-13
-1.1718e-13
-1.19261e-13
-1.21347e-13
-1.23438e-13
-1.25533e-13
-1.27631e-13
-1.29732e-13
-1.31834e-13
-1.33936e-13
-1.36038e-13
-1.38139e-13
-1.40238e-13
-1.42334e-13
-1.44427e-13
-1.46516e-13
-1.486e-13
-1.50679e-13
-1.52751e-13
-1.54816e-13
-1.56872e-13
-1.58919e-13
-1.60956e-13
-1.62982e-13
-1.64996e-13
-1.66998e-13
-1.68988e-13
-1.70964e-13
-1.72927e-13
-1.74874e-13
-1.76806e-13
-1.7872e-13
-1.80617e-13
-1.82496e-13
-1.84356e-13
-1.86196e-13
-1.88016e-13
-1.89816e-13
-1.91596e-13
-1.93354e-13
-1.9509e-13
-1.96803e-13
)
;
    }
    inandouthalf21
    {
        type            cyclic;
        value           nonuniform List<scalar> 
100
(
1.98494e-13
2.00161e-13
2.01805e-13
2.03427e-13
2.05025e-13
2.06602e-13
2.08158e-13
2.09693e-13
2.11209e-13
2.12707e-13
2.14187e-13
2.15652e-13
2.171e-13
2.18533e-13
2.19949e-13
2.21347e-13
2.22724e-13
2.24078e-13
2.25406e-13
2.26704e-13
2.27971e-13
2.29205e-13
2.30409e-13
2.31587e-13
2.32748e-13
2.33903e-13
2.35069e-13
2.36267e-13
2.37521e-13
2.38855e-13
2.4029e-13
2.41831e-13
2.43459e-13
2.45118e-13
2.46699e-13
2.48054e-13
2.49043e-13
2.49621e-13
2.49875e-13
2.49959e-13
2.49989e-13
2.50021e-13
2.50104e-13
4.76292e-13
8.23576e-13
1.2983e-12
2.1141e-12
4.03649e-12
1.33271e-11
2.27247e-08
1.33378e-07
2.19948e-07
2.6577e-07
2.90966e-07
3.0552e-07
3.1433e-07
3.19765e-07
3.23054e-07
3.24893e-07
3.25705e-07
3.25762e-07
3.25244e-07
3.24276e-07
3.22948e-07
3.21324e-07
3.19456e-07
3.17381e-07
3.15129e-07
3.12724e-07
3.10186e-07
3.07533e-07
3.04777e-07
3.01933e-07
2.99009e-07
2.96016e-07
2.92962e-07
2.89854e-07
2.86701e-07
2.83507e-07
2.8028e-07
2.77025e-07
2.73748e-07
2.70453e-07
2.67145e-07
2.6383e-07
2.60512e-07
2.57195e-07
2.53884e-07
2.50583e-07
2.47297e-07
2.4403e-07
2.40786e-07
2.37569e-07
2.34384e-07
2.31235e-07
2.28127e-07
2.25063e-07
2.22048e-07
2.19087e-07
2.16182e-07
)
;
    }
    inandouthalf22
    {
        type            cyclic;
        value           nonuniform List<scalar> 
100
(
-1.98494e-13
-2.00161e-13
-2.01805e-13
-2.03427e-13
-2.05025e-13
-2.06602e-13
-2.08158e-13
-2.09693e-13
-2.11209e-13
-2.12707e-13
-2.14187e-13
-2.15652e-13
-2.171e-13
-2.18533e-13
-2.19949e-13
-2.21347e-13
-2.22724e-13
-2.24078e-13
-2.25406e-13
-2.26704e-13
-2.27971e-13
-2.29205e-13
-2.30409e-13
-2.31587e-13
-2.32748e-13
-2.33903e-13
-2.35069e-13
-2.36267e-13
-2.37521e-13
-2.38855e-13
-2.4029e-13
-2.41831e-13
-2.43459e-13
-2.45118e-13
-2.46699e-13
-2.48054e-13
-2.49043e-13
-2.49621e-13
-2.49875e-13
-2.49959e-13
-2.49989e-13
-2.50021e-13
-2.50104e-13
-4.76292e-13
-8.23576e-13
-1.2983e-12
-2.1141e-12
-4.03649e-12
-1.33271e-11
-2.27247e-08
-1.33378e-07
-2.19948e-07
-2.6577e-07
-2.90966e-07
-3.0552e-07
-3.1433e-07
-3.19765e-07
-3.23054e-07
-3.24893e-07
-3.25705e-07
-3.25762e-07
-3.25244e-07
-3.24276e-07
-3.22948e-07
-3.21324e-07
-3.19456e-07
-3.17381e-07
-3.15129e-07
-3.12724e-07
-3.10186e-07
-3.07533e-07
-3.04777e-07
-3.01933e-07
-2.99009e-07
-2.96016e-07
-2.92962e-07
-2.89854e-07
-2.86701e-07
-2.83507e-07
-2.8028e-07
-2.77025e-07
-2.73748e-07
-2.70453e-07
-2.67145e-07
-2.6383e-07
-2.60512e-07
-2.57195e-07
-2.53884e-07
-2.50583e-07
-2.47297e-07
-2.4403e-07
-2.40786e-07
-2.37569e-07
-2.34384e-07
-2.31235e-07
-2.28127e-07
-2.25063e-07
-2.22048e-07
-2.19087e-07
-2.16182e-07
)
;
    }
    inandouthalf31
    {
        type            cyclic;
        value           nonuniform List<scalar> 
110
(
2.1334e-07
2.14808e-07
2.1626e-07
2.17699e-07
2.19127e-07
2.20548e-07
2.21965e-07
2.23384e-07
2.24808e-07
2.26243e-07
2.27694e-07
2.29168e-07
2.30671e-07
2.3221e-07
2.33792e-07
2.35424e-07
2.37115e-07
2.38872e-07
2.40705e-07
2.42621e-07
2.4463e-07
2.4674e-07
2.4896e-07
2.51299e-07
2.53766e-07
2.5637e-07
2.5912e-07
2.62028e-07
2.65103e-07
2.6836e-07
2.71812e-07
2.75476e-07
2.79378e-07
2.83546e-07
2.88029e-07
2.92898e-07
2.9779e-07
1.52083e-07
1.47687e-07
1.4336e-07
1.39201e-07
1.35287e-07
1.31679e-07
1.28448e-07
1.25698e-07
1.23386e-07
1.21865e-07
1.20609e-07
1.20897e-07
1.20664e-07
1.23154e-07
1.25082e-07
1.31783e-07
1.3501e-07
1.38876e-07
1.43267e-07
1.48206e-07
1.53664e-07
1.59616e-07
1.66041e-07
1.72913e-07
1.8021e-07
1.87902e-07
1.95961e-07
2.04354e-07
2.13043e-07
2.21983e-07
2.31127e-07
2.40413e-07
2.49774e-07
2.59124e-07
2.68359e-07
2.77346e-07
2.85933e-07
2.93334e-07
2.99584e-07
3.05674e-07
3.11878e-07
3.18209e-07
3.24667e-07
3.31257e-07
3.37981e-07
3.44841e-07
3.5184e-07
3.58982e-07
3.66268e-07
3.73702e-07
3.81288e-07
3.89027e-07
3.96923e-07
4.04979e-07
4.13199e-07
4.21586e-07
4.30143e-07
4.38874e-07
4.47782e-07
4.56871e-07
4.66144e-07
4.75606e-07
4.85259e-07
4.95109e-07
5.05158e-07
5.15411e-07
5.25873e-07
5.36547e-07
5.47437e-07
5.58549e-07
5.69886e-07
5.81453e-07
5.93255e-07
)
;
    }
    inandouthalf32
    {
        type            cyclic;
        value           nonuniform List<scalar> 
110
(
-2.1334e-07
-2.14808e-07
-2.1626e-07
-2.17699e-07
-2.19127e-07
-2.20548e-07
-2.21965e-07
-2.23384e-07
-2.24808e-07
-2.26243e-07
-2.27694e-07
-2.29168e-07
-2.30671e-07
-2.3221e-07
-2.33792e-07
-2.35424e-07
-2.37115e-07
-2.38872e-07
-2.40705e-07
-2.42621e-07
-2.4463e-07
-2.4674e-07
-2.4896e-07
-2.51299e-07
-2.53766e-07
-2.5637e-07
-2.5912e-07
-2.62028e-07
-2.65103e-07
-2.6836e-07
-2.71812e-07
-2.75476e-07
-2.79378e-07
-2.83546e-07
-2.88029e-07
-2.92898e-07
-2.9779e-07
-1.52083e-07
-1.47687e-07
-1.4336e-07
-1.39201e-07
-1.35287e-07
-1.31679e-07
-1.28448e-07
-1.25698e-07
-1.23386e-07
-1.21865e-07
-1.20609e-07
-1.20897e-07
-1.20664e-07
-1.23154e-07
-1.25082e-07
-1.31783e-07
-1.3501e-07
-1.38876e-07
-1.43267e-07
-1.48206e-07
-1.53664e-07
-1.59616e-07
-1.66041e-07
-1.72913e-07
-1.8021e-07
-1.87902e-07
-1.95961e-07
-2.04354e-07
-2.13043e-07
-2.21983e-07
-2.31127e-07
-2.40413e-07
-2.49774e-07
-2.59124e-07
-2.68359e-07
-2.77346e-07
-2.85933e-07
-2.93334e-07
-2.99584e-07
-3.05674e-07
-3.11878e-07
-3.18209e-07
-3.24667e-07
-3.31257e-07
-3.37981e-07
-3.44841e-07
-3.5184e-07
-3.58982e-07
-3.66268e-07
-3.73702e-07
-3.81288e-07
-3.89027e-07
-3.96923e-07
-4.04979e-07
-4.13199e-07
-4.21586e-07
-4.30143e-07
-4.38874e-07
-4.47782e-07
-4.56871e-07
-4.66144e-07
-4.75606e-07
-4.85259e-07
-4.95109e-07
-5.05158e-07
-5.15411e-07
-5.25873e-07
-5.36547e-07
-5.47437e-07
-5.58549e-07
-5.69886e-07
-5.81453e-07
-5.93255e-07
)
;
    }
    inandouthalf41
    {
        type            cyclic;
        value           nonuniform List<scalar> 
50
(
5.31023e-07
5.31023e-07
5.31023e-07
5.31023e-07
5.31023e-07
5.31023e-07
5.31023e-07
5.31023e-07
5.31023e-07
5.31023e-07
5.31023e-07
5.31023e-07
5.31023e-07
5.31023e-07
5.31023e-07
5.31023e-07
5.31023e-07
5.31023e-07
5.31023e-07
5.31023e-07
5.31023e-07
5.31023e-07
5.31023e-07
5.31023e-07
5.31023e-07
5.31023e-07
5.31023e-07
5.31023e-07
5.31023e-07
5.31023e-07
5.31023e-07
5.31023e-07
5.31023e-07
5.31023e-07
5.31023e-07
5.31023e-07
5.31023e-07
5.31023e-07
5.31023e-07
5.31023e-07
5.31023e-07
5.31023e-07
5.31023e-07
5.31023e-07
5.31023e-07
5.31023e-07
5.31023e-07
5.31012e-07
5.30755e-07
5.24797e-07
)
;
    }
    inandouthalf42
    {
        type            cyclic;
        value           nonuniform List<scalar> 
50
(
-5.31023e-07
-5.31023e-07
-5.31023e-07
-5.31023e-07
-5.31023e-07
-5.31023e-07
-5.31023e-07
-5.31023e-07
-5.31023e-07
-5.31023e-07
-5.31023e-07
-5.31023e-07
-5.31023e-07
-5.31023e-07
-5.31023e-07
-5.31023e-07
-5.31023e-07
-5.31023e-07
-5.31023e-07
-5.31023e-07
-5.31023e-07
-5.31023e-07
-5.31023e-07
-5.31023e-07
-5.31023e-07
-5.31023e-07
-5.31023e-07
-5.31023e-07
-5.31023e-07
-5.31023e-07
-5.31023e-07
-5.31023e-07
-5.31023e-07
-5.31023e-07
-5.31023e-07
-5.31023e-07
-5.31023e-07
-5.31023e-07
-5.31023e-07
-5.31023e-07
-5.31023e-07
-5.31023e-07
-5.31023e-07
-5.31023e-07
-5.31023e-07
-5.31023e-07
-5.31023e-07
-5.31012e-07
-5.30755e-07
-5.24797e-07
)
;
    }
    top
    {
        type            symmetryPlane;
        value           uniform 0;
    }
    walls
    {
        type            fixedValue;
        value           uniform 0;
    }
    frontAndBackPlanes
    {
        type            empty;
        value           nonuniform 0();
    }
}


// ************************************************************************* //
