/*--------------------------------*- C++ -*----------------------------------*\
| =========                 |                                                 |
| \\      /  F ield         | OpenFOAM: The Open Source CFD Toolbox           |
|  \\    /   O peration     | Version:  2.4.x                                 |
|   \\  /    A nd           | Web:      www.OpenFOAM.org                      |
|    \\/     M anipulation  |                                                 |
\*---------------------------------------------------------------------------*/
FoamFile
{
    version     2.0;
    format      ascii;
    class       surfaceScalarField;
    location    "10.75";
    object      phib_0;
}
// * * * * * * * * * * * * * * * * * * * * * * * * * * * * * * * * * * * * * //

dimensions      [0 3 -1 0 0 0 0];

internalField   nonuniform List<scalar> 
359
(
3.72043e-14
9.29531e-14
1.44155e-13
1.92705e-13
2.41731e-13
2.9073e-13
3.38773e-13
3.85586e-13
4.31181e-13
4.75624e-13
5.18951e-13
5.61173e-13
6.02328e-13
6.42462e-13
6.81645e-13
7.19961e-13
7.57497e-13
7.94338e-13
8.30569e-13
8.66285e-13
9.0156e-13
9.36484e-13
9.71133e-13
1.00558e-12
1.0399e-12
1.07415e-12
1.10838e-12
1.14266e-12
1.17704e-12
1.21155e-12
1.24623e-12
1.28112e-12
1.31624e-12
1.35163e-12
1.3873e-12
1.42328e-12
1.45957e-12
1.49618e-12
1.53315e-12
1.57045e-12
1.60811e-12
1.64612e-12
1.68448e-12
1.72319e-12
1.76225e-12
1.80166e-12
1.84142e-12
1.88149e-12
1.92188e-12
1.96261e-12
2.00364e-12
2.04497e-12
2.08659e-12
2.12848e-12
2.17064e-12
2.21306e-12
2.25571e-12
2.29859e-12
2.34169e-12
2.38497e-12
2.42845e-12
2.47209e-12
2.5159e-12
2.55986e-12
2.60395e-12
2.64814e-12
2.69244e-12
2.73682e-12
2.78125e-12
2.82572e-12
2.87023e-12
2.91477e-12
2.95929e-12
3.00381e-12
3.0483e-12
3.09275e-12
3.13714e-12
3.18143e-12
3.22563e-12
3.2697e-12
3.31362e-12
3.35739e-12
3.401e-12
3.44442e-12
3.48766e-12
3.53068e-12
3.57349e-12
3.61604e-12
3.65832e-12
3.70031e-12
3.742e-12
3.78336e-12
3.8244e-12
3.86508e-12
3.90542e-12
3.94539e-12
3.98497e-12
4.02417e-12
4.06296e-12
4.10133e-12
4.13928e-12
4.17679e-12
4.21388e-12
4.25055e-12
4.28681e-12
4.32268e-12
4.35818e-12
4.39334e-12
4.42819e-12
4.46276e-12
4.49708e-12
4.53118e-12
4.56507e-12
4.59875e-12
4.6322e-12
4.6654e-12
4.69828e-12
4.73078e-12
4.76284e-12
4.79439e-12
4.8254e-12
4.8559e-12
4.88599e-12
4.91587e-12
4.94588e-12
4.97651e-12
5.00842e-12
5.0425e-12
5.07982e-12
5.12158e-12
5.16894e-12
5.22262e-12
5.28236e-12
5.3462e-12
5.40962e-12
5.4656e-12
5.50678e-12
5.52946e-12
5.53589e-12
5.53245e-12
5.52481e-12
5.48724e-12
6.62306e-12
8.41142e-12
1.04947e-11
1.33067e-11
1.78321e-11
2.28936e-11
1.7832e-11
-9.11939e-10
-5.37047e-10
-1.29026e-10
1.3901e-10
2.52615e-10
2.90207e-10
2.96747e-10
2.90362e-10
2.78967e-10
2.65623e-10
2.51692e-10
2.37825e-10
2.24335e-10
2.11369e-10
1.98992e-10
1.87223e-10
1.76057e-10
1.65479e-10
1.55466e-10
1.45994e-10
1.37035e-10
1.28566e-10
1.2056e-10
1.12993e-10
1.05843e-10
9.90894e-11
9.27105e-11
8.66876e-11
8.10026e-11
7.56385e-11
7.0579e-11
6.58089e-11
6.13136e-11
5.70794e-11
5.30932e-11
4.93427e-11
4.58159e-11
4.25017e-11
3.93893e-11
3.64686e-11
3.37298e-11
3.11637e-11
2.87615e-11
2.65148e-11
2.44155e-11
2.24562e-11
2.06296e-11
1.8929e-11
1.73478e-11
1.58799e-11
1.45194e-11
1.32606e-11
1.20756e-11
1.0964e-11
9.9252e-12
8.95803e-12
8.06089e-12
7.23159e-12
6.46739e-12
5.76503e-12
5.12085e-12
4.53101e-12
3.9916e-12
3.49896e-12
3.0498e-12
2.64141e-12
2.27164e-12
1.93886e-12
1.64177e-12
1.37917e-12
1.14971e-12
9.51696e-13
7.82924e-13
6.4073e-13
5.22122e-13
4.23973e-13
3.43264e-13
2.77107e-13
2.2321e-13
1.79139e-13
1.43636e-13
1.14542e-13
9.16361e-14
7.26139e-14
5.82257e-14
4.66769e-14
3.78544e-14
2.04913e-14
7.98373e-15
4.70245e-16
-3.39064e-15
-4.93506e-15
-5.09123e-15
-4.48654e-15
-3.58387e-15
-2.64089e-15
-1.85016e-15
-1.18323e-15
-7.51561e-16
-4.00737e-16
-2.11184e-16
-7.31527e-17
1.93764e-17
-3.25966e-18
-3.21754e-18
-3.14175e-18
-3.07085e-18
-2.97249e-18
-2.87809e-18
-2.75902e-18
-2.6427e-18
-2.51126e-18
-2.38659e-18
-2.25658e-18
-2.14386e-18
-2.04305e-18
-1.96056e-18
-1.88346e-18
-1.8144e-18
-1.7506e-18
-1.6897e-18
-1.627e-18
-1.56654e-18
-1.51453e-18
-1.46379e-18
-1.41168e-18
-1.35309e-18
-1.29693e-18
-1.2345e-18
-1.17068e-18
-1.10572e-18
-1.05125e-18
-9.97074e-19
-9.43696e-19
-8.85412e-19
-8.29753e-19
-7.69552e-19
-6.56053e-19
-5.90513e-19
-5.28699e-19
-4.64576e-19
-4.0009e-19
-3.32293e-19
-2.65403e-19
-1.98731e-19
-1.33981e-19
-7.91331e-20
-1.08127e-19
-7.15387e-20
-3.80296e-20
1.90723e-20
4.93769e-20
7.43801e-20
9.94139e-20
1.18397e-19
1.49264e-19
1.70667e-19
1.92096e-19
1.99951e-19
2.1926e-19
2.22254e-19
2.25943e-19
2.22387e-19
2.38867e-19
2.48516e-19
2.59143e-19
2.57746e-19
2.65803e-19
2.61601e-19
2.57868e-19
2.46741e-19
2.5151e-19
2.491e-19
2.4764e-19
2.38268e-19
2.38674e-19
2.38746e-19
2.54068e-19
3.49076e-19
4.58701e-19
6.38923e-19
8.33763e-19
1.00296e-18
1.21077e-18
1.35978e-18
1.51358e-18
1.59909e-18
1.83106e-18
1.95366e-18
2.07672e-18
2.03652e-18
2.13887e-18
2.02095e-18
1.91866e-18
1.63127e-18
1.77391e-18
1.63048e-18
1.48703e-18
9.10624e-19
5.99635e-19
-1.76138e-19
-1.00105e-18
-2.0586e-18
-3.49116e-18
-4.91839e-18
-6.41175e-18
-7.21732e-18
-9.93405e-18
-9.639e-18
-8.14549e-18
)
;

boundaryField
{
    inandouthalf11
    {
        type            cyclic;
        value           nonuniform List<scalar> 
100
(
2.47052e-10
2.45679e-10
2.45496e-10
2.45684e-10
2.45774e-10
2.45804e-10
2.45842e-10
2.4589e-10
2.45939e-10
2.45988e-10
2.46038e-10
2.46088e-10
2.46138e-10
2.46188e-10
2.46239e-10
2.4629e-10
2.46342e-10
2.46394e-10
2.46446e-10
2.465e-10
2.46553e-10
2.46607e-10
2.46662e-10
2.46717e-10
2.46773e-10
2.46829e-10
2.46886e-10
2.46943e-10
2.47001e-10
2.4706e-10
2.47119e-10
2.4718e-10
2.4724e-10
2.47302e-10
2.47363e-10
2.47426e-10
2.47489e-10
2.47553e-10
2.47619e-10
2.47684e-10
2.4775e-10
2.47817e-10
2.47885e-10
2.47954e-10
2.48023e-10
2.48093e-10
2.48165e-10
2.48236e-10
2.48309e-10
2.48383e-10
2.48457e-10
2.48532e-10
2.48609e-10
2.48686e-10
2.48764e-10
2.48843e-10
2.48923e-10
2.49005e-10
2.49087e-10
2.49169e-10
2.49254e-10
2.49339e-10
2.49426e-10
2.49514e-10
2.49603e-10
2.49693e-10
2.49784e-10
2.49877e-10
2.4997e-10
2.50065e-10
2.50162e-10
2.5026e-10
2.50358e-10
2.50459e-10
2.50561e-10
2.50665e-10
2.5077e-10
2.50877e-10
2.50985e-10
2.51096e-10
2.51207e-10
2.51321e-10
2.51437e-10
2.51554e-10
2.51673e-10
2.51795e-10
2.51918e-10
2.52044e-10
2.52171e-10
2.52301e-10
2.52434e-10
2.52569e-10
2.52706e-10
2.52846e-10
2.52988e-10
2.53134e-10
2.53282e-10
2.53433e-10
2.53588e-10
2.53745e-10
)
;
    }
    inandouthalf12
    {
        type            cyclic;
        value           nonuniform List<scalar> 
100
(
-2.47052e-10
-2.45679e-10
-2.45496e-10
-2.45684e-10
-2.45774e-10
-2.45804e-10
-2.45842e-10
-2.4589e-10
-2.45939e-10
-2.45988e-10
-2.46038e-10
-2.46088e-10
-2.46138e-10
-2.46188e-10
-2.46239e-10
-2.4629e-10
-2.46342e-10
-2.46394e-10
-2.46446e-10
-2.465e-10
-2.46553e-10
-2.46607e-10
-2.46662e-10
-2.46717e-10
-2.46773e-10
-2.46829e-10
-2.46886e-10
-2.46943e-10
-2.47001e-10
-2.4706e-10
-2.47119e-10
-2.4718e-10
-2.4724e-10
-2.47302e-10
-2.47363e-10
-2.47426e-10
-2.47489e-10
-2.47553e-10
-2.47619e-10
-2.47684e-10
-2.4775e-10
-2.47817e-10
-2.47885e-10
-2.47954e-10
-2.48023e-10
-2.48093e-10
-2.48165e-10
-2.48236e-10
-2.48309e-10
-2.48383e-10
-2.48457e-10
-2.48532e-10
-2.48609e-10
-2.48686e-10
-2.48764e-10
-2.48843e-10
-2.48923e-10
-2.49005e-10
-2.49087e-10
-2.49169e-10
-2.49254e-10
-2.49339e-10
-2.49426e-10
-2.49514e-10
-2.49603e-10
-2.49693e-10
-2.49784e-10
-2.49877e-10
-2.4997e-10
-2.50065e-10
-2.50162e-10
-2.5026e-10
-2.50358e-10
-2.50459e-10
-2.50561e-10
-2.50665e-10
-2.5077e-10
-2.50877e-10
-2.50985e-10
-2.51096e-10
-2.51207e-10
-2.51321e-10
-2.51437e-10
-2.51554e-10
-2.51673e-10
-2.51795e-10
-2.51918e-10
-2.52044e-10
-2.52171e-10
-2.52301e-10
-2.52434e-10
-2.52569e-10
-2.52706e-10
-2.52846e-10
-2.52988e-10
-2.53134e-10
-2.53282e-10
-2.53433e-10
-2.53588e-10
-2.53745e-10
)
;
    }
    inandouthalf21
    {
        type            cyclic;
        value           nonuniform List<scalar> 
100
(
2.53906e-10
2.54071e-10
2.54239e-10
2.54411e-10
2.54586e-10
2.54766e-10
2.5495e-10
2.55139e-10
2.55332e-10
2.55529e-10
2.55732e-10
2.5594e-10
2.56154e-10
2.56373e-10
2.56598e-10
2.56829e-10
2.57067e-10
2.57312e-10
2.57564e-10
2.57824e-10
2.58092e-10
2.58368e-10
2.58653e-10
2.58949e-10
2.59254e-10
2.5957e-10
2.59898e-10
2.60238e-10
2.60593e-10
2.60962e-10
2.61346e-10
2.61746e-10
2.62165e-10
2.62607e-10
2.63077e-10
2.63576e-10
2.64103e-10
2.64666e-10
2.65292e-10
2.66009e-10
2.66785e-10
2.67696e-10
2.74127e-10
2.73416e-10
2.74949e-10
2.774e-10
2.80146e-10
2.84208e-10
3.32311e-10
2.50825e-08
1.54807e-07
2.39993e-07
2.85656e-07
3.10088e-07
3.22897e-07
3.29733e-07
3.33433e-07
3.35352e-07
3.36165e-07
3.36233e-07
3.35762e-07
3.34879e-07
3.33669e-07
3.3219e-07
3.30484e-07
3.28584e-07
3.26515e-07
3.24299e-07
3.21952e-07
3.19489e-07
3.16923e-07
3.14264e-07
3.11524e-07
3.08711e-07
3.05831e-07
3.02894e-07
2.99904e-07
2.96869e-07
2.93792e-07
2.9068e-07
2.87535e-07
2.84364e-07
2.81169e-07
2.77954e-07
2.74722e-07
2.71476e-07
2.68219e-07
2.64953e-07
2.6168e-07
2.58404e-07
2.55126e-07
2.51848e-07
2.48571e-07
2.45298e-07
2.4203e-07
2.38768e-07
2.35514e-07
2.32269e-07
2.29034e-07
2.25811e-07
)
;
    }
    inandouthalf22
    {
        type            cyclic;
        value           nonuniform List<scalar> 
100
(
-2.53906e-10
-2.54071e-10
-2.54239e-10
-2.54411e-10
-2.54586e-10
-2.54766e-10
-2.5495e-10
-2.55139e-10
-2.55332e-10
-2.55529e-10
-2.55732e-10
-2.5594e-10
-2.56154e-10
-2.56373e-10
-2.56598e-10
-2.56829e-10
-2.57067e-10
-2.57312e-10
-2.57564e-10
-2.57824e-10
-2.58092e-10
-2.58368e-10
-2.58653e-10
-2.58949e-10
-2.59254e-10
-2.5957e-10
-2.59898e-10
-2.60238e-10
-2.60593e-10
-2.60962e-10
-2.61346e-10
-2.61746e-10
-2.62165e-10
-2.62607e-10
-2.63077e-10
-2.63576e-10
-2.64103e-10
-2.64666e-10
-2.65292e-10
-2.66009e-10
-2.66785e-10
-2.67696e-10
-2.74127e-10
-2.73416e-10
-2.74949e-10
-2.774e-10
-2.80146e-10
-2.84208e-10
-3.32311e-10
-2.50825e-08
-1.54807e-07
-2.39993e-07
-2.85656e-07
-3.10088e-07
-3.22897e-07
-3.29733e-07
-3.33433e-07
-3.35352e-07
-3.36165e-07
-3.36233e-07
-3.35762e-07
-3.34879e-07
-3.33669e-07
-3.3219e-07
-3.30484e-07
-3.28584e-07
-3.26515e-07
-3.24299e-07
-3.21952e-07
-3.19489e-07
-3.16923e-07
-3.14264e-07
-3.11524e-07
-3.08711e-07
-3.05831e-07
-3.02894e-07
-2.99904e-07
-2.96869e-07
-2.93792e-07
-2.9068e-07
-2.87535e-07
-2.84364e-07
-2.81169e-07
-2.77954e-07
-2.74722e-07
-2.71476e-07
-2.68219e-07
-2.64953e-07
-2.6168e-07
-2.58404e-07
-2.55126e-07
-2.51848e-07
-2.48571e-07
-2.45298e-07
-2.4203e-07
-2.38768e-07
-2.35514e-07
-2.32269e-07
-2.29034e-07
-2.25811e-07
)
;
    }
    inandouthalf31
    {
        type            cyclic;
        value           nonuniform List<scalar> 
110
(
2.22601e-07
2.23824e-07
2.24952e-07
2.25979e-07
2.269e-07
2.2771e-07
2.28401e-07
2.28969e-07
2.29407e-07
2.29709e-07
2.2987e-07
2.29882e-07
2.29741e-07
2.2944e-07
2.28973e-07
2.28334e-07
2.27518e-07
2.26519e-07
2.25333e-07
2.23955e-07
2.2238e-07
2.20605e-07
2.18627e-07
2.16445e-07
2.14056e-07
2.11461e-07
2.08662e-07
2.05662e-07
2.02465e-07
1.9908e-07
1.95515e-07
1.91784e-07
1.87902e-07
1.8389e-07
1.79773e-07
1.7558e-07
1.71345e-07
1.67111e-07
1.62926e-07
1.58845e-07
1.5493e-07
1.51247e-07
1.47871e-07
1.44877e-07
1.42341e-07
1.40336e-07
1.38926e-07
1.38164e-07
1.38085e-07
1.3871e-07
1.40041e-07
1.42067e-07
1.44768e-07
1.48115e-07
1.52079e-07
1.56633e-07
1.61749e-07
1.674e-07
1.73562e-07
1.80212e-07
1.87326e-07
1.94878e-07
2.02841e-07
2.11186e-07
2.1988e-07
2.28885e-07
2.38159e-07
2.47652e-07
2.57308e-07
2.67056e-07
2.76815e-07
2.86484e-07
2.95931e-07
3.04985e-07
3.13081e-07
3.19814e-07
3.26318e-07
3.32941e-07
3.39699e-07
3.46594e-07
3.53629e-07
3.60807e-07
3.6813e-07
3.75602e-07
3.83226e-07
3.91005e-07
3.98941e-07
4.07038e-07
4.153e-07
4.2373e-07
4.3233e-07
4.41105e-07
4.50059e-07
4.59194e-07
4.68514e-07
4.78024e-07
4.87726e-07
4.97626e-07
5.07726e-07
5.18032e-07
5.28546e-07
5.39274e-07
5.5022e-07
5.61388e-07
5.72783e-07
5.84409e-07
5.96271e-07
6.08374e-07
6.20722e-07
6.33321e-07
)
;
    }
    inandouthalf32
    {
        type            cyclic;
        value           nonuniform List<scalar> 
110
(
-2.22601e-07
-2.23824e-07
-2.24952e-07
-2.25979e-07
-2.269e-07
-2.2771e-07
-2.28401e-07
-2.28969e-07
-2.29407e-07
-2.29709e-07
-2.2987e-07
-2.29882e-07
-2.29741e-07
-2.2944e-07
-2.28973e-07
-2.28334e-07
-2.27518e-07
-2.26519e-07
-2.25333e-07
-2.23955e-07
-2.2238e-07
-2.20605e-07
-2.18627e-07
-2.16445e-07
-2.14056e-07
-2.11461e-07
-2.08662e-07
-2.05662e-07
-2.02465e-07
-1.9908e-07
-1.95515e-07
-1.91784e-07
-1.87902e-07
-1.8389e-07
-1.79773e-07
-1.7558e-07
-1.71345e-07
-1.67111e-07
-1.62926e-07
-1.58845e-07
-1.5493e-07
-1.51247e-07
-1.47871e-07
-1.44877e-07
-1.42341e-07
-1.40336e-07
-1.38926e-07
-1.38164e-07
-1.38085e-07
-1.3871e-07
-1.40041e-07
-1.42067e-07
-1.44768e-07
-1.48115e-07
-1.52079e-07
-1.56633e-07
-1.61749e-07
-1.674e-07
-1.73562e-07
-1.80212e-07
-1.87326e-07
-1.94878e-07
-2.02841e-07
-2.11186e-07
-2.1988e-07
-2.28885e-07
-2.38159e-07
-2.47652e-07
-2.57308e-07
-2.67056e-07
-2.76815e-07
-2.86484e-07
-2.95931e-07
-3.04985e-07
-3.13081e-07
-3.19814e-07
-3.26318e-07
-3.32941e-07
-3.39699e-07
-3.46594e-07
-3.53629e-07
-3.60807e-07
-3.6813e-07
-3.75602e-07
-3.83226e-07
-3.91005e-07
-3.98941e-07
-4.07038e-07
-4.153e-07
-4.2373e-07
-4.3233e-07
-4.41105e-07
-4.50059e-07
-4.59194e-07
-4.68514e-07
-4.78024e-07
-4.87726e-07
-4.97626e-07
-5.07726e-07
-5.18032e-07
-5.28546e-07
-5.39274e-07
-5.5022e-07
-5.61388e-07
-5.72783e-07
-5.84409e-07
-5.96271e-07
-6.08374e-07
-6.20722e-07
-6.33321e-07
)
;
    }
    inandouthalf41
    {
        type            cyclic;
        value           nonuniform List<scalar> 
50
(
5.66887e-07
5.66887e-07
5.66887e-07
5.66887e-07
5.66887e-07
5.66887e-07
5.66887e-07
5.66887e-07
5.66887e-07
5.66887e-07
5.66887e-07
5.66887e-07
5.66887e-07
5.66887e-07
5.66887e-07
5.66887e-07
5.66887e-07
5.66887e-07
5.66887e-07
5.66887e-07
5.66887e-07
5.66887e-07
5.66887e-07
5.66887e-07
5.66887e-07
5.66887e-07
5.66887e-07
5.66887e-07
5.66887e-07
5.66887e-07
5.66887e-07
5.66887e-07
5.66887e-07
5.66887e-07
5.66887e-07
5.66887e-07
5.66887e-07
5.66887e-07
5.66887e-07
5.66887e-07
5.66887e-07
5.66887e-07
5.66887e-07
5.66887e-07
5.66887e-07
5.66887e-07
5.66887e-07
5.66887e-07
5.66887e-07
5.66887e-07
)
;
    }
    inandouthalf42
    {
        type            cyclic;
        value           nonuniform List<scalar> 
50
(
-5.66887e-07
-5.66887e-07
-5.66887e-07
-5.66887e-07
-5.66887e-07
-5.66887e-07
-5.66887e-07
-5.66887e-07
-5.66887e-07
-5.66887e-07
-5.66887e-07
-5.66887e-07
-5.66887e-07
-5.66887e-07
-5.66887e-07
-5.66887e-07
-5.66887e-07
-5.66887e-07
-5.66887e-07
-5.66887e-07
-5.66887e-07
-5.66887e-07
-5.66887e-07
-5.66887e-07
-5.66887e-07
-5.66887e-07
-5.66887e-07
-5.66887e-07
-5.66887e-07
-5.66887e-07
-5.66887e-07
-5.66887e-07
-5.66887e-07
-5.66887e-07
-5.66887e-07
-5.66887e-07
-5.66887e-07
-5.66887e-07
-5.66887e-07
-5.66887e-07
-5.66887e-07
-5.66887e-07
-5.66887e-07
-5.66887e-07
-5.66887e-07
-5.66887e-07
-5.66887e-07
-5.66887e-07
-5.66887e-07
-5.66887e-07
)
;
    }
    top
    {
        type            symmetryPlane;
        value           uniform 0;
    }
    walls
    {
        type            fixedValue;
        value           uniform 0;
    }
    frontAndBackPlanes
    {
        type            empty;
        value           nonuniform 0();
    }
}


// ************************************************************************* //
