/*--------------------------------*- C++ -*----------------------------------*\
| =========                 |                                                 |
| \\      /  F ield         | OpenFOAM: The Open Source CFD Toolbox           |
|  \\    /   O peration     | Version:  2.4.x                                 |
|   \\  /    A nd           | Web:      www.OpenFOAM.org                      |
|    \\/     M anipulation  |                                                 |
\*---------------------------------------------------------------------------*/
FoamFile
{
    version     2.0;
    format      ascii;
    class       volVectorField;
    location    "10.75";
    object      susb;
}
// * * * * * * * * * * * * * * * * * * * * * * * * * * * * * * * * * * * * * //

dimensions      [0 1 -2 0 0 0 0];

internalField   nonuniform List<vector> 
360
(
(0 6.01957e-18 0)
(0 6.68238e-18 0)
(0 -1.90141e-21 0)
(0 -9.24899e-19 0)
(-3.70051e-31 -3.89054e-19 0)
(-3.70017e-31 -2.12523e-19 0)
(-7.39949e-31 -2.72811e-19 0)
(0 -3.11555e-19 0)
(-3.69863e-31 -3.16697e-19 0)
(0 -3.19257e-19 0)
(-3.69748e-31 -3.20212e-19 0)
(0 -3.21297e-19 0)
(-3.69633e-31 -3.23863e-19 0)
(0 -3.26557e-19 0)
(0 -3.30179e-19 0)
(0 -3.33887e-19 0)
(0 -3.36842e-19 0)
(-7.38671e-31 -3.39535e-19 0)
(0 -3.43665e-19 0)
(0 -3.46582e-19 0)
(0 -3.49643e-19 0)
(-3.69087e-31 -3.54038e-19 0)
(0 -3.57255e-19 0)
(0 -3.61003e-19 0)
(0 -3.64858e-19 0)
(-3.68828e-31 -3.67995e-19 0)
(0 -3.72276e-19 0)
(0 -3.76727e-19 0)
(0 -3.79942e-19 0)
(0 -3.83696e-19 0)
(0 -3.88915e-19 0)
(0 -3.91689e-19 0)
(0 -3.96544e-19 0)
(0 -4.01508e-19 0)
(0 -4.04694e-19 0)
(3.68131e-31 -4.09203e-19 0)
(0 -4.13515e-19 0)
(0 -4.19868e-19 0)
(0 -4.22002e-19 0)
(0 -4.27185e-19 0)
(0 -4.34171e-19 0)
(0 -4.35696e-19 0)
(3.67598e-31 -4.42043e-19 0)
(0 -4.47861e-19 0)
(0 -4.51604e-19 0)
(0 -4.5856e-19 0)
(0 -4.61545e-19 0)
(0 -4.66097e-19 0)
(0 -4.75462e-19 0)
(0 -4.78823e-19 0)
(3.66935e-31 -4.83171e-19 0)
(0 -4.90439e-19 0)
(0 -4.96327e-19 0)
(0 -5.01075e-19 0)
(0 -5.08288e-19 0)
(0 -5.14243e-19 0)
(0 -5.19927e-19 0)
(0 -5.27955e-19 0)
(0 -5.31336e-19 0)
(0 -5.4028e-19 0)
(0 -5.47351e-19 0)
(0 -5.53323e-19 0)
(0 -5.61636e-19 0)
(0 -5.67931e-19 0)
(0 -5.75123e-19 0)
(0 -5.82919e-19 0)
(0 -5.91839e-19 0)
(0 -5.99223e-19 0)
(0 -6.05137e-19 0)
(0 -6.14859e-19 0)
(0 -6.26396e-19 0)
(0 -6.31582e-19 0)
(0 -6.40288e-19 0)
(0 -6.51409e-19 0)
(0 -6.61037e-19 0)
(0 -6.70202e-19 0)
(0 -6.78535e-19 0)
(0 -6.89752e-19 0)
(0 -7.00784e-19 0)
(0 -7.10662e-19 0)
(0 -7.21434e-19 0)
(0 -7.33616e-19 0)
(0 -7.45196e-19 0)
(0 -7.57163e-19 0)
(0 -7.69538e-19 0)
(0 -7.8239e-19 0)
(0 -7.95424e-19 0)
(0 -8.08462e-19 0)
(0 -8.22455e-19 0)
(0 -8.36921e-19 0)
(0 -8.51595e-19 0)
(0 -8.6704e-19 0)
(0 -8.83146e-19 0)
(0 -8.99579e-19 0)
(0 -9.16549e-19 0)
(0 -9.34086e-19 0)
(0 -9.52157e-19 0)
(0 -9.70831e-19 0)
(0 -9.9023e-19 0)
(0 -1.01037e-18 0)
(0 -1.03127e-18 0)
(0 -1.05301e-18 0)
(0 -1.07559e-18 0)
(0 -1.09901e-18 0)
(0 -1.12333e-18 0)
(0 -1.14857e-18 0)
(0 -1.1748e-18 0)
(0 -1.20207e-18 0)
(0 -1.23044e-18 0)
(0 -1.25996e-18 0)
(0 -1.2907e-18 0)
(0 -1.32272e-18 0)
(0 -1.35611e-18 0)
(0 -1.39096e-18 0)
(0 -1.42738e-18 0)
(0 -1.46549e-18 0)
(0 -1.50546e-18 0)
(0 -1.54745e-18 0)
(0 -1.59167e-18 0)
(0 -1.63833e-18 0)
(0 -1.68764e-18 0)
(0 -1.73978e-18 0)
(0 -1.79487e-18 0)
(0 -1.85306e-18 0)
(0 -1.91463e-18 0)
(0 -1.98015e-18 0)
(0 -2.05053e-18 0)
(0 -2.44347e-18 0)
(0 -6.59097e-18 0)
(0 -1.57412e-17 0)
(0 -3.61369e-17 0)
(0 -7.97106e-17 0)
(0 -1.69203e-16 0)
(0 -3.46389e-16 0)
(0 -6.83177e-16 0)
(0 -1.3043e-15 0)
(0 -2.48938e-15 0)
(0 -5.04725e-15 0)
(0 -1.11242e-14 0)
(0 -2.41996e-14 0)
(0 -5.12618e-14 0)
(0 -5.1784e-13 0)
(0 -2.17288e-12 0)
(0 -8.92092e-13 0)
(0 -1.64667e-10 0)
(0 -3.82393e-09 0)
(0 -9.42619e-08 0)
(0 -5.3097e-06 0)
(0 -0.00909018 0)
(0 -0.476094 0)
(0 -0.995329 0)
(0 -0.494805 0)
(0 -0.298443 0)
(0 -0.201834 0)
(0 -0.13717 0)
(0 -0.0954301 0)
(0 -0.0706039 0)
(0 -0.0559297 0)
(0 -0.0463082 0)
(0 -0.0394784 0)
(0 -0.0344194 0)
(0 -0.0305356 0)
(0 -0.0274621 0)
(0 -0.0249713 0)
(0 -0.0229127 0)
(0 -0.021182 0)
(0 -0.0197055 0)
(0 -0.0184291 0)
(0 -0.0173128 0)
(0 -0.0163259 0)
(0 -0.015445 0)
(0 -0.0146516 0)
(0 -0.0139314 0)
(0 -0.0132725 0)
(0 -0.0126659 0)
(0 -0.0121038 0)
(0 -0.0115801 0)
(0 -0.0110897 0)
(0 -0.0106285 0)
(0 -0.010193 0)
(0 -0.00978019 0)
(0 -0.0093878 0)
(0 -0.00901375 0)
(0 -0.00865634 0)
(0 -0.00831415 0)
(0 -0.00798595 0)
(0 -0.00767073 0)
(0 -0.00736762 0)
(0 -0.00707591 0)
(0 -0.00679496 0)
(0 -0.00652424 0)
(0 -0.00626328 0)
(0 -0.00601165 0)
(0 -0.0057689 0)
(0 -0.00553455 0)
(0 -0.00530804 0)
(0 -0.00508868 0)
(0 -0.00487564 0)
(0 -0.00466788 0)
(0 -0.00446428 0)
(0 -0.00426356 0)
(0 -0.00406222 0)
(-2.44683e-18 -0.00385733 0)
(0 -0.00364832 0)
(0 -0.00343481 0)
(2.25455e-18 -0.00321737 0)
(0 -0.00299727 0)
(-2.12226e-18 -0.00277675 0)
(0 -0.00255885 0)
(9.95312e-19 -0.00234733 0)
(0 -0.0021464 0)
(0 -0.00196036 0)
(0 -0.00179315 0)
(8.87622e-19 -0.00164732 0)
(0 -0.00152292 0)
(0 -0.00141699 0)
(0 -0.00132451 0)
(0 -0.00123994 0)
(0 -0.00115838 0)
(-4.23835e-19 -0.00107623 0)
(0 -0.000991567 0)
(-4.21446e-19 -0.000904248 0)
(0 -0.000815652 0)
(0 -0.000728021 0)
(0 -0.000643778 0)
(0 -0.000564716 0)
(0 -0.00049279 0)
(0 -0.000426771 0)
(0 -0.000369657 0)
(9.76471e-20 -0.000316074 0)
(0 -0.00027197 0)
(0 -0.000228106 0)
(0 -0.000195309 0)
(0 -0.000160228 0)
(0 -0.000127864 0)
(0 -0.000103849 0)
(0 -8.10237e-05 0)
(0 -4.79231e-05 0)
(0 -4.21538e-05 0)
(0 -3.19295e-05 0)
(0 -2.33762e-05 0)
(0 -1.69009e-05 0)
(0 -1.19235e-05 0)
(-2.15295e-21 -8.22442e-06 0)
(1.02413e-21 -5.57609e-06 0)
(0 -3.64289e-06 0)
(0 -2.40666e-06 0)
(-4.41392e-22 -1.46722e-06 0)
(0 -9.62783e-07 0)
(0 -5.51111e-07 0)
(-5.35747e-23 -3.5175e-07 0)
(0 -2.14589e-07 0)
(0 -9.28029e-09 0)
(0 -1.46541e-24 0)
(0 8.2374e-51 0)
(0 -3.98765e-49 0)
(0 -4.29977e-54 0)
(0 -9.66574e-56 0)
(0 -5.27485e-59 0)
(0 -1.19024e-60 0)
(0 -3.41617e-63 0)
(0 -1.39103e-63 0)
(0 -6.57815e-64 0)
(0 -3.07501e-64 0)
(0 -1.40334e-64 0)
(0 -6.23795e-65 0)
(0 -2.69336e-65 0)
(0 -1.12547e-65 0)
(0 -4.52834e-66 0)
(0 -1.7411e-66 0)
(0 -6.32e-67 0)
(0 -2.11909e-67 0)
(0 -6.26128e-68 0)
(0 -1.41152e-68 0)
(0 -1.28315e-69 0)
(0 -1.9678e-71 0)
(0 -9.24767e-74 0)
(0 -3.72008e-76 0)
(0 -1.37845e-78 0)
(0 -4.70796e-81 0)
(0 -1.47435e-83 0)
(0 -2.79264e-86 0)
(0 -1.10951e-88 0)
(0 -3.47014e-89 0)
(0 -1.07572e-89 0)
(0 -3.22643e-90 0)
(1.22721e-106 -9.34849e-91 0)
(0 -2.61229e-91 0)
(0 -7.02687e-92 0)
(0 -1.8159e-92 0)
(0 -4.49832e-93 0)
(0 -1.06558e-93 0)
(0 -2.40726e-94 0)
(0 -5.17089e-95 0)
(0 -1.05257e-95 0)
(0 -2.02272e-96 0)
(4.78654e-113 -3.6538e-97 0)
(0 -6.17352e-98 0)
(0 -9.7009e-99 0)
(-8.8018e-116 -1.4082e-99 0)
(0 -1.87336e-100 0)
(0 -2.26197e-101 0)
(0 -2.44959e-102 0)
(0 -2.3437e-103 0)
(0 -1.94257e-104 0)
(0 -1.35805e-105 0)
(0 -7.70539e-107 0)
(0 -3.34046e-108 0)
(0 -9.92668e-110 0)
(0 -1.56445e-111 0)
(0 -2.04705e-114 0)
(0 -6.49463e-121 0)
(0 -4.07218e-123 0)
(0 -1.26333e-125 0)
(0 -5.23365e-136 0)
(0 -1.10917e-146 0)
(0 -1.7679e-157 0)
(0 -2.05624e-168 0)
(0 -2.08928e-179 0)
(0 -1.64586e-190 0)
(0 -1.11422e-201 0)
(0 -2.04236e-212 0)
(0 -8.67498e-223 0)
(0 -4.88562e-231 0)
(0 -2.46364e-241 0)
(0 -1.68017e-249 0)
(0 -1.0035e-259 0)
(0 -5.785e-268 0)
(0 -4.24357e-278 0)
(0 -1.99504e-286 0)
(0 -2.72659e-296 0)
(0 -7.07535e-305 0)
(0 -1.81157e-314 0)
(0 -2.47033e-323 0)
(0 -0 0)
(0 0 0)
(0 0 0)
(0 0 0)
(0 0 0)
(0 0 0)
(0 0 0)
(0 0 0)
(0 0 0)
(0 0 0)
(0 0 0)
(0 0 0)
(0 0 0)
(0 0 0)
(0 0 0)
(0 0 0)
(0 0 0)
(0 0 0)
(0 0 0)
(0 0 0)
(0 0 0)
(0 0 0)
(0 0 0)
(0 0 0)
(0 0 0)
(0 0 0)
)
;

boundaryField
{
    inandouthalf11
    {
        type            cyclic;
    }
    inandouthalf12
    {
        type            cyclic;
    }
    inandouthalf21
    {
        type            cyclic;
    }
    inandouthalf22
    {
        type            cyclic;
    }
    inandouthalf31
    {
        type            cyclic;
    }
    inandouthalf32
    {
        type            cyclic;
    }
    inandouthalf41
    {
        type            cyclic;
    }
    inandouthalf42
    {
        type            cyclic;
    }
    top
    {
        type            symmetryPlane;
    }
    walls
    {
        type            zeroGradient;
    }
    frontAndBackPlanes
    {
        type            empty;
    }
}


// ************************************************************************* //
