/*--------------------------------*- C++ -*----------------------------------*\
| =========                 |                                                 |
| \\      /  F ield         | OpenFOAM: The Open Source CFD Toolbox           |
|  \\    /   O peration     | Version:  2.4.x                                 |
|   \\  /    A nd           | Web:      www.OpenFOAM.org                      |
|    \\/     M anipulation  |                                                 |
\*---------------------------------------------------------------------------*/
FoamFile
{
    version     2.0;
    format      ascii;
    class       volTensorField;
    location    "10.75";
    object      Tauf;
}
// * * * * * * * * * * * * * * * * * * * * * * * * * * * * * * * * * * * * * //

dimensions      [0 2 -2 0 0 0 0];

internalField   nonuniform List<tensor> 
360
(
(0 -4.92676e-07 0 -4.92676e-07 4.14961e-11 0 0 0 0)
(0 1.55573e-09 0 1.55573e-09 5.00994e-11 0 0 0 0)
(0 -4.79946e-12 0 -4.79946e-12 5.18681e-11 0 0 0 0)
(0 -2.78031e-10 0 -2.78031e-10 4.93451e-11 0 0 0 0)
(5.16988e-23 -1.20205e-10 0 -1.20205e-10 4.88886e-11 0 0 0 0)
(5.16988e-23 -6.79833e-11 0 -6.79833e-11 4.87551e-11 0 0 0 0)
(5.16988e-23 -8.56768e-11 0 -8.56768e-11 4.79716e-11 0 0 0 0)
(0 -9.70326e-11 0 -9.70326e-11 4.68145e-11 0 0 0 0)
(5.16988e-23 -9.84593e-11 0 -9.84593e-11 4.56089e-11 0 0 0 0)
(0 -9.91209e-11 0 -9.91209e-11 4.44492e-11 0 0 0 0)
(5.16988e-23 -9.93117e-11 0 -9.93117e-11 4.33269e-11 0 0 0 0)
(0 -9.95446e-11 0 -9.95446e-11 4.2229e-11 0 0 0 0)
(5.16988e-23 -1.0022e-10 0 -1.0022e-10 4.11639e-11 0 0 0 0)
(0 -1.00941e-10 0 -1.00941e-10 4.01487e-11 0 0 0 0)
(0 -1.01946e-10 0 -1.01946e-10 3.92013e-11 0 0 0 0)
(0 -1.02985e-10 0 -1.02985e-10 3.83348e-11 0 0 0 0)
(0 -1.03812e-10 0 -1.03812e-10 3.75539e-11 0 0 0 0)
(5.16988e-23 -1.04572e-10 0 -1.04572e-10 3.68587e-11 0 0 0 0)
(0 -1.05767e-10 0 -1.05767e-10 3.62516e-11 0 0 0 0)
(0 -1.06614e-10 0 -1.06614e-10 3.57307e-11 0 0 0 0)
(0 -1.07513e-10 0 -1.07513e-10 3.52931e-11 0 0 0 0)
(5.16988e-23 -1.08817e-10 0 -1.08817e-10 3.49385e-11 0 0 0 0)
(0 -1.09781e-10 0 -1.09781e-10 3.46628e-11 0 0 0 0)
(0 -1.10912e-10 0 -1.10912e-10 3.44607e-11 0 0 0 0)
(0 -1.12083e-10 0 -1.12083e-10 3.43276e-11 0 0 0 0)
(5.16988e-23 -1.13048e-10 0 -1.13048e-10 3.42567e-11 0 0 0 0)
(0 -1.1436e-10 0 -1.1436e-10 3.42446e-11 0 0 0 0)
(0 -1.1573e-10 0 -1.1573e-10 3.42876e-11 0 0 0 0)
(0 -1.16739e-10 0 -1.16739e-10 3.43784e-11 0 0 0 0)
(0 -1.17914e-10 0 -1.17914e-10 3.45108e-11 0 0 0 0)
(0 -1.19529e-10 0 -1.19529e-10 3.46835e-11 0 0 0 0)
(0 -1.20422e-10 0 -1.20422e-10 3.48886e-11 0 0 0 0)
(0 -1.21939e-10 0 -1.21939e-10 3.51239e-11 0 0 0 0)
(0 -1.23493e-10 0 -1.23493e-10 3.5387e-11 0 0 0 0)
(0 -1.24521e-10 0 -1.24521e-10 3.567e-11 0 0 0 0)
(-5.16988e-23 -1.25946e-10 0 -1.25946e-10 3.59704e-11 0 0 0 0)
(0 -1.27315e-10 0 -1.27315e-10 3.6285e-11 0 0 0 0)
(0 -1.29297e-10 0 -1.29297e-10 3.66166e-11 0 0 0 0)
(0 -1.30022e-10 0 -1.30022e-10 3.69544e-11 0 0 0 0)
(0 -1.3166e-10 0 -1.3166e-10 3.72973e-11 0 0 0 0)
(0 -1.33839e-10 0 -1.33839e-10 3.765e-11 0 0 0 0)
(0 -1.34387e-10 0 -1.34387e-10 3.79994e-11 0 0 0 0)
(-5.16988e-23 -1.36379e-10 0 -1.36379e-10 3.83501e-11 0 0 0 0)
(0 -1.38215e-10 0 -1.38215e-10 3.87033e-11 0 0 0 0)
(0 -1.39432e-10 0 -1.39432e-10 3.90524e-11 0 0 0 0)
(0 -1.41612e-10 0 -1.41612e-10 3.94007e-11 0 0 0 0)
(0 -1.42604e-10 0 -1.42604e-10 3.97378e-11 0 0 0 0)
(0 -1.44067e-10 0 -1.44067e-10 4.00631e-11 0 0 0 0)
(0 -1.46976e-10 0 -1.46976e-10 4.03911e-11 0 0 0 0)
(0 -1.48085e-10 0 -1.48085e-10 4.07113e-11 0 0 0 0)
(-5.16988e-23 -1.49491e-10 0 -1.49491e-10 4.10184e-11 0 0 0 0)
(0 -1.51776e-10 0 -1.51776e-10 4.13162e-11 0 0 0 0)
(0 -1.53648e-10 0 -1.53648e-10 4.16048e-11 0 0 0 0)
(0 -1.55179e-10 0 -1.55179e-10 4.18802e-11 0 0 0 0)
(0 -1.57452e-10 0 -1.57452e-10 4.21467e-11 0 0 0 0)
(0 -1.5935e-10 0 -1.5935e-10 4.24017e-11 0 0 0 0)
(0 -1.61167e-10 0 -1.61167e-10 4.26413e-11 0 0 0 0)
(0 -1.63692e-10 0 -1.63692e-10 4.2871e-11 0 0 0 0)
(0 -1.64818e-10 0 -1.64818e-10 4.30769e-11 0 0 0 0)
(0 -1.67623e-10 0 -1.67623e-10 4.32731e-11 0 0 0 0)
(0 -1.69866e-10 0 -1.69866e-10 4.34594e-11 0 0 0 0)
(0 -1.7178e-10 0 -1.7178e-10 4.36329e-11 0 0 0 0)
(0 -1.74404e-10 0 -1.74404e-10 4.37965e-11 0 0 0 0)
(0 -1.7642e-10 0 -1.7642e-10 4.39426e-11 0 0 0 0)
(0 -1.78708e-10 0 -1.78708e-10 4.40712e-11 0 0 0 0)
(0 -1.81183e-10 0 -1.81183e-10 4.41828e-11 0 0 0 0)
(0 -1.84002e-10 0 -1.84002e-10 4.42814e-11 0 0 0 0)
(0 -1.86357e-10 0 -1.86357e-10 4.43626e-11 0 0 0 0)
(0 -1.88269e-10 0 -1.88269e-10 4.44187e-11 0 0 0 0)
(0 -1.91339e-10 0 -1.91339e-10 4.44595e-11 0 0 0 0)
(0 -1.94967e-10 0 -1.94967e-10 4.44976e-11 0 0 0 0)
(0 -1.96668e-10 0 -1.96668e-10 4.45147e-11 0 0 0 0)
(0 -1.99441e-10 0 -1.99441e-10 4.45139e-11 0 0 0 0)
(0 -2.02955e-10 0 -2.02955e-10 4.45015e-11 0 0 0 0)
(0 -2.0602e-10 0 -2.0602e-10 4.44771e-11 0 0 0 0)
(0 -2.08947e-10 0 -2.08947e-10 4.44365e-11 0 0 0 0)
(0 -2.11625e-10 0 -2.11625e-10 4.43696e-11 0 0 0 0)
(0 -2.15188e-10 0 -2.15188e-10 4.42825e-11 0 0 0 0)
(0 -2.187e-10 0 -2.187e-10 4.41777e-11 0 0 0 0)
(0 -2.21865e-10 0 -2.21865e-10 4.40539e-11 0 0 0 0)
(0 -2.25308e-10 0 -2.25308e-10 4.39123e-11 0 0 0 0)
(0 -2.29191e-10 0 -2.29191e-10 4.37582e-11 0 0 0 0)
(0 -2.32897e-10 0 -2.32897e-10 4.35916e-11 0 0 0 0)
(0 -2.36729e-10 0 -2.36729e-10 4.34129e-11 0 0 0 0)
(0 -2.40694e-10 0 -2.40694e-10 4.32202e-11 0 0 0 0)
(0 -2.44814e-10 0 -2.44814e-10 4.30118e-11 0 0 0 0)
(0 -2.48998e-10 0 -2.48998e-10 4.27851e-11 0 0 0 0)
(0 -2.53192e-10 0 -2.53192e-10 4.25367e-11 0 0 0 0)
(0 -2.57689e-10 0 -2.57689e-10 4.22676e-11 0 0 0 0)
(0 -2.62341e-10 0 -2.62341e-10 4.1979e-11 0 0 0 0)
(0 -2.67069e-10 0 -2.67069e-10 4.16728e-11 0 0 0 0)
(0 -2.72046e-10 0 -2.72046e-10 4.13521e-11 0 0 0 0)
(0 -2.77241e-10 0 -2.77241e-10 4.10195e-11 0 0 0 0)
(0 -2.82549e-10 0 -2.82549e-10 4.06759e-11 0 0 0 0)
(0 -2.88039e-10 0 -2.88039e-10 4.03214e-11 0 0 0 0)
(0 -2.93719e-10 0 -2.93719e-10 3.9955e-11 0 0 0 0)
(0 -2.9958e-10 0 -2.9958e-10 3.95757e-11 0 0 0 0)
(0 -3.05645e-10 0 -3.05645e-10 3.91828e-11 0 0 0 0)
(0 -3.11953e-10 0 -3.11953e-10 3.8777e-11 0 0 0 0)
(0 -3.18511e-10 0 -3.18511e-10 3.83604e-11 0 0 0 0)
(0 -3.25325e-10 0 -3.25325e-10 3.79361e-11 0 0 0 0)
(0 -3.32423e-10 0 -3.32423e-10 3.75084e-11 0 0 0 0)
(0 -3.39809e-10 0 -3.39809e-10 3.70822e-11 0 0 0 0)
(0 -3.47483e-10 0 -3.47483e-10 3.66628e-11 0 0 0 0)
(0 -3.55462e-10 0 -3.55462e-10 3.62556e-11 0 0 0 0)
(0 -3.63765e-10 0 -3.63765e-10 3.5866e-11 0 0 0 0)
(0 -3.72407e-10 0 -3.72407e-10 3.5499e-11 0 0 0 0)
(0 -3.8141e-10 0 -3.8141e-10 3.51591e-11 0 0 0 0)
(0 -3.90795e-10 0 -3.90795e-10 3.48493e-11 0 0 0 0)
(0 -4.00582e-10 0 -4.00582e-10 3.45703e-11 0 0 0 0)
(0 -4.10793e-10 0 -4.10793e-10 3.43203e-11 0 0 0 0)
(0 -4.21454e-10 0 -4.21454e-10 3.40935e-11 0 0 0 0)
(0 -4.3259e-10 0 -4.3259e-10 3.38805e-11 0 0 0 0)
(0 -4.44236e-10 0 -4.44236e-10 3.36676e-11 0 0 0 0)
(0 -4.56429e-10 0 -4.56429e-10 3.34381e-11 0 0 0 0)
(0 -4.69212e-10 0 -4.69212e-10 3.31737e-11 0 0 0 0)
(0 -4.82637e-10 0 -4.82637e-10 3.28575e-11 0 0 0 0)
(0 -4.96767e-10 0 -4.96767e-10 3.24775e-11 0 0 0 0)
(0 -5.11671e-10 0 -5.11671e-10 3.20314e-11 0 0 0 0)
(0 -5.27426e-10 0 -5.27426e-10 3.15315e-11 0 0 0 0)
(0 -5.44109e-10 0 -5.44109e-10 3.10088e-11 0 0 0 0)
(0 -5.61788e-10 0 -5.61788e-10 3.05164e-11 0 0 0 0)
(0 -5.80523e-10 0 -5.80523e-10 3.01317e-11 0 0 0 0)
(0 -6.00375e-10 0 -6.00375e-10 2.99576e-11 0 0 0 0)
(0 -6.21456e-10 0 -6.21456e-10 3.01234e-11 0 0 0 0)
(0 -6.43972e-10 0 -6.43972e-10 3.07854e-11 0 0 0 0)
(0 -6.68241e-10 0 -6.68241e-10 3.21253e-11 0 0 0 0)
(0 -6.94585e-10 0 -6.94585e-10 3.43409e-11 0 0 0 0)
(0 -7.23063e-10 0 -7.23063e-10 3.76147e-11 0 0 0 0)
(0 -7.53269e-10 0 -7.53269e-10 4.2046e-11 0 0 0 0)
(0 -7.84831e-10 0 -7.84831e-10 4.75306e-11 0 0 0 0)
(0 -8.19078e-10 0 -8.19078e-10 5.35979e-11 0 0 0 0)
(0 -8.60134e-10 0 -8.60134e-10 5.92279e-11 0 0 0 0)
(0 -9.11307e-10 0 -9.11307e-10 6.26957e-11 0 0 0 0)
(0 -9.68803e-10 0 -9.68803e-10 6.16708e-11 0 0 0 0)
(0 -1.02605e-09 0 -1.02605e-09 5.41341e-11 0 0 0 0)
(0 -1.09026e-09 0 -1.09026e-09 4.01772e-11 0 0 0 0)
(0 -1.18922e-09 0 -1.18922e-09 2.31103e-11 0 0 0 0)
(0 -1.34274e-09 0 -1.34274e-09 8.04413e-12 0 0 0 0)
(0 -1.49262e-09 0 -1.49262e-09 -2.12872e-12 0 0 0 0)
(0 -1.6865e-09 0 -1.6865e-09 -3.46622e-11 0 0 0 0)
(0 -7.34154e-09 0 -7.34154e-09 2.73393e-10 0 0 0 0)
(0 -5.71904e-09 0 -5.71904e-09 1.01418e-09 0 0 0 0)
(0 -8.20584e-10 0 -8.20584e-10 1.67707e-09 0 0 0 0)
(0 -3.98192e-09 0 -3.98192e-09 2.18043e-09 0 0 0 0)
(0 -5.19347e-09 0 -5.19347e-09 3.22307e-09 0 0 0 0)
(0 -6.80222e-09 0 -6.80222e-09 1.21053e-09 0 0 0 0)
(0 -5.21957e-08 0 -5.21957e-08 2.05433e-08 0 0 0 0)
(0 -2.50413e-05 0 -2.50413e-05 -5.70171e-08 0 0 0 0)
(0 -0.000215012 0 -0.000215012 -9.5775e-07 0 0 0 0)
(0 -0.00110641 0 -0.00110641 1.30078e-07 0 0 0 0)
(0 -0.00126087 0 -0.00126087 5.83785e-06 0 0 0 0)
(0 -0.00101997 0 -0.00101997 2.55471e-06 0 0 0 0)
(0 -0.000833918 0 -0.000833918 4.13797e-06 0 0 0 0)
(0 -0.000661655 0 -0.000661655 -1.3256e-07 0 0 0 0)
(0 -0.000499718 0 -0.000499718 7.7854e-07 0 0 0 0)
(0 -0.000349991 0 -0.000349991 -3.04129e-07 0 0 0 0)
(0 -0.000211209 0 -0.000211209 -8.92752e-07 0 0 0 0)
(0 -8.11739e-05 0 -8.11739e-05 -1.23644e-06 0 0 0 0)
(0 4.18671e-05 0 4.18671e-05 -1.46655e-06 0 0 0 0)
(0 0.000159091 0 0.000159091 -1.63344e-06 0 0 0 0)
(0 0.000271167 0 0.000271167 -1.75014e-06 0 0 0 0)
(0 0.000378512 0 0.000378512 -1.82644e-06 0 0 0 0)
(0 0.000481414 0 0.000481414 -1.8719e-06 0 0 0 0)
(0 0.000580065 0 0.000580065 -1.89405e-06 0 0 0 0)
(0 0.000674608 0 0.000674608 -1.89841e-06 0 0 0 0)
(0 0.000765152 0 0.000765152 -1.88904e-06 0 0 0 0)
(0 0.000851792 0 0.000851792 -1.86898e-06 0 0 0 0)
(0 0.000934613 0 0.000934613 -1.84059e-06 0 0 0 0)
(0 0.00101369 0 0.00101369 -1.80567e-06 0 0 0 0)
(0 0.00108911 0 0.00108911 -1.76566e-06 0 0 0 0)
(0 0.00116094 0 0.00116094 -1.72166e-06 0 0 0 0)
(0 0.00122926 0 0.00122926 -1.67458e-06 0 0 0 0)
(0 0.00129414 0 0.00129414 -1.62514e-06 0 0 0 0)
(0 0.00135567 0 0.00135567 -1.57395e-06 0 0 0 0)
(0 0.00141392 0 0.00141392 -1.52148e-06 0 0 0 0)
(0 0.00146896 0 0.00146896 -1.46816e-06 0 0 0 0)
(0 0.00152087 0 0.00152087 -1.41433e-06 0 0 0 0)
(0 0.00156973 0 0.00156973 -1.36029e-06 0 0 0 0)
(0 0.00161561 0 0.00161561 -1.30629e-06 0 0 0 0)
(0 0.0016586 0 0.0016586 -1.25255e-06 0 0 0 0)
(0 0.00169875 0 0.00169875 -1.19927e-06 0 0 0 0)
(0 0.00173616 0 0.00173616 -1.1466e-06 0 0 0 0)
(0 0.00177088 0 0.00177088 -1.0947e-06 0 0 0 0)
(0 0.00180299 0 0.00180299 -1.04367e-06 0 0 0 0)
(0 0.00183257 0 0.00183257 -9.93638e-07 0 0 0 0)
(0 0.00185968 0 0.00185968 -9.44684e-07 0 0 0 0)
(0 0.00188438 0 0.00188438 -8.96886e-07 0 0 0 0)
(0 0.00190676 0 0.00190676 -8.5031e-07 0 0 0 0)
(0 0.00192686 0 0.00192686 -8.05007e-07 0 0 0 0)
(0 0.00194476 0 0.00194476 -7.61018e-07 0 0 0 0)
(0 0.00196052 0 0.00196052 -7.18374e-07 0 0 0 0)
(0 0.0019742 0 0.0019742 -6.77095e-07 0 0 0 0)
(0 0.00198587 0 0.00198587 -6.37192e-07 0 0 0 0)
(0 0.00199557 0 0.00199557 -5.98668e-07 0 0 0 0)
(0 0.00200338 0 0.00200338 -5.61519e-07 0 0 0 0)
(0 0.00200934 0 0.00200934 -5.25733e-07 0 0 0 0)
(0 0.00201351 0 0.00201351 -4.91297e-07 0 0 0 0)
(0 0.00201596 0 0.00201596 -4.58198e-07 0 0 0 0)
(0 0.00201675 0 0.00201675 -4.26425e-07 0 0 0 0)
(0 0.00201599 0 0.00201599 -3.95968e-07 0 0 0 0)
(0 0.00201385 0 0.00201385 -3.66557e-07 0 0 0 0)
(1.61001e-17 0.0020104 0 0.0020104 -3.37969e-07 0 0 0 0)
(0 0.00200565 0 0.00200565 -3.1032e-07 0 0 0 0)
(0 0.00199954 0 0.00199954 -2.83737e-07 0 0 0 0)
(-7.6244e-18 0.00199203 0 0.00199203 -2.58361e-07 0 0 0 0)
(0 0.00198304 0 0.00198304 -2.3433e-07 0 0 0 0)
(7.3362e-18 0.00197252 0 0.00197252 -2.1177e-07 0 0 0 0)
(0 0.00196039 0 0.00196039 -1.9078e-07 0 0 0 0)
(-1.40888e-17 0.0019466 0 0.0019466 -1.71416e-07 0 0 0 0)
(0 0.00193109 0 0.00193109 -1.53681e-07 0 0 0 0)
(0 0.00191378 0 0.00191378 -1.3752e-07 0 0 0 0)
(0 0.00189463 0 0.00189463 -1.22821e-07 0 0 0 0)
(-1.28995e-17 0.00187358 0 0.00187358 -1.09431e-07 0 0 0 0)
(0 0.00185057 0 0.00185057 -9.71678e-08 0 0 0 0)
(0 0.00182556 0 0.00182556 -8.58561e-08 0 0 0 0)
(0 0.00179849 0 0.00179849 -7.53484e-08 0 0 0 0)
(0 0.00176932 0 0.00176932 -6.55462e-08 0 0 0 0)
(0 0.00173801 0 0.00173801 -5.64085e-08 0 0 0 0)
(5.53135e-18 0.00170453 0 0.00170453 -4.79486e-08 0 0 0 0)
(0 0.00166885 0 0.00166885 -4.02192e-08 0 0 0 0)
(5.21909e-18 0.00163093 0 0.00163093 -3.32868e-08 0 0 0 0)
(0 0.00159077 0 0.00159077 -2.7204e-08 0 0 0 0)
(4.90448e-18 0.00154834 0 0.00154834 -2.19868e-08 0 0 0 0)
(0 0.00150365 0 0.00150365 -1.7607e-08 0 0 0 0)
(0 0.00145671 0 0.00145671 -1.39987e-08 0 0 0 0)
(0 0.00140753 0 0.00140753 -1.10672e-08 0 0 0 0)
(0 0.00135616 0 0.00135616 -8.71144e-09 0 0 0 0)
(-4.11268e-18 0.00130264 0 0.00130264 -6.82906e-09 0 0 0 0)
(-3.95454e-18 0.00124705 0 0.00124705 -5.33057e-09 0 0 0 0)
(0 0.00118946 0 0.00118946 -4.13983e-09 0 0 0 0)
(0 0.00113 0 0.00113 -3.19987e-09 0 0 0 0)
(0 0.0010688 0 0.0010688 -2.4516e-09 0 0 0 0)
(0 0.00100604 0 0.00100604 -1.81534e-09 0 0 0 0)
(0 0.000941913 0 0.000941913 -1.31334e-09 0 0 0 0)
(0 0.000876675 0 0.000876675 -1.2985e-09 0 0 0 0)
(0 0.000810609 0 0.000810609 -1.5883e-09 0 0 0 0)
(0 0.000743988 0 0.000743988 -1.36273e-09 0 0 0 0)
(0 0.000677202 0 0.000677202 -7.73195e-10 0 0 0 0)
(0 0.000610752 0 0.000610752 -3.61626e-10 0 0 0 0)
(0 0.000545121 0 0.000545121 -1.33132e-10 0 0 0 0)
(0 0.000480835 0 0.000480835 -1.12373e-11 0 0 0 0)
(0 0.000418454 0 0.000418454 4.79704e-11 0 0 0 0)
(1.98013e-18 0.000358552 0 0.000358552 6.83959e-11 0 0 0 0)
(-1.87991e-18 0.000301693 0 0.000301693 6.66481e-11 0 0 0 0)
(0 0.000248396 0 0.000248396 5.52126e-11 0 0 0 0)
(0 0.000199101 0 0.000199101 4.13855e-11 0 0 0 0)
(1.63418e-18 0.000154133 0 0.000154133 2.86984e-11 0 0 0 0)
(0 0.000113684 0 0.000113684 1.91393e-11 0 0 0 0)
(0 7.77996e-05 0 7.77996e-05 1.20153e-11 0 0 0 0)
(1.46136e-18 4.63985e-05 0 4.63985e-05 7.48818e-12 0 0 0 0)
(0 1.92922e-05 0 1.92922e-05 3.82377e-12 0 0 0 0)
(0 -3.77911e-06 0 -3.77911e-06 2.12208e-13 0 0 0 0)
(0 -2.31141e-05 0 -2.31141e-05 -6.00441e-13 0 0 0 0)
(0 -3.90232e-05 0 -3.90232e-05 -3.02194e-14 0 0 0 0)
(0 -5.18101e-05 0 -5.18101e-05 3.67517e-14 0 0 0 0)
(0 -6.17599e-05 0 -6.17599e-05 1.20871e-14 0 0 0 0)
(0 -6.91355e-05 0 -6.91355e-05 3.13875e-15 0 0 0 0)
(0 -7.41773e-05 0 -7.41773e-05 3.83801e-15 0 0 0 0)
(0 -7.71057e-05 0 -7.71057e-05 4.68662e-15 0 0 0 0)
(0 -7.8125e-05 0 -7.8125e-05 4.7208e-15 0 0 0 0)
(0 -7.74268e-05 0 -7.74268e-05 4.31587e-15 0 0 0 0)
(0 -7.51943e-05 0 -7.51943e-05 3.37217e-15 0 0 0 0)
(0 -7.16055e-05 0 -7.16055e-05 4.08979e-15 0 0 0 0)
(0 -6.68365e-05 0 -6.68365e-05 1.17137e-14 0 0 0 0)
(0 -6.10651e-05 0 -6.10651e-05 1.35379e-14 0 0 0 0)
(-1.18134e-18 -5.44742e-05 0 -5.44742e-05 -2.03761e-13 0 0 0 0)
(0 -4.72561e-05 0 -4.72561e-05 6.08481e-13 0 0 0 0)
(0 -3.96165e-05 0 -3.96165e-05 -1.0771e-12 0 0 0 0)
(0 -3.17802e-05 0 -3.17802e-05 1.47895e-12 0 0 0 0)
(0 -2.39973e-05 0 -2.39973e-05 -1.70228e-12 0 0 0 0)
(0 -1.65557e-05 0 -1.65557e-05 1.68701e-12 0 0 0 0)
(0 -9.80567e-06 0 -9.80567e-06 -1.40245e-12 0 0 0 0)
(0 -3.94376e-06 0 -3.94376e-06 8.70536e-13 0 0 0 0)
(0 -4.87344e-07 0 -4.87344e-07 -2.51418e-13 0 0 0 0)
(0 -2.17439e-08 0 -2.17439e-08 6.83102e-14 0 0 0 0)
(0 -6.12709e-10 0 -6.12709e-10 -6.00863e-14 0 0 0 0)
(0 -6.73706e-12 0 -6.73706e-12 5.88597e-14 0 0 0 0)
(0 1.31715e-13 0 1.31715e-13 -5.76688e-14 0 0 0 0)
(0 1.37137e-13 0 1.37137e-13 5.65798e-14 0 0 0 0)
(0 9.29432e-14 0 9.29432e-14 -5.54829e-14 0 0 0 0)
(0 6.23567e-14 0 6.23567e-14 5.44682e-14 0 0 0 0)
(0 4.12258e-14 0 4.12258e-14 -5.34423e-14 0 0 0 0)
(0 2.72287e-14 0 2.72287e-14 5.24841e-14 0 0 0 0)
(0 1.7747e-14 0 1.7747e-14 -5.15044e-14 0 0 0 0)
(0 1.13834e-14 0 1.13834e-14 5.0584e-14 0 0 0 0)
(-9.40325e-21 7.3285e-15 0 7.3285e-15 -4.96239e-14 0 0 0 0)
(0 4.59998e-15 0 4.59998e-15 4.87364e-14 0 0 0 0)
(0 2.87877e-15 0 2.87877e-15 -4.78032e-14 0 0 0 0)
(0 1.73944e-15 0 1.73944e-15 4.69175e-14 0 0 0 0)
(0 1.03835e-15 0 1.03835e-15 -4.59918e-14 0 0 0 0)
(0 7.51799e-16 0 7.51799e-16 4.51089e-14 0 0 0 0)
(0 5.11425e-16 0 5.11425e-16 -4.4182e-14 0 0 0 0)
(0 2.11849e-16 0 2.11849e-16 4.3294e-14 0 0 0 0)
(0 2.79961e-17 0 2.79961e-17 -4.23616e-14 0 0 0 0)
(0 -1.05958e-16 0 -1.05958e-16 4.14614e-14 0 0 0 0)
(-1.5383e-20 8.21874e-17 0 8.21874e-17 -4.05338e-14 0 0 0 0)
(0 1.95465e-16 0 1.95465e-16 3.96025e-14 0 0 0 0)
(0 2.30374e-17 0 2.30374e-17 -3.86523e-14 0 0 0 0)
(1.44831e-20 -1.35518e-16 0 -1.35518e-16 3.77142e-14 0 0 0 0)
(0 1.89573e-17 0 1.89573e-17 -3.67435e-14 0 0 0 0)
(0 3.30736e-17 0 3.30736e-17 3.57801e-14 0 0 0 0)
(0 -1.66902e-17 0 -1.66902e-17 -3.47928e-14 0 0 0 0)
(0 1.50758e-16 0 1.50758e-16 3.38029e-14 0 0 0 0)
(0 -1.49871e-16 0 -1.49871e-16 -3.27901e-14 0 0 0 0)
(0 -2.65196e-16 0 -2.65196e-16 3.17735e-14 0 0 0 0)
(0 2.08347e-16 0 2.08347e-16 -3.07322e-14 0 0 0 0)
(0 3.11525e-16 0 3.11525e-16 2.968e-14 0 0 0 0)
(0 -8.13094e-17 0 -8.13094e-17 -2.86067e-14 0 0 0 0)
(0 -2.711e-16 0 -2.711e-16 2.75435e-14 0 0 0 0)
(0 -1.53353e-16 0 -1.53353e-16 -3.02937e-14 0 0 0 0)
(0 -5.83626e-17 0 -5.83626e-17 2.9909e-14 0 0 0 0)
(0 5.01106e-17 0 5.01106e-17 -2.95529e-14 0 0 0 0)
(0 2.79852e-17 0 2.79852e-17 2.91946e-14 0 0 0 0)
(0 3.26207e-17 0 3.26207e-17 -2.88344e-14 0 0 0 0)
(0 5.36906e-17 0 5.36906e-17 2.84694e-14 0 0 0 0)
(0 1.26526e-17 0 1.26526e-17 -2.81068e-14 0 0 0 0)
(0 -7.07074e-18 0 -7.07074e-18 2.77363e-14 0 0 0 0)
(0 -3.53405e-17 0 -3.53405e-17 -2.73708e-14 0 0 0 0)
(0 -1.22472e-16 0 -1.22472e-16 2.69922e-14 0 0 0 0)
(0 -5.43822e-17 0 -5.43822e-17 -2.66226e-14 0 0 0 0)
(0 1.26317e-16 0 1.26317e-16 2.62389e-14 0 0 0 0)
(0 6.09731e-17 0 6.09731e-17 -2.5864e-14 0 0 0 0)
(0 -4.29605e-17 0 -4.29605e-17 2.54721e-14 0 0 0 0)
(0 1.06475e-17 0 1.06475e-17 -2.50922e-14 0 0 0 0)
(0 -1.83965e-18 0 -1.83965e-18 2.46909e-14 0 0 0 0)
(0 1.28081e-17 0 1.28081e-17 -2.43082e-14 0 0 0 0)
(0 2.85807e-17 0 2.85807e-17 2.3887e-14 0 0 0 0)
(0 -4.83404e-17 0 -4.83404e-17 -2.35144e-14 0 0 0 0)
(0 1.11206e-17 0 1.11206e-17 2.30667e-14 0 0 0 0)
(0 2.92623e-17 0 2.92623e-17 -2.26995e-14 0 0 0 0)
(0 -5.32737e-17 0 -5.32737e-17 2.22341e-14 0 0 0 0)
(0 -4.0866e-17 0 -4.0866e-17 -2.1856e-14 0 0 0 0)
(0 5.23407e-17 0 5.23407e-17 2.13808e-14 0 0 0 0)
(0 1.34301e-17 0 1.34301e-17 -2.09806e-14 0 0 0 0)
(0 3.1992e-17 0 3.1992e-17 2.05e-14 0 0 0 0)
(0 4.76291e-17 0 4.76291e-17 -2.00854e-14 0 0 0 0)
(0 -3.989e-17 0 -3.989e-17 1.95833e-14 0 0 0 0)
(0 -9.52085e-17 0 -9.52085e-17 -1.91411e-14 0 0 0 0)
(0 -1.61347e-16 0 -1.61347e-16 1.86438e-14 0 0 0 0)
(0 -3.78432e-16 0 -3.78432e-16 -1.81571e-14 0 0 0 0)
(0 -6.06026e-17 0 -6.06026e-17 1.76566e-14 0 0 0 0)
(0 3.60823e-16 0 3.60823e-16 -1.71114e-14 0 0 0 0)
(0 2.13916e-16 0 2.13916e-16 1.6613e-14 0 0 0 0)
(0 7.46051e-17 0 7.46051e-17 -1.60433e-14 0 0 0 0)
(0 2.04082e-17 0 2.04082e-17 1.5489e-14 0 0 0 0)
(0 4.0469e-17 0 4.0469e-17 -1.4862e-14 0 0 0 0)
(0 9.29089e-18 0 9.29089e-18 1.43327e-14 0 0 0 0)
(0 -2.4468e-17 0 -2.4468e-17 -1.35841e-14 0 0 0 0)
(0 -8.13516e-17 0 -8.13516e-17 1.30633e-14 0 0 0 0)
(0 1.73675e-17 0 1.73675e-17 -1.21742e-14 0 0 0 0)
(0 1.42517e-16 0 1.42517e-16 1.16846e-14 0 0 0 0)
(0 8.64205e-17 0 8.64205e-17 -1.05961e-14 0 0 0 0)
(0 -4.28546e-17 0 -4.28546e-17 1.00957e-14 0 0 0 0)
(0 -9.08178e-17 0 -9.08178e-17 -8.82637e-15 0 0 0 0)
(0 -8.82966e-17 0 -8.82966e-17 8.13587e-15 0 0 0 0)
(0 -5.02661e-17 0 -5.02661e-17 -6.57456e-15 0 0 0 0)
(0 4.29472e-17 0 4.29472e-17 5.31925e-15 0 0 0 0)
(0 -8.05872e-17 0 -8.05872e-17 -3.69752e-15 0 0 0 0)
(0 -1.11527e-16 0 -1.11527e-16 2.91839e-16 0 0 0 0)
)
;

boundaryField
{
    inandouthalf11
    {
        type            cyclic;
    }
    inandouthalf12
    {
        type            cyclic;
    }
    inandouthalf21
    {
        type            cyclic;
    }
    inandouthalf22
    {
        type            cyclic;
    }
    inandouthalf31
    {
        type            cyclic;
    }
    inandouthalf32
    {
        type            cyclic;
    }
    inandouthalf41
    {
        type            cyclic;
    }
    inandouthalf42
    {
        type            cyclic;
    }
    top
    {
        type            symmetryPlane;
    }
    walls
    {
        type            zeroGradient;
    }
    frontAndBackPlanes
    {
        type            empty;
    }
}


// ************************************************************************* //
