/*--------------------------------*- C++ -*----------------------------------*\
| =========                 |                                                 |
| \\      /  F ield         | OpenFOAM: The Open Source CFD Toolbox           |
|  \\    /   O peration     | Version:  2.4.x                                 |
|   \\  /    A nd           | Web:      www.OpenFOAM.org                      |
|    \\/     M anipulation  |                                                 |
\*---------------------------------------------------------------------------*/
FoamFile
{
    version     2.0;
    format      ascii;
    class       volVectorField;
    location    "10.75";
    object      Ua;
}
// * * * * * * * * * * * * * * * * * * * * * * * * * * * * * * * * * * * * * //

dimensions      [0 1 -1 0 0 0 0];

internalField   nonuniform List<vector> 
360
(
(-1.75976e-32 -1.02485e-31 0)
(-2.65229e-09 -1.08643e-08 0)
(-5.47657e-09 -1.93291e-08 0)
(-7.97648e-09 -2.67176e-08 0)
(-1.04747e-08 -3.44022e-08 0)
(-1.30128e-08 -4.22658e-08 0)
(-1.55171e-08 -5.00001e-08 0)
(-1.79545e-08 -5.75299e-08 0)
(-2.03237e-08 -6.48651e-08 0)
(-2.26279e-08 -7.20161e-08 0)
(-2.48696e-08 -7.89892e-08 0)
(-2.70505e-08 -8.57874e-08 0)
(-2.91721e-08 -9.24138e-08 0)
(-3.12368e-08 -9.88749e-08 0)
(-3.3248e-08 -1.0518e-07 0)
(-3.521e-08 -1.11342e-07 0)
(-3.71274e-08 -1.17374e-07 0)
(-3.90047e-08 -1.2329e-07 0)
(-4.08466e-08 -1.29105e-07 0)
(-4.26578e-08 -1.34831e-07 0)
(-4.44426e-08 -1.40482e-07 0)
(-4.62055e-08 -1.46072e-07 0)
(-4.79507e-08 -1.51613e-07 0)
(-4.9682e-08 -1.57119e-07 0)
(-5.14032e-08 -1.62599e-07 0)
(-5.31177e-08 -1.68065e-07 0)
(-5.48284e-08 -1.73526e-07 0)
(-5.65383e-08 -1.78992e-07 0)
(-5.825e-08 -1.8447e-07 0)
(-5.99658e-08 -1.89968e-07 0)
(-6.16875e-08 -1.95491e-07 0)
(-6.3417e-08 -2.01047e-07 0)
(-6.51559e-08 -2.0664e-07 0)
(-6.69055e-08 -2.12274e-07 0)
(-6.86671e-08 -2.17954e-07 0)
(-7.04414e-08 -2.23682e-07 0)
(-7.22292e-08 -2.29461e-07 0)
(-7.40311e-08 -2.35293e-07 0)
(-7.58478e-08 -2.41181e-07 0)
(-7.76794e-08 -2.47125e-07 0)
(-7.95261e-08 -2.53126e-07 0)
(-8.13882e-08 -2.59187e-07 0)
(-8.32653e-08 -2.65304e-07 0)
(-8.51575e-08 -2.71479e-07 0)
(-8.70648e-08 -2.77713e-07 0)
(-8.8987e-08 -2.84005e-07 0)
(-9.09236e-08 -2.90354e-07 0)
(-9.28739e-08 -2.96758e-07 0)
(-9.48376e-08 -3.03215e-07 0)
(-9.68147e-08 -3.09728e-07 0)
(-9.88045e-08 -3.16293e-07 0)
(-1.00806e-07 -3.22908e-07 0)
(-1.02819e-07 -3.29573e-07 0)
(-1.04844e-07 -3.36286e-07 0)
(-1.06878e-07 -3.43045e-07 0)
(-1.08922e-07 -3.49848e-07 0)
(-1.10975e-07 -3.56693e-07 0)
(-1.13036e-07 -3.63579e-07 0)
(-1.15105e-07 -3.70503e-07 0)
(-1.1718e-07 -3.77461e-07 0)
(-1.19261e-07 -3.84453e-07 0)
(-1.21347e-07 -3.91477e-07 0)
(-1.23438e-07 -3.98531e-07 0)
(-1.25533e-07 -4.05613e-07 0)
(-1.27631e-07 -4.12721e-07 0)
(-1.29732e-07 -4.19852e-07 0)
(-1.31834e-07 -4.27002e-07 0)
(-1.33936e-07 -4.34171e-07 0)
(-1.36038e-07 -4.41355e-07 0)
(-1.38139e-07 -4.4855e-07 0)
(-1.40238e-07 -4.55754e-07 0)
(-1.42334e-07 -4.62968e-07 0)
(-1.44427e-07 -4.70187e-07 0)
(-1.46516e-07 -4.77408e-07 0)
(-1.486e-07 -4.84631e-07 0)
(-1.50679e-07 -4.91853e-07 0)
(-1.52751e-07 -4.99072e-07 0)
(-1.54816e-07 -5.06283e-07 0)
(-1.56872e-07 -5.13482e-07 0)
(-1.58919e-07 -5.20669e-07 0)
(-1.60956e-07 -5.27838e-07 0)
(-1.62982e-07 -5.34988e-07 0)
(-1.64996e-07 -5.42118e-07 0)
(-1.66998e-07 -5.49226e-07 0)
(-1.68988e-07 -5.56309e-07 0)
(-1.70964e-07 -5.63366e-07 0)
(-1.72927e-07 -5.70393e-07 0)
(-1.74874e-07 -5.77388e-07 0)
(-1.76806e-07 -5.84348e-07 0)
(-1.7872e-07 -5.91268e-07 0)
(-1.80617e-07 -5.98147e-07 0)
(-1.82496e-07 -6.04982e-07 0)
(-1.84356e-07 -6.1177e-07 0)
(-1.86196e-07 -6.18511e-07 0)
(-1.88016e-07 -6.25202e-07 0)
(-1.89816e-07 -6.31843e-07 0)
(-1.91596e-07 -6.38431e-07 0)
(-1.93354e-07 -6.44964e-07 0)
(-1.9509e-07 -6.5144e-07 0)
(-1.96803e-07 -6.57858e-07 0)
(-1.98494e-07 -6.64216e-07 0)
(-2.00161e-07 -6.70514e-07 0)
(-2.01805e-07 -6.76751e-07 0)
(-2.03427e-07 -6.82928e-07 0)
(-2.05025e-07 -6.89047e-07 0)
(-2.06602e-07 -6.95111e-07 0)
(-2.08158e-07 -7.01123e-07 0)
(-2.09693e-07 -7.07088e-07 0)
(-2.11209e-07 -7.13011e-07 0)
(-2.12707e-07 -7.18897e-07 0)
(-2.14187e-07 -7.24752e-07 0)
(-2.15652e-07 -7.30581e-07 0)
(-2.171e-07 -7.36387e-07 0)
(-2.18533e-07 -7.42173e-07 0)
(-2.19949e-07 -7.47938e-07 0)
(-2.21347e-07 -7.53678e-07 0)
(-2.22724e-07 -7.59387e-07 0)
(-2.24078e-07 -7.65055e-07 0)
(-2.25406e-07 -7.70672e-07 0)
(-2.26704e-07 -7.76226e-07 0)
(-2.27971e-07 -7.81712e-07 0)
(-2.29205e-07 -7.87128e-07 0)
(-2.30409e-07 -7.92484e-07 0)
(-2.31587e-07 -7.97806e-07 0)
(-2.32748e-07 -8.03136e-07 0)
(-2.33903e-07 -8.08543e-07 0)
(-2.35069e-07 -8.14121e-07 0)
(-2.36267e-07 -8.19999e-07 0)
(-2.37521e-07 -8.26339e-07 0)
(-2.38855e-07 -8.33336e-07 0)
(-2.4029e-07 -8.41194e-07 0)
(-2.41831e-07 -8.50089e-07 0)
(-2.43459e-07 -8.60095e-07 0)
(-2.45118e-07 -8.71076e-07 0)
(-2.46699e-07 -8.82542e-07 0)
(-2.48054e-07 -8.93517e-07 0)
(-2.49043e-07 -9.02666e-07 0)
(-2.49621e-07 -9.08918e-07 0)
(-2.49875e-07 -9.12179e-07 0)
(-2.49959e-07 -9.1335e-07 0)
(-2.49989e-07 -9.13606e-07 0)
(-2.50021e-07 -9.13673e-07 0)
(-2.50104e-07 -9.13783e-07 0)
(-4.76292e-07 -1.25676e-06 0)
(-8.23576e-07 -1.58606e-06 0)
(-1.2983e-06 -1.96922e-06 0)
(-2.1141e-06 -2.50867e-06 0)
(-4.03649e-06 -3.20705e-06 0)
(-1.33271e-05 -4.11829e-06 0)
(-0.0227247 2.44234e-05 0)
(-0.133378 0.000869428 0)
(-0.219948 0.00102773 0)
(-0.26577 -7.04994e-05 0)
(-0.290966 -0.00227092 0)
(-0.30552 -0.00501697 0)
(-0.31433 -0.00774907 0)
(-0.319765 -0.0101166 0)
(-0.323054 -0.0120392 0)
(-0.324893 -0.0135752 0)
(-0.325705 -0.014796 0)
(-0.325762 -0.015761 0)
(-0.325244 -0.0165186 0)
(-0.324276 -0.0171073 0)
(-0.322948 -0.0175573 0)
(-0.321324 -0.0178926 0)
(-0.319456 -0.0181321 0)
(-0.317381 -0.018291 0)
(-0.315129 -0.0183815 0)
(-0.312724 -0.0184138 0)
(-0.310186 -0.018396 0)
(-0.307533 -0.0183351 0)
(-0.304777 -0.0182368 0)
(-0.301933 -0.018106 0)
(-0.299009 -0.0179468 0)
(-0.296016 -0.0177627 0)
(-0.292962 -0.0175569 0)
(-0.289854 -0.017332 0)
(-0.286701 -0.0170903 0)
(-0.283507 -0.0168339 0)
(-0.28028 -0.0165645 0)
(-0.277025 -0.0162837 0)
(-0.273748 -0.0159931 0)
(-0.270453 -0.0156939 0)
(-0.267145 -0.0153872 0)
(-0.26383 -0.0150742 0)
(-0.260512 -0.0147558 0)
(-0.257195 -0.014433 0)
(-0.253884 -0.0141068 0)
(-0.250583 -0.0137778 0)
(-0.247297 -0.0134469 0)
(-0.24403 -0.0131151 0)
(-0.240786 -0.012783 0)
(-0.237569 -0.0124514 0)
(-0.234384 -0.0121213 0)
(-0.231235 -0.0117935 0)
(-0.228127 -0.0114689 0)
(-0.225063 -0.0111484 0)
(-0.222048 -0.010833 0)
(-0.219087 -0.0105236 0)
(-0.216182 -0.0102211 0)
(-0.21334 -0.00992651 0)
(-0.210534 -0.00963753 0)
(-0.20774 -0.00935222 0)
(-0.204962 -0.0090714 0)
(-0.202203 -0.00879558 0)
(-0.199465 -0.00852492 0)
(-0.196754 -0.00825914 0)
(-0.194072 -0.00799745 0)
(-0.191424 -0.00773853 0)
(-0.188813 -0.00748065 0)
(-0.186244 -0.00722176 0)
(-0.183721 -0.00695972 0)
(-0.181247 -0.00669262 0)
(-0.178826 -0.00641913 0)
(-0.176463 -0.00613881 0)
(-0.17416 -0.00585241 0)
(-0.171921 -0.00556179 0)
(-0.16975 -0.00526975 0)
(-0.167649 -0.00497972 0)
(-0.165622 -0.00469531 0)
(-0.163672 -0.00441991 0)
(-0.161799 -0.00415641 0)
(-0.160007 -0.00390689 0)
(-0.158298 -0.00367266 0)
(-0.156671 -0.00345425 0)
(-0.15513 -0.00325166 0)
(-0.153675 -0.00306447 0)
(-0.152308 -0.00289235 0)
(-0.151031 -0.00273453 0)
(-0.149844 -0.00259128 0)
(-0.148752 -0.00246169 0)
(-0.147759 -0.00234746 0)
(-0.146871 -0.00224706 0)
(-0.146096 -0.00216551 0)
(-0.145454 -0.00210165 0)
(-0.14497 -0.00205845 0)
(-0.144459 -0.00203025 0)
(-0.0723083 -0.00060521 0)
(-0.0688217 -0.000527867 0)
(-0.065476 0.000391432 0)
(-0.0623119 0.000693446 0)
(-0.0593552 0.00127678 0)
(-0.0566228 0.00169944 0)
(-0.0541347 0.00201864 0)
(-0.0519216 0.00257864 0)
(-0.0499529 0.00214117 0)
(-0.0483555 0.00384746 0)
(-0.046905 0.00101585 0)
(-0.0460817 0.00625357 0)
(-0.0450782 -0.00211755 0)
(-0.045093 0.0103496 0)
(-0.0448878 -0.00788936 0)
(-0.0463519 -0.0384328 0)
(-0.0465421 -0.0395317 0)
(-0.0469223 -0.0395188 0)
(-0.0474433 -0.0395167 0)
(-0.0481024 -0.0395147 0)
(-0.0488815 -0.0395133 0)
(-0.0497649 -0.0395125 0)
(-0.0507381 -0.0395121 0)
(-0.0517872 -0.039512 0)
(-0.0528986 -0.0395121 0)
(-0.0540594 -0.0395123 0)
(-0.0552565 -0.0395126 0)
(-0.0564768 -0.0395128 0)
(-0.0577067 -0.039513 0)
(-0.0589323 -0.039513 0)
(-0.060139 -0.0395128 0)
(-0.0613109 -0.0395122 0)
(-0.0624309 -0.0395113 0)
(-0.0634795 -0.03951 0)
(-0.0644341 -0.039508 0)
(-0.0652671 -0.0395051 0)
(-0.0659493 -0.0394997 0)
(-0.0663104 -0.039491 0)
(-0.0663759 -0.0394858 0)
(-0.0663779 -0.0394849 0)
(-0.0663779 -0.0394848 0)
(-0.0663779 -0.0394848 0)
(-0.0663779 -0.0394848 0)
(-0.0663779 -0.0394848 0)
(-0.0663779 -0.0394848 0)
(-0.0663779 -0.0394848 0)
(-0.0663779 -0.0394848 0)
(-0.0663779 -0.0394848 0)
(-0.0663779 -0.0394848 0)
(-0.0663779 -0.0394848 0)
(-0.0663779 -0.0394848 0)
(-0.0663779 -0.0394848 0)
(-0.0663779 -0.0394848 0)
(-0.0663779 -0.0394848 0)
(-0.0663779 -0.0394848 0)
(-0.0663779 -0.0394848 0)
(-0.0663779 -0.0394848 0)
(-0.0663779 -0.0394848 0)
(-0.0663779 -0.0394848 0)
(-0.0663779 -0.0394848 0)
(-0.0663779 -0.0394848 0)
(-0.0663779 -0.0394848 0)
(-0.0663779 -0.0394848 0)
(-0.0663779 -0.0394848 0)
(-0.0663779 -0.0394848 0)
(-0.0663779 -0.0394848 0)
(-0.0663779 -0.0394848 0)
(-0.0663779 -0.0394848 0)
(-0.0663779 -0.0394848 0)
(-0.0663779 -0.0394848 0)
(-0.0663779 -0.0394848 0)
(-0.0663779 -0.0394848 0)
(-0.0663779 -0.0394848 0)
(-0.0663779 -0.0394848 0)
(-0.0663779 -0.0394848 0)
(-0.0663779 -0.0394848 0)
(-0.0663779 -0.0394848 0)
(-0.0663779 -0.0394848 0)
(-0.0663779 -0.0394848 0)
(-0.0663779 -0.0394848 0)
(-0.0663779 -0.0394848 0)
(-0.0663779 -0.0394848 0)
(-0.0663779 -0.0394848 0)
(-0.0663779 -0.0394848 0)
(-0.0663779 -0.0394848 0)
(-0.0663779 -0.0394848 0)
(-0.0663779 -0.0394848 0)
(-0.0663779 -0.0394848 0)
(-0.0663779 -0.0394848 0)
(-0.0663779 -0.0394848 0)
(-0.0663779 -0.0394848 0)
(-0.0663779 -0.0394848 0)
(-0.0663779 -0.0394848 0)
(-0.0663779 -0.0394848 0)
(-0.0663779 -0.0394848 0)
(-0.0663779 -0.0394848 0)
(-0.0663779 -0.0394848 0)
(-0.0663779 -0.0394848 0)
(-0.0663779 -0.0394848 0)
(-0.0663779 -0.0394848 0)
(-0.0663779 -0.0394848 0)
(-0.0663779 -0.0394848 0)
(-0.0663779 -0.0394848 0)
(-0.0663779 -0.0394848 0)
(-0.0663779 -0.0394848 0)
(-0.0663779 -0.0394848 0)
(-0.0663779 -0.0394848 0)
(-0.0663779 -0.0394848 0)
(-0.0663779 -0.0394848 0)
(-0.0663779 -0.0394848 0)
(-0.0663779 -0.0394848 0)
(-0.0663779 -0.0394848 0)
(-0.0663779 -0.0394848 0)
(-0.0663779 -0.0394848 0)
(-0.0663779 -0.0394848 0)
(-0.0663779 -0.0394848 0)
(-0.0663779 -0.0394848 0)
(-0.0663779 -0.0394848 0)
(-0.0663779 -0.0394848 0)
(-0.0663779 -0.0394846 0)
(-0.0663766 -0.0394761 0)
(-0.0663443 -0.03913 0)
(-0.0655996 -0.0223722 0)
)
;

boundaryField
{
    inandouthalf11
    {
        type            cyclic;
    }
    inandouthalf12
    {
        type            cyclic;
    }
    inandouthalf21
    {
        type            cyclic;
    }
    inandouthalf22
    {
        type            cyclic;
    }
    inandouthalf31
    {
        type            cyclic;
    }
    inandouthalf32
    {
        type            cyclic;
    }
    inandouthalf41
    {
        type            cyclic;
    }
    inandouthalf42
    {
        type            cyclic;
    }
    top
    {
        type            symmetryPlane;
    }
    walls
    {
        type            fixedValue;
        value           uniform (0 0 0);
    }
    frontAndBackPlanes
    {
        type            empty;
    }
}


// ************************************************************************* //
