/*--------------------------------*- C++ -*----------------------------------*\
| =========                 |                                                 |
| \\      /  F ield         | OpenFOAM: The Open Source CFD Toolbox           |
|  \\    /   O peration     | Version:  2.4.x                                 |
|   \\  /    A nd           | Web:      www.OpenFOAM.org                      |
|    \\/     M anipulation  |                                                 |
\*---------------------------------------------------------------------------*/
FoamFile
{
    version     2.0;
    format      ascii;
    class       volVectorField;
    location    "10.75";
    object      Ub;
}
// * * * * * * * * * * * * * * * * * * * * * * * * * * * * * * * * * * * * * //

dimensions      [0 1 -1 0 0 0 0];

internalField   nonuniform List<vector> 
360
(
(-0.000247024 4.57775e-09 0)
(-0.000245652 1.61703e-08 0)
(-0.000245468 2.96274e-08 0)
(-0.000245657 4.21044e-08 0)
(-0.000245747 5.43e-08 0)
(-0.000245777 6.65487e-08 0)
(-0.000245815 7.86776e-08 0)
(-0.000245862 9.05344e-08 0)
(-0.000245912 1.02085e-07 0)
(-0.000245961 1.13339e-07 0)
(-0.000246011 1.24309e-07 0)
(-0.00024606 1.35002e-07 0)
(-0.00024611 1.45424e-07 0)
(-0.00024616 1.55584e-07 0)
(-0.000246211 1.65498e-07 0)
(-0.000246262 1.75185e-07 0)
(-0.000246314 1.84666e-07 0)
(-0.000246366 1.93962e-07 0)
(-0.000246419 2.03095e-07 0)
(-0.000246472 2.12088e-07 0)
(-0.000246525 2.2096e-07 0)
(-0.000246579 2.29734e-07 0)
(-0.000246634 2.3843e-07 0)
(-0.000246689 2.47066e-07 0)
(-0.000246745 2.5566e-07 0)
(-0.000246801 2.64229e-07 0)
(-0.000246858 2.72788e-07 0)
(-0.000246916 2.81352e-07 0)
(-0.000246974 2.89932e-07 0)
(-0.000247032 2.98541e-07 0)
(-0.000247092 3.07188e-07 0)
(-0.000247152 3.15883e-07 0)
(-0.000247212 3.24632e-07 0)
(-0.000247274 3.33445e-07 0)
(-0.000247336 3.42325e-07 0)
(-0.000247398 3.5128e-07 0)
(-0.000247462 3.60311e-07 0)
(-0.000247526 3.69422e-07 0)
(-0.000247591 3.78619e-07 0)
(-0.000247656 3.87899e-07 0)
(-0.000247723 3.97268e-07 0)
(-0.00024779 4.06724e-07 0)
(-0.000247857 4.16267e-07 0)
(-0.000247926 4.25899e-07 0)
(-0.000247995 4.35619e-07 0)
(-0.000248065 4.45426e-07 0)
(-0.000248137 4.55319e-07 0)
(-0.000248208 4.65294e-07 0)
(-0.000248281 4.75351e-07 0)
(-0.000248355 4.8549e-07 0)
(-0.000248429 4.95706e-07 0)
(-0.000248505 5.05999e-07 0)
(-0.000248581 5.16365e-07 0)
(-0.000248658 5.26802e-07 0)
(-0.000248736 5.37305e-07 0)
(-0.000248816 5.47875e-07 0)
(-0.000248895 5.58505e-07 0)
(-0.000248977 5.69196e-07 0)
(-0.000249059 5.79941e-07 0)
(-0.000249142 5.90734e-07 0)
(-0.000249227 6.01577e-07 0)
(-0.000249311 6.12464e-07 0)
(-0.000249398 6.23394e-07 0)
(-0.000249486 6.34362e-07 0)
(-0.000249575 6.45365e-07 0)
(-0.000249665 6.56398e-07 0)
(-0.000249756 6.67457e-07 0)
(-0.000249849 6.78538e-07 0)
(-0.000249942 6.89638e-07 0)
(-0.000250037 7.00748e-07 0)
(-0.000250134 7.11868e-07 0)
(-0.000250232 7.22997e-07 0)
(-0.00025033 7.34125e-07 0)
(-0.000250431 7.45253e-07 0)
(-0.000250533 7.56376e-07 0)
(-0.000250637 7.67492e-07 0)
(-0.000250742 7.78594e-07 0)
(-0.000250849 7.89677e-07 0)
(-0.000250957 8.00735e-07 0)
(-0.000251068 8.11766e-07 0)
(-0.000251179 8.22762e-07 0)
(-0.000251293 8.33722e-07 0)
(-0.000251408 8.44641e-07 0)
(-0.000251526 8.55518e-07 0)
(-0.000251645 8.66348e-07 0)
(-0.000251766 8.77128e-07 0)
(-0.00025189 8.87854e-07 0)
(-0.000252015 8.9852e-07 0)
(-0.000252143 9.09122e-07 0)
(-0.000252273 9.19654e-07 0)
(-0.000252406 9.30112e-07 0)
(-0.00025254 9.4049e-07 0)
(-0.000252678 9.50788e-07 0)
(-0.000252817 9.61e-07 0)
(-0.00025296 9.71126e-07 0)
(-0.000253106 9.81161e-07 0)
(-0.000253254 9.91103e-07 0)
(-0.000253405 1.00095e-06 0)
(-0.000253559 1.01069e-06 0)
(-0.000253717 1.02034e-06 0)
(-0.000253878 1.02987e-06 0)
(-0.000254042 1.03931e-06 0)
(-0.00025421 1.04863e-06 0)
(-0.000254382 1.05785e-06 0)
(-0.000254558 1.06696e-06 0)
(-0.000254738 1.07597e-06 0)
(-0.000254922 1.08489e-06 0)
(-0.00025511 1.09372e-06 0)
(-0.000255303 1.10247e-06 0)
(-0.000255501 1.11115e-06 0)
(-0.000255704 1.11976e-06 0)
(-0.000255912 1.12831e-06 0)
(-0.000256125 1.1368e-06 0)
(-0.000256344 1.14525e-06 0)
(-0.000256569 1.15364e-06 0)
(-0.000256801 1.16197e-06 0)
(-0.000257039 1.17023e-06 0)
(-0.000257283 1.1784e-06 0)
(-0.000257535 1.18646e-06 0)
(-0.000257795 1.19441e-06 0)
(-0.000258063 1.20223e-06 0)
(-0.000258339 1.20992e-06 0)
(-0.000258625 1.21749e-06 0)
(-0.00025892 1.22498e-06 0)
(-0.000259225 1.23247e-06 0)
(-0.000259541 1.24004e-06 0)
(-0.000259869 1.24786e-06 0)
(-0.000260209 1.25611e-06 0)
(-0.000260563 1.26503e-06 0)
(-0.000260932 1.27491e-06 0)
(-0.000261317 1.28605e-06 0)
(-0.000261717 1.29868e-06 0)
(-0.000262136 1.31285e-06 0)
(-0.000262577 1.32829e-06 0)
(-0.000263047 1.3442e-06 0)
(-0.000263546 1.35913e-06 0)
(-0.000264073 1.37127e-06 0)
(-0.000264636 1.37922e-06 0)
(-0.000265262 1.38282e-06 0)
(-0.000265979 1.38324e-06 0)
(-0.000266755 1.38176e-06 0)
(-0.000267666 1.36591e-06 0)
(-0.000274097 1.51845e-06 0)
(-0.000273385 1.873e-06 0)
(-0.000274917 2.35699e-06 0)
(-0.000277367 2.96322e-06 0)
(-0.000280111 3.96852e-06 0)
(-0.000284169 3.56848e-06 0)
(-0.000332294 1.42378e-05 0)
(-0.025104 -2.4688e-05 0)
(-0.154846 -0.000329896 0)
(-0.240061 -1.20519e-05 0)
(-0.28576 -2.68298e-05 0)
(-0.310221 7.58133e-05 0)
(-0.323049 6.56861e-05 0)
(-0.329897 7.38423e-05 0)
(-0.333604 7.39079e-05 0)
(-0.335528 7.1396e-05 0)
(-0.336345 6.81153e-05 0)
(-0.336415 6.46372e-05 0)
(-0.335946 6.11394e-05 0)
(-0.335066 5.77102e-05 0)
(-0.333858 5.43994e-05 0)
(-0.33238 5.12311e-05 0)
(-0.330676 4.82142e-05 0)
(-0.328778 4.53498e-05 0)
(-0.326711 4.26347e-05 0)
(-0.324496 4.00639e-05 0)
(-0.32215 3.76314e-05 0)
(-0.319689 3.53305e-05 0)
(-0.317124 3.31549e-05 0)
(-0.314468 3.10982e-05 0)
(-0.311729 2.91542e-05 0)
(-0.308916 2.73171e-05 0)
(-0.306039 2.55814e-05 0)
(-0.303102 2.3942e-05 0)
(-0.300114 2.23938e-05 0)
(-0.297079 2.09322e-05 0)
(-0.294004 1.95528e-05 0)
(-0.290893 1.82515e-05 0)
(-0.28775 1.70244e-05 0)
(-0.284579 1.58677e-05 0)
(-0.281386 1.47779e-05 0)
(-0.278171 1.37517e-05 0)
(-0.27494 1.27858e-05 0)
(-0.271695 1.18773e-05 0)
(-0.268439 1.10233e-05 0)
(-0.265174 1.0221e-05 0)
(-0.261903 9.46778e-06 0)
(-0.258627 8.76125e-06 0)
(-0.25535 8.09898e-06 0)
(-0.252073 7.47873e-06 0)
(-0.248797 6.89835e-06 0)
(-0.245524 6.3558e-06 0)
(-0.242257 5.84914e-06 0)
(-0.238996 5.37651e-06 0)
(-0.235742 4.93618e-06 0)
(-0.232498 4.52649e-06 0)
(-0.229264 4.14585e-06 0)
(-0.226042 3.79277e-06 0)
(-0.222832 3.46582e-06 0)
(-0.219603 3.16054e-06 0)
(-0.216323 2.87366e-06 0)
(-0.212992 2.60507e-06 0)
(-0.20961 2.35456e-06 0)
(-0.206177 2.12178e-06 0)
(-0.202694 1.90626e-06 0)
(-0.19916 1.70737e-06 0)
(-0.195576 1.52437e-06 0)
(-0.191943 1.35638e-06 0)
(-0.188261 1.20246e-06 0)
(-0.184531 1.06161e-06 0)
(-0.180754 9.32897e-07 0)
(-0.176932 8.15426e-07 0)
(-0.173065 7.08449e-07 0)
(-0.169155 6.11359e-07 0)
(-0.165203 5.2369e-07 0)
(-0.161212 4.45087e-07 0)
(-0.157185 3.75253e-07 0)
(-0.153122 3.13884e-07 0)
(-0.149027 2.60608e-07 0)
(-0.144904 2.14939e-07 0)
(-0.140755 1.76267e-07 0)
(-0.136586 1.43876e-07 0)
(-0.132399 1.1699e-07 0)
(-0.1282 9.48292e-08 0)
(-0.123995 7.66502e-08 0)
(-0.119789 6.17963e-08 0)
(-0.11559 4.96837e-08 0)
(-0.111405 3.98427e-08 0)
(-0.107243 3.18623e-08 0)
(-0.103114 2.54281e-08 0)
(-0.0990267 2.02405e-08 0)
(-0.0949946 1.61268e-08 0)
(-0.0910305 1.30359e-08 0)
(-0.0871489 1.06636e-08 0)
(-0.0833658 7.34931e-09 0)
(-0.0796988 3.3569e-09 0)
(-0.0761678 7.70059e-10 0)
(-0.0727932 -5.73786e-10 0)
(-0.0695967 -1.1683e-09 0)
(-0.066601 -1.32578e-09 0)
(-0.0638286 -1.23321e-09 0)
(-0.0613011 -1.02065e-09 0)
(-0.0590382 -7.7574e-10 0)
(-0.057056 -5.51647e-10 0)
(-0.0553655 -3.67637e-10 0)
(-0.0539715 -2.31241e-10 0)
(-0.0528718 -1.35624e-10 0)
(-0.0520574 -7.01831e-11 0)
(-0.0515132 -3.07616e-11 0)
(-0.0512195 -2.47782e-12 0)
(-0.0511543 4.81671e-12 0)
(-0.0512947 -5.53496e-13 0)
(-0.0516181 -1.13446e-12 0)
(-0.0521035 -8.57416e-13 0)
(-0.0527315 -7.41676e-13 0)
(-0.0534845 -7.23378e-13 0)
(-0.0543462 -7.05048e-13 0)
(-0.0553015 -6.76291e-13 0)
(-0.0563362 -6.44564e-13 0)
(-0.0574366 -6.1179e-13 0)
(-0.0585895 -5.81805e-13 0)
(-0.0597815 -5.59294e-13 0)
(-0.0609995 -5.12747e-13 0)
(-0.0622298 -3.43536e-13 0)
(-0.0634584 -2.40843e-13 0)
(-0.0646708 -4.95754e-12 0)
(-0.0658511 1.54175e-11 0)
(-0.0669823 -3.712e-11 0)
(-0.0680453 6.80731e-11 0)
(-0.0690177 -1.12213e-10 0)
(-0.0698726 1.6584e-10 0)
(-0.0705755 -2.305e-10 0)
(-0.0710067 3.00634e-10 0)
(-0.0710906 -3.764e-10 0)
(-0.0710934 4.53107e-10 0)
(-0.0710934 -5.32783e-10 0)
(-0.0710934 6.12795e-10 0)
(-0.0710934 -6.95667e-10 0)
(-0.0710934 7.79129e-10 0)
(-0.0710934 -8.65449e-10 0)
(-0.0710934 9.52587e-10 0)
(-0.0710934 -1.04258e-09 0)
(-0.0710934 1.13359e-09 0)
(-0.0710934 -1.22743e-09 0)
(-0.0710934 1.32249e-09 0)
(-0.0710934 -1.4203e-09 0)
(-0.0710934 1.51956e-09 0)
(-0.0710934 -1.62147e-09 0)
(-0.0710934 1.72501e-09 0)
(-0.0710934 -1.83112e-09 0)
(-0.0710934 1.93902e-09 0)
(-0.0710934 -2.04938e-09 0)
(-0.0710934 2.16167e-09 0)
(-0.0710934 -2.27631e-09 0)
(-0.0710934 2.39302e-09 0)
(-0.0710934 -2.512e-09 0)
(-0.0710934 2.63305e-09 0)
(-0.0710934 -2.75631e-09 0)
(-0.0710934 2.88169e-09 0)
(-0.0710934 -3.00917e-09 0)
(-0.0710934 3.13879e-09 0)
(-0.0710934 -3.27041e-09 0)
(-0.0710934 3.40414e-09 0)
(-0.0710934 -3.53975e-09 0)
(-0.0710934 3.67743e-09 0)
(-0.0710934 -3.81685e-09 0)
(-0.0710934 3.95825e-09 0)
(-0.0710934 -4.10123e-09 0)
(-0.0710934 3.72889e-09 0)
(-0.0710934 -3.78899e-09 0)
(-0.0710934 3.84853e-09 0)
(-0.0710934 -3.90721e-09 0)
(-0.0710934 3.9653e-09 0)
(-0.0710934 -4.02254e-09 0)
(-0.0710934 4.07918e-09 0)
(-0.0710934 -4.13497e-09 0)
(-0.0710934 4.19013e-09 0)
(-0.0710934 -4.24445e-09 0)
(-0.0710934 4.2981e-09 0)
(-0.0710934 -4.35094e-09 0)
(-0.0710934 4.40305e-09 0)
(-0.0710934 -4.4544e-09 0)
(-0.0710934 4.50494e-09 0)
(-0.0710934 -4.55477e-09 0)
(-0.0710934 4.6037e-09 0)
(-0.0710934 -4.652e-09 0)
(-0.0710934 4.69925e-09 0)
(-0.0710934 -4.74606e-09 0)
(-0.0710934 4.79152e-09 0)
(-0.0710934 -4.83686e-09 0)
(-0.0710934 4.88046e-09 0)
(-0.0710934 -4.92428e-09 0)
(-0.0710934 4.96598e-09 0)
(-0.0710934 -5.0082e-09 0)
(-0.0710934 5.04798e-09 0)
(-0.0710934 -5.08854e-09 0)
(-0.0710934 5.12631e-09 0)
(-0.0710934 -5.16511e-09 0)
(-0.0710934 5.20089e-09 0)
(-0.0710934 -5.23774e-09 0)
(-0.0710934 5.27151e-09 0)
(-0.0710934 -5.30618e-09 0)
(-0.0710934 5.33797e-09 0)
(-0.0710934 -5.37036e-09 0)
(-0.0710934 5.39992e-09 0)
(-0.0710934 -5.4298e-09 0)
(-0.0710934 5.45725e-09 0)
(-0.0710934 -5.48414e-09 0)
(-0.0710934 5.50951e-09 0)
(-0.0710934 -5.53284e-09 0)
(-0.0710934 5.55624e-09 0)
(-0.0710934 -5.57522e-09 0)
(-0.0710934 5.59663e-09 0)
(-0.0710934 -5.61053e-09 0)
(-0.0710934 5.62917e-09 0)
(-0.0710934 -5.63682e-09 0)
(-0.0710934 5.65045e-09 0)
(-0.0710934 -5.65161e-09 0)
)
;

boundaryField
{
    inandouthalf11
    {
        type            cyclic;
    }
    inandouthalf12
    {
        type            cyclic;
    }
    inandouthalf21
    {
        type            cyclic;
    }
    inandouthalf22
    {
        type            cyclic;
    }
    inandouthalf31
    {
        type            cyclic;
    }
    inandouthalf32
    {
        type            cyclic;
    }
    inandouthalf41
    {
        type            cyclic;
    }
    inandouthalf42
    {
        type            cyclic;
    }
    top
    {
        type            symmetryPlane;
    }
    walls
    {
        type            fixedValue;
        value           uniform (0 0 0);
    }
    frontAndBackPlanes
    {
        type            empty;
    }
}


// ************************************************************************* //
