/*--------------------------------*- C++ -*----------------------------------*\
| =========                 |                                                 |
| \\      /  F ield         | OpenFOAM: The Open Source CFD Toolbox           |
|  \\    /   O peration     | Version:  2.4.x                                 |
|   \\  /    A nd           | Web:      www.OpenFOAM.org                      |
|    \\/     M anipulation  |                                                 |
\*---------------------------------------------------------------------------*/
FoamFile
{
    version     2.0;
    format      ascii;
    class       volScalarField;
    location    "1.95";
    object      alpha;
}
// * * * * * * * * * * * * * * * * * * * * * * * * * * * * * * * * * * * * * //

dimensions      [0 0 0 0 0 0 0];

internalField   nonuniform List<scalar> 
360
(
0.609996
0.609996
0.609995
0.609995
0.609995
0.609994
0.609994
0.609993
0.609993
0.609992
0.609991
0.609991
0.60999
0.609989
0.609988
0.609987
0.609986
0.609985
0.609984
0.609982
0.609981
0.609979
0.609977
0.609975
0.609973
0.609971
0.609969
0.609966
0.609963
0.60996
0.609957
0.609953
0.60995
0.609945
0.609941
0.609936
0.609931
0.609925
0.609918
0.609912
0.609904
0.609896
0.609888
0.609878
0.609868
0.609857
0.609845
0.609833
0.609819
0.609803
0.609787
0.609769
0.60975
0.609729
0.609707
0.609682
0.609656
0.609627
0.609596
0.609563
0.609526
0.609487
0.609444
0.609398
0.609348
0.609294
0.609235
0.609171
0.609102
0.609028
0.608954
0.608897
0.608879
0.608889
0.608898
0.608887
0.608855
0.60881
0.608755
0.608697
0.608638
0.60858
0.608525
0.608473
0.608421
0.60837
0.608317
0.608262
0.608205
0.608147
0.608086
0.608025
0.607963
0.6079
0.607835
0.607769
0.607702
0.607633
0.607563
0.607491
0.607417
0.607342
0.607265
0.607186
0.607105
0.607023
0.606939
0.606852
0.606764
0.606673
0.606581
0.606486
0.606389
0.606289
0.606187
0.606083
0.605975
0.605865
0.605752
0.605635
0.605516
0.605392
0.605265
0.605134
0.604998
0.604857
0.604711
0.604559
0.604401
0.604238
0.604069
0.603895
0.603713
0.60352
0.603314
0.603096
0.602871
0.602637
0.60238
0.602094
0.601802
0.601557
0.601247
0.600809
0.600248
0.599532
0.598627
0.597418
0.595318
0.533288
0.182851
0.0651995
0.044345
0.0354674
0.0293901
0.0235032
0.0171646
0.0108617
0.00576013
0.00253995
0.000995153
0.000435132
0.000256727
0.000177492
0.000138206
0.000108667
8.81211e-05
7.49081e-05
6.15384e-05
5.40478e-05
4.53251e-05
4.05509e-05
3.42061e-05
3.10545e-05
2.66933e-05
2.42725e-05
2.08428e-05
1.92463e-05
1.68284e-05
1.50758e-05
1.37376e-05
1.20447e-05
1.11637e-05
9.76675e-06
9.10122e-06
7.98632e-06
7.40799e-06
6.52728e-06
6.1271e-06
5.43831e-06
4.8971e-06
4.54408e-06
4.04965e-06
3.80396e-06
3.35417e-06
3.10342e-06
2.74483e-06
2.58911e-06
2.34798e-06
2.19395e-06
1.91563e-06
1.75152e-06
1.56257e-06
1.48098e-06
1.3775e-06
1.20941e-06
1.06019e-06
9.51792e-07
9.00775e-07
8.19755e-07
7.03803e-07
6.2292e-07
5.84572e-07
5.27612e-07
4.39768e-07
3.90948e-07
3.66801e-07
3.30314e-07
2.73997e-07
2.36124e-07
2.17881e-07
1.92826e-07
1.59413e-07
1.43164e-07
1.28228e-07
1.02978e-07
9.05767e-08
8.23443e-08
6.72732e-08
5.6076e-08
5.06114e-08
4.21554e-08
3.42046e-08
3.00547e-08
2.40432e-08
2.11919e-08
1.64938e-08
1.4251e-08
1.20167e-08
1.13245e-08
1.1001e-08
1.08087e-08
1.01988e-08
6.40902e-09
2.49761e-10
1.18e-10
1.05084e-10
8.21647e-11
6.26816e-11
5.13271e-11
4.0418e-11
3.55089e-11
2.72563e-11
2.04263e-11
1.6193e-11
1.2479e-11
1.0825e-11
7.93132e-12
5.51196e-12
4.57299e-12
3.82142e-12
2.5971e-12
1.88005e-12
1.57524e-12
1.23836e-12
7.81245e-13
5.8492e-13
4.80499e-13
3.33236e-13
2.18268e-13
1.70849e-13
1.22943e-13
8.05667e-14
6.06994e-14
3.91117e-14
2.98848e-14
1.88316e-14
1.36811e-14
8.48098e-15
6.43882e-15
4.04573e-15
2.51893e-15
1.78384e-15
1.06792e-15
7.48155e-16
4.18732e-16
2.80484e-16
1.64834e-16
1.1278e-16
6.18032e-17
4.10372e-17
2.42221e-17
1.1753e-17
6.20171e-18
2.23414e-18
8.59488e-19
3.13101e-19
1.13936e-19
3.92335e-20
1.26235e-20
3.76484e-21
1.03003e-21
2.55334e-22
5.65076e-23
1.09557e-23
1.81476e-24
2.47822e-25
2.63775e-26
1.97201e-27
7.82286e-29
1.49999e-30
4.91073e-32
7.93745e-34
9.08074e-45
5.17721e-56
2.07618e-67
6.26505e-79
1.58035e-90
5.82331e-102
3.96654e-113
8.8809e-121
1.445e-131
3.05407e-139
4.93303e-150
1.05052e-157
2.0606e-168
3.61235e-176
9.21835e-187
1.24277e-194
6.36774e-205
4.2954e-213
4.27636e-223
1.49544e-231
2.19653e-241
5.24558e-250
1.04245e-259
1.85666e-268
4.61043e-278
6.62806e-287
1.96704e-296
2.38775e-305
8.11262e-315
2.59879e-321
8.5424e-321
0
0
0
0
0
0
0
0
0
0
0
0
0
0
0
0
)
;

boundaryField
{
    inandouthalf11
    {
        type            cyclic;
    }
    inandouthalf12
    {
        type            cyclic;
    }
    inandouthalf21
    {
        type            cyclic;
    }
    inandouthalf22
    {
        type            cyclic;
    }
    inandouthalf31
    {
        type            cyclic;
    }
    inandouthalf32
    {
        type            cyclic;
    }
    inandouthalf41
    {
        type            cyclic;
    }
    inandouthalf42
    {
        type            cyclic;
    }
    top
    {
        type            symmetryPlane;
    }
    walls
    {
        type            zeroGradient;
    }
    frontAndBackPlanes
    {
        type            empty;
    }
}


// ************************************************************************* //
