/*--------------------------------*- C++ -*----------------------------------*\
| =========                 |                                                 |
| \\      /  F ield         | OpenFOAM: The Open Source CFD Toolbox           |
|  \\    /   O peration     | Version:  2.4.x                                 |
|   \\  /    A nd           | Web:      www.OpenFOAM.org                      |
|    \\/     M anipulation  |                                                 |
\*---------------------------------------------------------------------------*/
FoamFile
{
    version     2.0;
    format      ascii;
    class       surfaceScalarField;
    location    "1.95";
    object      ddt0(phia);
}
// * * * * * * * * * * * * * * * * * * * * * * * * * * * * * * * * * * * * * //

dimensions      [0 3 -2 0 0 0 0];

internalField   nonuniform List<scalar> 
359
(
-4.90937e-41
-4.91032e-41
-4.91217e-41
-4.91545e-41
-4.9203e-41
-4.9269e-41
-4.93539e-41
-4.94593e-41
-4.95863e-41
-4.97363e-41
-4.99101e-41
-5.01085e-41
-5.03321e-41
-5.05815e-41
-5.08569e-41
-5.11581e-41
-5.14852e-41
-5.18377e-41
-5.22153e-41
-5.2618e-41
-5.30449e-41
-5.34959e-41
-5.39704e-41
-5.44675e-41
-5.49866e-41
-5.55269e-41
-5.60878e-41
-5.66696e-41
-5.72719e-41
-5.7894e-41
-5.85353e-41
-5.91962e-41
-5.98754e-41
-6.05741e-41
-6.12913e-41
-6.20276e-41
-6.2783e-41
-6.35586e-41
-6.43556e-41
-6.51735e-41
-6.60147e-41
-6.68806e-41
-6.77734e-41
-6.86985e-41
-6.96605e-41
-7.06671e-41
-7.17282e-41
-7.2857e-41
-7.40732e-41
-7.54048e-41
-7.68823e-41
-7.85557e-41
-8.04846e-41
-8.27753e-41
-8.55671e-41
-8.91506e-41
-9.39736e-41
-1.01129e-40
-1.12678e-40
-1.34511e-40
-1.83026e-40
-3.30115e-40
-8.89387e-40
-4.0912e-39
-3.72716e-38
-5.70426e-36
-8.20926e-33
-1.6015e-27
-5.60188e-19
-3.46222e-12
-2.28959e-11
-6.15385e-11
-9.32123e-11
-9.90279e-11
-8.93792e-11
-7.77632e-11
-6.8455e-11
-6.12392e-11
-5.52617e-11
-4.99368e-11
-4.49725e-11
-4.02823e-11
-3.59142e-11
-3.19593e-11
-2.84442e-11
-2.52637e-11
-2.21873e-11
-1.89279e-11
-1.52205e-11
-1.08838e-11
-5.8539e-12
-1.87394e-13
5.96487e-12
1.24023e-11
1.89238e-11
2.53661e-11
3.16216e-11
3.76374e-11
4.34031e-11
4.89319e-11
5.42452e-11
5.93599e-11
6.42823e-11
6.90061e-11
7.35149e-11
7.77854e-11
8.17939e-11
8.55217e-11
8.89608e-11
9.21191e-11
9.50244e-11
9.77266e-11
1.00299e-10
1.02838e-10
1.0546e-10
1.08296e-10
1.11488e-10
1.15183e-10
1.19523e-10
1.24644e-10
1.30668e-10
1.37701e-10
1.45829e-10
1.55104e-10
1.65533e-10
1.77048e-10
1.89476e-10
2.02522e-10
2.15791e-10
2.28881e-10
2.41533e-10
2.5377e-10
2.65935e-10
2.78574e-10
2.92181e-10
3.06845e-10
3.22015e-10
3.36642e-10
3.49494e-10
3.59408e-10
3.65723e-10
3.68752e-10
3.7005e-10
3.70573e-10
3.70742e-10
3.70797e-10
3.70821e-10
3.70787e-10
6.86293e-10
3.87337e-09
-1.00325e-08
-5.09374e-08
-9.26804e-08
-1.26435e-07
-1.43576e-07
-1.40174e-07
-1.15608e-07
-7.65435e-08
-3.4368e-08
7.83972e-09
2.98018e-08
3.66928e-08
4.08623e-08
4.33941e-08
4.52005e-08
4.67823e-08
4.81603e-08
4.94308e-08
5.05787e-08
5.16343e-08
5.25939e-08
5.34811e-08
5.429e-08
5.50455e-08
5.57375e-08
5.6382e-08
5.69853e-08
5.75589e-08
5.80837e-08
5.85928e-08
5.90701e-08
5.95251e-08
5.99612e-08
6.03803e-08
6.07864e-08
6.11681e-08
6.15383e-08
6.19082e-08
6.22666e-08
6.25912e-08
6.29239e-08
6.32495e-08
6.35674e-08
6.38721e-08
6.41492e-08
6.4418e-08
6.47094e-08
6.50105e-08
6.52907e-08
6.55337e-08
6.57415e-08
6.59644e-08
6.62489e-08
6.65609e-08
6.68143e-08
6.70067e-08
6.72202e-08
6.75255e-08
6.78525e-08
6.81e-08
6.83196e-08
6.86392e-08
6.89913e-08
6.92483e-08
6.94889e-08
6.98681e-08
7.02909e-08
7.06e-08
7.08591e-08
7.1256e-08
7.17144e-08
7.20861e-08
7.24866e-08
7.29753e-08
7.33881e-08
7.37986e-08
7.43586e-08
7.48834e-08
7.53124e-08
7.58641e-08
7.64568e-08
7.69413e-08
7.74305e-08
7.795e-08
7.84653e-08
7.89336e-08
7.93466e-08
7.98261e-08
8.05387e-08
8.13974e-08
8.22633e-08
8.30449e-08
8.34731e-08
4.2372e-08
3.29672e-10
3.26617e-10
3.29588e-10
3.26728e-10
3.29432e-10
3.26861e-10
3.29271e-10
3.27006e-10
3.29107e-10
3.27157e-10
3.28945e-10
3.27309e-10
3.28789e-10
3.27461e-10
3.28624e-10
3.27619e-10
3.28475e-10
3.27755e-10
3.28353e-10
3.27859e-10
3.28258e-10
3.27945e-10
3.28176e-10
3.28019e-10
3.28108e-10
3.28081e-10
3.28052e-10
3.2813e-10
3.28009e-10
3.28166e-10
3.27978e-10
3.28191e-10
3.27958e-10
3.28206e-10
3.27948e-10
3.28211e-10
3.27947e-10
3.28209e-10
3.27952e-10
3.282e-10
3.27964e-10
3.28185e-10
3.27981e-10
3.28167e-10
3.28e-10
3.28146e-10
3.28022e-10
3.28123e-10
3.28045e-10
3.281e-10
3.28067e-10
3.28078e-10
3.28089e-10
3.28058e-10
3.28108e-10
3.28039e-10
3.28126e-10
3.28023e-10
3.2814e-10
3.2801e-10
3.28152e-10
3.28e-10
3.28161e-10
3.27992e-10
3.28166e-10
3.27989e-10
3.28168e-10
3.27988e-10
3.28168e-10
3.2799e-10
3.28165e-10
3.27994e-10
3.28161e-10
3.28e-10
3.28155e-10
3.28007e-10
3.28147e-10
3.28015e-10
3.28139e-10
3.28024e-10
3.28131e-10
3.28033e-10
3.28124e-10
3.28042e-10
3.28117e-10
3.28053e-10
3.28112e-10
3.28064e-10
3.28109e-10
3.28075e-10
3.28107e-10
3.28085e-10
3.28106e-10
3.28095e-10
3.28106e-10
3.28104e-10
3.28108e-10
3.28112e-10
3.28112e-10
3.28121e-10
3.28119e-10
3.28126e-10
3.28133e-10
3.28129e-10
3.28147e-10
3.28124e-10
3.28153e-10
3.2813e-10
3.28152e-10
3.2813e-10
3.28144e-10
3.2814e-10
3.28318e-10
3.3227e-10
5.12378e-10
)
;

boundaryField
{
    inandouthalf11
    {
        type            cyclic;
        value           nonuniform List<scalar> 
100
(
4.54976e-43
4.55107e-43
4.55491e-43
4.56332e-43
4.5768e-43
4.59574e-43
4.62046e-43
4.65125e-43
4.68837e-43
4.73207e-43
4.78255e-43
4.83995e-43
4.9044e-43
4.97601e-43
5.05485e-43
5.14092e-43
5.2342e-43
5.33466e-43
5.44225e-43
5.55694e-43
5.67865e-43
5.80732e-43
5.9429e-43
6.0853e-43
6.23439e-43
6.39006e-43
6.55226e-43
6.72101e-43
6.89637e-43
7.07833e-43
7.26686e-43
7.46202e-43
7.66389e-43
7.87261e-43
8.08838e-43
8.31135e-43
8.54178e-43
8.78007e-43
9.02669e-43
9.28198e-43
9.5464e-43
9.82056e-43
1.0105e-42
1.04008e-42
1.07087e-42
1.10301e-42
1.13662e-42
1.17186e-42
1.20894e-42
1.24816e-42
1.28985e-42
1.33438e-42
1.38224e-42
1.43412e-42
1.49095e-42
1.55426e-42
1.6264e-42
1.712e-42
1.81939e-42
1.96722e-42
2.19795e-42
2.63647e-42
3.68296e-42
6.95081e-42
2.11033e-41
1.23191e-40
-1.18759e-39
-1.52223e-35
-5.66629e-30
-2.81292e-21
6.95184e-15
9.34178e-14
4.49571e-13
1.13565e-12
1.91603e-12
2.57652e-12
3.08799e-12
3.50118e-12
3.86817e-12
4.22643e-12
4.60055e-12
5.00392e-12
5.43896e-12
5.89861e-12
6.37103e-12
6.84594e-12
7.3188e-12
7.79128e-12
8.26913e-12
8.75931e-12
9.26755e-12
9.79673e-12
1.03466e-11
1.09141e-11
1.14952e-11
1.20852e-11
1.26807e-11
1.32794e-11
1.38803e-11
1.44835e-11
)
;
    }
    inandouthalf12
    {
        type            cyclic;
        value           nonuniform List<scalar> 
100
(
-4.54976e-43
-4.55107e-43
-4.55491e-43
-4.56332e-43
-4.5768e-43
-4.59574e-43
-4.62046e-43
-4.65125e-43
-4.68837e-43
-4.73207e-43
-4.78255e-43
-4.83995e-43
-4.9044e-43
-4.97601e-43
-5.05485e-43
-5.14092e-43
-5.2342e-43
-5.33466e-43
-5.44225e-43
-5.55694e-43
-5.67865e-43
-5.80732e-43
-5.9429e-43
-6.0853e-43
-6.23439e-43
-6.39006e-43
-6.55226e-43
-6.72101e-43
-6.89637e-43
-7.07833e-43
-7.26686e-43
-7.46202e-43
-7.66389e-43
-7.87261e-43
-8.08838e-43
-8.31135e-43
-8.54178e-43
-8.78007e-43
-9.02669e-43
-9.28198e-43
-9.5464e-43
-9.82056e-43
-1.0105e-42
-1.04008e-42
-1.07087e-42
-1.10301e-42
-1.13662e-42
-1.17186e-42
-1.20894e-42
-1.24816e-42
-1.28985e-42
-1.33438e-42
-1.38224e-42
-1.43412e-42
-1.49095e-42
-1.55426e-42
-1.6264e-42
-1.712e-42
-1.81939e-42
-1.96722e-42
-2.19795e-42
-2.63647e-42
-3.68296e-42
-6.95081e-42
-2.11033e-41
-1.23191e-40
1.18759e-39
1.52223e-35
5.66629e-30
2.81292e-21
-6.95184e-15
-9.34178e-14
-4.49571e-13
-1.13565e-12
-1.91603e-12
-2.57652e-12
-3.08799e-12
-3.50118e-12
-3.86817e-12
-4.22643e-12
-4.60055e-12
-5.00392e-12
-5.43896e-12
-5.89861e-12
-6.37103e-12
-6.84594e-12
-7.3188e-12
-7.79128e-12
-8.26913e-12
-8.75931e-12
-9.26755e-12
-9.79673e-12
-1.03466e-11
-1.09141e-11
-1.14952e-11
-1.20852e-11
-1.26807e-11
-1.32794e-11
-1.38803e-11
-1.44835e-11
)
;
    }
    inandouthalf21
    {
        type            cyclic;
        value           nonuniform List<scalar> 
100
(
1.50894e-11
1.56989e-11
1.63124e-11
1.69305e-11
1.75532e-11
1.81806e-11
1.88123e-11
1.94484e-11
2.0089e-11
2.07347e-11
2.13871e-11
2.20485e-11
2.27224e-11
2.34138e-11
2.41287e-11
2.48751e-11
2.5662e-11
2.64998e-11
2.74001e-11
2.83754e-11
2.94391e-11
3.06054e-11
3.18892e-11
3.3306e-11
3.48705e-11
3.65946e-11
3.84837e-11
4.05318e-11
4.27175e-11
4.50061e-11
4.73617e-11
4.97689e-11
5.22547e-11
5.48967e-11
5.78049e-11
6.10757e-11
6.47286e-11
6.86664e-11
7.26766e-11
7.64199e-11
7.94552e-11
8.15068e-11
8.27332e-11
8.34409e-11
8.38374e-11
8.40567e-11
8.42081e-11
8.4388e-11
8.49511e-11
1.6081e-07
4.96847e-07
8.00249e-07
1.04386e-06
1.21335e-06
1.30467e-06
1.31167e-06
1.23085e-06
1.07466e-06
8.90866e-07
7.48607e-07
6.76673e-07
6.49554e-07
6.38705e-07
6.33015e-07
6.294e-07
6.26818e-07
6.24865e-07
6.2323e-07
6.21791e-07
6.20465e-07
6.19185e-07
6.17936e-07
6.16684e-07
6.15439e-07
6.1418e-07
6.12906e-07
6.11619e-07
6.1035e-07
6.09049e-07
6.07744e-07
6.06451e-07
6.05141e-07
6.03839e-07
6.0254e-07
6.01263e-07
5.99973e-07
5.9867e-07
5.97408e-07
5.96205e-07
5.94943e-07
5.9368e-07
5.92495e-07
5.9133e-07
5.90202e-07
5.89042e-07
5.87845e-07
5.8674e-07
5.85789e-07
5.84898e-07
5.8398e-07
)
;
    }
    inandouthalf22
    {
        type            cyclic;
        value           nonuniform List<scalar> 
100
(
-1.50894e-11
-1.56989e-11
-1.63124e-11
-1.69305e-11
-1.75532e-11
-1.81806e-11
-1.88123e-11
-1.94484e-11
-2.0089e-11
-2.07347e-11
-2.13871e-11
-2.20485e-11
-2.27224e-11
-2.34138e-11
-2.41287e-11
-2.48751e-11
-2.5662e-11
-2.64998e-11
-2.74001e-11
-2.83754e-11
-2.94391e-11
-3.06054e-11
-3.18892e-11
-3.3306e-11
-3.48705e-11
-3.65946e-11
-3.84837e-11
-4.05318e-11
-4.27175e-11
-4.50061e-11
-4.73617e-11
-4.97689e-11
-5.22547e-11
-5.48967e-11
-5.78049e-11
-6.10757e-11
-6.47286e-11
-6.86664e-11
-7.26766e-11
-7.64199e-11
-7.94552e-11
-8.15068e-11
-8.27332e-11
-8.34409e-11
-8.38374e-11
-8.40567e-11
-8.42081e-11
-8.4388e-11
-8.49511e-11
-1.6081e-07
-4.96847e-07
-8.00249e-07
-1.04386e-06
-1.21335e-06
-1.30467e-06
-1.31167e-06
-1.23085e-06
-1.07466e-06
-8.90866e-07
-7.48607e-07
-6.76673e-07
-6.49554e-07
-6.38705e-07
-6.33015e-07
-6.294e-07
-6.26818e-07
-6.24865e-07
-6.2323e-07
-6.21791e-07
-6.20465e-07
-6.19185e-07
-6.17936e-07
-6.16684e-07
-6.15439e-07
-6.1418e-07
-6.12906e-07
-6.11619e-07
-6.1035e-07
-6.09049e-07
-6.07744e-07
-6.06451e-07
-6.05141e-07
-6.03839e-07
-6.0254e-07
-6.01263e-07
-5.99973e-07
-5.9867e-07
-5.97408e-07
-5.96205e-07
-5.94943e-07
-5.9368e-07
-5.92495e-07
-5.9133e-07
-5.90202e-07
-5.89042e-07
-5.87845e-07
-5.8674e-07
-5.85789e-07
-5.84898e-07
-5.8398e-07
)
;
    }
    inandouthalf31
    {
        type            cyclic;
        value           nonuniform List<scalar> 
110
(
5.82968e-07
5.93745e-07
6.04923e-07
6.16595e-07
6.28498e-07
6.40371e-07
6.52357e-07
6.6487e-07
6.77993e-07
6.91273e-07
7.04491e-07
7.18176e-07
7.32594e-07
7.47154e-07
7.61606e-07
7.76691e-07
7.92688e-07
8.0884e-07
8.24783e-07
8.41302e-07
8.58835e-07
8.76576e-07
8.94422e-07
9.13138e-07
9.3233e-07
9.51489e-07
9.71603e-07
9.92646e-07
1.01355e-06
1.03507e-06
1.0578e-06
1.08073e-06
1.10399e-06
1.12808e-06
1.15288e-06
1.17828e-06
1.20411e-06
1.23055e-06
1.2585e-06
1.28822e-06
1.31892e-06
1.35023e-06
1.3815e-06
1.41269e-06
1.39516e-06
1.42348e-06
1.45237e-06
1.48185e-06
1.51193e-06
1.54262e-06
1.57393e-06
1.60587e-06
1.63847e-06
1.67172e-06
1.70566e-06
1.74028e-06
1.7756e-06
1.81164e-06
1.84841e-06
1.88593e-06
1.92421e-06
1.96326e-06
2.00311e-06
2.04377e-06
2.08525e-06
2.12758e-06
2.17076e-06
2.21482e-06
2.25978e-06
2.30565e-06
2.35244e-06
2.40019e-06
2.44891e-06
2.49862e-06
2.54933e-06
2.60108e-06
2.65387e-06
2.70774e-06
2.7627e-06
2.81877e-06
2.87599e-06
2.93436e-06
2.99392e-06
3.05469e-06
3.11669e-06
3.17995e-06
3.2445e-06
3.31035e-06
3.37754e-06
3.4461e-06
3.51605e-06
3.58741e-06
3.66023e-06
3.73452e-06
3.81032e-06
3.88766e-06
3.96657e-06
4.04708e-06
4.12922e-06
4.21304e-06
4.29855e-06
4.3858e-06
4.47482e-06
4.56565e-06
4.65832e-06
4.75287e-06
4.84934e-06
4.94777e-06
5.04819e-06
5.15066e-06
)
;
    }
    inandouthalf32
    {
        type            cyclic;
        value           nonuniform List<scalar> 
110
(
-5.82968e-07
-5.93745e-07
-6.04923e-07
-6.16595e-07
-6.28498e-07
-6.40371e-07
-6.52357e-07
-6.6487e-07
-6.77993e-07
-6.91273e-07
-7.04491e-07
-7.18176e-07
-7.32594e-07
-7.47154e-07
-7.61606e-07
-7.76691e-07
-7.92688e-07
-8.0884e-07
-8.24783e-07
-8.41302e-07
-8.58835e-07
-8.76576e-07
-8.94422e-07
-9.13138e-07
-9.3233e-07
-9.51489e-07
-9.71603e-07
-9.92646e-07
-1.01355e-06
-1.03507e-06
-1.0578e-06
-1.08073e-06
-1.10399e-06
-1.12808e-06
-1.15288e-06
-1.17828e-06
-1.20411e-06
-1.23055e-06
-1.2585e-06
-1.28822e-06
-1.31892e-06
-1.35023e-06
-1.3815e-06
-1.41269e-06
-1.39516e-06
-1.42348e-06
-1.45237e-06
-1.48185e-06
-1.51193e-06
-1.54262e-06
-1.57393e-06
-1.60587e-06
-1.63847e-06
-1.67172e-06
-1.70566e-06
-1.74028e-06
-1.7756e-06
-1.81164e-06
-1.84841e-06
-1.88593e-06
-1.92421e-06
-1.96326e-06
-2.00311e-06
-2.04377e-06
-2.08525e-06
-2.12758e-06
-2.17076e-06
-2.21482e-06
-2.25978e-06
-2.30565e-06
-2.35244e-06
-2.40019e-06
-2.44891e-06
-2.49862e-06
-2.54933e-06
-2.60108e-06
-2.65387e-06
-2.70774e-06
-2.7627e-06
-2.81877e-06
-2.87599e-06
-2.93436e-06
-2.99392e-06
-3.05469e-06
-3.11669e-06
-3.17995e-06
-3.2445e-06
-3.31035e-06
-3.37754e-06
-3.4461e-06
-3.51605e-06
-3.58741e-06
-3.66023e-06
-3.73452e-06
-3.81032e-06
-3.88766e-06
-3.96657e-06
-4.04708e-06
-4.12922e-06
-4.21304e-06
-4.29855e-06
-4.3858e-06
-4.47482e-06
-4.56565e-06
-4.65832e-06
-4.75287e-06
-4.84934e-06
-4.94777e-06
-5.04819e-06
-5.15066e-06
)
;
    }
    inandouthalf41
    {
        type            cyclic;
        value           nonuniform List<scalar> 
50
(
4.61036e-06
4.61036e-06
4.61036e-06
4.61036e-06
4.61036e-06
4.61036e-06
4.61036e-06
4.61036e-06
4.61036e-06
4.61036e-06
4.61036e-06
4.61036e-06
4.61036e-06
4.61036e-06
4.61036e-06
4.61036e-06
4.61036e-06
4.61036e-06
4.61036e-06
4.61036e-06
4.61036e-06
4.61036e-06
4.61036e-06
4.61036e-06
4.61036e-06
4.61036e-06
4.61036e-06
4.61036e-06
4.61036e-06
4.61036e-06
4.61036e-06
4.61036e-06
4.61036e-06
4.61036e-06
4.61036e-06
4.61036e-06
4.61036e-06
4.61036e-06
4.61036e-06
4.61036e-06
4.61036e-06
4.61036e-06
4.61036e-06
4.61036e-06
4.61036e-06
4.61036e-06
4.61036e-06
4.61035e-06
4.61001e-06
4.60217e-06
)
;
    }
    inandouthalf42
    {
        type            cyclic;
        value           nonuniform List<scalar> 
50
(
-4.61036e-06
-4.61036e-06
-4.61036e-06
-4.61036e-06
-4.61036e-06
-4.61036e-06
-4.61036e-06
-4.61036e-06
-4.61036e-06
-4.61036e-06
-4.61036e-06
-4.61036e-06
-4.61036e-06
-4.61036e-06
-4.61036e-06
-4.61036e-06
-4.61036e-06
-4.61036e-06
-4.61036e-06
-4.61036e-06
-4.61036e-06
-4.61036e-06
-4.61036e-06
-4.61036e-06
-4.61036e-06
-4.61036e-06
-4.61036e-06
-4.61036e-06
-4.61036e-06
-4.61036e-06
-4.61036e-06
-4.61036e-06
-4.61036e-06
-4.61036e-06
-4.61036e-06
-4.61036e-06
-4.61036e-06
-4.61036e-06
-4.61036e-06
-4.61036e-06
-4.61036e-06
-4.61036e-06
-4.61036e-06
-4.61036e-06
-4.61036e-06
-4.61036e-06
-4.61036e-06
-4.61035e-06
-4.61001e-06
-4.60217e-06
)
;
    }
    top
    {
        type            symmetryPlane;
        value           uniform 0;
    }
    walls
    {
        type            calculated;
        value           uniform 0;
    }
    frontAndBackPlanes
    {
        type            empty;
        value           nonuniform 0();
    }
}


// ************************************************************************* //
