/*--------------------------------*- C++ -*----------------------------------*\
| =========                 |                                                 |
| \\      /  F ield         | OpenFOAM: The Open Source CFD Toolbox           |
|  \\    /   O peration     | Version:  2.4.x                                 |
|   \\  /    A nd           | Web:      www.OpenFOAM.org                      |
|    \\/     M anipulation  |                                                 |
\*---------------------------------------------------------------------------*/
FoamFile
{
    version     2.0;
    format      ascii;
    class       volScalarField;
    location    "1.95";
    object      ddt0(alpha);
}
// * * * * * * * * * * * * * * * * * * * * * * * * * * * * * * * * * * * * * //

dimensions      [0 0 -1 0 0 0 0];

internalField   nonuniform List<scalar> 
360
(
-1.00233e-12
-9.30574e-13
-9.6842e-13
-3.02102e-13
7.5465e-13
-9.09888e-14
-1.75452e-13
7.29105e-13
-8.29753e-13
3.33883e-13
6.06522e-13
-1.40433e-13
-1.19374e-12
4.32796e-13
1.22461e-15
1.06964e-12
-4.18095e-13
1.32351e-13
-4.16366e-13
1.63759e-15
1.045e-13
6.0086e-13
1.04498e-13
5.48622e-13
-3.11866e-13
-8.71807e-13
1.045e-13
-1.1495e-12
2.61233e-14
3.13501e-13
-1.1495e-12
4.16368e-13
1.045e-13
1.045e-13
-2.91684e-22
1.31383e-15
-3.13499e-13
-4.2453e-13
4.01824e-16
1.21417e-12
-1.1495e-12
-1.29704e-13
3.34633e-13
1.63529e-14
-1.1495e-12
-1.1495e-12
4.01824e-16
-1.02867e-13
-1.04085e-13
-4.08202e-16
3.25292e-13
-1.44689e-13
1.12661e-13
-1.26548e-12
6.50572e-15
-4.18e-13
-6.93944e-15
2.49003e-14
1.20744e-12
-3.98813e-13
1.0245e-16
3.11022e-13
-3.98405e-13
-2.94566e-16
-8.4906e-14
1.57804e-13
-3.13474e-13
-6.93784e-15
1.95937e-14
3.37162e-05
0.000274055
0.000882947
0.00152036
0.00165521
0.00134746
0.000979714
0.000732267
0.000606867
0.000565044
0.000576932
0.00062104
0.000678702
0.000732059
0.000768174
0.000783103
0.000781035
0.000770266
0.000758077
0.000748958
0.000744272
0.000743177
0.000743925
0.000744937
0.000745158
0.000744283
0.000742552
0.000740438
0.000738397
0.000736761
0.000735745
0.000735487
0.000736135
0.000737876
0.000740919
0.000745475
0.000751739
0.00075987
0.000769988
0.000782175
0.000796471
0.000812859
0.000831258
0.000851504
0.000873342
0.000896423
0.000920301
0.000944453
0.000968295
0.000991237
0.00101274
0.0010324
0.00105002
0.00106565
0.0010795
0.00109171
0.00110193
0.00110877
0.00110951
0.00110043
0.00107846
0.0010438
0.00100196
0.000962732
0.000935092
0.000920051
0.000906561
0.000878065
0.000824278
0.000739497
0.000612204
0.000438412
0.000244283
0.00011059
3.12324e-05
-2.16914e-05
-6.16611e-05
-9.87576e-05
-0.000168034
-0.00090933
0.509332
-0.0372226
-0.177839
-0.156016
-0.1357
-0.10427
-0.0583314
-0.00683728
0.0289785
0.036176
0.0247886
0.0110418
0.00358149
0.00118344
0.000526586
0.000286448
0.000182433
0.000114374
7.71655e-05
5.30056e-05
3.59299e-05
2.51789e-05
1.70362e-05
1.16526e-05
7.8091e-06
4.78476e-06
2.28522e-06
1.4434e-06
5.12712e-07
-1.278e-06
-8.54718e-07
-1.83924e-06
-1.85545e-06
-2.18045e-06
-2.044e-06
-2.10739e-06
-2.34668e-06
-2.38666e-06
-1.82247e-06
-1.80972e-06
-2.46542e-06
-1.71017e-06
-1.77278e-06
-1.58036e-06
-1.59991e-06
-1.74649e-06
-1.72725e-06
-1.16769e-06
-1.00371e-06
-1.07178e-06
-1.28601e-06
-1.38604e-06
-1.19547e-06
-6.82639e-07
-4.85786e-07
-8.41264e-07
-1.0411e-06
-8.63857e-07
-4.35701e-07
-3.74925e-07
-6.38407e-07
-6.74948e-07
-3.4247e-07
-2.80502e-07
-4.7904e-07
-4.64022e-07
-2.14366e-07
-1.78241e-07
-3.07115e-07
-3.2728e-07
-1.69771e-07
-1.32261e-07
-2.00163e-07
-1.58974e-07
-9.66603e-08
-1.37186e-07
-1.23891e-07
-6.39754e-08
-7.5973e-08
-9.17203e-08
-5.25098e-08
-4.50116e-08
-5.62687e-08
-4.08763e-08
-3.59316e-08
-2.86383e-08
-2.70762e-08
-2.32292e-08
-1.87855e-08
-6.22625e-09
-1.91975e-09
-4.64406e-10
-1.95901e-09
-1.64153e-08
-5.81161e-08
-3.4069e-09
-6.13071e-10
-5.60456e-10
-6.52768e-10
-4.66845e-10
-3.49313e-10
-2.11044e-10
-1.86266e-10
-2.10024e-10
-1.51402e-10
-1.13003e-10
-6.42778e-11
-5.81687e-11
-7.43283e-11
-3.44671e-11
-2.04732e-11
-2.33309e-11
-2.40501e-11
-1.03055e-11
-7.15199e-12
-9.4478e-12
-6.27077e-12
-3.17396e-12
-2.58527e-12
-2.87543e-12
-1.39382e-12
-9.24166e-13
-8.91357e-13
-5.49626e-13
-4.10786e-13
-2.4517e-13
-1.86096e-13
-1.31521e-13
-9.74467e-14
-5.00722e-14
-3.58507e-14
-3.18527e-14
-1.69688e-14
-1.17454e-14
-7.09115e-15
-5.18233e-15
-2.94657e-15
-1.88425e-15
-1.06503e-15
-7.65947e-16
-4.08435e-16
-2.44055e-16
-1.96664e-16
-1.02746e-16
-6.61135e-17
-2.63079e-17
-1.04605e-17
-3.71169e-18
-1.38042e-18
-4.88772e-19
-1.61793e-19
-4.96903e-20
-1.40097e-20
-3.57975e-21
-8.16728e-22
-1.63246e-22
-2.78786e-23
-3.92617e-24
-4.31426e-25
-3.33994e-26
-1.38734e-27
-2.83115e-29
-9.5088e-31
-1.57529e-32
-1.80425e-43
-1.0299e-54
-4.11761e-66
-1.24328e-77
-3.12157e-89
-1.15572e-100
-7.87226e-112
-1.76257e-119
-2.86018e-130
-6.06116e-138
-9.79786e-149
-2.08488e-156
-4.08867e-167
-7.16914e-175
-1.82851e-185
-2.46643e-193
-1.26331e-203
-8.52467e-212
-8.48176e-222
-2.96787e-230
-4.35938e-240
-1.04103e-248
-2.06844e-258
-3.68473e-267
-9.14938e-277
-1.31541e-285
-3.90333e-295
-4.73868e-304
-1.61426e-313
4.04492e-320
0
0
0
0
0
0
0
0
0
0
0
0
0
0
0
0
0
)
;

boundaryField
{
    inandouthalf11
    {
        type            cyclic;
    }
    inandouthalf12
    {
        type            cyclic;
    }
    inandouthalf21
    {
        type            cyclic;
    }
    inandouthalf22
    {
        type            cyclic;
    }
    inandouthalf31
    {
        type            cyclic;
    }
    inandouthalf32
    {
        type            cyclic;
    }
    inandouthalf41
    {
        type            cyclic;
    }
    inandouthalf42
    {
        type            cyclic;
    }
    top
    {
        type            symmetryPlane;
    }
    walls
    {
        type            calculated;
        value           uniform -1.00233e-12;
    }
    frontAndBackPlanes
    {
        type            empty;
    }
}


// ************************************************************************* //
