/*--------------------------------*- C++ -*----------------------------------*\
| =========                 |                                                 |
| \\      /  F ield         | OpenFOAM: The Open Source CFD Toolbox           |
|  \\    /   O peration     | Version:  2.4.x                                 |
|   \\  /    A nd           | Web:      www.OpenFOAM.org                      |
|    \\/     M anipulation  |                                                 |
\*---------------------------------------------------------------------------*/
FoamFile
{
    version     2.0;
    format      ascii;
    class       volScalarField;
    location    "1.95";
    object      mua;
}
// * * * * * * * * * * * * * * * * * * * * * * * * * * * * * * * * * * * * * //

dimensions      [1 -1 -1 0 0 0 0];

internalField   nonuniform List<scalar> 
360
(
7.43776e+33
6.94716e+36
6.86243e+36
6.4059e+36
5.9225e+36
5.48915e+36
5.10273e+36
4.75537e+36
4.44531e+36
4.16514e+36
3.91384e+36
3.69003e+36
3.48691e+36
3.30319e+36
3.13762e+36
2.98833e+36
2.85352e+36
2.73147e+36
2.61993e+36
2.51708e+36
2.42394e+36
2.33753e+36
2.25779e+36
2.18475e+36
2.1178e+36
2.05608e+36
1.99813e+36
1.94233e+36
1.88961e+36
1.84032e+36
1.7936e+36
1.74853e+36
1.70569e+36
1.66299e+36
1.62218e+36
1.58214e+36
1.5425e+36
1.50222e+36
1.46195e+36
1.42296e+36
1.38318e+36
1.34371e+36
1.30435e+36
1.26349e+36
1.22227e+36
1.18051e+36
1.13821e+36
1.0952e+36
1.04961e+36
1.00144e+36
9.52349e+35
9.01176e+35
8.48028e+35
7.91256e+35
7.3089e+35
6.62988e+35
5.87657e+35
4.97242e+35
3.9468e+35
2.77481e+35
1.64582e+35
7.20573e+34
2.32588e+34
4.87968e+33
5.65616e+32
6.87571e+30
5.93792e+27
4.41471e+22
1.70385e+14
1.82719e+06
220491
67946.4
39394.8
36202.8
44543.2
61187.9
81182.1
96687.4
102264
98564.5
90101.3
81178.1
74151.6
69661.1
67384.7
66615.9
66580.2
66645
66419.8
65781.9
64814.9
63684.2
62534.9
61452.8
60458
59525.8
58615.1
57689.1
56723.2
55703.6
54622.9
53474.1
52248.7
50938.3
49537.1
48043
46459.2
44793.3
43057.1
41265.7
39436.9
37590.6
35748
33930.5
32158.5
30450.1
28820.7
27282
25841.2
24500.4
23256.6
22101.7
21023.1
20007.2
19043.2
18130.2
17283
16533.1
15922.4
15483
15206.6
15013.7
14752.8
14276.5
13579.5
12841.5
12277.7
11994.9
12106.5
13104.4
16287
23921.8
37397.1
56633.5
84937.8
129468
170453
95743.6
0.353655
0.0232416
0.00598774
0.00695734
0.00741032
0.00728185
0.00687497
0.0063551
0.00583789
0.0054129
0.00513389
0.00499188
0.00493043
0.00489948
0.00487725
0.00485791
0.00483965
0.00482221
0.00480529
0.00478877
0.00477271
0.00475694
0.00474153
0.00472638
0.00471153
0.00469686
0.00468242
0.00466813
0.004654
0.00463995
0.004626
0.0046121
0.00459823
0.00458436
0.00457046
0.00455654
0.00454253
0.00452846
0.00451428
0.00449998
0.00448554
0.00447096
0.00445622
0.0044413
0.00442619
0.00441088
0.00439537
0.00437965
0.0043637
0.0043475
0.00433107
0.00431439
0.00429748
0.00428013
0.00426215
0.0042435
0.00422416
0.00420411
0.00418331
0.00416171
0.00413925
0.00411591
0.00409165
0.0040664
0.0040401
0.00401271
0.00398417
0.00395437
0.00392325
0.00389073
0.00385673
0.00382112
0.00378378
0.0037446
0.00370342
0.00366008
0.00361439
0.00356616
0.00351511
0.00346098
0.00340345
0.00334213
0.00327656
0.00320622
0.00313044
0.0030484
0.00295908
0.00286117
0.00275291
0.00263192
0.00249477
0.00233623
0.00214763
0.00191226
0.00158895
0
0
0
0
0
0
0
0
0
0
0
0
0
0
0
0
0
0
0
0
0
0
0
0
0
0
0
0
0
0
0
0
0
0
0
0
0
0
0
0
0
0
0
0
0
0
0
0
0
0
0
0
0
0
0
0
0
0
0
0
0
0
0
0
0
0
0
0
0
0
0
0
0
0
0
0
0
0
0
0
0
0
0
0
0
0
0
0
0
0
0
0
0
0
0
0
0
0
0
0
0
0
0
0
0
0
0
0
0
0
0
0
0
0
0
0
0
)
;

boundaryField
{
    inandouthalf11
    {
        type            cyclic;
    }
    inandouthalf12
    {
        type            cyclic;
    }
    inandouthalf21
    {
        type            cyclic;
    }
    inandouthalf22
    {
        type            cyclic;
    }
    inandouthalf31
    {
        type            cyclic;
    }
    inandouthalf32
    {
        type            cyclic;
    }
    inandouthalf41
    {
        type            cyclic;
    }
    inandouthalf42
    {
        type            cyclic;
    }
    top
    {
        type            symmetryPlane;
    }
    walls
    {
        type            calculated;
        value           uniform 1e+30;
    }
    frontAndBackPlanes
    {
        type            empty;
    }
}


// ************************************************************************* //
