/*--------------------------------*- C++ -*----------------------------------*\
| =========                 |                                                 |
| \\      /  F ield         | OpenFOAM: The Open Source CFD Toolbox           |
|  \\    /   O peration     | Version:  2.4.x                                 |
|   \\  /    A nd           | Web:      www.OpenFOAM.org                      |
|    \\/     M anipulation  |                                                 |
\*---------------------------------------------------------------------------*/
FoamFile
{
    version     2.0;
    format      ascii;
    class       volScalarField;
    location    "1.95";
    object      pa;
}
// * * * * * * * * * * * * * * * * * * * * * * * * * * * * * * * * * * * * * //

dimensions      [1 -1 -2 0 0 0 0];

internalField   nonuniform List<scalar> 
360
(
2.87809e-16
2.87809e-16
2.87806e-16
2.87806e-16
2.87806e-16
2.87803e-16
2.87803e-16
2.878e-16
2.878e-16
2.87797e-16
2.87795e-16
2.87795e-16
2.87792e-16
2.87789e-16
2.87786e-16
2.87783e-16
2.8778e-16
2.87777e-16
2.87775e-16
2.87769e-16
2.87766e-16
2.8776e-16
2.87755e-16
2.87749e-16
2.87743e-16
2.87737e-16
2.87732e-16
2.87723e-16
2.87715e-16
2.87706e-16
2.87697e-16
2.87686e-16
2.87677e-16
2.87663e-16
2.87652e-16
2.87637e-16
2.87623e-16
2.87606e-16
2.87586e-16
2.87569e-16
2.87546e-16
2.87523e-16
2.875e-16
2.87472e-16
2.87443e-16
2.87412e-16
2.87378e-16
2.87343e-16
2.87303e-16
2.87258e-16
2.87212e-16
2.87161e-16
2.87107e-16
2.87047e-16
2.86984e-16
2.86913e-16
2.86839e-16
2.86756e-16
2.86668e-16
2.86574e-16
2.86469e-16
2.86358e-16
2.86236e-16
2.86105e-16
2.85963e-16
2.8581e-16
2.85643e-16
2.85462e-16
2.85266e-16
2.85076e-16
2.86018e-16
2.96895e-16
3.22214e-16
3.30056e-16
3.14133e-16
2.99816e-16
2.92937e-16
2.90166e-16
2.89247e-16
2.89293e-16
2.89954e-16
2.90965e-16
2.91993e-16
2.92701e-16
2.92921e-16
2.92725e-16
2.9231e-16
2.91861e-16
2.91483e-16
2.91207e-16
2.91011e-16
2.90857e-16
2.90705e-16
2.90532e-16
2.90331e-16
2.90106e-16
2.89868e-16
2.89629e-16
2.89394e-16
2.89165e-16
0
0
0
0
0
0
0
0
0
0
0
0
0
0
0
2.90175e-16
2.90615e-16
2.91062e-16
2.91496e-16
2.91899e-16
2.92254e-16
2.92551e-16
2.92788e-16
2.9297e-16
2.93099e-16
2.93161e-16
2.93103e-16
2.9282e-16
2.92171e-16
2.91055e-16
2.89506e-16
2.87758e-16
2.86159e-16
2.84971e-16
2.84172e-16
2.83412e-16
2.8223e-16
2.80365e-16
2.77666e-16
2.73888e-16
2.69583e-16
2.66423e-16
2.64408e-16
2.81505e-16
2.93868e-14
7.4607e-10
8.11701e-06
0.0047323
0.320158
3.97847
2.21796
1.57463
1.20884
0.925352
0.677835
0.458686
0.279216
0.149775
0.0705508
0.029161
0.0110982
0.00478444
0.00279585
0.00191722
0.0014815
0.00115638
0.000931116
0.000786041
0.000641398
0.000559597
0.000466238
0.00041446
0.000347412
0.00031344
0.000267764
0.000241995
0.000206543
0.000189572
0.00016476
0.000146714
0.000132888
0.00011581
0.000106689
9.27699e-05
8.59177e-05
7.4926e-05
6.90655e-05
6.04696e-05
5.63985e-05
4.97334e-05
4.44891e-05
4.10059e-05
3.6296e-05
3.38584e-05
2.96453e-05
2.72332e-05
2.39113e-05
2.23877e-05
2.01494e-05
1.86829e-05
1.61852e-05
1.46794e-05
1.2986e-05
1.22004e-05
1.12447e-05
9.77912e-06
8.4879e-06
7.54157e-06
7.0605e-06
6.35318e-06
5.39043e-06
4.71225e-06
4.36515e-06
3.88658e-06
3.19355e-06
2.79673e-06
2.58284e-06
2.28752e-06
1.86449e-06
1.57724e-06
1.42708e-06
1.23695e-06
1.00024e-06
8.77385e-07
7.66355e-07
5.99129e-07
5.12e-07
4.51239e-07
3.56497e-07
2.86549e-07
2.48577e-07
1.98251e-07
1.53345e-07
1.27771e-07
9.63122e-08
7.93656e-08
5.71849e-08
4.51615e-08
3.42152e-08
2.82766e-08
2.32127e-08
1.80818e-08
1.178e-08
0
0
0
0
0
0
0
0
0
0
0
0
0
0
0
0
0
0
0
0
0
0
0
0
0
0
0
0
0
0
0
0
0
0
0
0
0
0
0
0
0
0
0
0
0
0
0
0
0
0
0
0
0
0
0
0
0
0
0
0
0
0
0
0
0
0
0
0
0
0
0
0
0
0
0
0
0
0
0
0
0
0
0
0
0
0
0
0
0
0
0
0
0
0
0
0
0
0
0
0
0
0
0
0
0
0
0
0
0
0
0
0
0
0
0
0
0
)
;

boundaryField
{
    inandouthalf11
    {
        type            cyclic;
    }
    inandouthalf12
    {
        type            cyclic;
    }
    inandouthalf21
    {
        type            cyclic;
    }
    inandouthalf22
    {
        type            cyclic;
    }
    inandouthalf31
    {
        type            cyclic;
    }
    inandouthalf32
    {
        type            cyclic;
    }
    inandouthalf41
    {
        type            cyclic;
    }
    inandouthalf42
    {
        type            cyclic;
    }
    top
    {
        type            symmetryPlane;
    }
    walls
    {
        type            calculated;
        value           uniform 2.87809e-16;
    }
    frontAndBackPlanes
    {
        type            empty;
    }
}


// ************************************************************************* //
