/*--------------------------------*- C++ -*----------------------------------*\
| =========                 |                                                 |
| \\      /  F ield         | OpenFOAM: The Open Source CFD Toolbox           |
|  \\    /   O peration     | Version:  2.4.x                                 |
|   \\  /    A nd           | Web:      www.OpenFOAM.org                      |
|    \\/     M anipulation  |                                                 |
\*---------------------------------------------------------------------------*/
FoamFile
{
    version     2.0;
    format      ascii;
    class       volVectorField;
    location    "1.95";
    object      susb;
}
// * * * * * * * * * * * * * * * * * * * * * * * * * * * * * * * * * * * * * //

dimensions      [0 1 -2 0 0 0 0];

internalField   nonuniform List<vector> 
360
(
(0 -1.726e-28 0)
(0 -6.90748e-21 0)
(0 -6.90743e-21 0)
(0 3.42273e-28 0)
(-3.65676e-31 -6.90743e-21 0)
(-3.65674e-31 -6.90738e-21 0)
(-3.65674e-31 -6.90738e-21 0)
(0 -6.90734e-21 0)
(-3.65671e-31 -6.90734e-21 0)
(0 -1.38146e-20 0)
(-3.65666e-31 -6.90724e-21 0)
(0 -6.90724e-21 0)
(-3.65664e-31 -1.38144e-20 0)
(0 -1.38143e-20 0)
(0 -1.38142e-20 0)
(0 -1.38141e-20 0)
(0 -1.3814e-20 0)
(-3.65652e-31 -1.38139e-20 0)
(0 -2.07207e-20 0)
(0 -2.07205e-20 0)
(0 -2.07203e-20 0)
(-3.65637e-31 -2.76267e-20 0)
(0 -2.76264e-20 0)
(0 -2.7626e-20 0)
(0 -2.76256e-20 0)
(-3.65617e-31 -2.76252e-20 0)
(0 -3.45311e-20 0)
(0 -4.14364e-20 0)
(0 -4.14356e-20 0)
(0 -4.14348e-20 0)
(0 -4.83396e-20 0)
(0 -4.83383e-20 0)
(0 -5.52426e-20 0)
(0 -6.21458e-20 0)
(0 -6.21442e-20 0)
(7.31061e-31 -6.90467e-20 0)
(0 -7.59488e-20 0)
(0 -8.97541e-20 0)
(0 -8.97498e-20 0)
(0 -9.66497e-20 0)
(0 -1.10451e-19 0)
(0 -1.10445e-19 0)
(3.65412e-31 -1.24244e-19 0)
(0 -1.38039e-19 0)
(0 -1.44931e-19 0)
(0 -1.58723e-19 0)
(0 -1.6561e-19 0)
(0 -1.79396e-19 0)
(0 -2.06976e-19 0)
(0 -2.20751e-19 0)
(3.65162e-31 -2.34522e-19 0)
(0 -2.55185e-19 0)
(0 -2.7584e-19 0)
(0 -2.96486e-19 0)
(0 -3.24017e-19 0)
(0 -3.51534e-19 0)
(0 -3.79039e-19 0)
(0 -4.13416e-19 0)
(0 -4.40884e-19 0)
(0 -4.8211e-19 0)
(0 -5.23302e-19 0)
(0 -5.64467e-19 0)
(0 -6.12475e-19 0)
(0 -6.60442e-19 0)
(0 -7.15237e-19 0)
(0 -7.76849e-19 0)
(0 -8.4526e-19 0)
(0 -9.13585e-19 0)
(0 -9.78617e-19 0)
(0 -1.01611e-18 0)
(0 -9.00875e-19 0)
(0 -5.12451e-19 0)
(0 -5.42693e-20 0)
(0 1.30962e-19 0)
(0 -1.6668e-20 0)
(0 -2.93886e-19 0)
(0 -5.28552e-19 0)
(0 -6.8593e-19 0)
(0 -7.72858e-19 0)
(0 -8.04292e-19 0)
(0 -7.97854e-19 0)
(0 -7.70382e-19 0)
(0 -7.3526e-19 0)
(0 -7.09427e-19 0)
(0 -7.01808e-19 0)
(0 -7.12878e-19 0)
(0 -7.3606e-19 0)
(0 -7.62989e-19 0)
(0 -7.89272e-19 0)
(0 -8.11113e-19 0)
(0 -8.27753e-19 0)
(0 -8.41849e-19 0)
(0 -8.55657e-19 0)
(0 -8.70385e-19 0)
(0 -8.87172e-19 0)
(0 -9.05993e-19 0)
(0 -9.26144e-19 0)
(0 -9.46951e-19 0)
(0 -9.68087e-19 0)
(0 -9.89399e-19 0)
(0 -1.01098e-18 0)
(0 -1.03317e-18 0)
(0 -1.05612e-18 0)
(0 -1.07982e-18 0)
(0 -1.10427e-18 0)
(0 -1.12942e-18 0)
(0 -1.15522e-18 0)
(0 -1.18169e-18 0)
(0 -1.20889e-18 0)
(0 -1.23687e-18 0)
(0 -1.26571e-18 0)
(0 -1.29548e-18 0)
(0 -1.3263e-18 0)
(0 -1.35829e-18 0)
(0 -1.39161e-18 0)
(0 -1.42641e-18 0)
(0 -1.46289e-18 0)
(0 -1.50122e-18 0)
(0 -1.54159e-18 0)
(0 -1.58424e-18 0)
(0 -1.62949e-18 0)
(0 -1.67781e-18 0)
(0 -1.72986e-18 0)
(0 -1.78645e-18 0)
(0 -1.84836e-18 0)
(0 -1.91587e-18 0)
(0 -1.98812e-18 0)
(0 -2.06264e-18 0)
(0 -2.13574e-18 0)
(0 -2.20509e-18 0)
(0 -2.27468e-18 0)
(0 -2.35941e-18 0)
(0 -2.48045e-18 0)
(0 -2.64096e-18 0)
(0 -2.80179e-18 0)
(0 -2.91841e-18 0)
(0 -3.02419e-18 0)
(0 -3.2284e-18 0)
(0 -3.56557e-18 0)
(0 -3.78702e-18 0)
(0 -3.50885e-18 0)
(0 -3.62121e-18 0)
(0 -2.97219e-18 0)
(0 -4.30757e-19 0)
(0 -1.65206e-17 0)
(0 -1.07839e-15 0)
(0 -8.13414e-14 0)
(0 -8.40059e-12 0)
(0 -1.23607e-08 0)
(0 -4.91754e-06 0)
(0 -6.00285e-05 0)
(0 -0.000233762 0)
(0 -5.88292e-05 0)
(0 -9.5396e-06 0)
(0 -1.35542e-06 0)
(0 -1.77732e-07 0)
(0 -1.94406e-08 0)
(0 -1.66402e-09 0)
(0 -1.09355e-10 0)
(0 -5.86292e-12 0)
(0 -3.03939e-13 0)
(0 -1.85065e-14 0)
(0 -1.46771e-15 0)
(0 -1.62672e-16 0)
(0 -2.25036e-17 0)
(0 -3.9717e-18 0)
(0 -7.21939e-19 0)
(0 -2.06029e-19 0)
(0 -9.23108e-20 0)
(0 -5.63835e-20 0)
(0 -4.09352e-20 0)
(0 -3.00694e-20 0)
(0 -2.30258e-20 0)
(0 -1.63591e-20 0)
(0 -1.32486e-20 0)
(0 -1.02008e-20 0)
(0 -7.74507e-21 0)
(0 -5.39119e-21 0)
(0 -4.80528e-21 0)
(0 -3.01061e-21 0)
(0 -2.4751e-21 0)
(0 -1.7578e-21 0)
(0 -1.4837e-21 0)
(0 -1.34036e-21 0)
(0 -1.1544e-21 0)
(0 -1.09527e-21 0)
(0 -9.41482e-22 0)
(0 -8.24474e-22 0)
(0 -6.99158e-22 0)
(0 -7.87672e-22 0)
(0 -5.71129e-22 0)
(0 -5.39795e-22 0)
(0 -4.70151e-22 0)
(0 -4.4059e-22 0)
(0 -4.42566e-22 0)
(0 -3.83875e-22 0)
(0 -3.23084e-22 0)
(0 -2.48578e-22 0)
(0 -2.46828e-22 0)
(0 -2.693e-22 0)
(0 -2.73773e-22 0)
(0 -2.14152e-22 0)
(-5.98911e-38 -1.61108e-22 0)
(0 -1.0714e-22 0)
(0 -1.53438e-22 0)
(1.11761e-37 -1.75707e-22 0)
(0 -1.39509e-22 0)
(-5.33302e-38 -8.44984e-23 0)
(0 -6.79669e-23 0)
(0 -9.90993e-23 0)
(0 -9.70767e-23 0)
(0 -5.75307e-23 0)
(0 -4.46629e-23 0)
(2.31519e-38 -6.62607e-23 0)
(0 -6.13711e-23 0)
(0 -3.20057e-23 0)
(0 -2.58243e-23 0)
(0 -3.85866e-23 0)
(0 -3.83877e-23 0)
(-1.00208e-38 -2.23543e-23 0)
(0 -1.67464e-23 0)
(0 -2.20721e-23 0)
(0 -1.83822e-23 0)
(-9.08356e-39 -1.12261e-23 0)
(0 -1.40705e-23 0)
(0 -1.29352e-23 0)
(0 -6.90212e-24 0)
(0 -7.56315e-24 0)
(0 -8.34868e-24 0)
(1.95193e-39 -5.17122e-24 0)
(0 -4.18676e-24 0)
(0 -4.82033e-24 0)
(0 -3.47314e-24 0)
(0 -2.82645e-24 0)
(0 -2.4137e-24 0)
(0 -1.98986e-24 0)
(0 -1.79185e-24 0)
(0 -1.12114e-24 0)
(0 -7.1723e-25 0)
(0 -2.42036e-25 0)
(0 -1.1968e-25 0)
(0 -1.80151e-25 0)
(0 -9.62988e-25 0)
(-3.39554e-40 -2.13609e-24 0)
(7.50453e-42 -9.66773e-25 0)
(0 -2.17613e-26 0)
(0 -5.22493e-27 0)
(-1.76637e-42 -6.08146e-27 0)
(0 -4.34276e-27 0)
(0 -3.06542e-27 0)
(-1.66304e-42 -2.14235e-27 0)
(0 -1.73604e-27 0)
(0 -1.95667e-27 0)
(0 -1.40867e-27 0)
(0 -9.90097e-28 0)
(0 -6.5755e-28 0)
(0 -5.42402e-28 0)
(0 -6.23343e-28 0)
(0 -3.87534e-28 0)
(0 -1.90567e-28 0)
(0 -2.17537e-28 0)
(0 -2.1054e-28 0)
(0 -1.0877e-28 0)
(0 -6.66411e-29 0)
(0 -8.07358e-29 0)
(0 -6.54822e-29 0)
(1.88406e-44 -2.9511e-29 0)
(0 -2.40901e-29 0)
(0 -2.4673e-29 0)
(0 -1.50188e-29 0)
(0 -8.60465e-30 0)
(0 -7.99264e-30 0)
(0 -5.41703e-30 0)
(0 -3.52178e-30 0)
(0 -2.57717e-30 0)
(0 -1.6542e-30 0)
(0 -1.30133e-30 0)
(0 -8.11716e-31 0)
(0 -5.59124e-31 0)
(0 -3.33871e-31 0)
(0 -2.90079e-31 0)
(0 -1.64266e-31 0)
(0 -1.02933e-31 0)
(0 -7.22758e-32 0)
(0 -4.42262e-32 0)
(0 -3.13592e-32 0)
(6.15502e-48 -1.66328e-32 0)
(0 -1.0799e-32 0)
(0 -6.47856e-33 0)
(0 -4.43968e-33 0)
(0 -2.27216e-33 0)
(0 -1.73606e-33 0)
(0 -1.04953e-33 0)
(0 -5.42179e-34 0)
(0 -2.99185e-34 0)
(0 -1.05388e-34 0)
(9.83313e-51 -4.01012e-35 0)
(0 -1.44359e-35 0)
(0 -5.23511e-36 0)
(-2.89309e-52 -1.79677e-36 0)
(0 -5.75782e-37 0)
(0 -1.70881e-37 0)
(0 -4.64739e-38 0)
(0 -1.14381e-38 0)
(0 -2.50994e-39 0)
(0 -4.81827e-40 0)
(0 -7.8907e-41 0)
(0 -1.06368e-41 0)
(0 -1.11582e-42 0)
(0 -8.22018e-44 0)
(0 -3.40538e-45 0)
(0 -6.90539e-47 0)
(0 -2.26192e-48 0)
(0 -3.65605e-50 0)
(0 -4.18266e-61 0)
(0 -2.38466e-72 0)
(0 -9.56306e-84 0)
(0 -2.88573e-95 0)
(0 -7.27919e-107 0)
(0 -2.68226e-118 0)
(0 -1.82702e-129 0)
(0 -4.09061e-137 0)
(0 -6.65578e-148 0)
(0 -1.40673e-155 0)
(0 -2.27219e-166 0)
(0 -4.83877e-174 0)
(0 -9.4913e-185 0)
(0 -1.66387e-192 0)
(0 -4.24604e-203 0)
(0 -5.72427e-211 0)
(0 -2.93303e-221 0)
(0 -1.97849e-229 0)
(0 -1.96972e-239 0)
(0 -6.88812e-248 0)
(0 -1.01174e-257 0)
(0 -2.41615e-266 0)
(0 -4.80162e-276 0)
(0 -8.55193e-285 0)
(0 -2.1236e-294 0)
(0 -3.05293e-303 0)
(0 -9.06032e-313 0)
(0 -1.10177e-321 0)
(0 -0 0)
(0 0 0)
(0 0 0)
(0 0 0)
(0 0 0)
(0 0 0)
(0 0 0)
(0 0 0)
(0 0 0)
(0 0 0)
(0 0 0)
(0 0 0)
(0 0 0)
(0 0 0)
(0 0 0)
(0 0 0)
(0 0 0)
(0 0 0)
)
;

boundaryField
{
    inandouthalf11
    {
        type            cyclic;
    }
    inandouthalf12
    {
        type            cyclic;
    }
    inandouthalf21
    {
        type            cyclic;
    }
    inandouthalf22
    {
        type            cyclic;
    }
    inandouthalf31
    {
        type            cyclic;
    }
    inandouthalf32
    {
        type            cyclic;
    }
    inandouthalf41
    {
        type            cyclic;
    }
    inandouthalf42
    {
        type            cyclic;
    }
    top
    {
        type            symmetryPlane;
    }
    walls
    {
        type            zeroGradient;
    }
    frontAndBackPlanes
    {
        type            empty;
    }
}


// ************************************************************************* //
