/*--------------------------------*- C++ -*----------------------------------*\
| =========                 |                                                 |
| \\      /  F ield         | OpenFOAM: The Open Source CFD Toolbox           |
|  \\    /   O peration     | Version:  2.4.x                                 |
|   \\  /    A nd           | Web:      www.OpenFOAM.org                      |
|    \\/     M anipulation  |                                                 |
\*---------------------------------------------------------------------------*/
FoamFile
{
    version     2.0;
    format      ascii;
    class       volTensorField;
    location    "1.95";
    object      Taus;
}
// * * * * * * * * * * * * * * * * * * * * * * * * * * * * * * * * * * * * * //

dimensions      [0 2 -2 0 0 0 0];

internalField   nonuniform List<tensor> 
360
(
(0 0.0117541 0 0.0117541 -0.163271 0 0 0 0)
(0 6.00187e-05 0 6.00187e-05 0.0157682 0 0 0 0)
(0 -0.000167511 0 -0.000167511 -0.0175604 0 0 0 0)
(0 -0.000381538 0 -0.000381538 -0.0273481 0 0 0 0)
(-5.83669e-16 -0.000569634 0 -0.000569634 -0.0377118 0 0 0 0)
(-5.40963e-16 -0.000732776 0 -0.000732776 -0.0469581 0 0 0 0)
(-1.00576e-15 -0.000872957 0 -0.000872957 -0.0552441 0 0 0 0)
(0 -0.000992521 0 -0.000992521 -0.0626482 0 0 0 0)
(-4.38092e-16 -0.00109447 0 -0.00109447 -0.0692982 0 0 0 0)
(0 -0.00118027 0 -0.00118027 -0.0752627 0 0 0 0)
(-3.85716e-16 -0.00125217 0 -0.00125217 -0.0806082 0 0 0 0)
(0 -0.0013124 0 -0.0013124 -0.0854098 0 0 0 0)
(-6.87283e-16 -0.0013616 0 -0.0013616 -0.0897226 0 0 0 0)
(0 -0.00140147 0 -0.00140147 -0.0936196 0 0 0 0)
(0 -0.00143328 0 -0.00143328 -0.0971273 0 0 0 0)
(0 -0.00145805 0 -0.00145805 -0.100286 0 0 0 0)
(0 -0.00147678 0 -0.00147678 -0.103134 0 0 0 0)
(-5.38387e-16 -0.00149041 0 -0.00149041 -0.105709 0 0 0 0)
(0 -0.00149955 0 -0.00149955 -0.108058 0 0 0 0)
(0 -0.00150446 0 -0.00150446 -0.110175 0 0 0 0)
(0 -0.00150673 0 -0.00150673 -0.112129 0 0 0 0)
(-4.60744e-16 -0.00150585 0 -0.00150585 -0.113894 0 0 0 0)
(0 -0.00150269 0 -0.00150269 -0.115516 0 0 0 0)
(0 -0.0014978 0 -0.0014978 -0.116994 0 0 0 0)
(0 -0.00149155 0 -0.00149155 -0.118341 0 0 0 0)
(-2.02636e-16 -0.00148437 0 -0.00148437 -0.119577 0 0 0 0)
(0 -0.0014765 0 -0.0014765 -0.120731 0 0 0 0)
(0 -0.0014676 0 -0.0014676 -0.121794 0 0 0 0)
(0 -0.00145842 0 -0.00145842 -0.122791 0 0 0 0)
(0 -0.00144929 0 -0.00144929 -0.123715 0 0 0 0)
(0 -0.00144017 0 -0.00144017 -0.124584 0 0 0 0)
(0 -0.0014309 0 -0.0014309 -0.125373 0 0 0 0)
(0 -0.00142241 0 -0.00142241 -0.126158 0 0 0 0)
(0 -0.00141342 0 -0.00141342 -0.126852 0 0 0 0)
(0 -0.00140535 0 -0.00140535 -0.12755 0 0 0 0)
(3.11874e-16 -0.0013975 0 -0.0013975 -0.128187 0 0 0 0)
(0 -0.00139015 0 -0.00139015 -0.128816 0 0 0 0)
(0 -0.00138268 0 -0.00138268 -0.129414 0 0 0 0)
(0 -0.00137522 0 -0.00137522 -0.129969 0 0 0 0)
(0 -0.00136865 0 -0.00136865 -0.130541 0 0 0 0)
(0 -0.00136138 0 -0.00136138 -0.131043 0 0 0 0)
(0 -0.00135435 0 -0.00135435 -0.131539 0 0 0 0)
(2.57135e-16 -0.00134752 0 -0.00134752 -0.132033 0 0 0 0)
(0 -0.00133962 0 -0.00133962 -0.132474 0 0 0 0)
(0 -0.0013315 0 -0.0013315 -0.132924 0 0 0 0)
(0 -0.00132252 0 -0.00132252 -0.133345 0 0 0 0)
(0 -0.00131264 0 -0.00131264 -0.133737 0 0 0 0)
(0 -0.00130199 0 -0.00130199 -0.134146 0 0 0 0)
(0 -0.00128924 0 -0.00128924 -0.13453 0 0 0 0)
(0 -0.00127371 0 -0.00127371 -0.134887 0 0 0 0)
(9.38871e-17 -0.00125659 0 -0.00125659 -0.13527 0 0 0 0)
(0 -0.00123571 0 -0.00123571 -0.13562 0 0 0 0)
(0 -0.00121222 0 -0.00121222 -0.135978 0 0 0 0)
(0 -0.00118309 0 -0.00118309 -0.136341 0 0 0 0)
(0 -0.00115124 0 -0.00115124 -0.136751 0 0 0 0)
(0 -0.00110968 0 -0.00110968 -0.13722 0 0 0 0)
(0 -0.00106618 0 -0.00106618 -0.137829 0 0 0 0)
(0 -0.00100338 0 -0.00100338 -0.138683 0 0 0 0)
(0 -0.00093744 0 -0.00093744 -0.13976 0 0 0 0)
(0 -0.000836218 0 -0.000836218 -0.141148 0 0 0 0)
(0 -0.000732666 0 -0.000732666 -0.14235 0 0 0 0)
(0 -0.000545837 0 -0.000545837 -0.143142 0 0 0 0)
(0 -0.000373828 0 -0.000373828 -0.142833 0 0 0 0)
(0 -0.000178784 0 -0.000178784 -0.141806 0 0 0 0)
(0 -9.3977e-06 0 -9.3977e-06 -0.140417 0 0 0 0)
(0 0.00024756 0 0.00024756 -0.141022 0 0 0 0)
(0 0.000427967 0 0.000427967 -0.140165 0 0 0 0)
(0 0.000608042 0 0.000608042 -0.14081 0 0 0 0)
(0 0.000787929 0 0.000787929 -0.141817 0 0 0 0)
(0 0.000863387 0 0.000863387 -0.127515 0 0 0 0)
(0 0.00098093 0 0.00098093 -0.124753 0 0 0 0)
(0 0.00110923 0 0.00110923 -0.122669 0 0 0 0)
(0 0.00126946 0 0.00126946 -0.121913 0 0 0 0)
(0 0.00147117 0 0.00147117 -0.122105 0 0 0 0)
(0 0.00170193 0 0.00170193 -0.122313 0 0 0 0)
(0 0.00192883 0 0.00192883 -0.121893 0 0 0 0)
(0 0.00212497 0 0.00212497 -0.120861 0 0 0 0)
(0 0.00228251 0 0.00228251 -0.119391 0 0 0 0)
(0 0.0024089 0 0.0024089 -0.117675 0 0 0 0)
(0 0.00251782 0 0.00251782 -0.115857 0 0 0 0)
(0 0.00262226 0 0.00262226 -0.114054 0 0 0 0)
(0 0.00273047 0 0.00273047 -0.112319 0 0 0 0)
(0 0.00284664 0 0.00284664 -0.110687 0 0 0 0)
(0 0.00297108 0 0.00297108 -0.10915 0 0 0 0)
(0 0.00310068 0 0.00310068 -0.107669 0 0 0 0)
(0 0.00323092 0 0.00323092 -0.106202 0 0 0 0)
(0 0.00335731 0 0.00335731 -0.104712 0 0 0 0)
(0 0.00347732 0 0.00347732 -0.103189 0 0 0 0)
(0 0.00359021 0 0.00359021 -0.101632 0 0 0 0)
(0 0.00369668 0 0.00369668 -0.100049 0 0 0 0)
(0 0.00379844 0 0.00379844 -0.0984543 0 0 0 0)
(0 0.00389707 0 0.00389707 -0.096859 0 0 0 0)
(0 0.00399333 0 0.00399333 -0.0952654 0 0 0 0)
(0 0.00408748 0 0.00408748 -0.0936745 0 0 0 0)
(0 0.0041793 0 0.0041793 -0.0920838 0 0 0 0)
(0 0.00426836 0 0.00426836 -0.0904899 0 0 0 0)
(0 0.00435432 0 0.00435432 -0.0888906 0 0 0 0)
(0 0.00443713 0 0.00443713 -0.0872853 0 0 0 0)
(0 0.00451692 0 0.00451692 -0.0856744 0 0 0 0)
(0 0.00459399 0 0.00459399 -0.0840586 0 0 0 0)
(0 0.0046687 0 0.0046687 -0.0824391 0 0 0 0)
(0 0.00474137 0 0.00474137 -0.0808164 0 0 0 0)
(0 0.00481228 0 0.00481228 -0.0791909 0 0 0 0)
(0 0.00488173 0 0.00488173 -0.0775628 0 0 0 0)
(0 0.00495006 0 0.00495006 -0.0759324 0 0 0 0)
(0 0.00501763 0 0.00501763 -0.0743 0 0 0 0)
(0 0.00508488 0 0.00508488 -0.0726662 0 0 0 0)
(0 0.00515224 0 0.00515224 -0.0710314 0 0 0 0)
(0 0.00522013 0 0.00522013 -0.0693959 0 0 0 0)
(0 0.00528898 0 0.00528898 -0.0677601 0 0 0 0)
(0 0.00535915 0 0.00535915 -0.0661243 0 0 0 0)
(0 0.00543098 0 0.00543098 -0.0644886 0 0 0 0)
(0 0.00550475 0 0.00550475 -0.0628533 0 0 0 0)
(0 0.00558067 0 0.00558067 -0.0612184 0 0 0 0)
(0 0.00565889 0 0.00565889 -0.059584 0 0 0 0)
(0 0.00573948 0 0.00573948 -0.0579501 0 0 0 0)
(0 0.00582245 0 0.00582245 -0.0563167 0 0 0 0)
(0 0.00590775 0 0.00590775 -0.0546834 0 0 0 0)
(0 0.00599527 0 0.00599527 -0.0530502 0 0 0 0)
(0 0.00608488 0 0.00608488 -0.0514168 0 0 0 0)
(0 0.0061764 0 0.0061764 -0.0497828 0 0 0 0)
(0 0.00626957 0 0.00626957 -0.0481476 0 0 0 0)
(0 0.00636401 0 0.00636401 -0.0465104 0 0 0 0)
(0 0.0064591 0 0.0064591 -0.04487 0 0 0 0)
(0 0.00655398 0 0.00655398 -0.043225 0 0 0 0)
(0 0.00664761 0 0.00664761 -0.041574 0 0 0 0)
(0 0.00673912 0 0.00673912 -0.039916 0 0 0 0)
(0 0.00682844 0 0.00682844 -0.0382514 0 0 0 0)
(0 0.00691714 0 0.00691714 -0.036582 0 0 0 0)
(0 0.00700862 0 0.00700862 -0.0349112 0 0 0 0)
(0 0.00710665 0 0.00710665 -0.0332408 0 0 0 0)
(0 0.00721151 0 0.00721151 -0.0315677 0 0 0 0)
(0 0.00731486 0 0.00731486 -0.0298806 0 0 0 0)
(0 0.0074008 0 0.0074008 -0.0281647 0 0 0 0)
(0 0.00746087 0 0.00746087 -0.0264155 0 0 0 0)
(0 0.00750987 0 0.00750987 -0.0246494 0 0 0 0)
(0 0.00756891 0 0.00756891 -0.0228836 0 0 0 0)
(0 0.00762417 0 0.00762417 -0.0211092 0 0 0 0)
(0 0.00762173 0 0.00762173 -0.0193032 0 0 0 0)
(0 0.00754598 0 0.00754598 -0.0174558 0 0 0 0)
(0 0.00752251 0 0.00752251 -0.0155856 0 0 0 0)
(0 0.00769338 0 0.00769338 -0.0137396 0 0 0 0)
(0 0.00772204 0 0.00772204 -0.011679 0 0 0 0)
(0 0.00735303 0 0.00735303 -0.00963316 0 0 0 0)
(0 0.00671509 0 0.00671509 -0.00769288 0 0 0 0)
(0 0.00594338 0 0.00594338 -0.00562716 0 0 0 0)
(0 0.0051505 0 0.0051505 -0.00306051 0 0 0 0)
(0 0.00405887 0 0.00405887 -0.000462263 0 0 0 0)
(0 0.00250913 0 0.00250913 -2.65405e-05 0 0 0 0)
(0 0.00204086 0 0.00204086 -7.06935e-05 0 0 0 0)
(0 0.00381055 0 0.00381055 -8.57148e-05 0 0 0 0)
(0 0.0145247 0 0.0145247 -6.94169e-05 0 0 0 0)
(0 0.0194052 0 0.0194052 0.000225006 0 0 0 0)
(0 0.0206111 0 0.0206111 0.000457717 0 0 0 0)
(0 0.0201582 0 0.0201582 0.000609829 0 0 0 0)
(0 0.0193665 0 0.0193665 0.000681949 0 0 0 0)
(0 0.0191255 0 0.0191255 0.000703746 0 0 0 0)
(0 0.0202398 0 0.0202398 0.00067208 0 0 0 0)
(0 0.0238224 0 0.0238224 0.000417119 0 0 0 0)
(0 0.0330521 0 0.0330521 -0.000680036 0 0 0 0)
(0 0.0559211 0 0.0559211 -0.00406674 0 0 0 0)
(0 0.0966298 0 0.0966298 -0.0106655 0 0 0 0)
(0 0.134886 0 0.134886 -0.0169947 0 0 0 0)
(0 0.166619 0 0.166619 -0.0215442 0 0 0 0)
(0 0.186182 0 0.186182 -0.0239888 0 0 0 0)
(0 0.207663 0 0.207663 -0.0264918 0 0 0 0)
(0 0.226359 0 0.226359 -0.0286135 0 0 0 0)
(0 0.23731 0 0.23731 -0.0296503 0 0 0 0)
(0 0.257169 0 0.257169 -0.031815 0 0 0 0)
(0 0.26365 0 0.26365 -0.0323034 0 0 0 0)
(0 0.2814 0 0.2814 -0.0341493 0 0 0 0)
(0 0.285259 0 0.285259 -0.0343213 0 0 0 0)
(0 0.303402 0 0.303402 -0.0362239 0 0 0 0)
(0 0.304776 0 0.304776 -0.0361228 0 0 0 0)
(0 0.319051 0 0.319051 -0.0375336 0 0 0 0)
(0 0.320947 0 0.320947 -0.0375352 0 0 0 0)
(0 0.336083 0 0.336083 -0.0391086 0 0 0 0)
(0 0.334294 0 0.334294 -0.038686 0 0 0 0)
(0 0.345265 0 0.345265 -0.0397819 0 0 0 0)
(0 0.350778 0 0.350778 -0.0403068 0 0 0 0)
(0 0.352394 0 0.352394 -0.0403387 0 0 0 0)
(0 0.362037 0 0.362037 -0.041368 0 0 0 0)
(0 0.360262 0 0.360262 -0.0410852 0 0 0 0)
(0 0.369295 0 0.369295 -0.042073 0 0 0 0)
(0 0.366406 0 0.366406 -0.0417183 0 0 0 0)
(0 0.374043 0 0.374043 -0.042595 0 0 0 0)
(0 0.372401 0 0.372401 -0.042466 0 0 0 0)
(0 0.377911 0 0.377911 -0.0431613 0 0 0 0)
(0 0.372626 0 0.372626 -0.0425917 0 0 0 0)
(0 0.377257 0 0.377257 -0.0432616 0 0 0 0)
(0 0.379394 0 0.379394 -0.0437211 0 0 0 0)
(0 0.375695 0 0.375695 -0.043432 0 0 0 0)
(0 0.376193 0 0.376193 -0.0436865 0 0 0 0)
(0 0.370578 0 0.370578 -0.043228 0 0 0 0)
(0 0.37284 0 0.37284 -0.0437799 0 0 0 0)
(0 0.371203 0 0.371203 -0.0439546 0 0 0 0)
(0 0.371744 0 0.371744 -0.0444015 0 0 0 0)
(0 0.363447 0 0.363447 -0.0437462 0 0 0 0)
(0 0.356482 0 0.356482 -0.0432146 0 0 0 0)
(0 0.350446 0 0.350446 -0.0429021 0 0 0 0)
(0 0.35258 0 0.35258 -0.043773 0 0 0 0)
(0 0.351839 0 0.351839 -0.0443494 0 0 0 0)
(-2.82952e-14 0.347916 0 0.347916 -0.0444495 0 0 0 0)
(0 0.334637 0 0.334637 -0.0431508 0 0 0 0)
(0 0.323863 0 0.323863 -0.0421359 0 0 0 0)
(2.71051e-14 0.324495 0 0.324495 -0.0429119 0 0 0 0)
(0 0.327729 0 0.327729 -0.0441717 0 0 0 0)
(-2.6381e-14 0.322899 0 0.322899 -0.0441657 0 0 0 0)
(0 0.30936 0 0.30936 -0.0426868 0 0 0 0)
(2.53688e-14 0.301872 0 0.301872 -0.0421518 0 0 0 0)
(0 0.304006 0 0.304006 -0.043318 0 0 0 0)
(0 0.301054 0 0.301054 -0.0436614 0 0 0 0)
(0 0.288959 0 0.288959 -0.0423112 0 0 0 0)
(4.69119e-14 0.283368 0 0.283368 -0.0420524 0 0 0 0)
(0 0.287538 0 0.287538 -0.0436734 0 0 0 0)
(0 0.283945 0 0.283945 -0.043937 0 0 0 0)
(0 0.270436 0 0.270436 -0.0422475 0 0 0 0)
(0 0.263307 0 0.263307 -0.0417027 0 0 0 0)
(0 0.266996 0 0.266996 -0.0433166 0 0 0 0)
(-2.03629e-14 0.266542 0 0.266542 -0.0441871 0 0 0 0)
(0 0.256943 0 0.256943 -0.0431401 0 0 0 0)
(0 0.251675 0 0.251675 -0.0429655 0 0 0 0)
(0 0.25188 0 0.25188 -0.0440471 0 0 0 0)
(0 0.245792 0 0.245792 -0.0437305 0 0 0 0)
(0 0.240683 0 0.240683 -0.0435099 0 0 0 0)
(0 0.242575 0 0.242575 -0.045005 0 0 0 0)
(0 0.23812 0 0.23812 -0.0450944 0 0 0 0)
(0 0.229895 0 0.229895 -0.0441792 0 0 0 0)
(3.07809e-14 0.229084 0 0.229084 -0.0450995 0 0 0 0)
(2.9658e-14 0.22708 0 0.22708 -0.0457979 0 0 0 0)
(0 0.219127 0 0.219127 -0.0449487 0 0 0 0)
(0 0.214675 0 0.214675 -0.0450026 0 0 0 0)
(0 0.211509 0 0.211509 -0.0454244 0 0 0 0)
(0 0.20509 0 0.20509 -0.0449667 0 0 0 0)
(0 0.19751 0 0.19751 -0.0442462 0 0 0 0)
(0 0.188683 0 0.188683 -0.0431689 0 0 0 0)
(0 0.179278 0 0.179278 -0.0419628 0 0 0 0)
(0 0.166166 0 0.166166 -0.0397845 0 0 0 0)
(0 0.147129 0 0.147129 -0.0359564 0 0 0 0)
(0 0.122371 0 0.122371 -0.0304972 0 0 0 0)
(0 0.0939116 0 0.0939116 -0.0239009 0 0 0 0)
(0 0.0651531 0 0.0651531 -0.0167654 0 0 0 0)
(0 0.048819 0 0.048819 -0.0137099 0 0 0 0)
(-0 0 0 0 -0 0 0 0 0)
(0 0 0 0 -0 0 0 0 0)
(0 0 0 0 0 0 0 0 0)
(0 0 0 0 -0 0 0 0 0)
(-0 0 0 0 -0 0 0 0 0)
(0 0 0 0 0 0 0 0 0)
(0 0 0 0 -0 0 0 0 0)
(-0 0 0 0 0 0 0 0 0)
(0 0 0 0 -0 0 0 0 0)
(0 0 0 0 0 0 0 0 0)
(0 0 0 0 -0 0 0 0 0)
(0 0 0 0 0 0 0 0 0)
(0 0 0 0 -0 0 0 0 0)
(0 0 0 0 0 0 0 0 0)
(0 0 0 0 -0 0 0 0 0)
(0 0 0 0 0 0 0 0 0)
(0 0 0 0 -0 0 0 0 0)
(0 0 0 0 0 0 0 0 0)
(0 0 0 0 -0 0 0 0 0)
(0 0 0 0 0 0 0 0 0)
(0 0 0 0 -0 0 0 0 0)
(0 0 0 0 0 0 0 0 0)
(0 0 0 0 -0 0 0 0 0)
(0 0 0 0 0 0 0 0 0)
(0 0 0 0 -0 0 0 0 0)
(0 0 0 0 0 0 0 0 0)
(0 0 0 0 -0 0 0 0 0)
(0 0 0 0 0 0 0 0 0)
(0 0 0 0 -0 0 0 0 0)
(0 0 0 0 0 0 0 0 0)
(0 0 0 0 -0 0 0 0 0)
(0 0 0 0 0 0 0 0 0)
(0 0 0 0 -0 0 0 0 0)
(0 0 0 0 0 0 0 0 0)
(0 0 0 0 -0 0 0 0 0)
(0 0 0 0 0 0 0 0 0)
(0 0 0 0 -0 0 0 0 0)
(0 0 0 0 0 0 0 0 0)
(0 0 0 0 -0 0 0 0 0)
(0 0 0 0 0 0 0 0 0)
(0 0 0 0 -0 0 0 0 0)
(0 0 0 0 0 0 0 0 0)
(0 0 0 0 -0 0 0 0 0)
(0 -0 0 -0 0 0 0 0 0)
(0 0 0 0 -0 0 0 0 0)
(0 -0 0 -0 0 0 0 0 0)
(0 0 0 0 -0 0 0 0 0)
(0 -0 0 -0 0 0 0 0 0)
(0 0 0 0 -0 0 0 0 0)
(0 -0 0 -0 0 0 0 0 0)
(0 0 0 0 -0 0 0 0 0)
(0 -0 0 -0 0 0 0 0 0)
(0 0 0 0 -0 0 0 0 0)
(0 -0 0 -0 0 0 0 0 0)
(0 0 0 0 -0 0 0 0 0)
(0 -0 0 -0 0 0 0 0 0)
(-0 0 0 0 -0 0 0 0 0)
(0 -0 0 -0 0 0 0 0 0)
(0 0 0 0 -0 0 0 0 0)
(0 -0 0 -0 0 0 0 0 0)
(0 0 0 0 -0 0 0 0 0)
(0 -0 0 -0 0 0 0 0 0)
(0 0 0 0 -0 0 0 0 0)
(0 -0 0 -0 0 0 0 0 0)
(0 0 0 0 -0 0 0 0 0)
(0 -0 0 -0 0 0 0 0 0)
(0 0 0 0 -0 0 0 0 0)
(0 -0 0 -0 0 0 0 0 0)
(0 0 0 0 -0 0 0 0 0)
(0 -0 0 -0 0 0 0 0 0)
(0 0 0 0 -0 0 0 0 0)
(0 -0 0 -0 0 0 0 0 0)
(0 0 0 0 -0 0 0 0 0)
(0 -0 0 -0 0 0 0 0 0)
(0 0 0 0 -0 0 0 0 0)
(0 -0 0 -0 0 0 0 0 0)
(0 0 0 0 -0 0 0 0 0)
(0 -0 0 -0 0 0 0 0 0)
(0 0 0 0 -0 0 0 0 0)
(0 -0 0 -0 0 0 0 0 0)
(0 0 0 0 -0 0 0 0 0)
(0 -0 0 -0 0 0 0 0 0)
(0 0 0 0 -0 0 0 0 0)
(0 -0 0 -0 0 0 0 0 0)
(0 0 0 0 -0 0 0 0 0)
(0 -0 0 -0 0 0 0 0 0)
(0 0 0 0 -0 0 0 0 0)
(0 -0 0 -0 0 0 0 0 0)
(0 0 0 0 -0 0 0 0 0)
(0 -0 0 -0 0 0 0 0 0)
(0 0 0 0 -0 0 0 0 0)
(0 -0 0 -0 0 0 0 0 0)
(0 0 0 0 -0 0 0 0 0)
(0 -0 0 -0 0 0 0 0 0)
(0 0 0 0 -0 0 0 0 0)
(0 -0 0 -0 0 0 0 0 0)
(0 0 0 0 -0 0 0 0 0)
(0 -0 0 -0 0 0 0 0 0)
(0 0 0 0 -0 0 0 0 0)
(0 -0 0 -0 0 0 0 0 0)
(0 0 0 0 -0 0 0 0 0)
(0 -0 0 -0 0 0 0 0 0)
(0 0 0 0 -0 0 0 0 0)
(0 -0 0 -0 0 0 0 0 0)
(0 0 0 0 -0 0 0 0 0)
(0 -0 0 -0 0 0 0 0 0)
(0 0 0 0 -0 0 0 0 0)
(0 -0 0 -0 0 0 0 0 0)
(0 0 0 0 -0 0 0 0 0)
(0 -0 0 -0 0 0 0 0 0)
(0 0 0 0 0 0 0 0 0)
(0 0 0 0 0 0 0 0 0)
(0 0 0 0 0 0 0 0 0)
(0 0 0 0 0 0 0 0 0)
(0 0 0 0 0 0 0 0 0)
(0 0 0 0 0 0 0 0 0)
(0 0 0 0 0 0 0 0 0)
)
;

boundaryField
{
    inandouthalf11
    {
        type            cyclic;
    }
    inandouthalf12
    {
        type            cyclic;
    }
    inandouthalf21
    {
        type            cyclic;
    }
    inandouthalf22
    {
        type            cyclic;
    }
    inandouthalf31
    {
        type            cyclic;
    }
    inandouthalf32
    {
        type            cyclic;
    }
    inandouthalf41
    {
        type            cyclic;
    }
    inandouthalf42
    {
        type            cyclic;
    }
    top
    {
        type            symmetryPlane;
    }
    walls
    {
        type            zeroGradient;
    }
    frontAndBackPlanes
    {
        type            empty;
    }
}


// ************************************************************************* //
