/*--------------------------------*- C++ -*----------------------------------*\
| =========                 |                                                 |
| \\      /  F ield         | OpenFOAM: The Open Source CFD Toolbox           |
|  \\    /   O peration     | Version:  2.4.x                                 |
|   \\  /    A nd           | Web:      www.OpenFOAM.org                      |
|    \\/     M anipulation  |                                                 |
\*---------------------------------------------------------------------------*/
FoamFile
{
    version     2.0;
    format      ascii;
    class       volVectorField;
    location    "1.95";
    object      Ua;
}
// * * * * * * * * * * * * * * * * * * * * * * * * * * * * * * * * * * * * * //

dimensions      [0 1 -1 0 0 0 0];

internalField   nonuniform List<vector> 
360
(
(1.2773e-36 -8.87258e-36 0)
(1.27732e-36 -8.86999e-36 0)
(1.27731e-36 -8.87074e-36 0)
(1.27728e-36 -8.87205e-36 0)
(1.27721e-36 -8.87419e-36 0)
(1.27712e-36 -8.8772e-36 0)
(1.277e-36 -8.88111e-36 0)
(1.27685e-36 -8.88595e-36 0)
(1.27666e-36 -8.89176e-36 0)
(1.27645e-36 -8.89855e-36 0)
(1.2762e-36 -8.90636e-36 0)
(1.27593e-36 -8.9152e-36 0)
(1.27563e-36 -8.92507e-36 0)
(1.2753e-36 -8.936e-36 0)
(1.27494e-36 -8.94798e-36 0)
(1.27456e-36 -8.96102e-36 0)
(1.27415e-36 -8.9751e-36 0)
(1.27372e-36 -8.99023e-36 0)
(1.27327e-36 -9.00638e-36 0)
(1.2728e-36 -9.02356e-36 0)
(1.27231e-36 -9.04176e-36 0)
(1.27179e-36 -9.06095e-36 0)
(1.27126e-36 -9.08114e-36 0)
(1.27072e-36 -9.1023e-36 0)
(1.27016e-36 -9.12442e-36 0)
(1.26958e-36 -9.14747e-36 0)
(1.26899e-36 -9.17142e-36 0)
(1.26839e-36 -9.1963e-36 0)
(1.26777e-36 -9.2221e-36 0)
(1.26714e-36 -9.24882e-36 0)
(1.26649e-36 -9.27644e-36 0)
(1.26584e-36 -9.30496e-36 0)
(1.26517e-36 -9.33438e-36 0)
(1.26449e-36 -9.36474e-36 0)
(1.2638e-36 -9.39603e-36 0)
(1.26309e-36 -9.42828e-36 0)
(1.26237e-36 -9.46151e-36 0)
(1.26163e-36 -9.49577e-36 0)
(1.26088e-36 -9.53114e-36 0)
(1.26011e-36 -9.56762e-36 0)
(1.25933e-36 -9.60527e-36 0)
(1.25852e-36 -9.64418e-36 0)
(1.2577e-36 -9.68438e-36 0)
(1.25685e-36 -9.72598e-36 0)
(1.25599e-36 -9.76911e-36 0)
(1.25509e-36 -9.81386e-36 0)
(1.25418e-36 -9.86039e-36 0)
(1.25323e-36 -9.90881e-36 0)
(1.25225e-36 -9.95936e-36 0)
(1.25124e-36 -1.00124e-35 0)
(1.2502e-36 -1.00682e-35 0)
(1.24911e-36 -1.01271e-35 0)
(1.24798e-36 -1.01898e-35 0)
(1.2468e-36 -1.02567e-35 0)
(1.24557e-36 -1.0329e-35 0)
(1.24426e-36 -1.04078e-35 0)
(1.24286e-36 -1.04962e-35 0)
(1.24133e-36 -1.05973e-35 0)
(1.2396e-36 -1.07215e-35 0)
(1.23749e-36 -1.08833e-35 0)
(1.23473e-36 -1.11323e-35 0)
(1.2303e-36 -1.15819e-35 0)
(1.2225e-36 -1.27366e-35 0)
(1.20434e-36 -1.65409e-35 0)
(1.16333e-36 -3.6202e-35 0)
(1.17751e-36 -2.16982e-34 0)
(5.9299e-35 -1.65946e-32 0)
(1.16364e-31 -1.90555e-29 0)
(2.22343e-26 -2.5745e-24 0)
(7.46447e-18 -6.71754e-16 0)
(7.62629e-10 -5.63167e-08 0)
(7.17934e-09 -4.56528e-07 0)
(2.71048e-08 -1.5129e-06 0)
(5.91746e-08 -2.95322e-06 0)
(9.26758e-08 -4.23407e-06 0)
(1.20828e-07 -5.16866e-06 0)
(1.43541e-07 -5.84127e-06 0)
(1.63062e-07 -6.36972e-06 0)
(1.81628e-07 -6.83738e-06 0)
(2.01063e-07 -7.29788e-06 0)
(2.22833e-07 -7.78542e-06 0)
(2.48004e-07 -8.31873e-06 0)
(2.7708e-07 -8.90115e-06 0)
(3.09912e-07 -9.52231e-06 0)
(3.45853e-07 -1.01644e-05 0)
(3.84103e-07 -1.08104e-05 0)
(4.24046e-07 -1.14496e-05 0)
(4.65392e-07 -1.20781e-05 0)
(5.08151e-07 -1.26975e-05 0)
(5.52513e-07 -1.33112e-05 0)
(5.98717e-07 -1.3923e-05 0)
(6.46952e-07 -1.45351e-05 0)
(6.97318e-07 -1.51483e-05 0)
(7.49834e-07 -1.57623e-05 0)
(8.0447e-07 -1.63762e-05 0)
(8.61184e-07 -1.6989e-05 0)
(9.19961e-07 -1.76004e-05 0)
(9.80818e-07 -1.82101e-05 0)
(1.04381e-06 -1.88186e-05 0)
(1.10903e-06 -1.94261e-05 0)
(1.17658e-06 -2.00332e-05 0)
(1.24661e-06 -2.06408e-05 0)
(1.31929e-06 -2.12495e-05 0)
(1.39483e-06 -2.18603e-05 0)
(1.4735e-06 -2.24745e-05 0)
(1.5556e-06 -2.30934e-05 0)
(1.6415e-06 -2.37184e-05 0)
(1.73164e-06 -2.43512e-05 0)
(1.82648e-06 -2.49935e-05 0)
(1.92658e-06 -2.5647e-05 0)
(2.03254e-06 -2.63135e-05 0)
(2.14502e-06 -2.69946e-05 0)
(2.26474e-06 -2.76921e-05 0)
(2.39247e-06 -2.84073e-05 0)
(2.529e-06 -2.91415e-05 0)
(2.67515e-06 -2.98955e-05 0)
(2.83174e-06 -3.06699e-05 0)
(2.99957e-06 -3.14645e-05 0)
(3.17942e-06 -3.22789e-05 0)
(3.372e-06 -3.31123e-05 0)
(3.57802e-06 -3.3963e-05 0)
(3.79816e-06 -3.48297e-05 0)
(4.03312e-06 -3.57105e-05 0)
(4.28371e-06 -3.6604e-05 0)
(4.55083e-06 -3.75087e-05 0)
(4.83549e-06 -3.84236e-05 0)
(5.13855e-06 -3.93465e-05 0)
(5.46036e-06 -4.02741e-05 0)
(5.80025e-06 -4.11999e-05 0)
(6.15618e-06 -4.21141e-05 0)
(6.52508e-06 -4.30051e-05 0)
(6.9043e-06 -4.38637e-05 0)
(7.29377e-06 -4.46876e-05 0)
(7.69756e-06 -4.54839e-05 0)
(8.12286e-06 -4.62652e-05 0)
(8.57598e-06 -4.70389e-05 0)
(9.05753e-06 -4.77991e-05 0)
(9.56089e-06 -4.85278e-05 0)
(1.00726e-05 -4.92043e-05 0)
(1.05659e-05 -4.98005e-05 0)
(1.09914e-05 -5.0267e-05 0)
(1.13025e-05 -5.05635e-05 0)
(1.15041e-05 -5.07248e-05 0)
(1.16315e-05 -5.08123e-05 0)
(1.17108e-05 -5.08602e-05 0)
(1.17572e-05 -5.08843e-05 0)
(1.17837e-05 -5.08948e-05 0)
(1.18052e-05 -5.08986e-05 0)
(1.18509e-05 -5.08986e-05 0)
(0.0112048 -0.000110096 0)
(0.124109 -0.00220021 0)
(0.319589 -0.0035785 0)
(0.484871 -0.00306229 0)
(0.627389 -0.001794 0)
(0.750979 -0.000107531 0)
(0.855831 0.00166143 0)
(0.940862 0.00323563 0)
(1.00494 0.00440467 0)
(1.04859 0.00502418 0)
(1.07589 0.00502584 0)
(1.09333 0.00456391 0)
(1.1061 0.00392732 0)
(1.11659 0.00328 0)
(1.12565 0.00269585 0)
(1.13364 0.00217826 0)
(1.14076 0.00172249 0)
(1.14718 0.00131446 0)
(1.15301 0.000948329 0)
(1.15833 0.000617884 0)
(1.16322 0.000316469 0)
(1.16773 4.15936e-05 0)
(1.17192 -0.000211492 0)
(1.17582 -0.00044479 0)
(1.17946 -0.000661822 0)
(1.18288 -0.00086315 0)
(1.18609 -0.00105154 0)
(1.18912 -0.00122829 0)
(1.19199 -0.00139495 0)
(1.19471 -0.00155138 0)
(1.1973 -0.00170065 0)
(1.19976 -0.00184175 0)
(1.20212 -0.00197657 0)
(1.20437 -0.00210533 0)
(1.20654 -0.00222865 0)
(1.20862 -0.00234716 0)
(1.21062 -0.00246108 0)
(1.21256 -0.00257133 0)
(1.21443 -0.00267806 0)
(1.21624 -0.00278137 0)
(1.21798 -0.00288096 0)
(1.21969 -0.0029793 0)
(1.22134 -0.00307463 0)
(1.22295 -0.00316775 0)
(1.2245 -0.00325836 0)
(1.22602 -0.003347 0)
(1.22751 -0.00343461 0)
(1.22896 -0.00352125 0)
(1.23038 -0.00360643 0)
(1.23175 -0.00368909 0)
(1.23308 -0.00376968 0)
(1.23438 -0.00384976 0)
(1.23568 -0.00393132 0)
(1.23699 -0.00401439 0)
(1.23828 -0.00409765 0)
(1.23954 -0.00417867 0)
(1.24079 -0.00426062 0)
(1.24207 -0.00434633 0)
(1.24338 -0.00443522 0)
(1.24466 -0.00452358 0)
(1.24592 -0.00461013 0)
(1.24718 -0.00469953 0)
(1.24849 -0.00479374 0)
(1.24978 -0.00488805 0)
(1.25105 -0.00498065 0)
(1.25234 -0.00507792 0)
(1.25369 -0.00518161 0)
(1.25502 -0.0052847 0)
(1.2563 -0.00538559 0)
(1.25762 -0.0054912 0)
(1.25901 -0.0056052 0)
(1.26039 -0.00572097 0)
(1.26176 -0.0058359 0)
(1.26316 -0.00595735 0)
(1.26461 -0.00608507 0)
(1.26603 -0.00621227 0)
(1.2675 -0.00634681 0)
(1.26904 -0.00649156 0)
(1.27056 -0.00663602 0)
(1.27209 -0.00678497 0)
(1.27371 -0.00694641 0)
(1.27534 -0.00711201 0)
(1.27696 -0.00728025 0)
(1.27866 -0.00746032 0)
(1.28038 -0.0076473 0)
(1.28213 -0.00784086 0)
(1.28389 -0.00804063 0)
(1.28567 -0.00824568 0)
(1.28746 -0.00845773 0)
(1.28919 -0.00866751 0)
(1.29081 -0.00886794 0)
(1.29223 -0.00904643 0)
(1.2934 -0.00919744 0)
(1.29429 -0.00931112 0)
(1.2953 -0.00946397 0)
(1.3963 -0.0395349 0)
(1.3963 -0.0395349 0)
(1.3963 -0.0395349 0)
(1.3963 -0.0395349 0)
(1.3963 -0.0395349 0)
(1.39631 -0.0395349 0)
(1.39631 -0.0395349 0)
(1.39631 -0.0395349 0)
(1.39631 -0.0395349 0)
(1.39631 -0.0395349 0)
(1.39631 -0.0395349 0)
(1.39631 -0.0395349 0)
(1.39631 -0.0395349 0)
(1.39631 -0.0395349 0)
(1.39631 -0.0395349 0)
(1.39631 -0.0395349 0)
(1.39631 -0.0395349 0)
(1.39631 -0.0395349 0)
(1.39631 -0.0395349 0)
(1.39631 -0.0395349 0)
(1.39631 -0.0395349 0)
(1.39631 -0.0395349 0)
(1.39631 -0.0395349 0)
(1.39631 -0.0395349 0)
(1.39631 -0.0395349 0)
(1.39631 -0.0395349 0)
(1.39631 -0.0395349 0)
(1.39631 -0.0395349 0)
(1.39631 -0.0395349 0)
(1.39631 -0.0395349 0)
(1.39631 -0.0395349 0)
(1.39631 -0.0395349 0)
(1.39631 -0.0395349 0)
(1.39631 -0.0395349 0)
(1.39631 -0.0395349 0)
(1.39631 -0.0395349 0)
(1.39631 -0.0395349 0)
(1.39631 -0.0395349 0)
(1.39631 -0.0395349 0)
(1.39631 -0.0395349 0)
(1.39631 -0.0395349 0)
(1.39631 -0.0395349 0)
(1.39631 -0.0395349 0)
(1.39631 -0.0395349 0)
(1.39631 -0.0395349 0)
(1.39631 -0.0395349 0)
(1.39631 -0.0395349 0)
(1.39631 -0.0395349 0)
(1.39631 -0.0395349 0)
(1.39631 -0.0395349 0)
(1.39631 -0.0395349 0)
(1.39631 -0.0395349 0)
(1.39631 -0.0395349 0)
(1.39631 -0.0395349 0)
(1.39631 -0.0395349 0)
(1.39631 -0.0395349 0)
(1.39631 -0.0395349 0)
(1.39631 -0.0395349 0)
(1.39631 -0.0395349 0)
(1.39631 -0.0395349 0)
(1.39631 -0.0395349 0)
(1.39631 -0.0395349 0)
(1.39631 -0.0395349 0)
(1.39631 -0.0395349 0)
(1.39631 -0.0395349 0)
(1.39631 -0.0395349 0)
(1.39631 -0.0395349 0)
(1.39631 -0.0395349 0)
(1.39631 -0.0395349 0)
(1.39631 -0.0395349 0)
(1.39631 -0.0395349 0)
(1.39631 -0.0395349 0)
(1.39631 -0.0395349 0)
(1.39631 -0.0395349 0)
(1.39631 -0.0395349 0)
(1.39631 -0.0395349 0)
(1.39631 -0.0395349 0)
(1.39631 -0.0395349 0)
(1.39631 -0.0395349 0)
(1.39631 -0.0395349 0)
(1.39631 -0.0395349 0)
(1.39631 -0.0395349 0)
(1.39631 -0.0395349 0)
(1.39631 -0.0395349 0)
(1.39631 -0.0395349 0)
(1.39631 -0.0395349 0)
(1.39631 -0.0395349 0)
(1.39631 -0.0395349 0)
(1.39631 -0.0395349 0)
(1.39631 -0.0395349 0)
(1.39631 -0.0395349 0)
(1.39631 -0.0395349 0)
(1.39631 -0.0395349 0)
(1.39631 -0.0395349 0)
(1.39631 -0.0395349 0)
(1.39631 -0.0395349 0)
(1.39631 -0.0395349 0)
(1.39631 -0.0395349 0)
(1.39631 -0.0395349 0)
(1.39631 -0.0395349 0)
(1.39631 -0.0395349 0)
(1.39631 -0.0395349 0)
(1.39631 -0.0395349 0)
(1.39631 -0.0395349 0)
(1.39631 -0.0395349 0)
(1.39631 -0.0395349 0)
(1.39631 -0.0395349 0)
(1.39631 -0.0395349 0)
(1.39631 -0.0395349 0)
(1.39631 -0.0395349 0)
(1.39631 -0.0395349 0)
(1.39631 -0.0395349 0)
(1.39631 -0.0395347 0)
(1.39631 -0.0395262 0)
(1.39633 -0.0391813 0)
(1.39669 -0.0224704 0)
)
;

boundaryField
{
    inandouthalf11
    {
        type            cyclic;
    }
    inandouthalf12
    {
        type            cyclic;
    }
    inandouthalf21
    {
        type            cyclic;
    }
    inandouthalf22
    {
        type            cyclic;
    }
    inandouthalf31
    {
        type            cyclic;
    }
    inandouthalf32
    {
        type            cyclic;
    }
    inandouthalf41
    {
        type            cyclic;
    }
    inandouthalf42
    {
        type            cyclic;
    }
    top
    {
        type            symmetryPlane;
    }
    walls
    {
        type            fixedValue;
        value           uniform (0 0 0);
    }
    frontAndBackPlanes
    {
        type            empty;
    }
}


// ************************************************************************* //
