/*--------------------------------*- C++ -*----------------------------------*\
| =========                 |                                                 |
| \\      /  F ield         | OpenFOAM: The Open Source CFD Toolbox           |
|  \\    /   O peration     | Version:  2.4.x                                 |
|   \\  /    A nd           | Web:      www.OpenFOAM.org                      |
|    \\/     M anipulation  |                                                 |
\*---------------------------------------------------------------------------*/
FoamFile
{
    version     2.0;
    format      ascii;
    class       volScalarField;
    location    "2.3";
    object      alpha;
}
// * * * * * * * * * * * * * * * * * * * * * * * * * * * * * * * * * * * * * //

dimensions      [0 0 0 0 0 0 0];

internalField   nonuniform List<scalar> 
360
(
0.609996
0.609996
0.609995
0.609995
0.609995
0.609994
0.609994
0.609993
0.609993
0.609992
0.609991
0.609991
0.60999
0.609989
0.609988
0.609987
0.609986
0.609985
0.609984
0.609982
0.609981
0.609979
0.609977
0.609975
0.609973
0.609971
0.609969
0.609966
0.609963
0.60996
0.609957
0.609953
0.60995
0.609945
0.609941
0.609936
0.609931
0.609925
0.609918
0.609912
0.609904
0.609896
0.609888
0.609878
0.609868
0.609857
0.609845
0.609833
0.609819
0.609803
0.609787
0.609769
0.60975
0.609729
0.609707
0.609682
0.609656
0.609627
0.609597
0.609567
0.609537
0.609513
0.609494
0.609478
0.609462
0.609442
0.609419
0.609391
0.60936
0.609325
0.609287
0.609246
0.609204
0.609158
0.60911
0.609061
0.609011
0.608961
0.608912
0.608863
0.608815
0.608766
0.608717
0.608667
0.608615
0.608561
0.608506
0.608449
0.608392
0.608333
0.608273
0.608213
0.608152
0.608089
0.608026
0.607961
0.607895
0.607828
0.607759
0.607689
0.607617
0.607544
0.60747
0.607394
0.607316
0.607236
0.607154
0.607071
0.606985
0.606897
0.606807
0.606715
0.60662
0.606522
0.606422
0.606318
0.606212
0.606102
0.605989
0.605873
0.605752
0.605628
0.6055
0.605367
0.605229
0.605086
0.604938
0.604783
0.604622
0.604455
0.60428
0.604098
0.603909
0.603709
0.603497
0.603273
0.603041
0.602796
0.602527
0.602221
0.601899
0.601616
0.601277
0.600819
0.600244
0.599516
0.598533
0.536636
0.327198
0.231049
0.180361
0.145964
0.120485
0.100591
0.0845557
0.0713577
0.0603343
0.051027
0.0431054
0.0363193
0.030475
0.0254143
0.0210173
0.0171797
0.0138208
0.0108619
0.00819845
0.00574789
0.00359932
0.00198848
0.00100782
0.000503969
0.000267187
0.000159683
0.000107397
7.90664e-05
6.20605e-05
4.98123e-05
4.14323e-05
3.44974e-05
2.95268e-05
2.50683e-05
2.18266e-05
1.87841e-05
1.65216e-05
1.43607e-05
1.27587e-05
1.12583e-05
9.84812e-06
8.88917e-06
7.83283e-06
7.06578e-06
6.21268e-06
5.6089e-06
5.00846e-06
4.56375e-06
4.03777e-06
3.64028e-06
3.22744e-06
2.97423e-06
2.69871e-06
2.43738e-06
2.14386e-06
1.88936e-06
1.74371e-06
1.59893e-06
1.41984e-06
1.21897e-06
1.09042e-06
1.01025e-06
8.95935e-07
7.6435e-07
6.9072e-07
6.29381e-07
5.39948e-07
4.59981e-07
4.18761e-07
3.80165e-07
3.20551e-07
2.69431e-07
2.43249e-07
2.13755e-07
1.7753e-07
1.57158e-07
1.36412e-07
1.11723e-07
9.73053e-08
8.59247e-08
6.94693e-08
5.82565e-08
5.17507e-08
4.16726e-08
3.39764e-08
2.93085e-08
2.32826e-08
1.96246e-08
1.56415e-08
1.34204e-08
1.21992e-08
1.15747e-08
1.13609e-08
1.80279e-08
7.75374e-11
1.86118e-11
1.56097e-11
1.14017e-11
9.92263e-12
8.59521e-12
6.849e-12
5.614e-12
4.01173e-12
3.37482e-12
2.66204e-12
2.2704e-12
1.82364e-12
1.23748e-12
1.00422e-12
8.49174e-13
6.45591e-13
4.87575e-13
3.25274e-13
2.69705e-13
2.27044e-13
1.56241e-13
1.0163e-13
8.082e-14
6.69998e-14
4.55048e-14
2.92055e-14
2.29567e-14
1.84419e-14
1.1652e-14
7.7557e-15
6.10272e-15
4.44911e-15
2.64558e-15
1.89739e-15
1.3442e-15
8.4825e-16
6.19546e-16
3.59668e-16
2.49952e-16
1.54256e-16
1.11915e-16
6.2938e-17
4.22397e-17
2.82788e-17
1.48543e-17
8.78873e-18
3.37225e-18
1.42257e-18
5.57993e-19
2.2517e-19
8.79956e-20
3.34024e-20
1.22043e-20
4.24204e-21
1.39088e-21
4.27013e-22
1.21881e-22
3.20802e-23
7.71157e-24
1.67331e-24
3.22992e-25
5.44202e-26
7.79947e-27
9.15701e-28
8.28783e-29
5.14832e-30
1.57199e-31
2.04023e-33
5.71175e-35
7.90795e-37
1.05065e-47
6.94215e-59
3.23196e-70
1.1266e-81
3.2966e-93
1.04327e-104
5.54252e-116
8.84573e-124
1.66603e-134
3.0432e-142
5.69872e-153
1.0468e-160
2.40903e-171
3.5998e-179
1.08938e-189
1.23867e-197
7.39408e-208
4.28754e-216
4.91606e-226
1.49857e-234
2.52366e-244
5.2898e-253
1.20446e-262
1.89069e-271
5.35445e-281
6.83e-290
2.30123e-299
2.49948e-308
1.39819e-317
4.97524e-321
8.5424e-321
0
0
0
0
0
0
0
0
0
0
0
0
0
0
0
0
)
;

boundaryField
{
    inandouthalf11
    {
        type            cyclic;
    }
    inandouthalf12
    {
        type            cyclic;
    }
    inandouthalf21
    {
        type            cyclic;
    }
    inandouthalf22
    {
        type            cyclic;
    }
    inandouthalf31
    {
        type            cyclic;
    }
    inandouthalf32
    {
        type            cyclic;
    }
    inandouthalf41
    {
        type            cyclic;
    }
    inandouthalf42
    {
        type            cyclic;
    }
    top
    {
        type            symmetryPlane;
    }
    walls
    {
        type            zeroGradient;
    }
    frontAndBackPlanes
    {
        type            empty;
    }
}


// ************************************************************************* //
