/*--------------------------------*- C++ -*----------------------------------*\
| =========                 |                                                 |
| \\      /  F ield         | OpenFOAM: The Open Source CFD Toolbox           |
|  \\    /   O peration     | Version:  2.4.x                                 |
|   \\  /    A nd           | Web:      www.OpenFOAM.org                      |
|    \\/     M anipulation  |                                                 |
\*---------------------------------------------------------------------------*/
FoamFile
{
    version     2.0;
    format      ascii;
    class       volScalarField;
    location    "2.3";
    object      alpha_0;
}
// * * * * * * * * * * * * * * * * * * * * * * * * * * * * * * * * * * * * * //

dimensions      [0 0 0 0 0 0 0];

internalField   nonuniform List<scalar> 
360
(
0.609996
0.609996
0.609995
0.609995
0.609995
0.609994
0.609994
0.609993
0.609993
0.609992
0.609991
0.609991
0.60999
0.609989
0.609988
0.609987
0.609986
0.609985
0.609984
0.609982
0.609981
0.609979
0.609977
0.609975
0.609973
0.609971
0.609969
0.609966
0.609963
0.60996
0.609957
0.609953
0.60995
0.609945
0.609941
0.609936
0.609931
0.609925
0.609918
0.609912
0.609904
0.609896
0.609888
0.609878
0.609868
0.609857
0.609845
0.609833
0.609819
0.609803
0.609787
0.609769
0.60975
0.609729
0.609707
0.609682
0.609656
0.609627
0.609597
0.609566
0.609537
0.609513
0.609493
0.609478
0.609461
0.609442
0.609418
0.609391
0.60936
0.609325
0.609287
0.609246
0.609203
0.609158
0.60911
0.609061
0.609011
0.608961
0.608912
0.608863
0.608815
0.608766
0.608717
0.608667
0.608615
0.608561
0.608506
0.608449
0.608392
0.608333
0.608273
0.608213
0.608152
0.608089
0.608026
0.607961
0.607895
0.607827
0.607759
0.607689
0.607617
0.607544
0.60747
0.607394
0.607316
0.607236
0.607154
0.607071
0.606985
0.606897
0.606807
0.606715
0.60662
0.606522
0.606421
0.606318
0.606212
0.606102
0.605989
0.605873
0.605752
0.605628
0.605499
0.605366
0.605229
0.605086
0.604938
0.604783
0.604622
0.604455
0.60428
0.604098
0.603909
0.603709
0.603497
0.603273
0.603041
0.602796
0.602527
0.602221
0.601899
0.601616
0.601277
0.600819
0.600244
0.599516
0.598533
0.537107
0.327392
0.23108
0.180347
0.145936
0.120452
0.100555
0.0845178
0.0713179
0.0602931
0.050985
0.0430631
0.0362776
0.0304344
0.0253753
0.0209803
0.0171449
0.0137883
0.0108312
0.00816851
0.00571873
0.0035742
0.00197113
0.000998187
0.000499297
0.000265061
0.000158712
0.000106912
7.8796e-05
6.18877e-05
4.96919e-05
4.13439e-05
3.44295e-05
2.94737e-05
2.50254e-05
2.1792e-05
1.87553e-05
1.64978e-05
1.43406e-05
1.27423e-05
1.12431e-05
9.83584e-06
8.87881e-06
7.82356e-06
7.05762e-06
6.20542e-06
5.60292e-06
5.0033e-06
4.55901e-06
4.03332e-06
3.63641e-06
3.22426e-06
2.9717e-06
2.69619e-06
2.43486e-06
2.14145e-06
1.88762e-06
1.74247e-06
1.5976e-06
1.41835e-06
1.21771e-06
1.08962e-06
1.00953e-06
8.95073e-07
7.63645e-07
6.9026e-07
6.28891e-07
5.3942e-07
4.59608e-07
4.18517e-07
3.79882e-07
3.20245e-07
2.6922e-07
2.431e-07
2.13588e-07
1.7739e-07
1.57058e-07
1.36307e-07
1.11635e-07
9.7248e-08
8.58662e-08
6.94136e-08
5.82211e-08
5.17191e-08
4.16405e-08
3.39545e-08
2.92903e-08
2.32669e-08
1.96126e-08
1.56322e-08
1.34151e-08
1.21962e-08
1.15732e-08
1.13601e-08
1.80029e-08
7.77026e-11
1.86413e-11
1.56374e-11
1.14157e-11
9.9314e-12
8.6046e-12
6.85795e-12
5.62338e-12
4.01718e-12
3.37863e-12
2.66511e-12
2.27268e-12
1.82673e-12
1.23928e-12
1.00522e-12
8.5007e-13
6.46479e-13
4.88476e-13
3.25663e-13
2.69932e-13
2.273e-13
1.56551e-13
1.01765e-13
8.0894e-14
6.70734e-14
4.55907e-14
2.92428e-14
2.29779e-14
1.84636e-14
1.16735e-14
7.76479e-15
6.10872e-15
4.45586e-15
2.64946e-15
1.89961e-15
1.34604e-15
8.49365e-16
6.20405e-16
3.60182e-16
2.50289e-16
1.54446e-16
1.12063e-16
6.30275e-17
4.22892e-17
2.83193e-17
1.48789e-17
8.80632e-18
3.38022e-18
1.42616e-18
5.59325e-19
2.25713e-19
8.82086e-20
3.34841e-20
1.22347e-20
4.25284e-21
1.3945e-21
4.28152e-22
1.22214e-22
3.217e-23
7.73367e-24
1.67822e-24
3.23963e-25
5.45878e-26
7.82406e-27
9.1866e-28
8.3153e-29
5.16589e-30
1.57758e-31
2.04793e-33
5.73378e-35
7.9391e-37
1.05477e-47
6.96926e-59
3.24447e-70
1.13092e-81
3.30907e-93
1.04723e-104
5.56381e-116
8.88058e-124
1.67252e-134
3.05519e-142
5.72092e-153
1.05092e-160
2.4184e-171
3.61398e-179
1.09361e-189
1.24355e-197
7.42283e-208
4.30443e-216
4.93517e-226
1.50447e-234
2.53348e-244
5.31062e-253
1.20914e-262
1.89812e-271
5.37526e-281
6.85682e-290
2.31016e-299
2.50928e-308
1.39819e-317
4.97524e-321
8.5424e-321
0
0
0
0
0
0
0
0
0
0
0
0
0
0
0
0
)
;

boundaryField
{
    inandouthalf11
    {
        type            cyclic;
    }
    inandouthalf12
    {
        type            cyclic;
    }
    inandouthalf21
    {
        type            cyclic;
    }
    inandouthalf22
    {
        type            cyclic;
    }
    inandouthalf31
    {
        type            cyclic;
    }
    inandouthalf32
    {
        type            cyclic;
    }
    inandouthalf41
    {
        type            cyclic;
    }
    inandouthalf42
    {
        type            cyclic;
    }
    top
    {
        type            symmetryPlane;
    }
    walls
    {
        type            zeroGradient;
    }
    frontAndBackPlanes
    {
        type            empty;
    }
}


// ************************************************************************* //
