/*--------------------------------*- C++ -*----------------------------------*\
| =========                 |                                                 |
| \\      /  F ield         | OpenFOAM: The Open Source CFD Toolbox           |
|  \\    /   O peration     | Version:  2.4.x                                 |
|   \\  /    A nd           | Web:      www.OpenFOAM.org                      |
|    \\/     M anipulation  |                                                 |
\*---------------------------------------------------------------------------*/
FoamFile
{
    version     2.0;
    format      ascii;
    class       volVectorField;
    location    "2.3";
    object      ddt0(Ub);
}
// * * * * * * * * * * * * * * * * * * * * * * * * * * * * * * * * * * * * * //

dimensions      [0 1 -2 0 0 0 0];

internalField   nonuniform List<vector> 
360
(
(-0.000218392 1.46678e-12 0)
(-0.000218764 2.85671e-12 0)
(-0.000218766 2.85538e-12 0)
(-0.000218766 5.93979e-12 0)
(-0.000218766 1.12374e-11 0)
(-0.000218768 1.38232e-11 0)
(-0.000218768 1.75855e-11 0)
(-0.00021877 2.17483e-11 0)
(-0.00021877 2.47153e-11 0)
(-0.000218772 2.96128e-11 0)
(-0.000218774 3.25863e-11 0)
(-0.000218774 3.72679e-11 0)
(-0.000218776 4.29597e-11 0)
(-0.000218777 4.40759e-11 0)
(-0.000218779 5.02343e-11 0)
(-0.000218781 6.43667e-11 0)
(-0.000218783 7.12148e-11 0)
(-0.000218785 7.21111e-11 0)
(-0.000218787 7.94597e-11 0)
(-0.00021879 8.31186e-11 0)
(-0.000218792 8.53422e-11 0)
(-0.000218796 9.116e-11 0)
(-0.000218799 9.85849e-11 0)
(-0.000218803 9.97351e-11 0)
(-0.000218807 9.90089e-11 0)
(-0.00021881 1.02008e-10 0)
(-0.000218814 1.05313e-10 0)
(-0.00021882 1.11623e-10 0)
(-0.000218825 1.16942e-10 0)
(-0.000218831 1.24247e-10 0)
(-0.000218836 1.30205e-10 0)
(-0.000218844 1.33249e-10 0)
(-0.000218849 1.33217e-10 0)
(-0.000218858 1.32357e-10 0)
(-0.000218866 1.39183e-10 0)
(-0.000218875 1.49492e-10 0)
(-0.000218884 1.55991e-10 0)
(-0.000218895 1.60088e-10 0)
(-0.000218908 1.61597e-10 0)
(-0.000218919 1.60258e-10 0)
(-0.000218934 1.60259e-10 0)
(-0.000218948 1.61162e-10 0)
(-0.000218963 1.62518e-10 0)
(-0.000218981 1.65697e-10 0)
(-0.000219 1.66289e-10 0)
(-0.00021902 1.68919e-10 0)
(-0.000219042 1.74906e-10 0)
(-0.000219064 1.78563e-10 0)
(-0.00021909 1.82263e-10 0)
(-0.000219119 1.88557e-10 0)
(-0.000219149 1.93059e-10 0)
(-0.000219182 1.96057e-10 0)
(-0.000219217 1.99838e-10 0)
(-0.000219256 2.41388e-10 0)
(-0.000219296 1.63788e-09 0)
(-0.000219343 1.79361e-08 0)
(-0.000219403 2.83153e-07 0)
(-0.000219582 2.43246e-06 0)
(-0.000220285 1.149e-05 0)
(-0.000222304 3.41349e-05 0)
(-0.000226021 6.9979e-05 0)
(-0.000230197 0.000105669 0)
(-0.000232622 0.000123872 0)
(-0.000232403 0.000118296 0)
(-0.000230537 9.65514e-05 0)
(-0.000228419 7.10102e-05 0)
(-0.000226757 4.97116e-05 0)
(-0.000225651 3.45819e-05 0)
(-0.000224968 2.45665e-05 0)
(-0.000224559 1.80413e-05 0)
(-0.000224322 1.37152e-05 0)
(-0.000224189 1.07443e-05 0)
(-0.000224121 8.61971e-06 0)
(-0.000224098 7.03677e-06 0)
(-0.000224105 5.80655e-06 0)
(-0.000224136 4.80261e-06 0)
(-0.000224185 3.92867e-06 0)
(-0.000224249 3.10497e-06 0)
(-0.00022433 2.26758e-06 0)
(-0.000224428 1.37683e-06 0)
(-0.000224542 4.23957e-07 0)
(-0.000224674 -5.71994e-07 0)
(-0.000224822 -1.57664e-06 0)
(-0.000224984 -2.55484e-06 0)
(-0.000225157 -3.48126e-06 0)
(-0.00022534 -4.34379e-06 0)
(-0.000225531 -5.14199e-06 0)
(-0.00022573 -5.8831e-06 0)
(-0.000225936 -6.57825e-06 0)
(-0.000226149 -7.23966e-06 0)
(-0.00022637 -7.87896e-06 0)
(-0.000226598 -8.50653e-06 0)
(-0.000226833 -9.13171e-06 0)
(-0.000227075 -9.76327e-06 0)
(-0.000227322 -1.04099e-05 0)
(-0.000227574 -1.10805e-05 0)
(-0.000227829 -1.17838e-05 0)
(-0.000228089 -1.2528e-05 0)
(-0.000228351 -1.33203e-05 0)
(-0.000228616 -1.41661e-05 0)
(-0.000228884 -1.5069e-05 0)
(-0.000229155 -1.60303e-05 0)
(-0.00022943 -1.70495e-05 0)
(-0.000229707 -1.81241e-05 0)
(-0.000229989 -1.92505e-05 0)
(-0.000230274 -2.04235e-05 0)
(-0.000230564 -2.16375e-05 0)
(-0.000230859 -2.2886e-05 0)
(-0.000231159 -2.41624e-05 0)
(-0.000231465 -2.54601e-05 0)
(-0.000231777 -2.67728e-05 0)
(-0.000232096 -2.8095e-05 0)
(-0.000232421 -2.94217e-05 0)
(-0.000232754 -3.0749e-05 0)
(-0.000233094 -3.20739e-05 0)
(-0.000233442 -3.33943e-05 0)
(-0.000233798 -3.47088e-05 0)
(-0.000234163 -3.60168e-05 0)
(-0.000234537 -3.73175e-05 0)
(-0.000234921 -3.86105e-05 0)
(-0.000235315 -3.98943e-05 0)
(-0.00023572 -4.11675e-05 0)
(-0.000236137 -4.24279e-05 0)
(-0.000236567 -4.36736e-05 0)
(-0.000237009 -4.49031e-05 0)
(-0.000237466 -4.61165e-05 0)
(-0.000237938 -4.73154e-05 0)
(-0.000238427 -4.85024e-05 0)
(-0.000238935 -4.96799e-05 0)
(-0.000239465 -5.08474e-05 0)
(-0.000240018 -5.20009e-05 0)
(-0.000240594 -5.31328e-05 0)
(-0.000241193 -5.42356e-05 0)
(-0.000241818 -5.53046e-05 0)
(-0.00024247 -5.63389e-05 0)
(-0.000243152 -5.7337e-05 0)
(-0.000243859 -5.82967e-05 0)
(-0.0002446 -5.92248e-05 0)
(-0.000245408 -6.01498e-05 0)
(-0.000246334 -6.11196e-05 0)
(-0.000247378 -6.21657e-05 0)
(-0.000248457 -6.3224e-05 0)
(-0.0002497 -6.42545e-05 0)
(-0.000251208 -6.59907e-05 0)
(-0.000252897 -3.91645e-06 0)
(-0.000254661 -0.000470353 0)
(-0.000182665 0.00100582 0)
(0.0245899 -0.00380028 0)
(0.544022 -0.0156498 0)
(0.468989 0.00201199 0)
(0.288525 -0.000124927 0)
(0.0784037 0.00275211 0)
(-0.132823 0.00518989 0)
(-0.334622 0.00676571 0)
(-0.525122 0.00735623 0)
(-0.705997 0.00703596 0)
(-0.880221 0.00601722 0)
(-1.05095 0.00457338 0)
(-1.22096 0.00296948 0)
(-1.39273 0.00141549 0)
(-1.56838 3.96753e-05 0)
(-1.74957 -0.00109024 0)
(-1.93754 -0.00195654 0)
(-2.13305 -0.00258051 0)
(-2.33634 -0.00302492 0)
(-2.54697 -0.00343049 0)
(-2.76309 -0.00390974 0)
(-2.97701 -0.00427791 0)
(-3.16332 -0.00399696 0)
(-3.38339 -0.00313687 0)
(-2.41764 -0.00156243 0)
(-1.21184 -0.000612843 0)
(-1.06356 -0.00032224 0)
(-1.05044 -0.000144818 0)
(-1.0456 -7.88034e-05 0)
(-1.04288 -3.72788e-05 0)
(-1.04129 -2.96456e-05 0)
(-1.04009 -1.44951e-05 0)
(-1.03925 -1.65337e-05 0)
(-1.03859 -6.79681e-06 0)
(-1.03805 -1.10003e-05 0)
(-1.03763 -3.37704e-06 0)
(-1.03726 -8.01741e-06 0)
(-1.03698 -1.60016e-06 0)
(-1.03671 -6.19458e-06 0)
(-1.0365 -5.50527e-07 0)
(-1.03631 -4.93342e-06 0)
(-1.03616 -3.84876e-08 0)
(-1.03599 -4.07682e-06 0)
(-1.03589 4.01771e-07 0)
(-1.03578 -3.43246e-06 0)
(-1.03568 5.56504e-07 0)
(-1.03559 -2.94617e-06 0)
(-1.03551 7.13333e-07 0)
(-1.03545 -2.49724e-06 0)
(-1.03539 7.56753e-07 0)
(-1.03534 -2.22639e-06 0)
(-1.03529 7.73828e-07 0)
(-1.03524 -1.91733e-06 0)
(-1.0352 8.39451e-07 0)
(-1.03518 -1.7071e-06 0)
(-1.03515 7.92401e-07 0)
(-1.03511 -1.5958e-06 0)
(-1.03508 8.48921e-07 0)
(-1.03506 -1.39718e-06 0)
(-1.03504 8.49454e-07 0)
(-1.03502 -1.3329e-06 0)
(-1.035 8.28418e-07 0)
(-1.03498 -1.18758e-06 0)
(-1.03497 8.39116e-07 0)
(-1.03496 -1.12043e-06 0)
(-1.03494 8.07338e-07 0)
(-1.03493 -1.01546e-06 0)
(-1.03492 7.87569e-07 0)
(-1.03492 -9.59508e-07 0)
(-1.03491 7.66642e-07 0)
(-1.0349 -8.78911e-07 0)
(-1.03489 7.38532e-07 0)
(-1.03489 -8.35158e-07 0)
(-1.03488 7.1792e-07 0)
(-1.03488 -7.79865e-07 0)
(-1.03487 6.94117e-07 0)
(-1.03487 -7.42951e-07 0)
(-1.03487 6.78107e-07 0)
(-1.03486 -7.11174e-07 0)
(-1.03486 6.61322e-07 0)
(-1.03486 -6.84033e-07 0)
(-1.03486 6.48354e-07 0)
(-1.03486 -6.6498e-07 0)
(-1.03485 6.38892e-07 0)
(-1.03485 -6.48532e-07 0)
(-1.03485 6.29407e-07 0)
(-1.03485 -6.36956e-07 0)
(-1.03485 6.24494e-07 0)
(-1.03485 -6.03708e-07 0)
(-1.03485 5.67955e-07 0)
(-1.03485 -5.42885e-07 0)
(-1.03485 5.09369e-07 0)
(-1.03485 -4.83014e-07 0)
(-1.03485 4.51761e-07 0)
(-1.03485 -4.2596e-07 0)
(-1.03485 3.94289e-07 0)
(-1.03485 -3.66854e-07 0)
(-1.03485 3.41361e-07 0)
(-1.03485 -3.16778e-07 0)
(-1.03485 2.93545e-07 0)
(-1.03485 -2.71343e-07 0)
(-1.03485 2.50577e-07 0)
(-1.03485 -2.30913e-07 0)
(-1.03485 2.12682e-07 0)
(-1.03485 -1.9557e-07 0)
(-1.03485 1.79836e-07 0)
(-1.03485 -1.65181e-07 0)
(-1.03485 1.5182e-07 0)
(-1.03485 -1.39464e-07 0)
(-1.03485 1.28283e-07 0)
(-1.03485 -1.1802e-07 0)
(-1.03485 1.08797e-07 0)
(-1.03485 -1.00389e-07 0)
(-1.03485 9.28814e-08 0)
(-1.03485 -8.60848e-08 0)
(-1.03485 8.00443e-08 0)
(-1.03485 -7.46157e-08 0)
(-1.03485 6.98046e-08 0)
(-1.03485 -6.55109e-08 0)
(-1.03485 6.17075e-08 0)
(-1.03485 -5.83366e-08 0)
(-1.03485 5.53313e-08 0)
(-1.03485 -5.26959e-08 0)
(-1.03485 5.03119e-08 0)
(-1.03485 -4.8237e-08 0)
(-1.03485 4.63199e-08 0)
(-1.03485 -4.46625e-08 0)
(-1.03485 4.30739e-08 0)
(-1.03485 -4.17158e-08 0)
(-1.03485 4.03473e-08 0)
(-1.03485 -3.91843e-08 0)
(-1.03485 3.79446e-08 0)
(-1.03485 -3.68951e-08 0)
(-1.03485 3.57157e-08 0)
(-1.03485 -3.47125e-08 0)
(-1.03485 3.35385e-08 0)
(-1.03485 -3.2533e-08 0)
(-1.03485 3.13192e-08 0)
(-1.03485 -3.02793e-08 0)
(-1.03485 2.89951e-08 0)
(-1.03485 -2.78936e-08 0)
(-1.03485 2.65172e-08 0)
(-1.03485 -2.53434e-08 0)
(-1.03485 2.38583e-08 0)
(-1.03485 -2.26087e-08 0)
(-1.03485 2.10002e-08 0)
(-1.03485 -1.96826e-08 0)
(-1.03485 1.79399e-08 0)
(-1.03485 -1.65685e-08 0)
(-1.03485 1.46723e-08 0)
(-1.03485 -1.33076e-08 0)
(-1.03485 1.11623e-08 0)
(-1.03485 -9.9392e-09 0)
(-1.03485 7.44668e-09 0)
(-1.03485 -6.44251e-09 0)
(-1.03485 3.5715e-09 0)
(-1.03485 -2.8282e-09 0)
(-1.03485 -4.36638e-10 0)
(-1.03485 8.84606e-10 0)
(-1.03485 -4.54755e-09 0)
(-1.03485 4.67645e-09 0)
(-1.03485 -8.74702e-09 0)
(-1.03485 8.51519e-09 0)
(-1.03485 -1.30119e-08 0)
(-1.03485 1.08084e-08 0)
(-1.03485 -1.54331e-08 0)
(-1.03485 1.40752e-08 0)
(-1.03485 -1.9071e-08 0)
(-1.03485 1.71714e-08 0)
(-1.03485 -2.2589e-08 0)
(-1.03485 2.01044e-08 0)
(-1.03485 -2.59709e-08 0)
(-1.03485 2.28528e-08 0)
(-1.03485 -2.92371e-08 0)
(-1.03485 2.53624e-08 0)
(-1.03485 -3.24723e-08 0)
(-1.03485 2.75489e-08 0)
(-1.03485 -3.57102e-08 0)
(-1.03485 2.93203e-08 0)
(-1.03485 -3.9204e-08 0)
(-1.03485 3.02864e-08 0)
(-1.03485 -4.36137e-08 0)
(-1.03485 2.8493e-08 0)
(-1.03485 -5.26764e-08 0)
(-1.03485 2.16439e-08 0)
(-1.03485 -6.44068e-08 0)
(-1.03485 1.32777e-08 0)
(-1.03485 -7.69244e-08 0)
(-1.03485 3.94875e-09 0)
(-1.03485 -9.00647e-08 0)
(-1.03485 -6.13144e-09 0)
(-1.03485 -1.03504e-07 0)
(-1.03485 -1.68263e-08 0)
(-1.03485 -1.17656e-07 0)
(-1.03485 -2.86286e-08 0)
(-1.03485 -1.32875e-07 0)
(-1.03485 -4.17133e-08 0)
(-1.03485 -1.49648e-07 0)
(-1.03485 -5.87301e-08 0)
(-1.03485 -1.71697e-07 0)
(-1.03485 -8.11261e-08 0)
(-1.03485 -1.94604e-07 0)
(-1.03485 -1.02857e-07 0)
(-1.03485 -2.15694e-07 0)
(-1.03485 -1.21298e-07 0)
(-1.03485 -2.32324e-07 0)
(-1.03485 -1.39644e-07 0)
(-1.03485 -2.55505e-07 0)
(-1.03485 -1.5883e-07 0)
(-1.03485 -2.63084e-07 0)
(-1.03485 -1.54708e-07 0)
(-1.03485 -2.52052e-07 0)
(-1.03485 -1.28963e-07 0)
(-1.03485 -1.38885e-07 0)
)
;

boundaryField
{
    inandouthalf11
    {
        type            cyclic;
    }
    inandouthalf12
    {
        type            cyclic;
    }
    inandouthalf21
    {
        type            cyclic;
    }
    inandouthalf22
    {
        type            cyclic;
    }
    inandouthalf31
    {
        type            cyclic;
    }
    inandouthalf32
    {
        type            cyclic;
    }
    inandouthalf41
    {
        type            cyclic;
    }
    inandouthalf42
    {
        type            cyclic;
    }
    top
    {
        type            symmetryPlane;
    }
    walls
    {
        type            calculated;
        value           uniform (0 0 0);
    }
    frontAndBackPlanes
    {
        type            empty;
    }
}


// ************************************************************************* //
