/*--------------------------------*- C++ -*----------------------------------*\
| =========                 |                                                 |
| \\      /  F ield         | OpenFOAM: The Open Source CFD Toolbox           |
|  \\    /   O peration     | Version:  2.4.x                                 |
|   \\  /    A nd           | Web:      www.OpenFOAM.org                      |
|    \\/     M anipulation  |                                                 |
\*---------------------------------------------------------------------------*/
FoamFile
{
    version     2.0;
    format      ascii;
    class       volScalarField;
    location    "2.3";
    object      ddt0(((1.5*(alpha+1e-08))*rho),Theta);
}
// * * * * * * * * * * * * * * * * * * * * * * * * * * * * * * * * * * * * * //

dimensions      [1 -1 -3 0 0 0 0];

internalField   nonuniform List<scalar> 
360
(
5.84805e-24
5.85801e-24
5.85811e-24
5.85807e-24
5.8581e-24
5.85823e-24
5.85818e-24
5.85828e-24
5.85829e-24
5.85838e-24
5.85845e-24
5.85844e-24
5.85852e-24
5.85864e-24
5.85876e-24
5.85878e-24
5.85888e-24
5.859e-24
5.85909e-24
5.85925e-24
5.85934e-24
5.85953e-24
5.85969e-24
5.85985e-24
5.86004e-24
5.86024e-24
5.86044e-24
5.86069e-24
5.86092e-24
5.86125e-24
5.86146e-24
5.8618e-24
5.86209e-24
5.86256e-24
5.86288e-24
5.86334e-24
5.86381e-24
5.86428e-24
5.86491e-24
5.86548e-24
5.86619e-24
5.86689e-24
5.8676e-24
5.86851e-24
5.86937e-24
5.87036e-24
5.87146e-24
5.87247e-24
5.87373e-24
5.87517e-24
5.87656e-24
5.87816e-24
5.88007e-24
5.89109e-24
6.34615e-24
3.5669e-23
2.91495e-21
1.17274e-19
1.83884e-18
1.24705e-17
3.87215e-17
5.27216e-17
1.55539e-17
-3.42916e-17
-4.48499e-17
-3.02447e-17
-1.56201e-17
-7.33079e-18
-3.46223e-18
-1.7541e-18
-9.88109e-19
-6.26129e-19
-4.44423e-19
-3.49589e-19
-3.01138e-19
-2.82253e-19
-2.87986e-19
-3.17967e-19
-3.68783e-19
-4.28479e-19
-4.79196e-19
-5.06642e-19
-5.07079e-19
-4.86542e-19
-4.55205e-19
-4.2213e-19
-3.93067e-19
-3.70635e-19
-3.55433e-19
-3.46988e-19
-3.4439e-19
-3.46857e-19
-3.54042e-19
-3.66021e-19
-3.83123e-19
-4.05676e-19
-4.33718e-19
-4.66814e-19
-5.04032e-19
-5.43885e-19
0
0
0
0
0
0
0
0
0
0
0
0
0
0
0
-7.84395e-19
-7.73434e-19
-7.62234e-19
-7.50813e-19
-7.38947e-19
-7.26233e-19
-7.12249e-19
-6.96753e-19
-6.79893e-19
-6.62307e-19
-6.44987e-19
-6.28819e-19
-6.13866e-19
-5.9873e-19
-5.80578e-19
-5.56513e-19
-5.25993e-19
-4.9218e-19
-4.59744e-19
-4.30475e-19
-5.27492e-19
1.0487e-15
3.61204e-14
1.09527e-12
3.37127e-11
1.05677e-09
3.37757e-08
1.10484e-06
3.9593e-05
0.00276484
0.159767
2.45235
18.107
22.9663
8.81776
0.301467
-3.56634
-4.91084
-5.10888
-4.82988
-4.33686
-3.74744
-3.06726
-2.34862
-1.60258
-0.873187
-0.222992
0.329971
0.721071
0.925051
0.935612
0.770683
0.500515
0.236603
0.0734617
0.00815563
-0.00431791
-0.00416297
-0.00290446
-0.00203314
-0.00149129
-0.00114382
-0.000887892
-0.000710136
-0.000566768
-0.000464401
-0.000377515
-0.000315162
-0.000260716
-0.000221149
-0.000186127
-0.000160821
-0.000138683
-0.000119052
-0.000105923
-9.2379e-05
-8.27556e-05
-7.24691e-05
-6.52981e-05
-5.8305e-05
-5.31974e-05
-4.71705e-05
-4.26292e-05
-3.78874e-05
-3.49915e-05
-3.18216e-05
-2.87921e-05
-2.5355e-05
-2.23449e-05
-2.06012e-05
-1.8864e-05
-1.6717e-05
-1.43069e-05
-1.27362e-05
-1.17317e-05
-1.03416e-05
-8.76183e-06
-7.848e-06
-7.08345e-06
-6.02033e-06
-5.07542e-06
-4.562e-06
-4.08735e-06
-3.40544e-06
-2.82594e-06
-2.51056e-06
-2.17199e-06
-1.77928e-06
-1.54717e-06
-1.31983e-06
-1.06618e-06
-9.1077e-07
-7.86999e-07
-6.28229e-07
-5.17774e-07
-4.47587e-07
-3.56057e-07
-2.86138e-07
-2.39604e-07
-1.88159e-07
-1.53291e-07
-1.19313e-07
-9.55725e-08
-7.65148e-08
-5.89114e-08
-4.02532e-08
-5.45891e-254
0
0
0
0
0
0
0
0
0
0
0
0
0
0
0
0
0
0
0
0
0
0
0
0
0
0
0
0
0
0
0
0
0
0
0
0
0
0
0
0
0
0
0
0
0
0
0
0
0
0
0
0
0
0
0
0
0
0
0
0
0
0
0
0
0
0
0
0
0
0
0
0
0
0
0
0
0
0
0
0
0
0
0
0
0
0
0
0
0
0
0
0
0
0
0
0
0
0
0
0
0
0
0
0
0
0
0
0
0
0
0
0
0
0
0
0
0
0
)
;

boundaryField
{
    inandouthalf11
    {
        type            cyclic;
    }
    inandouthalf12
    {
        type            cyclic;
    }
    inandouthalf21
    {
        type            cyclic;
    }
    inandouthalf22
    {
        type            cyclic;
    }
    inandouthalf31
    {
        type            cyclic;
    }
    inandouthalf32
    {
        type            cyclic;
    }
    inandouthalf41
    {
        type            cyclic;
    }
    inandouthalf42
    {
        type            cyclic;
    }
    top
    {
        type            symmetryPlane;
    }
    walls
    {
        type            calculated;
        value           uniform 5.84805e-24;
    }
    frontAndBackPlanes
    {
        type            empty;
    }
}


// ************************************************************************* //
