/*--------------------------------*- C++ -*----------------------------------*\
| =========                 |                                                 |
| \\      /  F ield         | OpenFOAM: The Open Source CFD Toolbox           |
|  \\    /   O peration     | Version:  2.4.x                                 |
|   \\  /    A nd           | Web:      www.OpenFOAM.org                      |
|    \\/     M anipulation  |                                                 |
\*---------------------------------------------------------------------------*/
FoamFile
{
    version     2.0;
    format      ascii;
    class       volVectorField;
    location    "2.3";
    object      gradPs;
}
// * * * * * * * * * * * * * * * * * * * * * * * * * * * * * * * * * * * * * //

dimensions      [0 1 -2 0 0 0 0];

internalField   nonuniform List<vector> 
360
(
(0 1.11245e-25 0)
(0 -1.76831e-21 0)
(0 -1.76843e-21 0)
(0 9.19736e-29 0)
(-1.45436e-32 -1.76841e-21 0)
(-2.90872e-32 -1.76841e-21 0)
(-1.45436e-32 -1.76839e-21 0)
(0 -1.76839e-21 0)
(-1.45436e-32 -1.76837e-21 0)
(0 -3.53673e-21 0)
(-1.45437e-32 -1.76836e-21 0)
(0 -1.76834e-21 0)
(-1.45437e-32 -3.53666e-21 0)
(0 -3.53663e-21 0)
(0 -3.53659e-21 0)
(0 -3.53656e-21 0)
(0 -3.53652e-21 0)
(-1.45438e-32 -3.53649e-21 0)
(0 -5.30465e-21 0)
(0 -5.3046e-21 0)
(0 -5.30449e-21 0)
(-1.4544e-32 -7.07255e-21 0)
(0 -7.07242e-21 0)
(0 -7.07228e-21 0)
(0 -7.07214e-21 0)
(-1.45442e-32 -7.072e-21 0)
(0 -8.83977e-21 0)
(0 -1.06075e-20 0)
(0 -1.06072e-20 0)
(0 -1.06068e-20 0)
(0 -1.23742e-20 0)
(0 -1.23739e-20 0)
(0 -1.41409e-20 0)
(0 -1.5908e-20 0)
(0 -1.59072e-20 0)
(1.4545e-32 -1.76739e-20 0)
(0 -1.94402e-20 0)
(0 -2.29734e-20 0)
(0 -2.29721e-20 0)
(0 -2.47373e-20 0)
(0 -2.82692e-20 0)
(0 -2.8267e-20 0)
(2.90923e-32 -3.17975e-20 0)
(0 -3.53275e-20 0)
(0 -3.709e-20 0)
(0 -4.06179e-20 0)
(0 -4.23791e-20 0)
(0 -4.59048e-20 0)
(0 -5.29597e-20 0)
(0 -5.64821e-20 0)
(1.45485e-32 -6.0002e-20 0)
(0 -6.52851e-20 0)
(0 -7.05648e-20 0)
(0 -7.58418e-20 0)
(0 -8.28759e-20 0)
(0 -8.98012e-20 0)
(0 -9.21195e-20 0)
(0 -5.46211e-21 0)
(0 8.58313e-19 0)
(0 4.57508e-18 0)
(0 1.1762e-17 0)
(0 1.51276e-17 0)
(0 6.59325e-18 0)
(0 -6.72898e-18 0)
(0 -1.22529e-17 0)
(0 -9.76734e-18 0)
(0 -5.58537e-18 0)
(0 -2.76529e-18 0)
(0 -1.33478e-18 0)
(0 -6.82139e-19 0)
(0 -3.86947e-19 0)
(0 -2.40042e-19 0)
(0 -1.52745e-19 0)
(0 -8.37346e-20 0)
(0 -1.39975e-20 0)
(0 5.9137e-20 0)
(0 1.2611e-19 0)
(0 1.66026e-19 0)
(0 1.60537e-19 0)
(0 1.05448e-19 0)
(0 1.80412e-20 0)
(0 -7.16935e-20 0)
(0 -1.38328e-19 0)
(0 -1.7231e-19 0)
(0 -1.76997e-19 0)
(0 -1.6265e-19 0)
(0 -1.40271e-19 0)
(0 -1.18334e-19 0)
(0 -1.02334e-19 0)
(0 -9.44213e-20 0)
(0 -9.42021e-20 0)
(0 -9.95093e-20 0)
(0 -1.07523e-19 0)
(0 -1.16148e-19 0)
(0 -1.24604e-19 0)
(0 -1.33165e-19 0)
(0 -1.42795e-19 0)
(0 -1.54494e-19 0)
(0 -1.713e-19 0)
(0 -1.76755e-16 0)
(0 -1.76685e-16 0)
(0 0 0)
(0 0 0)
(0 0 0)
(0 0 0)
(0 0 0)
(0 0 0)
(0 0 0)
(0 0 0)
(0 0 0)
(0 0 0)
(0 0 0)
(0 0 0)
(0 0 0)
(0 1.7442e-16 0)
(0 1.7423e-16 0)
(0 -4.43152e-19 0)
(0 -4.53484e-19 0)
(0 -4.64646e-19 0)
(0 -4.7706e-19 0)
(0 -4.91078e-19 0)
(0 -5.0684e-19 0)
(0 -5.24153e-19 0)
(0 -5.42499e-19 0)
(0 -5.61322e-19 0)
(0 -5.80664e-19 0)
(0 -6.01905e-19 0)
(0 -6.27956e-19 0)
(0 -6.61961e-19 0)
(0 -7.04118e-19 0)
(0 -7.48666e-19 0)
(0 -7.85929e-19 0)
(0 -8.11108e-19 0)
(0 -8.29928e-19 0)
(0 -8.56258e-19 0)
(0 1.07765e-16 0)
(0 5.38516e-15 0)
(0 1.703e-13 0)
(0 5.37073e-12 0)
(0 1.73343e-10 0)
(0 5.75165e-09 0)
(0 1.97239e-07 0)
(0 7.32368e-06 0)
(0 0.000503015 0)
(0 0.0391929 0)
(0 0.929677 0)
(0 5.18441 0)
(0 3.55283 0)
(0 -2.73614 0)
(0 -2.14541 0)
(0 -2.786 0)
(0 -3.1259 0)
(0 -3.41351 0)
(0 -3.674 0)
(0 -3.92436 0)
(0 -4.17622 0)
(0 -4.4355 0)
(0 -4.70414 0)
(0 -4.98181 0)
(0 -5.26708 0)
(0 -5.55559 0)
(0 -5.84723 0)
(0 -6.13579 0)
(0 -6.40968 0)
(0 -6.67615 0)
(0 -7.00378 0)
(0 -7.55958 0)
(0 -8.50021 0)
(0 -9.7644 0)
(0 -10.9506 0)
(0 -11.4063 0)
(0 -10.7134 0)
(0 -8.95809 0)
(0 -6.66849 0)
(0 -4.8065 0)
(0 -3.53465 0)
(0 -2.79533 0)
(0 -2.35501 0)
(0 -2.01513 0)
(0 -1.79503 0)
(0 -1.58601 0)
(0 -1.44742 0)
(0 -1.29054 0)
(0 -1.19429 0)
(0 -1.07205 0)
(0 -0.985338 0)
(0 -0.864586 0)
(0 -0.856545 0)
(0 -0.744432 0)
(0 -0.660831 0)
(0 -0.627526 0)
(0 -0.577098 0)
(0 -0.54161 0)
(0 -0.463386 0)
(0 -0.416132 0)
(0 -0.393488 0)
(0 -0.383596 0)
(0 -0.343679 0)
(0 -0.291267 0)
(0 -0.236359 0)
(0 -0.239612 0)
(0 -0.243991 0)
(-9.64502e-17 -0.238453 0)
(0 -0.176414 0)
(0 -0.128748 0)
(4.7537e-17 -0.138068 0)
(0 -0.155914 0)
(-4.72109e-17 -0.134297 0)
(0 -0.0866738 0)
(4.6211e-17 -0.0783484 0)
(0 -0.0936645 0)
(0 -0.0775217 0)
(0 -0.05152 0)
(2.2085e-17 -0.0543375 0)
(0 -0.0582215 0)
(0 -0.0416955 0)
(0 -0.0277938 0)
(0 -0.0315436 0)
(0 -0.0336111 0)
(-1.01314e-17 -0.0234534 0)
(0 -0.0167633 0)
(-4.89267e-18 -0.0182545 0)
(0 -0.0153003 0)
(-4.72613e-18 -0.0109793 0)
(0 -0.0111959 0)
(0 -0.0093153 0)
(0 -0.00618984 0)
(0 -0.00608643 0)
(2.15579e-18 -0.00566004 0)
(1.05763e-18 -0.00367374 0)
(0 -0.00317588 0)
(0 -0.00308758 0)
(0 -0.00212784 0)
(0 -0.00170674 0)
(0 -0.0014392 0)
(0 -0.0010696 0)
(0 -0.000831818 0)
(0 -0.000533591 0)
(0 -0.00039303 0)
(0 -0.000343123 0)
(0 -0.000513927 0)
(0 -0.000345746 0)
(0 0 0)
(0 0 0)
(0 0 0)
(0 0 0)
(0 0 0)
(0 0 0)
(0 0 0)
(0 0 0)
(0 0 0)
(0 0 0)
(0 0 0)
(0 0 0)
(0 0 0)
(0 0 0)
(0 0 0)
(0 0 0)
(0 0 0)
(0 0 0)
(0 0 0)
(0 0 0)
(0 0 0)
(0 0 0)
(0 0 0)
(0 0 0)
(0 0 0)
(0 0 0)
(0 0 0)
(0 0 0)
(0 0 0)
(0 0 0)
(0 0 0)
(0 0 0)
(0 0 0)
(0 0 0)
(0 0 0)
(0 0 0)
(0 0 0)
(0 0 0)
(0 0 0)
(0 0 0)
(0 0 0)
(0 0 0)
(0 0 0)
(0 0 0)
(0 0 0)
(0 0 0)
(0 0 0)
(0 0 0)
(0 0 0)
(0 0 0)
(0 0 0)
(0 0 0)
(0 0 0)
(0 0 0)
(0 0 0)
(0 0 0)
(0 0 0)
(0 0 0)
(0 0 0)
(0 0 0)
(0 0 0)
(0 0 0)
(0 0 0)
(0 0 0)
(0 0 0)
(0 0 0)
(0 0 0)
(0 0 0)
(0 0 0)
(0 0 0)
(0 0 0)
(0 0 0)
(0 0 0)
(0 0 0)
(0 0 0)
(0 0 0)
(0 0 0)
(0 0 0)
(0 0 0)
(0 0 0)
(0 0 0)
(0 0 0)
(0 0 0)
(0 0 0)
(0 0 0)
(0 0 0)
(0 0 0)
(0 0 0)
(0 0 0)
(0 0 0)
(0 0 0)
(0 0 0)
(0 0 0)
(0 0 0)
(0 0 0)
(0 0 0)
(0 0 0)
(0 0 0)
(0 0 0)
(0 0 0)
(0 0 0)
(0 0 0)
(0 0 0)
(0 0 0)
(0 0 0)
(0 0 0)
(0 0 0)
(0 0 0)
(0 0 0)
(0 0 0)
(0 0 0)
(0 0 0)
(0 0 0)
(0 0 0)
(0 0 0)
(0 0 0)
(0 0 0)
(0 0 0)
)
;

boundaryField
{
    inandouthalf11
    {
        type            cyclic;
    }
    inandouthalf12
    {
        type            cyclic;
    }
    inandouthalf21
    {
        type            cyclic;
    }
    inandouthalf22
    {
        type            cyclic;
    }
    inandouthalf31
    {
        type            cyclic;
    }
    inandouthalf32
    {
        type            cyclic;
    }
    inandouthalf41
    {
        type            cyclic;
    }
    inandouthalf42
    {
        type            cyclic;
    }
    top
    {
        type            symmetryPlane;
    }
    walls
    {
        type            calculated;
        value           uniform (0 0 0);
    }
    frontAndBackPlanes
    {
        type            empty;
    }
}


// ************************************************************************* //
