/*--------------------------------*- C++ -*----------------------------------*\
| =========                 |                                                 |
| \\      /  F ield         | OpenFOAM: The Open Source CFD Toolbox           |
|  \\    /   O peration     | Version:  2.4.x                                 |
|   \\  /    A nd           | Web:      www.OpenFOAM.org                      |
|    \\/     M anipulation  |                                                 |
\*---------------------------------------------------------------------------*/
FoamFile
{
    version     2.0;
    format      ascii;
    class       volScalarField;
    location    "2.3";
    object      mua;
}
// * * * * * * * * * * * * * * * * * * * * * * * * * * * * * * * * * * * * * //

dimensions      [1 -1 -1 0 0 0 0];

internalField   nonuniform List<scalar> 
360
(
1.92465e+33
1.6703e+36
9.60928e+34
1.62002e+34
4.99172e+33
2.24324e+33
1.2924e+33
8.69725e+32
6.36706e+32
4.80126e+32
3.60056e+32
2.63415e+32
1.86422e+32
1.27798e+32
8.53174e+31
5.57735e+31
3.58502e+31
2.271e+31
1.41849e+31
8.73644e+30
5.30905e+30
3.17869e+30
1.87507e+30
1.08964e+30
6.23353e+29
3.50592e+29
1.93477e+29
1.04575e+29
5.53625e+28
2.86888e+28
1.45252e+28
7.16926e+27
3.44333e+27
1.60303e+27
7.22383e+26
3.13618e+26
1.3062e+26
5.18784e+25
1.95689e+25
6.96559e+24
2.31949e+24
7.16354e+23
2.02808e+23
5.17059e+22
1.17519e+22
2.33368e+21
3.94128e+20
5.43734e+19
5.99121e+18
5.05236e+17
2.98365e+16
1.09467e+15
2.70302e+13
5.09024e+11
9.61808e+09
3.2548e+08
2.40516e+07
3.2272e+06
694137
221816
100290
61821
49942.3
50494.6
60452.2
80676
113197
158960
215305
274350
324261
354486
360344
343922
312908
276295
241286
211782
189108
173025
162477
156027
152232
149797
147666
145145
141928
138053
133743
129268
124865
120676
116741
113049
109565
106258
103115
100142
97351
94755
92359
90158.5
88140.6
86288.4
84583.5
83007.5
81542.4
80170.7
78874.8
77637.9
76443.9
75278
74126.9
72979.1
71824.7
70655.5
69465.5
68251.2
67012.5
65753.2
64481.4
63208
61943.6
60694.5
59458.8
58226.2
56988.4
55757.9
54591.3
53592.8
52872.8
52455.8
52191.3
51797.2
51097.7
50178.4
49082.8
47424.6
44950
43092.9
45399
55707.3
75008.3
107529
188356
504796
1.6111e+06
0.0340372
0.0136245
0.0102497
0.00917793
0.008744
0.00857249
0.00852551
0.00853895
0.00857746
0.00861911
0.00864913
0.00865676
0.00863381
0.00857383
0.0084732
0.00832692
0.00813558
0.00790236
0.00763584
0.00735166
0.00707293
0.00682606
0.00663126
0.00649384
0.0064012
0.00633315
0.00627801
0.0062304
0.00618771
0.00614856
0.00611211
0.00607777
0.00604515
0.00601391
0.00598381
0.00595463
0.00592622
0.00589843
0.00587115
0.00584428
0.00581773
0.00579142
0.00576529
0.00573929
0.00571336
0.00568746
0.00566154
0.00563556
0.00560951
0.00558334
0.00555704
0.00553056
0.00550389
0.00547702
0.00544963
0.00542144
0.00539237
0.00536238
0.00533143
0.00529945
0.00526638
0.00523216
0.00519672
0.00515998
0.00512188
0.00508231
0.0050412
0.00499843
0.00495391
0.00490751
0.00485909
0.00480853
0.00475565
0.00470027
0.00464219
0.0045812
0.00451702
0.00444936
0.00437789
0.00430221
0.00422185
0.00413628
0.00404483
0.00394669
0.0038409
0.00372619
0.00360093
0.003463
0.00330943
0.00313594
0.00293599
0.00269859
0.00240264
0.00199631
0
0
0
0
0
0
0
0
0
0
0
0
0
0
0
0
0
0
0
0
0
0
0
0
0
0
0
0
0
0
0
0
0
0
0
0
0
0
0
0
0
0
0
0
0
0
0
0
0
0
0
0
0
0
0
0
0
0
0
0
0
0
0
0
0
0
0
0
0
0
0
0
0
0
0
0
0
0
0
0
0
0
0
0
0
0
0
0
0
0
0
0
0
0
0
0
0
0
0
0
0
0
0
0
0
0
0
0
0
0
0
0
0
0
0
0
0
0
0
)
;

boundaryField
{
    inandouthalf11
    {
        type            cyclic;
    }
    inandouthalf12
    {
        type            cyclic;
    }
    inandouthalf21
    {
        type            cyclic;
    }
    inandouthalf22
    {
        type            cyclic;
    }
    inandouthalf31
    {
        type            cyclic;
    }
    inandouthalf32
    {
        type            cyclic;
    }
    inandouthalf41
    {
        type            cyclic;
    }
    inandouthalf42
    {
        type            cyclic;
    }
    top
    {
        type            symmetryPlane;
    }
    walls
    {
        type            calculated;
        value           uniform 1e+30;
    }
    frontAndBackPlanes
    {
        type            empty;
    }
}


// ************************************************************************* //
