/*--------------------------------*- C++ -*----------------------------------*\
| =========                 |                                                 |
| \\      /  F ield         | OpenFOAM: The Open Source CFD Toolbox           |
|  \\    /   O peration     | Version:  2.4.x                                 |
|   \\  /    A nd           | Web:      www.OpenFOAM.org                      |
|    \\/     M anipulation  |                                                 |
\*---------------------------------------------------------------------------*/
FoamFile
{
    version     2.0;
    format      ascii;
    class       volScalarField;
    location    "2.3";
    object      Theta_0;
}
// * * * * * * * * * * * * * * * * * * * * * * * * * * * * * * * * * * * * * //

dimensions      [0 2 -2 0 0 0 0];

internalField   nonuniform List<scalar> 
360
(
6.66136e-21
6.66136e-21
6.66136e-21
6.66136e-21
6.66136e-21
6.66136e-21
6.66136e-21
6.66136e-21
6.66136e-21
6.66136e-21
6.66136e-21
6.66136e-21
6.66136e-21
6.66136e-21
6.66136e-21
6.66136e-21
6.66136e-21
6.66136e-21
6.66136e-21
6.66136e-21
6.66136e-21
6.66136e-21
6.66136e-21
6.66136e-21
6.66136e-21
6.66136e-21
6.66136e-21
6.66136e-21
6.66136e-21
6.66136e-21
6.66136e-21
6.66136e-21
6.66136e-21
6.66136e-21
6.66136e-21
6.66136e-21
6.66136e-21
6.66136e-21
6.66136e-21
6.66136e-21
6.66136e-21
6.66136e-21
6.66136e-21
6.66136e-21
6.66136e-21
6.66135e-21
6.66135e-21
6.66135e-21
6.66135e-21
6.66135e-21
6.66135e-21
6.66135e-21
6.66135e-21
6.66135e-21
6.66135e-21
6.66135e-21
6.66135e-21
6.66151e-21
6.66491e-21
6.69672e-21
6.83765e-21
7.13883e-21
7.41092e-21
7.39625e-21
7.16533e-21
6.93794e-21
6.79877e-21
6.72957e-21
6.69774e-21
6.68326e-21
6.67666e-21
6.67384e-21
6.67313e-21
6.67394e-21
6.67615e-21
6.67983e-21
6.68493e-21
6.69116e-21
6.69777e-21
6.70374e-21
6.70821e-21
6.71087e-21
6.71201e-21
6.71227e-21
6.71231e-21
6.7126e-21
6.71338e-21
6.71471e-21
6.71649e-21
6.71856e-21
6.72077e-21
6.72297e-21
6.72509e-21
6.72712e-21
6.72907e-21
6.73094e-21
6.73272e-21
6.7344e-21
6.73591e-21
6.73712e-21
0
0
0
0
0
0
0
0
0
0
0
0
0
0
0
6.7282e-21
6.72681e-21
6.72543e-21
6.72406e-21
6.72269e-21
6.7213e-21
6.71987e-21
6.71839e-21
6.71684e-21
6.71522e-21
6.71356e-21
6.71185e-21
6.71009e-21
6.70816e-21
6.7059e-21
6.70319e-21
6.70005e-21
6.69678e-21
6.69378e-21
6.69119e-21
6.68863e-21
1.0904e-20
2.17547e-19
6.69733e-18
2.11702e-16
6.85339e-15
2.28015e-13
7.84589e-12
2.92574e-10
2.01822e-08
1.5867e-06
3.80828e-05
0.000381412
0.0017749
0.00368686
0.00526546
0.00664777
0.00785093
0.00889629
0.00979531
0.0105525
0.0111674
0.0116368
0.0119557
0.0121189
0.0121223
0.0119682
0.0116546
0.0111964
0.010616
0.00995067
0.009253
0.00858762
0.00801626
0.00757738
0.00727387
0.00707149
0.00692357
0.00680426
0.00670178
0.00661043
0.00652711
0.00645001
0.00637777
0.0063095
0.00624445
0.0061821
0.00612195
0.00606368
0.00600694
0.00595151
0.00589715
0.00584369
0.00579096
0.00573883
0.00568718
0.00563591
0.00558493
0.00553415
0.0054835
0.00543292
0.00538236
0.00533177
0.0052811
0.00523029
0.00517934
0.00512769
0.00507478
0.00502051
0.00496484
0.00490768
0.00484898
0.00478867
0.00472665
0.00466283
0.00459714
0.0045295
0.0044598
0.00438793
0.00431381
0.00423731
0.0041583
0.00407666
0.00399226
0.00390494
0.00381453
0.00372085
0.00362371
0.00352289
0.00341815
0.00330922
0.0031958
0.00307753
0.00295404
0.00282486
0.00268946
0.0025472
0.00239733
0.00223887
0.00207064
0.00189106
0.00169799
0.00148836
0.0012574
0.00099673
0.000688102
0
0
0
0
0
0
0
0
0
0
0
0
0
0
0
0
0
0
0
0
0
0
0
0
0
0
0
0
0
0
0
0
0
0
0
0
0
0
0
0
0
0
0
0
0
0
0
0
0
0
0
0
0
0
0
0
0
0
0
0
0
0
0
0
0
0
0
0
0
0
0
0
0
0
0
0
0
0
0
0
0
0
0
0
0
0
0
0
0
0
0
0
0
0
0
0
0
0
0
0
0
0
0
0
0
0
0
0
0
0
0
0
0
0
0
0
0
0
0
)
;

boundaryField
{
    inandouthalf11
    {
        type            cyclic;
    }
    inandouthalf12
    {
        type            cyclic;
    }
    inandouthalf21
    {
        type            cyclic;
    }
    inandouthalf22
    {
        type            cyclic;
    }
    inandouthalf31
    {
        type            cyclic;
    }
    inandouthalf32
    {
        type            cyclic;
    }
    inandouthalf41
    {
        type            cyclic;
    }
    inandouthalf42
    {
        type            cyclic;
    }
    top
    {
        type            symmetryPlane;
    }
    walls
    {
        type            zeroGradient;
    }
    frontAndBackPlanes
    {
        type            empty;
    }
}


// ************************************************************************* //
