/*--------------------------------*- C++ -*----------------------------------*\
| =========                 |                                                 |
| \\      /  F ield         | OpenFOAM: The Open Source CFD Toolbox           |
|  \\    /   O peration     | Version:  2.4.x                                 |
|   \\  /    A nd           | Web:      www.OpenFOAM.org                      |
|    \\/     M anipulation  |                                                 |
\*---------------------------------------------------------------------------*/
FoamFile
{
    version     2.0;
    format      ascii;
    class       volScalarField;
    location    "2.3";
    object      tmf;
}
// * * * * * * * * * * * * * * * * * * * * * * * * * * * * * * * * * * * * * //

dimensions      [0 0 0 0 0 0 0];

internalField   nonuniform List<scalar> 
360
(
0.999204
0.999204
0.999204
0.999204
0.999204
0.999204
0.999204
0.999204
0.999204
0.999204
0.999204
0.999204
0.999204
0.999204
0.999204
0.999204
0.999204
0.999204
0.999204
0.999204
0.999204
0.999204
0.999204
0.999204
0.999204
0.999204
0.999204
0.999204
0.999204
0.999204
0.999204
0.999204
0.999204
0.999204
0.999204
0.999203
0.999203
0.999203
0.999203
0.999203
0.999203
0.999203
0.999203
0.999203
0.999203
0.999203
0.999203
0.999203
0.999203
0.999203
0.999203
0.999203
0.999203
0.999203
0.999203
0.999203
0.999203
0.999202
0.999202
0.999202
0.999202
0.999202
0.999202
0.999202
0.999202
0.999202
0.999202
0.999202
0.999202
0.999201
0.999201
0.999201
0.999201
0.999201
0.999201
0.999201
0.9992
0.9992
0.9992
0.9992
0.9992
0.9992
0.999199
0.999199
0.999199
0.999199
0.999199
0.999199
0.999198
0.999198
0.999198
0.999198
0.999198
0.999197
0.999197
0.999197
0.999197
0.999196
0.999196
0.999196
0.999196
0.999195
0.999195
0.999195
0.999195
0.999194
0.999194
0.999194
0.999194
0.999193
0.999193
0.999193
0.999192
0.999192
0.999192
0.999191
0.999191
0.999191
0.99919
0.99919
0.999189
0.999189
0.999189
0.999188
0.999188
0.999187
0.999187
0.999186
0.999186
0.999185
0.999184
0.999184
0.999183
0.999182
0.999182
0.999134
0.996636
0.99549
0.995062
0.994569
0.993987
0.993291
0.992447
0.991407
0.990093
0.988394
0.98599
0.976915
0.939746
0.910401
0.89374
0.888312
0.885267
0.883679
0.883017
0.882943
0.883236
0.883746
0.884421
0.885243
0.886257
0.887571
0.889381
0.891995
0.895834
0.901332
0.90875
0.918125
0.929545
0.944719
0.959836
0.966752
0.967259
0.967278
0.967316
0.96737
0.967435
0.96754
0.97055
0.99401
0.996781
0.996738
0.996449
0.996347
0.996346
0.996343
0.996341
0.996338
0.996334
0.996331
0.996326
0.996322
0.996317
0.996312
0.996307
0.996301
0.996296
0.99629
0.996284
0.996277
0.996271
0.996264
0.996258
0.99625
0.996243
0.996235
0.996228
0.996219
0.996211
0.996202
0.996193
0.996183
0.996174
0.996164
0.996154
0.996143
0.996131
0.99612
0.996109
0.996096
0.996084
0.996071
0.996057
0.996043
0.996029
0.996014
0.995999
0.995983
0.995966
0.995949
0.995931
0.995912
0.995893
0.995873
0.995853
0.995832
0.995811
0.99579
0.99577
0.995752
0.995738
0.995722
0.994197
0.994197
0.994197
0.994197
0.994197
0.994197
0.994197
0.994197
0.994197
0.994197
0.994197
0.994197
0.994197
0.994197
0.994197
0.994197
0.994197
0.994197
0.994197
0.994197
0.994197
0.994197
0.994197
0.994197
0.994197
0.994197
0.994197
0.994197
0.994197
0.994197
0.994197
0.994197
0.994197
0.994197
0.994197
0.994197
0.994197
0.994197
0.994197
0.994197
0.994197
0.994197
0.994197
0.994197
0.994197
0.994197
0.994197
0.994197
0.994197
0.994197
0.994197
0.994197
0.994197
0.994197
0.994197
0.994197
0.994197
0.994197
0.994197
0.994197
0.994197
0.994197
0.994197
0.994197
0.994197
0.994197
0.994197
0.994197
0.994197
0.994197
0.994197
0.994197
0.994197
0.994197
0.994197
0.994197
0.994197
0.994197
0.994197
0.994197
0.994197
0.994197
0.994197
0.994197
0.994197
0.994197
0.994197
0.994197
0.994197
0.994197
0.994197
0.994197
0.994197
0.994197
0.994197
0.994197
0.994197
0.994197
0.994197
0.994197
0.994197
0.994197
0.994197
0.994197
0.994197
0.994197
0.994197
0.994197
0.994197
0.994197
0.994197
0.994197
0.994197
0.994197
0.994197
0.994196
0.994181
0.993268
)
;

boundaryField
{
    inandouthalf11
    {
        type            cyclic;
    }
    inandouthalf12
    {
        type            cyclic;
    }
    inandouthalf21
    {
        type            cyclic;
    }
    inandouthalf22
    {
        type            cyclic;
    }
    inandouthalf31
    {
        type            cyclic;
    }
    inandouthalf32
    {
        type            cyclic;
    }
    inandouthalf41
    {
        type            cyclic;
    }
    inandouthalf42
    {
        type            cyclic;
    }
    top
    {
        type            symmetryPlane;
    }
    walls
    {
        type            calculated;
        value           uniform 0;
    }
    frontAndBackPlanes
    {
        type            empty;
    }
}


// ************************************************************************* //
