/*--------------------------------*- C++ -*----------------------------------*\
| =========                 |                                                 |
| \\      /  F ield         | OpenFOAM: The Open Source CFD Toolbox           |
|  \\    /   O peration     | Version:  2.4.x                                 |
|   \\  /    A nd           | Web:      www.OpenFOAM.org                      |
|    \\/     M anipulation  |                                                 |
\*---------------------------------------------------------------------------*/
FoamFile
{
    version     2.0;
    format      ascii;
    class       volVectorField;
    location    "2.3";
    object      Ua_0;
}
// * * * * * * * * * * * * * * * * * * * * * * * * * * * * * * * * * * * * * //

dimensions      [0 1 -1 0 0 0 0];

internalField   nonuniform List<vector> 
360
(
(-1.03453e-36 -3.45511e-35 0)
(-1.03687e-36 -3.45533e-35 0)
(-1.04475e-36 -3.46128e-35 0)
(-1.20793e-36 -3.59124e-35 0)
(-2.06937e-36 -4.27597e-35 0)
(-4.55015e-36 -6.23902e-35 0)
(-9.54191e-36 -1.0168e-34 0)
(-1.75904e-35 -1.64666e-34 0)
(-2.90265e-35 -2.53616e-34 0)
(-4.43698e-35 -3.72197e-34 0)
(-6.47516e-35 -5.28737e-34 0)
(-9.2307e-35 -7.38939e-34 0)
(-1.30728e-34 -1.02999e-33 0)
(-1.86142e-34 -1.44696e-33 0)
(-2.68503e-34 -2.06242e-33 0)
(-3.93902e-34 -2.9929e-33 0)
(-5.88501e-34 -4.4264e-33 0)
(-8.95253e-34 -6.66924e-33 0)
(-1.38569e-33 -1.02277e-32 0)
(-2.1808e-33 -1.59536e-32 0)
(-3.48769e-33 -2.52923e-32 0)
(-5.66588e-33 -4.07339e-32 0)
(-9.35069e-33 -6.66528e-32 0)
(-1.5678e-32 -1.10803e-31 0)
(-2.671e-32 -1.87148e-31 0)
(-4.62589e-32 -3.21288e-31 0)
(-8.15192e-32 -5.61134e-31 0)
(-1.46373e-31 -9.98507e-31 0)
(-2.68151e-31 -1.81287e-30 0)
(-5.01621e-31 -3.36064e-30 0)
(-9.59146e-31 -6.36678e-30 0)
(-1.87724e-30 -1.23463e-29 0)
(-3.76793e-30 -2.45493e-29 0)
(-7.77243e-30 -5.01663e-29 0)
(-1.65245e-29 -1.05663e-28 0)
(-3.63005e-29 -2.29936e-28 0)
(-8.27294e-29 -5.19104e-28 0)
(-1.96431e-28 -1.22107e-27 0)
(-4.88621e-28 -3.01009e-27 0)
(-1.27943e-27 -7.81105e-27 0)
(-3.55169e-27 -2.14902e-26 0)
(-1.05311e-26 -6.31771e-26 0)
(-3.36824e-26 -2.00337e-25 0)
(-1.1754e-25 -6.93408e-25 0)
(-4.55276e-25 -2.66516e-24 0)
(-1.9802e-24 -1.15067e-23 0)
(-9.8674e-24 -5.69471e-23 0)
(-5.78727e-23 -3.31816e-22 0)
(-4.15994e-22 -2.3708e-21 0)
(-3.74584e-21 -2.12487e-20 0)
(-4.41199e-20 -2.49302e-19 0)
(-7.42884e-19 -4.18408e-18 0)
(-2.01339e-17 -1.13149e-16 0)
(-8.10984e-16 -4.55257e-15 0)
(-4.28033e-14 -2.40258e-13 0)
(-2.24879e-12 -1.26381e-11 0)
(-6.58582e-11 -3.71048e-10 0)
(-8.83441e-10 -4.99557e-09 0)
(-6.55033e-09 -3.72203e-08 0)
(-3.06273e-08 -1.74927e-07 0)
(-9.83994e-08 -5.64681e-07 0)
(-2.31444e-07 -1.33228e-06 0)
(-4.2182e-07 -2.43005e-06 0)
(-6.30543e-07 -3.6291e-06 0)
(-8.1652e-07 -4.69181e-06 0)
(-9.6033e-07 -5.50968e-06 0)
(-1.06328e-06 -6.09347e-06 0)
(-1.13544e-06 -6.5022e-06 0)
(-1.18712e-06 -6.79495e-06 0)
(-1.22607e-06 -7.01573e-06 0)
(-1.25755e-06 -7.19425e-06 0)
(-1.285e-06 -7.35012e-06 0)
(-1.31079e-06 -7.49675e-06 0)
(-1.33667e-06 -7.64429e-06 0)
(-1.36409e-06 -7.80119e-06 0)
(-1.39423e-06 -7.97466e-06 0)
(-1.428e-06 -8.17045e-06 0)
(-1.46589e-06 -8.39197e-06 0)
(-1.50789e-06 -8.63967e-06 0)
(-1.55341e-06 -8.91062e-06 0)
(-1.60147e-06 -9.19924e-06 0)
(-1.65093e-06 -9.49896e-06 0)
(-1.70082e-06 -9.80409e-06 0)
(-1.7505e-06 -1.01109e-05 0)
(-1.79967e-06 -1.04177e-05 0)
(-1.84834e-06 -1.07249e-05 0)
(-1.89668e-06 -1.10336e-05 0)
(-1.94489e-06 -1.13457e-05 0)
(-1.99318e-06 -1.16625e-05 0)
(-2.04163e-06 -1.19851e-05 0)
(-2.09029e-06 -1.23139e-05 0)
(-2.1391e-06 -1.26491e-05 0)
(-2.18796e-06 -1.29902e-05 0)
(-2.23679e-06 -1.33371e-05 0)
(-2.28546e-06 -1.36893e-05 0)
(-2.33388e-06 -1.40465e-05 0)
(-2.38195e-06 -1.44085e-05 0)
(-2.42956e-06 -1.47751e-05 0)
(-2.4766e-06 -1.51458e-05 0)
(-2.52295e-06 -1.55201e-05 0)
(-2.56845e-06 -1.58975e-05 0)
(-2.61297e-06 -1.62772e-05 0)
(-2.65635e-06 -1.66585e-05 0)
(-2.69846e-06 -1.70408e-05 0)
(-2.73917e-06 -1.74234e-05 0)
(-2.77835e-06 -1.78056e-05 0)
(-2.81588e-06 -1.81869e-05 0)
(-2.85166e-06 -1.85668e-05 0)
(-2.88558e-06 -1.89447e-05 0)
(-2.91756e-06 -1.93202e-05 0)
(-2.94752e-06 -1.96931e-05 0)
(-2.97538e-06 -2.00631e-05 0)
(-3.00106e-06 -2.04298e-05 0)
(-3.0245e-06 -2.07933e-05 0)
(-3.04563e-06 -2.11533e-05 0)
(-3.06438e-06 -2.15098e-05 0)
(-3.08066e-06 -2.18627e-05 0)
(-3.09441e-06 -2.22121e-05 0)
(-3.10553e-06 -2.25578e-05 0)
(-3.11393e-06 -2.29e-05 0)
(-3.11951e-06 -2.32385e-05 0)
(-3.12215e-06 -2.35731e-05 0)
(-3.12172e-06 -2.39038e-05 0)
(-3.1181e-06 -2.42302e-05 0)
(-3.11115e-06 -2.45521e-05 0)
(-3.10073e-06 -2.48692e-05 0)
(-3.08669e-06 -2.51813e-05 0)
(-3.06885e-06 -2.54882e-05 0)
(-3.04707e-06 -2.57894e-05 0)
(-3.02122e-06 -2.60842e-05 0)
(-2.99126e-06 -2.63709e-05 0)
(-2.95724e-06 -2.66476e-05 0)
(-2.91926e-06 -2.69126e-05 0)
(-2.87729e-06 -2.71657e-05 0)
(-2.83109e-06 -2.74078e-05 0)
(-2.78031e-06 -2.76401e-05 0)
(-2.7246e-06 -2.78628e-05 0)
(-2.66327e-06 -2.80766e-05 0)
(-2.59496e-06 -2.82847e-05 0)
(-2.51881e-06 -2.84891e-05 0)
(-2.43859e-06 -2.86791e-05 0)
(-2.36461e-06 -2.88296e-05 0)
(-2.30472e-06 -2.89319e-05 0)
(-2.2603e-06 -2.89969e-05 0)
(-2.2324e-06 -2.90326e-05 0)
(-2.22089e-06 -2.90449e-05 0)
(-2.21797e-06 -2.90461e-05 0)
(-2.21564e-06 -2.90451e-05 0)
(0.0419766 0.00478754 0)
(0.108361 0.00743533 0)
(0.170851 0.00959064 0)
(0.229218 0.0113632 0)
(0.283956 0.0131202 0)
(0.335717 0.014865 0)
(0.385048 0.0166003 0)
(0.432389 0.0183136 0)
(0.478082 0.0199838 0)
(0.522382 0.0215877 0)
(0.565458 0.023106 0)
(0.607395 0.0245264 0)
(0.64819 0.0258446 0)
(0.687747 0.0270641 0)
(0.725867 0.0281937 0)
(0.762242 0.0292528 0)
(0.796425 0.0302818 0)
(0.827816 0.0313249 0)
(0.855651 0.0323231 0)
(0.879075 0.0329848 0)
(0.897441 0.0329527 0)
(0.910751 0.0322771 0)
(0.919794 0.0314178 0)
(0.925869 0.0306331 0)
(0.930317 0.0299361 0)
(0.933894 0.0293091 0)
(0.936949 0.028744 0)
(0.939652 0.0282334 0)
(0.942088 0.0277708 0)
(0.944311 0.0273495 0)
(0.946358 0.0269625 0)
(0.948257 0.0266053 0)
(0.950028 0.0262731 0)
(0.951689 0.0259626 0)
(0.953254 0.0256706 0)
(0.954735 0.0253949 0)
(0.956143 0.025133 0)
(0.957485 0.0248834 0)
(0.958768 0.0246445 0)
(0.959996 0.0244159 0)
(0.961181 0.0241946 0)
(0.962322 0.023981 0)
(0.963423 0.0237745 0)
(0.964488 0.023574 0)
(0.965522 0.0233786 0)
(0.966529 0.0231874 0)
(0.967508 0.0230008 0)
(0.968456 0.022819 0)
(0.969381 0.0226409 0)
(0.970287 0.0224652 0)
(0.971176 0.0222916 0)
(0.972042 0.0221212 0)
(0.972879 0.0219558 0)
(0.9737 0.0217923 0)
(0.974525 0.0216266 0)
(0.975364 0.0214562 0)
(0.976201 0.0212848 0)
(0.97702 0.0211164 0)
(0.977834 0.0209481 0)
(0.978666 0.0207741 0)
(0.979516 0.0205943 0)
(0.980355 0.020416 0)
(0.981183 0.0202394 0)
(0.982032 0.0200563 0)
(0.982895 0.0198679 0)
(0.983745 0.019682 0)
(0.984599 0.0194938 0)
(0.985487 0.0192956 0)
(0.986385 0.0190932 0)
(0.987262 0.0188949 0)
(0.988148 0.0186934 0)
(0.989077 0.018479 0)
(0.990019 0.018259 0)
(0.990953 0.0180403 0)
(0.991914 0.0178127 0)
(0.992898 0.0175765 0)
(0.993882 0.0173391 0)
(0.994901 0.0170903 0)
(0.995954 0.0168293 0)
(0.997001 0.0165681 0)
(0.998073 0.0162979 0)
(0.999194 0.01601 0)
(1.00032 0.0157192 0)
(1.00145 0.0154225 0)
(1.00263 0.015107 0)
(1.00383 0.0147845 0)
(1.00503 0.0144544 0)
(1.00625 0.0141148 0)
(1.00746 0.013771 0)
(1.00865 0.013427 0)
(1.00975 0.013103 0)
(1.01072 0.0128138 0)
(1.0115 0.0125777 0)
(1.01235 0.0123091 0)
(1.11013 -0.0395006 0)
(1.11013 -0.0395005 0)
(1.11013 -0.0395005 0)
(1.11014 -0.0395005 0)
(1.11014 -0.0395005 0)
(1.11014 -0.0395006 0)
(1.11014 -0.0395005 0)
(1.11014 -0.0395006 0)
(1.11014 -0.0395005 0)
(1.11014 -0.0395006 0)
(1.11014 -0.0395005 0)
(1.11015 -0.0395006 0)
(1.11015 -0.0395005 0)
(1.11015 -0.0395006 0)
(1.11015 -0.0395005 0)
(1.11015 -0.0395006 0)
(1.11015 -0.0395005 0)
(1.11015 -0.0395006 0)
(1.11015 -0.0395005 0)
(1.11015 -0.0395006 0)
(1.11015 -0.0395005 0)
(1.11015 -0.0395006 0)
(1.11015 -0.0395005 0)
(1.11015 -0.0395006 0)
(1.11015 -0.0395005 0)
(1.11015 -0.0395006 0)
(1.11015 -0.0395005 0)
(1.11015 -0.0395006 0)
(1.11015 -0.0395005 0)
(1.11015 -0.0395006 0)
(1.11015 -0.0395005 0)
(1.11015 -0.0395006 0)
(1.11015 -0.0395005 0)
(1.11015 -0.0395006 0)
(1.11015 -0.0395005 0)
(1.11015 -0.0395006 0)
(1.11015 -0.0395005 0)
(1.11015 -0.0395006 0)
(1.11015 -0.0395005 0)
(1.11015 -0.0395006 0)
(1.11015 -0.0395005 0)
(1.11015 -0.0395006 0)
(1.11015 -0.0395005 0)
(1.11015 -0.0395006 0)
(1.11015 -0.0395005 0)
(1.11015 -0.0395006 0)
(1.11015 -0.0395005 0)
(1.11015 -0.0395006 0)
(1.11015 -0.0395005 0)
(1.11015 -0.0395006 0)
(1.11015 -0.0395005 0)
(1.11015 -0.0395006 0)
(1.11015 -0.0395005 0)
(1.11015 -0.0395006 0)
(1.11015 -0.0395005 0)
(1.11015 -0.0395006 0)
(1.11015 -0.0395005 0)
(1.11015 -0.0395006 0)
(1.11015 -0.0395005 0)
(1.11015 -0.0395006 0)
(1.11015 -0.0395005 0)
(1.11015 -0.0395006 0)
(1.11015 -0.0395005 0)
(1.11015 -0.0395006 0)
(1.11015 -0.0395005 0)
(1.11015 -0.0395006 0)
(1.11015 -0.0395005 0)
(1.11015 -0.0395006 0)
(1.11015 -0.0395005 0)
(1.11015 -0.0395006 0)
(1.11015 -0.0395005 0)
(1.11015 -0.0395006 0)
(1.11015 -0.0395005 0)
(1.11015 -0.0395006 0)
(1.11015 -0.0395005 0)
(1.11015 -0.0395006 0)
(1.11015 -0.0395005 0)
(1.11015 -0.0395006 0)
(1.11015 -0.0395005 0)
(1.11015 -0.0395005 0)
(1.11015 -0.0395005 0)
(1.11015 -0.0395005 0)
(1.11015 -0.0395005 0)
(1.11015 -0.0395005 0)
(1.11015 -0.0395005 0)
(1.11015 -0.0395005 0)
(1.11015 -0.0395005 0)
(1.11015 -0.0395005 0)
(1.11015 -0.0395005 0)
(1.11015 -0.0395005 0)
(1.11015 -0.0395005 0)
(1.11015 -0.0395005 0)
(1.11015 -0.0395005 0)
(1.11015 -0.0395005 0)
(1.11015 -0.0395005 0)
(1.11015 -0.0395005 0)
(1.11015 -0.0395005 0)
(1.11015 -0.0395005 0)
(1.11015 -0.0395005 0)
(1.11015 -0.0395005 0)
(1.11015 -0.0395005 0)
(1.11015 -0.0395005 0)
(1.11015 -0.0395005 0)
(1.11015 -0.0395005 0)
(1.11015 -0.0395005 0)
(1.11015 -0.0395005 0)
(1.11015 -0.0395005 0)
(1.11015 -0.0395005 0)
(1.11015 -0.0395005 0)
(1.11015 -0.0395005 0)
(1.11015 -0.0395005 0)
(1.11015 -0.0395005 0)
(1.11015 -0.0395005 0)
(1.11015 -0.0395005 0)
(1.11015 -0.0395003 0)
(1.11015 -0.0394918 0)
(1.11018 -0.0391461 0)
(1.11083 -0.0224032 0)
)
;

boundaryField
{
    inandouthalf11
    {
        type            cyclic;
    }
    inandouthalf12
    {
        type            cyclic;
    }
    inandouthalf21
    {
        type            cyclic;
    }
    inandouthalf22
    {
        type            cyclic;
    }
    inandouthalf31
    {
        type            cyclic;
    }
    inandouthalf32
    {
        type            cyclic;
    }
    inandouthalf41
    {
        type            cyclic;
    }
    inandouthalf42
    {
        type            cyclic;
    }
    top
    {
        type            symmetryPlane;
    }
    walls
    {
        type            fixedValue;
        value           uniform (0 0 0);
    }
    frontAndBackPlanes
    {
        type            empty;
    }
}


// ************************************************************************* //
