/*--------------------------------*- C++ -*----------------------------------*\
| =========                 |                                                 |
| \\      /  F ield         | OpenFOAM: The Open Source CFD Toolbox           |
|  \\    /   O peration     | Version:  2.4.x                                 |
|   \\  /    A nd           | Web:      www.OpenFOAM.org                      |
|    \\/     M anipulation  |                                                 |
\*---------------------------------------------------------------------------*/
FoamFile
{
    version     2.0;
    format      ascii;
    class       volVectorField;
    location    "2.3";
    object      Ub;
}
// * * * * * * * * * * * * * * * * * * * * * * * * * * * * * * * * * * * * * //

dimensions      [0 1 -1 0 0 0 0];

internalField   nonuniform List<vector> 
360
(
(-0.000220616 6.41431e-14 0)
(-0.000220992 1.92938e-13 0)
(-0.000220995 3.22309e-13 0)
(-0.000220995 4.51809e-13 0)
(-0.000220995 5.81282e-13 0)
(-0.000220996 7.10845e-13 0)
(-0.000220996 8.40441e-13 0)
(-0.000220998 9.70395e-13 0)
(-0.000220998 1.10031e-12 0)
(-0.000221 1.22991e-12 0)
(-0.000221002 1.3597e-12 0)
(-0.000221002 1.4895e-12 0)
(-0.000221004 1.61899e-12 0)
(-0.000221006 1.74842e-12 0)
(-0.000221008 1.87778e-12 0)
(-0.000221009 2.0069e-12 0)
(-0.000221011 2.13564e-12 0)
(-0.000221013 2.2641e-12 0)
(-0.000221015 2.39242e-12 0)
(-0.000221019 2.52078e-12 0)
(-0.000221021 2.64853e-12 0)
(-0.000221024 2.77592e-12 0)
(-0.000221028 2.90316e-12 0)
(-0.000221032 3.03009e-12 0)
(-0.000221035 3.15643e-12 0)
(-0.000221039 3.28255e-12 0)
(-0.000221043 3.40841e-12 0)
(-0.000221048 3.53371e-12 0)
(-0.000221054 3.6587e-12 0)
(-0.00022106 3.7833e-12 0)
(-0.000221065 3.90721e-12 0)
(-0.000221073 4.03096e-12 0)
(-0.000221078 4.15433e-12 0)
(-0.000221087 4.2771e-12 0)
(-0.000221095 4.39931e-12 0)
(-0.000221104 4.52108e-12 0)
(-0.000221113 4.64246e-12 0)
(-0.000221125 4.76327e-12 0)
(-0.000221137 4.88366e-12 0)
(-0.000221149 5.00378e-12 0)
(-0.000221164 5.12332e-12 0)
(-0.000221178 5.24271e-12 0)
(-0.000221193 5.36118e-12 0)
(-0.000221212 5.47893e-12 0)
(-0.00022123 5.59654e-12 0)
(-0.000221251 5.71359e-12 0)
(-0.000221273 5.82984e-12 0)
(-0.000221295 5.94535e-12 0)
(-0.000221321 6.06015e-12 0)
(-0.000221351 6.17473e-12 0)
(-0.000221381 6.28868e-12 0)
(-0.000221414 6.40181e-12 0)
(-0.00022145 6.51474e-12 0)
(-0.000221489 6.70042e-12 0)
(-0.00022153 1.02744e-11 0)
(-0.000221576 7.60783e-11 0)
(-0.000221625 1.11246e-09 0)
(-0.000221679 1.29019e-08 0)
(-0.000221741 8.50416e-08 0)
(-0.000221822 3.527e-07 0)
(-0.000221944 1.02032e-06 0)
(-0.000222122 2.21909e-06 0)
(-0.000222348 3.85534e-06 0)
(-0.000222586 5.63518e-06 0)
(-0.000222803 7.24716e-06 0)
(-0.000222983 8.52163e-06 0)
(-0.00022313 9.44978e-06 0)
(-0.000223253 1.0106e-05 0)
(-0.000223363 1.05763e-05 0)
(-0.000223466 1.09293e-05 0)
(-0.000223568 1.12127e-05 0)
(-0.000223672 1.14584e-05 0)
(-0.000223778 1.16884e-05 0)
(-0.00022389 1.19191e-05 0)
(-0.000224006 1.21638e-05 0)
(-0.000224129 1.24336e-05 0)
(-0.000224255 1.27371e-05 0)
(-0.000224386 1.30795e-05 0)
(-0.00022452 1.34611e-05 0)
(-0.000224657 1.38778e-05 0)
(-0.000224795 1.43214e-05 0)
(-0.000224936 1.47824e-05 0)
(-0.000225078 1.52524e-05 0)
(-0.000225222 1.57254e-05 0)
(-0.000225369 1.61991e-05 0)
(-0.000225518 1.66733e-05 0)
(-0.00022567 1.71498e-05 0)
(-0.000225824 1.76311e-05 0)
(-0.000225981 1.81193e-05 0)
(-0.000226139 1.86159e-05 0)
(-0.0002263 1.91218e-05 0)
(-0.000226462 1.9637e-05 0)
(-0.000226626 2.01611e-05 0)
(-0.000226792 2.06938e-05 0)
(-0.000226961 2.12343e-05 0)
(-0.000227131 2.17823e-05 0)
(-0.000227304 2.23372e-05 0)
(-0.000227478 2.28988e-05 0)
(-0.000227655 2.34662e-05 0)
(-0.000227833 2.40387e-05 0)
(-0.000228014 2.46153e-05 0)
(-0.000228196 2.51951e-05 0)
(-0.00022838 2.57769e-05 0)
(-0.000228567 2.63597e-05 0)
(-0.000228755 2.69423e-05 0)
(-0.000228945 2.75237e-05 0)
(-0.000229137 2.81032e-05 0)
(-0.000229331 2.86797e-05 0)
(-0.000229528 2.92527e-05 0)
(-0.000229726 2.98213e-05 0)
(-0.000229927 3.03851e-05 0)
(-0.000230131 3.09437e-05 0)
(-0.000230337 3.14966e-05 0)
(-0.000230547 3.20436e-05 0)
(-0.000230759 3.25845e-05 0)
(-0.000230975 3.31191e-05 0)
(-0.000231194 3.36474e-05 0)
(-0.000231417 3.41692e-05 0)
(-0.000231644 3.46845e-05 0)
(-0.000231875 3.51933e-05 0)
(-0.000232111 3.56953e-05 0)
(-0.000232352 3.61903e-05 0)
(-0.000232598 3.66779e-05 0)
(-0.00023285 3.71579e-05 0)
(-0.000233107 3.76295e-05 0)
(-0.000233372 3.80925e-05 0)
(-0.000233643 3.85464e-05 0)
(-0.000233923 3.89906e-05 0)
(-0.000234212 3.94244e-05 0)
(-0.00023451 3.98463e-05 0)
(-0.000234818 4.0254e-05 0)
(-0.000235136 4.06447e-05 0)
(-0.000235466 4.10159e-05 0)
(-0.000235813 4.1367e-05 0)
(-0.00023618 4.16992e-05 0)
(-0.000236564 4.20138e-05 0)
(-0.000236962 4.23111e-05 0)
(-0.000237379 4.25917e-05 0)
(-0.000237839 4.28578e-05 0)
(-0.000238365 4.31106e-05 0)
(-0.000238917 4.33387e-05 0)
(-0.000239403 4.34993e-05 0)
(-0.000240014 4.35865e-05 0)
(-0.000240878 4.35969e-05 0)
(-0.000241996 4.50012e-05 0)
(-0.000243443 2.47527e-05 0)
(-0.000243934 0.000126022 0)
(0.000409574 -0.000255035 0)
(0.0495938 -0.00268599 0)
(0.119997 -0.00236205 0)
(0.183486 -0.00214997 0)
(0.241726 -0.00196488 0)
(0.296082 -0.00181115 0)
(0.347409 -0.00167133 0)
(0.396318 -0.00153912 0)
(0.443277 -0.00141122 0)
(0.488653 -0.00128593 0)
(0.532741 -0.00116283 0)
(0.575781 -0.00104236 0)
(0.617965 -0.000925475 0)
(0.659451 -0.000813187 0)
(0.70037 -0.000706407 0)
(0.740825 -0.00060583 0)
(0.780898 -0.000511922 0)
(0.820644 -0.000424809 0)
(0.860095 -0.000343621 0)
(0.899237 -0.000266087 0)
(0.937989 -0.000190729 0)
(0.976134 -0.000121162 0)
(1.01333 -6.51832e-05 0)
(1.04506 -2.95787e-05 0)
(1.05811 -1.53245e-05 0)
(1.06308 -7.93077e-06 0)
(1.06693 -5.02728e-06 0)
(1.07031 -2.87093e-06 0)
(1.07332 -2.50677e-06 0)
(1.07603 -1.4931e-06 0)
(1.07849 -1.59422e-06 0)
(1.08072 -9.03682e-07 0)
(1.08275 -1.12485e-06 0)
(1.08461 -5.80421e-07 0)
(1.08631 -8.38328e-07 0)
(1.08786 -3.824e-07 0)
(1.08929 -6.47119e-07 0)
(1.0906 -2.53435e-07 0)
(1.0918 -5.11638e-07 0)
(1.0929 -1.68237e-07 0)
(1.09392 -4.13783e-07 0)
(1.09485 -1.06021e-07 0)
(1.09571 -3.39708e-07 0)
(1.0965 -6.54837e-08 0)
(1.09723 -2.81989e-07 0)
(1.0979 -3.49227e-08 0)
(1.09851 -2.35656e-07 0)
(1.09908 -1.43231e-08 0)
(1.09961 -2.00832e-07 0)
(1.10009 1.31518e-09 0)
(1.10054 -1.70924e-07 0)
(1.10095 1.39371e-08 0)
(1.10132 -1.49028e-07 0)
(1.10167 2.16328e-08 0)
(1.102 -1.3399e-07 0)
(1.1023 3.51246e-08 0)
(1.10259 -1.22858e-07 0)
(1.10286 4.59178e-08 0)
(1.10311 -1.17801e-07 0)
(1.10334 5.52705e-08 0)
(1.10356 -1.1116e-07 0)
(1.10376 6.41351e-08 0)
(1.10395 -1.08025e-07 0)
(1.10412 6.99308e-08 0)
(1.10428 -1.0395e-07 0)
(1.10443 7.53655e-08 0)
(1.10456 -1.01905e-07 0)
(1.10469 7.93475e-08 0)
(1.1048 -9.90565e-08 0)
(1.10491 8.24335e-08 0)
(1.105 -9.78055e-08 0)
(1.10509 8.47925e-08 0)
(1.10517 -9.5923e-08 0)
(1.10524 8.66518e-08 0)
(1.1053 -9.50696e-08 0)
(1.10536 8.81919e-08 0)
(1.10541 -9.42673e-08 0)
(1.10546 8.93009e-08 0)
(1.1055 -9.3761e-08 0)
(1.10554 9.04511e-08 0)
(1.10557 -9.37539e-08 0)
(1.1056 9.14908e-08 0)
(1.10563 -9.3896e-08 0)
(1.10565 9.2533e-08 0)
(1.10567 -9.43987e-08 0)
(1.10569 9.37273e-08 0)
(1.10571 -9.51881e-08 0)
(1.10572 9.48942e-08 0)
(1.10573 -9.58674e-08 0)
(1.10574 9.56497e-08 0)
(1.10575 -9.62167e-08 0)
(1.10576 9.59755e-08 0)
(1.10577 -9.62935e-08 0)
(1.10577 9.59526e-08 0)
(1.10578 -9.61942e-08 0)
(1.10578 9.6276e-08 0)
(1.10578 -9.60533e-08 0)
(1.10579 9.58055e-08 0)
(1.10579 -9.55092e-08 0)
(1.10579 9.51959e-08 0)
(1.10579 -9.48469e-08 0)
(1.1058 9.44906e-08 0)
(1.1058 -9.41096e-08 0)
(1.1058 9.37296e-08 0)
(1.1058 -9.33343e-08 0)
(1.1058 9.29469e-08 0)
(1.1058 -9.25522e-08 0)
(1.1058 9.21707e-08 0)
(1.1058 -9.17884e-08 0)
(1.1058 9.14233e-08 0)
(1.1058 -9.10625e-08 0)
(1.1058 9.07218e-08 0)
(1.1058 -9.03892e-08 0)
(1.1058 9.00783e-08 0)
(1.1058 -8.97784e-08 0)
(1.1058 8.95009e-08 0)
(1.1058 -8.92363e-08 0)
(1.1058 8.89941e-08 0)
(1.1058 -8.87659e-08 0)
(1.1058 8.85596e-08 0)
(1.1058 -8.83676e-08 0)
(1.1058 8.81968e-08 0)
(1.1058 -8.804e-08 0)
(1.1058 8.79035e-08 0)
(1.1058 -8.77805e-08 0)
(1.1058 8.76763e-08 0)
(1.1058 -8.75851e-08 0)
(1.1058 8.75114e-08 0)
(1.1058 -8.74498e-08 0)
(1.1058 8.74044e-08 0)
(1.1058 -8.73703e-08 0)
(1.1058 8.73511e-08 0)
(1.1058 -8.73425e-08 0)
(1.1058 8.73476e-08 0)
(1.1058 -8.73628e-08 0)
(1.1058 8.73907e-08 0)
(1.1058 -8.74281e-08 0)
(1.1058 8.74774e-08 0)
(1.1058 -8.75361e-08 0)
(1.1058 8.76062e-08 0)
(1.1058 -8.76855e-08 0)
(1.1058 8.77758e-08 0)
(1.1058 -8.78756e-08 0)
(1.1058 8.79864e-08 0)
(1.1058 -8.81071e-08 0)
(1.1058 8.8239e-08 0)
(1.1058 -8.83814e-08 0)
(1.1058 8.85354e-08 0)
(1.1058 -8.87008e-08 0)
(1.1058 8.88787e-08 0)
(1.1058 -8.90691e-08 0)
(1.1058 8.92727e-08 0)
(1.1058 -8.94903e-08 0)
(1.1058 8.97225e-08 0)
(1.1058 -8.997e-08 0)
(1.1058 9.02337e-08 0)
(1.1058 -9.05144e-08 0)
(1.1058 9.08131e-08 0)
(1.1058 -9.11306e-08 0)
(1.1058 9.1468e-08 0)
(1.1058 -9.18264e-08 0)
(1.1058 9.22069e-08 0)
(1.1058 -9.26106e-08 0)
(1.1058 8.1535e-08 0)
(1.1058 -8.01153e-08 0)
(1.1058 7.87138e-08 0)
(1.1058 -7.73309e-08 0)
(1.1058 7.59676e-08 0)
(1.1058 -7.46244e-08 0)
(1.1058 7.33022e-08 0)
(1.1058 -7.20013e-08 0)
(1.1058 7.07227e-08 0)
(1.1058 -6.94667e-08 0)
(1.1058 6.82344e-08 0)
(1.1058 -6.70257e-08 0)
(1.1058 6.5842e-08 0)
(1.1058 -6.46829e-08 0)
(1.1058 6.35499e-08 0)
(1.1058 -6.24426e-08 0)
(1.1058 6.13625e-08 0)
(1.1058 -6.03088e-08 0)
(1.1058 5.92836e-08 0)
(1.1058 -5.82851e-08 0)
(1.1058 5.7317e-08 0)
(1.1058 -5.63751e-08 0)
(1.1058 5.54658e-08 0)
(1.1058 -5.45821e-08 0)
(1.1058 5.37331e-08 0)
(1.1058 -5.29089e-08 0)
(1.1058 5.21217e-08 0)
(1.1058 -5.13584e-08 0)
(1.1058 5.06343e-08 0)
(1.1058 -4.9933e-08 0)
(1.1058 4.92732e-08 0)
(1.1058 -4.86351e-08 0)
(1.1058 4.80408e-08 0)
(1.1058 -4.74669e-08 0)
(1.1058 4.69394e-08 0)
(1.1058 -4.64271e-08 0)
(1.1058 4.59477e-08 0)
(1.1058 -4.54678e-08 0)
(1.1058 4.50252e-08 0)
(1.1058 -4.45806e-08 0)
(1.1058 4.4178e-08 0)
(1.1058 -4.3773e-08 0)
(1.1058 4.34146e-08 0)
(1.1058 -4.30538e-08 0)
(1.1058 4.27454e-08 0)
(1.1058 -4.24368e-08 0)
(1.1058 4.21872e-08 0)
(1.1058 -4.1945e-08 0)
(1.1058 4.17707e-08 0)
(1.1058 -4.16293e-08 0)
)
;

boundaryField
{
    inandouthalf11
    {
        type            cyclic;
    }
    inandouthalf12
    {
        type            cyclic;
    }
    inandouthalf21
    {
        type            cyclic;
    }
    inandouthalf22
    {
        type            cyclic;
    }
    inandouthalf31
    {
        type            cyclic;
    }
    inandouthalf32
    {
        type            cyclic;
    }
    inandouthalf41
    {
        type            cyclic;
    }
    inandouthalf42
    {
        type            cyclic;
    }
    top
    {
        type            symmetryPlane;
    }
    walls
    {
        type            fixedValue;
        value           uniform (0 0 0);
    }
    frontAndBackPlanes
    {
        type            empty;
    }
}


// ************************************************************************* //
