/*--------------------------------*- C++ -*----------------------------------*\
| =========                 |                                                 |
| \\      /  F ield         | OpenFOAM: The Open Source CFD Toolbox           |
|  \\    /   O peration     | Version:  2.4.x                                 |
|   \\  /    A nd           | Web:      www.OpenFOAM.org                      |
|    \\/     M anipulation  |                                                 |
\*---------------------------------------------------------------------------*/
FoamFile
{
    version     2.0;
    format      ascii;
    class       volScalarField;
    location    "1.75";
    object      alpha;
}
// * * * * * * * * * * * * * * * * * * * * * * * * * * * * * * * * * * * * * //

dimensions      [0 0 0 0 0 0 0];

internalField   nonuniform List<scalar> 
360
(
0.609996
0.609996
0.609995
0.609995
0.609995
0.609994
0.609994
0.609993
0.609993
0.609992
0.609991
0.609991
0.60999
0.609989
0.609988
0.609987
0.609986
0.609985
0.609984
0.609982
0.609981
0.609979
0.609977
0.609975
0.609973
0.609971
0.609969
0.609966
0.609963
0.60996
0.609957
0.609953
0.60995
0.609945
0.609941
0.609936
0.609931
0.609925
0.609918
0.609912
0.609904
0.609896
0.609888
0.609878
0.609868
0.609857
0.609845
0.609833
0.609819
0.609803
0.609787
0.609769
0.60975
0.609729
0.609707
0.609682
0.609656
0.609627
0.609596
0.609563
0.609526
0.609487
0.609444
0.609398
0.609348
0.609294
0.609235
0.609171
0.609102
0.609028
0.608947
0.608859
0.608766
0.608673
0.608612
0.608604
0.608627
0.608638
0.608618
0.608575
0.608517
0.608452
0.608386
0.608322
0.608261
0.608203
0.608148
0.608092
0.608034
0.607974
0.607913
0.607849
0.607784
0.607719
0.607653
0.607585
0.607517
0.607447
0.607376
0.607303
0.607229
0.607153
0.607075
0.606996
0.606915
0.606832
0.606747
0.60666
0.606571
0.606479
0.606385
0.606288
0.606189
0.606087
0.605982
0.605874
0.605763
0.605648
0.60553
0.605409
0.605283
0.605154
0.60502
0.604882
0.604739
0.604592
0.60444
0.604285
0.604125
0.603961
0.603791
0.60361
0.603411
0.603191
0.602956
0.602727
0.602528
0.602351
0.602163
0.601944
0.601712
0.601515
0.601233
0.600809
0.600258
0.599548
0.59863
0.59693
0.590599
0.460327
0.25087
0.116651
0.0671176
0.0397202
0.0211938
0.00965182
0.00372089
0.00129816
0.000549343
0.000324285
0.000237171
0.000181168
0.000149061
0.000119182
0.000103697
8.62009e-05
7.38163e-05
6.55867e-05
5.54333e-05
5.01798e-05
4.29645e-05
3.93333e-05
3.3702e-05
3.09368e-05
2.69932e-05
2.50088e-05
2.15769e-05
1.98779e-05
1.79049e-05
1.59119e-05
1.47171e-05
1.2946e-05
1.20952e-05
1.06316e-05
9.9058e-06
8.77768e-06
8.2372e-06
7.2452e-06
6.67929e-06
6.17286e-06
5.48724e-06
5.12958e-06
4.53455e-06
4.26109e-06
3.82021e-06
3.59979e-06
3.17178e-06
2.91796e-06
2.63054e-06
2.49782e-06
2.26658e-06
2.08962e-06
1.85807e-06
1.64152e-06
1.54696e-06
1.43207e-06
1.32434e-06
1.13266e-06
1.00517e-06
9.39045e-07
8.75324e-07
7.57101e-07
6.60443e-07
6.16544e-07
5.66586e-07
4.77157e-07
4.13649e-07
3.85775e-07
3.53401e-07
2.97711e-07
2.53917e-07
2.33221e-07
2.05732e-07
1.70925e-07
1.55448e-07
1.38246e-07
1.10944e-07
9.79729e-08
8.86257e-08
7.24852e-08
6.15457e-08
5.48024e-08
4.46933e-08
3.96465e-08
3.13039e-08
2.74735e-08
2.2132e-08
1.95837e-08
1.51097e-08
1.29293e-08
1.13859e-08
1.08783e-08
1.07076e-08
1.07625e-08
1.06055e-08
1.28481e-09
3.50346e-10
2.91976e-10
2.37747e-10
1.78791e-10
1.55173e-10
1.23225e-10
9.88009e-11
7.87357e-11
5.60374e-11
4.79008e-11
4.00997e-11
2.7543e-11
2.07929e-11
1.76444e-11
1.34688e-11
9.03336e-12
7.29042e-12
5.98404e-12
3.93881e-12
2.90343e-12
2.38549e-12
1.68223e-12
1.16636e-12
9.09923e-13
6.07735e-13
4.71401e-13
3.00438e-13
2.26515e-13
1.49259e-13
1.13999e-13
6.75073e-14
4.85477e-14
3.50149e-14
2.14178e-14
1.54682e-14
9.54836e-15
6.94138e-15
4.03377e-15
2.7564e-15
1.63444e-15
1.16524e-15
6.34661e-16
3.92003e-16
2.53669e-16
1.43088e-16
9.59142e-17
5.31274e-17
3.32325e-17
1.64248e-17
9.21637e-18
3.24836e-18
1.19801e-18
4.42868e-19
1.53103e-19
4.9286e-20
1.46531e-20
3.96244e-21
9.60444e-22
2.04634e-22
3.73754e-23
5.6498e-24
6.70002e-25
5.65683e-26
2.64417e-27
6.37297e-29
2.31036e-30
4.12974e-32
4.15968e-43
2.08646e-54
7.37992e-66
1.95189e-77
4.34341e-89
2.1121e-100
1.67464e-111
4.62128e-119
6.66171e-130
1.58892e-137
2.27409e-148
5.4654e-156
9.49992e-167
1.87927e-174
4.25544e-185
6.46457e-193
2.99135e-203
2.2327e-211
2.03053e-221
7.75839e-230
1.04746e-239
2.71347e-248
4.97972e-258
9.56568e-267
2.20412e-276
3.39735e-285
9.40115e-295
1.21674e-303
3.87499e-313
1.0573e-321
8.5424e-321
0
0
0
0
0
0
0
0
0
0
0
0
0
0
0
0
)
;

boundaryField
{
    inandouthalf11
    {
        type            cyclic;
    }
    inandouthalf12
    {
        type            cyclic;
    }
    inandouthalf21
    {
        type            cyclic;
    }
    inandouthalf22
    {
        type            cyclic;
    }
    inandouthalf31
    {
        type            cyclic;
    }
    inandouthalf32
    {
        type            cyclic;
    }
    inandouthalf41
    {
        type            cyclic;
    }
    inandouthalf42
    {
        type            cyclic;
    }
    top
    {
        type            symmetryPlane;
    }
    walls
    {
        type            zeroGradient;
    }
    frontAndBackPlanes
    {
        type            empty;
    }
}


// ************************************************************************* //
