/*--------------------------------*- C++ -*----------------------------------*\
| =========                 |                                                 |
| \\      /  F ield         | OpenFOAM: The Open Source CFD Toolbox           |
|  \\    /   O peration     | Version:  2.4.x                                 |
|   \\  /    A nd           | Web:      www.OpenFOAM.org                      |
|    \\/     M anipulation  |                                                 |
\*---------------------------------------------------------------------------*/
FoamFile
{
    version     2.0;
    format      ascii;
    class       volVectorField;
    location    "1.75";
    object      gradPs;
}
// * * * * * * * * * * * * * * * * * * * * * * * * * * * * * * * * * * * * * //

dimensions      [0 1 -2 0 0 0 0];

internalField   nonuniform List<vector> 
360
(
(0 2.80671e-26 0)
(0 -1.7684e-21 0)
(0 -1.76843e-21 0)
(0 7.5743e-29 0)
(-1.45436e-32 -1.76841e-21 0)
(-2.90872e-32 -1.76841e-21 0)
(-1.45436e-32 -1.76839e-21 0)
(0 -1.76839e-21 0)
(-1.45436e-32 -1.76837e-21 0)
(0 -3.53673e-21 0)
(-1.45437e-32 -1.76836e-21 0)
(0 -1.76834e-21 0)
(-2.90874e-32 -3.53666e-21 0)
(0 -3.53663e-21 0)
(0 -3.53659e-21 0)
(0 -3.53656e-21 0)
(0 -3.53652e-21 0)
(-1.45438e-32 -3.53649e-21 0)
(0 -5.30465e-21 0)
(0 -5.30461e-21 0)
(0 -5.30449e-21 0)
(-2.90879e-32 -7.07256e-21 0)
(0 -7.07242e-21 0)
(0 -7.07228e-21 0)
(0 -7.07214e-21 0)
(-1.45442e-32 -7.072e-21 0)
(0 -8.83977e-21 0)
(0 -1.06075e-20 0)
(0 -1.06072e-20 0)
(0 -1.06068e-20 0)
(0 -1.23742e-20 0)
(0 -1.23739e-20 0)
(0 -1.41409e-20 0)
(0 -1.5908e-20 0)
(0 -1.59072e-20 0)
(1.4545e-32 -1.76739e-20 0)
(0 -1.94402e-20 0)
(0 -2.29734e-20 0)
(0 -2.29721e-20 0)
(0 -2.47373e-20 0)
(0 -2.82692e-20 0)
(0 -2.8267e-20 0)
(2.90923e-32 -3.17975e-20 0)
(0 -3.53275e-20 0)
(0 -3.709e-20 0)
(0 -4.06179e-20 0)
(0 -4.23791e-20 0)
(0 -4.59048e-20 0)
(0 -5.29597e-20 0)
(0 -5.64821e-20 0)
(1.45485e-32 -6.0002e-20 0)
(0 -6.52851e-20 0)
(0 -7.05648e-20 0)
(0 -7.58418e-20 0)
(0 -8.28779e-20 0)
(0 -8.99102e-20 0)
(0 -9.69359e-20 0)
(0 -1.05719e-19 0)
(0 -1.12732e-19 0)
(0 -1.23259e-19 0)
(0 -1.33777e-19 0)
(0 -1.44281e-19 0)
(0 -1.56532e-19 0)
(0 -1.68766e-19 0)
(0 -1.82739e-19 0)
(0 -1.98446e-19 0)
(0 -2.15882e-19 0)
(0 -2.33286e-19 0)
(0 -2.50656e-19 0)
(0 -2.71488e-19 0)
(0 -2.95773e-19 0)
(0 -2.97683e-19 0)
(0 8.26629e-19 0)
(0 9.81355e-18 0)
(0 2.36561e-17 0)
(0 1.37168e-17 0)
(0 -1.16875e-17 0)
(0 -1.71617e-17 0)
(0 -9.24158e-18 0)
(0 -3.56789e-18 0)
(0 -9.42307e-19 0)
(0 4.48723e-19 0)
(0 1.35535e-18 0)
(0 1.84685e-18 0)
(0 1.81311e-18 0)
(0 1.31948e-18 0)
(0 6.75201e-19 0)
(0 2.08507e-19 0)
(0 5.38159e-20 0)
(0 1.53197e-19 0)
(0 3.76301e-19 0)
(0 6.11011e-19 0)
(0 7.89974e-19 0)
(0 8.88842e-19 0)
(0 9.16816e-19 0)
(0 8.99573e-19 0)
(0 8.60774e-19 0)
(0 8.12424e-19 0)
(0 7.51568e-19 0)
(0 -1.86685e-16 0)
(0 -1.87067e-16 0)
(0 0 0)
(0 0 0)
(0 0 0)
(0 0 0)
(0 0 0)
(0 0 0)
(0 0 0)
(0 0 0)
(0 0 0)
(0 0 0)
(0 0 0)
(0 0 0)
(0 0 0)
(0 1.88903e-16 0)
(0 1.88995e-16 0)
(0 1.60689e-19 0)
(0 2.69668e-19 0)
(0 4.22662e-19 0)
(0 6.29075e-19 0)
(0 8.94693e-19 0)
(0 1.21606e-18 0)
(0 1.57407e-18 0)
(0 1.93203e-18 0)
(0 2.24931e-18 0)
(0 2.5263e-18 0)
(0 2.88961e-18 0)
(0 3.704e-18 0)
(0 5.68727e-18 0)
(0 1.0045e-17 0)
(0 1.85898e-17 0)
(0 3.2778e-17 0)
(0 4.6726e-17 0)
(0 3.31559e-17 0)
(0 -2.76468e-17 0)
(0 -7.90908e-17 0)
(0 -6.67169e-17 0)
(0 -2.90024e-17 0)
(0 -8.22598e-18 0)
(0 -2.20661e-18 0)
(0 -9.10066e-19 0)
(0 9.74709e-16 0)
(0 2.90182e-11 0)
(0 5.08443e-07 0)
(0 0.00060284 0)
(0 0.0676752 0)
(0 1.16976 0)
(0 4.49245 0)
(0 2.75893 0)
(0 -3.20503 0)
(0 -6.53092 0)
(0 -7.41992 0)
(0 -7.41003 0)
(0 -7.36919 0)
(0 -7.44654 0)
(0 -7.76826 0)
(0 -8.46692 0)
(0 -8.75183 0)
(0 -6.2563 0)
(0 -3.37556 0)
(0 -2.11379 0)
(0 -1.70044 0)
(0 -1.44964 0)
(0 -1.31458 0)
(0 -1.09052 0)
(0 -1.16516 0)
(0 -0.927169 0)
(0 -0.91182 0)
(0 -0.881029 0)
(0 -0.772801 0)
(0 -0.760956 0)
(0 -0.693448 0)
(0 -0.70546 0)
(0 -0.600195 0)
(0 -0.584349 0)
(0 -0.559034 0)
(0 -0.582671 0)
(0 -0.442744 0)
(0 -0.504098 0)
(0 -0.436499 0)
(0 -0.422095 0)
(0 -0.40064 0)
(0 -0.36509 0)
(0 -0.367529 0)
(0 -0.321488 0)
(0 -0.305723 0)
(0 -0.286942 0)
(0 -0.305448 0)
(0 -0.219616 0)
(0 -0.247463 0)
(0 -0.225769 0)
(0 -0.209615 0)
(0 -0.198222 0)
(0 -0.16614 0)
(0 -0.158088 0)
(0 -0.155754 0)
(0 -0.167044 0)
(0 -0.135422 0)
(0 -0.108351 0)
(0 -0.0947054 0)
(0 -0.105784 0)
(0 -0.104382 0)
(-4.93873e-17 -0.11274 0)
(0 -0.079465 0)
(0 -0.0538103 0)
(2.41154e-17 -0.0557545 0)
(0 -0.0712152 0)
(-2.37885e-17 -0.074808 0)
(0 -0.0460946 0)
(2.32559e-17 -0.0312603 0)
(0 -0.0408983 0)
(0 -0.0467184 0)
(0 -0.030906 0)
(1.10558e-17 -0.0208133 0)
(0 -0.0285069 0)
(0 -0.0302624 0)
(0 -0.0183929 0)
(0 -0.0122826 0)
(0 -0.0163707 0)
(-5.05178e-18 -0.017666 0)
(0 -0.0115464 0)
(0 -0.00852837 0)
(0 -0.0101814 0)
(-2.35987e-18 -0.00811791 0)
(0 -0.00532173 0)
(0 -0.00653855 0)
(0 -0.00573635 0)
(0 -0.00329226 0)
(1.07585e-18 -0.00342919 0)
(1.05614e-18 -0.00341722 0)
(0 -0.00225255 0)
(0 -0.00200222 0)
(0 -0.00173157 0)
(0 -0.00142833 0)
(0 -0.00123789 0)
(0 -0.000897576 0)
(0 -0.000743052 0)
(0 -0.000603336 0)
(0 -0.000528511 0)
(0 -0.000323998 0)
(0 -0.000226697 0)
(0 -0.000168555 0)
(0 -0.000165445 0)
(0 -0.000275535 0)
(0 -0.000190118 0)
(0 0 0)
(0 0 0)
(0 0 0)
(0 0 0)
(0 0 0)
(0 0 0)
(0 0 0)
(0 0 0)
(0 0 0)
(0 0 0)
(0 0 0)
(0 0 0)
(0 0 0)
(0 0 0)
(0 0 0)
(0 0 0)
(0 0 0)
(0 0 0)
(0 0 0)
(0 0 0)
(0 0 0)
(0 0 0)
(0 0 0)
(0 0 0)
(0 0 0)
(0 0 0)
(0 0 0)
(0 0 0)
(0 0 0)
(0 0 0)
(0 0 0)
(0 0 0)
(0 0 0)
(0 0 0)
(0 0 0)
(0 0 0)
(0 0 0)
(0 0 0)
(0 0 0)
(0 0 0)
(0 0 0)
(0 0 0)
(0 0 0)
(0 0 0)
(0 0 0)
(0 0 0)
(0 0 0)
(0 0 0)
(0 0 0)
(0 0 0)
(0 0 0)
(0 0 0)
(0 0 0)
(0 0 0)
(0 0 0)
(0 0 0)
(0 0 0)
(0 0 0)
(0 0 0)
(0 0 0)
(0 0 0)
(0 0 0)
(0 0 0)
(0 0 0)
(0 0 0)
(0 0 0)
(0 0 0)
(0 0 0)
(0 0 0)
(0 0 0)
(0 0 0)
(0 0 0)
(0 0 0)
(0 0 0)
(0 0 0)
(0 0 0)
(0 0 0)
(0 0 0)
(0 0 0)
(0 0 0)
(0 0 0)
(0 0 0)
(0 0 0)
(0 0 0)
(0 0 0)
(0 0 0)
(0 0 0)
(0 0 0)
(0 0 0)
(0 0 0)
(0 0 0)
(0 0 0)
(0 0 0)
(0 0 0)
(0 0 0)
(0 0 0)
(0 0 0)
(0 0 0)
(0 0 0)
(0 0 0)
(0 0 0)
(0 0 0)
(0 0 0)
(0 0 0)
(0 0 0)
(0 0 0)
(0 0 0)
(0 0 0)
(0 0 0)
(0 0 0)
(0 0 0)
(0 0 0)
(0 0 0)
(0 0 0)
(0 0 0)
)
;

boundaryField
{
    inandouthalf11
    {
        type            cyclic;
    }
    inandouthalf12
    {
        type            cyclic;
    }
    inandouthalf21
    {
        type            cyclic;
    }
    inandouthalf22
    {
        type            cyclic;
    }
    inandouthalf31
    {
        type            cyclic;
    }
    inandouthalf32
    {
        type            cyclic;
    }
    inandouthalf41
    {
        type            cyclic;
    }
    inandouthalf42
    {
        type            cyclic;
    }
    top
    {
        type            symmetryPlane;
    }
    walls
    {
        type            calculated;
        value           uniform (0 0 0);
    }
    frontAndBackPlanes
    {
        type            empty;
    }
}


// ************************************************************************* //
