/*--------------------------------*- C++ -*----------------------------------*\
| =========                 |                                                 |
| \\      /  F ield         | OpenFOAM: The Open Source CFD Toolbox           |
|  \\    /   O peration     | Version:  2.4.x                                 |
|   \\  /    A nd           | Web:      www.OpenFOAM.org                      |
|    \\/     M anipulation  |                                                 |
\*---------------------------------------------------------------------------*/
FoamFile
{
    version     2.0;
    format      ascii;
    class       volScalarField;
    location    "1.75";
    object      pa;
}
// * * * * * * * * * * * * * * * * * * * * * * * * * * * * * * * * * * * * * //

dimensions      [1 -1 -2 0 0 0 0];

internalField   nonuniform List<scalar> 
360
(
2.87809e-16
2.87809e-16
2.87806e-16
2.87806e-16
2.87806e-16
2.87803e-16
2.87803e-16
2.878e-16
2.878e-16
2.87797e-16
2.87795e-16
2.87795e-16
2.87792e-16
2.87789e-16
2.87786e-16
2.87783e-16
2.8778e-16
2.87777e-16
2.87775e-16
2.87769e-16
2.87766e-16
2.8776e-16
2.87755e-16
2.87749e-16
2.87743e-16
2.87737e-16
2.87732e-16
2.87723e-16
2.87715e-16
2.87706e-16
2.87697e-16
2.87686e-16
2.87677e-16
2.87663e-16
2.87652e-16
2.87637e-16
2.87623e-16
2.87606e-16
2.87586e-16
2.87569e-16
2.87546e-16
2.87523e-16
2.875e-16
2.87472e-16
2.87443e-16
2.87412e-16
2.87378e-16
2.87343e-16
2.87303e-16
2.87258e-16
2.87212e-16
2.87161e-16
2.87107e-16
2.87047e-16
2.86984e-16
2.86913e-16
2.86839e-16
2.86756e-16
2.86668e-16
2.86574e-16
2.86469e-16
2.86358e-16
2.86236e-16
2.86105e-16
2.85963e-16
2.8581e-16
2.85643e-16
2.85462e-16
2.85266e-16
2.85057e-16
2.84828e-16
2.8458e-16
2.84348e-16
2.85913e-16
3.00177e-16
3.24067e-16
3.223e-16
3.05216e-16
2.9462e-16
2.90311e-16
2.88866e-16
2.88791e-16
2.89589e-16
2.90977e-16
2.92566e-16
2.93899e-16
2.94693e-16
2.94987e-16
2.95029e-16
2.95074e-16
2.95276e-16
2.9568e-16
2.9626e-16
2.96953e-16
2.97692e-16
2.98429e-16
2.9914e-16
2.99815e-16
3.00448e-16
3.01024e-16
0
0
0
0
0
0
0
0
0
0
0
0
0
0
0
3.03355e-16
3.03448e-16
3.03613e-16
3.03881e-16
3.04292e-16
3.0489e-16
3.05727e-16
3.06841e-16
3.0825e-16
3.09938e-16
3.11855e-16
3.13985e-16
3.16484e-16
3.19917e-16
3.25589e-16
3.35994e-16
3.55334e-16
3.88425e-16
4.30052e-16
4.41425e-16
3.85876e-16
3.15097e-16
2.79347e-16
2.68801e-16
2.66221e-16
2.65281e-16
2.6477e-16
1.81901e-15
4.62348e-11
8.09528e-07
0.000958944
0.107525
1.85665
7.21409
6.17468
3.30429
1.83272
1.01041
0.514563
0.234544
0.0961409
0.0356468
0.0124296
0.00530744
0.00315617
0.00231718
0.00177163
0.00145574
0.0011606
0.00100572
0.000832023
0.000708686
0.000626087
0.000526044
0.000473318
0.000402801
0.000366513
0.000312144
0.000284814
0.000247033
0.000227529
0.00019517
0.000178772
0.000160115
0.000141495
0.000130142
0.000113847
0.00010578
9.24706e-05
8.56862e-05
7.5512e-05
7.04732e-05
6.16445e-05
5.65143e-05
5.19374e-05
4.59085e-05
4.26716e-05
3.75043e-05
3.50368e-05
3.12256e-05
2.92471e-05
2.56123e-05
2.34164e-05
2.09765e-05
1.97898e-05
1.78399e-05
1.6336e-05
1.44238e-05
1.26494e-05
1.18295e-05
1.08635e-05
9.96255e-06
8.44636e-06
7.42727e-06
6.87229e-06
6.34169e-06
5.42744e-06
4.68217e-06
4.32011e-06
3.92145e-06
3.2599e-06
2.78757e-06
2.56234e-06
2.31161e-06
1.916e-06
1.60626e-06
1.44859e-06
1.2532e-06
1.01977e-06
9.07061e-07
7.87729e-07
6.16228e-07
5.29418e-07
4.64887e-07
3.68171e-07
3.01837e-07
2.58658e-07
2.02241e-07
1.71237e-07
1.28369e-07
1.06284e-07
8.01395e-08
6.57207e-08
4.63968e-08
3.57069e-08
2.75995e-08
2.22995e-08
1.74117e-08
1.20883e-08
0
0
0
0
0
0
0
0
0
0
0
0
0
0
0
0
0
0
0
0
0
0
0
0
0
0
0
0
0
0
0
0
0
0
0
0
0
0
0
0
0
0
0
0
0
0
0
0
0
0
0
0
0
0
0
0
0
0
0
0
0
0
0
0
0
0
0
0
0
0
0
0
0
0
0
0
0
0
0
0
0
0
0
0
0
0
0
0
0
0
0
0
0
0
0
0
0
0
0
0
0
0
0
0
0
0
0
0
0
0
0
0
0
0
0
0
)
;

boundaryField
{
    inandouthalf11
    {
        type            cyclic;
    }
    inandouthalf12
    {
        type            cyclic;
    }
    inandouthalf21
    {
        type            cyclic;
    }
    inandouthalf22
    {
        type            cyclic;
    }
    inandouthalf31
    {
        type            cyclic;
    }
    inandouthalf32
    {
        type            cyclic;
    }
    inandouthalf41
    {
        type            cyclic;
    }
    inandouthalf42
    {
        type            cyclic;
    }
    top
    {
        type            symmetryPlane;
    }
    walls
    {
        type            calculated;
        value           uniform 2.87809e-16;
    }
    frontAndBackPlanes
    {
        type            empty;
    }
}


// ************************************************************************* //
