/*--------------------------------*- C++ -*----------------------------------*\
| =========                 |                                                 |
| \\      /  F ield         | OpenFOAM: The Open Source CFD Toolbox           |
|  \\    /   O peration     | Version:  2.4.x                                 |
|   \\  /    A nd           | Web:      www.OpenFOAM.org                      |
|    \\/     M anipulation  |                                                 |
\*---------------------------------------------------------------------------*/
FoamFile
{
    version     2.0;
    format      ascii;
    class       surfaceScalarField;
    location    "1.75";
    object      phib;
}
// * * * * * * * * * * * * * * * * * * * * * * * * * * * * * * * * * * * * * //

dimensions      [0 3 -1 0 0 0 0];

internalField   nonuniform List<scalar> 
359
(
7.89699e-19
1.5838e-18
2.37872e-18
3.17388e-18
3.97138e-18
4.76982e-18
5.56533e-18
6.36356e-18
7.15786e-18
7.95353e-18
8.7491e-18
9.54368e-18
1.03327e-17
1.11273e-17
1.19133e-17
1.27018e-17
1.34883e-17
1.42759e-17
1.5055e-17
1.58359e-17
1.6612e-17
1.73892e-17
1.81582e-17
1.89301e-17
1.9693e-17
2.04615e-17
2.12192e-17
2.19821e-17
2.27334e-17
2.34894e-17
2.42359e-17
2.49862e-17
2.57264e-17
2.64715e-17
2.72014e-17
2.79392e-17
2.86638e-17
2.93938e-17
3.01087e-17
3.08321e-17
3.15405e-17
3.22554e-17
3.29548e-17
3.36604e-17
3.43521e-17
3.50496e-17
3.57314e-17
3.64215e-17
3.70915e-17
3.77711e-17
3.84342e-17
3.91061e-17
3.97575e-17
4.04209e-17
4.10622e-17
4.17128e-17
4.23436e-17
4.29839e-17
4.3604e-17
4.42349e-17
4.4843e-17
4.54615e-17
4.60567e-17
4.66648e-17
4.72488e-17
4.78426e-17
4.84154e-17
4.89996e-17
4.95584e-17
5.0129e-17
5.06757e-17
5.12319e-17
2.30221e-13
1.99971e-12
7.21036e-12
1.52267e-11
2.30077e-11
2.88704e-11
3.30712e-11
3.63585e-11
3.93041e-11
4.22782e-11
4.5512e-11
4.91205e-11
5.31065e-11
5.73847e-11
6.18381e-11
6.63712e-11
7.09386e-11
7.55414e-11
8.02066e-11
8.49674e-11
8.98505e-11
9.48701e-11
1.00029e-10
1.05323e-10
1.10744e-10
1.16284e-10
1.21935e-10
1.27688e-10
1.33531e-10
1.39455e-10
1.45448e-10
1.51498e-10
1.57597e-10
1.63737e-10
1.69912e-10
1.76117e-10
1.82348e-10
1.88604e-10
1.9488e-10
2.01178e-10
2.07495e-10
2.13832e-10
2.20191e-10
2.26575e-10
2.32989e-10
2.39441e-10
2.4594e-10
2.52501e-10
2.59141e-10
2.65882e-10
2.72747e-10
2.79759e-10
2.86935e-10
2.94284e-10
3.01812e-10
3.09532e-10
3.17495e-10
3.25833e-10
3.34798e-10
3.44773e-10
3.56148e-10
3.68902e-10
3.81895e-10
3.92796e-10
3.99783e-10
4.03135e-10
4.04314e-10
4.04506e-10
4.04348e-10
4.04011e-10
4.03443e-10
4.0264e-10
4.01602e-10
4.01637e-10
4.13491e-10
5.60779e-10
8.24225e-10
-1.35024e-09
-2.0982e-09
-1.81073e-09
-1.33556e-09
-8.42869e-10
-4.39102e-10
-1.86585e-10
-6.39118e-11
-1.96786e-11
-7.56947e-12
-3.85998e-12
-2.22675e-12
-1.30757e-12
-7.46251e-13
-3.84915e-13
-1.52426e-13
5.14155e-15
1.09583e-13
1.77016e-13
2.20388e-13
2.46885e-13
2.6129e-13
2.66735e-13
2.65021e-13
2.61357e-13
2.54751e-13
2.44873e-13
2.32003e-13
2.23449e-13
2.10124e-13
1.99046e-13
1.87193e-13
1.75904e-13
1.65176e-13
1.54093e-13
1.4436e-13
1.35151e-13
1.26172e-13
1.16284e-13
1.09826e-13
1.01822e-13
9.46586e-14
8.78773e-14
8.15167e-14
7.62616e-14
7.12502e-14
6.61102e-14
6.04271e-14
5.59312e-14
5.24931e-14
4.9483e-14
4.5905e-14
4.21938e-14
3.79398e-14
3.50556e-14
3.32185e-14
3.116e-14
2.81659e-14
2.48496e-14
2.29181e-14
2.16878e-14
1.9789e-14
1.7427e-14
1.59206e-14
1.49598e-14
1.33883e-14
1.15929e-14
1.05563e-14
9.90466e-15
8.85529e-15
7.61633e-15
6.82906e-15
6.2505e-15
5.45041e-15
4.79872e-15
4.38937e-15
3.7889e-15
3.23204e-15
2.93809e-15
2.58405e-15
2.19076e-15
1.93846e-15
1.69158e-15
1.46301e-15
1.25778e-15
1.06489e-15
9.19651e-16
7.91115e-16
6.74248e-16
5.58628e-16
4.9588e-16
4.63234e-16
4.56491e-16
4.59704e-16
4.63177e-16
6.12285e-16
1.45028e-16
6.54136e-17
5.61823e-17
4.68234e-17
3.98973e-17
3.50761e-17
3.0215e-17
2.62299e-17
2.24192e-17
1.94767e-17
1.7759e-17
1.56459e-17
1.36402e-17
1.23342e-17
1.12699e-17
1.00789e-17
9.11894e-18
8.40454e-18
7.73746e-18
7.13921e-18
6.73089e-18
6.35388e-18
6.02527e-18
5.75319e-18
5.51231e-18
5.27892e-18
5.06544e-18
4.89346e-18
4.73001e-18
4.5648e-18
4.38219e-18
4.21349e-18
4.0234e-18
3.82922e-18
3.62266e-18
3.47081e-18
3.30901e-18
3.14907e-18
2.96486e-18
2.79563e-18
2.60266e-18
2.415e-18
2.19816e-18
2.00503e-18
1.79863e-18
1.59142e-18
1.37012e-18
1.16151e-18
9.45153e-19
7.40382e-19
5.49144e-19
4.08334e-19
3.51617e-19
3.10634e-19
3.53569e-19
3.24594e-19
2.96419e-19
2.71185e-19
2.472e-19
2.27107e-19
2.09029e-19
1.9299e-19
1.78016e-19
1.62001e-19
1.50771e-19
1.40443e-19
1.31603e-19
1.18444e-19
1.08459e-19
9.86463e-20
9.3751e-20
8.45594e-20
8.13739e-20
7.72032e-20
7.95036e-20
7.00878e-20
6.82101e-20
6.55044e-20
7.25752e-20
6.97214e-20
7.82273e-20
8.33624e-20
9.79357e-20
6.18392e-20
5.06127e-20
3.73431e-20
7.56713e-20
6.84575e-20
1.35192e-19
2.02226e-19
3.46641e-19
3.64295e-19
4.76831e-19
5.89786e-19
8.15752e-19
9.74937e-19
1.23233e-18
1.4981e-18
1.83098e-18
2.17811e-18
2.54285e-18
2.912e-18
3.263e-18
3.66247e-18
3.96613e-18
4.29545e-18
4.70905e-18
5.04318e-18
5.33823e-18
5.65639e-18
6.24133e-18
5.85128e-18
7.21583e-18
1.01727e-17
)
;

boundaryField
{
    inandouthalf11
    {
        type            cyclic;
        value           nonuniform List<scalar> 
100
(
5.58413e-11
5.59365e-11
5.5937e-11
5.5937e-11
5.5937e-11
5.59375e-11
5.59375e-11
5.59379e-11
5.59379e-11
5.59384e-11
5.59389e-11
5.59389e-11
5.59394e-11
5.59398e-11
5.59403e-11
5.59408e-11
5.59412e-11
5.59417e-11
5.59422e-11
5.59431e-11
5.59436e-11
5.59445e-11
5.59455e-11
5.59464e-11
5.59473e-11
5.59483e-11
5.59492e-11
5.59506e-11
5.5952e-11
5.59534e-11
5.59549e-11
5.59567e-11
5.59581e-11
5.59605e-11
5.59624e-11
5.59647e-11
5.59671e-11
5.59699e-11
5.59732e-11
5.5976e-11
5.59797e-11
5.59835e-11
5.59873e-11
5.5992e-11
5.59967e-11
5.60018e-11
5.60075e-11
5.60131e-11
5.60197e-11
5.60272e-11
5.60347e-11
5.60432e-11
5.60521e-11
5.6062e-11
5.60724e-11
5.60841e-11
5.60964e-11
5.611e-11
5.61246e-11
5.61402e-11
5.61576e-11
5.6176e-11
5.61963e-11
5.62179e-11
5.62415e-11
5.6267e-11
5.62949e-11
5.63251e-11
5.63577e-11
5.63927e-11
5.6431e-11
5.64727e-11
5.65169e-11
5.65507e-11
5.65125e-11
5.63523e-11
5.61333e-11
5.59505e-11
5.5828e-11
5.57477e-11
5.56882e-11
5.56342e-11
5.55751e-11
5.55036e-11
5.54167e-11
5.53152e-11
5.52028e-11
5.50836e-11
5.49604e-11
5.4834e-11
5.47038e-11
5.45681e-11
5.44255e-11
5.42748e-11
5.41152e-11
5.39465e-11
5.37687e-11
5.35817e-11
5.33856e-11
5.31804e-11
)
;
    }
    inandouthalf12
    {
        type            cyclic;
        value           nonuniform List<scalar> 
100
(
-5.58413e-11
-5.59365e-11
-5.5937e-11
-5.5937e-11
-5.5937e-11
-5.59375e-11
-5.59375e-11
-5.59379e-11
-5.59379e-11
-5.59384e-11
-5.59389e-11
-5.59389e-11
-5.59394e-11
-5.59398e-11
-5.59403e-11
-5.59408e-11
-5.59412e-11
-5.59417e-11
-5.59422e-11
-5.59431e-11
-5.59436e-11
-5.59445e-11
-5.59455e-11
-5.59464e-11
-5.59473e-11
-5.59483e-11
-5.59492e-11
-5.59506e-11
-5.5952e-11
-5.59534e-11
-5.59549e-11
-5.59567e-11
-5.59581e-11
-5.59605e-11
-5.59624e-11
-5.59647e-11
-5.59671e-11
-5.59699e-11
-5.59732e-11
-5.5976e-11
-5.59797e-11
-5.59835e-11
-5.59873e-11
-5.5992e-11
-5.59967e-11
-5.60018e-11
-5.60075e-11
-5.60131e-11
-5.60197e-11
-5.60272e-11
-5.60347e-11
-5.60432e-11
-5.60521e-11
-5.6062e-11
-5.60724e-11
-5.60841e-11
-5.60964e-11
-5.611e-11
-5.61246e-11
-5.61402e-11
-5.61576e-11
-5.6176e-11
-5.61963e-11
-5.62179e-11
-5.62415e-11
-5.6267e-11
-5.62949e-11
-5.63251e-11
-5.63577e-11
-5.63927e-11
-5.6431e-11
-5.64727e-11
-5.65169e-11
-5.65507e-11
-5.65125e-11
-5.63523e-11
-5.61333e-11
-5.59505e-11
-5.5828e-11
-5.57477e-11
-5.56882e-11
-5.56342e-11
-5.55751e-11
-5.55036e-11
-5.54167e-11
-5.53152e-11
-5.52028e-11
-5.50836e-11
-5.49604e-11
-5.4834e-11
-5.47038e-11
-5.45681e-11
-5.44255e-11
-5.42748e-11
-5.41152e-11
-5.39465e-11
-5.37687e-11
-5.35817e-11
-5.33856e-11
-5.31804e-11
)
;
    }
    inandouthalf21
    {
        type            cyclic;
        value           nonuniform List<scalar> 
100
(
5.29662e-11
5.27429e-11
5.25108e-11
5.22699e-11
5.20206e-11
5.17627e-11
5.14963e-11
5.12214e-11
5.09377e-11
5.0645e-11
5.03431e-11
5.00317e-11
4.97102e-11
4.93783e-11
4.90353e-11
4.86803e-11
4.83124e-11
4.79304e-11
4.75327e-11
4.71174e-11
4.66818e-11
4.6223e-11
4.57371e-11
4.52198e-11
4.46664e-11
4.40719e-11
4.34313e-11
4.27383e-11
4.19835e-11
4.11496e-11
4.02051e-11
3.90973e-11
3.77518e-11
3.60998e-11
3.41714e-11
3.22242e-11
3.06728e-11
2.97393e-11
2.93164e-11
2.91922e-11
2.92065e-11
2.92595e-11
2.93747e-11
2.95629e-11
2.97907e-11
2.82823e-11
-1.5505e-09
-3.15754e-08
-1.01804e-07
-1.99535e-07
-3.7449e-07
-6.12376e-07
-8.0632e-07
-9.52541e-07
-1.06246e-06
-1.14485e-06
-1.20551e-06
-1.24991e-06
-1.28396e-06
-1.31186e-06
-1.33516e-06
-1.35469e-06
-1.37083e-06
-1.38421e-06
-1.39515e-06
-1.40427e-06
-1.41189e-06
-1.41834e-06
-1.42394e-06
-1.42882e-06
-1.43316e-06
-1.43701e-06
-1.44051e-06
-1.44366e-06
-1.44653e-06
-1.44913e-06
-1.45152e-06
-1.4537e-06
-1.4557e-06
-1.45753e-06
-1.45921e-06
-1.46076e-06
-1.46218e-06
-1.4635e-06
-1.4647e-06
-1.46581e-06
-1.46683e-06
-1.46778e-06
-1.46865e-06
-1.46945e-06
-1.47019e-06
-1.47087e-06
-1.4715e-06
-1.47208e-06
-1.47261e-06
-1.47311e-06
-1.47356e-06
-1.47398e-06
-1.47437e-06
-1.47473e-06
)
;
    }
    inandouthalf22
    {
        type            cyclic;
        value           nonuniform List<scalar> 
100
(
-5.29662e-11
-5.27429e-11
-5.25108e-11
-5.22699e-11
-5.20206e-11
-5.17627e-11
-5.14963e-11
-5.12214e-11
-5.09377e-11
-5.0645e-11
-5.03431e-11
-5.00317e-11
-4.97102e-11
-4.93783e-11
-4.90353e-11
-4.86803e-11
-4.83124e-11
-4.79304e-11
-4.75327e-11
-4.71174e-11
-4.66818e-11
-4.6223e-11
-4.57371e-11
-4.52198e-11
-4.46664e-11
-4.40719e-11
-4.34313e-11
-4.27383e-11
-4.19835e-11
-4.11496e-11
-4.02051e-11
-3.90973e-11
-3.77518e-11
-3.60998e-11
-3.41714e-11
-3.22242e-11
-3.06728e-11
-2.97393e-11
-2.93164e-11
-2.91922e-11
-2.92065e-11
-2.92595e-11
-2.93747e-11
-2.95629e-11
-2.97907e-11
-2.82823e-11
1.5505e-09
3.15754e-08
1.01804e-07
1.99535e-07
3.7449e-07
6.12376e-07
8.0632e-07
9.52541e-07
1.06246e-06
1.14485e-06
1.20551e-06
1.24991e-06
1.28396e-06
1.31186e-06
1.33516e-06
1.35469e-06
1.37083e-06
1.38421e-06
1.39515e-06
1.40427e-06
1.41189e-06
1.41834e-06
1.42394e-06
1.42882e-06
1.43316e-06
1.43701e-06
1.44051e-06
1.44366e-06
1.44653e-06
1.44913e-06
1.45152e-06
1.4537e-06
1.4557e-06
1.45753e-06
1.45921e-06
1.46076e-06
1.46218e-06
1.4635e-06
1.4647e-06
1.46581e-06
1.46683e-06
1.46778e-06
1.46865e-06
1.46945e-06
1.47019e-06
1.47087e-06
1.4715e-06
1.47208e-06
1.47261e-06
1.47311e-06
1.47356e-06
1.47398e-06
1.47437e-06
1.47473e-06
)
;
    }
    inandouthalf31
    {
        type            cyclic;
        value           nonuniform List<scalar> 
110
(
-1.47506e-06
-1.50532e-06
-1.53617e-06
-1.56764e-06
-1.59974e-06
-1.63247e-06
-1.66586e-06
-1.69991e-06
-1.73464e-06
-1.77006e-06
-1.80619e-06
-1.84304e-06
-1.88063e-06
-1.91897e-06
-1.95808e-06
-1.99797e-06
-2.03867e-06
-2.08017e-06
-2.12252e-06
-2.16571e-06
-2.20977e-06
-2.25472e-06
-2.30057e-06
-2.34734e-06
-2.39506e-06
-2.44374e-06
-2.49341e-06
-2.54407e-06
-2.59576e-06
-2.64849e-06
-2.70229e-06
-2.75718e-06
-2.81317e-06
-2.8703e-06
-2.92859e-06
-2.98805e-06
-3.04872e-06
-3.11062e-06
-3.17378e-06
-3.23821e-06
-3.30395e-06
-3.37102e-06
-3.43945e-06
-3.50927e-06
-3.58051e-06
-3.65319e-06
-3.72734e-06
-3.803e-06
-3.8802e-06
-3.95896e-06
-4.03932e-06
-4.12131e-06
-4.20496e-06
-4.29031e-06
-4.37739e-06
-4.46624e-06
-4.5569e-06
-4.64939e-06
-4.74376e-06
-4.84005e-06
-4.93829e-06
-5.03852e-06
-5.14079e-06
-5.24514e-06
-5.3516e-06
-5.46022e-06
-5.57105e-06
-5.68413e-06
-5.7995e-06
-5.91721e-06
-6.03732e-06
-6.15986e-06
-6.28489e-06
-6.41245e-06
-6.54261e-06
-6.67541e-06
-6.8109e-06
-6.94914e-06
-7.09019e-06
-7.2341e-06
-7.38094e-06
-7.53075e-06
-7.68361e-06
-7.83956e-06
-7.99868e-06
-8.16104e-06
-8.32668e-06
-8.49569e-06
-8.66813e-06
-8.84407e-06
-9.02358e-06
-9.20674e-06
-9.39361e-06
-9.58428e-06
-9.77881e-06
-9.9773e-06
-1.01798e-05
-1.03864e-05
-1.05972e-05
-1.08123e-05
-1.10318e-05
-1.12557e-05
-1.14842e-05
-1.17173e-05
-1.19551e-05
-1.21978e-05
-1.24454e-05
-1.2698e-05
-1.29557e-05
-1.32187e-05
)
;
    }
    inandouthalf32
    {
        type            cyclic;
        value           nonuniform List<scalar> 
110
(
1.47506e-06
1.50532e-06
1.53617e-06
1.56764e-06
1.59974e-06
1.63247e-06
1.66586e-06
1.69991e-06
1.73464e-06
1.77006e-06
1.80619e-06
1.84304e-06
1.88063e-06
1.91897e-06
1.95808e-06
1.99797e-06
2.03867e-06
2.08017e-06
2.12252e-06
2.16571e-06
2.20977e-06
2.25472e-06
2.30057e-06
2.34734e-06
2.39506e-06
2.44374e-06
2.49341e-06
2.54407e-06
2.59576e-06
2.64849e-06
2.70229e-06
2.75718e-06
2.81317e-06
2.8703e-06
2.92859e-06
2.98805e-06
3.04872e-06
3.11062e-06
3.17378e-06
3.23821e-06
3.30395e-06
3.37102e-06
3.43945e-06
3.50927e-06
3.58051e-06
3.65319e-06
3.72734e-06
3.803e-06
3.8802e-06
3.95896e-06
4.03932e-06
4.12131e-06
4.20496e-06
4.29031e-06
4.37739e-06
4.46624e-06
4.5569e-06
4.64939e-06
4.74376e-06
4.84005e-06
4.93829e-06
5.03852e-06
5.14079e-06
5.24514e-06
5.3516e-06
5.46022e-06
5.57105e-06
5.68413e-06
5.7995e-06
5.91721e-06
6.03732e-06
6.15986e-06
6.28489e-06
6.41245e-06
6.54261e-06
6.67541e-06
6.8109e-06
6.94914e-06
7.09019e-06
7.2341e-06
7.38094e-06
7.53075e-06
7.68361e-06
7.83956e-06
7.99868e-06
8.16104e-06
8.32668e-06
8.49569e-06
8.66813e-06
8.84407e-06
9.02358e-06
9.20674e-06
9.39361e-06
9.58428e-06
9.77881e-06
9.9773e-06
1.01798e-05
1.03864e-05
1.05972e-05
1.08123e-05
1.10318e-05
1.12557e-05
1.14842e-05
1.17173e-05
1.19551e-05
1.21978e-05
1.24454e-05
1.2698e-05
1.29557e-05
1.32187e-05
)
;
    }
    inandouthalf41
    {
        type            cyclic;
        value           nonuniform List<scalar> 
50
(
-1.1832e-05
-1.1832e-05
-1.1832e-05
-1.1832e-05
-1.1832e-05
-1.1832e-05
-1.1832e-05
-1.1832e-05
-1.1832e-05
-1.1832e-05
-1.1832e-05
-1.1832e-05
-1.1832e-05
-1.1832e-05
-1.1832e-05
-1.1832e-05
-1.1832e-05
-1.1832e-05
-1.1832e-05
-1.1832e-05
-1.1832e-05
-1.1832e-05
-1.1832e-05
-1.1832e-05
-1.1832e-05
-1.1832e-05
-1.1832e-05
-1.1832e-05
-1.1832e-05
-1.1832e-05
-1.1832e-05
-1.1832e-05
-1.1832e-05
-1.1832e-05
-1.1832e-05
-1.1832e-05
-1.1832e-05
-1.1832e-05
-1.1832e-05
-1.1832e-05
-1.1832e-05
-1.1832e-05
-1.1832e-05
-1.1832e-05
-1.1832e-05
-1.1832e-05
-1.1832e-05
-1.1832e-05
-1.1832e-05
-1.1832e-05
)
;
    }
    inandouthalf42
    {
        type            cyclic;
        value           nonuniform List<scalar> 
50
(
1.1832e-05
1.1832e-05
1.1832e-05
1.1832e-05
1.1832e-05
1.1832e-05
1.1832e-05
1.1832e-05
1.1832e-05
1.1832e-05
1.1832e-05
1.1832e-05
1.1832e-05
1.1832e-05
1.1832e-05
1.1832e-05
1.1832e-05
1.1832e-05
1.1832e-05
1.1832e-05
1.1832e-05
1.1832e-05
1.1832e-05
1.1832e-05
1.1832e-05
1.1832e-05
1.1832e-05
1.1832e-05
1.1832e-05
1.1832e-05
1.1832e-05
1.1832e-05
1.1832e-05
1.1832e-05
1.1832e-05
1.1832e-05
1.1832e-05
1.1832e-05
1.1832e-05
1.1832e-05
1.1832e-05
1.1832e-05
1.1832e-05
1.1832e-05
1.1832e-05
1.1832e-05
1.1832e-05
1.1832e-05
1.1832e-05
1.1832e-05
)
;
    }
    top
    {
        type            symmetryPlane;
        value           uniform 0;
    }
    walls
    {
        type            fixedValue;
        value           uniform 0;
    }
    frontAndBackPlanes
    {
        type            empty;
        value           nonuniform 0();
    }
}


// ************************************************************************* //
