/*--------------------------------*- C++ -*----------------------------------*\
| =========                 |                                                 |
| \\      /  F ield         | OpenFOAM: The Open Source CFD Toolbox           |
|  \\    /   O peration     | Version:  2.4.x                                 |
|   \\  /    A nd           | Web:      www.OpenFOAM.org                      |
|    \\/     M anipulation  |                                                 |
\*---------------------------------------------------------------------------*/
FoamFile
{
    version     2.0;
    format      ascii;
    class       volTensorField;
    location    "1.75";
    object      Tauf;
}
// * * * * * * * * * * * * * * * * * * * * * * * * * * * * * * * * * * * * * //

dimensions      [0 2 -2 0 0 0 0];

internalField   nonuniform List<tensor> 
360
(
(0 -1.11778e-07 0 -1.11778e-07 7.90828e-16 0 0 0 0)
(0 -9.56811e-11 0 -9.56811e-11 7.93196e-16 0 0 0 0)
(0 -5.50232e-13 0 -5.50232e-13 7.94759e-16 0 0 0 0)
(0 -8.6828e-16 0 -8.6828e-16 7.95676e-16 0 0 0 0)
(1.29247e-23 -4.69135e-13 0 -4.69135e-13 7.97154e-16 0 0 0 0)
(1.29247e-23 -4.69534e-13 0 -4.69534e-13 7.97474e-16 0 0 0 0)
(6.46235e-24 -4.69537e-13 0 -4.69537e-13 7.96925e-16 0 0 0 0)
(0 -4.69538e-13 0 -4.69538e-13 7.96566e-16 0 0 0 0)
(1.29247e-23 -4.6994e-13 0 -4.6994e-13 7.95619e-16 0 0 0 0)
(0 -9.38286e-13 0 -9.38286e-13 7.95318e-16 0 0 0 0)
(1.29247e-23 -4.69944e-13 0 -4.69944e-13 7.95339e-16 0 0 0 0)
(0 -4.69948e-13 0 -4.69948e-13 7.93437e-16 0 0 0 0)
(1.29247e-23 -9.387e-13 0 -9.387e-13 7.91832e-16 0 0 0 0)
(0 -9.39106e-13 0 -9.39106e-13 7.91062e-16 0 0 0 0)
(0 -9.39113e-13 0 -9.39113e-13 7.88772e-16 0 0 0 0)
(0 -9.3912e-13 0 -9.3912e-13 7.87358e-16 0 0 0 0)
(0 -9.39128e-13 0 -9.39128e-13 7.87261e-16 0 0 0 0)
(1.29247e-23 -9.39534e-13 0 -9.39534e-13 7.85196e-16 0 0 0 0)
(0 -1.40832e-12 0 -1.40832e-12 7.81693e-16 0 0 0 0)
(0 -1.40873e-12 0 -1.40873e-12 7.79251e-16 0 0 0 0)
(0 -1.40915e-12 0 -1.40915e-12 7.77568e-16 0 0 0 0)
(6.46235e-24 -1.87795e-12 0 -1.87795e-12 7.74896e-16 0 0 0 0)
(0 -1.87838e-12 0 -1.87838e-12 7.71759e-16 0 0 0 0)
(0 -1.87841e-12 0 -1.87841e-12 7.68904e-16 0 0 0 0)
(0 -1.87844e-12 0 -1.87844e-12 7.66567e-16 0 0 0 0)
(1.29247e-23 -1.87887e-12 0 -1.87887e-12 7.64391e-16 0 0 0 0)
(0 -2.34813e-12 0 -2.34813e-12 7.61687e-16 0 0 0 0)
(0 -2.8174e-12 0 -2.8174e-12 7.58713e-16 0 0 0 0)
(0 -2.81787e-12 0 -2.81787e-12 7.55367e-16 0 0 0 0)
(0 -2.81833e-12 0 -2.81833e-12 7.52418e-16 0 0 0 0)
(0 -3.28727e-12 0 -3.28727e-12 7.49856e-16 0 0 0 0)
(0 -3.28814e-12 0 -3.28814e-12 7.46807e-16 0 0 0 0)
(0 -3.75755e-12 0 -3.75755e-12 7.43944e-16 0 0 0 0)
(0 -4.22695e-12 0 -4.22695e-12 7.40076e-16 0 0 0 0)
(0 -4.22791e-12 0 -4.22791e-12 7.35647e-16 0 0 0 0)
(-1.29247e-23 -4.69739e-12 0 -4.69739e-12 7.32541e-16 0 0 0 0)
(0 -5.16774e-12 0 -5.16774e-12 7.29225e-16 0 0 0 0)
(0 -6.10633e-12 0 -6.10633e-12 7.24943e-16 0 0 0 0)
(0 -6.1078e-12 0 -6.1078e-12 7.20774e-16 0 0 0 0)
(0 -6.57797e-12 0 -6.57797e-12 7.17496e-16 0 0 0 0)
(0 -7.51681e-12 0 -7.51681e-12 7.13847e-16 0 0 0 0)
(0 -7.51886e-12 0 -7.51886e-12 7.09322e-16 0 0 0 0)
(-1.29247e-23 -8.45839e-12 0 -8.45839e-12 7.0479e-16 0 0 0 0)
(0 -9.39844e-12 0 -9.39844e-12 7.00601e-16 0 0 0 0)
(0 -9.86995e-12 0 -9.86995e-12 6.96603e-16 0 0 0 0)
(0 -1.081e-11 0 -1.081e-11 6.9216e-16 0 0 0 0)
(0 -1.12818e-11 0 -1.12818e-11 6.87764e-16 0 0 0 0)
(0 -1.22235e-11 0 -1.22235e-11 6.8293e-16 0 0 0 0)
(0 -1.41038e-11 0 -1.41038e-11 6.77497e-16 0 0 0 0)
(0 -1.50466e-11 0 -1.50466e-11 6.73051e-16 0 0 0 0)
(-6.46235e-24 -1.59894e-11 0 -1.59894e-11 6.69367e-16 0 0 0 0)
(0 -1.74021e-11 0 -1.74021e-11 6.64584e-16 0 0 0 0)
(0 -1.88158e-11 0 -1.88158e-11 6.59541e-16 0 0 0 0)
(0 -2.02304e-11 0 -2.02304e-11 6.54832e-16 0 0 0 0)
(0 -2.21157e-11 0 -2.21157e-11 6.49156e-16 0 0 0 0)
(0 -2.40022e-11 0 -2.40022e-11 6.43315e-16 0 0 0 0)
(0 -2.58903e-11 0 -2.58903e-11 6.38044e-16 0 0 0 0)
(0 -2.82491e-11 0 -2.82491e-11 6.32905e-16 0 0 0 0)
(0 -3.01406e-11 0 -3.01406e-11 6.27772e-16 0 0 0 0)
(0 -3.29738e-11 0 -3.29738e-11 6.22493e-16 0 0 0 0)
(0 -3.58097e-11 0 -3.58097e-11 6.1639e-16 0 0 0 0)
(0 -3.86487e-11 0 -3.86487e-11 6.10027e-16 0 0 0 0)
(0 -4.19609e-11 0 -4.19609e-11 6.0422e-16 0 0 0 0)
(0 -4.52773e-11 0 -4.52773e-11 5.98774e-16 0 0 0 0)
(0 -4.90686e-11 0 -4.90686e-11 5.92422e-16 0 0 0 0)
(0 -5.33366e-11 0 -5.33366e-11 5.85981e-16 0 0 0 0)
(0 -5.80817e-11 0 -5.80817e-11 5.81969e-16 0 0 0 0)
(0 -6.28338e-11 0 -6.28338e-11 5.77578e-16 0 0 0 0)
(0 -6.75937e-11 0 -6.75937e-11 3.52778e-15 0 0 0 0)
(0 -7.33069e-11 0 -7.33069e-11 -8.44744e-14 0 0 0 0)
(0 -7.99749e-11 0 -7.99749e-11 5.19789e-13 0 0 0 0)
(0 -8.58584e-11 0 -8.58584e-11 -2.12876e-12 0 0 0 0)
(0 -7.80337e-11 0 -7.80337e-11 4.17468e-10 0 0 0 0)
(0 4.35179e-12 0 4.35179e-12 2.20619e-09 0 0 0 0)
(0 1.98446e-10 0 1.98446e-10 5.17226e-09 0 0 0 0)
(0 3.79226e-10 0 3.79226e-10 7.35864e-09 0 0 0 0)
(0 4.01736e-10 0 4.01736e-10 7.38486e-09 0 0 0 0)
(0 3.05299e-10 0 3.05299e-10 5.92498e-09 0 0 0 0)
(0 2.02844e-10 0 2.02844e-10 4.38238e-09 0 0 0 0)
(0 1.39835e-10 0 1.39835e-10 3.4276e-09 0 0 0 0)
(0 1.13447e-10 0 1.13447e-10 3.0376e-09 0 0 0 0)
(0 1.13081e-10 0 1.13081e-10 3.03187e-09 0 0 0 0)
(0 1.30644e-10 0 1.30644e-10 3.26257e-09 0 0 0 0)
(0 1.58392e-10 0 1.58392e-10 3.60926e-09 0 0 0 0)
(0 1.88389e-10 0 1.88389e-10 3.96469e-09 0 0 0 0)
(0 2.13863e-10 0 2.13863e-10 4.24887e-09 0 0 0 0)
(0 2.31602e-10 0 2.31602e-10 4.42936e-09 0 0 0 0)
(0 2.4246e-10 0 2.4246e-10 4.52159e-09 0 0 0 0)
(0 2.49584e-10 0 2.49584e-10 4.5676e-09 0 0 0 0)
(0 2.56587e-10 0 2.56587e-10 4.60954e-09 0 0 0 0)
(0 2.65878e-10 0 2.65878e-10 4.6735e-09 0 0 0 0)
(0 2.78224e-10 0 2.78224e-10 4.76748e-09 0 0 0 0)
(0 2.93316e-10 0 2.93316e-10 4.88663e-09 0 0 0 0)
(0 3.10318e-10 0 3.10318e-10 5.02025e-09 0 0 0 0)
(0 3.28273e-10 0 3.28273e-10 5.15774e-09 0 0 0 0)
(0 3.46528e-10 0 3.46528e-10 5.29186e-09 0 0 0 0)
(0 3.64804e-10 0 3.64804e-10 5.41904e-09 0 0 0 0)
(0 3.83051e-10 0 3.83051e-10 5.53808e-09 0 0 0 0)
(0 4.01286e-10 0 4.01286e-10 5.64856e-09 0 0 0 0)
(0 4.19489e-10 0 4.19489e-10 5.74982e-09 0 0 0 0)
(0 4.37571e-10 0 4.37571e-10 5.84085e-09 0 0 0 0)
(0 4.55409e-10 0 4.55409e-10 5.92083e-09 0 0 0 0)
(0 4.72939e-10 0 4.72939e-10 5.98961e-09 0 0 0 0)
(0 4.90185e-10 0 4.90185e-10 6.04787e-09 0 0 0 0)
(0 5.07238e-10 0 5.07238e-10 6.0969e-09 0 0 0 0)
(0 5.24238e-10 0 5.24238e-10 6.1383e-09 0 0 0 0)
(0 5.41334e-10 0 5.41334e-10 6.17357e-09 0 0 0 0)
(0 5.58666e-10 0 5.58666e-10 6.20404e-09 0 0 0 0)
(0 5.7636e-10 0 5.7636e-10 6.23075e-09 0 0 0 0)
(0 5.94538e-10 0 5.94538e-10 6.25461e-09 0 0 0 0)
(0 6.1333e-10 0 6.1333e-10 6.2764e-09 0 0 0 0)
(0 6.3288e-10 0 6.3288e-10 6.2969e-09 0 0 0 0)
(0 6.53363e-10 0 6.53363e-10 6.31696e-09 0 0 0 0)
(0 6.74991e-10 0 6.74991e-10 6.33754e-09 0 0 0 0)
(0 6.98034e-10 0 6.98034e-10 6.35981e-09 0 0 0 0)
(0 7.22838e-10 0 7.22838e-10 6.38527e-09 0 0 0 0)
(0 7.49856e-10 0 7.49856e-10 6.4158e-09 0 0 0 0)
(0 7.79673e-10 0 7.79673e-10 6.45384e-09 0 0 0 0)
(0 8.13046e-10 0 8.13046e-10 6.50238e-09 0 0 0 0)
(0 8.50916e-10 0 8.50916e-10 6.56495e-09 0 0 0 0)
(0 8.9441e-10 0 8.9441e-10 6.64528e-09 0 0 0 0)
(0 9.44768e-10 0 9.44768e-10 6.74661e-09 0 0 0 0)
(0 1.0032e-09 0 1.0032e-09 6.87057e-09 0 0 0 0)
(0 1.07069e-09 0 1.07069e-09 7.01591e-09 0 0 0 0)
(0 1.14784e-09 0 1.14784e-09 7.17795e-09 0 0 0 0)
(0 1.23506e-09 0 1.23506e-09 7.35036e-09 0 0 0 0)
(0 1.33359e-09 0 1.33359e-09 7.53091e-09 0 0 0 0)
(0 1.44779e-09 0 1.44779e-09 7.73213e-09 0 0 0 0)
(0 1.58872e-09 0 1.58872e-09 7.99476e-09 0 0 0 0)
(0 1.77839e-09 0 1.77839e-09 8.39822e-09 0 0 0 0)
(0 2.05228e-09 0 2.05228e-09 9.05583e-09 0 0 0 0)
(0 2.45335e-09 0 2.45335e-09 1.00667e-08 0 0 0 0)
(0 2.99758e-09 0 2.99758e-09 1.13686e-08 0 0 0 0)
(0 3.58034e-09 0 3.58034e-09 1.24798e-08 0 0 0 0)
(0 3.87558e-09 0 3.87558e-09 1.24309e-08 0 0 0 0)
(0 3.49861e-09 0 3.49861e-09 1.04563e-08 0 0 0 0)
(0 2.48485e-09 0 2.48485e-09 7.04335e-09 0 0 0 0)
(0 1.3564e-09 0 1.3564e-09 3.69521e-09 0 0 0 0)
(0 5.47095e-10 0 5.47095e-10 1.47418e-09 0 0 0 0)
(0 1.09883e-10 0 1.09883e-10 3.79082e-10 0 0 0 0)
(0 -6.72665e-11 0 -6.72665e-11 -1.45775e-10 0 0 0 0)
(0 -1.68182e-10 0 -1.68182e-10 -4.23579e-10 0 0 0 0)
(0 -3.03438e-10 0 -3.03438e-10 -5.8585e-10 0 0 0 0)
(0 -4.15976e-10 0 -4.15976e-10 -8.09437e-10 0 0 0 0)
(0 1.28069e-09 0 1.28069e-09 -7.58291e-10 0 0 0 0)
(0 1.58029e-06 0 1.58029e-06 1.5284e-09 0 0 0 0)
(0 3.16037e-05 0 3.16037e-05 3.89412e-08 0 0 0 0)
(0 0.000100253 0 0.000100253 1.06631e-07 0 0 0 0)
(0 0.00016796 0 0.00016796 3.94947e-08 0 0 0 0)
(0 0.000272686 0 0.000272686 -1.56434e-06 0 0 0 0)
(0 0.000412841 0 0.000412841 -1.32609e-06 0 0 0 0)
(0 0.00043183 0 0.00043183 4.44768e-07 0 0 0 0)
(0 0.000340165 0 0.000340165 4.85727e-07 0 0 0 0)
(0 0.000256142 0 0.000256142 5.17981e-07 0 0 0 0)
(0 0.000192308 0 0.000192308 4.03196e-07 0 0 0 0)
(0 0.000143046 0 0.000143046 2.61862e-07 0 0 0 0)
(0 0.000105062 0 0.000105062 1.23307e-07 0 0 0 0)
(0 7.84516e-05 0 7.84516e-05 4.47269e-08 0 0 0 0)
(0 6.19454e-05 0 6.19454e-05 1.36022e-08 0 0 0 0)
(0 5.11966e-05 0 5.11966e-05 2.57199e-09 0 0 0 0)
(0 4.28356e-05 0 4.28356e-05 2.62581e-09 0 0 0 0)
(0 3.56777e-05 0 3.56777e-05 5.86831e-11 0 0 0 0)
(0 2.95196e-05 0 2.95196e-05 1.28956e-09 0 0 0 0)
(0 2.43158e-05 0 2.43158e-05 -2.27262e-10 0 0 0 0)
(0 2.00543e-05 0 2.00543e-05 6.90326e-10 0 0 0 0)
(0 1.67412e-05 0 1.67412e-05 -2.68158e-10 0 0 0 0)
(0 1.4074e-05 0 1.4074e-05 5.81131e-10 0 0 0 0)
(0 1.20529e-05 0 1.20529e-05 -4.57569e-10 0 0 0 0)
(0 1.04745e-05 0 1.04745e-05 6.13812e-10 0 0 0 0)
(0 9.2142e-06 0 9.2142e-06 -5.86327e-10 0 0 0 0)
(0 8.19954e-06 0 8.19954e-06 6.66414e-10 0 0 0 0)
(0 7.35404e-06 0 7.35404e-06 -6.82433e-10 0 0 0 0)
(0 6.64282e-06 0 6.64282e-06 7.18632e-10 0 0 0 0)
(0 6.01718e-06 0 6.01718e-06 -7.5302e-10 0 0 0 0)
(0 5.47299e-06 0 5.47299e-06 7.68276e-10 0 0 0 0)
(0 4.99276e-06 0 4.99276e-06 -8.06805e-10 0 0 0 0)
(0 4.57045e-06 0 4.57045e-06 8.0265e-10 0 0 0 0)
(0 4.17477e-06 0 4.17477e-06 -8.39257e-10 0 0 0 0)
(0 3.83285e-06 0 3.83285e-06 8.29213e-10 0 0 0 0)
(0 3.51578e-06 0 3.51578e-06 -8.62194e-10 0 0 0 0)
(0 3.23086e-06 0 3.23086e-06 8.44696e-10 0 0 0 0)
(0 2.9709e-06 0 2.9709e-06 -8.70253e-10 0 0 0 0)
(0 2.73198e-06 0 2.73198e-06 8.47769e-10 0 0 0 0)
(0 2.5157e-06 0 2.5157e-06 -8.66379e-10 0 0 0 0)
(0 2.31618e-06 0 2.31618e-06 8.39783e-10 0 0 0 0)
(0 2.13376e-06 0 2.13376e-06 -8.50527e-10 0 0 0 0)
(0 1.96534e-06 0 1.96534e-06 8.21887e-10 0 0 0 0)
(0 1.81429e-06 0 1.81429e-06 -8.28217e-10 0 0 0 0)
(0 1.66961e-06 0 1.66961e-06 7.97426e-10 0 0 0 0)
(0 1.54057e-06 0 1.54057e-06 -7.95711e-10 0 0 0 0)
(0 1.42092e-06 0 1.42092e-06 7.62804e-10 0 0 0 0)
(0 1.31086e-06 0 1.31086e-06 -7.5761e-10 0 0 0 0)
(0 1.20959e-06 0 1.20959e-06 7.24092e-10 0 0 0 0)
(0 1.11508e-06 0 1.11508e-06 -7.14255e-10 0 0 0 0)
(0 1.02852e-06 0 1.02852e-06 6.81612e-10 0 0 0 0)
(0 9.48917e-07 0 9.48917e-07 -6.6861e-10 0 0 0 0)
(0 8.76664e-07 0 8.76664e-07 6.33996e-10 0 0 0 0)
(0 8.09239e-07 0 8.09239e-07 -6.19877e-10 0 0 0 0)
(0 7.46319e-07 0 7.46319e-07 5.87258e-10 0 0 0 0)
(0 6.87486e-07 0 6.87486e-07 -5.68752e-10 0 0 0 0)
(0 6.34575e-07 0 6.34575e-07 5.37341e-10 0 0 0 0)
(0 5.85337e-07 0 5.85337e-07 -5.10275e-10 0 0 0 0)
(-4.06832e-19 5.40184e-07 0 5.40184e-07 4.70741e-10 0 0 0 0)
(0 4.96477e-07 0 4.96477e-07 -4.4818e-10 0 0 0 0)
(0 4.54442e-07 0 4.54442e-07 4.16545e-10 0 0 0 0)
(3.83032e-19 4.15621e-07 0 4.15621e-07 -3.94757e-10 0 0 0 0)
(0 3.803e-07 0 3.803e-07 3.66552e-10 0 0 0 0)
(-3.67944e-19 3.47996e-07 0 3.47996e-07 -3.4986e-10 0 0 0 0)
(0 3.16823e-07 0 3.16823e-07 3.2441e-10 0 0 0 0)
(3.5345e-19 2.87283e-07 0 2.87283e-07 -3.07325e-10 0 0 0 0)
(0 2.60476e-07 0 2.60476e-07 2.86038e-10 0 0 0 0)
(0 2.36413e-07 0 2.36413e-07 -2.71727e-10 0 0 0 0)
(0 2.13677e-07 0 2.13677e-07 2.51763e-10 0 0 0 0)
(3.26153e-19 1.92197e-07 0 1.92197e-07 -2.37605e-10 0 0 0 0)
(0 1.72939e-07 0 1.72939e-07 2.20343e-10 0 0 0 0)
(0 1.55724e-07 0 1.55724e-07 -2.0822e-10 0 0 0 0)
(0 1.39553e-07 0 1.39553e-07 1.92164e-10 0 0 0 0)
(0 1.24419e-07 0 1.24419e-07 -1.80033e-10 0 0 0 0)
(0 1.10924e-07 0 1.10924e-07 1.66097e-10 0 0 0 0)
(-2.89108e-19 9.89364e-08 0 9.89364e-08 -1.55513e-10 0 0 0 0)
(0 8.78483e-08 0 8.78483e-08 1.42543e-10 0 0 0 0)
(0 7.76321e-08 0 7.76321e-08 -1.32402e-10 0 0 0 0)
(0 6.86216e-08 0 6.86216e-08 1.20996e-10 0 0 0 0)
(0 6.05382e-08 0 6.05382e-08 -1.11933e-10 0 0 0 0)
(0 5.31091e-08 0 5.31091e-08 1.01797e-10 0 0 0 0)
(0 4.6572e-08 0 4.6572e-08 -9.34433e-11 0 0 0 0)
(0 4.07912e-08 0 4.07912e-08 8.42757e-11 0 0 0 0)
(0 3.5518e-08 0 3.5518e-08 -7.67887e-11 0 0 0 0)
(2.41279e-19 3.08436e-08 0 3.08436e-08 6.89038e-11 0 0 0 0)
(0 2.67863e-08 0 2.67863e-08 -6.22786e-11 0 0 0 0)
(0 2.31363e-08 0 2.31363e-08 5.53298e-11 0 0 0 0)
(0 1.99343e-08 0 1.99343e-08 -4.94533e-11 0 0 0 0)
(0 1.71357e-08 0 1.71357e-08 4.34862e-11 0 0 0 0)
(0 1.46723e-08 0 1.46723e-08 -3.84171e-11 0 0 0 0)
(0 1.25387e-08 0 1.25387e-08 3.33255e-11 0 0 0 0)
(0 1.06657e-08 0 1.06657e-08 -2.89986e-11 0 0 0 0)
(0 9.05394e-09 0 9.05394e-09 2.47461e-11 0 0 0 0)
(0 7.64804e-09 0 7.64804e-09 -2.11084e-11 0 0 0 0)
(0 6.45073e-09 0 6.45073e-09 1.75907e-11 0 0 0 0)
(0 5.41134e-09 0 5.41134e-09 -1.45965e-11 0 0 0 0)
(0 4.52637e-09 0 4.52637e-09 1.1792e-11 0 0 0 0)
(0 3.76107e-09 0 3.76107e-09 -9.34723e-12 0 0 0 0)
(0 3.11504e-09 0 3.11504e-09 7.16378e-12 0 0 0 0)
(-3.56984e-19 2.57202e-09 0 2.57202e-09 -5.23783e-12 0 0 0 0)
(3.49882e-19 2.14105e-09 0 2.14105e-09 3.61207e-12 0 0 0 0)
(0 1.79334e-09 0 1.79334e-09 -2.26865e-12 0 0 0 0)
(0 1.47245e-09 0 1.47245e-09 9.15642e-13 0 0 0 0)
(-1.64707e-19 1.19052e-09 0 1.19052e-09 1.05012e-13 0 0 0 0)
(0 9.59619e-10 0 9.59619e-10 -1.05184e-12 0 0 0 0)
(0 7.71891e-10 0 7.71891e-10 1.68305e-12 0 0 0 0)
(-3.10142e-19 6.19078e-10 0 6.19078e-10 -2.21376e-12 0 0 0 0)
(0 4.92124e-10 0 4.92124e-10 2.60587e-12 0 0 0 0)
(0 3.89044e-10 0 3.89044e-10 -2.88551e-12 0 0 0 0)
(0 3.07224e-10 0 3.07224e-10 3.05118e-12 0 0 0 0)
(0 2.41963e-10 0 2.41963e-10 -3.12553e-12 0 0 0 0)
(0 1.89685e-10 0 1.89685e-10 3.11172e-12 0 0 0 0)
(0 1.48046e-10 0 1.48046e-10 -3.02796e-12 0 0 0 0)
(0 1.15127e-10 0 1.15127e-10 2.87962e-12 0 0 0 0)
(0 8.92019e-11 0 8.92019e-11 -2.68158e-12 0 0 0 0)
(0 6.88053e-11 0 6.88053e-11 2.43886e-12 0 0 0 0)
(0 5.28186e-11 0 5.28186e-11 -2.16306e-12 0 0 0 0)
(0 4.0324e-11 0 4.0324e-11 1.85914e-12 0 0 0 0)
(0 3.06219e-11 0 3.06219e-11 -1.53651e-12 0 0 0 0)
(0 2.31222e-11 0 2.31222e-11 1.19945e-12 0 0 0 0)
(0 1.73608e-11 0 1.73608e-11 -8.5515e-13 0 0 0 0)
(0 1.29598e-11 0 1.29598e-11 5.52751e-13 0 0 0 0)
(0 9.61654e-12 0 9.61654e-12 -1.74985e-13 0 0 0 0)
(0 7.09301e-12 0 7.09301e-12 -2.46711e-13 0 0 0 0)
(0 5.1991e-12 0 5.1991e-12 5.41814e-13 0 0 0 0)
(0 3.78742e-12 0 3.78742e-12 -8.18512e-13 0 0 0 0)
(0 2.74059e-12 0 2.74059e-12 1.1202e-12 0 0 0 0)
(0 1.97118e-12 0 1.97118e-12 -1.40564e-12 0 0 0 0)
(0 1.40787e-12 0 1.40787e-12 1.67263e-12 0 0 0 0)
(0 9.9874e-13 0 9.9874e-13 -1.9202e-12 0 0 0 0)
(0 7.03067e-13 0 7.03067e-13 2.14706e-12 0 0 0 0)
(0 4.91876e-13 0 4.91876e-13 -2.3529e-12 0 0 0 0)
(0 3.42048e-13 0 3.42048e-13 2.5371e-12 0 0 0 0)
(0 2.35899e-13 0 2.35899e-13 -2.69991e-12 0 0 0 0)
(0 1.60929e-13 0 1.60929e-13 2.84122e-12 0 0 0 0)
(0 1.0897e-13 0 1.0897e-13 -2.96172e-12 0 0 0 0)
(0 7.35307e-14 0 7.35307e-14 3.06165e-12 0 0 0 0)
(0 4.93774e-14 0 4.93774e-14 -3.14198e-12 0 0 0 0)
(0 3.25665e-14 0 3.25665e-14 3.20326e-12 0 0 0 0)
(0 2.15279e-14 0 2.15279e-14 -3.24666e-12 0 0 0 0)
(0 1.41514e-14 0 1.41514e-14 3.27287e-12 0 0 0 0)
(0 8.99736e-15 0 8.99736e-15 -3.28321e-12 0 0 0 0)
(3.00904e-19 5.79481e-15 0 5.79481e-15 3.27847e-12 0 0 0 0)
(0 3.6443e-15 0 3.6443e-15 -3.26004e-12 0 0 0 0)
(0 2.30106e-15 0 2.30106e-15 3.22873e-12 0 0 0 0)
(0 1.3813e-15 0 1.3813e-15 -3.18595e-12 0 0 0 0)
(0 7.65869e-16 0 7.65869e-16 3.13253e-12 0 0 0 0)
(0 6.12726e-16 0 6.12726e-16 -3.06981e-12 0 0 0 0)
(0 4.39433e-16 0 4.39433e-16 2.9986e-12 0 0 0 0)
(0 1.90968e-16 0 1.90968e-16 -2.92017e-12 0 0 0 0)
(0 -3.04903e-17 0 -3.04903e-17 2.83525e-12 0 0 0 0)
(0 -1.27696e-16 0 -1.27696e-16 -2.74505e-12 0 0 0 0)
(2.46128e-19 1.2411e-16 0 1.2411e-16 2.65021e-12 0 0 0 0)
(0 1.74893e-16 0 1.74893e-16 -2.55178e-12 0 0 0 0)
(0 3.3337e-17 0 3.3337e-17 2.45042e-12 0 0 0 0)
(-2.31729e-19 -8.30169e-17 0 -8.30169e-17 -2.34693e-12 0 0 0 0)
(0 -8.80086e-18 0 -8.80086e-18 2.24198e-12 0 0 0 0)
(0 1.113e-19 0 1.113e-19 -2.13621e-12 0 0 0 0)
(0 -1.85992e-17 0 -1.85992e-17 2.03018e-12 0 0 0 0)
(0 9.42466e-17 0 9.42466e-17 -1.92443e-12 0 0 0 0)
(0 -4.55833e-17 0 -4.55833e-17 1.81943e-12 0 0 0 0)
(0 -1.74187e-16 0 -1.74187e-16 -1.71561e-12 0 0 0 0)
(0 1.39164e-16 0 1.39164e-16 1.61334e-12 0 0 0 0)
(0 1.87304e-16 0 1.87304e-16 -1.51296e-12 0 0 0 0)
(0 -1.34118e-16 0 -1.34118e-16 1.41476e-12 0 0 0 0)
(0 -1.47134e-16 0 -1.47134e-16 -1.3189e-12 0 0 0 0)
(0 9.15854e-18 0 9.15854e-18 1.40153e-12 0 0 0 0)
(0 -1.68348e-17 0 -1.68348e-17 -1.33432e-12 0 0 0 0)
(0 -2.37699e-17 0 -2.37699e-17 1.26826e-12 0 0 0 0)
(0 4.25105e-17 0 4.25105e-17 -1.20367e-12 0 0 0 0)
(0 6.24687e-18 0 6.24687e-18 1.14069e-12 0 0 0 0)
(0 -2.68933e-17 0 -2.68933e-17 -1.07949e-12 0 0 0 0)
(0 2.08052e-17 0 2.08052e-17 1.02019e-12 0 0 0 0)
(0 -2.69992e-18 0 -2.69992e-18 -9.62894e-13 0 0 0 0)
(0 -2.75815e-17 0 -2.75815e-17 9.07676e-13 0 0 0 0)
(0 1.65171e-17 0 1.65171e-17 -8.546e-13 0 0 0 0)
(0 2.76874e-17 0 2.76874e-17 8.03705e-13 0 0 0 0)
(0 1.39231e-17 0 1.39231e-17 -7.55018e-13 0 0 0 0)
(0 -3.01755e-17 0 -3.01755e-17 7.08545e-13 0 0 0 0)
(0 -2.8058e-18 0 -2.8058e-18 -6.64283e-13 0 0 0 0)
(0 1.76289e-17 0 1.76289e-17 6.22214e-13 0 0 0 0)
(0 -1.27055e-18 0 -1.27055e-18 -5.82309e-13 0 0 0 0)
(0 1.6676e-17 0 1.6676e-17 5.44532e-13 0 0 0 0)
(0 -2.24993e-17 0 -2.24993e-17 -5.08832e-13 0 0 0 0)
(0 -4.02341e-18 0 -4.02341e-18 4.75154e-13 0 0 0 0)
(0 1.41878e-17 0 1.41878e-17 -4.43443e-13 0 0 0 0)
(0 -8.04681e-18 0 -8.04681e-18 4.1362e-13 0 0 0 0)
(0 7.72918e-18 0 7.72918e-18 -3.85618e-13 0 0 0 0)
(0 6.51157e-18 0 6.51157e-18 3.59368e-13 0 0 0 0)
(0 -1.28643e-17 0 -1.28643e-17 -3.34772e-13 0 0 0 0)
(0 2.59404e-18 0 2.59404e-18 3.11785e-13 0 0 0 0)
(0 1.24937e-17 0 1.24937e-17 -2.90269e-13 0 0 0 0)
(0 -8.62915e-18 0 -8.62915e-18 2.70255e-13 0 0 0 0)
(0 -1.20173e-17 0 -1.20173e-17 -2.53477e-13 0 0 0 0)
(0 -2.08582e-17 0 -2.08582e-17 2.41938e-13 0 0 0 0)
(0 -2.59404e-18 0 -2.59404e-18 -2.32967e-13 0 0 0 0)
(0 -2.41934e-17 0 -2.41934e-17 2.24068e-13 0 0 0 0)
(0 1.16467e-18 0 1.16467e-18 -2.15066e-13 0 0 0 0)
(0 1.24937e-17 0 1.24937e-17 2.06198e-13 0 0 0 0)
(0 -6.72332e-18 0 -6.72332e-18 -1.97194e-13 0 0 0 0)
(0 2.06994e-17 0 2.06994e-17 1.88346e-13 0 0 0 0)
(0 4.76456e-18 0 4.76456e-18 -1.79324e-13 0 0 0 0)
(0 -2.59404e-18 0 -2.59404e-18 1.70469e-13 0 0 0 0)
(0 -5.24102e-18 0 -5.24102e-18 -1.61414e-13 0 0 0 0)
(0 2.38228e-18 0 2.38228e-18 1.52515e-13 0 0 0 0)
(0 -1.15408e-17 0 -1.15408e-17 -1.43385e-13 0 0 0 0)
(0 0 0 0 1.3436e-13 0 0 0 0)
(0 5.0822e-17 0 5.0822e-17 -1.25067e-13 0 0 0 0)
(0 9.21148e-18 0 9.21148e-18 1.15805e-13 0 0 0 0)
(0 -4.18223e-17 0 -4.18223e-17 -1.06137e-13 0 0 0 0)
(0 -1.1382e-17 0 -1.1382e-17 9.63349e-14 0 0 0 0)
(0 2.14405e-17 0 2.14405e-17 -8.58893e-14 0 0 0 0)
(0 2.20229e-17 0 2.20229e-17 7.48418e-14 0 0 0 0)
(0 -9.05266e-18 0 -9.05266e-18 -6.22443e-14 0 0 0 0)
(0 -7.14684e-18 0 -7.14684e-18 4.75226e-14 0 0 0 0)
(0 6.8292e-18 0 6.8292e-18 -2.05784e-14 0 0 0 0)
)
;

boundaryField
{
    inandouthalf11
    {
        type            cyclic;
    }
    inandouthalf12
    {
        type            cyclic;
    }
    inandouthalf21
    {
        type            cyclic;
    }
    inandouthalf22
    {
        type            cyclic;
    }
    inandouthalf31
    {
        type            cyclic;
    }
    inandouthalf32
    {
        type            cyclic;
    }
    inandouthalf41
    {
        type            cyclic;
    }
    inandouthalf42
    {
        type            cyclic;
    }
    top
    {
        type            symmetryPlane;
    }
    walls
    {
        type            zeroGradient;
    }
    frontAndBackPlanes
    {
        type            empty;
    }
}


// ************************************************************************* //
