/*--------------------------------*- C++ -*----------------------------------*\
| =========                 |                                                 |
| \\      /  F ield         | OpenFOAM: The Open Source CFD Toolbox           |
|  \\    /   O peration     | Version:  2.4.x                                 |
|   \\  /    A nd           | Web:      www.OpenFOAM.org                      |
|    \\/     M anipulation  |                                                 |
\*---------------------------------------------------------------------------*/
FoamFile
{
    version     2.0;
    format      ascii;
    class       volTensorField;
    location    "1.75";
    object      Taus;
}
// * * * * * * * * * * * * * * * * * * * * * * * * * * * * * * * * * * * * * //

dimensions      [0 2 -2 0 0 0 0];

internalField   nonuniform List<tensor> 
360
(
(0 0.0152737 0 0.0152737 -0.162343 0 0 0 0)
(0 0.000265275 0 0.000265275 0.0198566 0 0 0 0)
(0 0.00043101 0 0.00043101 -0.00909836 0 0 0 0)
(0 0.000651716 0 0.000651716 -0.0140206 0 0 0 0)
(-1.32563e-15 0.000872356 0 0.000872356 -0.0204361 0 0 0 0)
(-1.27092e-15 0.00108853 0 0.00108853 -0.0263313 0 0 0 0)
(-1.22036e-15 0.00129888 0 0.00129888 -0.031819 0 0 0 0)
(0 0.00150314 0 0.00150314 -0.0369119 0 0 0 0)
(-5.64645e-16 0.00170244 0 0.00170244 -0.041657 0 0 0 0)
(0 0.00189602 0 0.00189602 -0.0460827 0 0 0 0)
(-1.04973e-15 0.00208458 0 0.00208458 -0.0501973 0 0 0 0)
(0 0.00226916 0 0.00226916 -0.0540183 0 0 0 0)
(-9.81174e-16 0.00244857 0 0.00244857 -0.0575845 0 0 0 0)
(0 0.00262363 0 0.00262363 -0.0609265 0 0 0 0)
(0 0.00279463 0 0.00279463 -0.0640394 0 0 0 0)
(0 0.00296163 0 0.00296163 -0.0669392 0 0 0 0)
(0 0.0031248 0 0.0031248 -0.0696415 0 0 0 0)
(-4.22246e-16 0.00328447 0 0.00328447 -0.0721624 0 0 0 0)
(0 0.00344061 0 0.00344061 -0.074537 0 0 0 0)
(0 0.00359237 0 0.00359237 -0.0767542 0 0 0 0)
(0 0.00374215 0 0.00374215 -0.0788466 0 0 0 0)
(-7.62093e-16 0.0038877 0 0.0038877 -0.0808016 0 0 0 0)
(0 0.00403006 0 0.00403006 -0.0826478 0 0 0 0)
(0 0.00416952 0 0.00416952 -0.084373 0 0 0 0)
(0 0.00430602 0 0.00430602 -0.0859841 0 0 0 0)
(-3.48388e-16 0.00443987 0 0.00443987 -0.0874918 0 0 0 0)
(0 0.00457111 0 0.00457111 -0.0889261 0 0 0 0)
(0 0.00469824 0 0.00469824 -0.0902873 0 0 0 0)
(0 0.00482281 0 0.00482281 -0.0915829 0 0 0 0)
(0 0.00494522 0 0.00494522 -0.0927982 0 0 0 0)
(0 0.00506496 0 0.00506496 -0.093956 0 0 0 0)
(0 0.00518093 0 0.00518093 -0.0950367 0 0 0 0)
(0 0.00529624 0 0.00529624 -0.0960985 0 0 0 0)
(0 0.00540601 0 0.00540601 -0.0970822 0 0 0 0)
(0 0.00551528 0 0.00551528 -0.098052 0 0 0 0)
(5.75767e-16 0.00562122 0 0.00562122 -0.0989584 0 0 0 0)
(0 0.00572523 0 0.00572523 -0.0998514 0 0 0 0)
(0 0.00582535 0 0.00582535 -0.100722 0 0 0 0)
(0 0.00592208 0 0.00592208 -0.101552 0 0 0 0)
(0 0.0060194 0 0.0060194 -0.102381 0 0 0 0)
(0 0.006111 0 0.006111 -0.103157 0 0 0 0)
(0 0.00620131 0 0.00620131 -0.103924 0 0 0 0)
(2.51484e-16 0.0062908 0 0.0062908 -0.104686 0 0 0 0)
(0 0.00637486 0 0.00637486 -0.105416 0 0 0 0)
(0 0.00645812 0 0.00645812 -0.106159 0 0 0 0)
(0 0.00653874 0 0.00653874 -0.106881 0 0 0 0)
(0 0.006617 0 0.006617 -0.107582 0 0 0 0)
(0 0.00669586 0 0.00669586 -0.1083 0 0 0 0)
(0 0.00677028 0 0.00677028 -0.109024 0 0 0 0)
(0 0.00684077 0 0.00684077 -0.109748 0 0 0 0)
(4.09018e-16 0.006913 0 0.006913 -0.110501 0 0 0 0)
(0 0.0069825 0 0.0069825 -0.111231 0 0 0 0)
(0 0.00705143 0 0.00705143 -0.111984 0 0 0 0)
(0 0.00711866 0 0.00711866 -0.112727 0 0 0 0)
(0 0.00718699 0 0.00718699 -0.113513 0 0 0 0)
(0 0.00725185 0 0.00725185 -0.11428 0 0 0 0)
(0 0.00732001 0 0.00732001 -0.115105 0 0 0 0)
(0 0.00738546 0 0.00738546 -0.115909 0 0 0 0)
(0 0.00745569 0 0.00745569 -0.116766 0 0 0 0)
(0 0.00752746 0 0.00752746 -0.117639 0 0 0 0)
(0 0.00760822 0 0.00760822 -0.118611 0 0 0 0)
(0 0.00769935 0 0.00769935 -0.119673 0 0 0 0)
(0 0.0078286 0 0.0078286 -0.121095 0 0 0 0)
(0 0.00800298 0 0.00800298 -0.122898 0 0 0 0)
(0 0.00828673 0 0.00828673 -0.125708 0 0 0 0)
(0 0.00860545 0 0.00860545 -0.128629 0 0 0 0)
(0 0.00887983 0 0.00887983 -0.130818 0 0 0 0)
(0 0.00898653 0 0.00898653 -0.131031 0 0 0 0)
(0 0.00896097 0 0.00896097 -0.130173 0 0 0 0)
(0 0.00886234 0 0.00886234 -0.128839 0 0 0 0)
(0 0.00879258 0 0.00879258 -0.128432 0 0 0 0)
(0 0.00888022 0 0.00888022 -0.130665 0 0 0 0)
(0 0.00795753 0 0.00795753 -0.117919 0 0 0 0)
(0 0.00778161 0 0.00778161 -0.114852 0 0 0 0)
(0 0.00782322 0 0.00782322 -0.112802 0 0 0 0)
(0 0.00813693 0 0.00813693 -0.112369 0 0 0 0)
(0 0.00867072 0 0.00867072 -0.112872 0 0 0 0)
(0 0.00923671 0 0.00923671 -0.113008 0 0 0 0)
(0 0.00963572 0 0.00963572 -0.112302 0 0 0 0)
(0 0.0098136 0 0.0098136 -0.110934 0 0 0 0)
(0 0.00983391 0 0.00983391 -0.109206 0 0 0 0)
(0 0.00977802 0 0.00977802 -0.107321 0 0 0 0)
(0 0.00970963 0 0.00970963 -0.105429 0 0 0 0)
(0 0.00966741 0 0.00966741 -0.103625 0 0 0 0)
(0 0.00966619 0 0.00966619 -0.101944 0 0 0 0)
(0 0.00970343 0 0.00970343 -0.100376 0 0 0 0)
(0 0.00976467 0 0.00976467 -0.0988688 0 0 0 0)
(0 0.00983346 0 0.00983346 -0.0973777 0 0 0 0)
(0 0.00989588 0 0.00989588 -0.0958644 0 0 0 0)
(0 0.00994508 0 0.00994508 -0.0943142 0 0 0 0)
(0 0.00998202 0 0.00998202 -0.0927339 0 0 0 0)
(0 0.0100115 0 0.0100115 -0.0911381 0 0 0 0)
(0 0.0100384 0 0.0100384 -0.0895379 0 0 0 0)
(0 0.0100662 0 0.0100662 -0.0879428 0 0 0 0)
(0 0.0100963 0 0.0100963 -0.0863555 0 0 0 0)
(0 0.010128 0 0.010128 -0.0847739 0 0 0 0)
(0 0.0101598 0 0.0101598 -0.0831947 0 0 0 0)
(0 0.0101904 0 0.0101904 -0.081615 0 0 0 0)
(0 0.0102191 0 0.0102191 -0.0800337 0 0 0 0)
(0 0.0102457 0 0.0102457 -0.0784502 0 0 0 0)
(0 0.0102704 0 0.0102704 -0.076865 0 0 0 0)
(0 0.0102934 0 0.0102934 -0.0752783 0 0 0 0)
(0 0.0103144 0 0.0103144 -0.0736898 0 0 0 0)
(0 0.0103333 0 0.0103333 -0.0720991 0 0 0 0)
(0 0.0103498 0 0.0103498 -0.0705056 0 0 0 0)
(0 0.0103636 0 0.0103636 -0.0689092 0 0 0 0)
(0 0.0103747 0 0.0103747 -0.0673097 0 0 0 0)
(0 0.0103828 0 0.0103828 -0.0657071 0 0 0 0)
(0 0.010388 0 0.010388 -0.0641014 0 0 0 0)
(0 0.0103903 0 0.0103903 -0.0624928 0 0 0 0)
(0 0.0103898 0 0.0103898 -0.0608811 0 0 0 0)
(0 0.0103863 0 0.0103863 -0.0592664 0 0 0 0)
(0 0.0103801 0 0.0103801 -0.0576488 0 0 0 0)
(0 0.0103713 0 0.0103713 -0.0560282 0 0 0 0)
(0 0.0103601 0 0.0103601 -0.0544047 0 0 0 0)
(0 0.0103467 0 0.0103467 -0.0527784 0 0 0 0)
(0 0.0103315 0 0.0103315 -0.0511494 0 0 0 0)
(0 0.0103148 0 0.0103148 -0.0495176 0 0 0 0)
(0 0.010297 0 0.010297 -0.0478831 0 0 0 0)
(0 0.0102786 0 0.0102786 -0.0462457 0 0 0 0)
(0 0.0102599 0 0.0102599 -0.0446051 0 0 0 0)
(0 0.010241 0 0.010241 -0.0429609 0 0 0 0)
(0 0.0102222 0 0.0102222 -0.0413125 0 0 0 0)
(0 0.010204 0 0.010204 -0.0396594 0 0 0 0)
(0 0.0101875 0 0.0101875 -0.0380015 0 0 0 0)
(0 0.0101751 0 0.0101751 -0.0363389 0 0 0 0)
(0 0.0101705 0 0.0101705 -0.0346717 0 0 0 0)
(0 0.0101783 0 0.0101783 -0.032999 0 0 0 0)
(0 0.010201 0 0.010201 -0.0313182 0 0 0 0)
(0 0.0102348 0 0.0102348 -0.029624 0 0 0 0)
(0 0.010264 0 0.010264 -0.0279115 0 0 0 0)
(0 0.0102569 0 0.0102569 -0.0261809 0 0 0 0)
(0 0.0101738 0 0.0101738 -0.0244403 0 0 0 0)
(0 0.0100004 0 0.0100004 -0.0226989 0 0 0 0)
(0 0.00979507 0 0.00979507 -0.0209626 0 0 0 0)
(0 0.00968245 0 0.00968245 -0.0192469 0 0 0 0)
(0 0.00975813 0 0.00975813 -0.0175266 0 0 0 0)
(0 0.00998649 0 0.00998649 -0.0156817 0 0 0 0)
(0 0.0101988 0 0.0101988 -0.0136461 0 0 0 0)
(0 0.0102555 0 0.0102555 -0.011497 0 0 0 0)
(0 0.0102316 0 0.0102316 -0.00920949 0 0 0 0)
(0 0.0102808 0 0.0102808 -0.00653857 0 0 0 0)
(0 0.00994062 0 0.00994062 -0.00359158 0 0 0 0)
(0 0.00903096 0 0.00903096 -0.00128518 0 0 0 0)
(0 0.00778101 0 0.00778101 -0.000198875 0 0 0 0)
(0 0.0065479 0 0.0065479 -1.44245e-06 0 0 0 0)
(0 0.00549215 0 0.00549215 -2.20276e-06 0 0 0 0)
(0 0.00494715 0 0.00494715 -1.01028e-05 0 0 0 0)
(0 0.00508294 0 0.00508294 2.28164e-10 0 0 0 0)
(0 0.00460483 0 0.00460483 4.83037e-05 0 0 0 0)
(0 0.004635 0 0.004635 8.49602e-05 0 0 0 0)
(0 0.0076256 0 0.0076256 0.000155713 0 0 0 0)
(0 0.00974521 0 0.00974521 0.000182997 0 0 0 0)
(0 0.0111085 0 0.0111085 0.000164665 0 0 0 0)
(0 0.0132665 0 0.0132665 0.000116274 0 0 0 0)
(0 0.0176741 0 0.0176741 -0.000113074 0 0 0 0)
(0 0.0279606 0 0.0279606 -0.00119187 0 0 0 0)
(0 0.054348 0 0.054348 -0.00493129 0 0 0 0)
(0 0.100039 0 0.100039 -0.0121781 0 0 0 0)
(0 0.142464 0 0.142464 -0.0187941 0 0 0 0)
(0 0.168322 0 0.168322 -0.0221195 0 0 0 0)
(0 0.192024 0 0.192024 -0.0247635 0 0 0 0)
(0 0.204907 0 0.204907 -0.0259932 0 0 0 0)
(0 0.225221 0 0.225221 -0.0282115 0 0 0 0)
(0 0.229362 0 0.229362 -0.0284276 0 0 0 0)
(0 0.244024 0 0.244024 -0.0300041 0 0 0 0)
(0 0.253414 0 0.253414 -0.0310211 0 0 0 0)
(0 0.254954 0 0.254954 -0.0310257 0 0 0 0)
(0 0.268417 0 0.268417 -0.0325675 0 0 0 0)
(0 0.266929 0 0.266929 -0.0323087 0 0 0 0)
(0 0.278236 0 0.278236 -0.0336022 0 0 0 0)
(0 0.274991 0 0.274991 -0.0331649 0 0 0 0)
(0 0.28684 0 0.28684 -0.0345817 0 0 0 0)
(0 0.283781 0 0.283781 -0.0342218 0 0 0 0)
(0 0.2915 0 0.2915 -0.0351329 0 0 0 0)
(0 0.286876 0 0.286876 -0.0345802 0 0 0 0)
(0 0.297636 0 0.297636 -0.0359526 0 0 0 0)
(0 0.294587 0 0.294587 -0.0356364 0 0 0 0)
(0 0.29606 0 0.29606 -0.0358413 0 0 0 0)
(0 0.300474 0 0.300474 -0.0364739 0 0 0 0)
(0 0.297332 0 0.297332 -0.0361577 0 0 0 0)
(0 0.303199 0 0.303199 -0.03697 0 0 0 0)
(0 0.29864 0 0.29864 -0.0365035 0 0 0 0)
(0 0.304297 0 0.304297 -0.0373096 0 0 0 0)
(0 0.300748 0 0.300748 -0.0370016 0 0 0 0)
(0 0.304212 0 0.304212 -0.0375339 0 0 0 0)
(0 0.299587 0 0.299587 -0.0370655 0 0 0 0)
(0 0.304884 0 0.304884 -0.037905 0 0 0 0)
(0 0.302753 0 0.302753 -0.0377812 0 0 0 0)
(0 0.299922 0 0.299922 -0.0375166 0 0 0 0)
(0 0.302604 0 0.302604 -0.0380293 0 0 0 0)
(0 0.29971 0 0.29971 -0.0378153 0 0 0 0)
(0 0.302542 0 0.302542 -0.0383493 0 0 0 0)
(0 0.298579 0 0.298579 -0.0379979 0 0 0 0)
(0 0.297866 0 0.297866 -0.038019 0 0 0 0)
(0 0.293752 0 0.293752 -0.0376153 0 0 0 0)
(0 0.297128 0 0.297128 -0.0382617 0 0 0 0)
(0 0.2976 0 0.2976 -0.0385721 0 0 0 0)
(0 0.29644 0 0.29644 -0.0385702 0 0 0 0)
(0 0.289665 0 0.289665 -0.0377584 0 0 0 0)
(0 0.286565 0 0.286565 -0.0374591 0 0 0 0)
(0 0.285184 0 0.285184 -0.0374377 0 0 0 0)
(-5.33303e-14 0.28915 0 0.28915 -0.0382477 0 0 0 0)
(0 0.292316 0 0.292316 -0.038993 0 0 0 0)
(0 0.285915 0 0.285915 -0.0382394 0 0 0 0)
(5.14848e-14 0.277637 0 0.277637 -0.0371403 0 0 0 0)
(0 0.274595 0 0.274595 -0.0368714 0 0 0 0)
(-2.51769e-14 0.281114 0 0.281114 -0.0381729 0 0 0 0)
(0 0.283643 0 0.283643 -0.0389048 0 0 0 0)
(4.87665e-14 0.275781 0 0.275781 -0.0378788 0 0 0 0)
(0 0.268709 0 0.268709 -0.0369623 0 0 0 0)
(0 0.271538 0 0.271538 -0.0377486 0 0 0 0)
(0 0.273427 0 0.273427 -0.0384392 0 0 0 0)
(2.2685e-14 0.265606 0 0.265606 -0.0374249 0 0 0 0)
(0 0.260145 0 0.260145 -0.0367643 0 0 0 0)
(0 0.265383 0 0.265383 -0.038028 0 0 0 0)
(0 0.267625 0 0.267625 -0.0388443 0 0 0 0)
(0 0.258811 0 0.258811 -0.0376729 0 0 0 0)
(0 0.251746 0 0.251746 -0.0367751 0 0 0 0)
(0 0.255198 0 0.255198 -0.0378152 0 0 0 0)
(0 0.257647 0 0.257647 -0.0387231 0 0 0 0)
(-3.77354e-14 0.251919 0 0.251919 -0.0380764 0 0 0 0)
(0 0.249427 0 0.249427 -0.03805 0 0 0 0)
(-3.57443e-14 0.25088 0 0.25088 -0.0388754 0 0 0 0)
(0 0.245629 0 0.245629 -0.0383729 0 0 0 0)
(0 0.242656 0 0.242656 -0.0382364 0 0 0 0)
(0 0.246984 0 0.246984 -0.0396607 0 0 0 0)
(0 0.24446 0 0.24446 -0.0397506 0 0 0 0)
(3.05596e-14 0.238351 0 0.238351 -0.0390549 0 0 0 0)
(2.95204e-14 0.238893 0 0.238893 -0.0398047 0 0 0 0)
(0 0.237642 0 0.237642 -0.0402028 0 0 0 0)
(0 0.232782 0 0.232782 -0.0398376 0 0 0 0)
(0 0.228893 0 0.228893 -0.0397377 0 0 0 0)
(0 0.225068 0 0.225068 -0.0396261 0 0 0 0)
(0 0.221701 0 0.221701 -0.0396492 0 0 0 0)
(0 0.216067 0 0.216067 -0.039231 0 0 0 0)
(0 0.20732 0 0.20732 -0.0381488 0 0 0 0)
(0 0.197194 0 0.197194 -0.0367733 0 0 0 0)
(0 0.186924 0 0.186924 -0.0354272 0 0 0 0)
(0 0.171612 0 0.171612 -0.0330318 0 0 0 0)
(0 0.148142 0 0.148142 -0.0288348 0 0 0 0)
(0 0.1189 0 0.1189 -0.0234087 0 0 0 0)
(0 0.0864095 0 0.0864095 -0.0169685 0 0 0 0)
(-1.05425e-14 0.0671945 0 0.0671945 -0.0138333 0 0 0 0)
(0 0 0 0 -0 0 0 0 0)
(0 0 0 0 -0 0 0 0 0)
(0 0 0 0 0 0 0 0 0)
(-0 0 0 0 -0 0 0 0 0)
(0 0 0 0 -0 0 0 0 0)
(0 0 0 0 -0 0 0 0 0)
(-0 0 0 0 -0 0 0 0 0)
(0 0 0 0 0 0 0 0 0)
(0 0 0 0 -0 0 0 0 0)
(0 0 0 0 0 0 0 0 0)
(0 0 0 0 -0 0 0 0 0)
(0 0 0 0 0 0 0 0 0)
(0 0 0 0 -0 0 0 0 0)
(0 0 0 0 0 0 0 0 0)
(0 0 0 0 -0 0 0 0 0)
(0 0 0 0 -0 0 0 0 0)
(0 0 0 0 0 0 0 0 0)
(0 0 0 0 -0 0 0 0 0)
(0 0 0 0 0 0 0 0 0)
(0 0 0 0 -0 0 0 0 0)
(0 0 0 0 -0 0 0 0 0)
(0 0 0 0 0 0 0 0 0)
(0 0 0 0 -0 0 0 0 0)
(0 0 0 0 0 0 0 0 0)
(0 0 0 0 0 0 0 0 0)
(0 0 0 0 -0 0 0 0 0)
(0 0 0 0 0 0 0 0 0)
(0 0 0 0 -0 0 0 0 0)
(0 0 0 0 0 0 0 0 0)
(0 0 0 0 -0 0 0 0 0)
(0 0 0 0 0 0 0 0 0)
(0 0 0 0 -0 0 0 0 0)
(0 0 0 0 0 0 0 0 0)
(0 0 0 0 -0 0 0 0 0)
(0 0 0 0 0 0 0 0 0)
(0 0 0 0 -0 0 0 0 0)
(0 0 0 0 0 0 0 0 0)
(0 0 0 0 -0 0 0 0 0)
(0 0 0 0 0 0 0 0 0)
(0 0 0 0 -0 0 0 0 0)
(0 0 0 0 0 0 0 0 0)
(0 0 0 0 -0 0 0 0 0)
(0 -0 0 -0 0 0 0 0 0)
(0 0 0 0 -0 0 0 0 0)
(0 -0 0 -0 0 0 0 0 0)
(0 0 0 0 -0 0 0 0 0)
(0 -0 0 -0 0 0 0 0 0)
(0 0 0 0 -0 0 0 0 0)
(0 -0 0 -0 0 0 0 0 0)
(0 0 0 0 -0 0 0 0 0)
(0 -0 0 -0 0 0 0 0 0)
(0 0 0 0 -0 0 0 0 0)
(0 -0 0 -0 0 0 0 0 0)
(0 0 0 0 -0 0 0 0 0)
(0 -0 0 -0 0 0 0 0 0)
(-0 0 0 0 -0 0 0 0 0)
(0 -0 0 -0 0 0 0 0 0)
(0 0 0 0 -0 0 0 0 0)
(0 -0 0 -0 0 0 0 0 0)
(0 0 0 0 -0 0 0 0 0)
(0 -0 0 -0 0 0 0 0 0)
(0 0 0 0 -0 0 0 0 0)
(0 -0 0 -0 0 0 0 0 0)
(0 0 0 0 -0 0 0 0 0)
(0 -0 0 -0 0 0 0 0 0)
(0 0 0 0 -0 0 0 0 0)
(0 -0 0 -0 0 0 0 0 0)
(0 0 0 0 -0 0 0 0 0)
(0 -0 0 -0 0 0 0 0 0)
(0 0 0 0 -0 0 0 0 0)
(0 -0 0 -0 0 0 0 0 0)
(0 0 0 0 -0 0 0 0 0)
(0 -0 0 -0 0 0 0 0 0)
(0 0 0 0 -0 0 0 0 0)
(0 -0 0 -0 0 0 0 0 0)
(0 0 0 0 -0 0 0 0 0)
(0 -0 0 -0 0 0 0 0 0)
(0 0 0 0 -0 0 0 0 0)
(0 -0 0 -0 0 0 0 0 0)
(0 0 0 0 -0 0 0 0 0)
(0 -0 0 -0 0 0 0 0 0)
(0 0 0 0 -0 0 0 0 0)
(0 -0 0 -0 0 0 0 0 0)
(0 0 0 0 -0 0 0 0 0)
(0 -0 0 -0 0 0 0 0 0)
(0 0 0 0 -0 0 0 0 0)
(0 -0 0 -0 0 0 0 0 0)
(0 0 0 0 -0 0 0 0 0)
(0 -0 0 -0 0 0 0 0 0)
(0 0 0 0 -0 0 0 0 0)
(0 -0 0 -0 0 0 0 0 0)
(0 0 0 0 -0 0 0 0 0)
(0 -0 0 -0 0 0 0 0 0)
(0 0 0 0 -0 0 0 0 0)
(0 -0 0 -0 0 0 0 0 0)
(0 0 0 0 -0 0 0 0 0)
(0 -0 0 -0 0 0 0 0 0)
(0 0 0 0 -0 0 0 0 0)
(0 -0 0 -0 0 0 0 0 0)
(0 0 0 0 -0 0 0 0 0)
(0 -0 0 -0 0 0 0 0 0)
(0 0 0 0 -0 0 0 0 0)
(0 -0 0 -0 0 0 0 0 0)
(0 0 0 0 -0 0 0 0 0)
(0 -0 0 -0 0 0 0 0 0)
(0 0 0 0 -0 0 0 0 0)
(0 -0 0 -0 0 0 0 0 0)
(0 0 0 0 -0 0 0 0 0)
(0 -0 0 -0 0 0 0 0 0)
(0 0 0 0 0 0 0 0 0)
(0 0 0 0 0 0 0 0 0)
(0 0 0 0 0 0 0 0 0)
(0 0 0 0 0 0 0 0 0)
(0 0 0 0 0 0 0 0 0)
(0 0 0 0 0 0 0 0 0)
(0 0 0 0 0 0 0 0 0)
)
;

boundaryField
{
    inandouthalf11
    {
        type            cyclic;
    }
    inandouthalf12
    {
        type            cyclic;
    }
    inandouthalf21
    {
        type            cyclic;
    }
    inandouthalf22
    {
        type            cyclic;
    }
    inandouthalf31
    {
        type            cyclic;
    }
    inandouthalf32
    {
        type            cyclic;
    }
    inandouthalf41
    {
        type            cyclic;
    }
    inandouthalf42
    {
        type            cyclic;
    }
    top
    {
        type            symmetryPlane;
    }
    walls
    {
        type            zeroGradient;
    }
    frontAndBackPlanes
    {
        type            empty;
    }
}


// ************************************************************************* //
