/*--------------------------------*- C++ -*----------------------------------*\
| =========                 |                                                 |
| \\      /  F ield         | OpenFOAM: The Open Source CFD Toolbox           |
|  \\    /   O peration     | Version:  2.4.x                                 |
|   \\  /    A nd           | Web:      www.OpenFOAM.org                      |
|    \\/     M anipulation  |                                                 |
\*---------------------------------------------------------------------------*/
FoamFile
{
    version     2.0;
    format      ascii;
    class       volVectorField;
    location    "1.75";
    object      Ua;
}
// * * * * * * * * * * * * * * * * * * * * * * * * * * * * * * * * * * * * * //

dimensions      [0 1 -1 0 0 0 0];

internalField   nonuniform List<vector> 
360
(
(1.2994e-36 -6.90704e-36 0)
(1.29943e-36 -6.90425e-36 0)
(1.29946e-36 -6.90467e-36 0)
(1.29952e-36 -6.90526e-36 0)
(1.29961e-36 -6.90628e-36 0)
(1.29973e-36 -6.90772e-36 0)
(1.29988e-36 -6.90958e-36 0)
(1.30007e-36 -6.91187e-36 0)
(1.30029e-36 -6.91459e-36 0)
(1.30055e-36 -6.91775e-36 0)
(1.30085e-36 -6.92134e-36 0)
(1.30118e-36 -6.92537e-36 0)
(1.30156e-36 -6.92982e-36 0)
(1.30198e-36 -6.93472e-36 0)
(1.30244e-36 -6.94004e-36 0)
(1.30295e-36 -6.9458e-36 0)
(1.3035e-36 -6.95198e-36 0)
(1.30409e-36 -6.95857e-36 0)
(1.30474e-36 -6.96559e-36 0)
(1.30543e-36 -6.97302e-36 0)
(1.30616e-36 -6.98086e-36 0)
(1.30695e-36 -6.9891e-36 0)
(1.30779e-36 -6.99775e-36 0)
(1.30868e-36 -7.00679e-36 0)
(1.30962e-36 -7.01623e-36 0)
(1.31061e-36 -7.02604e-36 0)
(1.31165e-36 -7.03623e-36 0)
(1.31274e-36 -7.0468e-36 0)
(1.31389e-36 -7.05774e-36 0)
(1.31508e-36 -7.06905e-36 0)
(1.31634e-36 -7.08073e-36 0)
(1.31764e-36 -7.09278e-36 0)
(1.319e-36 -7.10518e-36 0)
(1.32042e-36 -7.11795e-36 0)
(1.32189e-36 -7.13109e-36 0)
(1.32341e-36 -7.1446e-36 0)
(1.325e-36 -7.15847e-36 0)
(1.32664e-36 -7.17273e-36 0)
(1.32834e-36 -7.18739e-36 0)
(1.33011e-36 -7.20245e-36 0)
(1.33193e-36 -7.21793e-36 0)
(1.33383e-36 -7.23384e-36 0)
(1.33578e-36 -7.25018e-36 0)
(1.33781e-36 -7.267e-36 0)
(1.33991e-36 -7.28431e-36 0)
(1.34209e-36 -7.30214e-36 0)
(1.34434e-36 -7.32052e-36 0)
(1.34668e-36 -7.33949e-36 0)
(1.34911e-36 -7.35908e-36 0)
(1.35164e-36 -7.37939e-36 0)
(1.35427e-36 -7.40049e-36 0)
(1.35702e-36 -7.42243e-36 0)
(1.3599e-36 -7.44532e-36 0)
(1.36292e-36 -7.46926e-36 0)
(1.3661e-36 -7.49438e-36 0)
(1.36945e-36 -7.52087e-36 0)
(1.37302e-36 -7.54892e-36 0)
(1.37683e-36 -7.57882e-36 0)
(1.38091e-36 -7.61083e-36 0)
(1.38534e-36 -7.64553e-36 0)
(1.39018e-36 -7.68327e-36 0)
(1.3956e-36 -7.72546e-36 0)
(1.40171e-36 -7.77291e-36 0)
(1.40912e-36 -7.83004e-36 0)
(1.41849e-36 -7.90171e-36 0)
(1.43323e-36 -8.0129e-36 0)
(1.46049e-36 -8.21561e-36 0)
(1.53795e-36 -8.78431e-36 0)
(1.88643e-36 -1.13209e-35 0)
(7.52985e-36 -5.23056e-35 0)
(2.8622e-34 -2.07812e-33 0)
(4.43337e-30 -3.23789e-29 0)
(1.496e-20 -1.10062e-19 0)
(1.0064e-08 -7.45674e-08 0)
(7.76193e-08 -5.72809e-07 0)
(2.41919e-07 -1.74612e-06 0)
(4.49693e-07 -3.14193e-06 0)
(6.27141e-07 -4.25344e-06 0)
(7.58439e-07 -5.03064e-06 0)
(8.59107e-07 -5.6052e-06 0)
(9.45777e-07 -6.08949e-06 0)
(1.03027e-06 -6.55559e-06 0)
(1.12078e-06 -7.04988e-06 0)
(1.22266e-06 -7.60011e-06 0)
(1.33826e-06 -8.21545e-06 0)
(1.46681e-06 -8.88756e-06 0)
(1.60549e-06 -9.59764e-06 0)
(1.75111e-06 -1.03268e-05 0)
(1.90153e-06 -1.10634e-05 0)
(2.05619e-06 -1.18046e-05 0)
(2.21576e-06 -1.25534e-05 0)
(2.3815e-06 -1.33156e-05 0)
(2.55473e-06 -1.40963e-05 0)
(2.73651e-06 -1.48989e-05 0)
(2.92749e-06 -1.57246e-05 0)
(3.12801e-06 -1.65732e-05 0)
(3.33823e-06 -1.74436e-05 0)
(3.5582e-06 -1.83345e-05 0)
(3.78797e-06 -1.92446e-05 0)
(4.02759e-06 -2.01726e-05 0)
(4.27702e-06 -2.11169e-05 0)
(4.5362e-06 -2.20758e-05 0)
(4.805e-06 -2.30475e-05 0)
(5.08332e-06 -2.40302e-05 0)
(5.37106e-06 -2.50223e-05 0)
(5.66822e-06 -2.60225e-05 0)
(5.97486e-06 -2.70297e-05 0)
(6.2911e-06 -2.8043e-05 0)
(6.61714e-06 -2.9062e-05 0)
(6.95326e-06 -3.0086e-05 0)
(7.29976e-06 -3.11148e-05 0)
(7.65707e-06 -3.21481e-05 0)
(8.02565e-06 -3.31858e-05 0)
(8.40608e-06 -3.4228e-05 0)
(8.79907e-06 -3.52749e-05 0)
(9.20546e-06 -3.63269e-05 0)
(9.6263e-06 -3.73848e-05 0)
(1.00629e-05 -3.84495e-05 0)
(1.05169e-05 -3.95226e-05 0)
(1.09904e-05 -4.06061e-05 0)
(1.1486e-05 -4.17027e-05 0)
(1.20069e-05 -4.28157e-05 0)
(1.2557e-05 -4.3949e-05 0)
(1.31407e-05 -4.51067e-05 0)
(1.37628e-05 -4.62922e-05 0)
(1.44282e-05 -4.7508e-05 0)
(1.51419e-05 -4.87549e-05 0)
(1.59099e-05 -5.00337e-05 0)
(1.67417e-05 -5.13483e-05 0)
(1.76547e-05 -5.27119e-05 0)
(1.86813e-05 -5.41552e-05 0)
(1.98762e-05 -5.57325e-05 0)
(2.13171e-05 -5.75192e-05 0)
(2.30754e-05 -5.95752e-05 0)
(2.51193e-05 -6.18344e-05 0)
(2.71817e-05 -6.39692e-05 0)
(2.88363e-05 -6.55287e-05 0)
(2.98623e-05 -6.63765e-05 0)
(3.03816e-05 -6.6742e-05 0)
(3.06166e-05 -6.68811e-05 0)
(3.07184e-05 -6.69308e-05 0)
(3.0764e-05 -6.69475e-05 0)
(3.07899e-05 -6.69535e-05 0)
(3.08136e-05 -6.69565e-05 0)
(3.08607e-05 -6.69586e-05 0)
(3.11731e-05 -6.6961e-05 0)
(0.0015139 -6.71219e-05 0)
(0.0311485 -7.32012e-05 0)
(0.101181 -0.000168889 0)
(0.197601 -7.31975e-05 0)
(0.364346 0.00121139 0)
(0.585548 0.00348237 0)
(0.76687 0.00532109 0)
(0.901037 0.00644452 0)
(0.995343 0.00701445 0)
(1.05647 0.00712568 0)
(1.09356 0.00670026 0)
(1.1172 0.00583152 0)
(1.13482 0.00482848 0)
(1.14949 0.003866 0)
(1.1622 0.00302287 0)
(1.17335 0.0022979 0)
(1.18324 0.00166582 0)
(1.19205 0.00111197 0)
(1.19996 0.000619008 0)
(1.20706 0.000181714 0)
(1.2135 -0.000213723 0)
(1.21935 -0.000570401 0)
(1.22468 -0.000894026 0)
(1.22957 -0.00119041 0)
(1.23406 -0.00146143 0)
(1.2382 -0.00171135 0)
(1.24202 -0.00194181 0)
(1.24558 -0.00215642 0)
(1.24889 -0.00235561 0)
(1.25197 -0.00254145 0)
(1.25486 -0.00271532 0)
(1.25757 -0.00287976 0)
(1.26012 -0.00303352 0)
(1.26252 -0.0031795 0)
(1.2648 -0.00331756 0)
(1.26695 -0.00344885 0)
(1.269 -0.00357394 0)
(1.27095 -0.00369327 0)
(1.27282 -0.00380785 0)
(1.2746 -0.00391771 0)
(1.27631 -0.00402321 0)
(1.27795 -0.00412483 0)
(1.27954 -0.00422405 0)
(1.28106 -0.00431898 0)
(1.28254 -0.00441152 0)
(1.28396 -0.00450147 0)
(1.28535 -0.00458929 0)
(1.2867 -0.00467517 0)
(1.28802 -0.00475865 0)
(1.28929 -0.00483987 0)
(1.29053 -0.0049195 0)
(1.29175 -0.00499882 0)
(1.29296 -0.00507713 0)
(1.29413 -0.00515342 0)
(1.29527 -0.00522738 0)
(1.29639 -0.00530095 0)
(1.29752 -0.00537541 0)
(1.29868 -0.00545285 0)
(1.29985 -0.00553107 0)
(1.301 -0.00560791 0)
(1.30214 -0.00568382 0)
(1.3033 -0.00576185 0)
(1.3045 -0.0058444 0)
(1.30571 -0.00592763 0)
(1.3069 -0.00600886 0)
(1.30809 -0.00609127 0)
(1.30934 -0.00617845 0)
(1.31059 -0.00626682 0)
(1.31182 -0.0063531 0)
(1.31307 -0.00644218 0)
(1.31439 -0.00653783 0)
(1.31573 -0.00663479 0)
(1.31702 -0.00672927 0)
(1.31835 -0.00682638 0)
(1.31975 -0.00693086 0)
(1.32116 -0.00703787 0)
(1.32257 -0.00714453 0)
(1.32404 -0.00725733 0)
(1.32555 -0.00737489 0)
(1.32704 -0.0074915 0)
(1.3286 -0.00761548 0)
(1.33024 -0.00774871 0)
(1.33187 -0.00788171 0)
(1.33354 -0.00801938 0)
(1.3353 -0.00816734 0)
(1.33708 -0.00831853 0)
(1.3389 -0.00847546 0)
(1.34077 -0.00863847 0)
(1.34269 -0.00880849 0)
(1.34466 -0.00898712 0)
(1.34667 -0.00917069 0)
(1.3487 -0.00935835 0)
(1.35074 -0.00954985 0)
(1.35281 -0.00974781 0)
(1.3548 -0.00994032 0)
(1.35662 -0.0101189 0)
(1.35819 -0.0102744 0)
(1.35945 -0.0103962 0)
(1.36089 -0.0105526 0)
(1.48001 -0.0395473 0)
(1.48001 -0.0395472 0)
(1.48001 -0.0395473 0)
(1.48001 -0.0395473 0)
(1.48001 -0.0395473 0)
(1.48002 -0.0395473 0)
(1.48002 -0.0395473 0)
(1.48002 -0.0395473 0)
(1.48002 -0.0395473 0)
(1.48002 -0.0395473 0)
(1.48002 -0.0395473 0)
(1.48002 -0.0395472 0)
(1.48002 -0.0395473 0)
(1.48002 -0.0395472 0)
(1.48002 -0.0395473 0)
(1.48002 -0.0395472 0)
(1.48002 -0.0395473 0)
(1.48002 -0.0395472 0)
(1.48002 -0.0395473 0)
(1.48002 -0.0395472 0)
(1.48002 -0.0395473 0)
(1.48002 -0.0395472 0)
(1.48002 -0.0395473 0)
(1.48002 -0.0395472 0)
(1.48002 -0.0395473 0)
(1.48002 -0.0395472 0)
(1.48002 -0.0395473 0)
(1.48002 -0.0395472 0)
(1.48002 -0.0395473 0)
(1.48002 -0.0395472 0)
(1.48002 -0.0395473 0)
(1.48002 -0.0395472 0)
(1.48002 -0.0395473 0)
(1.48002 -0.0395472 0)
(1.48002 -0.0395473 0)
(1.48002 -0.0395472 0)
(1.48002 -0.0395473 0)
(1.48002 -0.0395472 0)
(1.48002 -0.0395473 0)
(1.48002 -0.0395472 0)
(1.48002 -0.0395473 0)
(1.48002 -0.0395472 0)
(1.48002 -0.0395473 0)
(1.48002 -0.0395472 0)
(1.48002 -0.0395473 0)
(1.48002 -0.0395472 0)
(1.48002 -0.0395473 0)
(1.48002 -0.0395472 0)
(1.48002 -0.0395473 0)
(1.48002 -0.0395472 0)
(1.48002 -0.0395473 0)
(1.48002 -0.0395472 0)
(1.48002 -0.0395473 0)
(1.48002 -0.0395473 0)
(1.48002 -0.0395473 0)
(1.48002 -0.0395473 0)
(1.48002 -0.0395473 0)
(1.48002 -0.0395473 0)
(1.48002 -0.0395473 0)
(1.48002 -0.0395473 0)
(1.48002 -0.0395473 0)
(1.48002 -0.0395473 0)
(1.48002 -0.0395473 0)
(1.48002 -0.0395473 0)
(1.48002 -0.0395473 0)
(1.48002 -0.0395473 0)
(1.48002 -0.0395473 0)
(1.48002 -0.0395473 0)
(1.48002 -0.0395473 0)
(1.48002 -0.0395473 0)
(1.48002 -0.0395473 0)
(1.48002 -0.0395473 0)
(1.48002 -0.0395473 0)
(1.48002 -0.0395473 0)
(1.48002 -0.0395473 0)
(1.48002 -0.0395473 0)
(1.48002 -0.0395473 0)
(1.48002 -0.0395473 0)
(1.48002 -0.0395473 0)
(1.48002 -0.0395473 0)
(1.48002 -0.0395473 0)
(1.48002 -0.0395473 0)
(1.48002 -0.0395473 0)
(1.48002 -0.0395473 0)
(1.48002 -0.0395473 0)
(1.48002 -0.0395473 0)
(1.48002 -0.0395473 0)
(1.48002 -0.0395473 0)
(1.48002 -0.0395473 0)
(1.48002 -0.0395473 0)
(1.48002 -0.0395473 0)
(1.48002 -0.0395473 0)
(1.48002 -0.0395473 0)
(1.48002 -0.0395473 0)
(1.48002 -0.0395473 0)
(1.48002 -0.0395473 0)
(1.48002 -0.0395473 0)
(1.48002 -0.0395473 0)
(1.48002 -0.0395473 0)
(1.48002 -0.0395473 0)
(1.48002 -0.0395473 0)
(1.48002 -0.0395473 0)
(1.48002 -0.0395473 0)
(1.48002 -0.0395473 0)
(1.48002 -0.0395473 0)
(1.48002 -0.0395473 0)
(1.48002 -0.0395473 0)
(1.48002 -0.0395473 0)
(1.48002 -0.0395473 0)
(1.48002 -0.0395473 0)
(1.48002 -0.0395473 0)
(1.48002 -0.0395471 0)
(1.48002 -0.0395386 0)
(1.48003 -0.039194 0)
(1.48018 -0.0224948 0)
)
;

boundaryField
{
    inandouthalf11
    {
        type            cyclic;
    }
    inandouthalf12
    {
        type            cyclic;
    }
    inandouthalf21
    {
        type            cyclic;
    }
    inandouthalf22
    {
        type            cyclic;
    }
    inandouthalf31
    {
        type            cyclic;
    }
    inandouthalf32
    {
        type            cyclic;
    }
    inandouthalf41
    {
        type            cyclic;
    }
    inandouthalf42
    {
        type            cyclic;
    }
    top
    {
        type            symmetryPlane;
    }
    walls
    {
        type            fixedValue;
        value           uniform (0 0 0);
    }
    frontAndBackPlanes
    {
        type            empty;
    }
}


// ************************************************************************* //
