/*--------------------------------*- C++ -*----------------------------------*\
| =========                 |                                                 |
| \\      /  F ield         | OpenFOAM: The Open Source CFD Toolbox           |
|  \\    /   O peration     | Version:  2.4.x                                 |
|   \\  /    A nd           | Web:      www.OpenFOAM.org                      |
|    \\/     M anipulation  |                                                 |
\*---------------------------------------------------------------------------*/
FoamFile
{
    version     2.0;
    format      ascii;
    class       surfaceScalarField;
    location    "10.3";
    object      ddt0(phia);
}
// * * * * * * * * * * * * * * * * * * * * * * * * * * * * * * * * * * * * * //

dimensions      [0 3 -2 0 0 0 0];

internalField   nonuniform List<scalar> 
359
(
1.32552e-14
3.27556e-14
4.84616e-14
6.16108e-14
7.42577e-14
8.69327e-14
9.98327e-14
1.13247e-13
1.27471e-13
1.42748e-13
1.5925e-13
1.77083e-13
1.96319e-13
2.16993e-13
2.39125e-13
2.62718e-13
2.87762e-13
3.14234e-13
3.42103e-13
3.71339e-13
4.01896e-13
4.33741e-13
4.66831e-13
5.01128e-13
5.36591e-13
5.7318e-13
6.10854e-13
6.49583e-13
6.89328e-13
7.30052e-13
7.71721e-13
8.14312e-13
8.57776e-13
9.02106e-13
9.47253e-13
9.93199e-13
1.03991e-12
1.08735e-12
1.13552e-12
1.18436e-12
1.23387e-12
1.28401e-12
1.33474e-12
1.38605e-12
1.43791e-12
1.49029e-12
1.54316e-12
1.59648e-12
1.65022e-12
1.70438e-12
1.7589e-12
1.81375e-12
1.86891e-12
1.92435e-12
1.98002e-12
2.03591e-12
2.09195e-12
2.14815e-12
2.20444e-12
2.26077e-12
2.31715e-12
2.37351e-12
2.42986e-12
2.48613e-12
2.5423e-12
2.59831e-12
2.65415e-12
2.70977e-12
2.76512e-12
2.82016e-12
2.87488e-12
2.92926e-12
2.98323e-12
3.03678e-12
3.08988e-12
3.14251e-12
3.19462e-12
3.24616e-12
3.29711e-12
3.34744e-12
3.39711e-12
3.44611e-12
3.49441e-12
3.54199e-12
3.58885e-12
3.63495e-12
3.68027e-12
3.72478e-12
3.76846e-12
3.81128e-12
3.85322e-12
3.89426e-12
3.93439e-12
3.9736e-12
4.01188e-12
4.04922e-12
4.08561e-12
4.12104e-12
4.15551e-12
4.189e-12
4.22152e-12
4.25306e-12
4.28362e-12
4.31321e-12
4.34182e-12
4.36943e-12
4.39604e-12
4.42162e-12
4.44612e-12
4.4695e-12
4.49168e-12
4.51261e-12
4.53221e-12
4.5504e-12
4.56715e-12
4.58244e-12
4.59632e-12
4.60889e-12
4.62033e-12
4.63087e-12
4.64076e-12
4.6502e-12
4.65925e-12
4.6677e-12
4.67495e-12
4.67996e-12
4.68128e-12
4.67717e-12
4.66581e-12
4.64554e-12
4.6151e-12
4.57402e-12
4.52322e-12
4.46659e-12
4.41348e-12
4.38026e-12
4.38408e-12
4.42608e-12
4.48091e-12
4.51642e-12
4.52614e-12
4.52554e-12
4.28573e-10
1.17601e-09
2.00692e-09
3.04144e-09
4.31734e-09
6.34233e-09
8.78858e-09
1.62177e-09
2.62773e-08
6.20303e-08
7.82822e-08
6.02343e-08
3.47499e-08
9.83136e-09
-1.18626e-08
-2.93121e-08
-4.26007e-08
-5.23048e-08
-5.91115e-08
-6.36651e-08
-6.65168e-08
-6.81129e-08
-6.88018e-08
-6.88497e-08
-6.84555e-08
-6.77657e-08
-6.68869e-08
-6.58957e-08
-6.48459e-08
-6.37754e-08
-6.27097e-08
-6.16659e-08
-6.06549e-08
-5.96831e-08
-5.87542e-08
-5.78693e-08
-5.70285e-08
-5.62304e-08
-5.54732e-08
-5.47546e-08
-5.40717e-08
-5.34214e-08
-5.28001e-08
-5.22043e-08
-5.16297e-08
-5.10717e-08
-5.05251e-08
-4.99841e-08
-4.94419e-08
-4.88903e-08
-4.832e-08
-4.772e-08
-4.70781e-08
-4.63816e-08
-4.56191e-08
-4.47833e-08
-4.38749e-08
-4.29062e-08
-4.19046e-08
-4.08926e-08
-3.99312e-08
-3.90966e-08
-3.84678e-08
-3.81073e-08
-3.80379e-08
-3.82282e-08
-3.86073e-08
-3.90992e-08
-3.96426e-08
-4.01896e-08
-4.0698e-08
-4.11241e-08
-4.14197e-08
-4.15322e-08
-4.14111e-08
-4.10188e-08
-4.0343e-08
-3.94014e-08
-3.82435e-08
-3.69352e-08
-3.55465e-08
-3.41381e-08
-3.27574e-08
-3.14346e-08
-3.01902e-08
-2.90309e-08
-2.79644e-08
-2.69849e-08
-2.60989e-08
-2.52933e-08
-2.45817e-08
-2.39153e-08
-2.34315e-08
-2.23773e-08
-8.52171e-09
-2.74945e-09
3.67666e-09
9.44645e-09
1.41758e-08
1.72246e-08
1.8732e-08
1.97529e-08
1.52998e-08
1.57267e-08
9.20347e-09
8.87574e-09
-8.11472e-10
-3.91369e-09
-6.9331e-08
-8.5441e-08
-5.9438e-09
7.99576e-11
9.9003e-11
1.10504e-10
1.1973e-10
1.2569e-10
1.28939e-10
1.29754e-10
1.28363e-10
1.24934e-10
1.19576e-10
1.12344e-10
1.03239e-10
9.2202e-11
7.90782e-11
6.35421e-11
4.49018e-11
2.11932e-11
-4.82465e-12
-1.1501e-10
-1.02167e-10
3.76008e-11
4.51569e-11
4.46191e-11
4.46063e-11
4.46064e-11
4.46056e-11
4.46047e-11
4.46043e-11
4.46038e-11
4.46032e-11
4.46025e-11
4.46019e-11
4.46012e-11
4.46004e-11
4.45995e-11
4.45988e-11
4.45981e-11
4.45972e-11
4.45964e-11
4.45955e-11
4.45948e-11
4.45937e-11
4.45927e-11
4.45928e-11
4.45929e-11
4.45926e-11
4.45927e-11
4.45924e-11
4.45926e-11
4.45923e-11
4.45924e-11
4.45921e-11
4.45923e-11
4.4592e-11
4.45922e-11
4.4592e-11
4.45923e-11
4.45921e-11
4.45924e-11
4.45922e-11
4.45924e-11
4.45923e-11
4.45926e-11
4.45926e-11
4.45929e-11
4.45929e-11
4.45934e-11
4.45934e-11
4.45939e-11
4.45941e-11
4.45947e-11
4.4595e-11
4.45958e-11
4.45966e-11
4.45987e-11
4.4601e-11
4.46048e-11
4.46086e-11
4.46132e-11
4.46173e-11
4.46223e-11
4.46271e-11
4.46327e-11
4.46375e-11
4.4643e-11
4.46482e-11
4.4654e-11
4.46597e-11
4.46653e-11
4.46708e-11
4.46765e-11
4.46873e-11
4.46963e-11
4.47049e-11
4.47089e-11
4.47172e-11
4.47178e-11
4.47182e-11
4.47119e-11
4.47205e-11
4.47176e-11
4.47139e-11
4.46946e-11
4.47111e-11
4.5254e-11
6.99645e-11
)
;

boundaryField
{
    inandouthalf11
    {
        type            cyclic;
        value           nonuniform List<scalar> 
100
(
2.42962e-38
3.98741e-15
8.22869e-15
1.19654e-14
1.56816e-14
1.94414e-14
2.3138e-14
2.67281e-14
3.02158e-14
3.3613e-14
3.69305e-14
4.0177e-14
4.33608e-14
4.64908e-14
4.95769e-14
5.26295e-14
5.56591e-14
5.86758e-14
6.16893e-14
6.47091e-14
6.77439e-14
7.08022e-14
7.38922e-14
7.70214e-14
8.0197e-14
8.34253e-14
8.67122e-14
9.00635e-14
9.34843e-14
9.69792e-14
1.00552e-13
1.04207e-13
1.07948e-13
1.11777e-13
1.15698e-13
1.19712e-13
1.23823e-13
1.28031e-13
1.32339e-13
1.36749e-13
1.41261e-13
1.45876e-13
1.50596e-13
1.55422e-13
1.60353e-13
1.65391e-13
1.70536e-13
1.75786e-13
1.81143e-13
1.86607e-13
1.92178e-13
1.97855e-13
2.03637e-13
2.09524e-13
2.15515e-13
2.2161e-13
2.27807e-13
2.34106e-13
2.40504e-13
2.46999e-13
2.53591e-13
2.60278e-13
2.6706e-13
2.73934e-13
2.80898e-13
2.87951e-13
2.95088e-13
3.0231e-13
3.09611e-13
3.16988e-13
3.2444e-13
3.31967e-13
3.39563e-13
3.47226e-13
3.54954e-13
3.62745e-13
3.70596e-13
3.785e-13
3.86454e-13
3.94456e-13
4.02501e-13
4.10585e-13
4.18707e-13
4.26864e-13
4.35054e-13
4.43272e-13
4.51517e-13
4.59783e-13
4.68067e-13
4.76363e-13
4.84669e-13
4.9298e-13
5.01294e-13
5.09609e-13
5.17924e-13
5.26236e-13
5.34544e-13
5.42846e-13
5.51139e-13
5.59423e-13
)
;
    }
    inandouthalf12
    {
        type            cyclic;
        value           nonuniform List<scalar> 
100
(
-2.42962e-38
-3.98741e-15
-8.22869e-15
-1.19654e-14
-1.56816e-14
-1.94414e-14
-2.3138e-14
-2.67281e-14
-3.02158e-14
-3.3613e-14
-3.69305e-14
-4.0177e-14
-4.33608e-14
-4.64908e-14
-4.95769e-14
-5.26295e-14
-5.56591e-14
-5.86758e-14
-6.16893e-14
-6.47091e-14
-6.77439e-14
-7.08022e-14
-7.38922e-14
-7.70214e-14
-8.0197e-14
-8.34253e-14
-8.67122e-14
-9.00635e-14
-9.34843e-14
-9.69792e-14
-1.00552e-13
-1.04207e-13
-1.07948e-13
-1.11777e-13
-1.15698e-13
-1.19712e-13
-1.23823e-13
-1.28031e-13
-1.32339e-13
-1.36749e-13
-1.41261e-13
-1.45876e-13
-1.50596e-13
-1.55422e-13
-1.60353e-13
-1.65391e-13
-1.70536e-13
-1.75786e-13
-1.81143e-13
-1.86607e-13
-1.92178e-13
-1.97855e-13
-2.03637e-13
-2.09524e-13
-2.15515e-13
-2.2161e-13
-2.27807e-13
-2.34106e-13
-2.40504e-13
-2.46999e-13
-2.53591e-13
-2.60278e-13
-2.6706e-13
-2.73934e-13
-2.80898e-13
-2.87951e-13
-2.95088e-13
-3.0231e-13
-3.09611e-13
-3.16988e-13
-3.2444e-13
-3.31967e-13
-3.39563e-13
-3.47226e-13
-3.54954e-13
-3.62745e-13
-3.70596e-13
-3.785e-13
-3.86454e-13
-3.94456e-13
-4.02501e-13
-4.10585e-13
-4.18707e-13
-4.26864e-13
-4.35054e-13
-4.43272e-13
-4.51517e-13
-4.59783e-13
-4.68067e-13
-4.76363e-13
-4.84669e-13
-4.9298e-13
-5.01294e-13
-5.09609e-13
-5.17924e-13
-5.26236e-13
-5.34544e-13
-5.42846e-13
-5.51139e-13
-5.59423e-13
)
;
    }
    inandouthalf21
    {
        type            cyclic;
        value           nonuniform List<scalar> 
100
(
5.67695e-13
5.75955e-13
5.84202e-13
5.92438e-13
6.00663e-13
6.08879e-13
6.17087e-13
6.25289e-13
6.33489e-13
6.41688e-13
6.49892e-13
6.58102e-13
6.66324e-13
6.74562e-13
6.82824e-13
6.91117e-13
6.99449e-13
7.07832e-13
7.16277e-13
7.24796e-13
7.33399e-13
7.42088e-13
7.50853e-13
7.59663e-13
7.68459e-13
7.77152e-13
7.8562e-13
7.93722e-13
8.01316e-13
8.08284e-13
8.14558e-13
8.2016e-13
8.25259e-13
8.30295e-13
8.36199e-13
8.4464e-13
8.57779e-13
8.76435e-13
8.97057e-13
9.1203e-13
9.17416e-13
9.17919e-13
9.18224e-13
-7.96569e-11
-1.94231e-10
-3.19565e-10
-4.70107e-10
-6.55724e-10
-8.77733e-10
1.05514e-09
4.7749e-07
6.94445e-07
8.03702e-07
8.73209e-07
9.24018e-07
9.64466e-07
9.9829e-07
1.0274e-06
1.0529e-06
1.07551e-06
1.09572e-06
1.11392e-06
1.1304e-06
1.14541e-06
1.15913e-06
1.17174e-06
1.18337e-06
1.19413e-06
1.20413e-06
1.21345e-06
1.22216e-06
1.23031e-06
1.23797e-06
1.24518e-06
1.25197e-06
1.2584e-06
1.26447e-06
1.27024e-06
1.27571e-06
1.28091e-06
1.28586e-06
1.29059e-06
1.29509e-06
1.2994e-06
1.30352e-06
1.30746e-06
1.31125e-06
1.31487e-06
1.31835e-06
1.32169e-06
1.32489e-06
1.32797e-06
1.33093e-06
1.33377e-06
1.3365e-06
1.33911e-06
1.34162e-06
1.34402e-06
1.34632e-06
1.34852e-06
)
;
    }
    inandouthalf22
    {
        type            cyclic;
        value           nonuniform List<scalar> 
100
(
-5.67695e-13
-5.75955e-13
-5.84202e-13
-5.92438e-13
-6.00663e-13
-6.08879e-13
-6.17087e-13
-6.25289e-13
-6.33489e-13
-6.41688e-13
-6.49892e-13
-6.58102e-13
-6.66324e-13
-6.74562e-13
-6.82824e-13
-6.91117e-13
-6.99449e-13
-7.07832e-13
-7.16277e-13
-7.24796e-13
-7.33399e-13
-7.42088e-13
-7.50853e-13
-7.59663e-13
-7.68459e-13
-7.77152e-13
-7.8562e-13
-7.93722e-13
-8.01316e-13
-8.08284e-13
-8.14558e-13
-8.2016e-13
-8.25259e-13
-8.30295e-13
-8.36199e-13
-8.4464e-13
-8.57779e-13
-8.76435e-13
-8.97057e-13
-9.1203e-13
-9.17416e-13
-9.17919e-13
-9.18224e-13
7.96569e-11
1.94231e-10
3.19565e-10
4.70107e-10
6.55724e-10
8.77733e-10
-1.05514e-09
-4.7749e-07
-6.94445e-07
-8.03702e-07
-8.73209e-07
-9.24018e-07
-9.64466e-07
-9.9829e-07
-1.0274e-06
-1.0529e-06
-1.07551e-06
-1.09572e-06
-1.11392e-06
-1.1304e-06
-1.14541e-06
-1.15913e-06
-1.17174e-06
-1.18337e-06
-1.19413e-06
-1.20413e-06
-1.21345e-06
-1.22216e-06
-1.23031e-06
-1.23797e-06
-1.24518e-06
-1.25197e-06
-1.2584e-06
-1.26447e-06
-1.27024e-06
-1.27571e-06
-1.28091e-06
-1.28586e-06
-1.29059e-06
-1.29509e-06
-1.2994e-06
-1.30352e-06
-1.30746e-06
-1.31125e-06
-1.31487e-06
-1.31835e-06
-1.32169e-06
-1.32489e-06
-1.32797e-06
-1.33093e-06
-1.33377e-06
-1.3365e-06
-1.33911e-06
-1.34162e-06
-1.34402e-06
-1.34632e-06
-1.34852e-06
)
;
    }
    inandouthalf31
    {
        type            cyclic;
        value           nonuniform List<scalar> 
110
(
1.35063e-06
1.38011e-06
1.41018e-06
1.44084e-06
1.4721e-06
1.50397e-06
1.53646e-06
1.56958e-06
1.60333e-06
1.63772e-06
1.67275e-06
1.70842e-06
1.74474e-06
1.78169e-06
1.81927e-06
1.8575e-06
1.89638e-06
1.9359e-06
1.97609e-06
2.01697e-06
2.05855e-06
2.10087e-06
2.14395e-06
2.18782e-06
2.23251e-06
2.27804e-06
2.32443e-06
2.37172e-06
2.41991e-06
2.46904e-06
2.51913e-06
2.57022e-06
2.62231e-06
2.67546e-06
2.72968e-06
2.78505e-06
2.84153e-06
2.87908e-06
2.92827e-06
2.97589e-06
3.02417e-06
3.07377e-06
3.12476e-06
3.17749e-06
3.23237e-06
3.2887e-06
3.34761e-06
3.40772e-06
3.47063e-06
3.53476e-06
3.60093e-06
3.67645e-06
3.73936e-06
3.81151e-06
3.88431e-06
3.95971e-06
4.03688e-06
4.11593e-06
4.19687e-06
4.27976e-06
4.36465e-06
4.45158e-06
4.54061e-06
4.63182e-06
4.72528e-06
4.82107e-06
4.91928e-06
5.02003e-06
5.12343e-06
5.2296e-06
5.33868e-06
5.45076e-06
5.56799e-06
5.68509e-06
5.80087e-06
5.91862e-06
6.03875e-06
6.16132e-06
6.28638e-06
6.41397e-06
6.54416e-06
6.67699e-06
6.81252e-06
6.95079e-06
7.09187e-06
7.23582e-06
7.38269e-06
7.53254e-06
7.68543e-06
7.84142e-06
8.00058e-06
8.16297e-06
8.32866e-06
8.49771e-06
8.67019e-06
8.84617e-06
9.02572e-06
9.20892e-06
9.39584e-06
9.58655e-06
9.78113e-06
9.97966e-06
1.01822e-05
1.03889e-05
1.05998e-05
1.08149e-05
1.10344e-05
1.12584e-05
1.14869e-05
1.17201e-05
)
;
    }
    inandouthalf32
    {
        type            cyclic;
        value           nonuniform List<scalar> 
110
(
-1.35063e-06
-1.38011e-06
-1.41018e-06
-1.44084e-06
-1.4721e-06
-1.50397e-06
-1.53646e-06
-1.56958e-06
-1.60333e-06
-1.63772e-06
-1.67275e-06
-1.70842e-06
-1.74474e-06
-1.78169e-06
-1.81927e-06
-1.8575e-06
-1.89638e-06
-1.9359e-06
-1.97609e-06
-2.01697e-06
-2.05855e-06
-2.10087e-06
-2.14395e-06
-2.18782e-06
-2.23251e-06
-2.27804e-06
-2.32443e-06
-2.37172e-06
-2.41991e-06
-2.46904e-06
-2.51913e-06
-2.57022e-06
-2.62231e-06
-2.67546e-06
-2.72968e-06
-2.78505e-06
-2.84153e-06
-2.87908e-06
-2.92827e-06
-2.97589e-06
-3.02417e-06
-3.07377e-06
-3.12476e-06
-3.17749e-06
-3.23237e-06
-3.2887e-06
-3.34761e-06
-3.40772e-06
-3.47063e-06
-3.53476e-06
-3.60093e-06
-3.67645e-06
-3.73936e-06
-3.81151e-06
-3.88431e-06
-3.95971e-06
-4.03688e-06
-4.11593e-06
-4.19687e-06
-4.27976e-06
-4.36465e-06
-4.45158e-06
-4.54061e-06
-4.63182e-06
-4.72528e-06
-4.82107e-06
-4.91928e-06
-5.02003e-06
-5.12343e-06
-5.2296e-06
-5.33868e-06
-5.45076e-06
-5.56799e-06
-5.68509e-06
-5.80087e-06
-5.91862e-06
-6.03875e-06
-6.16132e-06
-6.28638e-06
-6.41397e-06
-6.54416e-06
-6.67699e-06
-6.81252e-06
-6.95079e-06
-7.09187e-06
-7.23582e-06
-7.38269e-06
-7.53254e-06
-7.68543e-06
-7.84142e-06
-8.00058e-06
-8.16297e-06
-8.32866e-06
-8.49771e-06
-8.67019e-06
-8.84617e-06
-9.02572e-06
-9.20892e-06
-9.39584e-06
-9.58655e-06
-9.78113e-06
-9.97966e-06
-1.01822e-05
-1.03889e-05
-1.05998e-05
-1.08149e-05
-1.10344e-05
-1.12584e-05
-1.14869e-05
-1.17201e-05
)
;
    }
    inandouthalf41
    {
        type            cyclic;
        value           nonuniform List<scalar> 
50
(
1.04906e-05
1.04906e-05
1.04906e-05
1.04906e-05
1.04906e-05
1.04906e-05
1.04906e-05
1.04906e-05
1.04906e-05
1.04906e-05
1.04906e-05
1.04906e-05
1.04906e-05
1.04906e-05
1.04906e-05
1.04906e-05
1.04906e-05
1.04906e-05
1.04906e-05
1.04906e-05
1.04906e-05
1.04906e-05
1.04906e-05
1.04906e-05
1.04906e-05
1.04906e-05
1.04906e-05
1.04906e-05
1.04906e-05
1.04906e-05
1.04906e-05
1.04906e-05
1.04906e-05
1.04906e-05
1.04906e-05
1.04906e-05
1.04906e-05
1.04906e-05
1.04906e-05
1.04906e-05
1.04906e-05
1.04906e-05
1.04906e-05
1.04906e-05
1.04906e-05
1.04906e-05
1.04906e-05
1.04906e-05
1.04906e-05
1.04902e-05
)
;
    }
    inandouthalf42
    {
        type            cyclic;
        value           nonuniform List<scalar> 
50
(
-1.04906e-05
-1.04906e-05
-1.04906e-05
-1.04906e-05
-1.04906e-05
-1.04906e-05
-1.04906e-05
-1.04906e-05
-1.04906e-05
-1.04906e-05
-1.04906e-05
-1.04906e-05
-1.04906e-05
-1.04906e-05
-1.04906e-05
-1.04906e-05
-1.04906e-05
-1.04906e-05
-1.04906e-05
-1.04906e-05
-1.04906e-05
-1.04906e-05
-1.04906e-05
-1.04906e-05
-1.04906e-05
-1.04906e-05
-1.04906e-05
-1.04906e-05
-1.04906e-05
-1.04906e-05
-1.04906e-05
-1.04906e-05
-1.04906e-05
-1.04906e-05
-1.04906e-05
-1.04906e-05
-1.04906e-05
-1.04906e-05
-1.04906e-05
-1.04906e-05
-1.04906e-05
-1.04906e-05
-1.04906e-05
-1.04906e-05
-1.04906e-05
-1.04906e-05
-1.04906e-05
-1.04906e-05
-1.04906e-05
-1.04902e-05
)
;
    }
    top
    {
        type            symmetryPlane;
        value           uniform 0;
    }
    walls
    {
        type            calculated;
        value           uniform 0;
    }
    frontAndBackPlanes
    {
        type            empty;
        value           nonuniform 0();
    }
}


// ************************************************************************* //
