/*--------------------------------*- C++ -*----------------------------------*\
| =========                 |                                                 |
| \\      /  F ield         | OpenFOAM: The Open Source CFD Toolbox           |
|  \\    /   O peration     | Version:  2.4.x                                 |
|   \\  /    A nd           | Web:      www.OpenFOAM.org                      |
|    \\/     M anipulation  |                                                 |
\*---------------------------------------------------------------------------*/
FoamFile
{
    version     2.0;
    format      ascii;
    class       volVectorField;
    location    "10.3";
    object      ddt0(Ua);
}
// * * * * * * * * * * * * * * * * * * * * * * * * * * * * * * * * * * * * * //

dimensions      [0 1 -2 0 0 0 0];

internalField   nonuniform List<vector> 
360
(
(-2.42962e-32 3.02731e-33 0)
(-3.98741e-09 6.1846e-09 0)
(-8.22869e-09 1.0533e-08 0)
(-1.19654e-08 1.3823e-08 0)
(-1.56816e-08 1.69738e-08 0)
(-1.94414e-08 2.01404e-08 0)
(-2.3138e-08 2.33251e-08 0)
(-2.67281e-08 2.65933e-08 0)
(-3.02158e-08 3.00303e-08 0)
(-3.3613e-08 3.37053e-08 0)
(-3.69305e-08 3.7669e-08 0)
(-4.0177e-08 4.19556e-08 0)
(-4.33608e-08 4.65862e-08 0)
(-4.64908e-08 5.15732e-08 0)
(-4.95769e-08 5.69233e-08 0)
(-5.26295e-08 6.26391e-08 0)
(-5.56591e-08 6.87198e-08 0)
(-5.86758e-08 7.5161e-08 0)
(-6.16893e-08 8.19558e-08 0)
(-6.47091e-08 8.90963e-08 0)
(-6.77439e-08 9.65729e-08 0)
(-7.08022e-08 1.04375e-07 0)
(-7.38922e-08 1.12495e-07 0)
(-7.70214e-08 1.20921e-07 0)
(-8.0197e-08 1.29643e-07 0)
(-8.34253e-08 1.38652e-07 0)
(-8.67122e-08 1.47937e-07 0)
(-9.00635e-08 1.5749e-07 0)
(-9.34843e-08 1.67301e-07 0)
(-9.69792e-08 1.77362e-07 0)
(-1.00552e-07 1.87663e-07 0)
(-1.04207e-07 1.98198e-07 0)
(-1.07948e-07 2.08957e-07 0)
(-1.11777e-07 2.19933e-07 0)
(-1.15698e-07 2.31119e-07 0)
(-1.19712e-07 2.42508e-07 0)
(-1.23823e-07 2.54091e-07 0)
(-1.28031e-07 2.65862e-07 0)
(-1.32339e-07 2.77816e-07 0)
(-1.36749e-07 2.89944e-07 0)
(-1.41261e-07 3.02239e-07 0)
(-1.45876e-07 3.14697e-07 0)
(-1.50596e-07 3.27307e-07 0)
(-1.55422e-07 3.40063e-07 0)
(-1.60353e-07 3.52962e-07 0)
(-1.65391e-07 3.65993e-07 0)
(-1.70536e-07 3.79153e-07 0)
(-1.75786e-07 3.92428e-07 0)
(-1.81143e-07 4.05811e-07 0)
(-1.86607e-07 4.19301e-07 0)
(-1.92178e-07 4.32888e-07 0)
(-1.97855e-07 4.46561e-07 0)
(-2.03637e-07 4.60315e-07 0)
(-2.09524e-07 4.74142e-07 0)
(-2.15515e-07 4.88032e-07 0)
(-2.2161e-07 5.01978e-07 0)
(-2.27807e-07 5.15973e-07 0)
(-2.34106e-07 5.30005e-07 0)
(-2.40504e-07 5.44068e-07 0)
(-2.46999e-07 5.58148e-07 0)
(-2.53591e-07 5.72238e-07 0)
(-2.60278e-07 5.86333e-07 0)
(-2.6706e-07 6.00425e-07 0)
(-2.73934e-07 6.14504e-07 0)
(-2.80898e-07 6.28562e-07 0)
(-2.87951e-07 6.42587e-07 0)
(-2.95088e-07 6.5657e-07 0)
(-3.0231e-07 6.70505e-07 0)
(-3.09611e-07 6.84379e-07 0)
(-3.16988e-07 6.9818e-07 0)
(-3.2444e-07 7.11901e-07 0)
(-3.31967e-07 7.25542e-07 0)
(-3.39563e-07 7.39087e-07 0)
(-3.47226e-07 7.52528e-07 0)
(-3.54954e-07 7.65862e-07 0)
(-3.62745e-07 7.79081e-07 0)
(-3.70596e-07 7.92176e-07 0)
(-3.785e-07 8.05134e-07 0)
(-3.86454e-07 8.17947e-07 0)
(-3.94456e-07 8.30609e-07 0)
(-4.02501e-07 8.43111e-07 0)
(-4.10585e-07 8.55445e-07 0)
(-4.18707e-07 8.67608e-07 0)
(-4.26864e-07 8.79595e-07 0)
(-4.35054e-07 8.91402e-07 0)
(-4.43272e-07 9.03022e-07 0)
(-4.51517e-07 9.14451e-07 0)
(-4.59783e-07 9.25682e-07 0)
(-4.68067e-07 9.36707e-07 0)
(-4.76363e-07 9.47521e-07 0)
(-4.84669e-07 9.58117e-07 0)
(-4.9298e-07 9.68491e-07 0)
(-5.01294e-07 9.78638e-07 0)
(-5.09609e-07 9.88557e-07 0)
(-5.17924e-07 9.98244e-07 0)
(-5.26236e-07 1.0077e-06 0)
(-5.34544e-07 1.01691e-06 0)
(-5.42846e-07 1.02589e-06 0)
(-5.51139e-07 1.03463e-06 0)
(-5.59423e-07 1.04312e-06 0)
(-5.67695e-07 1.05138e-06 0)
(-5.75955e-07 1.05938e-06 0)
(-5.84202e-07 1.06715e-06 0)
(-5.92438e-07 1.07467e-06 0)
(-6.00663e-07 1.08194e-06 0)
(-6.08879e-07 1.08897e-06 0)
(-6.17087e-07 1.09575e-06 0)
(-6.25289e-07 1.10227e-06 0)
(-6.33489e-07 1.10854e-06 0)
(-6.41688e-07 1.11452e-06 0)
(-6.49892e-07 1.12022e-06 0)
(-6.58102e-07 1.12562e-06 0)
(-6.66324e-07 1.13069e-06 0)
(-6.74562e-07 1.13542e-06 0)
(-6.82824e-07 1.13979e-06 0)
(-6.91117e-07 1.14379e-06 0)
(-6.99449e-07 1.14743e-06 0)
(-7.07832e-07 1.15073e-06 0)
(-7.16277e-07 1.15372e-06 0)
(-7.24796e-07 1.15645e-06 0)
(-7.33399e-07 1.15899e-06 0)
(-7.42088e-07 1.16139e-06 0)
(-7.50853e-07 1.16371e-06 0)
(-7.59663e-07 1.16592e-06 0)
(-7.68459e-07 1.16793e-06 0)
(-7.77152e-07 1.16954e-06 0)
(-7.8562e-07 1.17044e-06 0)
(-7.93722e-07 1.1702e-06 0)
(-8.01316e-07 1.16838e-06 0)
(-8.08284e-07 1.16452e-06 0)
(-8.14558e-07 1.15825e-06 0)
(-8.2016e-07 1.14931e-06 0)
(-8.25259e-07 1.1377e-06 0)
(-8.30295e-07 1.12391e-06 0)
(-8.36199e-07 1.10938e-06 0)
(-8.4464e-07 1.09736e-06 0)
(-8.57779e-07 1.09277e-06 0)
(-8.76435e-07 1.09924e-06 0)
(-8.97057e-07 1.11378e-06 0)
(-9.1203e-07 1.12673e-06 0)
(-9.17416e-07 1.13148e-06 0)
(-9.17919e-07 1.13153e-06 0)
(-9.18224e-07 1.1313e-06 0)
(7.96569e-05 0.000195056 0)
(0.000194231 0.000400522 0)
(0.000319565 0.00061853 0)
(0.000470107 0.000897988 0)
(0.000655724 0.00126067 0)
(0.000877733 0.00181484 0)
(-0.00105514 0.00268224 0)
(-0.47749 -0.00117405 0)
(-0.694445 0.0125814 0)
(-0.803702 0.0185832 0)
(-0.873209 0.017762 0)
(-0.924018 0.0120309 0)
(-0.964466 0.00545887 0)
(-0.99829 -0.000474486 0)
(-1.0274 -0.0053781 0)
(-1.0529 -0.00919914 0)
(-1.07551 -0.0120407 0)
(-1.09572 -0.0140696 0)
(-1.11392 -0.0154575 0)
(-1.1304 -0.0163561 0)
(-1.14541 -0.0168902 0)
(-1.15913 -0.0171587 0)
(-1.17174 -0.0172377 0)
(-1.18337 -0.0171845 0)
(-1.19413 -0.0170418 0)
(-1.20413 -0.0168404 0)
(-1.21345 -0.0166028 0)
(-1.22216 -0.016345 0)
(-1.23031 -0.0160781 0)
(-1.23797 -0.0158098 0)
(-1.24518 -0.0155453 0)
(-1.25197 -0.0152879 0)
(-1.2584 -0.0150397 0)
(-1.26447 -0.014802 0)
(-1.27024 -0.0145752 0)
(-1.27571 -0.0143595 0)
(-1.28091 -0.0141547 0)
(-1.28586 -0.0139605 0)
(-1.29059 -0.0137761 0)
(-1.29509 -0.0136011 0)
(-1.2994 -0.0134347 0)
(-1.30352 -0.013276 0)
(-1.30746 -0.0131241 0)
(-1.31125 -0.012978 0)
(-1.31487 -0.0128368 0)
(-1.31835 -0.0126991 0)
(-1.32169 -0.0125635 0)
(-1.32489 -0.0124286 0)
(-1.32797 -0.0122924 0)
(-1.33093 -0.0121528 0)
(-1.33377 -0.0120073 0)
(-1.3365 -0.0118528 0)
(-1.33911 -0.0116862 0)
(-1.34162 -0.0115043 0)
(-1.34402 -0.0113046 0)
(-1.34632 -0.011086 0)
(-1.34852 -0.01085 0)
(-1.35062 -0.0106015 0)
(-1.35265 -0.0103466 0)
(-1.35463 -0.0100958 0)
(-1.35654 -0.00986706 0)
(-1.3584 -0.00968058 0)
(-1.3602 -0.0095552 0)
(-1.36194 -0.00950219 0)
(-1.36362 -0.0095202 0)
(-1.36523 -0.00959546 0)
(-1.36678 -0.0097085 0)
(-1.36824 -0.00984152 0)
(-1.36962 -0.00998085 0)
(-1.37091 -0.0101155 0)
(-1.37209 -0.0102352 0)
(-1.37316 -0.0103283 0)
(-1.37413 -0.0103821 0)
(-1.37497 -0.0103832 0)
(-1.37571 -0.0103199 0)
(-1.37633 -0.0101857 0)
(-1.37686 -0.00998109 0)
(-1.37729 -0.00971508 0)
(-1.37764 -0.00940269 0)
(-1.37792 -0.00906164 0)
(-1.37815 -0.00870877 0)
(-1.37832 -0.00835777 0)
(-1.37845 -0.00801832 0)
(-1.37854 -0.00769659 0)
(-1.3786 -0.00739579 0)
(-1.37863 -0.00711753 0)
(-1.37864 -0.00686193 0)
(-1.37863 -0.006629 0)
(-1.3786 -0.00641784 0)
(-1.37856 -0.00622837 0)
(-1.37852 -0.0060579 0)
(-1.37848 -0.00591144 0)
(-1.37846 -0.00576838 0)
(-1.37844 -0.00558965 0)
(-1.36887 0.0014402 0)
(-1.36456 -0.00188245 0)
(-1.35916 0.00314789 0)
(-1.35374 0.00166336 0)
(-1.34857 0.00579623 0)
(-1.34367 0.00252498 0)
(-1.33916 0.0066141 0)
(-1.33519 0.00534787 0)
(-1.33143 0.00518492 0)
(-1.32832 0.000557345 0)
(-1.32527 0.00565782 0)
(-1.32289 -0.00308056 0)
(-1.32053 0.00375743 0)
(-1.31849 -0.00664125 0)
(-1.31936 -0.0341611 0)
(-1.31524 -0.00652156 0)
(-1.31395 1.62518e-05 0)
(-1.3124 2.28278e-05 0)
(-1.31127 2.58818e-05 0)
(-1.31023 2.86977e-05 0)
(-1.30931 3.05866e-05 0)
(-1.3085 3.17537e-05 0)
(-1.3078 3.22726e-05 0)
(-1.3072 3.22101e-05 0)
(-1.30671 3.16155e-05 0)
(-1.30633 3.05235e-05 0)
(-1.30606 2.89548e-05 0)
(-1.30591 2.69166e-05 0)
(-1.30588 2.44011e-05 0)
(-1.30597 2.13811e-05 0)
(-1.30621 1.77947e-05 0)
(-1.30659 1.35156e-05 0)
(-1.30714 8.34096e-06 0)
(-1.30786 1.73196e-06 0)
(-1.30875 -1.6219e-05 0)
(-1.3103 -2.65676e-05 0)
(-1.31124 -6.39441e-06 0)
(-1.31133 9.56913e-06 0)
(-1.31133 1.113e-05 0)
(-1.31133 1.11511e-05 0)
(-1.31133 1.11518e-05 0)
(-1.31133 1.11514e-05 0)
(-1.31133 1.11514e-05 0)
(-1.31133 1.1151e-05 0)
(-1.31133 1.11511e-05 0)
(-1.31133 1.11508e-05 0)
(-1.31133 1.11509e-05 0)
(-1.31133 1.11504e-05 0)
(-1.31133 1.11505e-05 0)
(-1.31133 1.11501e-05 0)
(-1.31133 1.11501e-05 0)
(-1.31133 1.11496e-05 0)
(-1.31133 1.11498e-05 0)
(-1.31133 1.11492e-05 0)
(-1.31133 1.11494e-05 0)
(-1.31133 1.11488e-05 0)
(-1.31133 1.1149e-05 0)
(-1.31133 1.11484e-05 0)
(-1.31133 1.11485e-05 0)
(-1.31133 1.1148e-05 0)
(-1.31133 1.11484e-05 0)
(-1.31133 1.1148e-05 0)
(-1.31133 1.11484e-05 0)
(-1.31133 1.11479e-05 0)
(-1.31133 1.11484e-05 0)
(-1.31133 1.11478e-05 0)
(-1.31133 1.11484e-05 0)
(-1.31133 1.11478e-05 0)
(-1.31133 1.11484e-05 0)
(-1.31133 1.11477e-05 0)
(-1.31133 1.11484e-05 0)
(-1.31133 1.11477e-05 0)
(-1.31133 1.11484e-05 0)
(-1.31133 1.11477e-05 0)
(-1.31133 1.11484e-05 0)
(-1.31133 1.11478e-05 0)
(-1.31133 1.11484e-05 0)
(-1.31133 1.11478e-05 0)
(-1.31133 1.11484e-05 0)
(-1.31133 1.11478e-05 0)
(-1.31133 1.11485e-05 0)
(-1.31133 1.11479e-05 0)
(-1.31133 1.11486e-05 0)
(-1.31133 1.1148e-05 0)
(-1.31133 1.11488e-05 0)
(-1.31133 1.11482e-05 0)
(-1.31133 1.11489e-05 0)
(-1.31133 1.11484e-05 0)
(-1.31133 1.11492e-05 0)
(-1.31133 1.11487e-05 0)
(-1.31133 1.11498e-05 0)
(-1.31133 1.11496e-05 0)
(-1.31133 1.11511e-05 0)
(-1.31133 1.11513e-05 0)
(-1.31133 1.11531e-05 0)
(-1.31133 1.11535e-05 0)
(-1.31133 1.11553e-05 0)
(-1.31133 1.11558e-05 0)
(-1.31133 1.11578e-05 0)
(-1.31133 1.11584e-05 0)
(-1.31133 1.11604e-05 0)
(-1.31133 1.1161e-05 0)
(-1.31133 1.11631e-05 0)
(-1.31133 1.11638e-05 0)
(-1.31133 1.1166e-05 0)
(-1.31133 1.11666e-05 0)
(-1.31133 1.11688e-05 0)
(-1.31133 1.11701e-05 0)
(-1.31133 1.11733e-05 0)
(-1.31133 1.11748e-05 0)
(-1.31133 1.11771e-05 0)
(-1.31133 1.11779e-05 0)
(-1.31133 1.11798e-05 0)
(-1.31133 1.11791e-05 0)
(-1.31133 1.11792e-05 0)
(-1.31133 1.11786e-05 0)
(-1.31133 1.11802e-05 0)
(-1.31133 1.11785e-05 0)
(-1.31133 1.11764e-05 0)
(-1.31133 1.11721e-05 0)
(-1.31133 1.11814e-05 0)
(-1.31133 1.14459e-05 0)
(-1.31127 2.21314e-05 0)
)
;

boundaryField
{
    inandouthalf11
    {
        type            cyclic;
    }
    inandouthalf12
    {
        type            cyclic;
    }
    inandouthalf21
    {
        type            cyclic;
    }
    inandouthalf22
    {
        type            cyclic;
    }
    inandouthalf31
    {
        type            cyclic;
    }
    inandouthalf32
    {
        type            cyclic;
    }
    inandouthalf41
    {
        type            cyclic;
    }
    inandouthalf42
    {
        type            cyclic;
    }
    top
    {
        type            symmetryPlane;
    }
    walls
    {
        type            calculated;
        value           uniform (0 0 0);
    }
    frontAndBackPlanes
    {
        type            empty;
    }
}


// ************************************************************************* //
