/*--------------------------------*- C++ -*----------------------------------*\
| =========                 |                                                 |
| \\      /  F ield         | OpenFOAM: The Open Source CFD Toolbox           |
|  \\    /   O peration     | Version:  2.4.x                                 |
|   \\  /    A nd           | Web:      www.OpenFOAM.org                      |
|    \\/     M anipulation  |                                                 |
\*---------------------------------------------------------------------------*/
FoamFile
{
    version     2.0;
    format      ascii;
    class       volScalarField;
    location    "10.3";
    object      ddt0(((1.5*(alpha+1e-08))*rho),Theta);
}
// * * * * * * * * * * * * * * * * * * * * * * * * * * * * * * * * * * * * * //

dimensions      [1 -1 -3 0 0 0 0];

internalField   nonuniform List<scalar> 
360
(
-5.45945e-23
-1.63405e-22
-9.20709e-23
-7.11673e-23
-7.07346e-23
-7.06433e-23
-7.00243e-23
-7.112e-23
-7.41858e-23
-7.87211e-23
-8.42561e-23
-9.04257e-23
-9.70064e-23
-1.03884e-22
-1.11007e-22
-1.18353e-22
-1.25877e-22
-1.33531e-22
-1.41305e-22
-1.49186e-22
-1.57152e-22
-1.65224e-22
-1.73407e-22
-1.81679e-22
-1.90035e-22
-1.9845e-22
-2.06934e-22
-2.15507e-22
-2.24126e-22
-2.32753e-22
-2.41418e-22
-2.50091e-22
-2.58753e-22
-2.67441e-22
-2.76079e-22
-2.84621e-22
-2.93107e-22
-3.01585e-22
-3.09946e-22
-3.18132e-22
-3.2627e-22
-3.34221e-22
-3.41939e-22
-3.49574e-22
-3.57038e-22
-3.64283e-22
-3.712e-22
-3.77728e-22
-3.8416e-22
-3.90431e-22
-3.96245e-22
-4.0171e-22
-4.0691e-22
-4.1173e-22
-4.16191e-22
-4.20316e-22
-4.24012e-22
-4.27279e-22
-4.29997e-22
-4.32247e-22
-4.3424e-22
-4.35859e-22
-4.37071e-22
-4.37818e-22
-4.38008e-22
-4.37712e-22
-4.37009e-22
-4.35802e-22
-4.33917e-22
-4.31557e-22
-4.29039e-22
-4.26106e-22
-4.22564e-22
-4.18711e-22
-4.14628e-22
-4.10111e-22
-4.04993e-22
-3.99363e-22
-3.93384e-22
-3.87022e-22
-3.80283e-22
-3.73303e-22
-3.66152e-22
-3.58809e-22
-3.51262e-22
-3.43497e-22
-3.35477e-22
-3.27162e-22
-3.18568e-22
-3.09755e-22
-3.00772e-22
-2.91683e-22
-2.82555e-22
-2.73426e-22
-2.64308e-22
-2.55204e-22
-2.46116e-22
-2.37048e-22
-2.2802e-22
-2.19058e-22
-2.10196e-22
-2.01463e-22
-1.92882e-22
-1.84462e-22
-1.76195e-22
-1.68057e-22
-1.60013e-22
-1.52017e-22
-1.44015e-22
-1.35956e-22
-1.27795e-22
-1.1951e-22
-1.11109e-22
-1.02646e-22
-9.42364e-23
-8.6058e-23
-7.83546e-23
-7.14153e-23
-6.55304e-23
-6.09114e-23
-5.75708e-23
-5.51744e-23
-5.29147e-23
-4.94859e-23
-4.32577e-23
-7.78926e-23
-6.69802e-17
-2.74369e-16
-9.97423e-16
-3.40934e-15
-1.11024e-14
-3.47383e-14
-1.05136e-13
-3.09716e-13
-8.9391e-13
-2.54537e-12
-7.21757e-12
-2.07563e-11
-6.27689e-11
-2.11136e-10
-8.37289e-10
-4.11139e-09
-2.90989e-08
-2.3206e-07
-2.07664e-06
-2.6097e-05
-0.000533903
-0.0189039
-0.391389
-2.93969
-2.9806
-1.5624
-0.967646
-0.680877
-0.52237
-0.424761
-0.358946
-0.311079
-0.274054
-0.244056
-0.218918
-0.197347
-0.178534
-0.161942
-0.147193
-0.134002
-0.122152
-0.111466
-0.101801
-0.0930345
-0.0850669
-0.0778092
-0.0711865
-0.0651352
-0.0595978
-0.0545252
-0.0498742
-0.0456072
-0.0416899
-0.0380927
-0.034788
-0.0317521
-0.0289628
-0.0264005
-0.0240463
-0.0218858
-0.019902
-0.0180817
-0.016412
-0.0148813
-0.0134785
-0.0121937
-0.0110174
-0.00994108
-0.00895672
-0.00805694
-0.007235
-0.00648475
-0.00580069
-0.00517787
-0.00461192
-0.00409389
-0.0036174
-0.00318171
-0.0027859
-0.00242871
-0.00210848
-0.00182314
-0.00157021
-0.00134699
-0.00115068
-0.000978498
-0.000827835
-0.000696273
-0.000581645
-0.000482061
-0.000395928
-0.00032194
-0.000259022
-0.000206226
-0.000162612
-0.000127167
-9.87944e-05
-7.6358e-05
-5.87745e-05
-4.50562e-05
-3.4405e-05
-2.6092e-05
-1.96904e-05
-1.46329e-05
-1.08241e-05
-7.73677e-06
-5.52807e-06
-3.64133e-06
-2.39898e-06
-1.23898e-06
0
0
0
0
0
0
0
0
0
0
0
0
0
0
0
0
0
0
0
0
0
0
0
0
0
0
0
0
0
0
0
0
0
0
0
0
0
0
0
0
0
0
0
0
0
0
0
0
0
0
0
0
0
0
0
0
0
0
0
0
0
0
0
0
0
0
0
0
0
0
0
0
0
0
0
0
0
0
0
0
0
0
0
0
0
0
0
0
0
0
0
0
0
0
0
0
0
0
0
0
0
0
0
0
0
0
0
0
0
0
0
0
0
0
0
0
0
0
0
0
0
0
0
0
)
;

boundaryField
{
    inandouthalf11
    {
        type            cyclic;
    }
    inandouthalf12
    {
        type            cyclic;
    }
    inandouthalf21
    {
        type            cyclic;
    }
    inandouthalf22
    {
        type            cyclic;
    }
    inandouthalf31
    {
        type            cyclic;
    }
    inandouthalf32
    {
        type            cyclic;
    }
    inandouthalf41
    {
        type            cyclic;
    }
    inandouthalf42
    {
        type            cyclic;
    }
    top
    {
        type            symmetryPlane;
    }
    walls
    {
        type            calculated;
        value           uniform -5.45945e-23;
    }
    frontAndBackPlanes
    {
        type            empty;
    }
}


// ************************************************************************* //
