/*--------------------------------*- C++ -*----------------------------------*\
| =========                 |                                                 |
| \\      /  F ield         | OpenFOAM: The Open Source CFD Toolbox           |
|  \\    /   O peration     | Version:  2.4.x                                 |
|   \\  /    A nd           | Web:      www.OpenFOAM.org                      |
|    \\/     M anipulation  |                                                 |
\*---------------------------------------------------------------------------*/
FoamFile
{
    version     2.0;
    format      ascii;
    class       volScalarField;
    location    "10.3";
    object      ddt0(alpha);
}
// * * * * * * * * * * * * * * * * * * * * * * * * * * * * * * * * * * * * * //

dimensions      [0 0 -1 0 0 0 0];

internalField   nonuniform List<scalar> 
360
(
9.30242e-06
1.38115e-05
1.23339e-05
1.13668e-05
1.12649e-05
1.11296e-05
1.08401e-05
1.05418e-05
1.0294e-05
1.01011e-05
9.94849e-06
9.82385e-06
9.72565e-06
9.65135e-06
9.60157e-06
9.57586e-06
9.57205e-06
9.5874e-06
9.62004e-06
9.67052e-06
9.73329e-06
9.81139e-06
9.90145e-06
1.00023e-05
1.01129e-05
1.02317e-05
1.03569e-05
1.04902e-05
1.06281e-05
1.07696e-05
1.09143e-05
1.1064e-05
1.1211e-05
1.13654e-05
1.15154e-05
1.16679e-05
1.18177e-05
1.19685e-05
1.21202e-05
1.22631e-05
1.24115e-05
1.25542e-05
1.26904e-05
1.28306e-05
1.29634e-05
1.30943e-05
1.3222e-05
1.3339e-05
1.34572e-05
1.3576e-05
1.36815e-05
1.37875e-05
1.38859e-05
1.39829e-05
1.40689e-05
1.41585e-05
1.42336e-05
1.43094e-05
1.43757e-05
1.44315e-05
1.44927e-05
1.45401e-05
1.45892e-05
1.46277e-05
1.46613e-05
1.4686e-05
1.47071e-05
1.47209e-05
1.47259e-05
1.47208e-05
1.47175e-05
1.47098e-05
1.46866e-05
1.46659e-05
1.46365e-05
1.46052e-05
1.45602e-05
1.45085e-05
1.44504e-05
1.43864e-05
1.43139e-05
1.42377e-05
1.41574e-05
1.40723e-05
1.39828e-05
1.38871e-05
1.37857e-05
1.36763e-05
1.35593e-05
1.3436e-05
1.33067e-05
1.31725e-05
1.30348e-05
1.28941e-05
1.27503e-05
1.26034e-05
1.24529e-05
1.22987e-05
1.21408e-05
1.19796e-05
1.18156e-05
1.16496e-05
1.14824e-05
1.13146e-05
1.11466e-05
1.09791e-05
1.08125e-05
1.06474e-05
1.04845e-05
1.03245e-05
1.01685e-05
1.00174e-05
9.87207e-06
9.7335e-06
9.60223e-06
9.47829e-06
9.36078e-06
9.24747e-06
9.13434e-06
9.01517e-06
8.88141e-06
8.72252e-06
8.52719e-06
8.28574e-06
7.99356e-06
7.65512e-06
7.28696e-06
6.91834e-06
6.58909e-06
6.34588e-06
6.23947e-06
6.32365e-06
6.65097e-06
7.24751e-06
8.03171e-06
8.66919e-06
8.52196e-06
6.98426e-06
4.18395e-06
1.29839e-06
-4.36162e-07
-1.40823e-05
0.00377284
0.00637569
0.0070443
0.00861627
0.0111117
0.0169102
0.0251942
1.05626
0.0934684
-0.102762
-0.112924
-0.10599
-0.0950479
-0.0839745
-0.0739847
-0.0652468
-0.0576805
-0.0511523
-0.0455185
-0.0406444
-0.0364117
-0.0327203
-0.0294861
-0.0266395
-0.0241227
-0.0218879
-0.0198955
-0.0181124
-0.016511
-0.0150683
-0.0137648
-0.0125838
-0.0115113
-0.0105352
-0.00964521
-0.00883225
-0.00808854
-0.00740725
-0.00678239
-0.00620868
-0.00568146
-0.00519657
-0.00475032
-0.00433937
-0.00396076
-0.00361181
-0.00329007
-0.00299335
-0.00271962
-0.00246706
-0.00223395
-0.00201876
-0.00182007
-0.00163662
-0.00146732
-0.00131131
-0.00116794
-0.00103678
-0.000917618
-0.000809219
-0.000710944
-0.000623155
-0.000545867
-0.000478631
-0.000420478
-0.000370003
-0.000325647
-0.000286047
-0.000250196
-0.000217378
-0.00018705
-0.00015878
-0.000132247
-0.000107299
-8.40208e-05
-6.27625e-05
-4.40715e-05
-2.84921e-05
-1.63387e-05
-7.5402e-06
-1.67303e-06
1.90206e-06
3.83826e-06
4.71243e-06
4.92147e-06
4.79283e-06
4.42636e-06
4.0478e-06
3.5341e-06
3.16634e-06
2.63616e-06
2.3913e-06
1.7886e-06
1.99189e-06
3.90078e-07
6.37997e-07
9.7172e-07
8.11176e-07
6.16563e-07
4.28839e-07
2.40679e-07
1.54685e-07
5.49627e-08
2.80818e-08
-3.88943e-09
-2.64789e-09
-1.56204e-08
-5.81635e-09
-1.29465e-08
-2.24297e-09
7.76225e-20
1.70502e-30
-7.9558e-41
-5.99354e-44
-2.53485e-45
-3.03836e-49
-1.34088e-50
-1.5007e-54
-6.90106e-56
-1.01024e-59
-1.70787e-60
-6.60099e-61
-3.19263e-61
-1.52688e-61
-7.18411e-62
-3.32161e-62
-1.50828e-62
-6.72237e-63
-2.939e-63
-1.2596e-63
-5.28843e-64
-2.17331e-64
-8.73401e-65
-3.4308e-65
-1.31619e-65
-4.92716e-66
-1.79812e-66
-6.39066e-67
-2.20959e-67
-7.4236e-68
-2.42058e-68
-7.64974e-69
-2.33978e-69
-6.91566e-70
-1.97192e-70
-5.41439e-71
-1.42871e-71
-3.6151e-72
-8.75043e-73
-2.02073e-73
-4.43874e-74
-9.24343e-75
-1.81799e-75
-3.36259e-76
-5.82026e-77
-9.37396e-78
-1.39545e-78
-1.90486e-79
-2.36157e-80
-2.62775e-81
-2.58531e-82
-2.20549e-83
-1.58865e-84
-9.29993e-86
-4.16732e-87
-1.2837e-88
-2.1102e-90
-3.01058e-93
-1.81836e-99
-1.19456e-101
-3.88445e-104
-1.56211e-114
-3.20761e-125
-4.92614e-136
-5.52999e-147
-5.40212e-158
-4.10918e-169
-2.68962e-180
-5.81714e-191
-2.54454e-201
-1.50172e-209
-7.34115e-220
-5.16462e-228
-2.99151e-238
-1.77809e-246
-1.26649e-256
-6.13124e-265
-8.15345e-275
-2.17106e-283
-5.4178e-293
-7.99718e-302
-2.69272e-311
-6.91692e-323
0
0
0
0
0
0
0
0
0
0
0
0
0
0
0
0
0
0
0
0
0
0
0
0
0
)
;

boundaryField
{
    inandouthalf11
    {
        type            cyclic;
    }
    inandouthalf12
    {
        type            cyclic;
    }
    inandouthalf21
    {
        type            cyclic;
    }
    inandouthalf22
    {
        type            cyclic;
    }
    inandouthalf31
    {
        type            cyclic;
    }
    inandouthalf32
    {
        type            cyclic;
    }
    inandouthalf41
    {
        type            cyclic;
    }
    inandouthalf42
    {
        type            cyclic;
    }
    top
    {
        type            symmetryPlane;
    }
    walls
    {
        type            calculated;
        value           uniform 9.30242e-06;
    }
    frontAndBackPlanes
    {
        type            empty;
    }
}


// ************************************************************************* //
