/*--------------------------------*- C++ -*----------------------------------*\
| =========                 |                                                 |
| \\      /  F ield         | OpenFOAM: The Open Source CFD Toolbox           |
|  \\    /   O peration     | Version:  2.4.x                                 |
|   \\  /    A nd           | Web:      www.OpenFOAM.org                      |
|    \\/     M anipulation  |                                                 |
\*---------------------------------------------------------------------------*/
FoamFile
{
    version     2.0;
    format      ascii;
    class       volScalarField;
    location    "10.3";
    object      epsilon_0;
}
// * * * * * * * * * * * * * * * * * * * * * * * * * * * * * * * * * * * * * //

dimensions      [0 2 -3 0 0 0 0];

internalField   nonuniform List<scalar> 
360
(
1.60309e-27
1e-20
1e-20
1e-20
1e-20
1e-20
1e-20
1e-20
1e-20
1e-20
1e-20
1e-20
1e-20
1e-20
1e-20
1e-20
1e-20
1e-20
1e-20
1e-20
1e-20
1e-20
1e-20
1e-20
1e-20
1e-20
1e-20
1e-20
1e-20
1e-20
1e-20
1e-20
1e-20
1e-20
1e-20
1e-20
1e-20
1e-20
1e-20
1e-20
1e-20
1e-20
1e-20
1e-20
1e-20
1e-20
1e-20
1e-20
1e-20
1e-20
1e-20
1e-20
1e-20
1e-20
1e-20
1e-20
1e-20
1e-20
1e-20
1e-20
1e-20
1e-20
1e-20
1e-20
1e-20
1e-20
1e-20
1e-20
1e-20
1e-20
1e-20
1e-20
1e-20
1e-20
1e-20
1e-20
1e-20
1e-20
1e-20
1e-20
1e-20
1e-20
1e-20
1e-20
1e-20
1e-20
1e-20
1e-20
1e-20
1e-20
1e-20
1e-20
1e-20
1e-20
1e-20
1e-20
1e-20
1e-20
1e-20
1e-20
1e-20
1e-20
1e-20
1e-20
1e-20
1e-20
1e-20
1e-20
1e-20
1e-20
1e-20
1e-20
1e-20
1e-20
1e-20
1e-20
1e-20
1e-20
1e-20
1e-20
1e-20
1e-20
1e-20
1e-20
1e-20
1e-20
1.59715e-20
4.85808e-20
1.52221e-19
4.65056e-19
1.38423e-18
4.0255e-18
1.1479e-17
3.2249e-17
8.98374e-17
2.50522e-16
7.10709e-16
2.1129e-15
6.91716e-15
2.66303e-14
1.28407e-13
8.0971e-13
6.75948e-12
6.51553e-11
7.60797e-10
1.1566e-08
2.22323e-07
5.33554e-06
0.000157006
0.00381389
0.0139922
0.0198323
0.0230084
0.0251774
0.0267859
0.0280278
0.029003
0.0297718
0.0303753
0.0308432
0.0311982
0.0314581
0.0316374
0.0317476
0.0317982
0.031797
0.0317506
0.0316644
0.031543
0.0313903
0.0312096
0.0310039
0.0307755
0.0305266
0.0302592
0.0299749
0.0296751
0.0293613
0.0290344
0.0286958
0.0283461
0.0279865
0.0276177
0.0272403
0.0268552
0.0264628
0.0260639
0.025659
0.0252486
0.0248331
0.0244131
0.023989
0.0235612
0.0231302
0.0226962
0.0222597
0.0218211
0.0213807
0.0209389
0.0204959
0.0200522
0.0196035
0.0191455
0.0186785
0.0182024
0.0177175
0.0172239
0.0167219
0.0162116
0.0156933
0.0151672
0.0146338
0.0140933
0.0135463
0.0129933
0.0124348
0.0118716
0.0113044
0.0107342
0.010162
0.00958889
0.0090163
0.00844568
0.0078787
0.00731723
0.0067633
0.00621916
0.00568725
0.00517016
0.00467065
0.00419157
0.00373583
0.00330624
0.00290549
0.00253591
0.00219937
0.00189709
0.0016295
0.00139615
0.00119566
0.00102585
0.000883843
0.000766367
0.00066997
0.000591274
0.000527141
0.000474787
0.000431813
0.000396208
0.00036631
0.000340761
0.000318464
0.000298532
0.000280255
0.000263071
0.000246539
0.000230323
0.000214173
0.000197923
0.000181471
0.000164781
0.000147874
0.000130821
0.000113747
9.68193e-05
8.02508e-05
6.42958e-05
4.92478e-05
3.54394e-05
2.32422e-05
1.30694e-05
5.39306e-06
1.00165e-06
4.24489e-08
5.36574e-10
5.6184e-12
5.56251e-14
5.22392e-16
4.66538e-18
4.75716e-20
1e-20
1e-20
1e-20
1e-20
1e-20
1e-20
1e-20
1e-20
1e-20
1e-20
1e-20
1e-20
1e-20
1e-20
1e-20
1e-20
1e-20
1e-20
1e-20
1e-20
1e-20
1e-20
1e-20
1e-20
1e-20
1e-20
1e-20
1e-20
1e-20
1e-20
1e-20
1e-20
1e-20
1e-20
1e-20
1e-20
1e-20
1e-20
1e-20
1e-20
1e-20
1e-20
1e-20
1e-20
1e-20
1e-20
1e-20
1e-20
1e-20
1e-20
1e-20
1e-20
1e-20
1e-20
1e-20
1e-20
1e-20
1e-20
1e-20
1e-20
1e-20
1e-20
1e-20
1e-20
1e-20
1e-20
1e-20
1e-20
1e-20
1e-20
1e-20
1e-20
1e-20
1e-20
1e-20
1e-20
1e-20
1e-20
1e-20
1e-20
)
;

boundaryField
{
    inandouthalf11
    {
        type            cyclic;
    }
    inandouthalf12
    {
        type            cyclic;
    }
    inandouthalf21
    {
        type            cyclic;
    }
    inandouthalf22
    {
        type            cyclic;
    }
    inandouthalf31
    {
        type            cyclic;
    }
    inandouthalf32
    {
        type            cyclic;
    }
    inandouthalf41
    {
        type            cyclic;
    }
    inandouthalf42
    {
        type            cyclic;
    }
    top
    {
        type            symmetryPlane;
    }
    walls
    {
        type            zeroGradient;
    }
    frontAndBackPlanes
    {
        type            empty;
    }
}


// ************************************************************************* //
