/*--------------------------------*- C++ -*----------------------------------*\
| =========                 |                                                 |
| \\      /  F ield         | OpenFOAM: The Open Source CFD Toolbox           |
|  \\    /   O peration     | Version:  2.4.x                                 |
|   \\  /    A nd           | Web:      www.OpenFOAM.org                      |
|    \\/     M anipulation  |                                                 |
\*---------------------------------------------------------------------------*/
FoamFile
{
    version     2.0;
    format      ascii;
    class       volScalarField;
    location    "10.3";
    object      epsilon;
}
// * * * * * * * * * * * * * * * * * * * * * * * * * * * * * * * * * * * * * //

dimensions      [0 2 -3 0 0 0 0];

internalField   nonuniform List<scalar> 
360
(
1e-20
1e-20
1e-20
1e-20
1e-20
1e-20
1e-20
1e-20
1e-20
1e-20
1e-20
1e-20
1e-20
1e-20
1e-20
1e-20
1e-20
1e-20
1e-20
1e-20
1e-20
1e-20
1e-20
1e-20
1e-20
1e-20
1e-20
1e-20
1e-20
1e-20
1e-20
1e-20
1e-20
1e-20
1e-20
1e-20
1e-20
1e-20
1e-20
1e-20
1e-20
1e-20
1e-20
1e-20
1e-20
1e-20
1e-20
1e-20
1e-20
1e-20
1e-20
1e-20
1e-20
1e-20
1e-20
1e-20
1e-20
1e-20
1e-20
1e-20
1e-20
1e-20
1e-20
1e-20
1e-20
1e-20
1e-20
1e-20
1e-20
1e-20
1e-20
1e-20
1e-20
1e-20
1e-20
1e-20
1e-20
1e-20
1e-20
1e-20
1e-20
1e-20
1e-20
1e-20
1e-20
1e-20
1e-20
1e-20
1e-20
1e-20
1e-20
1e-20
1e-20
1e-20
1e-20
1e-20
1e-20
1e-20
1e-20
1e-20
1e-20
1e-20
1e-20
1e-20
1e-20
1e-20
1e-20
1e-20
1e-20
1e-20
1e-20
1e-20
1e-20
1e-20
1e-20
1e-20
1e-20
1e-20
1e-20
1e-20
1e-20
1e-20
1e-20
1e-20
1e-20
1e-20
1.59636e-20
4.85482e-20
1.521e-19
4.64629e-19
1.38279e-18
4.02078e-18
1.1464e-17
3.2202e-17
8.96918e-17
2.50071e-16
7.09295e-16
2.10828e-15
6.9008e-15
2.65636e-14
1.28074e-13
8.0761e-13
6.74212e-12
6.49918e-11
7.58945e-10
1.15372e-08
2.21699e-07
5.31761e-06
0.000156392
0.00380091
0.0139583
0.0198011
0.02298
0.025151
0.0267609
0.028004
0.0289803
0.0297502
0.0303548
0.0308236
0.0311796
0.0314405
0.0316207
0.0317317
0.0317831
0.0317826
0.0317369
0.0316513
0.0315304
0.0313783
0.0311981
0.0309928
0.0307649
0.0305165
0.0302495
0.0299655
0.0296661
0.0293526
0.0290261
0.0286878
0.0283385
0.0279791
0.0276105
0.0272335
0.0268486
0.0264565
0.0260579
0.0256532
0.025243
0.0248278
0.024408
0.0239841
0.0235565
0.0231257
0.0226919
0.0222556
0.0218172
0.021377
0.0209353
0.0204926
0.020049
0.0196005
0.0191427
0.0186758
0.0181999
0.0177152
0.0172218
0.0167199
0.0162098
0.0156916
0.0151658
0.0146325
0.0140922
0.0135454
0.0129925
0.0124342
0.0118711
0.0113041
0.010734
0.0101619
0.00958899
0.00901652
0.00844602
0.00787916
0.00731778
0.00676395
0.00621989
0.00568803
0.00517099
0.00467152
0.00419247
0.00373672
0.00330713
0.00290634
0.00253671
0.00220011
0.00189777
0.00163011
0.00139667
0.0011961
0.00102621
0.000884136
0.000766597
0.000670146
0.000591404
0.000527235
0.000474852
0.000431855
0.000396232
0.00036632
0.000340762
0.000318458
0.000298521
0.000280241
0.000263056
0.000246524
0.000230308
0.00021416
0.000197911
0.000181462
0.000164775
0.000147869
0.00013082
0.000113748
9.68219e-05
8.02553e-05
6.43017e-05
4.92546e-05
3.54466e-05
2.32493e-05
1.30756e-05
5.39774e-06
1.00347e-06
4.25829e-08
5.38508e-10
5.63904e-12
5.58326e-14
5.24367e-16
4.68322e-18
4.7724e-20
1e-20
1e-20
1e-20
1e-20
1e-20
1e-20
1e-20
1e-20
1e-20
1e-20
1e-20
1e-20
1e-20
1e-20
1e-20
1e-20
1e-20
1e-20
1e-20
1e-20
1e-20
1e-20
1e-20
1e-20
1e-20
1e-20
1e-20
1e-20
1e-20
1e-20
1e-20
1e-20
1e-20
1e-20
1e-20
1e-20
1e-20
1e-20
1e-20
1e-20
1e-20
1e-20
1e-20
1e-20
1e-20
1e-20
1e-20
1e-20
1e-20
1e-20
1e-20
1e-20
1e-20
1e-20
1e-20
1e-20
1e-20
1e-20
1e-20
1e-20
1e-20
1e-20
1e-20
1e-20
1e-20
1e-20
1e-20
1e-20
1e-20
1e-20
1e-20
1e-20
1e-20
1e-20
1e-20
1e-20
1e-20
1e-20
1e-20
1e-20
)
;

boundaryField
{
    inandouthalf11
    {
        type            cyclic;
    }
    inandouthalf12
    {
        type            cyclic;
    }
    inandouthalf21
    {
        type            cyclic;
    }
    inandouthalf22
    {
        type            cyclic;
    }
    inandouthalf31
    {
        type            cyclic;
    }
    inandouthalf32
    {
        type            cyclic;
    }
    inandouthalf41
    {
        type            cyclic;
    }
    inandouthalf42
    {
        type            cyclic;
    }
    top
    {
        type            symmetryPlane;
    }
    walls
    {
        type            zeroGradient;
    }
    frontAndBackPlanes
    {
        type            empty;
    }
}


// ************************************************************************* //
