/*--------------------------------*- C++ -*----------------------------------*\
| =========                 |                                                 |
| \\      /  F ield         | OpenFOAM: The Open Source CFD Toolbox           |
|  \\    /   O peration     | Version:  2.4.x                                 |
|   \\  /    A nd           | Web:      www.OpenFOAM.org                      |
|    \\/     M anipulation  |                                                 |
\*---------------------------------------------------------------------------*/
FoamFile
{
    version     2.0;
    format      ascii;
    class       volVectorField;
    location    "10.3";
    object      gradPf;
}
// * * * * * * * * * * * * * * * * * * * * * * * * * * * * * * * * * * * * * //

dimensions      [0 1 -2 0 0 0 0];

internalField   nonuniform List<vector> 
360
(
(0 71.9462 0)
(0 80.522 0)
(0 0.0563414 0)
(0 -12.6021 0)
(-3.34413e-14 -5.22666 0)
(-3.3442e-14 -2.81706 0)
(-3.34429e-14 -3.59267 0)
(0 -4.08153 0)
(-3.34454e-14 -4.12386 0)
(0 -4.13131 0)
(-3.34478e-14 -4.11697 0)
(0 -4.10376 0)
(-3.34504e-14 -4.1094 0)
(0 -4.1162 0)
(0 -4.1342 0)
(0 -4.15252 0)
(0 -4.16068 0)
(-3.34568e-14 -4.1649 0)
(0 -4.18599 0)
(0 -4.19159 0)
(0 -4.19805 0)
(-1.67311e-14 -4.2199 0)
(0 -4.22672 0)
(0 -4.23902 0)
(0 -4.25174 0)
(-3.3468e-14 -4.25529 0)
(0 -4.2712 0)
(0 -4.2882 0)
(0 -4.29019 0)
(0 -4.29749 0)
(0 -4.32025 0)
(0 -4.31514 0)
(0 -4.33179 0)
(0 -4.34908 0)
(0 -4.34575 0)
(1.67416e-14 -4.35622 0)
(0 -4.36344 0)
(0 -4.39124 0)
(0 -4.37412 0)
(0 -4.38746 0)
(0 -4.41867 0)
(0 -4.39304 0)
(3.3495e-14 -4.41524 0)
(0 -4.43135 0)
(0 -4.42548 0)
(0 -4.45026 0)
(0 -4.43559 0)
(0 -4.43498 0)
(0 -4.47919 0)
(0 -4.4655 0)
(1.67548e-14 -4.45983 0)
(0 -4.48055 0)
(0 -4.48703 0)
(0 -4.48242 0)
(0 -4.49836 0)
(0 -4.50243 0)
(0 -4.5023 0)
(0 -4.52175 0)
(0 -4.49999 0)
(0 -4.52416 0)
(0 -4.53162 0)
(0 -4.52799 0)
(0 -4.54275 0)
(0 -4.53934 0)
(0 -4.54209 0)
(0 -4.54804 0)
(0 -4.5613 0)
(0 -4.56103 0)
(0 -4.54842 0)
(0 -4.5629 0)
(0 -4.58912 0)
(0 -4.56698 0)
(0 -4.56877 0)
(0 -4.58655 0)
(0 -4.59129 0)
(0 -4.59133 0)
(0 -4.58374 0)
(0 -4.59408 0)
(0 -4.60108 0)
(0 -4.59854 0)
(0 -4.59983 0)
(0 -4.60812 0)
(0 -4.61036 0)
(0 -4.61276 0)
(0 -4.61542 0)
(0 -4.61853 0)
(0 -4.62036 0)
(0 -4.61976 0)
(0 -4.62218 0)
(0 -4.62467 0)
(0 -4.62566 0)
(0 -4.62809 0)
(0 -4.63118 0)
(0 -4.633 0)
(0 -4.63451 0)
(0 -4.63575 0)
(0 -4.63639 0)
(0 -4.63664 0)
(0 -4.63692 0)
(0 -4.63712 0)
(0 -4.63712 0)
(0 -4.63709 0)
(0 -4.63684 0)
(0 -4.6361 0)
(0 -4.63488 0)
(0 -4.63315 0)
(0 -4.63084 0)
(0 -4.62795 0)
(0 -4.62444 0)
(0 -4.62023 0)
(0 -4.61527 0)
(0 -4.60949 0)
(0 -4.60284 0)
(0 -4.59532 0)
(0 -4.58691 0)
(0 -4.57764 0)
(0 -4.56757 0)
(0 -4.55678 0)
(0 -4.54538 0)
(0 -4.53347 0)
(0 -4.52104 0)
(0 -4.50798 0)
(0 -4.49404 0)
(0 -4.47896 0)
(0 -4.46279 0)
(0 -4.44613 0)
(0 -4.43005 0)
(0 -4.41528 0)
(0 -4.4006 0)
(0 -4.38213 0)
(0 -4.35671 0)
(0 -4.33034 0)
(0 -4.32096 0)
(0 -4.3376 0)
(0 -4.3542 0)
(0 -4.33865 0)
(0 -4.32224 0)
(0 -4.40345 0)
(0 -4.6192 0)
(0 -4.74134 0)
(0 -4.84358 0)
(0 -15.5678 0)
(0 -12.6635 0)
(0 -1.09517 0)
(0 -3.85862 0)
(0 -4.26794 0)
(0 -3.91314 0)
(0 -4.23082 0)
(0 -3.72962 0)
(0 -2.7031 0)
(0 0 0)
(0 0 0)
(0 0 0)
(0 0 0)
(0 0 0)
(0 0 0)
(0 0 0)
(0 0 0)
(0 0 0)
(0 0 0)
(0 0 0)
(0 0 0)
(0 0 0)
(0 0 0)
(0 0 0)
(0 0 0)
(0 0 0)
(0 0 0)
(0 0 0)
(0 0 0)
(0 0 0)
(0 0 0)
(0 0 0)
(0 0 0)
(0 0 0)
(0 0 0)
(0 0 0)
(0 0 0)
(0 0 0)
(0 0 0)
(0 0 0)
(0 0 0)
(0 0 0)
(0 0 0)
(0 0 0)
(0 0 0)
(0 0 0)
(0 0 0)
(0 0 0)
(0 0 0)
(0 0 0)
(0 0 0)
(0 0 0)
(0 0 0)
(0 0 0)
(0 0 0)
(0 0 0)
(0 0 0)
(0 0 0)
(0 0 0)
(0 0 0)
(0 0 0)
(0 0 0)
(0 0 0)
(0 0 0)
(0 0 0)
(0 0 0)
(0 0 0)
(0 0 0)
(0 0 0)
(0 0 0)
(0 0 0)
(0 0 0)
(0 0 0)
(0 0 0)
(0 0 0)
(0 0 0)
(0 0 0)
(0 0 0)
(0 0 0)
(0 0 0)
(0 0 0)
(0 0 0)
(0 0 0)
(0 0 0)
(0 0 0)
(0 0 0)
(0 0 0)
(0 0 0)
(0 0 0)
(0 0 0)
(0 0 0)
(0 0 0)
(0 0 0)
(0 0 0)
(0 0 0)
(0 0 0)
(0 0 0)
(0 0 0)
(0 0 0)
(0 0 0)
(0 0 0)
(0 0 0)
(0 0 0)
(0 0 0)
(0 0 0)
(0 0 0)
(0 0 0)
(0 0 0)
(0 0 0)
(0 0 0)
(0 0 0)
(0 0 0)
(0 0 0)
(0 0 0)
(0 0 0)
(0 0 0)
(0 0 0)
(0 0 0)
(0 0 0)
(0 0 0)
(0 0 0)
(0 0 0)
(0 0 0)
(0 0 0)
(0 0 0)
(0 0 0)
(0 0 0)
(0 0 0)
(0 0 0)
(0 0 0)
(0 0 0)
(0 0 0)
(0 0 0)
(0 0 0)
(0 0 0)
(0 0 0)
(0 0 0)
(0 0 0)
(0 0 0)
(0 0 0)
(0 0 0)
(0 0 0)
(0 0 0)
(0 0 0)
(0 0 0)
(0 0 0)
(0 0 0)
(0 0 0)
(0 0 0)
(0 0 0)
(0 0 0)
(0 0 0)
(0 0 0)
(0 0 0)
(0 0 0)
(0 0 0)
(0 0 0)
(0 0 0)
(0 0 0)
(0 0 0)
(0 0 0)
(0 0 0)
(0 0 0)
(0 0 0)
(0 0 0)
(0 0 0)
(0 0 0)
(0 0 0)
(0 0 0)
(0 0 0)
(0 0 0)
(0 0 0)
(0 0 0)
(0 0 0)
(0 0 0)
(0 0 0)
(0 0 0)
(0 0 0)
(0 0 0)
(0 0 0)
(0 0 0)
(0 0 0)
(0 0 0)
(0 0 0)
(0 0 0)
(0 0 0)
(0 0 0)
(0 0 0)
(0 0 0)
(0 0 0)
(0 0 0)
(0 0 0)
(0 0 0)
(0 0 0)
(0 0 0)
(0 0 0)
(0 0 0)
(0 0 0)
(0 0 0)
(0 0 0)
(0 0 0)
(0 0 0)
(0 0 0)
(0 0 0)
(0 0 0)
(0 0 0)
(0 0 0)
(0 0 0)
(0 0 0)
(0 0 0)
(0 0 0)
(0 0 0)
(0 0 0)
(0 0 0)
(0 0 0)
(0 0 0)
(0 0 0)
(0 0 0)
(0 0 0)
)
;

boundaryField
{
    inandouthalf11
    {
        type            cyclic;
    }
    inandouthalf12
    {
        type            cyclic;
    }
    inandouthalf21
    {
        type            cyclic;
    }
    inandouthalf22
    {
        type            cyclic;
    }
    inandouthalf31
    {
        type            cyclic;
    }
    inandouthalf32
    {
        type            cyclic;
    }
    inandouthalf41
    {
        type            cyclic;
    }
    inandouthalf42
    {
        type            cyclic;
    }
    top
    {
        type            symmetryPlane;
    }
    walls
    {
        type            calculated;
        value           uniform (0 0 0);
    }
    frontAndBackPlanes
    {
        type            empty;
    }
}


// ************************************************************************* //
