/*--------------------------------*- C++ -*----------------------------------*\
| =========                 |                                                 |
| \\      /  F ield         | OpenFOAM: The Open Source CFD Toolbox           |
|  \\    /   O peration     | Version:  2.4.x                                 |
|   \\  /    A nd           | Web:      www.OpenFOAM.org                      |
|    \\/     M anipulation  |                                                 |
\*---------------------------------------------------------------------------*/
FoamFile
{
    version     2.0;
    format      ascii;
    class       volScalarField;
    location    "10.3";
    object      k;
}
// * * * * * * * * * * * * * * * * * * * * * * * * * * * * * * * * * * * * * //

dimensions      [0 2 -2 0 0 0 0];

internalField   nonuniform List<scalar> 
360
(
1e-20
1e-20
1e-20
1e-20
1e-20
1e-20
1e-20
1e-20
1e-20
1e-20
1e-20
1e-20
1e-20
1e-20
1e-20
1e-20
1e-20
1e-20
1e-20
1e-20
1e-20
1e-20
1e-20
1e-20
1e-20
1e-20
1e-20
1e-20
1e-20
1e-20
1e-20
1e-20
1e-20
1e-20
1e-20
1e-20
1e-20
1e-20
1e-20
1e-20
1e-20
1e-20
1e-20
1e-20
1e-20
1e-20
1e-20
1e-20
1e-20
1e-20
1e-20
1e-20
1e-20
1e-20
1e-20
1e-20
1e-20
1e-20
1e-20
1e-20
1e-20
1e-20
1e-20
1e-20
1e-20
1e-20
1e-20
1e-20
1e-20
1e-20
1e-20
1e-20
1e-20
1e-20
1e-20
1e-20
1e-20
1e-20
1e-20
1e-20
1e-20
1e-20
1e-20
1e-20
1e-20
1e-20
1e-20
1e-20
1e-20
1e-20
1e-20
1e-20
1e-20
1e-20
1e-20
1e-20
1e-20
1e-20
1e-20
1e-20
1e-20
1e-20
1e-20
1e-20
1e-20
1e-20
1e-20
1e-20
1e-20
1e-20
1e-20
1e-20
1e-20
1e-20
1e-20
1e-20
1e-20
1e-20
1e-20
1e-20
1e-20
1e-20
1e-20
1e-20
1e-20
1e-20
1.86993e-20
5.63271e-20
1.71196e-19
5.05084e-19
1.44559e-18
4.02089e-18
1.08933e-17
2.88383e-17
7.49462e-17
1.92341e-16
4.92251e-16
1.28395e-15
3.56672e-15
1.12814e-14
4.35906e-14
2.18213e-13
1.60192e-12
1.31285e-11
1.21032e-10
1.46724e-09
2.23848e-08
4.22465e-07
9.66628e-06
0.00024969
0.00123003
0.00226766
0.00307181
0.00372756
0.00428233
0.00476402
0.00518931
0.00556891
0.00591027
0.00621883
0.00649875
0.00675332
0.00698521
0.0071966
0.00738934
0.00756498
0.00772487
0.00787014
0.00800182
0.00812079
0.00822784
0.00832365
0.00840887
0.00848405
0.0085497
0.00860628
0.00865423
0.00869393
0.00872574
0.00875
0.00876701
0.00877706
0.00878043
0.00877737
0.00876812
0.00875291
0.00873195
0.00870544
0.0086736
0.00863659
0.00859461
0.00854783
0.00849642
0.00844053
0.00838034
0.00831599
0.00824763
0.00817541
0.00809948
0.00801998
0.00793705
0.00784995
0.00775775
0.00766036
0.00755767
0.00744959
0.00733601
0.00721684
0.007092
0.0069614
0.00682498
0.00668268
0.00653447
0.00638032
0.00622023
0.00605426
0.00588244
0.00570489
0.00552175
0.00533319
0.00513946
0.00494085
0.00473774
0.00453056
0.00431987
0.0041063
0.00389062
0.00367369
0.00345655
0.00324034
0.00302637
0.00281606
0.00261098
0.00241275
0.00222304
0.00204348
0.00187557
0.00172056
0.0015794
0.00145258
0.0013401
0.00124147
0.00115579
0.00108182
0.00101814
0.00096324
0.000915644
0.000873957
0.000836915
0.000803398
0.000772425
0.000743152
0.000714855
0.000686918
0.000658823
0.000630143
0.000600529
0.000569709
0.000537481
0.000503715
0.000468345
0.000431375
0.000392876
0.000352992
0.000311944
0.000270034
0.000227662
0.000185335
0.000143704
0.000103602
6.61389e-05
3.29699e-05
7.97075e-06
4.16784e-07
5.46326e-09
5.71725e-11
5.6544e-13
5.30608e-15
4.73012e-17
4.07285e-19
1.17889e-20
1e-20
1e-20
1e-20
1e-20
1e-20
1e-20
1e-20
1e-20
1e-20
1e-20
1e-20
1e-20
1e-20
1e-20
1e-20
1e-20
1e-20
1e-20
1e-20
1e-20
1e-20
1e-20
1e-20
1e-20
1e-20
1e-20
1e-20
1e-20
1e-20
1e-20
1e-20
1e-20
1e-20
1e-20
1e-20
1e-20
1e-20
1e-20
1e-20
1e-20
1e-20
1e-20
1e-20
1e-20
1e-20
1e-20
1e-20
1e-20
1e-20
1e-20
1e-20
1e-20
1e-20
1e-20
1e-20
1e-20
1e-20
1e-20
1e-20
1e-20
1e-20
1e-20
1e-20
1e-20
1e-20
1e-20
1e-20
1e-20
1e-20
1e-20
1e-20
1e-20
1e-20
1e-20
1e-20
1e-20
1e-20
1e-20
1e-20
)
;

boundaryField
{
    inandouthalf11
    {
        type            cyclic;
    }
    inandouthalf12
    {
        type            cyclic;
    }
    inandouthalf21
    {
        type            cyclic;
    }
    inandouthalf22
    {
        type            cyclic;
    }
    inandouthalf31
    {
        type            cyclic;
    }
    inandouthalf32
    {
        type            cyclic;
    }
    inandouthalf41
    {
        type            cyclic;
    }
    inandouthalf42
    {
        type            cyclic;
    }
    top
    {
        type            symmetryPlane;
    }
    walls
    {
        type            zeroGradient;
    }
    frontAndBackPlanes
    {
        type            empty;
    }
}


// ************************************************************************* //
