/*--------------------------------*- C++ -*----------------------------------*\
| =========                 |                                                 |
| \\      /  F ield         | OpenFOAM: The Open Source CFD Toolbox           |
|  \\    /   O peration     | Version:  2.4.x                                 |
|   \\  /    A nd           | Web:      www.OpenFOAM.org                      |
|    \\/     M anipulation  |                                                 |
\*---------------------------------------------------------------------------*/
FoamFile
{
    version     2.0;
    format      ascii;
    class       surfaceScalarField;
    location    "10.3";
    object      phia;
}
// * * * * * * * * * * * * * * * * * * * * * * * * * * * * * * * * * * * * * //

dimensions      [0 3 -1 0 0 0 0];

internalField   nonuniform List<scalar> 
359
(
-3.03779e-14
-7.55425e-14
-1.15876e-13
-1.53034e-13
-1.89865e-13
-2.26255e-13
-2.61701e-13
-2.96176e-13
-3.29842e-13
-3.6288e-13
-3.95421e-13
-4.27556e-13
-4.59372e-13
-4.90947e-13
-5.22362e-13
-5.53694e-13
-5.85016e-13
-6.1639e-13
-6.47873e-13
-6.79524e-13
-7.11382e-13
-7.43499e-13
-7.75912e-13
-8.08658e-13
-8.41769e-13
-8.75271e-13
-9.09186e-13
-9.4354e-13
-9.78348e-13
-1.01362e-12
-1.04937e-12
-1.08562e-12
-1.12235e-12
-1.15959e-12
-1.19732e-12
-1.23556e-12
-1.27429e-12
-1.31352e-12
-1.35325e-12
-1.39345e-12
-1.43415e-12
-1.47531e-12
-1.51693e-12
-1.55901e-12
-1.60153e-12
-1.64448e-12
-1.68786e-12
-1.73163e-12
-1.77579e-12
-1.82035e-12
-1.86525e-12
-1.91051e-12
-1.9561e-12
-2.00202e-12
-2.04822e-12
-2.09473e-12
-2.14148e-12
-2.1885e-12
-2.23574e-12
-2.28316e-12
-2.3308e-12
-2.3786e-12
-2.42657e-12
-2.47468e-12
-2.5229e-12
-2.57122e-12
-2.61961e-12
-2.66806e-12
-2.71653e-12
-2.765e-12
-2.81346e-12
-2.86191e-12
-2.9103e-12
-2.95863e-12
-3.00687e-12
-3.05502e-12
-3.10304e-12
-3.1509e-12
-3.19858e-12
-3.24606e-12
-3.29331e-12
-3.34033e-12
-3.3871e-12
-3.43361e-12
-3.47983e-12
-3.52575e-12
-3.57136e-12
-3.61662e-12
-3.66151e-12
-3.70601e-12
-3.7501e-12
-3.79377e-12
-3.837e-12
-3.87979e-12
-3.92212e-12
-3.96399e-12
-4.00538e-12
-4.04628e-12
-4.08669e-12
-4.12658e-12
-4.16596e-12
-4.20481e-12
-4.24313e-12
-4.28092e-12
-4.31819e-12
-4.35492e-12
-4.39114e-12
-4.42683e-12
-4.46201e-12
-4.4967e-12
-4.5309e-12
-4.56463e-12
-4.59791e-12
-4.63077e-12
-4.66323e-12
-4.69531e-12
-4.72704e-12
-4.75844e-12
-4.7895e-12
-4.82021e-12
-4.85052e-12
-4.88035e-12
-4.90958e-12
-4.93806e-12
-4.96564e-12
-4.99214e-12
-5.01749e-12
-5.04169e-12
-5.06487e-12
-5.08731e-12
-5.10948e-12
-5.13201e-12
-5.15572e-12
-5.18152e-12
-5.21005e-12
-5.2408e-12
-5.2712e-12
-5.2967e-12
-5.31322e-12
-5.32048e-12
-5.32235e-12
-5.32229e-12
-1.77381e-11
-3.87989e-11
-6.20772e-11
-9.06913e-11
-1.27778e-10
-1.8482e-10
-4.76839e-10
-1.2889e-08
-2.88156e-08
-4.17602e-08
-5.24644e-08
-5.95773e-08
-6.41747e-08
-6.70992e-08
-6.88664e-08
-6.9818e-08
-7.01877e-08
-7.01353e-08
-6.97716e-08
-6.91743e-08
-6.83995e-08
-6.74876e-08
-6.64688e-08
-6.53656e-08
-6.41952e-08
-6.29708e-08
-6.17029e-08
-6.03996e-08
-5.90676e-08
-5.77123e-08
-5.63381e-08
-5.49488e-08
-5.35473e-08
-5.21365e-08
-5.07184e-08
-4.92952e-08
-4.78686e-08
-4.64401e-08
-4.50112e-08
-4.35834e-08
-4.21579e-08
-4.0736e-08
-3.93191e-08
-3.79087e-08
-3.65061e-08
-3.51132e-08
-3.37316e-08
-3.23635e-08
-3.10113e-08
-2.96779e-08
-2.83665e-08
-2.7081e-08
-2.58258e-08
-2.46059e-08
-2.34267e-08
-2.22933e-08
-2.12106e-08
-2.01818e-08
-1.92078e-08
-1.82687e-08
-1.73608e-08
-1.64761e-08
-1.56012e-08
-1.47191e-08
-1.38111e-08
-1.28602e-08
-1.18543e-08
-1.07872e-08
-9.65803e-09
-8.47093e-09
-7.23457e-09
-5.96258e-09
-4.67382e-09
-3.39224e-09
-2.14574e-09
-9.6372e-10
1.26539e-10
1.10369e-09
1.95527e-09
2.67842e-09
3.27879e-09
3.7674e-09
4.15875e-09
4.4655e-09
4.70379e-09
4.87635e-09
5.00457e-09
5.06812e-09
5.10876e-09
5.05996e-09
5.01691e-09
4.80731e-09
4.70864e-09
3.8201e-09
3.24795e-09
4.2372e-09
4.40314e-09
4.24267e-09
3.7406e-09
2.86516e-09
1.95424e-09
5.82219e-10
-4.54485e-10
-1.82423e-09
-2.72539e-09
-4.14926e-09
-4.92776e-09
-5.96894e-09
-1.14424e-08
-1.08017e-07
-1.5743e-07
-1.58111e-07
-1.5799e-07
-1.58001e-07
-1.58003e-07
-1.58007e-07
-1.5801e-07
-1.58013e-07
-1.58016e-07
-1.58018e-07
-1.58019e-07
-1.58019e-07
-1.58018e-07
-1.58015e-07
-1.58011e-07
-1.58004e-07
-1.57996e-07
-1.57984e-07
-1.57967e-07
-1.5794e-07
-1.57892e-07
-1.57876e-07
-1.57876e-07
-1.57876e-07
-1.57876e-07
-1.57876e-07
-1.57876e-07
-1.57876e-07
-1.57876e-07
-1.57876e-07
-1.57876e-07
-1.57876e-07
-1.57876e-07
-1.57876e-07
-1.57876e-07
-1.57876e-07
-1.57876e-07
-1.57876e-07
-1.57876e-07
-1.57876e-07
-1.57876e-07
-1.57876e-07
-1.57876e-07
-1.57876e-07
-1.57876e-07
-1.57876e-07
-1.57876e-07
-1.57876e-07
-1.57876e-07
-1.57876e-07
-1.57876e-07
-1.57876e-07
-1.57876e-07
-1.57876e-07
-1.57876e-07
-1.57876e-07
-1.57876e-07
-1.57876e-07
-1.57876e-07
-1.57876e-07
-1.57876e-07
-1.57876e-07
-1.57876e-07
-1.57876e-07
-1.57876e-07
-1.57876e-07
-1.57876e-07
-1.57876e-07
-1.57876e-07
-1.57876e-07
-1.57876e-07
-1.57876e-07
-1.57876e-07
-1.57876e-07
-1.57876e-07
-1.57876e-07
-1.57876e-07
-1.57876e-07
-1.57876e-07
-1.57876e-07
-1.57876e-07
-1.57876e-07
-1.57876e-07
-1.57876e-07
-1.57876e-07
-1.57876e-07
-1.57876e-07
-1.57876e-07
-1.57876e-07
-1.57876e-07
-1.57876e-07
-1.57876e-07
-1.57876e-07
-1.57876e-07
-1.57876e-07
-1.57876e-07
-1.57876e-07
-1.57876e-07
-1.57876e-07
-1.57876e-07
-1.57876e-07
-1.57876e-07
-1.57876e-07
-1.57876e-07
-1.57858e-07
-1.57148e-07
-1.32105e-07
)
;

boundaryField
{
    inandouthalf11
    {
        type            cyclic;
        value           nonuniform List<scalar> 
100
(
8.73153e-39
1.64131e-15
3.32007e-15
4.74569e-15
6.12403e-15
7.4893e-15
8.8094e-15
1.00746e-14
1.1291e-14
1.24665e-14
1.36071e-14
1.47173e-14
1.58007e-14
1.68605e-14
1.78998e-14
1.89215e-14
1.99283e-14
2.09224e-14
2.19059e-14
2.28805e-14
2.38478e-14
2.48089e-14
2.57651e-14
2.67173e-14
2.76662e-14
2.86123e-14
2.95561e-14
3.04979e-14
3.14377e-14
3.23757e-14
3.33117e-14
3.42456e-14
3.51771e-14
3.61058e-14
3.70314e-14
3.79534e-14
3.88711e-14
3.97842e-14
4.06921e-14
4.1594e-14
4.24892e-14
4.33773e-14
4.42573e-14
4.51285e-14
4.59904e-14
4.68422e-14
4.7683e-14
4.8512e-14
4.93285e-14
5.01319e-14
5.09214e-14
5.16961e-14
5.24554e-14
5.31985e-14
5.39247e-14
5.46333e-14
5.53235e-14
5.59948e-14
5.66462e-14
5.72771e-14
5.7887e-14
5.84752e-14
5.90412e-14
5.95844e-14
6.01041e-14
6.05998e-14
6.10709e-14
6.1517e-14
6.19374e-14
6.23318e-14
6.26996e-14
6.30406e-14
6.33544e-14
6.36406e-14
6.38988e-14
6.41288e-14
6.43302e-14
6.45028e-14
6.46463e-14
6.47606e-14
6.48454e-14
6.49007e-14
6.49263e-14
6.49221e-14
6.48881e-14
6.48243e-14
6.47305e-14
6.46067e-14
6.44531e-14
6.42698e-14
6.40567e-14
6.3814e-14
6.3542e-14
6.32406e-14
6.291e-14
6.25503e-14
6.21617e-14
6.17441e-14
6.12979e-14
6.08231e-14
)
;
    }
    inandouthalf12
    {
        type            cyclic;
        value           nonuniform List<scalar> 
100
(
-8.73153e-39
-1.64131e-15
-3.32007e-15
-4.74569e-15
-6.12403e-15
-7.4893e-15
-8.8094e-15
-1.00746e-14
-1.1291e-14
-1.24665e-14
-1.36071e-14
-1.47173e-14
-1.58007e-14
-1.68605e-14
-1.78998e-14
-1.89215e-14
-1.99283e-14
-2.09224e-14
-2.19059e-14
-2.28805e-14
-2.38478e-14
-2.48089e-14
-2.57651e-14
-2.67173e-14
-2.76662e-14
-2.86123e-14
-2.95561e-14
-3.04979e-14
-3.14377e-14
-3.23757e-14
-3.33117e-14
-3.42456e-14
-3.51771e-14
-3.61058e-14
-3.70314e-14
-3.79534e-14
-3.88711e-14
-3.97842e-14
-4.06921e-14
-4.1594e-14
-4.24892e-14
-4.33773e-14
-4.42573e-14
-4.51285e-14
-4.59904e-14
-4.68422e-14
-4.7683e-14
-4.8512e-14
-4.93285e-14
-5.01319e-14
-5.09214e-14
-5.16961e-14
-5.24554e-14
-5.31985e-14
-5.39247e-14
-5.46333e-14
-5.53235e-14
-5.59948e-14
-5.66462e-14
-5.72771e-14
-5.7887e-14
-5.84752e-14
-5.90412e-14
-5.95844e-14
-6.01041e-14
-6.05998e-14
-6.10709e-14
-6.1517e-14
-6.19374e-14
-6.23318e-14
-6.26996e-14
-6.30406e-14
-6.33544e-14
-6.36406e-14
-6.38988e-14
-6.41288e-14
-6.43302e-14
-6.45028e-14
-6.46463e-14
-6.47606e-14
-6.48454e-14
-6.49007e-14
-6.49263e-14
-6.49221e-14
-6.48881e-14
-6.48243e-14
-6.47305e-14
-6.46067e-14
-6.44531e-14
-6.42698e-14
-6.40567e-14
-6.3814e-14
-6.3542e-14
-6.32406e-14
-6.291e-14
-6.25503e-14
-6.21617e-14
-6.17441e-14
-6.12979e-14
-6.08231e-14
)
;
    }
    inandouthalf21
    {
        type            cyclic;
        value           nonuniform List<scalar> 
100
(
6.03199e-14
5.97882e-14
5.92283e-14
5.86399e-14
5.80231e-14
5.73775e-14
5.67031e-14
5.59993e-14
5.52656e-14
5.45014e-14
5.37057e-14
5.28774e-14
5.20151e-14
5.1117e-14
5.0181e-14
4.92047e-14
4.81853e-14
4.71197e-14
4.6005e-14
4.48382e-14
4.36175e-14
4.2342e-14
4.10128e-14
3.96338e-14
3.82108e-14
3.67517e-14
3.52639e-14
3.3752e-14
3.22131e-14
3.06335e-14
2.89836e-14
2.7212e-14
2.52387e-14
2.29486e-14
2.02007e-14
1.68869e-14
1.30773e-14
9.20536e-15
6.05445e-15
4.2848e-15
3.75585e-15
3.68701e-15
3.70675e-15
2.49259e-12
5.97519e-12
9.8336e-12
1.46734e-11
2.15217e-11
3.48768e-11
1.01789e-10
-1.48303e-08
-3.28698e-08
-4.73226e-08
-5.97692e-08
-7.10172e-08
-8.14713e-08
-9.13489e-08
-1.00778e-07
-1.09839e-07
-1.18587e-07
-1.27063e-07
-1.35296e-07
-1.4331e-07
-1.51125e-07
-1.58756e-07
-1.66217e-07
-1.7352e-07
-1.80675e-07
-1.87691e-07
-1.94576e-07
-2.01337e-07
-2.07981e-07
-2.14513e-07
-2.20938e-07
-2.27262e-07
-2.33488e-07
-2.39621e-07
-2.45663e-07
-2.51617e-07
-2.57487e-07
-2.63274e-07
-2.6898e-07
-2.74606e-07
-2.80154e-07
-2.85624e-07
-2.91017e-07
-2.96332e-07
-3.01569e-07
-3.06728e-07
-3.11807e-07
-3.16805e-07
-3.21721e-07
-3.26551e-07
-3.31294e-07
-3.35947e-07
-3.40508e-07
-3.44972e-07
-3.49338e-07
-3.53601e-07
-3.57758e-07
)
;
    }
    inandouthalf22
    {
        type            cyclic;
        value           nonuniform List<scalar> 
100
(
-6.03199e-14
-5.97882e-14
-5.92283e-14
-5.86399e-14
-5.80231e-14
-5.73775e-14
-5.67031e-14
-5.59993e-14
-5.52656e-14
-5.45014e-14
-5.37057e-14
-5.28774e-14
-5.20151e-14
-5.1117e-14
-5.0181e-14
-4.92047e-14
-4.81853e-14
-4.71197e-14
-4.6005e-14
-4.48382e-14
-4.36175e-14
-4.2342e-14
-4.10128e-14
-3.96338e-14
-3.82108e-14
-3.67517e-14
-3.52639e-14
-3.3752e-14
-3.22131e-14
-3.06335e-14
-2.89836e-14
-2.7212e-14
-2.52387e-14
-2.29486e-14
-2.02007e-14
-1.68869e-14
-1.30773e-14
-9.20536e-15
-6.05445e-15
-4.2848e-15
-3.75585e-15
-3.68701e-15
-3.70675e-15
-2.49259e-12
-5.97519e-12
-9.8336e-12
-1.46734e-11
-2.15217e-11
-3.48768e-11
-1.01789e-10
1.48303e-08
3.28698e-08
4.73226e-08
5.97692e-08
7.10172e-08
8.14713e-08
9.13489e-08
1.00778e-07
1.09839e-07
1.18587e-07
1.27063e-07
1.35296e-07
1.4331e-07
1.51125e-07
1.58756e-07
1.66217e-07
1.7352e-07
1.80675e-07
1.87691e-07
1.94576e-07
2.01337e-07
2.07981e-07
2.14513e-07
2.20938e-07
2.27262e-07
2.33488e-07
2.39621e-07
2.45663e-07
2.51617e-07
2.57487e-07
2.63274e-07
2.6898e-07
2.74606e-07
2.80154e-07
2.85624e-07
2.91017e-07
2.96332e-07
3.01569e-07
3.06728e-07
3.11807e-07
3.16805e-07
3.21721e-07
3.26551e-07
3.31294e-07
3.35947e-07
3.40508e-07
3.44972e-07
3.49338e-07
3.53601e-07
3.57758e-07
)
;
    }
    inandouthalf31
    {
        type            cyclic;
        value           nonuniform List<scalar> 
110
(
-3.61807e-07
-3.73206e-07
-3.84881e-07
-3.96832e-07
-4.0906e-07
-4.21566e-07
-4.34349e-07
-4.47409e-07
-4.60745e-07
-4.74356e-07
-4.88239e-07
-5.02392e-07
-5.16808e-07
-5.31484e-07
-5.46414e-07
-5.6159e-07
-5.77007e-07
-5.92658e-07
-6.08536e-07
-6.24639e-07
-6.40961e-07
-6.57502e-07
-6.74261e-07
-6.91237e-07
-7.08431e-07
-7.25841e-07
-7.43468e-07
-7.6131e-07
-7.79364e-07
-7.9763e-07
-8.16098e-07
-8.34765e-07
-8.53612e-07
-8.72626e-07
-8.91763e-07
-9.10986e-07
-9.30671e-07
-1.10831e-06
-1.13601e-06
-1.16271e-06
-1.18929e-06
-1.21581e-06
-1.24221e-06
-1.26858e-06
-1.29489e-06
-1.3212e-06
-1.34758e-06
-1.3739e-06
-1.40054e-06
-1.42682e-06
-1.45387e-06
-1.4784e-06
-1.50176e-06
-1.52896e-06
-1.55646e-06
-1.58437e-06
-1.61259e-06
-1.64114e-06
-1.67007e-06
-1.6994e-06
-1.72917e-06
-1.75943e-06
-1.79021e-06
-1.82157e-06
-1.85357e-06
-1.88628e-06
-1.91976e-06
-1.95412e-06
-1.98944e-06
-2.02586e-06
-2.06349e-06
-2.10249e-06
-2.14339e-06
-2.18643e-06
-2.23079e-06
-2.27606e-06
-2.32226e-06
-2.3694e-06
-2.41749e-06
-2.46656e-06
-2.51662e-06
-2.5677e-06
-2.61982e-06
-2.673e-06
-2.72725e-06
-2.78261e-06
-2.83909e-06
-2.89671e-06
-2.95551e-06
-3.0155e-06
-3.0767e-06
-3.13915e-06
-3.20287e-06
-3.26788e-06
-3.33421e-06
-3.40188e-06
-3.47093e-06
-3.54138e-06
-3.61327e-06
-3.68661e-06
-3.76143e-06
-3.83778e-06
-3.91568e-06
-3.99515e-06
-4.07625e-06
-4.15898e-06
-4.2434e-06
-4.32953e-06
-4.41741e-06
-4.50707e-06
)
;
    }
    inandouthalf32
    {
        type            cyclic;
        value           nonuniform List<scalar> 
110
(
3.61807e-07
3.73206e-07
3.84881e-07
3.96832e-07
4.0906e-07
4.21566e-07
4.34349e-07
4.47409e-07
4.60745e-07
4.74356e-07
4.88239e-07
5.02392e-07
5.16808e-07
5.31484e-07
5.46414e-07
5.6159e-07
5.77007e-07
5.92658e-07
6.08536e-07
6.24639e-07
6.40961e-07
6.57502e-07
6.74261e-07
6.91237e-07
7.08431e-07
7.25841e-07
7.43468e-07
7.6131e-07
7.79364e-07
7.9763e-07
8.16098e-07
8.34765e-07
8.53612e-07
8.72626e-07
8.91763e-07
9.10986e-07
9.30671e-07
1.10831e-06
1.13601e-06
1.16271e-06
1.18929e-06
1.21581e-06
1.24221e-06
1.26858e-06
1.29489e-06
1.3212e-06
1.34758e-06
1.3739e-06
1.40054e-06
1.42682e-06
1.45387e-06
1.4784e-06
1.50176e-06
1.52896e-06
1.55646e-06
1.58437e-06
1.61259e-06
1.64114e-06
1.67007e-06
1.6994e-06
1.72917e-06
1.75943e-06
1.79021e-06
1.82157e-06
1.85357e-06
1.88628e-06
1.91976e-06
1.95412e-06
1.98944e-06
2.02586e-06
2.06349e-06
2.10249e-06
2.14339e-06
2.18643e-06
2.23079e-06
2.27606e-06
2.32226e-06
2.3694e-06
2.41749e-06
2.46656e-06
2.51662e-06
2.5677e-06
2.61982e-06
2.673e-06
2.72725e-06
2.78261e-06
2.83909e-06
2.89671e-06
2.95551e-06
3.0155e-06
3.0767e-06
3.13915e-06
3.20287e-06
3.26788e-06
3.33421e-06
3.40188e-06
3.47093e-06
3.54138e-06
3.61327e-06
3.68661e-06
3.76143e-06
3.83778e-06
3.91568e-06
3.99515e-06
4.07625e-06
4.15898e-06
4.2434e-06
4.32953e-06
4.41741e-06
4.50707e-06
)
;
    }
    inandouthalf41
    {
        type            cyclic;
        value           nonuniform List<scalar> 
50
(
-4.03429e-06
-4.03429e-06
-4.03429e-06
-4.03429e-06
-4.03429e-06
-4.03429e-06
-4.03429e-06
-4.03429e-06
-4.03429e-06
-4.03429e-06
-4.03429e-06
-4.03429e-06
-4.03429e-06
-4.03429e-06
-4.03429e-06
-4.03429e-06
-4.03429e-06
-4.03429e-06
-4.03429e-06
-4.03429e-06
-4.03429e-06
-4.03429e-06
-4.03429e-06
-4.03429e-06
-4.03429e-06
-4.03429e-06
-4.03429e-06
-4.03429e-06
-4.03429e-06
-4.03429e-06
-4.03429e-06
-4.03429e-06
-4.03429e-06
-4.03429e-06
-4.03429e-06
-4.03429e-06
-4.03429e-06
-4.03429e-06
-4.03429e-06
-4.03429e-06
-4.03429e-06
-4.03429e-06
-4.03429e-06
-4.03429e-06
-4.03429e-06
-4.03429e-06
-4.03429e-06
-4.0343e-06
-4.03458e-06
-4.04117e-06
)
;
    }
    inandouthalf42
    {
        type            cyclic;
        value           nonuniform List<scalar> 
50
(
4.03429e-06
4.03429e-06
4.03429e-06
4.03429e-06
4.03429e-06
4.03429e-06
4.03429e-06
4.03429e-06
4.03429e-06
4.03429e-06
4.03429e-06
4.03429e-06
4.03429e-06
4.03429e-06
4.03429e-06
4.03429e-06
4.03429e-06
4.03429e-06
4.03429e-06
4.03429e-06
4.03429e-06
4.03429e-06
4.03429e-06
4.03429e-06
4.03429e-06
4.03429e-06
4.03429e-06
4.03429e-06
4.03429e-06
4.03429e-06
4.03429e-06
4.03429e-06
4.03429e-06
4.03429e-06
4.03429e-06
4.03429e-06
4.03429e-06
4.03429e-06
4.03429e-06
4.03429e-06
4.03429e-06
4.03429e-06
4.03429e-06
4.03429e-06
4.03429e-06
4.03429e-06
4.03429e-06
4.0343e-06
4.03458e-06
4.04117e-06
)
;
    }
    top
    {
        type            symmetryPlane;
        value           uniform 0;
    }
    walls
    {
        type            fixedValue;
        value           uniform 0;
    }
    frontAndBackPlanes
    {
        type            empty;
        value           nonuniform 0();
    }
}


// ************************************************************************* //
