/*--------------------------------*- C++ -*----------------------------------*\
| =========                 |                                                 |
| \\      /  F ield         | OpenFOAM: The Open Source CFD Toolbox           |
|  \\    /   O peration     | Version:  2.4.x                                 |
|   \\  /    A nd           | Web:      www.OpenFOAM.org                      |
|    \\/     M anipulation  |                                                 |
\*---------------------------------------------------------------------------*/
FoamFile
{
    version     2.0;
    format      ascii;
    class       surfaceScalarField;
    location    "10.3";
    object      phib_0;
}
// * * * * * * * * * * * * * * * * * * * * * * * * * * * * * * * * * * * * * //

dimensions      [0 3 -1 0 0 0 0];

internalField   nonuniform List<scalar> 
359
(
4.7783e-14
1.19063e-13
1.82633e-13
2.4113e-13
2.99128e-13
3.56436e-13
4.12244e-13
4.66506e-13
5.19486e-13
5.71465e-13
6.22651e-13
6.7319e-13
7.23216e-13
7.72853e-13
8.22227e-13
8.71461e-13
9.20668e-13
9.69948e-13
1.01939e-12
1.06908e-12
1.11909e-12
1.16949e-12
1.22035e-12
1.27172e-12
1.32365e-12
1.37618e-12
1.42935e-12
1.48319e-12
1.53774e-12
1.593e-12
1.649e-12
1.70575e-12
1.76326e-12
1.82155e-12
1.88059e-12
1.94042e-12
2.001e-12
2.06234e-12
2.12445e-12
2.18729e-12
2.25087e-12
2.31518e-12
2.38017e-12
2.44587e-12
2.51224e-12
2.57927e-12
2.64694e-12
2.71519e-12
2.78404e-12
2.85348e-12
2.92345e-12
2.99395e-12
3.06493e-12
3.1364e-12
3.20829e-12
3.28062e-12
3.35333e-12
3.4264e-12
3.49979e-12
3.57345e-12
3.64741e-12
3.72158e-12
3.79599e-12
3.87058e-12
3.94532e-12
4.02016e-12
4.09509e-12
4.17006e-12
4.24504e-12
4.31997e-12
4.39486e-12
4.46968e-12
4.54436e-12
4.61891e-12
4.69328e-12
4.76746e-12
4.84139e-12
4.91503e-12
4.98833e-12
5.06129e-12
5.13384e-12
5.20597e-12
5.27765e-12
5.34887e-12
5.4196e-12
5.48981e-12
5.55947e-12
5.62853e-12
5.69695e-12
5.76472e-12
5.83178e-12
5.89812e-12
5.96371e-12
6.02855e-12
6.09261e-12
6.15588e-12
6.21834e-12
6.27997e-12
6.34074e-12
6.40065e-12
6.45967e-12
6.5178e-12
6.57502e-12
6.63133e-12
6.68674e-12
6.74123e-12
6.79482e-12
6.84751e-12
6.8993e-12
6.95023e-12
7.00029e-12
7.04951e-12
7.09793e-12
7.14556e-12
7.19246e-12
7.23865e-12
7.28416e-12
7.32901e-12
7.37319e-12
7.41668e-12
7.45939e-12
7.5012e-12
7.5419e-12
7.58127e-12
7.61903e-12
7.65496e-12
7.68889e-12
7.72082e-12
7.75093e-12
7.77965e-12
7.80768e-12
7.83596e-12
7.86568e-12
7.89817e-12
7.93432e-12
7.9734e-12
8.0114e-12
8.04116e-12
8.05608e-12
8.0558e-12
8.04601e-12
7.98486e-12
2.65643e-11
5.8122e-11
9.27025e-11
1.3481e-10
1.88785e-10
2.69958e-10
3.88247e-10
3.49061e-09
2.93807e-09
2.39185e-09
2.11027e-09
1.8741e-09
1.66937e-09
1.49167e-09
1.33681e-09
1.20123e-09
1.08201e-09
9.76708e-10
8.83303e-10
8.00118e-10
7.25759e-10
6.59065e-10
5.99061e-10
5.44927e-10
4.95969e-10
4.51598e-10
4.11307e-10
3.74661e-10
3.41283e-10
3.10845e-10
2.8306e-10
2.57675e-10
2.34467e-10
2.13239e-10
1.93813e-10
1.76034e-10
1.59759e-10
1.4486e-10
1.31224e-10
1.18745e-10
1.0733e-10
9.68918e-11
8.73529e-11
7.86416e-11
7.06922e-11
6.34449e-11
5.68445e-11
5.08406e-11
4.53867e-11
4.04402e-11
3.59617e-11
3.19152e-11
2.82675e-11
2.49878e-11
2.20477e-11
1.94205e-11
1.70807e-11
1.50039e-11
1.31659e-11
1.15122e-11
1.003e-11
8.70458e-12
7.52008e-12
6.46049e-12
5.51083e-12
4.65828e-12
3.89276e-12
3.20672e-12
2.59451e-12
2.05183e-12
1.57538e-12
1.16274e-12
8.1207e-13
5.21761e-13
2.89798e-13
1.12981e-13
-1.3731e-14
-9.73485e-14
-1.46311e-13
-1.69412e-13
-1.74705e-13
-1.68737e-13
-1.5636e-13
-1.40831e-13
-1.24272e-13
-1.07811e-13
-9.22966e-14
-7.78177e-14
-6.49184e-14
-5.3125e-14
-4.31068e-14
-3.38331e-14
-2.67566e-14
-1.94234e-14
-1.51335e-14
-1.44408e-14
-1.02741e-14
-6.72337e-15
-3.96889e-15
-2.01359e-15
-8.93734e-16
-1.59326e-16
1.071e-16
2.45811e-16
2.30271e-16
2.12322e-16
1.49823e-16
9.86706e-17
8.04625e-17
4.47185e-17
1.42704e-17
1.38815e-17
1.33922e-17
1.29611e-17
1.24462e-17
1.19855e-17
1.14452e-17
1.09599e-17
1.04264e-17
9.96157e-18
9.47737e-18
9.10769e-18
8.80723e-18
8.61459e-18
8.43258e-18
8.29962e-18
8.19276e-18
8.09585e-18
7.97991e-18
7.86781e-18
7.822e-18
7.75798e-18
7.66703e-18
7.51356e-18
7.3853e-18
7.18024e-18
6.9552e-18
6.67902e-18
6.56266e-18
6.39246e-18
6.21648e-18
5.93724e-18
5.71523e-18
5.38381e-18
5.1008e-18
4.65148e-18
4.32932e-18
3.92339e-18
3.50899e-18
3.0036e-18
2.56457e-18
2.0563e-18
1.57178e-18
1.0493e-18
8.43483e-19
7.34754e-19
6.67158e-19
6.37924e-19
5.99086e-19
5.46345e-19
4.96684e-19
4.38813e-19
4.1019e-19
3.78588e-19
3.48418e-19
3.21518e-19
2.90981e-19
2.69479e-19
2.49655e-19
2.38058e-19
2.10324e-19
1.94849e-19
1.79122e-19
1.79559e-19
1.67537e-19
1.7464e-19
1.81671e-19
2.07396e-19
2.07303e-19
2.28476e-19
2.50678e-19
2.98434e-19
3.33292e-19
3.95303e-19
4.63207e-19
5.49756e-19
6.92709e-19
9.16195e-19
1.15204e-18
1.56027e-18
1.82413e-18
2.34563e-18
2.86687e-18
3.64812e-18
4.02207e-18
4.69798e-18
5.38183e-18
6.40333e-18
7.25978e-18
8.3666e-18
9.52849e-18
1.0798e-17
1.26006e-17
1.42606e-17
1.5952e-17
1.72535e-17
1.90869e-17
2.00896e-17
2.11978e-17
2.1405e-17
2.40652e-17
2.49784e-17
2.59232e-17
2.46202e-17
2.47395e-17
2.30767e-17
2.27575e-17
)
;

boundaryField
{
    inandouthalf11
    {
        type            cyclic;
        value           nonuniform List<scalar> 
100
(
2.77514e-10
2.75976e-10
2.75767e-10
2.75976e-10
2.76076e-10
2.76108e-10
2.76149e-10
2.76201e-10
2.76254e-10
2.76308e-10
2.76362e-10
2.76416e-10
2.76471e-10
2.76526e-10
2.76582e-10
2.76638e-10
2.76695e-10
2.76752e-10
2.7681e-10
2.76869e-10
2.76928e-10
2.76987e-10
2.77048e-10
2.77109e-10
2.7717e-10
2.77233e-10
2.77296e-10
2.77359e-10
2.77424e-10
2.77489e-10
2.77554e-10
2.77621e-10
2.77688e-10
2.77756e-10
2.77825e-10
2.77894e-10
2.77964e-10
2.78035e-10
2.78107e-10
2.78179e-10
2.78253e-10
2.78327e-10
2.78402e-10
2.78478e-10
2.78555e-10
2.78632e-10
2.78711e-10
2.7879e-10
2.78871e-10
2.78953e-10
2.79034e-10
2.79118e-10
2.79202e-10
2.79287e-10
2.79373e-10
2.79461e-10
2.79549e-10
2.79639e-10
2.7973e-10
2.79821e-10
2.79915e-10
2.80008e-10
2.80104e-10
2.80201e-10
2.80299e-10
2.80398e-10
2.80499e-10
2.80601e-10
2.80704e-10
2.80808e-10
2.80915e-10
2.81023e-10
2.81132e-10
2.81243e-10
2.81356e-10
2.8147e-10
2.81586e-10
2.81704e-10
2.81823e-10
2.81945e-10
2.82068e-10
2.82193e-10
2.82321e-10
2.8245e-10
2.82582e-10
2.82716e-10
2.82852e-10
2.82991e-10
2.83132e-10
2.83276e-10
2.83422e-10
2.83571e-10
2.83722e-10
2.83877e-10
2.84035e-10
2.84196e-10
2.8436e-10
2.84527e-10
2.84698e-10
2.84872e-10
)
;
    }
    inandouthalf12
    {
        type            cyclic;
        value           nonuniform List<scalar> 
100
(
-2.77514e-10
-2.75976e-10
-2.75767e-10
-2.75976e-10
-2.76076e-10
-2.76108e-10
-2.76149e-10
-2.76201e-10
-2.76254e-10
-2.76308e-10
-2.76362e-10
-2.76416e-10
-2.76471e-10
-2.76526e-10
-2.76582e-10
-2.76638e-10
-2.76695e-10
-2.76752e-10
-2.7681e-10
-2.76869e-10
-2.76928e-10
-2.76987e-10
-2.77048e-10
-2.77109e-10
-2.7717e-10
-2.77233e-10
-2.77296e-10
-2.77359e-10
-2.77424e-10
-2.77489e-10
-2.77554e-10
-2.77621e-10
-2.77688e-10
-2.77756e-10
-2.77825e-10
-2.77894e-10
-2.77964e-10
-2.78035e-10
-2.78107e-10
-2.78179e-10
-2.78253e-10
-2.78327e-10
-2.78402e-10
-2.78478e-10
-2.78555e-10
-2.78632e-10
-2.78711e-10
-2.7879e-10
-2.78871e-10
-2.78953e-10
-2.79034e-10
-2.79118e-10
-2.79202e-10
-2.79287e-10
-2.79373e-10
-2.79461e-10
-2.79549e-10
-2.79639e-10
-2.7973e-10
-2.79821e-10
-2.79915e-10
-2.80008e-10
-2.80104e-10
-2.80201e-10
-2.80299e-10
-2.80398e-10
-2.80499e-10
-2.80601e-10
-2.80704e-10
-2.80808e-10
-2.80915e-10
-2.81023e-10
-2.81132e-10
-2.81243e-10
-2.81356e-10
-2.8147e-10
-2.81586e-10
-2.81704e-10
-2.81823e-10
-2.81945e-10
-2.82068e-10
-2.82193e-10
-2.82321e-10
-2.8245e-10
-2.82582e-10
-2.82716e-10
-2.82852e-10
-2.82991e-10
-2.83132e-10
-2.83276e-10
-2.83422e-10
-2.83571e-10
-2.83722e-10
-2.83877e-10
-2.84035e-10
-2.84196e-10
-2.8436e-10
-2.84527e-10
-2.84698e-10
-2.84872e-10
)
;
    }
    inandouthalf21
    {
        type            cyclic;
        value           nonuniform List<scalar> 
100
(
2.85051e-10
2.85233e-10
2.85419e-10
2.85609e-10
2.85804e-10
2.86004e-10
2.86208e-10
2.86417e-10
2.86631e-10
2.86851e-10
2.87076e-10
2.87307e-10
2.87544e-10
2.87788e-10
2.88038e-10
2.88295e-10
2.88559e-10
2.88832e-10
2.89112e-10
2.89401e-10
2.89699e-10
2.90006e-10
2.90324e-10
2.90653e-10
2.90993e-10
2.91345e-10
2.9171e-10
2.9209e-10
2.92485e-10
2.92896e-10
2.93325e-10
2.93773e-10
2.9424e-10
2.94733e-10
2.95256e-10
2.95812e-10
2.96397e-10
2.97022e-10
2.97718e-10
2.98518e-10
2.99388e-10
3.00399e-10
3.0863e-10
3.10701e-10
3.15826e-10
3.22536e-10
3.30719e-10
3.42151e-10
3.70841e-10
2.17606e-09
-1.42459e-08
-3.03289e-08
-4.3442e-08
-5.50592e-08
-6.57826e-08
-7.58902e-08
-8.553e-08
-9.47904e-08
-1.0373e-07
-1.12389e-07
-1.20798e-07
-1.28982e-07
-1.3696e-07
-1.44747e-07
-1.52359e-07
-1.59807e-07
-1.67101e-07
-1.74251e-07
-1.81265e-07
-1.8815e-07
-1.94913e-07
-2.01559e-07
-2.08094e-07
-2.14523e-07
-2.20851e-07
-2.27081e-07
-2.33217e-07
-2.39263e-07
-2.45222e-07
-2.51096e-07
-2.56888e-07
-2.62602e-07
-2.68238e-07
-2.73799e-07
-2.79288e-07
-2.84705e-07
-2.90053e-07
-2.95333e-07
-3.00546e-07
-3.05695e-07
-3.1078e-07
-3.15802e-07
-3.20762e-07
-3.25662e-07
-3.30502e-07
-3.35283e-07
-3.40006e-07
-3.44672e-07
-3.49281e-07
-3.53834e-07
)
;
    }
    inandouthalf22
    {
        type            cyclic;
        value           nonuniform List<scalar> 
100
(
-2.85051e-10
-2.85233e-10
-2.85419e-10
-2.85609e-10
-2.85804e-10
-2.86004e-10
-2.86208e-10
-2.86417e-10
-2.86631e-10
-2.86851e-10
-2.87076e-10
-2.87307e-10
-2.87544e-10
-2.87788e-10
-2.88038e-10
-2.88295e-10
-2.88559e-10
-2.88832e-10
-2.89112e-10
-2.89401e-10
-2.89699e-10
-2.90006e-10
-2.90324e-10
-2.90653e-10
-2.90993e-10
-2.91345e-10
-2.9171e-10
-2.9209e-10
-2.92485e-10
-2.92896e-10
-2.93325e-10
-2.93773e-10
-2.9424e-10
-2.94733e-10
-2.95256e-10
-2.95812e-10
-2.96397e-10
-2.97022e-10
-2.97718e-10
-2.98518e-10
-2.99388e-10
-3.00399e-10
-3.0863e-10
-3.10701e-10
-3.15826e-10
-3.22536e-10
-3.30719e-10
-3.42151e-10
-3.70841e-10
-2.17606e-09
1.42459e-08
3.03289e-08
4.3442e-08
5.50592e-08
6.57826e-08
7.58902e-08
8.553e-08
9.47904e-08
1.0373e-07
1.12389e-07
1.20798e-07
1.28982e-07
1.3696e-07
1.44747e-07
1.52359e-07
1.59807e-07
1.67101e-07
1.74251e-07
1.81265e-07
1.8815e-07
1.94913e-07
2.01559e-07
2.08094e-07
2.14523e-07
2.20851e-07
2.27081e-07
2.33217e-07
2.39263e-07
2.45222e-07
2.51096e-07
2.56888e-07
2.62602e-07
2.68238e-07
2.73799e-07
2.79288e-07
2.84705e-07
2.90053e-07
2.95333e-07
3.00546e-07
3.05695e-07
3.1078e-07
3.15802e-07
3.20762e-07
3.25662e-07
3.30502e-07
3.35283e-07
3.40006e-07
3.44672e-07
3.49281e-07
3.53834e-07
)
;
    }
    inandouthalf31
    {
        type            cyclic;
        value           nonuniform List<scalar> 
110
(
-3.58332e-07
-3.70184e-07
-3.82404e-07
-3.95004e-07
-4.07993e-07
-4.21382e-07
-4.35181e-07
-4.49401e-07
-4.64052e-07
-4.79143e-07
-4.94686e-07
-5.10691e-07
-5.27166e-07
-5.44121e-07
-5.61564e-07
-5.79505e-07
-5.97951e-07
-6.16907e-07
-6.36379e-07
-6.56372e-07
-6.76887e-07
-6.97926e-07
-7.19486e-07
-7.41564e-07
-7.64152e-07
-7.8724e-07
-8.10814e-07
-8.34855e-07
-8.5934e-07
-8.84239e-07
-9.09517e-07
-9.35136e-07
-9.61046e-07
-9.87198e-07
-1.01353e-06
-1.03999e-06
-1.06652e-06
-1.09306e-06
-1.11957e-06
-1.146e-06
-1.17234e-06
-1.19858e-06
-1.22472e-06
-1.2508e-06
-1.27684e-06
-1.30287e-06
-1.32893e-06
-1.35505e-06
-1.38127e-06
-1.40763e-06
-1.43413e-06
-1.46082e-06
-1.48772e-06
-1.51484e-06
-1.54222e-06
-1.56987e-06
-1.59783e-06
-1.62611e-06
-1.65475e-06
-1.68378e-06
-1.71324e-06
-1.74317e-06
-1.77361e-06
-1.80462e-06
-1.83625e-06
-1.86856e-06
-1.90164e-06
-1.93556e-06
-1.97044e-06
-2.00637e-06
-2.04351e-06
-2.08202e-06
-2.12221e-06
-2.1647e-06
-2.20861e-06
-2.25343e-06
-2.29917e-06
-2.34584e-06
-2.39345e-06
-2.44204e-06
-2.4916e-06
-2.54217e-06
-2.59377e-06
-2.64642e-06
-2.70014e-06
-2.75494e-06
-2.81086e-06
-2.86791e-06
-2.92612e-06
-2.98552e-06
-3.04611e-06
-3.10794e-06
-3.17103e-06
-3.23539e-06
-3.30106e-06
-3.36806e-06
-3.43642e-06
-3.50617e-06
-3.57734e-06
-3.64995e-06
-3.72403e-06
-3.79962e-06
-3.87675e-06
-3.95543e-06
-4.03572e-06
-4.11763e-06
-4.20121e-06
-4.28648e-06
-4.37349e-06
-4.46226e-06
)
;
    }
    inandouthalf32
    {
        type            cyclic;
        value           nonuniform List<scalar> 
110
(
3.58332e-07
3.70184e-07
3.82404e-07
3.95004e-07
4.07993e-07
4.21382e-07
4.35181e-07
4.49401e-07
4.64052e-07
4.79143e-07
4.94686e-07
5.10691e-07
5.27166e-07
5.44121e-07
5.61564e-07
5.79505e-07
5.97951e-07
6.16907e-07
6.36379e-07
6.56372e-07
6.76887e-07
6.97926e-07
7.19486e-07
7.41564e-07
7.64152e-07
7.8724e-07
8.10814e-07
8.34855e-07
8.5934e-07
8.84239e-07
9.09517e-07
9.35136e-07
9.61046e-07
9.87198e-07
1.01353e-06
1.03999e-06
1.06652e-06
1.09306e-06
1.11957e-06
1.146e-06
1.17234e-06
1.19858e-06
1.22472e-06
1.2508e-06
1.27684e-06
1.30287e-06
1.32893e-06
1.35505e-06
1.38127e-06
1.40763e-06
1.43413e-06
1.46082e-06
1.48772e-06
1.51484e-06
1.54222e-06
1.56987e-06
1.59783e-06
1.62611e-06
1.65475e-06
1.68378e-06
1.71324e-06
1.74317e-06
1.77361e-06
1.80462e-06
1.83625e-06
1.86856e-06
1.90164e-06
1.93556e-06
1.97044e-06
2.00637e-06
2.04351e-06
2.08202e-06
2.12221e-06
2.1647e-06
2.20861e-06
2.25343e-06
2.29917e-06
2.34584e-06
2.39345e-06
2.44204e-06
2.4916e-06
2.54217e-06
2.59377e-06
2.64642e-06
2.70014e-06
2.75494e-06
2.81086e-06
2.86791e-06
2.92612e-06
2.98552e-06
3.04611e-06
3.10794e-06
3.17103e-06
3.23539e-06
3.30106e-06
3.36806e-06
3.43642e-06
3.50617e-06
3.57734e-06
3.64995e-06
3.72403e-06
3.79962e-06
3.87675e-06
3.95543e-06
4.03572e-06
4.11763e-06
4.20121e-06
4.28648e-06
4.37349e-06
4.46226e-06
)
;
    }
    inandouthalf41
    {
        type            cyclic;
        value           nonuniform List<scalar> 
50
(
-3.99417e-06
-3.99417e-06
-3.99417e-06
-3.99417e-06
-3.99417e-06
-3.99417e-06
-3.99417e-06
-3.99417e-06
-3.99417e-06
-3.99417e-06
-3.99417e-06
-3.99417e-06
-3.99417e-06
-3.99417e-06
-3.99417e-06
-3.99417e-06
-3.99417e-06
-3.99417e-06
-3.99417e-06
-3.99417e-06
-3.99417e-06
-3.99417e-06
-3.99417e-06
-3.99417e-06
-3.99417e-06
-3.99417e-06
-3.99417e-06
-3.99417e-06
-3.99417e-06
-3.99417e-06
-3.99417e-06
-3.99417e-06
-3.99417e-06
-3.99417e-06
-3.99417e-06
-3.99417e-06
-3.99417e-06
-3.99417e-06
-3.99417e-06
-3.99417e-06
-3.99417e-06
-3.99417e-06
-3.99417e-06
-3.99417e-06
-3.99417e-06
-3.99417e-06
-3.99417e-06
-3.99417e-06
-3.99417e-06
-3.99417e-06
)
;
    }
    inandouthalf42
    {
        type            cyclic;
        value           nonuniform List<scalar> 
50
(
3.99417e-06
3.99417e-06
3.99417e-06
3.99417e-06
3.99417e-06
3.99417e-06
3.99417e-06
3.99417e-06
3.99417e-06
3.99417e-06
3.99417e-06
3.99417e-06
3.99417e-06
3.99417e-06
3.99417e-06
3.99417e-06
3.99417e-06
3.99417e-06
3.99417e-06
3.99417e-06
3.99417e-06
3.99417e-06
3.99417e-06
3.99417e-06
3.99417e-06
3.99417e-06
3.99417e-06
3.99417e-06
3.99417e-06
3.99417e-06
3.99417e-06
3.99417e-06
3.99417e-06
3.99417e-06
3.99417e-06
3.99417e-06
3.99417e-06
3.99417e-06
3.99417e-06
3.99417e-06
3.99417e-06
3.99417e-06
3.99417e-06
3.99417e-06
3.99417e-06
3.99417e-06
3.99417e-06
3.99417e-06
3.99417e-06
3.99417e-06
)
;
    }
    top
    {
        type            symmetryPlane;
        value           uniform 0;
    }
    walls
    {
        type            fixedValue;
        value           uniform 0;
    }
    frontAndBackPlanes
    {
        type            empty;
        value           nonuniform 0();
    }
}


// ************************************************************************* //
