/*--------------------------------*- C++ -*----------------------------------*\
| =========                 |                                                 |
| \\      /  F ield         | OpenFOAM: The Open Source CFD Toolbox           |
|  \\    /   O peration     | Version:  2.4.x                                 |
|   \\  /    A nd           | Web:      www.OpenFOAM.org                      |
|    \\/     M anipulation  |                                                 |
\*---------------------------------------------------------------------------*/
FoamFile
{
    version     2.0;
    format      ascii;
    class       volVectorField;
    location    "10.3";
    object      Ua_0;
}
// * * * * * * * * * * * * * * * * * * * * * * * * * * * * * * * * * * * * * //

dimensions      [0 1 -1 0 0 0 0];

internalField   nonuniform List<vector> 
360
(
(-8.72669e-33 -1.04332e-31 0)
(-1.64052e-09 -1.40014e-08 0)
(-3.31843e-09 -2.4657e-08 0)
(-4.74331e-09 -3.36665e-08 0)
(-6.12091e-09 -4.28254e-08 0)
(-7.48543e-09 -5.20645e-08 0)
(-8.80479e-09 -6.10696e-08 0)
(-1.00692e-08 -6.97976e-08 0)
(-1.1285e-08 -7.83022e-08 0)
(-1.24598e-08 -8.66316e-08 0)
(-1.35998e-08 -9.4823e-08 0)
(-1.47093e-08 -1.02903e-07 0)
(-1.57921e-08 -1.10893e-07 0)
(-1.68512e-08 -1.18813e-07 0)
(-1.78899e-08 -1.26682e-07 0)
(-1.8911e-08 -1.34522e-07 0)
(-1.99172e-08 -1.42351e-07 0)
(-2.09107e-08 -1.50186e-07 0)
(-2.18936e-08 -1.58041e-07 0)
(-2.28677e-08 -1.65931e-07 0)
(-2.38343e-08 -1.73868e-07 0)
(-2.47948e-08 -1.81864e-07 0)
(-2.57504e-08 -1.89929e-07 0)
(-2.6702e-08 -1.98073e-07 0)
(-2.76502e-08 -2.06306e-07 0)
(-2.85957e-08 -2.14632e-07 0)
(-2.95388e-08 -2.2306e-07 0)
(-3.04799e-08 -2.31594e-07 0)
(-3.14191e-08 -2.4024e-07 0)
(-3.23564e-08 -2.49002e-07 0)
(-3.32917e-08 -2.57882e-07 0)
(-3.42249e-08 -2.66883e-07 0)
(-3.51556e-08 -2.76007e-07 0)
(-3.60835e-08 -2.85255e-07 0)
(-3.70084e-08 -2.94629e-07 0)
(-3.79295e-08 -3.04127e-07 0)
(-3.88465e-08 -3.1375e-07 0)
(-3.97587e-08 -3.23498e-07 0)
(-4.06657e-08 -3.33371e-07 0)
(-4.15667e-08 -3.43365e-07 0)
(-4.24611e-08 -3.5348e-07 0)
(-4.33482e-08 -3.63716e-07 0)
(-4.42273e-08 -3.74067e-07 0)
(-4.50976e-08 -3.84532e-07 0)
(-4.59585e-08 -3.9511e-07 0)
(-4.68092e-08 -4.05798e-07 0)
(-4.76491e-08 -4.16593e-07 0)
(-4.8477e-08 -4.2749e-07 0)
(-4.92924e-08 -4.38484e-07 0)
(-5.00947e-08 -4.49577e-07 0)
(-5.08831e-08 -4.60764e-07 0)
(-5.16567e-08 -4.72039e-07 0)
(-5.24149e-08 -4.83399e-07 0)
(-5.31568e-08 -4.94841e-07 0)
(-5.38818e-08 -5.06359e-07 0)
(-5.45891e-08 -5.17951e-07 0)
(-5.52782e-08 -5.29613e-07 0)
(-5.59481e-08 -5.41339e-07 0)
(-5.65983e-08 -5.53124e-07 0)
(-5.7228e-08 -5.64961e-07 0)
(-5.78365e-08 -5.76848e-07 0)
(-5.84234e-08 -5.88782e-07 0)
(-5.8988e-08 -6.00757e-07 0)
(-5.95298e-08 -6.12771e-07 0)
(-6.00481e-08 -6.24816e-07 0)
(-6.05424e-08 -6.36888e-07 0)
(-6.10121e-08 -6.4898e-07 0)
(-6.14568e-08 -6.61089e-07 0)
(-6.18758e-08 -6.73209e-07 0)
(-6.22686e-08 -6.8533e-07 0)
(-6.2635e-08 -6.9745e-07 0)
(-6.29745e-08 -7.09569e-07 0)
(-6.32868e-08 -7.21678e-07 0)
(-6.35714e-08 -7.3377e-07 0)
(-6.38281e-08 -7.45845e-07 0)
(-6.40565e-08 -7.57899e-07 0)
(-6.42564e-08 -7.69925e-07 0)
(-6.44275e-08 -7.81913e-07 0)
(-6.45694e-08 -7.93859e-07 0)
(-6.4682e-08 -8.05758e-07 0)
(-6.47653e-08 -8.17604e-07 0)
(-6.48189e-08 -8.29392e-07 0)
(-6.48429e-08 -8.41118e-07 0)
(-6.48371e-08 -8.52781e-07 0)
(-6.48015e-08 -8.64375e-07 0)
(-6.4736e-08 -8.75897e-07 0)
(-6.46406e-08 -8.87341e-07 0)
(-6.45152e-08 -8.98703e-07 0)
(-6.43599e-08 -9.09976e-07 0)
(-6.41749e-08 -9.21153e-07 0)
(-6.39602e-08 -9.32231e-07 0)
(-6.37159e-08 -9.43204e-07 0)
(-6.34421e-08 -9.54069e-07 0)
(-6.31391e-08 -9.64824e-07 0)
(-6.28069e-08 -9.75467e-07 0)
(-6.24455e-08 -9.85994e-07 0)
(-6.20552e-08 -9.96404e-07 0)
(-6.1636e-08 -1.00669e-06 0)
(-6.11882e-08 -1.01686e-06 0)
(-6.07117e-08 -1.0269e-06 0)
(-6.02068e-08 -1.03681e-06 0)
(-5.96735e-08 -1.04659e-06 0)
(-5.91119e-08 -1.05624e-06 0)
(-5.85219e-08 -1.06575e-06 0)
(-5.79034e-08 -1.07514e-06 0)
(-5.72563e-08 -1.08439e-06 0)
(-5.65802e-08 -1.09351e-06 0)
(-5.58748e-08 -1.1025e-06 0)
(-5.51395e-08 -1.11136e-06 0)
(-5.43736e-08 -1.12009e-06 0)
(-5.35762e-08 -1.1287e-06 0)
(-5.27463e-08 -1.13719e-06 0)
(-5.18824e-08 -1.14557e-06 0)
(-5.09826e-08 -1.15384e-06 0)
(-5.0045e-08 -1.162e-06 0)
(-4.90671e-08 -1.17007e-06 0)
(-4.8046e-08 -1.17804e-06 0)
(-4.69788e-08 -1.18594e-06 0)
(-4.58623e-08 -1.19374e-06 0)
(-4.46939e-08 -1.20147e-06 0)
(-4.34714e-08 -1.2091e-06 0)
(-4.21942e-08 -1.21662e-06 0)
(-4.08633e-08 -1.22401e-06 0)
(-3.94825e-08 -1.23124e-06 0)
(-3.80577e-08 -1.23826e-06 0)
(-3.65969e-08 -1.24503e-06 0)
(-3.51075e-08 -1.25151e-06 0)
(-3.35939e-08 -1.2577e-06 0)
(-3.20535e-08 -1.26361e-06 0)
(-3.04726e-08 -1.26929e-06 0)
(-2.88213e-08 -1.27483e-06 0)
(-2.70486e-08 -1.28037e-06 0)
(-2.50743e-08 -1.28609e-06 0)
(-2.27833e-08 -1.29222e-06 0)
(-2.00342e-08 -1.29899e-06 0)
(-1.67186e-08 -1.30648e-06 0)
(-1.29065e-08 -1.31436e-06 0)
(-9.03081e-09 -1.32167e-06 0)
(-5.8758e-09 -1.32712e-06 0)
(-4.10318e-09 -1.32995e-06 0)
(-3.57316e-09 -1.33074e-06 0)
(-3.50422e-09 -1.33084e-06 0)
(-3.5239e-09 -1.33094e-06 0)
(-2.50836e-06 -7.01248e-06 0)
(-6.01364e-06 -1.27882e-05 0)
(-9.89685e-06 -1.88833e-05 0)
(-1.47664e-05 -2.66812e-05 0)
(-2.16515e-05 -3.69714e-05 0)
(-3.50508e-05 -5.6019e-05 0)
(-0.000101583 -0.000181138 0)
(0.0149254 -0.00617396 0)
(0.033008 -0.00896424 0)
(0.0474826 -0.0119193 0)
(0.0599431 -0.0141222 0)
(0.0712012 -0.0155647 0)
(0.0816634 -0.0164794 0)
(0.0915478 -0.017045 0)
(0.100982 -0.0173703 0)
(0.110048 -0.0175254 0)
(0.118801 -0.0175579 0)
(0.127281 -0.0175006 0)
(0.135518 -0.0173768 0)
(0.143535 -0.0172025 0)
(0.151353 -0.0169896 0)
(0.158987 -0.0167468 0)
(0.16645 -0.0164804 0)
(0.173756 -0.0161954 0)
(0.180913 -0.0158954 0)
(0.187931 -0.0155833 0)
(0.194818 -0.0152615 0)
(0.201581 -0.0149318 0)
(0.208226 -0.0145957 0)
(0.214759 -0.0142543 0)
(0.221186 -0.0139087 0)
(0.227512 -0.0135597 0)
(0.233739 -0.0132081 0)
(0.239873 -0.0128544 0)
(0.245916 -0.0124992 0)
(0.251871 -0.0121429 0)
(0.257742 -0.0117859 0)
(0.26353 -0.0114287 0)
(0.269237 -0.0110715 0)
(0.274864 -0.0107148 0)
(0.280413 -0.0103589 0)
(0.285884 -0.010004 0)
(0.291277 -0.00965047 0)
(0.296593 -0.00929877 0)
(0.301831 -0.00894925 0)
(0.306991 -0.00860233 0)
(0.312071 -0.0082585 0)
(0.317069 -0.00791833 0)
(0.321985 -0.00758246 0)
(0.326816 -0.00725165 0)
(0.33156 -0.0069268 0)
(0.336214 -0.00660895 0)
(0.340775 -0.00629928 0)
(0.34524 -0.0059991 0)
(0.349606 -0.00570977 0)
(0.353869 -0.00543259 0)
(0.358027 -0.00516857 0)
(0.362074 -0.00491833 0)
(0.36605 -0.00467939 0)
(0.369989 -0.00444898 0)
(0.373886 -0.00422565 0)
(0.377738 -0.00400666 0)
(0.381539 -0.0037881 0)
(0.385285 -0.00356533 0)
(0.388973 -0.00333376 0)
(0.392596 -0.00308963 0)
(0.396151 -0.00283064 0)
(0.399632 -0.0025559 0)
(0.403033 -0.00226587 0)
(0.406349 -0.00196213 0)
(0.409573 -0.00164749 0)
(0.412699 -0.00132603 0)
(0.415722 -0.00100315 0)
(0.418635 -0.000685461 0)
(0.421435 -0.000380314 0)
(0.424116 -9.5003e-05 0)
(0.426676 0.000164223 0)
(0.429114 0.000393056 0)
(0.43143 0.000589612 0)
(0.433624 0.000754358 0)
(0.435697 0.000889552 0)
(0.437649 0.000998521 0)
(0.439484 0.00108484 0)
(0.4412 0.00115208 0)
(0.4428 0.00120284 0)
(0.444282 0.00123983 0)
(0.445648 0.00126367 0)
(0.446895 0.00127633 0)
(0.448022 0.00127584 0)
(0.449023 0.00126418 0)
(0.449893 0.00123466 0)
(0.450612 0.00118984 0)
(0.451168 0.00110943 0)
(0.451747 0.000982593 0)
(0.527223 0.000438547 0)
(0.529646 0.00143654 0)
(0.531311 0.000912146 0)
(0.532644 0.00115299 0)
(0.533685 0.000597807 0)
(0.534426 0.00100182 0)
(0.534911 -0.000239401 0)
(0.535144 0.000682525 0)
(0.535154 -0.00108914 0)
(0.534981 0.000572103 0)
(0.534579 -0.00251895 0)
(0.534104 0.00129632 0)
(0.533298 -0.00488969 0)
(0.532601 0.00340532 0)
(0.530813 -0.0116008 0)
(0.528474 -0.0377995 0)
(0.527343 -0.0395598 0)
(0.526148 -0.0394951 0)
(0.524929 -0.0395 0)
(0.523648 -0.0395004 0)
(0.52232 -0.0395013 0)
(0.520953 -0.0395021 0)
(0.519558 -0.0395029 0)
(0.518144 -0.0395036 0)
(0.516722 -0.0395042 0)
(0.515304 -0.0395046 0)
(0.513901 -0.0395047 0)
(0.512527 -0.0395046 0)
(0.511195 -0.0395041 0)
(0.50992 -0.0395032 0)
(0.50872 -0.0395019 0)
(0.507614 -0.0395 0)
(0.506622 -0.0394974 0)
(0.505769 -0.0394938 0)
(0.505078 -0.0394884 0)
(0.504659 -0.0394785 0)
(0.504552 -0.0394711 0)
(0.504547 -0.0394691 0)
(0.504547 -0.039469 0)
(0.504547 -0.039469 0)
(0.504547 -0.039469 0)
(0.504547 -0.039469 0)
(0.504547 -0.039469 0)
(0.504547 -0.039469 0)
(0.504547 -0.039469 0)
(0.504547 -0.039469 0)
(0.504547 -0.039469 0)
(0.504547 -0.039469 0)
(0.504547 -0.039469 0)
(0.504547 -0.039469 0)
(0.504547 -0.039469 0)
(0.504547 -0.039469 0)
(0.504547 -0.039469 0)
(0.504547 -0.039469 0)
(0.504547 -0.039469 0)
(0.504547 -0.039469 0)
(0.504547 -0.039469 0)
(0.504547 -0.039469 0)
(0.504547 -0.039469 0)
(0.504547 -0.039469 0)
(0.504547 -0.039469 0)
(0.504547 -0.039469 0)
(0.504547 -0.039469 0)
(0.504547 -0.039469 0)
(0.504547 -0.039469 0)
(0.504547 -0.039469 0)
(0.504547 -0.039469 0)
(0.504547 -0.039469 0)
(0.504547 -0.039469 0)
(0.504547 -0.039469 0)
(0.504547 -0.039469 0)
(0.504547 -0.039469 0)
(0.504547 -0.039469 0)
(0.504547 -0.039469 0)
(0.504547 -0.039469 0)
(0.504547 -0.039469 0)
(0.504547 -0.039469 0)
(0.504547 -0.039469 0)
(0.504547 -0.039469 0)
(0.504547 -0.039469 0)
(0.504547 -0.039469 0)
(0.504547 -0.039469 0)
(0.504547 -0.039469 0)
(0.504547 -0.039469 0)
(0.504547 -0.039469 0)
(0.504547 -0.039469 0)
(0.504547 -0.039469 0)
(0.504547 -0.039469 0)
(0.504547 -0.039469 0)
(0.504547 -0.039469 0)
(0.504547 -0.039469 0)
(0.504547 -0.039469 0)
(0.504547 -0.039469 0)
(0.504547 -0.039469 0)
(0.504547 -0.039469 0)
(0.504547 -0.039469 0)
(0.504547 -0.039469 0)
(0.504547 -0.039469 0)
(0.504547 -0.039469 0)
(0.504547 -0.039469 0)
(0.504547 -0.039469 0)
(0.504547 -0.039469 0)
(0.504547 -0.039469 0)
(0.504547 -0.039469 0)
(0.504547 -0.039469 0)
(0.504547 -0.039469 0)
(0.504547 -0.039469 0)
(0.504547 -0.039469 0)
(0.504547 -0.039469 0)
(0.504547 -0.039469 0)
(0.504547 -0.039469 0)
(0.504547 -0.039469 0)
(0.504547 -0.039469 0)
(0.504547 -0.039469 0)
(0.504547 -0.039469 0)
(0.504547 -0.039469 0)
(0.504547 -0.039469 0)
(0.504547 -0.039469 0)
(0.504547 -0.039469 0)
(0.504547 -0.0394688 0)
(0.504548 -0.0394603 0)
(0.504584 -0.0391138 0)
(0.505408 -0.0223424 0)
)
;

boundaryField
{
    inandouthalf11
    {
        type            cyclic;
    }
    inandouthalf12
    {
        type            cyclic;
    }
    inandouthalf21
    {
        type            cyclic;
    }
    inandouthalf22
    {
        type            cyclic;
    }
    inandouthalf31
    {
        type            cyclic;
    }
    inandouthalf32
    {
        type            cyclic;
    }
    inandouthalf41
    {
        type            cyclic;
    }
    inandouthalf42
    {
        type            cyclic;
    }
    top
    {
        type            symmetryPlane;
    }
    walls
    {
        type            fixedValue;
        value           uniform (0 0 0);
    }
    frontAndBackPlanes
    {
        type            empty;
    }
}


// ************************************************************************* //
