/*--------------------------------*- C++ -*----------------------------------*\
| =========                 |                                                 |
| \\      /  F ield         | OpenFOAM: The Open Source CFD Toolbox           |
|  \\    /   O peration     | Version:  2.4.x                                 |
|   \\  /    A nd           | Web:      www.OpenFOAM.org                      |
|    \\/     M anipulation  |                                                 |
\*---------------------------------------------------------------------------*/
FoamFile
{
    version     2.0;
    format      ascii;
    class       volVectorField;
    location    "2.25";
    object      ddt0(Ub);
}
// * * * * * * * * * * * * * * * * * * * * * * * * * * * * * * * * * * * * * //

dimensions      [0 1 -2 0 0 0 0];

internalField   nonuniform List<vector> 
360
(
(-0.000236503 -2.80055e-10 0)
(-0.000236906 -8.41199e-10 0)
(-0.000236908 -1.40793e-09 0)
(-0.000236908 -1.97591e-09 0)
(-0.000236908 -2.54236e-09 0)
(-0.00023691 -3.1094e-09 0)
(-0.00023691 -3.67582e-09 0)
(-0.000236912 -4.24477e-09 0)
(-0.000236912 -4.81245e-09 0)
(-0.000236914 -5.38179e-09 0)
(-0.000236916 -5.95188e-09 0)
(-0.000236916 -6.51938e-09 0)
(-0.000236918 -7.088e-09 0)
(-0.00023692 -7.65798e-09 0)
(-0.000236922 -8.22594e-09 0)
(-0.000236924 -8.78977e-09 0)
(-0.000236926 -9.35698e-09 0)
(-0.000236928 -9.92434e-09 0)
(-0.00023693 -1.0486e-08 0)
(-0.000236934 -1.10492e-08 0)
(-0.000236936 -1.16112e-08 0)
(-0.00023694 -1.21691e-08 0)
(-0.000236944 -1.27232e-08 0)
(-0.000236948 -1.32764e-08 0)
(-0.000236952 -1.38281e-08 0)
(-0.000236956 -1.43769e-08 0)
(-0.00023696 -1.49304e-08 0)
(-0.000236966 -1.54823e-08 0)
(-0.000236972 -1.6032e-08 0)
(-0.000236978 -1.65805e-08 0)
(-0.000236984 -1.71243e-08 0)
(-0.000236992 -1.76711e-08 0)
(-0.000236998 -1.82188e-08 0)
(-0.000237008 -1.87607e-08 0)
(-0.000237016 -1.92987e-08 0)
(-0.000237026 -1.98334e-08 0)
(-0.000237036 -2.03682e-08 0)
(-0.000237048 -2.09016e-08 0)
(-0.000237062 -2.14277e-08 0)
(-0.000237073 -2.19517e-08 0)
(-0.000237089 -2.24733e-08 0)
(-0.000237105 -2.29946e-08 0)
(-0.000237121 -2.35145e-08 0)
(-0.000237141 -2.4032e-08 0)
(-0.000237161 -2.45486e-08 0)
(-0.000237183 -2.5059e-08 0)
(-0.000237207 -2.55662e-08 0)
(-0.000237231 -2.60737e-08 0)
(-0.000237259 -2.6576e-08 0)
(-0.000237291 -2.70736e-08 0)
(-0.000237322 -2.75696e-08 0)
(-0.000237358 -2.80593e-08 0)
(-0.000237396 -2.85461e-08 0)
(-0.000237438 -2.90345e-08 0)
(-0.000237482 -2.95214e-08 0)
(-0.000237532 -3.00025e-08 0)
(-0.000237584 -3.04822e-08 0)
(-0.000237641 -3.09691e-08 0)
(-0.000237703 -3.14813e-08 0)
(-0.000237769 -2.31534e-08 0)
(-0.000237858 5.63281e-07 0)
(-0.000238143 5.43983e-06 0)
(-0.00023918 2.13527e-05 0)
(-0.000241414 4.86879e-05 0)
(-0.000244014 7.48811e-05 0)
(-0.000245429 8.5272e-05 0)
(-0.000245323 7.72813e-05 0)
(-0.00024454 5.9804e-05 0)
(-0.000243794 4.25871e-05 0)
(-0.00024329 2.97065e-05 0)
(-0.000242998 2.10554e-05 0)
(-0.000242846 1.53783e-05 0)
(-0.000242782 1.1583e-05 0)
(-0.000242776 8.95249e-06 0)
(-0.000242808 7.05175e-06 0)
(-0.000242868 5.61537e-06 0)
(-0.00024295 4.4658e-06 0)
(-0.000243049 3.46867e-06 0)
(-0.000243166 2.5157e-06 0)
(-0.0002433 1.5288e-06 0)
(-0.000243452 4.70453e-07 0)
(-0.000243621 -6.54329e-07 0)
(-0.000243807 -1.81016e-06 0)
(-0.000244008 -2.95125e-06 0)
(-0.00024422 -4.03914e-06 0)
(-0.000244442 -5.05122e-06 0)
(-0.000244671 -5.9807e-06 0)
(-0.000244908 -6.832e-06 0)
(-0.000245152 -7.61535e-06 0)
(-0.000245403 -8.34275e-06 0)
(-0.000245662 -9.02551e-06 0)
(-0.000245929 -9.67338e-06 0)
(-0.000246204 -1.0295e-05 0)
(-0.000246486 -1.08987e-05 0)
(-0.000246775 -1.14938e-05 0)
(-0.000247069 -1.20906e-05 0)
(-0.000247369 -1.2701e-05 0)
(-0.000247673 -1.33378e-05 0)
(-0.000247982 -1.40136e-05 0)
(-0.000248294 -1.47406e-05 0)
(-0.000248611 -1.5529e-05 0)
(-0.00024893 -1.63874e-05 0)
(-0.000249254 -1.73213e-05 0)
(-0.000249582 -1.83341e-05 0)
(-0.000249914 -1.94264e-05 0)
(-0.00025025 -2.05962e-05 0)
(-0.000250591 -2.18398e-05 0)
(-0.000250938 -2.31513e-05 0)
(-0.000251291 -2.45237e-05 0)
(-0.00025165 -2.5949e-05 0)
(-0.000252017 -2.74189e-05 0)
(-0.000252391 -2.89249e-05 0)
(-0.000252773 -3.04588e-05 0)
(-0.000253164 -3.20131e-05 0)
(-0.000253564 -3.35807e-05 0)
(-0.000253973 -3.51552e-05 0)
(-0.000254392 -3.67312e-05 0)
(-0.000254821 -3.83038e-05 0)
(-0.000255261 -3.98689e-05 0)
(-0.000255712 -4.14229e-05 0)
(-0.000256175 -4.2963e-05 0)
(-0.00025665 -4.44871e-05 0)
(-0.000257138 -4.59946e-05 0)
(-0.000257639 -4.74868e-05 0)
(-0.000258154 -4.89678e-05 0)
(-0.000258684 -5.04452e-05 0)
(-0.000259231 -5.19301e-05 0)
(-0.000259797 -5.34364e-05 0)
(-0.000260387 -5.4978e-05 0)
(-0.000261004 -5.6565e-05 0)
(-0.000261652 -5.81998e-05 0)
(-0.000262331 -5.98727e-05 0)
(-0.000263042 -6.15613e-05 0)
(-0.000263784 -6.32272e-05 0)
(-0.000264552 -6.48079e-05 0)
(-0.000265328 -6.62036e-05 0)
(-0.000266078 -6.7276e-05 0)
(-0.000266762 -6.78784e-05 0)
(-0.000267355 -6.79125e-05 0)
(-0.000267861 -6.74244e-05 0)
(-0.000268307 -6.67361e-05 0)
(-0.000268821 -6.63736e-05 0)
(-0.000269783 -6.67599e-05 0)
(-0.000271426 -6.7842e-05 0)
(-0.000273532 -6.82829e-05 0)
(-0.000275725 -0.000101936 0)
(-0.000276747 0.000119835 0)
(0.000593502 -0.000602188 0)
(0.145582 0.00203592 0)
(0.465814 0.0301792 0)
(0.150261 0.00634028 0)
(-0.063627 0.00172529 0)
(-0.241663 -0.00319965 0)
(-0.411235 -0.00635835 0)
(-0.585648 -0.00818655 0)
(-0.77256 -0.00910968 0)
(-0.977463 -0.00939217 0)
(-1.20484 -0.00922728 0)
(-1.459 -0.0087835 0)
(-1.74448 -0.00821193 0)
(-2.06575 -0.007656 0)
(-2.42746 -0.00725196 0)
(-2.83625 -0.00704717 0)
(-3.30189 -0.00682161 0)
(-3.79155 -0.00600679 0)
(-4.39822 -0.00471624 0)
(-2.52626 -0.00226089 0)
(-1.1629 -0.000988251 0)
(-1.03188 -0.000534937 0)
(-1.00997 -0.000214451 0)
(-1.00048 -0.000126463 0)
(-0.99541 -5.46344e-05 0)
(-0.992429 -5.13051e-05 0)
(-0.990308 -1.98122e-05 0)
(-0.988797 -3.11594e-05 0)
(-0.987629 -8.19655e-06 0)
(-0.986766 -2.21084e-05 0)
(-0.985966 -2.95636e-06 0)
(-0.985418 -1.6823e-05 0)
(-0.984897 -3.19225e-07 0)
(-0.984477 -1.34594e-05 0)
(-0.984126 1.17043e-06 0)
(-0.983811 -1.11169e-05 0)
(-0.983554 2.0085e-06 0)
(-0.983317 -9.36051e-06 0)
(-0.983128 2.44782e-06 0)
(-0.982948 -8.04991e-06 0)
(-0.982794 2.67507e-06 0)
(-0.98265 -6.91376e-06 0)
(-0.982548 2.70281e-06 0)
(-0.98243 -6.06737e-06 0)
(-0.982335 2.71596e-06 0)
(-0.98225 -5.30598e-06 0)
(-0.982174 2.63898e-06 0)
(-0.982112 -4.70573e-06 0)
(-0.982048 2.50479e-06 0)
(-0.981993 -4.14429e-06 0)
(-0.981942 2.39638e-06 0)
(-0.981901 -3.66639e-06 0)
(-0.981863 2.2059e-06 0)
(-0.981829 -3.26993e-06 0)
(-0.981792 2.09505e-06 0)
(-0.981761 -2.94758e-06 0)
(-0.981734 2.02562e-06 0)
(-0.981713 -2.70373e-06 0)
(-0.98169 1.89676e-06 0)
(-0.981667 -2.45893e-06 0)
(-0.981647 1.83499e-06 0)
(-0.981631 -2.25005e-06 0)
(-0.981617 1.72375e-06 0)
(-0.981601 -2.076e-06 0)
(-0.981588 1.66107e-06 0)
(-0.981577 -1.92466e-06 0)
(-0.981566 1.57742e-06 0)
(-0.981556 -1.7951e-06 0)
(-0.981548 1.52727e-06 0)
(-0.981541 -1.69254e-06 0)
(-0.981534 1.46604e-06 0)
(-0.981527 -1.60544e-06 0)
(-0.981522 1.4335e-06 0)
(-0.981517 -1.54084e-06 0)
(-0.981513 1.4102e-06 0)
(-0.981509 -1.48749e-06 0)
(-0.981505 1.29589e-06 0)
(-0.981502 -1.26958e-06 0)
(-0.9815 1.08132e-06 0)
(-0.981498 -1.0485e-06 0)
(-0.981495 8.81756e-07 0)
(-0.981494 -8.50917e-07 0)
(-0.981492 7.09287e-07 0)
(-0.981491 -6.83656e-07 0)
(-0.98149 5.62804e-07 0)
(-0.981489 -5.43207e-07 0)
(-0.981488 4.4114e-07 0)
(-0.981487 -4.28572e-07 0)
(-0.981487 3.42204e-07 0)
(-0.981486 -3.36179e-07 0)
(-0.981486 2.62753e-07 0)
(-0.981485 -2.6318e-07 0)
(-0.981485 1.99729e-07 0)
(-0.981485 -2.06242e-07 0)
(-0.981485 1.50172e-07 0)
(-0.981484 -1.58141e-07 0)
(-0.981484 1.12997e-07 0)
(-0.981484 -1.24587e-07 0)
(-0.981484 8.51851e-08 0)
(-0.981484 -9.96298e-08 0)
(-0.981484 6.50039e-08 0)
(-0.981484 -8.14099e-08 0)
(-0.981484 5.08586e-08 0)
(-0.981484 -6.84779e-08 0)
(-0.981484 4.14335e-08 0)
(-0.981484 -5.96262e-08 0)
(-0.981484 3.56325e-08 0)
(-0.981484 -5.3866e-08 0)
(-0.981484 3.25478e-08 0)
(-0.981484 -5.03862e-08 0)
(-0.981484 3.14357e-08 0)
(-0.981484 -4.85305e-08 0)
(-0.981484 3.16842e-08 0)
(-0.981484 -4.77726e-08 0)
(-0.981484 3.27899e-08 0)
(-0.981484 -4.77146e-08 0)
(-0.981484 3.43341e-08 0)
(-0.981484 -4.80426e-08 0)
(-0.981484 3.59948e-08 0)
(-0.981484 -4.85072e-08 0)
(-0.981484 3.75415e-08 0)
(-0.981484 -4.89e-08 0)
(-0.981484 3.88129e-08 0)
(-0.981484 -4.90589e-08 0)
(-0.981484 3.97111e-08 0)
(-0.981484 -4.88636e-08 0)
(-0.981484 4.01608e-08 0)
(-0.981484 -4.82461e-08 0)
(-0.981484 4.01233e-08 0)
(-0.981484 -4.71638e-08 0)
(-0.981484 3.95756e-08 0)
(-0.981484 -4.56035e-08 0)
(-0.981484 3.85311e-08 0)
(-0.981484 -4.35536e-08 0)
(-0.981484 3.70051e-08 0)
(-0.981484 -4.10452e-08 0)
(-0.981484 3.50195e-08 0)
(-0.981484 -3.81198e-08 0)
(-0.981484 3.25834e-08 0)
(-0.981484 -3.48294e-08 0)
(-0.981484 2.97479e-08 0)
(-0.981484 -3.12021e-08 0)
(-0.981484 2.6549e-08 0)
(-0.981484 -2.72889e-08 0)
(-0.981484 2.30458e-08 0)
(-0.981484 -2.31341e-08 0)
(-0.981484 1.92474e-08 0)
(-0.981484 -1.88192e-08 0)
(-0.981484 1.52136e-08 0)
(-0.981484 -1.43328e-08 0)
(-0.981484 1.09683e-08 0)
(-0.981484 -9.75661e-09 0)
(-0.981484 6.59659e-09 0)
(-0.981484 -5.10188e-09 0)
(-0.981484 2.09683e-09 0)
(-0.981484 -4.07906e-10 0)
(-0.981484 -2.47155e-09 0)
(-0.981484 4.3051e-09 0)
(-0.981484 -7.083e-09 0)
(-0.981484 9.00929e-09 0)
(-0.981484 -1.16983e-08 0)
(-0.981484 1.36886e-08 0)
(-0.981484 -1.62989e-08 0)
(-0.981484 1.61723e-08 0)
(-0.981484 -1.83252e-08 0)
(-0.981484 1.99303e-08 0)
(-0.981484 -2.19413e-08 0)
(-0.981484 2.34695e-08 0)
(-0.981484 -2.53429e-08 0)
(-0.981484 2.67962e-08 0)
(-0.981484 -2.85306e-08 0)
(-0.981484 2.99089e-08 0)
(-0.981484 -3.15092e-08 0)
(-0.981484 3.28119e-08 0)
(-0.981484 -3.42778e-08 0)
(-0.981484 3.55144e-08 0)
(-0.981484 -3.68369e-08 0)
(-0.981484 3.80539e-08 0)
(-0.981484 -3.91139e-08 0)
(-0.981484 4.0501e-08 0)
(-0.981484 -4.12802e-08 0)
(-0.981484 4.2554e-08 0)
(-0.981484 -4.34675e-08 0)
(-0.981484 4.42226e-08 0)
(-0.981484 -4.57363e-08 0)
(-0.981484 4.55862e-08 0)
(-0.981484 -4.78608e-08 0)
(-0.981484 4.67818e-08 0)
(-0.981484 -4.98431e-08 0)
(-0.981484 4.78176e-08 0)
(-0.981484 -5.17643e-08 0)
(-0.981484 4.86095e-08 0)
(-0.981484 -5.36289e-08 0)
(-0.981484 4.91644e-08 0)
(-0.981484 -5.55045e-08 0)
(-0.981484 4.92076e-08 0)
(-0.981484 -5.54689e-08 0)
(-0.981484 5.20932e-08 0)
(-0.981484 -4.09963e-08 0)
(-0.981484 5.446e-08 0)
(-0.981484 -5.89745e-08 0)
(-0.981484 4.44632e-08 0)
(-0.981484 -6.60432e-08 0)
(-0.981484 4.46747e-08 0)
(-0.981484 -7.08683e-08 0)
(-0.981484 4.11716e-08 0)
(-0.981484 -7.1414e-08 0)
(-0.981484 4.26731e-08 0)
(-0.981484 -7.48964e-08 0)
(-0.981484 4.13213e-08 0)
(-0.981484 -7.37443e-08 0)
(-0.981484 4.26547e-08 0)
(-0.981484 -6.6451e-08 0)
)
;

boundaryField
{
    inandouthalf11
    {
        type            cyclic;
    }
    inandouthalf12
    {
        type            cyclic;
    }
    inandouthalf21
    {
        type            cyclic;
    }
    inandouthalf22
    {
        type            cyclic;
    }
    inandouthalf31
    {
        type            cyclic;
    }
    inandouthalf32
    {
        type            cyclic;
    }
    inandouthalf41
    {
        type            cyclic;
    }
    inandouthalf42
    {
        type            cyclic;
    }
    top
    {
        type            symmetryPlane;
    }
    walls
    {
        type            calculated;
        value           uniform (0 0 0);
    }
    frontAndBackPlanes
    {
        type            empty;
    }
}


// ************************************************************************* //
