/*--------------------------------*- C++ -*----------------------------------*\
| =========                 |                                                 |
| \\      /  F ield         | OpenFOAM: The Open Source CFD Toolbox           |
|  \\    /   O peration     | Version:  2.4.x                                 |
|   \\  /    A nd           | Web:      www.OpenFOAM.org                      |
|    \\/     M anipulation  |                                                 |
\*---------------------------------------------------------------------------*/
FoamFile
{
    version     2.0;
    format      ascii;
    class       volScalarField;
    location    "2.25";
    object      p;
}
// * * * * * * * * * * * * * * * * * * * * * * * * * * * * * * * * * * * * * //

dimensions      [1 -1 -2 0 0 0 0];

internalField   nonuniform List<scalar> 
360
(
4898.02
4893.12
4888.21
4883.31
4878.4
4873.5
4868.59
4863.69
4858.78
4853.88
4848.97
4844.07
4839.16
4834.26
4829.35
4824.45
4819.54
4814.64
4809.73
4804.83
4799.92
4795.02
4790.11
4785.21
4780.3
4775.4
4770.49
4765.59
4760.68
4755.78
4750.87
4745.97
4741.06
4736.16
4731.25
4726.35
4721.44
4716.54
4711.63
4706.73
4701.82
4696.92
4692.01
4687.11
4682.2
4677.3
4672.39
4667.49
4662.58
4657.68
4652.77
4647.87
4642.96
4638.06
4633.15
4628.25
4623.34
4618.44
4613.53
4608.63
4603.72
4598.82
4593.91
4589.01
4584.1
4579.18
4574.25
4569.32
4564.39
4559.44
4554.5
4549.56
4544.61
4539.66
4534.71
4529.76
4524.81
4519.85
4514.9
4509.94
4504.98
4500.02
4495.06
4490.1
4485.13
4480.16
4475.19
4470.22
4465.25
4460.27
4455.29
4450.31
4445.33
4440.34
4435.36
4430.37
4425.38
4420.39
4415.39
4410.39
4405.39
4400.39
4395.39
4390.38
4385.37
4380.36
4375.35
4370.33
4365.31
4360.29
4355.27
4350.24
4345.22
4340.19
4335.15
4330.12
4325.08
4320.04
4315
4309.96
4304.92
4299.87
4294.82
4289.77
4284.72
4279.66
4274.61
4269.55
4264.49
4259.43
4254.36
4249.3
4244.23
4239.17
4234.1
4229.03
4223.96
4218.88
4213.81
4208.74
4203.66
4198.59
4193.51
4188.44
4183.37
4178.29
4173.2
4168.24
4160.22
4151.01
4142.6
4135.24
4128.47
4122.12
4116.13
4110.45
4105.09
4100.02
4095.25
4090.79
4086.66
4082.86
4079.43
4076.39
4073.75
4071.58
4068.44
4063.77
4058.88
4053.97
4049.07
4044.17
4039.26
4034.36
4029.45
4024.55
4019.65
4014.74
4009.84
4004.93
4000.03
3995.12
3990.22
3985.31
3980.41
3975.5
3970.6
3965.69
3960.79
3955.88
3950.98
3946.07
3941.17
3936.26
3931.36
3926.45
3921.55
3916.64
3911.74
3906.83
3901.93
3896.97
3891.92
3886.76
3881.5
3876.13
3870.65
3865.06
3859.36
3853.54
3847.6
3841.54
3835.36
3829.06
3822.62
3816.06
3809.36
3802.53
3795.55
3788.44
3781.18
3773.78
3766.22
3758.51
3750.65
3742.62
3734.43
3726.08
3717.55
3708.86
3699.98
3690.93
3681.69
3672.27
3662.65
3652.84
3642.83
3632.61
3622.19
3611.56
3600.71
3589.64
3578.35
3566.83
3555.07
3543.08
3530.84
3518.35
3505.61
3492.61
3479.35
3465.82
3452.01
3437.92
3423.55
3408.88
3393.92
3378.66
3363.08
3347.19
3330.97
3314.43
3297.55
3280.33
3262.76
3244.83
3226.54
3207.87
3188.83
3169.4
3149.58
3129.35
3108.72
3087.66
3066.18
3044.26
3021.9
2999.08
2975.8
2952.05
2927.81
2903.09
2877.86
2852.12
2825.86
2799.06
2771.72
2743.82
2715.36
2686.32
2656.7
2626.47
2595.62
2564.15
2532.05
2499.29
2465.86
2431.76
2396.96
2361.46
2325.24
2288.28
2250.57
2212.1
2172.85
2132.8
2091.93
2050.24
2007.7
1964.3
1922.76
1883.52
1844.28
1805.04
1765.8
1726.56
1687.32
1648.08
1608.84
1569.6
1530.36
1491.12
1451.88
1412.64
1373.4
1334.16
1294.92
1255.68
1216.44
1177.2
1137.96
1098.72
1059.48
1020.24
981
941.76
902.52
863.28
824.04
784.8
745.56
706.32
667.08
627.84
588.6
549.36
510.12
470.88
431.64
392.4
353.16
313.92
274.68
235.44
196.2
156.96
117.72
78.48
39.24
-2.69827e-07
)
;

boundaryField
{
    inandouthalf11
    {
        type            cyclic;
    }
    inandouthalf12
    {
        type            cyclic;
    }
    inandouthalf21
    {
        type            cyclic;
    }
    inandouthalf22
    {
        type            cyclic;
    }
    inandouthalf31
    {
        type            cyclic;
    }
    inandouthalf32
    {
        type            cyclic;
    }
    inandouthalf41
    {
        type            cyclic;
    }
    inandouthalf42
    {
        type            cyclic;
    }
    top
    {
        type            symmetryPlane;
    }
    walls
    {
        type            slip;
    }
    frontAndBackPlanes
    {
        type            empty;
    }
}


// ************************************************************************* //
