/*--------------------------------*- C++ -*----------------------------------*\
| =========                 |                                                 |
| \\      /  F ield         | OpenFOAM: The Open Source CFD Toolbox           |
|  \\    /   O peration     | Version:  2.4.x                                 |
|   \\  /    A nd           | Web:      www.OpenFOAM.org                      |
|    \\/     M anipulation  |                                                 |
\*---------------------------------------------------------------------------*/
FoamFile
{
    version     2.0;
    format      ascii;
    class       surfaceScalarField;
    location    "2.25";
    object      phib_0;
}
// * * * * * * * * * * * * * * * * * * * * * * * * * * * * * * * * * * * * * //

dimensions      [0 3 -1 0 0 0 0];

internalField   nonuniform List<scalar> 
359
(
7.56173e-19
1.51647e-18
2.27681e-18
3.03903e-18
3.80154e-18
4.56728e-18
5.32983e-18
6.0938e-18
6.85635e-18
7.62036e-18
8.38127e-18
9.1437e-18
9.9015e-18
1.06623e-17
1.14172e-17
1.21753e-17
1.29256e-17
1.36802e-17
1.44284e-17
1.51797e-17
1.59244e-17
1.66722e-17
1.74119e-17
1.8157e-17
1.88944e-17
1.96346e-17
2.03635e-17
2.10997e-17
2.18229e-17
2.25529e-17
2.3271e-17
2.39934e-17
2.47056e-17
2.54251e-17
2.61325e-17
2.68431e-17
2.75429e-17
2.82478e-17
2.89402e-17
2.96403e-17
3.03267e-17
3.10198e-17
3.16994e-17
3.23871e-17
3.30587e-17
3.37378e-17
3.4402e-17
3.5073e-17
3.57278e-17
3.63908e-17
3.70402e-17
3.76958e-17
3.83348e-17
3.89803e-17
3.96085e-17
4.02487e-17
4.08674e-17
4.14993e-17
4.46312e-17
2.14229e-15
5.13172e-14
4.42098e-13
2.05048e-12
6.06958e-12
1.27457e-11
2.06732e-11
2.79512e-11
3.35797e-11
3.75765e-11
4.03818e-11
4.2436e-11
4.40529e-11
4.54361e-11
4.67225e-11
4.80076e-11
4.93634e-11
5.0841e-11
5.24712e-11
5.426e-11
5.61885e-11
5.82182e-11
6.03054e-11
6.24121e-11
6.45142e-11
6.66029e-11
6.86811e-11
7.07589e-11
7.28478e-11
7.4958e-11
7.70967e-11
7.92674e-11
8.14713e-11
8.37082e-11
8.59775e-11
8.82794e-11
9.0614e-11
9.29818e-11
9.53827e-11
9.78159e-11
1.00279e-10
1.0277e-10
1.05285e-10
1.07819e-10
1.10368e-10
1.12928e-10
1.15493e-10
1.1806e-10
1.20622e-10
1.23177e-10
1.25721e-10
1.28249e-10
1.30759e-10
1.33248e-10
1.35714e-10
1.38156e-10
1.40572e-10
1.42961e-10
1.45321e-10
1.47654e-10
1.49957e-10
1.5223e-10
1.54473e-10
1.56682e-10
1.58858e-10
1.60999e-10
1.63104e-10
1.65172e-10
1.67202e-10
1.69189e-10
1.71125e-10
1.72998e-10
1.74794e-10
1.76506e-10
1.78134e-10
1.79686e-10
1.81166e-10
1.82572e-10
1.83901e-10
1.85145e-10
1.86266e-10
1.87166e-10
1.87695e-10
1.87847e-10
1.87695e-10
1.87294e-10
1.86685e-10
1.8575e-10
1.32843e-10
-9.93002e-09
-1.1042e-08
-1.03939e-08
-9.38716e-09
-8.30073e-09
-7.23769e-09
-6.24179e-09
-5.33197e-09
-4.5143e-09
-3.78765e-09
-3.14637e-09
-2.58175e-09
-2.08356e-09
-1.63749e-09
-1.22565e-09
-8.39806e-10
-5.04314e-10
-2.66723e-10
-1.30624e-10
-6.29442e-11
-3.23152e-11
-1.87941e-11
-1.24045e-11
-8.98379e-12
-6.86147e-12
-5.41266e-12
-4.36728e-12
-3.59539e-12
-2.97174e-12
-2.50353e-12
-2.11582e-12
-1.80225e-12
-1.54508e-12
-1.32936e-12
-1.15053e-12
-9.97945e-13
-8.71838e-13
-7.61205e-13
-6.65638e-13
-5.82759e-13
-5.18358e-13
-4.53756e-13
-3.99707e-13
-3.53443e-13
-3.13969e-13
-2.80121e-13
-2.47171e-13
-2.17955e-13
-1.93454e-13
-1.73978e-13
-1.56758e-13
-1.39563e-13
-1.2197e-13
-1.07394e-13
-9.6223e-14
-8.80757e-14
-7.81402e-14
-6.71288e-14
-5.82577e-14
-5.2481e-14
-4.73964e-14
-4.08115e-14
-3.49373e-14
-3.12803e-14
-2.77318e-14
-2.33522e-14
-1.99584e-14
-1.79141e-14
-1.57563e-14
-1.30583e-14
-1.09172e-14
-9.61581e-15
-8.28817e-15
-6.83414e-15
-5.8201e-15
-4.96536e-15
-4.03336e-15
-3.3799e-15
-2.89185e-15
-2.3257e-15
-1.8711e-15
-1.58318e-15
-1.27049e-15
-9.85164e-16
-8.01861e-16
-6.31779e-16
-4.89218e-16
-3.83762e-16
-3.04116e-16
-2.62139e-16
-2.36318e-16
-2.21846e-16
-2.34505e-16
4.83776e-16
3.4729e-17
2.3019e-17
2.19378e-17
2.08159e-17
1.99007e-17
1.92614e-17
1.85596e-17
1.79111e-17
1.71852e-17
1.65555e-17
1.58849e-17
1.53062e-17
1.46532e-17
1.40293e-17
1.33683e-17
1.27707e-17
1.21219e-17
1.15142e-17
1.08714e-17
1.02972e-17
9.72368e-18
9.24066e-18
8.82039e-18
8.49345e-18
8.24131e-18
7.98044e-18
7.74604e-18
7.52685e-18
7.3034e-18
7.08778e-18
6.92101e-18
6.75092e-18
6.5702e-18
6.35424e-18
6.15388e-18
5.91269e-18
5.66116e-18
5.38579e-18
5.19455e-18
4.98277e-18
4.77193e-18
4.51526e-18
4.28425e-18
4.00911e-18
3.74071e-18
3.41843e-18
3.14096e-18
2.83695e-18
2.52995e-18
2.19517e-18
1.88208e-18
1.55402e-18
1.24225e-18
9.5365e-19
6.27731e-19
5.36903e-19
4.70131e-19
4.80372e-19
4.33526e-19
3.89253e-19
3.47506e-19
3.07915e-19
2.75689e-19
2.48186e-19
2.21544e-19
2.01644e-19
1.76398e-19
1.5808e-19
1.42603e-19
1.30622e-19
1.1407e-19
9.98515e-20
8.64453e-20
7.54165e-20
6.32404e-20
5.25739e-20
4.2187e-20
3.40782e-20
2.04694e-20
7.64067e-21
-5.73153e-21
-1.81732e-20
-3.49434e-20
-5.17517e-20
-7.28903e-20
-9.45831e-20
-1.72551e-19
-2.55444e-19
-3.44304e-19
-4.39025e-19
-5.3297e-19
-6.36024e-19
-7.4067e-19
-8.51669e-19
-9.62296e-19
-1.07616e-18
-1.191e-18
-1.30351e-18
-1.42891e-18
-1.54008e-18
-1.65884e-18
-1.76023e-18
-1.98325e-18
-2.16163e-18
-2.34682e-18
-2.46703e-18
-2.63712e-18
-2.73036e-18
-2.8365e-18
-3.0976e-18
-3.02218e-18
-3.10376e-18
-3.20832e-18
-3.88108e-18
-3.28514e-18
-4.8554e-18
-8.02014e-18
)
;

boundaryField
{
    inandouthalf11
    {
        type            cyclic;
        value           nonuniform List<scalar> 
100
(
2.09198e-10
2.09554e-10
2.09556e-10
2.09556e-10
2.09556e-10
2.09558e-10
2.09558e-10
2.0956e-10
2.0956e-10
2.09562e-10
2.09563e-10
2.09563e-10
2.09565e-10
2.09567e-10
2.09569e-10
2.0957e-10
2.09572e-10
2.09574e-10
2.09576e-10
2.09579e-10
2.09581e-10
2.09585e-10
2.09588e-10
2.09592e-10
2.09595e-10
2.09599e-10
2.09602e-10
2.09607e-10
2.09613e-10
2.09618e-10
2.09623e-10
2.0963e-10
2.09636e-10
2.09644e-10
2.09651e-10
2.0966e-10
2.09669e-10
2.0968e-10
2.09692e-10
2.09702e-10
2.09717e-10
2.09731e-10
2.09745e-10
2.09762e-10
2.0978e-10
2.09799e-10
2.09821e-10
2.09842e-10
2.09866e-10
2.09895e-10
2.09923e-10
2.09954e-10
2.09988e-10
2.10025e-10
2.10064e-10
2.10108e-10
2.10154e-10
2.10205e-10
2.1026e-10
2.10318e-10
2.10383e-10
2.10453e-10
2.10539e-10
2.10659e-10
2.10832e-10
2.11044e-10
2.11256e-10
2.1144e-10
2.11591e-10
2.11719e-10
2.11836e-10
2.11948e-10
2.12057e-10
2.1217e-10
2.12285e-10
2.12405e-10
2.12528e-10
2.12655e-10
2.12785e-10
2.12916e-10
2.13048e-10
2.13181e-10
2.13315e-10
2.1345e-10
2.13587e-10
2.13727e-10
2.13868e-10
2.14012e-10
2.14157e-10
2.14304e-10
2.14453e-10
2.14603e-10
2.14754e-10
2.14908e-10
2.15063e-10
2.1522e-10
2.15378e-10
2.15539e-10
2.15701e-10
2.15866e-10
)
;
    }
    inandouthalf12
    {
        type            cyclic;
        value           nonuniform List<scalar> 
100
(
-2.09198e-10
-2.09554e-10
-2.09556e-10
-2.09556e-10
-2.09556e-10
-2.09558e-10
-2.09558e-10
-2.0956e-10
-2.0956e-10
-2.09562e-10
-2.09563e-10
-2.09563e-10
-2.09565e-10
-2.09567e-10
-2.09569e-10
-2.0957e-10
-2.09572e-10
-2.09574e-10
-2.09576e-10
-2.09579e-10
-2.09581e-10
-2.09585e-10
-2.09588e-10
-2.09592e-10
-2.09595e-10
-2.09599e-10
-2.09602e-10
-2.09607e-10
-2.09613e-10
-2.09618e-10
-2.09623e-10
-2.0963e-10
-2.09636e-10
-2.09644e-10
-2.09651e-10
-2.0966e-10
-2.09669e-10
-2.0968e-10
-2.09692e-10
-2.09702e-10
-2.09717e-10
-2.09731e-10
-2.09745e-10
-2.09762e-10
-2.0978e-10
-2.09799e-10
-2.09821e-10
-2.09842e-10
-2.09866e-10
-2.09895e-10
-2.09923e-10
-2.09954e-10
-2.09988e-10
-2.10025e-10
-2.10064e-10
-2.10108e-10
-2.10154e-10
-2.10205e-10
-2.1026e-10
-2.10318e-10
-2.10383e-10
-2.10453e-10
-2.10539e-10
-2.10659e-10
-2.10832e-10
-2.11044e-10
-2.11256e-10
-2.1144e-10
-2.11591e-10
-2.11719e-10
-2.11836e-10
-2.11948e-10
-2.12057e-10
-2.1217e-10
-2.12285e-10
-2.12405e-10
-2.12528e-10
-2.12655e-10
-2.12785e-10
-2.12916e-10
-2.13048e-10
-2.13181e-10
-2.13315e-10
-2.1345e-10
-2.13587e-10
-2.13727e-10
-2.13868e-10
-2.14012e-10
-2.14157e-10
-2.14304e-10
-2.14453e-10
-2.14603e-10
-2.14754e-10
-2.14908e-10
-2.15063e-10
-2.1522e-10
-2.15378e-10
-2.15539e-10
-2.15701e-10
-2.15866e-10
)
;
    }
    inandouthalf21
    {
        type            cyclic;
        value           nonuniform List<scalar> 
100
(
2.16032e-10
2.16199e-10
2.16369e-10
2.1654e-10
2.16713e-10
2.16887e-10
2.17064e-10
2.17242e-10
2.17422e-10
2.17604e-10
2.17788e-10
2.17974e-10
2.18162e-10
2.18353e-10
2.18547e-10
2.18743e-10
2.18942e-10
2.19144e-10
2.1935e-10
2.19559e-10
2.19773e-10
2.1999e-10
2.20212e-10
2.20438e-10
2.2067e-10
2.20907e-10
2.21151e-10
2.21402e-10
2.2166e-10
2.21926e-10
2.22201e-10
2.22484e-10
2.22777e-10
2.23085e-10
2.23411e-10
2.23753e-10
2.24106e-10
2.24477e-10
2.24887e-10
2.25358e-10
2.25857e-10
2.26296e-10
2.26864e-10
2.27679e-10
2.28738e-10
2.30107e-10
2.31842e-10
2.21907e-10
-3.11358e-09
-8.51664e-08
-1.68844e-07
-2.41481e-07
-3.07211e-07
-3.6833e-07
-4.26297e-07
-4.82108e-07
-5.36488e-07
-5.8998e-07
-6.43011e-07
-6.9593e-07
-7.49027e-07
-8.02547e-07
-8.56692e-07
-9.11597e-07
-9.67219e-07
-1.02426e-06
-1.06927e-06
-1.08609e-06
-1.09418e-06
-1.10048e-06
-1.10582e-06
-1.11043e-06
-1.1145e-06
-1.11812e-06
-1.12137e-06
-1.1243e-06
-1.12696e-06
-1.12936e-06
-1.13156e-06
-1.13357e-06
-1.1354e-06
-1.13708e-06
-1.13861e-06
-1.14003e-06
-1.14132e-06
-1.14252e-06
-1.14361e-06
-1.14462e-06
-1.14554e-06
-1.1464e-06
-1.14718e-06
-1.1479e-06
-1.14857e-06
-1.14918e-06
-1.14975e-06
-1.15027e-06
-1.15075e-06
-1.15119e-06
-1.1516e-06
-1.15198e-06
)
;
    }
    inandouthalf22
    {
        type            cyclic;
        value           nonuniform List<scalar> 
100
(
-2.16032e-10
-2.16199e-10
-2.16369e-10
-2.1654e-10
-2.16713e-10
-2.16887e-10
-2.17064e-10
-2.17242e-10
-2.17422e-10
-2.17604e-10
-2.17788e-10
-2.17974e-10
-2.18162e-10
-2.18353e-10
-2.18547e-10
-2.18743e-10
-2.18942e-10
-2.19144e-10
-2.1935e-10
-2.19559e-10
-2.19773e-10
-2.1999e-10
-2.20212e-10
-2.20438e-10
-2.2067e-10
-2.20907e-10
-2.21151e-10
-2.21402e-10
-2.2166e-10
-2.21926e-10
-2.22201e-10
-2.22484e-10
-2.22777e-10
-2.23085e-10
-2.23411e-10
-2.23753e-10
-2.24106e-10
-2.24477e-10
-2.24887e-10
-2.25358e-10
-2.25857e-10
-2.26296e-10
-2.26864e-10
-2.27679e-10
-2.28738e-10
-2.30107e-10
-2.31842e-10
-2.21907e-10
3.11358e-09
8.51664e-08
1.68844e-07
2.41481e-07
3.07211e-07
3.6833e-07
4.26297e-07
4.82108e-07
5.36488e-07
5.8998e-07
6.43011e-07
6.9593e-07
7.49027e-07
8.02547e-07
8.56692e-07
9.11597e-07
9.67219e-07
1.02426e-06
1.06927e-06
1.08609e-06
1.09418e-06
1.10048e-06
1.10582e-06
1.11043e-06
1.1145e-06
1.11812e-06
1.12137e-06
1.1243e-06
1.12696e-06
1.12936e-06
1.13156e-06
1.13357e-06
1.1354e-06
1.13708e-06
1.13861e-06
1.14003e-06
1.14132e-06
1.14252e-06
1.14361e-06
1.14462e-06
1.14554e-06
1.1464e-06
1.14718e-06
1.1479e-06
1.14857e-06
1.14918e-06
1.14975e-06
1.15027e-06
1.15075e-06
1.15119e-06
1.1516e-06
1.15198e-06
)
;
    }
    inandouthalf31
    {
        type            cyclic;
        value           nonuniform List<scalar> 
110
(
-1.15233e-06
-1.17605e-06
-1.20023e-06
-1.2249e-06
-1.25005e-06
-1.2757e-06
-1.30185e-06
-1.32852e-06
-1.35572e-06
-1.38347e-06
-1.41176e-06
-1.44061e-06
-1.47004e-06
-1.50005e-06
-1.53066e-06
-1.56189e-06
-1.59373e-06
-1.62622e-06
-1.65935e-06
-1.69314e-06
-1.72762e-06
-1.76278e-06
-1.79865e-06
-1.83524e-06
-1.87257e-06
-1.91065e-06
-1.94949e-06
-1.98912e-06
-2.02954e-06
-2.07078e-06
-2.11286e-06
-2.15578e-06
-2.19957e-06
-2.24425e-06
-2.28983e-06
-2.33633e-06
-2.38377e-06
-2.43217e-06
-2.48156e-06
-2.53194e-06
-2.58334e-06
-2.63579e-06
-2.6893e-06
-2.74389e-06
-2.79959e-06
-2.85642e-06
-2.9144e-06
-2.97356e-06
-3.03392e-06
-3.09551e-06
-3.15834e-06
-3.22245e-06
-3.28786e-06
-3.35459e-06
-3.42268e-06
-3.49216e-06
-3.56304e-06
-3.63536e-06
-3.70915e-06
-3.78443e-06
-3.86125e-06
-3.93962e-06
-4.01958e-06
-4.10117e-06
-4.18442e-06
-4.26935e-06
-4.356e-06
-4.44442e-06
-4.53463e-06
-4.62667e-06
-4.72058e-06
-4.81639e-06
-4.91415e-06
-5.0139e-06
-5.11567e-06
-5.2195e-06
-5.32544e-06
-5.43354e-06
-5.54382e-06
-5.65635e-06
-5.77116e-06
-5.8883e-06
-6.00781e-06
-6.12975e-06
-6.25417e-06
-6.38112e-06
-6.51064e-06
-6.64278e-06
-6.77761e-06
-6.91518e-06
-7.05554e-06
-7.19875e-06
-7.34487e-06
-7.49395e-06
-7.64605e-06
-7.80125e-06
-7.95959e-06
-8.12115e-06
-8.28599e-06
-8.45417e-06
-8.62577e-06
-8.80085e-06
-8.97948e-06
-9.16174e-06
-9.3477e-06
-9.53744e-06
-9.73102e-06
-9.92853e-06
-1.01301e-05
-1.03357e-05
)
;
    }
    inandouthalf32
    {
        type            cyclic;
        value           nonuniform List<scalar> 
110
(
1.15233e-06
1.17605e-06
1.20023e-06
1.2249e-06
1.25005e-06
1.2757e-06
1.30185e-06
1.32852e-06
1.35572e-06
1.38347e-06
1.41176e-06
1.44061e-06
1.47004e-06
1.50005e-06
1.53066e-06
1.56189e-06
1.59373e-06
1.62622e-06
1.65935e-06
1.69314e-06
1.72762e-06
1.76278e-06
1.79865e-06
1.83524e-06
1.87257e-06
1.91065e-06
1.94949e-06
1.98912e-06
2.02954e-06
2.07078e-06
2.11286e-06
2.15578e-06
2.19957e-06
2.24425e-06
2.28983e-06
2.33633e-06
2.38377e-06
2.43217e-06
2.48156e-06
2.53194e-06
2.58334e-06
2.63579e-06
2.6893e-06
2.74389e-06
2.79959e-06
2.85642e-06
2.9144e-06
2.97356e-06
3.03392e-06
3.09551e-06
3.15834e-06
3.22245e-06
3.28786e-06
3.35459e-06
3.42268e-06
3.49216e-06
3.56304e-06
3.63536e-06
3.70915e-06
3.78443e-06
3.86125e-06
3.93962e-06
4.01958e-06
4.10117e-06
4.18442e-06
4.26935e-06
4.356e-06
4.44442e-06
4.53463e-06
4.62667e-06
4.72058e-06
4.81639e-06
4.91415e-06
5.0139e-06
5.11567e-06
5.2195e-06
5.32544e-06
5.43354e-06
5.54382e-06
5.65635e-06
5.77116e-06
5.8883e-06
6.00781e-06
6.12975e-06
6.25417e-06
6.38112e-06
6.51064e-06
6.64278e-06
6.77761e-06
6.91518e-06
7.05554e-06
7.19875e-06
7.34487e-06
7.49395e-06
7.64605e-06
7.80125e-06
7.95959e-06
8.12115e-06
8.28599e-06
8.45417e-06
8.62577e-06
8.80085e-06
8.97948e-06
9.16174e-06
9.3477e-06
9.53744e-06
9.73102e-06
9.92853e-06
1.01301e-05
1.03357e-05
)
;
    }
    inandouthalf41
    {
        type            cyclic;
        value           nonuniform List<scalar> 
50
(
-9.25148e-06
-9.25148e-06
-9.25148e-06
-9.25148e-06
-9.25148e-06
-9.25148e-06
-9.25148e-06
-9.25148e-06
-9.25148e-06
-9.25148e-06
-9.25148e-06
-9.25148e-06
-9.25148e-06
-9.25148e-06
-9.25148e-06
-9.25148e-06
-9.25148e-06
-9.25148e-06
-9.25148e-06
-9.25148e-06
-9.25148e-06
-9.25148e-06
-9.25148e-06
-9.25148e-06
-9.25148e-06
-9.25148e-06
-9.25148e-06
-9.25148e-06
-9.25148e-06
-9.25148e-06
-9.25148e-06
-9.25148e-06
-9.25148e-06
-9.25148e-06
-9.25148e-06
-9.25148e-06
-9.25148e-06
-9.25148e-06
-9.25148e-06
-9.25148e-06
-9.25148e-06
-9.25148e-06
-9.25148e-06
-9.25148e-06
-9.25148e-06
-9.25148e-06
-9.25148e-06
-9.25148e-06
-9.25148e-06
-9.25148e-06
)
;
    }
    inandouthalf42
    {
        type            cyclic;
        value           nonuniform List<scalar> 
50
(
9.25148e-06
9.25148e-06
9.25148e-06
9.25148e-06
9.25148e-06
9.25148e-06
9.25148e-06
9.25148e-06
9.25148e-06
9.25148e-06
9.25148e-06
9.25148e-06
9.25148e-06
9.25148e-06
9.25148e-06
9.25148e-06
9.25148e-06
9.25148e-06
9.25148e-06
9.25148e-06
9.25148e-06
9.25148e-06
9.25148e-06
9.25148e-06
9.25148e-06
9.25148e-06
9.25148e-06
9.25148e-06
9.25148e-06
9.25148e-06
9.25148e-06
9.25148e-06
9.25148e-06
9.25148e-06
9.25148e-06
9.25148e-06
9.25148e-06
9.25148e-06
9.25148e-06
9.25148e-06
9.25148e-06
9.25148e-06
9.25148e-06
9.25148e-06
9.25148e-06
9.25148e-06
9.25148e-06
9.25148e-06
9.25148e-06
9.25148e-06
)
;
    }
    top
    {
        type            symmetryPlane;
        value           uniform 0;
    }
    walls
    {
        type            fixedValue;
        value           uniform 0;
    }
    frontAndBackPlanes
    {
        type            empty;
        value           nonuniform 0();
    }
}


// ************************************************************************* //
