/*--------------------------------*- C++ -*----------------------------------*\
| =========                 |                                                 |
| \\      /  F ield         | OpenFOAM: The Open Source CFD Toolbox           |
|  \\    /   O peration     | Version:  2.4.x                                 |
|   \\  /    A nd           | Web:      www.OpenFOAM.org                      |
|    \\/     M anipulation  |                                                 |
\*---------------------------------------------------------------------------*/
FoamFile
{
    version     2.0;
    format      ascii;
    class       volTensorField;
    location    "2.25";
    object      Tauf;
}
// * * * * * * * * * * * * * * * * * * * * * * * * * * * * * * * * * * * * * //

dimensions      [0 2 -2 0 0 0 0];

internalField   nonuniform List<tensor> 
360
(
(0 -4.18846e-07 0 -4.18846e-07 6.17799e-16 0 0 0 0)
(0 -3.58702e-10 0 -3.58702e-10 6.20257e-16 0 0 0 0)
(0 -2.06321e-12 0 -2.06321e-12 6.21866e-16 0 0 0 0)
(0 -3.25727e-15 0 -3.25727e-15 6.2184e-16 0 0 0 0)
(5.16988e-23 -1.75903e-12 0 -1.75903e-12 6.22321e-16 0 0 0 0)
(5.16988e-23 -1.76053e-12 0 -1.76053e-12 6.2327e-16 0 0 0 0)
(2.58494e-23 -1.76055e-12 0 -1.76055e-12 6.23865e-16 0 0 0 0)
(0 -1.76055e-12 0 -1.76055e-12 6.23385e-16 0 0 0 0)
(2.58494e-23 -1.76206e-12 0 -1.76206e-12 6.22133e-16 0 0 0 0)
(0 -3.51813e-12 0 -3.51813e-12 6.21626e-16 0 0 0 0)
(2.58494e-23 -1.76207e-12 0 -1.76207e-12 6.2119e-16 0 0 0 0)
(0 -1.76209e-12 0 -1.76209e-12 6.20919e-16 0 0 0 0)
(5.16988e-23 -3.51968e-12 0 -3.51968e-12 6.20615e-16 0 0 0 0)
(0 -3.52121e-12 0 -3.52121e-12 6.18881e-16 0 0 0 0)
(0 -3.52124e-12 0 -3.52124e-12 6.17234e-16 0 0 0 0)
(0 -3.52126e-12 0 -3.52126e-12 6.16135e-16 0 0 0 0)
(0 -3.52129e-12 0 -3.52129e-12 6.14599e-16 0 0 0 0)
(5.16988e-23 -3.52281e-12 0 -3.52281e-12 6.13796e-16 0 0 0 0)
(0 -5.28053e-12 0 -5.28053e-12 6.12507e-16 0 0 0 0)
(0 -5.28207e-12 0 -5.28207e-12 6.09562e-16 0 0 0 0)
(0 -5.28365e-12 0 -5.28365e-12 6.08078e-16 0 0 0 0)
(5.16988e-23 -7.04145e-12 0 -7.04145e-12 6.07869e-16 0 0 0 0)
(0 -7.04305e-12 0 -7.04305e-12 6.05937e-16 0 0 0 0)
(0 -7.04316e-12 0 -7.04316e-12 6.03643e-16 0 0 0 0)
(0 -7.04326e-12 0 -7.04326e-12 6.02241e-16 0 0 0 0)
(5.16988e-23 -7.04487e-12 0 -7.04487e-12 6.00427e-16 0 0 0 0)
(0 -8.80437e-12 0 -8.80437e-12 5.98478e-16 0 0 0 0)
(0 -1.05639e-11 0 -1.05639e-11 5.96049e-16 0 0 0 0)
(0 -1.05657e-11 0 -1.05657e-11 5.93027e-16 0 0 0 0)
(0 -1.05674e-11 0 -1.05674e-11 5.90754e-16 0 0 0 0)
(0 -1.23257e-11 0 -1.23257e-11 5.88804e-16 0 0 0 0)
(0 -1.2329e-11 0 -1.2329e-11 5.86829e-16 0 0 0 0)
(0 -1.4089e-11 0 -1.4089e-11 5.85081e-16 0 0 0 0)
(0 -1.58491e-11 0 -1.58491e-11 5.82615e-16 0 0 0 0)
(0 -1.58527e-11 0 -1.58527e-11 5.79386e-16 0 0 0 0)
(-5.16988e-23 -1.7613e-11 0 -1.7613e-11 5.76084e-16 0 0 0 0)
(0 -1.93766e-11 0 -1.93766e-11 5.73773e-16 0 0 0 0)
(0 -2.28959e-11 0 -2.28959e-11 5.71908e-16 0 0 0 0)
(0 -2.29014e-11 0 -2.29014e-11 5.6906e-16 0 0 0 0)
(0 -2.46643e-11 0 -2.46643e-11 5.65938e-16 0 0 0 0)
(0 -2.81846e-11 0 -2.81846e-11 5.62463e-16 0 0 0 0)
(0 -2.81922e-11 0 -2.81922e-11 5.58964e-16 0 0 0 0)
(-2.58494e-23 -3.1715e-11 0 -3.1715e-11 5.56306e-16 0 0 0 0)
(0 -3.52398e-11 0 -3.52398e-11 5.53944e-16 0 0 0 0)
(0 -3.70077e-11 0 -3.70077e-11 5.51249e-16 0 0 0 0)
(0 -4.05325e-11 0 -4.05325e-11 5.48154e-16 0 0 0 0)
(0 -4.23015e-11 0 -4.23015e-11 5.44848e-16 0 0 0 0)
(0 -4.58324e-11 0 -4.58324e-11 5.41736e-16 0 0 0 0)
(0 -5.28826e-11 0 -5.28826e-11 5.38694e-16 0 0 0 0)
(0 -5.64176e-11 0 -5.64176e-11 5.35601e-16 0 0 0 0)
(-2.58494e-23 -5.99528e-11 0 -5.99528e-11 5.32061e-16 0 0 0 0)
(0 -6.52497e-11 0 -6.52497e-11 5.27523e-16 0 0 0 0)
(0 -7.05505e-11 0 -7.05505e-11 5.23663e-16 0 0 0 0)
(0 -7.58549e-11 0 -7.58549e-11 5.20554e-16 0 0 0 0)
(0 -8.29237e-11 0 -8.29237e-11 5.17636e-16 0 0 0 0)
(0 -8.99972e-11 0 -8.99972e-11 5.12897e-16 0 0 0 0)
(0 -9.70769e-11 0 -9.70769e-11 4.34606e-16 0 0 0 0)
(0 -1.05921e-10 0 -1.05921e-10 -4.49525e-15 0 0 0 0)
(0 -1.13012e-10 0 -1.13012e-10 1.07908e-13 0 0 0 0)
(0 -1.23633e-10 0 -1.23633e-10 4.11154e-12 0 0 0 0)
(0 -1.35361e-10 0 -1.35361e-10 8.41636e-11 0 0 0 0)
(0 -1.56056e-10 0 -1.56056e-10 5.52755e-10 0 0 0 0)
(0 -2.06632e-10 0 -2.06632e-10 1.89997e-09 0 0 0 0)
(0 -2.94358e-10 0 -2.94358e-10 4.15141e-09 0 0 0 0)
(0 -3.85635e-10 0 -3.85635e-10 6.4021e-09 0 0 0 0)
(0 -4.23704e-10 0 -4.23704e-10 7.48138e-09 0 0 0 0)
(0 -3.954e-10 0 -3.954e-10 7.02438e-09 0 0 0 0)
(0 -3.35057e-10 0 -3.35057e-10 5.61908e-09 0 0 0 0)
(0 -2.79592e-10 0 -2.79592e-10 4.09175e-09 0 0 0 0)
(0 -2.44778e-10 0 -2.44778e-10 2.90436e-09 0 0 0 0)
(0 -2.28253e-10 0 -2.28253e-10 2.12586e-09 0 0 0 0)
(0 -2.20775e-10 0 -2.20775e-10 1.66356e-09 0 0 0 0)
(0 -2.21676e-10 0 -2.21676e-10 1.41467e-09 0 0 0 0)
(0 -2.27873e-10 0 -2.27873e-10 1.30844e-09 0 0 0 0)
(0 -2.35605e-10 0 -2.35605e-10 1.3018e-09 0 0 0 0)
(0 -2.43468e-10 0 -2.43468e-10 1.36761e-09 0 0 0 0)
(0 -2.50078e-10 0 -2.50078e-10 1.48446e-09 0 0 0 0)
(0 -2.56368e-10 0 -2.56368e-10 1.63094e-09 0 0 0 0)
(0 -2.60908e-10 0 -2.60908e-10 1.78332e-09 0 0 0 0)
(0 -2.6333e-10 0 -2.6333e-10 1.91803e-09 0 0 0 0)
(0 -2.64992e-10 0 -2.64992e-10 2.01785e-09 0 0 0 0)
(0 -2.67067e-10 0 -2.67067e-10 2.07673e-09 0 0 0 0)
(0 -2.69391e-10 0 -2.69391e-10 2.09968e-09 0 0 0 0)
(0 -2.72557e-10 0 -2.72557e-10 2.09896e-09 0 0 0 0)
(0 -2.76472e-10 0 -2.76472e-10 2.08857e-09 0 0 0 0)
(0 -2.80843e-10 0 -2.80843e-10 2.07997e-09 0 0 0 0)
(0 -2.85147e-10 0 -2.85147e-10 2.07998e-09 0 0 0 0)
(0 -2.88965e-10 0 -2.88965e-10 2.09079e-09 0 0 0 0)
(0 -2.92546e-10 0 -2.92546e-10 2.11139e-09 0 0 0 0)
(0 -2.95778e-10 0 -2.95778e-10 2.139e-09 0 0 0 0)
(0 -2.98697e-10 0 -2.98697e-10 2.17046e-09 0 0 0 0)
(0 -3.01716e-10 0 -3.01716e-10 2.20331e-09 0 0 0 0)
(0 -3.04981e-10 0 -3.04981e-10 2.23622e-09 0 0 0 0)
(0 -3.08418e-10 0 -3.08418e-10 2.26884e-09 0 0 0 0)
(0 -3.12057e-10 0 -3.12057e-10 2.30141e-09 0 0 0 0)
(0 -3.15817e-10 0 -3.15817e-10 2.33421e-09 0 0 0 0)
(0 -3.19571e-10 0 -3.19571e-10 2.36727e-09 0 0 0 0)
(0 -3.23248e-10 0 -3.23248e-10 2.40015e-09 0 0 0 0)
(0 -3.26843e-10 0 -3.26843e-10 2.43207e-09 0 0 0 0)
(0 -3.30354e-10 0 -3.30354e-10 2.46209e-09 0 0 0 0)
(0 -3.33802e-10 0 -3.33802e-10 2.48927e-09 0 0 0 0)
(0 -3.37237e-10 0 -3.37237e-10 2.51285e-09 0 0 0 0)
(0 -3.40678e-10 0 -3.40678e-10 2.53228e-09 0 0 0 0)
(0 -3.44123e-10 0 -3.44123e-10 2.54724e-09 0 0 0 0)
(0 -3.47589e-10 0 -3.47589e-10 2.55754e-09 0 0 0 0)
(0 -3.51093e-10 0 -3.51093e-10 2.56313e-09 0 0 0 0)
(0 -3.5466e-10 0 -3.5466e-10 2.56408e-09 0 0 0 0)
(0 -3.58325e-10 0 -3.58325e-10 2.56054e-09 0 0 0 0)
(0 -3.62127e-10 0 -3.62127e-10 2.5528e-09 0 0 0 0)
(0 -3.66102e-10 0 -3.66102e-10 2.54119e-09 0 0 0 0)
(0 -3.70286e-10 0 -3.70286e-10 2.52614e-09 0 0 0 0)
(0 -3.74711e-10 0 -3.74711e-10 2.50806e-09 0 0 0 0)
(0 -3.79409e-10 0 -3.79409e-10 2.48742e-09 0 0 0 0)
(0 -3.84413e-10 0 -3.84413e-10 2.46462e-09 0 0 0 0)
(0 -3.89759e-10 0 -3.89759e-10 2.44008e-09 0 0 0 0)
(0 -3.9548e-10 0 -3.9548e-10 2.41418e-09 0 0 0 0)
(0 -4.01612e-10 0 -4.01612e-10 2.38721e-09 0 0 0 0)
(0 -4.08189e-10 0 -4.08189e-10 2.35942e-09 0 0 0 0)
(0 -4.15239e-10 0 -4.15239e-10 2.33093e-09 0 0 0 0)
(0 -4.22784e-10 0 -4.22784e-10 2.30173e-09 0 0 0 0)
(0 -4.30843e-10 0 -4.30843e-10 2.27167e-09 0 0 0 0)
(0 -4.3944e-10 0 -4.3944e-10 2.24054e-09 0 0 0 0)
(0 -4.48622e-10 0 -4.48622e-10 2.2081e-09 0 0 0 0)
(0 -4.58493e-10 0 -4.58493e-10 2.1743e-09 0 0 0 0)
(0 -4.6924e-10 0 -4.6924e-10 2.13927e-09 0 0 0 0)
(0 -4.81124e-10 0 -4.81124e-10 2.10327e-09 0 0 0 0)
(0 -4.94394e-10 0 -4.94394e-10 2.06626e-09 0 0 0 0)
(0 -5.091e-10 0 -5.091e-10 2.02727e-09 0 0 0 0)
(0 -5.24899e-10 0 -5.24899e-10 1.98373e-09 0 0 0 0)
(0 -5.41134e-10 0 -5.41134e-10 1.93179e-09 0 0 0 0)
(0 -5.57652e-10 0 -5.57652e-10 1.86798e-09 0 0 0 0)
(0 -5.76319e-10 0 -5.76319e-10 1.79221e-09 0 0 0 0)
(0 -6.01276e-10 0 -6.01276e-10 1.70966e-09 0 0 0 0)
(0 -6.34338e-10 0 -6.34338e-10 1.62844e-09 0 0 0 0)
(0 -6.68741e-10 0 -6.68741e-10 1.55255e-09 0 0 0 0)
(0 -6.95792e-10 0 -6.95792e-10 1.47836e-09 0 0 0 0)
(0 -7.23756e-10 0 -7.23756e-10 1.40133e-09 0 0 0 0)
(0 -7.80775e-10 0 -7.80775e-10 1.32216e-09 0 0 0 0)
(0 -8.82064e-10 0 -8.82064e-10 1.23718e-09 0 0 0 0)
(0 -9.69871e-10 0 -9.69871e-10 1.11183e-09 0 0 0 0)
(0 -9.38139e-10 0 -9.38139e-10 8.54866e-10 0 0 0 0)
(0 -1.00769e-09 0 -1.00769e-09 4.96748e-10 0 0 0 0)
(0 -1.38318e-09 0 -1.38318e-09 1.5803e-10 0 0 0 0)
(0 -1.87506e-09 0 -1.87506e-09 -2.57688e-10 0 0 0 0)
(0 -2.4289e-09 0 -2.4289e-09 7.01053e-09 0 0 0 0)
(0 -3.10529e-09 0 -3.10529e-09 -6.44783e-08 0 0 0 0)
(0 8.44611e-09 0 8.44611e-09 2.32829e-07 0 0 0 0)
(0 4.4543e-06 0 4.4543e-06 -1.01826e-06 0 0 0 0)
(0 0.000493228 0 0.000493228 -4.25698e-05 0 0 0 0)
(0 0.0031125 0 0.0031125 -8.5197e-05 0 0 0 0)
(0 0.00490647 0 0.00490647 6.48417e-05 0 0 0 0)
(0 0.00580055 0 0.00580055 3.45167e-05 0 0 0 0)
(0 0.00642587 0 0.00642587 5.48652e-05 0 0 0 0)
(0 0.00687139 0 0.00687139 6.25599e-05 0 0 0 0)
(0 0.00717764 0 0.00717764 6.3632e-05 0 0 0 0)
(0 0.00736311 0 0.00736311 6.11753e-05 0 0 0 0)
(0 0.00743376 0 0.00743376 5.65794e-05 0 0 0 0)
(0 0.00739089 0 0.00739089 5.06028e-05 0 0 0 0)
(0 0.00722964 0 0.00722964 4.39103e-05 0 0 0 0)
(0 0.00694215 0 0.00694215 3.70818e-05 0 0 0 0)
(0 0.00651722 0 0.00651722 3.05977e-05 0 0 0 0)
(0 0.00594031 0 0.00594031 2.48169e-05 0 0 0 0)
(0 0.00519248 0 0.00519248 1.97088e-05 0 0 0 0)
(0 0.00424863 0 0.00424863 1.46276e-05 0 0 0 0)
(0 0.00310591 0 0.00310591 9.16198e-06 0 0 0 0)
(0 0.00146079 0 0.00146079 3.57854e-06 0 0 0 0)
(0 0.000186026 0 0.000186026 4.14597e-07 0 0 0 0)
(0 2.63097e-05 0 2.63097e-05 6.60377e-08 0 0 0 0)
(0 1.44331e-05 0 1.44331e-05 3.04734e-08 0 0 0 0)
(0 1.16488e-05 0 1.16488e-05 1.42033e-08 0 0 0 0)
(0 9.94853e-06 0 9.94853e-06 6.78701e-09 0 0 0 0)
(0 8.68681e-06 0 8.68681e-06 3.40123e-09 0 0 0 0)
(0 7.69273e-06 0 7.69273e-06 2.31637e-09 0 0 0 0)
(0 6.86812e-06 0 6.86812e-06 1.353e-09 0 0 0 0)
(0 6.17748e-06 0 6.17748e-06 1.15857e-09 0 0 0 0)
(0 5.58436e-06 0 5.58436e-06 6.85344e-10 0 0 0 0)
(0 5.06669e-06 0 5.06669e-06 7.16737e-10 0 0 0 0)
(0 4.60453e-06 0 4.60453e-06 3.83322e-10 0 0 0 0)
(0 4.20442e-06 0 4.20442e-06 4.75794e-10 0 0 0 0)
(0 3.83752e-06 0 3.83752e-06 2.31478e-10 0 0 0 0)
(0 3.51214e-06 0 3.51214e-06 3.38524e-10 0 0 0 0)
(0 3.21719e-06 0 3.21719e-06 1.39512e-10 0 0 0 0)
(0 2.94965e-06 0 2.94965e-06 2.5337e-10 0 0 0 0)
(0 2.70755e-06 0 2.70755e-06 8.22834e-11 0 0 0 0)
(0 2.48668e-06 0 2.48668e-06 1.94339e-10 0 0 0 0)
(0 2.28649e-06 0 2.28649e-06 4.61312e-11 0 0 0 0)
(0 2.10158e-06 0 2.10158e-06 1.58071e-10 0 0 0 0)
(0 1.93263e-06 0 1.93263e-06 2.34729e-11 0 0 0 0)
(0 1.77869e-06 0 1.77869e-06 1.21633e-10 0 0 0 0)
(0 1.63983e-06 0 1.63983e-06 1.07797e-11 0 0 0 0)
(0 1.50779e-06 0 1.50779e-06 1.05151e-10 0 0 0 0)
(0 1.38842e-06 0 1.38842e-06 -1.81898e-12 0 0 0 0)
(0 1.27898e-06 0 1.27898e-06 8.52928e-11 0 0 0 0)
(0 1.17927e-06 0 1.17927e-06 -9.37184e-12 0 0 0 0)
(0 1.08778e-06 0 1.08778e-06 7.403e-11 0 0 0 0)
(0 1.00172e-06 0 1.00172e-06 -9.23226e-12 0 0 0 0)
(0 9.222e-07 0 9.222e-07 6.06865e-11 0 0 0 0)
(0 8.49531e-07 0 8.49531e-07 -1.43101e-11 0 0 0 0)
(0 7.84115e-07 0 7.84115e-07 4.89139e-11 0 0 0 0)
(0 7.24293e-07 0 7.24293e-07 -1.19436e-11 0 0 0 0)
(0 6.6815e-07 0 6.6815e-07 4.41725e-11 0 0 0 0)
(0 6.14282e-07 0 6.14282e-07 -9.34597e-12 0 0 0 0)
(-2.03416e-19 5.6389e-07 0 5.6389e-07 3.23685e-11 0 0 0 0)
(0 5.17795e-07 0 5.17795e-07 -1.25824e-11 0 0 0 0)
(0 4.76277e-07 0 4.76277e-07 2.85069e-11 0 0 0 0)
(1.91516e-19 4.36396e-07 0 4.36396e-07 -8.29103e-12 0 0 0 0)
(0 3.97764e-07 0 3.97764e-07 2.52037e-11 0 0 0 0)
(-1.83972e-19 3.61793e-07 0 3.61793e-07 -1.16671e-11 0 0 0 0)
(0 3.29587e-07 0 3.29587e-07 2.06884e-11 0 0 0 0)
(1.76725e-19 3.00223e-07 0 3.00223e-07 -1.03134e-11 0 0 0 0)
(0 2.7193e-07 0 2.7193e-07 1.99532e-11 0 0 0 0)
(0 2.45425e-07 0 2.45425e-07 -1.16859e-11 0 0 0 0)
(0 2.21913e-07 0 2.21913e-07 1.70673e-11 0 0 0 0)
(1.63076e-19 2.00491e-07 0 2.00491e-07 -1.03212e-11 0 0 0 0)
(0 1.80021e-07 0 1.80021e-07 1.56043e-11 0 0 0 0)
(0 1.61134e-07 0 1.61134e-07 -1.10625e-11 0 0 0 0)
(0 1.44472e-07 0 1.44472e-07 1.37927e-11 0 0 0 0)
(0 1.29441e-07 0 1.29441e-07 -9.724e-12 0 0 0 0)
(0 1.15303e-07 0 1.15303e-07 1.24569e-11 0 0 0 0)
(-1.44554e-19 1.02296e-07 0 1.02296e-07 -9.5653e-12 0 0 0 0)
(0 9.08165e-08 0 9.08165e-08 1.09417e-11 0 0 0 0)
(-1.3886e-19 8.04968e-08 0 8.04968e-08 -8.56241e-12 0 0 0 0)
(0 7.09765e-08 0 7.09765e-08 9.69092e-12 0 0 0 0)
(-2.6678e-19 6.2485e-08 0 6.2485e-08 -8.52629e-12 0 0 0 0)
(0 5.4977e-08 0 5.4977e-08 1.00007e-11 0 0 0 0)
(0 4.81276e-08 0 4.81276e-08 -9.27867e-12 0 0 0 0)
(0 4.20057e-08 0 4.20057e-08 1.01222e-11 0 0 0 0)
(0 3.66572e-08 0 3.66572e-08 -9.56922e-12 0 0 0 0)
(2.41279e-19 3.18569e-08 0 3.18569e-08 1.01511e-11 0 0 0 0)
(2.36479e-19 2.75585e-08 0 2.75585e-08 -9.65544e-12 0 0 0 0)
(0 2.38271e-08 0 2.38271e-08 9.85976e-12 0 0 0 0)
(0 2.05459e-08 0 2.05459e-08 -9.35931e-12 0 0 0 0)
(0 1.76215e-08 0 1.76215e-08 9.39753e-12 0 0 0 0)
(0 1.50927e-08 0 1.50927e-08 -8.97038e-12 0 0 0 0)
(0 1.28842e-08 0 1.28842e-08 8.86552e-12 0 0 0 0)
(0 1.09551e-08 0 1.09551e-08 -8.45834e-12 0 0 0 0)
(0 9.28635e-09 0 9.28635e-09 8.2554e-12 0 0 0 0)
(0 7.83058e-09 0 7.83058e-09 -7.8947e-12 0 0 0 0)
(0 6.58528e-09 0 6.58528e-09 7.62146e-12 0 0 0 0)
(0 5.51187e-09 0 5.51187e-09 -7.29673e-12 0 0 0 0)
(0 4.59938e-09 0 4.59938e-09 6.99377e-12 0 0 0 0)
(0 3.86985e-09 0 3.86985e-09 -6.38337e-12 0 0 0 0)
(0 3.25247e-09 0 3.25247e-09 6.2109e-12 0 0 0 0)
(-1.78492e-19 2.68597e-09 0 2.68597e-09 -6.12052e-12 0 0 0 0)
(1.74941e-19 2.21904e-09 0 2.21904e-09 5.83567e-12 0 0 0 0)
(0 1.82837e-09 0 1.82837e-09 -5.56665e-12 0 0 0 0)
(0 1.49119e-09 0 1.49119e-09 5.30637e-12 0 0 0 0)
(-1.64707e-19 1.20734e-09 0 1.20734e-09 -5.05817e-12 0 0 0 0)
(0 9.73414e-10 0 9.73414e-10 4.81998e-12 0 0 0 0)
(0 7.82655e-10 0 7.82655e-10 -4.59383e-12 0 0 0 0)
(-1.55071e-19 6.2702e-10 0 6.2702e-10 4.37791e-12 0 0 0 0)
(0 4.98884e-10 0 4.98884e-10 -4.17389e-12 0 0 0 0)
(0 3.94738e-10 0 3.94738e-10 3.97987e-12 0 0 0 0)
(0 3.11563e-10 0 3.11563e-10 -3.79721e-12 0 0 0 0)
(0 2.45245e-10 0 2.45245e-10 3.6241e-12 0 0 0 0)
(0 1.92249e-10 0 1.92249e-10 -3.46165e-12 0 0 0 0)
(0 1.50055e-10 0 1.50055e-10 3.30803e-12 0 0 0 0)
(0 1.16676e-10 0 1.16676e-10 -3.16427e-12 0 0 0 0)
(0 9.03796e-11 0 9.03796e-11 3.02857e-12 0 0 0 0)
(0 6.97053e-11 0 6.97053e-11 -2.90184e-12 0 0 0 0)
(0 5.35031e-11 0 5.35031e-11 2.78235e-12 0 0 0 0)
(0 4.0848e-11 0 4.0848e-11 -2.67092e-12 0 0 0 0)
(0 3.10188e-11 0 3.10188e-11 2.56592e-12 0 0 0 0)
(0 2.34223e-11 0 2.34223e-11 -2.46805e-12 0 0 0 0)
(0 1.75862e-11 0 1.75862e-11 2.37589e-12 0 0 0 0)
(0 1.31279e-11 0 1.31279e-11 -2.2899e-12 0 0 0 0)
(0 9.74153e-12 0 9.74153e-12 2.209e-12 0 0 0 0)
(0 7.18502e-12 0 7.18502e-12 -2.13334e-12 0 0 0 0)
(0 5.26677e-12 0 5.26677e-12 2.06214e-12 0 0 0 0)
(0 3.83653e-12 0 3.83653e-12 -1.99543e-12 0 0 0 0)
(0 2.77624e-12 0 2.77624e-12 1.93254e-12 0 0 0 0)
(0 1.99673e-12 0 1.99673e-12 -1.87349e-12 0 0 0 0)
(0 1.42634e-12 0 1.42634e-12 1.81767e-12 0 0 0 0)
(0 1.01176e-12 0 1.01176e-12 -1.76508e-12 0 0 0 0)
(0 7.12118e-13 0 7.12118e-13 1.71522e-12 0 0 0 0)
(0 4.98226e-13 0 4.98226e-13 -1.66809e-12 0 0 0 0)
(0 3.4664e-13 0 3.4664e-13 1.6232e-12 0 0 0 0)
(0 2.39099e-13 0 2.39099e-13 -1.58061e-12 0 0 0 0)
(0 1.63005e-13 0 1.63005e-13 1.53984e-12 0 0 0 0)
(0 1.1032e-13 0 1.1032e-13 -1.50103e-12 0 0 0 0)
(0 7.44873e-14 0 7.44873e-14 1.46367e-12 0 0 0 0)
(0 5.00706e-14 0 5.00706e-14 -1.42791e-12 0 0 0 0)
(0 3.29907e-14 0 3.29907e-14 1.39335e-12 0 0 0 0)
(0 2.1843e-14 0 2.1843e-14 -1.36012e-12 0 0 0 0)
(0 1.43931e-14 0 1.43931e-14 1.32781e-12 0 0 0 0)
(0 9.12891e-15 0 9.12891e-15 -1.29663e-12 0 0 0 0)
(1.50452e-19 5.86981e-15 0 5.86981e-15 1.26616e-12 0 0 0 0)
(0 3.6676e-15 0 3.6676e-15 -1.23664e-12 0 0 0 0)
(0 2.30403e-15 0 2.30403e-15 1.20765e-12 0 0 0 0)
(0 1.37224e-15 0 1.37224e-15 -1.17946e-12 0 0 0 0)
(0 7.44836e-16 0 7.44836e-16 1.15167e-12 0 0 0 0)
(0 6.50894e-16 0 6.50894e-16 -1.12458e-12 0 0 0 0)
(0 4.79909e-16 0 4.79909e-16 1.09777e-12 0 0 0 0)
(0 1.9136e-16 0 1.9136e-16 -1.07155e-12 0 0 0 0)
(0 -8.37201e-17 0 -8.37201e-17 1.04555e-12 0 0 0 0)
(0 -1.99643e-16 0 -1.99643e-16 -1.02006e-12 0 0 0 0)
(0 1.50199e-16 0 1.50199e-16 9.94733e-13 0 0 0 0)
(0 2.20184e-16 0 2.20184e-16 -9.69838e-13 0 0 0 0)
(0 5.34337e-17 0 5.34337e-17 9.45149e-13 0 0 0 0)
(-2.31729e-19 -1.07812e-16 0 -1.07812e-16 -9.20747e-13 0 0 0 0)
(0 -3.18534e-17 0 -3.18534e-17 8.96583e-13 0 0 0 0)
(0 -1.0017e-17 0 -1.0017e-17 -8.7267e-13 0 0 0 0)
(0 -9.76322e-18 0 -9.76322e-18 8.48965e-13 0 0 0 0)
(0 1.33592e-16 0 1.33592e-16 -8.25503e-13 0 0 0 0)
(0 -7.61818e-17 0 -7.61818e-17 8.02242e-13 0 0 0 0)
(0 -2.36529e-16 0 -2.36529e-16 -7.79212e-13 0 0 0 0)
(0 1.8104e-16 0 1.8104e-16 7.56384e-13 0 0 0 0)
(0 2.72545e-16 0 2.72545e-16 -7.33783e-13 0 0 0 0)
(0 -1.61434e-16 0 -1.61434e-16 7.11388e-13 0 0 0 0)
(0 -2.14565e-16 0 -2.14565e-16 -6.89076e-13 0 0 0 0)
(0 8.84091e-18 0 8.84091e-18 7.60371e-13 0 0 0 0)
(0 -1.09585e-17 0 -1.09585e-17 -7.50629e-13 0 0 0 0)
(0 -3.35637e-17 0 -3.35637e-17 7.40338e-13 0 0 0 0)
(0 4.64809e-17 0 4.64809e-17 -7.29674e-13 0 0 0 0)
(0 2.43522e-18 0 2.43522e-18 7.18627e-13 0 0 0 0)
(0 -2.67345e-17 0 -2.67345e-17 -7.07234e-13 0 0 0 0)
(0 2.74756e-17 0 2.74756e-17 6.95483e-13 0 0 0 0)
(0 -4.49986e-18 0 -4.49986e-18 -6.83412e-13 0 0 0 0)
(0 -3.18696e-17 0 -3.18696e-17 6.71006e-13 0 0 0 0)
(0 1.53525e-17 0 1.53525e-17 -6.58307e-13 0 0 0 0)
(0 3.53636e-17 0 3.53636e-17 6.45296e-13 0 0 0 0)
(0 8.47033e-18 0 8.47033e-18 -6.32018e-13 0 0 0 0)
(0 -3.35637e-17 0 -3.35637e-17 6.18447e-13 0 0 0 0)
(0 5.24102e-18 0 5.24102e-18 -6.04639e-13 0 0 0 0)
(0 1.26526e-17 0 1.26526e-17 5.90553e-13 0 0 0 0)
(0 -1.27055e-18 0 -1.27055e-18 -5.76262e-13 0 0 0 0)
(0 2.46698e-17 0 2.46698e-17 5.61698e-13 0 0 0 0)
(0 -2.77403e-17 0 -2.77403e-17 -5.46972e-13 0 0 0 0)
(0 -5.29396e-19 0 -5.29396e-19 5.31934e-13 0 0 0 0)
(0 5.77041e-18 0 5.77041e-18 -5.1687e-13 0 0 0 0)
(0 -2.27111e-17 0 -2.27111e-17 5.01391e-13 0 0 0 0)
(0 2.47228e-17 0 2.47228e-17 -4.85981e-13 0 0 0 0)
(0 1.98523e-17 0 1.98523e-17 4.70128e-13 0 0 0 0)
(0 -2.68933e-17 0 -2.68933e-17 -4.54397e-13 0 0 0 0)
(0 6.51157e-18 0 6.51157e-18 4.38203e-13 0 0 0 0)
(0 1.76289e-17 0 1.76289e-17 -4.22192e-13 0 0 0 0)
(0 -1.63583e-17 0 -1.63583e-17 4.05697e-13 0 0 0 0)
(0 -1.81583e-17 0 -1.81583e-17 -3.89413e-13 0 0 0 0)
(0 -2.39816e-17 0 -2.39816e-17 3.72644e-13 0 0 0 0)
(0 2.59404e-18 0 2.59404e-18 -3.56139e-13 0 0 0 0)
(0 -1.18055e-17 0 -1.18055e-17 3.39113e-13 0 0 0 0)
(0 2.96462e-18 0 2.96462e-18 -3.22443e-13 0 0 0 0)
(0 3.17637e-19 0 3.17637e-19 3.05262e-13 0 0 0 0)
(0 -1.86347e-17 0 -1.86347e-17 -2.88663e-13 0 0 0 0)
(0 1.81583e-17 0 1.81583e-17 2.71802e-13 0 0 0 0)
(0 9.15854e-18 0 9.15854e-18 -2.56632e-13 0 0 0 0)
(0 9.52912e-19 0 9.52912e-19 2.44677e-13 0 0 0 0)
(0 3.70577e-18 0 3.70577e-18 -2.3652e-13 0 0 0 0)
(0 4.76456e-19 0 4.76456e-19 2.27097e-13 0 0 0 0)
(0 -2.1864e-17 0 -2.1864e-17 -2.17489e-13 0 0 0 0)
(0 -5.13514e-18 0 -5.13514e-18 2.06987e-13 0 0 0 0)
(0 6.09864e-17 0 6.09864e-17 -1.96199e-13 0 0 0 0)
(0 1.30231e-17 0 1.30231e-17 1.84247e-13 0 0 0 0)
(0 -4.36222e-17 0 -4.36222e-17 -1.71896e-13 0 0 0 0)
(0 -8.94679e-18 0 -8.94679e-18 1.58143e-13 0 0 0 0)
(0 2.56757e-17 0 2.56757e-17 -1.43061e-13 0 0 0 0)
(0 2.77933e-17 0 2.77933e-17 1.26413e-13 0 0 0 0)
(0 -1.837e-17 0 -1.837e-17 -1.06494e-13 0 0 0 0)
(0 -3.70577e-19 0 -3.70577e-19 8.24231e-14 0 0 0 0)
(0 2.20229e-17 0 2.20229e-17 -3.19156e-14 0 0 0 0)
)
;

boundaryField
{
    inandouthalf11
    {
        type            cyclic;
    }
    inandouthalf12
    {
        type            cyclic;
    }
    inandouthalf21
    {
        type            cyclic;
    }
    inandouthalf22
    {
        type            cyclic;
    }
    inandouthalf31
    {
        type            cyclic;
    }
    inandouthalf32
    {
        type            cyclic;
    }
    inandouthalf41
    {
        type            cyclic;
    }
    inandouthalf42
    {
        type            cyclic;
    }
    top
    {
        type            symmetryPlane;
    }
    walls
    {
        type            zeroGradient;
    }
    frontAndBackPlanes
    {
        type            empty;
    }
}


// ************************************************************************* //
