/*--------------------------------*- C++ -*----------------------------------*\
| =========                 |                                                 |
| \\      /  F ield         | OpenFOAM: The Open Source CFD Toolbox           |
|  \\    /   O peration     | Version:  2.4.x                                 |
|   \\  /    A nd           | Web:      www.OpenFOAM.org                      |
|    \\/     M anipulation  |                                                 |
\*---------------------------------------------------------------------------*/
FoamFile
{
    version     2.0;
    format      ascii;
    class       volTensorField;
    location    "2.25";
    object      Taus;
}
// * * * * * * * * * * * * * * * * * * * * * * * * * * * * * * * * * * * * * //

dimensions      [0 2 -2 0 0 0 0];

internalField   nonuniform List<tensor> 
360
(
(0 0.00173262 0 0.00173262 -0.1648 0 0 0 0)
(0 -0.00613284 0 -0.00613284 -0.072146 0 0 0 0)
(0 -0.0082114 0 -0.0082114 -0.135753 0 0 0 0)
(0 -0.00933967 0 -0.00933967 -0.15506 0 0 0 0)
(-1.04937e-17 -0.00969914 0 -0.00969914 -0.161044 0 0 0 0)
(-2.88605e-18 -0.00984166 0 -0.00984166 -0.163158 0 0 0 0)
(-1.89714e-18 -0.00992107 0 -0.00992107 -0.164039 0 0 0 0)
(0 -0.00997595 0 -0.00997595 -0.164386 0 0 0 0)
(2.92243e-19 -0.0100276 0 -0.0100276 -0.164582 0 0 0 0)
(0 -0.0100754 0 -0.0100754 -0.164667 0 0 0 0)
(1.77563e-18 -0.0101276 0 -0.0101276 -0.164748 0 0 0 0)
(0 -0.01019 0 -0.01019 -0.164897 0 0 0 0)
(5.38494e-18 -0.0102536 0 -0.0102536 -0.165031 0 0 0 0)
(0 -0.0103207 0 -0.0103207 -0.165187 0 0 0 0)
(0 -0.0103924 0 -0.0103924 -0.165354 0 0 0 0)
(0 -0.0104678 0 -0.0104678 -0.16552 0 0 0 0)
(0 -0.0105463 0 -0.0105463 -0.165676 0 0 0 0)
(3.68945e-18 -0.0106276 0 -0.0106276 -0.16582 0 0 0 0)
(0 -0.0107094 0 -0.0107094 -0.165951 0 0 0 0)
(0 -0.0107892 0 -0.0107892 -0.166024 0 0 0 0)
(0 -0.0108746 0 -0.0108746 -0.166131 0 0 0 0)
(4.61101e-18 -0.0109575 0 -0.0109575 -0.166185 0 0 0 0)
(0 -0.0110415 0 -0.0110415 -0.166232 0 0 0 0)
(0 -0.0111285 0 -0.0111285 -0.166273 0 0 0 0)
(0 -0.0112187 0 -0.0112187 -0.166311 0 0 0 0)
(2.31892e-18 -0.011312 0 -0.011312 -0.166345 0 0 0 0)
(0 -0.0114063 0 -0.0114063 -0.166378 0 0 0 0)
(0 -0.0114964 0 -0.0114964 -0.166365 0 0 0 0)
(0 -0.0115883 0 -0.0115883 -0.166352 0 0 0 0)
(0 -0.0116837 0 -0.0116837 -0.166339 0 0 0 0)
(0 -0.0117801 0 -0.0117801 -0.166328 0 0 0 0)
(0 -0.0118752 0 -0.0118752 -0.166272 0 0 0 0)
(0 -0.0119747 0 -0.0119747 -0.166264 0 0 0 0)
(0 -0.0120671 0 -0.0120671 -0.166169 0 0 0 0)
(0 -0.0121649 0 -0.0121649 -0.166121 0 0 0 0)
(-1.42937e-18 -0.0122606 0 -0.0122606 -0.166034 0 0 0 0)
(0 -0.0123557 0 -0.0123557 -0.165949 0 0 0 0)
(0 -0.0124441 0 -0.0124441 -0.16583 0 0 0 0)
(0 -0.0125298 0 -0.0125298 -0.165668 0 0 0 0)
(0 -0.0126203 0 -0.0126203 -0.165566 0 0 0 0)
(0 -0.0127 0 -0.0127 -0.165378 0 0 0 0)
(0 -0.0127816 0 -0.0127816 -0.165212 0 0 0 0)
(-1.4185e-18 -0.0128605 0 -0.0128605 -0.165049 0 0 0 0)
(0 -0.0129285 0 -0.0129285 -0.164833 0 0 0 0)
(0 -0.0129931 0 -0.0129931 -0.164611 0 0 0 0)
(0 -0.0130523 0 -0.0130523 -0.164395 0 0 0 0)
(0 -0.0131042 0 -0.0131042 -0.164125 0 0 0 0)
(0 -0.0131572 0 -0.0131572 -0.16395 0 0 0 0)
(0 -0.0131827 0 -0.0131827 -0.163637 0 0 0 0)
(0 -0.0131998 0 -0.0131998 -0.163339 0 0 0 0)
(-3.72397e-19 -0.0132111 0 -0.0132111 -0.163051 0 0 0 0)
(0 -0.013224 0 -0.013224 -0.162981 0 0 0 0)
(0 -0.013195 0 -0.013195 -0.162609 0 0 0 0)
(0 -0.0131696 0 -0.0131696 -0.162394 0 0 0 0)
(0 -0.0131545 0 -0.0131545 -0.162501 0 0 0 0)
(0 -0.0132894 0 -0.0132894 -0.164836 0 0 0 0)
(0 -0.0131389 0 -0.0131389 -0.163885 0 0 0 0)
(0 -0.0129967 0 -0.0129967 -0.163224 0 0 0 0)
(0 -0.0127769 0 -0.0127769 -0.161777 0 0 0 0)
(0 -0.0120445 0 -0.0120445 -0.154064 0 0 0 0)
(0 -0.0114326 0 -0.0114326 -0.14793 0 0 0 0)
(0 -0.0110518 0 -0.0110518 -0.1447 0 0 0 0)
(0 -0.0107499 0 -0.0107499 -0.142226 0 0 0 0)
(0 -0.0105345 0 -0.0105345 -0.140294 0 0 0 0)
(0 -0.010418 0 -0.010418 -0.138922 0 0 0 0)
(0 -0.0103899 0 -0.0103899 -0.138056 0 0 0 0)
(0 -0.0104053 0 -0.0104053 -0.137421 0 0 0 0)
(0 -0.010412 0 -0.010412 -0.136767 0 0 0 0)
(0 -0.0103765 0 -0.0103765 -0.135962 0 0 0 0)
(0 -0.0102918 0 -0.0102918 -0.134987 0 0 0 0)
(0 -0.0101628 0 -0.0101628 -0.133821 0 0 0 0)
(0 -0.0100064 0 -0.0100064 -0.132507 0 0 0 0)
(0 -0.009837 0 -0.009837 -0.131104 0 0 0 0)
(0 -0.00965105 0 -0.00965105 -0.129574 0 0 0 0)
(0 -0.00945131 0 -0.00945131 -0.127978 0 0 0 0)
(0 -0.00923829 0 -0.00923829 -0.126316 0 0 0 0)
(0 -0.00901903 0 -0.00901903 -0.12465 0 0 0 0)
(0 -0.00879716 0 -0.00879716 -0.122989 0 0 0 0)
(0 -0.0085774 0 -0.0085774 -0.121355 0 0 0 0)
(0 -0.00836429 0 -0.00836429 -0.119763 0 0 0 0)
(0 -0.00815969 0 -0.00815969 -0.118221 0 0 0 0)
(0 -0.00796039 0 -0.00796039 -0.116703 0 0 0 0)
(0 -0.00776313 0 -0.00776313 -0.115195 0 0 0 0)
(0 -0.00756501 0 -0.00756501 -0.11368 0 0 0 0)
(0 -0.0073635 0 -0.0073635 -0.112143 0 0 0 0)
(0 -0.00715783 0 -0.00715783 -0.110583 0 0 0 0)
(0 -0.00694815 0 -0.00694815 -0.108997 0 0 0 0)
(0 -0.00673609 0 -0.00673609 -0.107397 0 0 0 0)
(0 -0.0065229 0 -0.0065229 -0.105788 0 0 0 0)
(0 -0.00630943 0 -0.00630943 -0.104176 0 0 0 0)
(0 -0.00609646 0 -0.00609646 -0.102566 0 0 0 0)
(0 -0.00588412 0 -0.00588412 -0.10096 0 0 0 0)
(0 -0.00567196 0 -0.00567196 -0.0993546 0 0 0 0)
(0 -0.00545957 0 -0.00545957 -0.0977499 0 0 0 0)
(0 -0.00524664 0 -0.00524664 -0.096144 0 0 0 0)
(0 -0.00503289 0 -0.00503289 -0.0945359 0 0 0 0)
(0 -0.00481829 0 -0.00481829 -0.0929256 0 0 0 0)
(0 -0.00460292 0 -0.00460292 -0.0913135 0 0 0 0)
(0 -0.00438689 0 -0.00438689 -0.0897006 0 0 0 0)
(0 -0.00417028 0 -0.00417028 -0.088087 0 0 0 0)
(0 -0.00395318 0 -0.00395318 -0.0864732 0 0 0 0)
(0 -0.00373561 0 -0.00373561 -0.0848589 0 0 0 0)
(0 -0.00351758 0 -0.00351758 -0.0832437 0 0 0 0)
(0 -0.00329913 0 -0.00329913 -0.0816272 0 0 0 0)
(0 -0.00308029 0 -0.00308029 -0.0800092 0 0 0 0)
(0 -0.00286113 0 -0.00286113 -0.0783893 0 0 0 0)
(0 -0.00264171 0 -0.00264171 -0.0767674 0 0 0 0)
(0 -0.0024221 0 -0.0024221 -0.0751433 0 0 0 0)
(0 -0.00220233 0 -0.00220233 -0.0735167 0 0 0 0)
(0 -0.00198246 0 -0.00198246 -0.0718873 0 0 0 0)
(0 -0.00176252 0 -0.00176252 -0.0702551 0 0 0 0)
(0 -0.00154254 0 -0.00154254 -0.0686198 0 0 0 0)
(0 -0.00132255 0 -0.00132255 -0.0669814 0 0 0 0)
(0 -0.00110255 0 -0.00110255 -0.0653397 0 0 0 0)
(0 -0.000882543 0 -0.000882543 -0.0636948 0 0 0 0)
(0 -0.000662509 0 -0.000662509 -0.0620465 0 0 0 0)
(0 -0.000442424 0 -0.000442424 -0.0603949 0 0 0 0)
(0 -0.000222252 0 -0.000222252 -0.05874 0 0 0 0)
(0 -1.95232e-06 0 -1.95232e-06 -0.0570818 0 0 0 0)
(0 0.000218517 0 0.000218517 -0.0554202 0 0 0 0)
(0 0.000439203 0 0.000439203 -0.0537554 0 0 0 0)
(0 0.000660158 0 0.000660158 -0.0520876 0 0 0 0)
(0 0.000881452 0 0.000881452 -0.0504169 0 0 0 0)
(0 0.00110317 0 0.00110317 -0.0487435 0 0 0 0)
(0 0.0013254 0 0.0013254 -0.0470672 0 0 0 0)
(0 0.00154815 0 0.00154815 -0.0453872 0 0 0 0)
(0 0.00177133 0 0.00177133 -0.0437022 0 0 0 0)
(0 0.00199465 0 0.00199465 -0.0420107 0 0 0 0)
(0 0.00221784 0 0.00221784 -0.0403122 0 0 0 0)
(0 0.00244107 0 0.00244107 -0.0386084 0 0 0 0)
(0 0.00266534 0 0.00266534 -0.0369033 0 0 0 0)
(0 0.00289199 0 0.00289199 -0.0352002 0 0 0 0)
(0 0.00312078 0 0.00312078 -0.0334946 0 0 0 0)
(0 0.00334807 0 0.00334807 -0.0317723 0 0 0 0)
(0 0.00357075 0 0.00357075 -0.0300245 0 0 0 0)
(0 0.00379346 0 0.00379346 -0.0282662 0 0 0 0)
(0 0.00402516 0 0.00402516 -0.0265165 0 0 0 0)
(0 0.00425654 0 0.00425654 -0.024757 0 0 0 0)
(0 0.00444781 0 0.00444781 -0.0229321 0 0 0 0)
(0 0.0045725 0 0.0045725 -0.0210154 0 0 0 0)
(0 0.00471216 0 0.00471216 -0.0191073 0 0 0 0)
(0 0.0049817 0 0.0049817 -0.0173752 0 0 0 0)
(0 0.00519883 0 0.00519883 -0.0154156 0 0 0 0)
(0 0.00515464 0 0.00515464 -0.0132022 0 0 0 0)
(0 0.00497158 0 0.00497158 -0.0107951 0 0 0 0)
(0 0.00500023 0 0.00500023 -0.00764714 0 0 0 0)
(0 0.0051068 0 0.0051068 0.00332485 0 0 0 0)
(0 0.00238993 0 0.00238993 0.00571747 0 0 0 0)
(0 0.00127192 0 0.00127192 0.000336174 0 0 0 0)
(0 0.00236612 0 0.00236612 0.000374814 0 0 0 0)
(0 0.0028645 0 0.0028645 0.000220127 0 0 0 0)
(0 0.00314801 0 0.00314801 0.000263573 0 0 0 0)
(0 0.00361136 0 0.00361136 0.000288405 0 0 0 0)
(0 0.00427104 0 0.00427104 0.000320641 0 0 0 0)
(0 0.00514408 0 0.00514408 0.000357749 0 0 0 0)
(0 0.00625346 0 0.00625346 0.00039814 0 0 0 0)
(0 0.00762272 0 0.00762272 0.000439527 0 0 0 0)
(0 0.00926934 0 0.00926934 0.000480821 0 0 0 0)
(0 0.0111986 0 0.0111986 0.000522797 0 0 0 0)
(0 0.0133972 0 0.0133972 0.000569797 0 0 0 0)
(0 0.0158311 0 0.0158311 0.000628263 0 0 0 0)
(0 0.0184354 0 0.0184354 0.000680189 0 0 0 0)
(0 0.0211989 0 0.0211989 0.000598301 0 0 0 0)
(0 0.0243567 0 0.0243567 4.25244e-05 0 0 0 0)
(0 0.0286285 0 0.0286285 -0.00136208 0 0 0 0)
(0 0.0347935 0 0.0347935 -0.00371056 0 0 0 0)
(0 0.0433037 0 0.0433037 -0.00723456 0 0 0 0)
(0 0.0567009 0 0.0567009 -0.013355 0 0 0 0)
(0 0.0792098 0 0.0792098 -0.0239187 0 0 0 0)
(0 0.107938 0 0.107938 -0.0378316 0 0 0 0)
(0 0.13763 0 0.13763 -0.0522862 0 0 0 0)
(0 0.161446 0 0.161446 -0.063974 0 0 0 0)
(0 0.183204 0 0.183204 -0.0743222 0 0 0 0)
(0 0.200062 0 0.200062 -0.0824195 0 0 0 0)
(0 0.218718 0 0.218718 -0.0911158 0 0 0 0)
(0 0.231462 0 0.231462 -0.0972201 0 0 0 0)
(0 0.247432 0 0.247432 -0.104595 0 0 0 0)
(0 0.261145 0 0.261145 -0.110995 0 0 0 0)
(0 0.27196 0 0.27196 -0.116007 0 0 0 0)
(0 0.28677 0 0.28677 -0.122709 0 0 0 0)
(0 0.295214 0 0.295214 -0.12659 0 0 0 0)
(0 0.309351 0 0.309351 -0.132841 0 0 0 0)
(0 0.316377 0 0.316377 -0.135964 0 0 0 0)
(0 0.329486 0 0.329486 -0.141625 0 0 0 0)
(0 0.334999 0 0.334999 -0.143932 0 0 0 0)
(0 0.345865 0 0.345865 -0.148433 0 0 0 0)
(0 0.351296 0 0.351296 -0.150567 0 0 0 0)
(0 0.362383 0 0.362383 -0.155125 0 0 0 0)
(0 0.365185 0 0.365185 -0.155914 0 0 0 0)
(0 0.370145 0 0.370145 -0.157542 0 0 0 0)
(0 0.379058 0 0.379058 -0.160997 0 0 0 0)
(0 0.381554 0 0.381554 -0.161558 0 0 0 0)
(0 0.387328 0 0.387328 -0.163442 0 0 0 0)
(0 0.385676 0 0.385676 -0.162031 0 0 0 0)
(0 0.389828 0 0.389828 -0.163067 0 0 0 0)
(0 0.392543 0 0.392543 -0.163628 0 0 0 0)
(0 0.397031 0 0.397031 -0.164884 0 0 0 0)
(0 0.393642 0 0.393642 -0.162689 0 0 0 0)
(0 0.389517 0 0.389517 -0.159971 0 0 0 0)
(0 0.384019 0 0.384019 -0.156672 0 0 0 0)
(0 0.38706 0 0.38706 -0.157153 0 0 0 0)
(0 0.389473 0 0.389473 -0.157556 0 0 0 0)
(-3.68487e-14 0.387817 0 0.387817 -0.156174 0 0 0 0)
(0 0.376091 0 0.376091 -0.1503 0 0 0 0)
(0 0.365901 0 0.365901 -0.144996 0 0 0 0)
(3.54004e-14 0.367657 0 0.367657 -0.145164 0 0 0 0)
(0 0.372232 0 0.372232 -0.146808 0 0 0 0)
(-3.44702e-14 0.367276 0 0.367276 -0.144242 0 0 0 0)
(0 0.353566 0 0.353566 -0.137676 0 0 0 0)
(3.31666e-14 0.348054 0 0.348054 -0.134792 0 0 0 0)
(0 0.351129 0 0.351129 -0.136044 0 0 0 0)
(0 0.345787 0 0.345787 -0.133564 0 0 0 0)
(0 0.333631 0 0.333631 -0.127832 0 0 0 0)
(3.06187e-14 0.331819 0 0.331819 -0.126822 0 0 0 0)
(0 0.334766 0 0.334766 -0.128271 0 0 0 0)
(0 0.325956 0 0.325956 -0.124499 0 0 0 0)
(0 0.311975 0 0.311975 -0.118243 0 0 0 0)
(0 0.309901 0 0.309901 -0.117329 0 0 0 0)
(0 0.314231 0 0.314231 -0.119538 0 0 0 0)
(-2.6342e-14 0.308155 0 0.308155 -0.117126 0 0 0 0)
(0 0.297234 0 0.297234 -0.11241 0 0 0 0)
(-2.48351e-14 0.29492 0 0.29492 -0.111789 0 0 0 0)
(0 0.292547 0 0.292547 -0.111276 0 0 0 0)
(-2.33151e-14 0.284594 0 0.284594 -0.108022 0 0 0 0)
(0 0.28228 0 0.28228 -0.107461 0 0 0 0)
(0 0.280375 0 0.280375 -0.107397 0 0 0 0)
(0 0.270569 0 0.270569 -0.103587 0 0 0 0)
(0 0.264874 0 0.264874 -0.101629 0 0 0 0)
(1.947e-14 0.26411 0 0.26411 -0.102284 0 0 0 0)
(1.86761e-14 0.255509 0 0.255509 -0.0993206 0 0 0 0)
(0 0.245894 0 0.245894 -0.0957671 0 0 0 0)
(0 0.24229 0 0.24229 -0.0953281 0 0 0 0)
(0 0.234366 0 0.234366 -0.0929383 0 0 0 0)
(0 0.222668 0 0.222668 -0.0887809 0 0 0 0)
(0 0.211585 0 0.211585 -0.0851896 0 0 0 0)
(0 0.197286 0 0.197286 -0.0802019 0 0 0 0)
(0 0.178453 0 0.178453 -0.0733106 0 0 0 0)
(0 0.152585 0 0.152585 -0.0632942 0 0 0 0)
(0 0.120455 0 0.120455 -0.0504113 0 0 0 0)
(0 0.0860161 0 0.0860161 -0.0359802 0 0 0 0)
(0 0.0637883 0 0.0637883 -0.0273747 0 0 0 0)
(0 0 0 0 -0 0 0 0 0)
(0 0 0 0 -0 0 0 0 0)
(-0 0 0 0 0 0 0 0 0)
(0 0 0 0 -0 0 0 0 0)
(0 0 0 0 -0 0 0 0 0)
(0 0 0 0 -0 0 0 0 0)
(-0 0 0 0 -0 0 0 0 0)
(0 0 0 0 -0 0 0 0 0)
(0 0 0 0 -0 0 0 0 0)
(-0 0 0 0 -0 0 0 0 0)
(0 0 0 0 -0 0 0 0 0)
(0 0 0 0 0 0 0 0 0)
(0 0 0 0 -0 0 0 0 0)
(0 0 0 0 0 0 0 0 0)
(0 0 0 0 -0 0 0 0 0)
(0 0 0 0 0 0 0 0 0)
(0 0 0 0 -0 0 0 0 0)
(0 0 0 0 0 0 0 0 0)
(0 0 0 0 -0 0 0 0 0)
(0 0 0 0 0 0 0 0 0)
(0 0 0 0 -0 0 0 0 0)
(0 0 0 0 0 0 0 0 0)
(0 0 0 0 -0 0 0 0 0)
(0 0 0 0 0 0 0 0 0)
(0 0 0 0 -0 0 0 0 0)
(0 0 0 0 0 0 0 0 0)
(0 0 0 0 -0 0 0 0 0)
(0 0 0 0 0 0 0 0 0)
(0 0 0 0 -0 0 0 0 0)
(0 0 0 0 0 0 0 0 0)
(0 0 0 0 -0 0 0 0 0)
(0 0 0 0 0 0 0 0 0)
(0 0 0 0 -0 0 0 0 0)
(0 0 0 0 0 0 0 0 0)
(0 0 0 0 -0 0 0 0 0)
(0 0 0 0 0 0 0 0 0)
(0 0 0 0 -0 0 0 0 0)
(0 0 0 0 0 0 0 0 0)
(0 0 0 0 -0 0 0 0 0)
(0 0 0 0 0 0 0 0 0)
(0 0 0 0 -0 0 0 0 0)
(0 0 0 0 0 0 0 0 0)
(0 0 0 0 -0 0 0 0 0)
(0 0 0 0 0 0 0 0 0)
(0 0 0 0 -0 0 0 0 0)
(0 -0 0 -0 0 0 0 0 0)
(0 0 0 0 -0 0 0 0 0)
(0 -0 0 -0 0 0 0 0 0)
(0 0 0 0 -0 0 0 0 0)
(0 -0 0 -0 0 0 0 0 0)
(0 0 0 0 -0 0 0 0 0)
(0 -0 0 -0 0 0 0 0 0)
(0 0 0 0 -0 0 0 0 0)
(0 -0 0 -0 0 0 0 0 0)
(0 0 0 0 -0 0 0 0 0)
(0 -0 0 -0 0 0 0 0 0)
(0 0 0 0 -0 0 0 0 0)
(0 -0 0 -0 0 0 0 0 0)
(-0 0 0 0 -0 0 0 0 0)
(0 -0 0 -0 0 0 0 0 0)
(0 0 0 0 -0 0 0 0 0)
(0 -0 0 -0 0 0 0 0 0)
(0 0 0 0 -0 0 0 0 0)
(0 -0 0 -0 0 0 0 0 0)
(0 0 0 0 -0 0 0 0 0)
(0 -0 0 -0 0 0 0 0 0)
(0 0 0 0 -0 0 0 0 0)
(0 -0 0 -0 0 0 0 0 0)
(0 0 0 0 -0 0 0 0 0)
(0 -0 0 -0 0 0 0 0 0)
(0 0 0 0 -0 0 0 0 0)
(0 -0 0 -0 0 0 0 0 0)
(0 0 0 0 -0 0 0 0 0)
(0 -0 0 -0 0 0 0 0 0)
(0 0 0 0 -0 0 0 0 0)
(0 -0 0 -0 0 0 0 0 0)
(0 0 0 0 -0 0 0 0 0)
(0 -0 0 -0 0 0 0 0 0)
(0 0 0 0 -0 0 0 0 0)
(0 -0 0 -0 0 0 0 0 0)
(0 0 0 0 -0 0 0 0 0)
(0 -0 0 -0 0 0 0 0 0)
(0 0 0 0 -0 0 0 0 0)
(0 -0 0 -0 0 0 0 0 0)
(0 0 0 0 -0 0 0 0 0)
(0 -0 0 -0 0 0 0 0 0)
(0 0 0 0 -0 0 0 0 0)
(0 -0 0 -0 0 0 0 0 0)
(0 0 0 0 -0 0 0 0 0)
(0 -0 0 -0 0 0 0 0 0)
(0 0 0 0 -0 0 0 0 0)
(0 -0 0 -0 0 0 0 0 0)
(0 0 0 0 -0 0 0 0 0)
(0 -0 0 -0 0 0 0 0 0)
(0 0 0 0 -0 0 0 0 0)
(0 -0 0 -0 0 0 0 0 0)
(0 0 0 0 -0 0 0 0 0)
(0 -0 0 -0 0 0 0 0 0)
(0 0 0 0 -0 0 0 0 0)
(0 -0 0 -0 0 0 0 0 0)
(0 0 0 0 -0 0 0 0 0)
(0 -0 0 -0 0 0 0 0 0)
(0 0 0 0 -0 0 0 0 0)
(0 -0 0 -0 0 0 0 0 0)
(0 0 0 0 -0 0 0 0 0)
(0 -0 0 -0 0 0 0 0 0)
(0 0 0 0 -0 0 0 0 0)
(0 -0 0 -0 0 0 0 0 0)
(0 0 0 0 -0 0 0 0 0)
(0 -0 0 -0 0 0 0 0 0)
(0 0 0 0 -0 0 0 0 0)
(0 -0 0 -0 0 0 0 0 0)
(0 0 0 0 0 0 0 0 0)
(0 0 0 0 0 0 0 0 0)
(0 0 0 0 0 0 0 0 0)
(0 0 0 0 0 0 0 0 0)
(0 0 0 0 0 0 0 0 0)
(0 0 0 0 0 0 0 0 0)
(0 0 0 0 0 0 0 0 0)
)
;

boundaryField
{
    inandouthalf11
    {
        type            cyclic;
    }
    inandouthalf12
    {
        type            cyclic;
    }
    inandouthalf21
    {
        type            cyclic;
    }
    inandouthalf22
    {
        type            cyclic;
    }
    inandouthalf31
    {
        type            cyclic;
    }
    inandouthalf32
    {
        type            cyclic;
    }
    inandouthalf41
    {
        type            cyclic;
    }
    inandouthalf42
    {
        type            cyclic;
    }
    top
    {
        type            symmetryPlane;
    }
    walls
    {
        type            zeroGradient;
    }
    frontAndBackPlanes
    {
        type            empty;
    }
}


// ************************************************************************* //
