/*--------------------------------*- C++ -*----------------------------------*\
| =========                 |                                                 |
| \\      /  F ield         | OpenFOAM: The Open Source CFD Toolbox           |
|  \\    /   O peration     | Version:  2.4.x                                 |
|   \\  /    A nd           | Web:      www.OpenFOAM.org                      |
|    \\/     M anipulation  |                                                 |
\*---------------------------------------------------------------------------*/
FoamFile
{
    version     2.0;
    format      ascii;
    class       volScalarField;
    location    "2.25";
    object      Theta;
}
// * * * * * * * * * * * * * * * * * * * * * * * * * * * * * * * * * * * * * //

dimensions      [0 2 -2 0 0 0 0];

internalField   nonuniform List<scalar> 
360
(
6.66136e-21
6.66136e-21
6.66136e-21
6.66136e-21
6.66136e-21
6.66136e-21
6.66136e-21
6.66136e-21
6.66136e-21
6.66136e-21
6.66136e-21
6.66136e-21
6.66136e-21
6.66136e-21
6.66136e-21
6.66136e-21
6.66136e-21
6.66136e-21
6.66136e-21
6.66136e-21
6.66136e-21
6.66136e-21
6.66136e-21
6.66136e-21
6.66136e-21
6.66136e-21
6.66136e-21
6.66136e-21
6.66136e-21
6.66136e-21
6.66136e-21
6.66136e-21
6.66136e-21
6.66136e-21
6.66136e-21
6.66136e-21
6.66136e-21
6.66136e-21
6.66136e-21
6.66136e-21
6.66136e-21
6.66136e-21
6.66136e-21
6.66136e-21
6.66135e-21
6.66135e-21
6.66135e-21
6.66135e-21
6.66135e-21
6.66135e-21
6.66135e-21
6.66135e-21
6.66135e-21
6.66135e-21
6.66135e-21
6.66135e-21
6.66135e-21
6.66135e-21
6.66135e-21
6.66135e-21
6.66138e-21
6.66338e-21
6.6964e-21
6.88531e-21
7.30209e-21
7.58963e-21
7.44041e-21
7.11842e-21
6.88836e-21
6.77245e-21
6.72079e-21
6.69818e-21
6.68835e-21
6.68471e-21
6.68468e-21
6.6873e-21
6.69215e-21
6.69881e-21
6.70644e-21
6.71374e-21
6.71941e-21
6.72277e-21
6.72396e-21
6.72373e-21
6.72299e-21
6.72243e-21
6.72245e-21
6.72315e-21
6.72446e-21
6.72622e-21
6.72822e-21
6.73032e-21
6.73245e-21
6.73459e-21
6.73676e-21
6.73899e-21
6.74128e-21
6.74361e-21
6.74591e-21
6.74802e-21
0
0
0
0
0
0
0
0
0
0
0
0
0
0
0
6.74724e-21
6.74559e-21
6.74392e-21
6.74223e-21
6.74053e-21
6.73881e-21
6.73706e-21
6.73526e-21
6.73341e-21
6.73154e-21
6.72966e-21
6.72779e-21
6.7259e-21
6.72382e-21
6.7213e-21
6.71814e-21
6.71438e-21
6.71043e-21
6.7068e-21
6.70369e-21
6.70083e-21
6.69785e-21
9.51833e-21
1.8671e-19
6.33372e-18
2.20939e-16
7.94691e-15
2.98034e-13
1.18258e-11
5.93144e-10
7.61107e-08
4.96176e-06
8.57456e-05
0.000820721
0.00287605
0.00487477
0.00647235
0.00782647
0.00899867
0.0100041
0.0108373
0.0114833
0.011923
0.0121374
0.0121137
0.0118535
0.0113677
0.0107051
0.00994364
0.00918968
0.00855285
0.0081115
0.0078345
0.00764478
0.007499
0.00737783
0.00727217
0.00717761
0.00709134
0.00701165
0.00693716
0.00686699
0.00680032
0.00673656
0.00667525
0.00661594
0.00655835
0.00650213
0.0064471
0.00639301
0.00633971
0.00628703
0.00623485
0.00618302
0.00613148
0.00608012
0.00602885
0.00597762
0.00592635
0.005875
0.00582351
0.00577184
0.00571994
0.00566779
0.00561536
0.00556263
0.00550904
0.00545397
0.00539735
0.00533914
0.00527929
0.00521769
0.00515425
0.00508889
0.00502155
0.00495213
0.00488053
0.00480664
0.00473037
0.00465161
0.00457021
0.00448604
0.00439901
0.00430894
0.00421564
0.00411895
0.00401869
0.00391464
0.00380654
0.00369416
0.00357719
0.00345529
0.00332809
0.00319518
0.00305604
0.00291009
0.00275665
0.00259486
0.0024237
0.00224186
0.00204763
0.00183871
0.00161176
0.00136165
0.00107936
0.000745138
0
0
0
0
0
0
0
0
0
0
0
0
0
0
0
0
0
0
0
0
0
0
0
0
0
0
0
0
0
0
0
0
0
0
0
0
0
0
0
0
0
0
0
0
0
0
0
0
0
0
0
0
0
0
0
0
0
0
0
0
0
0
0
0
0
0
0
0
0
0
0
0
0
0
0
0
0
0
0
0
0
0
0
0
0
0
0
0
0
0
0
0
0
0
0
0
0
0
0
0
0
0
0
0
0
0
0
0
0
0
0
0
0
0
0
0
0
0
0
)
;

boundaryField
{
    inandouthalf11
    {
        type            cyclic;
    }
    inandouthalf12
    {
        type            cyclic;
    }
    inandouthalf21
    {
        type            cyclic;
    }
    inandouthalf22
    {
        type            cyclic;
    }
    inandouthalf31
    {
        type            cyclic;
    }
    inandouthalf32
    {
        type            cyclic;
    }
    inandouthalf41
    {
        type            cyclic;
    }
    inandouthalf42
    {
        type            cyclic;
    }
    top
    {
        type            symmetryPlane;
    }
    walls
    {
        type            zeroGradient;
    }
    frontAndBackPlanes
    {
        type            empty;
    }
}


// ************************************************************************* //
