/*--------------------------------*- C++ -*----------------------------------*\
| =========                 |                                                 |
| \\      /  F ield         | OpenFOAM: The Open Source CFD Toolbox           |
|  \\    /   O peration     | Version:  2.4.x                                 |
|   \\  /    A nd           | Web:      www.OpenFOAM.org                      |
|    \\/     M anipulation  |                                                 |
\*---------------------------------------------------------------------------*/
FoamFile
{
    version     2.0;
    format      ascii;
    class       volVectorField;
    location    "2.25";
    object      Ub_0;
}
// * * * * * * * * * * * * * * * * * * * * * * * * * * * * * * * * * * * * * //

dimensions      [0 1 -1 0 0 0 0];

internalField   nonuniform List<vector> 
360
(
(-0.000209198 9.45142e-14 0)
(-0.000209554 2.84092e-13 0)
(-0.000209556 4.74161e-13 0)
(-0.000209556 6.6448e-13 0)
(-0.000209556 8.55069e-13 0)
(-0.000209558 1.0461e-12 0)
(-0.000209558 1.23714e-12 0)
(-0.00020956 1.42796e-12 0)
(-0.00020956 1.61877e-12 0)
(-0.000209562 1.80959e-12 0)
(-0.000209563 2.00021e-12 0)
(-0.000209563 2.19062e-12 0)
(-0.000209565 2.38065e-12 0)
(-0.000209567 2.57047e-12 0)
(-0.000209569 2.75993e-12 0)
(-0.00020957 2.94906e-12 0)
(-0.000209572 3.13761e-12 0)
(-0.000209574 3.32573e-12 0)
(-0.000209576 3.51357e-12 0)
(-0.000209579 3.70102e-12 0)
(-0.000209581 3.888e-12 0)
(-0.000209585 4.07457e-12 0)
(-0.000209588 4.2605e-12 0)
(-0.000209592 4.44611e-12 0)
(-0.000209595 4.63142e-12 0)
(-0.000209599 4.81612e-12 0)
(-0.000209602 4.99976e-12 0)
(-0.000209607 5.1829e-12 0)
(-0.000209613 5.36532e-12 0)
(-0.000209618 5.54698e-12 0)
(-0.000209623 5.72798e-12 0)
(-0.00020963 5.90807e-12 0)
(-0.000209636 6.08735e-12 0)
(-0.000209644 6.26635e-12 0)
(-0.000209651 6.44469e-12 0)
(-0.00020966 6.62195e-12 0)
(-0.000209669 6.79823e-12 0)
(-0.00020968 6.97382e-12 0)
(-0.000209692 7.14851e-12 0)
(-0.000209702 7.32253e-12 0)
(-0.000209717 7.49588e-12 0)
(-0.000209731 7.66831e-12 0)
(-0.000209745 7.83986e-12 0)
(-0.000209762 8.01081e-12 0)
(-0.00020978 8.18071e-12 0)
(-0.000209799 8.34955e-12 0)
(-0.000209821 8.51747e-12 0)
(-0.000209842 8.68434e-12 0)
(-0.000209866 8.85006e-12 0)
(-0.000209895 9.01482e-12 0)
(-0.000209923 9.17883e-12 0)
(-0.000209954 9.34196e-12 0)
(-0.000209988 9.50377e-12 0)
(-0.000210025 9.66435e-12 0)
(-0.000210064 9.82354e-12 0)
(-0.000210108 9.98217e-12 0)
(-0.000210154 1.01389e-11 0)
(-0.000210205 1.02599e-11 0)
(-0.00021026 7.99179e-12 0)
(-0.000210318 6.34463e-11 0)
(-0.000210383 1.94417e-09 0)
(-0.000210453 4.10384e-08 0)
(-0.000210539 2.74131e-07 0)
(-0.000210659 9.82347e-07 0)
(-0.000210832 2.33915e-06 0)
(-0.000211044 4.17615e-06 0)
(-0.000211256 6.07943e-06 0)
(-0.00021144 7.69346e-06 0)
(-0.000211591 8.8959e-06 0)
(-0.000211719 9.74533e-06 0)
(-0.000211836 1.03524e-05 0)
(-0.000211948 1.08111e-05 0)
(-0.000212057 1.1186e-05 0)
(-0.00021217 1.15197e-05 0)
(-0.000212285 1.18411e-05 0)
(-0.000212405 1.21713e-05 0)
(-0.000212528 1.25255e-05 0)
(-0.000212655 1.29139e-05 0)
(-0.000212785 1.33413e-05 0)
(-0.000212916 1.3806e-05 0)
(-0.000213048 1.43007e-05 0)
(-0.000213181 1.48153e-05 0)
(-0.000213315 1.53396e-05 0)
(-0.00021345 1.58656e-05 0)
(-0.000213587 1.63895e-05 0)
(-0.000213727 1.69103e-05 0)
(-0.000213868 1.74299e-05 0)
(-0.000214012 1.79507e-05 0)
(-0.000214157 1.84756e-05 0)
(-0.000214304 1.90067e-05 0)
(-0.000214453 1.95454e-05 0)
(-0.000214603 2.00922e-05 0)
(-0.000214754 2.06473e-05 0)
(-0.000214908 2.12105e-05 0)
(-0.000215063 2.17819e-05 0)
(-0.00021522 2.23615e-05 0)
(-0.000215378 2.29493e-05 0)
(-0.000215539 2.35454e-05 0)
(-0.000215701 2.41496e-05 0)
(-0.000215866 2.47617e-05 0)
(-0.000216032 2.5381e-05 0)
(-0.000216199 2.60066e-05 0)
(-0.000216369 2.66377e-05 0)
(-0.00021654 2.72732e-05 0)
(-0.000216713 2.79118e-05 0)
(-0.000216887 2.85524e-05 0)
(-0.000217064 2.91938e-05 0)
(-0.000217242 2.98349e-05 0)
(-0.000217422 3.04746e-05 0)
(-0.000217604 3.11119e-05 0)
(-0.000217788 3.17458e-05 0)
(-0.000217974 3.23756e-05 0)
(-0.000218162 3.30004e-05 0)
(-0.000218353 3.36199e-05 0)
(-0.000218547 3.42334e-05 0)
(-0.000218743 3.48405e-05 0)
(-0.000218942 3.54411e-05 0)
(-0.000219144 3.60348e-05 0)
(-0.00021935 3.66214e-05 0)
(-0.000219559 3.72009e-05 0)
(-0.000219773 3.77729e-05 0)
(-0.00021999 3.83373e-05 0)
(-0.000220212 3.88938e-05 0)
(-0.000220438 3.9442e-05 0)
(-0.00022067 3.99815e-05 0)
(-0.000220907 4.05122e-05 0)
(-0.000221151 4.10337e-05 0)
(-0.000221402 4.15459e-05 0)
(-0.00022166 4.2048e-05 0)
(-0.000221926 4.25384e-05 0)
(-0.000222201 4.30145e-05 0)
(-0.000222484 4.34731e-05 0)
(-0.000222777 4.39113e-05 0)
(-0.000223085 4.43286e-05 0)
(-0.000223411 4.47262e-05 0)
(-0.000223753 4.51054e-05 0)
(-0.000224106 4.54658e-05 0)
(-0.000224477 4.58064e-05 0)
(-0.000224887 4.6127e-05 0)
(-0.000225358 4.64249e-05 0)
(-0.000225857 4.66827e-05 0)
(-0.000226296 4.68521e-05 0)
(-0.000226864 4.69311e-05 0)
(-0.000227679 4.69314e-05 0)
(-0.000228738 4.68026e-05 0)
(-0.000230107 5.04437e-05 0)
(-0.000231842 1.45315e-05 0)
(-0.000221907 0.000165974 0)
(0.00311358 -0.000371575 0)
(0.0851664 -0.00352906 0)
(0.168844 -0.00264069 0)
(0.241481 -0.00249118 0)
(0.307211 -0.00222733 0)
(0.36833 -0.00194833 0)
(0.426297 -0.00168454 0)
(0.482108 -0.00144375 0)
(0.536488 -0.00122686 0)
(0.58998 -0.00103354 0)
(0.643011 -0.000862646 0)
(0.69593 -0.000712311 0)
(0.749027 -0.000580046 0)
(0.802547 -0.000462542 0)
(0.856692 -0.000355591 0)
(0.911597 -0.000255998 0)
(0.967219 -0.000165854 0)
(1.02426 -9.05679e-05 0)
(1.06927 -4.13002e-05 0)
(1.08609 -2.16985e-05 0)
(1.09418 -1.00072e-05 0)
(1.10048 -6.62327e-06 0)
(1.10582 -2.98752e-06 0)
(1.11043 -3.26188e-06 0)
(1.1145 -1.30199e-06 0)
(1.11812 -2.11067e-06 0)
(1.12137 -6.29522e-07 0)
(1.1243 -1.53371e-06 0)
(1.12696 -2.88657e-07 0)
(1.12936 -1.17639e-06 0)
(1.13156 -9.80505e-08 0)
(1.13357 -9.39019e-07 0)
(1.1354 1.70183e-08 0)
(1.13708 -7.70054e-07 0)
(1.13861 8.63076e-08 0)
(1.14003 -6.43536e-07 0)
(1.14132 1.271e-07 0)
(1.14252 -5.46455e-07 0)
(1.14361 1.49904e-07 0)
(1.14462 -4.67465e-07 0)
(1.14554 1.61415e-07 0)
(1.1464 -4.06654e-07 0)
(1.14718 1.66636e-07 0)
(1.1479 -3.54081e-07 0)
(1.14857 1.65575e-07 0)
(1.14918 -3.1142e-07 0)
(1.14975 1.6077e-07 0)
(1.15027 -2.74378e-07 0)
(1.15075 1.56042e-07 0)
(1.15119 -2.44013e-07 0)
(1.1516 1.48792e-07 0)
(1.15198 -2.19519e-07 0)
(1.15232 1.42742e-07 0)
(1.15265 -2.00852e-07 0)
(1.15295 1.44814e-07 0)
(1.15323 -1.90815e-07 0)
(1.1535 1.44808e-07 0)
(1.15375 -1.8198e-07 0)
(1.15398 1.46743e-07 0)
(1.1542 -1.74261e-07 0)
(1.1544 1.46417e-07 0)
(1.15459 -1.6846e-07 0)
(1.15476 1.46516e-07 0)
(1.15492 -1.62504e-07 0)
(1.15506 1.45381e-07 0)
(1.1552 -1.57752e-07 0)
(1.15532 1.44725e-07 0)
(1.15544 -1.53426e-07 0)
(1.15554 1.4319e-07 0)
(1.15564 -1.49813e-07 0)
(1.15572 1.42196e-07 0)
(1.1558 -1.46688e-07 0)
(1.15587 1.40958e-07 0)
(1.15594 -1.44248e-07 0)
(1.156 1.4013e-07 0)
(1.15605 -1.42371e-07 0)
(1.1561 1.38972e-07 0)
(1.15614 -1.39848e-07 0)
(1.15618 1.36833e-07 0)
(1.15621 -1.36795e-07 0)
(1.15624 1.34025e-07 0)
(1.15626 -1.33251e-07 0)
(1.15629 1.30677e-07 0)
(1.15631 -1.29474e-07 0)
(1.15633 1.27111e-07 0)
(1.15634 -1.25624e-07 0)
(1.15636 1.23421e-07 0)
(1.15637 -1.21789e-07 0)
(1.15638 1.19745e-07 0)
(1.15639 -1.18078e-07 0)
(1.15639 1.16169e-07 0)
(1.1564 -1.14557e-07 0)
(1.15641 1.1277e-07 0)
(1.15641 -1.11268e-07 0)
(1.15642 1.09957e-07 0)
(1.15642 -1.08455e-07 0)
(1.15642 1.07048e-07 0)
(1.15642 -1.05687e-07 0)
(1.15643 1.04415e-07 0)
(1.15643 -1.03192e-07 0)
(1.15643 1.02056e-07 0)
(1.15643 -1.00968e-07 0)
(1.15643 9.99629e-08 0)
(1.15643 -9.90045e-08 0)
(1.15643 9.81249e-08 0)
(1.15643 -9.7289e-08 0)
(1.15643 9.65264e-08 0)
(1.15643 -9.58043e-08 0)
(1.15643 9.51495e-08 0)
(1.15643 -9.45317e-08 0)
(1.15643 9.39749e-08 0)
(1.15643 -9.34512e-08 0)
(1.15643 9.29824e-08 0)
(1.15643 -9.2543e-08 0)
(1.15643 9.21522e-08 0)
(1.15643 -9.17871e-08 0)
(1.15643 9.14647e-08 0)
(1.15643 -9.11644e-08 0)
(1.15643 9.09016e-08 0)
(1.15643 -9.06572e-08 0)
(1.15643 9.04456e-08 0)
(1.15643 -9.02489e-08 0)
(1.15643 9.00807e-08 0)
(1.15643 -8.99245e-08 0)
(1.15643 8.9793e-08 0)
(1.15643 -8.96707e-08 0)
(1.15643 8.957e-08 0)
(1.15643 -8.94761e-08 0)
(1.15643 8.9401e-08 0)
(1.15643 -8.9331e-08 0)
(1.15643 8.92773e-08 0)
(1.15643 -8.92273e-08 0)
(1.15643 8.91916e-08 0)
(1.15643 -8.91587e-08 0)
(1.15643 8.91387e-08 0)
(1.15643 -8.91209e-08 0)
(1.15643 8.91147e-08 0)
(1.15643 -8.91108e-08 0)
(1.15643 8.91177e-08 0)
(1.15643 -8.91272e-08 0)
(1.15643 8.91468e-08 0)
(1.15643 -8.91699e-08 0)
(1.15643 8.9203e-08 0)
(1.15643 -8.92406e-08 0)
(1.15643 8.92882e-08 0)
(1.15643 -8.93418e-08 0)
(1.15643 8.94057e-08 0)
(1.15643 -8.94774e-08 0)
(1.15643 8.956e-08 0)
(1.15643 -8.96523e-08 0)
(1.15643 8.97566e-08 0)
(1.15643 -8.98725e-08 0)
(1.15643 9.00018e-08 0)
(1.15643 -9.01448e-08 0)
(1.15643 9.0303e-08 0)
(1.15643 -9.0477e-08 0)
(1.15643 9.06683e-08 0)
(1.15643 -9.08776e-08 0)
(1.15643 9.11065e-08 0)
(1.15643 -9.13558e-08 0)
(1.15643 9.16273e-08 0)
(1.15643 -9.19217e-08 0)
(1.15643 8.08291e-08 0)
(1.15643 -7.93173e-08 0)
(1.15643 7.78258e-08 0)
(1.15643 -7.63552e-08 0)
(1.15643 7.49064e-08 0)
(1.15643 -7.348e-08 0)
(1.15643 7.20769e-08 0)
(1.15643 -7.06974e-08 0)
(1.15643 6.93426e-08 0)
(1.15643 -6.80128e-08 0)
(1.15643 6.67088e-08 0)
(1.15643 -6.54311e-08 0)
(1.15643 6.41802e-08 0)
(1.15643 -6.29567e-08 0)
(1.15643 6.17612e-08 0)
(1.15643 -6.0594e-08 0)
(1.15643 5.94557e-08 0)
(1.15643 -5.83468e-08 0)
(1.15643 5.72675e-08 0)
(1.15643 -5.62185e-08 0)
(1.15643 5.51998e-08 0)
(1.15643 -5.42123e-08 0)
(1.15643 5.32557e-08 0)
(1.15643 -5.23312e-08 0)
(1.15643 5.14381e-08 0)
(1.15643 -5.05778e-08 0)
(1.15643 4.97493e-08 0)
(1.15643 -4.89545e-08 0)
(1.15643 4.81917e-08 0)
(1.15643 -4.74633e-08 0)
(1.15643 4.67672e-08 0)
(1.15643 -4.61063e-08 0)
(1.15643 4.54778e-08 0)
(1.15643 -4.48847e-08 0)
(1.15643 4.4324e-08 0)
(1.15643 -4.37978e-08 0)
(1.15643 4.32985e-08 0)
(1.15643 -4.2817e-08 0)
(1.15643 4.23521e-08 0)
(1.15643 -4.19082e-08 0)
(1.15643 4.14817e-08 0)
(1.15643 -4.10797e-08 0)
(1.15643 4.06974e-08 0)
(1.15643 -4.03422e-08 0)
(1.15643 4.00099e-08 0)
(1.15643 -3.97093e-08 0)
(1.15643 3.94372e-08 0)
(1.15643 -3.92046e-08 0)
(1.15643 3.90098e-08 0)
(1.15643 -3.88774e-08 0)
)
;

boundaryField
{
    inandouthalf11
    {
        type            cyclic;
    }
    inandouthalf12
    {
        type            cyclic;
    }
    inandouthalf21
    {
        type            cyclic;
    }
    inandouthalf22
    {
        type            cyclic;
    }
    inandouthalf31
    {
        type            cyclic;
    }
    inandouthalf32
    {
        type            cyclic;
    }
    inandouthalf41
    {
        type            cyclic;
    }
    inandouthalf42
    {
        type            cyclic;
    }
    top
    {
        type            symmetryPlane;
    }
    walls
    {
        type            fixedValue;
        value           uniform (0 0 0);
    }
    frontAndBackPlanes
    {
        type            empty;
    }
}


// ************************************************************************* //
