/*--------------------------------*- C++ -*----------------------------------*\
| =========                 |                                                 |
| \\      /  F ield         | OpenFOAM: The Open Source CFD Toolbox           |
|  \\    /   O peration     | Version:  2.4.x                                 |
|   \\  /    A nd           | Web:      www.OpenFOAM.org                      |
|    \\/     M anipulation  |                                                 |
\*---------------------------------------------------------------------------*/
FoamFile
{
    version     2.0;
    format      ascii;
    class       volVectorField;
    location    "10.6";
    object      ddt0(Ub);
}
// * * * * * * * * * * * * * * * * * * * * * * * * * * * * * * * * * * * * * //

dimensions      [0 1 -2 0 0 0 0];

internalField   nonuniform List<vector> 
360
(
(9.55035e-05 -3.04333e-09 0)
(9.49802e-05 -1.06338e-08 0)
(9.49039e-05 -1.87966e-08 0)
(9.4972e-05 -2.52473e-08 0)
(9.50037e-05 -3.06303e-08 0)
(9.5012e-05 -3.54327e-08 0)
(9.50228e-05 -3.97653e-08 0)
(9.50374e-05 -4.37222e-08 0)
(9.50525e-05 -4.7445e-08 0)
(9.50679e-05 -5.10722e-08 0)
(9.50835e-05 -5.47235e-08 0)
(9.50992e-05 -5.8495e-08 0)
(9.51152e-05 -6.24621e-08 0)
(9.51315e-05 -6.66814e-08 0)
(9.5148e-05 -7.12021e-08 0)
(9.51649e-05 -7.6059e-08 0)
(9.51822e-05 -8.12755e-08 0)
(9.51997e-05 -8.68711e-08 0)
(9.52175e-05 -9.28545e-08 0)
(9.52358e-05 -9.92286e-08 0)
(9.52541e-05 -1.05997e-07 0)
(9.52729e-05 -1.13152e-07 0)
(9.5292e-05 -1.20687e-07 0)
(9.53114e-05 -1.28596e-07 0)
(9.5331e-05 -1.36873e-07 0)
(9.53509e-05 -1.45509e-07 0)
(9.53711e-05 -1.54489e-07 0)
(9.53916e-05 -1.63808e-07 0)
(9.54123e-05 -1.73449e-07 0)
(9.54333e-05 -1.83399e-07 0)
(9.54545e-05 -1.9365e-07 0)
(9.54761e-05 -2.04193e-07 0)
(9.54977e-05 -2.15017e-07 0)
(9.55199e-05 -2.26111e-07 0)
(9.55421e-05 -2.37464e-07 0)
(9.55646e-05 -2.49061e-07 0)
(9.55873e-05 -2.60891e-07 0)
(9.56103e-05 -2.7295e-07 0)
(9.56337e-05 -2.85234e-07 0)
(9.5657e-05 -2.97729e-07 0)
(9.56809e-05 -3.10424e-07 0)
(9.5705e-05 -3.23313e-07 0)
(9.57291e-05 -3.36383e-07 0)
(9.57538e-05 -3.4964e-07 0)
(9.57785e-05 -3.63071e-07 0)
(9.58036e-05 -3.76667e-07 0)
(9.5829e-05 -3.90426e-07 0)
(9.58544e-05 -4.04333e-07 0)
(9.58803e-05 -4.18378e-07 0)
(9.59067e-05 -4.32564e-07 0)
(9.59329e-05 -4.46883e-07 0)
(9.59598e-05 -4.61324e-07 0)
(9.59868e-05 -4.7588e-07 0)
(9.60142e-05 -4.90549e-07 0)
(9.60417e-05 -5.05323e-07 0)
(9.60699e-05 -5.202e-07 0)
(9.6098e-05 -5.35162e-07 0)
(9.61268e-05 -5.50208e-07 0)
(9.61558e-05 -5.65327e-07 0)
(9.61849e-05 -5.8051e-07 0)
(9.62149e-05 -5.95761e-07 0)
(9.62448e-05 -6.11061e-07 0)
(9.62753e-05 -6.2641e-07 0)
(9.63061e-05 -6.41801e-07 0)
(9.63374e-05 -6.57224e-07 0)
(9.63689e-05 -6.72669e-07 0)
(9.6401e-05 -6.88128e-07 0)
(9.64335e-05 -7.03598e-07 0)
(9.64664e-05 -7.19068e-07 0)
(9.64995e-05 -7.34528e-07 0)
(9.65335e-05 -7.4997e-07 0)
(9.6568e-05 -7.6539e-07 0)
(9.66025e-05 -7.80775e-07 0)
(9.66379e-05 -7.9612e-07 0)
(9.66737e-05 -8.1142e-07 0)
(9.67102e-05 -8.26671e-07 0)
(9.6747e-05 -8.41855e-07 0)
(9.67844e-05 -8.56969e-07 0)
(9.68225e-05 -8.72005e-07 0)
(9.68612e-05 -8.86954e-07 0)
(9.69004e-05 -9.01809e-07 0)
(9.69403e-05 -9.1656e-07 0)
(9.6981e-05 -9.31196e-07 0)
(9.70223e-05 -9.45714e-07 0)
(9.70643e-05 -9.60114e-07 0)
(9.7107e-05 -9.7439e-07 0)
(9.71506e-05 -9.88528e-07 0)
(9.71948e-05 -1.00253e-06 0)
(9.72399e-05 -1.01637e-06 0)
(9.72859e-05 -1.03005e-06 0)
(9.73327e-05 -1.04356e-06 0)
(9.73804e-05 -1.05689e-06 0)
(9.74291e-05 -1.07005e-06 0)
(9.74787e-05 -1.08303e-06 0)
(9.75294e-05 -1.09583e-06 0)
(9.75811e-05 -1.10843e-06 0)
(9.7634e-05 -1.12085e-06 0)
(9.76879e-05 -1.13308e-06 0)
(9.7743e-05 -1.14512e-06 0)
(9.77994e-05 -1.15695e-06 0)
(9.7857e-05 -1.16858e-06 0)
(9.7916e-05 -1.18e-06 0)
(9.79763e-05 -1.1912e-06 0)
(9.80381e-05 -1.20217e-06 0)
(9.81013e-05 -1.21292e-06 0)
(9.81662e-05 -1.22341e-06 0)
(9.82326e-05 -1.23365e-06 0)
(9.83008e-05 -1.24362e-06 0)
(9.83707e-05 -1.25332e-06 0)
(9.84424e-05 -1.26273e-06 0)
(9.85161e-05 -1.27186e-06 0)
(9.85917e-05 -1.28071e-06 0)
(9.86694e-05 -1.28932e-06 0)
(9.87492e-05 -1.29769e-06 0)
(9.88313e-05 -1.30587e-06 0)
(9.89157e-05 -1.31392e-06 0)
(9.90026e-05 -1.32188e-06 0)
(9.90921e-05 -1.32981e-06 0)
(9.91843e-05 -1.33773e-06 0)
(9.92794e-05 -1.34564e-06 0)
(9.93775e-05 -1.35349e-06 0)
(9.94789e-05 -1.36115e-06 0)
(9.95837e-05 -1.36842e-06 0)
(9.96922e-05 -1.37503e-06 0)
(9.98045e-05 -1.38063e-06 0)
(9.99211e-05 -1.3848e-06 0)
(0.000100042 -1.38709e-06 0)
(0.000100168 -1.38703e-06 0)
(0.000100299 -1.38412e-06 0)
(0.000100436 -1.3779e-06 0)
(0.000100578 -1.36807e-06 0)
(0.000100727 -1.35466e-06 0)
(0.000100881 -1.33841e-06 0)
(0.000101043 -1.32115e-06 0)
(0.000101213 -1.30587e-06 0)
(0.000101392 -1.29607e-06 0)
(0.000101578 -1.29374e-06 0)
(0.000101778 -1.29745e-06 0)
(0.000102005 -1.30282e-06 0)
(0.000102273 -1.30596e-06 0)
(0.00010257 -1.30671e-06 0)
(0.000102899 -1.12755e-06 0)
(0.000106964 -3.27097e-06 0)
(0.0001106 -9.01868e-06 0)
(0.000116147 -1.639e-05 0)
(0.000123603 -2.50861e-05 0)
(0.000134647 -3.60155e-05 0)
(0.000151756 -5.80099e-05 0)
(5.28993e-05 -9.01684e-05 0)
(-0.107491 0.000322423 0)
(-0.316657 -0.00352985 0)
(-0.596335 0.000515811 0)
(-0.746131 -0.00160912 0)
(-0.821915 -0.000446098 0)
(-0.865123 -0.000433973 0)
(-0.894362 -0.000417788 0)
(-0.917158 -0.000384387 0)
(-0.93659 -0.000350538 0)
(-0.954022 -0.00032144 0)
(-0.970132 -0.000295802 0)
(-0.985261 -0.0002724 0)
(-0.999595 -0.000250713 0)
(-1.01324 -0.000230536 0)
(-1.02626 -0.000211747 0)
(-1.0387 -0.000194251 0)
(-1.0506 -0.00017797 0)
(-1.06198 -0.000162836 0)
(-1.07288 -0.000148784 0)
(-1.0833 -0.000135754 0)
(-1.09329 -0.00012369 0)
(-1.10285 -0.000112533 0)
(-1.112 -0.000102229 0)
(-1.12078 -9.27249e-05 0)
(-1.12918 -8.397e-05 0)
(-1.13725 -7.5915e-05 0)
(-1.14498 -6.85131e-05 0)
(-1.1524 -6.17198e-05 0)
(-1.15952 -5.54927e-05 0)
(-1.16635 -4.97918e-05 0)
(-1.17291 -4.45793e-05 0)
(-1.17922 -3.98196e-05 0)
(-1.18528 -3.54794e-05 0)
(-1.19111 -3.15272e-05 0)
(-1.19672 -2.79338e-05 0)
(-1.20211 -2.46716e-05 0)
(-1.2073 -2.17151e-05 0)
(-1.2123 -1.90403e-05 0)
(-1.21711 -1.66251e-05 0)
(-1.22175 -1.44486e-05 0)
(-1.22622 -1.24917e-05 0)
(-1.23053 -1.07365e-05 0)
(-1.23468 -9.16641e-06 0)
(-1.23869 -7.76611e-06 0)
(-1.24256 -6.52142e-06 0)
(-1.24629 -5.41925e-06 0)
(-1.24989 -4.44749e-06 0)
(-1.25337 -3.595e-06 0)
(-1.25673 -2.85145e-06 0)
(-1.25997 -2.20726e-06 0)
(-1.26311 -1.65347e-06 0)
(-1.26613 -1.18161e-06 0)
(-1.26909 -7.7959e-07 0)
(-1.272 -4.38771e-07 0)
(-1.27487 -1.54554e-07 0)
(-1.27769 7.83335e-08 0)
(-1.28046 2.65793e-07 0)
(-1.28319 4.14179e-07 0)
(-1.28586 5.30006e-07 0)
(-1.28849 6.19523e-07 0)
(-1.29105 6.88252e-07 0)
(-1.29357 7.40552e-07 0)
(-1.29602 7.79325e-07 0)
(-1.29841 8.0606e-07 0)
(-1.30074 8.21212e-07 0)
(-1.303 8.24729e-07 0)
(-1.30519 8.16473e-07 0)
(-1.3073 7.96427e-07 0)
(-1.30934 7.64869e-07 0)
(-1.31129 7.22573e-07 0)
(-1.31315 6.70992e-07 0)
(-1.31491 6.12314e-07 0)
(-1.31657 5.49311e-07 0)
(-1.31811 4.84974e-07 0)
(-1.31953 4.22062e-07 0)
(-1.32082 3.62752e-07 0)
(-1.32196 3.08472e-07 0)
(-1.32294 2.59928e-07 0)
(-1.32375 2.17269e-07 0)
(-1.32436 1.8026e-07 0)
(-1.32476 1.48489e-07 0)
(-1.32492 1.21437e-07 0)
(-1.32483 9.85627e-08 0)
(-1.32445 7.93284e-08 0)
(-1.32376 6.35201e-08 0)
(-1.32273 5.2037e-08 0)
(-1.32134 3.83369e-08 0)
(-1.31955 3.08384e-08 0)
(-1.31735 2.57839e-08 0)
(-1.31471 1.37228e-08 0)
(-1.31164 7.02337e-09 0)
(-1.30815 2.65886e-09 0)
(-1.30428 -6.16909e-11 0)
(-1.30008 -1.41387e-09 0)
(-1.29565 -1.86137e-09 0)
(-1.29109 -1.76708e-09 0)
(-1.28653 -1.44809e-09 0)
(-1.28209 -1.05106e-09 0)
(-1.27787 -6.76477e-10 0)
(-1.27396 -3.77662e-10 0)
(-1.27039 -1.56105e-10 0)
(-1.26719 -3.63853e-11 0)
(-1.26434 1.05097e-10 0)
(-1.26182 1.64255e-10 0)
(-1.25959 1.55504e-10 0)
(-1.25762 1.49623e-10 0)
(-1.25588 1.48324e-10 0)
(-1.25434 1.48708e-10 0)
(-1.25298 1.48209e-10 0)
(-1.25179 1.47943e-10 0)
(-1.25074 1.46287e-10 0)
(-1.24983 1.43328e-10 0)
(-1.24905 1.42389e-10 0)
(-1.24839 1.41502e-10 0)
(-1.24785 1.39367e-10 0)
(-1.24742 1.42485e-10 0)
(-1.24711 1.49168e-10 0)
(-1.24692 1.4028e-10 0)
(-1.24684 2.09214e-10 0)
(-1.24688 8.65598e-11 0)
(-1.24706 3.09626e-10 0)
(-1.24738 -7.79389e-13 0)
(-1.24785 4.24373e-10 0)
(-1.2485 -9.00773e-11 0)
(-1.24965 5.27965e-10 0)
(-1.25101 -1.45849e-10 0)
(-1.25122 5.92071e-10 0)
(-1.25122 -1.8586e-10 0)
(-1.25122 6.38599e-10 0)
(-1.25122 -2.3191e-10 0)
(-1.25122 6.80968e-10 0)
(-1.25122 -2.82474e-10 0)
(-1.25122 7.33404e-10 0)
(-1.25122 -3.28415e-10 0)
(-1.25122 7.83942e-10 0)
(-1.25122 -3.85381e-10 0)
(-1.25122 8.31576e-10 0)
(-1.25122 -4.5197e-10 0)
(-1.25122 8.69405e-10 0)
(-1.25122 -5.30831e-10 0)
(-1.25122 9.0918e-10 0)
(-1.25122 -6.11184e-10 0)
(-1.25122 9.4217e-10 0)
(-1.25122 -7.06563e-10 0)
(-1.25122 9.7283e-10 0)
(-1.25122 -8.07959e-10 0)
(-1.25122 9.94769e-10 0)
(-1.25122 -9.09353e-10 0)
(-1.25122 1.05698e-09 0)
(-1.25122 -9.74984e-10 0)
(-1.25122 1.12759e-09 0)
(-1.25122 -1.04883e-09 0)
(-1.25122 1.20234e-09 0)
(-1.25122 -1.12543e-09 0)
(-1.25122 1.27004e-09 0)
(-1.25122 -1.21343e-09 0)
(-1.25122 1.34401e-09 0)
(-1.25122 -1.30167e-09 0)
(-1.25122 1.40858e-09 0)
(-1.25122 -1.40744e-09 0)
(-1.25122 1.46745e-09 0)
(-1.25122 -1.3406e-09 0)
(-1.25122 1.30056e-09 0)
(-1.25122 -1.40616e-09 0)
(-1.25122 1.28978e-09 0)
(-1.25122 -1.46882e-09 0)
(-1.25122 1.27268e-09 0)
(-1.25122 -1.54029e-09 0)
(-1.25122 1.24911e-09 0)
(-1.25122 -1.61389e-09 0)
(-1.25122 1.22028e-09 0)
(-1.25122 -1.70199e-09 0)
(-1.25122 1.16441e-09 0)
(-1.25122 -1.80963e-09 0)
(-1.25122 1.10383e-09 0)
(-1.25122 -1.92537e-09 0)
(-1.25122 1.01088e-09 0)
(-1.25122 -2.0911e-09 0)
(-1.25122 8.07603e-10 0)
(-1.25122 -2.57541e-09 0)
(-1.25122 2.95463e-11 0)
(-1.25122 -3.59719e-09 0)
(-1.25122 -9.64839e-10 0)
(-1.25122 -4.61475e-09 0)
(-1.25122 -1.92691e-09 0)
(-1.25122 -5.50341e-09 0)
(-1.25122 -2.59267e-09 0)
(-1.25122 -6.21415e-09 0)
(-1.25122 -3.42747e-09 0)
(-1.25122 -6.98152e-09 0)
(-1.25122 -3.77938e-09 0)
(-1.25122 -7.10736e-09 0)
(-1.25122 -3.73451e-09 0)
(-1.25122 -6.73777e-09 0)
(-1.25122 -2.83959e-09 0)
(-1.25122 -5.9023e-09 0)
(-1.25122 -2.4169e-09 0)
(-1.25122 -5.37588e-09 0)
(-1.25122 -1.14734e-09 0)
(-1.25122 -3.52589e-09 0)
(-1.25122 1.06738e-09 0)
(-1.25122 -8.8295e-10 0)
(-1.25122 3.76354e-09 0)
(-1.25122 2.68448e-09 0)
(-1.25122 9.23549e-09 0)
(-1.25122 7.91235e-09 0)
(-1.25122 1.11358e-08 0)
(-1.25122 9.14029e-09 0)
(-1.25122 1.12384e-08 0)
(-1.25122 -4.51331e-09 0)
(-1.25122 -3.61541e-09 0)
)
;

boundaryField
{
    inandouthalf11
    {
        type            cyclic;
    }
    inandouthalf12
    {
        type            cyclic;
    }
    inandouthalf21
    {
        type            cyclic;
    }
    inandouthalf22
    {
        type            cyclic;
    }
    inandouthalf31
    {
        type            cyclic;
    }
    inandouthalf32
    {
        type            cyclic;
    }
    inandouthalf41
    {
        type            cyclic;
    }
    inandouthalf42
    {
        type            cyclic;
    }
    top
    {
        type            symmetryPlane;
    }
    walls
    {
        type            calculated;
        value           uniform (0 0 0);
    }
    frontAndBackPlanes
    {
        type            empty;
    }
}


// ************************************************************************* //
