/*--------------------------------*- C++ -*----------------------------------*\
| =========                 |                                                 |
| \\      /  F ield         | OpenFOAM: The Open Source CFD Toolbox           |
|  \\    /   O peration     | Version:  2.4.x                                 |
|   \\  /    A nd           | Web:      www.OpenFOAM.org                      |
|    \\/     M anipulation  |                                                 |
\*---------------------------------------------------------------------------*/
FoamFile
{
    version     2.0;
    format      ascii;
    class       volScalarField;
    location    "10.6";
    object      ddt0(((1.5*(alpha+1e-08))*rho),Theta);
}
// * * * * * * * * * * * * * * * * * * * * * * * * * * * * * * * * * * * * * //

dimensions      [1 -1 -3 0 0 0 0];

internalField   nonuniform List<scalar> 
360
(
-5.88487e-23
-1.70939e-22
-9.7884e-23
-7.34725e-23
-6.7232e-23
-5.99681e-23
-5.23231e-23
-4.68243e-23
-4.36799e-23
-4.24014e-23
-4.25285e-23
-4.36875e-23
-4.56029e-23
-4.80775e-23
-5.09691e-23
-5.41735e-23
-5.76005e-23
-6.11777e-23
-6.48656e-23
-6.86349e-23
-7.24602e-23
-7.63421e-23
-8.02774e-23
-8.42544e-23
-8.82683e-23
-9.23089e-23
-9.63795e-23
-1.0049e-22
-1.04621e-22
-1.08754e-22
-1.12904e-22
-1.17057e-22
-1.21205e-22
-1.25365e-22
-1.29502e-22
-1.33597e-22
-1.37669e-22
-1.41742e-22
-1.45768e-22
-1.49722e-22
-1.53664e-22
-1.57534e-22
-1.61312e-22
-1.6507e-22
-1.68771e-22
-1.72396e-22
-1.75895e-22
-1.79244e-22
-1.82581e-22
-1.85877e-22
-1.88996e-22
-1.9199e-22
-1.94901e-22
-1.97675e-22
-2.00324e-22
-2.0286e-22
-2.05238e-22
-2.07461e-22
-2.09469e-22
-2.11301e-22
-2.13056e-22
-2.14678e-22
-2.16148e-22
-2.1744e-22
-2.18505e-22
-2.19379e-22
-2.20099e-22
-2.20614e-22
-2.20834e-22
-2.20856e-22
-2.20836e-22
-2.20641e-22
-2.20167e-22
-2.19563e-22
-2.18867e-22
-2.17971e-22
-2.16782e-22
-2.15343e-22
-2.13733e-22
-2.11929e-22
-2.09925e-22
-2.07788e-22
-2.0555e-22
-2.03191e-22
-2.00701e-22
-1.98067e-22
-1.95264e-22
-1.92266e-22
-1.8908e-22
-1.8574e-22
-1.82274e-22
-1.78717e-22
-1.7511e-22
-1.71473e-22
-1.67812e-22
-1.64122e-22
-1.60398e-22
-1.56631e-22
-1.52819e-22
-1.48963e-22
-1.45067e-22
-1.41135e-22
-1.37169e-22
-1.33169e-22
-1.29134e-22
-1.25068e-22
-1.20985e-22
-1.1691e-22
-1.12886e-22
-1.08972e-22
-1.05248e-22
-1.01809e-22
-9.87596e-23
-9.62024e-23
-9.42207e-23
-9.28479e-23
-9.20341e-23
-9.16048e-23
-9.12316e-23
-9.04216e-23
-8.85469e-23
-8.49142e-23
-7.88646e-23
-6.98612e-23
-5.75102e-23
-4.14605e-23
-7.86959e-23
-1.2032e-16
-3.65804e-16
-1.01994e-15
-2.72947e-15
-7.02348e-15
-1.73841e-14
-4.14222e-14
-9.52008e-14
-2.11934e-13
-4.63774e-13
-1.05237e-12
-2.81891e-12
-1.01514e-11
-4.67496e-11
-2.45304e-10
-1.66106e-09
-1.20938e-08
-1.02213e-07
-1.1582e-06
-1.47196e-05
0.000402874
0.0427558
0.873851
1.27479
0.616286
0.19012
0.0410327
-0.0174731
-0.0448036
-0.0589784
-0.0666142
-0.0706201
-0.0724261
-0.072804
-0.0722093
-0.070931
-0.0691639
-0.0670457
-0.0646789
-0.0621409
-0.0594926
-0.0567815
-0.0540461
-0.0513165
-0.0486172
-0.0459676
-0.0433824
-0.0408736
-0.0384499
-0.0361177
-0.0338811
-0.031743
-0.0297045
-0.0277659
-0.0259262
-0.024184
-0.022537
-0.0209826
-0.0195178
-0.0181391
-0.0168432
-0.0156263
-0.0144848
-0.0134149
-0.0124129
-0.0114755
-0.0105988
-0.00977922
-0.00901361
-0.00829871
-0.00763152
-0.00700921
-0.0064292
-0.00588912
-0.00538183
-0.00490203
-0.00444985
-0.0040255
-0.00362913
-0.00326078
-0.00292026
-0.00260709
-0.00232046
-0.00205917
-0.0018217
-0.00160628
-0.00141102
-0.00123405
-0.00107367
-0.000928432
-0.000797186
-0.000679113
-0.000573641
-0.000480355
-0.000398789
-0.00032837
-0.000268289
-0.000217575
-0.000175117
-0.000139852
-0.000110596
-8.66563e-05
-6.67701e-05
-5.09117e-05
-3.75751e-05
-2.74488e-05
-1.86466e-05
-1.23626e-05
-6.77903e-06
0
0
0
0
0
0
0
0
0
0
0
0
0
0
0
0
0
0
0
0
0
0
0
0
0
0
0
0
0
0
0
0
0
0
0
0
0
0
0
0
0
0
0
0
0
0
0
0
0
0
0
0
0
0
0
0
0
0
0
0
0
0
0
0
0
0
0
0
0
0
0
0
0
0
0
0
0
0
0
0
0
0
0
0
0
0
0
0
0
0
0
0
0
0
0
0
0
0
0
0
0
0
0
0
0
0
0
0
0
0
0
0
0
0
0
0
0
0
0
0
0
0
0
0
)
;

boundaryField
{
    inandouthalf11
    {
        type            cyclic;
    }
    inandouthalf12
    {
        type            cyclic;
    }
    inandouthalf21
    {
        type            cyclic;
    }
    inandouthalf22
    {
        type            cyclic;
    }
    inandouthalf31
    {
        type            cyclic;
    }
    inandouthalf32
    {
        type            cyclic;
    }
    inandouthalf41
    {
        type            cyclic;
    }
    inandouthalf42
    {
        type            cyclic;
    }
    top
    {
        type            symmetryPlane;
    }
    walls
    {
        type            calculated;
        value           uniform -5.88487e-23;
    }
    frontAndBackPlanes
    {
        type            empty;
    }
}


// ************************************************************************* //
