/*--------------------------------*- C++ -*----------------------------------*\
| =========                 |                                                 |
| \\      /  F ield         | OpenFOAM: The Open Source CFD Toolbox           |
|  \\    /   O peration     | Version:  2.4.x                                 |
|   \\  /    A nd           | Web:      www.OpenFOAM.org                      |
|    \\/     M anipulation  |                                                 |
\*---------------------------------------------------------------------------*/
FoamFile
{
    version     2.0;
    format      ascii;
    class       volScalarField;
    location    "10.6";
    object      k;
}
// * * * * * * * * * * * * * * * * * * * * * * * * * * * * * * * * * * * * * //

dimensions      [0 2 -2 0 0 0 0];

internalField   nonuniform List<scalar> 
360
(
1e-20
1e-20
1e-20
1e-20
1e-20
1e-20
1e-20
1e-20
1e-20
1e-20
1e-20
1e-20
1e-20
1e-20
1e-20
1e-20
1e-20
1e-20
1e-20
1e-20
1e-20
1e-20
1e-20
1e-20
1e-20
1e-20
1e-20
1e-20
1e-20
1e-20
1e-20
1e-20
1e-20
1e-20
1e-20
1e-20
1e-20
1e-20
1e-20
1e-20
1e-20
1e-20
1e-20
1e-20
1e-20
1e-20
1e-20
1e-20
1e-20
1e-20
1e-20
1e-20
1e-20
1e-20
1e-20
1e-20
1e-20
1e-20
1e-20
1e-20
1e-20
1e-20
1e-20
1e-20
1e-20
1e-20
1e-20
1e-20
1e-20
1e-20
1e-20
1e-20
1e-20
1e-20
1e-20
1e-20
1e-20
1e-20
1e-20
1e-20
1e-20
1e-20
1e-20
1e-20
1e-20
1e-20
1e-20
1e-20
1e-20
1e-20
1e-20
1e-20
1e-20
1e-20
1e-20
1e-20
1e-20
1e-20
1e-20
1e-20
1e-20
1e-20
1e-20
1e-20
1e-20
1e-20
1e-20
1e-20
1e-20
1e-20
1e-20
1e-20
1e-20
1e-20
1e-20
1e-20
1e-20
1e-20
1e-20
1e-20
1e-20
1e-20
1e-20
1e-20
1e-20
1e-20
1e-20
1.92314e-20
4.92222e-20
1.24078e-19
3.02687e-19
7.13146e-19
1.62139e-18
3.56075e-18
7.58697e-18
1.58588e-17
3.34476e-17
7.59035e-17
2.03289e-16
6.70012e-16
2.60551e-15
1.18303e-14
7.63074e-14
5.74449e-13
5.69798e-12
8.54924e-11
1.79423e-09
5.06817e-08
1.87439e-06
8.5388e-05
0.00121814
0.00171616
0.00198927
0.00228257
0.00257407
0.00285554
0.00312666
0.00338836
0.00364134
0.0038859
0.00412212
0.00434995
0.00456925
0.00477991
0.00498181
0.00517485
0.00535897
0.00553417
0.00570045
0.00585787
0.0060065
0.00614644
0.00627781
0.00640076
0.00651543
0.006622
0.00672064
0.00681152
0.00689484
0.00697078
0.00703953
0.00710129
0.00715625
0.00720459
0.00724652
0.00728221
0.00731186
0.00733564
0.00735374
0.00736633
0.00737359
0.00737568
0.00737279
0.00736506
0.00735267
0.00733576
0.00731451
0.00728905
0.00725954
0.00722613
0.00718895
0.00714774
0.00710203
0.00705172
0.00699671
0.00693691
0.00687221
0.00680252
0.00672774
0.00664776
0.00656251
0.00647187
0.00637577
0.00627414
0.00616689
0.00605398
0.00593535
0.00581097
0.00568083
0.00554493
0.00540329
0.00525598
0.00510305
0.00494465
0.0047809
0.00461203
0.00443828
0.00425998
0.0040775
0.00389131
0.00370196
0.00351011
0.00331651
0.00312203
0.00292768
0.00273455
0.00254391
0.00235711
0.0021756
0.00200089
0.0018345
0.00167784
0.00153219
0.00139854
0.00127753
0.00116938
0.00107384
0.00099025
0.000917607
0.000854661
0.000800038
0.000752346
0.000710251
0.000672524
0.000638067
0.000605923
0.000575268
0.000545408
0.000515767
0.000485877
0.000455374
0.000423986
0.000391534
0.000357926
0.000323153
0.000287296
0.000250524
0.000213107
0.000175423
0.000137986
0.000101487
6.68771e-05
3.56219e-05
1.03883e-05
7.45687e-07
1.14777e-08
1.24845e-10
1.2756e-12
1.2323e-14
1.12699e-16
9.82522e-19
1.60735e-20
1e-20
1e-20
1e-20
1e-20
1e-20
1e-20
1e-20
1e-20
1e-20
1e-20
1e-20
1e-20
1e-20
1e-20
1e-20
1e-20
1e-20
1e-20
1e-20
1e-20
1e-20
1e-20
1e-20
1e-20
1e-20
1e-20
1e-20
1e-20
1e-20
1e-20
1e-20
1e-20
1e-20
1e-20
1e-20
1e-20
1e-20
1e-20
1e-20
1e-20
1e-20
1e-20
1e-20
1e-20
1e-20
1e-20
1e-20
1e-20
1e-20
1e-20
1e-20
1e-20
1e-20
1e-20
1e-20
1e-20
1e-20
1e-20
1e-20
1e-20
1e-20
1e-20
1e-20
1e-20
1e-20
1e-20
1e-20
1e-20
1e-20
1e-20
1e-20
1e-20
1e-20
1e-20
1e-20
1e-20
1e-20
1e-20
)
;

boundaryField
{
    inandouthalf11
    {
        type            cyclic;
    }
    inandouthalf12
    {
        type            cyclic;
    }
    inandouthalf21
    {
        type            cyclic;
    }
    inandouthalf22
    {
        type            cyclic;
    }
    inandouthalf31
    {
        type            cyclic;
    }
    inandouthalf32
    {
        type            cyclic;
    }
    inandouthalf41
    {
        type            cyclic;
    }
    inandouthalf42
    {
        type            cyclic;
    }
    top
    {
        type            symmetryPlane;
    }
    walls
    {
        type            zeroGradient;
    }
    frontAndBackPlanes
    {
        type            empty;
    }
}


// ************************************************************************* //
