/*--------------------------------*- C++ -*----------------------------------*\
| =========                 |                                                 |
| \\      /  F ield         | OpenFOAM: The Open Source CFD Toolbox           |
|  \\    /   O peration     | Version:  2.4.x                                 |
|   \\  /    A nd           | Web:      www.OpenFOAM.org                      |
|    \\/     M anipulation  |                                                 |
\*---------------------------------------------------------------------------*/
FoamFile
{
    version     2.0;
    format      ascii;
    class       surfaceScalarField;
    location    "10.6";
    object      phia;
}
// * * * * * * * * * * * * * * * * * * * * * * * * * * * * * * * * * * * * * //

dimensions      [0 3 -1 0 0 0 0];

internalField   nonuniform List<scalar> 
359
(
-2.60834e-14
-6.49659e-14
-1.00331e-13
-1.33498e-13
-1.66695e-13
-1.99654e-13
-2.31808e-13
-2.6303e-13
-2.93377e-13
-3.22941e-13
-3.51786e-13
-3.79956e-13
-4.07501e-13
-4.34476e-13
-4.60943e-13
-4.86971e-13
-5.12626e-13
-5.37971e-13
-5.63064e-13
-5.8797e-13
-6.12737e-13
-6.37422e-13
-6.62073e-13
-6.86735e-13
-7.11451e-13
-7.36257e-13
-7.61185e-13
-7.8627e-13
-8.11538e-13
-8.3701e-13
-8.62707e-13
-8.88652e-13
-9.14848e-13
-9.41324e-13
-9.68077e-13
-9.95121e-13
-1.02246e-12
-1.0501e-12
-1.07804e-12
-1.10628e-12
-1.13484e-12
-1.16369e-12
-1.19284e-12
-1.22229e-12
-1.25204e-12
-1.28207e-12
-1.31239e-12
-1.34298e-12
-1.37383e-12
-1.40496e-12
-1.43633e-12
-1.46795e-12
-1.49981e-12
-1.5319e-12
-1.5642e-12
-1.59673e-12
-1.62944e-12
-1.66235e-12
-1.69543e-12
-1.72866e-12
-1.76206e-12
-1.7956e-12
-1.82929e-12
-1.86309e-12
-1.89701e-12
-1.93102e-12
-1.96513e-12
-1.9993e-12
-2.03353e-12
-2.0678e-12
-2.10211e-12
-2.13645e-12
-2.17079e-12
-2.20514e-12
-2.23948e-12
-2.2738e-12
-2.30807e-12
-2.34229e-12
-2.37644e-12
-2.41051e-12
-2.44447e-12
-2.47833e-12
-2.51207e-12
-2.54568e-12
-2.57915e-12
-2.61248e-12
-2.64564e-12
-2.67863e-12
-2.71142e-12
-2.74399e-12
-2.77635e-12
-2.80847e-12
-2.84035e-12
-2.87199e-12
-2.90336e-12
-2.93448e-12
-2.96532e-12
-2.99589e-12
-3.02616e-12
-3.05613e-12
-3.0858e-12
-3.11516e-12
-3.14421e-12
-3.17295e-12
-3.20139e-12
-3.22954e-12
-3.25741e-12
-3.28502e-12
-3.31239e-12
-3.33954e-12
-3.36651e-12
-3.3933e-12
-3.41996e-12
-3.44649e-12
-3.47291e-12
-3.49922e-12
-3.52538e-12
-3.55139e-12
-3.57718e-12
-3.6027e-12
-3.6279e-12
-3.65272e-12
-3.67715e-12
-3.70121e-12
-3.72499e-12
-3.74867e-12
-3.77254e-12
-3.79701e-12
-3.82265e-12
-3.85012e-12
-3.88016e-12
-3.91347e-12
-3.95045e-12
-3.99082e-12
-4.03286e-12
-4.07284e-12
-4.10573e-12
-4.12771e-12
-4.1388e-12
-4.14262e-12
-4.14354e-12
-4.14349e-12
-6.16913e-12
-9.33415e-12
-1.30338e-11
-1.78789e-11
-2.5203e-11
-3.54061e-11
-5.36291e-11
8.52693e-11
-4.49011e-09
-1.42502e-08
-2.59033e-08
-3.71915e-08
-4.65489e-08
-5.3772e-08
-5.93748e-08
-6.37145e-08
-6.70513e-08
-6.95878e-08
-7.1478e-08
-7.28393e-08
-7.37634e-08
-7.43231e-08
-7.45767e-08
-7.45721e-08
-7.43482e-08
-7.39377e-08
-7.33677e-08
-7.26612e-08
-7.18374e-08
-7.0913e-08
-6.9902e-08
-6.88167e-08
-6.76674e-08
-6.64635e-08
-6.52127e-08
-6.39221e-08
-6.25977e-08
-6.1245e-08
-5.98688e-08
-5.84734e-08
-5.70627e-08
-5.56401e-08
-5.42089e-08
-5.27721e-08
-5.13325e-08
-4.98929e-08
-4.84558e-08
-4.70239e-08
-4.55998e-08
-4.41862e-08
-4.27861e-08
-4.14024e-08
-4.00384e-08
-3.86977e-08
-3.7384e-08
-3.6101e-08
-3.48528e-08
-3.36428e-08
-3.24744e-08
-3.13274e-08
-3.02052e-08
-2.91097e-08
-2.80408e-08
-2.69956e-08
-2.59686e-08
-2.49513e-08
-2.39329e-08
-2.29015e-08
-2.18454e-08
-2.07556e-08
-1.96271e-08
-1.84605e-08
-1.72621e-08
-1.60432e-08
-1.48189e-08
-1.36073e-08
-1.24277e-08
-1.12981e-08
-1.0234e-08
-9.24645e-09
-8.3415e-09
-7.52079e-09
-6.78209e-09
-6.12193e-09
-5.53311e-09
-5.01583e-09
-4.55578e-09
-4.17007e-09
-3.8248e-09
-3.57729e-09
-3.34385e-09
-3.26913e-09
-3.15717e-09
-3.45377e-09
-9.30213e-10
1.28639e-09
3.21199e-09
4.89923e-09
6.28458e-09
7.34901e-09
8.07127e-09
8.39145e-09
8.46671e-09
7.95445e-09
7.55804e-09
6.39947e-09
5.59415e-09
4.83638e-09
-1.5202e-08
-1.20803e-07
-1.58199e-07
-1.5806e-07
-1.58019e-07
-1.58017e-07
-1.58015e-07
-1.58015e-07
-1.58016e-07
-1.58017e-07
-1.58019e-07
-1.58021e-07
-1.58022e-07
-1.58024e-07
-1.58024e-07
-1.58024e-07
-1.58023e-07
-1.5802e-07
-1.58016e-07
-1.5801e-07
-1.58001e-07
-1.57988e-07
-1.57967e-07
-1.57923e-07
-1.57903e-07
-1.57902e-07
-1.57902e-07
-1.57902e-07
-1.57902e-07
-1.57902e-07
-1.57902e-07
-1.57902e-07
-1.57902e-07
-1.57902e-07
-1.57902e-07
-1.57902e-07
-1.57902e-07
-1.57902e-07
-1.57902e-07
-1.57902e-07
-1.57902e-07
-1.57902e-07
-1.57902e-07
-1.57902e-07
-1.57902e-07
-1.57902e-07
-1.57902e-07
-1.57902e-07
-1.57902e-07
-1.57902e-07
-1.57902e-07
-1.57902e-07
-1.57902e-07
-1.57902e-07
-1.57902e-07
-1.57902e-07
-1.57902e-07
-1.57902e-07
-1.57902e-07
-1.57902e-07
-1.57902e-07
-1.57902e-07
-1.57902e-07
-1.57902e-07
-1.57902e-07
-1.57902e-07
-1.57902e-07
-1.57902e-07
-1.57902e-07
-1.57902e-07
-1.57902e-07
-1.57902e-07
-1.57902e-07
-1.57902e-07
-1.57902e-07
-1.57902e-07
-1.57902e-07
-1.57902e-07
-1.57902e-07
-1.57902e-07
-1.57902e-07
-1.57902e-07
-1.57902e-07
-1.57902e-07
-1.57902e-07
-1.57902e-07
-1.57902e-07
-1.57902e-07
-1.57902e-07
-1.57902e-07
-1.57902e-07
-1.57902e-07
-1.57902e-07
-1.57902e-07
-1.57902e-07
-1.57902e-07
-1.57902e-07
-1.57902e-07
-1.57902e-07
-1.57902e-07
-1.57902e-07
-1.57902e-07
-1.57902e-07
-1.57902e-07
-1.57902e-07
-1.57902e-07
-1.57884e-07
-1.57175e-07
-1.32145e-07
)
;

boundaryField
{
    inandouthalf11
    {
        type            cyclic;
        value           nonuniform List<scalar> 
100
(
1.51875e-38
2.50259e-15
5.13301e-15
7.42902e-15
9.69686e-15
1.19792e-14
1.42131e-14
1.63732e-14
1.84624e-14
2.04873e-14
2.24535e-14
2.43652e-14
2.62259e-14
2.80398e-14
2.98112e-14
3.15448e-14
3.32456e-14
3.49181e-14
3.65666e-14
3.81953e-14
3.98081e-14
4.14086e-14
4.30003e-14
4.45864e-14
4.61697e-14
4.77526e-14
4.93376e-14
5.09266e-14
5.25215e-14
5.41238e-14
5.57348e-14
5.73556e-14
5.8987e-14
6.063e-14
6.22851e-14
6.39527e-14
6.56328e-14
6.73259e-14
6.90321e-14
7.07511e-14
7.24829e-14
7.42273e-14
7.59839e-14
7.77523e-14
7.95323e-14
8.13234e-14
8.31251e-14
8.49365e-14
8.67571e-14
8.85867e-14
9.04245e-14
9.22697e-14
9.41216e-14
9.59797e-14
9.78431e-14
9.97112e-14
1.01583e-13
1.03458e-13
1.05336e-13
1.07215e-13
1.09094e-13
1.10973e-13
1.12852e-13
1.14729e-13
1.16604e-13
1.18476e-13
1.20344e-13
1.22207e-13
1.24065e-13
1.25915e-13
1.27758e-13
1.29593e-13
1.3142e-13
1.33236e-13
1.35043e-13
1.36839e-13
1.38623e-13
1.40394e-13
1.42152e-13
1.43895e-13
1.45623e-13
1.47335e-13
1.4903e-13
1.50709e-13
1.5237e-13
1.54012e-13
1.55636e-13
1.57241e-13
1.58825e-13
1.60387e-13
1.61928e-13
1.63446e-13
1.64941e-13
1.66412e-13
1.6786e-13
1.69284e-13
1.70683e-13
1.72057e-13
1.73406e-13
1.74729e-13
)
;
    }
    inandouthalf12
    {
        type            cyclic;
        value           nonuniform List<scalar> 
100
(
-1.51875e-38
-2.50259e-15
-5.13301e-15
-7.42902e-15
-9.69686e-15
-1.19792e-14
-1.42131e-14
-1.63732e-14
-1.84624e-14
-2.04873e-14
-2.24535e-14
-2.43652e-14
-2.62259e-14
-2.80398e-14
-2.98112e-14
-3.15448e-14
-3.32456e-14
-3.49181e-14
-3.65666e-14
-3.81953e-14
-3.98081e-14
-4.14086e-14
-4.30003e-14
-4.45864e-14
-4.61697e-14
-4.77526e-14
-4.93376e-14
-5.09266e-14
-5.25215e-14
-5.41238e-14
-5.57348e-14
-5.73556e-14
-5.8987e-14
-6.063e-14
-6.22851e-14
-6.39527e-14
-6.56328e-14
-6.73259e-14
-6.90321e-14
-7.07511e-14
-7.24829e-14
-7.42273e-14
-7.59839e-14
-7.77523e-14
-7.95323e-14
-8.13234e-14
-8.31251e-14
-8.49365e-14
-8.67571e-14
-8.85867e-14
-9.04245e-14
-9.22697e-14
-9.41216e-14
-9.59797e-14
-9.78431e-14
-9.97112e-14
-1.01583e-13
-1.03458e-13
-1.05336e-13
-1.07215e-13
-1.09094e-13
-1.10973e-13
-1.12852e-13
-1.14729e-13
-1.16604e-13
-1.18476e-13
-1.20344e-13
-1.22207e-13
-1.24065e-13
-1.25915e-13
-1.27758e-13
-1.29593e-13
-1.3142e-13
-1.33236e-13
-1.35043e-13
-1.36839e-13
-1.38623e-13
-1.40394e-13
-1.42152e-13
-1.43895e-13
-1.45623e-13
-1.47335e-13
-1.4903e-13
-1.50709e-13
-1.5237e-13
-1.54012e-13
-1.55636e-13
-1.57241e-13
-1.58825e-13
-1.60387e-13
-1.61928e-13
-1.63446e-13
-1.64941e-13
-1.66412e-13
-1.6786e-13
-1.69284e-13
-1.70683e-13
-1.72057e-13
-1.73406e-13
-1.74729e-13
)
;
    }
    inandouthalf21
    {
        type            cyclic;
        value           nonuniform List<scalar> 
100
(
1.76026e-13
1.77295e-13
1.78539e-13
1.79755e-13
1.80944e-13
1.82107e-13
1.83243e-13
1.84353e-13
1.85437e-13
1.86496e-13
1.8753e-13
1.8854e-13
1.89525e-13
1.90485e-13
1.9142e-13
1.92329e-13
1.9321e-13
1.94061e-13
1.94879e-13
1.95661e-13
1.96404e-13
1.97106e-13
1.97763e-13
1.98375e-13
1.98941e-13
1.99463e-13
1.99942e-13
2.0038e-13
2.00776e-13
2.01127e-13
2.01424e-13
2.01644e-13
2.01756e-13
2.01711e-13
2.01462e-13
2.00987e-13
2.00345e-13
1.99697e-13
1.9923e-13
1.9902e-13
1.98979e-13
1.9899e-13
1.99056e-13
7.71365e-13
1.63664e-12
2.77546e-12
4.6067e-12
8.42377e-12
2.33621e-11
8.72695e-09
9.9077e-08
1.53519e-07
1.74851e-07
1.84485e-07
1.88983e-07
1.90802e-07
1.91039e-07
1.90253e-07
1.88759e-07
1.86749e-07
1.84348e-07
1.81639e-07
1.78683e-07
1.75526e-07
1.72203e-07
1.68739e-07
1.65158e-07
1.61478e-07
1.57713e-07
1.53877e-07
1.4998e-07
1.46032e-07
1.42042e-07
1.38016e-07
1.33962e-07
1.29885e-07
1.25791e-07
1.21685e-07
1.17571e-07
1.13454e-07
1.09338e-07
1.05227e-07
1.01125e-07
9.70348e-08
9.29611e-08
8.89072e-08
8.48768e-08
8.08733e-08
7.69005e-08
7.29621e-08
6.90617e-08
6.52031e-08
6.13901e-08
5.76267e-08
5.39169e-08
5.02645e-08
4.66737e-08
4.31487e-08
3.96935e-08
3.63124e-08
)
;
    }
    inandouthalf22
    {
        type            cyclic;
        value           nonuniform List<scalar> 
100
(
-1.76026e-13
-1.77295e-13
-1.78539e-13
-1.79755e-13
-1.80944e-13
-1.82107e-13
-1.83243e-13
-1.84353e-13
-1.85437e-13
-1.86496e-13
-1.8753e-13
-1.8854e-13
-1.89525e-13
-1.90485e-13
-1.9142e-13
-1.92329e-13
-1.9321e-13
-1.94061e-13
-1.94879e-13
-1.95661e-13
-1.96404e-13
-1.97106e-13
-1.97763e-13
-1.98375e-13
-1.98941e-13
-1.99463e-13
-1.99942e-13
-2.0038e-13
-2.00776e-13
-2.01127e-13
-2.01424e-13
-2.01644e-13
-2.01756e-13
-2.01711e-13
-2.01462e-13
-2.00987e-13
-2.00345e-13
-1.99697e-13
-1.9923e-13
-1.9902e-13
-1.98979e-13
-1.9899e-13
-1.99056e-13
-7.71365e-13
-1.63664e-12
-2.77546e-12
-4.6067e-12
-8.42377e-12
-2.33621e-11
-8.72695e-09
-9.9077e-08
-1.53519e-07
-1.74851e-07
-1.84485e-07
-1.88983e-07
-1.90802e-07
-1.91039e-07
-1.90253e-07
-1.88759e-07
-1.86749e-07
-1.84348e-07
-1.81639e-07
-1.78683e-07
-1.75526e-07
-1.72203e-07
-1.68739e-07
-1.65158e-07
-1.61478e-07
-1.57713e-07
-1.53877e-07
-1.4998e-07
-1.46032e-07
-1.42042e-07
-1.38016e-07
-1.33962e-07
-1.29885e-07
-1.25791e-07
-1.21685e-07
-1.17571e-07
-1.13454e-07
-1.09338e-07
-1.05227e-07
-1.01125e-07
-9.70348e-08
-9.29611e-08
-8.89072e-08
-8.48768e-08
-8.08733e-08
-7.69005e-08
-7.29621e-08
-6.90617e-08
-6.52031e-08
-6.13901e-08
-5.76267e-08
-5.39169e-08
-5.02645e-08
-4.66737e-08
-4.31487e-08
-3.96935e-08
-3.63124e-08
)
;
    }
    inandouthalf31
    {
        type            cyclic;
        value           nonuniform List<scalar> 
110
(
3.30096e-08
3.03595e-08
2.76093e-08
2.47602e-08
2.18139e-08
1.87725e-08
1.56389e-08
1.24161e-08
9.10771e-09
5.71787e-09
2.25099e-09
-1.28806e-09
-4.89396e-09
-8.56086e-09
-1.22823e-08
-1.60512e-08
-1.98601e-08
-2.3701e-08
-2.75659e-08
-3.14467e-08
-3.53358e-08
-3.92256e-08
-4.31091e-08
-4.69795e-08
-5.08299e-08
-5.46534e-08
-5.84427e-08
-6.219e-08
-6.58861e-08
-6.9522e-08
-7.3084e-08
-7.65597e-08
-7.99244e-08
-8.31544e-08
-8.6203e-08
-8.90061e-08
-9.19385e-08
-2.51584e-07
-2.63555e-07
-2.75418e-07
-2.87119e-07
-2.98582e-07
-3.0974e-07
-3.20549e-07
-3.30907e-07
-3.40914e-07
-3.50248e-07
-3.59365e-07
-3.67614e-07
-3.75829e-07
-3.82965e-07
-3.87253e-07
-3.91152e-07
-3.9736e-07
-4.0341e-07
-4.0917e-07
-4.1468e-07
-4.19961e-07
-4.25036e-07
-4.29929e-07
-4.34667e-07
-4.39277e-07
-4.4379e-07
-4.48241e-07
-4.52671e-07
-4.57124e-07
-4.61653e-07
-4.66317e-07
-4.71188e-07
-4.7635e-07
-4.81901e-07
-4.87966e-07
-4.94677e-07
-5.02491e-07
-5.11964e-07
-5.22304e-07
-5.32904e-07
-5.43721e-07
-5.54757e-07
-5.66017e-07
-5.77506e-07
-5.89227e-07
-6.01187e-07
-6.1339e-07
-6.2584e-07
-6.38543e-07
-6.51503e-07
-6.64727e-07
-6.78219e-07
-6.91985e-07
-7.06031e-07
-7.20361e-07
-7.34983e-07
-7.49901e-07
-7.65122e-07
-7.80652e-07
-7.96497e-07
-8.12664e-07
-8.29159e-07
-8.45989e-07
-8.6316e-07
-8.8068e-07
-8.98555e-07
-9.16793e-07
-9.35402e-07
-9.54388e-07
-9.7376e-07
-9.93524e-07
-1.01369e-06
-1.03427e-06
)
;
    }
    inandouthalf32
    {
        type            cyclic;
        value           nonuniform List<scalar> 
110
(
-3.30096e-08
-3.03595e-08
-2.76093e-08
-2.47602e-08
-2.18139e-08
-1.87725e-08
-1.56389e-08
-1.24161e-08
-9.10771e-09
-5.71787e-09
-2.25099e-09
1.28806e-09
4.89396e-09
8.56086e-09
1.22823e-08
1.60512e-08
1.98601e-08
2.3701e-08
2.75659e-08
3.14467e-08
3.53358e-08
3.92256e-08
4.31091e-08
4.69795e-08
5.08299e-08
5.46534e-08
5.84427e-08
6.219e-08
6.58861e-08
6.9522e-08
7.3084e-08
7.65597e-08
7.99244e-08
8.31544e-08
8.6203e-08
8.90061e-08
9.19385e-08
2.51584e-07
2.63555e-07
2.75418e-07
2.87119e-07
2.98582e-07
3.0974e-07
3.20549e-07
3.30907e-07
3.40914e-07
3.50248e-07
3.59365e-07
3.67614e-07
3.75829e-07
3.82965e-07
3.87253e-07
3.91152e-07
3.9736e-07
4.0341e-07
4.0917e-07
4.1468e-07
4.19961e-07
4.25036e-07
4.29929e-07
4.34667e-07
4.39277e-07
4.4379e-07
4.48241e-07
4.52671e-07
4.57124e-07
4.61653e-07
4.66317e-07
4.71188e-07
4.7635e-07
4.81901e-07
4.87966e-07
4.94677e-07
5.02491e-07
5.11964e-07
5.22304e-07
5.32904e-07
5.43721e-07
5.54757e-07
5.66017e-07
5.77506e-07
5.89227e-07
6.01187e-07
6.1339e-07
6.2584e-07
6.38543e-07
6.51503e-07
6.64727e-07
6.78219e-07
6.91985e-07
7.06031e-07
7.20361e-07
7.34983e-07
7.49901e-07
7.65122e-07
7.80652e-07
7.96497e-07
8.12664e-07
8.29159e-07
8.45989e-07
8.6316e-07
8.8068e-07
8.98555e-07
9.16793e-07
9.35402e-07
9.54388e-07
9.7376e-07
9.93524e-07
1.01369e-06
1.03427e-06
)
;
    }
    inandouthalf41
    {
        type            cyclic;
        value           nonuniform List<scalar> 
50
(
-9.25773e-07
-9.25773e-07
-9.25773e-07
-9.25773e-07
-9.25773e-07
-9.25773e-07
-9.25773e-07
-9.25773e-07
-9.25773e-07
-9.25773e-07
-9.25773e-07
-9.25773e-07
-9.25773e-07
-9.25773e-07
-9.25773e-07
-9.25773e-07
-9.25773e-07
-9.25773e-07
-9.25773e-07
-9.25773e-07
-9.25773e-07
-9.25773e-07
-9.25773e-07
-9.25773e-07
-9.25773e-07
-9.25773e-07
-9.25773e-07
-9.25773e-07
-9.25773e-07
-9.25773e-07
-9.25773e-07
-9.25773e-07
-9.25773e-07
-9.25773e-07
-9.25773e-07
-9.25773e-07
-9.25773e-07
-9.25773e-07
-9.25773e-07
-9.25773e-07
-9.25773e-07
-9.25773e-07
-9.25773e-07
-9.25773e-07
-9.25773e-07
-9.25773e-07
-9.25773e-07
-9.25785e-07
-9.26059e-07
-9.32399e-07
)
;
    }
    inandouthalf42
    {
        type            cyclic;
        value           nonuniform List<scalar> 
50
(
9.25773e-07
9.25773e-07
9.25773e-07
9.25773e-07
9.25773e-07
9.25773e-07
9.25773e-07
9.25773e-07
9.25773e-07
9.25773e-07
9.25773e-07
9.25773e-07
9.25773e-07
9.25773e-07
9.25773e-07
9.25773e-07
9.25773e-07
9.25773e-07
9.25773e-07
9.25773e-07
9.25773e-07
9.25773e-07
9.25773e-07
9.25773e-07
9.25773e-07
9.25773e-07
9.25773e-07
9.25773e-07
9.25773e-07
9.25773e-07
9.25773e-07
9.25773e-07
9.25773e-07
9.25773e-07
9.25773e-07
9.25773e-07
9.25773e-07
9.25773e-07
9.25773e-07
9.25773e-07
9.25773e-07
9.25773e-07
9.25773e-07
9.25773e-07
9.25773e-07
9.25773e-07
9.25773e-07
9.25785e-07
9.26059e-07
9.32399e-07
)
;
    }
    top
    {
        type            symmetryPlane;
        value           uniform 0;
    }
    walls
    {
        type            fixedValue;
        value           uniform 0;
    }
    frontAndBackPlanes
    {
        type            empty;
        value           nonuniform 0();
    }
}


// ************************************************************************* //
