/*--------------------------------*- C++ -*----------------------------------*\
| =========                 |                                                 |
| \\      /  F ield         | OpenFOAM: The Open Source CFD Toolbox           |
|  \\    /   O peration     | Version:  2.4.x                                 |
|   \\  /    A nd           | Web:      www.OpenFOAM.org                      |
|    \\/     M anipulation  |                                                 |
\*---------------------------------------------------------------------------*/
FoamFile
{
    version     2.0;
    format      ascii;
    class       surfaceScalarField;
    location    "10.6";
    object      phib_0;
}
// * * * * * * * * * * * * * * * * * * * * * * * * * * * * * * * * * * * * * //

dimensions      [0 3 -1 0 0 0 0];

internalField   nonuniform List<scalar> 
359
(
4.103e-14
1.02399e-13
1.5814e-13
2.10357e-13
2.62634e-13
3.1454e-13
3.65166e-13
4.14309e-13
4.62064e-13
5.08577e-13
5.5395e-13
5.9825e-13
6.41558e-13
6.83959e-13
7.25552e-13
7.66445e-13
8.06743e-13
8.46544e-13
8.85941e-13
9.25034e-13
9.63899e-13
1.00263e-12
1.04129e-12
1.07996e-12
1.11871e-12
1.15759e-12
1.19666e-12
1.23595e-12
1.27553e-12
1.31542e-12
1.35565e-12
1.39625e-12
1.43724e-12
1.47866e-12
1.52051e-12
1.56279e-12
1.60553e-12
1.64872e-12
1.69239e-12
1.7365e-12
1.78109e-12
1.82614e-12
1.87163e-12
1.91759e-12
1.96399e-12
2.01082e-12
2.05809e-12
2.10576e-12
2.15384e-12
2.20232e-12
2.25117e-12
2.3004e-12
2.34997e-12
2.39989e-12
2.45012e-12
2.50067e-12
2.55151e-12
2.60262e-12
2.65399e-12
2.70557e-12
2.75739e-12
2.80941e-12
2.86162e-12
2.91401e-12
2.96654e-12
3.0192e-12
3.07197e-12
3.12482e-12
3.17774e-12
3.23069e-12
3.28367e-12
3.33667e-12
3.38964e-12
3.4426e-12
3.4955e-12
3.54834e-12
3.60109e-12
3.65371e-12
3.70619e-12
3.7585e-12
3.81062e-12
3.86253e-12
3.91422e-12
3.96568e-12
4.01688e-12
4.06781e-12
4.11845e-12
4.16876e-12
4.21873e-12
4.26833e-12
4.31753e-12
4.36632e-12
4.41469e-12
4.46263e-12
4.51011e-12
4.55714e-12
4.60369e-12
4.64976e-12
4.69531e-12
4.74034e-12
4.78484e-12
4.8288e-12
4.87222e-12
4.91509e-12
4.95743e-12
4.99925e-12
5.04056e-12
5.0814e-12
5.12179e-12
5.16176e-12
5.20135e-12
5.24061e-12
5.27956e-12
5.31822e-12
5.35662e-12
5.39473e-12
5.43254e-12
5.46997e-12
5.50697e-12
5.54344e-12
5.57927e-12
5.61441e-12
5.64879e-12
5.68246e-12
5.71555e-12
5.74832e-12
5.7812e-12
5.81482e-12
5.85001e-12
5.88779e-12
5.92927e-12
5.97547e-12
6.02699e-12
6.08328e-12
6.14169e-12
6.19654e-12
6.24013e-12
6.26651e-12
6.27541e-12
6.27238e-12
6.26389e-12
6.22044e-12
9.21534e-12
1.39417e-11
1.94115e-11
2.65279e-11
3.72477e-11
5.19914e-11
6.27404e-11
-3.60383e-11
4.82746e-10
6.08609e-10
6.0472e-10
5.79622e-10
5.4797e-10
5.1363e-10
4.80148e-10
4.48466e-10
4.18795e-10
3.91102e-10
3.65265e-10
3.41143e-10
3.18599e-10
2.97508e-10
2.77758e-10
2.5925e-10
2.41897e-10
2.25618e-10
2.10343e-10
1.96009e-10
1.82555e-10
1.69929e-10
1.58082e-10
1.46967e-10
1.36541e-10
1.26766e-10
1.17604e-10
1.0902e-10
1.00981e-10
9.34572e-11
8.64187e-11
7.98381e-11
7.36895e-11
6.79483e-11
6.25912e-11
5.75963e-11
5.29426e-11
4.86104e-11
4.4581e-11
4.08367e-11
3.73606e-11
3.4137e-11
3.11507e-11
2.83878e-11
2.58348e-11
2.34791e-11
2.13089e-11
1.9313e-11
1.74808e-11
1.58022e-11
1.42677e-11
1.28408e-11
1.15195e-11
1.03012e-11
9.18225e-12
8.15843e-12
7.22459e-12
6.37496e-12
5.6033e-12
4.90321e-12
4.2685e-12
3.69354e-12
3.17351e-12
2.70453e-12
2.28356e-12
1.90831e-12
1.57696e-12
1.28793e-12
1.03953e-12
8.29617e-13
6.5538e-13
5.13288e-13
3.99256e-13
3.08973e-13
2.38224e-13
1.83237e-13
1.40627e-13
1.07907e-13
8.25822e-14
6.34696e-14
4.85629e-14
3.77748e-14
2.91001e-14
2.33792e-14
1.85166e-14
1.72737e-14
3.99397e-15
-4.29979e-15
-7.79657e-15
-8.47586e-15
-7.60306e-15
-6.09233e-15
-4.49085e-15
-3.06998e-15
-1.98995e-15
-1.1764e-15
-6.81138e-16
-3.41394e-16
-1.66901e-16
-7.36828e-17
6.68174e-17
-2.55471e-18
-7.17952e-18
-7.0258e-18
-6.81387e-18
-6.61922e-18
-6.37689e-18
-6.15076e-18
-5.87976e-18
-5.62428e-18
-5.34191e-18
-5.08026e-18
-4.80795e-18
-4.57666e-18
-4.37084e-18
-4.2066e-18
-4.05098e-18
-3.91341e-18
-3.78692e-18
-3.66676e-18
-3.54228e-18
-3.42121e-18
-3.32303e-18
-3.22357e-18
-3.12062e-18
-3.00274e-18
-2.89277e-18
-2.76578e-18
-2.63594e-18
-2.49701e-18
-2.39209e-18
-2.28139e-18
-2.17248e-18
-2.04635e-18
-1.93058e-18
-1.79836e-18
-1.60702e-18
-1.45752e-18
-1.32411e-18
-1.1804e-18
-1.03536e-18
-8.79425e-19
-7.30114e-19
-5.75903e-19
-4.28652e-19
-2.96803e-19
-3.05302e-19
-2.48253e-19
-2.01568e-19
-1.26988e-19
-8.81965e-20
-5.63839e-20
-2.49908e-20
-1.29206e-21
3.28465e-20
5.51448e-20
7.76044e-20
8.34667e-20
1.02857e-19
1.02545e-19
1.02789e-19
9.27542e-20
1.04141e-19
1.05611e-19
1.08028e-19
9.7676e-20
9.54509e-20
8.16965e-20
6.80778e-20
4.45817e-20
2.91589e-20
7.94921e-21
-1.39554e-20
-4.04169e-20
-7.05635e-20
-1.0352e-19
-1.46099e-19
-2.10638e-19
-3.47217e-19
-4.94658e-19
-6.50917e-19
-7.80999e-19
-9.43928e-19
-1.05974e-18
-1.17855e-18
-1.2426e-18
-1.41535e-18
-1.5089e-18
-1.60244e-18
-1.58726e-18
-1.66247e-18
-1.60468e-18
-1.55468e-18
-1.38859e-18
-1.47715e-18
-1.41671e-18
-1.35874e-18
-1.1089e-18
-9.65582e-19
-6.55915e-19
-3.31106e-19
-6.0361e-20
6.44715e-19
1.12154e-18
1.59777e-18
1.34912e-18
2.45202e-18
1.31141e-18
-1.01476e-18
)
;

boundaryField
{
    inandouthalf11
    {
        type            cyclic;
        value           nonuniform List<scalar> 
100
(
2.64753e-10
2.63283e-10
2.63086e-10
2.63287e-10
2.63383e-10
2.63415e-10
2.63455e-10
2.63505e-10
2.63558e-10
2.6361e-10
2.63663e-10
2.63715e-10
2.63768e-10
2.63822e-10
2.63876e-10
2.6393e-10
2.63985e-10
2.64041e-10
2.64097e-10
2.64153e-10
2.6421e-10
2.64268e-10
2.64326e-10
2.64385e-10
2.64444e-10
2.64505e-10
2.64565e-10
2.64627e-10
2.64689e-10
2.64751e-10
2.64815e-10
2.64879e-10
2.64943e-10
2.65009e-10
2.65075e-10
2.65142e-10
2.6521e-10
2.65278e-10
2.65348e-10
2.65417e-10
2.65489e-10
2.6556e-10
2.65632e-10
2.65706e-10
2.6578e-10
2.65855e-10
2.65931e-10
2.66007e-10
2.66085e-10
2.66164e-10
2.66243e-10
2.66324e-10
2.66405e-10
2.66488e-10
2.66571e-10
2.66656e-10
2.66741e-10
2.66828e-10
2.66916e-10
2.67004e-10
2.67095e-10
2.67185e-10
2.67278e-10
2.67372e-10
2.67466e-10
2.67562e-10
2.6766e-10
2.67759e-10
2.67859e-10
2.6796e-10
2.68063e-10
2.68168e-10
2.68273e-10
2.68381e-10
2.6849e-10
2.68601e-10
2.68713e-10
2.68827e-10
2.68942e-10
2.6906e-10
2.69179e-10
2.69301e-10
2.69424e-10
2.69549e-10
2.69677e-10
2.69806e-10
2.69938e-10
2.70072e-10
2.70208e-10
2.70347e-10
2.70488e-10
2.70632e-10
2.70779e-10
2.70928e-10
2.71081e-10
2.71236e-10
2.71394e-10
2.71556e-10
2.71721e-10
2.71889e-10
)
;
    }
    inandouthalf12
    {
        type            cyclic;
        value           nonuniform List<scalar> 
100
(
-2.64753e-10
-2.63283e-10
-2.63086e-10
-2.63287e-10
-2.63383e-10
-2.63415e-10
-2.63455e-10
-2.63505e-10
-2.63558e-10
-2.6361e-10
-2.63663e-10
-2.63715e-10
-2.63768e-10
-2.63822e-10
-2.63876e-10
-2.6393e-10
-2.63985e-10
-2.64041e-10
-2.64097e-10
-2.64153e-10
-2.6421e-10
-2.64268e-10
-2.64326e-10
-2.64385e-10
-2.64444e-10
-2.64505e-10
-2.64565e-10
-2.64627e-10
-2.64689e-10
-2.64751e-10
-2.64815e-10
-2.64879e-10
-2.64943e-10
-2.65009e-10
-2.65075e-10
-2.65142e-10
-2.6521e-10
-2.65278e-10
-2.65348e-10
-2.65417e-10
-2.65489e-10
-2.6556e-10
-2.65632e-10
-2.65706e-10
-2.6578e-10
-2.65855e-10
-2.65931e-10
-2.66007e-10
-2.66085e-10
-2.66164e-10
-2.66243e-10
-2.66324e-10
-2.66405e-10
-2.66488e-10
-2.66571e-10
-2.66656e-10
-2.66741e-10
-2.66828e-10
-2.66916e-10
-2.67004e-10
-2.67095e-10
-2.67185e-10
-2.67278e-10
-2.67372e-10
-2.67466e-10
-2.67562e-10
-2.6766e-10
-2.67759e-10
-2.67859e-10
-2.6796e-10
-2.68063e-10
-2.68168e-10
-2.68273e-10
-2.68381e-10
-2.6849e-10
-2.68601e-10
-2.68713e-10
-2.68827e-10
-2.68942e-10
-2.6906e-10
-2.69179e-10
-2.69301e-10
-2.69424e-10
-2.69549e-10
-2.69677e-10
-2.69806e-10
-2.69938e-10
-2.70072e-10
-2.70208e-10
-2.70347e-10
-2.70488e-10
-2.70632e-10
-2.70779e-10
-2.70928e-10
-2.71081e-10
-2.71236e-10
-2.71394e-10
-2.71556e-10
-2.71721e-10
-2.71889e-10
)
;
    }
    inandouthalf21
    {
        type            cyclic;
        value           nonuniform List<scalar> 
100
(
2.72061e-10
2.72237e-10
2.72416e-10
2.726e-10
2.72788e-10
2.7298e-10
2.73176e-10
2.73378e-10
2.73584e-10
2.73795e-10
2.74012e-10
2.74234e-10
2.74463e-10
2.74697e-10
2.74937e-10
2.75185e-10
2.75439e-10
2.75701e-10
2.7597e-10
2.76248e-10
2.76534e-10
2.7683e-10
2.77135e-10
2.7745e-10
2.77777e-10
2.78115e-10
2.78465e-10
2.7883e-10
2.79208e-10
2.79603e-10
2.80014e-10
2.80442e-10
2.80889e-10
2.81361e-10
2.81863e-10
2.82395e-10
2.82957e-10
2.83558e-10
2.84227e-10
2.84994e-10
2.85825e-10
2.86798e-10
2.9386e-10
2.93516e-10
2.95699e-10
2.99058e-10
3.03185e-10
3.09468e-10
3.42314e-10
1.03431e-08
1.2026e-07
1.70279e-07
1.88347e-07
1.95631e-07
1.98615e-07
1.99522e-07
1.99232e-07
1.98155e-07
1.96514e-07
1.94443e-07
1.92032e-07
1.89344e-07
1.86428e-07
1.8332e-07
1.8005e-07
1.76644e-07
1.73122e-07
1.69501e-07
1.65796e-07
1.6202e-07
1.58184e-07
1.54298e-07
1.5037e-07
1.46409e-07
1.42419e-07
1.38408e-07
1.3438e-07
1.30341e-07
1.26294e-07
1.22243e-07
1.18191e-07
1.14142e-07
1.10098e-07
1.06062e-07
1.02036e-07
9.80214e-08
9.40207e-08
9.00354e-08
8.60671e-08
8.2117e-08
7.81866e-08
7.42768e-08
7.0389e-08
6.65239e-08
6.26826e-08
5.88658e-08
5.50743e-08
5.13089e-08
4.75703e-08
4.3859e-08
)
;
    }
    inandouthalf22
    {
        type            cyclic;
        value           nonuniform List<scalar> 
100
(
-2.72061e-10
-2.72237e-10
-2.72416e-10
-2.726e-10
-2.72788e-10
-2.7298e-10
-2.73176e-10
-2.73378e-10
-2.73584e-10
-2.73795e-10
-2.74012e-10
-2.74234e-10
-2.74463e-10
-2.74697e-10
-2.74937e-10
-2.75185e-10
-2.75439e-10
-2.75701e-10
-2.7597e-10
-2.76248e-10
-2.76534e-10
-2.7683e-10
-2.77135e-10
-2.7745e-10
-2.77777e-10
-2.78115e-10
-2.78465e-10
-2.7883e-10
-2.79208e-10
-2.79603e-10
-2.80014e-10
-2.80442e-10
-2.80889e-10
-2.81361e-10
-2.81863e-10
-2.82395e-10
-2.82957e-10
-2.83558e-10
-2.84227e-10
-2.84994e-10
-2.85825e-10
-2.86798e-10
-2.9386e-10
-2.93516e-10
-2.95699e-10
-2.99058e-10
-3.03185e-10
-3.09468e-10
-3.42314e-10
-1.03431e-08
-1.2026e-07
-1.70279e-07
-1.88347e-07
-1.95631e-07
-1.98615e-07
-1.99522e-07
-1.99232e-07
-1.98155e-07
-1.96514e-07
-1.94443e-07
-1.92032e-07
-1.89344e-07
-1.86428e-07
-1.8332e-07
-1.8005e-07
-1.76644e-07
-1.73122e-07
-1.69501e-07
-1.65796e-07
-1.6202e-07
-1.58184e-07
-1.54298e-07
-1.5037e-07
-1.46409e-07
-1.42419e-07
-1.38408e-07
-1.3438e-07
-1.30341e-07
-1.26294e-07
-1.22243e-07
-1.18191e-07
-1.14142e-07
-1.10098e-07
-1.06062e-07
-1.02036e-07
-9.80214e-08
-9.40207e-08
-9.00354e-08
-8.60671e-08
-8.2117e-08
-7.81866e-08
-7.42768e-08
-7.0389e-08
-6.65239e-08
-6.26826e-08
-5.88658e-08
-5.50743e-08
-5.13089e-08
-4.75703e-08
-4.3859e-08
)
;
    }
    inandouthalf31
    {
        type            cyclic;
        value           nonuniform List<scalar> 
110
(
4.01757e-08
3.7224e-08
3.40888e-08
3.07632e-08
2.72402e-08
2.35123e-08
1.95724e-08
1.5413e-08
1.10266e-08
6.40582e-09
1.54306e-09
-3.5691e-09
-8.93806e-09
-1.45711e-08
-2.04754e-08
-2.66578e-08
-3.3125e-08
-3.98831e-08
-4.69381e-08
-5.42952e-08
-6.19588e-08
-6.99326e-08
-7.82194e-08
-8.68207e-08
-9.57365e-08
-1.04965e-07
-1.14504e-07
-1.24346e-07
-1.34484e-07
-1.44906e-07
-1.55597e-07
-1.66539e-07
-1.77708e-07
-1.89076e-07
-2.00608e-07
-2.12266e-07
-2.24002e-07
-2.35763e-07
-2.47489e-07
-2.59115e-07
-2.70572e-07
-2.81789e-07
-2.92699e-07
-3.03238e-07
-3.13354e-07
-3.23008e-07
-3.32176e-07
-3.40853e-07
-3.49046e-07
-3.56775e-07
-3.64068e-07
-3.70954e-07
-3.77466e-07
-3.83633e-07
-3.89483e-07
-3.95042e-07
-4.00334e-07
-4.05383e-07
-4.10211e-07
-4.14843e-07
-4.19305e-07
-4.23624e-07
-4.27833e-07
-4.31965e-07
-4.3606e-07
-4.40162e-07
-4.44322e-07
-4.48601e-07
-4.53067e-07
-4.57802e-07
-4.62904e-07
-4.68495e-07
-4.74737e-07
-4.8189e-07
-4.90761e-07
-5.00654e-07
-5.10814e-07
-5.21183e-07
-5.31761e-07
-5.42555e-07
-5.53567e-07
-5.64803e-07
-5.76267e-07
-5.87964e-07
-5.99898e-07
-6.12074e-07
-6.24498e-07
-6.37173e-07
-6.50106e-07
-6.63302e-07
-6.76765e-07
-6.90501e-07
-7.04517e-07
-7.18816e-07
-7.33406e-07
-7.48293e-07
-7.63481e-07
-7.78978e-07
-7.94789e-07
-8.10921e-07
-8.2738e-07
-8.44174e-07
-8.61309e-07
-8.78791e-07
-8.96628e-07
-9.14827e-07
-9.33396e-07
-9.52341e-07
-9.71671e-07
-9.91393e-07
)
;
    }
    inandouthalf32
    {
        type            cyclic;
        value           nonuniform List<scalar> 
110
(
-4.01757e-08
-3.7224e-08
-3.40888e-08
-3.07632e-08
-2.72402e-08
-2.35123e-08
-1.95724e-08
-1.5413e-08
-1.10266e-08
-6.40582e-09
-1.54306e-09
3.5691e-09
8.93806e-09
1.45711e-08
2.04754e-08
2.66578e-08
3.3125e-08
3.98831e-08
4.69381e-08
5.42952e-08
6.19588e-08
6.99326e-08
7.82194e-08
8.68207e-08
9.57365e-08
1.04965e-07
1.14504e-07
1.24346e-07
1.34484e-07
1.44906e-07
1.55597e-07
1.66539e-07
1.77708e-07
1.89076e-07
2.00608e-07
2.12266e-07
2.24002e-07
2.35763e-07
2.47489e-07
2.59115e-07
2.70572e-07
2.81789e-07
2.92699e-07
3.03238e-07
3.13354e-07
3.23008e-07
3.32176e-07
3.40853e-07
3.49046e-07
3.56775e-07
3.64068e-07
3.70954e-07
3.77466e-07
3.83633e-07
3.89483e-07
3.95042e-07
4.00334e-07
4.05383e-07
4.10211e-07
4.14843e-07
4.19305e-07
4.23624e-07
4.27833e-07
4.31965e-07
4.3606e-07
4.40162e-07
4.44322e-07
4.48601e-07
4.53067e-07
4.57802e-07
4.62904e-07
4.68495e-07
4.74737e-07
4.8189e-07
4.90761e-07
5.00654e-07
5.10814e-07
5.21183e-07
5.31761e-07
5.42555e-07
5.53567e-07
5.64803e-07
5.76267e-07
5.87964e-07
5.99898e-07
6.12074e-07
6.24498e-07
6.37173e-07
6.50106e-07
6.63302e-07
6.76765e-07
6.90501e-07
7.04517e-07
7.18816e-07
7.33406e-07
7.48293e-07
7.63481e-07
7.78978e-07
7.94789e-07
8.10921e-07
8.2738e-07
8.44174e-07
8.61309e-07
8.78791e-07
8.96628e-07
9.14827e-07
9.33396e-07
9.52341e-07
9.71671e-07
9.91393e-07
)
;
    }
    inandouthalf41
    {
        type            cyclic;
        value           nonuniform List<scalar> 
50
(
-8.87398e-07
-8.87398e-07
-8.87398e-07
-8.87398e-07
-8.87398e-07
-8.87398e-07
-8.87398e-07
-8.87398e-07
-8.87398e-07
-8.87398e-07
-8.87398e-07
-8.87398e-07
-8.87398e-07
-8.87398e-07
-8.87398e-07
-8.87398e-07
-8.87398e-07
-8.87398e-07
-8.87398e-07
-8.87398e-07
-8.87398e-07
-8.87398e-07
-8.87398e-07
-8.87398e-07
-8.87398e-07
-8.87398e-07
-8.87398e-07
-8.87398e-07
-8.87398e-07
-8.87398e-07
-8.87398e-07
-8.87398e-07
-8.87398e-07
-8.87398e-07
-8.87398e-07
-8.87398e-07
-8.87398e-07
-8.87398e-07
-8.87398e-07
-8.87398e-07
-8.87398e-07
-8.87398e-07
-8.87398e-07
-8.87398e-07
-8.87398e-07
-8.87398e-07
-8.87398e-07
-8.87398e-07
-8.87398e-07
-8.87398e-07
)
;
    }
    inandouthalf42
    {
        type            cyclic;
        value           nonuniform List<scalar> 
50
(
8.87398e-07
8.87398e-07
8.87398e-07
8.87398e-07
8.87398e-07
8.87398e-07
8.87398e-07
8.87398e-07
8.87398e-07
8.87398e-07
8.87398e-07
8.87398e-07
8.87398e-07
8.87398e-07
8.87398e-07
8.87398e-07
8.87398e-07
8.87398e-07
8.87398e-07
8.87398e-07
8.87398e-07
8.87398e-07
8.87398e-07
8.87398e-07
8.87398e-07
8.87398e-07
8.87398e-07
8.87398e-07
8.87398e-07
8.87398e-07
8.87398e-07
8.87398e-07
8.87398e-07
8.87398e-07
8.87398e-07
8.87398e-07
8.87398e-07
8.87398e-07
8.87398e-07
8.87398e-07
8.87398e-07
8.87398e-07
8.87398e-07
8.87398e-07
8.87398e-07
8.87398e-07
8.87398e-07
8.87398e-07
8.87398e-07
8.87398e-07
)
;
    }
    top
    {
        type            symmetryPlane;
        value           uniform 0;
    }
    walls
    {
        type            fixedValue;
        value           uniform 0;
    }
    frontAndBackPlanes
    {
        type            empty;
        value           nonuniform 0();
    }
}


// ************************************************************************* //
