/*--------------------------------*- C++ -*----------------------------------*\
| =========                 |                                                 |
| \\      /  F ield         | OpenFOAM: The Open Source CFD Toolbox           |
|  \\    /   O peration     | Version:  2.4.x                                 |
|   \\  /    A nd           | Web:      www.OpenFOAM.org                      |
|    \\/     M anipulation  |                                                 |
\*---------------------------------------------------------------------------*/
FoamFile
{
    version     2.0;
    format      ascii;
    class       volTensorField;
    location    "10.6";
    object      Tauf;
}
// * * * * * * * * * * * * * * * * * * * * * * * * * * * * * * * * * * * * * //

dimensions      [0 2 -2 0 0 0 0];

internalField   nonuniform List<tensor> 
360
(
(0 -5.27998e-07 0 -5.27998e-07 4.57408e-11 0 0 0 0)
(0 1.66693e-09 0 1.66693e-09 5.50153e-11 0 0 0 0)
(0 -3.84843e-12 0 -3.84843e-12 5.64778e-11 0 0 0 0)
(0 -2.96964e-10 0 -2.96964e-10 5.31265e-11 0 0 0 0)
(5.16988e-23 -1.27965e-10 0 -1.27965e-10 5.21575e-11 0 0 0 0)
(5.16988e-23 -7.18767e-11 0 -7.18767e-11 5.16673e-11 0 0 0 0)
(5.16988e-23 -9.07483e-11 0 -9.07483e-11 5.05725e-11 0 0 0 0)
(0 -1.02905e-10 0 -1.02905e-10 4.91651e-11 0 0 0 0)
(5.16988e-23 -1.04451e-10 0 -1.04451e-10 4.77888e-11 0 0 0 0)
(0 -1.05185e-10 0 -1.05185e-10 4.65357e-11 0 0 0 0)
(5.16988e-23 -1.05416e-10 0 -1.05416e-10 4.53865e-11 0 0 0 0)
(0 -1.05695e-10 0 -1.05695e-10 4.43168e-11 0 0 0 0)
(5.16988e-23 -1.06454e-10 0 -1.06454e-10 4.33259e-11 0 0 0 0)
(0 -1.07265e-10 0 -1.07265e-10 4.24222e-11 0 0 0 0)
(0 -1.08383e-10 0 -1.08383e-10 4.16165e-11 0 0 0 0)
(0 -1.09539e-10 0 -1.09539e-10 4.09154e-11 0 0 0 0)
(0 -1.10467e-10 0 -1.10467e-10 4.0318e-11 0 0 0 0)
(1.03398e-22 -1.11322e-10 0 -1.11322e-10 3.98192e-11 0 0 0 0)
(0 -1.12642e-10 0 -1.12642e-10 3.94171e-11 0 0 0 0)
(0 -1.13586e-10 0 -1.13586e-10 3.91066e-11 0 0 0 0)
(0 -1.14583e-10 0 -1.14583e-10 3.88816e-11 0 0 0 0)
(5.16988e-23 -1.16013e-10 0 -1.16013e-10 3.87403e-11 0 0 0 0)
(0 -1.17075e-10 0 -1.17075e-10 3.86764e-11 0 0 0 0)
(0 -1.18313e-10 0 -1.18313e-10 3.86836e-11 0 0 0 0)
(0 -1.19591e-10 0 -1.19591e-10 3.87558e-11 0 0 0 0)
(5.16988e-23 -1.20646e-10 0 -1.20646e-10 3.88855e-11 0 0 0 0)
(0 -1.2207e-10 0 -1.2207e-10 3.90688e-11 0 0 0 0)
(0 -1.23554e-10 0 -1.23554e-10 3.93017e-11 0 0 0 0)
(0 -1.24647e-10 0 -1.24647e-10 3.95764e-11 0 0 0 0)
(0 -1.25916e-10 0 -1.25916e-10 3.98861e-11 0 0 0 0)
(0 -1.27655e-10 0 -1.27655e-10 4.023e-11 0 0 0 0)
(0 -1.28618e-10 0 -1.28618e-10 4.05997e-11 0 0 0 0)
(0 -1.30248e-10 0 -1.30248e-10 4.09934e-11 0 0 0 0)
(0 -1.31915e-10 0 -1.31915e-10 4.14089e-11 0 0 0 0)
(0 -1.33016e-10 0 -1.33016e-10 4.1838e-11 0 0 0 0)
(-5.16988e-23 -1.34541e-10 0 -1.34541e-10 4.22783e-11 0 0 0 0)
(0 -1.36007e-10 0 -1.36007e-10 4.27269e-11 0 0 0 0)
(0 -1.38127e-10 0 -1.38127e-10 4.31877e-11 0 0 0 0)
(0 -1.38898e-10 0 -1.38898e-10 4.36489e-11 0 0 0 0)
(0 -1.40647e-10 0 -1.40647e-10 4.41098e-11 0 0 0 0)
(0 -1.42975e-10 0 -1.42975e-10 4.45762e-11 0 0 0 0)
(0 -1.43554e-10 0 -1.43554e-10 4.50339e-11 0 0 0 0)
(-5.16988e-23 -1.4568e-10 0 -1.4568e-10 4.54882e-11 0 0 0 0)
(0 -1.47639e-10 0 -1.47639e-10 4.59413e-11 0 0 0 0)
(0 -1.48933e-10 0 -1.48933e-10 4.6386e-11 0 0 0 0)
(0 -1.51259e-10 0 -1.51259e-10 4.68261e-11 0 0 0 0)
(0 -1.5231e-10 0 -1.5231e-10 4.72502e-11 0 0 0 0)
(0 -1.53865e-10 0 -1.53865e-10 4.76574e-11 0 0 0 0)
(0 -1.56973e-10 0 -1.56973e-10 4.80654e-11 0 0 0 0)
(0 -1.58149e-10 0 -1.58149e-10 4.84621e-11 0 0 0 0)
(-1.03398e-22 -1.59643e-10 0 -1.59643e-10 4.88412e-11 0 0 0 0)
(0 -1.62079e-10 0 -1.62079e-10 4.92073e-11 0 0 0 0)
(0 -1.64073e-10 0 -1.64073e-10 4.95609e-11 0 0 0 0)
(0 -1.65699e-10 0 -1.65699e-10 4.98973e-11 0 0 0 0)
(0 -1.68124e-10 0 -1.68124e-10 5.02215e-11 0 0 0 0)
(0 -1.70144e-10 0 -1.70144e-10 5.05307e-11 0 0 0 0)
(0 -1.72077e-10 0 -1.72077e-10 5.08204e-11 0 0 0 0)
(0 -1.7477e-10 0 -1.7477e-10 5.10966e-11 0 0 0 0)
(0 -1.75961e-10 0 -1.75961e-10 5.13436e-11 0 0 0 0)
(0 -1.78955e-10 0 -1.78955e-10 5.15776e-11 0 0 0 0)
(0 -1.81346e-10 0 -1.81346e-10 5.17988e-11 0 0 0 0)
(0 -1.83384e-10 0 -1.83384e-10 5.20038e-11 0 0 0 0)
(0 -1.86182e-10 0 -1.86182e-10 5.21959e-11 0 0 0 0)
(0 -1.88328e-10 0 -1.88328e-10 5.2366e-11 0 0 0 0)
(0 -1.90767e-10 0 -1.90767e-10 5.25141e-11 0 0 0 0)
(0 -1.93405e-10 0 -1.93405e-10 5.26409e-11 0 0 0 0)
(0 -1.96413e-10 0 -1.96413e-10 5.27509e-11 0 0 0 0)
(0 -1.98923e-10 0 -1.98923e-10 5.28391e-11 0 0 0 0)
(0 -2.00957e-10 0 -2.00957e-10 5.28963e-11 0 0 0 0)
(0 -2.04235e-10 0 -2.04235e-10 5.29342e-11 0 0 0 0)
(0 -2.08112e-10 0 -2.08112e-10 5.29678e-11 0 0 0 0)
(0 -2.0992e-10 0 -2.0992e-10 5.29757e-11 0 0 0 0)
(0 -2.12879e-10 0 -2.12879e-10 5.29613e-11 0 0 0 0)
(0 -2.16633e-10 0 -2.16633e-10 5.29322e-11 0 0 0 0)
(0 -2.19906e-10 0 -2.19906e-10 5.28879e-11 0 0 0 0)
(0 -2.2303e-10 0 -2.2303e-10 5.28233e-11 0 0 0 0)
(0 -2.25886e-10 0 -2.25886e-10 5.27264e-11 0 0 0 0)
(0 -2.29691e-10 0 -2.29691e-10 5.26043e-11 0 0 0 0)
(0 -2.33443e-10 0 -2.33443e-10 5.24602e-11 0 0 0 0)
(0 -2.36823e-10 0 -2.36823e-10 5.22924e-11 0 0 0 0)
(0 -2.40502e-10 0 -2.40502e-10 5.21026e-11 0 0 0 0)
(0 -2.44653e-10 0 -2.44653e-10 5.18972e-11 0 0 0 0)
(0 -2.48614e-10 0 -2.48614e-10 5.1676e-11 0 0 0 0)
(0 -2.5271e-10 0 -2.5271e-10 5.144e-11 0 0 0 0)
(0 -2.56949e-10 0 -2.56949e-10 5.11865e-11 0 0 0 0)
(0 -2.61353e-10 0 -2.61353e-10 5.09136e-11 0 0 0 0)
(0 -2.65827e-10 0 -2.65827e-10 5.06182e-11 0 0 0 0)
(0 -2.7031e-10 0 -2.7031e-10 5.02965e-11 0 0 0 0)
(0 -2.7512e-10 0 -2.7512e-10 4.99494e-11 0 0 0 0)
(0 -2.80096e-10 0 -2.80096e-10 4.95789e-11 0 0 0 0)
(0 -2.85154e-10 0 -2.85154e-10 4.91872e-11 0 0 0 0)
(0 -2.9048e-10 0 -2.9048e-10 4.87784e-11 0 0 0 0)
(0 -2.9604e-10 0 -2.9604e-10 4.83559e-11 0 0 0 0)
(0 -3.01722e-10 0 -3.01722e-10 4.7921e-11 0 0 0 0)
(0 -3.07598e-10 0 -3.07598e-10 4.74738e-11 0 0 0 0)
(0 -3.13678e-10 0 -3.13678e-10 4.70133e-11 0 0 0 0)
(0 -3.19953e-10 0 -3.19953e-10 4.6538e-11 0 0 0 0)
(0 -3.26446e-10 0 -3.26446e-10 4.60469e-11 0 0 0 0)
(0 -3.332e-10 0 -3.332e-10 4.55403e-11 0 0 0 0)
(0 -3.40222e-10 0 -3.40222e-10 4.50197e-11 0 0 0 0)
(0 -3.47519e-10 0 -3.47519e-10 4.44878e-11 0 0 0 0)
(0 -3.55121e-10 0 -3.55121e-10 4.39486e-11 0 0 0 0)
(0 -3.63032e-10 0 -3.63032e-10 4.34065e-11 0 0 0 0)
(0 -3.71251e-10 0 -3.71251e-10 4.28663e-11 0 0 0 0)
(0 -3.79798e-10 0 -3.79798e-10 4.23333e-11 0 0 0 0)
(0 -3.8869e-10 0 -3.8869e-10 4.18131e-11 0 0 0 0)
(0 -3.97946e-10 0 -3.97946e-10 4.13113e-11 0 0 0 0)
(0 -4.07587e-10 0 -4.07587e-10 4.08339e-11 0 0 0 0)
(0 -4.17638e-10 0 -4.17638e-10 4.03864e-11 0 0 0 0)
(0 -4.28117e-10 0 -4.28117e-10 3.9973e-11 0 0 0 0)
(0 -4.3905e-10 0 -4.3905e-10 3.95961e-11 0 0 0 0)
(0 -4.50463e-10 0 -4.50463e-10 3.92553e-11 0 0 0 0)
(0 -4.62384e-10 0 -4.62384e-10 3.89463e-11 0 0 0 0)
(0 -4.7485e-10 0 -4.7485e-10 3.86604e-11 0 0 0 0)
(0 -4.87899e-10 0 -4.87899e-10 3.83837e-11 0 0 0 0)
(0 -5.0158e-10 0 -5.0158e-10 3.8098e-11 0 0 0 0)
(0 -5.15948e-10 0 -5.15948e-10 3.77815e-11 0 0 0 0)
(0 -5.3107e-10 0 -5.3107e-10 3.7411e-11 0 0 0 0)
(0 -5.47022e-10 0 -5.47022e-10 3.69658e-11 0 0 0 0)
(0 -5.63886e-10 0 -5.63886e-10 3.64321e-11 0 0 0 0)
(0 -5.81744e-10 0 -5.81744e-10 3.58086e-11 0 0 0 0)
(0 -6.00671e-10 0 -6.00671e-10 3.51124e-11 0 0 0 0)
(0 -6.20728e-10 0 -6.20728e-10 3.43845e-11 0 0 0 0)
(0 -6.41982e-10 0 -6.41982e-10 3.36946e-11 0 0 0 0)
(0 -6.64549e-10 0 -6.64549e-10 3.31441e-11 0 0 0 0)
(0 -6.88649e-10 0 -6.88649e-10 3.28676e-11 0 0 0 0)
(0 -7.14617e-10 0 -7.14617e-10 3.30309e-11 0 0 0 0)
(0 -7.42791e-10 0 -7.42791e-10 3.3824e-11 0 0 0 0)
(0 -7.7322e-10 0 -7.7322e-10 3.54435e-11 0 0 0 0)
(0 -8.05455e-10 0 -8.05455e-10 3.8056e-11 0 0 0 0)
(0 -8.3907e-10 0 -8.3907e-10 4.17318e-11 0 0 0 0)
(0 -8.75455e-10 0 -8.75455e-10 4.63378e-11 0 0 0 0)
(0 -9.18992e-10 0 -9.18992e-10 5.1361e-11 0 0 0 0)
(0 -9.73182e-10 0 -9.73182e-10 5.56194e-11 0 0 0 0)
(0 -1.03398e-09 0 -1.03398e-09 5.70038e-11 0 0 0 0)
(0 -1.09458e-09 0 -1.09458e-09 5.29186e-11 0 0 0 0)
(0 -1.16317e-09 0 -1.16317e-09 4.20121e-11 0 0 0 0)
(0 -1.26992e-09 0 -1.26992e-09 2.61603e-11 0 0 0 0)
(0 -1.4359e-09 0 -1.4359e-09 1.03051e-11 0 0 0 0)
(0 -1.59802e-09 0 -1.59802e-09 -1.4599e-12 0 0 0 0)
(0 -1.80387e-09 0 -1.80387e-09 -6.62044e-11 0 0 0 0)
(0 -8.03398e-09 0 -8.03398e-09 7.04569e-10 0 0 0 0)
(0 -6.71576e-09 0 -6.71576e-09 2.69525e-09 0 0 0 0)
(0 -1.83665e-09 0 -1.83665e-09 4.47661e-09 0 0 0 0)
(0 -5.53961e-09 0 -5.53961e-09 5.68238e-09 0 0 0 0)
(0 -7.48236e-09 0 -7.48236e-09 7.57535e-09 0 0 0 0)
(0 -1.04051e-08 0 -1.04051e-08 1.07349e-08 0 0 0 0)
(0 -3.9156e-08 0 -3.9156e-08 1.49971e-08 0 0 0 0)
(0 -1.01285e-05 0 -1.01285e-05 -1.8745e-08 0 0 0 0)
(0 -0.000152834 0 -0.000152834 -5.10766e-08 0 0 0 0)
(0 -0.000741594 0 -0.000741594 1.7983e-06 0 0 0 0)
(0 -0.00083787 0 -0.00083787 3.60163e-06 0 0 0 0)
(0 -0.000623234 0 -0.000623234 -2.34308e-06 0 0 0 0)
(0 -0.000414078 0 -0.000414078 -4.75441e-08 0 0 0 0)
(0 -0.000221019 0 -0.000221019 -1.73487e-06 0 0 0 0)
(0 -4.5278e-05 0 -4.5278e-05 -2.48714e-06 0 0 0 0)
(0 0.000117631 0 0.000117631 -2.91954e-06 0 0 0 0)
(0 0.000270579 0 0.000270579 -3.16923e-06 0 0 0 0)
(0 0.000414927 0 0.000414927 -3.32251e-06 0 0 0 0)
(0 0.000551465 0 0.000551465 -3.4108e-06 0 0 0 0)
(0 0.000680724 0 0.000680724 -3.45184e-06 0 0 0 0)
(0 0.000803075 0 0.000803075 -3.45838e-06 0 0 0 0)
(0 0.000918824 0 0.000918824 -3.43947e-06 0 0 0 0)
(0 0.00102824 0 0.00102824 -3.40131e-06 0 0 0 0)
(0 0.00113158 0 0.00113158 -3.34821e-06 0 0 0 0)
(0 0.00122908 0 0.00122908 -3.28331e-06 0 0 0 0)
(0 0.00132096 0 0.00132096 -3.20902e-06 0 0 0 0)
(0 0.00140744 0 0.00140744 -3.12723e-06 0 0 0 0)
(0 0.00148875 0 0.00148875 -3.03947e-06 0 0 0 0)
(0 0.00156507 0 0.00156507 -2.94703e-06 0 0 0 0)
(0 0.00163662 0 0.00163662 -2.85098e-06 0 0 0 0)
(0 0.00170356 0 0.00170356 -2.75225e-06 0 0 0 0)
(0 0.00176609 0 0.00176609 -2.65163e-06 0 0 0 0)
(0 0.00182438 0 0.00182438 -2.54983e-06 0 0 0 0)
(0 0.00187859 0 0.00187859 -2.44745e-06 0 0 0 0)
(0 0.00192887 0 0.00192887 -2.34506e-06 0 0 0 0)
(0 0.00197539 0 0.00197539 -2.2431e-06 0 0 0 0)
(0 0.00201829 0 0.00201829 -2.14202e-06 0 0 0 0)
(0 0.0020577 0 0.0020577 -2.04217e-06 0 0 0 0)
(0 0.00209376 0 0.00209376 -1.94387e-06 0 0 0 0)
(0 0.00212659 0 0.00212659 -1.8474e-06 0 0 0 0)
(0 0.00215632 0 0.00215632 -1.75301e-06 0 0 0 0)
(0 0.00218307 0 0.00218307 -1.66088e-06 0 0 0 0)
(0 0.00220694 0 0.00220694 -1.5712e-06 0 0 0 0)
(0 0.00222804 0 0.00222804 -1.4841e-06 0 0 0 0)
(0 0.00224647 0 0.00224647 -1.3997e-06 0 0 0 0)
(0 0.00226235 0 0.00226235 -1.31809e-06 0 0 0 0)
(0 0.00227575 0 0.00227575 -1.23932e-06 0 0 0 0)
(0 0.00228678 0 0.00228678 -1.16346e-06 0 0 0 0)
(0 0.00229551 0 0.00229551 -1.09051e-06 0 0 0 0)
(0 0.00230204 0 0.00230204 -1.02048e-06 0 0 0 0)
(0 0.00230645 0 0.00230645 -9.53373e-07 0 0 0 0)
(0 0.00230881 0 0.00230881 -8.89154e-07 0 0 0 0)
(0 0.0023092 0 0.0023092 -8.27786e-07 0 0 0 0)
(0 0.00230769 0 0.00230769 -7.69217e-07 0 0 0 0)
(0 0.00230436 0 0.00230436 -7.13387e-07 0 0 0 0)
(0 0.00229926 0 0.00229926 -6.60232e-07 0 0 0 0)
(0 0.00229247 0 0.00229247 -6.09684e-07 0 0 0 0)
(0 0.00228405 0 0.00228405 -5.61681e-07 0 0 0 0)
(0 0.00227408 0 0.00227408 -5.16172e-07 0 0 0 0)
(0 0.00226269 0 0.00226269 -4.73112e-07 0 0 0 0)
(0 0.00224993 0 0.00224993 -4.32101e-07 0 0 0 0)
(1.96789e-18 0.00223579 0 0.00223579 -3.92836e-07 0 0 0 0)
(0 0.00222026 0 0.00222026 -3.55492e-07 0 0 0 0)
(0 0.00220332 0 0.00220332 -3.20253e-07 0 0 0 0)
(-9.28563e-19 0.00218491 0 0.00218491 -2.87299e-07 0 0 0 0)
(0 0.00216497 0 0.00216497 -2.56785e-07 0 0 0 0)
(0 0.00214343 0 0.00214343 -2.28815e-07 0 0 0 0)
(0 0.00212025 0 0.00212025 -2.03418e-07 0 0 0 0)
(-2.13306e-19 0.00209535 0 0.00209535 -1.80533e-07 0 0 0 0)
(0 0.00206869 0 0.00206869 -1.60006e-07 0 0 0 0)
(0 0.00204021 0 0.00204021 -1.416e-07 0 0 0 0)
(0 0.00200987 0 0.00200987 -1.25031e-07 0 0 0 0)
(3.88084e-19 0.0019776 0 0.0019776 -1.10004e-07 0 0 0 0)
(0 0.00194337 0 0.00194337 -9.62574e-08 0 0 0 0)
(0 0.00190713 0 0.00190713 -8.35805e-08 0 0 0 0)
(0 0.00186886 0 0.00186886 -7.18282e-08 0 0 0 0)
(0 0.0018285 0 0.0018285 -6.09271e-08 0 0 0 0)
(0 0.00178605 0 0.00178605 -5.08762e-08 0 0 0 0)
(-2.63076e-18 0.00174146 0 0.00174146 -4.17355e-08 0 0 0 0)
(0 0.00169473 0 0.00169473 -3.35969e-08 0 0 0 0)
(-2.47049e-18 0.00164585 0 0.00164585 -2.65435e-08 0 0 0 0)
(0 0.00159481 0 0.00159481 -2.06115e-08 0 0 0 0)
(-2.30963e-18 0.00154163 0 0.00154163 -1.57699e-08 0 0 0 0)
(0 0.00148633 0 0.00148633 -1.19236e-08 0 0 0 0)
(0 0.00142895 0 0.00142895 -8.93636e-09 0 0 0 0)
(0 0.00136955 0 0.00136955 -6.65356e-09 0 0 0 0)
(0 0.0013082 0 0.0013082 -4.9294e-09 0 0 0 0)
(3.81734e-18 0.00124501 0 0.00124501 -3.63469e-09 0 0 0 0)
(3.65903e-18 0.00118009 0 0.00118009 -2.66592e-09 0 0 0 0)
(0 0.00111359 0 0.00111359 -1.94154e-09 0 0 0 0)
(0 0.00104571 0 0.00104571 -1.40484e-09 0 0 0 0)
(0 0.000976667 0 0.000976667 -1.01058e-09 0 0 0 0)
(0 0.000906722 0 0.000906722 -7.01187e-10 0 0 0 0)
(0 0.000836187 0 0.000836187 -3.59522e-10 0 0 0 0)
(0 0.000765423 0 0.000765423 -4.80263e-10 0 0 0 0)
(0 0.000694845 0 0.000694845 -1.01978e-09 0 0 0 0)
(0 0.000624843 0 0.000624843 -8.68047e-10 0 0 0 0)
(0 0.000555933 0 0.000555933 -3.19768e-10 0 0 0 0)
(0 0.000488745 0 0.000488745 -5.19602e-11 0 0 0 0)
(0 0.000423852 0 0.000423852 7.18477e-11 0 0 0 0)
(0 0.000361834 0 0.000361834 1.16244e-10 0 0 0 0)
(0 0.000303238 0 0.000303238 1.17548e-10 0 0 0 0)
(-3.67661e-18 0.000248553 0 0.000248553 9.85874e-11 0 0 0 0)
(3.52707e-18 0.000198166 0 0.000198166 7.37862e-11 0 0 0 0)
(0 0.000152337 0 0.000152337 5.08291e-11 0 0 0 0)
(0 0.000111181 0 0.000111181 3.23139e-11 0 0 0 0)
(-3.18201e-18 7.46767e-05 0 7.46767e-05 1.92377e-11 0 0 0 0)
(0 4.26792e-05 0 4.26792e-05 1.04671e-11 0 0 0 0)
(0 1.49563e-05 0 1.49563e-05 6.95322e-12 0 0 0 0)
(-2.93031e-18 -8.77912e-06 0 -8.77912e-06 4.46528e-12 0 0 0 0)
(0 -2.88375e-05 0 -2.88375e-05 -6.71238e-13 0 0 0 0)
(0 -4.55289e-05 0 -4.55289e-05 -1.64281e-12 0 0 0 0)
(0 -5.91475e-05 0 -5.91475e-05 6.05948e-14 0 0 0 0)
(0 -6.99641e-05 0 -6.99641e-05 1.26467e-13 0 0 0 0)
(0 -7.82234e-05 0 -7.82234e-05 2.40045e-14 0 0 0 0)
(0 -8.41463e-05 0 -8.41463e-05 2.93375e-15 0 0 0 0)
(0 -8.7933e-05 0 -8.7933e-05 8.30854e-15 0 0 0 0)
(0 -8.97674e-05 0 -8.97674e-05 1.08843e-14 0 0 0 0)
(0 -8.98215e-05 0 -8.98215e-05 1.0687e-14 0 0 0 0)
(0 -8.82586e-05 0 -8.82586e-05 1.01359e-14 0 0 0 0)
(0 -8.52376e-05 0 -8.52376e-05 9.41323e-15 0 0 0 0)
(0 -8.09158e-05 0 -8.09158e-05 6.96653e-15 0 0 0 0)
(0 -7.54519e-05 0 -7.54519e-05 4.03571e-15 0 0 0 0)
(0 -6.90096e-05 0 -6.90096e-05 1.7293e-14 0 0 0 0)
(0 -6.17606e-05 0 -6.17606e-05 9.3048e-14 0 0 0 0)
(1.14073e-18 -5.38884e-05 0 -5.38884e-05 -4.18939e-13 0 0 0 0)
(0 -4.55927e-05 0 -4.55927e-05 9.12367e-13 0 0 0 0)
(0 -3.7094e-05 0 -3.7094e-05 -1.38353e-12 0 0 0 0)
(0 -2.86395e-05 0 -2.86395e-05 1.72205e-12 0 0 0 0)
(0 -2.05094e-05 0 -2.05094e-05 -1.8236e-12 0 0 0 0)
(0 -1.30183e-05 0 -1.30183e-05 1.65259e-12 0 0 0 0)
(0 -6.55032e-06 0 -6.55032e-06 -1.20374e-12 0 0 0 0)
(0 -1.51712e-06 0 -1.51712e-06 5.22585e-13 0 0 0 0)
(0 -8.40862e-08 0 -8.40862e-08 -1.05784e-13 0 0 0 0)
(0 -3.47825e-09 0 -3.47825e-09 6.37209e-14 0 0 0 0)
(0 -4.99713e-11 0 -4.99713e-11 -6.18571e-14 0 0 0 0)
(0 -2.2378e-13 0 -2.2378e-13 6.06708e-14 0 0 0 0)
(0 1.97624e-13 0 1.97624e-13 -5.94314e-14 0 0 0 0)
(0 1.3724e-13 0 1.3724e-13 5.83501e-14 0 0 0 0)
(0 9.25901e-14 0 9.25901e-14 -5.72069e-14 0 0 0 0)
(0 6.21173e-14 0 6.21173e-14 5.61905e-14 0 0 0 0)
(0 4.10553e-14 0 4.10553e-14 -5.51198e-14 0 0 0 0)
(0 2.71346e-14 0 2.71346e-14 5.41606e-14 0 0 0 0)
(0 1.76879e-14 0 1.76879e-14 -5.31314e-14 0 0 0 0)
(0 1.13236e-14 0 1.13236e-14 5.22095e-14 0 0 0 0)
(1.88065e-20 7.29464e-15 0 7.29464e-15 -5.11945e-14 0 0 0 0)
(0 4.58084e-15 0 4.58084e-15 5.03089e-14 0 0 0 0)
(0 2.86798e-15 0 2.86798e-15 -4.93192e-14 0 0 0 0)
(0 1.73536e-15 0 1.73536e-15 4.84314e-14 0 0 0 0)
(0 1.0319e-15 0 1.0319e-15 -4.74484e-14 0 0 0 0)
(0 7.50855e-16 0 7.50855e-16 4.65651e-14 0 0 0 0)
(0 5.12183e-16 0 5.12183e-16 -4.55788e-14 0 0 0 0)
(0 2.09656e-16 0 2.09656e-16 4.46887e-14 0 0 0 0)
(0 2.7816e-17 0 2.7816e-17 -4.36973e-14 0 0 0 0)
(0 -1.12676e-16 0 -1.12676e-16 4.27915e-14 0 0 0 0)
(0 8.28951e-17 0 8.28951e-17 -4.18187e-14 0 0 0 0)
(0 2.01383e-16 0 2.01383e-16 4.08627e-14 0 0 0 0)
(0 2.29303e-17 0 2.29303e-17 -3.98789e-14 0 0 0 0)
(-1.44831e-20 -1.38744e-16 0 -1.38744e-16 3.89135e-14 0 0 0 0)
(0 1.48053e-17 0 1.48053e-17 -3.79093e-14 0 0 0 0)
(0 2.82599e-17 0 2.82599e-17 3.69154e-14 0 0 0 0)
(0 -1.35915e-17 0 -1.35915e-17 -3.58955e-14 0 0 0 0)
(0 1.60287e-16 0 1.60287e-16 3.48754e-14 0 0 0 0)
(0 -1.51289e-16 0 -1.51289e-16 -3.38306e-14 0 0 0 0)
(0 -2.70071e-16 0 -2.70071e-16 3.27822e-14 0 0 0 0)
(0 2.11254e-16 0 2.11254e-16 -3.17094e-14 0 0 0 0)
(0 3.15098e-16 0 3.15098e-16 3.06264e-14 0 0 0 0)
(0 -8.23852e-17 0 -8.23852e-17 -2.95207e-14 0 0 0 0)
(0 -2.73155e-16 0 -2.73155e-16 2.84273e-14 0 0 0 0)
(0 -1.53591e-16 0 -1.53591e-16 -3.12667e-14 0 0 0 0)
(0 -5.34822e-17 0 -5.34822e-17 3.08728e-14 0 0 0 0)
(0 5.13613e-17 0 5.13613e-17 -3.05055e-14 0 0 0 0)
(0 2.27508e-17 0 2.27508e-17 3.01367e-14 0 0 0 0)
(0 3.24056e-17 0 3.24056e-17 -2.97655e-14 0 0 0 0)
(0 5.42697e-17 0 5.42697e-17 2.93906e-14 0 0 0 0)
(0 1.24209e-17 0 1.24209e-17 -2.90164e-14 0 0 0 0)
(0 -7.00787e-18 0 -7.00787e-18 2.86362e-14 0 0 0 0)
(0 -3.47383e-17 0 -3.47383e-17 -2.82583e-14 0 0 0 0)
(0 -1.18806e-16 0 -1.18806e-16 2.78707e-14 0 0 0 0)
(0 -5.53946e-17 0 -5.53946e-17 -2.74887e-14 0 0 0 0)
(0 1.23419e-16 0 1.23419e-16 2.7095e-14 0 0 0 0)
(0 6.13371e-17 0 6.13371e-17 -2.67075e-14 0 0 0 0)
(0 -4.44692e-17 0 -4.44692e-17 2.63059e-14 0 0 0 0)
(0 1.11901e-17 0 1.11901e-17 -2.5913e-14 0 0 0 0)
(0 -1.94884e-18 0 -1.94884e-18 2.55017e-14 0 0 0 0)
(0 1.27353e-17 0 1.27353e-17 -2.5105e-14 0 0 0 0)
(0 2.93153e-17 0 2.93153e-17 2.46746e-14 0 0 0 0)
(0 -4.94621e-17 0 -4.94621e-17 -2.42932e-14 0 0 0 0)
(0 1.14978e-17 0 1.14978e-17 2.38253e-14 0 0 0 0)
(0 3.01127e-17 0 3.01127e-17 -2.34537e-14 0 0 0 0)
(0 -5.42531e-17 0 -5.42531e-17 2.29702e-14 0 0 0 0)
(0 -4.16237e-17 0 -4.16237e-17 -2.25852e-14 0 0 0 0)
(0 5.37039e-17 0 5.37039e-17 2.20925e-14 0 0 0 0)
(0 1.29073e-17 0 1.29073e-17 -2.1683e-14 0 0 0 0)
(0 3.20648e-17 0 3.20648e-17 2.11873e-14 0 0 0 0)
(0 4.84926e-17 0 4.84926e-17 -2.07611e-14 0 0 0 0)
(0 -4.02539e-17 0 -4.02539e-17 2.02427e-14 0 0 0 0)
(0 -8.97954e-17 0 -8.97954e-17 -1.97895e-14 0 0 0 0)
(0 -1.54762e-16 0 -1.54762e-16 1.92742e-14 0 0 0 0)
(0 -3.78654e-16 0 -3.78654e-16 -1.87776e-14 0 0 0 0)
(0 -6.16316e-17 0 -6.16316e-17 1.82545e-14 0 0 0 0)
(0 3.61342e-16 0 3.61342e-16 -1.77061e-14 0 0 0 0)
(0 2.08727e-16 0 2.08727e-16 1.71782e-14 0 0 0 0)
(0 6.86957e-17 0 6.86957e-17 -1.66032e-14 0 0 0 0)
(0 1.97068e-17 0 1.97068e-17 1.60187e-14 0 0 0 0)
(0 4.08561e-17 0 4.08561e-17 -1.54018e-14 0 0 0 0)
(0 9.35376e-18 0 9.35376e-18 1.48079e-14 0 0 0 0)
(0 -2.41868e-17 0 -2.41868e-17 -1.41036e-14 0 0 0 0)
(0 -7.7573e-17 0 -7.7573e-17 1.34795e-14 0 0 0 0)
(0 1.70135e-17 0 1.70135e-17 -1.26796e-14 0 0 0 0)
(0 1.33921e-16 0 1.33921e-16 1.20118e-14 0 0 0 0)
(0 8.20762e-17 0 8.20762e-17 -1.10723e-14 0 0 0 0)
(0 -3.85698e-17 0 -3.85698e-17 1.0324e-14 0 0 0 0)
(0 -8.62419e-17 0 -8.62419e-17 -9.25127e-15 0 0 0 0)
(0 -8.86407e-17 0 -8.86407e-17 8.27377e-15 0 0 0 0)
(0 -5.07293e-17 0 -5.07293e-17 -6.9763e-15 0 0 0 0)
(0 4.51078e-17 0 4.51078e-17 5.40383e-15 0 0 0 0)
(0 -7.62859e-17 0 -7.62859e-17 -3.70765e-15 0 0 0 0)
(0 -1.08837e-16 0 -1.08837e-16 1.30797e-15 0 0 0 0)
)
;

boundaryField
{
    inandouthalf11
    {
        type            cyclic;
    }
    inandouthalf12
    {
        type            cyclic;
    }
    inandouthalf21
    {
        type            cyclic;
    }
    inandouthalf22
    {
        type            cyclic;
    }
    inandouthalf31
    {
        type            cyclic;
    }
    inandouthalf32
    {
        type            cyclic;
    }
    inandouthalf41
    {
        type            cyclic;
    }
    inandouthalf42
    {
        type            cyclic;
    }
    top
    {
        type            symmetryPlane;
    }
    walls
    {
        type            zeroGradient;
    }
    frontAndBackPlanes
    {
        type            empty;
    }
}


// ************************************************************************* //
