/*--------------------------------*- C++ -*----------------------------------*\
| =========                 |                                                 |
| \\      /  F ield         | OpenFOAM: The Open Source CFD Toolbox           |
|  \\    /   O peration     | Version:  2.4.x                                 |
|   \\  /    A nd           | Web:      www.OpenFOAM.org                      |
|    \\/     M anipulation  |                                                 |
\*---------------------------------------------------------------------------*/
FoamFile
{
    version     2.0;
    format      ascii;
    class       volScalarField;
    location    "10.6";
    object      Theta_0;
}
// * * * * * * * * * * * * * * * * * * * * * * * * * * * * * * * * * * * * * //

dimensions      [0 2 -2 0 0 0 0];

internalField   nonuniform List<scalar> 
360
(
6.6614e-21
6.66146e-21
6.66144e-21
6.66143e-21
6.66144e-21
6.66143e-21
6.66143e-21
6.66143e-21
6.66143e-21
6.66143e-21
6.66142e-21
6.66142e-21
6.66142e-21
6.66142e-21
6.66142e-21
6.66142e-21
6.66141e-21
6.66141e-21
6.66141e-21
6.66141e-21
6.66141e-21
6.66141e-21
6.66141e-21
6.66141e-21
6.66141e-21
6.66141e-21
6.66141e-21
6.66141e-21
6.66141e-21
6.66141e-21
6.66141e-21
6.66141e-21
6.66141e-21
6.66141e-21
6.66141e-21
6.66141e-21
6.66141e-21
6.66141e-21
6.6614e-21
6.6614e-21
6.6614e-21
6.6614e-21
6.6614e-21
6.6614e-21
6.6614e-21
6.6614e-21
6.6614e-21
6.6614e-21
6.6614e-21
6.6614e-21
6.6614e-21
6.6614e-21
6.6614e-21
6.6614e-21
6.6614e-21
6.6614e-21
6.6614e-21
6.6614e-21
6.6614e-21
6.6614e-21
6.6614e-21
6.6614e-21
6.6614e-21
6.6614e-21
6.6614e-21
6.6614e-21
6.6614e-21
6.66139e-21
6.66139e-21
6.66139e-21
6.66139e-21
6.66139e-21
6.66139e-21
6.66139e-21
6.66139e-21
6.66139e-21
6.66139e-21
6.66138e-21
6.66138e-21
6.66138e-21
6.66138e-21
6.66138e-21
6.66138e-21
6.66138e-21
6.66137e-21
6.66137e-21
6.66137e-21
6.66137e-21
6.66137e-21
6.66137e-21
6.66136e-21
6.66136e-21
6.66136e-21
6.66136e-21
6.66136e-21
6.66135e-21
6.66135e-21
6.66135e-21
6.66135e-21
6.66134e-21
6.66134e-21
6.66134e-21
6.66134e-21
6.66134e-21
6.66133e-21
6.66133e-21
6.66133e-21
6.66133e-21
6.66132e-21
6.66132e-21
6.66132e-21
6.66132e-21
6.66131e-21
6.66131e-21
6.66131e-21
6.66131e-21
6.6613e-21
6.6613e-21
6.6613e-21
6.66129e-21
6.66129e-21
6.66129e-21
6.66128e-21
6.66128e-21
6.66128e-21
6.66127e-21
6.66127e-21
1.28332e-20
3.28562e-20
8.28384e-20
2.02122e-19
4.76301e-19
1.08312e-18
2.37914e-18
5.07026e-18
1.05998e-17
2.23567e-17
5.07266e-17
1.35829e-16
4.4769e-16
1.74149e-15
7.9077e-15
5.0991e-14
3.83386e-13
3.79452e-12
5.69396e-11
1.27764e-09
6.99485e-08
3.81549e-06
0.000104813
0.000697751
0.00111443
0.00132606
0.0015172
0.0017021
0.00188146
0.00205537
0.00222384
0.0023868
0.00254425
0.00269615
0.00284247
0.00298318
0.00311828
0.00324779
0.00337169
0.00349003
0.00360284
0.00371017
0.00381207
0.00390862
0.00399988
0.00408594
0.00416688
0.00424279
0.00431375
0.00437987
0.00444122
0.0044979
0.00455
0.00459761
0.00464081
0.00467969
0.00471433
0.00474482
0.00477123
0.00479363
0.00481212
0.00482677
0.00483765
0.00484483
0.00484841
0.00484844
0.00484502
0.00483822
0.00482813
0.00481483
0.00479841
0.00477896
0.00475656
0.00473133
0.00470307
0.00467145
0.0046364
0.00459784
0.00455569
0.00450989
0.00446034
0.00440698
0.00434971
0.00428847
0.00422317
0.00415371
0.00407999
0.00400191
0.00391935
0.00383217
0.00374023
0.00364337
0.00354141
0.00343412
0.00332126
0.00320256
0.00307766
0.00294618
0.0028076
0.00266135
0.00250668
0.00234264
0.00216805
0.00198128
0.00178014
0.0015614
0.00132003
0.00104717
0.000723445
0
0
0
0
0
0
0
0
0
0
0
0
0
0
0
0
0
0
0
0
0
0
0
0
0
0
0
0
0
0
0
0
0
0
0
0
0
0
0
0
0
0
0
0
0
0
0
0
0
0
0
0
0
0
0
0
0
0
0
0
0
0
0
0
0
0
0
0
0
0
0
0
0
0
0
0
0
0
0
0
0
0
0
0
0
0
0
0
0
0
0
0
0
0
0
0
0
0
0
0
0
0
0
0
0
0
0
0
0
0
0
0
0
0
0
0
0
0
0
0
0
0
0
0
)
;

boundaryField
{
    inandouthalf11
    {
        type            cyclic;
    }
    inandouthalf12
    {
        type            cyclic;
    }
    inandouthalf21
    {
        type            cyclic;
    }
    inandouthalf22
    {
        type            cyclic;
    }
    inandouthalf31
    {
        type            cyclic;
    }
    inandouthalf32
    {
        type            cyclic;
    }
    inandouthalf41
    {
        type            cyclic;
    }
    inandouthalf42
    {
        type            cyclic;
    }
    top
    {
        type            symmetryPlane;
    }
    walls
    {
        type            zeroGradient;
    }
    frontAndBackPlanes
    {
        type            empty;
    }
}


// ************************************************************************* //
