/*--------------------------------*- C++ -*----------------------------------*\
| =========                 |                                                 |
| \\      /  F ield         | OpenFOAM: The Open Source CFD Toolbox           |
|  \\    /   O peration     | Version:  2.4.x                                 |
|   \\  /    A nd           | Web:      www.OpenFOAM.org                      |
|    \\/     M anipulation  |                                                 |
\*---------------------------------------------------------------------------*/
FoamFile
{
    version     2.0;
    format      ascii;
    class       volVectorField;
    location    "10.6";
    object      U;
}
// * * * * * * * * * * * * * * * * * * * * * * * * * * * * * * * * * * * * * //

dimensions      [0 1 -1 0 0 0 0];

internalField   nonuniform List<vector> 
360
(
(-0.000103011 1.96477e-09 0)
(-0.000102213 -4.19569e-10 0)
(-0.000102114 -3.70663e-10 0)
(-0.000102217 -9.66076e-12 0)
(-0.000102267 3.29192e-11 0)
(-0.000102284 -2.14692e-11 0)
(-0.000102306 -3.97023e-11 0)
(-0.000102333 -3.58292e-11 0)
(-0.00010236 -3.11902e-11 0)
(-0.000102388 -2.83822e-11 0)
(-0.000102415 -2.63221e-11 0)
(-0.000102443 -2.45818e-11 0)
(-0.000102471 -2.258e-11 0)
(-0.000102499 -2.02584e-11 0)
(-0.000102527 -1.76763e-11 0)
(-0.000102555 -1.50185e-11 0)
(-0.000102584 -1.24844e-11 0)
(-0.000102613 -1.00684e-11 0)
(-0.000102642 -7.76953e-12 0)
(-0.000102672 -5.46827e-12 0)
(-0.000102702 -3.47154e-12 0)
(-0.000102732 -1.3942e-12 0)
(-0.000102762 4.81844e-13 0)
(-0.000102793 2.15559e-12 0)
(-0.000102824 3.70031e-12 0)
(-0.000102855 5.10882e-12 0)
(-0.000102887 6.34921e-12 0)
(-0.000102919 7.59837e-12 0)
(-0.000102951 8.55834e-12 0)
(-0.000102983 9.40902e-12 0)
(-0.000103016 1.01292e-11 0)
(-0.00010305 1.09995e-11 0)
(-0.000103083 1.1254e-11 0)
(-0.000103118 1.21092e-11 0)
(-0.000103152 1.2186e-11 0)
(-0.000103187 1.25893e-11 0)
(-0.000103222 1.2791e-11 0)
(-0.000103258 1.30036e-11 0)
(-0.000103294 1.334e-11 0)
(-0.00010333 1.28814e-11 0)
(-0.000103367 1.33461e-11 0)
(-0.000103404 1.32333e-11 0)
(-0.000103442 1.27648e-11 0)
(-0.00010348 1.32445e-11 0)
(-0.000103518 1.28712e-11 0)
(-0.000103557 1.26131e-11 0)
(-0.000103597 1.25556e-11 0)
(-0.000103637 1.18922e-11 0)
(-0.000103677 1.19794e-11 0)
(-0.000103718 1.22336e-11 0)
(-0.000103759 1.11352e-11 0)
(-0.000103801 1.1244e-11 0)
(-0.000103843 1.07671e-11 0)
(-0.000103886 1.07676e-11 0)
(-0.00010393 9.85961e-12 0)
(-0.000103974 1.02968e-11 0)
(-0.000104018 9.17569e-12 0)
(-0.000104063 9.14669e-12 0)
(-0.000104109 8.68838e-12 0)
(-0.000104155 7.6898e-12 0)
(-0.000104202 8.44483e-12 0)
(-0.000104249 7.30228e-12 0)
(-0.000104297 7.43212e-12 0)
(-0.000104345 6.64139e-12 0)
(-0.000104395 6.27738e-12 0)
(-0.000104444 5.64646e-12 0)
(-0.000104495 5.37358e-12 0)
(-0.000104546 4.7967e-12 0)
(-0.000104598 4.23372e-12 0)
(-0.00010465 3.39677e-12 0)
(-0.000104704 3.6164e-12 0)
(-0.000104758 3.52893e-12 0)
(-0.000104813 1.89274e-12 0)
(-0.000104868 2.42677e-12 0)
(-0.000104925 1.64303e-12 0)
(-0.000104982 1.51691e-12 0)
(-0.00010504 3.08907e-13 0)
(-0.000105099 -2.46114e-13 0)
(-0.000105159 -6.55323e-13 0)
(-0.00010522 -1.05949e-12 0)
(-0.000105281 -1.83032e-12 0)
(-0.000105344 -2.06827e-12 0)
(-0.000105408 -2.32235e-12 0)
(-0.000105473 -2.79797e-12 0)
(-0.000105538 -3.17258e-12 0)
(-0.000105605 -3.76898e-12 0)
(-0.000105673 -4.26055e-12 0)
(-0.000105743 -4.98761e-12 0)
(-0.000105813 -5.6633e-12 0)
(-0.000105885 -6.17551e-12 0)
(-0.000105957 -6.65182e-12 0)
(-0.000106032 -7.10284e-12 0)
(-0.000106107 -7.38205e-12 0)
(-0.000106184 -7.6798e-12 0)
(-0.000106263 -8.01955e-12 0)
(-0.000106343 -8.3899e-12 0)
(-0.000106424 -8.79853e-12 0)
(-0.000106508 -9.2376e-12 0)
(-0.000106593 -9.66552e-12 0)
(-0.000106679 -1.0031e-11 0)
(-0.000106768 -1.03246e-11 0)
(-0.000106858 -1.05208e-11 0)
(-0.000106951 -1.05942e-11 0)
(-0.000107045 -1.05504e-11 0)
(-0.000107142 -1.03838e-11 0)
(-0.000107241 -1.00806e-11 0)
(-0.000107342 -9.63751e-12 0)
(-0.000107445 -9.05731e-12 0)
(-0.000107552 -8.354e-12 0)
(-0.00010766 -7.56423e-12 0)
(-0.000107772 -6.7477e-12 0)
(-0.000107886 -5.98761e-12 0)
(-0.000108004 -5.39024e-12 0)
(-0.000108124 -5.07816e-12 0)
(-0.000108248 -5.17877e-12 0)
(-0.000108375 -5.80676e-12 0)
(-0.000108506 -7.0387e-12 0)
(-0.000108641 -8.88048e-12 0)
(-0.000108779 -1.1234e-11 0)
(-0.000108922 -1.38693e-11 0)
(-0.00010907 -1.64065e-11 0)
(-0.000109222 -1.83139e-11 0)
(-0.000109379 -1.89262e-11 0)
(-0.000109541 -1.74814e-11 0)
(-0.000109709 -1.31695e-11 0)
(-0.000109883 -5.19244e-12 0)
(-0.000110064 7.16584e-12 0)
(-0.000110252 2.44322e-11 0)
(-0.000110447 4.6708e-11 0)
(-0.00011065 7.30899e-11 0)
(-0.000110862 1.00565e-10 0)
(-0.000111082 1.22321e-10 0)
(-0.000111313 1.25738e-10 0)
(-0.000111556 9.01233e-11 0)
(-0.000111815 -1.19476e-11 0)
(-0.000112089 -1.91486e-10 0)
(-0.000112379 -3.93659e-10 0)
(-0.00011269 -5.0339e-10 0)
(-0.000113035 -4.41527e-10 0)
(-0.000113432 -2.26617e-10 0)
(-0.000113862 -1.27707e-10 0)
(-0.000114365 -1.17034e-08 0)
(-0.000118038 1.49813e-07 0)
(-0.000118131 -3.0354e-09 0)
(-0.000119683 -9.33741e-09 0)
(-0.00012198 3.39131e-08 0)
(-0.000125011 1.23146e-07 0)
(-0.000130116 3.66444e-07 0)
(-0.000152997 8.73448e-07 0)
(-0.00957309 4.12796e-06 0)
(-0.117356 -5.40928e-06 0)
(-0.169487 6.69776e-05 0)
(-0.188115 -2.36378e-06 0)
(-0.195594 4.18706e-06 0)
(-0.19866 2.62539e-06 0)
(-0.199608 1.22828e-06 0)
(-0.199342 5.78386e-07 0)
(-0.198282 3.19268e-07 0)
(-0.196652 1.90586e-07 0)
(-0.19459 1.16601e-07 0)
(-0.192186 7.21251e-08 0)
(-0.189505 4.44322e-08 0)
(-0.186594 2.66503e-08 0)
(-0.183491 1.49715e-08 0)
(-0.180226 7.17231e-09 0)
(-0.176824 1.87235e-09 0)
(-0.173306 -1.73966e-09 0)
(-0.169689 -4.21568e-09 0)
(-0.165987 -5.89011e-09 0)
(-0.162215 -7.01115e-09 0)
(-0.158382 -7.72875e-09 0)
(-0.154499 -8.16316e-09 0)
(-0.150574 -8.38968e-09 0)
(-0.146615 -8.46315e-09 0)
(-0.142628 -8.42859e-09 0)
(-0.138619 -8.3134e-09 0)
(-0.134594 -8.14058e-09 0)
(-0.130556 -7.92559e-09 0)
(-0.126511 -7.68259e-09 0)
(-0.122462 -7.41903e-09 0)
(-0.118413 -7.14344e-09 0)
(-0.114366 -6.85995e-09 0)
(-0.110323 -6.57356e-09 0)
(-0.106289 -6.28652e-09 0)
(-0.102264 -6.00172e-09 0)
(-0.0982514 -5.72042e-09 0)
(-0.0942522 -5.44406e-09 0)
(-0.0902684 -5.17344e-09 0)
(-0.0863015 -4.90915e-09 0)
(-0.0823529 -4.65154e-09 0)
(-0.0784238 -4.40085e-09 0)
(-0.0745154 -4.15712e-09 0)
(-0.0706288 -3.92026e-09 0)
(-0.066765 -3.69021e-09 0)
(-0.0629248 -3.4667e-09 0)
(-0.0591092 -3.24943e-09 0)
(-0.0553189 -3.03806e-09 0)
(-0.0515546 -2.83225e-09 0)
(-0.0478171 -2.63208e-09 0)
(-0.0441068 -2.43753e-09 0)
(-0.0404244 -2.24582e-09 0)
(-0.0367332 -2.13307e-09 0)
(-0.0329967 -2.03144e-09 0)
(-0.0292152 -1.91754e-09 0)
(-0.025389 -1.80318e-09 0)
(-0.0215184 -1.69115e-09 0)
(-0.0176038 -1.58495e-09 0)
(-0.0136459 -1.48812e-09 0)
(-0.00964537 -1.40277e-09 0)
(-0.00560302 -1.32951e-09 0)
(-0.00151989 -1.26773e-09 0)
(0.00260285 -1.21572e-09 0)
(0.00676384 -1.17036e-09 0)
(0.0109615 -1.12728e-09 0)
(0.0151942 -1.08181e-09 0)
(0.0194597 -1.02982e-09 0)
(0.0237559 -9.68256e-10 0)
(0.0280802 -8.95958e-10 0)
(0.0324297 -8.14252e-10 0)
(0.0368012 -7.26433e-10 0)
(0.0411909 -6.37291e-10 0)
(0.0455947 -5.49894e-10 0)
(0.0500081 -4.67266e-10 0)
(0.0544259 -3.89459e-10 0)
(0.0588422 -3.19693e-10 0)
(0.0632506 -2.53541e-10 0)
(0.0676438 -2.08086e-10 0)
(0.0720138 -1.46072e-10 0)
(0.0763513 -1.38226e-10 0)
(0.0806465 -6.52928e-11 0)
(0.0848878 -1.00379e-10 0)
(0.0890628 -4.95196e-13 0)
(0.0931575 -9.66068e-11 0)
(0.0971565 1.74729e-11 0)
(0.101043 -7.95983e-11 0)
(0.104798 5.61966e-10 0)
(0.108401 -1.23262e-09 0)
(0.111832 7.5226e-10 0)
(0.115067 -5.60877e-10 0)
(0.118083 1.29602e-11 0)
(0.120858 -8.94038e-11 0)
(0.123371 -5.24035e-11 0)
(0.125603 -1.05925e-11 0)
(0.127542 -5.24009e-11 0)
(0.129179 6.58417e-11 0)
(0.130514 -9.20369e-11 0)
(0.131551 1.03679e-10 0)
(0.132304 -9.70204e-11 0)
(0.132791 8.7243e-11 0)
(0.133032 -6.10788e-11 0)
(0.133052 5.67163e-11 0)
(0.132872 1.14034e-11 0)
(0.132514 -2.48592e-12 0)
(0.132 -2.90515e-12 0)
(0.131346 -1.87343e-12 0)
(0.130569 -1.62108e-12 0)
(0.129684 -1.62123e-12 0)
(0.128706 -1.58828e-12 0)
(0.127646 -1.52466e-12 0)
(0.126517 -1.4556e-12 0)
(0.125332 -1.38704e-12 0)
(0.124102 -1.31691e-12 0)
(0.122839 -1.24943e-12 0)
(0.121555 -1.20756e-12 0)
(0.120264 -1.18072e-12 0)
(0.118978 -8.81857e-13 0)
(0.117711 7.56413e-13 0)
(0.116477 -1.07349e-11 0)
(0.115294 2.54185e-11 0)
(0.114179 -5.47758e-11 0)
(0.113153 9.21097e-11 0)
(0.112239 -1.44941e-10 0)
(0.11147 2.049e-10 0)
(0.110897 -2.76774e-10 0)
(0.110691 3.50842e-10 0)
(0.110676 -4.31266e-10 0)
(0.110676 5.10413e-10 0)
(0.110676 -5.94236e-10 0)
(0.110676 6.76812e-10 0)
(0.110676 -7.63935e-10 0)
(0.110676 8.50204e-10 0)
(0.110676 -9.40891e-10 0)
(0.110676 1.03107e-09 0)
(0.110676 -1.12555e-09 0)
(0.110676 1.21984e-09 0)
(0.110676 -1.31828e-09 0)
(0.110676 1.41686e-09 0)
(0.110676 -1.51937e-09 0)
(0.110676 1.62242e-09 0)
(0.110676 -1.72913e-09 0)
(0.110676 1.83672e-09 0)
(0.110676 -1.94772e-09 0)
(0.110676 2.05993e-09 0)
(0.110676 -2.17528e-09 0)
(0.110676 2.29216e-09 0)
(0.110676 -2.41188e-09 0)
(0.110676 2.53344e-09 0)
(0.110676 -2.65763e-09 0)
(0.110676 2.78374e-09 0)
(0.110676 -2.9124e-09 0)
(0.110676 3.04304e-09 0)
(0.110676 -3.17609e-09 0)
(0.110676 3.31117e-09 0)
(0.110676 -3.44854e-09 0)
(0.110676 3.58792e-09 0)
(0.110676 -3.72948e-09 0)
(0.110676 3.873e-09 0)
(0.110676 -4.01856e-09 0)
(0.110676 4.16598e-09 0)
(0.110676 -4.31529e-09 0)
(0.110676 3.92226e-09 0)
(0.110676 -3.98439e-09 0)
(0.110676 4.04575e-09 0)
(0.110676 -4.10641e-09 0)
(0.110676 4.1663e-09 0)
(0.110676 -4.22547e-09 0)
(0.110676 4.28386e-09 0)
(0.110676 -4.34154e-09 0)
(0.110676 4.39841e-09 0)
(0.110676 -4.45457e-09 0)
(0.110676 4.50989e-09 0)
(0.110676 -4.56453e-09 0)
(0.110676 4.61827e-09 0)
(0.110676 -4.67136e-09 0)
(0.110676 4.72349e-09 0)
(0.110676 -4.77501e-09 0)
(0.110676 4.8255e-09 0)
(0.110676 -4.87543e-09 0)
(0.110676 4.9242e-09 0)
(0.110676 -4.9726e-09 0)
(0.110676 5.0195e-09 0)
(0.110676 -5.06642e-09 0)
(0.110676 5.11138e-09 0)
(0.110676 -5.15676e-09 0)
(0.110676 5.19975e-09 0)
(0.110676 -5.24349e-09 0)
(0.110676 5.2845e-09 0)
(0.110676 -5.32653e-09 0)
(0.110676 5.36547e-09 0)
(0.110676 -5.40569e-09 0)
(0.110676 5.44257e-09 0)
(0.110676 -5.4808e-09 0)
(0.110676 5.51559e-09 0)
(0.110676 -5.55163e-09 0)
(0.110676 5.5843e-09 0)
(0.110676 -5.61804e-09 0)
(0.110676 5.64837e-09 0)
(0.110676 -5.67965e-09 0)
(0.110676 5.70761e-09 0)
(0.110676 -5.73606e-09 0)
(0.110676 5.76152e-09 0)
(0.110676 -5.78678e-09 0)
(0.110676 5.80957e-09 0)
(0.110676 -5.83107e-09 0)
(0.110676 5.85087e-09 0)
(0.110676 -5.86807e-09 0)
(0.110676 5.88396e-09 0)
(0.110676 -5.89598e-09 0)
(0.110676 5.90558e-09 0)
(0.110676 -5.91081e-09 0)
)
;

boundaryField
{
    inandouthalf11
    {
        type            cyclic;
    }
    inandouthalf12
    {
        type            cyclic;
    }
    inandouthalf21
    {
        type            cyclic;
    }
    inandouthalf22
    {
        type            cyclic;
    }
    inandouthalf31
    {
        type            cyclic;
    }
    inandouthalf32
    {
        type            cyclic;
    }
    inandouthalf41
    {
        type            cyclic;
    }
    inandouthalf42
    {
        type            cyclic;
    }
    top
    {
        type            symmetryPlane;
    }
    walls
    {
        type            calculated;
        value           uniform (0 0 0);
    }
    frontAndBackPlanes
    {
        type            empty;
    }
}


// ************************************************************************* //
