/*--------------------------------*- C++ -*----------------------------------*\
| =========                 |                                                 |
| \\      /  F ield         | OpenFOAM: The Open Source CFD Toolbox           |
|  \\    /   O peration     | Version:  2.4.x                                 |
|   \\  /    A nd           | Web:      www.OpenFOAM.org                      |
|    \\/     M anipulation  |                                                 |
\*---------------------------------------------------------------------------*/
FoamFile
{
    version     2.0;
    format      ascii;
    class       volVectorField;
    location    "10.6";
    object      Ua;
}
// * * * * * * * * * * * * * * * * * * * * * * * * * * * * * * * * * * * * * //

dimensions      [0 1 -1 0 0 0 0];

internalField   nonuniform List<vector> 
360
(
(-1.51875e-32 -1.03138e-31 0)
(-2.50259e-09 -1.19959e-08 0)
(-5.13301e-09 -2.12601e-08 0)
(-7.42902e-09 -2.92475e-08 0)
(-9.69686e-09 -3.74732e-08 0)
(-1.19792e-08 -4.58282e-08 0)
(-1.42131e-08 -5.39969e-08 0)
(-1.63732e-08 -6.19134e-08 0)
(-1.84624e-08 -6.9602e-08 0)
(-2.04873e-08 -7.70864e-08 0)
(-2.24535e-08 -8.43843e-08 0)
(-2.43652e-08 -9.15084e-08 0)
(-2.62259e-08 -9.84696e-08 0)
(-2.80398e-08 -1.05281e-07 0)
(-2.98112e-08 -1.11957e-07 0)
(-3.15448e-08 -1.18515e-07 0)
(-3.32456e-08 -1.24971e-07 0)
(-3.49181e-08 -1.31342e-07 0)
(-3.65666e-08 -1.37643e-07 0)
(-3.81953e-08 -1.43889e-07 0)
(-3.98081e-08 -1.50095e-07 0)
(-4.14086e-08 -1.56273e-07 0)
(-4.30003e-08 -1.62437e-07 0)
(-4.45864e-08 -1.68599e-07 0)
(-4.61697e-08 -1.74769e-07 0)
(-4.77526e-08 -1.80957e-07 0)
(-4.93376e-08 -1.87171e-07 0)
(-5.09266e-08 -1.93421e-07 0)
(-5.25215e-08 -1.99714e-07 0)
(-5.41238e-08 -2.06055e-07 0)
(-5.57348e-08 -2.1245e-07 0)
(-5.73556e-08 -2.18904e-07 0)
(-5.8987e-08 -2.25421e-07 0)
(-6.063e-08 -2.32004e-07 0)
(-6.22851e-08 -2.38657e-07 0)
(-6.39527e-08 -2.45382e-07 0)
(-6.56328e-08 -2.52179e-07 0)
(-6.73259e-08 -2.5905e-07 0)
(-6.90321e-08 -2.65998e-07 0)
(-7.07511e-08 -2.73022e-07 0)
(-7.24829e-08 -2.80121e-07 0)
(-7.42273e-08 -2.87297e-07 0)
(-7.59839e-08 -2.94548e-07 0)
(-7.77523e-08 -3.01873e-07 0)
(-7.95323e-08 -3.09273e-07 0)
(-8.13234e-08 -3.16745e-07 0)
(-8.31251e-08 -3.2429e-07 0)
(-8.49365e-08 -3.31904e-07 0)
(-8.67571e-08 -3.39584e-07 0)
(-8.85867e-08 -3.47332e-07 0)
(-9.04245e-08 -3.55146e-07 0)
(-9.22697e-08 -3.63021e-07 0)
(-9.41216e-08 -3.70956e-07 0)
(-9.59797e-08 -3.7895e-07 0)
(-9.78431e-08 -3.87e-07 0)
(-9.97112e-08 -3.95104e-07 0)
(-1.01583e-07 -4.03259e-07 0)
(-1.03458e-07 -4.11462e-07 0)
(-1.05336e-07 -4.19711e-07 0)
(-1.07215e-07 -4.28001e-07 0)
(-1.09094e-07 -4.36331e-07 0)
(-1.10973e-07 -4.447e-07 0)
(-1.12852e-07 -4.53103e-07 0)
(-1.14729e-07 -4.6154e-07 0)
(-1.16604e-07 -4.70007e-07 0)
(-1.18476e-07 -4.78499e-07 0)
(-1.20344e-07 -4.87014e-07 0)
(-1.22207e-07 -4.9555e-07 0)
(-1.24065e-07 -5.04102e-07 0)
(-1.25915e-07 -5.12665e-07 0)
(-1.27758e-07 -5.21237e-07 0)
(-1.29593e-07 -5.29819e-07 0)
(-1.3142e-07 -5.38406e-07 0)
(-1.33236e-07 -5.46992e-07 0)
(-1.35043e-07 -5.55578e-07 0)
(-1.36839e-07 -5.64161e-07 0)
(-1.38623e-07 -5.72737e-07 0)
(-1.40394e-07 -5.813e-07 0)
(-1.42152e-07 -5.89847e-07 0)
(-1.43895e-07 -5.98374e-07 0)
(-1.45623e-07 -6.06879e-07 0)
(-1.47335e-07 -6.15357e-07 0)
(-1.4903e-07 -6.23807e-07 0)
(-1.50709e-07 -6.32226e-07 0)
(-1.5237e-07 -6.40613e-07 0)
(-1.54012e-07 -6.48964e-07 0)
(-1.55636e-07 -6.57276e-07 0)
(-1.57241e-07 -6.65546e-07 0)
(-1.58825e-07 -6.73768e-07 0)
(-1.60387e-07 -6.8194e-07 0)
(-1.61928e-07 -6.90057e-07 0)
(-1.63446e-07 -6.98118e-07 0)
(-1.64941e-07 -7.06118e-07 0)
(-1.66412e-07 -7.14058e-07 0)
(-1.6786e-07 -7.21935e-07 0)
(-1.69284e-07 -7.29747e-07 0)
(-1.70683e-07 -7.37492e-07 0)
(-1.72057e-07 -7.45169e-07 0)
(-1.73406e-07 -7.52774e-07 0)
(-1.74729e-07 -7.60305e-07 0)
(-1.76026e-07 -7.67761e-07 0)
(-1.77295e-07 -7.75139e-07 0)
(-1.78539e-07 -7.8244e-07 0)
(-1.79755e-07 -7.89664e-07 0)
(-1.80944e-07 -7.96812e-07 0)
(-1.82107e-07 -8.03885e-07 0)
(-1.83243e-07 -8.10887e-07 0)
(-1.84353e-07 -8.1782e-07 0)
(-1.85437e-07 -8.24691e-07 0)
(-1.86496e-07 -8.31505e-07 0)
(-1.8753e-07 -8.38267e-07 0)
(-1.8854e-07 -8.44986e-07 0)
(-1.89525e-07 -8.51666e-07 0)
(-1.90485e-07 -8.58314e-07 0)
(-1.9142e-07 -8.64933e-07 0)
(-1.92329e-07 -8.71524e-07 0)
(-1.9321e-07 -8.78084e-07 0)
(-1.94061e-07 -8.84608e-07 0)
(-1.94879e-07 -8.91086e-07 0)
(-1.95661e-07 -8.97504e-07 0)
(-1.96404e-07 -9.03847e-07 0)
(-1.97106e-07 -9.10103e-07 0)
(-1.97763e-07 -9.16259e-07 0)
(-1.98375e-07 -9.22317e-07 0)
(-1.98941e-07 -9.28289e-07 0)
(-1.99463e-07 -9.34207e-07 0)
(-1.99942e-07 -9.40128e-07 0)
(-2.0038e-07 -9.46141e-07 0)
(-2.00776e-07 -9.52366e-07 0)
(-2.01127e-07 -9.58959e-07 0)
(-2.01424e-07 -9.661e-07 0)
(-2.01644e-07 -9.73979e-07 0)
(-2.01756e-07 -9.82752e-07 0)
(-2.01711e-07 -9.92472e-07 0)
(-2.01462e-07 -1.00294e-06 0)
(-2.00987e-07 -1.01349e-06 0)
(-2.00345e-07 -1.02293e-06 0)
(-1.99697e-07 -1.02993e-06 0)
(-1.9923e-07 -1.03393e-06 0)
(-1.9902e-07 -1.03548e-06 0)
(-1.98979e-07 -1.03583e-06 0)
(-1.9899e-07 -1.03591e-06 0)
(-1.99056e-07 -1.03601e-06 0)
(-7.71365e-07 -1.93425e-06 0)
(-1.63664e-06 -2.80402e-06 0)
(-2.77546e-06 -3.79694e-06 0)
(-4.6067e-06 -5.16334e-06 0)
(-8.42377e-06 -6.91163e-06 0)
(-2.33621e-05 -9.10259e-06 0)
(-0.00872695 6.63107e-06 0)
(-0.099077 -1.03503e-05 0)
(-0.153519 -0.00219235 0)
(-0.174851 -0.00503458 0)
(-0.184485 -0.00797345 0)
(-0.188983 -0.0105669 0)
(-0.190802 -0.0126335 0)
(-0.191039 -0.0142238 0)
(-0.190253 -0.0154503 0)
(-0.188759 -0.0163968 0)
(-0.186749 -0.0171213 0)
(-0.184348 -0.0176672 0)
(-0.181639 -0.0180679 0)
(-0.178683 -0.0183489 0)
(-0.175526 -0.0185306 0)
(-0.172203 -0.0186293 0)
(-0.168739 -0.0186579 0)
(-0.165158 -0.0186272 0)
(-0.161478 -0.0185462 0)
(-0.157713 -0.0184222 0)
(-0.153877 -0.0182613 0)
(-0.14998 -0.018069 0)
(-0.146032 -0.0178495 0)
(-0.142042 -0.0176068 0)
(-0.138016 -0.0173441 0)
(-0.133962 -0.0170642 0)
(-0.129885 -0.0167695 0)
(-0.125791 -0.0164622 0)
(-0.121685 -0.0161442 0)
(-0.117571 -0.0158169 0)
(-0.113454 -0.015482 0)
(-0.109338 -0.0151406 0)
(-0.105227 -0.0147939 0)
(-0.101125 -0.0144429 0)
(-0.0970348 -0.0140885 0)
(-0.0929611 -0.0137316 0)
(-0.0889072 -0.0133729 0)
(-0.0848768 -0.0130132 0)
(-0.0808733 -0.0126531 0)
(-0.0769005 -0.0122934 0)
(-0.0729621 -0.0119346 0)
(-0.0690617 -0.0115774 0)
(-0.0652031 -0.0112225 0)
(-0.0613901 -0.0108706 0)
(-0.0576267 -0.0105224 0)
(-0.0539169 -0.0101788 0)
(-0.0502645 -0.00984046 0)
(-0.0466737 -0.00950842 0)
(-0.0431487 -0.00918359 0)
(-0.0396935 -0.00886696 0)
(-0.0363124 -0.00855948 0)
(-0.0330095 -0.00826201 0)
(-0.0297555 -0.00797237 0)
(-0.0265217 -0.0076886 0)
(-0.0233116 -0.00741138 0)
(-0.0201291 -0.00714097 0)
(-0.016978 -0.00687701 0)
(-0.0138625 -0.00661845 0)
(-0.0107869 -0.00636351 0)
(-0.00775521 -0.00610972 0)
(-0.00477191 -0.00585417 0)
(-0.00184122 -0.0055938 0)
(0.00103262 -0.00532591 0)
(0.00384537 -0.00504868 0)
(0.00659277 -0.00476154 0)
(0.00927051 -0.00446535 0)
(0.0118742 -0.00416235 0)
(0.0143997 -0.00385592 0)
(0.0168427 -0.00355033 0)
(0.0191995 -0.00325036 0)
(0.0214667 -0.00296077 0)
(0.0236417 -0.00268585 0)
(0.0257221 -0.00242897 0)
(0.0277063 -0.00219226 0)
(0.0295932 -0.00197665 0)
(0.0313816 -0.00178201 0)
(0.033071 -0.00160749 0)
(0.0346604 -0.00145179 0)
(0.036149 -0.00131381 0)
(0.0375356 -0.00119202 0)
(0.038819 -0.00108631 0)
(0.0399962 -0.000995247 0)
(0.0410648 -0.000920629 0)
(0.0420167 -0.000860689 0)
(0.0428451 -0.000821005 0)
(0.0435323 -0.000800899 0)
(0.0440537 -0.000809122 0)
(0.0445998 -0.000844549 0)
(0.119617 0.000301211 0)
(0.122816 0.00043387 0)
(0.12579 0.00108877 0)
(0.128526 0.00139854 0)
(0.130998 0.00171049 0)
(0.13319 0.00196458 0)
(0.135096 0.00198563 0)
(0.136687 0.0023639 0)
(0.138019 0.00157618 0)
(0.138977 0.00284145 0)
(0.139758 0.000302875 0)
(0.140122 0.00369656 0)
(0.140403 -0.00189412 0)
(0.140223 0.00550113 0)
(0.138972 -0.0159131 0)
(0.137579 -0.0392653 0)
(0.136982 -0.0395254 0)
(0.136302 -0.0395049 0)
(0.135497 -0.0395049 0)
(0.13459 -0.0395041 0)
(0.133593 -0.0395039 0)
(0.132517 -0.0395039 0)
(0.131376 -0.0395041 0)
(0.130182 -0.0395045 0)
(0.128945 -0.039505 0)
(0.127678 -0.0395054 0)
(0.126394 -0.0395058 0)
(0.125103 -0.039506 0)
(0.123821 -0.0395061 0)
(0.12256 -0.0395059 0)
(0.121335 -0.0395054 0)
(0.120164 -0.0395046 0)
(0.119063 -0.0395032 0)
(0.118055 -0.0395013 0)
(0.117162 -0.0394986 0)
(0.116411 -0.0394945 0)
(0.115897 -0.039486 0)
(0.115733 -0.0394783 0)
(0.115722 -0.0394757 0)
(0.115722 -0.0394756 0)
(0.115722 -0.0394755 0)
(0.115722 -0.0394755 0)
(0.115722 -0.0394755 0)
(0.115722 -0.0394755 0)
(0.115722 -0.0394755 0)
(0.115722 -0.0394755 0)
(0.115722 -0.0394755 0)
(0.115722 -0.0394755 0)
(0.115722 -0.0394755 0)
(0.115722 -0.0394755 0)
(0.115722 -0.0394755 0)
(0.115722 -0.0394755 0)
(0.115722 -0.0394755 0)
(0.115722 -0.0394755 0)
(0.115722 -0.0394755 0)
(0.115722 -0.0394755 0)
(0.115722 -0.0394755 0)
(0.115722 -0.0394755 0)
(0.115722 -0.0394755 0)
(0.115722 -0.0394755 0)
(0.115722 -0.0394755 0)
(0.115722 -0.0394755 0)
(0.115722 -0.0394755 0)
(0.115722 -0.0394755 0)
(0.115722 -0.0394756 0)
(0.115722 -0.0394755 0)
(0.115722 -0.0394756 0)
(0.115722 -0.0394755 0)
(0.115722 -0.0394756 0)
(0.115722 -0.0394755 0)
(0.115722 -0.0394756 0)
(0.115722 -0.0394755 0)
(0.115722 -0.0394756 0)
(0.115722 -0.0394755 0)
(0.115722 -0.0394756 0)
(0.115722 -0.0394755 0)
(0.115722 -0.0394756 0)
(0.115722 -0.0394755 0)
(0.115722 -0.0394756 0)
(0.115722 -0.0394755 0)
(0.115722 -0.0394756 0)
(0.115722 -0.0394755 0)
(0.115722 -0.0394756 0)
(0.115722 -0.0394755 0)
(0.115722 -0.0394756 0)
(0.115722 -0.0394755 0)
(0.115722 -0.0394756 0)
(0.115722 -0.0394755 0)
(0.115722 -0.0394756 0)
(0.115722 -0.0394755 0)
(0.115722 -0.0394756 0)
(0.115722 -0.0394755 0)
(0.115722 -0.0394756 0)
(0.115722 -0.0394755 0)
(0.115722 -0.0394756 0)
(0.115722 -0.0394755 0)
(0.115722 -0.0394756 0)
(0.115722 -0.0394755 0)
(0.115722 -0.0394756 0)
(0.115722 -0.0394755 0)
(0.115722 -0.0394756 0)
(0.115722 -0.0394755 0)
(0.115722 -0.0394756 0)
(0.115722 -0.0394755 0)
(0.115722 -0.0394756 0)
(0.115722 -0.0394755 0)
(0.115722 -0.0394756 0)
(0.115722 -0.0394755 0)
(0.115722 -0.0394756 0)
(0.115722 -0.0394755 0)
(0.115722 -0.0394756 0)
(0.115722 -0.0394755 0)
(0.115722 -0.0394756 0)
(0.115722 -0.0394755 0)
(0.115722 -0.0394756 0)
(0.115722 -0.0394755 0)
(0.115722 -0.0394756 0)
(0.115722 -0.0394755 0)
(0.115722 -0.0394755 0)
(0.115722 -0.0394753 0)
(0.115723 -0.0394668 0)
(0.115757 -0.0391205 0)
(0.11655 -0.0223546 0)
)
;

boundaryField
{
    inandouthalf11
    {
        type            cyclic;
    }
    inandouthalf12
    {
        type            cyclic;
    }
    inandouthalf21
    {
        type            cyclic;
    }
    inandouthalf22
    {
        type            cyclic;
    }
    inandouthalf31
    {
        type            cyclic;
    }
    inandouthalf32
    {
        type            cyclic;
    }
    inandouthalf41
    {
        type            cyclic;
    }
    inandouthalf42
    {
        type            cyclic;
    }
    top
    {
        type            symmetryPlane;
    }
    walls
    {
        type            fixedValue;
        value           uniform (0 0 0);
    }
    frontAndBackPlanes
    {
        type            empty;
    }
}


// ************************************************************************* //
