/*--------------------------------*- C++ -*----------------------------------*\
| =========                 |                                                 |
| \\      /  F ield         | OpenFOAM: The Open Source CFD Toolbox           |
|  \\    /   O peration     | Version:  2.4.x                                 |
|   \\  /    A nd           | Web:      www.OpenFOAM.org                      |
|    \\/     M anipulation  |                                                 |
\*---------------------------------------------------------------------------*/
FoamFile
{
    version     2.0;
    format      ascii;
    class       volVectorField;
    location    "10.6";
    object      Ub_0;
}
// * * * * * * * * * * * * * * * * * * * * * * * * * * * * * * * * * * * * * //

dimensions      [0 1 -1 0 0 0 0];

internalField   nonuniform List<vector> 
360
(
(-0.000264753 5.04997e-09 0)
(-0.000263283 1.78232e-08 0)
(-0.000263086 3.25608e-08 0)
(-0.000263287 4.6065e-08 0)
(-0.000263383 5.91264e-08 0)
(-0.000263415 7.21457e-08 0)
(-0.000263455 8.49619e-08 0)
(-0.000263505 9.74336e-08 0)
(-0.000263558 1.09546e-07 0)
(-0.00026361 1.21329e-07 0)
(-0.000263663 1.32815e-07 0)
(-0.000263715 1.44024e-07 0)
(-0.000263768 1.54975e-07 0)
(-0.000263822 1.65689e-07 0)
(-0.000263876 1.76188e-07 0)
(-0.00026393 1.86499e-07 0)
(-0.000263985 1.96648e-07 0)
(-0.000264041 2.0666e-07 0)
(-0.000264097 2.1656e-07 0)
(-0.000264153 2.26371e-07 0)
(-0.00026421 2.36116e-07 0)
(-0.000264268 2.45815e-07 0)
(-0.000264326 2.55489e-07 0)
(-0.000264385 2.65156e-07 0)
(-0.000264444 2.74834e-07 0)
(-0.000264505 2.84537e-07 0)
(-0.000264565 2.9428e-07 0)
(-0.000264627 3.04075e-07 0)
(-0.000264689 3.13935e-07 0)
(-0.000264751 3.23867e-07 0)
(-0.000264815 3.33882e-07 0)
(-0.000264879 3.43986e-07 0)
(-0.000264943 3.54186e-07 0)
(-0.000265009 3.64487e-07 0)
(-0.000265075 3.74895e-07 0)
(-0.000265142 3.85411e-07 0)
(-0.00026521 3.96038e-07 0)
(-0.000265278 4.06779e-07 0)
(-0.000265348 4.17637e-07 0)
(-0.000265417 4.28609e-07 0)
(-0.000265489 4.39697e-07 0)
(-0.00026556 4.50902e-07 0)
(-0.000265632 4.62219e-07 0)
(-0.000265706 4.73651e-07 0)
(-0.00026578 4.85195e-07 0)
(-0.000265855 4.96849e-07 0)
(-0.000265931 5.08614e-07 0)
(-0.000266007 5.2048e-07 0)
(-0.000266085 5.32448e-07 0)
(-0.000266164 5.44518e-07 0)
(-0.000266243 5.56685e-07 0)
(-0.000266324 5.68945e-07 0)
(-0.000266405 5.81294e-07 0)
(-0.000266488 5.93731e-07 0)
(-0.000266571 6.06248e-07 0)
(-0.000266656 6.18848e-07 0)
(-0.000266741 6.3152e-07 0)
(-0.000266828 6.44264e-07 0)
(-0.000266916 6.57074e-07 0)
(-0.000267004 6.69942e-07 0)
(-0.000267095 6.82869e-07 0)
(-0.000267185 6.95847e-07 0)
(-0.000267278 7.08877e-07 0)
(-0.000267372 7.21951e-07 0)
(-0.000267466 7.35066e-07 0)
(-0.000267562 7.48214e-07 0)
(-0.00026766 7.61393e-07 0)
(-0.000267759 7.74596e-07 0)
(-0.000267859 7.87818e-07 0)
(-0.00026796 8.0105e-07 0)
(-0.000268063 8.14292e-07 0)
(-0.000268168 8.2754e-07 0)
(-0.000268273 8.40786e-07 0)
(-0.000268381 8.54027e-07 0)
(-0.00026849 8.67258e-07 0)
(-0.000268601 8.80477e-07 0)
(-0.000268713 8.93675e-07 0)
(-0.000268827 9.06846e-07 0)
(-0.000268942 9.19984e-07 0)
(-0.00026906 9.33082e-07 0)
(-0.000269179 9.46136e-07 0)
(-0.000269301 9.5914e-07 0)
(-0.000269424 9.7209e-07 0)
(-0.000269549 9.84983e-07 0)
(-0.000269677 9.97816e-07 0)
(-0.000269806 1.01058e-06 0)
(-0.000269938 1.02328e-06 0)
(-0.000270072 1.0359e-06 0)
(-0.000270208 1.04843e-06 0)
(-0.000270347 1.06088e-06 0)
(-0.000270488 1.07323e-06 0)
(-0.000270632 1.08548e-06 0)
(-0.000270779 1.09762e-06 0)
(-0.000270928 1.10966e-06 0)
(-0.000271081 1.12159e-06 0)
(-0.000271236 1.1334e-06 0)
(-0.000271394 1.1451e-06 0)
(-0.000271556 1.15668e-06 0)
(-0.000271721 1.16813e-06 0)
(-0.000271889 1.17945e-06 0)
(-0.000272061 1.19064e-06 0)
(-0.000272237 1.2017e-06 0)
(-0.000272416 1.21262e-06 0)
(-0.0002726 1.22341e-06 0)
(-0.000272788 1.23406e-06 0)
(-0.00027298 1.24458e-06 0)
(-0.000273176 1.25497e-06 0)
(-0.000273378 1.26524e-06 0)
(-0.000273584 1.27539e-06 0)
(-0.000273795 1.28543e-06 0)
(-0.000274012 1.29538e-06 0)
(-0.000274234 1.30524e-06 0)
(-0.000274463 1.31501e-06 0)
(-0.000274697 1.32471e-06 0)
(-0.000274937 1.33434e-06 0)
(-0.000275185 1.34391e-06 0)
(-0.000275439 1.3534e-06 0)
(-0.000275701 1.3628e-06 0)
(-0.00027597 1.3721e-06 0)
(-0.000276248 1.38129e-06 0)
(-0.000276534 1.39032e-06 0)
(-0.00027683 1.39919e-06 0)
(-0.000277135 1.40788e-06 0)
(-0.00027745 1.41639e-06 0)
(-0.000277777 1.42473e-06 0)
(-0.000278115 1.43296e-06 0)
(-0.000278465 1.44117e-06 0)
(-0.00027883 1.44948e-06 0)
(-0.000279208 1.45808e-06 0)
(-0.000279603 1.4672e-06 0)
(-0.000280014 1.4771e-06 0)
(-0.000280442 1.48806e-06 0)
(-0.000280889 1.50027e-06 0)
(-0.000281361 1.51373e-06 0)
(-0.000281863 1.52807e-06 0)
(-0.000282395 1.54223e-06 0)
(-0.000282957 1.55453e-06 0)
(-0.000283558 1.56324e-06 0)
(-0.000284227 1.56761e-06 0)
(-0.000284994 1.56839e-06 0)
(-0.000285825 1.56688e-06 0)
(-0.000286798 1.53525e-06 0)
(-0.00029386 1.91955e-06 0)
(-0.000293516 2.88445e-06 0)
(-0.000295699 4.16046e-06 0)
(-0.000299058 5.72881e-06 0)
(-0.000303185 7.95201e-06 0)
(-0.000309468 1.11025e-05 0)
(-0.000342314 1.5479e-05 0)
(-0.0103431 1.78874e-06 0)
(-0.12026 -3.88243e-06 0)
(-0.170279 0.00019574 0)
(-0.188347 0.000142233 0)
(-0.195631 0.000148168 0)
(-0.198615 0.000141409 0)
(-0.199522 0.000132837 0)
(-0.199232 0.000124175 0)
(-0.198155 0.000115969 0)
(-0.196514 0.00010829 0)
(-0.194443 0.000101123 0)
(-0.192032 9.44383e-05 0)
(-0.189344 8.82008e-05 0)
(-0.186428 8.23749e-05 0)
(-0.18332 7.69273e-05 0)
(-0.18005 7.18284e-05 0)
(-0.176644 6.70519e-05 0)
(-0.173122 6.25743e-05 0)
(-0.169501 5.83748e-05 0)
(-0.165796 5.44348e-05 0)
(-0.16202 5.07374e-05 0)
(-0.158184 4.72673e-05 0)
(-0.154298 4.40106e-05 0)
(-0.15037 4.09543e-05 0)
(-0.146409 3.80867e-05 0)
(-0.142419 3.53967e-05 0)
(-0.138408 3.2874e-05 0)
(-0.13438 3.05091e-05 0)
(-0.130341 2.82929e-05 0)
(-0.126294 2.62171e-05 0)
(-0.122243 2.42736e-05 0)
(-0.118191 2.2455e-05 0)
(-0.114142 2.07543e-05 0)
(-0.110098 1.91647e-05 0)
(-0.106062 1.768e-05 0)
(-0.102036 1.62941e-05 0)
(-0.0980214 1.50015e-05 0)
(-0.0940207 1.37967e-05 0)
(-0.0900354 1.26746e-05 0)
(-0.0860671 1.16306e-05 0)
(-0.082117 1.06599e-05 0)
(-0.0781866 9.75839e-06 0)
(-0.0742768 8.92188e-06 0)
(-0.070389 8.14656e-06 0)
(-0.0665239 7.42878e-06 0)
(-0.0626826 6.76509e-06 0)
(-0.0588658 6.15227e-06 0)
(-0.0550743 5.58726e-06 0)
(-0.0513089 5.06718e-06 0)
(-0.0475703 4.58931e-06 0)
(-0.043859 4.15107e-06 0)
(-0.0401756 3.75002e-06 0)
(-0.0364834 3.38009e-06 0)
(-0.0327459 3.03686e-06 0)
(-0.0289634 2.71973e-06 0)
(-0.0251363 2.42794e-06 0)
(-0.0212648 2.1605e-06 0)
(-0.0173493 1.91624e-06 0)
(-0.0133906 1.69378e-06 0)
(-0.00938917 1.4916e-06 0)
(-0.00534604 1.30811e-06 0)
(-0.00126216 1.14171e-06 0)
(0.0028613 9.90899e-07 0)
(0.00702297 8.54372e-07 0)
(0.0112213 7.31033e-07 0)
(0.0154545 6.20023e-07 0)
(0.0197207 5.20689e-07 0)
(0.0240174 4.32533e-07 0)
(0.0283422 3.55148e-07 0)
(0.0326921 2.88145e-07 0)
(0.0370639 2.31059e-07 0)
(0.041454 1.83279e-07 0)
(0.0458582 1.44007e-07 0)
(0.0502718 1.12281e-07 0)
(0.0546898 8.70311e-08 0)
(0.0591063 6.71758e-08 0)
(0.0635149 5.17012e-08 0)
(0.0679082 3.97095e-08 0)
(0.0722783 3.04601e-08 0)
(0.0766159 2.33411e-08 0)
(0.080911 1.78889e-08 0)
(0.0851523 1.3723e-08 0)
(0.0893273 1.05717e-08 0)
(0.0934219 8.18373e-09 0)
(0.0974206 6.39689e-09 0)
(0.101307 5.14527e-09 0)
(0.105061 4.76776e-09 0)
(0.108664 2.82482e-09 0)
(0.112095 -4.05809e-10 0)
(0.115329 -1.78455e-09 0)
(0.118344 -2.19067e-09 0)
(0.121119 -2.08516e-09 0)
(0.123631 -1.73844e-09 0)
(0.125862 -1.32091e-09 0)
(0.1278 -9.29255e-10 0)
(0.129437 -6.11805e-10 0)
(0.13077 -3.76413e-10 0)
(0.131806 -2.16543e-10 0)
(0.132559 -1.16558e-10 0)
(0.133044 -5.70539e-11 0)
(0.133285 -2.73708e-11 0)
(0.133304 4.04524e-12 0)
(0.133123 1.26841e-11 0)
(0.132766 -2.46653e-12 0)
(0.13225 -2.88459e-12 0)
(0.131596 -1.8525e-12 0)
(0.130819 -1.60057e-12 0)
(0.129934 -1.60118e-12 0)
(0.128955 -1.56873e-12 0)
(0.127895 -1.50551e-12 0)
(0.126766 -1.43675e-12 0)
(0.125581 -1.3685e-12 0)
(0.124351 -1.29845e-12 0)
(0.123088 -1.23093e-12 0)
(0.121804 -1.18908e-12 0)
(0.120513 -1.16215e-12 0)
(0.119226 -8.62931e-13 0)
(0.117959 7.79195e-13 0)
(0.116726 -1.07239e-11 0)
(0.115542 2.54558e-11 0)
(0.114427 -5.47812e-11 0)
(0.113401 9.21676e-11 0)
(0.112487 -1.44966e-10 0)
(0.111719 2.04979e-10 0)
(0.111146 -2.76816e-10 0)
(0.11094 3.50936e-10 0)
(0.110925 -4.31318e-10 0)
(0.110925 5.10517e-10 0)
(0.110925 -5.94296e-10 0)
(0.110925 6.76925e-10 0)
(0.110925 -7.64003e-10 0)
(0.110925 8.50328e-10 0)
(0.110925 -9.40969e-10 0)
(0.110925 1.0312e-09 0)
(0.110925 -1.12563e-09 0)
(0.110925 1.21998e-09 0)
(0.110925 -1.31838e-09 0)
(0.110925 1.41701e-09 0)
(0.110925 -1.51948e-09 0)
(0.110925 1.62258e-09 0)
(0.110925 -1.72926e-09 0)
(0.110925 1.83689e-09 0)
(0.110925 -1.94786e-09 0)
(0.110925 2.06012e-09 0)
(0.110925 -2.17543e-09 0)
(0.110925 2.29236e-09 0)
(0.110925 -2.41205e-09 0)
(0.110925 2.53365e-09 0)
(0.110925 -2.65782e-09 0)
(0.110925 2.78397e-09 0)
(0.110925 -2.91259e-09 0)
(0.110925 3.04328e-09 0)
(0.110925 -3.1763e-09 0)
(0.110925 3.31143e-09 0)
(0.110925 -3.44876e-09 0)
(0.110925 3.5882e-09 0)
(0.110925 -3.72971e-09 0)
(0.110925 3.8733e-09 0)
(0.110925 -4.0188e-09 0)
(0.110925 4.1663e-09 0)
(0.110925 -4.31555e-09 0)
(0.110925 3.92256e-09 0)
(0.110925 -3.98462e-09 0)
(0.110925 4.04605e-09 0)
(0.110925 -4.10665e-09 0)
(0.110925 4.16661e-09 0)
(0.110925 -4.22572e-09 0)
(0.110925 4.28418e-09 0)
(0.110925 -4.34179e-09 0)
(0.110925 4.39872e-09 0)
(0.110925 -4.45483e-09 0)
(0.110925 4.51021e-09 0)
(0.110925 -4.56478e-09 0)
(0.110925 4.6186e-09 0)
(0.110925 -4.67162e-09 0)
(0.110925 4.72382e-09 0)
(0.110925 -4.77528e-09 0)
(0.110925 4.82583e-09 0)
(0.110925 -4.8757e-09 0)
(0.110925 4.92455e-09 0)
(0.110925 -4.97285e-09 0)
(0.110925 5.01989e-09 0)
(0.110925 -5.06664e-09 0)
(0.110925 5.1118e-09 0)
(0.110925 -5.15695e-09 0)
(0.110925 5.20021e-09 0)
(0.110925 -5.24366e-09 0)
(0.110925 5.28498e-09 0)
(0.110925 -5.32669e-09 0)
(0.110925 5.36598e-09 0)
(0.110925 -5.40583e-09 0)
(0.110925 5.44309e-09 0)
(0.110925 -5.48094e-09 0)
(0.110925 5.51611e-09 0)
(0.110925 -5.55177e-09 0)
(0.110925 5.58483e-09 0)
(0.110925 -5.61818e-09 0)
(0.110925 5.64891e-09 0)
(0.110925 -5.67978e-09 0)
(0.110925 5.70815e-09 0)
(0.110925 -5.7362e-09 0)
(0.110925 5.76206e-09 0)
(0.110925 -5.78694e-09 0)
(0.110925 5.8101e-09 0)
(0.110925 -5.83124e-09 0)
(0.110925 5.85138e-09 0)
(0.110925 -5.86827e-09 0)
(0.110925 5.88445e-09 0)
(0.110925 -5.89622e-09 0)
(0.110925 5.906e-09 0)
(0.110925 -5.91113e-09 0)
)
;

boundaryField
{
    inandouthalf11
    {
        type            cyclic;
    }
    inandouthalf12
    {
        type            cyclic;
    }
    inandouthalf21
    {
        type            cyclic;
    }
    inandouthalf22
    {
        type            cyclic;
    }
    inandouthalf31
    {
        type            cyclic;
    }
    inandouthalf32
    {
        type            cyclic;
    }
    inandouthalf41
    {
        type            cyclic;
    }
    inandouthalf42
    {
        type            cyclic;
    }
    top
    {
        type            symmetryPlane;
    }
    walls
    {
        type            fixedValue;
        value           uniform (0 0 0);
    }
    frontAndBackPlanes
    {
        type            empty;
    }
}


// ************************************************************************* //
