/*--------------------------------*- C++ -*----------------------------------*\
| =========                 |                                                 |
| \\      /  F ield         | OpenFOAM: The Open Source CFD Toolbox           |
|  \\    /   O peration     | Version:  2.4.x                                 |
|   \\  /    A nd           | Web:      www.OpenFOAM.org                      |
|    \\/     M anipulation  |                                                 |
\*---------------------------------------------------------------------------*/
FoamFile
{
    version     2.0;
    format      ascii;
    class       volVectorField;
    location    "10.6";
    object      Ur;
}
// * * * * * * * * * * * * * * * * * * * * * * * * * * * * * * * * * * * * * //

dimensions      [0 1 -1 0 0 0 0];

internalField   nonuniform List<vector> 
360
(
(-0.000264734 5.04937e-09 0)
(-0.000263261 2.98169e-08 0)
(-0.000263062 5.38171e-08 0)
(-0.00026326 7.53074e-08 0)
(-0.000263354 9.65935e-08 0)
(-0.000263384 1.17967e-07 0)
(-0.000263421 1.38951e-07 0)
(-0.00026347 1.59338e-07 0)
(-0.00026352 1.79138e-07 0)
(-0.00026357 1.98406e-07 0)
(-0.000263621 2.17189e-07 0)
(-0.000263672 2.35521e-07 0)
(-0.000263723 2.53432e-07 0)
(-0.000263775 2.70956e-07 0)
(-0.000263827 2.88131e-07 0)
(-0.00026388 3.04998e-07 0)
(-0.000263933 3.21603e-07 0)
(-0.000263987 3.37985e-07 0)
(-0.000264041 3.54184e-07 0)
(-0.000264096 3.70241e-07 0)
(-0.000264151 3.8619e-07 0)
(-0.000264208 4.02065e-07 0)
(-0.000264264 4.17902e-07 0)
(-0.000264321 4.33729e-07 0)
(-0.000264379 4.49575e-07 0)
(-0.000264438 4.65465e-07 0)
(-0.000264497 4.81421e-07 0)
(-0.000264557 4.97464e-07 0)
(-0.000264617 5.13614e-07 0)
(-0.000264678 5.29886e-07 0)
(-0.00026474 5.46293e-07 0)
(-0.000264803 5.6285e-07 0)
(-0.000264865 5.79564e-07 0)
(-0.00026493 5.96447e-07 0)
(-0.000264994 6.13505e-07 0)
(-0.000265059 6.30743e-07 0)
(-0.000265125 6.48165e-07 0)
(-0.000265192 6.65775e-07 0)
(-0.00026526 6.83579e-07 0)
(-0.000265327 7.01571e-07 0)
(-0.000265397 7.19756e-07 0)
(-0.000265467 7.38135e-07 0)
(-0.000265537 7.567e-07 0)
(-0.000265609 7.75454e-07 0)
(-0.000265681 7.94395e-07 0)
(-0.000265754 8.1352e-07 0)
(-0.000265829 8.32826e-07 0)
(-0.000265903 8.52304e-07 0)
(-0.000265979 8.71948e-07 0)
(-0.000266056 8.91764e-07 0)
(-0.000266133 9.11741e-07 0)
(-0.000266212 9.31874e-07 0)
(-0.000266292 9.52156e-07 0)
(-0.000266373 9.72584e-07 0)
(-0.000266454 9.93148e-07 0)
(-0.000266537 1.01385e-06 0)
(-0.00026662 1.03467e-06 0)
(-0.000266705 1.05562e-06 0)
(-0.000266791 1.07667e-06 0)
(-0.000266878 1.09783e-06 0)
(-0.000266966 1.11908e-06 0)
(-0.000267055 1.14043e-06 0)
(-0.000267146 1.16186e-06 0)
(-0.000267238 1.18336e-06 0)
(-0.000267331 1.20494e-06 0)
(-0.000267425 1.22658e-06 0)
(-0.00026752 1.24827e-06 0)
(-0.000267617 1.27001e-06 0)
(-0.000267716 1.29178e-06 0)
(-0.000267815 1.31357e-06 0)
(-0.000267916 1.33538e-06 0)
(-0.000268019 1.35721e-06 0)
(-0.000268122 1.37904e-06 0)
(-0.000268228 1.40086e-06 0)
(-0.000268335 1.42267e-06 0)
(-0.000268445 1.44447e-06 0)
(-0.000268555 1.46625e-06 0)
(-0.000268667 1.48798e-06 0)
(-0.000268781 1.50966e-06 0)
(-0.000268897 1.53128e-06 0)
(-0.000269014 1.55284e-06 0)
(-0.000269134 1.57431e-06 0)
(-0.000269256 1.59571e-06 0)
(-0.000269379 1.61702e-06 0)
(-0.000269505 1.63824e-06 0)
(-0.000269633 1.65935e-06 0)
(-0.000269763 1.68036e-06 0)
(-0.000269895 1.70124e-06 0)
(-0.00027003 1.722e-06 0)
(-0.000270167 1.74261e-06 0)
(-0.000270307 1.76308e-06 0)
(-0.000270449 1.78338e-06 0)
(-0.000270595 1.80353e-06 0)
(-0.000270743 1.8235e-06 0)
(-0.000270893 1.8433e-06 0)
(-0.000271047 1.86293e-06 0)
(-0.000271204 1.88237e-06 0)
(-0.000271364 1.90162e-06 0)
(-0.000271528 1.92067e-06 0)
(-0.000271695 1.93952e-06 0)
(-0.000271866 1.95817e-06 0)
(-0.00027204 1.9766e-06 0)
(-0.000272218 1.99482e-06 0)
(-0.000272401 2.01283e-06 0)
(-0.000272587 2.03063e-06 0)
(-0.000272778 2.04822e-06 0)
(-0.000272973 2.06561e-06 0)
(-0.000273174 2.08281e-06 0)
(-0.000273379 2.09983e-06 0)
(-0.000273589 2.11669e-06 0)
(-0.000273805 2.13339e-06 0)
(-0.000274026 2.14997e-06 0)
(-0.000274253 2.16642e-06 0)
(-0.000274487 2.18277e-06 0)
(-0.000274726 2.19902e-06 0)
(-0.000274973 2.21517e-06 0)
(-0.000275226 2.23122e-06 0)
(-0.000275487 2.24714e-06 0)
(-0.000275755 2.26292e-06 0)
(-0.000276032 2.27852e-06 0)
(-0.000276318 2.2939e-06 0)
(-0.000276613 2.30903e-06 0)
(-0.000276917 2.32387e-06 0)
(-0.000277232 2.33843e-06 0)
(-0.000277558 2.35275e-06 0)
(-0.000277896 2.36689e-06 0)
(-0.000278246 2.38102e-06 0)
(-0.000278609 2.39534e-06 0)
(-0.000278988 2.41017e-06 0)
(-0.000279382 2.42588e-06 0)
(-0.000279792 2.44293e-06 0)
(-0.00028022 2.46177e-06 0)
(-0.000280667 2.48275e-06 0)
(-0.000281139 2.50594e-06 0)
(-0.000281641 2.53075e-06 0)
(-0.000282174 2.55547e-06 0)
(-0.000282737 2.5772e-06 0)
(-0.000283338 2.59291e-06 0)
(-0.000284008 2.60128e-06 0)
(-0.000284775 2.60361e-06 0)
(-0.000285606 2.60245e-06 0)
(-0.000286579 2.57093e-06 0)
(-0.00029364 2.95491e-06 0)
(-0.000292722 4.81691e-06 0)
(-0.000294039 6.96123e-06 0)
(-0.000296258 9.52079e-06 0)
(-0.000298551 1.31082e-05 0)
(-0.000301014 1.80029e-05 0)
(-0.000318942 2.45441e-05 0)
(-0.00163756 -4.84433e-06 0)
(-0.0212465 5.7432e-06 0)
(-0.0168791 0.00238817 0)
(-0.0136443 0.00517649 0)
(-0.0113102 0.00812153 0)
(-0.00980462 0.0107083 0)
(-0.00889805 0.0127663 0)
(-0.00837552 0.0143479 0)
(-0.00808882 0.0155662 0)
(-0.00794482 0.016505 0)
(-0.0078869 0.0172224 0)
(-0.00788048 0.0177616 0)
(-0.00790451 0.018156 0)
(-0.00794618 0.0184312 0)
(-0.00799776 0.0186075 0)
(-0.00805466 0.018701 0)
(-0.00811427 0.0187249 0)
(-0.00817516 0.0186898 0)
(-0.00823666 0.0186045 0)
(-0.00829854 0.0184766 0)
(-0.00836083 0.0183121 0)
(-0.00842366 0.0181162 0)
(-0.00848721 0.0178935 0)
(-0.00855164 0.0176478 0)
(-0.00861705 0.0173822 0)
(-0.00868344 0.0170996 0)
(-0.00875072 0.0168024 0)
(-0.00881867 0.0164927 0)
(-0.00888695 0.0161724 0)
(-0.00895508 0.0158431 0)
(-0.00902242 0.0155062 0)
(-0.00908818 0.015163 0)
(-0.00915142 0.0148146 0)
(-0.00921104 0.014462 0)
(-0.00926577 0.0141062 0)
(-0.00931417 0.0137479 0)
(-0.00935465 0.0133879 0)
(-0.00938541 0.013027 0)
(-0.00940452 0.0126658 0)
(-0.00940987 0.012305 0)
(-0.00939918 0.0119452 0)
(-0.00936999 0.0115872 0)
(-0.00931971 0.0112314 0)
(-0.00924557 0.0108788 0)
(-0.00914467 0.0105299 0)
(-0.00901395 0.0101855 0)
(-0.00885025 0.00984661 0)
(-0.00865026 0.009514 0)
(-0.0084106 0.00918866 0)
(-0.00812775 0.00887155 0)
(-0.00779818 0.00856363 0)
(-0.00741828 0.00826576 0)
(-0.00698066 0.00797575 0)
(-0.00647761 0.00769164 0)
(-0.00590579 0.0074141 0)
(-0.00526171 0.0071434 0)
(-0.00454178 0.00687917 0)
(-0.00374237 0.00662037 0)
(-0.00285983 0.0063652 0)
(-0.00189062 0.00611121 0)
(-0.000831298 0.00585548 0)
(0.000321391 0.00559494 0)
(0.00157052 0.0053269 0)
(0.00291897 0.00504954 0)
(0.00436944 0.00476227 0)
(0.00592448 0.00446597 0)
(0.00758643 0.00416287 0)
(0.00935732 0.00385635 0)
(0.0112387 0.00355069 0)
(0.0132314 0.00325065 0)
(0.0153356 0.002961 0)
(0.0175504 0.00268604 0)
(0.0198738 0.00242911 0)
(0.0223029 0.00219238 0)
(0.0248338 0.00197674 0)
(0.0274616 0.00178207 0)
(0.0301806 0.00160755 0)
(0.0329844 0.00145183 0)
(0.0358656 0.00131384 0)
(0.0388165 0.00119205 0)
(0.0418281 0.00108633 0)
(0.0448922 0.00099526 0)
(0.0479986 0.00092064 0)
(0.0511414 0.000860697 0)
(0.0543119 0.000821011 0)
(0.0575108 0.000800905 0)
(0.0607443 0.000809127 0)
(0.0638017 0.000844552 0)
(-0.00778459 -0.000301211 0)
(-0.0077485 -0.000433872 0)
(-0.00770731 -0.00108877 0)
(-0.00766791 -0.00139854 0)
(-0.00762726 -0.00171049 0)
(-0.00758677 -0.00196458 0)
(-0.00755381 -0.00198563 0)
(-0.00750785 -0.0023639 0)
(-0.00750578 -0.00157618 0)
(-0.00742623 -0.00284145 0)
(-0.00745414 -0.000302875 0)
(-0.00733143 -0.00369656 0)
(-0.00737118 0.00189412 0)
(-0.00717181 -0.00550113 0)
(-0.00610086 0.0159131 0)
(-0.00506486 0.0392653 0)
(-0.0049828 0.0395254 0)
(-0.00495601 0.0395049 0)
(-0.00492863 0.0395049 0)
(-0.00490597 0.0395041 0)
(-0.00488704 0.0395039 0)
(-0.00487156 0.0395039 0)
(-0.00485923 0.0395041 0)
(-0.00484987 0.0395045 0)
(-0.00484329 0.039505 0)
(-0.00483939 0.0395054 0)
(-0.00483807 0.0395058 0)
(-0.00483928 0.039506 0)
(-0.00484301 0.0395061 0)
(-0.00484928 0.0395059 0)
(-0.00485818 0.0395054 0)
(-0.00486982 0.0395046 0)
(-0.00488443 0.0395032 0)
(-0.00490232 0.0395013 0)
(-0.00492366 0.0394986 0)
(-0.00494104 0.0394945 0)
(-0.00500043 0.039486 0)
(-0.00504233 0.0394783 0)
(-0.00504602 0.0394757 0)
(-0.00504608 0.0394756 0)
(-0.00504608 0.0394755 0)
(-0.00504608 0.0394755 0)
(-0.00504608 0.0394755 0)
(-0.00504608 0.0394756 0)
(-0.00504608 0.0394755 0)
(-0.00504608 0.0394756 0)
(-0.00504608 0.0394755 0)
(-0.00504608 0.0394756 0)
(-0.00504608 0.0394755 0)
(-0.00504608 0.0394756 0)
(-0.00504608 0.0394755 0)
(-0.00504608 0.0394756 0)
(-0.00504608 0.0394755 0)
(-0.00504608 0.0394756 0)
(-0.00504608 0.0394755 0)
(-0.00504608 0.0394756 0)
(-0.00504608 0.0394755 0)
(-0.00504608 0.0394756 0)
(-0.00504608 0.0394755 0)
(-0.00504608 0.0394756 0)
(-0.00504608 0.0394755 0)
(-0.00504608 0.0394756 0)
(-0.00504608 0.0394755 0)
(-0.00504608 0.0394756 0)
(-0.00504608 0.0394755 0)
(-0.00504608 0.0394756 0)
(-0.00504608 0.0394755 0)
(-0.00504608 0.0394756 0)
(-0.00504608 0.0394755 0)
(-0.00504608 0.0394756 0)
(-0.00504608 0.0394755 0)
(-0.00504608 0.0394756 0)
(-0.00504608 0.0394755 0)
(-0.00504608 0.0394756 0)
(-0.00504608 0.0394755 0)
(-0.00504608 0.0394756 0)
(-0.00504608 0.0394755 0)
(-0.00504608 0.0394756 0)
(-0.00504608 0.0394755 0)
(-0.00504608 0.0394756 0)
(-0.00504608 0.0394755 0)
(-0.00504608 0.0394756 0)
(-0.00504608 0.0394755 0)
(-0.00504608 0.0394756 0)
(-0.00504608 0.0394755 0)
(-0.00504608 0.0394756 0)
(-0.00504608 0.0394755 0)
(-0.00504608 0.0394756 0)
(-0.00504608 0.0394755 0)
(-0.00504608 0.0394756 0)
(-0.00504608 0.0394755 0)
(-0.00504608 0.0394756 0)
(-0.00504608 0.0394755 0)
(-0.00504608 0.0394756 0)
(-0.00504608 0.0394755 0)
(-0.00504608 0.0394756 0)
(-0.00504608 0.0394755 0)
(-0.00504608 0.0394756 0)
(-0.00504608 0.0394755 0)
(-0.00504608 0.0394756 0)
(-0.00504608 0.0394755 0)
(-0.00504608 0.0394756 0)
(-0.00504608 0.0394755 0)
(-0.00504608 0.0394756 0)
(-0.00504608 0.0394755 0)
(-0.00504608 0.0394756 0)
(-0.00504608 0.0394755 0)
(-0.00504608 0.0394756 0)
(-0.00504608 0.0394755 0)
(-0.00504608 0.0394756 0)
(-0.00504608 0.0394755 0)
(-0.00504608 0.0394756 0)
(-0.00504608 0.0394755 0)
(-0.00504608 0.0394756 0)
(-0.00504608 0.0394755 0)
(-0.00504608 0.0394756 0)
(-0.00504608 0.0394755 0)
(-0.00504608 0.0394756 0)
(-0.00504608 0.0394755 0)
(-0.00504614 0.0394753 0)
(-0.00504754 0.0394668 0)
(-0.00508183 0.0391205 0)
(-0.00587428 0.0223546 0)
)
;

boundaryField
{
    inandouthalf11
    {
        type            cyclic;
    }
    inandouthalf12
    {
        type            cyclic;
    }
    inandouthalf21
    {
        type            cyclic;
    }
    inandouthalf22
    {
        type            cyclic;
    }
    inandouthalf31
    {
        type            cyclic;
    }
    inandouthalf32
    {
        type            cyclic;
    }
    inandouthalf41
    {
        type            cyclic;
    }
    inandouthalf42
    {
        type            cyclic;
    }
    top
    {
        type            symmetryPlane;
    }
    walls
    {
        type            calculated;
        value           uniform (0 0 0);
    }
    frontAndBackPlanes
    {
        type            empty;
    }
}


// ************************************************************************* //
