/*--------------------------------*- C++ -*----------------------------------*\
| =========                 |                                                 |
| \\      /  F ield         | OpenFOAM: The Open Source CFD Toolbox           |
|  \\    /   O peration     | Version:  2.4.x                                 |
|   \\  /    A nd           | Web:      www.OpenFOAM.org                      |
|    \\/     M anipulation  |                                                 |
\*---------------------------------------------------------------------------*/
FoamFile
{
    version     2.0;
    format      ascii;
    class       surfaceScalarField;
    location    "9.7";
    object      ddt0(phib);
}
// * * * * * * * * * * * * * * * * * * * * * * * * * * * * * * * * * * * * * //

dimensions      [0 3 -2 0 0 0 0];

internalField   nonuniform List<scalar> 
359
(
-4.24006e-14
-1.0734e-13
-1.703e-13
-2.34208e-13
-3.03194e-13
-3.77007e-13
-4.54744e-13
-5.36181e-13
-6.21396e-13
-7.10606e-13
-8.03931e-13
-9.01316e-13
-1.00266e-12
-1.10793e-12
-1.217e-12
-1.32979e-12
-1.44618e-12
-1.56607e-12
-1.6893e-12
-1.81567e-12
-1.94506e-12
-2.07735e-12
-2.21234e-12
-2.34991e-12
-2.48989e-12
-2.6321e-12
-2.77639e-12
-2.92265e-12
-3.07071e-12
-3.22037e-12
-3.37151e-12
-3.52397e-12
-3.67752e-12
-3.83209e-12
-3.98742e-12
-4.1434e-12
-4.29978e-12
-4.45642e-12
-4.61323e-12
-4.76988e-12
-4.92623e-12
-5.08215e-12
-5.23732e-12
-5.39169e-12
-5.54497e-12
-5.69699e-12
-5.84752e-12
-5.99637e-12
-6.14331e-12
-6.28829e-12
-6.43094e-12
-6.57113e-12
-6.70867e-12
-6.84341e-12
-6.97511e-12
-7.1037e-12
-7.2289e-12
-7.3507e-12
-7.46885e-12
-7.58325e-12
-7.69381e-12
-7.80046e-12
-7.90314e-12
-8.00173e-12
-8.0962e-12
-8.18651e-12
-8.27262e-12
-8.35457e-12
-8.43231e-12
-8.50589e-12
-8.57537e-12
-8.64081e-12
-8.70225e-12
-8.75988e-12
-8.81367e-12
-8.8638e-12
-8.91037e-12
-8.95341e-12
-8.99314e-12
-9.02968e-12
-9.06313e-12
-9.09366e-12
-9.12138e-12
-9.14648e-12
-9.1691e-12
-9.18941e-12
-9.20747e-12
-9.2235e-12
-9.23757e-12
-9.24985e-12
-9.26045e-12
-9.26954e-12
-9.27714e-12
-9.28343e-12
-9.28852e-12
-9.29247e-12
-9.2954e-12
-9.29746e-12
-9.29862e-12
-9.29902e-12
-9.29872e-12
-9.29778e-12
-9.2962e-12
-9.29414e-12
-9.29155e-12
-9.28845e-12
-9.28489e-12
-9.28096e-12
-9.27659e-12
-9.27182e-12
-9.2667e-12
-9.26124e-12
-9.25544e-12
-9.2494e-12
-9.24302e-12
-9.23647e-12
-9.22967e-12
-9.22267e-12
-9.21537e-12
-9.20775e-12
-9.19965e-12
-9.19091e-12
-9.18135e-12
-9.17083e-12
-9.15921e-12
-9.14661e-12
-9.13297e-12
-9.11846e-12
-9.10287e-12
-9.08576e-12
-9.06594e-12
-9.04184e-12
-9.01114e-12
-8.97164e-12
-8.92238e-12
-8.86655e-12
-8.8137e-12
-8.77657e-12
-8.75973e-12
-8.75335e-12
-8.74482e-12
-8.66652e-12
-8.392e-12
9.52104e-12
-3.98823e-07
-1.51033e-07
-5.87857e-08
-2.70748e-08
-2.49441e-09
8.31555e-09
1.15144e-08
1.13337e-08
9.87823e-09
8.11883e-09
6.48595e-09
5.0938e-09
3.99625e-09
3.12771e-09
2.47508e-09
1.9844e-09
1.62431e-09
1.36269e-09
1.16729e-09
1.02337e-09
9.14941e-10
8.35044e-10
7.73307e-10
7.25401e-10
6.86063e-10
6.52744e-10
6.23118e-10
5.9557e-10
5.68885e-10
5.42691e-10
5.16539e-10
4.90097e-10
4.63292e-10
4.36273e-10
4.09051e-10
3.81782e-10
3.5452e-10
3.274e-10
3.00472e-10
2.73817e-10
2.47425e-10
2.21247e-10
1.95189e-10
1.69312e-10
1.44253e-10
1.21968e-10
1.05236e-10
9.82306e-11
9.57476e-11
9.2869e-11
8.97733e-11
8.63381e-11
8.25546e-11
7.84948e-11
7.42218e-11
6.97891e-11
6.5244e-11
6.05342e-11
5.56941e-11
5.07582e-11
4.57576e-11
4.07142e-11
3.56337e-11
3.05043e-11
2.53134e-11
2.00929e-11
1.49763e-11
1.02258e-11
6.17609e-12
3.09759e-12
1.06755e-12
-5.22326e-14
-5.25263e-13
-6.20297e-13
-5.38263e-13
-3.98919e-13
-2.61132e-13
-1.47433e-13
-6.26384e-14
-3.99131e-15
3.34528e-14
5.47408e-14
6.48889e-14
6.71663e-14
6.46186e-14
5.99742e-14
5.29944e-14
4.71173e-14
3.99724e-14
3.54896e-14
2.88474e-14
2.29541e-14
2.82695e-14
2.88637e-14
2.51378e-14
2.07216e-14
1.63626e-14
1.27258e-14
9.76675e-15
7.59905e-15
5.84799e-15
5.15333e-15
3.36626e-15
4.35039e-15
2.40965e-15
2.01258e-15
1.79282e-15
2.27141e-15
2.1473e-15
2.08895e-15
1.96272e-15
1.89137e-15
1.76801e-15
1.68484e-15
1.54155e-15
1.45764e-15
1.32278e-15
1.21798e-15
1.06481e-15
9.62401e-16
8.7488e-16
8.28199e-16
7.57426e-16
6.87448e-16
6.22274e-16
5.55548e-16
4.75731e-16
3.84401e-16
3.39402e-16
2.87969e-16
2.46983e-16
1.936e-16
1.49446e-16
1.0053e-16
5.62137e-17
-7.90964e-18
-1.15709e-17
-3.48171e-17
-5.55374e-17
-7.5221e-17
-7.83998e-17
-8.38659e-17
-9.39904e-17
-1.09471e-16
-9.63818e-17
-9.8906e-17
-1.03635e-16
-1.24222e-16
-1.0557e-16
-1.29181e-16
-1.71607e-16
-3.3301e-16
-2.35667e-16
-2.81657e-16
-3.39163e-16
-4.45603e-16
-5.19682e-16
-6.00031e-16
-6.71912e-16
-7.69063e-16
-8.58265e-16
-9.55658e-16
-1.05339e-15
-1.14146e-15
-1.22646e-15
-1.30563e-15
-1.37415e-15
-1.43422e-15
-1.54702e-15
-1.65067e-15
-1.75925e-15
-1.82809e-15
-1.93823e-15
-2.01003e-15
-2.07214e-15
-2.11774e-15
-2.28586e-15
-2.39026e-15
-2.52058e-15
-2.61268e-15
-2.81086e-15
-3.00993e-15
-3.41164e-15
-4.48486e-15
-6.49143e-15
-8.97447e-15
-1.16087e-14
-1.38023e-14
-1.65645e-14
-1.84917e-14
-2.04538e-14
-2.15318e-14
-2.42892e-14
-2.58514e-14
-2.73931e-14
-2.734e-14
-2.85368e-14
-2.79379e-14
-2.74324e-14
-2.55494e-14
-2.68632e-14
-2.65642e-14
-2.63396e-14
-2.38043e-14
-2.28444e-14
-1.95841e-14
-1.6195e-14
-1.05693e-14
-7.3037e-15
-2.46232e-15
2.53676e-15
9.40669e-15
1.46935e-14
2.32595e-14
3.50304e-14
)
;

boundaryField
{
    inandouthalf11
    {
        type            cyclic;
        value           nonuniform List<scalar> 
100
(
2.51861e-10
2.50467e-10
2.50285e-10
2.5048e-10
2.50576e-10
2.50611e-10
2.50654e-10
2.50707e-10
2.50762e-10
2.50817e-10
2.50872e-10
2.50928e-10
2.50985e-10
2.51042e-10
2.511e-10
2.51158e-10
2.51218e-10
2.51278e-10
2.51339e-10
2.51401e-10
2.51464e-10
2.51527e-10
2.51592e-10
2.51657e-10
2.51723e-10
2.51791e-10
2.51858e-10
2.51927e-10
2.51997e-10
2.52067e-10
2.52139e-10
2.52212e-10
2.52284e-10
2.52359e-10
2.52434e-10
2.5251e-10
2.52587e-10
2.52665e-10
2.52744e-10
2.52823e-10
2.52904e-10
2.52985e-10
2.53067e-10
2.53151e-10
2.53235e-10
2.5332e-10
2.53406e-10
2.53493e-10
2.53581e-10
2.5367e-10
2.53759e-10
2.5385e-10
2.53942e-10
2.54035e-10
2.54128e-10
2.54223e-10
2.54317e-10
2.54414e-10
2.54511e-10
2.54609e-10
2.54709e-10
2.54808e-10
2.5491e-10
2.55012e-10
2.55115e-10
2.55219e-10
2.55324e-10
2.55431e-10
2.55538e-10
2.55646e-10
2.55756e-10
2.55867e-10
2.55978e-10
2.56091e-10
2.56206e-10
2.56322e-10
2.56438e-10
2.56557e-10
2.56676e-10
2.56798e-10
2.5692e-10
2.57044e-10
2.5717e-10
2.57298e-10
2.57427e-10
2.57558e-10
2.57691e-10
2.57826e-10
2.57963e-10
2.58102e-10
2.58243e-10
2.58387e-10
2.58532e-10
2.58681e-10
2.58832e-10
2.58985e-10
2.59141e-10
2.593e-10
2.59463e-10
2.59628e-10
)
;
    }
    inandouthalf12
    {
        type            cyclic;
        value           nonuniform List<scalar> 
100
(
-2.51861e-10
-2.50467e-10
-2.50285e-10
-2.5048e-10
-2.50576e-10
-2.50611e-10
-2.50654e-10
-2.50707e-10
-2.50762e-10
-2.50817e-10
-2.50872e-10
-2.50928e-10
-2.50985e-10
-2.51042e-10
-2.511e-10
-2.51158e-10
-2.51218e-10
-2.51278e-10
-2.51339e-10
-2.51401e-10
-2.51464e-10
-2.51527e-10
-2.51592e-10
-2.51657e-10
-2.51723e-10
-2.51791e-10
-2.51858e-10
-2.51927e-10
-2.51997e-10
-2.52067e-10
-2.52139e-10
-2.52212e-10
-2.52284e-10
-2.52359e-10
-2.52434e-10
-2.5251e-10
-2.52587e-10
-2.52665e-10
-2.52744e-10
-2.52823e-10
-2.52904e-10
-2.52985e-10
-2.53067e-10
-2.53151e-10
-2.53235e-10
-2.5332e-10
-2.53406e-10
-2.53493e-10
-2.53581e-10
-2.5367e-10
-2.53759e-10
-2.5385e-10
-2.53942e-10
-2.54035e-10
-2.54128e-10
-2.54223e-10
-2.54317e-10
-2.54414e-10
-2.54511e-10
-2.54609e-10
-2.54709e-10
-2.54808e-10
-2.5491e-10
-2.55012e-10
-2.55115e-10
-2.55219e-10
-2.55324e-10
-2.55431e-10
-2.55538e-10
-2.55646e-10
-2.55756e-10
-2.55867e-10
-2.55978e-10
-2.56091e-10
-2.56206e-10
-2.56322e-10
-2.56438e-10
-2.56557e-10
-2.56676e-10
-2.56798e-10
-2.5692e-10
-2.57044e-10
-2.5717e-10
-2.57298e-10
-2.57427e-10
-2.57558e-10
-2.57691e-10
-2.57826e-10
-2.57963e-10
-2.58102e-10
-2.58243e-10
-2.58387e-10
-2.58532e-10
-2.58681e-10
-2.58832e-10
-2.58985e-10
-2.59141e-10
-2.593e-10
-2.59463e-10
-2.59628e-10
)
;
    }
    inandouthalf21
    {
        type            cyclic;
        value           nonuniform List<scalar> 
100
(
2.59796e-10
2.59968e-10
2.60144e-10
2.60323e-10
2.60506e-10
2.60693e-10
2.60884e-10
2.61079e-10
2.6128e-10
2.61485e-10
2.61694e-10
2.6191e-10
2.6213e-10
2.62357e-10
2.62589e-10
2.62827e-10
2.63073e-10
2.63325e-10
2.63584e-10
2.63852e-10
2.64127e-10
2.64411e-10
2.64705e-10
2.65008e-10
2.65321e-10
2.65645e-10
2.65981e-10
2.6633e-10
2.66693e-10
2.6707e-10
2.67463e-10
2.67873e-10
2.68299e-10
2.68749e-10
2.69224e-10
2.69728e-10
2.70258e-10
2.70827e-10
2.71466e-10
2.72204e-10
2.73004e-10
2.73943e-10
2.84037e-10
2.95934e-10
7.51463e-09
1.25136e-06
6.22663e-07
4.97932e-07
4.95879e-07
5.22355e-07
5.54283e-07
5.85389e-07
6.14237e-07
6.40769e-07
6.65254e-07
6.87996e-07
7.09253e-07
7.29221e-07
7.48049e-07
7.65846e-07
7.82701e-07
7.98682e-07
8.13848e-07
8.28251e-07
8.41938e-07
8.5495e-07
8.67327e-07
8.79107e-07
8.90323e-07
9.01008e-07
9.11191e-07
9.20902e-07
9.30167e-07
9.39011e-07
9.47457e-07
9.55526e-07
9.6324e-07
9.70615e-07
9.77671e-07
9.84424e-07
9.90887e-07
9.97075e-07
1.003e-06
1.00867e-06
1.01411e-06
1.01931e-06
1.02429e-06
1.02905e-06
1.0336e-06
1.03794e-06
1.04208e-06
1.04603e-06
1.04979e-06
1.05336e-06
1.05675e-06
1.05996e-06
1.063e-06
1.06585e-06
1.06853e-06
1.07103e-06
)
;
    }
    inandouthalf22
    {
        type            cyclic;
        value           nonuniform List<scalar> 
100
(
-2.59796e-10
-2.59968e-10
-2.60144e-10
-2.60323e-10
-2.60506e-10
-2.60693e-10
-2.60884e-10
-2.61079e-10
-2.6128e-10
-2.61485e-10
-2.61694e-10
-2.6191e-10
-2.6213e-10
-2.62357e-10
-2.62589e-10
-2.62827e-10
-2.63073e-10
-2.63325e-10
-2.63584e-10
-2.63852e-10
-2.64127e-10
-2.64411e-10
-2.64705e-10
-2.65008e-10
-2.65321e-10
-2.65645e-10
-2.65981e-10
-2.6633e-10
-2.66693e-10
-2.6707e-10
-2.67463e-10
-2.67873e-10
-2.68299e-10
-2.68749e-10
-2.69224e-10
-2.69728e-10
-2.70258e-10
-2.70827e-10
-2.71466e-10
-2.72204e-10
-2.73004e-10
-2.73943e-10
-2.84037e-10
-2.95934e-10
-7.51463e-09
-1.25136e-06
-6.22663e-07
-4.97932e-07
-4.95879e-07
-5.22355e-07
-5.54283e-07
-5.85389e-07
-6.14237e-07
-6.40769e-07
-6.65254e-07
-6.87996e-07
-7.09253e-07
-7.29221e-07
-7.48049e-07
-7.65846e-07
-7.82701e-07
-7.98682e-07
-8.13848e-07
-8.28251e-07
-8.41938e-07
-8.5495e-07
-8.67327e-07
-8.79107e-07
-8.90323e-07
-9.01008e-07
-9.11191e-07
-9.20902e-07
-9.30167e-07
-9.39011e-07
-9.47457e-07
-9.55526e-07
-9.6324e-07
-9.70615e-07
-9.77671e-07
-9.84424e-07
-9.90887e-07
-9.97075e-07
-1.003e-06
-1.00867e-06
-1.01411e-06
-1.01931e-06
-1.02429e-06
-1.02905e-06
-1.0336e-06
-1.03794e-06
-1.04208e-06
-1.04603e-06
-1.04979e-06
-1.05336e-06
-1.05675e-06
-1.05996e-06
-1.063e-06
-1.06585e-06
-1.06853e-06
-1.07103e-06
)
;
    }
    inandouthalf31
    {
        type            cyclic;
        value           nonuniform List<scalar> 
110
(
1.07335e-06
1.09733e-06
1.12168e-06
1.14639e-06
1.17142e-06
1.19676e-06
1.22238e-06
1.24823e-06
1.27426e-06
1.30044e-06
1.32669e-06
1.35294e-06
1.37911e-06
1.40509e-06
1.43079e-06
1.45609e-06
1.48086e-06
1.505e-06
1.52839e-06
1.55094e-06
1.57259e-06
1.59336e-06
1.6133e-06
1.63259e-06
1.65148e-06
1.67029e-06
1.68942e-06
1.70925e-06
1.73012e-06
1.7523e-06
1.77597e-06
1.80121e-06
1.82801e-06
1.85633e-06
1.88609e-06
1.91721e-06
1.9496e-06
1.98317e-06
2.01788e-06
2.05367e-06
2.09051e-06
2.12837e-06
2.16724e-06
2.20711e-06
2.24799e-06
2.28988e-06
2.3328e-06
2.37676e-06
2.42178e-06
2.46789e-06
2.51509e-06
2.56343e-06
2.61294e-06
2.66365e-06
2.71561e-06
2.76885e-06
2.82342e-06
2.87939e-06
2.93682e-06
2.99577e-06
3.05634e-06
3.1186e-06
3.18265e-06
3.24861e-06
3.31659e-06
3.38669e-06
3.45903e-06
3.53366e-06
3.6106e-06
3.68989e-06
3.77051e-06
3.84819e-06
3.92633e-06
4.00602e-06
4.08734e-06
4.1703e-06
4.25494e-06
4.34131e-06
4.42942e-06
4.51933e-06
4.61106e-06
4.70465e-06
4.80014e-06
4.89757e-06
4.99698e-06
5.09841e-06
5.20189e-06
5.30748e-06
5.4152e-06
5.52512e-06
5.63726e-06
5.75169e-06
5.86843e-06
5.98754e-06
6.10907e-06
6.23307e-06
6.35959e-06
6.48867e-06
6.62037e-06
6.75475e-06
6.89185e-06
7.03174e-06
7.17446e-06
7.32009e-06
7.46866e-06
7.62026e-06
7.77493e-06
7.93274e-06
8.09375e-06
8.25803e-06
)
;
    }
    inandouthalf32
    {
        type            cyclic;
        value           nonuniform List<scalar> 
110
(
-1.07335e-06
-1.09733e-06
-1.12168e-06
-1.14639e-06
-1.17142e-06
-1.19676e-06
-1.22238e-06
-1.24823e-06
-1.27426e-06
-1.30044e-06
-1.32669e-06
-1.35294e-06
-1.37911e-06
-1.40509e-06
-1.43079e-06
-1.45609e-06
-1.48086e-06
-1.505e-06
-1.52839e-06
-1.55094e-06
-1.57259e-06
-1.59336e-06
-1.6133e-06
-1.63259e-06
-1.65148e-06
-1.67029e-06
-1.68942e-06
-1.70925e-06
-1.73012e-06
-1.7523e-06
-1.77597e-06
-1.80121e-06
-1.82801e-06
-1.85633e-06
-1.88609e-06
-1.91721e-06
-1.9496e-06
-1.98317e-06
-2.01788e-06
-2.05367e-06
-2.09051e-06
-2.12837e-06
-2.16724e-06
-2.20711e-06
-2.24799e-06
-2.28988e-06
-2.3328e-06
-2.37676e-06
-2.42178e-06
-2.46789e-06
-2.51509e-06
-2.56343e-06
-2.61294e-06
-2.66365e-06
-2.71561e-06
-2.76885e-06
-2.82342e-06
-2.87939e-06
-2.93682e-06
-2.99577e-06
-3.05634e-06
-3.1186e-06
-3.18265e-06
-3.24861e-06
-3.31659e-06
-3.38669e-06
-3.45903e-06
-3.53366e-06
-3.6106e-06
-3.68989e-06
-3.77051e-06
-3.84819e-06
-3.92633e-06
-4.00602e-06
-4.08734e-06
-4.1703e-06
-4.25494e-06
-4.34131e-06
-4.42942e-06
-4.51933e-06
-4.61106e-06
-4.70465e-06
-4.80014e-06
-4.89757e-06
-4.99698e-06
-5.09841e-06
-5.20189e-06
-5.30748e-06
-5.4152e-06
-5.52512e-06
-5.63726e-06
-5.75169e-06
-5.86843e-06
-5.98754e-06
-6.10907e-06
-6.23307e-06
-6.35959e-06
-6.48867e-06
-6.62037e-06
-6.75475e-06
-6.89185e-06
-7.03174e-06
-7.17446e-06
-7.32009e-06
-7.46866e-06
-7.62026e-06
-7.77493e-06
-7.93274e-06
-8.09375e-06
-8.25803e-06
)
;
    }
    inandouthalf41
    {
        type            cyclic;
        value           nonuniform List<scalar> 
50
(
7.39178e-06
7.39178e-06
7.39178e-06
7.39178e-06
7.39178e-06
7.39178e-06
7.39178e-06
7.39178e-06
7.39178e-06
7.39178e-06
7.39178e-06
7.39178e-06
7.39178e-06
7.39178e-06
7.39178e-06
7.39178e-06
7.39178e-06
7.39178e-06
7.39178e-06
7.39178e-06
7.39178e-06
7.39178e-06
7.39178e-06
7.39178e-06
7.39178e-06
7.39178e-06
7.39178e-06
7.39178e-06
7.39178e-06
7.39178e-06
7.39178e-06
7.39178e-06
7.39178e-06
7.39178e-06
7.39178e-06
7.39178e-06
7.39178e-06
7.39178e-06
7.39178e-06
7.39178e-06
7.39178e-06
7.39178e-06
7.39178e-06
7.39178e-06
7.39178e-06
7.39178e-06
7.39178e-06
7.39178e-06
7.39178e-06
7.39178e-06
)
;
    }
    inandouthalf42
    {
        type            cyclic;
        value           nonuniform List<scalar> 
50
(
-7.39178e-06
-7.39178e-06
-7.39178e-06
-7.39178e-06
-7.39178e-06
-7.39178e-06
-7.39178e-06
-7.39178e-06
-7.39178e-06
-7.39178e-06
-7.39178e-06
-7.39178e-06
-7.39178e-06
-7.39178e-06
-7.39178e-06
-7.39178e-06
-7.39178e-06
-7.39178e-06
-7.39178e-06
-7.39178e-06
-7.39178e-06
-7.39178e-06
-7.39178e-06
-7.39178e-06
-7.39178e-06
-7.39178e-06
-7.39178e-06
-7.39178e-06
-7.39178e-06
-7.39178e-06
-7.39178e-06
-7.39178e-06
-7.39178e-06
-7.39178e-06
-7.39178e-06
-7.39178e-06
-7.39178e-06
-7.39178e-06
-7.39178e-06
-7.39178e-06
-7.39178e-06
-7.39178e-06
-7.39178e-06
-7.39178e-06
-7.39178e-06
-7.39178e-06
-7.39178e-06
-7.39178e-06
-7.39178e-06
-7.39178e-06
)
;
    }
    top
    {
        type            symmetryPlane;
        value           uniform 0;
    }
    walls
    {
        type            calculated;
        value           uniform 0;
    }
    frontAndBackPlanes
    {
        type            empty;
        value           nonuniform 0();
    }
}


// ************************************************************************* //
