/*--------------------------------*- C++ -*----------------------------------*\
| =========                 |                                                 |
| \\      /  F ield         | OpenFOAM: The Open Source CFD Toolbox           |
|  \\    /   O peration     | Version:  2.4.x                                 |
|   \\  /    A nd           | Web:      www.OpenFOAM.org                      |
|    \\/     M anipulation  |                                                 |
\*---------------------------------------------------------------------------*/
FoamFile
{
    version     2.0;
    format      ascii;
    class       volScalarField;
    location    "9.7";
    object      ddt0(alpha);
}
// * * * * * * * * * * * * * * * * * * * * * * * * * * * * * * * * * * * * * //

dimensions      [0 0 -1 0 0 0 0];

internalField   nonuniform List<scalar> 
360
(
1.24432e-05
1.85498e-05
1.66644e-05
1.55522e-05
1.56904e-05
1.58408e-05
1.5812e-05
1.57902e-05
1.58516e-05
1.59982e-05
1.6204e-05
1.64448e-05
1.67146e-05
1.7006e-05
1.73183e-05
1.76499e-05
1.79965e-05
1.8353e-05
1.87164e-05
1.90884e-05
1.94591e-05
1.98358e-05
2.0213e-05
2.05898e-05
2.09654e-05
2.1338e-05
2.17052e-05
2.2072e-05
2.24319e-05
2.27845e-05
2.31293e-05
2.34716e-05
2.37953e-05
2.41234e-05
2.44307e-05
2.47328e-05
2.5019e-05
2.52978e-05
2.55691e-05
2.58124e-05
2.60586e-05
2.6284e-05
2.64871e-05
2.66903e-05
2.68691e-05
2.70357e-05
2.71876e-05
2.73085e-05
2.74237e-05
2.75323e-05
2.7605e-05
2.76713e-05
2.77135e-05
2.77454e-05
2.7747e-05
2.77484e-05
2.77132e-05
2.76722e-05
2.76054e-05
2.75113e-05
2.74217e-05
2.72993e-05
2.71751e-05
2.70251e-05
2.68614e-05
2.66765e-05
2.64808e-05
2.62683e-05
2.6037e-05
2.57852e-05
2.55351e-05
2.52762e-05
2.49896e-05
2.47079e-05
2.44114e-05
2.4113e-05
2.37931e-05
2.34639e-05
2.31269e-05
2.27832e-05
2.24294e-05
2.20738e-05
2.17165e-05
2.13566e-05
2.09952e-05
2.063e-05
2.02619e-05
1.98878e-05
1.95086e-05
1.91261e-05
1.87412e-05
1.83553e-05
1.79708e-05
1.75882e-05
1.72074e-05
1.68284e-05
1.64505e-05
1.60734e-05
1.56969e-05
1.53217e-05
1.49482e-05
1.45771e-05
1.42092e-05
1.38449e-05
1.34846e-05
1.31284e-05
1.27761e-05
1.24276e-05
1.20826e-05
1.17406e-05
1.14014e-05
1.10644e-05
1.07293e-05
1.03959e-05
1.00642e-05
9.73451e-06
9.40695e-06
9.08158e-06
8.75776e-06
8.43372e-06
8.10591e-06
7.76857e-06
7.41381e-06
7.0323e-06
6.61519e-06
6.15678e-06
5.65755e-06
5.1264e-06
4.58098e-06
4.04601e-06
3.54967e-06
3.1183e-06
2.76994e-06
2.50703e-06
2.30135e-06
2.06545e-06
1.6477e-06
9.23554e-07
-3.54276e-08
-8.97e-07
-1.41761e-06
-2.66596e-05
5.57138e-06
-1.673e-05
0.43424
1.25752
0.274989
0.119256
0.00235905
-0.0701995
-0.111816
-0.129363
-0.135164
-0.134695
-0.130748
-0.124793
-0.117722
-0.110007
-0.102072
-0.0941382
-0.0863883
-0.0789497
-0.0718923
-0.0652708
-0.0591063
-0.0534091
-0.0481638
-0.0433558
-0.0389596
-0.0349509
-0.0313015
-0.0279844
-0.0249733
-0.0222436
-0.0197713
-0.0175332
-0.0155095
-0.0136813
-0.0120306
-0.0105412
-0.00919794
-0.00798712
-0.00689591
-0.00591268
-0.00502608
-0.00422521
-0.00349925
-0.00283986
-0.00224768
-0.00174127
-0.00135191
-0.00113082
-0.00102596
-0.000935562
-0.000840035
-0.000744671
-0.000649722
-0.000557034
-0.000468101
-0.000383845
-0.000304826
-0.00023058
-0.000160776
-9.5739e-05
-3.56209e-05
1.97007e-05
7.07578e-05
0.000118504
0.000163964
0.000207362
0.000246994
0.000278663
0.000296732
0.000296877
0.000278885
0.000247213
0.000208843
0.000170295
0.000135786
0.00010706
8.41785e-05
6.63905e-05
5.27063e-05
4.2199e-05
3.40945e-05
2.77882e-05
2.28432e-05
1.88314e-05
1.56886e-05
1.29228e-05
1.08462e-05
8.84257e-06
7.45004e-06
5.93132e-06
5.071e-06
3.83745e-06
4.56598e-06
3.42053e-06
2.20374e-06
1.47371e-06
9.69842e-07
6.46371e-07
4.30616e-07
2.87642e-07
1.92756e-07
1.28081e-07
8.82417e-08
5.40833e-08
4.22751e-08
1.79569e-08
3.06876e-08
-1.92703e-37
-9.43003e-50
-1.38239e-53
-7.01428e-54
-4.07608e-54
-1.86033e-54
-1.01249e-54
-6.26099e-55
-2.88064e-55
-1.46253e-55
-7.67267e-56
-3.76895e-56
-1.8753e-56
-9.18347e-57
-4.42406e-57
-2.09552e-57
-9.75408e-58
-4.45927e-58
-2.00109e-58
-8.80914e-59
-3.80064e-59
-1.60638e-59
-6.64755e-60
-2.69136e-60
-1.06521e-60
-4.11804e-61
-1.55364e-61
-5.71491e-62
-2.04751e-62
-7.13737e-63
-2.41794e-63
-7.95087e-64
-2.53437e-64
-7.81971e-65
-2.33189e-65
-6.70956e-66
-1.85933e-66
-4.95259e-67
-1.26524e-67
-3.09264e-68
-7.21353e-69
-1.6008e-69
-3.36862e-70
-6.69675e-71
-1.25233e-71
-2.19228e-72
-3.57213e-73
-5.38184e-74
-7.4383e-75
-9.34141e-76
-1.0535e-76
-1.05121e-77
-9.10226e-79
-6.66162e-80
-3.96757e-81
-1.81237e-82
-5.71003e-84
-9.67504e-86
-1.61669e-88
-2.2379e-94
-1.5595e-96
-5.38169e-99
-2.08299e-109
-4.09608e-120
-5.99519e-131
-6.37532e-142
-5.88761e-153
-4.19608e-164
-2.56422e-175
-7.29661e-186
-3.27881e-196
-2.07949e-204
-9.54001e-215
-7.15182e-223
-3.87142e-233
-2.46174e-241
-1.63241e-251
-8.48326e-260
-1.04444e-269
-2.99212e-278
-6.91894e-288
-1.09119e-296
-3.42237e-306
-4.31279e-315
8.26572e-321
0
0
0
0
0
0
0
0
0
0
0
0
0
0
0
0
0
0
0
0
0
0
0
0
)
;

boundaryField
{
    inandouthalf11
    {
        type            cyclic;
    }
    inandouthalf12
    {
        type            cyclic;
    }
    inandouthalf21
    {
        type            cyclic;
    }
    inandouthalf22
    {
        type            cyclic;
    }
    inandouthalf31
    {
        type            cyclic;
    }
    inandouthalf32
    {
        type            cyclic;
    }
    inandouthalf41
    {
        type            cyclic;
    }
    inandouthalf42
    {
        type            cyclic;
    }
    top
    {
        type            symmetryPlane;
    }
    walls
    {
        type            calculated;
        value           uniform 1.24432e-05;
    }
    frontAndBackPlanes
    {
        type            empty;
    }
}


// ************************************************************************* //
