/*--------------------------------*- C++ -*----------------------------------*\
| =========                 |                                                 |
| \\      /  F ield         | OpenFOAM: The Open Source CFD Toolbox           |
|  \\    /   O peration     | Version:  2.4.x                                 |
|   \\  /    A nd           | Web:      www.OpenFOAM.org                      |
|    \\/     M anipulation  |                                                 |
\*---------------------------------------------------------------------------*/
FoamFile
{
    version     2.0;
    format      ascii;
    class       volScalarField;
    location    "9.7";
    object      epsilon;
}
// * * * * * * * * * * * * * * * * * * * * * * * * * * * * * * * * * * * * * //

dimensions      [0 2 -3 0 0 0 0];

internalField   nonuniform List<scalar> 
360
(
1e-20
1e-20
1e-20
1e-20
1e-20
1e-20
1e-20
1e-20
1e-20
1e-20
1e-20
1e-20
1e-20
1e-20
1e-20
1e-20
1e-20
1e-20
1e-20
1e-20
1e-20
1e-20
1e-20
1e-20
1e-20
1e-20
1e-20
1e-20
1e-20
1e-20
1e-20
1e-20
1e-20
1e-20
1e-20
1e-20
1e-20
1e-20
1e-20
1e-20
1e-20
1e-20
1e-20
1e-20
1e-20
1e-20
1e-20
1e-20
1e-20
1e-20
1e-20
1e-20
1e-20
1e-20
1e-20
1e-20
1e-20
1e-20
1e-20
1e-20
1e-20
1e-20
1e-20
1e-20
1e-20
1e-20
1e-20
1e-20
1e-20
1e-20
1e-20
1e-20
1e-20
1e-20
1e-20
1e-20
1e-20
1e-20
1e-20
1e-20
1e-20
1e-20
1e-20
1e-20
1e-20
1e-20
1e-20
1e-20
1e-20
1e-20
1e-20
1e-20
1e-20
1e-20
1e-20
1e-20
1e-20
1e-20
1e-20
1e-20
1e-20
1e-20
1e-20
1e-20
1e-20
1e-20
1e-20
1e-20
1e-20
1e-20
1e-20
1e-20
1e-20
1e-20
1e-20
1e-20
1e-20
1e-20
1e-20
1e-20
1e-20
1e-20
1e-20
1e-20
1e-20
1e-20
2.43851e-20
1.2469e-19
6.64815e-19
3.47769e-18
1.78361e-17
9.01998e-17
4.54686e-16
2.32715e-15
1.24418e-14
7.21507e-14
4.71984e-13
3.58914e-12
3.24343e-11
3.58366e-10
5.02405e-09
9.19396e-08
2.21908e-06
6.79001e-05
0.00239031
0.0443673
0.12937
0.158389
0.167217
0.167778
0.164539
0.159435
0.153507
0.147342
0.141264
0.135442
0.129949
0.124809
0.120013
0.115542
0.111367
0.107459
0.103791
0.100335
0.097068
0.0939691
0.0910198
0.0882038
0.0855071
0.0829175
0.0804244
0.0780185
0.0756918
0.0734374
0.0712491
0.0691214
0.0670498
0.0650301
0.0630587
0.0611323
0.0592481
0.0574035
0.0555965
0.053825
0.0520873
0.0503819
0.0487075
0.0470628
0.045447
0.0438591
0.0422985
0.0407645
0.0392567
0.0377746
0.036318
0.0348865
0.0334802
0.0320988
0.0307424
0.0294112
0.0281051
0.0268116
0.025519
0.0242287
0.0229424
0.0216621
0.02039
0.0191284
0.0178799
0.0166477
0.0154349
0.0142454
0.0130831
0.0119524
0.0108581
0.00980516
0.00879878
0.00784421
0.00694663
0.00611084
0.00534105
0.00464055
0.00401138
0.00345405
0.00296738
0.00254843
0.00219266
0.00189427
0.00164666
0.00144292
0.00127628
0.0011405
0.00102999
0.000939974
0.000866438
0.000806067
0.000756159
0.000714515
0.000679353
0.000649223
0.00062294
0.000599535
0.000578207
0.000558293
0.000539244
0.000520608
0.00050201
0.000483146
0.000463775
0.00044371
0.000422816
0.000401005
0.000378236
0.000354511
0.000329874
0.000304412
0.000278256
0.000251576
0.000224584
0.000197534
0.000170718
0.000144467
0.000119145
9.51484e-05
7.28929e-05
5.28093e-05
3.53301e-05
2.08803e-05
9.88156e-06
2.73362e-06
2.25604e-07
3.99123e-09
4.2746e-11
4.32351e-13
4.18594e-15
3.88706e-17
3.54516e-19
1.16392e-20
1e-20
1e-20
1e-20
1e-20
1e-20
1e-20
1e-20
1e-20
1e-20
1e-20
1e-20
1e-20
1e-20
1e-20
1e-20
1e-20
1e-20
1e-20
1e-20
1e-20
1e-20
1e-20
1e-20
1e-20
1e-20
1e-20
1e-20
1e-20
1e-20
1e-20
1e-20
1e-20
1e-20
1e-20
1e-20
1e-20
1e-20
1e-20
1e-20
1e-20
1e-20
1e-20
1e-20
1e-20
1e-20
1e-20
1e-20
1e-20
1e-20
1e-20
1e-20
1e-20
1e-20
1e-20
1e-20
1e-20
1e-20
1e-20
1e-20
1e-20
1e-20
1e-20
1e-20
1e-20
1e-20
1e-20
1e-20
1e-20
1e-20
1e-20
1e-20
1e-20
1e-20
1e-20
1e-20
1e-20
1e-20
1e-20
1e-20
1e-20
1e-20
1e-20
)
;

boundaryField
{
    inandouthalf11
    {
        type            cyclic;
    }
    inandouthalf12
    {
        type            cyclic;
    }
    inandouthalf21
    {
        type            cyclic;
    }
    inandouthalf22
    {
        type            cyclic;
    }
    inandouthalf31
    {
        type            cyclic;
    }
    inandouthalf32
    {
        type            cyclic;
    }
    inandouthalf41
    {
        type            cyclic;
    }
    inandouthalf42
    {
        type            cyclic;
    }
    top
    {
        type            symmetryPlane;
    }
    walls
    {
        type            zeroGradient;
    }
    frontAndBackPlanes
    {
        type            empty;
    }
}


// ************************************************************************* //
