/*--------------------------------*- C++ -*----------------------------------*\
| =========                 |                                                 |
| \\      /  F ield         | OpenFOAM: The Open Source CFD Toolbox           |
|  \\    /   O peration     | Version:  2.4.x                                 |
|   \\  /    A nd           | Web:      www.OpenFOAM.org                      |
|    \\/     M anipulation  |                                                 |
\*---------------------------------------------------------------------------*/
FoamFile
{
    version     2.0;
    format      ascii;
    class       volScalarField;
    location    "9.7";
    object      epsilon_0;
}
// * * * * * * * * * * * * * * * * * * * * * * * * * * * * * * * * * * * * * //

dimensions      [0 2 -3 0 0 0 0];

internalField   nonuniform List<scalar> 
360
(
1.60309e-27
1e-20
1e-20
1e-20
1e-20
1e-20
1e-20
1e-20
1e-20
1e-20
1e-20
1e-20
1e-20
1e-20
1e-20
1e-20
1e-20
1e-20
1e-20
1e-20
1e-20
1e-20
1e-20
1e-20
1e-20
1e-20
1e-20
1e-20
1e-20
1e-20
1e-20
1e-20
1e-20
1e-20
1e-20
1e-20
1e-20
1e-20
1e-20
1e-20
1e-20
1e-20
1e-20
1e-20
1e-20
1e-20
1e-20
1e-20
1e-20
1e-20
1e-20
1e-20
1e-20
1e-20
1e-20
1e-20
1e-20
1e-20
1e-20
1e-20
1e-20
1e-20
1e-20
1e-20
1e-20
1e-20
1e-20
1e-20
1e-20
1e-20
1e-20
1e-20
1e-20
1e-20
1e-20
1e-20
1e-20
1e-20
1e-20
1e-20
1e-20
1e-20
1e-20
1e-20
1e-20
1e-20
1e-20
1e-20
1e-20
1e-20
1e-20
1e-20
1e-20
1e-20
1e-20
1e-20
1e-20
1e-20
1e-20
1e-20
1e-20
1e-20
1e-20
1e-20
1e-20
1e-20
1e-20
1e-20
1e-20
1e-20
1e-20
1e-20
1e-20
1e-20
1e-20
1e-20
1e-20
1e-20
1e-20
1e-20
1e-20
1e-20
1e-20
1e-20
1e-20
1e-20
2.43751e-20
1.24658e-19
6.64799e-19
3.47846e-18
1.78448e-17
9.02682e-17
4.5516e-16
2.33023e-15
1.24618e-14
7.22864e-14
4.73021e-13
3.59847e-12
3.25337e-11
3.59632e-10
5.04399e-09
9.23445e-08
2.22983e-06
6.82523e-05
0.00240201
0.0444944
0.129433
0.158488
0.16732
0.16787
0.16462
0.159506
0.15357
0.147399
0.141317
0.135491
0.129995
0.124852
0.120054
0.115581
0.111404
0.107495
0.103824
0.100367
0.0970984
0.0939981
0.0910474
0.0882301
0.0855321
0.0829412
0.0804469
0.0780399
0.0757121
0.0734566
0.0712672
0.0691386
0.067066
0.0650454
0.063073
0.0611457
0.0592607
0.0574154
0.0556075
0.0538353
0.0520968
0.0503907
0.0487156
0.0470703
0.0454538
0.0438653
0.0423041
0.0407696
0.0392612
0.0377785
0.0363213
0.0348894
0.0334825
0.0321007
0.0307439
0.0294122
0.0281058
0.0268119
0.0255188
0.0242281
0.0229416
0.021661
0.0203885
0.0191265
0.0178778
0.0166453
0.0154324
0.0142426
0.0130802
0.0119494
0.010855
0.00980202
0.00879563
0.00784112
0.00694363
0.00610798
0.00533836
0.00463807
0.00400914
0.00345206
0.00296565
0.00254695
0.00219143
0.00189326
0.00164585
0.00144227
0.00127579
0.00114012
0.00102971
0.000939769
0.000866295
0.000805974
0.000756104
0.000714491
0.000679352
0.00064924
0.000622972
0.000599576
0.000578255
0.000558345
0.000539299
0.000520663
0.000502065
0.000483199
0.000463825
0.000443757
0.000422859
0.000401043
0.000378269
0.000354538
0.000329896
0.00030443
0.000278268
0.000251583
0.000224587
0.000197532
0.000170712
0.000144458
0.000119134
9.51356e-05
7.28793e-05
5.27958e-05
3.53176e-05
2.08696e-05
9.87362e-06
2.72933e-06
2.24934e-07
3.97524e-09
4.25715e-11
4.30577e-13
4.16869e-15
3.871e-17
3.53083e-19
1.16282e-20
1e-20
1e-20
1e-20
1e-20
1e-20
1e-20
1e-20
1e-20
1e-20
1e-20
1e-20
1e-20
1e-20
1e-20
1e-20
1e-20
1e-20
1e-20
1e-20
1e-20
1e-20
1e-20
1e-20
1e-20
1e-20
1e-20
1e-20
1e-20
1e-20
1e-20
1e-20
1e-20
1e-20
1e-20
1e-20
1e-20
1e-20
1e-20
1e-20
1e-20
1e-20
1e-20
1e-20
1e-20
1e-20
1e-20
1e-20
1e-20
1e-20
1e-20
1e-20
1e-20
1e-20
1e-20
1e-20
1e-20
1e-20
1e-20
1e-20
1e-20
1e-20
1e-20
1e-20
1e-20
1e-20
1e-20
1e-20
1e-20
1e-20
1e-20
1e-20
1e-20
1e-20
1e-20
1e-20
1e-20
1e-20
1e-20
1e-20
1e-20
1e-20
1e-20
)
;

boundaryField
{
    inandouthalf11
    {
        type            cyclic;
    }
    inandouthalf12
    {
        type            cyclic;
    }
    inandouthalf21
    {
        type            cyclic;
    }
    inandouthalf22
    {
        type            cyclic;
    }
    inandouthalf31
    {
        type            cyclic;
    }
    inandouthalf32
    {
        type            cyclic;
    }
    inandouthalf41
    {
        type            cyclic;
    }
    inandouthalf42
    {
        type            cyclic;
    }
    top
    {
        type            symmetryPlane;
    }
    walls
    {
        type            zeroGradient;
    }
    frontAndBackPlanes
    {
        type            empty;
    }
}


// ************************************************************************* //
