/*--------------------------------*- C++ -*----------------------------------*\
| =========                 |                                                 |
| \\      /  F ield         | OpenFOAM: The Open Source CFD Toolbox           |
|  \\    /   O peration     | Version:  2.4.x                                 |
|   \\  /    A nd           | Web:      www.OpenFOAM.org                      |
|    \\/     M anipulation  |                                                 |
\*---------------------------------------------------------------------------*/
FoamFile
{
    version     2.0;
    format      ascii;
    class       volScalarField;
    location    "9.7";
    object      k;
}
// * * * * * * * * * * * * * * * * * * * * * * * * * * * * * * * * * * * * * //

dimensions      [0 2 -2 0 0 0 0];

internalField   nonuniform List<scalar> 
360
(
1e-20
1e-20
1e-20
1e-20
1e-20
1e-20
1e-20
1e-20
1e-20
1e-20
1e-20
1e-20
1e-20
1e-20
1e-20
1e-20
1e-20
1e-20
1e-20
1e-20
1e-20
1e-20
1e-20
1e-20
1e-20
1e-20
1e-20
1e-20
1e-20
1e-20
1e-20
1e-20
1e-20
1e-20
1e-20
1e-20
1e-20
1e-20
1e-20
1e-20
1e-20
1e-20
1e-20
1e-20
1e-20
1e-20
1e-20
1e-20
1e-20
1e-20
1e-20
1e-20
1e-20
1e-20
1e-20
1e-20
1e-20
1e-20
1e-20
1e-20
1e-20
1e-20
1e-20
1e-20
1e-20
1e-20
1e-20
1e-20
1e-20
1e-20
1e-20
1e-20
1e-20
1e-20
1e-20
1e-20
1e-20
1e-20
1e-20
1e-20
1e-20
1e-20
1e-20
1e-20
1e-20
1e-20
1e-20
1e-20
1e-20
1e-20
1e-20
1e-20
1e-20
1e-20
1e-20
1e-20
1e-20
1e-20
1e-20
1e-20
1e-20
1e-20
1e-20
1e-20
1e-20
1e-20
1e-20
1e-20
1e-20
1e-20
1e-20
1e-20
1e-20
1e-20
1e-20
1e-20
1e-20
1e-20
1e-20
1e-20
1e-20
1e-20
1e-20
1e-20
1e-20
1e-20
2.16502e-20
1.0385e-19
5.24095e-19
2.57893e-18
1.23262e-17
5.7378e-17
2.61981e-16
1.19023e-15
5.51804e-15
2.71003e-14
1.47133e-13
9.12781e-13
6.60533e-12
5.72867e-11
6.2112e-10
8.734e-09
1.6451e-07
3.88454e-06
0.000101285
0.0014722
0.00426234
0.00596315
0.00709932
0.00792512
0.00855955
0.00907167
0.00950155
0.00987212
0.0101981
0.0104892
0.0107513
0.0109885
0.011203
0.0113966
0.0115702
0.0117248
0.011861
0.0119793
0.0120805
0.012165
0.0122334
0.0122863
0.0123243
0.0123478
0.0123574
0.0123536
0.0123371
0.0123081
0.0122673
0.0122151
0.012152
0.0120783
0.0119945
0.0119011
0.0117983
0.0116866
0.0115664
0.011438
0.0113017
0.0111579
0.011007
0.0108492
0.0106848
0.0105143
0.0103378
0.0101558
0.00996835
0.0097758
0.0095784
0.00937641
0.00917014
0.00895988
0.00874595
0.00852865
0.00830832
0.00808303
0.00785071
0.00761149
0.00736558
0.00711325
0.00685481
0.00659068
0.00632134
0.00604738
0.00576952
0.0054886
0.00520559
0.00492163
0.00463801
0.0043562
0.00407784
0.00380473
0.00353884
0.00328225
0.00303709
0.00280544
0.00258924
0.00239011
0.00220925
0.00204732
0.00190435
0.00177976
0.00167244
0.00158086
0.00150326
0.00143776
0.00138254
0.00133588
0.00129622
0.0012622
0.00123263
0.00120648
0.00118287
0.00116105
0.00114035
0.00112019
0.00110008
0.00107957
0.00105828
0.00103587
0.00101204
0.000986535
0.000959138
0.000929665
0.000897971
0.000863945
0.000827515
0.000788647
0.000747347
0.000703664
0.000657693
0.000609583
0.000559533
0.000507805
0.000454729
0.000400708
0.000346228
0.000291869
0.000238314
0.000186374
0.000137008
9.13939e-05
5.10815e-05
1.81067e-05
1.93398e-06
3.81438e-08
4.11141e-10
4.17405e-12
4.05976e-14
3.78951e-16
3.40742e-18
3.7022e-20
1e-20
1e-20
1e-20
1e-20
1e-20
1e-20
1e-20
1e-20
1e-20
1e-20
1e-20
1e-20
1e-20
1e-20
1e-20
1e-20
1e-20
1e-20
1e-20
1e-20
1e-20
1e-20
1e-20
1e-20
1e-20
1e-20
1e-20
1e-20
1e-20
1e-20
1e-20
1e-20
1e-20
1e-20
1e-20
1e-20
1e-20
1e-20
1e-20
1e-20
1e-20
1e-20
1e-20
1e-20
1e-20
1e-20
1e-20
1e-20
1e-20
1e-20
1e-20
1e-20
1e-20
1e-20
1e-20
1e-20
1e-20
1e-20
1e-20
1e-20
1e-20
1e-20
1e-20
1e-20
1e-20
1e-20
1e-20
1e-20
1e-20
1e-20
1e-20
1e-20
1e-20
1e-20
1e-20
1e-20
1e-20
1e-20
1e-20
1e-20
1e-20
1e-20
)
;

boundaryField
{
    inandouthalf11
    {
        type            cyclic;
    }
    inandouthalf12
    {
        type            cyclic;
    }
    inandouthalf21
    {
        type            cyclic;
    }
    inandouthalf22
    {
        type            cyclic;
    }
    inandouthalf31
    {
        type            cyclic;
    }
    inandouthalf32
    {
        type            cyclic;
    }
    inandouthalf41
    {
        type            cyclic;
    }
    inandouthalf42
    {
        type            cyclic;
    }
    top
    {
        type            symmetryPlane;
    }
    walls
    {
        type            zeroGradient;
    }
    frontAndBackPlanes
    {
        type            empty;
    }
}


// ************************************************************************* //
