/*--------------------------------*- C++ -*----------------------------------*\
| =========                 |                                                 |
| \\      /  F ield         | OpenFOAM: The Open Source CFD Toolbox           |
|  \\    /   O peration     | Version:  2.4.x                                 |
|   \\  /    A nd           | Web:      www.OpenFOAM.org                      |
|    \\/     M anipulation  |                                                 |
\*---------------------------------------------------------------------------*/
FoamFile
{
    version     2.0;
    format      ascii;
    class       volScalarField;
    location    "9.7";
    object      p;
}
// * * * * * * * * * * * * * * * * * * * * * * * * * * * * * * * * * * * * * //

dimensions      [1 -1 -2 0 0 0 0];

internalField   nonuniform List<scalar> 
360
(
4904.64
4899.74
4894.83
4889.93
4885.02
4880.11
4875.21
4870.3
4865.4
4860.49
4855.59
4850.68
4845.77
4840.87
4835.96
4831.06
4826.15
4821.24
4816.34
4811.43
4806.52
4801.62
4796.71
4791.8
4786.9
4781.99
4777.08
4772.17
4767.27
4762.36
4757.45
4752.54
4747.64
4742.73
4737.82
4732.91
4728
4723.09
4718.19
4713.28
4708.37
4703.46
4698.55
4693.64
4688.73
4683.82
4678.91
4674
4669.09
4664.18
4659.27
4654.36
4649.45
4644.54
4639.63
4634.72
4629.81
4624.9
4619.98
4615.07
4610.16
4605.25
4600.34
4595.43
4590.51
4585.6
4580.69
4575.78
4570.86
4565.95
4561.04
4556.13
4551.21
4546.3
4541.39
4536.47
4531.56
4526.65
4521.73
4516.82
4511.9
4506.99
4502.08
4497.16
4492.25
4487.33
4482.42
4477.5
4472.59
4467.67
4462.76
4457.84
4452.93
4448.01
4443.1
4438.18
4433.27
4428.35
4423.44
4418.52
4413.6
4408.69
4403.77
4398.86
4393.94
4389.02
4384.11
4379.19
4374.28
4369.36
4364.44
4359.53
4354.61
4349.69
4344.78
4339.86
4334.95
4330.03
4325.11
4320.2
4315.28
4310.36
4305.45
4300.53
4295.61
4290.7
4285.78
4280.86
4275.95
4271.03
4266.11
4261.19
4256.28
4251.36
4246.44
4241.53
4236.61
4231.69
4226.78
4221.86
4216.94
4212.03
4207.11
4202.18
4197.26
4189.16
4179.85
4172.15
4165.14
4158.51
4152.15
4145.94
4139.86
4133.89
4128.03
4122.25
4116.55
4110.93
4105.37
4099.88
4094.44
4089.06
4083.73
4078.43
4073.18
4067.97
4062.79
4057.64
4052.53
4047.44
4042.37
4037.33
4032.3
4027.3
4022.32
4017.35
4012.4
4007.46
4002.54
3997.63
3992.73
3987.85
3982.97
3978.11
3973.25
3968.41
3963.57
3958.74
3953.92
3949.1
3944.29
3939.49
3934.69
3929.89
3925.11
3920.32
3915.54
3910.77
3906
3901.23
3896.46
3891.65
3886.74
3881.74
3876.63
3871.43
3866.12
3860.7
3855.17
3849.53
3843.78
3837.9
3831.91
3825.79
3819.54
3813.16
3806.65
3800
3793.2
3786.26
3779.16
3771.91
3764.5
3756.92
3749.17
3741.26
3733.16
3724.89
3716.44
3707.8
3698.98
3689.97
3680.77
3671.38
3661.79
3652
3642.01
3631.81
3621.4
3610.79
3599.95
3588.9
3577.62
3566.11
3554.36
3542.38
3530.16
3517.69
3504.97
3491.99
3478.75
3465.24
3451.46
3437.4
3423.05
3408.42
3393.48
3378.25
3362.71
3346.85
3330.67
3314.16
3297.32
3280.13
3262.6
3244.7
3226.45
3207.81
3188.8
3169.39
3149.58
3129.35
3108.72
3087.66
3066.18
3044.26
3021.9
2999.08
2975.8
2952.05
2927.81
2903.09
2877.86
2852.12
2825.86
2799.06
2771.72
2743.82
2715.36
2686.32
2656.7
2626.47
2595.62
2564.15
2532.05
2499.29
2465.86
2431.76
2396.96
2361.46
2325.24
2288.28
2250.57
2212.1
2172.85
2132.8
2091.93
2050.24
2007.7
1964.3
1922.76
1883.52
1844.28
1805.04
1765.8
1726.56
1687.32
1648.08
1608.84
1569.6
1530.36
1491.12
1451.88
1412.64
1373.4
1334.16
1294.92
1255.68
1216.44
1177.2
1137.96
1098.72
1059.48
1020.24
981
941.76
902.52
863.28
824.04
784.8
745.56
706.32
667.08
627.84
588.6
549.36
510.12
470.88
431.64
392.4
353.16
313.92
274.68
235.44
196.2
156.96
117.72
78.48
39.24
-1.3341e-07
)
;

boundaryField
{
    inandouthalf11
    {
        type            cyclic;
    }
    inandouthalf12
    {
        type            cyclic;
    }
    inandouthalf21
    {
        type            cyclic;
    }
    inandouthalf22
    {
        type            cyclic;
    }
    inandouthalf31
    {
        type            cyclic;
    }
    inandouthalf32
    {
        type            cyclic;
    }
    inandouthalf41
    {
        type            cyclic;
    }
    inandouthalf42
    {
        type            cyclic;
    }
    top
    {
        type            symmetryPlane;
    }
    walls
    {
        type            slip;
    }
    frontAndBackPlanes
    {
        type            empty;
    }
}


// ************************************************************************* //
