/*--------------------------------*- C++ -*----------------------------------*\
| =========                 |                                                 |
| \\      /  F ield         | OpenFOAM: The Open Source CFD Toolbox           |
|  \\    /   O peration     | Version:  2.4.x                                 |
|   \\  /    A nd           | Web:      www.OpenFOAM.org                      |
|    \\/     M anipulation  |                                                 |
\*---------------------------------------------------------------------------*/
FoamFile
{
    version     2.0;
    format      ascii;
    class       surfaceScalarField;
    location    "9.7";
    object      phib_0;
}
// * * * * * * * * * * * * * * * * * * * * * * * * * * * * * * * * * * * * * //

dimensions      [0 3 -1 0 0 0 0];

internalField   nonuniform List<scalar> 
359
(
6.39123e-14
1.59638e-13
2.45519e-13
3.25549e-13
4.06323e-13
4.87879e-13
5.69274e-13
6.50543e-13
7.32117e-13
8.14435e-13
8.97802e-13
9.82399e-13
1.06837e-12
1.15583e-12
1.24489e-12
1.33564e-12
1.42817e-12
1.52251e-12
1.61871e-12
1.71682e-12
1.81681e-12
1.91873e-12
2.02257e-12
2.12834e-12
2.23602e-12
2.3456e-12
2.45706e-12
2.57038e-12
2.68553e-12
2.80248e-12
2.92119e-12
3.04163e-12
3.16372e-12
3.28747e-12
3.41278e-12
3.53963e-12
3.66792e-12
3.79762e-12
3.92869e-12
4.06099e-12
4.19453e-12
4.3292e-12
4.46489e-12
4.6016e-12
4.73919e-12
4.87762e-12
5.0168e-12
5.15657e-12
5.2969e-12
5.43776e-12
5.57897e-12
5.72048e-12
5.86217e-12
6.004e-12
6.14581e-12
6.28759e-12
6.42915e-12
6.57047e-12
6.71141e-12
6.85184e-12
6.99176e-12
7.13102e-12
7.26961e-12
7.40739e-12
7.5443e-12
7.68021e-12
7.81508e-12
7.94883e-12
8.08135e-12
8.21253e-12
8.34239e-12
8.47088e-12
8.59786e-12
8.72335e-12
8.84728e-12
8.96964e-12
9.09031e-12
9.20925e-12
9.32641e-12
9.44177e-12
9.55526e-12
9.66689e-12
9.77664e-12
9.88449e-12
9.99045e-12
1.00945e-11
1.01966e-11
1.02967e-11
1.03948e-11
1.04909e-11
1.0585e-11
1.06771e-11
1.07671e-11
1.08551e-11
1.09412e-11
1.10252e-11
1.11072e-11
1.11872e-11
1.12652e-11
1.13413e-11
1.14153e-11
1.14874e-11
1.15575e-11
1.16257e-11
1.1692e-11
1.17564e-11
1.18189e-11
1.18795e-11
1.19383e-11
1.19953e-11
1.20504e-11
1.21037e-11
1.21552e-11
1.22049e-11
1.22528e-11
1.22989e-11
1.23432e-11
1.23857e-11
1.24265e-11
1.24655e-11
1.25027e-11
1.2538e-11
1.25713e-11
1.26026e-11
1.26316e-11
1.26581e-11
1.26818e-11
1.27027e-11
1.27205e-11
1.27355e-11
1.27476e-11
1.27574e-11
1.2765e-11
1.2771e-11
1.27755e-11
1.27785e-11
1.27789e-11
1.27749e-11
1.27651e-11
1.27498e-11
1.27309e-11
1.26036e-11
1.2466e-11
1.23398e-11
2.04176e-09
5.28609e-09
5.46954e-09
5.54475e-09
5.37672e-09
5.05824e-09
4.6622e-09
4.24879e-09
3.84716e-09
3.46886e-09
3.11825e-09
2.79645e-09
2.50287e-09
2.23627e-09
1.99491e-09
1.77696e-09
1.58055e-09
1.40383e-09
1.24504e-09
1.10255e-09
9.74795e-10
8.60361e-10
7.57949e-10
6.66372e-10
5.8456e-10
5.11543e-10
4.46447e-10
3.88484e-10
3.36941e-10
2.91179e-10
2.50618e-10
2.1474e-10
1.83076e-10
1.552e-10
1.30733e-10
1.0933e-10
9.06825e-11
7.4511e-11
6.05655e-11
4.86211e-11
3.84773e-11
2.99568e-11
2.29052e-11
1.71857e-11
1.26608e-11
9.15697e-12
6.43827e-12
4.16697e-12
2.10828e-12
2.31823e-13
-1.45236e-12
-2.94487e-12
-4.24674e-12
-5.36263e-12
-6.30019e-12
-7.06887e-12
-7.67925e-12
-8.1503e-12
-8.48541e-12
-8.68907e-12
-8.76648e-12
-8.72307e-12
-8.56357e-12
-8.29091e-12
-7.90596e-12
-7.40923e-12
-6.80553e-12
-6.1106e-12
-5.35557e-12
-4.58483e-12
-3.84608e-12
-3.17792e-12
-2.602e-12
-2.12284e-12
-1.73301e-12
-1.41941e-12
-1.16783e-12
-9.65385e-13
-8.01403e-13
-6.67448e-13
-5.57023e-13
-4.65196e-13
-3.88179e-13
-3.23399e-13
-2.68336e-13
-2.2206e-13
-1.82432e-13
-1.4947e-13
-1.21134e-13
-9.81174e-14
-7.804e-14
-6.48177e-14
-3.90152e-14
-2.9332e-14
-1.98774e-14
-1.34267e-14
-9.09554e-15
-6.15047e-15
-4.14862e-15
-2.78432e-15
-1.85147e-15
-1.21895e-15
-7.7448e-16
-4.96105e-16
-2.74535e-16
-1.78332e-16
7.06838e-17
-1.03056e-17
-1.0046e-17
-9.80612e-18
-9.4963e-18
-9.20993e-18
-8.86559e-18
-8.54223e-18
-8.16594e-18
-7.80955e-18
-7.42238e-18
-7.06528e-18
-6.69737e-18
-6.38622e-18
-6.11237e-18
-5.8949e-18
-5.6949e-18
-5.51721e-18
-5.35485e-18
-5.20052e-18
-5.04262e-18
-4.89035e-18
-4.76786e-18
-4.64406e-18
-4.51333e-18
-4.36108e-18
-4.21893e-18
-4.05113e-18
-3.87846e-18
-3.69301e-18
-3.55618e-18
-3.4102e-18
-3.265e-18
-3.09003e-18
-2.93204e-18
-2.74297e-18
-2.48702e-18
-2.26685e-18
-2.07709e-18
-1.86751e-18
-1.65521e-18
-1.42122e-18
-1.2011e-18
-9.69821e-19
-7.53106e-19
-5.65402e-19
-5.18991e-19
-4.65506e-19
-4.29763e-19
-3.31499e-19
-3.12879e-19
-2.94293e-19
-2.77248e-19
-2.62157e-19
-2.54998e-19
-2.50043e-19
-2.45076e-19
-2.4179e-19
-2.38462e-19
-2.36176e-19
-2.35133e-19
-2.36066e-19
-2.42578e-19
-2.50132e-19
-2.57391e-19
-2.63274e-19
-2.73003e-19
-2.78456e-19
-2.84816e-19
-2.89603e-19
-3.12328e-19
-3.28697e-19
-3.48841e-19
-3.6125e-19
-3.97343e-19
-4.2972e-19
-4.94131e-19
-6.37731e-19
-1.00715e-18
-1.419e-18
-1.85877e-18
-2.20773e-18
-2.66279e-18
-2.96313e-18
-3.27096e-18
-3.41419e-18
-3.85719e-18
-4.08674e-18
-4.31587e-18
-4.2694e-18
-4.4335e-18
-4.30061e-18
-4.18186e-18
-3.83502e-18
-3.98301e-18
-3.89369e-18
-3.81711e-18
-3.43658e-18
-3.24049e-18
-2.79122e-18
-2.32937e-18
-1.83533e-18
-1.08206e-18
-4.76768e-19
1.24454e-19
1.76214e-19
1.30574e-18
6.69527e-19
-9.62941e-19
)
;

boundaryField
{
    inandouthalf11
    {
        type            cyclic;
        value           nonuniform List<scalar> 
100
(
1.95483e-10
1.94401e-10
1.9425e-10
1.94393e-10
1.94461e-10
1.94481e-10
1.94507e-10
1.9454e-10
1.94575e-10
1.9461e-10
1.94646e-10
1.94681e-10
1.94717e-10
1.94753e-10
1.94789e-10
1.94826e-10
1.94863e-10
1.94901e-10
1.94939e-10
1.94977e-10
1.95015e-10
1.95054e-10
1.95093e-10
1.95133e-10
1.95173e-10
1.95213e-10
1.95253e-10
1.95295e-10
1.95336e-10
1.95378e-10
1.9542e-10
1.95463e-10
1.95505e-10
1.95549e-10
1.95593e-10
1.95637e-10
1.95681e-10
1.95727e-10
1.95772e-10
1.95818e-10
1.95865e-10
1.95912e-10
1.95959e-10
1.96007e-10
1.96055e-10
1.96104e-10
1.96154e-10
1.96204e-10
1.96254e-10
1.96306e-10
1.96357e-10
1.9641e-10
1.96463e-10
1.96517e-10
1.96571e-10
1.96626e-10
1.96681e-10
1.96738e-10
1.96795e-10
1.96852e-10
1.96912e-10
1.96971e-10
1.97031e-10
1.97092e-10
1.97154e-10
1.97217e-10
1.97281e-10
1.97346e-10
1.97411e-10
1.97478e-10
1.97546e-10
1.97615e-10
1.97684e-10
1.97755e-10
1.97827e-10
1.97901e-10
1.97975e-10
1.98051e-10
1.98128e-10
1.98207e-10
1.98287e-10
1.98368e-10
1.98451e-10
1.98535e-10
1.98621e-10
1.98708e-10
1.98798e-10
1.98889e-10
1.98981e-10
1.99076e-10
1.99172e-10
1.99271e-10
1.99371e-10
1.99474e-10
1.99578e-10
1.99685e-10
1.99795e-10
1.99906e-10
2.00021e-10
2.00138e-10
)
;
    }
    inandouthalf12
    {
        type            cyclic;
        value           nonuniform List<scalar> 
100
(
-1.95483e-10
-1.94401e-10
-1.9425e-10
-1.94393e-10
-1.94461e-10
-1.94481e-10
-1.94507e-10
-1.9454e-10
-1.94575e-10
-1.9461e-10
-1.94646e-10
-1.94681e-10
-1.94717e-10
-1.94753e-10
-1.94789e-10
-1.94826e-10
-1.94863e-10
-1.94901e-10
-1.94939e-10
-1.94977e-10
-1.95015e-10
-1.95054e-10
-1.95093e-10
-1.95133e-10
-1.95173e-10
-1.95213e-10
-1.95253e-10
-1.95295e-10
-1.95336e-10
-1.95378e-10
-1.9542e-10
-1.95463e-10
-1.95505e-10
-1.95549e-10
-1.95593e-10
-1.95637e-10
-1.95681e-10
-1.95727e-10
-1.95772e-10
-1.95818e-10
-1.95865e-10
-1.95912e-10
-1.95959e-10
-1.96007e-10
-1.96055e-10
-1.96104e-10
-1.96154e-10
-1.96204e-10
-1.96254e-10
-1.96306e-10
-1.96357e-10
-1.9641e-10
-1.96463e-10
-1.96517e-10
-1.96571e-10
-1.96626e-10
-1.96681e-10
-1.96738e-10
-1.96795e-10
-1.96852e-10
-1.96912e-10
-1.96971e-10
-1.97031e-10
-1.97092e-10
-1.97154e-10
-1.97217e-10
-1.97281e-10
-1.97346e-10
-1.97411e-10
-1.97478e-10
-1.97546e-10
-1.97615e-10
-1.97684e-10
-1.97755e-10
-1.97827e-10
-1.97901e-10
-1.97975e-10
-1.98051e-10
-1.98128e-10
-1.98207e-10
-1.98287e-10
-1.98368e-10
-1.98451e-10
-1.98535e-10
-1.98621e-10
-1.98708e-10
-1.98798e-10
-1.98889e-10
-1.98981e-10
-1.99076e-10
-1.99172e-10
-1.99271e-10
-1.99371e-10
-1.99474e-10
-1.99578e-10
-1.99685e-10
-1.99795e-10
-1.99906e-10
-2.00021e-10
-2.00138e-10
)
;
    }
    inandouthalf21
    {
        type            cyclic;
        value           nonuniform List<scalar> 
100
(
2.00257e-10
2.0038e-10
2.00505e-10
2.00633e-10
2.00765e-10
2.009e-10
2.01038e-10
2.0118e-10
2.01325e-10
2.01474e-10
2.01628e-10
2.01785e-10
2.01947e-10
2.02114e-10
2.02285e-10
2.02461e-10
2.02643e-10
2.0283e-10
2.03022e-10
2.03221e-10
2.03426e-10
2.03638e-10
2.03858e-10
2.04084e-10
2.04319e-10
2.04563e-10
2.04816e-10
2.05079e-10
2.05353e-10
2.05639e-10
2.05938e-10
2.0625e-10
2.06576e-10
2.06921e-10
2.07288e-10
2.07677e-10
2.08088e-10
2.08525e-10
2.09012e-10
2.09573e-10
2.10184e-10
2.10877e-10
2.18725e-10
2.20274e-10
-2.29834e-11
-6.22181e-08
-1.61476e-07
-2.41473e-07
-3.08355e-07
-3.65891e-07
-4.16266e-07
-4.60856e-07
-5.0062e-07
-5.36325e-07
-5.68598e-07
-5.97958e-07
-6.24834e-07
-6.49582e-07
-6.72499e-07
-6.9383e-07
-7.13783e-07
-7.3253e-07
-7.50215e-07
-7.66962e-07
-7.82874e-07
-7.9804e-07
-8.12534e-07
-8.26423e-07
-8.39762e-07
-8.52599e-07
-8.64978e-07
-8.76934e-07
-8.88501e-07
-8.99708e-07
-9.1058e-07
-9.21138e-07
-9.31404e-07
-9.41396e-07
-9.51129e-07
-9.60618e-07
-9.69876e-07
-9.78914e-07
-9.87744e-07
-9.96375e-07
-1.00482e-06
-1.01307e-06
-1.02116e-06
-1.02907e-06
-1.03682e-06
-1.04441e-06
-1.05185e-06
-1.05914e-06
-1.06628e-06
-1.07329e-06
-1.08015e-06
-1.08688e-06
-1.09347e-06
-1.09994e-06
-1.10627e-06
-1.11248e-06
)
;
    }
    inandouthalf22
    {
        type            cyclic;
        value           nonuniform List<scalar> 
100
(
-2.00257e-10
-2.0038e-10
-2.00505e-10
-2.00633e-10
-2.00765e-10
-2.009e-10
-2.01038e-10
-2.0118e-10
-2.01325e-10
-2.01474e-10
-2.01628e-10
-2.01785e-10
-2.01947e-10
-2.02114e-10
-2.02285e-10
-2.02461e-10
-2.02643e-10
-2.0283e-10
-2.03022e-10
-2.03221e-10
-2.03426e-10
-2.03638e-10
-2.03858e-10
-2.04084e-10
-2.04319e-10
-2.04563e-10
-2.04816e-10
-2.05079e-10
-2.05353e-10
-2.05639e-10
-2.05938e-10
-2.0625e-10
-2.06576e-10
-2.06921e-10
-2.07288e-10
-2.07677e-10
-2.08088e-10
-2.08525e-10
-2.09012e-10
-2.09573e-10
-2.10184e-10
-2.10877e-10
-2.18725e-10
-2.20274e-10
2.29834e-11
6.22181e-08
1.61476e-07
2.41473e-07
3.08355e-07
3.65891e-07
4.16266e-07
4.60856e-07
5.0062e-07
5.36325e-07
5.68598e-07
5.97958e-07
6.24834e-07
6.49582e-07
6.72499e-07
6.9383e-07
7.13783e-07
7.3253e-07
7.50215e-07
7.66962e-07
7.82874e-07
7.9804e-07
8.12534e-07
8.26423e-07
8.39762e-07
8.52599e-07
8.64978e-07
8.76934e-07
8.88501e-07
8.99708e-07
9.1058e-07
9.21138e-07
9.31404e-07
9.41396e-07
9.51129e-07
9.60618e-07
9.69876e-07
9.78914e-07
9.87744e-07
9.96375e-07
1.00482e-06
1.01307e-06
1.02116e-06
1.02907e-06
1.03682e-06
1.04441e-06
1.05185e-06
1.05914e-06
1.06628e-06
1.07329e-06
1.08015e-06
1.08688e-06
1.09347e-06
1.09994e-06
1.10627e-06
1.11248e-06
)
;
    }
    inandouthalf31
    {
        type            cyclic;
        value           nonuniform List<scalar> 
110
(
-1.11857e-06
-1.14741e-06
-1.17696e-06
-1.20721e-06
-1.23819e-06
-1.2699e-06
-1.30236e-06
-1.33556e-06
-1.36951e-06
-1.40422e-06
-1.43969e-06
-1.47592e-06
-1.51289e-06
-1.55061e-06
-1.58906e-06
-1.62823e-06
-1.66808e-06
-1.7086e-06
-1.74975e-06
-1.7915e-06
-1.83381e-06
-1.87663e-06
-1.91993e-06
-1.96367e-06
-2.00781e-06
-2.05234e-06
-2.09724e-06
-2.14253e-06
-2.18821e-06
-2.23432e-06
-2.2809e-06
-2.32798e-06
-2.3756e-06
-2.42382e-06
-2.47266e-06
-2.52216e-06
-2.57236e-06
-2.62329e-06
-2.67497e-06
-2.72742e-06
-2.78068e-06
-2.83476e-06
-2.88969e-06
-2.94548e-06
-3.00217e-06
-3.05976e-06
-3.1183e-06
-3.17779e-06
-3.23828e-06
-3.29977e-06
-3.36232e-06
-3.42594e-06
-3.49067e-06
-3.55655e-06
-3.62361e-06
-3.69191e-06
-3.7615e-06
-3.83242e-06
-3.90473e-06
-3.97851e-06
-4.05383e-06
-4.13076e-06
-4.20941e-06
-4.28988e-06
-4.37227e-06
-4.45673e-06
-4.54338e-06
-4.63238e-06
-4.7239e-06
-4.81806e-06
-4.91518e-06
-5.01487e-06
-5.11666e-06
-5.22052e-06
-5.32648e-06
-5.43459e-06
-5.5449e-06
-5.65745e-06
-5.77228e-06
-5.88944e-06
-6.00898e-06
-6.13094e-06
-6.25539e-06
-6.38235e-06
-6.5119e-06
-6.64407e-06
-6.77893e-06
-6.91652e-06
-7.05691e-06
-7.20015e-06
-7.34629e-06
-7.4954e-06
-7.64754e-06
-7.80276e-06
-7.96114e-06
-8.12273e-06
-8.2876e-06
-8.45581e-06
-8.62745e-06
-8.80256e-06
-8.98123e-06
-9.16352e-06
-9.34952e-06
-9.53929e-06
-9.73291e-06
-9.93046e-06
-1.0132e-05
-1.03377e-05
-1.05475e-05
-1.07616e-05
)
;
    }
    inandouthalf32
    {
        type            cyclic;
        value           nonuniform List<scalar> 
110
(
1.11857e-06
1.14741e-06
1.17696e-06
1.20721e-06
1.23819e-06
1.2699e-06
1.30236e-06
1.33556e-06
1.36951e-06
1.40422e-06
1.43969e-06
1.47592e-06
1.51289e-06
1.55061e-06
1.58906e-06
1.62823e-06
1.66808e-06
1.7086e-06
1.74975e-06
1.7915e-06
1.83381e-06
1.87663e-06
1.91993e-06
1.96367e-06
2.00781e-06
2.05234e-06
2.09724e-06
2.14253e-06
2.18821e-06
2.23432e-06
2.2809e-06
2.32798e-06
2.3756e-06
2.42382e-06
2.47266e-06
2.52216e-06
2.57236e-06
2.62329e-06
2.67497e-06
2.72742e-06
2.78068e-06
2.83476e-06
2.88969e-06
2.94548e-06
3.00217e-06
3.05976e-06
3.1183e-06
3.17779e-06
3.23828e-06
3.29977e-06
3.36232e-06
3.42594e-06
3.49067e-06
3.55655e-06
3.62361e-06
3.69191e-06
3.7615e-06
3.83242e-06
3.90473e-06
3.97851e-06
4.05383e-06
4.13076e-06
4.20941e-06
4.28988e-06
4.37227e-06
4.45673e-06
4.54338e-06
4.63238e-06
4.7239e-06
4.81806e-06
4.91518e-06
5.01487e-06
5.11666e-06
5.22052e-06
5.32648e-06
5.43459e-06
5.5449e-06
5.65745e-06
5.77228e-06
5.88944e-06
6.00898e-06
6.13094e-06
6.25539e-06
6.38235e-06
6.5119e-06
6.64407e-06
6.77893e-06
6.91652e-06
7.05691e-06
7.20015e-06
7.34629e-06
7.4954e-06
7.64754e-06
7.80276e-06
7.96114e-06
8.12273e-06
8.2876e-06
8.45581e-06
8.62745e-06
8.80256e-06
8.98123e-06
9.16352e-06
9.34952e-06
9.53929e-06
9.73291e-06
9.93046e-06
1.0132e-05
1.03377e-05
1.05475e-05
1.07616e-05
)
;
    }
    inandouthalf41
    {
        type            cyclic;
        value           nonuniform List<scalar> 
50
(
-9.63272e-06
-9.63272e-06
-9.63272e-06
-9.63272e-06
-9.63272e-06
-9.63272e-06
-9.63272e-06
-9.63272e-06
-9.63272e-06
-9.63272e-06
-9.63272e-06
-9.63272e-06
-9.63272e-06
-9.63272e-06
-9.63272e-06
-9.63272e-06
-9.63272e-06
-9.63272e-06
-9.63272e-06
-9.63272e-06
-9.63272e-06
-9.63272e-06
-9.63272e-06
-9.63272e-06
-9.63272e-06
-9.63272e-06
-9.63272e-06
-9.63272e-06
-9.63272e-06
-9.63272e-06
-9.63272e-06
-9.63272e-06
-9.63272e-06
-9.63272e-06
-9.63272e-06
-9.63272e-06
-9.63272e-06
-9.63272e-06
-9.63272e-06
-9.63272e-06
-9.63272e-06
-9.63272e-06
-9.63272e-06
-9.63272e-06
-9.63272e-06
-9.63272e-06
-9.63272e-06
-9.63272e-06
-9.63272e-06
-9.63272e-06
)
;
    }
    inandouthalf42
    {
        type            cyclic;
        value           nonuniform List<scalar> 
50
(
9.63272e-06
9.63272e-06
9.63272e-06
9.63272e-06
9.63272e-06
9.63272e-06
9.63272e-06
9.63272e-06
9.63272e-06
9.63272e-06
9.63272e-06
9.63272e-06
9.63272e-06
9.63272e-06
9.63272e-06
9.63272e-06
9.63272e-06
9.63272e-06
9.63272e-06
9.63272e-06
9.63272e-06
9.63272e-06
9.63272e-06
9.63272e-06
9.63272e-06
9.63272e-06
9.63272e-06
9.63272e-06
9.63272e-06
9.63272e-06
9.63272e-06
9.63272e-06
9.63272e-06
9.63272e-06
9.63272e-06
9.63272e-06
9.63272e-06
9.63272e-06
9.63272e-06
9.63272e-06
9.63272e-06
9.63272e-06
9.63272e-06
9.63272e-06
9.63272e-06
9.63272e-06
9.63272e-06
9.63272e-06
9.63272e-06
9.63272e-06
)
;
    }
    top
    {
        type            symmetryPlane;
        value           uniform 0;
    }
    walls
    {
        type            fixedValue;
        value           uniform 0;
    }
    frontAndBackPlanes
    {
        type            empty;
        value           nonuniform 0();
    }
}


// ************************************************************************* //
