/*--------------------------------*- C++ -*----------------------------------*\
| =========                 |                                                 |
| \\      /  F ield         | OpenFOAM: The Open Source CFD Toolbox           |
|  \\    /   O peration     | Version:  2.4.x                                 |
|   \\  /    A nd           | Web:      www.OpenFOAM.org                      |
|    \\/     M anipulation  |                                                 |
\*---------------------------------------------------------------------------*/
FoamFile
{
    version     2.0;
    format      ascii;
    class       volScalarField;
    location    "9.7";
    object      tmf;
}
// * * * * * * * * * * * * * * * * * * * * * * * * * * * * * * * * * * * * * //

dimensions      [0 0 0 0 0 0 0];

internalField   nonuniform List<scalar> 
360
(
0.999207
0.999209
0.99921
0.999209
0.999209
0.999209
0.999209
0.999209
0.999209
0.999209
0.999209
0.999209
0.999209
0.999209
0.999209
0.999209
0.999208
0.999208
0.999208
0.999208
0.999208
0.999208
0.999208
0.999208
0.999208
0.999208
0.999208
0.999208
0.999207
0.999207
0.999207
0.999207
0.999207
0.999207
0.999207
0.999207
0.999207
0.999207
0.999206
0.999206
0.999206
0.999206
0.999206
0.999206
0.999206
0.999206
0.999206
0.999206
0.999205
0.999205
0.999205
0.999205
0.999205
0.999205
0.999205
0.999205
0.999204
0.999204
0.999204
0.999204
0.999204
0.999204
0.999204
0.999204
0.999203
0.999203
0.999203
0.999203
0.999203
0.999203
0.999203
0.999202
0.999202
0.999202
0.999202
0.999202
0.999202
0.999201
0.999201
0.999201
0.999201
0.999201
0.999201
0.9992
0.9992
0.9992
0.9992
0.9992
0.999199
0.999199
0.999199
0.999199
0.999199
0.999198
0.999198
0.999198
0.999198
0.999197
0.999197
0.999197
0.999197
0.999196
0.999196
0.999196
0.999196
0.999195
0.999195
0.999195
0.999194
0.999194
0.999194
0.999193
0.999193
0.999193
0.999192
0.999192
0.999192
0.999191
0.999191
0.999191
0.99919
0.99919
0.999189
0.999189
0.999188
0.999188
0.999085
0.999024
0.998968
0.998902
0.998821
0.998718
0.998584
0.998403
0.998157
0.997822
0.997374
0.996778
0.995974
0.994866
0.993357
0.99135
0.988726
0.985355
0.979911
0.945914
0.920022
0.915085
0.913503
0.91231
0.908919
0.911579
0.914312
0.917062
0.919788
0.922461
0.925057
0.927556
0.929944
0.93221
0.934351
0.936367
0.938258
0.94003
0.941689
0.94324
0.944691
0.946048
0.947319
0.948509
0.949625
0.950671
0.951654
0.952577
0.953446
0.954262
0.955029
0.95575
0.956426
0.957059
0.95765
0.958198
0.958703
0.959164
0.959577
0.95994
0.960247
0.960491
0.960663
0.96075
0.960751
0.96087
0.961957
0.963454
0.964895
0.966252
0.967538
0.968763
0.969937
0.971065
0.972153
0.973215
0.974262
0.975294
0.976311
0.977312
0.978298
0.979268
0.980222
0.981159
0.982079
0.982981
0.983864
0.984727
0.985571
0.986394
0.987197
0.98798
0.988741
0.989481
0.990199
0.990893
0.991559
0.992196
0.992799
0.993363
0.993885
0.994361
0.994788
0.995167
0.995498
0.995784
0.996027
0.996233
0.996406
0.99655
0.996667
0.994766
0.995198
0.995244
0.995378
0.995455
0.995535
0.995603
0.995666
0.995725
0.995777
0.995835
0.995888
0.995925
0.996126
0.996846
0.997343
0.997387
0.997434
0.997485
0.99754
0.997601
0.997666
0.997738
0.997817
0.997904
0.997999
0.998104
0.998221
0.998352
0.9985
0.998671
0.998875
0.999122
0.999321
0.999391
0.999395
0.999397
0.9994
0.999403
0.999394
0.998167
0.994195
0.994195
0.994195
0.994195
0.994195
0.994195
0.994195
0.994195
0.994195
0.994195
0.994195
0.994195
0.994195
0.994195
0.994195
0.994195
0.994195
0.994195
0.994195
0.994195
0.994195
0.994195
0.994195
0.994195
0.994195
0.994195
0.994195
0.994195
0.994195
0.994195
0.994195
0.994195
0.994195
0.994195
0.994195
0.994195
0.994195
0.994195
0.994195
0.994195
0.994195
0.994195
0.994195
0.994195
0.994195
0.994195
0.994195
0.994195
0.994195
0.994195
0.994195
0.994195
0.994195
0.994195
0.994195
0.994195
0.994195
0.994195
0.994195
0.994195
0.994195
0.994195
0.994195
0.994195
0.994195
0.994195
0.994195
0.994195
0.994195
0.994195
0.994195
0.994195
0.994195
0.994195
0.994195
0.994195
0.994195
0.994195
0.994195
0.994195
0.99418
0.993262
)
;

boundaryField
{
    inandouthalf11
    {
        type            cyclic;
    }
    inandouthalf12
    {
        type            cyclic;
    }
    inandouthalf21
    {
        type            cyclic;
    }
    inandouthalf22
    {
        type            cyclic;
    }
    inandouthalf31
    {
        type            cyclic;
    }
    inandouthalf32
    {
        type            cyclic;
    }
    inandouthalf41
    {
        type            cyclic;
    }
    inandouthalf42
    {
        type            cyclic;
    }
    top
    {
        type            symmetryPlane;
    }
    walls
    {
        type            calculated;
        value           uniform 0;
    }
    frontAndBackPlanes
    {
        type            empty;
    }
}


// ************************************************************************* //
