/*--------------------------------*- C++ -*----------------------------------*\
| =========                 |                                                 |
| \\      /  F ield         | OpenFOAM: The Open Source CFD Toolbox           |
|  \\    /   O peration     | Version:  2.4.x                                 |
|   \\  /    A nd           | Web:      www.OpenFOAM.org                      |
|    \\/     M anipulation  |                                                 |
\*---------------------------------------------------------------------------*/
FoamFile
{
    version     2.0;
    format      ascii;
    class       volVectorField;
    location    "9.7";
    object      Ua_0;
}
// * * * * * * * * * * * * * * * * * * * * * * * * * * * * * * * * * * * * * //

dimensions      [0 1 -1 0 0 0 0];

internalField   nonuniform List<vector> 
360
(
(6.45653e-33 -1.04163e-31 0)
(1.68606e-09 -1.87345e-08 0)
(3.48418e-09 -3.30863e-08 0)
(5.08095e-09 -4.53257e-08 0)
(6.70313e-09 -5.79513e-08 0)
(8.39945e-09 -7.09461e-08 0)
(1.01362e-08 -8.39134e-08 0)
(1.19018e-08 -9.68096e-08 0)
(1.37041e-08 -1.09722e-07 0)
(1.55538e-08 -1.22729e-07 0)
(1.74593e-08 -1.35884e-07 0)
(1.94267e-08 -1.49227e-07 0)
(2.1461e-08 -1.6278e-07 0)
(2.3566e-08 -1.76565e-07 0)
(2.57456e-08 -1.90597e-07 0)
(2.80038e-08 -2.04894e-07 0)
(3.0344e-08 -2.19471e-07 0)
(3.27693e-08 -2.34337e-07 0)
(3.52824e-08 -2.49499e-07 0)
(3.78859e-08 -2.64963e-07 0)
(4.05818e-08 -2.80733e-07 0)
(4.33723e-08 -2.9681e-07 0)
(4.62593e-08 -3.13197e-07 0)
(4.92446e-08 -3.29894e-07 0)
(5.23298e-08 -3.469e-07 0)
(5.55163e-08 -3.64215e-07 0)
(5.88052e-08 -3.81833e-07 0)
(6.2198e-08 -3.99754e-07 0)
(6.56956e-08 -4.17974e-07 0)
(6.92988e-08 -4.36488e-07 0)
(7.30082e-08 -4.55288e-07 0)
(7.68245e-08 -4.74372e-07 0)
(8.07481e-08 -4.9373e-07 0)
(8.47792e-08 -5.13357e-07 0)
(8.89183e-08 -5.33247e-07 0)
(9.3165e-08 -5.53389e-07 0)
(9.75188e-08 -5.73773e-07 0)
(1.0198e-07 -5.94391e-07 0)
(1.06548e-07 -6.15237e-07 0)
(1.11222e-07 -6.36295e-07 0)
(1.16001e-07 -6.57557e-07 0)
(1.20884e-07 -6.79015e-07 0)
(1.2587e-07 -7.0065e-07 0)
(1.30958e-07 -7.22454e-07 0)
(1.36147e-07 -7.44418e-07 0)
(1.41435e-07 -7.66527e-07 0)
(1.46819e-07 -7.8877e-07 0)
(1.52298e-07 -8.11126e-07 0)
(1.57869e-07 -8.33581e-07 0)
(1.63531e-07 -8.56132e-07 0)
(1.69282e-07 -8.78761e-07 0)
(1.75118e-07 -9.0145e-07 0)
(1.81036e-07 -9.24186e-07 0)
(1.87035e-07 -9.46957e-07 0)
(1.9311e-07 -9.69744e-07 0)
(1.99259e-07 -9.92537e-07 0)
(2.05478e-07 -1.01532e-06 0)
(2.11765e-07 -1.03807e-06 0)
(2.18114e-07 -1.06079e-06 0)
(2.24522e-07 -1.08344e-06 0)
(2.30985e-07 -1.10602e-06 0)
(2.37501e-07 -1.12852e-06 0)
(2.44066e-07 -1.15092e-06 0)
(2.50676e-07 -1.17321e-06 0)
(2.57328e-07 -1.19538e-06 0)
(2.64016e-07 -1.21741e-06 0)
(2.70736e-07 -1.23928e-06 0)
(2.77486e-07 -1.261e-06 0)
(2.8426e-07 -1.28254e-06 0)
(2.91053e-07 -1.30388e-06 0)
(2.97862e-07 -1.32502e-06 0)
(3.04685e-07 -1.34595e-06 0)
(3.11518e-07 -1.36667e-06 0)
(3.18356e-07 -1.38716e-06 0)
(3.25198e-07 -1.40742e-06 0)
(3.32041e-07 -1.42744e-06 0)
(3.3888e-07 -1.44721e-06 0)
(3.45711e-07 -1.46671e-06 0)
(3.5253e-07 -1.48595e-06 0)
(3.59334e-07 -1.50492e-06 0)
(3.6612e-07 -1.5236e-06 0)
(3.72884e-07 -1.542e-06 0)
(3.79626e-07 -1.56011e-06 0)
(3.86343e-07 -1.57793e-06 0)
(3.93034e-07 -1.59546e-06 0)
(3.99697e-07 -1.6127e-06 0)
(4.0633e-07 -1.62964e-06 0)
(4.1293e-07 -1.64629e-06 0)
(4.19494e-07 -1.66263e-06 0)
(4.2602e-07 -1.67866e-06 0)
(4.32505e-07 -1.69438e-06 0)
(4.38948e-07 -1.7098e-06 0)
(4.45347e-07 -1.7249e-06 0)
(4.51702e-07 -1.7397e-06 0)
(4.58013e-07 -1.75419e-06 0)
(4.64278e-07 -1.76837e-06 0)
(4.70497e-07 -1.78225e-06 0)
(4.7667e-07 -1.79582e-06 0)
(4.82795e-07 -1.8091e-06 0)
(4.88871e-07 -1.82207e-06 0)
(4.94899e-07 -1.83474e-06 0)
(5.00878e-07 -1.84711e-06 0)
(5.06808e-07 -1.85919e-06 0)
(5.1269e-07 -1.87097e-06 0)
(5.18525e-07 -1.88247e-06 0)
(5.24313e-07 -1.89368e-06 0)
(5.30056e-07 -1.90461e-06 0)
(5.35755e-07 -1.91525e-06 0)
(5.41412e-07 -1.92563e-06 0)
(5.47027e-07 -1.93572e-06 0)
(5.52602e-07 -1.94555e-06 0)
(5.58139e-07 -1.95511e-06 0)
(5.63638e-07 -1.96441e-06 0)
(5.69102e-07 -1.97344e-06 0)
(5.74532e-07 -1.98221e-06 0)
(5.79929e-07 -1.99072e-06 0)
(5.85297e-07 -1.99897e-06 0)
(5.90639e-07 -2.00697e-06 0)
(5.95956e-07 -2.01471e-06 0)
(6.01253e-07 -2.0222e-06 0)
(6.0653e-07 -2.02943e-06 0)
(6.11788e-07 -2.03641e-06 0)
(6.17021e-07 -2.04313e-06 0)
(6.22218e-07 -2.04955e-06 0)
(6.27358e-07 -2.05567e-06 0)
(6.32416e-07 -2.06145e-06 0)
(6.37356e-07 -2.06685e-06 0)
(6.42146e-07 -2.07184e-06 0)
(6.46756e-07 -2.07641e-06 0)
(6.51172e-07 -2.08055e-06 0)
(6.55403e-07 -2.08429e-06 0)
(6.59487e-07 -2.08766e-06 0)
(6.63502e-07 -2.09074e-06 0)
(6.67559e-07 -2.09361e-06 0)
(6.71785e-07 -2.09634e-06 0)
(6.76259e-07 -2.09895e-06 0)
(6.80889e-07 -2.10138e-06 0)
(6.85287e-07 -2.1034e-06 0)
(6.88791e-07 -2.10478e-06 0)
(6.90879e-07 -2.10545e-06 0)
(6.91694e-07 -2.10562e-06 0)
(6.91943e-07 -2.10559e-06 0)
(6.921e-07 -2.10557e-06 0)
(6.92813e-07 -2.10604e-06 0)
(7.04666e-07 -2.10828e-06 0)
(0.0581037 -0.00119086 0)
(0.156976 -0.00316836 0)
(0.238802 -0.00392036 0)
(0.306994 -0.00448836 0)
(0.365446 -0.0048753 0)
(0.416545 -0.00521807 0)
(0.461754 -0.00540872 0)
(0.502053 -0.00560408 0)
(0.538216 -0.00577902 0)
(0.570883 -0.00593239 0)
(0.600582 -0.00606449 0)
(0.62775 -0.00617492 0)
(0.652749 -0.00626247 0)
(0.675882 -0.00632585 0)
(0.697398 -0.00636416 0)
(0.717509 -0.00637703 0)
(0.736391 -0.00636456 0)
(0.75419 -0.00632732 0)
(0.771033 -0.00626627 0)
(0.787024 -0.00618259 0)
(0.802254 -0.00607755 0)
(0.816799 -0.00595254 0)
(0.830726 -0.00580899 0)
(0.84409 -0.00564835 0)
(0.856941 -0.00547206 0)
(0.869321 -0.00528154 0)
(0.881268 -0.00507816 0)
(0.892813 -0.00486328 0)
(0.903985 -0.00463817 0)
(0.914809 -0.0044041 0)
(0.925307 -0.00416229 0)
(0.935498 -0.00391395 0)
(0.945398 -0.00366025 0)
(0.955022 -0.0034024 0)
(0.964384 -0.00314161 0)
(0.973493 -0.00287916 0)
(0.982361 -0.00261644 0)
(0.990995 -0.00235496 0)
(0.999402 -0.00209644 0)
(1.00759 -0.00184287 0)
(1.01556 -0.0015967 0)
(1.02332 -0.00136117 0)
(1.03088 -0.00114057 0)
(1.03823 -0.000940007 0)
(1.04538 -0.000763296 0)
(1.05234 -0.000608348 0)
(1.05911 -0.000461894 0)
(1.06568 -0.000304861 0)
(1.07207 -0.000126522 0)
(1.07828 7.37633e-05 0)
(1.0843 0.00029401 0)
(1.09014 0.000532564 0)
(1.09579 0.000787907 0)
(1.10126 0.00105855 0)
(1.10655 0.00134303 0)
(1.11164 0.00163986 0)
(1.11659 0.00195062 0)
(1.12145 0.00227735 0)
(1.12619 0.00261889 0)
(1.13081 0.0029738 0)
(1.1353 0.0033402 0)
(1.13966 0.00371558 0)
(1.14386 0.00409634 0)
(1.14789 0.00447713 0)
(1.15176 0.00485009 0)
(1.15544 0.00520446 0)
(1.15894 0.00552711 0)
(1.16225 0.00580448 0)
(1.16536 0.00602549 0)
(1.16829 0.00618445 0)
(1.17105 0.00628232 0)
(1.17363 0.00632594 0)
(1.17604 0.00632568 0)
(1.17831 0.00629298 0)
(1.18043 0.00623843 0)
(1.18242 0.0061709 0)
(1.18427 0.00609725 0)
(1.18599 0.00602252 0)
(1.1876 0.00595017 0)
(1.18909 0.00588245 0)
(1.19046 0.00582054 0)
(1.19173 0.00576488 0)
(1.19289 0.00571512 0)
(1.19394 0.00567084 0)
(1.1949 0.00563021 0)
(1.19577 0.00559296 0)
(1.19654 0.00555517 0)
(1.19722 0.00551787 0)
(1.1978 0.0054721 0)
(1.19827 0.00542327 0)
(1.19862 0.0053454 0)
(1.19899 0.00520614 0)
(1.25137 0.0014852 0)
(1.25196 0.00449738 0)
(1.25122 0.00271401 0)
(1.25025 0.00332855 0)
(1.2492 0.00299154 0)
(1.24807 0.00297857 0)
(1.24685 0.00293059 0)
(1.24556 0.00289349 0)
(1.24419 0.00292244 0)
(1.24277 0.00284426 0)
(1.24127 0.003021 0)
(1.23974 0.00301573 0)
(1.23814 0.00262685 0)
(1.2363 0.00603655 0)
(1.23329 -0.0218627 0)
(1.23125 -0.0395699 0)
(1.22939 -0.0395517 0)
(1.22767 -0.0395541 0)
(1.22593 -0.0395552 0)
(1.2242 -0.0395562 0)
(1.22248 -0.0395569 0)
(1.22078 -0.0395573 0)
(1.21912 -0.0395574 0)
(1.2175 -0.0395572 0)
(1.21595 -0.0395565 0)
(1.21447 -0.0395554 0)
(1.21309 -0.0395538 0)
(1.21182 -0.0395516 0)
(1.21069 -0.0395488 0)
(1.20971 -0.0395452 0)
(1.20891 -0.0395408 0)
(1.2083 -0.0395351 0)
(1.20792 -0.0395257 0)
(1.20779 -0.0395158 0)
(1.20778 -0.0395113 0)
(1.20778 -0.0395108 0)
(1.20778 -0.0395108 0)
(1.20778 -0.0395108 0)
(1.20778 -0.0395108 0)
(1.20778 -0.0395108 0)
(1.20778 -0.0395108 0)
(1.20778 -0.0395108 0)
(1.20778 -0.0395108 0)
(1.20778 -0.0395108 0)
(1.20778 -0.0395108 0)
(1.20778 -0.0395108 0)
(1.20778 -0.0395108 0)
(1.20778 -0.0395108 0)
(1.20778 -0.0395108 0)
(1.20778 -0.0395108 0)
(1.20778 -0.0395108 0)
(1.20778 -0.0395108 0)
(1.20778 -0.0395108 0)
(1.20778 -0.0395108 0)
(1.20778 -0.0395108 0)
(1.20778 -0.0395108 0)
(1.20778 -0.0395108 0)
(1.20778 -0.0395108 0)
(1.20778 -0.0395108 0)
(1.20778 -0.0395108 0)
(1.20778 -0.0395108 0)
(1.20778 -0.0395108 0)
(1.20778 -0.0395108 0)
(1.20778 -0.0395108 0)
(1.20778 -0.0395108 0)
(1.20778 -0.0395108 0)
(1.20778 -0.0395108 0)
(1.20778 -0.0395108 0)
(1.20778 -0.0395108 0)
(1.20778 -0.0395108 0)
(1.20778 -0.0395108 0)
(1.20778 -0.0395108 0)
(1.20778 -0.0395108 0)
(1.20778 -0.0395108 0)
(1.20778 -0.0395108 0)
(1.20778 -0.0395108 0)
(1.20778 -0.0395108 0)
(1.20778 -0.0395108 0)
(1.20778 -0.0395108 0)
(1.20778 -0.0395108 0)
(1.20778 -0.0395108 0)
(1.20778 -0.0395108 0)
(1.20778 -0.0395108 0)
(1.20778 -0.0395108 0)
(1.20778 -0.0395108 0)
(1.20778 -0.0395108 0)
(1.20778 -0.0395108 0)
(1.20778 -0.0395108 0)
(1.20778 -0.0395108 0)
(1.20778 -0.0395108 0)
(1.20778 -0.0395108 0)
(1.20778 -0.0395108 0)
(1.20778 -0.0395108 0)
(1.20778 -0.0395108 0)
(1.20778 -0.0395108 0)
(1.20778 -0.0395108 0)
(1.20778 -0.0395108 0)
(1.20778 -0.0395108 0)
(1.20778 -0.0395108 0)
(1.20778 -0.0395108 0)
(1.20778 -0.0395108 0)
(1.20778 -0.0395108 0)
(1.20778 -0.0395108 0)
(1.20778 -0.0395108 0)
(1.20778 -0.0395108 0)
(1.20778 -0.0395108 0)
(1.20778 -0.0395108 0)
(1.20778 -0.0395108 0)
(1.20778 -0.0395108 0)
(1.20778 -0.0395108 0)
(1.20778 -0.0395108 0)
(1.20778 -0.0395108 0)
(1.20778 -0.0395108 0)
(1.20778 -0.0395108 0)
(1.20778 -0.0395108 0)
(1.20778 -0.0395108 0)
(1.20778 -0.0395108 0)
(1.20778 -0.0395108 0)
(1.20778 -0.0395108 0)
(1.20778 -0.0395106 0)
(1.20778 -0.0395021 0)
(1.20781 -0.0391566 0)
(1.20839 -0.0224232 0)
)
;

boundaryField
{
    inandouthalf11
    {
        type            cyclic;
    }
    inandouthalf12
    {
        type            cyclic;
    }
    inandouthalf21
    {
        type            cyclic;
    }
    inandouthalf22
    {
        type            cyclic;
    }
    inandouthalf31
    {
        type            cyclic;
    }
    inandouthalf32
    {
        type            cyclic;
    }
    inandouthalf41
    {
        type            cyclic;
    }
    inandouthalf42
    {
        type            cyclic;
    }
    top
    {
        type            symmetryPlane;
    }
    walls
    {
        type            fixedValue;
        value           uniform (0 0 0);
    }
    frontAndBackPlanes
    {
        type            empty;
    }
}


// ************************************************************************* //
