/*--------------------------------*- C++ -*----------------------------------*\
| =========                 |                                                 |
| \\      /  F ield         | OpenFOAM: The Open Source CFD Toolbox           |
|  \\    /   O peration     | Version:  2.4.x                                 |
|   \\  /    A nd           | Web:      www.OpenFOAM.org                      |
|    \\/     M anipulation  |                                                 |
\*---------------------------------------------------------------------------*/
FoamFile
{
    version     2.0;
    format      ascii;
    class       volVectorField;
    location    "9.7";
    object      Ub;
}
// * * * * * * * * * * * * * * * * * * * * * * * * * * * * * * * * * * * * * //

dimensions      [0 1 -1 0 0 0 0];

internalField   nonuniform List<vector> 
360
(
(-0.000195533 7.86249e-09 0)
(-0.000194451 2.77753e-08 0)
(-0.000194299 5.06296e-08 0)
(-0.000194443 7.13781e-08 0)
(-0.000194511 9.14745e-08 0)
(-0.000194531 1.11757e-07 0)
(-0.000194556 1.32121e-07 0)
(-0.00019459 1.52451e-07 0)
(-0.000194625 1.72802e-07 0)
(-0.00019466 1.93284e-07 0)
(-0.000194696 2.1399e-07 0)
(-0.000194731 2.34981e-07 0)
(-0.000194767 2.56297e-07 0)
(-0.000194803 2.77971e-07 0)
(-0.000194839 3.00031e-07 0)
(-0.000194876 3.22502e-07 0)
(-0.000194913 3.45405e-07 0)
(-0.000194951 3.68758e-07 0)
(-0.000194989 3.9257e-07 0)
(-0.000195027 4.16852e-07 0)
(-0.000195065 4.41607e-07 0)
(-0.000195104 4.6684e-07 0)
(-0.000195143 4.92553e-07 0)
(-0.000195183 5.18748e-07 0)
(-0.000195223 5.45422e-07 0)
(-0.000195263 5.72573e-07 0)
(-0.000195304 6.00195e-07 0)
(-0.000195345 6.28285e-07 0)
(-0.000195386 6.56837e-07 0)
(-0.000195428 6.85843e-07 0)
(-0.00019547 7.15291e-07 0)
(-0.000195513 7.45178e-07 0)
(-0.000195556 7.75485e-07 0)
(-0.000195599 8.06209e-07 0)
(-0.000195643 8.37334e-07 0)
(-0.000195687 8.68846e-07 0)
(-0.000195732 9.00729e-07 0)
(-0.000195777 9.3297e-07 0)
(-0.000195823 9.6556e-07 0)
(-0.000195868 9.98472e-07 0)
(-0.000195915 1.0317e-06 0)
(-0.000195962 1.06521e-06 0)
(-0.000196009 1.099e-06 0)
(-0.000196058 1.13304e-06 0)
(-0.000196106 1.16732e-06 0)
(-0.000196155 1.20182e-06 0)
(-0.000196205 1.23651e-06 0)
(-0.000196254 1.27137e-06 0)
(-0.000196305 1.30638e-06 0)
(-0.000196357 1.34152e-06 0)
(-0.000196408 1.37677e-06 0)
(-0.00019646 1.4121e-06 0)
(-0.000196513 1.4475e-06 0)
(-0.000196567 1.48293e-06 0)
(-0.000196621 1.51838e-06 0)
(-0.000196677 1.55382e-06 0)
(-0.000196732 1.58923e-06 0)
(-0.000196789 1.62458e-06 0)
(-0.000196846 1.65986e-06 0)
(-0.000196903 1.69502e-06 0)
(-0.000196962 1.73007e-06 0)
(-0.000197021 1.76496e-06 0)
(-0.000197082 1.79968e-06 0)
(-0.000197143 1.83422e-06 0)
(-0.000197205 1.86855e-06 0)
(-0.000197268 1.90265e-06 0)
(-0.000197332 1.9365e-06 0)
(-0.000197397 1.97007e-06 0)
(-0.000197462 2.00335e-06 0)
(-0.000197528 2.0363e-06 0)
(-0.000197597 2.06893e-06 0)
(-0.000197666 2.10123e-06 0)
(-0.000197735 2.13315e-06 0)
(-0.000197806 2.16471e-06 0)
(-0.000197878 2.19588e-06 0)
(-0.000197952 2.22667e-06 0)
(-0.000198026 2.25704e-06 0)
(-0.000198102 2.28699e-06 0)
(-0.000198179 2.3165e-06 0)
(-0.000198258 2.34557e-06 0)
(-0.000198338 2.37417e-06 0)
(-0.000198419 2.40231e-06 0)
(-0.000198502 2.42998e-06 0)
(-0.000198586 2.45718e-06 0)
(-0.000198672 2.4839e-06 0)
(-0.00019876 2.51015e-06 0)
(-0.000198849 2.53591e-06 0)
(-0.00019894 2.56119e-06 0)
(-0.000199033 2.58597e-06 0)
(-0.000199127 2.61025e-06 0)
(-0.000199224 2.63403e-06 0)
(-0.000199322 2.6573e-06 0)
(-0.000199422 2.68006e-06 0)
(-0.000199525 2.70231e-06 0)
(-0.00019963 2.72406e-06 0)
(-0.000199737 2.74532e-06 0)
(-0.000199846 2.76607e-06 0)
(-0.000199958 2.78632e-06 0)
(-0.000200072 2.80607e-06 0)
(-0.000200189 2.82533e-06 0)
(-0.000200309 2.84409e-06 0)
(-0.000200431 2.86236e-06 0)
(-0.000200557 2.88014e-06 0)
(-0.000200685 2.89743e-06 0)
(-0.000200817 2.91424e-06 0)
(-0.000200952 2.93057e-06 0)
(-0.00020109 2.94643e-06 0)
(-0.000201232 2.96182e-06 0)
(-0.000201377 2.97675e-06 0)
(-0.000201527 2.99122e-06 0)
(-0.00020168 3.00523e-06 0)
(-0.000201838 3.01878e-06 0)
(-0.000202 3.03188e-06 0)
(-0.000202166 3.04453e-06 0)
(-0.000202337 3.05673e-06 0)
(-0.000202514 3.06848e-06 0)
(-0.000202695 3.07978e-06 0)
(-0.000202882 3.09064e-06 0)
(-0.000203075 3.10105e-06 0)
(-0.000203274 3.11102e-06 0)
(-0.000203479 3.12053e-06 0)
(-0.000203691 3.1296e-06 0)
(-0.00020391 3.13818e-06 0)
(-0.000204137 3.14626e-06 0)
(-0.000204372 3.15378e-06 0)
(-0.000204616 3.16071e-06 0)
(-0.000204869 3.16699e-06 0)
(-0.000205132 3.17256e-06 0)
(-0.000205406 3.1774e-06 0)
(-0.000205693 3.1815e-06 0)
(-0.000205991 3.18489e-06 0)
(-0.000206303 3.18762e-06 0)
(-0.00020663 3.18979e-06 0)
(-0.000206975 3.19148e-06 0)
(-0.000207342 3.19279e-06 0)
(-0.000207731 3.19374e-06 0)
(-0.000208141 3.19413e-06 0)
(-0.000208579 3.19361e-06 0)
(-0.000209067 3.19181e-06 0)
(-0.000209627 3.18855e-06 0)
(-0.000210238 3.23542e-06 0)
(-0.000210932 2.37925e-06 0)
(-0.000218781 7.03112e-06 0)
(-0.000220333 -1.02285e-05 0)
(2.14828e-05 4.95156e-05 0)
(0.0619668 0.000886775 0)
(0.161351 0.00150232 0)
(0.241373 0.00139936 0)
(0.308257 0.00138329 0)
(0.365787 0.00131683 0)
(0.416156 0.00122787 0)
(0.46074 0.00111888 0)
(0.500498 0.00101408 0)
(0.536197 0.000915305 0)
(0.568465 0.000823414 0)
(0.597821 0.000738853 0)
(0.624692 0.000661622 0)
(0.649437 0.000591435 0)
(0.67235 0.000527868 0)
(0.693678 0.000470443 0)
(0.713627 0.000418672 0)
(0.732371 0.000372077 0)
(0.750053 0.000330198 0)
(0.766797 0.000292605 0)
(0.782707 0.000258892 0)
(0.797869 0.000228686 0)
(0.812362 0.000201645 0)
(0.826248 0.000177456 0)
(0.839584 0.000155839 0)
(0.85242 0.000136537 0)
(0.864796 0.00011932 0)
(0.876751 0.000103981 0)
(0.888316 9.03319e-05 0)
(0.899521 7.82042e-05 0)
(0.910391 6.74458e-05 0)
(0.920948 5.79198e-05 0)
(0.931212 4.95028e-05 0)
(0.941202 4.20836e-05 0)
(0.950934 3.55618e-05 0)
(0.960422 2.98467e-05 0)
(0.969678 2.48572e-05 0)
(0.978716 2.05198e-05 0)
(0.987544 1.67685e-05 0)
(0.996174 1.3544e-05 0)
(1.00461 1.07933e-05 0)
(1.01287 8.46918e-06 0)
(1.02095 6.53061e-06 0)
(1.02886 4.94221e-06 0)
(1.03661 3.67135e-06 0)
(1.0442 2.68059e-06 0)
(1.05164 1.91697e-06 0)
(1.05893 1.30568e-06 0)
(1.06608 7.73402e-07 0)
(1.07308 2.85471e-07 0)
(1.07994 -1.59414e-07 0)
(1.08667 -5.57026e-07 0)
(1.09326 -9.06436e-07 0)
(1.09973 -1.20849e-06 0)
(1.10606 -1.46486e-06 0)
(1.11227 -1.67775e-06 0)
(1.11835 -1.84969e-06 0)
(1.12437 -1.98476e-06 0)
(1.13037 -2.08536e-06 0)
(1.13637 -2.1525e-06 0)
(1.14235 -2.18741e-06 0)
(1.1483 -2.19147e-06 0)
(1.15421 -2.16599e-06 0)
(1.16009 -2.11194e-06 0)
(1.16592 -2.02973e-06 0)
(1.17169 -1.91934e-06 0)
(1.17739 -1.78116e-06 0)
(1.18301 -1.61754e-06 0)
(1.18852 -1.43431e-06 0)
(1.19392 -1.24119e-06 0)
(1.19919 -1.05017e-06 0)
(1.2043 -8.72558e-07 0)
(1.20923 -7.16181e-07 0)
(1.21397 -5.84286e-07 0)
(1.21848 -4.76254e-07 0)
(1.22273 -3.89203e-07 0)
(1.22671 -3.19469e-07 0)
(1.23039 -2.63531e-07 0)
(1.23374 -2.18398e-07 0)
(1.23674 -1.81683e-07 0)
(1.23939 -1.51542e-07 0)
(1.24168 -1.26568e-07 0)
(1.2436 -1.05698e-07 0)
(1.24518 -8.81477e-08 0)
(1.24644 -7.33057e-08 0)
(1.24739 -6.07412e-08 0)
(1.24806 -5.00904e-08 0)
(1.24848 -4.10813e-08 0)
(1.24868 -3.34658e-08 0)
(1.24868 -2.70826e-08 0)
(1.2485 -2.18673e-08 0)
(1.24816 -1.79406e-08 0)
(1.24768 -1.27647e-08 0)
(1.24707 -8.06503e-09 0)
(1.24634 -5.93437e-09 0)
(1.2455 -4.03888e-09 0)
(1.24456 -2.70222e-09 0)
(1.24352 -1.82086e-09 0)
(1.2424 -1.23142e-09 0)
(1.24119 -8.2953e-10 0)
(1.23991 -5.54318e-10 0)
(1.23856 -3.66423e-10 0)
(1.23715 -2.374e-10 0)
(1.23567 -1.50547e-10 0)
(1.23414 -9.14547e-11 0)
(1.23256 -5.7187e-11 0)
(1.23093 -7.521e-12 0)
(1.22927 1.66666e-11 0)
(1.22758 -4.51398e-12 0)
(1.22587 -3.86645e-12 0)
(1.22414 -2.47641e-12 0)
(1.2224 -2.20747e-12 0)
(1.22066 -2.22107e-12 0)
(1.21894 -2.16914e-12 0)
(1.21723 -2.08169e-12 0)
(1.21556 -1.99981e-12 0)
(1.21393 -1.8778e-12 0)
(1.21236 -1.55148e-12 0)
(1.21087 -1.24127e-12 0)
(1.20946 -8.32238e-12 0)
(1.20817 2.09033e-11 0)
(1.20701 -5.19898e-11 0)
(1.206 9.10218e-11 0)
(1.20516 -1.50082e-10 0)
(1.20452 2.16841e-10 0)
(1.20409 -2.99861e-10 0)
(1.20392 3.85105e-10 0)
(1.20391 -4.79697e-10 0)
(1.20391 5.71792e-10 0)
(1.20391 -6.70637e-10 0)
(1.20391 7.6679e-10 0)
(1.20391 -8.69561e-10 0)
(1.20391 9.70084e-10 0)
(1.20391 -1.0771e-09 0)
(1.20391 1.18233e-09 0)
(1.20391 -1.29388e-09 0)
(1.20391 1.40412e-09 0)
(1.20391 -1.52046e-09 0)
(1.20391 1.63592e-09 0)
(1.20391 -1.7573e-09 0)
(1.20391 1.8782e-09 0)
(1.20391 -2.0048e-09 0)
(1.20391 2.13133e-09 0)
(1.20391 -2.26323e-09 0)
(1.20391 2.39559e-09 0)
(1.20391 -2.53294e-09 0)
(1.20391 2.67121e-09 0)
(1.20391 -2.81411e-09 0)
(1.20391 2.9584e-09 0)
(1.20391 -3.10691e-09 0)
(1.20391 3.25726e-09 0)
(1.20391 -3.41142e-09 0)
(1.20391 3.56786e-09 0)
(1.20391 -3.72779e-09 0)
(1.20391 3.89018e-09 0)
(1.20391 -4.05594e-09 0)
(1.20391 4.22425e-09 0)
(1.20391 -4.39579e-09 0)
(1.20391 4.5699e-09 0)
(1.20391 -4.74716e-09 0)
(1.20391 4.92697e-09 0)
(1.20391 -5.10983e-09 0)
(1.20391 5.29516e-09 0)
(1.20391 -5.48344e-09 0)
(1.20391 5.67408e-09 0)
(1.20391 -5.86751e-09 0)
(1.20391 5.32396e-09 0)
(1.20391 -5.39916e-09 0)
(1.20391 5.47326e-09 0)
(1.20391 -5.54674e-09 0)
(1.20391 5.61911e-09 0)
(1.20391 -5.69086e-09 0)
(1.20391 5.76147e-09 0)
(1.20391 -5.83147e-09 0)
(1.20391 5.9003e-09 0)
(1.20391 -5.96852e-09 0)
(1.20391 6.03553e-09 0)
(1.20391 -6.10194e-09 0)
(1.20391 6.1671e-09 0)
(1.20391 -6.23168e-09 0)
(1.20391 6.29495e-09 0)
(1.20391 -6.35766e-09 0)
(1.20391 6.41898e-09 0)
(1.20391 -6.47981e-09 0)
(1.20391 6.53905e-09 0)
(1.20391 -6.59816e-09 0)
(1.20391 6.65504e-09 0)
(1.20391 -6.71255e-09 0)
(1.20391 6.76697e-09 0)
(1.20391 -6.8228e-09 0)
(1.20391 6.87472e-09 0)
(1.20391 -6.9287e-09 0)
(1.20391 6.97817e-09 0)
(1.20391 -7.0302e-09 0)
(1.20391 7.07707e-09 0)
(1.20391 -7.12698e-09 0)
(1.20391 7.17134e-09 0)
(1.20391 -7.21886e-09 0)
(1.20391 7.2607e-09 0)
(1.20391 -7.3055e-09 0)
(1.20391 7.34488e-09 0)
(1.20391 -7.38683e-09 0)
(1.20391 7.4234e-09 0)
(1.20391 -7.46232e-09 0)
(1.20391 7.49607e-09 0)
(1.20391 -7.53151e-09 0)
(1.20391 7.56229e-09 0)
(1.20391 -7.59377e-09 0)
(1.20391 7.62138e-09 0)
(1.20391 -7.64826e-09 0)
(1.20391 7.67232e-09 0)
(1.20391 -7.69396e-09 0)
(1.20391 7.71332e-09 0)
(1.20391 -7.72849e-09 0)
(1.20391 7.74064e-09 0)
(1.20391 -7.74743e-09 0)
)
;

boundaryField
{
    inandouthalf11
    {
        type            cyclic;
    }
    inandouthalf12
    {
        type            cyclic;
    }
    inandouthalf21
    {
        type            cyclic;
    }
    inandouthalf22
    {
        type            cyclic;
    }
    inandouthalf31
    {
        type            cyclic;
    }
    inandouthalf32
    {
        type            cyclic;
    }
    inandouthalf41
    {
        type            cyclic;
    }
    inandouthalf42
    {
        type            cyclic;
    }
    top
    {
        type            symmetryPlane;
    }
    walls
    {
        type            fixedValue;
        value           uniform (0 0 0);
    }
    frontAndBackPlanes
    {
        type            empty;
    }
}


// ************************************************************************* //
