/*--------------------------------*- C++ -*----------------------------------*\
| =========                 |                                                 |
| \\      /  F ield         | OpenFOAM: The Open Source CFD Toolbox           |
|  \\    /   O peration     | Version:  2.4.x                                 |
|   \\  /    A nd           | Web:      www.OpenFOAM.org                      |
|    \\/     M anipulation  |                                                 |
\*---------------------------------------------------------------------------*/
FoamFile
{
    version     2.0;
    format      ascii;
    class       volScalarField;
    location    "8.5";
    object      alpha_0;
}
// * * * * * * * * * * * * * * * * * * * * * * * * * * * * * * * * * * * * * //

dimensions      [0 0 0 0 0 0 0];

internalField   nonuniform List<scalar> 
360
(
0.610853
0.6117
0.611794
0.611706
0.611662
0.611648
0.611631
0.611608
0.611585
0.611562
0.611539
0.611515
0.611491
0.611467
0.611443
0.611419
0.611394
0.611369
0.611344
0.611319
0.611294
0.611268
0.611242
0.611215
0.611189
0.611162
0.611135
0.611108
0.611081
0.611053
0.611025
0.610996
0.610968
0.610939
0.61091
0.610881
0.610851
0.610821
0.610791
0.61076
0.610729
0.610698
0.610667
0.610635
0.610602
0.61057
0.610537
0.610504
0.61047
0.610436
0.610401
0.610366
0.610331
0.610295
0.610259
0.610223
0.610186
0.610148
0.61011
0.610072
0.610033
0.609994
0.609954
0.609913
0.609872
0.609831
0.609789
0.609746
0.609703
0.609659
0.609615
0.609569
0.609524
0.609478
0.609431
0.609383
0.609334
0.609285
0.609235
0.609184
0.609133
0.609081
0.609027
0.608973
0.608918
0.608862
0.608805
0.608747
0.608689
0.608629
0.608568
0.608506
0.608442
0.608378
0.608312
0.608245
0.608177
0.608107
0.608036
0.607963
0.607889
0.607813
0.607736
0.607656
0.607575
0.607493
0.607408
0.607321
0.607232
0.607141
0.607047
0.606952
0.606853
0.606752
0.606649
0.606542
0.606433
0.60632
0.606204
0.606085
0.605962
0.605835
0.605704
0.60557
0.60543
0.605286
0.605136
0.604981
0.604819
0.60465
0.604475
0.604291
0.6041
0.603898
0.603684
0.603459
0.603223
0.602972
0.602695
0.602376
0.60203
0.601695
0.601294
0.600778
0.600091
0.509009
0.344499
0.280722
0.24735
0.222834
0.201972
0.182873
0.164778
0.147836
0.132007
0.117263
0.10359
0.0909799
0.0794192
0.0688953
0.059378
0.0508312
0.0432094
0.0364601
0.0305264
0.0253486
0.0208661
0.0170182
0.0137454
0.0109898
0.00869507
0.00680713
0.00527394
0.00404527
0.00307292
0.00231254
0.00172633
0.00128359
0.000957885
0.00072423
0.000559081
0.000442289
0.000358475
0.000296905
0.000250471
0.000214545
0.000186098
0.000163115
0.000144217
0.000128442
0.0001151
0.000103687
9.38246e-05
8.52281e-05
7.76761e-05
7.09952e-05
6.50479e-05
5.97234e-05
5.49313e-05
5.05976e-05
4.66599e-05
4.30307e-05
3.96441e-05
3.64771e-05
3.35099e-05
3.07246e-05
2.81057e-05
2.56397e-05
2.33159e-05
2.11263e-05
1.9065e-05
1.71286e-05
1.53142e-05
1.36198e-05
1.20471e-05
1.05976e-05
9.26971e-06
8.06199e-06
6.973e-06
5.99981e-06
5.13599e-06
4.37283e-06
3.70466e-06
3.12397e-06
2.62119e-06
2.18842e-06
1.81859e-06
1.50362e-06
1.23752e-06
1.01197e-06
8.24414e-07
6.65656e-07
5.3671e-07
4.2137e-07
3.41726e-07
2.75868e-07
2.03094e-07
1.50061e-07
1.09423e-07
7.80997e-08
5.41468e-08
3.6117e-08
2.26101e-08
1.25925e-08
5.95972e-09
2.14673e-19
2.65457e-30
2.66899e-41
7.58351e-45
5.76638e-45
3.01714e-45
1.25986e-45
6.41082e-46
3.6692e-46
2.29136e-46
1.47317e-46
7.91363e-47
3.59386e-47
1.84737e-47
1.0003e-47
5.52782e-48
2.7855e-48
1.37911e-48
6.95144e-49
3.45909e-49
1.69378e-49
8.15466e-50
3.85885e-50
1.79395e-50
8.18875e-51
3.66791e-51
1.61116e-51
6.93574e-52
2.92398e-52
1.20632e-52
4.86656e-53
1.91817e-53
7.38041e-54
2.76945e-54
1.0125e-54
3.60263e-55
1.24617e-55
4.18539e-56
1.3631e-56
4.29868e-57
1.31068e-57
3.85737e-58
1.09379e-58
2.98242e-59
7.80293e-60
1.95418e-60
4.67243e-61
1.06345e-61
2.29647e-62
4.68769e-63
9.00704e-64
1.62118e-64
2.71814e-65
4.21752e-66
6.009e-67
7.78789e-68
9.07562e-69
9.37166e-70
8.41328e-71
6.39874e-72
3.97273e-73
1.90032e-74
6.31741e-76
1.14961e-77
2.63203e-80
1.74337e-85
1.3754e-87
5.37805e-90
1.92287e-100
3.44492e-111
4.52245e-122
4.25236e-133
3.46192e-144
2.11486e-155
1.11929e-166
6.46449e-177
2.85584e-187
2.07627e-195
8.38662e-206
7.14137e-214
3.39995e-224
2.45749e-232
1.43869e-242
8.46446e-251
9.27273e-261
2.97129e-269
6.17067e-279
1.07211e-287
3.06024e-297
3.96275e-306
1.46935e-315
1.78111e-318
8.52757e-321
4.57737e-319
2.8055e-319
6.80328e-321
7.09478e-321
6.08689e-321
8.5424e-321
0
0
0
0
0
0
0
0
0
0
0
0
0
0
0
0
)
;

boundaryField
{
    inandouthalf11
    {
        type            cyclic;
    }
    inandouthalf12
    {
        type            cyclic;
    }
    inandouthalf21
    {
        type            cyclic;
    }
    inandouthalf22
    {
        type            cyclic;
    }
    inandouthalf31
    {
        type            cyclic;
    }
    inandouthalf32
    {
        type            cyclic;
    }
    inandouthalf41
    {
        type            cyclic;
    }
    inandouthalf42
    {
        type            cyclic;
    }
    top
    {
        type            symmetryPlane;
    }
    walls
    {
        type            zeroGradient;
    }
    frontAndBackPlanes
    {
        type            empty;
    }
}


// ************************************************************************* //
