/*--------------------------------*- C++ -*----------------------------------*\
| =========                 |                                                 |
| \\      /  F ield         | OpenFOAM: The Open Source CFD Toolbox           |
|  \\    /   O peration     | Version:  2.4.x                                 |
|   \\  /    A nd           | Web:      www.OpenFOAM.org                      |
|    \\/     M anipulation  |                                                 |
\*---------------------------------------------------------------------------*/
FoamFile
{
    version     2.0;
    format      ascii;
    class       volVectorField;
    location    "8.5";
    object      ddt0(Ub);
}
// * * * * * * * * * * * * * * * * * * * * * * * * * * * * * * * * * * * * * //

dimensions      [0 1 -2 0 0 0 0];

internalField   nonuniform List<vector> 
360
(
(-0.000254976 -1.87744e-08 0)
(-0.00025364 -6.74922e-08 0)
(-0.000253446 -1.2521e-07 0)
(-0.000253642 -1.7945e-07 0)
(-0.000253749 -2.33361e-07 0)
(-0.000253794 -2.88459e-07 0)
(-0.000253843 -3.43848e-07 0)
(-0.000253902 -3.98512e-07 0)
(-0.000253962 -4.51937e-07 0)
(-0.000254021 -5.03901e-07 0)
(-0.000254081 -5.54246e-07 0)
(-0.00025414 -6.02811e-07 0)
(-0.000254199 -6.49453e-07 0)
(-0.000254257 -6.94065e-07 0)
(-0.000254315 -7.36575e-07 0)
(-0.000254373 -7.76968e-07 0)
(-0.000254431 -8.15254e-07 0)
(-0.000254488 -8.5146e-07 0)
(-0.000254545 -8.85637e-07 0)
(-0.000254603 -9.17862e-07 0)
(-0.000254659 -9.48223e-07 0)
(-0.000254716 -9.76834e-07 0)
(-0.000254773 -1.00382e-06 0)
(-0.000254829 -1.02932e-06 0)
(-0.000254886 -1.05348e-06 0)
(-0.000254943 -1.07648e-06 0)
(-0.000255 -1.09848e-06 0)
(-0.000255057 -1.11965e-06 0)
(-0.000255114 -1.14018e-06 0)
(-0.000255172 -1.16022e-06 0)
(-0.00025523 -1.17995e-06 0)
(-0.00025529 -1.19954e-06 0)
(-0.000255348 -1.21914e-06 0)
(-0.000255409 -1.2389e-06 0)
(-0.000255469 -1.25896e-06 0)
(-0.00025553 -1.27944e-06 0)
(-0.000255592 -1.30044e-06 0)
(-0.000255655 -1.32208e-06 0)
(-0.000255719 -1.34444e-06 0)
(-0.000255783 -1.36757e-06 0)
(-0.000255849 -1.39155e-06 0)
(-0.000255915 -1.41642e-06 0)
(-0.000255982 -1.44221e-06 0)
(-0.000256051 -1.46895e-06 0)
(-0.000256119 -1.49664e-06 0)
(-0.00025619 -1.52528e-06 0)
(-0.000256261 -1.55488e-06 0)
(-0.000256333 -1.58539e-06 0)
(-0.000256406 -1.6168e-06 0)
(-0.000256481 -1.64911e-06 0)
(-0.000256555 -1.68225e-06 0)
(-0.000256632 -1.7162e-06 0)
(-0.000256709 -1.75092e-06 0)
(-0.000256788 -1.78637e-06 0)
(-0.000256867 -1.82249e-06 0)
(-0.000256948 -1.85924e-06 0)
(-0.000257029 -1.89658e-06 0)
(-0.000257112 -1.93444e-06 0)
(-0.000257195 -1.97278e-06 0)
(-0.00025728 -2.01153e-06 0)
(-0.000257366 -2.05067e-06 0)
(-0.000257453 -2.09014e-06 0)
(-0.000257542 -2.12993e-06 0)
(-0.000257631 -2.16998e-06 0)
(-0.000257721 -2.21024e-06 0)
(-0.000257813 -2.25068e-06 0)
(-0.000257906 -2.29125e-06 0)
(-0.000258 -2.33189e-06 0)
(-0.000258096 -2.37257e-06 0)
(-0.000258192 -2.41325e-06 0)
(-0.00025829 -2.4539e-06 0)
(-0.00025839 -2.4945e-06 0)
(-0.000258489 -2.53501e-06 0)
(-0.000258592 -2.57542e-06 0)
(-0.000258695 -2.6157e-06 0)
(-0.0002588 -2.65584e-06 0)
(-0.000258907 -2.69578e-06 0)
(-0.000259014 -2.7355e-06 0)
(-0.000259124 -2.77494e-06 0)
(-0.000259235 -2.81408e-06 0)
(-0.000259347 -2.8529e-06 0)
(-0.000259462 -2.89137e-06 0)
(-0.000259578 -2.92949e-06 0)
(-0.000259696 -2.96724e-06 0)
(-0.000259816 -3.00462e-06 0)
(-0.000259938 -3.04161e-06 0)
(-0.000260062 -3.07819e-06 0)
(-0.000260188 -3.11434e-06 0)
(-0.000260315 -3.15003e-06 0)
(-0.000260446 -3.18523e-06 0)
(-0.000260578 -3.21993e-06 0)
(-0.000260713 -3.25411e-06 0)
(-0.00026085 -3.28776e-06 0)
(-0.00026099 -3.32089e-06 0)
(-0.000261132 -3.35351e-06 0)
(-0.000261277 -3.38562e-06 0)
(-0.000261425 -3.41721e-06 0)
(-0.000261576 -3.4483e-06 0)
(-0.00026173 -3.47888e-06 0)
(-0.000261887 -3.50896e-06 0)
(-0.000262048 -3.53855e-06 0)
(-0.000262212 -3.56763e-06 0)
(-0.000262379 -3.59622e-06 0)
(-0.000262551 -3.62432e-06 0)
(-0.000262726 -3.65194e-06 0)
(-0.000262905 -3.67906e-06 0)
(-0.000263089 -3.70569e-06 0)
(-0.000263277 -3.73183e-06 0)
(-0.000263469 -3.75748e-06 0)
(-0.000263667 -3.78263e-06 0)
(-0.000263869 -3.80731e-06 0)
(-0.000264076 -3.83154e-06 0)
(-0.000264289 -3.85538e-06 0)
(-0.000264508 -3.87894e-06 0)
(-0.000264732 -3.90236e-06 0)
(-0.000264963 -3.92585e-06 0)
(-0.0002652 -3.94969e-06 0)
(-0.000265444 -3.97424e-06 0)
(-0.000265695 -3.99994e-06 0)
(-0.000265953 -4.02727e-06 0)
(-0.00026622 -4.05674e-06 0)
(-0.000266495 -4.08884e-06 0)
(-0.000266779 -4.12392e-06 0)
(-0.000267072 -4.16212e-06 0)
(-0.000267375 -4.20324e-06 0)
(-0.000267689 -4.24663e-06 0)
(-0.000268015 -4.29109e-06 0)
(-0.000268351 -4.33482e-06 0)
(-0.0002687 -4.37534e-06 0)
(-0.000269061 -4.40945e-06 0)
(-0.000269433 -4.43334e-06 0)
(-0.000269814 -4.4428e-06 0)
(-0.000270204 -4.43405e-06 0)
(-0.000270606 -4.40549e-06 0)
(-0.000271021 -4.36117e-06 0)
(-0.000271451 -4.31667e-06 0)
(-0.0002719 -4.30556e-06 0)
(-0.000272396 -4.37903e-06 0)
(-0.000272991 -4.58676e-06 0)
(-0.000273736 -4.93045e-06 0)
(-0.000274586 -5.29923e-06 0)
(-0.000275405 -6.75732e-06 0)
(-0.00027634 6.41033e-07 0)
(-0.000277282 -1.8566e-05 0)
(-6.15121e-05 5.46053e-05 0)
(0.0499984 5.69562e-06 0)
(0.384147 0.00247932 0)
(0.324212 0.00279322 0)
(0.288673 0.00149212 0)
(0.271745 0.000513623 0)
(0.264658 -0.000239283 0)
(0.262228 -0.000880432 0)
(0.261482 -0.00138962 0)
(0.261032 -0.00176724 0)
(0.260387 -0.0020118 0)
(0.259521 -0.00213561 0)
(0.258606 -0.00215916 0)
(0.2579 -0.00210589 0)
(0.257676 -0.00199849 0)
(0.258195 -0.00185742 0)
(0.259699 -0.00170008 0)
(0.262399 -0.00153996 0)
(0.26649 -0.0013865 0)
(0.272142 -0.00124521 0)
(0.279517 -0.0011185 0)
(0.288769 -0.00100674 0)
(0.300054 -0.000908792 0)
(0.313535 -0.000822438 0)
(0.329391 -0.000744744 0)
(0.347818 -0.000672662 0)
(0.36902 -0.000603567 0)
(0.39319 -0.00053574 0)
(0.420468 -0.000468798 0)
(0.45087 -0.000403755 0)
(0.484195 -0.000342135 0)
(0.519932 -0.000284541 0)
(0.557191 -0.000230441 0)
(0.594737 -0.000179803 0)
(0.631152 -0.000134396 0)
(0.665105 -9.67746e-05 0)
(0.695614 -6.82289e-05 0)
(0.722178 -4.80511e-05 0)
(0.74476 -3.43439e-05 0)
(0.763656 -2.51116e-05 0)
(0.779335 -1.88138e-05 0)
(0.792322 -1.44214e-05 0)
(0.803114 -1.12827e-05 0)
(0.812147 -8.98753e-06 0)
(0.819782 -7.27311e-06 0)
(0.826307 -5.96751e-06 0)
(0.831951 -4.95597e-06 0)
(0.836895 -4.15991e-06 0)
(0.841276 -3.52467e-06 0)
(0.845204 -3.01141e-06 0)
(0.848762 -2.59205e-06 0)
(0.852016 -2.24597e-06 0)
(0.855019 -1.9578e-06 0)
(0.857811 -1.7159e-06 0)
(0.860424 -1.51141e-06 0)
(0.862884 -1.33743e-06 0)
(0.865212 -1.18859e-06 0)
(0.867447 -1.05927e-06 0)
(0.869621 -9.45574e-07 0)
(0.871742 -8.45366e-07 0)
(0.873816 -7.56862e-07 0)
(0.875848 -6.78557e-07 0)
(0.877843 -6.09135e-07 0)
(0.879805 -5.47411e-07 0)
(0.881736 -4.92299e-07 0)
(0.88364 -4.42846e-07 0)
(0.885519 -3.98227e-07 0)
(0.887374 -3.57771e-07 0)
(0.889206 -3.20888e-07 0)
(0.891018 -2.87014e-07 0)
(0.892809 -2.55707e-07 0)
(0.894581 -2.26753e-07 0)
(0.896334 -2.00015e-07 0)
(0.898067 -1.75343e-07 0)
(0.899782 -1.52647e-07 0)
(0.901479 -1.3197e-07 0)
(0.903156 -1.13339e-07 0)
(0.904813 -9.66588e-08 0)
(0.906451 -8.17959e-08 0)
(0.908068 -6.86947e-08 0)
(0.909664 -5.7254e-08 0)
(0.911237 -4.73214e-08 0)
(0.912787 -3.87483e-08 0)
(0.914312 -3.14151e-08 0)
(0.915811 -2.51878e-08 0)
(0.917281 -1.99299e-08 0)
(0.918722 -1.55222e-08 0)
(0.92013 -1.18948e-08 0)
(0.921504 -8.85449e-09 0)
(0.922839 -6.14327e-09 0)
(0.924134 -3.98969e-09 0)
(0.925384 -2.66777e-09 0)
(0.926586 -1.61207e-09 0)
(0.927734 -4.99714e-10 0)
(0.928825 4.33208e-10 0)
(0.929851 1.19765e-09 0)
(0.930807 1.76998e-09 0)
(0.931686 2.34347e-09 0)
(0.932479 2.11356e-09 0)
(0.933177 2.09597e-09 0)
(0.933771 2.50315e-09 0)
(0.934249 2.46212e-09 0)
(0.934598 2.65581e-09 0)
(0.934804 2.47213e-09 0)
(0.934851 2.30227e-09 0)
(0.934722 2.17179e-09 0)
(0.934397 2.0476e-09 0)
(0.933857 1.9278e-09 0)
(0.93308 1.8129e-09 0)
(0.932045 1.71333e-09 0)
(0.930735 1.62462e-09 0)
(0.929137 1.54424e-09 0)
(0.927248 1.45577e-09 0)
(0.925083 1.45648e-09 0)
(0.922683 1.21693e-09 0)
(0.920124 1.49574e-09 0)
(0.917525 9.80335e-10 0)
(0.915052 1.60407e-09 0)
(0.912913 7.75221e-10 0)
(0.911375 1.71375e-09 0)
(0.911332 5.53236e-10 0)
(0.912456 1.60518e-09 0)
(0.912633 2.21196e-10 0)
(0.912637 1.41405e-09 0)
(0.912637 -8.46275e-11 0)
(0.912637 1.23264e-09 0)
(0.912637 -3.64624e-10 0)
(0.912637 1.13895e-09 0)
(0.912637 -5.9196e-10 0)
(0.912637 1.02029e-09 0)
(0.912637 -8.62047e-10 0)
(0.912637 9.49355e-10 0)
(0.912637 -1.05706e-09 0)
(0.912637 9.3503e-10 0)
(0.912637 -1.21497e-09 0)
(0.912637 9.90944e-10 0)
(0.912637 -1.33431e-09 0)
(0.912637 1.02927e-09 0)
(0.912637 -1.49337e-09 0)
(0.912637 1.08485e-09 0)
(0.912637 -1.61948e-09 0)
(0.912637 1.1744e-09 0)
(0.912637 -1.73369e-09 0)
(0.912637 1.28206e-09 0)
(0.912637 -1.8341e-09 0)
(0.912637 1.42364e-09 0)
(0.912637 -1.91746e-09 0)
(0.912637 1.57051e-09 0)
(0.912637 -2.01124e-09 0)
(0.912637 1.72782e-09 0)
(0.912637 -2.10145e-09 0)
(0.912637 1.89393e-09 0)
(0.912637 -2.22943e-09 0)
(0.912637 1.9645e-09 0)
(0.912637 -2.46209e-09 0)
(0.912637 2.02199e-09 0)
(0.912637 -2.67517e-09 0)
(0.912637 2.09378e-09 0)
(0.912637 -2.89675e-09 0)
(0.912637 2.17714e-09 0)
(0.912637 -3.1197e-09 0)
(0.912637 2.25288e-09 0)
(0.912637 -3.35135e-09 0)
(0.912637 2.36738e-09 0)
(0.912637 -3.54664e-09 0)
(0.912637 2.51272e-09 0)
(0.912637 -3.3254e-09 0)
(0.912637 2.27319e-09 0)
(0.912637 -3.35224e-09 0)
(0.912637 2.27529e-09 0)
(0.912637 -3.45211e-09 0)
(0.912637 2.30583e-09 0)
(0.912637 -3.48269e-09 0)
(0.912637 2.37643e-09 0)
(0.912637 -3.46368e-09 0)
(0.912637 2.52808e-09 0)
(0.912637 -3.39601e-09 0)
(0.912637 2.64744e-09 0)
(0.912637 -3.35234e-09 0)
(0.912637 2.81459e-09 0)
(0.912637 -3.23101e-09 0)
(0.912637 3.01915e-09 0)
(0.912637 -3.14633e-09 0)
(0.912637 2.90293e-09 0)
(0.912637 -3.47837e-09 0)
(0.912637 2.947e-09 0)
(0.912637 -3.46031e-09 0)
(0.912637 3.08289e-09 0)
(0.912637 -3.24177e-09 0)
(0.912637 3.48953e-09 0)
(0.912637 -2.37423e-09 0)
(0.912637 5.25963e-09 0)
(0.912637 -6.9587e-10 0)
(0.912637 6.19553e-09 0)
(0.912637 4.18238e-10 0)
(0.912637 8.67195e-09 0)
(0.912637 3.68491e-09 0)
(0.912637 1.23062e-08 0)
(0.912637 8.13437e-09 0)
(0.912637 1.80303e-08 0)
(0.912637 1.4498e-08 0)
(0.912637 2.48302e-08 0)
(0.912637 2.18927e-08 0)
(0.912637 3.32909e-08 0)
(0.912637 3.13141e-08 0)
(0.912637 4.32e-08 0)
(0.912637 4.14482e-08 0)
(0.912637 5.33107e-08 0)
(0.912637 5.55241e-08 0)
(0.912637 7.44687e-08 0)
(0.912637 7.75581e-08 0)
(0.912637 9.19014e-08 0)
(0.912637 9.47927e-08 0)
(0.912637 1.14095e-07 0)
(0.912637 1.22651e-07 0)
(0.912637 7.23266e-08 0)
)
;

boundaryField
{
    inandouthalf11
    {
        type            cyclic;
    }
    inandouthalf12
    {
        type            cyclic;
    }
    inandouthalf21
    {
        type            cyclic;
    }
    inandouthalf22
    {
        type            cyclic;
    }
    inandouthalf31
    {
        type            cyclic;
    }
    inandouthalf32
    {
        type            cyclic;
    }
    inandouthalf41
    {
        type            cyclic;
    }
    inandouthalf42
    {
        type            cyclic;
    }
    top
    {
        type            symmetryPlane;
    }
    walls
    {
        type            calculated;
        value           uniform (0 0 0);
    }
    frontAndBackPlanes
    {
        type            empty;
    }
}


// ************************************************************************* //
