/*--------------------------------*- C++ -*----------------------------------*\
| =========                 |                                                 |
| \\      /  F ield         | OpenFOAM: The Open Source CFD Toolbox           |
|  \\    /   O peration     | Version:  2.4.x                                 |
|   \\  /    A nd           | Web:      www.OpenFOAM.org                      |
|    \\/     M anipulation  |                                                 |
\*---------------------------------------------------------------------------*/
FoamFile
{
    version     2.0;
    format      ascii;
    class       surfaceScalarField;
    location    "8.5";
    object      ddt0(phib);
}
// * * * * * * * * * * * * * * * * * * * * * * * * * * * * * * * * * * * * * //

dimensions      [0 3 -2 0 0 0 0];

internalField   nonuniform List<scalar> 
359
(
-1.53261e-13
-3.90517e-13
-6.11441e-13
-8.24126e-13
-1.04269e-12
-1.26501e-12
-1.48582e-12
-1.70231e-12
-1.91322e-12
-2.11802e-12
-2.31597e-12
-2.50654e-12
-2.68911e-12
-2.86343e-12
-3.02919e-12
-3.18657e-12
-3.33548e-12
-3.47622e-12
-3.6089e-12
-3.73401e-12
-3.85179e-12
-3.9629e-12
-4.06768e-12
-4.16689e-12
-4.26101e-12
-4.35088e-12
-4.43698e-12
-4.52026e-12
-4.60116e-12
-4.6806e-12
-4.75904e-12
-4.83733e-12
-4.91585e-12
-4.9954e-12
-5.07629e-12
-5.15923e-12
-5.24435e-12
-5.33232e-12
-5.4232e-12
-5.51744e-12
-5.61503e-12
-5.71639e-12
-5.82136e-12
-5.93029e-12
-6.04288e-12
-6.15944e-12
-6.27963e-12
-6.40357e-12
-6.53091e-12
-6.66196e-12
-6.79609e-12
-6.93357e-12
-7.07383e-12
-7.21714e-12
-7.36282e-12
-7.51117e-12
-7.66151e-12
-7.81406e-12
-7.96821e-12
-8.12407e-12
-8.28129e-12
-8.43993e-12
-8.59955e-12
-8.76032e-12
-8.92169e-12
-9.08384e-12
-9.2462e-12
-9.409e-12
-9.57164e-12
-9.73443e-12
-9.89681e-12
-1.00592e-11
-1.02209e-11
-1.03825e-11
-1.05432e-11
-1.07036e-11
-1.08628e-11
-1.10213e-11
-1.11783e-11
-1.13344e-11
-1.14889e-11
-1.16422e-11
-1.17938e-11
-1.19442e-11
-1.20928e-11
-1.22401e-11
-1.23855e-11
-1.25293e-11
-1.2671e-11
-1.28109e-11
-1.29486e-11
-1.30844e-11
-1.32178e-11
-1.33494e-11
-1.34788e-11
-1.36063e-11
-1.37315e-11
-1.3855e-11
-1.39762e-11
-1.40957e-11
-1.42129e-11
-1.43283e-11
-1.44416e-11
-1.45532e-11
-1.46625e-11
-1.47702e-11
-1.48756e-11
-1.49793e-11
-1.50807e-11
-1.51805e-11
-1.52782e-11
-1.53744e-11
-1.54689e-11
-1.55628e-11
-1.56563e-11
-1.57508e-11
-1.5847e-11
-1.59472e-11
-1.60526e-11
-1.61659e-11
-1.62884e-11
-1.64227e-11
-1.65691e-11
-1.67283e-11
-1.68981e-11
-1.70755e-11
-1.72539e-11
-1.74254e-11
-1.7578e-11
-1.76983e-11
-1.77691e-11
-1.77739e-11
-1.76991e-11
-1.75455e-11
-1.73444e-11
-1.71895e-11
-1.72562e-11
-1.77791e-11
-1.89207e-11
-2.05292e-11
-2.20006e-11
-2.27547e-11
-2.29105e-11
-2.29108e-11
-8.19441e-11
5.69619e-09
9.21349e-09
6.76828e-09
3.40207e-09
3.11269e-10
-2.33776e-09
-4.60649e-09
-6.36778e-09
-7.59295e-09
-8.31497e-09
-8.59913e-09
-8.53369e-09
-8.20945e-09
-7.71042e-09
-7.11288e-09
-6.4775e-09
-5.85053e-09
-5.26164e-09
-4.72613e-09
-4.24941e-09
-3.83016e-09
-3.4618e-09
-3.13393e-09
-2.83456e-09
-2.55239e-09
-2.27872e-09
-2.00899e-09
-1.74424e-09
-1.49029e-09
-1.25257e-09
-1.03066e-09
-8.21657e-10
-6.2866e-10
-4.6167e-10
-3.29265e-10
-2.32264e-10
-1.64862e-10
-1.19099e-10
-8.80117e-11
-6.65743e-11
-5.14688e-11
-4.05752e-11
-3.25415e-11
-2.64933e-11
-2.18544e-11
-1.82363e-11
-1.53722e-11
-1.30741e-11
-1.12083e-11
-9.67692e-12
-8.4082e-12
-7.34783e-12
-6.45499e-12
-5.69787e-12
-5.05219e-12
-4.49836e-12
-4.01214e-12
-3.58399e-12
-3.20636e-12
-2.87243e-12
-2.57685e-12
-2.31435e-12
-2.08064e-12
-1.87132e-12
-1.68317e-12
-1.51278e-12
-1.35814e-12
-1.21656e-12
-1.08624e-12
-9.65424e-13
-8.5413e-13
-7.51219e-13
-6.5655e-13
-5.695e-13
-4.90995e-13
-4.2029e-13
-3.57315e-13
-3.01094e-13
-2.52225e-13
-2.09268e-13
-1.72429e-13
-1.40355e-13
-1.13458e-13
-9.02468e-14
-7.11289e-14
-5.46628e-14
-4.17925e-14
-3.02768e-14
-2.00747e-14
-1.29255e-14
-9.3054e-15
-3.99958e-15
-2.13651e-16
3.30238e-15
5.98803e-15
7.53095e-15
1.05973e-14
6.82276e-15
9.93545e-15
9.54382e-15
1.04337e-14
1.02069e-14
9.32902e-15
9.10163e-15
8.29897e-15
8.08643e-15
7.33519e-15
7.16859e-15
6.53711e-15
6.45836e-15
5.91804e-15
5.83419e-15
5.35523e-15
5.35014e-15
5.02649e-15
5.07154e-15
4.82582e-15
4.94256e-15
4.66157e-15
4.31562e-15
3.65963e-15
3.22927e-15
2.72007e-15
2.21948e-15
1.76049e-15
1.46363e-15
1.2258e-15
7.61336e-16
3.75291e-16
5.36403e-17
-1.13706e-16
-3.63136e-16
-4.8586e-16
-5.64583e-16
-5.35282e-16
-7.25234e-16
-8.32961e-16
-9.38548e-16
-9.66098e-16
-1.00163e-15
-1.01919e-15
-1.01301e-15
-1.01027e-15
-9.28733e-16
-8.74467e-16
-8.08447e-16
-7.68583e-16
-6.90392e-16
-6.24351e-16
-5.51946e-16
-4.33084e-16
-6.79175e-16
-8.5754e-16
-1.0458e-15
-1.14249e-15
-1.32111e-15
-1.45522e-15
-1.60468e-15
-1.69701e-15
-1.91435e-15
-2.04442e-15
-2.16636e-15
-2.16179e-15
-2.28721e-15
-2.23003e-15
-2.1853e-15
-1.99359e-15
-2.24342e-15
-2.31243e-15
-2.3949e-15
-2.26442e-15
-2.32245e-15
-2.13415e-15
-1.96322e-15
-1.60129e-15
-1.59833e-15
-1.36388e-15
-1.17697e-15
-7.69335e-16
-4.63216e-16
-1.7287e-16
-6.77119e-17
-1.86336e-15
-8.54063e-16
-9.78771e-16
-1.28894e-15
2.88756e-16
-4.60163e-16
2.25882e-15
4.67483e-15
1.1331e-14
9.61109e-15
1.32215e-14
1.65222e-14
2.6019e-14
3.03144e-14
4.08601e-14
5.11821e-14
6.56698e-14
7.75722e-14
9.34329e-14
1.09139e-13
1.29367e-13
1.48918e-13
1.68774e-13
1.90879e-13
2.06538e-13
2.65018e-13
3.03053e-13
3.4626e-13
3.60306e-13
4.26021e-13
4.58612e-13
5.53732e-13
)
;

boundaryField
{
    inandouthalf11
    {
        type            cyclic;
        value           nonuniform List<scalar> 
100
(
2.54976e-10
2.5364e-10
2.53446e-10
2.53642e-10
2.53749e-10
2.53794e-10
2.53843e-10
2.53902e-10
2.53962e-10
2.54021e-10
2.54081e-10
2.5414e-10
2.54199e-10
2.54257e-10
2.54315e-10
2.54373e-10
2.54431e-10
2.54488e-10
2.54545e-10
2.54603e-10
2.54659e-10
2.54716e-10
2.54773e-10
2.54829e-10
2.54886e-10
2.54943e-10
2.55e-10
2.55057e-10
2.55114e-10
2.55172e-10
2.5523e-10
2.5529e-10
2.55348e-10
2.55409e-10
2.55469e-10
2.5553e-10
2.55592e-10
2.55655e-10
2.55719e-10
2.55783e-10
2.55849e-10
2.55915e-10
2.55982e-10
2.56051e-10
2.56119e-10
2.5619e-10
2.56261e-10
2.56333e-10
2.56406e-10
2.56481e-10
2.56555e-10
2.56632e-10
2.56709e-10
2.56788e-10
2.56867e-10
2.56948e-10
2.57029e-10
2.57112e-10
2.57195e-10
2.5728e-10
2.57366e-10
2.57453e-10
2.57542e-10
2.57631e-10
2.57721e-10
2.57813e-10
2.57906e-10
2.58e-10
2.58096e-10
2.58192e-10
2.5829e-10
2.5839e-10
2.58489e-10
2.58592e-10
2.58695e-10
2.588e-10
2.58907e-10
2.59014e-10
2.59124e-10
2.59235e-10
2.59347e-10
2.59462e-10
2.59578e-10
2.59696e-10
2.59816e-10
2.59938e-10
2.60062e-10
2.60188e-10
2.60315e-10
2.60446e-10
2.60578e-10
2.60713e-10
2.6085e-10
2.6099e-10
2.61132e-10
2.61277e-10
2.61425e-10
2.61576e-10
2.6173e-10
2.61887e-10
)
;
    }
    inandouthalf12
    {
        type            cyclic;
        value           nonuniform List<scalar> 
100
(
-2.54976e-10
-2.5364e-10
-2.53446e-10
-2.53642e-10
-2.53749e-10
-2.53794e-10
-2.53843e-10
-2.53902e-10
-2.53962e-10
-2.54021e-10
-2.54081e-10
-2.5414e-10
-2.54199e-10
-2.54257e-10
-2.54315e-10
-2.54373e-10
-2.54431e-10
-2.54488e-10
-2.54545e-10
-2.54603e-10
-2.54659e-10
-2.54716e-10
-2.54773e-10
-2.54829e-10
-2.54886e-10
-2.54943e-10
-2.55e-10
-2.55057e-10
-2.55114e-10
-2.55172e-10
-2.5523e-10
-2.5529e-10
-2.55348e-10
-2.55409e-10
-2.55469e-10
-2.5553e-10
-2.55592e-10
-2.55655e-10
-2.55719e-10
-2.55783e-10
-2.55849e-10
-2.55915e-10
-2.55982e-10
-2.56051e-10
-2.56119e-10
-2.5619e-10
-2.56261e-10
-2.56333e-10
-2.56406e-10
-2.56481e-10
-2.56555e-10
-2.56632e-10
-2.56709e-10
-2.56788e-10
-2.56867e-10
-2.56948e-10
-2.57029e-10
-2.57112e-10
-2.57195e-10
-2.5728e-10
-2.57366e-10
-2.57453e-10
-2.57542e-10
-2.57631e-10
-2.57721e-10
-2.57813e-10
-2.57906e-10
-2.58e-10
-2.58096e-10
-2.58192e-10
-2.5829e-10
-2.5839e-10
-2.58489e-10
-2.58592e-10
-2.58695e-10
-2.588e-10
-2.58907e-10
-2.59014e-10
-2.59124e-10
-2.59235e-10
-2.59347e-10
-2.59462e-10
-2.59578e-10
-2.59696e-10
-2.59816e-10
-2.59938e-10
-2.60062e-10
-2.60188e-10
-2.60315e-10
-2.60446e-10
-2.60578e-10
-2.60713e-10
-2.6085e-10
-2.6099e-10
-2.61132e-10
-2.61277e-10
-2.61425e-10
-2.61576e-10
-2.6173e-10
-2.61887e-10
)
;
    }
    inandouthalf21
    {
        type            cyclic;
        value           nonuniform List<scalar> 
100
(
2.62048e-10
2.62212e-10
2.62379e-10
2.62551e-10
2.62726e-10
2.62905e-10
2.63089e-10
2.63277e-10
2.63469e-10
2.63667e-10
2.63869e-10
2.64076e-10
2.64289e-10
2.64508e-10
2.64732e-10
2.64963e-10
2.652e-10
2.65444e-10
2.65695e-10
2.65953e-10
2.6622e-10
2.66495e-10
2.66779e-10
2.67072e-10
2.67375e-10
2.67689e-10
2.68015e-10
2.68351e-10
2.687e-10
2.69061e-10
2.69433e-10
2.69814e-10
2.70204e-10
2.70606e-10
2.71021e-10
2.71451e-10
2.719e-10
2.72396e-10
2.72991e-10
2.73736e-10
2.74586e-10
2.75405e-10
2.7634e-10
2.77282e-10
6.15121e-11
-4.99984e-08
-3.84147e-07
-3.24212e-07
-2.88673e-07
-2.71745e-07
-2.64658e-07
-2.62228e-07
-2.61482e-07
-2.61032e-07
-2.60387e-07
-2.59521e-07
-2.58606e-07
-2.579e-07
-2.57676e-07
-2.58195e-07
-2.59699e-07
-2.62399e-07
-2.6649e-07
-2.72142e-07
-2.79517e-07
-2.88769e-07
-3.00054e-07
-3.13535e-07
-3.29391e-07
-3.47818e-07
-3.6902e-07
-3.9319e-07
-4.20468e-07
-4.5087e-07
-4.84195e-07
-5.19932e-07
-5.57191e-07
-5.94737e-07
-6.31152e-07
-6.65105e-07
-6.95614e-07
-7.22178e-07
-7.4476e-07
-7.63656e-07
-7.79335e-07
-7.92322e-07
-8.03114e-07
-8.12147e-07
-8.19782e-07
-8.26307e-07
-8.31951e-07
-8.36895e-07
-8.41276e-07
-8.45204e-07
-8.48762e-07
-8.52016e-07
-8.55019e-07
-8.57811e-07
-8.60424e-07
-8.62884e-07
)
;
    }
    inandouthalf22
    {
        type            cyclic;
        value           nonuniform List<scalar> 
100
(
-2.62048e-10
-2.62212e-10
-2.62379e-10
-2.62551e-10
-2.62726e-10
-2.62905e-10
-2.63089e-10
-2.63277e-10
-2.63469e-10
-2.63667e-10
-2.63869e-10
-2.64076e-10
-2.64289e-10
-2.64508e-10
-2.64732e-10
-2.64963e-10
-2.652e-10
-2.65444e-10
-2.65695e-10
-2.65953e-10
-2.6622e-10
-2.66495e-10
-2.66779e-10
-2.67072e-10
-2.67375e-10
-2.67689e-10
-2.68015e-10
-2.68351e-10
-2.687e-10
-2.69061e-10
-2.69433e-10
-2.69814e-10
-2.70204e-10
-2.70606e-10
-2.71021e-10
-2.71451e-10
-2.719e-10
-2.72396e-10
-2.72991e-10
-2.73736e-10
-2.74586e-10
-2.75405e-10
-2.7634e-10
-2.77282e-10
-6.15121e-11
4.99984e-08
3.84147e-07
3.24212e-07
2.88673e-07
2.71745e-07
2.64658e-07
2.62228e-07
2.61482e-07
2.61032e-07
2.60387e-07
2.59521e-07
2.58606e-07
2.579e-07
2.57676e-07
2.58195e-07
2.59699e-07
2.62399e-07
2.6649e-07
2.72142e-07
2.79517e-07
2.88769e-07
3.00054e-07
3.13535e-07
3.29391e-07
3.47818e-07
3.6902e-07
3.9319e-07
4.20468e-07
4.5087e-07
4.84195e-07
5.19932e-07
5.57191e-07
5.94737e-07
6.31152e-07
6.65105e-07
6.95614e-07
7.22178e-07
7.4476e-07
7.63656e-07
7.79335e-07
7.92322e-07
8.03114e-07
8.12147e-07
8.19782e-07
8.26307e-07
8.31951e-07
8.36895e-07
8.41276e-07
8.45204e-07
8.48762e-07
8.52016e-07
8.55019e-07
8.57811e-07
8.60424e-07
8.62884e-07
)
;
    }
    inandouthalf31
    {
        type            cyclic;
        value           nonuniform List<scalar> 
110
(
-8.65215e-07
-8.85057e-07
-9.05285e-07
-9.25912e-07
-9.46953e-07
-9.6842e-07
-9.90327e-07
-1.01269e-06
-1.03551e-06
-1.05881e-06
-1.0826e-06
-1.10688e-06
-1.13168e-06
-1.15701e-06
-1.18286e-06
-1.20927e-06
-1.23623e-06
-1.26376e-06
-1.29188e-06
-1.32058e-06
-1.34989e-06
-1.37982e-06
-1.41037e-06
-1.44157e-06
-1.47341e-06
-1.50592e-06
-1.5391e-06
-1.57296e-06
-1.60752e-06
-1.64278e-06
-1.67876e-06
-1.71546e-06
-1.75289e-06
-1.79106e-06
-1.82998e-06
-1.86965e-06
-1.91007e-06
-1.95126e-06
-1.9932e-06
-2.03591e-06
-2.07937e-06
-2.12358e-06
-2.16852e-06
-2.2142e-06
-2.26058e-06
-2.30764e-06
-2.35536e-06
-2.40369e-06
-2.45261e-06
-2.50204e-06
-2.55194e-06
-2.60223e-06
-2.65284e-06
-2.70369e-06
-2.75469e-06
-2.80577e-06
-2.8569e-06
-2.90808e-06
-2.95941e-06
-3.01111e-06
-3.06355e-06
-3.11731e-06
-3.17314e-06
-3.2321e-06
-3.29754e-06
-3.36862e-06
-3.43766e-06
-3.50745e-06
-3.57865e-06
-3.65128e-06
-3.72539e-06
-3.80101e-06
-3.87816e-06
-3.95688e-06
-4.03719e-06
-4.11914e-06
-4.20274e-06
-4.28805e-06
-4.37508e-06
-4.46389e-06
-4.55449e-06
-4.64693e-06
-4.74126e-06
-4.83749e-06
-4.93568e-06
-5.03586e-06
-5.13807e-06
-5.24236e-06
-5.34877e-06
-5.45733e-06
-5.5681e-06
-5.68112e-06
-5.79643e-06
-5.91409e-06
-6.03413e-06
-6.1566e-06
-6.28157e-06
-6.40906e-06
-6.53915e-06
-6.67188e-06
-6.8073e-06
-6.94547e-06
-7.08644e-06
-7.23028e-06
-7.37704e-06
-7.52677e-06
-7.67954e-06
-7.83542e-06
-7.99446e-06
-8.15672e-06
)
;
    }
    inandouthalf32
    {
        type            cyclic;
        value           nonuniform List<scalar> 
110
(
8.65215e-07
8.85057e-07
9.05285e-07
9.25912e-07
9.46953e-07
9.6842e-07
9.90327e-07
1.01269e-06
1.03551e-06
1.05881e-06
1.0826e-06
1.10688e-06
1.13168e-06
1.15701e-06
1.18286e-06
1.20927e-06
1.23623e-06
1.26376e-06
1.29188e-06
1.32058e-06
1.34989e-06
1.37982e-06
1.41037e-06
1.44157e-06
1.47341e-06
1.50592e-06
1.5391e-06
1.57296e-06
1.60752e-06
1.64278e-06
1.67876e-06
1.71546e-06
1.75289e-06
1.79106e-06
1.82998e-06
1.86965e-06
1.91007e-06
1.95126e-06
1.9932e-06
2.03591e-06
2.07937e-06
2.12358e-06
2.16852e-06
2.2142e-06
2.26058e-06
2.30764e-06
2.35536e-06
2.40369e-06
2.45261e-06
2.50204e-06
2.55194e-06
2.60223e-06
2.65284e-06
2.70369e-06
2.75469e-06
2.80577e-06
2.8569e-06
2.90808e-06
2.95941e-06
3.01111e-06
3.06355e-06
3.11731e-06
3.17314e-06
3.2321e-06
3.29754e-06
3.36862e-06
3.43766e-06
3.50745e-06
3.57865e-06
3.65128e-06
3.72539e-06
3.80101e-06
3.87816e-06
3.95688e-06
4.03719e-06
4.11914e-06
4.20274e-06
4.28805e-06
4.37508e-06
4.46389e-06
4.55449e-06
4.64693e-06
4.74126e-06
4.83749e-06
4.93568e-06
5.03586e-06
5.13807e-06
5.24236e-06
5.34877e-06
5.45733e-06
5.5681e-06
5.68112e-06
5.79643e-06
5.91409e-06
6.03413e-06
6.1566e-06
6.28157e-06
6.40906e-06
6.53915e-06
6.67188e-06
6.8073e-06
6.94547e-06
7.08644e-06
7.23028e-06
7.37704e-06
7.52677e-06
7.67954e-06
7.83542e-06
7.99446e-06
8.15672e-06
)
;
    }
    inandouthalf41
    {
        type            cyclic;
        value           nonuniform List<scalar> 
50
(
-7.3011e-06
-7.3011e-06
-7.3011e-06
-7.3011e-06
-7.3011e-06
-7.3011e-06
-7.3011e-06
-7.3011e-06
-7.3011e-06
-7.3011e-06
-7.3011e-06
-7.3011e-06
-7.3011e-06
-7.3011e-06
-7.3011e-06
-7.3011e-06
-7.3011e-06
-7.3011e-06
-7.3011e-06
-7.3011e-06
-7.3011e-06
-7.3011e-06
-7.3011e-06
-7.3011e-06
-7.3011e-06
-7.3011e-06
-7.3011e-06
-7.3011e-06
-7.3011e-06
-7.3011e-06
-7.3011e-06
-7.3011e-06
-7.3011e-06
-7.3011e-06
-7.3011e-06
-7.3011e-06
-7.3011e-06
-7.3011e-06
-7.3011e-06
-7.3011e-06
-7.3011e-06
-7.3011e-06
-7.3011e-06
-7.3011e-06
-7.3011e-06
-7.3011e-06
-7.3011e-06
-7.3011e-06
-7.3011e-06
-7.3011e-06
)
;
    }
    inandouthalf42
    {
        type            cyclic;
        value           nonuniform List<scalar> 
50
(
7.3011e-06
7.3011e-06
7.3011e-06
7.3011e-06
7.3011e-06
7.3011e-06
7.3011e-06
7.3011e-06
7.3011e-06
7.3011e-06
7.3011e-06
7.3011e-06
7.3011e-06
7.3011e-06
7.3011e-06
7.3011e-06
7.3011e-06
7.3011e-06
7.3011e-06
7.3011e-06
7.3011e-06
7.3011e-06
7.3011e-06
7.3011e-06
7.3011e-06
7.3011e-06
7.3011e-06
7.3011e-06
7.3011e-06
7.3011e-06
7.3011e-06
7.3011e-06
7.3011e-06
7.3011e-06
7.3011e-06
7.3011e-06
7.3011e-06
7.3011e-06
7.3011e-06
7.3011e-06
7.3011e-06
7.3011e-06
7.3011e-06
7.3011e-06
7.3011e-06
7.3011e-06
7.3011e-06
7.3011e-06
7.3011e-06
7.3011e-06
)
;
    }
    top
    {
        type            symmetryPlane;
        value           uniform 0;
    }
    walls
    {
        type            calculated;
        value           uniform 0;
    }
    frontAndBackPlanes
    {
        type            empty;
        value           nonuniform 0();
    }
}


// ************************************************************************* //
