/*--------------------------------*- C++ -*----------------------------------*\
| =========                 |                                                 |
| \\      /  F ield         | OpenFOAM: The Open Source CFD Toolbox           |
|  \\    /   O peration     | Version:  2.4.x                                 |
|   \\  /    A nd           | Web:      www.OpenFOAM.org                      |
|    \\/     M anipulation  |                                                 |
\*---------------------------------------------------------------------------*/
FoamFile
{
    version     2.0;
    format      ascii;
    class       volScalarField;
    location    "8.5";
    object      epsilon;
}
// * * * * * * * * * * * * * * * * * * * * * * * * * * * * * * * * * * * * * //

dimensions      [0 2 -3 0 0 0 0];

internalField   nonuniform List<scalar> 
360
(
1e-20
1e-20
1e-20
1e-20
1e-20
1e-20
1e-20
1e-20
1e-20
1e-20
1e-20
1e-20
1e-20
1e-20
1e-20
1e-20
1e-20
1e-20
1e-20
1e-20
1e-20
1e-20
1e-20
1e-20
1e-20
1e-20
1e-20
1e-20
1e-20
1e-20
1e-20
1e-20
1e-20
1e-20
1e-20
1e-20
1e-20
1e-20
1e-20
1e-20
1e-20
1e-20
1e-20
1e-20
1e-20
1e-20
1e-20
1e-20
1e-20
1e-20
1e-20
1e-20
1e-20
1e-20
1e-20
1e-20
1e-20
1e-20
1e-20
1e-20
1e-20
1e-20
1e-20
1e-20
1e-20
1e-20
1e-20
1e-20
1e-20
1e-20
1e-20
1e-20
1e-20
1e-20
1e-20
1e-20
1e-20
1e-20
1e-20
1e-20
1e-20
1e-20
1e-20
1e-20
1e-20
1e-20
1e-20
1e-20
1e-20
1e-20
1e-20
1e-20
1e-20
1e-20
1e-20
1e-20
1e-20
1e-20
1e-20
1e-20
1e-20
1e-20
1e-20
1e-20
1e-20
1e-20
1e-20
1e-20
1e-20
1e-20
1e-20
1e-20
1e-20
1e-20
1e-20
1e-20
1e-20
1e-20
1e-20
1e-20
1e-20
1e-20
1e-20
1e-20
1e-20
1e-20
1e-20
1e-20
1e-20
1e-20
1e-20
1e-20
2.00135e-20
2.01691e-19
3.22741e-18
5.62855e-17
1.05836e-15
2.16764e-14
4.9141e-13
1.25544e-11
3.67098e-10
1.24284e-08
4.91726e-07
2.28855e-05
0.00117951
0.0350171
0.26029
0.424492
0.470061
0.472886
0.457693
0.434539
0.408048
0.380485
0.352963
0.326063
0.300088
0.275191
0.251443
0.228877
0.2075
0.187309
0.168294
0.150444
0.133746
0.118186
0.103749
0.0904235
0.0781957
0.0670531
0.0569831
0.0479717
0.0400018
0.0330497
0.0270816
0.0220492
0.0178864
0.0145091
0.0118183
0.00970683
0.00806826
0.00680474
0.00583207
0.00508162
0.00449961
0.00404502
0.0036871
0.00340295
0.00317555
0.00299222
0.00284345
0.00272202
0.00262245
0.00254049
0.00247284
0.00241688
0.00237055
0.00233217
0.00230039
0.00227411
0.0022524
0.00223432
0.00221921
0.00220665
0.00219627
0.00218772
0.00218068
0.00217483
0.00216991
0.00216562
0.00216173
0.00215797
0.00215411
0.00214992
0.00214518
0.00213967
0.00213317
0.00212549
0.00211643
0.0021058
0.0020934
0.00207906
0.00206262
0.00204389
0.00202274
0.00199901
0.00197257
0.00194329
0.00191107
0.0018758
0.0018374
0.00179582
0.001751
0.00170293
0.0016516
0.00159704
0.0015393
0.00147847
0.00141467
0.00134805
0.00127881
0.00120718
0.00113345
0.00105795
0.000981057
0.000903214
0.000824908
0.000746686
0.000669148
0.000592946
0.000518778
0.000447376
0.000379495
0.000315887
0.000257278
0.000204324
0.000157569
0.000117388
8.39302e-05
5.70778e-05
3.64205e-05
2.12841e-05
1.08202e-05
4.16821e-06
7.87336e-07
4.07781e-08
7.94401e-10
1.37062e-11
2.35305e-13
4.00884e-15
6.73174e-17
1.11243e-18
2.53233e-20
1e-20
1e-20
1e-20
1e-20
1e-20
1e-20
1e-20
1e-20
1e-20
1e-20
1e-20
1e-20
1e-20
1e-20
1e-20
1e-20
1e-20
1e-20
1e-20
1e-20
1e-20
1e-20
1e-20
1e-20
1e-20
1e-20
1e-20
1e-20
1e-20
1e-20
1e-20
1e-20
1e-20
1e-20
1e-20
1e-20
1e-20
1e-20
1e-20
1e-20
1e-20
1e-20
1e-20
1e-20
1e-20
1e-20
1e-20
1e-20
1e-20
1e-20
1e-20
1e-20
1e-20
1e-20
1e-20
1e-20
1e-20
1e-20
1e-20
1e-20
1e-20
1e-20
1e-20
1e-20
1e-20
1e-20
1e-20
1e-20
1e-20
1e-20
1e-20
1e-20
1e-20
1e-20
1e-20
1e-20
1e-20
1e-20
1e-20
1e-20
1e-20
1e-20
1e-20
1e-20
1e-20
1e-20
1e-20
)
;

boundaryField
{
    inandouthalf11
    {
        type            cyclic;
    }
    inandouthalf12
    {
        type            cyclic;
    }
    inandouthalf21
    {
        type            cyclic;
    }
    inandouthalf22
    {
        type            cyclic;
    }
    inandouthalf31
    {
        type            cyclic;
    }
    inandouthalf32
    {
        type            cyclic;
    }
    inandouthalf41
    {
        type            cyclic;
    }
    inandouthalf42
    {
        type            cyclic;
    }
    top
    {
        type            symmetryPlane;
    }
    walls
    {
        type            zeroGradient;
    }
    frontAndBackPlanes
    {
        type            empty;
    }
}


// ************************************************************************* //
