/*--------------------------------*- C++ -*----------------------------------*\
| =========                 |                                                 |
| \\      /  F ield         | OpenFOAM: The Open Source CFD Toolbox           |
|  \\    /   O peration     | Version:  2.4.x                                 |
|   \\  /    A nd           | Web:      www.OpenFOAM.org                      |
|    \\/     M anipulation  |                                                 |
\*---------------------------------------------------------------------------*/
FoamFile
{
    version     2.0;
    format      ascii;
    class       volScalarField;
    location    "8.5";
    object      nutb;
}
// * * * * * * * * * * * * * * * * * * * * * * * * * * * * * * * * * * * * * //

dimensions      [0 2 -1 0 0 0 0];

internalField   nonuniform List<scalar> 
360
(
9e-22
9e-22
9e-22
9e-22
9e-22
9e-22
9e-22
9e-22
9e-22
9e-22
9e-22
9e-22
9e-22
9e-22
9e-22
9e-22
9e-22
9e-22
9e-22
9e-22
9e-22
9e-22
9e-22
9e-22
9e-22
9e-22
9e-22
9e-22
9e-22
9e-22
9e-22
9e-22
9e-22
9e-22
9e-22
9e-22
9e-22
9e-22
9e-22
9e-22
9e-22
9e-22
9e-22
9e-22
9e-22
9e-22
9e-22
9e-22
9e-22
9e-22
9e-22
9e-22
9e-22
9e-22
9e-22
9e-22
9e-22
9e-22
9e-22
9e-22
9e-22
9e-22
9e-22
9e-22
9e-22
9e-22
9e-22
9e-22
9e-22
9e-22
9e-22
9e-22
9e-22
9e-22
9e-22
9e-22
9e-22
9e-22
9e-22
9e-22
9e-22
9e-22
9e-22
9e-22
9e-22
9e-22
9e-22
9e-22
9e-22
9e-22
9e-22
9e-22
9e-22
9e-22
9e-22
9e-22
9e-22
9e-22
9e-22
9e-22
9e-22
9e-22
9e-22
9e-22
9e-22
9e-22
9e-22
9e-22
9e-22
9e-22
9e-22
9e-22
9e-22
9e-22
9e-22
9e-22
9e-22
9e-22
9e-22
9e-22
9e-22
9e-22
9e-22
9e-22
9e-22
9e-22
9e-22
9e-22
9e-22
9e-22
9e-22
9e-22
4.68687e-22
1.70413e-21
2.06761e-20
2.75524e-19
3.87986e-18
5.80656e-17
9.38681e-16
1.6754e-14
3.3683e-13
7.73314e-12
2.04729e-10
6.28245e-09
2.02212e-07
3.24849e-06
1.43836e-05
2.55466e-05
3.47618e-05
4.26534e-05
4.95571e-05
5.56383e-05
6.10054e-05
6.57406e-05
6.9884e-05
7.34676e-05
7.65195e-05
7.90642e-05
8.11243e-05
8.27206e-05
8.38731e-05
8.46025e-05
8.49301e-05
8.48797e-05
8.4478e-05
8.37558e-05
8.27495e-05
8.15025e-05
8.00667e-05
7.85047e-05
7.68925e-05
7.53215e-05
7.39006e-05
7.27581e-05
7.20395e-05
7.1903e-05
7.25079e-05
7.39968e-05
7.64736e-05
7.99855e-05
8.45126e-05
8.99701e-05
9.62225e-05
0.000103103
0.000110435
0.000118047
0.000125786
0.000133521
0.000141147
0.000148585
0.000155774
0.000162675
0.00016926
0.000175517
0.000181439
0.00018703
0.000192296
0.000197247
0.000201895
0.000206254
0.000210338
0.000214201
0.000217884
0.000221387
0.000224713
0.000227863
0.00023084
0.000233643
0.000236276
0.000238739
0.000241033
0.000243159
0.000245116
0.000246903
0.00024852
0.000249965
0.000251234
0.000252325
0.000253234
0.000253957
0.00025449
0.000254825
0.000254959
0.000254883
0.000254591
0.000254075
0.000253329
0.000252342
0.000251106
0.000249613
0.000247852
0.000245814
0.000243489
0.000240868
0.000237939
0.000234692
0.000231118
0.000227207
0.000222948
0.000218333
0.000213353
0.000207999
0.000202266
0.000196148
0.00018964
0.000182741
0.000175451
0.000167773
0.000159714
0.000151286
0.000142504
0.00013339
0.000123972
0.000114287
0.000104376
9.42927e-05
8.40927e-05
7.38374e-05
6.35863e-05
5.33902e-05
4.3284e-05
3.32835e-05
2.3394e-05
1.36609e-05
4.3622e-06
3.34843e-07
6.98652e-09
1.19851e-10
2.03058e-12
3.39965e-14
5.59492e-16
8.95097e-18
1.04842e-19
1.06309e-21
9e-22
9e-22
9e-22
9e-22
9e-22
9e-22
9e-22
9e-22
9e-22
9e-22
9e-22
9e-22
9e-22
9e-22
9e-22
9e-22
9e-22
9e-22
9e-22
9e-22
9e-22
9e-22
9e-22
9e-22
9e-22
9e-22
9e-22
9e-22
9e-22
9e-22
9e-22
9e-22
9e-22
9e-22
9e-22
9e-22
9e-22
9e-22
9e-22
9e-22
9e-22
9e-22
9e-22
9e-22
9e-22
9e-22
9e-22
9e-22
9e-22
9e-22
9e-22
9e-22
9e-22
9e-22
9e-22
9e-22
9e-22
9e-22
9e-22
9e-22
9e-22
9e-22
9e-22
9e-22
9e-22
9e-22
9e-22
9e-22
9e-22
9e-22
9e-22
9e-22
9e-22
9e-22
9e-22
9e-22
9e-22
9e-22
9e-22
9e-22
9e-22
9e-22
9e-22
9e-22
9e-22
9e-22
)
;

boundaryField
{
    inandouthalf11
    {
        type            cyclic;
    }
    inandouthalf12
    {
        type            cyclic;
    }
    inandouthalf21
    {
        type            cyclic;
    }
    inandouthalf22
    {
        type            cyclic;
    }
    inandouthalf31
    {
        type            cyclic;
    }
    inandouthalf32
    {
        type            cyclic;
    }
    inandouthalf41
    {
        type            cyclic;
    }
    inandouthalf42
    {
        type            cyclic;
    }
    top
    {
        type            symmetryPlane;
    }
    walls
    {
        type            calculated;
        value           uniform 0;
    }
    frontAndBackPlanes
    {
        type            empty;
    }
}


// ************************************************************************* //
