/*--------------------------------*- C++ -*----------------------------------*\
| =========                 |                                                 |
| \\      /  F ield         | OpenFOAM: The Open Source CFD Toolbox           |
|  \\    /   O peration     | Version:  2.4.x                                 |
|   \\  /    A nd           | Web:      www.OpenFOAM.org                      |
|    \\/     M anipulation  |                                                 |
\*---------------------------------------------------------------------------*/
FoamFile
{
    version     2.0;
    format      ascii;
    class       volScalarField;
    location    "8.5";
    object      p;
}
// * * * * * * * * * * * * * * * * * * * * * * * * * * * * * * * * * * * * * //

dimensions      [1 -1 -2 0 0 0 0];

internalField   nonuniform List<scalar> 
360
(
4897.62
4892.72
4887.81
4882.91
4878
4873.09
4868.19
4863.28
4858.37
4853.47
4848.56
4843.65
4838.74
4833.83
4828.93
4824.02
4819.11
4814.2
4809.29
4804.38
4799.47
4794.55
4789.64
4784.73
4779.82
4774.91
4770
4765.08
4760.17
4755.26
4750.34
4745.43
4740.51
4735.6
4730.69
4725.77
4720.86
4715.94
4711.02
4706.11
4701.19
4696.28
4691.36
4686.44
4681.52
4676.61
4671.69
4666.77
4661.85
4656.94
4652.02
4647.1
4642.18
4637.26
4632.34
4627.42
4622.5
4617.58
4612.66
4607.74
4602.82
4597.9
4592.97
4588.05
4583.13
4578.21
4573.29
4568.37
4563.44
4558.52
4553.6
4548.67
4543.75
4538.83
4533.9
4528.98
4524.05
4519.13
4514.21
4509.28
4504.36
4499.43
4494.5
4489.58
4484.65
4479.73
4474.8
4469.88
4464.95
4460.02
4455.1
4450.17
4445.24
4440.31
4435.39
4430.46
4425.53
4420.6
4415.68
4410.75
4405.82
4400.89
4395.96
4391.03
4386.11
4381.18
4376.25
4371.32
4366.39
4361.46
4356.53
4351.6
4346.67
4341.74
4336.81
4331.88
4326.95
4322.02
4317.09
4312.16
4307.23
4302.3
4297.37
4292.44
4287.51
4282.58
4277.65
4272.72
4267.79
4262.86
4257.92
4252.99
4248.06
4243.13
4238.2
4233.27
4228.34
4223.4
4218.47
4213.54
4208.61
4203.68
4198.75
4193.8
4188.91
4182.19
4171.38
4162.16
4154.89
4148.45
4142.45
4136.7
4131.12
4125.69
4120.37
4115.17
4110.06
4105.04
4100.1
4095.24
4090.44
4085.71
4081.02
4076.39
4071.79
4067.23
4062.68
4058.16
4053.65
4049.14
4044.63
4040.11
4035.57
4031.02
4026.43
4021.82
4017.17
4012.48
4007.76
4003
3998.22
3993.4
3988.57
3983.72
3978.85
3973.98
3969.1
3964.2
3959.31
3954.41
3949.51
3944.6
3939.69
3934.78
3929.87
3924.96
3920.05
3915.14
3910.23
3905.31
3900.4
3895.44
3890.38
3885.21
3879.94
3874.56
3869.07
3863.48
3857.77
3851.94
3846
3839.93
3833.75
3827.44
3821
3814.43
3807.73
3800.9
3793.93
3786.82
3779.56
3772.16
3764.61
3756.91
3749.05
3741.04
3732.86
3724.52
3716.01
3707.34
3698.48
3689.45
3680.24
3670.84
3661.26
3651.48
3641.5
3631.33
3620.94
3610.35
3599.55
3588.53
3577.29
3565.81
3554.11
3542.17
3529.99
3517.56
3504.88
3491.94
3478.74
3465.27
3451.53
3437.5
3423.18
3408.58
3393.67
3378.45
3362.92
3347.07
3330.89
3314.37
3297.52
3280.31
3262.75
3244.83
3226.54
3207.87
3188.83
3169.4
3149.58
3129.35
3108.72
3087.66
3066.18
3044.26
3021.9
2999.08
2975.8
2952.05
2927.81
2903.09
2877.86
2852.12
2825.86
2799.06
2771.72
2743.82
2715.36
2686.32
2656.7
2626.47
2595.62
2564.15
2532.05
2499.29
2465.86
2431.76
2396.96
2361.46
2325.24
2288.28
2250.57
2212.1
2172.85
2132.8
2091.93
2050.24
2007.7
1964.3
1922.76
1883.52
1844.28
1805.04
1765.8
1726.56
1687.32
1648.08
1608.84
1569.6
1530.36
1491.12
1451.88
1412.64
1373.4
1334.16
1294.92
1255.68
1216.44
1177.2
1137.96
1098.72
1059.48
1020.24
981
941.76
902.52
863.28
824.04
784.8
745.56
706.32
667.08
627.84
588.6
549.36
510.12
470.88
431.64
392.4
353.16
313.92
274.68
235.44
196.2
156.96
117.72
78.48
39.24
-3.77042e-07
)
;

boundaryField
{
    inandouthalf11
    {
        type            cyclic;
    }
    inandouthalf12
    {
        type            cyclic;
    }
    inandouthalf21
    {
        type            cyclic;
    }
    inandouthalf22
    {
        type            cyclic;
    }
    inandouthalf31
    {
        type            cyclic;
    }
    inandouthalf32
    {
        type            cyclic;
    }
    inandouthalf41
    {
        type            cyclic;
    }
    inandouthalf42
    {
        type            cyclic;
    }
    top
    {
        type            symmetryPlane;
    }
    walls
    {
        type            slip;
    }
    frontAndBackPlanes
    {
        type            empty;
    }
}


// ************************************************************************* //
