/*--------------------------------*- C++ -*----------------------------------*\
| =========                 |                                                 |
| \\      /  F ield         | OpenFOAM: The Open Source CFD Toolbox           |
|  \\    /   O peration     | Version:  2.4.x                                 |
|   \\  /    A nd           | Web:      www.OpenFOAM.org                      |
|    \\/     M anipulation  |                                                 |
\*---------------------------------------------------------------------------*/
FoamFile
{
    version     2.0;
    format      ascii;
    class       volScalarField;
    location    "8.5";
    object      pa;
}
// * * * * * * * * * * * * * * * * * * * * * * * * * * * * * * * * * * * * * //

dimensions      [1 -1 -2 0 0 0 0];

internalField   nonuniform List<scalar> 
360
(
2.90289e-16
2.92791e-16
2.93049e-16
2.9279e-16
2.92669e-16
2.92631e-16
2.92581e-16
2.92517e-16
2.92451e-16
2.92385e-16
2.92317e-16
2.92249e-16
2.92181e-16
2.92112e-16
2.92042e-16
2.91971e-16
2.919e-16
2.91827e-16
2.91754e-16
2.9168e-16
2.91606e-16
2.91531e-16
2.91455e-16
2.91378e-16
2.91301e-16
2.91222e-16
2.91144e-16
2.91064e-16
2.90983e-16
2.90902e-16
2.9082e-16
2.90737e-16
2.90654e-16
2.9057e-16
2.90485e-16
2.90399e-16
2.90313e-16
2.90225e-16
2.90137e-16
2.90049e-16
2.89958e-16
2.89867e-16
2.89777e-16
2.89683e-16
2.8959e-16
2.89496e-16
2.894e-16
2.89304e-16
2.89207e-16
2.89108e-16
2.89009e-16
2.88908e-16
2.88807e-16
2.88703e-16
2.886e-16
2.88494e-16
2.88388e-16
2.8828e-16
2.88171e-16
2.88062e-16
2.87949e-16
2.87837e-16
2.87722e-16
2.87606e-16
2.87489e-16
2.8737e-16
2.8725e-16
2.87128e-16
2.87004e-16
2.8688e-16
2.86752e-16
2.86623e-16
2.86494e-16
2.86361e-16
2.86227e-16
2.8609e-16
2.85953e-16
2.85813e-16
2.85671e-16
2.85526e-16
2.8538e-16
2.85232e-16
2.85081e-16
2.84927e-16
2.84771e-16
2.84613e-16
2.84452e-16
2.84288e-16
2.84122e-16
2.83953e-16
2.83781e-16
2.83605e-16
2.83427e-16
2.83246e-16
2.83061e-16
2.82872e-16
2.8268e-16
2.82484e-16
2.82285e-16
2.82081e-16
2.81874e-16
2.81662e-16
2.81446e-16
2.81225e-16
2.80999e-16
2.80768e-16
2.80532e-16
2.80291e-16
2.80044e-16
2.79792e-16
2.79533e-16
2.79268e-16
2.78996e-16
2.78718e-16
2.78432e-16
2.78139e-16
2.77839e-16
2.7753e-16
2.77212e-16
2.76886e-16
2.76551e-16
2.76205e-16
2.75849e-16
2.75482e-16
2.75103e-16
2.74711e-16
2.74306e-16
2.73886e-16
2.7345e-16
2.72997e-16
2.72525e-16
2.72035e-16
2.76762e-16
1.66265e-15
2.3103e-14
3.51284e-13
5.70048e-12
9.94969e-11
1.89799e-09
4.03719e-08
9.7784e-07
3.12078e-05
0.00304905
0.194469
3.41466
13.5617
13.2967
12.6299
11.3502
9.98449
8.67727
7.48083
6.41817
5.47738
4.64892
3.92366
3.29229
2.74563
2.27496
1.87188
1.52884
1.23879
0.995268
0.792414
0.62488
0.487809
0.376811
0.287926
0.217601
0.162671
0.120339
0.0881628
0.0640395
0.0461833
0.0331075
0.0236152
0.016787
0.0119402
0.00856015
0.00624109
0.00466111
0.0035774
0.00281975
0.00227595
0.00187444
0.00156991
0.00133331
0.00114557
0.000993864
0.000869334
0.0007657
0.000678419
0.000604132
0.000540317
0.000485045
0.000436817
0.000394456
0.000357025
0.000323768
0.000294073
0.00026743
0.000243185
0.000220851
0.000200242
0.000181197
0.000163573
0.000147248
0.000132115
0.000118088
0.000105095
9.30817e-05
8.20059e-05
7.18294e-05
6.25183e-05
5.40554e-05
4.64226e-05
3.95852e-05
3.35095e-05
2.81605e-05
2.34962e-05
1.94609e-05
1.59918e-05
1.3039e-05
1.05476e-05
8.4578e-06
6.71876e-06
5.28476e-06
4.10988e-06
3.15712e-06
2.38638e-06
1.77458e-06
1.28598e-06
9.08531e-07
6.02432e-07
3.87196e-07
2.15775e-07
0
0
0
0
0
0
0
0
0
0
0
0
0
0
0
0
0
0
0
0
0
0
0
0
0
0
0
0
0
0
0
0
0
0
0
0
0
0
0
0
0
0
0
0
0
0
0
0
0
0
0
0
0
0
0
0
0
0
0
0
0
0
0
0
0
0
0
0
0
0
0
0
0
0
0
0
0
0
0
0
0
0
0
0
0
0
0
0
0
0
0
0
0
0
0
0
0
0
0
0
0
0
0
0
0
0
0
0
0
0
0
0
0
0
0
0
0
0
0
0
0
0
0
0
)
;

boundaryField
{
    inandouthalf11
    {
        type            cyclic;
    }
    inandouthalf12
    {
        type            cyclic;
    }
    inandouthalf21
    {
        type            cyclic;
    }
    inandouthalf22
    {
        type            cyclic;
    }
    inandouthalf31
    {
        type            cyclic;
    }
    inandouthalf32
    {
        type            cyclic;
    }
    inandouthalf41
    {
        type            cyclic;
    }
    inandouthalf42
    {
        type            cyclic;
    }
    top
    {
        type            symmetryPlane;
    }
    walls
    {
        type            calculated;
        value           uniform 2.90289e-16;
    }
    frontAndBackPlanes
    {
        type            empty;
    }
}


// ************************************************************************* //
