/*--------------------------------*- C++ -*----------------------------------*\
| =========                 |                                                 |
| \\      /  F ield         | OpenFOAM: The Open Source CFD Toolbox           |
|  \\    /   O peration     | Version:  2.4.x                                 |
|   \\  /    A nd           | Web:      www.OpenFOAM.org                      |
|    \\/     M anipulation  |                                                 |
\*---------------------------------------------------------------------------*/
FoamFile
{
    version     2.0;
    format      ascii;
    class       surfaceScalarField;
    location    "8.5";
    object      phia_0;
}
// * * * * * * * * * * * * * * * * * * * * * * * * * * * * * * * * * * * * * //

dimensions      [0 3 -1 0 0 0 0];

internalField   nonuniform List<scalar> 
359
(
-1.21839e-13
-3.07075e-13
-4.81867e-13
-6.53262e-13
-8.32014e-13
-1.0168e-12
-1.20437e-12
-1.39355e-12
-1.58415e-12
-1.77626e-12
-1.96981e-12
-2.16455e-12
-2.36025e-12
-2.55664e-12
-2.75354e-12
-2.95077e-12
-3.14815e-12
-3.34549e-12
-3.54259e-12
-3.73929e-12
-3.93537e-12
-4.1307e-12
-4.32513e-12
-4.51852e-12
-4.71075e-12
-4.90171e-12
-5.09129e-12
-5.27946e-12
-5.46613e-12
-5.65126e-12
-5.83481e-12
-6.0168e-12
-6.19715e-12
-6.37597e-12
-6.55319e-12
-6.72887e-12
-6.90301e-12
-7.07568e-12
-7.24696e-12
-7.41679e-12
-7.58533e-12
-7.75259e-12
-7.91855e-12
-8.08339e-12
-8.24708e-12
-8.4097e-12
-8.5713e-12
-8.73184e-12
-8.89143e-12
-9.05017e-12
-9.20798e-12
-9.36497e-12
-9.52113e-12
-9.67652e-12
-9.83109e-12
-9.98496e-12
-1.0138e-11
-1.02904e-11
-1.0442e-11
-1.05927e-11
-1.07428e-11
-1.08922e-11
-1.10408e-11
-1.11887e-11
-1.13358e-11
-1.14822e-11
-1.16277e-11
-1.17724e-11
-1.19163e-11
-1.20592e-11
-1.22013e-11
-1.23424e-11
-1.24827e-11
-1.2622e-11
-1.27603e-11
-1.28978e-11
-1.30341e-11
-1.31694e-11
-1.33036e-11
-1.34366e-11
-1.35684e-11
-1.36989e-11
-1.38283e-11
-1.39564e-11
-1.40833e-11
-1.4209e-11
-1.43334e-11
-1.44564e-11
-1.4578e-11
-1.46982e-11
-1.48169e-11
-1.49341e-11
-1.50498e-11
-1.5164e-11
-1.52767e-11
-1.53879e-11
-1.54976e-11
-1.56057e-11
-1.57123e-11
-1.58173e-11
-1.59207e-11
-1.60225e-11
-1.61227e-11
-1.62212e-11
-1.63182e-11
-1.64136e-11
-1.65075e-11
-1.66e-11
-1.6691e-11
-1.67808e-11
-1.68694e-11
-1.6957e-11
-1.70437e-11
-1.71297e-11
-1.72151e-11
-1.73002e-11
-1.73851e-11
-1.74699e-11
-1.75546e-11
-1.76394e-11
-1.77241e-11
-1.78085e-11
-1.78926e-11
-1.79761e-11
-1.80588e-11
-1.81405e-11
-1.82214e-11
-1.83017e-11
-1.83819e-11
-1.84628e-11
-1.85456e-11
-1.86316e-11
-1.87225e-11
-1.88201e-11
-1.89259e-11
-1.90397e-11
-1.91582e-11
-1.92747e-11
-1.9379e-11
-1.94584e-11
-1.95039e-11
-1.95203e-11
-1.95238e-11
-1.95244e-11
-1.95165e-11
5.71322e-09
1.15552e-08
1.50769e-08
1.74774e-08
1.9389e-08
2.10566e-08
2.25943e-08
2.40708e-08
2.5504e-08
2.69185e-08
2.83353e-08
2.97713e-08
3.12392e-08
3.2748e-08
3.43024e-08
3.59048e-08
3.75542e-08
3.92467e-08
4.09758e-08
4.27321e-08
4.4503e-08
4.62726e-08
4.80208e-08
4.97231e-08
5.13501e-08
5.28675e-08
5.42364e-08
5.54129e-08
5.63439e-08
5.69551e-08
5.71519e-08
5.68521e-08
5.60388e-08
5.47838e-08
5.32202e-08
5.14907e-08
4.97119e-08
4.79638e-08
4.62938e-08
4.47268e-08
4.32729e-08
4.19338e-08
4.07065e-08
3.9586e-08
3.85661e-08
3.76404e-08
3.68025e-08
3.60467e-08
3.53672e-08
3.4759e-08
3.42173e-08
3.37378e-08
3.33163e-08
3.29491e-08
3.26325e-08
3.23631e-08
3.21333e-08
3.19421e-08
3.17883e-08
3.16702e-08
3.15861e-08
3.15339e-08
3.15109e-08
3.15145e-08
3.15413e-08
3.1588e-08
3.16512e-08
3.17271e-08
3.1812e-08
3.19024e-08
3.19953e-08
3.20878e-08
3.21774e-08
3.2262e-08
3.23401e-08
3.24108e-08
3.24723e-08
3.25241e-08
3.25656e-08
3.25961e-08
3.2615e-08
3.26223e-08
3.26172e-08
3.26015e-08
3.25726e-08
3.25364e-08
3.24851e-08
3.24432e-08
3.23647e-08
3.23185e-08
3.24128e-08
3.25753e-08
3.23242e-08
3.20522e-08
3.19002e-08
3.1504e-08
3.21202e-08
3.01549e-08
3.59917e-08
-7.58528e-09
-1.2709e-07
-1.58379e-07
-1.58324e-07
-1.58329e-07
-1.58327e-07
-1.58323e-07
-1.58316e-07
-1.58308e-07
-1.58296e-07
-1.58283e-07
-1.58267e-07
-1.58248e-07
-1.58228e-07
-1.58206e-07
-1.58186e-07
-1.58164e-07
-1.58141e-07
-1.5812e-07
-1.58092e-07
-1.58051e-07
-1.58038e-07
-1.58038e-07
-1.58038e-07
-1.58038e-07
-1.58038e-07
-1.58038e-07
-1.58038e-07
-1.58038e-07
-1.58038e-07
-1.58038e-07
-1.58038e-07
-1.58038e-07
-1.58038e-07
-1.58038e-07
-1.58038e-07
-1.58038e-07
-1.58038e-07
-1.58038e-07
-1.58038e-07
-1.58038e-07
-1.58038e-07
-1.58038e-07
-1.58038e-07
-1.58038e-07
-1.58038e-07
-1.58038e-07
-1.58038e-07
-1.58038e-07
-1.58038e-07
-1.58038e-07
-1.58038e-07
-1.58038e-07
-1.58038e-07
-1.58038e-07
-1.58038e-07
-1.58038e-07
-1.58038e-07
-1.58038e-07
-1.58038e-07
-1.58038e-07
-1.58038e-07
-1.58038e-07
-1.58038e-07
-1.58038e-07
-1.58038e-07
-1.58038e-07
-1.58038e-07
-1.58038e-07
-1.58038e-07
-1.58038e-07
-1.58038e-07
-1.58038e-07
-1.58038e-07
-1.58038e-07
-1.58038e-07
-1.58038e-07
-1.58038e-07
-1.58038e-07
-1.58038e-07
-1.58038e-07
-1.58038e-07
-1.58038e-07
-1.58038e-07
-1.58038e-07
-1.58038e-07
-1.58038e-07
-1.58038e-07
-1.58038e-07
-1.58038e-07
-1.58038e-07
-1.58038e-07
-1.58038e-07
-1.58038e-07
-1.58038e-07
-1.58038e-07
-1.58038e-07
-1.58038e-07
-1.58038e-07
-1.58038e-07
-1.58038e-07
-1.58038e-07
-1.58038e-07
-1.58038e-07
-1.58038e-07
-1.58038e-07
-1.58038e-07
-1.58038e-07
-1.58038e-07
-1.58038e-07
-1.58038e-07
-1.58037e-07
-1.5802e-07
-1.57312e-07
-1.32352e-07
)
;

boundaryField
{
    inandouthalf11
    {
        type            cyclic;
        value           nonuniform List<scalar> 
100
(
-2.00344e-38
-1.60435e-14
-3.3743e-14
-4.99319e-14
-6.66378e-14
-8.42255e-14
-1.02238e-13
-1.2043e-13
-1.38765e-13
-1.57247e-13
-1.75873e-13
-1.94626e-13
-2.13483e-13
-2.32419e-13
-2.51412e-13
-2.70443e-13
-2.89495e-13
-3.08551e-13
-3.27591e-13
-3.46598e-13
-3.65553e-13
-3.84439e-13
-4.03242e-13
-4.21949e-13
-4.40548e-13
-4.59026e-13
-4.77374e-13
-4.95586e-13
-5.13655e-13
-5.31575e-13
-5.49344e-13
-5.66959e-13
-5.84419e-13
-6.01725e-13
-6.18879e-13
-6.35881e-13
-6.52734e-13
-6.69444e-13
-6.86014e-13
-7.02448e-13
-7.18752e-13
-7.34931e-13
-7.50988e-13
-7.66929e-13
-7.82762e-13
-7.9849e-13
-8.14118e-13
-8.29647e-13
-8.45083e-13
-8.60432e-13
-8.75699e-13
-8.90884e-13
-9.05992e-13
-9.21024e-13
-9.35983e-13
-9.50871e-13
-9.6569e-13
-9.80438e-13
-9.95117e-13
-1.00972e-12
-1.02426e-12
-1.03873e-12
-1.05313e-12
-1.06747e-12
-1.08174e-12
-1.09593e-12
-1.11006e-12
-1.12411e-12
-1.13808e-12
-1.15196e-12
-1.16577e-12
-1.17949e-12
-1.19313e-12
-1.20669e-12
-1.22016e-12
-1.23354e-12
-1.24683e-12
-1.26002e-12
-1.27311e-12
-1.28609e-12
-1.29897e-12
-1.31173e-12
-1.32438e-12
-1.33692e-12
-1.34935e-12
-1.36166e-12
-1.37386e-12
-1.38593e-12
-1.39788e-12
-1.4097e-12
-1.42139e-12
-1.43294e-12
-1.44436e-12
-1.45564e-12
-1.46678e-12
-1.47778e-12
-1.48865e-12
-1.49939e-12
-1.50998e-12
-1.52043e-12
)
;
    }
    inandouthalf12
    {
        type            cyclic;
        value           nonuniform List<scalar> 
100
(
2.00344e-38
1.60435e-14
3.3743e-14
4.99319e-14
6.66378e-14
8.42255e-14
1.02238e-13
1.2043e-13
1.38765e-13
1.57247e-13
1.75873e-13
1.94626e-13
2.13483e-13
2.32419e-13
2.51412e-13
2.70443e-13
2.89495e-13
3.08551e-13
3.27591e-13
3.46598e-13
3.65553e-13
3.84439e-13
4.03242e-13
4.21949e-13
4.40548e-13
4.59026e-13
4.77374e-13
4.95586e-13
5.13655e-13
5.31575e-13
5.49344e-13
5.66959e-13
5.84419e-13
6.01725e-13
6.18879e-13
6.35881e-13
6.52734e-13
6.69444e-13
6.86014e-13
7.02448e-13
7.18752e-13
7.34931e-13
7.50988e-13
7.66929e-13
7.82762e-13
7.9849e-13
8.14118e-13
8.29647e-13
8.45083e-13
8.60432e-13
8.75699e-13
8.90884e-13
9.05992e-13
9.21024e-13
9.35983e-13
9.50871e-13
9.6569e-13
9.80438e-13
9.95117e-13
1.00972e-12
1.02426e-12
1.03873e-12
1.05313e-12
1.06747e-12
1.08174e-12
1.09593e-12
1.11006e-12
1.12411e-12
1.13808e-12
1.15196e-12
1.16577e-12
1.17949e-12
1.19313e-12
1.20669e-12
1.22016e-12
1.23354e-12
1.24683e-12
1.26002e-12
1.27311e-12
1.28609e-12
1.29897e-12
1.31173e-12
1.32438e-12
1.33692e-12
1.34935e-12
1.36166e-12
1.37386e-12
1.38593e-12
1.39788e-12
1.4097e-12
1.42139e-12
1.43294e-12
1.44436e-12
1.45564e-12
1.46678e-12
1.47778e-12
1.48865e-12
1.49939e-12
1.50998e-12
1.52043e-12
)
;
    }
    inandouthalf21
    {
        type            cyclic;
        value           nonuniform List<scalar> 
100
(
-1.53074e-12
-1.5409e-12
-1.55092e-12
-1.5608e-12
-1.57054e-12
-1.58014e-12
-1.58961e-12
-1.59894e-12
-1.60816e-12
-1.61726e-12
-1.62627e-12
-1.63518e-12
-1.64403e-12
-1.65283e-12
-1.6616e-12
-1.67035e-12
-1.6791e-12
-1.68788e-12
-1.69669e-12
-1.70554e-12
-1.71444e-12
-1.72337e-12
-1.73232e-12
-1.74128e-12
-1.75023e-12
-1.75914e-12
-1.76803e-12
-1.77692e-12
-1.78585e-12
-1.79491e-12
-1.80422e-12
-1.81393e-12
-1.82423e-12
-1.83537e-12
-1.84758e-12
-1.86102e-12
-1.87554e-12
-1.89059e-12
-1.90511e-12
-1.91744e-12
-1.92569e-12
-1.92937e-12
-1.93036e-12
-1.93063e-12
-1.93096e-12
-1.93366e-12
-1.05013e-07
-2.28757e-07
-3.34333e-07
-4.25114e-07
-5.046e-07
-5.75239e-07
-6.38752e-07
-6.96203e-07
-7.48482e-07
-7.96301e-07
-8.40234e-07
-8.80746e-07
-9.18214e-07
-9.52952e-07
-9.85217e-07
-1.01522e-06
-1.04314e-06
-1.06911e-06
-1.09325e-06
-1.11563e-06
-1.13631e-06
-1.15534e-06
-1.17274e-06
-1.18852e-06
-1.20269e-06
-1.21526e-06
-1.22627e-06
-1.23576e-06
-1.24382e-06
-1.25055e-06
-1.25608e-06
-1.26059e-06
-1.26422e-06
-1.26713e-06
-1.26946e-06
-1.27131e-06
-1.27277e-06
-1.2739e-06
-1.27477e-06
-1.27542e-06
-1.27587e-06
-1.27616e-06
-1.27632e-06
-1.27635e-06
-1.27629e-06
-1.27614e-06
-1.27591e-06
-1.27563e-06
-1.2753e-06
-1.27492e-06
-1.27452e-06
-1.27408e-06
-1.27363e-06
-1.27317e-06
)
;
    }
    inandouthalf22
    {
        type            cyclic;
        value           nonuniform List<scalar> 
100
(
1.53074e-12
1.5409e-12
1.55092e-12
1.5608e-12
1.57054e-12
1.58014e-12
1.58961e-12
1.59894e-12
1.60816e-12
1.61726e-12
1.62627e-12
1.63518e-12
1.64403e-12
1.65283e-12
1.6616e-12
1.67035e-12
1.6791e-12
1.68788e-12
1.69669e-12
1.70554e-12
1.71444e-12
1.72337e-12
1.73232e-12
1.74128e-12
1.75023e-12
1.75914e-12
1.76803e-12
1.77692e-12
1.78585e-12
1.79491e-12
1.80422e-12
1.81393e-12
1.82423e-12
1.83537e-12
1.84758e-12
1.86102e-12
1.87554e-12
1.89059e-12
1.90511e-12
1.91744e-12
1.92569e-12
1.92937e-12
1.93036e-12
1.93063e-12
1.93096e-12
1.93366e-12
1.05013e-07
2.28757e-07
3.34333e-07
4.25114e-07
5.046e-07
5.75239e-07
6.38752e-07
6.96203e-07
7.48482e-07
7.96301e-07
8.40234e-07
8.80746e-07
9.18214e-07
9.52952e-07
9.85217e-07
1.01522e-06
1.04314e-06
1.06911e-06
1.09325e-06
1.11563e-06
1.13631e-06
1.15534e-06
1.17274e-06
1.18852e-06
1.20269e-06
1.21526e-06
1.22627e-06
1.23576e-06
1.24382e-06
1.25055e-06
1.25608e-06
1.26059e-06
1.26422e-06
1.26713e-06
1.26946e-06
1.27131e-06
1.27277e-06
1.2739e-06
1.27477e-06
1.27542e-06
1.27587e-06
1.27616e-06
1.27632e-06
1.27635e-06
1.27629e-06
1.27614e-06
1.27591e-06
1.27563e-06
1.2753e-06
1.27492e-06
1.27452e-06
1.27408e-06
1.27363e-06
1.27317e-06
)
;
    }
    inandouthalf31
    {
        type            cyclic;
        value           nonuniform List<scalar> 
110
(
-1.27271e-06
-1.29806e-06
-1.32391e-06
-1.35026e-06
-1.37714e-06
-1.40454e-06
-1.43249e-06
-1.461e-06
-1.49007e-06
-1.51973e-06
-1.54998e-06
-1.58084e-06
-1.61233e-06
-1.64445e-06
-1.67722e-06
-1.71066e-06
-1.74477e-06
-1.77958e-06
-1.8151e-06
-1.85135e-06
-1.88833e-06
-1.92607e-06
-1.96458e-06
-2.00387e-06
-2.04397e-06
-2.08489e-06
-2.12665e-06
-2.16926e-06
-2.21276e-06
-2.25715e-06
-2.30247e-06
-2.34874e-06
-2.39598e-06
-2.44424e-06
-2.49356e-06
-2.54398e-06
-2.5955e-06
-2.63436e-06
-2.68156e-06
-2.73036e-06
-2.77995e-06
-2.8306e-06
-2.88185e-06
-2.9343e-06
-2.98816e-06
-3.04269e-06
-3.10019e-06
-3.1562e-06
-3.21408e-06
-3.27312e-06
-3.33348e-06
-3.39524e-06
-3.45849e-06
-3.52333e-06
-3.58987e-06
-3.65825e-06
-3.7286e-06
-3.80105e-06
-3.87573e-06
-3.95284e-06
-4.03245e-06
-4.11448e-06
-4.19905e-06
-4.28596e-06
-4.37455e-06
-4.46387e-06
-4.55451e-06
-4.64696e-06
-4.74128e-06
-4.83752e-06
-4.9357e-06
-5.03589e-06
-5.1381e-06
-5.24239e-06
-5.3488e-06
-5.45736e-06
-5.56813e-06
-5.68115e-06
-5.79646e-06
-5.91412e-06
-6.03416e-06
-6.15663e-06
-6.2816e-06
-6.4091e-06
-6.53918e-06
-6.67191e-06
-6.80733e-06
-6.94551e-06
-7.08648e-06
-7.23032e-06
-7.37707e-06
-7.52681e-06
-7.67958e-06
-7.83546e-06
-7.9945e-06
-8.15676e-06
-8.32232e-06
-8.49125e-06
-8.6636e-06
-8.83944e-06
-9.01886e-06
-9.20192e-06
-9.38869e-06
-9.57926e-06
-9.77369e-06
-9.97207e-06
-1.01745e-05
-1.0381e-05
-1.05917e-05
-1.08067e-05
)
;
    }
    inandouthalf32
    {
        type            cyclic;
        value           nonuniform List<scalar> 
110
(
1.27271e-06
1.29806e-06
1.32391e-06
1.35026e-06
1.37714e-06
1.40454e-06
1.43249e-06
1.461e-06
1.49007e-06
1.51973e-06
1.54998e-06
1.58084e-06
1.61233e-06
1.64445e-06
1.67722e-06
1.71066e-06
1.74477e-06
1.77958e-06
1.8151e-06
1.85135e-06
1.88833e-06
1.92607e-06
1.96458e-06
2.00387e-06
2.04397e-06
2.08489e-06
2.12665e-06
2.16926e-06
2.21276e-06
2.25715e-06
2.30247e-06
2.34874e-06
2.39598e-06
2.44424e-06
2.49356e-06
2.54398e-06
2.5955e-06
2.63436e-06
2.68156e-06
2.73036e-06
2.77995e-06
2.8306e-06
2.88185e-06
2.9343e-06
2.98816e-06
3.04269e-06
3.10019e-06
3.1562e-06
3.21408e-06
3.27312e-06
3.33348e-06
3.39524e-06
3.45849e-06
3.52333e-06
3.58987e-06
3.65825e-06
3.7286e-06
3.80105e-06
3.87573e-06
3.95284e-06
4.03245e-06
4.11448e-06
4.19905e-06
4.28596e-06
4.37455e-06
4.46387e-06
4.55451e-06
4.64696e-06
4.74128e-06
4.83752e-06
4.9357e-06
5.03589e-06
5.1381e-06
5.24239e-06
5.3488e-06
5.45736e-06
5.56813e-06
5.68115e-06
5.79646e-06
5.91412e-06
6.03416e-06
6.15663e-06
6.2816e-06
6.4091e-06
6.53918e-06
6.67191e-06
6.80733e-06
6.94551e-06
7.08648e-06
7.23032e-06
7.37707e-06
7.52681e-06
7.67958e-06
7.83546e-06
7.9945e-06
8.15676e-06
8.32232e-06
8.49125e-06
8.6636e-06
8.83944e-06
9.01886e-06
9.20192e-06
9.38869e-06
9.57926e-06
9.77369e-06
9.97207e-06
1.01745e-05
1.0381e-05
1.05917e-05
1.08067e-05
)
;
    }
    inandouthalf41
    {
        type            cyclic;
        value           nonuniform List<scalar> 
50
(
-9.67308e-06
-9.67308e-06
-9.67308e-06
-9.67308e-06
-9.67308e-06
-9.67308e-06
-9.67308e-06
-9.67308e-06
-9.67308e-06
-9.67308e-06
-9.67308e-06
-9.67308e-06
-9.67308e-06
-9.67308e-06
-9.67308e-06
-9.67308e-06
-9.67308e-06
-9.67308e-06
-9.67308e-06
-9.67308e-06
-9.67308e-06
-9.67308e-06
-9.67308e-06
-9.67308e-06
-9.67308e-06
-9.67308e-06
-9.67308e-06
-9.67308e-06
-9.67308e-06
-9.67308e-06
-9.67308e-06
-9.67308e-06
-9.67308e-06
-9.67308e-06
-9.67308e-06
-9.67308e-06
-9.67308e-06
-9.67308e-06
-9.67308e-06
-9.67308e-06
-9.67308e-06
-9.67308e-06
-9.67308e-06
-9.67308e-06
-9.67308e-06
-9.67308e-06
-9.67308e-06
-9.67307e-06
-9.67287e-06
-9.66811e-06
)
;
    }
    inandouthalf42
    {
        type            cyclic;
        value           nonuniform List<scalar> 
50
(
9.67308e-06
9.67308e-06
9.67308e-06
9.67308e-06
9.67308e-06
9.67308e-06
9.67308e-06
9.67308e-06
9.67308e-06
9.67308e-06
9.67308e-06
9.67308e-06
9.67308e-06
9.67308e-06
9.67308e-06
9.67308e-06
9.67308e-06
9.67308e-06
9.67308e-06
9.67308e-06
9.67308e-06
9.67308e-06
9.67308e-06
9.67308e-06
9.67308e-06
9.67308e-06
9.67308e-06
9.67308e-06
9.67308e-06
9.67308e-06
9.67308e-06
9.67308e-06
9.67308e-06
9.67308e-06
9.67308e-06
9.67308e-06
9.67308e-06
9.67308e-06
9.67308e-06
9.67308e-06
9.67308e-06
9.67308e-06
9.67308e-06
9.67308e-06
9.67308e-06
9.67308e-06
9.67308e-06
9.67307e-06
9.67287e-06
9.66811e-06
)
;
    }
    top
    {
        type            symmetryPlane;
        value           uniform 0;
    }
    walls
    {
        type            fixedValue;
        value           uniform 0;
    }
    frontAndBackPlanes
    {
        type            empty;
        value           nonuniform 0();
    }
}


// ************************************************************************* //
