/*--------------------------------*- C++ -*----------------------------------*\
| =========                 |                                                 |
| \\      /  F ield         | OpenFOAM: The Open Source CFD Toolbox           |
|  \\    /   O peration     | Version:  2.4.x                                 |
|   \\  /    A nd           | Web:      www.OpenFOAM.org                      |
|    \\/     M anipulation  |                                                 |
\*---------------------------------------------------------------------------*/
FoamFile
{
    version     2.0;
    format      ascii;
    class       surfaceScalarField;
    location    "8.5";
    object      phib;
}
// * * * * * * * * * * * * * * * * * * * * * * * * * * * * * * * * * * * * * //

dimensions      [0 3 -1 0 0 0 0];

internalField   nonuniform List<scalar> 
359
(
1.91564e-13
4.83762e-13
7.59137e-13
1.02887e-12
1.31024e-12
1.60113e-12
1.89634e-12
2.19401e-12
2.49385e-12
2.79601e-12
3.10038e-12
3.40656e-12
3.71418e-12
4.02284e-12
4.33223e-12
4.64206e-12
4.95207e-12
5.26195e-12
5.57138e-12
5.88012e-12
6.18781e-12
6.49425e-12
6.79919e-12
7.10243e-12
7.40378e-12
7.70305e-12
8.00008e-12
8.29481e-12
8.58713e-12
8.87694e-12
9.16418e-12
9.4489e-12
9.73096e-12
1.00105e-11
1.02875e-11
1.0562e-11
1.0834e-11
1.11036e-11
1.13709e-11
1.16359e-11
1.18988e-11
1.21596e-11
1.24182e-11
1.2675e-11
1.29299e-11
1.31831e-11
1.34345e-11
1.36842e-11
1.39323e-11
1.4179e-11
1.44241e-11
1.46679e-11
1.49103e-11
1.51513e-11
1.5391e-11
1.56294e-11
1.58665e-11
1.61024e-11
1.6337e-11
1.65702e-11
1.68022e-11
1.70329e-11
1.72624e-11
1.74906e-11
1.77176e-11
1.79431e-11
1.81673e-11
1.83901e-11
1.86114e-11
1.88312e-11
1.90494e-11
1.92661e-11
1.94812e-11
1.96948e-11
1.99067e-11
2.0117e-11
2.03255e-11
2.05322e-11
2.0737e-11
2.09398e-11
2.11405e-11
2.13392e-11
2.15359e-11
2.17305e-11
2.19229e-11
2.21133e-11
2.23014e-11
2.24873e-11
2.26708e-11
2.28519e-11
2.30305e-11
2.32066e-11
2.33801e-11
2.35511e-11
2.37195e-11
2.38854e-11
2.40486e-11
2.42093e-11
2.43673e-11
2.45225e-11
2.46751e-11
2.48248e-11
2.49718e-11
2.51161e-11
2.52576e-11
2.53963e-11
2.55324e-11
2.56659e-11
2.5797e-11
2.59257e-11
2.60522e-11
2.61768e-11
2.62996e-11
2.6421e-11
2.65411e-11
2.66602e-11
2.67786e-11
2.68963e-11
2.70135e-11
2.71301e-11
2.72461e-11
2.73611e-11
2.7475e-11
2.75873e-11
2.76977e-11
2.7806e-11
2.79121e-11
2.80164e-11
2.81198e-11
2.82233e-11
2.83285e-11
2.84376e-11
2.85529e-11
2.86769e-11
2.88117e-11
2.8957e-11
2.91077e-11
2.92523e-11
2.93737e-11
2.9453e-11
2.94796e-11
2.9459e-11
2.94078e-11
2.93351e-11
2.42801e-11
-4.25205e-09
-5.25322e-09
-5.40768e-09
-5.37093e-09
-5.22887e-09
-5.01764e-09
-4.75469e-09
-4.46072e-09
-4.15059e-09
-3.83431e-09
-3.51909e-09
-3.21014e-09
-2.91108e-09
-2.62455e-09
-2.35223e-09
-2.0952e-09
-1.8541e-09
-1.62929e-09
-1.42091e-09
-1.22898e-09
-1.05343e-09
-8.94116e-10
-7.50811e-10
-6.23222e-10
-5.10942e-10
-4.13437e-10
-3.30008e-10
-2.59759e-10
-2.01546e-10
-1.54028e-10
-1.15854e-10
-8.58531e-11
-6.30006e-11
-4.62072e-11
-3.42367e-11
-2.58399e-11
-1.99446e-11
-1.57461e-11
-1.26911e-11
-1.0415e-11
-8.68048e-12
-7.33127e-12
-6.26265e-12
-5.40276e-12
-4.70116e-12
-4.12168e-12
-3.63787e-12
-3.23001e-12
-2.88319e-12
-2.58595e-12
-2.32934e-12
-2.10634e-12
-1.91132e-12
-1.73976e-12
-1.58795e-12
-1.45287e-12
-1.3297e-12
-1.217e-12
-1.11353e-12
-1.0182e-12
-9.30058e-13
-8.48266e-13
-7.72111e-13
-7.01012e-13
-6.34508e-13
-5.72252e-13
-5.13984e-13
-4.59507e-13
-4.08722e-13
-3.6163e-13
-3.18209e-13
-2.78407e-13
-2.42194e-13
-2.09529e-13
-1.80298e-13
-1.54295e-13
-1.3132e-13
-1.11195e-13
-9.36721e-14
-7.84922e-14
-6.54315e-14
-5.4261e-14
-4.47628e-14
-3.67159e-14
-2.99453e-14
-2.42703e-14
-1.95515e-14
-1.55592e-14
-1.23584e-14
-9.98606e-15
-7.76884e-15
-5.75458e-15
-4.19345e-15
-3.00282e-15
-2.10511e-15
-1.4165e-15
-9.36504e-16
-5.24368e-16
-3.26522e-16
3.1077e-17
8.43065e-18
8.15796e-18
7.98375e-18
7.70006e-18
7.50636e-18
7.20682e-18
6.98795e-18
6.66578e-18
6.41238e-18
6.06383e-18
5.78327e-18
5.42569e-18
5.12636e-18
4.75115e-18
4.42719e-18
4.05264e-18
3.72924e-18
3.37258e-18
3.09418e-18
2.85581e-18
2.6884e-18
2.54661e-18
2.40606e-18
2.28082e-18
2.16487e-18
2.03815e-18
1.91589e-18
1.83254e-18
1.75032e-18
1.66575e-18
1.56651e-18
1.48031e-18
1.38058e-18
1.27781e-18
1.16661e-18
1.08137e-18
9.95056e-19
9.11943e-19
8.29694e-19
7.46515e-19
6.74708e-19
5.00289e-19
4.42661e-19
3.56966e-19
2.89591e-19
2.22469e-19
1.78902e-19
1.19543e-19
7.95657e-20
4.1115e-20
1.40191e-20
-1.20719e-20
-3.00018e-20
-4.85034e-20
-9.74518e-20
-1.13192e-19
-1.21357e-19
-1.30362e-19
-1.30345e-19
-1.43971e-19
-1.50599e-19
-1.56697e-19
-1.56663e-19
-1.6071e-19
-1.61186e-19
-1.62129e-19
-1.61336e-19
-1.61864e-19
-1.63488e-19
-1.64785e-19
-1.70124e-19
-1.70603e-19
-1.76915e-19
-1.83144e-19
-1.94997e-19
-1.97767e-19
-2.08143e-19
-2.16476e-19
-2.3307e-19
-2.47918e-19
-2.68053e-19
-2.88866e-19
-2.89493e-19
-3.96317e-19
-5.12822e-19
-6.29299e-19
-8.33421e-19
-9.3476e-19
-1.18624e-18
-1.42298e-18
-1.85524e-18
-1.89663e-18
-2.18729e-18
-2.4623e-18
-3.02641e-18
-3.33634e-18
-3.95729e-18
-4.56986e-18
-5.43338e-18
-6.14226e-18
-7.12427e-18
-8.10614e-18
-9.37275e-18
-1.05874e-17
-1.18609e-17
-1.3276e-17
-1.43427e-17
-1.80081e-17
-2.04649e-17
-2.32237e-17
-2.3953e-17
-2.83916e-17
-2.95755e-17
-3.36059e-17
)
;

boundaryField
{
    inandouthalf11
    {
        type            cyclic;
        value           nonuniform List<scalar> 
100
(
-1.93185e-10
-1.92155e-10
-1.92021e-10
-1.92179e-10
-1.92266e-10
-1.92307e-10
-1.92353e-10
-1.92407e-10
-1.92463e-10
-1.92519e-10
-1.92575e-10
-1.92632e-10
-1.9269e-10
-1.92747e-10
-1.92805e-10
-1.92864e-10
-1.92923e-10
-1.92982e-10
-1.93042e-10
-1.93102e-10
-1.93162e-10
-1.93223e-10
-1.93284e-10
-1.93345e-10
-1.93407e-10
-1.93469e-10
-1.93531e-10
-1.93594e-10
-1.93656e-10
-1.93719e-10
-1.93782e-10
-1.93846e-10
-1.9391e-10
-1.93974e-10
-1.94038e-10
-1.94103e-10
-1.94168e-10
-1.94234e-10
-1.943e-10
-1.94366e-10
-1.94433e-10
-1.945e-10
-1.94567e-10
-1.94635e-10
-1.94704e-10
-1.94772e-10
-1.94842e-10
-1.94912e-10
-1.94982e-10
-1.95053e-10
-1.95125e-10
-1.95197e-10
-1.9527e-10
-1.95343e-10
-1.95417e-10
-1.95492e-10
-1.95567e-10
-1.95643e-10
-1.9572e-10
-1.95797e-10
-1.95876e-10
-1.95954e-10
-1.96034e-10
-1.96115e-10
-1.96196e-10
-1.96278e-10
-1.96362e-10
-1.96446e-10
-1.96531e-10
-1.96616e-10
-1.96703e-10
-1.96791e-10
-1.96879e-10
-1.96969e-10
-1.9706e-10
-1.97152e-10
-1.97245e-10
-1.97339e-10
-1.97435e-10
-1.97532e-10
-1.97629e-10
-1.97728e-10
-1.97829e-10
-1.97931e-10
-1.98034e-10
-1.98139e-10
-1.98245e-10
-1.98353e-10
-1.98462e-10
-1.98573e-10
-1.98685e-10
-1.988e-10
-1.98916e-10
-1.99034e-10
-1.99154e-10
-1.99277e-10
-1.99401e-10
-1.99528e-10
-1.99657e-10
-1.99788e-10
)
;
    }
    inandouthalf12
    {
        type            cyclic;
        value           nonuniform List<scalar> 
100
(
1.93185e-10
1.92155e-10
1.92021e-10
1.92179e-10
1.92266e-10
1.92307e-10
1.92353e-10
1.92407e-10
1.92463e-10
1.92519e-10
1.92575e-10
1.92632e-10
1.9269e-10
1.92747e-10
1.92805e-10
1.92864e-10
1.92923e-10
1.92982e-10
1.93042e-10
1.93102e-10
1.93162e-10
1.93223e-10
1.93284e-10
1.93345e-10
1.93407e-10
1.93469e-10
1.93531e-10
1.93594e-10
1.93656e-10
1.93719e-10
1.93782e-10
1.93846e-10
1.9391e-10
1.93974e-10
1.94038e-10
1.94103e-10
1.94168e-10
1.94234e-10
1.943e-10
1.94366e-10
1.94433e-10
1.945e-10
1.94567e-10
1.94635e-10
1.94704e-10
1.94772e-10
1.94842e-10
1.94912e-10
1.94982e-10
1.95053e-10
1.95125e-10
1.95197e-10
1.9527e-10
1.95343e-10
1.95417e-10
1.95492e-10
1.95567e-10
1.95643e-10
1.9572e-10
1.95797e-10
1.95876e-10
1.95954e-10
1.96034e-10
1.96115e-10
1.96196e-10
1.96278e-10
1.96362e-10
1.96446e-10
1.96531e-10
1.96616e-10
1.96703e-10
1.96791e-10
1.96879e-10
1.96969e-10
1.9706e-10
1.97152e-10
1.97245e-10
1.97339e-10
1.97435e-10
1.97532e-10
1.97629e-10
1.97728e-10
1.97829e-10
1.97931e-10
1.98034e-10
1.98139e-10
1.98245e-10
1.98353e-10
1.98462e-10
1.98573e-10
1.98685e-10
1.988e-10
1.98916e-10
1.99034e-10
1.99154e-10
1.99277e-10
1.99401e-10
1.99528e-10
1.99657e-10
1.99788e-10
)
;
    }
    inandouthalf21
    {
        type            cyclic;
        value           nonuniform List<scalar> 
100
(
-1.99921e-10
-2.00058e-10
-2.00197e-10
-2.00339e-10
-2.00483e-10
-2.00631e-10
-2.00782e-10
-2.00937e-10
-2.01095e-10
-2.01256e-10
-2.01422e-10
-2.01591e-10
-2.01765e-10
-2.01943e-10
-2.02126e-10
-2.02314e-10
-2.02507e-10
-2.02705e-10
-2.02909e-10
-2.03119e-10
-2.03335e-10
-2.03558e-10
-2.03788e-10
-2.04025e-10
-2.04271e-10
-2.04524e-10
-2.04787e-10
-2.0506e-10
-2.05344e-10
-2.05641e-10
-2.0595e-10
-2.06272e-10
-2.0661e-10
-2.06967e-10
-2.07346e-10
-2.07747e-10
-2.08168e-10
-2.08615e-10
-2.09109e-10
-2.09673e-10
-2.10282e-10
-2.10869e-10
-2.11571e-10
-2.12483e-10
-2.21282e-10
-2.97011e-09
-1.18577e-07
-2.41968e-07
-3.45979e-07
-4.3572e-07
-5.14546e-07
-5.84676e-07
-6.47657e-07
-7.04665e-07
-7.56591e-07
-8.04144e-07
-8.47889e-07
-8.8829e-07
-9.25725e-07
-9.6051e-07
-9.92909e-07
-1.02314e-06
-1.0514e-06
-1.07782e-06
-1.10256e-06
-1.12571e-06
-1.14736e-06
-1.16758e-06
-1.18643e-06
-1.20394e-06
-1.22015e-06
-1.23506e-06
-1.24867e-06
-1.26098e-06
-1.272e-06
-1.2817e-06
-1.29013e-06
-1.29731e-06
-1.30333e-06
-1.30827e-06
-1.31227e-06
-1.31546e-06
-1.31796e-06
-1.3199e-06
-1.32138e-06
-1.32248e-06
-1.32329e-06
-1.32384e-06
-1.32418e-06
-1.32436e-06
-1.32439e-06
-1.3243e-06
-1.3241e-06
-1.32381e-06
-1.32344e-06
-1.323e-06
-1.3225e-06
-1.32194e-06
-1.32133e-06
-1.32067e-06
)
;
    }
    inandouthalf22
    {
        type            cyclic;
        value           nonuniform List<scalar> 
100
(
1.99921e-10
2.00058e-10
2.00197e-10
2.00339e-10
2.00483e-10
2.00631e-10
2.00782e-10
2.00937e-10
2.01095e-10
2.01256e-10
2.01422e-10
2.01591e-10
2.01765e-10
2.01943e-10
2.02126e-10
2.02314e-10
2.02507e-10
2.02705e-10
2.02909e-10
2.03119e-10
2.03335e-10
2.03558e-10
2.03788e-10
2.04025e-10
2.04271e-10
2.04524e-10
2.04787e-10
2.0506e-10
2.05344e-10
2.05641e-10
2.0595e-10
2.06272e-10
2.0661e-10
2.06967e-10
2.07346e-10
2.07747e-10
2.08168e-10
2.08615e-10
2.09109e-10
2.09673e-10
2.10282e-10
2.10869e-10
2.11571e-10
2.12483e-10
2.21282e-10
2.97011e-09
1.18577e-07
2.41968e-07
3.45979e-07
4.3572e-07
5.14546e-07
5.84676e-07
6.47657e-07
7.04665e-07
7.56591e-07
8.04144e-07
8.47889e-07
8.8829e-07
9.25725e-07
9.6051e-07
9.92909e-07
1.02314e-06
1.0514e-06
1.07782e-06
1.10256e-06
1.12571e-06
1.14736e-06
1.16758e-06
1.18643e-06
1.20394e-06
1.22015e-06
1.23506e-06
1.24867e-06
1.26098e-06
1.272e-06
1.2817e-06
1.29013e-06
1.29731e-06
1.30333e-06
1.30827e-06
1.31227e-06
1.31546e-06
1.31796e-06
1.3199e-06
1.32138e-06
1.32248e-06
1.32329e-06
1.32384e-06
1.32418e-06
1.32436e-06
1.32439e-06
1.3243e-06
1.3241e-06
1.32381e-06
1.32344e-06
1.323e-06
1.3225e-06
1.32194e-06
1.32133e-06
1.32067e-06
)
;
    }
    inandouthalf31
    {
        type            cyclic;
        value           nonuniform List<scalar> 
110
(
-1.31997e-06
-1.346e-06
-1.37249e-06
-1.39943e-06
-1.42685e-06
-1.45475e-06
-1.48313e-06
-1.51201e-06
-1.54138e-06
-1.57125e-06
-1.60164e-06
-1.63255e-06
-1.66399e-06
-1.69595e-06
-1.72846e-06
-1.76152e-06
-1.79513e-06
-1.8293e-06
-1.86404e-06
-1.89937e-06
-1.93528e-06
-1.97178e-06
-2.00888e-06
-2.0466e-06
-2.08494e-06
-2.12391e-06
-2.16351e-06
-2.20377e-06
-2.24468e-06
-2.28627e-06
-2.32854e-06
-2.3715e-06
-2.41517e-06
-2.45956e-06
-2.50469e-06
-2.55057e-06
-2.59722e-06
-2.64465e-06
-2.69289e-06
-2.74196e-06
-2.79189e-06
-2.84269e-06
-2.8944e-06
-2.94706e-06
-3.00069e-06
-3.05533e-06
-3.11104e-06
-3.16786e-06
-3.22585e-06
-3.28507e-06
-3.3456e-06
-3.40751e-06
-3.4709e-06
-3.53587e-06
-3.60253e-06
-3.67102e-06
-3.74145e-06
-3.81398e-06
-3.88875e-06
-3.9659e-06
-4.04552e-06
-4.12768e-06
-4.21237e-06
-4.29944e-06
-4.38845e-06
-4.47821e-06
-4.56916e-06
-4.6619e-06
-4.75653e-06
-4.85307e-06
-4.95158e-06
-5.05208e-06
-5.15462e-06
-5.25925e-06
-5.366e-06
-5.47491e-06
-5.58604e-06
-5.69942e-06
-5.8151e-06
-5.93314e-06
-6.05356e-06
-6.17643e-06
-6.3018e-06
-6.42971e-06
-6.56021e-06
-6.69337e-06
-6.82923e-06
-6.96784e-06
-7.10927e-06
-7.25357e-06
-7.4008e-06
-7.55101e-06
-7.70428e-06
-7.86066e-06
-8.02021e-06
-8.183e-06
-8.34909e-06
-8.51855e-06
-8.69146e-06
-8.86787e-06
-9.04786e-06
-9.23151e-06
-9.41889e-06
-9.61007e-06
-9.80512e-06
-1.00041e-05
-1.02072e-05
-1.04144e-05
-1.06258e-05
-1.08414e-05
)
;
    }
    inandouthalf32
    {
        type            cyclic;
        value           nonuniform List<scalar> 
110
(
1.31997e-06
1.346e-06
1.37249e-06
1.39943e-06
1.42685e-06
1.45475e-06
1.48313e-06
1.51201e-06
1.54138e-06
1.57125e-06
1.60164e-06
1.63255e-06
1.66399e-06
1.69595e-06
1.72846e-06
1.76152e-06
1.79513e-06
1.8293e-06
1.86404e-06
1.89937e-06
1.93528e-06
1.97178e-06
2.00888e-06
2.0466e-06
2.08494e-06
2.12391e-06
2.16351e-06
2.20377e-06
2.24468e-06
2.28627e-06
2.32854e-06
2.3715e-06
2.41517e-06
2.45956e-06
2.50469e-06
2.55057e-06
2.59722e-06
2.64465e-06
2.69289e-06
2.74196e-06
2.79189e-06
2.84269e-06
2.8944e-06
2.94706e-06
3.00069e-06
3.05533e-06
3.11104e-06
3.16786e-06
3.22585e-06
3.28507e-06
3.3456e-06
3.40751e-06
3.4709e-06
3.53587e-06
3.60253e-06
3.67102e-06
3.74145e-06
3.81398e-06
3.88875e-06
3.9659e-06
4.04552e-06
4.12768e-06
4.21237e-06
4.29944e-06
4.38845e-06
4.47821e-06
4.56916e-06
4.6619e-06
4.75653e-06
4.85307e-06
4.95158e-06
5.05208e-06
5.15462e-06
5.25925e-06
5.366e-06
5.47491e-06
5.58604e-06
5.69942e-06
5.8151e-06
5.93314e-06
6.05356e-06
6.17643e-06
6.3018e-06
6.42971e-06
6.56021e-06
6.69337e-06
6.82923e-06
6.96784e-06
7.10927e-06
7.25357e-06
7.4008e-06
7.55101e-06
7.70428e-06
7.86066e-06
8.02021e-06
8.183e-06
8.34909e-06
8.51855e-06
8.69146e-06
8.86787e-06
9.04786e-06
9.23151e-06
9.41889e-06
9.61007e-06
9.80512e-06
1.00041e-05
1.02072e-05
1.04144e-05
1.06258e-05
1.08414e-05
)
;
    }
    inandouthalf41
    {
        type            cyclic;
        value           nonuniform List<scalar> 
50
(
-9.70419e-06
-9.70419e-06
-9.70419e-06
-9.70419e-06
-9.70419e-06
-9.70419e-06
-9.70419e-06
-9.70419e-06
-9.70419e-06
-9.70419e-06
-9.70419e-06
-9.70419e-06
-9.70419e-06
-9.70419e-06
-9.70419e-06
-9.70419e-06
-9.70419e-06
-9.70419e-06
-9.70419e-06
-9.70419e-06
-9.70419e-06
-9.70419e-06
-9.70419e-06
-9.70419e-06
-9.70419e-06
-9.70419e-06
-9.70419e-06
-9.70419e-06
-9.70419e-06
-9.70419e-06
-9.70419e-06
-9.70419e-06
-9.70419e-06
-9.70419e-06
-9.70419e-06
-9.70419e-06
-9.70419e-06
-9.70419e-06
-9.70419e-06
-9.70419e-06
-9.70419e-06
-9.70419e-06
-9.70419e-06
-9.70419e-06
-9.70419e-06
-9.70419e-06
-9.70419e-06
-9.70419e-06
-9.70419e-06
-9.70419e-06
)
;
    }
    inandouthalf42
    {
        type            cyclic;
        value           nonuniform List<scalar> 
50
(
9.70419e-06
9.70419e-06
9.70419e-06
9.70419e-06
9.70419e-06
9.70419e-06
9.70419e-06
9.70419e-06
9.70419e-06
9.70419e-06
9.70419e-06
9.70419e-06
9.70419e-06
9.70419e-06
9.70419e-06
9.70419e-06
9.70419e-06
9.70419e-06
9.70419e-06
9.70419e-06
9.70419e-06
9.70419e-06
9.70419e-06
9.70419e-06
9.70419e-06
9.70419e-06
9.70419e-06
9.70419e-06
9.70419e-06
9.70419e-06
9.70419e-06
9.70419e-06
9.70419e-06
9.70419e-06
9.70419e-06
9.70419e-06
9.70419e-06
9.70419e-06
9.70419e-06
9.70419e-06
9.70419e-06
9.70419e-06
9.70419e-06
9.70419e-06
9.70419e-06
9.70419e-06
9.70419e-06
9.70419e-06
9.70419e-06
9.70419e-06
)
;
    }
    top
    {
        type            symmetryPlane;
        value           uniform 0;
    }
    walls
    {
        type            fixedValue;
        value           uniform 0;
    }
    frontAndBackPlanes
    {
        type            empty;
        value           nonuniform 0();
    }
}


// ************************************************************************* //
