/*--------------------------------*- C++ -*----------------------------------*\
| =========                 |                                                 |
| \\      /  F ield         | OpenFOAM: The Open Source CFD Toolbox           |
|  \\    /   O peration     | Version:  2.4.x                                 |
|   \\  /    A nd           | Web:      www.OpenFOAM.org                      |
|    \\/     M anipulation  |                                                 |
\*---------------------------------------------------------------------------*/
FoamFile
{
    version     2.0;
    format      ascii;
    class       volVectorField;
    location    "8.5";
    object      U;
}
// * * * * * * * * * * * * * * * * * * * * * * * * * * * * * * * * * * * * * //

dimensions      [0 1 -1 0 0 0 0];

internalField   nonuniform List<vector> 
360
(
(7.51774e-05 9.1497e-09 0)
(7.46238e-05 -1.67617e-09 0)
(7.45642e-05 -1.54744e-09 0)
(7.46523e-05 1.93676e-10 0)
(7.47048e-05 4.48681e-10 0)
(7.47343e-05 1.67644e-10 0)
(7.47666e-05 4.69318e-11 0)
(7.4803e-05 4.62828e-11 0)
(7.48402e-05 5.48997e-11 0)
(7.48777e-05 5.45327e-11 0)
(7.49157e-05 4.85402e-11 0)
(7.49537e-05 3.84816e-11 0)
(7.49921e-05 2.85117e-11 0)
(7.50306e-05 1.98825e-11 0)
(7.50695e-05 1.28631e-11 0)
(7.51086e-05 6.48513e-12 0)
(7.51479e-05 -5.56728e-13 0)
(7.51874e-05 -7.9504e-12 0)
(7.52271e-05 -1.54178e-11 0)
(7.5267e-05 -2.19077e-11 0)
(7.53069e-05 -2.9231e-11 0)
(7.5347e-05 -3.45285e-11 0)
(7.53873e-05 -3.97289e-11 0)
(7.54276e-05 -4.48502e-11 0)
(7.5468e-05 -4.93289e-11 0)
(7.55085e-05 -5.31294e-11 0)
(7.55491e-05 -5.6456e-11 0)
(7.55898e-05 -5.81856e-11 0)
(7.56305e-05 -6.05598e-11 0)
(7.56713e-05 -6.22581e-11 0)
(7.57122e-05 -6.35614e-11 0)
(7.57532e-05 -6.24677e-11 0)
(7.57941e-05 -6.46685e-11 0)
(7.58354e-05 -6.14957e-11 0)
(7.58764e-05 -6.29566e-11 0)
(7.59178e-05 -6.11666e-11 0)
(7.59591e-05 -6.00816e-11 0)
(7.60006e-05 -5.82567e-11 0)
(7.60424e-05 -5.4844e-11 0)
(7.60838e-05 -5.6739e-11 0)
(7.61259e-05 -5.16627e-11 0)
(7.6168e-05 -5.01502e-11 0)
(7.621e-05 -5.09877e-11 0)
(7.62525e-05 -4.50394e-11 0)
(7.6295e-05 -4.4877e-11 0)
(7.63378e-05 -4.36735e-11 0)
(7.63809e-05 -4.07746e-11 0)
(7.64238e-05 -4.22744e-11 0)
(7.64672e-05 -3.88572e-11 0)
(7.65111e-05 -3.38083e-11 0)
(7.65548e-05 -3.78896e-11 0)
(7.6599e-05 -3.41383e-11 0)
(7.66434e-05 -3.44744e-11 0)
(7.66882e-05 -3.14393e-11 0)
(7.6733e-05 -3.4831e-11 0)
(7.67786e-05 -2.92032e-11 0)
(7.6824e-05 -3.40431e-11 0)
(7.68701e-05 -3.14329e-11 0)
(7.69163e-05 -3.16076e-11 0)
(7.69627e-05 -3.56775e-11 0)
(7.70099e-05 -2.84014e-11 0)
(7.7057e-05 -3.33336e-11 0)
(7.71048e-05 -3.00471e-11 0)
(7.71528e-05 -3.27752e-11 0)
(7.72013e-05 -3.28393e-11 0)
(7.72501e-05 -3.5063e-11 0)
(7.72994e-05 -3.50226e-11 0)
(7.73491e-05 -3.63783e-11 0)
(7.73992e-05 -3.75147e-11 0)
(7.74495e-05 -4.11424e-11 0)
(7.75006e-05 -3.81604e-11 0)
(7.75522e-05 -3.61528e-11 0)
(7.76039e-05 -4.38933e-11 0)
(7.76564e-05 -3.92329e-11 0)
(7.77093e-05 -4.25593e-11 0)
(7.77629e-05 -4.13298e-11 0)
(7.78167e-05 -4.66927e-11 0)
(7.78712e-05 -4.85782e-11 0)
(7.79262e-05 -4.96656e-11 0)
(7.79819e-05 -5.03118e-11 0)
(7.8038e-05 -5.3107e-11 0)
(7.80948e-05 -5.29318e-11 0)
(7.81522e-05 -5.27773e-11 0)
(7.82103e-05 -5.38016e-11 0)
(7.82691e-05 -5.43029e-11 0)
(7.83285e-05 -5.61525e-11 0)
(7.83887e-05 -5.73768e-11 0)
(7.84496e-05 -5.99567e-11 0)
(7.85112e-05 -6.23532e-11 0)
(7.85737e-05 -6.38944e-11 0)
(7.86369e-05 -6.52145e-11 0)
(7.87009e-05 -6.64179e-11 0)
(7.87659e-05 -6.66772e-11 0)
(7.88318e-05 -6.6987e-11 0)
(7.88986e-05 -6.74838e-11 0)
(7.89665e-05 -6.81568e-11 0)
(7.90353e-05 -6.90886e-11 0)
(7.91053e-05 -7.02962e-11 0)
(7.91763e-05 -7.16216e-11 0)
(7.92485e-05 -7.28365e-11 0)
(7.93219e-05 -7.3927e-11 0)
(7.93966e-05 -7.47872e-11 0)
(7.94726e-05 -7.52957e-11 0)
(7.955e-05 -7.54788e-11 0)
(7.96288e-05 -7.53006e-11 0)
(7.97091e-05 -7.46619e-11 0)
(7.97911e-05 -7.34876e-11 0)
(7.98747e-05 -7.16885e-11 0)
(7.99601e-05 -6.91757e-11 0)
(8.00473e-05 -6.59097e-11 0)
(8.01364e-05 -6.1903e-11 0)
(8.02276e-05 -5.72291e-11 0)
(8.03209e-05 -5.20435e-11 0)
(8.04165e-05 -4.65901e-11 0)
(8.05145e-05 -4.12077e-11 0)
(8.06151e-05 -3.63343e-11 0)
(8.07183e-05 -3.24935e-11 0)
(8.08242e-05 -3.02593e-11 0)
(8.09332e-05 -3.01975e-11 0)
(8.10453e-05 -3.27779e-11 0)
(8.11606e-05 -3.82473e-11 0)
(8.12794e-05 -4.64674e-11 0)
(8.14019e-05 -5.67475e-11 0)
(8.15282e-05 -6.77217e-11 0)
(8.16587e-05 -7.73364e-11 0)
(8.17935e-05 -8.30345e-11 0)
(8.1933e-05 -8.21319e-11 0)
(8.20778e-05 -7.22452e-11 0)
(8.22284e-05 -5.15812e-11 0)
(8.23853e-05 -1.92626e-11 0)
(8.2549e-05 2.38553e-11 0)
(8.27199e-05 7.39338e-11 0)
(8.28991e-05 1.25931e-10 0)
(8.30884e-05 1.77168e-10 0)
(8.32898e-05 2.11547e-10 0)
(8.35034e-05 1.65416e-10 0)
(8.37279e-05 -4.80034e-11 0)
(8.39661e-05 -4.74074e-10 0)
(8.42285e-05 -1.06401e-09 0)
(8.45261e-05 -1.48893e-09 0)
(8.48452e-05 -7.0389e-10 0)
(8.51511e-05 -9.79189e-08 0)
(8.55155e-05 1.25743e-06 0)
(8.5988e-05 -5.56693e-06 0)
(8.96516e-05 2.1861e-05 0)
(0.00146003 -9.3199e-05 0)
(0.113929 -2.71576e-05 0)
(0.238278 -2.85825e-05 0)
(0.343113 -1.47976e-05 0)
(0.433369 -9.57722e-06 0)
(0.512548 -5.26001e-06 0)
(0.58296 -1.54227e-06 0)
(0.646199 -3.02653e-06 0)
(0.703421 -2.65378e-06 0)
(0.755528 -2.15973e-06 0)
(0.80323 -1.78959e-06 0)
(0.847102 -1.52809e-06 0)
(0.887608 -1.33261e-06 0)
(0.925132 -1.19508e-06 0)
(0.959993 -1.07037e-06 0)
(0.992455 -9.69906e-07 0)
(1.02274 -8.7896e-07 0)
(1.05104 -7.93415e-07 0)
(1.07751 -7.10658e-07 0)
(1.10228 -6.30758e-07 0)
(1.12545 -5.52275e-07 0)
(1.14713 -4.76722e-07 0)
(1.16737 -4.0382e-07 0)
(1.18624 -3.3481e-07 0)
(1.20377 -2.70263e-07 0)
(1.22 -2.11565e-07 0)
(1.23492 -1.58481e-07 0)
(1.24855 -1.08757e-07 0)
(1.26088 -6.10625e-08 0)
(1.27191 -2.06191e-08 0)
(1.28163 3.4197e-09 0)
(1.29007 1.02819e-08 0)
(1.29727 1.06087e-08 0)
(1.30329 1.35002e-08 0)
(1.30824 1.80276e-08 0)
(1.31225 1.95136e-08 0)
(1.31544 1.69795e-08 0)
(1.31794 1.26814e-08 0)
(1.31989 8.73389e-09 0)
(1.32137 5.87721e-09 0)
(1.32247 4.00085e-09 0)
(1.32328 2.7912e-09 0)
(1.32383 1.99721e-09 0)
(1.32418 1.46175e-09 0)
(1.32435 1.09002e-09 0)
(1.32438 8.25771e-10 0)
(1.32429 6.34274e-10 0)
(1.3241 4.91987e-10 0)
(1.32381 3.84658e-10 0)
(1.32344 3.02594e-10 0)
(1.323 2.39128e-10 0)
(1.3225 1.89374e-10 0)
(1.32194 1.50262e-10 0)
(1.32133 1.18446e-10 0)
(1.32067 9.50107e-11 0)
(1.31997 7.41147e-11 0)
(1.31922 6.12542e-11 0)
(1.31842 4.94566e-11 0)
(1.31756 3.84703e-11 0)
(1.31665 2.98508e-11 0)
(1.31569 2.28785e-11 0)
(1.31467 1.75232e-11 0)
(1.3136 1.20596e-11 0)
(1.31248 7.7363e-12 0)
(1.31131 3.91268e-12 0)
(1.31008 -2.66706e-13 0)
(1.30879 -1.44169e-12 0)
(1.30746 -5.93059e-13 0)
(1.30606 -4.89417e-12 0)
(1.30462 -8.33523e-12 0)
(1.30312 -4.96459e-12 0)
(1.30156 -4.05082e-12 0)
(1.29996 -5.32231e-12 0)
(1.29829 -6.32739e-12 0)
(1.29658 -3.14414e-12 0)
(1.29481 2.12154e-12 0)
(1.29299 -7.69275e-13 0)
(1.29111 -5.73703e-13 0)
(1.28919 3.5108e-12 0)
(1.28721 3.65233e-12 0)
(1.28518 2.61695e-12 0)
(1.28311 4.4963e-12 0)
(1.28098 3.0171e-12 0)
(1.27881 7.09972e-12 0)
(1.27659 4.76244e-13 0)
(1.27432 8.12594e-12 0)
(1.27202 -1.58322e-12 0)
(1.26967 2.52791e-11 0)
(1.26728 -2.92364e-11 0)
(1.26486 6.53018e-12 0)
(1.26241 3.80031e-11 0)
(1.25992 -2.40343e-11 0)
(1.25741 1.26641e-11 0)
(1.25488 2.66593e-12 0)
(1.25232 7.91827e-12 0)
(1.24976 -3.71721e-12 0)
(1.24719 1.08195e-11 0)
(1.24461 -6.63495e-13 0)
(1.24204 -1.53272e-11 0)
(1.23949 4.6873e-11 0)
(1.23695 1.67481e-11 0)
(1.23445 3.81655e-12 0)
(1.23199 1.20209e-12 0)
(1.22959 1.63313e-12 0)
(1.22725 1.93151e-12 0)
(1.225 1.87817e-12 0)
(1.22285 1.77798e-12 0)
(1.22082 1.69953e-12 0)
(1.21893 1.61991e-12 0)
(1.2172 1.59416e-12 0)
(1.21566 1.73856e-12 0)
(1.21434 1.58628e-12 0)
(1.21326 -5.32091e-12 0)
(1.21243 2.49935e-11 0)
(1.21189 -5.35849e-11 0)
(1.21162 1.02505e-10 0)
(1.21164 -1.63497e-10 0)
(1.2119 2.4393e-10 0)
(1.21234 -3.34266e-10 0)
(1.21282 4.38031e-10 0)
(1.21301 -5.45392e-10 0)
(1.21302 6.59401e-10 0)
(1.21302 -7.73526e-10 0)
(1.21302 8.92707e-10 0)
(1.21302 -1.01223e-09 0)
(1.21302 1.13679e-09 0)
(1.21302 -1.26216e-09 0)
(1.21302 1.39255e-09 0)
(1.21302 -1.5242e-09 0)
(1.21302 1.66086e-09 0)
(1.21302 -1.79914e-09 0)
(1.21302 1.94244e-09 0)
(1.21302 -2.0877e-09 0)
(1.21302 2.23795e-09 0)
(1.21302 -2.3905e-09 0)
(1.21302 2.54796e-09 0)
(1.21302 -2.70805e-09 0)
(1.21302 2.87299e-09 0)
(1.21302 -3.04085e-09 0)
(1.21302 3.21348e-09 0)
(1.21302 -3.3893e-09 0)
(1.21302 3.56982e-09 0)
(1.21302 -3.7538e-09 0)
(1.21302 3.94233e-09 0)
(1.21302 -4.13457e-09 0)
(1.21302 4.33128e-09 0)
(1.21302 -4.53191e-09 0)
(1.21302 4.73693e-09 0)
(1.21302 -4.94602e-09 0)
(1.21302 5.15945e-09 0)
(1.21302 -5.37706e-09 0)
(1.21302 5.59897e-09 0)
(1.21302 -5.82514e-09 0)
(1.21302 6.05555e-09 0)
(1.21302 -6.29028e-09 0)
(1.21302 6.5292e-09 0)
(1.21302 -6.77248e-09 0)
(1.21302 7.01989e-09 0)
(1.21302 -7.27163e-09 0)
(1.21302 7.52744e-09 0)
(1.21302 -7.78754e-09 0)
(1.21302 8.0516e-09 0)
(1.21302 -8.3199e-09 0)
(1.21302 8.59204e-09 0)
(1.21302 -8.86828e-09 0)
(1.21302 8.03192e-09 0)
(1.21302 -8.13001e-09 0)
(1.21302 8.22689e-09 0)
(1.21302 -8.32289e-09 0)
(1.21302 8.41766e-09 0)
(1.21302 -8.51152e-09 0)
(1.21302 8.60414e-09 0)
(1.21302 -8.69583e-09 0)
(1.21302 8.78625e-09 0)
(1.21302 -8.87572e-09 0)
(1.21302 8.96388e-09 0)
(1.21302 -9.0511e-09 0)
(1.21302 9.13695e-09 0)
(1.21302 -9.22185e-09 0)
(1.21302 9.30534e-09 0)
(1.21302 -9.38787e-09 0)
(1.21302 9.46893e-09 0)
(1.21302 -9.54902e-09 0)
(1.21302 9.62758e-09 0)
(1.21302 -9.70522e-09 0)
(1.21302 9.78113e-09 0)
(1.21302 -9.85631e-09 0)
(1.21302 9.92943e-09 0)
(1.21302 -1.00021e-08 0)
(1.21302 1.00723e-08 0)
(1.21302 -1.01424e-08 0)
(1.21302 1.02095e-08 0)
(1.21302 -1.0277e-08 0)
(1.21302 1.03409e-08 0)
(1.21302 -1.04057e-08 0)
(1.21302 1.04661e-08 0)
(1.21302 -1.05281e-08 0)
(1.21302 1.05847e-08 0)
(1.21302 -1.0644e-08 0)
(1.21302 1.06964e-08 0)
(1.21302 -1.07529e-08 0)
(1.21302 1.08008e-08 0)
(1.21302 -1.08544e-08 0)
(1.21302 1.08972e-08 0)
(1.21302 -1.09479e-08 0)
(1.21302 1.09851e-08 0)
(1.21302 -1.10324e-08 0)
(1.21302 1.10633e-08 0)
(1.21302 -1.11078e-08 0)
(1.21302 1.11302e-08 0)
(1.21302 -1.11712e-08 0)
(1.21302 1.11847e-08 0)
(1.21302 -1.12204e-08 0)
(1.21302 1.12216e-08 0)
(1.21302 -1.12432e-08 0)
)
;

boundaryField
{
    inandouthalf11
    {
        type            cyclic;
    }
    inandouthalf12
    {
        type            cyclic;
    }
    inandouthalf21
    {
        type            cyclic;
    }
    inandouthalf22
    {
        type            cyclic;
    }
    inandouthalf31
    {
        type            cyclic;
    }
    inandouthalf32
    {
        type            cyclic;
    }
    inandouthalf41
    {
        type            cyclic;
    }
    inandouthalf42
    {
        type            cyclic;
    }
    top
    {
        type            symmetryPlane;
    }
    walls
    {
        type            calculated;
        value           uniform (0 0 0);
    }
    frontAndBackPlanes
    {
        type            empty;
    }
}


// ************************************************************************* //
