/*--------------------------------*- C++ -*----------------------------------*\
| =========                 |                                                 |
| \\      /  F ield         | OpenFOAM: The Open Source CFD Toolbox           |
|  \\    /   O peration     | Version:  2.4.x                                 |
|   \\  /    A nd           | Web:      www.OpenFOAM.org                      |
|    \\/     M anipulation  |                                                 |
\*---------------------------------------------------------------------------*/
FoamFile
{
    version     2.0;
    format      ascii;
    class       volScalarField;
    location    "9.55";
    object      alpha;
}
// * * * * * * * * * * * * * * * * * * * * * * * * * * * * * * * * * * * * * //

dimensions      [0 0 0 0 0 0 0];

internalField   nonuniform List<scalar> 
360
(
0.610878
0.611738
0.611829
0.61174
0.611698
0.611685
0.611668
0.611646
0.611624
0.611601
0.611578
0.611555
0.611532
0.611509
0.611485
0.611461
0.611437
0.611413
0.611388
0.611363
0.611338
0.611313
0.611287
0.611261
0.611235
0.611208
0.611182
0.611154
0.611127
0.611099
0.611071
0.611043
0.611015
0.610986
0.610956
0.610927
0.610897
0.610867
0.610836
0.610806
0.610774
0.610743
0.610711
0.610679
0.610646
0.610613
0.61058
0.610547
0.610513
0.610478
0.610443
0.610408
0.610372
0.610336
0.6103
0.610263
0.610225
0.610187
0.610149
0.61011
0.610071
0.610031
0.609991
0.60995
0.609909
0.609867
0.609824
0.609781
0.609738
0.609694
0.609649
0.609603
0.609557
0.60951
0.609463
0.609415
0.609366
0.609316
0.609266
0.609215
0.609163
0.60911
0.609056
0.609002
0.608947
0.60889
0.608833
0.608775
0.608715
0.608655
0.608594
0.608531
0.608468
0.608403
0.608336
0.608269
0.6082
0.60813
0.608058
0.607985
0.607911
0.607835
0.607757
0.607677
0.607596
0.607512
0.607427
0.60734
0.607251
0.607159
0.607065
0.606969
0.60687
0.606769
0.606665
0.606558
0.606448
0.606336
0.606219
0.6061
0.605976
0.605849
0.605718
0.605583
0.605442
0.605298
0.605147
0.604992
0.60483
0.604661
0.604486
0.604303
0.604112
0.603911
0.603697
0.60347
0.603232
0.602979
0.602698
0.602377
0.602029
0.601643
0.597254
0.594699
0.435904
0.327104
0.284459
0.257664
0.236082
0.216984
0.199428
0.181647
0.164978
0.149585
0.135442
0.122491
0.110668
0.0999067
0.0901413
0.0813032
0.0733228
0.0661295
0.0596544
0.0538305
0.0485946
0.0438872
0.0396538
0.0358445
0.0324145
0.0293232
0.0265348
0.0240171
0.0217414
0.0196827
0.0178182
0.0161282
0.014595
0.0132028
0.0119377
0.0107872
0.00974006
0.00878633
0.00791693
0.00712373
0.00639973
0.00573969
0.00514107
0.00460572
0.0041307
0.00370783
0.00333039
0.00299276
0.00269012
0.00241835
0.00217394
0.00195384
0.00175539
0.00157629
0.00141451
0.00126827
0.00113599
0.00101507
0.0009036
0.000800995
0.000706651
0.000619909
0.000540053
0.000466385
0.000398407
0.000336012
0.000279562
0.000229709
0.000187003
0.000151543
0.000122857
0.000100047
8.20479e-05
6.78305e-05
5.65219e-05
4.74299e-05
4.00307e-05
3.39278e-05
2.88349e-05
2.45324e-05
2.08669e-05
1.77151e-05
1.49966e-05
1.26403e-05
1.06132e-05
8.83595e-06
7.37241e-06
6.00845e-06
5.03301e-06
3.94428e-06
3.41374e-06
2.43445e-06
2.55943e-06
2.01918e-06
1.40604e-06
1.01132e-06
7.12896e-07
4.99943e-07
3.46606e-07
2.37272e-07
1.59405e-07
1.05677e-07
6.63638e-08
4.23866e-08
2.19193e-08
1.32986e-08
2.1552e-09
1.57258e-37
3.56026e-48
9.4876e-53
5.04377e-54
2.78247e-54
1.60561e-54
7.95042e-55
4.1065e-55
2.20937e-55
1.11467e-55
5.77927e-56
2.83241e-56
1.41071e-56
6.91594e-57
3.33539e-57
1.58162e-57
7.37035e-58
3.37333e-58
1.51554e-58
6.67866e-59
2.88472e-59
1.22077e-59
5.05815e-60
2.05048e-60
8.12605e-61
3.1456e-61
1.18835e-61
4.37712e-62
1.57037e-62
5.48178e-63
1.85971e-63
6.12408e-64
1.95494e-64
6.04093e-65
1.80419e-65
5.19924e-66
1.44307e-66
3.85002e-67
9.85178e-68
2.41213e-68
5.63587e-69
1.25288e-69
2.64121e-70
5.26032e-71
9.85567e-72
1.72863e-72
2.82228e-73
4.26084e-74
5.90151e-75
7.42782e-76
8.39624e-77
8.39819e-78
7.29046e-79
5.35018e-80
3.19592e-81
1.46469e-82
4.63242e-84
7.88974e-86
1.3521e-88
2.13805e-94
1.50501e-96
5.24676e-99
2.01636e-109
3.92729e-120
5.68194e-131
5.95721e-142
5.42035e-153
3.7885e-164
2.27048e-175
6.9704e-186
3.14292e-196
2.02713e-204
9.14504e-215
6.9718e-223
3.70992e-233
2.39968e-241
1.56449e-251
8.26869e-260
1.00168e-269
2.91436e-278
6.64193e-288
1.06113e-296
3.28537e-306
3.96794e-315
4.42683e-321
2.51973e-321
8.86848e-321
4.57737e-319
2.8055e-319
6.80328e-321
7.09478e-321
6.08689e-321
8.5424e-321
0
0
0
0
0
0
0
0
0
0
0
0
0
0
0
0
)
;

boundaryField
{
    inandouthalf11
    {
        type            cyclic;
    }
    inandouthalf12
    {
        type            cyclic;
    }
    inandouthalf21
    {
        type            cyclic;
    }
    inandouthalf22
    {
        type            cyclic;
    }
    inandouthalf31
    {
        type            cyclic;
    }
    inandouthalf32
    {
        type            cyclic;
    }
    inandouthalf41
    {
        type            cyclic;
    }
    inandouthalf42
    {
        type            cyclic;
    }
    top
    {
        type            symmetryPlane;
    }
    walls
    {
        type            zeroGradient;
    }
    frontAndBackPlanes
    {
        type            empty;
    }
}


// ************************************************************************* //
