/*--------------------------------*- C++ -*----------------------------------*\
| =========                 |                                                 |
| \\      /  F ield         | OpenFOAM: The Open Source CFD Toolbox           |
|  \\    /   O peration     | Version:  2.4.x                                 |
|   \\  /    A nd           | Web:      www.OpenFOAM.org                      |
|    \\/     M anipulation  |                                                 |
\*---------------------------------------------------------------------------*/
FoamFile
{
    version     2.0;
    format      ascii;
    class       volScalarField;
    location    "9.55";
    object      ddt0(((1.5*(alpha+1e-08))*rho),Theta);
}
// * * * * * * * * * * * * * * * * * * * * * * * * * * * * * * * * * * * * * //

dimensions      [1 -1 -3 0 0 0 0];

internalField   nonuniform List<scalar> 
360
(
-2.22899e-22
-7.49937e-22
-5.38108e-22
-5.15457e-22
-5.88297e-22
-6.43166e-22
-6.74548e-22
-7.0452e-22
-7.4005e-22
-7.80584e-22
-8.24675e-22
-8.70888e-22
-9.18432e-22
-9.67024e-22
-1.01662e-21
-1.06715e-21
-1.11822e-21
-1.16932e-21
-1.2202e-21
-1.27057e-21
-1.32004e-21
-1.36863e-21
-1.41617e-21
-1.46236e-21
-1.50697e-21
-1.5497e-21
-1.59047e-21
-1.62934e-21
-1.66586e-21
-1.69964e-21
-1.7308e-21
-1.75902e-21
-1.78408e-21
-1.80613e-21
-1.82459e-21
-1.83907e-21
-1.84979e-21
-1.857e-21
-1.85999e-21
-1.85839e-21
-1.85297e-21
-1.84297e-21
-1.8282e-21
-1.80956e-21
-1.78668e-21
-1.75945e-21
-1.72758e-21
-1.69104e-21
-1.65142e-21
-1.60866e-21
-1.56186e-21
-1.51184e-21
-1.45928e-21
-1.40414e-21
-1.3469e-21
-1.28807e-21
-1.22777e-21
-1.16647e-21
-1.10433e-21
-1.04203e-21
-9.80497e-22
-9.19802e-22
-8.60208e-22
-8.01921e-22
-7.45069e-22
-6.90057e-22
-6.37234e-22
-5.86665e-22
-5.38326e-22
-4.92631e-22
-4.50012e-22
-4.10212e-22
-3.73064e-22
-3.3881e-22
-3.07421e-22
-2.78645e-22
-2.52288e-22
-2.28315e-22
-2.06709e-22
-1.8733e-22
-1.70054e-22
-1.54798e-22
-1.41432e-22
-1.29782e-22
-1.19678e-22
-1.1095e-22
-1.03431e-22
-9.69633e-23
-9.14195e-23
-8.66938e-23
-8.26873e-23
-7.93127e-23
-7.64905e-23
-7.41387e-23
-7.2174e-23
-7.05161e-23
-6.90889e-23
-6.78227e-23
-6.66568e-23
-6.55393e-23
-6.44265e-23
-6.32817e-23
-6.20753e-23
-6.07843e-23
-5.93936e-23
-5.7899e-23
-5.63096e-23
-5.46485e-23
-5.29537e-23
-5.12741e-23
-4.96645e-23
-4.81759e-23
-4.68433e-23
-4.56702e-23
-4.46141e-23
-4.35729e-23
-4.23789e-23
-4.08028e-23
-3.85731e-23
-3.54167e-23
-3.11229e-23
-2.56315e-23
-1.91285e-23
-1.21187e-23
-5.41598e-24
7.5193e-23
7.60718e-17
4.49102e-16
2.05853e-15
7.79312e-15
1.77364e-14
-6.95682e-14
-1.45479e-12
-1.48737e-11
-1.28012e-10
-1.04995e-09
-8.81444e-09
-8.06832e-08
-8.54745e-07
-1.10381e-05
-0.000222992
-0.0129682
-0.41074
-4.03514
-15.1616
-11.5398
-6.40213
-4.88776
-4.54021
-4.46769
-4.34528
-4.08357
-3.70201
-3.26709
-2.84018
-2.45832
-2.13513
-1.86863
-1.64974
-1.46739
-1.31194
-1.17637
-1.05584
-0.947321
-0.84877
-0.759102
-0.677294
-0.602753
-0.5348
-0.472998
-0.41683
-0.365924
-0.31987
-0.278353
-0.240994
-0.207501
-0.177578
-0.150932
-0.127302
-0.106425
-0.0880587
-0.0719622
-0.0579107
-0.0456902
-0.0351114
-0.0260277
-0.0183309
-0.0119579
-0.00672933
-0.00248358
0.000917507
0.0035951
0.0056548
0.0071887
0.00827743
0.00899172
0.00939368
0.00953788
0.00947225
0.00923888
0.00887454
0.00840593
0.00785336
0.00723876
0.00658235
0.00590218
0.00521395
0.00453168
0.00386918
0.00324155
0.00266513
0.00215488
0.00172051
0.00136383
0.00107914
0.000855959
0.000682345
0.000547188
0.000441303
0.000357565
0.000290662
0.000236635
0.000192624
0.000156465
0.00012661
0.000101837
8.12839e-05
6.42227e-05
5.01832e-05
3.85266e-05
2.92871e-05
2.13935e-05
1.56879e-05
1.03807e-05
7.11991e-06
3.50858e-06
0
0
0
0
0
0
0
0
0
0
0
0
0
0
0
0
0
0
0
0
0
0
0
0
0
0
0
0
0
0
0
0
0
0
0
0
0
0
0
0
0
0
0
0
0
0
0
0
0
0
0
0
0
0
0
0
0
0
0
0
0
0
0
0
0
0
0
0
0
0
0
0
0
0
0
0
0
0
0
0
0
0
0
0
0
0
0
0
0
0
0
0
0
0
0
0
0
0
0
0
0
0
0
0
0
0
0
0
0
0
0
0
0
0
0
0
0
0
0
0
0
0
0
0
)
;

boundaryField
{
    inandouthalf11
    {
        type            cyclic;
    }
    inandouthalf12
    {
        type            cyclic;
    }
    inandouthalf21
    {
        type            cyclic;
    }
    inandouthalf22
    {
        type            cyclic;
    }
    inandouthalf31
    {
        type            cyclic;
    }
    inandouthalf32
    {
        type            cyclic;
    }
    inandouthalf41
    {
        type            cyclic;
    }
    inandouthalf42
    {
        type            cyclic;
    }
    top
    {
        type            symmetryPlane;
    }
    walls
    {
        type            calculated;
        value           uniform -2.22899e-22;
    }
    frontAndBackPlanes
    {
        type            empty;
    }
}


// ************************************************************************* //
