/*--------------------------------*- C++ -*----------------------------------*\
| =========                 |                                                 |
| \\      /  F ield         | OpenFOAM: The Open Source CFD Toolbox           |
|  \\    /   O peration     | Version:  2.4.x                                 |
|   \\  /    A nd           | Web:      www.OpenFOAM.org                      |
|    \\/     M anipulation  |                                                 |
\*---------------------------------------------------------------------------*/
FoamFile
{
    version     2.0;
    format      ascii;
    class       volScalarField;
    location    "9.55";
    object      ddt0(alpha);
}
// * * * * * * * * * * * * * * * * * * * * * * * * * * * * * * * * * * * * * //

dimensions      [0 0 -1 0 0 0 0];

internalField   nonuniform List<scalar> 
360
(
1.38747e-05
2.07376e-05
1.8798e-05
1.77259e-05
1.80347e-05
1.83448e-05
1.84408e-05
1.85343e-05
1.87135e-05
1.89829e-05
1.93133e-05
1.96769e-05
2.00668e-05
2.04747e-05
2.09002e-05
2.13416e-05
2.17939e-05
2.22515e-05
2.27108e-05
2.31744e-05
2.36302e-05
2.40877e-05
2.45403e-05
2.49871e-05
2.54275e-05
2.58594e-05
2.62801e-05
2.66958e-05
2.70988e-05
2.74888e-05
2.78652e-05
2.82345e-05
2.85773e-05
2.89216e-05
2.92367e-05
2.95416e-05
2.98235e-05
3.00926e-05
3.03488e-05
3.05674e-05
3.07856e-05
3.09751e-05
3.1134e-05
3.12892e-05
3.14118e-05
3.1516e-05
3.15992e-05
3.16425e-05
3.16758e-05
3.1698e-05
3.16754e-05
3.16427e-05
3.15796e-05
3.15025e-05
3.13886e-05
3.1273e-05
3.11143e-05
3.09485e-05
3.07532e-05
3.05273e-05
3.03072e-05
3.00513e-05
2.97951e-05
2.95121e-05
2.92162e-05
2.89e-05
2.8575e-05
2.82351e-05
2.78789e-05
2.75047e-05
2.71368e-05
2.67644e-05
2.63673e-05
2.59808e-05
2.55836e-05
2.51899e-05
2.47788e-05
2.43634e-05
2.39451e-05
2.35252e-05
2.31002e-05
2.26786e-05
2.22602e-05
2.18442e-05
2.14313e-05
2.10189e-05
2.0608e-05
2.01948e-05
1.97803e-05
1.9366e-05
1.89526e-05
1.85413e-05
1.81343e-05
1.77318e-05
1.73338e-05
1.69396e-05
1.65485e-05
1.616e-05
1.57737e-05
1.53898e-05
1.50087e-05
1.46309e-05
1.42568e-05
1.38869e-05
1.35211e-05
1.31594e-05
1.28017e-05
1.24478e-05
1.20975e-05
1.17503e-05
1.14062e-05
1.10649e-05
1.07262e-05
1.03901e-05
1.00565e-05
9.72527e-06
9.39596e-06
9.06754e-06
8.738e-06
8.40389e-06
8.06006e-06
7.69962e-06
7.31449e-06
6.89682e-06
6.44117e-06
5.94729e-06
5.42231e-06
4.88141e-06
4.34622e-06
3.84129e-06
3.38926e-06
3.00529e-06
2.69082e-06
2.42687e-06
2.16162e-06
1.79311e-06
1.19899e-06
3.51284e-07
-5.78795e-07
-1.28728e-06
-1.66467e-06
-2.4137e-05
4.80765e-05
0.0459582
0.831596
0.26565
0.0968312
0.0525702
0.0332074
0.0164149
-0.00298491
-0.0258441
-0.0478688
-0.0661328
-0.0791933
-0.0868483
-0.0898289
-0.0891869
-0.0860256
-0.0812934
-0.0757053
-0.0697675
-0.0638052
-0.0580128
-0.0525005
-0.047321
-0.042499
-0.0380379
-0.0339324
-0.030169
-0.0267318
-0.0236017
-0.020759
-0.0181832
-0.0158545
-0.0137531
-0.0118601
-0.0101574
-0.00862796
-0.00725554
-0.00602447
-0.00491954
-0.00392717
-0.0030423
-0.00228154
-0.00167176
-0.00137439
-0.00132296
-0.00125814
-0.00113825
-0.00100292
-0.000857524
-0.000709629
-0.000564603
-0.000425719
-0.000295035
-0.000173815
-6.27677e-05
3.78013e-05
0.000127874
0.000207627
0.000278129
0.000340168
0.000394212
0.000441465
0.000483785
0.000522732
0.000557689
0.000584063
0.000593616
0.000578178
0.000534986
0.000469423
0.000392699
0.000316527
0.00024894
0.000193325
0.000149676
0.000116296
9.10517e-05
7.20042e-05
5.75716e-05
4.65472e-05
3.80368e-05
3.13794e-05
2.60933e-05
2.18193e-05
1.82733e-05
1.5392e-05
1.27858e-05
1.08286e-05
8.81931e-06
7.49956e-06
5.91587e-06
5.14871e-06
3.7921e-06
4.39308e-06
3.41022e-06
2.25315e-06
1.55769e-06
1.04003e-06
7.00408e-07
4.68458e-07
3.13833e-07
2.09357e-07
1.37718e-07
9.44094e-08
5.87068e-08
4.65779e-08
1.99691e-08
2.81739e-08
-2.13929e-36
-1.92363e-46
-4.87077e-51
-8.97361e-53
-4.53644e-53
-2.6375e-53
-1.46029e-53
-6.97351e-54
-3.69208e-54
-1.89585e-54
-9.90815e-55
-4.83743e-55
-2.4107e-55
-1.18268e-55
-5.70794e-56
-2.70864e-56
-1.26315e-56
-5.78554e-57
-2.60123e-57
-1.14708e-57
-4.95831e-58
-2.09996e-58
-8.70805e-59
-3.53297e-59
-1.40128e-59
-5.42897e-60
-2.05271e-60
-7.56746e-61
-2.71736e-61
-9.49409e-62
-3.22382e-62
-1.06259e-62
-3.3952e-63
-1.05014e-63
-3.13939e-64
-9.05586e-65
-2.51601e-65
-6.71936e-66
-1.72119e-66
-4.21864e-67
-9.86737e-68
-2.19597e-68
-4.63455e-69
-9.24092e-70
-1.7334e-70
-3.04396e-71
-4.97593e-72
-7.52185e-73
-1.04319e-73
-1.31479e-74
-1.48832e-75
-1.49088e-76
-1.29626e-77
-9.52858e-79
-5.70213e-80
-2.61852e-81
-8.30103e-83
-1.4182e-84
-2.46703e-87
-4.19775e-93
-2.97042e-95
-1.04101e-97
-3.99299e-108
-7.75592e-119
-1.11779e-129
-1.16813e-140
-1.0581e-151
-7.37279e-163
-4.40499e-174
-1.37763e-184
-6.2125e-195
-4.02194e-203
-1.81043e-213
-1.38325e-221
-7.3485e-232
-4.76113e-240
-3.10138e-250
-1.64058e-258
-1.98718e-268
-5.78229e-277
-1.31751e-286
-2.10537e-295
-6.51875e-305
-7.90728e-314
1.23368e-320
0
0
0
0
0
0
0
0
0
0
0
0
0
0
0
0
0
0
0
0
0
0
0
0
)
;

boundaryField
{
    inandouthalf11
    {
        type            cyclic;
    }
    inandouthalf12
    {
        type            cyclic;
    }
    inandouthalf21
    {
        type            cyclic;
    }
    inandouthalf22
    {
        type            cyclic;
    }
    inandouthalf31
    {
        type            cyclic;
    }
    inandouthalf32
    {
        type            cyclic;
    }
    inandouthalf41
    {
        type            cyclic;
    }
    inandouthalf42
    {
        type            cyclic;
    }
    top
    {
        type            symmetryPlane;
    }
    walls
    {
        type            calculated;
        value           uniform 1.38747e-05;
    }
    frontAndBackPlanes
    {
        type            empty;
    }
}


// ************************************************************************* //
