/*--------------------------------*- C++ -*----------------------------------*\
| =========                 |                                                 |
| \\      /  F ield         | OpenFOAM: The Open Source CFD Toolbox           |
|  \\    /   O peration     | Version:  2.4.x                                 |
|   \\  /    A nd           | Web:      www.OpenFOAM.org                      |
|    \\/     M anipulation  |                                                 |
\*---------------------------------------------------------------------------*/
FoamFile
{
    version     2.0;
    format      ascii;
    class       volScalarField;
    location    "9.55";
    object      epsilon_0;
}
// * * * * * * * * * * * * * * * * * * * * * * * * * * * * * * * * * * * * * //

dimensions      [0 2 -3 0 0 0 0];

internalField   nonuniform List<scalar> 
360
(
1.60309e-27
1e-20
1e-20
1e-20
1e-20
1e-20
1e-20
1e-20
1e-20
1e-20
1e-20
1e-20
1e-20
1e-20
1e-20
1e-20
1e-20
1e-20
1e-20
1e-20
1e-20
1e-20
1e-20
1e-20
1e-20
1e-20
1e-20
1e-20
1e-20
1e-20
1e-20
1e-20
1e-20
1e-20
1e-20
1e-20
1e-20
1e-20
1e-20
1e-20
1e-20
1e-20
1e-20
1e-20
1e-20
1e-20
1e-20
1e-20
1e-20
1e-20
1e-20
1e-20
1e-20
1e-20
1e-20
1e-20
1e-20
1e-20
1e-20
1e-20
1e-20
1e-20
1e-20
1e-20
1e-20
1e-20
1e-20
1e-20
1e-20
1e-20
1e-20
1e-20
1e-20
1e-20
1e-20
1e-20
1e-20
1e-20
1e-20
1e-20
1e-20
1e-20
1e-20
1e-20
1e-20
1e-20
1e-20
1e-20
1e-20
1e-20
1e-20
1e-20
1e-20
1e-20
1e-20
1e-20
1e-20
1e-20
1e-20
1e-20
1e-20
1e-20
1e-20
1e-20
1e-20
1e-20
1e-20
1e-20
1e-20
1e-20
1e-20
1e-20
1e-20
1e-20
1e-20
1e-20
1e-20
1e-20
1e-20
1e-20
1e-20
1e-20
1e-20
1e-20
1e-20
1e-20
1.59213e-20
8.71345e-20
5.5193e-19
3.49651e-18
2.20212e-17
1.38631e-16
8.80719e-16
5.73029e-15
3.90227e-14
2.86704e-13
2.3632e-12
2.28466e-11
2.70242e-10
4.04126e-09
7.80071e-08
1.96066e-06
6.36872e-05
0.00228944
0.0442196
0.166382
0.211307
0.221701
0.220827
0.215831
0.209226
0.201984
0.194506
0.187027
0.179691
0.172582
0.165751
0.159223
0.153006
0.1471
0.141494
0.136174
0.131122
0.12632
0.12175
0.117392
0.11323
0.109248
0.10543
0.101763
0.0982347
0.0948342
0.0915513
0.0883773
0.085304
0.0823242
0.0794317
0.0766206
0.0738859
0.0712229
0.0686276
0.0660964
0.063626
0.0612137
0.0588569
0.0565534
0.0543013
0.0520989
0.0499447
0.0478376
0.0457764
0.0437602
0.0417884
0.0398603
0.0379756
0.036134
0.0343353
0.0325796
0.0308671
0.0291979
0.0275726
0.0259756
0.0243934
0.0228292
0.0212862
0.0197684
0.0182796
0.0168246
0.0154082
0.0140357
0.0127128
0.0114454
0.0102396
0.0091014
0.00803669
0.00705067
0.00614769
0.00533084
0.00460156
0.00395939
0.00340181
0.00292428
0.00252055
0.00218312
0.00190379
0.00167425
0.00148658
0.00133358
0.00120893
0.00110728
0.00102416
0.000955902
0.000899523
0.000852607
0.000813192
0.000779683
0.000750776
0.000725398
0.000702658
0.000681815
0.000662249
0.000643437
0.00062494
0.000606389
0.000587477
0.000567952
0.000547612
0.0005263
0.000503903
0.000480348
0.000455605
0.000429682
0.000402626
0.000374525
0.000345508
0.000315743
0.00028544
0.00025485
0.000224265
0.000194016
0.000164473
0.000136038
0.000109139
8.42236e-05
6.17442e-05
4.21439e-05
2.58405e-05
1.32103e-05
4.55117e-06
5.89704e-07
1.60477e-08
1.82737e-10
1.90298e-12
1.9042e-14
1.83562e-16
1.71625e-18
2.36706e-20
1e-20
1e-20
1e-20
1e-20
1e-20
1e-20
1e-20
1e-20
1e-20
1e-20
1e-20
1e-20
1e-20
1e-20
1e-20
1e-20
1e-20
1e-20
1e-20
1e-20
1e-20
1e-20
1e-20
1e-20
1e-20
1e-20
1e-20
1e-20
1e-20
1e-20
1e-20
1e-20
1e-20
1e-20
1e-20
1e-20
1e-20
1e-20
1e-20
1e-20
1e-20
1e-20
1e-20
1e-20
1e-20
1e-20
1e-20
1e-20
1e-20
1e-20
1e-20
1e-20
1e-20
1e-20
1e-20
1e-20
1e-20
1e-20
1e-20
1e-20
1e-20
1e-20
1e-20
1e-20
1e-20
1e-20
1e-20
1e-20
1e-20
1e-20
1e-20
1e-20
1e-20
1e-20
1e-20
1e-20
1e-20
1e-20
1e-20
1e-20
1e-20
1e-20
1e-20
)
;

boundaryField
{
    inandouthalf11
    {
        type            cyclic;
    }
    inandouthalf12
    {
        type            cyclic;
    }
    inandouthalf21
    {
        type            cyclic;
    }
    inandouthalf22
    {
        type            cyclic;
    }
    inandouthalf31
    {
        type            cyclic;
    }
    inandouthalf32
    {
        type            cyclic;
    }
    inandouthalf41
    {
        type            cyclic;
    }
    inandouthalf42
    {
        type            cyclic;
    }
    top
    {
        type            symmetryPlane;
    }
    walls
    {
        type            zeroGradient;
    }
    frontAndBackPlanes
    {
        type            empty;
    }
}


// ************************************************************************* //
