/*--------------------------------*- C++ -*----------------------------------*\
| =========                 |                                                 |
| \\      /  F ield         | OpenFOAM: The Open Source CFD Toolbox           |
|  \\    /   O peration     | Version:  2.4.x                                 |
|   \\  /    A nd           | Web:      www.OpenFOAM.org                      |
|    \\/     M anipulation  |                                                 |
\*---------------------------------------------------------------------------*/
FoamFile
{
    version     2.0;
    format      ascii;
    class       volScalarField;
    location    "9.55";
    object      epsilon;
}
// * * * * * * * * * * * * * * * * * * * * * * * * * * * * * * * * * * * * * //

dimensions      [0 2 -3 0 0 0 0];

internalField   nonuniform List<scalar> 
360
(
1e-20
1e-20
1e-20
1e-20
1e-20
1e-20
1e-20
1e-20
1e-20
1e-20
1e-20
1e-20
1e-20
1e-20
1e-20
1e-20
1e-20
1e-20
1e-20
1e-20
1e-20
1e-20
1e-20
1e-20
1e-20
1e-20
1e-20
1e-20
1e-20
1e-20
1e-20
1e-20
1e-20
1e-20
1e-20
1e-20
1e-20
1e-20
1e-20
1e-20
1e-20
1e-20
1e-20
1e-20
1e-20
1e-20
1e-20
1e-20
1e-20
1e-20
1e-20
1e-20
1e-20
1e-20
1e-20
1e-20
1e-20
1e-20
1e-20
1e-20
1e-20
1e-20
1e-20
1e-20
1e-20
1e-20
1e-20
1e-20
1e-20
1e-20
1e-20
1e-20
1e-20
1e-20
1e-20
1e-20
1e-20
1e-20
1e-20
1e-20
1e-20
1e-20
1e-20
1e-20
1e-20
1e-20
1e-20
1e-20
1e-20
1e-20
1e-20
1e-20
1e-20
1e-20
1e-20
1e-20
1e-20
1e-20
1e-20
1e-20
1e-20
1e-20
1e-20
1e-20
1e-20
1e-20
1e-20
1e-20
1e-20
1e-20
1e-20
1e-20
1e-20
1e-20
1e-20
1e-20
1e-20
1e-20
1e-20
1e-20
1e-20
1e-20
1e-20
1e-20
1e-20
1e-20
1.59322e-20
8.71966e-20
5.52201e-19
3.49733e-18
2.20203e-17
1.38583e-16
8.80133e-16
5.72451e-15
3.89693e-14
2.86207e-13
2.35828e-12
2.27917e-11
2.69518e-10
4.02952e-09
7.7764e-08
1.95402e-06
6.34493e-05
0.00228084
0.0441008
0.166257
0.211257
0.221665
0.220788
0.215785
0.209174
0.201927
0.194447
0.186969
0.179633
0.172527
0.165698
0.159173
0.152959
0.147055
0.141452
0.136134
0.131084
0.126284
0.121716
0.11736
0.1132
0.109219
0.105403
0.101737
0.0982104
0.0948112
0.0915298
0.088357
0.085285
0.0823065
0.0794152
0.0766053
0.0738717
0.0712098
0.0686155
0.0660853
0.063616
0.0612046
0.0588487
0.0565461
0.0542948
0.0520933
0.0499399
0.0478335
0.0457731
0.0437576
0.0417864
0.039859
0.0379749
0.0361338
0.0343357
0.0325806
0.0308685
0.0291998
0.0275749
0.0259783
0.0243965
0.0228326
0.02129
0.0197723
0.0182838
0.016829
0.0154127
0.0140403
0.0127174
0.01145
0.0102441
0.00910582
0.00804091
0.00705465
0.00615138
0.00533421
0.00460458
0.00396204
0.00340409
0.00292621
0.00252216
0.00218443
0.00190484
0.00167508
0.00148723
0.00133407
0.0012093
0.00110756
0.00102435
0.000956031
0.000899603
0.000852647
0.000813201
0.000779668
0.000750743
0.00072535
0.000702599
0.00068175
0.000662179
0.000643364
0.000624865
0.000606315
0.000587405
0.000567883
0.000547547
0.00052624
0.000503848
0.000480299
0.000455561
0.000429644
0.000402595
0.0003745
0.000345489
0.00031573
0.000285433
0.000254849
0.000224268
0.000194024
0.000164484
0.000136051
0.000109154
8.42397e-05
6.176e-05
4.21585e-05
2.5853e-05
1.32199e-05
4.55712e-06
5.91209e-07
1.61111e-08
1.83496e-10
1.91091e-12
1.91213e-14
1.84325e-16
1.72332e-18
2.37331e-20
1e-20
1e-20
1e-20
1e-20
1e-20
1e-20
1e-20
1e-20
1e-20
1e-20
1e-20
1e-20
1e-20
1e-20
1e-20
1e-20
1e-20
1e-20
1e-20
1e-20
1e-20
1e-20
1e-20
1e-20
1e-20
1e-20
1e-20
1e-20
1e-20
1e-20
1e-20
1e-20
1e-20
1e-20
1e-20
1e-20
1e-20
1e-20
1e-20
1e-20
1e-20
1e-20
1e-20
1e-20
1e-20
1e-20
1e-20
1e-20
1e-20
1e-20
1e-20
1e-20
1e-20
1e-20
1e-20
1e-20
1e-20
1e-20
1e-20
1e-20
1e-20
1e-20
1e-20
1e-20
1e-20
1e-20
1e-20
1e-20
1e-20
1e-20
1e-20
1e-20
1e-20
1e-20
1e-20
1e-20
1e-20
1e-20
1e-20
1e-20
1e-20
1e-20
1e-20
)
;

boundaryField
{
    inandouthalf11
    {
        type            cyclic;
    }
    inandouthalf12
    {
        type            cyclic;
    }
    inandouthalf21
    {
        type            cyclic;
    }
    inandouthalf22
    {
        type            cyclic;
    }
    inandouthalf31
    {
        type            cyclic;
    }
    inandouthalf32
    {
        type            cyclic;
    }
    inandouthalf41
    {
        type            cyclic;
    }
    inandouthalf42
    {
        type            cyclic;
    }
    top
    {
        type            symmetryPlane;
    }
    walls
    {
        type            zeroGradient;
    }
    frontAndBackPlanes
    {
        type            empty;
    }
}


// ************************************************************************* //
