/*--------------------------------*- C++ -*----------------------------------*\
| =========                 |                                                 |
| \\      /  F ield         | OpenFOAM: The Open Source CFD Toolbox           |
|  \\    /   O peration     | Version:  2.4.x                                 |
|   \\  /    A nd           | Web:      www.OpenFOAM.org                      |
|    \\/     M anipulation  |                                                 |
\*---------------------------------------------------------------------------*/
FoamFile
{
    version     2.0;
    format      ascii;
    class       volVectorField;
    location    "9.55";
    object      gradPf;
}
// * * * * * * * * * * * * * * * * * * * * * * * * * * * * * * * * * * * * * //

dimensions      [0 1 -2 0 0 0 0];

internalField   nonuniform List<vector> 
360
(
(0 71.375 0)
(0 80.0468 0)
(0 0.258122 0)
(0 -12.4831 0)
(-3.34418e-14 -5.21179 0)
(-3.34426e-14 -2.79873 0)
(-3.34435e-14 -3.56106 0)
(0 -4.05398 0)
(-3.34459e-14 -4.10647 0)
(0 -4.12265 0)
(-3.34484e-14 -4.11412 0)
(0 -4.10499 0)
(-3.34509e-14 -4.11387 0)
(0 -4.12344 0)
(0 -4.144 0)
(0 -4.16449 0)
(0 -4.1743 0)
(-3.34574e-14 -4.17971 0)
(0 -4.20181 0)
(0 -4.208 0)
(0 -4.21485 0)
(-3.34629e-14 -4.23709 0)
(0 -4.24396 0)
(0 -4.25618 0)
(0 -4.26865 0)
(-3.34686e-14 -4.27174 0)
(0 -4.28723 0)
(0 -4.3037 0)
(0 -4.30488 0)
(0 -4.31131 0)
(0 -4.33332 0)
(0 -4.32709 0)
(0 -4.34282 0)
(0 -4.35911 0)
(0 -4.35443 0)
(1.6742e-14 -4.36373 0)
(0 -4.36971 0)
(0 -4.39654 0)
(0 -4.3778 0)
(0 -4.38984 0)
(0 -4.41999 0)
(0 -4.39255 0)
(1.67479e-14 -4.41359 0)
(0 -4.42853 0)
(0 -4.42111 0)
(0 -4.44461 0)
(0 -4.42815 0)
(0 -4.42608 0)
(0 -4.46956 0)
(0 -4.45431 0)
(3.35106e-14 -4.44707 0)
(0 -4.46659 0)
(0 -4.47181 0)
(0 -4.46581 0)
(0 -4.48065 0)
(0 -4.48349 0)
(0 -4.48198 0)
(0 -4.50037 0)
(0 -4.47702 0)
(0 -4.50047 0)
(0 -4.50713 0)
(0 -4.50255 0)
(0 -4.51653 0)
(0 -4.51204 0)
(0 -4.51388 0)
(0 -4.51902 0)
(0 -4.53158 0)
(0 -4.53046 0)
(0 -4.51695 0)
(0 -4.53107 0)
(0 -4.55725 0)
(0 -4.53439 0)
(0 -4.53577 0)
(0 -4.55349 0)
(0 -4.55803 0)
(0 -4.55769 0)
(0 -4.54955 0)
(0 -4.55969 0)
(0 -4.56659 0)
(0 -4.56394 0)
(0 -4.56524 0)
(0 -4.57376 0)
(0 -4.57623 0)
(0 -4.57887 0)
(0 -4.58174 0)
(0 -4.58503 0)
(0 -4.58699 0)
(0 -4.58649 0)
(0 -4.58909 0)
(0 -4.59184 0)
(0 -4.59316 0)
(0 -4.59602 0)
(0 -4.59963 0)
(0 -4.60197 0)
(0 -4.60401 0)
(0 -4.60577 0)
(0 -4.60692 0)
(0 -4.60767 0)
(0 -4.60847 0)
(0 -4.60922 0)
(0 -4.6098 0)
(0 -4.61039 0)
(0 -4.61079 0)
(0 -4.61072 0)
(0 -4.61018 0)
(0 -4.60912 0)
(0 -4.60748 0)
(0 -4.60526 0)
(0 -4.6024 0)
(0 -4.59884 0)
(0 -4.59452 0)
(0 -4.58938 0)
(0 -4.58338 0)
(0 -4.5765 0)
(0 -4.56874 0)
(0 -4.56013 0)
(0 -4.55071 0)
(0 -4.54054 0)
(0 -4.52971 0)
(0 -4.51824 0)
(0 -4.50609 0)
(0 -4.49309 0)
(0 -4.47897 0)
(0 -4.46353 0)
(0 -4.44689 0)
(0 -4.42984 0)
(0 -4.41368 0)
(0 -4.39934 0)
(0 -4.38574 0)
(0 -4.36906 0)
(0 -4.34607 0)
(0 -4.32261 0)
(0 -4.31637 0)
(0 -4.33581 0)
(0 -4.35374 0)
(0 -4.33621 0)
(0 -4.31345 0)
(0 -4.38629 0)
(0 -4.59808 0)
(0 -4.72482 0)
(0 -4.74455 0)
(0 -18.1612 0)
(0 -19.7588 0)
(0 -8.38211 0)
(0 -6.13389 0)
(0 0 0)
(0 0 0)
(0 0 0)
(0 0 0)
(0 0 0)
(0 0 0)
(0 0 0)
(0 0 0)
(0 0 0)
(0 0 0)
(0 0 0)
(0 0 0)
(0 0 0)
(0 0 0)
(0 0 0)
(0 0 0)
(0 0 0)
(0 0 0)
(0 0 0)
(0 0 0)
(0 0 0)
(0 0 0)
(0 0 0)
(0 0 0)
(0 0 0)
(0 0 0)
(0 0 0)
(0 0 0)
(0 0 0)
(0 0 0)
(0 0 0)
(0 0 0)
(0 0 0)
(0 0 0)
(0 0 0)
(0 0 0)
(0 0 0)
(0 0 0)
(0 0 0)
(0 0 0)
(0 0 0)
(0 0 0)
(0 0 0)
(0 0 0)
(0 0 0)
(0 0 0)
(0 0 0)
(0 0 0)
(0 0 0)
(0 0 0)
(0 0 0)
(0 0 0)
(0 0 0)
(0 0 0)
(0 0 0)
(0 0 0)
(0 0 0)
(0 0 0)
(0 0 0)
(0 0 0)
(0 0 0)
(0 0 0)
(0 0 0)
(0 0 0)
(0 0 0)
(0 0 0)
(0 0 0)
(0 0 0)
(0 0 0)
(0 0 0)
(0 0 0)
(0 0 0)
(0 0 0)
(0 0 0)
(0 0 0)
(0 0 0)
(0 0 0)
(0 0 0)
(0 0 0)
(0 0 0)
(0 0 0)
(0 0 0)
(0 0 0)
(0 0 0)
(0 0 0)
(0 0 0)
(0 0 0)
(0 0 0)
(0 0 0)
(0 0 0)
(0 0 0)
(0 0 0)
(0 0 0)
(0 0 0)
(0 0 0)
(0 0 0)
(0 0 0)
(0 0 0)
(0 0 0)
(0 0 0)
(0 0 0)
(0 0 0)
(0 0 0)
(0 0 0)
(0 0 0)
(0 0 0)
(0 0 0)
(0 0 0)
(0 0 0)
(0 0 0)
(0 0 0)
(0 0 0)
(0 0 0)
(0 0 0)
(0 0 0)
(0 0 0)
(0 0 0)
(0 0 0)
(0 0 0)
(0 0 0)
(0 0 0)
(0 0 0)
(0 0 0)
(0 0 0)
(0 0 0)
(0 0 0)
(0 0 0)
(0 0 0)
(0 0 0)
(0 0 0)
(0 0 0)
(0 0 0)
(0 0 0)
(0 0 0)
(0 0 0)
(0 0 0)
(0 0 0)
(0 0 0)
(0 0 0)
(0 0 0)
(0 0 0)
(0 0 0)
(0 0 0)
(0 0 0)
(0 0 0)
(0 0 0)
(0 0 0)
(0 0 0)
(0 0 0)
(0 0 0)
(0 0 0)
(0 0 0)
(0 0 0)
(0 0 0)
(0 0 0)
(0 0 0)
(0 0 0)
(0 0 0)
(0 0 0)
(0 0 0)
(0 0 0)
(0 0 0)
(0 0 0)
(0 0 0)
(0 0 0)
(0 0 0)
(0 0 0)
(0 0 0)
(0 0 0)
(0 0 0)
(0 0 0)
(0 0 0)
(0 0 0)
(0 0 0)
(0 0 0)
(0 0 0)
(0 0 0)
(0 0 0)
(0 0 0)
(0 0 0)
(0 0 0)
(0 0 0)
(0 0 0)
(0 0 0)
(0 0 0)
(0 0 0)
(0 0 0)
(0 0 0)
(0 0 0)
(0 0 0)
(0 0 0)
(0 0 0)
(0 0 0)
(0 0 0)
(0 0 0)
(0 0 0)
(0 0 0)
(0 0 0)
(0 0 0)
(0 0 0)
(0 0 0)
(0 0 0)
(0 0 0)
(0 0 0)
(0 0 0)
(0 0 0)
(0 0 0)
(0 0 0)
(0 0 0)
(0 0 0)
(0 0 0)
(0 0 0)
(0 0 0)
(0 0 0)
(0 0 0)
)
;

boundaryField
{
    inandouthalf11
    {
        type            cyclic;
    }
    inandouthalf12
    {
        type            cyclic;
    }
    inandouthalf21
    {
        type            cyclic;
    }
    inandouthalf22
    {
        type            cyclic;
    }
    inandouthalf31
    {
        type            cyclic;
    }
    inandouthalf32
    {
        type            cyclic;
    }
    inandouthalf41
    {
        type            cyclic;
    }
    inandouthalf42
    {
        type            cyclic;
    }
    top
    {
        type            symmetryPlane;
    }
    walls
    {
        type            calculated;
        value           uniform (0 0 0);
    }
    frontAndBackPlanes
    {
        type            empty;
    }
}


// ************************************************************************* //
