/*--------------------------------*- C++ -*----------------------------------*\
| =========                 |                                                 |
| \\      /  F ield         | OpenFOAM: The Open Source CFD Toolbox           |
|  \\    /   O peration     | Version:  2.4.x                                 |
|   \\  /    A nd           | Web:      www.OpenFOAM.org                      |
|    \\/     M anipulation  |                                                 |
\*---------------------------------------------------------------------------*/
FoamFile
{
    version     2.0;
    format      ascii;
    class       volScalarField;
    location    "9.55";
    object      p;
}
// * * * * * * * * * * * * * * * * * * * * * * * * * * * * * * * * * * * * * //

dimensions      [1 -1 -2 0 0 0 0];

internalField   nonuniform List<scalar> 
360
(
4906.11
4901.2
4896.3
4891.39
4886.49
4881.58
4876.67
4871.77
4866.86
4861.96
4857.05
4852.15
4847.24
4842.33
4837.43
4832.52
4827.61
4822.71
4817.8
4812.89
4807.99
4803.08
4798.17
4793.26
4788.36
4783.45
4778.54
4773.63
4768.73
4763.82
4758.91
4754
4749.09
4744.18
4739.28
4734.37
4729.46
4724.55
4719.64
4714.73
4709.82
4704.91
4700
4695.09
4690.18
4685.27
4680.36
4675.45
4670.54
4665.63
4660.71
4655.8
4650.89
4645.98
4641.07
4636.16
4631.24
4626.33
4621.42
4616.51
4611.59
4606.68
4601.77
4596.86
4591.94
4587.03
4582.11
4577.2
4572.29
4567.37
4562.46
4557.55
4552.63
4547.72
4542.8
4537.89
4532.97
4528.06
4523.14
4518.23
4513.31
4508.4
4503.48
4498.56
4493.65
4488.73
4483.82
4478.9
4473.99
4469.07
4464.15
4459.24
4454.32
4449.4
4444.49
4439.57
4434.65
4429.74
4424.82
4419.9
4414.99
4410.07
4405.15
4400.23
4395.32
4390.4
4385.48
4380.56
4375.65
4370.73
4365.81
4360.89
4355.98
4351.06
4346.14
4341.22
4336.31
4331.39
4326.47
4321.55
4316.63
4311.72
4306.8
4301.88
4296.96
4292.04
4287.13
4282.21
4277.29
4272.37
4267.45
4262.54
4257.62
4252.7
4247.78
4242.86
4237.95
4233.03
4228.11
4223.19
4218.27
4213.36
4208.44
4203.43
4196.25
4186.18
4178.11
4170.98
4164.29
4157.84
4151.59
4145.44
4139.37
4133.39
4127.51
4121.7
4115.98
4110.33
4104.74
4099.23
4093.77
4088.36
4083.01
4077.71
4072.45
4067.23
4062.05
4056.91
4051.8
4046.71
4041.66
4036.63
4031.63
4026.65
4021.69
4016.75
4011.82
4006.92
4002.03
3997.15
3992.29
3987.44
3982.6
3977.77
3972.96
3968.15
3963.35
3958.56
3953.78
3949
3944.23
3939.47
3934.71
3929.96
3925.21
3920.47
3915.73
3910.99
3906.25
3901.52
3896.79
3892.01
3887.14
3882.16
3877.09
3871.91
3866.63
3861.24
3855.74
3850.12
3844.38
3838.52
3832.53
3826.42
3820.17
3813.78
3807.25
3800.58
3793.75
3786.77
3779.64
3772.34
3764.88
3757.25
3749.46
3741.49
3733.36
3725.04
3716.56
3707.89
3699.04
3690.01
3680.79
3671.38
3661.78
3651.98
3641.98
3631.78
3621.37
3610.75
3599.91
3588.85
3577.57
3566.06
3554.32
3542.34
3530.12
3517.66
3504.94
3491.96
3478.72
3465.22
3451.44
3437.38
3423.04
3408.41
3393.48
3378.25
3362.71
3346.86
3330.68
3314.18
3297.34
3280.15
3262.62
3244.73
3226.47
3207.83
3188.81
3169.4
3149.58
3129.35
3108.72
3087.66
3066.18
3044.26
3021.9
2999.08
2975.8
2952.05
2927.81
2903.09
2877.86
2852.12
2825.86
2799.06
2771.72
2743.82
2715.36
2686.32
2656.7
2626.47
2595.62
2564.15
2532.05
2499.29
2465.86
2431.76
2396.96
2361.46
2325.24
2288.28
2250.57
2212.1
2172.85
2132.8
2091.93
2050.24
2007.7
1964.3
1922.76
1883.52
1844.28
1805.04
1765.8
1726.56
1687.32
1648.08
1608.84
1569.6
1530.36
1491.12
1451.88
1412.64
1373.4
1334.16
1294.92
1255.68
1216.44
1177.2
1137.96
1098.72
1059.48
1020.24
981
941.76
902.52
863.28
824.04
784.8
745.56
706.32
667.08
627.84
588.6
549.36
510.12
470.88
431.64
392.4
353.16
313.92
274.68
235.44
196.2
156.96
117.72
78.48
39.24
1.38102e-07
)
;

boundaryField
{
    inandouthalf11
    {
        type            cyclic;
    }
    inandouthalf12
    {
        type            cyclic;
    }
    inandouthalf21
    {
        type            cyclic;
    }
    inandouthalf22
    {
        type            cyclic;
    }
    inandouthalf31
    {
        type            cyclic;
    }
    inandouthalf32
    {
        type            cyclic;
    }
    inandouthalf41
    {
        type            cyclic;
    }
    inandouthalf42
    {
        type            cyclic;
    }
    top
    {
        type            symmetryPlane;
    }
    walls
    {
        type            slip;
    }
    frontAndBackPlanes
    {
        type            empty;
    }
}


// ************************************************************************* //
