/*--------------------------------*- C++ -*----------------------------------*\
| =========                 |                                                 |
| \\      /  F ield         | OpenFOAM: The Open Source CFD Toolbox           |
|  \\    /   O peration     | Version:  2.4.x                                 |
|   \\  /    A nd           | Web:      www.OpenFOAM.org                      |
|    \\/     M anipulation  |                                                 |
\*---------------------------------------------------------------------------*/
FoamFile
{
    version     2.0;
    format      ascii;
    class       surfaceScalarField;
    location    "9.55";
    object      phia_0;
}
// * * * * * * * * * * * * * * * * * * * * * * * * * * * * * * * * * * * * * //

dimensions      [0 3 -1 0 0 0 0];

internalField   nonuniform List<scalar> 
359
(
-4.53112e-14
-1.13126e-13
-1.74597e-13
-2.32541e-13
-2.91504e-13
-3.51481e-13
-4.11777e-13
-4.72384e-13
-5.33581e-13
-5.95663e-13
-6.5883e-13
-7.23191e-13
-7.88831e-13
-8.5581e-13
-9.24186e-13
-9.94011e-13
-1.06532e-12
-1.13813e-12
-1.21246e-12
-1.2883e-12
-1.36564e-12
-1.44449e-12
-1.52482e-12
-1.60662e-12
-1.68987e-12
-1.77454e-12
-1.8606e-12
-1.94802e-12
-2.03678e-12
-2.12682e-12
-2.21809e-12
-2.31059e-12
-2.40422e-12
-2.49899e-12
-2.5948e-12
-2.69161e-12
-2.78937e-12
-2.88801e-12
-2.9875e-12
-3.08772e-12
-3.18867e-12
-3.29025e-12
-3.39237e-12
-3.49501e-12
-3.59806e-12
-3.70146e-12
-3.80515e-12
-3.909e-12
-4.01298e-12
-4.11704e-12
-4.22104e-12
-4.32494e-12
-4.42866e-12
-4.53214e-12
-4.63527e-12
-4.73803e-12
-4.84029e-12
-4.94202e-12
-5.04313e-12
-5.14352e-12
-5.2432e-12
-5.34206e-12
-5.4401e-12
-5.53723e-12
-5.63341e-12
-5.72857e-12
-5.82268e-12
-5.9157e-12
-6.00757e-12
-6.09823e-12
-6.1877e-12
-6.27597e-12
-6.36296e-12
-6.44871e-12
-6.53317e-12
-6.61636e-12
-6.69822e-12
-6.77874e-12
-6.85791e-12
-6.93572e-12
-7.01216e-12
-7.08724e-12
-7.16097e-12
-7.23335e-12
-7.30441e-12
-7.37413e-12
-7.44253e-12
-7.50959e-12
-7.57532e-12
-7.63972e-12
-7.70278e-12
-7.76452e-12
-7.82495e-12
-7.88409e-12
-7.94194e-12
-7.99853e-12
-8.05387e-12
-8.10795e-12
-8.1608e-12
-8.21242e-12
-8.26282e-12
-8.31201e-12
-8.36001e-12
-8.40682e-12
-8.45247e-12
-8.49697e-12
-8.54032e-12
-8.58256e-12
-8.62368e-12
-8.66371e-12
-8.70265e-12
-8.7405e-12
-8.7773e-12
-8.81303e-12
-8.84772e-12
-8.88137e-12
-8.91399e-12
-8.94558e-12
-8.97615e-12
-9.00568e-12
-9.03415e-12
-9.0615e-12
-9.08765e-12
-9.1125e-12
-9.13592e-12
-9.1578e-12
-9.17804e-12
-9.19659e-12
-9.21348e-12
-9.22881e-12
-9.24276e-12
-9.25556e-12
-9.26748e-12
-9.2787e-12
-9.28925e-12
-9.29877e-12
-9.30654e-12
-9.31183e-12
-9.31456e-12
-9.31547e-12
-9.31562e-12
-9.31425e-12
-9.47573e-12
-2.24055e-10
-4.76446e-09
-7.49997e-09
-9.17409e-09
-1.04967e-08
-1.17299e-08
-1.29181e-08
-1.40836e-08
-1.51853e-08
-1.61257e-08
-1.68708e-08
-1.7417e-08
-1.77797e-08
-1.79818e-08
-1.80476e-08
-1.79991e-08
-1.78537e-08
-1.76243e-08
-1.732e-08
-1.69473e-08
-1.65107e-08
-1.60142e-08
-1.54614e-08
-1.48559e-08
-1.42016e-08
-1.35024e-08
-1.27624e-08
-1.1986e-08
-1.11776e-08
-1.03418e-08
-9.48337e-09
-8.60727e-09
-7.71877e-09
-6.82349e-09
-5.92761e-09
-5.03798e-09
-4.16239e-09
-3.31e-09
-2.49191e-09
-1.72158e-09
-1.01342e-09
-3.75805e-10
1.96484e-10
7.83517e-10
1.47956e-09
2.29115e-09
3.1988e-09
4.19537e-09
5.27217e-09
6.42133e-09
7.63571e-09
8.90851e-09
1.0233e-08
1.16026e-08
1.30104e-08
1.44494e-08
1.59122e-08
1.73911e-08
1.89079e-08
2.04538e-08
2.20175e-08
2.35835e-08
2.51295e-08
2.66229e-08
2.80189e-08
2.92622e-08
3.02957e-08
3.10743e-08
3.15783e-08
3.18182e-08
3.18306e-08
3.16661e-08
3.13774e-08
3.1012e-08
3.06081e-08
3.01947e-08
2.97923e-08
2.94146e-08
2.90699e-08
2.87628e-08
2.84941e-08
2.82627e-08
2.80651e-08
2.78971e-08
2.77518e-08
2.7627e-08
2.75051e-08
2.74042e-08
2.72634e-08
2.71722e-08
2.69309e-08
2.68893e-08
2.60573e-08
1.7707e-08
1.80535e-08
1.75961e-08
1.67685e-08
1.61891e-08
1.5664e-08
1.5262e-08
1.49709e-08
1.47712e-08
1.48658e-08
1.47936e-08
1.56402e-08
1.47417e-08
1.97617e-08
-7.5537e-08
-1.52246e-07
-1.58396e-07
-1.58283e-07
-1.58296e-07
-1.58298e-07
-1.58301e-07
-1.58302e-07
-1.58301e-07
-1.58299e-07
-1.58295e-07
-1.58289e-07
-1.58281e-07
-1.58271e-07
-1.58258e-07
-1.58242e-07
-1.58222e-07
-1.58198e-07
-1.58158e-07
-1.58111e-07
-1.58104e-07
-1.58104e-07
-1.58104e-07
-1.58104e-07
-1.58104e-07
-1.58104e-07
-1.58104e-07
-1.58104e-07
-1.58104e-07
-1.58104e-07
-1.58104e-07
-1.58104e-07
-1.58104e-07
-1.58104e-07
-1.58104e-07
-1.58104e-07
-1.58104e-07
-1.58104e-07
-1.58104e-07
-1.58104e-07
-1.58104e-07
-1.58104e-07
-1.58104e-07
-1.58104e-07
-1.58104e-07
-1.58104e-07
-1.58104e-07
-1.58104e-07
-1.58104e-07
-1.58104e-07
-1.58104e-07
-1.58104e-07
-1.58104e-07
-1.58104e-07
-1.58104e-07
-1.58104e-07
-1.58104e-07
-1.58104e-07
-1.58104e-07
-1.58104e-07
-1.58104e-07
-1.58104e-07
-1.58104e-07
-1.58104e-07
-1.58104e-07
-1.58104e-07
-1.58104e-07
-1.58104e-07
-1.58104e-07
-1.58104e-07
-1.58104e-07
-1.58104e-07
-1.58104e-07
-1.58104e-07
-1.58104e-07
-1.58104e-07
-1.58104e-07
-1.58104e-07
-1.58104e-07
-1.58104e-07
-1.58104e-07
-1.58104e-07
-1.58104e-07
-1.58104e-07
-1.58104e-07
-1.58104e-07
-1.58104e-07
-1.58104e-07
-1.58104e-07
-1.58104e-07
-1.58104e-07
-1.58104e-07
-1.58104e-07
-1.58104e-07
-1.58104e-07
-1.58104e-07
-1.58104e-07
-1.58104e-07
-1.58104e-07
-1.58104e-07
-1.58104e-07
-1.58104e-07
-1.58104e-07
-1.58104e-07
-1.58104e-07
-1.58103e-07
-1.58086e-07
-1.57379e-07
-1.32457e-07
)
;

boundaryField
{
    inandouthalf11
    {
        type            cyclic;
        value           nonuniform List<scalar> 
100
(
-9.80414e-39
-2.84783e-15
-5.88879e-15
-8.59526e-15
-1.13485e-14
-1.42299e-14
-1.71818e-14
-2.01835e-14
-2.32473e-14
-2.63895e-14
-2.96233e-14
-3.29576e-14
-3.63988e-14
-3.99523e-14
-4.36228e-14
-4.74149e-14
-5.13329e-14
-5.53801e-14
-5.95591e-14
-6.38723e-14
-6.83214e-14
-7.29078e-14
-7.7633e-14
-8.24982e-14
-8.75041e-14
-9.26512e-14
-9.79395e-14
-1.03369e-13
-1.08941e-13
-1.14654e-13
-1.20506e-13
-1.26499e-13
-1.3263e-13
-1.38898e-13
-1.45302e-13
-1.5184e-13
-1.58509e-13
-1.65307e-13
-1.72233e-13
-1.79283e-13
-1.86455e-13
-1.93744e-13
-2.01147e-13
-2.08661e-13
-2.16282e-13
-2.24007e-13
-2.31829e-13
-2.39744e-13
-2.47746e-13
-2.55833e-13
-2.63999e-13
-2.72238e-13
-2.80544e-13
-2.88913e-13
-2.97338e-13
-3.05815e-13
-3.14336e-13
-3.22897e-13
-3.31491e-13
-3.40111e-13
-3.48752e-13
-3.5741e-13
-3.6608e-13
-3.74757e-13
-3.83434e-13
-3.92107e-13
-4.00771e-13
-4.0942e-13
-4.1805e-13
-4.26654e-13
-4.35229e-13
-4.43775e-13
-4.52286e-13
-4.60758e-13
-4.69191e-13
-4.77582e-13
-4.85927e-13
-4.94222e-13
-5.02465e-13
-5.10652e-13
-5.18782e-13
-5.26853e-13
-5.34864e-13
-5.42816e-13
-5.50708e-13
-5.58539e-13
-5.66309e-13
-5.74016e-13
-5.81658e-13
-5.89234e-13
-5.96742e-13
-6.04182e-13
-6.11553e-13
-6.18857e-13
-6.26094e-13
-6.33264e-13
-6.40368e-13
-6.47406e-13
-6.54378e-13
-6.61284e-13
)
;
    }
    inandouthalf12
    {
        type            cyclic;
        value           nonuniform List<scalar> 
100
(
9.80414e-39
2.84783e-15
5.88879e-15
8.59526e-15
1.13485e-14
1.42299e-14
1.71818e-14
2.01835e-14
2.32473e-14
2.63895e-14
2.96233e-14
3.29576e-14
3.63988e-14
3.99523e-14
4.36228e-14
4.74149e-14
5.13329e-14
5.53801e-14
5.95591e-14
6.38723e-14
6.83214e-14
7.29078e-14
7.7633e-14
8.24982e-14
8.75041e-14
9.26512e-14
9.79395e-14
1.03369e-13
1.08941e-13
1.14654e-13
1.20506e-13
1.26499e-13
1.3263e-13
1.38898e-13
1.45302e-13
1.5184e-13
1.58509e-13
1.65307e-13
1.72233e-13
1.79283e-13
1.86455e-13
1.93744e-13
2.01147e-13
2.08661e-13
2.16282e-13
2.24007e-13
2.31829e-13
2.39744e-13
2.47746e-13
2.55833e-13
2.63999e-13
2.72238e-13
2.80544e-13
2.88913e-13
2.97338e-13
3.05815e-13
3.14336e-13
3.22897e-13
3.31491e-13
3.40111e-13
3.48752e-13
3.5741e-13
3.6608e-13
3.74757e-13
3.83434e-13
3.92107e-13
4.00771e-13
4.0942e-13
4.1805e-13
4.26654e-13
4.35229e-13
4.43775e-13
4.52286e-13
4.60758e-13
4.69191e-13
4.77582e-13
4.85927e-13
4.94222e-13
5.02465e-13
5.10652e-13
5.18782e-13
5.26853e-13
5.34864e-13
5.42816e-13
5.50708e-13
5.58539e-13
5.66309e-13
5.74016e-13
5.81658e-13
5.89234e-13
5.96742e-13
6.04182e-13
6.11553e-13
6.18857e-13
6.26094e-13
6.33264e-13
6.40368e-13
6.47406e-13
6.54378e-13
6.61284e-13
)
;
    }
    inandouthalf21
    {
        type            cyclic;
        value           nonuniform List<scalar> 
100
(
-6.68125e-13
-6.74899e-13
-6.8161e-13
-6.88257e-13
-6.94842e-13
-7.01366e-13
-7.07831e-13
-7.14239e-13
-7.20591e-13
-7.2689e-13
-7.33136e-13
-7.39333e-13
-7.45481e-13
-7.51584e-13
-7.57644e-13
-7.63664e-13
-7.69647e-13
-7.75596e-13
-7.81513e-13
-7.87401e-13
-7.93257e-13
-7.99076e-13
-8.04848e-13
-8.10553e-13
-8.16165e-13
-8.21653e-13
-8.26984e-13
-8.32129e-13
-8.37075e-13
-8.41827e-13
-8.46417e-13
-8.50907e-13
-8.55387e-13
-8.59967e-13
-8.64733e-13
-8.69666e-13
-8.7451e-13
-8.78736e-13
-8.81743e-13
-8.83342e-13
-8.83943e-13
-8.8418e-13
-8.84381e-13
-1.05449e-12
-3.97308e-08
-1.45743e-07
-2.40817e-07
-3.1984e-07
-3.87204e-07
-4.45944e-07
-4.98046e-07
-5.44847e-07
-5.87147e-07
-6.25599e-07
-6.60749e-07
-6.93048e-07
-7.2287e-07
-7.50528e-07
-7.76285e-07
-8.00363e-07
-8.22953e-07
-8.44219e-07
-8.64302e-07
-8.83323e-07
-9.0139e-07
-9.18593e-07
-9.35013e-07
-9.50719e-07
-9.65774e-07
-9.8023e-07
-9.94136e-07
-1.00753e-06
-1.02045e-06
-1.03293e-06
-1.045e-06
-1.05668e-06
-1.06799e-06
-1.07895e-06
-1.08958e-06
-1.09989e-06
-1.1099e-06
-1.11962e-06
-1.12905e-06
-1.1382e-06
-1.14709e-06
-1.15571e-06
-1.16408e-06
-1.17221e-06
-1.18009e-06
-1.18774e-06
-1.19516e-06
-1.20235e-06
-1.20932e-06
-1.21606e-06
-1.22258e-06
-1.22887e-06
-1.23494e-06
-1.24078e-06
-1.24639e-06
-1.25176e-06
)
;
    }
    inandouthalf22
    {
        type            cyclic;
        value           nonuniform List<scalar> 
100
(
6.68125e-13
6.74899e-13
6.8161e-13
6.88257e-13
6.94842e-13
7.01366e-13
7.07831e-13
7.14239e-13
7.20591e-13
7.2689e-13
7.33136e-13
7.39333e-13
7.45481e-13
7.51584e-13
7.57644e-13
7.63664e-13
7.69647e-13
7.75596e-13
7.81513e-13
7.87401e-13
7.93257e-13
7.99076e-13
8.04848e-13
8.10553e-13
8.16165e-13
8.21653e-13
8.26984e-13
8.32129e-13
8.37075e-13
8.41827e-13
8.46417e-13
8.50907e-13
8.55387e-13
8.59967e-13
8.64733e-13
8.69666e-13
8.7451e-13
8.78736e-13
8.81743e-13
8.83342e-13
8.83943e-13
8.8418e-13
8.84381e-13
1.05449e-12
3.97308e-08
1.45743e-07
2.40817e-07
3.1984e-07
3.87204e-07
4.45944e-07
4.98046e-07
5.44847e-07
5.87147e-07
6.25599e-07
6.60749e-07
6.93048e-07
7.2287e-07
7.50528e-07
7.76285e-07
8.00363e-07
8.22953e-07
8.44219e-07
8.64302e-07
8.83323e-07
9.0139e-07
9.18593e-07
9.35013e-07
9.50719e-07
9.65774e-07
9.8023e-07
9.94136e-07
1.00753e-06
1.02045e-06
1.03293e-06
1.045e-06
1.05668e-06
1.06799e-06
1.07895e-06
1.08958e-06
1.09989e-06
1.1099e-06
1.11962e-06
1.12905e-06
1.1382e-06
1.14709e-06
1.15571e-06
1.16408e-06
1.17221e-06
1.18009e-06
1.18774e-06
1.19516e-06
1.20235e-06
1.20932e-06
1.21606e-06
1.22258e-06
1.22887e-06
1.23494e-06
1.24078e-06
1.24639e-06
1.25176e-06
)
;
    }
    inandouthalf31
    {
        type            cyclic;
        value           nonuniform List<scalar> 
110
(
-1.25691e-06
-1.28748e-06
-1.31862e-06
-1.35032e-06
-1.38258e-06
-1.41539e-06
-1.44874e-06
-1.48263e-06
-1.51704e-06
-1.55199e-06
-1.58747e-06
-1.62348e-06
-1.66005e-06
-1.69718e-06
-1.7349e-06
-1.77323e-06
-1.81219e-06
-1.8518e-06
-1.89207e-06
-1.93302e-06
-1.97468e-06
-2.01705e-06
-2.06016e-06
-2.10401e-06
-2.14864e-06
-2.19405e-06
-2.24026e-06
-2.2873e-06
-2.33518e-06
-2.38393e-06
-2.43355e-06
-2.48407e-06
-2.5355e-06
-2.58784e-06
-2.6411e-06
-2.69526e-06
-2.75055e-06
-2.89579e-06
-2.95533e-06
-3.01312e-06
-3.07145e-06
-3.13078e-06
-3.19109e-06
-3.2524e-06
-3.3148e-06
-3.378e-06
-3.44277e-06
-3.50782e-06
-3.57523e-06
-3.64189e-06
-3.71115e-06
-3.77766e-06
-3.84923e-06
-3.92168e-06
-3.99591e-06
-4.07153e-06
-4.14862e-06
-4.22727e-06
-4.30752e-06
-4.38946e-06
-4.47319e-06
-4.5588e-06
-4.64639e-06
-4.73609e-06
-4.82804e-06
-4.92237e-06
-5.01924e-06
-5.11879e-06
-5.2212e-06
-5.32658e-06
-5.43461e-06
-5.54492e-06
-5.65746e-06
-5.77229e-06
-5.88946e-06
-6.009e-06
-6.13096e-06
-6.2554e-06
-6.38237e-06
-6.51192e-06
-6.64409e-06
-6.77895e-06
-6.91654e-06
-7.05693e-06
-7.20017e-06
-7.34631e-06
-7.49542e-06
-7.64756e-06
-7.80279e-06
-7.96116e-06
-8.12275e-06
-8.28762e-06
-8.45584e-06
-8.62747e-06
-8.80258e-06
-8.98125e-06
-9.16355e-06
-9.34954e-06
-9.53932e-06
-9.73294e-06
-9.93049e-06
-1.01321e-05
-1.03377e-05
-1.05475e-05
-1.07616e-05
-1.09801e-05
-1.12029e-05
-1.14303e-05
-1.16623e-05
-1.1899e-05
)
;
    }
    inandouthalf32
    {
        type            cyclic;
        value           nonuniform List<scalar> 
110
(
1.25691e-06
1.28748e-06
1.31862e-06
1.35032e-06
1.38258e-06
1.41539e-06
1.44874e-06
1.48263e-06
1.51704e-06
1.55199e-06
1.58747e-06
1.62348e-06
1.66005e-06
1.69718e-06
1.7349e-06
1.77323e-06
1.81219e-06
1.8518e-06
1.89207e-06
1.93302e-06
1.97468e-06
2.01705e-06
2.06016e-06
2.10401e-06
2.14864e-06
2.19405e-06
2.24026e-06
2.2873e-06
2.33518e-06
2.38393e-06
2.43355e-06
2.48407e-06
2.5355e-06
2.58784e-06
2.6411e-06
2.69526e-06
2.75055e-06
2.89579e-06
2.95533e-06
3.01312e-06
3.07145e-06
3.13078e-06
3.19109e-06
3.2524e-06
3.3148e-06
3.378e-06
3.44277e-06
3.50782e-06
3.57523e-06
3.64189e-06
3.71115e-06
3.77766e-06
3.84923e-06
3.92168e-06
3.99591e-06
4.07153e-06
4.14862e-06
4.22727e-06
4.30752e-06
4.38946e-06
4.47319e-06
4.5588e-06
4.64639e-06
4.73609e-06
4.82804e-06
4.92237e-06
5.01924e-06
5.11879e-06
5.2212e-06
5.32658e-06
5.43461e-06
5.54492e-06
5.65746e-06
5.77229e-06
5.88946e-06
6.009e-06
6.13096e-06
6.2554e-06
6.38237e-06
6.51192e-06
6.64409e-06
6.77895e-06
6.91654e-06
7.05693e-06
7.20017e-06
7.34631e-06
7.49542e-06
7.64756e-06
7.80279e-06
7.96116e-06
8.12275e-06
8.28762e-06
8.45584e-06
8.62747e-06
8.80258e-06
8.98125e-06
9.16355e-06
9.34954e-06
9.53932e-06
9.73294e-06
9.93049e-06
1.01321e-05
1.03377e-05
1.05475e-05
1.07616e-05
1.09801e-05
1.12029e-05
1.14303e-05
1.16623e-05
1.1899e-05
)
;
    }
    inandouthalf41
    {
        type            cyclic;
        value           nonuniform List<scalar> 
50
(
-1.06508e-05
-1.06508e-05
-1.06508e-05
-1.06508e-05
-1.06508e-05
-1.06508e-05
-1.06508e-05
-1.06508e-05
-1.06508e-05
-1.06508e-05
-1.06508e-05
-1.06508e-05
-1.06508e-05
-1.06508e-05
-1.06508e-05
-1.06508e-05
-1.06508e-05
-1.06508e-05
-1.06508e-05
-1.06508e-05
-1.06508e-05
-1.06508e-05
-1.06508e-05
-1.06508e-05
-1.06508e-05
-1.06508e-05
-1.06508e-05
-1.06508e-05
-1.06508e-05
-1.06508e-05
-1.06508e-05
-1.06508e-05
-1.06508e-05
-1.06508e-05
-1.06508e-05
-1.06508e-05
-1.06508e-05
-1.06508e-05
-1.06508e-05
-1.06508e-05
-1.06508e-05
-1.06508e-05
-1.06508e-05
-1.06508e-05
-1.06508e-05
-1.06508e-05
-1.06508e-05
-1.06508e-05
-1.0651e-05
-1.06547e-05
)
;
    }
    inandouthalf42
    {
        type            cyclic;
        value           nonuniform List<scalar> 
50
(
1.06508e-05
1.06508e-05
1.06508e-05
1.06508e-05
1.06508e-05
1.06508e-05
1.06508e-05
1.06508e-05
1.06508e-05
1.06508e-05
1.06508e-05
1.06508e-05
1.06508e-05
1.06508e-05
1.06508e-05
1.06508e-05
1.06508e-05
1.06508e-05
1.06508e-05
1.06508e-05
1.06508e-05
1.06508e-05
1.06508e-05
1.06508e-05
1.06508e-05
1.06508e-05
1.06508e-05
1.06508e-05
1.06508e-05
1.06508e-05
1.06508e-05
1.06508e-05
1.06508e-05
1.06508e-05
1.06508e-05
1.06508e-05
1.06508e-05
1.06508e-05
1.06508e-05
1.06508e-05
1.06508e-05
1.06508e-05
1.06508e-05
1.06508e-05
1.06508e-05
1.06508e-05
1.06508e-05
1.06508e-05
1.0651e-05
1.06547e-05
)
;
    }
    top
    {
        type            symmetryPlane;
        value           uniform 0;
    }
    walls
    {
        type            fixedValue;
        value           uniform 0;
    }
    frontAndBackPlanes
    {
        type            empty;
        value           nonuniform 0();
    }
}


// ************************************************************************* //
