/*--------------------------------*- C++ -*----------------------------------*\
| =========                 |                                                 |
| \\      /  F ield         | OpenFOAM: The Open Source CFD Toolbox           |
|  \\    /   O peration     | Version:  2.4.x                                 |
|   \\  /    A nd           | Web:      www.OpenFOAM.org                      |
|    \\/     M anipulation  |                                                 |
\*---------------------------------------------------------------------------*/
FoamFile
{
    version     2.0;
    format      ascii;
    class       surfaceScalarField;
    location    "9.55";
    object      phia;
}
// * * * * * * * * * * * * * * * * * * * * * * * * * * * * * * * * * * * * * //

dimensions      [0 3 -1 0 0 0 0];

internalField   nonuniform List<scalar> 
359
(
-4.5304e-14
-1.13108e-13
-1.74568e-13
-2.32502e-13
-2.91452e-13
-3.51417e-13
-4.11699e-13
-4.72293e-13
-5.33476e-13
-5.95544e-13
-6.58695e-13
-7.2304e-13
-7.88664e-13
-8.55626e-13
-9.23985e-13
-9.93792e-13
-1.06508e-12
-1.13788e-12
-1.21218e-12
-1.288e-12
-1.36533e-12
-1.44415e-12
-1.52446e-12
-1.60624e-12
-1.68947e-12
-1.77412e-12
-1.86016e-12
-1.94756e-12
-2.03629e-12
-2.12631e-12
-2.21757e-12
-2.31004e-12
-2.40365e-12
-2.4984e-12
-2.59418e-12
-2.69098e-12
-2.78871e-12
-2.88733e-12
-2.9868e-12
-3.087e-12
-3.18793e-12
-3.28949e-12
-3.39158e-12
-3.4942e-12
-3.59723e-12
-3.70062e-12
-3.80429e-12
-3.90812e-12
-4.01208e-12
-4.11612e-12
-4.2201e-12
-4.324e-12
-4.4277e-12
-4.53116e-12
-4.63427e-12
-4.73702e-12
-4.83927e-12
-4.94099e-12
-5.04208e-12
-5.14246e-12
-5.24213e-12
-5.34098e-12
-5.43901e-12
-5.53613e-12
-5.6323e-12
-5.72745e-12
-5.82156e-12
-5.91457e-12
-6.00643e-12
-6.09709e-12
-6.18656e-12
-6.27483e-12
-6.36181e-12
-6.44755e-12
-6.53201e-12
-6.61519e-12
-6.69705e-12
-6.77757e-12
-6.85674e-12
-6.93455e-12
-7.01098e-12
-7.08606e-12
-7.15979e-12
-7.23217e-12
-7.30322e-12
-7.37295e-12
-7.44134e-12
-7.50841e-12
-7.57414e-12
-7.63853e-12
-7.70159e-12
-7.76333e-12
-7.82376e-12
-7.88289e-12
-7.94075e-12
-7.99734e-12
-8.05267e-12
-8.10676e-12
-8.15961e-12
-8.21122e-12
-8.26162e-12
-8.31081e-12
-8.35881e-12
-8.40562e-12
-8.45127e-12
-8.49576e-12
-8.53912e-12
-8.58135e-12
-8.62248e-12
-8.6625e-12
-8.70144e-12
-8.7393e-12
-8.77609e-12
-8.81182e-12
-8.84651e-12
-8.88015e-12
-8.91277e-12
-8.94437e-12
-8.97494e-12
-9.00447e-12
-9.03293e-12
-9.06028e-12
-9.08643e-12
-9.11128e-12
-9.1347e-12
-9.15658e-12
-9.17682e-12
-9.19537e-12
-9.21226e-12
-9.22759e-12
-9.24154e-12
-9.25435e-12
-9.26626e-12
-9.27749e-12
-9.28804e-12
-9.29756e-12
-9.30533e-12
-9.31063e-12
-9.31336e-12
-9.31426e-12
-9.31442e-12
-9.31305e-12
-9.46342e-12
-2.22999e-10
-4.76592e-09
-7.50335e-09
-9.17741e-09
-1.04984e-08
-1.17295e-08
-1.29158e-08
-1.40803e-08
-1.51822e-08
-1.61242e-08
-1.68715e-08
-1.74204e-08
-1.77857e-08
-1.79899e-08
-1.80574e-08
-1.80101e-08
-1.78654e-08
-1.76364e-08
-1.73323e-08
-1.69595e-08
-1.65228e-08
-1.60262e-08
-1.54733e-08
-1.48677e-08
-1.42132e-08
-1.35139e-08
-1.27738e-08
-1.19973e-08
-1.11888e-08
-1.03529e-08
-9.49431e-09
-8.61807e-09
-7.7294e-09
-6.83395e-09
-5.93785e-09
-5.04797e-09
-4.17209e-09
-3.31936e-09
-2.50083e-09
-1.72999e-09
-1.02123e-09
-3.83057e-10
1.89626e-10
7.76032e-10
1.47095e-09
2.28167e-09
3.18849e-09
4.18431e-09
5.26043e-09
6.40894e-09
7.62274e-09
8.895e-09
1.0219e-08
1.15882e-08
1.29956e-08
1.44342e-08
1.58967e-08
1.73753e-08
1.88919e-08
2.04377e-08
2.20013e-08
2.35673e-08
2.51135e-08
2.66072e-08
2.80037e-08
2.92478e-08
3.02823e-08
3.10621e-08
3.15673e-08
3.18084e-08
3.18218e-08
3.1658e-08
3.137e-08
3.1005e-08
3.06014e-08
3.01882e-08
2.97858e-08
2.94081e-08
2.90634e-08
2.87563e-08
2.84875e-08
2.82561e-08
2.80583e-08
2.78902e-08
2.77449e-08
2.76201e-08
2.74981e-08
2.73972e-08
2.72563e-08
2.71651e-08
2.69237e-08
2.68821e-08
2.605e-08
1.77005e-08
1.80464e-08
1.75883e-08
1.67597e-08
1.61791e-08
1.56531e-08
1.525e-08
1.49579e-08
1.47559e-08
1.48473e-08
1.47727e-08
1.56133e-08
1.47037e-08
1.9738e-08
-7.54638e-08
-1.52222e-07
-1.58396e-07
-1.58283e-07
-1.58295e-07
-1.58298e-07
-1.583e-07
-1.58301e-07
-1.58301e-07
-1.58299e-07
-1.58295e-07
-1.58289e-07
-1.58281e-07
-1.58271e-07
-1.58258e-07
-1.58242e-07
-1.58222e-07
-1.58198e-07
-1.58158e-07
-1.58111e-07
-1.58104e-07
-1.58104e-07
-1.58104e-07
-1.58104e-07
-1.58104e-07
-1.58104e-07
-1.58104e-07
-1.58104e-07
-1.58104e-07
-1.58104e-07
-1.58104e-07
-1.58104e-07
-1.58104e-07
-1.58104e-07
-1.58104e-07
-1.58104e-07
-1.58104e-07
-1.58104e-07
-1.58104e-07
-1.58104e-07
-1.58104e-07
-1.58104e-07
-1.58104e-07
-1.58104e-07
-1.58104e-07
-1.58104e-07
-1.58104e-07
-1.58104e-07
-1.58104e-07
-1.58104e-07
-1.58104e-07
-1.58104e-07
-1.58104e-07
-1.58104e-07
-1.58104e-07
-1.58104e-07
-1.58104e-07
-1.58104e-07
-1.58104e-07
-1.58104e-07
-1.58104e-07
-1.58104e-07
-1.58104e-07
-1.58104e-07
-1.58104e-07
-1.58104e-07
-1.58104e-07
-1.58104e-07
-1.58104e-07
-1.58104e-07
-1.58104e-07
-1.58104e-07
-1.58104e-07
-1.58104e-07
-1.58104e-07
-1.58104e-07
-1.58104e-07
-1.58104e-07
-1.58104e-07
-1.58104e-07
-1.58104e-07
-1.58104e-07
-1.58104e-07
-1.58104e-07
-1.58104e-07
-1.58104e-07
-1.58104e-07
-1.58104e-07
-1.58104e-07
-1.58104e-07
-1.58104e-07
-1.58104e-07
-1.58104e-07
-1.58104e-07
-1.58104e-07
-1.58104e-07
-1.58104e-07
-1.58104e-07
-1.58104e-07
-1.58104e-07
-1.58104e-07
-1.58104e-07
-1.58104e-07
-1.58104e-07
-1.58104e-07
-1.58103e-07
-1.58086e-07
-1.57379e-07
-1.32457e-07
)
;

boundaryField
{
    inandouthalf11
    {
        type            cyclic;
        value           nonuniform List<scalar> 
100
(
-9.79995e-39
-2.84616e-15
-5.88532e-15
-8.59016e-15
-1.13417e-14
-1.42214e-14
-1.71715e-14
-2.01713e-14
-2.32332e-14
-2.63736e-14
-2.96053e-14
-3.29375e-14
-3.63767e-14
-3.9928e-14
-4.35963e-14
-4.73861e-14
-5.13017e-14
-5.53465e-14
-5.9523e-14
-6.38337e-14
-6.82801e-14
-7.28638e-14
-7.75864e-14
-8.24488e-14
-8.74519e-14
-9.25961e-14
-9.78815e-14
-1.03308e-13
-1.08877e-13
-1.14587e-13
-1.20436e-13
-1.26426e-13
-1.32553e-13
-1.38818e-13
-1.45219e-13
-1.51753e-13
-1.58419e-13
-1.65214e-13
-1.72137e-13
-1.79184e-13
-1.86352e-13
-1.93638e-13
-2.01038e-13
-2.08549e-13
-2.16166e-13
-2.23887e-13
-2.31706e-13
-2.39618e-13
-2.47617e-13
-2.55701e-13
-2.63864e-13
-2.72099e-13
-2.80402e-13
-2.88768e-13
-2.9719e-13
-3.05664e-13
-3.14182e-13
-3.2274e-13
-3.31332e-13
-3.39949e-13
-3.48587e-13
-3.57242e-13
-3.6591e-13
-3.74584e-13
-3.83259e-13
-3.9193e-13
-4.00591e-13
-4.09238e-13
-4.17866e-13
-4.26468e-13
-4.35041e-13
-4.43585e-13
-4.52094e-13
-4.60564e-13
-4.68995e-13
-4.77385e-13
-4.85728e-13
-4.94022e-13
-5.02263e-13
-5.10448e-13
-5.18577e-13
-5.26646e-13
-5.34656e-13
-5.42607e-13
-5.50498e-13
-5.58328e-13
-5.66096e-13
-5.73802e-13
-5.81443e-13
-5.89017e-13
-5.96524e-13
-6.03963e-13
-6.11334e-13
-6.18636e-13
-6.25872e-13
-6.33041e-13
-6.40144e-13
-6.47181e-13
-6.54152e-13
-6.61057e-13
)
;
    }
    inandouthalf12
    {
        type            cyclic;
        value           nonuniform List<scalar> 
100
(
9.79995e-39
2.84616e-15
5.88532e-15
8.59016e-15
1.13417e-14
1.42214e-14
1.71715e-14
2.01713e-14
2.32332e-14
2.63736e-14
2.96053e-14
3.29375e-14
3.63767e-14
3.9928e-14
4.35963e-14
4.73861e-14
5.13017e-14
5.53465e-14
5.9523e-14
6.38337e-14
6.82801e-14
7.28638e-14
7.75864e-14
8.24488e-14
8.74519e-14
9.25961e-14
9.78815e-14
1.03308e-13
1.08877e-13
1.14587e-13
1.20436e-13
1.26426e-13
1.32553e-13
1.38818e-13
1.45219e-13
1.51753e-13
1.58419e-13
1.65214e-13
1.72137e-13
1.79184e-13
1.86352e-13
1.93638e-13
2.01038e-13
2.08549e-13
2.16166e-13
2.23887e-13
2.31706e-13
2.39618e-13
2.47617e-13
2.55701e-13
2.63864e-13
2.72099e-13
2.80402e-13
2.88768e-13
2.9719e-13
3.05664e-13
3.14182e-13
3.2274e-13
3.31332e-13
3.39949e-13
3.48587e-13
3.57242e-13
3.6591e-13
3.74584e-13
3.83259e-13
3.9193e-13
4.00591e-13
4.09238e-13
4.17866e-13
4.26468e-13
4.35041e-13
4.43585e-13
4.52094e-13
4.60564e-13
4.68995e-13
4.77385e-13
4.85728e-13
4.94022e-13
5.02263e-13
5.10448e-13
5.18577e-13
5.26646e-13
5.34656e-13
5.42607e-13
5.50498e-13
5.58328e-13
5.66096e-13
5.73802e-13
5.81443e-13
5.89017e-13
5.96524e-13
6.03963e-13
6.11334e-13
6.18636e-13
6.25872e-13
6.33041e-13
6.40144e-13
6.47181e-13
6.54152e-13
6.61057e-13
)
;
    }
    inandouthalf21
    {
        type            cyclic;
        value           nonuniform List<scalar> 
100
(
-6.67896e-13
-6.7467e-13
-6.8138e-13
-6.88026e-13
-6.9461e-13
-7.01133e-13
-7.07598e-13
-7.14005e-13
-7.20356e-13
-7.26653e-13
-7.32899e-13
-7.39094e-13
-7.45242e-13
-7.51344e-13
-7.57403e-13
-7.63422e-13
-7.69404e-13
-7.75352e-13
-7.81268e-13
-7.87155e-13
-7.9301e-13
-7.98829e-13
-8.046e-13
-8.10304e-13
-8.15916e-13
-8.21403e-13
-8.26733e-13
-8.31878e-13
-8.36823e-13
-8.41574e-13
-8.46164e-13
-8.50653e-13
-8.55132e-13
-8.59711e-13
-8.64476e-13
-8.69409e-13
-8.74254e-13
-8.78481e-13
-8.81489e-13
-8.83089e-13
-8.8369e-13
-8.83927e-13
-8.84128e-13
-1.0421e-12
-3.96207e-08
-1.45605e-07
-2.40695e-07
-3.19731e-07
-3.87102e-07
-4.45846e-07
-4.97949e-07
-5.4475e-07
-5.87048e-07
-6.25498e-07
-6.60644e-07
-6.9294e-07
-7.22759e-07
-7.50413e-07
-7.76166e-07
-8.00241e-07
-8.22828e-07
-8.4409e-07
-8.6417e-07
-8.83189e-07
-9.01253e-07
-9.18453e-07
-9.3487e-07
-9.50575e-07
-9.65627e-07
-9.80082e-07
-9.93985e-07
-1.00738e-06
-1.0203e-06
-1.03278e-06
-1.04484e-06
-1.05652e-06
-1.06783e-06
-1.07879e-06
-1.08942e-06
-1.09973e-06
-1.10974e-06
-1.11945e-06
-1.12888e-06
-1.13803e-06
-1.14692e-06
-1.15554e-06
-1.16391e-06
-1.17203e-06
-1.17992e-06
-1.18757e-06
-1.19499e-06
-1.20218e-06
-1.20915e-06
-1.21589e-06
-1.22241e-06
-1.2287e-06
-1.23476e-06
-1.2406e-06
-1.24621e-06
-1.25159e-06
)
;
    }
    inandouthalf22
    {
        type            cyclic;
        value           nonuniform List<scalar> 
100
(
6.67896e-13
6.7467e-13
6.8138e-13
6.88026e-13
6.9461e-13
7.01133e-13
7.07598e-13
7.14005e-13
7.20356e-13
7.26653e-13
7.32899e-13
7.39094e-13
7.45242e-13
7.51344e-13
7.57403e-13
7.63422e-13
7.69404e-13
7.75352e-13
7.81268e-13
7.87155e-13
7.9301e-13
7.98829e-13
8.046e-13
8.10304e-13
8.15916e-13
8.21403e-13
8.26733e-13
8.31878e-13
8.36823e-13
8.41574e-13
8.46164e-13
8.50653e-13
8.55132e-13
8.59711e-13
8.64476e-13
8.69409e-13
8.74254e-13
8.78481e-13
8.81489e-13
8.83089e-13
8.8369e-13
8.83927e-13
8.84128e-13
1.0421e-12
3.96207e-08
1.45605e-07
2.40695e-07
3.19731e-07
3.87102e-07
4.45846e-07
4.97949e-07
5.4475e-07
5.87048e-07
6.25498e-07
6.60644e-07
6.9294e-07
7.22759e-07
7.50413e-07
7.76166e-07
8.00241e-07
8.22828e-07
8.4409e-07
8.6417e-07
8.83189e-07
9.01253e-07
9.18453e-07
9.3487e-07
9.50575e-07
9.65627e-07
9.80082e-07
9.93985e-07
1.00738e-06
1.0203e-06
1.03278e-06
1.04484e-06
1.05652e-06
1.06783e-06
1.07879e-06
1.08942e-06
1.09973e-06
1.10974e-06
1.11945e-06
1.12888e-06
1.13803e-06
1.14692e-06
1.15554e-06
1.16391e-06
1.17203e-06
1.17992e-06
1.18757e-06
1.19499e-06
1.20218e-06
1.20915e-06
1.21589e-06
1.22241e-06
1.2287e-06
1.23476e-06
1.2406e-06
1.24621e-06
1.25159e-06
)
;
    }
    inandouthalf31
    {
        type            cyclic;
        value           nonuniform List<scalar> 
110
(
-1.25673e-06
-1.2873e-06
-1.31843e-06
-1.35013e-06
-1.38239e-06
-1.41519e-06
-1.44854e-06
-1.48243e-06
-1.51684e-06
-1.55179e-06
-1.58726e-06
-1.62327e-06
-1.65983e-06
-1.69696e-06
-1.73468e-06
-1.77301e-06
-1.81196e-06
-1.85156e-06
-1.89183e-06
-1.93278e-06
-1.97443e-06
-2.0168e-06
-2.0599e-06
-2.10375e-06
-2.14837e-06
-2.19378e-06
-2.23999e-06
-2.28702e-06
-2.3349e-06
-2.38364e-06
-2.43326e-06
-2.48377e-06
-2.53519e-06
-2.58753e-06
-2.64078e-06
-2.69494e-06
-2.75022e-06
-2.89548e-06
-2.95502e-06
-3.0128e-06
-3.07112e-06
-3.13045e-06
-3.19076e-06
-3.25206e-06
-3.31445e-06
-3.37765e-06
-3.44241e-06
-3.50745e-06
-3.57485e-06
-3.64151e-06
-3.71076e-06
-3.77726e-06
-3.84883e-06
-3.92126e-06
-3.99549e-06
-4.0711e-06
-4.14819e-06
-4.22682e-06
-4.30706e-06
-4.389e-06
-4.47272e-06
-4.55831e-06
-4.64589e-06
-4.73558e-06
-4.82752e-06
-4.92184e-06
-5.0187e-06
-5.11824e-06
-5.22064e-06
-5.326e-06
-5.43402e-06
-5.54432e-06
-5.65685e-06
-5.77167e-06
-5.88882e-06
-6.00835e-06
-6.1303e-06
-6.25473e-06
-6.38168e-06
-6.51121e-06
-6.64337e-06
-6.77822e-06
-6.9158e-06
-7.05617e-06
-7.19939e-06
-7.34552e-06
-7.49461e-06
-7.64673e-06
-7.80194e-06
-7.9603e-06
-8.12187e-06
-8.28673e-06
-8.45492e-06
-8.62654e-06
-8.80163e-06
-8.98028e-06
-9.16256e-06
-9.34853e-06
-9.53828e-06
-9.73189e-06
-9.92942e-06
-1.0131e-05
-1.03366e-05
-1.05464e-05
-1.07605e-05
-1.09789e-05
-1.12017e-05
-1.14291e-05
-1.16611e-05
-1.18977e-05
)
;
    }
    inandouthalf32
    {
        type            cyclic;
        value           nonuniform List<scalar> 
110
(
1.25673e-06
1.2873e-06
1.31843e-06
1.35013e-06
1.38239e-06
1.41519e-06
1.44854e-06
1.48243e-06
1.51684e-06
1.55179e-06
1.58726e-06
1.62327e-06
1.65983e-06
1.69696e-06
1.73468e-06
1.77301e-06
1.81196e-06
1.85156e-06
1.89183e-06
1.93278e-06
1.97443e-06
2.0168e-06
2.0599e-06
2.10375e-06
2.14837e-06
2.19378e-06
2.23999e-06
2.28702e-06
2.3349e-06
2.38364e-06
2.43326e-06
2.48377e-06
2.53519e-06
2.58753e-06
2.64078e-06
2.69494e-06
2.75022e-06
2.89548e-06
2.95502e-06
3.0128e-06
3.07112e-06
3.13045e-06
3.19076e-06
3.25206e-06
3.31445e-06
3.37765e-06
3.44241e-06
3.50745e-06
3.57485e-06
3.64151e-06
3.71076e-06
3.77726e-06
3.84883e-06
3.92126e-06
3.99549e-06
4.0711e-06
4.14819e-06
4.22682e-06
4.30706e-06
4.389e-06
4.47272e-06
4.55831e-06
4.64589e-06
4.73558e-06
4.82752e-06
4.92184e-06
5.0187e-06
5.11824e-06
5.22064e-06
5.326e-06
5.43402e-06
5.54432e-06
5.65685e-06
5.77167e-06
5.88882e-06
6.00835e-06
6.1303e-06
6.25473e-06
6.38168e-06
6.51121e-06
6.64337e-06
6.77822e-06
6.9158e-06
7.05617e-06
7.19939e-06
7.34552e-06
7.49461e-06
7.64673e-06
7.80194e-06
7.9603e-06
8.12187e-06
8.28673e-06
8.45492e-06
8.62654e-06
8.80163e-06
8.98028e-06
9.16256e-06
9.34853e-06
9.53828e-06
9.73189e-06
9.92942e-06
1.0131e-05
1.03366e-05
1.05464e-05
1.07605e-05
1.09789e-05
1.12017e-05
1.14291e-05
1.16611e-05
1.18977e-05
)
;
    }
    inandouthalf41
    {
        type            cyclic;
        value           nonuniform List<scalar> 
50
(
-1.06497e-05
-1.06497e-05
-1.06497e-05
-1.06497e-05
-1.06497e-05
-1.06497e-05
-1.06497e-05
-1.06497e-05
-1.06497e-05
-1.06497e-05
-1.06497e-05
-1.06497e-05
-1.06497e-05
-1.06497e-05
-1.06497e-05
-1.06497e-05
-1.06497e-05
-1.06497e-05
-1.06497e-05
-1.06497e-05
-1.06497e-05
-1.06497e-05
-1.06497e-05
-1.06497e-05
-1.06497e-05
-1.06497e-05
-1.06497e-05
-1.06497e-05
-1.06497e-05
-1.06497e-05
-1.06497e-05
-1.06497e-05
-1.06497e-05
-1.06497e-05
-1.06497e-05
-1.06497e-05
-1.06497e-05
-1.06497e-05
-1.06497e-05
-1.06497e-05
-1.06497e-05
-1.06497e-05
-1.06497e-05
-1.06497e-05
-1.06497e-05
-1.06497e-05
-1.06497e-05
-1.06497e-05
-1.06499e-05
-1.06535e-05
)
;
    }
    inandouthalf42
    {
        type            cyclic;
        value           nonuniform List<scalar> 
50
(
1.06497e-05
1.06497e-05
1.06497e-05
1.06497e-05
1.06497e-05
1.06497e-05
1.06497e-05
1.06497e-05
1.06497e-05
1.06497e-05
1.06497e-05
1.06497e-05
1.06497e-05
1.06497e-05
1.06497e-05
1.06497e-05
1.06497e-05
1.06497e-05
1.06497e-05
1.06497e-05
1.06497e-05
1.06497e-05
1.06497e-05
1.06497e-05
1.06497e-05
1.06497e-05
1.06497e-05
1.06497e-05
1.06497e-05
1.06497e-05
1.06497e-05
1.06497e-05
1.06497e-05
1.06497e-05
1.06497e-05
1.06497e-05
1.06497e-05
1.06497e-05
1.06497e-05
1.06497e-05
1.06497e-05
1.06497e-05
1.06497e-05
1.06497e-05
1.06497e-05
1.06497e-05
1.06497e-05
1.06497e-05
1.06499e-05
1.06535e-05
)
;
    }
    top
    {
        type            symmetryPlane;
        value           uniform 0;
    }
    walls
    {
        type            fixedValue;
        value           uniform 0;
    }
    frontAndBackPlanes
    {
        type            empty;
        value           nonuniform 0();
    }
}


// ************************************************************************* //
