/*--------------------------------*- C++ -*----------------------------------*\
| =========                 |                                                 |
| \\      /  F ield         | OpenFOAM: The Open Source CFD Toolbox           |
|  \\    /   O peration     | Version:  2.4.x                                 |
|   \\  /    A nd           | Web:      www.OpenFOAM.org                      |
|    \\/     M anipulation  |                                                 |
\*---------------------------------------------------------------------------*/
FoamFile
{
    version     2.0;
    format      ascii;
    class       surfaceScalarField;
    location    "9.55";
    object      phib_0;
}
// * * * * * * * * * * * * * * * * * * * * * * * * * * * * * * * * * * * * * //

dimensions      [0 3 -1 0 0 0 0];

internalField   nonuniform List<scalar> 
359
(
7.12627e-14
1.78274e-13
2.75147e-13
3.66361e-13
4.59201e-13
5.53646e-13
6.4857e-13
7.4396e-13
8.4026e-13
9.37935e-13
1.0373e-12
1.13852e-12
1.24174e-12
1.34704e-12
1.45452e-12
1.56425e-12
1.6763e-12
1.79069e-12
1.90742e-12
2.02652e-12
2.14796e-12
2.27172e-12
2.3978e-12
2.52616e-12
2.65676e-12
2.78956e-12
2.92451e-12
3.06158e-12
3.20069e-12
3.34179e-12
3.4848e-12
3.62969e-12
3.77632e-12
3.92469e-12
4.07465e-12
4.22616e-12
4.37909e-12
4.53337e-12
4.68894e-12
4.84561e-12
5.00337e-12
5.16207e-12
5.32157e-12
5.48182e-12
5.64268e-12
5.80403e-12
5.96579e-12
6.12773e-12
6.28981e-12
6.45197e-12
6.61398e-12
6.77579e-12
6.93723e-12
7.09824e-12
7.25864e-12
7.4184e-12
7.5773e-12
7.73532e-12
7.8923e-12
8.04808e-12
8.20269e-12
8.35594e-12
8.50784e-12
8.65825e-12
8.8071e-12
8.95428e-12
9.09975e-12
9.24344e-12
9.38526e-12
9.52511e-12
9.66303e-12
9.79899e-12
9.93288e-12
1.00647e-11
1.01945e-11
1.03222e-11
1.04478e-11
1.05711e-11
1.06923e-11
1.08113e-11
1.0928e-11
1.10426e-11
1.11549e-11
1.12651e-11
1.13731e-11
1.14789e-11
1.15826e-11
1.1684e-11
1.17834e-11
1.18805e-11
1.19754e-11
1.20682e-11
1.21589e-11
1.22474e-11
1.23338e-11
1.24181e-11
1.25004e-11
1.25806e-11
1.26588e-11
1.27349e-11
1.2809e-11
1.28811e-11
1.29512e-11
1.30193e-11
1.30855e-11
1.31497e-11
1.3212e-11
1.32725e-11
1.3331e-11
1.33877e-11
1.34425e-11
1.34955e-11
1.35466e-11
1.35959e-11
1.36434e-11
1.3689e-11
1.37329e-11
1.3775e-11
1.38152e-11
1.38536e-11
1.38901e-11
1.39246e-11
1.3957e-11
1.39871e-11
1.40147e-11
1.40396e-11
1.40616e-11
1.40807e-11
1.40968e-11
1.41101e-11
1.41208e-11
1.41294e-11
1.41359e-11
1.41408e-11
1.41438e-11
1.41446e-11
1.41419e-11
1.41342e-11
1.41206e-11
1.41022e-11
1.40808e-11
1.39393e-11
1.39774e-11
2.38118e-10
2.93748e-09
3.30295e-09
3.4112e-09
3.44063e-09
3.43536e-09
3.39685e-09
3.31516e-09
3.18371e-09
3.00991e-09
2.80424e-09
2.57918e-09
2.34668e-09
2.11644e-09
1.89541e-09
1.68795e-09
1.49631e-09
1.32128e-09
1.16266e-09
1.01971e-09
8.91397e-10
7.76587e-10
6.74133e-10
5.82927e-10
5.01929e-10
4.30171e-10
3.6676e-10
3.10877e-10
2.61775e-10
2.18772e-10
1.81249e-10
1.48642e-10
1.20443e-10
9.61914e-11
7.54717e-11
5.79099e-11
4.31698e-11
3.09516e-11
2.0989e-11
1.30462e-11
6.89968e-12
2.2951e-12
-1.07487e-12
-3.83731e-12
-6.49177e-12
-9.01553e-12
-1.12974e-11
-1.33068e-11
-1.50241e-11
-1.64444e-11
-1.75738e-11
-1.84249e-11
-1.90141e-11
-1.93606e-11
-1.94849e-11
-1.9408e-11
-1.9151e-11
-1.87345e-11
-1.81659e-11
-1.74567e-11
-1.66185e-11
-1.5661e-11
-1.45907e-11
-1.34109e-11
-1.21269e-11
-1.0755e-11
-9.33255e-12
-7.919e-12
-6.58452e-12
-5.38983e-12
-4.37011e-12
-3.5315e-12
-2.85856e-12
-2.32536e-12
-1.90416e-12
-1.57025e-12
-1.30352e-12
-1.08831e-12
-9.12743e-13
-7.67916e-13
-6.47167e-13
-5.45532e-13
-4.59303e-13
-3.85736e-13
-3.22875e-13
-2.68851e-13
-2.23064e-13
-1.835e-13
-1.50623e-13
-1.22098e-13
-9.91402e-14
-7.87541e-14
-6.50447e-14
-4.05897e-14
-3.09825e-14
-2.13147e-14
-1.44954e-14
-9.85003e-15
-6.65847e-15
-4.48057e-15
-2.99203e-15
-1.97865e-15
-1.29853e-15
-8.22821e-16
-5.2092e-16
-2.76355e-16
-1.69623e-16
6.65107e-17
-1.51189e-17
-1.46388e-17
-1.41992e-17
-1.36622e-17
-1.31692e-17
-1.25961e-17
-1.20625e-17
-1.14556e-17
-1.08863e-17
-1.02733e-17
-9.70875e-18
-9.12785e-18
-8.63233e-18
-8.19034e-18
-7.83178e-18
-7.48828e-18
-7.18721e-18
-6.90962e-18
-6.6477e-18
-6.38389e-18
-6.13149e-18
-5.92359e-18
-5.72051e-18
-5.5134e-18
-5.28455e-18
-5.07264e-18
-4.83462e-18
-4.59392e-18
-4.34009e-18
-4.1476e-18
-3.94684e-18
-3.74996e-18
-3.52603e-18
-3.32016e-18
-3.08917e-18
-2.80177e-18
-2.54456e-18
-2.31626e-18
-2.07157e-18
-1.82458e-18
-1.55844e-18
-1.30791e-18
-1.04746e-18
-7.99639e-19
-5.65568e-19
-4.66496e-19
-3.89372e-19
-3.30015e-19
-2.44218e-19
-2.00918e-19
-1.59533e-19
-1.19474e-19
-8.39448e-20
-4.82991e-20
-2.09004e-20
5.93916e-21
2.3994e-20
5.03381e-20
6.229e-20
7.42659e-20
7.68327e-20
9.65808e-20
1.0803e-19
1.1928e-19
1.20488e-19
1.29322e-19
1.27575e-19
1.27016e-19
1.17306e-19
1.20795e-19
1.16919e-19
1.12439e-19
1.00398e-19
9.445e-20
8.08619e-20
6.80215e-20
4.81767e-20
4.34675e-20
2.93293e-20
1.57106e-20
-1.49529e-20
-3.14535e-20
-6.84583e-20
-1.06081e-19
-1.64476e-19
-1.90174e-19
-2.40475e-19
-2.9102e-19
-3.70232e-19
-4.31955e-19
-5.20491e-19
-6.11507e-19
-7.24257e-19
-8.4035e-19
-9.72208e-19
-1.10747e-18
-1.25672e-18
-1.40417e-18
-1.55509e-18
-1.72166e-18
-1.99746e-18
-2.14041e-18
-2.34458e-18
-2.57021e-18
-3.01664e-18
-2.9253e-18
-3.81528e-18
-5.68863e-18
)
;

boundaryField
{
    inandouthalf11
    {
        type            cyclic;
        value           nonuniform List<scalar> 
100
(
1.54184e-10
1.53331e-10
1.5321e-10
1.53321e-10
1.53373e-10
1.53387e-10
1.53406e-10
1.53431e-10
1.53457e-10
1.53483e-10
1.5351e-10
1.53536e-10
1.53562e-10
1.53589e-10
1.53616e-10
1.53643e-10
1.5367e-10
1.53697e-10
1.53725e-10
1.53753e-10
1.53781e-10
1.53809e-10
1.53838e-10
1.53867e-10
1.53896e-10
1.53925e-10
1.53954e-10
1.53984e-10
1.54014e-10
1.54044e-10
1.54074e-10
1.54105e-10
1.54136e-10
1.54167e-10
1.54199e-10
1.54231e-10
1.54262e-10
1.54295e-10
1.54328e-10
1.5436e-10
1.54394e-10
1.54428e-10
1.54461e-10
1.54496e-10
1.5453e-10
1.54566e-10
1.54601e-10
1.54637e-10
1.54673e-10
1.5471e-10
1.54747e-10
1.54785e-10
1.54823e-10
1.54862e-10
1.54901e-10
1.54941e-10
1.54981e-10
1.55022e-10
1.55063e-10
1.55105e-10
1.55148e-10
1.55191e-10
1.55235e-10
1.5528e-10
1.55325e-10
1.55371e-10
1.55418e-10
1.55466e-10
1.55514e-10
1.55563e-10
1.55614e-10
1.55665e-10
1.55717e-10
1.5577e-10
1.55823e-10
1.55878e-10
1.55934e-10
1.55991e-10
1.56049e-10
1.56108e-10
1.56168e-10
1.56229e-10
1.56292e-10
1.56356e-10
1.56421e-10
1.56487e-10
1.56555e-10
1.56624e-10
1.56694e-10
1.56766e-10
1.5684e-10
1.56915e-10
1.56992e-10
1.5707e-10
1.57151e-10
1.57233e-10
1.57317e-10
1.57403e-10
1.57491e-10
1.57581e-10
)
;
    }
    inandouthalf12
    {
        type            cyclic;
        value           nonuniform List<scalar> 
100
(
-1.54184e-10
-1.53331e-10
-1.5321e-10
-1.53321e-10
-1.53373e-10
-1.53387e-10
-1.53406e-10
-1.53431e-10
-1.53457e-10
-1.53483e-10
-1.5351e-10
-1.53536e-10
-1.53562e-10
-1.53589e-10
-1.53616e-10
-1.53643e-10
-1.5367e-10
-1.53697e-10
-1.53725e-10
-1.53753e-10
-1.53781e-10
-1.53809e-10
-1.53838e-10
-1.53867e-10
-1.53896e-10
-1.53925e-10
-1.53954e-10
-1.53984e-10
-1.54014e-10
-1.54044e-10
-1.54074e-10
-1.54105e-10
-1.54136e-10
-1.54167e-10
-1.54199e-10
-1.54231e-10
-1.54262e-10
-1.54295e-10
-1.54328e-10
-1.5436e-10
-1.54394e-10
-1.54428e-10
-1.54461e-10
-1.54496e-10
-1.5453e-10
-1.54566e-10
-1.54601e-10
-1.54637e-10
-1.54673e-10
-1.5471e-10
-1.54747e-10
-1.54785e-10
-1.54823e-10
-1.54862e-10
-1.54901e-10
-1.54941e-10
-1.54981e-10
-1.55022e-10
-1.55063e-10
-1.55105e-10
-1.55148e-10
-1.55191e-10
-1.55235e-10
-1.5528e-10
-1.55325e-10
-1.55371e-10
-1.55418e-10
-1.55466e-10
-1.55514e-10
-1.55563e-10
-1.55614e-10
-1.55665e-10
-1.55717e-10
-1.5577e-10
-1.55823e-10
-1.55878e-10
-1.55934e-10
-1.55991e-10
-1.56049e-10
-1.56108e-10
-1.56168e-10
-1.56229e-10
-1.56292e-10
-1.56356e-10
-1.56421e-10
-1.56487e-10
-1.56555e-10
-1.56624e-10
-1.56694e-10
-1.56766e-10
-1.5684e-10
-1.56915e-10
-1.56992e-10
-1.5707e-10
-1.57151e-10
-1.57233e-10
-1.57317e-10
-1.57403e-10
-1.57491e-10
-1.57581e-10
)
;
    }
    inandouthalf21
    {
        type            cyclic;
        value           nonuniform List<scalar> 
100
(
1.57673e-10
1.57767e-10
1.57864e-10
1.57963e-10
1.58065e-10
1.58169e-10
1.58276e-10
1.58386e-10
1.58499e-10
1.58615e-10
1.58734e-10
1.58856e-10
1.58982e-10
1.59111e-10
1.59245e-10
1.59382e-10
1.59523e-10
1.59669e-10
1.59819e-10
1.59974e-10
1.60134e-10
1.60299e-10
1.60471e-10
1.60648e-10
1.60832e-10
1.61022e-10
1.6122e-10
1.61426e-10
1.61641e-10
1.61865e-10
1.62099e-10
1.62344e-10
1.626e-10
1.62871e-10
1.63158e-10
1.63464e-10
1.63786e-10
1.64131e-10
1.64515e-10
1.64957e-10
1.65438e-10
1.6598e-10
1.71986e-10
8.77326e-12
-4.31902e-08
-1.52117e-07
-2.45303e-07
-3.22849e-07
-3.89221e-07
-4.47237e-07
-4.98761e-07
-5.44992e-07
-5.86776e-07
-6.24779e-07
-6.59541e-07
-6.91505e-07
-7.21038e-07
-7.48445e-07
-7.73983e-07
-7.97873e-07
-8.203e-07
-8.41426e-07
-8.61389e-07
-8.8031e-07
-8.98294e-07
-9.1543e-07
-9.31799e-07
-9.47469e-07
-9.62501e-07
-9.76949e-07
-9.9086e-07
-1.00428e-06
-1.01723e-06
-1.02977e-06
-1.0419e-06
-1.05367e-06
-1.06509e-06
-1.07618e-06
-1.08696e-06
-1.09746e-06
-1.10768e-06
-1.11764e-06
-1.12735e-06
-1.13682e-06
-1.14607e-06
-1.15509e-06
-1.16391e-06
-1.17252e-06
-1.18093e-06
-1.18916e-06
-1.1972e-06
-1.20506e-06
-1.21274e-06
-1.22025e-06
-1.22759e-06
-1.23477e-06
-1.24178e-06
-1.24864e-06
-1.25533e-06
-1.26186e-06
)
;
    }
    inandouthalf22
    {
        type            cyclic;
        value           nonuniform List<scalar> 
100
(
-1.57673e-10
-1.57767e-10
-1.57864e-10
-1.57963e-10
-1.58065e-10
-1.58169e-10
-1.58276e-10
-1.58386e-10
-1.58499e-10
-1.58615e-10
-1.58734e-10
-1.58856e-10
-1.58982e-10
-1.59111e-10
-1.59245e-10
-1.59382e-10
-1.59523e-10
-1.59669e-10
-1.59819e-10
-1.59974e-10
-1.60134e-10
-1.60299e-10
-1.60471e-10
-1.60648e-10
-1.60832e-10
-1.61022e-10
-1.6122e-10
-1.61426e-10
-1.61641e-10
-1.61865e-10
-1.62099e-10
-1.62344e-10
-1.626e-10
-1.62871e-10
-1.63158e-10
-1.63464e-10
-1.63786e-10
-1.64131e-10
-1.64515e-10
-1.64957e-10
-1.65438e-10
-1.6598e-10
-1.71986e-10
-8.77326e-12
4.31902e-08
1.52117e-07
2.45303e-07
3.22849e-07
3.89221e-07
4.47237e-07
4.98761e-07
5.44992e-07
5.86776e-07
6.24779e-07
6.59541e-07
6.91505e-07
7.21038e-07
7.48445e-07
7.73983e-07
7.97873e-07
8.203e-07
8.41426e-07
8.61389e-07
8.8031e-07
8.98294e-07
9.1543e-07
9.31799e-07
9.47469e-07
9.62501e-07
9.76949e-07
9.9086e-07
1.00428e-06
1.01723e-06
1.02977e-06
1.0419e-06
1.05367e-06
1.06509e-06
1.07618e-06
1.08696e-06
1.09746e-06
1.10768e-06
1.11764e-06
1.12735e-06
1.13682e-06
1.14607e-06
1.15509e-06
1.16391e-06
1.17252e-06
1.18093e-06
1.18916e-06
1.1972e-06
1.20506e-06
1.21274e-06
1.22025e-06
1.22759e-06
1.23477e-06
1.24178e-06
1.24864e-06
1.25533e-06
1.26186e-06
)
;
    }
    inandouthalf31
    {
        type            cyclic;
        value           nonuniform List<scalar> 
110
(
-1.26823e-06
-1.30038e-06
-1.33326e-06
-1.36689e-06
-1.40128e-06
-1.43642e-06
-1.47231e-06
-1.50896e-06
-1.54636e-06
-1.5845e-06
-1.62337e-06
-1.66296e-06
-1.70323e-06
-1.74417e-06
-1.78574e-06
-1.82792e-06
-1.87066e-06
-1.91393e-06
-1.95768e-06
-2.0019e-06
-2.04655e-06
-2.09162e-06
-2.13711e-06
-2.18303e-06
-2.2294e-06
-2.27625e-06
-2.32363e-06
-2.37156e-06
-2.4201e-06
-2.46929e-06
-2.51916e-06
-2.56974e-06
-2.62108e-06
-2.67319e-06
-2.7261e-06
-2.77984e-06
-2.83443e-06
-2.88989e-06
-2.94625e-06
-3.00352e-06
-3.06172e-06
-3.12088e-06
-3.18102e-06
-3.24216e-06
-3.30432e-06
-3.36752e-06
-3.43181e-06
-3.49719e-06
-3.5637e-06
-3.63137e-06
-3.70024e-06
-3.77033e-06
-3.8417e-06
-3.91438e-06
-3.98842e-06
-4.06387e-06
-4.14079e-06
-4.21924e-06
-4.29929e-06
-4.38102e-06
-4.46452e-06
-4.54988e-06
-4.6372e-06
-4.72662e-06
-4.81826e-06
-4.91227e-06
-5.0088e-06
-5.108e-06
-5.21002e-06
-5.31501e-06
-5.42277e-06
-5.53284e-06
-5.64514e-06
-5.75972e-06
-5.87663e-06
-5.99591e-06
-6.11761e-06
-6.24178e-06
-6.36847e-06
-6.49774e-06
-6.62962e-06
-6.76419e-06
-6.90148e-06
-7.04156e-06
-7.18449e-06
-7.33031e-06
-7.4791e-06
-7.63091e-06
-7.78579e-06
-7.94382e-06
-8.10506e-06
-8.26957e-06
-8.43742e-06
-8.60868e-06
-8.78341e-06
-8.96169e-06
-9.14359e-06
-9.32918e-06
-9.51854e-06
-9.71174e-06
-9.90886e-06
-1.011e-05
-1.03152e-05
-1.05246e-05
-1.07382e-05
-1.09561e-05
-1.11785e-05
-1.14054e-05
-1.16369e-05
-1.18731e-05
)
;
    }
    inandouthalf32
    {
        type            cyclic;
        value           nonuniform List<scalar> 
110
(
1.26823e-06
1.30038e-06
1.33326e-06
1.36689e-06
1.40128e-06
1.43642e-06
1.47231e-06
1.50896e-06
1.54636e-06
1.5845e-06
1.62337e-06
1.66296e-06
1.70323e-06
1.74417e-06
1.78574e-06
1.82792e-06
1.87066e-06
1.91393e-06
1.95768e-06
2.0019e-06
2.04655e-06
2.09162e-06
2.13711e-06
2.18303e-06
2.2294e-06
2.27625e-06
2.32363e-06
2.37156e-06
2.4201e-06
2.46929e-06
2.51916e-06
2.56974e-06
2.62108e-06
2.67319e-06
2.7261e-06
2.77984e-06
2.83443e-06
2.88989e-06
2.94625e-06
3.00352e-06
3.06172e-06
3.12088e-06
3.18102e-06
3.24216e-06
3.30432e-06
3.36752e-06
3.43181e-06
3.49719e-06
3.5637e-06
3.63137e-06
3.70024e-06
3.77033e-06
3.8417e-06
3.91438e-06
3.98842e-06
4.06387e-06
4.14079e-06
4.21924e-06
4.29929e-06
4.38102e-06
4.46452e-06
4.54988e-06
4.6372e-06
4.72662e-06
4.81826e-06
4.91227e-06
5.0088e-06
5.108e-06
5.21002e-06
5.31501e-06
5.42277e-06
5.53284e-06
5.64514e-06
5.75972e-06
5.87663e-06
5.99591e-06
6.11761e-06
6.24178e-06
6.36847e-06
6.49774e-06
6.62962e-06
6.76419e-06
6.90148e-06
7.04156e-06
7.18449e-06
7.33031e-06
7.4791e-06
7.63091e-06
7.78579e-06
7.94382e-06
8.10506e-06
8.26957e-06
8.43742e-06
8.60868e-06
8.78341e-06
8.96169e-06
9.14359e-06
9.32918e-06
9.51854e-06
9.71174e-06
9.90886e-06
1.011e-05
1.03152e-05
1.05246e-05
1.07382e-05
1.09561e-05
1.11785e-05
1.14054e-05
1.16369e-05
1.18731e-05
)
;
    }
    inandouthalf41
    {
        type            cyclic;
        value           nonuniform List<scalar> 
50
(
-1.06276e-05
-1.06276e-05
-1.06276e-05
-1.06276e-05
-1.06276e-05
-1.06276e-05
-1.06276e-05
-1.06276e-05
-1.06276e-05
-1.06276e-05
-1.06276e-05
-1.06276e-05
-1.06276e-05
-1.06276e-05
-1.06276e-05
-1.06276e-05
-1.06276e-05
-1.06276e-05
-1.06276e-05
-1.06276e-05
-1.06276e-05
-1.06276e-05
-1.06276e-05
-1.06276e-05
-1.06276e-05
-1.06276e-05
-1.06276e-05
-1.06276e-05
-1.06276e-05
-1.06276e-05
-1.06276e-05
-1.06276e-05
-1.06276e-05
-1.06276e-05
-1.06276e-05
-1.06276e-05
-1.06276e-05
-1.06276e-05
-1.06276e-05
-1.06276e-05
-1.06276e-05
-1.06276e-05
-1.06276e-05
-1.06276e-05
-1.06276e-05
-1.06276e-05
-1.06276e-05
-1.06276e-05
-1.06276e-05
-1.06276e-05
)
;
    }
    inandouthalf42
    {
        type            cyclic;
        value           nonuniform List<scalar> 
50
(
1.06276e-05
1.06276e-05
1.06276e-05
1.06276e-05
1.06276e-05
1.06276e-05
1.06276e-05
1.06276e-05
1.06276e-05
1.06276e-05
1.06276e-05
1.06276e-05
1.06276e-05
1.06276e-05
1.06276e-05
1.06276e-05
1.06276e-05
1.06276e-05
1.06276e-05
1.06276e-05
1.06276e-05
1.06276e-05
1.06276e-05
1.06276e-05
1.06276e-05
1.06276e-05
1.06276e-05
1.06276e-05
1.06276e-05
1.06276e-05
1.06276e-05
1.06276e-05
1.06276e-05
1.06276e-05
1.06276e-05
1.06276e-05
1.06276e-05
1.06276e-05
1.06276e-05
1.06276e-05
1.06276e-05
1.06276e-05
1.06276e-05
1.06276e-05
1.06276e-05
1.06276e-05
1.06276e-05
1.06276e-05
1.06276e-05
1.06276e-05
)
;
    }
    top
    {
        type            symmetryPlane;
        value           uniform 0;
    }
    walls
    {
        type            fixedValue;
        value           uniform 0;
    }
    frontAndBackPlanes
    {
        type            empty;
        value           nonuniform 0();
    }
}


// ************************************************************************* //
