/*--------------------------------*- C++ -*----------------------------------*\
| =========                 |                                                 |
| \\      /  F ield         | OpenFOAM: The Open Source CFD Toolbox           |
|  \\    /   O peration     | Version:  2.4.x                                 |
|   \\  /    A nd           | Web:      www.OpenFOAM.org                      |
|    \\/     M anipulation  |                                                 |
\*---------------------------------------------------------------------------*/
FoamFile
{
    version     2.0;
    format      ascii;
    class       volScalarField;
    location    "9.55";
    object      Theta;
}
// * * * * * * * * * * * * * * * * * * * * * * * * * * * * * * * * * * * * * //

dimensions      [0 2 -2 0 0 0 0];

internalField   nonuniform List<scalar> 
360
(
6.66144e-21
6.66158e-21
6.66152e-21
6.66151e-21
6.66151e-21
6.66152e-21
6.66152e-21
6.66152e-21
6.66152e-21
6.66153e-21
6.66153e-21
6.66154e-21
6.66154e-21
6.66155e-21
6.66155e-21
6.66156e-21
6.66157e-21
6.66157e-21
6.66158e-21
6.66159e-21
6.66159e-21
6.6616e-21
6.66161e-21
6.66162e-21
6.66163e-21
6.66163e-21
6.66164e-21
6.66165e-21
6.66166e-21
6.66166e-21
6.66167e-21
6.66168e-21
6.66168e-21
6.66169e-21
6.6617e-21
6.6617e-21
6.66171e-21
6.66172e-21
6.66172e-21
6.66173e-21
6.66173e-21
6.66173e-21
6.66174e-21
6.66174e-21
6.66174e-21
6.66174e-21
6.66175e-21
6.66175e-21
6.66175e-21
6.66175e-21
6.66175e-21
6.66174e-21
6.66174e-21
6.66174e-21
6.66174e-21
6.66173e-21
6.66173e-21
6.66173e-21
6.66172e-21
6.66171e-21
6.66171e-21
6.6617e-21
6.6617e-21
6.66169e-21
6.66168e-21
6.66167e-21
6.66167e-21
6.66166e-21
6.66165e-21
6.66164e-21
6.66163e-21
6.66163e-21
6.66162e-21
6.66161e-21
6.6616e-21
6.66159e-21
6.66158e-21
6.66157e-21
6.66157e-21
6.66156e-21
6.66155e-21
6.66154e-21
6.66153e-21
6.66152e-21
6.66152e-21
6.66151e-21
6.6615e-21
6.66149e-21
6.66149e-21
6.66148e-21
6.66147e-21
6.66146e-21
6.66146e-21
6.66145e-21
6.66144e-21
6.66144e-21
6.66143e-21
6.66142e-21
6.66142e-21
6.66141e-21
6.66141e-21
6.6614e-21
6.66139e-21
6.66139e-21
6.66138e-21
6.66138e-21
6.66137e-21
6.66137e-21
6.66136e-21
6.66136e-21
6.66135e-21
6.66135e-21
6.66134e-21
6.66134e-21
6.66133e-21
6.66133e-21
6.66132e-21
6.66132e-21
6.66131e-21
6.66131e-21
6.6613e-21
6.6613e-21
6.66129e-21
6.66129e-21
6.66128e-21
6.66128e-21
8.74029e-21
4.27959e-20
2.53312e-19
1.49381e-18
8.6765e-18
4.97775e-17
2.83948e-16
1.62905e-15
9.57353e-15
5.923e-14
4.00735e-13
3.10717e-12
2.89675e-11
3.38745e-10
5.59322e-09
2.30139e-07
8.8789e-06
0.000120383
0.000974939
0.00257202
0.00351253
0.00405654
0.00443281
0.00472004
0.00492654
0.00519026
0.00545853
0.00571808
0.00596601
0.00620177
0.00642537
0.00663661
0.00683536
0.00702118
0.00719367
0.00735254
0.00749751
0.00762839
0.0077451
0.00784776
0.0079365
0.00801163
0.00807344
0.00812238
0.00815884
0.00818333
0.00819632
0.00819834
0.00818991
0.00817157
0.00814384
0.00810723
0.00806228
0.00800949
0.00794936
0.00788236
0.00780893
0.00772947
0.00764434
0.00755385
0.00745829
0.00735799
0.00725326
0.00714443
0.00703191
0.00691608
0.00679738
0.00667624
0.00655308
0.00642836
0.0063025
0.00617594
0.00604912
0.00592246
0.00579638
0.00566999
0.00554247
0.00541423
0.00528572
0.00515736
0.00502958
0.00490275
0.00477715
0.00465298
0.00453031
0.00440905
0.004289
0.00416984
0.00405121
0.00393272
0.00381396
0.00369454
0.00357405
0.0034521
0.00332825
0.00320207
0.00307306
0.0029407
0.0028044
0.00266349
0.00251721
0.00236468
0.00220483
0.00203638
0.00185767
0.0016665
0.00145976
0.00123267
0.000976866
0.000674309
0
0
0
0
0
0
0
0
0
0
0
0
0
0
0
0
0
0
0
0
0
0
0
0
0
0
0
0
0
0
0
0
0
0
0
0
0
0
0
0
0
0
0
0
0
0
0
0
0
0
0
0
0
0
0
0
0
0
0
0
0
0
0
0
0
0
0
0
0
0
0
0
0
0
0
0
0
0
0
0
0
0
0
0
0
0
0
0
0
0
0
0
0
0
0
0
0
0
0
0
0
0
0
0
0
0
0
0
0
0
0
0
0
0
0
0
0
0
0
0
0
0
0
0
)
;

boundaryField
{
    inandouthalf11
    {
        type            cyclic;
    }
    inandouthalf12
    {
        type            cyclic;
    }
    inandouthalf21
    {
        type            cyclic;
    }
    inandouthalf22
    {
        type            cyclic;
    }
    inandouthalf31
    {
        type            cyclic;
    }
    inandouthalf32
    {
        type            cyclic;
    }
    inandouthalf41
    {
        type            cyclic;
    }
    inandouthalf42
    {
        type            cyclic;
    }
    top
    {
        type            symmetryPlane;
    }
    walls
    {
        type            zeroGradient;
    }
    frontAndBackPlanes
    {
        type            empty;
    }
}


// ************************************************************************* //
