/*--------------------------------*- C++ -*----------------------------------*\
| =========                 |                                                 |
| \\      /  F ield         | OpenFOAM: The Open Source CFD Toolbox           |
|  \\    /   O peration     | Version:  2.4.x                                 |
|   \\  /    A nd           | Web:      www.OpenFOAM.org                      |
|    \\/     M anipulation  |                                                 |
\*---------------------------------------------------------------------------*/
FoamFile
{
    version     2.0;
    format      ascii;
    class       volScalarField;
    location    "12.35";
    object      alpha;
}
// * * * * * * * * * * * * * * * * * * * * * * * * * * * * * * * * * * * * * //

dimensions      [0 0 0 0 0 0 0];

internalField   nonuniform List<scalar> 
360
(
0.610896
0.611764
0.611854
0.611763
0.611722
0.611708
0.611691
0.611669
0.611647
0.611624
0.611601
0.611578
0.611555
0.611532
0.611508
0.611484
0.61146
0.611436
0.611411
0.611386
0.611362
0.611336
0.611311
0.611285
0.611259
0.611232
0.611206
0.611179
0.611151
0.611124
0.611096
0.611068
0.61104
0.611011
0.610982
0.610952
0.610923
0.610893
0.610862
0.610832
0.610801
0.610769
0.610738
0.610706
0.610673
0.610641
0.610607
0.610574
0.61054
0.610506
0.610471
0.610436
0.6104
0.610364
0.610328
0.610291
0.610254
0.610216
0.610177
0.610139
0.610099
0.61006
0.610019
0.609978
0.609937
0.609895
0.609853
0.609809
0.609766
0.609722
0.609676
0.609631
0.609585
0.609538
0.60949
0.609442
0.609393
0.609343
0.609293
0.609241
0.609189
0.609136
0.609082
0.609028
0.608972
0.608915
0.608858
0.608799
0.60874
0.608679
0.608617
0.608555
0.608491
0.608425
0.608359
0.608291
0.608222
0.608152
0.60808
0.608006
0.607931
0.607855
0.607777
0.607697
0.607615
0.607531
0.607446
0.607358
0.607269
0.607177
0.607083
0.606986
0.606887
0.606786
0.606681
0.606574
0.606464
0.606351
0.606235
0.606115
0.605991
0.605863
0.605732
0.605596
0.605456
0.60531
0.60516
0.605004
0.604842
0.604674
0.604499
0.604317
0.604127
0.603927
0.603713
0.603485
0.603245
0.602987
0.602702
0.602378
0.602028
0.601615
0.598783
0.599203
0.598689
0.597837
0.594843
0.44788
0.288468
0.227381
0.190041
0.159165
0.132582
0.109549
0.0898191
0.0732025
0.0594368
0.0481835
0.0390697
0.0317295
0.0258322
0.0210944
0.0172822
0.0142066
0.011717
0.00969426
0.0080446
0.006694
0.0055841
0.00466869
0.00391107
0.00328199
0.00275801
0.00232024
0.00195333
0.0016446
0.00138347
0.00116124
0.000971281
0.000809143
0.000672094
0.000558134
0.000465036
0.000390012
0.000329966
0.000281912
0.000243258
0.000211902
0.000186204
0.000164913
0.000147077
0.000131979
0.000119069
0.000107927
9.82266e-05
8.97147e-05
8.21909e-05
7.5496e-05
6.95024e-05
6.41071e-05
5.92265e-05
5.47469e-05
5.05848e-05
4.67103e-05
4.30978e-05
3.97256e-05
3.65752e-05
3.36307e-05
3.08784e-05
2.83065e-05
2.59045e-05
2.36628e-05
2.15728e-05
1.96262e-05
1.78153e-05
1.61328e-05
1.45716e-05
1.31251e-05
1.17872e-05
1.05521e-05
9.4145e-06
8.36948e-06
7.41239e-06
6.53869e-06
5.74361e-06
5.02164e-06
4.36567e-06
3.76622e-06
3.21175e-06
2.69147e-06
2.20309e-06
1.76472e-06
1.41588e-06
1.18223e-06
1.02819e-06
8.92315e-07
7.81606e-07
6.23774e-07
4.88248e-07
3.81027e-07
2.96106e-07
2.28794e-07
1.75451e-07
1.33232e-07
9.98981e-08
7.36739e-08
5.31443e-08
3.71767e-08
2.48436e-08
1.53981e-08
8.34836e-09
2.7763e-09
1.4304e-11
1.22216e-22
7.51674e-34
3.78868e-45
1.53813e-56
5.06728e-68
4.18072e-76
2.20558e-76
1.07785e-76
5.41551e-77
2.67886e-77
1.30509e-77
6.25568e-78
2.94873e-78
1.36615e-78
6.21782e-79
2.77848e-79
1.21831e-79
5.23867e-80
2.2076e-80
9.11101e-81
3.68002e-81
1.45361e-81
5.61068e-82
2.11439e-82
7.77266e-83
2.78453e-83
9.7116e-84
3.29356e-84
1.08481e-84
3.46639e-85
1.07316e-85
3.21428e-86
9.29944e-87
2.59444e-87
6.96694e-88
1.7971e-88
4.44295e-89
1.05021e-89
2.36708e-90
5.07185e-91
1.0296e-91
1.9727e-92
3.55186e-93
5.97982e-94
9.35943e-95
1.35267e-95
1.79067e-96
2.1502e-97
2.31394e-98
2.19794e-99
1.80644e-100
1.25025e-101
7.007e-103
2.99028e-104
8.69492e-106
1.32119e-107
1.10973e-110
3.48024e-118
1.90478e-120
5.15205e-123
2.46643e-133
6.02859e-144
1.0979e-154
1.47416e-165
1.70376e-176
1.55667e-187
1.20566e-198
1.36278e-209
4.41495e-220
1.99527e-228
1.14357e-238
6.86042e-247
4.62494e-257
2.36289e-265
1.94015e-275
8.15459e-284
1.23828e-293
2.91104e-302
8.21699e-312
8.05327e-322
6.79834e-321
7.96928e-321
7.83094e-321
2.51973e-321
8.86848e-321
4.57737e-319
2.8055e-319
6.80328e-321
7.09478e-321
6.08689e-321
8.5424e-321
0
0
0
0
0
0
0
0
0
0
0
0
0
0
0
0
)
;

boundaryField
{
    inandouthalf11
    {
        type            cyclic;
    }
    inandouthalf12
    {
        type            cyclic;
    }
    inandouthalf21
    {
        type            cyclic;
    }
    inandouthalf22
    {
        type            cyclic;
    }
    inandouthalf31
    {
        type            cyclic;
    }
    inandouthalf32
    {
        type            cyclic;
    }
    inandouthalf41
    {
        type            cyclic;
    }
    inandouthalf42
    {
        type            cyclic;
    }
    top
    {
        type            symmetryPlane;
    }
    walls
    {
        type            zeroGradient;
    }
    frontAndBackPlanes
    {
        type            empty;
    }
}


// ************************************************************************* //
