/*--------------------------------*- C++ -*----------------------------------*\
| =========                 |                                                 |
| \\      /  F ield         | OpenFOAM: The Open Source CFD Toolbox           |
|  \\    /   O peration     | Version:  2.4.x                                 |
|   \\  /    A nd           | Web:      www.OpenFOAM.org                      |
|    \\/     M anipulation  |                                                 |
\*---------------------------------------------------------------------------*/
FoamFile
{
    version     2.0;
    format      ascii;
    class       volScalarField;
    location    "12.35";
    object      alpha_0;
}
// * * * * * * * * * * * * * * * * * * * * * * * * * * * * * * * * * * * * * //

dimensions      [0 0 0 0 0 0 0];

internalField   nonuniform List<scalar> 
360
(
0.610896
0.611764
0.611854
0.611763
0.611722
0.611708
0.611691
0.611669
0.611647
0.611624
0.611601
0.611578
0.611555
0.611532
0.611508
0.611484
0.61146
0.611436
0.611411
0.611386
0.611362
0.611336
0.611311
0.611285
0.611259
0.611232
0.611206
0.611179
0.611151
0.611124
0.611096
0.611068
0.61104
0.611011
0.610982
0.610952
0.610923
0.610893
0.610862
0.610832
0.610801
0.610769
0.610738
0.610706
0.610673
0.610641
0.610607
0.610574
0.61054
0.610506
0.610471
0.610436
0.6104
0.610364
0.610328
0.610291
0.610254
0.610216
0.610177
0.610139
0.610099
0.61006
0.610019
0.609978
0.609937
0.609895
0.609853
0.609809
0.609766
0.609722
0.609676
0.609631
0.609585
0.609538
0.60949
0.609442
0.609393
0.609343
0.609293
0.609241
0.609189
0.609136
0.609082
0.609028
0.608972
0.608915
0.608858
0.608799
0.60874
0.608679
0.608617
0.608555
0.608491
0.608425
0.608359
0.608291
0.608222
0.608152
0.60808
0.608006
0.607931
0.607855
0.607777
0.607697
0.607615
0.607531
0.607446
0.607358
0.607269
0.607177
0.607083
0.606986
0.606887
0.606786
0.606681
0.606574
0.606464
0.606351
0.606235
0.606115
0.605991
0.605863
0.605732
0.605596
0.605456
0.60531
0.60516
0.605004
0.604842
0.604674
0.604499
0.604317
0.604127
0.603927
0.603713
0.603485
0.603245
0.602987
0.602702
0.602378
0.602028
0.601615
0.598783
0.599203
0.598689
0.597837
0.594842
0.447859
0.288463
0.227382
0.190043
0.159168
0.132586
0.109553
0.0898224
0.0732055
0.0594394
0.0481857
0.0390714
0.0317309
0.0258332
0.0210951
0.0172827
0.0142069
0.0117171
0.00969433
0.00804459
0.00669393
0.00558398
0.00466854
0.0039109
0.0032818
0.00275781
0.00232004
0.00195313
0.0016444
0.00138327
0.00116104
0.000971087
0.000808956
0.000671922
0.000557983
0.000464909
0.000389909
0.000329884
0.000281848
0.000243209
0.000211864
0.000186175
0.00016489
0.00014706
0.000131966
0.000119059
0.000107919
9.82212e-05
8.97109e-05
8.21882e-05
7.54942e-05
6.95014e-05
6.41067e-05
5.92264e-05
5.47473e-05
5.05854e-05
4.67111e-05
4.30987e-05
3.97266e-05
3.65763e-05
3.36318e-05
3.08795e-05
2.83075e-05
2.59055e-05
2.36638e-05
2.15737e-05
1.9627e-05
1.78161e-05
1.61335e-05
1.45722e-05
1.31257e-05
1.17877e-05
1.05526e-05
9.41493e-06
8.36986e-06
7.41274e-06
6.53899e-06
5.74388e-06
5.02187e-06
4.36587e-06
3.7664e-06
3.21191e-06
2.6916e-06
2.2032e-06
1.76481e-06
1.41593e-06
1.18226e-06
1.02822e-06
8.92335e-07
7.8161e-07
6.2377e-07
4.88258e-07
3.81044e-07
2.96126e-07
2.28814e-07
1.7547e-07
1.3325e-07
9.99128e-08
7.36859e-08
5.31539e-08
3.7184e-08
2.48491e-08
1.54023e-08
8.35083e-09
2.77885e-09
1.43667e-11
1.22713e-22
7.54219e-34
3.798e-45
1.54021e-56
5.06785e-68
4.19518e-76
2.21328e-76
1.08161e-76
5.43446e-77
2.68823e-77
1.30966e-77
6.27757e-78
2.95905e-78
1.37094e-78
6.2396e-79
2.78821e-79
1.22257e-79
5.25703e-80
2.21534e-80
9.14297e-81
3.69294e-81
1.45871e-81
5.63037e-82
2.12182e-82
7.79997e-83
2.79431e-83
9.74575e-84
3.30514e-84
1.08862e-84
3.47859e-85
1.07694e-85
3.22561e-86
9.33222e-87
2.60359e-87
6.99151e-88
1.80344e-88
4.45864e-89
1.05392e-89
2.37544e-90
5.08978e-91
1.03324e-91
1.97968e-92
3.56443e-93
6.00101e-94
9.39261e-95
1.35747e-95
1.79702e-96
2.15784e-97
2.32216e-98
2.20576e-99
1.81287e-100
1.2547e-101
7.03198e-103
3.00096e-104
8.72599e-106
1.32592e-107
1.11376e-110
3.49386e-118
1.91226e-120
5.17237e-123
2.47592e-133
6.05122e-144
1.10194e-154
1.47948e-165
1.70981e-176
1.56206e-187
1.20976e-198
1.36767e-209
4.4318e-220
2.00314e-228
1.14801e-238
6.88748e-247
4.64294e-257
2.37221e-265
1.94772e-275
8.18675e-284
1.24313e-293
2.92251e-302
8.24921e-312
8.05327e-322
6.79834e-321
7.96928e-321
7.83094e-321
2.51973e-321
8.86848e-321
4.57737e-319
2.8055e-319
6.80328e-321
7.09478e-321
6.08689e-321
8.5424e-321
0
0
0
0
0
0
0
0
0
0
0
0
0
0
0
0
)
;

boundaryField
{
    inandouthalf11
    {
        type            cyclic;
    }
    inandouthalf12
    {
        type            cyclic;
    }
    inandouthalf21
    {
        type            cyclic;
    }
    inandouthalf22
    {
        type            cyclic;
    }
    inandouthalf31
    {
        type            cyclic;
    }
    inandouthalf32
    {
        type            cyclic;
    }
    inandouthalf41
    {
        type            cyclic;
    }
    inandouthalf42
    {
        type            cyclic;
    }
    top
    {
        type            symmetryPlane;
    }
    walls
    {
        type            zeroGradient;
    }
    frontAndBackPlanes
    {
        type            empty;
    }
}


// ************************************************************************* //
