/*--------------------------------*- C++ -*----------------------------------*\
| =========                 |                                                 |
| \\      /  F ield         | OpenFOAM: The Open Source CFD Toolbox           |
|  \\    /   O peration     | Version:  2.4.x                                 |
|   \\  /    A nd           | Web:      www.OpenFOAM.org                      |
|    \\/     M anipulation  |                                                 |
\*---------------------------------------------------------------------------*/
FoamFile
{
    version     2.0;
    format      ascii;
    class       volVectorField;
    location    "12.35";
    object      ddt0(Ub);
}
// * * * * * * * * * * * * * * * * * * * * * * * * * * * * * * * * * * * * * //

dimensions      [0 1 -2 0 0 0 0];

internalField   nonuniform List<vector> 
360
(
(3.77519e-05 -9.05905e-10 0)
(3.75413e-05 -3.21784e-09 0)
(3.75137e-05 -5.96992e-09 0)
(3.75428e-05 -8.64451e-09 0)
(3.75569e-05 -1.1408e-08 0)
(3.75618e-05 -1.4349e-08 0)
(3.7568e-05 -1.74468e-08 0)
(3.75759e-05 -2.06765e-08 0)
(3.75839e-05 -2.40288e-08 0)
(3.75921e-05 -2.75091e-08 0)
(3.76003e-05 -3.11179e-08 0)
(3.76086e-05 -3.48479e-08 0)
(3.7617e-05 -3.86899e-08 0)
(3.76255e-05 -4.26279e-08 0)
(3.76341e-05 -4.66426e-08 0)
(3.76428e-05 -5.07251e-08 0)
(3.76516e-05 -5.48639e-08 0)
(3.76605e-05 -5.90372e-08 0)
(3.76695e-05 -6.32289e-08 0)
(3.76786e-05 -6.74192e-08 0)
(3.76878e-05 -7.15837e-08 0)
(3.76971e-05 -7.57098e-08 0)
(3.77064e-05 -7.9779e-08 0)
(3.77158e-05 -8.37697e-08 0)
(3.77254e-05 -8.76736e-08 0)
(3.77349e-05 -9.14773e-08 0)
(3.77446e-05 -9.51603e-08 0)
(3.77543e-05 -9.87069e-08 0)
(3.77641e-05 -1.02113e-07 0)
(3.77739e-05 -1.05373e-07 0)
(3.77838e-05 -1.08473e-07 0)
(3.77938e-05 -1.11412e-07 0)
(3.78038e-05 -1.14191e-07 0)
(3.7814e-05 -1.16805e-07 0)
(3.78241e-05 -1.19249e-07 0)
(3.78344e-05 -1.21527e-07 0)
(3.78446e-05 -1.23641e-07 0)
(3.7855e-05 -1.256e-07 0)
(3.78655e-05 -1.27409e-07 0)
(3.78759e-05 -1.29064e-07 0)
(3.78865e-05 -1.30578e-07 0)
(3.78972e-05 -1.31966e-07 0)
(3.79079e-05 -1.33227e-07 0)
(3.79188e-05 -1.3437e-07 0)
(3.79297e-05 -1.35407e-07 0)
(3.79407e-05 -1.36347e-07 0)
(3.79518e-05 -1.37196e-07 0)
(3.7963e-05 -1.3796e-07 0)
(3.79743e-05 -1.38649e-07 0)
(3.79858e-05 -1.39281e-07 0)
(3.79973e-05 -1.39858e-07 0)
(3.8009e-05 -1.40386e-07 0)
(3.80207e-05 -1.40876e-07 0)
(3.80327e-05 -1.41328e-07 0)
(3.80447e-05 -1.41749e-07 0)
(3.80569e-05 -1.42156e-07 0)
(3.80692e-05 -1.42548e-07 0)
(3.80817e-05 -1.4293e-07 0)
(3.80944e-05 -1.43307e-07 0)
(3.81071e-05 -1.43685e-07 0)
(3.81201e-05 -1.44071e-07 0)
(3.81331e-05 -1.44464e-07 0)
(3.81465e-05 -1.44872e-07 0)
(3.81599e-05 -1.45296e-07 0)
(3.81735e-05 -1.45735e-07 0)
(3.81873e-05 -1.46193e-07 0)
(3.82013e-05 -1.46677e-07 0)
(3.82156e-05 -1.47189e-07 0)
(3.823e-05 -1.4772e-07 0)
(3.82445e-05 -1.48274e-07 0)
(3.82594e-05 -1.4886e-07 0)
(3.82745e-05 -1.49481e-07 0)
(3.82896e-05 -1.50129e-07 0)
(3.83051e-05 -1.50807e-07 0)
(3.83208e-05 -1.51514e-07 0)
(3.83369e-05 -1.52246e-07 0)
(3.8353e-05 -1.53008e-07 0)
(3.83695e-05 -1.53803e-07 0)
(3.83862e-05 -1.54625e-07 0)
(3.84032e-05 -1.55477e-07 0)
(3.84204e-05 -1.56354e-07 0)
(3.84379e-05 -1.57255e-07 0)
(3.84558e-05 -1.58186e-07 0)
(3.84739e-05 -1.59142e-07 0)
(3.84924e-05 -1.6012e-07 0)
(3.85111e-05 -1.61121e-07 0)
(3.85302e-05 -1.6214e-07 0)
(3.85496e-05 -1.63178e-07 0)
(3.85693e-05 -1.64237e-07 0)
(3.85895e-05 -1.65314e-07 0)
(3.86099e-05 -1.66405e-07 0)
(3.86308e-05 -1.67515e-07 0)
(3.8652e-05 -1.68639e-07 0)
(3.86737e-05 -1.69773e-07 0)
(3.86958e-05 -1.70914e-07 0)
(3.87183e-05 -1.72065e-07 0)
(3.87413e-05 -1.7323e-07 0)
(3.87647e-05 -1.74399e-07 0)
(3.87886e-05 -1.75569e-07 0)
(3.8813e-05 -1.76743e-07 0)
(3.88379e-05 -1.77919e-07 0)
(3.88634e-05 -1.791e-07 0)
(3.88894e-05 -1.8028e-07 0)
(3.8916e-05 -1.81458e-07 0)
(3.89432e-05 -1.82634e-07 0)
(3.89711e-05 -1.83805e-07 0)
(3.89995e-05 -1.84974e-07 0)
(3.90287e-05 -1.86143e-07 0)
(3.90586e-05 -1.87306e-07 0)
(3.90892e-05 -1.88463e-07 0)
(3.91206e-05 -1.89613e-07 0)
(3.91527e-05 -1.90754e-07 0)
(3.91858e-05 -1.91887e-07 0)
(3.92197e-05 -1.93014e-07 0)
(3.92545e-05 -1.94133e-07 0)
(3.92903e-05 -1.9524e-07 0)
(3.9327e-05 -1.96337e-07 0)
(3.93649e-05 -1.97426e-07 0)
(3.94039e-05 -1.98502e-07 0)
(3.9444e-05 -1.99564e-07 0)
(3.94854e-05 -2.00605e-07 0)
(3.95281e-05 -2.01624e-07 0)
(3.95722e-05 -2.02618e-07 0)
(3.96178e-05 -2.03586e-07 0)
(3.96649e-05 -2.04529e-07 0)
(3.97137e-05 -2.0544e-07 0)
(3.97643e-05 -2.06325e-07 0)
(3.98167e-05 -2.07184e-07 0)
(3.98712e-05 -2.08016e-07 0)
(3.99279e-05 -2.08825e-07 0)
(3.99869e-05 -2.0962e-07 0)
(4.00484e-05 -2.10407e-07 0)
(4.01128e-05 -2.11178e-07 0)
(4.01807e-05 -2.11926e-07 0)
(4.02532e-05 -2.12627e-07 0)
(4.03305e-05 -2.13244e-07 0)
(4.04122e-05 -2.13721e-07 0)
(4.04996e-05 -2.13999e-07 0)
(4.05963e-05 -2.14061e-07 0)
(4.07065e-05 -2.13955e-07 0)
(4.08256e-05 -2.13702e-07 0)
(4.09672e-05 -2.11797e-07 0)
(4.19427e-05 -2.17149e-07 0)
(4.17977e-05 -1.33693e-07 0)
(4.19771e-05 -4.73296e-07 0)
(4.24452e-05 8.33119e-07 0)
(0.000204932 -4.35897e-06 0)
(0.0471053 7.13365e-06 0)
(0.0711499 0.000114668 0)
(0.0711573 6.10008e-05 0)
(0.0751533 6.43237e-05 0)
(0.0805181 5.46605e-05 0)
(0.0864142 4.60506e-05 0)
(0.0924418 3.88818e-05 0)
(0.0983818 3.32587e-05 0)
(0.104112 2.9102e-05 0)
(0.109569 2.61625e-05 0)
(0.114727 2.40956e-05 0)
(0.119583 2.25669e-05 0)
(0.124147 2.12995e-05 0)
(0.128434 2.0141e-05 0)
(0.132458 1.89966e-05 0)
(0.136235 1.7793e-05 0)
(0.139773 1.65189e-05 0)
(0.143082 1.51812e-05 0)
(0.146163 1.37955e-05 0)
(0.149018 1.23813e-05 0)
(0.151641 1.09589e-05 0)
(0.154025 9.54717e-06 0)
(0.15616 8.1624e-06 0)
(0.158032 6.81793e-06 0)
(0.159623 5.52457e-06 0)
(0.160913 4.28986e-06 0)
(0.161881 3.11435e-06 0)
(0.162501 1.98458e-06 0)
(0.162746 8.70244e-07 0)
(0.162587 -2.59945e-07 0)
(0.161994 -1.39883e-06 0)
(0.160937 -2.46403e-06 0)
(0.159388 -3.31117e-06 0)
(0.157321 -3.81045e-06 0)
(0.15472 -3.92788e-06 0)
(0.151575 -3.73941e-06 0)
(0.147887 -3.37498e-06 0)
(0.143672 -2.95168e-06 0)
(0.138958 -2.54266e-06 0)
(0.133786 -2.18057e-06 0)
(0.128216 -1.87338e-06 0)
(0.12232 -1.61763e-06 0)
(0.116179 -1.40598e-06 0)
(0.109888 -1.23067e-06 0)
(0.103539 -1.08481e-06 0)
(0.0972261 -9.62926e-07 0)
(0.0910334 -8.59712e-07 0)
(0.0850342 -7.7145e-07 0)
(0.0792871 -6.95872e-07 0)
(0.0738347 -6.30498e-07 0)
(0.0687042 -5.7347e-07 0)
(0.0639085 -5.23372e-07 0)
(0.0594483 -4.79075e-07 0)
(0.0553153 -4.39665e-07 0)
(0.0514554 -4.04054e-07 0)
(0.0478241 -3.71463e-07 0)
(0.0444134 -3.41558e-07 0)
(0.0412117 -3.14053e-07 0)
(0.0382051 -2.88705e-07 0)
(0.0353784 -2.65309e-07 0)
(0.0327156 -2.43683e-07 0)
(0.0302009 -2.23673e-07 0)
(0.0278189 -2.0515e-07 0)
(0.0255548 -1.87999e-07 0)
(0.0233951 -1.72107e-07 0)
(0.0213273 -1.5738e-07 0)
(0.01934 -1.43733e-07 0)
(0.0174232 -1.31083e-07 0)
(0.0155678 -1.19352e-07 0)
(0.0137659 -1.08478e-07 0)
(0.0120108 -9.83972e-08 0)
(0.0102963 -8.90487e-08 0)
(0.00861733 -8.0387e-08 0)
(0.00696961 -7.23677e-08 0)
(0.00534941 -6.49541e-08 0)
(0.00375365 -5.81106e-08 0)
(0.00217978 -5.18082e-08 0)
(0.000625732 -4.60166e-08 0)
(-0.000910154 -4.06968e-08 0)
(-0.00242917 -3.58055e-08 0)
(-0.00393228 -3.12689e-08 0)
(-0.00542016 -2.69901e-08 0)
(-0.00689321 -2.28825e-08 0)
(-0.00835161 -1.89401e-08 0)
(-0.0097953 -1.53397e-08 0)
(-0.011224 -1.24158e-08 0)
(-0.0126373 -1.03731e-08 0)
(-0.0140344 -9.0162e-09 0)
(-0.0154145 -7.91467e-09 0)
(-0.0167766 -6.59734e-09 0)
(-0.0181193 -5.23078e-09 0)
(-0.019441 -4.17908e-09 0)
(-0.0207398 -3.29381e-09 0)
(-0.0220137 -2.51014e-09 0)
(-0.0232602 -1.84364e-09 0)
(-0.0244765 -1.31099e-09 0)
(-0.0256594 -9.04431e-10 0)
(-0.0268053 -6.09141e-10 0)
(-0.02791 -4.04148e-10 0)
(-0.0289689 -2.67383e-10 0)
(-0.0299765 -1.75332e-10 0)
(-0.030927 -1.04161e-10 0)
(-0.0318136 -6.65912e-11 0)
(-0.0326287 -3.00109e-11 0)
(-0.033364 -1.65594e-11 0)
(-0.03401 -2.18458e-11 0)
(-0.0345566 -4.83591e-13 0)
(-0.0349924 2.48356e-12 0)
(-0.0353054 1.37545e-12 0)
(-0.035483 1.31962e-12 0)
(-0.0355119 1.20447e-12 0)
(-0.0353794 3.83262e-13 0)
(-0.0350735 7.55131e-13 0)
(-0.0345846 2.11415e-12 0)
(-0.0339065 2.02383e-12 0)
(-0.0330389 2.50786e-12 0)
(-0.0319891 3.28566e-12 0)
(-0.0307742 4.37515e-12 0)
(-0.0294227 5.96335e-12 0)
(-0.0279738 6.39887e-12 0)
(-0.0264761 7.77766e-12 0)
(-0.0249829 9.20206e-12 0)
(-0.0235468 8.83017e-12 0)
(-0.0222144 9.47053e-12 0)
(-0.0210229 1.46482e-11 0)
(-0.0199992 -6.44748e-12 0)
(-0.0191613 4.97466e-11 0)
(-0.0185198 -4.68717e-11 0)
(-0.0180809 1.04394e-10 0)
(-0.0178491 -1.01425e-10 0)
(-0.01784 1.62599e-10 0)
(-0.0180695 -1.53321e-10 0)
(-0.0189983 2.08857e-10 0)
(-0.0194131 -1.87781e-10 0)
(-0.0194327 2.41762e-10 0)
(-0.019433 -2.18912e-10 0)
(-0.019433 2.68826e-10 0)
(-0.019433 -2.51529e-10 0)
(-0.019433 3.01992e-10 0)
(-0.019433 -2.83357e-10 0)
(-0.019433 3.34589e-10 0)
(-0.019433 -3.17791e-10 0)
(-0.019433 3.67816e-10 0)
(-0.019433 -3.55315e-10 0)
(-0.019433 4.02646e-10 0)
(-0.019433 -3.96364e-10 0)
(-0.019433 4.34678e-10 0)
(-0.019433 -4.41154e-10 0)
(-0.019433 4.72221e-10 0)
(-0.019433 -4.79992e-10 0)
(-0.019433 5.13214e-10 0)
(-0.019433 -5.21921e-10 0)
(-0.019433 5.57506e-10 0)
(-0.019433 -5.65203e-10 0)
(-0.019433 6.0165e-10 0)
(-0.019433 -6.10314e-10 0)
(-0.019433 6.4543e-10 0)
(-0.019433 -6.59986e-10 0)
(-0.019433 6.88224e-10 0)
(-0.019433 -7.11603e-10 0)
(-0.019433 7.34566e-10 0)
(-0.019433 -7.6188e-10 0)
(-0.019433 7.83886e-10 0)
(-0.019433 -7.15223e-10 0)
(-0.019433 7.18017e-10 0)
(-0.019433 -7.35038e-10 0)
(-0.019433 7.36944e-10 0)
(-0.019433 -7.53089e-10 0)
(-0.019433 7.54811e-10 0)
(-0.019433 -7.70029e-10 0)
(-0.019433 7.73624e-10 0)
(-0.019433 -7.86196e-10 0)
(-0.019433 7.92381e-10 0)
(-0.019433 -8.02756e-10 0)
(-0.019433 8.07912e-10 0)
(-0.019433 -8.19721e-10 0)
(-0.019433 8.24473e-10 0)
(-0.019433 -8.37306e-10 0)
(-0.019433 8.37743e-10 0)
(-0.019433 -8.56029e-10 0)
(-0.019433 8.56601e-10 0)
(-0.019433 -8.65682e-10 0)
(-0.019433 8.6623e-10 0)
(-0.019433 -8.83778e-10 0)
(-0.019433 8.81841e-10 0)
(-0.019433 -8.9786e-10 0)
(-0.019433 8.96226e-10 0)
(-0.019433 -9.11802e-10 0)
(-0.019433 9.07426e-10 0)
(-0.019433 -9.2788e-10 0)
(-0.019433 9.17338e-10 0)
(-0.019433 -9.41807e-10 0)
(-0.019433 9.2803e-10 0)
(-0.019433 -9.55449e-10 0)
(-0.019433 9.37091e-10 0)
(-0.019433 -9.68972e-10 0)
(-0.019433 9.46742e-10 0)
(-0.019433 -9.79972e-10 0)
(-0.019433 9.57413e-10 0)
(-0.019433 -9.87858e-10 0)
(-0.019433 9.68147e-10 0)
(-0.019433 -9.97197e-10 0)
(-0.019433 9.75632e-10 0)
(-0.019433 -1.00748e-09 0)
(-0.019433 9.82267e-10 0)
(-0.019433 -1.01508e-09 0)
(-0.019433 9.91924e-10 0)
(-0.019433 -1.01735e-09 0)
(-0.019433 1.00083e-09 0)
(-0.019433 -1.02207e-09 0)
(-0.019433 1.00648e-09 0)
(-0.019433 -1.0282e-09 0)
(-0.019433 1.01016e-09 0)
)
;

boundaryField
{
    inandouthalf11
    {
        type            cyclic;
    }
    inandouthalf12
    {
        type            cyclic;
    }
    inandouthalf21
    {
        type            cyclic;
    }
    inandouthalf22
    {
        type            cyclic;
    }
    inandouthalf31
    {
        type            cyclic;
    }
    inandouthalf32
    {
        type            cyclic;
    }
    inandouthalf41
    {
        type            cyclic;
    }
    inandouthalf42
    {
        type            cyclic;
    }
    top
    {
        type            symmetryPlane;
    }
    walls
    {
        type            calculated;
        value           uniform (0 0 0);
    }
    frontAndBackPlanes
    {
        type            empty;
    }
}


// ************************************************************************* //
