/*--------------------------------*- C++ -*----------------------------------*\
| =========                 |                                                 |
| \\      /  F ield         | OpenFOAM: The Open Source CFD Toolbox           |
|  \\    /   O peration     | Version:  2.4.x                                 |
|   \\  /    A nd           | Web:      www.OpenFOAM.org                      |
|    \\/     M anipulation  |                                                 |
\*---------------------------------------------------------------------------*/
FoamFile
{
    version     2.0;
    format      ascii;
    class       volScalarField;
    location    "12.35";
    object      ddt0(alpha);
}
// * * * * * * * * * * * * * * * * * * * * * * * * * * * * * * * * * * * * * //

dimensions      [0 0 -1 0 0 0 0];

internalField   nonuniform List<scalar> 
360
(
1.35298e-06
2.02199e-06
1.88126e-06
1.83135e-06
1.91319e-06
1.99266e-06
2.04957e-06
2.10556e-06
2.16924e-06
2.24074e-06
2.31657e-06
2.39341e-06
2.47034e-06
2.54619e-06
2.62069e-06
2.69341e-06
2.76357e-06
2.83029e-06
2.89294e-06
2.95174e-06
3.00505e-06
3.05396e-06
3.09759e-06
3.13581e-06
3.16863e-06
3.19582e-06
3.21721e-06
3.23369e-06
3.24457e-06
3.25006e-06
3.25037e-06
3.24658e-06
3.23681e-06
3.22454e-06
3.20677e-06
3.18599e-06
3.16116e-06
3.13377e-06
3.10417e-06
3.07026e-06
3.03613e-06
2.99932e-06
2.96004e-06
2.9211e-06
2.88011e-06
2.83868e-06
2.79684e-06
2.75316e-06
2.71039e-06
2.66859e-06
2.62513e-06
2.583e-06
2.54067e-06
2.49954e-06
2.45787e-06
2.41844e-06
2.37814e-06
2.33969e-06
2.30143e-06
2.2632e-06
2.22763e-06
2.19163e-06
2.15769e-06
2.12391e-06
2.09121e-06
2.05899e-06
2.02799e-06
1.99771e-06
1.96794e-06
1.93841e-06
1.91069e-06
1.88396e-06
1.85668e-06
1.83119e-06
1.80598e-06
1.78193e-06
1.75758e-06
1.73372e-06
1.71036e-06
1.68752e-06
1.6648e-06
1.64272e-06
1.62119e-06
1.60005e-06
1.57933e-06
1.55882e-06
1.53853e-06
1.5182e-06
1.49785e-06
1.47755e-06
1.45731e-06
1.43717e-06
1.41725e-06
1.39754e-06
1.378e-06
1.35859e-06
1.33925e-06
1.31993e-06
1.30061e-06
1.28131e-06
1.26207e-06
1.24294e-06
1.22396e-06
1.20521e-06
1.18669e-06
1.16847e-06
1.15055e-06
1.13298e-06
1.11578e-06
1.09897e-06
1.08256e-06
1.06651e-06
1.05078e-06
1.03527e-06
1.01986e-06
1.00436e-06
9.88548e-07
9.72165e-07
9.54936e-07
9.36588e-07
9.16894e-07
8.95733e-07
8.73148e-07
8.4945e-07
8.25304e-07
8.01795e-07
7.80408e-07
7.62846e-07
7.50667e-07
7.44717e-07
7.44488e-07
7.47397e-07
7.47887e-07
7.35936e-07
6.95085e-07
6.04352e-07
4.52935e-07
2.60299e-07
7.41878e-08
-5.74015e-08
-1.28748e-07
-2.00695e-06
1.12198e-06
-3.70241e-07
-1.03795e-07
-1.28289e-06
0.00185062
0.103968
0.0245413
-0.00181021
-0.0105928
-0.0149309
-0.0170317
-0.0175001
-0.0167164
-0.0150779
-0.0129776
-0.0107408
-0.00859271
-0.00666145
-0.0050005
-0.00361751
-0.00249259
-0.00159459
-0.000889119
-0.000343228
7.25301e-05
0.000383469
0.000610777
0.000771947
0.000881234
0.000950179
0.000988191
0.00100344
0.001004
0.000998214
0.00099268
0.000987618
0.000973495
0.000934915
0.000861653
0.000757248
0.000636713
0.000517036
0.000409863
0.000320072
0.000247815
0.000190964
0.000146731
0.000112464
8.59252e-05
6.53366e-05
4.93219e-05
3.68312e-05
2.70667e-05
1.94219e-05
1.34339e-05
8.74808e-06
5.0905e-06
2.24867e-06
5.68356e-08
-1.63064e-06
-2.9164e-06
-3.86704e-06
-4.53952e-06
-4.98232e-06
-5.23725e-06
-5.34015e-06
-5.32209e-06
-5.20973e-06
-5.02602e-06
-4.79034e-06
-4.51899e-06
-4.22525e-06
-3.91988e-06
-3.61124e-06
-3.30576e-06
-3.00814e-06
-2.72182e-06
-2.44914e-06
-2.19176e-06
-1.95082e-06
-1.7271e-06
-1.52123e-06
-1.33384e-06
-1.16575e-06
-1.01765e-06
-8.89115e-07
-7.76726e-07
-6.71648e-07
-5.58563e-07
-4.23153e-07
-2.75689e-07
-1.64705e-07
-1.2731e-07
-9.89459e-08
-2.03638e-08
2.18753e-08
-4.77065e-08
-8.54757e-08
-1.01799e-07
-1.04183e-07
-9.79238e-08
-8.6877e-08
-7.37661e-08
-6.04054e-08
-4.79641e-08
-3.68429e-08
-2.75726e-08
-2.11666e-08
-1.23818e-08
-1.27815e-08
-3.15638e-10
-2.50297e-21
-1.27894e-32
-4.67728e-44
-1.04287e-55
-2.61368e-68
-7.27794e-75
-3.87288e-75
-1.89607e-75
-9.53237e-76
-4.71335e-76
-2.29694e-76
-1.10131e-76
-5.19276e-77
-2.40653e-77
-1.09562e-77
-4.8973e-78
-2.14802e-78
-9.23924e-79
-3.89469e-79
-1.6079e-79
-6.49662e-80
-2.56704e-80
-9.91176e-81
-3.73659e-81
-1.3741e-81
-4.92448e-82
-1.71816e-82
-5.82896e-83
-1.92063e-83
-6.13964e-84
-1.90155e-84
-5.6978e-85
-1.64916e-85
-4.60298e-86
-1.2366e-86
-3.19121e-87
-7.89323e-88
-1.86666e-88
-4.20931e-89
-9.02359e-90
-1.83275e-90
-3.51335e-91
-6.32923e-92
-1.06617e-92
-1.66969e-93
-2.41455e-94
-3.19836e-95
-3.843e-96
-4.13844e-97
-3.93378e-98
-3.23554e-99
-2.24115e-100
-1.25717e-101
-5.37042e-103
-1.56343e-104
-2.37952e-106
-2.02604e-109
-6.85315e-117
-3.76619e-119
-1.02285e-121
-4.77426e-132
-1.13873e-142
-2.03607e-153
-2.6736e-164
-3.04266e-175
-2.71409e-186
-2.06074e-197
-2.46094e-208
-8.48258e-219
-3.9606e-227
-2.23334e-237
-1.36184e-245
-9.06069e-256
-4.69037e-264
-3.81076e-274
-1.61862e-282
-2.44016e-292
-5.77596e-301
-1.62162e-310
9.88131e-324
0
0
0
0
0
0
0
0
0
0
0
0
0
0
0
0
0
0
0
0
0
0
0
0
0
0
0
)
;

boundaryField
{
    inandouthalf11
    {
        type            cyclic;
    }
    inandouthalf12
    {
        type            cyclic;
    }
    inandouthalf21
    {
        type            cyclic;
    }
    inandouthalf22
    {
        type            cyclic;
    }
    inandouthalf31
    {
        type            cyclic;
    }
    inandouthalf32
    {
        type            cyclic;
    }
    inandouthalf41
    {
        type            cyclic;
    }
    inandouthalf42
    {
        type            cyclic;
    }
    top
    {
        type            symmetryPlane;
    }
    walls
    {
        type            calculated;
        value           uniform 1.35298e-06;
    }
    frontAndBackPlanes
    {
        type            empty;
    }
}


// ************************************************************************* //
