/*--------------------------------*- C++ -*----------------------------------*\
| =========                 |                                                 |
| \\      /  F ield         | OpenFOAM: The Open Source CFD Toolbox           |
|  \\    /   O peration     | Version:  2.4.x                                 |
|   \\  /    A nd           | Web:      www.OpenFOAM.org                      |
|    \\/     M anipulation  |                                                 |
\*---------------------------------------------------------------------------*/
FoamFile
{
    version     2.0;
    format      ascii;
    class       surfaceScalarField;
    location    "12.35";
    object      ddt0(phia);
}
// * * * * * * * * * * * * * * * * * * * * * * * * * * * * * * * * * * * * * //

dimensions      [0 3 -2 0 0 0 0];

internalField   nonuniform List<scalar> 
359
(
4.69657e-15
1.17698e-14
1.85449e-14
2.53465e-14
3.26152e-14
4.03219e-14
4.83672e-14
5.6728e-14
6.54113e-14
7.44236e-14
8.37562e-14
9.33853e-14
1.03282e-13
1.13411e-13
1.23735e-13
1.34215e-13
1.44808e-13
1.55467e-13
1.66145e-13
1.76796e-13
1.87369e-13
1.97821e-13
2.08107e-13
2.18184e-13
2.28014e-13
2.3756e-13
2.46789e-13
2.55676e-13
2.64195e-13
2.72327e-13
2.80055e-13
2.87372e-13
2.94267e-13
3.00743e-13
3.06797e-13
3.12436e-13
3.17667e-13
3.22504e-13
3.26959e-13
3.31048e-13
3.34792e-13
3.38207e-13
3.41315e-13
3.44139e-13
3.46699e-13
3.49019e-13
3.51122e-13
3.53028e-13
3.54761e-13
3.56341e-13
3.5779e-13
3.59126e-13
3.60369e-13
3.61537e-13
3.62646e-13
3.63713e-13
3.64751e-13
3.65774e-13
3.66796e-13
3.67826e-13
3.68876e-13
3.69954e-13
3.71071e-13
3.72232e-13
3.73444e-13
3.74713e-13
3.76044e-13
3.77442e-13
3.78908e-13
3.80447e-13
3.8206e-13
3.8375e-13
3.85517e-13
3.87362e-13
3.89285e-13
3.91286e-13
3.93365e-13
3.95519e-13
3.97749e-13
4.00051e-13
4.02425e-13
4.04867e-13
4.07377e-13
4.09951e-13
4.12588e-13
4.15284e-13
4.18037e-13
4.20843e-13
4.23698e-13
4.26599e-13
4.29543e-13
4.32526e-13
4.35545e-13
4.38596e-13
4.41678e-13
4.44785e-13
4.47916e-13
4.51066e-13
4.54233e-13
4.57412e-13
4.60601e-13
4.63798e-13
4.66998e-13
4.70201e-13
4.73403e-13
4.76603e-13
4.79798e-13
4.82988e-13
4.8617e-13
4.89344e-13
4.92508e-13
4.95662e-13
4.98803e-13
5.01931e-13
5.05045e-13
5.08141e-13
5.11218e-13
5.14271e-13
5.17296e-13
5.20289e-13
5.23242e-13
5.26151e-13
5.29007e-13
5.31806e-13
5.34543e-13
5.37216e-13
5.3983e-13
5.42392e-13
5.44913e-13
5.4741e-13
5.49893e-13
5.52368e-13
5.54827e-13
5.57236e-13
5.59519e-13
5.61544e-13
5.63157e-13
5.6426e-13
5.64883e-13
5.65169e-13
5.65298e-13
5.65268e-13
5.65627e-13
5.65694e-13
5.65761e-13
5.65619e-13
1.51306e-11
-3.7898e-10
-7.89593e-10
-1.05137e-09
-1.21653e-09
-1.34569e-09
-1.4559e-09
-1.56031e-09
-1.67234e-09
-1.80591e-09
-1.97358e-09
-2.18558e-09
-2.44912e-09
-2.76881e-09
-3.14678e-09
-3.58151e-09
-4.07005e-09
-4.60721e-09
-5.18534e-09
-5.79433e-09
-6.42123e-09
-7.04981e-09
-7.6598e-09
-8.22601e-09
-8.71719e-09
-9.09464e-09
-9.30884e-09
-9.28983e-09
-8.92602e-09
-8.03641e-09
-6.36806e-09
-3.66868e-09
1.57724e-10
4.90965e-09
1.01067e-08
1.51845e-08
1.97072e-08
2.34551e-08
2.63905e-08
2.85835e-08
3.01489e-08
3.12077e-08
3.18699e-08
3.22281e-08
3.23573e-08
3.23172e-08
3.2155e-08
3.19075e-08
3.16037e-08
3.1266e-08
3.09118e-08
3.05546e-08
3.02045e-08
2.98691e-08
2.9554e-08
2.92578e-08
2.89847e-08
2.87384e-08
2.8522e-08
2.83378e-08
2.81875e-08
2.80724e-08
2.79934e-08
2.79507e-08
2.79443e-08
2.79738e-08
2.80385e-08
2.81374e-08
2.82694e-08
2.84332e-08
2.86275e-08
2.88509e-08
2.91021e-08
2.93799e-08
2.96831e-08
3.00103e-08
3.03604e-08
3.07319e-08
3.11229e-08
3.15308e-08
3.19513e-08
3.2378e-08
3.28016e-08
3.32098e-08
3.35882e-08
3.39284e-08
3.42442e-08
3.4556e-08
3.48045e-08
3.49501e-08
3.31139e-08
3.37539e-08
3.3259e-08
3.16719e-08
2.90029e-08
2.54489e-08
2.13559e-08
1.71648e-08
1.31811e-08
9.63218e-09
7.15507e-09
4.7079e-09
-9.48636e-10
6.1435e-09
-2.77298e-08
-2.02993e-07
-8.10793e-08
1.22461e-09
4.18788e-10
1.48755e-10
1.48732e-10
1.27159e-10
1.04906e-10
8.09004e-11
5.58081e-11
3.04227e-11
5.78506e-12
-1.68686e-11
-3.62764e-11
-5.22982e-11
-6.00527e-11
-6.23032e-11
-6.19854e-11
-5.5756e-11
-4.66405e-11
-3.62455e-11
-2.60829e-11
-1.73803e-11
-1.10681e-11
-7.95245e-12
-1.00553e-11
-1.52506e-11
-6.02241e-11
-2.31962e-11
-1.11471e-12
-1.48555e-12
-1.54204e-12
-1.54294e-12
-1.54304e-12
-1.54294e-12
-1.54304e-12
-1.54294e-12
-1.54304e-12
-1.54294e-12
-1.54304e-12
-1.54295e-12
-1.54305e-12
-1.54296e-12
-1.54306e-12
-1.54296e-12
-1.54306e-12
-1.54296e-12
-1.54305e-12
-1.54296e-12
-1.54305e-12
-1.54296e-12
-1.54305e-12
-1.54297e-12
-1.54306e-12
-1.54298e-12
-1.54306e-12
-1.54298e-12
-1.54306e-12
-1.54298e-12
-1.54306e-12
-1.54299e-12
-1.54306e-12
-1.54299e-12
-1.54306e-12
-1.543e-12
-1.54305e-12
-1.543e-12
-1.54305e-12
-1.543e-12
-1.54305e-12
-1.543e-12
-1.54304e-12
-1.543e-12
-1.54305e-12
-1.54301e-12
-1.54305e-12
-1.543e-12
-1.54305e-12
-1.54301e-12
-1.54304e-12
-1.54302e-12
-1.54304e-12
-1.54302e-12
-1.54304e-12
-1.54302e-12
-1.54305e-12
-1.54303e-12
-1.54305e-12
-1.54303e-12
-1.54305e-12
-1.54304e-12
-1.54305e-12
-1.54304e-12
-1.54305e-12
-1.54304e-12
-1.54305e-12
-1.54304e-12
-1.54305e-12
-1.54305e-12
-1.54305e-12
-1.54305e-12
-1.54302e-12
-1.54307e-12
-1.54304e-12
-1.54309e-12
-1.54408e-12
-1.56546e-12
-2.4848e-12
)
;

boundaryField
{
    inandouthalf11
    {
        type            cyclic;
        value           nonuniform List<scalar> 
100
(
-6.58848e-39
-6.81275e-16
-1.43274e-15
-2.13e-15
-2.86573e-15
-3.65929e-15
-4.4942e-15
-5.36337e-15
-6.26816e-15
-7.21065e-15
-8.19154e-15
-9.21011e-15
-1.02646e-14
-1.13524e-14
-1.24709e-14
-1.36169e-14
-1.47868e-14
-1.59768e-14
-1.71827e-14
-1.84001e-14
-1.96244e-14
-2.08512e-14
-2.20759e-14
-2.32941e-14
-2.45017e-14
-2.56944e-14
-2.68686e-14
-2.80207e-14
-2.91476e-14
-3.02464e-14
-3.13146e-14
-3.23503e-14
-3.33517e-14
-3.43176e-14
-3.52471e-14
-3.61397e-14
-3.6995e-14
-3.78135e-14
-3.85954e-14
-3.93416e-14
-4.0053e-14
-4.07307e-14
-4.13762e-14
-4.19909e-14
-4.25765e-14
-4.31349e-14
-4.36676e-14
-4.41767e-14
-4.46638e-14
-4.5131e-14
-4.55801e-14
-4.6013e-14
-4.64313e-14
-4.68369e-14
-4.72315e-14
-4.76165e-14
-4.79936e-14
-4.83642e-14
-4.87296e-14
-4.9091e-14
-4.94497e-14
-4.98068e-14
-5.01633e-14
-5.05202e-14
-5.08783e-14
-5.12384e-14
-5.16012e-14
-5.19673e-14
-5.23372e-14
-5.27114e-14
-5.30903e-14
-5.34744e-14
-5.3864e-14
-5.42593e-14
-5.46606e-14
-5.5068e-14
-5.54818e-14
-5.59019e-14
-5.63282e-14
-5.67609e-14
-5.71999e-14
-5.76451e-14
-5.80965e-14
-5.8554e-14
-5.90175e-14
-5.9487e-14
-5.99621e-14
-6.04427e-14
-6.09286e-14
-6.14194e-14
-6.1915e-14
-6.24149e-14
-6.29191e-14
-6.34273e-14
-6.39393e-14
-6.44548e-14
-6.49737e-14
-6.54956e-14
-6.60203e-14
-6.65477e-14
)
;
    }
    inandouthalf12
    {
        type            cyclic;
        value           nonuniform List<scalar> 
100
(
6.58848e-39
6.81275e-16
1.43274e-15
2.13e-15
2.86573e-15
3.65929e-15
4.4942e-15
5.36337e-15
6.26816e-15
7.21065e-15
8.19154e-15
9.21011e-15
1.02646e-14
1.13524e-14
1.24709e-14
1.36169e-14
1.47868e-14
1.59768e-14
1.71827e-14
1.84001e-14
1.96244e-14
2.08512e-14
2.20759e-14
2.32941e-14
2.45017e-14
2.56944e-14
2.68686e-14
2.80207e-14
2.91476e-14
3.02464e-14
3.13146e-14
3.23503e-14
3.33517e-14
3.43176e-14
3.52471e-14
3.61397e-14
3.6995e-14
3.78135e-14
3.85954e-14
3.93416e-14
4.0053e-14
4.07307e-14
4.13762e-14
4.19909e-14
4.25765e-14
4.31349e-14
4.36676e-14
4.41767e-14
4.46638e-14
4.5131e-14
4.55801e-14
4.6013e-14
4.64313e-14
4.68369e-14
4.72315e-14
4.76165e-14
4.79936e-14
4.83642e-14
4.87296e-14
4.9091e-14
4.94497e-14
4.98068e-14
5.01633e-14
5.05202e-14
5.08783e-14
5.12384e-14
5.16012e-14
5.19673e-14
5.23372e-14
5.27114e-14
5.30903e-14
5.34744e-14
5.3864e-14
5.42593e-14
5.46606e-14
5.5068e-14
5.54818e-14
5.59019e-14
5.63282e-14
5.67609e-14
5.71999e-14
5.76451e-14
5.80965e-14
5.8554e-14
5.90175e-14
5.9487e-14
5.99621e-14
6.04427e-14
6.09286e-14
6.14194e-14
6.1915e-14
6.24149e-14
6.29191e-14
6.34273e-14
6.39393e-14
6.44548e-14
6.49737e-14
6.54956e-14
6.60203e-14
6.65477e-14
)
;
    }
    inandouthalf21
    {
        type            cyclic;
        value           nonuniform List<scalar> 
100
(
-6.70773e-14
-6.76091e-14
-6.81429e-14
-6.86785e-14
-6.92158e-14
-6.97549e-14
-7.02957e-14
-7.08381e-14
-7.13824e-14
-7.19286e-14
-7.24768e-14
-7.30273e-14
-7.35802e-14
-7.41358e-14
-7.46943e-14
-7.52557e-14
-7.58202e-14
-7.63877e-14
-7.69581e-14
-7.75311e-14
-7.81063e-14
-7.86831e-14
-7.92609e-14
-7.98392e-14
-8.04177e-14
-8.09968e-14
-8.15775e-14
-8.21624e-14
-8.27552e-14
-8.33612e-14
-8.39863e-14
-8.46365e-14
-8.53158e-14
-8.60233e-14
-8.6747e-14
-8.74545e-14
-8.80902e-14
-8.85913e-14
-8.8922e-14
-8.90988e-14
-8.91789e-14
-8.92241e-14
-8.92747e-14
-8.93582e-14
-8.94179e-14
-8.94797e-14
-8.96482e-14
-4.33762e-08
-7.0541e-08
-7.164e-08
-7.52738e-08
-8.04313e-08
-8.62379e-08
-9.22424e-08
-9.81958e-08
-1.0395e-07
-1.0942e-07
-1.14558e-07
-1.19347e-07
-1.23781e-07
-1.27864e-07
-1.31597e-07
-1.34984e-07
-1.3802e-07
-1.40702e-07
-1.4302e-07
-1.44965e-07
-1.46525e-07
-1.4769e-07
-1.48449e-07
-1.48796e-07
-1.48728e-07
-1.48247e-07
-1.47363e-07
-1.4609e-07
-1.44456e-07
-1.42498e-07
-1.4027e-07
-1.37842e-07
-1.35297e-07
-1.32716e-07
-1.30166e-07
-1.27686e-07
-1.25295e-07
-1.22991e-07
-1.20763e-07
-1.186e-07
-1.16491e-07
-1.14427e-07
-1.12403e-07
-1.10417e-07
-1.08468e-07
-1.06558e-07
-1.04689e-07
-1.02863e-07
-1.01083e-07
-9.93523e-08
-9.76719e-08
-9.60441e-08
-9.447e-08
)
;
    }
    inandouthalf22
    {
        type            cyclic;
        value           nonuniform List<scalar> 
100
(
6.70773e-14
6.76091e-14
6.81429e-14
6.86785e-14
6.92158e-14
6.97549e-14
7.02957e-14
7.08381e-14
7.13824e-14
7.19286e-14
7.24768e-14
7.30273e-14
7.35802e-14
7.41358e-14
7.46943e-14
7.52557e-14
7.58202e-14
7.63877e-14
7.69581e-14
7.75311e-14
7.81063e-14
7.86831e-14
7.92609e-14
7.98392e-14
8.04177e-14
8.09968e-14
8.15775e-14
8.21624e-14
8.27552e-14
8.33612e-14
8.39863e-14
8.46365e-14
8.53158e-14
8.60233e-14
8.6747e-14
8.74545e-14
8.80902e-14
8.85913e-14
8.8922e-14
8.90988e-14
8.91789e-14
8.92241e-14
8.92747e-14
8.93582e-14
8.94179e-14
8.94797e-14
8.96482e-14
4.33762e-08
7.0541e-08
7.164e-08
7.52738e-08
8.04313e-08
8.62379e-08
9.22424e-08
9.81958e-08
1.0395e-07
1.0942e-07
1.14558e-07
1.19347e-07
1.23781e-07
1.27864e-07
1.31597e-07
1.34984e-07
1.3802e-07
1.40702e-07
1.4302e-07
1.44965e-07
1.46525e-07
1.4769e-07
1.48449e-07
1.48796e-07
1.48728e-07
1.48247e-07
1.47363e-07
1.4609e-07
1.44456e-07
1.42498e-07
1.4027e-07
1.37842e-07
1.35297e-07
1.32716e-07
1.30166e-07
1.27686e-07
1.25295e-07
1.22991e-07
1.20763e-07
1.186e-07
1.16491e-07
1.14427e-07
1.12403e-07
1.10417e-07
1.08468e-07
1.06558e-07
1.04689e-07
1.02863e-07
1.01083e-07
9.93523e-08
9.76719e-08
9.60441e-08
9.447e-08
)
;
    }
    inandouthalf31
    {
        type            cyclic;
        value           nonuniform List<scalar> 
110
(
-9.29509e-08
-9.33284e-08
-9.37116e-08
-9.4103e-08
-9.45056e-08
-9.49216e-08
-9.53537e-08
-9.58042e-08
-9.62753e-08
-9.67693e-08
-9.72882e-08
-9.7834e-08
-9.84086e-08
-9.90138e-08
-9.96512e-08
-1.00323e-07
-1.0103e-07
-1.01773e-07
-1.02555e-07
-1.03377e-07
-1.0424e-07
-1.05145e-07
-1.06094e-07
-1.07088e-07
-1.08131e-07
-1.09223e-07
-1.10368e-07
-1.11569e-07
-1.12826e-07
-1.14136e-07
-1.15493e-07
-1.16887e-07
-1.18318e-07
-1.19815e-07
-1.21432e-07
-1.23223e-07
-1.2494e-07
4.1233e-08
4.50651e-08
4.87832e-08
5.25764e-08
5.64385e-08
6.03659e-08
6.43536e-08
6.83942e-08
7.24773e-08
7.65894e-08
8.07261e-08
8.4715e-08
8.7312e-08
9.42977e-08
9.58354e-08
9.96002e-08
1.02761e-07
1.06257e-07
1.09248e-07
1.11909e-07
1.1416e-07
1.1593e-07
1.17152e-07
1.17762e-07
1.17703e-07
1.16941e-07
1.15464e-07
1.13302e-07
1.10537e-07
1.07427e-07
1.03144e-07
1.00297e-07
9.6254e-08
9.2884e-08
8.99169e-08
8.75188e-08
8.57974e-08
8.48406e-08
8.47207e-08
8.55013e-08
8.71642e-08
9.0812e-08
9.69348e-08
1.0059e-07
1.02711e-07
1.04797e-07
1.06924e-07
1.09094e-07
1.11309e-07
1.13568e-07
1.15873e-07
1.18225e-07
1.20625e-07
1.23073e-07
1.25571e-07
1.2812e-07
1.3072e-07
1.33373e-07
1.36081e-07
1.38843e-07
1.41661e-07
1.44536e-07
1.4747e-07
1.50463e-07
1.53517e-07
1.56633e-07
1.59812e-07
1.63056e-07
1.66366e-07
1.69742e-07
1.73188e-07
1.76703e-07
1.8029e-07
)
;
    }
    inandouthalf32
    {
        type            cyclic;
        value           nonuniform List<scalar> 
110
(
9.29509e-08
9.33284e-08
9.37116e-08
9.4103e-08
9.45056e-08
9.49216e-08
9.53537e-08
9.58042e-08
9.62753e-08
9.67693e-08
9.72882e-08
9.7834e-08
9.84086e-08
9.90138e-08
9.96512e-08
1.00323e-07
1.0103e-07
1.01773e-07
1.02555e-07
1.03377e-07
1.0424e-07
1.05145e-07
1.06094e-07
1.07088e-07
1.08131e-07
1.09223e-07
1.10368e-07
1.11569e-07
1.12826e-07
1.14136e-07
1.15493e-07
1.16887e-07
1.18318e-07
1.19815e-07
1.21432e-07
1.23223e-07
1.2494e-07
-4.1233e-08
-4.50651e-08
-4.87832e-08
-5.25764e-08
-5.64385e-08
-6.03659e-08
-6.43536e-08
-6.83942e-08
-7.24773e-08
-7.65894e-08
-8.07261e-08
-8.4715e-08
-8.7312e-08
-9.42977e-08
-9.58354e-08
-9.96002e-08
-1.02761e-07
-1.06257e-07
-1.09248e-07
-1.11909e-07
-1.1416e-07
-1.1593e-07
-1.17152e-07
-1.17762e-07
-1.17703e-07
-1.16941e-07
-1.15464e-07
-1.13302e-07
-1.10537e-07
-1.07427e-07
-1.03144e-07
-1.00297e-07
-9.6254e-08
-9.2884e-08
-8.99169e-08
-8.75188e-08
-8.57974e-08
-8.48406e-08
-8.47207e-08
-8.55013e-08
-8.71642e-08
-9.0812e-08
-9.69348e-08
-1.0059e-07
-1.02711e-07
-1.04797e-07
-1.06924e-07
-1.09094e-07
-1.11309e-07
-1.13568e-07
-1.15873e-07
-1.18225e-07
-1.20625e-07
-1.23073e-07
-1.25571e-07
-1.2812e-07
-1.3072e-07
-1.33373e-07
-1.36081e-07
-1.38843e-07
-1.41661e-07
-1.44536e-07
-1.4747e-07
-1.50463e-07
-1.53517e-07
-1.56633e-07
-1.59812e-07
-1.63056e-07
-1.66366e-07
-1.69742e-07
-1.73188e-07
-1.76703e-07
-1.8029e-07
)
;
    }
    inandouthalf41
    {
        type            cyclic;
        value           nonuniform List<scalar> 
50
(
1.61378e-07
1.61378e-07
1.61378e-07
1.61378e-07
1.61378e-07
1.61378e-07
1.61378e-07
1.61378e-07
1.61378e-07
1.61378e-07
1.61378e-07
1.61378e-07
1.61378e-07
1.61378e-07
1.61378e-07
1.61378e-07
1.61378e-07
1.61378e-07
1.61378e-07
1.61378e-07
1.61378e-07
1.61378e-07
1.61378e-07
1.61378e-07
1.61378e-07
1.61378e-07
1.61378e-07
1.61378e-07
1.61378e-07
1.61378e-07
1.61378e-07
1.61378e-07
1.61378e-07
1.61378e-07
1.61378e-07
1.61378e-07
1.61378e-07
1.61378e-07
1.61378e-07
1.61378e-07
1.61378e-07
1.61378e-07
1.61378e-07
1.61378e-07
1.61378e-07
1.61378e-07
1.61378e-07
1.6138e-07
1.61423e-07
1.62413e-07
)
;
    }
    inandouthalf42
    {
        type            cyclic;
        value           nonuniform List<scalar> 
50
(
-1.61378e-07
-1.61378e-07
-1.61378e-07
-1.61378e-07
-1.61378e-07
-1.61378e-07
-1.61378e-07
-1.61378e-07
-1.61378e-07
-1.61378e-07
-1.61378e-07
-1.61378e-07
-1.61378e-07
-1.61378e-07
-1.61378e-07
-1.61378e-07
-1.61378e-07
-1.61378e-07
-1.61378e-07
-1.61378e-07
-1.61378e-07
-1.61378e-07
-1.61378e-07
-1.61378e-07
-1.61378e-07
-1.61378e-07
-1.61378e-07
-1.61378e-07
-1.61378e-07
-1.61378e-07
-1.61378e-07
-1.61378e-07
-1.61378e-07
-1.61378e-07
-1.61378e-07
-1.61378e-07
-1.61378e-07
-1.61378e-07
-1.61378e-07
-1.61378e-07
-1.61378e-07
-1.61378e-07
-1.61378e-07
-1.61378e-07
-1.61378e-07
-1.61378e-07
-1.61378e-07
-1.6138e-07
-1.61423e-07
-1.62413e-07
)
;
    }
    top
    {
        type            symmetryPlane;
        value           uniform 0;
    }
    walls
    {
        type            calculated;
        value           uniform 0;
    }
    frontAndBackPlanes
    {
        type            empty;
        value           nonuniform 0();
    }
}


// ************************************************************************* //
