/*--------------------------------*- C++ -*----------------------------------*\
| =========                 |                                                 |
| \\      /  F ield         | OpenFOAM: The Open Source CFD Toolbox           |
|  \\    /   O peration     | Version:  2.4.x                                 |
|   \\  /    A nd           | Web:      www.OpenFOAM.org                      |
|    \\/     M anipulation  |                                                 |
\*---------------------------------------------------------------------------*/
FoamFile
{
    version     2.0;
    format      ascii;
    class       volScalarField;
    location    "12.35";
    object      ddt0(((1.5*(alpha+1e-08))*rho),Theta);
}
// * * * * * * * * * * * * * * * * * * * * * * * * * * * * * * * * * * * * * //

dimensions      [1 -1 -3 0 0 0 0];

internalField   nonuniform List<scalar> 
360
(
-4.08055e-24
-1.0838e-23
-8.11254e-24
-7.95917e-24
-9.07438e-24
-9.97795e-24
-1.06001e-23
-1.12294e-23
-1.19468e-23
-1.27313e-23
-1.3551e-23
-1.43752e-23
-1.51818e-23
-1.59561e-23
-1.66865e-23
-1.73615e-23
-1.79658e-23
-1.84835e-23
-1.89045e-23
-1.92199e-23
-1.94217e-23
-1.9509e-23
-1.94815e-23
-1.93387e-23
-1.90842e-23
-1.87227e-23
-1.82633e-23
-1.77178e-23
-1.70941e-23
-1.64023e-23
-1.56578e-23
-1.48716e-23
-1.4056e-23
-1.32251e-23
-1.23878e-23
-1.15533e-23
-1.07333e-23
-9.93784e-24
-9.17107e-24
-8.43804e-24
-7.74687e-24
-7.0984e-24
-6.49484e-24
-5.94008e-24
-5.43358e-24
-4.97456e-24
-4.5614e-24
-4.19286e-24
-3.86917e-24
-3.58762e-24
-3.34407e-24
-3.13661e-24
-2.96322e-24
-2.82052e-24
-2.70601e-24
-2.61709e-24
-2.55117e-24
-2.50545e-24
-2.47745e-24
-2.46536e-24
-2.46765e-24
-2.48216e-24
-2.50691e-24
-2.54027e-24
-2.58057e-24
-2.62681e-24
-2.67781e-24
-2.73239e-24
-2.78882e-24
-2.84694e-24
-2.90713e-24
-2.9678e-24
-3.02749e-24
-3.08685e-24
-3.14578e-24
-3.20299e-24
-3.25733e-24
-3.3088e-24
-3.35779e-24
-3.4038e-24
-3.44646e-24
-3.48621e-24
-3.52329e-24
-3.5573e-24
-3.58798e-24
-3.61525e-24
-3.63862e-24
-3.65767e-24
-3.67237e-24
-3.68306e-24
-3.6898e-24
-3.69291e-24
-3.69283e-24
-3.68976e-24
-3.68372e-24
-3.67466e-24
-3.66259e-24
-3.64746e-24
-3.62916e-24
-3.60828e-24
-3.58485e-24
-3.55943e-24
-3.5322e-24
-3.50359e-24
-3.47398e-24
-3.44367e-24
-3.41286e-24
-3.38187e-24
-3.35104e-24
-3.32036e-24
-3.29021e-24
-3.26043e-24
-3.23107e-24
-3.20182e-24
-3.17226e-24
-3.14191e-24
-3.10992e-24
-3.07555e-24
-3.03774e-24
-2.99571e-24
-2.9488e-24
-2.8967e-24
-2.83984e-24
-2.77953e-24
-2.71826e-24
-2.66001e-24
-2.60972e-24
-2.57309e-24
-2.55508e-24
-2.55869e-24
-2.58486e-24
-1.11633e-20
7.15896e-17
2.46458e-16
5.04495e-16
-1.45834e-15
-3.15634e-14
-3.42304e-13
-3.50365e-12
-3.88471e-11
-4.94314e-10
-7.43549e-09
-1.36322e-07
-3.2393e-06
-0.000208178
-0.011481
-0.174167
-1.13892
-1.11725
-0.617934
-0.409671
-0.291648
-0.207572
-0.143636
-0.0952613
-0.0594513
-0.0334015
-0.0146148
-0.00111495
0.00852941
0.0153139
0.0199322
0.0228822
0.0245426
0.0252026
0.0250948
0.0244095
0.0233005
0.0218951
0.020296
0.0185872
0.0168351
0.0150926
0.0134004
0.011788
0.0102753
0.00887369
0.00758924
0.00642645
0.00539174
0.00449213
0.00373036
0.00310073
0.00258926
0.00217736
0.00184594
0.00157799
0.00135959
0.00117983
0.00103037
0.000904871
0.000798509
0.000707609
0.000629334
0.000561475
0.000502293
0.000450402
0.000404687
0.000364243
0.000328326
0.000296325
0.000267442
0.000241095
0.000217053
0.000195116
0.000175105
0.000156859
0.000140237
0.000125109
0.00011136
9.88824e-05
8.75763e-05
7.73501e-05
6.81177e-05
5.97988e-05
5.23181e-05
4.56057e-05
3.95963e-05
3.42301e-05
2.94517e-05
2.52103e-05
2.1459e-05
1.81541e-05
1.52553e-05
1.2724e-05
1.05224e-05
8.61248e-06
6.95536e-06
5.51332e-06
4.25602e-06
3.17154e-06
2.27595e-06
1.59842e-06
1.1267e-06
7.76578e-07
4.65561e-07
0
0
0
0
0
0
0
0
0
0
0
0
0
0
0
0
0
0
0
0
0
0
0
0
0
0
0
0
0
0
0
0
0
0
0
0
0
0
0
0
0
0
0
0
0
0
0
0
0
0
0
0
0
0
0
0
0
0
0
0
0
0
0
0
0
0
0
0
0
0
0
0
0
0
0
0
0
0
0
0
0
0
0
0
0
0
0
0
0
0
0
0
0
0
0
0
0
0
0
0
0
0
0
0
0
0
0
0
0
0
0
0
0
0
0
0
0
0
0
0
0
0
0
0
)
;

boundaryField
{
    inandouthalf11
    {
        type            cyclic;
    }
    inandouthalf12
    {
        type            cyclic;
    }
    inandouthalf21
    {
        type            cyclic;
    }
    inandouthalf22
    {
        type            cyclic;
    }
    inandouthalf31
    {
        type            cyclic;
    }
    inandouthalf32
    {
        type            cyclic;
    }
    inandouthalf41
    {
        type            cyclic;
    }
    inandouthalf42
    {
        type            cyclic;
    }
    top
    {
        type            symmetryPlane;
    }
    walls
    {
        type            calculated;
        value           uniform -4.08055e-24;
    }
    frontAndBackPlanes
    {
        type            empty;
    }
}


// ************************************************************************* //
