/*--------------------------------*- C++ -*----------------------------------*\
| =========                 |                                                 |
| \\      /  F ield         | OpenFOAM: The Open Source CFD Toolbox           |
|  \\    /   O peration     | Version:  2.4.x                                 |
|   \\  /    A nd           | Web:      www.OpenFOAM.org                      |
|    \\/     M anipulation  |                                                 |
\*---------------------------------------------------------------------------*/
FoamFile
{
    version     2.0;
    format      ascii;
    class       volScalarField;
    location    "12.35";
    object      epsilon_0;
}
// * * * * * * * * * * * * * * * * * * * * * * * * * * * * * * * * * * * * * //

dimensions      [0 2 -3 0 0 0 0];

internalField   nonuniform List<scalar> 
360
(
1.60309e-27
1e-20
1e-20
1e-20
1e-20
1e-20
1e-20
1e-20
1e-20
1e-20
1e-20
1e-20
1e-20
1e-20
1e-20
1e-20
1e-20
1e-20
1e-20
1e-20
1e-20
1e-20
1e-20
1e-20
1e-20
1e-20
1e-20
1e-20
1e-20
1e-20
1e-20
1e-20
1e-20
1e-20
1e-20
1e-20
1e-20
1e-20
1e-20
1e-20
1e-20
1e-20
1e-20
1e-20
1e-20
1e-20
1e-20
1e-20
1e-20
1e-20
1e-20
1e-20
1e-20
1e-20
1e-20
1e-20
1e-20
1e-20
1e-20
1e-20
1e-20
1e-20
1e-20
1e-20
1e-20
1e-20
1e-20
1e-20
1e-20
1e-20
1e-20
1e-20
1e-20
1e-20
1e-20
1e-20
1e-20
1e-20
1e-20
1e-20
1e-20
1e-20
1e-20
1e-20
1e-20
1e-20
1e-20
1e-20
1e-20
1e-20
1e-20
1e-20
1e-20
1e-20
1e-20
1e-20
1e-20
1e-20
1e-20
1e-20
1e-20
1e-20
1e-20
1e-20
1e-20
1e-20
1e-20
1e-20
1e-20
1e-20
1e-20
1e-20
1e-20
1e-20
1e-20
1e-20
1e-20
1e-20
1e-20
1e-20
1e-20
1e-20
1e-20
1e-20
1e-20
1e-20
1e-20
1e-20
1e-20
1e-20
1e-20
1.07254e-20
4.42468e-20
2.7628e-19
1.8583e-18
1.3391e-17
1.05851e-16
9.40183e-16
9.58578e-15
1.14189e-13
1.61276e-12
2.73617e-11
5.63976e-10
1.39198e-08
4.23294e-07
1.60692e-05
0.00073041
0.022684
0.142125
0.19496
0.200239
0.191824
0.179026
0.165175
0.151638
0.138973
0.127371
0.116851
0.107354
0.098788
0.0910514
0.0840461
0.0776815
0.0718775
0.066564
0.0616806
0.0571757
0.0530051
0.0491315
0.0455231
0.0421532
0.038999
0.0360416
0.0332651
0.0306562
0.0282038
0.0258991
0.0237347
0.0217045
0.0198037
0.0180285
0.0163754
0.0148416
0.0134243
0.0121207
0.0109275
0.00984128
0.00885788
0.0079726
0.00718014
0.00647461
0.00584971
0.00529881
0.00481513
0.00439196
0.00402274
0.00370127
0.00342177
0.00317895
0.00296805
0.00278482
0.00262393
0.00248151
0.00235565
0.0022446
0.00214675
0.00206066
0.00198503
0.00191868
0.00186058
0.00180979
0.00176547
0.00172689
0.00169338
0.00166434
0.00163923
0.00161757
0.00159891
0.00158285
0.001569
0.00155703
0.00154661
0.00153742
0.00152919
0.00152164
0.0015145
0.00150753
0.00150049
0.00149315
0.00148528
0.00147666
0.00146709
0.00145637
0.00144431
0.00143073
0.00141544
0.0013983
0.00137914
0.00135783
0.00133425
0.00130829
0.00127985
0.00124886
0.00121528
0.00117909
0.00114028
0.00109889
0.00105499
0.00100868
0.000960107
0.000909448
0.000856937
0.000802854
0.000747525
0.000691329
0.000634695
0.000578096
0.00052205
0.000467107
0.000413839
0.00036282
0.000314606
0.000269706
0.000228555
0.000191477
0.000158659
0.000130132
0.000105764
8.52743e-05
6.82583e-05
5.42366e-05
4.27029e-05
3.31719e-05
2.52189e-05
1.85086e-05
1.28134e-05
8.02592e-06
4.16781e-06
1.3855e-06
1.5955e-07
4.20623e-09
5.88066e-11
7.56026e-13
9.1595e-15
1.04569e-16
1.13181e-18
1.93981e-20
1e-20
1e-20
1e-20
1e-20
1e-20
1e-20
1e-20
1e-20
1e-20
1e-20
1e-20
1e-20
1e-20
1e-20
1e-20
1e-20
1e-20
1e-20
1e-20
1e-20
1e-20
1e-20
1e-20
1e-20
1e-20
1e-20
1e-20
1e-20
1e-20
1e-20
1e-20
1e-20
1e-20
1e-20
1e-20
1e-20
1e-20
1e-20
1e-20
1e-20
1e-20
1e-20
1e-20
1e-20
1e-20
1e-20
1e-20
1e-20
1e-20
1e-20
1e-20
1e-20
1e-20
1e-20
1e-20
1e-20
1e-20
1e-20
1e-20
1e-20
1e-20
1e-20
1e-20
1e-20
1e-20
1e-20
1e-20
1e-20
1e-20
1e-20
1e-20
1e-20
1e-20
)
;

boundaryField
{
    inandouthalf11
    {
        type            cyclic;
    }
    inandouthalf12
    {
        type            cyclic;
    }
    inandouthalf21
    {
        type            cyclic;
    }
    inandouthalf22
    {
        type            cyclic;
    }
    inandouthalf31
    {
        type            cyclic;
    }
    inandouthalf32
    {
        type            cyclic;
    }
    inandouthalf41
    {
        type            cyclic;
    }
    inandouthalf42
    {
        type            cyclic;
    }
    top
    {
        type            symmetryPlane;
    }
    walls
    {
        type            zeroGradient;
    }
    frontAndBackPlanes
    {
        type            empty;
    }
}


// ************************************************************************* //
