/*--------------------------------*- C++ -*----------------------------------*\
| =========                 |                                                 |
| \\      /  F ield         | OpenFOAM: The Open Source CFD Toolbox           |
|  \\    /   O peration     | Version:  2.4.x                                 |
|   \\  /    A nd           | Web:      www.OpenFOAM.org                      |
|    \\/     M anipulation  |                                                 |
\*---------------------------------------------------------------------------*/
FoamFile
{
    version     2.0;
    format      ascii;
    class       volScalarField;
    location    "12.35";
    object      k;
}
// * * * * * * * * * * * * * * * * * * * * * * * * * * * * * * * * * * * * * //

dimensions      [0 2 -2 0 0 0 0];

internalField   nonuniform List<scalar> 
360
(
1e-20
1e-20
1e-20
1e-20
1e-20
1e-20
1e-20
1e-20
1e-20
1e-20
1e-20
1e-20
1e-20
1e-20
1e-20
1e-20
1e-20
1e-20
1e-20
1e-20
1e-20
1e-20
1e-20
1e-20
1e-20
1e-20
1e-20
1e-20
1e-20
1e-20
1e-20
1e-20
1e-20
1e-20
1e-20
1e-20
1e-20
1e-20
1e-20
1e-20
1e-20
1e-20
1e-20
1e-20
1e-20
1e-20
1e-20
1e-20
1e-20
1e-20
1e-20
1e-20
1e-20
1e-20
1e-20
1e-20
1e-20
1e-20
1e-20
1e-20
1e-20
1e-20
1e-20
1e-20
1e-20
1e-20
1e-20
1e-20
1e-20
1e-20
1e-20
1e-20
1e-20
1e-20
1e-20
1e-20
1e-20
1e-20
1e-20
1e-20
1e-20
1e-20
1e-20
1e-20
1e-20
1e-20
1e-20
1e-20
1e-20
1e-20
1e-20
1e-20
1e-20
1e-20
1e-20
1e-20
1e-20
1e-20
1e-20
1e-20
1e-20
1e-20
1e-20
1e-20
1e-20
1e-20
1e-20
1e-20
1e-20
1e-20
1e-20
1e-20
1e-20
1e-20
1e-20
1e-20
1e-20
1e-20
1e-20
1e-20
1e-20
1e-20
1e-20
1e-20
1e-20
1e-20
1e-20
1e-20
1e-20
1e-20
1e-20
1e-20
2.83026e-20
1.55844e-19
9.26463e-19
5.80066e-18
3.91524e-17
2.92317e-16
2.47232e-15
2.41648e-14
2.77301e-13
3.79072e-12
6.36436e-11
1.25836e-09
3.01671e-08
9.01618e-07
3.18306e-05
0.00076617
0.00403519
0.00629423
0.00745765
0.0081338
0.00854761
0.00880207
0.00895326
0.00903334
0.00906139
0.00904905
0.00900382
0.00893087
0.008834
0.00871622
0.00858002
0.00842755
0.00826067
0.00808107
0.00789023
0.00768956
0.0074803
0.00726367
0.00704079
0.00681274
0.00658059
0.00634538
0.00610816
0.00586998
0.00563192
0.00539508
0.00516058
0.00492956
0.00470317
0.00448254
0.00426878
0.00406296
0.00386608
0.00367908
0.00350276
0.00333778
0.00318464
0.00304362
0.00291481
0.00279809
0.00269316
0.00259954
0.00251662
0.00244367
0.00237992
0.00232455
0.00227677
0.00223579
0.00220085
0.00217098
0.00214546
0.00212394
0.00210609
0.00209155
0.00208003
0.00207122
0.00206483
0.00206062
0.00205833
0.00205773
0.00205861
0.00206077
0.00206401
0.00206815
0.00207302
0.00207844
0.00208425
0.00209029
0.00209639
0.0021024
0.00210817
0.00211353
0.00211832
0.0021224
0.0021256
0.00212775
0.00212871
0.00212831
0.00212639
0.00212279
0.00211734
0.00210989
0.00210028
0.00208835
0.00207395
0.00205693
0.00203714
0.00201445
0.00198874
0.00195987
0.00192774
0.00189227
0.00185337
0.00181098
0.00176506
0.0017156
0.00166263
0.00160619
0.00154636
0.00148328
0.00141713
0.00134813
0.00127658
0.00120283
0.00112731
0.00105049
0.00097296
0.000895336
0.000818318
0.000742644
0.00066908
0.000598382
0.000531254
0.000468304
0.000409992
0.000356581
0.000308117
0.000264424
0.000225129
0.000189721
0.000157617
0.00012824
0.000101103
7.5877e-05
5.24828e-05
3.12043e-05
1.28259e-05
1.88948e-06
5.62836e-08
7.871e-10
1.00502e-11
1.20987e-13
1.37296e-15
1.46872e-17
1.53574e-19
1.01517e-20
1e-20
1e-20
1e-20
1e-20
1e-20
1e-20
1e-20
1e-20
1e-20
1e-20
1e-20
1e-20
1e-20
1e-20
1e-20
1e-20
1e-20
1e-20
1e-20
1e-20
1e-20
1e-20
1e-20
1e-20
1e-20
1e-20
1e-20
1e-20
1e-20
1e-20
1e-20
1e-20
1e-20
1e-20
1e-20
1e-20
1e-20
1e-20
1e-20
1e-20
1e-20
1e-20
1e-20
1e-20
1e-20
1e-20
1e-20
1e-20
1e-20
1e-20
1e-20
1e-20
1e-20
1e-20
1e-20
1e-20
1e-20
1e-20
1e-20
1e-20
1e-20
1e-20
1e-20
1e-20
1e-20
1e-20
1e-20
1e-20
1e-20
1e-20
1e-20
1e-20
)
;

boundaryField
{
    inandouthalf11
    {
        type            cyclic;
    }
    inandouthalf12
    {
        type            cyclic;
    }
    inandouthalf21
    {
        type            cyclic;
    }
    inandouthalf22
    {
        type            cyclic;
    }
    inandouthalf31
    {
        type            cyclic;
    }
    inandouthalf32
    {
        type            cyclic;
    }
    inandouthalf41
    {
        type            cyclic;
    }
    inandouthalf42
    {
        type            cyclic;
    }
    top
    {
        type            symmetryPlane;
    }
    walls
    {
        type            zeroGradient;
    }
    frontAndBackPlanes
    {
        type            empty;
    }
}


// ************************************************************************* //
