/*--------------------------------*- C++ -*----------------------------------*\
| =========                 |                                                 |
| \\      /  F ield         | OpenFOAM: The Open Source CFD Toolbox           |
|  \\    /   O peration     | Version:  2.4.x                                 |
|   \\  /    A nd           | Web:      www.OpenFOAM.org                      |
|    \\/     M anipulation  |                                                 |
\*---------------------------------------------------------------------------*/
FoamFile
{
    version     2.0;
    format      ascii;
    class       volScalarField;
    location    "12.35";
    object      mua;
}
// * * * * * * * * * * * * * * * * * * * * * * * * * * * * * * * * * * * * * //

dimensions      [1 -1 -1 0 0 0 0];

internalField   nonuniform List<scalar> 
360
(
8.26698e+07
5.89128e+07
7.20656e+07
7.20806e+07
6.68159e+07
6.36418e+07
6.16603e+07
5.9663e+07
5.74969e+07
5.5275e+07
5.30973e+07
5.10314e+07
4.9097e+07
4.72968e+07
4.5624e+07
4.40717e+07
4.26399e+07
4.13292e+07
4.01322e+07
3.90413e+07
3.80559e+07
3.71626e+07
3.63565e+07
3.56337e+07
3.4988e+07
3.44162e+07
3.39125e+07
3.34682e+07
3.30835e+07
3.27561e+07
3.24787e+07
3.22478e+07
3.2065e+07
3.19171e+07
3.18117e+07
3.1743e+07
3.17082e+07
3.16991e+07
3.17181e+07
3.177e+07
3.18366e+07
3.19283e+07
3.20443e+07
3.21691e+07
3.23108e+07
3.24644e+07
3.26318e+07
3.28181e+07
3.30022e+07
3.31852e+07
3.33837e+07
3.35827e+07
3.37815e+07
3.39799e+07
3.41795e+07
3.43698e+07
3.45624e+07
3.47461e+07
3.49303e+07
3.51114e+07
3.52724e+07
3.54278e+07
3.55683e+07
3.57011e+07
3.58259e+07
3.59412e+07
3.60408e+07
3.61294e+07
3.62148e+07
3.62908e+07
3.63391e+07
3.63739e+07
3.64086e+07
3.64218e+07
3.64173e+07
3.63992e+07
3.63798e+07
3.63527e+07
3.63123e+07
3.62618e+07
3.62041e+07
3.61325e+07
3.60462e+07
3.59478e+07
3.58383e+07
3.57196e+07
3.55937e+07
3.54645e+07
3.53322e+07
3.51949e+07
3.5052e+07
3.49021e+07
3.47426e+07
3.4573e+07
3.43941e+07
3.42066e+07
3.40118e+07
3.38106e+07
3.36031e+07
3.33885e+07
3.31658e+07
3.29331e+07
3.26886e+07
3.24307e+07
3.2158e+07
3.18691e+07
3.15626e+07
3.12372e+07
3.08916e+07
3.05248e+07
3.01363e+07
2.97262e+07
2.92954e+07
2.88458e+07
2.83806e+07
2.7904e+07
2.74211e+07
2.69381e+07
2.64614e+07
2.59971e+07
2.55499e+07
2.51221e+07
2.47116e+07
2.43092e+07
2.38958e+07
2.34396e+07
2.28973e+07
2.22201e+07
2.13697e+07
2.03374e+07
1.9158e+07
1.791e+07
1.67106e+07
1.57348e+07
1.52719e+07
1.58137e+07
1.82579e+07
2.45924e+07
4.01573e+07
8.04343e+07
1.72808e+08
1.89523e+08
4.25905e+07
4.65098e+07
8.703e+07
5.93598e+07
0.180548
0.0197997
0.0113212
0.00927566
0.00807241
0.00723919
0.00666872
0.00628873
0.00604575
0.00589728
0.00581044
0.00576112
0.00573265
0.00571411
0.00569868
0.00568235
0.00566287
0.00563912
0.00561068
0.00557753
0.0055399
0.00549815
0.00545273
0.00540414
0.0053529
0.00529953
0.00524455
0.00518847
0.00513178
0.00507495
0.0050184
0.00496248
0.00490749
0.00485365
0.00480108
0.00474984
0.00469993
0.00465132
0.00460397
0.00455784
0.00451287
0.00446904
0.0044263
0.00438463
0.00434398
0.00430431
0.00426558
0.00422775
0.00419077
0.00415459
0.00411915
0.0040844
0.00405028
0.00401674
0.00398372
0.00395082
0.00391768
0.00388424
0.00385045
0.00381624
0.00378153
0.00374626
0.00371033
0.00367367
0.00363616
0.00359769
0.00355816
0.00351743
0.00347537
0.00343181
0.0033866
0.00333954
0.00329044
0.00323904
0.00318509
0.00312829
0.00306829
0.00300467
0.00293695
0.00286454
0.00278672
0.00270256
0.00261091
0.00251021
0.00239831
0.00227214
0.00212696
0.00195481
0.00174039
0.00144606
0
0
0
0
0
0
0
0
0
0
0
0
0
0
0
0
0
0
0
0
0
0
0
0
0
0
0
0
0
0
0
0
0
0
0
0
0
0
0
0
0
0
0
0
0
0
0
0
0
0
0
0
0
0
0
0
0
0
0
0
0
0
0
0
0
0
0
0
0
0
0
0
0
0
0
0
0
0
0
0
0
0
0
0
0
0
0
0
0
0
0
0
0
0
0
0
0
0
0
0
0
0
0
0
0
0
0
0
0
0
0
0
0
0
0
0
0
0
0
0
0
0
0
0
)
;

boundaryField
{
    inandouthalf11
    {
        type            cyclic;
    }
    inandouthalf12
    {
        type            cyclic;
    }
    inandouthalf21
    {
        type            cyclic;
    }
    inandouthalf22
    {
        type            cyclic;
    }
    inandouthalf31
    {
        type            cyclic;
    }
    inandouthalf32
    {
        type            cyclic;
    }
    inandouthalf41
    {
        type            cyclic;
    }
    inandouthalf42
    {
        type            cyclic;
    }
    top
    {
        type            symmetryPlane;
    }
    walls
    {
        type            calculated;
        value           uniform 1e+30;
    }
    frontAndBackPlanes
    {
        type            empty;
    }
}


// ************************************************************************* //
