/*--------------------------------*- C++ -*----------------------------------*\
| =========                 |                                                 |
| \\      /  F ield         | OpenFOAM: The Open Source CFD Toolbox           |
|  \\    /   O peration     | Version:  2.4.x                                 |
|   \\  /    A nd           | Web:      www.OpenFOAM.org                      |
|    \\/     M anipulation  |                                                 |
\*---------------------------------------------------------------------------*/
FoamFile
{
    version     2.0;
    format      ascii;
    class       surfaceScalarField;
    location    "12.35";
    object      phia_0;
}
// * * * * * * * * * * * * * * * * * * * * * * * * * * * * * * * * * * * * * //

dimensions      [0 3 -1 0 0 0 0];

internalField   nonuniform List<scalar> 
359
(
-4.41797e-15
-1.10296e-14
-1.7181e-14
-2.3167e-14
-2.94214e-14
-3.59358e-14
-4.26368e-14
-4.95214e-14
-5.66148e-14
-6.39424e-14
-7.15185e-14
-7.93464e-14
-8.74265e-14
-9.57552e-14
-1.04328e-13
-1.1314e-13
-1.22182e-13
-1.31442e-13
-1.40909e-13
-1.50569e-13
-1.60404e-13
-1.704e-13
-1.80539e-13
-1.90805e-13
-2.01179e-13
-2.11643e-13
-2.22178e-13
-2.32768e-13
-2.43395e-13
-2.54041e-13
-2.64689e-13
-2.75326e-13
-2.85932e-13
-2.965e-13
-3.0701e-13
-3.17453e-13
-3.27817e-13
-3.38092e-13
-3.48272e-13
-3.58341e-13
-3.68301e-13
-3.78141e-13
-3.87853e-13
-3.9744e-13
-4.06893e-13
-4.16212e-13
-4.25396e-13
-4.34437e-13
-4.4334e-13
-4.52108e-13
-4.60734e-13
-4.69223e-13
-4.77575e-13
-4.85794e-13
-4.93878e-13
-5.01833e-13
-5.09658e-13
-5.17358e-13
-5.24934e-13
-5.32387e-13
-5.39724e-13
-5.46944e-13
-5.54055e-13
-5.61056e-13
-5.67952e-13
-5.74743e-13
-5.81434e-13
-5.88027e-13
-5.94524e-13
-6.00926e-13
-6.07239e-13
-6.13465e-13
-6.19603e-13
-6.25659e-13
-6.31635e-13
-6.37533e-13
-6.43353e-13
-6.49096e-13
-6.54764e-13
-6.60359e-13
-6.65882e-13
-6.71333e-13
-6.76716e-13
-6.82032e-13
-6.87281e-13
-6.92465e-13
-6.97585e-13
-7.0264e-13
-7.0763e-13
-7.12556e-13
-7.17417e-13
-7.22215e-13
-7.26949e-13
-7.31622e-13
-7.36232e-13
-7.40782e-13
-7.4527e-13
-7.49698e-13
-7.54065e-13
-7.58371e-13
-7.62617e-13
-7.66804e-13
-7.70931e-13
-7.74999e-13
-7.79011e-13
-7.82965e-13
-7.86865e-13
-7.9071e-13
-7.94503e-13
-7.98244e-13
-8.01935e-13
-8.05578e-13
-8.09174e-13
-8.12723e-13
-8.16226e-13
-8.19684e-13
-8.23094e-13
-8.26457e-13
-8.29768e-13
-8.33025e-13
-8.36223e-13
-8.39359e-13
-8.42427e-13
-8.45424e-13
-8.4835e-13
-8.51206e-13
-8.54e-13
-8.56746e-13
-8.59462e-13
-8.62169e-13
-8.64887e-13
-8.67626e-13
-8.70383e-13
-8.73119e-13
-8.7574e-13
-8.78083e-13
-8.79947e-13
-8.81206e-13
-8.81898e-13
-8.82202e-13
-8.82333e-13
-8.8232e-13
-8.82772e-13
-8.82945e-13
-8.83039e-13
-8.82997e-13
-9.50543e-12
-6.07045e-10
-1.01304e-09
-1.23457e-09
-1.35438e-09
-1.41638e-09
-1.42522e-09
-1.37977e-09
-1.2772e-09
-1.11501e-09
-8.91843e-10
-6.07595e-10
-2.63306e-10
1.39078e-10
5.96873e-10
1.10695e-09
1.66577e-09
2.2695e-09
2.91399e-09
3.59477e-09
4.307e-09
5.04537e-09
5.80394e-09
6.57605e-09
7.35405e-09
8.12905e-09
8.89059e-09
9.62582e-09
1.03177e-08
1.09414e-08
1.146e-08
1.18235e-08
1.19754e-08
1.18703e-08
1.1491e-08
1.0856e-08
1.00114e-08
9.01617e-09
7.92858e-09
6.7986e-09
5.66533e-09
4.5574e-09
3.49467e-09
2.49006e-09
1.55136e-09
6.82568e-10
-1.15026e-10
-8.42032e-10
-1.50039e-09
-2.09292e-09
-2.62303e-09
-3.09449e-09
-3.51122e-09
-3.87724e-09
-4.19653e-09
-4.47817e-09
-4.7238e-09
-4.93523e-09
-5.11442e-09
-5.26342e-09
-5.38435e-09
-5.47934e-09
-5.55049e-09
-5.59983e-09
-5.62929e-09
-5.64069e-09
-5.63571e-09
-5.61591e-09
-5.5827e-09
-5.53737e-09
-5.48109e-09
-5.41491e-09
-5.3398e-09
-5.25657e-09
-5.16591e-09
-5.06832e-09
-4.96407e-09
-4.85322e-09
-4.73562e-09
-4.61113e-09
-4.48031e-09
-4.34578e-09
-4.21465e-09
-4.10188e-09
-4.03313e-09
-4.04198e-09
-4.14405e-09
-4.29499e-09
-4.41962e-09
-4.59457e-09
-5.35239e-09
-6.9306e-09
-8.39712e-09
-9.6775e-09
-1.07553e-08
-1.16207e-08
-1.2273e-08
-1.27201e-08
-1.29765e-08
-1.30623e-08
-1.2996e-08
-1.28263e-08
-1.259e-08
-1.1807e-08
-1.32397e-08
-6.27104e-08
-1.43875e-07
-1.58599e-07
-1.5845e-07
-1.58445e-07
-1.58445e-07
-1.58442e-07
-1.58438e-07
-1.58431e-07
-1.58422e-07
-1.58412e-07
-1.58399e-07
-1.58385e-07
-1.5837e-07
-1.58354e-07
-1.58338e-07
-1.58323e-07
-1.58309e-07
-1.58296e-07
-1.58285e-07
-1.58276e-07
-1.58268e-07
-1.58262e-07
-1.58256e-07
-1.58251e-07
-1.58246e-07
-1.58238e-07
-1.58221e-07
-1.58203e-07
-1.582e-07
-1.582e-07
-1.582e-07
-1.582e-07
-1.582e-07
-1.582e-07
-1.582e-07
-1.582e-07
-1.582e-07
-1.582e-07
-1.582e-07
-1.582e-07
-1.582e-07
-1.582e-07
-1.582e-07
-1.582e-07
-1.582e-07
-1.582e-07
-1.582e-07
-1.582e-07
-1.582e-07
-1.582e-07
-1.582e-07
-1.582e-07
-1.582e-07
-1.582e-07
-1.582e-07
-1.582e-07
-1.582e-07
-1.582e-07
-1.582e-07
-1.582e-07
-1.582e-07
-1.582e-07
-1.582e-07
-1.582e-07
-1.582e-07
-1.582e-07
-1.582e-07
-1.582e-07
-1.582e-07
-1.582e-07
-1.582e-07
-1.582e-07
-1.582e-07
-1.582e-07
-1.582e-07
-1.582e-07
-1.582e-07
-1.582e-07
-1.582e-07
-1.582e-07
-1.582e-07
-1.582e-07
-1.582e-07
-1.582e-07
-1.582e-07
-1.582e-07
-1.582e-07
-1.582e-07
-1.582e-07
-1.582e-07
-1.582e-07
-1.582e-07
-1.582e-07
-1.582e-07
-1.582e-07
-1.582e-07
-1.582e-07
-1.582e-07
-1.582e-07
-1.582e-07
-1.582e-07
-1.582e-07
-1.582e-07
-1.582e-07
-1.58183e-07
-1.57476e-07
-1.32607e-07
)
;

boundaryField
{
    inandouthalf11
    {
        type            cyclic;
        value           nonuniform List<scalar> 
100
(
1.61973e-38
4.57548e-16
9.52055e-16
1.40117e-15
1.86697e-15
2.36251e-15
2.87797e-15
3.40976e-15
3.9598e-15
4.53048e-15
5.12345e-15
5.73962e-15
6.37931e-15
7.04257e-15
7.7293e-15
8.43926e-15
9.17208e-15
9.92713e-15
1.07036e-14
1.15005e-14
1.23168e-14
1.31512e-14
1.40026e-14
1.48695e-14
1.57507e-14
1.66445e-14
1.75495e-14
1.84642e-14
1.93872e-14
2.03169e-14
2.12518e-14
2.21907e-14
2.3132e-14
2.40744e-14
2.50168e-14
2.59579e-14
2.68966e-14
2.78318e-14
2.87627e-14
2.96884e-14
3.0608e-14
3.15209e-14
3.24264e-14
3.3324e-14
3.42133e-14
3.50939e-14
3.59655e-14
3.68276e-14
3.768e-14
3.85228e-14
3.93559e-14
4.01791e-14
4.09924e-14
4.1796e-14
4.25897e-14
4.33738e-14
4.41484e-14
4.49136e-14
4.56695e-14
4.64162e-14
4.71539e-14
4.78829e-14
4.86035e-14
4.9316e-14
5.00204e-14
5.07169e-14
5.14058e-14
5.20873e-14
5.27615e-14
5.34286e-14
5.40888e-14
5.47426e-14
5.53899e-14
5.60309e-14
5.6666e-14
5.72954e-14
5.79192e-14
5.85373e-14
5.915e-14
5.97573e-14
6.03594e-14
6.09564e-14
6.15484e-14
6.21357e-14
6.27184e-14
6.32965e-14
6.38701e-14
6.44393e-14
6.50041e-14
6.55644e-14
6.61203e-14
6.66719e-14
6.72191e-14
6.77621e-14
6.8301e-14
6.88359e-14
6.93667e-14
6.98936e-14
7.04167e-14
7.09358e-14
)
;
    }
    inandouthalf12
    {
        type            cyclic;
        value           nonuniform List<scalar> 
100
(
-1.61973e-38
-4.57548e-16
-9.52055e-16
-1.40117e-15
-1.86697e-15
-2.36251e-15
-2.87797e-15
-3.40976e-15
-3.9598e-15
-4.53048e-15
-5.12345e-15
-5.73962e-15
-6.37931e-15
-7.04257e-15
-7.7293e-15
-8.43926e-15
-9.17208e-15
-9.92713e-15
-1.07036e-14
-1.15005e-14
-1.23168e-14
-1.31512e-14
-1.40026e-14
-1.48695e-14
-1.57507e-14
-1.66445e-14
-1.75495e-14
-1.84642e-14
-1.93872e-14
-2.03169e-14
-2.12518e-14
-2.21907e-14
-2.3132e-14
-2.40744e-14
-2.50168e-14
-2.59579e-14
-2.68966e-14
-2.78318e-14
-2.87627e-14
-2.96884e-14
-3.0608e-14
-3.15209e-14
-3.24264e-14
-3.3324e-14
-3.42133e-14
-3.50939e-14
-3.59655e-14
-3.68276e-14
-3.768e-14
-3.85228e-14
-3.93559e-14
-4.01791e-14
-4.09924e-14
-4.1796e-14
-4.25897e-14
-4.33738e-14
-4.41484e-14
-4.49136e-14
-4.56695e-14
-4.64162e-14
-4.71539e-14
-4.78829e-14
-4.86035e-14
-4.9316e-14
-5.00204e-14
-5.07169e-14
-5.14058e-14
-5.20873e-14
-5.27615e-14
-5.34286e-14
-5.40888e-14
-5.47426e-14
-5.53899e-14
-5.60309e-14
-5.6666e-14
-5.72954e-14
-5.79192e-14
-5.85373e-14
-5.915e-14
-5.97573e-14
-6.03594e-14
-6.09564e-14
-6.15484e-14
-6.21357e-14
-6.27184e-14
-6.32965e-14
-6.38701e-14
-6.44393e-14
-6.50041e-14
-6.55644e-14
-6.61203e-14
-6.66719e-14
-6.72191e-14
-6.77621e-14
-6.8301e-14
-6.88359e-14
-6.93667e-14
-6.98936e-14
-7.04167e-14
-7.09358e-14
)
;
    }
    inandouthalf21
    {
        type            cyclic;
        value           nonuniform List<scalar> 
100
(
7.14512e-14
7.19628e-14
7.24709e-14
7.29754e-14
7.34767e-14
7.39749e-14
7.44701e-14
7.49627e-14
7.5453e-14
7.59412e-14
7.64276e-14
7.69126e-14
7.73966e-14
7.788e-14
7.83629e-14
7.88458e-14
7.93289e-14
7.98123e-14
8.0296e-14
8.07801e-14
8.12642e-14
8.17481e-14
8.22316e-14
8.27144e-14
8.31967e-14
8.36791e-14
8.4163e-14
8.4651e-14
8.5147e-14
8.56563e-14
8.61847e-14
8.67383e-14
8.73215e-14
8.79342e-14
8.85656e-14
8.9186e-14
8.97429e-14
9.01771e-14
9.04566e-14
9.05993e-14
9.06604e-14
9.0695e-14
9.07367e-14
9.08285e-14
9.08819e-14
9.09214e-14
9.10023e-14
2.15787e-08
1.20205e-07
2.15621e-07
2.92042e-07
3.55353e-07
4.08803e-07
4.54612e-07
4.94356e-07
5.29209e-07
5.60068e-07
5.87633e-07
6.12458e-07
6.34979e-07
6.55543e-07
6.74428e-07
6.91854e-07
7.07998e-07
7.23004e-07
7.36986e-07
7.50041e-07
7.62244e-07
7.73661e-07
7.84345e-07
7.9434e-07
8.03686e-07
8.12416e-07
8.2056e-07
8.28146e-07
8.35198e-07
8.41744e-07
8.47808e-07
8.53416e-07
8.586e-07
8.63388e-07
8.67814e-07
8.7191e-07
8.75705e-07
8.79228e-07
8.82501e-07
8.85546e-07
8.88382e-07
8.91023e-07
8.93485e-07
8.9578e-07
8.9792e-07
8.99914e-07
9.01773e-07
9.03505e-07
9.05118e-07
9.06621e-07
9.0802e-07
9.09321e-07
9.10533e-07
)
;
    }
    inandouthalf22
    {
        type            cyclic;
        value           nonuniform List<scalar> 
100
(
-7.14512e-14
-7.19628e-14
-7.24709e-14
-7.29754e-14
-7.34767e-14
-7.39749e-14
-7.44701e-14
-7.49627e-14
-7.5453e-14
-7.59412e-14
-7.64276e-14
-7.69126e-14
-7.73966e-14
-7.788e-14
-7.83629e-14
-7.88458e-14
-7.93289e-14
-7.98123e-14
-8.0296e-14
-8.07801e-14
-8.12642e-14
-8.17481e-14
-8.22316e-14
-8.27144e-14
-8.31967e-14
-8.36791e-14
-8.4163e-14
-8.4651e-14
-8.5147e-14
-8.56563e-14
-8.61847e-14
-8.67383e-14
-8.73215e-14
-8.79342e-14
-8.85656e-14
-8.9186e-14
-8.97429e-14
-9.01771e-14
-9.04566e-14
-9.05993e-14
-9.06604e-14
-9.0695e-14
-9.07367e-14
-9.08285e-14
-9.08819e-14
-9.09214e-14
-9.10023e-14
-2.15787e-08
-1.20205e-07
-2.15621e-07
-2.92042e-07
-3.55353e-07
-4.08803e-07
-4.54612e-07
-4.94356e-07
-5.29209e-07
-5.60068e-07
-5.87633e-07
-6.12458e-07
-6.34979e-07
-6.55543e-07
-6.74428e-07
-6.91854e-07
-7.07998e-07
-7.23004e-07
-7.36986e-07
-7.50041e-07
-7.62244e-07
-7.73661e-07
-7.84345e-07
-7.9434e-07
-8.03686e-07
-8.12416e-07
-8.2056e-07
-8.28146e-07
-8.35198e-07
-8.41744e-07
-8.47808e-07
-8.53416e-07
-8.586e-07
-8.63388e-07
-8.67814e-07
-8.7191e-07
-8.75705e-07
-8.79228e-07
-8.82501e-07
-8.85546e-07
-8.88382e-07
-8.91023e-07
-8.93485e-07
-8.9578e-07
-8.9792e-07
-8.99914e-07
-9.01773e-07
-9.03505e-07
-9.05118e-07
-9.06621e-07
-9.0802e-07
-9.09321e-07
-9.10533e-07
)
;
    }
    inandouthalf31
    {
        type            cyclic;
        value           nonuniform List<scalar> 
110
(
9.11662e-07
9.31245e-07
9.5119e-07
9.71502e-07
9.9219e-07
1.01326e-06
1.03472e-06
1.05658e-06
1.07885e-06
1.10153e-06
1.12463e-06
1.14817e-06
1.17216e-06
1.19659e-06
1.22149e-06
1.24686e-06
1.27271e-06
1.29905e-06
1.32591e-06
1.35327e-06
1.38117e-06
1.4096e-06
1.43858e-06
1.46812e-06
1.49824e-06
1.52895e-06
1.56025e-06
1.59217e-06
1.62471e-06
1.65789e-06
1.69172e-06
1.72623e-06
1.76142e-06
1.7973e-06
1.83389e-06
1.87119e-06
1.90925e-06
1.95943e-06
1.99499e-06
2.03111e-06
2.06777e-06
2.10499e-06
2.14278e-06
2.18116e-06
2.22012e-06
2.25971e-06
2.29992e-06
2.34079e-06
2.38233e-06
2.42454e-06
2.46758e-06
2.51105e-06
2.55498e-06
2.60106e-06
2.64685e-06
2.69418e-06
2.74247e-06
2.79186e-06
2.84242e-06
2.89424e-06
2.9474e-06
3.00201e-06
3.05817e-06
3.11601e-06
3.17561e-06
3.23709e-06
3.30053e-06
3.36603e-06
3.4337e-06
3.5034e-06
3.5753e-06
3.64934e-06
3.7255e-06
3.80371e-06
3.88391e-06
3.96601e-06
4.04986e-06
4.13532e-06
4.22214e-06
4.30935e-06
4.39706e-06
4.48632e-06
4.57738e-06
4.67029e-06
4.76508e-06
4.8618e-06
4.96048e-06
5.06117e-06
5.1639e-06
5.26871e-06
5.37565e-06
5.48476e-06
5.59609e-06
5.70967e-06
5.82556e-06
5.94381e-06
6.06445e-06
6.18754e-06
6.31313e-06
6.44127e-06
6.57202e-06
6.70541e-06
6.84151e-06
6.98038e-06
7.12206e-06
7.26662e-06
7.41411e-06
7.5646e-06
7.71814e-06
7.8748e-06
)
;
    }
    inandouthalf32
    {
        type            cyclic;
        value           nonuniform List<scalar> 
110
(
-9.11662e-07
-9.31245e-07
-9.5119e-07
-9.71502e-07
-9.9219e-07
-1.01326e-06
-1.03472e-06
-1.05658e-06
-1.07885e-06
-1.10153e-06
-1.12463e-06
-1.14817e-06
-1.17216e-06
-1.19659e-06
-1.22149e-06
-1.24686e-06
-1.27271e-06
-1.29905e-06
-1.32591e-06
-1.35327e-06
-1.38117e-06
-1.4096e-06
-1.43858e-06
-1.46812e-06
-1.49824e-06
-1.52895e-06
-1.56025e-06
-1.59217e-06
-1.62471e-06
-1.65789e-06
-1.69172e-06
-1.72623e-06
-1.76142e-06
-1.7973e-06
-1.83389e-06
-1.87119e-06
-1.90925e-06
-1.95943e-06
-1.99499e-06
-2.03111e-06
-2.06777e-06
-2.10499e-06
-2.14278e-06
-2.18116e-06
-2.22012e-06
-2.25971e-06
-2.29992e-06
-2.34079e-06
-2.38233e-06
-2.42454e-06
-2.46758e-06
-2.51105e-06
-2.55498e-06
-2.60106e-06
-2.64685e-06
-2.69418e-06
-2.74247e-06
-2.79186e-06
-2.84242e-06
-2.89424e-06
-2.9474e-06
-3.00201e-06
-3.05817e-06
-3.11601e-06
-3.17561e-06
-3.23709e-06
-3.30053e-06
-3.36603e-06
-3.4337e-06
-3.5034e-06
-3.5753e-06
-3.64934e-06
-3.7255e-06
-3.80371e-06
-3.88391e-06
-3.96601e-06
-4.04986e-06
-4.13532e-06
-4.22214e-06
-4.30935e-06
-4.39706e-06
-4.48632e-06
-4.57738e-06
-4.67029e-06
-4.76508e-06
-4.8618e-06
-4.96048e-06
-5.06117e-06
-5.1639e-06
-5.26871e-06
-5.37565e-06
-5.48476e-06
-5.59609e-06
-5.70967e-06
-5.82556e-06
-5.94381e-06
-6.06445e-06
-6.18754e-06
-6.31313e-06
-6.44127e-06
-6.57202e-06
-6.70541e-06
-6.84151e-06
-6.98038e-06
-7.12206e-06
-7.26662e-06
-7.41411e-06
-7.5646e-06
-7.71814e-06
-7.8748e-06
)
;
    }
    inandouthalf41
    {
        type            cyclic;
        value           nonuniform List<scalar> 
50
(
7.04875e-06
7.04875e-06
7.04875e-06
7.04875e-06
7.04875e-06
7.04875e-06
7.04875e-06
7.04875e-06
7.04875e-06
7.04875e-06
7.04875e-06
7.04875e-06
7.04875e-06
7.04875e-06
7.04875e-06
7.04875e-06
7.04875e-06
7.04875e-06
7.04875e-06
7.04875e-06
7.04875e-06
7.04875e-06
7.04875e-06
7.04875e-06
7.04875e-06
7.04875e-06
7.04875e-06
7.04875e-06
7.04875e-06
7.04875e-06
7.04875e-06
7.04875e-06
7.04875e-06
7.04875e-06
7.04875e-06
7.04875e-06
7.04875e-06
7.04875e-06
7.04875e-06
7.04875e-06
7.04875e-06
7.04875e-06
7.04875e-06
7.04875e-06
7.04875e-06
7.04875e-06
7.04875e-06
7.04875e-06
7.04874e-06
7.04862e-06
)
;
    }
    inandouthalf42
    {
        type            cyclic;
        value           nonuniform List<scalar> 
50
(
-7.04875e-06
-7.04875e-06
-7.04875e-06
-7.04875e-06
-7.04875e-06
-7.04875e-06
-7.04875e-06
-7.04875e-06
-7.04875e-06
-7.04875e-06
-7.04875e-06
-7.04875e-06
-7.04875e-06
-7.04875e-06
-7.04875e-06
-7.04875e-06
-7.04875e-06
-7.04875e-06
-7.04875e-06
-7.04875e-06
-7.04875e-06
-7.04875e-06
-7.04875e-06
-7.04875e-06
-7.04875e-06
-7.04875e-06
-7.04875e-06
-7.04875e-06
-7.04875e-06
-7.04875e-06
-7.04875e-06
-7.04875e-06
-7.04875e-06
-7.04875e-06
-7.04875e-06
-7.04875e-06
-7.04875e-06
-7.04875e-06
-7.04875e-06
-7.04875e-06
-7.04875e-06
-7.04875e-06
-7.04875e-06
-7.04875e-06
-7.04875e-06
-7.04875e-06
-7.04875e-06
-7.04875e-06
-7.04874e-06
-7.04862e-06
)
;
    }
    top
    {
        type            symmetryPlane;
        value           uniform 0;
    }
    walls
    {
        type            fixedValue;
        value           uniform 0;
    }
    frontAndBackPlanes
    {
        type            empty;
        value           nonuniform 0();
    }
}


// ************************************************************************* //
