/*--------------------------------*- C++ -*----------------------------------*\
| =========                 |                                                 |
| \\      /  F ield         | OpenFOAM: The Open Source CFD Toolbox           |
|  \\    /   O peration     | Version:  2.4.x                                 |
|   \\  /    A nd           | Web:      www.OpenFOAM.org                      |
|    \\/     M anipulation  |                                                 |
\*---------------------------------------------------------------------------*/
FoamFile
{
    version     2.0;
    format      ascii;
    class       surfaceScalarField;
    location    "12.35";
    object      phib_0;
}
// * * * * * * * * * * * * * * * * * * * * * * * * * * * * * * * * * * * * * //

dimensions      [0 3 -1 0 0 0 0];

internalField   nonuniform List<scalar> 
359
(
6.94946e-15
1.73843e-14
2.70797e-14
3.65043e-14
4.63541e-14
5.66139e-14
6.71652e-14
7.80031e-14
8.91676e-14
1.00699e-13
1.12619e-13
1.24933e-13
1.37642e-13
1.50739e-13
1.64219e-13
1.7807e-13
1.92281e-13
2.06834e-13
2.21707e-13
2.36881e-13
2.52326e-13
2.68022e-13
2.83939e-13
3.00052e-13
3.1633e-13
3.32746e-13
3.4927e-13
3.65876e-13
3.82535e-13
3.99221e-13
4.15905e-13
4.32567e-13
4.49176e-13
4.6572e-13
4.82169e-13
4.98509e-13
5.14719e-13
5.30785e-13
5.46696e-13
5.62429e-13
5.77985e-13
5.93348e-13
6.08507e-13
6.23462e-13
6.38205e-13
6.52731e-13
6.67039e-13
6.8112e-13
6.94978e-13
7.08618e-13
7.22033e-13
7.35227e-13
7.48202e-13
7.60962e-13
7.73504e-13
7.85841e-13
7.97968e-13
8.09895e-13
8.21622e-13
8.33149e-13
8.4449e-13
8.55644e-13
8.6662e-13
8.77419e-13
8.88047e-13
8.98506e-13
9.08802e-13
9.1894e-13
9.28922e-13
9.38748e-13
9.48428e-13
9.57968e-13
9.67365e-13
9.76626e-13
9.85754e-13
9.94755e-13
1.00363e-12
1.01237e-12
1.021e-12
1.0295e-12
1.03788e-12
1.04614e-12
1.05429e-12
1.06232e-12
1.07025e-12
1.07806e-12
1.08577e-12
1.09336e-12
1.10085e-12
1.10823e-12
1.1155e-12
1.12266e-12
1.12971e-12
1.13666e-12
1.1435e-12
1.15023e-12
1.15686e-12
1.16339e-12
1.16981e-12
1.17612e-12
1.18233e-12
1.18844e-12
1.19444e-12
1.20033e-12
1.20613e-12
1.21182e-12
1.21741e-12
1.22291e-12
1.22831e-12
1.23361e-12
1.23882e-12
1.24394e-12
1.24896e-12
1.2539e-12
1.25875e-12
1.2635e-12
1.26817e-12
1.27274e-12
1.2772e-12
1.28156e-12
1.28581e-12
1.28993e-12
1.29392e-12
1.29777e-12
1.30148e-12
1.30506e-12
1.3085e-12
1.31184e-12
1.31509e-12
1.31828e-12
1.32145e-12
1.32461e-12
1.32773e-12
1.33075e-12
1.33351e-12
1.33577e-12
1.33722e-12
1.33762e-12
1.33696e-12
1.33554e-12
1.33361e-12
1.3246e-12
1.31864e-12
1.31864e-12
1.31504e-12
1.3045e-12
1.03534e-11
3.53714e-10
3.52102e-10
3.25633e-10
2.86508e-10
2.41906e-10
1.96318e-10
1.52776e-10
1.13349e-10
7.92031e-11
5.07218e-11
2.77178e-11
9.66345e-12
-4.12157e-12
-1.43416e-11
-2.16567e-11
-2.66468e-11
-2.98036e-11
-3.1534e-11
-3.2169e-11
-3.1975e-11
-3.11646e-11
-2.99058e-11
-2.83309e-11
-2.65432e-11
-2.46225e-11
-2.263e-11
-2.06104e-11
-1.85926e-11
-1.65886e-11
-1.45975e-11
-1.2618e-11
-1.06678e-11
-8.79572e-12
-7.07076e-12
-5.55507e-12
-4.28076e-12
-3.24603e-12
-2.4258e-12
-1.78527e-12
-1.28934e-12
-9.07168e-13
-6.13511e-13
-3.88423e-13
-2.1644e-13
-8.56557e-14
1.30818e-14
8.68237e-14
1.41025e-13
1.79928e-13
2.06846e-13
2.24387e-13
2.34606e-13
2.39138e-13
2.39281e-13
2.35981e-13
2.29934e-13
2.21742e-13
2.11923e-13
2.00924e-13
1.89124e-13
1.76846e-13
1.6436e-13
1.51888e-13
1.39611e-13
1.27671e-13
1.16178e-13
1.05214e-13
9.48361e-14
8.50808e-14
7.59693e-14
6.75098e-14
5.97001e-14
5.25302e-14
4.59836e-14
4.00384e-14
3.46682e-14
2.98422e-14
2.55248e-14
2.1675e-14
1.82461e-14
1.51896e-14
1.24654e-14
1.00621e-14
8.02313e-15
6.44723e-15
5.39969e-15
4.76104e-15
4.25721e-15
3.85767e-15
3.77436e-15
3.86675e-15
3.66235e-15
3.2883e-15
2.83363e-15
2.35874e-15
1.90323e-15
1.49079e-15
1.13341e-15
8.34722e-16
5.9267e-16
4.02889e-16
2.57932e-16
1.44289e-16
7.74122e-17
9.15459e-17
3.8952e-18
2.61541e-18
2.40785e-18
2.20643e-18
2.02926e-18
1.85915e-18
1.71328e-18
1.57591e-18
1.46177e-18
1.35707e-18
1.27421e-18
1.20209e-18
1.14717e-18
1.10245e-18
1.07122e-18
1.05049e-18
1.03772e-18
1.03176e-18
1.03199e-18
1.03763e-18
1.04696e-18
1.05733e-18
1.06686e-18
1.07263e-18
1.07926e-18
1.07896e-18
1.07782e-18
1.0775e-18
1.09004e-18
1.09688e-18
1.10118e-18
1.08603e-18
1.07902e-18
1.0441e-18
1.06477e-18
1.0045e-18
9.69212e-19
9.12709e-19
8.52614e-19
7.59569e-19
6.84287e-19
5.85599e-19
4.96671e-19
4.32217e-19
4.41118e-19
4.65613e-19
5.05539e-19
6.60259e-19
7.08824e-19
7.30767e-19
7.54515e-19
7.53571e-19
8.01454e-19
8.21345e-19
8.45176e-19
8.25949e-19
8.41714e-19
8.13266e-19
7.91995e-19
7.54268e-19
7.59746e-19
7.54591e-19
7.52439e-19
7.29855e-19
7.22994e-19
6.99771e-19
6.77612e-19
6.45448e-19
6.32832e-19
6.12685e-19
5.95378e-19
5.69539e-19
5.56178e-19
5.4092e-19
5.39352e-19
5.79123e-19
6.94226e-19
8.4977e-19
1.01865e-18
1.18076e-18
1.36182e-18
1.52361e-18
1.68975e-18
1.83366e-18
2.03452e-18
2.19867e-18
2.36616e-18
2.475e-18
2.64598e-18
2.73107e-18
2.83349e-18
2.88182e-18
3.15884e-18
3.3374e-18
3.53018e-18
3.5333e-18
3.70724e-18
3.6226e-18
3.5621e-18
3.37201e-18
3.4539e-18
3.25355e-18
3.05724e-18
2.483e-18
1.82175e-18
8.36698e-19
5.30785e-19
)
;

boundaryField
{
    inandouthalf11
    {
        type            cyclic;
        value           nonuniform List<scalar> 
100
(
4.12158e-12
4.09894e-12
4.09634e-12
4.0999e-12
4.10182e-12
4.10277e-12
4.10387e-12
4.10516e-12
4.10649e-12
4.10785e-12
4.10924e-12
4.11065e-12
4.11209e-12
4.11356e-12
4.11507e-12
4.1166e-12
4.11817e-12
4.11977e-12
4.1214e-12
4.12306e-12
4.12474e-12
4.12646e-12
4.1282e-12
4.12996e-12
4.13175e-12
4.13356e-12
4.13539e-12
4.13724e-12
4.13911e-12
4.141e-12
4.1429e-12
4.14482e-12
4.14674e-12
4.14869e-12
4.15064e-12
4.1526e-12
4.15457e-12
4.15655e-12
4.15854e-12
4.16052e-12
4.16253e-12
4.16453e-12
4.16653e-12
4.16856e-12
4.17057e-12
4.17259e-12
4.17463e-12
4.17665e-12
4.17869e-12
4.18074e-12
4.18278e-12
4.18483e-12
4.18688e-12
4.18895e-12
4.19101e-12
4.19309e-12
4.19517e-12
4.19726e-12
4.19936e-12
4.20145e-12
4.20358e-12
4.20569e-12
4.20783e-12
4.20997e-12
4.21213e-12
4.21429e-12
4.21647e-12
4.21867e-12
4.22088e-12
4.22309e-12
4.22534e-12
4.2276e-12
4.22986e-12
4.23215e-12
4.23446e-12
4.2368e-12
4.23914e-12
4.24151e-12
4.2439e-12
4.24632e-12
4.24876e-12
4.25122e-12
4.25372e-12
4.25624e-12
4.25878e-12
4.26136e-12
4.26397e-12
4.2666e-12
4.26927e-12
4.27198e-12
4.27472e-12
4.2775e-12
4.28031e-12
4.28317e-12
4.28606e-12
4.289e-12
4.29199e-12
4.29502e-12
4.29809e-12
4.30122e-12
)
;
    }
    inandouthalf12
    {
        type            cyclic;
        value           nonuniform List<scalar> 
100
(
-4.12158e-12
-4.09894e-12
-4.09634e-12
-4.0999e-12
-4.10182e-12
-4.10277e-12
-4.10387e-12
-4.10516e-12
-4.10649e-12
-4.10785e-12
-4.10924e-12
-4.11065e-12
-4.11209e-12
-4.11356e-12
-4.11507e-12
-4.1166e-12
-4.11817e-12
-4.11977e-12
-4.1214e-12
-4.12306e-12
-4.12474e-12
-4.12646e-12
-4.1282e-12
-4.12996e-12
-4.13175e-12
-4.13356e-12
-4.13539e-12
-4.13724e-12
-4.13911e-12
-4.141e-12
-4.1429e-12
-4.14482e-12
-4.14674e-12
-4.14869e-12
-4.15064e-12
-4.1526e-12
-4.15457e-12
-4.15655e-12
-4.15854e-12
-4.16052e-12
-4.16253e-12
-4.16453e-12
-4.16653e-12
-4.16856e-12
-4.17057e-12
-4.17259e-12
-4.17463e-12
-4.17665e-12
-4.17869e-12
-4.18074e-12
-4.18278e-12
-4.18483e-12
-4.18688e-12
-4.18895e-12
-4.19101e-12
-4.19309e-12
-4.19517e-12
-4.19726e-12
-4.19936e-12
-4.20145e-12
-4.20358e-12
-4.20569e-12
-4.20783e-12
-4.20997e-12
-4.21213e-12
-4.21429e-12
-4.21647e-12
-4.21867e-12
-4.22088e-12
-4.22309e-12
-4.22534e-12
-4.2276e-12
-4.22986e-12
-4.23215e-12
-4.23446e-12
-4.2368e-12
-4.23914e-12
-4.24151e-12
-4.2439e-12
-4.24632e-12
-4.24876e-12
-4.25122e-12
-4.25372e-12
-4.25624e-12
-4.25878e-12
-4.26136e-12
-4.26397e-12
-4.2666e-12
-4.26927e-12
-4.27198e-12
-4.27472e-12
-4.2775e-12
-4.28031e-12
-4.28317e-12
-4.28606e-12
-4.289e-12
-4.29199e-12
-4.29502e-12
-4.29809e-12
-4.30122e-12
)
;
    }
    inandouthalf21
    {
        type            cyclic;
        value           nonuniform List<scalar> 
100
(
4.30441e-12
4.30764e-12
4.31094e-12
4.31429e-12
4.31771e-12
4.32119e-12
4.32474e-12
4.32836e-12
4.33205e-12
4.33583e-12
4.33968e-12
4.34363e-12
4.34766e-12
4.35179e-12
4.35601e-12
4.36035e-12
4.36479e-12
4.36935e-12
4.37403e-12
4.37884e-12
4.38378e-12
4.38887e-12
4.39411e-12
4.39952e-12
4.40509e-12
4.41084e-12
4.41678e-12
4.42294e-12
4.42932e-12
4.43596e-12
4.44288e-12
4.45008e-12
4.45762e-12
4.46559e-12
4.47406e-12
4.48305e-12
4.49248e-12
4.5024e-12
4.51322e-12
4.52539e-12
4.53845e-12
4.55397e-12
4.66062e-12
4.64486e-12
4.66456e-12
4.75799e-12
6.50023e-11
2.42279e-08
1.30062e-07
2.24002e-07
2.99015e-07
3.61103e-07
4.13666e-07
4.5885e-07
4.98178e-07
5.32785e-07
5.63541e-07
5.91126e-07
6.16074e-07
6.38811e-07
6.59676e-07
6.78941e-07
6.96828e-07
7.13514e-07
7.29148e-07
7.4385e-07
7.57719e-07
7.7084e-07
7.8328e-07
7.95099e-07
8.06344e-07
8.17057e-07
8.2727e-07
8.37011e-07
8.46305e-07
8.55169e-07
8.63618e-07
8.71664e-07
8.79316e-07
8.8658e-07
8.93461e-07
8.99962e-07
9.06084e-07
9.11831e-07
9.17202e-07
9.22203e-07
9.26834e-07
9.31103e-07
9.35016e-07
9.38582e-07
9.41813e-07
9.44723e-07
9.47327e-07
9.49644e-07
9.51691e-07
9.53489e-07
9.55058e-07
9.56416e-07
9.57584e-07
9.58578e-07
)
;
    }
    inandouthalf22
    {
        type            cyclic;
        value           nonuniform List<scalar> 
100
(
-4.30441e-12
-4.30764e-12
-4.31094e-12
-4.31429e-12
-4.31771e-12
-4.32119e-12
-4.32474e-12
-4.32836e-12
-4.33205e-12
-4.33583e-12
-4.33968e-12
-4.34363e-12
-4.34766e-12
-4.35179e-12
-4.35601e-12
-4.36035e-12
-4.36479e-12
-4.36935e-12
-4.37403e-12
-4.37884e-12
-4.38378e-12
-4.38887e-12
-4.39411e-12
-4.39952e-12
-4.40509e-12
-4.41084e-12
-4.41678e-12
-4.42294e-12
-4.42932e-12
-4.43596e-12
-4.44288e-12
-4.45008e-12
-4.45762e-12
-4.46559e-12
-4.47406e-12
-4.48305e-12
-4.49248e-12
-4.5024e-12
-4.51322e-12
-4.52539e-12
-4.53845e-12
-4.55397e-12
-4.66062e-12
-4.64486e-12
-4.66456e-12
-4.75799e-12
-6.50023e-11
-2.42279e-08
-1.30062e-07
-2.24002e-07
-2.99015e-07
-3.61103e-07
-4.13666e-07
-4.5885e-07
-4.98178e-07
-5.32785e-07
-5.63541e-07
-5.91126e-07
-6.16074e-07
-6.38811e-07
-6.59676e-07
-6.78941e-07
-6.96828e-07
-7.13514e-07
-7.29148e-07
-7.4385e-07
-7.57719e-07
-7.7084e-07
-7.8328e-07
-7.95099e-07
-8.06344e-07
-8.17057e-07
-8.2727e-07
-8.37011e-07
-8.46305e-07
-8.55169e-07
-8.63618e-07
-8.71664e-07
-8.79316e-07
-8.8658e-07
-8.93461e-07
-8.99962e-07
-9.06084e-07
-9.11831e-07
-9.17202e-07
-9.22203e-07
-9.26834e-07
-9.31103e-07
-9.35016e-07
-9.38582e-07
-9.41813e-07
-9.44723e-07
-9.47327e-07
-9.49644e-07
-9.51691e-07
-9.53489e-07
-9.55058e-07
-9.56416e-07
-9.57584e-07
-9.58578e-07
)
;
    }
    inandouthalf31
    {
        type            cyclic;
        value           nonuniform List<scalar> 
110
(
9.59419e-07
9.7961e-07
1.0001e-06
1.0209e-06
1.04202e-06
1.06346e-06
1.08523e-06
1.10734e-06
1.1298e-06
1.15262e-06
1.1758e-06
1.19934e-06
1.22327e-06
1.24757e-06
1.27226e-06
1.29735e-06
1.32284e-06
1.34873e-06
1.37504e-06
1.40176e-06
1.4289e-06
1.45647e-06
1.48447e-06
1.51291e-06
1.54179e-06
1.57111e-06
1.60089e-06
1.63112e-06
1.66181e-06
1.69298e-06
1.72461e-06
1.75672e-06
1.78931e-06
1.82239e-06
1.85597e-06
1.89005e-06
1.92464e-06
1.95974e-06
1.99538e-06
2.03154e-06
2.06825e-06
2.10552e-06
2.14335e-06
2.18177e-06
2.22078e-06
2.2604e-06
2.30066e-06
2.34156e-06
2.38314e-06
2.42543e-06
2.46844e-06
2.51222e-06
2.5568e-06
2.60222e-06
2.64854e-06
2.69581e-06
2.74409e-06
2.79345e-06
2.84397e-06
2.89573e-06
2.94882e-06
3.00335e-06
3.05942e-06
3.11715e-06
3.17664e-06
3.23799e-06
3.30131e-06
3.36668e-06
3.43416e-06
3.50378e-06
3.57557e-06
3.64951e-06
3.72558e-06
3.80374e-06
3.8839e-06
3.96597e-06
4.04984e-06
4.13533e-06
4.22221e-06
4.3097e-06
4.39748e-06
4.48674e-06
4.57781e-06
4.67073e-06
4.76553e-06
4.86226e-06
4.96095e-06
5.06165e-06
5.16438e-06
5.26921e-06
5.37616e-06
5.48528e-06
5.59662e-06
5.71021e-06
5.82611e-06
5.94437e-06
6.06502e-06
6.18813e-06
6.31373e-06
6.44188e-06
6.57264e-06
6.70604e-06
6.84216e-06
6.98103e-06
7.12273e-06
7.2673e-06
7.41481e-06
7.56531e-06
7.71887e-06
7.87554e-06
)
;
    }
    inandouthalf32
    {
        type            cyclic;
        value           nonuniform List<scalar> 
110
(
-9.59419e-07
-9.7961e-07
-1.0001e-06
-1.0209e-06
-1.04202e-06
-1.06346e-06
-1.08523e-06
-1.10734e-06
-1.1298e-06
-1.15262e-06
-1.1758e-06
-1.19934e-06
-1.22327e-06
-1.24757e-06
-1.27226e-06
-1.29735e-06
-1.32284e-06
-1.34873e-06
-1.37504e-06
-1.40176e-06
-1.4289e-06
-1.45647e-06
-1.48447e-06
-1.51291e-06
-1.54179e-06
-1.57111e-06
-1.60089e-06
-1.63112e-06
-1.66181e-06
-1.69298e-06
-1.72461e-06
-1.75672e-06
-1.78931e-06
-1.82239e-06
-1.85597e-06
-1.89005e-06
-1.92464e-06
-1.95974e-06
-1.99538e-06
-2.03154e-06
-2.06825e-06
-2.10552e-06
-2.14335e-06
-2.18177e-06
-2.22078e-06
-2.2604e-06
-2.30066e-06
-2.34156e-06
-2.38314e-06
-2.42543e-06
-2.46844e-06
-2.51222e-06
-2.5568e-06
-2.60222e-06
-2.64854e-06
-2.69581e-06
-2.74409e-06
-2.79345e-06
-2.84397e-06
-2.89573e-06
-2.94882e-06
-3.00335e-06
-3.05942e-06
-3.11715e-06
-3.17664e-06
-3.23799e-06
-3.30131e-06
-3.36668e-06
-3.43416e-06
-3.50378e-06
-3.57557e-06
-3.64951e-06
-3.72558e-06
-3.80374e-06
-3.8839e-06
-3.96597e-06
-4.04984e-06
-4.13533e-06
-4.22221e-06
-4.3097e-06
-4.39748e-06
-4.48674e-06
-4.57781e-06
-4.67073e-06
-4.76553e-06
-4.86226e-06
-4.96095e-06
-5.06165e-06
-5.16438e-06
-5.26921e-06
-5.37616e-06
-5.48528e-06
-5.59662e-06
-5.71021e-06
-5.82611e-06
-5.94437e-06
-6.06502e-06
-6.18813e-06
-6.31373e-06
-6.44188e-06
-6.57264e-06
-6.70604e-06
-6.84216e-06
-6.98103e-06
-7.12273e-06
-7.2673e-06
-7.41481e-06
-7.56531e-06
-7.71887e-06
-7.87554e-06
)
;
    }
    inandouthalf41
    {
        type            cyclic;
        value           nonuniform List<scalar> 
50
(
7.04941e-06
7.04941e-06
7.04941e-06
7.04941e-06
7.04941e-06
7.04941e-06
7.04941e-06
7.04941e-06
7.04941e-06
7.04941e-06
7.04941e-06
7.04941e-06
7.04941e-06
7.04941e-06
7.04941e-06
7.04941e-06
7.04941e-06
7.04941e-06
7.04941e-06
7.04941e-06
7.04941e-06
7.04941e-06
7.04941e-06
7.04941e-06
7.04941e-06
7.04941e-06
7.04941e-06
7.04941e-06
7.04941e-06
7.04941e-06
7.04941e-06
7.04941e-06
7.04941e-06
7.04941e-06
7.04941e-06
7.04941e-06
7.04941e-06
7.04941e-06
7.04941e-06
7.04941e-06
7.04941e-06
7.04941e-06
7.04941e-06
7.04941e-06
7.04941e-06
7.04941e-06
7.04941e-06
7.04941e-06
7.04941e-06
7.04941e-06
)
;
    }
    inandouthalf42
    {
        type            cyclic;
        value           nonuniform List<scalar> 
50
(
-7.04941e-06
-7.04941e-06
-7.04941e-06
-7.04941e-06
-7.04941e-06
-7.04941e-06
-7.04941e-06
-7.04941e-06
-7.04941e-06
-7.04941e-06
-7.04941e-06
-7.04941e-06
-7.04941e-06
-7.04941e-06
-7.04941e-06
-7.04941e-06
-7.04941e-06
-7.04941e-06
-7.04941e-06
-7.04941e-06
-7.04941e-06
-7.04941e-06
-7.04941e-06
-7.04941e-06
-7.04941e-06
-7.04941e-06
-7.04941e-06
-7.04941e-06
-7.04941e-06
-7.04941e-06
-7.04941e-06
-7.04941e-06
-7.04941e-06
-7.04941e-06
-7.04941e-06
-7.04941e-06
-7.04941e-06
-7.04941e-06
-7.04941e-06
-7.04941e-06
-7.04941e-06
-7.04941e-06
-7.04941e-06
-7.04941e-06
-7.04941e-06
-7.04941e-06
-7.04941e-06
-7.04941e-06
-7.04941e-06
-7.04941e-06
)
;
    }
    top
    {
        type            symmetryPlane;
        value           uniform 0;
    }
    walls
    {
        type            fixedValue;
        value           uniform 0;
    }
    frontAndBackPlanes
    {
        type            empty;
        value           nonuniform 0();
    }
}


// ************************************************************************* //
