/*--------------------------------*- C++ -*----------------------------------*\
| =========                 |                                                 |
| \\      /  F ield         | OpenFOAM: The Open Source CFD Toolbox           |
|  \\    /   O peration     | Version:  2.4.x                                 |
|   \\  /    A nd           | Web:      www.OpenFOAM.org                      |
|    \\/     M anipulation  |                                                 |
\*---------------------------------------------------------------------------*/
FoamFile
{
    version     2.0;
    format      ascii;
    class       volTensorField;
    location    "12.35";
    object      Taus;
}
// * * * * * * * * * * * * * * * * * * * * * * * * * * * * * * * * * * * * * //

dimensions      [0 2 -2 0 0 0 0];

internalField   nonuniform List<tensor> 
360
(
(0 -0.0233579 0 -0.0233579 -0.207129 0 0 0 0)
(0 -0.0345863 0 -0.0345863 -0.262956 0 0 0 0)
(0 -0.0419271 0 -0.0419271 -0.26695 0 0 0 0)
(0 -0.0406656 0 -0.0406656 -0.260248 0 0 0 0)
(1.62571e-17 -0.0396105 0 -0.0396105 -0.257415 0 0 0 0)
(1.54851e-17 -0.0396785 0 -0.0396785 -0.256351 0 0 0 0)
(3.00069e-17 -0.0398228 0 -0.0398228 -0.254959 0 0 0 0)
(0 -0.0398065 0 -0.0398065 -0.253258 0 0 0 0)
(2.79828e-17 -0.0397413 0 -0.0397413 -0.251548 0 0 0 0)
(0 -0.0396709 0 -0.0396709 -0.249838 0 0 0 0)
(2.58435e-17 -0.039599 0 -0.039599 -0.248125 0 0 0 0)
(0 -0.0395302 0 -0.0395302 -0.246425 0 0 0 0)
(4.77966e-17 -0.0394597 0 -0.0394597 -0.244721 0 0 0 0)
(0 -0.0393867 0 -0.0393867 -0.243016 0 0 0 0)
(0 -0.0393096 0 -0.0393096 -0.241308 0 0 0 0)
(0 -0.0392269 0 -0.0392269 -0.239593 0 0 0 0)
(0 -0.0391402 0 -0.0391402 -0.237873 0 0 0 0)
(8.04846e-17 -0.0390513 0 -0.0390513 -0.236154 0 0 0 0)
(0 -0.0389589 0 -0.0389589 -0.234434 0 0 0 0)
(0 -0.038861 0 -0.038861 -0.232701 0 0 0 0)
(0 -0.0387629 0 -0.0387629 -0.230979 0 0 0 0)
(7.23824e-17 -0.0386592 0 -0.0386592 -0.229244 0 0 0 0)
(0 -0.0385518 0 -0.0385518 -0.227509 0 0 0 0)
(0 -0.0384415 0 -0.0384415 -0.225772 0 0 0 0)
(0 -0.038327 0 -0.038327 -0.22403 0 0 0 0)
(6.70447e-17 -0.0382099 0 -0.0382099 -0.222287 0 0 0 0)
(0 -0.0380902 0 -0.0380902 -0.220545 0 0 0 0)
(0 -0.0379646 0 -0.0379646 -0.218793 0 0 0 0)
(0 -0.0378364 0 -0.0378364 -0.217042 0 0 0 0)
(0 -0.0377063 0 -0.0377063 -0.215291 0 0 0 0)
(0 -0.0375717 0 -0.0375717 -0.213537 0 0 0 0)
(0 -0.0374324 0 -0.0374324 -0.211772 0 0 0 0)
(0 -0.0372939 0 -0.0372939 -0.210024 0 0 0 0)
(0 -0.0371461 0 -0.0371461 -0.208249 0 0 0 0)
(0 -0.0369988 0 -0.0369988 -0.206492 0 0 0 0)
(-1.23731e-16 -0.0368473 0 -0.0368473 -0.204722 0 0 0 0)
(0 -0.0366941 0 -0.0366941 -0.202959 0 0 0 0)
(0 -0.0365344 0 -0.0365344 -0.201186 0 0 0 0)
(0 -0.0363706 0 -0.0363706 -0.199405 0 0 0 0)
(0 -0.0362102 0 -0.0362102 -0.197648 0 0 0 0)
(0 -0.0360383 0 -0.0360383 -0.195859 0 0 0 0)
(0 -0.0358662 0 -0.0358662 -0.194081 0 0 0 0)
(-1.24949e-16 -0.0356949 0 -0.0356949 -0.192313 0 0 0 0)
(0 -0.0355137 0 -0.0355137 -0.190521 0 0 0 0)
(0 -0.0353329 0 -0.0353329 -0.188744 0 0 0 0)
(0 -0.0351469 0 -0.0351469 -0.186959 0 0 0 0)
(0 -0.0349569 0 -0.0349569 -0.185165 0 0 0 0)
(0 -0.0347706 0 -0.0347706 -0.183392 0 0 0 0)
(0 -0.0345751 0 -0.0345751 -0.181601 0 0 0 0)
(0 -0.0343725 0 -0.0343725 -0.179799 0 0 0 0)
(-1.30229e-16 -0.0341749 0 -0.0341749 -0.17802 0 0 0 0)
(0 -0.0339705 0 -0.0339705 -0.176223 0 0 0 0)
(0 -0.0337629 0 -0.0337629 -0.174432 0 0 0 0)
(0 -0.0335518 0 -0.0335518 -0.172632 0 0 0 0)
(0 -0.0333407 0 -0.0333407 -0.170846 0 0 0 0)
(0 -0.0331212 0 -0.0331212 -0.169036 0 0 0 0)
(0 -0.0329042 0 -0.0329042 -0.167249 0 0 0 0)
(0 -0.0326796 0 -0.0326796 -0.165442 0 0 0 0)
(0 -0.0324551 0 -0.0324551 -0.163642 0 0 0 0)
(0 -0.0322308 0 -0.0322308 -0.161852 0 0 0 0)
(0 -0.0319966 0 -0.0319966 -0.160036 0 0 0 0)
(0 -0.031765 0 -0.031765 -0.158243 0 0 0 0)
(0 -0.0315271 0 -0.0315271 -0.156432 0 0 0 0)
(0 -0.0312884 0 -0.0312884 -0.15463 0 0 0 0)
(0 -0.0310474 0 -0.0310474 -0.152823 0 0 0 0)
(0 -0.0308048 0 -0.0308048 -0.15102 0 0 0 0)
(0 -0.0305576 0 -0.0305576 -0.14921 0 0 0 0)
(0 -0.0303073 0 -0.0303073 -0.1474 0 0 0 0)
(0 -0.0300576 0 -0.0300576 -0.145592 0 0 0 0)
(0 -0.0298081 0 -0.0298081 -0.14379 0 0 0 0)
(0 -0.0295496 0 -0.0295496 -0.141974 0 0 0 0)
(0 -0.0292893 0 -0.0292893 -0.140157 0 0 0 0)
(0 -0.0290339 0 -0.0290339 -0.138357 0 0 0 0)
(0 -0.0287713 0 -0.0287713 -0.136539 0 0 0 0)
(0 -0.0285069 0 -0.0285069 -0.134728 0 0 0 0)
(0 -0.0282389 0 -0.0282389 -0.132909 0 0 0 0)
(0 -0.0279728 0 -0.0279728 -0.131099 0 0 0 0)
(0 -0.0277046 0 -0.0277046 -0.129285 0 0 0 0)
(0 -0.027433 0 -0.027433 -0.127468 0 0 0 0)
(0 -0.0271598 0 -0.0271598 -0.125651 0 0 0 0)
(0 -0.0268866 0 -0.0268866 -0.123837 0 0 0 0)
(0 -0.0266108 0 -0.0266108 -0.122019 0 0 0 0)
(0 -0.0263328 0 -0.0263328 -0.120201 0 0 0 0)
(0 -0.0260536 0 -0.0260536 -0.118383 0 0 0 0)
(0 -0.0257729 0 -0.0257729 -0.116564 0 0 0 0)
(0 -0.0254908 0 -0.0254908 -0.114744 0 0 0 0)
(0 -0.0252072 0 -0.0252072 -0.112924 0 0 0 0)
(0 -0.024923 0 -0.024923 -0.111104 0 0 0 0)
(0 -0.0246379 0 -0.0246379 -0.109283 0 0 0 0)
(0 -0.0243514 0 -0.0243514 -0.107462 0 0 0 0)
(0 -0.0240638 0 -0.0240638 -0.10564 0 0 0 0)
(0 -0.0237754 0 -0.0237754 -0.103819 0 0 0 0)
(0 -0.0234856 0 -0.0234856 -0.101996 0 0 0 0)
(0 -0.0231946 0 -0.0231946 -0.100173 0 0 0 0)
(0 -0.0229026 0 -0.0229026 -0.098349 0 0 0 0)
(0 -0.0226099 0 -0.0226099 -0.0965249 0 0 0 0)
(0 -0.0223165 0 -0.0223165 -0.0947004 0 0 0 0)
(0 -0.0220225 0 -0.0220225 -0.0928757 0 0 0 0)
(0 -0.0217281 0 -0.0217281 -0.0910508 0 0 0 0)
(0 -0.0214333 0 -0.0214333 -0.0892256 0 0 0 0)
(0 -0.0211382 0 -0.0211382 -0.0874001 0 0 0 0)
(0 -0.0208427 0 -0.0208427 -0.0855744 0 0 0 0)
(0 -0.020547 0 -0.020547 -0.0837483 0 0 0 0)
(0 -0.0202513 0 -0.0202513 -0.0819221 0 0 0 0)
(0 -0.0199556 0 -0.0199556 -0.0800957 0 0 0 0)
(0 -0.0196601 0 -0.0196601 -0.0782692 0 0 0 0)
(0 -0.0193652 0 -0.0193652 -0.0764426 0 0 0 0)
(0 -0.0190709 0 -0.0190709 -0.074616 0 0 0 0)
(0 -0.0187774 0 -0.0187774 -0.0727894 0 0 0 0)
(0 -0.018485 0 -0.018485 -0.0709629 0 0 0 0)
(0 -0.0181938 0 -0.0181938 -0.0691366 0 0 0 0)
(0 -0.0179041 0 -0.0179041 -0.0673103 0 0 0 0)
(0 -0.0176162 0 -0.0176162 -0.0654842 0 0 0 0)
(0 -0.0173302 0 -0.0173302 -0.0636583 0 0 0 0)
(0 -0.0170463 0 -0.0170463 -0.0618326 0 0 0 0)
(0 -0.0167648 0 -0.0167648 -0.0600069 0 0 0 0)
(0 -0.0164858 0 -0.0164858 -0.0581814 0 0 0 0)
(0 -0.0162095 0 -0.0162095 -0.0563559 0 0 0 0)
(0 -0.015936 0 -0.015936 -0.0545303 0 0 0 0)
(0 -0.0156655 0 -0.0156655 -0.0527044 0 0 0 0)
(0 -0.0153979 0 -0.0153979 -0.0508779 0 0 0 0)
(0 -0.0151336 0 -0.0151336 -0.0490507 0 0 0 0)
(0 -0.0148728 0 -0.0148728 -0.0472225 0 0 0 0)
(0 -0.0146159 0 -0.0146159 -0.0453928 0 0 0 0)
(0 -0.0143635 0 -0.0143635 -0.0435612 0 0 0 0)
(0 -0.0141159 0 -0.0141159 -0.0417272 0 0 0 0)
(0 -0.0138731 0 -0.0138731 -0.03989 0 0 0 0)
(0 -0.0136346 0 -0.0136346 -0.0380487 0 0 0 0)
(0 -0.0133994 0 -0.0133994 -0.0362025 0 0 0 0)
(0 -0.0131668 0 -0.0131668 -0.0343506 0 0 0 0)
(0 -0.0129373 0 -0.0129373 -0.0324934 0 0 0 0)
(0 -0.0127103 0 -0.0127103 -0.0306316 0 0 0 0)
(0 -0.0124791 0 -0.0124791 -0.0287663 0 0 0 0)
(0 -0.0122288 0 -0.0122288 -0.0268977 0 0 0 0)
(0 -0.011947 0 -0.011947 -0.0250261 0 0 0 0)
(0 -0.0116383 0 -0.0116383 -0.0231538 0 0 0 0)
(0 -0.0113168 0 -0.0113168 -0.0212798 0 0 0 0)
(0 -0.0109809 0 -0.0109809 -0.0193881 0 0 0 0)
(0 -0.0106137 0 -0.0106137 -0.0174212 0 0 0 0)
(0 -0.0102685 0 -0.0102685 -0.015196 0 0 0 0)
(0 -0.0103555 0 -0.0103555 -0.0118173 0 0 0 0)
(0 -0.00906645 0 -0.00906645 -0.0114335 0 0 0 0)
(0 -0.00358408 0 -0.00358408 -0.00758845 0 0 0 0)
(0 -0.0042533 0 -0.0042533 -0.0079626 0 0 0 0)
(0 -0.00509364 0 -0.00509364 -0.00374082 0 0 0 0)
(0 -0.00450672 0 -0.00450672 -5.73538e-05 0 0 0 0)
(0 -0.00247052 0 -0.00247052 -3.85719e-06 0 0 0 0)
(0 -0.002005 0 -0.002005 -7.67345e-06 0 0 0 0)
(0 -0.00287354 0 -0.00287354 -8.10692e-06 0 0 0 0)
(0 -0.00264508 0 -0.00264508 -3.14593e-06 0 0 0 0)
(0 -0.00223964 0 -0.00223964 -1.88967e-06 0 0 0 0)
(0 -0.00200383 0 -0.00200383 -8.79873e-07 0 0 0 0)
(0 -0.0018838 0 -0.0018838 -1.51437e-07 0 0 0 0)
(0 -0.00185307 0 -0.00185307 9.79128e-07 0 0 0 0)
(0 -0.00189451 0 -0.00189451 2.60356e-06 0 0 0 0)
(0 -0.00199731 0 -0.00199731 4.93133e-06 0 0 0 0)
(0 -0.00215481 0 -0.00215481 8.23069e-06 0 0 0 0)
(0 -0.00236322 0 -0.00236322 1.28166e-05 0 0 0 0)
(0 -0.00262073 0 -0.00262073 1.9046e-05 0 0 0 0)
(0 -0.00292698 0 -0.00292698 2.73199e-05 0 0 0 0)
(0 -0.00328265 0 -0.00328265 3.8078e-05 0 0 0 0)
(0 -0.00368915 0 -0.00368915 5.18016e-05 0 0 0 0)
(0 -0.00414835 0 -0.00414835 6.90261e-05 0 0 0 0)
(0 -0.00466239 0 -0.00466239 9.03294e-05 0 0 0 0)
(0 -0.00523347 0 -0.00523347 0.000116316 0 0 0 0)
(0 -0.0058638 0 -0.0058638 0.000147606 0 0 0 0)
(0 -0.00655538 0 -0.00655538 0.000184805 0 0 0 0)
(0 -0.00730993 0 -0.00730993 0.000228458 0 0 0 0)
(0 -0.00812887 0 -0.00812887 0.000278968 0 0 0 0)
(0 -0.00901324 0 -0.00901324 0.000336487 0 0 0 0)
(0 -0.0099637 0 -0.0099637 0.000400746 0 0 0 0)
(0 -0.0109807 0 -0.0109807 0.000470818 0 0 0 0)
(0 -0.0120647 0 -0.0120647 0.000544712 0 0 0 0)
(0 -0.0132166 0 -0.0132166 0.000618418 0 0 0 0)
(0 -0.0144391 0 -0.0144391 0.000683561 0 0 0 0)
(0 -0.0157399 0 -0.0157399 0.000722844 0 0 0 0)
(0 -0.0171371 0 -0.0171371 0.00070412 0 0 0 0)
(0 -0.0186643 0 -0.0186643 0.000577438 0 0 0 0)
(0 -0.0203688 0 -0.0203688 0.000281492 0 0 0 0)
(0 -0.0222986 0 -0.0222986 -0.000237954 0 0 0 0)
(0 -0.0244781 0 -0.0244781 -0.00100427 0 0 0 0)
(0 -0.0268887 0 -0.0268887 -0.00199435 0 0 0 0)
(0 -0.0294652 0 -0.0294652 -0.00314167 0 0 0 0)
(0 -0.0321132 0 -0.0321132 -0.0043565 0 0 0 0)
(0 -0.034732 0 -0.034732 -0.00555049 0 0 0 0)
(0 -0.037233 0 -0.037233 -0.00665335 0 0 0 0)
(0 -0.0395483 0 -0.0395483 -0.00761819 0 0 0 0)
(0 -0.0416315 0 -0.0416315 -0.00841936 0 0 0 0)
(0 -0.0434552 0 -0.0434552 -0.00904735 0 0 0 0)
(0 -0.0450071 0 -0.0450071 -0.00950376 0 0 0 0)
(0 -0.0462863 0 -0.0462863 -0.00979722 0 0 0 0)
(0 -0.0473001 0 -0.0473001 -0.0099405 0 0 0 0)
(0 -0.0480612 0 -0.0480612 -0.0099485 0 0 0 0)
(0 -0.048586 0 -0.048586 -0.00983698 0 0 0 0)
(0 -0.048893 0 -0.048893 -0.0096217 0 0 0 0)
(0 -0.0490015 0 -0.0490015 -0.00931786 0 0 0 0)
(0 -0.0489308 0 -0.0489308 -0.00893985 0 0 0 0)
(0 -0.0486995 0 -0.0486995 -0.00850097 0 0 0 0)
(0 -0.0483253 0 -0.0483253 -0.00801341 0 0 0 0)
(0 -0.0478243 0 -0.0478243 -0.00748812 0 0 0 0)
(0 -0.0472116 0 -0.0472116 -0.00693479 0 0 0 0)
(0 -0.0465019 0 -0.0465019 -0.0063577 0 0 0 0)
(4.96369e-15 -0.0457027 0 -0.0457027 -0.00575915 0 0 0 0)
(0 -0.0448239 0 -0.0448239 -0.00514641 0 0 0 0)
(0 -0.0438731 0 -0.0438731 -0.00452602 0 0 0 0)
(-5.54644e-15 -0.0428575 0 -0.0428575 -0.00390393 0 0 0 0)
(0 -0.0417832 0 -0.0417832 -0.00328538 0 0 0 0)
(5.96089e-15 -0.0406556 0 -0.0406556 -0.00267477 0 0 0 0)
(0 -0.0394791 0 -0.0394791 -0.00207559 0 0 0 0)
(-6.39557e-15 -0.0382575 0 -0.0382575 -0.00149041 0 0 0 0)
(0 -0.0369939 0 -0.0369939 -0.000920989 0 0 0 0)
(0 -0.035691 0 -0.035691 -0.000368418 0 0 0 0)
(0 -0.0343513 0 -0.0343513 0.000166679 0 0 0 0)
(-7.30626e-15 -0.0329771 0 -0.0329771 0.000683908 0 0 0 0)
(0 -0.0315711 0 -0.0315711 0.0011829 0 0 0 0)
(0 -0.0301359 0 -0.0301359 0.00166313 0 0 0 0)
(0 -0.0286743 0 -0.0286743 0.00212387 0 0 0 0)
(0 -0.0271896 0 -0.0271896 0.00256422 0 0 0 0)
(0 -0.0256847 0 -0.0256847 0.00298337 0 0 0 0)
(8.59696e-15 -0.0241625 0 -0.0241625 0.00338095 0 0 0 0)
(0 -0.0226256 0 -0.0226256 0.00375761 0 0 0 0)
(8.92364e-15 -0.0210761 0 -0.0210761 0.00411548 0 0 0 0)
(0 -0.0195156 0 -0.0195156 0.00445844 0 0 0 0)
(9.14479e-15 -0.0179459 0 -0.0179459 0.00479162 0 0 0 0)
(0 -0.0163693 0 -0.0163693 0.00511843 0 0 0 0)
(0 -0.0147914 0 -0.0147914 0.00543195 0 0 0 0)
(0 -0.0132248 0 -0.0132248 0.00569578 0 0 0 0)
(0 -0.0116936 0 -0.0116936 0.00581089 0 0 0 0)
(-8.99654e-15 -0.0102358 0 -0.0102358 0.00557218 0 0 0 0)
(-8.825e-15 -0.00889708 0 -0.00889708 0.00464142 0 0 0 0)
(0 -0.00770389 0 -0.00770389 0.00263567 0 0 0 0)
(0 -0.00661064 0 -0.00661064 -0.000444169 0 0 0 0)
(0 -0.00547529 0 -0.00547529 -0.00351086 0 0 0 0)
(0 -0.00418487 0 -0.00418487 -0.00483127 0 0 0 0)
(0 -0.00280911 0 -0.00280911 -0.00407427 0 0 0 0)
(0 -0.00188378 0 -0.00188378 -0.00273958 0 0 0 0)
(0 -0 0 -0 -0 0 0 0 0)
(0 -0 0 -0 -0 0 0 0 0)
(0 0 0 0 -0 0 0 0 0)
(0 0 0 0 -0 0 0 0 0)
(0 0 0 0 -0 0 0 0 0)
(0 0 0 0 -0 0 0 0 0)
(0 0 0 0 -0 0 0 0 0)
(0 0 0 0 -0 0 0 0 0)
(-0 0 0 0 -0 0 0 0 0)
(0 0 0 0 -0 0 0 0 0)
(0 0 0 0 0 0 0 0 0)
(0 0 0 0 0 0 0 0 0)
(0 0 0 0 -0 0 0 0 0)
(0 0 0 0 0 0 0 0 0)
(0 0 0 0 -0 0 0 0 0)
(0 0 0 0 -0 0 0 0 0)
(0 0 0 0 -0 0 0 0 0)
(0 0 0 0 -0 0 0 0 0)
(0 0 0 0 -0 0 0 0 0)
(0 0 0 0 0 0 0 0 0)
(0 0 0 0 0 0 0 0 0)
(0 0 0 0 0 0 0 0 0)
(0 0 0 0 0 0 0 0 0)
(0 0 0 0 0 0 0 0 0)
(0 0 0 0 0 0 0 0 0)
(0 0 0 0 0 0 0 0 0)
(0 0 0 0 0 0 0 0 0)
(0 0 0 0 0 0 0 0 0)
(0 0 0 0 0 0 0 0 0)
(0 0 0 0 0 0 0 0 0)
(-0 0 0 0 0 0 0 0 0)
(0 0 0 0 0 0 0 0 0)
(0 0 0 0 0 0 0 0 0)
(0 -0 0 -0 0 0 0 0 0)
(0 -0 0 -0 0 0 0 0 0)
(0 -0 0 -0 0 0 0 0 0)
(0 -0 0 -0 0 0 0 0 0)
(0 -0 0 -0 0 0 0 0 0)
(0 -0 0 -0 0 0 0 0 0)
(0 -0 0 -0 0 0 0 0 0)
(0 -0 0 -0 0 0 0 0 0)
(0 -0 0 -0 0 0 0 0 0)
(0 -0 0 -0 0 0 0 0 0)
(0 -0 0 -0 0 0 0 0 0)
(0 -0 0 -0 0 0 0 0 0)
(0 -0 0 -0 0 0 0 0 0)
(0 -0 0 -0 0 0 0 0 0)
(0 -0 0 -0 0 0 0 0 0)
(0 0 0 0 -0 0 0 0 0)
(0 0 0 0 0 0 0 0 0)
(-0 0 0 0 -0 0 0 0 0)
(0 0 0 0 0 0 0 0 0)
(0 0 0 0 -0 0 0 0 0)
(0 0 0 0 0 0 0 0 0)
(0 0 0 0 -0 0 0 0 0)
(0 0 0 0 0 0 0 0 0)
(0 0 0 0 -0 0 0 0 0)
(0 0 0 0 0 0 0 0 0)
(0 0 0 0 -0 0 0 0 0)
(0 0 0 0 0 0 0 0 0)
(-0 0 0 0 -0 0 0 0 0)
(0 0 0 0 0 0 0 0 0)
(0 0 0 0 -0 0 0 0 0)
(0 -0 0 -0 0 0 0 0 0)
(0 0 0 0 -0 0 0 0 0)
(0 0 0 0 0 0 0 0 0)
(0 -0 0 -0 -0 0 0 0 0)
(0 -0 0 -0 0 0 0 0 0)
(0 -0 0 -0 -0 0 0 0 0)
(0 -0 0 -0 0 0 0 0 0)
(0 0 0 0 -0 0 0 0 0)
(0 0 0 0 0 0 0 0 0)
(0 -0 0 -0 -0 0 0 0 0)
(0 -0 0 -0 0 0 0 0 0)
(0 -0 0 -0 -0 0 0 0 0)
(0 -0 0 -0 0 0 0 0 0)
(0 0 0 0 -0 0 0 0 0)
(0 0 0 0 0 0 0 0 0)
(0 0 0 0 -0 0 0 0 0)
(0 0 0 0 0 0 0 0 0)
(0 0 0 0 -0 0 0 0 0)
(0 -0 0 -0 0 0 0 0 0)
(0 -0 0 -0 -0 0 0 0 0)
(0 -0 0 -0 0 0 0 0 0)
(0 -0 0 -0 -0 0 0 0 0)
(0 0 0 0 0 0 0 0 0)
(0 0 0 0 -0 0 0 0 0)
(0 -0 0 -0 0 0 0 0 0)
(0 0 0 0 -0 0 0 0 0)
(0 -0 0 -0 0 0 0 0 0)
(0 0 0 0 -0 0 0 0 0)
(0 0 0 0 0 0 0 0 0)
(0 -0 0 -0 -0 0 0 0 0)
(0 -0 0 -0 0 0 0 0 0)
(0 0 0 0 -0 0 0 0 0)
(0 -0 0 -0 0 0 0 0 0)
(0 -0 0 -0 -0 0 0 0 0)
(0 0 0 0 0 0 0 0 0)
(0 0 0 0 -0 0 0 0 0)
(0 0 0 0 0 0 0 0 0)
(0 0 0 0 -0 0 0 0 0)
(0 -0 0 -0 0 0 0 0 0)
(0 -0 0 -0 -0 0 0 0 0)
(0 -0 0 -0 0 0 0 0 0)
(0 -0 0 -0 -0 0 0 0 0)
(0 -0 0 -0 0 0 0 0 0)
(0 0 0 0 -0 0 0 0 0)
(0 0 0 0 0 0 0 0 0)
(0 0 0 0 -0 0 0 0 0)
(0 0 0 0 0 0 0 0 0)
(0 0 0 0 -0 0 0 0 0)
(0 0 0 0 0 0 0 0 0)
(0 -0 0 -0 -0 0 0 0 0)
(0 -0 0 -0 0 0 0 0 0)
(0 0 0 0 -0 0 0 0 0)
(0 0 0 0 0 0 0 0 0)
(0 0 0 0 -0 0 0 0 0)
(0 0 0 0 0 0 0 0 0)
(0 0 0 0 0 0 0 0 0)
(0 0 0 0 0 0 0 0 0)
(0 0 0 0 0 0 0 0 0)
(0 0 0 0 0 0 0 0 0)
(0 0 0 0 0 0 0 0 0)
(0 0 0 0 0 0 0 0 0)
)
;

boundaryField
{
    inandouthalf11
    {
        type            cyclic;
    }
    inandouthalf12
    {
        type            cyclic;
    }
    inandouthalf21
    {
        type            cyclic;
    }
    inandouthalf22
    {
        type            cyclic;
    }
    inandouthalf31
    {
        type            cyclic;
    }
    inandouthalf32
    {
        type            cyclic;
    }
    inandouthalf41
    {
        type            cyclic;
    }
    inandouthalf42
    {
        type            cyclic;
    }
    top
    {
        type            symmetryPlane;
    }
    walls
    {
        type            zeroGradient;
    }
    frontAndBackPlanes
    {
        type            empty;
    }
}


// ************************************************************************* //
