/*--------------------------------*- C++ -*----------------------------------*\
| =========                 |                                                 |
| \\      /  F ield         | OpenFOAM: The Open Source CFD Toolbox           |
|  \\    /   O peration     | Version:  2.4.x                                 |
|   \\  /    A nd           | Web:      www.OpenFOAM.org                      |
|    \\/     M anipulation  |                                                 |
\*---------------------------------------------------------------------------*/
FoamFile
{
    version     2.0;
    format      ascii;
    class       volVectorField;
    location    "12.35";
    object      Ua_0;
}
// * * * * * * * * * * * * * * * * * * * * * * * * * * * * * * * * * * * * * //

dimensions      [0 1 -1 0 0 0 0];

internalField   nonuniform List<vector> 
360
(
(-1.61973e-32 -1.02967e-31 0)
(-4.57548e-10 -2.02851e-09 0)
(-9.52055e-10 -3.61886e-09 0)
(-1.40117e-09 -5.03228e-09 0)
(-1.86697e-09 -6.54621e-09 0)
(-2.36251e-09 -8.15571e-09 0)
(-2.87797e-09 -9.81181e-09 0)
(-3.40976e-09 -1.15079e-08 0)
(-3.9598e-09 -1.3253e-08 0)
(-4.53048e-09 -1.50544e-08 0)
(-5.12345e-09 -1.69169e-08 0)
(-5.73962e-09 -1.88423e-08 0)
(-6.37931e-09 -2.08309e-08 0)
(-7.04257e-09 -2.28823e-08 0)
(-7.7293e-09 -2.49953e-08 0)
(-8.43926e-09 -2.71688e-08 0)
(-9.17208e-09 -2.94011e-08 0)
(-9.92713e-09 -3.16897e-08 0)
(-1.07036e-08 -3.40315e-08 0)
(-1.15005e-08 -3.64232e-08 0)
(-1.23168e-08 -3.8861e-08 0)
(-1.31512e-08 -4.13409e-08 0)
(-1.40026e-08 -4.38589e-08 0)
(-1.48695e-08 -4.64107e-08 0)
(-1.57507e-08 -4.89918e-08 0)
(-1.66445e-08 -5.15977e-08 0)
(-1.75495e-08 -5.42237e-08 0)
(-1.84642e-08 -5.68654e-08 0)
(-1.93872e-08 -5.95187e-08 0)
(-2.03169e-08 -6.21788e-08 0)
(-2.12518e-08 -6.48416e-08 0)
(-2.21907e-08 -6.75032e-08 0)
(-2.3132e-08 -7.01595e-08 0)
(-2.40744e-08 -7.2807e-08 0)
(-2.50168e-08 -7.54426e-08 0)
(-2.59579e-08 -7.80626e-08 0)
(-2.68966e-08 -8.0664e-08 0)
(-2.78318e-08 -8.32445e-08 0)
(-2.87627e-08 -8.58019e-08 0)
(-2.96884e-08 -8.83335e-08 0)
(-3.0608e-08 -9.08375e-08 0)
(-3.15209e-08 -9.33128e-08 0)
(-3.24264e-08 -9.57572e-08 0)
(-3.3324e-08 -9.81698e-08 0)
(-3.42133e-08 -1.0055e-07 0)
(-3.50939e-08 -1.02897e-07 0)
(-3.59655e-08 -1.0521e-07 0)
(-3.68276e-08 -1.07488e-07 0)
(-3.768e-08 -1.09731e-07 0)
(-3.85228e-08 -1.1194e-07 0)
(-3.93559e-08 -1.14114e-07 0)
(-4.01791e-08 -1.16253e-07 0)
(-4.09924e-08 -1.18358e-07 0)
(-4.1796e-08 -1.2043e-07 0)
(-4.25897e-08 -1.22467e-07 0)
(-4.33738e-08 -1.24472e-07 0)
(-4.41484e-08 -1.26444e-07 0)
(-4.49136e-08 -1.28385e-07 0)
(-4.56695e-08 -1.30294e-07 0)
(-4.64162e-08 -1.32173e-07 0)
(-4.71539e-08 -1.34021e-07 0)
(-4.78829e-08 -1.35841e-07 0)
(-4.86035e-08 -1.37632e-07 0)
(-4.9316e-08 -1.39396e-07 0)
(-5.00204e-08 -1.41133e-07 0)
(-5.07169e-08 -1.42843e-07 0)
(-5.14058e-08 -1.44528e-07 0)
(-5.20873e-08 -1.46189e-07 0)
(-5.27615e-08 -1.47825e-07 0)
(-5.34286e-08 -1.49437e-07 0)
(-5.40888e-08 -1.51026e-07 0)
(-5.47426e-08 -1.52593e-07 0)
(-5.53899e-08 -1.54139e-07 0)
(-5.60309e-08 -1.55663e-07 0)
(-5.6666e-08 -1.57167e-07 0)
(-5.72954e-08 -1.58651e-07 0)
(-5.79192e-08 -1.60116e-07 0)
(-5.85373e-08 -1.61561e-07 0)
(-5.915e-08 -1.62987e-07 0)
(-5.97573e-08 -1.64395e-07 0)
(-6.03594e-08 -1.65785e-07 0)
(-6.09564e-08 -1.67156e-07 0)
(-6.15484e-08 -1.6851e-07 0)
(-6.21357e-08 -1.69848e-07 0)
(-6.27184e-08 -1.71168e-07 0)
(-6.32965e-08 -1.72472e-07 0)
(-6.38701e-08 -1.7376e-07 0)
(-6.44393e-08 -1.75032e-07 0)
(-6.50041e-08 -1.76288e-07 0)
(-6.55644e-08 -1.77527e-07 0)
(-6.61203e-08 -1.78751e-07 0)
(-6.66719e-08 -1.79958e-07 0)
(-6.72191e-08 -1.81149e-07 0)
(-6.77621e-08 -1.82325e-07 0)
(-6.8301e-08 -1.83486e-07 0)
(-6.88359e-08 -1.84631e-07 0)
(-6.93667e-08 -1.8576e-07 0)
(-6.98936e-08 -1.86875e-07 0)
(-7.04167e-08 -1.87974e-07 0)
(-7.09358e-08 -1.89058e-07 0)
(-7.14512e-08 -1.90127e-07 0)
(-7.19628e-08 -1.91181e-07 0)
(-7.24709e-08 -1.9222e-07 0)
(-7.29754e-08 -1.93245e-07 0)
(-7.34767e-08 -1.94255e-07 0)
(-7.39749e-08 -1.9525e-07 0)
(-7.44701e-08 -1.96232e-07 0)
(-7.49627e-08 -1.972e-07 0)
(-7.5453e-08 -1.98155e-07 0)
(-7.59412e-08 -1.99096e-07 0)
(-7.64276e-08 -2.00025e-07 0)
(-7.69126e-08 -2.00942e-07 0)
(-7.73966e-08 -2.01847e-07 0)
(-7.788e-08 -2.0274e-07 0)
(-7.83629e-08 -2.03622e-07 0)
(-7.88458e-08 -2.04492e-07 0)
(-7.93289e-08 -2.0535e-07 0)
(-7.98123e-08 -2.06197e-07 0)
(-8.0296e-08 -2.07031e-07 0)
(-8.07801e-08 -2.07853e-07 0)
(-8.12642e-08 -2.0866e-07 0)
(-8.17481e-08 -2.09452e-07 0)
(-8.22316e-08 -2.10228e-07 0)
(-8.27144e-08 -2.10986e-07 0)
(-8.31967e-08 -2.11726e-07 0)
(-8.36791e-08 -2.12449e-07 0)
(-8.4163e-08 -2.13154e-07 0)
(-8.4651e-08 -2.13846e-07 0)
(-8.5147e-08 -2.14527e-07 0)
(-8.56563e-08 -2.15204e-07 0)
(-8.61847e-08 -2.15881e-07 0)
(-8.67383e-08 -2.16562e-07 0)
(-8.73215e-08 -2.1725e-07 0)
(-8.79342e-08 -2.17941e-07 0)
(-8.85656e-08 -2.18619e-07 0)
(-8.9186e-08 -2.19252e-07 0)
(-8.97429e-08 -2.1979e-07 0)
(-9.01771e-08 -2.20184e-07 0)
(-9.04566e-08 -2.2042e-07 0)
(-9.05993e-08 -2.2053e-07 0)
(-9.06604e-08 -2.2057e-07 0)
(-9.0695e-08 -2.20585e-07 0)
(-9.07367e-08 -2.20619e-07 0)
(-9.08285e-08 -2.20726e-07 0)
(-9.08819e-08 -2.20754e-07 0)
(-9.09214e-08 -2.2076e-07 0)
(-9.10023e-08 -2.20755e-07 0)
(-0.0215787 -1.7059e-05 0)
(-0.120205 -0.000230184 0)
(-0.215621 -0.000290722 0)
(-0.292042 -0.000332344 0)
(-0.355353 -0.000349654 0)
(-0.408803 -0.000357967 0)
(-0.454612 -0.000353633 0)
(-0.494356 -0.000335355 0)
(-0.529209 -0.000302365 0)
(-0.560068 -0.000254224 0)
(-0.587633 -0.000190772 0)
(-0.612458 -0.000112143 0)
(-0.634979 -1.87112e-05 0)
(-0.655543 8.89587e-05 0)
(-0.674428 0.00021012 0)
(-0.691854 0.000343922 0)
(-0.707998 0.000489451 0)
(-0.723004 0.000645713 0)
(-0.736986 0.000811634 0)
(-0.750041 0.000986056 0)
(-0.762244 0.00116771 0)
(-0.773661 0.00135521 0)
(-0.784345 0.00154699 0)
(-0.79434 0.00174127 0)
(-0.803686 0.001936 0)
(-0.812416 0.00212882 0)
(-0.82056 0.00231695 0)
(-0.828146 0.00249683 0)
(-0.835198 0.00266342 0)
(-0.841744 0.002809 0)
(-0.847808 0.00292231 0)
(-0.853416 0.00298931 0)
(-0.8586 0.00299651 0)
(-0.863388 0.00293563 0)
(-0.867814 0.00280695 0)
(-0.87191 0.00261905 0)
(-0.875705 0.00238576 0)
(-0.879228 0.00212226 0)
(-0.882501 0.0018424 0)
(-0.885546 0.00155743 0)
(-0.888382 0.00127577 0)
(-0.891023 0.00100341 0)
(-0.893485 0.000744329 0)
(-0.89578 0.000501031 0)
(-0.89792 0.000274914 0)
(-0.899914 6.65802e-05 0)
(-0.901773 -0.000123927 0)
(-0.903505 -0.000296959 0)
(-0.905118 -0.000453133 0)
(-0.906621 -0.000593247 0)
(-0.90802 -0.000718208 0)
(-0.909321 -0.000828988 0)
(-0.910533 -0.000926588 0)
(-0.911659 -0.00101201 0)
(-0.912717 -0.00108698 0)
(-0.913718 -0.00115274 0)
(-0.914665 -0.00120971 0)
(-0.915559 -0.00125838 0)
(-0.916402 -0.00129923 0)
(-0.917194 -0.00133281 0)
(-0.917939 -0.00135964 0)
(-0.918638 -0.00138025 0)
(-0.919292 -0.00139516 0)
(-0.919904 -0.00140486 0)
(-0.920475 -0.00140984 0)
(-0.921007 -0.00141052 0)
(-0.921502 -0.00140731 0)
(-0.921962 -0.00140058 0)
(-0.922388 -0.00139067 0)
(-0.922783 -0.00137789 0)
(-0.923148 -0.00136251 0)
(-0.923484 -0.00134478 0)
(-0.923794 -0.00132493 0)
(-0.924079 -0.00130315 0)
(-0.92434 -0.00127958 0)
(-0.924579 -0.00125433 0)
(-0.924796 -0.00122744 0)
(-0.924994 -0.00119888 0)
(-0.925172 -0.00116858 0)
(-0.925333 -0.00113653 0)
(-0.925477 -0.001103 0)
(-0.925604 -0.00106909 0)
(-0.925717 -0.00103749 0)
(-0.925817 -0.00101352 0)
(-0.925907 -0.00100522 0)
(-0.925986 -0.00101947 0)
(-0.926054 -0.00105294 0)
(-0.926109 -0.00109061 0)
(-0.926148 -0.00112062 0)
(-0.926185 -0.00114581 0)
(-0.931621 -0.00160042 0)
(-0.929656 -0.00191246 0)
(-0.927658 -0.00226436 0)
(-0.925616 -0.00255754 0)
(-0.923533 -0.00280008 0)
(-0.92141 -0.00298921 0)
(-0.919252 -0.00312606 0)
(-0.917062 -0.00321346 0)
(-0.914844 -0.00325577 0)
(-0.912601 -0.00325797 0)
(-0.91034 -0.00324621 0)
(-0.908064 -0.00305358 0)
(-0.905768 -0.00352239 0)
(-0.903507 -0.00184165 0)
(-0.901133 -0.00569409 0)
(-0.89866 -0.0283306 0)
(-0.896666 -0.039577 0)
(-0.894299 -0.0396137 0)
(-0.892181 -0.0396111 0)
(-0.890108 -0.0396113 0)
(-0.888112 -0.0396108 0)
(-0.886208 -0.0396099 0)
(-0.884411 -0.0396085 0)
(-0.882739 -0.0396066 0)
(-0.881208 -0.0396042 0)
(-0.879837 -0.0396013 0)
(-0.878641 -0.039598 0)
(-0.877634 -0.0395944 0)
(-0.876828 -0.0395905 0)
(-0.876226 -0.0395866 0)
(-0.875838 -0.0395826 0)
(-0.875671 -0.0395792 0)
(-0.875673 -0.0395756 0)
(-0.875868 -0.0395726 0)
(-0.876222 -0.0395701 0)
(-0.876712 -0.039568 0)
(-0.87731 -0.0395662 0)
(-0.877988 -0.0395648 0)
(-0.87871 -0.0395634 0)
(-0.879439 -0.0395621 0)
(-0.880131 -0.0395604 0)
(-0.880734 -0.0395573 0)
(-0.881043 -0.0395531 0)
(-0.881092 -0.0395505 0)
(-0.881093 -0.0395501 0)
(-0.881093 -0.0395501 0)
(-0.881093 -0.0395501 0)
(-0.881093 -0.0395501 0)
(-0.881093 -0.0395501 0)
(-0.881093 -0.0395501 0)
(-0.881093 -0.0395501 0)
(-0.881093 -0.0395501 0)
(-0.881093 -0.0395501 0)
(-0.881093 -0.0395501 0)
(-0.881093 -0.0395501 0)
(-0.881093 -0.0395501 0)
(-0.881093 -0.0395501 0)
(-0.881093 -0.0395501 0)
(-0.881093 -0.0395501 0)
(-0.881093 -0.0395501 0)
(-0.881093 -0.0395501 0)
(-0.881093 -0.0395501 0)
(-0.881093 -0.0395501 0)
(-0.881093 -0.0395501 0)
(-0.881093 -0.0395501 0)
(-0.881093 -0.0395501 0)
(-0.881093 -0.0395501 0)
(-0.881093 -0.0395501 0)
(-0.881093 -0.0395501 0)
(-0.881093 -0.0395501 0)
(-0.881093 -0.0395501 0)
(-0.881093 -0.0395501 0)
(-0.881093 -0.0395501 0)
(-0.881093 -0.0395501 0)
(-0.881093 -0.0395501 0)
(-0.881093 -0.0395501 0)
(-0.881093 -0.0395501 0)
(-0.881093 -0.0395501 0)
(-0.881093 -0.0395501 0)
(-0.881093 -0.0395501 0)
(-0.881093 -0.0395501 0)
(-0.881093 -0.0395501 0)
(-0.881093 -0.0395501 0)
(-0.881093 -0.0395501 0)
(-0.881093 -0.0395501 0)
(-0.881093 -0.0395501 0)
(-0.881093 -0.0395501 0)
(-0.881093 -0.0395501 0)
(-0.881093 -0.0395501 0)
(-0.881093 -0.0395501 0)
(-0.881093 -0.0395501 0)
(-0.881093 -0.0395501 0)
(-0.881093 -0.0395501 0)
(-0.881093 -0.0395501 0)
(-0.881093 -0.0395501 0)
(-0.881093 -0.0395501 0)
(-0.881093 -0.0395501 0)
(-0.881093 -0.0395501 0)
(-0.881093 -0.0395501 0)
(-0.881093 -0.0395501 0)
(-0.881093 -0.0395501 0)
(-0.881093 -0.0395501 0)
(-0.881093 -0.0395501 0)
(-0.881093 -0.0395501 0)
(-0.881093 -0.0395501 0)
(-0.881093 -0.0395501 0)
(-0.881093 -0.0395501 0)
(-0.881093 -0.0395501 0)
(-0.881093 -0.0395501 0)
(-0.881093 -0.0395501 0)
(-0.881093 -0.0395501 0)
(-0.881093 -0.0395501 0)
(-0.881093 -0.0395501 0)
(-0.881093 -0.0395501 0)
(-0.881093 -0.0395501 0)
(-0.881093 -0.0395501 0)
(-0.881093 -0.0395501 0)
(-0.881093 -0.0395501 0)
(-0.881093 -0.0395501 0)
(-0.881093 -0.0395498 0)
(-0.881093 -0.0395414 0)
(-0.881093 -0.0391968 0)
(-0.881078 -0.0225002 0)
)
;

boundaryField
{
    inandouthalf11
    {
        type            cyclic;
    }
    inandouthalf12
    {
        type            cyclic;
    }
    inandouthalf21
    {
        type            cyclic;
    }
    inandouthalf22
    {
        type            cyclic;
    }
    inandouthalf31
    {
        type            cyclic;
    }
    inandouthalf32
    {
        type            cyclic;
    }
    inandouthalf41
    {
        type            cyclic;
    }
    inandouthalf42
    {
        type            cyclic;
    }
    top
    {
        type            symmetryPlane;
    }
    walls
    {
        type            fixedValue;
        value           uniform (0 0 0);
    }
    frontAndBackPlanes
    {
        type            empty;
    }
}


// ************************************************************************* //
