/*--------------------------------*- C++ -*----------------------------------*\
| =========                 |                                                 |
| \\      /  F ield         | OpenFOAM: The Open Source CFD Toolbox           |
|  \\    /   O peration     | Version:  2.4.x                                 |
|   \\  /    A nd           | Web:      www.OpenFOAM.org                      |
|    \\/     M anipulation  |                                                 |
\*---------------------------------------------------------------------------*/
FoamFile
{
    version     2.0;
    format      ascii;
    class       volVectorField;
    location    "7.3";
    object      ddt0(Ua);
}
// * * * * * * * * * * * * * * * * * * * * * * * * * * * * * * * * * * * * * //

dimensions      [0 1 -2 0 0 0 0];

internalField   nonuniform List<vector> 
360
(
(1.97889e-32 -3.21909e-33 0)
(2.86656e-08 3.9128e-08 0)
(5.94353e-08 7.24169e-08 0)
(8.64179e-08 1.00254e-07 0)
(1.13417e-07 1.28602e-07 0)
(1.41439e-07 1.58619e-07 0)
(1.69943e-07 1.89776e-07 0)
(1.98612e-07 2.21784e-07 0)
(2.27436e-07 2.54642e-07 0)
(2.56483e-07 2.88432e-07 0)
(2.85815e-07 3.23247e-07 0)
(3.15466e-07 3.59127e-07 0)
(3.45451e-07 3.96052e-07 0)
(3.75778e-07 4.33975e-07 0)
(4.06457e-07 4.72847e-07 0)
(4.37509e-07 5.12636e-07 0)
(4.68956e-07 5.53319e-07 0)
(5.00819e-07 5.94871e-07 0)
(5.33114e-07 6.37264e-07 0)
(5.6586e-07 6.8048e-07 0)
(5.99072e-07 7.24489e-07 0)
(6.32764e-07 7.69272e-07 0)
(6.66954e-07 8.14821e-07 0)
(7.01659e-07 8.61124e-07 0)
(7.36895e-07 9.08175e-07 0)
(7.72675e-07 9.55966e-07 0)
(8.09013e-07 1.00449e-06 0)
(8.45927e-07 1.05375e-06 0)
(8.83433e-07 1.10375e-06 0)
(9.21544e-07 1.15449e-06 0)
(9.60273e-07 1.20595e-06 0)
(9.99635e-07 1.25813e-06 0)
(1.03964e-06 1.31101e-06 0)
(1.08031e-06 1.36459e-06 0)
(1.12165e-06 1.41883e-06 0)
(1.16367e-06 1.47369e-06 0)
(1.20637e-06 1.52913e-06 0)
(1.24977e-06 1.58509e-06 0)
(1.29388e-06 1.64152e-06 0)
(1.33869e-06 1.69834e-06 0)
(1.3842e-06 1.75547e-06 0)
(1.43043e-06 1.81285e-06 0)
(1.47736e-06 1.87037e-06 0)
(1.52499e-06 1.92798e-06 0)
(1.57333e-06 1.98564e-06 0)
(1.62239e-06 2.04329e-06 0)
(1.67216e-06 2.10093e-06 0)
(1.72263e-06 2.15852e-06 0)
(1.77383e-06 2.21613e-06 0)
(1.8258e-06 2.27387e-06 0)
(1.87855e-06 2.33185e-06 0)
(1.93212e-06 2.39019e-06 0)
(1.98656e-06 2.44907e-06 0)
(2.0419e-06 2.50866e-06 0)
(2.09819e-06 2.56912e-06 0)
(2.15548e-06 2.63064e-06 0)
(2.21384e-06 2.69338e-06 0)
(2.27329e-06 2.75747e-06 0)
(2.33389e-06 2.82304e-06 0)
(2.39569e-06 2.89013e-06 0)
(2.45874e-06 2.95882e-06 0)
(2.5231e-06 3.02909e-06 0)
(2.58882e-06 3.10083e-06 0)
(2.65588e-06 3.17381e-06 0)
(2.72426e-06 3.24761e-06 0)
(2.79387e-06 3.32169e-06 0)
(2.86459e-06 3.39538e-06 0)
(2.93629e-06 3.46792e-06 0)
(3.00877e-06 3.53842e-06 0)
(3.08181e-06 3.60596e-06 0)
(3.15523e-06 3.66966e-06 0)
(3.22882e-06 3.72868e-06 0)
(3.30234e-06 3.78214e-06 0)
(3.37554e-06 3.82927e-06 0)
(3.44817e-06 3.86943e-06 0)
(3.52e-06 3.90207e-06 0)
(3.59077e-06 3.92682e-06 0)
(3.66024e-06 3.94354e-06 0)
(3.72822e-06 3.95236e-06 0)
(3.79461e-06 3.9537e-06 0)
(3.85938e-06 3.94827e-06 0)
(3.9226e-06 3.93704e-06 0)
(3.98441e-06 3.92121e-06 0)
(4.04504e-06 3.90215e-06 0)
(4.10476e-06 3.88135e-06 0)
(4.16389e-06 3.86038e-06 0)
(4.22278e-06 3.84085e-06 0)
(4.28178e-06 3.82433e-06 0)
(4.34127e-06 3.81238e-06 0)
(4.40165e-06 3.80644e-06 0)
(4.46331e-06 3.80789e-06 0)
(4.5267e-06 3.818e-06 0)
(4.59225e-06 3.83794e-06 0)
(4.66045e-06 3.86878e-06 0)
(4.73176e-06 3.91152e-06 0)
(4.80668e-06 3.96707e-06 0)
(4.88569e-06 4.03627e-06 0)
(4.9693e-06 4.11989e-06 0)
(5.05797e-06 4.2186e-06 0)
(5.15219e-06 4.33298e-06 0)
(5.25243e-06 4.46354e-06 0)
(5.35915e-06 4.61067e-06 0)
(5.47283e-06 4.77469e-06 0)
(5.5939e-06 4.95579e-06 0)
(5.7228e-06 5.15407e-06 0)
(5.85996e-06 5.36946e-06 0)
(6.00576e-06 5.60176e-06 0)
(6.16055e-06 5.8506e-06 0)
(6.32466e-06 6.11543e-06 0)
(6.49833e-06 6.39548e-06 0)
(6.68179e-06 6.6898e-06 0)
(6.87517e-06 6.99719e-06 0)
(7.07854e-06 7.31621e-06 0)
(7.29189e-06 7.64517e-06 0)
(7.51512e-06 7.98209e-06 0)
(7.748e-06 8.32471e-06 0)
(7.99021e-06 8.67047e-06 0)
(8.24129e-06 9.01649e-06 0)
(8.50067e-06 9.35957e-06 0)
(8.76758e-06 9.6962e-06 0)
(9.04112e-06 1.00226e-05 0)
(9.32016e-06 1.03346e-05 0)
(9.60335e-06 1.06281e-05 0)
(9.88905e-06 1.08986e-05 0)
(1.01754e-05 1.1142e-05 0)
(1.04601e-05 1.13543e-05 0)
(1.07407e-05 1.15323e-05 0)
(1.10146e-05 1.16737e-05 0)
(1.12788e-05 1.17774e-05 0)
(1.15298e-05 1.18435e-05 0)
(1.17642e-05 1.18736e-05 0)
(1.19782e-05 1.18707e-05 0)
(1.21686e-05 1.18388e-05 0)
(1.23334e-05 1.17821e-05 0)
(1.24716e-05 1.17045e-05 0)
(1.25836e-05 1.16093e-05 0)
(1.26707e-05 1.14992e-05 0)
(1.27358e-05 1.13754e-05 0)
(1.27825e-05 1.12367e-05 0)
(1.28155e-05 1.10816e-05 0)
(1.28417e-05 1.09203e-05 0)
(1.28715e-05 1.0784e-05 0)
(1.29101e-05 1.06984e-05 0)
(1.29477e-05 1.06617e-05 0)
(1.29682e-05 1.06531e-05 0)
(1.29729e-05 1.065e-05 0)
(1.29766e-05 1.06479e-05 0)
(3.02084e-05 -9.99907e-06 0)
(8.50527e-05 -4.11581e-05 0)
(0.000315178 -7.79332e-05 0)
(0.323312 0.00108915 0)
(0.537853 0.00899195 0)
(0.630626 0.0111977 0)
(0.683989 0.0153951 0)
(0.72332 0.0212543 0)
(0.753072 0.0224212 0)
(0.777542 0.0230851 0)
(0.798417 0.0229139 0)
(0.81665 0.0221995 0)
(0.832831 0.0211851 0)
(0.847349 0.0200183 0)
(0.86048 0.0187972 0)
(0.872429 0.0175853 0)
(0.883353 0.0164214 0)
(0.893376 0.0153281 0)
(0.902601 0.0143169 0)
(0.911111 0.0133919 0)
(0.918977 0.0125524 0)
(0.926262 0.0117945 0)
(0.933017 0.0111122 0)
(0.93929 0.0104982 0)
(0.945121 0.00994436 0)
(0.950547 0.0094424 0)
(0.955602 0.00898395 0)
(0.960315 0.00856082 0)
(0.964714 0.00816518 0)
(0.968822 0.00778965 0)
(0.972664 0.00742741 0)
(0.976259 0.00707228 0)
(0.979627 0.00671871 0)
(0.982786 0.00636185 0)
(0.985752 0.00599754 0)
(0.988541 0.00562232 0)
(0.991166 0.00523342 0)
(0.993642 0.00482872 0)
(0.995979 0.0044068 0)
(0.99819 0.00396685 0)
(1.00029 0.00350871 0)
(1.00228 0.00303283 0)
(1.00417 0.00254031 0)
(1.00597 0.00203284 0)
(1.0077 0.00151273 0)
(1.00935 0.000982876 0)
(1.01093 0.000446772 0)
(1.01245 -9.15865e-05 0)
(1.01392 -0.000627819 0)
(1.01533 -0.00115739 0)
(1.01669 -0.00167594 0)
(1.01801 -0.00217957 0)
(1.01928 -0.00266508 0)
(1.02052 -0.00313003 0)
(1.02172 -0.0035774 0)
(1.0229 -0.00401026 0)
(1.02406 -0.00442779 0)
(1.02519 -0.00482945 0)
(1.02629 -0.00521472 0)
(1.02735 -0.00558305 0)
(1.02836 -0.00593394 0)
(1.02933 -0.0062667 0)
(1.03025 -0.00658038 0)
(1.03112 -0.00687376 0)
(1.03192 -0.00714534 0)
(1.03267 -0.00739388 0)
(1.03336 -0.00761874 0)
(1.03398 -0.00781918 0)
(1.03455 -0.00799458 0)
(1.03506 -0.00814523 0)
(1.03552 -0.00827199 0)
(1.03593 -0.00837574 0)
(1.0363 -0.00845743 0)
(1.03664 -0.00851867 0)
(1.03694 -0.0085613 0)
(1.03722 -0.00858649 0)
(1.03748 -0.00859512 0)
(1.03772 -0.00858841 0)
(1.03796 -0.00856699 0)
(1.03819 -0.008531 0)
(1.03842 -0.0084803 0)
(1.03865 -0.0084147 0)
(1.03889 -0.00833327 0)
(1.03914 -0.00823459 0)
(1.0394 -0.00811602 0)
(1.03966 -0.00797748 0)
(1.03995 -0.00780952 0)
(1.04034 -0.00756821 0)
(1.04078 -0.00724897 0)
(1.04129 -0.00685989 0)
(1.10246 -0.0146802 0)
(1.10041 -0.00359491 0)
(1.09743 -0.0170867 0)
(1.09578 -0.00896744 0)
(1.09176 -0.0134463 0)
(1.08858 0.00954895 0)
(1.08609 0.0171937 0)
(1.08367 -6.94071e-05 0)
(1.08013 1.67367e-06 0)
(1.07647 8.33268e-06 0)
(1.07315 3.07416e-05 0)
(1.07068 7.58604e-06 0)
(1.06776 3.64645e-05 0)
(1.06537 4.50098e-05 0)
(1.06329 5.50751e-05 0)
(1.06152 6.34358e-05 0)
(1.06006 6.99361e-05 0)
(1.05892 7.44591e-05 0)
(1.05807 7.70126e-05 0)
(1.05753 7.75905e-05 0)
(1.0573 7.60879e-05 0)
(1.05729 7.28062e-05 0)
(1.05832 4.77891e-05 0)
(1.06011 5.48159e-05 0)
(1.06089 7.34907e-05 0)
(1.06094 8.05209e-05 0)
(1.06094 8.09655e-05 0)
(1.06094 8.09715e-05 0)
(1.06094 8.0972e-05 0)
(1.06094 8.09716e-05 0)
(1.06094 8.09721e-05 0)
(1.06094 8.09717e-05 0)
(1.06094 8.09722e-05 0)
(1.06094 8.09717e-05 0)
(1.06094 8.09723e-05 0)
(1.06094 8.09718e-05 0)
(1.06094 8.09723e-05 0)
(1.06094 8.09718e-05 0)
(1.06094 8.09724e-05 0)
(1.06094 8.09718e-05 0)
(1.06094 8.09725e-05 0)
(1.06094 8.09718e-05 0)
(1.06094 8.09726e-05 0)
(1.06094 8.09718e-05 0)
(1.06094 8.09726e-05 0)
(1.06094 8.09718e-05 0)
(1.06094 8.09727e-05 0)
(1.06094 8.09718e-05 0)
(1.06094 8.09728e-05 0)
(1.06094 8.09718e-05 0)
(1.06094 8.09728e-05 0)
(1.06094 8.09718e-05 0)
(1.06094 8.09729e-05 0)
(1.06094 8.09718e-05 0)
(1.06094 8.0973e-05 0)
(1.06094 8.09717e-05 0)
(1.06094 8.0973e-05 0)
(1.06094 8.09717e-05 0)
(1.06094 8.09731e-05 0)
(1.06094 8.09717e-05 0)
(1.06094 8.09732e-05 0)
(1.06094 8.09717e-05 0)
(1.06094 8.09732e-05 0)
(1.06094 8.09716e-05 0)
(1.06094 8.09733e-05 0)
(1.06094 8.09716e-05 0)
(1.06094 8.09734e-05 0)
(1.06094 8.09716e-05 0)
(1.06094 8.09735e-05 0)
(1.06094 8.09716e-05 0)
(1.06094 8.09736e-05 0)
(1.06094 8.09715e-05 0)
(1.06094 8.09736e-05 0)
(1.06094 8.09716e-05 0)
(1.06094 8.09735e-05 0)
(1.06094 8.09716e-05 0)
(1.06094 8.09736e-05 0)
(1.06094 8.09716e-05 0)
(1.06094 8.09736e-05 0)
(1.06094 8.09716e-05 0)
(1.06094 8.09736e-05 0)
(1.06094 8.09716e-05 0)
(1.06094 8.09736e-05 0)
(1.06094 8.09716e-05 0)
(1.06094 8.09736e-05 0)
(1.06094 8.09716e-05 0)
(1.06094 8.09736e-05 0)
(1.06094 8.09715e-05 0)
(1.06094 8.09737e-05 0)
(1.06094 8.09715e-05 0)
(1.06094 8.09737e-05 0)
(1.06094 8.09716e-05 0)
(1.06094 8.09739e-05 0)
(1.06094 8.09718e-05 0)
(1.06094 8.09741e-05 0)
(1.06094 8.0972e-05 0)
(1.06094 8.09742e-05 0)
(1.06094 8.0972e-05 0)
(1.06094 8.09742e-05 0)
(1.06094 8.0972e-05 0)
(1.06094 8.09743e-05 0)
(1.06094 8.0972e-05 0)
(1.06094 8.09742e-05 0)
(1.06094 8.09718e-05 0)
(1.06094 8.09739e-05 0)
(1.06094 8.09714e-05 0)
(1.06094 8.09734e-05 0)
(1.06094 8.09708e-05 0)
(1.06094 8.09727e-05 0)
(1.06094 8.09701e-05 0)
(1.06094 8.0972e-05 0)
(1.06094 8.09692e-05 0)
(1.06094 8.09711e-05 0)
(1.06094 8.09683e-05 0)
(1.06094 8.09705e-05 0)
(1.06094 8.09672e-05 0)
(1.06094 8.09682e-05 0)
(1.06094 8.0965e-05 0)
(1.06094 8.09676e-05 0)
(1.06094 8.09681e-05 0)
(1.06094 8.10538e-05 0)
(1.06092 8.28526e-05 0)
(1.06042 0.000156582 0)
)
;

boundaryField
{
    inandouthalf11
    {
        type            cyclic;
    }
    inandouthalf12
    {
        type            cyclic;
    }
    inandouthalf21
    {
        type            cyclic;
    }
    inandouthalf22
    {
        type            cyclic;
    }
    inandouthalf31
    {
        type            cyclic;
    }
    inandouthalf32
    {
        type            cyclic;
    }
    inandouthalf41
    {
        type            cyclic;
    }
    inandouthalf42
    {
        type            cyclic;
    }
    top
    {
        type            symmetryPlane;
    }
    walls
    {
        type            calculated;
        value           uniform (0 0 0);
    }
    frontAndBackPlanes
    {
        type            empty;
    }
}


// ************************************************************************* //
