/*--------------------------------*- C++ -*----------------------------------*\
| =========                 |                                                 |
| \\      /  F ield         | OpenFOAM: The Open Source CFD Toolbox           |
|  \\    /   O peration     | Version:  2.4.x                                 |
|   \\  /    A nd           | Web:      www.OpenFOAM.org                      |
|    \\/     M anipulation  |                                                 |
\*---------------------------------------------------------------------------*/
FoamFile
{
    version     2.0;
    format      ascii;
    class       surfaceScalarField;
    location    "7.3";
    object      ddt0(phib);
}
// * * * * * * * * * * * * * * * * * * * * * * * * * * * * * * * * * * * * * //

dimensions      [0 3 -2 0 0 0 0];

internalField   nonuniform List<scalar> 
359
(
-1.31905e-13
-3.47724e-13
-5.42574e-13
-7.23366e-13
-9.08279e-13
-1.10117e-12
-1.30051e-12
-1.50533e-12
-1.71565e-12
-1.93208e-12
-2.15508e-12
-2.38464e-12
-2.62062e-12
-2.86262e-12
-3.11044e-12
-3.36389e-12
-3.62284e-12
-3.88712e-12
-4.15657e-12
-4.43105e-12
-4.71035e-12
-4.9944e-12
-5.28318e-12
-5.57661e-12
-5.87467e-12
-6.17726e-12
-6.48439e-12
-6.79609e-12
-7.11231e-12
-7.433e-12
-7.75817e-12
-8.08778e-12
-8.42158e-12
-8.75964e-12
-9.10157e-12
-9.44719e-12
-9.7961e-12
-1.0148e-11
-1.05026e-11
-1.08591e-11
-1.12175e-11
-1.15769e-11
-1.19369e-11
-1.22972e-11
-1.26575e-11
-1.30176e-11
-1.33775e-11
-1.3737e-11
-1.40969e-11
-1.4458e-11
-1.48207e-11
-1.51861e-11
-1.55552e-11
-1.59292e-11
-1.63091e-11
-1.6696e-11
-1.70907e-11
-1.74941e-11
-1.79068e-11
-1.8329e-11
-1.87611e-11
-1.92024e-11
-1.9652e-11
-2.01078e-11
-2.05669e-11
-2.10254e-11
-2.1479e-11
-2.19224e-11
-2.235e-11
-2.27561e-11
-2.31354e-11
-2.34825e-11
-2.37924e-11
-2.40606e-11
-2.42835e-11
-2.44582e-11
-2.45833e-11
-2.46585e-11
-2.46858e-11
-2.46685e-11
-2.46121e-11
-2.45232e-11
-2.44099e-11
-2.4281e-11
-2.41463e-11
-2.40153e-11
-2.38983e-11
-2.38047e-11
-2.3744e-11
-2.37249e-11
-2.37556e-11
-2.38435e-11
-2.39956e-11
-2.42182e-11
-2.45173e-11
-2.48982e-11
-2.53659e-11
-2.59245e-11
-2.65781e-11
-2.73297e-11
-2.81823e-11
-2.91377e-11
-3.01975e-11
-3.13623e-11
-3.26323e-11
-3.40063e-11
-3.54826e-11
-3.7058e-11
-3.87284e-11
-4.04881e-11
-4.23306e-11
-4.42473e-11
-4.62286e-11
-4.82627e-11
-5.03368e-11
-5.24355e-11
-5.45422e-11
-5.66377e-11
-5.87016e-11
-6.0711e-11
-6.26419e-11
-6.44685e-11
-6.61645e-11
-6.77035e-11
-6.9061e-11
-7.0215e-11
-7.11491e-11
-7.18526e-11
-7.23232e-11
-7.25664e-11
-7.25968e-11
-7.24356e-11
-7.21082e-11
-7.16388e-11
-7.10494e-11
-7.03582e-11
-6.95773e-11
-6.8705e-11
-6.77311e-11
-6.66813e-11
-6.56862e-11
-6.49234e-11
-6.44364e-11
-6.41496e-11
-6.38779e-11
-6.31416e-11
4.36591e-12
1.83052e-10
4.39209e-10
-7.77477e-10
-2.73665e-09
-1.12014e-09
-8.79911e-10
-8.34116e-10
-7.03932e-10
-5.96255e-10
-5.08164e-10
-4.35502e-10
-3.74977e-10
-3.23967e-10
-2.80739e-10
-2.43938e-10
-2.12489e-10
-1.85528e-10
-1.62352e-10
-1.42382e-10
-1.25136e-10
-1.10208e-10
-9.72617e-11
-8.60085e-11
-7.62058e-11
-6.76473e-11
-6.01577e-11
-5.35876e-11
-4.78098e-11
-4.27155e-11
-3.82124e-11
-3.42213e-11
-3.0675e-11
-2.75157e-11
-2.46944e-11
-2.21689e-11
-1.99033e-11
-1.78667e-11
-1.60327e-11
-1.43786e-11
-1.28847e-11
-1.15343e-11
-1.03127e-11
-9.20734e-12
-8.2072e-12
-7.30254e-12
-6.48486e-12
-5.74634e-12
-5.08014e-12
-4.48009e-12
-3.94098e-12
-3.45798e-12
-3.02672e-12
-2.64283e-12
-2.30246e-12
-1.99657e-12
-1.72361e-12
-1.48076e-12
-1.26494e-12
-1.07345e-12
-9.04377e-13
-7.5555e-13
-6.24949e-13
-5.10629e-13
-4.11101e-13
-3.25533e-13
-2.53503e-13
-1.9324e-13
-1.43504e-13
-1.03634e-13
-7.2776e-14
-4.91916e-14
-3.17744e-14
-1.96075e-14
-1.18843e-14
-7.04817e-15
-4.49615e-15
-3.57796e-15
-3.87566e-15
-4.66001e-15
-5.9855e-15
-7.38257e-15
-8.95886e-15
-1.03121e-14
-1.1707e-14
-1.28828e-14
-1.38836e-14
-1.39481e-14
-1.45791e-14
-1.72272e-14
-1.42859e-14
-1.40842e-14
-1.3427e-14
-1.41122e-14
-1.36551e-14
-1.47945e-14
-1.44857e-14
-1.41643e-14
-1.38338e-14
-1.33307e-14
-1.2988e-14
-1.24804e-14
-1.21387e-14
-1.16444e-14
-1.13085e-14
-1.08151e-14
-1.04885e-14
-1.00251e-14
-9.70912e-15
-9.28113e-15
-8.97447e-15
-8.56233e-15
-8.28042e-15
-7.92174e-15
-7.65604e-15
-7.32348e-15
-7.09052e-15
-6.76497e-15
-6.44057e-15
-6.05077e-15
-5.7168e-15
-5.37266e-15
-5.03702e-15
-4.7234e-15
-4.45697e-15
-4.20096e-15
-3.90104e-15
-3.61592e-15
-3.35871e-15
-3.15263e-15
-2.9187e-15
-2.7306e-15
-2.55878e-15
-2.43302e-15
-2.18527e-15
-1.99224e-15
-1.80798e-15
-1.67036e-15
-1.49834e-15
-1.36919e-15
-1.24495e-15
-1.16173e-15
-1.00648e-15
-8.89233e-16
-7.71734e-16
-6.99411e-16
-5.90809e-16
-5.24877e-16
-4.65052e-16
-5.13675e-16
-2.2646e-16
-5.1252e-17
1.32873e-16
2.61017e-16
4.34502e-16
5.67744e-16
6.97863e-16
7.78553e-16
9.62673e-16
1.08115e-15
1.20979e-15
1.25034e-15
1.37843e-15
1.40008e-15
1.43021e-15
1.37298e-15
1.55324e-15
1.63973e-15
1.73063e-15
1.72183e-15
1.80542e-15
1.77549e-15
1.74766e-15
1.6307e-15
1.71342e-15
1.70035e-15
1.71008e-15
1.62454e-15
1.66365e-15
1.67769e-15
1.80945e-15
2.28364e-15
3.27686e-15
4.32545e-15
5.49156e-15
5.90377e-15
7.24442e-15
7.29423e-15
7.44785e-15
6.09522e-15
7.70972e-15
7.47458e-15
7.33392e-15
5.1048e-15
4.5358e-15
2.01603e-15
-4.52117e-16
-3.95639e-15
-7.07203e-15
-1.08694e-14
-1.46635e-14
-1.89535e-14
-2.42145e-14
-2.81891e-14
-3.28497e-14
-3.11131e-14
-5.09549e-14
-5.91637e-14
-6.84577e-14
-5.72948e-14
-7.9376e-14
-5.8307e-14
-2.76632e-14
)
;

boundaryField
{
    inandouthalf11
    {
        type            cyclic;
        value           nonuniform List<scalar> 
100
(
-1.70393e-10
-1.69479e-10
-1.69384e-10
-1.69541e-10
-1.69631e-10
-1.69679e-10
-1.69732e-10
-1.69793e-10
-1.69854e-10
-1.69916e-10
-1.69978e-10
-1.7004e-10
-1.70103e-10
-1.70167e-10
-1.70231e-10
-1.70296e-10
-1.70361e-10
-1.70428e-10
-1.70495e-10
-1.70563e-10
-1.70631e-10
-1.707e-10
-1.70771e-10
-1.70842e-10
-1.70914e-10
-1.70987e-10
-1.7106e-10
-1.71135e-10
-1.71211e-10
-1.71288e-10
-1.71365e-10
-1.71444e-10
-1.71524e-10
-1.71605e-10
-1.71687e-10
-1.71771e-10
-1.71855e-10
-1.71941e-10
-1.72028e-10
-1.72115e-10
-1.72205e-10
-1.72295e-10
-1.72387e-10
-1.7248e-10
-1.72574e-10
-1.7267e-10
-1.72767e-10
-1.72865e-10
-1.72964e-10
-1.73065e-10
-1.73167e-10
-1.73271e-10
-1.73376e-10
-1.73482e-10
-1.7359e-10
-1.737e-10
-1.73811e-10
-1.73925e-10
-1.74039e-10
-1.74156e-10
-1.74275e-10
-1.74395e-10
-1.74518e-10
-1.74643e-10
-1.7477e-10
-1.74898e-10
-1.7503e-10
-1.75163e-10
-1.75298e-10
-1.75434e-10
-1.75572e-10
-1.75712e-10
-1.75852e-10
-1.75993e-10
-1.76135e-10
-1.76278e-10
-1.76421e-10
-1.76564e-10
-1.76707e-10
-1.7685e-10
-1.76992e-10
-1.77134e-10
-1.77276e-10
-1.77419e-10
-1.77561e-10
-1.77704e-10
-1.77849e-10
-1.77994e-10
-1.78142e-10
-1.78292e-10
-1.78444e-10
-1.78599e-10
-1.78759e-10
-1.78922e-10
-1.7909e-10
-1.79263e-10
-1.79442e-10
-1.79627e-10
-1.7982e-10
-1.80019e-10
)
;
    }
    inandouthalf12
    {
        type            cyclic;
        value           nonuniform List<scalar> 
100
(
1.70393e-10
1.69479e-10
1.69384e-10
1.69541e-10
1.69631e-10
1.69679e-10
1.69732e-10
1.69793e-10
1.69854e-10
1.69916e-10
1.69978e-10
1.7004e-10
1.70103e-10
1.70167e-10
1.70231e-10
1.70296e-10
1.70361e-10
1.70428e-10
1.70495e-10
1.70563e-10
1.70631e-10
1.707e-10
1.70771e-10
1.70842e-10
1.70914e-10
1.70987e-10
1.7106e-10
1.71135e-10
1.71211e-10
1.71288e-10
1.71365e-10
1.71444e-10
1.71524e-10
1.71605e-10
1.71687e-10
1.71771e-10
1.71855e-10
1.71941e-10
1.72028e-10
1.72115e-10
1.72205e-10
1.72295e-10
1.72387e-10
1.7248e-10
1.72574e-10
1.7267e-10
1.72767e-10
1.72865e-10
1.72964e-10
1.73065e-10
1.73167e-10
1.73271e-10
1.73376e-10
1.73482e-10
1.7359e-10
1.737e-10
1.73811e-10
1.73925e-10
1.74039e-10
1.74156e-10
1.74275e-10
1.74395e-10
1.74518e-10
1.74643e-10
1.7477e-10
1.74898e-10
1.7503e-10
1.75163e-10
1.75298e-10
1.75434e-10
1.75572e-10
1.75712e-10
1.75852e-10
1.75993e-10
1.76135e-10
1.76278e-10
1.76421e-10
1.76564e-10
1.76707e-10
1.7685e-10
1.76992e-10
1.77134e-10
1.77276e-10
1.77419e-10
1.77561e-10
1.77704e-10
1.77849e-10
1.77994e-10
1.78142e-10
1.78292e-10
1.78444e-10
1.78599e-10
1.78759e-10
1.78922e-10
1.7909e-10
1.79263e-10
1.79442e-10
1.79627e-10
1.7982e-10
1.80019e-10
)
;
    }
    inandouthalf21
    {
        type            cyclic;
        value           nonuniform List<scalar> 
100
(
-1.80227e-10
-1.80444e-10
-1.8067e-10
-1.80905e-10
-1.81151e-10
-1.81408e-10
-1.81677e-10
-1.81957e-10
-1.8225e-10
-1.82556e-10
-1.82875e-10
-1.83208e-10
-1.83555e-10
-1.83916e-10
-1.84291e-10
-1.8468e-10
-1.85083e-10
-1.855e-10
-1.8593e-10
-1.86373e-10
-1.86829e-10
-1.87296e-10
-1.87773e-10
-1.8826e-10
-1.88754e-10
-1.89255e-10
-1.8976e-10
-1.90268e-10
-1.90777e-10
-1.91285e-10
-1.91788e-10
-1.92285e-10
-1.92773e-10
-1.93251e-10
-1.93722e-10
-1.94184e-10
-1.94637e-10
-1.95088e-10
-1.9556e-10
-1.96077e-10
-1.96629e-10
-1.97175e-10
-1.97838e-10
-1.98683e-10
-1.99714e-10
-2.01728e-10
-2.04238e-10
-2.1902e-10
-2.71795e-10
-1.38615e-09
-3.63594e-07
-5.89989e-07
-6.71698e-07
-7.17876e-07
-7.51885e-07
-7.79719e-07
-8.0372e-07
-8.25003e-07
-8.44183e-07
-8.61647e-07
-8.77656e-07
-8.92404e-07
-9.06037e-07
-9.18675e-07
-9.30416e-07
-9.41344e-07
-9.5153e-07
-9.61037e-07
-9.69922e-07
-9.78233e-07
-9.86017e-07
-9.93313e-07
-1.00016e-06
-1.00659e-06
-1.01263e-06
-1.01831e-06
-1.02366e-06
-1.02869e-06
-1.03344e-06
-1.03792e-06
-1.04215e-06
-1.04615e-06
-1.04993e-06
-1.05351e-06
-1.05689e-06
-1.0601e-06
-1.06314e-06
-1.06603e-06
-1.06876e-06
-1.07137e-06
-1.07384e-06
-1.07619e-06
-1.07843e-06
-1.08056e-06
-1.08259e-06
-1.08453e-06
-1.08637e-06
-1.08813e-06
-1.08981e-06
-1.09141e-06
)
;
    }
    inandouthalf22
    {
        type            cyclic;
        value           nonuniform List<scalar> 
100
(
1.80227e-10
1.80444e-10
1.8067e-10
1.80905e-10
1.81151e-10
1.81408e-10
1.81677e-10
1.81957e-10
1.8225e-10
1.82556e-10
1.82875e-10
1.83208e-10
1.83555e-10
1.83916e-10
1.84291e-10
1.8468e-10
1.85083e-10
1.855e-10
1.8593e-10
1.86373e-10
1.86829e-10
1.87296e-10
1.87773e-10
1.8826e-10
1.88754e-10
1.89255e-10
1.8976e-10
1.90268e-10
1.90777e-10
1.91285e-10
1.91788e-10
1.92285e-10
1.92773e-10
1.93251e-10
1.93722e-10
1.94184e-10
1.94637e-10
1.95088e-10
1.9556e-10
1.96077e-10
1.96629e-10
1.97175e-10
1.97838e-10
1.98683e-10
1.99714e-10
2.01728e-10
2.04238e-10
2.1902e-10
2.71795e-10
1.38615e-09
3.63594e-07
5.89989e-07
6.71698e-07
7.17876e-07
7.51885e-07
7.79719e-07
8.0372e-07
8.25003e-07
8.44183e-07
8.61647e-07
8.77656e-07
8.92404e-07
9.06037e-07
9.18675e-07
9.30416e-07
9.41344e-07
9.5153e-07
9.61037e-07
9.69922e-07
9.78233e-07
9.86017e-07
9.93313e-07
1.00016e-06
1.00659e-06
1.01263e-06
1.01831e-06
1.02366e-06
1.02869e-06
1.03344e-06
1.03792e-06
1.04215e-06
1.04615e-06
1.04993e-06
1.05351e-06
1.05689e-06
1.0601e-06
1.06314e-06
1.06603e-06
1.06876e-06
1.07137e-06
1.07384e-06
1.07619e-06
1.07843e-06
1.08056e-06
1.08259e-06
1.08453e-06
1.08637e-06
1.08813e-06
1.08981e-06
1.09141e-06
)
;
    }
    inandouthalf31
    {
        type            cyclic;
        value           nonuniform List<scalar> 
110
(
-1.09295e-06
-1.11664e-06
-1.14081e-06
-1.16545e-06
-1.19058e-06
-1.2162e-06
-1.24233e-06
-1.26897e-06
-1.29613e-06
-1.32381e-06
-1.35203e-06
-1.3808e-06
-1.41011e-06
-1.43998e-06
-1.47041e-06
-1.50142e-06
-1.533e-06
-1.56516e-06
-1.59791e-06
-1.63125e-06
-1.66519e-06
-1.69972e-06
-1.73485e-06
-1.77058e-06
-1.8069e-06
-1.84382e-06
-1.88133e-06
-1.91941e-06
-1.95807e-06
-1.99728e-06
-2.03702e-06
-2.07728e-06
-2.11803e-06
-2.15924e-06
-2.20087e-06
-2.24288e-06
-2.28523e-06
-2.32788e-06
-2.37078e-06
-2.41389e-06
-2.45718e-06
-2.50067e-06
-2.54436e-06
-2.58836e-06
-2.63277e-06
-2.67779e-06
-2.72365e-06
-2.77058e-06
-2.81883e-06
-2.8686e-06
-2.92004e-06
-2.97326e-06
-3.02835e-06
-3.08536e-06
-3.14437e-06
-3.20545e-06
-3.26864e-06
-3.33406e-06
-3.40192e-06
-3.47258e-06
-3.5496e-06
-3.62516e-06
-3.69898e-06
-3.77407e-06
-3.85067e-06
-3.92883e-06
-4.00857e-06
-4.08993e-06
-4.17295e-06
-4.25765e-06
-4.34407e-06
-4.43224e-06
-4.5222e-06
-4.61399e-06
-4.70764e-06
-4.8032e-06
-4.90069e-06
-5.00016e-06
-5.10165e-06
-5.2052e-06
-5.31085e-06
-5.41865e-06
-5.52863e-06
-5.64085e-06
-5.75534e-06
-5.87216e-06
-5.99135e-06
-6.11296e-06
-6.23704e-06
-6.36363e-06
-6.4928e-06
-6.62458e-06
-6.75904e-06
-6.89623e-06
-7.03621e-06
-7.17903e-06
-7.32474e-06
-7.47341e-06
-7.6251e-06
-7.77987e-06
-7.93778e-06
-8.0989e-06
-8.26329e-06
-8.43101e-06
-8.60214e-06
-8.77674e-06
-8.95488e-06
-9.13664e-06
-9.32209e-06
-9.5113e-06
)
;
    }
    inandouthalf32
    {
        type            cyclic;
        value           nonuniform List<scalar> 
110
(
1.09295e-06
1.11664e-06
1.14081e-06
1.16545e-06
1.19058e-06
1.2162e-06
1.24233e-06
1.26897e-06
1.29613e-06
1.32381e-06
1.35203e-06
1.3808e-06
1.41011e-06
1.43998e-06
1.47041e-06
1.50142e-06
1.533e-06
1.56516e-06
1.59791e-06
1.63125e-06
1.66519e-06
1.69972e-06
1.73485e-06
1.77058e-06
1.8069e-06
1.84382e-06
1.88133e-06
1.91941e-06
1.95807e-06
1.99728e-06
2.03702e-06
2.07728e-06
2.11803e-06
2.15924e-06
2.20087e-06
2.24288e-06
2.28523e-06
2.32788e-06
2.37078e-06
2.41389e-06
2.45718e-06
2.50067e-06
2.54436e-06
2.58836e-06
2.63277e-06
2.67779e-06
2.72365e-06
2.77058e-06
2.81883e-06
2.8686e-06
2.92004e-06
2.97326e-06
3.02835e-06
3.08536e-06
3.14437e-06
3.20545e-06
3.26864e-06
3.33406e-06
3.40192e-06
3.47258e-06
3.5496e-06
3.62516e-06
3.69898e-06
3.77407e-06
3.85067e-06
3.92883e-06
4.00857e-06
4.08993e-06
4.17295e-06
4.25765e-06
4.34407e-06
4.43224e-06
4.5222e-06
4.61399e-06
4.70764e-06
4.8032e-06
4.90069e-06
5.00016e-06
5.10165e-06
5.2052e-06
5.31085e-06
5.41865e-06
5.52863e-06
5.64085e-06
5.75534e-06
5.87216e-06
5.99135e-06
6.11296e-06
6.23704e-06
6.36363e-06
6.4928e-06
6.62458e-06
6.75904e-06
6.89623e-06
7.03621e-06
7.17903e-06
7.32474e-06
7.47341e-06
7.6251e-06
7.77987e-06
7.93778e-06
8.0989e-06
8.26329e-06
8.43101e-06
8.60214e-06
8.77674e-06
8.95488e-06
9.13664e-06
9.32209e-06
9.5113e-06
)
;
    }
    inandouthalf41
    {
        type            cyclic;
        value           nonuniform List<scalar> 
50
(
-8.51359e-06
-8.51359e-06
-8.51359e-06
-8.51359e-06
-8.51359e-06
-8.51359e-06
-8.51359e-06
-8.51359e-06
-8.51359e-06
-8.51359e-06
-8.51359e-06
-8.51359e-06
-8.51359e-06
-8.51359e-06
-8.51359e-06
-8.51359e-06
-8.51359e-06
-8.51359e-06
-8.51359e-06
-8.51359e-06
-8.51359e-06
-8.51359e-06
-8.51359e-06
-8.51359e-06
-8.51359e-06
-8.51359e-06
-8.51359e-06
-8.51359e-06
-8.51359e-06
-8.51359e-06
-8.51359e-06
-8.51359e-06
-8.51359e-06
-8.51359e-06
-8.51359e-06
-8.51359e-06
-8.51359e-06
-8.51359e-06
-8.51359e-06
-8.51359e-06
-8.51359e-06
-8.51359e-06
-8.51359e-06
-8.51359e-06
-8.51359e-06
-8.51359e-06
-8.51359e-06
-8.51359e-06
-8.51359e-06
-8.51359e-06
)
;
    }
    inandouthalf42
    {
        type            cyclic;
        value           nonuniform List<scalar> 
50
(
8.51359e-06
8.51359e-06
8.51359e-06
8.51359e-06
8.51359e-06
8.51359e-06
8.51359e-06
8.51359e-06
8.51359e-06
8.51359e-06
8.51359e-06
8.51359e-06
8.51359e-06
8.51359e-06
8.51359e-06
8.51359e-06
8.51359e-06
8.51359e-06
8.51359e-06
8.51359e-06
8.51359e-06
8.51359e-06
8.51359e-06
8.51359e-06
8.51359e-06
8.51359e-06
8.51359e-06
8.51359e-06
8.51359e-06
8.51359e-06
8.51359e-06
8.51359e-06
8.51359e-06
8.51359e-06
8.51359e-06
8.51359e-06
8.51359e-06
8.51359e-06
8.51359e-06
8.51359e-06
8.51359e-06
8.51359e-06
8.51359e-06
8.51359e-06
8.51359e-06
8.51359e-06
8.51359e-06
8.51359e-06
8.51359e-06
8.51359e-06
)
;
    }
    top
    {
        type            symmetryPlane;
        value           uniform 0;
    }
    walls
    {
        type            calculated;
        value           uniform 0;
    }
    frontAndBackPlanes
    {
        type            empty;
        value           nonuniform 0();
    }
}


// ************************************************************************* //
