/*--------------------------------*- C++ -*----------------------------------*\
| =========                 |                                                 |
| \\      /  F ield         | OpenFOAM: The Open Source CFD Toolbox           |
|  \\    /   O peration     | Version:  2.4.x                                 |
|   \\  /    A nd           | Web:      www.OpenFOAM.org                      |
|    \\/     M anipulation  |                                                 |
\*---------------------------------------------------------------------------*/
FoamFile
{
    version     2.0;
    format      ascii;
    class       volScalarField;
    location    "7.3";
    object      epsilon_0;
}
// * * * * * * * * * * * * * * * * * * * * * * * * * * * * * * * * * * * * * //

dimensions      [0 2 -3 0 0 0 0];

internalField   nonuniform List<scalar> 
360
(
1.60309e-27
1e-20
1e-20
1e-20
1e-20
1e-20
1e-20
1e-20
1e-20
1e-20
1e-20
1e-20
1e-20
1e-20
1e-20
1e-20
1e-20
1e-20
1e-20
1e-20
1e-20
1e-20
1e-20
1e-20
1e-20
1e-20
1e-20
1e-20
1e-20
1e-20
1e-20
1e-20
1e-20
1e-20
1e-20
1e-20
1e-20
1e-20
1e-20
1e-20
1e-20
1e-20
1e-20
1e-20
1e-20
1e-20
1e-20
1e-20
1e-20
1e-20
1e-20
1e-20
1e-20
1e-20
1e-20
1e-20
1e-20
1e-20
1e-20
1e-20
1e-20
1e-20
1e-20
1e-20
1e-20
1e-20
1e-20
1e-20
1e-20
1e-20
1e-20
1e-20
1e-20
1e-20
1e-20
1e-20
1e-20
1e-20
1e-20
1e-20
1e-20
1e-20
1e-20
1e-20
1e-20
1e-20
1e-20
1e-20
1e-20
1e-20
1e-20
1e-20
1e-20
1e-20
1e-20
1e-20
1e-20
1e-20
1e-20
1e-20
1e-20
1e-20
1e-20
1e-20
1e-20
1e-20
1e-20
1e-20
1e-20
1e-20
1e-20
1e-20
1e-20
1e-20
1e-20
1e-20
1e-20
1e-20
1e-20
1e-20
1e-20
1e-20
1e-20
1e-20
1e-20
1e-20
1e-20
1e-20
1e-20
1e-20
1e-20
1e-20
1e-20
2.16264e-20
9.00162e-20
4.12466e-19
2.00029e-18
1.04071e-17
5.97285e-17
3.89317e-16
2.91004e-15
2.45752e-14
2.30021e-13
2.37774e-12
2.77594e-11
3.83746e-10
6.56846e-09
1.40143e-07
3.84323e-06
0.000133881
0.00338267
0.00520796
0.00593996
0.00669396
0.00741835
0.00809643
0.00872355
0.00929882
0.00982286
0.0102971
0.0107233
0.0111036
0.0114404
0.0117358
0.0119923
0.0122123
0.0123979
0.0125516
0.0126754
0.0127715
0.0128417
0.012888
0.0129122
0.0129159
0.0129006
0.012868
0.0128193
0.0127559
0.0126789
0.0125895
0.0124887
0.0123776
0.0122569
0.0121277
0.0119906
0.0118464
0.0116958
0.0115394
0.0113778
0.0112115
0.0110412
0.0108671
0.0106898
0.0105097
0.0103272
0.0101426
0.0099563
0.00976855
0.00957967
0.00938993
0.00919959
0.00900695
0.00881026
0.00860964
0.00840525
0.00819722
0.0079857
0.00777086
0.00755285
0.00733183
0.00710799
0.00688151
0.00665258
0.00642141
0.00618823
0.00595327
0.00571677
0.00547902
0.0052403
0.00500092
0.00476121
0.00452154
0.00428229
0.00404388
0.00380677
0.00357143
0.00333839
0.0031082
0.00288148
0.00265885
0.00244101
0.00222868
0.00202263
0.00182366
0.00163261
0.00145034
0.00127769
0.00111552
0.000964628
0.000825733
0.000699439
0.000586177
0.000486151
0.000399286
0.000325195
0.000263155
0.000212135
0.000170852
0.000137865
0.000111685
9.08816e-05
7.4164e-05
6.04351e-05
4.88167e-05
3.8658e-05
2.95342e-05
2.12421e-05
1.37975e-05
7.43944e-06
2.62937e-06
3.57325e-07
1.40392e-08
3.24931e-10
6.88469e-12
1.37234e-13
2.57471e-15
4.54751e-17
7.6293e-19
1.97128e-20
1e-20
1e-20
1e-20
1e-20
1e-20
1e-20
1e-20
1e-20
1e-20
1e-20
1e-20
1e-20
1e-20
1e-20
1e-20
1e-20
1e-20
1e-20
1e-20
1e-20
1e-20
1e-20
1e-20
1e-20
1e-20
1e-20
1e-20
1e-20
1e-20
1e-20
1e-20
1e-20
1e-20
1e-20
1e-20
1e-20
1e-20
1e-20
1e-20
1e-20
1e-20
1e-20
1e-20
1e-20
1e-20
1e-20
1e-20
1e-20
1e-20
1e-20
1e-20
1e-20
1e-20
1e-20
1e-20
1e-20
1e-20
1e-20
1e-20
1e-20
1e-20
1e-20
1e-20
1e-20
1e-20
1e-20
1e-20
1e-20
1e-20
1e-20
1e-20
1e-20
1e-20
1e-20
1e-20
1e-20
1e-20
1e-20
1e-20
1e-20
1e-20
1e-20
1e-20
1e-20
1e-20
1e-20
1e-20
1e-20
1e-20
1e-20
1e-20
)
;

boundaryField
{
    inandouthalf11
    {
        type            cyclic;
    }
    inandouthalf12
    {
        type            cyclic;
    }
    inandouthalf21
    {
        type            cyclic;
    }
    inandouthalf22
    {
        type            cyclic;
    }
    inandouthalf31
    {
        type            cyclic;
    }
    inandouthalf32
    {
        type            cyclic;
    }
    inandouthalf41
    {
        type            cyclic;
    }
    inandouthalf42
    {
        type            cyclic;
    }
    top
    {
        type            symmetryPlane;
    }
    walls
    {
        type            zeroGradient;
    }
    frontAndBackPlanes
    {
        type            empty;
    }
}


// ************************************************************************* //
