/*--------------------------------*- C++ -*----------------------------------*\
| =========                 |                                                 |
| \\      /  F ield         | OpenFOAM: The Open Source CFD Toolbox           |
|  \\    /   O peration     | Version:  2.4.x                                 |
|   \\  /    A nd           | Web:      www.OpenFOAM.org                      |
|    \\/     M anipulation  |                                                 |
\*---------------------------------------------------------------------------*/
FoamFile
{
    version     2.0;
    format      ascii;
    class       volScalarField;
    location    "7.3";
    object      epsilon;
}
// * * * * * * * * * * * * * * * * * * * * * * * * * * * * * * * * * * * * * //

dimensions      [0 2 -3 0 0 0 0];

internalField   nonuniform List<scalar> 
360
(
1e-20
1e-20
1e-20
1e-20
1e-20
1e-20
1e-20
1e-20
1e-20
1e-20
1e-20
1e-20
1e-20
1e-20
1e-20
1e-20
1e-20
1e-20
1e-20
1e-20
1e-20
1e-20
1e-20
1e-20
1e-20
1e-20
1e-20
1e-20
1e-20
1e-20
1e-20
1e-20
1e-20
1e-20
1e-20
1e-20
1e-20
1e-20
1e-20
1e-20
1e-20
1e-20
1e-20
1e-20
1e-20
1e-20
1e-20
1e-20
1e-20
1e-20
1e-20
1e-20
1e-20
1e-20
1e-20
1e-20
1e-20
1e-20
1e-20
1e-20
1e-20
1e-20
1e-20
1e-20
1e-20
1e-20
1e-20
1e-20
1e-20
1e-20
1e-20
1e-20
1e-20
1e-20
1e-20
1e-20
1e-20
1e-20
1e-20
1e-20
1e-20
1e-20
1e-20
1e-20
1e-20
1e-20
1e-20
1e-20
1e-20
1e-20
1e-20
1e-20
1e-20
1e-20
1e-20
1e-20
1e-20
1e-20
1e-20
1e-20
1e-20
1e-20
1e-20
1e-20
1e-20
1e-20
1e-20
1e-20
1e-20
1e-20
1e-20
1e-20
1e-20
1e-20
1e-20
1e-20
1e-20
1e-20
1e-20
1e-20
1e-20
1e-20
1e-20
1e-20
1e-20
1e-20
1e-20
1e-20
1e-20
1e-20
1e-20
1e-20
1e-20
2.16186e-20
8.99776e-20
4.12273e-19
1.99931e-18
1.04023e-17
5.97076e-17
3.89234e-16
2.90956e-15
2.45681e-14
2.29893e-13
2.37569e-12
2.77302e-11
3.83362e-10
6.56395e-09
1.40118e-07
3.84485e-06
0.00013402
0.0033878
0.00520996
0.00593806
0.00669004
0.00741317
0.00809039
0.00871693
0.00929179
0.00981558
0.0102896
0.0107158
0.0110962
0.0114329
0.0117285
0.0119851
0.0122052
0.0123911
0.012545
0.012669
0.0127653
0.0128358
0.0128823
0.0129067
0.0129106
0.0128956
0.0128632
0.0128147
0.0127515
0.0126747
0.0125855
0.0124849
0.012374
0.0122535
0.0121244
0.0119875
0.0118435
0.011693
0.0115368
0.0113753
0.0112092
0.011039
0.010865
0.0106879
0.0105079
0.0103255
0.010141
0.00995477
0.00976712
0.00957833
0.00938868
0.00919843
0.00900587
0.00880925
0.00860871
0.00840439
0.00819644
0.00798499
0.00777022
0.00755227
0.00733132
0.00710754
0.00688112
0.00665225
0.00642114
0.00618801
0.0059531
0.00571665
0.00547894
0.00524027
0.00500093
0.00476126
0.00452162
0.00428241
0.00404404
0.00380695
0.00357164
0.00333862
0.00310846
0.00288175
0.00265913
0.0024413
0.00222898
0.00202294
0.00182397
0.00163292
0.00145064
0.00127798
0.0011158
0.00096489
0.000825975
0.00069966
0.000586374
0.000486322
0.000399432
0.000325315
0.000263251
0.00021221
0.000170909
0.000137906
0.000111714
9.09013e-05
7.41772e-05
6.0444e-05
4.8823e-05
3.86628e-05
2.95384e-05
2.12461e-05
1.38013e-05
7.44292e-06
2.63188e-06
3.57995e-07
1.40763e-08
3.25837e-10
6.90432e-12
1.37634e-13
2.5824e-15
4.56141e-17
7.65292e-19
1.97497e-20
1e-20
1e-20
1e-20
1e-20
1e-20
1e-20
1e-20
1e-20
1e-20
1e-20
1e-20
1e-20
1e-20
1e-20
1e-20
1e-20
1e-20
1e-20
1e-20
1e-20
1e-20
1e-20
1e-20
1e-20
1e-20
1e-20
1e-20
1e-20
1e-20
1e-20
1e-20
1e-20
1e-20
1e-20
1e-20
1e-20
1e-20
1e-20
1e-20
1e-20
1e-20
1e-20
1e-20
1e-20
1e-20
1e-20
1e-20
1e-20
1e-20
1e-20
1e-20
1e-20
1e-20
1e-20
1e-20
1e-20
1e-20
1e-20
1e-20
1e-20
1e-20
1e-20
1e-20
1e-20
1e-20
1e-20
1e-20
1e-20
1e-20
1e-20
1e-20
1e-20
1e-20
1e-20
1e-20
1e-20
1e-20
1e-20
1e-20
1e-20
1e-20
1e-20
1e-20
1e-20
1e-20
1e-20
1e-20
1e-20
1e-20
1e-20
1e-20
)
;

boundaryField
{
    inandouthalf11
    {
        type            cyclic;
    }
    inandouthalf12
    {
        type            cyclic;
    }
    inandouthalf21
    {
        type            cyclic;
    }
    inandouthalf22
    {
        type            cyclic;
    }
    inandouthalf31
    {
        type            cyclic;
    }
    inandouthalf32
    {
        type            cyclic;
    }
    inandouthalf41
    {
        type            cyclic;
    }
    inandouthalf42
    {
        type            cyclic;
    }
    top
    {
        type            symmetryPlane;
    }
    walls
    {
        type            zeroGradient;
    }
    frontAndBackPlanes
    {
        type            empty;
    }
}


// ************************************************************************* //
