/*--------------------------------*- C++ -*----------------------------------*\
| =========                 |                                                 |
| \\      /  F ield         | OpenFOAM: The Open Source CFD Toolbox           |
|  \\    /   O peration     | Version:  2.4.x                                 |
|   \\  /    A nd           | Web:      www.OpenFOAM.org                      |
|    \\/     M anipulation  |                                                 |
\*---------------------------------------------------------------------------*/
FoamFile
{
    version     2.0;
    format      ascii;
    class       volVectorField;
    location    "7.3";
    object      gradPs;
}
// * * * * * * * * * * * * * * * * * * * * * * * * * * * * * * * * * * * * * //

dimensions      [0 1 -2 0 0 0 0];

internalField   nonuniform List<vector> 
360
(
(0 1.54441e-18 0)
(0 1.68422e-18 0)
(0 -1.9775e-20 0)
(0 -2.38666e-19 0)
(-1.4506e-32 -1.02924e-19 0)
(-1.45064e-32 -5.75449e-20 0)
(-1.45069e-32 -7.16285e-20 0)
(0 -8.08005e-20 0)
(-1.45079e-32 -8.20539e-20 0)
(0 -8.28135e-20 0)
(-2.90181e-32 -8.29392e-20 0)
(0 -8.30603e-20 0)
(-1.45102e-32 -8.36052e-20 0)
(0 -8.41813e-20 0)
(0 -8.50295e-20 0)
(0 -8.58911e-20 0)
(0 -8.6533e-20 0)
(-1.4513e-32 -8.70775e-20 0)
(0 -8.80425e-20 0)
(0 -8.86498e-20 0)
(0 -8.92988e-20 0)
(-1.45154e-32 -9.0342e-20 0)
(0 -9.10338e-20 0)
(0 -9.18917e-20 0)
(0 -9.27859e-20 0)
(-2.90359e-32 -9.3469e-20 0)
(0 -9.44845e-20 0)
(0 -9.5555e-20 0)
(0 -9.62797e-20 0)
(0 -9.7149e-20 0)
(0 -9.84691e-20 0)
(0 -9.90626e-20 0)
(0 -1.00277e-19 0)
(0 -1.01527e-19 0)
(0 -1.02267e-19 0)
(1.45246e-32 -1.03422e-19 0)
(0 -1.04466e-19 0)
(0 -1.0617e-19 0)
(0 -1.06635e-19 0)
(0 -1.07979e-19 0)
(0 -1.09883e-19 0)
(0 -1.10173e-19 0)
(1.45297e-32 -1.11889e-19 0)
(0 -1.13424e-19 0)
(0 -1.14336e-19 0)
(0 -1.16224e-19 0)
(0 -1.16932e-19 0)
(0 -1.18018e-19 0)
(0 -1.20484e-19 0)
(0 -1.21194e-19 0)
(1.4536e-32 -1.222e-19 0)
(0 -1.23994e-19 0)
(0 -1.25386e-19 0)
(0 -1.26433e-19 0)
(0 -1.28183e-19 0)
(0 -1.29558e-19 0)
(0 -1.30815e-19 0)
(0 -1.32797e-19 0)
(0 -1.3335e-19 0)
(0 -1.35515e-19 0)
(0 -1.37113e-19 0)
(0 -1.38438e-19 0)
(0 -1.40521e-19 0)
(0 -1.42091e-19 0)
(0 -1.44029e-19 0)
(0 -1.46181e-19 0)
(0 -1.48733e-19 0)
(0 -1.5094e-19 0)
(0 -1.52742e-19 0)
(0 -1.55566e-19 0)
(0 -1.58972e-19 0)
(0 -1.60618e-19 0)
(0 -1.63302e-19 0)
(0 -1.66661e-19 0)
(0 -1.69641e-19 0)
(0 -1.72553e-19 0)
(0 -1.7516e-19 0)
(0 -1.78476e-19 0)
(0 -1.81598e-19 0)
(0 -1.84244e-19 0)
(0 -1.86962e-19 0)
(0 -1.89923e-19 0)
(0 -1.92589e-19 0)
(0 -1.95276e-19 0)
(0 -1.97997e-19 0)
(0 -2.0079e-19 0)
(0 -2.03584e-19 0)
(0 -2.06326e-19 0)
(0 -2.09292e-19 0)
(0 -2.12357e-19 0)
(0 -2.15459e-19 0)
(0 -2.18765e-19 0)
(0 -2.22254e-19 0)
(0 -2.25837e-19 0)
(0 -2.29573e-19 0)
(0 -2.33473e-19 0)
(0 -2.37527e-19 0)
(0 -2.41758e-19 0)
(0 -2.46202e-19 0)
(0 -2.50867e-19 0)
(0 -2.55758e-19 0)
(0 -2.60901e-19 0)
(0 -2.66296e-19 0)
(0 -2.71942e-19 0)
(0 -2.77853e-19 0)
(0 -2.84045e-19 0)
(0 -2.90531e-19 0)
(0 -2.97331e-19 0)
(0 -3.04463e-19 0)
(0 -3.11942e-19 0)
(0 -3.19783e-19 0)
(0 -3.27999e-19 0)
(0 -3.36604e-19 0)
(0 -3.45612e-19 0)
(0 -3.55034e-19 0)
(0 -3.64883e-19 0)
(0 -3.75174e-19 0)
(0 -3.85927e-19 0)
(0 -3.97172e-19 0)
(0 -4.08948e-19 0)
(0 -4.21312e-19 0)
(0 -4.34331e-19 0)
(0 -4.48097e-19 0)
(0 -4.62733e-19 0)
(0 -4.78426e-19 0)
(0 -4.95465e-19 0)
(0 -5.14232e-19 0)
(0 -5.35089e-19 0)
(0 -5.58102e-19 0)
(0 -5.82754e-19 0)
(0 -6.08209e-19 0)
(0 -6.33973e-19 0)
(0 1.47654e-16 0)
(0 1.03674e-15 0)
(0 4.74772e-15 0)
(0 2.10366e-14 0)
(0 9.7937e-14 0)
(0 4.95044e-13 0)
(0 2.81933e-12 0)
(0 1.8378e-11 0)
(0 1.34617e-10 0)
(0 1.07892e-09 0)
(0 9.35478e-09 0)
(0 8.90067e-08 0)
(0 9.76976e-07 0)
(0 1.31596e-05 0)
(0 0.000239529 0)
(0 0.00747963 0)
(0 0.19499 0)
(0 0.0769927 0)
(0 -0.550482 0)
(0 -0.757013 0)
(0 -0.722977 0)
(0 -0.648125 0)
(0 -0.589771 0)
(0 -0.545704 0)
(0 -0.515747 0)
(0 -0.491909 0)
(0 -0.475243 0)
(0 -0.464591 0)
(0 -0.45862 0)
(0 -0.456285 0)
(0 -0.45675 0)
(0 -0.459357 0)
(0 -0.463575 0)
(0 -0.468979 0)
(0 -0.475222 0)
(0 -0.482015 0)
(0 -0.489114 0)
(0 -0.49631 0)
(0 -0.503421 0)
(0 -0.510288 0)
(0 -0.516772 0)
(0 -0.522755 0)
(0 -0.528138 0)
(0 -0.532839 0)
(0 -0.536797 0)
(0 -0.53997 0)
(0 -0.542333 0)
(0 -0.543878 0)
(0 -0.544612 0)
(0 -0.544555 0)
(0 -0.543742 0)
(0 -0.542213 0)
(0 -0.540022 0)
(0 -0.537226 0)
(0 -0.533893 0)
(0 -0.530093 0)
(0 -0.525904 0)
(0 -0.521408 0)
(0 -0.516691 0)
(0 -0.51184 0)
(0 -0.506937 0)
(0 -0.502046 0)
(0 -0.497209 0)
(0 -0.492455 0)
(0 -0.487818 0)
(0 -0.483366 0)
(0 -0.479192 0)
(0 -0.475367 0)
(0 -0.471947 0)
(0 -0.469077 0)
(-2.93491e-16 -0.467025 0)
(0 -0.465902 0)
(0 -0.465542 0)
(3.38531e-16 -0.465662 0)
(0 -0.465988 0)
(-3.76517e-16 -0.466242 0)
(0 -0.46579 0)
(2.11582e-16 -0.463925 0)
(0 -0.459795 0)
(0 -0.452503 0)
(0 -0.441859 0)
(1.37113e-16 -0.427596 0)
(0 -0.408789 0)
(0 -0.385678 0)
(0 -0.35931 0)
(0 -0.330179 0)
(0 -0.298887 0)
(-9.89388e-17 -0.266618 0)
(0 -0.23502 0)
(-5.40204e-17 -0.204642 0)
(0 -0.175597 0)
(-2.88239e-17 -0.148916 0)
(0 -0.124956 0)
(0 -0.103511 0)
(0 -0.0847796 0)
(0 -0.0686404 0)
(1.54549e-17 -0.0550797 0)
(7.73669e-18 -0.0436048 0)
(0 -0.0342197 0)
(0 -0.026478 0)
(0 -0.0204804 0)
(0 -0.0151628 0)
(0 -0.0108493 0)
(0 -0.0108052 0)
(0 -0.00595196 0)
(0 0 0)
(0 0 0)
(0 0 0)
(0 0 0)
(0 0 0)
(0 0 0)
(0 0 0)
(0 0 0)
(0 0 0)
(0 0 0)
(0 0 0)
(0 0 0)
(0 0 0)
(0 0 0)
(0 0 0)
(0 0 0)
(0 0 0)
(0 0 0)
(0 0 0)
(0 0 0)
(0 0 0)
(0 0 0)
(0 0 0)
(0 0 0)
(0 0 0)
(0 0 0)
(0 0 0)
(0 0 0)
(0 0 0)
(0 0 0)
(0 0 0)
(0 0 0)
(0 0 0)
(0 0 0)
(0 0 0)
(0 0 0)
(0 0 0)
(0 0 0)
(0 0 0)
(0 0 0)
(0 0 0)
(0 0 0)
(0 0 0)
(0 0 0)
(0 0 0)
(0 0 0)
(0 0 0)
(0 0 0)
(0 0 0)
(0 0 0)
(0 0 0)
(0 0 0)
(0 0 0)
(0 0 0)
(0 0 0)
(0 0 0)
(0 0 0)
(0 0 0)
(0 0 0)
(0 0 0)
(0 0 0)
(0 0 0)
(0 0 0)
(0 0 0)
(0 0 0)
(0 0 0)
(0 0 0)
(0 0 0)
(0 0 0)
(0 0 0)
(0 0 0)
(0 0 0)
(0 0 0)
(0 0 0)
(0 0 0)
(0 0 0)
(0 0 0)
(0 0 0)
(0 0 0)
(0 0 0)
(0 0 0)
(0 0 0)
(0 0 0)
(0 0 0)
(0 0 0)
(0 0 0)
(0 0 0)
(0 0 0)
(0 0 0)
(0 0 0)
(0 0 0)
(0 0 0)
(0 0 0)
(0 0 0)
(0 0 0)
(0 0 0)
(0 0 0)
(0 0 0)
(0 0 0)
(0 0 0)
(0 0 0)
(0 0 0)
(0 0 0)
(0 0 0)
(0 0 0)
(0 0 0)
(0 0 0)
(0 0 0)
(0 0 0)
(0 0 0)
(0 0 0)
(0 0 0)
(0 0 0)
(0 0 0)
(0 0 0)
(0 0 0)
(0 0 0)
(0 0 0)
(0 0 0)
(0 0 0)
(0 0 0)
(0 0 0)
(0 0 0)
)
;

boundaryField
{
    inandouthalf11
    {
        type            cyclic;
    }
    inandouthalf12
    {
        type            cyclic;
    }
    inandouthalf21
    {
        type            cyclic;
    }
    inandouthalf22
    {
        type            cyclic;
    }
    inandouthalf31
    {
        type            cyclic;
    }
    inandouthalf32
    {
        type            cyclic;
    }
    inandouthalf41
    {
        type            cyclic;
    }
    inandouthalf42
    {
        type            cyclic;
    }
    top
    {
        type            symmetryPlane;
    }
    walls
    {
        type            calculated;
        value           uniform (0 0 0);
    }
    frontAndBackPlanes
    {
        type            empty;
    }
}


// ************************************************************************* //
