/*--------------------------------*- C++ -*----------------------------------*\
| =========                 |                                                 |
| \\      /  F ield         | OpenFOAM: The Open Source CFD Toolbox           |
|  \\    /   O peration     | Version:  2.4.x                                 |
|   \\  /    A nd           | Web:      www.OpenFOAM.org                      |
|    \\/     M anipulation  |                                                 |
\*---------------------------------------------------------------------------*/
FoamFile
{
    version     2.0;
    format      ascii;
    class       volScalarField;
    location    "7.3";
    object      k;
}
// * * * * * * * * * * * * * * * * * * * * * * * * * * * * * * * * * * * * * //

dimensions      [0 2 -2 0 0 0 0];

internalField   nonuniform List<scalar> 
360
(
1e-20
1e-20
1e-20
1e-20
1e-20
1e-20
1e-20
1e-20
1e-20
1e-20
1e-20
1e-20
1e-20
1e-20
1e-20
1e-20
1e-20
1e-20
1e-20
1e-20
1e-20
1e-20
1e-20
1e-20
1e-20
1e-20
1e-20
1e-20
1e-20
1e-20
1e-20
1e-20
1e-20
1e-20
1e-20
1e-20
1e-20
1e-20
1e-20
1e-20
1e-20
1e-20
1e-20
1e-20
1e-20
1e-20
1e-20
1e-20
1e-20
1e-20
1e-20
1e-20
1e-20
1e-20
1e-20
1e-20
1e-20
1e-20
1e-20
1e-20
1e-20
1e-20
1e-20
1e-20
1e-20
1e-20
1e-20
1e-20
1e-20
1e-20
1e-20
1e-20
1e-20
1e-20
1e-20
1e-20
1e-20
1e-20
1e-20
1e-20
1e-20
1e-20
1e-20
1e-20
1e-20
1e-20
1e-20
1e-20
1e-20
1e-20
1e-20
1e-20
1e-20
1e-20
1e-20
1e-20
1e-20
1e-20
1e-20
1e-20
1e-20
1e-20
1e-20
1e-20
1e-20
1e-20
1e-20
1e-20
1e-20
1e-20
1e-20
1e-20
1e-20
1e-20
1e-20
1e-20
1e-20
1e-20
1e-20
1e-20
1e-20
1e-20
1e-20
1e-20
1e-20
1e-20
1e-20
1e-20
1e-20
1e-20
1e-20
1e-20
1e-20
1.87621e-20
7.14076e-20
3.00419e-19
1.32191e-18
6.13509e-18
3.08903e-17
1.75035e-16
1.13535e-15
8.28814e-15
6.63845e-14
5.76591e-13
5.50402e-12
6.08934e-11
8.36582e-10
1.4018e-08
2.98306e-07
8.1312e-06
0.000248277
0.000847633
0.00138379
0.00181626
0.00218707
0.00251549
0.00281158
0.00308129
0.00332842
0.00355565
0.00376495
0.00395789
0.00413574
0.00429957
0.0044503
0.00458876
0.0047157
0.00483177
0.0049376
0.00503375
0.00512074
0.00519907
0.0052692
0.00533155
0.00538653
0.0054345
0.00547583
0.00551084
0.00553986
0.00556318
0.00558108
0.00559382
0.00560165
0.00560481
0.00560353
0.00559802
0.00558847
0.00557509
0.00555805
0.00553752
0.00551368
0.00548667
0.00545666
0.00542378
0.00538817
0.00534996
0.00530928
0.00526625
0.00522098
0.00517359
0.00512419
0.00507236
0.00501757
0.00495979
0.00489899
0.00483514
0.00476821
0.00469818
0.00462501
0.00454869
0.0044692
0.00438652
0.00430064
0.00421156
0.00411927
0.00402378
0.00392511
0.00382329
0.00371834
0.00361032
0.00349928
0.00338531
0.00326849
0.00314894
0.0030268
0.00290222
0.0027754
0.00264656
0.00251595
0.00238387
0.00225065
0.0021167
0.00198243
0.00184836
0.00171504
0.0015831
0.00145323
0.00132617
0.00120275
0.00108382
0.000970264
0.000862951
0.0007627
0.000670218
0.00058603
0.000510418
0.000443367
0.000384537
0.000333289
0.000288736
0.000249834
0.000215483
0.000184618
0.000156285
0.000129704
0.000104314
7.98261e-05
5.62831e-05
3.4173e-05
1.46278e-05
2.48244e-06
1.08167e-07
2.50161e-09
5.25552e-11
1.03914e-12
1.9348e-14
3.39246e-16
5.6073e-18
9.39368e-20
1.02155e-20
1e-20
1e-20
1e-20
1e-20
1e-20
1e-20
1e-20
1e-20
1e-20
1e-20
1e-20
1e-20
1e-20
1e-20
1e-20
1e-20
1e-20
1e-20
1e-20
1e-20
1e-20
1e-20
1e-20
1e-20
1e-20
1e-20
1e-20
1e-20
1e-20
1e-20
1e-20
1e-20
1e-20
1e-20
1e-20
1e-20
1e-20
1e-20
1e-20
1e-20
1e-20
1e-20
1e-20
1e-20
1e-20
1e-20
1e-20
1e-20
1e-20
1e-20
1e-20
1e-20
1e-20
1e-20
1e-20
1e-20
1e-20
1e-20
1e-20
1e-20
1e-20
1e-20
1e-20
1e-20
1e-20
1e-20
1e-20
1e-20
1e-20
1e-20
1e-20
1e-20
1e-20
1e-20
1e-20
1e-20
1e-20
1e-20
1e-20
1e-20
1e-20
1e-20
1e-20
1e-20
1e-20
1e-20
1e-20
1e-20
1e-20
1e-20
)
;

boundaryField
{
    inandouthalf11
    {
        type            cyclic;
    }
    inandouthalf12
    {
        type            cyclic;
    }
    inandouthalf21
    {
        type            cyclic;
    }
    inandouthalf22
    {
        type            cyclic;
    }
    inandouthalf31
    {
        type            cyclic;
    }
    inandouthalf32
    {
        type            cyclic;
    }
    inandouthalf41
    {
        type            cyclic;
    }
    inandouthalf42
    {
        type            cyclic;
    }
    top
    {
        type            symmetryPlane;
    }
    walls
    {
        type            zeroGradient;
    }
    frontAndBackPlanes
    {
        type            empty;
    }
}


// ************************************************************************* //
