/*--------------------------------*- C++ -*----------------------------------*\
| =========                 |                                                 |
| \\      /  F ield         | OpenFOAM: The Open Source CFD Toolbox           |
|  \\    /   O peration     | Version:  2.4.x                                 |
|   \\  /    A nd           | Web:      www.OpenFOAM.org                      |
|    \\/     M anipulation  |                                                 |
\*---------------------------------------------------------------------------*/
FoamFile
{
    version     2.0;
    format      ascii;
    class       volScalarField;
    location    "7.3";
    object      pa;
}
// * * * * * * * * * * * * * * * * * * * * * * * * * * * * * * * * * * * * * //

dimensions      [1 -1 -2 0 0 0 0];

internalField   nonuniform List<scalar> 
360
(
2.90146e-16
2.92646e-16
2.92876e-16
2.92614e-16
2.92489e-16
2.92447e-16
2.92396e-16
2.92331e-16
2.92265e-16
2.92198e-16
2.92131e-16
2.92064e-16
2.91996e-16
2.91928e-16
2.9186e-16
2.9179e-16
2.91721e-16
2.9165e-16
2.9158e-16
2.91508e-16
2.91436e-16
2.91363e-16
2.9129e-16
2.91216e-16
2.91141e-16
2.91065e-16
2.90989e-16
2.90912e-16
2.90835e-16
2.90756e-16
2.90677e-16
2.90597e-16
2.90517e-16
2.90435e-16
2.90353e-16
2.90269e-16
2.90185e-16
2.901e-16
2.90013e-16
2.89928e-16
2.89839e-16
2.8975e-16
2.8966e-16
2.89569e-16
2.89477e-16
2.89384e-16
2.89289e-16
2.89195e-16
2.89098e-16
2.89e-16
2.88902e-16
2.88802e-16
2.88701e-16
2.88599e-16
2.88497e-16
2.88392e-16
2.88288e-16
2.8818e-16
2.88073e-16
2.87965e-16
2.87854e-16
2.87743e-16
2.8763e-16
2.87516e-16
2.874e-16
2.87283e-16
2.87164e-16
2.87043e-16
2.8692e-16
2.86796e-16
2.86669e-16
2.8654e-16
2.8641e-16
2.86276e-16
2.8614e-16
2.86002e-16
2.85862e-16
2.85719e-16
2.85574e-16
2.85426e-16
2.85276e-16
2.85124e-16
2.8497e-16
2.84813e-16
2.84655e-16
2.84494e-16
2.84331e-16
2.84165e-16
2.83998e-16
2.83828e-16
2.83655e-16
2.8348e-16
2.83303e-16
2.83122e-16
2.82939e-16
2.82752e-16
2.82562e-16
2.82369e-16
2.82173e-16
2.81973e-16
2.81769e-16
2.81561e-16
2.81348e-16
2.81132e-16
2.80911e-16
2.80685e-16
2.80453e-16
2.80217e-16
2.79975e-16
2.79727e-16
2.79473e-16
2.79213e-16
2.78945e-16
2.78671e-16
2.7839e-16
2.78101e-16
2.77803e-16
2.77498e-16
2.77183e-16
2.7686e-16
2.76527e-16
2.76183e-16
2.75829e-16
2.75464e-16
2.75087e-16
2.74696e-16
2.74292e-16
2.73872e-16
2.73434e-16
2.72977e-16
2.72501e-16
2.72003e-16
2.71485e-16
5.08366e-16
1.93054e-15
8.10331e-15
3.55704e-14
1.64654e-13
8.26565e-13
4.66739e-12
3.01626e-11
2.19429e-10
1.75049e-09
1.51258e-08
1.43458e-07
1.56893e-06
2.10306e-05
0.000379747
0.011815
0.307032
0.131904
0.0725755
0.0479955
0.0357847
0.0285962
0.0239042
0.0205495
0.0180292
0.0160501
0.014439
0.0130897
0.0119339
0.0109262
0.010035
0.00923803
0.00851908
0.00786598
0.0072695
0.00672243
0.00621908
0.00575484
0.00532592
0.00492916
0.00456186
0.00422167
0.00390654
0.00361463
0.00334426
0.00309391
0.00286216
0.0026477
0.0024493
0.00226581
0.00209613
0.00193927
0.00179426
0.0016602
0.00153627
0.00142166
0.00131566
0.00121756
0.00112675
0.00104262
0.000964633
0.00089228
0.000825107
0.000762698
0.000704673
0.000650675
0.000600378
0.00055348
0.000509263
0.000467151
0.000427016
0.000388763
0.000352323
0.000317667
0.000284777
0.000253667
0.000224387
0.000197007
0.000171622
0.000148317
0.000127111
0.000108032
9.1096e-05
7.62226e-05
6.32975e-05
5.2189e-05
4.27475e-05
3.47893e-05
2.81106e-05
2.25603e-05
1.7983e-05
1.42217e-05
1.11521e-05
8.66791e-06
6.66462e-06
5.06743e-06
3.78892e-06
2.79388e-06
2.00012e-06
1.40346e-06
9.15602e-07
5.94237e-07
3.28274e-07
0
0
0
0
0
0
0
0
0
0
0
0
0
0
0
0
0
0
0
0
0
0
0
0
0
0
0
0
0
0
0
0
0
0
0
0
0
0
0
0
0
0
0
0
0
0
0
0
0
0
0
0
0
0
0
0
0
0
0
0
0
0
0
0
0
0
0
0
0
0
0
0
0
0
0
0
0
0
0
0
0
0
0
0
0
0
0
0
0
0
0
0
0
0
0
0
0
0
0
0
0
0
0
0
0
0
0
0
0
0
0
0
0
0
0
0
0
0
0
0
0
0
0
0
)
;

boundaryField
{
    inandouthalf11
    {
        type            cyclic;
    }
    inandouthalf12
    {
        type            cyclic;
    }
    inandouthalf21
    {
        type            cyclic;
    }
    inandouthalf22
    {
        type            cyclic;
    }
    inandouthalf31
    {
        type            cyclic;
    }
    inandouthalf32
    {
        type            cyclic;
    }
    inandouthalf41
    {
        type            cyclic;
    }
    inandouthalf42
    {
        type            cyclic;
    }
    top
    {
        type            symmetryPlane;
    }
    walls
    {
        type            calculated;
        value           uniform 2.90146e-16;
    }
    frontAndBackPlanes
    {
        type            empty;
    }
}


// ************************************************************************* //
