/*--------------------------------*- C++ -*----------------------------------*\
| =========                 |                                                 |
| \\      /  F ield         | OpenFOAM: The Open Source CFD Toolbox           |
|  \\    /   O peration     | Version:  2.4.x                                 |
|   \\  /    A nd           | Web:      www.OpenFOAM.org                      |
|    \\/     M anipulation  |                                                 |
\*---------------------------------------------------------------------------*/
FoamFile
{
    version     2.0;
    format      ascii;
    class       surfaceScalarField;
    location    "7.3";
    object      phia;
}
// * * * * * * * * * * * * * * * * * * * * * * * * * * * * * * * * * * * * * //

dimensions      [0 3 -1 0 0 0 0];

internalField   nonuniform List<scalar> 
359
(
-2.23765e-13
-5.68322e-13
-8.79618e-13
-1.1711e-12
-1.46751e-12
-1.76983e-12
-2.07367e-12
-2.37748e-12
-2.68143e-12
-2.98621e-12
-3.29223e-12
-3.59955e-12
-3.90815e-12
-4.21799e-12
-4.5291e-12
-4.84159e-12
-5.15556e-12
-5.47105e-12
-5.78811e-12
-6.10683e-12
-6.42713e-12
-6.74912e-12
-7.07279e-12
-7.39817e-12
-7.72527e-12
-8.05407e-12
-8.38454e-12
-8.71674e-12
-9.05064e-12
-9.38619e-12
-9.72335e-12
-1.00622e-11
-1.04025e-11
-1.07445e-11
-1.10879e-11
-1.14327e-11
-1.17789e-11
-1.21264e-11
-1.24752e-11
-1.28251e-11
-1.31761e-11
-1.3528e-11
-1.38807e-11
-1.42343e-11
-1.45885e-11
-1.49433e-11
-1.52985e-11
-1.5654e-11
-1.60099e-11
-1.63662e-11
-1.67228e-11
-1.70797e-11
-1.74368e-11
-1.77944e-11
-1.81522e-11
-1.85106e-11
-1.88691e-11
-1.92282e-11
-1.95876e-11
-1.99474e-11
-2.03079e-11
-2.06691e-11
-2.10312e-11
-2.1394e-11
-2.17574e-11
-2.21212e-11
-2.24851e-11
-2.28487e-11
-2.32116e-11
-2.35734e-11
-2.39338e-11
-2.42927e-11
-2.46492e-11
-2.50032e-11
-2.53541e-11
-2.57012e-11
-2.60438e-11
-2.63811e-11
-2.67126e-11
-2.70376e-11
-2.73559e-11
-2.76672e-11
-2.79716e-11
-2.8269e-11
-2.85597e-11
-2.88436e-11
-2.9121e-11
-2.9392e-11
-2.96567e-11
-2.99153e-11
-3.01683e-11
-3.0416e-11
-3.0659e-11
-3.08978e-11
-3.11331e-11
-3.13655e-11
-3.15956e-11
-3.1824e-11
-3.20512e-11
-3.22777e-11
-3.2504e-11
-3.27306e-11
-3.29579e-11
-3.31863e-11
-3.34161e-11
-3.36478e-11
-3.38815e-11
-3.41175e-11
-3.4356e-11
-3.45972e-11
-3.48412e-11
-3.5088e-11
-3.53378e-11
-3.55905e-11
-3.58462e-11
-3.61049e-11
-3.63665e-11
-3.6631e-11
-3.68986e-11
-3.7169e-11
-3.74425e-11
-3.77188e-11
-3.79978e-11
-3.82791e-11
-3.85622e-11
-3.88459e-11
-3.91291e-11
-3.94098e-11
-3.96853e-11
-3.99524e-11
-4.02071e-11
-4.04453e-11
-4.06639e-11
-4.08614e-11
-4.10381e-11
-4.11955e-11
-4.13364e-11
-4.14659e-11
-4.15902e-11
-4.1713e-11
-4.18284e-11
-4.1919e-11
-4.19777e-11
-4.20065e-11
-4.20157e-11
-4.20168e-11
-4.58327e-11
-5.54108e-11
-7.36205e-11
-1.88741e-10
-2.73443e-09
-6.31722e-09
-1.05242e-08
-1.52068e-08
-1.96847e-08
-2.37497e-08
-2.72915e-08
-3.02756e-08
-3.2747e-08
-3.47645e-08
-3.63896e-08
-3.76812e-08
-3.86926e-08
-3.94709e-08
-4.00567e-08
-4.04852e-08
-4.07861e-08
-4.09847e-08
-4.11023e-08
-4.11568e-08
-4.11629e-08
-4.11325e-08
-4.10754e-08
-4.09991e-08
-4.09093e-08
-4.081e-08
-4.07041e-08
-4.05931e-08
-4.04776e-08
-4.03573e-08
-4.02314e-08
-4.00986e-08
-3.99571e-08
-3.9805e-08
-3.964e-08
-3.94601e-08
-3.92629e-08
-3.90464e-08
-3.88085e-08
-3.85476e-08
-3.82619e-08
-3.79505e-08
-3.76122e-08
-3.72467e-08
-3.68538e-08
-3.64339e-08
-3.59877e-08
-3.55164e-08
-3.50214e-08
-3.45047e-08
-3.39687e-08
-3.34045e-08
-3.2814e-08
-3.21998e-08
-3.15652e-08
-3.09142e-08
-3.02513e-08
-2.95813e-08
-2.89097e-08
-2.82417e-08
-2.75825e-08
-2.69369e-08
-2.63088e-08
-2.57015e-08
-2.51176e-08
-2.45582e-08
-2.40236e-08
-2.35138e-08
-2.30277e-08
-2.25638e-08
-2.21201e-08
-2.16956e-08
-2.12886e-08
-2.08974e-08
-2.05212e-08
-2.01595e-08
-1.98113e-08
-1.9478e-08
-1.91575e-08
-1.8857e-08
-1.85691e-08
-1.83163e-08
-1.80682e-08
-1.79108e-08
-1.77455e-08
-1.74815e-08
-1.32499e-08
-8.52569e-09
-6.34134e-09
-2.22397e-09
-1.66343e-09
2.83603e-09
-8.29772e-08
-1.54e-07
-1.583e-07
-1.58225e-07
-1.58201e-07
-1.58177e-07
-1.58153e-07
-1.58135e-07
-1.58121e-07
-1.58111e-07
-1.58103e-07
-1.58098e-07
-1.58094e-07
-1.5809e-07
-1.58085e-07
-1.58077e-07
-1.58063e-07
-1.58031e-07
-1.57995e-07
-1.57989e-07
-1.5799e-07
-1.5799e-07
-1.5799e-07
-1.5799e-07
-1.5799e-07
-1.5799e-07
-1.5799e-07
-1.5799e-07
-1.5799e-07
-1.5799e-07
-1.5799e-07
-1.5799e-07
-1.5799e-07
-1.5799e-07
-1.5799e-07
-1.5799e-07
-1.5799e-07
-1.5799e-07
-1.5799e-07
-1.5799e-07
-1.5799e-07
-1.5799e-07
-1.5799e-07
-1.5799e-07
-1.5799e-07
-1.5799e-07
-1.5799e-07
-1.5799e-07
-1.5799e-07
-1.5799e-07
-1.5799e-07
-1.5799e-07
-1.5799e-07
-1.5799e-07
-1.5799e-07
-1.5799e-07
-1.5799e-07
-1.5799e-07
-1.5799e-07
-1.5799e-07
-1.5799e-07
-1.5799e-07
-1.5799e-07
-1.5799e-07
-1.5799e-07
-1.5799e-07
-1.5799e-07
-1.5799e-07
-1.5799e-07
-1.5799e-07
-1.5799e-07
-1.5799e-07
-1.5799e-07
-1.5799e-07
-1.5799e-07
-1.5799e-07
-1.5799e-07
-1.5799e-07
-1.5799e-07
-1.5799e-07
-1.5799e-07
-1.5799e-07
-1.5799e-07
-1.5799e-07
-1.5799e-07
-1.5799e-07
-1.5799e-07
-1.5799e-07
-1.5799e-07
-1.5799e-07
-1.5799e-07
-1.5799e-07
-1.5799e-07
-1.5799e-07
-1.5799e-07
-1.5799e-07
-1.5799e-07
-1.5799e-07
-1.5799e-07
-1.5799e-07
-1.5799e-07
-1.5799e-07
-1.5799e-07
-1.5799e-07
-1.5799e-07
-1.5799e-07
-1.5799e-07
-1.5799e-07
-1.5799e-07
-1.5799e-07
-1.5799e-07
-1.5799e-07
-1.5799e-07
-1.57989e-07
-1.57972e-07
-1.57263e-07
-1.3228e-07
)
;

boundaryField
{
    inandouthalf11
    {
        type            cyclic;
        value           nonuniform List<scalar> 
100
(
-6.44549e-40
-7.54011e-16
-1.35798e-15
-1.70952e-15
-1.88557e-15
-1.88797e-15
-1.70901e-15
-1.34901e-15
-8.08701e-16
-8.72855e-17
8.16933e-16
1.90563e-15
3.18001e-15
4.64106e-15
6.2899e-15
8.12815e-15
1.01578e-14
1.23809e-14
1.47995e-14
1.74156e-14
2.02312e-14
2.32484e-14
2.64696e-14
2.98968e-14
3.35325e-14
3.73786e-14
4.14371e-14
4.57105e-14
5.02011e-14
5.49106e-14
5.9841e-14
6.49944e-14
7.03724e-14
7.5977e-14
8.18101e-14
8.78726e-14
9.41653e-14
1.0069e-13
1.07448e-13
1.14439e-13
1.21664e-13
1.29122e-13
1.36813e-13
1.44737e-13
1.52894e-13
1.61283e-13
1.69904e-13
1.78752e-13
1.87828e-13
1.97137e-13
2.06677e-13
2.16449e-13
2.26454e-13
2.36696e-13
2.47174e-13
2.57893e-13
2.68853e-13
2.80058e-13
2.91509e-13
3.03209e-13
3.15164e-13
3.27384e-13
3.39873e-13
3.52635e-13
3.6567e-13
3.78974e-13
3.9254e-13
4.06359e-13
4.20417e-13
4.34698e-13
4.4919e-13
4.63884e-13
4.78758e-13
4.9379e-13
5.0896e-13
5.2424e-13
5.39591e-13
5.54973e-13
5.70346e-13
5.85673e-13
6.00922e-13
6.16067e-13
6.31091e-13
6.45979e-13
6.60725e-13
6.75319e-13
6.89756e-13
7.0403e-13
7.18134e-13
7.32068e-13
7.45835e-13
7.59445e-13
7.72914e-13
7.86264e-13
7.99522e-13
8.12717e-13
8.25879e-13
8.39041e-13
8.52232e-13
8.65486e-13
)
;
    }
    inandouthalf12
    {
        type            cyclic;
        value           nonuniform List<scalar> 
100
(
6.44549e-40
7.54011e-16
1.35798e-15
1.70952e-15
1.88557e-15
1.88797e-15
1.70901e-15
1.34901e-15
8.08701e-16
8.72855e-17
-8.16933e-16
-1.90563e-15
-3.18001e-15
-4.64106e-15
-6.2899e-15
-8.12815e-15
-1.01578e-14
-1.23809e-14
-1.47995e-14
-1.74156e-14
-2.02312e-14
-2.32484e-14
-2.64696e-14
-2.98968e-14
-3.35325e-14
-3.73786e-14
-4.14371e-14
-4.57105e-14
-5.02011e-14
-5.49106e-14
-5.9841e-14
-6.49944e-14
-7.03724e-14
-7.5977e-14
-8.18101e-14
-8.78726e-14
-9.41653e-14
-1.0069e-13
-1.07448e-13
-1.14439e-13
-1.21664e-13
-1.29122e-13
-1.36813e-13
-1.44737e-13
-1.52894e-13
-1.61283e-13
-1.69904e-13
-1.78752e-13
-1.87828e-13
-1.97137e-13
-2.06677e-13
-2.16449e-13
-2.26454e-13
-2.36696e-13
-2.47174e-13
-2.57893e-13
-2.68853e-13
-2.80058e-13
-2.91509e-13
-3.03209e-13
-3.15164e-13
-3.27384e-13
-3.39873e-13
-3.52635e-13
-3.6567e-13
-3.78974e-13
-3.9254e-13
-4.06359e-13
-4.20417e-13
-4.34698e-13
-4.4919e-13
-4.63884e-13
-4.78758e-13
-4.9379e-13
-5.0896e-13
-5.2424e-13
-5.39591e-13
-5.54973e-13
-5.70346e-13
-5.85673e-13
-6.00922e-13
-6.16067e-13
-6.31091e-13
-6.45979e-13
-6.60725e-13
-6.75319e-13
-6.89756e-13
-7.0403e-13
-7.18134e-13
-7.32068e-13
-7.45835e-13
-7.59445e-13
-7.72914e-13
-7.86264e-13
-7.99522e-13
-8.12717e-13
-8.25879e-13
-8.39041e-13
-8.52232e-13
-8.65486e-13
)
;
    }
    inandouthalf21
    {
        type            cyclic;
        value           nonuniform List<scalar> 
100
(
8.78833e-13
8.92307e-13
9.0594e-13
9.19765e-13
9.33816e-13
9.48125e-13
9.62726e-13
9.7765e-13
9.9293e-13
1.0086e-12
1.02468e-12
1.04122e-12
1.05824e-12
1.07578e-12
1.09386e-12
1.11253e-12
1.13183e-12
1.15179e-12
1.17247e-12
1.19392e-12
1.21621e-12
1.23939e-12
1.26353e-12
1.28871e-12
1.31495e-12
1.3423e-12
1.37075e-12
1.40023e-12
1.43061e-12
1.46165e-12
1.49297e-12
1.52406e-12
1.55439e-12
1.58352e-12
1.61118e-12
1.6373e-12
1.66202e-12
1.68591e-12
1.70998e-12
1.73542e-12
1.76225e-12
1.78791e-12
1.80831e-12
1.82057e-12
1.82514e-12
1.82612e-12
1.82593e-12
6.48446e-13
-2.70699e-12
-1.42069e-11
-3.02101e-08
-5.57096e-08
-6.13348e-08
-6.19327e-08
-6.0713e-08
-5.83939e-08
-5.54947e-08
-5.22195e-08
-4.86852e-08
-4.49658e-08
-4.11115e-08
-3.71585e-08
-3.31339e-08
-2.90591e-08
-2.49513e-08
-2.08246e-08
-1.66908e-08
-1.25601e-08
-8.4412e-09
-4.34182e-09
-2.68657e-10
3.77232e-09
7.77578e-09
1.17369e-08
1.56515e-08
1.95155e-08
2.33255e-08
2.70783e-08
3.07709e-08
3.44008e-08
3.79654e-08
4.14626e-08
4.48905e-08
4.8247e-08
5.15306e-08
5.47397e-08
5.78729e-08
6.09288e-08
6.39064e-08
6.68043e-08
6.96217e-08
7.23575e-08
7.50109e-08
7.75809e-08
8.00669e-08
8.2468e-08
8.47835e-08
8.70127e-08
8.91549e-08
9.12094e-08
)
;
    }
    inandouthalf22
    {
        type            cyclic;
        value           nonuniform List<scalar> 
100
(
-8.78833e-13
-8.92307e-13
-9.0594e-13
-9.19765e-13
-9.33816e-13
-9.48125e-13
-9.62726e-13
-9.7765e-13
-9.9293e-13
-1.0086e-12
-1.02468e-12
-1.04122e-12
-1.05824e-12
-1.07578e-12
-1.09386e-12
-1.11253e-12
-1.13183e-12
-1.15179e-12
-1.17247e-12
-1.19392e-12
-1.21621e-12
-1.23939e-12
-1.26353e-12
-1.28871e-12
-1.31495e-12
-1.3423e-12
-1.37075e-12
-1.40023e-12
-1.43061e-12
-1.46165e-12
-1.49297e-12
-1.52406e-12
-1.55439e-12
-1.58352e-12
-1.61118e-12
-1.6373e-12
-1.66202e-12
-1.68591e-12
-1.70998e-12
-1.73542e-12
-1.76225e-12
-1.78791e-12
-1.80831e-12
-1.82057e-12
-1.82514e-12
-1.82612e-12
-1.82593e-12
-6.48446e-13
2.70699e-12
1.42069e-11
3.02101e-08
5.57096e-08
6.13348e-08
6.19327e-08
6.0713e-08
5.83939e-08
5.54947e-08
5.22195e-08
4.86852e-08
4.49658e-08
4.11115e-08
3.71585e-08
3.31339e-08
2.90591e-08
2.49513e-08
2.08246e-08
1.66908e-08
1.25601e-08
8.4412e-09
4.34182e-09
2.68657e-10
-3.77232e-09
-7.77578e-09
-1.17369e-08
-1.56515e-08
-1.95155e-08
-2.33255e-08
-2.70783e-08
-3.07709e-08
-3.44008e-08
-3.79654e-08
-4.14626e-08
-4.48905e-08
-4.8247e-08
-5.15306e-08
-5.47397e-08
-5.78729e-08
-6.09288e-08
-6.39064e-08
-6.68043e-08
-6.96217e-08
-7.23575e-08
-7.50109e-08
-7.75809e-08
-8.00669e-08
-8.2468e-08
-8.47835e-08
-8.70127e-08
-8.91549e-08
-9.12094e-08
)
;
    }
    inandouthalf31
    {
        type            cyclic;
        value           nonuniform List<scalar> 
110
(
9.31759e-08
9.70023e-08
1.00892e-07
1.04843e-07
1.08854e-07
1.12925e-07
1.17053e-07
1.21237e-07
1.25476e-07
1.29771e-07
1.34119e-07
1.38523e-07
1.42984e-07
1.47502e-07
1.52081e-07
1.56725e-07
1.61437e-07
1.66223e-07
1.71088e-07
1.76038e-07
1.81078e-07
1.86216e-07
1.91458e-07
1.9681e-07
2.02277e-07
2.07865e-07
2.13579e-07
2.19421e-07
2.25393e-07
2.31494e-07
2.37719e-07
2.44059e-07
2.50495e-07
2.5701e-07
2.63538e-07
2.69959e-07
2.76674e-07
4.82525e-07
4.97265e-07
5.12472e-07
5.27351e-07
5.42273e-07
5.57043e-07
5.68002e-07
5.81664e-07
5.95725e-07
6.09126e-07
6.22098e-07
6.34799e-07
6.47075e-07
6.59e-07
6.70606e-07
6.81941e-07
6.9306e-07
7.04034e-07
7.14949e-07
7.25914e-07
7.37066e-07
7.48589e-07
7.60743e-07
7.74598e-07
7.90024e-07
8.06046e-07
8.22407e-07
8.39099e-07
8.5613e-07
8.73507e-07
8.91237e-07
9.09327e-07
9.27784e-07
9.46615e-07
9.65829e-07
9.85433e-07
1.00543e-06
1.02584e-06
1.04666e-06
1.06791e-06
1.08958e-06
1.1117e-06
1.13426e-06
1.15729e-06
1.18078e-06
1.20474e-06
1.2292e-06
1.25415e-06
1.2796e-06
1.30557e-06
1.33207e-06
1.35911e-06
1.3867e-06
1.41484e-06
1.44356e-06
1.47286e-06
1.50276e-06
1.53326e-06
1.56438e-06
1.59613e-06
1.62853e-06
1.66159e-06
1.69531e-06
1.72972e-06
1.76483e-06
1.80065e-06
1.8372e-06
1.87449e-06
1.91254e-06
1.95136e-06
1.99096e-06
2.03138e-06
2.07261e-06
)
;
    }
    inandouthalf32
    {
        type            cyclic;
        value           nonuniform List<scalar> 
110
(
-9.31759e-08
-9.70023e-08
-1.00892e-07
-1.04843e-07
-1.08854e-07
-1.12925e-07
-1.17053e-07
-1.21237e-07
-1.25476e-07
-1.29771e-07
-1.34119e-07
-1.38523e-07
-1.42984e-07
-1.47502e-07
-1.52081e-07
-1.56725e-07
-1.61437e-07
-1.66223e-07
-1.71088e-07
-1.76038e-07
-1.81078e-07
-1.86216e-07
-1.91458e-07
-1.9681e-07
-2.02277e-07
-2.07865e-07
-2.13579e-07
-2.19421e-07
-2.25393e-07
-2.31494e-07
-2.37719e-07
-2.44059e-07
-2.50495e-07
-2.5701e-07
-2.63538e-07
-2.69959e-07
-2.76674e-07
-4.82525e-07
-4.97265e-07
-5.12472e-07
-5.27351e-07
-5.42273e-07
-5.57043e-07
-5.68002e-07
-5.81664e-07
-5.95725e-07
-6.09126e-07
-6.22098e-07
-6.34799e-07
-6.47075e-07
-6.59e-07
-6.70606e-07
-6.81941e-07
-6.9306e-07
-7.04034e-07
-7.14949e-07
-7.25914e-07
-7.37066e-07
-7.48589e-07
-7.60743e-07
-7.74598e-07
-7.90024e-07
-8.06046e-07
-8.22407e-07
-8.39099e-07
-8.5613e-07
-8.73507e-07
-8.91237e-07
-9.09327e-07
-9.27784e-07
-9.46615e-07
-9.65829e-07
-9.85433e-07
-1.00543e-06
-1.02584e-06
-1.04666e-06
-1.06791e-06
-1.08958e-06
-1.1117e-06
-1.13426e-06
-1.15729e-06
-1.18078e-06
-1.20474e-06
-1.2292e-06
-1.25415e-06
-1.2796e-06
-1.30557e-06
-1.33207e-06
-1.35911e-06
-1.3867e-06
-1.41484e-06
-1.44356e-06
-1.47286e-06
-1.50276e-06
-1.53326e-06
-1.56438e-06
-1.59613e-06
-1.62853e-06
-1.66159e-06
-1.69531e-06
-1.72972e-06
-1.76483e-06
-1.80065e-06
-1.8372e-06
-1.87449e-06
-1.91254e-06
-1.95136e-06
-1.99096e-06
-2.03138e-06
-2.07261e-06
)
;
    }
    inandouthalf41
    {
        type            cyclic;
        value           nonuniform List<scalar> 
50
(
1.85519e-06
1.85519e-06
1.85519e-06
1.85519e-06
1.85519e-06
1.85519e-06
1.85519e-06
1.85519e-06
1.85519e-06
1.85519e-06
1.85519e-06
1.85519e-06
1.85519e-06
1.85519e-06
1.85519e-06
1.85519e-06
1.85519e-06
1.85519e-06
1.85519e-06
1.85519e-06
1.85519e-06
1.85519e-06
1.85519e-06
1.85519e-06
1.85519e-06
1.85519e-06
1.85519e-06
1.85519e-06
1.85519e-06
1.85519e-06
1.85519e-06
1.85519e-06
1.85519e-06
1.85519e-06
1.85519e-06
1.85519e-06
1.85519e-06
1.85519e-06
1.85519e-06
1.85519e-06
1.85519e-06
1.85519e-06
1.85519e-06
1.85519e-06
1.85519e-06
1.85519e-06
1.85519e-06
1.8552e-06
1.85544e-06
1.8608e-06
)
;
    }
    inandouthalf42
    {
        type            cyclic;
        value           nonuniform List<scalar> 
50
(
-1.85519e-06
-1.85519e-06
-1.85519e-06
-1.85519e-06
-1.85519e-06
-1.85519e-06
-1.85519e-06
-1.85519e-06
-1.85519e-06
-1.85519e-06
-1.85519e-06
-1.85519e-06
-1.85519e-06
-1.85519e-06
-1.85519e-06
-1.85519e-06
-1.85519e-06
-1.85519e-06
-1.85519e-06
-1.85519e-06
-1.85519e-06
-1.85519e-06
-1.85519e-06
-1.85519e-06
-1.85519e-06
-1.85519e-06
-1.85519e-06
-1.85519e-06
-1.85519e-06
-1.85519e-06
-1.85519e-06
-1.85519e-06
-1.85519e-06
-1.85519e-06
-1.85519e-06
-1.85519e-06
-1.85519e-06
-1.85519e-06
-1.85519e-06
-1.85519e-06
-1.85519e-06
-1.85519e-06
-1.85519e-06
-1.85519e-06
-1.85519e-06
-1.85519e-06
-1.85519e-06
-1.8552e-06
-1.85544e-06
-1.8608e-06
)
;
    }
    top
    {
        type            symmetryPlane;
        value           uniform 0;
    }
    walls
    {
        type            fixedValue;
        value           uniform 0;
    }
    frontAndBackPlanes
    {
        type            empty;
        value           nonuniform 0();
    }
}


// ************************************************************************* //
