/*--------------------------------*- C++ -*----------------------------------*\
| =========                 |                                                 |
| \\      /  F ield         | OpenFOAM: The Open Source CFD Toolbox           |
|  \\    /   O peration     | Version:  2.4.x                                 |
|   \\  /    A nd           | Web:      www.OpenFOAM.org                      |
|    \\/     M anipulation  |                                                 |
\*---------------------------------------------------------------------------*/
FoamFile
{
    version     2.0;
    format      ascii;
    class       surfaceScalarField;
    location    "7.3";
    object      phib;
}
// * * * * * * * * * * * * * * * * * * * * * * * * * * * * * * * * * * * * * //

dimensions      [0 3 -1 0 0 0 0];

internalField   nonuniform List<scalar> 
359
(
3.51754e-13
8.95114e-13
1.38546e-12
1.84407e-12
2.31049e-12
2.78628e-12
3.26435e-12
3.74225e-12
4.22027e-12
4.69949e-12
5.18058e-12
5.6636e-12
6.14856e-12
6.63535e-12
7.12404e-12
7.61478e-12
8.10774e-12
8.603e-12
9.1006e-12
9.6007e-12
1.01032e-11
1.06082e-11
1.11157e-11
1.16258e-11
1.21384e-11
1.26536e-11
1.31713e-11
1.36916e-11
1.42145e-11
1.47397e-11
1.52674e-11
1.57976e-11
1.63299e-11
1.68646e-11
1.74015e-11
1.79405e-11
1.84814e-11
1.90242e-11
1.9569e-11
2.01151e-11
2.06629e-11
2.12121e-11
2.17622e-11
2.23135e-11
2.28657e-11
2.34185e-11
2.3972e-11
2.45256e-11
2.50795e-11
2.5634e-11
2.61886e-11
2.67436e-11
2.72988e-11
2.78544e-11
2.84102e-11
2.89665e-11
2.95231e-11
3.00801e-11
3.06375e-11
3.11952e-11
3.17538e-11
3.23132e-11
3.28737e-11
3.34351e-11
3.39973e-11
3.45596e-11
3.51219e-11
3.56835e-11
3.62437e-11
3.68018e-11
3.73576e-11
3.79106e-11
3.84596e-11
3.90044e-11
3.95438e-11
4.00773e-11
4.06033e-11
4.11207e-11
4.16286e-11
4.21263e-11
4.2613e-11
4.30886e-11
4.35529e-11
4.40061e-11
4.44484e-11
4.48799e-11
4.53007e-11
4.57113e-11
4.61116e-11
4.65022e-11
4.68836e-11
4.72563e-11
4.76213e-11
4.79794e-11
4.83315e-11
4.86787e-11
4.90218e-11
4.93618e-11
4.96994e-11
5.00355e-11
5.03707e-11
5.07058e-11
5.10414e-11
5.1378e-11
5.17163e-11
5.20567e-11
5.23997e-11
5.27454e-11
5.30943e-11
5.34466e-11
5.38023e-11
5.41616e-11
5.45246e-11
5.48911e-11
5.52612e-11
5.56349e-11
5.6012e-11
5.63926e-11
5.67765e-11
5.71637e-11
5.75541e-11
5.79476e-11
5.83437e-11
5.87419e-11
5.91411e-11
5.95397e-11
5.99355e-11
6.03255e-11
6.07056e-11
6.10705e-11
6.14141e-11
6.17301e-11
6.20133e-11
6.2261e-11
6.24733e-11
6.26527e-11
6.28035e-11
6.29311e-11
6.30417e-11
6.31411e-11
6.32276e-11
6.32697e-11
6.32395e-11
6.31325e-11
6.2904e-11
6.23362e-11
6.74456e-11
8.11465e-11
1.06384e-10
1.13071e-10
3.08099e-10
1.9877e-10
1.62859e-10
1.44892e-10
1.30244e-10
1.17462e-10
1.05893e-10
9.54e-11
8.5945e-11
7.74498e-11
6.98288e-11
6.29982e-11
5.68779e-11
5.1394e-11
4.64791e-11
4.20725e-11
3.812e-11
3.45726e-11
3.13872e-11
2.85248e-11
2.59508e-11
2.36345e-11
2.15482e-11
1.96673e-11
1.79699e-11
1.64364e-11
1.50494e-11
1.37932e-11
1.2654e-11
1.16194e-11
1.06784e-11
9.82134e-12
9.03944e-12
8.32502e-12
7.67124e-12
7.07201e-12
6.52193e-12
6.01622e-12
5.55059e-12
5.12126e-12
4.72483e-12
4.3583e-12
4.01899e-12
3.70452e-12
3.4128e-12
3.14197e-12
2.8904e-12
2.65659e-12
2.4392e-12
2.23701e-12
2.04891e-12
1.87044e-12
1.70126e-12
1.54104e-12
1.38957e-12
1.24675e-12
1.11253e-12
9.86903e-13
8.69935e-13
7.61733e-13
6.62425e-13
5.72109e-13
4.90699e-13
4.17993e-13
3.53781e-13
2.97668e-13
2.49066e-13
2.07342e-13
1.71845e-13
1.41878e-13
1.1668e-13
9.55918e-14
7.80565e-14
6.35222e-14
5.15036e-14
4.16148e-14
3.35026e-14
2.68763e-14
2.14612e-14
1.7074e-14
1.35049e-14
1.06437e-14
8.27791e-15
6.50405e-15
5.22519e-15
4.0271e-15
2.36167e-15
1.07121e-15
5.03312e-16
1.13501e-16
5.04834e-17
-2.02178e-17
1.07707e-16
1.00752e-17
9.78666e-18
9.52481e-18
9.22938e-18
8.96138e-18
8.65877e-18
8.38001e-18
8.06725e-18
7.77615e-18
7.45182e-18
7.14595e-18
6.8099e-18
6.49319e-18
6.15308e-18
5.83071e-18
5.48768e-18
5.16264e-18
4.82801e-18
4.51714e-18
4.20825e-18
3.93899e-18
3.69887e-18
3.49797e-18
3.32561e-18
3.15932e-18
3.00791e-18
2.86784e-18
2.73066e-18
2.60102e-18
2.49151e-18
2.38693e-18
2.28311e-18
2.17484e-18
2.0732e-18
1.96581e-18
1.85764e-18
1.74722e-18
1.65799e-18
1.56831e-18
1.48095e-18
1.38719e-18
1.29811e-18
1.20438e-18
1.07131e-18
9.7123e-19
8.77843e-19
7.81435e-19
6.85093e-19
5.86282e-19
4.92154e-19
3.96807e-19
3.06949e-19
2.25831e-19
2.3261e-19
2.13834e-19
2.02555e-19
1.38131e-19
1.33902e-19
1.29192e-19
1.25426e-19
1.21242e-19
1.2241e-19
1.22453e-19
1.23372e-19
1.22239e-19
1.23153e-19
1.21919e-19
1.20657e-19
1.18583e-19
1.22677e-19
1.25283e-19
1.28309e-19
1.29102e-19
1.32007e-19
1.32686e-19
1.33329e-19
1.33141e-19
1.39305e-19
1.44336e-19
1.49883e-19
1.54202e-19
1.66772e-19
1.79286e-19
2.01931e-19
2.35797e-19
3.7691e-19
5.28826e-19
6.90649e-19
8.52123e-19
1.02207e-18
1.1911e-18
1.36109e-18
1.5296e-18
1.70794e-18
1.88693e-18
2.06736e-18
2.24744e-18
2.43998e-18
2.62577e-18
2.82355e-18
3.01241e-18
3.36117e-18
3.67787e-18
4.00572e-18
4.26753e-18
4.61184e-18
4.83455e-18
5.08368e-18
5.36445e-18
5.69217e-18
5.92598e-18
6.18362e-18
6.56294e-18
6.23669e-18
7.21311e-18
9.54301e-18
)
;

boundaryField
{
    inandouthalf11
    {
        type            cyclic;
        value           nonuniform List<scalar> 
100
(
-2.25369e-10
-2.24215e-10
-2.24023e-10
-2.24181e-10
-2.24267e-10
-2.24299e-10
-2.24332e-10
-2.24374e-10
-2.24416e-10
-2.24459e-10
-2.24503e-10
-2.24546e-10
-2.2459e-10
-2.24633e-10
-2.24677e-10
-2.24721e-10
-2.24765e-10
-2.24809e-10
-2.24854e-10
-2.24899e-10
-2.24944e-10
-2.2499e-10
-2.25035e-10
-2.25081e-10
-2.25128e-10
-2.25174e-10
-2.25221e-10
-2.25268e-10
-2.25316e-10
-2.25363e-10
-2.25411e-10
-2.2546e-10
-2.25508e-10
-2.25557e-10
-2.25606e-10
-2.25656e-10
-2.25706e-10
-2.25756e-10
-2.25807e-10
-2.25858e-10
-2.2591e-10
-2.25962e-10
-2.26013e-10
-2.26066e-10
-2.26119e-10
-2.26173e-10
-2.26227e-10
-2.26281e-10
-2.26336e-10
-2.26392e-10
-2.26448e-10
-2.26505e-10
-2.26561e-10
-2.26619e-10
-2.26677e-10
-2.26737e-10
-2.26795e-10
-2.26856e-10
-2.26916e-10
-2.26977e-10
-2.2704e-10
-2.27102e-10
-2.27166e-10
-2.2723e-10
-2.27294e-10
-2.2736e-10
-2.27426e-10
-2.27494e-10
-2.27561e-10
-2.2763e-10
-2.277e-10
-2.27771e-10
-2.27842e-10
-2.27916e-10
-2.2799e-10
-2.28066e-10
-2.28142e-10
-2.2822e-10
-2.28299e-10
-2.2838e-10
-2.28462e-10
-2.28546e-10
-2.28632e-10
-2.28719e-10
-2.28809e-10
-2.289e-10
-2.28993e-10
-2.29089e-10
-2.29186e-10
-2.29286e-10
-2.29387e-10
-2.29491e-10
-2.29598e-10
-2.29707e-10
-2.29818e-10
-2.29933e-10
-2.3005e-10
-2.30169e-10
-2.30292e-10
-2.30417e-10
)
;
    }
    inandouthalf12
    {
        type            cyclic;
        value           nonuniform List<scalar> 
100
(
2.25369e-10
2.24215e-10
2.24023e-10
2.24181e-10
2.24267e-10
2.24299e-10
2.24332e-10
2.24374e-10
2.24416e-10
2.24459e-10
2.24503e-10
2.24546e-10
2.2459e-10
2.24633e-10
2.24677e-10
2.24721e-10
2.24765e-10
2.24809e-10
2.24854e-10
2.24899e-10
2.24944e-10
2.2499e-10
2.25035e-10
2.25081e-10
2.25128e-10
2.25174e-10
2.25221e-10
2.25268e-10
2.25316e-10
2.25363e-10
2.25411e-10
2.2546e-10
2.25508e-10
2.25557e-10
2.25606e-10
2.25656e-10
2.25706e-10
2.25756e-10
2.25807e-10
2.25858e-10
2.2591e-10
2.25962e-10
2.26013e-10
2.26066e-10
2.26119e-10
2.26173e-10
2.26227e-10
2.26281e-10
2.26336e-10
2.26392e-10
2.26448e-10
2.26505e-10
2.26561e-10
2.26619e-10
2.26677e-10
2.26737e-10
2.26795e-10
2.26856e-10
2.26916e-10
2.26977e-10
2.2704e-10
2.27102e-10
2.27166e-10
2.2723e-10
2.27294e-10
2.2736e-10
2.27426e-10
2.27494e-10
2.27561e-10
2.2763e-10
2.277e-10
2.27771e-10
2.27842e-10
2.27916e-10
2.2799e-10
2.28066e-10
2.28142e-10
2.2822e-10
2.28299e-10
2.2838e-10
2.28462e-10
2.28546e-10
2.28632e-10
2.28719e-10
2.28809e-10
2.289e-10
2.28993e-10
2.29089e-10
2.29186e-10
2.29286e-10
2.29387e-10
2.29491e-10
2.29598e-10
2.29707e-10
2.29818e-10
2.29933e-10
2.3005e-10
2.30169e-10
2.30292e-10
2.30417e-10
)
;
    }
    inandouthalf21
    {
        type            cyclic;
        value           nonuniform List<scalar> 
100
(
-2.30545e-10
-2.30677e-10
-2.30811e-10
-2.30949e-10
-2.31091e-10
-2.31235e-10
-2.31384e-10
-2.31536e-10
-2.31692e-10
-2.31852e-10
-2.32017e-10
-2.32186e-10
-2.3236e-10
-2.32538e-10
-2.32722e-10
-2.32911e-10
-2.33105e-10
-2.33306e-10
-2.33512e-10
-2.33725e-10
-2.33944e-10
-2.34171e-10
-2.34404e-10
-2.34646e-10
-2.34895e-10
-2.35153e-10
-2.3542e-10
-2.35697e-10
-2.35986e-10
-2.36288e-10
-2.36603e-10
-2.36933e-10
-2.3728e-10
-2.3765e-10
-2.38045e-10
-2.38468e-10
-2.38914e-10
-2.39391e-10
-2.39924e-10
-2.40538e-10
-2.41202e-10
-2.41838e-10
-2.42614e-10
-2.43639e-10
-2.44934e-10
-2.47435e-10
-2.54058e-10
-2.56863e-10
-2.63699e-10
-3.94992e-10
-4.3888e-08
-6.61409e-08
-7.0384e-08
-7.05878e-08
-6.92238e-08
-6.70142e-08
-6.42699e-08
-6.11565e-08
-5.77758e-08
-5.41959e-08
-5.04652e-08
-4.66198e-08
-4.26875e-08
-3.869e-08
-3.46446e-08
-3.05655e-08
-2.64641e-08
-2.23501e-08
-1.82313e-08
-1.41144e-08
-1.00049e-08
-5.90752e-09
-1.82623e-09
2.23563e-09
6.27526e-09
1.02902e-08
1.42786e-08
1.82386e-08
2.21688e-08
2.6068e-08
2.99352e-08
3.37696e-08
3.75704e-08
4.13372e-08
4.50695e-08
4.87668e-08
5.2429e-08
5.60557e-08
5.96469e-08
6.32025e-08
6.67223e-08
7.02064e-08
7.36547e-08
7.70672e-08
8.04441e-08
8.37853e-08
8.7091e-08
9.03612e-08
9.35959e-08
9.67954e-08
)
;
    }
    inandouthalf22
    {
        type            cyclic;
        value           nonuniform List<scalar> 
100
(
2.30545e-10
2.30677e-10
2.30811e-10
2.30949e-10
2.31091e-10
2.31235e-10
2.31384e-10
2.31536e-10
2.31692e-10
2.31852e-10
2.32017e-10
2.32186e-10
2.3236e-10
2.32538e-10
2.32722e-10
2.32911e-10
2.33105e-10
2.33306e-10
2.33512e-10
2.33725e-10
2.33944e-10
2.34171e-10
2.34404e-10
2.34646e-10
2.34895e-10
2.35153e-10
2.3542e-10
2.35697e-10
2.35986e-10
2.36288e-10
2.36603e-10
2.36933e-10
2.3728e-10
2.3765e-10
2.38045e-10
2.38468e-10
2.38914e-10
2.39391e-10
2.39924e-10
2.40538e-10
2.41202e-10
2.41838e-10
2.42614e-10
2.43639e-10
2.44934e-10
2.47435e-10
2.54058e-10
2.56863e-10
2.63699e-10
3.94992e-10
4.3888e-08
6.61409e-08
7.0384e-08
7.05878e-08
6.92238e-08
6.70142e-08
6.42699e-08
6.11565e-08
5.77758e-08
5.41959e-08
5.04652e-08
4.66198e-08
4.26875e-08
3.869e-08
3.46446e-08
3.05655e-08
2.64641e-08
2.23501e-08
1.82313e-08
1.41144e-08
1.00049e-08
5.90752e-09
1.82623e-09
-2.23563e-09
-6.27526e-09
-1.02902e-08
-1.42786e-08
-1.82386e-08
-2.21688e-08
-2.6068e-08
-2.99352e-08
-3.37696e-08
-3.75704e-08
-4.13372e-08
-4.50695e-08
-4.87668e-08
-5.2429e-08
-5.60557e-08
-5.96469e-08
-6.32025e-08
-6.67223e-08
-7.02064e-08
-7.36547e-08
-7.70672e-08
-8.04441e-08
-8.37853e-08
-8.7091e-08
-9.03612e-08
-9.35959e-08
-9.67954e-08
)
;
    }
    inandouthalf31
    {
        type            cyclic;
        value           nonuniform List<scalar> 
110
(
9.996e-08
1.05214e-07
1.10669e-07
1.16332e-07
1.22208e-07
1.28304e-07
1.34625e-07
1.4118e-07
1.47973e-07
1.55012e-07
1.62303e-07
1.69853e-07
1.77667e-07
1.85752e-07
1.94114e-07
2.0276e-07
2.11694e-07
2.20922e-07
2.3045e-07
2.40282e-07
2.50422e-07
2.60873e-07
2.7164e-07
2.82723e-07
2.94124e-07
3.05842e-07
3.17877e-07
3.30225e-07
3.42881e-07
3.55838e-07
3.69088e-07
3.82617e-07
3.96411e-07
4.1045e-07
4.24712e-07
4.39167e-07
4.53784e-07
4.68523e-07
4.83339e-07
4.98184e-07
5.13e-07
5.27728e-07
5.42304e-07
5.56665e-07
5.70751e-07
5.84512e-07
5.97905e-07
6.10907e-07
6.23509e-07
6.35717e-07
6.47553e-07
6.5905e-07
6.70252e-07
6.81214e-07
6.92005e-07
7.02708e-07
7.13429e-07
7.243e-07
7.35499e-07
7.47283e-07
7.60464e-07
7.75502e-07
7.91225e-07
8.07284e-07
8.23669e-07
8.40388e-07
8.57445e-07
8.74849e-07
8.92606e-07
9.10723e-07
9.29209e-07
9.48069e-07
9.67312e-07
9.86946e-07
1.00698e-06
1.02742e-06
1.04827e-06
1.06955e-06
1.09126e-06
1.11341e-06
1.13601e-06
1.15906e-06
1.18259e-06
1.20659e-06
1.23108e-06
1.25607e-06
1.28157e-06
1.30758e-06
1.33412e-06
1.3612e-06
1.38883e-06
1.41702e-06
1.44578e-06
1.47512e-06
1.50507e-06
1.53561e-06
1.56678e-06
1.59858e-06
1.63103e-06
1.66414e-06
1.69791e-06
1.73238e-06
1.76754e-06
1.80342e-06
1.84002e-06
1.87737e-06
1.91547e-06
1.95435e-06
1.99402e-06
2.03449e-06
)
;
    }
    inandouthalf32
    {
        type            cyclic;
        value           nonuniform List<scalar> 
110
(
-9.996e-08
-1.05214e-07
-1.10669e-07
-1.16332e-07
-1.22208e-07
-1.28304e-07
-1.34625e-07
-1.4118e-07
-1.47973e-07
-1.55012e-07
-1.62303e-07
-1.69853e-07
-1.77667e-07
-1.85752e-07
-1.94114e-07
-2.0276e-07
-2.11694e-07
-2.20922e-07
-2.3045e-07
-2.40282e-07
-2.50422e-07
-2.60873e-07
-2.7164e-07
-2.82723e-07
-2.94124e-07
-3.05842e-07
-3.17877e-07
-3.30225e-07
-3.42881e-07
-3.55838e-07
-3.69088e-07
-3.82617e-07
-3.96411e-07
-4.1045e-07
-4.24712e-07
-4.39167e-07
-4.53784e-07
-4.68523e-07
-4.83339e-07
-4.98184e-07
-5.13e-07
-5.27728e-07
-5.42304e-07
-5.56665e-07
-5.70751e-07
-5.84512e-07
-5.97905e-07
-6.10907e-07
-6.23509e-07
-6.35717e-07
-6.47553e-07
-6.5905e-07
-6.70252e-07
-6.81214e-07
-6.92005e-07
-7.02708e-07
-7.13429e-07
-7.243e-07
-7.35499e-07
-7.47283e-07
-7.60464e-07
-7.75502e-07
-7.91225e-07
-8.07284e-07
-8.23669e-07
-8.40388e-07
-8.57445e-07
-8.74849e-07
-8.92606e-07
-9.10723e-07
-9.29209e-07
-9.48069e-07
-9.67312e-07
-9.86946e-07
-1.00698e-06
-1.02742e-06
-1.04827e-06
-1.06955e-06
-1.09126e-06
-1.11341e-06
-1.13601e-06
-1.15906e-06
-1.18259e-06
-1.20659e-06
-1.23108e-06
-1.25607e-06
-1.28157e-06
-1.30758e-06
-1.33412e-06
-1.3612e-06
-1.38883e-06
-1.41702e-06
-1.44578e-06
-1.47512e-06
-1.50507e-06
-1.53561e-06
-1.56678e-06
-1.59858e-06
-1.63103e-06
-1.66414e-06
-1.69791e-06
-1.73238e-06
-1.76754e-06
-1.80342e-06
-1.84002e-06
-1.87737e-06
-1.91547e-06
-1.95435e-06
-1.99402e-06
-2.03449e-06
)
;
    }
    inandouthalf41
    {
        type            cyclic;
        value           nonuniform List<scalar> 
50
(
1.82108e-06
1.82108e-06
1.82108e-06
1.82108e-06
1.82108e-06
1.82108e-06
1.82108e-06
1.82108e-06
1.82108e-06
1.82108e-06
1.82108e-06
1.82108e-06
1.82108e-06
1.82108e-06
1.82108e-06
1.82108e-06
1.82108e-06
1.82108e-06
1.82108e-06
1.82108e-06
1.82108e-06
1.82108e-06
1.82108e-06
1.82108e-06
1.82108e-06
1.82108e-06
1.82108e-06
1.82108e-06
1.82108e-06
1.82108e-06
1.82108e-06
1.82108e-06
1.82108e-06
1.82108e-06
1.82108e-06
1.82108e-06
1.82108e-06
1.82108e-06
1.82108e-06
1.82108e-06
1.82108e-06
1.82108e-06
1.82108e-06
1.82108e-06
1.82108e-06
1.82108e-06
1.82108e-06
1.82108e-06
1.82108e-06
1.82108e-06
)
;
    }
    inandouthalf42
    {
        type            cyclic;
        value           nonuniform List<scalar> 
50
(
-1.82108e-06
-1.82108e-06
-1.82108e-06
-1.82108e-06
-1.82108e-06
-1.82108e-06
-1.82108e-06
-1.82108e-06
-1.82108e-06
-1.82108e-06
-1.82108e-06
-1.82108e-06
-1.82108e-06
-1.82108e-06
-1.82108e-06
-1.82108e-06
-1.82108e-06
-1.82108e-06
-1.82108e-06
-1.82108e-06
-1.82108e-06
-1.82108e-06
-1.82108e-06
-1.82108e-06
-1.82108e-06
-1.82108e-06
-1.82108e-06
-1.82108e-06
-1.82108e-06
-1.82108e-06
-1.82108e-06
-1.82108e-06
-1.82108e-06
-1.82108e-06
-1.82108e-06
-1.82108e-06
-1.82108e-06
-1.82108e-06
-1.82108e-06
-1.82108e-06
-1.82108e-06
-1.82108e-06
-1.82108e-06
-1.82108e-06
-1.82108e-06
-1.82108e-06
-1.82108e-06
-1.82108e-06
-1.82108e-06
-1.82108e-06
)
;
    }
    top
    {
        type            symmetryPlane;
        value           uniform 0;
    }
    walls
    {
        type            fixedValue;
        value           uniform 0;
    }
    frontAndBackPlanes
    {
        type            empty;
        value           nonuniform 0();
    }
}


// ************************************************************************* //
