/*--------------------------------*- C++ -*----------------------------------*\
| =========                 |                                                 |
| \\      /  F ield         | OpenFOAM: The Open Source CFD Toolbox           |
|  \\    /   O peration     | Version:  2.4.x                                 |
|   \\  /    A nd           | Web:      www.OpenFOAM.org                      |
|    \\/     M anipulation  |                                                 |
\*---------------------------------------------------------------------------*/
FoamFile
{
    version     2.0;
    format      ascii;
    class       volTensorField;
    location    "7.3";
    object      Tauf;
}
// * * * * * * * * * * * * * * * * * * * * * * * * * * * * * * * * * * * * * //

dimensions      [0 2 -2 0 0 0 0];

internalField   nonuniform List<tensor> 
360
(
(0 4.49583e-07 0 4.49583e-07 3.9576e-10 0 0 0 0)
(0 -1.34585e-09 0 -1.34585e-09 4.83865e-10 0 0 0 0)
(0 -3.40676e-11 0 -3.40676e-11 4.9784e-10 0 0 0 0)
(0 2.44799e-10 0 2.44799e-10 4.68632e-10 0 0 0 0)
(-5.16988e-23 1.18109e-10 0 1.18109e-10 4.66756e-10 0 0 0 0)
(-5.16988e-23 6.49593e-11 0 6.49593e-11 4.73947e-10 0 0 0 0)
(-5.16988e-23 7.50914e-11 0 7.50914e-11 4.77457e-10 0 0 0 0)
(0 8.39307e-11 0 8.39307e-11 4.77984e-10 0 0 0 0)
(-5.16988e-23 8.55806e-11 0 8.55806e-11 4.7829e-10 0 0 0 0)
(0 8.66378e-11 0 8.66378e-11 4.79387e-10 0 0 0 0)
(-2.58494e-23 8.67274e-11 0 8.67274e-11 4.81104e-10 0 0 0 0)
(0 8.65593e-11 0 8.65593e-11 4.83021e-10 0 0 0 0)
(-5.16988e-23 8.67543e-11 0 8.67543e-11 4.84932e-10 0 0 0 0)
(0 8.70263e-11 0 8.70263e-11 4.86804e-10 0 0 0 0)
(0 8.76683e-11 0 8.76683e-11 4.88725e-10 0 0 0 0)
(0 8.83618e-11 0 8.83618e-11 4.90783e-10 0 0 0 0)
(0 8.87942e-11 0 8.87942e-11 4.92981e-10 0 0 0 0)
(-2.58494e-23 8.90942e-11 0 8.90942e-11 4.95269e-10 0 0 0 0)
(0 8.98216e-11 0 8.98216e-11 4.97642e-10 0 0 0 0)
(0 9.01418e-11 0 9.01418e-11 5.00065e-10 0 0 0 0)
(0 9.0503e-11 0 9.0503e-11 5.02505e-10 0 0 0 0)
(-2.58494e-23 9.12966e-11 0 9.12966e-11 5.04998e-10 0 0 0 0)
(0 9.17039e-11 0 9.17039e-11 5.07534e-10 0 0 0 0)
(0 9.22615e-11 0 9.22615e-11 5.1009e-10 0 0 0 0)
(0 9.2836e-11 0 9.2836e-11 5.12653e-10 0 0 0 0)
(-5.16988e-23 9.31809e-11 0 9.31809e-11 5.1519e-10 0 0 0 0)
(0 9.38986e-11 0 9.38986e-11 5.17723e-10 0 0 0 0)
(0 9.46627e-11 0 9.46627e-11 5.20276e-10 0 0 0 0)
(0 9.50149e-11 0 9.50149e-11 5.22798e-10 0 0 0 0)
(0 9.55194e-11 0 9.55194e-11 5.25254e-10 0 0 0 0)
(0 9.65077e-11 0 9.65077e-11 5.27697e-10 0 0 0 0)
(0 9.67069e-11 0 9.67069e-11 5.30068e-10 0 0 0 0)
(0 9.75766e-11 0 9.75766e-11 5.32391e-10 0 0 0 0)
(0 9.84645e-11 0 9.84645e-11 5.34685e-10 0 0 0 0)
(0 9.87559e-11 0 9.87559e-11 5.36868e-10 0 0 0 0)
(5.16988e-23 9.94915e-11 0 9.94915e-11 5.38939e-10 0 0 0 0)
(0 1.00159e-10 0 1.00159e-10 5.409e-10 0 0 0 0)
(0 1.01503e-10 0 1.01503e-10 5.42839e-10 0 0 0 0)
(0 1.01454e-10 0 1.01454e-10 5.44608e-10 0 0 0 0)
(0 1.02372e-10 0 1.02372e-10 5.4621e-10 0 0 0 0)
(0 1.03887e-10 0 1.03887e-10 5.47748e-10 0 0 0 0)
(0 1.0362e-10 0 1.0362e-10 5.4904e-10 0 0 0 0)
(5.16988e-23 1.04932e-10 0 1.04932e-10 5.50179e-10 0 0 0 0)
(0 1.06091e-10 0 1.06091e-10 5.51223e-10 0 0 0 0)
(0 1.06541e-10 0 1.06541e-10 5.52088e-10 0 0 0 0)
(0 1.0799e-10 0 1.0799e-10 5.52835e-10 0 0 0 0)
(0 1.08158e-10 0 1.08158e-10 5.53336e-10 0 0 0 0)
(0 1.08878e-10 0 1.08878e-10 5.53631e-10 0 0 0 0)
(0 1.11208e-10 0 1.11208e-10 5.54021e-10 0 0 0 0)
(0 1.11558e-10 0 1.11558e-10 5.54389e-10 0 0 0 0)
(5.16988e-23 1.12178e-10 0 1.12178e-10 5.54674e-10 0 0 0 0)
(0 1.13731e-10 0 1.13731e-10 5.54955e-10 0 0 0 0)
(0 1.14864e-10 0 1.14864e-10 5.55258e-10 0 0 0 0)
(0 1.15611e-10 0 1.15611e-10 5.55539e-10 0 0 0 0)
(0 1.17139e-10 0 1.17139e-10 5.55876e-10 0 0 0 0)
(0 1.18248e-10 0 1.18248e-10 5.56239e-10 0 0 0 0)
(0 1.19216e-10 0 1.19216e-10 5.56581e-10 0 0 0 0)
(0 1.20954e-10 0 1.20954e-10 5.57007e-10 0 0 0 0)
(0 1.21189e-10 0 1.21189e-10 5.57345e-10 0 0 0 0)
(0 1.23294e-10 0 1.23294e-10 5.57865e-10 0 0 0 0)
(0 1.24821e-10 0 1.24821e-10 5.58595e-10 0 0 0 0)
(0 1.25953e-10 0 1.25953e-10 5.59478e-10 0 0 0 0)
(0 1.27773e-10 0 1.27773e-10 5.6048e-10 0 0 0 0)
(0 1.28874e-10 0 1.28874e-10 5.61365e-10 0 0 0 0)
(0 1.3025e-10 0 1.3025e-10 5.62002e-10 0 0 0 0)
(0 1.31816e-10 0 1.31816e-10 5.62271e-10 0 0 0 0)
(0 1.33743e-10 0 1.33743e-10 5.62124e-10 0 0 0 0)
(0 1.35179e-10 0 1.35179e-10 5.6142e-10 0 0 0 0)
(0 1.36203e-10 0 1.36203e-10 5.60013e-10 0 0 0 0)
(0 1.38544e-10 0 1.38544e-10 5.58041e-10 0 0 0 0)
(0 1.41552e-10 0 1.41552e-10 5.55692e-10 0 0 0 0)
(0 1.4249e-10 0 1.4249e-10 5.52662e-10 0 0 0 0)
(0 1.44568e-10 0 1.44568e-10 5.4894e-10 0 0 0 0)
(0 1.4747e-10 0 1.4747e-10 5.44523e-10 0 0 0 0)
(0 1.49888e-10 0 1.49888e-10 5.39293e-10 0 0 0 0)
(0 1.52114e-10 0 1.52114e-10 5.33089e-10 0 0 0 0)
(0 1.54065e-10 0 1.54065e-10 5.25691e-10 0 0 0 0)
(0 1.57039e-10 0 1.57039e-10 5.17201e-10 0 0 0 0)
(0 1.60076e-10 0 1.60076e-10 5.07749e-10 0 0 0 0)
(0 1.62853e-10 0 1.62853e-10 4.9749e-10 0 0 0 0)
(0 1.66018e-10 0 1.66018e-10 4.86661e-10 0 0 0 0)
(0 1.69741e-10 0 1.69741e-10 4.75554e-10 0 0 0 0)
(0 1.73326e-10 0 1.73326e-10 4.64362e-10 0 0 0 0)
(0 1.77036e-10 0 1.77036e-10 4.53251e-10 0 0 0 0)
(0 1.80842e-10 0 1.80842e-10 4.4229e-10 0 0 0 0)
(0 1.84753e-10 0 1.84753e-10 4.31516e-10 0 0 0 0)
(0 1.88678e-10 0 1.88678e-10 4.20939e-10 0 0 0 0)
(0 1.92578e-10 0 1.92578e-10 4.10558e-10 0 0 0 0)
(0 1.96793e-10 0 1.96793e-10 4.00452e-10 0 0 0 0)
(0 2.01198e-10 0 2.01198e-10 3.90724e-10 0 0 0 0)
(0 2.05714e-10 0 2.05714e-10 3.81503e-10 0 0 0 0)
(0 2.10512e-10 0 2.10512e-10 3.72946e-10 0 0 0 0)
(0 2.15534e-10 0 2.15534e-10 3.65187e-10 0 0 0 0)
(0 2.20641e-10 0 2.20641e-10 3.58318e-10 0 0 0 0)
(0 2.25866e-10 0 2.25866e-10 3.5239e-10 0 0 0 0)
(0 2.31198e-10 0 2.31198e-10 3.47409e-10 0 0 0 0)
(0 2.36617e-10 0 2.36617e-10 3.43349e-10 0 0 0 0)
(0 2.42145e-10 0 2.42145e-10 3.40165e-10 0 0 0 0)
(0 2.4783e-10 0 2.4783e-10 3.37809e-10 0 0 0 0)
(0 2.53686e-10 0 2.53686e-10 3.3623e-10 0 0 0 0)
(0 2.59727e-10 0 2.59727e-10 3.35383e-10 0 0 0 0)
(0 2.65983e-10 0 2.65983e-10 3.35225e-10 0 0 0 0)
(0 2.72458e-10 0 2.72458e-10 3.35712e-10 0 0 0 0)
(0 2.79147e-10 0 2.79147e-10 3.36791e-10 0 0 0 0)
(0 2.86069e-10 0 2.86069e-10 3.38407e-10 0 0 0 0)
(0 2.9324e-10 0 2.9324e-10 3.40497e-10 0 0 0 0)
(0 3.00678e-10 0 3.00678e-10 3.42995e-10 0 0 0 0)
(0 3.08409e-10 0 3.08409e-10 3.45832e-10 0 0 0 0)
(0 3.16456e-10 0 3.16456e-10 3.48944e-10 0 0 0 0)
(0 3.2484e-10 0 3.2484e-10 3.52265e-10 0 0 0 0)
(0 3.33585e-10 0 3.33585e-10 3.55736e-10 0 0 0 0)
(0 3.4271e-10 0 3.4271e-10 3.59301e-10 0 0 0 0)
(0 3.52238e-10 0 3.52238e-10 3.6291e-10 0 0 0 0)
(0 3.62191e-10 0 3.62191e-10 3.6652e-10 0 0 0 0)
(0 3.72591e-10 0 3.72591e-10 3.70099e-10 0 0 0 0)
(0 3.8346e-10 0 3.8346e-10 3.73628e-10 0 0 0 0)
(0 3.94822e-10 0 3.94822e-10 3.77098e-10 0 0 0 0)
(0 4.06704e-10 0 4.06704e-10 3.80509e-10 0 0 0 0)
(0 4.19134e-10 0 4.19134e-10 3.83864e-10 0 0 0 0)
(0 4.32141e-10 0 4.32141e-10 3.87156e-10 0 0 0 0)
(0 4.45755e-10 0 4.45755e-10 3.90344e-10 0 0 0 0)
(0 4.60007e-10 0 4.60007e-10 3.93333e-10 0 0 0 0)
(0 4.74939e-10 0 4.74939e-10 3.9594e-10 0 0 0 0)
(0 4.90631e-10 0 4.90631e-10 3.97878e-10 0 0 0 0)
(0 5.07256e-10 0 5.07256e-10 3.98743e-10 0 0 0 0)
(0 5.25122e-10 0 5.25122e-10 3.98004e-10 0 0 0 0)
(0 5.44676e-10 0 5.44676e-10 3.94997e-10 0 0 0 0)
(0 5.66376e-10 0 5.66376e-10 3.88896e-10 0 0 0 0)
(0 5.9045e-10 0 5.9045e-10 3.78701e-10 0 0 0 0)
(0 6.16739e-10 0 6.16739e-10 3.63335e-10 0 0 0 0)
(0 6.45166e-10 0 6.45166e-10 3.41957e-10 0 0 0 0)
(0 6.77168e-10 0 6.77168e-10 3.14515e-10 0 0 0 0)
(0 7.16406e-10 0 7.16406e-10 2.82264e-10 0 0 0 0)
(0 7.65082e-10 0 7.65082e-10 2.47613e-10 0 0 0 0)
(0 8.18208e-10 0 8.18208e-10 2.13049e-10 0 0 0 0)
(0 8.68621e-10 0 8.68621e-10 1.80359e-10 0 0 0 0)
(0 9.23489e-10 0 9.23489e-10 1.51113e-10 0 0 0 0)
(0 1.00987e-09 0 1.00987e-09 1.27482e-10 0 0 0 0)
(0 1.14637e-09 0 1.14637e-09 1.12195e-10 0 0 0 0)
(0 1.27788e-09 0 1.27788e-09 1.02619e-10 0 0 0 0)
(0 1.30032e-09 0 1.30032e-09 7.60001e-11 0 0 0 0)
(0 1.41237e-09 0 1.41237e-09 2.65995e-11 0 0 0 0)
(0 1.80063e-09 0 1.80063e-09 -3.50316e-11 0 0 0 0)
(0 2.32033e-09 0 2.32033e-09 -1.47442e-10 0 0 0 0)
(0 3.79622e-09 0 3.79622e-09 -4.14525e-10 0 0 0 0)
(0 9.12358e-09 0 9.12358e-09 1.07931e-09 0 0 0 0)
(0 9.42852e-09 0 9.42852e-09 5.70286e-09 0 0 0 0)
(0 9.6423e-09 0 9.6423e-09 1.70851e-08 0 0 0 0)
(0 1.38416e-07 0 1.38416e-07 -7.82354e-09 0 0 0 0)
(0 4.55613e-05 0 4.55613e-05 7.09129e-08 0 0 0 0)
(0 0.000173409 0 0.000173409 3.16798e-07 0 0 0 0)
(0 0.00035535 0 0.00035535 -5.57036e-07 0 0 0 0)
(0 0.000133508 0 0.000133508 -2.18549e-06 0 0 0 0)
(0 -5.26502e-05 0 -5.26502e-05 -3.23916e-07 0 0 0 0)
(0 -0.000211096 0 -0.000211096 -8.58226e-07 0 0 0 0)
(0 -0.000353664 0 -0.000353664 -9.40435e-07 0 0 0 0)
(0 -0.000483945 0 -0.000483945 -9.64006e-07 0 0 0 0)
(0 -0.000603698 0 -0.000603698 -9.73532e-07 0 0 0 0)
(0 -0.000714015 0 -0.000714015 -9.69061e-07 0 0 0 0)
(0 -0.000815726 0 -0.000815726 -9.48144e-07 0 0 0 0)
(0 -0.000909517 0 -0.000909517 -9.15211e-07 0 0 0 0)
(0 -0.000995982 0 -0.000995982 -8.7488e-07 0 0 0 0)
(0 -0.00107565 0 -0.00107565 -8.30282e-07 0 0 0 0)
(0 -0.00114899 0 -0.00114899 -7.83477e-07 0 0 0 0)
(0 -0.00121643 0 -0.00121643 -7.35915e-07 0 0 0 0)
(0 -0.00127837 0 -0.00127837 -6.88638e-07 0 0 0 0)
(0 -0.00133516 0 -0.00133516 -6.4239e-07 0 0 0 0)
(0 -0.00138714 0 -0.00138714 -5.97692e-07 0 0 0 0)
(0 -0.0014346 0 -0.0014346 -5.54895e-07 0 0 0 0)
(0 -0.00147784 0 -0.00147784 -5.14226e-07 0 0 0 0)
(0 -0.00151712 0 -0.00151712 -4.75821e-07 0 0 0 0)
(0 -0.00155266 0 -0.00155266 -4.39744e-07 0 0 0 0)
(0 -0.0015847 0 -0.0015847 -4.06007e-07 0 0 0 0)
(0 -0.00161345 0 -0.00161345 -3.74582e-07 0 0 0 0)
(0 -0.00163909 0 -0.00163909 -3.4541e-07 0 0 0 0)
(0 -0.00166181 0 -0.00166181 -3.18409e-07 0 0 0 0)
(0 -0.00168177 0 -0.00168177 -2.93481e-07 0 0 0 0)
(0 -0.00169913 0 -0.00169913 -2.70517e-07 0 0 0 0)
(0 -0.00171404 0 -0.00171404 -2.494e-07 0 0 0 0)
(0 -0.00172662 0 -0.00172662 -2.30008e-07 0 0 0 0)
(0 -0.00173701 0 -0.00173701 -2.12221e-07 0 0 0 0)
(0 -0.00174533 0 -0.00174533 -1.95919e-07 0 0 0 0)
(0 -0.00175168 0 -0.00175168 -1.80984e-07 0 0 0 0)
(0 -0.00175617 0 -0.00175617 -1.67305e-07 0 0 0 0)
(0 -0.00175889 0 -0.00175889 -1.54776e-07 0 0 0 0)
(0 -0.00175995 0 -0.00175995 -1.43297e-07 0 0 0 0)
(0 -0.00175941 0 -0.00175941 -1.32776e-07 0 0 0 0)
(0 -0.00175737 0 -0.00175737 -1.23126e-07 0 0 0 0)
(0 -0.0017539 0 -0.0017539 -1.14269e-07 0 0 0 0)
(0 -0.00174907 0 -0.00174907 -1.06133e-07 0 0 0 0)
(0 -0.00174295 0 -0.00174295 -9.86515e-08 0 0 0 0)
(0 -0.0017356 0 -0.0017356 -9.17641e-08 0 0 0 0)
(0 -0.00172708 0 -0.00172708 -8.54137e-08 0 0 0 0)
(0 -0.00171745 0 -0.00171745 -7.95466e-08 0 0 0 0)
(0 -0.00170676 0 -0.00170676 -7.4112e-08 0 0 0 0)
(0 -0.00169507 0 -0.00169507 -6.90642e-08 0 0 0 0)
(0 -0.00168242 0 -0.00168242 -6.43649e-08 0 0 0 0)
(0 -0.00166885 0 -0.00166885 -5.9984e-08 0 0 0 0)
(0 -0.00165441 0 -0.00165441 -5.5896e-08 0 0 0 0)
(0 -0.00163917 0 -0.00163917 -5.20778e-08 0 0 0 0)
(0 -0.00162318 0 -0.00162318 -4.85108e-08 0 0 0 0)
(0 -0.00160639 0 -0.00160639 -4.51525e-08 0 0 0 0)
(6.56554e-18 -0.00158868 0 -0.00158868 -4.19673e-08 0 0 0 0)
(0 -0.00157007 0 -0.00157007 -3.89447e-08 0 0 0 0)
(0 -0.00155054 0 -0.00155054 -3.60596e-08 0 0 0 0)
(-6.16935e-18 -0.00153006 0 -0.00153006 -3.32863e-08 0 0 0 0)
(0 -0.0015086 0 -0.0015086 -3.06079e-08 0 0 0 0)
(5.90236e-18 -0.00148615 0 -0.00148615 -2.80123e-08 0 0 0 0)
(0 -0.00146268 0 -0.00146268 -2.54874e-08 0 0 0 0)
(-5.63311e-18 -0.00143816 0 -0.00143816 -2.30244e-08 0 0 0 0)
(0 -0.00141258 0 -0.00141258 -2.06226e-08 0 0 0 0)
(0 -0.00138591 0 -0.00138591 -1.82965e-08 0 0 0 0)
(0 -0.00135814 0 -0.00135814 -1.60729e-08 0 0 0 0)
(-1.01763e-17 -0.00132926 0 -0.00132926 -1.39727e-08 0 0 0 0)
(0 -0.00129925 0 -0.00129925 -1.20097e-08 0 0 0 0)
(0 -0.0012681 0 -0.0012681 -1.02061e-08 0 0 0 0)
(0 -0.0012358 0 -0.0012358 -8.58383e-09 0 0 0 0)
(0 -0.00120237 0 -0.00120237 -7.14845e-09 0 0 0 0)
(0 -0.00116778 0 -0.00116778 -5.89574e-09 0 0 0 0)
(8.51335e-18 -0.00113206 0 -0.00113206 -4.82203e-09 0 0 0 0)
(0 -0.0010952 0 -0.0010952 -3.91895e-09 0 0 0 0)
(7.95354e-18 -0.00105724 0 -0.00105724 -3.16639e-09 0 0 0 0)
(0 -0.00101818 0 -0.00101818 -2.54212e-09 0 0 0 0)
(7.39236e-18 -0.000978055 0 -0.000978055 -2.02985e-09 0 0 0 0)
(0 -0.000936907 0 -0.000936907 -1.61345e-09 0 0 0 0)
(0 -0.000894776 0 -0.000894776 -1.27586e-09 0 0 0 0)
(0 -0.000851718 0 -0.000851718 -1.00338e-09 0 0 0 0)
(0 -0.000807796 0 -0.000807796 -7.85349e-10 0 0 0 0)
(-5.99255e-18 -0.000763088 0 -0.000763088 -6.11867e-10 0 0 0 0)
(-5.71507e-18 -0.000717686 0 -0.000717686 -4.74203e-10 0 0 0 0)
(0 -0.000671695 0 -0.000671695 -3.65803e-10 0 0 0 0)
(0 -0.000625242 0 -0.000625242 -2.81842e-10 0 0 0 0)
(0 -0.00057847 0 -0.00057847 -2.14008e-10 0 0 0 0)
(0 -0.000531547 0 -0.000531547 -1.53403e-10 0 0 0 0)
(0 -0.000484666 0 -0.000484666 -1.09153e-10 0 0 0 0)
(0 -0.000438047 0 -0.000438047 -1.01096e-10 0 0 0 0)
(0 -0.000391939 0 -0.000391939 -1.09011e-10 0 0 0 0)
(0 -0.000346619 0 -0.000346619 -8.59671e-11 0 0 0 0)
(0 -0.000302401 0 -0.000302401 -4.39696e-11 0 0 0 0)
(0 -0.000259635 0 -0.000259635 -1.8336e-11 0 0 0 0)
(0 -0.000218688 0 -0.000218688 -6.74701e-12 0 0 0 0)
(0 -0.000179946 0 -0.000179946 8.90122e-14 0 0 0 0)
(0 -0.000143797 0 -0.000143797 2.06994e-12 0 0 0 0)
(4.561e-18 -0.00011061 0 -0.00011061 -9.73304e-13 0 0 0 0)
(-4.19911e-18 -8.07089e-05 0 -8.07089e-05 -1.51257e-12 0 0 0 0)
(0 -5.43474e-05 0 -5.43474e-05 1.71244e-13 0 0 0 0)
(0 -3.16833e-05 0 -3.16833e-05 9.6337e-14 0 0 0 0)
(3.2475e-18 -1.27662e-05 0 -1.27662e-05 3.1565e-17 0 0 0 0)
(0 2.46166e-06 0 2.46166e-06 -8.88534e-15 0 0 0 0)
(0 1.41512e-05 0 1.41512e-05 -2.91488e-14 0 0 0 0)
(0 2.25263e-05 0 2.25263e-05 -1.91269e-13 0 0 0 0)
(0 2.78631e-05 0 2.78631e-05 7.21928e-13 0 0 0 0)
(0 3.04761e-05 0 3.04761e-05 -1.44714e-12 0 0 0 0)
(0 3.07086e-05 0 3.07086e-05 2.13419e-12 0 0 0 0)
(0 2.89271e-05 0 2.89271e-05 -2.69302e-12 0 0 0 0)
(0 2.55165e-05 0 2.55165e-05 2.99215e-12 0 0 0 0)
(0 2.08782e-05 0 2.08782e-05 -3.00789e-12 0 0 0 0)
(0 1.54374e-05 0 1.54374e-05 2.69322e-12 0 0 0 0)
(0 9.68545e-06 0 9.68545e-06 -2.08456e-12 0 0 0 0)
(0 3.96413e-06 0 3.96413e-06 1.21526e-12 0 0 0 0)
(0 5.46862e-07 0 5.46862e-07 -3.82075e-13 0 0 0 0)
(0 3.87984e-08 0 3.87984e-08 1.60798e-13 0 0 0 0)
(0 1.58189e-09 0 1.58189e-09 -1.48211e-13 0 0 0 0)
(0 6.17018e-11 0 6.17018e-11 1.45547e-13 0 0 0 0)
(0 2.07547e-11 0 2.07547e-11 -1.43486e-13 0 0 0 0)
(0 1.49688e-11 0 1.49688e-11 1.41278e-13 0 0 0 0)
(-2.81089e-20 1.10979e-11 0 1.10979e-11 -1.39386e-13 0 0 0 0)
(0 8.18592e-12 0 8.18592e-12 1.37386e-13 0 0 0 0)
(0 6.00074e-12 0 6.00074e-12 -1.35623e-13 0 0 0 0)
(0 4.37132e-12 0 4.37132e-12 1.3376e-13 0 0 0 0)
(0 3.16401e-12 0 3.16401e-12 -1.32082e-13 0 0 0 0)
(0 2.27509e-12 0 2.27509e-12 1.30305e-13 0 0 0 0)
(0 1.62481e-12 0 1.62481e-12 -1.28676e-13 0 0 0 0)
(0 1.15271e-12 0 1.15271e-12 1.26959e-13 0 0 0 0)
(0 8.12458e-13 0 8.12458e-13 -1.25353e-13 0 0 0 0)
(0 5.68165e-13 0 5.68165e-13 1.23657e-13 0 0 0 0)
(0 3.94153e-13 0 3.94153e-13 -1.22058e-13 0 0 0 0)
(0 2.71626e-13 0 2.71626e-13 1.20366e-13 0 0 0 0)
(0 1.86063e-13 0 1.86063e-13 -1.18759e-13 0 0 0 0)
(0 1.2653e-13 0 1.2653e-13 1.17053e-13 0 0 0 0)
(0 8.52302e-14 0 8.52302e-14 -1.15423e-13 0 0 0 0)
(0 5.67554e-14 0 5.67554e-14 1.13705e-13 0 0 0 0)
(0 3.76989e-14 0 3.76989e-14 -1.12044e-13 0 0 0 0)
(0 2.47067e-14 0 2.47067e-14 1.10298e-13 0 0 0 0)
(0 1.60507e-14 0 1.60507e-14 -1.08604e-13 0 0 0 0)
(0 1.04817e-14 0 1.04817e-14 1.06827e-13 0 0 0 0)
(-3.7613e-20 6.63983e-15 0 6.63983e-15 -1.05104e-13 0 0 0 0)
(0 4.21931e-15 0 4.21931e-15 1.03283e-13 0 0 0 0)
(0 2.62373e-15 0 2.62373e-15 -1.01518e-13 0 0 0 0)
(0 1.58607e-15 0 1.58607e-15 9.96711e-14 0 0 0 0)
(0 1.08412e-15 0 1.08412e-15 -9.78697e-14 0 0 0 0)
(0 6.80634e-16 0 6.80634e-16 9.59868e-14 0 0 0 0)
(0 3.47171e-16 0 3.47171e-16 -9.41489e-14 0 0 0 0)
(0 1.97373e-16 0 1.97373e-16 9.22335e-14 0 0 0 0)
(0 2.38974e-16 0 2.38974e-16 -9.03588e-14 0 0 0 0)
(0 2.19372e-16 0 2.19372e-16 8.84134e-14 0 0 0 0)
(-3.0766e-20 -8.29912e-17 0 -8.29912e-17 -8.64907e-14 0 0 0 0)
(0 -1.28885e-16 0 -1.28885e-16 8.45404e-14 0 0 0 0)
(0 7.85399e-18 0 7.85399e-18 -8.25792e-14 0 0 0 0)
(2.89661e-20 9.10622e-17 0 9.10622e-17 8.05861e-14 0 0 0 0)
(0 1.10564e-16 0 1.10564e-16 -7.8597e-14 0 0 0 0)
(0 3.23397e-17 0 3.23397e-17 7.65824e-14 0 0 0 0)
(0 -8.1617e-17 0 -8.1617e-17 -7.45539e-14 0 0 0 0)
(0 -8.07083e-17 0 -8.07083e-17 7.25068e-14 0 0 0 0)
(0 3.44691e-17 0 3.44691e-17 -7.04444e-14 0 0 0 0)
(0 1.41707e-16 0 1.41707e-16 6.83646e-14 0 0 0 0)
(0 -5.36274e-17 0 -5.36274e-17 -6.62666e-14 0 0 0 0)
(0 -1.14161e-16 0 -1.14161e-16 6.41497e-14 0 0 0 0)
(0 8.74799e-17 0 8.74799e-17 -6.20128e-14 0 0 0 0)
(0 -8.35184e-19 0 -8.35184e-19 5.98962e-14 0 0 0 0)
(0 -1.01333e-16 0 -1.01333e-16 -6.60446e-14 0 0 0 0)
(0 -2.9527e-17 0 -2.9527e-17 6.53244e-14 0 0 0 0)
(0 5.04382e-17 0 5.04382e-17 -6.46374e-14 0 0 0 0)
(0 6.53142e-18 0 6.53142e-18 6.39442e-14 0 0 0 0)
(0 -1.65436e-19 0 -1.65436e-19 -6.32419e-14 0 0 0 0)
(0 5.1358e-17 0 5.1358e-17 6.25328e-14 0 0 0 0)
(0 -3.9612e-17 0 -3.9612e-17 -6.18147e-14 0 0 0 0)
(0 -1.4201e-17 0 -1.4201e-17 6.10892e-14 0 0 0 0)
(0 5.03455e-17 0 5.03455e-17 -6.03543e-14 0 0 0 0)
(0 -7.97932e-17 0 -7.97932e-17 5.96107e-14 0 0 0 0)
(0 -4.78441e-17 0 -4.78441e-17 -5.88568e-14 0 0 0 0)
(0 3.89238e-17 0 3.89238e-17 5.80953e-14 0 0 0 0)
(0 4.90286e-17 0 4.90286e-17 -5.7321e-14 0 0 0 0)
(0 1.31753e-17 0 1.31753e-17 5.6539e-14 0 0 0 0)
(0 -1.09519e-17 0 -1.09519e-17 -5.57426e-14 0 0 0 0)
(0 -1.06607e-17 0 -1.06607e-17 5.49402e-14 0 0 0 0)
(0 -3.048e-17 0 -3.048e-17 -5.41187e-14 0 0 0 0)
(0 4.57464e-17 0 4.57464e-17 5.33004e-14 0 0 0 0)
(0 6.65715e-18 0 6.65715e-18 -5.24393e-14 0 0 0 0)
(0 -9.82029e-18 0 -9.82029e-18 5.16228e-14 0 0 0 0)
(0 -4.42707e-18 0 -4.42707e-18 -5.072e-14 0 0 0 0)
(0 -3.59261e-17 0 -3.59261e-17 4.9882e-14 0 0 0 0)
(0 2.51463e-18 0 2.51463e-18 -4.89464e-14 0 0 0 0)
(0 4.06841e-17 0 4.06841e-17 4.80791e-14 0 0 0 0)
(0 7.04096e-18 0 7.04096e-18 -4.71089e-14 0 0 0 0)
(0 -6.14099e-18 0 -6.14099e-18 4.62025e-14 0 0 0 0)
(0 -1.87274e-17 0 -1.87274e-17 -4.51914e-14 0 0 0 0)
(0 -4.0962e-18 0 -4.0962e-18 4.42488e-14 0 0 0 0)
(0 -9.87323e-18 0 -9.87323e-18 -4.31917e-14 0 0 0 0)
(0 -1.33441e-16 0 -1.33441e-16 4.21999e-14 0 0 0 0)
(0 -3.66726e-16 0 -3.66726e-16 -4.10918e-14 0 0 0 0)
(0 3.1102e-19 0 3.1102e-19 4.00503e-14 0 0 0 0)
(0 3.71093e-16 0 3.71093e-16 -3.88826e-14 0 0 0 0)
(0 1.25394e-16 0 1.25394e-16 3.77826e-14 0 0 0 0)
(0 8.66885e-19 0 8.66885e-19 -3.65296e-14 0 0 0 0)
(0 8.03358e-18 0 8.03358e-18 3.53826e-14 0 0 0 0)
(0 6.62142e-17 0 6.62142e-17 -3.40318e-14 0 0 0 0)
(0 2.88124e-17 0 2.88124e-17 3.27842e-14 0 0 0 0)
(0 -2.71448e-17 0 -2.71448e-17 -3.13295e-14 0 0 0 0)
(0 -9.91823e-17 0 -9.91823e-17 2.99481e-14 0 0 0 0)
(0 8.11299e-18 0 8.11299e-18 -2.83556e-14 0 0 0 0)
(0 1.37755e-16 0 1.37755e-16 2.68142e-14 0 0 0 0)
(0 7.37051e-17 0 7.37051e-17 -2.50245e-14 0 0 0 0)
(0 -3.14262e-17 0 -3.14262e-17 2.32317e-14 0 0 0 0)
(0 -5.70159e-17 0 -5.70159e-17 -2.11461e-14 0 0 0 0)
(0 -6.67435e-17 0 -6.67435e-17 1.89656e-14 0 0 0 0)
(0 -5.30719e-17 0 -5.30719e-17 -1.63535e-14 0 0 0 0)
(0 3.80635e-17 0 3.80635e-17 1.33524e-14 0 0 0 0)
(0 -5.01999e-17 0 -5.01999e-17 -9.32274e-15 0 0 0 0)
(0 -8.55966e-17 0 -8.55966e-17 2.6479e-15 0 0 0 0)
)
;

boundaryField
{
    inandouthalf11
    {
        type            cyclic;
    }
    inandouthalf12
    {
        type            cyclic;
    }
    inandouthalf21
    {
        type            cyclic;
    }
    inandouthalf22
    {
        type            cyclic;
    }
    inandouthalf31
    {
        type            cyclic;
    }
    inandouthalf32
    {
        type            cyclic;
    }
    inandouthalf41
    {
        type            cyclic;
    }
    inandouthalf42
    {
        type            cyclic;
    }
    top
    {
        type            symmetryPlane;
    }
    walls
    {
        type            zeroGradient;
    }
    frontAndBackPlanes
    {
        type            empty;
    }
}


// ************************************************************************* //
