/*--------------------------------*- C++ -*----------------------------------*\
| =========                 |                                                 |
| \\      /  F ield         | OpenFOAM: The Open Source CFD Toolbox           |
|  \\    /   O peration     | Version:  2.4.x                                 |
|   \\  /    A nd           | Web:      www.OpenFOAM.org                      |
|    \\/     M anipulation  |                                                 |
\*---------------------------------------------------------------------------*/
FoamFile
{
    version     2.0;
    format      ascii;
    class       volVectorField;
    location    "7.3";
    object      U;
}
// * * * * * * * * * * * * * * * * * * * * * * * * * * * * * * * * * * * * * //

dimensions      [0 1 -1 0 0 0 0];

internalField   nonuniform List<vector> 
360
(
(8.77162e-05 1.67717e-08 0)
(8.70852e-05 -3.30725e-09 0)
(8.69881e-05 -3.23836e-09 0)
(8.70685e-05 -7.00607e-11 0)
(8.71126e-05 5.37942e-10 0)
(8.71285e-05 1.52953e-10 0)
(8.71455e-05 -2.66865e-11 0)
(8.71663e-05 -1.65347e-11 0)
(8.71876e-05 1.59366e-11 0)
(8.72091e-05 3.694e-11 0)
(8.72308e-05 4.6504e-11 0)
(8.72522e-05 4.5828e-11 0)
(8.72736e-05 4.33366e-11 0)
(8.72949e-05 4.2712e-11 0)
(8.73162e-05 4.54489e-11 0)
(8.73376e-05 4.98359e-11 0)
(8.73591e-05 5.30008e-11 0)
(8.73806e-05 5.49738e-11 0)
(8.74021e-05 5.59774e-11 0)
(8.74237e-05 5.77999e-11 0)
(8.74452e-05 5.71072e-11 0)
(8.74668e-05 5.91806e-11 0)
(8.74885e-05 6.02405e-11 0)
(8.75101e-05 6.01718e-11 0)
(8.75318e-05 5.99143e-11 0)
(8.75536e-05 5.96217e-11 0)
(8.75753e-05 5.90637e-11 0)
(8.75972e-05 6.02155e-11 0)
(8.7619e-05 5.86904e-11 0)
(8.76409e-05 5.7219e-11 0)
(8.76628e-05 5.53514e-11 0)
(8.7685e-05 5.69108e-11 0)
(8.77068e-05 5.13007e-11 0)
(8.77292e-05 5.48159e-11 0)
(8.77512e-05 4.82534e-11 0)
(8.77735e-05 4.71274e-11 0)
(8.77957e-05 4.43686e-11 0)
(8.78181e-05 4.22656e-11 0)
(8.78407e-05 4.21414e-11 0)
(8.78629e-05 3.14595e-11 0)
(8.78858e-05 3.3885e-11 0)
(8.79085e-05 2.87754e-11 0)
(8.7931e-05 1.94344e-11 0)
(8.79542e-05 2.37437e-11 0)
(8.79771e-05 1.65324e-11 0)
(8.80002e-05 1.11444e-11 0)
(8.80236e-05 9.33995e-12 0)
(8.80466e-05 9.03485e-13 0)
(8.80702e-05 4.30262e-12 0)
(8.80942e-05 1.10537e-11 0)
(8.81177e-05 -6.10176e-13 0)
(8.81418e-05 4.77976e-12 0)
(8.81658e-05 2.36549e-12 0)
(8.81903e-05 7.39895e-12 0)
(8.82145e-05 -2.82707e-13 0)
(8.82395e-05 1.09854e-11 0)
(8.8264e-05 1.03784e-12 0)
(8.82893e-05 6.90544e-12 0)
(8.83145e-05 8.24115e-12 0)
(8.83396e-05 3.23961e-12 0)
(8.83656e-05 2.28557e-11 0)
(8.83913e-05 1.55406e-11 0)
(8.84176e-05 2.31915e-11 0)
(8.84439e-05 1.46943e-11 0)
(8.84706e-05 8.77977e-12 0)
(8.84974e-05 -4.00803e-12 0)
(8.85246e-05 -1.40745e-11 0)
(8.85521e-05 -2.95309e-11 0)
(8.85798e-05 -4.5085e-11 0)
(8.86076e-05 -6.44845e-11 0)
(8.86362e-05 -6.98862e-11 0)
(8.86654e-05 -7.96794e-11 0)
(8.86944e-05 -1.12481e-10 0)
(8.87244e-05 -1.19382e-10 0)
(8.87547e-05 -1.46471e-10 0)
(8.87859e-05 -1.6678e-10 0)
(8.88173e-05 -2.02648e-10 0)
(8.88494e-05 -2.28959e-10 0)
(8.88823e-05 -2.49963e-10 0)
(8.8916e-05 -2.65408e-10 0)
(8.89504e-05 -2.80074e-10 0)
(8.89858e-05 -2.82712e-10 0)
(8.90222e-05 -2.80981e-10 0)
(8.90596e-05 -2.78799e-10 0)
(8.9098e-05 -2.73501e-10 0)
(8.91375e-05 -2.69969e-10 0)
(8.91781e-05 -2.64098e-10 0)
(8.92198e-05 -2.59959e-10 0)
(8.92626e-05 -2.5355e-10 0)
(8.93066e-05 -2.42864e-10 0)
(8.93518e-05 -2.28999e-10 0)
(8.93982e-05 -2.12256e-10 0)
(8.9446e-05 -1.91215e-10 0)
(8.94952e-05 -1.687e-10 0)
(8.95458e-05 -1.45759e-10 0)
(8.95977e-05 -1.23074e-10 0)
(8.9651e-05 -1.01398e-10 0)
(8.97058e-05 -8.11898e-11 0)
(8.9762e-05 -6.23878e-11 0)
(8.98196e-05 -4.46755e-11 0)
(8.98787e-05 -2.81665e-11 0)
(8.99393e-05 -1.27855e-11 0)
(9.00015e-05 1.53437e-12 0)
(9.00653e-05 1.44825e-11 0)
(9.01308e-05 2.58491e-11 0)
(9.01979e-05 3.55623e-11 0)
(9.02668e-05 4.3528e-11 0)
(9.03375e-05 4.97384e-11 0)
(9.041e-05 5.42643e-11 0)
(9.04845e-05 5.71726e-11 0)
(9.05609e-05 5.85498e-11 0)
(9.06395e-05 5.85204e-11 0)
(9.07202e-05 5.72433e-11 0)
(9.08032e-05 5.49324e-11 0)
(9.08886e-05 5.18599e-11 0)
(9.09764e-05 4.83278e-11 0)
(9.10668e-05 4.46234e-11 0)
(9.11599e-05 4.09415e-11 0)
(9.12557e-05 3.72494e-11 0)
(9.13545e-05 3.31049e-11 0)
(9.14564e-05 2.74763e-11 0)
(9.15614e-05 1.86265e-11 0)
(9.16697e-05 4.11454e-12 0)
(9.17815e-05 -1.90465e-11 0)
(9.18969e-05 -5.41391e-11 0)
(9.20163e-05 -1.04645e-10 0)
(9.21399e-05 -1.74472e-10 0)
(9.22684e-05 -2.68103e-10 0)
(9.24024e-05 -3.8931e-10 0)
(9.25426e-05 -5.37202e-10 0)
(9.26898e-05 -7.01079e-10 0)
(9.28448e-05 -8.60576e-10 0)
(9.30091e-05 -9.89689e-10 0)
(9.31854e-05 -1.05317e-09 0)
(9.33763e-05 -1.01817e-09 0)
(9.35817e-05 -9.11505e-10 0)
(9.38002e-05 -8.22279e-10 0)
(9.40353e-05 -8.25164e-10 0)
(9.4299e-05 -8.578e-10 0)
(9.46043e-05 -5.99656e-10 0)
(9.49352e-05 -2.61935e-10 0)
(9.52524e-05 -2.36428e-09 0)
(9.5645e-05 -3.54075e-09 0)
(9.61707e-05 -3.43478e-09 0)
(9.68418e-05 -1.15242e-08 0)
(9.81427e-05 -4.08226e-08 0)
(0.000101608 3.20155e-07 0)
(0.00010364 1.66022e-07 0)
(0.000108815 1.19071e-06 0)
(0.000170873 -4.58101e-06 0)
(0.0416898 3.20539e-05 0)
(0.0657047 2.42028e-05 0)
(0.0702103 -2.72414e-06 0)
(0.0704901 1.0067e-06 0)
(0.0691591 1.06076e-06 0)
(0.0669663 4.29437e-07 0)
(0.0642322 2.23277e-07 0)
(0.0611258 1.35453e-07 0)
(0.05775 8.48589e-08 0)
(0.0541738 5.28794e-08 0)
(0.050446 3.30319e-08 0)
(0.046603 2.08775e-08 0)
(0.0426726 1.33028e-08 0)
(0.0386767 8.47396e-09 0)
(0.0346327 5.34561e-09 0)
(0.0305548 3.30276e-09 0)
(0.0264545 1.96664e-09 0)
(0.0223414 1.09519e-09 0)
(0.0182234 5.3198e-10 0)
(0.0141073 1.74038e-10 0)
(0.00999846 -4.68626e-11 0)
(0.0059017 -1.76961e-10 0)
(0.00182097 -2.47377e-10 0)
(-0.00224039 -2.79551e-10 0)
(-0.00627955 -2.87961e-10 0)
(-0.0102941 -2.82431e-10 0)
(-0.0142821 -2.69571e-10 0)
(-0.0182417 -2.5361e-10 0)
(-0.0221716 -2.37291e-10 0)
(-0.0260705 -2.22142e-10 0)
(-0.0299374 -2.09041e-10 0)
(-0.0337715 -1.98254e-10 0)
(-0.0375721 -1.89842e-10 0)
(-0.0413387 -1.83554e-10 0)
(-0.0450707 -1.79144e-10 0)
(-0.0487679 -1.76219e-10 0)
(-0.0524299 -1.74459e-10 0)
(-0.0560565 -1.73489e-10 0)
(-0.0596476 -1.73053e-10 0)
(-0.063203 -1.72917e-10 0)
(-0.0667227 -1.72943e-10 0)
(-0.0702066 -1.72987e-10 0)
(-0.0736548 -1.72842e-10 0)
(-0.0770673 -1.72139e-10 0)
(-0.0804441 -1.70437e-10 0)
(-0.0837852 -1.67623e-10 0)
(-0.0870908 -1.64326e-10 0)
(-0.0903609 -1.61348e-10 0)
(-0.0935956 -1.58186e-10 0)
(-0.096795 -1.53293e-10 0)
(-0.0999592 -1.4714e-10 0)
(-0.10312 -1.47859e-10 0)
(-0.106309 -1.54062e-10 0)
(-0.109525 -1.54164e-10 0)
(-0.112769 -1.53128e-10 0)
(-0.116038 -1.47509e-10 0)
(-0.119334 -1.46382e-10 0)
(-0.122654 -1.4235e-10 0)
(-0.125999 -1.35017e-10 0)
(-0.129367 -1.27945e-10 0)
(-0.132757 -1.15025e-10 0)
(-0.136168 -1.02294e-10 0)
(-0.139599 -9.96417e-11 0)
(-0.143048 -8.7672e-11 0)
(-0.146514 -6.96906e-11 0)
(-0.149995 -6.5158e-11 0)
(-0.153489 -5.90937e-11 0)
(-0.156994 -4.96517e-11 0)
(-0.160507 -3.9535e-11 0)
(-0.164025 -3.49025e-11 0)
(-0.167546 -3.49241e-11 0)
(-0.171067 -2.46103e-11 0)
(-0.174583 -1.91996e-11 0)
(-0.178092 -1.86865e-11 0)
(-0.181588 -1.42494e-11 0)
(-0.185066 -9.74297e-12 0)
(-0.188522 -9.26474e-12 0)
(-0.191949 -4.79338e-12 0)
(-0.195341 -7.67353e-12 0)
(-0.19869 1.57419e-12 0)
(-0.201988 -7.37961e-12 0)
(-0.205227 5.94879e-12 0)
(-0.208396 -1.73553e-11 0)
(-0.211483 2.77654e-11 0)
(-0.214478 -1.77067e-12 0)
(-0.217366 3.88567e-12 0)
(-0.220132 -7.05283e-11 0)
(-0.222761 1.29002e-10 0)
(-0.225234 -1.74956e-10 0)
(-0.227533 1.72816e-10 0)
(-0.229639 -9.67667e-11 0)
(-0.231532 7.16587e-11 0)
(-0.233194 3.01843e-12 0)
(-0.234608 1.98355e-11 0)
(-0.235759 -6.58382e-14 0)
(-0.23664 9.7642e-13 0)
(-0.237247 2.28495e-12 0)
(-0.237584 2.40331e-12 0)
(-0.23766 2.28306e-12 0)
(-0.237493 2.24555e-12 0)
(-0.237102 1.70568e-12 0)
(-0.236512 -1.94488e-12 0)
(-0.235747 1.95003e-11 0)
(-0.234836 -4.25359e-11 0)
(-0.23381 8.86977e-11 0)
(-0.232703 -1.45439e-10 0)
(-0.231553 2.27068e-10 0)
(-0.230405 -3.20211e-10 0)
(-0.229313 4.35622e-10 0)
(-0.228352 -5.5888e-10 0)
(-0.227757 6.97316e-10 0)
(-0.227641 -8.37132e-10 0)
(-0.227635 9.85879e-10 0)
(-0.227635 -1.13388e-09 0)
(-0.227635 1.2896e-09 0)
(-0.227635 -1.4453e-09 0)
(-0.227635 1.60854e-09 0)
(-0.227635 -1.77246e-09 0)
(-0.227635 1.94385e-09 0)
(-0.227635 -2.1165e-09 0)
(-0.227635 2.29655e-09 0)
(-0.227635 -2.47839e-09 0)
(-0.227635 2.66757e-09 0)
(-0.227635 -2.85901e-09 0)
(-0.227635 3.05777e-09 0)
(-0.227635 -3.25917e-09 0)
(-0.227635 3.46788e-09 0)
(-0.227635 -3.67961e-09 0)
(-0.227635 3.89859e-09 0)
(-0.227635 -4.12097e-09 0)
(-0.227635 4.35054e-09 0)
(-0.227635 -4.58385e-09 0)
(-0.227635 4.8243e-09 0)
(-0.227635 -5.06881e-09 0)
(-0.227635 5.32039e-09 0)
(-0.227635 -5.57633e-09 0)
(-0.227635 5.83929e-09 0)
(-0.227635 -6.10691e-09 0)
(-0.227635 6.38141e-09 0)
(-0.227635 -6.66089e-09 0)
(-0.227635 6.94716e-09 0)
(-0.227635 -7.23869e-09 0)
(-0.227635 7.53689e-09 0)
(-0.227635 -7.84061e-09 0)
(-0.227635 8.15089e-09 0)
(-0.227635 -8.46694e-09 0)
(-0.227635 8.78943e-09 0)
(-0.227635 -9.11787e-09 0)
(-0.227635 9.45276e-09 0)
(-0.227635 -9.79366e-09 0)
(-0.227635 1.0141e-08 0)
(-0.227635 -1.04944e-08 0)
(-0.227635 1.08542e-08 0)
(-0.227635 -1.12201e-08 0)
(-0.227635 1.15923e-08 0)
(-0.227635 -1.19707e-08 0)
(-0.227635 1.23554e-08 0)
(-0.227635 -1.27461e-08 0)
(-0.227635 1.31431e-08 0)
(-0.227635 -1.35459e-08 0)
(-0.227635 1.22509e-08 0)
(-0.227635 -1.23822e-08 0)
(-0.227635 1.25122e-08 0)
(-0.227635 -1.26408e-08 0)
(-0.227635 1.2768e-08 0)
(-0.227635 -1.28937e-08 0)
(-0.227635 1.30181e-08 0)
(-0.227635 -1.3141e-08 0)
(-0.227635 1.32625e-08 0)
(-0.227635 -1.33824e-08 0)
(-0.227635 1.35009e-08 0)
(-0.227635 -1.36178e-08 0)
(-0.227635 1.37333e-08 0)
(-0.227635 -1.38471e-08 0)
(-0.227635 1.39595e-08 0)
(-0.227635 -1.40701e-08 0)
(-0.227635 1.41792e-08 0)
(-0.227635 -1.42866e-08 0)
(-0.227635 1.43924e-08 0)
(-0.227635 -1.44963e-08 0)
(-0.227635 1.45989e-08 0)
(-0.227635 -1.46992e-08 0)
(-0.227635 1.47985e-08 0)
(-0.227635 -1.4895e-08 0)
(-0.227635 1.49908e-08 0)
(-0.227635 -1.50834e-08 0)
(-0.227635 1.51756e-08 0)
(-0.227635 -1.52642e-08 0)
(-0.227635 1.53526e-08 0)
(-0.227635 -1.54369e-08 0)
(-0.227635 1.55214e-08 0)
(-0.227635 -1.56013e-08 0)
(-0.227635 1.56816e-08 0)
(-0.227635 -1.57568e-08 0)
(-0.227635 1.58327e-08 0)
(-0.227635 -1.5903e-08 0)
(-0.227635 1.59742e-08 0)
(-0.227635 -1.60391e-08 0)
(-0.227635 1.61054e-08 0)
(-0.227635 -1.61644e-08 0)
(-0.227635 1.62252e-08 0)
(-0.227635 -1.62778e-08 0)
(-0.227635 1.63324e-08 0)
(-0.227635 -1.63779e-08 0)
(-0.227635 1.64254e-08 0)
(-0.227635 -1.64625e-08 0)
(-0.227635 1.65012e-08 0)
(-0.227635 -1.65279e-08 0)
(-0.227635 1.65546e-08 0)
(-0.227635 -1.65652e-08 0)
)
;

boundaryField
{
    inandouthalf11
    {
        type            cyclic;
    }
    inandouthalf12
    {
        type            cyclic;
    }
    inandouthalf21
    {
        type            cyclic;
    }
    inandouthalf22
    {
        type            cyclic;
    }
    inandouthalf31
    {
        type            cyclic;
    }
    inandouthalf32
    {
        type            cyclic;
    }
    inandouthalf41
    {
        type            cyclic;
    }
    inandouthalf42
    {
        type            cyclic;
    }
    top
    {
        type            symmetryPlane;
    }
    walls
    {
        type            calculated;
        value           uniform (0 0 0);
    }
    frontAndBackPlanes
    {
        type            empty;
    }
}


// ************************************************************************* //
