/*--------------------------------*- C++ -*----------------------------------*\
| =========                 |                                                 |
| \\      /  F ield         | OpenFOAM: The Open Source CFD Toolbox           |
|  \\    /   O peration     | Version:  2.4.x                                 |
|   \\  /    A nd           | Web:      www.OpenFOAM.org                      |
|    \\/     M anipulation  |                                                 |
\*---------------------------------------------------------------------------*/
FoamFile
{
    version     2.0;
    format      ascii;
    class       volVectorField;
    location    "7.3";
    object      Ub;
}
// * * * * * * * * * * * * * * * * * * * * * * * * * * * * * * * * * * * * * //

dimensions      [0 1 -1 0 0 0 0];

internalField   nonuniform List<vector> 
360
(
(0.000225369 4.30913e-08 0)
(0.000224215 1.54789e-07 0)
(0.000224023 2.85024e-07 0)
(0.000224181 4.03708e-07 0)
(0.000224267 5.1934e-07 0)
(0.000224299 6.37087e-07 0)
(0.000224332 7.56313e-07 0)
(0.000224374 8.75815e-07 0)
(0.000224416 9.95305e-07 0)
(0.000224459 1.11496e-06 0)
(0.000224503 1.235e-06 0)
(0.000224546 1.35551e-06 0)
(0.00022459 1.47651e-06 0)
(0.000224633 1.59798e-06 0)
(0.000224677 1.71991e-06 0)
(0.000224721 1.84234e-06 0)
(0.000224765 1.9653e-06 0)
(0.000224809 2.08883e-06 0)
(0.000224854 2.21294e-06 0)
(0.000224899 2.33765e-06 0)
(0.000224944 2.46297e-06 0)
(0.00022499 2.5889e-06 0)
(0.000225035 2.71547e-06 0)
(0.000225081 2.84267e-06 0)
(0.000225128 2.97051e-06 0)
(0.000225174 3.099e-06 0)
(0.000225221 3.22811e-06 0)
(0.000225268 3.35786e-06 0)
(0.000225316 3.48825e-06 0)
(0.000225363 3.61926e-06 0)
(0.000225411 3.75087e-06 0)
(0.00022546 3.88311e-06 0)
(0.000225508 4.01591e-06 0)
(0.000225557 4.1493e-06 0)
(0.000225606 4.28325e-06 0)
(0.000225656 4.41774e-06 0)
(0.000225706 4.55272e-06 0)
(0.000225756 4.68819e-06 0)
(0.000225807 4.82414e-06 0)
(0.000225858 4.96049e-06 0)
(0.00022591 5.09724e-06 0)
(0.000225962 5.23436e-06 0)
(0.000226013 5.37176e-06 0)
(0.000226066 5.50945e-06 0)
(0.000226119 5.64738e-06 0)
(0.000226173 5.7855e-06 0)
(0.000226227 5.92379e-06 0)
(0.000226281 6.06217e-06 0)
(0.000226336 6.20061e-06 0)
(0.000226392 6.33918e-06 0)
(0.000226448 6.4778e-06 0)
(0.000226505 6.61651e-06 0)
(0.000226561 6.75528e-06 0)
(0.000226619 6.89414e-06 0)
(0.000226677 7.03305e-06 0)
(0.000226737 7.17208e-06 0)
(0.000226795 7.31117e-06 0)
(0.000226856 7.45037e-06 0)
(0.000226916 7.58967e-06 0)
(0.000226977 7.72904e-06 0)
(0.00022704 7.86861e-06 0)
(0.000227102 8.00834e-06 0)
(0.000227166 8.14834e-06 0)
(0.00022723 8.28858e-06 0)
(0.000227294 8.42903e-06 0)
(0.00022736 8.56958e-06 0)
(0.000227426 8.71016e-06 0)
(0.000227494 8.85064e-06 0)
(0.000227561 8.99087e-06 0)
(0.00022763 9.13065e-06 0)
(0.0002277 9.26989e-06 0)
(0.000227771 9.4085e-06 0)
(0.000227842 9.54622e-06 0)
(0.000227916 9.68297e-06 0)
(0.00022799 9.81849e-06 0)
(0.000228066 9.95261e-06 0)
(0.000228142 1.0085e-05 0)
(0.00022822 1.02155e-05 0)
(0.000228299 1.03436e-05 0)
(0.00022838 1.04693e-05 0)
(0.000228462 1.05924e-05 0)
(0.000228546 1.07127e-05 0)
(0.000228632 1.08302e-05 0)
(0.000228719 1.09448e-05 0)
(0.000228809 1.10568e-05 0)
(0.0002289 1.1166e-05 0)
(0.000228993 1.12725e-05 0)
(0.000229089 1.13765e-05 0)
(0.000229186 1.14778e-05 0)
(0.000229286 1.15767e-05 0)
(0.000229387 1.16732e-05 0)
(0.000229491 1.17674e-05 0)
(0.000229598 1.18597e-05 0)
(0.000229707 1.195e-05 0)
(0.000229818 1.20388e-05 0)
(0.000229933 1.21262e-05 0)
(0.00023005 1.22125e-05 0)
(0.000230169 1.22979e-05 0)
(0.000230292 1.23826e-05 0)
(0.000230417 1.24668e-05 0)
(0.000230545 1.25507e-05 0)
(0.000230677 1.26345e-05 0)
(0.000230811 1.27183e-05 0)
(0.000230949 1.28024e-05 0)
(0.000231091 1.28867e-05 0)
(0.000231235 1.29716e-05 0)
(0.000231384 1.3057e-05 0)
(0.000231536 1.31431e-05 0)
(0.000231692 1.32299e-05 0)
(0.000231852 1.33175e-05 0)
(0.000232017 1.3406e-05 0)
(0.000232186 1.34954e-05 0)
(0.00023236 1.35857e-05 0)
(0.000232538 1.36768e-05 0)
(0.000232722 1.37689e-05 0)
(0.000232911 1.38619e-05 0)
(0.000233105 1.39557e-05 0)
(0.000233306 1.40504e-05 0)
(0.000233512 1.4146e-05 0)
(0.000233725 1.42424e-05 0)
(0.000233944 1.43396e-05 0)
(0.000234171 1.44376e-05 0)
(0.000234404 1.45362e-05 0)
(0.000234646 1.46355e-05 0)
(0.000234895 1.47352e-05 0)
(0.000235153 1.48349e-05 0)
(0.00023542 1.49342e-05 0)
(0.000235697 1.50324e-05 0)
(0.000235986 1.51286e-05 0)
(0.000236288 1.52217e-05 0)
(0.000236603 1.53103e-05 0)
(0.000236933 1.53927e-05 0)
(0.00023728 1.54676e-05 0)
(0.00023765 1.55339e-05 0)
(0.000238045 1.55914e-05 0)
(0.000238468 1.56404e-05 0)
(0.000238914 1.56815e-05 0)
(0.000239391 1.57159e-05 0)
(0.000239924 1.57453e-05 0)
(0.000240538 1.5772e-05 0)
(0.000241202 1.57966e-05 0)
(0.000241838 1.581e-05 0)
(0.000242614 1.58099e-05 0)
(0.000243639 1.57925e-05 0)
(0.000244934 1.57362e-05 0)
(0.000247435 1.55853e-05 0)
(0.000254058 1.62758e-05 0)
(0.000256863 1.84367e-05 0)
(0.000263699 2.48173e-05 0)
(0.000394992 1.4533e-05 0)
(0.043888 5.87664e-05 0)
(0.0661409 7.4588e-05 0)
(0.070384 3.79993e-05 0)
(0.0705878 3.81908e-05 0)
(0.0692238 3.44302e-05 0)
(0.0670142 3.09265e-05 0)
(0.0642699 2.78437e-05 0)
(0.0611565 2.50923e-05 0)
(0.0577758 2.26075e-05 0)
(0.0541959 2.03688e-05 0)
(0.0504652 1.83588e-05 0)
(0.0466198 1.65571e-05 0)
(0.0426875 1.49428e-05 0)
(0.03869 1.34966e-05 0)
(0.0346446 1.22007e-05 0)
(0.0305655 1.1039e-05 0)
(0.0264641 9.99731e-06 0)
(0.0223501 9.06267e-06 0)
(0.0182313 8.22361e-06 0)
(0.0141144 7.46991e-06 0)
(0.0100049 6.7924e-06 0)
(0.00590752 6.18293e-06 0)
(0.00182623 5.63422e-06 0)
(-0.00223563 5.13977e-06 0)
(-0.00627526 4.69379e-06 0)
(-0.0102902 4.29109e-06 0)
(-0.0142786 3.92705e-06 0)
(-0.0182386 3.59757e-06 0)
(-0.0221688 3.29896e-06 0)
(-0.026068 3.02796e-06 0)
(-0.0299352 2.78167e-06 0)
(-0.0337696 2.55749e-06 0)
(-0.0375704 2.35313e-06 0)
(-0.0413372 2.16654e-06 0)
(-0.0450695 1.99592e-06 0)
(-0.0487668 1.83965e-06 0)
(-0.052429 1.69631e-06 0)
(-0.0560557 1.56462e-06 0)
(-0.0596469 1.44346e-06 0)
(-0.0632025 1.33181e-06 0)
(-0.0667223 1.22879e-06 0)
(-0.0702064 1.1336e-06 0)
(-0.0736547 1.04553e-06 0)
(-0.0770672 9.63947e-07 0)
(-0.0804441 8.88297e-07 0)
(-0.0837853 8.18088e-07 0)
(-0.087091 7.52886e-07 0)
(-0.0903612 6.92301e-07 0)
(-0.0935959 6.35982e-07 0)
(-0.0967954 5.83608e-07 0)
(-0.0999597 5.34891e-07 0)
(-0.103121 4.89102e-07 0)
(-0.10631 4.45675e-07 0)
(-0.109526 4.04527e-07 0)
(-0.112769 3.65588e-07 0)
(-0.116039 3.28819e-07 0)
(-0.119334 2.94202e-07 0)
(-0.122655 2.6173e-07 0)
(-0.125999 2.31411e-07 0)
(-0.129367 2.0327e-07 0)
(-0.132757 1.77338e-07 0)
(-0.136169 1.53646e-07 0)
(-0.1396 1.32197e-07 0)
(-0.143049 1.12957e-07 0)
(-0.146515 9.58739e-08 0)
(-0.149996 8.08715e-08 0)
(-0.15349 6.78267e-08 0)
(-0.156994 5.6585e-08 0)
(-0.160507 4.69832e-08 0)
(-0.164025 3.88505e-08 0)
(-0.167547 3.20034e-08 0)
(-0.171067 2.62629e-08 0)
(-0.174584 2.14751e-08 0)
(-0.178092 1.75016e-08 0)
(-0.181588 1.42137e-08 0)
(-0.185066 1.1502e-08 0)
(-0.188522 9.27468e-09 0)
(-0.191949 7.45174e-09 0)
(-0.195341 5.96322e-09 0)
(-0.19869 4.75183e-09 0)
(-0.201988 3.76922e-09 0)
(-0.205227 2.97353e-09 0)
(-0.208396 2.3264e-09 0)
(-0.211483 1.81741e-09 0)
(-0.214478 1.44997e-09 0)
(-0.217366 1.15559e-09 0)
(-0.220133 7.96705e-10 0)
(-0.222761 4.04832e-10 0)
(-0.225234 1.65406e-10 0)
(-0.227533 5.90987e-11 0)
(-0.229639 1.03697e-11 0)
(-0.231532 -2.26155e-12 0)
(-0.233194 1.15148e-11 0)
(-0.234608 1.98355e-11 0)
(-0.235759 -6.58382e-14 0)
(-0.23664 9.7642e-13 0)
(-0.237247 2.28495e-12 0)
(-0.237584 2.40331e-12 0)
(-0.23766 2.28306e-12 0)
(-0.237493 2.24555e-12 0)
(-0.237102 1.70568e-12 0)
(-0.236512 -1.94488e-12 0)
(-0.235747 1.95003e-11 0)
(-0.234836 -4.25359e-11 0)
(-0.23381 8.86977e-11 0)
(-0.232703 -1.45439e-10 0)
(-0.231553 2.27068e-10 0)
(-0.230405 -3.20211e-10 0)
(-0.229313 4.35622e-10 0)
(-0.228352 -5.5888e-10 0)
(-0.227757 6.97316e-10 0)
(-0.227641 -8.37132e-10 0)
(-0.227635 9.85879e-10 0)
(-0.227635 -1.13388e-09 0)
(-0.227635 1.2896e-09 0)
(-0.227635 -1.4453e-09 0)
(-0.227635 1.60854e-09 0)
(-0.227635 -1.77246e-09 0)
(-0.227635 1.94385e-09 0)
(-0.227635 -2.1165e-09 0)
(-0.227635 2.29655e-09 0)
(-0.227635 -2.47839e-09 0)
(-0.227635 2.66757e-09 0)
(-0.227635 -2.85901e-09 0)
(-0.227635 3.05777e-09 0)
(-0.227635 -3.25917e-09 0)
(-0.227635 3.46788e-09 0)
(-0.227635 -3.67961e-09 0)
(-0.227635 3.89859e-09 0)
(-0.227635 -4.12097e-09 0)
(-0.227635 4.35054e-09 0)
(-0.227635 -4.58385e-09 0)
(-0.227635 4.8243e-09 0)
(-0.227635 -5.06881e-09 0)
(-0.227635 5.32039e-09 0)
(-0.227635 -5.57633e-09 0)
(-0.227635 5.83929e-09 0)
(-0.227635 -6.10691e-09 0)
(-0.227635 6.38141e-09 0)
(-0.227635 -6.66089e-09 0)
(-0.227635 6.94716e-09 0)
(-0.227635 -7.23869e-09 0)
(-0.227635 7.53689e-09 0)
(-0.227635 -7.84061e-09 0)
(-0.227635 8.15089e-09 0)
(-0.227635 -8.46694e-09 0)
(-0.227635 8.78943e-09 0)
(-0.227635 -9.11787e-09 0)
(-0.227635 9.45276e-09 0)
(-0.227635 -9.79366e-09 0)
(-0.227635 1.0141e-08 0)
(-0.227635 -1.04944e-08 0)
(-0.227635 1.08542e-08 0)
(-0.227635 -1.12201e-08 0)
(-0.227635 1.15923e-08 0)
(-0.227635 -1.19707e-08 0)
(-0.227635 1.23554e-08 0)
(-0.227635 -1.27461e-08 0)
(-0.227635 1.31431e-08 0)
(-0.227635 -1.35459e-08 0)
(-0.227635 1.22509e-08 0)
(-0.227635 -1.23822e-08 0)
(-0.227635 1.25122e-08 0)
(-0.227635 -1.26408e-08 0)
(-0.227635 1.2768e-08 0)
(-0.227635 -1.28937e-08 0)
(-0.227635 1.30181e-08 0)
(-0.227635 -1.3141e-08 0)
(-0.227635 1.32625e-08 0)
(-0.227635 -1.33824e-08 0)
(-0.227635 1.35009e-08 0)
(-0.227635 -1.36178e-08 0)
(-0.227635 1.37333e-08 0)
(-0.227635 -1.38471e-08 0)
(-0.227635 1.39595e-08 0)
(-0.227635 -1.40701e-08 0)
(-0.227635 1.41792e-08 0)
(-0.227635 -1.42866e-08 0)
(-0.227635 1.43924e-08 0)
(-0.227635 -1.44963e-08 0)
(-0.227635 1.45989e-08 0)
(-0.227635 -1.46992e-08 0)
(-0.227635 1.47985e-08 0)
(-0.227635 -1.4895e-08 0)
(-0.227635 1.49908e-08 0)
(-0.227635 -1.50834e-08 0)
(-0.227635 1.51756e-08 0)
(-0.227635 -1.52642e-08 0)
(-0.227635 1.53526e-08 0)
(-0.227635 -1.54369e-08 0)
(-0.227635 1.55214e-08 0)
(-0.227635 -1.56013e-08 0)
(-0.227635 1.56816e-08 0)
(-0.227635 -1.57568e-08 0)
(-0.227635 1.58327e-08 0)
(-0.227635 -1.5903e-08 0)
(-0.227635 1.59742e-08 0)
(-0.227635 -1.60391e-08 0)
(-0.227635 1.61054e-08 0)
(-0.227635 -1.61644e-08 0)
(-0.227635 1.62252e-08 0)
(-0.227635 -1.62778e-08 0)
(-0.227635 1.63324e-08 0)
(-0.227635 -1.63779e-08 0)
(-0.227635 1.64254e-08 0)
(-0.227635 -1.64625e-08 0)
(-0.227635 1.65012e-08 0)
(-0.227635 -1.65279e-08 0)
(-0.227635 1.65546e-08 0)
(-0.227635 -1.65652e-08 0)
)
;

boundaryField
{
    inandouthalf11
    {
        type            cyclic;
    }
    inandouthalf12
    {
        type            cyclic;
    }
    inandouthalf21
    {
        type            cyclic;
    }
    inandouthalf22
    {
        type            cyclic;
    }
    inandouthalf31
    {
        type            cyclic;
    }
    inandouthalf32
    {
        type            cyclic;
    }
    inandouthalf41
    {
        type            cyclic;
    }
    inandouthalf42
    {
        type            cyclic;
    }
    top
    {
        type            symmetryPlane;
    }
    walls
    {
        type            fixedValue;
        value           uniform (0 0 0);
    }
    frontAndBackPlanes
    {
        type            empty;
    }
}


// ************************************************************************* //
