/*--------------------------------*- C++ -*----------------------------------*\
| =========                 |                                                 |
| \\      /  F ield         | OpenFOAM: The Open Source CFD Toolbox           |
|  \\    /   O peration     | Version:  2.4.x                                 |
|   \\  /    A nd           | Web:      www.OpenFOAM.org                      |
|    \\/     M anipulation  |                                                 |
\*---------------------------------------------------------------------------*/
FoamFile
{
    version     2.0;
    format      ascii;
    class       volVectorField;
    location    "7.3";
    object      Ur;
}
// * * * * * * * * * * * * * * * * * * * * * * * * * * * * * * * * * * * * * //

dimensions      [0 1 -1 0 0 0 0];

internalField   nonuniform List<vector> 
360
(
(0.000225369 4.30913e-08 0)
(0.000224214 2.58495e-07 0)
(0.000224021 4.71245e-07 0)
(0.000224179 6.6018e-07 0)
(0.000224266 8.48307e-07 0)
(0.000224297 1.0415e-06 0)
(0.000224331 1.23678e-06 0)
(0.000224373 1.43223e-06 0)
(0.000224416 1.62764e-06 0)
(0.000224459 1.82335e-06 0)
(0.000224504 2.01972e-06 0)
(0.000224548 2.2169e-06 0)
(0.000224593 2.41489e-06 0)
(0.000224638 2.61367e-06 0)
(0.000224683 2.81322e-06 0)
(0.000224729 3.01359e-06 0)
(0.000224775 3.21485e-06 0)
(0.000224822 3.41706e-06 0)
(0.000224869 3.62023e-06 0)
(0.000224917 3.82442e-06 0)
(0.000224964 4.02961e-06 0)
(0.000225013 4.23583e-06 0)
(0.000225062 4.4431e-06 0)
(0.000225111 4.65143e-06 0)
(0.000225161 4.86084e-06 0)
(0.000225212 5.07131e-06 0)
(0.000225262 5.28283e-06 0)
(0.000225314 5.49541e-06 0)
(0.000225366 5.70906e-06 0)
(0.000225418 5.92376e-06 0)
(0.000225471 6.13946e-06 0)
(0.000225525 6.3562e-06 0)
(0.000225578 6.5739e-06 0)
(0.000225633 6.79258e-06 0)
(0.000225688 7.0122e-06 0)
(0.000225744 7.23272e-06 0)
(0.0002258 7.45409e-06 0)
(0.000225857 7.67627e-06 0)
(0.000225915 7.89927e-06 0)
(0.000225972 8.12296e-06 0)
(0.000226031 8.34732e-06 0)
(0.000226091 8.57232e-06 0)
(0.00022615 8.7978e-06 0)
(0.000226211 9.02378e-06 0)
(0.000226272 9.25018e-06 0)
(0.000226334 9.47693e-06 0)
(0.000226397 9.704e-06 0)
(0.00022646 9.93122e-06 0)
(0.000226524 1.01586e-05 0)
(0.000226589 1.03862e-05 0)
(0.000226654 1.06139e-05 0)
(0.000226721 1.08418e-05 0)
(0.000226788 1.10698e-05 0)
(0.000226856 1.1298e-05 0)
(0.000226924 1.15264e-05 0)
(0.000226994 1.17549e-05 0)
(0.000227064 1.19836e-05 0)
(0.000227136 1.22125e-05 0)
(0.000227208 1.24416e-05 0)
(0.00022728 1.26709e-05 0)
(0.000227355 1.29005e-05 0)
(0.000227429 1.31304e-05 0)
(0.000227505 1.33608e-05 0)
(0.000227582 1.35917e-05 0)
(0.00022766 1.38229e-05 0)
(0.000227739 1.40544e-05 0)
(0.000227819 1.42859e-05 0)
(0.0002279 1.45174e-05 0)
(0.000227982 1.47485e-05 0)
(0.000228064 1.49788e-05 0)
(0.000228149 1.52084e-05 0)
(0.000228235 1.54369e-05 0)
(0.000228321 1.56641e-05 0)
(0.00022841 1.58897e-05 0)
(0.000228499 1.61134e-05 0)
(0.00022859 1.63348e-05 0)
(0.000228682 1.65535e-05 0)
(0.000228775 1.67689e-05 0)
(0.000228869 1.69807e-05 0)
(0.000228966 1.71885e-05 0)
(0.000229063 1.7392e-05 0)
(0.000229162 1.7591e-05 0)
(0.000229263 1.77854e-05 0)
(0.000229365 1.79753e-05 0)
(0.000229469 1.81608e-05 0)
(0.000229575 1.83418e-05 0)
(0.000229683 1.85185e-05 0)
(0.000229793 1.8691e-05 0)
(0.000229904 1.88593e-05 0)
(0.000230018 1.90236e-05 0)
(0.000230133 1.9184e-05 0)
(0.000230251 1.93408e-05 0)
(0.000230371 1.94943e-05 0)
(0.000230493 1.96449e-05 0)
(0.000230618 1.97929e-05 0)
(0.000230745 1.99387e-05 0)
(0.000230875 2.00828e-05 0)
(0.000231008 2.02254e-05 0)
(0.000231144 2.03671e-05 0)
(0.000231283 2.05079e-05 0)
(0.000231424 2.06484e-05 0)
(0.000231569 2.07888e-05 0)
(0.000231717 2.09293e-05 0)
(0.000231869 2.10703e-05 0)
(0.000232024 2.12119e-05 0)
(0.000232183 2.13544e-05 0)
(0.000232347 2.1498e-05 0)
(0.000232514 2.16428e-05 0)
(0.000232685 2.17889e-05 0)
(0.000232861 2.19365e-05 0)
(0.000233042 2.20856e-05 0)
(0.000233227 2.22364e-05 0)
(0.000233418 2.23887e-05 0)
(0.000233614 2.25427e-05 0)
(0.000233816 2.26983e-05 0)
(0.000234023 2.28556e-05 0)
(0.000234237 2.30145e-05 0)
(0.000234458 2.3175e-05 0)
(0.000234685 2.3337e-05 0)
(0.000234919 2.35006e-05 0)
(0.00023516 2.36658e-05 0)
(0.00023541 2.38325e-05 0)
(0.000235668 2.40007e-05 0)
(0.000235934 2.417e-05 0)
(0.00023621 2.43403e-05 0)
(0.000236495 2.45109e-05 0)
(0.000236791 2.46812e-05 0)
(0.000237098 2.485e-05 0)
(0.000237417 2.50159e-05 0)
(0.00023775 2.51771e-05 0)
(0.000238096 2.53311e-05 0)
(0.000238457 2.54754e-05 0)
(0.000238835 2.56075e-05 0)
(0.000239233 2.57259e-05 0)
(0.000239657 2.58301e-05 0)
(0.000240105 2.59207e-05 0)
(0.000240576 2.59989e-05 0)
(0.000241077 2.60667e-05 0)
(0.000241634 2.61274e-05 0)
(0.000242273 2.61851e-05 0)
(0.000242964 2.62402e-05 0)
(0.000243626 2.62803e-05 0)
(0.000244422 2.62991e-05 0)
(0.000245459 2.62922e-05 0)
(0.00024676 2.62396e-05 0)
(0.000249261 2.60896e-05 0)
(0.000255884 2.67812e-05 0)
(0.000257512 3.07061e-05 0)
(0.000260992 3.98126e-05 0)
(0.000380785 3.24753e-05 0)
(0.013678 0.000166214 0)
(0.0104313 0.0012049 0)
(0.0090492 0.00212178 0)
(0.00865505 0.00329505 0)
(0.00851078 0.00439557 0)
(0.0086203 0.00549061 0)
(0.00877512 0.00644045 0)
(0.00893703 0.00725155 0)
(0.0090906 0.0079285 0)
(0.00923003 0.00848419 0)
(0.00935364 0.00893414 0)
(0.00946136 0.00929373 0)
(0.00955361 0.00957709 0)
(0.00963085 0.00979678 0)
(0.0096933 0.00996376 0)
(0.0097409 0.0100875 0)
(0.00977334 0.0101759 0)
(0.00979 0.010236 0)
(0.00979007 0.0102735 0)
(0.00977254 0.0102933 0)
(0.00973622 0.0102994 0)
(0.00967984 0.0102951 0)
(0.00960201 0.0102831 0)
(0.00950129 0.0102655 0)
(0.00937621 0.010244 0)
(0.00922525 0.0102197 0)
(0.00904691 0.0101936 0)
(0.0088397 0.0101661 0)
(0.00860214 0.0101374 0)
(0.00833278 0.0101077 0)
(0.00803021 0.0100768 0)
(0.00769307 0.0100443 0)
(0.00732002 0.0100099 0)
(0.0069098 0.00997318 0)
(0.00646115 0.0099335 0)
(0.00597291 0.00989037 0)
(0.00544394 0.00984321 0)
(0.00487313 0.0097915 0)
(0.00425943 0.00973469 0)
(0.00360184 0.00967233 0)
(0.00289938 0.00960399 0)
(0.00215113 0.00952932 0)
(0.00135618 0.00944806 0)
(0.000513665 0.00936002 0)
(-0.000377252 0.00926514 0)
(-0.00131738 0.00916344 0)
(-0.00230753 0.00905505 0)
(-0.00334848 0.00894021 0)
(-0.00444103 0.00881925 0)
(-0.00558595 0.00869261 0)
(-0.00678409 0.00856082 0)
(-0.00804851 0.00842311 0)
(-0.00939251 0.00827855 0)
(-0.0108168 0.00812771 0)
(-0.0123221 0.00797132 0)
(-0.0139087 0.00781031 0)
(-0.0155767 0.00764572 0)
(-0.0173261 0.00747876 0)
(-0.0191562 0.0073107 0)
(-0.0210658 0.00714289 0)
(-0.0230532 0.00697668 0)
(-0.0251163 0.00681331 0)
(-0.027252 0.00665387 0)
(-0.0294567 0.00649928 0)
(-0.0317261 0.00635028 0)
(-0.0340553 0.00620733 0)
(-0.036439 0.0060706 0)
(-0.0388711 0.00594012 0)
(-0.0413454 0.00581572 0)
(-0.0438554 0.00569707 0)
(-0.0463946 0.00558374 0)
(-0.0489561 0.00547534 0)
(-0.0515329 0.0053715 0)
(-0.0541181 0.00527182 0)
(-0.0567049 0.00517597 0)
(-0.0592863 0.00508378 0)
(-0.0618556 0.00499508 0)
(-0.0644065 0.00490986 0)
(-0.0669333 0.00482813 0)
(-0.0694301 0.00475032 0)
(-0.0718934 0.0046767 0)
(-0.0743193 0.00460846 0)
(-0.076709 0.00454616 0)
(-0.0790596 0.00449493 0)
(-0.0813925 0.00445331 0)
(-0.0837498 0.00441496 0)
(-0.0859169 0.00438348 0)
(0.00665776 0.00176326 0)
(0.00648949 0.0037208 0)
(0.00652593 -0.00179371 0)
(0.00642418 0.00378385 0)
(0.00638138 -0.00384119 0)
(0.00633785 0.00365623 0)
(0.00477796 0.0347115 0)
(0.00450745 0.0395908 0)
(0.00453978 0.0395593 0)
(0.00445213 0.0395536 0)
(0.00435235 0.0395475 0)
(0.00430373 0.0395414 0)
(0.00424337 0.0395361 0)
(0.00419137 0.0395321 0)
(0.00414727 0.0395291 0)
(0.00411133 0.0395269 0)
(0.00408363 0.0395253 0)
(0.00406431 0.0395241 0)
(0.00405364 0.039523 0)
(0.00405214 0.0395219 0)
(0.00406083 0.0395202 0)
(0.00408117 0.0395176 0)
(0.00411326 0.0395118 0)
(0.00423295 0.0395028 0)
(0.00426276 0.0394982 0)
(0.0042642 0.0394974 0)
(0.00426424 0.0394974 0)
(0.00426424 0.0394974 0)
(0.00426425 0.0394974 0)
(0.00426425 0.0394974 0)
(0.00426425 0.0394974 0)
(0.00426425 0.0394974 0)
(0.00426425 0.0394974 0)
(0.00426425 0.0394974 0)
(0.00426425 0.0394974 0)
(0.00426425 0.0394974 0)
(0.00426425 0.0394974 0)
(0.00426425 0.0394974 0)
(0.00426425 0.0394974 0)
(0.00426425 0.0394974 0)
(0.00426425 0.0394974 0)
(0.00426425 0.0394974 0)
(0.00426425 0.0394974 0)
(0.00426425 0.0394974 0)
(0.00426425 0.0394974 0)
(0.00426425 0.0394974 0)
(0.00426425 0.0394974 0)
(0.00426425 0.0394974 0)
(0.00426425 0.0394974 0)
(0.00426425 0.0394974 0)
(0.00426425 0.0394974 0)
(0.00426425 0.0394974 0)
(0.00426425 0.0394974 0)
(0.00426425 0.0394974 0)
(0.00426425 0.0394974 0)
(0.00426425 0.0394974 0)
(0.00426425 0.0394974 0)
(0.00426425 0.0394974 0)
(0.00426425 0.0394974 0)
(0.00426425 0.0394974 0)
(0.00426425 0.0394974 0)
(0.00426425 0.0394974 0)
(0.00426425 0.0394974 0)
(0.00426425 0.0394974 0)
(0.00426425 0.0394974 0)
(0.00426425 0.0394974 0)
(0.00426425 0.0394974 0)
(0.00426425 0.0394974 0)
(0.00426425 0.0394974 0)
(0.00426425 0.0394974 0)
(0.00426425 0.0394974 0)
(0.00426425 0.0394974 0)
(0.00426425 0.0394974 0)
(0.00426425 0.0394974 0)
(0.00426425 0.0394974 0)
(0.00426425 0.0394974 0)
(0.00426425 0.0394974 0)
(0.00426425 0.0394974 0)
(0.00426425 0.0394974 0)
(0.00426425 0.0394974 0)
(0.00426425 0.0394974 0)
(0.00426425 0.0394974 0)
(0.00426425 0.0394974 0)
(0.00426425 0.0394974 0)
(0.00426425 0.0394974 0)
(0.00426425 0.0394974 0)
(0.00426425 0.0394974 0)
(0.00426425 0.0394974 0)
(0.00426425 0.0394974 0)
(0.00426425 0.0394974 0)
(0.00426425 0.0394974 0)
(0.00426425 0.0394974 0)
(0.00426425 0.0394974 0)
(0.00426425 0.0394974 0)
(0.00426425 0.0394974 0)
(0.00426425 0.0394974 0)
(0.00426425 0.0394974 0)
(0.00426425 0.0394974 0)
(0.00426425 0.0394974 0)
(0.00426425 0.0394974 0)
(0.00426425 0.0394974 0)
(0.00426425 0.0394974 0)
(0.00426425 0.0394974 0)
(0.00426425 0.0394974 0)
(0.00426425 0.0394974 0)
(0.00426425 0.0394974 0)
(0.00426425 0.0394974 0)
(0.00426425 0.0394974 0)
(0.00426425 0.0394974 0)
(0.00426425 0.0394974 0)
(0.00426425 0.0394974 0)
(0.00426425 0.0394974 0)
(0.00426425 0.0394974 0)
(0.00426425 0.0394974 0)
(0.00426425 0.0394974 0)
(0.00426425 0.0394974 0)
(0.00426425 0.0394974 0)
(0.00426425 0.0394974 0)
(0.00426425 0.0394974 0)
(0.00426429 0.0394972 0)
(0.00426548 0.0394887 0)
(0.00429437 0.0391429 0)
(0.00496498 0.0223971 0)
)
;

boundaryField
{
    inandouthalf11
    {
        type            cyclic;
    }
    inandouthalf12
    {
        type            cyclic;
    }
    inandouthalf21
    {
        type            cyclic;
    }
    inandouthalf22
    {
        type            cyclic;
    }
    inandouthalf31
    {
        type            cyclic;
    }
    inandouthalf32
    {
        type            cyclic;
    }
    inandouthalf41
    {
        type            cyclic;
    }
    inandouthalf42
    {
        type            cyclic;
    }
    top
    {
        type            symmetryPlane;
    }
    walls
    {
        type            calculated;
        value           uniform (0 0 0);
    }
    frontAndBackPlanes
    {
        type            empty;
    }
}


// ************************************************************************* //
