/*--------------------------------*- C++ -*----------------------------------*\
| =========                 |                                                 |
| \\      /  F ield         | OpenFOAM: The Open Source CFD Toolbox           |
|  \\    /   O peration     | Version:  2.4.x                                 |
|   \\  /    A nd           | Web:      www.OpenFOAM.org                      |
|    \\/     M anipulation  |                                                 |
\*---------------------------------------------------------------------------*/
FoamFile
{
    version     2.0;
    format      ascii;
    class       volScalarField;
    location    "7.7";
    object      alpha_0;
}
// * * * * * * * * * * * * * * * * * * * * * * * * * * * * * * * * * * * * * //

dimensions      [0 0 0 0 0 0 0];

internalField   nonuniform List<scalar> 
360
(
0.610813
0.61164
0.611739
0.611653
0.611607
0.611591
0.611573
0.611551
0.611528
0.611505
0.611482
0.611458
0.611435
0.611411
0.611387
0.611363
0.611338
0.611314
0.611289
0.611264
0.611239
0.611213
0.611187
0.611161
0.611135
0.611108
0.611082
0.611055
0.611027
0.611
0.610972
0.610944
0.610916
0.610887
0.610858
0.610829
0.610799
0.61077
0.610739
0.610709
0.610678
0.610647
0.610616
0.610584
0.610551
0.610519
0.610486
0.610453
0.610419
0.610385
0.610351
0.610316
0.610281
0.610245
0.610209
0.610172
0.610136
0.610098
0.61006
0.610022
0.609983
0.609944
0.609904
0.609864
0.609823
0.609782
0.60974
0.609698
0.609655
0.609612
0.609567
0.609522
0.609477
0.609431
0.609384
0.609337
0.609289
0.60924
0.60919
0.60914
0.609089
0.609037
0.608984
0.60893
0.608876
0.60882
0.608764
0.608706
0.608648
0.608588
0.608528
0.608466
0.608404
0.60834
0.608274
0.608208
0.60814
0.608071
0.608
0.607928
0.607855
0.607779
0.607702
0.607624
0.607543
0.607461
0.607377
0.607291
0.607202
0.607112
0.607019
0.606923
0.606825
0.606725
0.606622
0.606515
0.606406
0.606294
0.606178
0.606059
0.605936
0.605809
0.605678
0.605543
0.605404
0.60526
0.60511
0.604955
0.604794
0.604626
0.604451
0.604269
0.604078
0.603877
0.603664
0.603439
0.603204
0.602954
0.602677
0.60236
0.602018
0.601689
0.601293
0.600782
0.600144
0.598915
0.596364
0.596299
0.593991
0.458453
0.185626
0.0940187
0.0508278
0.0267608
0.0140543
0.00772588
0.00464051
0.00309438
0.00224959
0.00173528
0.00139426
0.00115353
0.000975349
0.000838553
0.000730459
0.000643038
0.000570968
0.000510596
0.000459331
0.00041529
0.000377074
0.000343619
0.000314109
0.000287903
0.000264495
0.000243476
0.000224519
0.000207352
0.000191752
0.000177533
0.000164538
0.000152632
0.000141701
0.000131647
0.000122383
0.000113832
0.000105929
9.86136e-05
9.18326e-05
8.55387e-05
7.96895e-05
7.42468e-05
6.91761e-05
6.44458e-05
6.00269e-05
5.58924e-05
5.20176e-05
4.83797e-05
4.49574e-05
4.17315e-05
3.86857e-05
3.57782e-05
3.29767e-05
3.02799e-05
2.76879e-05
2.52024e-05
2.28282e-05
2.05711e-05
1.8438e-05
1.64348e-05
1.45673e-05
1.2839e-05
1.12536e-05
9.81413e-06
8.51733e-06
7.3558e-06
6.32516e-06
5.41847e-06
4.62363e-06
3.92947e-06
3.3259e-06
2.80551e-06
2.35854e-06
1.9737e-06
1.64547e-06
1.36694e-06
1.1304e-06
9.30314e-07
7.61939e-07
6.20129e-07
5.02384e-07
4.02412e-07
3.23644e-07
2.594e-07
2.11194e-07
1.43256e-07
9.76024e-08
7.58355e-08
5.09287e-08
3.50683e-08
1.93037e-08
1.21568e-08
2.36073e-09
5.8405e-20
7.27656e-31
1.0292e-38
6.60116e-39
4.77384e-39
3.72727e-39
2.68506e-39
1.46242e-39
6.04345e-40
3.00075e-40
1.70314e-40
1.06297e-40
7.0501e-41
4.21853e-41
1.90442e-41
9.34882e-42
4.99854e-42
2.79289e-42
1.52564e-42
7.40494e-43
3.72511e-43
1.88143e-43
9.35429e-44
4.57848e-44
2.20319e-44
1.04177e-44
4.83761e-45
2.20482e-45
9.8566e-46
4.31923e-46
1.85399e-46
7.78959e-47
3.20101e-47
1.2855e-47
5.04061e-48
1.92807e-48
7.18722e-49
2.60818e-49
9.20367e-50
3.15433e-50
1.0486e-50
3.37644e-51
1.05147e-51
3.16159e-52
9.16244e-53
2.55425e-53
6.83486e-54
1.7514e-54
4.2864e-55
9.99058e-56
2.21035e-56
4.62499e-57
9.11433e-58
1.68355e-58
2.89873e-59
4.62228e-60
6.77365e-61
9.03802e-62
1.08552e-62
1.15678e-63
1.0734e-64
8.45524e-66
5.45155e-67
2.71863e-68
9.48394e-70
1.83841e-71
5.31395e-74
1.02628e-78
8.9175e-81
3.84234e-83
1.32516e-93
2.28344e-104
2.84308e-115
2.54467e-126
1.94878e-137
1.12971e-148
5.65982e-160
4.50252e-170
1.9202e-180
1.48279e-188
5.69399e-199
5.10023e-207
2.29579e-217
1.75492e-225
9.6904e-236
6.04328e-244
6.1579e-254
2.11498e-262
4.05024e-272
7.57424e-281
2.00016e-290
2.77014e-299
9.53236e-309
9.54488e-318
7.87047e-321
4.57737e-319
2.8055e-319
6.80328e-321
7.09478e-321
6.08689e-321
8.5424e-321
0
0
0
0
0
0
0
0
0
0
0
0
0
0
0
0
)
;

boundaryField
{
    inandouthalf11
    {
        type            cyclic;
    }
    inandouthalf12
    {
        type            cyclic;
    }
    inandouthalf21
    {
        type            cyclic;
    }
    inandouthalf22
    {
        type            cyclic;
    }
    inandouthalf31
    {
        type            cyclic;
    }
    inandouthalf32
    {
        type            cyclic;
    }
    inandouthalf41
    {
        type            cyclic;
    }
    inandouthalf42
    {
        type            cyclic;
    }
    top
    {
        type            symmetryPlane;
    }
    walls
    {
        type            zeroGradient;
    }
    frontAndBackPlanes
    {
        type            empty;
    }
}


// ************************************************************************* //
