/*--------------------------------*- C++ -*----------------------------------*\
| =========                 |                                                 |
| \\      /  F ield         | OpenFOAM: The Open Source CFD Toolbox           |
|  \\    /   O peration     | Version:  2.4.x                                 |
|   \\  /    A nd           | Web:      www.OpenFOAM.org                      |
|    \\/     M anipulation  |                                                 |
\*---------------------------------------------------------------------------*/
FoamFile
{
    version     2.0;
    format      ascii;
    class       volScalarField;
    location    "7.7";
    object      ddt0(epsilon);
}
// * * * * * * * * * * * * * * * * * * * * * * * * * * * * * * * * * * * * * //

dimensions      [0 2 -4 0 0 0 0];

internalField   nonuniform List<scalar> 
360
(
0
0
0
0
0
0
0
0
0
0
0
0
0
0
0
0
0
0
0
0
0
0
0
0
0
0
0
0
0
0
0
0
0
0
0
0
0
0
0
0
0
0
0
0
0
0
0
0
0
0
0
0
0
0
0
0
0
0
0
0
0
0
0
0
0
0
0
0
0
0
0
0
0
0
0
0
0
0
0
0
0
0
0
0
0
0
0
0
0
0
0
0
0
0
0
0
0
0
0
0
0
0
0
0
0
0
0
0
0
0
0
0
0
0
0
0
0
0
0
0
0
0
0
0
0
0
0
0
0
0
0
0
0
-2.18698e-20
-1.33166e-19
-7.8449e-19
-4.31296e-18
-2.12465e-17
-9.13592e-17
-3.34673e-16
-9.44548e-16
1.62902e-15
1.27051e-13
4.2451e-12
1.53597e-10
6.46026e-09
3.22319e-07
1.92299e-05
0.00138975
0.0923564
0.631323
0.470707
0.456489
0.356909
0.236441
0.140151
0.0798901
0.0459273
0.0269493
0.0158986
0.00907128
0.00458562
0.00146484
-0.000819008
-0.00256415
-0.00394627
-0.00507288
-0.00601201
-0.00680809
-0.00749088
-0.00808088
-0.00859257
-0.00903644
-0.00942031
-0.00975021
-0.0100309
-0.0102663
-0.0104597
-0.0106139
-0.0107317
-0.0108152
-0.0108668
-0.0108885
-0.0108822
-0.0108499
-0.0107934
-0.0107145
-0.0106147
-0.0104958
-0.0103593
-0.0102067
-0.0100394
-0.00985897
-0.00966656
-0.00946347
-0.0092509
-0.00902996
-0.00880173
-0.00856721
-0.00832739
-0.00808323
-0.00783314
-0.00757529
-0.00731028
-0.0070387
-0.00676113
-0.00647817
-0.00619046
-0.00589867
-0.0056035
-0.00530567
-0.00500593
-0.00470504
-0.00440377
-0.00410291
-0.00380326
-0.00350561
-0.00321079
-0.0029196
-0.00263286
-0.00235138
-0.00207599
-0.00180748
-0.00154666
-0.00129434
-0.0010513
-0.00081833
-0.000596209
-0.000385704
-0.000187572
-2.56082e-06
0.000168595
0.000325175
0.000466477
0.00059182
0.000700558
0.000792083
0.00086585
0.000921394
0.000958368
0.000976584
0.000976074
0.00095716
0.000920551
0.000867442
0.000799624
0.000719584
0.000630551
0.000536458
0.000441756
0.000351048
0.000268561
0.000197565
0.000139919
9.59113e-05
6.44554e-05
4.35076e-05
3.05238e-05
2.28198e-05
1.78272e-05
1.33249e-05
5.96746e-06
6.62228e-07
1.98496e-08
4.47199e-10
9.5138e-12
1.92052e-13
3.67186e-15
6.6387e-17
1.13065e-18
7.35229e-21
0
0
0
0
0
0
0
0
0
0
0
0
0
0
0
0
0
0
0
0
0
0
0
0
0
0
0
0
0
0
0
0
0
0
0
0
0
0
0
0
0
0
0
0
0
0
0
0
0
0
0
0
0
0
0
0
0
0
0
0
0
0
0
0
0
0
0
0
0
0
0
0
0
0
0
0
0
0
0
0
0
0
0
0
0
0
0
0
0
)
;

boundaryField
{
    inandouthalf11
    {
        type            cyclic;
    }
    inandouthalf12
    {
        type            cyclic;
    }
    inandouthalf21
    {
        type            cyclic;
    }
    inandouthalf22
    {
        type            cyclic;
    }
    inandouthalf31
    {
        type            cyclic;
    }
    inandouthalf32
    {
        type            cyclic;
    }
    inandouthalf41
    {
        type            cyclic;
    }
    inandouthalf42
    {
        type            cyclic;
    }
    top
    {
        type            symmetryPlane;
    }
    walls
    {
        type            calculated;
        value           uniform 0;
    }
    frontAndBackPlanes
    {
        type            empty;
    }
}


// ************************************************************************* //
