/*--------------------------------*- C++ -*----------------------------------*\
| =========                 |                                                 |
| \\      /  F ield         | OpenFOAM: The Open Source CFD Toolbox           |
|  \\    /   O peration     | Version:  2.4.x                                 |
|   \\  /    A nd           | Web:      www.OpenFOAM.org                      |
|    \\/     M anipulation  |                                                 |
\*---------------------------------------------------------------------------*/
FoamFile
{
    version     2.0;
    format      ascii;
    class       surfaceScalarField;
    location    "7.7";
    object      ddt0(phib);
}
// * * * * * * * * * * * * * * * * * * * * * * * * * * * * * * * * * * * * * //

dimensions      [0 3 -2 0 0 0 0];

internalField   nonuniform List<scalar> 
359
(
-1.26738e-13
-3.24299e-13
-4.82786e-13
-6.11473e-13
-7.31822e-13
-8.49901e-13
-9.66567e-13
-1.08299e-12
-1.20089e-12
-1.32209e-12
-1.44807e-12
-1.57978e-12
-1.71801e-12
-1.86331e-12
-2.01616e-12
-2.17684e-12
-2.34568e-12
-2.52282e-12
-2.7083e-12
-2.90202e-12
-3.10398e-12
-3.31389e-12
-3.53162e-12
-3.75682e-12
-3.98922e-12
-4.22843e-12
-4.47413e-12
-4.72596e-12
-4.98366e-12
-5.24672e-12
-5.51491e-12
-5.78787e-12
-6.06526e-12
-6.34687e-12
-6.63236e-12
-6.92149e-12
-7.21398e-12
-7.50962e-12
-7.80836e-12
-8.10973e-12
-8.4138e-12
-8.72027e-12
-9.02887e-12
-9.33958e-12
-9.65222e-12
-9.96649e-12
-1.02825e-11
-1.05996e-11
-1.09179e-11
-1.12375e-11
-1.1558e-11
-1.18793e-11
-1.22014e-11
-1.25241e-11
-1.28471e-11
-1.31705e-11
-1.34939e-11
-1.38173e-11
-1.41407e-11
-1.44639e-11
-1.47874e-11
-1.5111e-11
-1.54353e-11
-1.57601e-11
-1.60858e-11
-1.64121e-11
-1.67394e-11
-1.70676e-11
-1.7397e-11
-1.77275e-11
-1.80599e-11
-1.83945e-11
-1.87315e-11
-1.90711e-11
-1.94137e-11
-1.97592e-11
-2.01072e-11
-2.04572e-11
-2.08088e-11
-2.11616e-11
-2.1515e-11
-2.18684e-11
-2.22216e-11
-2.25739e-11
-2.29246e-11
-2.32727e-11
-2.3617e-11
-2.39561e-11
-2.42887e-11
-2.46129e-11
-2.49277e-11
-2.52314e-11
-2.55232e-11
-2.58017e-11
-2.60664e-11
-2.63163e-11
-2.6551e-11
-2.67697e-11
-2.69722e-11
-2.71578e-11
-2.73269e-11
-2.7479e-11
-2.76145e-11
-2.77335e-11
-2.78366e-11
-2.79239e-11
-2.79963e-11
-2.80542e-11
-2.80983e-11
-2.81292e-11
-2.81477e-11
-2.81543e-11
-2.81499e-11
-2.81348e-11
-2.81102e-11
-2.80763e-11
-2.8034e-11
-2.79841e-11
-2.79275e-11
-2.7865e-11
-2.7798e-11
-2.77274e-11
-2.76548e-11
-2.75817e-11
-2.75097e-11
-2.74401e-11
-2.73742e-11
-2.73129e-11
-2.72567e-11
-2.72054e-11
-2.71587e-11
-2.71153e-11
-2.70742e-11
-2.7034e-11
-2.69943e-11
-2.69548e-11
-2.69163e-11
-2.6879e-11
-2.68434e-11
-2.68117e-11
-2.67878e-11
-2.67639e-11
-2.67267e-11
-2.66704e-11
-2.65738e-11
-2.62488e-11
-1.1656e-11
-8.16458e-11
7.94071e-11
-1.15298e-08
-6.21206e-09
-6.89498e-09
-5.78449e-09
-3.99194e-09
-2.42985e-09
-1.38005e-09
-7.74626e-10
-4.65985e-10
-3.10891e-10
-2.2384e-10
-1.70137e-10
-1.34376e-10
-1.09144e-10
-9.05301e-11
-7.63134e-11
-6.51578e-11
-5.62144e-11
-4.89197e-11
-4.28856e-11
-3.78356e-11
-3.35678e-11
-2.9931e-11
-2.68096e-11
-2.41138e-11
-2.17729e-11
-1.97299e-11
-1.79389e-11
-1.63621e-11
-1.49685e-11
-1.37319e-11
-1.26308e-11
-1.16465e-11
-1.07636e-11
-9.96866e-12
-9.25037e-12
-8.59889e-12
-8.00587e-12
-7.46395e-12
-6.96697e-12
-6.50943e-12
-6.08678e-12
-5.69497e-12
-5.33066e-12
-4.99077e-12
-4.67271e-12
-4.3741e-12
-4.09293e-12
-3.8273e-12
-3.57556e-12
-3.33609e-12
-3.1077e-12
-2.88522e-12
-2.66881e-12
-2.45851e-12
-2.2546e-12
-2.05736e-12
-1.86754e-12
-1.68582e-12
-1.5132e-12
-1.35033e-12
-1.19804e-12
-1.05665e-12
-9.26826e-13
-8.08884e-13
-7.02823e-13
-6.08003e-13
-5.24354e-13
-4.51177e-13
-3.87673e-13
-3.32569e-13
-2.85194e-13
-2.44584e-13
-2.1013e-13
-1.80652e-13
-1.5584e-13
-1.34816e-13
-1.17237e-13
-1.02339e-13
-8.99941e-14
-7.94786e-14
-7.07871e-14
-6.33311e-14
-5.74206e-14
-5.27089e-14
-4.83924e-14
-4.34079e-14
-3.9555e-14
-3.59324e-14
-3.37306e-14
-3.18755e-14
-3.06792e-14
-2.94188e-14
-2.85189e-14
-2.73718e-14
-2.65472e-14
-2.54966e-14
-2.46706e-14
-2.36162e-14
-2.27895e-14
-2.17428e-14
-2.09285e-14
-1.99142e-14
-1.91323e-14
-1.8164e-14
-1.74219e-14
-1.64956e-14
-1.57824e-14
-1.48989e-14
-1.423e-14
-1.34462e-14
-1.2818e-14
-1.21001e-14
-1.15382e-14
-1.08478e-14
-1.01534e-14
-9.35596e-15
-8.67361e-15
-7.97126e-15
-7.30703e-15
-6.68413e-15
-6.15378e-15
-5.64999e-15
-5.07451e-15
-4.55611e-15
-4.08842e-15
-3.72586e-15
-3.30715e-15
-3.00684e-15
-2.73402e-15
-2.56248e-15
-2.16318e-15
-1.85019e-15
-1.55691e-15
-1.38836e-15
-1.12594e-15
-9.92337e-16
-8.69389e-16
-8.61344e-16
-6.71759e-16
-5.91542e-16
-5.16742e-16
-5.58536e-16
-4.91883e-16
-5.65746e-16
-6.29213e-16
-9.27486e-16
-4.74089e-16
-2.63256e-16
-2.91941e-17
8.06855e-17
3.02694e-16
4.19286e-16
5.48629e-16
5.83442e-16
8.01241e-16
9.11686e-16
1.02711e-15
1.00869e-15
1.11781e-15
1.06374e-15
1.01816e-15
8.62911e-16
1.02571e-15
1.05099e-15
1.09181e-15
9.61492e-16
9.68782e-16
7.96723e-16
6.36524e-16
3.23203e-16
2.61769e-16
2.47075e-17
-2.05049e-16
-6.04128e-16
-9.07389e-16
-1.32282e-15
-1.68989e-15
-1.46956e-15
-2.94679e-15
-4.47471e-15
-6.01316e-15
-9.20252e-15
-1.07991e-14
-1.50311e-14
-1.91865e-14
-2.61314e-14
-2.83793e-14
-3.38604e-14
-3.93049e-14
-4.83092e-14
-5.52237e-14
-6.48636e-14
-7.48624e-14
-8.58183e-14
-1.01781e-13
-1.16649e-13
-1.31791e-13
-1.43727e-13
-1.61278e-13
-1.70736e-13
-1.816e-13
-1.76124e-13
-2.17073e-13
-2.3023e-13
-2.44686e-13
-2.13105e-13
-2.43558e-13
-1.8769e-13
-1.1388e-13
)
;

boundaryField
{
    inandouthalf11
    {
        type            cyclic;
        value           nonuniform List<scalar> 
100
(
-5.83759e-11
-5.80223e-11
-5.8019e-11
-5.80955e-11
-5.8139e-11
-5.81697e-11
-5.82048e-11
-5.82434e-11
-5.82824e-11
-5.83212e-11
-5.83599e-11
-5.83986e-11
-5.84373e-11
-5.8476e-11
-5.85146e-11
-5.85531e-11
-5.85916e-11
-5.86299e-11
-5.86682e-11
-5.87065e-11
-5.87447e-11
-5.87829e-11
-5.88212e-11
-5.88595e-11
-5.88979e-11
-5.89364e-11
-5.8975e-11
-5.90139e-11
-5.90528e-11
-5.9092e-11
-5.91313e-11
-5.91709e-11
-5.92107e-11
-5.92509e-11
-5.92912e-11
-5.93319e-11
-5.93728e-11
-5.9414e-11
-5.94556e-11
-5.94973e-11
-5.95396e-11
-5.95821e-11
-5.96249e-11
-5.96682e-11
-5.97117e-11
-5.97556e-11
-5.97999e-11
-5.98445e-11
-5.98895e-11
-5.9935e-11
-5.99806e-11
-6.00268e-11
-6.00733e-11
-6.01202e-11
-6.01675e-11
-6.02152e-11
-6.02633e-11
-6.03118e-11
-6.03607e-11
-6.04099e-11
-6.04596e-11
-6.05094e-11
-6.05597e-11
-6.06104e-11
-6.06614e-11
-6.07128e-11
-6.07645e-11
-6.08167e-11
-6.08691e-11
-6.09218e-11
-6.09749e-11
-6.10283e-11
-6.10818e-11
-6.11357e-11
-6.119e-11
-6.12447e-11
-6.12996e-11
-6.13551e-11
-6.14109e-11
-6.14672e-11
-6.15238e-11
-6.15808e-11
-6.16382e-11
-6.1696e-11
-6.17543e-11
-6.18131e-11
-6.18724e-11
-6.19323e-11
-6.19928e-11
-6.20539e-11
-6.21156e-11
-6.21777e-11
-6.22405e-11
-6.23037e-11
-6.23675e-11
-6.24318e-11
-6.24966e-11
-6.25619e-11
-6.26277e-11
-6.26941e-11
)
;
    }
    inandouthalf12
    {
        type            cyclic;
        value           nonuniform List<scalar> 
100
(
5.83759e-11
5.80223e-11
5.8019e-11
5.80955e-11
5.8139e-11
5.81697e-11
5.82048e-11
5.82434e-11
5.82824e-11
5.83212e-11
5.83599e-11
5.83986e-11
5.84373e-11
5.8476e-11
5.85146e-11
5.85531e-11
5.85916e-11
5.86299e-11
5.86682e-11
5.87065e-11
5.87447e-11
5.87829e-11
5.88212e-11
5.88595e-11
5.88979e-11
5.89364e-11
5.8975e-11
5.90139e-11
5.90528e-11
5.9092e-11
5.91313e-11
5.91709e-11
5.92107e-11
5.92509e-11
5.92912e-11
5.93319e-11
5.93728e-11
5.9414e-11
5.94556e-11
5.94973e-11
5.95396e-11
5.95821e-11
5.96249e-11
5.96682e-11
5.97117e-11
5.97556e-11
5.97999e-11
5.98445e-11
5.98895e-11
5.9935e-11
5.99806e-11
6.00268e-11
6.00733e-11
6.01202e-11
6.01675e-11
6.02152e-11
6.02633e-11
6.03118e-11
6.03607e-11
6.04099e-11
6.04596e-11
6.05094e-11
6.05597e-11
6.06104e-11
6.06614e-11
6.07128e-11
6.07645e-11
6.08167e-11
6.08691e-11
6.09218e-11
6.09749e-11
6.10283e-11
6.10818e-11
6.11357e-11
6.119e-11
6.12447e-11
6.12996e-11
6.13551e-11
6.14109e-11
6.14672e-11
6.15238e-11
6.15808e-11
6.16382e-11
6.1696e-11
6.17543e-11
6.18131e-11
6.18724e-11
6.19323e-11
6.19928e-11
6.20539e-11
6.21156e-11
6.21777e-11
6.22405e-11
6.23037e-11
6.23675e-11
6.24318e-11
6.24966e-11
6.25619e-11
6.26277e-11
6.26941e-11
)
;
    }
    inandouthalf21
    {
        type            cyclic;
        value           nonuniform List<scalar> 
100
(
-6.2761e-11
-6.28284e-11
-6.28963e-11
-6.29647e-11
-6.30335e-11
-6.31028e-11
-6.31726e-11
-6.32429e-11
-6.33137e-11
-6.3385e-11
-6.34568e-11
-6.35292e-11
-6.36022e-11
-6.36758e-11
-6.37501e-11
-6.38251e-11
-6.3901e-11
-6.39778e-11
-6.40556e-11
-6.41345e-11
-6.42147e-11
-6.42964e-11
-6.43797e-11
-6.4465e-11
-6.45525e-11
-6.46424e-11
-6.47351e-11
-6.48309e-11
-6.49303e-11
-6.50335e-11
-6.51409e-11
-6.52523e-11
-6.5368e-11
-6.54884e-11
-6.56143e-11
-6.57453e-11
-6.58808e-11
-6.60227e-11
-6.6178e-11
-6.63553e-11
-6.65503e-11
-6.67463e-11
-6.69794e-11
-6.72695e-11
-6.76302e-11
-6.83761e-11
-6.6543e-11
-7.56292e-11
-5.83792e-10
-2.16444e-07
-3.61256e-07
-3.60362e-07
-4.67976e-07
-6.05538e-07
-7.51198e-07
-8.75843e-07
-9.64994e-07
-1.02317e-06
-1.0607e-06
-1.0858e-06
-1.10355e-06
-1.11686e-06
-1.12742e-06
-1.1362e-06
-1.14381e-06
-1.15061e-06
-1.15683e-06
-1.16264e-06
-1.16814e-06
-1.17339e-06
-1.17844e-06
-1.18333e-06
-1.18807e-06
-1.19269e-06
-1.19719e-06
-1.20159e-06
-1.20587e-06
-1.21006e-06
-1.21415e-06
-1.21815e-06
-1.22205e-06
-1.22586e-06
-1.22958e-06
-1.23321e-06
-1.23675e-06
-1.2402e-06
-1.24357e-06
-1.24685e-06
-1.25005e-06
-1.25316e-06
-1.25619e-06
-1.25914e-06
-1.26201e-06
-1.2648e-06
-1.26752e-06
-1.27016e-06
-1.27272e-06
-1.27521e-06
-1.27762e-06
-1.27995e-06
)
;
    }
    inandouthalf22
    {
        type            cyclic;
        value           nonuniform List<scalar> 
100
(
6.2761e-11
6.28284e-11
6.28963e-11
6.29647e-11
6.30335e-11
6.31028e-11
6.31726e-11
6.32429e-11
6.33137e-11
6.3385e-11
6.34568e-11
6.35292e-11
6.36022e-11
6.36758e-11
6.37501e-11
6.38251e-11
6.3901e-11
6.39778e-11
6.40556e-11
6.41345e-11
6.42147e-11
6.42964e-11
6.43797e-11
6.4465e-11
6.45525e-11
6.46424e-11
6.47351e-11
6.48309e-11
6.49303e-11
6.50335e-11
6.51409e-11
6.52523e-11
6.5368e-11
6.54884e-11
6.56143e-11
6.57453e-11
6.58808e-11
6.60227e-11
6.6178e-11
6.63553e-11
6.65503e-11
6.67463e-11
6.69794e-11
6.72695e-11
6.76302e-11
6.83761e-11
6.6543e-11
7.56292e-11
5.83792e-10
2.16444e-07
3.61256e-07
3.60362e-07
4.67976e-07
6.05538e-07
7.51198e-07
8.75843e-07
9.64994e-07
1.02317e-06
1.0607e-06
1.0858e-06
1.10355e-06
1.11686e-06
1.12742e-06
1.1362e-06
1.14381e-06
1.15061e-06
1.15683e-06
1.16264e-06
1.16814e-06
1.17339e-06
1.17844e-06
1.18333e-06
1.18807e-06
1.19269e-06
1.19719e-06
1.20159e-06
1.20587e-06
1.21006e-06
1.21415e-06
1.21815e-06
1.22205e-06
1.22586e-06
1.22958e-06
1.23321e-06
1.23675e-06
1.2402e-06
1.24357e-06
1.24685e-06
1.25005e-06
1.25316e-06
1.25619e-06
1.25914e-06
1.26201e-06
1.2648e-06
1.26752e-06
1.27016e-06
1.27272e-06
1.27521e-06
1.27762e-06
1.27995e-06
)
;
    }
    inandouthalf31
    {
        type            cyclic;
        value           nonuniform List<scalar> 
110
(
-1.28221e-06
-1.31048e-06
-1.33934e-06
-1.36879e-06
-1.39886e-06
-1.42955e-06
-1.46089e-06
-1.49287e-06
-1.52552e-06
-1.55884e-06
-1.59284e-06
-1.62754e-06
-1.66294e-06
-1.69906e-06
-1.7359e-06
-1.77348e-06
-1.8118e-06
-1.85087e-06
-1.89071e-06
-1.93132e-06
-1.97271e-06
-2.01489e-06
-2.05787e-06
-2.10165e-06
-2.14625e-06
-2.19166e-06
-2.2379e-06
-2.28496e-06
-2.33285e-06
-2.38158e-06
-2.43113e-06
-2.48151e-06
-2.53271e-06
-2.58472e-06
-2.63754e-06
-2.69114e-06
-2.74551e-06
-2.80063e-06
-2.85646e-06
-2.91297e-06
-2.97013e-06
-3.02788e-06
-3.08618e-06
-3.14497e-06
-3.20422e-06
-3.26389e-06
-3.32395e-06
-3.38444e-06
-3.44541e-06
-3.507e-06
-3.56943e-06
-3.63298e-06
-3.69796e-06
-3.76471e-06
-3.83353e-06
-3.90467e-06
-3.97832e-06
-4.05467e-06
-4.13389e-06
-4.21616e-06
-4.30171e-06
-4.39258e-06
-4.48726e-06
-4.57927e-06
-4.67225e-06
-4.76708e-06
-4.86384e-06
-4.96256e-06
-5.06329e-06
-5.16606e-06
-5.27092e-06
-5.3779e-06
-5.48706e-06
-5.59843e-06
-5.71207e-06
-5.82801e-06
-5.9463e-06
-6.06699e-06
-6.19014e-06
-6.31578e-06
-6.44397e-06
-6.57477e-06
-6.70822e-06
-6.84438e-06
-6.9833e-06
-7.12504e-06
-7.26966e-06
-7.41722e-06
-7.56777e-06
-7.72137e-06
-7.8781e-06
-8.038e-06
-8.20115e-06
-8.36761e-06
-8.53745e-06
-8.71074e-06
-8.88755e-06
-9.06794e-06
-9.25199e-06
-9.43978e-06
-9.63139e-06
-9.82688e-06
-1.00263e-05
-1.02298e-05
-1.04375e-05
-1.06493e-05
-1.08655e-05
-1.1086e-05
-1.1311e-05
-1.15406e-05
)
;
    }
    inandouthalf32
    {
        type            cyclic;
        value           nonuniform List<scalar> 
110
(
1.28221e-06
1.31048e-06
1.33934e-06
1.36879e-06
1.39886e-06
1.42955e-06
1.46089e-06
1.49287e-06
1.52552e-06
1.55884e-06
1.59284e-06
1.62754e-06
1.66294e-06
1.69906e-06
1.7359e-06
1.77348e-06
1.8118e-06
1.85087e-06
1.89071e-06
1.93132e-06
1.97271e-06
2.01489e-06
2.05787e-06
2.10165e-06
2.14625e-06
2.19166e-06
2.2379e-06
2.28496e-06
2.33285e-06
2.38158e-06
2.43113e-06
2.48151e-06
2.53271e-06
2.58472e-06
2.63754e-06
2.69114e-06
2.74551e-06
2.80063e-06
2.85646e-06
2.91297e-06
2.97013e-06
3.02788e-06
3.08618e-06
3.14497e-06
3.20422e-06
3.26389e-06
3.32395e-06
3.38444e-06
3.44541e-06
3.507e-06
3.56943e-06
3.63298e-06
3.69796e-06
3.76471e-06
3.83353e-06
3.90467e-06
3.97832e-06
4.05467e-06
4.13389e-06
4.21616e-06
4.30171e-06
4.39258e-06
4.48726e-06
4.57927e-06
4.67225e-06
4.76708e-06
4.86384e-06
4.96256e-06
5.06329e-06
5.16606e-06
5.27092e-06
5.3779e-06
5.48706e-06
5.59843e-06
5.71207e-06
5.82801e-06
5.9463e-06
6.06699e-06
6.19014e-06
6.31578e-06
6.44397e-06
6.57477e-06
6.70822e-06
6.84438e-06
6.9833e-06
7.12504e-06
7.26966e-06
7.41722e-06
7.56777e-06
7.72137e-06
7.8781e-06
8.038e-06
8.20115e-06
8.36761e-06
8.53745e-06
8.71074e-06
8.88755e-06
9.06794e-06
9.25199e-06
9.43978e-06
9.63139e-06
9.82688e-06
1.00263e-05
1.02298e-05
1.04375e-05
1.06493e-05
1.08655e-05
1.1086e-05
1.1311e-05
1.15406e-05
)
;
    }
    inandouthalf41
    {
        type            cyclic;
        value           nonuniform List<scalar> 
50
(
-1.033e-05
-1.033e-05
-1.033e-05
-1.033e-05
-1.033e-05
-1.033e-05
-1.033e-05
-1.033e-05
-1.033e-05
-1.033e-05
-1.033e-05
-1.033e-05
-1.033e-05
-1.033e-05
-1.033e-05
-1.033e-05
-1.033e-05
-1.033e-05
-1.033e-05
-1.033e-05
-1.033e-05
-1.033e-05
-1.033e-05
-1.033e-05
-1.033e-05
-1.033e-05
-1.033e-05
-1.033e-05
-1.033e-05
-1.033e-05
-1.033e-05
-1.033e-05
-1.033e-05
-1.033e-05
-1.033e-05
-1.033e-05
-1.033e-05
-1.033e-05
-1.033e-05
-1.033e-05
-1.033e-05
-1.033e-05
-1.033e-05
-1.033e-05
-1.033e-05
-1.033e-05
-1.033e-05
-1.033e-05
-1.033e-05
-1.033e-05
)
;
    }
    inandouthalf42
    {
        type            cyclic;
        value           nonuniform List<scalar> 
50
(
1.033e-05
1.033e-05
1.033e-05
1.033e-05
1.033e-05
1.033e-05
1.033e-05
1.033e-05
1.033e-05
1.033e-05
1.033e-05
1.033e-05
1.033e-05
1.033e-05
1.033e-05
1.033e-05
1.033e-05
1.033e-05
1.033e-05
1.033e-05
1.033e-05
1.033e-05
1.033e-05
1.033e-05
1.033e-05
1.033e-05
1.033e-05
1.033e-05
1.033e-05
1.033e-05
1.033e-05
1.033e-05
1.033e-05
1.033e-05
1.033e-05
1.033e-05
1.033e-05
1.033e-05
1.033e-05
1.033e-05
1.033e-05
1.033e-05
1.033e-05
1.033e-05
1.033e-05
1.033e-05
1.033e-05
1.033e-05
1.033e-05
1.033e-05
)
;
    }
    top
    {
        type            symmetryPlane;
        value           uniform 0;
    }
    walls
    {
        type            calculated;
        value           uniform 0;
    }
    frontAndBackPlanes
    {
        type            empty;
        value           nonuniform 0();
    }
}


// ************************************************************************* //
