/*--------------------------------*- C++ -*----------------------------------*\
| =========                 |                                                 |
| \\      /  F ield         | OpenFOAM: The Open Source CFD Toolbox           |
|  \\    /   O peration     | Version:  2.4.x                                 |
|   \\  /    A nd           | Web:      www.OpenFOAM.org                      |
|    \\/     M anipulation  |                                                 |
\*---------------------------------------------------------------------------*/
FoamFile
{
    version     2.0;
    format      ascii;
    class       volScalarField;
    location    "7.7";
    object      epsilon_0;
}
// * * * * * * * * * * * * * * * * * * * * * * * * * * * * * * * * * * * * * //

dimensions      [0 2 -3 0 0 0 0];

internalField   nonuniform List<scalar> 
360
(
1.60309e-27
1e-20
1e-20
1e-20
1e-20
1e-20
1e-20
1e-20
1e-20
1e-20
1e-20
1e-20
1e-20
1e-20
1e-20
1e-20
1e-20
1e-20
1e-20
1e-20
1e-20
1e-20
1e-20
1e-20
1e-20
1e-20
1e-20
1e-20
1e-20
1e-20
1e-20
1e-20
1e-20
1e-20
1e-20
1e-20
1e-20
1e-20
1e-20
1e-20
1e-20
1e-20
1e-20
1e-20
1e-20
1e-20
1e-20
1e-20
1e-20
1e-20
1e-20
1e-20
1e-20
1e-20
1e-20
1e-20
1e-20
1e-20
1e-20
1e-20
1e-20
1e-20
1e-20
1e-20
1e-20
1e-20
1e-20
1e-20
1e-20
1e-20
1e-20
1e-20
1e-20
1e-20
1e-20
1e-20
1e-20
1e-20
1e-20
1e-20
1e-20
1e-20
1e-20
1e-20
1e-20
1e-20
1e-20
1e-20
1e-20
1e-20
1e-20
1e-20
1e-20
1e-20
1e-20
1e-20
1e-20
1e-20
1e-20
1e-20
1e-20
1e-20
1e-20
1e-20
1e-20
1e-20
1e-20
1e-20
1e-20
1e-20
1e-20
1e-20
1e-20
1e-20
1e-20
1e-20
1e-20
1e-20
1e-20
1e-20
1e-20
1e-20
1e-20
1e-20
1e-20
1e-20
1e-20
1e-20
1e-20
1e-20
1e-20
1e-20
1e-20
1.18943e-20
4.21733e-20
1.68795e-19
6.52048e-19
2.35294e-18
7.87221e-18
2.61278e-17
1.17919e-16
1.16846e-15
2.13552e-14
5.1834e-13
1.56132e-11
5.77578e-10
2.61522e-08
1.44417e-06
9.83405e-05
0.00705741
0.109883
0.123176
0.0845251
0.0529008
0.0323904
0.0206178
0.0142118
0.0106888
0.00866293
0.00743739
0.00666397
0.00616165
0.00583104
0.00561436
0.00547622
0.00539389
0.00535212
0.00534031
0.00535084
0.00537805
0.00541765
0.00546631
0.0055214
0.00558079
0.00564276
0.00570589
0.00576901
0.00583114
0.00589146
0.0059493
0.00600408
0.00605534
0.00610269
0.00614582
0.00618447
0.00621846
0.00624762
0.00627186
0.00629111
0.00630533
0.00631452
0.0063187
0.0063179
0.00631219
0.00630166
0.00628639
0.0062665
0.0062421
0.00621333
0.00618033
0.00614323
0.00610178
0.00605552
0.00600434
0.00594818
0.00588696
0.0058206
0.00574907
0.0056723
0.00559027
0.00550295
0.00541034
0.00531243
0.00520926
0.00510086
0.00498728
0.00486861
0.00474492
0.00461635
0.00448302
0.0043451
0.00420277
0.00405626
0.0039058
0.00375165
0.00359414
0.00343358
0.00327035
0.00310485
0.00293752
0.00276886
0.00259937
0.00242963
0.00226025
0.00209188
0.00192522
0.00176101
0.00160006
0.00144318
0.00129124
0.00114513
0.00100575
0.000874006
0.000750772
0.00063686
0.000532985
0.000439715
0.000357418
0.000286201
0.000225868
0.000175891
0.000135412
0.0001033
7.82421e-05
5.88664e-05
4.38664e-05
3.21048e-05
2.26845e-05
1.49911e-05
8.7138e-06
3.86227e-06
8.6462e-07
5.79684e-08
1.53545e-09
3.40508e-11
7.13929e-13
1.41763e-14
2.66228e-16
4.72988e-18
8.64707e-20
1.00847e-20
1e-20
1e-20
1e-20
1e-20
1e-20
1e-20
1e-20
1e-20
1e-20
1e-20
1e-20
1e-20
1e-20
1e-20
1e-20
1e-20
1e-20
1e-20
1e-20
1e-20
1e-20
1e-20
1e-20
1e-20
1e-20
1e-20
1e-20
1e-20
1e-20
1e-20
1e-20
1e-20
1e-20
1e-20
1e-20
1e-20
1e-20
1e-20
1e-20
1e-20
1e-20
1e-20
1e-20
1e-20
1e-20
1e-20
1e-20
1e-20
1e-20
1e-20
1e-20
1e-20
1e-20
1e-20
1e-20
1e-20
1e-20
1e-20
1e-20
1e-20
1e-20
1e-20
1e-20
1e-20
1e-20
1e-20
1e-20
1e-20
1e-20
1e-20
1e-20
1e-20
1e-20
1e-20
1e-20
1e-20
1e-20
1e-20
1e-20
1e-20
1e-20
1e-20
1e-20
1e-20
1e-20
1e-20
1e-20
1e-20
1e-20
)
;

boundaryField
{
    inandouthalf11
    {
        type            cyclic;
    }
    inandouthalf12
    {
        type            cyclic;
    }
    inandouthalf21
    {
        type            cyclic;
    }
    inandouthalf22
    {
        type            cyclic;
    }
    inandouthalf31
    {
        type            cyclic;
    }
    inandouthalf32
    {
        type            cyclic;
    }
    inandouthalf41
    {
        type            cyclic;
    }
    inandouthalf42
    {
        type            cyclic;
    }
    top
    {
        type            symmetryPlane;
    }
    walls
    {
        type            zeroGradient;
    }
    frontAndBackPlanes
    {
        type            empty;
    }
}


// ************************************************************************* //
