/*--------------------------------*- C++ -*----------------------------------*\
| =========                 |                                                 |
| \\      /  F ield         | OpenFOAM: The Open Source CFD Toolbox           |
|  \\    /   O peration     | Version:  2.4.x                                 |
|   \\  /    A nd           | Web:      www.OpenFOAM.org                      |
|    \\/     M anipulation  |                                                 |
\*---------------------------------------------------------------------------*/
FoamFile
{
    version     2.0;
    format      ascii;
    class       volVectorField;
    location    "7.7";
    object      gradPf;
}
// * * * * * * * * * * * * * * * * * * * * * * * * * * * * * * * * * * * * * //

dimensions      [0 1 -2 0 0 0 0];

internalField   nonuniform List<vector> 
360
(
(0 66.9202 0)
(0 75.9695 0)
(0 1.12868 0)
(0 -12.1492 0)
(-3.34468e-14 -5.58017 0)
(-3.34477e-14 -3.04459 0)
(-3.34487e-14 -3.59271 0)
(0 -4.02024 0)
(-3.34511e-14 -4.07826 0)
(0 -4.1049 0)
(-3.34537e-14 -4.09205 0)
(0 -4.07076 0)
(-3.34563e-14 -4.06677 0)
(0 -4.06528 0)
(0 -4.07839 0)
(0 -4.09265 0)
(0 -4.0953 0)
(-1.67314e-14 -4.09243 0)
(0 -4.10749 0)
(0 -4.10546 0)
(0 -4.10471 0)
(-3.34684e-14 -4.12151 0)
(0 -4.12208 0)
(0 -4.12861 0)
(0 -4.13562 0)
(-1.67371e-14 -4.13312 0)
(0 -4.1448 0)
(0 -4.15793 0)
(0 -4.15466 0)
(0 -4.15707 0)
(0 -4.17718 0)
(0 -4.16709 0)
(0 -4.18122 0)
(0 -4.19598 0)
(0 -4.18786 0)
(3.34894e-14 -4.19564 0)
(0 -4.20002 0)
(0 -4.2277 0)
(0 -4.20566 0)
(0 -4.21678 0)
(0 -4.24809 0)
(0 -4.21693 0)
(3.35011e-14 -4.23879 0)
(0 -4.2546 0)
(0 -4.24563 0)
(0 -4.2694 0)
(0 -4.25017 0)
(0 -4.24739 0)
(0 -4.29491 0)
(0 -4.27854 0)
(1.67578e-14 -4.27 0)
(0 -4.29024 0)
(0 -4.29574 0)
(0 -4.28904 0)
(0 -4.30462 0)
(0 -4.3073 0)
(0 -4.3045 0)
(0 -4.32347 0)
(0 -4.29766 0)
(0 -4.32349 0)
(0 -4.33202 0)
(0 -4.32813 0)
(0 -4.34339 0)
(0 -4.33805 0)
(0 -4.33947 0)
(0 -4.3444 0)
(0 -4.35722 0)
(0 -4.35535 0)
(0 -4.34084 0)
(0 -4.35681 0)
(0 -4.38661 0)
(0 -4.36349 0)
(0 -4.36592 0)
(0 -4.38608 0)
(0 -4.39178 0)
(0 -4.39123 0)
(0 -4.38156 0)
(0 -4.39177 0)
(0 -4.39926 0)
(0 -4.3972 0)
(0 -4.39982 0)
(0 -4.41081 0)
(0 -4.41565 0)
(0 -4.42045 0)
(0 -4.42494 0)
(0 -4.4293 0)
(0 -4.43173 0)
(0 -4.43127 0)
(0 -4.43417 0)
(0 -4.4377 0)
(0 -4.4403 0)
(0 -4.44506 0)
(0 -4.45104 0)
(0 -4.45587 0)
(0 -4.46035 0)
(0 -4.46433 0)
(0 -4.46747 0)
(0 -4.47005 0)
(0 -4.47262 0)
(0 -4.47522 0)
(0 -4.4778 0)
(0 -4.48061 0)
(0 -4.48345 0)
(0 -4.48604 0)
(0 -4.48838 0)
(0 -4.49045 0)
(0 -4.49221 0)
(0 -4.49365 0)
(0 -4.49476 0)
(0 -4.49544 0)
(0 -4.49559 0)
(0 -4.49509 0)
(0 -4.49381 0)
(0 -4.49162 0)
(0 -4.48838 0)
(0 -4.48396 0)
(0 -4.47826 0)
(0 -4.47121 0)
(0 -4.46276 0)
(0 -4.4529 0)
(0 -4.44157 0)
(0 -4.42872 0)
(0 -4.41429 0)
(0 -4.39837 0)
(0 -4.38156 0)
(0 -4.36506 0)
(0 -4.35048 0)
(0 -4.33878 0)
(0 -4.32858 0)
(0 -4.31554 0)
(0 -4.2959 0)
(0 -4.27494 0)
(0 -4.26938 0)
(0 -4.28586 0)
(0 -4.29535 0)
(0 -4.26513 0)
(0 -4.23138 0)
(0 -4.29993 0)
(0 -4.5117 0)
(0 -4.63607 0)
(0 -4.3543 0)
(0 -4.2848 0)
(0 -4.83515 0)
(0 -5.40091 0)
(0 -7.12396 0)
(0 -10.0632 0)
(0 -5.872 0)
(0 -2.97 0)
(0 -6.65443 0)
(0 -4.89956 0)
(0 0 0)
(0 0 0)
(0 0 0)
(0 0 0)
(0 0 0)
(0 0 0)
(0 0 0)
(0 0 0)
(0 0 0)
(0 0 0)
(0 0 0)
(0 0 0)
(0 0 0)
(0 0 0)
(0 0 0)
(0 0 0)
(0 0 0)
(0 0 0)
(0 0 0)
(0 0 0)
(0 0 0)
(0 0 0)
(0 0 0)
(0 0 0)
(0 0 0)
(0 0 0)
(0 0 0)
(0 0 0)
(0 0 0)
(0 0 0)
(0 0 0)
(0 0 0)
(0 0 0)
(0 0 0)
(0 0 0)
(0 0 0)
(0 0 0)
(0 0 0)
(0 0 0)
(0 0 0)
(0 0 0)
(0 0 0)
(0 0 0)
(0 0 0)
(0 0 0)
(0 0 0)
(0 0 0)
(0 0 0)
(0 0 0)
(0 0 0)
(0 0 0)
(0 0 0)
(0 0 0)
(0 0 0)
(0 0 0)
(0 0 0)
(0 0 0)
(0 0 0)
(0 0 0)
(0 0 0)
(0 0 0)
(0 0 0)
(0 0 0)
(0 0 0)
(0 0 0)
(0 0 0)
(0 0 0)
(0 0 0)
(0 0 0)
(0 0 0)
(0 0 0)
(0 0 0)
(0 0 0)
(0 0 0)
(0 0 0)
(0 0 0)
(0 0 0)
(0 0 0)
(0 0 0)
(0 0 0)
(0 0 0)
(0 0 0)
(0 0 0)
(0 0 0)
(0 0 0)
(0 0 0)
(0 0 0)
(0 0 0)
(0 0 0)
(0 0 0)
(0 0 0)
(0 0 0)
(0 0 0)
(0 0 0)
(0 0 0)
(0 0 0)
(0 0 0)
(0 0 0)
(0 0 0)
(0 0 0)
(0 0 0)
(0 0 0)
(0 0 0)
(0 0 0)
(0 0 0)
(0 0 0)
(0 0 0)
(0 0 0)
(0 0 0)
(0 0 0)
(0 0 0)
(0 0 0)
(0 0 0)
(0 0 0)
(0 0 0)
(0 0 0)
(0 0 0)
(0 0 0)
(0 0 0)
(0 0 0)
(0 0 0)
(0 0 0)
(0 0 0)
(0 0 0)
(0 0 0)
(0 0 0)
(0 0 0)
(0 0 0)
(0 0 0)
(0 0 0)
(0 0 0)
(0 0 0)
(0 0 0)
(0 0 0)
(0 0 0)
(0 0 0)
(0 0 0)
(0 0 0)
(0 0 0)
(0 0 0)
(0 0 0)
(0 0 0)
(0 0 0)
(0 0 0)
(0 0 0)
(0 0 0)
(0 0 0)
(0 0 0)
(0 0 0)
(0 0 0)
(0 0 0)
(0 0 0)
(0 0 0)
(0 0 0)
(0 0 0)
(0 0 0)
(0 0 0)
(0 0 0)
(0 0 0)
(0 0 0)
(0 0 0)
(0 0 0)
(0 0 0)
(0 0 0)
(0 0 0)
(0 0 0)
(0 0 0)
(0 0 0)
(0 0 0)
(0 0 0)
(0 0 0)
(0 0 0)
(0 0 0)
(0 0 0)
(0 0 0)
(0 0 0)
(0 0 0)
(0 0 0)
(0 0 0)
(0 0 0)
(0 0 0)
(0 0 0)
(0 0 0)
(0 0 0)
(0 0 0)
(0 0 0)
(0 0 0)
(0 0 0)
(0 0 0)
(0 0 0)
(0 0 0)
(0 0 0)
(0 0 0)
(0 0 0)
(0 0 0)
(0 0 0)
(0 0 0)
(0 0 0)
(0 0 0)
(0 0 0)
(0 0 0)
(0 0 0)
(0 0 0)
(0 0 0)
(0 0 0)
(0 0 0)
(0 0 0)
(0 0 0)
(0 0 0)
(0 0 0)
)
;

boundaryField
{
    inandouthalf11
    {
        type            cyclic;
    }
    inandouthalf12
    {
        type            cyclic;
    }
    inandouthalf21
    {
        type            cyclic;
    }
    inandouthalf22
    {
        type            cyclic;
    }
    inandouthalf31
    {
        type            cyclic;
    }
    inandouthalf32
    {
        type            cyclic;
    }
    inandouthalf41
    {
        type            cyclic;
    }
    inandouthalf42
    {
        type            cyclic;
    }
    top
    {
        type            symmetryPlane;
    }
    walls
    {
        type            calculated;
        value           uniform (0 0 0);
    }
    frontAndBackPlanes
    {
        type            empty;
    }
}


// ************************************************************************* //
