/*--------------------------------*- C++ -*----------------------------------*\
| =========                 |                                                 |
| \\      /  F ield         | OpenFOAM: The Open Source CFD Toolbox           |
|  \\    /   O peration     | Version:  2.4.x                                 |
|   \\  /    A nd           | Web:      www.OpenFOAM.org                      |
|    \\/     M anipulation  |                                                 |
\*---------------------------------------------------------------------------*/
FoamFile
{
    version     2.0;
    format      ascii;
    class       volScalarField;
    location    "7.7";
    object      k_0;
}
// * * * * * * * * * * * * * * * * * * * * * * * * * * * * * * * * * * * * * //

dimensions      [0 2 -2 0 0 0 0];

internalField   nonuniform List<scalar> 
360
(
1e-20
1e-20
1e-20
1e-20
1e-20
1e-20
1e-20
1e-20
1e-20
1e-20
1e-20
1e-20
1e-20
1e-20
1e-20
1e-20
1e-20
1e-20
1e-20
1e-20
1e-20
1e-20
1e-20
1e-20
1e-20
1e-20
1e-20
1e-20
1e-20
1e-20
1e-20
1e-20
1e-20
1e-20
1e-20
1e-20
1e-20
1e-20
1e-20
1e-20
1e-20
1e-20
1e-20
1e-20
1e-20
1e-20
1e-20
1e-20
1e-20
1e-20
1e-20
1e-20
1e-20
1e-20
1e-20
1e-20
1e-20
1e-20
1e-20
1e-20
1e-20
1e-20
1e-20
1e-20
1e-20
1e-20
1e-20
1e-20
1e-20
1e-20
1e-20
1e-20
1e-20
1e-20
1e-20
1e-20
1e-20
1e-20
1e-20
1e-20
1e-20
1e-20
1e-20
1e-20
1e-20
1e-20
1e-20
1e-20
1e-20
1e-20
1e-20
1e-20
1e-20
1e-20
1e-20
1e-20
1e-20
1e-20
1e-20
1e-20
1e-20
1e-20
1e-20
1e-20
1e-20
1e-20
1e-20
1e-20
1e-20
1e-20
1e-20
1e-20
1e-20
1e-20
1e-20
1e-20
1e-20
1e-20
1e-20
1e-20
1e-20
1e-20
1e-20
1e-20
1e-20
1e-20
1e-20
1e-20
1e-20
1e-20
1e-20
1e-20
1e-20
1.1131e-20
3.65746e-20
1.37262e-19
4.92623e-19
1.61113e-18
4.62133e-18
1.14966e-17
3.07285e-17
1.92194e-16
2.69677e-15
5.2105e-14
1.2547e-12
3.71172e-11
1.34351e-09
5.89421e-08
3.1729e-06
0.000182759
0.00236579
0.00346233
0.00327213
0.0028783
0.00254322
0.0023422
0.0022595
0.00225269
0.00228823
0.0023464
0.00241665
0.00249337
0.0025735
0.00265527
0.00273761
0.00281981
0.00290141
0.00298202
0.00306138
0.00313922
0.00321536
0.0032896
0.00336178
0.00343176
0.00349941
0.0035646
0.00362724
0.00368724
0.00374451
0.00379899
0.00385062
0.00389937
0.00394518
0.00398804
0.00402793
0.00406483
0.00409876
0.00412971
0.0041577
0.00418275
0.00420487
0.0042241
0.00424048
0.00425404
0.00426482
0.00427287
0.00427824
0.00428098
0.00428114
0.00427878
0.00427396
0.00426666
0.00425675
0.00424415
0.00422876
0.0042105
0.00418928
0.00416501
0.00413762
0.00410702
0.00407312
0.00403585
0.00399514
0.00395091
0.0039031
0.00385164
0.00379647
0.00373755
0.00367483
0.00360827
0.00353786
0.00346357
0.0033854
0.00330336
0.00321747
0.00312777
0.00303432
0.00293719
0.00283648
0.00273231
0.00262483
0.00251422
0.00240069
0.00228449
0.00216591
0.00204529
0.00192301
0.00179951
0.0016753
0.00155094
0.00142707
0.00130439
0.00118369
0.00106581
0.000951658
0.00084219
0.000738363
0.000641109
0.000551263
0.000469498
0.000396236
0.000331578
0.000275259
0.000226655
0.000184847
0.000148739
0.000117202
8.92252e-05
6.40544e-05
4.13446e-05
2.1397e-05
5.98656e-06
4.76529e-07
1.29456e-08
2.84404e-10
5.90409e-12
1.1615e-13
2.16238e-15
3.80596e-17
6.38245e-19
1.75395e-20
1e-20
1e-20
1e-20
1e-20
1e-20
1e-20
1e-20
1e-20
1e-20
1e-20
1e-20
1e-20
1e-20
1e-20
1e-20
1e-20
1e-20
1e-20
1e-20
1e-20
1e-20
1e-20
1e-20
1e-20
1e-20
1e-20
1e-20
1e-20
1e-20
1e-20
1e-20
1e-20
1e-20
1e-20
1e-20
1e-20
1e-20
1e-20
1e-20
1e-20
1e-20
1e-20
1e-20
1e-20
1e-20
1e-20
1e-20
1e-20
1e-20
1e-20
1e-20
1e-20
1e-20
1e-20
1e-20
1e-20
1e-20
1e-20
1e-20
1e-20
1e-20
1e-20
1e-20
1e-20
1e-20
1e-20
1e-20
1e-20
1e-20
1e-20
1e-20
1e-20
1e-20
1e-20
1e-20
1e-20
1e-20
1e-20
1e-20
1e-20
1e-20
1e-20
1e-20
1e-20
1e-20
1e-20
1e-20
1e-20
1e-20
)
;

boundaryField
{
    inandouthalf11
    {
        type            cyclic;
    }
    inandouthalf12
    {
        type            cyclic;
    }
    inandouthalf21
    {
        type            cyclic;
    }
    inandouthalf22
    {
        type            cyclic;
    }
    inandouthalf31
    {
        type            cyclic;
    }
    inandouthalf32
    {
        type            cyclic;
    }
    inandouthalf41
    {
        type            cyclic;
    }
    inandouthalf42
    {
        type            cyclic;
    }
    top
    {
        type            symmetryPlane;
    }
    walls
    {
        type            zeroGradient;
    }
    frontAndBackPlanes
    {
        type            empty;
    }
}


// ************************************************************************* //
