/*--------------------------------*- C++ -*----------------------------------*\
| =========                 |                                                 |
| \\      /  F ield         | OpenFOAM: The Open Source CFD Toolbox           |
|  \\    /   O peration     | Version:  2.4.x                                 |
|   \\  /    A nd           | Web:      www.OpenFOAM.org                      |
|    \\/     M anipulation  |                                                 |
\*---------------------------------------------------------------------------*/
FoamFile
{
    version     2.0;
    format      ascii;
    class       volScalarField;
    location    "7.7";
    object      nutb;
}
// * * * * * * * * * * * * * * * * * * * * * * * * * * * * * * * * * * * * * //

dimensions      [0 2 -1 0 0 0 0];

internalField   nonuniform List<scalar> 
360
(
9e-22
9e-22
9e-22
9e-22
9e-22
9e-22
9e-22
9e-22
9e-22
9e-22
9e-22
9e-22
9e-22
9e-22
9e-22
9e-22
9e-22
9e-22
9e-22
9e-22
9e-22
9e-22
9e-22
9e-22
9e-22
9e-22
9e-22
9e-22
9e-22
9e-22
9e-22
9e-22
9e-22
9e-22
9e-22
9e-22
9e-22
9e-22
9e-22
9e-22
9e-22
9e-22
9e-22
9e-22
9e-22
9e-22
9e-22
9e-22
9e-22
9e-22
9e-22
9e-22
9e-22
9e-22
9e-22
9e-22
9e-22
9e-22
9e-22
9e-22
9e-22
9e-22
9e-22
9e-22
9e-22
9e-22
9e-22
9e-22
9e-22
9e-22
9e-22
9e-22
9e-22
9e-22
9e-22
9e-22
9e-22
9e-22
9e-22
9e-22
9e-22
9e-22
9e-22
9e-22
9e-22
9e-22
9e-22
9e-22
9e-22
9e-22
9e-22
9e-22
9e-22
9e-22
9e-22
9e-22
9e-22
9e-22
9e-22
9e-22
9e-22
9e-22
9e-22
9e-22
9e-22
9e-22
9e-22
9e-22
9e-22
9e-22
9e-22
9e-22
9e-22
9e-22
9e-22
9e-22
9e-22
9e-22
9e-22
9e-22
9e-22
9e-22
9e-22
9e-22
9e-22
9e-22
9e-22
9e-22
9e-22
9e-22
9e-22
9e-22
9e-22
9.3729e-22
2.85349e-21
1.00389e-20
3.34607e-20
9.91311e-20
2.43595e-19
4.53726e-19
7.18074e-19
2.84288e-18
3.06665e-17
4.71916e-16
9.08807e-15
2.15058e-13
6.22444e-12
2.16996e-10
9.23583e-09
4.26885e-07
4.58849e-06
8.76286e-06
1.14037e-05
1.40952e-05
1.79665e-05
2.39329e-05
3.23077e-05
4.26979e-05
5.43619e-05
6.65854e-05
7.88361e-05
9.07693e-05
0.000102186
0.000112987
0.000123137
0.000132642
0.00014153
0.000149838
0.000157612
0.000164894
0.000171727
0.000178151
0.000184201
0.000189908
0.000195302
0.000200406
0.000205242
0.000209829
0.000214184
0.000218319
0.000222249
0.000225982
0.000229529
0.000232898
0.000236096
0.000239129
0.000242003
0.000244723
0.000247293
0.000249717
0.000251999
0.000254142
0.000256149
0.000258023
0.000259767
0.000261382
0.000262872
0.000264237
0.000265481
0.000266605
0.000267611
0.00026851
0.000269307
0.000269997
0.000270573
0.000271031
0.000271365
0.000271569
0.000271636
0.000271561
0.000271336
0.000270954
0.000270409
0.000269693
0.000268799
0.000267719
0.000266446
0.000264971
0.000263288
0.000261387
0.000259262
0.000256904
0.000254304
0.000251457
0.000248352
0.000244985
0.000241346
0.00023743
0.000233231
0.000228743
0.000223961
0.000218883
0.000213505
0.000207826
0.000201848
0.000195574
0.000189009
0.000182163
0.000175047
0.000167678
0.000160077
0.000152272
0.000144297
0.000136191
0.000128003
0.000119787
0.000111603
0.000103513
9.55776e-05
8.78458e-05
8.03476e-05
7.30838e-05
6.60221e-05
5.91013e-05
5.22476e-05
4.53973e-05
3.85142e-05
3.15917e-05
2.46382e-05
1.76605e-05
1.06736e-05
3.7346e-06
3.53306e-07
9.84808e-09
2.14341e-10
4.40583e-12
8.58757e-14
1.58498e-15
2.76385e-17
4.25248e-19
2.75327e-21
9e-22
9e-22
9e-22
9e-22
9e-22
9e-22
9e-22
9e-22
9e-22
9e-22
9e-22
9e-22
9e-22
9e-22
9e-22
9e-22
9e-22
9e-22
9e-22
9e-22
9e-22
9e-22
9e-22
9e-22
9e-22
9e-22
9e-22
9e-22
9e-22
9e-22
9e-22
9e-22
9e-22
9e-22
9e-22
9e-22
9e-22
9e-22
9e-22
9e-22
9e-22
9e-22
9e-22
9e-22
9e-22
9e-22
9e-22
9e-22
9e-22
9e-22
9e-22
9e-22
9e-22
9e-22
9e-22
9e-22
9e-22
9e-22
9e-22
9e-22
9e-22
9e-22
9e-22
9e-22
9e-22
9e-22
9e-22
9e-22
9e-22
9e-22
9e-22
9e-22
9e-22
9e-22
9e-22
9e-22
9e-22
9e-22
9e-22
9e-22
9e-22
9e-22
9e-22
9e-22
9e-22
9e-22
9e-22
9e-22
9e-22
)
;

boundaryField
{
    inandouthalf11
    {
        type            cyclic;
    }
    inandouthalf12
    {
        type            cyclic;
    }
    inandouthalf21
    {
        type            cyclic;
    }
    inandouthalf22
    {
        type            cyclic;
    }
    inandouthalf31
    {
        type            cyclic;
    }
    inandouthalf32
    {
        type            cyclic;
    }
    inandouthalf41
    {
        type            cyclic;
    }
    inandouthalf42
    {
        type            cyclic;
    }
    top
    {
        type            symmetryPlane;
    }
    walls
    {
        type            calculated;
        value           uniform 0;
    }
    frontAndBackPlanes
    {
        type            empty;
    }
}


// ************************************************************************* //
