/*--------------------------------*- C++ -*----------------------------------*\
| =========                 |                                                 |
| \\      /  F ield         | OpenFOAM: The Open Source CFD Toolbox           |
|  \\    /   O peration     | Version:  2.4.x                                 |
|   \\  /    A nd           | Web:      www.OpenFOAM.org                      |
|    \\/     M anipulation  |                                                 |
\*---------------------------------------------------------------------------*/
FoamFile
{
    version     2.0;
    format      ascii;
    class       surfaceScalarField;
    location    "7.7";
    object      phib;
}
// * * * * * * * * * * * * * * * * * * * * * * * * * * * * * * * * * * * * * //

dimensions      [0 3 -1 0 0 0 0];

internalField   nonuniform List<scalar> 
359
(
3.05172e-13
7.73595e-13
1.20066e-12
1.60443e-12
2.01681e-12
2.43718e-12
2.85842e-12
3.27791e-12
3.69555e-12
4.11195e-12
4.52743e-12
4.9419e-12
5.35528e-12
5.7675e-12
6.17866e-12
6.58894e-12
6.99855e-12
7.40763e-12
7.81632e-12
8.22482e-12
8.63315e-12
9.04152e-12
9.45003e-12
9.85879e-12
1.02679e-11
1.06774e-11
1.10874e-11
1.14979e-11
1.1909e-11
1.23208e-11
1.27331e-11
1.31462e-11
1.35599e-11
1.39744e-11
1.43895e-11
1.48053e-11
1.52217e-11
1.56389e-11
1.60568e-11
1.64752e-11
1.68943e-11
1.7314e-11
1.77342e-11
1.8155e-11
1.85763e-11
1.8998e-11
1.94202e-11
1.98426e-11
2.02651e-11
2.06881e-11
2.11112e-11
2.15343e-11
2.19575e-11
2.23806e-11
2.28034e-11
2.3226e-11
2.3648e-11
2.40695e-11
2.44903e-11
2.49099e-11
2.53288e-11
2.57466e-11
2.61635e-11
2.65792e-11
2.69936e-11
2.74064e-11
2.78177e-11
2.82272e-11
2.86347e-11
2.904e-11
2.94433e-11
2.98447e-11
3.02439e-11
3.06411e-11
3.10362e-11
3.14292e-11
3.18198e-11
3.22078e-11
3.25929e-11
3.29752e-11
3.33545e-11
3.37306e-11
3.41037e-11
3.44737e-11
3.48406e-11
3.52043e-11
3.55645e-11
3.59209e-11
3.62732e-11
3.66211e-11
3.69643e-11
3.73026e-11
3.76359e-11
3.79639e-11
3.82867e-11
3.8604e-11
3.89158e-11
3.92219e-11
3.95221e-11
3.98162e-11
4.01042e-11
4.03857e-11
4.06608e-11
4.09292e-11
4.1191e-11
4.14461e-11
4.16944e-11
4.19359e-11
4.21707e-11
4.23989e-11
4.26206e-11
4.28359e-11
4.30451e-11
4.32485e-11
4.34464e-11
4.36392e-11
4.38273e-11
4.40112e-11
4.41914e-11
4.43684e-11
4.45425e-11
4.47141e-11
4.48834e-11
4.50505e-11
4.52149e-11
4.53764e-11
4.5534e-11
4.56868e-11
4.58334e-11
4.59723e-11
4.61016e-11
4.62198e-11
4.63255e-11
4.64184e-11
4.64989e-11
4.65686e-11
4.6629e-11
4.66812e-11
4.6726e-11
4.67633e-11
4.67893e-11
4.67847e-11
4.67337e-11
4.66373e-11
4.64605e-11
4.60973e-11
5.18679e-11
5.59334e-11
2.12549e-11
-2.2387e-09
-1.90623e-09
-1.2413e-09
-7.15941e-10
-3.71026e-10
-1.76335e-10
-7.71495e-11
-3.01904e-11
-8.50725e-12
1.89718e-12
7.10767e-12
9.69823e-12
1.08828e-11
1.12807e-11
1.12278e-11
1.09145e-11
1.04537e-11
9.91367e-12
9.33698e-12
8.75032e-12
8.1705e-12
7.60801e-12
7.06926e-12
6.55789e-12
6.07578e-12
5.62356e-12
5.20103e-12
4.80748e-12
4.4418e-12
4.10269e-12
3.7887e-12
3.4983e-12
3.22996e-12
2.98216e-12
2.75341e-12
2.54228e-12
2.34741e-12
2.16752e-12
2.00141e-12
1.84795e-12
1.70611e-12
1.57493e-12
1.45355e-12
1.34115e-12
1.23699e-12
1.14037e-12
1.05067e-12
9.67311e-13
8.8976e-13
8.17537e-13
7.50223e-13
6.87465e-13
6.27823e-13
5.71256e-13
5.17728e-13
4.67221e-13
4.19739e-13
3.75304e-13
3.33936e-13
2.9564e-13
2.60399e-13
2.28169e-13
1.98891e-13
1.72503e-13
1.48889e-13
1.27867e-13
1.09264e-13
9.29302e-14
7.86742e-14
6.6287e-14
5.55787e-14
4.63887e-14
3.85569e-14
3.18951e-14
2.62528e-14
2.15115e-14
1.75401e-14
1.42219e-14
1.14647e-14
9.18132e-15
7.30462e-15
5.75863e-15
4.51565e-15
3.53379e-15
2.7786e-15
2.01339e-15
1.31418e-15
8.54195e-16
5.09534e-16
2.65203e-16
1.31927e-16
4.86471e-17
1.57752e-17
1.00177e-16
7.26308e-18
7.04083e-18
6.89012e-18
6.66128e-18
6.50318e-18
6.26721e-18
6.09679e-18
5.85125e-18
5.66411e-18
5.40278e-18
5.19146e-18
4.91279e-18
4.68364e-18
4.39986e-18
4.15973e-18
3.86646e-18
3.61118e-18
3.32181e-18
3.0731e-18
2.80293e-18
2.59424e-18
2.41926e-18
2.30067e-18
2.19367e-18
2.09979e-18
2.01833e-18
1.94456e-18
1.86314e-18
1.78472e-18
1.7394e-18
1.69283e-18
1.64247e-18
1.57543e-18
1.52231e-18
1.45144e-18
1.37695e-18
1.28954e-18
1.25106e-18
1.20071e-18
1.15257e-18
1.08374e-18
1.0315e-18
9.59854e-19
8.61188e-19
7.71267e-19
7.07584e-19
6.2947e-19
5.49646e-19
4.54859e-19
3.73877e-19
2.78219e-19
1.86065e-19
7.33478e-20
1.08394e-19
1.00138e-19
9.83327e-20
4.48166e-20
4.57398e-20
4.01571e-20
3.48681e-20
2.27789e-20
2.62845e-20
2.22263e-20
1.89251e-20
7.02111e-21
3.26654e-21
-1.04589e-20
-2.2003e-20
-4.08975e-20
-4.09777e-20
-4.87358e-20
-5.62706e-20
-7.19937e-20
-8.02018e-20
-9.6838e-20
-1.13043e-19
-1.33276e-19
-1.53736e-19
-1.76687e-19
-1.99027e-19
-2.17326e-19
-2.59015e-19
-2.76914e-19
-3.05321e-19
-2.01048e-19
-6.67307e-19
-1.03485e-18
-1.41221e-18
-1.8535e-18
-2.21519e-18
-2.72113e-18
-3.21424e-18
-3.88758e-18
-4.21186e-18
-4.76654e-18
-5.30952e-18
-6.10978e-18
-6.73078e-18
-7.57509e-18
-8.44303e-18
-9.3759e-18
-1.08671e-17
-1.23426e-17
-1.38518e-17
-1.52718e-17
-1.70812e-17
-1.83898e-17
-1.99076e-17
-2.0397e-17
-2.51109e-17
-2.75468e-17
-3.03317e-17
-2.97981e-17
-3.39534e-17
-3.35985e-17
-3.59091e-17
)
;

boundaryField
{
    inandouthalf11
    {
        type            cyclic;
        value           nonuniform List<scalar> 
100
(
-2.73368e-10
-2.71949e-10
-2.71737e-10
-2.71945e-10
-2.7206e-10
-2.72109e-10
-2.72161e-10
-2.72224e-10
-2.72288e-10
-2.72353e-10
-2.72418e-10
-2.72482e-10
-2.72547e-10
-2.72613e-10
-2.72678e-10
-2.72744e-10
-2.72811e-10
-2.72877e-10
-2.72944e-10
-2.73012e-10
-2.7308e-10
-2.73148e-10
-2.73217e-10
-2.73287e-10
-2.73357e-10
-2.73427e-10
-2.73498e-10
-2.73569e-10
-2.73641e-10
-2.73713e-10
-2.73786e-10
-2.7386e-10
-2.73934e-10
-2.74009e-10
-2.74084e-10
-2.7416e-10
-2.74237e-10
-2.74314e-10
-2.74392e-10
-2.7447e-10
-2.7455e-10
-2.7463e-10
-2.7471e-10
-2.74792e-10
-2.74874e-10
-2.74957e-10
-2.75041e-10
-2.75125e-10
-2.7521e-10
-2.75297e-10
-2.75383e-10
-2.75471e-10
-2.75559e-10
-2.75649e-10
-2.75739e-10
-2.75831e-10
-2.75923e-10
-2.76016e-10
-2.7611e-10
-2.76205e-10
-2.76302e-10
-2.76398e-10
-2.76497e-10
-2.76596e-10
-2.76697e-10
-2.76798e-10
-2.76901e-10
-2.77005e-10
-2.77111e-10
-2.77216e-10
-2.77325e-10
-2.77434e-10
-2.77544e-10
-2.77656e-10
-2.7777e-10
-2.77885e-10
-2.78002e-10
-2.7812e-10
-2.78239e-10
-2.78361e-10
-2.78484e-10
-2.78609e-10
-2.78736e-10
-2.78864e-10
-2.78995e-10
-2.79128e-10
-2.79263e-10
-2.79401e-10
-2.7954e-10
-2.79682e-10
-2.79826e-10
-2.79972e-10
-2.80122e-10
-2.80274e-10
-2.80429e-10
-2.80587e-10
-2.80747e-10
-2.80912e-10
-2.81079e-10
-2.8125e-10
)
;
    }
    inandouthalf12
    {
        type            cyclic;
        value           nonuniform List<scalar> 
100
(
2.73368e-10
2.71949e-10
2.71737e-10
2.71945e-10
2.7206e-10
2.72109e-10
2.72161e-10
2.72224e-10
2.72288e-10
2.72353e-10
2.72418e-10
2.72482e-10
2.72547e-10
2.72613e-10
2.72678e-10
2.72744e-10
2.72811e-10
2.72877e-10
2.72944e-10
2.73012e-10
2.7308e-10
2.73148e-10
2.73217e-10
2.73287e-10
2.73357e-10
2.73427e-10
2.73498e-10
2.73569e-10
2.73641e-10
2.73713e-10
2.73786e-10
2.7386e-10
2.73934e-10
2.74009e-10
2.74084e-10
2.7416e-10
2.74237e-10
2.74314e-10
2.74392e-10
2.7447e-10
2.7455e-10
2.7463e-10
2.7471e-10
2.74792e-10
2.74874e-10
2.74957e-10
2.75041e-10
2.75125e-10
2.7521e-10
2.75297e-10
2.75383e-10
2.75471e-10
2.75559e-10
2.75649e-10
2.75739e-10
2.75831e-10
2.75923e-10
2.76016e-10
2.7611e-10
2.76205e-10
2.76302e-10
2.76398e-10
2.76497e-10
2.76596e-10
2.76697e-10
2.76798e-10
2.76901e-10
2.77005e-10
2.77111e-10
2.77216e-10
2.77325e-10
2.77434e-10
2.77544e-10
2.77656e-10
2.7777e-10
2.77885e-10
2.78002e-10
2.7812e-10
2.78239e-10
2.78361e-10
2.78484e-10
2.78609e-10
2.78736e-10
2.78864e-10
2.78995e-10
2.79128e-10
2.79263e-10
2.79401e-10
2.7954e-10
2.79682e-10
2.79826e-10
2.79972e-10
2.80122e-10
2.80274e-10
2.80429e-10
2.80587e-10
2.80747e-10
2.80912e-10
2.81079e-10
2.8125e-10
)
;
    }
    inandouthalf21
    {
        type            cyclic;
        value           nonuniform List<scalar> 
100
(
-2.81424e-10
-2.81602e-10
-2.81784e-10
-2.8197e-10
-2.8216e-10
-2.82354e-10
-2.82554e-10
-2.82758e-10
-2.82967e-10
-2.83181e-10
-2.83401e-10
-2.83626e-10
-2.83858e-10
-2.84096e-10
-2.84341e-10
-2.84593e-10
-2.84852e-10
-2.85119e-10
-2.85393e-10
-2.85676e-10
-2.85968e-10
-2.86269e-10
-2.8658e-10
-2.86901e-10
-2.87233e-10
-2.87577e-10
-2.87933e-10
-2.88303e-10
-2.88688e-10
-2.89089e-10
-2.89507e-10
-2.89944e-10
-2.90401e-10
-2.90883e-10
-2.91396e-10
-2.91939e-10
-2.92508e-10
-2.93113e-10
-2.93784e-10
-2.94555e-10
-2.95389e-10
-2.96194e-10
-2.97166e-10
-2.98431e-10
-3.00018e-10
-3.03097e-10
-3.09568e-10
-3.12078e-10
-3.7162e-10
-2.87077e-08
-1.62676e-07
-2.66397e-07
-3.32983e-07
-3.78384e-07
-4.08333e-07
-4.27044e-07
-4.38322e-07
-4.4508e-07
-4.49158e-07
-4.51605e-07
-4.53011e-07
-4.53714e-07
-4.53914e-07
-4.53738e-07
-4.5327e-07
-4.52565e-07
-4.51664e-07
-4.50597e-07
-4.49387e-07
-4.4805e-07
-4.46603e-07
-4.45057e-07
-4.43421e-07
-4.41706e-07
-4.39919e-07
-4.38065e-07
-4.36153e-07
-4.34186e-07
-4.3217e-07
-4.3011e-07
-4.2801e-07
-4.25874e-07
-4.23704e-07
-4.21506e-07
-4.19281e-07
-4.17033e-07
-4.14765e-07
-4.12478e-07
-4.10175e-07
-4.07859e-07
-4.05532e-07
-4.03194e-07
-4.0085e-07
-3.98499e-07
-3.96143e-07
-3.93785e-07
-3.91426e-07
-3.89066e-07
-3.86708e-07
-3.84352e-07
)
;
    }
    inandouthalf22
    {
        type            cyclic;
        value           nonuniform List<scalar> 
100
(
2.81424e-10
2.81602e-10
2.81784e-10
2.8197e-10
2.8216e-10
2.82354e-10
2.82554e-10
2.82758e-10
2.82967e-10
2.83181e-10
2.83401e-10
2.83626e-10
2.83858e-10
2.84096e-10
2.84341e-10
2.84593e-10
2.84852e-10
2.85119e-10
2.85393e-10
2.85676e-10
2.85968e-10
2.86269e-10
2.8658e-10
2.86901e-10
2.87233e-10
2.87577e-10
2.87933e-10
2.88303e-10
2.88688e-10
2.89089e-10
2.89507e-10
2.89944e-10
2.90401e-10
2.90883e-10
2.91396e-10
2.91939e-10
2.92508e-10
2.93113e-10
2.93784e-10
2.94555e-10
2.95389e-10
2.96194e-10
2.97166e-10
2.98431e-10
3.00018e-10
3.03097e-10
3.09568e-10
3.12078e-10
3.7162e-10
2.87077e-08
1.62676e-07
2.66397e-07
3.32983e-07
3.78384e-07
4.08333e-07
4.27044e-07
4.38322e-07
4.4508e-07
4.49158e-07
4.51605e-07
4.53011e-07
4.53714e-07
4.53914e-07
4.53738e-07
4.5327e-07
4.52565e-07
4.51664e-07
4.50597e-07
4.49387e-07
4.4805e-07
4.46603e-07
4.45057e-07
4.43421e-07
4.41706e-07
4.39919e-07
4.38065e-07
4.36153e-07
4.34186e-07
4.3217e-07
4.3011e-07
4.2801e-07
4.25874e-07
4.23704e-07
4.21506e-07
4.19281e-07
4.17033e-07
4.14765e-07
4.12478e-07
4.10175e-07
4.07859e-07
4.05532e-07
4.03194e-07
4.0085e-07
3.98499e-07
3.96143e-07
3.93785e-07
3.91426e-07
3.89066e-07
3.86708e-07
3.84352e-07
)
;
    }
    inandouthalf31
    {
        type            cyclic;
        value           nonuniform List<scalar> 
110
(
-3.82001e-07
-3.87334e-07
-3.92682e-07
-3.98043e-07
-4.03412e-07
-4.08789e-07
-4.14169e-07
-4.19551e-07
-4.2493e-07
-4.30306e-07
-4.35673e-07
-4.41031e-07
-4.46376e-07
-4.51705e-07
-4.57016e-07
-4.62306e-07
-4.67573e-07
-4.72815e-07
-4.78028e-07
-4.83213e-07
-4.88367e-07
-4.93488e-07
-4.98578e-07
-5.03634e-07
-5.08657e-07
-5.13649e-07
-5.18611e-07
-5.23546e-07
-5.28457e-07
-5.3335e-07
-5.3823e-07
-5.43106e-07
-5.47987e-07
-5.52886e-07
-5.57816e-07
-5.62796e-07
-5.67845e-07
-5.72988e-07
-5.78253e-07
-5.83675e-07
-5.89292e-07
-5.95149e-07
-6.013e-07
-6.07802e-07
-6.14723e-07
-6.22138e-07
-6.30128e-07
-6.3878e-07
-6.48182e-07
-6.5842e-07
-6.69572e-07
-6.81701e-07
-6.94849e-07
-7.09035e-07
-7.24251e-07
-7.40463e-07
-7.57612e-07
-7.7561e-07
-7.94337e-07
-8.13625e-07
-8.33226e-07
-8.52689e-07
-8.70951e-07
-8.88712e-07
-9.06753e-07
-9.25158e-07
-9.43937e-07
-9.63096e-07
-9.82644e-07
-1.00259e-06
-1.02294e-06
-1.0437e-06
-1.06489e-06
-1.0865e-06
-1.10855e-06
-1.13105e-06
-1.15401e-06
-1.17744e-06
-1.20133e-06
-1.22572e-06
-1.2506e-06
-1.27598e-06
-1.30188e-06
-1.3283e-06
-1.35527e-06
-1.38277e-06
-1.41084e-06
-1.43948e-06
-1.46869e-06
-1.49851e-06
-1.52892e-06
-1.55995e-06
-1.59162e-06
-1.62392e-06
-1.65688e-06
-1.69051e-06
-1.72483e-06
-1.75984e-06
-1.79556e-06
-1.832e-06
-1.86919e-06
-1.90713e-06
-1.94584e-06
-1.98533e-06
-2.02563e-06
-2.06674e-06
-2.10869e-06
-2.15149e-06
-2.19516e-06
-2.23972e-06
)
;
    }
    inandouthalf32
    {
        type            cyclic;
        value           nonuniform List<scalar> 
110
(
3.82001e-07
3.87334e-07
3.92682e-07
3.98043e-07
4.03412e-07
4.08789e-07
4.14169e-07
4.19551e-07
4.2493e-07
4.30306e-07
4.35673e-07
4.41031e-07
4.46376e-07
4.51705e-07
4.57016e-07
4.62306e-07
4.67573e-07
4.72815e-07
4.78028e-07
4.83213e-07
4.88367e-07
4.93488e-07
4.98578e-07
5.03634e-07
5.08657e-07
5.13649e-07
5.18611e-07
5.23546e-07
5.28457e-07
5.3335e-07
5.3823e-07
5.43106e-07
5.47987e-07
5.52886e-07
5.57816e-07
5.62796e-07
5.67845e-07
5.72988e-07
5.78253e-07
5.83675e-07
5.89292e-07
5.95149e-07
6.013e-07
6.07802e-07
6.14723e-07
6.22138e-07
6.30128e-07
6.3878e-07
6.48182e-07
6.5842e-07
6.69572e-07
6.81701e-07
6.94849e-07
7.09035e-07
7.24251e-07
7.40463e-07
7.57612e-07
7.7561e-07
7.94337e-07
8.13625e-07
8.33226e-07
8.52689e-07
8.70951e-07
8.88712e-07
9.06753e-07
9.25158e-07
9.43937e-07
9.63096e-07
9.82644e-07
1.00259e-06
1.02294e-06
1.0437e-06
1.06489e-06
1.0865e-06
1.10855e-06
1.13105e-06
1.15401e-06
1.17744e-06
1.20133e-06
1.22572e-06
1.2506e-06
1.27598e-06
1.30188e-06
1.3283e-06
1.35527e-06
1.38277e-06
1.41084e-06
1.43948e-06
1.46869e-06
1.49851e-06
1.52892e-06
1.55995e-06
1.59162e-06
1.62392e-06
1.65688e-06
1.69051e-06
1.72483e-06
1.75984e-06
1.79556e-06
1.832e-06
1.86919e-06
1.90713e-06
1.94584e-06
1.98533e-06
2.02563e-06
2.06674e-06
2.10869e-06
2.15149e-06
2.19516e-06
2.23972e-06
)
;
    }
    inandouthalf41
    {
        type            cyclic;
        value           nonuniform List<scalar> 
50
(
-2.00478e-06
-2.00478e-06
-2.00478e-06
-2.00478e-06
-2.00478e-06
-2.00478e-06
-2.00478e-06
-2.00478e-06
-2.00478e-06
-2.00478e-06
-2.00478e-06
-2.00478e-06
-2.00478e-06
-2.00478e-06
-2.00478e-06
-2.00478e-06
-2.00478e-06
-2.00478e-06
-2.00478e-06
-2.00478e-06
-2.00478e-06
-2.00478e-06
-2.00478e-06
-2.00478e-06
-2.00478e-06
-2.00478e-06
-2.00478e-06
-2.00478e-06
-2.00478e-06
-2.00478e-06
-2.00478e-06
-2.00478e-06
-2.00478e-06
-2.00478e-06
-2.00478e-06
-2.00478e-06
-2.00478e-06
-2.00478e-06
-2.00478e-06
-2.00478e-06
-2.00478e-06
-2.00478e-06
-2.00478e-06
-2.00478e-06
-2.00478e-06
-2.00478e-06
-2.00478e-06
-2.00478e-06
-2.00478e-06
-2.00478e-06
)
;
    }
    inandouthalf42
    {
        type            cyclic;
        value           nonuniform List<scalar> 
50
(
2.00478e-06
2.00478e-06
2.00478e-06
2.00478e-06
2.00478e-06
2.00478e-06
2.00478e-06
2.00478e-06
2.00478e-06
2.00478e-06
2.00478e-06
2.00478e-06
2.00478e-06
2.00478e-06
2.00478e-06
2.00478e-06
2.00478e-06
2.00478e-06
2.00478e-06
2.00478e-06
2.00478e-06
2.00478e-06
2.00478e-06
2.00478e-06
2.00478e-06
2.00478e-06
2.00478e-06
2.00478e-06
2.00478e-06
2.00478e-06
2.00478e-06
2.00478e-06
2.00478e-06
2.00478e-06
2.00478e-06
2.00478e-06
2.00478e-06
2.00478e-06
2.00478e-06
2.00478e-06
2.00478e-06
2.00478e-06
2.00478e-06
2.00478e-06
2.00478e-06
2.00478e-06
2.00478e-06
2.00478e-06
2.00478e-06
2.00478e-06
)
;
    }
    top
    {
        type            symmetryPlane;
        value           uniform 0;
    }
    walls
    {
        type            fixedValue;
        value           uniform 0;
    }
    frontAndBackPlanes
    {
        type            empty;
        value           nonuniform 0();
    }
}


// ************************************************************************* //
