/*--------------------------------*- C++ -*----------------------------------*\
| =========                 |                                                 |
| \\      /  F ield         | OpenFOAM: The Open Source CFD Toolbox           |
|  \\    /   O peration     | Version:  2.4.x                                 |
|   \\  /    A nd           | Web:      www.OpenFOAM.org                      |
|    \\/     M anipulation  |                                                 |
\*---------------------------------------------------------------------------*/
FoamFile
{
    version     2.0;
    format      ascii;
    class       volVectorField;
    location    "7.7";
    object      susb;
}
// * * * * * * * * * * * * * * * * * * * * * * * * * * * * * * * * * * * * * //

dimensions      [0 1 -2 0 0 0 0];

internalField   nonuniform List<vector> 
360
(
(0 5.74494e-18 0)
(0 6.46367e-18 0)
(0 8.59925e-20 0)
(0 -9.17283e-19 0)
(-3.69806e-31 -4.27925e-19 0)
(-7.39531e-31 -2.35761e-19 0)
(-3.69721e-31 -2.79822e-19 0)
(0 -3.1505e-19 0)
(-3.69608e-31 -3.21803e-19 0)
(0 -3.26185e-19 0)
(-7.38982e-31 -3.27463e-19 0)
(0 -3.28085e-19 0)
(-7.38746e-31 -3.30102e-19 0)
(0 -3.32354e-19 0)
(0 -3.35843e-19 0)
(0 -3.39481e-19 0)
(0 -3.42205e-19 0)
(-7.38141e-31 -3.44507e-19 0)
(0 -3.4837e-19 0)
(0 -3.50818e-19 0)
(0 -3.53434e-19 0)
(-7.37638e-31 -3.57599e-19 0)
(0 -3.60418e-19 0)
(0 -3.6381e-19 0)
(0 -3.67297e-19 0)
(-3.68558e-31 -3.69987e-19 0)
(0 -3.74011e-19 0)
(0 -3.78225e-19 0)
(0 -3.81012e-19 0)
(0 -3.8437e-19 0)
(0 -3.89443e-19 0)
(0 -3.91739e-19 0)
(0 -3.96418e-19 0)
(0 -4.01189e-19 0)
(0 -4.03883e-19 0)
(3.67861e-31 -4.08137e-19 0)
(0 -4.12158e-19 0)
(0 -4.18557e-19 0)
(0 -4.20082e-19 0)
(0 -4.25031e-19 0)
(0 -4.32071e-19 0)
(0 -4.32855e-19 0)
(3.67331e-31 -4.39167e-19 0)
(0 -4.44922e-19 0)
(0 -4.4822e-19 0)
(0 -4.55056e-19 0)
(0 -4.57374e-19 0)
(0 -4.61565e-19 0)
(0 -4.71344e-19 0)
(0 -4.74219e-19 0)
(7.33346e-31 -4.78084e-19 0)
(0 -4.85226e-19 0)
(0 -4.90877e-19 0)
(0 -4.95197e-19 0)
(0 -5.02266e-19 0)
(0 -5.0789e-19 0)
(0 -5.13067e-19 0)
(0 -5.20913e-19 0)
(0 -5.23494e-19 0)
(0 -5.3253e-19 0)
(0 -5.3954e-19 0)
(0 -5.45242e-19 0)
(0 -5.53443e-19 0)
(0 -5.59227e-19 0)
(0 -5.65995e-19 0)
(0 -5.73411e-19 0)
(0 -5.82047e-19 0)
(0 -5.88912e-19 0)
(0 -5.94196e-19 0)
(0 -6.0387e-19 0)
(0 -6.1571e-19 0)
(0 -6.20322e-19 0)
(0 -6.2879e-19 0)
(0 -6.3999e-19 0)
(0 -6.4943e-19 0)
(0 -6.58132e-19 0)
(0 -6.65721e-19 0)
(0 -6.76551e-19 0)
(0 -6.8727e-19 0)
(0 -6.96774e-19 0)
(0 -7.07319e-19 0)
(0 -7.19526e-19 0)
(0 -7.31089e-19 0)
(0 -7.43004e-19 0)
(0 -7.55227e-19 0)
(0 -7.67816e-19 0)
(0 -7.80451e-19 0)
(0 -7.92974e-19 0)
(0 -8.06511e-19 0)
(0 -8.20605e-19 0)
(0 -8.34996e-19 0)
(0 -8.50295e-19 0)
(0 -8.66365e-19 0)
(0 -8.82782e-19 0)
(0 -8.99721e-19 0)
(0 -9.17181e-19 0)
(0 -9.35115e-19 0)
(0 -9.53606e-19 0)
(0 -9.72808e-19 0)
(0 -9.92766e-19 0)
(0 -1.01352e-18 0)
(0 -1.03517e-18 0)
(0 -1.05772e-18 0)
(0 -1.08117e-18 0)
(0 -1.10558e-18 0)
(0 -1.131e-18 0)
(0 -1.15748e-18 0)
(0 -1.18509e-18 0)
(0 -1.21391e-18 0)
(0 -1.24399e-18 0)
(0 -1.2754e-18 0)
(0 -1.30819e-18 0)
(0 -1.34242e-18 0)
(0 -1.37816e-18 0)
(0 -1.41548e-18 0)
(0 -1.45444e-18 0)
(0 -1.49515e-18 0)
(0 -1.5377e-18 0)
(0 -1.58223e-18 0)
(0 -1.62889e-18 0)
(0 -1.67783e-18 0)
(0 -1.72922e-18 0)
(0 -1.78324e-18 0)
(0 -1.84017e-18 0)
(0 -1.90053e-18 0)
(0 -1.96522e-18 0)
(0 -2.03549e-18 0)
(0 -2.11248e-18 0)
(0 -2.19631e-18 0)
(0 -2.28552e-18 0)
(0 -2.37858e-18 0)
(0 -2.47904e-18 0)
(0 -2.59836e-18 0)
(0 -2.85777e-18 0)
(0 -9.19677e-18 0)
(0 -3.39766e-17 0)
(0 -1.19181e-16 0)
(0 -3.82293e-16 0)
(0 -1.05688e-15 0)
(0 -2.18197e-15 0)
(0 -3.509e-15 0)
(0 -1.49559e-14 0)
(0 -2.01411e-13 0)
(0 -3.91509e-12 0)
(0 -1.21929e-10 0)
(0 -5.7928e-09 0)
(0 -1.14115e-07 0)
(0 -3.61021e-06 0)
(0 -0.00879386 0)
(0 -0.525703 0)
(0 -1.18399 0)
(0 -0.57969 0)
(0 -0.325597 0)
(0 -0.208818 0)
(0 -0.135735 0)
(0 -0.0887281 0)
(0 -0.0583234 0)
(0 -0.0392815 0)
(0 -0.0280543 0)
(0 -0.0213688 0)
(0 -0.0170396 0)
(0 -0.0140207 0)
(0 -0.011804 0)
(0 -0.0101118 0)
(0 -0.00878123 0)
(0 -0.00771127 0)
(0 -0.00683528 0)
(0 -0.00610717 0)
(0 -0.00549423 0)
(0 -0.00497245 0)
(0 -0.00452382 0)
(0 -0.00413453 0)
(0 -0.00379388 0)
(0 -0.00349341 0)
(0 -0.00322641 0)
(0 -0.00298749 0)
(0 -0.0027723 0)
(0 -0.00257733 0)
(0 -0.0023997 0)
(0 -0.00223707 0)
(0 -0.00208754 0)
(0 -0.00194955 0)
(0 -0.0018218 0)
(0 -0.00170325 0)
(0 -0.00159303 0)
(0 -0.00149041 0)
(0 -0.00139478 0)
(0 -0.00130557 0)
(0 -0.00122232 0)
(0 -0.00114455 0)
(0 -0.00107187 0)
(0 -0.00100393 0)
(0 -0.000940443 0)
(0 -0.000881184 0)
(0 -0.000825951 0)
(0 -0.000774542 0)
(0 -0.000726769 0)
(0 -0.000682452 0)
(0 -0.000641361 0)
(0 -0.000603111 0)
(0 -0.00056718 0)
(0 -0.000532749 0)
(-2.93395e-19 -0.000499276 0)
(0 -0.000466617 0)
(0 -0.000434532 0)
(1.33864e-19 -0.000402702 0)
(0 -0.000370902 0)
(-1.24772e-19 -0.000339097 0)
(0 -0.000307452 0)
(1.15265e-19 -0.000276214 0)
(0 -0.000245693 0)
(0 -0.000216182 0)
(0 -0.000187867 0)
(4.76189e-20 -0.000161357 0)
(0 -0.000137487 0)
(0 -0.00011677 0)
(0 -9.99132e-05 0)
(0 -8.6988e-05 0)
(0 -7.64751e-05 0)
(-2.08914e-20 -6.71595e-05 0)
(0 -5.85455e-05 0)
(0 -5.05956e-05 0)
(0 -4.35671e-05 0)
(-1.05578e-20 -3.7302e-05 0)
(0 -3.16168e-05 0)
(0 -2.66631e-05 0)
(0 -2.23972e-05 0)
(0 -1.86819e-05 0)
(5.04381e-21 -1.55049e-05 0)
(0 -1.27593e-05 0)
(0 -1.04964e-05 0)
(0 -8.43331e-06 0)
(0 -6.58265e-06 0)
(0 -5.03956e-06 0)
(0 -5.03711e-06 0)
(0 -4.78618e-06 0)
(0 -2.74365e-06 0)
(0 -1.16963e-06 0)
(0 -9.68714e-07 0)
(0 -6.98366e-07 0)
(0 -4.81232e-07 0)
(0 -3.28943e-07 0)
(0 -2.23071e-07 0)
(-2.56396e-34 -5.32524e-08 0)
(3.62818e-45 -1.28207e-18 0)
(0 -1.46519e-29 0)
(0 -1.00205e-37 0)
(-2.05674e-53 -4.74537e-38 0)
(0 -3.1203e-38 0)
(0 -3.04852e-38 0)
(-3.7562e-54 -2.51175e-38 0)
(0 -1.25092e-38 0)
(0 -4.13175e-39 0)
(0 -1.61856e-39 0)
(0 -7.22369e-40 0)
(0 -3.95031e-40 0)
(0 -2.63616e-40 0)
(0 -1.35453e-40 0)
(0 -4.42374e-41 0)
(0 -1.45068e-41 0)
(0 -4.55139e-42 0)
(0 -9.22399e-43 0)
(0 -4.80952e-44 0)
(0 -6.29068e-46 0)
(0 -6.77758e-48 0)
(0 -6.96849e-50 0)
(1.77551e-67 -6.68756e-52 0)
(0 -5.98346e-54 0)
(0 -4.97203e-56 0)
(0 -3.58159e-58 0)
(0 -1.06604e-60 0)
(0 -1.5721e-61 0)
(0 -6.95562e-62 0)
(0 -3.01613e-62 0)
(0 -1.28091e-62 0)
(0 -5.3238e-63 0)
(0 -2.16382e-63 0)
(0 -8.59324e-64 0)
(0 -3.33158e-64 0)
(0 -1.25978e-64 0)
(0 -4.6415e-65 0)
(0 -1.6645e-65 0)
(0 -5.8033e-66 0)
(0 -1.96475e-66 0)
(0 -6.45076e-67 0)
(0 -2.05105e-67 0)
(9.27578e-84 -6.30581e-68 0)
(0 -1.8715e-68 0)
(0 -5.3523e-69 0)
(0 -1.47212e-69 0)
(0 -3.88565e-70 0)
(0 -9.81913e-71 0)
(0 -2.36938e-71 0)
(0 -5.4435e-72 0)
(0 -1.18683e-72 0)
(0 -2.44662e-73 0)
(3.61787e-90 -4.7489e-74 0)
(0 -8.63753e-75 0)
(0 -1.46402e-75 0)
(-2.66111e-92 -2.29743e-76 0)
(0 -3.31228e-77 0)
(0 -4.34671e-78 0)
(0 -5.13299e-79 0)
(0 -5.37629e-80 0)
(0 -4.90165e-81 0)
(0 -3.79225e-82 0)
(0 -2.40058e-83 0)
(0 -1.17489e-84 0)
(0 -4.02071e-86 0)
(0 -7.6431e-88 0)
(0 -2.30792e-90 0)
(0 -4.71708e-95 0)
(0 -4.0988e-97 0)
(0 -1.76603e-99 0)
(0 -6.09075e-110 0)
(0 -1.04952e-120 0)
(0 -1.30675e-131 0)
(0 -1.16959e-142 0)
(0 -8.95713e-154 0)
(0 -5.19245e-165 0)
(0 -2.60139e-176 0)
(0 -2.06947e-186 0)
(0 -8.82577e-197 0)
(0 -6.81526e-205 0)
(0 -2.61709e-215 0)
(0 -2.34419e-223 0)
(0 -1.0552e-233 0)
(0 -8.06603e-242 0)
(0 -4.45395e-252 0)
(0 -2.77764e-260 0)
(0 -2.83033e-270 0)
(0 -9.72095e-279 0)
(0 -1.86159e-288 0)
(0 -3.48131e-297 0)
(0 -9.19325e-307 0)
(0 -1.27322e-315 0)
(0 -0 0)
(0 -0 0)
(0 0 0)
(0 0 0)
(0 0 0)
(0 0 0)
(0 0 0)
(0 0 0)
(0 0 0)
(0 0 0)
(0 0 0)
(0 0 0)
(0 0 0)
(0 0 0)
(0 0 0)
(0 0 0)
(0 0 0)
(0 0 0)
(0 0 0)
(0 0 0)
(0 0 0)
(0 0 0)
(0 0 0)
(0 0 0)
)
;

boundaryField
{
    inandouthalf11
    {
        type            cyclic;
    }
    inandouthalf12
    {
        type            cyclic;
    }
    inandouthalf21
    {
        type            cyclic;
    }
    inandouthalf22
    {
        type            cyclic;
    }
    inandouthalf31
    {
        type            cyclic;
    }
    inandouthalf32
    {
        type            cyclic;
    }
    inandouthalf41
    {
        type            cyclic;
    }
    inandouthalf42
    {
        type            cyclic;
    }
    top
    {
        type            symmetryPlane;
    }
    walls
    {
        type            zeroGradient;
    }
    frontAndBackPlanes
    {
        type            empty;
    }
}


// ************************************************************************* //
