/*--------------------------------*- C++ -*----------------------------------*\
| =========                 |                                                 |
| \\      /  F ield         | OpenFOAM: The Open Source CFD Toolbox           |
|  \\    /   O peration     | Version:  2.4.x                                 |
|   \\  /    A nd           | Web:      www.OpenFOAM.org                      |
|    \\/     M anipulation  |                                                 |
\*---------------------------------------------------------------------------*/
FoamFile
{
    version     2.0;
    format      ascii;
    class       volVectorField;
    location    "7.7";
    object      U;
}
// * * * * * * * * * * * * * * * * * * * * * * * * * * * * * * * * * * * * * //

dimensions      [0 1 -1 0 0 0 0];

internalField   nonuniform List<vector> 
360
(
(0.000106391 1.45472e-08 0)
(0.000105622 -2.87346e-09 0)
(0.000105521 -2.7254e-09 0)
(0.000105632 2.12709e-11 0)
(0.000105696 4.90937e-10 0)
(0.000105727 1.12176e-10 0)
(0.000105759 -5.95117e-11 0)
(0.000105797 -5.79866e-11 0)
(0.000105835 -3.76032e-11 0)
(0.000105873 -2.69252e-11 0)
(0.000105912 -2.39373e-11 0)
(0.00010595 -2.70186e-11 0)
(0.000105989 -2.95864e-11 0)
(0.000106027 -2.9373e-11 0)
(0.000106066 -2.58218e-11 0)
(0.000106104 -2.06379e-11 0)
(0.000106143 -1.61972e-11 0)
(0.000106182 -1.24871e-11 0)
(0.000106221 -9.38072e-12 0)
(0.000106261 -5.49115e-12 0)
(0.0001063 -3.66227e-12 0)
(0.00010634 3.00101e-13 0)
(0.000106379 3.34891e-12 0)
(0.000106419 5.40896e-12 0)
(0.00010646 7.23853e-12 0)
(0.0001065 8.90068e-12 0)
(0.00010654 1.0151e-11 0)
(0.000106581 1.26578e-11 0)
(0.000106622 1.30217e-11 0)
(0.000106664 1.33456e-11 0)
(0.000106705 1.33023e-11 0)
(0.000106747 1.59448e-11 0)
(0.000106789 1.28873e-11 0)
(0.000106832 1.71352e-11 0)
(0.000106874 1.3609e-11 0)
(0.000106917 1.44572e-11 0)
(0.00010696 1.39694e-11 0)
(0.000107004 1.41838e-11 0)
(0.000107047 1.62099e-11 0)
(0.000107091 1.00498e-11 0)
(0.000107136 1.42586e-11 0)
(0.000107181 1.26659e-11 0)
(0.000107225 7.63514e-12 0)
(0.000107271 1.30412e-11 0)
(0.000107316 9.35628e-12 0)
(0.000107362 6.9482e-12 0)
(0.000107409 6.91805e-12 0)
(0.000107455 8.38263e-13 0)
(0.000107503 3.04587e-12 0)
(0.00010755 7.33329e-12 0)
(0.000107598 -2.97477e-12 0)
(0.000107646 -7.39667e-13 0)
(0.000107695 -4.97595e-12 0)
(0.000107744 -3.9811e-12 0)
(0.000107793 -1.30912e-11 0)
(0.000107843 -8.03509e-12 0)
(0.000107893 -1.95427e-11 0)
(0.000107944 -1.92153e-11 0)
(0.000107996 -2.27935e-11 0)
(0.000108047 -3.1513e-11 0)
(0.000108099 -2.14092e-11 0)
(0.000108152 -3.09457e-11 0)
(0.000108205 -2.75963e-11 0)
(0.000108258 -3.45042e-11 0)
(0.000108313 -3.73516e-11 0)
(0.000108367 -4.34418e-11 0)
(0.000108422 -4.56263e-11 0)
(0.000108478 -5.01104e-11 0)
(0.000108534 -5.34744e-11 0)
(0.000108591 -5.91451e-11 0)
(0.000108649 -5.32808e-11 0)
(0.000108707 -4.93575e-11 0)
(0.000108766 -6.13852e-11 0)
(0.000108825 -5.27442e-11 0)
(0.000108885 -5.8005e-11 0)
(0.000108946 -5.71258e-11 0)
(0.000109008 -6.79331e-11 0)
(0.00010907 -7.27959e-11 0)
(0.000109133 -7.59328e-11 0)
(0.000109197 -7.79348e-11 0)
(0.000109262 -8.28091e-11 0)
(0.000109328 -8.20763e-11 0)
(0.000109394 -8.12766e-11 0)
(0.000109462 -8.29623e-11 0)
(0.00010953 -8.47044e-11 0)
(0.0001096 -8.99224e-11 0)
(0.00010967 -9.53928e-11 0)
(0.000109742 -1.0413e-10 0)
(0.000109814 -1.12984e-10 0)
(0.000109888 -1.20326e-10 0)
(0.000109963 -1.26842e-10 0)
(0.000110039 -1.32472e-10 0)
(0.000110116 -1.35832e-10 0)
(0.000110195 -1.38814e-10 0)
(0.000110275 -1.41906e-10 0)
(0.000110356 -1.45302e-10 0)
(0.000110439 -1.49272e-10 0)
(0.000110524 -1.53871e-10 0)
(0.00011061 -1.58778e-10 0)
(0.000110698 -1.63527e-10 0)
(0.000110788 -1.68029e-10 0)
(0.000110879 -1.7208e-10 0)
(0.000110973 -1.755e-10 0)
(0.000111068 -1.78401e-10 0)
(0.000111166 -1.80804e-10 0)
(0.000111266 -1.82622e-10 0)
(0.000111368 -1.83788e-10 0)
(0.000111472 -1.84188e-10 0)
(0.00011158 -1.83669e-10 0)
(0.000111689 -1.82112e-10 0)
(0.000111802 -1.79417e-10 0)
(0.000111917 -1.75502e-10 0)
(0.000112036 -1.70319e-10 0)
(0.000112158 -1.63856e-10 0)
(0.000112283 -1.56152e-10 0)
(0.000112412 -1.47322e-10 0)
(0.000112544 -1.37592e-10 0)
(0.000112681 -1.27321e-10 0)
(0.000112821 -1.1705e-10 0)
(0.000112966 -1.07538e-10 0)
(0.000113115 -9.97856e-11 0)
(0.000113269 -9.50008e-11 0)
(0.000113428 -9.45143e-11 0)
(0.000113592 -9.96254e-11 0)
(0.000113762 -1.11404e-10 0)
(0.000113938 -1.3055e-10 0)
(0.00011412 -1.57377e-10 0)
(0.000114308 -1.91802e-10 0)
(0.000114505 -2.32993e-10 0)
(0.00011471 -2.78781e-10 0)
(0.000114924 -3.25844e-10 0)
(0.000115147 -3.71866e-10 0)
(0.000115381 -4.13092e-10 0)
(0.000115628 -4.31666e-10 0)
(0.00011589 -4.03279e-10 0)
(0.000116168 -3.49356e-10 0)
(0.00011646 -3.40887e-10 0)
(0.000116771 -4.30652e-10 0)
(0.000117115 -5.57704e-10 0)
(0.000117511 -4.60734e-10 0)
(0.00011794 -2.46327e-10 0)
(0.000118355 -1.67978e-09 0)
(0.000118857 -2.35296e-09 0)
(0.000119512 -2.21074e-09 0)
(0.000120336 -8.55106e-09 0)
(0.000121939 -2.55722e-08 0)
(0.000125323 3.85569e-07 0)
(0.000127719 -1.0167e-06 0)
(0.000161709 6.06049e-06 0)
(0.0276172 -3.73237e-06 0)
(0.158574 -0.000315639 0)
(0.264346 0.000102409 0)
(0.331812 -4.78435e-05 0)
(0.377677 1.4101e-05 0)
(0.407917 -1.71754e-06 0)
(0.426802 3.13577e-07 0)
(0.438177 5.55784e-07 0)
(0.444986 4.14179e-07 0)
(0.449091 2.16467e-07 0)
(0.451556 1.07578e-07 0)
(0.452973 6.12296e-08 0)
(0.453683 3.72193e-08 0)
(0.453888 2.359e-08 0)
(0.453717 1.5433e-08 0)
(0.453251 1.03569e-08 0)
(0.452549 7.08263e-09 0)
(0.45165 4.91017e-09 0)
(0.450584 3.43241e-09 0)
(0.449375 2.40813e-09 0)
(0.44804 1.68817e-09 0)
(0.446593 1.17681e-09 0)
(0.445048 8.1074e-10 0)
(0.443413 5.47418e-10 0)
(0.441698 3.57589e-10 0)
(0.439911 2.20803e-10 0)
(0.438058 1.22618e-10 0)
(0.436146 5.26321e-11 0)
(0.43418 3.33185e-12 0)
(0.432165 -3.08055e-11 0)
(0.430105 -5.38155e-11 0)
(0.428005 -6.8719e-11 0)
(0.425869 -7.77284e-11 0)
(0.4237 -8.25185e-11 0)
(0.421502 -8.43152e-11 0)
(0.419278 -8.40517e-11 0)
(0.41703 -8.2401e-11 0)
(0.414762 -7.98568e-11 0)
(0.412475 -7.67395e-11 0)
(0.410173 -7.32521e-11 0)
(0.407857 -6.95194e-11 0)
(0.405529 -6.56669e-11 0)
(0.403192 -6.18527e-11 0)
(0.400848 -5.82391e-11 0)
(0.398497 -5.48723e-11 0)
(0.396142 -5.16469e-11 0)
(0.393784 -4.84752e-11 0)
(0.391424 -4.55405e-11 0)
(0.389065 -4.31558e-11 0)
(0.386707 -4.11587e-11 0)
(0.384351 -3.87396e-11 0)
(0.381999 -3.54121e-11 0)
(0.379627 -3.32774e-11 0)
(0.377212 -3.24333e-11 0)
(0.374755 -3.10585e-11 0)
(0.372255 -2.96931e-11 0)
(0.369712 -2.66786e-11 0)
(0.367126 -2.407e-11 0)
(0.364498 -2.08432e-11 0)
(0.361828 -1.88717e-11 0)
(0.359116 -1.61314e-11 0)
(0.356362 -1.51007e-11 0)
(0.353568 -1.23567e-11 0)
(0.350734 -8.33335e-12 0)
(0.347861 -8.59651e-12 0)
(0.34495 -1.06091e-11 0)
(0.342001 -7.36335e-12 0)
(0.339016 -5.34865e-12 0)
(0.335996 -7.43294e-12 0)
(0.332944 -7.78221e-12 0)
(0.329859 -7.16724e-12 0)
(0.326745 -4.45703e-12 0)
(0.323604 -4.56794e-12 0)
(0.320437 -6.44844e-12 0)
(0.317247 -3.39731e-12 0)
(0.314038 -2.6091e-12 0)
(0.310811 -3.22556e-12 0)
(0.307571 -2.32691e-12 0)
(0.30432 -1.4214e-12 0)
(0.301064 -1.50095e-12 0)
(0.297807 -1.79913e-13 0)
(0.294553 -2.66143e-12 0)
(0.291309 2.4019e-12 0)
(0.28808 1.08201e-12 0)
(0.284873 6.6547e-12 0)
(0.281696 -1.65487e-11 0)
(0.278556 9.18446e-12 0)
(0.275464 -3.73561e-12 0)
(0.272429 2.18452e-11 0)
(0.269464 -5.28583e-11 0)
(0.266579 6.50326e-11 0)
(0.26379 -5.40335e-11 0)
(0.261113 4.41347e-11 0)
(0.258563 4.81899e-12 0)
(0.256159 1.62848e-11 0)
(0.253922 4.49459e-14 0)
(0.251873 3.86233e-13 0)
(0.250033 1.5913e-12 0)
(0.248423 1.76404e-12 0)
(0.247065 1.62587e-12 0)
(0.245975 1.52772e-12 0)
(0.245165 1.53111e-12 0)
(0.24464 1.68157e-12 0)
(0.244398 1.45947e-12 0)
(0.244427 -4.85252e-12 0)
(0.244705 2.38451e-11 0)
(0.245206 -5.13569e-11 0)
(0.245894 9.94309e-11 0)
(0.246727 -1.59846e-10 0)
(0.247658 2.41466e-10 0)
(0.248625 -3.34972e-10 0)
(0.249549 4.45984e-10 0)
(0.250298 -5.6419e-10 0)
(0.250573 6.92832e-10 0)
(0.250596 -8.23191e-10 0)
(0.250597 9.59748e-10 0)
(0.250597 -1.0971e-09 0)
(0.250597 1.24022e-09 0)
(0.250597 -1.3846e-09 0)
(0.250597 1.53477e-09 0)
(0.250597 -1.68665e-09 0)
(0.250597 1.84438e-09 0)
(0.250597 -2.00421e-09 0)
(0.250597 2.16995e-09 0)
(0.250597 -2.33813e-09 0)
(0.250597 2.51232e-09 0)
(0.250597 -2.68923e-09 0)
(0.250597 2.87221e-09 0)
(0.250597 -3.05818e-09 0)
(0.250597 3.25027e-09 0)
(0.250597 -3.44564e-09 0)
(0.250597 3.64711e-09 0)
(0.250597 -3.85214e-09 0)
(0.250597 4.06328e-09 0)
(0.250597 -4.2782e-09 0)
(0.250597 4.49925e-09 0)
(0.250597 -4.72429e-09 0)
(0.250597 4.95544e-09 0)
(0.250597 -5.19083e-09 0)
(0.250597 5.43223e-09 0)
(0.250597 -5.67814e-09 0)
(0.250597 5.92998e-09 0)
(0.250597 -6.18655e-09 0)
(0.250597 6.44897e-09 0)
(0.250597 -6.71634e-09 0)
(0.250597 6.98944e-09 0)
(0.250597 -7.26773e-09 0)
(0.250597 7.5516e-09 0)
(0.250597 -7.84084e-09 0)
(0.250597 8.13566e-09 0)
(0.250597 -8.43587e-09 0)
(0.250597 8.74164e-09 0)
(0.250597 -9.05285e-09 0)
(0.250597 9.36959e-09 0)
(0.250597 -9.69177e-09 0)
(0.250597 1.00194e-08 0)
(0.250597 -1.03525e-08 0)
(0.250597 1.0691e-08 0)
(0.250597 -1.10349e-08 0)
(0.250597 1.1384e-08 0)
(0.250597 -1.17385e-08 0)
(0.250597 1.06211e-08 0)
(0.250597 -1.07401e-08 0)
(0.250597 1.08578e-08 0)
(0.250597 -1.09742e-08 0)
(0.250597 1.10894e-08 0)
(0.250597 -1.12033e-08 0)
(0.250597 1.13159e-08 0)
(0.250597 -1.14272e-08 0)
(0.250597 1.15371e-08 0)
(0.250597 -1.16458e-08 0)
(0.250597 1.1753e-08 0)
(0.250597 -1.1859e-08 0)
(0.250597 1.19635e-08 0)
(0.250597 -1.20667e-08 0)
(0.250597 1.21683e-08 0)
(0.250597 -1.22686e-08 0)
(0.250597 1.23673e-08 0)
(0.250597 -1.24647e-08 0)
(0.250597 1.25603e-08 0)
(0.250597 -1.26548e-08 0)
(0.250597 1.2747e-08 0)
(0.250597 -1.28389e-08 0)
(0.250597 1.29274e-08 0)
(0.250597 -1.30165e-08 0)
(0.250597 1.31013e-08 0)
(0.250597 -1.31875e-08 0)
(0.250597 1.32683e-08 0)
(0.250597 -1.33515e-08 0)
(0.250597 1.34283e-08 0)
(0.250597 -1.35084e-08 0)
(0.250597 1.35808e-08 0)
(0.250597 -1.36577e-08 0)
(0.250597 1.37255e-08 0)
(0.250597 -1.37992e-08 0)
(0.250597 1.38618e-08 0)
(0.250597 -1.39324e-08 0)
(0.250597 1.39891e-08 0)
(0.250597 -1.40566e-08 0)
(0.250597 1.41071e-08 0)
(0.250597 -1.41712e-08 0)
(0.250597 1.42148e-08 0)
(0.250597 -1.42747e-08 0)
(0.250597 1.4311e-08 0)
(0.250597 -1.43671e-08 0)
(0.250597 1.43936e-08 0)
(0.250597 -1.44448e-08 0)
(0.250597 1.44614e-08 0)
(0.250597 -1.45049e-08 0)
(0.250597 1.45085e-08 0)
(0.250597 -1.45342e-08 0)
)
;

boundaryField
{
    inandouthalf11
    {
        type            cyclic;
    }
    inandouthalf12
    {
        type            cyclic;
    }
    inandouthalf21
    {
        type            cyclic;
    }
    inandouthalf22
    {
        type            cyclic;
    }
    inandouthalf31
    {
        type            cyclic;
    }
    inandouthalf32
    {
        type            cyclic;
    }
    inandouthalf41
    {
        type            cyclic;
    }
    inandouthalf42
    {
        type            cyclic;
    }
    top
    {
        type            symmetryPlane;
    }
    walls
    {
        type            calculated;
        value           uniform (0 0 0);
    }
    frontAndBackPlanes
    {
        type            empty;
    }
}


// ************************************************************************* //
