/*--------------------------------*- C++ -*----------------------------------*\
| =========                 |                                                 |
| \\      /  F ield         | OpenFOAM: The Open Source CFD Toolbox           |
|  \\    /   O peration     | Version:  2.4.x                                 |
|   \\  /    A nd           | Web:      www.OpenFOAM.org                      |
|    \\/     M anipulation  |                                                 |
\*---------------------------------------------------------------------------*/
FoamFile
{
    version     2.0;
    format      ascii;
    class       volVectorField;
    location    "7.7";
    object      Ur;
}
// * * * * * * * * * * * * * * * * * * * * * * * * * * * * * * * * * * * * * //

dimensions      [0 1 -1 0 0 0 0];

internalField   nonuniform List<vector> 
360
(
(0.000273368 3.73784e-08 0)
(0.000271937 2.23618e-07 0)
(0.000271711 4.07786e-07 0)
(0.000271908 5.73248e-07 0)
(0.000272011 7.39332e-07 0)
(0.000272048 9.1013e-07 0)
(0.000272089 1.08245e-06 0)
(0.000272139 1.25433e-06 0)
(0.000272192 1.42546e-06 0)
(0.000272245 1.59599e-06 0)
(0.000272299 1.7661e-06 0)
(0.000272352 1.93584e-06 0)
(0.000272406 2.10516e-06 0)
(0.000272461 2.27403e-06 0)
(0.000272516 2.44246e-06 0)
(0.000272571 2.6105e-06 0)
(0.000272627 2.77824e-06 0)
(0.000272684 2.94575e-06 0)
(0.00027274 3.11308e-06 0)
(0.000272798 3.28032e-06 0)
(0.000272856 3.44749e-06 0)
(0.000272915 3.61465e-06 0)
(0.000272974 3.78187e-06 0)
(0.000273033 3.94918e-06 0)
(0.000273094 4.11663e-06 0)
(0.000273154 4.28425e-06 0)
(0.000273216 4.45206e-06 0)
(0.000273278 4.6201e-06 0)
(0.000273341 4.78839e-06 0)
(0.000273404 4.95695e-06 0)
(0.000273467 5.12578e-06 0)
(0.000273532 5.29491e-06 0)
(0.000273597 5.46431e-06 0)
(0.000273664 5.63403e-06 0)
(0.00027373 5.80405e-06 0)
(0.000273797 5.97437e-06 0)
(0.000273865 6.14498e-06 0)
(0.000273934 6.31588e-06 0)
(0.000274004 6.48711e-06 0)
(0.000274073 6.6586e-06 0)
(0.000274145 6.83038e-06 0)
(0.000274216 7.00244e-06 0)
(0.000274288 7.17473e-06 0)
(0.000274362 7.34728e-06 0)
(0.000274436 7.52007e-06 0)
(0.000274511 7.69308e-06 0)
(0.000274588 7.8663e-06 0)
(0.000274664 8.03965e-06 0)
(0.000274741 8.21311e-06 0)
(0.000274821 8.38674e-06 0)
(0.000274899 8.56047e-06 0)
(0.00027498 8.73428e-06 0)
(0.000275061 8.90813e-06 0)
(0.000275144 9.082e-06 0)
(0.000275227 9.25581e-06 0)
(0.000275312 9.42958e-06 0)
(0.000275396 9.60319e-06 0)
(0.000275483 9.77662e-06 0)
(0.000275571 9.9498e-06 0)
(0.000275658 1.01226e-05 0)
(0.000275749 1.02951e-05 0)
(0.000275839 1.04672e-05 0)
(0.000275932 1.0639e-05 0)
(0.000276025 1.08103e-05 0)
(0.00027612 1.09812e-05 0)
(0.000276215 1.11516e-05 0)
(0.000276312 1.13213e-05 0)
(0.000276411 1.14903e-05 0)
(0.000276511 1.16587e-05 0)
(0.000276611 1.18261e-05 0)
(0.000276714 1.19928e-05 0)
(0.000276819 1.21587e-05 0)
(0.000276923 1.23238e-05 0)
(0.000277031 1.24881e-05 0)
(0.00027714 1.26516e-05 0)
(0.00027725 1.28143e-05 0)
(0.000277362 1.29761e-05 0)
(0.000277476 1.31368e-05 0)
(0.000277591 1.32966e-05 0)
(0.000277709 1.34552e-05 0)
(0.000277828 1.36126e-05 0)
(0.000277949 1.37688e-05 0)
(0.000278072 1.39237e-05 0)
(0.000278197 1.40775e-05 0)
(0.000278325 1.42301e-05 0)
(0.000278455 1.43814e-05 0)
(0.000278587 1.45313e-05 0)
(0.000278721 1.46799e-05 0)
(0.000278857 1.48269e-05 0)
(0.000278996 1.49721e-05 0)
(0.000279138 1.51156e-05 0)
(0.000279282 1.52571e-05 0)
(0.000279429 1.53967e-05 0)
(0.000279579 1.55342e-05 0)
(0.000279732 1.56696e-05 0)
(0.000279888 1.58029e-05 0)
(0.000280047 1.5934e-05 0)
(0.00028021 1.60628e-05 0)
(0.000280376 1.61893e-05 0)
(0.000280545 1.63134e-05 0)
(0.000280718 1.64351e-05 0)
(0.000280895 1.65543e-05 0)
(0.000281076 1.66709e-05 0)
(0.000281262 1.67848e-05 0)
(0.000281451 1.68962e-05 0)
(0.000281645 1.70048e-05 0)
(0.000281844 1.71108e-05 0)
(0.000282048 1.7214e-05 0)
(0.000282257 1.73146e-05 0)
(0.000282471 1.74125e-05 0)
(0.000282691 1.75078e-05 0)
(0.000282917 1.76005e-05 0)
(0.000283149 1.76908e-05 0)
(0.000283388 1.77787e-05 0)
(0.000283633 1.78644e-05 0)
(0.000283885 1.7948e-05 0)
(0.000284145 1.80298e-05 0)
(0.000284413 1.81098e-05 0)
(0.000284688 1.81883e-05 0)
(0.000284973 1.82655e-05 0)
(0.000285266 1.83416e-05 0)
(0.000285568 1.84168e-05 0)
(0.000285881 1.84911e-05 0)
(0.000286204 1.85647e-05 0)
(0.000286538 1.86374e-05 0)
(0.000286884 1.87092e-05 0)
(0.000287242 1.87797e-05 0)
(0.000287615 1.88487e-05 0)
(0.000288003 1.89157e-05 0)
(0.000288407 1.898e-05 0)
(0.00028883 1.9041e-05 0)
(0.00028927 1.9098e-05 0)
(0.000289731 1.91504e-05 0)
(0.000290217 1.91978e-05 0)
(0.000290734 1.92404e-05 0)
(0.000291281 1.92787e-05 0)
(0.000291855 1.9313e-05 0)
(0.000292464 1.9344e-05 0)
(0.00029314 1.93727e-05 0)
(0.000293916 1.94004e-05 0)
(0.000294757 1.94258e-05 0)
(0.000295567 1.944e-05 0)
(0.000296543 1.94405e-05 0)
(0.000297809 1.94257e-05 0)
(0.000299397 1.93817e-05 0)
(0.000302476 1.92807e-05 0)
(0.000308947 2.01784e-05 0)
(0.000309173 1.97701e-05 0)
(0.000353391 4.0474e-05 0)
(0.00237941 -0.000115936 0)
(0.0221018 -0.00288956 0)
(0.0217994 -0.00390213 0)
(0.0230276 -0.00462332 0)
(0.0263963 -0.004668 0)
(0.0295914 -0.00437939 0)
(0.0312392 -0.0036259 0)
(0.0313507 -0.00254433 0)
(0.0305702 -0.00136156 0)
(0.0294727 -0.000253224 0)
(0.0283843 0.000717038 0)
(0.0274468 0.0015481 0)
(0.0267048 0.00225509 0)
(0.0261588 0.00285495 0)
(0.0257906 0.00336304 0)
(0.0255761 0.00379243 0)
(0.0254907 0.00415407 0)
(0.0255115 0.00445716 0)
(0.0256179 0.00470952 0)
(0.0257919 0.00491785 0)
(0.0260182 0.00508794 0)
(0.0262832 0.00522487 0)
(0.0265754 0.00533307 0)
(0.026885 0.00541645 0)
(0.0272032 0.00547847 0)
(0.0275227 0.00552216 0)
(0.0278367 0.00555022 0)
(0.0281397 0.005565 0)
(0.0284264 0.00556856 0)
(0.0286924 0.00556269 0)
(0.0289336 0.00554894 0)
(0.0291463 0.00552864 0)
(0.0293272 0.00550291 0)
(0.0294732 0.0054727 0)
(0.0295817 0.00543879 0)
(0.0296501 0.00540185 0)
(0.029676 0.00536241 0)
(0.0296572 0.00532089 0)
(0.0295917 0.00527766 0)
(0.0294775 0.00523299 0)
(0.0293129 0.00518711 0)
(0.0290962 0.00514019 0)
(0.0288256 0.00509238 0)
(0.0284998 0.0050438 0)
(0.0281172 0.00499453 0)
(0.0276764 0.00494467 0)
(0.0271762 0.00489432 0)
(0.0266152 0.00484357 0)
(0.0259922 0.00479256 0)
(0.0253061 0.00474147 0)
(0.0245558 0.0046905 0)
(0.0237403 0.00463989 0)
(0.02285 0.0045894 0)
(0.0218754 0.00453889 0)
(0.0208158 0.00448871 0)
(0.0196708 0.00443929 0)
(0.0184399 0.00439103 0)
(0.0171233 0.00434434 0)
(0.0157214 0.00429956 0)
(0.0142348 0.00425692 0)
(0.0126648 0.00421655 0)
(0.0110129 0.00417844 0)
(0.00928117 0.00414241 0)
(0.00747203 0.0041081 0)
(0.00558825 0.00407487 0)
(0.00363286 0.00404187 0)
(0.00160931 0.00400808 0)
(-0.000478678 0.00397253 0)
(-0.00262735 0.00393445 0)
(-0.00483283 0.00389353 0)
(-0.00709105 0.00384983 0)
(-0.00939784 0.00380355 0)
(-0.0117492 0.00375484 0)
(-0.0141415 0.00370373 0)
(-0.0165706 0.00365032 0)
(-0.0190326 0.0035947 0)
(-0.0215243 0.00353679 0)
(-0.0240424 0.00347652 0)
(-0.0265838 0.00341387 0)
(-0.0291461 0.00334875 0)
(-0.0317272 0.00328114 0)
(-0.0343267 0.00321077 0)
(-0.0369444 0.00313796 0)
(-0.0395858 0.00306162 0)
(-0.0422638 0.00297896 0)
(-0.0450016 0.00288024 0)
(-0.0478013 0.00278662 0)
(-0.0505182 0.00271377 0)
(0.00780008 0.00183647 0)
(0.00774087 0.00280753 0)
(0.0077618 -0.000592255 0)
(0.00764229 0.00371995 0)
(0.00764814 -0.00325437 0)
(0.00765122 0.0044981 0)
(0.00608328 0.0327051 0)
(0.00563798 0.039636 0)
(0.00578061 0.0395545 0)
(0.00569023 0.0395552 0)
(0.00562009 0.0395481 0)
(0.00554492 0.0395414 0)
(0.00546961 0.0395343 0)
(0.00540444 0.0395271 0)
(0.00531835 0.039521 0)
(0.00523755 0.0395159 0)
(0.00518922 0.0395099 0)
(0.00513409 0.0395057 0)
(0.00508937 0.0395023 0)
(0.00505478 0.0394996 0)
(0.00503134 0.0394973 0)
(0.0050202 0.0394951 0)
(0.00502255 0.0394926 0)
(0.00503012 0.0394888 0)
(0.0051184 0.0394804 0)
(0.00518193 0.0394738 0)
(0.00518809 0.0394719 0)
(0.00518827 0.0394718 0)
(0.00518828 0.0394718 0)
(0.00518828 0.0394718 0)
(0.00518828 0.0394718 0)
(0.00518828 0.0394718 0)
(0.00518828 0.0394718 0)
(0.00518828 0.0394718 0)
(0.00518828 0.0394718 0)
(0.00518828 0.0394718 0)
(0.00518828 0.0394718 0)
(0.00518828 0.0394718 0)
(0.00518828 0.0394718 0)
(0.00518828 0.0394718 0)
(0.00518828 0.0394718 0)
(0.00518828 0.0394718 0)
(0.00518828 0.0394718 0)
(0.00518828 0.0394718 0)
(0.00518828 0.0394718 0)
(0.00518828 0.0394718 0)
(0.00518828 0.0394718 0)
(0.00518828 0.0394718 0)
(0.00518828 0.0394718 0)
(0.00518828 0.0394718 0)
(0.00518828 0.0394718 0)
(0.00518828 0.0394718 0)
(0.00518828 0.0394718 0)
(0.00518828 0.0394718 0)
(0.00518828 0.0394718 0)
(0.00518828 0.0394718 0)
(0.00518828 0.0394718 0)
(0.00518828 0.0394718 0)
(0.00518828 0.0394718 0)
(0.00518828 0.0394718 0)
(0.00518828 0.0394718 0)
(0.00518828 0.0394718 0)
(0.00518828 0.0394718 0)
(0.00518828 0.0394718 0)
(0.00518828 0.0394718 0)
(0.00518828 0.0394718 0)
(0.00518828 0.0394718 0)
(0.00518828 0.0394718 0)
(0.00518828 0.0394718 0)
(0.00518828 0.0394718 0)
(0.00518828 0.0394718 0)
(0.00518828 0.0394718 0)
(0.00518828 0.0394718 0)
(0.00518828 0.0394718 0)
(0.00518828 0.0394718 0)
(0.00518828 0.0394718 0)
(0.00518828 0.0394718 0)
(0.00518828 0.0394718 0)
(0.00518828 0.0394718 0)
(0.00518828 0.0394718 0)
(0.00518828 0.0394718 0)
(0.00518828 0.0394718 0)
(0.00518828 0.0394718 0)
(0.00518828 0.0394718 0)
(0.00518828 0.0394718 0)
(0.00518828 0.0394718 0)
(0.00518828 0.0394718 0)
(0.00518828 0.0394718 0)
(0.00518828 0.0394718 0)
(0.00518828 0.0394718 0)
(0.00518828 0.0394718 0)
(0.00518828 0.0394718 0)
(0.00518828 0.0394718 0)
(0.00518828 0.0394718 0)
(0.00518828 0.0394718 0)
(0.00518828 0.0394718 0)
(0.00518828 0.0394718 0)
(0.00518828 0.0394718 0)
(0.00518828 0.0394718 0)
(0.00518828 0.0394718 0)
(0.00518828 0.0394718 0)
(0.00518828 0.0394718 0)
(0.00518828 0.0394718 0)
(0.00518828 0.0394718 0)
(0.00518828 0.0394718 0)
(0.00518828 0.0394718 0)
(0.00518828 0.0394718 0)
(0.00518828 0.0394718 0)
(0.00518828 0.0394718 0)
(0.00518828 0.0394718 0)
(0.00518828 0.0394718 0)
(0.00518828 0.0394718 0)
(0.00518828 0.0394718 0)
(0.00518828 0.0394718 0)
(0.00518828 0.0394718 0)
(0.00518828 0.0394718 0)
(0.00518828 0.0394718 0)
(0.00518828 0.0394718 0)
(0.00518828 0.0394718 0)
(0.00518834 0.0394716 0)
(0.00518977 0.039463 0)
(0.00522474 0.0391169 0)
(0.00603474 0.022348 0)
)
;

boundaryField
{
    inandouthalf11
    {
        type            cyclic;
    }
    inandouthalf12
    {
        type            cyclic;
    }
    inandouthalf21
    {
        type            cyclic;
    }
    inandouthalf22
    {
        type            cyclic;
    }
    inandouthalf31
    {
        type            cyclic;
    }
    inandouthalf32
    {
        type            cyclic;
    }
    inandouthalf41
    {
        type            cyclic;
    }
    inandouthalf42
    {
        type            cyclic;
    }
    top
    {
        type            symmetryPlane;
    }
    walls
    {
        type            calculated;
        value           uniform (0 0 0);
    }
    frontAndBackPlanes
    {
        type            empty;
    }
}


// ************************************************************************* //
