/*--------------------------------*- C++ -*----------------------------------*\
| =========                 |                                                 |
| \\      /  F ield         | OpenFOAM: The Open Source CFD Toolbox           |
|  \\    /   O peration     | Version:  2.4.x                                 |
|   \\  /    A nd           | Web:      www.OpenFOAM.org                      |
|    \\/     M anipulation  |                                                 |
\*---------------------------------------------------------------------------*/
FoamFile
{
    version     2.0;
    format      ascii;
    class       volScalarField;
    location    "10.35";
    object      alpha;
}
// * * * * * * * * * * * * * * * * * * * * * * * * * * * * * * * * * * * * * //

dimensions      [0 0 0 0 0 0 0];

internalField   nonuniform List<scalar> 
360
(
0.610886
0.611751
0.611841
0.611751
0.611709
0.611696
0.611679
0.611657
0.611634
0.611612
0.611589
0.611566
0.611543
0.61152
0.611496
0.611473
0.611448
0.611424
0.6114
0.611375
0.61135
0.611325
0.611299
0.611274
0.611248
0.611221
0.611195
0.611168
0.611141
0.611113
0.611085
0.611057
0.611029
0.611
0.610971
0.610942
0.610912
0.610882
0.610852
0.610822
0.61079
0.610759
0.610728
0.610695
0.610663
0.61063
0.610597
0.610563
0.610529
0.610495
0.61046
0.610425
0.61039
0.610353
0.610317
0.61028
0.610243
0.610205
0.610166
0.610128
0.610088
0.610049
0.610008
0.609967
0.609926
0.609884
0.609841
0.609798
0.609755
0.609711
0.609665
0.60962
0.609574
0.609527
0.609479
0.609431
0.609382
0.609332
0.609282
0.60923
0.609178
0.609125
0.609072
0.609017
0.608961
0.608905
0.608847
0.608789
0.608729
0.608669
0.608607
0.608544
0.608481
0.608415
0.608349
0.608281
0.608212
0.608142
0.60807
0.607997
0.607922
0.607846
0.607767
0.607688
0.607606
0.607522
0.607437
0.60735
0.60726
0.607168
0.607074
0.606978
0.606879
0.606777
0.606673
0.606566
0.606456
0.606343
0.606227
0.606107
0.605983
0.605856
0.605725
0.605589
0.605448
0.605303
0.605153
0.604996
0.604834
0.604665
0.604489
0.604306
0.604115
0.603914
0.603701
0.603474
0.603236
0.602982
0.6027
0.602377
0.602028
0.601626
0.59848
0.598732
0.598134
0.597101
0.595927
0.5944
0.591203
0.362187
0.120629
0.0578087
0.0378301
0.0284979
0.0230995
0.0195197
0.0169373
0.0149655
0.0133957
0.0121058
0.0110199
0.010088
0.00927622
0.00856022
0.00792238
0.00734945
0.00683129
0.00635994
0.00592907
0.00553358
0.00516926
0.00483262
0.00452076
0.00423117
0.00396173
0.0037106
0.00347619
0.00325709
0.00305207
0.00286003
0.00267998
0.00251105
0.00235245
0.00220346
0.00206343
0.00193175
0.00180789
0.00169133
0.00158162
0.00147832
0.00138102
0.00128936
0.00120299
0.00112156
0.00104478
0.000972346
0.000904007
0.000839519
0.000778678
0.000721313
0.000667289
0.000615994
0.000567009
0.000520464
0.000476494
0.000435219
0.000396715
0.000360999
0.000328012
0.000297622
0.000269642
0.00024385
0.000220015
0.000197904
0.000177304
0.000158035
0.000139968
0.000123042
0.000107273
9.27386e-05
7.95418e-05
6.77647e-05
5.74339e-05
4.85021e-05
4.08654e-05
3.43716e-05
2.88837e-05
2.42044e-05
2.02888e-05
1.68724e-05
1.41001e-05
1.15566e-05
9.66095e-06
7.71617e-06
6.52716e-06
4.99045e-06
5.27505e-06
4.06044e-06
2.81453e-06
1.93433e-06
1.30875e-06
8.73655e-07
5.78745e-07
3.75328e-07
2.4593e-07
1.52841e-07
9.95055e-08
5.71082e-08
3.65378e-08
1.67463e-08
1.01609e-08
4.34448e-10
8.10653e-21
9.85342e-32
1.20401e-42
1.0383e-46
3.85223e-48
6.15526e-52
2.34514e-53
3.50027e-57
1.38487e-58
8.55788e-62
3.35923e-62
1.613e-62
7.83165e-63
3.74368e-63
1.75955e-63
8.12649e-64
3.68602e-64
1.64101e-64
7.16639e-65
3.06789e-65
1.28657e-65
5.28163e-66
2.12028e-66
8.3186e-67
3.18742e-67
1.19172e-67
4.34356e-68
1.54175e-68
5.32366e-69
1.78622e-69
5.81637e-70
1.83562e-70
5.60664e-71
1.65478e-71
4.71158e-72
1.29177e-72
3.40348e-73
8.59868e-74
2.07806e-74
4.79115e-75
1.0507e-75
2.18436e-76
4.28879e-77
7.91862e-78
1.36814e-78
2.19937e-79
3.26776e-80
4.45176e-81
5.50768e-82
6.11522e-83
6.00281e-84
5.10864e-85
3.67042e-86
2.14269e-87
9.57167e-89
2.93773e-90
4.80548e-92
6.67036e-95
3.49024e-101
2.27099e-103
7.31377e-106
2.94721e-116
6.0536e-127
9.32165e-138
1.04771e-148
1.0266e-159
7.80762e-171
5.12153e-182
1.09943e-192
4.81034e-203
2.82759e-211
1.38499e-221
9.72449e-230
5.65026e-240
3.34802e-248
2.39382e-258
1.15449e-266
1.53995e-276
4.08867e-285
1.0232e-294
1.50665e-303
5.08483e-313
2.56914e-321
7.83094e-321
2.51973e-321
8.86848e-321
4.57737e-319
2.8055e-319
6.80328e-321
7.09478e-321
6.08689e-321
8.5424e-321
0
0
0
0
0
0
0
0
0
0
0
0
0
0
0
0
)
;

boundaryField
{
    inandouthalf11
    {
        type            cyclic;
    }
    inandouthalf12
    {
        type            cyclic;
    }
    inandouthalf21
    {
        type            cyclic;
    }
    inandouthalf22
    {
        type            cyclic;
    }
    inandouthalf31
    {
        type            cyclic;
    }
    inandouthalf32
    {
        type            cyclic;
    }
    inandouthalf41
    {
        type            cyclic;
    }
    inandouthalf42
    {
        type            cyclic;
    }
    top
    {
        type            symmetryPlane;
    }
    walls
    {
        type            zeroGradient;
    }
    frontAndBackPlanes
    {
        type            empty;
    }
}


// ************************************************************************* //
