/*--------------------------------*- C++ -*----------------------------------*\
| =========                 |                                                 |
| \\      /  F ield         | OpenFOAM: The Open Source CFD Toolbox           |
|  \\    /   O peration     | Version:  2.4.x                                 |
|   \\  /    A nd           | Web:      www.OpenFOAM.org                      |
|    \\/     M anipulation  |                                                 |
\*---------------------------------------------------------------------------*/
FoamFile
{
    version     2.0;
    format      ascii;
    class       volVectorField;
    location    "10.35";
    object      ddt0(Ub);
}
// * * * * * * * * * * * * * * * * * * * * * * * * * * * * * * * * * * * * * //

dimensions      [0 1 -2 0 0 0 0];

internalField   nonuniform List<vector> 
360
(
(5.31548e-06 -2.6237e-09 0)
(5.29309e-06 -9.18539e-09 0)
(5.28192e-06 -1.62505e-08 0)
(5.28019e-06 -2.18998e-08 0)
(5.27833e-06 -2.68328e-08 0)
(5.27505e-06 -3.15725e-08 0)
(5.27161e-06 -3.62678e-08 0)
(5.26846e-06 -4.1024e-08 0)
(5.26554e-06 -4.59647e-08 0)
(5.26283e-06 -5.12008e-08 0)
(5.26031e-06 -5.68249e-08 0)
(5.25793e-06 -6.28951e-08 0)
(5.25569e-06 -6.94534e-08 0)
(5.25358e-06 -7.65288e-08 0)
(5.2516e-06 -8.41346e-08 0)
(5.24973e-06 -9.22767e-08 0)
(5.24796e-06 -1.00951e-07 0)
(5.24628e-06 -1.10162e-07 0)
(5.24467e-06 -1.19905e-07 0)
(5.24313e-06 -1.30165e-07 0)
(5.24162e-06 -1.40926e-07 0)
(5.24016e-06 -1.52171e-07 0)
(5.23873e-06 -1.63896e-07 0)
(5.23731e-06 -1.76081e-07 0)
(5.2359e-06 -1.88703e-07 0)
(5.23449e-06 -2.01759e-07 0)
(5.23306e-06 -2.15231e-07 0)
(5.23162e-06 -2.29099e-07 0)
(5.23015e-06 -2.43353e-07 0)
(5.22864e-06 -2.5798e-07 0)
(5.2271e-06 -2.72967e-07 0)
(5.22552e-06 -2.88304e-07 0)
(5.22386e-06 -3.03975e-07 0)
(5.22218e-06 -3.19966e-07 0)
(5.22041e-06 -3.36271e-07 0)
(5.2186e-06 -3.52874e-07 0)
(5.2167e-06 -3.69762e-07 0)
(5.21475e-06 -3.86932e-07 0)
(5.21273e-06 -4.04373e-07 0)
(5.2106e-06 -4.22065e-07 0)
(5.20844e-06 -4.40014e-07 0)
(5.20618e-06 -4.58206e-07 0)
(5.20381e-06 -4.76618e-07 0)
(5.20141e-06 -4.95247e-07 0)
(5.19889e-06 -5.14087e-07 0)
(5.1963e-06 -5.33126e-07 0)
(5.19363e-06 -5.5236e-07 0)
(5.19085e-06 -5.71768e-07 0)
(5.188e-06 -5.91336e-07 0)
(5.18509e-06 -6.11068e-07 0)
(5.18204e-06 -6.30942e-07 0)
(5.17894e-06 -6.50951e-07 0)
(5.17574e-06 -6.71088e-07 0)
(5.17247e-06 -6.9134e-07 0)
(5.16908e-06 -7.11685e-07 0)
(5.16565e-06 -7.32123e-07 0)
(5.16209e-06 -7.52639e-07 0)
(5.15848e-06 -7.73219e-07 0)
(5.15477e-06 -7.93847e-07 0)
(5.15095e-06 -8.14509e-07 0)
(5.14711e-06 -8.35201e-07 0)
(5.14314e-06 -8.55908e-07 0)
(5.13913e-06 -8.76623e-07 0)
(5.13501e-06 -8.97328e-07 0)
(5.13083e-06 -9.18011e-07 0)
(5.12657e-06 -9.38655e-07 0)
(5.12224e-06 -9.59255e-07 0)
(5.11784e-06 -9.7979e-07 0)
(5.11337e-06 -1.00025e-06 0)
(5.10881e-06 -1.02061e-06 0)
(5.10423e-06 -1.04088e-06 0)
(5.09959e-06 -1.06103e-06 0)
(5.09485e-06 -1.08106e-06 0)
(5.09009e-06 -1.10095e-06 0)
(5.08527e-06 -1.1207e-06 0)
(5.08042e-06 -1.14029e-06 0)
(5.07549e-06 -1.1597e-06 0)
(5.07051e-06 -1.17893e-06 0)
(5.06551e-06 -1.19796e-06 0)
(5.06047e-06 -1.21678e-06 0)
(5.05538e-06 -1.23538e-06 0)
(5.05028e-06 -1.25374e-06 0)
(5.04517e-06 -1.27187e-06 0)
(5.04003e-06 -1.28974e-06 0)
(5.03488e-06 -1.30737e-06 0)
(5.02971e-06 -1.32473e-06 0)
(5.02454e-06 -1.34181e-06 0)
(5.01935e-06 -1.3586e-06 0)
(5.01416e-06 -1.37509e-06 0)
(5.00898e-06 -1.39129e-06 0)
(5.00381e-06 -1.40717e-06 0)
(4.99866e-06 -1.42272e-06 0)
(4.99353e-06 -1.43795e-06 0)
(4.98844e-06 -1.45284e-06 0)
(4.98338e-06 -1.46739e-06 0)
(4.97836e-06 -1.48159e-06 0)
(4.97339e-06 -1.49545e-06 0)
(4.96846e-06 -1.50896e-06 0)
(4.96358e-06 -1.52212e-06 0)
(4.95876e-06 -1.53491e-06 0)
(4.95401e-06 -1.54735e-06 0)
(4.94932e-06 -1.55942e-06 0)
(4.94472e-06 -1.57113e-06 0)
(4.94019e-06 -1.58248e-06 0)
(4.93576e-06 -1.59345e-06 0)
(4.93142e-06 -1.60406e-06 0)
(4.92717e-06 -1.61427e-06 0)
(4.92303e-06 -1.62409e-06 0)
(4.91899e-06 -1.63349e-06 0)
(4.91507e-06 -1.64244e-06 0)
(4.91127e-06 -1.65093e-06 0)
(4.90758e-06 -1.65892e-06 0)
(4.90402e-06 -1.66639e-06 0)
(4.90059e-06 -1.67333e-06 0)
(4.89729e-06 -1.67971e-06 0)
(4.89411e-06 -1.68557e-06 0)
(4.89105e-06 -1.69093e-06 0)
(4.88811e-06 -1.69585e-06 0)
(4.88526e-06 -1.70042e-06 0)
(4.8825e-06 -1.70472e-06 0)
(4.87982e-06 -1.70884e-06 0)
(4.87721e-06 -1.71281e-06 0)
(4.87468e-06 -1.71664e-06 0)
(4.87226e-06 -1.72023e-06 0)
(4.87003e-06 -1.72336e-06 0)
(4.86809e-06 -1.72567e-06 0)
(4.86658e-06 -1.72672e-06 0)
(4.86569e-06 -1.72597e-06 0)
(4.86561e-06 -1.72286e-06 0)
(4.8665e-06 -1.71688e-06 0)
(4.8685e-06 -1.70754e-06 0)
(4.87168e-06 -1.69453e-06 0)
(4.87604e-06 -1.6778e-06 0)
(4.88138e-06 -1.65789e-06 0)
(4.88697e-06 -1.63644e-06 0)
(4.89107e-06 -1.61667e-06 0)
(4.89138e-06 -1.60275e-06 0)
(4.88732e-06 -1.59729e-06 0)
(4.88263e-06 -1.59855e-06 0)
(4.88412e-06 -1.60145e-06 0)
(4.89433e-06 -1.61322e-06 0)
(4.88463e-06 -7.48787e-07 0)
(8.43398e-06 -7.91528e-06 0)
(1.77239e-05 -2.84997e-05 0)
(2.79892e-05 -5.43285e-05 0)
(3.9216e-05 -8.18747e-05 0)
(5.22558e-05 -0.000141447 0)
(6.91967e-05 -9.84529e-05 0)
(0.000131761 -0.000261956 0)
(0.00434542 -0.000625352 0)
(-0.482756 0.00291607 0)
(-0.669024 -0.00371314 0)
(-0.77116 -0.000428742 0)
(-0.842118 -0.00154436 0)
(-0.896672 -0.00127102 0)
(-0.940946 -0.00106613 0)
(-0.978086 -0.000934841 0)
(-1.00994 -0.000828122 0)
(-1.03769 -0.000730648 0)
(-1.06216 -0.000642494 0)
(-1.08395 -0.000564308 0)
(-1.10349 -0.000495489 0)
(-1.12113 -0.000435046 0)
(-1.13716 -0.000382012 0)
(-1.15178 -0.000335509 0)
(-1.16519 -0.000294736 0)
(-1.17753 -0.000258971 0)
(-1.18894 -0.000227572 0)
(-1.19951 -0.000199978 0)
(-1.20935 -0.000175696 0)
(-1.21854 -0.000154302 0)
(-1.22714 -0.000135427 0)
(-1.23521 -0.000118755 0)
(-1.2428 -0.000104012 0)
(-1.24997 -9.09618e-05 0)
(-1.25675 -7.94017e-05 0)
(-1.26317 -6.91553e-05 0)
(-1.26927 -6.007e-05 0)
(-1.27507 -5.20134e-05 0)
(-1.2806 -4.48699e-05 0)
(-1.28588 -3.85388e-05 0)
(-1.29093 -3.29317e-05 0)
(-1.29576 -2.79708e-05 0)
(-1.30039 -2.35876e-05 0)
(-1.30484 -1.97217e-05 0)
(-1.30912 -1.63193e-05 0)
(-1.31323 -1.33328e-05 0)
(-1.3172 -1.07196e-05 0)
(-1.32101 -8.44181e-06 0)
(-1.3247 -6.46555e-06 0)
(-1.32825 -4.76041e-06 0)
(-1.33169 -3.29919e-06 0)
(-1.33501 -2.05747e-06 0)
(-1.33822 -1.01334e-06 0)
(-1.34133 -1.47139e-07 0)
(-1.34434 5.58927e-07 0)
(-1.34725 1.12111e-06 0)
(-1.35007 1.55458e-06 0)
(-1.35281 1.87398e-06 0)
(-1.35545 2.09394e-06 0)
(-1.35802 2.22945e-06 0)
(-1.36053 2.29665e-06 0)
(-1.36301 2.30941e-06 0)
(-1.36545 2.28182e-06 0)
(-1.36786 2.22842e-06 0)
(-1.37024 2.16258e-06 0)
(-1.37257 2.09477e-06 0)
(-1.37486 2.03103e-06 0)
(-1.3771 1.97243e-06 0)
(-1.37929 1.9163e-06 0)
(-1.38142 1.8586e-06 0)
(-1.3835 1.79567e-06 0)
(-1.3855 1.72476e-06 0)
(-1.38744 1.64373e-06 0)
(-1.3893 1.55085e-06 0)
(-1.39107 1.44488e-06 0)
(-1.39275 1.32556e-06 0)
(-1.39432 1.19425e-06 0)
(-1.39578 1.05445e-06 0)
(-1.39711 9.12011e-07 0)
(-1.3983 7.74937e-07 0)
(-1.39932 6.45846e-07 0)
(-1.40017 5.28895e-07 0)
(-1.40083 4.29929e-07 0)
(-1.40126 3.47493e-07 0)
(-1.40146 2.79826e-07 0)
(-1.40138 2.24853e-07 0)
(-1.401 1.80441e-07 0)
(-1.40029 1.44596e-07 0)
(-1.39921 1.15671e-07 0)
(-1.39774 9.23153e-08 0)
(-1.39583 7.34916e-08 0)
(-1.39346 5.82824e-08 0)
(-1.39061 4.59725e-08 0)
(-1.38726 3.613e-08 0)
(-1.38342 3.11674e-08 0)
(-1.37912 2.09425e-08 0)
(-1.37442 6.106e-09 0)
(-1.36939 -1.00143e-09 0)
(-1.36416 -4.3736e-09 0)
(-1.35886 -5.21656e-09 0)
(-1.35363 -4.79898e-09 0)
(-1.3486 -3.91295e-09 0)
(-1.34388 -2.84276e-09 0)
(-1.33955 -1.79872e-09 0)
(-1.33562 -1.23106e-09 0)
(-1.3321 -8.45318e-10 0)
(-1.32898 -4.47274e-10 0)
(-1.32621 -2.60391e-10 0)
(-1.32374 -1.51155e-10 0)
(-1.32155 -5.46011e-11 0)
(-1.31959 -4.25948e-11 0)
(-1.31784 -8.58034e-11 0)
(-1.31627 -6.25131e-11 0)
(-1.31486 -5.21554e-11 0)
(-1.3136 -4.54274e-11 0)
(-1.31247 -3.66581e-11 0)
(-1.31147 -2.82877e-11 0)
(-1.31058 -2.11668e-11 0)
(-1.30981 -1.28138e-11 0)
(-1.30915 -3.84182e-12 0)
(-1.3086 4.49228e-12 0)
(-1.30815 1.17677e-11 0)
(-1.30782 1.69058e-11 0)
(-1.3076 2.27743e-11 0)
(-1.3075 4.29729e-11 0)
(-1.30752 -1.18528e-11 0)
(-1.30767 1.21834e-10 0)
(-1.30797 -9.62396e-11 0)
(-1.30842 2.37492e-10 0)
(-1.30904 -2.06146e-10 0)
(-1.30983 3.58774e-10 0)
(-1.31107 -2.96588e-10 0)
(-1.3125 4.46229e-10 0)
(-1.31272 -3.48307e-10 0)
(-1.31273 5.02393e-10 0)
(-1.31273 -3.88231e-10 0)
(-1.31273 5.57298e-10 0)
(-1.31273 -4.32953e-10 0)
(-1.31273 6.0958e-10 0)
(-1.31273 -4.83744e-10 0)
(-1.31273 6.65125e-10 0)
(-1.31273 -5.3332e-10 0)
(-1.31273 7.23894e-10 0)
(-1.31273 -5.88371e-10 0)
(-1.31273 7.81027e-10 0)
(-1.31273 -6.48234e-10 0)
(-1.31273 8.4012e-10 0)
(-1.31273 -7.12392e-10 0)
(-1.31273 9.01975e-10 0)
(-1.31273 -7.77316e-10 0)
(-1.31273 9.64553e-10 0)
(-1.31273 -8.49386e-10 0)
(-1.31273 1.02567e-09 0)
(-1.31273 -9.26591e-10 0)
(-1.31273 1.09083e-09 0)
(-1.31273 -1.00241e-09 0)
(-1.31273 1.16065e-09 0)
(-1.31273 -1.08108e-09 0)
(-1.31273 1.23164e-09 0)
(-1.31273 -1.16407e-09 0)
(-1.31273 1.3067e-09 0)
(-1.31273 -1.24623e-09 0)
(-1.31273 1.38518e-09 0)
(-1.31273 -1.33416e-09 0)
(-1.31273 1.46601e-09 0)
(-1.31273 -1.42557e-09 0)
(-1.31273 1.54744e-09 0)
(-1.31273 -1.5211e-09 0)
(-1.31273 1.63179e-09 0)
(-1.31273 -1.42009e-09 0)
(-1.31273 1.48272e-09 0)
(-1.31273 -1.45668e-09 0)
(-1.31273 1.49933e-09 0)
(-1.31273 -1.49324e-09 0)
(-1.31273 1.51643e-09 0)
(-1.31273 -1.52988e-09 0)
(-1.31273 1.53161e-09 0)
(-1.31273 -1.56539e-09 0)
(-1.31273 1.54735e-09 0)
(-1.31273 -1.60144e-09 0)
(-1.31273 1.55805e-09 0)
(-1.31273 -1.64009e-09 0)
(-1.31273 1.56927e-09 0)
(-1.31273 -1.67832e-09 0)
(-1.31273 1.57246e-09 0)
(-1.31273 -1.72981e-09 0)
(-1.31273 1.54447e-09 0)
(-1.31273 -1.85718e-09 0)
(-1.31273 1.39332e-09 0)
(-1.31273 -2.09547e-09 0)
(-1.31273 1.19537e-09 0)
(-1.31273 -2.32739e-09 0)
(-1.31273 1.01404e-09 0)
(-1.31273 -2.51495e-09 0)
(-1.31273 9.15806e-10 0)
(-1.31273 -2.648e-09 0)
(-1.31273 7.89463e-10 0)
(-1.31273 -2.78749e-09 0)
(-1.31273 7.71701e-10 0)
(-1.31273 -2.77947e-09 0)
(-1.31273 8.48596e-10 0)
(-1.31273 -2.66611e-09 0)
(-1.31273 1.09131e-09 0)
(-1.31273 -2.4506e-09 0)
(-1.31273 1.27127e-09 0)
(-1.31273 -2.28497e-09 0)
(-1.31273 1.58541e-09 0)
(-1.31273 -1.90727e-09 0)
(-1.31273 2.04369e-09 0)
(-1.31273 -1.38107e-09 0)
(-1.31273 2.71988e-09 0)
(-1.31273 -6.1795e-10 0)
(-1.31273 3.59191e-09 0)
(-1.31273 2.76896e-10 0)
(-1.31273 4.49622e-09 0)
(-1.31273 1.21065e-09 0)
(-1.31273 5.55632e-09 0)
(-1.31273 2.0681e-09 0)
(-1.31273 3.95463e-09 0)
)
;

boundaryField
{
    inandouthalf11
    {
        type            cyclic;
    }
    inandouthalf12
    {
        type            cyclic;
    }
    inandouthalf21
    {
        type            cyclic;
    }
    inandouthalf22
    {
        type            cyclic;
    }
    inandouthalf31
    {
        type            cyclic;
    }
    inandouthalf32
    {
        type            cyclic;
    }
    inandouthalf41
    {
        type            cyclic;
    }
    inandouthalf42
    {
        type            cyclic;
    }
    top
    {
        type            symmetryPlane;
    }
    walls
    {
        type            calculated;
        value           uniform (0 0 0);
    }
    frontAndBackPlanes
    {
        type            empty;
    }
}


// ************************************************************************* //
