/*--------------------------------*- C++ -*----------------------------------*\
| =========                 |                                                 |
| \\      /  F ield         | OpenFOAM: The Open Source CFD Toolbox           |
|  \\    /   O peration     | Version:  2.4.x                                 |
|   \\  /    A nd           | Web:      www.OpenFOAM.org                      |
|    \\/     M anipulation  |                                                 |
\*---------------------------------------------------------------------------*/
FoamFile
{
    version     2.0;
    format      ascii;
    class       volScalarField;
    location    "10.35";
    object      ddt0(((1.5*(alpha+1e-08))*rho),Theta);
}
// * * * * * * * * * * * * * * * * * * * * * * * * * * * * * * * * * * * * * //

dimensions      [1 -1 -3 0 0 0 0];

internalField   nonuniform List<scalar> 
360
(
-5.48617e-23
-1.62444e-22
-9.04643e-23
-6.85089e-23
-6.64711e-23
-6.48605e-23
-6.30291e-23
-6.30742e-23
-6.51595e-23
-6.87602e-23
-7.33964e-23
-7.86973e-23
-8.44293e-23
-9.04642e-23
-9.67385e-23
-1.03218e-22
-1.09855e-22
-1.16603e-22
-1.23452e-22
-1.30389e-22
-1.37395e-22
-1.44489e-22
-1.51677e-22
-1.5894e-22
-1.66275e-22
-1.73662e-22
-1.81108e-22
-1.88633e-22
-1.96199e-22
-2.03774e-22
-2.11386e-22
-2.19007e-22
-2.26623e-22
-2.34265e-22
-2.41869e-22
-2.49394e-22
-2.56877e-22
-2.64361e-22
-2.7175e-22
-2.78994e-22
-2.86207e-22
-2.93267e-22
-3.00134e-22
-3.0694e-22
-3.1361e-22
-3.20101e-22
-3.2632e-22
-3.32213e-22
-3.38037e-22
-3.43737e-22
-3.49052e-22
-3.54076e-22
-3.58887e-22
-3.6338e-22
-3.67575e-22
-3.71493e-22
-3.75051e-22
-3.7825e-22
-3.80981e-22
-3.83318e-22
-3.85445e-22
-3.87259e-22
-3.88729e-22
-3.89804e-22
-3.90399e-22
-3.90579e-22
-3.90413e-22
-3.89812e-22
-3.88618e-22
-3.87012e-22
-3.85277e-22
-3.8318e-22
-3.80544e-22
-3.77636e-22
-3.74527e-22
-3.71032e-22
-3.66997e-22
-3.62501e-22
-3.57687e-22
-3.52525e-22
-3.47016e-22
-3.41281e-22
-3.35381e-22
-3.29294e-22
-3.23008e-22
-3.16506e-22
-3.09752e-22
-3.02706e-22
-2.9538e-22
-2.8783e-22
-2.80099e-22
-2.72244e-22
-2.6433e-22
-2.56393e-22
-2.48445e-22
-2.4049e-22
-2.32532e-22
-2.24577e-22
-2.16642e-22
-2.08753e-22
-2.00935e-22
-1.93211e-22
-1.85594e-22
-1.78079e-22
-1.70645e-22
-1.63254e-22
-1.55861e-22
-1.48414e-22
-1.40867e-22
-1.33186e-22
-1.25365e-22
-1.17434e-22
-1.09474e-22
-1.01619e-22
-9.40634e-23
-8.70492e-23
-8.08418e-23
-7.56869e-23
-7.17439e-23
-6.8995e-23
-6.71464e-23
-6.55467e-23
-6.31768e-23
-5.87623e-23
-5.10287e-23
-7.89771e-23
-6.40322e-17
-2.50348e-16
-8.70408e-16
-2.85889e-15
-8.97166e-15
-2.70789e-14
-7.90181e-14
-2.24043e-13
-6.20567e-13
-1.68906e-12
-4.55643e-12
-1.24072e-11
-3.53701e-11
-1.11503e-10
-4.14085e-10
-1.96269e-09
-1.40189e-08
-1.19269e-07
-1.24562e-06
-1.7232e-05
-0.00028875
-0.00673221
-0.140666
-1.63862
-1.66343
-1.00807
-0.744012
-0.592638
-0.492558
-0.419308
-0.362498
-0.316865
-0.279283
-0.247773
-0.220983
-0.197945
-0.177953
-0.160467
-0.145076
-0.131447
-0.119319
-0.108478
-0.0987509
-0.089992
-0.0820826
-0.0749205
-0.0684204
-0.0625102
-0.0571265
-0.0522151
-0.0477292
-0.043628
-0.0398749
-0.0364383
-0.0332894
-0.0304033
-0.0277568
-0.0253298
-0.0231036
-0.021061
-0.0191885
-0.0174707
-0.0158952
-0.0144506
-0.0131262
-0.0119122
-0.0107997
-0.00978034
-0.00884659
-0.00799147
-0.00720861
-0.00649225
-0.00583719
-0.00523879
-0.00469294
-0.00419111
-0.00372719
-0.00330057
-0.00291057
-0.00255627
-0.00223644
-0.00194945
-0.00169329
-0.00146564
-0.00126401
-0.00108584
-0.000928674
-0.000790213
-0.000668377
-0.000561356
-0.00046763
-0.000385978
-0.000315433
-0.000255182
-0.000204445
-0.00016235
-0.000128159
-0.000100552
-7.84957e-05
-6.09781e-05
-4.71463e-05
-3.61783e-05
-2.76015e-05
-2.0727e-05
-1.54741e-05
-1.11623e-05
-8.03313e-06
-5.33558e-06
-3.52877e-06
-1.84271e-06
0
0
0
0
0
0
0
0
0
0
0
0
0
0
0
0
0
0
0
0
0
0
0
0
0
0
0
0
0
0
0
0
0
0
0
0
0
0
0
0
0
0
0
0
0
0
0
0
0
0
0
0
0
0
0
0
0
0
0
0
0
0
0
0
0
0
0
0
0
0
0
0
0
0
0
0
0
0
0
0
0
0
0
0
0
0
0
0
0
0
0
0
0
0
0
0
0
0
0
0
0
0
0
0
0
0
0
0
0
0
0
0
0
0
0
0
0
0
0
0
0
0
0
0
)
;

boundaryField
{
    inandouthalf11
    {
        type            cyclic;
    }
    inandouthalf12
    {
        type            cyclic;
    }
    inandouthalf21
    {
        type            cyclic;
    }
    inandouthalf22
    {
        type            cyclic;
    }
    inandouthalf31
    {
        type            cyclic;
    }
    inandouthalf32
    {
        type            cyclic;
    }
    inandouthalf41
    {
        type            cyclic;
    }
    inandouthalf42
    {
        type            cyclic;
    }
    top
    {
        type            symmetryPlane;
    }
    walls
    {
        type            calculated;
        value           uniform -5.48617e-23;
    }
    frontAndBackPlanes
    {
        type            empty;
    }
}


// ************************************************************************* //
