/*--------------------------------*- C++ -*----------------------------------*\
| =========                 |                                                 |
| \\      /  F ield         | OpenFOAM: The Open Source CFD Toolbox           |
|  \\    /   O peration     | Version:  2.4.x                                 |
|   \\  /    A nd           | Web:      www.OpenFOAM.org                      |
|    \\/     M anipulation  |                                                 |
\*---------------------------------------------------------------------------*/
FoamFile
{
    version     2.0;
    format      ascii;
    class       surfaceScalarField;
    location    "10.35";
    object      ddt0(phia);
}
// * * * * * * * * * * * * * * * * * * * * * * * * * * * * * * * * * * * * * //

dimensions      [0 3 -2 0 0 0 0];

internalField   nonuniform List<scalar> 
359
(
1.34892e-14
3.32723e-14
4.90027e-14
6.18899e-14
7.40083e-14
8.59018e-14
9.77901e-14
1.09987e-13
1.2281e-13
1.36522e-13
1.51311e-13
1.67302e-13
1.84579e-13
2.03191e-13
2.23169e-13
2.44523e-13
2.67252e-13
2.91338e-13
3.16755e-13
3.43477e-13
3.71464e-13
4.00683e-13
4.31097e-13
4.62668e-13
4.95357e-13
5.29126e-13
5.63937e-13
5.99759e-13
6.36555e-13
6.74291e-13
7.12932e-13
7.52455e-13
7.92816e-13
8.34006e-13
8.7598e-13
9.18719e-13
9.62189e-13
1.00637e-12
1.05125e-12
1.09677e-12
1.14294e-12
1.18971e-12
1.23706e-12
1.28498e-12
1.33344e-12
1.3824e-12
1.43186e-12
1.48175e-12
1.53207e-12
1.58281e-12
1.63392e-12
1.68538e-12
1.73716e-12
1.78923e-12
1.84156e-12
1.89413e-12
1.94689e-12
1.99984e-12
2.05291e-12
2.10607e-12
2.15932e-12
2.21261e-12
2.26593e-12
2.31923e-12
2.37248e-12
2.42564e-12
2.4787e-12
2.5316e-12
2.58431e-12
2.63678e-12
2.68902e-12
2.74099e-12
2.79263e-12
2.84395e-12
2.8949e-12
2.94548e-12
2.99561e-12
3.04529e-12
3.09446e-12
3.14311e-12
3.19121e-12
3.23872e-12
3.28565e-12
3.33196e-12
3.37763e-12
3.42265e-12
3.467e-12
3.51063e-12
3.55353e-12
3.59566e-12
3.63702e-12
3.67756e-12
3.7173e-12
3.7562e-12
3.79426e-12
3.83148e-12
3.86783e-12
3.90332e-12
3.93793e-12
3.97167e-12
4.00452e-12
4.03648e-12
4.06756e-12
4.09774e-12
4.12701e-12
4.15536e-12
4.18276e-12
4.20915e-12
4.23448e-12
4.2587e-12
4.28172e-12
4.30349e-12
4.32393e-12
4.34304e-12
4.3608e-12
4.37729e-12
4.39263e-12
4.407e-12
4.42063e-12
4.43375e-12
4.44656e-12
4.45916e-12
4.47141e-12
4.48291e-12
4.49293e-12
4.50041e-12
4.50404e-12
4.50236e-12
4.49392e-12
4.47737e-12
4.45161e-12
4.41605e-12
4.37105e-12
4.31904e-12
4.26619e-12
4.22322e-12
4.20154e-12
4.20367e-12
4.21825e-12
4.22976e-12
4.23324e-12
4.23303e-12
4.36982e-11
1.10746e-10
1.8266e-10
2.67366e-10
3.76376e-10
5.29455e-10
2.24521e-09
1.27417e-08
6.98539e-09
-3.75909e-09
-9.87838e-09
-1.64344e-08
-2.04061e-08
-2.41128e-08
-2.80673e-08
-3.21953e-08
-3.62932e-08
-4.01892e-08
-4.37587e-08
-4.69246e-08
-4.9652e-08
-5.1938e-08
-5.38015e-08
-5.52749e-08
-5.6398e-08
-5.7213e-08
-5.7762e-08
-5.80853e-08
-5.82195e-08
-5.81976e-08
-5.80486e-08
-5.77977e-08
-5.74665e-08
-5.70731e-08
-5.66329e-08
-5.61584e-08
-5.56601e-08
-5.51462e-08
-5.46236e-08
-5.40973e-08
-5.35712e-08
-5.30481e-08
-5.25298e-08
-5.20168e-08
-5.15093e-08
-5.10063e-08
-5.05058e-08
-5.00053e-08
-4.95008e-08
-4.89876e-08
-4.84592e-08
-4.7908e-08
-4.73249e-08
-4.66999e-08
-4.60231e-08
-4.52867e-08
-4.44877e-08
-4.36305e-08
-4.27303e-08
-4.17952e-08
-4.08668e-08
-4.00023e-08
-3.92688e-08
-3.87315e-08
-3.84371e-08
-3.8395e-08
-3.85696e-08
-3.88972e-08
-3.93132e-08
-3.97639e-08
-4.0205e-08
-4.05945e-08
-4.08886e-08
-4.10396e-08
-4.10002e-08
-4.07304e-08
-4.02086e-08
-3.94382e-08
-3.84523e-08
-3.72948e-08
-3.60314e-08
-3.47162e-08
-3.33965e-08
-3.2105e-08
-3.08672e-08
-2.96919e-08
-2.85933e-08
-2.75638e-08
-2.66172e-08
-2.57345e-08
-2.49376e-08
-2.41653e-08
-2.35862e-08
-2.22092e-08
-9.30615e-09
-3.95575e-09
2.69961e-09
9.26393e-09
1.52597e-08
2.08843e-08
2.58804e-08
2.72517e-08
2.59462e-08
3.30211e-08
2.43554e-08
2.31629e-08
1.29926e-08
9.01114e-09
-6.89187e-08
-8.37512e-08
-5.55225e-09
3.46021e-11
4.01242e-11
5.45007e-11
6.59396e-11
7.37482e-11
7.85925e-11
8.07939e-11
8.06292e-11
7.83052e-11
7.39667e-11
6.77002e-11
5.95331e-11
4.94264e-11
3.72527e-11
2.27484e-11
5.42229e-12
-1.57751e-11
-4.28285e-11
-1.23213e-10
-1.7837e-10
-2.0946e-11
-8.73357e-13
-1.8254e-12
-1.85592e-12
-1.85597e-12
-1.85622e-12
-1.85597e-12
-1.85624e-12
-1.85595e-12
-1.85622e-12
-1.85593e-12
-1.85621e-12
-1.85592e-12
-1.8562e-12
-1.85591e-12
-1.85619e-12
-1.85589e-12
-1.85617e-12
-1.85588e-12
-1.85616e-12
-1.85588e-12
-1.85615e-12
-1.85589e-12
-1.85614e-12
-1.85588e-12
-1.85614e-12
-1.85589e-12
-1.85615e-12
-1.85589e-12
-1.85615e-12
-1.8559e-12
-1.85615e-12
-1.85592e-12
-1.85616e-12
-1.85593e-12
-1.85616e-12
-1.85595e-12
-1.85617e-12
-1.85597e-12
-1.85618e-12
-1.856e-12
-1.85619e-12
-1.85602e-12
-1.85621e-12
-1.85604e-12
-1.85622e-12
-1.85606e-12
-1.85623e-12
-1.8561e-12
-1.85625e-12
-1.85612e-12
-1.85628e-12
-1.85617e-12
-1.85634e-12
-1.85632e-12
-1.85662e-12
-1.85671e-12
-1.85706e-12
-1.85713e-12
-1.85748e-12
-1.85752e-12
-1.85777e-12
-1.85773e-12
-1.85804e-12
-1.85805e-12
-1.85822e-12
-1.85807e-12
-1.85816e-12
-1.85795e-12
-1.85782e-12
-1.8575e-12
-1.85748e-12
-1.85729e-12
-1.85707e-12
-1.85665e-12
-1.8563e-12
-1.85579e-12
-1.85517e-12
-1.85447e-12
-1.85358e-12
-1.85288e-12
-1.85192e-12
-1.85102e-12
-1.84616e-12
-1.79018e-12
-7.8873e-13
)
;

boundaryField
{
    inandouthalf11
    {
        type            cyclic;
        value           nonuniform List<scalar> 
100
(
2.35293e-38
3.64885e-15
7.5719e-15
1.1064e-14
1.45612e-14
1.81141e-14
2.16154e-14
2.50183e-14
2.83213e-14
3.15318e-14
3.46564e-14
3.7701e-14
4.06717e-14
4.35756e-14
4.64214e-14
4.92183e-14
5.19763e-14
5.47048e-14
5.74134e-14
6.01112e-14
6.28069e-14
6.55091e-14
6.82259e-14
7.09651e-14
7.37337e-14
7.65384e-14
7.93854e-14
8.22804e-14
8.52288e-14
8.82353e-14
9.13044e-14
9.444e-14
9.76458e-14
1.00925e-13
1.04281e-13
1.07716e-13
1.11233e-13
1.14833e-13
1.18519e-13
1.22292e-13
1.26154e-13
1.30106e-13
1.3415e-13
1.38285e-13
1.42514e-13
1.46837e-13
1.51255e-13
1.55767e-13
1.60374e-13
1.65077e-13
1.69876e-13
1.7477e-13
1.7976e-13
1.84845e-13
1.90026e-13
1.95301e-13
2.00671e-13
2.06135e-13
2.11692e-13
2.1734e-13
2.23079e-13
2.28909e-13
2.3483e-13
2.40839e-13
2.46936e-13
2.53119e-13
2.59386e-13
2.65736e-13
2.72168e-13
2.78677e-13
2.85263e-13
2.91926e-13
2.98664e-13
3.05472e-13
3.12352e-13
3.19302e-13
3.26318e-13
3.33396e-13
3.40533e-13
3.47728e-13
3.54977e-13
3.62277e-13
3.69627e-13
3.77025e-13
3.84468e-13
3.91955e-13
3.99481e-13
4.07044e-13
4.14639e-13
4.22263e-13
4.29911e-13
4.37582e-13
4.45271e-13
4.52976e-13
4.60697e-13
4.6843e-13
4.76173e-13
4.83924e-13
4.9168e-13
4.99438e-13
)
;
    }
    inandouthalf12
    {
        type            cyclic;
        value           nonuniform List<scalar> 
100
(
-2.35293e-38
-3.64885e-15
-7.5719e-15
-1.1064e-14
-1.45612e-14
-1.81141e-14
-2.16154e-14
-2.50183e-14
-2.83213e-14
-3.15318e-14
-3.46564e-14
-3.7701e-14
-4.06717e-14
-4.35756e-14
-4.64214e-14
-4.92183e-14
-5.19763e-14
-5.47048e-14
-5.74134e-14
-6.01112e-14
-6.28069e-14
-6.55091e-14
-6.82259e-14
-7.09651e-14
-7.37337e-14
-7.65384e-14
-7.93854e-14
-8.22804e-14
-8.52288e-14
-8.82353e-14
-9.13044e-14
-9.444e-14
-9.76458e-14
-1.00925e-13
-1.04281e-13
-1.07716e-13
-1.11233e-13
-1.14833e-13
-1.18519e-13
-1.22292e-13
-1.26154e-13
-1.30106e-13
-1.3415e-13
-1.38285e-13
-1.42514e-13
-1.46837e-13
-1.51255e-13
-1.55767e-13
-1.60374e-13
-1.65077e-13
-1.69876e-13
-1.7477e-13
-1.7976e-13
-1.84845e-13
-1.90026e-13
-1.95301e-13
-2.00671e-13
-2.06135e-13
-2.11692e-13
-2.1734e-13
-2.23079e-13
-2.28909e-13
-2.3483e-13
-2.40839e-13
-2.46936e-13
-2.53119e-13
-2.59386e-13
-2.65736e-13
-2.72168e-13
-2.78677e-13
-2.85263e-13
-2.91926e-13
-2.98664e-13
-3.05472e-13
-3.12352e-13
-3.19302e-13
-3.26318e-13
-3.33396e-13
-3.40533e-13
-3.47728e-13
-3.54977e-13
-3.62277e-13
-3.69627e-13
-3.77025e-13
-3.84468e-13
-3.91955e-13
-3.99481e-13
-4.07044e-13
-4.14639e-13
-4.22263e-13
-4.29911e-13
-4.37582e-13
-4.45271e-13
-4.52976e-13
-4.60697e-13
-4.6843e-13
-4.76173e-13
-4.83924e-13
-4.9168e-13
-4.99438e-13
)
;
    }
    inandouthalf21
    {
        type            cyclic;
        value           nonuniform List<scalar> 
100
(
5.07195e-13
5.14951e-13
5.22703e-13
5.3045e-13
5.38193e-13
5.45929e-13
5.53661e-13
5.61388e-13
5.69112e-13
5.76834e-13
5.84556e-13
5.92281e-13
6.00012e-13
6.07755e-13
6.15513e-13
6.23294e-13
6.31105e-13
6.38953e-13
6.46846e-13
6.54789e-13
6.62783e-13
6.7082e-13
6.78881e-13
6.86932e-13
6.9492e-13
7.02775e-13
7.10417e-13
7.17766e-13
7.24757e-13
7.31348e-13
7.37535e-13
7.43369e-13
7.48983e-13
7.54647e-13
7.60845e-13
7.68294e-13
7.77654e-13
7.88622e-13
7.99014e-13
8.05716e-13
8.07974e-13
8.08292e-13
8.08474e-13
-6.2299e-12
-1.55351e-11
-2.47582e-11
-3.43257e-11
-4.40066e-11
-4.93103e-11
1.44307e-10
4.33764e-07
6.34597e-07
7.56788e-07
8.34561e-07
8.91701e-07
9.37015e-07
9.74572e-07
1.00658e-06
1.03436e-06
1.05881e-06
1.08055e-06
1.10005e-06
1.11764e-06
1.13361e-06
1.14819e-06
1.16155e-06
1.17384e-06
1.18519e-06
1.19571e-06
1.20548e-06
1.21459e-06
1.22309e-06
1.23106e-06
1.23854e-06
1.24557e-06
1.2522e-06
1.25846e-06
1.26439e-06
1.27e-06
1.27533e-06
1.2804e-06
1.28523e-06
1.28983e-06
1.29422e-06
1.29843e-06
1.30245e-06
1.30631e-06
1.31001e-06
1.31356e-06
1.31697e-06
1.32025e-06
1.3234e-06
1.32643e-06
1.32935e-06
1.33215e-06
1.33484e-06
1.33743e-06
1.33992e-06
1.3423e-06
1.34459e-06
)
;
    }
    inandouthalf22
    {
        type            cyclic;
        value           nonuniform List<scalar> 
100
(
-5.07195e-13
-5.14951e-13
-5.22703e-13
-5.3045e-13
-5.38193e-13
-5.45929e-13
-5.53661e-13
-5.61388e-13
-5.69112e-13
-5.76834e-13
-5.84556e-13
-5.92281e-13
-6.00012e-13
-6.07755e-13
-6.15513e-13
-6.23294e-13
-6.31105e-13
-6.38953e-13
-6.46846e-13
-6.54789e-13
-6.62783e-13
-6.7082e-13
-6.78881e-13
-6.86932e-13
-6.9492e-13
-7.02775e-13
-7.10417e-13
-7.17766e-13
-7.24757e-13
-7.31348e-13
-7.37535e-13
-7.43369e-13
-7.48983e-13
-7.54647e-13
-7.60845e-13
-7.68294e-13
-7.77654e-13
-7.88622e-13
-7.99014e-13
-8.05716e-13
-8.07974e-13
-8.08292e-13
-8.08474e-13
6.2299e-12
1.55351e-11
2.47582e-11
3.43257e-11
4.40066e-11
4.93103e-11
-1.44307e-10
-4.33764e-07
-6.34597e-07
-7.56788e-07
-8.34561e-07
-8.91701e-07
-9.37015e-07
-9.74572e-07
-1.00658e-06
-1.03436e-06
-1.05881e-06
-1.08055e-06
-1.10005e-06
-1.11764e-06
-1.13361e-06
-1.14819e-06
-1.16155e-06
-1.17384e-06
-1.18519e-06
-1.19571e-06
-1.20548e-06
-1.21459e-06
-1.22309e-06
-1.23106e-06
-1.23854e-06
-1.24557e-06
-1.2522e-06
-1.25846e-06
-1.26439e-06
-1.27e-06
-1.27533e-06
-1.2804e-06
-1.28523e-06
-1.28983e-06
-1.29422e-06
-1.29843e-06
-1.30245e-06
-1.30631e-06
-1.31001e-06
-1.31356e-06
-1.31697e-06
-1.32025e-06
-1.3234e-06
-1.32643e-06
-1.32935e-06
-1.33215e-06
-1.33484e-06
-1.33743e-06
-1.33992e-06
-1.3423e-06
-1.34459e-06
)
;
    }
    inandouthalf31
    {
        type            cyclic;
        value           nonuniform List<scalar> 
110
(
1.34678e-06
1.37628e-06
1.40636e-06
1.43703e-06
1.46831e-06
1.50021e-06
1.53272e-06
1.56587e-06
1.59966e-06
1.63409e-06
1.66918e-06
1.70492e-06
1.74131e-06
1.77835e-06
1.81605e-06
1.85441e-06
1.89342e-06
1.9331e-06
1.97345e-06
2.0145e-06
2.05626e-06
2.09875e-06
2.14201e-06
2.18605e-06
2.23091e-06
2.2766e-06
2.32316e-06
2.37059e-06
2.41894e-06
2.46822e-06
2.51845e-06
2.56967e-06
2.62189e-06
2.67516e-06
2.72949e-06
2.78496e-06
2.84155e-06
2.8874e-06
2.9378e-06
2.98614e-06
3.03485e-06
3.08461e-06
3.13555e-06
3.18781e-06
3.24233e-06
3.2981e-06
3.35655e-06
3.41588e-06
3.4787e-06
3.54157e-06
3.60836e-06
3.68309e-06
3.7459e-06
3.81827e-06
3.89073e-06
3.96608e-06
4.04319e-06
4.1222e-06
4.20312e-06
4.28599e-06
4.37086e-06
4.45777e-06
4.54679e-06
4.63797e-06
4.73139e-06
4.82714e-06
4.92529e-06
5.02595e-06
5.12923e-06
5.23526e-06
5.34414e-06
5.45594e-06
5.57279e-06
5.69101e-06
5.80728e-06
5.92517e-06
6.04543e-06
6.16814e-06
6.29333e-06
6.42107e-06
6.5514e-06
6.68438e-06
6.82005e-06
6.95848e-06
7.09972e-06
7.24383e-06
7.39086e-06
7.54087e-06
7.69393e-06
7.8501e-06
8.00943e-06
8.172e-06
8.33787e-06
8.50711e-06
8.67978e-06
8.85596e-06
9.03571e-06
9.21911e-06
9.40623e-06
9.59716e-06
9.79195e-06
9.9907e-06
1.01935e-05
1.04004e-05
1.06115e-05
1.08269e-05
1.10466e-05
1.12708e-05
1.14996e-05
1.1733e-05
)
;
    }
    inandouthalf32
    {
        type            cyclic;
        value           nonuniform List<scalar> 
110
(
-1.34678e-06
-1.37628e-06
-1.40636e-06
-1.43703e-06
-1.46831e-06
-1.50021e-06
-1.53272e-06
-1.56587e-06
-1.59966e-06
-1.63409e-06
-1.66918e-06
-1.70492e-06
-1.74131e-06
-1.77835e-06
-1.81605e-06
-1.85441e-06
-1.89342e-06
-1.9331e-06
-1.97345e-06
-2.0145e-06
-2.05626e-06
-2.09875e-06
-2.14201e-06
-2.18605e-06
-2.23091e-06
-2.2766e-06
-2.32316e-06
-2.37059e-06
-2.41894e-06
-2.46822e-06
-2.51845e-06
-2.56967e-06
-2.62189e-06
-2.67516e-06
-2.72949e-06
-2.78496e-06
-2.84155e-06
-2.8874e-06
-2.9378e-06
-2.98614e-06
-3.03485e-06
-3.08461e-06
-3.13555e-06
-3.18781e-06
-3.24233e-06
-3.2981e-06
-3.35655e-06
-3.41588e-06
-3.4787e-06
-3.54157e-06
-3.60836e-06
-3.68309e-06
-3.7459e-06
-3.81827e-06
-3.89073e-06
-3.96608e-06
-4.04319e-06
-4.1222e-06
-4.20312e-06
-4.28599e-06
-4.37086e-06
-4.45777e-06
-4.54679e-06
-4.63797e-06
-4.73139e-06
-4.82714e-06
-4.92529e-06
-5.02595e-06
-5.12923e-06
-5.23526e-06
-5.34414e-06
-5.45594e-06
-5.57279e-06
-5.69101e-06
-5.80728e-06
-5.92517e-06
-6.04543e-06
-6.16814e-06
-6.29333e-06
-6.42107e-06
-6.5514e-06
-6.68438e-06
-6.82005e-06
-6.95848e-06
-7.09972e-06
-7.24383e-06
-7.39086e-06
-7.54087e-06
-7.69393e-06
-7.8501e-06
-8.00943e-06
-8.172e-06
-8.33787e-06
-8.50711e-06
-8.67978e-06
-8.85596e-06
-9.03571e-06
-9.21911e-06
-9.40623e-06
-9.59716e-06
-9.79195e-06
-9.9907e-06
-1.01935e-05
-1.04004e-05
-1.06115e-05
-1.08269e-05
-1.10466e-05
-1.12708e-05
-1.14996e-05
-1.1733e-05
)
;
    }
    inandouthalf41
    {
        type            cyclic;
        value           nonuniform List<scalar> 
50
(
1.05023e-05
1.05023e-05
1.05023e-05
1.05023e-05
1.05023e-05
1.05023e-05
1.05023e-05
1.05023e-05
1.05023e-05
1.05023e-05
1.05023e-05
1.05023e-05
1.05023e-05
1.05023e-05
1.05023e-05
1.05023e-05
1.05023e-05
1.05023e-05
1.05023e-05
1.05023e-05
1.05023e-05
1.05023e-05
1.05023e-05
1.05023e-05
1.05023e-05
1.05023e-05
1.05023e-05
1.05023e-05
1.05023e-05
1.05023e-05
1.05023e-05
1.05023e-05
1.05023e-05
1.05023e-05
1.05023e-05
1.05023e-05
1.05023e-05
1.05023e-05
1.05023e-05
1.05023e-05
1.05023e-05
1.05023e-05
1.05023e-05
1.05023e-05
1.05023e-05
1.05023e-05
1.05023e-05
1.05023e-05
1.05023e-05
1.05023e-05
)
;
    }
    inandouthalf42
    {
        type            cyclic;
        value           nonuniform List<scalar> 
50
(
-1.05023e-05
-1.05023e-05
-1.05023e-05
-1.05023e-05
-1.05023e-05
-1.05023e-05
-1.05023e-05
-1.05023e-05
-1.05023e-05
-1.05023e-05
-1.05023e-05
-1.05023e-05
-1.05023e-05
-1.05023e-05
-1.05023e-05
-1.05023e-05
-1.05023e-05
-1.05023e-05
-1.05023e-05
-1.05023e-05
-1.05023e-05
-1.05023e-05
-1.05023e-05
-1.05023e-05
-1.05023e-05
-1.05023e-05
-1.05023e-05
-1.05023e-05
-1.05023e-05
-1.05023e-05
-1.05023e-05
-1.05023e-05
-1.05023e-05
-1.05023e-05
-1.05023e-05
-1.05023e-05
-1.05023e-05
-1.05023e-05
-1.05023e-05
-1.05023e-05
-1.05023e-05
-1.05023e-05
-1.05023e-05
-1.05023e-05
-1.05023e-05
-1.05023e-05
-1.05023e-05
-1.05023e-05
-1.05023e-05
-1.05023e-05
)
;
    }
    top
    {
        type            symmetryPlane;
        value           uniform 0;
    }
    walls
    {
        type            calculated;
        value           uniform 0;
    }
    frontAndBackPlanes
    {
        type            empty;
        value           nonuniform 0();
    }
}


// ************************************************************************* //
