/*--------------------------------*- C++ -*----------------------------------*\
| =========                 |                                                 |
| \\      /  F ield         | OpenFOAM: The Open Source CFD Toolbox           |
|  \\    /   O peration     | Version:  2.4.x                                 |
|   \\  /    A nd           | Web:      www.OpenFOAM.org                      |
|    \\/     M anipulation  |                                                 |
\*---------------------------------------------------------------------------*/
FoamFile
{
    version     2.0;
    format      ascii;
    class       volVectorField;
    location    "10.35";
    object      gradPs;
}
// * * * * * * * * * * * * * * * * * * * * * * * * * * * * * * * * * * * * * //

dimensions      [0 1 -2 0 0 0 0];

internalField   nonuniform List<vector> 
360
(
(0 1.55135e-18 0)
(0 1.71075e-18 0)
(0 -1.21872e-22 0)
(0 -2.37741e-19 0)
(-1.45028e-32 -1.00052e-19 0)
(-1.45031e-32 -5.45301e-20 0)
(-1.45035e-32 -6.99368e-20 0)
(0 -7.98792e-20 0)
(-1.45046e-32 -8.1213e-20 0)
(0 -8.18872e-20 0)
(-1.45057e-32 -8.21414e-20 0)
(0 -8.24275e-20 0)
(-2.90135e-32 -8.3097e-20 0)
(0 -8.38017e-20 0)
(0 -8.47474e-20 0)
(0 -8.57159e-20 0)
(0 -8.649e-20 0)
(-1.45096e-32 -8.71956e-20 0)
(0 -8.82705e-20 0)
(0 -8.90316e-20 0)
(0 -8.98284e-20 0)
(-2.90239e-32 -9.09681e-20 0)
(0 -9.18024e-20 0)
(0 -9.27721e-20 0)
(0 -9.37677e-20 0)
(-2.90288e-32 -9.45766e-20 0)
(0 -9.56788e-20 0)
(0 -9.68234e-20 0)
(0 -9.76482e-20 0)
(0 -9.86099e-20 0)
(0 -9.99482e-20 0)
(0 -1.00655e-19 0)
(0 -1.01897e-19 0)
(0 -1.03167e-19 0)
(0 -1.03976e-19 0)
(2.90421e-32 -1.05126e-19 0)
(0 -1.06223e-19 0)
(0 -1.07846e-19 0)
(0 -1.08382e-19 0)
(0 -1.09701e-19 0)
(0 -1.11485e-19 0)
(0 -1.11861e-19 0)
(1.45261e-32 -1.13478e-19 0)
(0 -1.14959e-19 0)
(0 -1.15904e-19 0)
(0 -1.17675e-19 0)
(0 -1.18425e-19 0)
(0 -1.19576e-19 0)
(0 -1.21966e-19 0)
(0 -1.22811e-19 0)
(2.9065e-32 -1.23908e-19 0)
(0 -1.25756e-19 0)
(0 -1.27248e-19 0)
(0 -1.28447e-19 0)
(0 -1.30278e-19 0)
(0 -1.31786e-19 0)
(0 -1.33222e-19 0)
(0 -1.35262e-19 0)
(0 -1.36105e-19 0)
(0 -1.38378e-19 0)
(0 -1.4017e-19 0)
(0 -1.41677e-19 0)
(0 -1.43786e-19 0)
(0 -1.45375e-19 0)
(0 -1.47193e-19 0)
(0 -1.49165e-19 0)
(0 -1.51425e-19 0)
(0 -1.5329e-19 0)
(0 -1.54777e-19 0)
(0 -1.57239e-19 0)
(0 -1.60168e-19 0)
(0 -1.61465e-19 0)
(0 -1.63663e-19 0)
(0 -1.66481e-19 0)
(0 -1.68914e-19 0)
(0 -1.71227e-19 0)
(0 -1.73323e-19 0)
(0 -1.76158e-19 0)
(0 -1.78945e-19 0)
(0 -1.81435e-19 0)
(0 -1.84152e-19 0)
(0 -1.87229e-19 0)
(0 -1.9015e-19 0)
(0 -1.93169e-19 0)
(0 -1.96289e-19 0)
(0 -1.9953e-19 0)
(0 -2.02814e-19 0)
(0 -2.06097e-19 0)
(0 -2.09622e-19 0)
(0 -2.13265e-19 0)
(0 -2.1696e-19 0)
(0 -2.2085e-19 0)
(0 -2.24907e-19 0)
(0 -2.29044e-19 0)
(0 -2.33315e-19 0)
(0 -2.37728e-19 0)
(0 -2.42273e-19 0)
(0 -2.46969e-19 0)
(0 -2.51846e-19 0)
(0 -2.56908e-19 0)
(0 -2.62161e-19 0)
(0 -2.67624e-19 0)
(0 -2.73299e-19 0)
(0 -2.79184e-19 0)
(0 -2.85291e-19 0)
(0 -2.91632e-19 0)
(0 -2.98219e-19 0)
(0 -3.05065e-19 0)
(0 -3.12185e-19 0)
(0 -3.19593e-19 0)
(0 -3.27303e-19 0)
(0 -3.35332e-19 0)
(0 -3.43698e-19 0)
(0 -3.52424e-19 0)
(0 -3.61536e-19 0)
(0 -3.71065e-19 0)
(0 -3.81047e-19 0)
(0 -3.91528e-19 0)
(0 -4.02557e-19 0)
(0 -4.14191e-19 0)
(0 -4.26482e-19 0)
(0 -4.39477e-19 0)
(0 -4.53215e-19 0)
(0 -4.67735e-19 0)
(0 -4.83051e-19 0)
(0 1.13477e-16 0)
(0 6.51687e-16 0)
(0 2.14115e-15 0)
(0 6.12676e-15 0)
(0 1.68799e-14 0)
(0 4.51188e-14 0)
(0 1.17239e-13 0)
(0 2.96992e-13 0)
(0 7.36763e-13 0)
(0 1.80096e-12 0)
(0 4.38729e-12 0)
(0 1.09486e-11 0)
(0 2.96244e-11 0)
(0 9.43165e-11 0)
(0 3.80506e-10 0)
(0 2.02621e-09 0)
(0 1.51705e-08 0)
(0 1.27677e-07 0)
(0 1.14203e-06 0)
(0 1.26954e-05 0)
(0 0.000174081 0)
(0 0.00349115 0)
(0 0.0803162 0)
(0 0.262786 0)
(0 0.147662 0)
(0 -0.629521 0)
(0 -0.514701 0)
(0 -0.426178 0)
(0 -0.371442 0)
(0 -0.343154 0)
(0 -0.335884 0)
(0 -0.338374 0)
(0 -0.346541 0)
(0 -0.358657 0)
(0 -0.373371 0)
(0 -0.389695 0)
(0 -0.406956 0)
(0 -0.424691 0)
(0 -0.442582 0)
(0 -0.460416 0)
(0 -0.478049 0)
(0 -0.495378 0)
(0 -0.512341 0)
(0 -0.528895 0)
(0 -0.54502 0)
(0 -0.560705 0)
(0 -0.575956 0)
(0 -0.590769 0)
(0 -0.605157 0)
(0 -0.619141 0)
(0 -0.632731 0)
(0 -0.64594 0)
(0 -0.658789 0)
(0 -0.671298 0)
(0 -0.683484 0)
(0 -0.695368 0)
(0 -0.706969 0)
(0 -0.718308 0)
(0 -0.729407 0)
(0 -0.740293 0)
(0 -0.750985 0)
(0 -0.761511 0)
(0 -0.771912 0)
(0 -0.782225 0)
(0 -0.792496 0)
(0 -0.802781 0)
(0 -0.813147 0)
(0 -0.823672 0)
(0 -0.83444 0)
(0 -0.845529 0)
(0 -0.856996 0)
(0 -0.86884 0)
(0 -0.880975 0)
(0 -0.89319 0)
(0 -0.905125 0)
(0 -0.916218 0)
(0 -0.925856 0)
(-5.19657e-16 -0.9333 0)
(0 -0.937722 0)
(0 -0.938357 0)
(3.17041e-16 -0.934783 0)
(0 -0.927057 0)
(-3.6548e-16 -0.915806 0)
(0 -0.902175 0)
(4.23413e-16 -0.887602 0)
(0 -0.873522 0)
(0 -0.861204 0)
(0 -0.851728 0)
(2.89057e-16 -0.845952 0)
(0 -0.844365 0)
(0 -0.846817 0)
(0 -0.852185 0)
(0 -0.85817 0)
(0 -0.861456 0)
(0 -0.858329 0)
(0 -0.845681 0)
(-3.29017e-16 -0.821937 0)
(0 -0.787505 0)
(-2.10061e-16 -0.744388 0)
(0 -0.695627 0)
(0 -0.643546 0)
(0 -0.591473 0)
(0 -0.538864 0)
(0 -0.488953 0)
(1.01342e-16 -0.438797 0)
(0 -0.391128 0)
(0 -0.34391 0)
(0 -0.29808 0)
(0 -0.257605 0)
(0 -0.215146 0)
(0 -0.241243 0)
(0 -0.123815 0)
(0 0 0)
(0 0 0)
(0 0 0)
(0 0 0)
(0 0 0)
(0 0 0)
(0 0 0)
(0 0 0)
(0 0 0)
(0 0 0)
(0 0 0)
(0 0 0)
(0 0 0)
(0 0 0)
(0 0 0)
(0 0 0)
(0 0 0)
(0 0 0)
(0 0 0)
(0 0 0)
(0 0 0)
(0 0 0)
(0 0 0)
(0 0 0)
(0 0 0)
(0 0 0)
(0 0 0)
(0 0 0)
(0 0 0)
(0 0 0)
(0 0 0)
(0 0 0)
(0 0 0)
(0 0 0)
(0 0 0)
(0 0 0)
(0 0 0)
(0 0 0)
(0 0 0)
(0 0 0)
(0 0 0)
(0 0 0)
(0 0 0)
(0 0 0)
(0 0 0)
(0 0 0)
(0 0 0)
(0 0 0)
(0 0 0)
(0 0 0)
(0 0 0)
(0 0 0)
(0 0 0)
(0 0 0)
(0 0 0)
(0 0 0)
(0 0 0)
(0 0 0)
(0 0 0)
(0 0 0)
(0 0 0)
(0 0 0)
(0 0 0)
(0 0 0)
(0 0 0)
(0 0 0)
(0 0 0)
(0 0 0)
(0 0 0)
(0 0 0)
(0 0 0)
(0 0 0)
(0 0 0)
(0 0 0)
(0 0 0)
(0 0 0)
(0 0 0)
(0 0 0)
(0 0 0)
(0 0 0)
(0 0 0)
(0 0 0)
(0 0 0)
(0 0 0)
(0 0 0)
(0 0 0)
(0 0 0)
(0 0 0)
(0 0 0)
(0 0 0)
(0 0 0)
(0 0 0)
(0 0 0)
(0 0 0)
(0 0 0)
(0 0 0)
(0 0 0)
(0 0 0)
(0 0 0)
(0 0 0)
(0 0 0)
(0 0 0)
(0 0 0)
(0 0 0)
(0 0 0)
(0 0 0)
(0 0 0)
(0 0 0)
(0 0 0)
(0 0 0)
(0 0 0)
(0 0 0)
(0 0 0)
(0 0 0)
(0 0 0)
(0 0 0)
(0 0 0)
(0 0 0)
(0 0 0)
(0 0 0)
(0 0 0)
(0 0 0)
(0 0 0)
)
;

boundaryField
{
    inandouthalf11
    {
        type            cyclic;
    }
    inandouthalf12
    {
        type            cyclic;
    }
    inandouthalf21
    {
        type            cyclic;
    }
    inandouthalf22
    {
        type            cyclic;
    }
    inandouthalf31
    {
        type            cyclic;
    }
    inandouthalf32
    {
        type            cyclic;
    }
    inandouthalf41
    {
        type            cyclic;
    }
    inandouthalf42
    {
        type            cyclic;
    }
    top
    {
        type            symmetryPlane;
    }
    walls
    {
        type            calculated;
        value           uniform (0 0 0);
    }
    frontAndBackPlanes
    {
        type            empty;
    }
}


// ************************************************************************* //
