/*--------------------------------*- C++ -*----------------------------------*\
| =========                 |                                                 |
| \\      /  F ield         | OpenFOAM: The Open Source CFD Toolbox           |
|  \\    /   O peration     | Version:  2.4.x                                 |
|   \\  /    A nd           | Web:      www.OpenFOAM.org                      |
|    \\/     M anipulation  |                                                 |
\*---------------------------------------------------------------------------*/
FoamFile
{
    version     2.0;
    format      ascii;
    class       volScalarField;
    location    "10.35";
    object      nutb;
}
// * * * * * * * * * * * * * * * * * * * * * * * * * * * * * * * * * * * * * //

dimensions      [0 2 -1 0 0 0 0];

internalField   nonuniform List<scalar> 
360
(
9e-22
9e-22
9e-22
9e-22
9e-22
9e-22
9e-22
9e-22
9e-22
9e-22
9e-22
9e-22
9e-22
9e-22
9e-22
9e-22
9e-22
9e-22
9e-22
9e-22
9e-22
9e-22
9e-22
9e-22
9e-22
9e-22
9e-22
9e-22
9e-22
9e-22
9e-22
9e-22
9e-22
9e-22
9e-22
9e-22
9e-22
9e-22
9e-22
9e-22
9e-22
9e-22
9e-22
9e-22
9e-22
9e-22
9e-22
9e-22
9e-22
9e-22
9e-22
9e-22
9e-22
9e-22
9e-22
9e-22
9e-22
9e-22
9e-22
9e-22
9e-22
9e-22
9e-22
9e-22
9e-22
9e-22
9e-22
9e-22
9e-22
9e-22
9e-22
9e-22
9e-22
9e-22
9e-22
9e-22
9e-22
9e-22
9e-22
9e-22
9e-22
9e-22
9e-22
9e-22
9e-22
9e-22
9e-22
9e-22
9e-22
9e-22
9e-22
9e-22
9e-22
9e-22
9e-22
9e-22
9e-22
9e-22
9e-22
9e-22
9e-22
9e-22
9e-22
9e-22
9e-22
9e-22
9e-22
9e-22
9e-22
9e-22
9e-22
9e-22
9e-22
9e-22
9e-22
9e-22
9e-22
9e-22
9e-22
9e-22
9e-22
9e-22
9e-22
9e-22
9e-22
9e-22
1.7737e-21
5.10612e-21
1.46459e-20
4.06417e-20
1.0895e-19
2.82181e-19
7.06232e-19
1.70983e-18
4.01267e-18
9.14309e-18
2.02853e-17
4.44799e-17
1.00751e-16
2.55586e-16
7.97337e-16
3.29276e-15
2.19816e-14
1.55622e-13
1.11276e-12
9.95194e-12
1.04964e-10
1.34443e-09
2.20126e-08
7.16802e-07
7.22494e-06
2.22435e-05
3.72756e-05
5.10568e-05
6.37566e-05
7.55878e-05
8.6707e-05
9.72242e-05
0.000107219
0.00011675
0.000125862
0.000134592
0.000142968
0.000151012
0.000158742
0.000166176
0.000173325
0.000180201
0.000186814
0.000193171
0.000199281
0.000205149
0.000210782
0.000216184
0.00022136
0.000226316
0.000231053
0.000235578
0.000239892
0.000244
0.000247905
0.000251608
0.000255115
0.000258426
0.000261546
0.000264476
0.00026722
0.000269779
0.000272156
0.000274354
0.000276375
0.000278222
0.000279896
0.000281401
0.000282738
0.00028391
0.00028492
0.000285769
0.000286461
0.000286997
0.00028738
0.000287615
0.000287698
0.000287623
0.000287382
0.000286967
0.000286372
0.000285588
0.000284606
0.00028342
0.000282021
0.000280402
0.000278555
0.000276473
0.000274151
0.000271582
0.000268761
0.000265686
0.000262352
0.000258758
0.000254904
0.000250792
0.000246424
0.000241808
0.000236953
0.000231873
0.000226585
0.000221115
0.000215492
0.000209755
0.000203951
0.000198137
0.000192379
0.000186755
0.000181355
0.000176273
0.00017161
0.000167464
0.000163929
0.00016107
0.000158923
0.000157476
0.000156669
0.000156392
0.000156497
0.000156812
0.000157163
0.000157386
0.000157347
0.000156941
0.000156096
0.000154771
0.000152942
0.000150602
0.000147752
0.000144397
0.000140542
0.00013619
0.000131341
0.000125992
0.000120139
0.000113776
0.000106893
9.94828e-05
9.15371e-05
8.30484e-05
7.40109e-05
6.44204e-05
5.42747e-05
4.35727e-05
3.23165e-05
2.05283e-05
7.90031e-06
7.4679e-07
1.23368e-08
1.31517e-10
1.31786e-12
1.2518e-14
1.12804e-16
9.08652e-19
2.50067e-21
9e-22
9e-22
9e-22
9e-22
9e-22
9e-22
9e-22
9e-22
9e-22
9e-22
9e-22
9e-22
9e-22
9e-22
9e-22
9e-22
9e-22
9e-22
9e-22
9e-22
9e-22
9e-22
9e-22
9e-22
9e-22
9e-22
9e-22
9e-22
9e-22
9e-22
9e-22
9e-22
9e-22
9e-22
9e-22
9e-22
9e-22
9e-22
9e-22
9e-22
9e-22
9e-22
9e-22
9e-22
9e-22
9e-22
9e-22
9e-22
9e-22
9e-22
9e-22
9e-22
9e-22
9e-22
9e-22
9e-22
9e-22
9e-22
9e-22
9e-22
9e-22
9e-22
9e-22
9e-22
9e-22
9e-22
9e-22
9e-22
9e-22
9e-22
9e-22
9e-22
9e-22
9e-22
9e-22
9e-22
9e-22
9e-22
9e-22
)
;

boundaryField
{
    inandouthalf11
    {
        type            cyclic;
    }
    inandouthalf12
    {
        type            cyclic;
    }
    inandouthalf21
    {
        type            cyclic;
    }
    inandouthalf22
    {
        type            cyclic;
    }
    inandouthalf31
    {
        type            cyclic;
    }
    inandouthalf32
    {
        type            cyclic;
    }
    inandouthalf41
    {
        type            cyclic;
    }
    inandouthalf42
    {
        type            cyclic;
    }
    top
    {
        type            symmetryPlane;
    }
    walls
    {
        type            calculated;
        value           uniform 0;
    }
    frontAndBackPlanes
    {
        type            empty;
    }
}


// ************************************************************************* //
