/*--------------------------------*- C++ -*----------------------------------*\
| =========                 |                                                 |
| \\      /  F ield         | OpenFOAM: The Open Source CFD Toolbox           |
|  \\    /   O peration     | Version:  2.4.x                                 |
|   \\  /    A nd           | Web:      www.OpenFOAM.org                      |
|    \\/     M anipulation  |                                                 |
\*---------------------------------------------------------------------------*/
FoamFile
{
    version     2.0;
    format      ascii;
    class       volScalarField;
    location    "10.35";
    object      p;
}
// * * * * * * * * * * * * * * * * * * * * * * * * * * * * * * * * * * * * * //

dimensions      [1 -1 -2 0 0 0 0];

internalField   nonuniform List<scalar> 
360
(
4888.44
4883.53
4878.63
4873.72
4868.82
4863.91
4859.01
4854.1
4849.19
4844.29
4839.38
4834.48
4829.57
4824.67
4819.76
4814.85
4809.95
4805.04
4800.14
4795.23
4790.33
4785.42
4780.51
4775.61
4770.7
4765.79
4760.89
4755.98
4751.08
4746.17
4741.26
4736.36
4731.45
4726.54
4721.64
4716.73
4711.82
4706.92
4702.01
4697.1
4692.19
4687.29
4682.38
4677.47
4672.57
4667.66
4662.75
4657.84
4652.94
4648.03
4643.12
4638.21
4633.31
4628.4
4623.49
4618.58
4613.67
4608.77
4603.86
4598.95
4594.04
4589.13
4584.22
4579.32
4574.41
4569.5
4564.59
4559.68
4554.77
4549.86
4544.96
4540.05
4535.14
4530.23
4525.32
4520.41
4515.5
4510.59
4505.68
4500.77
4495.86
4490.95
4486.04
4481.13
4476.22
4471.31
4466.4
4461.49
4456.58
4451.67
4446.76
4441.85
4436.94
4432.03
4427.12
4422.21
4417.3
4412.39
4407.48
4402.57
4397.66
4392.75
4387.84
4382.93
4378.01
4373.1
4368.19
4363.28
4358.37
4353.46
4348.55
4343.64
4338.73
4333.81
4328.9
4323.99
4319.08
4314.17
4309.26
4304.34
4299.43
4294.52
4289.61
4284.7
4279.79
4274.87
4269.96
4265.05
4260.14
4255.23
4250.32
4245.4
4240.49
4235.58
4230.67
4225.76
4220.84
4215.93
4211.02
4206.11
4201.2
4196.28
4191.37
4186.45
4181.53
4176.59
4171.64
4166.68
4161.62
4156.61
4149.75
4143.74
4137.91
4132.32
4126.85
4121.46
4116.13
4110.84
4105.59
4100.38
4095.19
4090.03
4084.89
4079.77
4074.67
4069.59
4064.51
4059.46
4054.41
4049.38
4044.36
4039.35
4034.35
4029.35
4024.37
4019.39
4014.42
4009.46
4004.51
3999.56
3994.62
3989.68
3984.75
3979.83
3974.91
3970
3965.09
3960.18
3955.28
3950.38
3945.49
3940.6
3935.72
3930.84
3925.96
3921.09
3916.22
3911.35
3906.48
3901.62
3896.76
3891.85
3886.85
3881.75
3876.54
3871.24
3865.83
3860.31
3854.68
3848.94
3843.09
3837.11
3831.02
3824.81
3818.48
3812.02
3805.43
3798.7
3791.85
3784.85
3777.71
3770.43
3763.01
3755.43
3747.7
3739.81
3731.76
3723.55
3715.16
3706.61
3697.88
3688.96
3679.86
3670.57
3661.08
3651.4
3641.5
3631.4
3621.08
3610.54
3599.77
3588.78
3577.55
3566.08
3554.37
3542.42
3530.22
3517.76
3505.05
3492.07
3478.83
3465.32
3451.54
3437.47
3423.11
3408.47
3393.53
3378.28
3362.72
3346.85
3330.66
3314.14
3297.29
3280.09
3262.55
3244.65
3226.38
3207.75
3188.73
3169.33
3149.53
3129.33
3108.71
3087.66
3066.18
3044.26
3021.9
2999.08
2975.8
2952.05
2927.81
2903.09
2877.86
2852.12
2825.86
2799.06
2771.72
2743.82
2715.36
2686.32
2656.7
2626.47
2595.62
2564.15
2532.05
2499.29
2465.86
2431.76
2396.96
2361.46
2325.24
2288.28
2250.57
2212.1
2172.85
2132.8
2091.93
2050.24
2007.7
1964.3
1922.76
1883.52
1844.28
1805.04
1765.8
1726.56
1687.32
1648.08
1608.84
1569.6
1530.36
1491.12
1451.88
1412.64
1373.4
1334.16
1294.92
1255.68
1216.44
1177.2
1137.96
1098.72
1059.48
1020.24
981
941.76
902.52
863.28
824.04
784.8
745.56
706.32
667.08
627.84
588.6
549.36
510.12
470.88
431.64
392.4
353.16
313.92
274.68
235.44
196.2
156.96
117.72
78.48
39.24
-1.83206e-07
)
;

boundaryField
{
    inandouthalf11
    {
        type            cyclic;
    }
    inandouthalf12
    {
        type            cyclic;
    }
    inandouthalf21
    {
        type            cyclic;
    }
    inandouthalf22
    {
        type            cyclic;
    }
    inandouthalf31
    {
        type            cyclic;
    }
    inandouthalf32
    {
        type            cyclic;
    }
    inandouthalf41
    {
        type            cyclic;
    }
    inandouthalf42
    {
        type            cyclic;
    }
    top
    {
        type            symmetryPlane;
    }
    walls
    {
        type            slip;
    }
    frontAndBackPlanes
    {
        type            empty;
    }
}


// ************************************************************************* //
