/*--------------------------------*- C++ -*----------------------------------*\
| =========                 |                                                 |
| \\      /  F ield         | OpenFOAM: The Open Source CFD Toolbox           |
|  \\    /   O peration     | Version:  2.4.x                                 |
|   \\  /    A nd           | Web:      www.OpenFOAM.org                      |
|    \\/     M anipulation  |                                                 |
\*---------------------------------------------------------------------------*/
FoamFile
{
    version     2.0;
    format      ascii;
    class       surfaceScalarField;
    location    "10.35";
    object      phia_0;
}
// * * * * * * * * * * * * * * * * * * * * * * * * * * * * * * * * * * * * * //

dimensions      [0 3 -1 0 0 0 0];

internalField   nonuniform List<scalar> 
359
(
-2.97124e-14
-7.38995e-14
-1.13451e-13
-1.49962e-13
-1.86177e-13
-2.21957e-13
-2.56787e-13
-2.90625e-13
-3.23619e-13
-3.55937e-13
-3.877e-13
-4.18994e-13
-4.49902e-13
-4.805e-13
-5.10866e-13
-5.41081e-13
-5.71214e-13
-6.01331e-13
-6.31488e-13
-6.61747e-13
-6.92148e-13
-7.22745e-13
-7.53579e-13
-7.84686e-13
-8.16101e-13
-8.47852e-13
-8.79964e-13
-9.12463e-13
-9.45366e-13
-9.78689e-13
-1.01244e-12
-1.04664e-12
-1.08129e-12
-1.1164e-12
-1.15196e-12
-1.18799e-12
-1.22448e-12
-1.26143e-12
-1.29885e-12
-1.3367e-12
-1.37501e-12
-1.41377e-12
-1.45294e-12
-1.49255e-12
-1.53258e-12
-1.57301e-12
-1.61384e-12
-1.65504e-12
-1.69661e-12
-1.73856e-12
-1.78084e-12
-1.82345e-12
-1.86638e-12
-1.90962e-12
-1.95313e-12
-1.99694e-12
-2.04099e-12
-2.08528e-12
-2.1298e-12
-2.1745e-12
-2.21941e-12
-2.26448e-12
-2.30972e-12
-2.3551e-12
-2.4006e-12
-2.4462e-12
-2.49188e-12
-2.53762e-12
-2.58341e-12
-2.62919e-12
-2.675e-12
-2.7208e-12
-2.76656e-12
-2.81227e-12
-2.85793e-12
-2.90351e-12
-2.94898e-12
-2.99431e-12
-3.0395e-12
-3.08451e-12
-3.12934e-12
-3.17395e-12
-3.21835e-12
-3.26251e-12
-3.30643e-12
-3.35008e-12
-3.39345e-12
-3.43652e-12
-3.47925e-12
-3.52164e-12
-3.56365e-12
-3.60529e-12
-3.64653e-12
-3.68737e-12
-3.7278e-12
-3.76781e-12
-3.80739e-12
-3.84653e-12
-3.88521e-12
-3.92343e-12
-3.96118e-12
-3.99845e-12
-4.03524e-12
-4.07154e-12
-4.10736e-12
-4.14271e-12
-4.17758e-12
-4.21198e-12
-4.24592e-12
-4.27942e-12
-4.3125e-12
-4.34517e-12
-4.37746e-12
-4.4094e-12
-4.441e-12
-4.4723e-12
-4.50332e-12
-4.53405e-12
-4.56449e-12
-4.59461e-12
-4.62435e-12
-4.65363e-12
-4.68232e-12
-4.7103e-12
-4.73744e-12
-4.76364e-12
-4.78888e-12
-4.81325e-12
-4.83697e-12
-4.86038e-12
-4.884e-12
-4.90849e-12
-4.93463e-12
-4.96318e-12
-4.99439e-12
-5.02714e-12
-5.05816e-12
-5.08283e-12
-5.0979e-12
-5.10417e-12
-5.10575e-12
-5.1057e-12
-9.44959e-12
-1.66553e-11
-2.48484e-11
-3.53533e-11
-4.99571e-11
-7.34079e-11
-2.16599e-10
-1.30488e-08
-2.90024e-08
-4.15005e-08
-5.1845e-08
-5.91759e-08
-6.41366e-08
-6.75137e-08
-6.97572e-08
-7.11597e-08
-7.19288e-08
-7.22148e-08
-7.21279e-08
-7.17503e-08
-7.11445e-08
-7.03586e-08
-6.94299e-08
-6.83875e-08
-6.72543e-08
-6.60484e-08
-6.47843e-08
-6.34737e-08
-6.2126e-08
-6.07486e-08
-5.93478e-08
-5.79287e-08
-5.64954e-08
-5.50514e-08
-5.35997e-08
-5.21426e-08
-5.06824e-08
-4.92209e-08
-4.77596e-08
-4.63002e-08
-4.4844e-08
-4.33923e-08
-4.19465e-08
-4.05079e-08
-3.90779e-08
-3.7658e-08
-3.62499e-08
-3.48555e-08
-3.3477e-08
-3.21167e-08
-3.07777e-08
-2.94633e-08
-2.81774e-08
-2.69245e-08
-2.57094e-08
-2.45368e-08
-2.34115e-08
-2.23372e-08
-2.13158e-08
-2.03279e-08
-1.93728e-08
-1.84454e-08
-1.75362e-08
-1.66312e-08
-1.57137e-08
-1.47662e-08
-1.3774e-08
-1.27272e-08
-1.16219e-08
-1.04596e-08
-9.2469e-09
-7.99524e-09
-6.72121e-09
-5.44628e-09
-4.19591e-09
-2.99755e-09
-1.87761e-09
-8.57972e-10
4.69533e-11
8.31397e-10
1.49779e-09
2.05425e-09
2.51288e-09
2.88479e-09
3.18495e-09
3.4157e-09
3.5979e-09
3.71154e-09
3.79787e-09
3.79117e-09
3.78574e-09
3.612e-09
3.53985e-09
2.71179e-09
2.80671e-09
4.07298e-09
4.56607e-09
4.71269e-09
4.47354e-09
3.8342e-09
3.04034e-09
1.78639e-09
8.18902e-10
-6.47713e-10
-1.94841e-09
-3.39076e-09
-4.63456e-09
-5.85302e-09
-1.49171e-08
-1.12263e-07
-1.5772e-07
-1.58108e-07
-1.57986e-07
-1.57996e-07
-1.57999e-07
-1.58002e-07
-1.58005e-07
-1.58008e-07
-1.5801e-07
-1.58013e-07
-1.58014e-07
-1.58014e-07
-1.58014e-07
-1.58011e-07
-1.58008e-07
-1.58002e-07
-1.57994e-07
-1.57984e-07
-1.57969e-07
-1.57946e-07
-1.57899e-07
-1.57876e-07
-1.57875e-07
-1.57875e-07
-1.57875e-07
-1.57875e-07
-1.57875e-07
-1.57875e-07
-1.57875e-07
-1.57875e-07
-1.57875e-07
-1.57875e-07
-1.57875e-07
-1.57875e-07
-1.57875e-07
-1.57875e-07
-1.57875e-07
-1.57875e-07
-1.57875e-07
-1.57875e-07
-1.57875e-07
-1.57875e-07
-1.57875e-07
-1.57875e-07
-1.57875e-07
-1.57875e-07
-1.57875e-07
-1.57875e-07
-1.57875e-07
-1.57875e-07
-1.57875e-07
-1.57875e-07
-1.57875e-07
-1.57875e-07
-1.57875e-07
-1.57875e-07
-1.57875e-07
-1.57875e-07
-1.57875e-07
-1.57875e-07
-1.57875e-07
-1.57875e-07
-1.57875e-07
-1.57875e-07
-1.57875e-07
-1.57875e-07
-1.57875e-07
-1.57875e-07
-1.57875e-07
-1.57875e-07
-1.57875e-07
-1.57875e-07
-1.57875e-07
-1.57875e-07
-1.57875e-07
-1.57875e-07
-1.57875e-07
-1.57875e-07
-1.57875e-07
-1.57875e-07
-1.57875e-07
-1.57875e-07
-1.57875e-07
-1.57875e-07
-1.57875e-07
-1.57875e-07
-1.57875e-07
-1.57875e-07
-1.57875e-07
-1.57875e-07
-1.57875e-07
-1.57875e-07
-1.57875e-07
-1.57875e-07
-1.57875e-07
-1.57875e-07
-1.57875e-07
-1.57875e-07
-1.57875e-07
-1.57875e-07
-1.57875e-07
-1.57875e-07
-1.57875e-07
-1.57875e-07
-1.57857e-07
-1.57147e-07
-1.32104e-07
)
;

boundaryField
{
    inandouthalf11
    {
        type            cyclic;
        value           nonuniform List<scalar> 
100
(
9.92301e-39
1.83156e-15
3.71372e-15
5.31943e-15
6.87747e-15
8.42489e-15
9.92427e-15
1.13636e-14
1.27492e-14
1.40892e-14
1.53901e-14
1.66569e-14
1.78935e-14
1.91035e-14
2.02904e-14
2.14576e-14
2.26084e-14
2.37455e-14
2.48713e-14
2.59882e-14
2.7098e-14
2.82024e-14
2.9303e-14
3.04011e-14
3.14978e-14
3.25939e-14
3.36902e-14
3.47873e-14
3.58855e-14
3.69851e-14
3.80863e-14
3.9189e-14
4.02931e-14
4.13985e-14
4.2505e-14
4.36121e-14
4.47195e-14
4.58266e-14
4.69332e-14
4.80384e-14
4.91418e-14
5.02428e-14
5.13406e-14
5.24345e-14
5.3524e-14
5.46084e-14
5.56868e-14
5.67584e-14
5.78224e-14
5.88784e-14
5.99255e-14
6.09629e-14
6.19898e-14
6.30055e-14
6.40092e-14
6.50002e-14
6.59778e-14
6.69412e-14
6.78896e-14
6.88221e-14
6.97383e-14
7.06374e-14
7.15189e-14
7.23821e-14
7.32263e-14
7.40507e-14
7.48549e-14
7.56381e-14
7.63998e-14
7.71391e-14
7.78558e-14
7.85495e-14
7.92195e-14
7.98654e-14
8.04868e-14
8.10833e-14
8.16545e-14
8.21997e-14
8.27187e-14
8.32111e-14
8.36766e-14
8.41149e-14
8.45258e-14
8.49092e-14
8.52648e-14
8.55924e-14
8.58919e-14
8.61631e-14
8.64058e-14
8.66199e-14
8.68054e-14
8.69621e-14
8.70902e-14
8.71896e-14
8.72603e-14
8.73024e-14
8.73159e-14
8.73008e-14
8.72571e-14
8.71848e-14
)
;
    }
    inandouthalf12
    {
        type            cyclic;
        value           nonuniform List<scalar> 
100
(
-9.92301e-39
-1.83156e-15
-3.71372e-15
-5.31943e-15
-6.87747e-15
-8.42489e-15
-9.92427e-15
-1.13636e-14
-1.27492e-14
-1.40892e-14
-1.53901e-14
-1.66569e-14
-1.78935e-14
-1.91035e-14
-2.02904e-14
-2.14576e-14
-2.26084e-14
-2.37455e-14
-2.48713e-14
-2.59882e-14
-2.7098e-14
-2.82024e-14
-2.9303e-14
-3.04011e-14
-3.14978e-14
-3.25939e-14
-3.36902e-14
-3.47873e-14
-3.58855e-14
-3.69851e-14
-3.80863e-14
-3.9189e-14
-4.02931e-14
-4.13985e-14
-4.2505e-14
-4.36121e-14
-4.47195e-14
-4.58266e-14
-4.69332e-14
-4.80384e-14
-4.91418e-14
-5.02428e-14
-5.13406e-14
-5.24345e-14
-5.3524e-14
-5.46084e-14
-5.56868e-14
-5.67584e-14
-5.78224e-14
-5.88784e-14
-5.99255e-14
-6.09629e-14
-6.19898e-14
-6.30055e-14
-6.40092e-14
-6.50002e-14
-6.59778e-14
-6.69412e-14
-6.78896e-14
-6.88221e-14
-6.97383e-14
-7.06374e-14
-7.15189e-14
-7.23821e-14
-7.32263e-14
-7.40507e-14
-7.48549e-14
-7.56381e-14
-7.63998e-14
-7.71391e-14
-7.78558e-14
-7.85495e-14
-7.92195e-14
-7.98654e-14
-8.04868e-14
-8.10833e-14
-8.16545e-14
-8.21997e-14
-8.27187e-14
-8.32111e-14
-8.36766e-14
-8.41149e-14
-8.45258e-14
-8.49092e-14
-8.52648e-14
-8.55924e-14
-8.58919e-14
-8.61631e-14
-8.64058e-14
-8.66199e-14
-8.68054e-14
-8.69621e-14
-8.70902e-14
-8.71896e-14
-8.72603e-14
-8.73024e-14
-8.73159e-14
-8.73008e-14
-8.72571e-14
-8.71848e-14
)
;
    }
    inandouthalf21
    {
        type            cyclic;
        value           nonuniform List<scalar> 
100
(
8.7084e-14
8.69547e-14
8.67968e-14
8.66103e-14
8.63952e-14
8.61511e-14
8.5878e-14
8.55754e-14
8.52428e-14
8.48798e-14
8.44854e-14
8.40587e-14
8.35985e-14
8.31031e-14
8.25708e-14
8.19994e-14
8.13866e-14
8.07297e-14
8.00261e-14
7.92737e-14
7.84704e-14
7.76155e-14
7.67093e-14
7.57536e-14
7.47514e-14
7.37062e-14
7.26203e-14
7.14924e-14
7.03146e-14
6.90692e-14
6.7725e-14
6.62327e-14
6.45199e-14
6.24887e-14
6.00316e-14
5.70956e-14
5.38131e-14
5.06226e-14
4.8171e-14
4.68808e-14
4.6519e-14
4.64698e-14
4.65001e-14
9.8588e-13
2.32692e-12
3.90592e-12
6.0798e-12
9.60451e-12
1.82612e-11
1.03365e-10
6.73763e-09
3.76408e-10
-8.62022e-09
-1.73869e-08
-2.58822e-08
-3.41449e-08
-4.22072e-08
-5.00914e-08
-5.78133e-08
-6.53843e-08
-7.28137e-08
-8.0109e-08
-8.72766e-08
-9.43225e-08
-1.01252e-07
-1.08069e-07
-1.14779e-07
-1.21386e-07
-1.27893e-07
-1.34305e-07
-1.40624e-07
-1.46855e-07
-1.53e-07
-1.59061e-07
-1.65042e-07
-1.70944e-07
-1.7677e-07
-1.82522e-07
-1.88201e-07
-1.93809e-07
-1.99347e-07
-2.04816e-07
-2.10216e-07
-2.15548e-07
-2.20811e-07
-2.26006e-07
-2.31131e-07
-2.36186e-07
-2.41171e-07
-2.46082e-07
-2.50919e-07
-2.55679e-07
-2.60361e-07
-2.6496e-07
-2.69476e-07
-2.73905e-07
-2.78242e-07
-2.82486e-07
-2.86633e-07
-2.90678e-07
)
;
    }
    inandouthalf22
    {
        type            cyclic;
        value           nonuniform List<scalar> 
100
(
-8.7084e-14
-8.69547e-14
-8.67968e-14
-8.66103e-14
-8.63952e-14
-8.61511e-14
-8.5878e-14
-8.55754e-14
-8.52428e-14
-8.48798e-14
-8.44854e-14
-8.40587e-14
-8.35985e-14
-8.31031e-14
-8.25708e-14
-8.19994e-14
-8.13866e-14
-8.07297e-14
-8.00261e-14
-7.92737e-14
-7.84704e-14
-7.76155e-14
-7.67093e-14
-7.57536e-14
-7.47514e-14
-7.37062e-14
-7.26203e-14
-7.14924e-14
-7.03146e-14
-6.90692e-14
-6.7725e-14
-6.62327e-14
-6.45199e-14
-6.24887e-14
-6.00316e-14
-5.70956e-14
-5.38131e-14
-5.06226e-14
-4.8171e-14
-4.68808e-14
-4.6519e-14
-4.64698e-14
-4.65001e-14
-9.8588e-13
-2.32692e-12
-3.90592e-12
-6.0798e-12
-9.60451e-12
-1.82612e-11
-1.03365e-10
-6.73763e-09
-3.76408e-10
8.62022e-09
1.73869e-08
2.58822e-08
3.41449e-08
4.22072e-08
5.00914e-08
5.78133e-08
6.53843e-08
7.28137e-08
8.0109e-08
8.72766e-08
9.43225e-08
1.01252e-07
1.08069e-07
1.14779e-07
1.21386e-07
1.27893e-07
1.34305e-07
1.40624e-07
1.46855e-07
1.53e-07
1.59061e-07
1.65042e-07
1.70944e-07
1.7677e-07
1.82522e-07
1.88201e-07
1.93809e-07
1.99347e-07
2.04816e-07
2.10216e-07
2.15548e-07
2.20811e-07
2.26006e-07
2.31131e-07
2.36186e-07
2.41171e-07
2.46082e-07
2.50919e-07
2.55679e-07
2.60361e-07
2.6496e-07
2.69476e-07
2.73905e-07
2.78242e-07
2.82486e-07
2.86633e-07
2.90678e-07
)
;
    }
    inandouthalf31
    {
        type            cyclic;
        value           nonuniform List<scalar> 
110
(
-2.9462e-07
-3.04551e-07
-3.14727e-07
-3.25151e-07
-3.35821e-07
-3.46739e-07
-3.57903e-07
-3.69312e-07
-3.80966e-07
-3.92863e-07
-4.05e-07
-4.17373e-07
-4.29979e-07
-4.42812e-07
-4.55867e-07
-4.69136e-07
-4.82612e-07
-4.9629e-07
-5.10163e-07
-5.24224e-07
-5.38471e-07
-5.52899e-07
-5.67508e-07
-5.82294e-07
-5.97257e-07
-6.12395e-07
-6.27707e-07
-6.4319e-07
-6.58839e-07
-6.74653e-07
-6.90623e-07
-7.06741e-07
-7.2299e-07
-7.39353e-07
-7.55787e-07
-7.72249e-07
-7.89117e-07
-9.64674e-07
-9.89892e-07
-1.01421e-06
-1.03837e-06
-1.06241e-06
-1.08628e-06
-1.11003e-06
-1.13362e-06
-1.15714e-06
-1.1806e-06
-1.20394e-06
-1.22745e-06
-1.25056e-06
-1.27431e-06
-1.29509e-06
-1.31532e-06
-1.33892e-06
-1.3628e-06
-1.38696e-06
-1.41133e-06
-1.43595e-06
-1.46084e-06
-1.48605e-06
-1.51159e-06
-1.53752e-06
-1.56386e-06
-1.59068e-06
-1.61803e-06
-1.64596e-06
-1.67456e-06
-1.70389e-06
-1.73407e-06
-1.7652e-06
-1.79741e-06
-1.83083e-06
-1.86589e-06
-1.90307e-06
-1.94165e-06
-1.98106e-06
-2.02127e-06
-2.0623e-06
-2.10416e-06
-2.14686e-06
-2.19044e-06
-2.2349e-06
-2.28026e-06
-2.32655e-06
-2.37377e-06
-2.42195e-06
-2.47111e-06
-2.52127e-06
-2.57244e-06
-2.62465e-06
-2.67793e-06
-2.73228e-06
-2.78774e-06
-2.84432e-06
-2.90206e-06
-2.96096e-06
-3.02106e-06
-3.08238e-06
-3.14494e-06
-3.20878e-06
-3.27391e-06
-3.34036e-06
-3.40816e-06
-3.47734e-06
-3.54792e-06
-3.61993e-06
-3.69341e-06
-3.76837e-06
-3.84486e-06
-3.9229e-06
)
;
    }
    inandouthalf32
    {
        type            cyclic;
        value           nonuniform List<scalar> 
110
(
2.9462e-07
3.04551e-07
3.14727e-07
3.25151e-07
3.35821e-07
3.46739e-07
3.57903e-07
3.69312e-07
3.80966e-07
3.92863e-07
4.05e-07
4.17373e-07
4.29979e-07
4.42812e-07
4.55867e-07
4.69136e-07
4.82612e-07
4.9629e-07
5.10163e-07
5.24224e-07
5.38471e-07
5.52899e-07
5.67508e-07
5.82294e-07
5.97257e-07
6.12395e-07
6.27707e-07
6.4319e-07
6.58839e-07
6.74653e-07
6.90623e-07
7.06741e-07
7.2299e-07
7.39353e-07
7.55787e-07
7.72249e-07
7.89117e-07
9.64674e-07
9.89892e-07
1.01421e-06
1.03837e-06
1.06241e-06
1.08628e-06
1.11003e-06
1.13362e-06
1.15714e-06
1.1806e-06
1.20394e-06
1.22745e-06
1.25056e-06
1.27431e-06
1.29509e-06
1.31532e-06
1.33892e-06
1.3628e-06
1.38696e-06
1.41133e-06
1.43595e-06
1.46084e-06
1.48605e-06
1.51159e-06
1.53752e-06
1.56386e-06
1.59068e-06
1.61803e-06
1.64596e-06
1.67456e-06
1.70389e-06
1.73407e-06
1.7652e-06
1.79741e-06
1.83083e-06
1.86589e-06
1.90307e-06
1.94165e-06
1.98106e-06
2.02127e-06
2.0623e-06
2.10416e-06
2.14686e-06
2.19044e-06
2.2349e-06
2.28026e-06
2.32655e-06
2.37377e-06
2.42195e-06
2.47111e-06
2.52127e-06
2.57244e-06
2.62465e-06
2.67793e-06
2.73228e-06
2.78774e-06
2.84432e-06
2.90206e-06
2.96096e-06
3.02106e-06
3.08238e-06
3.14494e-06
3.20878e-06
3.27391e-06
3.34036e-06
3.40816e-06
3.47734e-06
3.54792e-06
3.61993e-06
3.69341e-06
3.76837e-06
3.84486e-06
3.9229e-06
)
;
    }
    inandouthalf41
    {
        type            cyclic;
        value           nonuniform List<scalar> 
50
(
-3.51139e-06
-3.51139e-06
-3.51139e-06
-3.51139e-06
-3.51139e-06
-3.51139e-06
-3.51139e-06
-3.51139e-06
-3.51139e-06
-3.51139e-06
-3.51139e-06
-3.51139e-06
-3.51139e-06
-3.51139e-06
-3.51139e-06
-3.51139e-06
-3.51139e-06
-3.51139e-06
-3.51139e-06
-3.51139e-06
-3.51139e-06
-3.51139e-06
-3.51139e-06
-3.51139e-06
-3.51139e-06
-3.51139e-06
-3.51139e-06
-3.51139e-06
-3.51139e-06
-3.51139e-06
-3.51139e-06
-3.51139e-06
-3.51139e-06
-3.51139e-06
-3.51139e-06
-3.51139e-06
-3.51139e-06
-3.51139e-06
-3.51139e-06
-3.51139e-06
-3.51139e-06
-3.51139e-06
-3.51139e-06
-3.51139e-06
-3.51139e-06
-3.51139e-06
-3.5114e-06
-3.51141e-06
-3.51169e-06
-3.51829e-06
)
;
    }
    inandouthalf42
    {
        type            cyclic;
        value           nonuniform List<scalar> 
50
(
3.51139e-06
3.51139e-06
3.51139e-06
3.51139e-06
3.51139e-06
3.51139e-06
3.51139e-06
3.51139e-06
3.51139e-06
3.51139e-06
3.51139e-06
3.51139e-06
3.51139e-06
3.51139e-06
3.51139e-06
3.51139e-06
3.51139e-06
3.51139e-06
3.51139e-06
3.51139e-06
3.51139e-06
3.51139e-06
3.51139e-06
3.51139e-06
3.51139e-06
3.51139e-06
3.51139e-06
3.51139e-06
3.51139e-06
3.51139e-06
3.51139e-06
3.51139e-06
3.51139e-06
3.51139e-06
3.51139e-06
3.51139e-06
3.51139e-06
3.51139e-06
3.51139e-06
3.51139e-06
3.51139e-06
3.51139e-06
3.51139e-06
3.51139e-06
3.51139e-06
3.51139e-06
3.5114e-06
3.51141e-06
3.51169e-06
3.51829e-06
)
;
    }
    top
    {
        type            symmetryPlane;
        value           uniform 0;
    }
    walls
    {
        type            fixedValue;
        value           uniform 0;
    }
    frontAndBackPlanes
    {
        type            empty;
        value           nonuniform 0();
    }
}


// ************************************************************************* //
