/*--------------------------------*- C++ -*----------------------------------*\
| =========                 |                                                 |
| \\      /  F ield         | OpenFOAM: The Open Source CFD Toolbox           |
|  \\    /   O peration     | Version:  2.4.x                                 |
|   \\  /    A nd           | Web:      www.OpenFOAM.org                      |
|    \\/     M anipulation  |                                                 |
\*---------------------------------------------------------------------------*/
FoamFile
{
    version     2.0;
    format      ascii;
    class       surfaceScalarField;
    location    "10.35";
    object      phib_0;
}
// * * * * * * * * * * * * * * * * * * * * * * * * * * * * * * * * * * * * * //

dimensions      [0 3 -1 0 0 0 0];

internalField   nonuniform List<scalar> 
359
(
4.67324e-14
1.16464e-13
1.78797e-13
2.36272e-13
2.93297e-13
3.4964e-13
4.04474e-13
4.57731e-13
5.09648e-13
5.60489e-13
6.10447e-13
6.59657e-13
7.08249e-13
7.56343e-13
8.04063e-13
8.51532e-13
8.98864e-13
9.46159e-13
9.93507e-13
1.041e-12
1.08871e-12
1.13672e-12
1.18509e-12
1.23387e-12
1.28313e-12
1.3329e-12
1.38323e-12
1.43415e-12
1.4857e-12
1.53788e-12
1.59074e-12
1.64428e-12
1.6985e-12
1.75344e-12
1.80908e-12
1.86543e-12
1.92248e-12
1.98024e-12
2.03872e-12
2.09786e-12
2.15771e-12
2.21823e-12
2.27939e-12
2.34121e-12
2.40367e-12
2.46674e-12
2.53041e-12
2.59464e-12
2.65943e-12
2.72478e-12
2.79063e-12
2.85699e-12
2.92381e-12
2.99109e-12
3.05878e-12
3.12689e-12
3.19536e-12
3.26418e-12
3.33333e-12
3.40273e-12
3.47243e-12
3.54235e-12
3.6125e-12
3.68284e-12
3.75333e-12
3.82394e-12
3.89465e-12
3.96542e-12
4.03622e-12
4.10699e-12
4.17774e-12
4.24845e-12
4.31906e-12
4.38956e-12
4.45991e-12
4.53012e-12
4.60011e-12
4.66984e-12
4.7393e-12
4.80845e-12
4.87724e-12
4.94567e-12
5.01371e-12
5.08133e-12
5.14852e-12
5.21524e-12
5.28147e-12
5.34717e-12
5.4123e-12
5.47683e-12
5.54073e-12
5.60397e-12
5.66655e-12
5.72843e-12
5.78961e-12
5.85007e-12
5.90979e-12
5.96876e-12
6.02695e-12
6.08435e-12
6.14094e-12
6.19671e-12
6.25165e-12
6.30576e-12
6.35903e-12
6.41148e-12
6.4631e-12
6.5139e-12
6.5639e-12
6.61312e-12
6.66157e-12
6.7093e-12
6.75632e-12
6.80267e-12
6.8484e-12
6.89353e-12
6.93809e-12
6.98208e-12
7.02548e-12
7.06824e-12
7.11026e-12
7.15139e-12
7.19146e-12
7.23025e-12
7.26756e-12
7.30323e-12
7.33723e-12
7.36966e-12
7.40083e-12
7.43129e-12
7.46181e-12
7.49336e-12
7.5271e-12
7.56408e-12
7.60465e-12
7.64708e-12
7.68636e-12
7.71521e-12
7.72833e-12
7.72698e-12
7.71726e-12
7.66031e-12
1.40924e-11
2.48205e-11
3.69047e-11
5.22663e-11
7.34433e-11
1.06866e-10
1.97214e-10
4.15008e-09
2.8418e-09
2.08542e-09
1.77956e-09
1.56818e-09
1.39747e-09
1.25441e-09
1.13156e-09
1.02432e-09
9.29633e-10
8.45352e-10
7.6987e-10
7.01949e-10
6.40606e-10
5.85036e-10
5.34574e-10
4.88654e-10
4.46797e-10
4.08584e-10
3.73656e-10
3.41696e-10
3.12424e-10
2.85593e-10
2.60985e-10
2.38403e-10
2.17672e-10
1.98635e-10
1.8115e-10
1.65089e-10
1.50335e-10
1.36784e-10
1.2434e-10
1.12916e-10
1.02431e-10
9.28129e-11
8.3995e-11
7.59156e-11
6.85185e-11
6.17517e-11
5.55676e-11
4.9922e-11
4.47744e-11
4.00873e-11
3.58262e-11
3.19591e-11
2.84567e-11
2.52918e-11
2.2439e-11
1.98747e-11
1.75768e-11
1.55238e-11
1.3695e-11
1.20393e-11
1.05466e-11
9.2055e-12
8.00309e-12
6.92566e-12
5.9596e-12
5.09231e-12
4.31307e-12
3.61338e-12
2.98673e-12
2.4282e-12
1.934e-12
1.50131e-12
1.12797e-12
8.12249e-13
5.52295e-13
3.45519e-13
1.87959e-13
7.39879e-14
-3.44862e-15
-5.20807e-14
-7.93962e-14
-9.18635e-14
-9.46047e-14
-9.13092e-14
-8.46062e-14
-7.60443e-14
-6.6902e-14
-5.75185e-14
-4.8758e-14
-4.02452e-14
-3.29194e-14
-2.57353e-14
-2.04033e-14
-1.39067e-14
-1.31105e-14
-1.40186e-14
-1.08542e-14
-7.64921e-15
-4.88437e-15
-2.78362e-15
-1.44745e-15
-5.50449e-16
-1.5838e-16
8.68757e-17
1.57681e-16
1.63536e-16
1.28083e-16
8.28229e-17
8.33867e-17
2.80122e-17
3.10436e-18
2.85796e-18
2.61933e-18
2.38482e-18
2.15968e-18
1.93736e-18
1.72559e-18
1.51782e-18
1.32091e-18
1.12767e-18
9.46535e-19
7.68732e-19
6.0051e-19
4.37584e-19
2.85944e-19
1.44371e-19
1.16864e-20
-1.10454e-19
-2.20686e-19
-3.21209e-19
-4.22402e-19
-5.10804e-19
-5.87466e-19
-6.44763e-19
-7.0248e-19
-7.38414e-19
-7.67663e-19
-7.8088e-19
-8.24722e-19
-8.51051e-19
-8.73378e-19
-8.6627e-19
-8.73468e-19
-8.48059e-19
-7.56086e-19
-6.95703e-19
-6.70688e-19
-6.19453e-19
-5.66403e-19
-4.83199e-19
-4.19572e-19
-3.33667e-19
-2.52813e-19
-1.66482e-19
-2.68742e-19
-2.69837e-19
-2.81169e-19
-2.28148e-19
-2.45741e-19
-2.52087e-19
-2.59733e-19
-2.57882e-19
-2.76737e-19
-2.85827e-19
-2.9604e-19
-2.93236e-19
-3.01143e-19
-2.96593e-19
-2.93002e-19
-2.82276e-19
-2.93588e-19
-2.97453e-19
-3.0317e-19
-2.99992e-19
-3.04227e-19
-2.99491e-19
-2.95746e-19
-2.84611e-19
-2.92499e-19
-2.92751e-19
-2.94278e-19
-2.87462e-19
-2.9974e-19
-3.03948e-19
-3.25662e-19
-3.57667e-19
-5.89157e-19
-8.16352e-19
-1.05941e-18
-1.25862e-18
-1.50947e-18
-1.69397e-18
-1.88119e-18
-2.0007e-18
-2.24113e-18
-2.40288e-18
-2.56535e-18
-2.63447e-18
-2.77634e-18
-2.828e-18
-2.88898e-18
-2.88528e-18
-3.09155e-18
-3.24163e-18
-3.40366e-18
-3.49664e-18
-3.6494e-18
-3.72926e-18
-3.82754e-18
-4.04998e-18
-4.07086e-18
-4.17189e-18
-4.29655e-18
-4.81709e-18
-4.33678e-18
-5.59606e-18
-8.30778e-18
)
;

boundaryField
{
    inandouthalf11
    {
        type            cyclic;
        value           nonuniform List<scalar> 
100
(
2.77744e-10
2.76204e-10
2.75995e-10
2.76205e-10
2.76305e-10
2.76337e-10
2.76378e-10
2.76431e-10
2.76484e-10
2.76538e-10
2.76593e-10
2.76647e-10
2.76702e-10
2.76757e-10
2.76813e-10
2.7687e-10
2.76927e-10
2.76984e-10
2.77042e-10
2.77101e-10
2.7716e-10
2.7722e-10
2.77281e-10
2.77342e-10
2.77404e-10
2.77466e-10
2.77529e-10
2.77593e-10
2.77658e-10
2.77723e-10
2.77789e-10
2.77856e-10
2.77923e-10
2.77991e-10
2.7806e-10
2.7813e-10
2.782e-10
2.78271e-10
2.78344e-10
2.78416e-10
2.7849e-10
2.78564e-10
2.78639e-10
2.78716e-10
2.78793e-10
2.78871e-10
2.7895e-10
2.79029e-10
2.7911e-10
2.79192e-10
2.79274e-10
2.79358e-10
2.79442e-10
2.79528e-10
2.79614e-10
2.79703e-10
2.79791e-10
2.79881e-10
2.79972e-10
2.80064e-10
2.80158e-10
2.80252e-10
2.80348e-10
2.80445e-10
2.80544e-10
2.80643e-10
2.80744e-10
2.80847e-10
2.8095e-10
2.81055e-10
2.81162e-10
2.81271e-10
2.8138e-10
2.81492e-10
2.81605e-10
2.8172e-10
2.81836e-10
2.81954e-10
2.82074e-10
2.82196e-10
2.8232e-10
2.82446e-10
2.82574e-10
2.82704e-10
2.82836e-10
2.82971e-10
2.83107e-10
2.83247e-10
2.83388e-10
2.83532e-10
2.83679e-10
2.83828e-10
2.83981e-10
2.84136e-10
2.84294e-10
2.84456e-10
2.8462e-10
2.84788e-10
2.8496e-10
2.85135e-10
)
;
    }
    inandouthalf12
    {
        type            cyclic;
        value           nonuniform List<scalar> 
100
(
-2.77744e-10
-2.76204e-10
-2.75995e-10
-2.76205e-10
-2.76305e-10
-2.76337e-10
-2.76378e-10
-2.76431e-10
-2.76484e-10
-2.76538e-10
-2.76593e-10
-2.76647e-10
-2.76702e-10
-2.76757e-10
-2.76813e-10
-2.7687e-10
-2.76927e-10
-2.76984e-10
-2.77042e-10
-2.77101e-10
-2.7716e-10
-2.7722e-10
-2.77281e-10
-2.77342e-10
-2.77404e-10
-2.77466e-10
-2.77529e-10
-2.77593e-10
-2.77658e-10
-2.77723e-10
-2.77789e-10
-2.77856e-10
-2.77923e-10
-2.77991e-10
-2.7806e-10
-2.7813e-10
-2.782e-10
-2.78271e-10
-2.78344e-10
-2.78416e-10
-2.7849e-10
-2.78564e-10
-2.78639e-10
-2.78716e-10
-2.78793e-10
-2.78871e-10
-2.7895e-10
-2.79029e-10
-2.7911e-10
-2.79192e-10
-2.79274e-10
-2.79358e-10
-2.79442e-10
-2.79528e-10
-2.79614e-10
-2.79703e-10
-2.79791e-10
-2.79881e-10
-2.79972e-10
-2.80064e-10
-2.80158e-10
-2.80252e-10
-2.80348e-10
-2.80445e-10
-2.80544e-10
-2.80643e-10
-2.80744e-10
-2.80847e-10
-2.8095e-10
-2.81055e-10
-2.81162e-10
-2.81271e-10
-2.8138e-10
-2.81492e-10
-2.81605e-10
-2.8172e-10
-2.81836e-10
-2.81954e-10
-2.82074e-10
-2.82196e-10
-2.8232e-10
-2.82446e-10
-2.82574e-10
-2.82704e-10
-2.82836e-10
-2.82971e-10
-2.83107e-10
-2.83247e-10
-2.83388e-10
-2.83532e-10
-2.83679e-10
-2.83828e-10
-2.83981e-10
-2.84136e-10
-2.84294e-10
-2.84456e-10
-2.8462e-10
-2.84788e-10
-2.8496e-10
-2.85135e-10
)
;
    }
    inandouthalf21
    {
        type            cyclic;
        value           nonuniform List<scalar> 
100
(
2.85313e-10
2.85496e-10
2.85683e-10
2.85874e-10
2.86069e-10
2.86269e-10
2.86474e-10
2.86684e-10
2.86898e-10
2.87119e-10
2.87344e-10
2.87576e-10
2.87814e-10
2.88058e-10
2.88309e-10
2.88567e-10
2.88832e-10
2.89105e-10
2.89386e-10
2.89675e-10
2.89974e-10
2.90282e-10
2.90601e-10
2.9093e-10
2.91271e-10
2.91624e-10
2.9199e-10
2.9237e-10
2.92766e-10
2.93178e-10
2.93608e-10
2.94056e-10
2.94524e-10
2.95017e-10
2.95541e-10
2.96097e-10
2.96684e-10
2.9731e-10
2.98007e-10
2.98809e-10
2.9968e-10
3.00694e-10
3.08659e-10
3.08965e-10
3.11844e-10
3.16094e-10
3.2133e-10
3.28886e-10
3.49727e-10
2.52925e-09
1.06007e-08
3.7999e-09
-4.22798e-09
-1.23103e-08
-2.03303e-08
-2.82563e-08
-3.60747e-08
-4.37789e-08
-5.13661e-08
-5.88356e-08
-6.61881e-08
-7.34251e-08
-8.05487e-08
-8.75615e-08
-9.44662e-08
-1.01266e-07
-1.07963e-07
-1.1456e-07
-1.21061e-07
-1.27468e-07
-1.33784e-07
-1.40012e-07
-1.46153e-07
-1.52211e-07
-1.58188e-07
-1.64086e-07
-1.69906e-07
-1.75652e-07
-1.81325e-07
-1.86926e-07
-1.92457e-07
-1.97921e-07
-2.03318e-07
-2.08649e-07
-2.13917e-07
-2.19122e-07
-2.24265e-07
-2.29348e-07
-2.34372e-07
-2.39337e-07
-2.44244e-07
-2.49095e-07
-2.53889e-07
-2.58629e-07
-2.63314e-07
-2.67945e-07
-2.72522e-07
-2.77047e-07
-2.81519e-07
-2.8594e-07
)
;
    }
    inandouthalf22
    {
        type            cyclic;
        value           nonuniform List<scalar> 
100
(
-2.85313e-10
-2.85496e-10
-2.85683e-10
-2.85874e-10
-2.86069e-10
-2.86269e-10
-2.86474e-10
-2.86684e-10
-2.86898e-10
-2.87119e-10
-2.87344e-10
-2.87576e-10
-2.87814e-10
-2.88058e-10
-2.88309e-10
-2.88567e-10
-2.88832e-10
-2.89105e-10
-2.89386e-10
-2.89675e-10
-2.89974e-10
-2.90282e-10
-2.90601e-10
-2.9093e-10
-2.91271e-10
-2.91624e-10
-2.9199e-10
-2.9237e-10
-2.92766e-10
-2.93178e-10
-2.93608e-10
-2.94056e-10
-2.94524e-10
-2.95017e-10
-2.95541e-10
-2.96097e-10
-2.96684e-10
-2.9731e-10
-2.98007e-10
-2.98809e-10
-2.9968e-10
-3.00694e-10
-3.08659e-10
-3.08965e-10
-3.11844e-10
-3.16094e-10
-3.2133e-10
-3.28886e-10
-3.49727e-10
-2.52925e-09
-1.06007e-08
-3.7999e-09
4.22798e-09
1.23103e-08
2.03303e-08
2.82563e-08
3.60747e-08
4.37789e-08
5.13661e-08
5.88356e-08
6.61881e-08
7.34251e-08
8.05487e-08
8.75615e-08
9.44662e-08
1.01266e-07
1.07963e-07
1.1456e-07
1.21061e-07
1.27468e-07
1.33784e-07
1.40012e-07
1.46153e-07
1.52211e-07
1.58188e-07
1.64086e-07
1.69906e-07
1.75652e-07
1.81325e-07
1.86926e-07
1.92457e-07
1.97921e-07
2.03318e-07
2.08649e-07
2.13917e-07
2.19122e-07
2.24265e-07
2.29348e-07
2.34372e-07
2.39337e-07
2.44244e-07
2.49095e-07
2.53889e-07
2.58629e-07
2.63314e-07
2.67945e-07
2.72522e-07
2.77047e-07
2.81519e-07
2.8594e-07
)
;
    }
    inandouthalf31
    {
        type            cyclic;
        value           nonuniform List<scalar> 
110
(
-2.9031e-07
-3.00652e-07
-3.11333e-07
-3.2236e-07
-3.33744e-07
-3.45495e-07
-3.57623e-07
-3.70137e-07
-3.83047e-07
-3.96364e-07
-4.10097e-07
-4.24255e-07
-4.38849e-07
-4.53887e-07
-4.69378e-07
-4.8533e-07
-5.0175e-07
-5.18645e-07
-5.36022e-07
-5.53884e-07
-5.72235e-07
-5.91077e-07
-6.10409e-07
-6.30229e-07
-6.50531e-07
-6.71308e-07
-6.92548e-07
-7.14236e-07
-7.36351e-07
-7.58869e-07
-7.81759e-07
-8.04986e-07
-8.28506e-07
-8.52273e-07
-8.7623e-07
-9.00322e-07
-9.24488e-07
-9.48667e-07
-9.72801e-07
-9.96841e-07
-1.02075e-06
-1.04451e-06
-1.0681e-06
-1.09155e-06
-1.11486e-06
-1.13807e-06
-1.16121e-06
-1.18432e-06
-1.20742e-06
-1.23057e-06
-1.25377e-06
-1.27706e-06
-1.30047e-06
-1.32401e-06
-1.34772e-06
-1.37161e-06
-1.3957e-06
-1.42004e-06
-1.44464e-06
-1.46953e-06
-1.49474e-06
-1.52033e-06
-1.54632e-06
-1.57277e-06
-1.59972e-06
-1.62725e-06
-1.65542e-06
-1.68432e-06
-1.71403e-06
-1.74466e-06
-1.77636e-06
-1.80927e-06
-1.84364e-06
-1.88019e-06
-1.91829e-06
-1.95722e-06
-1.99695e-06
-2.03748e-06
-2.07883e-06
-2.12103e-06
-2.16408e-06
-2.20801e-06
-2.25282e-06
-2.29855e-06
-2.3452e-06
-2.3928e-06
-2.44137e-06
-2.49093e-06
-2.54148e-06
-2.59307e-06
-2.6457e-06
-2.6994e-06
-2.75419e-06
-2.8101e-06
-2.86713e-06
-2.92533e-06
-2.98471e-06
-3.04529e-06
-3.1071e-06
-3.17016e-06
-3.23451e-06
-3.30016e-06
-3.36715e-06
-3.43549e-06
-3.50522e-06
-3.57637e-06
-3.64896e-06
-3.72302e-06
-3.79859e-06
-3.87569e-06
)
;
    }
    inandouthalf32
    {
        type            cyclic;
        value           nonuniform List<scalar> 
110
(
2.9031e-07
3.00652e-07
3.11333e-07
3.2236e-07
3.33744e-07
3.45495e-07
3.57623e-07
3.70137e-07
3.83047e-07
3.96364e-07
4.10097e-07
4.24255e-07
4.38849e-07
4.53887e-07
4.69378e-07
4.8533e-07
5.0175e-07
5.18645e-07
5.36022e-07
5.53884e-07
5.72235e-07
5.91077e-07
6.10409e-07
6.30229e-07
6.50531e-07
6.71308e-07
6.92548e-07
7.14236e-07
7.36351e-07
7.58869e-07
7.81759e-07
8.04986e-07
8.28506e-07
8.52273e-07
8.7623e-07
9.00322e-07
9.24488e-07
9.48667e-07
9.72801e-07
9.96841e-07
1.02075e-06
1.04451e-06
1.0681e-06
1.09155e-06
1.11486e-06
1.13807e-06
1.16121e-06
1.18432e-06
1.20742e-06
1.23057e-06
1.25377e-06
1.27706e-06
1.30047e-06
1.32401e-06
1.34772e-06
1.37161e-06
1.3957e-06
1.42004e-06
1.44464e-06
1.46953e-06
1.49474e-06
1.52033e-06
1.54632e-06
1.57277e-06
1.59972e-06
1.62725e-06
1.65542e-06
1.68432e-06
1.71403e-06
1.74466e-06
1.77636e-06
1.80927e-06
1.84364e-06
1.88019e-06
1.91829e-06
1.95722e-06
1.99695e-06
2.03748e-06
2.07883e-06
2.12103e-06
2.16408e-06
2.20801e-06
2.25282e-06
2.29855e-06
2.3452e-06
2.3928e-06
2.44137e-06
2.49093e-06
2.54148e-06
2.59307e-06
2.6457e-06
2.6994e-06
2.75419e-06
2.8101e-06
2.86713e-06
2.92533e-06
2.98471e-06
3.04529e-06
3.1071e-06
3.17016e-06
3.23451e-06
3.30016e-06
3.36715e-06
3.43549e-06
3.50522e-06
3.57637e-06
3.64896e-06
3.72302e-06
3.79859e-06
3.87569e-06
)
;
    }
    inandouthalf41
    {
        type            cyclic;
        value           nonuniform List<scalar> 
50
(
-3.46914e-06
-3.46914e-06
-3.46914e-06
-3.46914e-06
-3.46914e-06
-3.46914e-06
-3.46914e-06
-3.46914e-06
-3.46914e-06
-3.46914e-06
-3.46914e-06
-3.46914e-06
-3.46914e-06
-3.46914e-06
-3.46914e-06
-3.46914e-06
-3.46914e-06
-3.46914e-06
-3.46914e-06
-3.46914e-06
-3.46914e-06
-3.46914e-06
-3.46914e-06
-3.46914e-06
-3.46914e-06
-3.46914e-06
-3.46914e-06
-3.46914e-06
-3.46914e-06
-3.46914e-06
-3.46914e-06
-3.46914e-06
-3.46914e-06
-3.46914e-06
-3.46914e-06
-3.46914e-06
-3.46914e-06
-3.46914e-06
-3.46914e-06
-3.46914e-06
-3.46914e-06
-3.46914e-06
-3.46914e-06
-3.46914e-06
-3.46914e-06
-3.46914e-06
-3.46914e-06
-3.46914e-06
-3.46914e-06
-3.46914e-06
)
;
    }
    inandouthalf42
    {
        type            cyclic;
        value           nonuniform List<scalar> 
50
(
3.46914e-06
3.46914e-06
3.46914e-06
3.46914e-06
3.46914e-06
3.46914e-06
3.46914e-06
3.46914e-06
3.46914e-06
3.46914e-06
3.46914e-06
3.46914e-06
3.46914e-06
3.46914e-06
3.46914e-06
3.46914e-06
3.46914e-06
3.46914e-06
3.46914e-06
3.46914e-06
3.46914e-06
3.46914e-06
3.46914e-06
3.46914e-06
3.46914e-06
3.46914e-06
3.46914e-06
3.46914e-06
3.46914e-06
3.46914e-06
3.46914e-06
3.46914e-06
3.46914e-06
3.46914e-06
3.46914e-06
3.46914e-06
3.46914e-06
3.46914e-06
3.46914e-06
3.46914e-06
3.46914e-06
3.46914e-06
3.46914e-06
3.46914e-06
3.46914e-06
3.46914e-06
3.46914e-06
3.46914e-06
3.46914e-06
3.46914e-06
)
;
    }
    top
    {
        type            symmetryPlane;
        value           uniform 0;
    }
    walls
    {
        type            fixedValue;
        value           uniform 0;
    }
    frontAndBackPlanes
    {
        type            empty;
        value           nonuniform 0();
    }
}


// ************************************************************************* //
