/*--------------------------------*- C++ -*----------------------------------*\
| =========                 |                                                 |
| \\      /  F ield         | OpenFOAM: The Open Source CFD Toolbox           |
|  \\    /   O peration     | Version:  2.4.x                                 |
|   \\  /    A nd           | Web:      www.OpenFOAM.org                      |
|    \\/     M anipulation  |                                                 |
\*---------------------------------------------------------------------------*/
FoamFile
{
    version     2.0;
    format      ascii;
    class       volVectorField;
    location    "10.35";
    object      U;
}
// * * * * * * * * * * * * * * * * * * * * * * * * * * * * * * * * * * * * * //

dimensions      [0 1 -1 0 0 0 0];

internalField   nonuniform List<vector> 
360
(
(-0.000108074 2.23835e-09 0)
(-0.000107237 -4.99936e-10 0)
(-0.000107132 -4.37815e-10 0)
(-0.000107239 -2.60436e-11 0)
(-0.00010729 2.67214e-11 0)
(-0.000107308 -2.81468e-11 0)
(-0.000107329 -4.39831e-11 0)
(-0.000107357 -3.6307e-11 0)
(-0.000107384 -2.83923e-11 0)
(-0.000107412 -2.30556e-11 0)
(-0.000107441 -1.90895e-11 0)
(-0.000107469 -1.59664e-11 0)
(-0.000107497 -1.29617e-11 0)
(-0.000107526 -9.92931e-12 0)
(-0.000107555 -6.85872e-12 0)
(-0.000107584 -3.90069e-12 0)
(-0.000107614 -1.2404e-12 0)
(-0.000107643 1.1681e-12 0)
(-0.000107673 3.36156e-12 0)
(-0.000107704 5.49818e-12 0)
(-0.000107734 7.2537e-12 0)
(-0.000107765 9.09217e-12 0)
(-0.000107797 1.06951e-11 0)
(-0.000107828 1.20674e-11 0)
(-0.00010786 1.33004e-11 0)
(-0.000107892 1.43944e-11 0)
(-0.000107925 1.53261e-11 0)
(-0.000107958 1.62937e-11 0)
(-0.000107991 1.69375e-11 0)
(-0.000108025 1.74862e-11 0)
(-0.000108059 1.79139e-11 0)
(-0.000108094 1.85442e-11 0)
(-0.000108128 1.84807e-11 0)
(-0.000108163 1.91577e-11 0)
(-0.000108199 1.8915e-11 0)
(-0.000108235 1.90888e-11 0)
(-0.000108271 1.90691e-11 0)
(-0.000108308 1.90742e-11 0)
(-0.000108345 1.92261e-11 0)
(-0.000108382 1.84506e-11 0)
(-0.000108421 1.88128e-11 0)
(-0.000108459 1.84636e-11 0)
(-0.000108497 1.77097e-11 0)
(-0.000108537 1.81414e-11 0)
(-0.000108577 1.75229e-11 0)
(-0.000108617 1.7033e-11 0)
(-0.000108658 1.67777e-11 0)
(-0.000108698 1.58158e-11 0)
(-0.00010874 1.58192e-11 0)
(-0.000108782 1.59913e-11 0)
(-0.000108824 1.44644e-11 0)
(-0.000108868 1.44704e-11 0)
(-0.000108911 1.37462e-11 0)
(-0.000108955 1.36101e-11 0)
(-0.000109 1.23462e-11 0)
(-0.000109045 1.27623e-11 0)
(-0.00010909 1.12175e-11 0)
(-0.000109137 1.10315e-11 0)
(-0.000109184 1.03057e-11 0)
(-0.000109231 8.92878e-12 0)
(-0.000109279 9.77706e-12 0)
(-0.000109327 8.21436e-12 0)
(-0.000109377 8.2535e-12 0)
(-0.000109427 7.11404e-12 0)
(-0.000109477 6.51245e-12 0)
(-0.000109528 5.58706e-12 0)
(-0.00010958 5.11594e-12 0)
(-0.000109633 4.23417e-12 0)
(-0.000109686 3.37293e-12 0)
(-0.00010974 2.21009e-12 0)
(-0.000109794 2.40107e-12 0)
(-0.00010985 2.16573e-12 0)
(-0.000109906 -3.77852e-14 0)
(-0.000109963 5.63517e-13 0)
(-0.000110021 -5.29509e-13 0)
(-0.00011008 -8.09175e-13 0)
(-0.00011014 -2.48025e-12 0)
(-0.0001102 -3.29649e-12 0)
(-0.000110262 -3.91572e-12 0)
(-0.000110324 -4.52812e-12 0)
(-0.000110387 -5.59817e-12 0)
(-0.000110452 -5.96745e-12 0)
(-0.000110517 -6.35143e-12 0)
(-0.000110584 -7.02019e-12 0)
(-0.000110651 -7.56081e-12 0)
(-0.00011072 -8.39096e-12 0)
(-0.00011079 -9.09254e-12 0)
(-0.000110861 -1.00996e-11 0)
(-0.000110934 -1.10364e-11 0)
(-0.000111007 -1.17547e-11 0)
(-0.000111082 -1.24156e-11 0)
(-0.000111159 -1.3029e-11 0)
(-0.000111237 -1.34057e-11 0)
(-0.000111316 -1.37914e-11 0)
(-0.000111397 -1.42177e-11 0)
(-0.000111479 -1.46718e-11 0)
(-0.000111563 -1.5167e-11 0)
(-0.000111649 -1.56981e-11 0)
(-0.000111737 -1.62185e-11 0)
(-0.000111826 -1.66728e-11 0)
(-0.000111918 -1.70628e-11 0)
(-0.000112011 -1.73721e-11 0)
(-0.000112107 -1.75864e-11 0)
(-0.000112204 -1.77308e-11 0)
(-0.000112304 -1.78132e-11 0)
(-0.000112406 -1.78239e-11 0)
(-0.000112511 -1.77565e-11 0)
(-0.000112618 -1.75974e-11 0)
(-0.000112728 -1.73294e-11 0)
(-0.000112841 -1.69428e-11 0)
(-0.000112956 -1.64366e-11 0)
(-0.000113075 -1.58204e-11 0)
(-0.000113196 -1.5123e-11 0)
(-0.000113321 -1.4397e-11 0)
(-0.000113449 -1.37254e-11 0)
(-0.000113581 -1.32297e-11 0)
(-0.000113717 -1.30721e-11 0)
(-0.000113857 -1.34526e-11 0)
(-0.000114001 -1.45949e-11 0)
(-0.000114149 -1.67181e-11 0)
(-0.000114302 -1.99828e-11 0)
(-0.00011446 -2.44096e-11 0)
(-0.000114623 -2.97752e-11 0)
(-0.000114792 -3.5514e-11 0)
(-0.000114966 -4.06755e-11 0)
(-0.000115147 -4.39968e-11 0)
(-0.000115335 -4.41058e-11 0)
(-0.00011553 -3.97766e-11 0)
(-0.000115733 -3.0094e-11 0)
(-0.000115945 -1.45392e-11 0)
(-0.000116166 6.77091e-12 0)
(-0.000116396 3.2392e-11 0)
(-0.000116636 5.8803e-11 0)
(-0.000116889 7.82305e-11 0)
(-0.000117159 6.96761e-11 0)
(-0.000117444 -7.96619e-12 0)
(-0.000117746 -1.80263e-10 0)
(-0.000118068 -3.89928e-10 0)
(-0.000118427 -4.85787e-10 0)
(-0.000118841 -3.29045e-10 0)
(-0.000119292 -5.26872e-11 0)
(-0.000119817 -2.83882e-08 0)
(-0.00012396 3.04951e-07 0)
(-0.000124566 4.14173e-09 0)
(-0.000126707 -2.19258e-08 0)
(-0.00012968 8.80839e-08 0)
(-0.000133456 -5.19816e-07 0)
(-0.000139094 5.70153e-06 0)
(-0.000153747 -2.25115e-05 0)
(-0.00165008 0.00010549 0)
(-0.0102297 0.00046291 0)
(-0.00373486 -0.000183685 0)
(0.00424064 6.40959e-05 0)
(0.0122873 6.3392e-06 0)
(0.02028 2.83918e-07 0)
(0.0281839 3.07314e-07 0)
(0.0359837 4.89886e-07 0)
(0.0436722 3.08452e-07 0)
(0.0512458 1.40282e-07 0)
(0.0587033 5.5143e-08 0)
(0.0660452 1.4904e-08 0)
(0.0732727 -7.2952e-09 0)
(0.0803878 -2.06168e-08 0)
(0.0873929 -2.83368e-08 0)
(0.0942905 -3.23686e-08 0)
(0.101083 -3.41405e-08 0)
(0.107775 -3.44811e-08 0)
(0.114367 -3.39808e-08 0)
(0.120863 -3.2943e-08 0)
(0.127265 -3.16174e-08 0)
(0.133577 -3.01176e-08 0)
(0.1398 -2.85555e-08 0)
(0.145938 -2.69819e-08 0)
(0.151992 -2.54258e-08 0)
(0.157966 -2.39228e-08 0)
(0.163861 -2.24797e-08 0)
(0.169679 -2.11051e-08 0)
(0.175422 -1.97981e-08 0)
(0.181092 -1.85659e-08 0)
(0.186691 -1.74004e-08 0)
(0.19222 -1.63044e-08 0)
(0.197681 -1.52702e-08 0)
(0.203076 -1.42982e-08 0)
(0.208405 -1.33814e-08 0)
(0.213671 -1.25187e-08 0)
(0.218874 -1.17052e-08 0)
(0.224016 -1.09368e-08 0)
(0.229097 -1.02114e-08 0)
(0.234119 -9.52487e-09 0)
(0.239083 -8.87422e-09 0)
(0.243989 -8.25654e-09 0)
(0.248838 -7.66909e-09 0)
(0.253631 -7.1094e-09 0)
(0.258369 -6.57525e-09 0)
(0.263053 -6.06459e-09 0)
(0.267683 -5.57555e-09 0)
(0.272259 -5.10656e-09 0)
(0.276783 -4.65676e-09 0)
(0.281254 -4.227e-09 0)
(0.285673 -3.81918e-09 0)
(0.290041 -3.43234e-09 0)
(0.294402 -3.184e-09 0)
(0.298798 -2.96283e-09 0)
(0.30323 -2.74985e-09 0)
(0.307696 -2.55422e-09 0)
(0.312196 -2.38235e-09 0)
(0.316729 -2.2359e-09 0)
(0.321294 -2.1155e-09 0)
(0.32589 -2.02007e-09 0)
(0.330514 -1.944e-09 0)
(0.335166 -1.87841e-09 0)
(0.339843 -1.81479e-09 0)
(0.344543 -1.74659e-09 0)
(0.349263 -1.66866e-09 0)
(0.354001 -1.57672e-09 0)
(0.358754 -1.46778e-09 0)
(0.363516 -1.34196e-09 0)
(0.368285 -1.20358e-09 0)
(0.373056 -1.05968e-09 0)
(0.377822 -9.14358e-10 0)
(0.382578 -7.65311e-10 0)
(0.387317 -6.22302e-10 0)
(0.392031 -4.90733e-10 0)
(0.396711 -3.68431e-10 0)
(0.401348 -2.63064e-10 0)
(0.405931 -1.84372e-10 0)
(0.410446 -1.14752e-10 0)
(0.414882 -9.01473e-11 0)
(0.419222 -2.58752e-11 0)
(0.423451 -6.03559e-11 0)
(0.427549 3.68578e-11 0)
(0.431496 -6.89577e-11 0)
(0.435272 9.78929e-11 0)
(0.438854 -1.05713e-10 0)
(0.442217 1.29094e-10 0)
(0.44534 -3.02405e-11 0)
(0.448198 5.06133e-10 0)
(0.450774 -1.36826e-09 0)
(0.453048 5.35078e-10 0)
(0.455011 -2.85259e-10 0)
(0.456658 1.00108e-10 0)
(0.457992 -1.30849e-10 0)
(0.459023 1.92756e-10 0)
(0.459768 -1.72593e-10 0)
(0.460247 1.78444e-10 0)
(0.460482 -1.21424e-10 0)
(0.460499 1.0885e-10 0)
(0.46032 -7.98658e-11 0)
(0.459965 8.17728e-11 0)
(0.459455 -5.04623e-11 0)
(0.458806 5.18372e-11 0)
(0.458032 8.30015e-12 0)
(0.457148 3.17527e-12 0)
(0.456165 -2.13e-13 0)
(0.455095 3.25e-13 0)
(0.453948 6.21487e-13 0)
(0.452734 5.76197e-13 0)
(0.451463 4.9355e-13 0)
(0.450146 4.36744e-13 0)
(0.448792 3.88647e-13 0)
(0.447412 3.40377e-13 0)
(0.446016 2.95749e-13 0)
(0.444616 2.73773e-13 0)
(0.443223 2.44653e-13 0)
(0.441851 -7.55863e-14 0)
(0.440512 -1.40915e-12 0)
(0.439222 9.42141e-12 0)
(0.437997 -2.61741e-11 0)
(0.436856 5.44162e-11 0)
(0.435817 -9.49535e-11 0)
(0.434906 1.47945e-10 0)
(0.434152 -2.12382e-10 0)
(0.433598 2.85598e-10 0)
(0.433397 -3.65058e-10 0)
(0.433381 4.47445e-10 0)
(0.433381 -5.32292e-10 0)
(0.433381 6.18337e-10 0)
(0.433381 -7.06724e-10 0)
(0.433381 7.96334e-10 0)
(0.433381 -8.88498e-10 0)
(0.433381 9.8197e-10 0)
(0.433381 -1.07816e-09 0)
(0.433381 1.17572e-09 0)
(0.433381 -1.27616e-09 0)
(0.433381 1.37803e-09 0)
(0.433381 -1.48286e-09 0)
(0.433381 1.58923e-09 0)
(0.433381 -1.69856e-09 0)
(0.433381 1.80961e-09 0)
(0.433381 -1.92358e-09 0)
(0.433381 2.03938e-09 0)
(0.433381 -2.15806e-09 0)
(0.433381 2.27872e-09 0)
(0.433381 -2.40217e-09 0)
(0.433381 2.52772e-09 0)
(0.433381 -2.65597e-09 0)
(0.433381 2.78645e-09 0)
(0.433381 -2.91958e-09 0)
(0.433381 3.05488e-09 0)
(0.433381 -3.19285e-09 0)
(0.433381 3.33299e-09 0)
(0.433381 -3.47572e-09 0)
(0.433381 3.6206e-09 0)
(0.433381 -3.76802e-09 0)
(0.433381 3.91752e-09 0)
(0.433381 -4.0695e-09 0)
(0.433381 4.22345e-09 0)
(0.433381 -4.37979e-09 0)
(0.433381 4.53797e-09 0)
(0.433381 -4.69843e-09 0)
(0.433381 4.26831e-09 0)
(0.433381 -4.33391e-09 0)
(0.433381 4.39848e-09 0)
(0.433381 -4.46254e-09 0)
(0.433381 4.52555e-09 0)
(0.433381 -4.58807e-09 0)
(0.433381 4.64951e-09 0)
(0.433381 -4.71044e-09 0)
(0.433381 4.77029e-09 0)
(0.433381 -4.82963e-09 0)
(0.433381 4.88787e-09 0)
(0.433381 -4.9456e-09 0)
(0.433381 5.0022e-09 0)
(0.433381 -5.05828e-09 0)
(0.433381 5.11321e-09 0)
(0.433381 -5.16762e-09 0)
(0.433381 5.22084e-09 0)
(0.433381 -5.27357e-09 0)
(0.433381 5.325e-09 0)
(0.433381 -5.37614e-09 0)
(0.433381 5.42556e-09 0)
(0.433381 -5.47519e-09 0)
(0.433381 5.52255e-09 0)
(0.433381 -5.57059e-09 0)
(0.433381 5.61586e-09 0)
(0.433381 -5.66218e-09 0)
(0.433381 5.7054e-09 0)
(0.433381 -5.74993e-09 0)
(0.433381 5.79096e-09 0)
(0.433381 -5.83358e-09 0)
(0.433381 5.87249e-09 0)
(0.433381 -5.91298e-09 0)
(0.433381 5.94974e-09 0)
(0.433381 -5.98788e-09 0)
(0.433381 6.02251e-09 0)
(0.433381 -6.05816e-09 0)
(0.433381 6.0904e-09 0)
(0.433381 -6.12341e-09 0)
(0.433381 6.15321e-09 0)
(0.433381 -6.18322e-09 0)
(0.433381 6.21043e-09 0)
(0.433381 -6.23705e-09 0)
(0.433381 6.26142e-09 0)
(0.433381 -6.2841e-09 0)
(0.433381 6.3054e-09 0)
(0.433381 -6.32353e-09 0)
(0.433381 6.34066e-09 0)
(0.433381 -6.35303e-09 0)
(0.433381 6.36341e-09 0)
(0.433381 -6.36775e-09 0)
)
;

boundaryField
{
    inandouthalf11
    {
        type            cyclic;
    }
    inandouthalf12
    {
        type            cyclic;
    }
    inandouthalf21
    {
        type            cyclic;
    }
    inandouthalf22
    {
        type            cyclic;
    }
    inandouthalf31
    {
        type            cyclic;
    }
    inandouthalf32
    {
        type            cyclic;
    }
    inandouthalf41
    {
        type            cyclic;
    }
    inandouthalf42
    {
        type            cyclic;
    }
    top
    {
        type            symmetryPlane;
    }
    walls
    {
        type            calculated;
        value           uniform (0 0 0);
    }
    frontAndBackPlanes
    {
        type            empty;
    }
}


// ************************************************************************* //
