/*--------------------------------*- C++ -*----------------------------------*\
| =========                 |                                                 |
| \\      /  F ield         | OpenFOAM: The Open Source CFD Toolbox           |
|  \\    /   O peration     | Version:  2.4.x                                 |
|   \\  /    A nd           | Web:      www.OpenFOAM.org                      |
|    \\/     M anipulation  |                                                 |
\*---------------------------------------------------------------------------*/
FoamFile
{
    version     2.0;
    format      ascii;
    class       volVectorField;
    location    "10.35";
    object      Ua;
}
// * * * * * * * * * * * * * * * * * * * * * * * * * * * * * * * * * * * * * //

dimensions      [0 1 -1 0 0 0 0];

internalField   nonuniform List<vector> 
360
(
(-9.9277e-33 -1.04169e-31 0)
(-1.83229e-09 -1.36883e-08 0)
(-3.71523e-09 -2.41249e-08 0)
(-5.32164e-09 -3.29703e-08 0)
(-6.88037e-09 -4.19737e-08 0)
(-8.4285e-09 -5.10584e-08 0)
(-9.92857e-09 -5.99095e-08 0)
(-1.13686e-08 -6.84808e-08 0)
(-1.27548e-08 -7.68214e-08 0)
(-1.40955e-08 -8.4976e-08 0)
(-1.53971e-08 -9.2979e-08 0)
(-1.66644e-08 -1.00855e-07 0)
(-1.79016e-08 -1.08625e-07 0)
(-1.91122e-08 -1.16307e-07 0)
(-2.02996e-08 -1.23922e-07 0)
(-2.14674e-08 -1.31489e-07 0)
(-2.26188e-08 -1.39027e-07 0)
(-2.37564e-08 -1.46553e-07 0)
(-2.48828e-08 -1.54083e-07 0)
(-2.60001e-08 -1.6163e-07 0)
(-2.71105e-08 -1.69208e-07 0)
(-2.82154e-08 -1.76829e-07 0)
(-2.93166e-08 -1.84504e-07 0)
(-3.04152e-08 -1.92243e-07 0)
(-3.15124e-08 -2.00054e-07 0)
(-3.26092e-08 -2.07947e-07 0)
(-3.3706e-08 -2.15926e-07 0)
(-3.48037e-08 -2.24e-07 0)
(-3.59025e-08 -2.32172e-07 0)
(-3.70027e-08 -2.40448e-07 0)
(-3.81044e-08 -2.48829e-07 0)
(-3.92078e-08 -2.57321e-07 0)
(-4.03125e-08 -2.65925e-07 0)
(-4.14186e-08 -2.74642e-07 0)
(-4.25258e-08 -2.83474e-07 0)
(-4.36336e-08 -2.92422e-07 0)
(-4.47416e-08 -3.01484e-07 0)
(-4.58495e-08 -3.10661e-07 0)
(-4.69568e-08 -3.19955e-07 0)
(-4.80628e-08 -3.29362e-07 0)
(-4.9167e-08 -3.38881e-07 0)
(-5.02687e-08 -3.48512e-07 0)
(-5.13673e-08 -3.58252e-07 0)
(-5.2462e-08 -3.68098e-07 0)
(-5.35524e-08 -3.7805e-07 0)
(-5.46376e-08 -3.88106e-07 0)
(-5.57169e-08 -3.98263e-07 0)
(-5.67894e-08 -4.08515e-07 0)
(-5.78544e-08 -4.18859e-07 0)
(-5.89113e-08 -4.29296e-07 0)
(-5.99594e-08 -4.39823e-07 0)
(-6.09977e-08 -4.50433e-07 0)
(-6.20256e-08 -4.61124e-07 0)
(-6.30423e-08 -4.71893e-07 0)
(-6.4047e-08 -4.82736e-07 0)
(-6.50391e-08 -4.93649e-07 0)
(-6.60177e-08 -5.04629e-07 0)
(-6.69822e-08 -5.15671e-07 0)
(-6.79317e-08 -5.26771e-07 0)
(-6.88654e-08 -5.37922e-07 0)
(-6.97827e-08 -5.49121e-07 0)
(-7.0683e-08 -5.60367e-07 0)
(-7.15657e-08 -5.71655e-07 0)
(-7.24301e-08 -5.8298e-07 0)
(-7.32754e-08 -5.94339e-07 0)
(-7.41011e-08 -6.05724e-07 0)
(-7.49065e-08 -6.17132e-07 0)
(-7.5691e-08 -6.2856e-07 0)
(-7.6454e-08 -6.4e-07 0)
(-7.71946e-08 -6.51444e-07 0)
(-7.79126e-08 -6.62891e-07 0)
(-7.86076e-08 -6.74341e-07 0)
(-7.9279e-08 -6.85785e-07 0)
(-7.99262e-08 -6.97217e-07 0)
(-8.0549e-08 -7.08636e-07 0)
(-8.11469e-08 -7.20039e-07 0)
(-8.17194e-08 -7.3142e-07 0)
(-8.22661e-08 -7.4277e-07 0)
(-8.27865e-08 -7.54084e-07 0)
(-8.32804e-08 -7.65358e-07 0)
(-8.37473e-08 -7.76586e-07 0)
(-8.41871e-08 -7.87764e-07 0)
(-8.45994e-08 -7.98889e-07 0)
(-8.49843e-08 -8.09958e-07 0)
(-8.53413e-08 -8.20967e-07 0)
(-8.56705e-08 -8.31912e-07 0)
(-8.59715e-08 -8.42789e-07 0)
(-8.62442e-08 -8.53593e-07 0)
(-8.64884e-08 -8.64316e-07 0)
(-8.6704e-08 -8.74955e-07 0)
(-8.6891e-08 -8.85505e-07 0)
(-8.70493e-08 -8.9596e-07 0)
(-8.71789e-08 -9.06318e-07 0)
(-8.72798e-08 -9.16577e-07 0)
(-8.73521e-08 -9.26735e-07 0)
(-8.73957e-08 -9.36789e-07 0)
(-8.74107e-08 -9.46736e-07 0)
(-8.73972e-08 -9.56575e-07 0)
(-8.7355e-08 -9.66301e-07 0)
(-8.72843e-08 -9.75913e-07 0)
(-8.7185e-08 -9.85408e-07 0)
(-8.70572e-08 -9.94783e-07 0)
(-8.69009e-08 -1.00404e-06 0)
(-8.6716e-08 -1.01317e-06 0)
(-8.65023e-08 -1.02219e-06 0)
(-8.62598e-08 -1.03108e-06 0)
(-8.59882e-08 -1.03986e-06 0)
(-8.56871e-08 -1.04851e-06 0)
(-8.53562e-08 -1.05706e-06 0)
(-8.49947e-08 -1.06548e-06 0)
(-8.46018e-08 -1.0738e-06 0)
(-8.41767e-08 -1.08202e-06 0)
(-8.3718e-08 -1.09014e-06 0)
(-8.32242e-08 -1.09816e-06 0)
(-8.26934e-08 -1.1061e-06 0)
(-8.21236e-08 -1.11396e-06 0)
(-8.15122e-08 -1.12175e-06 0)
(-8.08569e-08 -1.12947e-06 0)
(-8.0155e-08 -1.13712e-06 0)
(-7.94041e-08 -1.14469e-06 0)
(-7.86024e-08 -1.15218e-06 0)
(-7.77491e-08 -1.15956e-06 0)
(-7.68445e-08 -1.16681e-06 0)
(-7.58904e-08 -1.1739e-06 0)
(-7.48898e-08 -1.1808e-06 0)
(-7.38461e-08 -1.18747e-06 0)
(-7.27618e-08 -1.1939e-06 0)
(-7.16353e-08 -1.20009e-06 0)
(-7.04589e-08 -1.20609e-06 0)
(-6.92149e-08 -1.21195e-06 0)
(-6.78719e-08 -1.21779e-06 0)
(-6.63807e-08 -1.22376e-06 0)
(-6.4669e-08 -1.23004e-06 0)
(-6.26389e-08 -1.23684e-06 0)
(-6.01831e-08 -1.24432e-06 0)
(-5.72486e-08 -1.25245e-06 0)
(-5.3968e-08 -1.26069e-06 0)
(-5.07796e-08 -1.26796e-06 0)
(-4.83301e-08 -1.27304e-06 0)
(-4.70413e-08 -1.2755e-06 0)
(-4.66799e-08 -1.27616e-06 0)
(-4.66307e-08 -1.27625e-06 0)
(-4.66611e-08 -1.27636e-06 0)
(-9.84649e-07 -3.23282e-06 0)
(-2.32385e-06 -5.19985e-06 0)
(-3.90102e-06 -7.36087e-06 0)
(-6.07302e-06 -1.02683e-05 0)
(-9.59582e-06 -1.42909e-05 0)
(-1.82515e-05 -2.22723e-05 0)
(-0.000103394 -8.89244e-05 0)
(-0.00682404 -0.00634206 0)
(-0.000502807 -0.00889204 0)
(0.00846948 -0.0118092 0)
(0.0172206 -0.013987 0)
(0.0257046 -0.0155023 0)
(0.0339582 -0.0165253 0)
(0.0420131 -0.017211 0)
(0.0498909 -0.0176547 0)
(0.0576072 -0.0179177 0)
(0.0651734 -0.0180433 0)
(0.0725984 -0.0180634 0)
(0.0798898 -0.0180017 0)
(0.087054 -0.017876 0)
(0.0940966 -0.0176998 0)
(0.101023 -0.0174838 0)
(0.107838 -0.017236 0)
(0.114545 -0.0169629 0)
(0.12115 -0.0166696 0)
(0.127655 -0.0163602 0)
(0.134065 -0.0160378 0)
(0.140383 -0.015705 0)
(0.146611 -0.0153639 0)
(0.152754 -0.0150163 0)
(0.158814 -0.0146635 0)
(0.164793 -0.0143067 0)
(0.170694 -0.0139469 0)
(0.176519 -0.0135847 0)
(0.18227 -0.0132209 0)
(0.187948 -0.0128561 0)
(0.193555 -0.0124908 0)
(0.199092 -0.0121253 0)
(0.20456 -0.0117601 0)
(0.209959 -0.0113955 0)
(0.21529 -0.0110319 0)
(0.220552 -0.0106696 0)
(0.225746 -0.010309 0)
(0.230871 -0.00995027 0)
(0.235926 -0.0095939 0)
(0.240909 -0.00924027 0)
(0.24582 -0.0088898 0)
(0.250656 -0.008543 0)
(0.255415 -0.00820045 0)
(0.260096 -0.00786282 0)
(0.264696 -0.00753088 0)
(0.269211 -0.00720556 0)
(0.273639 -0.00688789 0)
(0.277976 -0.00657905 0)
(0.282219 -0.00628027 0)
(0.286365 -0.00599276 0)
(0.29041 -0.0057176 0)
(0.294351 -0.00545555 0)
(0.298222 -0.00520437 0)
(0.30206 -0.00496169 0)
(0.305859 -0.00472682 0)
(0.309614 -0.00449794 0)
(0.313323 -0.00427206 0)
(0.31698 -0.00404521 0)
(0.320581 -0.00381297 0)
(0.324121 -0.00357118 0)
(0.327596 -0.00331667 0)
(0.331001 -0.00304768 0)
(0.33433 -0.00276394 0)
(0.337578 -0.00246645 0)
(0.34074 -0.00215748 0)
(0.343809 -0.00184058 0)
(0.34678 -0.00152053 0)
(0.349647 -0.0012033 0)
(0.352405 -0.000895666 0)
(0.355051 -0.00060454 0)
(0.357581 -0.000336126 0)
(0.359994 -9.50612e-05 0)
(0.362288 0.000116128 0)
(0.364464 0.000297104 0)
(0.366522 0.000449325 0)
(0.368463 0.000575441 0)
(0.370288 0.000678527 0)
(0.371997 0.000761823 0)
(0.373591 0.000827729 0)
(0.375069 0.000878867 0)
(0.376432 0.000915815 0)
(0.377678 0.000940536 0)
(0.378804 0.000951086 0)
(0.379805 0.000949464 0)
(0.380675 0.00092911 0)
(0.381396 0.000892331 0)
(0.381951 0.000819991 0)
(0.38253 0.000703165 0)
(0.458385 0.000504099 0)
(0.461013 0.00133737 0)
(0.462943 0.00106205 0)
(0.464547 0.00124584 0)
(0.465848 0.000894332 0)
(0.466839 0.00117739 0)
(0.467557 0.000124 0)
(0.467995 0.00100478 0)
(0.468202 -0.00080874 0)
(0.468192 0.00071935 0)
(0.467952 -0.00216725 0)
(0.467599 0.00121186 0)
(0.466925 -0.00457428 0)
(0.466326 0.00306714 0)
(0.464502 -0.0132935 0)
(0.462372 -0.0381392 0)
(0.461306 -0.0395593 0)
(0.460192 -0.0394944 0)
(0.459032 -0.039499 0)
(0.457805 -0.0394994 0)
(0.456524 -0.0395001 0)
(0.455199 -0.0395008 0)
(0.45384 -0.0395016 0)
(0.452457 -0.0395023 0)
(0.451061 -0.0395029 0)
(0.449663 -0.0395033 0)
(0.448274 -0.0395035 0)
(0.446909 -0.0395035 0)
(0.44558 -0.0395031 0)
(0.444302 -0.0395024 0)
(0.443091 -0.0395012 0)
(0.441967 -0.0394995 0)
(0.44095 -0.0394972 0)
(0.440063 -0.039494 0)
(0.439329 -0.0394894 0)
(0.438834 -0.0394802 0)
(0.438675 -0.0394718 0)
(0.438663 -0.039469 0)
(0.438663 -0.0394687 0)
(0.438663 -0.0394687 0)
(0.438663 -0.0394687 0)
(0.438663 -0.0394687 0)
(0.438663 -0.0394687 0)
(0.438663 -0.0394687 0)
(0.438663 -0.0394687 0)
(0.438663 -0.0394687 0)
(0.438663 -0.0394687 0)
(0.438663 -0.0394687 0)
(0.438663 -0.0394687 0)
(0.438663 -0.0394687 0)
(0.438663 -0.0394687 0)
(0.438663 -0.0394687 0)
(0.438663 -0.0394687 0)
(0.438663 -0.0394687 0)
(0.438663 -0.0394687 0)
(0.438663 -0.0394687 0)
(0.438663 -0.0394687 0)
(0.438663 -0.0394687 0)
(0.438663 -0.0394687 0)
(0.438663 -0.0394687 0)
(0.438663 -0.0394687 0)
(0.438663 -0.0394687 0)
(0.438663 -0.0394687 0)
(0.438663 -0.0394687 0)
(0.438663 -0.0394687 0)
(0.438663 -0.0394687 0)
(0.438663 -0.0394687 0)
(0.438663 -0.0394687 0)
(0.438663 -0.0394687 0)
(0.438663 -0.0394687 0)
(0.438663 -0.0394687 0)
(0.438663 -0.0394687 0)
(0.438663 -0.0394687 0)
(0.438663 -0.0394687 0)
(0.438663 -0.0394687 0)
(0.438663 -0.0394687 0)
(0.438663 -0.0394687 0)
(0.438663 -0.0394687 0)
(0.438663 -0.0394687 0)
(0.438663 -0.0394687 0)
(0.438663 -0.0394687 0)
(0.438663 -0.0394687 0)
(0.438663 -0.0394687 0)
(0.438663 -0.0394687 0)
(0.438663 -0.0394687 0)
(0.438663 -0.0394687 0)
(0.438663 -0.0394687 0)
(0.438663 -0.0394687 0)
(0.438663 -0.0394687 0)
(0.438663 -0.0394687 0)
(0.438663 -0.0394687 0)
(0.438663 -0.0394687 0)
(0.438663 -0.0394687 0)
(0.438663 -0.0394687 0)
(0.438663 -0.0394687 0)
(0.438663 -0.0394687 0)
(0.438663 -0.0394687 0)
(0.438663 -0.0394687 0)
(0.438663 -0.0394687 0)
(0.438663 -0.0394687 0)
(0.438663 -0.0394687 0)
(0.438663 -0.0394687 0)
(0.438663 -0.0394687 0)
(0.438663 -0.0394687 0)
(0.438663 -0.0394687 0)
(0.438663 -0.0394687 0)
(0.438663 -0.0394687 0)
(0.438663 -0.0394687 0)
(0.438663 -0.0394687 0)
(0.438663 -0.0394687 0)
(0.438663 -0.0394687 0)
(0.438663 -0.0394687 0)
(0.438663 -0.0394687 0)
(0.438663 -0.0394687 0)
(0.438663 -0.0394687 0)
(0.438663 -0.0394687 0)
(0.438663 -0.0394687 0)
(0.438663 -0.0394687 0)
(0.438663 -0.0394687 0)
(0.438663 -0.0394685 0)
(0.438664 -0.03946 0)
(0.4387 -0.0391136 0)
(0.439525 -0.0223419 0)
)
;

boundaryField
{
    inandouthalf11
    {
        type            cyclic;
    }
    inandouthalf12
    {
        type            cyclic;
    }
    inandouthalf21
    {
        type            cyclic;
    }
    inandouthalf22
    {
        type            cyclic;
    }
    inandouthalf31
    {
        type            cyclic;
    }
    inandouthalf32
    {
        type            cyclic;
    }
    inandouthalf41
    {
        type            cyclic;
    }
    inandouthalf42
    {
        type            cyclic;
    }
    top
    {
        type            symmetryPlane;
    }
    walls
    {
        type            fixedValue;
        value           uniform (0 0 0);
    }
    frontAndBackPlanes
    {
        type            empty;
    }
}


// ************************************************************************* //
