/*--------------------------------*- C++ -*----------------------------------*\
| =========                 |                                                 |
| \\      /  F ield         | OpenFOAM: The Open Source CFD Toolbox           |
|  \\    /   O peration     | Version:  2.4.x                                 |
|   \\  /    A nd           | Web:      www.OpenFOAM.org                      |
|    \\/     M anipulation  |                                                 |
\*---------------------------------------------------------------------------*/
FoamFile
{
    version     2.0;
    format      ascii;
    class       volVectorField;
    location    "10.35";
    object      Ua_0;
}
// * * * * * * * * * * * * * * * * * * * * * * * * * * * * * * * * * * * * * //

dimensions      [0 1 -1 0 0 0 0];

internalField   nonuniform List<vector> 
360
(
(-9.92301e-33 -1.0417e-31 0)
(-1.83156e-09 -1.36896e-08 0)
(-3.71372e-09 -2.4127e-08 0)
(-5.31943e-09 -3.29731e-08 0)
(-6.87747e-09 -4.19771e-08 0)
(-8.42489e-09 -5.10624e-08 0)
(-9.92427e-09 -5.99141e-08 0)
(-1.13636e-08 -6.84859e-08 0)
(-1.27492e-08 -7.68272e-08 0)
(-1.40892e-08 -8.49825e-08 0)
(-1.53901e-08 -9.29862e-08 0)
(-1.66569e-08 -1.00863e-07 0)
(-1.78935e-08 -1.08634e-07 0)
(-1.91035e-08 -1.16317e-07 0)
(-2.02904e-08 -1.23933e-07 0)
(-2.14576e-08 -1.31501e-07 0)
(-2.26084e-08 -1.3904e-07 0)
(-2.37455e-08 -1.46567e-07 0)
(-2.48713e-08 -1.54098e-07 0)
(-2.59882e-08 -1.61647e-07 0)
(-2.7098e-08 -1.69226e-07 0)
(-2.82024e-08 -1.76848e-07 0)
(-2.9303e-08 -1.84524e-07 0)
(-3.04011e-08 -1.92265e-07 0)
(-3.14978e-08 -2.00078e-07 0)
(-3.25939e-08 -2.07972e-07 0)
(-3.36902e-08 -2.15954e-07 0)
(-3.47873e-08 -2.24028e-07 0)
(-3.58855e-08 -2.32203e-07 0)
(-3.69851e-08 -2.4048e-07 0)
(-3.80863e-08 -2.48864e-07 0)
(-3.9189e-08 -2.57358e-07 0)
(-4.02931e-08 -2.65963e-07 0)
(-4.13985e-08 -2.74682e-07 0)
(-4.2505e-08 -2.83517e-07 0)
(-4.36121e-08 -2.92466e-07 0)
(-4.47195e-08 -3.01531e-07 0)
(-4.58266e-08 -3.1071e-07 0)
(-4.69332e-08 -3.20006e-07 0)
(-4.80384e-08 -3.29415e-07 0)
(-4.91418e-08 -3.38936e-07 0)
(-5.02428e-08 -3.4857e-07 0)
(-5.13406e-08 -3.58312e-07 0)
(-5.24345e-08 -3.68161e-07 0)
(-5.3524e-08 -3.78115e-07 0)
(-5.46084e-08 -3.88173e-07 0)
(-5.56868e-08 -3.98333e-07 0)
(-5.67584e-08 -4.08587e-07 0)
(-5.78224e-08 -4.18934e-07 0)
(-5.88784e-08 -4.29374e-07 0)
(-5.99255e-08 -4.39903e-07 0)
(-6.09629e-08 -4.50515e-07 0)
(-6.19898e-08 -4.61209e-07 0)
(-6.30055e-08 -4.71981e-07 0)
(-6.40092e-08 -4.82826e-07 0)
(-6.50002e-08 -4.93742e-07 0)
(-6.59778e-08 -5.04725e-07 0)
(-6.69412e-08 -5.15769e-07 0)
(-6.78896e-08 -5.26872e-07 0)
(-6.88221e-08 -5.38026e-07 0)
(-6.97383e-08 -5.49228e-07 0)
(-7.06374e-08 -5.60476e-07 0)
(-7.15189e-08 -5.71766e-07 0)
(-7.23821e-08 -5.83095e-07 0)
(-7.32263e-08 -5.94456e-07 0)
(-7.40507e-08 -6.05844e-07 0)
(-7.48549e-08 -6.17254e-07 0)
(-7.56381e-08 -6.28685e-07 0)
(-7.63998e-08 -6.40127e-07 0)
(-7.71391e-08 -6.51574e-07 0)
(-7.78558e-08 -6.63024e-07 0)
(-7.85495e-08 -6.74476e-07 0)
(-7.92195e-08 -6.85922e-07 0)
(-7.98654e-08 -6.97357e-07 0)
(-8.04868e-08 -7.08779e-07 0)
(-8.10833e-08 -7.20185e-07 0)
(-8.16545e-08 -7.31568e-07 0)
(-8.21997e-08 -7.4292e-07 0)
(-8.27187e-08 -7.54236e-07 0)
(-8.32111e-08 -7.65513e-07 0)
(-8.36766e-08 -7.76744e-07 0)
(-8.41149e-08 -7.87924e-07 0)
(-8.45258e-08 -7.99051e-07 0)
(-8.49092e-08 -8.10122e-07 0)
(-8.52648e-08 -8.21134e-07 0)
(-8.55924e-08 -8.32081e-07 0)
(-8.58919e-08 -8.4296e-07 0)
(-8.61631e-08 -8.53766e-07 0)
(-8.64058e-08 -8.64492e-07 0)
(-8.66199e-08 -8.75133e-07 0)
(-8.68054e-08 -8.85685e-07 0)
(-8.69621e-08 -8.96142e-07 0)
(-8.70902e-08 -9.06502e-07 0)
(-8.71896e-08 -9.16763e-07 0)
(-8.72603e-08 -9.26923e-07 0)
(-8.73024e-08 -9.36979e-07 0)
(-8.73159e-08 -9.46928e-07 0)
(-8.73008e-08 -9.56768e-07 0)
(-8.72571e-08 -9.66497e-07 0)
(-8.71848e-08 -9.7611e-07 0)
(-8.7084e-08 -9.85606e-07 0)
(-8.69547e-08 -9.94984e-07 0)
(-8.67968e-08 -1.00424e-06 0)
(-8.66103e-08 -1.01338e-06 0)
(-8.63952e-08 -1.02239e-06 0)
(-8.61511e-08 -1.03129e-06 0)
(-8.5878e-08 -1.04006e-06 0)
(-8.55754e-08 -1.04872e-06 0)
(-8.52428e-08 -1.05727e-06 0)
(-8.48798e-08 -1.0657e-06 0)
(-8.44854e-08 -1.07402e-06 0)
(-8.40587e-08 -1.08223e-06 0)
(-8.35985e-08 -1.09035e-06 0)
(-8.31031e-08 -1.09838e-06 0)
(-8.25708e-08 -1.10632e-06 0)
(-8.19994e-08 -1.11418e-06 0)
(-8.13866e-08 -1.12197e-06 0)
(-8.07297e-08 -1.12969e-06 0)
(-8.00261e-08 -1.13734e-06 0)
(-7.92737e-08 -1.14491e-06 0)
(-7.84704e-08 -1.1524e-06 0)
(-7.76155e-08 -1.15978e-06 0)
(-7.67093e-08 -1.16703e-06 0)
(-7.57536e-08 -1.17413e-06 0)
(-7.47514e-08 -1.18102e-06 0)
(-7.37062e-08 -1.18769e-06 0)
(-7.26203e-08 -1.19412e-06 0)
(-7.14924e-08 -1.20032e-06 0)
(-7.03146e-08 -1.20631e-06 0)
(-6.90692e-08 -1.21217e-06 0)
(-6.7725e-08 -1.21802e-06 0)
(-6.62327e-08 -1.22398e-06 0)
(-6.45199e-08 -1.23026e-06 0)
(-6.24887e-08 -1.23705e-06 0)
(-6.00316e-08 -1.24454e-06 0)
(-5.70956e-08 -1.25266e-06 0)
(-5.38131e-08 -1.2609e-06 0)
(-5.06226e-08 -1.26817e-06 0)
(-4.8171e-08 -1.27325e-06 0)
(-4.68808e-08 -1.27571e-06 0)
(-4.6519e-08 -1.27637e-06 0)
(-4.64698e-08 -1.27646e-06 0)
(-4.65001e-08 -1.27657e-06 0)
(-9.8588e-07 -3.2366e-06 0)
(-2.32692e-06 -5.2072e-06 0)
(-3.90592e-06 -7.37186e-06 0)
(-6.0798e-06 -1.02837e-05 0)
(-9.60451e-06 -1.43122e-05 0)
(-1.82612e-05 -2.23069e-05 0)
(-0.000103365 -8.90954e-05 0)
(-0.00673763 -0.00634309 0)
(-0.000376408 -0.00889199 0)
(0.00862022 -0.0118088 0)
(0.0173869 -0.0139863 0)
(0.0258822 -0.0155014 0)
(0.0341449 -0.0165242 0)
(0.0422072 -0.0172097 0)
(0.0500914 -0.0176532 0)
(0.0578133 -0.017916 0)
(0.0653843 -0.0180414 0)
(0.0728137 -0.0180613 0)
(0.080109 -0.0179994 0)
(0.0872766 -0.0178736 0)
(0.0943225 -0.0176973 0)
(0.101252 -0.0174811 0)
(0.108069 -0.0172333 0)
(0.114779 -0.0169601 0)
(0.121386 -0.0166668 0)
(0.127893 -0.0163573 0)
(0.134305 -0.0160349 0)
(0.140624 -0.0157021 0)
(0.146855 -0.015361 0)
(0.153 -0.0150134 0)
(0.159061 -0.0146606 0)
(0.165042 -0.0143039 0)
(0.170944 -0.013944 0)
(0.17677 -0.0135819 0)
(0.182522 -0.0132181 0)
(0.188201 -0.0128533 0)
(0.193809 -0.012488 0)
(0.199347 -0.0121226 0)
(0.204816 -0.0117574 0)
(0.210216 -0.0113929 0)
(0.215548 -0.0110293 0)
(0.220811 -0.010667 0)
(0.226006 -0.0103064 0)
(0.231131 -0.00994769 0)
(0.236186 -0.00959135 0)
(0.241171 -0.00923774 0)
(0.246082 -0.0088873 0)
(0.250919 -0.00854053 0)
(0.255679 -0.008198 0)
(0.260361 -0.00786039 0)
(0.26496 -0.00752848 0)
(0.269476 -0.00720319 0)
(0.273905 -0.00688555 0)
(0.278242 -0.00657674 0)
(0.282486 -0.006278 0)
(0.286633 -0.00599053 0)
(0.290678 -0.00571541 0)
(0.294619 -0.0054534 0)
(0.298491 -0.00520226 0)
(0.302329 -0.00495963 0)
(0.306128 -0.00472481 0)
(0.309884 -0.00449597 0)
(0.313593 -0.00427012 0)
(0.317251 -0.00404329 0)
(0.320852 -0.00381106 0)
(0.324393 -0.00356927 0)
(0.327868 -0.00331474 0)
(0.331273 -0.00304574 0)
(0.334602 -0.00276197 0)
(0.337851 -0.00246445 0)
(0.341013 -0.00215547 0)
(0.344082 -0.00183855 0)
(0.347053 -0.00151849 0)
(0.34992 -0.00120126 0)
(0.352679 -0.000893628 0)
(0.355325 -0.000602522 0)
(0.357855 -0.00033414 0)
(0.360268 -9.31197e-05 0)
(0.362563 0.000118015 0)
(0.364739 0.00029893 0)
(0.366797 0.000451087 0)
(0.368738 0.000577137 0)
(0.370563 0.000680157 0)
(0.372271 0.00076339 0)
(0.373865 0.000829236 0)
(0.375344 0.000880317 0)
(0.376707 0.000917212 0)
(0.377952 0.000941884 0)
(0.379079 0.000952389 0)
(0.38008 0.000950725 0)
(0.38095 0.000930332 0)
(0.38167 0.000893518 0)
(0.382225 0.000821143 0)
(0.382804 0.000704274 0)
(0.458658 0.000503873 0)
(0.461286 0.00133778 0)
(0.463214 0.0010615 0)
(0.464817 0.00124542 0)
(0.466118 0.000893159 0)
(0.467107 0.00117656 0)
(0.467825 0.000122256 0)
(0.468262 0.00100361 0)
(0.468468 -0.000809612 0)
(0.468458 0.000718051 0)
(0.468216 -0.00216899 0)
(0.467863 0.00121187 0)
(0.467189 -0.00457604 0)
(0.466589 0.00306846 0)
(0.464765 -0.013287 0)
(0.462634 -0.0381378 0)
(0.461568 -0.0395593 0)
(0.460454 -0.0394944 0)
(0.459293 -0.039499 0)
(0.458066 -0.0394994 0)
(0.456785 -0.0395001 0)
(0.45546 -0.0395008 0)
(0.454101 -0.0395016 0)
(0.452718 -0.0395023 0)
(0.451321 -0.0395029 0)
(0.449923 -0.0395033 0)
(0.448535 -0.0395035 0)
(0.447169 -0.0395035 0)
(0.44584 -0.0395031 0)
(0.444562 -0.0395024 0)
(0.443352 -0.0395012 0)
(0.442228 -0.0394995 0)
(0.441211 -0.0394972 0)
(0.440324 -0.039494 0)
(0.43959 -0.0394894 0)
(0.439096 -0.0394802 0)
(0.438936 -0.0394718 0)
(0.438925 -0.039469 0)
(0.438924 -0.0394687 0)
(0.438924 -0.0394687 0)
(0.438924 -0.0394687 0)
(0.438924 -0.0394687 0)
(0.438924 -0.0394687 0)
(0.438924 -0.0394687 0)
(0.438924 -0.0394687 0)
(0.438924 -0.0394687 0)
(0.438924 -0.0394687 0)
(0.438924 -0.0394687 0)
(0.438924 -0.0394687 0)
(0.438924 -0.0394687 0)
(0.438924 -0.0394687 0)
(0.438924 -0.0394687 0)
(0.438924 -0.0394687 0)
(0.438924 -0.0394687 0)
(0.438924 -0.0394687 0)
(0.438924 -0.0394687 0)
(0.438924 -0.0394687 0)
(0.438924 -0.0394687 0)
(0.438924 -0.0394687 0)
(0.438924 -0.0394687 0)
(0.438924 -0.0394687 0)
(0.438924 -0.0394687 0)
(0.438924 -0.0394687 0)
(0.438924 -0.0394687 0)
(0.438924 -0.0394687 0)
(0.438924 -0.0394687 0)
(0.438924 -0.0394687 0)
(0.438924 -0.0394687 0)
(0.438924 -0.0394687 0)
(0.438924 -0.0394687 0)
(0.438924 -0.0394687 0)
(0.438924 -0.0394687 0)
(0.438924 -0.0394687 0)
(0.438924 -0.0394687 0)
(0.438924 -0.0394687 0)
(0.438924 -0.0394687 0)
(0.438924 -0.0394687 0)
(0.438924 -0.0394687 0)
(0.438924 -0.0394687 0)
(0.438924 -0.0394687 0)
(0.438924 -0.0394687 0)
(0.438924 -0.0394687 0)
(0.438924 -0.0394687 0)
(0.438924 -0.0394687 0)
(0.438924 -0.0394687 0)
(0.438924 -0.0394687 0)
(0.438924 -0.0394687 0)
(0.438924 -0.0394687 0)
(0.438924 -0.0394687 0)
(0.438924 -0.0394687 0)
(0.438924 -0.0394687 0)
(0.438924 -0.0394687 0)
(0.438924 -0.0394687 0)
(0.438924 -0.0394687 0)
(0.438924 -0.0394687 0)
(0.438924 -0.0394687 0)
(0.438924 -0.0394687 0)
(0.438924 -0.0394687 0)
(0.438924 -0.0394687 0)
(0.438924 -0.0394687 0)
(0.438924 -0.0394687 0)
(0.438924 -0.0394687 0)
(0.438924 -0.0394687 0)
(0.438924 -0.0394687 0)
(0.438924 -0.0394687 0)
(0.438924 -0.0394687 0)
(0.438924 -0.0394687 0)
(0.438924 -0.0394687 0)
(0.438924 -0.0394687 0)
(0.438924 -0.0394687 0)
(0.438924 -0.0394687 0)
(0.438924 -0.0394687 0)
(0.438924 -0.0394687 0)
(0.438924 -0.0394687 0)
(0.438924 -0.0394687 0)
(0.438924 -0.0394687 0)
(0.438924 -0.0394687 0)
(0.438924 -0.0394687 0)
(0.438924 -0.0394687 0)
(0.438924 -0.0394685 0)
(0.438926 -0.03946 0)
(0.438962 -0.0391136 0)
(0.439786 -0.0223419 0)
)
;

boundaryField
{
    inandouthalf11
    {
        type            cyclic;
    }
    inandouthalf12
    {
        type            cyclic;
    }
    inandouthalf21
    {
        type            cyclic;
    }
    inandouthalf22
    {
        type            cyclic;
    }
    inandouthalf31
    {
        type            cyclic;
    }
    inandouthalf32
    {
        type            cyclic;
    }
    inandouthalf41
    {
        type            cyclic;
    }
    inandouthalf42
    {
        type            cyclic;
    }
    top
    {
        type            symmetryPlane;
    }
    walls
    {
        type            fixedValue;
        value           uniform (0 0 0);
    }
    frontAndBackPlanes
    {
        type            empty;
    }
}


// ************************************************************************* //
