/*--------------------------------*- C++ -*----------------------------------*\
| =========                 |                                                 |
| \\      /  F ield         | OpenFOAM: The Open Source CFD Toolbox           |
|  \\    /   O peration     | Version:  2.4.x                                 |
|   \\  /    A nd           | Web:      www.OpenFOAM.org                      |
|    \\/     M anipulation  |                                                 |
\*---------------------------------------------------------------------------*/
FoamFile
{
    version     2.0;
    format      ascii;
    class       volVectorField;
    location    "10.35";
    object      Ub_0;
}
// * * * * * * * * * * * * * * * * * * * * * * * * * * * * * * * * * * * * * //

dimensions      [0 1 -1 0 0 0 0];

internalField   nonuniform List<vector> 
360
(
(-0.000277744 5.75296e-09 0)
(-0.000276204 2.02823e-08 0)
(-0.000275995 3.69025e-08 0)
(-0.000276205 5.18875e-08 0)
(-0.000276305 6.61991e-08 0)
(-0.000276337 8.0366e-08 0)
(-0.000276378 9.42627e-08 0)
(-0.000276431 1.07775e-07 0)
(-0.000276484 1.20922e-07 0)
(-0.000276538 1.33766e-07 0)
(-0.000276593 1.46366e-07 0)
(-0.000276647 1.58762e-07 0)
(-0.000276702 1.70987e-07 0)
(-0.000276757 1.83073e-07 0)
(-0.000276813 1.9505e-07 0)
(-0.00027687 2.06948e-07 0)
(-0.000276927 2.18799e-07 0)
(-0.000276984 2.30627e-07 0)
(-0.000277042 2.42457e-07 0)
(-0.000277101 2.54313e-07 0)
(-0.00027716 2.66213e-07 0)
(-0.00027722 2.78178e-07 0)
(-0.000277281 2.90225e-07 0)
(-0.000277342 3.02368e-07 0)
(-0.000277404 3.14624e-07 0)
(-0.000277466 3.27002e-07 0)
(-0.000277529 3.39515e-07 0)
(-0.000277593 3.52171e-07 0)
(-0.000277658 3.64979e-07 0)
(-0.000277723 3.77946e-07 0)
(-0.000277789 3.91076e-07 0)
(-0.000277856 4.04376e-07 0)
(-0.000277923 4.17845e-07 0)
(-0.000277991 4.31491e-07 0)
(-0.00027806 4.45313e-07 0)
(-0.00027813 4.59312e-07 0)
(-0.0002782 4.73487e-07 0)
(-0.000278271 4.87839e-07 0)
(-0.000278344 5.02368e-07 0)
(-0.000278416 5.1707e-07 0)
(-0.00027849 5.31945e-07 0)
(-0.000278564 5.4699e-07 0)
(-0.000278639 5.62199e-07 0)
(-0.000278716 5.77574e-07 0)
(-0.000278793 5.93108e-07 0)
(-0.000278871 6.08798e-07 0)
(-0.00027895 6.24642e-07 0)
(-0.000279029 6.40629e-07 0)
(-0.00027911 6.56756e-07 0)
(-0.000279192 6.73025e-07 0)
(-0.000279274 6.89424e-07 0)
(-0.000279358 7.0595e-07 0)
(-0.000279442 7.22597e-07 0)
(-0.000279528 7.3936e-07 0)
(-0.000279614 7.56229e-07 0)
(-0.000279703 7.73206e-07 0)
(-0.000279791 7.90277e-07 0)
(-0.000279881 8.0744e-07 0)
(-0.000279972 8.24686e-07 0)
(-0.000280064 8.42003e-07 0)
(-0.000280158 8.59393e-07 0)
(-0.000280252 8.76843e-07 0)
(-0.000280348 8.94353e-07 0)
(-0.000280445 9.11913e-07 0)
(-0.000280544 9.29517e-07 0)
(-0.000280643 9.47155e-07 0)
(-0.000280744 9.6482e-07 0)
(-0.000280847 9.82505e-07 0)
(-0.00028095 1.0002e-06 0)
(-0.000281055 1.0179e-06 0)
(-0.000281162 1.03559e-06 0)
(-0.000281271 1.05327e-06 0)
(-0.00028138 1.07093e-06 0)
(-0.000281492 1.08857e-06 0)
(-0.000281605 1.10618e-06 0)
(-0.00028172 1.12375e-06 0)
(-0.000281836 1.14127e-06 0)
(-0.000281954 1.15874e-06 0)
(-0.000282074 1.17614e-06 0)
(-0.000282196 1.19346e-06 0)
(-0.00028232 1.21071e-06 0)
(-0.000282446 1.22786e-06 0)
(-0.000282574 1.24492e-06 0)
(-0.000282704 1.26187e-06 0)
(-0.000282836 1.27873e-06 0)
(-0.000282971 1.29546e-06 0)
(-0.000283107 1.31208e-06 0)
(-0.000283247 1.32857e-06 0)
(-0.000283388 1.34493e-06 0)
(-0.000283532 1.36114e-06 0)
(-0.000283679 1.37719e-06 0)
(-0.000283828 1.39308e-06 0)
(-0.000283981 1.40881e-06 0)
(-0.000284136 1.42436e-06 0)
(-0.000284294 1.43975e-06 0)
(-0.000284456 1.45495e-06 0)
(-0.00028462 1.46998e-06 0)
(-0.000284788 1.48481e-06 0)
(-0.00028496 1.49946e-06 0)
(-0.000285135 1.5139e-06 0)
(-0.000285313 1.52815e-06 0)
(-0.000285496 1.5422e-06 0)
(-0.000285683 1.55603e-06 0)
(-0.000285874 1.56967e-06 0)
(-0.000286069 1.58309e-06 0)
(-0.000286269 1.5963e-06 0)
(-0.000286474 1.60931e-06 0)
(-0.000286684 1.62211e-06 0)
(-0.000286898 1.63472e-06 0)
(-0.000287119 1.64712e-06 0)
(-0.000287344 1.65932e-06 0)
(-0.000287576 1.67135e-06 0)
(-0.000287814 1.68319e-06 0)
(-0.000288058 1.69486e-06 0)
(-0.000288309 1.70637e-06 0)
(-0.000288567 1.71773e-06 0)
(-0.000288832 1.72894e-06 0)
(-0.000289105 1.74001e-06 0)
(-0.000289386 1.75093e-06 0)
(-0.000289675 1.7617e-06 0)
(-0.000289974 1.77229e-06 0)
(-0.000290282 1.78269e-06 0)
(-0.000290601 1.79284e-06 0)
(-0.00029093 1.80269e-06 0)
(-0.000291271 1.8122e-06 0)
(-0.000291624 1.82133e-06 0)
(-0.00029199 1.83003e-06 0)
(-0.00029237 1.83833e-06 0)
(-0.000292766 1.84628e-06 0)
(-0.000293178 1.85399e-06 0)
(-0.000293608 1.86161e-06 0)
(-0.000294056 1.86936e-06 0)
(-0.000294524 1.87751e-06 0)
(-0.000295017 1.88634e-06 0)
(-0.000295541 1.89604e-06 0)
(-0.000296097 1.90641e-06 0)
(-0.000296684 1.91661e-06 0)
(-0.00029731 1.92508e-06 0)
(-0.000298007 1.93028e-06 0)
(-0.000298809 1.93181e-06 0)
(-0.00029968 1.93069e-06 0)
(-0.000300694 1.85629e-06 0)
(-0.000308659 2.66352e-06 0)
(-0.000308965 4.83966e-06 0)
(-0.000311844 7.69561e-06 0)
(-0.000316094 1.11437e-05 0)
(-0.00032133 1.38852e-05 0)
(-0.000328886 3.50195e-05 0)
(-0.000349727 -2.28055e-05 0)
(-0.00252925 0.000216013 0)
(-0.0106007 0.00139582 0)
(-0.0037999 0.000351361 0)
(0.00422798 0.000531008 0)
(0.0123103 0.000417124 0)
(0.0203303 0.000367107 0)
(0.0282563 0.000329517 0)
(0.0360747 0.000297215 0)
(0.0437789 0.000268704 0)
(0.0513661 0.000243567 0)
(0.0588356 0.00022129 0)
(0.0661881 0.000201402 0)
(0.0734251 0.000183544 0)
(0.0805487 0.00016744 0)
(0.0875615 0.00015287 0)
(0.0944662 0.000139653 0)
(0.101266 0.000127637 0)
(0.107963 0.000116693 0)
(0.11456 0.000106708 0)
(0.121061 9.75859e-05 0)
(0.127468 8.92432e-05 0)
(0.133784 8.16053e-05 0)
(0.140012 7.46069e-05 0)
(0.146153 6.81899e-05 0)
(0.152211 6.23027e-05 0)
(0.158188 5.68989e-05 0)
(0.164086 5.19372e-05 0)
(0.169906 4.73803e-05 0)
(0.175652 4.31946e-05 0)
(0.181325 3.93497e-05 0)
(0.186926 3.58179e-05 0)
(0.192457 3.25742e-05 0)
(0.197921 2.95958e-05 0)
(0.203318 2.68619e-05 0)
(0.208649 2.43534e-05 0)
(0.213917 2.20529e-05 0)
(0.219122 1.99444e-05 0)
(0.224265 1.80132e-05 0)
(0.229348 1.62459e-05 0)
(0.234372 1.46299e-05 0)
(0.239337 1.31538e-05 0)
(0.244244 1.18071e-05 0)
(0.249095 1.058e-05 0)
(0.253889 9.46354e-06 0)
(0.258629 8.44944e-06 0)
(0.263314 7.53003e-06 0)
(0.267945 6.69824e-06 0)
(0.272522 5.94755e-06 0)
(0.277047 5.27187e-06 0)
(0.281519 4.66547e-06 0)
(0.28594 4.12292e-06 0)
(0.290309 3.63898e-06 0)
(0.29467 3.20419e-06 0)
(0.299068 2.8115e-06 0)
(0.303501 2.45822e-06 0)
(0.307968 2.14127e-06 0)
(0.312469 1.85727e-06 0)
(0.317003 1.60278e-06 0)
(0.321568 1.37446e-06 0)
(0.326165 1.16936e-06 0)
(0.33079 9.85082e-07 0)
(0.335442 8.19756e-07 0)
(0.34012 6.71979e-07 0)
(0.34482 5.40683e-07 0)
(0.349541 4.25062e-07 0)
(0.35428 3.24515e-07 0)
(0.359033 2.3858e-07 0)
(0.363796 1.66841e-07 0)
(0.368565 1.08776e-07 0)
(0.373336 6.35881e-08 0)
(0.378102 3.00788e-08 0)
(0.382858 6.64224e-09 0)
(0.387597 -8.62088e-09 0)
(0.392311 -1.76609e-08 0)
(0.396992 -2.22483e-08 0)
(0.401629 -2.38488e-08 0)
(0.406211 -2.35629e-08 0)
(0.410727 -2.21644e-08 0)
(0.415162 -2.01612e-08 0)
(0.419502 -1.78861e-08 0)
(0.42373 -1.55356e-08 0)
(0.427828 -1.32433e-08 0)
(0.431775 -1.1075e-08 0)
(0.43555 -9.08648e-09 0)
(0.439131 -7.28405e-09 0)
(0.442494 -5.70247e-09 0)
(0.445615 -4.12854e-09 0)
(0.448473 -3.20724e-09 0)
(0.451047 -3.41631e-09 0)
(0.453321 -3.22875e-09 0)
(0.455283 -2.3387e-09 0)
(0.456929 -1.52931e-09 0)
(0.458262 -9.11193e-10 0)
(0.459292 -4.87834e-10 0)
(0.460036 -2.18532e-10 0)
(0.460513 -6.82682e-11 0)
(0.460748 2.46218e-12 0)
(0.460765 3.74704e-11 0)
(0.460585 4.40209e-11 0)
(0.46023 3.75742e-11 0)
(0.459719 2.61973e-11 0)
(0.459069 2.07094e-11 0)
(0.458295 1.41086e-11 0)
(0.457411 3.21583e-12 0)
(0.456428 -1.7845e-13 0)
(0.455357 3.55799e-13 0)
(0.45421 6.49444e-13 0)
(0.452995 6.01463e-13 0)
(0.451725 5.15968e-13 0)
(0.450407 4.56319e-13 0)
(0.449053 4.05489e-13 0)
(0.447672 3.54528e-13 0)
(0.446277 3.071e-13 0)
(0.444876 2.82456e-13 0)
(0.443484 2.50754e-13 0)
(0.442111 -7.23035e-14 0)
(0.440773 -1.41168e-12 0)
(0.439483 9.42796e-12 0)
(0.438258 -2.61958e-11 0)
(0.437116 5.44358e-11 0)
(0.436078 -9.50022e-11 0)
(0.435167 1.47983e-10 0)
(0.434413 -2.12458e-10 0)
(0.433859 2.85651e-10 0)
(0.433658 -3.65154e-10 0)
(0.433643 4.47505e-10 0)
(0.433643 -5.32402e-10 0)
(0.433642 6.18404e-10 0)
(0.433643 -7.06846e-10 0)
(0.433643 7.96408e-10 0)
(0.433643 -8.88632e-10 0)
(0.433643 9.82053e-10 0)
(0.433643 -1.07831e-09 0)
(0.433643 1.17581e-09 0)
(0.433643 -1.27632e-09 0)
(0.433643 1.37813e-09 0)
(0.433643 -1.48303e-09 0)
(0.433643 1.58934e-09 0)
(0.433643 -1.69874e-09 0)
(0.433643 1.80974e-09 0)
(0.433643 -1.92377e-09 0)
(0.433643 2.03952e-09 0)
(0.433643 -2.15826e-09 0)
(0.433643 2.27888e-09 0)
(0.433643 -2.40237e-09 0)
(0.433643 2.52791e-09 0)
(0.433643 -2.65617e-09 0)
(0.433643 2.78666e-09 0)
(0.433643 -2.9198e-09 0)
(0.433643 3.0551e-09 0)
(0.433643 -3.19309e-09 0)
(0.433643 3.33322e-09 0)
(0.433643 -3.47598e-09 0)
(0.433643 3.62085e-09 0)
(0.433643 -3.7683e-09 0)
(0.433643 3.91778e-09 0)
(0.433643 -4.06979e-09 0)
(0.433643 4.22373e-09 0)
(0.433643 -4.38011e-09 0)
(0.433643 4.53827e-09 0)
(0.433643 -4.69875e-09 0)
(0.433643 4.26859e-09 0)
(0.433643 -4.33421e-09 0)
(0.433643 4.39877e-09 0)
(0.433643 -4.46284e-09 0)
(0.433643 4.52585e-09 0)
(0.433643 -4.58837e-09 0)
(0.433643 4.64981e-09 0)
(0.433643 -4.71075e-09 0)
(0.433643 4.7706e-09 0)
(0.433643 -4.82995e-09 0)
(0.433643 4.88819e-09 0)
(0.433643 -4.94591e-09 0)
(0.433643 5.00252e-09 0)
(0.433643 -5.05859e-09 0)
(0.433643 5.11354e-09 0)
(0.433643 -5.16794e-09 0)
(0.433643 5.22118e-09 0)
(0.433643 -5.27388e-09 0)
(0.433643 5.32536e-09 0)
(0.433643 -5.37644e-09 0)
(0.433643 5.42594e-09 0)
(0.433643 -5.47548e-09 0)
(0.433643 5.52295e-09 0)
(0.433643 -5.57087e-09 0)
(0.433643 5.61626e-09 0)
(0.433643 -5.66248e-09 0)
(0.433643 5.70579e-09 0)
(0.433643 -5.75024e-09 0)
(0.433643 5.79135e-09 0)
(0.433643 -5.83392e-09 0)
(0.433643 5.87283e-09 0)
(0.433643 -5.91338e-09 0)
(0.433643 5.95002e-09 0)
(0.433643 -5.98838e-09 0)
(0.433643 6.02268e-09 0)
(0.433643 -6.05878e-09 0)
(0.433643 6.09046e-09 0)
(0.433643 -6.12418e-09 0)
(0.433643 6.15309e-09 0)
(0.433643 -6.18418e-09 0)
(0.433643 6.21009e-09 0)
(0.433643 -6.23825e-09 0)
(0.433643 6.2608e-09 0)
(0.433643 -6.28564e-09 0)
(0.433643 6.30444e-09 0)
(0.433643 -6.32538e-09 0)
(0.433643 6.33941e-09 0)
(0.433643 -6.35518e-09 0)
(0.433643 6.36195e-09 0)
(0.433643 -6.36906e-09 0)
)
;

boundaryField
{
    inandouthalf11
    {
        type            cyclic;
    }
    inandouthalf12
    {
        type            cyclic;
    }
    inandouthalf21
    {
        type            cyclic;
    }
    inandouthalf22
    {
        type            cyclic;
    }
    inandouthalf31
    {
        type            cyclic;
    }
    inandouthalf32
    {
        type            cyclic;
    }
    inandouthalf41
    {
        type            cyclic;
    }
    inandouthalf42
    {
        type            cyclic;
    }
    top
    {
        type            symmetryPlane;
    }
    walls
    {
        type            fixedValue;
        value           uniform (0 0 0);
    }
    frontAndBackPlanes
    {
        type            empty;
    }
}


// ************************************************************************* //
