/*--------------------------------*- C++ -*----------------------------------*\
| =========                 |                                                 |
| \\      /  F ield         | OpenFOAM: The Open Source CFD Toolbox           |
|  \\    /   O peration     | Version:  2.4.x                                 |
|   \\  /    A nd           | Web:      www.OpenFOAM.org                      |
|    \\/     M anipulation  |                                                 |
\*---------------------------------------------------------------------------*/
FoamFile
{
    version     2.0;
    format      ascii;
    class       volScalarField;
    location    "11";
    object      alpha_0;
}
// * * * * * * * * * * * * * * * * * * * * * * * * * * * * * * * * * * * * * //

dimensions      [0 0 0 0 0 0 0];

internalField   nonuniform List<scalar> 
360
(
0.610891
0.611758
0.611848
0.611758
0.611715
0.611702
0.611685
0.611663
0.61164
0.611617
0.611594
0.611571
0.611548
0.611525
0.611501
0.611478
0.611453
0.611429
0.611405
0.61138
0.611355
0.61133
0.611304
0.611278
0.611252
0.611226
0.6112
0.611173
0.611145
0.611118
0.61109
0.611062
0.611034
0.611005
0.610976
0.610947
0.610917
0.610888
0.610857
0.610827
0.610796
0.610764
0.610733
0.610701
0.610668
0.610636
0.610602
0.610569
0.610535
0.610501
0.610466
0.610431
0.610395
0.610359
0.610323
0.610286
0.610249
0.610211
0.610173
0.610134
0.610094
0.610055
0.610014
0.609974
0.609932
0.60989
0.609848
0.609805
0.609761
0.609717
0.609672
0.609626
0.60958
0.609533
0.609486
0.609437
0.609388
0.609339
0.609288
0.609237
0.609185
0.609132
0.609078
0.609023
0.608967
0.608911
0.608853
0.608795
0.608735
0.608675
0.608613
0.60855
0.608486
0.608421
0.608355
0.608287
0.608218
0.608148
0.608076
0.608002
0.607927
0.607851
0.607773
0.607693
0.607611
0.607528
0.607442
0.607355
0.607265
0.607173
0.607079
0.606983
0.606884
0.606782
0.606678
0.606571
0.606461
0.606348
0.606231
0.606111
0.605988
0.60586
0.605729
0.605593
0.605453
0.605307
0.605157
0.605001
0.604839
0.60467
0.604495
0.604313
0.604123
0.603922
0.603708
0.603481
0.603242
0.602986
0.602702
0.602378
0.602028
0.60162
0.59878
0.599204
0.598688
0.597838
0.597033
0.596129
0.590941
0.32594
0.174123
0.115687
0.077091
0.0494184
0.0305531
0.0185906
0.0114764
0.00746768
0.00525975
0.00399443
0.00320794
0.00267939
0.00230235
0.00202032
0.00180117
0.00162555
0.0014812
0.00136006
0.00125658
0.00116686
0.00108808
0.00101815
0.000955486
0.000898876
0.000847371
0.000800218
0.000756812
0.000716665
0.000679372
0.0006446
0.00061207
0.000581546
0.000552825
0.000525737
0.000500133
0.000475881
0.000452871
0.000431
0.00041018
0.000390333
0.000371386
0.000353278
0.00033595
0.00031935
0.000303432
0.000288156
0.000273485
0.000259387
0.000245835
0.000232807
0.000220284
0.000208131
0.000196237
0.000184618
0.000173295
0.000162287
0.000151615
0.000141298
0.000131353
0.000121792
0.000112625
0.000103855
9.54829e-05
8.75059e-05
7.99202e-05
7.27218e-05
6.59092e-05
5.94835e-05
5.34491e-05
4.78124e-05
4.25793e-05
3.77529e-05
3.33305e-05
2.93026e-05
2.56536e-05
2.23624e-05
1.94049e-05
1.67563e-05
1.43965e-05
1.22884e-05
1.04502e-05
8.79029e-06
7.41317e-06
6.11399e-06
5.17239e-06
4.09401e-06
3.11519e-06
2.61017e-06
2.06432e-06
1.60412e-06
1.2255e-06
9.18944e-07
6.75349e-07
4.85523e-07
3.4085e-07
2.32747e-07
1.54483e-07
9.81487e-08
6.03139e-08
3.34822e-08
1.73554e-08
5.87757e-09
1.02492e-19
6.92343e-31
3.57123e-42
1.51751e-53
1.51533e-62
3.05582e-65
7.01459e-66
3.48675e-66
1.81545e-66
8.91557e-67
4.44536e-67
2.18307e-67
1.05498e-67
5.01443e-68
2.34309e-68
1.07577e-68
4.85028e-69
2.14627e-69
9.31553e-70
3.96328e-70
1.6517e-70
6.73789e-71
2.68846e-71
1.0484e-71
3.99162e-72
1.48239e-72
5.36603e-73
1.89143e-73
6.48496e-74
2.16022e-74
6.98273e-75
2.1873e-75
6.63015e-76
1.94175e-76
5.48513e-77
1.49177e-77
3.89826e-78
9.76636e-79
2.34009e-79
5.34816e-80
1.16237e-80
2.39437e-81
4.65697e-82
8.51543e-83
1.45664e-83
2.31768e-84
3.40713e-85
4.59076e-86
5.61494e-87
6.16014e-88
5.97134e-89
5.01464e-90
3.55191e-91
2.0416e-92
8.96339e-94
2.69543e-95
4.28872e-97
5.04033e-100
1.06502e-106
6.52928e-109
1.98021e-111
8.34159e-122
1.79803e-132
2.91693e-143
3.45126e-154
3.56861e-165
2.85627e-176
1.96364e-187
3.34114e-198
1.39265e-208
7.65926e-217
3.92059e-227
2.63398e-235
1.59664e-245
9.06941e-254
6.74796e-264
3.12795e-272
4.33662e-282
1.1103e-290
2.88288e-300
4.11159e-309
3.693e-318
7.46039e-321
7.83094e-321
2.51973e-321
8.86848e-321
4.57737e-319
2.8055e-319
6.80328e-321
7.09478e-321
6.08689e-321
8.5424e-321
0
0
0
0
0
0
0
0
0
0
0
0
0
0
0
0
)
;

boundaryField
{
    inandouthalf11
    {
        type            cyclic;
    }
    inandouthalf12
    {
        type            cyclic;
    }
    inandouthalf21
    {
        type            cyclic;
    }
    inandouthalf22
    {
        type            cyclic;
    }
    inandouthalf31
    {
        type            cyclic;
    }
    inandouthalf32
    {
        type            cyclic;
    }
    inandouthalf41
    {
        type            cyclic;
    }
    inandouthalf42
    {
        type            cyclic;
    }
    top
    {
        type            symmetryPlane;
    }
    walls
    {
        type            zeroGradient;
    }
    frontAndBackPlanes
    {
        type            empty;
    }
}


// ************************************************************************* //
