/*--------------------------------*- C++ -*----------------------------------*\
| =========                 |                                                 |
| \\      /  F ield         | OpenFOAM: The Open Source CFD Toolbox           |
|  \\    /   O peration     | Version:  2.4.x                                 |
|   \\  /    A nd           | Web:      www.OpenFOAM.org                      |
|    \\/     M anipulation  |                                                 |
\*---------------------------------------------------------------------------*/
FoamFile
{
    version     2.0;
    format      ascii;
    class       volScalarField;
    location    "11";
    object      alpha;
}
// * * * * * * * * * * * * * * * * * * * * * * * * * * * * * * * * * * * * * //

dimensions      [0 0 0 0 0 0 0];

internalField   nonuniform List<scalar> 
360
(
0.610891
0.611758
0.611848
0.611758
0.611715
0.611702
0.611685
0.611663
0.61164
0.611617
0.611594
0.611571
0.611548
0.611525
0.611501
0.611478
0.611453
0.611429
0.611405
0.61138
0.611355
0.61133
0.611304
0.611278
0.611252
0.611226
0.6112
0.611173
0.611145
0.611118
0.61109
0.611062
0.611034
0.611005
0.610976
0.610947
0.610917
0.610888
0.610857
0.610827
0.610796
0.610764
0.610733
0.610701
0.610668
0.610636
0.610602
0.610569
0.610535
0.610501
0.610466
0.610431
0.610395
0.610359
0.610323
0.610286
0.610249
0.610211
0.610173
0.610134
0.610094
0.610055
0.610014
0.609974
0.609932
0.60989
0.609848
0.609805
0.609761
0.609717
0.609672
0.609626
0.60958
0.609533
0.609486
0.609437
0.609388
0.609339
0.609288
0.609237
0.609185
0.609132
0.609078
0.609023
0.608967
0.608911
0.608853
0.608795
0.608735
0.608675
0.608613
0.60855
0.608486
0.608421
0.608355
0.608287
0.608218
0.608148
0.608076
0.608002
0.607927
0.607851
0.607773
0.607693
0.607611
0.607528
0.607442
0.607355
0.607265
0.607173
0.607079
0.606983
0.606884
0.606782
0.606678
0.606571
0.606461
0.606348
0.606231
0.606111
0.605988
0.60586
0.605729
0.605593
0.605453
0.605307
0.605157
0.605001
0.604839
0.60467
0.604495
0.604313
0.604123
0.603922
0.603708
0.603481
0.603242
0.602986
0.602702
0.602378
0.602028
0.60162
0.59878
0.599204
0.598688
0.597838
0.597033
0.596129
0.590933
0.325836
0.174118
0.115706
0.0771174
0.0494447
0.0305747
0.0186058
0.0114858
0.00747265
0.00526213
0.00399548
0.00320833
0.00267944
0.0023022
0.00202007
0.00180086
0.0016252
0.00148085
0.00135969
0.00125621
0.0011665
0.00108773
0.00101781
0.000955155
0.000898557
0.000847063
0.000799922
0.000756529
0.000716393
0.000679112
0.000644352
0.000611833
0.000581319
0.000552609
0.000525531
0.000499936
0.000475695
0.000452693
0.000430831
0.000410019
0.00039018
0.000371242
0.000353141
0.00033582
0.000319227
0.000303316
0.000288046
0.000273381
0.000259289
0.000245743
0.00023272
0.000220203
0.000208054
0.000196165
0.000184552
0.000173234
0.00016223
0.000151563
0.00014125
0.000131308
0.000121751
0.000112587
0.000103821
9.54519e-05
8.74778e-05
7.98947e-05
7.26989e-05
6.58886e-05
5.94652e-05
5.34328e-05
4.7798e-05
4.25668e-05
3.77421e-05
3.33212e-05
2.92946e-05
2.56468e-05
2.23567e-05
1.94001e-05
1.67522e-05
1.43931e-05
1.22856e-05
1.04479e-05
8.7884e-06
7.41159e-06
6.11276e-06
5.17133e-06
4.09299e-06
3.11429e-06
2.60947e-06
2.06382e-06
1.60378e-06
1.22529e-06
9.18812e-07
6.75278e-07
4.85491e-07
3.4084e-07
2.32752e-07
1.54491e-07
9.81612e-08
6.03209e-08
3.34923e-08
1.73575e-08
5.88392e-09
1.02904e-19
6.96805e-31
3.60278e-42
1.53484e-53
1.50002e-62
3.03423e-65
6.98837e-66
3.47484e-66
1.80922e-66
8.88487e-67
4.43006e-67
2.17555e-67
1.05134e-67
4.99715e-68
2.33501e-68
1.07205e-68
4.83354e-69
2.13886e-69
9.28334e-70
3.94958e-70
1.64598e-70
6.71457e-71
2.67915e-71
1.04477e-71
3.97778e-72
1.47725e-72
5.34742e-73
1.88487e-73
6.46243e-74
2.15271e-74
6.95844e-75
2.17969e-75
6.60707e-76
1.93499e-76
5.46601e-77
1.48657e-77
3.88465e-78
9.73225e-79
2.33191e-79
5.32945e-80
1.1583e-80
2.38599e-81
4.64065e-82
8.48556e-83
1.45153e-83
2.30954e-84
3.39515e-85
4.5746e-86
5.59516e-87
6.13842e-88
5.95026e-89
4.99692e-90
3.53934e-91
2.03437e-92
8.9316e-94
2.68585e-95
4.27345e-97
5.02214e-100
1.06088e-106
6.50378e-109
1.97244e-111
8.30894e-122
1.79101e-132
2.90557e-143
3.43785e-154
3.55478e-165
2.84522e-176
1.95606e-187
3.32811e-198
1.3872e-208
7.6292e-217
3.90523e-227
2.62364e-235
1.59038e-245
9.03382e-254
6.72152e-264
3.11567e-272
4.31963e-282
1.10594e-290
2.87158e-300
4.09546e-309
3.69302e-318
7.46039e-321
7.83094e-321
2.51973e-321
8.86848e-321
4.57737e-319
2.8055e-319
6.80328e-321
7.09478e-321
6.08689e-321
8.5424e-321
0
0
0
0
0
0
0
0
0
0
0
0
0
0
0
0
)
;

boundaryField
{
    inandouthalf11
    {
        type            cyclic;
    }
    inandouthalf12
    {
        type            cyclic;
    }
    inandouthalf21
    {
        type            cyclic;
    }
    inandouthalf22
    {
        type            cyclic;
    }
    inandouthalf31
    {
        type            cyclic;
    }
    inandouthalf32
    {
        type            cyclic;
    }
    inandouthalf41
    {
        type            cyclic;
    }
    inandouthalf42
    {
        type            cyclic;
    }
    top
    {
        type            symmetryPlane;
    }
    walls
    {
        type            zeroGradient;
    }
    frontAndBackPlanes
    {
        type            empty;
    }
}


// ************************************************************************* //
