/*--------------------------------*- C++ -*----------------------------------*\
| =========                 |                                                 |
| \\      /  F ield         | OpenFOAM: The Open Source CFD Toolbox           |
|  \\    /   O peration     | Version:  2.4.x                                 |
|   \\  /    A nd           | Web:      www.OpenFOAM.org                      |
|    \\/     M anipulation  |                                                 |
\*---------------------------------------------------------------------------*/
FoamFile
{
    version     2.0;
    format      ascii;
    class       volScalarField;
    location    "11";
    object      ddt0(k);
}
// * * * * * * * * * * * * * * * * * * * * * * * * * * * * * * * * * * * * * //

dimensions      [0 2 -3 0 0 0 0];

internalField   nonuniform List<scalar> 
360
(
0
0
0
0
0
0
0
0
0
0
0
0
0
0
0
0
0
0
0
0
0
0
0
0
0
0
0
0
0
0
0
0
0
0
0
0
0
0
0
0
0
0
0
0
0
0
0
0
0
0
0
0
0
0
0
0
0
0
0
0
0
0
0
0
0
0
0
0
0
0
0
0
0
0
0
0
0
0
0
0
0
0
0
0
0
0
0
0
0
0
0
0
0
0
0
0
0
0
0
0
0
0
0
0
0
0
0
0
0
0
0
0
0
0
0
0
0
0
0
0
0
0
0
0
0
0
0
0
-4.91999e-130
-7.30593e-20
-1.71842e-19
-3.5819e-19
-7.12463e-19
-1.36566e-18
-2.5577e-18
-4.75479e-18
-8.77082e-18
-1.52928e-17
-2.07268e-17
1.21199e-17
5.43276e-16
1.02111e-14
2.13835e-13
5.0051e-12
1.34843e-10
4.31776e-09
1.65276e-07
7.63115e-06
0.000397714
0.00867605
0.0109785
0.0101649
0.0107486
0.0109237
0.0101366
0.00833491
0.00595964
0.00365179
0.00179486
0.000433541
-0.000539918
-0.0012477
-0.00178115
-0.00220058
-0.00254401
-0.00283514
-0.00308882
-0.00331448
-0.00351818
-0.00370388
-0.00387419
-0.00403086
-0.0041751
-0.00430773
-0.00442937
-0.00454044
-0.00464131
-0.00473225
-0.00481353
-0.00488537
-0.004948
-0.00500164
-0.00504651
-0.00508285
-0.00511089
-0.00513086
-0.00514302
-0.00514761
-0.00514488
-0.0051351
-0.00511852
-0.0050954
-0.005066
-0.00503059
-0.00498942
-0.00494277
-0.00489087
-0.004834
-0.00477239
-0.00470631
-0.004636
-0.00456095
-0.00448042
-0.00439441
-0.0043029
-0.00420589
-0.00410338
-0.00399541
-0.00388199
-0.00376317
-0.00363899
-0.00350954
-0.00337489
-0.00323515
-0.00309044
-0.0029409
-0.0027867
-0.00262804
-0.00246513
-0.00229822
-0.00212759
-0.00195355
-0.00177645
-0.00159669
-0.00141468
-0.00123093
-0.00104596
-0.000860372
-0.00067484
-0.000490106
-0.000306996
-0.000126431
5.05672e-05
0.000222862
0.000389199
0.000548199
0.000698335
0.000837929
0.000965161
0.00107808
0.00117465
0.00125275
0.00131032
0.00134541
0.00135642
0.00134223
0.00130255
0.00123815
0.00115116
0.00104516
0.000925137
0.000797136
0.000667632
0.000542761
0.000427608
0.00032574
0.000239091
0.000168151
0.000112324
7.03262e-05
4.05178e-05
2.11366e-05
1.0445e-05
6.80709e-06
8.72322e-06
1.48373e-05
2.39289e-05
3.48934e-05
4.67149e-05
5.84279e-05
6.90666e-05
7.75788e-05
8.26055e-05
8.17826e-05
7.25601e-05
2.40822e-05
1.06935e-06
1.36443e-08
1.5249e-10
1.60497e-12
1.59318e-14
1.49219e-16
1.3115e-18
8.12685e-22
0
0
0
0
0
0
0
0
0
0
0
0
0
0
0
0
0
0
0
0
0
0
0
0
0
0
0
0
0
0
0
0
0
0
0
0
0
0
0
0
0
0
0
0
0
0
0
0
0
0
0
0
0
0
0
0
0
0
0
0
0
0
0
0
0
0
0
0
0
0
0
0
0
0
0
0
)
;

boundaryField
{
    inandouthalf11
    {
        type            cyclic;
    }
    inandouthalf12
    {
        type            cyclic;
    }
    inandouthalf21
    {
        type            cyclic;
    }
    inandouthalf22
    {
        type            cyclic;
    }
    inandouthalf31
    {
        type            cyclic;
    }
    inandouthalf32
    {
        type            cyclic;
    }
    inandouthalf41
    {
        type            cyclic;
    }
    inandouthalf42
    {
        type            cyclic;
    }
    top
    {
        type            symmetryPlane;
    }
    walls
    {
        type            calculated;
        value           uniform 0;
    }
    frontAndBackPlanes
    {
        type            empty;
    }
}


// ************************************************************************* //
