/*--------------------------------*- C++ -*----------------------------------*\
| =========                 |                                                 |
| \\      /  F ield         | OpenFOAM: The Open Source CFD Toolbox           |
|  \\    /   O peration     | Version:  2.4.x                                 |
|   \\  /    A nd           | Web:      www.OpenFOAM.org                      |
|    \\/     M anipulation  |                                                 |
\*---------------------------------------------------------------------------*/
FoamFile
{
    version     2.0;
    format      ascii;
    class       volVectorField;
    location    "11";
    object      ddt0(Ua);
}
// * * * * * * * * * * * * * * * * * * * * * * * * * * * * * * * * * * * * * //

dimensions      [0 1 -2 0 0 0 0];

internalField   nonuniform List<vector> 
360
(
(-7.06832e-33 2.51792e-33 0)
(1.24771e-09 7.85428e-09 0)
(2.43883e-09 1.37567e-08 0)
(3.33958e-09 1.86013e-08 0)
(4.0797e-09 2.33045e-08 0)
(4.66598e-09 2.77709e-08 0)
(5.0769e-09 3.1813e-08 0)
(5.31385e-09 3.54048e-08 0)
(5.39106e-09 3.85808e-08 0)
(5.32676e-09 4.13836e-08 0)
(5.14121e-09 4.38596e-08 0)
(4.85596e-09 4.6057e-08 0)
(4.49309e-09 4.8026e-08 0)
(4.07426e-09 4.98175e-08 0)
(3.62001e-09 5.14815e-08 0)
(3.14908e-09 5.30652e-08 0)
(2.67822e-09 5.46122e-08 0)
(2.22197e-09 5.61612e-08 0)
(1.79266e-09 5.77458e-08 0)
(1.40044e-09 5.93952e-08 0)
(1.05343e-09 6.11335e-08 0)
(7.57915e-10 6.29806e-08 0)
(5.18505e-10 6.49527e-08 0)
(3.384e-10 6.70625e-08 0)
(2.19574e-10 6.93194e-08 0)
(1.62964e-10 7.17304e-08 0)
(1.68637e-10 7.42998e-08 0)
(2.35953e-10 7.70304e-08 0)
(3.63697e-10 7.99236e-08 0)
(5.50164e-10 8.29787e-08 0)
(7.93279e-10 8.61941e-08 0)
(1.09069e-09 8.95677e-08 0)
(1.4398e-09 9.30959e-08 0)
(1.83787e-09 9.67753e-08 0)
(2.28207e-09 1.00602e-07 0)
(2.76943e-09 1.0457e-07 0)
(3.29695e-09 1.08675e-07 0)
(3.86171e-09 1.12911e-07 0)
(4.46081e-09 1.17275e-07 0)
(5.0913e-09 1.21759e-07 0)
(5.75035e-09 1.26358e-07 0)
(6.43528e-09 1.31068e-07 0)
(7.14335e-09 1.35882e-07 0)
(7.87204e-09 1.40796e-07 0)
(8.61902e-09 1.45805e-07 0)
(9.38199e-09 1.50903e-07 0)
(1.01587e-08 1.56087e-07 0)
(1.0947e-08 1.6135e-07 0)
(1.17449e-08 1.66687e-07 0)
(1.25508e-08 1.72098e-07 0)
(1.3363e-08 1.77577e-07 0)
(1.41798e-08 1.83119e-07 0)
(1.49996e-08 1.88722e-07 0)
(1.58212e-08 1.94381e-07 0)
(1.66432e-08 2.00094e-07 0)
(1.74643e-08 2.05858e-07 0)
(1.82835e-08 2.11669e-07 0)
(1.90996e-08 2.17524e-07 0)
(1.99116e-08 2.23421e-07 0)
(2.07183e-08 2.29355e-07 0)
(2.1519e-08 2.35325e-07 0)
(2.23128e-08 2.41329e-07 0)
(2.30991e-08 2.47364e-07 0)
(2.3877e-08 2.53429e-07 0)
(2.46457e-08 2.5952e-07 0)
(2.54044e-08 2.65634e-07 0)
(2.61523e-08 2.7177e-07 0)
(2.68888e-08 2.77924e-07 0)
(2.76131e-08 2.84095e-07 0)
(2.83243e-08 2.90277e-07 0)
(2.90219e-08 2.9647e-07 0)
(2.97056e-08 3.02674e-07 0)
(3.03745e-08 3.08884e-07 0)
(3.1028e-08 3.15098e-07 0)
(3.16656e-08 3.21315e-07 0)
(3.22867e-08 3.27534e-07 0)
(3.28907e-08 3.33751e-07 0)
(3.34766e-08 3.39961e-07 0)
(3.40439e-08 3.46163e-07 0)
(3.4592e-08 3.52354e-07 0)
(3.51202e-08 3.58531e-07 0)
(3.5628e-08 3.64692e-07 0)
(3.61149e-08 3.70835e-07 0)
(3.65805e-08 3.76959e-07 0)
(3.70243e-08 3.83063e-07 0)
(3.74457e-08 3.89143e-07 0)
(3.78444e-08 3.95199e-07 0)
(3.82196e-08 4.01227e-07 0)
(3.85709e-08 4.07224e-07 0)
(3.88979e-08 4.13188e-07 0)
(3.91999e-08 4.19116e-07 0)
(3.94768e-08 4.25005e-07 0)
(3.97282e-08 4.30856e-07 0)
(3.99538e-08 4.36666e-07 0)
(4.01533e-08 4.42434e-07 0)
(4.03262e-08 4.4816e-07 0)
(4.04723e-08 4.53841e-07 0)
(4.0591e-08 4.59475e-07 0)
(4.06818e-08 4.65062e-07 0)
(4.07439e-08 4.70599e-07 0)
(4.07767e-08 4.76084e-07 0)
(4.07794e-08 4.81518e-07 0)
(4.07511e-08 4.86899e-07 0)
(4.06909e-08 4.9223e-07 0)
(4.0598e-08 4.97511e-07 0)
(4.04714e-08 5.02747e-07 0)
(4.03103e-08 5.07941e-07 0)
(4.01139e-08 5.13098e-07 0)
(3.98815e-08 5.18227e-07 0)
(3.96129e-08 5.23332e-07 0)
(3.93076e-08 5.28424e-07 0)
(3.89658e-08 5.33509e-07 0)
(3.85876e-08 5.38593e-07 0)
(3.81735e-08 5.43681e-07 0)
(3.77236e-08 5.48776e-07 0)
(3.72381e-08 5.53874e-07 0)
(3.67166e-08 5.5897e-07 0)
(3.61576e-08 5.64055e-07 0)
(3.55584e-08 5.69117e-07 0)
(3.49144e-08 5.74147e-07 0)
(3.42184e-08 5.79138e-07 0)
(3.34603e-08 5.84092e-07 0)
(3.26255e-08 5.89026e-07 0)
(3.16946e-08 5.93977e-07 0)
(3.06409e-08 5.99005e-07 0)
(2.94284e-08 6.04207e-07 0)
(2.80087e-08 6.09717e-07 0)
(2.63175e-08 6.15725e-07 0)
(2.42718e-08 6.22479e-07 0)
(2.17698e-08 6.30284e-07 0)
(1.86976e-08 6.39477e-07 0)
(1.49479e-08 6.50349e-07 0)
(1.04544e-08 6.63006e-07 0)
(5.24646e-09 6.77174e-07 0)
(-4.74044e-10 6.91976e-07 0)
(-6.25566e-09 7.05829e-07 0)
(-1.14198e-08 7.16804e-07 0)
(-1.53058e-08 7.23666e-07 0)
(-1.76467e-08 7.26715e-07 0)
(-1.87159e-08 7.27472e-07 0)
(-1.90885e-08 7.27473e-07 0)
(-1.92404e-08 7.27453e-07 0)
(-1.93212e-08 7.27409e-07 0)
(1.11261e-09 7.57879e-07 0)
(3.45863e-08 7.88068e-07 0)
(8.58255e-08 8.26478e-07 0)
(1.91771e-07 8.89806e-07 0)
(4.87592e-07 9.916e-07 0)
(4.41635e-07 1.38944e-06 0)
(-0.23031 0.00135691 0)
(-0.255471 0.000513334 0)
(-0.218095 -0.000363174 0)
(-0.239417 0.00108865 0)
(-0.294628 0.00459006 0)
(-0.36878 0.0110565 0)
(-0.446738 0.0209257 0)
(-0.515771 0.0331098 0)
(-0.570529 0.042351 0)
(-0.612933 0.0460817 0)
(-0.646377 0.0458716 0)
(-0.673468 0.0437234 0)
(-0.69591 0.0408942 0)
(-0.714855 0.0378628 0)
(-0.731111 0.0348341 0)
(-0.745257 0.0319089 0)
(-0.757718 0.0291336 0)
(-0.768816 0.0265272 0)
(-0.7788 0.0240944 0)
(-0.787862 0.0218316 0)
(-0.796158 0.0197312 0)
(-0.803812 0.0177832 0)
(-0.810925 0.0159768 0)
(-0.817579 0.0143011 0)
(-0.823841 0.0127455 0)
(-0.829768 0.0113001 0)
(-0.835405 0.00995566 0)
(-0.840791 0.00870353 0)
(-0.845957 0.00753596 0)
(-0.85093 0.00644584 0)
(-0.855732 0.00542675 0)
(-0.860382 0.00447284 0)
(-0.864895 0.00357883 0)
(-0.869283 0.00273996 0)
(-0.873559 0.00195189 0)
(-0.87773 0.00121072 0)
(-0.881805 0.00051289 0)
(-0.885789 -0.000144807 0)
(-0.889687 -0.000765291 0)
(-0.893504 -0.0013512 0)
(-0.897242 -0.00190493 0)
(-0.900903 -0.00242862 0)
(-0.904491 -0.00292417 0)
(-0.908005 -0.00339324 0)
(-0.911447 -0.00383725 0)
(-0.914816 -0.00425736 0)
(-0.918112 -0.00465448 0)
(-0.921335 -0.00502927 0)
(-0.924483 -0.00538212 0)
(-0.927556 -0.00571324 0)
(-0.930552 -0.00602266 0)
(-0.933469 -0.00631033 0)
(-0.936334 -0.00657892 0)
(-0.939174 -0.00683022 0)
(-0.941986 -0.0070634 0)
(-0.944766 -0.00727804 0)
(-0.947512 -0.00747427 0)
(-0.950219 -0.007653 0)
(-0.952885 -0.007816 0)
(-0.955506 -0.00796595 0)
(-0.958077 -0.00810641 0)
(-0.960595 -0.00824162 0)
(-0.963057 -0.00837619 0)
(-0.965457 -0.00851459 0)
(-0.967793 -0.00866057 0)
(-0.970061 -0.00881641 0)
(-0.972257 -0.00898221 0)
(-0.974377 -0.0091555 0)
(-0.976419 -0.00933135 0)
(-0.978379 -0.00950307 0)
(-0.980252 -0.00966331 0)
(-0.982037 -0.00980513 0)
(-0.983731 -0.0099228 0)
(-0.985331 -0.0100122 0)
(-0.986837 -0.010071 0)
(-0.988247 -0.0100984 0)
(-0.989561 -0.0100948 0)
(-0.990777 -0.0100615 0)
(-0.991896 -0.00999962 0)
(-0.992917 -0.00991139 0)
(-0.993841 -0.00979653 0)
(-0.994667 -0.00965682 0)
(-0.995398 -0.00948934 0)
(-0.996034 -0.00929513 0)
(-0.99658 -0.00906242 0)
(-0.997033 -0.00878297 0)
(-0.997345 -0.00854014 0)
(-0.997606 -0.00834767 0)
(-1.02876 -0.0101155 0)
(-1.02905 -0.00899037 0)
(-1.02891 -0.00980391 0)
(-1.02847 -0.00941121 0)
(-1.02772 -0.00936444 0)
(-1.02664 -0.00918471 0)
(-1.02521 -0.00832234 0)
(-1.02339 -0.00944806 0)
(-1.02135 -0.00486601 0)
(-1.01857 -0.0116419 0)
(-1.01629 0.00393534 0)
(-1.0128 -0.0176265 0)
(-1.00972 0.0210803 0)
(-1.00499 -0.029622 0)
(-1.00373 0.0586528 0)
(-0.994414 0.0782042 0)
(-0.993974 -0.000178691 0)
(-0.990204 -0.000146881 0)
(-0.987839 -0.000149879 0)
(-0.985018 -0.000130413 0)
(-0.982755 -0.000118837 0)
(-0.980749 -0.00010758 0)
(-0.979002 -9.79467e-05 0)
(-0.977486 -8.9904e-05 0)
(-0.97618 -8.34038e-05 0)
(-0.975062 -7.83215e-05 0)
(-0.974116 -7.45059e-05 0)
(-0.973328 -7.18033e-05 0)
(-0.972684 -7.0071e-05 0)
(-0.972176 -6.9186e-05 0)
(-0.971796 -6.905e-05 0)
(-0.97154 -6.95939e-05 0)
(-0.971406 -7.07839e-05 0)
(-0.971394 -7.26363e-05 0)
(-0.97151 -7.52682e-05 0)
(-0.971763 -7.89913e-05 0)
(-0.972116 -8.38172e-05 0)
(-0.972999 -0.000103036 0)
(-0.97428 -0.000102148 0)
(-0.974752 -8.75075e-05 0)
(-0.974772 -8.17731e-05 0)
(-0.974772 -8.1531e-05 0)
(-0.974772 -8.15275e-05 0)
(-0.974772 -8.15278e-05 0)
(-0.974772 -8.15276e-05 0)
(-0.974772 -8.15278e-05 0)
(-0.974772 -8.15276e-05 0)
(-0.974772 -8.15278e-05 0)
(-0.974772 -8.15276e-05 0)
(-0.974772 -8.15278e-05 0)
(-0.974772 -8.15276e-05 0)
(-0.974772 -8.15278e-05 0)
(-0.974772 -8.15276e-05 0)
(-0.974772 -8.15278e-05 0)
(-0.974772 -8.15276e-05 0)
(-0.974772 -8.15278e-05 0)
(-0.974772 -8.15276e-05 0)
(-0.974772 -8.15279e-05 0)
(-0.974772 -8.15276e-05 0)
(-0.974772 -8.15279e-05 0)
(-0.974772 -8.15275e-05 0)
(-0.974772 -8.15279e-05 0)
(-0.974772 -8.15275e-05 0)
(-0.974772 -8.15279e-05 0)
(-0.974772 -8.15275e-05 0)
(-0.974772 -8.15279e-05 0)
(-0.974772 -8.15275e-05 0)
(-0.974772 -8.15279e-05 0)
(-0.974772 -8.15275e-05 0)
(-0.974772 -8.15279e-05 0)
(-0.974772 -8.15275e-05 0)
(-0.974772 -8.15279e-05 0)
(-0.974772 -8.15274e-05 0)
(-0.974772 -8.15279e-05 0)
(-0.974772 -8.15275e-05 0)
(-0.974772 -8.15279e-05 0)
(-0.974772 -8.15275e-05 0)
(-0.974772 -8.15279e-05 0)
(-0.974772 -8.15275e-05 0)
(-0.974772 -8.1528e-05 0)
(-0.974772 -8.15275e-05 0)
(-0.974772 -8.1528e-05 0)
(-0.974772 -8.15275e-05 0)
(-0.974772 -8.1528e-05 0)
(-0.974772 -8.15275e-05 0)
(-0.974772 -8.1528e-05 0)
(-0.974772 -8.15275e-05 0)
(-0.974772 -8.1528e-05 0)
(-0.974772 -8.15275e-05 0)
(-0.974772 -8.1528e-05 0)
(-0.974772 -8.15275e-05 0)
(-0.974772 -8.15281e-05 0)
(-0.974772 -8.15276e-05 0)
(-0.974772 -8.15281e-05 0)
(-0.974772 -8.15276e-05 0)
(-0.974772 -8.15282e-05 0)
(-0.974772 -8.15277e-05 0)
(-0.974772 -8.15284e-05 0)
(-0.974772 -8.15279e-05 0)
(-0.974772 -8.15285e-05 0)
(-0.974772 -8.1528e-05 0)
(-0.974772 -8.15287e-05 0)
(-0.974772 -8.15283e-05 0)
(-0.974772 -8.1529e-05 0)
(-0.974772 -8.15286e-05 0)
(-0.974772 -8.15294e-05 0)
(-0.974772 -8.1529e-05 0)
(-0.974772 -8.15299e-05 0)
(-0.974772 -8.15295e-05 0)
(-0.974772 -8.15304e-05 0)
(-0.974772 -8.15301e-05 0)
(-0.974772 -8.1531e-05 0)
(-0.974772 -8.15306e-05 0)
(-0.974772 -8.15314e-05 0)
(-0.974772 -8.15311e-05 0)
(-0.974772 -8.1532e-05 0)
(-0.974772 -8.15315e-05 0)
(-0.974772 -8.15323e-05 0)
(-0.974772 -8.15321e-05 0)
(-0.974772 -8.15363e-05 0)
(-0.974773 -8.16195e-05 0)
(-0.974796 -8.34453e-05 0)
(-0.975334 -0.000158238 0)
)
;

boundaryField
{
    inandouthalf11
    {
        type            cyclic;
    }
    inandouthalf12
    {
        type            cyclic;
    }
    inandouthalf21
    {
        type            cyclic;
    }
    inandouthalf22
    {
        type            cyclic;
    }
    inandouthalf31
    {
        type            cyclic;
    }
    inandouthalf32
    {
        type            cyclic;
    }
    inandouthalf41
    {
        type            cyclic;
    }
    inandouthalf42
    {
        type            cyclic;
    }
    top
    {
        type            symmetryPlane;
    }
    walls
    {
        type            calculated;
        value           uniform (0 0 0);
    }
    frontAndBackPlanes
    {
        type            empty;
    }
}


// ************************************************************************* //
