/*--------------------------------*- C++ -*----------------------------------*\
| =========                 |                                                 |
| \\      /  F ield         | OpenFOAM: The Open Source CFD Toolbox           |
|  \\    /   O peration     | Version:  2.4.x                                 |
|   \\  /    A nd           | Web:      www.OpenFOAM.org                      |
|    \\/     M anipulation  |                                                 |
\*---------------------------------------------------------------------------*/
FoamFile
{
    version     2.0;
    format      ascii;
    class       volVectorField;
    location    "11";
    object      ddt0(Ub);
}
// * * * * * * * * * * * * * * * * * * * * * * * * * * * * * * * * * * * * * //

dimensions      [0 1 -2 0 0 0 0];

internalField   nonuniform List<vector> 
360
(
(0.000187927 -3.29808e-09 0)
(0.000186886 -1.16045e-08 0)
(0.000186745 -2.09949e-08 0)
(0.000186887 -2.91963e-08 0)
(0.000186955 -3.66535e-08 0)
(0.000186976 -4.36008e-08 0)
(0.000187004 -4.99425e-08 0)
(0.000187038 -5.56156e-08 0)
(0.000187074 -6.06341e-08 0)
(0.000187109 -6.5062e-08 0)
(0.000187145 -6.89759e-08 0)
(0.000187181 -7.24534e-08 0)
(0.000187216 -7.55709e-08 0)
(0.000187252 -7.84057e-08 0)
(0.000187289 -8.10355e-08 0)
(0.000187325 -8.35363e-08 0)
(0.000187363 -8.59775e-08 0)
(0.0001874 -8.8421e-08 0)
(0.000187438 -9.09216e-08 0)
(0.000187476 -9.35223e-08 0)
(0.000187515 -9.62599e-08 0)
(0.000187554 -9.91618e-08 0)
(0.000187594 -1.0226e-07 0)
(0.000187635 -1.05572e-07 0)
(0.000187675 -1.09115e-07 0)
(0.000187717 -1.12902e-07 0)
(0.000187759 -1.16933e-07 0)
(0.000187801 -1.21216e-07 0)
(0.000187844 -1.25752e-07 0)
(0.000187887 -1.30545e-07 0)
(0.000187931 -1.35584e-07 0)
(0.000187976 -1.40867e-07 0)
(0.000188021 -1.46395e-07 0)
(0.000188067 -1.52159e-07 0)
(0.000188113 -1.5815e-07 0)
(0.00018816 -1.64361e-07 0)
(0.000188207 -1.70787e-07 0)
(0.000188255 -1.77415e-07 0)
(0.000188304 -1.84245e-07 0)
(0.000188352 -1.91263e-07 0)
(0.000188402 -1.9846e-07 0)
(0.000188453 -2.05834e-07 0)
(0.000188503 -2.13364e-07 0)
(0.000188555 -2.21045e-07 0)
(0.000188607 -2.28875e-07 0)
(0.00018866 -2.36844e-07 0)
(0.000188713 -2.44947e-07 0)
(0.000188767 -2.5317e-07 0)
(0.000188822 -2.61505e-07 0)
(0.000188877 -2.69951e-07 0)
(0.000188933 -2.78502e-07 0)
(0.00018899 -2.87155e-07 0)
(0.000189047 -2.959e-07 0)
(0.000189105 -3.04732e-07 0)
(0.000189163 -3.1364e-07 0)
(0.000189223 -3.22623e-07 0)
(0.000189283 -3.31678e-07 0)
(0.000189344 -3.40798e-07 0)
(0.000189406 -3.49979e-07 0)
(0.000189468 -3.5922e-07 0)
(0.000189532 -3.68517e-07 0)
(0.000189596 -3.7786e-07 0)
(0.000189661 -3.87243e-07 0)
(0.000189727 -3.96667e-07 0)
(0.000189794 -4.06133e-07 0)
(0.000189861 -4.1563e-07 0)
(0.00018993 -4.25154e-07 0)
(0.000189999 -4.34711e-07 0)
(0.00019007 -4.44288e-07 0)
(0.000190141 -4.53874e-07 0)
(0.000190213 -4.63473e-07 0)
(0.000190287 -4.73084e-07 0)
(0.000190361 -4.82701e-07 0)
(0.000190437 -4.92322e-07 0)
(0.000190513 -5.01939e-07 0)
(0.000190592 -5.11551e-07 0)
(0.00019067 -5.21156e-07 0)
(0.00019075 -5.30744e-07 0)
(0.000190832 -5.40316e-07 0)
(0.000190915 -5.49867e-07 0)
(0.000190999 -5.59391e-07 0)
(0.000191084 -5.68886e-07 0)
(0.000191171 -5.78344e-07 0)
(0.000191259 -5.87766e-07 0)
(0.000191348 -5.97151e-07 0)
(0.000191439 -6.06495e-07 0)
(0.000191532 -6.15795e-07 0)
(0.000191626 -6.25044e-07 0)
(0.000191722 -6.34234e-07 0)
(0.00019182 -6.43361e-07 0)
(0.000191919 -6.52427e-07 0)
(0.000192021 -6.61433e-07 0)
(0.000192124 -6.70366e-07 0)
(0.000192229 -6.79229e-07 0)
(0.000192336 -6.88022e-07 0)
(0.000192445 -6.96735e-07 0)
(0.000192557 -7.05369e-07 0)
(0.000192671 -7.13927e-07 0)
(0.000192787 -7.22403e-07 0)
(0.000192905 -7.30792e-07 0)
(0.000193026 -7.39089e-07 0)
(0.00019315 -7.4729e-07 0)
(0.000193276 -7.55408e-07 0)
(0.000193405 -7.63437e-07 0)
(0.000193537 -7.71378e-07 0)
(0.000193673 -7.79239e-07 0)
(0.000193811 -7.87022e-07 0)
(0.000193953 -7.94739e-07 0)
(0.000194098 -8.02395e-07 0)
(0.000194247 -8.10001e-07 0)
(0.0001944 -8.17575e-07 0)
(0.000194556 -8.25121e-07 0)
(0.000194717 -8.32648e-07 0)
(0.000194882 -8.40169e-07 0)
(0.000195052 -8.47682e-07 0)
(0.000195226 -8.55185e-07 0)
(0.000195405 -8.62662e-07 0)
(0.000195589 -8.70106e-07 0)
(0.000195779 -8.77499e-07 0)
(0.000195975 -8.8482e-07 0)
(0.000196177 -8.9206e-07 0)
(0.000196385 -8.99227e-07 0)
(0.0001966 -9.0635e-07 0)
(0.000196823 -9.13483e-07 0)
(0.000197053 -9.20722e-07 0)
(0.000197292 -9.28212e-07 0)
(0.000197539 -9.36163e-07 0)
(0.000197796 -9.44864e-07 0)
(0.000198063 -9.54689e-07 0)
(0.000198342 -9.66091e-07 0)
(0.000198631 -9.79554e-07 0)
(0.000198932 -9.95463e-07 0)
(0.000199246 -1.01389e-06 0)
(0.000199576 -1.03431e-06 0)
(0.000199925 -1.05534e-06 0)
(0.000200296 -1.07472e-06 0)
(0.000200686 -1.08989e-06 0)
(0.000201106 -1.09924e-06 0)
(0.000201576 -1.10312e-06 0)
(0.000202118 -1.10343e-06 0)
(0.000202706 -1.10202e-06 0)
(0.00020339 -1.09196e-06 0)
(0.000208266 -1.11141e-06 0)
(0.000207553 -1.13197e-06 0)
(0.00020848 -1.19575e-06 0)
(0.000210011 2.87318e-08 0)
(0.000211538 -9.91216e-06 0)
(0.000211466 2.33827e-05 0)
(-0.0015416 -0.000103803 0)
(-0.279284 -0.000821765 0)
(-0.232122 0.000824685 0)
(-0.1978 -0.000627651 0)
(-0.214566 -0.000389495 0)
(-0.261411 -0.000738625 0)
(-0.331985 -0.000694338 0)
(-0.41897 -0.000574151 0)
(-0.50879 -0.000404085 0)
(-0.587246 -0.000273135 0)
(-0.647721 -0.000200487 0)
(-0.691413 -0.000152473 0)
(-0.722522 -0.000124301 0)
(-0.74505 -0.000106755 0)
(-0.761912 -9.44129e-05 0)
(-0.775038 -8.49402e-05 0)
(-0.785667 -7.72664e-05 0)
(-0.794595 -7.08005e-05 0)
(-0.80234 -6.51931e-05 0)
(-0.809246 -6.02251e-05 0)
(-0.81554 -5.57574e-05 0)
(-0.82138 -5.16954e-05 0)
(-0.826876 -4.79735e-05 0)
(-0.832103 -4.45433e-05 0)
(-0.837118 -4.13685e-05 0)
(-0.841958 -3.84207e-05 0)
(-0.846653 -3.56771e-05 0)
(-0.851223 -3.31192e-05 0)
(-0.855683 -3.07311e-05 0)
(-0.860046 -2.84997e-05 0)
(-0.864319 -2.64133e-05 0)
(-0.868509 -2.44617e-05 0)
(-0.87262 -2.26359e-05 0)
(-0.876657 -2.09277e-05 0)
(-0.880621 -1.93297e-05 0)
(-0.884516 -1.78352e-05 0)
(-0.888342 -1.64379e-05 0)
(-0.892102 -1.51322e-05 0)
(-0.895796 -1.39126e-05 0)
(-0.899426 -1.27743e-05 0)
(-0.902992 -1.17127e-05 0)
(-0.906495 -1.07233e-05 0)
(-0.909935 -9.80207e-06 0)
(-0.913314 -8.94517e-06 0)
(-0.916632 -8.14895e-06 0)
(-0.919889 -7.40997e-06 0)
(-0.923086 -6.725e-06 0)
(-0.926223 -6.09096e-06 0)
(-0.929302 -5.50496e-06 0)
(-0.932322 -4.96428e-06 0)
(-0.935284 -4.46635e-06 0)
(-0.938188 -4.00876e-06 0)
(-0.941036 -3.58921e-06 0)
(-0.943855 -3.20168e-06 0)
(-0.946674 -2.84183e-06 0)
(-0.94949 -2.5094e-06 0)
(-0.952303 -2.20402e-06 0)
(-0.95511 -1.92514e-06 0)
(-0.957911 -1.67198e-06 0)
(-0.960703 -1.44356e-06 0)
(-0.963485 -1.23864e-06 0)
(-0.966255 -1.05574e-06 0)
(-0.969011 -8.93189e-07 0)
(-0.97175 -7.49197e-07 0)
(-0.974471 -6.21904e-07 0)
(-0.97717 -5.09495e-07 0)
(-0.979845 -4.10313e-07 0)
(-0.982493 -3.22946e-07 0)
(-0.985111 -2.46292e-07 0)
(-0.987696 -1.79582e-07 0)
(-0.990244 -1.22314e-07 0)
(-0.992751 -7.4144e-08 0)
(-0.995213 -3.47368e-08 0)
(-0.997626 -3.65832e-09 0)
(-0.999984 1.97129e-08 0)
(-1.00228 3.62064e-08 0)
(-1.00452 4.68009e-08 0)
(-1.00668 5.25527e-08 0)
(-1.00876 5.45264e-08 0)
(-1.01076 5.36717e-08 0)
(-1.01266 5.08667e-08 0)
(-1.01446 4.67977e-08 0)
(-1.01614 4.20097e-08 0)
(-1.0177 3.69547e-08 0)
(-1.01912 3.21064e-08 0)
(-1.02039 2.73444e-08 0)
(-1.0215 2.09802e-08 0)
(-1.02242 1.34524e-08 0)
(-1.02314 1.08758e-08 0)
(-1.02364 1.29518e-08 0)
(-1.02389 1.36357e-08 0)
(-1.02388 1.25587e-08 0)
(-1.02358 1.06584e-08 0)
(-1.02296 8.5567e-09 0)
(-1.02201 6.5456e-09 0)
(-1.02069 4.75025e-09 0)
(-1.01899 3.25724e-09 0)
(-1.01691 2.1068e-09 0)
(-1.01445 1.3047e-09 0)
(-1.01163 7.73136e-10 0)
(-1.00849 4.76491e-10 0)
(-1.00509 3.33984e-10 0)
(-1.00153 2.71047e-10 0)
(-0.997904 3.0933e-10 0)
(-0.994318 3.69069e-10 0)
(-0.990872 3.98892e-10 0)
(-0.987646 3.79343e-10 0)
(-0.984692 3.69875e-10 0)
(-0.982036 3.60715e-10 0)
(-0.979679 3.50183e-10 0)
(-0.977608 3.37565e-10 0)
(-0.9758 3.22886e-10 0)
(-0.974232 3.08347e-10 0)
(-0.97288 2.93943e-10 0)
(-0.971722 2.77968e-10 0)
(-0.97074 2.62067e-10 0)
(-0.96992 2.49757e-10 0)
(-0.969248 2.40334e-10 0)
(-0.968715 2.3386e-10 0)
(-0.968311 2.32363e-10 0)
(-0.968033 1.88926e-10 0)
(-0.967878 2.67557e-10 0)
(-0.967845 1.05469e-10 0)
(-0.96794 3.30225e-10 0)
(-0.968173 -2.5173e-13 0)
(-0.968579 4.05938e-10 0)
(-0.969183 -9.38406e-11 0)
(-0.9706 4.62492e-10 0)
(-0.971192 -1.61558e-10 0)
(-0.971218 4.93277e-10 0)
(-0.971219 -2.16945e-10 0)
(-0.971219 5.19628e-10 0)
(-0.971219 -2.74336e-10 0)
(-0.971219 5.51843e-10 0)
(-0.971219 -3.29195e-10 0)
(-0.971219 5.85944e-10 0)
(-0.971219 -3.88418e-10 0)
(-0.971219 6.2339e-10 0)
(-0.971219 -4.48374e-10 0)
(-0.971219 6.59536e-10 0)
(-0.971219 -5.14641e-10 0)
(-0.971219 7.00282e-10 0)
(-0.971219 -5.79107e-10 0)
(-0.971219 7.42563e-10 0)
(-0.971219 -6.48224e-10 0)
(-0.971219 7.85402e-10 0)
(-0.971219 -7.20755e-10 0)
(-0.971219 8.223e-10 0)
(-0.971219 -7.99392e-10 0)
(-0.971219 8.89319e-10 0)
(-0.971219 -8.47546e-10 0)
(-0.971219 9.6188e-10 0)
(-0.971219 -9.05374e-10 0)
(-0.971219 1.03511e-09 0)
(-0.971219 -9.66233e-10 0)
(-0.971219 1.10624e-09 0)
(-0.971219 -1.03091e-09 0)
(-0.971219 1.18422e-09 0)
(-0.971219 -1.09559e-09 0)
(-0.971219 1.2599e-09 0)
(-0.971219 -1.16884e-09 0)
(-0.971219 1.33291e-09 0)
(-0.971219 -1.09144e-09 0)
(-0.971219 1.21265e-09 0)
(-0.971219 -1.12414e-09 0)
(-0.971219 1.23643e-09 0)
(-0.971219 -1.14601e-09 0)
(-0.971219 1.25639e-09 0)
(-0.971219 -1.17684e-09 0)
(-0.971219 1.26911e-09 0)
(-0.971219 -1.21467e-09 0)
(-0.971219 1.26736e-09 0)
(-0.971219 -1.26197e-09 0)
(-0.971219 1.26934e-09 0)
(-0.971219 -1.30685e-09 0)
(-0.971219 1.25313e-09 0)
(-0.971219 -1.37226e-09 0)
(-0.971219 1.22594e-09 0)
(-0.971219 -1.45997e-09 0)
(-0.971219 1.11426e-09 0)
(-0.971219 -1.61392e-09 0)
(-0.971219 1.07577e-09 0)
(-0.971219 -1.71917e-09 0)
(-0.971219 9.03278e-10 0)
(-0.971219 -1.97991e-09 0)
(-0.971219 6.50318e-10 0)
(-0.971219 -2.34629e-09 0)
(-0.971219 2.05527e-10 0)
(-0.971219 -2.84604e-09 0)
(-0.971219 -1.97337e-10 0)
(-0.971219 -3.33491e-09 0)
(-0.971219 -8.20992e-10 0)
(-0.971219 -4.11877e-09 0)
(-0.971219 -1.63919e-09 0)
(-0.971219 -5.08742e-09 0)
(-0.971219 -2.76633e-09 0)
(-0.971219 -6.41332e-09 0)
(-0.971219 -4.17171e-09 0)
(-0.971219 -7.92658e-09 0)
(-0.971219 -5.70388e-09 0)
(-0.971219 -9.49807e-09 0)
(-0.971219 -7.20937e-09 0)
(-0.971219 -1.09127e-08 0)
(-0.971219 -8.75213e-09 0)
(-0.971219 -1.25737e-08 0)
(-0.971219 -1.00322e-08 0)
(-0.971219 -1.36685e-08 0)
(-0.971219 -1.16829e-08 0)
(-0.971219 -1.47591e-08 0)
(-0.971219 -1.3002e-08 0)
(-0.971219 -2.27556e-08 0)
(-0.971219 -1.1325e-08 0)
)
;

boundaryField
{
    inandouthalf11
    {
        type            cyclic;
    }
    inandouthalf12
    {
        type            cyclic;
    }
    inandouthalf21
    {
        type            cyclic;
    }
    inandouthalf22
    {
        type            cyclic;
    }
    inandouthalf31
    {
        type            cyclic;
    }
    inandouthalf32
    {
        type            cyclic;
    }
    inandouthalf41
    {
        type            cyclic;
    }
    inandouthalf42
    {
        type            cyclic;
    }
    top
    {
        type            symmetryPlane;
    }
    walls
    {
        type            calculated;
        value           uniform (0 0 0);
    }
    frontAndBackPlanes
    {
        type            empty;
    }
}


// ************************************************************************* //
