/*--------------------------------*- C++ -*----------------------------------*\
| =========                 |                                                 |
| \\      /  F ield         | OpenFOAM: The Open Source CFD Toolbox           |
|  \\    /   O peration     | Version:  2.4.x                                 |
|   \\  /    A nd           | Web:      www.OpenFOAM.org                      |
|    \\/     M anipulation  |                                                 |
\*---------------------------------------------------------------------------*/
FoamFile
{
    version     2.0;
    format      ascii;
    class       surfaceScalarField;
    location    "11";
    object      ddt0(phia);
}
// * * * * * * * * * * * * * * * * * * * * * * * * * * * * * * * * * * * * * //

dimensions      [0 3 -2 0 0 0 0];

internalField   nonuniform List<scalar> 
359
(
1.70255e-14
4.22346e-14
6.43081e-14
8.3846e-14
1.02199e-13
1.19169e-13
1.3443e-13
1.47971e-13
1.59929e-13
1.70486e-13
1.79833e-13
1.88166e-13
1.95687e-13
2.02598e-13
2.09093e-13
2.15355e-13
2.21547e-13
2.27814e-13
2.34282e-13
2.41058e-13
2.48228e-13
2.55867e-13
2.6403e-13
2.72764e-13
2.821e-13
2.92061e-13
3.0266e-13
3.13908e-13
3.25805e-13
3.38346e-13
3.51523e-13
3.65328e-13
3.79741e-13
3.94755e-13
4.10343e-13
4.2649e-13
4.43172e-13
4.60371e-13
4.78068e-13
4.96232e-13
5.14852e-13
5.33902e-13
5.53355e-13
5.73202e-13
5.93415e-13
6.13978e-13
6.34874e-13
6.56074e-13
6.77569e-13
6.99351e-13
7.21391e-13
7.43682e-13
7.66204e-13
7.88952e-13
8.11901e-13
8.35054e-13
8.58385e-13
8.81891e-13
9.05555e-13
9.29359e-13
9.5331e-13
9.77385e-13
1.00159e-12
1.0259e-12
1.05031e-12
1.07481e-12
1.09939e-12
1.12404e-12
1.14875e-12
1.17349e-12
1.19829e-12
1.22312e-12
1.24796e-12
1.27283e-12
1.2977e-12
1.32257e-12
1.34742e-12
1.37225e-12
1.39703e-12
1.42177e-12
1.44644e-12
1.47105e-12
1.49559e-12
1.52004e-12
1.54441e-12
1.56868e-12
1.59285e-12
1.6169e-12
1.64082e-12
1.66461e-12
1.68824e-12
1.71172e-12
1.73504e-12
1.7582e-12
1.78119e-12
1.804e-12
1.82663e-12
1.84907e-12
1.87132e-12
1.89337e-12
1.9152e-12
1.93683e-12
1.95826e-12
1.97948e-12
2.00052e-12
2.02137e-12
2.04208e-12
2.06265e-12
2.08312e-12
2.10351e-12
2.12387e-12
2.1442e-12
2.16455e-12
2.18491e-12
2.2053e-12
2.22569e-12
2.24605e-12
2.26634e-12
2.28653e-12
2.30657e-12
2.32646e-12
2.34624e-12
2.36601e-12
2.38596e-12
2.40642e-12
2.42785e-12
2.45089e-12
2.47641e-12
2.50552e-12
2.53952e-12
2.57965e-12
2.62671e-12
2.68036e-12
2.7383e-12
2.79561e-12
2.84527e-12
2.88095e-12
2.90076e-12
2.90837e-12
2.90989e-12
2.90981e-12
2.90962e-12
2.97911e-12
3.08665e-12
3.22134e-12
3.43385e-12
3.85213e-12
5.36964e-12
2.21475e-09
3.67587e-09
-7.65109e-10
1.68734e-09
1.14316e-08
3.07064e-08
6.24866e-08
1.05743e-07
1.46833e-07
1.78687e-07
1.8444e-07
1.78807e-07
1.69024e-07
1.57429e-07
1.45345e-07
1.3346e-07
1.22071e-07
1.11313e-07
1.01238e-07
9.18487e-08
8.31235e-08
7.50273e-08
6.75188e-08
6.05548e-08
5.40924e-08
4.80906e-08
4.2511e-08
3.73178e-08
3.24784e-08
2.79631e-08
2.37447e-08
1.97988e-08
1.6103e-08
1.26372e-08
9.38337e-09
6.32491e-09
3.44693e-09
7.35912e-10
-1.82043e-09
-4.2332e-09
-6.51246e-09
-8.66726e-09
-1.07057e-08
-1.26349e-08
-1.4461e-08
-1.61893e-08
-1.78237e-08
-1.93675e-08
-2.08228e-08
-2.21908e-08
-2.34719e-08
-2.46661e-08
-2.57733e-08
-2.68135e-08
-2.7783e-08
-2.86791e-08
-2.95013e-08
-3.02516e-08
-3.09353e-08
-3.15614e-08
-3.21423e-08
-3.26935e-08
-3.32327e-08
-3.37782e-08
-3.43464e-08
-3.49495e-08
-3.55924e-08
-3.62707e-08
-3.69694e-08
-3.76653e-08
-3.833e-08
-3.89349e-08
-3.94546e-08
-3.98694e-08
-4.01663e-08
-4.03391e-08
-4.0387e-08
-4.03132e-08
-4.01248e-08
-3.9821e-08
-3.94231e-08
-3.89017e-08
-3.83072e-08
-3.75528e-08
-3.67536e-08
-3.57561e-08
-3.45602e-08
-3.33324e-08
-3.80019e-08
-3.77527e-08
-3.80555e-08
-3.79447e-08
-3.76318e-08
-3.69338e-08
-3.59097e-08
-3.39614e-08
-3.18443e-08
-2.72889e-08
-2.44392e-08
-1.45739e-08
-1.25104e-08
6.8691e-09
8.16124e-09
2.91701e-07
1.35436e-07
-6.53292e-10
-5.93625e-10
-5.60369e-10
-4.96985e-10
-4.50752e-10
-4.08754e-10
-3.73429e-10
-3.44505e-10
-3.2156e-10
-3.03999e-10
-2.91188e-10
-2.8252e-10
-2.77457e-10
-2.7555e-10
-2.76462e-10
-2.79979e-10
-2.86043e-10
-2.94823e-10
-3.068e-10
-3.23779e-10
-3.53194e-10
-4.55829e-10
-3.74614e-10
-3.2544e-10
-3.2599e-10
-3.26109e-10
-3.2611e-10
-3.26111e-10
-3.26111e-10
-3.26111e-10
-3.26111e-10
-3.26111e-10
-3.26111e-10
-3.26111e-10
-3.26111e-10
-3.26111e-10
-3.26111e-10
-3.26111e-10
-3.26111e-10
-3.26111e-10
-3.26111e-10
-3.26111e-10
-3.26111e-10
-3.26111e-10
-3.26111e-10
-3.26111e-10
-3.26111e-10
-3.26111e-10
-3.26111e-10
-3.26111e-10
-3.26111e-10
-3.26111e-10
-3.26111e-10
-3.26111e-10
-3.26111e-10
-3.26111e-10
-3.26111e-10
-3.26111e-10
-3.26111e-10
-3.26111e-10
-3.26111e-10
-3.26111e-10
-3.26111e-10
-3.26111e-10
-3.26111e-10
-3.26111e-10
-3.26111e-10
-3.26111e-10
-3.26111e-10
-3.26111e-10
-3.26111e-10
-3.26111e-10
-3.26111e-10
-3.26111e-10
-3.26111e-10
-3.26111e-10
-3.26111e-10
-3.26112e-10
-3.26112e-10
-3.26112e-10
-3.26112e-10
-3.26112e-10
-3.26113e-10
-3.26113e-10
-3.26114e-10
-3.26114e-10
-3.26115e-10
-3.26115e-10
-3.26116e-10
-3.26117e-10
-3.26118e-10
-3.26119e-10
-3.2612e-10
-3.26121e-10
-3.26122e-10
-3.26123e-10
-3.26124e-10
-3.26125e-10
-3.26126e-10
-3.26127e-10
-3.26127e-10
-3.26128e-10
-3.26138e-10
-3.26309e-10
-3.30127e-10
-5.03981e-10
)
;

boundaryField
{
    inandouthalf11
    {
        type            cyclic;
        value           nonuniform List<scalar> 
100
(
7.06832e-39
-1.24771e-15
-2.43883e-15
-3.33958e-15
-4.0797e-15
-4.66598e-15
-5.0769e-15
-5.31385e-15
-5.39106e-15
-5.32676e-15
-5.14121e-15
-4.85596e-15
-4.49309e-15
-4.07426e-15
-3.62001e-15
-3.14908e-15
-2.67822e-15
-2.22197e-15
-1.79266e-15
-1.40044e-15
-1.05343e-15
-7.57915e-16
-5.18505e-16
-3.384e-16
-2.19574e-16
-1.62964e-16
-1.68637e-16
-2.35953e-16
-3.63697e-16
-5.50164e-16
-7.93279e-16
-1.09069e-15
-1.4398e-15
-1.83787e-15
-2.28207e-15
-2.76943e-15
-3.29695e-15
-3.86171e-15
-4.46081e-15
-5.0913e-15
-5.75035e-15
-6.43528e-15
-7.14335e-15
-7.87204e-15
-8.61902e-15
-9.38199e-15
-1.01587e-14
-1.0947e-14
-1.17449e-14
-1.25508e-14
-1.3363e-14
-1.41798e-14
-1.49996e-14
-1.58212e-14
-1.66432e-14
-1.74643e-14
-1.82835e-14
-1.90996e-14
-1.99116e-14
-2.07183e-14
-2.1519e-14
-2.23128e-14
-2.30991e-14
-2.3877e-14
-2.46457e-14
-2.54044e-14
-2.61523e-14
-2.68888e-14
-2.76131e-14
-2.83243e-14
-2.90219e-14
-2.97056e-14
-3.03745e-14
-3.1028e-14
-3.16656e-14
-3.22867e-14
-3.28907e-14
-3.34766e-14
-3.40439e-14
-3.4592e-14
-3.51202e-14
-3.5628e-14
-3.61149e-14
-3.65805e-14
-3.70243e-14
-3.74457e-14
-3.78444e-14
-3.82196e-14
-3.85709e-14
-3.88979e-14
-3.91999e-14
-3.94768e-14
-3.97282e-14
-3.99538e-14
-4.01533e-14
-4.03262e-14
-4.04723e-14
-4.0591e-14
-4.06818e-14
-4.07439e-14
)
;
    }
    inandouthalf12
    {
        type            cyclic;
        value           nonuniform List<scalar> 
100
(
-7.06832e-39
1.24771e-15
2.43883e-15
3.33958e-15
4.0797e-15
4.66598e-15
5.0769e-15
5.31385e-15
5.39106e-15
5.32676e-15
5.14121e-15
4.85596e-15
4.49309e-15
4.07426e-15
3.62001e-15
3.14908e-15
2.67822e-15
2.22197e-15
1.79266e-15
1.40044e-15
1.05343e-15
7.57915e-16
5.18505e-16
3.384e-16
2.19574e-16
1.62964e-16
1.68637e-16
2.35953e-16
3.63697e-16
5.50164e-16
7.93279e-16
1.09069e-15
1.4398e-15
1.83787e-15
2.28207e-15
2.76943e-15
3.29695e-15
3.86171e-15
4.46081e-15
5.0913e-15
5.75035e-15
6.43528e-15
7.14335e-15
7.87204e-15
8.61902e-15
9.38199e-15
1.01587e-14
1.0947e-14
1.17449e-14
1.25508e-14
1.3363e-14
1.41798e-14
1.49996e-14
1.58212e-14
1.66432e-14
1.74643e-14
1.82835e-14
1.90996e-14
1.99116e-14
2.07183e-14
2.1519e-14
2.23128e-14
2.30991e-14
2.3877e-14
2.46457e-14
2.54044e-14
2.61523e-14
2.68888e-14
2.76131e-14
2.83243e-14
2.90219e-14
2.97056e-14
3.03745e-14
3.1028e-14
3.16656e-14
3.22867e-14
3.28907e-14
3.34766e-14
3.40439e-14
3.4592e-14
3.51202e-14
3.5628e-14
3.61149e-14
3.65805e-14
3.70243e-14
3.74457e-14
3.78444e-14
3.82196e-14
3.85709e-14
3.88979e-14
3.91999e-14
3.94768e-14
3.97282e-14
3.99538e-14
4.01533e-14
4.03262e-14
4.04723e-14
4.0591e-14
4.06818e-14
4.07439e-14
)
;
    }
    inandouthalf21
    {
        type            cyclic;
        value           nonuniform List<scalar> 
100
(
-4.07767e-14
-4.07794e-14
-4.07511e-14
-4.06909e-14
-4.0598e-14
-4.04714e-14
-4.03103e-14
-4.01139e-14
-3.98815e-14
-3.96129e-14
-3.93076e-14
-3.89658e-14
-3.85876e-14
-3.81735e-14
-3.77236e-14
-3.72381e-14
-3.67166e-14
-3.61576e-14
-3.55584e-14
-3.49144e-14
-3.42184e-14
-3.34603e-14
-3.26255e-14
-3.16946e-14
-3.06409e-14
-2.94284e-14
-2.80087e-14
-2.63175e-14
-2.42718e-14
-2.17698e-14
-1.86976e-14
-1.49479e-14
-1.04544e-14
-5.24646e-15
4.74044e-16
6.25566e-15
1.14198e-14
1.53058e-14
1.76467e-14
1.87159e-14
1.90885e-14
1.92404e-14
1.93212e-14
-1.11261e-15
-3.45863e-14
-8.58255e-14
-1.91771e-13
-4.87592e-13
-4.41635e-13
2.3031e-07
2.55471e-07
2.18095e-07
2.39417e-07
2.94628e-07
3.6878e-07
4.46738e-07
5.15771e-07
5.70529e-07
6.12933e-07
6.46377e-07
6.73468e-07
6.9591e-07
7.14855e-07
7.31111e-07
7.45257e-07
7.57718e-07
7.68816e-07
7.788e-07
7.87862e-07
7.96158e-07
8.03812e-07
8.10925e-07
8.17579e-07
8.23841e-07
8.29768e-07
8.35405e-07
8.40791e-07
8.45957e-07
8.5093e-07
8.55732e-07
8.60382e-07
8.64895e-07
8.69283e-07
8.73559e-07
8.7773e-07
8.81805e-07
8.85789e-07
8.89687e-07
8.93504e-07
8.97242e-07
9.00903e-07
9.04491e-07
9.08005e-07
9.11447e-07
9.14816e-07
9.18112e-07
9.21335e-07
9.24483e-07
9.27556e-07
9.30552e-07
)
;
    }
    inandouthalf22
    {
        type            cyclic;
        value           nonuniform List<scalar> 
100
(
4.07767e-14
4.07794e-14
4.07511e-14
4.06909e-14
4.0598e-14
4.04714e-14
4.03103e-14
4.01139e-14
3.98815e-14
3.96129e-14
3.93076e-14
3.89658e-14
3.85876e-14
3.81735e-14
3.77236e-14
3.72381e-14
3.67166e-14
3.61576e-14
3.55584e-14
3.49144e-14
3.42184e-14
3.34603e-14
3.26255e-14
3.16946e-14
3.06409e-14
2.94284e-14
2.80087e-14
2.63175e-14
2.42718e-14
2.17698e-14
1.86976e-14
1.49479e-14
1.04544e-14
5.24646e-15
-4.74044e-16
-6.25566e-15
-1.14198e-14
-1.53058e-14
-1.76467e-14
-1.87159e-14
-1.90885e-14
-1.92404e-14
-1.93212e-14
1.11261e-15
3.45863e-14
8.58255e-14
1.91771e-13
4.87592e-13
4.41635e-13
-2.3031e-07
-2.55471e-07
-2.18095e-07
-2.39417e-07
-2.94628e-07
-3.6878e-07
-4.46738e-07
-5.15771e-07
-5.70529e-07
-6.12933e-07
-6.46377e-07
-6.73468e-07
-6.9591e-07
-7.14855e-07
-7.31111e-07
-7.45257e-07
-7.57718e-07
-7.68816e-07
-7.788e-07
-7.87862e-07
-7.96158e-07
-8.03812e-07
-8.10925e-07
-8.17579e-07
-8.23841e-07
-8.29768e-07
-8.35405e-07
-8.40791e-07
-8.45957e-07
-8.5093e-07
-8.55732e-07
-8.60382e-07
-8.64895e-07
-8.69283e-07
-8.73559e-07
-8.7773e-07
-8.81805e-07
-8.85789e-07
-8.89687e-07
-8.93504e-07
-8.97242e-07
-9.00903e-07
-9.04491e-07
-9.08005e-07
-9.11447e-07
-9.14816e-07
-9.18112e-07
-9.21335e-07
-9.24483e-07
-9.27556e-07
-9.30552e-07
)
;
    }
    inandouthalf31
    {
        type            cyclic;
        value           nonuniform List<scalar> 
110
(
9.33472e-07
9.55342e-07
9.7769e-07
1.00052e-06
1.02384e-06
1.04766e-06
1.07198e-06
1.09681e-06
1.12214e-06
1.148e-06
1.17438e-06
1.20129e-06
1.22873e-06
1.2567e-06
1.28521e-06
1.31427e-06
1.34387e-06
1.37402e-06
1.40472e-06
1.43598e-06
1.46779e-06
1.50017e-06
1.53311e-06
1.56662e-06
1.6007e-06
1.63536e-06
1.6706e-06
1.70644e-06
1.74286e-06
1.77989e-06
1.81753e-06
1.85579e-06
1.89466e-06
1.93418e-06
1.97433e-06
2.01504e-06
2.05647e-06
2.16375e-06
2.20828e-06
2.2528e-06
2.29754e-06
2.34247e-06
2.38749e-06
2.43257e-06
2.47753e-06
2.52278e-06
2.56698e-06
2.61321e-06
2.6571e-06
2.7028e-06
2.74474e-06
2.79695e-06
2.82722e-06
2.88333e-06
2.9307e-06
2.98304e-06
3.0349e-06
3.08938e-06
3.14565e-06
3.20378e-06
3.26375e-06
3.32555e-06
3.38916e-06
3.4546e-06
3.52186e-06
3.59097e-06
3.66195e-06
3.73482e-06
3.80962e-06
3.8864e-06
3.96524e-06
4.04621e-06
4.12941e-06
4.21476e-06
4.30421e-06
4.39736e-06
4.48879e-06
4.57999e-06
4.67295e-06
4.7678e-06
4.86457e-06
4.96331e-06
5.06405e-06
5.16684e-06
5.27171e-06
5.37872e-06
5.48789e-06
5.59928e-06
5.71293e-06
5.82889e-06
5.9472e-06
6.06791e-06
6.19107e-06
6.31673e-06
6.44495e-06
6.57576e-06
6.70923e-06
6.84541e-06
6.98436e-06
7.12612e-06
7.27076e-06
7.41834e-06
7.56891e-06
7.72254e-06
7.87929e-06
8.03921e-06
8.20239e-06
8.36888e-06
8.53874e-06
8.71206e-06
)
;
    }
    inandouthalf32
    {
        type            cyclic;
        value           nonuniform List<scalar> 
110
(
-9.33472e-07
-9.55342e-07
-9.7769e-07
-1.00052e-06
-1.02384e-06
-1.04766e-06
-1.07198e-06
-1.09681e-06
-1.12214e-06
-1.148e-06
-1.17438e-06
-1.20129e-06
-1.22873e-06
-1.2567e-06
-1.28521e-06
-1.31427e-06
-1.34387e-06
-1.37402e-06
-1.40472e-06
-1.43598e-06
-1.46779e-06
-1.50017e-06
-1.53311e-06
-1.56662e-06
-1.6007e-06
-1.63536e-06
-1.6706e-06
-1.70644e-06
-1.74286e-06
-1.77989e-06
-1.81753e-06
-1.85579e-06
-1.89466e-06
-1.93418e-06
-1.97433e-06
-2.01504e-06
-2.05647e-06
-2.16375e-06
-2.20828e-06
-2.2528e-06
-2.29754e-06
-2.34247e-06
-2.38749e-06
-2.43257e-06
-2.47753e-06
-2.52278e-06
-2.56698e-06
-2.61321e-06
-2.6571e-06
-2.7028e-06
-2.74474e-06
-2.79695e-06
-2.82722e-06
-2.88333e-06
-2.9307e-06
-2.98304e-06
-3.0349e-06
-3.08938e-06
-3.14565e-06
-3.20378e-06
-3.26375e-06
-3.32555e-06
-3.38916e-06
-3.4546e-06
-3.52186e-06
-3.59097e-06
-3.66195e-06
-3.73482e-06
-3.80962e-06
-3.8864e-06
-3.96524e-06
-4.04621e-06
-4.12941e-06
-4.21476e-06
-4.30421e-06
-4.39736e-06
-4.48879e-06
-4.57999e-06
-4.67295e-06
-4.7678e-06
-4.86457e-06
-4.96331e-06
-5.06405e-06
-5.16684e-06
-5.27171e-06
-5.37872e-06
-5.48789e-06
-5.59928e-06
-5.71293e-06
-5.82889e-06
-5.9472e-06
-6.06791e-06
-6.19107e-06
-6.31673e-06
-6.44495e-06
-6.57576e-06
-6.70923e-06
-6.84541e-06
-6.98436e-06
-7.12612e-06
-7.27076e-06
-7.41834e-06
-7.56891e-06
-7.72254e-06
-7.87929e-06
-8.03921e-06
-8.20239e-06
-8.36888e-06
-8.53874e-06
-8.71206e-06
)
;
    }
    inandouthalf41
    {
        type            cyclic;
        value           nonuniform List<scalar> 
50
(
7.79818e-06
7.79818e-06
7.79818e-06
7.79818e-06
7.79818e-06
7.79818e-06
7.79818e-06
7.79818e-06
7.79818e-06
7.79818e-06
7.79818e-06
7.79818e-06
7.79818e-06
7.79818e-06
7.79818e-06
7.79818e-06
7.79818e-06
7.79818e-06
7.79818e-06
7.79818e-06
7.79818e-06
7.79818e-06
7.79818e-06
7.79818e-06
7.79818e-06
7.79818e-06
7.79818e-06
7.79818e-06
7.79818e-06
7.79818e-06
7.79818e-06
7.79818e-06
7.79818e-06
7.79818e-06
7.79818e-06
7.79818e-06
7.79818e-06
7.79818e-06
7.79818e-06
7.79818e-06
7.79818e-06
7.79818e-06
7.79818e-06
7.79818e-06
7.79818e-06
7.79818e-06
7.79818e-06
7.79819e-06
7.79837e-06
7.80267e-06
)
;
    }
    inandouthalf42
    {
        type            cyclic;
        value           nonuniform List<scalar> 
50
(
-7.79818e-06
-7.79818e-06
-7.79818e-06
-7.79818e-06
-7.79818e-06
-7.79818e-06
-7.79818e-06
-7.79818e-06
-7.79818e-06
-7.79818e-06
-7.79818e-06
-7.79818e-06
-7.79818e-06
-7.79818e-06
-7.79818e-06
-7.79818e-06
-7.79818e-06
-7.79818e-06
-7.79818e-06
-7.79818e-06
-7.79818e-06
-7.79818e-06
-7.79818e-06
-7.79818e-06
-7.79818e-06
-7.79818e-06
-7.79818e-06
-7.79818e-06
-7.79818e-06
-7.79818e-06
-7.79818e-06
-7.79818e-06
-7.79818e-06
-7.79818e-06
-7.79818e-06
-7.79818e-06
-7.79818e-06
-7.79818e-06
-7.79818e-06
-7.79818e-06
-7.79818e-06
-7.79818e-06
-7.79818e-06
-7.79818e-06
-7.79818e-06
-7.79818e-06
-7.79818e-06
-7.79819e-06
-7.79837e-06
-7.80267e-06
)
;
    }
    top
    {
        type            symmetryPlane;
        value           uniform 0;
    }
    walls
    {
        type            calculated;
        value           uniform 0;
    }
    frontAndBackPlanes
    {
        type            empty;
        value           nonuniform 0();
    }
}


// ************************************************************************* //
