/*--------------------------------*- C++ -*----------------------------------*\
| =========                 |                                                 |
| \\      /  F ield         | OpenFOAM: The Open Source CFD Toolbox           |
|  \\    /   O peration     | Version:  2.4.x                                 |
|   \\  /    A nd           | Web:      www.OpenFOAM.org                      |
|    \\/     M anipulation  |                                                 |
\*---------------------------------------------------------------------------*/
FoamFile
{
    version     2.0;
    format      ascii;
    class       volScalarField;
    location    "11";
    object      ddt0(alpha);
}
// * * * * * * * * * * * * * * * * * * * * * * * * * * * * * * * * * * * * * //

dimensions      [0 0 -1 0 0 0 0];

internalField   nonuniform List<scalar> 
360
(
5.94046e-06
8.88491e-06
8.3058e-06
8.04121e-06
8.24735e-06
8.35985e-06
8.30685e-06
8.19138e-06
8.05913e-06
7.9195e-06
7.76782e-06
7.60101e-06
7.42434e-06
7.24167e-06
7.05878e-06
6.87996e-06
6.70767e-06
6.54343e-06
6.38885e-06
6.24664e-06
6.11491e-06
5.99711e-06
5.89203e-06
5.79972e-06
5.72008e-06
5.65238e-06
5.59577e-06
5.55111e-06
5.51632e-06
5.4908e-06
5.47389e-06
5.46635e-06
5.46379e-06
5.47103e-06
5.48178e-06
5.4991e-06
5.52007e-06
5.54611e-06
5.57683e-06
5.60727e-06
5.64386e-06
5.68115e-06
5.71836e-06
5.76016e-06
5.80097e-06
5.84318e-06
5.88615e-06
5.92607e-06
5.96817e-06
6.01217e-06
6.05152e-06
6.09257e-06
6.1313e-06
6.17066e-06
6.20604e-06
6.24413e-06
6.27665e-06
6.31051e-06
6.34103e-06
6.36764e-06
6.39752e-06
6.42185e-06
6.44781e-06
6.46969e-06
6.49023e-06
6.50755e-06
6.52397e-06
6.53793e-06
6.54877e-06
6.5557e-06
6.56405e-06
6.57109e-06
6.57167e-06
6.57409e-06
6.57301e-06
6.57178e-06
6.56507e-06
6.55598e-06
6.54468e-06
6.53129e-06
6.51456e-06
6.49662e-06
6.47725e-06
6.45601e-06
6.43313e-06
6.40781e-06
6.38028e-06
6.34946e-06
6.31555e-06
6.27898e-06
6.23988e-06
6.19852e-06
6.15554e-06
6.11096e-06
6.06476e-06
6.01683e-06
5.96708e-06
5.91548e-06
5.86223e-06
5.80781e-06
5.75281e-06
5.69801e-06
5.64428e-06
5.59248e-06
5.54341e-06
5.49778e-06
5.45614e-06
5.41878e-06
5.38564e-06
5.35621e-06
5.32942e-06
5.3036e-06
5.27653e-06
5.24563e-06
5.20821e-06
5.16197e-06
5.10564e-06
5.03965e-06
4.96689e-06
4.89329e-06
4.82822e-06
4.78464e-06
4.77917e-06
4.8321e-06
4.9677e-06
5.21452e-06
5.60536e-06
6.17497e-06
6.95266e-06
7.94566e-06
9.11139e-06
1.03243e-05
1.13514e-05
1.18506e-05
1.14178e-05
9.76131e-06
7.03757e-06
3.99886e-06
1.56104e-06
1.74229e-07
-3.62845e-07
-6.66324e-06
5.19469e-06
8.95867e-07
2.26952e-06
3.00336e-06
1.03409e-05
-3.26588e-05
-0.0393627
-0.520786
-0.0277977
0.094948
0.132606
0.131992
0.108274
0.0762952
0.0473369
0.0249287
0.0119383
0.00524652
0.00195132
0.000227659
-0.000720952
-0.00125517
-0.00155695
-0.00172223
-0.00180424
-0.00183401
-0.00183031
-0.00180493
-0.00176544
-0.00171686
-0.00166254
-0.0016048
-0.00154523
-0.00148494
-0.00142471
-0.00136511
-0.00130651
-0.00124919
-0.00119333
-0.00113905
-0.00108644
-0.00103553
-0.000986343
-0.000938882
-0.000893132
-0.000849068
-0.000806655
-0.000765854
-0.00072662
-0.000688903
-0.000652651
-0.000617808
-0.000584317
-0.00055212
-0.000521161
-0.000491389
-0.000462755
-0.000435221
-0.000408759
-0.000383091
-0.000358009
-0.000333573
-0.000309862
-0.00028696
-0.00026496
-0.000243949
-0.000224002
-0.000205177
-0.000187501
-0.000170973
-0.000155555
-0.000141181
-0.000127761
-0.000115193
-0.000103383
-9.22552e-05
-8.17744e-05
-7.19443e-05
-6.28024e-05
-5.44006e-05
-4.67851e-05
-3.99784e-05
-3.39743e-05
-2.87382e-05
-2.42096e-05
-2.02992e-05
-1.6989e-05
-1.40707e-05
-1.17118e-05
-9.51558e-06
-7.91286e-06
-6.15844e-06
-5.27475e-06
-5.10167e-06
-4.51845e-06
-3.51958e-06
-2.50333e-06
-1.69247e-06
-1.09213e-06
-6.57782e-07
-3.5834e-07
-1.62376e-07
-4.61841e-08
2.3422e-08
4.07309e-08
6.27607e-08
3.52092e-08
5.0819e-08
1.06174e-08
3.18594e-08
2.05175e-18
2.21744e-29
1.56594e-40
8.58705e-52
-7.73741e-61
-1.08989e-63
-1.31972e-64
-5.99388e-65
-3.13858e-65
-1.54473e-65
-7.69962e-66
-3.78284e-66
-1.82889e-66
-8.69693e-67
-4.06571e-67
-1.86755e-67
-8.42423e-68
-3.7296e-68
-1.61957e-68
-6.8939e-69
-2.8745e-69
-1.17322e-69
-4.68363e-70
-1.8274e-70
-6.96081e-71
-2.58643e-71
-9.36762e-72
-3.30377e-72
-1.13337e-72
-3.77759e-73
-1.22179e-73
-3.82948e-74
-1.1615e-74
-3.40376e-75
-9.62113e-76
-2.61832e-76
-6.84661e-77
-1.71644e-77
-4.11554e-78
-9.41244e-79
-2.04716e-79
-4.22008e-80
-8.21409e-81
-1.50314e-81
-2.5733e-82
-4.09777e-83
-6.02907e-84
-8.1307e-85
-9.95371e-86
-1.09306e-86
-1.06062e-87
-8.91641e-89
-6.32273e-90
-3.63873e-91
-1.59975e-92
-4.81854e-94
-7.68379e-96
-9.1583e-99
-2.08462e-105
-1.28382e-107
-3.9114e-110
-1.64503e-120
-3.5409e-131
-5.73423e-142
-6.77616e-153
-6.99473e-164
-5.59629e-175
-3.84414e-186
-6.57733e-197
-2.74448e-207
-1.51286e-215
-7.73847e-226
-5.20264e-234
-3.1509e-244
-1.79139e-252
-1.33151e-262
-6.17831e-271
-8.56073e-281
-2.19299e-289
-5.69121e-299
-8.12051e-308
1.08848e-319
0
0
0
0
0
0
0
0
0
0
0
0
0
0
0
0
0
0
0
0
0
0
0
0
0
0
)
;

boundaryField
{
    inandouthalf11
    {
        type            cyclic;
    }
    inandouthalf12
    {
        type            cyclic;
    }
    inandouthalf21
    {
        type            cyclic;
    }
    inandouthalf22
    {
        type            cyclic;
    }
    inandouthalf31
    {
        type            cyclic;
    }
    inandouthalf32
    {
        type            cyclic;
    }
    inandouthalf41
    {
        type            cyclic;
    }
    inandouthalf42
    {
        type            cyclic;
    }
    top
    {
        type            symmetryPlane;
    }
    walls
    {
        type            calculated;
        value           uniform 5.94046e-06;
    }
    frontAndBackPlanes
    {
        type            empty;
    }
}


// ************************************************************************* //
