/*--------------------------------*- C++ -*----------------------------------*\
| =========                 |                                                 |
| \\      /  F ield         | OpenFOAM: The Open Source CFD Toolbox           |
|  \\    /   O peration     | Version:  2.4.x                                 |
|   \\  /    A nd           | Web:      www.OpenFOAM.org                      |
|    \\/     M anipulation  |                                                 |
\*---------------------------------------------------------------------------*/
FoamFile
{
    version     2.0;
    format      ascii;
    class       surfaceScalarField;
    location    "11";
    object      ddt0(phib);
}
// * * * * * * * * * * * * * * * * * * * * * * * * * * * * * * * * * * * * * //

dimensions      [0 3 -2 0 0 0 0];

internalField   nonuniform List<scalar> 
359
(
-2.67877e-14
-6.65784e-14
-1.01398e-13
-1.32149e-13
-1.6106e-13
-1.87748e-13
-2.11795e-13
-2.33129e-13
-2.51943e-13
-2.68553e-13
-2.83254e-13
-2.96373e-13
-3.08194e-13
-3.19053e-13
-3.29232e-13
-3.3906e-13
-3.48762e-13
-3.58608e-13
-3.68767e-13
-3.79413e-13
-3.90669e-13
-4.02629e-13
-4.15452e-13
-4.29128e-13
-4.43795e-13
-4.59423e-13
-4.7605e-13
-4.93681e-13
-5.12338e-13
-5.32025e-13
-5.52655e-13
-5.74285e-13
-5.96884e-13
-6.20397e-13
-6.44807e-13
-6.70086e-13
-6.96214e-13
-7.23116e-13
-7.5085e-13
-7.79265e-13
-8.08424e-13
-8.38254e-13
-8.68664e-13
-8.99702e-13
-9.31308e-13
-9.63453e-13
-9.9613e-13
-1.02924e-12
-1.06281e-12
-1.0968e-12
-1.13123e-12
-1.16602e-12
-1.20119e-12
-1.23668e-12
-1.27246e-12
-1.30853e-12
-1.34491e-12
-1.38149e-12
-1.41836e-12
-1.45542e-12
-1.49272e-12
-1.53017e-12
-1.56778e-12
-1.60557e-12
-1.64351e-12
-1.68154e-12
-1.71971e-12
-1.75799e-12
-1.79633e-12
-1.83468e-12
-1.87312e-12
-1.91157e-12
-1.95006e-12
-1.98853e-12
-2.027e-12
-2.06543e-12
-2.10383e-12
-2.14214e-12
-2.1804e-12
-2.21855e-12
-2.2566e-12
-2.29451e-12
-2.33226e-12
-2.36989e-12
-2.40734e-12
-2.44464e-12
-2.48175e-12
-2.51863e-12
-2.55528e-12
-2.59164e-12
-2.62781e-12
-2.66368e-12
-2.69927e-12
-2.73459e-12
-2.76961e-12
-2.8043e-12
-2.83868e-12
-2.87277e-12
-2.90649e-12
-2.93988e-12
-2.97287e-12
-3.00549e-12
-3.03781e-12
-3.06972e-12
-3.10134e-12
-3.13261e-12
-3.16361e-12
-3.19435e-12
-3.22486e-12
-3.2552e-12
-3.28545e-12
-3.31557e-12
-3.34567e-12
-3.37574e-12
-3.40578e-12
-3.43576e-12
-3.46561e-12
-3.49531e-12
-3.52476e-12
-3.55388e-12
-3.58268e-12
-3.61122e-12
-3.63967e-12
-3.66829e-12
-3.69759e-12
-3.72822e-12
-3.76121e-12
-3.79785e-12
-3.83983e-12
-3.88908e-12
-3.94755e-12
-4.01638e-12
-4.095e-12
-4.17977e-12
-4.2633e-12
-4.33478e-12
-4.38463e-12
-4.40985e-12
-4.41588e-12
-4.412e-12
-4.40501e-12
-4.37501e-12
-4.45684e-12
-4.61668e-12
-4.80419e-12
-5.10303e-12
-5.7039e-12
-8.19469e-12
-1.749e-09
9.06765e-10
-2.42423e-10
-1.60294e-09
-2.48606e-09
-2.763e-09
-2.51646e-09
-1.97911e-09
-1.37089e-09
-9.72953e-10
-7.03042e-10
-5.52762e-10
-4.62986e-10
-4.02797e-10
-3.58822e-10
-3.2444e-10
-2.96145e-10
-2.71995e-10
-2.50841e-10
-2.31967e-10
-2.14907e-10
-1.99339e-10
-1.85034e-10
-1.71824e-10
-1.59579e-10
-1.48196e-10
-1.37593e-10
-1.27701e-10
-1.18462e-10
-1.09826e-10
-1.0175e-10
-9.41955e-11
-8.71274e-11
-8.0515e-11
-7.43299e-11
-6.85462e-11
-6.31402e-11
-5.80897e-11
-5.3374e-11
-4.89741e-11
-4.4872e-11
-4.10508e-11
-3.74946e-11
-3.41883e-11
-3.11179e-11
-2.827e-11
-2.5632e-11
-2.31919e-11
-2.09386e-11
-1.88613e-11
-1.69503e-11
-1.5196e-11
-1.35896e-11
-1.20943e-11
-1.07091e-11
-9.43296e-12
-8.2639e-12
-7.1993e-12
-6.23567e-12
-5.36852e-12
-4.59248e-12
-3.90121e-12
-3.28783e-12
-2.74497e-12
-2.26533e-12
-1.8419e-12
-1.46858e-12
-1.14027e-12
-8.53287e-13
-6.05031e-13
-3.9391e-13
-2.18514e-13
-7.73673e-14
3.16713e-14
1.11467e-13
1.65733e-13
1.98464e-13
2.13936e-13
2.16336e-13
2.08861e-13
1.95424e-13
1.77506e-13
1.5815e-13
1.37416e-13
1.18616e-13
9.95115e-14
7.04873e-14
4.05713e-14
5.10134e-14
5.45013e-14
5.23356e-14
4.62198e-14
3.84087e-14
3.02097e-14
2.26157e-14
1.59581e-14
1.08212e-14
6.73912e-15
4.31045e-15
2.39662e-15
1.73798e-15
1.15639e-15
1.18619e-15
1.3397e-15
1.55872e-15
1.53806e-15
1.49517e-15
1.46823e-15
1.41853e-15
1.38324e-15
1.31768e-15
1.26583e-15
1.20129e-15
1.15058e-15
1.0732e-15
1.02315e-15
9.75448e-16
9.49666e-16
9.17008e-16
8.82067e-16
8.51789e-16
8.25678e-16
7.84593e-16
7.46569e-16
7.24557e-16
7.00574e-16
6.78475e-16
6.47937e-16
6.23645e-16
5.92757e-16
5.65591e-16
5.29649e-16
5.10943e-16
4.91687e-16
4.68327e-16
4.40135e-16
4.21673e-16
4.02328e-16
3.73951e-16
3.36248e-16
3.19466e-16
2.97856e-16
2.71464e-16
2.47103e-16
2.15068e-16
1.90807e-16
1.55595e-16
7.24749e-17
1.27139e-16
1.43554e-16
1.70411e-16
1.73737e-16
1.96619e-16
2.06456e-16
2.12008e-16
2.14895e-16
2.40134e-16
2.4765e-16
2.60981e-16
2.52023e-16
2.60902e-16
2.37244e-16
2.23897e-16
1.86771e-16
2.05868e-16
2.03882e-16
2.04536e-16
1.77431e-16
1.69425e-16
1.31949e-16
9.35099e-17
1.38522e-17
7.36206e-18
-5.4484e-17
-1.09023e-16
-2.38849e-16
-2.82707e-16
-4.44104e-16
-6.12505e-16
-1.17261e-15
-9.68806e-16
-1.25909e-15
-1.55878e-15
-2.21026e-15
-2.55122e-15
-3.36762e-15
-4.16622e-15
-5.49155e-15
-5.9372e-15
-7.02912e-15
-8.1283e-15
-9.9764e-15
-1.13495e-14
-1.34021e-14
-1.55341e-14
-1.83655e-14
-2.10865e-14
-2.41617e-14
-2.72861e-14
-3.03315e-14
-3.36055e-14
-3.61629e-14
-3.89433e-14
-4.32392e-14
-4.51638e-14
-4.733e-14
-4.96626e-14
-5.62214e-14
-4.94291e-14
-6.6495e-14
-1.03848e-13
)
;

boundaryField
{
    inandouthalf11
    {
        type            cyclic;
        value           nonuniform List<scalar> 
100
(
-1.87927e-10
-1.86886e-10
-1.86745e-10
-1.86887e-10
-1.86955e-10
-1.86976e-10
-1.87004e-10
-1.87038e-10
-1.87074e-10
-1.87109e-10
-1.87145e-10
-1.87181e-10
-1.87216e-10
-1.87252e-10
-1.87289e-10
-1.87325e-10
-1.87363e-10
-1.874e-10
-1.87438e-10
-1.87476e-10
-1.87515e-10
-1.87554e-10
-1.87594e-10
-1.87635e-10
-1.87675e-10
-1.87717e-10
-1.87759e-10
-1.87801e-10
-1.87844e-10
-1.87887e-10
-1.87931e-10
-1.87976e-10
-1.88021e-10
-1.88067e-10
-1.88113e-10
-1.8816e-10
-1.88207e-10
-1.88255e-10
-1.88304e-10
-1.88352e-10
-1.88402e-10
-1.88453e-10
-1.88503e-10
-1.88555e-10
-1.88607e-10
-1.8866e-10
-1.88713e-10
-1.88767e-10
-1.88822e-10
-1.88877e-10
-1.88933e-10
-1.8899e-10
-1.89047e-10
-1.89105e-10
-1.89163e-10
-1.89223e-10
-1.89283e-10
-1.89344e-10
-1.89406e-10
-1.89468e-10
-1.89532e-10
-1.89596e-10
-1.89661e-10
-1.89727e-10
-1.89794e-10
-1.89861e-10
-1.8993e-10
-1.89999e-10
-1.9007e-10
-1.90141e-10
-1.90213e-10
-1.90287e-10
-1.90361e-10
-1.90437e-10
-1.90513e-10
-1.90592e-10
-1.9067e-10
-1.9075e-10
-1.90832e-10
-1.90915e-10
-1.90999e-10
-1.91084e-10
-1.91171e-10
-1.91259e-10
-1.91348e-10
-1.91439e-10
-1.91532e-10
-1.91626e-10
-1.91722e-10
-1.9182e-10
-1.91919e-10
-1.92021e-10
-1.92124e-10
-1.92229e-10
-1.92336e-10
-1.92445e-10
-1.92557e-10
-1.92671e-10
-1.92787e-10
-1.92905e-10
)
;
    }
    inandouthalf12
    {
        type            cyclic;
        value           nonuniform List<scalar> 
100
(
1.87927e-10
1.86886e-10
1.86745e-10
1.86887e-10
1.86955e-10
1.86976e-10
1.87004e-10
1.87038e-10
1.87074e-10
1.87109e-10
1.87145e-10
1.87181e-10
1.87216e-10
1.87252e-10
1.87289e-10
1.87325e-10
1.87363e-10
1.874e-10
1.87438e-10
1.87476e-10
1.87515e-10
1.87554e-10
1.87594e-10
1.87635e-10
1.87675e-10
1.87717e-10
1.87759e-10
1.87801e-10
1.87844e-10
1.87887e-10
1.87931e-10
1.87976e-10
1.88021e-10
1.88067e-10
1.88113e-10
1.8816e-10
1.88207e-10
1.88255e-10
1.88304e-10
1.88352e-10
1.88402e-10
1.88453e-10
1.88503e-10
1.88555e-10
1.88607e-10
1.8866e-10
1.88713e-10
1.88767e-10
1.88822e-10
1.88877e-10
1.88933e-10
1.8899e-10
1.89047e-10
1.89105e-10
1.89163e-10
1.89223e-10
1.89283e-10
1.89344e-10
1.89406e-10
1.89468e-10
1.89532e-10
1.89596e-10
1.89661e-10
1.89727e-10
1.89794e-10
1.89861e-10
1.8993e-10
1.89999e-10
1.9007e-10
1.90141e-10
1.90213e-10
1.90287e-10
1.90361e-10
1.90437e-10
1.90513e-10
1.90592e-10
1.9067e-10
1.9075e-10
1.90832e-10
1.90915e-10
1.90999e-10
1.91084e-10
1.91171e-10
1.91259e-10
1.91348e-10
1.91439e-10
1.91532e-10
1.91626e-10
1.91722e-10
1.9182e-10
1.91919e-10
1.92021e-10
1.92124e-10
1.92229e-10
1.92336e-10
1.92445e-10
1.92557e-10
1.92671e-10
1.92787e-10
1.92905e-10
)
;
    }
    inandouthalf21
    {
        type            cyclic;
        value           nonuniform List<scalar> 
100
(
-1.93026e-10
-1.9315e-10
-1.93276e-10
-1.93405e-10
-1.93537e-10
-1.93673e-10
-1.93811e-10
-1.93953e-10
-1.94098e-10
-1.94247e-10
-1.944e-10
-1.94556e-10
-1.94717e-10
-1.94882e-10
-1.95052e-10
-1.95226e-10
-1.95405e-10
-1.95589e-10
-1.95779e-10
-1.95975e-10
-1.96177e-10
-1.96385e-10
-1.966e-10
-1.96823e-10
-1.97053e-10
-1.97292e-10
-1.97539e-10
-1.97796e-10
-1.98063e-10
-1.98342e-10
-1.98631e-10
-1.98932e-10
-1.99246e-10
-1.99576e-10
-1.99925e-10
-2.00296e-10
-2.00686e-10
-2.01106e-10
-2.01576e-10
-2.02118e-10
-2.02706e-10
-2.0339e-10
-2.08266e-10
-2.07553e-10
-2.0848e-10
-2.10011e-10
-2.11538e-10
-2.11466e-10
1.5416e-09
2.79284e-07
2.32122e-07
1.978e-07
2.14566e-07
2.61411e-07
3.31985e-07
4.1897e-07
5.0879e-07
5.87246e-07
6.47721e-07
6.91413e-07
7.22522e-07
7.4505e-07
7.61912e-07
7.75038e-07
7.85667e-07
7.94595e-07
8.0234e-07
8.09246e-07
8.1554e-07
8.2138e-07
8.26876e-07
8.32103e-07
8.37118e-07
8.41958e-07
8.46653e-07
8.51223e-07
8.55683e-07
8.60046e-07
8.64319e-07
8.68509e-07
8.7262e-07
8.76657e-07
8.80621e-07
8.84516e-07
8.88342e-07
8.92102e-07
8.95796e-07
8.99426e-07
9.02992e-07
9.06495e-07
9.09935e-07
9.13314e-07
9.16632e-07
9.19889e-07
9.23086e-07
9.26223e-07
9.29302e-07
9.32322e-07
9.35284e-07
9.38188e-07
)
;
    }
    inandouthalf22
    {
        type            cyclic;
        value           nonuniform List<scalar> 
100
(
1.93026e-10
1.9315e-10
1.93276e-10
1.93405e-10
1.93537e-10
1.93673e-10
1.93811e-10
1.93953e-10
1.94098e-10
1.94247e-10
1.944e-10
1.94556e-10
1.94717e-10
1.94882e-10
1.95052e-10
1.95226e-10
1.95405e-10
1.95589e-10
1.95779e-10
1.95975e-10
1.96177e-10
1.96385e-10
1.966e-10
1.96823e-10
1.97053e-10
1.97292e-10
1.97539e-10
1.97796e-10
1.98063e-10
1.98342e-10
1.98631e-10
1.98932e-10
1.99246e-10
1.99576e-10
1.99925e-10
2.00296e-10
2.00686e-10
2.01106e-10
2.01576e-10
2.02118e-10
2.02706e-10
2.0339e-10
2.08266e-10
2.07553e-10
2.0848e-10
2.10011e-10
2.11538e-10
2.11466e-10
-1.5416e-09
-2.79284e-07
-2.32122e-07
-1.978e-07
-2.14566e-07
-2.61411e-07
-3.31985e-07
-4.1897e-07
-5.0879e-07
-5.87246e-07
-6.47721e-07
-6.91413e-07
-7.22522e-07
-7.4505e-07
-7.61912e-07
-7.75038e-07
-7.85667e-07
-7.94595e-07
-8.0234e-07
-8.09246e-07
-8.1554e-07
-8.2138e-07
-8.26876e-07
-8.32103e-07
-8.37118e-07
-8.41958e-07
-8.46653e-07
-8.51223e-07
-8.55683e-07
-8.60046e-07
-8.64319e-07
-8.68509e-07
-8.7262e-07
-8.76657e-07
-8.80621e-07
-8.84516e-07
-8.88342e-07
-8.92102e-07
-8.95796e-07
-8.99426e-07
-9.02992e-07
-9.06495e-07
-9.09935e-07
-9.13314e-07
-9.16632e-07
-9.19889e-07
-9.23086e-07
-9.26223e-07
-9.29302e-07
-9.32322e-07
-9.35284e-07
-9.38188e-07
)
;
    }
    inandouthalf31
    {
        type            cyclic;
        value           nonuniform List<scalar> 
110
(
9.41039e-07
9.63016e-07
9.85497e-07
1.00849e-06
1.03201e-06
1.05606e-06
1.08065e-06
1.1058e-06
1.13152e-06
1.1578e-06
1.18467e-06
1.21213e-06
1.2402e-06
1.26888e-06
1.29818e-06
1.3281e-06
1.35867e-06
1.38989e-06
1.42176e-06
1.45429e-06
1.48748e-06
1.52136e-06
1.5559e-06
1.59113e-06
1.62705e-06
1.66364e-06
1.70092e-06
1.73888e-06
1.77751e-06
1.81681e-06
1.85677e-06
1.89736e-06
1.93858e-06
1.98039e-06
2.02277e-06
2.06569e-06
2.10911e-06
2.15297e-06
2.19722e-06
2.24179e-06
2.28662e-06
2.33162e-06
2.37672e-06
2.42184e-06
2.46689e-06
2.51182e-06
2.5566e-06
2.60124e-06
2.64579e-06
2.69041e-06
2.73529e-06
2.7807e-06
2.82695e-06
2.87433e-06
2.92312e-06
2.97354e-06
3.02571e-06
3.07971e-06
3.13558e-06
3.19331e-06
3.25289e-06
3.3143e-06
3.37755e-06
3.44263e-06
3.50953e-06
3.57829e-06
3.64891e-06
3.72142e-06
3.79587e-06
3.87229e-06
3.95075e-06
4.03134e-06
4.11416e-06
4.19942e-06
4.28733e-06
4.38075e-06
4.47239e-06
4.56329e-06
4.65592e-06
4.75042e-06
4.84684e-06
4.94522e-06
5.04559e-06
5.14801e-06
5.2525e-06
5.35911e-06
5.46788e-06
5.57887e-06
5.6921e-06
5.80764e-06
5.92552e-06
6.04579e-06
6.1685e-06
6.29371e-06
6.42145e-06
6.55179e-06
6.68477e-06
6.82046e-06
6.9589e-06
7.10014e-06
7.24426e-06
7.3913e-06
7.54132e-06
7.69439e-06
7.85056e-06
8.00991e-06
8.17249e-06
8.33837e-06
8.50761e-06
8.6803e-06
)
;
    }
    inandouthalf32
    {
        type            cyclic;
        value           nonuniform List<scalar> 
110
(
-9.41039e-07
-9.63016e-07
-9.85497e-07
-1.00849e-06
-1.03201e-06
-1.05606e-06
-1.08065e-06
-1.1058e-06
-1.13152e-06
-1.1578e-06
-1.18467e-06
-1.21213e-06
-1.2402e-06
-1.26888e-06
-1.29818e-06
-1.3281e-06
-1.35867e-06
-1.38989e-06
-1.42176e-06
-1.45429e-06
-1.48748e-06
-1.52136e-06
-1.5559e-06
-1.59113e-06
-1.62705e-06
-1.66364e-06
-1.70092e-06
-1.73888e-06
-1.77751e-06
-1.81681e-06
-1.85677e-06
-1.89736e-06
-1.93858e-06
-1.98039e-06
-2.02277e-06
-2.06569e-06
-2.10911e-06
-2.15297e-06
-2.19722e-06
-2.24179e-06
-2.28662e-06
-2.33162e-06
-2.37672e-06
-2.42184e-06
-2.46689e-06
-2.51182e-06
-2.5566e-06
-2.60124e-06
-2.64579e-06
-2.69041e-06
-2.73529e-06
-2.7807e-06
-2.82695e-06
-2.87433e-06
-2.92312e-06
-2.97354e-06
-3.02571e-06
-3.07971e-06
-3.13558e-06
-3.19331e-06
-3.25289e-06
-3.3143e-06
-3.37755e-06
-3.44263e-06
-3.50953e-06
-3.57829e-06
-3.64891e-06
-3.72142e-06
-3.79587e-06
-3.87229e-06
-3.95075e-06
-4.03134e-06
-4.11416e-06
-4.19942e-06
-4.28733e-06
-4.38075e-06
-4.47239e-06
-4.56329e-06
-4.65592e-06
-4.75042e-06
-4.84684e-06
-4.94522e-06
-5.04559e-06
-5.14801e-06
-5.2525e-06
-5.35911e-06
-5.46788e-06
-5.57887e-06
-5.6921e-06
-5.80764e-06
-5.92552e-06
-6.04579e-06
-6.1685e-06
-6.29371e-06
-6.42145e-06
-6.55179e-06
-6.68477e-06
-6.82046e-06
-6.9589e-06
-7.10014e-06
-7.24426e-06
-7.3913e-06
-7.54132e-06
-7.69439e-06
-7.85056e-06
-8.00991e-06
-8.17249e-06
-8.33837e-06
-8.50761e-06
-8.6803e-06
)
;
    }
    inandouthalf41
    {
        type            cyclic;
        value           nonuniform List<scalar> 
50
(
7.76975e-06
7.76975e-06
7.76975e-06
7.76975e-06
7.76975e-06
7.76975e-06
7.76975e-06
7.76975e-06
7.76975e-06
7.76975e-06
7.76975e-06
7.76975e-06
7.76975e-06
7.76975e-06
7.76975e-06
7.76975e-06
7.76975e-06
7.76975e-06
7.76975e-06
7.76975e-06
7.76975e-06
7.76975e-06
7.76975e-06
7.76975e-06
7.76975e-06
7.76975e-06
7.76975e-06
7.76975e-06
7.76975e-06
7.76975e-06
7.76975e-06
7.76975e-06
7.76975e-06
7.76975e-06
7.76975e-06
7.76975e-06
7.76975e-06
7.76975e-06
7.76975e-06
7.76975e-06
7.76975e-06
7.76975e-06
7.76975e-06
7.76975e-06
7.76975e-06
7.76975e-06
7.76975e-06
7.76975e-06
7.76975e-06
7.76975e-06
)
;
    }
    inandouthalf42
    {
        type            cyclic;
        value           nonuniform List<scalar> 
50
(
-7.76975e-06
-7.76975e-06
-7.76975e-06
-7.76975e-06
-7.76975e-06
-7.76975e-06
-7.76975e-06
-7.76975e-06
-7.76975e-06
-7.76975e-06
-7.76975e-06
-7.76975e-06
-7.76975e-06
-7.76975e-06
-7.76975e-06
-7.76975e-06
-7.76975e-06
-7.76975e-06
-7.76975e-06
-7.76975e-06
-7.76975e-06
-7.76975e-06
-7.76975e-06
-7.76975e-06
-7.76975e-06
-7.76975e-06
-7.76975e-06
-7.76975e-06
-7.76975e-06
-7.76975e-06
-7.76975e-06
-7.76975e-06
-7.76975e-06
-7.76975e-06
-7.76975e-06
-7.76975e-06
-7.76975e-06
-7.76975e-06
-7.76975e-06
-7.76975e-06
-7.76975e-06
-7.76975e-06
-7.76975e-06
-7.76975e-06
-7.76975e-06
-7.76975e-06
-7.76975e-06
-7.76975e-06
-7.76975e-06
-7.76975e-06
)
;
    }
    top
    {
        type            symmetryPlane;
        value           uniform 0;
    }
    walls
    {
        type            calculated;
        value           uniform 0;
    }
    frontAndBackPlanes
    {
        type            empty;
        value           nonuniform 0();
    }
}


// ************************************************************************* //
