/*--------------------------------*- C++ -*----------------------------------*\
| =========                 |                                                 |
| \\      /  F ield         | OpenFOAM: The Open Source CFD Toolbox           |
|  \\    /   O peration     | Version:  2.4.x                                 |
|   \\  /    A nd           | Web:      www.OpenFOAM.org                      |
|    \\/     M anipulation  |                                                 |
\*---------------------------------------------------------------------------*/
FoamFile
{
    version     2.0;
    format      ascii;
    class       volScalarField;
    location    "11";
    object      ddt0(epsilon);
}
// * * * * * * * * * * * * * * * * * * * * * * * * * * * * * * * * * * * * * //

dimensions      [0 2 -4 0 0 0 0];

internalField   nonuniform List<scalar> 
360
(
0
0
0
0
0
0
0
0
0
0
0
0
0
0
0
0
0
0
0
0
0
0
0
0
0
0
0
0
0
0
0
0
0
0
0
0
0
0
0
0
0
0
0
0
0
0
0
0
0
0
0
0
0
0
0
0
0
0
0
0
0
0
0
0
0
0
0
0
0
0
0
0
0
0
0
0
0
0
0
0
0
0
0
0
0
0
0
0
0
0
0
0
0
0
0
0
0
0
0
0
0
0
0
0
0
0
0
0
0
0
0
0
0
0
0
0
0
0
0
0
0
0
0
0
0
0
0
0
8.71088e-192
-5.73161e-20
-1.40396e-19
-3.01963e-19
-6.22519e-19
-1.24898e-18
-2.47934e-18
-4.94962e-18
-9.90926e-18
-1.88282e-17
-2.57235e-17
1.20023e-16
3.43497e-15
7.60624e-14
1.8933e-12
5.36432e-11
1.78207e-09
7.06983e-08
3.37605e-06
0.000195787
0.013073
0.381663
0.405921
0.338209
0.35172
0.3435
0.301683
0.235701
0.165778
0.108619
0.068868
0.0432838
0.0270947
0.0166647
0.00970886
0.00487832
0.00138363
-0.00124407
-0.00329007
-0.00493271
-0.00628651
-0.00742689
-0.00840469
-0.00925488
-0.0100021
-0.010664
-0.0112533
-0.0117795
-0.0122499
-0.0126699
-0.0130439
-0.0133754
-0.0136672
-0.0139217
-0.0141411
-0.014327
-0.0144811
-0.014605
-0.0147
-0.0147674
-0.0148085
-0.0148244
-0.0148163
-0.0147854
-0.0147327
-0.0146594
-0.0145664
-0.0144549
-0.0143259
-0.0141803
-0.0140191
-0.0138434
-0.013654
-0.0134498
-0.0132291
-0.012992
-0.0127386
-0.0124691
-0.0121838
-0.0118829
-0.0115668
-0.0112359
-0.0108906
-0.0105313
-0.0101586
-0.0097731
-0.00937548
-0.00896645
-0.00854681
-0.00811743
-0.00767925
-0.0072333
-0.00678068
-0.0063226
-0.00586035
-0.00539529
-0.00492892
-0.00446283
-0.00399871
-0.00353837
-0.00308376
-0.00263694
-0.00220008
-0.00177553
-0.00136573
-0.000973265
-0.000600849
-0.000251296
7.24981e-05
0.000367592
0.000631047
0.000860009
0.00105183
0.0012042
0.00131534
0.00138426
0.00141097
0.00139678
0.00134458
0.00125894
0.00114619
0.00101406
0.000871199
0.000726326
0.000587287
0.000460248
0.000349215
0.000256003
0.000180585
0.000121645
7.71586e-05
4.48457e-05
2.24725e-05
8.00952e-06
-3.08743e-07
-3.98152e-06
-4.26576e-06
-2.20973e-06
1.31251e-06
5.56903e-06
9.94092e-06
1.38964e-05
1.69681e-05
1.87326e-05
1.8776e-05
1.65579e-05
1.14339e-05
2.65801e-06
9.63384e-08
1.21521e-09
1.36441e-11
1.4423e-13
1.43719e-15
1.35052e-17
1.15809e-19
0
0
0
0
0
0
0
0
0
0
0
0
0
0
0
0
0
0
0
0
0
0
0
0
0
0
0
0
0
0
0
0
0
0
0
0
0
0
0
0
0
0
0
0
0
0
0
0
0
0
0
0
0
0
0
0
0
0
0
0
0
0
0
0
0
0
0
0
0
0
0
0
0
0
0
0
0
)
;

boundaryField
{
    inandouthalf11
    {
        type            cyclic;
    }
    inandouthalf12
    {
        type            cyclic;
    }
    inandouthalf21
    {
        type            cyclic;
    }
    inandouthalf22
    {
        type            cyclic;
    }
    inandouthalf31
    {
        type            cyclic;
    }
    inandouthalf32
    {
        type            cyclic;
    }
    inandouthalf41
    {
        type            cyclic;
    }
    inandouthalf42
    {
        type            cyclic;
    }
    top
    {
        type            symmetryPlane;
    }
    walls
    {
        type            calculated;
        value           uniform 0;
    }
    frontAndBackPlanes
    {
        type            empty;
    }
}


// ************************************************************************* //
