/*--------------------------------*- C++ -*----------------------------------*\
| =========                 |                                                 |
| \\      /  F ield         | OpenFOAM: The Open Source CFD Toolbox           |
|  \\    /   O peration     | Version:  2.4.x                                 |
|   \\  /    A nd           | Web:      www.OpenFOAM.org                      |
|    \\/     M anipulation  |                                                 |
\*---------------------------------------------------------------------------*/
FoamFile
{
    version     2.0;
    format      ascii;
    class       volScalarField;
    location    "11";
    object      ddt0(((1.5*(alpha+1e-08))*rho),Theta);
}
// * * * * * * * * * * * * * * * * * * * * * * * * * * * * * * * * * * * * * //

dimensions      [1 -1 -3 0 0 0 0];

internalField   nonuniform List<scalar> 
360
(
-5.18853e-23
-1.52752e-22
-1.01893e-22
-8.80095e-23
-8.81021e-23
-8.30969e-23
-7.41014e-23
-6.49705e-23
-5.6752e-23
-4.95281e-23
-4.33133e-23
-3.81143e-23
-3.39315e-23
-3.07324e-23
-2.84464e-23
-2.69744e-23
-2.61995e-23
-2.60037e-23
-2.6283e-23
-2.69435e-23
-2.7903e-23
-2.90991e-23
-3.04793e-23
-3.19987e-23
-3.36238e-23
-3.53268e-23
-3.70901e-23
-3.89035e-23
-4.07503e-23
-4.26168e-23
-4.45025e-23
-4.63979e-23
-4.82969e-23
-5.02025e-23
-5.21005e-23
-5.39809e-23
-5.58488e-23
-5.7711e-23
-5.95482e-23
-6.13492e-23
-6.31359e-23
-6.48838e-23
-6.6585e-23
-6.82659e-23
-6.9912e-23
-7.15162e-23
-7.30612e-23
-7.45368e-23
-7.59965e-23
-7.74304e-23
-7.87877e-23
-8.009e-23
-8.13544e-23
-8.25617e-23
-8.37178e-23
-8.48294e-23
-8.58809e-23
-8.68748e-23
-8.77894e-23
-8.86404e-23
-8.9467e-23
-9.02475e-23
-9.09768e-23
-9.16451e-23
-9.22351e-23
-9.27605e-23
-9.32371e-23
-9.36451e-23
-9.39489e-23
-9.41858e-23
-9.44172e-23
-9.45891e-23
-9.46598e-23
-9.4688e-23
-9.46891e-23
-9.46196e-23
-9.44427e-23
-9.41751e-23
-9.38483e-23
-9.34514e-23
-9.29811e-23
-9.24631e-23
-9.19094e-23
-9.13115e-23
-9.06644e-23
-8.99624e-23
-8.91955e-23
-8.83516e-23
-8.7432e-23
-8.64484e-23
-8.54096e-23
-8.43268e-23
-8.32133e-23
-8.20741e-23
-8.09075e-23
-7.97106e-23
-7.84796e-23
-7.72132e-23
-7.59155e-23
-7.4596e-23
-7.32687e-23
-7.19514e-23
-7.06646e-23
-6.94288e-23
-6.8265e-23
-6.7193e-23
-6.62309e-23
-6.53933e-23
-6.46888e-23
-6.41172e-23
-6.36667e-23
-6.33114e-23
-6.30097e-23
-6.27061e-23
-6.23348e-23
-6.18292e-23
-6.11353e-23
-6.02297e-23
-5.91374e-23
-5.79478e-23
-5.68245e-23
-5.60099e-23
-5.58307e-23
-5.67157e-23
-5.92444e-23
-6.42418e-23
-7.29399e-23
-8.71904e-23
-1.46105e-22
-1.17188e-16
-2.75525e-16
-5.74179e-16
-1.14183e-15
-2.18812e-15
-4.09691e-15
-7.61405e-15
-1.40423e-14
-2.44856e-14
-3.32288e-14
1.8783e-14
8.5894e-13
1.61245e-11
3.35685e-10
7.85458e-09
2.11925e-07
8.64383e-06
0.00144887
0.0940137
1.43577
5.59121
3.65651
2.16161
1.52669
1.03278
0.628068
0.345875
0.181275
0.0962232
0.0535448
0.030843
0.0176512
0.00942251
0.00399061
0.000269727
-0.0023479
-0.00422054
-0.00557202
-0.00654784
-0.00724675
-0.00773737
-0.00806903
-0.00827766
-0.00839009
-0.00842674
-0.0084032
-0.00833165
-0.0082217
-0.00808104
-0.00791579
-0.007731
-0.00753073
-0.0073184
-0.00709679
-0.00686829
-0.00663486
-0.00639818
-0.00615967
-0.00592053
-0.0056818
-0.00544434
-0.00520891
-0.00497615
-0.00474661
-0.00452078
-0.00429905
-0.00408181
-0.00386939
-0.0036621
-0.00346022
-0.00326404
-0.00307383
-0.00288799
-0.00270521
-0.00252606
-0.00235116
-0.00218109
-0.00201641
-0.00185764
-0.00170521
-0.00155947
-0.00142069
-0.00128904
-0.00116459
-0.00104738
-0.000937368
-0.000834506
-0.000738743
-0.000650035
-0.000568357
-0.000493689
-0.000425793
-0.00036468
-0.000310078
-0.000261652
-0.000219007
-0.000181702
-0.00014927
-0.000121256
-9.72477e-05
-7.67355e-05
-5.95742e-05
-4.4983e-05
-3.32482e-05
-2.31688e-05
-1.5543e-05
-8.50064e-06
0
0
0
0
0
0
0
0
0
0
0
0
0
0
0
0
0
0
0
0
0
0
0
0
0
0
0
0
0
0
0
0
0
0
0
0
0
0
0
0
0
0
0
0
0
0
0
0
0
0
0
0
0
0
0
0
0
0
0
0
0
0
0
0
0
0
0
0
0
0
0
0
0
0
0
0
0
0
0
0
0
0
0
0
0
0
0
0
0
0
0
0
0
0
0
0
0
0
0
0
0
0
0
0
0
0
0
0
0
0
0
0
0
0
0
0
0
0
0
0
0
0
0
0
)
;

boundaryField
{
    inandouthalf11
    {
        type            cyclic;
    }
    inandouthalf12
    {
        type            cyclic;
    }
    inandouthalf21
    {
        type            cyclic;
    }
    inandouthalf22
    {
        type            cyclic;
    }
    inandouthalf31
    {
        type            cyclic;
    }
    inandouthalf32
    {
        type            cyclic;
    }
    inandouthalf41
    {
        type            cyclic;
    }
    inandouthalf42
    {
        type            cyclic;
    }
    top
    {
        type            symmetryPlane;
    }
    walls
    {
        type            calculated;
        value           uniform -5.18853e-23;
    }
    frontAndBackPlanes
    {
        type            empty;
    }
}


// ************************************************************************* //
