/*--------------------------------*- C++ -*----------------------------------*\
| =========                 |                                                 |
| \\      /  F ield         | OpenFOAM: The Open Source CFD Toolbox           |
|  \\    /   O peration     | Version:  2.4.x                                 |
|   \\  /    A nd           | Web:      www.OpenFOAM.org                      |
|    \\/     M anipulation  |                                                 |
\*---------------------------------------------------------------------------*/
FoamFile
{
    version     2.0;
    format      ascii;
    class       volScalarField;
    location    "11";
    object      epsilon_0;
}
// * * * * * * * * * * * * * * * * * * * * * * * * * * * * * * * * * * * * * //

dimensions      [0 2 -3 0 0 0 0];

internalField   nonuniform List<scalar> 
360
(
1.60309e-27
1e-20
1e-20
1e-20
1e-20
1e-20
1e-20
1e-20
1e-20
1e-20
1e-20
1e-20
1e-20
1e-20
1e-20
1e-20
1e-20
1e-20
1e-20
1e-20
1e-20
1e-20
1e-20
1e-20
1e-20
1e-20
1e-20
1e-20
1e-20
1e-20
1e-20
1e-20
1e-20
1e-20
1e-20
1e-20
1e-20
1e-20
1e-20
1e-20
1e-20
1e-20
1e-20
1e-20
1e-20
1e-20
1e-20
1e-20
1e-20
1e-20
1e-20
1e-20
1e-20
1e-20
1e-20
1e-20
1e-20
1e-20
1e-20
1e-20
1e-20
1e-20
1e-20
1e-20
1e-20
1e-20
1e-20
1e-20
1e-20
1e-20
1e-20
1e-20
1e-20
1e-20
1e-20
1e-20
1e-20
1e-20
1e-20
1e-20
1e-20
1e-20
1e-20
1e-20
1e-20
1e-20
1e-20
1e-20
1e-20
1e-20
1e-20
1e-20
1e-20
1e-20
1e-20
1e-20
1e-20
1e-20
1e-20
1e-20
1e-20
1e-20
1e-20
1e-20
1e-20
1e-20
1e-20
1e-20
1e-20
1e-20
1e-20
1e-20
1e-20
1e-20
1e-20
1e-20
1e-20
1e-20
1e-20
1e-20
1e-20
1e-20
1e-20
1e-20
1e-20
1e-20
1e-20
1e-20
1e-20
1.09199e-20
2.13001e-20
4.25165e-20
8.23238e-20
1.55064e-19
2.86507e-19
5.21924e-19
9.34606e-19
1.67965e-18
3.92474e-18
2.44555e-17
3.69806e-16
7.30103e-15
1.70657e-13
4.62464e-12
1.48583e-10
5.74076e-09
2.68045e-07
1.52457e-05
0.00103074
0.0437264
0.184446
0.164534
0.128366
0.0937791
0.0655385
0.0447385
0.0307384
0.0219055
0.0164823
0.0131321
0.0110104
0.00962575
0.00869774
0.0080636
0.00762594
0.00732431
0.00711973
0.00698621
0.0069058
0.00686577
0.00685678
0.00687185
0.00690565
0.00695397
0.0070135
0.00708153
0.00715585
0.00723463
0.00731632
0.00739963
0.00748342
0.00756677
0.00764885
0.00772895
0.00780648
0.0078809
0.00795177
0.00801871
0.00808138
0.00813951
0.00819287
0.00824126
0.00828454
0.00832258
0.00835529
0.00838261
0.0084045
0.00842094
0.00843193
0.00843751
0.0084377
0.00843251
0.00842168
0.00840494
0.00838205
0.00835272
0.00831672
0.00827379
0.00822366
0.00816612
0.00810091
0.00802781
0.00794661
0.0078571
0.00775911
0.00765247
0.00753703
0.00741266
0.00727927
0.0071368
0.00698521
0.00682451
0.00665473
0.00647596
0.00628835
0.00609209
0.00588742
0.00567466
0.00545422
0.00522653
0.00499217
0.00475177
0.00450607
0.00425592
0.00400225
0.00374616
0.00348883
0.00323156
0.00297582
0.00272314
0.00247521
0.00223377
0.00200063
0.00177764
0.00156659
0.00136917
0.00118688
0.00102094
0.000872182
0.000740964
0.000627129
0.000529982
0.000448345
0.000380661
0.000325133
0.000279883
0.000243079
0.000213043
0.0001883
0.000167603
0.000149928
0.000134453
0.000120537
0.000107694
9.55723e-05
8.39327e-05
7.26354e-05
6.16254e-05
5.09229e-05
4.06151e-05
3.08505e-05
2.18379e-05
1.38495e-05
7.23417e-06
2.41384e-06
2.75446e-07
6.68284e-09
8.01891e-11
8.81458e-13
9.13123e-15
8.92354e-17
8.30646e-19
1.54856e-20
1e-20
1e-20
1e-20
1e-20
1e-20
1e-20
1e-20
1e-20
1e-20
1e-20
1e-20
1e-20
1e-20
1e-20
1e-20
1e-20
1e-20
1e-20
1e-20
1e-20
1e-20
1e-20
1e-20
1e-20
1e-20
1e-20
1e-20
1e-20
1e-20
1e-20
1e-20
1e-20
1e-20
1e-20
1e-20
1e-20
1e-20
1e-20
1e-20
1e-20
1e-20
1e-20
1e-20
1e-20
1e-20
1e-20
1e-20
1e-20
1e-20
1e-20
1e-20
1e-20
1e-20
1e-20
1e-20
1e-20
1e-20
1e-20
1e-20
1e-20
1e-20
1e-20
1e-20
1e-20
1e-20
1e-20
1e-20
1e-20
1e-20
1e-20
1e-20
1e-20
1e-20
1e-20
1e-20
1e-20
1e-20
)
;

boundaryField
{
    inandouthalf11
    {
        type            cyclic;
    }
    inandouthalf12
    {
        type            cyclic;
    }
    inandouthalf21
    {
        type            cyclic;
    }
    inandouthalf22
    {
        type            cyclic;
    }
    inandouthalf31
    {
        type            cyclic;
    }
    inandouthalf32
    {
        type            cyclic;
    }
    inandouthalf41
    {
        type            cyclic;
    }
    inandouthalf42
    {
        type            cyclic;
    }
    top
    {
        type            symmetryPlane;
    }
    walls
    {
        type            zeroGradient;
    }
    frontAndBackPlanes
    {
        type            empty;
    }
}


// ************************************************************************* //
