/*--------------------------------*- C++ -*----------------------------------*\
| =========                 |                                                 |
| \\      /  F ield         | OpenFOAM: The Open Source CFD Toolbox           |
|  \\    /   O peration     | Version:  2.4.x                                 |
|   \\  /    A nd           | Web:      www.OpenFOAM.org                      |
|    \\/     M anipulation  |                                                 |
\*---------------------------------------------------------------------------*/
FoamFile
{
    version     2.0;
    format      ascii;
    class       volScalarField;
    location    "11";
    object      epsilon;
}
// * * * * * * * * * * * * * * * * * * * * * * * * * * * * * * * * * * * * * //

dimensions      [0 2 -3 0 0 0 0];

internalField   nonuniform List<scalar> 
360
(
1e-20
1e-20
1e-20
1e-20
1e-20
1e-20
1e-20
1e-20
1e-20
1e-20
1e-20
1e-20
1e-20
1e-20
1e-20
1e-20
1e-20
1e-20
1e-20
1e-20
1e-20
1e-20
1e-20
1e-20
1e-20
1e-20
1e-20
1e-20
1e-20
1e-20
1e-20
1e-20
1e-20
1e-20
1e-20
1e-20
1e-20
1e-20
1e-20
1e-20
1e-20
1e-20
1e-20
1e-20
1e-20
1e-20
1e-20
1e-20
1e-20
1e-20
1e-20
1e-20
1e-20
1e-20
1e-20
1e-20
1e-20
1e-20
1e-20
1e-20
1e-20
1e-20
1e-20
1e-20
1e-20
1e-20
1e-20
1e-20
1e-20
1e-20
1e-20
1e-20
1e-20
1e-20
1e-20
1e-20
1e-20
1e-20
1e-20
1e-20
1e-20
1e-20
1e-20
1e-20
1e-20
1e-20
1e-20
1e-20
1e-20
1e-20
1e-20
1e-20
1e-20
1e-20
1e-20
1e-20
1e-20
1e-20
1e-20
1e-20
1e-20
1e-20
1e-20
1e-20
1e-20
1e-20
1e-20
1e-20
1e-20
1e-20
1e-20
1e-20
1e-20
1e-20
1e-20
1e-20
1e-20
1e-20
1e-20
1e-20
1e-20
1e-20
1e-20
1e-20
1e-20
1e-20
1e-20
1e-20
1e-20
1.09085e-20
2.12722e-20
4.24564e-20
8.22e-20
1.54815e-19
2.86013e-19
5.20939e-19
9.32635e-19
1.67591e-18
3.91963e-18
2.44795e-17
3.70491e-16
7.3162e-15
1.71035e-13
4.63535e-12
1.48939e-10
5.75487e-09
2.68719e-07
1.52847e-05
0.00103335
0.0438025
0.184527
0.164601
0.128436
0.0938475
0.0655986
0.0447854
0.0307714
0.0219272
0.0164961
0.0131408
0.0110158
0.00962908
0.00869967
0.00806457
0.00762622
0.00732406
0.00711908
0.00698523
0.00690455
0.00686429
0.0068551
0.00687001
0.00690365
0.00695185
0.00701126
0.00707919
0.00715342
0.00723211
0.00731373
0.00739696
0.0074807
0.007564
0.00764603
0.0077261
0.00780359
0.00787799
0.00794884
0.00801576
0.00807843
0.00813656
0.00818992
0.00823832
0.00828161
0.00831966
0.00835239
0.00837973
0.00840165
0.00841811
0.00842914
0.00843475
0.00843498
0.00842983
0.00841904
0.00840236
0.00837951
0.00835024
0.0083143
0.00827142
0.00822136
0.00816388
0.00809874
0.00802571
0.00794458
0.00785516
0.00775725
0.00765068
0.00753532
0.00741104
0.00727774
0.00713536
0.00698386
0.00682325
0.00665356
0.00647489
0.00628737
0.0060912
0.00588662
0.00567396
0.0054536
0.00522601
0.00499174
0.00475142
0.0045058
0.00425572
0.00400213
0.00374611
0.00348884
0.00323164
0.00297594
0.00272331
0.00247542
0.00223401
0.0020009
0.00177792
0.00156687
0.00136945
0.00118715
0.00102119
0.00087241
0.000741166
0.000627302
0.000530127
0.000448462
0.000380753
0.000325203
0.000279934
0.000243115
0.000213067
0.000188316
0.000167612
0.000149932
0.000134454
0.000120537
0.000107693
9.55715e-05
8.39323e-05
7.26356e-05
6.16265e-05
5.09249e-05
4.06178e-05
3.08539e-05
2.18417e-05
1.38532e-05
7.23747e-06
2.41612e-06
2.75976e-07
6.70206e-09
8.04316e-11
8.84181e-13
9.16002e-15
8.95223e-17
8.33341e-19
1.55087e-20
1e-20
1e-20
1e-20
1e-20
1e-20
1e-20
1e-20
1e-20
1e-20
1e-20
1e-20
1e-20
1e-20
1e-20
1e-20
1e-20
1e-20
1e-20
1e-20
1e-20
1e-20
1e-20
1e-20
1e-20
1e-20
1e-20
1e-20
1e-20
1e-20
1e-20
1e-20
1e-20
1e-20
1e-20
1e-20
1e-20
1e-20
1e-20
1e-20
1e-20
1e-20
1e-20
1e-20
1e-20
1e-20
1e-20
1e-20
1e-20
1e-20
1e-20
1e-20
1e-20
1e-20
1e-20
1e-20
1e-20
1e-20
1e-20
1e-20
1e-20
1e-20
1e-20
1e-20
1e-20
1e-20
1e-20
1e-20
1e-20
1e-20
1e-20
1e-20
1e-20
1e-20
1e-20
1e-20
1e-20
1e-20
)
;

boundaryField
{
    inandouthalf11
    {
        type            cyclic;
    }
    inandouthalf12
    {
        type            cyclic;
    }
    inandouthalf21
    {
        type            cyclic;
    }
    inandouthalf22
    {
        type            cyclic;
    }
    inandouthalf31
    {
        type            cyclic;
    }
    inandouthalf32
    {
        type            cyclic;
    }
    inandouthalf41
    {
        type            cyclic;
    }
    inandouthalf42
    {
        type            cyclic;
    }
    top
    {
        type            symmetryPlane;
    }
    walls
    {
        type            zeroGradient;
    }
    frontAndBackPlanes
    {
        type            empty;
    }
}


// ************************************************************************* //
