/*--------------------------------*- C++ -*----------------------------------*\
| =========                 |                                                 |
| \\      /  F ield         | OpenFOAM: The Open Source CFD Toolbox           |
|  \\    /   O peration     | Version:  2.4.x                                 |
|   \\  /    A nd           | Web:      www.OpenFOAM.org                      |
|    \\/     M anipulation  |                                                 |
\*---------------------------------------------------------------------------*/
FoamFile
{
    version     2.0;
    format      ascii;
    class       volVectorField;
    location    "11";
    object      gradPf;
}
// * * * * * * * * * * * * * * * * * * * * * * * * * * * * * * * * * * * * * //

dimensions      [0 1 -2 0 0 0 0];

internalField   nonuniform List<vector> 
360
(
(0 72.3164 0)
(0 80.8438 0)
(0 -0.0517396 0)
(0 -12.6685 0)
(-3.34409e-14 -5.23776 0)
(-3.34416e-14 -2.83917 0)
(-3.34426e-14 -3.62998 0)
(0 -4.12126 0)
(-3.3445e-14 -4.16086 0)
(0 -4.16551 0)
(-3.34475e-14 -4.14928 0)
(0 -4.13447 0)
(-3.345e-14 -4.13831 0)
(0 -4.14308 0)
(0 -4.15879 0)
(0 -4.17474 0)
(0 -4.1806 0)
(-3.34565e-14 -4.18265 0)
(0 -4.20158 0)
(0 -4.2052 0)
(0 -4.20978 0)
(-3.3462e-14 -4.22982 0)
(0 -4.23501 0)
(0 -4.24584 0)
(0 -4.25723 0)
(-3.34677e-14 -4.25963 0)
(0 -4.27446 0)
(0 -4.29052 0)
(0 -4.29176 0)
(0 -4.29844 0)
(0 -4.3206 0)
(0 -4.3151 0)
(0 -4.33137 0)
(0 -4.34837 0)
(0 -4.34494 0)
(1.67415e-14 -4.3553 0)
(0 -4.36249 0)
(0 -4.3902 0)
(0 -4.37326 0)
(0 -4.38672 0)
(0 -4.41798 0)
(0 -4.39271 0)
(1.67473e-14 -4.41505 0)
(0 -4.43134 0)
(0 -4.42581 0)
(0 -4.45084 0)
(0 -4.43663 0)
(0 -4.43639 0)
(0 -4.48068 0)
(0 -4.46742 0)
(1.67547e-14 -4.46218 0)
(0 -4.48323 0)
(0 -4.49004 0)
(0 -4.48585 0)
(0 -4.50209 0)
(0 -4.50653 0)
(0 -4.50684 0)
(0 -4.52662 0)
(0 -4.5054 0)
(0 -4.52979 0)
(0 -4.53753 0)
(0 -4.53424 0)
(0 -4.54928 0)
(0 -4.54629 0)
(0 -4.5494 0)
(0 -4.55568 0)
(0 -4.56923 0)
(0 -4.56935 0)
(0 -4.55715 0)
(0 -4.57184 0)
(0 -4.59814 0)
(0 -4.5764 0)
(0 -4.57845 0)
(0 -4.59636 0)
(0 -4.60131 0)
(0 -4.60163 0)
(0 -4.59441 0)
(0 -4.60498 0)
(0 -4.61217 0)
(0 -4.60985 0)
(0 -4.6113 0)
(0 -4.61968 0)
(0 -4.622 0)
(0 -4.62449 0)
(0 -4.62725 0)
(0 -4.63049 0)
(0 -4.63246 0)
(0 -4.63202 0)
(0 -4.63456 0)
(0 -4.63714 0)
(0 -4.63818 0)
(0 -4.6406 0)
(0 -4.64367 0)
(0 -4.64543 0)
(0 -4.6469 0)
(0 -4.64809 0)
(0 -4.64869 0)
(0 -4.64889 0)
(0 -4.6491 0)
(0 -4.64921 0)
(0 -4.64908 0)
(0 -4.64888 0)
(0 -4.64842 0)
(0 -4.64744 0)
(0 -4.64595 0)
(0 -4.64391 0)
(0 -4.64128 0)
(0 -4.63804 0)
(0 -4.63417 0)
(0 -4.62961 0)
(0 -4.62431 0)
(0 -4.61823 0)
(0 -4.61134 0)
(0 -4.60363 0)
(0 -4.59512 0)
(0 -4.58583 0)
(0 -4.57581 0)
(0 -4.56513 0)
(0 -4.55385 0)
(0 -4.54203 0)
(0 -4.5296 0)
(0 -4.51638 0)
(0 -4.50203 0)
(0 -4.48623 0)
(0 -4.46894 0)
(0 -4.45067 0)
(0 -4.43249 0)
(0 -4.41516 0)
(0 -4.39764 0)
(0 -4.37644 0)
(0 -4.34903 0)
(0 -4.3223 0)
(0 -4.31538 0)
(0 -4.33868 0)
(0 -4.36687 0)
(0 -4.36575 0)
(0 -4.36065 0)
(0 -4.4434 0)
(0 -4.64967 0)
(0 -4.75754 0)
(0 -4.88543 0)
(0 -14.4476 0)
(0 -10.6822 0)
(0 -0.264501 0)
(0 -3.76386 0)
(0 -3.90141 0)
(0 -3.26627 0)
(0 -6.17828 0)
(0 -6.418 0)
(0 -3.19605 0)
(0 0 0)
(0 0 0)
(0 0 0)
(0 0 0)
(0 0 0)
(0 0 0)
(0 0 0)
(0 0 0)
(0 0 0)
(0 0 0)
(0 0 0)
(0 0 0)
(0 0 0)
(0 0 0)
(0 0 0)
(0 0 0)
(0 0 0)
(0 0 0)
(0 0 0)
(0 0 0)
(0 0 0)
(0 0 0)
(0 0 0)
(0 0 0)
(0 0 0)
(0 0 0)
(0 0 0)
(0 0 0)
(0 0 0)
(0 0 0)
(0 0 0)
(0 0 0)
(0 0 0)
(0 0 0)
(0 0 0)
(0 0 0)
(0 0 0)
(0 0 0)
(0 0 0)
(0 0 0)
(0 0 0)
(0 0 0)
(0 0 0)
(0 0 0)
(0 0 0)
(0 0 0)
(0 0 0)
(0 0 0)
(0 0 0)
(0 0 0)
(0 0 0)
(0 0 0)
(0 0 0)
(0 0 0)
(0 0 0)
(0 0 0)
(0 0 0)
(0 0 0)
(0 0 0)
(0 0 0)
(0 0 0)
(0 0 0)
(0 0 0)
(0 0 0)
(0 0 0)
(0 0 0)
(0 0 0)
(0 0 0)
(0 0 0)
(0 0 0)
(0 0 0)
(0 0 0)
(0 0 0)
(0 0 0)
(0 0 0)
(0 0 0)
(0 0 0)
(0 0 0)
(0 0 0)
(0 0 0)
(0 0 0)
(0 0 0)
(0 0 0)
(0 0 0)
(0 0 0)
(0 0 0)
(0 0 0)
(0 0 0)
(0 0 0)
(0 0 0)
(0 0 0)
(0 0 0)
(0 0 0)
(0 0 0)
(0 0 0)
(0 0 0)
(0 0 0)
(0 0 0)
(0 0 0)
(0 0 0)
(0 0 0)
(0 0 0)
(0 0 0)
(0 0 0)
(0 0 0)
(0 0 0)
(0 0 0)
(0 0 0)
(0 0 0)
(0 0 0)
(0 0 0)
(0 0 0)
(0 0 0)
(0 0 0)
(0 0 0)
(0 0 0)
(0 0 0)
(0 0 0)
(0 0 0)
(0 0 0)
(0 0 0)
(0 0 0)
(0 0 0)
(0 0 0)
(0 0 0)
(0 0 0)
(0 0 0)
(0 0 0)
(0 0 0)
(0 0 0)
(0 0 0)
(0 0 0)
(0 0 0)
(0 0 0)
(0 0 0)
(0 0 0)
(0 0 0)
(0 0 0)
(0 0 0)
(0 0 0)
(0 0 0)
(0 0 0)
(0 0 0)
(0 0 0)
(0 0 0)
(0 0 0)
(0 0 0)
(0 0 0)
(0 0 0)
(0 0 0)
(0 0 0)
(0 0 0)
(0 0 0)
(0 0 0)
(0 0 0)
(0 0 0)
(0 0 0)
(0 0 0)
(0 0 0)
(0 0 0)
(0 0 0)
(0 0 0)
(0 0 0)
(0 0 0)
(0 0 0)
(0 0 0)
(0 0 0)
(0 0 0)
(0 0 0)
(0 0 0)
(0 0 0)
(0 0 0)
(0 0 0)
(0 0 0)
(0 0 0)
(0 0 0)
(0 0 0)
(0 0 0)
(0 0 0)
(0 0 0)
(0 0 0)
(0 0 0)
(0 0 0)
(0 0 0)
(0 0 0)
(0 0 0)
(0 0 0)
(0 0 0)
(0 0 0)
(0 0 0)
(0 0 0)
(0 0 0)
(0 0 0)
(0 0 0)
(0 0 0)
(0 0 0)
(0 0 0)
(0 0 0)
(0 0 0)
(0 0 0)
(0 0 0)
(0 0 0)
(0 0 0)
(0 0 0)
(0 0 0)
(0 0 0)
(0 0 0)
(0 0 0)
(0 0 0)
(0 0 0)
)
;

boundaryField
{
    inandouthalf11
    {
        type            cyclic;
    }
    inandouthalf12
    {
        type            cyclic;
    }
    inandouthalf21
    {
        type            cyclic;
    }
    inandouthalf22
    {
        type            cyclic;
    }
    inandouthalf31
    {
        type            cyclic;
    }
    inandouthalf32
    {
        type            cyclic;
    }
    inandouthalf41
    {
        type            cyclic;
    }
    inandouthalf42
    {
        type            cyclic;
    }
    top
    {
        type            symmetryPlane;
    }
    walls
    {
        type            calculated;
        value           uniform (0 0 0);
    }
    frontAndBackPlanes
    {
        type            empty;
    }
}


// ************************************************************************* //
