/*--------------------------------*- C++ -*----------------------------------*\
| =========                 |                                                 |
| \\      /  F ield         | OpenFOAM: The Open Source CFD Toolbox           |
|  \\    /   O peration     | Version:  2.4.x                                 |
|   \\  /    A nd           | Web:      www.OpenFOAM.org                      |
|    \\/     M anipulation  |                                                 |
\*---------------------------------------------------------------------------*/
FoamFile
{
    version     2.0;
    format      ascii;
    class       volVectorField;
    location    "11";
    object      gradPs;
}
// * * * * * * * * * * * * * * * * * * * * * * * * * * * * * * * * * * * * * //

dimensions      [0 1 -2 0 0 0 0];

internalField   nonuniform List<vector> 
360
(
(0 1.55497e-18 0)
(0 1.71372e-18 0)
(0 -1.31012e-21 0)
(0 -2.38197e-19 0)
(-2.90054e-32 -9.99576e-20 0)
(-1.4503e-32 -5.4704e-20 0)
(-1.45034e-32 -7.03644e-20 0)
(0 -8.03706e-20 0)
(-2.90089e-32 -8.16933e-20 0)
(0 -8.23495e-20 0)
(-1.45055e-32 -8.2597e-20 0)
(0 -8.28764e-20 0)
(-1.45066e-32 -8.35315e-20 0)
(0 -8.42139e-20 0)
(0 -8.51292e-20 0)
(0 -8.60632e-20 0)
(0 -8.6802e-20 0)
(-2.90189e-32 -8.74724e-20 0)
(0 -8.85102e-20 0)
(0 -8.92365e-20 0)
(0 -8.99993e-20 0)
(-2.90237e-32 -9.11044e-20 0)
(0 -9.19075e-20 0)
(0 -9.28477e-20 0)
(0 -9.3816e-20 0)
(-1.45143e-32 -9.46008e-20 0)
(0 -9.56794e-20 0)
(0 -9.68026e-20 0)
(0 -9.76098e-20 0)
(0 -9.85558e-20 0)
(0 -9.9878e-20 0)
(0 -1.00574e-19 0)
(0 -1.01804e-19 0)
(0 -1.03063e-19 0)
(0 -1.03867e-19 0)
(1.45209e-32 -1.0501e-19 0)
(0 -1.06102e-19 0)
(0 -1.07718e-19 0)
(0 -1.08254e-19 0)
(0 -1.09571e-19 0)
(0 -1.1135e-19 0)
(0 -1.11731e-19 0)
(1.4526e-32 -1.13346e-19 0)
(0 -1.14826e-19 0)
(0 -1.15774e-19 0)
(0 -1.17546e-19 0)
(0 -1.18301e-19 0)
(0 -1.19457e-19 0)
(0 -1.21843e-19 0)
(0 -1.22694e-19 0)
(2.90647e-32 -1.23797e-19 0)
(0 -1.25647e-19 0)
(0 -1.27143e-19 0)
(0 -1.28348e-19 0)
(0 -1.30182e-19 0)
(0 -1.31695e-19 0)
(0 -1.33138e-19 0)
(0 -1.35181e-19 0)
(0 -1.36035e-19 0)
(0 -1.38309e-19 0)
(0 -1.40104e-19 0)
(0 -1.41617e-19 0)
(0 -1.4373e-19 0)
(0 -1.45326e-19 0)
(0 -1.47151e-19 0)
(0 -1.49129e-19 0)
(0 -1.51393e-19 0)
(0 -1.53265e-19 0)
(0 -1.54762e-19 0)
(0 -1.57228e-19 0)
(0 -1.60156e-19 0)
(0 -1.61464e-19 0)
(0 -1.63669e-19 0)
(0 -1.66489e-19 0)
(0 -1.68927e-19 0)
(0 -1.71247e-19 0)
(0 -1.73354e-19 0)
(0 -1.76195e-19 0)
(0 -1.78988e-19 0)
(0 -1.81485e-19 0)
(0 -1.84209e-19 0)
(0 -1.8729e-19 0)
(0 -1.90216e-19 0)
(0 -1.93239e-19 0)
(0 -1.96366e-19 0)
(0 -1.99613e-19 0)
(0 -2.02905e-19 0)
(0 -2.06196e-19 0)
(0 -2.09729e-19 0)
(0 -2.1338e-19 0)
(0 -2.17082e-19 0)
(0 -2.20977e-19 0)
(0 -2.25038e-19 0)
(0 -2.2918e-19 0)
(0 -2.33455e-19 0)
(0 -2.37873e-19 0)
(0 -2.42424e-19 0)
(0 -2.47125e-19 0)
(0 -2.52008e-19 0)
(0 -2.57074e-19 0)
(0 -2.62329e-19 0)
(0 -2.67794e-19 0)
(0 -2.73468e-19 0)
(0 -2.79349e-19 0)
(0 -2.85452e-19 0)
(0 -2.91786e-19 0)
(0 -2.98364e-19 0)
(0 -3.052e-19 0)
(0 -3.12309e-19 0)
(0 -3.19706e-19 0)
(0 -3.27406e-19 0)
(0 -3.35427e-19 0)
(0 -3.43789e-19 0)
(0 -3.52517e-19 0)
(0 -3.61637e-19 0)
(0 -3.7118e-19 0)
(0 -3.81182e-19 0)
(0 -3.91687e-19 0)
(0 -4.0274e-19 0)
(0 -4.14391e-19 0)
(0 -4.26687e-19 0)
(0 -4.39666e-19 0)
(0 -4.53356e-19 0)
(0 -4.67788e-19 0)
(0 -4.83023e-19 0)
(0 -4.99196e-19 0)
(0 -5.16527e-19 0)
(0 -5.35219e-19 0)
(0 5.71401e-17 0)
(0 2.77624e-16 0)
(0 6.42031e-16 0)
(0 1.1756e-15 0)
(0 2.05149e-15 0)
(0 3.47457e-15 0)
(0 5.71142e-15 0)
(0 8.79831e-15 0)
(0 1.16115e-14 0)
(0 1.37084e-14 0)
(0 6.9059e-14 0)
(0 1.018e-12 0)
(0 1.67905e-11 0)
(0 3.18369e-10 0)
(0 7.14418e-09 0)
(0 1.84517e-07 0)
(0 6.38763e-06 0)
(0 0.000802099 0)
(0 0.0699633 0)
(0 1.47842 0)
(0 1.81245 0)
(0 -0.198962 0)
(0 -3.43573 0)
(0 -4.44249 0)
(0 -4.46608 0)
(0 -4.23958 0)
(0 -3.88075 0)
(0 -3.42586 0)
(0 -2.88946 0)
(0 -2.28533 0)
(0 -1.70917 0)
(0 -1.26992 0)
(0 -0.973106 0)
(0 -0.772231 0)
(0 -0.630611 0)
(0 -0.527909 0)
(0 -0.451743 0)
(0 -0.394229 0)
(0 -0.350252 0)
(0 -0.316357 0)
(0 -0.290145 0)
(0 -0.269895 0)
(0 -0.254353 0)
(0 -0.242583 0)
(0 -0.233863 0)
(0 -0.227647 0)
(0 -0.223505 0)
(0 -0.221093 0)
(0 -0.220131 0)
(0 -0.220401 0)
(0 -0.22172 0)
(0 -0.223937 0)
(0 -0.226929 0)
(0 -0.230592 0)
(0 -0.234837 0)
(0 -0.239592 0)
(0 -0.244797 0)
(0 -0.250397 0)
(0 -0.256353 0)
(0 -0.262632 0)
(0 -0.269204 0)
(0 -0.276049 0)
(0 -0.283147 0)
(0 -0.290484 0)
(0 -0.298045 0)
(0 -0.305814 0)
(0 -0.31377 0)
(0 -0.321886 0)
(0 -0.330124 0)
(0 -0.338434 0)
(0 -0.346753 0)
(0 -0.355002 0)
(0 -0.363084 0)
(0 -0.370965 0)
(-3.636e-16 -0.378617 0)
(0 -0.385916 0)
(0 -0.392728 0)
(4.09779e-16 -0.398945 0)
(0 -0.404472 0)
(-2.2412e-16 -0.409257 0)
(0 -0.413281 0)
(2.47154e-16 -0.41657 0)
(0 -0.419176 0)
(0 -0.421172 0)
(0 -0.422618 0)
(1.54127e-16 -0.423542 0)
(0 -0.423902 0)
(0 -0.423567 0)
(0 -0.422303 0)
(0 -0.41978 0)
(0 -0.415612 0)
(0 -0.409429 0)
(0 -0.400961 0)
(-1.3398e-16 -0.390104 0)
(0 -0.376932 0)
(-1.5637e-16 -0.361653 0)
(0 -0.344558 0)
(0 -0.325964 0)
(0 -0.306113 0)
(0 -0.285014 0)
(5.69543e-17 -0.263299 0)
(6.11003e-17 -0.24002 0)
(0 -0.216927 0)
(0 -0.192594 0)
(0 -0.169316 0)
(0 -0.146087 0)
(0 -0.126239 0)
(0 -0.141259 0)
(0 -0.0823021 0)
(0 0 0)
(0 0 0)
(0 0 0)
(0 0 0)
(0 0 0)
(0 0 0)
(0 0 0)
(0 0 0)
(0 0 0)
(0 0 0)
(0 0 0)
(0 0 0)
(0 0 0)
(0 0 0)
(0 0 0)
(0 0 0)
(0 0 0)
(0 0 0)
(0 0 0)
(0 0 0)
(0 0 0)
(0 0 0)
(0 0 0)
(0 0 0)
(0 0 0)
(0 0 0)
(0 0 0)
(0 0 0)
(0 0 0)
(0 0 0)
(0 0 0)
(0 0 0)
(0 0 0)
(0 0 0)
(0 0 0)
(0 0 0)
(0 0 0)
(0 0 0)
(0 0 0)
(0 0 0)
(0 0 0)
(0 0 0)
(0 0 0)
(0 0 0)
(0 0 0)
(0 0 0)
(0 0 0)
(0 0 0)
(0 0 0)
(0 0 0)
(0 0 0)
(0 0 0)
(0 0 0)
(0 0 0)
(0 0 0)
(0 0 0)
(0 0 0)
(0 0 0)
(0 0 0)
(0 0 0)
(0 0 0)
(0 0 0)
(0 0 0)
(0 0 0)
(0 0 0)
(0 0 0)
(0 0 0)
(0 0 0)
(0 0 0)
(0 0 0)
(0 0 0)
(0 0 0)
(0 0 0)
(0 0 0)
(0 0 0)
(0 0 0)
(0 0 0)
(0 0 0)
(0 0 0)
(0 0 0)
(0 0 0)
(0 0 0)
(0 0 0)
(0 0 0)
(0 0 0)
(0 0 0)
(0 0 0)
(0 0 0)
(0 0 0)
(0 0 0)
(0 0 0)
(0 0 0)
(0 0 0)
(0 0 0)
(0 0 0)
(0 0 0)
(0 0 0)
(0 0 0)
(0 0 0)
(0 0 0)
(0 0 0)
(0 0 0)
(0 0 0)
(0 0 0)
(0 0 0)
(0 0 0)
(0 0 0)
(0 0 0)
(0 0 0)
(0 0 0)
(0 0 0)
(0 0 0)
(0 0 0)
(0 0 0)
(0 0 0)
(0 0 0)
(0 0 0)
(0 0 0)
(0 0 0)
(0 0 0)
(0 0 0)
(0 0 0)
(0 0 0)
)
;

boundaryField
{
    inandouthalf11
    {
        type            cyclic;
    }
    inandouthalf12
    {
        type            cyclic;
    }
    inandouthalf21
    {
        type            cyclic;
    }
    inandouthalf22
    {
        type            cyclic;
    }
    inandouthalf31
    {
        type            cyclic;
    }
    inandouthalf32
    {
        type            cyclic;
    }
    inandouthalf41
    {
        type            cyclic;
    }
    inandouthalf42
    {
        type            cyclic;
    }
    top
    {
        type            symmetryPlane;
    }
    walls
    {
        type            calculated;
        value           uniform (0 0 0);
    }
    frontAndBackPlanes
    {
        type            empty;
    }
}


// ************************************************************************* //
