/*--------------------------------*- C++ -*----------------------------------*\
| =========                 |                                                 |
| \\      /  F ield         | OpenFOAM: The Open Source CFD Toolbox           |
|  \\    /   O peration     | Version:  2.4.x                                 |
|   \\  /    A nd           | Web:      www.OpenFOAM.org                      |
|    \\/     M anipulation  |                                                 |
\*---------------------------------------------------------------------------*/
FoamFile
{
    version     2.0;
    format      ascii;
    class       volScalarField;
    location    "11";
    object      k;
}
// * * * * * * * * * * * * * * * * * * * * * * * * * * * * * * * * * * * * * //

dimensions      [0 2 -2 0 0 0 0];

internalField   nonuniform List<scalar> 
360
(
1e-20
1e-20
1e-20
1e-20
1e-20
1e-20
1e-20
1e-20
1e-20
1e-20
1e-20
1e-20
1e-20
1e-20
1e-20
1e-20
1e-20
1e-20
1e-20
1e-20
1e-20
1e-20
1e-20
1e-20
1e-20
1e-20
1e-20
1e-20
1e-20
1e-20
1e-20
1e-20
1e-20
1e-20
1e-20
1e-20
1e-20
1e-20
1e-20
1e-20
1e-20
1e-20
1e-20
1e-20
1e-20
1e-20
1e-20
1e-20
1e-20
1e-20
1e-20
1e-20
1e-20
1e-20
1e-20
1e-20
1e-20
1e-20
1e-20
1e-20
1e-20
1e-20
1e-20
1e-20
1e-20
1e-20
1e-20
1e-20
1e-20
1e-20
1e-20
1e-20
1e-20
1e-20
1e-20
1e-20
1e-20
1e-20
1e-20
1e-20
1e-20
1e-20
1e-20
1e-20
1e-20
1e-20
1e-20
1e-20
1e-20
1e-20
1e-20
1e-20
1e-20
1e-20
1e-20
1e-20
1e-20
1e-20
1e-20
1e-20
1e-20
1e-20
1e-20
1e-20
1e-20
1e-20
1e-20
1e-20
1e-20
1e-20
1e-20
1e-20
1e-20
1e-20
1e-20
1e-20
1e-20
1e-20
1e-20
1e-20
1e-20
1e-20
1e-20
1e-20
1e-20
1e-20
1e-20
1e-20
1e-20
1.33667e-20
2.6308e-20
5.11384e-20
9.55874e-20
1.72252e-19
3.01111e-19
5.10763e-19
8.23661e-19
1.20218e-18
1.64475e-18
5.36338e-18
6.31321e-17
1.02408e-15
1.99397e-14
4.43702e-13
1.15151e-11
3.58346e-10
1.3396e-08
6.06361e-07
3.2234e-05
0.00106301
0.00416376
0.00476847
0.00467038
0.00429036
0.00383742
0.00343198
0.00313629
0.00295992
0.00287979
0.00286544
0.00289257
0.00294511
0.00301321
0.00309089
0.0031745
0.00326178
0.00335124
0.00344187
0.00353298
0.00362402
0.00371461
0.0038044
0.00389311
0.00398052
0.00406642
0.00415061
0.00423292
0.00431321
0.00439134
0.00446717
0.00454061
0.00461154
0.00467987
0.00474552
0.00480843
0.00486852
0.00492575
0.00498006
0.00503142
0.0050798
0.00512518
0.00516754
0.00520686
0.00524315
0.00527641
0.00530664
0.00533385
0.00535806
0.0053793
0.00539757
0.00541292
0.0054255
0.00543532
0.00544224
0.00544612
0.00544681
0.00544416
0.00543802
0.00542822
0.00541462
0.00539705
0.00537536
0.00534938
0.00531896
0.00528394
0.00524416
0.00519948
0.00514974
0.0050948
0.00503453
0.00496881
0.0048975
0.00482052
0.00473776
0.00464915
0.00455463
0.00445418
0.00434778
0.00423546
0.00411727
0.0039933
0.00386369
0.00372863
0.00358836
0.00344319
0.0032935
0.00313975
0.00298248
0.00282234
0.00266007
0.00249655
0.00233276
0.00216979
0.00200886
0.00185127
0.0016984
0.00155165
0.00141239
0.00128188
0.00116118
0.00105106
0.000951917
0.00086373
0.000786072
0.000718158
0.000658929
0.000607172
0.000561615
0.00052102
0.000484235
0.000450235
0.000418134
0.000387189
0.000356797
0.000326493
0.000295938
0.00026492
0.000233346
0.00020124
0.000168754
0.000136175
0.000103956
7.27754e-05
4.36562e-05
1.8115e-05
2.67105e-06
7.42151e-08
8.93966e-10
9.7868e-12
1.01013e-13
9.83861e-16
9.05352e-18
8.54606e-20
1.0002e-20
1e-20
1e-20
1e-20
1e-20
1e-20
1e-20
1e-20
1e-20
1e-20
1e-20
1e-20
1e-20
1e-20
1e-20
1e-20
1e-20
1e-20
1e-20
1e-20
1e-20
1e-20
1e-20
1e-20
1e-20
1e-20
1e-20
1e-20
1e-20
1e-20
1e-20
1e-20
1e-20
1e-20
1e-20
1e-20
1e-20
1e-20
1e-20
1e-20
1e-20
1e-20
1e-20
1e-20
1e-20
1e-20
1e-20
1e-20
1e-20
1e-20
1e-20
1e-20
1e-20
1e-20
1e-20
1e-20
1e-20
1e-20
1e-20
1e-20
1e-20
1e-20
1e-20
1e-20
1e-20
1e-20
1e-20
1e-20
1e-20
1e-20
1e-20
1e-20
1e-20
1e-20
1e-20
1e-20
1e-20
)
;

boundaryField
{
    inandouthalf11
    {
        type            cyclic;
    }
    inandouthalf12
    {
        type            cyclic;
    }
    inandouthalf21
    {
        type            cyclic;
    }
    inandouthalf22
    {
        type            cyclic;
    }
    inandouthalf31
    {
        type            cyclic;
    }
    inandouthalf32
    {
        type            cyclic;
    }
    inandouthalf41
    {
        type            cyclic;
    }
    inandouthalf42
    {
        type            cyclic;
    }
    top
    {
        type            symmetryPlane;
    }
    walls
    {
        type            zeroGradient;
    }
    frontAndBackPlanes
    {
        type            empty;
    }
}


// ************************************************************************* //
