/*--------------------------------*- C++ -*----------------------------------*\
| =========                 |                                                 |
| \\      /  F ield         | OpenFOAM: The Open Source CFD Toolbox           |
|  \\    /   O peration     | Version:  2.4.x                                 |
|   \\  /    A nd           | Web:      www.OpenFOAM.org                      |
|    \\/     M anipulation  |                                                 |
\*---------------------------------------------------------------------------*/
FoamFile
{
    version     2.0;
    format      ascii;
    class       volScalarField;
    location    "11";
    object      k_0;
}
// * * * * * * * * * * * * * * * * * * * * * * * * * * * * * * * * * * * * * //

dimensions      [0 2 -2 0 0 0 0];

internalField   nonuniform List<scalar> 
360
(
1e-20
1e-20
1e-20
1e-20
1e-20
1e-20
1e-20
1e-20
1e-20
1e-20
1e-20
1e-20
1e-20
1e-20
1e-20
1e-20
1e-20
1e-20
1e-20
1e-20
1e-20
1e-20
1e-20
1e-20
1e-20
1e-20
1e-20
1e-20
1e-20
1e-20
1e-20
1e-20
1e-20
1e-20
1e-20
1e-20
1e-20
1e-20
1e-20
1e-20
1e-20
1e-20
1e-20
1e-20
1e-20
1e-20
1e-20
1e-20
1e-20
1e-20
1e-20
1e-20
1e-20
1e-20
1e-20
1e-20
1e-20
1e-20
1e-20
1e-20
1e-20
1e-20
1e-20
1e-20
1e-20
1e-20
1e-20
1e-20
1e-20
1e-20
1e-20
1e-20
1e-20
1e-20
1e-20
1e-20
1e-20
1e-20
1e-20
1e-20
1e-20
1e-20
1e-20
1e-20
1e-20
1e-20
1e-20
1e-20
1e-20
1e-20
1e-20
1e-20
1e-20
1e-20
1e-20
1e-20
1e-20
1e-20
1e-20
1e-20
1e-20
1e-20
1e-20
1e-20
1e-20
1e-20
1e-20
1e-20
1e-20
1e-20
1e-20
1e-20
1e-20
1e-20
1e-20
1e-20
1e-20
1e-20
1e-20
1e-20
1e-20
1e-20
1e-20
1e-20
1e-20
1e-20
1e-20
1e-20
1e-20
1.33812e-20
2.63422e-20
5.12097e-20
9.57292e-20
1.72524e-19
3.0162e-19
5.11709e-19
8.25406e-19
1.20522e-18
1.64886e-18
5.36094e-18
6.30236e-17
1.02204e-15
1.9897e-14
4.42704e-13
1.14882e-11
3.57485e-10
1.33631e-08
6.04838e-07
3.21546e-05
0.00106128
0.00416158
0.00476644
0.00466824
0.00428818
0.0038354
0.00343032
0.0031351
0.00295919
0.00287943
0.00286535
0.00289267
0.00294536
0.00301356
0.00309132
0.00317501
0.00326235
0.00335185
0.00344253
0.00353368
0.00362476
0.00371538
0.0038052
0.00389395
0.00398138
0.0040673
0.00415151
0.00423384
0.00431415
0.00439229
0.00446815
0.00454159
0.00461253
0.00468087
0.00474654
0.00480945
0.00486954
0.00492677
0.00498108
0.00503245
0.00508083
0.0051262
0.00516855
0.00520787
0.00524416
0.00527741
0.00530762
0.00533483
0.00535903
0.00538025
0.00539851
0.00541384
0.00542641
0.00543621
0.00544312
0.00544698
0.00544765
0.00544498
0.00543881
0.00542899
0.00541537
0.00539778
0.00537606
0.00535005
0.0053196
0.00528455
0.00524475
0.00520003
0.00515026
0.00509529
0.00503499
0.00496923
0.00489789
0.00482087
0.00473807
0.00464943
0.00455488
0.00445439
0.00434795
0.00423559
0.00411736
0.00399336
0.00386371
0.00372862
0.00358832
0.00344311
0.00329339
0.00313961
0.00298231
0.00282214
0.00265986
0.00249632
0.00233251
0.00216953
0.00200859
0.001851
0.00169813
0.00155139
0.00141214
0.00128165
0.00116097
0.00105088
0.000951759
0.000863597
0.000785964
0.000718072
0.000658864
0.000607124
0.000561582
0.000520997
0.000484221
0.000450227
0.00041813
0.000387187
0.000356796
0.000326491
0.000295935
0.000264916
0.000233339
0.000201231
0.000168742
0.000136161
0.000103941
7.27589e-05
4.36399e-05
1.81006e-05
2.66625e-06
7.40018e-08
8.91243e-10
9.75636e-12
1.00693e-13
9.80681e-16
9.02374e-18
8.51988e-20
1.00018e-20
1e-20
1e-20
1e-20
1e-20
1e-20
1e-20
1e-20
1e-20
1e-20
1e-20
1e-20
1e-20
1e-20
1e-20
1e-20
1e-20
1e-20
1e-20
1e-20
1e-20
1e-20
1e-20
1e-20
1e-20
1e-20
1e-20
1e-20
1e-20
1e-20
1e-20
1e-20
1e-20
1e-20
1e-20
1e-20
1e-20
1e-20
1e-20
1e-20
1e-20
1e-20
1e-20
1e-20
1e-20
1e-20
1e-20
1e-20
1e-20
1e-20
1e-20
1e-20
1e-20
1e-20
1e-20
1e-20
1e-20
1e-20
1e-20
1e-20
1e-20
1e-20
1e-20
1e-20
1e-20
1e-20
1e-20
1e-20
1e-20
1e-20
1e-20
1e-20
1e-20
1e-20
1e-20
1e-20
1e-20
)
;

boundaryField
{
    inandouthalf11
    {
        type            cyclic;
    }
    inandouthalf12
    {
        type            cyclic;
    }
    inandouthalf21
    {
        type            cyclic;
    }
    inandouthalf22
    {
        type            cyclic;
    }
    inandouthalf31
    {
        type            cyclic;
    }
    inandouthalf32
    {
        type            cyclic;
    }
    inandouthalf41
    {
        type            cyclic;
    }
    inandouthalf42
    {
        type            cyclic;
    }
    top
    {
        type            symmetryPlane;
    }
    walls
    {
        type            zeroGradient;
    }
    frontAndBackPlanes
    {
        type            empty;
    }
}


// ************************************************************************* //
