/*--------------------------------*- C++ -*----------------------------------*\
| =========                 |                                                 |
| \\      /  F ield         | OpenFOAM: The Open Source CFD Toolbox           |
|  \\    /   O peration     | Version:  2.4.x                                 |
|   \\  /    A nd           | Web:      www.OpenFOAM.org                      |
|    \\/     M anipulation  |                                                 |
\*---------------------------------------------------------------------------*/
FoamFile
{
    version     2.0;
    format      ascii;
    class       volScalarField;
    location    "11";
    object      mua;
}
// * * * * * * * * * * * * * * * * * * * * * * * * * * * * * * * * * * * * * //

dimensions      [1 -1 -1 0 0 0 0];

internalField   nonuniform List<scalar> 
360
(
1.86278e+07
1.31824e+07
1.59836e+07
1.60966e+07
1.52058e+07
1.48851e+07
1.49328e+07
1.50578e+07
1.52e+07
1.53654e+07
1.55627e+07
1.57977e+07
1.60661e+07
1.63601e+07
1.66697e+07
1.69853e+07
1.73007e+07
1.76108e+07
1.79084e+07
1.81868e+07
1.84431e+07
1.86694e+07
1.88625e+07
1.90202e+07
1.91406e+07
1.92237e+07
1.9269e+07
1.92747e+07
1.92449e+07
1.91825e+07
1.90877e+07
1.89632e+07
1.88148e+07
1.86395e+07
1.84465e+07
1.82369e+07
1.80134e+07
1.77754e+07
1.75281e+07
1.72778e+07
1.70175e+07
1.6756e+07
1.64955e+07
1.62303e+07
1.59668e+07
1.57045e+07
1.54462e+07
1.51955e+07
1.49439e+07
1.46935e+07
1.44527e+07
1.42158e+07
1.39834e+07
1.37561e+07
1.35352e+07
1.3317e+07
1.31067e+07
1.29003e+07
1.27016e+07
1.25093e+07
1.23178e+07
1.21323e+07
1.19499e+07
1.17731e+07
1.16019e+07
1.14358e+07
1.12727e+07
1.11142e+07
1.09626e+07
1.08157e+07
1.0668e+07
1.05238e+07
1.03868e+07
1.02506e+07
1.01163e+07
9.98497e+06
9.8598e+06
9.73874e+06
9.62006e+06
9.50441e+06
9.39232e+06
9.28179e+06
9.17243e+06
9.06476e+06
8.95888e+06
8.85518e+06
8.75397e+06
8.65607e+06
8.56135e+06
8.46916e+06
8.37919e+06
8.29094e+06
8.20364e+06
8.11711e+06
8.0314e+06
7.94658e+06
7.86277e+06
7.77992e+06
7.69772e+06
7.61553e+06
7.53251e+06
7.44763e+06
7.35973e+06
7.26769e+06
7.17051e+06
7.06731e+06
6.95749e+06
6.8408e+06
6.71748e+06
6.58835e+06
6.45489e+06
6.31921e+06
6.18391e+06
6.05185e+06
5.92581e+06
5.80794e+06
5.69927e+06
5.59895e+06
5.50361e+06
5.40671e+06
5.29818e+06
5.16461e+06
4.99044e+06
4.76041e+06
4.46336e+06
4.09669e+06
3.67007e+06
3.20639e+06
2.7384e+06
2.30132e+06
1.92423e+06
1.62463e+06
1.40941e+06
1.28263e+06
1.25863e+06
1.38233e+06
1.777e+06
2.804e+06
5.71579e+06
1.58362e+07
5.38891e+07
6.74594e+07
2.62985e+06
1.50117e+06
1.07728e+06
487811
132919
10313.9
0.0443946
0.00911742
0.0059101
0.00506532
0.00458443
0.00427851
0.00406641
0.00391152
0.00379896
0.00371945
0.00366554
0.00363151
0.00361326
0.00360764
0.00361208
0.0036245
0.00364316
0.00366664
0.00369378
0.00372362
0.00375538
0.00378841
0.0038222
0.00385631
0.00389038
0.00392415
0.00395735
0.00398979
0.00402132
0.0040518
0.00408111
0.00410916
0.00413588
0.0041612
0.00418507
0.00420745
0.0042283
0.00424759
0.0042653
0.00428141
0.00429592
0.0043088
0.00432006
0.0043297
0.00433771
0.00434411
0.00434889
0.00435207
0.00435366
0.00435368
0.00435214
0.00434905
0.00434445
0.00433829
0.00433046
0.00432088
0.00430949
0.00429621
0.00428095
0.00426365
0.0042442
0.00422254
0.00419856
0.00417217
0.00414326
0.00411172
0.00407742
0.00404022
0.00399995
0.00395644
0.00390947
0.0038588
0.00380414
0.00374516
0.00368146
0.00361258
0.00353796
0.00345691
0.00336858
0.00327189
0.00316544
0.00304735
0.00291504
0.00276476
0.00259073
0.00238324
0.00212356
0.00176564
0
0
0
0
0
0
0
0
0
0
0
0
0
0
0
0
0
0
0
0
0
0
0
0
0
0
0
0
0
0
0
0
0
0
0
0
0
0
0
0
0
0
0
0
0
0
0
0
0
0
0
0
0
0
0
0
0
0
0
0
0
0
0
0
0
0
0
0
0
0
0
0
0
0
0
0
0
0
0
0
0
0
0
0
0
0
0
0
0
0
0
0
0
0
0
0
0
0
0
0
0
0
0
0
0
0
0
0
0
0
0
0
0
0
0
0
0
0
0
0
0
0
0
0
)
;

boundaryField
{
    inandouthalf11
    {
        type            cyclic;
    }
    inandouthalf12
    {
        type            cyclic;
    }
    inandouthalf21
    {
        type            cyclic;
    }
    inandouthalf22
    {
        type            cyclic;
    }
    inandouthalf31
    {
        type            cyclic;
    }
    inandouthalf32
    {
        type            cyclic;
    }
    inandouthalf41
    {
        type            cyclic;
    }
    inandouthalf42
    {
        type            cyclic;
    }
    top
    {
        type            symmetryPlane;
    }
    walls
    {
        type            calculated;
        value           uniform 1e+30;
    }
    frontAndBackPlanes
    {
        type            empty;
    }
}


// ************************************************************************* //
