/*--------------------------------*- C++ -*----------------------------------*\
| =========                 |                                                 |
| \\      /  F ield         | OpenFOAM: The Open Source CFD Toolbox           |
|  \\    /   O peration     | Version:  2.4.x                                 |
|   \\  /    A nd           | Web:      www.OpenFOAM.org                      |
|    \\/     M anipulation  |                                                 |
\*---------------------------------------------------------------------------*/
FoamFile
{
    version     2.0;
    format      ascii;
    class       volScalarField;
    location    "11";
    object      nutb;
}
// * * * * * * * * * * * * * * * * * * * * * * * * * * * * * * * * * * * * * //

dimensions      [0 2 -1 0 0 0 0];

internalField   nonuniform List<scalar> 
360
(
9e-22
9e-22
9e-22
9e-22
9e-22
9e-22
9e-22
9e-22
9e-22
9e-22
9e-22
9e-22
9e-22
9e-22
9e-22
9e-22
9e-22
9e-22
9e-22
9e-22
9e-22
9e-22
9e-22
9e-22
9e-22
9e-22
9e-22
9e-22
9e-22
9e-22
9e-22
9e-22
9e-22
9e-22
9e-22
9e-22
9e-22
9e-22
9e-22
9e-22
9e-22
9e-22
9e-22
9e-22
9e-22
9e-22
9e-22
9e-22
9e-22
9e-22
9e-22
9e-22
9e-22
9e-22
9e-22
9e-22
9e-22
9e-22
9e-22
9e-22
9e-22
9e-22
9e-22
9e-22
9e-22
9e-22
9e-22
9e-22
9e-22
9e-22
9e-22
9e-22
9e-22
9e-22
9e-22
9e-22
9e-22
9e-22
9e-22
9e-22
9e-22
9e-22
9e-22
9e-22
9e-22
9e-22
9e-22
9e-22
9e-22
9e-22
9e-22
9e-22
9e-22
9e-22
9e-22
9e-22
9e-22
9e-22
9e-22
9e-22
9e-22
9e-22
9e-22
9e-22
9e-22
9e-22
9e-22
9e-22
9e-22
9e-22
9e-22
9e-22
9e-22
9e-22
9e-22
9e-22
9e-22
9e-22
9e-22
9e-22
9e-22
9e-22
9e-22
9e-22
9e-22
9e-22
9e-22
9e-22
9e-22
1.4741e-21
2.92824e-21
5.54361e-21
1.0004e-20
1.72488e-20
2.85305e-20
4.50707e-20
6.54678e-20
7.76124e-20
6.21148e-20
1.05759e-19
9.68199e-19
1.2901e-17
2.09216e-16
3.82247e-15
8.01258e-14
2.00823e-12
6.01031e-11
2.16495e-09
9.04951e-08
2.32175e-06
8.45582e-06
1.24328e-05
1.52848e-05
1.76525e-05
2.02035e-05
2.36699e-05
2.87692e-05
3.596e-05
4.52463e-05
5.62348e-05
6.83588e-05
8.10703e-05
9.39286e-05
0.000106617
0.000118928
0.000130738
0.000141981
0.000152634
0.0001627
0.000172198
0.000181157
0.000189608
0.000197587
0.000205127
0.000212261
0.000219019
0.000225429
0.000231515
0.0002373
0.000242803
0.000248043
0.000253036
0.000257795
0.000262332
0.000266658
0.000270783
0.000274715
0.000278462
0.000282031
0.000285427
0.000288657
0.000291723
0.000294632
0.000297387
0.000299991
0.000302449
0.000304761
0.000306933
0.000308966
0.000310862
0.000312624
0.00031427
0.000315813
0.000317247
0.000318566
0.000319763
0.000320833
0.000321769
0.000322563
0.000323208
0.000323697
0.000324021
0.000324174
0.000324146
0.000323929
0.000323515
0.000322894
0.000322058
0.000320997
0.000319702
0.000318164
0.000316374
0.000314322
0.000312001
0.0003094
0.000306511
0.000303328
0.000299842
0.000296047
0.000291938
0.000287511
0.000282763
0.000277695
0.000272309
0.000266608
0.000260602
0.000254303
0.000247728
0.000240899
0.000233847
0.000226608
0.000219229
0.000211765
0.000204282
0.000196856
0.000189572
0.000182525
0.000175809
0.000169518
0.00016373
0.000158498
0.000153837
0.000149717
0.000146058
0.000142734
0.000139593
0.000136475
0.00013323
0.000129737
0.000125907
0.000121682
0.000117031
0.000111936
0.000106389
0.000100383
9.39108e-05
8.69608e-05
7.95196e-05
7.15715e-05
6.31006e-05
5.40914e-05
4.45307e-05
3.44081e-05
2.37e-05
1.22237e-05
2.32667e-06
7.39638e-08
8.94247e-10
9.74951e-12
1.00255e-13
9.73148e-16
8.85227e-18
4.23837e-20
9.00358e-22
9e-22
9e-22
9e-22
9e-22
9e-22
9e-22
9e-22
9e-22
9e-22
9e-22
9e-22
9e-22
9e-22
9e-22
9e-22
9e-22
9e-22
9e-22
9e-22
9e-22
9e-22
9e-22
9e-22
9e-22
9e-22
9e-22
9e-22
9e-22
9e-22
9e-22
9e-22
9e-22
9e-22
9e-22
9e-22
9e-22
9e-22
9e-22
9e-22
9e-22
9e-22
9e-22
9e-22
9e-22
9e-22
9e-22
9e-22
9e-22
9e-22
9e-22
9e-22
9e-22
9e-22
9e-22
9e-22
9e-22
9e-22
9e-22
9e-22
9e-22
9e-22
9e-22
9e-22
9e-22
9e-22
9e-22
9e-22
9e-22
9e-22
9e-22
9e-22
9e-22
9e-22
9e-22
9e-22
9e-22
)
;

boundaryField
{
    inandouthalf11
    {
        type            cyclic;
    }
    inandouthalf12
    {
        type            cyclic;
    }
    inandouthalf21
    {
        type            cyclic;
    }
    inandouthalf22
    {
        type            cyclic;
    }
    inandouthalf31
    {
        type            cyclic;
    }
    inandouthalf32
    {
        type            cyclic;
    }
    inandouthalf41
    {
        type            cyclic;
    }
    inandouthalf42
    {
        type            cyclic;
    }
    top
    {
        type            symmetryPlane;
    }
    walls
    {
        type            calculated;
        value           uniform 0;
    }
    frontAndBackPlanes
    {
        type            empty;
    }
}


// ************************************************************************* //
