/*--------------------------------*- C++ -*----------------------------------*\
| =========                 |                                                 |
| \\      /  F ield         | OpenFOAM: The Open Source CFD Toolbox           |
|  \\    /   O peration     | Version:  2.4.x                                 |
|   \\  /    A nd           | Web:      www.OpenFOAM.org                      |
|    \\/     M anipulation  |                                                 |
\*---------------------------------------------------------------------------*/
FoamFile
{
    version     2.0;
    format      ascii;
    class       volScalarField;
    location    "11";
    object      p;
}
// * * * * * * * * * * * * * * * * * * * * * * * * * * * * * * * * * * * * * //

dimensions      [1 -1 -2 0 0 0 0];

internalField   nonuniform List<scalar> 
360
(
4886.62
4881.72
4876.81
4871.91
4867
4862.1
4857.19
4852.29
4847.38
4842.48
4837.57
4832.67
4827.76
4822.86
4817.95
4813.04
4808.14
4803.23
4798.33
4793.42
4788.52
4783.61
4778.7
4773.8
4768.89
4763.99
4759.08
4754.18
4749.27
4744.36
4739.46
4734.55
4729.65
4724.74
4719.83
4714.93
4710.02
4705.11
4700.21
4695.3
4690.4
4685.49
4680.58
4675.68
4670.77
4665.86
4660.96
4656.05
4651.14
4646.24
4641.33
4636.42
4631.52
4626.61
4621.7
4616.8
4611.89
4606.98
4602.08
4597.17
4592.26
4587.36
4582.45
4577.54
4572.64
4567.73
4562.82
4557.91
4553.01
4548.1
4543.19
4538.29
4533.38
4528.47
4523.56
4518.66
4513.75
4508.84
4503.93
4499.03
4494.12
4489.21
4484.3
4479.4
4474.49
4469.58
4464.67
4459.77
4454.86
4449.95
4445.04
4440.13
4435.23
4430.32
4425.41
4420.5
4415.59
4410.69
4405.78
4400.87
4395.96
4391.05
4386.15
4381.24
4376.33
4371.42
4366.51
4361.61
4356.7
4351.79
4346.88
4341.97
4337.06
4332.16
4327.25
4322.34
4317.43
4312.52
4307.61
4302.7
4297.8
4292.89
4287.98
4283.07
4278.16
4273.25
4268.34
4263.44
4258.53
4253.62
4248.71
4243.8
4238.89
4233.98
4229.07
4224.17
4219.26
4214.35
4209.44
4204.53
4199.62
4194.71
4189.8
4184.89
4179.98
4175.08
4170.17
4165.26
4160.33
4154
4146.19
4140.42
4135.27
4130.39
4125.61
4120.86
4116.07
4111.23
4106.34
4101.41
4096.47
4091.51
4086.54
4081.57
4076.6
4071.62
4066.65
4061.67
4056.7
4051.72
4046.75
4041.78
4036.8
4031.83
4026.86
4021.9
4016.93
4011.97
4007.01
4002.05
3997.09
3992.13
3987.18
3982.22
3977.27
3972.32
3967.38
3962.43
3957.49
3952.55
3947.61
3942.67
3937.74
3932.81
3927.88
3922.95
3918.03
3913.1
3908.18
3903.26
3898.35
3893.38
3888.32
3883.15
3877.89
3872.52
3867.04
3861.45
3855.75
3849.94
3844.02
3837.97
3831.81
3825.52
3819.11
3812.57
3805.9
3799.1
3792.16
3785.09
3777.87
3770.52
3763.01
3755.36
3747.55
3739.59
3731.46
3723.18
3714.73
3706.11
3697.32
3688.35
3679.21
3669.87
3660.35
3650.64
3640.73
3630.63
3620.31
3609.79
3599.05
3588.09
3576.9
3565.49
3553.84
3541.94
3529.8
3517.41
3504.75
3491.84
3478.65
3465.18
3451.43
3437.4
3423.07
3408.45
3393.52
3378.28
3362.73
3346.87
3330.67
3314.15
3297.29
3280.09
3262.54
3244.63
3226.36
3207.72
3188.7
3169.29
3149.49
3129.28
3108.67
3087.63
3066.17
3044.26
3021.9
2999.08
2975.8
2952.05
2927.81
2903.09
2877.86
2852.12
2825.86
2799.06
2771.72
2743.82
2715.36
2686.32
2656.7
2626.47
2595.62
2564.15
2532.05
2499.29
2465.86
2431.76
2396.96
2361.46
2325.24
2288.28
2250.57
2212.1
2172.85
2132.8
2091.93
2050.24
2007.7
1964.3
1922.76
1883.52
1844.28
1805.04
1765.8
1726.56
1687.32
1648.08
1608.84
1569.6
1530.36
1491.12
1451.88
1412.64
1373.4
1334.16
1294.92
1255.68
1216.44
1177.2
1137.96
1098.72
1059.48
1020.24
981
941.76
902.52
863.28
824.04
784.8
745.56
706.32
667.08
627.84
588.6
549.36
510.12
470.88
431.64
392.4
353.16
313.92
274.68
235.44
196.2
156.96
117.72
78.48
39.24
-1.3051e-07
)
;

boundaryField
{
    inandouthalf11
    {
        type            cyclic;
    }
    inandouthalf12
    {
        type            cyclic;
    }
    inandouthalf21
    {
        type            cyclic;
    }
    inandouthalf22
    {
        type            cyclic;
    }
    inandouthalf31
    {
        type            cyclic;
    }
    inandouthalf32
    {
        type            cyclic;
    }
    inandouthalf41
    {
        type            cyclic;
    }
    inandouthalf42
    {
        type            cyclic;
    }
    top
    {
        type            symmetryPlane;
    }
    walls
    {
        type            slip;
    }
    frontAndBackPlanes
    {
        type            empty;
    }
}


// ************************************************************************* //
