/*--------------------------------*- C++ -*----------------------------------*\
| =========                 |                                                 |
| \\      /  F ield         | OpenFOAM: The Open Source CFD Toolbox           |
|  \\    /   O peration     | Version:  2.4.x                                 |
|   \\  /    A nd           | Web:      www.OpenFOAM.org                      |
|    \\/     M anipulation  |                                                 |
\*---------------------------------------------------------------------------*/
FoamFile
{
    version     2.0;
    format      ascii;
    class       volScalarField;
    location    "11";
    object      pa;
}
// * * * * * * * * * * * * * * * * * * * * * * * * * * * * * * * * * * * * * //

dimensions      [1 -1 -2 0 0 0 0];

internalField   nonuniform List<scalar> 
360
(
2.90382e-16
2.92899e-16
2.9316e-16
2.92897e-16
2.92774e-16
2.92735e-16
2.92686e-16
2.92621e-16
2.92555e-16
2.92489e-16
2.92422e-16
2.92355e-16
2.92287e-16
2.9222e-16
2.92151e-16
2.92082e-16
2.92012e-16
2.91941e-16
2.9187e-16
2.91798e-16
2.91725e-16
2.91652e-16
2.91578e-16
2.91503e-16
2.91427e-16
2.91351e-16
2.91274e-16
2.91196e-16
2.91117e-16
2.91038e-16
2.90958e-16
2.90876e-16
2.90795e-16
2.90711e-16
2.90628e-16
2.90543e-16
2.90458e-16
2.90371e-16
2.90283e-16
2.90196e-16
2.90106e-16
2.90016e-16
2.89925e-16
2.89832e-16
2.89739e-16
2.89645e-16
2.89549e-16
2.89454e-16
2.89356e-16
2.89256e-16
2.89157e-16
2.89056e-16
2.88954e-16
2.8885e-16
2.88747e-16
2.8864e-16
2.88534e-16
2.88425e-16
2.88315e-16
2.88205e-16
2.88091e-16
2.87978e-16
2.87862e-16
2.87746e-16
2.87627e-16
2.87508e-16
2.87386e-16
2.87263e-16
2.87139e-16
2.87013e-16
2.86885e-16
2.86754e-16
2.86624e-16
2.8649e-16
2.86355e-16
2.86217e-16
2.86078e-16
2.85937e-16
2.85794e-16
2.85648e-16
2.85501e-16
2.85351e-16
2.85199e-16
2.85044e-16
2.84887e-16
2.84727e-16
2.84565e-16
2.844e-16
2.84232e-16
2.84061e-16
2.83888e-16
2.83711e-16
2.83531e-16
2.83348e-16
2.83162e-16
2.82972e-16
2.82778e-16
2.82581e-16
2.8238e-16
2.82175e-16
2.81966e-16
2.81752e-16
2.81535e-16
2.81312e-16
2.81085e-16
2.80852e-16
2.80615e-16
2.80372e-16
2.80124e-16
2.79869e-16
2.79609e-16
2.79343e-16
2.7907e-16
2.7879e-16
2.78503e-16
2.78208e-16
2.77906e-16
2.77596e-16
2.77277e-16
2.76949e-16
2.76611e-16
2.76264e-16
2.75905e-16
2.75536e-16
2.75155e-16
2.74761e-16
2.74354e-16
2.73932e-16
2.73496e-16
3.65519e-16
7.18362e-16
1.39401e-15
2.60104e-15
4.67835e-15
8.1618e-15
1.38158e-14
2.22325e-14
3.23782e-14
4.41377e-14
1.42678e-13
1.6692e-12
2.69303e-11
5.0925e-10
1.13633e-08
2.93507e-07
1.01457e-05
0.00127106
0.110704
2.33683
2.949
2.16503
1.36362
0.802751
0.450809
0.247133
0.136276
0.0781292
0.0482516
0.0328134
0.0243726
0.0193338
0.0160733
0.0138301
0.0122094
0.0109902
0.0100416
0.00928184
0.0086578
0.00813356
0.00768423
0.00729211
0.00694432
0.00663139
0.00634618
0.00608329
0.00583855
0.00560876
0.0053914
0.0051845
0.00498651
0.00479618
0.00461256
0.00443485
0.00426244
0.00409483
0.00393163
0.00377254
0.00361731
0.00346574
0.00331767
0.00317299
0.00303161
0.00289345
0.00275848
0.00262665
0.00249796
0.00237241
0.00225005
0.0021309
0.00201505
0.00190256
0.00179244
0.00168387
0.00157713
0.00147256
0.00137049
0.00127126
0.00117517
0.00108249
0.000993452
0.000908251
0.000827014
0.00074983
0.000676751
0.000607803
0.000543003
0.000482366
0.000425913
0.000373668
0.000325649
0.000281846
0.000242208
0.000206622
0.000174918
0.000146875
0.000122233
0.000100716
8.20478e-05
6.59807e-05
5.21954e-05
4.06168e-05
3.07335e-05
2.27584e-05
1.58838e-05
1.06688e-05
5.83747e-06
0
0
0
0
0
0
0
0
0
0
0
0
0
0
0
0
0
0
0
0
0
0
0
0
0
0
0
0
0
0
0
0
0
0
0
0
0
0
0
0
0
0
0
0
0
0
0
0
0
0
0
0
0
0
0
0
0
0
0
0
0
0
0
0
0
0
0
0
0
0
0
0
0
0
0
0
0
0
0
0
0
0
0
0
0
0
0
0
0
0
0
0
0
0
0
0
0
0
0
0
0
0
0
0
0
0
0
0
0
0
0
0
0
0
0
0
0
0
0
0
0
0
0
0
)
;

boundaryField
{
    inandouthalf11
    {
        type            cyclic;
    }
    inandouthalf12
    {
        type            cyclic;
    }
    inandouthalf21
    {
        type            cyclic;
    }
    inandouthalf22
    {
        type            cyclic;
    }
    inandouthalf31
    {
        type            cyclic;
    }
    inandouthalf32
    {
        type            cyclic;
    }
    inandouthalf41
    {
        type            cyclic;
    }
    inandouthalf42
    {
        type            cyclic;
    }
    top
    {
        type            symmetryPlane;
    }
    walls
    {
        type            calculated;
        value           uniform 2.90382e-16;
    }
    frontAndBackPlanes
    {
        type            empty;
    }
}


// ************************************************************************* //
