/*--------------------------------*- C++ -*----------------------------------*\
| =========                 |                                                 |
| \\      /  F ield         | OpenFOAM: The Open Source CFD Toolbox           |
|  \\    /   O peration     | Version:  2.4.x                                 |
|   \\  /    A nd           | Web:      www.OpenFOAM.org                      |
|    \\/     M anipulation  |                                                 |
\*---------------------------------------------------------------------------*/
FoamFile
{
    version     2.0;
    format      ascii;
    class       surfaceScalarField;
    location    "11";
    object      phia;
}
// * * * * * * * * * * * * * * * * * * * * * * * * * * * * * * * * * * * * * //

dimensions      [0 3 -1 0 0 0 0];

internalField   nonuniform List<scalar> 
359
(
-1.93954e-14
-4.84442e-14
-7.56e-14
-1.01882e-13
-1.28843e-13
-1.56173e-13
-1.83333e-13
-2.10119e-13
-2.36475e-13
-2.62377e-13
-2.87786e-13
-3.12651e-13
-3.36941e-13
-3.60635e-13
-3.83734e-13
-4.0625e-13
-4.28204e-13
-4.49622e-13
-4.70537e-13
-4.90989e-13
-5.11011e-13
-5.30649e-13
-5.49946e-13
-5.68942e-13
-5.87679e-13
-6.06196e-13
-6.24529e-13
-6.42718e-13
-6.60795e-13
-6.7879e-13
-6.96731e-13
-7.1465e-13
-7.32561e-13
-7.50499e-13
-7.68473e-13
-7.86506e-13
-8.04609e-13
-8.228e-13
-8.41094e-13
-8.59489e-13
-8.78006e-13
-8.96648e-13
-9.15413e-13
-9.34318e-13
-9.53359e-13
-9.72541e-13
-9.91866e-13
-1.01132e-12
-1.03092e-12
-1.05067e-12
-1.07055e-12
-1.09056e-12
-1.11071e-12
-1.13099e-12
-1.15138e-12
-1.17191e-12
-1.19254e-12
-1.21329e-12
-1.23414e-12
-1.25508e-12
-1.27613e-12
-1.29726e-12
-1.31847e-12
-1.33977e-12
-1.36113e-12
-1.38256e-12
-1.40404e-12
-1.42557e-12
-1.44715e-12
-1.46875e-12
-1.49038e-12
-1.51204e-12
-1.53371e-12
-1.55539e-12
-1.57707e-12
-1.59876e-12
-1.62042e-12
-1.64207e-12
-1.66368e-12
-1.68525e-12
-1.70678e-12
-1.72825e-12
-1.74966e-12
-1.77101e-12
-1.7923e-12
-1.8135e-12
-1.83462e-12
-1.85565e-12
-1.87658e-12
-1.89739e-12
-1.91808e-12
-1.93864e-12
-1.95907e-12
-1.97936e-12
-1.99951e-12
-2.01951e-12
-2.03936e-12
-2.05904e-12
-2.07856e-12
-2.09791e-12
-2.11709e-12
-2.1361e-12
-2.15495e-12
-2.17363e-12
-2.19217e-12
-2.21056e-12
-2.22884e-12
-2.247e-12
-2.26506e-12
-2.28305e-12
-2.30096e-12
-2.3188e-12
-2.33656e-12
-2.35424e-12
-2.37181e-12
-2.38925e-12
-2.40652e-12
-2.4236e-12
-2.44045e-12
-2.45708e-12
-2.47352e-12
-2.48983e-12
-2.50616e-12
-2.52268e-12
-2.53968e-12
-2.55752e-12
-2.57669e-12
-2.59777e-12
-2.62147e-12
-2.64848e-12
-2.6794e-12
-2.71438e-12
-2.75283e-12
-2.793e-12
-2.83183e-12
-2.86526e-12
-2.88976e-12
-2.90432e-12
-2.91096e-12
-2.91317e-12
-2.9138e-12
-2.91373e-12
-2.92007e-12
-2.9277e-12
-2.93669e-12
-2.95073e-12
-2.98946e-12
-2.90623e-12
1.32348e-10
4.37321e-09
8.10275e-09
1.02122e-08
1.13724e-08
1.13933e-08
9.73252e-09
5.75896e-09
-8.63145e-10
-9.13524e-09
-1.77484e-08
-2.57416e-08
-3.2837e-08
-3.90058e-08
-4.43002e-08
-4.88086e-08
-5.26249e-08
-5.58366e-08
-5.85221e-08
-6.07495e-08
-6.25779e-08
-6.4058e-08
-6.52331e-08
-6.61406e-08
-6.68126e-08
-6.72769e-08
-6.75574e-08
-6.76748e-08
-6.76474e-08
-6.74911e-08
-6.72197e-08
-6.68456e-08
-6.63797e-08
-6.58317e-08
-6.52104e-08
-6.45236e-08
-6.37785e-08
-6.29816e-08
-6.21388e-08
-6.12558e-08
-6.03378e-08
-5.93898e-08
-5.84165e-08
-5.74224e-08
-5.64121e-08
-5.53898e-08
-5.43599e-08
-5.33265e-08
-5.22937e-08
-5.12652e-08
-5.02449e-08
-4.9236e-08
-4.82416e-08
-4.72444e-08
-4.62472e-08
-4.52522e-08
-4.42613e-08
-4.32754e-08
-4.22947e-08
-4.13187e-08
-4.0346e-08
-3.93745e-08
-3.84017e-08
-3.74247e-08
-3.64411e-08
-3.54488e-08
-3.44468e-08
-3.34356e-08
-3.24174e-08
-3.13962e-08
-3.03774e-08
-2.93669e-08
-2.83708e-08
-2.73942e-08
-2.64416e-08
-2.55161e-08
-2.46202e-08
-2.37553e-08
-2.29228e-08
-2.21241e-08
-2.13582e-08
-2.06322e-08
-1.99337e-08
-1.92914e-08
-1.86557e-08
-1.81266e-08
-1.75636e-08
-1.68554e-08
-1.47307e-08
-1.17066e-08
-9.06158e-09
-6.51096e-09
-4.04127e-09
-1.674e-09
5.7385e-10
2.67424e-09
4.63725e-09
6.27965e-09
8.00862e-09
8.71171e-09
1.07877e-08
9.24004e-09
1.52125e-08
-3.76589e-08
-1.38534e-07
-1.5823e-07
-1.58202e-07
-1.58179e-07
-1.5816e-07
-1.58146e-07
-1.58135e-07
-1.58128e-07
-1.58123e-07
-1.58119e-07
-1.58118e-07
-1.58117e-07
-1.58117e-07
-1.58117e-07
-1.58116e-07
-1.58116e-07
-1.58115e-07
-1.58113e-07
-1.58109e-07
-1.58104e-07
-1.58095e-07
-1.58083e-07
-1.58054e-07
-1.58022e-07
-1.58018e-07
-1.58018e-07
-1.58018e-07
-1.58018e-07
-1.58018e-07
-1.58018e-07
-1.58018e-07
-1.58018e-07
-1.58018e-07
-1.58018e-07
-1.58018e-07
-1.58018e-07
-1.58018e-07
-1.58018e-07
-1.58018e-07
-1.58018e-07
-1.58018e-07
-1.58018e-07
-1.58018e-07
-1.58018e-07
-1.58018e-07
-1.58018e-07
-1.58018e-07
-1.58018e-07
-1.58018e-07
-1.58018e-07
-1.58018e-07
-1.58018e-07
-1.58018e-07
-1.58018e-07
-1.58018e-07
-1.58018e-07
-1.58018e-07
-1.58018e-07
-1.58018e-07
-1.58018e-07
-1.58018e-07
-1.58018e-07
-1.58018e-07
-1.58018e-07
-1.58018e-07
-1.58018e-07
-1.58018e-07
-1.58018e-07
-1.58018e-07
-1.58018e-07
-1.58018e-07
-1.58018e-07
-1.58018e-07
-1.58018e-07
-1.58018e-07
-1.58018e-07
-1.58018e-07
-1.58018e-07
-1.58018e-07
-1.58018e-07
-1.58018e-07
-1.58018e-07
-1.58018e-07
-1.58018e-07
-1.58018e-07
-1.58018e-07
-1.58018e-07
-1.58018e-07
-1.58018e-07
-1.58018e-07
-1.58018e-07
-1.58018e-07
-1.58018e-07
-1.58018e-07
-1.58018e-07
-1.58018e-07
-1.58018e-07
-1.58018e-07
-1.58018e-07
-1.58018e-07
-1.58018e-07
-1.58018e-07
-1.58018e-07
-1.58017e-07
-1.58e-07
-1.57292e-07
-1.32322e-07
)
;

boundaryField
{
    inandouthalf11
    {
        type            cyclic;
        value           nonuniform List<scalar> 
100
(
2.02054e-38
2.52513e-15
5.26276e-15
7.73632e-15
1.02555e-14
1.28596e-14
1.54707e-14
1.80501e-14
2.05901e-14
2.30881e-14
2.55406e-14
2.79433e-14
3.02922e-14
3.2585e-14
3.48208e-14
3.70002e-14
3.91251e-14
4.11976e-14
4.32208e-14
4.51981e-14
4.71331e-14
4.90297e-14
5.08921e-14
5.27244e-14
5.45306e-14
5.63145e-14
5.80798e-14
5.98301e-14
6.15689e-14
6.32992e-14
6.50238e-14
6.67456e-14
6.84667e-14
7.01897e-14
7.19164e-14
7.36486e-14
7.53878e-14
7.71356e-14
7.88931e-14
8.06614e-14
8.24413e-14
8.42337e-14
8.60389e-14
8.78576e-14
8.96901e-14
9.15369e-14
9.33979e-14
9.52729e-14
9.71619e-14
9.90652e-14
1.00983e-13
1.02914e-13
1.04858e-13
1.06815e-13
1.08786e-13
1.10768e-13
1.12763e-13
1.14768e-13
1.16785e-13
1.18811e-13
1.20847e-13
1.22892e-13
1.24946e-13
1.27008e-13
1.29078e-13
1.31154e-13
1.33236e-13
1.35323e-13
1.37415e-13
1.39511e-13
1.41609e-13
1.43711e-13
1.45814e-13
1.47918e-13
1.50023e-13
1.52129e-13
1.54234e-13
1.56336e-13
1.58437e-13
1.60534e-13
1.62627e-13
1.64715e-13
1.66798e-13
1.68875e-13
1.70946e-13
1.7301e-13
1.75067e-13
1.77115e-13
1.79154e-13
1.81182e-13
1.832e-13
1.85206e-13
1.87199e-13
1.8918e-13
1.91148e-13
1.93102e-13
1.95042e-13
1.96967e-13
1.98877e-13
2.00771e-13
)
;
    }
    inandouthalf12
    {
        type            cyclic;
        value           nonuniform List<scalar> 
100
(
-2.02054e-38
-2.52513e-15
-5.26276e-15
-7.73632e-15
-1.02555e-14
-1.28596e-14
-1.54707e-14
-1.80501e-14
-2.05901e-14
-2.30881e-14
-2.55406e-14
-2.79433e-14
-3.02922e-14
-3.2585e-14
-3.48208e-14
-3.70002e-14
-3.91251e-14
-4.11976e-14
-4.32208e-14
-4.51981e-14
-4.71331e-14
-4.90297e-14
-5.08921e-14
-5.27244e-14
-5.45306e-14
-5.63145e-14
-5.80798e-14
-5.98301e-14
-6.15689e-14
-6.32992e-14
-6.50238e-14
-6.67456e-14
-6.84667e-14
-7.01897e-14
-7.19164e-14
-7.36486e-14
-7.53878e-14
-7.71356e-14
-7.88931e-14
-8.06614e-14
-8.24413e-14
-8.42337e-14
-8.60389e-14
-8.78576e-14
-8.96901e-14
-9.15369e-14
-9.33979e-14
-9.52729e-14
-9.71619e-14
-9.90652e-14
-1.00983e-13
-1.02914e-13
-1.04858e-13
-1.06815e-13
-1.08786e-13
-1.10768e-13
-1.12763e-13
-1.14768e-13
-1.16785e-13
-1.18811e-13
-1.20847e-13
-1.22892e-13
-1.24946e-13
-1.27008e-13
-1.29078e-13
-1.31154e-13
-1.33236e-13
-1.35323e-13
-1.37415e-13
-1.39511e-13
-1.41609e-13
-1.43711e-13
-1.45814e-13
-1.47918e-13
-1.50023e-13
-1.52129e-13
-1.54234e-13
-1.56336e-13
-1.58437e-13
-1.60534e-13
-1.62627e-13
-1.64715e-13
-1.66798e-13
-1.68875e-13
-1.70946e-13
-1.7301e-13
-1.75067e-13
-1.77115e-13
-1.79154e-13
-1.81182e-13
-1.832e-13
-1.85206e-13
-1.87199e-13
-1.8918e-13
-1.91148e-13
-1.93102e-13
-1.95042e-13
-1.96967e-13
-1.98877e-13
-2.00771e-13
)
;
    }
    inandouthalf21
    {
        type            cyclic;
        value           nonuniform List<scalar> 
100
(
2.0265e-13
2.04513e-13
2.0636e-13
2.08193e-13
2.10012e-13
2.11818e-13
2.13612e-13
2.15397e-13
2.17173e-13
2.18942e-13
2.20705e-13
2.22463e-13
2.24216e-13
2.25963e-13
2.27704e-13
2.29435e-13
2.31155e-13
2.32859e-13
2.34545e-13
2.36213e-13
2.37864e-13
2.39503e-13
2.41141e-13
2.42793e-13
2.44483e-13
2.46244e-13
2.48119e-13
2.50163e-13
2.52443e-13
2.55033e-13
2.58005e-13
2.61405e-13
2.6522e-13
2.69337e-13
2.73508e-13
2.77337e-13
2.80384e-13
2.82381e-13
2.83399e-13
2.8378e-13
2.83892e-13
2.83955e-13
2.84058e-13
2.85707e-13
2.8816e-13
2.91887e-13
3.00494e-13
3.34374e-13
7.5788e-13
6.11083e-08
1.8938e-07
2.84615e-07
3.54e-07
4.05307e-07
4.42892e-07
4.69907e-07
4.8909e-07
5.02772e-07
5.12682e-07
5.19961e-07
5.25339e-07
5.293e-07
5.32176e-07
5.34203e-07
5.35551e-07
5.36349e-07
5.36694e-07
5.36663e-07
5.36314e-07
5.35695e-07
5.34845e-07
5.33796e-07
5.32574e-07
5.312e-07
5.29694e-07
5.28071e-07
5.26346e-07
5.24529e-07
5.22633e-07
5.20667e-07
5.18639e-07
5.16557e-07
5.14428e-07
5.1226e-07
5.10058e-07
5.07828e-07
5.05576e-07
5.03306e-07
5.01025e-07
4.98737e-07
4.96446e-07
4.94157e-07
4.91875e-07
4.89604e-07
4.87347e-07
4.85111e-07
4.82897e-07
4.80712e-07
4.78557e-07
4.76439e-07
)
;
    }
    inandouthalf22
    {
        type            cyclic;
        value           nonuniform List<scalar> 
100
(
-2.0265e-13
-2.04513e-13
-2.0636e-13
-2.08193e-13
-2.10012e-13
-2.11818e-13
-2.13612e-13
-2.15397e-13
-2.17173e-13
-2.18942e-13
-2.20705e-13
-2.22463e-13
-2.24216e-13
-2.25963e-13
-2.27704e-13
-2.29435e-13
-2.31155e-13
-2.32859e-13
-2.34545e-13
-2.36213e-13
-2.37864e-13
-2.39503e-13
-2.41141e-13
-2.42793e-13
-2.44483e-13
-2.46244e-13
-2.48119e-13
-2.50163e-13
-2.52443e-13
-2.55033e-13
-2.58005e-13
-2.61405e-13
-2.6522e-13
-2.69337e-13
-2.73508e-13
-2.77337e-13
-2.80384e-13
-2.82381e-13
-2.83399e-13
-2.8378e-13
-2.83892e-13
-2.83955e-13
-2.84058e-13
-2.85707e-13
-2.8816e-13
-2.91887e-13
-3.00494e-13
-3.34374e-13
-7.5788e-13
-6.11083e-08
-1.8938e-07
-2.84615e-07
-3.54e-07
-4.05307e-07
-4.42892e-07
-4.69907e-07
-4.8909e-07
-5.02772e-07
-5.12682e-07
-5.19961e-07
-5.25339e-07
-5.293e-07
-5.32176e-07
-5.34203e-07
-5.35551e-07
-5.36349e-07
-5.36694e-07
-5.36663e-07
-5.36314e-07
-5.35695e-07
-5.34845e-07
-5.33796e-07
-5.32574e-07
-5.312e-07
-5.29694e-07
-5.28071e-07
-5.26346e-07
-5.24529e-07
-5.22633e-07
-5.20667e-07
-5.18639e-07
-5.16557e-07
-5.14428e-07
-5.1226e-07
-5.10058e-07
-5.07828e-07
-5.05576e-07
-5.03306e-07
-5.01025e-07
-4.98737e-07
-4.96446e-07
-4.94157e-07
-4.91875e-07
-4.89604e-07
-4.87347e-07
-4.85111e-07
-4.82897e-07
-4.80712e-07
-4.78557e-07
-4.76439e-07
)
;
    }
    inandouthalf31
    {
        type            cyclic;
        value           nonuniform List<scalar> 
110
(
4.74361e-07
4.81889e-07
4.89533e-07
4.97294e-07
5.05177e-07
5.13188e-07
5.21332e-07
5.29615e-07
5.38042e-07
5.46621e-07
5.55358e-07
5.64262e-07
5.73339e-07
5.82599e-07
5.92048e-07
6.01697e-07
6.11554e-07
6.21628e-07
6.31927e-07
6.42462e-07
6.53241e-07
6.64275e-07
6.75574e-07
6.87148e-07
6.99007e-07
7.11165e-07
7.23631e-07
7.3642e-07
7.49543e-07
7.63017e-07
7.76859e-07
7.91089e-07
8.05733e-07
8.20826e-07
8.36419e-07
8.52576e-07
8.68967e-07
7.49765e-07
7.57279e-07
7.64795e-07
7.72542e-07
7.80547e-07
7.88868e-07
7.9757e-07
8.06724e-07
8.16387e-07
8.26696e-07
8.37595e-07
8.49434e-07
8.61849e-07
8.75586e-07
8.90002e-07
9.09197e-07
9.27217e-07
9.44974e-07
9.63855e-07
9.83733e-07
1.00463e-06
1.0265e-06
1.04931e-06
1.07305e-06
1.09768e-06
1.12318e-06
1.14952e-06
1.17667e-06
1.20461e-06
1.23331e-06
1.26271e-06
1.29278e-06
1.32346e-06
1.3547e-06
1.3864e-06
1.41848e-06
1.4508e-06
1.48318e-06
1.51475e-06
1.54573e-06
1.57711e-06
1.60912e-06
1.64178e-06
1.6751e-06
1.7091e-06
1.74379e-06
1.77919e-06
1.8153e-06
1.85215e-06
1.88974e-06
1.9281e-06
1.96723e-06
2.00716e-06
2.0479e-06
2.08947e-06
2.13188e-06
2.17515e-06
2.2193e-06
2.26435e-06
2.31031e-06
2.3572e-06
2.40505e-06
2.45386e-06
2.50367e-06
2.55449e-06
2.60634e-06
2.65924e-06
2.71321e-06
2.76828e-06
2.82447e-06
2.8818e-06
2.94029e-06
2.99997e-06
)
;
    }
    inandouthalf32
    {
        type            cyclic;
        value           nonuniform List<scalar> 
110
(
-4.74361e-07
-4.81889e-07
-4.89533e-07
-4.97294e-07
-5.05177e-07
-5.13188e-07
-5.21332e-07
-5.29615e-07
-5.38042e-07
-5.46621e-07
-5.55358e-07
-5.64262e-07
-5.73339e-07
-5.82599e-07
-5.92048e-07
-6.01697e-07
-6.11554e-07
-6.21628e-07
-6.31927e-07
-6.42462e-07
-6.53241e-07
-6.64275e-07
-6.75574e-07
-6.87148e-07
-6.99007e-07
-7.11165e-07
-7.23631e-07
-7.3642e-07
-7.49543e-07
-7.63017e-07
-7.76859e-07
-7.91089e-07
-8.05733e-07
-8.20826e-07
-8.36419e-07
-8.52576e-07
-8.68967e-07
-7.49765e-07
-7.57279e-07
-7.64795e-07
-7.72542e-07
-7.80547e-07
-7.88868e-07
-7.9757e-07
-8.06724e-07
-8.16387e-07
-8.26696e-07
-8.37595e-07
-8.49434e-07
-8.61849e-07
-8.75586e-07
-8.90002e-07
-9.09197e-07
-9.27217e-07
-9.44974e-07
-9.63855e-07
-9.83733e-07
-1.00463e-06
-1.0265e-06
-1.04931e-06
-1.07305e-06
-1.09768e-06
-1.12318e-06
-1.14952e-06
-1.17667e-06
-1.20461e-06
-1.23331e-06
-1.26271e-06
-1.29278e-06
-1.32346e-06
-1.3547e-06
-1.3864e-06
-1.41848e-06
-1.4508e-06
-1.48318e-06
-1.51475e-06
-1.54573e-06
-1.57711e-06
-1.60912e-06
-1.64178e-06
-1.6751e-06
-1.7091e-06
-1.74379e-06
-1.77919e-06
-1.8153e-06
-1.85215e-06
-1.88974e-06
-1.9281e-06
-1.96723e-06
-2.00716e-06
-2.0479e-06
-2.08947e-06
-2.13188e-06
-2.17515e-06
-2.2193e-06
-2.26435e-06
-2.31031e-06
-2.3572e-06
-2.40505e-06
-2.45386e-06
-2.50367e-06
-2.55449e-06
-2.60634e-06
-2.65924e-06
-2.71321e-06
-2.76828e-06
-2.82447e-06
-2.8818e-06
-2.94029e-06
-2.99997e-06
)
;
    }
    inandouthalf41
    {
        type            cyclic;
        value           nonuniform List<scalar> 
50
(
2.68528e-06
2.68528e-06
2.68528e-06
2.68528e-06
2.68528e-06
2.68528e-06
2.68528e-06
2.68528e-06
2.68528e-06
2.68528e-06
2.68528e-06
2.68528e-06
2.68528e-06
2.68528e-06
2.68528e-06
2.68528e-06
2.68528e-06
2.68528e-06
2.68528e-06
2.68528e-06
2.68528e-06
2.68528e-06
2.68528e-06
2.68528e-06
2.68528e-06
2.68528e-06
2.68528e-06
2.68528e-06
2.68528e-06
2.68528e-06
2.68528e-06
2.68528e-06
2.68528e-06
2.68528e-06
2.68528e-06
2.68528e-06
2.68528e-06
2.68528e-06
2.68528e-06
2.68528e-06
2.68528e-06
2.68528e-06
2.68528e-06
2.68528e-06
2.68528e-06
2.68528e-06
2.68528e-06
2.68527e-06
2.68506e-06
2.68003e-06
)
;
    }
    inandouthalf42
    {
        type            cyclic;
        value           nonuniform List<scalar> 
50
(
-2.68528e-06
-2.68528e-06
-2.68528e-06
-2.68528e-06
-2.68528e-06
-2.68528e-06
-2.68528e-06
-2.68528e-06
-2.68528e-06
-2.68528e-06
-2.68528e-06
-2.68528e-06
-2.68528e-06
-2.68528e-06
-2.68528e-06
-2.68528e-06
-2.68528e-06
-2.68528e-06
-2.68528e-06
-2.68528e-06
-2.68528e-06
-2.68528e-06
-2.68528e-06
-2.68528e-06
-2.68528e-06
-2.68528e-06
-2.68528e-06
-2.68528e-06
-2.68528e-06
-2.68528e-06
-2.68528e-06
-2.68528e-06
-2.68528e-06
-2.68528e-06
-2.68528e-06
-2.68528e-06
-2.68528e-06
-2.68528e-06
-2.68528e-06
-2.68528e-06
-2.68528e-06
-2.68528e-06
-2.68528e-06
-2.68528e-06
-2.68528e-06
-2.68528e-06
-2.68528e-06
-2.68527e-06
-2.68506e-06
-2.68003e-06
)
;
    }
    top
    {
        type            symmetryPlane;
        value           uniform 0;
    }
    walls
    {
        type            fixedValue;
        value           uniform 0;
    }
    frontAndBackPlanes
    {
        type            empty;
        value           nonuniform 0();
    }
}


// ************************************************************************* //
