/*--------------------------------*- C++ -*----------------------------------*\
| =========                 |                                                 |
| \\      /  F ield         | OpenFOAM: The Open Source CFD Toolbox           |
|  \\    /   O peration     | Version:  2.4.x                                 |
|   \\  /    A nd           | Web:      www.OpenFOAM.org                      |
|    \\/     M anipulation  |                                                 |
\*---------------------------------------------------------------------------*/
FoamFile
{
    version     2.0;
    format      ascii;
    class       surfaceScalarField;
    location    "11";
    object      phia_0;
}
// * * * * * * * * * * * * * * * * * * * * * * * * * * * * * * * * * * * * * //

dimensions      [0 3 -1 0 0 0 0];

internalField   nonuniform List<scalar> 
359
(
-1.93988e-14
-4.84526e-14
-7.56128e-14
-1.01899e-13
-1.28864e-13
-1.56197e-13
-1.8336e-13
-2.10148e-13
-2.36507e-13
-2.62411e-13
-2.87821e-13
-3.12688e-13
-3.3698e-13
-3.60676e-13
-3.83775e-13
-4.06292e-13
-4.28248e-13
-4.49668e-13
-4.70584e-13
-4.91037e-13
-5.1106e-13
-5.307e-13
-5.49998e-13
-5.68996e-13
-5.87735e-13
-6.06254e-13
-6.2459e-13
-6.42781e-13
-6.6086e-13
-6.78857e-13
-6.96801e-13
-7.14722e-13
-7.32637e-13
-7.50577e-13
-7.68555e-13
-7.86591e-13
-8.04698e-13
-8.22892e-13
-8.41189e-13
-8.59588e-13
-8.78109e-13
-8.96754e-13
-9.15523e-13
-9.34432e-13
-9.53477e-13
-9.72663e-13
-9.91993e-13
-1.01146e-12
-1.03106e-12
-1.05081e-12
-1.07069e-12
-1.09071e-12
-1.11086e-12
-1.13114e-12
-1.15154e-12
-1.17207e-12
-1.19271e-12
-1.21346e-12
-1.23432e-12
-1.25527e-12
-1.27632e-12
-1.29745e-12
-1.31867e-12
-1.33997e-12
-1.36134e-12
-1.38277e-12
-1.40426e-12
-1.4258e-12
-1.44738e-12
-1.46898e-12
-1.49062e-12
-1.51229e-12
-1.53396e-12
-1.55564e-12
-1.57733e-12
-1.59902e-12
-1.62069e-12
-1.64234e-12
-1.66396e-12
-1.68553e-12
-1.70706e-12
-1.72854e-12
-1.74996e-12
-1.77132e-12
-1.7926e-12
-1.81381e-12
-1.83494e-12
-1.85597e-12
-1.8769e-12
-1.89772e-12
-1.91842e-12
-1.93898e-12
-1.95942e-12
-1.97971e-12
-1.99987e-12
-2.01987e-12
-2.03972e-12
-2.05941e-12
-2.07893e-12
-2.09829e-12
-2.11747e-12
-2.13649e-12
-2.15534e-12
-2.17403e-12
-2.19257e-12
-2.21097e-12
-2.22924e-12
-2.24741e-12
-2.26548e-12
-2.28347e-12
-2.30138e-12
-2.31922e-12
-2.33699e-12
-2.35468e-12
-2.37225e-12
-2.3897e-12
-2.40697e-12
-2.42405e-12
-2.4409e-12
-2.45754e-12
-2.47398e-12
-2.4903e-12
-2.50663e-12
-2.52316e-12
-2.54016e-12
-2.55801e-12
-2.57718e-12
-2.59827e-12
-2.62196e-12
-2.64899e-12
-2.67991e-12
-2.71491e-12
-2.75336e-12
-2.79354e-12
-2.83239e-12
-2.86583e-12
-2.89034e-12
-2.90489e-12
-2.91154e-12
-2.91375e-12
-2.91438e-12
-2.91431e-12
-2.92066e-12
-2.92832e-12
-2.93734e-12
-2.95142e-12
-2.99023e-12
-2.9073e-12
1.31905e-10
4.37248e-09
8.1029e-09
1.02119e-08
1.13701e-08
1.13872e-08
9.72009e-09
5.73792e-09
-8.92351e-10
-9.17082e-09
-1.77852e-08
-2.57772e-08
-3.28706e-08
-3.90372e-08
-4.43292e-08
-4.88352e-08
-5.26492e-08
-5.58588e-08
-5.85422e-08
-6.07678e-08
-6.25945e-08
-6.40729e-08
-6.52465e-08
-6.61526e-08
-6.68234e-08
-6.72865e-08
-6.75658e-08
-6.76823e-08
-6.76539e-08
-6.74967e-08
-6.72244e-08
-6.68495e-08
-6.63829e-08
-6.58342e-08
-6.52123e-08
-6.45249e-08
-6.37792e-08
-6.29817e-08
-6.21385e-08
-6.1255e-08
-6.03365e-08
-5.93881e-08
-5.84143e-08
-5.74199e-08
-5.64092e-08
-5.53866e-08
-5.43564e-08
-5.33227e-08
-5.22895e-08
-5.12608e-08
-5.02402e-08
-4.92311e-08
-4.82365e-08
-4.72391e-08
-4.62416e-08
-4.52465e-08
-4.42554e-08
-4.32693e-08
-4.22885e-08
-4.13124e-08
-4.03396e-08
-3.9368e-08
-3.8395e-08
-3.7418e-08
-3.64343e-08
-3.54419e-08
-3.44397e-08
-3.34284e-08
-3.24101e-08
-3.13887e-08
-3.03698e-08
-2.93592e-08
-2.83629e-08
-2.73863e-08
-2.64336e-08
-2.55081e-08
-2.46121e-08
-2.37473e-08
-2.29148e-08
-2.21162e-08
-2.13503e-08
-2.06245e-08
-1.99261e-08
-1.92839e-08
-1.86484e-08
-1.81195e-08
-1.75567e-08
-1.68488e-08
-1.47231e-08
-1.1699e-08
-9.054e-09
-6.50341e-09
-4.03377e-09
-1.66664e-09
5.81004e-10
2.68101e-09
4.64359e-09
6.28509e-09
8.01349e-09
8.71461e-09
1.07902e-08
9.23867e-09
1.52109e-08
-3.7717e-08
-1.38561e-07
-1.5823e-07
-1.58202e-07
-1.58179e-07
-1.5816e-07
-1.58146e-07
-1.58135e-07
-1.58128e-07
-1.58123e-07
-1.58119e-07
-1.58117e-07
-1.58117e-07
-1.58116e-07
-1.58116e-07
-1.58116e-07
-1.58116e-07
-1.58115e-07
-1.58113e-07
-1.58109e-07
-1.58104e-07
-1.58095e-07
-1.58083e-07
-1.58054e-07
-1.58022e-07
-1.58018e-07
-1.58018e-07
-1.58018e-07
-1.58018e-07
-1.58018e-07
-1.58018e-07
-1.58018e-07
-1.58018e-07
-1.58018e-07
-1.58018e-07
-1.58018e-07
-1.58018e-07
-1.58018e-07
-1.58018e-07
-1.58018e-07
-1.58018e-07
-1.58018e-07
-1.58018e-07
-1.58018e-07
-1.58018e-07
-1.58018e-07
-1.58018e-07
-1.58018e-07
-1.58018e-07
-1.58018e-07
-1.58018e-07
-1.58018e-07
-1.58018e-07
-1.58018e-07
-1.58018e-07
-1.58018e-07
-1.58018e-07
-1.58018e-07
-1.58018e-07
-1.58018e-07
-1.58018e-07
-1.58018e-07
-1.58018e-07
-1.58018e-07
-1.58018e-07
-1.58018e-07
-1.58018e-07
-1.58018e-07
-1.58018e-07
-1.58018e-07
-1.58018e-07
-1.58018e-07
-1.58018e-07
-1.58018e-07
-1.58018e-07
-1.58018e-07
-1.58018e-07
-1.58018e-07
-1.58018e-07
-1.58018e-07
-1.58018e-07
-1.58018e-07
-1.58018e-07
-1.58018e-07
-1.58018e-07
-1.58018e-07
-1.58018e-07
-1.58018e-07
-1.58018e-07
-1.58018e-07
-1.58018e-07
-1.58018e-07
-1.58018e-07
-1.58018e-07
-1.58018e-07
-1.58018e-07
-1.58018e-07
-1.58018e-07
-1.58018e-07
-1.58018e-07
-1.58018e-07
-1.58018e-07
-1.58018e-07
-1.58018e-07
-1.58017e-07
-1.58e-07
-1.57292e-07
-1.32322e-07
)
;

boundaryField
{
    inandouthalf11
    {
        type            cyclic;
        value           nonuniform List<scalar> 
100
(
2.0204e-38
2.52537e-15
5.26325e-15
7.73699e-15
1.02563e-14
1.28605e-14
1.54717e-14
1.80511e-14
2.05912e-14
2.30892e-14
2.55416e-14
2.79442e-14
3.02931e-14
3.25859e-14
3.48215e-14
3.70009e-14
3.91256e-14
4.11981e-14
4.32212e-14
4.51984e-14
4.71333e-14
4.90299e-14
5.08922e-14
5.27245e-14
5.45306e-14
5.63145e-14
5.80798e-14
5.98302e-14
6.1569e-14
6.32993e-14
6.5024e-14
6.67458e-14
6.8467e-14
7.019e-14
7.19169e-14
7.36492e-14
7.53885e-14
7.71363e-14
7.8894e-14
8.06624e-14
8.24424e-14
8.4235e-14
8.60404e-14
8.78591e-14
8.96919e-14
9.15388e-14
9.33999e-14
9.52751e-14
9.71642e-14
9.90677e-14
1.00985e-13
1.02916e-13
1.04861e-13
1.06819e-13
1.08789e-13
1.10772e-13
1.12766e-13
1.14772e-13
1.16789e-13
1.18815e-13
1.20852e-13
1.22897e-13
1.24951e-13
1.27013e-13
1.29083e-13
1.31159e-13
1.33241e-13
1.35329e-13
1.37421e-13
1.39516e-13
1.41615e-13
1.43717e-13
1.4582e-13
1.47924e-13
1.5003e-13
1.52135e-13
1.5424e-13
1.56343e-13
1.58443e-13
1.60541e-13
1.62634e-13
1.64722e-13
1.66805e-13
1.68882e-13
1.70953e-13
1.73017e-13
1.75074e-13
1.77122e-13
1.79161e-13
1.8119e-13
1.83208e-13
1.85214e-13
1.87207e-13
1.89188e-13
1.91156e-13
1.9311e-13
1.9505e-13
1.96975e-13
1.98885e-13
2.00779e-13
)
;
    }
    inandouthalf12
    {
        type            cyclic;
        value           nonuniform List<scalar> 
100
(
-2.0204e-38
-2.52537e-15
-5.26325e-15
-7.73699e-15
-1.02563e-14
-1.28605e-14
-1.54717e-14
-1.80511e-14
-2.05912e-14
-2.30892e-14
-2.55416e-14
-2.79442e-14
-3.02931e-14
-3.25859e-14
-3.48215e-14
-3.70009e-14
-3.91256e-14
-4.11981e-14
-4.32212e-14
-4.51984e-14
-4.71333e-14
-4.90299e-14
-5.08922e-14
-5.27245e-14
-5.45306e-14
-5.63145e-14
-5.80798e-14
-5.98302e-14
-6.1569e-14
-6.32993e-14
-6.5024e-14
-6.67458e-14
-6.8467e-14
-7.019e-14
-7.19169e-14
-7.36492e-14
-7.53885e-14
-7.71363e-14
-7.8894e-14
-8.06624e-14
-8.24424e-14
-8.4235e-14
-8.60404e-14
-8.78591e-14
-8.96919e-14
-9.15388e-14
-9.33999e-14
-9.52751e-14
-9.71642e-14
-9.90677e-14
-1.00985e-13
-1.02916e-13
-1.04861e-13
-1.06819e-13
-1.08789e-13
-1.10772e-13
-1.12766e-13
-1.14772e-13
-1.16789e-13
-1.18815e-13
-1.20852e-13
-1.22897e-13
-1.24951e-13
-1.27013e-13
-1.29083e-13
-1.31159e-13
-1.33241e-13
-1.35329e-13
-1.37421e-13
-1.39516e-13
-1.41615e-13
-1.43717e-13
-1.4582e-13
-1.47924e-13
-1.5003e-13
-1.52135e-13
-1.5424e-13
-1.56343e-13
-1.58443e-13
-1.60541e-13
-1.62634e-13
-1.64722e-13
-1.66805e-13
-1.68882e-13
-1.70953e-13
-1.73017e-13
-1.75074e-13
-1.77122e-13
-1.79161e-13
-1.8119e-13
-1.83208e-13
-1.85214e-13
-1.87207e-13
-1.89188e-13
-1.91156e-13
-1.9311e-13
-1.9505e-13
-1.96975e-13
-1.98885e-13
-2.00779e-13
)
;
    }
    inandouthalf21
    {
        type            cyclic;
        value           nonuniform List<scalar> 
100
(
2.02658e-13
2.04521e-13
2.06368e-13
2.08201e-13
2.1002e-13
2.11826e-13
2.1362e-13
2.15405e-13
2.17181e-13
2.1895e-13
2.20713e-13
2.22471e-13
2.24224e-13
2.25971e-13
2.27712e-13
2.29443e-13
2.31162e-13
2.32866e-13
2.34552e-13
2.3622e-13
2.37871e-13
2.3951e-13
2.41147e-13
2.42799e-13
2.44489e-13
2.4625e-13
2.48125e-13
2.50169e-13
2.52448e-13
2.55038e-13
2.58009e-13
2.61408e-13
2.65222e-13
2.69338e-13
2.73508e-13
2.77335e-13
2.80382e-13
2.82378e-13
2.83396e-13
2.83777e-13
2.83889e-13
2.83951e-13
2.84054e-13
2.85707e-13
2.88166e-13
2.91904e-13
3.00532e-13
3.3447e-13
7.57961e-13
6.10624e-08
1.89329e-07
2.84571e-07
3.53952e-07
4.05248e-07
4.42818e-07
4.69818e-07
4.88987e-07
5.02658e-07
5.1256e-07
5.19832e-07
5.25205e-07
5.29162e-07
5.32034e-07
5.34057e-07
5.35403e-07
5.36198e-07
5.36541e-07
5.36508e-07
5.36157e-07
5.35537e-07
5.34685e-07
5.33635e-07
5.32411e-07
5.31036e-07
5.29529e-07
5.27905e-07
5.26178e-07
5.24361e-07
5.22464e-07
5.20496e-07
5.18467e-07
5.16385e-07
5.14255e-07
5.12086e-07
5.09883e-07
5.07652e-07
5.05399e-07
5.03129e-07
5.00847e-07
4.98558e-07
4.96266e-07
4.93977e-07
4.91694e-07
4.89422e-07
4.87165e-07
4.84928e-07
4.82714e-07
4.80528e-07
4.78373e-07
4.76253e-07
)
;
    }
    inandouthalf22
    {
        type            cyclic;
        value           nonuniform List<scalar> 
100
(
-2.02658e-13
-2.04521e-13
-2.06368e-13
-2.08201e-13
-2.1002e-13
-2.11826e-13
-2.1362e-13
-2.15405e-13
-2.17181e-13
-2.1895e-13
-2.20713e-13
-2.22471e-13
-2.24224e-13
-2.25971e-13
-2.27712e-13
-2.29443e-13
-2.31162e-13
-2.32866e-13
-2.34552e-13
-2.3622e-13
-2.37871e-13
-2.3951e-13
-2.41147e-13
-2.42799e-13
-2.44489e-13
-2.4625e-13
-2.48125e-13
-2.50169e-13
-2.52448e-13
-2.55038e-13
-2.58009e-13
-2.61408e-13
-2.65222e-13
-2.69338e-13
-2.73508e-13
-2.77335e-13
-2.80382e-13
-2.82378e-13
-2.83396e-13
-2.83777e-13
-2.83889e-13
-2.83951e-13
-2.84054e-13
-2.85707e-13
-2.88166e-13
-2.91904e-13
-3.00532e-13
-3.3447e-13
-7.57961e-13
-6.10624e-08
-1.89329e-07
-2.84571e-07
-3.53952e-07
-4.05248e-07
-4.42818e-07
-4.69818e-07
-4.88987e-07
-5.02658e-07
-5.1256e-07
-5.19832e-07
-5.25205e-07
-5.29162e-07
-5.32034e-07
-5.34057e-07
-5.35403e-07
-5.36198e-07
-5.36541e-07
-5.36508e-07
-5.36157e-07
-5.35537e-07
-5.34685e-07
-5.33635e-07
-5.32411e-07
-5.31036e-07
-5.29529e-07
-5.27905e-07
-5.26178e-07
-5.24361e-07
-5.22464e-07
-5.20496e-07
-5.18467e-07
-5.16385e-07
-5.14255e-07
-5.12086e-07
-5.09883e-07
-5.07652e-07
-5.05399e-07
-5.03129e-07
-5.00847e-07
-4.98558e-07
-4.96266e-07
-4.93977e-07
-4.91694e-07
-4.89422e-07
-4.87165e-07
-4.84928e-07
-4.82714e-07
-4.80528e-07
-4.78373e-07
-4.76253e-07
)
;
    }
    inandouthalf31
    {
        type            cyclic;
        value           nonuniform List<scalar> 
110
(
4.74175e-07
4.81699e-07
4.89338e-07
4.97094e-07
5.04973e-07
5.1298e-07
5.21119e-07
5.29397e-07
5.37819e-07
5.46392e-07
5.55124e-07
5.64022e-07
5.73094e-07
5.82348e-07
5.91792e-07
6.01436e-07
6.11287e-07
6.21354e-07
6.31648e-07
6.42176e-07
6.52949e-07
6.63976e-07
6.75269e-07
6.86836e-07
6.98689e-07
7.10839e-07
7.23299e-07
7.3608e-07
7.49196e-07
7.62663e-07
7.76497e-07
7.90719e-07
8.05356e-07
8.2044e-07
8.36025e-07
8.52174e-07
8.68557e-07
7.49334e-07
7.56839e-07
7.64347e-07
7.72084e-07
7.8008e-07
7.88393e-07
7.97086e-07
8.0623e-07
8.15885e-07
8.26184e-07
8.37074e-07
8.48905e-07
8.61311e-07
8.7504e-07
8.89445e-07
9.08634e-07
9.26642e-07
9.4439e-07
9.6326e-07
9.83128e-07
1.00402e-06
1.02587e-06
1.04868e-06
1.0724e-06
1.09701e-06
1.1225e-06
1.14883e-06
1.17597e-06
1.2039e-06
1.23258e-06
1.26197e-06
1.29202e-06
1.32269e-06
1.35391e-06
1.3856e-06
1.41766e-06
1.44996e-06
1.48232e-06
1.51388e-06
1.54483e-06
1.5762e-06
1.60819e-06
1.64083e-06
1.67413e-06
1.70812e-06
1.74279e-06
1.77816e-06
1.81425e-06
1.85108e-06
1.88865e-06
1.92698e-06
1.96609e-06
2.006e-06
2.04672e-06
2.08826e-06
2.13065e-06
2.17389e-06
2.21802e-06
2.26304e-06
2.30897e-06
2.35584e-06
2.40365e-06
2.45244e-06
2.50222e-06
2.55301e-06
2.60483e-06
2.6577e-06
2.71164e-06
2.76668e-06
2.82284e-06
2.88013e-06
2.93859e-06
2.99824e-06
)
;
    }
    inandouthalf32
    {
        type            cyclic;
        value           nonuniform List<scalar> 
110
(
-4.74175e-07
-4.81699e-07
-4.89338e-07
-4.97094e-07
-5.04973e-07
-5.1298e-07
-5.21119e-07
-5.29397e-07
-5.37819e-07
-5.46392e-07
-5.55124e-07
-5.64022e-07
-5.73094e-07
-5.82348e-07
-5.91792e-07
-6.01436e-07
-6.11287e-07
-6.21354e-07
-6.31648e-07
-6.42176e-07
-6.52949e-07
-6.63976e-07
-6.75269e-07
-6.86836e-07
-6.98689e-07
-7.10839e-07
-7.23299e-07
-7.3608e-07
-7.49196e-07
-7.62663e-07
-7.76497e-07
-7.90719e-07
-8.05356e-07
-8.2044e-07
-8.36025e-07
-8.52174e-07
-8.68557e-07
-7.49334e-07
-7.56839e-07
-7.64347e-07
-7.72084e-07
-7.8008e-07
-7.88393e-07
-7.97086e-07
-8.0623e-07
-8.15885e-07
-8.26184e-07
-8.37074e-07
-8.48905e-07
-8.61311e-07
-8.7504e-07
-8.89445e-07
-9.08634e-07
-9.26642e-07
-9.4439e-07
-9.6326e-07
-9.83128e-07
-1.00402e-06
-1.02587e-06
-1.04868e-06
-1.0724e-06
-1.09701e-06
-1.1225e-06
-1.14883e-06
-1.17597e-06
-1.2039e-06
-1.23258e-06
-1.26197e-06
-1.29202e-06
-1.32269e-06
-1.35391e-06
-1.3856e-06
-1.41766e-06
-1.44996e-06
-1.48232e-06
-1.51388e-06
-1.54483e-06
-1.5762e-06
-1.60819e-06
-1.64083e-06
-1.67413e-06
-1.70812e-06
-1.74279e-06
-1.77816e-06
-1.81425e-06
-1.85108e-06
-1.88865e-06
-1.92698e-06
-1.96609e-06
-2.006e-06
-2.04672e-06
-2.08826e-06
-2.13065e-06
-2.17389e-06
-2.21802e-06
-2.26304e-06
-2.30897e-06
-2.35584e-06
-2.40365e-06
-2.45244e-06
-2.50222e-06
-2.55301e-06
-2.60483e-06
-2.6577e-06
-2.71164e-06
-2.76668e-06
-2.82284e-06
-2.88013e-06
-2.93859e-06
-2.99824e-06
)
;
    }
    inandouthalf41
    {
        type            cyclic;
        value           nonuniform List<scalar> 
50
(
2.68373e-06
2.68373e-06
2.68373e-06
2.68373e-06
2.68373e-06
2.68373e-06
2.68373e-06
2.68373e-06
2.68373e-06
2.68373e-06
2.68373e-06
2.68373e-06
2.68373e-06
2.68373e-06
2.68373e-06
2.68373e-06
2.68373e-06
2.68373e-06
2.68373e-06
2.68373e-06
2.68373e-06
2.68373e-06
2.68373e-06
2.68373e-06
2.68373e-06
2.68373e-06
2.68373e-06
2.68373e-06
2.68373e-06
2.68373e-06
2.68373e-06
2.68373e-06
2.68373e-06
2.68373e-06
2.68373e-06
2.68373e-06
2.68373e-06
2.68373e-06
2.68373e-06
2.68373e-06
2.68373e-06
2.68373e-06
2.68373e-06
2.68373e-06
2.68373e-06
2.68373e-06
2.68373e-06
2.68372e-06
2.6835e-06
2.67848e-06
)
;
    }
    inandouthalf42
    {
        type            cyclic;
        value           nonuniform List<scalar> 
50
(
-2.68373e-06
-2.68373e-06
-2.68373e-06
-2.68373e-06
-2.68373e-06
-2.68373e-06
-2.68373e-06
-2.68373e-06
-2.68373e-06
-2.68373e-06
-2.68373e-06
-2.68373e-06
-2.68373e-06
-2.68373e-06
-2.68373e-06
-2.68373e-06
-2.68373e-06
-2.68373e-06
-2.68373e-06
-2.68373e-06
-2.68373e-06
-2.68373e-06
-2.68373e-06
-2.68373e-06
-2.68373e-06
-2.68373e-06
-2.68373e-06
-2.68373e-06
-2.68373e-06
-2.68373e-06
-2.68373e-06
-2.68373e-06
-2.68373e-06
-2.68373e-06
-2.68373e-06
-2.68373e-06
-2.68373e-06
-2.68373e-06
-2.68373e-06
-2.68373e-06
-2.68373e-06
-2.68373e-06
-2.68373e-06
-2.68373e-06
-2.68373e-06
-2.68373e-06
-2.68373e-06
-2.68372e-06
-2.6835e-06
-2.67848e-06
)
;
    }
    top
    {
        type            symmetryPlane;
        value           uniform 0;
    }
    walls
    {
        type            fixedValue;
        value           uniform 0;
    }
    frontAndBackPlanes
    {
        type            empty;
        value           nonuniform 0();
    }
}


// ************************************************************************* //
