/*--------------------------------*- C++ -*----------------------------------*\
| =========                 |                                                 |
| \\      /  F ield         | OpenFOAM: The Open Source CFD Toolbox           |
|  \\    /   O peration     | Version:  2.4.x                                 |
|   \\  /    A nd           | Web:      www.OpenFOAM.org                      |
|    \\/     M anipulation  |                                                 |
\*---------------------------------------------------------------------------*/
FoamFile
{
    version     2.0;
    format      ascii;
    class       surfaceScalarField;
    location    "11";
    object      phib_0;
}
// * * * * * * * * * * * * * * * * * * * * * * * * * * * * * * * * * * * * * //

dimensions      [0 3 -1 0 0 0 0];

internalField   nonuniform List<scalar> 
359
(
3.05117e-14
7.63628e-14
1.19168e-13
1.60551e-13
2.03013e-13
2.46058e-13
2.88824e-13
3.30989e-13
3.72469e-13
4.13225e-13
4.53195e-13
4.92302e-13
5.30495e-13
5.67743e-13
6.04045e-13
6.39421e-13
6.73906e-13
7.0754e-13
7.40375e-13
7.72472e-13
8.03888e-13
8.34692e-13
8.64951e-13
8.9473e-13
9.24094e-13
9.53106e-13
9.81821e-13
1.0103e-12
1.0386e-12
1.06676e-12
1.09483e-12
1.12285e-12
1.15086e-12
1.1789e-12
1.20699e-12
1.23516e-12
1.26343e-12
1.29184e-12
1.32039e-12
1.3491e-12
1.37799e-12
1.40706e-12
1.43632e-12
1.46578e-12
1.49545e-12
1.52533e-12
1.55543e-12
1.58572e-12
1.61622e-12
1.64694e-12
1.67786e-12
1.70898e-12
1.74029e-12
1.77179e-12
1.80347e-12
1.83533e-12
1.86736e-12
1.89954e-12
1.93188e-12
1.96434e-12
1.99695e-12
2.02968e-12
2.06252e-12
2.09547e-12
2.12852e-12
2.16164e-12
2.19484e-12
2.2281e-12
2.2614e-12
2.29473e-12
2.32808e-12
2.36147e-12
2.39484e-12
2.42821e-12
2.46157e-12
2.49491e-12
2.5282e-12
2.56143e-12
2.59458e-12
2.62766e-12
2.66064e-12
2.6935e-12
2.72626e-12
2.75889e-12
2.79139e-12
2.82374e-12
2.85594e-12
2.88796e-12
2.91979e-12
2.95141e-12
2.98282e-12
3.014e-12
3.04494e-12
3.07563e-12
3.10606e-12
3.13623e-12
3.16613e-12
3.19573e-12
3.22505e-12
3.25406e-12
3.28277e-12
3.31117e-12
3.33928e-12
3.36709e-12
3.39463e-12
3.4219e-12
3.44894e-12
3.47575e-12
3.50237e-12
3.5288e-12
3.55506e-12
3.58116e-12
3.60708e-12
3.63281e-12
3.65831e-12
3.68353e-12
3.70842e-12
3.73294e-12
3.75704e-12
3.78071e-12
3.80401e-12
3.82703e-12
3.84996e-12
3.87311e-12
3.89688e-12
3.92183e-12
3.94869e-12
3.97835e-12
4.01186e-12
4.0503e-12
4.09452e-12
4.14475e-12
4.20002e-12
4.25763e-12
4.31285e-12
4.35952e-12
4.39225e-12
4.4094e-12
4.41388e-12
4.41102e-12
4.405e-12
4.37517e-12
4.3627e-12
4.3733e-12
4.37432e-12
4.38018e-12
4.42205e-12
4.2454e-12
-1.1166e-10
-1.45774e-09
-1.37312e-09
-1.08931e-09
-7.67776e-10
-4.74292e-10
-2.44857e-10
-8.75776e-11
8.53323e-12
5.87343e-11
8.26762e-11
9.3164e-11
9.70459e-11
9.74794e-11
9.60177e-11
9.34903e-11
9.03617e-11
8.69046e-11
8.32853e-11
7.96078e-11
7.59389e-11
7.23218e-11
6.87845e-11
6.53451e-11
6.20149e-11
5.88008e-11
5.57063e-11
5.27327e-11
4.988e-11
4.71469e-11
4.45312e-11
4.20304e-11
3.96415e-11
3.73614e-11
3.51868e-11
3.31141e-11
3.11399e-11
2.92608e-11
2.74733e-11
2.57741e-11
2.41598e-11
2.26272e-11
2.11731e-11
1.97945e-11
1.84885e-11
1.72523e-11
1.60831e-11
1.49783e-11
1.39355e-11
1.29523e-11
1.20264e-11
1.11556e-11
1.03378e-11
9.55575e-12
8.81008e-12
8.10122e-12
7.42939e-12
6.79459e-12
6.19656e-12
5.63479e-12
5.10849e-12
4.61663e-12
4.15803e-12
3.73138e-12
3.33532e-12
2.96857e-12
2.62994e-12
2.31843e-12
2.03319e-12
1.77348e-12
1.5386e-12
1.32776e-12
1.13998e-12
9.74015e-13
8.28386e-13
7.01417e-13
5.91325e-13
4.96309e-13
4.14641e-13
3.44773e-13
2.8511e-13
2.34693e-13
1.91876e-13
1.56381e-13
1.26265e-13
1.02351e-13
8.14516e-14
6.08283e-14
4.21967e-14
2.73871e-14
1.6639e-14
9.22415e-15
4.34163e-15
1.34057e-15
-3.28184e-16
-1.10043e-15
-1.32539e-15
-1.21078e-15
-1.00627e-15
-6.8423e-16
-4.99948e-16
-2.28363e-16
-1.70695e-16
1.18512e-16
6.2182e-18
5.89809e-18
5.56528e-18
5.25005e-18
4.92714e-18
4.62077e-18
4.30866e-18
4.01315e-18
3.71986e-18
3.44781e-18
3.18321e-18
2.95025e-18
2.74331e-18
2.5677e-18
2.40709e-18
2.26465e-18
2.13714e-18
2.02156e-18
1.91131e-18
1.8104e-18
1.7241e-18
1.64409e-18
1.56709e-18
1.48984e-18
1.41742e-18
1.34316e-18
1.27037e-18
1.19724e-18
1.1382e-18
1.07954e-18
1.02079e-18
9.5829e-19
8.99219e-19
8.35555e-19
8.18374e-19
7.48381e-19
6.8579e-19
6.18576e-19
5.51521e-19
4.80075e-19
4.12912e-19
3.43257e-19
2.77274e-19
2.12294e-19
1.35629e-19
1.23189e-19
1.15703e-19
1.14555e-19
1.12056e-19
1.08668e-19
1.05641e-19
1.01694e-19
1.0358e-19
1.03298e-19
1.03436e-19
1.01213e-19
1.01313e-19
9.81905e-20
9.56974e-20
9.15598e-20
9.34185e-20
9.35475e-20
9.35417e-20
9.1353e-20
9.07252e-20
8.85745e-20
8.59391e-20
8.24277e-20
8.09595e-20
7.9722e-20
7.87774e-20
7.85954e-20
7.96649e-20
8.3403e-20
8.9558e-20
9.91483e-20
1.42914e-19
1.93819e-19
2.47827e-19
3.15853e-19
3.7173e-19
4.51033e-19
5.29712e-19
6.37812e-19
6.90381e-19
7.87196e-19
8.85289e-19
1.04177e-18
1.15548e-18
1.33886e-18
1.52696e-18
1.78278e-18
2.0015e-18
2.29754e-18
2.60178e-18
2.99589e-18
3.35294e-18
3.77869e-18
4.2405e-18
4.90318e-18
5.47717e-18
6.13569e-18
6.84893e-18
7.84512e-18
8.25619e-18
9.95527e-18
1.31161e-17
)
;

boundaryField
{
    inandouthalf11
    {
        type            cyclic;
        value           nonuniform List<scalar> 
100
(
2.05549e-10
2.04406e-10
2.04254e-10
2.04411e-10
2.04487e-10
2.04512e-10
2.04544e-10
2.04585e-10
2.04626e-10
2.04668e-10
2.0471e-10
2.04752e-10
2.04794e-10
2.04837e-10
2.0488e-10
2.04923e-10
2.04967e-10
2.0501e-10
2.05055e-10
2.051e-10
2.05144e-10
2.0519e-10
2.05236e-10
2.05282e-10
2.05329e-10
2.05376e-10
2.05424e-10
2.05472e-10
2.05521e-10
2.0557e-10
2.0562e-10
2.0567e-10
2.0572e-10
2.05772e-10
2.05824e-10
2.05876e-10
2.05929e-10
2.05983e-10
2.06037e-10
2.06091e-10
2.06147e-10
2.06203e-10
2.06259e-10
2.06317e-10
2.06375e-10
2.06433e-10
2.06493e-10
2.06553e-10
2.06613e-10
2.06675e-10
2.06737e-10
2.068e-10
2.06864e-10
2.06929e-10
2.06994e-10
2.0706e-10
2.07127e-10
2.07195e-10
2.07264e-10
2.07333e-10
2.07404e-10
2.07475e-10
2.07547e-10
2.0762e-10
2.07695e-10
2.0777e-10
2.07846e-10
2.07924e-10
2.08002e-10
2.08081e-10
2.08162e-10
2.08244e-10
2.08326e-10
2.08411e-10
2.08496e-10
2.08583e-10
2.08671e-10
2.0876e-10
2.0885e-10
2.08943e-10
2.09036e-10
2.09131e-10
2.09227e-10
2.09326e-10
2.09425e-10
2.09527e-10
2.0963e-10
2.09735e-10
2.09842e-10
2.0995e-10
2.10061e-10
2.10173e-10
2.10288e-10
2.10405e-10
2.10524e-10
2.10646e-10
2.1077e-10
2.10896e-10
2.11025e-10
2.11157e-10
)
;
    }
    inandouthalf12
    {
        type            cyclic;
        value           nonuniform List<scalar> 
100
(
-2.05549e-10
-2.04406e-10
-2.04254e-10
-2.04411e-10
-2.04487e-10
-2.04512e-10
-2.04544e-10
-2.04585e-10
-2.04626e-10
-2.04668e-10
-2.0471e-10
-2.04752e-10
-2.04794e-10
-2.04837e-10
-2.0488e-10
-2.04923e-10
-2.04967e-10
-2.0501e-10
-2.05055e-10
-2.051e-10
-2.05144e-10
-2.0519e-10
-2.05236e-10
-2.05282e-10
-2.05329e-10
-2.05376e-10
-2.05424e-10
-2.05472e-10
-2.05521e-10
-2.0557e-10
-2.0562e-10
-2.0567e-10
-2.0572e-10
-2.05772e-10
-2.05824e-10
-2.05876e-10
-2.05929e-10
-2.05983e-10
-2.06037e-10
-2.06091e-10
-2.06147e-10
-2.06203e-10
-2.06259e-10
-2.06317e-10
-2.06375e-10
-2.06433e-10
-2.06493e-10
-2.06553e-10
-2.06613e-10
-2.06675e-10
-2.06737e-10
-2.068e-10
-2.06864e-10
-2.06929e-10
-2.06994e-10
-2.0706e-10
-2.07127e-10
-2.07195e-10
-2.07264e-10
-2.07333e-10
-2.07404e-10
-2.07475e-10
-2.07547e-10
-2.0762e-10
-2.07695e-10
-2.0777e-10
-2.07846e-10
-2.07924e-10
-2.08002e-10
-2.08081e-10
-2.08162e-10
-2.08244e-10
-2.08326e-10
-2.08411e-10
-2.08496e-10
-2.08583e-10
-2.08671e-10
-2.0876e-10
-2.0885e-10
-2.08943e-10
-2.09036e-10
-2.09131e-10
-2.09227e-10
-2.09326e-10
-2.09425e-10
-2.09527e-10
-2.0963e-10
-2.09735e-10
-2.09842e-10
-2.0995e-10
-2.10061e-10
-2.10173e-10
-2.10288e-10
-2.10405e-10
-2.10524e-10
-2.10646e-10
-2.1077e-10
-2.10896e-10
-2.11025e-10
-2.11157e-10
)
;
    }
    inandouthalf21
    {
        type            cyclic;
        value           nonuniform List<scalar> 
100
(
2.11291e-10
2.11429e-10
2.11569e-10
2.11712e-10
2.11859e-10
2.12009e-10
2.12163e-10
2.1232e-10
2.12481e-10
2.12647e-10
2.12816e-10
2.1299e-10
2.13168e-10
2.13351e-10
2.13539e-10
2.13732e-10
2.1393e-10
2.14135e-10
2.14345e-10
2.14562e-10
2.14785e-10
2.15016e-10
2.15254e-10
2.155e-10
2.15755e-10
2.16019e-10
2.16293e-10
2.16577e-10
2.16872e-10
2.1718e-10
2.17502e-10
2.17836e-10
2.18187e-10
2.18557e-10
2.18951e-10
2.19369e-10
2.19812e-10
2.20283e-10
2.20807e-10
2.21404e-10
2.2205e-10
2.22812e-10
2.28128e-10
2.27335e-10
2.28312e-10
2.29934e-10
2.31485e-10
2.33461e-10
4.34182e-10
6.98286e-08
2.07503e-07
3.00277e-07
3.69177e-07
4.21692e-07
4.61553e-07
4.90966e-07
5.11762e-07
5.25886e-07
5.35252e-07
5.41416e-07
5.45468e-07
5.48109e-07
5.49779e-07
5.50757e-07
5.51223e-07
5.51296e-07
5.51057e-07
5.50565e-07
5.49861e-07
5.48977e-07
5.47937e-07
5.4676e-07
5.45462e-07
5.44054e-07
5.42549e-07
5.40955e-07
5.3928e-07
5.3753e-07
5.35713e-07
5.33834e-07
5.31897e-07
5.29908e-07
5.2787e-07
5.25787e-07
5.23663e-07
5.21502e-07
5.19306e-07
5.17078e-07
5.14822e-07
5.12538e-07
5.10231e-07
5.07902e-07
5.05554e-07
5.03187e-07
5.00805e-07
4.98409e-07
4.96001e-07
4.93582e-07
4.91155e-07
4.88719e-07
)
;
    }
    inandouthalf22
    {
        type            cyclic;
        value           nonuniform List<scalar> 
100
(
-2.11291e-10
-2.11429e-10
-2.11569e-10
-2.11712e-10
-2.11859e-10
-2.12009e-10
-2.12163e-10
-2.1232e-10
-2.12481e-10
-2.12647e-10
-2.12816e-10
-2.1299e-10
-2.13168e-10
-2.13351e-10
-2.13539e-10
-2.13732e-10
-2.1393e-10
-2.14135e-10
-2.14345e-10
-2.14562e-10
-2.14785e-10
-2.15016e-10
-2.15254e-10
-2.155e-10
-2.15755e-10
-2.16019e-10
-2.16293e-10
-2.16577e-10
-2.16872e-10
-2.1718e-10
-2.17502e-10
-2.17836e-10
-2.18187e-10
-2.18557e-10
-2.18951e-10
-2.19369e-10
-2.19812e-10
-2.20283e-10
-2.20807e-10
-2.21404e-10
-2.2205e-10
-2.22812e-10
-2.28128e-10
-2.27335e-10
-2.28312e-10
-2.29934e-10
-2.31485e-10
-2.33461e-10
-4.34182e-10
-6.98286e-08
-2.07503e-07
-3.00277e-07
-3.69177e-07
-4.21692e-07
-4.61553e-07
-4.90966e-07
-5.11762e-07
-5.25886e-07
-5.35252e-07
-5.41416e-07
-5.45468e-07
-5.48109e-07
-5.49779e-07
-5.50757e-07
-5.51223e-07
-5.51296e-07
-5.51057e-07
-5.50565e-07
-5.49861e-07
-5.48977e-07
-5.47937e-07
-5.4676e-07
-5.45462e-07
-5.44054e-07
-5.42549e-07
-5.40955e-07
-5.3928e-07
-5.3753e-07
-5.35713e-07
-5.33834e-07
-5.31897e-07
-5.29908e-07
-5.2787e-07
-5.25787e-07
-5.23663e-07
-5.21502e-07
-5.19306e-07
-5.17078e-07
-5.14822e-07
-5.12538e-07
-5.10231e-07
-5.07902e-07
-5.05554e-07
-5.03187e-07
-5.00805e-07
-4.98409e-07
-4.96001e-07
-4.93582e-07
-4.91155e-07
-4.88719e-07
)
;
    }
    inandouthalf31
    {
        type            cyclic;
        value           nonuniform List<scalar> 
110
(
4.86279e-07
4.93627e-07
5.01017e-07
5.08445e-07
5.15908e-07
5.23403e-07
5.30926e-07
5.38474e-07
5.46044e-07
5.53632e-07
5.61234e-07
5.68847e-07
5.76466e-07
5.84089e-07
5.9171e-07
5.99328e-07
6.06937e-07
6.14534e-07
6.22117e-07
6.29681e-07
6.37225e-07
6.44744e-07
6.52238e-07
6.59704e-07
6.67141e-07
6.74548e-07
6.81927e-07
6.89278e-07
6.96603e-07
7.03907e-07
7.11195e-07
7.18473e-07
7.25752e-07
7.33043e-07
7.4036e-07
7.47721e-07
7.55148e-07
7.62667e-07
7.70308e-07
7.78109e-07
7.86111e-07
7.94363e-07
8.02922e-07
8.1185e-07
8.21218e-07
8.31104e-07
8.4159e-07
8.52764e-07
8.64711e-07
8.77514e-07
8.91246e-07
9.05969e-07
9.21726e-07
9.38542e-07
9.56424e-07
9.75365e-07
9.95348e-07
1.01635e-06
1.03834e-06
1.0613e-06
1.08519e-06
1.11e-06
1.13569e-06
1.16224e-06
1.18962e-06
1.2178e-06
1.24675e-06
1.27643e-06
1.30679e-06
1.33778e-06
1.36934e-06
1.4014e-06
1.43385e-06
1.46656e-06
1.49937e-06
1.53157e-06
1.56295e-06
1.59468e-06
1.62705e-06
1.66007e-06
1.69377e-06
1.72815e-06
1.76322e-06
1.79901e-06
1.83553e-06
1.87278e-06
1.9108e-06
1.94958e-06
1.98915e-06
2.02953e-06
2.07072e-06
2.11275e-06
2.15563e-06
2.19939e-06
2.24403e-06
2.28958e-06
2.33605e-06
2.38346e-06
2.43184e-06
2.4812e-06
2.53156e-06
2.58295e-06
2.63538e-06
2.68887e-06
2.74344e-06
2.79913e-06
2.85594e-06
2.91391e-06
2.97306e-06
3.0334e-06
)
;
    }
    inandouthalf32
    {
        type            cyclic;
        value           nonuniform List<scalar> 
110
(
-4.86279e-07
-4.93627e-07
-5.01017e-07
-5.08445e-07
-5.15908e-07
-5.23403e-07
-5.30926e-07
-5.38474e-07
-5.46044e-07
-5.53632e-07
-5.61234e-07
-5.68847e-07
-5.76466e-07
-5.84089e-07
-5.9171e-07
-5.99328e-07
-6.06937e-07
-6.14534e-07
-6.22117e-07
-6.29681e-07
-6.37225e-07
-6.44744e-07
-6.52238e-07
-6.59704e-07
-6.67141e-07
-6.74548e-07
-6.81927e-07
-6.89278e-07
-6.96603e-07
-7.03907e-07
-7.11195e-07
-7.18473e-07
-7.25752e-07
-7.33043e-07
-7.4036e-07
-7.47721e-07
-7.55148e-07
-7.62667e-07
-7.70308e-07
-7.78109e-07
-7.86111e-07
-7.94363e-07
-8.02922e-07
-8.1185e-07
-8.21218e-07
-8.31104e-07
-8.4159e-07
-8.52764e-07
-8.64711e-07
-8.77514e-07
-8.91246e-07
-9.05969e-07
-9.21726e-07
-9.38542e-07
-9.56424e-07
-9.75365e-07
-9.95348e-07
-1.01635e-06
-1.03834e-06
-1.0613e-06
-1.08519e-06
-1.11e-06
-1.13569e-06
-1.16224e-06
-1.18962e-06
-1.2178e-06
-1.24675e-06
-1.27643e-06
-1.30679e-06
-1.33778e-06
-1.36934e-06
-1.4014e-06
-1.43385e-06
-1.46656e-06
-1.49937e-06
-1.53157e-06
-1.56295e-06
-1.59468e-06
-1.62705e-06
-1.66007e-06
-1.69377e-06
-1.72815e-06
-1.76322e-06
-1.79901e-06
-1.83553e-06
-1.87278e-06
-1.9108e-06
-1.94958e-06
-1.98915e-06
-2.02953e-06
-2.07072e-06
-2.11275e-06
-2.15563e-06
-2.19939e-06
-2.24403e-06
-2.28958e-06
-2.33605e-06
-2.38346e-06
-2.43184e-06
-2.4812e-06
-2.53156e-06
-2.58295e-06
-2.63538e-06
-2.68887e-06
-2.74344e-06
-2.79913e-06
-2.85594e-06
-2.91391e-06
-2.97306e-06
-3.0334e-06
)
;
    }
    inandouthalf41
    {
        type            cyclic;
        value           nonuniform List<scalar> 
50
(
2.7152e-06
2.7152e-06
2.7152e-06
2.7152e-06
2.7152e-06
2.7152e-06
2.7152e-06
2.7152e-06
2.7152e-06
2.7152e-06
2.7152e-06
2.7152e-06
2.7152e-06
2.7152e-06
2.7152e-06
2.7152e-06
2.7152e-06
2.7152e-06
2.7152e-06
2.7152e-06
2.7152e-06
2.7152e-06
2.7152e-06
2.7152e-06
2.7152e-06
2.7152e-06
2.7152e-06
2.7152e-06
2.7152e-06
2.7152e-06
2.7152e-06
2.7152e-06
2.7152e-06
2.7152e-06
2.7152e-06
2.7152e-06
2.7152e-06
2.7152e-06
2.7152e-06
2.7152e-06
2.7152e-06
2.7152e-06
2.7152e-06
2.7152e-06
2.7152e-06
2.7152e-06
2.7152e-06
2.7152e-06
2.7152e-06
2.7152e-06
)
;
    }
    inandouthalf42
    {
        type            cyclic;
        value           nonuniform List<scalar> 
50
(
-2.7152e-06
-2.7152e-06
-2.7152e-06
-2.7152e-06
-2.7152e-06
-2.7152e-06
-2.7152e-06
-2.7152e-06
-2.7152e-06
-2.7152e-06
-2.7152e-06
-2.7152e-06
-2.7152e-06
-2.7152e-06
-2.7152e-06
-2.7152e-06
-2.7152e-06
-2.7152e-06
-2.7152e-06
-2.7152e-06
-2.7152e-06
-2.7152e-06
-2.7152e-06
-2.7152e-06
-2.7152e-06
-2.7152e-06
-2.7152e-06
-2.7152e-06
-2.7152e-06
-2.7152e-06
-2.7152e-06
-2.7152e-06
-2.7152e-06
-2.7152e-06
-2.7152e-06
-2.7152e-06
-2.7152e-06
-2.7152e-06
-2.7152e-06
-2.7152e-06
-2.7152e-06
-2.7152e-06
-2.7152e-06
-2.7152e-06
-2.7152e-06
-2.7152e-06
-2.7152e-06
-2.7152e-06
-2.7152e-06
-2.7152e-06
)
;
    }
    top
    {
        type            symmetryPlane;
        value           uniform 0;
    }
    walls
    {
        type            fixedValue;
        value           uniform 0;
    }
    frontAndBackPlanes
    {
        type            empty;
        value           nonuniform 0();
    }
}


// ************************************************************************* //
