/*--------------------------------*- C++ -*----------------------------------*\
| =========                 |                                                 |
| \\      /  F ield         | OpenFOAM: The Open Source CFD Toolbox           |
|  \\    /   O peration     | Version:  2.4.x                                 |
|   \\  /    A nd           | Web:      www.OpenFOAM.org                      |
|    \\/     M anipulation  |                                                 |
\*---------------------------------------------------------------------------*/
FoamFile
{
    version     2.0;
    format      ascii;
    class       surfaceScalarField;
    location    "11";
    object      phib;
}
// * * * * * * * * * * * * * * * * * * * * * * * * * * * * * * * * * * * * * //

dimensions      [0 3 -1 0 0 0 0];

internalField   nonuniform List<scalar> 
359
(
3.05064e-14
7.63496e-14
1.19148e-13
1.60525e-13
2.02981e-13
2.46021e-13
2.88782e-13
3.30943e-13
3.72419e-13
4.13172e-13
4.53139e-13
4.92244e-13
5.30435e-13
5.6768e-13
6.0398e-13
6.39354e-13
6.73837e-13
7.0747e-13
7.40302e-13
7.72398e-13
8.03811e-13
8.34613e-13
8.64869e-13
8.94645e-13
9.24007e-13
9.53016e-13
9.81728e-13
1.01021e-12
1.0385e-12
1.06666e-12
1.09472e-12
1.12274e-12
1.15074e-12
1.17878e-12
1.20686e-12
1.23503e-12
1.2633e-12
1.2917e-12
1.32024e-12
1.34895e-12
1.37783e-12
1.40689e-12
1.43615e-12
1.46561e-12
1.49527e-12
1.52514e-12
1.55523e-12
1.58552e-12
1.61601e-12
1.64673e-12
1.67764e-12
1.70875e-12
1.74005e-12
1.77155e-12
1.80322e-12
1.83507e-12
1.86709e-12
1.89927e-12
1.9316e-12
1.96406e-12
1.99666e-12
2.02937e-12
2.06221e-12
2.09516e-12
2.12819e-12
2.16131e-12
2.1945e-12
2.22775e-12
2.26104e-12
2.29436e-12
2.32771e-12
2.36109e-12
2.39446e-12
2.42782e-12
2.46117e-12
2.4945e-12
2.52778e-12
2.561e-12
2.59415e-12
2.62722e-12
2.66019e-12
2.69305e-12
2.7258e-12
2.75842e-12
2.79091e-12
2.82326e-12
2.85545e-12
2.88746e-12
2.91928e-12
2.9509e-12
2.9823e-12
3.01347e-12
3.04441e-12
3.07509e-12
3.10552e-12
3.13568e-12
3.16557e-12
3.19517e-12
3.22448e-12
3.25348e-12
3.28218e-12
3.31058e-12
3.33868e-12
3.36649e-12
3.39402e-12
3.42129e-12
3.44832e-12
3.47513e-12
3.50173e-12
3.52816e-12
3.55442e-12
3.58051e-12
3.60642e-12
3.63215e-12
3.65764e-12
3.68285e-12
3.70774e-12
3.73225e-12
3.75634e-12
3.78001e-12
3.8033e-12
3.82632e-12
3.84925e-12
3.87239e-12
3.89615e-12
3.9211e-12
3.94795e-12
3.9776e-12
4.01111e-12
4.04953e-12
4.09374e-12
4.14396e-12
4.19921e-12
4.25681e-12
4.31202e-12
4.35867e-12
4.39139e-12
4.40853e-12
4.41301e-12
4.41015e-12
4.40413e-12
4.37431e-12
4.36182e-12
4.37239e-12
4.37337e-12
4.37918e-12
4.42092e-12
4.24377e-12
-1.1201e-10
-1.45756e-09
-1.37317e-09
-1.08963e-09
-7.68271e-10
-4.74842e-10
-2.45358e-10
-8.79719e-11
8.26029e-12
5.85404e-11
8.25362e-11
9.30539e-11
9.69537e-11
9.73992e-11
9.59463e-11
9.34257e-11
9.03027e-11
8.68505e-11
8.32353e-11
7.95616e-11
7.58961e-11
7.22821e-11
6.87476e-11
6.53109e-11
6.19831e-11
5.87713e-11
5.56789e-11
5.27073e-11
4.98564e-11
4.7125e-11
4.45109e-11
4.20116e-11
3.96242e-11
3.73454e-11
3.5172e-11
3.31004e-11
3.11274e-11
2.92493e-11
2.74627e-11
2.57643e-11
2.41508e-11
2.2619e-11
2.11656e-11
1.97877e-11
1.84823e-11
1.72467e-11
1.6078e-11
1.49737e-11
1.39314e-11
1.29486e-11
1.20231e-11
1.11526e-11
1.03351e-11
9.55334e-12
8.80795e-12
8.09935e-12
7.42775e-12
6.79316e-12
6.19532e-12
5.63372e-12
5.10757e-12
4.61586e-12
4.15738e-12
3.73083e-12
3.33487e-12
2.9682e-12
2.62965e-12
2.31821e-12
2.03302e-12
1.77336e-12
1.53852e-12
1.32772e-12
1.13997e-12
9.74023e-13
8.28409e-13
7.01451e-13
5.91366e-13
4.96353e-13
4.14685e-13
3.44815e-13
2.8515e-13
2.34729e-13
1.91908e-13
1.56409e-13
1.2629e-13
1.02371e-13
8.14661e-14
6.08367e-14
4.22073e-14
2.73983e-14
1.66497e-14
9.23352e-15
4.34941e-15
1.34666e-15
-3.23642e-16
-1.09727e-15
-1.32328e-15
-1.20954e-15
-1.00554e-15
-6.83921e-16
-4.9978e-16
-2.28345e-16
-1.70686e-16
1.18524e-16
6.26873e-18
5.92558e-18
5.58371e-18
5.25077e-18
4.92159e-18
4.60136e-18
4.28743e-18
3.984e-18
3.69192e-18
3.41486e-18
3.1558e-18
2.92092e-18
2.7121e-18
2.52828e-18
2.36611e-18
2.22208e-18
2.09309e-18
1.97648e-18
1.86972e-18
1.77316e-18
1.68569e-18
1.60535e-18
1.52959e-18
1.45546e-18
1.38462e-18
1.31297e-18
1.24288e-18
1.17535e-18
1.11527e-18
1.05686e-18
9.99285e-19
9.39258e-19
8.8019e-19
8.17073e-19
8.02226e-19
7.34909e-19
6.70639e-19
6.04011e-19
5.36922e-19
4.67145e-19
3.98346e-19
3.2988e-19
2.65268e-19
2.1516e-19
1.16186e-19
9.45294e-20
7.81388e-20
7.17439e-20
5.91467e-20
4.87185e-20
3.85623e-20
2.9436e-20
2.00715e-20
1.24507e-20
4.31209e-21
-1.72715e-21
-9.4737e-21
-1.50539e-20
-2.00748e-20
-2.43497e-20
-3.10937e-20
-3.68964e-20
-4.31482e-20
-4.68697e-20
-5.21628e-20
-5.51796e-20
-5.86868e-20
-6.07316e-20
-6.76725e-20
-7.23353e-20
-7.78898e-20
-8.08925e-20
-8.80856e-20
-9.55278e-20
-1.10852e-19
-1.69247e-19
-2.30452e-19
-3.26332e-19
-4.29378e-19
-5.12255e-19
-6.19601e-19
-6.8797e-19
-7.58859e-19
-7.87587e-19
-9.00452e-19
-9.52853e-19
-1.00562e-18
-9.69037e-19
-1.01301e-18
-9.31954e-19
-8.60091e-19
-6.72164e-19
-7.55737e-19
-6.49609e-19
-5.41577e-19
-1.40355e-19
6.95345e-20
6.50922e-19
1.26802e-18
2.06789e-18
3.16757e-18
4.43858e-18
5.79994e-18
6.79597e-18
9.62137e-18
9.74533e-18
8.58041e-18
)
;

boundaryField
{
    inandouthalf11
    {
        type            cyclic;
        value           nonuniform List<scalar> 
100
(
2.05512e-10
2.04369e-10
2.04217e-10
2.04374e-10
2.04449e-10
2.04475e-10
2.04507e-10
2.04548e-10
2.04589e-10
2.04631e-10
2.04673e-10
2.04715e-10
2.04757e-10
2.04799e-10
2.04842e-10
2.04886e-10
2.04929e-10
2.04973e-10
2.05017e-10
2.05062e-10
2.05107e-10
2.05153e-10
2.05199e-10
2.05245e-10
2.05292e-10
2.05339e-10
2.05386e-10
2.05435e-10
2.05483e-10
2.05533e-10
2.05582e-10
2.05633e-10
2.05683e-10
2.05735e-10
2.05786e-10
2.05839e-10
2.05891e-10
2.05945e-10
2.05999e-10
2.06054e-10
2.06109e-10
2.06166e-10
2.06222e-10
2.06279e-10
2.06337e-10
2.06396e-10
2.06455e-10
2.06515e-10
2.06576e-10
2.06638e-10
2.067e-10
2.06763e-10
2.06826e-10
2.06891e-10
2.06956e-10
2.07023e-10
2.07089e-10
2.07157e-10
2.07226e-10
2.07295e-10
2.07366e-10
2.07437e-10
2.07509e-10
2.07583e-10
2.07657e-10
2.07732e-10
2.07808e-10
2.07886e-10
2.07964e-10
2.08043e-10
2.08124e-10
2.08206e-10
2.08288e-10
2.08373e-10
2.08458e-10
2.08545e-10
2.08633e-10
2.08722e-10
2.08812e-10
2.08905e-10
2.08998e-10
2.09093e-10
2.09189e-10
2.09287e-10
2.09387e-10
2.09489e-10
2.09592e-10
2.09697e-10
2.09803e-10
2.09912e-10
2.10023e-10
2.10135e-10
2.1025e-10
2.10367e-10
2.10486e-10
2.10607e-10
2.10731e-10
2.10858e-10
2.10987e-10
2.11118e-10
)
;
    }
    inandouthalf12
    {
        type            cyclic;
        value           nonuniform List<scalar> 
100
(
-2.05512e-10
-2.04369e-10
-2.04217e-10
-2.04374e-10
-2.04449e-10
-2.04475e-10
-2.04507e-10
-2.04548e-10
-2.04589e-10
-2.04631e-10
-2.04673e-10
-2.04715e-10
-2.04757e-10
-2.04799e-10
-2.04842e-10
-2.04886e-10
-2.04929e-10
-2.04973e-10
-2.05017e-10
-2.05062e-10
-2.05107e-10
-2.05153e-10
-2.05199e-10
-2.05245e-10
-2.05292e-10
-2.05339e-10
-2.05386e-10
-2.05435e-10
-2.05483e-10
-2.05533e-10
-2.05582e-10
-2.05633e-10
-2.05683e-10
-2.05735e-10
-2.05786e-10
-2.05839e-10
-2.05891e-10
-2.05945e-10
-2.05999e-10
-2.06054e-10
-2.06109e-10
-2.06166e-10
-2.06222e-10
-2.06279e-10
-2.06337e-10
-2.06396e-10
-2.06455e-10
-2.06515e-10
-2.06576e-10
-2.06638e-10
-2.067e-10
-2.06763e-10
-2.06826e-10
-2.06891e-10
-2.06956e-10
-2.07023e-10
-2.07089e-10
-2.07157e-10
-2.07226e-10
-2.07295e-10
-2.07366e-10
-2.07437e-10
-2.07509e-10
-2.07583e-10
-2.07657e-10
-2.07732e-10
-2.07808e-10
-2.07886e-10
-2.07964e-10
-2.08043e-10
-2.08124e-10
-2.08206e-10
-2.08288e-10
-2.08373e-10
-2.08458e-10
-2.08545e-10
-2.08633e-10
-2.08722e-10
-2.08812e-10
-2.08905e-10
-2.08998e-10
-2.09093e-10
-2.09189e-10
-2.09287e-10
-2.09387e-10
-2.09489e-10
-2.09592e-10
-2.09697e-10
-2.09803e-10
-2.09912e-10
-2.10023e-10
-2.10135e-10
-2.1025e-10
-2.10367e-10
-2.10486e-10
-2.10607e-10
-2.10731e-10
-2.10858e-10
-2.10987e-10
-2.11118e-10
)
;
    }
    inandouthalf21
    {
        type            cyclic;
        value           nonuniform List<scalar> 
100
(
2.11253e-10
2.1139e-10
2.1153e-10
2.11674e-10
2.11821e-10
2.11971e-10
2.12124e-10
2.12282e-10
2.12443e-10
2.12608e-10
2.12777e-10
2.12951e-10
2.13129e-10
2.13312e-10
2.135e-10
2.13693e-10
2.13891e-10
2.14096e-10
2.14306e-10
2.14523e-10
2.14746e-10
2.14977e-10
2.15215e-10
2.15461e-10
2.15716e-10
2.1598e-10
2.16253e-10
2.16537e-10
2.16833e-10
2.17141e-10
2.17462e-10
2.17797e-10
2.18147e-10
2.18517e-10
2.18911e-10
2.19329e-10
2.19772e-10
2.20243e-10
2.20766e-10
2.21364e-10
2.2201e-10
2.22771e-10
2.28087e-10
2.27293e-10
2.28271e-10
2.29893e-10
2.31443e-10
2.33419e-10
4.3449e-10
6.98842e-08
2.07549e-07
3.00317e-07
3.6922e-07
4.21744e-07
4.61619e-07
4.9105e-07
5.11863e-07
5.26003e-07
5.35381e-07
5.41554e-07
5.45612e-07
5.48257e-07
5.49931e-07
5.50912e-07
5.5138e-07
5.51454e-07
5.51217e-07
5.50726e-07
5.50024e-07
5.49141e-07
5.48102e-07
5.46926e-07
5.45628e-07
5.44222e-07
5.42718e-07
5.41124e-07
5.3945e-07
5.37702e-07
5.35885e-07
5.34007e-07
5.32071e-07
5.30082e-07
5.28045e-07
5.25963e-07
5.2384e-07
5.2168e-07
5.19484e-07
5.17257e-07
5.15001e-07
5.12719e-07
5.10412e-07
5.08084e-07
5.05736e-07
5.03371e-07
5.00989e-07
4.98594e-07
4.96186e-07
4.93768e-07
4.91341e-07
4.88906e-07
)
;
    }
    inandouthalf22
    {
        type            cyclic;
        value           nonuniform List<scalar> 
100
(
-2.11253e-10
-2.1139e-10
-2.1153e-10
-2.11674e-10
-2.11821e-10
-2.11971e-10
-2.12124e-10
-2.12282e-10
-2.12443e-10
-2.12608e-10
-2.12777e-10
-2.12951e-10
-2.13129e-10
-2.13312e-10
-2.135e-10
-2.13693e-10
-2.13891e-10
-2.14096e-10
-2.14306e-10
-2.14523e-10
-2.14746e-10
-2.14977e-10
-2.15215e-10
-2.15461e-10
-2.15716e-10
-2.1598e-10
-2.16253e-10
-2.16537e-10
-2.16833e-10
-2.17141e-10
-2.17462e-10
-2.17797e-10
-2.18147e-10
-2.18517e-10
-2.18911e-10
-2.19329e-10
-2.19772e-10
-2.20243e-10
-2.20766e-10
-2.21364e-10
-2.2201e-10
-2.22771e-10
-2.28087e-10
-2.27293e-10
-2.28271e-10
-2.29893e-10
-2.31443e-10
-2.33419e-10
-4.3449e-10
-6.98842e-08
-2.07549e-07
-3.00317e-07
-3.6922e-07
-4.21744e-07
-4.61619e-07
-4.9105e-07
-5.11863e-07
-5.26003e-07
-5.35381e-07
-5.41554e-07
-5.45612e-07
-5.48257e-07
-5.49931e-07
-5.50912e-07
-5.5138e-07
-5.51454e-07
-5.51217e-07
-5.50726e-07
-5.50024e-07
-5.49141e-07
-5.48102e-07
-5.46926e-07
-5.45628e-07
-5.44222e-07
-5.42718e-07
-5.41124e-07
-5.3945e-07
-5.37702e-07
-5.35885e-07
-5.34007e-07
-5.32071e-07
-5.30082e-07
-5.28045e-07
-5.25963e-07
-5.2384e-07
-5.2168e-07
-5.19484e-07
-5.17257e-07
-5.15001e-07
-5.12719e-07
-5.10412e-07
-5.08084e-07
-5.05736e-07
-5.03371e-07
-5.00989e-07
-4.98594e-07
-4.96186e-07
-4.93768e-07
-4.91341e-07
-4.88906e-07
)
;
    }
    inandouthalf31
    {
        type            cyclic;
        value           nonuniform List<scalar> 
110
(
4.86467e-07
4.93819e-07
5.01213e-07
5.08646e-07
5.16113e-07
5.23613e-07
5.31141e-07
5.38695e-07
5.4627e-07
5.53863e-07
5.6147e-07
5.69088e-07
5.76713e-07
5.84341e-07
5.91969e-07
5.99592e-07
6.07207e-07
6.14811e-07
6.224e-07
6.29971e-07
6.37521e-07
6.45047e-07
6.52548e-07
6.60021e-07
6.67465e-07
6.7488e-07
6.82266e-07
6.89624e-07
6.96957e-07
7.04269e-07
7.11564e-07
7.18851e-07
7.26138e-07
7.33437e-07
7.40762e-07
7.48132e-07
7.55568e-07
7.63095e-07
7.70746e-07
7.78555e-07
7.86567e-07
7.94828e-07
8.03395e-07
8.12332e-07
8.21709e-07
8.31604e-07
8.421e-07
8.53282e-07
8.65238e-07
8.7805e-07
8.91791e-07
9.06523e-07
9.22289e-07
9.39114e-07
9.57006e-07
9.75957e-07
9.95951e-07
1.01696e-06
1.03897e-06
1.06193e-06
1.08584e-06
1.11066e-06
1.13636e-06
1.16292e-06
1.19032e-06
1.21852e-06
1.24748e-06
1.27717e-06
1.30755e-06
1.33855e-06
1.37013e-06
1.4022e-06
1.43467e-06
1.4674e-06
1.50022e-06
1.53244e-06
1.56384e-06
1.59559e-06
1.62798e-06
1.66102e-06
1.69473e-06
1.72913e-06
1.76423e-06
1.80004e-06
1.83657e-06
1.87385e-06
1.91189e-06
1.95069e-06
1.99029e-06
2.03068e-06
2.0719e-06
2.11395e-06
2.15686e-06
2.20064e-06
2.24531e-06
2.29088e-06
2.33738e-06
2.38482e-06
2.43323e-06
2.48262e-06
2.53301e-06
2.58442e-06
2.63688e-06
2.6904e-06
2.74501e-06
2.80072e-06
2.85757e-06
2.91557e-06
2.97475e-06
3.03513e-06
)
;
    }
    inandouthalf32
    {
        type            cyclic;
        value           nonuniform List<scalar> 
110
(
-4.86467e-07
-4.93819e-07
-5.01213e-07
-5.08646e-07
-5.16113e-07
-5.23613e-07
-5.31141e-07
-5.38695e-07
-5.4627e-07
-5.53863e-07
-5.6147e-07
-5.69088e-07
-5.76713e-07
-5.84341e-07
-5.91969e-07
-5.99592e-07
-6.07207e-07
-6.14811e-07
-6.224e-07
-6.29971e-07
-6.37521e-07
-6.45047e-07
-6.52548e-07
-6.60021e-07
-6.67465e-07
-6.7488e-07
-6.82266e-07
-6.89624e-07
-6.96957e-07
-7.04269e-07
-7.11564e-07
-7.18851e-07
-7.26138e-07
-7.33437e-07
-7.40762e-07
-7.48132e-07
-7.55568e-07
-7.63095e-07
-7.70746e-07
-7.78555e-07
-7.86567e-07
-7.94828e-07
-8.03395e-07
-8.12332e-07
-8.21709e-07
-8.31604e-07
-8.421e-07
-8.53282e-07
-8.65238e-07
-8.7805e-07
-8.91791e-07
-9.06523e-07
-9.22289e-07
-9.39114e-07
-9.57006e-07
-9.75957e-07
-9.95951e-07
-1.01696e-06
-1.03897e-06
-1.06193e-06
-1.08584e-06
-1.11066e-06
-1.13636e-06
-1.16292e-06
-1.19032e-06
-1.21852e-06
-1.24748e-06
-1.27717e-06
-1.30755e-06
-1.33855e-06
-1.37013e-06
-1.4022e-06
-1.43467e-06
-1.4674e-06
-1.50022e-06
-1.53244e-06
-1.56384e-06
-1.59559e-06
-1.62798e-06
-1.66102e-06
-1.69473e-06
-1.72913e-06
-1.76423e-06
-1.80004e-06
-1.83657e-06
-1.87385e-06
-1.91189e-06
-1.95069e-06
-1.99029e-06
-2.03068e-06
-2.0719e-06
-2.11395e-06
-2.15686e-06
-2.20064e-06
-2.24531e-06
-2.29088e-06
-2.33738e-06
-2.38482e-06
-2.43323e-06
-2.48262e-06
-2.53301e-06
-2.58442e-06
-2.63688e-06
-2.6904e-06
-2.74501e-06
-2.80072e-06
-2.85757e-06
-2.91557e-06
-2.97475e-06
-3.03513e-06
)
;
    }
    inandouthalf41
    {
        type            cyclic;
        value           nonuniform List<scalar> 
50
(
2.71675e-06
2.71675e-06
2.71675e-06
2.71675e-06
2.71675e-06
2.71675e-06
2.71675e-06
2.71675e-06
2.71675e-06
2.71675e-06
2.71675e-06
2.71675e-06
2.71675e-06
2.71675e-06
2.71675e-06
2.71675e-06
2.71675e-06
2.71675e-06
2.71675e-06
2.71675e-06
2.71675e-06
2.71675e-06
2.71675e-06
2.71675e-06
2.71675e-06
2.71675e-06
2.71675e-06
2.71675e-06
2.71675e-06
2.71675e-06
2.71675e-06
2.71675e-06
2.71675e-06
2.71675e-06
2.71675e-06
2.71675e-06
2.71675e-06
2.71675e-06
2.71675e-06
2.71675e-06
2.71675e-06
2.71675e-06
2.71675e-06
2.71675e-06
2.71675e-06
2.71675e-06
2.71675e-06
2.71675e-06
2.71675e-06
2.71675e-06
)
;
    }
    inandouthalf42
    {
        type            cyclic;
        value           nonuniform List<scalar> 
50
(
-2.71675e-06
-2.71675e-06
-2.71675e-06
-2.71675e-06
-2.71675e-06
-2.71675e-06
-2.71675e-06
-2.71675e-06
-2.71675e-06
-2.71675e-06
-2.71675e-06
-2.71675e-06
-2.71675e-06
-2.71675e-06
-2.71675e-06
-2.71675e-06
-2.71675e-06
-2.71675e-06
-2.71675e-06
-2.71675e-06
-2.71675e-06
-2.71675e-06
-2.71675e-06
-2.71675e-06
-2.71675e-06
-2.71675e-06
-2.71675e-06
-2.71675e-06
-2.71675e-06
-2.71675e-06
-2.71675e-06
-2.71675e-06
-2.71675e-06
-2.71675e-06
-2.71675e-06
-2.71675e-06
-2.71675e-06
-2.71675e-06
-2.71675e-06
-2.71675e-06
-2.71675e-06
-2.71675e-06
-2.71675e-06
-2.71675e-06
-2.71675e-06
-2.71675e-06
-2.71675e-06
-2.71675e-06
-2.71675e-06
-2.71675e-06
)
;
    }
    top
    {
        type            symmetryPlane;
        value           uniform 0;
    }
    walls
    {
        type            fixedValue;
        value           uniform 0;
    }
    frontAndBackPlanes
    {
        type            empty;
        value           nonuniform 0();
    }
}


// ************************************************************************* //
