/*--------------------------------*- C++ -*----------------------------------*\
| =========                 |                                                 |
| \\      /  F ield         | OpenFOAM: The Open Source CFD Toolbox           |
|  \\    /   O peration     | Version:  2.4.x                                 |
|   \\  /    A nd           | Web:      www.OpenFOAM.org                      |
|    \\/     M anipulation  |                                                 |
\*---------------------------------------------------------------------------*/
FoamFile
{
    version     2.0;
    format      ascii;
    class       volVectorField;
    location    "11";
    object      susb;
}
// * * * * * * * * * * * * * * * * * * * * * * * * * * * * * * * * * * * * * //

dimensions      [0 1 -2 0 0 0 0];

internalField   nonuniform List<vector> 
360
(
(0 6.02477e-18 0)
(0 6.68635e-18 0)
(0 -3.81002e-21 0)
(0 -9.25227e-19 0)
(-3.70025e-31 -3.88667e-19 0)
(-3.69991e-31 -2.12621e-19 0)
(-3.69949e-31 -2.73313e-19 0)
(0 -3.12173e-19 0)
(-3.69836e-31 -3.17326e-19 0)
(0 -3.19888e-19 0)
(-3.69722e-31 -3.2086e-19 0)
(0 -3.21959e-19 0)
(-3.69606e-31 -3.24524e-19 0)
(0 -3.27203e-19 0)
(0 -3.30794e-19 0)
(0 -3.34462e-19 0)
(0 -3.37373e-19 0)
(-3.69308e-31 -3.4002e-19 0)
(0 -3.44098e-19 0)
(0 -3.46965e-19 0)
(0 -3.49975e-19 0)
(-7.38118e-31 -3.54317e-19 0)
(0 -3.57485e-19 0)
(0 -3.61186e-19 0)
(0 -3.64996e-19 0)
(-3.688e-31 -3.68091e-19 0)
(0 -3.72331e-19 0)
(0 -3.76745e-19 0)
(0 -3.79928e-19 0)
(0 -3.83652e-19 0)
(0 -3.88841e-19 0)
(0 -3.91592e-19 0)
(0 -3.96424e-19 0)
(0 -4.01367e-19 0)
(0 -4.04538e-19 0)
(3.68103e-31 -4.09032e-19 0)
(0 -4.13332e-19 0)
(0 -4.1967e-19 0)
(0 -4.218e-19 0)
(0 -4.26976e-19 0)
(0 -4.33952e-19 0)
(0 -4.35479e-19 0)
(3.6757e-31 -4.4182e-19 0)
(0 -4.47633e-19 0)
(0 -4.51378e-19 0)
(0 -4.58332e-19 0)
(0 -4.61325e-19 0)
(0 -4.6588e-19 0)
(0 -4.75238e-19 0)
(0 -4.78606e-19 0)
(3.66907e-31 -4.82962e-19 0)
(0 -4.90231e-19 0)
(0 -4.96124e-19 0)
(0 -5.00879e-19 0)
(0 -5.08095e-19 0)
(0 -5.14056e-19 0)
(0 -5.19749e-19 0)
(0 -5.27782e-19 0)
(0 -5.31178e-19 0)
(0 -5.40123e-19 0)
(0 -5.47198e-19 0)
(0 -5.53178e-19 0)
(0 -5.61496e-19 0)
(0 -5.67802e-19 0)
(0 -5.75003e-19 0)
(0 -5.82806e-19 0)
(0 -5.91733e-19 0)
(0 -5.99128e-19 0)
(0 -6.05056e-19 0)
(0 -6.14782e-19 0)
(0 -6.26319e-19 0)
(0 -6.3152e-19 0)
(0 -6.40235e-19 0)
(0 -6.51358e-19 0)
(0 -6.60993e-19 0)
(0 -6.70169e-19 0)
(0 -6.78517e-19 0)
(0 -6.89742e-19 0)
(0 -7.00783e-19 0)
(0 -7.10671e-19 0)
(0 -7.21451e-19 0)
(0 -7.33638e-19 0)
(0 -7.45223e-19 0)
(0 -7.57197e-19 0)
(0 -7.69579e-19 0)
(0 -7.82439e-19 0)
(0 -7.95483e-19 0)
(0 -8.08533e-19 0)
(0 -8.22536e-19 0)
(0 -8.3701e-19 0)
(0 -8.51693e-19 0)
(0 -8.67144e-19 0)
(0 -8.83255e-19 0)
(0 -8.99692e-19 0)
(0 -9.16667e-19 0)
(0 -9.3421e-19 0)
(0 -9.52286e-19 0)
(0 -9.70966e-19 0)
(0 -9.90369e-19 0)
(0 -1.01051e-18 0)
(0 -1.03141e-18 0)
(0 -1.05314e-18 0)
(0 -1.07572e-18 0)
(0 -1.09913e-18 0)
(0 -1.12343e-18 0)
(0 -1.14867e-18 0)
(0 -1.17487e-18 0)
(0 -1.20212e-18 0)
(0 -1.23047e-18 0)
(0 -1.25997e-18 0)
(0 -1.2907e-18 0)
(0 -1.32271e-18 0)
(0 -1.3561e-18 0)
(0 -1.39096e-18 0)
(0 -1.4274e-18 0)
(0 -1.46554e-18 0)
(0 -1.50554e-18 0)
(0 -1.54756e-18 0)
(0 -1.5918e-18 0)
(0 -1.63846e-18 0)
(0 -1.68773e-18 0)
(0 -1.73978e-18 0)
(0 -1.79472e-18 0)
(0 -1.85267e-18 0)
(0 -1.91392e-18 0)
(0 -1.979e-18 0)
(0 -2.04881e-18 0)
(0 -2.12426e-18 0)
(0 -2.20548e-18 0)
(0 -3.75286e-18 0)
(0 -7.74594e-18 0)
(0 -1.52649e-17 0)
(0 -2.8865e-17 0)
(0 -5.26445e-17 0)
(0 -9.24645e-17 0)
(0 -1.54529e-16 0)
(0 -2.3807e-16 0)
(0 -3.06844e-16 0)
(0 -2.75992e-16 0)
(0 -5.19561e-16 0)
(0 -5.34065e-15 0)
(0 -3.04059e-13 0)
(0 -3.59841e-12 0)
(0 -2.50213e-12 0)
(0 -7.78987e-10 0)
(0 -2.35255e-08 0)
(0 -7.22918e-07 0)
(0 -9.2392e-05 0)
(0 -0.165428 0)
(0 -1.40617 0)
(0 -1.15157 0)
(0 -0.600685 0)
(0 -0.433032 0)
(0 -0.321964 0)
(0 -0.234236 0)
(0 -0.167105 0)
(0 -0.117475 0)
(0 -0.0813635 0)
(0 -0.05658 0)
(0 -0.0410649 0)
(0 -0.0316615 0)
(0 -0.0256468 0)
(0 -0.0215019 0)
(0 -0.0184943 0)
(0 -0.0162214 0)
(0 -0.0144455 0)
(0 -0.0130209 0)
(0 -0.0118531 0)
(0 -0.0108787 0)
(0 -0.0100533 0)
(0 -0.00934489 0)
(0 -0.00873001 0)
(0 -0.00819089 0)
(0 -0.00771388 0)
(0 -0.00728836 0)
(0 -0.0069059 0)
(0 -0.00655978 0)
(0 -0.00624456 0)
(0 -0.00595578 0)
(0 -0.00568982 0)
(0 -0.00544365 0)
(0 -0.00521477 0)
(0 -0.00500107 0)
(0 -0.0048008 0)
(0 -0.00461248 0)
(0 -0.00443483 0)
(0 -0.00426681 0)
(0 -0.00410748 0)
(0 -0.00395607 0)
(0 -0.00381189 0)
(0 -0.00367432 0)
(0 -0.00354281 0)
(0 -0.00341683 0)
(0 -0.00329585 0)
(0 -0.00317933 0)
(0 -0.00306672 0)
(0 -0.00295742 0)
(0 -0.00285082 0)
(0 -0.00274628 0)
(0 -0.00264317 0)
(0 -0.00254091 0)
(0 -0.00243787 0)
(-2.56539e-18 -0.00233273 0)
(0 -0.00222533 0)
(0 -0.00211565 0)
(1.195e-18 -0.002004 0)
(0 -0.0018909 0)
(-1.13386e-18 -0.00177721 0)
(0 -0.00166393 0)
(1.07144e-18 -0.00155227 0)
(0 -0.00144347 0)
(0 -0.00133878 0)
(0 -0.00123938 0)
(9.52073e-19 -0.00114628 0)
(0 -0.00106027 0)
(0 -0.000981705 0)
(0 -0.000910272 0)
(0 -0.00084485 0)
(0 -0.000783775 0)
(-4.31256e-19 -0.000725399 0)
(0 -0.000668595 0)
(-2.14115e-19 -0.000612936 0)
(0 -0.000558595 0)
(-2.12966e-19 -0.000506066 0)
(0 -0.000455938 0)
(0 -0.000408722 0)
(0 -0.000364671 0)
(0 -0.000323558 0)
(1.03471e-19 -0.000286229 0)
(1.02444e-19 -0.00025034 0)
(0 -0.000219298 0)
(0 -0.000187937 0)
(0 -0.000163005 0)
(0 -0.000134342 0)
(0 -0.000118574 0)
(0 -0.000118415 0)
(0 -8.36185e-05 0)
(0 -3.51404e-05 0)
(0 -3.20226e-05 0)
(0 -2.5274e-05 0)
(0 -1.95517e-05 0)
(0 -1.48553e-05 0)
(0 -1.10687e-05 0)
(-2.43494e-21 -8.07572e-06 0)
(2.30113e-21 -5.7681e-06 0)
(0 -4.01685e-06 0)
(0 -2.74552e-06 0)
(0 -1.81087e-06 0)
(0 -1.18375e-06 0)
(0 -7.39211e-07 0)
(-5.1907e-23 -4.54928e-07 0)
(0 -2.7252e-07 0)
(0 -1.13469e-07 0)
(0 -2.14548e-18 0)
(0 -1.39137e-29 0)
(0 -6.8951e-41 0)
(0 -2.81445e-52 0)
(0 -2.63032e-61 0)
(0 -4.48679e-64 0)
(0 -8.19506e-65 0)
(0 -3.87364e-65 0)
(0 -1.92994e-65 0)
(0 -8.88289e-66 0)
(0 -4.16728e-66 0)
(0 -1.9116e-66 0)
(0 -8.55444e-67 0)
(7.43028e-83 -3.72638e-67 0)
(0 -1.57563e-67 0)
(0 -6.44228e-68 0)
(0 -2.53345e-68 0)
(0 -9.50596e-69 0)
(0 -3.35937e-69 0)
(0 -1.09207e-69 0)
(0 -3.09952e-70 0)
(0 -6.44687e-71 0)
(0 -4.8397e-72 0)
(0 -5.9296e-74 0)
(0 -2.69718e-76 0)
(0 -1.0789e-78 0)
(0 -3.96694e-81 0)
(0 -1.34047e-83 0)
(0 -4.12819e-86 0)
(0 -6.50026e-89 0)
(0 -4.40587e-91 0)
(0 -1.36151e-91 0)
(0 -4.07223e-92 0)
(0 -1.17656e-92 0)
(0 -3.27821e-93 0)
(0 -8.79214e-94 0)
(0 -2.26524e-94 0)
(0 -5.5942e-95 0)
(0 -1.32101e-95 0)
(0 -2.97474e-96 0)
(0 -6.36886e-97 0)
(0 -1.29206e-97 0)
(0 -2.47437e-98 0)
(3.73762e-115 -4.45381e-99 0)
(0 -7.49779e-100 0)
(0 -1.17375e-100 0)
(0 -1.69721e-101 0)
(0 -2.24874e-102 0)
(0 -2.70386e-103 0)
(0 -2.91533e-104 0)
(0 -2.77648e-105 0)
(0 -2.29009e-106 0)
(0 -1.59266e-107 0)
(0 -8.98535e-109 0)
(0 -3.87067e-110 0)
(0 -1.14165e-111 0)
(0 -1.78102e-113 0)
(0 -2.18681e-116 0)
(0 -4.89004e-123 0)
(0 -2.99791e-125 0)
(0 -9.09197e-128 0)
(0 -3.83e-138 0)
(0 -8.25564e-149 0)
(0 -1.33932e-159 0)
(0 -1.58468e-170 0)
(0 -1.63857e-181 0)
(0 -1.3115e-192 0)
(0 -9.01646e-204 0)
(0 -1.53409e-214 0)
(0 -6.3943e-225 0)
(0 -3.51668e-233 0)
(0 -1.80011e-243 0)
(0 -1.20937e-251 0)
(0 -7.33087e-262 0)
(0 -4.16414e-270 0)
(0 -3.09828e-280 0)
(0 -1.43617e-288 0)
(0 -1.99113e-298 0)
(0 -5.09782e-307 0)
(0 -1.32365e-316 0)
(0 -0 0)
(0 -0 0)
(0 0 0)
(0 0 0)
(0 0 0)
(0 0 0)
(0 0 0)
(0 0 0)
(0 0 0)
(0 0 0)
(0 0 0)
(0 0 0)
(0 0 0)
(0 0 0)
(0 0 0)
(0 0 0)
(0 0 0)
(0 0 0)
(0 0 0)
(0 0 0)
(0 0 0)
(0 0 0)
(0 0 0)
(0 0 0)
(0 0 0)
(0 0 0)
(0 0 0)
)
;

boundaryField
{
    inandouthalf11
    {
        type            cyclic;
    }
    inandouthalf12
    {
        type            cyclic;
    }
    inandouthalf21
    {
        type            cyclic;
    }
    inandouthalf22
    {
        type            cyclic;
    }
    inandouthalf31
    {
        type            cyclic;
    }
    inandouthalf32
    {
        type            cyclic;
    }
    inandouthalf41
    {
        type            cyclic;
    }
    inandouthalf42
    {
        type            cyclic;
    }
    top
    {
        type            symmetryPlane;
    }
    walls
    {
        type            zeroGradient;
    }
    frontAndBackPlanes
    {
        type            empty;
    }
}


// ************************************************************************* //
