/*--------------------------------*- C++ -*----------------------------------*\
| =========                 |                                                 |
| \\      /  F ield         | OpenFOAM: The Open Source CFD Toolbox           |
|  \\    /   O peration     | Version:  2.4.x                                 |
|   \\  /    A nd           | Web:      www.OpenFOAM.org                      |
|    \\/     M anipulation  |                                                 |
\*---------------------------------------------------------------------------*/
FoamFile
{
    version     2.0;
    format      ascii;
    class       volTensorField;
    location    "11";
    object      Tauf;
}
// * * * * * * * * * * * * * * * * * * * * * * * * * * * * * * * * * * * * * //

dimensions      [0 2 -2 0 0 0 0];

internalField   nonuniform List<tensor> 
360
(
(0 -4.09881e-07 0 -4.09881e-07 3.4058e-11 0 0 0 0)
(0 1.29493e-09 0 1.29493e-09 4.13535e-11 0 0 0 0)
(0 -5.24307e-12 0 -5.24307e-12 4.33697e-11 0 0 0 0)
(0 -2.32285e-10 0 -2.32285e-10 4.20195e-11 0 0 0 0)
(2.58494e-23 -1.00869e-10 0 -1.00869e-10 4.23273e-11 0 0 0 0)
(2.58494e-23 -5.7618e-11 0 -5.7618e-11 4.28182e-11 0 0 0 0)
(5.16988e-23 -7.25005e-11 0 -7.25005e-11 4.26815e-11 0 0 0 0)
(0 -8.20206e-11 0 -8.20206e-11 4.21412e-11 0 0 0 0)
(2.58494e-23 -8.32403e-11 0 -8.32403e-11 4.14666e-11 0 0 0 0)
(0 -8.38099e-11 0 -8.38099e-11 4.07374e-11 0 0 0 0)
(2.58494e-23 -8.39801e-11 0 -8.39801e-11 3.99482e-11 0 0 0 0)
(0 -8.4174e-11 0 -8.4174e-11 3.90918e-11 0 0 0 0)
(2.58494e-23 -8.4723e-11 0 -8.4723e-11 3.81829e-11 0 0 0 0)
(0 -8.52978e-11 0 -8.52978e-11 3.72453e-11 0 0 0 0)
(0 -8.60981e-11 0 -8.60981e-11 3.63047e-11 0 0 0 0)
(0 -8.69207e-11 0 -8.69207e-11 3.53828e-11 0 0 0 0)
(0 -8.75616e-11 0 -8.75616e-11 3.44932e-11 0 0 0 0)
(5.16988e-23 -8.81436e-11 0 -8.81436e-11 3.3645e-11 0 0 0 0)
(0 -8.90855e-11 0 -8.90855e-11 3.28484e-11 0 0 0 0)
(0 -8.97367e-11 0 -8.97367e-11 3.21092e-11 0 0 0 0)
(0 -9.04319e-11 0 -9.04319e-11 3.14307e-11 0 0 0 0)
(2.58494e-23 -9.14647e-11 0 -9.14647e-11 3.08184e-11 0 0 0 0)
(0 -9.2217e-11 0 -9.2217e-11 3.02726e-11 0 0 0 0)
(0 -9.311e-11 0 -9.311e-11 2.97927e-11 0 0 0 0)
(0 -9.40388e-11 0 -9.40388e-11 2.93771e-11 0 0 0 0)
(5.16988e-23 -9.47998e-11 0 -9.47998e-11 2.90225e-11 0 0 0 0)
(0 -9.58521e-11 0 -9.58521e-11 2.87275e-11 0 0 0 0)
(0 -9.69556e-11 0 -9.69556e-11 2.84902e-11 0 0 0 0)
(0 -9.77622e-11 0 -9.77622e-11 2.83052e-11 0 0 0 0)
(0 -9.87096e-11 0 -9.87096e-11 2.81677e-11 0 0 0 0)
(0 -1.00027e-10 0 -1.00027e-10 2.80771e-11 0 0 0 0)
(0 -1.00747e-10 0 -1.00747e-10 2.80267e-11 0 0 0 0)
(0 -1.01988e-10 0 -1.01988e-10 2.80147e-11 0 0 0 0)
(0 -1.03263e-10 0 -1.03263e-10 2.80387e-11 0 0 0 0)
(0 -1.04103e-10 0 -1.04103e-10 2.8092e-11 0 0 0 0)
(-2.58494e-23 -1.05275e-10 0 -1.05275e-10 2.8172e-11 0 0 0 0)
(0 -1.06405e-10 0 -1.06405e-10 2.82754e-11 0 0 0 0)
(0 -1.08044e-10 0 -1.08044e-10 2.84042e-11 0 0 0 0)
(0 -1.08642e-10 0 -1.08642e-10 2.85486e-11 0 0 0 0)
(0 -1.10001e-10 0 -1.10001e-10 2.87075e-11 0 0 0 0)
(0 -1.1181e-10 0 -1.1181e-10 2.88838e-11 0 0 0 0)
(0 -1.12267e-10 0 -1.12267e-10 2.90663e-11 0 0 0 0)
(-2.58494e-23 -1.13924e-10 0 -1.13924e-10 2.92583e-11 0 0 0 0)
(0 -1.15453e-10 0 -1.15453e-10 2.94597e-11 0 0 0 0)
(0 -1.1647e-10 0 -1.1647e-10 2.96647e-11 0 0 0 0)
(0 -1.18288e-10 0 -1.18288e-10 2.98756e-11 0 0 0 0)
(0 -1.1912e-10 0 -1.1912e-10 3.00836e-11 0 0 0 0)
(0 -1.20343e-10 0 -1.20343e-10 3.02876e-11 0 0 0 0)
(0 -1.22769e-10 0 -1.22769e-10 3.04986e-11 0 0 0 0)
(0 -1.237e-10 0 -1.237e-10 3.07073e-11 0 0 0 0)
(-5.16988e-23 -1.24879e-10 0 -1.24879e-10 3.09098e-11 0 0 0 0)
(0 -1.26789e-10 0 -1.26789e-10 3.11088e-11 0 0 0 0)
(0 -1.28356e-10 0 -1.28356e-10 3.13036e-11 0 0 0 0)
(0 -1.29639e-10 0 -1.29639e-10 3.14909e-11 0 0 0 0)
(0 -1.31541e-10 0 -1.31541e-10 3.1674e-11 0 0 0 0)
(0 -1.3313e-10 0 -1.3313e-10 3.18503e-11 0 0 0 0)
(0 -1.34654e-10 0 -1.34654e-10 3.20169e-11 0 0 0 0)
(0 -1.36765e-10 0 -1.36765e-10 3.21781e-11 0 0 0 0)
(0 -1.37715e-10 0 -1.37715e-10 3.23224e-11 0 0 0 0)
(0 -1.40058e-10 0 -1.40058e-10 3.24612e-11 0 0 0 0)
(0 -1.41936e-10 0 -1.41936e-10 3.25935e-11 0 0 0 0)
(0 -1.4354e-10 0 -1.4354e-10 3.27172e-11 0 0 0 0)
(0 -1.45734e-10 0 -1.45734e-10 3.28347e-11 0 0 0 0)
(0 -1.47424e-10 0 -1.47424e-10 3.29399e-11 0 0 0 0)
(0 -1.49341e-10 0 -1.49341e-10 3.30329e-11 0 0 0 0)
(0 -1.51412e-10 0 -1.51412e-10 3.31142e-11 0 0 0 0)
(0 -1.53768e-10 0 -1.53768e-10 3.31866e-11 0 0 0 0)
(0 -1.55741e-10 0 -1.55741e-10 3.32468e-11 0 0 0 0)
(0 -1.57345e-10 0 -1.57345e-10 3.3289e-11 0 0 0 0)
(0 -1.59911e-10 0 -1.59911e-10 3.33205e-11 0 0 0 0)
(0 -1.62939e-10 0 -1.62939e-10 3.33508e-11 0 0 0 0)
(0 -1.64368e-10 0 -1.64368e-10 3.33656e-11 0 0 0 0)
(0 -1.66687e-10 0 -1.66687e-10 3.33679e-11 0 0 0 0)
(0 -1.69621e-10 0 -1.69621e-10 3.33621e-11 0 0 0 0)
(0 -1.72183e-10 0 -1.72183e-10 3.33479e-11 0 0 0 0)
(0 -1.74632e-10 0 -1.74632e-10 3.33224e-11 0 0 0 0)
(0 -1.76873e-10 0 -1.76873e-10 3.32778e-11 0 0 0 0)
(0 -1.79849e-10 0 -1.79849e-10 3.32192e-11 0 0 0 0)
(0 -1.82783e-10 0 -1.82783e-10 3.31481e-11 0 0 0 0)
(0 -1.85428e-10 0 -1.85428e-10 3.30633e-11 0 0 0 0)
(0 -1.88305e-10 0 -1.88305e-10 3.2966e-11 0 0 0 0)
(0 -1.91546e-10 0 -1.91546e-10 3.28599e-11 0 0 0 0)
(0 -1.9464e-10 0 -1.9464e-10 3.27448e-11 0 0 0 0)
(0 -1.97839e-10 0 -1.97839e-10 3.26211e-11 0 0 0 0)
(0 -2.01149e-10 0 -2.01149e-10 3.24873e-11 0 0 0 0)
(0 -2.04588e-10 0 -2.04588e-10 3.23421e-11 0 0 0 0)
(0 -2.08081e-10 0 -2.08081e-10 3.21836e-11 0 0 0 0)
(0 -2.11582e-10 0 -2.11582e-10 3.20091e-11 0 0 0 0)
(0 -2.15335e-10 0 -2.15335e-10 3.18192e-11 0 0 0 0)
(0 -2.19216e-10 0 -2.19216e-10 3.16148e-11 0 0 0 0)
(0 -2.2316e-10 0 -2.2316e-10 3.13969e-11 0 0 0 0)
(0 -2.27311e-10 0 -2.27311e-10 3.11676e-11 0 0 0 0)
(0 -2.31642e-10 0 -2.31642e-10 3.0929e-11 0 0 0 0)
(0 -2.36068e-10 0 -2.36068e-10 3.06814e-11 0 0 0 0)
(0 -2.40644e-10 0 -2.40644e-10 3.0425e-11 0 0 0 0)
(0 -2.45379e-10 0 -2.45379e-10 3.01594e-11 0 0 0 0)
(0 -2.50265e-10 0 -2.50265e-10 2.9884e-11 0 0 0 0)
(0 -2.5532e-10 0 -2.5532e-10 2.95989e-11 0 0 0 0)
(0 -2.60577e-10 0 -2.60577e-10 2.93052e-11 0 0 0 0)
(0 -2.66041e-10 0 -2.66041e-10 2.9005e-11 0 0 0 0)
(0 -2.71719e-10 0 -2.71719e-10 2.87014e-11 0 0 0 0)
(0 -2.77633e-10 0 -2.77633e-10 2.83982e-11 0 0 0 0)
(0 -2.83786e-10 0 -2.83786e-10 2.80999e-11 0 0 0 0)
(0 -2.90179e-10 0 -2.90179e-10 2.78104e-11 0 0 0 0)
(0 -2.96827e-10 0 -2.96827e-10 2.7534e-11 0 0 0 0)
(0 -3.03744e-10 0 -3.03744e-10 2.72741e-11 0 0 0 0)
(0 -3.10944e-10 0 -3.10944e-10 2.70333e-11 0 0 0 0)
(0 -3.18446e-10 0 -3.18446e-10 2.68128e-11 0 0 0 0)
(0 -3.26266e-10 0 -3.26266e-10 2.66122e-11 0 0 0 0)
(0 -3.34423e-10 0 -3.34423e-10 2.64287e-11 0 0 0 0)
(0 -3.42934e-10 0 -3.42934e-10 2.62566e-11 0 0 0 0)
(0 -3.5182e-10 0 -3.5182e-10 2.60875e-11 0 0 0 0)
(0 -3.61104e-10 0 -3.61104e-10 2.59102e-11 0 0 0 0)
(0 -3.70814e-10 0 -3.70814e-10 2.57119e-11 0 0 0 0)
(0 -3.80979e-10 0 -3.80979e-10 2.54795e-11 0 0 0 0)
(0 -3.91635e-10 0 -3.91635e-10 2.52019e-11 0 0 0 0)
(0 -4.02826e-10 0 -4.02826e-10 2.48735e-11 0 0 0 0)
(0 -4.14603e-10 0 -4.14603e-10 2.44974e-11 0 0 0 0)
(0 -4.27022e-10 0 -4.27022e-10 2.40888e-11 0 0 0 0)
(0 -4.40149e-10 0 -4.40149e-10 2.36783e-11 0 0 0 0)
(0 -4.54046e-10 0 -4.54046e-10 2.33134e-11 0 0 0 0)
(0 -4.68775e-10 0 -4.68775e-10 2.30597e-11 0 0 0 0)
(0 -4.84384e-10 0 -4.84384e-10 2.30011e-11 0 0 0 0)
(0 -5.00933e-10 0 -5.00933e-10 2.32403e-11 0 0 0 0)
(0 -5.18516e-10 0 -5.18516e-10 2.38998e-11 0 0 0 0)
(0 -5.37315e-10 0 -5.37315e-10 2.51228e-11 0 0 0 0)
(0 -5.57606e-10 0 -5.57606e-10 2.7071e-11 0 0 0 0)
(0 -5.79674e-10 0 -5.79674e-10 2.99094e-11 0 0 0 0)
(0 -6.03594e-10 0 -6.03594e-10 3.37637e-11 0 0 0 0)
(0 -6.29068e-10 0 -6.29068e-10 3.86332e-11 0 0 0 0)
(0 -6.55833e-10 0 -6.55833e-10 4.42551e-11 0 0 0 0)
(0 -6.85033e-10 0 -6.85033e-10 4.99562e-11 0 0 0 0)
(0 -7.20111e-10 0 -7.20111e-10 5.4556e-11 0 0 0 0)
(0 -7.63765e-10 0 -7.63765e-10 5.63986e-11 0 0 0 0)
(0 -8.12645e-10 0 -8.12645e-10 5.36708e-11 0 0 0 0)
(0 -8.60866e-10 0 -8.60866e-10 4.53062e-11 0 0 0 0)
(0 -9.13923e-10 0 -9.13923e-10 3.2252e-11 0 0 0 0)
(0 -9.94799e-10 0 -9.94799e-10 1.77713e-11 0 0 0 0)
(0 -1.12053e-09 0 -1.12053e-09 5.83077e-12 0 0 0 0)
(0 -1.24353e-09 0 -1.24353e-09 -1.8712e-12 0 0 0 0)
(0 -1.4071e-09 0 -1.4071e-09 -2.20003e-11 0 0 0 0)
(0 -6.07669e-09 0 -6.07669e-09 -4.45473e-12 0 0 0 0)
(0 -4.52234e-09 0 -4.52234e-09 -4.40801e-12 0 0 0 0)
(0 -1.8428e-10 0 -1.8428e-10 -1.33695e-11 0 0 0 0)
(0 -2.59921e-09 0 -2.59921e-09 -7.27702e-11 0 0 0 0)
(0 -3.17201e-09 0 -3.17201e-09 9.86356e-10 0 0 0 0)
(0 -3.52673e-09 0 -3.52673e-09 -4.07557e-09 0 0 0 0)
(0 -2.03486e-07 0 -2.03486e-07 1.48268e-08 0 0 0 0)
(0 -7.59538e-05 0 -7.59538e-05 -2.08238e-07 0 0 0 0)
(0 -0.000687983 0 -0.000687983 -3.4183e-06 0 0 0 0)
(0 -0.00217893 0 -0.00217893 -3.22766e-06 0 0 0 0)
(0 -0.00217169 0 -0.00217169 7.02875e-06 0 0 0 0)
(0 -0.00197742 0 -0.00197742 3.67526e-06 0 0 0 0)
(0 -0.00172348 0 -0.00172348 5.86912e-06 0 0 0 0)
(0 -0.00146952 0 -0.00146952 4.94068e-06 0 0 0 0)
(0 -0.00123951 0 -0.00123951 3.9417e-06 0 0 0 0)
(0 -0.00104053 0 -0.00104053 2.8744e-06 0 0 0 0)
(0 -0.000869198 0 -0.000869198 1.8857e-06 0 0 0 0)
(0 -0.000719179 0 -0.000719179 1.11531e-06 0 0 0 0)
(0 -0.00058558 0 -0.00058558 6.01518e-07 0 0 0 0)
(0 -0.000464926 0 -0.000464926 2.64006e-07 0 0 0 0)
(0 -0.000354462 0 -0.000354462 3.24468e-08 0 0 0 0)
(0 -0.000252009 0 -0.000252009 -1.39241e-07 0 0 0 0)
(0 -0.000155932 0 -0.000155932 -2.71708e-07 0 0 0 0)
(0 -6.50663e-05 0 -6.50663e-05 -3.74813e-07 0 0 0 0)
(0 2.14126e-05 0 2.14126e-05 -4.55006e-07 0 0 0 0)
(0 0.000104095 0 0.000104095 -5.17052e-07 0 0 0 0)
(0 0.000183387 0 0.000183387 -5.64515e-07 0 0 0 0)
(0 0.000259579 0 0.000259579 -6.00119e-07 0 0 0 0)
(0 0.000332886 0 0.000332886 -6.26002e-07 0 0 0 0)
(0 0.000403466 0 0.000403466 -6.4387e-07 0 0 0 0)
(0 0.00047144 0 0.00047144 -6.55114e-07 0 0 0 0)
(0 0.000536904 0 0.000536904 -6.6087e-07 0 0 0 0)
(0 0.000599932 0 0.000599932 -6.62076e-07 0 0 0 0)
(0 0.00066059 0 0.00066059 -6.59509e-07 0 0 0 0)
(0 0.00071893 0 0.00071893 -6.53814e-07 0 0 0 0)
(0 0.000774999 0 0.000774999 -6.45532e-07 0 0 0 0)
(0 0.000828843 0 0.000828843 -6.35115e-07 0 0 0 0)
(0 0.000880499 0 0.000880499 -6.22944e-07 0 0 0 0)
(0 0.000930005 0 0.000930005 -6.09341e-07 0 0 0 0)
(0 0.000977398 0 0.000977398 -5.9458e-07 0 0 0 0)
(0 0.00102271 0 0.00102271 -5.78893e-07 0 0 0 0)
(0 0.00106598 0 0.00106598 -5.62477e-07 0 0 0 0)
(0 0.00110724 0 0.00110724 -5.45502e-07 0 0 0 0)
(0 0.00114652 0 0.00114652 -5.28114e-07 0 0 0 0)
(0 0.00118386 0 0.00118386 -5.10438e-07 0 0 0 0)
(0 0.00121928 0 0.00121928 -4.92579e-07 0 0 0 0)
(0 0.00125282 0 0.00125282 -4.74631e-07 0 0 0 0)
(0 0.00128452 0 0.00128452 -4.56672e-07 0 0 0 0)
(0 0.00131441 0 0.00131441 -4.38768e-07 0 0 0 0)
(0 0.00134251 0 0.00134251 -4.20977e-07 0 0 0 0)
(0 0.00136886 0 0.00136886 -4.03345e-07 0 0 0 0)
(0 0.0013935 0 0.0013935 -3.85913e-07 0 0 0 0)
(0 0.00141645 0 0.00141645 -3.6871e-07 0 0 0 0)
(0 0.00143775 0 0.00143775 -3.51762e-07 0 0 0 0)
(0 0.00145743 0 0.00145743 -3.3509e-07 0 0 0 0)
(0 0.00147552 0 0.00147552 -3.18709e-07 0 0 0 0)
(0 0.00149206 0 0.00149206 -3.02634e-07 0 0 0 0)
(0 0.00150707 0 0.00150707 -2.86879e-07 0 0 0 0)
(0 0.00152061 0 0.00152061 -2.7146e-07 0 0 0 0)
(0 0.00153276 0 0.00153276 -2.56392e-07 0 0 0 0)
(0 0.00154376 0 0.00154376 -2.41555e-07 0 0 0 0)
(3.22224e-17 0.00155379 0 0.00155379 -2.26844e-07 0 0 0 0)
(0 0.00156284 0 0.00156284 -2.12318e-07 0 0 0 0)
(0 0.00157087 0 0.00157087 -1.98044e-07 0 0 0 0)
(-3.07156e-17 0.0015778 0 0.0015778 -1.84096e-07 0 0 0 0)
(0 0.00158359 0 0.00158359 -1.7055e-07 0 0 0 0)
(2.96902e-17 0.00158815 0 0.00158815 -1.57484e-07 0 0 0 0)
(0 0.00159143 0 0.00159143 -1.44964e-07 0 0 0 0)
(-2.86478e-17 0.00159336 0 0.00159336 -1.33047e-07 0 0 0 0)
(0 0.00159386 0 0.00159386 -1.2177e-07 0 0 0 0)
(0 0.00159288 0 0.00159288 -1.11147e-07 0 0 0 0)
(0 0.00159034 0 0.00159034 -1.01171e-07 0 0 0 0)
(-2.65118e-17 0.00158617 0 0.00158617 -9.18138e-08 0 0 0 0)
(0 0.00158032 0 0.00158032 -8.30296e-08 0 0 0 0)
(0 0.00157271 0 0.00157271 -7.47652e-08 0 0 0 0)
(0 0.00156328 0 0.00156328 -6.69699e-08 0 0 0 0)
(0 0.00155197 0 0.00155197 -5.96073e-08 0 0 0 0)
(0 0.00153872 0 0.00153872 -5.26632e-08 0 0 0 0)
(0 0.00152347 0 0.00152347 -4.61486e-08 0 0 0 0)
(0 0.00150616 0 0.00150616 -4.00942e-08 0 0 0 0)
(2.20353e-17 0.00148674 0 0.00148674 -3.45382e-08 0 0 0 0)
(0 0.00146516 0 0.00146516 -2.95129e-08 0 0 0 0)
(2.08756e-17 0.00144138 0 0.00144138 -2.50345e-08 0 0 0 0)
(0 0.00141536 0 0.00141536 -2.10987e-08 0 0 0 0)
(0 0.00138707 0 0.00138707 -1.76806e-08 0 0 0 0)
(0 0.00135647 0 0.00135647 -1.4738e-08 0 0 0 0)
(0 0.00132355 0 0.00132355 -1.22238e-08 0 0 0 0)
(-1.79178e-17 0.0012883 0 0.0012883 -1.00827e-08 0 0 0 0)
(-1.73184e-17 0.00125072 0 0.00125072 -8.2673e-09 0 0 0 0)
(0 0.00121082 0 0.00121082 -6.73344e-09 0 0 0 0)
(0 0.00116863 0 0.00116863 -5.4394e-09 0 0 0 0)
(0 0.00112418 0 0.00112418 -4.33437e-09 0 0 0 0)
(0 0.00107755 0 0.00107755 -3.43139e-09 0 0 0 0)
(0 0.00102881 0 0.00102881 -2.88194e-09 0 0 0 0)
(0 0.000978065 0 0.000978065 -2.60907e-09 0 0 0 0)
(0 0.000925446 0 0.000925446 -2.27286e-09 0 0 0 0)
(0 0.000871078 0 0.000871078 -1.7628e-09 0 0 0 0)
(0 0.000815168 0 0.000815168 -1.22867e-09 0 0 0 0)
(0 0.000757996 0 0.000757996 -7.99605e-10 0 0 0 0)
(0 0.000699842 0 0.000699842 -4.95925e-10 0 0 0 0)
(0 0.000641033 0 0.000641033 -2.89112e-10 0 0 0 0)
(0 0.000581943 0 0.000581943 -1.52338e-10 0 0 0 0)
(1.83206e-17 0.000522999 0 0.000522999 -6.69273e-11 0 0 0 0)
(-1.73066e-17 0.000464678 0 0.000464678 -1.74365e-11 0 0 0 0)
(0 0.000407498 0 0.000407498 7.56418e-12 0 0 0 0)
(0 0.000352015 0 0.000352015 1.76345e-11 0 0 0 0)
(1.45609e-17 0.000298794 0 0.000298794 1.8871e-11 0 0 0 0)
(0 0.000248394 0 0.000248394 1.62569e-11 0 0 0 0)
(0 0.000201328 0 0.000201328 1.15651e-11 0 0 0 0)
(6.18337e-18 0.00015803 0 0.00015803 9.92663e-12 0 0 0 0)
(0 0.000118822 0 0.000118822 8.86544e-12 0 0 0 0)
(0 8.38905e-05 0 8.38905e-05 -1.68017e-13 0 0 0 0)
(0 5.32836e-05 0 5.32836e-05 -2.85839e-12 0 0 0 0)
(0 2.69199e-05 0 2.69199e-05 4.4592e-13 0 0 0 0)
(0 4.6158e-06 0 4.6158e-06 1.44219e-13 0 0 0 0)
(0 -1.38828e-05 0 -1.38828e-05 -1.91742e-14 0 0 0 0)
(0 -2.8869e-05 0 -2.8869e-05 -2.77383e-14 0 0 0 0)
(0 -4.065e-05 0 -4.065e-05 -1.44076e-14 0 0 0 0)
(0 -4.95295e-05 0 -4.95295e-05 -1.09632e-14 0 0 0 0)
(0 -5.57978e-05 0 -5.57978e-05 -1.05407e-14 0 0 0 0)
(0 -5.97283e-05 0 -5.97283e-05 -9.75442e-15 0 0 0 0)
(0 -6.15768e-05 0 -6.15768e-05 -8.4264e-15 0 0 0 0)
(0 -6.15835e-05 0 -6.15835e-05 -6.35502e-15 0 0 0 0)
(0 -5.99759e-05 0 -5.99759e-05 -5.69324e-15 0 0 0 0)
(0 -5.69718e-05 0 -5.69718e-05 -1.43137e-14 0 0 0 0)
(-4.94496e-18 -5.27824e-05 0 -5.27824e-05 -2.95167e-14 0 0 0 0)
(0 -4.7616e-05 0 -4.7616e-05 2.30386e-13 0 0 0 0)
(0 -4.16823e-05 0 -4.16823e-05 -6.1737e-13 0 0 0 0)
(0 -3.51966e-05 0 -3.51966e-05 1.03666e-12 0 0 0 0)
(0 -2.83858e-05 0 -2.83858e-05 -1.38466e-12 0 0 0 0)
(0 -2.14959e-05 0 -2.14959e-05 1.55958e-12 0 0 0 0)
(0 -1.48052e-05 0 -1.48052e-05 -1.51621e-12 0 0 0 0)
(0 -8.66684e-06 0 -8.66684e-06 1.22912e-12 0 0 0 0)
(0 -3.23357e-06 0 -3.23357e-06 -7.20428e-13 0 0 0 0)
(0 -3.38386e-07 0 -3.38386e-07 1.88233e-13 0 0 0 0)
(0 -1.5435e-08 0 -1.5435e-08 -6.09527e-14 0 0 0 0)
(0 -3.83293e-10 0 -3.83293e-10 5.59252e-14 0 0 0 0)
(0 -4.21872e-12 0 -4.21872e-12 -5.48115e-14 0 0 0 0)
(0 9.23669e-14 0 9.23669e-14 5.37005e-14 0 0 0 0)
(0 9.30965e-14 0 9.30965e-14 -5.26887e-14 0 0 0 0)
(0 6.27554e-14 0 6.27554e-14 5.16666e-14 0 0 0 0)
(0 4.15105e-14 0 4.15105e-14 -5.07229e-14 0 0 0 0)
(0 2.7382e-14 0 2.7382e-14 4.97616e-14 0 0 0 0)
(0 1.7842e-14 0 1.7842e-14 -4.88676e-14 0 0 0 0)
(0 1.14815e-14 0 1.14815e-14 4.79474e-14 0 0 0 0)
(-7.5226e-20 7.38543e-15 0 7.38543e-15 -4.70785e-14 0 0 0 0)
(0 4.6409e-15 0 4.6409e-15 4.61919e-14 0 0 0 0)
(0 2.89595e-15 0 2.89595e-15 -4.53499e-14 0 0 0 0)
(0 1.74288e-15 0 1.74288e-15 4.44687e-14 0 0 0 0)
(0 1.05275e-15 0 1.05275e-15 -4.36346e-14 0 0 0 0)
(0 7.52624e-16 0 7.52624e-16 4.27569e-14 0 0 0 0)
(0 5.07049e-16 0 5.07049e-16 -4.19226e-14 0 0 0 0)
(0 2.15362e-16 0 2.15362e-16 4.10425e-14 0 0 0 0)
(0 3.24279e-17 0 3.24279e-17 -4.01997e-14 0 0 0 0)
(0 -8.7799e-17 0 -8.7799e-17 3.93135e-14 0 0 0 0)
(0 7.92685e-17 0 7.92685e-17 -3.84606e-14 0 0 0 0)
(0 1.79944e-16 0 1.79944e-16 3.75623e-14 0 0 0 0)
(0 2.2003e-17 0 2.2003e-17 -3.66783e-14 0 0 0 0)
(5.79322e-20 -1.2622e-16 0 -1.2622e-16 3.57763e-14 0 0 0 0)
(0 2.86028e-17 0 2.86028e-17 -3.48701e-14 0 0 0 0)
(0 4.23915e-17 0 4.23915e-17 3.39475e-14 0 0 0 0)
(0 -2.39035e-17 0 -2.39035e-17 -3.30189e-14 0 0 0 0)
(0 1.28393e-16 0 1.28393e-16 3.20726e-14 0 0 0 0)
(0 -1.4605e-16 0 -1.4605e-16 -3.11178e-14 0 0 0 0)
(0 -2.48507e-16 0 -2.48507e-16 3.01446e-14 0 0 0 0)
(0 1.99373e-16 0 1.99373e-16 -2.916e-14 0 0 0 0)
(0 2.96877e-16 0 2.96877e-16 2.81555e-14 0 0 0 0)
(0 -7.56165e-17 0 -7.56165e-17 -2.71364e-14 0 0 0 0)
(0 -2.61869e-16 0 -2.61869e-16 2.61219e-14 0 0 0 0)
(0 -1.51023e-16 0 -1.51023e-16 -2.87267e-14 0 0 0 0)
(0 -6.767e-17 0 -6.767e-17 2.83614e-14 0 0 0 0)
(0 4.64809e-17 0 4.64809e-17 -2.80227e-14 0 0 0 0)
(0 3.81959e-17 0 3.81959e-17 2.76795e-14 0 0 0 0)
(0 3.34313e-17 0 3.34313e-17 -2.73373e-14 0 0 0 0)
(0 5.23043e-17 0 5.23043e-17 2.69903e-14 0 0 0 0)
(0 1.23084e-17 0 1.23084e-17 -2.66438e-14 0 0 0 0)
(0 -6.40569e-18 0 -6.40569e-18 2.62929e-14 0 0 0 0)
(0 -3.62901e-17 0 -3.62901e-17 -2.59415e-14 0 0 0 0)
(0 -1.29424e-16 0 -1.29424e-16 2.55859e-14 0 0 0 0)
(0 -5.19734e-17 0 -5.19734e-17 -2.52297e-14 0 0 0 0)
(0 1.29596e-16 0 1.29596e-16 2.48683e-14 0 0 0 0)
(0 6.00599e-17 0 6.00599e-17 -2.45066e-14 0 0 0 0)
(0 -3.86856e-17 0 -3.86856e-17 2.41393e-14 0 0 0 0)
(0 9.75411e-18 0 9.75411e-18 -2.37712e-14 0 0 0 0)
(0 -1.58819e-18 0 -1.58819e-18 2.33962e-14 0 0 0 0)
(0 1.1832e-17 0 1.1832e-17 -2.3024e-14 0 0 0 0)
(0 2.71712e-17 0 2.71712e-17 2.26347e-14 0 0 0 0)
(0 -4.53163e-17 0 -4.53163e-17 -2.2265e-14 0 0 0 0)
(0 1.01512e-17 0 1.01512e-17 2.18562e-14 0 0 0 0)
(0 2.73036e-17 0 2.73036e-17 -2.14857e-14 0 0 0 0)
(0 -5.12058e-17 0 -5.12058e-17 2.10635e-14 0 0 0 0)
(0 -3.82885e-17 0 -3.82885e-17 -2.06825e-14 0 0 0 0)
(0 4.9247e-17 0 4.9247e-17 2.0251e-14 0 0 0 0)
(0 1.38834e-17 0 1.38834e-17 -1.98516e-14 0 0 0 0)
(0 3.1724e-17 0 3.1724e-17 1.94131e-14 0 0 0 0)
(0 4.46942e-17 0 4.46942e-17 -1.8999e-14 0 0 0 0)
(0 -3.90694e-17 0 -3.90694e-17 1.85414e-14 0 0 0 0)
(0 -1.03537e-16 0 -1.03537e-16 -1.81055e-14 0 0 0 0)
(0 -1.73139e-16 0 -1.73139e-16 1.76433e-14 0 0 0 0)
(0 -3.76572e-16 0 -3.76572e-16 -1.7175e-14 0 0 0 0)
(0 -5.81276e-17 0 -5.81276e-17 1.67019e-14 0 0 0 0)
(0 3.58295e-16 0 3.58295e-16 -1.61914e-14 0 0 0 0)
(0 2.22756e-16 0 2.22756e-16 1.57114e-14 0 0 0 0)
(0 8.51533e-17 0 8.51533e-17 -1.51761e-14 0 0 0 0)
(0 2.16126e-17 0 2.16126e-17 1.46495e-14 0 0 0 0)
(0 3.99694e-17 0 3.99694e-17 -1.40638e-14 0 0 0 0)
(0 9.62176e-18 0 9.62176e-18 1.35451e-14 0 0 0 0)
(0 -2.50934e-17 0 -2.50934e-17 -1.28642e-14 0 0 0 0)
(0 -8.82238e-17 0 -8.82238e-17 1.23375e-14 0 0 0 0)
(0 1.77745e-17 0 1.77745e-17 -1.15292e-14 0 0 0 0)
(0 1.59176e-16 0 1.59176e-16 1.10141e-14 0 0 0 0)
(0 9.46824e-17 0 9.46824e-17 -1.00282e-14 0 0 0 0)
(0 -5.15896e-17 0 -5.15896e-17 9.50734e-15 0 0 0 0)
(0 -9.93014e-17 0 -9.93014e-17 -8.30894e-15 0 0 0 0)
(0 -8.72709e-17 0 -8.72709e-17 7.66402e-15 0 0 0 0)
(0 -4.92867e-17 0 -4.92867e-17 -6.11026e-15 0 0 0 0)
(0 3.83812e-17 0 3.83812e-17 4.97548e-15 0 0 0 0)
(0 -8.86076e-17 0 -8.86076e-17 -3.37344e-15 0 0 0 0)
(0 -1.16202e-16 0 -1.16202e-16 1.31586e-16 0 0 0 0)
)
;

boundaryField
{
    inandouthalf11
    {
        type            cyclic;
    }
    inandouthalf12
    {
        type            cyclic;
    }
    inandouthalf21
    {
        type            cyclic;
    }
    inandouthalf22
    {
        type            cyclic;
    }
    inandouthalf31
    {
        type            cyclic;
    }
    inandouthalf32
    {
        type            cyclic;
    }
    inandouthalf41
    {
        type            cyclic;
    }
    inandouthalf42
    {
        type            cyclic;
    }
    top
    {
        type            symmetryPlane;
    }
    walls
    {
        type            zeroGradient;
    }
    frontAndBackPlanes
    {
        type            empty;
    }
}


// ************************************************************************* //
