/*--------------------------------*- C++ -*----------------------------------*\
| =========                 |                                                 |
| \\      /  F ield         | OpenFOAM: The Open Source CFD Toolbox           |
|  \\    /   O peration     | Version:  2.4.x                                 |
|   \\  /    A nd           | Web:      www.OpenFOAM.org                      |
|    \\/     M anipulation  |                                                 |
\*---------------------------------------------------------------------------*/
FoamFile
{
    version     2.0;
    format      ascii;
    class       volTensorField;
    location    "11";
    object      Taus;
}
// * * * * * * * * * * * * * * * * * * * * * * * * * * * * * * * * * * * * * //

dimensions      [0 2 -2 0 0 0 0];

internalField   nonuniform List<tensor> 
360
(
(0 -0.0290555 0 -0.0290555 -0.204705 0 0 0 0)
(0 -0.0427931 0 -0.0427931 -0.258809 0 0 0 0)
(0 -0.0513709 0 -0.0513709 -0.261468 0 0 0 0)
(0 -0.0495725 0 -0.0495725 -0.255118 0 0 0 0)
(1.47992e-17 -0.0480564 0 -0.0480564 -0.252598 0 0 0 0)
(2.89748e-17 -0.0478883 0 -0.0478883 -0.251633 0 0 0 0)
(2.90683e-17 -0.0478158 0 -0.0478158 -0.250326 0 0 0 0)
(0 -0.0475573 0 -0.0475573 -0.248739 0 0 0 0)
(2.95907e-17 -0.0472452 0 -0.0472452 -0.247149 0 0 0 0)
(0 -0.0469312 0 -0.0469312 -0.24556 0 0 0 0)
(6.05982e-17 -0.0466199 0 -0.0466199 -0.243965 0 0 0 0)
(0 -0.0463167 0 -0.0463167 -0.242383 0 0 0 0)
(6.25629e-17 -0.046016 0 -0.046016 -0.240794 0 0 0 0)
(0 -0.0457171 0 -0.0457171 -0.239205 0 0 0 0)
(0 -0.0454179 0 -0.0454179 -0.23761 0 0 0 0)
(0 -0.0451168 0 -0.0451168 -0.236008 0 0 0 0)
(0 -0.0448153 0 -0.0448153 -0.2344 0 0 0 0)
(6.85913e-17 -0.0445158 0 -0.0445158 -0.232792 0 0 0 0)
(0 -0.0442167 0 -0.0442167 -0.23118 0 0 0 0)
(0 -0.0439156 0 -0.0439156 -0.229556 0 0 0 0)
(0 -0.0436185 0 -0.0436185 -0.22794 0 0 0 0)
(7.27266e-17 -0.0433191 0 -0.0433191 -0.22631 0 0 0 0)
(0 -0.0430196 0 -0.0430196 -0.224678 0 0 0 0)
(0 -0.0427208 0 -0.0427208 -0.223043 0 0 0 0)
(0 -0.0424212 0 -0.0424212 -0.221402 0 0 0 0)
(7.48983e-17 -0.0421223 0 -0.0421223 -0.219758 0 0 0 0)
(0 -0.0418242 0 -0.0418242 -0.218114 0 0 0 0)
(0 -0.041523 0 -0.041523 -0.216458 0 0 0 0)
(0 -0.0412223 0 -0.0412223 -0.214801 0 0 0 0)
(0 -0.0409228 0 -0.0409228 -0.213144 0 0 0 0)
(0 -0.0406215 0 -0.0406215 -0.211482 0 0 0 0)
(0 -0.040318 0 -0.040318 -0.209808 0 0 0 0)
(0 -0.0400184 0 -0.0400184 -0.208151 0 0 0 0)
(0 -0.0397115 0 -0.0397115 -0.206465 0 0 0 0)
(0 -0.0394079 0 -0.0394079 -0.204795 0 0 0 0)
(-1.42172e-16 -0.0391023 0 -0.0391023 -0.203112 0 0 0 0)
(0 -0.0387975 0 -0.0387975 -0.201435 0 0 0 0)
(0 -0.0384883 0 -0.0384883 -0.199748 0 0 0 0)
(0 -0.0381773 0 -0.0381773 -0.19805 0 0 0 0)
(0 -0.0378721 0 -0.0378721 -0.196376 0 0 0 0)
(0 -0.0375572 0 -0.0375572 -0.194669 0 0 0 0)
(0 -0.0372444 0 -0.0372444 -0.192973 0 0 0 0)
(-2.57284e-16 -0.0369347 0 -0.0369347 -0.191285 0 0 0 0)
(0 -0.0366169 0 -0.0366169 -0.189572 0 0 0 0)
(0 -0.0363017 0 -0.0363017 -0.187874 0 0 0 0)
(0 -0.0359834 0 -0.0359834 -0.186167 0 0 0 0)
(0 -0.0356631 0 -0.0356631 -0.18445 0 0 0 0)
(0 -0.0353487 0 -0.0353487 -0.182753 0 0 0 0)
(0 -0.035027 0 -0.035027 -0.181038 0 0 0 0)
(0 -0.0347002 0 -0.0347002 -0.179309 0 0 0 0)
(-1.1276e-16 -0.0343806 0 -0.0343806 -0.177604 0 0 0 0)
(0 -0.0340562 0 -0.0340562 -0.175879 0 0 0 0)
(0 -0.0337306 0 -0.0337306 -0.17416 0 0 0 0)
(0 -0.0334036 0 -0.0334036 -0.172431 0 0 0 0)
(0 -0.0330785 0 -0.0330785 -0.170715 0 0 0 0)
(0 -0.0327472 0 -0.0327472 -0.168974 0 0 0 0)
(0 -0.0324203 0 -0.0324203 -0.167256 0 0 0 0)
(0 -0.0320878 0 -0.0320878 -0.165516 0 0 0 0)
(0 -0.0317575 0 -0.0317575 -0.163782 0 0 0 0)
(0 -0.0314293 0 -0.0314293 -0.162058 0 0 0 0)
(0 -0.0310932 0 -0.0310932 -0.160307 0 0 0 0)
(0 -0.0307617 0 -0.0307617 -0.158578 0 0 0 0)
(0 -0.0304258 0 -0.0304258 -0.15683 0 0 0 0)
(0 -0.030091 0 -0.030091 -0.15509 0 0 0 0)
(0 -0.0297557 0 -0.0297557 -0.153344 0 0 0 0)
(0 -0.0294208 0 -0.0294208 -0.151601 0 0 0 0)
(0 -0.0290831 0 -0.0290831 -0.149851 0 0 0 0)
(0 -0.0287442 0 -0.0287442 -0.1481 0 0 0 0)
(0 -0.0284077 0 -0.0284077 -0.146349 0 0 0 0)
(0 -0.0280729 0 -0.0280729 -0.144605 0 0 0 0)
(0 -0.0277313 0 -0.0277313 -0.142845 0 0 0 0)
(0 -0.0273896 0 -0.0273896 -0.141083 0 0 0 0)
(0 -0.027054 0 -0.027054 -0.139338 0 0 0 0)
(0 -0.0267133 0 -0.0267133 -0.137574 0 0 0 0)
(0 -0.0263722 0 -0.0263722 -0.135817 0 0 0 0)
(0 -0.0260294 0 -0.0260294 -0.134049 0 0 0 0)
(0 -0.0256897 0 -0.0256897 -0.132291 0 0 0 0)
(0 -0.0253496 0 -0.0253496 -0.130528 0 0 0 0)
(0 -0.0250077 0 -0.0250077 -0.128763 0 0 0 0)
(0 -0.0246656 0 -0.0246656 -0.126995 0 0 0 0)
(0 -0.024325 0 -0.024325 -0.12523 0 0 0 0)
(0 -0.0239833 0 -0.0239833 -0.123461 0 0 0 0)
(0 -0.0236408 0 -0.0236408 -0.121691 0 0 0 0)
(0 -0.0232985 0 -0.0232985 -0.11992 0 0 0 0)
(0 -0.022956 0 -0.022956 -0.118147 0 0 0 0)
(0 -0.0226135 0 -0.0226135 -0.116374 0 0 0 0)
(0 -0.0222707 0 -0.0222707 -0.114599 0 0 0 0)
(0 -0.0219285 0 -0.0219285 -0.112824 0 0 0 0)
(0 -0.0215866 0 -0.0215866 -0.111049 0 0 0 0)
(0 -0.0212447 0 -0.0212447 -0.109272 0 0 0 0)
(0 -0.0209029 0 -0.0209029 -0.107494 0 0 0 0)
(0 -0.0205614 0 -0.0205614 -0.105716 0 0 0 0)
(0 -0.0202196 0 -0.0202196 -0.103937 0 0 0 0)
(0 -0.0198779 0 -0.0198779 -0.102156 0 0 0 0)
(0 -0.0195364 0 -0.0195364 -0.100375 0 0 0 0)
(0 -0.019195 0 -0.019195 -0.0985928 0 0 0 0)
(0 -0.018854 0 -0.018854 -0.0968102 0 0 0 0)
(0 -0.0185135 0 -0.0185135 -0.0950273 0 0 0 0)
(0 -0.0181734 0 -0.0181734 -0.0932441 0 0 0 0)
(0 -0.0178337 0 -0.0178337 -0.0914604 0 0 0 0)
(0 -0.0174945 0 -0.0174945 -0.0896766 0 0 0 0)
(0 -0.0171558 0 -0.0171558 -0.0878926 0 0 0 0)
(0 -0.0168175 0 -0.0168175 -0.0861085 0 0 0 0)
(0 -0.0164796 0 -0.0164796 -0.0843244 0 0 0 0)
(0 -0.0161422 0 -0.0161422 -0.0825406 0 0 0 0)
(0 -0.0158052 0 -0.0158052 -0.0807573 0 0 0 0)
(0 -0.0154687 0 -0.0154687 -0.0789748 0 0 0 0)
(0 -0.0151326 0 -0.0151326 -0.0771932 0 0 0 0)
(0 -0.014797 0 -0.014797 -0.0754129 0 0 0 0)
(0 -0.0144619 0 -0.0144619 -0.073634 0 0 0 0)
(0 -0.0141273 0 -0.0141273 -0.071857 0 0 0 0)
(0 -0.0137933 0 -0.0137933 -0.070082 0 0 0 0)
(0 -0.0134602 0 -0.0134602 -0.0683093 0 0 0 0)
(0 -0.013128 0 -0.013128 -0.0665392 0 0 0 0)
(0 -0.012797 0 -0.012797 -0.0647717 0 0 0 0)
(0 -0.0124676 0 -0.0124676 -0.0630071 0 0 0 0)
(0 -0.0121401 0 -0.0121401 -0.0612456 0 0 0 0)
(0 -0.0118148 0 -0.0118148 -0.0594872 0 0 0 0)
(0 -0.011492 0 -0.011492 -0.057732 0 0 0 0)
(0 -0.0111719 0 -0.0111719 -0.0559801 0 0 0 0)
(0 -0.0108543 0 -0.0108543 -0.0542319 0 0 0 0)
(0 -0.0105391 0 -0.0105391 -0.0524878 0 0 0 0)
(0 -0.0102257 0 -0.0102257 -0.0507484 0 0 0 0)
(0 -0.00991335 0 -0.00991335 -0.0490148 0 0 0 0)
(0 -0.00960086 0 -0.00960086 -0.0472883 0 0 0 0)
(0 -0.00928686 0 -0.00928686 -0.0455704 0 0 0 0)
(0 -0.00896972 0 -0.00896972 -0.0438623 0 0 0 0)
(0 -0.00864789 0 -0.00864789 -0.0421645 0 0 0 0)
(0 -0.00832049 0 -0.00832049 -0.0404774 0 0 0 0)
(0 -0.00798814 0 -0.00798814 -0.038801 0 0 0 0)
(0 -0.00765331 0 -0.00765331 -0.0371365 0 0 0 0)
(0 -0.00731862 0 -0.00731862 -0.035485 0 0 0 0)
(0 -0.00698331 0 -0.00698331 -0.0338438 0 0 0 0)
(0 -0.00664235 0 -0.00664235 -0.0322022 0 0 0 0)
(0 -0.0062933 0 -0.0062933 -0.0305497 0 0 0 0)
(0 -0.00594405 0 -0.00594405 -0.0288895 0 0 0 0)
(0 -0.00560753 0 -0.00560753 -0.0272306 0 0 0 0)
(0 -0.00529029 0 -0.00529029 -0.0255556 0 0 0 0)
(0 -0.0050069 0 -0.0050069 -0.0237934 0 0 0 0)
(0 -0.00489335 0 -0.00489335 -0.0218084 0 0 0 0)
(0 -0.00588131 0 -0.00588131 -0.0189209 0 0 0 0)
(0 -0.00699824 0 -0.00699824 -0.0152182 0 0 0 0)
(0 -0.00290378 0 -0.00290378 -0.00838228 0 0 0 0)
(0 -0.00387765 0 -0.00387765 -0.00848614 0 0 0 0)
(0 -0.00419662 0 -0.00419662 -0.00620609 0 0 0 0)
(0 -0.00379778 0 -0.00379778 -0.00417352 0 0 0 0)
(0 -0.00356935 0 -0.00356935 -0.00173823 0 0 0 0)
(0 -0.00298615 0 -0.00298615 -8.06861e-05 0 0 0 0)
(0 -0.00173235 0 -0.00173235 7.25498e-06 0 0 0 0)
(0 -0.00199961 0 -0.00199961 3.67629e-05 0 0 0 0)
(0 -0.00286266 0 -0.00286266 5.74627e-05 0 0 0 0)
(0 -0.00271925 0 -0.00271925 3.39548e-05 0 0 0 0)
(0 -0.00270713 0 -0.00270713 2.55397e-05 0 0 0 0)
(0 -0.00290203 0 -0.00290203 -3.21339e-08 0 0 0 0)
(0 -0.00324114 0 -0.00324114 -8.72476e-05 0 0 0 0)
(0 -0.00366305 0 -0.00366305 -0.000325833 0 0 0 0)
(0 -0.00409832 0 -0.00409832 -0.000817048 0 0 0 0)
(0 -0.00442525 0 -0.00442525 -0.00153064 0 0 0 0)
(0 -0.00450974 0 -0.00450974 -0.00223897 0 0 0 0)
(0 -0.00433036 0 -0.00433036 -0.00274081 0 0 0 0)
(0 -0.00395691 0 -0.00395691 -0.00301688 0 0 0 0)
(0 -0.00346106 0 -0.00346106 -0.00312799 0 0 0 0)
(0 -0.00289005 0 -0.00289005 -0.00312429 0 0 0 0)
(0 -0.00227355 0 -0.00227355 -0.00303964 0 0 0 0)
(0 -0.00162931 0 -0.00162931 -0.00289866 0 0 0 0)
(0 -0.000967441 0 -0.000967441 -0.00271862 0 0 0 0)
(0 -0.000293361 0 -0.000293361 -0.0025115 0 0 0 0)
(0 0.000390356 0 0.000390356 -0.00228563 0 0 0 0)
(0 0.00108283 0 0.00108283 -0.00204673 0 0 0 0)
(0 0.00178415 0 0.00178415 -0.00179873 0 0 0 0)
(0 0.00249497 0 0.00249497 -0.00154427 0 0 0 0)
(0 0.0032162 0 0.0032162 -0.00128512 0 0 0 0)
(0 0.00394882 0 0.00394882 -0.00102241 0 0 0 0)
(0 0.00469383 0 0.00469383 -0.000756843 0 0 0 0)
(0 0.00545213 0 0.00545213 -0.000488806 0 0 0 0)
(0 0.00622452 0 0.00622452 -0.000218475 0 0 0 0)
(0 0.00701164 0 0.00701164 5.41197e-05 0 0 0 0)
(0 0.00781401 0 0.00781401 0.00032905 0 0 0 0)
(0 0.00863199 0 0.00863199 0.000606446 0 0 0 0)
(0 0.00946577 0 0.00946577 0.00088647 0 0 0 0)
(0 0.0103154 0 0.0103154 0.0011693 0 0 0 0)
(0 0.0111808 0 0.0111808 0.00145509 0 0 0 0)
(0 0.0120616 0 0.0120616 0.00174399 0 0 0 0)
(0 0.0129575 0 0.0129575 0.00203609 0 0 0 0)
(0 0.0138678 0 0.0138678 0.00233144 0 0 0 0)
(0 0.0147919 0 0.0147919 0.00263001 0 0 0 0)
(0 0.0157289 0 0.0157289 0.00293165 0 0 0 0)
(0 0.0166777 0 0.0166777 0.00323613 0 0 0 0)
(0 0.0176372 0 0.0176372 0.00354307 0 0 0 0)
(0 0.018606 0 0.018606 0.00385194 0 0 0 0)
(0 0.0195827 0 0.0195827 0.00416204 0 0 0 0)
(0 0.0205656 0 0.0205656 0.00447247 0 0 0 0)
(0 0.0215529 0 0.0215529 0.00478218 0 0 0 0)
(0 0.0225427 0 0.0225427 0.00508995 0 0 0 0)
(0 0.0235327 0 0.0235327 0.00539443 0 0 0 0)
(0 0.0245204 0 0.0245204 0.00569419 0 0 0 0)
(0 0.0255032 0 0.0255032 0.00598785 0 0 0 0)
(0 0.0264777 0 0.0264777 0.00627417 0 0 0 0)
(0 0.0274403 0 0.0274403 0.00655221 0 0 0 0)
(0 0.0283869 0 0.0283869 0.00682145 0 0 0 0)
(0 0.0293162 0 0.0293162 0.00708201 0 0 0 0)
(0 0.0302546 0 0.0302546 0.00733758 0 0 0 0)
(8.06171e-16 0.0312311 0 0.0312311 0.00759276 0 0 0 0)
(0 0.0322507 0 0.0322507 0.00785059 0 0 0 0)
(0 0.0333128 0 0.0333128 0.00811546 0 0 0 0)
(-9.01374e-16 0.0344163 0 0.0344163 0.00839338 0 0 0 0)
(0 0.035559 0 0.035559 0.0086919 0 0 0 0)
(9.78503e-16 0.0367384 0 0.0367384 0.00902004 0 0 0 0)
(0 0.0379514 0 0.0379514 0.00938786 0 0 0 0)
(-1.06866e-15 0.0391949 0 0.0391949 0.00980601 0 0 0 0)
(0 0.0404658 0 0.0404658 0.0102849 0 0 0 0)
(0 0.0417622 0 0.0417622 0.0108339 0 0 0 0)
(0 0.0430829 0 0.0430829 0.0114595 0 0 0 0)
(-1.29788e-15 0.0444279 0 0.0444279 0.0121645 0 0 0 0)
(0 0.0457982 0 0.0457982 0.0129454 0 0 0 0)
(0 0.0471945 0 0.0471945 0.0137911 0 0 0 0)
(0 0.0486156 0 0.0486156 0.0146828 0 0 0 0)
(0 0.0500557 0 0.0500557 0.0155955 0 0 0 0)
(0 0.0515017 0 0.0515017 0.0165019 0 0 0 0)
(1.82093e-15 0.0529304 0 0.0529304 0.0173769 0 0 0 0)
(0 0.0543075 0 0.0543075 0.0182 0 0 0 0)
(2.05527e-15 0.0555867 0 0.0555867 0.0189562 0 0 0 0)
(0 0.0567113 0 0.0567113 0.0196344 0 0 0 0)
(2.31383e-15 0.0576157 0 0.0576157 0.0202253 0 0 0 0)
(0 0.0582275 0 0.0582275 0.0207182 0 0 0 0)
(0 0.0584696 0 0.0584696 0.0210988 0 0 0 0)
(0 0.0582601 0 0.0582601 0.021346 0 0 0 0)
(0 0.0575071 0 0.0575071 0.0214383 0 0 0 0)
(-2.95379e-15 0.0561027 0 0.0561027 0.0213271 0 0 0 0)
(-3.0506e-15 0.0539526 0 0.0539526 0.0210097 0 0 0 0)
(0 0.0508304 0 0.0508304 0.0203717 0 0 0 0)
(0 0.0467216 0 0.0467216 0.0194913 0 0 0 0)
(0 0.0411361 0 0.0411361 0.018089 0 0 0 0)
(0 0.034235 0 0.034235 0.0165384 0 0 0 0)
(0 0.0252429 0 0.0252429 0.0140597 0 0 0 0)
(0 0.0198607 0 0.0198607 0.0109388 0 0 0 0)
(0 0 0 0 0 0 0 0 0)
(0 0 0 0 0 0 0 0 0)
(0 0 0 0 0 0 0 0 0)
(0 0 0 0 0 0 0 0 0)
(0 0 0 0 0 0 0 0 0)
(0 0 0 0 0 0 0 0 0)
(0 0 0 0 0 0 0 0 0)
(0 0 0 0 0 0 0 0 0)
(-0 0 0 0 0 0 0 0 0)
(0 0 0 0 0 0 0 0 0)
(0 0 0 0 0 0 0 0 0)
(0 0 0 0 0 0 0 0 0)
(0 0 0 0 0 0 0 0 0)
(0 0 0 0 0 0 0 0 0)
(0 0 0 0 0 0 0 0 0)
(0 0 0 0 -0 0 0 0 0)
(0 -0 0 -0 -0 0 0 0 0)
(0 0 0 0 -0 0 0 0 0)
(0 0 0 0 0 0 0 0 0)
(0 -0 0 -0 0 0 0 0 0)
(0 -0 0 -0 0 0 0 0 0)
(0 -0 0 -0 0 0 0 0 0)
(0 -0 0 -0 0 0 0 0 0)
(0 -0 0 -0 0 0 0 0 0)
(0 -0 0 -0 0 0 0 0 0)
(0 -0 0 -0 0 0 0 0 0)
(0 -0 0 -0 0 0 0 0 0)
(0 -0 0 -0 0 0 0 0 0)
(0 -0 0 -0 0 0 0 0 0)
(0 -0 0 -0 0 0 0 0 0)
(-0 -0 0 -0 0 0 0 0 0)
(0 -0 0 -0 0 0 0 0 0)
(0 -0 0 -0 0 0 0 0 0)
(0 -0 0 -0 0 0 0 0 0)
(0 -0 0 -0 0 0 0 0 0)
(0 -0 0 -0 0 0 0 0 0)
(0 -0 0 -0 0 0 0 0 0)
(0 -0 0 -0 0 0 0 0 0)
(0 -0 0 -0 0 0 0 0 0)
(0 -0 0 -0 0 0 0 0 0)
(0 -0 0 -0 0 0 0 0 0)
(0 -0 0 -0 0 0 0 0 0)
(0 -0 0 -0 0 0 0 0 0)
(0 0 0 0 0 0 0 0 0)
(0 0 0 0 -0 0 0 0 0)
(0 0 0 0 0 0 0 0 0)
(0 0 0 0 -0 0 0 0 0)
(0 0 0 0 0 0 0 0 0)
(0 0 0 0 -0 0 0 0 0)
(0 0 0 0 0 0 0 0 0)
(-0 0 0 0 -0 0 0 0 0)
(0 0 0 0 0 0 0 0 0)
(0 0 0 0 -0 0 0 0 0)
(0 0 0 0 0 0 0 0 0)
(0 0 0 0 -0 0 0 0 0)
(0 0 0 0 0 0 0 0 0)
(0 0 0 0 -0 0 0 0 0)
(0 -0 0 -0 0 0 0 0 0)
(0 0 0 0 -0 0 0 0 0)
(0 -0 0 -0 0 0 0 0 0)
(-0 0 0 0 -0 0 0 0 0)
(0 -0 0 -0 0 0 0 0 0)
(0 0 0 0 -0 0 0 0 0)
(0 -0 0 -0 0 0 0 0 0)
(0 0 0 0 -0 0 0 0 0)
(0 -0 0 -0 0 0 0 0 0)
(0 0 0 0 -0 0 0 0 0)
(0 -0 0 -0 0 0 0 0 0)
(0 0 0 0 -0 0 0 0 0)
(0 -0 0 -0 0 0 0 0 0)
(0 0 0 0 -0 0 0 0 0)
(0 -0 0 -0 0 0 0 0 0)
(0 0 0 0 -0 0 0 0 0)
(0 -0 0 -0 0 0 0 0 0)
(0 0 0 0 -0 0 0 0 0)
(0 -0 0 -0 0 0 0 0 0)
(0 0 0 0 -0 0 0 0 0)
(0 -0 0 -0 0 0 0 0 0)
(0 0 0 0 -0 0 0 0 0)
(0 -0 0 -0 0 0 0 0 0)
(0 0 0 0 -0 0 0 0 0)
(0 -0 0 -0 0 0 0 0 0)
(0 0 0 0 -0 0 0 0 0)
(0 -0 0 -0 0 0 0 0 0)
(0 0 0 0 -0 0 0 0 0)
(0 -0 0 -0 0 0 0 0 0)
(0 0 0 0 -0 0 0 0 0)
(0 -0 0 -0 0 0 0 0 0)
(0 0 0 0 -0 0 0 0 0)
(0 -0 0 -0 0 0 0 0 0)
(0 0 0 0 -0 0 0 0 0)
(0 -0 0 -0 0 0 0 0 0)
(0 0 0 0 -0 0 0 0 0)
(0 -0 0 -0 0 0 0 0 0)
(0 0 0 0 -0 0 0 0 0)
(0 -0 0 -0 0 0 0 0 0)
(0 0 0 0 -0 0 0 0 0)
(0 -0 0 -0 0 0 0 0 0)
(0 0 0 0 -0 0 0 0 0)
(0 -0 0 -0 0 0 0 0 0)
(0 0 0 0 -0 0 0 0 0)
(0 -0 0 -0 0 0 0 0 0)
(0 0 0 0 -0 0 0 0 0)
(0 -0 0 -0 0 0 0 0 0)
(0 -0 0 -0 -0 0 0 0 0)
(0 -0 0 -0 0 0 0 0 0)
(0 0 0 0 -0 0 0 0 0)
(0 0 0 0 0 0 0 0 0)
(0 0 0 0 -0 0 0 0 0)
(0 -0 0 -0 0 0 0 0 0)
(0 0 0 0 -0 0 0 0 0)
(0 -0 0 -0 0 0 0 0 0)
(0 0 0 0 -0 0 0 0 0)
(0 -0 0 -0 0 0 0 0 0)
(0 0 0 0 -0 0 0 0 0)
(0 0 0 0 0 0 0 0 0)
(0 0 0 0 -0 0 0 0 0)
(0 0 0 0 0 0 0 0 0)
(0 0 0 0 0 0 0 0 0)
(0 0 0 0 0 0 0 0 0)
(0 0 0 0 0 0 0 0 0)
(0 0 0 0 0 0 0 0 0)
(0 0 0 0 0 0 0 0 0)
(0 0 0 0 0 0 0 0 0)
)
;

boundaryField
{
    inandouthalf11
    {
        type            cyclic;
    }
    inandouthalf12
    {
        type            cyclic;
    }
    inandouthalf21
    {
        type            cyclic;
    }
    inandouthalf22
    {
        type            cyclic;
    }
    inandouthalf31
    {
        type            cyclic;
    }
    inandouthalf32
    {
        type            cyclic;
    }
    inandouthalf41
    {
        type            cyclic;
    }
    inandouthalf42
    {
        type            cyclic;
    }
    top
    {
        type            symmetryPlane;
    }
    walls
    {
        type            zeroGradient;
    }
    frontAndBackPlanes
    {
        type            empty;
    }
}


// ************************************************************************* //
