/*--------------------------------*- C++ -*----------------------------------*\
| =========                 |                                                 |
| \\      /  F ield         | OpenFOAM: The Open Source CFD Toolbox           |
|  \\    /   O peration     | Version:  2.4.x                                 |
|   \\  /    A nd           | Web:      www.OpenFOAM.org                      |
|    \\/     M anipulation  |                                                 |
\*---------------------------------------------------------------------------*/
FoamFile
{
    version     2.0;
    format      ascii;
    class       volScalarField;
    location    "11";
    object      Theta_0;
}
// * * * * * * * * * * * * * * * * * * * * * * * * * * * * * * * * * * * * * //

dimensions      [0 2 -2 0 0 0 0];

internalField   nonuniform List<scalar> 
360
(
6.66139e-21
6.66143e-21
6.66142e-21
6.66142e-21
6.66142e-21
6.66142e-21
6.66142e-21
6.66142e-21
6.66142e-21
6.66142e-21
6.66142e-21
6.66142e-21
6.66141e-21
6.66141e-21
6.66141e-21
6.66141e-21
6.66141e-21
6.66141e-21
6.66141e-21
6.6614e-21
6.6614e-21
6.6614e-21
6.6614e-21
6.6614e-21
6.6614e-21
6.6614e-21
6.6614e-21
6.6614e-21
6.6614e-21
6.66139e-21
6.66139e-21
6.66139e-21
6.66139e-21
6.66139e-21
6.66139e-21
6.66139e-21
6.66139e-21
6.66139e-21
6.66139e-21
6.66139e-21
6.66139e-21
6.66139e-21
6.66139e-21
6.66139e-21
6.66139e-21
6.66139e-21
6.66138e-21
6.66138e-21
6.66138e-21
6.66138e-21
6.66138e-21
6.66138e-21
6.66138e-21
6.66138e-21
6.66138e-21
6.66138e-21
6.66138e-21
6.66138e-21
6.66138e-21
6.66138e-21
6.66138e-21
6.66138e-21
6.66137e-21
6.66137e-21
6.66137e-21
6.66137e-21
6.66137e-21
6.66137e-21
6.66137e-21
6.66137e-21
6.66137e-21
6.66137e-21
6.66137e-21
6.66136e-21
6.66136e-21
6.66136e-21
6.66136e-21
6.66136e-21
6.66136e-21
6.66136e-21
6.66136e-21
6.66136e-21
6.66135e-21
6.66135e-21
6.66135e-21
6.66135e-21
6.66135e-21
6.66135e-21
6.66135e-21
6.66134e-21
6.66134e-21
6.66134e-21
6.66134e-21
6.66134e-21
6.66134e-21
6.66133e-21
6.66133e-21
6.66133e-21
6.66133e-21
6.66133e-21
6.66132e-21
6.66132e-21
6.66132e-21
6.66132e-21
6.66132e-21
6.66131e-21
6.66131e-21
6.66131e-21
6.66131e-21
6.66131e-21
6.6613e-21
6.6613e-21
6.6613e-21
6.6613e-21
6.66129e-21
6.66129e-21
6.66129e-21
6.66129e-21
6.66128e-21
6.66128e-21
6.66128e-21
6.66127e-21
6.66127e-21
6.66127e-21
6.66127e-21
6.66126e-21
6.66126e-21
6.66126e-21
6.66126e-21
8.92708e-21
1.75786e-20
3.41765e-20
6.38938e-20
1.1516e-19
2.01353e-19
3.41653e-19
5.51236e-19
8.0514e-19
1.1006e-18
3.55859e-18
4.17222e-17
6.75647e-16
1.31342e-14
2.9183e-13
7.57513e-12
2.63924e-10
3.32945e-08
2.92822e-06
6.50545e-05
0.000811416
0.00232658
0.00283618
0.00293136
0.00286101
0.00272484
0.00258168
0.00246129
0.00237099
0.00230829
0.00226855
0.00224756
0.00224174
0.0022481
0.00226421
0.00228808
0.00231808
0.00235286
0.00239131
0.00243253
0.00247573
0.00252028
0.00256564
0.00261134
0.002657
0.00270229
0.0027469
0.00279059
0.00283315
0.00287439
0.00291413
0.00295224
0.00298857
0.00302303
0.00305552
0.00308594
0.00311422
0.0031403
0.00316413
0.00318566
0.00320485
0.00322167
0.0032361
0.00324814
0.00325776
0.00326498
0.00326979
0.00327222
0.00327228
0.00326999
0.00326539
0.00325851
0.00324931
0.00323761
0.00322334
0.00320639
0.00318668
0.00316411
0.0031386
0.00311007
0.00307842
0.00304358
0.00300545
0.00296396
0.00291902
0.00287054
0.00281841
0.00276252
0.00270276
0.00263898
0.00257102
0.00249871
0.00242183
0.00234016
0.00225342
0.00216129
0.00206341
0.00195931
0.00184845
0.00173013
0.00160345
0.00146724
0.00131986
0.00115893
0.000980721
0.000778649
0.000538289
0
0
0
0
0
0
0
0
0
0
0
0
0
0
0
0
0
0
0
0
0
0
0
0
0
0
0
0
0
0
0
0
0
0
0
0
0
0
0
0
0
0
0
0
0
0
0
0
0
0
0
0
0
0
0
0
0
0
0
0
0
0
0
0
0
0
0
0
0
0
0
0
0
0
0
0
0
0
0
0
0
0
0
0
0
0
0
0
0
0
0
0
0
0
0
0
0
0
0
0
0
0
0
0
0
0
0
0
0
0
0
0
0
0
0
0
0
0
0
0
0
0
0
0
)
;

boundaryField
{
    inandouthalf11
    {
        type            cyclic;
    }
    inandouthalf12
    {
        type            cyclic;
    }
    inandouthalf21
    {
        type            cyclic;
    }
    inandouthalf22
    {
        type            cyclic;
    }
    inandouthalf31
    {
        type            cyclic;
    }
    inandouthalf32
    {
        type            cyclic;
    }
    inandouthalf41
    {
        type            cyclic;
    }
    inandouthalf42
    {
        type            cyclic;
    }
    top
    {
        type            symmetryPlane;
    }
    walls
    {
        type            zeroGradient;
    }
    frontAndBackPlanes
    {
        type            empty;
    }
}


// ************************************************************************* //
