/*--------------------------------*- C++ -*----------------------------------*\
| =========                 |                                                 |
| \\      /  F ield         | OpenFOAM: The Open Source CFD Toolbox           |
|  \\    /   O peration     | Version:  2.4.x                                 |
|   \\  /    A nd           | Web:      www.OpenFOAM.org                      |
|    \\/     M anipulation  |                                                 |
\*---------------------------------------------------------------------------*/
FoamFile
{
    version     2.0;
    format      ascii;
    class       volScalarField;
    location    "11";
    object      Theta;
}
// * * * * * * * * * * * * * * * * * * * * * * * * * * * * * * * * * * * * * //

dimensions      [0 2 -2 0 0 0 0];

internalField   nonuniform List<scalar> 
360
(
6.66139e-21
6.66143e-21
6.66142e-21
6.66142e-21
6.66142e-21
6.66142e-21
6.66142e-21
6.66142e-21
6.66142e-21
6.66142e-21
6.66142e-21
6.66142e-21
6.66141e-21
6.66141e-21
6.66141e-21
6.66141e-21
6.66141e-21
6.66141e-21
6.66141e-21
6.6614e-21
6.6614e-21
6.6614e-21
6.6614e-21
6.6614e-21
6.6614e-21
6.6614e-21
6.6614e-21
6.6614e-21
6.6614e-21
6.66139e-21
6.66139e-21
6.66139e-21
6.66139e-21
6.66139e-21
6.66139e-21
6.66139e-21
6.66139e-21
6.66139e-21
6.66139e-21
6.66139e-21
6.66139e-21
6.66139e-21
6.66139e-21
6.66139e-21
6.66139e-21
6.66139e-21
6.66138e-21
6.66138e-21
6.66138e-21
6.66138e-21
6.66138e-21
6.66138e-21
6.66138e-21
6.66138e-21
6.66138e-21
6.66138e-21
6.66138e-21
6.66138e-21
6.66138e-21
6.66138e-21
6.66138e-21
6.66138e-21
6.66137e-21
6.66137e-21
6.66137e-21
6.66137e-21
6.66137e-21
6.66137e-21
6.66137e-21
6.66137e-21
6.66137e-21
6.66137e-21
6.66137e-21
6.66136e-21
6.66136e-21
6.66136e-21
6.66136e-21
6.66136e-21
6.66136e-21
6.66136e-21
6.66136e-21
6.66136e-21
6.66135e-21
6.66135e-21
6.66135e-21
6.66135e-21
6.66135e-21
6.66135e-21
6.66135e-21
6.66134e-21
6.66134e-21
6.66134e-21
6.66134e-21
6.66134e-21
6.66134e-21
6.66133e-21
6.66133e-21
6.66133e-21
6.66133e-21
6.66133e-21
6.66132e-21
6.66132e-21
6.66132e-21
6.66132e-21
6.66132e-21
6.66131e-21
6.66131e-21
6.66131e-21
6.66131e-21
6.66131e-21
6.6613e-21
6.6613e-21
6.6613e-21
6.6613e-21
6.66129e-21
6.66129e-21
6.66129e-21
6.66129e-21
6.66128e-21
6.66128e-21
6.66128e-21
6.66127e-21
6.66127e-21
6.66127e-21
6.66127e-21
6.66126e-21
6.66126e-21
6.66126e-21
6.66126e-21
8.91738e-21
1.75557e-20
3.41289e-20
6.37992e-20
1.14979e-19
2.01013e-19
3.41022e-19
5.50071e-19
8.03108e-19
1.09785e-18
3.56017e-18
4.17938e-17
6.76992e-16
1.31623e-14
2.92488e-13
7.5929e-12
2.6465e-10
3.34165e-08
2.93613e-06
6.51764e-05
0.000812276
0.00232763
0.00283711
0.00293235
0.00286205
0.00272587
0.00258261
0.00246209
0.00237163
0.0023088
0.00226894
0.00224784
0.00224192
0.00224818
0.00226422
0.00228802
0.00231795
0.00235267
0.00239107
0.00243224
0.0024754
0.00251991
0.00256523
0.0026109
0.00265653
0.00270179
0.00274638
0.00279005
0.00283259
0.0028738
0.00291353
0.00295162
0.00298794
0.00302239
0.00305486
0.00308527
0.00311355
0.00313962
0.00316344
0.00318496
0.00320415
0.00322097
0.0032354
0.00324743
0.00325705
0.00326427
0.00326908
0.00327151
0.00327157
0.00326929
0.00326469
0.00325781
0.00324861
0.00323692
0.00322265
0.00320571
0.003186
0.00316344
0.00313794
0.00310942
0.00307778
0.00304294
0.00300483
0.00296335
0.00291842
0.00286995
0.00281783
0.00276196
0.00270221
0.00263845
0.00257051
0.00249821
0.00242135
0.00233969
0.00225297
0.00216086
0.002063
0.00195893
0.00184809
0.00172979
0.00160314
0.00146695
0.0013196
0.00115871
0.000980531
0.000778499
0.000538185
0
0
0
0
0
0
0
0
0
0
0
0
0
0
0
0
0
0
0
0
0
0
0
0
0
0
0
0
0
0
0
0
0
0
0
0
0
0
0
0
0
0
0
0
0
0
0
0
0
0
0
0
0
0
0
0
0
0
0
0
0
0
0
0
0
0
0
0
0
0
0
0
0
0
0
0
0
0
0
0
0
0
0
0
0
0
0
0
0
0
0
0
0
0
0
0
0
0
0
0
0
0
0
0
0
0
0
0
0
0
0
0
0
0
0
0
0
0
0
0
0
0
0
0
)
;

boundaryField
{
    inandouthalf11
    {
        type            cyclic;
    }
    inandouthalf12
    {
        type            cyclic;
    }
    inandouthalf21
    {
        type            cyclic;
    }
    inandouthalf22
    {
        type            cyclic;
    }
    inandouthalf31
    {
        type            cyclic;
    }
    inandouthalf32
    {
        type            cyclic;
    }
    inandouthalf41
    {
        type            cyclic;
    }
    inandouthalf42
    {
        type            cyclic;
    }
    top
    {
        type            symmetryPlane;
    }
    walls
    {
        type            zeroGradient;
    }
    frontAndBackPlanes
    {
        type            empty;
    }
}


// ************************************************************************* //
