/*--------------------------------*- C++ -*----------------------------------*\
| =========                 |                                                 |
| \\      /  F ield         | OpenFOAM: The Open Source CFD Toolbox           |
|  \\    /   O peration     | Version:  2.4.x                                 |
|   \\  /    A nd           | Web:      www.OpenFOAM.org                      |
|    \\/     M anipulation  |                                                 |
\*---------------------------------------------------------------------------*/
FoamFile
{
    version     2.0;
    format      ascii;
    class       volScalarField;
    location    "11";
    object      tmf;
}
// * * * * * * * * * * * * * * * * * * * * * * * * * * * * * * * * * * * * * //

dimensions      [0 0 0 0 0 0 0];

internalField   nonuniform List<scalar> 
360
(
0.999207
0.99921
0.99921
0.99921
0.999209
0.999209
0.999209
0.999209
0.999209
0.999209
0.999209
0.999209
0.999209
0.999209
0.999209
0.999209
0.999209
0.999208
0.999208
0.999208
0.999208
0.999208
0.999208
0.999208
0.999208
0.999208
0.999208
0.999208
0.999208
0.999207
0.999207
0.999207
0.999207
0.999207
0.999207
0.999207
0.999207
0.999207
0.999207
0.999206
0.999206
0.999206
0.999206
0.999206
0.999206
0.999206
0.999206
0.999206
0.999205
0.999205
0.999205
0.999205
0.999205
0.999205
0.999205
0.999205
0.999205
0.999204
0.999204
0.999204
0.999204
0.999204
0.999204
0.999204
0.999203
0.999203
0.999203
0.999203
0.999203
0.999203
0.999203
0.999202
0.999202
0.999202
0.999202
0.999202
0.999202
0.999201
0.999201
0.999201
0.999201
0.999201
0.999201
0.9992
0.9992
0.9992
0.9992
0.9992
0.999199
0.999199
0.999199
0.999199
0.999199
0.999198
0.999198
0.999198
0.999198
0.999197
0.999197
0.999197
0.999197
0.999196
0.999196
0.999196
0.999196
0.999195
0.999195
0.999195
0.999195
0.999194
0.999194
0.999194
0.999193
0.999193
0.999193
0.999192
0.999192
0.999191
0.999191
0.999191
0.99919
0.99919
0.999189
0.999189
0.999188
0.999188
0.999187
0.999187
0.999186
0.999335
0.999341
0.999323
0.999298
0.999266
0.999223
0.999165
0.999073
0.998857
0.998047
0.996255
0.995179
0.994124
0.992865
0.991332
0.989256
0.986631
0.983273
0.978948
0.972744
0.904548
0.8208
0.829521
0.846883
0.869349
0.89421
0.917874
0.93754
0.952248
0.962554
0.969604
0.974453
0.977862
0.980322
0.982144
0.983523
0.984586
0.985419
0.986078
0.986606
0.987032
0.987379
0.987662
0.987895
0.988087
0.988246
0.988378
0.988487
0.988578
0.988654
0.988717
0.988769
0.988813
0.988849
0.988879
0.988903
0.988922
0.988937
0.988949
0.988957
0.988963
0.988965
0.988965
0.988962
0.988957
0.988949
0.988938
0.988924
0.988907
0.988887
0.988863
0.988835
0.988803
0.988767
0.988725
0.988678
0.988625
0.988567
0.988503
0.988435
0.988364
0.988292
0.988225
0.988168
0.988132
0.988132
0.988184
0.988299
0.98848
0.98872
0.989005
0.989319
0.98965
0.989988
0.990327
0.990663
0.990994
0.991318
0.991635
0.991945
0.992247
0.992543
0.992832
0.993115
0.993393
0.993667
0.993937
0.994198
0.990946
0.991165
0.991377
0.991622
0.99189
0.992181
0.992492
0.992824
0.993166
0.993532
0.993876
0.994278
0.99459
0.994992
0.995326
0.996591
0.997186
0.997369
0.997531
0.997673
0.997795
0.997899
0.997988
0.998064
0.99813
0.99819
0.998245
0.998298
0.998351
0.998405
0.998464
0.998528
0.9986
0.998682
0.998778
0.998893
0.999036
0.999224
0.999399
0.999474
0.999476
0.999474
0.999472
0.99947
0.999464
0.998943
0.994197
0.994196
0.994196
0.994196
0.994196
0.994196
0.994196
0.994196
0.994196
0.994196
0.994196
0.994196
0.994196
0.994196
0.994196
0.994196
0.994196
0.994196
0.994196
0.994196
0.994196
0.994196
0.994196
0.994196
0.994196
0.994196
0.994196
0.994196
0.994196
0.994196
0.994196
0.994196
0.994196
0.994196
0.994196
0.994196
0.994196
0.994196
0.994196
0.994196
0.994196
0.994196
0.994196
0.994196
0.994196
0.994196
0.994196
0.994196
0.994196
0.994196
0.994196
0.994196
0.994196
0.994196
0.994196
0.994196
0.994196
0.994196
0.994196
0.994196
0.994196
0.994196
0.994196
0.994196
0.994196
0.994196
0.994196
0.994196
0.994196
0.994196
0.994196
0.994196
0.994196
0.994196
0.994196
0.994181
0.993265
)
;

boundaryField
{
    inandouthalf11
    {
        type            cyclic;
    }
    inandouthalf12
    {
        type            cyclic;
    }
    inandouthalf21
    {
        type            cyclic;
    }
    inandouthalf22
    {
        type            cyclic;
    }
    inandouthalf31
    {
        type            cyclic;
    }
    inandouthalf32
    {
        type            cyclic;
    }
    inandouthalf41
    {
        type            cyclic;
    }
    inandouthalf42
    {
        type            cyclic;
    }
    top
    {
        type            symmetryPlane;
    }
    walls
    {
        type            calculated;
        value           uniform 0;
    }
    frontAndBackPlanes
    {
        type            empty;
    }
}


// ************************************************************************* //
