/*--------------------------------*- C++ -*----------------------------------*\
| =========                 |                                                 |
| \\      /  F ield         | OpenFOAM: The Open Source CFD Toolbox           |
|  \\    /   O peration     | Version:  2.4.x                                 |
|   \\  /    A nd           | Web:      www.OpenFOAM.org                      |
|    \\/     M anipulation  |                                                 |
\*---------------------------------------------------------------------------*/
FoamFile
{
    version     2.0;
    format      ascii;
    class       volVectorField;
    location    "11";
    object      U;
}
// * * * * * * * * * * * * * * * * * * * * * * * * * * * * * * * * * * * * * //

dimensions      [0 1 -1 0 0 0 0];

internalField   nonuniform List<vector> 
360
(
(-7.99665e-05 1.46046e-09 0)
(-7.93461e-05 -2.87516e-10 0)
(-7.92706e-05 -2.54567e-10 0)
(-7.93515e-05 1.83297e-11 0)
(-7.93908e-05 4.97146e-11 0)
(-7.94051e-05 3.00032e-12 0)
(-7.94226e-05 -1.57363e-11 0)
(-7.94445e-05 -1.65182e-11 0)
(-7.94667e-05 -1.65504e-11 0)
(-7.94892e-05 -1.79141e-11 0)
(-7.95117e-05 -1.96126e-11 0)
(-7.95341e-05 -2.12218e-11 0)
(-7.95567e-05 -2.22126e-11 0)
(-7.95794e-05 -2.25183e-11 0)
(-7.96022e-05 -2.22031e-11 0)
(-7.96253e-05 -2.1451e-11 0)
(-7.96485e-05 -2.04623e-11 0)
(-7.96718e-05 -1.92675e-11 0)
(-7.96952e-05 -1.79071e-11 0)
(-7.97189e-05 -1.63221e-11 0)
(-7.97427e-05 -1.48021e-11 0)
(-7.97667e-05 -1.30702e-11 0)
(-7.97909e-05 -1.13829e-11 0)
(-7.98153e-05 -9.76589e-12 0)
(-7.984e-05 -8.17954e-12 0)
(-7.98648e-05 -6.64885e-12 0)
(-7.98899e-05 -5.22196e-12 0)
(-7.99152e-05 -3.76271e-12 0)
(-7.99408e-05 -2.51105e-12 0)
(-7.99666e-05 -1.34214e-12 0)
(-7.99926e-05 -2.79995e-13 0)
(-8.00191e-05 9.00057e-13 0)
(-8.00455e-05 1.57453e-12 0)
(-8.00726e-05 2.71201e-12 0)
(-8.00996e-05 3.23363e-12 0)
(-8.01271e-05 3.9928e-12 0)
(-8.01548e-05 4.5516e-12 0)
(-8.01829e-05 5.10539e-12 0)
(-8.02114e-05 5.75338e-12 0)
(-8.02398e-05 5.74768e-12 0)
(-8.02691e-05 6.43035e-12 0)
(-8.02984e-05 6.66861e-12 0)
(-8.03279e-05 6.59755e-12 0)
(-8.03581e-05 7.21442e-12 0)
(-8.03884e-05 7.17605e-12 0)
(-8.04191e-05 7.22625e-12 0)
(-8.04503e-05 7.42991e-12 0)
(-8.04815e-05 7.12789e-12 0)
(-8.05133e-05 7.34213e-12 0)
(-8.05458e-05 7.70956e-12 0)
(-8.05781e-05 7.08089e-12 0)
(-8.06112e-05 7.30848e-12 0)
(-8.06445e-05 7.09562e-12 0)
(-8.06783e-05 7.23625e-12 0)
(-8.07123e-05 6.69413e-12 0)
(-8.07472e-05 7.13754e-12 0)
(-8.0782e-05 6.44282e-12 0)
(-8.08177e-05 6.55449e-12 0)
(-8.08536e-05 6.35105e-12 0)
(-8.08897e-05 5.72388e-12 0)
(-8.09268e-05 6.35094e-12 0)
(-8.0964e-05 5.62211e-12 0)
(-8.10019e-05 5.81565e-12 0)
(-8.10402e-05 5.36033e-12 0)
(-8.1079e-05 5.2132e-12 0)
(-8.11182e-05 4.85769e-12 0)
(-8.11581e-05 4.7581e-12 0)
(-8.11986e-05 4.47031e-12 0)
(-8.12395e-05 4.19167e-12 0)
(-8.12807e-05 3.66717e-12 0)
(-8.1323e-05 3.8865e-12 0)
(-8.13658e-05 3.9343e-12 0)
(-8.14088e-05 2.88227e-12 0)
(-8.14528e-05 3.32268e-12 0)
(-8.14973e-05 2.84991e-12 0)
(-8.15426e-05 2.87617e-12 0)
(-8.15883e-05 2.1536e-12 0)
(-8.16348e-05 1.86734e-12 0)
(-8.16821e-05 1.67458e-12 0)
(-8.173e-05 1.49236e-12 0)
(-8.17787e-05 1.04437e-12 0)
(-8.18281e-05 9.50648e-13 0)
(-8.18784e-05 8.43571e-13 0)
(-8.19294e-05 5.87169e-13 0)
(-8.19813e-05 4.03657e-13 0)
(-8.20341e-05 7.07381e-14 0)
(-8.20877e-05 -1.83145e-13 0)
(-8.21423e-05 -5.98499e-13 0)
(-8.21977e-05 -9.87732e-13 0)
(-8.22542e-05 -1.27733e-12 0)
(-8.23116e-05 -1.55551e-12 0)
(-8.23701e-05 -1.83168e-12 0)
(-8.24296e-05 -2.00151e-12 0)
(-8.24903e-05 -2.18757e-12 0)
(-8.25521e-05 -2.39887e-12 0)
(-8.26151e-05 -2.62123e-12 0)
(-8.26794e-05 -2.85404e-12 0)
(-8.27449e-05 -3.08661e-12 0)
(-8.28118e-05 -3.2863e-12 0)
(-8.288e-05 -3.41449e-12 0)
(-8.29496e-05 -3.4623e-12 0)
(-8.30207e-05 -3.41194e-12 0)
(-8.30934e-05 -3.24907e-12 0)
(-8.31677e-05 -2.98561e-12 0)
(-8.32436e-05 -2.63266e-12 0)
(-8.33213e-05 -2.20294e-12 0)
(-8.34008e-05 -1.72424e-12 0)
(-8.34822e-05 -1.23484e-12 0)
(-8.35656e-05 -7.8441e-13 0)
(-8.3651e-05 -4.37652e-13 0)
(-8.37386e-05 -2.68968e-13 0)
(-8.38284e-05 -3.52804e-13 0)
(-8.39205e-05 -7.52496e-13 0)
(-8.40152e-05 -1.50321e-12 0)
(-8.41123e-05 -2.59142e-12 0)
(-8.42122e-05 -3.93489e-12 0)
(-8.43148e-05 -5.36672e-12 0)
(-8.44205e-05 -6.62752e-12 0)
(-8.45292e-05 -7.37207e-12 0)
(-8.46412e-05 -7.19089e-12 0)
(-8.47568e-05 -5.63959e-12 0)
(-8.4876e-05 -2.26502e-12 0)
(-8.49991e-05 3.38391e-12 0)
(-8.51264e-05 1.17665e-11 0)
(-8.52582e-05 2.33736e-11 0)
(-8.53946e-05 3.87276e-11 0)
(-8.55362e-05 5.8273e-11 0)
(-8.56834e-05 8.20023e-11 0)
(-8.58366e-05 1.08606e-10 0)
(-8.59964e-05 1.34044e-10 0)
(-8.61632e-05 1.50051e-10 0)
(-8.63373e-05 1.43817e-10 0)
(-8.65197e-05 1.00071e-10 0)
(-8.67124e-05 5.89171e-12 0)
(-8.69176e-05 -1.38554e-10 0)
(-8.71356e-05 -2.99693e-10 0)
(-8.73654e-05 -4.03785e-10 0)
(-8.76101e-05 -3.92597e-10 0)
(-8.78809e-05 -2.83061e-10 0)
(-8.81902e-05 -1.26555e-10 0)
(-8.85246e-05 -8.44911e-11 0)
(-8.89184e-05 -3.28918e-09 0)
(-9.1683e-05 4.85834e-09 0)
(-9.12695e-05 -1.29074e-09 0)
(-9.17803e-05 -3.43811e-10 0)
(-9.26286e-05 -1.61681e-08 0)
(-9.34433e-05 1.97367e-07 0)
(-9.44706e-05 -8.42232e-07 0)
(-0.000178183 3.23394e-06 0)
(-0.0670247 -2.35816e-05 0)
(-0.204385 -0.000114537 0)
(-0.2985 3.80506e-05 0)
(-0.368046 -1.16576e-05 0)
(-0.420931 -1.30541e-06 0)
(-0.461047 6.66262e-07 0)
(-0.490656 1.43811e-06 0)
(-0.511602 1.55779e-06 0)
(-0.525829 1.40583e-06 0)
(-0.535261 9.86273e-07 0)
(-0.541468 5.9655e-07 0)
(-0.545547 3.27532e-07 0)
(-0.548206 1.86426e-07 0)
(-0.54989 1.14156e-07 0)
(-0.550878 7.36856e-08 0)
(-0.551351 4.91739e-08 0)
(-0.55143 3.35683e-08 0)
(-0.551196 2.33128e-08 0)
(-0.550707 1.63901e-08 0)
(-0.550006 1.16108e-08 0)
(-0.549125 8.23108e-09 0)
(-0.548087 5.79996e-09 0)
(-0.546912 4.02318e-09 0)
(-0.545616 2.70995e-09 0)
(-0.54421 1.72959e-09 0)
(-0.542707 9.9087e-10 0)
(-0.541114 4.31969e-10 0)
(-0.53944 6.98061e-12 0)
(-0.537692 -3.15957e-10 0)
(-0.535876 -5.61838e-10 0)
(-0.533998 -7.47141e-10 0)
(-0.532063 -8.86491e-10 0)
(-0.530074 -9.88783e-10 0)
(-0.528038 -1.06285e-09 0)
(-0.525956 -1.11367e-09 0)
(-0.523833 -1.14676e-09 0)
(-0.521673 -1.16499e-09 0)
(-0.519478 -1.17179e-09 0)
(-0.517251 -1.16909e-09 0)
(-0.514996 -1.15886e-09 0)
(-0.512714 -1.14246e-09 0)
(-0.510407 -1.12106e-09 0)
(-0.508079 -1.09557e-09 0)
(-0.505732 -1.0667e-09 0)
(-0.503366 -1.03502e-09 0)
(-0.500985 -1.00095e-09 0)
(-0.49859 -9.64818e-10 0)
(-0.496183 -9.26906e-10 0)
(-0.493765 -8.87422e-10 0)
(-0.491338 -8.46723e-10 0)
(-0.488903 -8.05124e-10 0)
(-0.486462 -7.61912e-10 0)
(-0.483991 -7.44225e-10 0)
(-0.481466 -7.3041e-10 0)
(-0.478886 -7.08901e-10 0)
(-0.47625 -6.88443e-10 0)
(-0.473559 -6.64014e-10 0)
(-0.470811 -6.40215e-10 0)
(-0.468007 -6.15475e-10 0)
(-0.465147 -5.91718e-10 0)
(-0.462231 -5.68921e-10 0)
(-0.459258 -5.47459e-10 0)
(-0.45623 -5.27214e-10 0)
(-0.453145 -5.07784e-10 0)
(-0.450005 -4.88476e-10 0)
(-0.44681 -4.6846e-10 0)
(-0.443561 -4.46899e-10 0)
(-0.440259 -4.2313e-10 0)
(-0.436904 -3.9687e-10 0)
(-0.433498 -3.68487e-10 0)
(-0.430042 -3.39012e-10 0)
(-0.426539 -3.09643e-10 0)
(-0.422989 -2.81242e-10 0)
(-0.419395 -2.54152e-10 0)
(-0.415759 -2.27845e-10 0)
(-0.412084 -2.03292e-10 0)
(-0.408373 -1.80304e-10 0)
(-0.404629 -1.57314e-10 0)
(-0.400857 -1.31863e-10 0)
(-0.39706 -1.31172e-10 0)
(-0.393244 -6.49205e-11 0)
(-0.389413 -1.41449e-10 0)
(-0.385575 1.54876e-11 0)
(-0.381735 -1.82548e-10 0)
(-0.377902 2.2068e-10 0)
(-0.374083 -2.47767e-10 0)
(-0.370289 -8.2486e-11 0)
(-0.36653 -4.33047e-10 0)
(-0.362817 8.87631e-10 0)
(-0.359164 -3.41918e-10 0)
(-0.355586 -2.7333e-11 0)
(-0.352098 -7.34155e-11 0)
(-0.348718 -5.05958e-11 0)
(-0.345465 -3.17039e-11 0)
(-0.342359 -3.07084e-11 0)
(-0.339422 -3.23115e-12 0)
(-0.336675 -3.51253e-11 0)
(-0.334142 2.78123e-11 0)
(-0.331844 -4.04727e-11 0)
(-0.329799 3.53613e-11 0)
(-0.328025 -2.46527e-11 0)
(-0.326531 7.5359e-12 0)
(-0.325322 1.92379e-11 0)
(-0.324395 2.774e-11 0)
(-0.323742 -3.15361e-12 0)
(-0.323347 -1.10907e-13 0)
(-0.32319 1.42229e-12 0)
(-0.32325 1.42251e-12 0)
(-0.323503 1.20524e-12 0)
(-0.323928 1.09881e-12 0)
(-0.324502 1.02888e-12 0)
(-0.325206 9.57448e-13 0)
(-0.326022 8.85434e-13 0)
(-0.326931 8.16711e-13 0)
(-0.327918 7.55842e-13 0)
(-0.328965 7.11947e-13 0)
(-0.330059 6.54106e-13 0)
(-0.331182 4.3191e-13 0)
(-0.332319 2.02032e-14 0)
(-0.333454 5.99425e-12 0)
(-0.334571 -1.69493e-11 0)
(-0.335651 3.91396e-11 0)
(-0.336674 -6.99067e-11 0)
(-0.337616 1.13407e-10 0)
(-0.338449 -1.65532e-10 0)
(-0.339136 2.2804e-10 0)
(-0.339528 -2.95244e-10 0)
(-0.339592 3.67649e-10 0)
(-0.339594 -4.40705e-10 0)
(-0.339594 5.16654e-10 0)
(-0.339594 -5.92849e-10 0)
(-0.339594 6.71837e-10 0)
(-0.339594 -7.51324e-10 0)
(-0.339594 8.33595e-10 0)
(-0.339594 -9.16586e-10 0)
(-0.339594 1.00234e-09 0)
(-0.339594 -1.08902e-09 0)
(-0.339594 1.17842e-09 0)
(-0.339594 -1.26891e-09 0)
(-0.339594 1.3621e-09 0)
(-0.339594 -1.45655e-09 0)
(-0.339594 1.55362e-09 0)
(-0.339594 -1.65211e-09 0)
(-0.339594 1.75312e-09 0)
(-0.339594 -1.85571e-09 0)
(-0.339594 1.9607e-09 0)
(-0.339594 -2.06742e-09 0)
(-0.339594 2.17641e-09 0)
(-0.339594 -2.28726e-09 0)
(-0.339594 2.40024e-09 0)
(-0.339594 -2.51514e-09 0)
(-0.339594 2.63211e-09 0)
(-0.339594 -2.75098e-09 0)
(-0.339594 2.87186e-09 0)
(-0.339594 -2.99461e-09 0)
(-0.339594 3.11927e-09 0)
(-0.339594 -3.24574e-09 0)
(-0.339594 3.37403e-09 0)
(-0.339594 -3.50404e-09 0)
(-0.339594 3.63572e-09 0)
(-0.339594 -3.76902e-09 0)
(-0.339594 3.42845e-09 0)
(-0.339594 -3.48553e-09 0)
(-0.339594 3.5419e-09 0)
(-0.339594 -3.59762e-09 0)
(-0.339594 3.65262e-09 0)
(-0.339594 -3.70697e-09 0)
(-0.339594 3.76058e-09 0)
(-0.339594 -3.81354e-09 0)
(-0.339594 3.86575e-09 0)
(-0.339594 -3.91731e-09 0)
(-0.339594 3.96809e-09 0)
(-0.339594 -4.01823e-09 0)
(-0.339594 4.06757e-09 0)
(-0.339594 -4.11625e-09 0)
(-0.339594 4.16412e-09 0)
(-0.339594 -4.21134e-09 0)
(-0.339594 4.25771e-09 0)
(-0.339594 -4.30343e-09 0)
(-0.339594 4.34825e-09 0)
(-0.339594 -4.39249e-09 0)
(-0.339594 4.43567e-09 0)
(-0.339594 -4.47844e-09 0)
(-0.339594 4.51993e-09 0)
(-0.339594 -4.56117e-09 0)
(-0.339594 4.60093e-09 0)
(-0.339594 -4.64057e-09 0)
(-0.339594 4.67858e-09 0)
(-0.339594 -4.71657e-09 0)
(-0.339594 4.75275e-09 0)
(-0.339594 -4.78899e-09 0)
(-0.339594 4.82332e-09 0)
(-0.339594 -4.85769e-09 0)
(-0.339594 4.89013e-09 0)
(-0.339594 -4.92246e-09 0)
(-0.339594 4.95298e-09 0)
(-0.339594 -4.98316e-09 0)
(-0.339594 5.01157e-09 0)
(-0.339594 -5.03942e-09 0)
(-0.339594 5.06575e-09 0)
(-0.339594 -5.09087e-09 0)
(-0.339594 5.1151e-09 0)
(-0.339594 -5.13699e-09 0)
(-0.339594 5.15916e-09 0)
(-0.339594 -5.1771e-09 0)
(-0.339594 5.19719e-09 0)
(-0.339594 -5.21034e-09 0)
(-0.339594 5.22785e-09 0)
(-0.339594 -5.23478e-09 0)
(-0.339594 5.24775e-09 0)
(-0.339594 -5.24827e-09 0)
)
;

boundaryField
{
    inandouthalf11
    {
        type            cyclic;
    }
    inandouthalf12
    {
        type            cyclic;
    }
    inandouthalf21
    {
        type            cyclic;
    }
    inandouthalf22
    {
        type            cyclic;
    }
    inandouthalf31
    {
        type            cyclic;
    }
    inandouthalf32
    {
        type            cyclic;
    }
    inandouthalf41
    {
        type            cyclic;
    }
    inandouthalf42
    {
        type            cyclic;
    }
    top
    {
        type            symmetryPlane;
    }
    walls
    {
        type            calculated;
        value           uniform (0 0 0);
    }
    frontAndBackPlanes
    {
        type            empty;
    }
}


// ************************************************************************* //
