/*--------------------------------*- C++ -*----------------------------------*\
| =========                 |                                                 |
| \\      /  F ield         | OpenFOAM: The Open Source CFD Toolbox           |
|  \\    /   O peration     | Version:  2.4.x                                 |
|   \\  /    A nd           | Web:      www.OpenFOAM.org                      |
|    \\/     M anipulation  |                                                 |
\*---------------------------------------------------------------------------*/
FoamFile
{
    version     2.0;
    format      ascii;
    class       volVectorField;
    location    "11";
    object      Ua;
}
// * * * * * * * * * * * * * * * * * * * * * * * * * * * * * * * * * * * * * //

dimensions      [0 1 -1 0 0 0 0];

internalField   nonuniform List<vector> 
360
(
(-2.02054e-32 -1.01637e-31 0)
(-2.52513e-09 -8.89515e-09 0)
(-5.26276e-09 -1.59144e-08 0)
(-7.73632e-09 -2.21572e-08 0)
(-1.02555e-08 -2.87616e-08 0)
(-1.28596e-08 -3.56218e-08 0)
(-1.54707e-08 -4.24634e-08 0)
(-1.80501e-08 -4.92085e-08 0)
(-2.05901e-08 -5.58514e-08 0)
(-2.30881e-08 -6.2386e-08 0)
(-2.55406e-08 -6.88028e-08 0)
(-2.79433e-08 -7.50897e-08 0)
(-3.02922e-08 -8.12358e-08 0)
(-3.2585e-08 -8.72344e-08 0)
(-3.48208e-08 -9.30831e-08 0)
(-3.70002e-08 -9.87838e-08 0)
(-3.91251e-08 -1.04341e-07 0)
(-4.11976e-08 -1.09761e-07 0)
(-4.32208e-08 -1.1505e-07 0)
(-4.51981e-08 -1.20219e-07 0)
(-4.71331e-08 -1.25275e-07 0)
(-4.90297e-08 -1.3023e-07 0)
(-5.08921e-08 -1.35094e-07 0)
(-5.27244e-08 -1.39878e-07 0)
(-5.45306e-08 -1.44593e-07 0)
(-5.63145e-08 -1.49247e-07 0)
(-5.80798e-08 -1.53851e-07 0)
(-5.98301e-08 -1.58414e-07 0)
(-6.15689e-08 -1.62945e-07 0)
(-6.32992e-08 -1.67452e-07 0)
(-6.50238e-08 -1.71943e-07 0)
(-6.67456e-08 -1.76423e-07 0)
(-6.84667e-08 -1.80901e-07 0)
(-7.01897e-08 -1.85381e-07 0)
(-7.19164e-08 -1.89868e-07 0)
(-7.36486e-08 -1.94368e-07 0)
(-7.53878e-08 -1.98884e-07 0)
(-7.71356e-08 -2.0342e-07 0)
(-7.88931e-08 -2.0798e-07 0)
(-8.06614e-08 -2.12566e-07 0)
(-8.24413e-08 -2.17179e-07 0)
(-8.42337e-08 -2.21824e-07 0)
(-8.60389e-08 -2.26499e-07 0)
(-8.78576e-08 -2.31208e-07 0)
(-8.96901e-08 -2.35951e-07 0)
(-9.15369e-08 -2.40729e-07 0)
(-9.33979e-08 -2.45542e-07 0)
(-9.52729e-08 -2.5039e-07 0)
(-9.71619e-08 -2.55272e-07 0)
(-9.90652e-08 -2.6019e-07 0)
(-1.00983e-07 -2.65144e-07 0)
(-1.02914e-07 -2.7013e-07 0)
(-1.04858e-07 -2.75151e-07 0)
(-1.06815e-07 -2.80204e-07 0)
(-1.08786e-07 -2.85288e-07 0)
(-1.10768e-07 -2.90404e-07 0)
(-1.12763e-07 -2.95549e-07 0)
(-1.14768e-07 -3.00722e-07 0)
(-1.16785e-07 -3.05923e-07 0)
(-1.18811e-07 -3.11147e-07 0)
(-1.20847e-07 -3.16396e-07 0)
(-1.22892e-07 -3.21668e-07 0)
(-1.24946e-07 -3.26961e-07 0)
(-1.27008e-07 -3.32276e-07 0)
(-1.29078e-07 -3.37608e-07 0)
(-1.31154e-07 -3.42957e-07 0)
(-1.33236e-07 -3.48321e-07 0)
(-1.35323e-07 -3.53699e-07 0)
(-1.37415e-07 -3.59088e-07 0)
(-1.39511e-07 -3.64485e-07 0)
(-1.41609e-07 -3.6989e-07 0)
(-1.43711e-07 -3.75302e-07 0)
(-1.45814e-07 -3.80719e-07 0)
(-1.47918e-07 -3.86137e-07 0)
(-1.50023e-07 -3.91558e-07 0)
(-1.52129e-07 -3.96979e-07 0)
(-1.54234e-07 -4.02399e-07 0)
(-1.56336e-07 -4.07813e-07 0)
(-1.58437e-07 -4.1322e-07 0)
(-1.60534e-07 -4.18619e-07 0)
(-1.62627e-07 -4.24007e-07 0)
(-1.64715e-07 -4.29381e-07 0)
(-1.66798e-07 -4.34742e-07 0)
(-1.68875e-07 -4.40088e-07 0)
(-1.70946e-07 -4.45418e-07 0)
(-1.7301e-07 -4.5073e-07 0)
(-1.75067e-07 -4.56021e-07 0)
(-1.77115e-07 -4.61291e-07 0)
(-1.79154e-07 -4.66535e-07 0)
(-1.81182e-07 -4.71753e-07 0)
(-1.832e-07 -4.76941e-07 0)
(-1.85206e-07 -4.82098e-07 0)
(-1.87199e-07 -4.87223e-07 0)
(-1.8918e-07 -4.92313e-07 0)
(-1.91148e-07 -4.97369e-07 0)
(-1.93102e-07 -5.02388e-07 0)
(-1.95042e-07 -5.07369e-07 0)
(-1.96967e-07 -5.1231e-07 0)
(-1.98877e-07 -5.17211e-07 0)
(-2.00771e-07 -5.2207e-07 0)
(-2.0265e-07 -5.26886e-07 0)
(-2.04513e-07 -5.3166e-07 0)
(-2.0636e-07 -5.36391e-07 0)
(-2.08193e-07 -5.41082e-07 0)
(-2.10012e-07 -5.45734e-07 0)
(-2.11818e-07 -5.5035e-07 0)
(-2.13612e-07 -5.54932e-07 0)
(-2.15397e-07 -5.59486e-07 0)
(-2.17173e-07 -5.64013e-07 0)
(-2.18942e-07 -5.68519e-07 0)
(-2.20705e-07 -5.73005e-07 0)
(-2.22463e-07 -5.77474e-07 0)
(-2.24216e-07 -5.81925e-07 0)
(-2.25963e-07 -5.86356e-07 0)
(-2.27704e-07 -5.90764e-07 0)
(-2.29435e-07 -5.95143e-07 0)
(-2.31155e-07 -5.99484e-07 0)
(-2.32859e-07 -6.03778e-07 0)
(-2.34545e-07 -6.0802e-07 0)
(-2.36213e-07 -6.12204e-07 0)
(-2.37864e-07 -6.16335e-07 0)
(-2.39503e-07 -6.20423e-07 0)
(-2.41141e-07 -6.24494e-07 0)
(-2.42793e-07 -6.28585e-07 0)
(-2.44483e-07 -6.32756e-07 0)
(-2.46244e-07 -6.37085e-07 0)
(-2.48119e-07 -6.41677e-07 0)
(-2.50163e-07 -6.46668e-07 0)
(-2.52443e-07 -6.52219e-07 0)
(-2.55033e-07 -6.58514e-07 0)
(-2.58005e-07 -6.65728e-07 0)
(-2.61405e-07 -6.73972e-07 0)
(-2.6522e-07 -6.83217e-07 0)
(-2.69337e-07 -6.93194e-07 0)
(-2.73508e-07 -7.03307e-07 0)
(-2.77337e-07 -7.1261e-07 0)
(-2.80384e-07 -7.20019e-07 0)
(-2.82381e-07 -7.24858e-07 0)
(-2.83399e-07 -7.27301e-07 0)
(-2.8378e-07 -7.28183e-07 0)
(-2.83892e-07 -7.284e-07 0)
(-2.83955e-07 -7.28463e-07 0)
(-2.84058e-07 -7.2858e-07 0)
(-2.85707e-07 -7.30992e-07 0)
(-2.8816e-07 -7.33068e-07 0)
(-2.91887e-07 -7.35562e-07 0)
(-3.00494e-07 -7.39845e-07 0)
(-3.34374e-07 -7.45907e-07 0)
(-7.5788e-07 -7.46024e-07 0)
(-0.0611083 0.000127212 0)
(-0.18938 0.00174012 0)
(-0.284615 0.00237045 0)
(-0.354 0.00276791 0)
(-0.405307 0.00293977 0)
(-0.442892 0.00276742 0)
(-0.469907 0.00207029 0)
(-0.48909 0.000712725 0)
(-0.502772 -0.00120569 0)
(-0.512682 -0.00336732 0)
(-0.519961 -0.00547259 0)
(-0.525339 -0.00737286 0)
(-0.5293 -0.00903305 0)
(-0.532176 -0.0104626 0)
(-0.534203 -0.011683 0)
(-0.535551 -0.0127184 0)
(-0.536349 -0.013592 0)
(-0.536694 -0.0143248 0)
(-0.536663 -0.0149352 0)
(-0.536314 -0.0154388 0)
(-0.535695 -0.0158495 0)
(-0.534845 -0.016179 0)
(-0.533796 -0.0164372 0)
(-0.532574 -0.0166328 0)
(-0.5312 -0.0167733 0)
(-0.529694 -0.016865 0)
(-0.528071 -0.0169135 0)
(-0.526346 -0.0169238 0)
(-0.524529 -0.0168999 0)
(-0.522633 -0.0168456 0)
(-0.520667 -0.0167642 0)
(-0.518639 -0.0166586 0)
(-0.516557 -0.0165313 0)
(-0.514428 -0.0163846 0)
(-0.51226 -0.0162206 0)
(-0.510058 -0.0160412 0)
(-0.507828 -0.0158481 0)
(-0.505576 -0.0156427 0)
(-0.503306 -0.0154267 0)
(-0.501025 -0.0152012 0)
(-0.498737 -0.0149677 0)
(-0.496446 -0.0147272 0)
(-0.494157 -0.014481 0)
(-0.491875 -0.0142302 0)
(-0.489604 -0.0139758 0)
(-0.487347 -0.0137191 0)
(-0.485111 -0.0134609 0)
(-0.482897 -0.0132024 0)
(-0.480712 -0.0129445 0)
(-0.478557 -0.0126882 0)
(-0.476439 -0.0124343 0)
(-0.474359 -0.0121837 0)
(-0.472301 -0.0119346 0)
(-0.470248 -0.0116851 0)
(-0.4682 -0.011436 0)
(-0.46616 -0.0111877 0)
(-0.464132 -0.0109405 0)
(-0.462118 -0.0106947 0)
(-0.46012 -0.0104502 0)
(-0.458143 -0.0102067 0)
(-0.456188 -0.00996385 0)
(-0.45426 -0.00972097 0)
(-0.452361 -0.0094774 0)
(-0.450494 -0.00923247 0)
(-0.448663 -0.00898555 0)
(-0.44687 -0.00873626 0)
(-0.445118 -0.0084845 0)
(-0.44341 -0.00823063 0)
(-0.441748 -0.00797542 0)
(-0.440133 -0.00772008 0)
(-0.438569 -0.00746607 0)
(-0.437056 -0.00721492 0)
(-0.435597 -0.00696806 0)
(-0.434193 -0.0067267 0)
(-0.432846 -0.0064918 0)
(-0.431557 -0.00626403 0)
(-0.430328 -0.00604387 0)
(-0.429161 -0.00583167 0)
(-0.428057 -0.00562773 0)
(-0.427018 -0.00543219 0)
(-0.426047 -0.00524558 0)
(-0.425146 -0.00506768 0)
(-0.424321 -0.0048997 0)
(-0.423578 -0.00474056 0)
(-0.422928 -0.00459341 0)
(-0.422389 -0.00445309 0)
(-0.421983 -0.00433003 0)
(-0.42154 -0.00421948 0)
(-0.356479 -0.00290624 0)
(-0.352889 -0.0027167 0)
(-0.349302 -0.00190711 0)
(-0.34582 -0.00132084 0)
(-0.342453 -0.00071136 0)
(-0.339219 -0.000125187 0)
(-0.336138 0.000403913 0)
(-0.333232 0.000965187 0)
(-0.330515 0.00127731 0)
(-0.32803 0.0020098 0)
(-0.325743 0.00173847 0)
(-0.323776 0.00299871 0)
(-0.321973 0.00183538 0)
(-0.320597 0.00341912 0)
(-0.319393 0.00343444 0)
(-0.31979 -0.0251016 0)
(-0.319641 -0.0395621 0)
(-0.319281 -0.0395538 0)
(-0.319182 -0.0395481 0)
(-0.319284 -0.0395424 0)
(-0.31958 -0.0395384 0)
(-0.320041 -0.0395353 0)
(-0.320646 -0.039533 0)
(-0.321375 -0.0395314 0)
(-0.322212 -0.0395303 0)
(-0.323138 -0.0395297 0)
(-0.324137 -0.0395293 0)
(-0.325194 -0.0395292 0)
(-0.326293 -0.0395292 0)
(-0.327419 -0.0395291 0)
(-0.328556 -0.0395291 0)
(-0.329688 -0.0395289 0)
(-0.330799 -0.0395284 0)
(-0.33187 -0.0395277 0)
(-0.332881 -0.0395266 0)
(-0.333807 -0.0395249 0)
(-0.334622 -0.0395223 0)
(-0.335284 -0.039517 0)
(-0.335609 -0.0395093 0)
(-0.335659 -0.0395051 0)
(-0.33566 -0.0395045 0)
(-0.33566 -0.0395045 0)
(-0.33566 -0.0395045 0)
(-0.33566 -0.0395045 0)
(-0.33566 -0.0395045 0)
(-0.33566 -0.0395045 0)
(-0.33566 -0.0395045 0)
(-0.33566 -0.0395045 0)
(-0.33566 -0.0395045 0)
(-0.33566 -0.0395045 0)
(-0.33566 -0.0395045 0)
(-0.33566 -0.0395045 0)
(-0.33566 -0.0395045 0)
(-0.33566 -0.0395045 0)
(-0.33566 -0.0395045 0)
(-0.33566 -0.0395045 0)
(-0.33566 -0.0395045 0)
(-0.33566 -0.0395045 0)
(-0.33566 -0.0395045 0)
(-0.33566 -0.0395045 0)
(-0.33566 -0.0395045 0)
(-0.33566 -0.0395045 0)
(-0.33566 -0.0395045 0)
(-0.33566 -0.0395045 0)
(-0.33566 -0.0395045 0)
(-0.33566 -0.0395045 0)
(-0.33566 -0.0395045 0)
(-0.33566 -0.0395045 0)
(-0.33566 -0.0395045 0)
(-0.33566 -0.0395045 0)
(-0.33566 -0.0395045 0)
(-0.33566 -0.0395045 0)
(-0.33566 -0.0395045 0)
(-0.33566 -0.0395045 0)
(-0.33566 -0.0395045 0)
(-0.33566 -0.0395045 0)
(-0.33566 -0.0395045 0)
(-0.33566 -0.0395045 0)
(-0.33566 -0.0395045 0)
(-0.33566 -0.0395045 0)
(-0.33566 -0.0395045 0)
(-0.33566 -0.0395045 0)
(-0.33566 -0.0395045 0)
(-0.33566 -0.0395045 0)
(-0.33566 -0.0395045 0)
(-0.33566 -0.0395045 0)
(-0.33566 -0.0395045 0)
(-0.33566 -0.0395045 0)
(-0.33566 -0.0395045 0)
(-0.33566 -0.0395045 0)
(-0.33566 -0.0395045 0)
(-0.33566 -0.0395045 0)
(-0.33566 -0.0395045 0)
(-0.33566 -0.0395045 0)
(-0.33566 -0.0395045 0)
(-0.33566 -0.0395045 0)
(-0.33566 -0.0395045 0)
(-0.33566 -0.0395045 0)
(-0.33566 -0.0395045 0)
(-0.33566 -0.0395045 0)
(-0.33566 -0.0395045 0)
(-0.33566 -0.0395045 0)
(-0.33566 -0.0395045 0)
(-0.33566 -0.0395045 0)
(-0.33566 -0.0395045 0)
(-0.33566 -0.0395045 0)
(-0.33566 -0.0395045 0)
(-0.33566 -0.0395045 0)
(-0.33566 -0.0395045 0)
(-0.33566 -0.0395045 0)
(-0.33566 -0.0395045 0)
(-0.33566 -0.0395045 0)
(-0.33566 -0.0395045 0)
(-0.33566 -0.0395045 0)
(-0.33566 -0.0395045 0)
(-0.33566 -0.0395045 0)
(-0.33566 -0.0395045 0)
(-0.33566 -0.0395045 0)
(-0.33566 -0.0395045 0)
(-0.33566 -0.0395042 0)
(-0.335659 -0.0394958 0)
(-0.335632 -0.0391501 0)
(-0.335004 -0.02241 0)
)
;

boundaryField
{
    inandouthalf11
    {
        type            cyclic;
    }
    inandouthalf12
    {
        type            cyclic;
    }
    inandouthalf21
    {
        type            cyclic;
    }
    inandouthalf22
    {
        type            cyclic;
    }
    inandouthalf31
    {
        type            cyclic;
    }
    inandouthalf32
    {
        type            cyclic;
    }
    inandouthalf41
    {
        type            cyclic;
    }
    inandouthalf42
    {
        type            cyclic;
    }
    top
    {
        type            symmetryPlane;
    }
    walls
    {
        type            fixedValue;
        value           uniform (0 0 0);
    }
    frontAndBackPlanes
    {
        type            empty;
    }
}


// ************************************************************************* //
