/*--------------------------------*- C++ -*----------------------------------*\
| =========                 |                                                 |
| \\      /  F ield         | OpenFOAM: The Open Source CFD Toolbox           |
|  \\    /   O peration     | Version:  2.4.x                                 |
|   \\  /    A nd           | Web:      www.OpenFOAM.org                      |
|    \\/     M anipulation  |                                                 |
\*---------------------------------------------------------------------------*/
FoamFile
{
    version     2.0;
    format      ascii;
    class       volVectorField;
    location    "11";
    object      Ua_0;
}
// * * * * * * * * * * * * * * * * * * * * * * * * * * * * * * * * * * * * * //

dimensions      [0 1 -1 0 0 0 0];

internalField   nonuniform List<vector> 
360
(
(-2.0204e-32 -1.01638e-31 0)
(-2.52537e-09 -8.89671e-09 0)
(-5.26325e-09 -1.59171e-08 0)
(-7.73699e-09 -2.21609e-08 0)
(-1.02563e-08 -2.87662e-08 0)
(-1.28605e-08 -3.56273e-08 0)
(-1.54717e-08 -4.24697e-08 0)
(-1.80511e-08 -4.92156e-08 0)
(-2.05912e-08 -5.58591e-08 0)
(-2.30892e-08 -6.23943e-08 0)
(-2.55416e-08 -6.88115e-08 0)
(-2.79442e-08 -7.50988e-08 0)
(-3.02931e-08 -8.12454e-08 0)
(-3.25859e-08 -8.72444e-08 0)
(-3.48215e-08 -9.30934e-08 0)
(-3.70009e-08 -9.87944e-08 0)
(-3.91256e-08 -1.04352e-07 0)
(-4.11981e-08 -1.09772e-07 0)
(-4.32212e-08 -1.15062e-07 0)
(-4.51984e-08 -1.20231e-07 0)
(-4.71333e-08 -1.25288e-07 0)
(-4.90299e-08 -1.30243e-07 0)
(-5.08922e-08 -1.35107e-07 0)
(-5.27245e-08 -1.39892e-07 0)
(-5.45306e-08 -1.44606e-07 0)
(-5.63145e-08 -1.49261e-07 0)
(-5.80798e-08 -1.53866e-07 0)
(-5.98302e-08 -1.58429e-07 0)
(-6.1569e-08 -1.62961e-07 0)
(-6.32993e-08 -1.67469e-07 0)
(-6.5024e-08 -1.7196e-07 0)
(-6.67458e-08 -1.76441e-07 0)
(-6.8467e-08 -1.80919e-07 0)
(-7.019e-08 -1.854e-07 0)
(-7.19169e-08 -1.89888e-07 0)
(-7.36492e-08 -1.94389e-07 0)
(-7.53885e-08 -1.98906e-07 0)
(-7.71363e-08 -2.03443e-07 0)
(-7.8894e-08 -2.08004e-07 0)
(-8.06624e-08 -2.1259e-07 0)
(-8.24424e-08 -2.17204e-07 0)
(-8.4235e-08 -2.2185e-07 0)
(-8.60404e-08 -2.26526e-07 0)
(-8.78591e-08 -2.31236e-07 0)
(-8.96919e-08 -2.3598e-07 0)
(-9.15388e-08 -2.40759e-07 0)
(-9.33999e-08 -2.45573e-07 0)
(-9.52751e-08 -2.50422e-07 0)
(-9.71642e-08 -2.55305e-07 0)
(-9.90677e-08 -2.60225e-07 0)
(-1.00985e-07 -2.65179e-07 0)
(-1.02916e-07 -2.70167e-07 0)
(-1.04861e-07 -2.75188e-07 0)
(-1.06819e-07 -2.80242e-07 0)
(-1.08789e-07 -2.85328e-07 0)
(-1.10772e-07 -2.90445e-07 0)
(-1.12766e-07 -2.95591e-07 0)
(-1.14772e-07 -3.00765e-07 0)
(-1.16789e-07 -3.05967e-07 0)
(-1.18815e-07 -3.11193e-07 0)
(-1.20852e-07 -3.16443e-07 0)
(-1.22897e-07 -3.21716e-07 0)
(-1.24951e-07 -3.27011e-07 0)
(-1.27013e-07 -3.32326e-07 0)
(-1.29083e-07 -3.3766e-07 0)
(-1.31159e-07 -3.4301e-07 0)
(-1.33241e-07 -3.48375e-07 0)
(-1.35329e-07 -3.53754e-07 0)
(-1.37421e-07 -3.59145e-07 0)
(-1.39516e-07 -3.64543e-07 0)
(-1.41615e-07 -3.69949e-07 0)
(-1.43717e-07 -3.75362e-07 0)
(-1.4582e-07 -3.8078e-07 0)
(-1.47924e-07 -3.862e-07 0)
(-1.5003e-07 -3.91622e-07 0)
(-1.52135e-07 -3.97045e-07 0)
(-1.5424e-07 -4.02465e-07 0)
(-1.56343e-07 -4.07881e-07 0)
(-1.58443e-07 -4.13289e-07 0)
(-1.60541e-07 -4.18689e-07 0)
(-1.62634e-07 -4.24078e-07 0)
(-1.64722e-07 -4.29454e-07 0)
(-1.66805e-07 -4.34816e-07 0)
(-1.68882e-07 -4.40163e-07 0)
(-1.70953e-07 -4.45494e-07 0)
(-1.73017e-07 -4.50807e-07 0)
(-1.75074e-07 -4.561e-07 0)
(-1.77122e-07 -4.61371e-07 0)
(-1.79161e-07 -4.66616e-07 0)
(-1.8119e-07 -4.71835e-07 0)
(-1.83208e-07 -4.77025e-07 0)
(-1.85214e-07 -4.82183e-07 0)
(-1.87207e-07 -4.87309e-07 0)
(-1.89188e-07 -4.924e-07 0)
(-1.91156e-07 -4.97457e-07 0)
(-1.9311e-07 -5.02477e-07 0)
(-1.9505e-07 -5.07459e-07 0)
(-1.96975e-07 -5.12402e-07 0)
(-1.98885e-07 -5.17304e-07 0)
(-2.00779e-07 -5.22164e-07 0)
(-2.02658e-07 -5.26981e-07 0)
(-2.04521e-07 -5.31756e-07 0)
(-2.06368e-07 -5.36488e-07 0)
(-2.08201e-07 -5.4118e-07 0)
(-2.1002e-07 -5.45833e-07 0)
(-2.11826e-07 -5.5045e-07 0)
(-2.1362e-07 -5.55034e-07 0)
(-2.15405e-07 -5.59588e-07 0)
(-2.17181e-07 -5.64117e-07 0)
(-2.1895e-07 -5.68623e-07 0)
(-2.20713e-07 -5.7311e-07 0)
(-2.22471e-07 -5.7758e-07 0)
(-2.24224e-07 -5.82032e-07 0)
(-2.25971e-07 -5.86465e-07 0)
(-2.27712e-07 -5.90874e-07 0)
(-2.29443e-07 -5.95253e-07 0)
(-2.31162e-07 -5.99595e-07 0)
(-2.32866e-07 -6.03891e-07 0)
(-2.34552e-07 -6.08133e-07 0)
(-2.3622e-07 -6.12319e-07 0)
(-2.37871e-07 -6.1645e-07 0)
(-2.3951e-07 -6.2054e-07 0)
(-2.41147e-07 -6.24611e-07 0)
(-2.42799e-07 -6.28703e-07 0)
(-2.44489e-07 -6.32875e-07 0)
(-2.4625e-07 -6.37205e-07 0)
(-2.48125e-07 -6.41799e-07 0)
(-2.50169e-07 -6.4679e-07 0)
(-2.52448e-07 -6.52343e-07 0)
(-2.55038e-07 -6.58639e-07 0)
(-2.58009e-07 -6.65855e-07 0)
(-2.61408e-07 -6.74102e-07 0)
(-2.65222e-07 -6.83349e-07 0)
(-2.69338e-07 -6.93329e-07 0)
(-2.73508e-07 -7.03445e-07 0)
(-2.77335e-07 -7.1275e-07 0)
(-2.80382e-07 -7.20161e-07 0)
(-2.82378e-07 -7.25002e-07 0)
(-2.83396e-07 -7.27445e-07 0)
(-2.83777e-07 -7.28328e-07 0)
(-2.83889e-07 -7.28545e-07 0)
(-2.83951e-07 -7.28608e-07 0)
(-2.84054e-07 -7.28724e-07 0)
(-2.85707e-07 -7.31143e-07 0)
(-2.88166e-07 -7.33225e-07 0)
(-2.91904e-07 -7.35726e-07 0)
(-3.00532e-07 -7.40022e-07 0)
(-3.3447e-07 -7.46104e-07 0)
(-7.57961e-07 -7.46301e-07 0)
(-0.0610624 0.000126941 0)
(-0.189329 0.00174002 0)
(-0.284571 0.00237052 0)
(-0.353952 0.0027677 0)
(-0.405248 0.00293886 0)
(-0.442818 0.00276522 0)
(-0.469818 0.00206612 0)
(-0.488987 0.000706134 0)
(-0.502658 -0.00121412 0)
(-0.51256 -0.0033765 0)
(-0.519832 -0.00548173 0)
(-0.525205 -0.00738157 0)
(-0.529162 -0.0090412 0)
(-0.532034 -0.0104701 0)
(-0.534057 -0.0116899 0)
(-0.535403 -0.0127248 0)
(-0.536198 -0.0135978 0)
(-0.536541 -0.0143301 0)
(-0.536508 -0.01494 0)
(-0.536157 -0.0154432 0)
(-0.535537 -0.0158535 0)
(-0.534685 -0.0161825 0)
(-0.533635 -0.0164404 0)
(-0.532411 -0.0166357 0)
(-0.531036 -0.0167758 0)
(-0.529529 -0.0168672 0)
(-0.527905 -0.0169155 0)
(-0.526178 -0.0169255 0)
(-0.524361 -0.0169014 0)
(-0.522464 -0.0168469 0)
(-0.520496 -0.0167653 0)
(-0.518467 -0.0166594 0)
(-0.516385 -0.016532 0)
(-0.514255 -0.0163851 0)
(-0.512086 -0.016221 0)
(-0.509883 -0.0160414 0)
(-0.507652 -0.0158482 0)
(-0.505399 -0.0156427 0)
(-0.503129 -0.0154265 0)
(-0.500847 -0.015201 0)
(-0.498558 -0.0149673 0)
(-0.496266 -0.0147267 0)
(-0.493977 -0.0144804 0)
(-0.491694 -0.0142295 0)
(-0.489422 -0.0139751 0)
(-0.487165 -0.0137182 0)
(-0.484928 -0.01346 0)
(-0.482714 -0.0132014 0)
(-0.480528 -0.0129434 0)
(-0.478373 -0.012687 0)
(-0.476253 -0.0124331 0)
(-0.474173 -0.0121825 0)
(-0.472115 -0.0119333 0)
(-0.470061 -0.0116838 0)
(-0.468012 -0.0114346 0)
(-0.465972 -0.0111862 0)
(-0.463944 -0.0109391 0)
(-0.461929 -0.0106932 0)
(-0.459931 -0.0104487 0)
(-0.457953 -0.0102052 0)
(-0.455997 -0.00996224 0)
(-0.454068 -0.00971933 0)
(-0.452169 -0.00947574 0)
(-0.450302 -0.00923077 0)
(-0.44847 -0.00898383 0)
(-0.446677 -0.0087345 0)
(-0.444925 -0.00848272 0)
(-0.443216 -0.00822881 0)
(-0.441553 -0.00797356 0)
(-0.439938 -0.00771819 0)
(-0.438374 -0.00746415 0)
(-0.43686 -0.00721297 0)
(-0.435401 -0.00696608 0)
(-0.433997 -0.00672471 0)
(-0.432649 -0.00648979 0)
(-0.43136 -0.00626202 0)
(-0.430131 -0.00604186 0)
(-0.428964 -0.00582967 0)
(-0.427859 -0.00562573 0)
(-0.42682 -0.00543022 0)
(-0.425849 -0.00524363 0)
(-0.424948 -0.00506576 0)
(-0.424123 -0.00489781 0)
(-0.42338 -0.00473871 0)
(-0.42273 -0.0045916 0)
(-0.422191 -0.00445134 0)
(-0.421785 -0.00432833 0)
(-0.421341 -0.00421782 0)
(-0.356274 -0.00290423 0)
(-0.352684 -0.00271491 0)
(-0.349097 -0.00190515 0)
(-0.345616 -0.00131896 0)
(-0.342248 -0.000709494 0)
(-0.339014 -0.000123358 0)
(-0.335933 0.000405571 0)
(-0.333028 0.000967069 0)
(-0.330311 0.00127828 0)
(-0.327827 0.00201212 0)
(-0.325541 0.00173769 0)
(-0.323574 0.00300222 0)
(-0.321772 0.00183119 0)
(-0.320397 0.00342503 0)
(-0.319193 0.00342275 0)
(-0.319592 -0.0251172 0)
(-0.319443 -0.0395621 0)
(-0.319084 -0.0395538 0)
(-0.318985 -0.0395481 0)
(-0.319088 -0.0395424 0)
(-0.319385 -0.0395384 0)
(-0.319846 -0.0395353 0)
(-0.320451 -0.039533 0)
(-0.321181 -0.0395314 0)
(-0.322017 -0.0395303 0)
(-0.322943 -0.0395297 0)
(-0.323943 -0.0395293 0)
(-0.325 -0.0395292 0)
(-0.326099 -0.0395291 0)
(-0.327225 -0.0395291 0)
(-0.328363 -0.0395291 0)
(-0.329495 -0.0395289 0)
(-0.330606 -0.0395284 0)
(-0.331676 -0.0395277 0)
(-0.332687 -0.0395266 0)
(-0.333614 -0.0395248 0)
(-0.334428 -0.0395223 0)
(-0.33509 -0.039517 0)
(-0.335415 -0.0395093 0)
(-0.335465 -0.0395051 0)
(-0.335466 -0.0395045 0)
(-0.335466 -0.0395044 0)
(-0.335466 -0.0395044 0)
(-0.335466 -0.0395044 0)
(-0.335466 -0.0395044 0)
(-0.335466 -0.0395044 0)
(-0.335466 -0.0395044 0)
(-0.335466 -0.0395044 0)
(-0.335466 -0.0395044 0)
(-0.335466 -0.0395044 0)
(-0.335466 -0.0395044 0)
(-0.335466 -0.0395044 0)
(-0.335466 -0.0395044 0)
(-0.335466 -0.0395044 0)
(-0.335466 -0.0395044 0)
(-0.335466 -0.0395044 0)
(-0.335466 -0.0395044 0)
(-0.335466 -0.0395044 0)
(-0.335466 -0.0395044 0)
(-0.335466 -0.0395044 0)
(-0.335466 -0.0395044 0)
(-0.335466 -0.0395044 0)
(-0.335466 -0.0395044 0)
(-0.335466 -0.0395044 0)
(-0.335466 -0.0395044 0)
(-0.335466 -0.0395044 0)
(-0.335466 -0.0395044 0)
(-0.335466 -0.0395044 0)
(-0.335466 -0.0395044 0)
(-0.335466 -0.0395044 0)
(-0.335466 -0.0395044 0)
(-0.335466 -0.0395044 0)
(-0.335466 -0.0395044 0)
(-0.335466 -0.0395044 0)
(-0.335466 -0.0395044 0)
(-0.335466 -0.0395044 0)
(-0.335466 -0.0395044 0)
(-0.335466 -0.0395044 0)
(-0.335466 -0.0395044 0)
(-0.335466 -0.0395044 0)
(-0.335466 -0.0395044 0)
(-0.335466 -0.0395044 0)
(-0.335466 -0.0395044 0)
(-0.335466 -0.0395044 0)
(-0.335466 -0.0395044 0)
(-0.335466 -0.0395044 0)
(-0.335466 -0.0395044 0)
(-0.335466 -0.0395044 0)
(-0.335466 -0.0395044 0)
(-0.335466 -0.0395044 0)
(-0.335466 -0.0395044 0)
(-0.335466 -0.0395044 0)
(-0.335466 -0.0395044 0)
(-0.335466 -0.0395044 0)
(-0.335466 -0.0395044 0)
(-0.335466 -0.0395044 0)
(-0.335466 -0.0395044 0)
(-0.335466 -0.0395044 0)
(-0.335466 -0.0395044 0)
(-0.335466 -0.0395044 0)
(-0.335466 -0.0395044 0)
(-0.335466 -0.0395044 0)
(-0.335466 -0.0395044 0)
(-0.335466 -0.0395044 0)
(-0.335466 -0.0395044 0)
(-0.335466 -0.0395044 0)
(-0.335466 -0.0395044 0)
(-0.335466 -0.0395044 0)
(-0.335466 -0.0395044 0)
(-0.335466 -0.0395044 0)
(-0.335466 -0.0395044 0)
(-0.335466 -0.0395044 0)
(-0.335466 -0.0395044 0)
(-0.335466 -0.0395044 0)
(-0.335466 -0.0395044 0)
(-0.335466 -0.0395044 0)
(-0.335466 -0.0395044 0)
(-0.335466 -0.0395044 0)
(-0.335466 -0.0395044 0)
(-0.335466 -0.0395042 0)
(-0.335465 -0.0394957 0)
(-0.335438 -0.0391501 0)
(-0.334809 -0.02241 0)
)
;

boundaryField
{
    inandouthalf11
    {
        type            cyclic;
    }
    inandouthalf12
    {
        type            cyclic;
    }
    inandouthalf21
    {
        type            cyclic;
    }
    inandouthalf22
    {
        type            cyclic;
    }
    inandouthalf31
    {
        type            cyclic;
    }
    inandouthalf32
    {
        type            cyclic;
    }
    inandouthalf41
    {
        type            cyclic;
    }
    inandouthalf42
    {
        type            cyclic;
    }
    top
    {
        type            symmetryPlane;
    }
    walls
    {
        type            fixedValue;
        value           uniform (0 0 0);
    }
    frontAndBackPlanes
    {
        type            empty;
    }
}


// ************************************************************************* //
