/*--------------------------------*- C++ -*----------------------------------*\
| =========                 |                                                 |
| \\      /  F ield         | OpenFOAM: The Open Source CFD Toolbox           |
|  \\    /   O peration     | Version:  2.4.x                                 |
|   \\  /    A nd           | Web:      www.OpenFOAM.org                      |
|    \\/     M anipulation  |                                                 |
\*---------------------------------------------------------------------------*/
FoamFile
{
    version     2.0;
    format      ascii;
    class       volVectorField;
    location    "11";
    object      Ub;
}
// * * * * * * * * * * * * * * * * * * * * * * * * * * * * * * * * * * * * * //

dimensions      [0 1 -1 0 0 0 0];

internalField   nonuniform List<vector> 
360
(
(-0.000205512 3.75336e-09 0)
(-0.000204369 1.32756e-08 0)
(-0.000204217 2.44301e-08 0)
(-0.000204374 3.49605e-08 0)
(-0.000204449 4.54399e-08 0)
(-0.000204475 5.61241e-08 0)
(-0.000204507 6.6849e-08 0)
(-0.000204548 7.74649e-08 0)
(-0.000204589 8.79196e-08 0)
(-0.000204631 9.81982e-08 0)
(-0.000204673 1.08288e-07 0)
(-0.000204715 1.18172e-07 0)
(-0.000204757 1.27834e-07 0)
(-0.000204799 1.37264e-07 0)
(-0.000204842 1.46457e-07 0)
(-0.000204886 1.55416e-07 0)
(-0.000204929 1.64148e-07 0)
(-0.000204973 1.72663e-07 0)
(-0.000205017 1.80971e-07 0)
(-0.000205062 1.89087e-07 0)
(-0.000205107 1.97025e-07 0)
(-0.000205153 2.04802e-07 0)
(-0.000205199 2.12435e-07 0)
(-0.000205245 2.19939e-07 0)
(-0.000205292 2.27331e-07 0)
(-0.000205339 2.34627e-07 0)
(-0.000205386 2.41842e-07 0)
(-0.000205435 2.48991e-07 0)
(-0.000205483 2.56087e-07 0)
(-0.000205533 2.63143e-07 0)
(-0.000205582 2.70171e-07 0)
(-0.000205633 2.77182e-07 0)
(-0.000205683 2.84184e-07 0)
(-0.000205735 2.91189e-07 0)
(-0.000205786 2.98204e-07 0)
(-0.000205839 3.05235e-07 0)
(-0.000205891 3.1229e-07 0)
(-0.000205945 3.19373e-07 0)
(-0.000205999 3.26492e-07 0)
(-0.000206054 3.33647e-07 0)
(-0.000206109 3.40846e-07 0)
(-0.000206166 3.48089e-07 0)
(-0.000206222 3.55379e-07 0)
(-0.000206279 3.62718e-07 0)
(-0.000206337 3.70109e-07 0)
(-0.000206396 3.77551e-07 0)
(-0.000206455 3.85046e-07 0)
(-0.000206515 3.92593e-07 0)
(-0.000206576 4.0019e-07 0)
(-0.000206638 4.07842e-07 0)
(-0.0002067 4.15544e-07 0)
(-0.000206763 4.23297e-07 0)
(-0.000206826 4.31098e-07 0)
(-0.000206891 4.38949e-07 0)
(-0.000206956 4.46844e-07 0)
(-0.000207023 4.54786e-07 0)
(-0.000207089 4.62769e-07 0)
(-0.000207157 4.70794e-07 0)
(-0.000207226 4.78858e-07 0)
(-0.000207295 4.86955e-07 0)
(-0.000207366 4.95088e-07 0)
(-0.000207437 5.03252e-07 0)
(-0.000207509 5.11447e-07 0)
(-0.000207583 5.19669e-07 0)
(-0.000207657 5.27917e-07 0)
(-0.000207732 5.36186e-07 0)
(-0.000207808 5.44474e-07 0)
(-0.000207886 5.52779e-07 0)
(-0.000207964 5.61098e-07 0)
(-0.000208043 5.69424e-07 0)
(-0.000208124 5.77758e-07 0)
(-0.000208206 5.86099e-07 0)
(-0.000208288 5.94441e-07 0)
(-0.000208373 6.02783e-07 0)
(-0.000208458 6.11122e-07 0)
(-0.000208545 6.19457e-07 0)
(-0.000208633 6.27783e-07 0)
(-0.000208722 6.36096e-07 0)
(-0.000208812 6.44392e-07 0)
(-0.000208905 6.5267e-07 0)
(-0.000208998 6.60924e-07 0)
(-0.000209093 6.69153e-07 0)
(-0.000209189 6.77354e-07 0)
(-0.000209287 6.85525e-07 0)
(-0.000209387 6.93665e-07 0)
(-0.000209489 7.01769e-07 0)
(-0.000209592 7.09836e-07 0)
(-0.000209697 7.17861e-07 0)
(-0.000209803 7.2584e-07 0)
(-0.000209912 7.3377e-07 0)
(-0.000210023 7.41648e-07 0)
(-0.000210135 7.49469e-07 0)
(-0.00021025 7.57231e-07 0)
(-0.000210367 7.64933e-07 0)
(-0.000210486 7.72572e-07 0)
(-0.000210607 7.80146e-07 0)
(-0.000210731 7.87652e-07 0)
(-0.000210858 7.95088e-07 0)
(-0.000210987 8.02451e-07 0)
(-0.000211118 8.0974e-07 0)
(-0.000211253 8.16954e-07 0)
(-0.00021139 8.24091e-07 0)
(-0.00021153 8.31153e-07 0)
(-0.000211674 8.38141e-07 0)
(-0.000211821 8.45058e-07 0)
(-0.000211971 8.51908e-07 0)
(-0.000212124 8.58695e-07 0)
(-0.000212282 8.65425e-07 0)
(-0.000212443 8.72101e-07 0)
(-0.000212608 8.78731e-07 0)
(-0.000212777 8.85316e-07 0)
(-0.000212951 8.91859e-07 0)
(-0.000213129 8.9836e-07 0)
(-0.000213312 9.04814e-07 0)
(-0.0002135 9.11216e-07 0)
(-0.000213693 9.17554e-07 0)
(-0.000213891 9.23816e-07 0)
(-0.000214096 9.29991e-07 0)
(-0.000214306 9.36065e-07 0)
(-0.000214523 9.42035e-07 0)
(-0.000214746 9.47904e-07 0)
(-0.000214977 9.53692e-07 0)
(-0.000215215 9.59434e-07 0)
(-0.000215461 9.65192e-07 0)
(-0.000215716 9.71054e-07 0)
(-0.00021598 9.77142e-07 0)
(-0.000216253 9.83616e-07 0)
(-0.000216537 9.90678e-07 0)
(-0.000216833 9.9857e-07 0)
(-0.000217141 1.00756e-06 0)
(-0.000217462 1.01789e-06 0)
(-0.000217797 1.02969e-06 0)
(-0.000218147 1.04287e-06 0)
(-0.000218517 1.05697e-06 0)
(-0.000218911 1.07106e-06 0)
(-0.000219329 1.0838e-06 0)
(-0.000219772 1.09372e-06 0)
(-0.000220243 1.09993e-06 0)
(-0.000220766 1.1026e-06 0)
(-0.000221364 1.10284e-06 0)
(-0.00022201 1.10167e-06 0)
(-0.000222771 1.09184e-06 0)
(-0.000228087 1.09944e-06 0)
(-0.000227293 1.08964e-06 0)
(-0.000228271 1.09276e-06 0)
(-0.000229893 1.05325e-06 0)
(-0.000231443 1.58593e-06 0)
(-0.000233419 -9.84411e-07 0)
(-0.00043449 8.98333e-06 0)
(-0.0698842 -9.64632e-05 0)
(-0.207549 -0.000505549 0)
(-0.300317 -0.000267134 0)
(-0.36922 -0.000243922 0)
(-0.421744 -0.00015429 0)
(-0.461619 -8.65944e-05 0)
(-0.49105 -3.77842e-05 0)
(-0.511863 -6.70548e-06 0)
(-0.526003 1.04939e-05 0)
(-0.535381 1.88045e-05 0)
(-0.541554 2.25523e-05 0)
(-0.545612 2.40593e-05 0)
(-0.548257 2.44555e-05 0)
(-0.549931 2.4257e-05 0)
(-0.550912 2.37221e-05 0)
(-0.55138 2.29946e-05 0)
(-0.551454 2.21594e-05 0)
(-0.551217 2.12677e-05 0)
(-0.550726 2.03513e-05 0)
(-0.550024 1.94305e-05 0)
(-0.549141 1.85183e-05 0)
(-0.548102 1.76233e-05 0)
(-0.546926 1.6751e-05 0)
(-0.545628 1.59048e-05 0)
(-0.544222 1.5087e-05 0)
(-0.542718 1.42988e-05 0)
(-0.541124 1.35408e-05 0)
(-0.53945 1.2813e-05 0)
(-0.537702 1.21153e-05 0)
(-0.535885 1.14473e-05 0)
(-0.534007 1.08083e-05 0)
(-0.532071 1.01976e-05 0)
(-0.530082 9.61453e-06 0)
(-0.528045 9.05821e-06 0)
(-0.525963 8.5278e-06 0)
(-0.52384 8.02244e-06 0)
(-0.52168 7.54125e-06 0)
(-0.519484 7.08338e-06 0)
(-0.517257 6.64798e-06 0)
(-0.515001 6.2342e-06 0)
(-0.512719 5.84123e-06 0)
(-0.510412 5.46827e-06 0)
(-0.508084 5.11454e-06 0)
(-0.505736 4.77931e-06 0)
(-0.503371 4.46185e-06 0)
(-0.500989 4.16148e-06 0)
(-0.498594 3.87751e-06 0)
(-0.496186 3.60934e-06 0)
(-0.493768 3.35634e-06 0)
(-0.491341 3.11794e-06 0)
(-0.488906 2.89358e-06 0)
(-0.486465 2.68272e-06 0)
(-0.483994 2.48282e-06 0)
(-0.481468 2.29194e-06 0)
(-0.478888 2.11022e-06 0)
(-0.476252 1.93773e-06 0)
(-0.47356 1.77451e-06 0)
(-0.470813 1.62053e-06 0)
(-0.468009 1.47568e-06 0)
(-0.465148 1.33981e-06 0)
(-0.462232 1.21269e-06 0)
(-0.459259 1.09403e-06 0)
(-0.45623 9.83527e-07 0)
(-0.453145 8.80832e-07 0)
(-0.450005 7.85617e-07 0)
(-0.44681 6.97568e-07 0)
(-0.443561 6.16412e-07 0)
(-0.440258 5.41918e-07 0)
(-0.436904 4.73891e-07 0)
(-0.433498 4.1216e-07 0)
(-0.430042 3.56542e-07 0)
(-0.426538 3.0682e-07 0)
(-0.422988 2.62718e-07 0)
(-0.419394 2.23895e-07 0)
(-0.415758 1.89953e-07 0)
(-0.412083 1.60453e-07 0)
(-0.408372 1.34944e-07 0)
(-0.404628 1.1298e-07 0)
(-0.400856 9.41467e-08 0)
(-0.397059 7.80562e-08 0)
(-0.393243 6.43809e-08 0)
(-0.389413 5.28055e-08 0)
(-0.385574 4.30764e-08 0)
(-0.381735 3.49528e-08 0)
(-0.377901 2.82993e-08 0)
(-0.374083 2.27808e-08 0)
(-0.370289 1.76404e-08 0)
(-0.36653 1.27077e-08 0)
(-0.362817 8.47141e-09 0)
(-0.359164 5.26488e-09 0)
(-0.355586 3.03125e-09 0)
(-0.352098 1.54499e-09 0)
(-0.348718 6.03011e-10 0)
(-0.345465 5.28325e-11 0)
(-0.342359 -2.26805e-10 0)
(-0.339422 -3.32206e-10 0)
(-0.336675 -3.32422e-10 0)
(-0.334142 -2.82684e-10 0)
(-0.331844 -2.11123e-10 0)
(-0.329799 -1.45524e-10 0)
(-0.328025 -8.6124e-11 0)
(-0.326531 -5.18116e-11 0)
(-0.325322 -9.70076e-13 0)
(-0.324395 2.774e-11 0)
(-0.323742 -3.15361e-12 0)
(-0.323347 -1.10907e-13 0)
(-0.32319 1.42229e-12 0)
(-0.32325 1.42251e-12 0)
(-0.323503 1.20524e-12 0)
(-0.323928 1.09881e-12 0)
(-0.324502 1.02888e-12 0)
(-0.325206 9.57448e-13 0)
(-0.326022 8.85434e-13 0)
(-0.326931 8.16711e-13 0)
(-0.327918 7.55842e-13 0)
(-0.328965 7.11947e-13 0)
(-0.330059 6.54106e-13 0)
(-0.331182 4.3191e-13 0)
(-0.332319 2.02032e-14 0)
(-0.333454 5.99425e-12 0)
(-0.334571 -1.69493e-11 0)
(-0.335651 3.91396e-11 0)
(-0.336674 -6.99067e-11 0)
(-0.337616 1.13407e-10 0)
(-0.338449 -1.65532e-10 0)
(-0.339136 2.2804e-10 0)
(-0.339528 -2.95244e-10 0)
(-0.339592 3.67649e-10 0)
(-0.339594 -4.40705e-10 0)
(-0.339594 5.16654e-10 0)
(-0.339594 -5.92849e-10 0)
(-0.339594 6.71837e-10 0)
(-0.339594 -7.51324e-10 0)
(-0.339594 8.33595e-10 0)
(-0.339594 -9.16586e-10 0)
(-0.339594 1.00234e-09 0)
(-0.339594 -1.08902e-09 0)
(-0.339594 1.17842e-09 0)
(-0.339594 -1.26891e-09 0)
(-0.339594 1.3621e-09 0)
(-0.339594 -1.45655e-09 0)
(-0.339594 1.55362e-09 0)
(-0.339594 -1.65211e-09 0)
(-0.339594 1.75312e-09 0)
(-0.339594 -1.85571e-09 0)
(-0.339594 1.9607e-09 0)
(-0.339594 -2.06742e-09 0)
(-0.339594 2.17641e-09 0)
(-0.339594 -2.28726e-09 0)
(-0.339594 2.40024e-09 0)
(-0.339594 -2.51514e-09 0)
(-0.339594 2.63211e-09 0)
(-0.339594 -2.75098e-09 0)
(-0.339594 2.87186e-09 0)
(-0.339594 -2.99461e-09 0)
(-0.339594 3.11927e-09 0)
(-0.339594 -3.24574e-09 0)
(-0.339594 3.37403e-09 0)
(-0.339594 -3.50404e-09 0)
(-0.339594 3.63572e-09 0)
(-0.339594 -3.76902e-09 0)
(-0.339594 3.42845e-09 0)
(-0.339594 -3.48553e-09 0)
(-0.339594 3.5419e-09 0)
(-0.339594 -3.59762e-09 0)
(-0.339594 3.65262e-09 0)
(-0.339594 -3.70697e-09 0)
(-0.339594 3.76058e-09 0)
(-0.339594 -3.81354e-09 0)
(-0.339594 3.86575e-09 0)
(-0.339594 -3.91731e-09 0)
(-0.339594 3.96809e-09 0)
(-0.339594 -4.01823e-09 0)
(-0.339594 4.06757e-09 0)
(-0.339594 -4.11625e-09 0)
(-0.339594 4.16412e-09 0)
(-0.339594 -4.21134e-09 0)
(-0.339594 4.25771e-09 0)
(-0.339594 -4.30343e-09 0)
(-0.339594 4.34825e-09 0)
(-0.339594 -4.39249e-09 0)
(-0.339594 4.43567e-09 0)
(-0.339594 -4.47844e-09 0)
(-0.339594 4.51993e-09 0)
(-0.339594 -4.56117e-09 0)
(-0.339594 4.60093e-09 0)
(-0.339594 -4.64057e-09 0)
(-0.339594 4.67858e-09 0)
(-0.339594 -4.71657e-09 0)
(-0.339594 4.75275e-09 0)
(-0.339594 -4.78899e-09 0)
(-0.339594 4.82332e-09 0)
(-0.339594 -4.85769e-09 0)
(-0.339594 4.89013e-09 0)
(-0.339594 -4.92246e-09 0)
(-0.339594 4.95298e-09 0)
(-0.339594 -4.98316e-09 0)
(-0.339594 5.01157e-09 0)
(-0.339594 -5.03942e-09 0)
(-0.339594 5.06575e-09 0)
(-0.339594 -5.09087e-09 0)
(-0.339594 5.1151e-09 0)
(-0.339594 -5.13699e-09 0)
(-0.339594 5.15916e-09 0)
(-0.339594 -5.1771e-09 0)
(-0.339594 5.19719e-09 0)
(-0.339594 -5.21034e-09 0)
(-0.339594 5.22785e-09 0)
(-0.339594 -5.23478e-09 0)
(-0.339594 5.24775e-09 0)
(-0.339594 -5.24827e-09 0)
)
;

boundaryField
{
    inandouthalf11
    {
        type            cyclic;
    }
    inandouthalf12
    {
        type            cyclic;
    }
    inandouthalf21
    {
        type            cyclic;
    }
    inandouthalf22
    {
        type            cyclic;
    }
    inandouthalf31
    {
        type            cyclic;
    }
    inandouthalf32
    {
        type            cyclic;
    }
    inandouthalf41
    {
        type            cyclic;
    }
    inandouthalf42
    {
        type            cyclic;
    }
    top
    {
        type            symmetryPlane;
    }
    walls
    {
        type            fixedValue;
        value           uniform (0 0 0);
    }
    frontAndBackPlanes
    {
        type            empty;
    }
}


// ************************************************************************* //
