/*--------------------------------*- C++ -*----------------------------------*\
| =========                 |                                                 |
| \\      /  F ield         | OpenFOAM: The Open Source CFD Toolbox           |
|  \\    /   O peration     | Version:  2.4.x                                 |
|   \\  /    A nd           | Web:      www.OpenFOAM.org                      |
|    \\/     M anipulation  |                                                 |
\*---------------------------------------------------------------------------*/
FoamFile
{
    version     2.0;
    format      ascii;
    class       volVectorField;
    location    "11";
    object      Ub_0;
}
// * * * * * * * * * * * * * * * * * * * * * * * * * * * * * * * * * * * * * //

dimensions      [0 1 -1 0 0 0 0];

internalField   nonuniform List<vector> 
360
(
(-0.000205549 3.75401e-09 0)
(-0.000204406 1.32779e-08 0)
(-0.000204254 2.44342e-08 0)
(-0.000204411 3.49662e-08 0)
(-0.000204487 4.54471e-08 0)
(-0.000204512 5.61328e-08 0)
(-0.000204544 6.68588e-08 0)
(-0.000204585 7.74759e-08 0)
(-0.000204626 8.79316e-08 0)
(-0.000204668 9.8211e-08 0)
(-0.00020471 1.08302e-07 0)
(-0.000204752 1.18187e-07 0)
(-0.000204794 1.27849e-07 0)
(-0.000204837 1.37279e-07 0)
(-0.00020488 1.46473e-07 0)
(-0.000204923 1.55433e-07 0)
(-0.000204967 1.64165e-07 0)
(-0.00020501 1.7268e-07 0)
(-0.000205055 1.80989e-07 0)
(-0.0002051 1.89105e-07 0)
(-0.000205144 1.97044e-07 0)
(-0.00020519 2.04822e-07 0)
(-0.000205236 2.12455e-07 0)
(-0.000205282 2.19959e-07 0)
(-0.000205329 2.27352e-07 0)
(-0.000205376 2.34649e-07 0)
(-0.000205424 2.41865e-07 0)
(-0.000205472 2.49015e-07 0)
(-0.000205521 2.56112e-07 0)
(-0.00020557 2.63169e-07 0)
(-0.00020562 2.70198e-07 0)
(-0.00020567 2.7721e-07 0)
(-0.00020572 2.84213e-07 0)
(-0.000205772 2.91219e-07 0)
(-0.000205824 2.98235e-07 0)
(-0.000205876 3.05268e-07 0)
(-0.000205929 3.12323e-07 0)
(-0.000205983 3.19408e-07 0)
(-0.000206037 3.26528e-07 0)
(-0.000206091 3.33685e-07 0)
(-0.000206147 3.40885e-07 0)
(-0.000206203 3.4813e-07 0)
(-0.000206259 3.55421e-07 0)
(-0.000206317 3.62762e-07 0)
(-0.000206375 3.70154e-07 0)
(-0.000206433 3.77597e-07 0)
(-0.000206493 3.85095e-07 0)
(-0.000206553 3.92642e-07 0)
(-0.000206613 4.00242e-07 0)
(-0.000206675 4.07895e-07 0)
(-0.000206737 4.15599e-07 0)
(-0.0002068 4.23353e-07 0)
(-0.000206864 4.31156e-07 0)
(-0.000206929 4.39009e-07 0)
(-0.000206994 4.46905e-07 0)
(-0.00020706 4.54849e-07 0)
(-0.000207127 4.62834e-07 0)
(-0.000207195 4.70861e-07 0)
(-0.000207264 4.78927e-07 0)
(-0.000207333 4.87026e-07 0)
(-0.000207404 4.95161e-07 0)
(-0.000207475 5.03326e-07 0)
(-0.000207547 5.11523e-07 0)
(-0.00020762 5.19747e-07 0)
(-0.000207695 5.27997e-07 0)
(-0.00020777 5.36268e-07 0)
(-0.000207846 5.44558e-07 0)
(-0.000207924 5.52865e-07 0)
(-0.000208002 5.61185e-07 0)
(-0.000208081 5.69513e-07 0)
(-0.000208162 5.77849e-07 0)
(-0.000208244 5.86192e-07 0)
(-0.000208326 5.94536e-07 0)
(-0.000208411 6.0288e-07 0)
(-0.000208496 6.1122e-07 0)
(-0.000208583 6.19558e-07 0)
(-0.000208671 6.27885e-07 0)
(-0.00020876 6.362e-07 0)
(-0.00020885 6.44499e-07 0)
(-0.000208943 6.52778e-07 0)
(-0.000209036 6.61034e-07 0)
(-0.000209131 6.69265e-07 0)
(-0.000209227 6.77468e-07 0)
(-0.000209326 6.85641e-07 0)
(-0.000209425 6.93782e-07 0)
(-0.000209527 7.01888e-07 0)
(-0.00020963 7.09957e-07 0)
(-0.000209735 7.17984e-07 0)
(-0.000209842 7.25965e-07 0)
(-0.00020995 7.33897e-07 0)
(-0.000210061 7.41776e-07 0)
(-0.000210173 7.49599e-07 0)
(-0.000210288 7.57363e-07 0)
(-0.000210405 7.65067e-07 0)
(-0.000210524 7.72707e-07 0)
(-0.000210646 7.80283e-07 0)
(-0.00021077 7.87791e-07 0)
(-0.000210896 7.95228e-07 0)
(-0.000211025 8.02593e-07 0)
(-0.000211157 8.09884e-07 0)
(-0.000211291 8.17099e-07 0)
(-0.000211429 8.24238e-07 0)
(-0.000211569 8.31301e-07 0)
(-0.000211712 8.38291e-07 0)
(-0.000211859 8.4521e-07 0)
(-0.000212009 8.52061e-07 0)
(-0.000212163 8.5885e-07 0)
(-0.00021232 8.65581e-07 0)
(-0.000212481 8.72259e-07 0)
(-0.000212647 8.7889e-07 0)
(-0.000212816 8.85477e-07 0)
(-0.00021299 8.92021e-07 0)
(-0.000213168 8.98523e-07 0)
(-0.000213351 9.04979e-07 0)
(-0.000213539 9.11382e-07 0)
(-0.000213732 9.17722e-07 0)
(-0.00021393 9.23986e-07 0)
(-0.000214135 9.30162e-07 0)
(-0.000214345 9.36238e-07 0)
(-0.000214562 9.42209e-07 0)
(-0.000214785 9.4808e-07 0)
(-0.000215016 9.53868e-07 0)
(-0.000215254 9.59612e-07 0)
(-0.0002155 9.65372e-07 0)
(-0.000215755 9.71235e-07 0)
(-0.000216019 9.77325e-07 0)
(-0.000216293 9.838e-07 0)
(-0.000216577 9.90863e-07 0)
(-0.000216872 9.98758e-07 0)
(-0.00021718 1.00775e-06 0)
(-0.000217502 1.01808e-06 0)
(-0.000217836 1.02988e-06 0)
(-0.000218187 1.04306e-06 0)
(-0.000218557 1.05717e-06 0)
(-0.000218951 1.07127e-06 0)
(-0.000219369 1.08401e-06 0)
(-0.000219812 1.09393e-06 0)
(-0.000220283 1.10014e-06 0)
(-0.000220807 1.10282e-06 0)
(-0.000221404 1.10306e-06 0)
(-0.00022205 1.10188e-06 0)
(-0.000222812 1.09206e-06 0)
(-0.000228128 1.09966e-06 0)
(-0.000227335 1.08986e-06 0)
(-0.000228312 1.09299e-06 0)
(-0.000229934 1.05324e-06 0)
(-0.000231485 1.58791e-06 0)
(-0.000233461 -9.89084e-07 0)
(-0.000434182 9.00406e-06 0)
(-0.0698286 -9.6299e-05 0)
(-0.207503 -0.000505714 0)
(-0.300277 -0.000267009 0)
(-0.369177 -0.000243845 0)
(-0.421692 -0.000154143 0)
(-0.461553 -8.64561e-05 0)
(-0.490966 -3.76698e-05 0)
(-0.511762 -6.62505e-06 0)
(-0.525886 1.05483e-05 0)
(-0.535252 1.88444e-05 0)
(-0.541416 2.25826e-05 0)
(-0.545468 2.40841e-05 0)
(-0.548109 2.44767e-05 0)
(-0.549779 2.42758e-05 0)
(-0.550757 2.3739e-05 0)
(-0.551223 2.301e-05 0)
(-0.551296 2.21735e-05 0)
(-0.551057 2.12807e-05 0)
(-0.550565 2.03633e-05 0)
(-0.549861 1.94416e-05 0)
(-0.548977 1.85286e-05 0)
(-0.547937 1.76328e-05 0)
(-0.54676 1.67598e-05 0)
(-0.545462 1.5913e-05 0)
(-0.544054 1.50947e-05 0)
(-0.542549 1.43059e-05 0)
(-0.540955 1.35474e-05 0)
(-0.53928 1.28191e-05 0)
(-0.53753 1.2121e-05 0)
(-0.535713 1.14525e-05 0)
(-0.533834 1.08131e-05 0)
(-0.531897 1.02021e-05 0)
(-0.529908 9.61869e-06 0)
(-0.52787 9.06206e-06 0)
(-0.525787 8.53135e-06 0)
(-0.523663 8.02571e-06 0)
(-0.521502 7.54427e-06 0)
(-0.519306 7.08615e-06 0)
(-0.517078 6.65052e-06 0)
(-0.514822 6.23653e-06 0)
(-0.512538 5.84336e-06 0)
(-0.510231 5.47022e-06 0)
(-0.507902 5.11632e-06 0)
(-0.505554 4.78094e-06 0)
(-0.503187 4.46333e-06 0)
(-0.500805 4.16281e-06 0)
(-0.498409 3.87873e-06 0)
(-0.496001 3.61043e-06 0)
(-0.493582 3.35733e-06 0)
(-0.491155 3.11883e-06 0)
(-0.488719 2.89438e-06 0)
(-0.486278 2.68343e-06 0)
(-0.483806 2.48345e-06 0)
(-0.48128 2.29251e-06 0)
(-0.478699 2.11072e-06 0)
(-0.476062 1.93817e-06 0)
(-0.47337 1.77489e-06 0)
(-0.470622 1.62086e-06 0)
(-0.467817 1.47597e-06 0)
(-0.464956 1.34006e-06 0)
(-0.462039 1.2129e-06 0)
(-0.459066 1.09421e-06 0)
(-0.456036 9.83676e-07 0)
(-0.452951 8.80956e-07 0)
(-0.44981 7.85718e-07 0)
(-0.446615 6.97649e-07 0)
(-0.443365 6.16476e-07 0)
(-0.440062 5.41966e-07 0)
(-0.436707 4.73926e-07 0)
(-0.4333 4.12183e-07 0)
(-0.429844 3.56556e-07 0)
(-0.42634 3.06826e-07 0)
(-0.42279 2.62718e-07 0)
(-0.419195 2.23891e-07 0)
(-0.415558 1.89945e-07 0)
(-0.411883 1.60444e-07 0)
(-0.408172 1.34933e-07 0)
(-0.404428 1.12969e-07 0)
(-0.400655 9.41357e-08 0)
(-0.396858 7.80458e-08 0)
(-0.393041 6.43713e-08 0)
(-0.38921 5.27969e-08 0)
(-0.385372 4.30688e-08 0)
(-0.381532 3.49463e-08 0)
(-0.377698 2.82937e-08 0)
(-0.37388 2.27765e-08 0)
(-0.370085 1.76376e-08 0)
(-0.366326 1.27054e-08 0)
(-0.362613 8.46875e-09 0)
(-0.35896 5.2621e-09 0)
(-0.355382 3.0287e-09 0)
(-0.351894 1.54283e-09 0)
(-0.348515 6.01281e-10 0)
(-0.345262 5.15149e-11 0)
(-0.342156 -2.27753e-10 0)
(-0.339219 -3.32846e-10 0)
(-0.336473 -3.32823e-10 0)
(-0.33394 -2.82916e-10 0)
(-0.331642 -2.11241e-10 0)
(-0.329599 -1.45575e-10 0)
(-0.327825 -8.61417e-11 0)
(-0.326331 -5.18107e-11 0)
(-0.325123 -9.71445e-13 0)
(-0.324197 2.77308e-11 0)
(-0.323545 -3.16575e-12 0)
(-0.32315 -1.16701e-13 0)
(-0.322994 1.42e-12 0)
(-0.323054 1.42313e-12 0)
(-0.323308 1.20836e-12 0)
(-0.323733 1.10389e-12 0)
(-0.324308 1.03518e-12 0)
(-0.325012 9.64585e-13 0)
(-0.325828 8.93045e-13 0)
(-0.326737 8.24256e-13 0)
(-0.327724 7.62936e-13 0)
(-0.328772 7.19531e-13 0)
(-0.329866 6.62988e-13 0)
(-0.330989 4.41846e-13 0)
(-0.332126 2.91521e-14 0)
(-0.333262 6.01061e-12 0)
(-0.334378 -1.69497e-11 0)
(-0.335458 3.91695e-11 0)
(-0.336481 -6.99245e-11 0)
(-0.337423 1.13453e-10 0)
(-0.338256 -1.65568e-10 0)
(-0.338943 2.28102e-10 0)
(-0.339335 -2.95294e-10 0)
(-0.339399 3.67721e-10 0)
(-0.3394 -4.40765e-10 0)
(-0.3394 5.16734e-10 0)
(-0.3394 -5.92919e-10 0)
(-0.3394 6.71923e-10 0)
(-0.3394 -7.51403e-10 0)
(-0.3394 8.3369e-10 0)
(-0.3394 -9.16675e-10 0)
(-0.3394 1.00244e-09 0)
(-0.3394 -1.08912e-09 0)
(-0.3394 1.17853e-09 0)
(-0.3394 -1.26902e-09 0)
(-0.3394 1.36223e-09 0)
(-0.3394 -1.45667e-09 0)
(-0.3394 1.55375e-09 0)
(-0.3394 -1.65225e-09 0)
(-0.3394 1.75326e-09 0)
(-0.3394 -1.85586e-09 0)
(-0.3394 1.96086e-09 0)
(-0.3394 -2.06758e-09 0)
(-0.3394 2.17658e-09 0)
(-0.3394 -2.28743e-09 0)
(-0.3394 2.40043e-09 0)
(-0.3394 -2.51531e-09 0)
(-0.3394 2.63231e-09 0)
(-0.3394 -2.75117e-09 0)
(-0.3394 2.87208e-09 0)
(-0.3394 -2.9948e-09 0)
(-0.3394 3.1195e-09 0)
(-0.3394 -3.24595e-09 0)
(-0.3394 3.37428e-09 0)
(-0.3394 -3.50425e-09 0)
(-0.3394 3.636e-09 0)
(-0.3394 -3.76924e-09 0)
(-0.3394 3.42871e-09 0)
(-0.3394 -3.48573e-09 0)
(-0.3394 3.54216e-09 0)
(-0.3394 -3.59782e-09 0)
(-0.3394 3.65289e-09 0)
(-0.3394 -3.70717e-09 0)
(-0.3394 3.76086e-09 0)
(-0.3394 -3.81375e-09 0)
(-0.3394 3.86603e-09 0)
(-0.3394 -3.91752e-09 0)
(-0.3394 3.96838e-09 0)
(-0.3394 -4.01844e-09 0)
(-0.3394 4.06786e-09 0)
(-0.3394 -4.11647e-09 0)
(-0.3394 4.16443e-09 0)
(-0.3394 -4.21156e-09 0)
(-0.3394 4.25802e-09 0)
(-0.3394 -4.30364e-09 0)
(-0.3394 4.3486e-09 0)
(-0.3394 -4.39265e-09 0)
(-0.3394 4.43609e-09 0)
(-0.3394 -4.47852e-09 0)
(-0.3394 4.52043e-09 0)
(-0.3394 -4.56118e-09 0)
(-0.3394 4.60151e-09 0)
(-0.3394 -4.64052e-09 0)
(-0.3394 4.67924e-09 0)
(-0.3394 -4.71644e-09 0)
(-0.3394 4.75349e-09 0)
(-0.3394 -4.78879e-09 0)
(-0.3394 4.82413e-09 0)
(-0.3394 -4.85743e-09 0)
(-0.3394 4.891e-09 0)
(-0.3394 -4.92214e-09 0)
(-0.3394 4.95392e-09 0)
(-0.3394 -4.98274e-09 0)
(-0.3394 5.01263e-09 0)
(-0.3394 -5.03893e-09 0)
(-0.3394 5.06686e-09 0)
(-0.3394 -5.09037e-09 0)
(-0.3394 5.11617e-09 0)
(-0.3394 -5.13657e-09 0)
(-0.3394 5.16011e-09 0)
(-0.3394 -5.17691e-09 0)
(-0.3394 5.19784e-09 0)
(-0.3394 -5.21038e-09 0)
(-0.3394 5.22811e-09 0)
(-0.3394 -5.23523e-09 0)
(-0.3394 5.24864e-09 0)
(-0.3394 -5.24803e-09 0)
)
;

boundaryField
{
    inandouthalf11
    {
        type            cyclic;
    }
    inandouthalf12
    {
        type            cyclic;
    }
    inandouthalf21
    {
        type            cyclic;
    }
    inandouthalf22
    {
        type            cyclic;
    }
    inandouthalf31
    {
        type            cyclic;
    }
    inandouthalf32
    {
        type            cyclic;
    }
    inandouthalf41
    {
        type            cyclic;
    }
    inandouthalf42
    {
        type            cyclic;
    }
    top
    {
        type            symmetryPlane;
    }
    walls
    {
        type            fixedValue;
        value           uniform (0 0 0);
    }
    frontAndBackPlanes
    {
        type            empty;
    }
}


// ************************************************************************* //
