/*--------------------------------*- C++ -*----------------------------------*\
| =========                 |                                                 |
| \\      /  F ield         | OpenFOAM: The Open Source CFD Toolbox           |
|  \\    /   O peration     | Version:  2.4.x                                 |
|   \\  /    A nd           | Web:      www.OpenFOAM.org                      |
|    \\/     M anipulation  |                                                 |
\*---------------------------------------------------------------------------*/
FoamFile
{
    version     2.0;
    format      ascii;
    class       volVectorField;
    location    "11";
    object      Ur;
}
// * * * * * * * * * * * * * * * * * * * * * * * * * * * * * * * * * * * * * //

dimensions      [0 1 -1 0 0 0 0];

internalField   nonuniform List<vector> 
360
(
(-0.000205512 3.75336e-09 0)
(-0.000204366 2.21708e-08 0)
(-0.000204212 4.03445e-08 0)
(-0.000204366 5.71176e-08 0)
(-0.000204439 7.42014e-08 0)
(-0.000204462 9.17459e-08 0)
(-0.000204492 1.09312e-07 0)
(-0.000204529 1.26673e-07 0)
(-0.000204568 1.43771e-07 0)
(-0.000204608 1.60584e-07 0)
(-0.000204647 1.77091e-07 0)
(-0.000204687 1.93262e-07 0)
(-0.000204727 2.0907e-07 0)
(-0.000204767 2.24498e-07 0)
(-0.000204807 2.3954e-07 0)
(-0.000204849 2.542e-07 0)
(-0.00020489 2.68489e-07 0)
(-0.000204932 2.82423e-07 0)
(-0.000204974 2.96021e-07 0)
(-0.000205017 3.09306e-07 0)
(-0.00020506 3.22301e-07 0)
(-0.000205104 3.35033e-07 0)
(-0.000205148 3.47529e-07 0)
(-0.000205192 3.59817e-07 0)
(-0.000205237 3.71923e-07 0)
(-0.000205283 3.83874e-07 0)
(-0.000205328 3.95693e-07 0)
(-0.000205375 4.07405e-07 0)
(-0.000205422 4.19032e-07 0)
(-0.000205469 4.30596e-07 0)
(-0.000205517 4.42114e-07 0)
(-0.000205566 4.53606e-07 0)
(-0.000205614 4.65085e-07 0)
(-0.000205664 4.7657e-07 0)
(-0.000205714 4.88072e-07 0)
(-0.000205765 4.99604e-07 0)
(-0.000205816 5.11174e-07 0)
(-0.000205868 5.22793e-07 0)
(-0.000205921 5.34472e-07 0)
(-0.000205973 5.46213e-07 0)
(-0.000206027 5.58025e-07 0)
(-0.000206081 5.69913e-07 0)
(-0.000206136 5.81878e-07 0)
(-0.000206192 5.93926e-07 0)
(-0.000206248 6.06059e-07 0)
(-0.000206304 6.1828e-07 0)
(-0.000206362 6.30589e-07 0)
(-0.00020642 6.42983e-07 0)
(-0.000206479 6.55462e-07 0)
(-0.000206539 6.68032e-07 0)
(-0.000206599 6.80688e-07 0)
(-0.00020666 6.93427e-07 0)
(-0.000206721 7.06249e-07 0)
(-0.000206784 7.19152e-07 0)
(-0.000206847 7.32132e-07 0)
(-0.000206912 7.45189e-07 0)
(-0.000206976 7.58318e-07 0)
(-0.000207042 7.71516e-07 0)
(-0.000207109 7.8478e-07 0)
(-0.000207176 7.98103e-07 0)
(-0.000207245 8.11484e-07 0)
(-0.000207314 8.2492e-07 0)
(-0.000207385 8.38409e-07 0)
(-0.000207456 8.51945e-07 0)
(-0.000207528 8.65525e-07 0)
(-0.000207601 8.79143e-07 0)
(-0.000207675 8.92795e-07 0)
(-0.00020775 9.06478e-07 0)
(-0.000207827 9.20186e-07 0)
(-0.000207904 9.33909e-07 0)
(-0.000207982 9.47647e-07 0)
(-0.000208062 9.61401e-07 0)
(-0.000208142 9.75159e-07 0)
(-0.000208225 9.8892e-07 0)
(-0.000208308 1.00268e-06 0)
(-0.000208393 1.01644e-06 0)
(-0.000208478 1.03018e-06 0)
(-0.000208565 1.04391e-06 0)
(-0.000208654 1.05761e-06 0)
(-0.000208744 1.07129e-06 0)
(-0.000208835 1.08493e-06 0)
(-0.000208928 1.09853e-06 0)
(-0.000209023 1.1121e-06 0)
(-0.000209119 1.12561e-06 0)
(-0.000209216 1.13908e-06 0)
(-0.000209316 1.1525e-06 0)
(-0.000209417 1.16586e-06 0)
(-0.00020952 1.17915e-06 0)
(-0.000209624 1.19238e-06 0)
(-0.000209731 1.20552e-06 0)
(-0.000209839 1.21859e-06 0)
(-0.00020995 1.23157e-06 0)
(-0.000210063 1.24445e-06 0)
(-0.000210178 1.25725e-06 0)
(-0.000210295 1.26994e-06 0)
(-0.000210414 1.28253e-06 0)
(-0.000210536 1.29502e-06 0)
(-0.000210661 1.3074e-06 0)
(-0.000210788 1.31966e-06 0)
(-0.000210918 1.33181e-06 0)
(-0.00021105 1.34384e-06 0)
(-0.000211186 1.35575e-06 0)
(-0.000211324 1.36754e-06 0)
(-0.000211466 1.37922e-06 0)
(-0.000211611 1.39079e-06 0)
(-0.000211759 1.40226e-06 0)
(-0.000211911 1.41363e-06 0)
(-0.000212066 1.42491e-06 0)
(-0.000212226 1.43611e-06 0)
(-0.000212389 1.44725e-06 0)
(-0.000212556 1.45832e-06 0)
(-0.000212728 1.46933e-06 0)
(-0.000212905 1.48028e-06 0)
(-0.000213086 1.49117e-06 0)
(-0.000213272 1.50198e-06 0)
(-0.000213463 1.5127e-06 0)
(-0.00021366 1.5233e-06 0)
(-0.000213863 1.53377e-06 0)
(-0.000214071 1.54408e-06 0)
(-0.000214287 1.55424e-06 0)
(-0.000214508 1.56424e-06 0)
(-0.000214737 1.57411e-06 0)
(-0.000214974 1.58393e-06 0)
(-0.000215218 1.59378e-06 0)
(-0.000215471 1.60381e-06 0)
(-0.000215733 1.61423e-06 0)
(-0.000216005 1.62529e-06 0)
(-0.000216287 1.63735e-06 0)
(-0.00021658 1.65079e-06 0)
(-0.000216886 1.66607e-06 0)
(-0.000217204 1.68361e-06 0)
(-0.000217535 1.70366e-06 0)
(-0.000217882 1.72608e-06 0)
(-0.000218247 1.75016e-06 0)
(-0.000218637 1.77437e-06 0)
(-0.000219052 1.79641e-06 0)
(-0.000219491 1.81374e-06 0)
(-0.000219961 1.82478e-06 0)
(-0.000220483 1.8299e-06 0)
(-0.00022108 1.83102e-06 0)
(-0.000221726 1.83007e-06 0)
(-0.000222487 1.8203e-06 0)
(-0.000227803 1.82802e-06 0)
(-0.000227008 1.82063e-06 0)
(-0.000227983 1.82582e-06 0)
(-0.000229601 1.78881e-06 0)
(-0.000231142 2.32578e-06 0)
(-0.000233085 -2.38504e-07 0)
(-0.000433732 9.72936e-06 0)
(-0.00877587 -0.000223675 0)
(-0.0181689 -0.00224567 0)
(-0.0157023 -0.00263759 0)
(-0.0152204 -0.00301183 0)
(-0.0164376 -0.00309406 0)
(-0.0187274 -0.00285401 0)
(-0.0211423 -0.00210807 0)
(-0.0227733 -0.000719431 0)
(-0.023231 0.00121618 0)
(-0.0226988 0.00338612 0)
(-0.0215933 0.00549514 0)
(-0.0202728 0.00739692 0)
(-0.0189568 0.00905751 0)
(-0.0177544 0.0104868 0)
(-0.016709 0.0117067 0)
(-0.0158288 0.0127414 0)
(-0.0151054 0.0136142 0)
(-0.014523 0.0143461 0)
(-0.0140636 0.0149555 0)
(-0.0137098 0.0154583 0)
(-0.0134454 0.0158681 0)
(-0.0132561 0.0161966 0)
(-0.0131294 0.0164539 0)
(-0.0130543 0.0166487 0)
(-0.0130218 0.0167884 0)
(-0.0130238 0.0168793 0)
(-0.0130534 0.0169271 0)
(-0.0131046 0.0169366 0)
(-0.0131725 0.016912 0)
(-0.0132523 0.016857 0)
(-0.01334 0.016775 0)
(-0.0134322 0.0166688 0)
(-0.0135254 0.0165409 0)
(-0.0136167 0.0163936 0)
(-0.0137032 0.0162291 0)
(-0.0137824 0.0160492 0)
(-0.0138518 0.0158556 0)
(-0.0139088 0.0156498 0)
(-0.0139511 0.0154333 0)
(-0.0139764 0.0152075 0)
(-0.0139824 0.0149735 0)
(-0.0139667 0.0147327 0)
(-0.0139271 0.0144861 0)
(-0.0138613 0.014235 0)
(-0.013767 0.0139803 0)
(-0.0136417 0.0137232 0)
(-0.0134831 0.0134648 0)
(-0.0132888 0.013206 0)
(-0.0130564 0.0129478 0)
(-0.0127834 0.0126913 0)
(-0.0124674 0.0124372 0)
(-0.0121058 0.0121864 0)
(-0.0116925 0.0119371 0)
(-0.0112208 0.0116874 0)
(-0.010688 0.0114381 0)
(-0.0100914 0.0111896 0)
(-0.00942797 0.0109423 0)
(-0.0086946 0.0106964 0)
(-0.00788819 0.0104517 0)
(-0.00700556 0.0102081 0)
(-0.00604357 0.00996507 0)
(-0.00499913 0.00972206 0)
(-0.00386925 0.00947839 0)
(-0.00265112 0.00923335 0)
(-0.00134211 0.00898634 0)
(6.00805e-05 0.00873695 0)
(0.00155747 0.00848512 0)
(0.00315173 0.00823117 0)
(0.00484413 0.0079759 0)
(0.00663562 0.0077205 0)
(0.00852678 0.00746643 0)
(0.0105179 0.00721523 0)
(0.0126088 0.00696832 0)
(0.014799 0.00672693 0)
(0.0170878 0.00649199 0)
(0.0194741 0.00626419 0)
(0.0219563 0.006044 0)
(0.0245326 0.00583179 0)
(0.0272009 0.00562782 0)
(0.0299587 0.00543227 0)
(0.0328035 0.00524564 0)
(0.0357335 0.00506773 0)
(0.0387465 0.00489974 0)
(0.0418437 0.0047406 0)
(0.0450268 0.00459344 0)
(0.0483061 0.00445312 0)
(0.0516943 0.00433005 0)
(0.0550104 0.0042195 0)
(-0.00633791 0.00290625 0)
(-0.00627544 0.0027167 0)
(-0.00628452 0.00190711 0)
(-0.00627794 0.00132084 0)
(-0.00626573 0.00071136 0)
(-0.00624663 0.000125187 0)
(-0.00622158 -0.000403913 0)
(-0.00619019 -0.000965187 0)
(-0.00616058 -0.00127731 0)
(-0.00611225 -0.0020098 0)
(-0.00610088 -0.00173847 0)
(-0.00602369 -0.00299871 0)
(-0.00605209 -0.00183538 0)
(-0.00593339 -0.00341912 0)
(-0.00592886 -0.00343444 0)
(-0.00460495 0.0251016 0)
(-0.00410138 0.0395621 0)
(-0.00406538 0.0395538 0)
(-0.00400783 0.0395481 0)
(-0.00396555 0.0395424 0)
(-0.00392263 0.0395384 0)
(-0.00388647 0.0395353 0)
(-0.00385599 0.039533 0)
(-0.00383065 0.0395314 0)
(-0.00380993 0.0395303 0)
(-0.00379339 0.0395297 0)
(-0.00378067 0.0395293 0)
(-0.00377148 0.0395292 0)
(-0.00376558 0.0395292 0)
(-0.00376277 0.0395291 0)
(-0.00376294 0.0395291 0)
(-0.003766 0.0395289 0)
(-0.00377195 0.0395284 0)
(-0.00378089 0.0395277 0)
(-0.00379306 0.0395266 0)
(-0.00380886 0.0395249 0)
(-0.00382747 0.0395223 0)
(-0.00385262 0.039517 0)
(-0.00391901 0.0395093 0)
(-0.00393294 0.0395051 0)
(-0.00393338 0.0395045 0)
(-0.00393338 0.0395045 0)
(-0.00393338 0.0395045 0)
(-0.00393338 0.0395045 0)
(-0.00393338 0.0395045 0)
(-0.00393338 0.0395045 0)
(-0.00393338 0.0395045 0)
(-0.00393338 0.0395045 0)
(-0.00393338 0.0395045 0)
(-0.00393338 0.0395045 0)
(-0.00393338 0.0395045 0)
(-0.00393338 0.0395045 0)
(-0.00393338 0.0395045 0)
(-0.00393338 0.0395045 0)
(-0.00393338 0.0395045 0)
(-0.00393338 0.0395045 0)
(-0.00393338 0.0395045 0)
(-0.00393338 0.0395045 0)
(-0.00393338 0.0395045 0)
(-0.00393338 0.0395045 0)
(-0.00393338 0.0395045 0)
(-0.00393338 0.0395045 0)
(-0.00393338 0.0395045 0)
(-0.00393338 0.0395045 0)
(-0.00393338 0.0395045 0)
(-0.00393338 0.0395045 0)
(-0.00393338 0.0395045 0)
(-0.00393338 0.0395045 0)
(-0.00393338 0.0395045 0)
(-0.00393338 0.0395045 0)
(-0.00393338 0.0395045 0)
(-0.00393338 0.0395045 0)
(-0.00393338 0.0395045 0)
(-0.00393338 0.0395045 0)
(-0.00393338 0.0395045 0)
(-0.00393338 0.0395045 0)
(-0.00393338 0.0395045 0)
(-0.00393338 0.0395045 0)
(-0.00393338 0.0395045 0)
(-0.00393338 0.0395045 0)
(-0.00393338 0.0395045 0)
(-0.00393338 0.0395045 0)
(-0.00393338 0.0395045 0)
(-0.00393338 0.0395045 0)
(-0.00393338 0.0395045 0)
(-0.00393338 0.0395045 0)
(-0.00393338 0.0395045 0)
(-0.00393338 0.0395045 0)
(-0.00393338 0.0395045 0)
(-0.00393338 0.0395045 0)
(-0.00393338 0.0395045 0)
(-0.00393338 0.0395045 0)
(-0.00393338 0.0395045 0)
(-0.00393338 0.0395045 0)
(-0.00393338 0.0395045 0)
(-0.00393338 0.0395045 0)
(-0.00393338 0.0395045 0)
(-0.00393338 0.0395045 0)
(-0.00393338 0.0395045 0)
(-0.00393338 0.0395045 0)
(-0.00393338 0.0395045 0)
(-0.00393338 0.0395045 0)
(-0.00393338 0.0395045 0)
(-0.00393338 0.0395045 0)
(-0.00393338 0.0395045 0)
(-0.00393338 0.0395045 0)
(-0.00393338 0.0395045 0)
(-0.00393338 0.0395045 0)
(-0.00393338 0.0395045 0)
(-0.00393338 0.0395045 0)
(-0.00393338 0.0395045 0)
(-0.00393338 0.0395045 0)
(-0.00393338 0.0395045 0)
(-0.00393338 0.0395045 0)
(-0.00393338 0.0395045 0)
(-0.00393338 0.0395045 0)
(-0.00393338 0.0395045 0)
(-0.00393338 0.0395045 0)
(-0.00393338 0.0395044 0)
(-0.00393343 0.0395042 0)
(-0.00393454 0.0394958 0)
(-0.00396176 0.0391501 0)
(-0.00459005 0.02241 0)
)
;

boundaryField
{
    inandouthalf11
    {
        type            cyclic;
    }
    inandouthalf12
    {
        type            cyclic;
    }
    inandouthalf21
    {
        type            cyclic;
    }
    inandouthalf22
    {
        type            cyclic;
    }
    inandouthalf31
    {
        type            cyclic;
    }
    inandouthalf32
    {
        type            cyclic;
    }
    inandouthalf41
    {
        type            cyclic;
    }
    inandouthalf42
    {
        type            cyclic;
    }
    top
    {
        type            symmetryPlane;
    }
    walls
    {
        type            calculated;
        value           uniform (0 0 0);
    }
    frontAndBackPlanes
    {
        type            empty;
    }
}


// ************************************************************************* //
