/*--------------------------------*- C++ -*----------------------------------*\
| =========                 |                                                 |
| \\      /  F ield         | OpenFOAM: The Open Source CFD Toolbox           |
|  \\    /   O peration     | Version:  2.4.x                                 |
|   \\  /    A nd           | Web:      www.OpenFOAM.org                      |
|    \\/     M anipulation  |                                                 |
\*---------------------------------------------------------------------------*/
FoamFile
{
    version     2.0;
    format      ascii;
    class       volScalarField;
    location    "7.85";
    object      alpha_0;
}
// * * * * * * * * * * * * * * * * * * * * * * * * * * * * * * * * * * * * * //

dimensions      [0 0 0 0 0 0 0];

internalField   nonuniform List<scalar> 
360
(
0.610822
0.611653
0.611751
0.611664
0.611619
0.611603
0.611586
0.611563
0.61154
0.611517
0.611494
0.61147
0.611446
0.611423
0.611399
0.611374
0.61135
0.611325
0.6113
0.611275
0.61125
0.611225
0.611199
0.611173
0.611146
0.61112
0.611093
0.611066
0.611039
0.611012
0.610984
0.610956
0.610927
0.610899
0.61087
0.61084
0.610811
0.610781
0.610751
0.610721
0.61069
0.610659
0.610627
0.610595
0.610563
0.610531
0.610498
0.610465
0.610431
0.610397
0.610363
0.610328
0.610293
0.610257
0.610221
0.610184
0.610148
0.61011
0.610072
0.610034
0.609995
0.609956
0.609916
0.609876
0.609835
0.609794
0.609752
0.609709
0.609666
0.609623
0.609579
0.609533
0.609488
0.609442
0.609395
0.609348
0.609299
0.609251
0.609201
0.60915
0.609099
0.609047
0.608994
0.608941
0.608886
0.60883
0.608774
0.608716
0.608658
0.608598
0.608538
0.608476
0.608413
0.608349
0.608284
0.608217
0.608149
0.60808
0.608009
0.607937
0.607863
0.607787
0.60771
0.607632
0.607551
0.607469
0.607384
0.607298
0.607209
0.607119
0.607025
0.60693
0.606832
0.606731
0.606628
0.606521
0.606412
0.606299
0.606184
0.606064
0.605941
0.605815
0.605684
0.605549
0.605409
0.605265
0.605116
0.60496
0.604799
0.604631
0.604456
0.604273
0.604082
0.603881
0.603668
0.603442
0.603206
0.602956
0.602679
0.602362
0.60202
0.60169
0.601293
0.600781
0.600142
0.598909
0.596877
0.59609
0.589863
0.321192
0.179454
0.123153
0.0849313
0.0563314
0.0356622
0.0216824
0.0128669
0.00763093
0.00465103
0.00299689
0.00207446
0.00153481
0.00119504
0.000965786
0.000802313
0.000680573
0.000586734
0.000512369
0.000452087
0.000402295
0.000360513
0.00032498
0.000294409
0.000267845
0.00024456
0.000223994
0.000205708
0.000189353
0.00017465
0.00016137
0.000149327
0.000138367
0.000128359
0.000119195
0.000110781
0.000103038
9.58963e-05
8.92956e-05
8.31838e-05
7.75146e-05
7.22473e-05
6.73457e-05
6.27772e-05
5.85123e-05
5.45242e-05
5.07883e-05
4.72821e-05
4.39851e-05
4.08785e-05
3.79463e-05
3.51755e-05
3.25288e-05
2.99776e-05
2.75206e-05
2.51588e-05
2.28948e-05
2.07334e-05
1.86802e-05
1.67409e-05
1.49207e-05
1.32246e-05
1.1656e-05
1.02189e-05
8.91447e-06
7.73827e-06
6.68469e-06
5.75048e-06
4.92784e-06
4.20551e-06
3.57436e-06
3.02614e-06
2.55388e-06
2.14768e-06
1.79804e-06
1.50037e-06
1.24746e-06
1.03239e-06
8.504e-07
6.9705e-07
5.67864e-07
4.60247e-07
3.69361e-07
2.98073e-07
2.39805e-07
1.91564e-07
1.26558e-07
8.74542e-08
6.87317e-08
4.53377e-08
3.25187e-08
1.78087e-08
1.14606e-08
2.62045e-09
7.22999e-20
9.41936e-31
1.84583e-39
1.21279e-39
4.36228e-40
2.19225e-40
1.27969e-40
8.37398e-41
5.98705e-41
4.16636e-41
2.24268e-41
9.60125e-42
4.87173e-42
2.73018e-42
1.64171e-42
9.85417e-43
4.82831e-43
2.33892e-43
1.21403e-43
6.41903e-44
3.26729e-44
1.61781e-44
8.01934e-45
3.91142e-45
1.87558e-45
8.83705e-46
4.08886e-46
1.85679e-46
8.27017e-47
3.61055e-47
1.54396e-47
6.46227e-48
2.64533e-48
1.05819e-48
4.13294e-49
1.57456e-49
5.84567e-50
2.11264e-50
7.42406e-51
2.5337e-51
8.38689e-52
2.68885e-52
8.3367e-53
2.49555e-53
7.19954e-54
1.99783e-54
5.32102e-55
1.35702e-55
3.30517e-56
7.6657e-57
1.68749e-57
3.51291e-58
6.88665e-59
1.26527e-59
2.16662e-60
3.43544e-61
5.0053e-62
6.63863e-63
7.92402e-64
8.38973e-65
7.7323e-66
6.04709e-67
3.86884e-68
1.91298e-69
6.60812e-71
1.26461e-72
3.49556e-75
5.53191e-80
4.71706e-82
1.99436e-84
6.89996e-95
1.19285e-105
1.49489e-116
1.34492e-127
1.03845e-138
6.05143e-150
3.05675e-161
2.34346e-171
1.00538e-181
7.69689e-190
2.97588e-200
2.64744e-208
1.20219e-218
9.10962e-227
5.07782e-237
3.13703e-245
3.22785e-255
1.09829e-263
2.12545e-273
3.93693e-282
1.05011e-291
1.44189e-300
5.01447e-310
1.76408e-318
8.52757e-321
4.57737e-319
2.8055e-319
6.80328e-321
7.09478e-321
6.08689e-321
8.5424e-321
0
0
0
0
0
0
0
0
0
0
0
0
0
0
0
0
)
;

boundaryField
{
    inandouthalf11
    {
        type            cyclic;
    }
    inandouthalf12
    {
        type            cyclic;
    }
    inandouthalf21
    {
        type            cyclic;
    }
    inandouthalf22
    {
        type            cyclic;
    }
    inandouthalf31
    {
        type            cyclic;
    }
    inandouthalf32
    {
        type            cyclic;
    }
    inandouthalf41
    {
        type            cyclic;
    }
    inandouthalf42
    {
        type            cyclic;
    }
    top
    {
        type            symmetryPlane;
    }
    walls
    {
        type            zeroGradient;
    }
    frontAndBackPlanes
    {
        type            empty;
    }
}


// ************************************************************************* //
