/*--------------------------------*- C++ -*----------------------------------*\
| =========                 |                                                 |
| \\      /  F ield         | OpenFOAM: The Open Source CFD Toolbox           |
|  \\    /   O peration     | Version:  2.4.x                                 |
|   \\  /    A nd           | Web:      www.OpenFOAM.org                      |
|    \\/     M anipulation  |                                                 |
\*---------------------------------------------------------------------------*/
FoamFile
{
    version     2.0;
    format      ascii;
    class       surfaceScalarField;
    location    "7.85";
    object      ddt0(phia);
}
// * * * * * * * * * * * * * * * * * * * * * * * * * * * * * * * * * * * * * //

dimensions      [0 3 -2 0 0 0 0];

internalField   nonuniform List<scalar> 
359
(
8.57298e-14
2.18663e-13
3.26386e-13
4.14839e-13
4.9743e-13
5.77279e-13
6.54306e-13
7.28899e-13
8.01925e-13
8.74374e-13
9.47102e-13
1.02078e-12
1.09598e-12
1.17321e-12
1.25295e-12
1.33569e-12
1.42184e-12
1.51178e-12
1.60577e-12
1.70408e-12
1.80684e-12
1.91418e-12
2.02615e-12
2.14276e-12
2.26397e-12
2.38967e-12
2.51975e-12
2.65409e-12
2.79249e-12
2.93477e-12
3.08072e-12
3.23017e-12
3.38284e-12
3.53864e-12
3.69727e-12
3.85859e-12
4.02238e-12
4.18851e-12
4.35687e-12
4.52719e-12
4.69947e-12
4.87352e-12
5.04919e-12
5.22648e-12
5.40524e-12
5.58539e-12
5.76686e-12
5.94944e-12
6.13317e-12
6.31807e-12
6.50393e-12
6.69076e-12
6.87844e-12
7.06691e-12
7.256e-12
7.44571e-12
7.63578e-12
7.82618e-12
8.01673e-12
8.2073e-12
8.39801e-12
8.58869e-12
8.77944e-12
8.9701e-12
9.16061e-12
9.35085e-12
9.54076e-12
9.73025e-12
9.91926e-12
1.01078e-11
1.0296e-11
1.0484e-11
1.06719e-11
1.08598e-11
1.10479e-11
1.12361e-11
1.14245e-11
1.16129e-11
1.18013e-11
1.19898e-11
1.21782e-11
1.23667e-11
1.25554e-11
1.27443e-11
1.29333e-11
1.31224e-11
1.33114e-11
1.35001e-11
1.3688e-11
1.38748e-11
1.40601e-11
1.42437e-11
1.44252e-11
1.46043e-11
1.47809e-11
1.49546e-11
1.51252e-11
1.52924e-11
1.54558e-11
1.56152e-11
1.57702e-11
1.59206e-11
1.6066e-11
1.62063e-11
1.63411e-11
1.64703e-11
1.65936e-11
1.67108e-11
1.68218e-11
1.69264e-11
1.70244e-11
1.71158e-11
1.72003e-11
1.7278e-11
1.73487e-11
1.74124e-11
1.74691e-11
1.75189e-11
1.75617e-11
1.75977e-11
1.76271e-11
1.765e-11
1.76664e-11
1.76767e-11
1.76808e-11
1.76789e-11
1.76709e-11
1.76568e-11
1.76368e-11
1.76108e-11
1.75793e-11
1.75433e-11
1.7504e-11
1.7463e-11
1.74226e-11
1.73848e-11
1.73521e-11
1.73261e-11
1.73075e-11
1.72962e-11
1.72898e-11
1.72836e-11
1.72756e-11
1.7269e-11
1.72671e-11
1.72668e-11
5.58133e-10
1.08593e-09
1.19947e-08
5.27313e-09
-2.16046e-08
-1.77098e-08
-1.21678e-08
-2.50462e-09
1.2321e-08
3.3061e-08
6.01071e-08
9.19685e-08
1.205e-07
1.36578e-07
1.41005e-07
1.39323e-07
1.34974e-07
1.29571e-07
1.23914e-07
1.18364e-07
1.13084e-07
1.08119e-07
1.03492e-07
9.92001e-08
9.52372e-08
9.15917e-08
8.82507e-08
8.52007e-08
8.2428e-08
7.99184e-08
7.76581e-08
7.5633e-08
7.38293e-08
7.22336e-08
7.08325e-08
6.9613e-08
6.85624e-08
6.76685e-08
6.69194e-08
6.63037e-08
6.58106e-08
6.54294e-08
6.51503e-08
6.49638e-08
6.48608e-08
6.48325e-08
6.48707e-08
6.49672e-08
6.51144e-08
6.53048e-08
6.55311e-08
6.57865e-08
6.60645e-08
6.6359e-08
6.66643e-08
6.69834e-08
6.73148e-08
6.76571e-08
6.80084e-08
6.83666e-08
6.87294e-08
6.90935e-08
6.94554e-08
6.98111e-08
7.01558e-08
7.0485e-08
7.07937e-08
7.10763e-08
7.13263e-08
7.15375e-08
7.17034e-08
7.1816e-08
7.18663e-08
7.18464e-08
7.17502e-08
7.15754e-08
7.13758e-08
7.11748e-08
7.09553e-08
7.07203e-08
7.04701e-08
7.02091e-08
6.9942e-08
6.96789e-08
6.94265e-08
6.92043e-08
6.90286e-08
6.8956e-08
6.8915e-08
6.87636e-08
6.84303e-08
5.26062e-08
3.1369e-08
4.41449e-08
2.50947e-06
4.45608e-08
1.39907e-07
4.16756e-08
2.30877e-10
-4.6133e-11
-7.61004e-11
-1.18969e-10
-1.56134e-10
-1.87972e-10
-2.24916e-10
-2.17951e-10
-1.68525e-10
-1.72049e-10
-1.62805e-10
-1.13158e-10
-8.01954e-11
-5.11984e-11
-3.24618e-11
-2.68749e-11
-5.16238e-11
-1.29691e-10
-4.02288e-11
1.36774e-11
1.45942e-11
1.44642e-11
1.4466e-11
1.44558e-11
1.44663e-11
1.44563e-11
1.44669e-11
1.44565e-11
1.44674e-11
1.4457e-11
1.44679e-11
1.44573e-11
1.44682e-11
1.44575e-11
1.44685e-11
1.44574e-11
1.44688e-11
1.44576e-11
1.44692e-11
1.44576e-11
1.44695e-11
1.44577e-11
1.44697e-11
1.44576e-11
1.44699e-11
1.44577e-11
1.447e-11
1.44577e-11
1.44701e-11
1.44577e-11
1.447e-11
1.44574e-11
1.447e-11
1.44578e-11
1.44701e-11
1.4458e-11
1.447e-11
1.44582e-11
1.44699e-11
1.44583e-11
1.44697e-11
1.44585e-11
1.44694e-11
1.44587e-11
1.44692e-11
1.4459e-11
1.44688e-11
1.44592e-11
1.44686e-11
1.44594e-11
1.44684e-11
1.44595e-11
1.44681e-11
1.44597e-11
1.44678e-11
1.44598e-11
1.44676e-11
1.44599e-11
1.44672e-11
1.44599e-11
1.44668e-11
1.44598e-11
1.44663e-11
1.44597e-11
1.44655e-11
1.44588e-11
1.44641e-11
1.44572e-11
1.44621e-11
1.44552e-11
1.44588e-11
1.4451e-11
1.44557e-11
1.44491e-11
1.44516e-11
1.44429e-11
1.44445e-11
1.44354e-11
1.44336e-11
1.44223e-11
1.44204e-11
1.44091e-11
1.44036e-11
1.43887e-11
1.43802e-11
1.4365e-11
1.43528e-11
1.43379e-11
1.43067e-11
1.42819e-11
1.42578e-11
1.42401e-11
1.25122e-11
-1.44645e-10
4.14229e-09
)
;

boundaryField
{
    inandouthalf11
    {
        type            cyclic;
        value           nonuniform List<scalar> 
100
(
-1.94804e-38
-1.63755e-14
-3.50549e-14
-5.27186e-14
-7.13557e-14
-9.12201e-14
-1.11701e-13
-1.32449e-13
-1.53361e-13
-1.74388e-13
-1.95486e-13
-2.16602e-13
-2.37686e-13
-2.58693e-13
-2.7959e-13
-3.00353e-13
-3.20964e-13
-3.4141e-13
-3.61681e-13
-3.81772e-13
-4.01681e-13
-4.21411e-13
-4.40969e-13
-4.60365e-13
-4.7961e-13
-4.98718e-13
-5.17705e-13
-5.36587e-13
-5.55384e-13
-5.74111e-13
-5.92787e-13
-6.11429e-13
-6.30055e-13
-6.48681e-13
-6.67324e-13
-6.85996e-13
-7.0471e-13
-7.23479e-13
-7.42317e-13
-7.6123e-13
-7.80228e-13
-7.99321e-13
-8.18511e-13
-8.37806e-13
-8.57213e-13
-8.76735e-13
-8.96376e-13
-9.16133e-13
-9.3601e-13
-9.56012e-13
-9.76141e-13
-9.96393e-13
-1.01677e-12
-1.03728e-12
-1.0579e-12
-1.07866e-12
-1.09953e-12
-1.12053e-12
-1.14164e-12
-1.16286e-12
-1.18419e-12
-1.20563e-12
-1.22717e-12
-1.24882e-12
-1.27056e-12
-1.29238e-12
-1.31428e-12
-1.33625e-12
-1.35828e-12
-1.38035e-12
-1.40247e-12
-1.42462e-12
-1.4468e-12
-1.469e-12
-1.49122e-12
-1.51345e-12
-1.53567e-12
-1.55788e-12
-1.58007e-12
-1.60223e-12
-1.62434e-12
-1.64642e-12
-1.66846e-12
-1.69046e-12
-1.71242e-12
-1.73435e-12
-1.75625e-12
-1.77812e-12
-1.79995e-12
-1.82173e-12
-1.84348e-12
-1.86519e-12
-1.88686e-12
-1.90851e-12
-1.93013e-12
-1.95173e-12
-1.97332e-12
-1.99489e-12
-2.01645e-12
-2.03799e-12
)
;
    }
    inandouthalf12
    {
        type            cyclic;
        value           nonuniform List<scalar> 
100
(
1.94804e-38
1.63755e-14
3.50549e-14
5.27186e-14
7.13557e-14
9.12201e-14
1.11701e-13
1.32449e-13
1.53361e-13
1.74388e-13
1.95486e-13
2.16602e-13
2.37686e-13
2.58693e-13
2.7959e-13
3.00353e-13
3.20964e-13
3.4141e-13
3.61681e-13
3.81772e-13
4.01681e-13
4.21411e-13
4.40969e-13
4.60365e-13
4.7961e-13
4.98718e-13
5.17705e-13
5.36587e-13
5.55384e-13
5.74111e-13
5.92787e-13
6.11429e-13
6.30055e-13
6.48681e-13
6.67324e-13
6.85996e-13
7.0471e-13
7.23479e-13
7.42317e-13
7.6123e-13
7.80228e-13
7.99321e-13
8.18511e-13
8.37806e-13
8.57213e-13
8.76735e-13
8.96376e-13
9.16133e-13
9.3601e-13
9.56012e-13
9.76141e-13
9.96393e-13
1.01677e-12
1.03728e-12
1.0579e-12
1.07866e-12
1.09953e-12
1.12053e-12
1.14164e-12
1.16286e-12
1.18419e-12
1.20563e-12
1.22717e-12
1.24882e-12
1.27056e-12
1.29238e-12
1.31428e-12
1.33625e-12
1.35828e-12
1.38035e-12
1.40247e-12
1.42462e-12
1.4468e-12
1.469e-12
1.49122e-12
1.51345e-12
1.53567e-12
1.55788e-12
1.58007e-12
1.60223e-12
1.62434e-12
1.64642e-12
1.66846e-12
1.69046e-12
1.71242e-12
1.73435e-12
1.75625e-12
1.77812e-12
1.79995e-12
1.82173e-12
1.84348e-12
1.86519e-12
1.88686e-12
1.90851e-12
1.93013e-12
1.95173e-12
1.97332e-12
1.99489e-12
2.01645e-12
2.03799e-12
)
;
    }
    inandouthalf21
    {
        type            cyclic;
        value           nonuniform List<scalar> 
100
(
-2.05951e-12
-2.081e-12
-2.10246e-12
-2.12387e-12
-2.14524e-12
-2.16656e-12
-2.18781e-12
-2.20901e-12
-2.23013e-12
-2.25118e-12
-2.27217e-12
-2.2931e-12
-2.31397e-12
-2.33482e-12
-2.35565e-12
-2.37649e-12
-2.39738e-12
-2.41835e-12
-2.43944e-12
-2.46069e-12
-2.48213e-12
-2.5038e-12
-2.5257e-12
-2.54785e-12
-2.57021e-12
-2.59273e-12
-2.61534e-12
-2.6379e-12
-2.66029e-12
-2.68229e-12
-2.70368e-12
-2.7242e-12
-2.74364e-12
-2.76188e-12
-2.77896e-12
-2.79499e-12
-2.8102e-12
-2.82502e-12
-2.84004e-12
-2.85578e-12
-2.87162e-12
-2.88523e-12
-2.89404e-12
-2.89796e-12
-2.89883e-12
-2.89914e-12
-2.89866e-12
5.01687e-10
-8.48978e-08
-5.00654e-07
-4.77984e-07
-4.33817e-07
-4.49395e-07
-5.06427e-07
-5.91332e-07
-6.91211e-07
-7.91044e-07
-8.77619e-07
-9.45016e-07
-9.94872e-07
-1.03208e-06
-1.06102e-06
-1.08449e-06
-1.10421e-06
-1.12121e-06
-1.13615e-06
-1.14948e-06
-1.16152e-06
-1.17248e-06
-1.18252e-06
-1.19176e-06
-1.20031e-06
-1.20823e-06
-1.2156e-06
-1.22245e-06
-1.22885e-06
-1.23483e-06
-1.24042e-06
-1.24565e-06
-1.25056e-06
-1.25517e-06
-1.25949e-06
-1.26356e-06
-1.26738e-06
-1.27097e-06
-1.27436e-06
-1.27754e-06
-1.28055e-06
-1.28337e-06
-1.28603e-06
-1.28854e-06
-1.2909e-06
-1.29311e-06
-1.2952e-06
-1.29716e-06
-1.29899e-06
-1.30071e-06
-1.30232e-06
-1.30382e-06
-1.30522e-06
)
;
    }
    inandouthalf22
    {
        type            cyclic;
        value           nonuniform List<scalar> 
100
(
2.05951e-12
2.081e-12
2.10246e-12
2.12387e-12
2.14524e-12
2.16656e-12
2.18781e-12
2.20901e-12
2.23013e-12
2.25118e-12
2.27217e-12
2.2931e-12
2.31397e-12
2.33482e-12
2.35565e-12
2.37649e-12
2.39738e-12
2.41835e-12
2.43944e-12
2.46069e-12
2.48213e-12
2.5038e-12
2.5257e-12
2.54785e-12
2.57021e-12
2.59273e-12
2.61534e-12
2.6379e-12
2.66029e-12
2.68229e-12
2.70368e-12
2.7242e-12
2.74364e-12
2.76188e-12
2.77896e-12
2.79499e-12
2.8102e-12
2.82502e-12
2.84004e-12
2.85578e-12
2.87162e-12
2.88523e-12
2.89404e-12
2.89796e-12
2.89883e-12
2.89914e-12
2.89866e-12
-5.01687e-10
8.48978e-08
5.00654e-07
4.77984e-07
4.33817e-07
4.49395e-07
5.06427e-07
5.91332e-07
6.91211e-07
7.91044e-07
8.77619e-07
9.45016e-07
9.94872e-07
1.03208e-06
1.06102e-06
1.08449e-06
1.10421e-06
1.12121e-06
1.13615e-06
1.14948e-06
1.16152e-06
1.17248e-06
1.18252e-06
1.19176e-06
1.20031e-06
1.20823e-06
1.2156e-06
1.22245e-06
1.22885e-06
1.23483e-06
1.24042e-06
1.24565e-06
1.25056e-06
1.25517e-06
1.25949e-06
1.26356e-06
1.26738e-06
1.27097e-06
1.27436e-06
1.27754e-06
1.28055e-06
1.28337e-06
1.28603e-06
1.28854e-06
1.2909e-06
1.29311e-06
1.2952e-06
1.29716e-06
1.29899e-06
1.30071e-06
1.30232e-06
1.30382e-06
1.30522e-06
)
;
    }
    inandouthalf31
    {
        type            cyclic;
        value           nonuniform List<scalar> 
110
(
-1.30652e-06
-1.33428e-06
-1.36256e-06
-1.39137e-06
-1.42072e-06
-1.45062e-06
-1.48108e-06
-1.51213e-06
-1.54376e-06
-1.57599e-06
-1.60885e-06
-1.64233e-06
-1.67646e-06
-1.71125e-06
-1.74672e-06
-1.78288e-06
-1.81975e-06
-1.85734e-06
-1.89568e-06
-1.93478e-06
-1.97465e-06
-2.01532e-06
-2.0568e-06
-2.09911e-06
-2.14227e-06
-2.1863e-06
-2.23121e-06
-2.27702e-06
-2.32375e-06
-2.37143e-06
-2.42005e-06
-2.46965e-06
-2.52024e-06
-2.57183e-06
-2.6244e-06
-2.67793e-06
-2.7326e-06
-2.83962e-06
-2.89608e-06
-2.95472e-06
-3.01273e-06
-3.07317e-06
-3.13318e-06
-3.19296e-06
-3.25727e-06
-3.31896e-06
-3.38173e-06
-3.44487e-06
-3.50844e-06
-3.57249e-06
-3.63714e-06
-3.70306e-06
-3.76823e-06
-3.83543e-06
-3.90626e-06
-3.97683e-06
-4.05057e-06
-4.12687e-06
-4.20608e-06
-4.28843e-06
-4.37421e-06
-4.4645e-06
-4.56066e-06
-4.65558e-06
-4.75022e-06
-4.84664e-06
-4.94502e-06
-5.04539e-06
-5.1478e-06
-5.25228e-06
-5.35889e-06
-5.46766e-06
-5.57864e-06
-5.69187e-06
-5.8074e-06
-5.92528e-06
-6.04554e-06
-6.16825e-06
-6.29345e-06
-6.42119e-06
-6.55152e-06
-6.6845e-06
-6.82018e-06
-6.95861e-06
-7.09985e-06
-7.24396e-06
-7.39099e-06
-7.54101e-06
-7.69407e-06
-7.85024e-06
-8.00958e-06
-8.17216e-06
-8.33803e-06
-8.50727e-06
-8.67994e-06
-8.85612e-06
-9.03588e-06
-9.21928e-06
-9.40641e-06
-9.59734e-06
-9.79214e-06
-9.99089e-06
-1.01937e-05
-1.04006e-05
-1.06117e-05
-1.08271e-05
-1.10468e-05
-1.12711e-05
-1.14998e-05
-1.17332e-05
)
;
    }
    inandouthalf32
    {
        type            cyclic;
        value           nonuniform List<scalar> 
110
(
1.30652e-06
1.33428e-06
1.36256e-06
1.39137e-06
1.42072e-06
1.45062e-06
1.48108e-06
1.51213e-06
1.54376e-06
1.57599e-06
1.60885e-06
1.64233e-06
1.67646e-06
1.71125e-06
1.74672e-06
1.78288e-06
1.81975e-06
1.85734e-06
1.89568e-06
1.93478e-06
1.97465e-06
2.01532e-06
2.0568e-06
2.09911e-06
2.14227e-06
2.1863e-06
2.23121e-06
2.27702e-06
2.32375e-06
2.37143e-06
2.42005e-06
2.46965e-06
2.52024e-06
2.57183e-06
2.6244e-06
2.67793e-06
2.7326e-06
2.83962e-06
2.89608e-06
2.95472e-06
3.01273e-06
3.07317e-06
3.13318e-06
3.19296e-06
3.25727e-06
3.31896e-06
3.38173e-06
3.44487e-06
3.50844e-06
3.57249e-06
3.63714e-06
3.70306e-06
3.76823e-06
3.83543e-06
3.90626e-06
3.97683e-06
4.05057e-06
4.12687e-06
4.20608e-06
4.28843e-06
4.37421e-06
4.4645e-06
4.56066e-06
4.65558e-06
4.75022e-06
4.84664e-06
4.94502e-06
5.04539e-06
5.1478e-06
5.25228e-06
5.35889e-06
5.46766e-06
5.57864e-06
5.69187e-06
5.8074e-06
5.92528e-06
6.04554e-06
6.16825e-06
6.29345e-06
6.42119e-06
6.55152e-06
6.6845e-06
6.82018e-06
6.95861e-06
7.09985e-06
7.24396e-06
7.39099e-06
7.54101e-06
7.69407e-06
7.85024e-06
8.00958e-06
8.17216e-06
8.33803e-06
8.50727e-06
8.67994e-06
8.85612e-06
9.03588e-06
9.21928e-06
9.40641e-06
9.59734e-06
9.79214e-06
9.99089e-06
1.01937e-05
1.04006e-05
1.06117e-05
1.08271e-05
1.10468e-05
1.12711e-05
1.14998e-05
1.17332e-05
)
;
    }
    inandouthalf41
    {
        type            cyclic;
        value           nonuniform List<scalar> 
50
(
-1.05025e-05
-1.05025e-05
-1.05025e-05
-1.05025e-05
-1.05025e-05
-1.05025e-05
-1.05025e-05
-1.05025e-05
-1.05025e-05
-1.05025e-05
-1.05025e-05
-1.05025e-05
-1.05025e-05
-1.05025e-05
-1.05025e-05
-1.05025e-05
-1.05025e-05
-1.05025e-05
-1.05025e-05
-1.05025e-05
-1.05025e-05
-1.05025e-05
-1.05025e-05
-1.05025e-05
-1.05025e-05
-1.05025e-05
-1.05025e-05
-1.05025e-05
-1.05025e-05
-1.05025e-05
-1.05025e-05
-1.05025e-05
-1.05025e-05
-1.05025e-05
-1.05025e-05
-1.05025e-05
-1.05025e-05
-1.05025e-05
-1.05025e-05
-1.05025e-05
-1.05025e-05
-1.05025e-05
-1.05025e-05
-1.05025e-05
-1.05025e-05
-1.05025e-05
-1.05025e-05
-1.05025e-05
-1.05025e-05
-1.05023e-05
)
;
    }
    inandouthalf42
    {
        type            cyclic;
        value           nonuniform List<scalar> 
50
(
1.05025e-05
1.05025e-05
1.05025e-05
1.05025e-05
1.05025e-05
1.05025e-05
1.05025e-05
1.05025e-05
1.05025e-05
1.05025e-05
1.05025e-05
1.05025e-05
1.05025e-05
1.05025e-05
1.05025e-05
1.05025e-05
1.05025e-05
1.05025e-05
1.05025e-05
1.05025e-05
1.05025e-05
1.05025e-05
1.05025e-05
1.05025e-05
1.05025e-05
1.05025e-05
1.05025e-05
1.05025e-05
1.05025e-05
1.05025e-05
1.05025e-05
1.05025e-05
1.05025e-05
1.05025e-05
1.05025e-05
1.05025e-05
1.05025e-05
1.05025e-05
1.05025e-05
1.05025e-05
1.05025e-05
1.05025e-05
1.05025e-05
1.05025e-05
1.05025e-05
1.05025e-05
1.05025e-05
1.05025e-05
1.05025e-05
1.05023e-05
)
;
    }
    top
    {
        type            symmetryPlane;
        value           uniform 0;
    }
    walls
    {
        type            calculated;
        value           uniform 0;
    }
    frontAndBackPlanes
    {
        type            empty;
        value           nonuniform 0();
    }
}


// ************************************************************************* //
