/*--------------------------------*- C++ -*----------------------------------*\
| =========                 |                                                 |
| \\      /  F ield         | OpenFOAM: The Open Source CFD Toolbox           |
|  \\    /   O peration     | Version:  2.4.x                                 |
|   \\  /    A nd           | Web:      www.OpenFOAM.org                      |
|    \\/     M anipulation  |                                                 |
\*---------------------------------------------------------------------------*/
FoamFile
{
    version     2.0;
    format      ascii;
    class       volScalarField;
    location    "7.85";
    object      ddt0(epsilon);
}
// * * * * * * * * * * * * * * * * * * * * * * * * * * * * * * * * * * * * * //

dimensions      [0 2 -4 0 0 0 0];

internalField   nonuniform List<scalar> 
360
(
0
0
0
0
0
0
0
0
0
0
0
0
0
0
0
0
0
0
0
0
0
0
0
0
0
0
0
0
0
0
0
0
0
0
0
0
0
0
0
0
0
0
0
0
0
0
0
0
0
0
0
0
0
0
0
0
0
0
0
0
0
0
0
0
0
0
0
0
0
0
0
0
0
0
0
0
0
0
0
0
0
0
0
0
0
0
0
0
0
0
0
0
0
0
0
0
0
0
0
0
0
0
0
0
0
0
0
0
0
0
0
0
0
0
0
0
0
0
0
0
0
0
0
0
0
0
0
0
0
0
0
0
0
-2.27704e-126
-1.18757e-19
-5.05304e-19
-1.79415e-18
-5.05615e-18
-5.85051e-18
1.36943e-16
3.63857e-15
8.98892e-14
2.49484e-12
7.96115e-11
2.96202e-09
1.30072e-07
6.80114e-06
0.000425606
0.0297246
0.776401
0.693664
0.557389
0.542078
0.522352
0.472736
0.394408
0.299241
0.206895
0.133564
0.0834418
0.0519548
0.0326939
0.0207751
0.0131654
0.00811362
0.00462213
0.00211469
0.000249682
-0.0011815
-0.00231009
-0.00322105
-0.00397083
-0.00459786
-0.0051289
-0.00558295
-0.00597378
-0.00631156
-0.00660392
-0.0068567
-0.00707446
-0.00726082
-0.0074187
-0.00755051
-0.00765829
-0.00774378
-0.0078085
-0.00785382
-0.00788094
-0.00789099
-0.00788501
-0.00786397
-0.00782878
-0.00778033
-0.00771944
-0.0076469
-0.00756348
-0.00746991
-0.00736689
-0.00725511
-0.00713525
-0.00700801
-0.00687269
-0.00672827
-0.00657496
-0.00641301
-0.00624263
-0.00606411
-0.00587773
-0.00568383
-0.00548281
-0.00527508
-0.00506109
-0.00484134
-0.00461636
-0.00438672
-0.004153
-0.00391584
-0.0036759
-0.00343389
-0.00319053
-0.00294659
-0.00270285
-0.00246012
-0.00221925
-0.0019811
-0.00174655
-0.00151652
-0.00129192
-0.00107369
-0.000862781
-0.000660158
-0.000466787
-0.000283641
-0.000111691
4.80943e-05
0.000194762
0.000327376
0.000445035
0.000546883
0.000632129
0.000700078
0.000750163
0.000781994
0.000795415
0.000790583
0.000768058
0.000728909
0.000674823
0.000608206
0.000532228
0.000450779
0.000368276
0.000289276
0.000217921
0.000157332
0.000109149
7.34013e-05
4.8738e-05
3.28793e-05
2.3083e-05
1.64582e-05
1.02409e-05
2.51531e-06
1.3151e-07
3.11338e-09
6.71293e-11
1.38329e-12
2.71661e-14
5.06947e-16
8.96678e-18
1.46009e-19
0
0
0
0
0
0
0
0
0
0
0
0
0
0
0
0
0
0
0
0
0
0
0
0
0
0
0
0
0
0
0
0
0
0
0
0
0
0
0
0
0
0
0
0
0
0
0
0
0
0
0
0
0
0
0
0
0
0
0
0
0
0
0
0
0
0
0
0
0
0
0
0
0
0
0
0
0
0
0
0
0
0
0
0
0
0
0
0
0
)
;

boundaryField
{
    inandouthalf11
    {
        type            cyclic;
    }
    inandouthalf12
    {
        type            cyclic;
    }
    inandouthalf21
    {
        type            cyclic;
    }
    inandouthalf22
    {
        type            cyclic;
    }
    inandouthalf31
    {
        type            cyclic;
    }
    inandouthalf32
    {
        type            cyclic;
    }
    inandouthalf41
    {
        type            cyclic;
    }
    inandouthalf42
    {
        type            cyclic;
    }
    top
    {
        type            symmetryPlane;
    }
    walls
    {
        type            calculated;
        value           uniform 0;
    }
    frontAndBackPlanes
    {
        type            empty;
    }
}


// ************************************************************************* //
