/*--------------------------------*- C++ -*----------------------------------*\
| =========                 |                                                 |
| \\      /  F ield         | OpenFOAM: The Open Source CFD Toolbox           |
|  \\    /   O peration     | Version:  2.4.x                                 |
|   \\  /    A nd           | Web:      www.OpenFOAM.org                      |
|    \\/     M anipulation  |                                                 |
\*---------------------------------------------------------------------------*/
FoamFile
{
    version     2.0;
    format      ascii;
    class       volVectorField;
    location    "7.85";
    object      ddt0(Ua);
}
// * * * * * * * * * * * * * * * * * * * * * * * * * * * * * * * * * * * * * //

dimensions      [0 1 -2 0 0 0 0];

internalField   nonuniform List<vector> 
360
(
(1.94804e-32 1.64437e-33 0)
(1.63755e-08 4.03744e-08 0)
(3.50549e-08 7.07142e-08 0)
(5.27186e-08 9.32876e-08 0)
(7.13557e-08 1.14142e-07 0)
(9.12201e-08 1.34497e-07 0)
(1.11701e-07 1.54128e-07 0)
(1.32449e-07 1.7303e-07 0)
(1.53361e-07 1.91419e-07 0)
(1.74388e-07 2.09545e-07 0)
(1.95486e-07 2.27644e-07 0)
(2.16602e-07 2.45907e-07 0)
(2.37686e-07 2.64484e-07 0)
(2.58693e-07 2.83506e-07 0)
(2.7959e-07 3.03098e-07 0)
(3.00353e-07 3.23379e-07 0)
(3.20964e-07 3.44466e-07 0)
(3.4141e-07 3.66456e-07 0)
(3.61681e-07 3.89431e-07 0)
(3.81772e-07 4.13457e-07 0)
(4.01681e-07 4.38582e-07 0)
(4.21411e-07 4.64839e-07 0)
(4.40969e-07 4.92251e-07 0)
(4.60365e-07 5.20825e-07 0)
(4.7961e-07 5.50556e-07 0)
(4.98718e-07 5.81427e-07 0)
(5.17705e-07 6.13408e-07 0)
(5.36587e-07 6.46469e-07 0)
(5.55384e-07 6.80574e-07 0)
(5.74111e-07 7.15672e-07 0)
(5.92787e-07 7.51713e-07 0)
(6.11429e-07 7.8865e-07 0)
(6.30055e-07 8.26428e-07 0)
(6.48681e-07 8.64999e-07 0)
(6.67324e-07 9.04315e-07 0)
(6.85996e-07 9.44322e-07 0)
(7.0471e-07 9.84969e-07 0)
(7.23479e-07 1.02622e-06 0)
(7.42317e-07 1.06804e-06 0)
(7.6123e-07 1.11038e-06 0)
(7.80228e-07 1.15322e-06 0)
(7.99321e-07 1.19652e-06 0)
(8.18511e-07 1.24024e-06 0)
(8.37806e-07 1.28436e-06 0)
(8.57213e-07 1.32887e-06 0)
(8.76735e-07 1.37375e-06 0)
(8.96376e-07 1.41896e-06 0)
(9.16133e-07 1.46447e-06 0)
(9.3601e-07 1.51025e-06 0)
(9.56012e-07 1.55634e-06 0)
(9.76141e-07 1.60269e-06 0)
(9.96393e-07 1.64928e-06 0)
(1.01677e-06 1.6961e-06 0)
(1.03728e-06 1.74312e-06 0)
(1.0579e-06 1.79033e-06 0)
(1.07866e-06 1.83768e-06 0)
(1.09953e-06 1.88516e-06 0)
(1.12053e-06 1.93273e-06 0)
(1.14164e-06 1.98036e-06 0)
(1.16286e-06 2.028e-06 0)
(1.18419e-06 2.07566e-06 0)
(1.20563e-06 2.12333e-06 0)
(1.22717e-06 2.17102e-06 0)
(1.24882e-06 2.2187e-06 0)
(1.27056e-06 2.26635e-06 0)
(1.29238e-06 2.31395e-06 0)
(1.31428e-06 2.36147e-06 0)
(1.33625e-06 2.4089e-06 0)
(1.35828e-06 2.45622e-06 0)
(1.38035e-06 2.5034e-06 0)
(1.40247e-06 2.55048e-06 0)
(1.42462e-06 2.59751e-06 0)
(1.4468e-06 2.64449e-06 0)
(1.469e-06 2.69145e-06 0)
(1.49122e-06 2.73845e-06 0)
(1.51345e-06 2.78549e-06 0)
(1.53567e-06 2.83257e-06 0)
(1.55788e-06 2.87967e-06 0)
(1.58007e-06 2.92678e-06 0)
(1.60223e-06 2.97389e-06 0)
(1.62434e-06 3.021e-06 0)
(1.64642e-06 3.06812e-06 0)
(1.66846e-06 3.11526e-06 0)
(1.69046e-06 3.16244e-06 0)
(1.71242e-06 3.20968e-06 0)
(1.73435e-06 3.25696e-06 0)
(1.75625e-06 3.30424e-06 0)
(1.77812e-06 3.35147e-06 0)
(1.79995e-06 3.39856e-06 0)
(1.82173e-06 3.44542e-06 0)
(1.84348e-06 3.49196e-06 0)
(1.86519e-06 3.53809e-06 0)
(1.88686e-06 3.58374e-06 0)
(1.90851e-06 3.62884e-06 0)
(1.93013e-06 3.67332e-06 0)
(1.95173e-06 3.71712e-06 0)
(1.97332e-06 3.76018e-06 0)
(1.99489e-06 3.80242e-06 0)
(2.01645e-06 3.84377e-06 0)
(2.03799e-06 3.88414e-06 0)
(2.05951e-06 3.92346e-06 0)
(2.081e-06 3.96165e-06 0)
(2.10246e-06 3.99864e-06 0)
(2.12387e-06 4.03437e-06 0)
(2.14524e-06 4.06877e-06 0)
(2.16656e-06 4.10178e-06 0)
(2.18781e-06 4.13335e-06 0)
(2.20901e-06 4.16343e-06 0)
(2.23013e-06 4.19197e-06 0)
(2.25118e-06 4.21893e-06 0)
(2.27217e-06 4.24426e-06 0)
(2.2931e-06 4.26795e-06 0)
(2.31397e-06 4.28994e-06 0)
(2.33482e-06 4.31022e-06 0)
(2.35565e-06 4.32877e-06 0)
(2.37649e-06 4.34558e-06 0)
(2.39738e-06 4.36063e-06 0)
(2.41835e-06 4.37393e-06 0)
(2.43944e-06 4.3855e-06 0)
(2.46069e-06 4.39535e-06 0)
(2.48213e-06 4.40352e-06 0)
(2.5038e-06 4.41004e-06 0)
(2.5257e-06 4.41494e-06 0)
(2.54785e-06 4.41828e-06 0)
(2.57021e-06 4.42007e-06 0)
(2.59273e-06 4.42034e-06 0)
(2.61534e-06 4.41909e-06 0)
(2.6379e-06 4.41634e-06 0)
(2.66029e-06 4.41208e-06 0)
(2.68229e-06 4.4063e-06 0)
(2.70368e-06 4.39909e-06 0)
(2.7242e-06 4.39058e-06 0)
(2.74364e-06 4.38107e-06 0)
(2.76188e-06 4.37092e-06 0)
(2.77896e-06 4.3606e-06 0)
(2.79499e-06 4.35068e-06 0)
(2.8102e-06 4.34175e-06 0)
(2.82502e-06 4.33433e-06 0)
(2.84004e-06 4.32873e-06 0)
(2.85578e-06 4.32504e-06 0)
(2.87162e-06 4.32307e-06 0)
(2.88523e-06 4.3218e-06 0)
(2.89404e-06 4.31998e-06 0)
(2.89796e-06 4.3178e-06 0)
(2.89883e-06 4.31667e-06 0)
(2.89914e-06 4.31682e-06 0)
(2.89866e-06 4.31775e-06 0)
(-0.000501687 0.000131833 0)
(0.0848978 0.000367561 0)
(0.500654 0.00688801 0)
(0.477984 -0.00283684 0)
(0.433817 -0.00573103 0)
(0.449395 -0.00425211 0)
(0.506427 -0.00219994 0)
(0.591332 0.000854797 0)
(0.691211 0.00531198 0)
(0.791044 0.011518 0)
(0.877619 0.0192992 0)
(0.945016 0.0270717 0)
(0.994872 0.0326122 0)
(1.03208 0.0350918 0)
(1.06102 0.0353152 0)
(1.08449 0.0344273 0)
(1.10421 0.0331204 0)
(1.12121 0.0316957 0)
(1.13615 0.030277 0)
(1.14948 0.0289155 0)
(1.16152 0.0276313 0)
(1.17248 0.0264313 0)
(1.18252 0.0253163 0)
(1.19176 0.024285 0)
(1.20031 0.0233346 0)
(1.20823 0.022462 0)
(1.2156 0.0216639 0)
(1.22245 0.0209369 0)
(1.22885 0.0202775 0)
(1.23483 0.0196821 0)
(1.24042 0.0191473 0)
(1.24565 0.0186695 0)
(1.25056 0.0182454 0)
(1.25517 0.0178716 0)
(1.25949 0.0175448 0)
(1.26356 0.0172618 0)
(1.26738 0.0170195 0)
(1.27097 0.0168149 0)
(1.27436 0.0166449 0)
(1.27754 0.016507 0)
(1.28055 0.0163983 0)
(1.28337 0.0163164 0)
(1.28603 0.0162588 0)
(1.28854 0.0162231 0)
(1.2909 0.0162073 0)
(1.29311 0.016209 0)
(1.2952 0.0162264 0)
(1.29716 0.0162573 0)
(1.29899 0.0162999 0)
(1.30071 0.0163525 0)
(1.30232 0.0164131 0)
(1.30382 0.0164802 0)
(1.30522 0.0165521 0)
(1.30652 0.0166274 0)
(1.30773 0.0167056 0)
(1.30888 0.016787 0)
(1.30997 0.0168713 0)
(1.31099 0.0169581 0)
(1.31195 0.017047 0)
(1.31286 0.0171373 0)
(1.31371 0.0172284 0)
(1.31451 0.0173193 0)
(1.31526 0.0174093 0)
(1.31597 0.0174971 0)
(1.31663 0.0175816 0)
(1.31726 0.0176617 0)
(1.31784 0.0177359 0)
(1.3184 0.0178029 0)
(1.31892 0.0178609 0)
(1.31941 0.0179084 0)
(1.31988 0.0179436 0)
(1.32033 0.0179645 0)
(1.32075 0.0179685 0)
(1.32115 0.0179535 0)
(1.32154 0.0179187 0)
(1.32191 0.0178707 0)
(1.32226 0.0178195 0)
(1.32261 0.0177667 0)
(1.32294 0.0177101 0)
(1.32325 0.0176493 0)
(1.32356 0.0175851 0)
(1.32385 0.0175187 0)
(1.32414 0.0174518 0)
(1.32441 0.0173865 0)
(1.32466 0.0173261 0)
(1.32491 0.0172761 0)
(1.32513 0.0172451 0)
(1.32531 0.0172307 0)
(1.32545 0.0172112 0)
(1.3256 0.017114 0)
(1.35011 0.0148415 0)
(1.34956 0.0176657 0)
(1.34949 -0.0014433 0)
(1.34862 0.0237262 0)
(1.34831 -0.00804997 0)
(1.34729 0.026112 0)
(1.34568 0.0216532 0)
(1.34547 0.000123808 0)
(1.34368 -9.58792e-06 0)
(1.34186 -1.30865e-05 0)
(1.33972 -2.4324e-05 0)
(1.3373 -3.40872e-05 0)
(1.33462 -4.23963e-05 0)
(1.33174 -4.94773e-05 0)
(1.32891 -6.04572e-05 0)
(1.32539 -4.57878e-05 0)
(1.32219 -3.65006e-05 0)
(1.31982 -4.81807e-05 0)
(1.31694 -3.20586e-05 0)
(1.31467 -2.4483e-05 0)
(1.31279 -1.65328e-05 0)
(1.31137 -1.07433e-05 0)
(1.31044 -7.83424e-06 0)
(1.31007 -8.39852e-06 0)
(1.31051 -2.6719e-05 0)
(1.3121 -1.99804e-05 0)
(1.31276 -2.5762e-06 0)
(1.31281 3.26667e-06 0)
(1.31281 3.60908e-06 0)
(1.31281 3.61498e-06 0)
(1.31281 3.61535e-06 0)
(1.31281 3.61506e-06 0)
(1.31281 3.61553e-06 0)
(1.31281 3.61518e-06 0)
(1.31281 3.61566e-06 0)
(1.31281 3.61526e-06 0)
(1.31281 3.61577e-06 0)
(1.31281 3.61542e-06 0)
(1.31281 3.61585e-06 0)
(1.31281 3.61545e-06 0)
(1.31281 3.61597e-06 0)
(1.31281 3.61547e-06 0)
(1.31281 3.61602e-06 0)
(1.31281 3.61548e-06 0)
(1.31281 3.61611e-06 0)
(1.31281 3.61553e-06 0)
(1.31281 3.6162e-06 0)
(1.31281 3.61555e-06 0)
(1.31281 3.61627e-06 0)
(1.31281 3.61555e-06 0)
(1.31281 3.61632e-06 0)
(1.31281 3.61553e-06 0)
(1.31281 3.61638e-06 0)
(1.31281 3.61552e-06 0)
(1.31281 3.61643e-06 0)
(1.31281 3.6155e-06 0)
(1.31281 3.61647e-06 0)
(1.31281 3.61544e-06 0)
(1.31281 3.61645e-06 0)
(1.31281 3.61536e-06 0)
(1.31281 3.61654e-06 0)
(1.31281 3.6154e-06 0)
(1.31281 3.61662e-06 0)
(1.31281 3.61537e-06 0)
(1.31281 3.61667e-06 0)
(1.31281 3.61533e-06 0)
(1.31281 3.61671e-06 0)
(1.31281 3.61528e-06 0)
(1.31281 3.61676e-06 0)
(1.31281 3.61523e-06 0)
(1.31281 3.61681e-06 0)
(1.31281 3.61518e-06 0)
(1.31281 3.61685e-06 0)
(1.31281 3.61524e-06 0)
(1.31281 3.61675e-06 0)
(1.31281 3.61521e-06 0)
(1.31281 3.61676e-06 0)
(1.31281 3.6152e-06 0)
(1.31281 3.61676e-06 0)
(1.31281 3.61518e-06 0)
(1.31281 3.61676e-06 0)
(1.31281 3.61515e-06 0)
(1.31281 3.61674e-06 0)
(1.31281 3.61512e-06 0)
(1.31281 3.61674e-06 0)
(1.31281 3.61508e-06 0)
(1.31281 3.61671e-06 0)
(1.31281 3.61502e-06 0)
(1.31281 3.61666e-06 0)
(1.31281 3.61494e-06 0)
(1.31281 3.61658e-06 0)
(1.31281 3.61481e-06 0)
(1.31281 3.61639e-06 0)
(1.31281 3.61452e-06 0)
(1.31281 3.61601e-06 0)
(1.31281 3.61405e-06 0)
(1.31281 3.61553e-06 0)
(1.31281 3.61338e-06 0)
(1.31281 3.61459e-06 0)
(1.31281 3.61246e-06 0)
(1.31281 3.61398e-06 0)
(1.31281 3.6117e-06 0)
(1.31281 3.61269e-06 0)
(1.31281 3.61004e-06 0)
(1.31281 3.61088e-06 0)
(1.31281 3.60773e-06 0)
(1.31281 3.60789e-06 0)
(1.31281 3.60444e-06 0)
(1.31281 3.6046e-06 0)
(1.31281 3.60067e-06 0)
(1.31281 3.59995e-06 0)
(1.31281 3.5952e-06 0)
(1.31281 3.59407e-06 0)
(1.31281 3.5888e-06 0)
(1.31281 3.58726e-06 0)
(1.31281 3.57965e-06 0)
(1.31281 3.5745e-06 0)
(1.31281 3.56652e-06 0)
(1.31281 3.56443e-06 0)
(1.31281 3.55171e-06 0)
(1.31281 2.70883e-06 0)
(1.31281 -7.50326e-05 0)
(1.31279 -7.65342e-05 0)
)
;

boundaryField
{
    inandouthalf11
    {
        type            cyclic;
    }
    inandouthalf12
    {
        type            cyclic;
    }
    inandouthalf21
    {
        type            cyclic;
    }
    inandouthalf22
    {
        type            cyclic;
    }
    inandouthalf31
    {
        type            cyclic;
    }
    inandouthalf32
    {
        type            cyclic;
    }
    inandouthalf41
    {
        type            cyclic;
    }
    inandouthalf42
    {
        type            cyclic;
    }
    top
    {
        type            symmetryPlane;
    }
    walls
    {
        type            calculated;
        value           uniform (0 0 0);
    }
    frontAndBackPlanes
    {
        type            empty;
    }
}


// ************************************************************************* //
