/*--------------------------------*- C++ -*----------------------------------*\
| =========                 |                                                 |
| \\      /  F ield         | OpenFOAM: The Open Source CFD Toolbox           |
|  \\    /   O peration     | Version:  2.4.x                                 |
|   \\  /    A nd           | Web:      www.OpenFOAM.org                      |
|    \\/     M anipulation  |                                                 |
\*---------------------------------------------------------------------------*/
FoamFile
{
    version     2.0;
    format      ascii;
    class       volScalarField;
    location    "7.85";
    object      ddt0(alpha);
}
// * * * * * * * * * * * * * * * * * * * * * * * * * * * * * * * * * * * * * //

dimensions      [0 0 -1 0 0 0 0];

internalField   nonuniform List<scalar> 
360
(
5.58466e-05
8.52332e-05
7.84048e-05
7.48321e-05
7.67259e-05
7.8367e-05
7.86311e-05
7.83625e-05
7.80302e-05
7.77686e-05
7.75276e-05
7.72383e-05
7.6913e-05
7.65543e-05
7.61955e-05
7.58588e-05
7.55474e-05
7.52552e-05
7.49808e-05
7.47431e-05
7.45067e-05
7.43113e-05
7.41391e-05
7.39908e-05
7.38673e-05
7.37639e-05
7.36749e-05
7.3621e-05
7.35797e-05
7.35509e-05
7.35336e-05
7.35488e-05
7.35408e-05
7.35898e-05
7.36102e-05
7.36556e-05
7.36918e-05
7.37475e-05
7.3823e-05
7.38525e-05
7.39342e-05
7.39951e-05
7.403e-05
7.41095e-05
7.41587e-05
7.42124e-05
7.42633e-05
7.42643e-05
7.42924e-05
7.43462e-05
7.4337e-05
7.43496e-05
7.4331e-05
7.4321e-05
7.42578e-05
7.42282e-05
7.41236e-05
7.40327e-05
7.38985e-05
7.3718e-05
7.3587e-05
7.33964e-05
7.32324e-05
7.30199e-05
7.27887e-05
7.2514e-05
7.22235e-05
7.18991e-05
7.15372e-05
7.11354e-05
7.07632e-05
7.03922e-05
6.9962e-05
6.9567e-05
6.91437e-05
6.87232e-05
6.82394e-05
6.77251e-05
6.71854e-05
6.66273e-05
6.60433e-05
6.54628e-05
6.4888e-05
6.43146e-05
6.37411e-05
6.31531e-05
6.25458e-05
6.19023e-05
6.12218e-05
6.05096e-05
5.97709e-05
5.90136e-05
5.82496e-05
5.7483e-05
5.67147e-05
5.59423e-05
5.51614e-05
5.43669e-05
5.35552e-05
5.27249e-05
5.18759e-05
5.10096e-05
5.01282e-05
4.92342e-05
4.833e-05
4.74185e-05
4.65034e-05
4.55897e-05
4.46835e-05
4.3792e-05
4.29239e-05
4.20885e-05
4.12959e-05
4.05563e-05
3.98798e-05
3.92758e-05
3.8752e-05
3.83134e-05
3.79613e-05
3.76911e-05
3.74913e-05
3.73411e-05
3.721e-05
3.70582e-05
3.68391e-05
3.65038e-05
3.60045e-05
3.52942e-05
3.4324e-05
3.30429e-05
3.1415e-05
2.94565e-05
2.72678e-05
2.5019e-05
2.28744e-05
2.09253e-05
1.92431e-05
1.79531e-05
1.70815e-05
1.61643e-05
1.38622e-05
8.32533e-06
1.30775e-06
-4.90032e-06
-1.24563e-05
-2.63961e-05
0.0024392
-0.00377825
-0.097212
-0.81815
-0.0927162
0.103391
0.176609
0.192631
0.172095
0.132996
0.0913684
0.0572229
0.0333016
0.0183259
0.00992413
0.00555371
0.00327257
0.00201402
0.00127728
0.000824558
0.000535332
0.00034479
0.00021629
0.000128141
6.6991e-05
2.43365e-05
-5.40061e-06
-2.59744e-05
-3.99683e-05
-4.91948e-05
-5.49474e-05
-5.81623e-05
-5.95257e-05
-5.95454e-05
-5.86002e-05
-5.69746e-05
-5.48824e-05
-5.24849e-05
-4.99032e-05
-4.72276e-05
-4.45249e-05
-4.18436e-05
-3.92185e-05
-3.6674e-05
-3.42268e-05
-3.18883e-05
-2.96652e-05
-2.75604e-05
-2.55736e-05
-2.37022e-05
-2.1942e-05
-2.0287e-05
-1.87289e-05
-1.72576e-05
-1.58647e-05
-1.45325e-05
-1.32492e-05
-1.20163e-05
-1.08349e-05
-9.70646e-06
-8.63616e-06
-7.62984e-06
-6.69419e-06
-5.83286e-06
-5.04869e-06
-4.34019e-06
-3.70627e-06
-3.15047e-06
-2.67022e-06
-2.25389e-06
-1.89613e-06
-1.59593e-06
-1.34538e-06
-1.13492e-06
-9.56642e-07
-8.08333e-07
-6.86133e-07
-5.78123e-07
-4.8184e-07
-3.99704e-07
-3.29418e-07
-2.69211e-07
-2.18682e-07
-1.75835e-07
-1.41244e-07
-1.09782e-07
-8.50958e-08
-6.58242e-08
-6.55627e-08
-4.80504e-08
-3.22748e-08
-1.23675e-08
-1.8484e-08
-5.05081e-09
-1.18127e-10
-2.4086e-09
5.58981e-09
4.97901e-19
9.7126e-30
-2.93871e-38
-2.76609e-38
-1.05191e-38
-4.1537e-39
-1.94026e-39
-9.89123e-40
-5.97947e-40
-5.20512e-40
-4.86595e-40
-1.9477e-40
-8.32894e-41
-4.14406e-41
-2.19792e-41
-1.44593e-41
-9.28363e-42
-3.95394e-42
-1.96961e-42
-1.01094e-42
-5.41708e-43
-2.65463e-43
-1.31694e-43
-6.43218e-44
-3.08861e-44
-1.45728e-44
-6.75234e-45
-3.07069e-45
-1.36967e-45
-5.9884e-46
-2.56458e-46
-1.07501e-46
-4.4072e-47
-1.76567e-47
-6.90673e-48
-2.63541e-48
-9.79958e-49
-3.54724e-49
-1.24855e-49
-4.26804e-50
-1.41511e-50
-4.54446e-51
-1.41138e-51
-4.23214e-52
-1.22308e-52
-3.39995e-53
-9.07161e-54
-2.31773e-54
-5.65551e-55
-1.31415e-55
-2.89843e-56
-6.04547e-57
-1.18749e-57
-2.18618e-58
-3.75131e-59
-5.96079e-60
-8.70358e-61
-1.15697e-61
-1.3842e-62
-1.46909e-63
-1.3574e-64
-1.06441e-65
-6.82948e-67
-3.38754e-68
-1.17443e-69
-2.25816e-71
-6.34559e-74
-1.07788e-78
-9.2499e-81
-3.93579e-83
-1.3565e-93
-2.3366e-104
-2.91701e-115
-2.61473e-126
-2.01188e-137
-1.16849e-148
-5.88713e-160
-4.61777e-170
-1.97695e-180
-1.51891e-188
-5.85866e-199
-5.22451e-207
-2.3666e-217
-1.7977e-225
-9.99462e-236
-6.19061e-244
-6.3594e-254
-2.16727e-262
-4.18867e-272
-7.76804e-281
-2.06988e-290
-2.8445e-299
-9.87834e-309
5.21783e-320
0
0
0
0
0
0
0
0
0
0
0
0
0
0
0
0
0
0
0
0
0
0
0
)
;

boundaryField
{
    inandouthalf11
    {
        type            cyclic;
    }
    inandouthalf12
    {
        type            cyclic;
    }
    inandouthalf21
    {
        type            cyclic;
    }
    inandouthalf22
    {
        type            cyclic;
    }
    inandouthalf31
    {
        type            cyclic;
    }
    inandouthalf32
    {
        type            cyclic;
    }
    inandouthalf41
    {
        type            cyclic;
    }
    inandouthalf42
    {
        type            cyclic;
    }
    top
    {
        type            symmetryPlane;
    }
    walls
    {
        type            calculated;
        value           uniform 5.58466e-05;
    }
    frontAndBackPlanes
    {
        type            empty;
    }
}


// ************************************************************************* //
