/*--------------------------------*- C++ -*----------------------------------*\
| =========                 |                                                 |
| \\      /  F ield         | OpenFOAM: The Open Source CFD Toolbox           |
|  \\    /   O peration     | Version:  2.4.x                                 |
|   \\  /    A nd           | Web:      www.OpenFOAM.org                      |
|    \\/     M anipulation  |                                                 |
\*---------------------------------------------------------------------------*/
FoamFile
{
    version     2.0;
    format      ascii;
    class       volScalarField;
    location    "7.85";
    object      epsilon;
}
// * * * * * * * * * * * * * * * * * * * * * * * * * * * * * * * * * * * * * //

dimensions      [0 2 -3 0 0 0 0];

internalField   nonuniform List<scalar> 
360
(
1e-20
1e-20
1e-20
1e-20
1e-20
1e-20
1e-20
1e-20
1e-20
1e-20
1e-20
1e-20
1e-20
1e-20
1e-20
1e-20
1e-20
1e-20
1e-20
1e-20
1e-20
1e-20
1e-20
1e-20
1e-20
1e-20
1e-20
1e-20
1e-20
1e-20
1e-20
1e-20
1e-20
1e-20
1e-20
1e-20
1e-20
1e-20
1e-20
1e-20
1e-20
1e-20
1e-20
1e-20
1e-20
1e-20
1e-20
1e-20
1e-20
1e-20
1e-20
1e-20
1e-20
1e-20
1e-20
1e-20
1e-20
1e-20
1e-20
1e-20
1e-20
1e-20
1e-20
1e-20
1e-20
1e-20
1e-20
1e-20
1e-20
1e-20
1e-20
1e-20
1e-20
1e-20
1e-20
1e-20
1e-20
1e-20
1e-20
1e-20
1e-20
1e-20
1e-20
1e-20
1e-20
1e-20
1e-20
1e-20
1e-20
1e-20
1e-20
1e-20
1e-20
1e-20
1e-20
1e-20
1e-20
1e-20
1e-20
1e-20
1e-20
1e-20
1e-20
1e-20
1e-20
1e-20
1e-20
1e-20
1e-20
1e-20
1e-20
1e-20
1e-20
1e-20
1e-20
1e-20
1e-20
1e-20
1e-20
1e-20
1e-20
1e-20
1e-20
1e-20
1e-20
1e-20
1e-20
1e-20
1e-20
1e-20
1e-20
1e-20
1e-20
1e-20
2.18131e-20
6.65331e-20
1.89027e-19
5.04534e-19
1.69218e-18
1.377e-17
2.40591e-16
5.37122e-15
1.40683e-13
4.31003e-12
1.55248e-10
6.62679e-09
3.37482e-07
2.06043e-05
0.00146455
0.0581149
0.219108
0.199447
0.160426
0.121146
0.0872476
0.0603292
0.0405805
0.0272135
0.0187497
0.0135791
0.0104252
0.00845782
0.00719002
0.00634595
0.00576827
0.00536472
0.00507925
0.0048765
0.00473333
0.00463409
0.00456783
0.0045267
0.00450492
0.00449812
0.00450294
0.00451674
0.00453742
0.00456327
0.00459291
0.00462518
0.00465911
0.00469389
0.00472884
0.00476336
0.00479697
0.00482924
0.00485981
0.00488837
0.00491466
0.00493847
0.00495961
0.00497794
0.00499333
0.00500569
0.00501495
0.00502107
0.005024
0.00502374
0.00502029
0.00501367
0.00500389
0.00499087
0.00497437
0.00495423
0.00493032
0.00490249
0.00487062
0.00483456
0.0047942
0.00474942
0.0047001
0.00464615
0.00458748
0.00452401
0.00445567
0.00438241
0.00430419
0.00422099
0.00413282
0.00403968
0.00394162
0.00383871
0.00373102
0.00361868
0.00350182
0.00338062
0.00325527
0.00312603
0.00299315
0.00285696
0.0027178
0.00257607
0.00243219
0.00228666
0.00214
0.0019928
0.00184567
0.00169931
0.00155443
0.00141183
0.00127231
0.00113674
0.00100603
0.000881068
0.000762782
0.000652056
0.000549722
0.000456517
0.000373029
0.000299644
0.000236491
0.000183388
0.00013982
0.000104944
7.76514e-05
5.66664e-05
4.06805e-05
2.84835e-05
1.9073e-05
1.17318e-05
6.07864e-06
2.08177e-06
2.74085e-07
1.04683e-08
2.40865e-10
5.15966e-12
1.05266e-13
2.04066e-15
3.75156e-17
6.5961e-19
1.8559e-20
1e-20
1e-20
1e-20
1e-20
1e-20
1e-20
1e-20
1e-20
1e-20
1e-20
1e-20
1e-20
1e-20
1e-20
1e-20
1e-20
1e-20
1e-20
1e-20
1e-20
1e-20
1e-20
1e-20
1e-20
1e-20
1e-20
1e-20
1e-20
1e-20
1e-20
1e-20
1e-20
1e-20
1e-20
1e-20
1e-20
1e-20
1e-20
1e-20
1e-20
1e-20
1e-20
1e-20
1e-20
1e-20
1e-20
1e-20
1e-20
1e-20
1e-20
1e-20
1e-20
1e-20
1e-20
1e-20
1e-20
1e-20
1e-20
1e-20
1e-20
1e-20
1e-20
1e-20
1e-20
1e-20
1e-20
1e-20
1e-20
1e-20
1e-20
1e-20
1e-20
1e-20
1e-20
1e-20
1e-20
1e-20
1e-20
1e-20
1e-20
1e-20
1e-20
1e-20
1e-20
1e-20
1e-20
1e-20
1e-20
1e-20
)
;

boundaryField
{
    inandouthalf11
    {
        type            cyclic;
    }
    inandouthalf12
    {
        type            cyclic;
    }
    inandouthalf21
    {
        type            cyclic;
    }
    inandouthalf22
    {
        type            cyclic;
    }
    inandouthalf31
    {
        type            cyclic;
    }
    inandouthalf32
    {
        type            cyclic;
    }
    inandouthalf41
    {
        type            cyclic;
    }
    inandouthalf42
    {
        type            cyclic;
    }
    top
    {
        type            symmetryPlane;
    }
    walls
    {
        type            zeroGradient;
    }
    frontAndBackPlanes
    {
        type            empty;
    }
}


// ************************************************************************* //
