/*--------------------------------*- C++ -*----------------------------------*\
| =========                 |                                                 |
| \\      /  F ield         | OpenFOAM: The Open Source CFD Toolbox           |
|  \\    /   O peration     | Version:  2.4.x                                 |
|   \\  /    A nd           | Web:      www.OpenFOAM.org                      |
|    \\/     M anipulation  |                                                 |
\*---------------------------------------------------------------------------*/
FoamFile
{
    version     2.0;
    format      ascii;
    class       volScalarField;
    location    "7.85";
    object      k;
}
// * * * * * * * * * * * * * * * * * * * * * * * * * * * * * * * * * * * * * //

dimensions      [0 2 -2 0 0 0 0];

internalField   nonuniform List<scalar> 
360
(
1e-20
1e-20
1e-20
1e-20
1e-20
1e-20
1e-20
1e-20
1e-20
1e-20
1e-20
1e-20
1e-20
1e-20
1e-20
1e-20
1e-20
1e-20
1e-20
1e-20
1e-20
1e-20
1e-20
1e-20
1e-20
1e-20
1e-20
1e-20
1e-20
1e-20
1e-20
1e-20
1e-20
1e-20
1e-20
1e-20
1e-20
1e-20
1e-20
1e-20
1e-20
1e-20
1e-20
1e-20
1e-20
1e-20
1e-20
1e-20
1e-20
1e-20
1e-20
1e-20
1e-20
1e-20
1e-20
1e-20
1e-20
1e-20
1e-20
1e-20
1e-20
1e-20
1e-20
1e-20
1e-20
1e-20
1e-20
1e-20
1e-20
1e-20
1e-20
1e-20
1e-20
1e-20
1e-20
1e-20
1e-20
1e-20
1e-20
1e-20
1e-20
1e-20
1e-20
1e-20
1e-20
1e-20
1e-20
1e-20
1e-20
1e-20
1e-20
1e-20
1e-20
1e-20
1e-20
1e-20
1e-20
1e-20
1e-20
1e-20
1e-20
1e-20
1e-20
1e-20
1e-20
1e-20
1e-20
1e-20
1e-20
1e-20
1e-20
1e-20
1e-20
1e-20
1e-20
1e-20
1e-20
1e-20
1e-20
1e-20
1e-20
1e-20
1e-20
1e-20
1e-20
1e-20
1e-20
1e-20
1e-20
1e-20
1e-20
1e-20
1e-20
1e-20
2.02601e-20
5.77743e-20
1.48238e-19
3.16737e-19
6.14354e-19
2.77981e-18
3.82944e-17
7.06578e-16
1.52778e-14
3.84476e-13
1.13053e-11
3.91681e-10
1.61042e-08
7.87627e-07
4.41297e-05
0.00134744
0.00477176
0.00546042
0.00537703
0.00493814
0.00435938
0.00376776
0.00325031
0.00285732
0.0025977
0.00244901
0.00237843
0.00235787
0.00236813
0.00239724
0.002438
0.00248605
0.00253868
0.00259417
0.00265136
0.00270948
0.00276795
0.00282635
0.00288435
0.0029417
0.00299816
0.00305356
0.00310774
0.00316055
0.00321188
0.0032616
0.00330963
0.00335588
0.00340027
0.00344273
0.0034832
0.00352163
0.00355798
0.00359221
0.00362428
0.00365419
0.0036819
0.0037074
0.0037307
0.00375178
0.00377064
0.0037873
0.00380177
0.00381406
0.00382419
0.00383217
0.00383805
0.00384187
0.0038436
0.00384316
0.00384042
0.00383531
0.0038277
0.00381751
0.00380463
0.00378895
0.00377038
0.0037488
0.00372412
0.00369625
0.00366507
0.00363051
0.00359246
0.00355085
0.00350558
0.0034566
0.00340382
0.00334719
0.00328666
0.00322218
0.00315374
0.00308131
0.00300489
0.0029245
0.00284017
0.00275196
0.00265993
0.00256421
0.00246491
0.0023622
0.00225628
0.00214739
0.0020358
0.00192185
0.00180591
0.00168844
0.00156993
0.00145095
0.00133216
0.00121427
0.00109809
0.000984486
0.000874394
0.000768798
0.000668692
0.00057504
0.00048871
0.000410393
0.000340518
0.000279172
0.000226057
0.000180503
0.000141555
0.000108115
7.91238e-05
5.37576e-05
3.16533e-05
1.31673e-05
2.16244e-06
9.12629e-08
2.0925e-09
4.43405e-11
8.95343e-13
1.71904e-14
3.13151e-16
5.40834e-18
9.46237e-20
1.01949e-20
1e-20
1e-20
1e-20
1e-20
1e-20
1e-20
1e-20
1e-20
1e-20
1e-20
1e-20
1e-20
1e-20
1e-20
1e-20
1e-20
1e-20
1e-20
1e-20
1e-20
1e-20
1e-20
1e-20
1e-20
1e-20
1e-20
1e-20
1e-20
1e-20
1e-20
1e-20
1e-20
1e-20
1e-20
1e-20
1e-20
1e-20
1e-20
1e-20
1e-20
1e-20
1e-20
1e-20
1e-20
1e-20
1e-20
1e-20
1e-20
1e-20
1e-20
1e-20
1e-20
1e-20
1e-20
1e-20
1e-20
1e-20
1e-20
1e-20
1e-20
1e-20
1e-20
1e-20
1e-20
1e-20
1e-20
1e-20
1e-20
1e-20
1e-20
1e-20
1e-20
1e-20
1e-20
1e-20
1e-20
1e-20
1e-20
1e-20
1e-20
1e-20
1e-20
1e-20
1e-20
1e-20
1e-20
1e-20
1e-20
)
;

boundaryField
{
    inandouthalf11
    {
        type            cyclic;
    }
    inandouthalf12
    {
        type            cyclic;
    }
    inandouthalf21
    {
        type            cyclic;
    }
    inandouthalf22
    {
        type            cyclic;
    }
    inandouthalf31
    {
        type            cyclic;
    }
    inandouthalf32
    {
        type            cyclic;
    }
    inandouthalf41
    {
        type            cyclic;
    }
    inandouthalf42
    {
        type            cyclic;
    }
    top
    {
        type            symmetryPlane;
    }
    walls
    {
        type            zeroGradient;
    }
    frontAndBackPlanes
    {
        type            empty;
    }
}


// ************************************************************************* //
