/*--------------------------------*- C++ -*----------------------------------*\
| =========                 |                                                 |
| \\      /  F ield         | OpenFOAM: The Open Source CFD Toolbox           |
|  \\    /   O peration     | Version:  2.4.x                                 |
|   \\  /    A nd           | Web:      www.OpenFOAM.org                      |
|    \\/     M anipulation  |                                                 |
\*---------------------------------------------------------------------------*/
FoamFile
{
    version     2.0;
    format      ascii;
    class       volScalarField;
    location    "7.85";
    object      mua;
}
// * * * * * * * * * * * * * * * * * * * * * * * * * * * * * * * * * * * * * //

dimensions      [1 -1 -1 0 0 0 0];

internalField   nonuniform List<scalar> 
360
(
1.96314e+06
1.37622e+06
1.69414e+06
1.73537e+06
1.63983e+06
1.59236e+06
1.58199e+06
1.57885e+06
1.57506e+06
1.57012e+06
1.56487e+06
1.56041e+06
1.55682e+06
1.5538e+06
1.55073e+06
1.54715e+06
1.543e+06
1.53842e+06
1.53332e+06
1.52763e+06
1.52159e+06
1.51487e+06
1.50751e+06
1.49962e+06
1.4912e+06
1.48236e+06
1.47307e+06
1.46316e+06
1.4529e+06
1.4424e+06
1.43152e+06
1.4203e+06
1.409e+06
1.39716e+06
1.38535e+06
1.37345e+06
1.36147e+06
1.34914e+06
1.33673e+06
1.32463e+06
1.31209e+06
1.29974e+06
1.28764e+06
1.27518e+06
1.26286e+06
1.25058e+06
1.23856e+06
1.22705e+06
1.21518e+06
1.20309e+06
1.19159e+06
1.18017e+06
1.16886e+06
1.15775e+06
1.14698e+06
1.13623e+06
1.12601e+06
1.11597e+06
1.10645e+06
1.09729e+06
1.08784e+06
1.07864e+06
1.06945e+06
1.06061e+06
1.05218e+06
1.04416e+06
1.03636e+06
1.02893e+06
1.02207e+06
1.01549e+06
1.00851e+06
1.00154e+06
994999
988241
981429
974773
968735
963125
957722
952536
947545
942443
937129
931665
926117
920625
915334
910436
905966
901854
898019
894335
890640
886858
882979
879036
875098
871245
867532
863989
860617
857398
854296
851276
848298
845311
842248
839017
835498
831539
826963
821565
815122
807402
798179
787250
774461
759729
743078
724659
704773
683881
662578
641555
621522
603140
586986
573605
563649
557989
557567
562782
572597
584363
595229
603327
605211
592546
560047
526684
542188
675746
1.05618e+06
2.20725e+06
6.64899e+06
1.38301e+07
666.23
2.51031
0.0404987
0.0096398
0.00644091
0.00551289
0.00496365
0.00459768
0.00432779
0.00411123
0.00393483
0.00379563
0.00368962
0.00361021
0.00355108
0.00350742
0.00347582
0.00345375
0.00343928
0.0034309
0.00342737
0.00342768
0.003431
0.00343663
0.00344399
0.00345258
0.003462
0.00347189
0.00348197
0.00349197
0.00350169
0.00351097
0.00351964
0.0035276
0.00353474
0.00354097
0.00354624
0.00355049
0.00355367
0.00355577
0.00355676
0.00355662
0.00355535
0.00355295
0.00354942
0.00354477
0.00353902
0.00353219
0.00352428
0.00351533
0.00350535
0.00349439
0.00348245
0.00346957
0.00345579
0.00344097
0.00342497
0.00340775
0.00338927
0.0033695
0.00334842
0.00332597
0.00330213
0.00327683
0.00325004
0.0032217
0.00319173
0.00316007
0.00312663
0.00309132
0.00305402
0.00301461
0.00297294
0.00292883
0.00288207
0.00283244
0.00277964
0.00272332
0.00266307
0.00259837
0.00252858
0.00245288
0.00237023
0.00227923
0.00217795
0.00206359
0.00193187
0.00177556
0.00158079
0.00131341
0
0
0
0
0
0
0
0
0
0
0
0
0
0
0
0
0
0
0
0
0
0
0
0
0
0
0
0
0
0
0
0
0
0
0
0
0
0
0
0
0
0
0
0
0
0
0
0
0
0
0
0
0
0
0
0
0
0
0
0
0
0
0
0
0
0
0
0
0
0
0
0
0
0
0
0
0
0
0
0
0
0
0
0
0
0
0
0
0
0
0
0
0
0
0
0
0
0
0
0
0
0
0
0
0
0
0
0
0
0
0
0
0
0
0
0
0
0
0
0
0
0
0
0
)
;

boundaryField
{
    inandouthalf11
    {
        type            cyclic;
    }
    inandouthalf12
    {
        type            cyclic;
    }
    inandouthalf21
    {
        type            cyclic;
    }
    inandouthalf22
    {
        type            cyclic;
    }
    inandouthalf31
    {
        type            cyclic;
    }
    inandouthalf32
    {
        type            cyclic;
    }
    inandouthalf41
    {
        type            cyclic;
    }
    inandouthalf42
    {
        type            cyclic;
    }
    top
    {
        type            symmetryPlane;
    }
    walls
    {
        type            calculated;
        value           uniform 1e+30;
    }
    frontAndBackPlanes
    {
        type            empty;
    }
}


// ************************************************************************* //
