/*--------------------------------*- C++ -*----------------------------------*\
| =========                 |                                                 |
| \\      /  F ield         | OpenFOAM: The Open Source CFD Toolbox           |
|  \\    /   O peration     | Version:  2.4.x                                 |
|   \\  /    A nd           | Web:      www.OpenFOAM.org                      |
|    \\/     M anipulation  |                                                 |
\*---------------------------------------------------------------------------*/
FoamFile
{
    version     2.0;
    format      ascii;
    class       volScalarField;
    location    "7.85";
    object      pa;
}
// * * * * * * * * * * * * * * * * * * * * * * * * * * * * * * * * * * * * * //

dimensions      [1 -1 -2 0 0 0 0];

internalField   nonuniform List<scalar> 
360
(
2.90224e-16
2.92731e-16
2.92972e-16
2.92711e-16
2.92588e-16
2.92547e-16
2.92495e-16
2.92429e-16
2.92362e-16
2.92294e-16
2.92224e-16
2.92155e-16
2.92086e-16
2.92016e-16
2.91945e-16
2.91874e-16
2.91802e-16
2.9173e-16
2.91657e-16
2.91583e-16
2.9151e-16
2.91435e-16
2.9136e-16
2.91284e-16
2.91208e-16
2.91131e-16
2.91053e-16
2.90975e-16
2.90896e-16
2.90816e-16
2.90736e-16
2.90654e-16
2.90573e-16
2.9049e-16
2.90406e-16
2.90322e-16
2.90237e-16
2.90151e-16
2.90064e-16
2.89977e-16
2.89887e-16
2.89798e-16
2.89708e-16
2.89616e-16
2.89524e-16
2.8943e-16
2.89335e-16
2.8924e-16
2.89144e-16
2.89045e-16
2.88947e-16
2.88847e-16
2.88746e-16
2.88643e-16
2.88541e-16
2.88435e-16
2.8833e-16
2.88222e-16
2.88114e-16
2.88005e-16
2.87892e-16
2.8778e-16
2.87666e-16
2.8755e-16
2.87433e-16
2.87315e-16
2.87195e-16
2.87073e-16
2.86949e-16
2.86825e-16
2.86698e-16
2.86569e-16
2.8644e-16
2.86307e-16
2.86173e-16
2.86037e-16
2.85899e-16
2.8576e-16
2.85618e-16
2.85474e-16
2.85328e-16
2.85179e-16
2.85028e-16
2.84875e-16
2.8472e-16
2.84562e-16
2.84401e-16
2.84238e-16
2.84072e-16
2.83903e-16
2.83731e-16
2.83556e-16
2.83378e-16
2.83197e-16
2.83012e-16
2.82824e-16
2.82633e-16
2.82437e-16
2.82238e-16
2.82035e-16
2.81828e-16
2.81616e-16
2.814e-16
2.8118e-16
2.80954e-16
2.80724e-16
2.80488e-16
2.80248e-16
2.80001e-16
2.79749e-16
2.7949e-16
2.79225e-16
2.78954e-16
2.78675e-16
2.7839e-16
2.78097e-16
2.77796e-16
2.77487e-16
2.77169e-16
2.76843e-16
2.76507e-16
2.76161e-16
2.75805e-16
2.75438e-16
2.75059e-16
2.74668e-16
2.74263e-16
2.73843e-16
2.73407e-16
2.72953e-16
2.72481e-16
2.7199e-16
2.71478e-16
2.7094e-16
5.48464e-16
1.5614e-15
3.99921e-15
8.52839e-15
1.64754e-14
7.38269e-14
1.01052e-12
1.85553e-11
3.99016e-10
9.97581e-09
2.91865e-07
1.25007e-05
0.00220424
0.171454
3.17728
3.39432
2.56998
1.6795
1.02757
0.594866
0.329042
0.176711
0.0943272
0.0514074
0.029378
0.0180398
0.0120481
0.00868113
0.00663069
0.0052868
0.00435281
0.00367283
0.00315889
0.00275831
0.002438
0.00217624
0.0019583
0.00177389
0.00161563
0.00147813
0.00135737
0.00125029
0.00115455
0.00106834
0.000990211
0.00091902
0.000853847
0.000793942
0.000738689
0.000687575
0.000640172
0.000596116
0.000555093
0.000516835
0.000481108
0.000447707
0.000416449
0.000387175
0.000359736
0.000333998
0.000309838
0.000287141
0.000265801
0.000245719
0.000226805
0.000208981
0.000192183
0.000176202
0.000160874
0.000146206
0.000132213
0.000118915
0.000106345
9.4533e-05
8.35086e-05
7.32928e-05
6.39031e-05
5.53451e-05
4.76227e-05
4.07237e-05
3.46062e-05
2.92231e-05
2.4536e-05
2.04868e-05
1.70038e-05
1.40262e-05
1.14988e-05
9.37291e-06
7.59097e-06
6.10028e-06
4.86762e-06
3.85285e-06
3.01958e-06
2.3406e-06
1.79142e-06
1.3495e-06
9.98707e-07
7.19534e-07
5.08899e-07
3.45848e-07
2.18983e-07
9.98698e-08
0
0
0
0
0
0
0
0
0
0
0
0
0
0
0
0
0
0
0
0
0
0
0
0
0
0
0
0
0
0
0
0
0
0
0
0
0
0
0
0
0
0
0
0
0
0
0
0
0
0
0
0
0
0
0
0
0
0
0
0
0
0
0
0
0
0
0
0
0
0
0
0
0
0
0
0
0
0
0
0
0
0
0
0
0
0
0
0
0
0
0
0
0
0
0
0
0
0
0
0
0
0
0
0
0
0
0
0
0
0
0
0
0
0
0
0
0
0
0
0
0
0
0
0
)
;

boundaryField
{
    inandouthalf11
    {
        type            cyclic;
    }
    inandouthalf12
    {
        type            cyclic;
    }
    inandouthalf21
    {
        type            cyclic;
    }
    inandouthalf22
    {
        type            cyclic;
    }
    inandouthalf31
    {
        type            cyclic;
    }
    inandouthalf32
    {
        type            cyclic;
    }
    inandouthalf41
    {
        type            cyclic;
    }
    inandouthalf42
    {
        type            cyclic;
    }
    top
    {
        type            symmetryPlane;
    }
    walls
    {
        type            calculated;
        value           uniform 2.90224e-16;
    }
    frontAndBackPlanes
    {
        type            empty;
    }
}


// ************************************************************************* //
