/*--------------------------------*- C++ -*----------------------------------*\
| =========                 |                                                 |
| \\      /  F ield         | OpenFOAM: The Open Source CFD Toolbox           |
|  \\    /   O peration     | Version:  2.4.x                                 |
|   \\  /    A nd           | Web:      www.OpenFOAM.org                      |
|    \\/     M anipulation  |                                                 |
\*---------------------------------------------------------------------------*/
FoamFile
{
    version     2.0;
    format      ascii;
    class       surfaceScalarField;
    location    "7.85";
    object      phia_0;
}
// * * * * * * * * * * * * * * * * * * * * * * * * * * * * * * * * * * * * * //

dimensions      [0 3 -1 0 0 0 0];

internalField   nonuniform List<scalar> 
359
(
-1.82426e-13
-4.61192e-13
-7.17631e-13
-9.62315e-13
-1.21323e-12
-1.46952e-12
-1.7267e-12
-1.98303e-12
-2.23828e-12
-2.49271e-12
-2.74636e-12
-2.99909e-12
-3.25077e-12
-3.5013e-12
-3.75068e-12
-3.99898e-12
-4.24628e-12
-4.49264e-12
-4.73813e-12
-4.98286e-12
-5.22684e-12
-5.4702e-12
-5.71301e-12
-5.95537e-12
-6.19734e-12
-6.439e-12
-6.68039e-12
-6.92162e-12
-7.16275e-12
-7.4038e-12
-7.64482e-12
-7.88592e-12
-8.12702e-12
-8.3683e-12
-8.60967e-12
-8.85122e-12
-9.09292e-12
-9.33483e-12
-9.57701e-12
-9.81932e-12
-1.00619e-11
-1.03048e-11
-1.05477e-11
-1.0791e-11
-1.10345e-11
-1.12781e-11
-1.1522e-11
-1.17659e-11
-1.201e-11
-1.22542e-11
-1.24984e-11
-1.27428e-11
-1.29871e-11
-1.32314e-11
-1.34755e-11
-1.37196e-11
-1.39634e-11
-1.42069e-11
-1.445e-11
-1.46926e-11
-1.49348e-11
-1.51764e-11
-1.54175e-11
-1.56579e-11
-1.58977e-11
-1.61366e-11
-1.63745e-11
-1.66115e-11
-1.68473e-11
-1.70819e-11
-1.73153e-11
-1.75475e-11
-1.77784e-11
-1.8008e-11
-1.82363e-11
-1.84633e-11
-1.86887e-11
-1.89125e-11
-1.91346e-11
-1.9355e-11
-1.95734e-11
-1.979e-11
-2.00049e-11
-2.02178e-11
-2.0429e-11
-2.06383e-11
-2.08457e-11
-2.10511e-11
-2.12543e-11
-2.14552e-11
-2.16538e-11
-2.18499e-11
-2.20437e-11
-2.2235e-11
-2.24238e-11
-2.26102e-11
-2.27942e-11
-2.29756e-11
-2.31544e-11
-2.33307e-11
-2.35042e-11
-2.3675e-11
-2.3843e-11
-2.40081e-11
-2.41704e-11
-2.43298e-11
-2.44864e-11
-2.464e-11
-2.47908e-11
-2.49389e-11
-2.50841e-11
-2.52268e-11
-2.53671e-11
-2.5505e-11
-2.56409e-11
-2.5775e-11
-2.59075e-11
-2.60388e-11
-2.61691e-11
-2.62987e-11
-2.64279e-11
-2.65568e-11
-2.66855e-11
-2.68139e-11
-2.69419e-11
-2.70691e-11
-2.71949e-11
-2.73188e-11
-2.74397e-11
-2.75568e-11
-2.7669e-11
-2.7775e-11
-2.78744e-11
-2.79668e-11
-2.80528e-11
-2.81329e-11
-2.8208e-11
-2.82799e-11
-2.83506e-11
-2.84198e-11
-2.84817e-11
-2.85266e-11
-2.85526e-11
-2.85636e-11
-2.85667e-11
-2.85673e-11
-3.67e-11
-2.42142e-11
3.10589e-10
7.11831e-09
1.3226e-08
1.72491e-08
2.04102e-08
2.29685e-08
2.48454e-08
2.58427e-08
2.57291e-08
2.43022e-08
2.1605e-08
1.81187e-08
1.44503e-08
1.09588e-08
7.77885e-09
4.94362e-09
2.4433e-09
2.51337e-10
-1.66287e-09
-3.32893e-09
-4.77393e-09
-6.02213e-09
-7.09512e-09
-8.01212e-09
-8.79027e-09
-9.44486e-09
-9.98961e-09
-1.04368e-08
-1.07973e-08
-1.10811e-08
-1.12969e-08
-1.14524e-08
-1.15547e-08
-1.16099e-08
-1.16234e-08
-1.16001e-08
-1.15442e-08
-1.14595e-08
-1.13492e-08
-1.12163e-08
-1.10633e-08
-1.08926e-08
-1.07063e-08
-1.05061e-08
-1.02938e-08
-1.0071e-08
-9.83915e-09
-9.59986e-09
-9.35466e-09
-9.10522e-09
-8.85326e-09
-8.60063e-09
-8.3492e-09
-8.09585e-09
-7.84279e-09
-7.59246e-09
-7.34739e-09
-7.1102e-09
-6.88336e-09
-6.66921e-09
-6.46974e-09
-6.28671e-09
-6.12142e-09
-5.9748e-09
-5.84715e-09
-5.73797e-09
-5.64651e-09
-5.57179e-09
-5.51171e-09
-5.46341e-09
-5.42376e-09
-5.3885e-09
-5.35226e-09
-5.30692e-09
-5.2447e-09
-5.16456e-09
-5.06695e-09
-4.95186e-09
-4.81997e-09
-4.67127e-09
-4.50491e-09
-4.32157e-09
-4.11551e-09
-3.89356e-09
-3.63204e-09
-3.34859e-09
-2.91198e-09
-2.5537e-09
-1.76464e-09
-1.51162e-09
-1.8967e-10
5.82543e-10
1.18814e-09
3.67798e-09
-6.78367e-08
-1.4887e-07
-1.58386e-07
-1.58222e-07
-1.58217e-07
-1.58194e-07
-1.58171e-07
-1.58146e-07
-1.58119e-07
-1.58092e-07
-1.58068e-07
-1.58046e-07
-1.58025e-07
-1.58006e-07
-1.57992e-07
-1.5798e-07
-1.57969e-07
-1.57958e-07
-1.57944e-07
-1.57912e-07
-1.5788e-07
-1.57875e-07
-1.57875e-07
-1.57875e-07
-1.57875e-07
-1.57875e-07
-1.57875e-07
-1.57875e-07
-1.57875e-07
-1.57875e-07
-1.57875e-07
-1.57875e-07
-1.57875e-07
-1.57875e-07
-1.57875e-07
-1.57875e-07
-1.57875e-07
-1.57875e-07
-1.57875e-07
-1.57875e-07
-1.57875e-07
-1.57875e-07
-1.57875e-07
-1.57875e-07
-1.57875e-07
-1.57875e-07
-1.57875e-07
-1.57875e-07
-1.57875e-07
-1.57875e-07
-1.57875e-07
-1.57875e-07
-1.57875e-07
-1.57875e-07
-1.57875e-07
-1.57875e-07
-1.57875e-07
-1.57875e-07
-1.57875e-07
-1.57875e-07
-1.57875e-07
-1.57875e-07
-1.57875e-07
-1.57875e-07
-1.57875e-07
-1.57875e-07
-1.57875e-07
-1.57875e-07
-1.57875e-07
-1.57875e-07
-1.57875e-07
-1.57875e-07
-1.57875e-07
-1.57875e-07
-1.57875e-07
-1.57875e-07
-1.57875e-07
-1.57875e-07
-1.57875e-07
-1.57875e-07
-1.57875e-07
-1.57875e-07
-1.57875e-07
-1.57875e-07
-1.57875e-07
-1.57875e-07
-1.57875e-07
-1.57875e-07
-1.57875e-07
-1.57875e-07
-1.57875e-07
-1.57875e-07
-1.57875e-07
-1.57875e-07
-1.57875e-07
-1.57875e-07
-1.57875e-07
-1.57875e-07
-1.57875e-07
-1.57875e-07
-1.57875e-07
-1.57875e-07
-1.57875e-07
-1.57875e-07
-1.57875e-07
-1.57875e-07
-1.57875e-07
-1.57875e-07
-1.57875e-07
-1.57875e-07
-1.57875e-07
-1.57875e-07
-1.57875e-07
-1.57875e-07
-1.57857e-07
-1.57148e-07
-1.31887e-07
)
;

boundaryField
{
    inandouthalf11
    {
        type            cyclic;
        value           nonuniform List<scalar> 
100
(
-1.30566e-38
-1.54434e-14
-3.20298e-14
-4.6691e-14
-6.13988e-14
-7.65616e-14
-9.18032e-14
-1.06913e-13
-1.21862e-13
-1.36659e-13
-1.51312e-13
-1.6582e-13
-1.80176e-13
-1.94376e-13
-2.08419e-13
-2.22308e-13
-2.36049e-13
-2.49648e-13
-2.63111e-13
-2.76444e-13
-2.8965e-13
-3.02737e-13
-3.15709e-13
-3.28573e-13
-3.41335e-13
-3.53998e-13
-3.66566e-13
-3.79046e-13
-3.91441e-13
-4.03753e-13
-4.15987e-13
-4.28145e-13
-4.4023e-13
-4.52243e-13
-4.64189e-13
-4.76066e-13
-4.87876e-13
-4.9962e-13
-5.11302e-13
-5.22919e-13
-5.34472e-13
-5.45963e-13
-5.5739e-13
-5.68752e-13
-5.80051e-13
-5.91286e-13
-6.02455e-13
-6.13555e-13
-6.24584e-13
-6.35546e-13
-6.46438e-13
-6.57257e-13
-6.68002e-13
-6.7867e-13
-6.8926e-13
-6.99768e-13
-7.10193e-13
-7.20529e-13
-7.30775e-13
-7.40924e-13
-7.50976e-13
-7.60931e-13
-7.70787e-13
-7.80542e-13
-7.90192e-13
-7.99733e-13
-8.0916e-13
-8.18472e-13
-8.27663e-13
-8.36729e-13
-8.45671e-13
-8.54489e-13
-8.63181e-13
-8.71747e-13
-8.80186e-13
-8.88497e-13
-8.96678e-13
-9.04722e-13
-9.12628e-13
-9.20393e-13
-9.28015e-13
-9.35493e-13
-9.4283e-13
-9.50026e-13
-9.57081e-13
-9.63994e-13
-9.70766e-13
-9.77392e-13
-9.8387e-13
-9.90197e-13
-9.9637e-13
-1.00239e-12
-1.00825e-12
-1.01396e-12
-1.01951e-12
-1.02491e-12
-1.03016e-12
-1.03525e-12
-1.04019e-12
-1.04497e-12
)
;
    }
    inandouthalf12
    {
        type            cyclic;
        value           nonuniform List<scalar> 
100
(
1.30566e-38
1.54434e-14
3.20298e-14
4.6691e-14
6.13988e-14
7.65616e-14
9.18032e-14
1.06913e-13
1.21862e-13
1.36659e-13
1.51312e-13
1.6582e-13
1.80176e-13
1.94376e-13
2.08419e-13
2.22308e-13
2.36049e-13
2.49648e-13
2.63111e-13
2.76444e-13
2.8965e-13
3.02737e-13
3.15709e-13
3.28573e-13
3.41335e-13
3.53998e-13
3.66566e-13
3.79046e-13
3.91441e-13
4.03753e-13
4.15987e-13
4.28145e-13
4.4023e-13
4.52243e-13
4.64189e-13
4.76066e-13
4.87876e-13
4.9962e-13
5.11302e-13
5.22919e-13
5.34472e-13
5.45963e-13
5.5739e-13
5.68752e-13
5.80051e-13
5.91286e-13
6.02455e-13
6.13555e-13
6.24584e-13
6.35546e-13
6.46438e-13
6.57257e-13
6.68002e-13
6.7867e-13
6.8926e-13
6.99768e-13
7.10193e-13
7.20529e-13
7.30775e-13
7.40924e-13
7.50976e-13
7.60931e-13
7.70787e-13
7.80542e-13
7.90192e-13
7.99733e-13
8.0916e-13
8.18472e-13
8.27663e-13
8.36729e-13
8.45671e-13
8.54489e-13
8.63181e-13
8.71747e-13
8.80186e-13
8.88497e-13
8.96678e-13
9.04722e-13
9.12628e-13
9.20393e-13
9.28015e-13
9.35493e-13
9.4283e-13
9.50026e-13
9.57081e-13
9.63994e-13
9.70766e-13
9.77392e-13
9.8387e-13
9.90197e-13
9.9637e-13
1.00239e-12
1.00825e-12
1.01396e-12
1.01951e-12
1.02491e-12
1.03016e-12
1.03525e-12
1.04019e-12
1.04497e-12
)
;
    }
    inandouthalf21
    {
        type            cyclic;
        value           nonuniform List<scalar> 
100
(
-1.04959e-12
-1.05406e-12
-1.05837e-12
-1.06252e-12
-1.06651e-12
-1.07035e-12
-1.07403e-12
-1.07755e-12
-1.08091e-12
-1.08412e-12
-1.08718e-12
-1.09009e-12
-1.09284e-12
-1.09545e-12
-1.09792e-12
-1.10024e-12
-1.10241e-12
-1.10444e-12
-1.10632e-12
-1.10804e-12
-1.10961e-12
-1.11099e-12
-1.11219e-12
-1.11318e-12
-1.11395e-12
-1.11446e-12
-1.1147e-12
-1.11465e-12
-1.11429e-12
-1.1136e-12
-1.11259e-12
-1.11127e-12
-1.10967e-12
-1.10779e-12
-1.10567e-12
-1.10332e-12
-1.10072e-12
-1.09783e-12
-1.09455e-12
-1.09076e-12
-1.08657e-12
-1.08264e-12
-1.07973e-12
-1.07821e-12
-1.07777e-12
-1.07776e-12
-1.07806e-12
-9.30727e-12
-1.86723e-09
-7.17752e-08
-2.0489e-07
-3.05076e-07
-3.8035e-07
-4.37975e-07
-4.81937e-07
-5.14803e-07
-5.38695e-07
-5.55665e-07
-5.67627e-07
-5.76127e-07
-5.82247e-07
-5.86684e-07
-5.89881e-07
-5.92133e-07
-5.93645e-07
-5.94565e-07
-5.95002e-07
-5.95041e-07
-5.94749e-07
-5.94178e-07
-5.93372e-07
-5.92366e-07
-5.91189e-07
-5.89869e-07
-5.88425e-07
-5.86876e-07
-5.8524e-07
-5.8353e-07
-5.81759e-07
-5.79939e-07
-5.7808e-07
-5.76191e-07
-5.7428e-07
-5.72355e-07
-5.70423e-07
-5.68491e-07
-5.66565e-07
-5.64649e-07
-5.6275e-07
-5.60872e-07
-5.59019e-07
-5.57197e-07
-5.55409e-07
-5.53658e-07
-5.51949e-07
-5.50284e-07
-5.48668e-07
-5.47102e-07
-5.45591e-07
-5.44137e-07
)
;
    }
    inandouthalf22
    {
        type            cyclic;
        value           nonuniform List<scalar> 
100
(
1.04959e-12
1.05406e-12
1.05837e-12
1.06252e-12
1.06651e-12
1.07035e-12
1.07403e-12
1.07755e-12
1.08091e-12
1.08412e-12
1.08718e-12
1.09009e-12
1.09284e-12
1.09545e-12
1.09792e-12
1.10024e-12
1.10241e-12
1.10444e-12
1.10632e-12
1.10804e-12
1.10961e-12
1.11099e-12
1.11219e-12
1.11318e-12
1.11395e-12
1.11446e-12
1.1147e-12
1.11465e-12
1.11429e-12
1.1136e-12
1.11259e-12
1.11127e-12
1.10967e-12
1.10779e-12
1.10567e-12
1.10332e-12
1.10072e-12
1.09783e-12
1.09455e-12
1.09076e-12
1.08657e-12
1.08264e-12
1.07973e-12
1.07821e-12
1.07777e-12
1.07776e-12
1.07806e-12
9.30727e-12
1.86723e-09
7.17752e-08
2.0489e-07
3.05076e-07
3.8035e-07
4.37975e-07
4.81937e-07
5.14803e-07
5.38695e-07
5.55665e-07
5.67627e-07
5.76127e-07
5.82247e-07
5.86684e-07
5.89881e-07
5.92133e-07
5.93645e-07
5.94565e-07
5.95002e-07
5.95041e-07
5.94749e-07
5.94178e-07
5.93372e-07
5.92366e-07
5.91189e-07
5.89869e-07
5.88425e-07
5.86876e-07
5.8524e-07
5.8353e-07
5.81759e-07
5.79939e-07
5.7808e-07
5.76191e-07
5.7428e-07
5.72355e-07
5.70423e-07
5.68491e-07
5.66565e-07
5.64649e-07
5.6275e-07
5.60872e-07
5.59019e-07
5.57197e-07
5.55409e-07
5.53658e-07
5.51949e-07
5.50284e-07
5.48668e-07
5.47102e-07
5.45591e-07
5.44137e-07
)
;
    }
    inandouthalf31
    {
        type            cyclic;
        value           nonuniform List<scalar> 
110
(
-5.42744e-07
-5.52385e-07
-5.62232e-07
-5.72288e-07
-5.82561e-07
-5.93056e-07
-6.03778e-07
-6.14734e-07
-6.25929e-07
-6.37368e-07
-6.49057e-07
-6.61e-07
-6.73203e-07
-6.85669e-07
-6.98403e-07
-7.1141e-07
-7.24693e-07
-7.38257e-07
-7.52106e-07
-7.66244e-07
-7.80676e-07
-7.95406e-07
-8.1044e-07
-8.25781e-07
-8.41436e-07
-8.57411e-07
-8.73714e-07
-8.90353e-07
-9.07338e-07
-9.24682e-07
-9.42401e-07
-9.60514e-07
-9.79052e-07
-9.98062e-07
-1.0176e-06
-1.0377e-06
-1.05818e-06
-9.79943e-07
-9.93459e-07
-1.0072e-06
-1.02125e-06
-1.03569e-06
-1.0502e-06
-1.0691e-06
-1.08607e-06
-1.10193e-06
-1.11907e-06
-1.13687e-06
-1.15551e-06
-1.17508e-06
-1.19566e-06
-1.21736e-06
-1.24022e-06
-1.26445e-06
-1.28987e-06
-1.31661e-06
-1.34463e-06
-1.37387e-06
-1.40423e-06
-1.43557e-06
-1.46767e-06
-1.50024e-06
-1.53217e-06
-1.56354e-06
-1.59529e-06
-1.62767e-06
-1.66071e-06
-1.69442e-06
-1.72881e-06
-1.7639e-06
-1.7997e-06
-1.83623e-06
-1.8735e-06
-1.91153e-06
-1.95033e-06
-1.98991e-06
-2.0303e-06
-2.07151e-06
-2.11356e-06
-2.15646e-06
-2.20023e-06
-2.24489e-06
-2.29045e-06
-2.33694e-06
-2.38438e-06
-2.43278e-06
-2.48215e-06
-2.53254e-06
-2.58394e-06
-2.63639e-06
-2.6899e-06
-2.7445e-06
-2.8002e-06
-2.85704e-06
-2.91503e-06
-2.9742e-06
-3.03456e-06
-3.09616e-06
-3.159e-06
-3.22312e-06
-3.28854e-06
-3.35529e-06
-3.42339e-06
-3.49288e-06
-3.56377e-06
-3.63611e-06
-3.70991e-06
-3.78521e-06
-3.86204e-06
-3.94043e-06
)
;
    }
    inandouthalf32
    {
        type            cyclic;
        value           nonuniform List<scalar> 
110
(
5.42744e-07
5.52385e-07
5.62232e-07
5.72288e-07
5.82561e-07
5.93056e-07
6.03778e-07
6.14734e-07
6.25929e-07
6.37368e-07
6.49057e-07
6.61e-07
6.73203e-07
6.85669e-07
6.98403e-07
7.1141e-07
7.24693e-07
7.38257e-07
7.52106e-07
7.66244e-07
7.80676e-07
7.95406e-07
8.1044e-07
8.25781e-07
8.41436e-07
8.57411e-07
8.73714e-07
8.90353e-07
9.07338e-07
9.24682e-07
9.42401e-07
9.60514e-07
9.79052e-07
9.98062e-07
1.0176e-06
1.0377e-06
1.05818e-06
9.79943e-07
9.93459e-07
1.0072e-06
1.02125e-06
1.03569e-06
1.0502e-06
1.0691e-06
1.08607e-06
1.10193e-06
1.11907e-06
1.13687e-06
1.15551e-06
1.17508e-06
1.19566e-06
1.21736e-06
1.24022e-06
1.26445e-06
1.28987e-06
1.31661e-06
1.34463e-06
1.37387e-06
1.40423e-06
1.43557e-06
1.46767e-06
1.50024e-06
1.53217e-06
1.56354e-06
1.59529e-06
1.62767e-06
1.66071e-06
1.69442e-06
1.72881e-06
1.7639e-06
1.7997e-06
1.83623e-06
1.8735e-06
1.91153e-06
1.95033e-06
1.98991e-06
2.0303e-06
2.07151e-06
2.11356e-06
2.15646e-06
2.20023e-06
2.24489e-06
2.29045e-06
2.33694e-06
2.38438e-06
2.43278e-06
2.48215e-06
2.53254e-06
2.58394e-06
2.63639e-06
2.6899e-06
2.7445e-06
2.8002e-06
2.85704e-06
2.91503e-06
2.9742e-06
3.03456e-06
3.09616e-06
3.159e-06
3.22312e-06
3.28854e-06
3.35529e-06
3.42339e-06
3.49288e-06
3.56377e-06
3.63611e-06
3.70991e-06
3.78521e-06
3.86204e-06
3.94043e-06
)
;
    }
    inandouthalf41
    {
        type            cyclic;
        value           nonuniform List<scalar> 
50
(
-3.52709e-06
-3.52709e-06
-3.52709e-06
-3.52709e-06
-3.52709e-06
-3.52709e-06
-3.52709e-06
-3.52709e-06
-3.52709e-06
-3.52709e-06
-3.52709e-06
-3.52709e-06
-3.52709e-06
-3.52709e-06
-3.52709e-06
-3.52709e-06
-3.52709e-06
-3.52709e-06
-3.52709e-06
-3.52709e-06
-3.52709e-06
-3.52709e-06
-3.52709e-06
-3.52709e-06
-3.52709e-06
-3.52709e-06
-3.52709e-06
-3.52709e-06
-3.52709e-06
-3.52709e-06
-3.52709e-06
-3.52709e-06
-3.52709e-06
-3.52709e-06
-3.52709e-06
-3.52709e-06
-3.52709e-06
-3.52709e-06
-3.52709e-06
-3.52709e-06
-3.52709e-06
-3.52709e-06
-3.52709e-06
-3.52709e-06
-3.52709e-06
-3.52709e-06
-3.52709e-06
-3.52708e-06
-3.52679e-06
-3.52019e-06
)
;
    }
    inandouthalf42
    {
        type            cyclic;
        value           nonuniform List<scalar> 
50
(
3.52709e-06
3.52709e-06
3.52709e-06
3.52709e-06
3.52709e-06
3.52709e-06
3.52709e-06
3.52709e-06
3.52709e-06
3.52709e-06
3.52709e-06
3.52709e-06
3.52709e-06
3.52709e-06
3.52709e-06
3.52709e-06
3.52709e-06
3.52709e-06
3.52709e-06
3.52709e-06
3.52709e-06
3.52709e-06
3.52709e-06
3.52709e-06
3.52709e-06
3.52709e-06
3.52709e-06
3.52709e-06
3.52709e-06
3.52709e-06
3.52709e-06
3.52709e-06
3.52709e-06
3.52709e-06
3.52709e-06
3.52709e-06
3.52709e-06
3.52709e-06
3.52709e-06
3.52709e-06
3.52709e-06
3.52709e-06
3.52709e-06
3.52709e-06
3.52709e-06
3.52709e-06
3.52709e-06
3.52708e-06
3.52679e-06
3.52019e-06
)
;
    }
    top
    {
        type            symmetryPlane;
        value           uniform 0;
    }
    walls
    {
        type            fixedValue;
        value           uniform 0;
    }
    frontAndBackPlanes
    {
        type            empty;
        value           nonuniform 0();
    }
}


// ************************************************************************* //
