/*--------------------------------*- C++ -*----------------------------------*\
| =========                 |                                                 |
| \\      /  F ield         | OpenFOAM: The Open Source CFD Toolbox           |
|  \\    /   O peration     | Version:  2.4.x                                 |
|   \\  /    A nd           | Web:      www.OpenFOAM.org                      |
|    \\/     M anipulation  |                                                 |
\*---------------------------------------------------------------------------*/
FoamFile
{
    version     2.0;
    format      ascii;
    class       surfaceScalarField;
    location    "7.85";
    object      phia;
}
// * * * * * * * * * * * * * * * * * * * * * * * * * * * * * * * * * * * * * //

dimensions      [0 3 -1 0 0 0 0];

internalField   nonuniform List<scalar> 
359
(
-1.8241e-13
-4.6115e-13
-7.1757e-13
-9.62237e-13
-1.21314e-12
-1.46941e-12
-1.72658e-12
-1.98289e-12
-2.23813e-12
-2.49254e-12
-2.74618e-12
-2.9989e-12
-3.25057e-12
-3.50108e-12
-3.75045e-12
-3.99873e-12
-4.24601e-12
-4.49236e-12
-4.73783e-12
-4.98254e-12
-5.22649e-12
-5.46983e-12
-5.71263e-12
-5.95496e-12
-6.19691e-12
-6.43855e-12
-6.67991e-12
-6.92112e-12
-7.16222e-12
-7.40325e-12
-7.64424e-12
-7.88531e-12
-8.12638e-12
-8.36763e-12
-8.60897e-12
-8.8505e-12
-9.09216e-12
-9.33404e-12
-9.57619e-12
-9.81846e-12
-1.0061e-11
-1.03038e-11
-1.05468e-11
-1.079e-11
-1.10335e-11
-1.12771e-11
-1.15209e-11
-1.17648e-11
-1.20088e-11
-1.2253e-11
-1.24972e-11
-1.27415e-11
-1.29858e-11
-1.32301e-11
-1.34742e-11
-1.37182e-11
-1.39619e-11
-1.42054e-11
-1.44485e-11
-1.4691e-11
-1.49332e-11
-1.51747e-11
-1.54158e-11
-1.56562e-11
-1.58959e-11
-1.61348e-11
-1.63727e-11
-1.66097e-11
-1.68455e-11
-1.708e-11
-1.73134e-11
-1.75455e-11
-1.77764e-11
-1.8006e-11
-1.82342e-11
-1.84612e-11
-1.86866e-11
-1.89103e-11
-1.91324e-11
-1.93527e-11
-1.95711e-11
-1.97877e-11
-2.00025e-11
-2.02154e-11
-2.04266e-11
-2.06359e-11
-2.08432e-11
-2.10485e-11
-2.12517e-11
-2.14526e-11
-2.16511e-11
-2.18472e-11
-2.20409e-11
-2.22322e-11
-2.2421e-11
-2.26074e-11
-2.27913e-11
-2.29727e-11
-2.31515e-11
-2.33277e-11
-2.35012e-11
-2.3672e-11
-2.38399e-11
-2.40051e-11
-2.41673e-11
-2.43267e-11
-2.44833e-11
-2.46369e-11
-2.47877e-11
-2.49357e-11
-2.50809e-11
-2.52236e-11
-2.53638e-11
-2.55018e-11
-2.56376e-11
-2.57717e-11
-2.59042e-11
-2.60355e-11
-2.61658e-11
-2.62954e-11
-2.64245e-11
-2.65534e-11
-2.66821e-11
-2.68106e-11
-2.69386e-11
-2.70658e-11
-2.71916e-11
-2.73154e-11
-2.74364e-11
-2.75535e-11
-2.76656e-11
-2.77717e-11
-2.7871e-11
-2.79635e-11
-2.80495e-11
-2.81296e-11
-2.82048e-11
-2.82767e-11
-2.83473e-11
-2.84165e-11
-2.84785e-11
-2.85234e-11
-2.85493e-11
-2.85604e-11
-2.85634e-11
-2.85641e-11
-3.6595e-11
-2.40178e-11
3.12712e-10
7.11931e-09
1.32219e-08
1.72457e-08
2.04079e-08
2.2968e-08
2.48477e-08
2.58489e-08
2.57404e-08
2.43196e-08
2.16277e-08
1.81445e-08
1.44769e-08
1.09851e-08
7.80432e-09
4.96807e-09
2.46668e-09
2.73669e-10
-1.64154e-09
-3.30854e-09
-4.75442e-09
-6.00343e-09
-7.07717e-09
-7.99486e-09
-8.77364e-09
-9.42882e-09
-9.97409e-09
-1.04217e-08
-1.07827e-08
-1.10669e-08
-1.1283e-08
-1.14388e-08
-1.15414e-08
-1.15968e-08
-1.16105e-08
-1.15874e-08
-1.15317e-08
-1.1447e-08
-1.13368e-08
-1.12039e-08
-1.1051e-08
-1.08804e-08
-1.06941e-08
-1.04939e-08
-1.02816e-08
-1.00587e-08
-9.82688e-09
-9.58756e-09
-9.34232e-09
-9.09282e-09
-8.84082e-09
-8.58813e-09
-8.33664e-09
-8.08324e-09
-7.83011e-09
-7.57971e-09
-7.33457e-09
-7.09732e-09
-6.87041e-09
-6.65619e-09
-6.45665e-09
-6.27356e-09
-6.1082e-09
-5.96152e-09
-5.83381e-09
-5.72457e-09
-5.63307e-09
-5.55831e-09
-5.49819e-09
-5.44988e-09
-5.41022e-09
-5.37495e-09
-5.33873e-09
-5.29342e-09
-5.23123e-09
-5.15113e-09
-5.05356e-09
-4.93851e-09
-4.80667e-09
-4.65801e-09
-4.4917e-09
-4.30841e-09
-4.10239e-09
-3.88048e-09
-3.61899e-09
-3.33555e-09
-2.89895e-09
-2.54069e-09
-1.75168e-09
-1.5017e-09
-1.83731e-10
5.909e-10
1.03104e-09
3.68638e-09
-6.78103e-08
-1.48862e-07
-1.58386e-07
-1.58222e-07
-1.58217e-07
-1.58194e-07
-1.58171e-07
-1.58146e-07
-1.58119e-07
-1.58092e-07
-1.58068e-07
-1.58046e-07
-1.58025e-07
-1.58006e-07
-1.57992e-07
-1.5798e-07
-1.57969e-07
-1.57958e-07
-1.57944e-07
-1.57912e-07
-1.5788e-07
-1.57875e-07
-1.57875e-07
-1.57875e-07
-1.57875e-07
-1.57875e-07
-1.57875e-07
-1.57875e-07
-1.57875e-07
-1.57875e-07
-1.57875e-07
-1.57875e-07
-1.57875e-07
-1.57875e-07
-1.57875e-07
-1.57875e-07
-1.57875e-07
-1.57875e-07
-1.57875e-07
-1.57875e-07
-1.57875e-07
-1.57875e-07
-1.57875e-07
-1.57875e-07
-1.57875e-07
-1.57875e-07
-1.57875e-07
-1.57875e-07
-1.57875e-07
-1.57875e-07
-1.57875e-07
-1.57875e-07
-1.57875e-07
-1.57875e-07
-1.57875e-07
-1.57875e-07
-1.57875e-07
-1.57875e-07
-1.57875e-07
-1.57875e-07
-1.57875e-07
-1.57875e-07
-1.57875e-07
-1.57875e-07
-1.57875e-07
-1.57875e-07
-1.57875e-07
-1.57875e-07
-1.57875e-07
-1.57875e-07
-1.57875e-07
-1.57875e-07
-1.57875e-07
-1.57875e-07
-1.57875e-07
-1.57875e-07
-1.57875e-07
-1.57875e-07
-1.57875e-07
-1.57875e-07
-1.57875e-07
-1.57875e-07
-1.57875e-07
-1.57875e-07
-1.57875e-07
-1.57875e-07
-1.57875e-07
-1.57875e-07
-1.57875e-07
-1.57875e-07
-1.57875e-07
-1.57875e-07
-1.57875e-07
-1.57875e-07
-1.57875e-07
-1.57875e-07
-1.57875e-07
-1.57875e-07
-1.57875e-07
-1.57875e-07
-1.57875e-07
-1.57875e-07
-1.57875e-07
-1.57875e-07
-1.57875e-07
-1.57875e-07
-1.57875e-07
-1.57875e-07
-1.57875e-07
-1.57875e-07
-1.57875e-07
-1.57875e-07
-1.57875e-07
-1.57875e-07
-1.57857e-07
-1.57148e-07
-1.31887e-07
)
;

boundaryField
{
    inandouthalf11
    {
        type            cyclic;
        value           nonuniform List<scalar> 
100
(
-1.30603e-38
-1.54465e-14
-3.20364e-14
-4.67009e-14
-6.14123e-14
-7.65789e-14
-9.18243e-14
-1.06938e-13
-1.21891e-13
-1.36692e-13
-1.51349e-13
-1.65861e-13
-1.80221e-13
-1.94425e-13
-2.08472e-13
-2.22364e-13
-2.3611e-13
-2.49713e-13
-2.6318e-13
-2.76516e-13
-2.89726e-13
-3.02816e-13
-3.15792e-13
-3.2866e-13
-3.41425e-13
-3.54092e-13
-3.66664e-13
-3.79147e-13
-3.91546e-13
-4.03862e-13
-4.16099e-13
-4.28261e-13
-4.40349e-13
-4.52366e-13
-4.64315e-13
-4.76195e-13
-4.88009e-13
-4.99757e-13
-5.11442e-13
-5.23063e-13
-5.3462e-13
-5.46114e-13
-5.57544e-13
-5.6891e-13
-5.80213e-13
-5.91451e-13
-6.02624e-13
-6.13728e-13
-6.24761e-13
-6.35727e-13
-6.46623e-13
-6.57445e-13
-6.68194e-13
-6.78866e-13
-6.8946e-13
-6.99972e-13
-7.104e-13
-7.20741e-13
-7.3099e-13
-7.41143e-13
-7.512e-13
-7.61159e-13
-7.71019e-13
-7.80778e-13
-7.90432e-13
-7.99977e-13
-8.09409e-13
-8.18724e-13
-8.2792e-13
-8.3699e-13
-8.45936e-13
-8.54758e-13
-8.63455e-13
-8.72024e-13
-8.80467e-13
-8.88783e-13
-8.96968e-13
-9.05016e-13
-9.12926e-13
-9.20695e-13
-9.28321e-13
-9.35804e-13
-9.43145e-13
-9.50345e-13
-9.57404e-13
-9.64322e-13
-9.71098e-13
-9.77728e-13
-9.8421e-13
-9.90541e-13
-9.96718e-13
-1.00274e-12
-1.00861e-12
-1.01432e-12
-1.01988e-12
-1.02528e-12
-1.03053e-12
-1.03563e-12
-1.04057e-12
-1.04535e-12
)
;
    }
    inandouthalf12
    {
        type            cyclic;
        value           nonuniform List<scalar> 
100
(
1.30603e-38
1.54465e-14
3.20364e-14
4.67009e-14
6.14123e-14
7.65789e-14
9.18243e-14
1.06938e-13
1.21891e-13
1.36692e-13
1.51349e-13
1.65861e-13
1.80221e-13
1.94425e-13
2.08472e-13
2.22364e-13
2.3611e-13
2.49713e-13
2.6318e-13
2.76516e-13
2.89726e-13
3.02816e-13
3.15792e-13
3.2866e-13
3.41425e-13
3.54092e-13
3.66664e-13
3.79147e-13
3.91546e-13
4.03862e-13
4.16099e-13
4.28261e-13
4.40349e-13
4.52366e-13
4.64315e-13
4.76195e-13
4.88009e-13
4.99757e-13
5.11442e-13
5.23063e-13
5.3462e-13
5.46114e-13
5.57544e-13
5.6891e-13
5.80213e-13
5.91451e-13
6.02624e-13
6.13728e-13
6.24761e-13
6.35727e-13
6.46623e-13
6.57445e-13
6.68194e-13
6.78866e-13
6.8946e-13
6.99972e-13
7.104e-13
7.20741e-13
7.3099e-13
7.41143e-13
7.512e-13
7.61159e-13
7.71019e-13
7.80778e-13
7.90432e-13
7.99977e-13
8.09409e-13
8.18724e-13
8.2792e-13
8.3699e-13
8.45936e-13
8.54758e-13
8.63455e-13
8.72024e-13
8.80467e-13
8.88783e-13
8.96968e-13
9.05016e-13
9.12926e-13
9.20695e-13
9.28321e-13
9.35804e-13
9.43145e-13
9.50345e-13
9.57404e-13
9.64322e-13
9.71098e-13
9.77728e-13
9.8421e-13
9.90541e-13
9.96718e-13
1.00274e-12
1.00861e-12
1.01432e-12
1.01988e-12
1.02528e-12
1.03053e-12
1.03563e-12
1.04057e-12
1.04535e-12
)
;
    }
    inandouthalf21
    {
        type            cyclic;
        value           nonuniform List<scalar> 
100
(
-1.04998e-12
-1.05445e-12
-1.05877e-12
-1.06292e-12
-1.06692e-12
-1.07076e-12
-1.07444e-12
-1.07796e-12
-1.08133e-12
-1.08455e-12
-1.08761e-12
-1.09052e-12
-1.09328e-12
-1.09589e-12
-1.09836e-12
-1.10069e-12
-1.10287e-12
-1.1049e-12
-1.10678e-12
-1.10851e-12
-1.11007e-12
-1.11147e-12
-1.11267e-12
-1.11366e-12
-1.11443e-12
-1.11495e-12
-1.1152e-12
-1.11515e-12
-1.11479e-12
-1.11411e-12
-1.1131e-12
-1.11179e-12
-1.11018e-12
-1.10831e-12
-1.1062e-12
-1.10385e-12
-1.10125e-12
-1.09836e-12
-1.09508e-12
-1.09129e-12
-1.08712e-12
-1.08318e-12
-1.08028e-12
-1.07876e-12
-1.07832e-12
-1.07831e-12
-1.07861e-12
-9.21288e-12
-1.88337e-09
-7.18699e-08
-2.04981e-07
-3.05158e-07
-3.80434e-07
-4.38071e-07
-4.82048e-07
-5.14933e-07
-5.38844e-07
-5.55831e-07
-5.67806e-07
-5.76315e-07
-5.82442e-07
-5.86884e-07
-5.90086e-07
-5.92342e-07
-5.93857e-07
-5.94779e-07
-5.95219e-07
-5.95261e-07
-5.94971e-07
-5.94402e-07
-5.93597e-07
-5.92592e-07
-5.91418e-07
-5.90098e-07
-5.88655e-07
-5.87108e-07
-5.85473e-07
-5.83764e-07
-5.81995e-07
-5.80176e-07
-5.78317e-07
-5.76429e-07
-5.74519e-07
-5.72594e-07
-5.70663e-07
-5.68732e-07
-5.66806e-07
-5.64891e-07
-5.62992e-07
-5.61115e-07
-5.59263e-07
-5.57441e-07
-5.55653e-07
-5.53903e-07
-5.52194e-07
-5.50529e-07
-5.48913e-07
-5.47348e-07
-5.45837e-07
-5.44383e-07
)
;
    }
    inandouthalf22
    {
        type            cyclic;
        value           nonuniform List<scalar> 
100
(
1.04998e-12
1.05445e-12
1.05877e-12
1.06292e-12
1.06692e-12
1.07076e-12
1.07444e-12
1.07796e-12
1.08133e-12
1.08455e-12
1.08761e-12
1.09052e-12
1.09328e-12
1.09589e-12
1.09836e-12
1.10069e-12
1.10287e-12
1.1049e-12
1.10678e-12
1.10851e-12
1.11007e-12
1.11147e-12
1.11267e-12
1.11366e-12
1.11443e-12
1.11495e-12
1.1152e-12
1.11515e-12
1.11479e-12
1.11411e-12
1.1131e-12
1.11179e-12
1.11018e-12
1.10831e-12
1.1062e-12
1.10385e-12
1.10125e-12
1.09836e-12
1.09508e-12
1.09129e-12
1.08712e-12
1.08318e-12
1.08028e-12
1.07876e-12
1.07832e-12
1.07831e-12
1.07861e-12
9.21288e-12
1.88337e-09
7.18699e-08
2.04981e-07
3.05158e-07
3.80434e-07
4.38071e-07
4.82048e-07
5.14933e-07
5.38844e-07
5.55831e-07
5.67806e-07
5.76315e-07
5.82442e-07
5.86884e-07
5.90086e-07
5.92342e-07
5.93857e-07
5.94779e-07
5.95219e-07
5.95261e-07
5.94971e-07
5.94402e-07
5.93597e-07
5.92592e-07
5.91418e-07
5.90098e-07
5.88655e-07
5.87108e-07
5.85473e-07
5.83764e-07
5.81995e-07
5.80176e-07
5.78317e-07
5.76429e-07
5.74519e-07
5.72594e-07
5.70663e-07
5.68732e-07
5.66806e-07
5.64891e-07
5.62992e-07
5.61115e-07
5.59263e-07
5.57441e-07
5.55653e-07
5.53903e-07
5.52194e-07
5.50529e-07
5.48913e-07
5.47348e-07
5.45837e-07
5.44383e-07
)
;
    }
    inandouthalf31
    {
        type            cyclic;
        value           nonuniform List<scalar> 
110
(
-5.4299e-07
-5.52637e-07
-5.62489e-07
-5.72551e-07
-5.82829e-07
-5.9333e-07
-6.04058e-07
-6.1502e-07
-6.26221e-07
-6.37666e-07
-6.49361e-07
-6.61311e-07
-6.7352e-07
-6.85992e-07
-6.98733e-07
-7.11747e-07
-7.25037e-07
-7.38608e-07
-7.52464e-07
-7.6661e-07
-7.81049e-07
-7.95787e-07
-8.10828e-07
-8.26178e-07
-8.4184e-07
-8.57824e-07
-8.74135e-07
-8.90783e-07
-9.07777e-07
-9.2513e-07
-9.42858e-07
-9.6098e-07
-9.79528e-07
-9.98548e-07
-1.0181e-06
-1.03821e-06
-1.05869e-06
-9.80479e-07
-9.94006e-07
-1.00776e-06
-1.02182e-06
-1.03627e-06
-1.05079e-06
-1.0697e-06
-1.08669e-06
-1.10256e-06
-1.11971e-06
-1.13752e-06
-1.15618e-06
-1.17575e-06
-1.19635e-06
-1.21806e-06
-1.24094e-06
-1.26517e-06
-1.29061e-06
-1.31736e-06
-1.3454e-06
-1.37465e-06
-1.40503e-06
-1.43638e-06
-1.46849e-06
-1.50108e-06
-1.53303e-06
-1.56442e-06
-1.59619e-06
-1.62859e-06
-1.66164e-06
-1.69537e-06
-1.72978e-06
-1.76489e-06
-1.80071e-06
-1.83726e-06
-1.87456e-06
-1.9126e-06
-1.95143e-06
-1.99103e-06
-2.03145e-06
-2.07268e-06
-2.11475e-06
-2.15767e-06
-2.20147e-06
-2.24615e-06
-2.29174e-06
-2.33826e-06
-2.38572e-06
-2.43414e-06
-2.48355e-06
-2.53396e-06
-2.58539e-06
-2.63787e-06
-2.69141e-06
-2.74604e-06
-2.80178e-06
-2.85864e-06
-2.91667e-06
-2.97587e-06
-3.03627e-06
-3.0979e-06
-3.16078e-06
-3.22493e-06
-3.29039e-06
-3.35718e-06
-3.42532e-06
-3.49484e-06
-3.56578e-06
-3.63816e-06
-3.712e-06
-3.78734e-06
-3.86422e-06
-3.94265e-06
)
;
    }
    inandouthalf32
    {
        type            cyclic;
        value           nonuniform List<scalar> 
110
(
5.4299e-07
5.52637e-07
5.62489e-07
5.72551e-07
5.82829e-07
5.9333e-07
6.04058e-07
6.1502e-07
6.26221e-07
6.37666e-07
6.49361e-07
6.61311e-07
6.7352e-07
6.85992e-07
6.98733e-07
7.11747e-07
7.25037e-07
7.38608e-07
7.52464e-07
7.6661e-07
7.81049e-07
7.95787e-07
8.10828e-07
8.26178e-07
8.4184e-07
8.57824e-07
8.74135e-07
8.90783e-07
9.07777e-07
9.2513e-07
9.42858e-07
9.6098e-07
9.79528e-07
9.98548e-07
1.0181e-06
1.03821e-06
1.05869e-06
9.80479e-07
9.94006e-07
1.00776e-06
1.02182e-06
1.03627e-06
1.05079e-06
1.0697e-06
1.08669e-06
1.10256e-06
1.11971e-06
1.13752e-06
1.15618e-06
1.17575e-06
1.19635e-06
1.21806e-06
1.24094e-06
1.26517e-06
1.29061e-06
1.31736e-06
1.3454e-06
1.37465e-06
1.40503e-06
1.43638e-06
1.46849e-06
1.50108e-06
1.53303e-06
1.56442e-06
1.59619e-06
1.62859e-06
1.66164e-06
1.69537e-06
1.72978e-06
1.76489e-06
1.80071e-06
1.83726e-06
1.87456e-06
1.9126e-06
1.95143e-06
1.99103e-06
2.03145e-06
2.07268e-06
2.11475e-06
2.15767e-06
2.20147e-06
2.24615e-06
2.29174e-06
2.33826e-06
2.38572e-06
2.43414e-06
2.48355e-06
2.53396e-06
2.58539e-06
2.63787e-06
2.69141e-06
2.74604e-06
2.80178e-06
2.85864e-06
2.91667e-06
2.97587e-06
3.03627e-06
3.0979e-06
3.16078e-06
3.22493e-06
3.29039e-06
3.35718e-06
3.42532e-06
3.49484e-06
3.56578e-06
3.63816e-06
3.712e-06
3.78734e-06
3.86422e-06
3.94265e-06
)
;
    }
    inandouthalf41
    {
        type            cyclic;
        value           nonuniform List<scalar> 
50
(
-3.52907e-06
-3.52907e-06
-3.52907e-06
-3.52907e-06
-3.52907e-06
-3.52907e-06
-3.52907e-06
-3.52907e-06
-3.52907e-06
-3.52907e-06
-3.52907e-06
-3.52907e-06
-3.52907e-06
-3.52907e-06
-3.52907e-06
-3.52907e-06
-3.52907e-06
-3.52907e-06
-3.52907e-06
-3.52907e-06
-3.52907e-06
-3.52907e-06
-3.52907e-06
-3.52907e-06
-3.52907e-06
-3.52907e-06
-3.52907e-06
-3.52907e-06
-3.52907e-06
-3.52907e-06
-3.52907e-06
-3.52907e-06
-3.52907e-06
-3.52907e-06
-3.52907e-06
-3.52907e-06
-3.52907e-06
-3.52907e-06
-3.52907e-06
-3.52907e-06
-3.52907e-06
-3.52907e-06
-3.52907e-06
-3.52907e-06
-3.52907e-06
-3.52907e-06
-3.52907e-06
-3.52906e-06
-3.52878e-06
-3.52218e-06
)
;
    }
    inandouthalf42
    {
        type            cyclic;
        value           nonuniform List<scalar> 
50
(
3.52907e-06
3.52907e-06
3.52907e-06
3.52907e-06
3.52907e-06
3.52907e-06
3.52907e-06
3.52907e-06
3.52907e-06
3.52907e-06
3.52907e-06
3.52907e-06
3.52907e-06
3.52907e-06
3.52907e-06
3.52907e-06
3.52907e-06
3.52907e-06
3.52907e-06
3.52907e-06
3.52907e-06
3.52907e-06
3.52907e-06
3.52907e-06
3.52907e-06
3.52907e-06
3.52907e-06
3.52907e-06
3.52907e-06
3.52907e-06
3.52907e-06
3.52907e-06
3.52907e-06
3.52907e-06
3.52907e-06
3.52907e-06
3.52907e-06
3.52907e-06
3.52907e-06
3.52907e-06
3.52907e-06
3.52907e-06
3.52907e-06
3.52907e-06
3.52907e-06
3.52907e-06
3.52907e-06
3.52906e-06
3.52878e-06
3.52218e-06
)
;
    }
    top
    {
        type            symmetryPlane;
        value           uniform 0;
    }
    walls
    {
        type            fixedValue;
        value           uniform 0;
    }
    frontAndBackPlanes
    {
        type            empty;
        value           nonuniform 0();
    }
}


// ************************************************************************* //
