/*--------------------------------*- C++ -*----------------------------------*\
| =========                 |                                                 |
| \\      /  F ield         | OpenFOAM: The Open Source CFD Toolbox           |
|  \\    /   O peration     | Version:  2.4.x                                 |
|   \\  /    A nd           | Web:      www.OpenFOAM.org                      |
|    \\/     M anipulation  |                                                 |
\*---------------------------------------------------------------------------*/
FoamFile
{
    version     2.0;
    format      ascii;
    class       volVectorField;
    location    "7.85";
    object      U;
}
// * * * * * * * * * * * * * * * * * * * * * * * * * * * * * * * * * * * * * //

dimensions      [0 1 -1 0 0 0 0];

internalField   nonuniform List<vector> 
360
(
(0.000108163 1.36739e-08 0)
(0.000107378 -2.65718e-09 0)
(0.00010728 -2.50637e-09 0)
(0.000107396 7.63421e-11 0)
(0.000107464 4.98513e-10 0)
(0.000107498 1.2182e-10 0)
(0.000107534 -4.9233e-11 0)
(0.000107575 -5.28425e-11 0)
(0.000107617 -3.86067e-11 0)
(0.00010766 -3.34823e-11 0)
(0.000107702 -3.49321e-11 0)
(0.000107744 -4.12695e-11 0)
(0.000107787 -4.64193e-11 0)
(0.000107829 -4.84408e-11 0)
(0.000107871 -4.69684e-11 0)
(0.000107914 -4.36489e-11 0)
(0.000107957 -4.06861e-11 0)
(0.000107999 -3.80476e-11 0)
(0.000108042 -3.5626e-11 0)
(0.000108085 -3.21403e-11 0)
(0.000108128 -3.03001e-11 0)
(0.000108172 -2.62354e-11 0)
(0.000108215 -2.28024e-11 0)
(0.000108259 -2.00954e-11 0)
(0.000108303 -1.74347e-11 0)
(0.000108347 -1.48118e-11 0)
(0.000108391 -1.25161e-11 0)
(0.000108436 -8.99551e-12 0)
(0.00010848 -7.39975e-12 0)
(0.000108525 -5.84359e-12 0)
(0.000108571 -4.65506e-12 0)
(0.000108616 -1.00954e-12 0)
(0.000108662 -2.72013e-12 0)
(0.000108708 2.28507e-12 0)
(0.000108754 7.59516e-14 0)
(0.000108801 1.82746e-12 0)
(0.000108848 2.19395e-12 0)
(0.000108895 3.15261e-12 0)
(0.000108943 5.77736e-12 0)
(0.00010899 7.54982e-13 0)
(0.000109039 5.2285e-12 0)
(0.000109087 4.35721e-12 0)
(0.000109136 2.20449e-13 0)
(0.000109185 5.60166e-12 0)
(0.000109235 2.64445e-12 0)
(0.000109285 9.0449e-13 0)
(0.000109336 1.36175e-12 0)
(0.000109386 -3.90399e-12 0)
(0.000109437 -1.72539e-12 0)
(0.000109489 2.44171e-12 0)
(0.000109541 -6.65524e-12 0)
(0.000109593 -4.33022e-12 0)
(0.000109646 -7.88829e-12 0)
(0.000109699 -6.64938e-12 0)
(0.000109753 -1.46196e-11 0)
(0.000109807 -9.66237e-12 0)
(0.000109862 -1.982e-11 0)
(0.000109917 -1.92389e-11 0)
(0.000109972 -2.23729e-11 0)
(0.000110028 -3.04372e-11 0)
(0.000110085 -2.1561e-11 0)
(0.000110142 -3.05677e-11 0)
(0.0001102 -2.78174e-11 0)
(0.000110258 -3.42809e-11 0)
(0.000110316 -3.70133e-11 0)
(0.000110375 -4.27361e-11 0)
(0.000110435 -4.49868e-11 0)
(0.000110496 -4.93746e-11 0)
(0.000110556 -5.2944e-11 0)
(0.000110618 -5.89584e-11 0)
(0.00011068 -5.46922e-11 0)
(0.000110743 -5.21397e-11 0)
(0.000110806 -6.39664e-11 0)
(0.00011087 -5.70265e-11 0)
(0.000110935 -6.23889e-11 0)
(0.000111001 -6.17821e-11 0)
(0.000111067 -7.14086e-11 0)
(0.000111134 -7.55296e-11 0)
(0.000111202 -7.80353e-11 0)
(0.000111271 -7.94845e-11 0)
(0.00011134 -8.35542e-11 0)
(0.000111411 -8.25778e-11 0)
(0.000111482 -8.1427e-11 0)
(0.000111555 -8.22437e-11 0)
(0.000111628 -8.27208e-11 0)
(0.000111702 -8.5861e-11 0)
(0.000111778 -8.87426e-11 0)
(0.000111854 -9.41689e-11 0)
(0.000111931 -9.94653e-11 0)
(0.00011201 -1.03326e-10 0)
(0.00011209 -1.06507e-10 0)
(0.000112171 -1.09054e-10 0)
(0.000112253 -1.09757e-10 0)
(0.000112337 -1.10302e-10 0)
(0.000112422 -1.11097e-10 0)
(0.000112509 -1.12292e-10 0)
(0.000112597 -1.1412e-10 0)
(0.000112687 -1.16645e-10 0)
(0.000112778 -1.19607e-10 0)
(0.000112871 -1.22618e-10 0)
(0.000112966 -1.25623e-10 0)
(0.000113063 -1.2845e-10 0)
(0.000113161 -1.30934e-10 0)
(0.000113262 -1.3316e-10 0)
(0.000113365 -1.35122e-10 0)
(0.00011347 -1.3671e-10 0)
(0.000113577 -1.37827e-10 0)
(0.000113687 -1.38331e-10 0)
(0.000113799 -1.38042e-10 0)
(0.000113915 -1.36815e-10 0)
(0.000114032 -1.34525e-10 0)
(0.000114153 -1.31075e-10 0)
(0.000114277 -1.26411e-10 0)
(0.000114404 -1.2053e-10 0)
(0.000114535 -1.13497e-10 0)
(0.000114669 -1.05466e-10 0)
(0.000114807 -9.67156e-11 0)
(0.000114948 -8.76669e-11 0)
(0.000115094 -7.89233e-11 0)
(0.000115244 -7.13031e-11 0)
(0.000115399 -6.58457e-11 0)
(0.000115558 -6.37662e-11 0)
(0.000115723 -6.63445e-11 0)
(0.000115893 -7.47435e-11 0)
(0.000116068 -8.97919e-11 0)
(0.000116249 -1.11861e-10 0)
(0.000116437 -1.40931e-10 0)
(0.000116632 -1.76746e-10 0)
(0.000116835 -2.18625e-10 0)
(0.000117047 -2.64855e-10 0)
(0.000117267 -3.12462e-10 0)
(0.000117497 -3.58823e-10 0)
(0.000117737 -3.99851e-10 0)
(0.000117991 -4.19609e-10 0)
(0.00011826 -3.97284e-10 0)
(0.000118545 -3.52482e-10 0)
(0.000118844 -3.47017e-10 0)
(0.000119162 -4.27296e-10 0)
(0.000119514 -5.43806e-10 0)
(0.000119919 -4.68488e-10 0)
(0.000120357 -2.92187e-10 0)
(0.000120781 -1.60838e-09 0)
(0.000121294 -2.21857e-09 0)
(0.000121962 -2.0972e-09 0)
(0.000122802 -7.9505e-09 0)
(0.000124437 -3.82062e-08 0)
(0.000127175 7.35706e-07 0)
(0.00013729 -1.28091e-06 0)
(0.00211105 -1.42929e-05 0)
(0.0787692 -2.98664e-05 0)
(0.221036 -0.000164973 0)
(0.320486 4.5187e-05 0)
(0.395977 -1.56912e-05 0)
(0.455143 -7.89457e-06 0)
(0.501977 -3.9077e-06 0)
(0.5387 -1.68465e-06 0)
(0.566669 -4.23723e-07 0)
(0.587035 1.26765e-07 0)
(0.601177 2.49302e-07 0)
(0.610659 2.46567e-07 0)
(0.616912 1.99661e-07 0)
(0.621014 1.29207e-07 0)
(0.623691 7.27871e-08 0)
(0.625402 4.10556e-08 0)
(0.626437 2.49205e-08 0)
(0.62698 1.59907e-08 0)
(0.627154 1.07596e-08 0)
(0.627039 7.57629e-09 0)
(0.626692 5.38331e-09 0)
(0.626155 3.84863e-09 0)
(0.625457 2.78148e-09 0)
(0.624621 2.0306e-09 0)
(0.623665 1.49069e-09 0)
(0.622604 1.09597e-09 0)
(0.621448 8.04398e-10 0)
(0.620208 5.87366e-10 0)
(0.618891 4.24789e-10 0)
(0.617504 3.02415e-10 0)
(0.616055 2.09999e-10 0)
(0.614547 1.40104e-10 0)
(0.612987 8.72389e-11 0)
(0.611378 4.73313e-11 0)
(0.609725 1.73144e-11 0)
(0.60803 -5.12075e-12 0)
(0.606298 -2.17392e-11 0)
(0.604532 -3.3877e-11 0)
(0.602734 -4.25558e-11 0)
(0.600907 -4.85471e-11 0)
(0.599054 -5.24464e-11 0)
(0.597178 -5.47277e-11 0)
(0.595279 -5.57865e-11 0)
(0.593361 -5.59454e-11 0)
(0.591425 -5.54364e-11 0)
(0.589474 -5.43941e-11 0)
(0.587508 -5.29155e-11 0)
(0.58553 -5.11454e-11 0)
(0.583542 -4.92577e-11 0)
(0.581544 -4.72951e-11 0)
(0.579539 -4.50668e-11 0)
(0.577527 -4.23726e-11 0)
(0.57551 -3.93112e-11 0)
(0.573468 -3.7923e-11 0)
(0.571382 -3.68126e-11 0)
(0.56925 -3.5015e-11 0)
(0.567072 -3.28367e-11 0)
(0.564849 -3.00201e-11 0)
(0.56258 -2.72523e-11 0)
(0.560266 -2.41858e-11 0)
(0.557905 -2.13323e-11 0)
(0.555498 -1.81985e-11 0)
(0.553046 -1.54277e-11 0)
(0.550549 -1.19878e-11 0)
(0.548006 -8.95535e-12 0)
(0.545419 -7.46579e-12 0)
(0.542788 -5.80464e-12 0)
(0.540113 -3.03021e-12 0)
(0.537397 -1.73176e-12 0)
(0.534638 -1.54638e-12 0)
(0.53184 -7.42466e-13 0)
(0.529002 -2.8468e-14 0)
(0.526126 7.61122e-13 0)
(0.523215 3.33094e-13 0)
(0.520269 -1.00029e-13 0)
(0.51729 7.62179e-13 0)
(0.514282 3.97891e-13 0)
(0.511246 9.83371e-15 0)
(0.508185 2.5314e-13 0)
(0.505103 3.82181e-13 0)
(0.502002 3.38085e-13 0)
(0.498886 5.97705e-13 0)
(0.49576 7.38027e-14 0)
(0.492627 1.53259e-12 0)
(0.489494 1.12841e-12 0)
(0.486365 1.9764e-12 0)
(0.483247 -2.33442e-12 0)
(0.480147 2.15125e-12 0)
(0.477073 -7.05947e-12 0)
(0.474032 3.32437e-11 0)
(0.471035 -4.61132e-11 0)
(0.468092 4.87842e-11 0)
(0.465214 -3.31142e-11 0)
(0.462415 2.58701e-11 0)
(0.459709 6.41409e-12 0)
(0.457113 1.66912e-11 0)
(0.454643 3.24851e-13 0)
(0.452319 3.06586e-13 0)
(0.450162 1.47489e-12 0)
(0.448193 1.67843e-12 0)
(0.446436 1.55965e-12 0)
(0.444912 1.47869e-12 0)
(0.443644 1.45397e-12 0)
(0.442647 1.37003e-12 0)
(0.441935 9.38725e-13 0)
(0.441512 2.04361e-13 0)
(0.441373 1.10922e-11 0)
(0.441502 -2.89623e-11 0)
(0.441874 6.57709e-11 0)
(0.442455 -1.14305e-10 0)
(0.4432 1.83734e-10 0)
(0.444054 -2.65633e-10 0)
(0.444945 3.65952e-10 0)
(0.445779 -4.7512e-10 0)
(0.446308 5.9622e-10 0)
(0.446411 -7.20183e-10 0)
(0.446416 8.50562e-10 0)
(0.446416 -9.81718e-10 0)
(0.446416 1.11837e-09 0)
(0.446416 -1.25615e-09 0)
(0.446416 1.39947e-09 0)
(0.446416 -1.54432e-09 0)
(0.446416 1.69479e-09 0)
(0.446416 -1.84716e-09 0)
(0.446416 2.00523e-09 0)
(0.446416 -2.16553e-09 0)
(0.446416 2.33163e-09 0)
(0.446416 -2.50023e-09 0)
(0.446416 2.6747e-09 0)
(0.446416 -2.85194e-09 0)
(0.446416 3.0351e-09 0)
(0.446416 -3.2213e-09 0)
(0.446416 3.41341e-09 0)
(0.446416 -3.60883e-09 0)
(0.446416 3.81019e-09 0)
(0.446416 -4.01506e-09 0)
(0.446416 4.22588e-09 0)
(0.446416 -4.44043e-09 0)
(0.446416 4.6609e-09 0)
(0.446416 -4.88534e-09 0)
(0.446416 5.11562e-09 0)
(0.446416 -5.35012e-09 0)
(0.446416 5.59037e-09 0)
(0.446416 -5.83508e-09 0)
(0.446416 6.08543e-09 0)
(0.446416 -6.34047e-09 0)
(0.446416 6.60102e-09 0)
(0.446416 -6.8665e-09 0)
(0.446416 7.13732e-09 0)
(0.446416 -7.41324e-09 0)
(0.446416 7.69454e-09 0)
(0.446416 -7.98092e-09 0)
(0.446416 8.27267e-09 0)
(0.446416 -8.56954e-09 0)
(0.446416 8.87175e-09 0)
(0.446416 -9.17906e-09 0)
(0.446416 9.49167e-09 0)
(0.446416 -9.80935e-09 0)
(0.446416 1.01322e-08 0)
(0.446416 -1.04602e-08 0)
(0.446416 1.07932e-08 0)
(0.446416 -1.11311e-08 0)
(0.446416 1.00734e-08 0)
(0.446416 -1.0188e-08 0)
(0.446416 1.03015e-08 0)
(0.446416 -1.04137e-08 0)
(0.446416 1.05247e-08 0)
(0.446416 -1.06344e-08 0)
(0.446416 1.07429e-08 0)
(0.446416 -1.08502e-08 0)
(0.446416 1.09562e-08 0)
(0.446416 -1.10609e-08 0)
(0.446416 1.11642e-08 0)
(0.446416 -1.12663e-08 0)
(0.446416 1.1367e-08 0)
(0.446416 -1.14664e-08 0)
(0.446416 1.15643e-08 0)
(0.446416 -1.1661e-08 0)
(0.446416 1.17561e-08 0)
(0.446416 -1.185e-08 0)
(0.446416 1.19421e-08 0)
(0.446416 -1.20332e-08 0)
(0.446416 1.21222e-08 0)
(0.446416 -1.22104e-08 0)
(0.446416 1.22961e-08 0)
(0.446416 -1.23815e-08 0)
(0.446416 1.24636e-08 0)
(0.446416 -1.25462e-08 0)
(0.446416 1.26246e-08 0)
(0.446416 -1.27042e-08 0)
(0.446416 1.27787e-08 0)
(0.446416 -1.28552e-08 0)
(0.446416 1.29256e-08 0)
(0.446416 -1.2999e-08 0)
(0.446416 1.30649e-08 0)
(0.446416 -1.31352e-08 0)
(0.446416 1.31962e-08 0)
(0.446416 -1.32635e-08 0)
(0.446416 1.33189e-08 0)
(0.446416 -1.3383e-08 0)
(0.446416 1.34324e-08 0)
(0.446416 -1.34933e-08 0)
(0.446416 1.35361e-08 0)
(0.446416 -1.35929e-08 0)
(0.446416 1.36286e-08 0)
(0.446416 -1.36818e-08 0)
(0.446416 1.3708e-08 0)
(0.446416 -1.37567e-08 0)
(0.446416 1.37735e-08 0)
(0.446416 -1.38151e-08 0)
(0.446416 1.38195e-08 0)
(0.446416 -1.38435e-08 0)
)
;

boundaryField
{
    inandouthalf11
    {
        type            cyclic;
    }
    inandouthalf12
    {
        type            cyclic;
    }
    inandouthalf21
    {
        type            cyclic;
    }
    inandouthalf22
    {
        type            cyclic;
    }
    inandouthalf31
    {
        type            cyclic;
    }
    inandouthalf32
    {
        type            cyclic;
    }
    inandouthalf41
    {
        type            cyclic;
    }
    inandouthalf42
    {
        type            cyclic;
    }
    top
    {
        type            symmetryPlane;
    }
    walls
    {
        type            calculated;
        value           uniform (0 0 0);
    }
    frontAndBackPlanes
    {
        type            empty;
    }
}


// ************************************************************************* //
