/*--------------------------------*- C++ -*----------------------------------*\
| =========                 |                                                 |
| \\      /  F ield         | OpenFOAM: The Open Source CFD Toolbox           |
|  \\    /   O peration     | Version:  2.4.x                                 |
|   \\  /    A nd           | Web:      www.OpenFOAM.org                      |
|    \\/     M anipulation  |                                                 |
\*---------------------------------------------------------------------------*/
FoamFile
{
    version     2.0;
    format      ascii;
    class       volVectorField;
    location    "7.85";
    object      Ua;
}
// * * * * * * * * * * * * * * * * * * * * * * * * * * * * * * * * * * * * * //

dimensions      [0 1 -1 0 0 0 0];

internalField   nonuniform List<vector> 
360
(
(1.30603e-32 -1.00138e-31 0)
(1.54465e-08 -8.41974e-08 0)
(3.20364e-08 -1.51376e-07 0)
(4.67009e-08 -2.09863e-07 0)
(6.14123e-08 -2.71123e-07 0)
(7.65789e-08 -3.35113e-07 0)
(9.18243e-08 -3.99568e-07 0)
(1.06938e-07 -4.63763e-07 0)
(1.21891e-07 -5.27684e-07 0)
(1.36692e-07 -5.91383e-07 0)
(1.51349e-07 -6.54892e-07 0)
(1.65861e-07 -7.18196e-07 0)
(1.80221e-07 -7.81253e-07 0)
(1.94425e-07 -8.44029e-07 0)
(2.08472e-07 -9.06512e-07 0)
(2.22364e-07 -9.68712e-07 0)
(2.3611e-07 -1.03065e-06 0)
(2.49713e-07 -1.09235e-06 0)
(2.6318e-07 -1.15382e-06 0)
(2.76516e-07 -1.21509e-06 0)
(2.89726e-07 -1.27617e-06 0)
(3.02816e-07 -1.33708e-06 0)
(3.15792e-07 -1.39784e-06 0)
(3.2866e-07 -1.45848e-06 0)
(3.41425e-07 -1.51901e-06 0)
(3.54092e-07 -1.57945e-06 0)
(3.66664e-07 -1.63982e-06 0)
(3.79147e-07 -1.70014e-06 0)
(3.91546e-07 -1.76042e-06 0)
(4.03862e-07 -1.82069e-06 0)
(4.16099e-07 -1.88094e-06 0)
(4.28261e-07 -1.94119e-06 0)
(4.40349e-07 -2.00145e-06 0)
(4.52366e-07 -2.06174e-06 0)
(4.64315e-07 -2.12207e-06 0)
(4.76195e-07 -2.18242e-06 0)
(4.88009e-07 -2.24282e-06 0)
(4.99757e-07 -2.30326e-06 0)
(5.11442e-07 -2.36376e-06 0)
(5.23063e-07 -2.42432e-06 0)
(5.3462e-07 -2.48492e-06 0)
(5.46114e-07 -2.5456e-06 0)
(5.57544e-07 -2.60631e-06 0)
(5.6891e-07 -2.66709e-06 0)
(5.80213e-07 -2.72792e-06 0)
(5.91451e-07 -2.78881e-06 0)
(6.02624e-07 -2.84974e-06 0)
(6.13728e-07 -2.91071e-06 0)
(6.24761e-07 -2.97169e-06 0)
(6.35727e-07 -3.03272e-06 0)
(6.46623e-07 -3.09378e-06 0)
(6.57445e-07 -3.15484e-06 0)
(6.68194e-07 -3.21591e-06 0)
(6.78866e-07 -3.27698e-06 0)
(6.8946e-07 -3.33803e-06 0)
(6.99972e-07 -3.39906e-06 0)
(7.104e-07 -3.46003e-06 0)
(7.20741e-07 -3.52094e-06 0)
(7.3099e-07 -3.58177e-06 0)
(7.41143e-07 -3.64247e-06 0)
(7.512e-07 -3.70306e-06 0)
(7.61159e-07 -3.76352e-06 0)
(7.71019e-07 -3.82386e-06 0)
(7.80778e-07 -3.88405e-06 0)
(7.90432e-07 -3.94407e-06 0)
(7.99977e-07 -4.0039e-06 0)
(8.09409e-07 -4.0635e-06 0)
(8.18724e-07 -4.12287e-06 0)
(8.2792e-07 -4.18197e-06 0)
(8.3699e-07 -4.24076e-06 0)
(8.45936e-07 -4.29924e-06 0)
(8.54758e-07 -4.35744e-06 0)
(8.63455e-07 -4.41532e-06 0)
(8.72024e-07 -4.47287e-06 0)
(8.80467e-07 -4.53011e-06 0)
(8.88783e-07 -4.58701e-06 0)
(8.96968e-07 -4.64356e-06 0)
(9.05016e-07 -4.69972e-06 0)
(9.12926e-07 -4.75545e-06 0)
(9.20695e-07 -4.81075e-06 0)
(9.28321e-07 -4.86559e-06 0)
(9.35804e-07 -4.91997e-06 0)
(9.43145e-07 -4.97389e-06 0)
(9.50345e-07 -5.02735e-06 0)
(9.57404e-07 -5.08037e-06 0)
(9.64322e-07 -5.13292e-06 0)
(9.71098e-07 -5.18501e-06 0)
(9.77728e-07 -5.2366e-06 0)
(9.8421e-07 -5.28766e-06 0)
(9.90541e-07 -5.33817e-06 0)
(9.96718e-07 -5.38811e-06 0)
(1.00274e-06 -5.43744e-06 0)
(1.00861e-06 -5.48617e-06 0)
(1.01432e-06 -5.53429e-06 0)
(1.01988e-06 -5.58181e-06 0)
(1.02528e-06 -5.62871e-06 0)
(1.03053e-06 -5.675e-06 0)
(1.03563e-06 -5.72066e-06 0)
(1.04057e-06 -5.76569e-06 0)
(1.04535e-06 -5.81007e-06 0)
(1.04998e-06 -5.85378e-06 0)
(1.05445e-06 -5.89682e-06 0)
(1.05877e-06 -5.93916e-06 0)
(1.06292e-06 -5.9808e-06 0)
(1.06692e-06 -6.02173e-06 0)
(1.07076e-06 -6.06194e-06 0)
(1.07444e-06 -6.10143e-06 0)
(1.07796e-06 -6.1402e-06 0)
(1.08133e-06 -6.17825e-06 0)
(1.08455e-06 -6.21559e-06 0)
(1.08761e-06 -6.25224e-06 0)
(1.09052e-06 -6.28823e-06 0)
(1.09328e-06 -6.32358e-06 0)
(1.09589e-06 -6.35833e-06 0)
(1.09836e-06 -6.39255e-06 0)
(1.10069e-06 -6.42627e-06 0)
(1.10287e-06 -6.45958e-06 0)
(1.1049e-06 -6.49253e-06 0)
(1.10678e-06 -6.5252e-06 0)
(1.10851e-06 -6.55768e-06 0)
(1.11007e-06 -6.59001e-06 0)
(1.11147e-06 -6.62226e-06 0)
(1.11267e-06 -6.65446e-06 0)
(1.11366e-06 -6.68661e-06 0)
(1.11443e-06 -6.71869e-06 0)
(1.11495e-06 -6.75061e-06 0)
(1.1152e-06 -6.78227e-06 0)
(1.11515e-06 -6.81353e-06 0)
(1.11479e-06 -6.84418e-06 0)
(1.11411e-06 -6.87402e-06 0)
(1.1131e-06 -6.90274e-06 0)
(1.11179e-06 -6.93008e-06 0)
(1.11018e-06 -6.95578e-06 0)
(1.10831e-06 -6.97974e-06 0)
(1.1062e-06 -7.00202e-06 0)
(1.10385e-06 -7.02273e-06 0)
(1.10125e-06 -7.04206e-06 0)
(1.09836e-06 -7.0603e-06 0)
(1.09508e-06 -7.07801e-06 0)
(1.09129e-06 -7.09569e-06 0)
(1.08712e-06 -7.11266e-06 0)
(1.08318e-06 -7.12644e-06 0)
(1.08028e-06 -7.13524e-06 0)
(1.07876e-06 -7.13945e-06 0)
(1.07832e-06 -7.14071e-06 0)
(1.07831e-06 -7.14103e-06 0)
(1.07861e-06 -7.14123e-06 0)
(9.21288e-06 -8.94781e-06 0)
(0.00188337 -3.46988e-05 0)
(0.0718699 0.000317497 0)
(0.204981 0.00277934 0)
(0.305158 0.0039023 0)
(0.380434 0.00476076 0)
(0.438071 0.00547028 0)
(0.482048 0.00603382 0)
(0.514933 0.00640625 0)
(0.538844 0.00652484 0)
(0.555831 0.00632443 0)
(0.567806 0.00578712 0)
(0.576315 0.00499152 0)
(0.582442 0.00407906 0)
(0.586884 0.00317107 0)
(0.590086 0.00233038 0)
(0.592342 0.00157657 0)
(0.593857 0.000910053 0)
(0.594779 0.000324778 0)
(0.595219 -0.000187032 0)
(0.595261 -0.00063314 0)
(0.594971 -0.00102072 0)
(0.594402 -0.00135619 0)
(0.593597 -0.0016453 0)
(0.592592 -0.00189312 0)
(0.591418 -0.00210418 0)
(0.590098 -0.00228254 0)
(0.588655 -0.00243179 0)
(0.587108 -0.00255519 0)
(0.585473 -0.00265563 0)
(0.583764 -0.00273569 0)
(0.581995 -0.00279771 0)
(0.580176 -0.00284375 0)
(0.578317 -0.00287565 0)
(0.576429 -0.00289504 0)
(0.574519 -0.00290336 0)
(0.572594 -0.00290191 0)
(0.570663 -0.0028918 0)
(0.568732 -0.00287403 0)
(0.566806 -0.00284948 0)
(0.564891 -0.00281892 0)
(0.562992 -0.00278305 0)
(0.561115 -0.00274247 0)
(0.559263 -0.00269772 0)
(0.557441 -0.0026493 0)
(0.555653 -0.00259764 0)
(0.553903 -0.00254315 0)
(0.552194 -0.00248621 0)
(0.550529 -0.00242722 0)
(0.548913 -0.00236655 0)
(0.547348 -0.0023046 0)
(0.545837 -0.0022418 0)
(0.544383 -0.0021786 0)
(0.542988 -0.00211546 0)
(0.541642 -0.00205221 0)
(0.54033 -0.00198875 0)
(0.539054 -0.00192566 0)
(0.537815 -0.00186357 0)
(0.536613 -0.00180313 0)
(0.535447 -0.00174497 0)
(0.534319 -0.00168971 0)
(0.533227 -0.0016379 0)
(0.532171 -0.00159 0)
(0.53115 -0.0015464 0)
(0.530163 -0.00150739 0)
(0.52921 -0.00147311 0)
(0.528287 -0.00144354 0)
(0.527394 -0.00141854 0)
(0.52653 -0.00139788 0)
(0.525691 -0.00138117 0)
(0.524877 -0.00136781 0)
(0.524086 -0.00135706 0)
(0.523317 -0.00134802 0)
(0.522567 -0.00133946 0)
(0.521835 -0.00132962 0)
(0.521121 -0.00131646 0)
(0.520423 -0.0012988 0)
(0.51974 -0.00127657 0)
(0.519072 -0.00124994 0)
(0.51842 -0.00121905 0)
(0.517783 -0.00118397 0)
(0.517164 -0.00114462 0)
(0.516566 -0.00110092 0)
(0.515991 -0.00105252 0)
(0.515447 -0.000999405 0)
(0.514943 -0.000939624 0)
(0.514499 -0.000868907 0)
(0.514137 -0.000779168 0)
(0.513863 -0.000697634 0)
(0.513576 -0.000648933 0)
(0.466173 8.92901e-05 0)
(0.463203 -0.00128116 0)
(0.46027 0.00151534 0)
(0.457405 -0.00162439 0)
(0.454647 0.00273315 0)
(0.451848 -0.00193217 0)
(0.450828 -0.0312704 0)
(0.448877 -0.0396379 0)
(0.446371 -0.039554 0)
(0.444296 -0.0395569 0)
(0.442386 -0.0395512 0)
(0.440696 -0.0395456 0)
(0.439242 -0.0395396 0)
(0.438045 -0.0395332 0)
(0.43712 -0.0395265 0)
(0.436472 -0.0395197 0)
(0.436144 -0.0395145 0)
(0.436063 -0.0395091 0)
(0.436246 -0.0395039 0)
(0.436668 -0.0394999 0)
(0.437287 -0.0394966 0)
(0.438058 -0.0394938 0)
(0.438924 -0.0394911 0)
(0.439811 -0.0394879 0)
(0.440626 -0.0394822 0)
(0.441053 -0.0394736 0)
(0.441131 -0.0394695 0)
(0.441134 -0.0394688 0)
(0.441134 -0.0394688 0)
(0.441134 -0.0394688 0)
(0.441134 -0.0394688 0)
(0.441134 -0.0394688 0)
(0.441134 -0.0394688 0)
(0.441134 -0.0394688 0)
(0.441134 -0.0394688 0)
(0.441134 -0.0394688 0)
(0.441134 -0.0394688 0)
(0.441134 -0.0394688 0)
(0.441134 -0.0394688 0)
(0.441134 -0.0394688 0)
(0.441134 -0.0394688 0)
(0.441134 -0.0394688 0)
(0.441134 -0.0394688 0)
(0.441134 -0.0394688 0)
(0.441134 -0.0394688 0)
(0.441134 -0.0394688 0)
(0.441134 -0.0394688 0)
(0.441134 -0.0394688 0)
(0.441134 -0.0394688 0)
(0.441134 -0.0394688 0)
(0.441134 -0.0394688 0)
(0.441134 -0.0394688 0)
(0.441134 -0.0394688 0)
(0.441134 -0.0394688 0)
(0.441134 -0.0394688 0)
(0.441134 -0.0394688 0)
(0.441134 -0.0394688 0)
(0.441134 -0.0394688 0)
(0.441134 -0.0394688 0)
(0.441134 -0.0394688 0)
(0.441134 -0.0394688 0)
(0.441134 -0.0394688 0)
(0.441134 -0.0394688 0)
(0.441134 -0.0394688 0)
(0.441134 -0.0394688 0)
(0.441134 -0.0394688 0)
(0.441134 -0.0394688 0)
(0.441134 -0.0394688 0)
(0.441134 -0.0394688 0)
(0.441134 -0.0394688 0)
(0.441134 -0.0394688 0)
(0.441134 -0.0394688 0)
(0.441134 -0.0394688 0)
(0.441134 -0.0394688 0)
(0.441134 -0.0394688 0)
(0.441134 -0.0394688 0)
(0.441134 -0.0394688 0)
(0.441134 -0.0394688 0)
(0.441134 -0.0394688 0)
(0.441134 -0.0394688 0)
(0.441134 -0.0394688 0)
(0.441134 -0.0394688 0)
(0.441134 -0.0394688 0)
(0.441134 -0.0394688 0)
(0.441134 -0.0394688 0)
(0.441134 -0.0394688 0)
(0.441134 -0.0394688 0)
(0.441134 -0.0394688 0)
(0.441134 -0.0394688 0)
(0.441134 -0.0394688 0)
(0.441134 -0.0394688 0)
(0.441134 -0.0394688 0)
(0.441134 -0.0394688 0)
(0.441134 -0.0394688 0)
(0.441134 -0.0394688 0)
(0.441134 -0.0394688 0)
(0.441134 -0.0394688 0)
(0.441134 -0.0394688 0)
(0.441134 -0.0394688 0)
(0.441134 -0.0394688 0)
(0.441134 -0.0394688 0)
(0.441134 -0.0394688 0)
(0.441134 -0.0394688 0)
(0.441134 -0.0394688 0)
(0.441134 -0.0394688 0)
(0.441134 -0.0394688 0)
(0.441134 -0.0394688 0)
(0.441134 -0.0394688 0)
(0.441134 -0.0394688 0)
(0.441134 -0.0394688 0)
(0.441134 -0.0394688 0)
(0.441134 -0.0394688 0)
(0.441134 -0.0394688 0)
(0.441134 -0.0394688 0)
(0.441134 -0.0394688 0)
(0.441134 -0.0394688 0)
(0.441134 -0.0394688 0)
(0.441134 -0.0394688 0)
(0.441134 -0.0394688 0)
(0.441134 -0.0394685 0)
(0.441133 -0.03946 0)
(0.441097 -0.0391138 0)
(0.440272 -0.0223421 0)
)
;

boundaryField
{
    inandouthalf11
    {
        type            cyclic;
    }
    inandouthalf12
    {
        type            cyclic;
    }
    inandouthalf21
    {
        type            cyclic;
    }
    inandouthalf22
    {
        type            cyclic;
    }
    inandouthalf31
    {
        type            cyclic;
    }
    inandouthalf32
    {
        type            cyclic;
    }
    inandouthalf41
    {
        type            cyclic;
    }
    inandouthalf42
    {
        type            cyclic;
    }
    top
    {
        type            symmetryPlane;
    }
    walls
    {
        type            fixedValue;
        value           uniform (0 0 0);
    }
    frontAndBackPlanes
    {
        type            empty;
    }
}


// ************************************************************************* //
