/*--------------------------------*- C++ -*----------------------------------*\
| =========                 |                                                 |
| \\      /  F ield         | OpenFOAM: The Open Source CFD Toolbox           |
|  \\    /   O peration     | Version:  2.4.x                                 |
|   \\  /    A nd           | Web:      www.OpenFOAM.org                      |
|    \\/     M anipulation  |                                                 |
\*---------------------------------------------------------------------------*/
FoamFile
{
    version     2.0;
    format      ascii;
    class       volVectorField;
    location    "7.85";
    object      Ua_0;
}
// * * * * * * * * * * * * * * * * * * * * * * * * * * * * * * * * * * * * * //

dimensions      [0 1 -1 0 0 0 0];

internalField   nonuniform List<vector> 
360
(
(1.30566e-32 -1.00138e-31 0)
(1.54434e-08 -8.4205e-08 0)
(3.20298e-08 -1.51389e-07 0)
(4.6691e-08 -2.09881e-07 0)
(6.13988e-08 -2.71145e-07 0)
(7.65616e-08 -3.35138e-07 0)
(9.18032e-08 -3.99598e-07 0)
(1.06913e-07 -4.63795e-07 0)
(1.21862e-07 -5.2772e-07 0)
(1.36659e-07 -5.91422e-07 0)
(1.51312e-07 -6.54935e-07 0)
(1.6582e-07 -7.18243e-07 0)
(1.80176e-07 -7.81303e-07 0)
(1.94376e-07 -8.44083e-07 0)
(2.08419e-07 -9.06569e-07 0)
(2.22308e-07 -9.68773e-07 0)
(2.36049e-07 -1.03072e-06 0)
(2.49648e-07 -1.09242e-06 0)
(2.63111e-07 -1.1539e-06 0)
(2.76444e-07 -1.21517e-06 0)
(2.8965e-07 -1.27625e-06 0)
(3.02737e-07 -1.33717e-06 0)
(3.15709e-07 -1.39793e-06 0)
(3.28573e-07 -1.45857e-06 0)
(3.41335e-07 -1.51911e-06 0)
(3.53998e-07 -1.57956e-06 0)
(3.66566e-07 -1.63994e-06 0)
(3.79046e-07 -1.70026e-06 0)
(3.91441e-07 -1.76055e-06 0)
(4.03753e-07 -1.82082e-06 0)
(4.15987e-07 -1.88108e-06 0)
(4.28145e-07 -1.94134e-06 0)
(4.4023e-07 -2.00161e-06 0)
(4.52243e-07 -2.06191e-06 0)
(4.64189e-07 -2.12224e-06 0)
(4.76066e-07 -2.1826e-06 0)
(4.87876e-07 -2.24301e-06 0)
(4.9962e-07 -2.30345e-06 0)
(5.11302e-07 -2.36397e-06 0)
(5.22919e-07 -2.42453e-06 0)
(5.34472e-07 -2.48514e-06 0)
(5.45963e-07 -2.54582e-06 0)
(5.5739e-07 -2.60655e-06 0)
(5.68752e-07 -2.66733e-06 0)
(5.80051e-07 -2.72817e-06 0)
(5.91286e-07 -2.78907e-06 0)
(6.02455e-07 -2.85001e-06 0)
(6.13555e-07 -2.91099e-06 0)
(6.24584e-07 -2.97197e-06 0)
(6.35546e-07 -3.03301e-06 0)
(6.46438e-07 -3.09408e-06 0)
(6.57257e-07 -3.15515e-06 0)
(6.68002e-07 -3.21623e-06 0)
(6.7867e-07 -3.27731e-06 0)
(6.8926e-07 -3.33837e-06 0)
(6.99768e-07 -3.3994e-06 0)
(7.10193e-07 -3.46039e-06 0)
(7.20529e-07 -3.52131e-06 0)
(7.30775e-07 -3.58214e-06 0)
(7.40924e-07 -3.64286e-06 0)
(7.50976e-07 -3.70345e-06 0)
(7.60931e-07 -3.76392e-06 0)
(7.70787e-07 -3.82427e-06 0)
(7.80542e-07 -3.88447e-06 0)
(7.90192e-07 -3.9445e-06 0)
(7.99733e-07 -4.00433e-06 0)
(8.0916e-07 -4.06395e-06 0)
(8.18472e-07 -4.12333e-06 0)
(8.27663e-07 -4.18243e-06 0)
(8.36729e-07 -4.24123e-06 0)
(8.45671e-07 -4.29972e-06 0)
(8.54489e-07 -4.35793e-06 0)
(8.63181e-07 -4.41582e-06 0)
(8.71747e-07 -4.47338e-06 0)
(8.80186e-07 -4.53062e-06 0)
(8.88497e-07 -4.58754e-06 0)
(8.96678e-07 -4.6441e-06 0)
(9.04722e-07 -4.70026e-06 0)
(9.12628e-07 -4.756e-06 0)
(9.20393e-07 -4.81131e-06 0)
(9.28015e-07 -4.86616e-06 0)
(9.35493e-07 -4.92055e-06 0)
(9.4283e-07 -4.97448e-06 0)
(9.50026e-07 -5.02795e-06 0)
(9.57081e-07 -5.08097e-06 0)
(9.63994e-07 -5.13354e-06 0)
(9.70766e-07 -5.18563e-06 0)
(9.77392e-07 -5.23723e-06 0)
(9.8387e-07 -5.2883e-06 0)
(9.90197e-07 -5.33882e-06 0)
(9.9637e-07 -5.38877e-06 0)
(1.00239e-06 -5.43811e-06 0)
(1.00825e-06 -5.48685e-06 0)
(1.01396e-06 -5.53498e-06 0)
(1.01951e-06 -5.5825e-06 0)
(1.02491e-06 -5.62941e-06 0)
(1.03016e-06 -5.67571e-06 0)
(1.03525e-06 -5.72138e-06 0)
(1.04019e-06 -5.76642e-06 0)
(1.04497e-06 -5.8108e-06 0)
(1.04959e-06 -5.85452e-06 0)
(1.05406e-06 -5.89757e-06 0)
(1.05837e-06 -5.93992e-06 0)
(1.06252e-06 -5.98156e-06 0)
(1.06651e-06 -6.0225e-06 0)
(1.07035e-06 -6.06271e-06 0)
(1.07403e-06 -6.10221e-06 0)
(1.07755e-06 -6.14098e-06 0)
(1.08091e-06 -6.17904e-06 0)
(1.08412e-06 -6.21639e-06 0)
(1.08718e-06 -6.25304e-06 0)
(1.09009e-06 -6.28903e-06 0)
(1.09284e-06 -6.32439e-06 0)
(1.09545e-06 -6.35915e-06 0)
(1.09792e-06 -6.39336e-06 0)
(1.10024e-06 -6.42709e-06 0)
(1.10241e-06 -6.4604e-06 0)
(1.10444e-06 -6.49335e-06 0)
(1.10632e-06 -6.52603e-06 0)
(1.10804e-06 -6.55851e-06 0)
(1.10961e-06 -6.59084e-06 0)
(1.11099e-06 -6.62309e-06 0)
(1.11219e-06 -6.65529e-06 0)
(1.11318e-06 -6.68745e-06 0)
(1.11395e-06 -6.71952e-06 0)
(1.11446e-06 -6.75145e-06 0)
(1.1147e-06 -6.78311e-06 0)
(1.11465e-06 -6.81436e-06 0)
(1.11429e-06 -6.84502e-06 0)
(1.1136e-06 -6.87485e-06 0)
(1.11259e-06 -6.90358e-06 0)
(1.11127e-06 -6.93091e-06 0)
(1.10967e-06 -6.95661e-06 0)
(1.10779e-06 -6.98057e-06 0)
(1.10567e-06 -7.00284e-06 0)
(1.10332e-06 -7.02356e-06 0)
(1.10072e-06 -7.04288e-06 0)
(1.09783e-06 -7.06112e-06 0)
(1.09455e-06 -7.07883e-06 0)
(1.09076e-06 -7.09651e-06 0)
(1.08657e-06 -7.11348e-06 0)
(1.08264e-06 -7.12726e-06 0)
(1.07973e-06 -7.13606e-06 0)
(1.07821e-06 -7.14026e-06 0)
(1.07777e-06 -7.14152e-06 0)
(1.07776e-06 -7.14184e-06 0)
(1.07806e-06 -7.14205e-06 0)
(9.30727e-06 -8.97261e-06 0)
(0.00186723 -3.47747e-05 0)
(0.0717752 0.000316183 0)
(0.20489 0.00277988 0)
(0.305076 0.00390339 0)
(0.38035 0.00476157 0)
(0.437975 0.00547069 0)
(0.481937 0.00603366 0)
(0.514803 0.00640525 0)
(0.538695 0.00652267 0)
(0.555665 0.00632079 0)
(0.567627 0.00578201 0)
(0.576127 0.00498537 0)
(0.582247 0.00407244 0)
(0.586684 0.0031644 0)
(0.589881 0.00232388 0)
(0.592133 0.00157032 0)
(0.593645 0.000904071 0)
(0.594565 0.000319065 0)
(0.595002 -0.000192486 0)
(0.595041 -0.000638351 0)
(0.594749 -0.0010257 0)
(0.594178 -0.00136097 0)
(0.593372 -0.00164988 0)
(0.592366 -0.00189752 0)
(0.591189 -0.00210842 0)
(0.589869 -0.00228662 0)
(0.588425 -0.00243574 0)
(0.586876 -0.00255901 0)
(0.58524 -0.00265933 0)
(0.58353 -0.0027393 0)
(0.581759 -0.00280123 0)
(0.579939 -0.00284719 0)
(0.57808 -0.00287901 0)
(0.576191 -0.00289834 0)
(0.57428 -0.00290661 0)
(0.572355 -0.00290511 0)
(0.570423 -0.00289496 0)
(0.568491 -0.00287716 0)
(0.566565 -0.00285259 0)
(0.564649 -0.00282201 0)
(0.56275 -0.00278612 0)
(0.560872 -0.00274553 0)
(0.559019 -0.00270078 0)
(0.557197 -0.00265235 0)
(0.555409 -0.00260069 0)
(0.553658 -0.0025462 0)
(0.551949 -0.00248927 0)
(0.550284 -0.00243029 0)
(0.548668 -0.00236962 0)
(0.547102 -0.00230769 0)
(0.545591 -0.0022449 0)
(0.544137 -0.00218172 0)
(0.542742 -0.00211859 0)
(0.541395 -0.00205536 0)
(0.540083 -0.00199192 0)
(0.538807 -0.00192884 0)
(0.537567 -0.00186676 0)
(0.536365 -0.00180634 0)
(0.535199 -0.0017482 0)
(0.534071 -0.00169296 0)
(0.532978 -0.00164116 0)
(0.531922 -0.00159328 0)
(0.530901 -0.00154969 0)
(0.529915 -0.0015107 0)
(0.528961 -0.00147644 0)
(0.528038 -0.00144688 0)
(0.527145 -0.00142189 0)
(0.52628 -0.00140124 0)
(0.525442 -0.00138454 0)
(0.524628 -0.00137119 0)
(0.523837 -0.00136045 0)
(0.523067 -0.0013514 0)
(0.522317 -0.00134284 0)
(0.521586 -0.001333 0)
(0.520872 -0.00131983 0)
(0.520173 -0.00130216 0)
(0.51949 -0.00127992 0)
(0.518822 -0.00125329 0)
(0.51817 -0.00122238 0)
(0.517533 -0.00118729 0)
(0.516914 -0.00114793 0)
(0.516316 -0.00110421 0)
(0.515741 -0.0010558 0)
(0.515196 -0.00100268 0)
(0.514693 -0.00094289 0)
(0.514249 -0.000872168 0)
(0.513887 -0.000782427 0)
(0.513612 -0.000700889 0)
(0.513326 -0.00065217 0)
(0.465918 8.64783e-05 0)
(0.462948 -0.0012845 0)
(0.460015 0.00151562 0)
(0.45715 -0.00162887 0)
(0.454392 0.00273469 0)
(0.451594 -0.0019371 0)
(0.450573 -0.0312745 0)
(0.448622 -0.0396379 0)
(0.446117 -0.039554 0)
(0.444042 -0.0395568 0)
(0.442133 -0.0395512 0)
(0.440443 -0.0395456 0)
(0.43899 -0.0395396 0)
(0.437794 -0.0395331 0)
(0.436869 -0.0395265 0)
(0.436222 -0.0395197 0)
(0.435894 -0.0395145 0)
(0.435814 -0.0395091 0)
(0.435997 -0.0395039 0)
(0.436419 -0.0394999 0)
(0.437039 -0.0394966 0)
(0.43781 -0.0394938 0)
(0.438676 -0.0394911 0)
(0.439563 -0.0394879 0)
(0.440378 -0.0394822 0)
(0.440805 -0.0394736 0)
(0.440883 -0.0394695 0)
(0.440886 -0.0394688 0)
(0.440886 -0.0394688 0)
(0.440886 -0.0394688 0)
(0.440886 -0.0394688 0)
(0.440886 -0.0394688 0)
(0.440886 -0.0394688 0)
(0.440886 -0.0394688 0)
(0.440886 -0.0394688 0)
(0.440886 -0.0394688 0)
(0.440886 -0.0394688 0)
(0.440886 -0.0394688 0)
(0.440886 -0.0394688 0)
(0.440886 -0.0394688 0)
(0.440886 -0.0394688 0)
(0.440886 -0.0394688 0)
(0.440886 -0.0394688 0)
(0.440886 -0.0394688 0)
(0.440886 -0.0394688 0)
(0.440886 -0.0394688 0)
(0.440886 -0.0394688 0)
(0.440886 -0.0394688 0)
(0.440886 -0.0394688 0)
(0.440886 -0.0394688 0)
(0.440886 -0.0394688 0)
(0.440886 -0.0394688 0)
(0.440886 -0.0394688 0)
(0.440886 -0.0394688 0)
(0.440886 -0.0394688 0)
(0.440886 -0.0394688 0)
(0.440886 -0.0394688 0)
(0.440886 -0.0394688 0)
(0.440886 -0.0394688 0)
(0.440886 -0.0394688 0)
(0.440886 -0.0394688 0)
(0.440886 -0.0394688 0)
(0.440886 -0.0394688 0)
(0.440886 -0.0394688 0)
(0.440886 -0.0394688 0)
(0.440886 -0.0394688 0)
(0.440886 -0.0394688 0)
(0.440886 -0.0394688 0)
(0.440886 -0.0394688 0)
(0.440886 -0.0394688 0)
(0.440886 -0.0394688 0)
(0.440886 -0.0394688 0)
(0.440886 -0.0394688 0)
(0.440886 -0.0394688 0)
(0.440886 -0.0394688 0)
(0.440886 -0.0394688 0)
(0.440886 -0.0394688 0)
(0.440886 -0.0394688 0)
(0.440886 -0.0394688 0)
(0.440886 -0.0394688 0)
(0.440886 -0.0394688 0)
(0.440886 -0.0394688 0)
(0.440886 -0.0394688 0)
(0.440886 -0.0394688 0)
(0.440886 -0.0394688 0)
(0.440886 -0.0394688 0)
(0.440886 -0.0394688 0)
(0.440886 -0.0394688 0)
(0.440886 -0.0394688 0)
(0.440886 -0.0394688 0)
(0.440886 -0.0394688 0)
(0.440886 -0.0394688 0)
(0.440886 -0.0394688 0)
(0.440886 -0.0394688 0)
(0.440886 -0.0394688 0)
(0.440886 -0.0394688 0)
(0.440886 -0.0394688 0)
(0.440886 -0.0394688 0)
(0.440886 -0.0394688 0)
(0.440886 -0.0394688 0)
(0.440886 -0.0394688 0)
(0.440886 -0.0394688 0)
(0.440886 -0.0394688 0)
(0.440886 -0.0394688 0)
(0.440886 -0.0394688 0)
(0.440886 -0.0394688 0)
(0.440886 -0.0394688 0)
(0.440886 -0.0394688 0)
(0.440886 -0.0394688 0)
(0.440886 -0.0394688 0)
(0.440886 -0.0394688 0)
(0.440886 -0.0394688 0)
(0.440886 -0.0394688 0)
(0.440886 -0.0394688 0)
(0.440886 -0.0394688 0)
(0.440886 -0.0394688 0)
(0.440886 -0.0394688 0)
(0.440886 -0.0394688 0)
(0.440886 -0.0394688 0)
(0.440886 -0.0394685 0)
(0.440885 -0.03946 0)
(0.440849 -0.0391138 0)
(0.440024 -0.0223421 0)
)
;

boundaryField
{
    inandouthalf11
    {
        type            cyclic;
    }
    inandouthalf12
    {
        type            cyclic;
    }
    inandouthalf21
    {
        type            cyclic;
    }
    inandouthalf22
    {
        type            cyclic;
    }
    inandouthalf31
    {
        type            cyclic;
    }
    inandouthalf32
    {
        type            cyclic;
    }
    inandouthalf41
    {
        type            cyclic;
    }
    inandouthalf42
    {
        type            cyclic;
    }
    top
    {
        type            symmetryPlane;
    }
    walls
    {
        type            fixedValue;
        value           uniform (0 0 0);
    }
    frontAndBackPlanes
    {
        type            empty;
    }
}


// ************************************************************************* //
