/*--------------------------------*- C++ -*----------------------------------*\
| =========                 |                                                 |
| \\      /  F ield         | OpenFOAM: The Open Source CFD Toolbox           |
|  \\    /   O peration     | Version:  2.4.x                                 |
|   \\  /    A nd           | Web:      www.OpenFOAM.org                      |
|    \\/     M anipulation  |                                                 |
\*---------------------------------------------------------------------------*/
FoamFile
{
    version     2.0;
    format      ascii;
    class       volVectorField;
    location    "7.85";
    object      Ub_0;
}
// * * * * * * * * * * * * * * * * * * * * * * * * * * * * * * * * * * * * * //

dimensions      [0 1 -1 0 0 0 0];

internalField   nonuniform List<vector> 
360
(
(0.000277926 3.51384e-08 0)
(0.000276475 1.25781e-07 0)
(0.000276265 2.32082e-07 0)
(0.000276481 3.30778e-07 0)
(0.0002766 4.2828e-07 0)
(0.000276652 5.28052e-07 0)
(0.000276709 6.29067e-07 0)
(0.000276776 7.30073e-07 0)
(0.000276844 8.30674e-07 0)
(0.000276913 9.3088e-07 0)
(0.000276982 1.03075e-06 0)
(0.000277051 1.13027e-06 0)
(0.000277121 1.22938e-06 0)
(0.00027719 1.32803e-06 0)
(0.00027726 1.42621e-06 0)
(0.000277331 1.52393e-06 0)
(0.000277401 1.62122e-06 0)
(0.000277472 1.71811e-06 0)
(0.000277544 1.81462e-06 0)
(0.000277616 1.91079e-06 0)
(0.000277688 2.00664e-06 0)
(0.000277761 2.1022e-06 0)
(0.000277834 2.1975e-06 0)
(0.000277907 2.29259e-06 0)
(0.000277981 2.38748e-06 0)
(0.000278056 2.48222e-06 0)
(0.000278131 2.57682e-06 0)
(0.000278206 2.67131e-06 0)
(0.000278282 2.76572e-06 0)
(0.000278359 2.86008e-06 0)
(0.000278436 2.95438e-06 0)
(0.000278514 3.04868e-06 0)
(0.000278592 3.14295e-06 0)
(0.000278671 3.23725e-06 0)
(0.000278751 3.33156e-06 0)
(0.000278831 3.42591e-06 0)
(0.000278912 3.52028e-06 0)
(0.000278993 3.6147e-06 0)
(0.000279076 3.70919e-06 0)
(0.000279158 3.80372e-06 0)
(0.000279243 3.89832e-06 0)
(0.000279327 3.99298e-06 0)
(0.000279412 4.08768e-06 0)
(0.000279498 4.18244e-06 0)
(0.000279585 4.27726e-06 0)
(0.000279672 4.37213e-06 0)
(0.000279761 4.46705e-06 0)
(0.000279849 4.56197e-06 0)
(0.000279939 4.6569e-06 0)
(0.000280031 4.75187e-06 0)
(0.000280122 4.84682e-06 0)
(0.000280214 4.94177e-06 0)
(0.000280308 5.03669e-06 0)
(0.000280402 5.13157e-06 0)
(0.000280497 5.22637e-06 0)
(0.000280594 5.32111e-06 0)
(0.000280691 5.41571e-06 0)
(0.000280789 5.51018e-06 0)
(0.000280889 5.60448e-06 0)
(0.000280988 5.69854e-06 0)
(0.00028109 5.7924e-06 0)
(0.000281192 5.886e-06 0)
(0.000281296 5.97936e-06 0)
(0.000281401 6.07245e-06 0)
(0.000281507 6.16523e-06 0)
(0.000281613 6.25765e-06 0)
(0.000281722 6.34969e-06 0)
(0.000281831 6.4413e-06 0)
(0.000281942 6.53245e-06 0)
(0.000282053 6.62307e-06 0)
(0.000282167 6.71317e-06 0)
(0.000282282 6.80277e-06 0)
(0.000282398 6.8918e-06 0)
(0.000282516 6.98029e-06 0)
(0.000282635 7.06821e-06 0)
(0.000282756 7.15558e-06 0)
(0.000282878 7.24231e-06 0)
(0.000283002 7.32838e-06 0)
(0.000283127 7.41374e-06 0)
(0.000283255 7.49836e-06 0)
(0.000283383 7.58221e-06 0)
(0.000283514 7.66528e-06 0)
(0.000283647 7.74758e-06 0)
(0.000283782 7.82909e-06 0)
(0.000283919 7.90984e-06 0)
(0.000284058 7.9898e-06 0)
(0.000284199 8.06895e-06 0)
(0.000284342 8.14726e-06 0)
(0.000284488 8.22468e-06 0)
(0.000284636 8.30117e-06 0)
(0.000284786 8.37669e-06 0)
(0.000284939 8.4512e-06 0)
(0.000285095 8.52469e-06 0)
(0.000285253 8.59716e-06 0)
(0.000285415 8.66859e-06 0)
(0.000285579 8.73899e-06 0)
(0.000285746 8.80835e-06 0)
(0.000285917 8.87664e-06 0)
(0.000286091 8.94385e-06 0)
(0.000286268 9.00996e-06 0)
(0.00028645 9.07494e-06 0)
(0.000286634 9.13876e-06 0)
(0.000286823 9.20141e-06 0)
(0.000287016 9.26286e-06 0)
(0.000287213 9.3231e-06 0)
(0.000287415 9.38211e-06 0)
(0.000287621 9.43989e-06 0)
(0.000287832 9.49643e-06 0)
(0.000288048 9.55173e-06 0)
(0.00028827 9.60581e-06 0)
(0.000288497 9.65869e-06 0)
(0.00028873 9.7104e-06 0)
(0.000288969 9.76099e-06 0)
(0.000289214 9.81052e-06 0)
(0.000289466 9.85905e-06 0)
(0.000289726 9.90667e-06 0)
(0.000289992 9.95347e-06 0)
(0.000290266 9.99955e-06 0)
(0.000290549 1.0045e-05 0)
(0.00029084 1.009e-05 0)
(0.000291139 1.01345e-05 0)
(0.000291448 1.01787e-05 0)
(0.000291767 1.02226e-05 0)
(0.000292097 1.02662e-05 0)
(0.000292437 1.03093e-05 0)
(0.00029279 1.0352e-05 0)
(0.000293155 1.0394e-05 0)
(0.000293534 1.0435e-05 0)
(0.000293928 1.04748e-05 0)
(0.00029434 1.05129e-05 0)
(0.000294768 1.0549e-05 0)
(0.000295216 1.05826e-05 0)
(0.000295683 1.06132e-05 0)
(0.000296177 1.06408e-05 0)
(0.000296701 1.06653e-05 0)
(0.000297255 1.06869e-05 0)
(0.000297837 1.07057e-05 0)
(0.000298454 1.0722e-05 0)
(0.000299138 1.07362e-05 0)
(0.000299924 1.0749e-05 0)
(0.000300775 1.07597e-05 0)
(0.000301597 1.07624e-05 0)
(0.000302589 1.07564e-05 0)
(0.000303878 1.07401e-05 0)
(0.000305495 1.06987e-05 0)
(0.000308635 1.05676e-05 0)
(0.000313877 1.24178e-05 0)
(0.00032638 1.00805e-05 0)
(0.00242185 1.52031e-05 0)
(0.0819222 -0.000193445 0)
(0.22446 -0.000809508 0)
(0.322562 -0.00049652 0)
(0.397341 -0.000459126 0)
(0.456076 -0.00033493 0)
(0.502614 -0.000227179 0)
(0.539111 -0.000143677 0)
(0.566895 -8.54468e-05 0)
(0.587119 -4.84755e-05 0)
(0.601158 -2.67671e-05 0)
(0.610573 -1.47381e-05 0)
(0.616784 -8.26571e-06 0)
(0.62086 -4.73499e-06 0)
(0.62352 -2.70771e-06 0)
(0.625219 -1.47703e-06 0)
(0.626245 -7.01028e-07 0)
(0.626782 -2.01341e-07 0)
(0.626951 1.23733e-07 0)
(0.626832 3.34808e-07 0)
(0.626482 4.69297e-07 0)
(0.625942 5.51577e-07 0)
(0.625242 5.97796e-07 0)
(0.624404 6.18883e-07 0)
(0.623447 6.22409e-07 0)
(0.622383 6.13717e-07 0)
(0.621226 5.96632e-07 0)
(0.619984 5.73918e-07 0)
(0.618666 5.47582e-07 0)
(0.617279 5.19095e-07 0)
(0.615828 4.89528e-07 0)
(0.61432 4.59663e-07 0)
(0.612758 4.30065e-07 0)
(0.611148 4.01136e-07 0)
(0.609494 3.73155e-07 0)
(0.607799 3.46311e-07 0)
(0.606066 3.20721e-07 0)
(0.604299 2.96454e-07 0)
(0.6025 2.73535e-07 0)
(0.600672 2.51967e-07 0)
(0.598819 2.31726e-07 0)
(0.596941 2.1278e-07 0)
(0.595042 1.95082e-07 0)
(0.593123 1.7858e-07 0)
(0.591187 1.63218e-07 0)
(0.589234 1.48938e-07 0)
(0.587268 1.3568e-07 0)
(0.58529 1.23385e-07 0)
(0.583301 1.11996e-07 0)
(0.581303 1.01461e-07 0)
(0.579297 9.17265e-08 0)
(0.577284 8.27484e-08 0)
(0.575267 7.44853e-08 0)
(0.573225 6.68222e-08 0)
(0.571137 5.96773e-08 0)
(0.569005 5.30488e-08 0)
(0.566827 4.69334e-08 0)
(0.564604 4.13261e-08 0)
(0.562334 3.62193e-08 0)
(0.560019 3.16008e-08 0)
(0.557658 2.74533e-08 0)
(0.555251 2.37546e-08 0)
(0.552798 2.04785e-08 0)
(0.5503 1.75965e-08 0)
(0.547757 1.50783e-08 0)
(0.54517 1.28905e-08 0)
(0.542538 1.09969e-08 0)
(0.539864 9.36351e-09 0)
(0.537146 7.95972e-09 0)
(0.534388 6.75512e-09 0)
(0.531589 5.72028e-09 0)
(0.52875 4.83003e-09 0)
(0.525875 4.06405e-09 0)
(0.522963 3.40431e-09 0)
(0.520016 2.83413e-09 0)
(0.517038 2.34176e-09 0)
(0.514029 1.92042e-09 0)
(0.510993 1.56311e-09 0)
(0.507932 1.2619e-09 0)
(0.504849 1.00974e-09 0)
(0.501748 8.00196e-10 0)
(0.498632 6.27343e-10 0)
(0.495505 4.85713e-10 0)
(0.492373 3.71603e-10 0)
(0.489239 2.81903e-10 0)
(0.486111 2.1086e-10 0)
(0.482993 1.47269e-10 0)
(0.479893 9.06168e-11 0)
(0.476818 4.9739e-11 0)
(0.473777 2.70576e-11 0)
(0.47078 1.18268e-11 0)
(0.467837 -6.70035e-13 0)
(0.464959 -4.6693e-12 0)
(0.46216 -5.94474e-12 0)
(0.459455 1.12775e-11 0)
(0.456858 1.64905e-11 0)
(0.454389 1.36253e-13 0)
(0.452065 1.23064e-13 0)
(0.449908 1.29818e-12 0)
(0.44794 1.50894e-12 0)
(0.446183 1.39714e-12 0)
(0.44466 1.32314e-12 0)
(0.443392 1.30548e-12 0)
(0.442396 1.22866e-12 0)
(0.441685 8.04013e-13 0)
(0.441262 7.6354e-14 0)
(0.441124 1.09703e-11 0)
(0.441253 -2.90713e-11 0)
(0.441626 6.5657e-11 0)
(0.442207 -1.14401e-10 0)
(0.442952 1.83645e-10 0)
(0.443806 -2.6574e-10 0)
(0.444697 3.65911e-10 0)
(0.445531 -4.75256e-10 0)
(0.44606 5.96233e-10 0)
(0.446163 -7.20347e-10 0)
(0.446168 8.50621e-10 0)
(0.446168 -9.81901e-10 0)
(0.446168 1.11847e-09 0)
(0.446168 -1.25635e-09 0)
(0.446168 1.39959e-09 0)
(0.446168 -1.54452e-09 0)
(0.446168 1.69494e-09 0)
(0.446168 -1.84738e-09 0)
(0.446168 2.0054e-09 0)
(0.446168 -2.16576e-09 0)
(0.446168 2.33182e-09 0)
(0.446168 -2.50047e-09 0)
(0.446168 2.67492e-09 0)
(0.446168 -2.8522e-09 0)
(0.446168 3.03534e-09 0)
(0.446168 -3.22158e-09 0)
(0.446168 3.41367e-09 0)
(0.446168 -3.60913e-09 0)
(0.446168 3.81048e-09 0)
(0.446168 -4.01539e-09 0)
(0.446168 4.22619e-09 0)
(0.446168 -4.44078e-09 0)
(0.446168 4.66125e-09 0)
(0.446168 -4.88572e-09 0)
(0.446168 5.11599e-09 0)
(0.446168 -5.35052e-09 0)
(0.446168 5.59078e-09 0)
(0.446168 -5.83551e-09 0)
(0.446168 6.08587e-09 0)
(0.446168 -6.34093e-09 0)
(0.446168 6.60149e-09 0)
(0.446168 -6.86699e-09 0)
(0.446168 7.13782e-09 0)
(0.446168 -7.41377e-09 0)
(0.446168 7.69508e-09 0)
(0.446168 -7.98149e-09 0)
(0.446168 8.27325e-09 0)
(0.446168 -8.57014e-09 0)
(0.446168 8.87237e-09 0)
(0.446168 -9.1797e-09 0)
(0.446168 9.49233e-09 0)
(0.446168 -9.81002e-09 0)
(0.446168 1.01329e-08 0)
(0.446168 -1.04609e-08 0)
(0.446168 1.07939e-08 0)
(0.446168 -1.11319e-08 0)
(0.446168 1.00741e-08 0)
(0.446168 -1.01887e-08 0)
(0.446168 1.03022e-08 0)
(0.446168 -1.04144e-08 0)
(0.446168 1.05254e-08 0)
(0.446168 -1.06351e-08 0)
(0.446168 1.07437e-08 0)
(0.446168 -1.08509e-08 0)
(0.446168 1.09569e-08 0)
(0.446168 -1.10616e-08 0)
(0.446168 1.1165e-08 0)
(0.446168 -1.1267e-08 0)
(0.446168 1.13678e-08 0)
(0.446168 -1.14671e-08 0)
(0.446168 1.15651e-08 0)
(0.446168 -1.16618e-08 0)
(0.446168 1.17569e-08 0)
(0.446168 -1.18507e-08 0)
(0.446168 1.19429e-08 0)
(0.446168 -1.20339e-08 0)
(0.446168 1.2123e-08 0)
(0.446168 -1.22111e-08 0)
(0.446168 1.2297e-08 0)
(0.446168 -1.23821e-08 0)
(0.446168 1.24646e-08 0)
(0.446168 -1.25467e-08 0)
(0.446168 1.26257e-08 0)
(0.446168 -1.27046e-08 0)
(0.446168 1.27799e-08 0)
(0.446168 -1.28556e-08 0)
(0.446168 1.29269e-08 0)
(0.446168 -1.29993e-08 0)
(0.446168 1.30663e-08 0)
(0.446168 -1.31355e-08 0)
(0.446168 1.31977e-08 0)
(0.446168 -1.32635e-08 0)
(0.446168 1.33206e-08 0)
(0.446168 -1.33829e-08 0)
(0.446168 1.34343e-08 0)
(0.446168 -1.3493e-08 0)
(0.446168 1.35381e-08 0)
(0.446168 -1.35926e-08 0)
(0.446168 1.36306e-08 0)
(0.446168 -1.36813e-08 0)
(0.446168 1.37103e-08 0)
(0.446168 -1.37561e-08 0)
(0.446168 1.37757e-08 0)
(0.446168 -1.38145e-08 0)
(0.446168 1.38217e-08 0)
(0.446168 -1.38437e-08 0)
)
;

boundaryField
{
    inandouthalf11
    {
        type            cyclic;
    }
    inandouthalf12
    {
        type            cyclic;
    }
    inandouthalf21
    {
        type            cyclic;
    }
    inandouthalf22
    {
        type            cyclic;
    }
    inandouthalf31
    {
        type            cyclic;
    }
    inandouthalf32
    {
        type            cyclic;
    }
    inandouthalf41
    {
        type            cyclic;
    }
    inandouthalf42
    {
        type            cyclic;
    }
    top
    {
        type            symmetryPlane;
    }
    walls
    {
        type            fixedValue;
        value           uniform (0 0 0);
    }
    frontAndBackPlanes
    {
        type            empty;
    }
}


// ************************************************************************* //
