/*--------------------------------*- C++ -*----------------------------------*\
| =========                 |                                                 |
| \\      /  F ield         | OpenFOAM: The Open Source CFD Toolbox           |
|  \\    /   O peration     | Version:  2.4.x                                 |
|   \\  /    A nd           | Web:      www.OpenFOAM.org                      |
|    \\/     M anipulation  |                                                 |
\*---------------------------------------------------------------------------*/
FoamFile
{
    version     2.0;
    format      ascii;
    class       volVectorField;
    location    "7.85";
    object      Ur;
}
// * * * * * * * * * * * * * * * * * * * * * * * * * * * * * * * * * * * * * //

dimensions      [0 1 -1 0 0 0 0];

internalField   nonuniform List<vector> 
360
(
(0.000277926 3.51353e-08 0)
(0.00027646 2.09968e-07 0)
(0.000276234 3.83437e-07 0)
(0.000276434 5.40614e-07 0)
(0.000276539 6.9937e-07 0)
(0.000276576 8.63125e-07 0)
(0.000276617 1.02859e-06 0)
(0.000276669 1.19378e-06 0)
(0.000276722 1.3583e-06 0)
(0.000276776 1.5222e-06 0)
(0.000276831 1.68558e-06 0)
(0.000276886 1.84839e-06 0)
(0.000276941 2.01055e-06 0)
(0.000276996 2.17198e-06 0)
(0.000277052 2.33263e-06 0)
(0.000277109 2.49255e-06 0)
(0.000277166 2.65177e-06 0)
(0.000277223 2.81036e-06 0)
(0.000277281 2.96833e-06 0)
(0.00027734 3.12576e-06 0)
(0.000277398 3.28268e-06 0)
(0.000277458 3.43914e-06 0)
(0.000277518 3.5952e-06 0)
(0.000277579 3.75091e-06 0)
(0.00027764 3.90633e-06 0)
(0.000277702 4.0615e-06 0)
(0.000277764 4.21646e-06 0)
(0.000277828 4.37125e-06 0)
(0.000277891 4.52594e-06 0)
(0.000277955 4.68055e-06 0)
(0.00027802 4.8351e-06 0)
(0.000278086 4.98964e-06 0)
(0.000278152 5.14416e-06 0)
(0.000278219 5.29873e-06 0)
(0.000278287 5.45336e-06 0)
(0.000278355 5.60805e-06 0)
(0.000278424 5.76281e-06 0)
(0.000278494 5.91766e-06 0)
(0.000278565 6.07264e-06 0)
(0.000278636 6.22771e-06 0)
(0.000278708 6.3829e-06 0)
(0.000278781 6.53822e-06 0)
(0.000278855 6.69362e-06 0)
(0.00027893 6.84915e-06 0)
(0.000279005 7.00479e-06 0)
(0.000279081 7.16053e-06 0)
(0.000279159 7.31638e-06 0)
(0.000279236 7.47225e-06 0)
(0.000279315 7.62814e-06 0)
(0.000279395 7.78412e-06 0)
(0.000279476 7.94012e-06 0)
(0.000279557 8.09613e-06 0)
(0.00027964 8.2521e-06 0)
(0.000279724 8.40804e-06 0)
(0.000279808 8.56387e-06 0)
(0.000279895 8.71962e-06 0)
(0.000279981 8.87519e-06 0)
(0.000280069 9.03056e-06 0)
(0.000280158 9.18567e-06 0)
(0.000280248 9.34041e-06 0)
(0.00028034 9.49484e-06 0)
(0.000280432 9.6489e-06 0)
(0.000280526 9.80258e-06 0)
(0.00028062 9.95584e-06 0)
(0.000280717 1.01086e-05 0)
(0.000280814 1.02609e-05 0)
(0.000280913 1.04125e-05 0)
(0.000281013 1.05635e-05 0)
(0.000281115 1.07137e-05 0)
(0.000281217 1.08631e-05 0)
(0.000281322 1.10117e-05 0)
(0.000281428 1.11594e-05 0)
(0.000281535 1.13063e-05 0)
(0.000281644 1.14524e-05 0)
(0.000281755 1.15975e-05 0)
(0.000281868 1.17418e-05 0)
(0.000281982 1.1885e-05 0)
(0.000282097 1.20273e-05 0)
(0.000282215 1.21683e-05 0)
(0.000282335 1.23082e-05 0)
(0.000282456 1.24469e-05 0)
(0.000282579 1.25844e-05 0)
(0.000282705 1.27205e-05 0)
(0.000282832 1.28555e-05 0)
(0.000282962 1.29893e-05 0)
(0.000283094 1.31218e-05 0)
(0.000283229 1.3253e-05 0)
(0.000283365 1.33829e-05 0)
(0.000283504 1.35114e-05 0)
(0.000283646 1.36383e-05 0)
(0.00028379 1.37638e-05 0)
(0.000283937 1.38876e-05 0)
(0.000284087 1.40098e-05 0)
(0.00028424 1.41304e-05 0)
(0.000284395 1.42493e-05 0)
(0.000284554 1.43666e-05 0)
(0.000284717 1.44822e-05 0)
(0.000284882 1.45962e-05 0)
(0.000285051 1.47084e-05 0)
(0.000285224 1.48189e-05 0)
(0.0002854 1.49276e-05 0)
(0.000285581 1.50344e-05 0)
(0.000285765 1.51394e-05 0)
(0.000285954 1.52425e-05 0)
(0.000286147 1.53436e-05 0)
(0.000286345 1.54429e-05 0)
(0.000286547 1.55401e-05 0)
(0.000286755 1.56354e-05 0)
(0.000286967 1.57288e-05 0)
(0.000287186 1.58202e-05 0)
(0.00028741 1.59097e-05 0)
(0.00028764 1.59974e-05 0)
(0.000287876 1.60833e-05 0)
(0.000288119 1.61676e-05 0)
(0.000288369 1.62503e-05 0)
(0.000288626 1.63317e-05 0)
(0.00028889 1.64118e-05 0)
(0.000289162 1.64908e-05 0)
(0.000289443 1.6569e-05 0)
(0.000289732 1.66464e-05 0)
(0.00029003 1.67233e-05 0)
(0.000290338 1.67997e-05 0)
(0.000290656 1.68758e-05 0)
(0.000290984 1.69515e-05 0)
(0.000291324 1.70268e-05 0)
(0.000291676 1.71013e-05 0)
(0.00029204 1.7175e-05 0)
(0.00029242 1.72473e-05 0)
(0.000292814 1.73177e-05 0)
(0.000293226 1.73857e-05 0)
(0.000293656 1.74505e-05 0)
(0.000294105 1.75114e-05 0)
(0.000294574 1.75677e-05 0)
(0.000295069 1.76193e-05 0)
(0.000295596 1.7666e-05 0)
(0.000296152 1.77084e-05 0)
(0.000296736 1.77465e-05 0)
(0.000297356 1.77811e-05 0)
(0.000298044 1.7813e-05 0)
(0.000298833 1.78434e-05 0)
(0.000299689 1.78712e-05 0)
(0.000300515 1.78877e-05 0)
(0.00030151 1.78904e-05 0)
(0.0003028 1.78783e-05 0)
(0.000304417 1.78382e-05 0)
(0.000307557 1.77087e-05 0)
(0.000312798 1.95398e-05 0)
(0.000317092 1.89817e-05 0)
(0.000555127 4.97517e-05 0)
(0.0101615 -0.000511608 0)
(0.0195665 -0.00358816 0)
(0.0174815 -0.00439895 0)
(0.0169853 -0.00521997 0)
(0.0180928 -0.00580541 0)
(0.020666 -0.00626122 0)
(0.0242942 -0.00655012 0)
(0.0281877 -0.00661044 0)
(0.0314444 -0.00637301 0)
(0.0335278 -0.00581395 0)
(0.034448 -0.0050063 0)
(0.0345415 -0.00408735 0)
(0.0341828 -0.00317582 0)
(0.0336457 -0.0023331 0)
(0.0330923 -0.00157805 0)
(0.032606 -0.000910759 0)
(0.0322228 -0.000324983 0)
(0.0319532 0.000187152 0)
(0.0317941 0.000633472 0)
(0.0317358 0.00102118 0)
(0.0317659 0.00135674 0)
(0.0318713 0.00164589 0)
(0.0320391 0.00189374 0)
(0.0322572 0.0021048 0)
(0.0325144 0.00228315 0)
(0.0328007 0.00243239 0)
(0.0331067 0.00255576 0)
(0.0334244 0.00265617 0)
(0.0337464 0.00273621 0)
(0.0340661 0.0027982 0)
(0.0343775 0.00284421 0)
(0.0346752 0.00287608 0)
(0.0349544 0.00289544 0)
(0.0352107 0.00290374 0)
(0.0354401 0.00290226 0)
(0.0356389 0.00289212 0)
(0.0358038 0.00287433 0)
(0.0359317 0.00284975 0)
(0.0360197 0.00281918 0)
(0.0360651 0.00278328 0)
(0.0360656 0.00274268 0)
(0.0360187 0.00269792 0)
(0.0359224 0.00264948 0)
(0.0357745 0.0025978 0)
(0.0355731 0.00254329 0)
(0.0353164 0.00248635 0)
(0.0350026 0.00242734 0)
(0.0346302 0.00236666 0)
(0.0341974 0.0023047 0)
(0.0337029 0.00224189 0)
(0.0331451 0.00217868 0)
(0.0325227 0.00211554 0)
(0.0318278 0.00205228 0)
(0.0310526 0.00198881 0)
(0.0301963 0.00192572 0)
(0.0292581 0.00186362 0)
(0.0282373 0.00180317 0)
(0.0271338 0.00174501 0)
(0.0259475 0.00168975 0)
(0.0246787 0.00163793 0)
(0.0233281 0.00159002 0)
(0.0218965 0.00154642 0)
(0.0203855 0.0015074 0)
(0.0187967 0.00147312 0)
(0.017132 0.00144356 0)
(0.0153936 0.00141855 0)
(0.013584 0.00139788 0)
(0.0117057 0.00138118 0)
(0.00976123 0.00136782 0)
(0.0077534 0.00135707 0)
(0.00568514 0.00134802 0)
(0.00355947 0.00133946 0)
(0.00137926 0.00132962 0)
(-0.000852611 0.00131646 0)
(-0.00313279 0.0012988 0)
(-0.0054582 0.00127657 0)
(-0.00782629 0.00124994 0)
(-0.0102345 0.00121905 0)
(-0.0126806 0.00118397 0)
(-0.0151628 0.00114462 0)
(-0.0176799 0.00110092 0)
(-0.0202319 0.00105252 0)
(-0.0228195 0.000999405 0)
(-0.0254492 0.000939624 0)
(-0.0281338 0.000868907 0)
(-0.0308899 0.000779168 0)
(-0.0337155 0.000697634 0)
(-0.0365034 0.000648933 0)
(0.00785908 -8.92901e-05 0)
(0.00783214 0.00128116 0)
(0.00782174 -0.00151534 0)
(0.00780899 0.00162439 0)
(0.00776826 -0.00273315 0)
(0.00786094 0.00193217 0)
(0.00628512 0.0312704 0)
(0.00576639 0.0396379 0)
(0.00594789 0.039554 0)
(0.00586617 0.0395569 0)
(0.0058068 0.0395512 0)
(0.00574038 0.0395456 0)
(0.00567053 0.0395396 0)
(0.00559819 0.0395332 0)
(0.00552684 0.0395265 0)
(0.00546296 0.0395197 0)
(0.00536826 0.0395145 0)
(0.00530966 0.0395091 0)
(0.00525623 0.0395039 0)
(0.00520681 0.0394999 0)
(0.0051683 0.0394966 0)
(0.00514195 0.0394938 0)
(0.00512966 0.0394911 0)
(0.00513385 0.0394879 0)
(0.00515273 0.0394822 0)
(0.00525493 0.0394736 0)
(0.00528041 0.0394695 0)
(0.00528162 0.0394688 0)
(0.00528165 0.0394688 0)
(0.00528165 0.0394688 0)
(0.00528166 0.0394688 0)
(0.00528166 0.0394688 0)
(0.00528166 0.0394688 0)
(0.00528166 0.0394688 0)
(0.00528166 0.0394688 0)
(0.00528166 0.0394688 0)
(0.00528166 0.0394688 0)
(0.00528166 0.0394688 0)
(0.00528166 0.0394688 0)
(0.00528166 0.0394688 0)
(0.00528166 0.0394688 0)
(0.00528166 0.0394688 0)
(0.00528166 0.0394688 0)
(0.00528166 0.0394688 0)
(0.00528166 0.0394688 0)
(0.00528166 0.0394688 0)
(0.00528166 0.0394688 0)
(0.00528166 0.0394688 0)
(0.00528166 0.0394688 0)
(0.00528166 0.0394688 0)
(0.00528166 0.0394688 0)
(0.00528166 0.0394688 0)
(0.00528166 0.0394688 0)
(0.00528166 0.0394688 0)
(0.00528166 0.0394688 0)
(0.00528166 0.0394688 0)
(0.00528166 0.0394688 0)
(0.00528166 0.0394688 0)
(0.00528166 0.0394688 0)
(0.00528166 0.0394688 0)
(0.00528166 0.0394688 0)
(0.00528166 0.0394688 0)
(0.00528166 0.0394688 0)
(0.00528166 0.0394688 0)
(0.00528166 0.0394688 0)
(0.00528166 0.0394688 0)
(0.00528166 0.0394688 0)
(0.00528166 0.0394688 0)
(0.00528166 0.0394688 0)
(0.00528166 0.0394688 0)
(0.00528166 0.0394688 0)
(0.00528166 0.0394688 0)
(0.00528166 0.0394688 0)
(0.00528166 0.0394688 0)
(0.00528166 0.0394688 0)
(0.00528166 0.0394688 0)
(0.00528166 0.0394688 0)
(0.00528166 0.0394688 0)
(0.00528166 0.0394688 0)
(0.00528166 0.0394688 0)
(0.00528166 0.0394688 0)
(0.00528166 0.0394688 0)
(0.00528166 0.0394688 0)
(0.00528166 0.0394688 0)
(0.00528166 0.0394688 0)
(0.00528166 0.0394688 0)
(0.00528166 0.0394688 0)
(0.00528166 0.0394688 0)
(0.00528166 0.0394688 0)
(0.00528166 0.0394688 0)
(0.00528166 0.0394688 0)
(0.00528166 0.0394688 0)
(0.00528166 0.0394688 0)
(0.00528166 0.0394688 0)
(0.00528166 0.0394688 0)
(0.00528166 0.0394688 0)
(0.00528166 0.0394688 0)
(0.00528166 0.0394688 0)
(0.00528166 0.0394688 0)
(0.00528166 0.0394688 0)
(0.00528166 0.0394688 0)
(0.00528166 0.0394688 0)
(0.00528166 0.0394688 0)
(0.00528166 0.0394688 0)
(0.00528166 0.0394688 0)
(0.00528166 0.0394688 0)
(0.00528166 0.0394688 0)
(0.00528166 0.0394688 0)
(0.00528166 0.0394688 0)
(0.00528166 0.0394688 0)
(0.00528166 0.0394688 0)
(0.00528166 0.0394688 0)
(0.00528166 0.0394688 0)
(0.00528166 0.0394688 0)
(0.00528166 0.0394688 0)
(0.00528166 0.0394688 0)
(0.00528166 0.0394688 0)
(0.00528166 0.0394688 0)
(0.00528166 0.0394688 0)
(0.00528171 0.0394686 0)
(0.00528317 0.03946 0)
(0.00531881 0.0391138 0)
(0.00614355 0.0223421 0)
)
;

boundaryField
{
    inandouthalf11
    {
        type            cyclic;
    }
    inandouthalf12
    {
        type            cyclic;
    }
    inandouthalf21
    {
        type            cyclic;
    }
    inandouthalf22
    {
        type            cyclic;
    }
    inandouthalf31
    {
        type            cyclic;
    }
    inandouthalf32
    {
        type            cyclic;
    }
    inandouthalf41
    {
        type            cyclic;
    }
    inandouthalf42
    {
        type            cyclic;
    }
    top
    {
        type            symmetryPlane;
    }
    walls
    {
        type            calculated;
        value           uniform (0 0 0);
    }
    frontAndBackPlanes
    {
        type            empty;
    }
}


// ************************************************************************* //
