/*--------------------------------*- C++ -*----------------------------------*\
| =========                 |                                                 |
| \\      /  F ield         | OpenFOAM: The Open Source CFD Toolbox           |
|  \\    /   O peration     | Version:  2.4.x                                 |
|   \\  /    A nd           | Web:      www.OpenFOAM.org                      |
|    \\/     M anipulation  |                                                 |
\*---------------------------------------------------------------------------*/
FoamFile
{
    version     2.0;
    format      ascii;
    class       volVectorField;
    location    "7.4";
    object      ddt0(Ua);
}
// * * * * * * * * * * * * * * * * * * * * * * * * * * * * * * * * * * * * * //

dimensions      [0 1 -2 0 0 0 0];

internalField   nonuniform List<vector> 
360
(
(2.47549e-32 -2.13836e-33 0)
(3.34645e-08 3.69385e-08 0)
(6.93723e-08 6.74269e-08 0)
(1.00937e-07 9.21451e-08 0)
(1.3258e-07 1.16889e-07 0)
(1.65405e-07 1.42977e-07 0)
(1.98733e-07 1.70105e-07 0)
(2.32174e-07 1.98124e-07 0)
(2.65712e-07 2.27113e-07 0)
(2.99417e-07 2.57205e-07 0)
(3.33354e-07 2.88518e-07 0)
(3.67558e-07 3.21105e-07 0)
(4.02042e-07 3.54952e-07 0)
(4.36817e-07 3.90016e-07 0)
(4.71894e-07 4.26242e-07 0)
(5.07299e-07 4.6359e-07 0)
(5.43055e-07 5.02025e-07 0)
(5.79187e-07 5.41511e-07 0)
(6.15713e-07 5.82006e-07 0)
(6.52652e-07 6.23479e-07 0)
(6.90019e-07 6.65889e-07 0)
(7.27829e-07 7.09202e-07 0)
(7.661e-07 7.53398e-07 0)
(8.04844e-07 7.98453e-07 0)
(8.44077e-07 8.44348e-07 0)
(8.83807e-07 8.91062e-07 0)
(9.24045e-07 9.38577e-07 0)
(9.64803e-07 9.86882e-07 0)
(1.00609e-06 1.03597e-06 0)
(1.04792e-06 1.08582e-06 0)
(1.0903e-06 1.13642e-06 0)
(1.13323e-06 1.18776e-06 0)
(1.17672e-06 1.23981e-06 0)
(1.22078e-06 1.29256e-06 0)
(1.26542e-06 1.34599e-06 0)
(1.31064e-06 1.40004e-06 0)
(1.35644e-06 1.45468e-06 0)
(1.40282e-06 1.50987e-06 0)
(1.44979e-06 1.56558e-06 0)
(1.49735e-06 1.62171e-06 0)
(1.54549e-06 1.67822e-06 0)
(1.59422e-06 1.73505e-06 0)
(1.64352e-06 1.79209e-06 0)
(1.6934e-06 1.8493e-06 0)
(1.74384e-06 1.9066e-06 0)
(1.79484e-06 1.96395e-06 0)
(1.8464e-06 2.02127e-06 0)
(1.89849e-06 2.07853e-06 0)
(1.9511e-06 2.13569e-06 0)
(2.00426e-06 2.19282e-06 0)
(2.05795e-06 2.24994e-06 0)
(2.11218e-06 2.30708e-06 0)
(2.16694e-06 2.36433e-06 0)
(2.22225e-06 2.42178e-06 0)
(2.2781e-06 2.47953e-06 0)
(2.3345e-06 2.53769e-06 0)
(2.39147e-06 2.59641e-06 0)
(2.44901e-06 2.6558e-06 0)
(2.50713e-06 2.71601e-06 0)
(2.56584e-06 2.77718e-06 0)
(2.62518e-06 2.83949e-06 0)
(2.68519e-06 2.9031e-06 0)
(2.7459e-06 2.96812e-06 0)
(2.80735e-06 3.03462e-06 0)
(2.86953e-06 3.10256e-06 0)
(2.93243e-06 3.17185e-06 0)
(2.99603e-06 3.24231e-06 0)
(3.06031e-06 3.31368e-06 0)
(3.1252e-06 3.38563e-06 0)
(3.19065e-06 3.45776e-06 0)
(3.25661e-06 3.52967e-06 0)
(3.32305e-06 3.60094e-06 0)
(3.38986e-06 3.67102e-06 0)
(3.45695e-06 3.73931e-06 0)
(3.52421e-06 3.80522e-06 0)
(3.5915e-06 3.86806e-06 0)
(3.65862e-06 3.92711e-06 0)
(3.72536e-06 3.98162e-06 0)
(3.7915e-06 4.03095e-06 0)
(3.85684e-06 4.07456e-06 0)
(3.92118e-06 4.11205e-06 0)
(3.98436e-06 4.14315e-06 0)
(4.04624e-06 4.16782e-06 0)
(4.10673e-06 4.18615e-06 0)
(4.16572e-06 4.19838e-06 0)
(4.22316e-06 4.2049e-06 0)
(4.27898e-06 4.20622e-06 0)
(4.33314e-06 4.20295e-06 0)
(4.3856e-06 4.19584e-06 0)
(4.43637e-06 4.1857e-06 0)
(4.48549e-06 4.17344e-06 0)
(4.53303e-06 4.15999e-06 0)
(4.57911e-06 4.14633e-06 0)
(4.62386e-06 4.13341e-06 0)
(4.66745e-06 4.12221e-06 0)
(4.71005e-06 4.11361e-06 0)
(4.75184e-06 4.10849e-06 0)
(4.793e-06 4.10764e-06 0)
(4.83373e-06 4.11179e-06 0)
(4.87418e-06 4.12159e-06 0)
(4.91454e-06 4.1376e-06 0)
(4.95497e-06 4.16033e-06 0)
(4.99565e-06 4.1902e-06 0)
(5.03674e-06 4.22756e-06 0)
(5.07838e-06 4.27271e-06 0)
(5.12074e-06 4.32588e-06 0)
(5.16395e-06 4.38723e-06 0)
(5.20816e-06 4.45687e-06 0)
(5.25351e-06 4.53488e-06 0)
(5.30013e-06 4.62126e-06 0)
(5.34815e-06 4.71597e-06 0)
(5.39771e-06 4.81891e-06 0)
(5.44895e-06 4.92996e-06 0)
(5.502e-06 5.04892e-06 0)
(5.55702e-06 5.17558e-06 0)
(5.61418e-06 5.30969e-06 0)
(5.67366e-06 5.45099e-06 0)
(5.73568e-06 5.59923e-06 0)
(5.80049e-06 5.75416e-06 0)
(5.86838e-06 5.91558e-06 0)
(5.93969e-06 6.08332e-06 0)
(6.01479e-06 6.25725e-06 0)
(6.09409e-06 6.43728e-06 0)
(6.17802e-06 6.62325e-06 0)
(6.26697e-06 6.81493e-06 0)
(6.36125e-06 7.01189e-06 0)
(6.46108e-06 7.21337e-06 0)
(6.5664e-06 7.41817e-06 0)
(6.67686e-06 7.62443e-06 0)
(6.79159e-06 7.82939e-06 0)
(6.90912e-06 8.02936e-06 0)
(7.02741e-06 8.21992e-06 0)
(7.1442e-06 8.39676e-06 0)
(7.25752e-06 8.55669e-06 0)
(7.36607e-06 8.69818e-06 0)
(7.46929e-06 8.82116e-06 0)
(7.56759e-06 8.92696e-06 0)
(7.66298e-06 9.01883e-06 0)
(7.75947e-06 9.10224e-06 0)
(7.86176e-06 9.18365e-06 0)
(7.97009e-06 9.26646e-06 0)
(8.07414e-06 9.34447e-06 0)
(8.15719e-06 9.40625e-06 0)
(8.20723e-06 9.44434e-06 0)
(8.22596e-06 9.45901e-06 0)
(8.23042e-06 9.46236e-06 0)
(8.23083e-06 9.46611e-06 0)
(2.85399e-05 -3.54561e-07 0)
(0.000141339 -9.81616e-06 0)
(0.00169045 -4.38643e-05 0)
(0.272087 0.000806271 0)
(0.533271 0.00474005 0)
(0.664077 0.00174999 0)
(0.73825 0.00155226 0)
(0.786702 0.00340172 0)
(0.821852 0.00683109 0)
(0.84722 0.00754132 0)
(0.86968 0.00995364 0)
(0.888884 0.0116228 0)
(0.905764 0.0127154 0)
(0.920894 0.0133336 0)
(0.934648 0.0136023 0)
(0.947286 0.0136253 0)
(0.95899 0.0134845 0)
(0.969892 0.0132396 0)
(0.980089 0.0129363 0)
(0.98966 0.0126083 0)
(0.998664 0.0122795 0)
(1.00715 0.0119665 0)
(1.01516 0.0116798 0)
(1.02272 0.0114259 0)
(1.02987 0.0112077 0)
(1.03662 0.0110261 0)
(1.04301 0.0108796 0)
(1.04905 0.0107653 0)
(1.05475 0.0106796 0)
(1.06014 0.0106183 0)
(1.06524 0.0105765 0)
(1.07005 0.0105492 0)
(1.07459 0.0105315 0)
(1.07888 0.0105185 0)
(1.08292 0.0105056 0)
(1.08674 0.0104886 0)
(1.09035 0.0104635 0)
(1.09375 0.010427 0)
(1.09696 0.0103758 0)
(1.09999 0.0103073 0)
(1.10285 0.0102193 0)
(1.10555 0.01011 0)
(1.1081 0.00997802 0)
(1.11052 0.00982229 0)
(1.11281 0.00964224 0)
(1.11497 0.00943768 0)
(1.11702 0.0092089 0)
(1.11897 0.00895659 0)
(1.12082 0.0086819 0)
(1.12257 0.00838636 0)
(1.12424 0.00807187 0)
(1.12583 0.00774072 0)
(1.12735 0.00739557 0)
(1.12879 0.00703931 0)
(1.13018 0.00667137 0)
(1.13154 0.00629146 0)
(1.13285 0.00590318 0)
(1.13412 0.00551023 0)
(1.13535 0.00511613 0)
(1.13654 0.00472401 0)
(1.13767 0.00433667 0)
(1.13876 0.00395676 0)
(1.1398 0.00358692 0)
(1.14078 0.00322971 0)
(1.1417 0.00288756 0)
(1.14256 0.00256232 0)
(1.14337 0.00225552 0)
(1.14411 0.00196885 0)
(1.1448 0.00170351 0)
(1.14543 0.00145977 0)
(1.14602 0.00123763 0)
(1.14655 0.00103718 0)
(1.14703 0.000858157 0)
(1.14748 0.000699548 0)
(1.14789 0.000560191 0)
(1.14827 0.000439765 0)
(1.14861 0.000337861 0)
(1.14893 0.000253583 0)
(1.14923 0.00018681 0)
(1.14951 0.000137946 0)
(1.14977 0.000107468 0)
(1.15001 9.60949e-05 0)
(1.15024 0.00010514 0)
(1.15045 0.000137071 0)
(1.15064 0.000193347 0)
(1.1508 0.00027564 0)
(1.15097 0.000398203 0)
(1.15115 0.00062626 0)
(1.15121 0.000938825 0)
(1.15099 0.0012871 0)
(1.17965 -0.00504649 0)
(1.17718 -0.000539064 0)
(1.17554 -0.00752243 0)
(1.17366 -0.00213596 0)
(1.17096 -0.00303133 0)
(1.16834 -0.00598602 0)
(1.16532 0.0084307 0)
(1.16286 -9.65403e-05 0)
(1.15929 9.00637e-06 0)
(1.15621 -9.37788e-06 0)
(1.15244 9.52301e-06 0)
(1.1491 2.28602e-05 0)
(1.14669 1.29588e-05 0)
(1.14368 3.15419e-05 0)
(1.14128 4.08233e-05 0)
(1.13917 5.06973e-05 0)
(1.13741 5.89223e-05 0)
(1.13597 6.52426e-05 0)
(1.13487 6.94613e-05 0)
(1.1341 7.15107e-05 0)
(1.13367 7.1276e-05 0)
(1.1336 6.81097e-05 0)
(1.13391 5.48801e-05 0)
(1.13558 4.50437e-05 0)
(1.13686 6.3008e-05 0)
(1.13703 7.48631e-05 0)
(1.13703 7.6291e-05 0)
(1.13703 7.63331e-05 0)
(1.13703 7.63325e-05 0)
(1.13703 7.63322e-05 0)
(1.13703 7.63326e-05 0)
(1.13703 7.63322e-05 0)
(1.13703 7.63327e-05 0)
(1.13703 7.63322e-05 0)
(1.13703 7.63327e-05 0)
(1.13703 7.63322e-05 0)
(1.13703 7.63327e-05 0)
(1.13703 7.63322e-05 0)
(1.13703 7.63327e-05 0)
(1.13703 7.63322e-05 0)
(1.13703 7.63328e-05 0)
(1.13703 7.63321e-05 0)
(1.13703 7.63328e-05 0)
(1.13703 7.63321e-05 0)
(1.13703 7.63328e-05 0)
(1.13703 7.63321e-05 0)
(1.13703 7.63329e-05 0)
(1.13703 7.6332e-05 0)
(1.13703 7.63329e-05 0)
(1.13703 7.6332e-05 0)
(1.13703 7.6333e-05 0)
(1.13703 7.6332e-05 0)
(1.13703 7.6333e-05 0)
(1.13703 7.63319e-05 0)
(1.13703 7.6333e-05 0)
(1.13703 7.63319e-05 0)
(1.13703 7.63331e-05 0)
(1.13703 7.63318e-05 0)
(1.13703 7.63331e-05 0)
(1.13703 7.63318e-05 0)
(1.13703 7.63332e-05 0)
(1.13703 7.63317e-05 0)
(1.13703 7.63332e-05 0)
(1.13703 7.63316e-05 0)
(1.13703 7.63332e-05 0)
(1.13703 7.63315e-05 0)
(1.13703 7.63332e-05 0)
(1.13703 7.63314e-05 0)
(1.13703 7.63333e-05 0)
(1.13703 7.63314e-05 0)
(1.13703 7.63333e-05 0)
(1.13703 7.63313e-05 0)
(1.13703 7.63333e-05 0)
(1.13703 7.63313e-05 0)
(1.13703 7.63332e-05 0)
(1.13703 7.63313e-05 0)
(1.13703 7.63332e-05 0)
(1.13703 7.63313e-05 0)
(1.13703 7.63332e-05 0)
(1.13703 7.63312e-05 0)
(1.13703 7.63332e-05 0)
(1.13703 7.63312e-05 0)
(1.13703 7.63332e-05 0)
(1.13703 7.63312e-05 0)
(1.13703 7.63332e-05 0)
(1.13703 7.63311e-05 0)
(1.13703 7.63332e-05 0)
(1.13703 7.63311e-05 0)
(1.13703 7.63331e-05 0)
(1.13703 7.6331e-05 0)
(1.13703 7.63331e-05 0)
(1.13703 7.63306e-05 0)
(1.13703 7.63318e-05 0)
(1.13703 7.63288e-05 0)
(1.13703 7.63302e-05 0)
(1.13703 7.63272e-05 0)
(1.13703 7.63285e-05 0)
(1.13703 7.63255e-05 0)
(1.13703 7.63268e-05 0)
(1.13703 7.63238e-05 0)
(1.13703 7.63251e-05 0)
(1.13703 7.63221e-05 0)
(1.13703 7.63234e-05 0)
(1.13703 7.63203e-05 0)
(1.13703 7.63217e-05 0)
(1.13703 7.63186e-05 0)
(1.13703 7.63201e-05 0)
(1.13703 7.63165e-05 0)
(1.13703 7.63169e-05 0)
(1.13703 7.6313e-05 0)
(1.13703 7.63137e-05 0)
(1.13703 7.63099e-05 0)
(1.13703 7.63107e-05 0)
(1.13703 7.63073e-05 0)
(1.13703 7.63089e-05 0)
(1.13703 7.63044e-05 0)
(1.13703 7.63037e-05 0)
(1.13703 7.62994e-05 0)
(1.13703 7.63015e-05 0)
(1.13703 7.6296e-05 0)
(1.13703 7.55498e-05 0)
(1.13702 1.19475e-05 0)
(1.13659 7.53856e-05 0)
)
;

boundaryField
{
    inandouthalf11
    {
        type            cyclic;
    }
    inandouthalf12
    {
        type            cyclic;
    }
    inandouthalf21
    {
        type            cyclic;
    }
    inandouthalf22
    {
        type            cyclic;
    }
    inandouthalf31
    {
        type            cyclic;
    }
    inandouthalf32
    {
        type            cyclic;
    }
    inandouthalf41
    {
        type            cyclic;
    }
    inandouthalf42
    {
        type            cyclic;
    }
    top
    {
        type            symmetryPlane;
    }
    walls
    {
        type            calculated;
        value           uniform (0 0 0);
    }
    frontAndBackPlanes
    {
        type            empty;
    }
}


// ************************************************************************* //
