/*--------------------------------*- C++ -*----------------------------------*\
| =========                 |                                                 |
| \\      /  F ield         | OpenFOAM: The Open Source CFD Toolbox           |
|  \\    /   O peration     | Version:  2.4.x                                 |
|   \\  /    A nd           | Web:      www.OpenFOAM.org                      |
|    \\/     M anipulation  |                                                 |
\*---------------------------------------------------------------------------*/
FoamFile
{
    version     2.0;
    format      ascii;
    class       volVectorField;
    location    "7.4";
    object      ddt0(Ub);
}
// * * * * * * * * * * * * * * * * * * * * * * * * * * * * * * * * * * * * * //

dimensions      [0 1 -2 0 0 0 0];

internalField   nonuniform List<vector> 
360
(
(0.000149017 -1.50167e-08 0)
(0.000148211 -5.55269e-08 0)
(0.00014814 -1.03061e-07 0)
(0.000148288 -1.44862e-07 0)
(0.000148374 -1.8476e-07 0)
(0.000148424 -2.25742e-07 0)
(0.000148479 -2.68356e-07 0)
(0.00014854 -3.12491e-07 0)
(0.000148603 -3.5818e-07 0)
(0.000148665 -4.05581e-07 0)
(0.000148728 -4.54863e-07 0)
(0.000148791 -5.06119e-07 0)
(0.000148854 -5.59335e-07 0)
(0.000148918 -6.14446e-07 0)
(0.000148982 -6.71377e-07 0)
(0.000149048 -7.30067e-07 0)
(0.000149113 -7.90452e-07 0)
(0.000149179 -8.5247e-07 0)
(0.000149246 -9.16062e-07 0)
(0.000149314 -9.81177e-07 0)
(0.000149382 -1.04775e-06 0)
(0.000149451 -1.11573e-06 0)
(0.000149521 -1.18508e-06 0)
(0.000149591 -1.25578e-06 0)
(0.000149663 -1.32777e-06 0)
(0.000149735 -1.40104e-06 0)
(0.000149808 -1.47554e-06 0)
(0.000149882 -1.55126e-06 0)
(0.000149956 -1.6282e-06 0)
(0.000150032 -1.70631e-06 0)
(0.000150108 -1.78558e-06 0)
(0.000150186 -1.86598e-06 0)
(0.000150264 -1.94747e-06 0)
(0.000150343 -2.03004e-06 0)
(0.000150424 -2.11364e-06 0)
(0.000150505 -2.1982e-06 0)
(0.000150587 -2.28366e-06 0)
(0.00015067 -2.36995e-06 0)
(0.000150755 -2.45702e-06 0)
(0.00015084 -2.54473e-06 0)
(0.000150926 -2.63302e-06 0)
(0.000151014 -2.72176e-06 0)
(0.000151102 -2.81082e-06 0)
(0.000151192 -2.90011e-06 0)
(0.000151282 -2.98953e-06 0)
(0.000151374 -3.07897e-06 0)
(0.000151467 -3.16838e-06 0)
(0.00015156 -3.25764e-06 0)
(0.000151655 -3.34676e-06 0)
(0.000151751 -3.43579e-06 0)
(0.000151848 -3.52476e-06 0)
(0.000151946 -3.61377e-06 0)
(0.000152045 -3.70291e-06 0)
(0.000152145 -3.79234e-06 0)
(0.000152246 -3.88219e-06 0)
(0.000152349 -3.97269e-06 0)
(0.000152452 -4.06399e-06 0)
(0.000152557 -4.15633e-06 0)
(0.000152663 -4.24992e-06 0)
(0.000152769 -4.34497e-06 0)
(0.000152878 -4.44178e-06 0)
(0.000152987 -4.54054e-06 0)
(0.000153098 -4.64146e-06 0)
(0.00015321 -4.74459e-06 0)
(0.000153324 -4.84992e-06 0)
(0.000153439 -4.95727e-06 0)
(0.000153555 -5.06635e-06 0)
(0.000153674 -5.17679e-06 0)
(0.000153793 -5.28807e-06 0)
(0.000153914 -5.39956e-06 0)
(0.000154036 -5.51065e-06 0)
(0.00015416 -5.62065e-06 0)
(0.000154284 -5.72869e-06 0)
(0.00015441 -5.83392e-06 0)
(0.000154538 -5.93532e-06 0)
(0.000154666 -6.03188e-06 0)
(0.000154795 -6.12247e-06 0)
(0.000154926 -6.20598e-06 0)
(0.000155057 -6.2814e-06 0)
(0.000155188 -6.34792e-06 0)
(0.00015532 -6.40491e-06 0)
(0.000155451 -6.452e-06 0)
(0.000155583 -6.48909e-06 0)
(0.000155715 -6.51633e-06 0)
(0.000155846 -6.53411e-06 0)
(0.000155978 -6.54301e-06 0)
(0.000156109 -6.54383e-06 0)
(0.000156239 -6.53755e-06 0)
(0.00015637 -6.52531e-06 0)
(0.0001565 -6.50838e-06 0)
(0.00015663 -6.48814e-06 0)
(0.00015676 -6.46606e-06 0)
(0.00015689 -6.44361e-06 0)
(0.00015702 -6.42231e-06 0)
(0.000157151 -6.40362e-06 0)
(0.000157281 -6.38893e-06 0)
(0.000157413 -6.37958e-06 0)
(0.000157546 -6.37679e-06 0)
(0.00015768 -6.38168e-06 0)
(0.000157815 -6.39525e-06 0)
(0.000157952 -6.41838e-06 0)
(0.000158091 -6.45182e-06 0)
(0.000158233 -6.49622e-06 0)
(0.000158377 -6.55212e-06 0)
(0.000158523 -6.61996e-06 0)
(0.000158673 -6.70007e-06 0)
(0.000158826 -6.7927e-06 0)
(0.000158982 -6.89802e-06 0)
(0.000159143 -7.01611e-06 0)
(0.000159307 -7.14695e-06 0)
(0.000159476 -7.29044e-06 0)
(0.000159649 -7.44645e-06 0)
(0.000159828 -7.61473e-06 0)
(0.000160011 -7.79498e-06 0)
(0.0001602 -7.98683e-06 0)
(0.000160395 -8.1899e-06 0)
(0.000160596 -8.40375e-06 0)
(0.000160804 -8.62796e-06 0)
(0.000161018 -8.86214e-06 0)
(0.00016124 -9.10594e-06 0)
(0.00016147 -9.35908e-06 0)
(0.000161709 -9.62133e-06 0)
(0.000161957 -9.89245e-06 0)
(0.000162215 -1.01722e-05 0)
(0.000162485 -1.04601e-05 0)
(0.000162766 -1.07554e-05 0)
(0.00016306 -1.10569e-05 0)
(0.000163368 -1.13625e-05 0)
(0.00016369 -1.16694e-05 0)
(0.000164027 -1.19733e-05 0)
(0.000164378 -1.22685e-05 0)
(0.000164742 -1.25487e-05 0)
(0.000165116 -1.28074e-05 0)
(0.000165502 -1.304e-05 0)
(0.0001659 -1.32441e-05 0)
(0.000166308 -1.34196e-05 0)
(0.000166725 -1.35686e-05 0)
(0.000167157 -1.36957e-05 0)
(0.000167624 -1.38081e-05 0)
(0.00016815 -1.3915e-05 0)
(0.000168722 -1.40207e-05 0)
(0.000169285 -1.41123e-05 0)
(0.000169923 -1.41773e-05 0)
(0.000170685 -1.42052e-05 0)
(0.000171592 -1.41781e-05 0)
(0.000173367 -1.41884e-05 0)
(0.000172835 -9.1456e-06 0)
(0.000186513 1.53229e-05 0)
(0.000306149 -1.80379e-05 0)
(0.00299237 2.43137e-05 0)
(0.314607 -0.00030637 0)
(0.609488 -0.000178924 0)
(0.739426 -1.26962e-05 0)
(0.801562 -1.61275e-05 0)
(0.837603 -3.83234e-05 0)
(0.863055 -4.84037e-05 0)
(0.883536 -4.89344e-05 0)
(0.901226 -4.75702e-05 0)
(0.917097 -4.60022e-05 0)
(0.931637 -4.32828e-05 0)
(0.945114 -3.98952e-05 0)
(0.957697 -3.63559e-05 0)
(0.969498 -3.29268e-05 0)
(0.980601 -2.97157e-05 0)
(0.991071 -2.67629e-05 0)
(1.00096 -2.40795e-05 0)
(1.01032 -2.16611e-05 0)
(1.01918 -1.94927e-05 0)
(1.02758 -1.75555e-05 0)
(1.03555 -1.58284e-05 0)
(1.04312 -1.42905e-05 0)
(1.05031 -1.29215e-05 0)
(1.05714 -1.17027e-05 0)
(1.06364 -1.06168e-05 0)
(1.06983 -9.64811e-06 0)
(1.07572 -8.78257e-06 0)
(1.08133 -8.00775e-06 0)
(1.08667 -7.31258e-06 0)
(1.09177 -6.68736e-06 0)
(1.09662 -6.1236e-06 0)
(1.10124 -5.61391e-06 0)
(1.10566 -5.15188e-06 0)
(1.10986 -4.73195e-06 0)
(1.11388 -4.34931e-06 0)
(1.11771 -3.9998e-06 0)
(1.12136 -3.67984e-06 0)
(1.12485 -3.38631e-06 0)
(1.12818 -3.11652e-06 0)
(1.13136 -2.86815e-06 0)
(1.1344 -2.63915e-06 0)
(1.1373 -2.42774e-06 0)
(1.14007 -2.2323e-06 0)
(1.14272 -2.05142e-06 0)
(1.14525 -1.88385e-06 0)
(1.14766 -1.7285e-06 0)
(1.14997 -1.58445e-06 0)
(1.15218 -1.45094e-06 0)
(1.15428 -1.32726e-06 0)
(1.15629 -1.21279e-06 0)
(1.1582 -1.10698e-06 0)
(1.16002 -1.00935e-06 0)
(1.16177 -9.18483e-07 0)
(1.16347 -8.33195e-07 0)
(1.16512 -7.53139e-07 0)
(1.16672 -6.78003e-07 0)
(1.16828 -6.07591e-07 0)
(1.16978 -5.41748e-07 0)
(1.17125 -4.80278e-07 0)
(1.17266 -4.23001e-07 0)
(1.17404 -3.69828e-07 0)
(1.17536 -3.20781e-07 0)
(1.17664 -2.7598e-07 0)
(1.17786 -2.35476e-07 0)
(1.17903 -1.99153e-07 0)
(1.18015 -1.66921e-07 0)
(1.18122 -1.38772e-07 0)
(1.18223 -1.14538e-07 0)
(1.18318 -9.38736e-08 0)
(1.18407 -7.64527e-08 0)
(1.18489 -6.19923e-08 0)
(1.18565 -5.01249e-08 0)
(1.18634 -4.04038e-08 0)
(1.18695 -3.24734e-08 0)
(1.18749 -2.60721e-08 0)
(1.18794 -2.09238e-08 0)
(1.18831 -1.67813e-08 0)
(1.18858 -1.34648e-08 0)
(1.18876 -1.08269e-08 0)
(1.18883 -8.7291e-09 0)
(1.18878 -7.05966e-09 0)
(1.18861 -5.74465e-09 0)
(1.18831 -4.70815e-09 0)
(1.18786 -3.83317e-09 0)
(1.18725 -3.07226e-09 0)
(1.18647 -2.63631e-09 0)
(1.18551 -2.57472e-09 0)
(1.18435 -2.1451e-09 0)
(1.18296 -1.1833e-09 0)
(1.18134 -6.79448e-10 0)
(1.17948 -6.19176e-10 0)
(1.17735 -5.57929e-10 0)
(1.17496 -5.72148e-10 0)
(1.1723 -5.42326e-10 0)
(1.16941 -5.65822e-10 0)
(1.1663 -5.54653e-10 0)
(1.16303 -5.17475e-10 0)
(1.15968 -4.95706e-10 0)
(1.15633 -4.73553e-10 0)
(1.15308 -4.50934e-10 0)
(1.15001 -4.2876e-10 0)
(1.14719 -4.02958e-10 0)
(1.14468 -3.76664e-10 0)
(1.14249 -3.51632e-10 0)
(1.14063 -3.57068e-10 0)
(1.13911 -2.77265e-10 0)
(1.13794 -3.00969e-10 0)
(1.13709 -2.85987e-10 0)
(1.13659 -1.24655e-10 0)
(1.13644 -4.13434e-10 0)
(1.13667 1.44672e-10 0)
(1.13803 -5.92296e-10 0)
(1.13966 4.21765e-10 0)
(1.13988 -7.45975e-10 0)
(1.13989 6.54305e-10 0)
(1.13989 -8.62447e-10 0)
(1.13989 8.24717e-10 0)
(1.13989 -9.56808e-10 0)
(1.13989 9.56708e-10 0)
(1.13989 -1.04576e-09 0)
(1.13989 1.08077e-09 0)
(1.13989 -1.13977e-09 0)
(1.13989 1.2064e-09 0)
(1.13989 -1.24388e-09 0)
(1.13989 1.33337e-09 0)
(1.13989 -1.3606e-09 0)
(1.13989 1.46857e-09 0)
(1.13989 -1.48438e-09 0)
(1.13989 1.60949e-09 0)
(1.13989 -1.61754e-09 0)
(1.13989 1.75809e-09 0)
(1.13989 -1.75755e-09 0)
(1.13989 1.91098e-09 0)
(1.13989 -1.90949e-09 0)
(1.13989 2.0691e-09 0)
(1.13989 -2.07097e-09 0)
(1.13989 2.23391e-09 0)
(1.13989 -2.24095e-09 0)
(1.13989 2.40521e-09 0)
(1.13989 -2.41941e-09 0)
(1.13989 2.58224e-09 0)
(1.13989 -2.60701e-09 0)
(1.13989 2.76809e-09 0)
(1.13989 -2.80344e-09 0)
(1.13989 2.95734e-09 0)
(1.13989 -3.01258e-09 0)
(1.13989 3.15306e-09 0)
(1.13989 -3.24435e-09 0)
(1.13989 3.3064e-09 0)
(1.13989 -3.53381e-09 0)
(1.13989 3.45622e-09 0)
(1.13989 -3.8311e-09 0)
(1.13989 3.60989e-09 0)
(1.13989 -4.13686e-09 0)
(1.13989 3.77966e-09 0)
(1.13989 -4.44751e-09 0)
(1.13989 3.94809e-09 0)
(1.13989 -4.77148e-09 0)
(1.13989 4.12873e-09 0)
(1.13989 -5.08508e-09 0)
(1.13989 4.32173e-09 0)
(1.13989 -4.79049e-09 0)
(1.13989 3.83368e-09 0)
(1.13989 -4.89525e-09 0)
(1.13989 3.83425e-09 0)
(1.13989 -5.01624e-09 0)
(1.13989 3.83471e-09 0)
(1.13989 -5.13165e-09 0)
(1.13989 3.83923e-09 0)
(1.13989 -5.24162e-09 0)
(1.13989 3.85978e-09 0)
(1.13989 -5.35191e-09 0)
(1.13989 3.82016e-09 0)
(1.13989 -5.51661e-09 0)
(1.13989 3.79723e-09 0)
(1.13989 -5.67582e-09 0)
(1.13989 3.68368e-09 0)
(1.13989 -5.8769e-09 0)
(1.13989 3.83463e-09 0)
(1.13989 -6.92368e-09 0)
(1.13989 3.2425e-10 0)
(1.13989 -1.16224e-08 0)
(1.13989 -4.03e-09 0)
(1.13989 -1.6045e-08 0)
(1.13989 -8.41221e-09 0)
(1.13989 -2.05287e-08 0)
(1.13989 -1.27645e-08 0)
(1.13989 -2.50064e-08 0)
(1.13989 -1.72601e-08 0)
(1.13989 -2.96049e-08 0)
(1.13989 -2.17009e-08 0)
(1.13989 -3.41358e-08 0)
(1.13989 -2.62166e-08 0)
(1.13989 -3.86495e-08 0)
(1.13989 -3.04157e-08 0)
(1.13989 -4.42107e-08 0)
(1.13989 -3.866e-08 0)
(1.13989 -5.34746e-08 0)
(1.13989 -4.69487e-08 0)
(1.13989 -6.15101e-08 0)
(1.13989 -5.49343e-08 0)
(1.13989 -6.83509e-08 0)
(1.13989 -5.95051e-08 0)
(1.13989 -7.5624e-08 0)
(1.13989 -7.30201e-08 0)
(1.13989 -8.8751e-08 0)
(1.13989 -7.91233e-08 0)
(1.13989 -9.1411e-08 0)
(1.13989 -8.19285e-08 0)
(1.13989 -9.02125e-08 0)
(1.13989 -3.70536e-08 0)
)
;

boundaryField
{
    inandouthalf11
    {
        type            cyclic;
    }
    inandouthalf12
    {
        type            cyclic;
    }
    inandouthalf21
    {
        type            cyclic;
    }
    inandouthalf22
    {
        type            cyclic;
    }
    inandouthalf31
    {
        type            cyclic;
    }
    inandouthalf32
    {
        type            cyclic;
    }
    inandouthalf41
    {
        type            cyclic;
    }
    inandouthalf42
    {
        type            cyclic;
    }
    top
    {
        type            symmetryPlane;
    }
    walls
    {
        type            calculated;
        value           uniform (0 0 0);
    }
    frontAndBackPlanes
    {
        type            empty;
    }
}


// ************************************************************************* //
