/*--------------------------------*- C++ -*----------------------------------*\
| =========                 |                                                 |
| \\      /  F ield         | OpenFOAM: The Open Source CFD Toolbox           |
|  \\    /   O peration     | Version:  2.4.x                                 |
|   \\  /    A nd           | Web:      www.OpenFOAM.org                      |
|    \\/     M anipulation  |                                                 |
\*---------------------------------------------------------------------------*/
FoamFile
{
    version     2.0;
    format      ascii;
    class       volScalarField;
    location    "7.4";
    object      k;
}
// * * * * * * * * * * * * * * * * * * * * * * * * * * * * * * * * * * * * * //

dimensions      [0 2 -2 0 0 0 0];

internalField   nonuniform List<scalar> 
360
(
1e-20
1e-20
1e-20
1e-20
1e-20
1e-20
1e-20
1e-20
1e-20
1e-20
1e-20
1e-20
1e-20
1e-20
1e-20
1e-20
1e-20
1e-20
1e-20
1e-20
1e-20
1e-20
1e-20
1e-20
1e-20
1e-20
1e-20
1e-20
1e-20
1e-20
1e-20
1e-20
1e-20
1e-20
1e-20
1e-20
1e-20
1e-20
1e-20
1e-20
1e-20
1e-20
1e-20
1e-20
1e-20
1e-20
1e-20
1e-20
1e-20
1e-20
1e-20
1e-20
1e-20
1e-20
1e-20
1e-20
1e-20
1e-20
1e-20
1e-20
1e-20
1e-20
1e-20
1e-20
1e-20
1e-20
1e-20
1e-20
1e-20
1e-20
1e-20
1e-20
1e-20
1e-20
1e-20
1e-20
1e-20
1e-20
1e-20
1e-20
1e-20
1e-20
1e-20
1e-20
1e-20
1e-20
1e-20
1e-20
1e-20
1e-20
1e-20
1e-20
1e-20
1e-20
1e-20
1e-20
1e-20
1e-20
1e-20
1e-20
1e-20
1e-20
1e-20
1e-20
1e-20
1e-20
1e-20
1e-20
1e-20
1e-20
1e-20
1e-20
1e-20
1e-20
1e-20
1e-20
1e-20
1e-20
1e-20
1e-20
1e-20
1e-20
1e-20
1e-20
1e-20
1e-20
1e-20
1e-20
1e-20
1e-20
1e-20
1e-20
1e-20
1.61599e-20
5.94879e-20
2.47874e-19
1.10066e-18
5.30867e-18
2.82186e-17
1.63344e-16
9.95558e-16
6.20959e-15
4.01696e-14
2.8916e-13
2.59681e-12
3.22501e-11
5.62097e-10
1.28324e-08
3.81959e-07
1.44304e-05
0.000452474
0.00108819
0.0013973
0.00167924
0.00193893
0.00218081
0.00240829
0.00262348
0.0028276
0.00302137
0.00320524
0.00337955
0.00354454
0.00370042
0.00384741
0.0039857
0.0041155
0.00423702
0.00435049
0.00445611
0.00455412
0.00464473
0.00472819
0.00480472
0.00487455
0.00493789
0.00499499
0.00504604
0.00509128
0.0051309
0.00516513
0.00519415
0.00521817
0.00523738
0.00525196
0.0052621
0.00526797
0.00526973
0.00526757
0.00526162
0.00525206
0.00523903
0.00522268
0.00520314
0.00518055
0.00515505
0.00512677
0.00509582
0.00506233
0.00502641
0.00498819
0.00494735
0.00490347
0.00485652
0.00480647
0.00475326
0.00469687
0.00463726
0.0045744
0.00450826
0.00443882
0.00436604
0.00428992
0.00421044
0.00412759
0.00404136
0.00395176
0.00385881
0.00376251
0.00366291
0.00356005
0.00345398
0.00334478
0.00323253
0.00311734
0.00299934
0.00287869
0.00275556
0.00263016
0.00250275
0.00237361
0.00224305
0.00211146
0.00197925
0.00184692
0.00171499
0.00158408
0.00145486
0.00132808
0.00120453
0.00108507
0.000970594
0.000861996
0.000760139
0.000665798
0.000579587
0.000501896
0.000432825
0.000372145
0.0003193
0.000273456
0.000233587
0.000198579
0.000167339
0.000138884
0.00011242
8.74011e-05
6.35964e-05
4.11787e-05
2.09382e-05
5.44496e-06
3.88088e-07
1.0138e-08
2.20068e-10
4.48937e-12
8.63315e-14
1.56462e-15
2.67249e-17
4.36047e-19
1.44892e-20
1e-20
1e-20
1e-20
1e-20
1e-20
1e-20
1e-20
1e-20
1e-20
1e-20
1e-20
1e-20
1e-20
1e-20
1e-20
1e-20
1e-20
1e-20
1e-20
1e-20
1e-20
1e-20
1e-20
1e-20
1e-20
1e-20
1e-20
1e-20
1e-20
1e-20
1e-20
1e-20
1e-20
1e-20
1e-20
1e-20
1e-20
1e-20
1e-20
1e-20
1e-20
1e-20
1e-20
1e-20
1e-20
1e-20
1e-20
1e-20
1e-20
1e-20
1e-20
1e-20
1e-20
1e-20
1e-20
1e-20
1e-20
1e-20
1e-20
1e-20
1e-20
1e-20
1e-20
1e-20
1e-20
1e-20
1e-20
1e-20
1e-20
1e-20
1e-20
1e-20
1e-20
1e-20
1e-20
1e-20
1e-20
1e-20
1e-20
1e-20
1e-20
1e-20
1e-20
1e-20
1e-20
1e-20
1e-20
1e-20
1e-20
1e-20
)
;

boundaryField
{
    inandouthalf11
    {
        type            cyclic;
    }
    inandouthalf12
    {
        type            cyclic;
    }
    inandouthalf21
    {
        type            cyclic;
    }
    inandouthalf22
    {
        type            cyclic;
    }
    inandouthalf31
    {
        type            cyclic;
    }
    inandouthalf32
    {
        type            cyclic;
    }
    inandouthalf41
    {
        type            cyclic;
    }
    inandouthalf42
    {
        type            cyclic;
    }
    top
    {
        type            symmetryPlane;
    }
    walls
    {
        type            zeroGradient;
    }
    frontAndBackPlanes
    {
        type            empty;
    }
}


// ************************************************************************* //
