/*--------------------------------*- C++ -*----------------------------------*\
| =========                 |                                                 |
| \\      /  F ield         | OpenFOAM: The Open Source CFD Toolbox           |
|  \\    /   O peration     | Version:  2.4.x                                 |
|   \\  /    A nd           | Web:      www.OpenFOAM.org                      |
|    \\/     M anipulation  |                                                 |
\*---------------------------------------------------------------------------*/
FoamFile
{
    version     2.0;
    format      ascii;
    class       surfaceScalarField;
    location    "7.4";
    object      phia;
}
// * * * * * * * * * * * * * * * * * * * * * * * * * * * * * * * * * * * * * //

dimensions      [0 3 -1 0 0 0 0];

internalField   nonuniform List<scalar> 
359
(
-2.15889e-13
-5.47602e-13
-8.47453e-13
-1.12844e-12
-1.41414e-12
-1.7053e-12
-1.99758e-12
-2.28947e-12
-2.58113e-12
-2.87319e-12
-3.16605e-12
-3.45975e-12
-3.75431e-12
-4.04967e-12
-4.34591e-12
-4.64314e-12
-4.94146e-12
-5.24096e-12
-5.54166e-12
-5.84367e-12
-6.14694e-12
-6.45157e-12
-6.75758e-12
-7.06497e-12
-7.37378e-12
-7.68399e-12
-7.99557e-12
-8.30859e-12
-8.62301e-12
-8.93879e-12
-9.25591e-12
-9.57441e-12
-9.89412e-12
-1.02152e-11
-1.05375e-11
-1.0861e-11
-1.11856e-11
-1.15113e-11
-1.18382e-11
-1.21659e-11
-1.24947e-11
-1.28244e-11
-1.31547e-11
-1.34859e-11
-1.38177e-11
-1.41501e-11
-1.4483e-11
-1.48161e-11
-1.51497e-11
-1.54836e-11
-1.58178e-11
-1.61522e-11
-1.64867e-11
-1.68215e-11
-1.71563e-11
-1.74912e-11
-1.78261e-11
-1.8161e-11
-1.84958e-11
-1.88304e-11
-1.91653e-11
-1.95002e-11
-1.98354e-11
-2.01708e-11
-2.05064e-11
-2.0842e-11
-2.11776e-11
-2.1513e-11
-2.1848e-11
-2.21825e-11
-2.25165e-11
-2.28499e-11
-2.31825e-11
-2.35142e-11
-2.38447e-11
-2.41737e-11
-2.45005e-11
-2.48247e-11
-2.51458e-11
-2.54632e-11
-2.57765e-11
-2.60854e-11
-2.63896e-11
-2.66888e-11
-2.69829e-11
-2.72715e-11
-2.75544e-11
-2.78311e-11
-2.81014e-11
-2.83651e-11
-2.86221e-11
-2.88723e-11
-2.91158e-11
-2.93528e-11
-2.95836e-11
-2.98085e-11
-3.00277e-11
-3.02416e-11
-3.04504e-11
-3.06544e-11
-3.0854e-11
-3.10495e-11
-3.12411e-11
-3.14292e-11
-3.1614e-11
-3.17959e-11
-3.19752e-11
-3.21521e-11
-3.23269e-11
-3.24999e-11
-3.26713e-11
-3.28413e-11
-3.30103e-11
-3.31786e-11
-3.33464e-11
-3.35142e-11
-3.36823e-11
-3.38511e-11
-3.40213e-11
-3.41933e-11
-3.43676e-11
-3.4545e-11
-3.47257e-11
-3.49102e-11
-3.50985e-11
-3.52905e-11
-3.54854e-11
-3.56824e-11
-3.58795e-11
-3.60746e-11
-3.62646e-11
-3.64466e-11
-3.66181e-11
-3.67781e-11
-3.69265e-11
-3.70643e-11
-3.71934e-11
-3.73175e-11
-3.7441e-11
-3.75651e-11
-3.76802e-11
-3.7767e-11
-3.78194e-11
-3.78429e-11
-3.78499e-11
-3.7851e-11
-4.46381e-11
-6.31236e-11
-8.18986e-11
1.99741e-11
-5.31906e-10
-3.4541e-09
-6.93079e-09
-1.03988e-08
-1.38092e-08
-1.7006e-08
-1.99606e-08
-2.26533e-08
-2.50564e-08
-2.71536e-08
-2.89567e-08
-3.04853e-08
-3.17647e-08
-3.28224e-08
-3.36857e-08
-3.43813e-08
-3.49335e-08
-3.53648e-08
-3.56954e-08
-3.59429e-08
-3.61232e-08
-3.62495e-08
-3.63334e-08
-3.63846e-08
-3.6411e-08
-3.6419e-08
-3.64137e-08
-3.63988e-08
-3.63771e-08
-3.63501e-08
-3.63189e-08
-3.62837e-08
-3.62442e-08
-3.61995e-08
-3.61486e-08
-3.60901e-08
-3.60223e-08
-3.59436e-08
-3.58523e-08
-3.57467e-08
-3.5625e-08
-3.54858e-08
-3.53275e-08
-3.51488e-08
-3.49486e-08
-3.47259e-08
-3.44799e-08
-3.421e-08
-3.3916e-08
-3.3598e-08
-3.32568e-08
-3.28857e-08
-3.24855e-08
-3.20573e-08
-3.16035e-08
-3.1127e-08
-3.06316e-08
-3.01217e-08
-2.96019e-08
-2.9077e-08
-2.85517e-08
-2.803e-08
-2.75156e-08
-2.70119e-08
-2.65208e-08
-2.60436e-08
-2.55812e-08
-2.51335e-08
-2.47002e-08
-2.42801e-08
-2.38721e-08
-2.34759e-08
-2.30898e-08
-2.27129e-08
-2.23448e-08
-2.19849e-08
-2.16324e-08
-2.12884e-08
-2.09511e-08
-2.06263e-08
-2.0307e-08
-2.00122e-08
-1.97142e-08
-1.94914e-08
-1.92187e-08
-1.87555e-08
-1.59207e-08
-1.11666e-08
-9.17373e-09
-5.74316e-09
-4.48174e-09
5.85105e-10
-7.89687e-08
-1.52071e-07
-1.58316e-07
-1.58224e-07
-1.58198e-07
-1.5817e-07
-1.58146e-07
-1.58123e-07
-1.58103e-07
-1.58089e-07
-1.58078e-07
-1.58071e-07
-1.58065e-07
-1.5806e-07
-1.58055e-07
-1.58048e-07
-1.58037e-07
-1.58014e-07
-1.57973e-07
-1.57958e-07
-1.57958e-07
-1.57958e-07
-1.57958e-07
-1.57958e-07
-1.57958e-07
-1.57958e-07
-1.57958e-07
-1.57958e-07
-1.57958e-07
-1.57958e-07
-1.57958e-07
-1.57958e-07
-1.57958e-07
-1.57958e-07
-1.57958e-07
-1.57958e-07
-1.57958e-07
-1.57958e-07
-1.57958e-07
-1.57958e-07
-1.57958e-07
-1.57958e-07
-1.57958e-07
-1.57958e-07
-1.57958e-07
-1.57958e-07
-1.57958e-07
-1.57958e-07
-1.57958e-07
-1.57958e-07
-1.57958e-07
-1.57958e-07
-1.57958e-07
-1.57958e-07
-1.57958e-07
-1.57958e-07
-1.57958e-07
-1.57958e-07
-1.57958e-07
-1.57958e-07
-1.57958e-07
-1.57958e-07
-1.57958e-07
-1.57958e-07
-1.57958e-07
-1.57958e-07
-1.57958e-07
-1.57958e-07
-1.57958e-07
-1.57958e-07
-1.57958e-07
-1.57958e-07
-1.57958e-07
-1.57958e-07
-1.57958e-07
-1.57958e-07
-1.57958e-07
-1.57958e-07
-1.57958e-07
-1.57958e-07
-1.57958e-07
-1.57958e-07
-1.57958e-07
-1.57958e-07
-1.57958e-07
-1.57958e-07
-1.57958e-07
-1.57958e-07
-1.57958e-07
-1.57958e-07
-1.57958e-07
-1.57958e-07
-1.57958e-07
-1.57958e-07
-1.57958e-07
-1.57958e-07
-1.57958e-07
-1.57958e-07
-1.57958e-07
-1.57958e-07
-1.57958e-07
-1.57958e-07
-1.57958e-07
-1.57958e-07
-1.57958e-07
-1.57958e-07
-1.57958e-07
-1.57958e-07
-1.57958e-07
-1.57958e-07
-1.57958e-07
-1.57958e-07
-1.57958e-07
-1.57958e-07
-1.5794e-07
-1.57232e-07
-1.32037e-07
)
;

boundaryField
{
    inandouthalf11
    {
        type            cyclic;
        value           nonuniform List<scalar> 
100
(
-2.82884e-39
-3.80439e-15
-7.68057e-15
-1.09042e-14
-1.39565e-14
-1.69431e-14
-1.97969e-14
-2.24836e-14
-2.5003e-14
-2.73611e-14
-2.95624e-14
-3.1609e-14
-3.3501e-14
-3.52383e-14
-3.6821e-14
-3.82497e-14
-3.95248e-14
-4.06463e-14
-4.16142e-14
-4.24281e-14
-4.30876e-14
-4.35921e-14
-4.39411e-14
-4.41338e-14
-4.41695e-14
-4.40473e-14
-4.37664e-14
-4.3326e-14
-4.27251e-14
-4.1963e-14
-4.10388e-14
-3.99516e-14
-3.87006e-14
-3.72851e-14
-3.57042e-14
-3.39575e-14
-3.20443e-14
-2.99641e-14
-2.7716e-14
-2.53001e-14
-2.27161e-14
-1.99635e-14
-1.70429e-14
-1.39541e-14
-1.0697e-14
-7.27206e-15
-3.67984e-15
7.8157e-17
4.00137e-15
8.0907e-15
1.23456e-14
1.67649e-14
2.13484e-14
2.60958e-14
3.10064e-14
3.608e-14
4.13159e-14
4.67134e-14
5.2272e-14
5.79909e-14
6.3872e-14
6.99181e-14
7.61311e-14
8.2513e-14
8.90637e-14
9.57825e-14
1.02669e-13
1.09721e-13
1.16935e-13
1.24309e-13
1.31841e-13
1.39533e-13
1.4738e-13
1.55378e-13
1.63523e-13
1.71807e-13
1.80219e-13
1.88741e-13
1.97357e-13
2.06049e-13
2.148e-13
2.23593e-13
2.32413e-13
2.41247e-13
2.5008e-13
2.58896e-13
2.67678e-13
2.76406e-13
2.85062e-13
2.93624e-13
3.02079e-13
3.10411e-13
3.18611e-13
3.26673e-13
3.34593e-13
3.42372e-13
3.50009e-13
3.57505e-13
3.64864e-13
3.72088e-13
)
;
    }
    inandouthalf12
    {
        type            cyclic;
        value           nonuniform List<scalar> 
100
(
2.82884e-39
3.80439e-15
7.68057e-15
1.09042e-14
1.39565e-14
1.69431e-14
1.97969e-14
2.24836e-14
2.5003e-14
2.73611e-14
2.95624e-14
3.1609e-14
3.3501e-14
3.52383e-14
3.6821e-14
3.82497e-14
3.95248e-14
4.06463e-14
4.16142e-14
4.24281e-14
4.30876e-14
4.35921e-14
4.39411e-14
4.41338e-14
4.41695e-14
4.40473e-14
4.37664e-14
4.3326e-14
4.27251e-14
4.1963e-14
4.10388e-14
3.99516e-14
3.87006e-14
3.72851e-14
3.57042e-14
3.39575e-14
3.20443e-14
2.99641e-14
2.7716e-14
2.53001e-14
2.27161e-14
1.99635e-14
1.70429e-14
1.39541e-14
1.0697e-14
7.27206e-15
3.67984e-15
-7.8157e-17
-4.00137e-15
-8.0907e-15
-1.23456e-14
-1.67649e-14
-2.13484e-14
-2.60958e-14
-3.10064e-14
-3.608e-14
-4.13159e-14
-4.67134e-14
-5.2272e-14
-5.79909e-14
-6.3872e-14
-6.99181e-14
-7.61311e-14
-8.2513e-14
-8.90637e-14
-9.57825e-14
-1.02669e-13
-1.09721e-13
-1.16935e-13
-1.24309e-13
-1.31841e-13
-1.39533e-13
-1.4738e-13
-1.55378e-13
-1.63523e-13
-1.71807e-13
-1.80219e-13
-1.88741e-13
-1.97357e-13
-2.06049e-13
-2.148e-13
-2.23593e-13
-2.32413e-13
-2.41247e-13
-2.5008e-13
-2.58896e-13
-2.67678e-13
-2.76406e-13
-2.85062e-13
-2.93624e-13
-3.02079e-13
-3.10411e-13
-3.18611e-13
-3.26673e-13
-3.34593e-13
-3.42372e-13
-3.50009e-13
-3.57505e-13
-3.64864e-13
-3.72088e-13
)
;
    }
    inandouthalf21
    {
        type            cyclic;
        value           nonuniform List<scalar> 
100
(
3.79182e-13
3.86151e-13
3.93002e-13
3.9974e-13
4.06376e-13
4.12916e-13
4.19369e-13
4.25747e-13
4.32058e-13
4.38315e-13
4.44528e-13
4.50712e-13
4.56882e-13
4.63053e-13
4.69247e-13
4.75486e-13
4.81797e-13
4.88212e-13
4.94768e-13
5.0151e-13
5.08488e-13
5.1576e-13
5.23389e-13
5.31444e-13
5.39991e-13
5.49095e-13
5.5881e-13
5.6917e-13
5.8018e-13
5.91798e-13
6.03924e-13
6.16403e-13
6.29053e-13
6.41723e-13
6.54331e-13
6.66871e-13
6.79435e-13
6.92296e-13
7.05984e-13
7.21056e-13
7.37208e-13
7.52304e-13
7.63562e-13
7.69676e-13
7.71661e-13
7.72037e-13
7.71633e-13
-2.05493e-12
-1.24748e-11
-8.16914e-11
-6.09742e-08
-1.10387e-07
-1.26958e-07
-1.33777e-07
-1.36591e-07
-1.37364e-07
-1.36947e-07
-1.35737e-07
-1.33981e-07
-1.31825e-07
-1.29365e-07
-1.2667e-07
-1.23788e-07
-1.2076e-07
-1.17613e-07
-1.14373e-07
-1.1106e-07
-1.0769e-07
-1.04279e-07
-1.00838e-07
-9.73783e-08
-9.39101e-08
-9.04416e-08
-8.69806e-08
-8.35339e-08
-8.01078e-08
-7.6708e-08
-7.33398e-08
-7.00078e-08
-6.67164e-08
-6.34697e-08
-6.02713e-08
-5.71246e-08
-5.40327e-08
-5.09985e-08
-4.80248e-08
-4.5114e-08
-4.22684e-08
-3.94903e-08
-3.67815e-08
-3.41439e-08
-3.15794e-08
-2.90896e-08
-2.66759e-08
-2.43398e-08
-2.20827e-08
-1.99058e-08
-1.78103e-08
-1.57973e-08
-1.38678e-08
)
;
    }
    inandouthalf22
    {
        type            cyclic;
        value           nonuniform List<scalar> 
100
(
-3.79182e-13
-3.86151e-13
-3.93002e-13
-3.9974e-13
-4.06376e-13
-4.12916e-13
-4.19369e-13
-4.25747e-13
-4.32058e-13
-4.38315e-13
-4.44528e-13
-4.50712e-13
-4.56882e-13
-4.63053e-13
-4.69247e-13
-4.75486e-13
-4.81797e-13
-4.88212e-13
-4.94768e-13
-5.0151e-13
-5.08488e-13
-5.1576e-13
-5.23389e-13
-5.31444e-13
-5.39991e-13
-5.49095e-13
-5.5881e-13
-5.6917e-13
-5.8018e-13
-5.91798e-13
-6.03924e-13
-6.16403e-13
-6.29053e-13
-6.41723e-13
-6.54331e-13
-6.66871e-13
-6.79435e-13
-6.92296e-13
-7.05984e-13
-7.21056e-13
-7.37208e-13
-7.52304e-13
-7.63562e-13
-7.69676e-13
-7.71661e-13
-7.72037e-13
-7.71633e-13
2.05493e-12
1.24748e-11
8.16914e-11
6.09742e-08
1.10387e-07
1.26958e-07
1.33777e-07
1.36591e-07
1.37364e-07
1.36947e-07
1.35737e-07
1.33981e-07
1.31825e-07
1.29365e-07
1.2667e-07
1.23788e-07
1.2076e-07
1.17613e-07
1.14373e-07
1.1106e-07
1.0769e-07
1.04279e-07
1.00838e-07
9.73783e-08
9.39101e-08
9.04416e-08
8.69806e-08
8.35339e-08
8.01078e-08
7.6708e-08
7.33398e-08
7.00078e-08
6.67164e-08
6.34697e-08
6.02713e-08
5.71246e-08
5.40327e-08
5.09985e-08
4.80248e-08
4.5114e-08
4.22684e-08
3.94903e-08
3.67815e-08
3.41439e-08
3.15794e-08
2.90896e-08
2.66759e-08
2.43398e-08
2.20827e-08
1.99058e-08
1.78103e-08
1.57973e-08
1.38678e-08
)
;
    }
    inandouthalf31
    {
        type            cyclic;
        value           nonuniform List<scalar> 
110
(
-1.20228e-08
-1.04526e-08
-8.86594e-09
-7.26466e-09
-5.65068e-09
-4.02582e-09
-2.3918e-09
-7.50152e-10
8.97855e-10
2.55132e-09
4.20977e-09
5.87324e-09
7.54233e-09
9.21836e-09
1.09033e-08
1.25996e-08
1.43103e-08
1.60391e-08
1.779e-08
1.95669e-08
2.1374e-08
2.32162e-08
2.50977e-08
2.70226e-08
2.89948e-08
3.10176e-08
3.30933e-08
3.52227e-08
3.74048e-08
3.96371e-08
4.19115e-08
4.42184e-08
4.65372e-08
4.88446e-08
5.10597e-08
5.30771e-08
5.52853e-08
2.42304e-07
2.52671e-07
2.63409e-07
2.7362e-07
2.84117e-07
2.94333e-07
3.00655e-07
3.09479e-07
3.18909e-07
3.27534e-07
3.35719e-07
3.43306e-07
3.50455e-07
3.5707e-07
3.63176e-07
3.68821e-07
3.74051e-07
3.78932e-07
3.83541e-07
3.87979e-07
3.92374e-07
3.96893e-07
4.0174e-07
4.07698e-07
4.15325e-07
4.23707e-07
4.32305e-07
4.4108e-07
4.50033e-07
4.59167e-07
4.68487e-07
4.77996e-07
4.87698e-07
4.97597e-07
5.07697e-07
5.18001e-07
5.28515e-07
5.39243e-07
5.50188e-07
5.61355e-07
5.72749e-07
5.84375e-07
5.96236e-07
6.08338e-07
6.20686e-07
6.33284e-07
6.46138e-07
6.59253e-07
6.72634e-07
6.86287e-07
7.00216e-07
7.14429e-07
7.2893e-07
7.43725e-07
7.58821e-07
7.74223e-07
7.89938e-07
8.05971e-07
8.2233e-07
8.39021e-07
8.56051e-07
8.73427e-07
8.91155e-07
9.09243e-07
9.27698e-07
9.46528e-07
9.6574e-07
9.85342e-07
1.00534e-06
1.02575e-06
1.04657e-06
1.06781e-06
1.08948e-06
)
;
    }
    inandouthalf32
    {
        type            cyclic;
        value           nonuniform List<scalar> 
110
(
1.20228e-08
1.04526e-08
8.86594e-09
7.26466e-09
5.65068e-09
4.02582e-09
2.3918e-09
7.50152e-10
-8.97855e-10
-2.55132e-09
-4.20977e-09
-5.87324e-09
-7.54233e-09
-9.21836e-09
-1.09033e-08
-1.25996e-08
-1.43103e-08
-1.60391e-08
-1.779e-08
-1.95669e-08
-2.1374e-08
-2.32162e-08
-2.50977e-08
-2.70226e-08
-2.89948e-08
-3.10176e-08
-3.30933e-08
-3.52227e-08
-3.74048e-08
-3.96371e-08
-4.19115e-08
-4.42184e-08
-4.65372e-08
-4.88446e-08
-5.10597e-08
-5.30771e-08
-5.52853e-08
-2.42304e-07
-2.52671e-07
-2.63409e-07
-2.7362e-07
-2.84117e-07
-2.94333e-07
-3.00655e-07
-3.09479e-07
-3.18909e-07
-3.27534e-07
-3.35719e-07
-3.43306e-07
-3.50455e-07
-3.5707e-07
-3.63176e-07
-3.68821e-07
-3.74051e-07
-3.78932e-07
-3.83541e-07
-3.87979e-07
-3.92374e-07
-3.96893e-07
-4.0174e-07
-4.07698e-07
-4.15325e-07
-4.23707e-07
-4.32305e-07
-4.4108e-07
-4.50033e-07
-4.59167e-07
-4.68487e-07
-4.77996e-07
-4.87698e-07
-4.97597e-07
-5.07697e-07
-5.18001e-07
-5.28515e-07
-5.39243e-07
-5.50188e-07
-5.61355e-07
-5.72749e-07
-5.84375e-07
-5.96236e-07
-6.08338e-07
-6.20686e-07
-6.33284e-07
-6.46138e-07
-6.59253e-07
-6.72634e-07
-6.86287e-07
-7.00216e-07
-7.14429e-07
-7.2893e-07
-7.43725e-07
-7.58821e-07
-7.74223e-07
-7.89938e-07
-8.05971e-07
-8.2233e-07
-8.39021e-07
-8.56051e-07
-8.73427e-07
-8.91155e-07
-9.09243e-07
-9.27698e-07
-9.46528e-07
-9.6574e-07
-9.85342e-07
-1.00534e-06
-1.02575e-06
-1.04657e-06
-1.06781e-06
-1.08948e-06
)
;
    }
    inandouthalf41
    {
        type            cyclic;
        value           nonuniform List<scalar> 
50
(
9.75199e-07
9.75199e-07
9.75199e-07
9.75199e-07
9.75199e-07
9.75199e-07
9.75199e-07
9.75199e-07
9.75199e-07
9.75199e-07
9.75199e-07
9.75199e-07
9.75199e-07
9.75199e-07
9.75199e-07
9.75199e-07
9.75199e-07
9.75199e-07
9.75199e-07
9.75199e-07
9.75199e-07
9.75199e-07
9.75199e-07
9.75199e-07
9.75199e-07
9.75199e-07
9.75199e-07
9.75199e-07
9.75199e-07
9.75199e-07
9.75199e-07
9.75199e-07
9.75199e-07
9.75199e-07
9.75199e-07
9.75199e-07
9.75199e-07
9.75199e-07
9.75199e-07
9.75199e-07
9.75199e-07
9.75199e-07
9.75199e-07
9.75199e-07
9.75199e-07
9.75199e-07
9.75199e-07
9.7521e-07
9.75457e-07
9.81193e-07
)
;
    }
    inandouthalf42
    {
        type            cyclic;
        value           nonuniform List<scalar> 
50
(
-9.75199e-07
-9.75199e-07
-9.75199e-07
-9.75199e-07
-9.75199e-07
-9.75199e-07
-9.75199e-07
-9.75199e-07
-9.75199e-07
-9.75199e-07
-9.75199e-07
-9.75199e-07
-9.75199e-07
-9.75199e-07
-9.75199e-07
-9.75199e-07
-9.75199e-07
-9.75199e-07
-9.75199e-07
-9.75199e-07
-9.75199e-07
-9.75199e-07
-9.75199e-07
-9.75199e-07
-9.75199e-07
-9.75199e-07
-9.75199e-07
-9.75199e-07
-9.75199e-07
-9.75199e-07
-9.75199e-07
-9.75199e-07
-9.75199e-07
-9.75199e-07
-9.75199e-07
-9.75199e-07
-9.75199e-07
-9.75199e-07
-9.75199e-07
-9.75199e-07
-9.75199e-07
-9.75199e-07
-9.75199e-07
-9.75199e-07
-9.75199e-07
-9.75199e-07
-9.75199e-07
-9.7521e-07
-9.75457e-07
-9.81193e-07
)
;
    }
    top
    {
        type            symmetryPlane;
        value           uniform 0;
    }
    walls
    {
        type            fixedValue;
        value           uniform 0;
    }
    frontAndBackPlanes
    {
        type            empty;
        value           nonuniform 0();
    }
}


// ************************************************************************* //
