/*--------------------------------*- C++ -*----------------------------------*\
| =========                 |                                                 |
| \\      /  F ield         | OpenFOAM: The Open Source CFD Toolbox           |
|  \\    /   O peration     | Version:  2.4.x                                 |
|   \\  /    A nd           | Web:      www.OpenFOAM.org                      |
|    \\/     M anipulation  |                                                 |
\*---------------------------------------------------------------------------*/
FoamFile
{
    version     2.0;
    format      ascii;
    class       surfaceScalarField;
    location    "7.4";
    object      phib;
}
// * * * * * * * * * * * * * * * * * * * * * * * * * * * * * * * * * * * * * //

dimensions      [0 3 -1 0 0 0 0];

internalField   nonuniform List<scalar> 
359
(
3.39386e-13
8.62516e-13
1.33485e-12
1.77695e-12
2.22656e-12
2.68479e-12
3.14469e-12
3.60386e-12
4.06255e-12
4.5218e-12
4.98221e-12
5.44385e-12
5.90674e-12
6.37081e-12
6.83615e-12
7.30294e-12
7.77135e-12
8.2415e-12
8.71344e-12
9.18734e-12
9.66311e-12
1.01409e-11
1.06207e-11
1.11026e-11
1.15866e-11
1.20727e-11
1.25608e-11
1.30511e-11
1.35434e-11
1.40377e-11
1.4534e-11
1.50324e-11
1.55325e-11
1.60346e-11
1.65384e-11
1.7044e-11
1.75512e-11
1.80601e-11
1.85705e-11
1.90822e-11
1.95953e-11
2.01096e-11
2.06249e-11
2.11413e-11
2.16585e-11
2.21764e-11
2.2695e-11
2.32138e-11
2.3733e-11
2.42527e-11
2.47725e-11
2.52925e-11
2.58125e-11
2.63327e-11
2.68526e-11
2.73726e-11
2.78923e-11
2.84118e-11
2.8931e-11
2.94497e-11
2.99685e-11
3.04871e-11
3.10059e-11
3.15249e-11
3.20438e-11
3.25626e-11
3.3081e-11
3.3599e-11
3.41161e-11
3.4632e-11
3.51468e-11
3.56606e-11
3.61727e-11
3.66831e-11
3.71913e-11
3.76969e-11
3.81988e-11
3.86963e-11
3.91886e-11
3.96748e-11
4.01543e-11
4.06266e-11
4.10912e-11
4.15478e-11
4.1996e-11
4.24352e-11
4.28652e-11
4.32852e-11
4.36949e-11
4.40939e-11
4.44821e-11
4.48592e-11
4.52256e-11
4.55816e-11
4.59274e-11
4.62636e-11
4.65905e-11
4.69086e-11
4.72185e-11
4.75204e-11
4.7815e-11
4.81026e-11
4.83838e-11
4.86589e-11
4.89285e-11
4.9193e-11
4.94528e-11
4.97082e-11
4.99598e-11
5.02079e-11
5.04528e-11
5.06949e-11
5.09347e-11
5.11725e-11
5.14088e-11
5.16441e-11
5.18791e-11
5.21143e-11
5.23505e-11
5.25885e-11
5.28291e-11
5.3073e-11
5.3321e-11
5.35735e-11
5.38305e-11
5.40917e-11
5.43559e-11
5.46215e-11
5.48855e-11
5.51444e-11
5.53936e-11
5.56283e-11
5.58447e-11
5.60403e-11
5.62151e-11
5.63707e-11
5.65098e-11
5.66361e-11
5.67532e-11
5.68631e-11
5.69578e-11
5.70033e-11
5.69751e-11
5.68747e-11
5.66662e-11
5.6173e-11
6.5764e-11
9.26307e-11
1.18123e-10
-1.20309e-11
6.17269e-11
1.10949e-10
1.04948e-10
9.39969e-11
8.4691e-11
7.64511e-11
6.92392e-11
6.28857e-11
5.72039e-11
5.20752e-11
4.74317e-11
4.32199e-11
3.93964e-11
3.59246e-11
3.27717e-11
2.99087e-11
2.7309e-11
2.49485e-11
2.28053e-11
2.08594e-11
1.90925e-11
1.7488e-11
1.60305e-11
1.47063e-11
1.35026e-11
1.2408e-11
1.14118e-11
1.05047e-11
9.67784e-12
8.92348e-12
8.23449e-12
7.60449e-12
7.02768e-12
6.49889e-12
6.01342e-12
5.5671e-12
5.15615e-12
4.77718e-12
4.42717e-12
4.10339e-12
3.80341e-12
3.52505e-12
3.26637e-12
3.02566e-12
2.8014e-12
2.5922e-12
2.39685e-12
2.21423e-12
2.04333e-12
1.88325e-12
1.73315e-12
1.5895e-12
1.45211e-12
1.3209e-12
1.19588e-12
1.07713e-12
9.64753e-13
8.5893e-13
7.59896e-13
6.67889e-13
5.8313e-13
5.05736e-13
4.35675e-13
3.72891e-13
3.17248e-13
2.68382e-13
2.25824e-13
1.89099e-13
1.57673e-13
1.30941e-13
1.08284e-13
8.91982e-14
7.32205e-14
5.98718e-14
4.87601e-14
3.95623e-14
3.19695e-14
2.57265e-14
2.05964e-14
1.64177e-14
1.30001e-14
1.02383e-14
7.97356e-15
6.31533e-15
5.02896e-15
3.66763e-15
2.29819e-15
1.15769e-15
6.17263e-16
2.38412e-16
1.05118e-16
9.20607e-19
1.15067e-16
6.43061e-18
6.24494e-18
6.10052e-18
5.90767e-18
5.75676e-18
5.55674e-18
5.39583e-18
5.18826e-18
5.01434e-18
4.79407e-18
4.60327e-18
4.37027e-18
4.16677e-18
3.92872e-18
3.71729e-18
3.47309e-18
3.25294e-18
3.01299e-18
2.79933e-18
2.5757e-18
2.39485e-18
2.23909e-18
2.12326e-18
2.02944e-18
1.93581e-18
1.85354e-18
1.77834e-18
1.70007e-18
1.62594e-18
1.57408e-18
1.52276e-18
1.46948e-18
1.4057e-18
1.35109e-18
1.28486e-18
1.21692e-18
1.14125e-18
1.09534e-18
1.04433e-18
9.93578e-19
9.31701e-19
8.78516e-19
8.15057e-19
7.14672e-19
6.41617e-19
5.81415e-19
5.13821e-19
4.45357e-19
3.70584e-19
3.02805e-19
2.27849e-19
1.56318e-19
7.4749e-20
1.03152e-19
8.85646e-20
7.85805e-20
1.1698e-20
4.23765e-21
-6.33207e-21
-1.64882e-20
-2.947e-20
-3.54761e-20
-4.47182e-20
-5.38354e-20
-6.53398e-20
-7.4663e-20
-8.75447e-20
-9.90458e-20
-1.13155e-19
-1.20634e-19
-1.31582e-19
-1.42317e-19
-1.57699e-19
-1.69388e-19
-1.85965e-19
-2.02684e-19
-2.20559e-19
-2.45836e-19
-2.72086e-19
-2.99273e-19
-3.23063e-19
-3.76125e-19
-4.12192e-19
-4.69038e-19
-3.99832e-19
-1.00445e-18
-1.50829e-18
-2.03407e-18
-2.60277e-18
-3.13967e-18
-3.76979e-18
-4.39694e-18
-5.12694e-18
-5.69045e-18
-6.37968e-18
-7.06932e-18
-7.89464e-18
-8.67773e-18
-9.53905e-18
-1.04501e-17
-1.13071e-17
-1.3038e-17
-1.45697e-17
-1.61518e-17
-1.73842e-17
-1.91834e-17
-2.02314e-17
-2.14521e-17
-2.1645e-17
-2.53313e-17
-2.69182e-17
-2.86855e-17
-2.75343e-17
-2.94482e-17
-2.79352e-17
-2.79826e-17
)
;

boundaryField
{
    inandouthalf11
    {
        type            cyclic;
        value           nonuniform List<scalar> 
100
(
-2.41375e-10
-2.40135e-10
-2.39934e-10
-2.40108e-10
-2.40203e-10
-2.40239e-10
-2.40278e-10
-2.40326e-10
-2.40374e-10
-2.40424e-10
-2.40473e-10
-2.40523e-10
-2.40573e-10
-2.40622e-10
-2.40672e-10
-2.40723e-10
-2.40774e-10
-2.40825e-10
-2.40876e-10
-2.40928e-10
-2.4098e-10
-2.41032e-10
-2.41085e-10
-2.41138e-10
-2.41191e-10
-2.41245e-10
-2.41299e-10
-2.41353e-10
-2.41408e-10
-2.41463e-10
-2.41519e-10
-2.41575e-10
-2.41631e-10
-2.41689e-10
-2.41746e-10
-2.41804e-10
-2.41862e-10
-2.41921e-10
-2.4198e-10
-2.42039e-10
-2.421e-10
-2.42161e-10
-2.42222e-10
-2.42284e-10
-2.42346e-10
-2.42409e-10
-2.42473e-10
-2.42536e-10
-2.42601e-10
-2.42667e-10
-2.42732e-10
-2.42799e-10
-2.42866e-10
-2.42934e-10
-2.43002e-10
-2.43072e-10
-2.43142e-10
-2.43213e-10
-2.43285e-10
-2.43357e-10
-2.43431e-10
-2.43504e-10
-2.4358e-10
-2.43655e-10
-2.43732e-10
-2.4381e-10
-2.43889e-10
-2.43968e-10
-2.44049e-10
-2.4413e-10
-2.44213e-10
-2.44298e-10
-2.44382e-10
-2.44469e-10
-2.44557e-10
-2.44646e-10
-2.44736e-10
-2.44828e-10
-2.44921e-10
-2.45015e-10
-2.45111e-10
-2.45209e-10
-2.45308e-10
-2.4541e-10
-2.45513e-10
-2.45618e-10
-2.45725e-10
-2.45834e-10
-2.45945e-10
-2.46058e-10
-2.46174e-10
-2.46292e-10
-2.46413e-10
-2.46536e-10
-2.46662e-10
-2.46791e-10
-2.46923e-10
-2.47058e-10
-2.47197e-10
-2.47338e-10
)
;
    }
    inandouthalf12
    {
        type            cyclic;
        value           nonuniform List<scalar> 
100
(
2.41375e-10
2.40135e-10
2.39934e-10
2.40108e-10
2.40203e-10
2.40239e-10
2.40278e-10
2.40326e-10
2.40374e-10
2.40424e-10
2.40473e-10
2.40523e-10
2.40573e-10
2.40622e-10
2.40672e-10
2.40723e-10
2.40774e-10
2.40825e-10
2.40876e-10
2.40928e-10
2.4098e-10
2.41032e-10
2.41085e-10
2.41138e-10
2.41191e-10
2.41245e-10
2.41299e-10
2.41353e-10
2.41408e-10
2.41463e-10
2.41519e-10
2.41575e-10
2.41631e-10
2.41689e-10
2.41746e-10
2.41804e-10
2.41862e-10
2.41921e-10
2.4198e-10
2.42039e-10
2.421e-10
2.42161e-10
2.42222e-10
2.42284e-10
2.42346e-10
2.42409e-10
2.42473e-10
2.42536e-10
2.42601e-10
2.42667e-10
2.42732e-10
2.42799e-10
2.42866e-10
2.42934e-10
2.43002e-10
2.43072e-10
2.43142e-10
2.43213e-10
2.43285e-10
2.43357e-10
2.43431e-10
2.43504e-10
2.4358e-10
2.43655e-10
2.43732e-10
2.4381e-10
2.43889e-10
2.43968e-10
2.44049e-10
2.4413e-10
2.44213e-10
2.44298e-10
2.44382e-10
2.44469e-10
2.44557e-10
2.44646e-10
2.44736e-10
2.44828e-10
2.44921e-10
2.45015e-10
2.45111e-10
2.45209e-10
2.45308e-10
2.4541e-10
2.45513e-10
2.45618e-10
2.45725e-10
2.45834e-10
2.45945e-10
2.46058e-10
2.46174e-10
2.46292e-10
2.46413e-10
2.46536e-10
2.46662e-10
2.46791e-10
2.46923e-10
2.47058e-10
2.47197e-10
2.47338e-10
)
;
    }
    inandouthalf21
    {
        type            cyclic;
        value           nonuniform List<scalar> 
100
(
-2.47483e-10
-2.47631e-10
-2.47783e-10
-2.47939e-10
-2.48099e-10
-2.48263e-10
-2.48431e-10
-2.48604e-10
-2.48781e-10
-2.48963e-10
-2.49151e-10
-2.49343e-10
-2.49541e-10
-2.49745e-10
-2.49955e-10
-2.50171e-10
-2.50394e-10
-2.50623e-10
-2.5086e-10
-2.51104e-10
-2.51356e-10
-2.51615e-10
-2.51884e-10
-2.52161e-10
-2.52447e-10
-2.52744e-10
-2.5305e-10
-2.53369e-10
-2.537e-10
-2.54045e-10
-2.54404e-10
-2.5478e-10
-2.55172e-10
-2.55587e-10
-2.56029e-10
-2.56498e-10
-2.56991e-10
-2.57515e-10
-2.58098e-10
-2.58768e-10
-2.59492e-10
-2.60188e-10
-2.61033e-10
-2.6214e-10
-2.63533e-10
-2.66224e-10
-2.72953e-10
-2.76954e-10
-2.90805e-10
-5.8079e-10
-7.90782e-08
-1.27306e-07
-1.41548e-07
-1.4684e-07
-1.4883e-07
-1.49223e-07
-1.48673e-07
-1.47491e-07
-1.45853e-07
-1.43866e-07
-1.41605e-07
-1.39123e-07
-1.36461e-07
-1.3365e-07
-1.30717e-07
-1.2768e-07
-1.24559e-07
-1.21367e-07
-1.18116e-07
-1.14818e-07
-1.11481e-07
-1.08113e-07
-1.04721e-07
-1.0131e-07
-9.78871e-08
-9.44554e-08
-9.10194e-08
-8.75826e-08
-8.41484e-08
-8.07195e-08
-7.72984e-08
-7.38874e-08
-7.04886e-08
-6.71036e-08
-6.37342e-08
-6.03818e-08
-5.70477e-08
-5.3733e-08
-5.04388e-08
-4.71661e-08
-4.39156e-08
-4.06882e-08
-3.74845e-08
-3.43052e-08
-3.11508e-08
-2.80219e-08
-2.49188e-08
-2.18421e-08
-1.87921e-08
-1.57691e-08
)
;
    }
    inandouthalf22
    {
        type            cyclic;
        value           nonuniform List<scalar> 
100
(
2.47483e-10
2.47631e-10
2.47783e-10
2.47939e-10
2.48099e-10
2.48263e-10
2.48431e-10
2.48604e-10
2.48781e-10
2.48963e-10
2.49151e-10
2.49343e-10
2.49541e-10
2.49745e-10
2.49955e-10
2.50171e-10
2.50394e-10
2.50623e-10
2.5086e-10
2.51104e-10
2.51356e-10
2.51615e-10
2.51884e-10
2.52161e-10
2.52447e-10
2.52744e-10
2.5305e-10
2.53369e-10
2.537e-10
2.54045e-10
2.54404e-10
2.5478e-10
2.55172e-10
2.55587e-10
2.56029e-10
2.56498e-10
2.56991e-10
2.57515e-10
2.58098e-10
2.58768e-10
2.59492e-10
2.60188e-10
2.61033e-10
2.6214e-10
2.63533e-10
2.66224e-10
2.72953e-10
2.76954e-10
2.90805e-10
5.8079e-10
7.90782e-08
1.27306e-07
1.41548e-07
1.4684e-07
1.4883e-07
1.49223e-07
1.48673e-07
1.47491e-07
1.45853e-07
1.43866e-07
1.41605e-07
1.39123e-07
1.36461e-07
1.3365e-07
1.30717e-07
1.2768e-07
1.24559e-07
1.21367e-07
1.18116e-07
1.14818e-07
1.11481e-07
1.08113e-07
1.04721e-07
1.0131e-07
9.78871e-08
9.44554e-08
9.10194e-08
8.75826e-08
8.41484e-08
8.07195e-08
7.72984e-08
7.38874e-08
7.04886e-08
6.71036e-08
6.37342e-08
6.03818e-08
5.70477e-08
5.3733e-08
5.04388e-08
4.71661e-08
4.39156e-08
4.06882e-08
3.74845e-08
3.43052e-08
3.11508e-08
2.80219e-08
2.49188e-08
2.18421e-08
1.87921e-08
1.57691e-08
)
;
    }
    inandouthalf31
    {
        type            cyclic;
        value           nonuniform List<scalar> 
110
(
-1.27734e-08
-9.97341e-09
-7.02109e-09
-3.91118e-09
-6.38262e-10
2.80314e-09
6.41859e-09
1.02137e-08
1.4194e-08
1.83652e-08
2.2733e-08
2.73029e-08
3.20804e-08
3.70712e-08
4.22805e-08
4.77135e-08
5.33753e-08
5.92707e-08
6.54042e-08
7.17799e-08
7.84015e-08
8.52724e-08
9.2395e-08
9.97713e-08
1.07402e-07
1.15288e-07
1.23428e-07
1.31818e-07
1.40456e-07
1.49336e-07
1.58449e-07
1.67785e-07
1.77331e-07
1.87071e-07
1.96985e-07
2.07048e-07
2.17231e-07
2.275e-07
2.37816e-07
2.48131e-07
2.58394e-07
2.68546e-07
2.78524e-07
2.88259e-07
2.97683e-07
3.06729e-07
3.15335e-07
3.23453e-07
3.31048e-07
3.38104e-07
3.44624e-07
3.50626e-07
3.56142e-07
3.6122e-07
3.6592e-07
3.70319e-07
3.74515e-07
3.78632e-07
3.8283e-07
3.87342e-07
3.92655e-07
3.99772e-07
4.07821e-07
4.16097e-07
4.24542e-07
4.33159e-07
4.41951e-07
4.50921e-07
4.60074e-07
4.69412e-07
4.7894e-07
4.88661e-07
4.98579e-07
5.08699e-07
5.19024e-07
5.29559e-07
5.40308e-07
5.51275e-07
5.62464e-07
5.7388e-07
5.85529e-07
5.97413e-07
6.09539e-07
6.21911e-07
6.34534e-07
6.47414e-07
6.60555e-07
6.73962e-07
6.87642e-07
7.01599e-07
7.1584e-07
7.30369e-07
7.45194e-07
7.60319e-07
7.75752e-07
7.91497e-07
8.07563e-07
8.23954e-07
8.40678e-07
8.57742e-07
8.75152e-07
8.92915e-07
9.11039e-07
9.2953e-07
9.48397e-07
9.67647e-07
9.87288e-07
1.00733e-06
1.02777e-06
1.04863e-06
)
;
    }
    inandouthalf32
    {
        type            cyclic;
        value           nonuniform List<scalar> 
110
(
1.27734e-08
9.97341e-09
7.02109e-09
3.91118e-09
6.38262e-10
-2.80314e-09
-6.41859e-09
-1.02137e-08
-1.4194e-08
-1.83652e-08
-2.2733e-08
-2.73029e-08
-3.20804e-08
-3.70712e-08
-4.22805e-08
-4.77135e-08
-5.33753e-08
-5.92707e-08
-6.54042e-08
-7.17799e-08
-7.84015e-08
-8.52724e-08
-9.2395e-08
-9.97713e-08
-1.07402e-07
-1.15288e-07
-1.23428e-07
-1.31818e-07
-1.40456e-07
-1.49336e-07
-1.58449e-07
-1.67785e-07
-1.77331e-07
-1.87071e-07
-1.96985e-07
-2.07048e-07
-2.17231e-07
-2.275e-07
-2.37816e-07
-2.48131e-07
-2.58394e-07
-2.68546e-07
-2.78524e-07
-2.88259e-07
-2.97683e-07
-3.06729e-07
-3.15335e-07
-3.23453e-07
-3.31048e-07
-3.38104e-07
-3.44624e-07
-3.50626e-07
-3.56142e-07
-3.6122e-07
-3.6592e-07
-3.70319e-07
-3.74515e-07
-3.78632e-07
-3.8283e-07
-3.87342e-07
-3.92655e-07
-3.99772e-07
-4.07821e-07
-4.16097e-07
-4.24542e-07
-4.33159e-07
-4.41951e-07
-4.50921e-07
-4.60074e-07
-4.69412e-07
-4.7894e-07
-4.88661e-07
-4.98579e-07
-5.08699e-07
-5.19024e-07
-5.29559e-07
-5.40308e-07
-5.51275e-07
-5.62464e-07
-5.7388e-07
-5.85529e-07
-5.97413e-07
-6.09539e-07
-6.21911e-07
-6.34534e-07
-6.47414e-07
-6.60555e-07
-6.73962e-07
-6.87642e-07
-7.01599e-07
-7.1584e-07
-7.30369e-07
-7.45194e-07
-7.60319e-07
-7.75752e-07
-7.91497e-07
-8.07563e-07
-8.23954e-07
-8.40678e-07
-8.57742e-07
-8.75152e-07
-8.92915e-07
-9.11039e-07
-9.2953e-07
-9.48397e-07
-9.67647e-07
-9.87288e-07
-1.00733e-06
-1.02777e-06
-1.04863e-06
)
;
    }
    inandouthalf41
    {
        type            cyclic;
        value           nonuniform List<scalar> 
50
(
9.38635e-07
9.38635e-07
9.38635e-07
9.38635e-07
9.38635e-07
9.38635e-07
9.38635e-07
9.38635e-07
9.38635e-07
9.38635e-07
9.38635e-07
9.38635e-07
9.38635e-07
9.38635e-07
9.38635e-07
9.38635e-07
9.38635e-07
9.38635e-07
9.38635e-07
9.38635e-07
9.38635e-07
9.38635e-07
9.38635e-07
9.38635e-07
9.38635e-07
9.38635e-07
9.38635e-07
9.38635e-07
9.38635e-07
9.38635e-07
9.38635e-07
9.38635e-07
9.38635e-07
9.38635e-07
9.38635e-07
9.38635e-07
9.38635e-07
9.38635e-07
9.38635e-07
9.38635e-07
9.38635e-07
9.38635e-07
9.38635e-07
9.38635e-07
9.38635e-07
9.38635e-07
9.38635e-07
9.38635e-07
9.38635e-07
9.38635e-07
)
;
    }
    inandouthalf42
    {
        type            cyclic;
        value           nonuniform List<scalar> 
50
(
-9.38635e-07
-9.38635e-07
-9.38635e-07
-9.38635e-07
-9.38635e-07
-9.38635e-07
-9.38635e-07
-9.38635e-07
-9.38635e-07
-9.38635e-07
-9.38635e-07
-9.38635e-07
-9.38635e-07
-9.38635e-07
-9.38635e-07
-9.38635e-07
-9.38635e-07
-9.38635e-07
-9.38635e-07
-9.38635e-07
-9.38635e-07
-9.38635e-07
-9.38635e-07
-9.38635e-07
-9.38635e-07
-9.38635e-07
-9.38635e-07
-9.38635e-07
-9.38635e-07
-9.38635e-07
-9.38635e-07
-9.38635e-07
-9.38635e-07
-9.38635e-07
-9.38635e-07
-9.38635e-07
-9.38635e-07
-9.38635e-07
-9.38635e-07
-9.38635e-07
-9.38635e-07
-9.38635e-07
-9.38635e-07
-9.38635e-07
-9.38635e-07
-9.38635e-07
-9.38635e-07
-9.38635e-07
-9.38635e-07
-9.38635e-07
)
;
    }
    top
    {
        type            symmetryPlane;
        value           uniform 0;
    }
    walls
    {
        type            fixedValue;
        value           uniform 0;
    }
    frontAndBackPlanes
    {
        type            empty;
        value           nonuniform 0();
    }
}


// ************************************************************************* //
