/*--------------------------------*- C++ -*----------------------------------*\
| =========                 |                                                 |
| \\      /  F ield         | OpenFOAM: The Open Source CFD Toolbox           |
|  \\    /   O peration     | Version:  2.4.x                                 |
|   \\  /    A nd           | Web:      www.OpenFOAM.org                      |
|    \\/     M anipulation  |                                                 |
\*---------------------------------------------------------------------------*/
FoamFile
{
    version     2.0;
    format      ascii;
    class       volScalarField;
    location    "7.4";
    object      tmf;
}
// * * * * * * * * * * * * * * * * * * * * * * * * * * * * * * * * * * * * * //

dimensions      [0 0 0 0 0 0 0];

internalField   nonuniform List<scalar> 
360
(
0.999206
0.999209
0.999209
0.999209
0.999209
0.999209
0.999209
0.999209
0.999209
0.999209
0.999209
0.999209
0.999208
0.999208
0.999208
0.999208
0.999208
0.999208
0.999208
0.999208
0.999208
0.999208
0.999208
0.999208
0.999207
0.999207
0.999207
0.999207
0.999207
0.999207
0.999207
0.999207
0.999207
0.999207
0.999207
0.999206
0.999206
0.999206
0.999206
0.999206
0.999206
0.999206
0.999206
0.999206
0.999205
0.999205
0.999205
0.999205
0.999205
0.999205
0.999205
0.999205
0.999205
0.999204
0.999204
0.999204
0.999204
0.999204
0.999204
0.999204
0.999204
0.999203
0.999203
0.999203
0.999203
0.999203
0.999203
0.999203
0.999202
0.999202
0.999202
0.999202
0.999202
0.999202
0.999202
0.999201
0.999201
0.999201
0.999201
0.999201
0.999201
0.9992
0.9992
0.9992
0.9992
0.9992
0.9992
0.999199
0.999199
0.999199
0.999199
0.999199
0.999198
0.999198
0.999198
0.999198
0.999197
0.999197
0.999197
0.999197
0.999196
0.999196
0.999196
0.999196
0.999195
0.999195
0.999195
0.999195
0.999194
0.999194
0.999194
0.999193
0.999193
0.999193
0.999192
0.999192
0.999192
0.999191
0.999191
0.99919
0.99919
0.99919
0.999189
0.999189
0.999188
0.999188
0.999187
0.999187
0.999186
0.999186
0.999185
0.999184
0.999184
0.999082
0.998994
0.998898
0.998778
0.99863
0.998456
0.998258
0.99801
0.997654
0.997098
0.996221
0.994914
0.993181
0.991036
0.98836
0.984865
0.980036
0.897867
0.936872
0.961588
0.971132
0.975517
0.97791
0.979379
0.98037
0.981081
0.981618
0.98204
0.982383
0.982672
0.98292
0.983139
0.983335
0.983515
0.983682
0.983838
0.983985
0.984126
0.98426
0.984389
0.984512
0.984631
0.984746
0.984856
0.984961
0.985062
0.985157
0.985248
0.985334
0.985415
0.98549
0.985559
0.985622
0.985679
0.98573
0.985774
0.985812
0.985843
0.985868
0.985888
0.985901
0.985911
0.985919
0.985927
0.98594
0.985964
0.986005
0.986073
0.986178
0.986331
0.986536
0.986793
0.987095
0.98743
0.987787
0.988157
0.988532
0.988907
0.989277
0.989639
0.989993
0.990338
0.990672
0.990996
0.991309
0.991612
0.991905
0.992189
0.992464
0.99273
0.992988
0.993238
0.993482
0.99372
0.993951
0.994178
0.9944
0.994618
0.994832
0.995044
0.995254
0.995463
0.995672
0.995878
0.992875
0.993211
0.99341
0.993856
0.994128
0.994482
0.996173
0.99659
0.996824
0.997051
0.997267
0.997468
0.99765
0.997811
0.99795
0.998069
0.998173
0.998265
0.998355
0.99845
0.998561
0.998701
0.998893
0.999116
0.999247
0.999261
0.999255
0.999249
0.999242
0.999237
0.99923
0.999137
0.995987
0.994198
0.994198
0.994198
0.994198
0.994198
0.994198
0.994198
0.994198
0.994198
0.994198
0.994198
0.994198
0.994198
0.994198
0.994198
0.994198
0.994198
0.994198
0.994198
0.994198
0.994198
0.994198
0.994198
0.994198
0.994198
0.994198
0.994198
0.994198
0.994198
0.994198
0.994198
0.994198
0.994198
0.994198
0.994198
0.994198
0.994198
0.994198
0.994198
0.994198
0.994198
0.994198
0.994198
0.994198
0.994198
0.994198
0.994198
0.994198
0.994198
0.994198
0.994198
0.994198
0.994198
0.994198
0.994198
0.994198
0.994198
0.994198
0.994198
0.994198
0.994198
0.994198
0.994198
0.994198
0.994198
0.994198
0.994198
0.994198
0.994198
0.994198
0.994198
0.994198
0.994198
0.994198
0.994198
0.994198
0.994198
0.994198
0.994198
0.994198
0.994198
0.994198
0.994198
0.994198
0.994198
0.994198
0.994198
0.994198
0.994183
0.993274
)
;

boundaryField
{
    inandouthalf11
    {
        type            cyclic;
    }
    inandouthalf12
    {
        type            cyclic;
    }
    inandouthalf21
    {
        type            cyclic;
    }
    inandouthalf22
    {
        type            cyclic;
    }
    inandouthalf31
    {
        type            cyclic;
    }
    inandouthalf32
    {
        type            cyclic;
    }
    inandouthalf41
    {
        type            cyclic;
    }
    inandouthalf42
    {
        type            cyclic;
    }
    top
    {
        type            symmetryPlane;
    }
    walls
    {
        type            calculated;
        value           uniform 0;
    }
    frontAndBackPlanes
    {
        type            empty;
    }
}


// ************************************************************************* //
