/*--------------------------------*- C++ -*----------------------------------*\
| =========                 |                                                 |
| \\      /  F ield         | OpenFOAM: The Open Source CFD Toolbox           |
|  \\    /   O peration     | Version:  2.4.x                                 |
|   \\  /    A nd           | Web:      www.OpenFOAM.org                      |
|    \\/     M anipulation  |                                                 |
\*---------------------------------------------------------------------------*/
FoamFile
{
    version     2.0;
    format      ascii;
    class       volVectorField;
    location    "7.4";
    object      Ua;
}
// * * * * * * * * * * * * * * * * * * * * * * * * * * * * * * * * * * * * * //

dimensions      [0 1 -1 0 0 0 0];

internalField   nonuniform List<vector> 
360
(
(2.82884e-33 -1.00166e-31 0)
(3.80439e-09 -1.00008e-07 0)
(7.68057e-09 -1.79413e-07 0)
(1.09042e-08 -2.47098e-07 0)
(1.39565e-08 -3.17002e-07 0)
(1.69431e-08 -3.89703e-07 0)
(1.97969e-08 -4.62913e-07 0)
(2.24836e-08 -5.35923e-07 0)
(2.5003e-08 -6.08816e-07 0)
(2.73611e-08 -6.81748e-07 0)
(2.95624e-08 -7.5485e-07 0)
(3.1609e-08 -8.2817e-07 0)
(3.3501e-08 -9.01706e-07 0)
(3.52383e-08 -9.75446e-07 0)
(3.6821e-08 -1.04939e-06 0)
(3.82497e-08 -1.12357e-06 0)
(3.95248e-08 -1.198e-06 0)
(4.06463e-08 -1.27273e-06 0)
(4.16142e-08 -1.34775e-06 0)
(4.24281e-08 -1.42309e-06 0)
(4.30876e-08 -1.49874e-06 0)
(4.35921e-08 -1.57473e-06 0)
(4.39411e-08 -1.65106e-06 0)
(4.41338e-08 -1.72773e-06 0)
(4.41695e-08 -1.80476e-06 0)
(4.40473e-08 -1.88213e-06 0)
(4.37664e-08 -1.95986e-06 0)
(4.3326e-08 -2.03793e-06 0)
(4.27251e-08 -2.11636e-06 0)
(4.1963e-08 -2.19514e-06 0)
(4.10388e-08 -2.27425e-06 0)
(3.99516e-08 -2.35371e-06 0)
(3.87006e-08 -2.43349e-06 0)
(3.72851e-08 -2.51359e-06 0)
(3.57042e-08 -2.59401e-06 0)
(3.39575e-08 -2.67474e-06 0)
(3.20443e-08 -2.75575e-06 0)
(2.99641e-08 -2.83704e-06 0)
(2.7716e-08 -2.91863e-06 0)
(2.53001e-08 -3.00046e-06 0)
(2.27161e-08 -3.08252e-06 0)
(1.99635e-08 -3.16484e-06 0)
(1.70429e-08 -3.24734e-06 0)
(1.39541e-08 -3.33003e-06 0)
(1.0697e-08 -3.4129e-06 0)
(7.27206e-09 -3.49594e-06 0)
(3.67984e-09 -3.57911e-06 0)
(-7.8157e-11 -3.66237e-06 0)
(-4.00137e-09 -3.7457e-06 0)
(-8.0907e-09 -3.82914e-06 0)
(-1.23456e-08 -3.91266e-06 0)
(-1.67649e-08 -3.99623e-06 0)
(-2.13484e-08 -4.07986e-06 0)
(-2.60958e-08 -4.16352e-06 0)
(-3.10064e-08 -4.24722e-06 0)
(-3.608e-08 -4.33093e-06 0)
(-4.13159e-08 -4.41466e-06 0)
(-4.67134e-08 -4.49838e-06 0)
(-5.2272e-08 -4.5821e-06 0)
(-5.79909e-08 -4.66578e-06 0)
(-6.3872e-08 -4.74945e-06 0)
(-6.99181e-08 -4.83317e-06 0)
(-7.61311e-08 -4.91693e-06 0)
(-8.2513e-08 -5.00076e-06 0)
(-8.90637e-08 -5.08464e-06 0)
(-9.57825e-08 -5.16854e-06 0)
(-1.02669e-07 -5.25245e-06 0)
(-1.09721e-07 -5.33634e-06 0)
(-1.16935e-07 -5.42015e-06 0)
(-1.24309e-07 -5.50384e-06 0)
(-1.31841e-07 -5.5874e-06 0)
(-1.39533e-07 -5.67084e-06 0)
(-1.4738e-07 -5.75411e-06 0)
(-1.55378e-07 -5.83715e-06 0)
(-1.63523e-07 -5.91994e-06 0)
(-1.71807e-07 -6.00241e-06 0)
(-1.80219e-07 -6.08442e-06 0)
(-1.88741e-07 -6.16584e-06 0)
(-1.97357e-07 -6.24652e-06 0)
(-2.06049e-07 -6.32636e-06 0)
(-2.148e-07 -6.40523e-06 0)
(-2.23593e-07 -6.48301e-06 0)
(-2.32413e-07 -6.55966e-06 0)
(-2.41247e-07 -6.63511e-06 0)
(-2.5008e-07 -6.7093e-06 0)
(-2.58896e-07 -6.78215e-06 0)
(-2.67678e-07 -6.85361e-06 0)
(-2.76406e-07 -6.92358e-06 0)
(-2.85062e-07 -6.99198e-06 0)
(-2.93624e-07 -7.05874e-06 0)
(-3.02079e-07 -7.12383e-06 0)
(-3.10411e-07 -7.18722e-06 0)
(-3.18611e-07 -7.24892e-06 0)
(-3.26673e-07 -7.30897e-06 0)
(-3.34593e-07 -7.36744e-06 0)
(-3.42372e-07 -7.42438e-06 0)
(-3.50009e-07 -7.47988e-06 0)
(-3.57505e-07 -7.53399e-06 0)
(-3.64864e-07 -7.58681e-06 0)
(-3.72088e-07 -7.6384e-06 0)
(-3.79182e-07 -7.68883e-06 0)
(-3.86151e-07 -7.73819e-06 0)
(-3.93002e-07 -7.78655e-06 0)
(-3.9974e-07 -7.83399e-06 0)
(-4.06376e-07 -7.88059e-06 0)
(-4.12916e-07 -7.92642e-06 0)
(-4.19369e-07 -7.97155e-06 0)
(-4.25747e-07 -8.01606e-06 0)
(-4.32058e-07 -8.06001e-06 0)
(-4.38315e-07 -8.10346e-06 0)
(-4.44528e-07 -8.14649e-06 0)
(-4.50712e-07 -8.18915e-06 0)
(-4.56882e-07 -8.23151e-06 0)
(-4.63053e-07 -8.27365e-06 0)
(-4.69247e-07 -8.31564e-06 0)
(-4.75486e-07 -8.35757e-06 0)
(-4.81797e-07 -8.39952e-06 0)
(-4.88212e-07 -8.44161e-06 0)
(-4.94768e-07 -8.48395e-06 0)
(-5.0151e-07 -8.52668e-06 0)
(-5.08488e-07 -8.56994e-06 0)
(-5.1576e-07 -8.61387e-06 0)
(-5.23389e-07 -8.6586e-06 0)
(-5.31444e-07 -8.70424e-06 0)
(-5.39991e-07 -8.75085e-06 0)
(-5.49095e-07 -8.7984e-06 0)
(-5.5881e-07 -8.84682e-06 0)
(-5.6917e-07 -8.8959e-06 0)
(-5.8018e-07 -8.94528e-06 0)
(-5.91798e-07 -8.99448e-06 0)
(-6.03924e-07 -9.04281e-06 0)
(-6.16403e-07 -9.08949e-06 0)
(-6.29053e-07 -9.1338e-06 0)
(-6.41723e-07 -9.17527e-06 0)
(-6.54331e-07 -9.21379e-06 0)
(-6.66871e-07 -9.24948e-06 0)
(-6.79435e-07 -9.28266e-06 0)
(-6.92296e-07 -9.314e-06 0)
(-7.05984e-07 -9.3447e-06 0)
(-7.21056e-07 -9.37591e-06 0)
(-7.37208e-07 -9.40683e-06 0)
(-7.52304e-07 -9.433e-06 0)
(-7.63562e-07 -9.4505e-06 0)
(-7.69676e-07 -9.4593e-06 0)
(-7.71661e-07 -9.46209e-06 0)
(-7.72037e-07 -9.46283e-06 0)
(-7.71633e-07 -9.46363e-06 0)
(2.05493e-06 -1.24475e-05 0)
(1.24748e-05 -1.67589e-05 0)
(8.16914e-05 -2.16947e-05 0)
(0.0609742 3.62371e-05 0)
(0.110387 -0.000372306 0)
(0.126958 -0.00128497 0)
(0.133777 -0.00217125 0)
(0.136591 -0.0030363 0)
(0.137364 -0.00386991 0)
(0.136947 -0.00463294 0)
(0.135737 -0.00534423 0)
(0.133981 -0.00598171 0)
(0.131825 -0.00654392 0)
(0.129365 -0.0070307 0)
(0.12667 -0.00744591 0)
(0.123788 -0.00779541 0)
(0.12076 -0.00808594 0)
(0.117613 -0.00832448 0)
(0.114373 -0.00851783 0)
(0.11106 -0.0086724 0)
(0.10769 -0.00879407 0)
(0.104279 -0.00888816 0)
(0.100838 -0.00895941 0)
(0.0973783 -0.00901199 0)
(0.0939101 -0.00904955 0)
(0.0904416 -0.00907518 0)
(0.0869806 -0.00909153 0)
(0.0835339 -0.00910079 0)
(0.0801078 -0.00910475 0)
(0.076708 -0.00910482 0)
(0.0733398 -0.0091021 0)
(0.0700078 -0.00909738 0)
(0.0667164 -0.0090912 0)
(0.0634697 -0.0090839 0)
(0.0602713 -0.0090756 0)
(0.0571246 -0.00906629 0)
(0.0540327 -0.00905582 0)
(0.0509985 -0.00904396 0)
(0.0480248 -0.00903037 0)
(0.045114 -0.00901468 0)
(0.0422684 -0.00899648 0)
(0.0394903 -0.00897534 0)
(0.0367815 -0.00895082 0)
(0.0341439 -0.00892251 0)
(0.0315794 -0.00888999 0)
(0.0290896 -0.00885288 0)
(0.0266759 -0.00881084 0)
(0.0243398 -0.00876355 0)
(0.0220827 -0.00871075 0)
(0.0199058 -0.0086522 0)
(0.0178103 -0.00858773 0)
(0.0157973 -0.00851724 0)
(0.0138678 -0.00844072 0)
(0.0120227 -0.00835825 0)
(0.0102446 -0.00826916 0)
(0.00851667 -0.00817266 0)
(0.00683965 -0.00806896 0)
(0.00521426 -0.00795852 0)
(0.00364098 -0.007842 0)
(0.00212013 -0.00772024 0)
(0.000651719 -0.00759428 0)
(-0.000764524 -0.00746526 0)
(-0.00212923 -0.00733438 0)
(-0.00344342 -0.00720283 0)
(-0.00470849 -0.00707172 0)
(-0.00592629 -0.00694202 0)
(-0.00709912 -0.00681461 0)
(-0.00822966 -0.00669016 0)
(-0.00932081 -0.00656908 0)
(-0.0103758 -0.00645162 0)
(-0.0113979 -0.0063379 0)
(-0.0123906 -0.00622783 0)
(-0.0133571 -0.00612122 0)
(-0.0143005 -0.00601779 0)
(-0.015224 -0.00591734 0)
(-0.0161304 -0.00581962 0)
(-0.017022 -0.00572432 0)
(-0.017901 -0.00563124 0)
(-0.0187689 -0.00554027 0)
(-0.0196265 -0.00545126 0)
(-0.0204738 -0.00536417 0)
(-0.0213097 -0.00527901 0)
(-0.0221322 -0.0051961 0)
(-0.0229366 -0.00511555 0)
(-0.0237177 -0.00503832 0)
(-0.0244648 -0.00496491 0)
(-0.025167 -0.00489905 0)
(-0.025785 -0.0048348 0)
(-0.0262706 -0.00476791 0)
(-0.0268192 -0.00470267 0)
(-0.115204 -0.00285367 0)
(-0.117744 -0.00379462 0)
(-0.120306 0.000363275 0)
(-0.122483 -0.00434757 0)
(-0.124652 0.00331074 0)
(-0.126565 -0.00381717 0)
(-0.126712 -0.0334202 0)
(-0.127836 -0.0395992 0)
(-0.12911 -0.0395587 0)
(-0.129965 -0.0395536 0)
(-0.130562 -0.0395457 0)
(-0.130857 -0.0395397 0)
(-0.130924 -0.0395338 0)
(-0.130742 -0.0395283 0)
(-0.130332 -0.0395242 0)
(-0.129725 -0.0395211 0)
(-0.128947 -0.0395188 0)
(-0.128031 -0.039517 0)
(-0.12701 -0.0395157 0)
(-0.125924 -0.0395144 0)
(-0.124817 -0.0395128 0)
(-0.123743 -0.0395106 0)
(-0.122762 -0.0395065 0)
(-0.122105 -0.0394978 0)
(-0.121914 -0.0394913 0)
(-0.1219 -0.0394896 0)
(-0.1219 -0.0394895 0)
(-0.1219 -0.0394895 0)
(-0.1219 -0.0394895 0)
(-0.1219 -0.0394895 0)
(-0.1219 -0.0394895 0)
(-0.1219 -0.0394895 0)
(-0.1219 -0.0394895 0)
(-0.1219 -0.0394895 0)
(-0.1219 -0.0394895 0)
(-0.1219 -0.0394895 0)
(-0.1219 -0.0394895 0)
(-0.1219 -0.0394895 0)
(-0.1219 -0.0394895 0)
(-0.1219 -0.0394895 0)
(-0.1219 -0.0394895 0)
(-0.1219 -0.0394895 0)
(-0.1219 -0.0394895 0)
(-0.1219 -0.0394895 0)
(-0.1219 -0.0394895 0)
(-0.1219 -0.0394895 0)
(-0.1219 -0.0394895 0)
(-0.1219 -0.0394895 0)
(-0.1219 -0.0394895 0)
(-0.1219 -0.0394895 0)
(-0.1219 -0.0394895 0)
(-0.1219 -0.0394895 0)
(-0.1219 -0.0394895 0)
(-0.1219 -0.0394895 0)
(-0.1219 -0.0394895 0)
(-0.1219 -0.0394895 0)
(-0.1219 -0.0394895 0)
(-0.1219 -0.0394895 0)
(-0.1219 -0.0394895 0)
(-0.1219 -0.0394895 0)
(-0.1219 -0.0394895 0)
(-0.1219 -0.0394895 0)
(-0.1219 -0.0394895 0)
(-0.1219 -0.0394895 0)
(-0.1219 -0.0394895 0)
(-0.1219 -0.0394895 0)
(-0.1219 -0.0394895 0)
(-0.1219 -0.0394895 0)
(-0.1219 -0.0394895 0)
(-0.1219 -0.0394895 0)
(-0.1219 -0.0394895 0)
(-0.1219 -0.0394895 0)
(-0.1219 -0.0394895 0)
(-0.1219 -0.0394895 0)
(-0.1219 -0.0394895 0)
(-0.1219 -0.0394895 0)
(-0.1219 -0.0394895 0)
(-0.1219 -0.0394895 0)
(-0.1219 -0.0394895 0)
(-0.1219 -0.0394895 0)
(-0.1219 -0.0394895 0)
(-0.1219 -0.0394895 0)
(-0.1219 -0.0394895 0)
(-0.1219 -0.0394895 0)
(-0.1219 -0.0394895 0)
(-0.1219 -0.0394895 0)
(-0.1219 -0.0394895 0)
(-0.1219 -0.0394895 0)
(-0.1219 -0.0394895 0)
(-0.1219 -0.0394895 0)
(-0.1219 -0.0394895 0)
(-0.1219 -0.0394895 0)
(-0.1219 -0.0394895 0)
(-0.1219 -0.0394895 0)
(-0.1219 -0.0394895 0)
(-0.1219 -0.0394895 0)
(-0.1219 -0.0394895 0)
(-0.1219 -0.0394895 0)
(-0.1219 -0.0394895 0)
(-0.1219 -0.0394895 0)
(-0.1219 -0.0394895 0)
(-0.1219 -0.0394895 0)
(-0.1219 -0.0394895 0)
(-0.1219 -0.0394895 0)
(-0.1219 -0.0394895 0)
(-0.1219 -0.0394895 0)
(-0.1219 -0.0394895 0)
(-0.1219 -0.0394895 0)
(-0.1219 -0.0394895 0)
(-0.1219 -0.0394895 0)
(-0.1219 -0.0394895 0)
(-0.1219 -0.0394895 0)
(-0.1219 -0.0394895 0)
(-0.1219 -0.0394895 0)
(-0.1219 -0.0394895 0)
(-0.1219 -0.0394895 0)
(-0.1219 -0.0394895 0)
(-0.1219 -0.0394895 0)
(-0.1219 -0.0394895 0)
(-0.1219 -0.0394893 0)
(-0.121901 -0.0394808 0)
(-0.121932 -0.039135 0)
(-0.122649 -0.022382 0)
)
;

boundaryField
{
    inandouthalf11
    {
        type            cyclic;
    }
    inandouthalf12
    {
        type            cyclic;
    }
    inandouthalf21
    {
        type            cyclic;
    }
    inandouthalf22
    {
        type            cyclic;
    }
    inandouthalf31
    {
        type            cyclic;
    }
    inandouthalf32
    {
        type            cyclic;
    }
    inandouthalf41
    {
        type            cyclic;
    }
    inandouthalf42
    {
        type            cyclic;
    }
    top
    {
        type            symmetryPlane;
    }
    walls
    {
        type            fixedValue;
        value           uniform (0 0 0);
    }
    frontAndBackPlanes
    {
        type            empty;
    }
}


// ************************************************************************* //
