/*--------------------------------*- C++ -*----------------------------------*\
| =========                 |                                                 |
| \\      /  F ield         | OpenFOAM: The Open Source CFD Toolbox           |
|  \\    /   O peration     | Version:  2.4.x                                 |
|   \\  /    A nd           | Web:      www.OpenFOAM.org                      |
|    \\/     M anipulation  |                                                 |
\*---------------------------------------------------------------------------*/
FoamFile
{
    version     2.0;
    format      ascii;
    class       surfaceScalarField;
    location    "6.1";
    object      ddt0(phia);
}
// * * * * * * * * * * * * * * * * * * * * * * * * * * * * * * * * * * * * * //

dimensions      [0 3 -2 0 0 0 0];

internalField   nonuniform List<scalar> 
359
(
1.57648e-13
4.39511e-13
7.02399e-13
9.45517e-13
1.18948e-12
1.44067e-12
1.69673e-12
1.95451e-12
2.21235e-12
2.47051e-12
2.72975e-12
2.99053e-12
3.253e-12
3.51698e-12
3.78236e-12
4.0492e-12
4.31759e-12
4.58759e-12
4.85914e-12
5.13221e-12
5.40642e-12
5.68157e-12
5.95727e-12
6.23312e-12
6.50873e-12
6.78384e-12
7.05843e-12
7.33305e-12
7.60858e-12
7.88654e-12
8.16895e-12
8.45851e-12
8.7576e-12
9.06892e-12
9.39341e-12
9.73067e-12
1.00773e-11
1.04266e-11
1.0768e-11
1.10863e-11
1.13646e-11
1.15854e-11
1.17351e-11
1.18087e-11
1.18131e-11
1.17705e-11
1.17187e-11
1.17099e-11
1.18093e-11
1.20954e-11
1.26619e-11
1.36251e-11
1.51289e-11
1.73449e-11
2.04323e-11
2.44301e-11
2.8986e-11
3.30084e-11
3.45582e-11
3.17298e-11
2.44459e-11
1.52884e-11
7.6213e-12
3.02829e-12
9.76631e-13
2.65496e-13
6.42631e-14
1.47862e-14
3.43207e-15
8.18924e-16
1.77097e-16
2.1627e-18
-5.14459e-17
-6.9579e-17
-7.5749e-17
-7.71098e-17
-7.59965e-17
-7.31513e-17
-6.87243e-17
-6.2638e-17
-5.47571e-17
-4.49782e-17
-3.32943e-17
-1.98297e-17
-4.84617e-18
1.12748e-17
2.80759e-17
4.50731e-17
6.18137e-17
7.79201e-17
9.31153e-17
1.07229e-16
1.2019e-16
1.32002e-16
1.42729e-16
1.52468e-16
1.61333e-16
1.69446e-16
1.76927e-16
1.83884e-16
1.9042e-16
1.96621e-16
2.02564e-16
2.08312e-16
2.13919e-16
2.19427e-16
2.2487e-16
2.30275e-16
2.35662e-16
2.41048e-16
2.46443e-16
2.51857e-16
2.57297e-16
2.62767e-16
2.68274e-16
2.73822e-16
2.7942e-16
2.85076e-16
2.90798e-16
2.96598e-16
3.02487e-16
3.08476e-16
3.14571e-16
3.20775e-16
3.27078e-16
3.33461e-16
3.39892e-16
3.46321e-16
3.52681e-16
3.58892e-16
3.6486e-16
3.70498e-16
3.75744e-16
3.80573e-16
3.84995e-16
3.89037e-16
3.92732e-16
3.9613e-16
3.9928e-16
4.02152e-16
4.04526e-16
4.06073e-16
4.06878e-16
4.07198e-16
4.0727e-16
4.07135e-16
4.08697e-16
2.25896e-10
-2.4896e-09
-3.72745e-09
-5.42733e-09
-6.41311e-09
-7.31687e-09
-8.13765e-09
-8.89309e-09
-9.59189e-09
-1.02365e-08
-1.08308e-08
-1.13813e-08
-1.18916e-08
-1.23652e-08
-1.28043e-08
-1.32098e-08
-1.35824e-08
-1.39225e-08
-1.42315e-08
-1.4511e-08
-1.47641e-08
-1.49942e-08
-1.5206e-08
-1.54042e-08
-1.55939e-08
-1.578e-08
-1.59672e-08
-1.61594e-08
-1.63601e-08
-1.65722e-08
-1.67975e-08
-1.70376e-08
-1.72932e-08
-1.75643e-08
-1.78507e-08
-1.81513e-08
-1.84648e-08
-1.87896e-08
-1.91234e-08
-1.9464e-08
-1.98084e-08
-2.01527e-08
-2.04918e-08
-2.08181e-08
-2.11215e-08
-2.13887e-08
-2.16043e-08
-2.17507e-08
-2.18093e-08
-2.1764e-08
-2.1606e-08
-2.13369e-08
-2.09706e-08
-2.05188e-08
-1.99691e-08
-1.93222e-08
-1.85775e-08
-1.77261e-08
-1.67898e-08
-1.58099e-08
-1.48153e-08
-1.38421e-08
-1.29207e-08
-1.20667e-08
-1.12935e-08
-1.05949e-08
-9.96893e-09
-9.41936e-09
-8.92893e-09
-8.49146e-09
-8.107e-09
-7.7653e-09
-7.45927e-09
-7.18341e-09
-6.94163e-09
-6.72767e-09
-6.53267e-09
-6.36355e-09
-6.21524e-09
-6.07986e-09
-5.95776e-09
-5.83959e-09
-5.72606e-09
-5.59932e-09
-5.4602e-09
-5.30691e-09
-5.17067e-09
-4.88717e-09
-3.85905e-09
3.25581e-08
1.06463e-07
4.07239e-08
4.31965e-07
2.26082e-07
-3.70309e-09
-6.08854e-10
1.03333e-10
8.68711e-11
9.31965e-11
9.54041e-11
9.42206e-11
8.92045e-11
7.94579e-11
6.32234e-11
3.64484e-11
-1.33416e-11
-1.30896e-10
-3.0434e-10
-4.38339e-11
1.61952e-11
1.39767e-11
1.38433e-11
1.37857e-11
1.38096e-11
1.37866e-11
1.381e-11
1.37865e-11
1.38104e-11
1.37862e-11
1.38107e-11
1.3786e-11
1.38111e-11
1.37857e-11
1.38113e-11
1.37856e-11
1.38114e-11
1.37855e-11
1.38115e-11
1.37853e-11
1.38118e-11
1.3785e-11
1.38121e-11
1.37847e-11
1.38124e-11
1.37844e-11
1.38126e-11
1.37842e-11
1.38129e-11
1.3784e-11
1.3813e-11
1.37839e-11
1.38131e-11
1.37838e-11
1.38132e-11
1.37837e-11
1.38132e-11
1.37837e-11
1.38132e-11
1.37838e-11
1.3813e-11
1.3784e-11
1.38128e-11
1.37842e-11
1.38125e-11
1.37845e-11
1.3812e-11
1.37848e-11
1.38115e-11
1.37853e-11
1.38109e-11
1.37857e-11
1.38103e-11
1.37863e-11
1.38095e-11
1.37867e-11
1.38088e-11
1.3787e-11
1.38082e-11
1.37873e-11
1.38075e-11
1.37876e-11
1.38069e-11
1.37879e-11
1.38061e-11
1.37881e-11
1.38053e-11
1.37883e-11
1.38045e-11
1.37883e-11
1.38034e-11
1.37876e-11
1.38003e-11
1.37842e-11
1.37956e-11
1.37807e-11
1.37911e-11
1.37774e-11
1.37876e-11
1.37755e-11
1.37841e-11
1.37726e-11
1.37814e-11
1.37724e-11
1.37807e-11
1.37734e-11
1.37827e-11
1.37778e-11
1.37845e-11
1.37792e-11
1.3787e-11
1.37855e-11
1.37937e-11
1.37941e-11
1.38041e-11
1.38059e-11
1.38203e-11
1.38261e-11
1.38371e-11
1.38245e-11
1.21515e-11
-1.446e-10
4.18417e-09
)
;

boundaryField
{
    inandouthalf11
    {
        type            cyclic;
        value           nonuniform List<scalar> 
100
(
-2.36374e-39
-1.86178e-14
-4.06974e-14
-6.02745e-14
-7.94029e-14
-9.91475e-14
-1.19392e-13
-1.3986e-13
-1.60415e-13
-1.81034e-13
-2.01756e-13
-2.22626e-13
-2.4366e-13
-2.64856e-13
-2.86204e-13
-3.07704e-13
-3.29361e-13
-3.51184e-13
-3.73174e-13
-3.9533e-13
-4.17642e-13
-4.40096e-13
-4.62675e-13
-4.85357e-13
-5.08118e-13
-5.30937e-13
-5.53803e-13
-5.76732e-13
-5.99765e-13
-6.22974e-13
-6.46471e-13
-6.70407e-13
-6.94953e-13
-7.20284e-13
-7.46538e-13
-7.73757e-13
-8.01843e-13
-8.30497e-13
-8.59162e-13
-8.86981e-13
-9.12853e-13
-9.35547e-13
-9.53906e-13
-9.67159e-13
-9.75233e-13
-9.79019e-13
-9.80526e-13
-9.82898e-13
-9.90336e-13
-1.00807e-12
-1.04245e-12
-1.10133e-12
-1.19461e-12
-1.33463e-12
-1.53519e-12
-1.80671e-12
-2.14263e-12
-2.49299e-12
-2.73668e-12
-2.69936e-12
-2.27257e-12
-1.56206e-12
-8.51869e-13
-3.65786e-13
-1.2556e-13
-3.57686e-14
-8.95024e-15
-2.11087e-15
-5.06783e-16
-1.34136e-16
-4.27268e-17
-1.80065e-17
-1.04937e-17
-7.94319e-18
-7.02188e-18
-6.72308e-18
-6.71482e-18
-6.88451e-18
-7.20026e-18
-7.66282e-18
-8.2856e-18
-9.08389e-18
-1.00679e-17
-1.12379e-17
-1.25814e-17
-1.40734e-17
-1.56779e-17
-1.73525e-17
-1.9053e-17
-2.07386e-17
-2.23752e-17
-2.39382e-17
-2.54122e-17
-2.67901e-17
-2.8072e-17
-2.92624e-17
-3.03691e-17
-3.14015e-17
-3.23699e-17
-3.32842e-17
)
;
    }
    inandouthalf12
    {
        type            cyclic;
        value           nonuniform List<scalar> 
100
(
2.36374e-39
1.86178e-14
4.06974e-14
6.02745e-14
7.94029e-14
9.91475e-14
1.19392e-13
1.3986e-13
1.60415e-13
1.81034e-13
2.01756e-13
2.22626e-13
2.4366e-13
2.64856e-13
2.86204e-13
3.07704e-13
3.29361e-13
3.51184e-13
3.73174e-13
3.9533e-13
4.17642e-13
4.40096e-13
4.62675e-13
4.85357e-13
5.08118e-13
5.30937e-13
5.53803e-13
5.76732e-13
5.99765e-13
6.22974e-13
6.46471e-13
6.70407e-13
6.94953e-13
7.20284e-13
7.46538e-13
7.73757e-13
8.01843e-13
8.30497e-13
8.59162e-13
8.86981e-13
9.12853e-13
9.35547e-13
9.53906e-13
9.67159e-13
9.75233e-13
9.79019e-13
9.80526e-13
9.82898e-13
9.90336e-13
1.00807e-12
1.04245e-12
1.10133e-12
1.19461e-12
1.33463e-12
1.53519e-12
1.80671e-12
2.14263e-12
2.49299e-12
2.73668e-12
2.69936e-12
2.27257e-12
1.56206e-12
8.51869e-13
3.65786e-13
1.2556e-13
3.57686e-14
8.95024e-15
2.11087e-15
5.06783e-16
1.34136e-16
4.27268e-17
1.80065e-17
1.04937e-17
7.94319e-18
7.02188e-18
6.72308e-18
6.71482e-18
6.88451e-18
7.20026e-18
7.66282e-18
8.2856e-18
9.08389e-18
1.00679e-17
1.12379e-17
1.25814e-17
1.40734e-17
1.56779e-17
1.73525e-17
1.9053e-17
2.07386e-17
2.23752e-17
2.39382e-17
2.54122e-17
2.67901e-17
2.8072e-17
2.92624e-17
3.03691e-17
3.14015e-17
3.23699e-17
3.32842e-17
)
;
    }
    inandouthalf21
    {
        type            cyclic;
        value           nonuniform List<scalar> 
100
(
-3.41541e-17
-3.49886e-17
-3.57954e-17
-3.65817e-17
-3.73535e-17
-3.81159e-17
-3.88733e-17
-3.96292e-17
-4.03866e-17
-4.11479e-17
-4.19153e-17
-4.26905e-17
-4.34749e-17
-4.42701e-17
-4.50777e-17
-4.58991e-17
-4.67364e-17
-4.75917e-17
-4.84677e-17
-4.93674e-17
-5.02943e-17
-5.12521e-17
-5.22448e-17
-5.32755e-17
-5.4347e-17
-5.54605e-17
-5.66151e-17
-5.78074e-17
-5.90305e-17
-6.02738e-17
-6.15227e-17
-6.27602e-17
-6.39706e-17
-6.51435e-17
-6.62759e-17
-6.73706e-17
-6.84346e-17
-6.94811e-17
-7.05293e-17
-7.15847e-17
-7.25945e-17
-7.34312e-17
-7.39934e-17
-7.42888e-17
-7.44095e-17
-7.44649e-17
-7.45221e-17
-7.59251e-17
-7.96307e-08
-9.85514e-08
-9.40383e-08
-9.53511e-08
-9.92265e-08
-1.04108e-07
-1.09255e-07
-1.14298e-07
-1.19062e-07
-1.23479e-07
-1.2754e-07
-1.31262e-07
-1.34673e-07
-1.37804e-07
-1.40688e-07
-1.43351e-07
-1.45819e-07
-1.48115e-07
-1.50257e-07
-1.52259e-07
-1.54135e-07
-1.55892e-07
-1.57538e-07
-1.59078e-07
-1.60513e-07
-1.61846e-07
-1.63077e-07
-1.64207e-07
-1.65236e-07
-1.66162e-07
-1.66985e-07
-1.67705e-07
-1.68321e-07
-1.68832e-07
-1.69238e-07
-1.69538e-07
-1.69732e-07
-1.69822e-07
-1.69806e-07
-1.69687e-07
-1.69465e-07
-1.69143e-07
-1.68722e-07
-1.68206e-07
-1.67599e-07
-1.66905e-07
-1.6613e-07
-1.65282e-07
-1.64368e-07
-1.63399e-07
-1.62386e-07
-1.61338e-07
)
;
    }
    inandouthalf22
    {
        type            cyclic;
        value           nonuniform List<scalar> 
100
(
3.41541e-17
3.49886e-17
3.57954e-17
3.65817e-17
3.73535e-17
3.81159e-17
3.88733e-17
3.96292e-17
4.03866e-17
4.11479e-17
4.19153e-17
4.26905e-17
4.34749e-17
4.42701e-17
4.50777e-17
4.58991e-17
4.67364e-17
4.75917e-17
4.84677e-17
4.93674e-17
5.02943e-17
5.12521e-17
5.22448e-17
5.32755e-17
5.4347e-17
5.54605e-17
5.66151e-17
5.78074e-17
5.90305e-17
6.02738e-17
6.15227e-17
6.27602e-17
6.39706e-17
6.51435e-17
6.62759e-17
6.73706e-17
6.84346e-17
6.94811e-17
7.05293e-17
7.15847e-17
7.25945e-17
7.34312e-17
7.39934e-17
7.42888e-17
7.44095e-17
7.44649e-17
7.45221e-17
7.59251e-17
7.96307e-08
9.85514e-08
9.40383e-08
9.53511e-08
9.92265e-08
1.04108e-07
1.09255e-07
1.14298e-07
1.19062e-07
1.23479e-07
1.2754e-07
1.31262e-07
1.34673e-07
1.37804e-07
1.40688e-07
1.43351e-07
1.45819e-07
1.48115e-07
1.50257e-07
1.52259e-07
1.54135e-07
1.55892e-07
1.57538e-07
1.59078e-07
1.60513e-07
1.61846e-07
1.63077e-07
1.64207e-07
1.65236e-07
1.66162e-07
1.66985e-07
1.67705e-07
1.68321e-07
1.68832e-07
1.69238e-07
1.69538e-07
1.69732e-07
1.69822e-07
1.69806e-07
1.69687e-07
1.69465e-07
1.69143e-07
1.68722e-07
1.68206e-07
1.67599e-07
1.66905e-07
1.6613e-07
1.65282e-07
1.64368e-07
1.63399e-07
1.62386e-07
1.61338e-07
)
;
    }
    inandouthalf31
    {
        type            cyclic;
        value           nonuniform List<scalar> 
110
(
-1.60268e-07
-1.62405e-07
-1.64539e-07
-1.66682e-07
-1.68851e-07
-1.71065e-07
-1.73342e-07
-1.757e-07
-1.78156e-07
-1.80723e-07
-1.83409e-07
-1.8622e-07
-1.89157e-07
-1.92222e-07
-1.9541e-07
-1.98718e-07
-2.02143e-07
-2.05678e-07
-2.09317e-07
-2.13055e-07
-2.16889e-07
-2.20812e-07
-2.24817e-07
-2.28902e-07
-2.33064e-07
-2.37293e-07
-2.41591e-07
-2.45958e-07
-2.50395e-07
-2.54905e-07
-2.595e-07
-2.64192e-07
-2.68986e-07
-2.73887e-07
-2.78997e-07
-2.8439e-07
-2.89809e-07
-2.03339e-07
-2.07686e-07
-2.09161e-07
-2.06543e-07
-2.12139e-07
-2.13135e-07
-2.14808e-07
-2.16699e-07
-2.18865e-07
-2.21314e-07
-2.24072e-07
-2.2718e-07
-2.30701e-07
-2.34733e-07
-2.39431e-07
-2.45036e-07
-2.51742e-07
-2.65058e-07
-2.79708e-07
-2.87522e-07
-2.93435e-07
-2.99392e-07
-3.05469e-07
-3.11669e-07
-3.17995e-07
-3.2445e-07
-3.31035e-07
-3.37754e-07
-3.4461e-07
-3.51604e-07
-3.58741e-07
-3.66023e-07
-3.73452e-07
-3.81032e-07
-3.88766e-07
-3.96657e-07
-4.04708e-07
-4.12922e-07
-4.21304e-07
-4.29855e-07
-4.3858e-07
-4.47482e-07
-4.56565e-07
-4.65832e-07
-4.75287e-07
-4.84934e-07
-4.94777e-07
-5.04819e-07
-5.15066e-07
-5.2552e-07
-5.36187e-07
-5.4707e-07
-5.58174e-07
-5.69504e-07
-5.81063e-07
-5.92857e-07
-6.0489e-07
-6.17168e-07
-6.29695e-07
-6.42476e-07
-6.55517e-07
-6.68822e-07
-6.82397e-07
-6.96248e-07
-7.1038e-07
-7.24799e-07
-7.3951e-07
-7.5452e-07
-7.69835e-07
-7.85461e-07
-8.01404e-07
-8.1767e-07
-8.34266e-07
)
;
    }
    inandouthalf32
    {
        type            cyclic;
        value           nonuniform List<scalar> 
110
(
1.60268e-07
1.62405e-07
1.64539e-07
1.66682e-07
1.68851e-07
1.71065e-07
1.73342e-07
1.757e-07
1.78156e-07
1.80723e-07
1.83409e-07
1.8622e-07
1.89157e-07
1.92222e-07
1.9541e-07
1.98718e-07
2.02143e-07
2.05678e-07
2.09317e-07
2.13055e-07
2.16889e-07
2.20812e-07
2.24817e-07
2.28902e-07
2.33064e-07
2.37293e-07
2.41591e-07
2.45958e-07
2.50395e-07
2.54905e-07
2.595e-07
2.64192e-07
2.68986e-07
2.73887e-07
2.78997e-07
2.8439e-07
2.89809e-07
2.03339e-07
2.07686e-07
2.09161e-07
2.06543e-07
2.12139e-07
2.13135e-07
2.14808e-07
2.16699e-07
2.18865e-07
2.21314e-07
2.24072e-07
2.2718e-07
2.30701e-07
2.34733e-07
2.39431e-07
2.45036e-07
2.51742e-07
2.65058e-07
2.79708e-07
2.87522e-07
2.93435e-07
2.99392e-07
3.05469e-07
3.11669e-07
3.17995e-07
3.2445e-07
3.31035e-07
3.37754e-07
3.4461e-07
3.51604e-07
3.58741e-07
3.66023e-07
3.73452e-07
3.81032e-07
3.88766e-07
3.96657e-07
4.04708e-07
4.12922e-07
4.21304e-07
4.29855e-07
4.3858e-07
4.47482e-07
4.56565e-07
4.65832e-07
4.75287e-07
4.84934e-07
4.94777e-07
5.04819e-07
5.15066e-07
5.2552e-07
5.36187e-07
5.4707e-07
5.58174e-07
5.69504e-07
5.81063e-07
5.92857e-07
6.0489e-07
6.17168e-07
6.29695e-07
6.42476e-07
6.55517e-07
6.68822e-07
6.82397e-07
6.96248e-07
7.1038e-07
7.24799e-07
7.3951e-07
7.5452e-07
7.69835e-07
7.85461e-07
8.01404e-07
8.1767e-07
8.34266e-07
)
;
    }
    inandouthalf41
    {
        type            cyclic;
        value           nonuniform List<scalar> 
50
(
-7.46753e-07
-7.46753e-07
-7.46753e-07
-7.46753e-07
-7.46753e-07
-7.46753e-07
-7.46753e-07
-7.46753e-07
-7.46753e-07
-7.46753e-07
-7.46753e-07
-7.46753e-07
-7.46753e-07
-7.46753e-07
-7.46753e-07
-7.46753e-07
-7.46753e-07
-7.46753e-07
-7.46753e-07
-7.46753e-07
-7.46753e-07
-7.46753e-07
-7.46753e-07
-7.46753e-07
-7.46753e-07
-7.46753e-07
-7.46753e-07
-7.46753e-07
-7.46753e-07
-7.46753e-07
-7.46753e-07
-7.46753e-07
-7.46753e-07
-7.46753e-07
-7.46753e-07
-7.46753e-07
-7.46753e-07
-7.46753e-07
-7.46753e-07
-7.46753e-07
-7.46753e-07
-7.46753e-07
-7.46753e-07
-7.46753e-07
-7.46753e-07
-7.46753e-07
-7.46753e-07
-7.4675e-07
-7.46664e-07
-7.44584e-07
)
;
    }
    inandouthalf42
    {
        type            cyclic;
        value           nonuniform List<scalar> 
50
(
7.46753e-07
7.46753e-07
7.46753e-07
7.46753e-07
7.46753e-07
7.46753e-07
7.46753e-07
7.46753e-07
7.46753e-07
7.46753e-07
7.46753e-07
7.46753e-07
7.46753e-07
7.46753e-07
7.46753e-07
7.46753e-07
7.46753e-07
7.46753e-07
7.46753e-07
7.46753e-07
7.46753e-07
7.46753e-07
7.46753e-07
7.46753e-07
7.46753e-07
7.46753e-07
7.46753e-07
7.46753e-07
7.46753e-07
7.46753e-07
7.46753e-07
7.46753e-07
7.46753e-07
7.46753e-07
7.46753e-07
7.46753e-07
7.46753e-07
7.46753e-07
7.46753e-07
7.46753e-07
7.46753e-07
7.46753e-07
7.46753e-07
7.46753e-07
7.46753e-07
7.46753e-07
7.46753e-07
7.4675e-07
7.46664e-07
7.44584e-07
)
;
    }
    top
    {
        type            symmetryPlane;
        value           uniform 0;
    }
    walls
    {
        type            calculated;
        value           uniform 0;
    }
    frontAndBackPlanes
    {
        type            empty;
        value           nonuniform 0();
    }
}


// ************************************************************************* //
