/*--------------------------------*- C++ -*----------------------------------*\
| =========                 |                                                 |
| \\      /  F ield         | OpenFOAM: The Open Source CFD Toolbox           |
|  \\    /   O peration     | Version:  2.4.x                                 |
|   \\  /    A nd           | Web:      www.OpenFOAM.org                      |
|    \\/     M anipulation  |                                                 |
\*---------------------------------------------------------------------------*/
FoamFile
{
    version     2.0;
    format      ascii;
    class       volScalarField;
    location    "6.1";
    object      k;
}
// * * * * * * * * * * * * * * * * * * * * * * * * * * * * * * * * * * * * * //

dimensions      [0 2 -2 0 0 0 0];

internalField   nonuniform List<scalar> 
360
(
1e-20
1e-20
1e-20
1e-20
1e-20
1e-20
1e-20
1e-20
1e-20
1e-20
1e-20
1e-20
1e-20
1e-20
1e-20
1e-20
1e-20
1e-20
1e-20
1e-20
1e-20
1e-20
1e-20
1e-20
1e-20
1e-20
1e-20
1e-20
1e-20
1e-20
1e-20
1e-20
1e-20
1e-20
1e-20
1e-20
1e-20
1e-20
1e-20
1e-20
1e-20
1e-20
1e-20
1e-20
1e-20
1e-20
1e-20
1e-20
1e-20
1e-20
1e-20
1e-20
1e-20
1e-20
1e-20
1e-20
1e-20
1e-20
1e-20
1e-20
1e-20
1e-20
1e-20
1e-20
1e-20
1e-20
1e-20
1e-20
1e-20
1e-20
1e-20
1e-20
1e-20
1e-20
1e-20
1e-20
1e-20
1e-20
1e-20
1e-20
1e-20
1e-20
1e-20
1e-20
1e-20
1e-20
1e-20
1e-20
1e-20
1e-20
1e-20
1e-20
1e-20
1e-20
1e-20
1e-20
1e-20
1e-20
1e-20
1e-20
1e-20
1e-20
1e-20
1e-20
1e-20
1e-20
1e-20
1e-20
1e-20
1e-20
1e-20
1e-20
1e-20
1e-20
1e-20
1e-20
1e-20
1e-20
1e-20
1e-20
1e-20
1e-20
1e-20
1e-20
1e-20
1e-20
1e-20
1e-20
1e-20
1e-20
1e-20
1e-20
1.45044e-20
6.05885e-20
3.05659e-19
1.68756e-18
1.0223e-17
6.86055e-17
5.16517e-16
4.42481e-15
4.37275e-14
5.05482e-13
6.95082e-12
1.15406e-10
2.33876e-09
5.8446e-08
1.81079e-06
6.214e-05
0.00121009
0.00416844
0.00560705
0.00639211
0.00688715
0.00722733
0.00747505
0.0076614
0.00780307
0.00790994
0.00798847
0.0080433
0.00807796
0.00809528
0.00809756
0.00808671
0.00806432
0.00803175
0.00799013
0.00794044
0.00788351
0.00782007
0.00775073
0.00767605
0.0075965
0.00751249
0.00742441
0.00733257
0.00723727
0.00713878
0.00703733
0.00693315
0.00682643
0.00671736
0.00660609
0.0064928
0.00637763
0.00626071
0.00614218
0.00602216
0.00590078
0.00577815
0.00565438
0.00552959
0.00540389
0.00527738
0.00515018
0.00502239
0.00489412
0.00476549
0.0046366
0.00450758
0.00437854
0.00424828
0.00411561
0.00398063
0.00384346
0.00370426
0.00356319
0.00342047
0.00327634
0.00313106
0.00298497
0.00283843
0.00269185
0.00254571
0.00240053
0.0022569
0.00211545
0.00197689
0.00184194
0.00171139
0.00158603
0.00146662
0.00135389
0.0012485
0.00115097
0.00106166
0.000980707
0.000908065
0.000843451
0.000786391
0.000736252
0.000692287
0.000653685
0.000619613
0.000589253
0.000561821
0.000536582
0.00051286
0.000490042
0.000467574
0.000444966
0.000421789
0.000397679
0.000372336
0.000345526
0.000317084
0.000286921
0.000255032
0.000221509
0.000186564
0.000150568
0.000114112
7.81388e-05
4.42346e-05
1.51939e-05
1.59877e-06
4.34106e-08
7.97347e-10
1.36183e-11
2.18813e-13
3.3106e-15
4.7203e-17
6.41491e-19
1.64893e-20
1e-20
1e-20
1e-20
1e-20
1e-20
1e-20
1e-20
1e-20
1e-20
1e-20
1e-20
1e-20
1e-20
1e-20
1e-20
1e-20
1e-20
1e-20
1e-20
1e-20
1e-20
1e-20
1e-20
1e-20
1e-20
1e-20
1e-20
1e-20
1e-20
1e-20
1e-20
1e-20
1e-20
1e-20
1e-20
1e-20
1e-20
1e-20
1e-20
1e-20
1e-20
1e-20
1e-20
1e-20
1e-20
1e-20
1e-20
1e-20
1e-20
1e-20
1e-20
1e-20
1e-20
1e-20
1e-20
1e-20
1e-20
1e-20
1e-20
1e-20
1e-20
1e-20
1e-20
1e-20
1e-20
1e-20
1e-20
1e-20
1e-20
1e-20
1e-20
1e-20
1e-20
1e-20
1e-20
1e-20
1e-20
1e-20
1e-20
1e-20
1e-20
1e-20
1e-20
1e-20
1e-20
1e-20
1e-20
1e-20
1e-20
1e-20
1e-20
1e-20
1e-20
1e-20
1e-20
1e-20
)
;

boundaryField
{
    inandouthalf11
    {
        type            cyclic;
    }
    inandouthalf12
    {
        type            cyclic;
    }
    inandouthalf21
    {
        type            cyclic;
    }
    inandouthalf22
    {
        type            cyclic;
    }
    inandouthalf31
    {
        type            cyclic;
    }
    inandouthalf32
    {
        type            cyclic;
    }
    inandouthalf41
    {
        type            cyclic;
    }
    inandouthalf42
    {
        type            cyclic;
    }
    top
    {
        type            symmetryPlane;
    }
    walls
    {
        type            zeroGradient;
    }
    frontAndBackPlanes
    {
        type            empty;
    }
}


// ************************************************************************* //
