/*--------------------------------*- C++ -*----------------------------------*\
| =========                 |                                                 |
| \\      /  F ield         | OpenFOAM: The Open Source CFD Toolbox           |
|  \\    /   O peration     | Version:  2.4.x                                 |
|   \\  /    A nd           | Web:      www.OpenFOAM.org                      |
|    \\/     M anipulation  |                                                 |
\*---------------------------------------------------------------------------*/
FoamFile
{
    version     2.0;
    format      ascii;
    class       volScalarField;
    location    "6.1";
    object      k_0;
}
// * * * * * * * * * * * * * * * * * * * * * * * * * * * * * * * * * * * * * //

dimensions      [0 2 -2 0 0 0 0];

internalField   nonuniform List<scalar> 
360
(
1e-20
1e-20
1e-20
1e-20
1e-20
1e-20
1e-20
1e-20
1e-20
1e-20
1e-20
1e-20
1e-20
1e-20
1e-20
1e-20
1e-20
1e-20
1e-20
1e-20
1e-20
1e-20
1e-20
1e-20
1e-20
1e-20
1e-20
1e-20
1e-20
1e-20
1e-20
1e-20
1e-20
1e-20
1e-20
1e-20
1e-20
1e-20
1e-20
1e-20
1e-20
1e-20
1e-20
1e-20
1e-20
1e-20
1e-20
1e-20
1e-20
1e-20
1e-20
1e-20
1e-20
1e-20
1e-20
1e-20
1e-20
1e-20
1e-20
1e-20
1e-20
1e-20
1e-20
1e-20
1e-20
1e-20
1e-20
1e-20
1e-20
1e-20
1e-20
1e-20
1e-20
1e-20
1e-20
1e-20
1e-20
1e-20
1e-20
1e-20
1e-20
1e-20
1e-20
1e-20
1e-20
1e-20
1e-20
1e-20
1e-20
1e-20
1e-20
1e-20
1e-20
1e-20
1e-20
1e-20
1e-20
1e-20
1e-20
1e-20
1e-20
1e-20
1e-20
1e-20
1e-20
1e-20
1e-20
1e-20
1e-20
1e-20
1e-20
1e-20
1e-20
1e-20
1e-20
1e-20
1e-20
1e-20
1e-20
1e-20
1e-20
1e-20
1e-20
1e-20
1e-20
1e-20
1e-20
1e-20
1e-20
1e-20
1e-20
1e-20
1.4506e-20
6.05955e-20
3.0569e-19
1.68773e-18
1.02241e-17
6.86142e-17
5.16597e-16
4.42566e-15
4.37376e-14
5.05621e-13
6.95306e-12
1.15448e-10
2.33973e-09
5.8473e-08
1.8117e-06
6.21714e-05
0.0012105
0.00416894
0.00560745
0.00639248
0.0068875
0.00722766
0.00747537
0.00766169
0.00780335
0.0079102
0.00798871
0.00804352
0.00807817
0.00809547
0.00809774
0.00808687
0.00806447
0.00803188
0.00799025
0.00794054
0.0078836
0.00782014
0.0077508
0.0076761
0.00759653
0.00751251
0.00742441
0.00733256
0.00723725
0.00713874
0.00703728
0.00693309
0.00682635
0.00671726
0.00660598
0.00649268
0.00637749
0.00626056
0.00614201
0.00602198
0.00590058
0.00577794
0.00565416
0.00552936
0.00540364
0.00527712
0.0051499
0.0050221
0.00489382
0.00476518
0.00463628
0.00450725
0.00437819
0.00424792
0.00411524
0.00398025
0.00384308
0.00370386
0.00356279
0.00342006
0.00327592
0.00313064
0.00298455
0.002838
0.00269142
0.00254528
0.00240011
0.00225648
0.00211504
0.00197649
0.00184156
0.00171103
0.00158568
0.00146629
0.00135359
0.00124823
0.00115073
0.00106144
0.000980522
0.000907908
0.000843322
0.000786288
0.000736172
0.000692227
0.000653642
0.000619586
0.000589238
0.000561815
0.000536583
0.000512866
0.000490052
0.000467586
0.000444978
0.0004218
0.000397689
0.000372343
0.000345529
0.000317083
0.000286916
0.000255023
0.000221495
0.000186545
0.000150544
0.000114086
7.81101e-05
4.4206e-05
1.51716e-05
1.59401e-06
4.32404e-08
7.94108e-10
1.35617e-11
2.17881e-13
3.2962e-15
4.69933e-17
6.38616e-19
1.64538e-20
1e-20
1e-20
1e-20
1e-20
1e-20
1e-20
1e-20
1e-20
1e-20
1e-20
1e-20
1e-20
1e-20
1e-20
1e-20
1e-20
1e-20
1e-20
1e-20
1e-20
1e-20
1e-20
1e-20
1e-20
1e-20
1e-20
1e-20
1e-20
1e-20
1e-20
1e-20
1e-20
1e-20
1e-20
1e-20
1e-20
1e-20
1e-20
1e-20
1e-20
1e-20
1e-20
1e-20
1e-20
1e-20
1e-20
1e-20
1e-20
1e-20
1e-20
1e-20
1e-20
1e-20
1e-20
1e-20
1e-20
1e-20
1e-20
1e-20
1e-20
1e-20
1e-20
1e-20
1e-20
1e-20
1e-20
1e-20
1e-20
1e-20
1e-20
1e-20
1e-20
1e-20
1e-20
1e-20
1e-20
1e-20
1e-20
1e-20
1e-20
1e-20
1e-20
1e-20
1e-20
1e-20
1e-20
1e-20
1e-20
1e-20
1e-20
1e-20
1e-20
1e-20
1e-20
1e-20
1e-20
)
;

boundaryField
{
    inandouthalf11
    {
        type            cyclic;
    }
    inandouthalf12
    {
        type            cyclic;
    }
    inandouthalf21
    {
        type            cyclic;
    }
    inandouthalf22
    {
        type            cyclic;
    }
    inandouthalf31
    {
        type            cyclic;
    }
    inandouthalf32
    {
        type            cyclic;
    }
    inandouthalf41
    {
        type            cyclic;
    }
    inandouthalf42
    {
        type            cyclic;
    }
    top
    {
        type            symmetryPlane;
    }
    walls
    {
        type            zeroGradient;
    }
    frontAndBackPlanes
    {
        type            empty;
    }
}


// ************************************************************************* //
