/*--------------------------------*- C++ -*----------------------------------*\
| =========                 |                                                 |
| \\      /  F ield         | OpenFOAM: The Open Source CFD Toolbox           |
|  \\    /   O peration     | Version:  2.4.x                                 |
|   \\  /    A nd           | Web:      www.OpenFOAM.org                      |
|    \\/     M anipulation  |                                                 |
\*---------------------------------------------------------------------------*/
FoamFile
{
    version     2.0;
    format      ascii;
    class       volScalarField;
    location    "6.1";
    object      p;
}
// * * * * * * * * * * * * * * * * * * * * * * * * * * * * * * * * * * * * * //

dimensions      [1 -1 -2 0 0 0 0];

internalField   nonuniform List<scalar> 
360
(
4897.93
4893.03
4888.12
4883.22
4878.31
4873.4
4868.49
4863.58
4858.67
4853.75
4848.84
4843.93
4839.01
4834.1
4829.18
4824.26
4819.34
4814.42
4809.5
4804.58
4799.66
4794.74
4789.81
4784.89
4779.96
4775.04
4770.11
4765.18
4760.25
4755.32
4750.39
4745.46
4740.52
4735.59
4730.65
4725.72
4720.78
4715.84
4710.9
4705.96
4701.02
4696.08
4691.13
4686.19
4681.24
4676.3
4671.35
4666.4
4661.45
4656.5
4651.55
4646.6
4641.65
4636.69
4631.74
4626.78
4621.82
4616.86
4611.9
4606.93
4601.97
4597
4592.03
4587.06
4582.08
4577.11
4572.14
4567.17
4562.2
4557.23
4552.25
4547.28
4542.31
4537.34
4532.37
4527.4
4522.42
4517.45
4512.48
4507.51
4502.54
4497.57
4492.6
4487.62
4482.65
4477.68
4472.71
4467.74
4462.77
4457.8
4452.83
4447.86
4442.88
4437.91
4432.94
4427.97
4423
4418.03
4413.06
4408.09
4403.12
4398.15
4393.18
4388.21
4383.24
4378.27
4373.3
4368.33
4363.36
4358.39
4353.42
4348.45
4343.48
4338.51
4333.54
4328.57
4323.6
4318.63
4313.66
4308.69
4303.72
4298.75
4293.78
4288.81
4283.84
4278.88
4273.91
4268.94
4263.97
4259
4254.03
4249.06
4244.1
4239.13
4234.16
4229.19
4224.23
4219.26
4214.29
4209.32
4204.36
4199.39
4194.43
4189.46
4184.49
4179.53
4174.56
4169.56
4162.7
4154.29
4147.56
4141.45
4135.64
4130.03
4124.56
4119.2
4113.93
4108.74
4103.6
4098.51
4093.47
4088.45
4083.46
4078.49
4073.54
4068.61
4063.69
4058.78
4053.88
4048.99
4044.1
4039.23
4034.36
4029.49
4024.63
4019.77
4014.92
4010.07
4005.22
4000.38
3995.54
3990.7
3985.87
3981.03
3976.2
3971.37
3966.54
3961.71
3956.88
3952.06
3947.23
3942.41
3937.58
3932.76
3927.94
3923.12
3918.3
3913.48
3908.66
3903.84
3899.02
3894.15
3889.18
3884.11
3878.94
3873.66
3868.28
3862.78
3857.17
3851.45
3845.61
3839.65
3833.57
3827.36
3821.02
3814.55
3807.95
3801.21
3794.33
3787.3
3780.12
3772.8
3765.32
3757.68
3749.88
3741.91
3733.78
3725.47
3716.99
3708.33
3699.49
3690.47
3681.26
3671.85
3662.26
3652.46
3642.47
3632.27
3621.87
3611.25
3600.41
3589.36
3578.08
3566.58
3554.84
3542.86
3530.65
3518.18
3505.46
3492.49
3479.25
3465.74
3451.96
3437.89
3423.54
3408.88
3393.92
3378.66
3363.08
3347.19
3330.97
3314.43
3297.55
3280.33
3262.76
3244.83
3226.54
3207.87
3188.83
3169.4
3149.58
3129.35
3108.72
3087.66
3066.18
3044.26
3021.9
2999.08
2975.8
2952.05
2927.81
2903.09
2877.86
2852.12
2825.86
2799.06
2771.72
2743.82
2715.36
2686.32
2656.7
2626.47
2595.62
2564.15
2532.05
2499.29
2465.86
2431.76
2396.96
2361.46
2325.24
2288.28
2250.57
2212.1
2172.85
2132.8
2091.93
2050.24
2007.7
1964.3
1922.76
1883.52
1844.28
1805.04
1765.8
1726.56
1687.32
1648.08
1608.84
1569.6
1530.36
1491.12
1451.88
1412.64
1373.4
1334.16
1294.92
1255.68
1216.44
1177.2
1137.96
1098.72
1059.48
1020.24
981
941.76
902.52
863.28
824.04
784.8
745.56
706.32
667.08
627.84
588.6
549.36
510.12
470.88
431.64
392.4
353.16
313.92
274.68
235.44
196.2
156.96
117.72
78.48
39.24
1.64181e-07
)
;

boundaryField
{
    inandouthalf11
    {
        type            cyclic;
    }
    inandouthalf12
    {
        type            cyclic;
    }
    inandouthalf21
    {
        type            cyclic;
    }
    inandouthalf22
    {
        type            cyclic;
    }
    inandouthalf31
    {
        type            cyclic;
    }
    inandouthalf32
    {
        type            cyclic;
    }
    inandouthalf41
    {
        type            cyclic;
    }
    inandouthalf42
    {
        type            cyclic;
    }
    top
    {
        type            symmetryPlane;
    }
    walls
    {
        type            slip;
    }
    frontAndBackPlanes
    {
        type            empty;
    }
}


// ************************************************************************* //
