/*--------------------------------*- C++ -*----------------------------------*\
| =========                 |                                                 |
| \\      /  F ield         | OpenFOAM: The Open Source CFD Toolbox           |
|  \\    /   O peration     | Version:  2.4.x                                 |
|   \\  /    A nd           | Web:      www.OpenFOAM.org                      |
|    \\/     M anipulation  |                                                 |
\*---------------------------------------------------------------------------*/
FoamFile
{
    version     2.0;
    format      ascii;
    class       volScalarField;
    location    "6.1";
    object      pa;
}
// * * * * * * * * * * * * * * * * * * * * * * * * * * * * * * * * * * * * * //

dimensions      [1 -1 -2 0 0 0 0];

internalField   nonuniform List<scalar> 
360
(
2.89957e-16
2.92588e-16
2.92748e-16
2.92469e-16
2.92355e-16
2.92323e-16
2.92276e-16
2.92214e-16
2.9215e-16
2.92085e-16
2.9202e-16
2.91956e-16
2.91892e-16
2.91826e-16
2.9176e-16
2.91694e-16
2.91626e-16
2.91558e-16
2.9149e-16
2.91421e-16
2.91352e-16
2.91281e-16
2.9121e-16
2.91138e-16
2.91065e-16
2.90992e-16
2.90918e-16
2.90842e-16
2.90766e-16
2.90689e-16
2.90613e-16
2.90535e-16
2.90459e-16
2.90383e-16
2.90308e-16
2.90234e-16
2.90161e-16
2.90087e-16
2.90011e-16
2.89934e-16
2.89849e-16
2.89757e-16
2.89658e-16
2.89546e-16
2.89428e-16
2.89303e-16
2.89176e-16
2.89054e-16
2.88941e-16
2.88842e-16
2.88769e-16
2.88727e-16
2.88737e-16
2.88824e-16
2.89034e-16
2.89424e-16
2.90034e-16
2.90771e-16
2.91261e-16
2.90935e-16
2.8965e-16
2.88117e-16
2.87111e-16
2.86689e-16
2.86531e-16
2.86437e-16
2.86351e-16
2.86262e-16
2.86171e-16
2.86078e-16
2.85979e-16
2.85876e-16
2.85772e-16
2.85663e-16
2.85552e-16
2.85438e-16
2.85323e-16
2.85205e-16
2.85084e-16
2.84961e-16
2.84835e-16
2.84705e-16
2.84572e-16
2.84435e-16
2.84295e-16
2.84152e-16
2.84005e-16
2.83856e-16
2.83704e-16
2.83548e-16
2.8339e-16
2.83228e-16
2.83062e-16
2.82892e-16
2.82719e-16
2.82542e-16
2.8236e-16
2.82175e-16
2.81985e-16
2.81792e-16
2.81593e-16
2.81391e-16
2.81183e-16
2.80971e-16
2.80753e-16
2.8053e-16
2.80302e-16
2.80069e-16
2.79829e-16
2.79583e-16
2.79331e-16
2.79072e-16
2.78806e-16
2.78533e-16
2.78253e-16
2.77964e-16
2.77668e-16
2.77363e-16
2.77049e-16
2.76725e-16
2.76392e-16
2.76049e-16
2.75695e-16
2.7533e-16
2.74953e-16
2.74564e-16
2.74162e-16
2.73746e-16
2.73314e-16
2.72866e-16
2.724e-16
2.71917e-16
3.93632e-16
1.64082e-15
8.25897e-15
4.54886e-14
2.7486e-13
1.8395e-12
1.38066e-11
1.17852e-10
1.16005e-09
1.33575e-08
1.82886e-07
3.02873e-06
6.54589e-05
0.00325672
0.164356
2.73575
4.02182
3.60272
2.83587
2.16455
1.64479
1.25528
0.966439
0.752131
0.592034
0.471228
0.379021
0.307812
0.252188
0.208265
0.17323
0.145025
0.122122
0.103381
0.0879345
0.0751206
0.064427
0.055454
0.0478868
0.0414758
0.0360214
0.0313626
0.027369
0.0239344
0.0209713
0.0184077
0.0161839
0.0142501
0.0125647
0.0110925
0.00980412
0.00867441
0.00768212
0.0068091
0.00603982
0.00536097
0.00476105
0.00423012
0.00375953
0.00334172
0.00297007
0.00263881
0.0023429
0.00207795
0.0018402
0.00162659
0.00143474
0.00126289
0.00110941
0.000970854
0.000844666
0.000730074
0.000625928
0.000531689
0.00044766
0.000373692
0.000309429
0.000254538
0.000208199
0.000169581
0.000137652
0.000111319
8.98808e-05
7.24479e-05
5.82273e-05
4.67367e-05
3.74395e-05
2.99085e-05
2.37945e-05
1.88626e-05
1.49066e-05
1.16997e-05
9.13048e-06
7.08288e-06
5.44576e-06
4.14412e-06
3.11815e-06
2.30688e-06
1.68269e-06
1.18513e-06
8.24807e-07
5.33741e-07
3.41361e-07
1.57732e-07
0
0
0
0
0
0
0
0
0
0
0
0
0
0
0
0
0
0
0
0
0
0
0
0
0
0
0
0
0
0
0
0
0
0
0
0
0
0
0
0
0
0
0
0
0
0
0
0
0
0
0
0
0
0
0
0
0
0
0
0
0
0
0
0
0
0
0
0
0
0
0
0
0
0
0
0
0
0
0
0
0
0
0
0
0
0
0
0
0
0
0
0
0
0
0
0
0
0
0
0
0
0
0
0
0
0
0
0
0
0
0
0
0
0
0
0
0
0
0
0
0
0
0
0
)
;

boundaryField
{
    inandouthalf11
    {
        type            cyclic;
    }
    inandouthalf12
    {
        type            cyclic;
    }
    inandouthalf21
    {
        type            cyclic;
    }
    inandouthalf22
    {
        type            cyclic;
    }
    inandouthalf31
    {
        type            cyclic;
    }
    inandouthalf32
    {
        type            cyclic;
    }
    inandouthalf41
    {
        type            cyclic;
    }
    inandouthalf42
    {
        type            cyclic;
    }
    top
    {
        type            symmetryPlane;
    }
    walls
    {
        type            calculated;
        value           uniform 2.89957e-16;
    }
    frontAndBackPlanes
    {
        type            empty;
    }
}


// ************************************************************************* //
