/*--------------------------------*- C++ -*----------------------------------*\
| =========                 |                                                 |
| \\      /  F ield         | OpenFOAM: The Open Source CFD Toolbox           |
|  \\    /   O peration     | Version:  2.4.x                                 |
|   \\  /    A nd           | Web:      www.OpenFOAM.org                      |
|    \\/     M anipulation  |                                                 |
\*---------------------------------------------------------------------------*/
FoamFile
{
    version     2.0;
    format      ascii;
    class       surfaceScalarField;
    location    "6.1";
    object      phia;
}
// * * * * * * * * * * * * * * * * * * * * * * * * * * * * * * * * * * * * * //

dimensions      [0 3 -1 0 0 0 0];

internalField   nonuniform List<scalar> 
359
(
-3.82278e-13
-9.95951e-13
-1.55708e-12
-2.08279e-12
-2.61721e-12
-3.16545e-12
-3.72032e-12
-4.27784e-12
-4.83731e-12
-5.39981e-12
-5.96628e-12
-6.53694e-12
-7.11171e-12
-7.69025e-12
-8.27244e-12
-8.85832e-12
-9.44801e-12
-1.00415e-11
-1.06389e-11
-1.12402e-11
-1.18452e-11
-1.2454e-11
-1.30666e-11
-1.36829e-11
-1.43028e-11
-1.49261e-11
-1.55527e-11
-1.61825e-11
-1.68154e-11
-1.74516e-11
-1.8091e-11
-1.87344e-11
-1.93819e-11
-2.00349e-11
-2.06937e-11
-2.13594e-11
-2.20326e-11
-2.27137e-11
-2.34028e-11
-2.40979e-11
-2.47976e-11
-2.54983e-11
-2.61955e-11
-2.68853e-11
-2.75631e-11
-2.82257e-11
-2.88721e-11
-2.95031e-11
-3.01241e-11
-3.07441e-11
-3.13753e-11
-3.2036e-11
-3.27498e-11
-3.35483e-11
-3.447e-11
-3.55596e-11
-3.68532e-11
-3.83543e-11
-3.99906e-11
-4.15924e-11
-4.29407e-11
-4.38782e-11
-4.4404e-11
-4.46393e-11
-4.47239e-11
-4.47489e-11
-4.47553e-11
-4.47568e-11
-4.47572e-11
-4.47572e-11
-4.47573e-11
-4.47573e-11
-4.47573e-11
-4.47573e-11
-4.47573e-11
-4.47573e-11
-4.47573e-11
-4.47573e-11
-4.47573e-11
-4.47573e-11
-4.47573e-11
-4.47573e-11
-4.47573e-11
-4.47573e-11
-4.47573e-11
-4.47573e-11
-4.47573e-11
-4.47573e-11
-4.47573e-11
-4.47573e-11
-4.47573e-11
-4.47573e-11
-4.47573e-11
-4.47573e-11
-4.47573e-11
-4.47573e-11
-4.47573e-11
-4.47573e-11
-4.47573e-11
-4.47573e-11
-4.47573e-11
-4.47573e-11
-4.47573e-11
-4.47573e-11
-4.47573e-11
-4.47574e-11
-4.47574e-11
-4.47574e-11
-4.47574e-11
-4.47574e-11
-4.47574e-11
-4.47574e-11
-4.47574e-11
-4.47574e-11
-4.47574e-11
-4.47574e-11
-4.47574e-11
-4.47574e-11
-4.47574e-11
-4.47574e-11
-4.47574e-11
-4.47574e-11
-4.47574e-11
-4.47574e-11
-4.47574e-11
-4.47574e-11
-4.47574e-11
-4.47574e-11
-4.47574e-11
-4.47574e-11
-4.47574e-11
-4.47574e-11
-4.47574e-11
-4.47574e-11
-4.47574e-11
-4.47574e-11
-4.47574e-11
-4.47574e-11
-4.47574e-11
-4.47574e-11
-4.47574e-11
-4.47574e-11
-4.47574e-11
-4.47574e-11
-4.47574e-11
-4.47574e-11
-4.47574e-11
-1.21355e-10
-1.04074e-09
-1.71985e-09
-2.20395e-09
-2.60583e-09
-2.95984e-09
-3.27209e-09
-3.54085e-09
-3.76306e-09
-3.93649e-09
-4.06034e-09
-4.13498e-09
-4.16167e-09
-4.1422e-09
-4.07862e-09
-3.97307e-09
-3.82771e-09
-3.64458e-09
-3.42564e-09
-3.17271e-09
-2.88748e-09
-2.57152e-09
-2.22628e-09
-1.85308e-09
-1.45316e-09
-1.02766e-09
-5.77617e-10
-1.03995e-10
3.92318e-10
9.10505e-10
1.44981e-09
2.00953e-09
2.589e-09
3.1876e-09
3.80472e-09
4.43978e-09
5.09218e-09
5.76133e-09
6.44662e-09
7.14741e-09
7.863e-09
8.59258e-09
9.33511e-09
1.00892e-08
1.08529e-08
1.16235e-08
1.23976e-08
1.31707e-08
1.39375e-08
1.46917e-08
1.54271e-08
1.61375e-08
1.68187e-08
1.74682e-08
1.8095e-08
1.86934e-08
1.92578e-08
1.97806e-08
2.02532e-08
2.06713e-08
2.10326e-08
2.13363e-08
2.15859e-08
2.17849e-08
2.19387e-08
2.20533e-08
2.21319e-08
2.21806e-08
2.22038e-08
2.22035e-08
2.21837e-08
2.21466e-08
2.20942e-08
2.20272e-08
2.19466e-08
2.18544e-08
2.17494e-08
2.16323e-08
2.15036e-08
2.13623e-08
2.12069e-08
2.10367e-08
2.08454e-08
2.06356e-08
2.03836e-08
2.01084e-08
1.97378e-08
1.94165e-08
1.82945e-08
1.03698e-08
6.08344e-09
1.44722e-08
2.85377e-09
-1.09734e-07
-1.58332e-07
-1.5831e-07
-1.58313e-07
-1.58318e-07
-1.58322e-07
-1.58327e-07
-1.58331e-07
-1.58333e-07
-1.58334e-07
-1.58333e-07
-1.58328e-07
-1.58316e-07
-1.58295e-07
-1.58237e-07
-1.58201e-07
-1.58199e-07
-1.58199e-07
-1.58199e-07
-1.58199e-07
-1.58199e-07
-1.58199e-07
-1.58199e-07
-1.58199e-07
-1.58199e-07
-1.58199e-07
-1.58199e-07
-1.58199e-07
-1.58199e-07
-1.58199e-07
-1.58199e-07
-1.58199e-07
-1.58199e-07
-1.58199e-07
-1.58199e-07
-1.58199e-07
-1.58199e-07
-1.58199e-07
-1.58199e-07
-1.58199e-07
-1.58199e-07
-1.58199e-07
-1.58199e-07
-1.58199e-07
-1.58199e-07
-1.58199e-07
-1.58199e-07
-1.58199e-07
-1.58199e-07
-1.58199e-07
-1.58199e-07
-1.58199e-07
-1.58199e-07
-1.58199e-07
-1.58199e-07
-1.58199e-07
-1.58199e-07
-1.58199e-07
-1.58199e-07
-1.58199e-07
-1.58199e-07
-1.58199e-07
-1.58199e-07
-1.58199e-07
-1.58199e-07
-1.58199e-07
-1.58199e-07
-1.58199e-07
-1.58199e-07
-1.58199e-07
-1.58199e-07
-1.58199e-07
-1.58199e-07
-1.58199e-07
-1.58199e-07
-1.58199e-07
-1.58199e-07
-1.58199e-07
-1.58199e-07
-1.58199e-07
-1.58199e-07
-1.58199e-07
-1.58199e-07
-1.58199e-07
-1.58199e-07
-1.58199e-07
-1.58199e-07
-1.58199e-07
-1.58199e-07
-1.58199e-07
-1.58199e-07
-1.58199e-07
-1.58199e-07
-1.58199e-07
-1.58199e-07
-1.58199e-07
-1.58199e-07
-1.58199e-07
-1.58199e-07
-1.58199e-07
-1.58199e-07
-1.58199e-07
-1.58199e-07
-1.58199e-07
-1.58199e-07
-1.58199e-07
-1.58199e-07
-1.58199e-07
-1.58199e-07
-1.58199e-07
-1.58199e-07
-1.58199e-07
-1.58199e-07
-1.58199e-07
-1.58199e-07
-1.58198e-07
-1.58181e-07
-1.57475e-07
-1.32388e-07
)
;

boundaryField
{
    inandouthalf11
    {
        type            cyclic;
        value           nonuniform List<scalar> 
100
(
9.72461e-39
2.60587e-14
5.53851e-14
8.1423e-14
1.07428e-13
1.34557e-13
1.62433e-13
1.90712e-13
2.19315e-13
2.48268e-13
2.77627e-13
3.07427e-13
3.37676e-13
3.68368e-13
3.99495e-13
4.3106e-13
4.63071e-13
4.95539e-13
5.28471e-13
5.61874e-13
5.95751e-13
6.30106e-13
6.64945e-13
7.00272e-13
7.36087e-13
7.72389e-13
8.09172e-13
8.4644e-13
8.84196e-13
9.22445e-13
9.612e-13
1.00049e-12
1.04034e-12
1.08082e-12
1.12198e-12
1.16389e-12
1.2066e-12
1.25017e-12
1.29463e-12
1.33992e-12
1.38596e-12
1.43258e-12
1.47953e-12
1.52652e-12
1.57325e-12
1.61946e-12
1.66498e-12
1.70978e-12
1.75408e-12
1.79838e-12
1.84343e-12
1.89035e-12
1.94068e-12
1.99648e-12
2.06046e-12
2.13591e-12
2.22629e-12
2.33376e-12
2.45641e-12
2.58492e-12
2.70267e-12
2.79273e-12
2.84821e-12
2.87523e-12
2.88567e-12
2.88894e-12
2.88981e-12
2.89002e-12
2.89007e-12
2.89008e-12
2.89008e-12
2.89008e-12
2.89008e-12
2.89008e-12
2.89008e-12
2.89008e-12
2.89008e-12
2.89008e-12
2.89008e-12
2.89008e-12
2.89008e-12
2.89008e-12
2.89008e-12
2.89008e-12
2.89008e-12
2.89008e-12
2.89008e-12
2.89008e-12
2.89008e-12
2.89008e-12
2.89008e-12
2.89009e-12
2.89009e-12
2.89009e-12
2.89009e-12
2.89009e-12
2.89009e-12
2.89009e-12
2.89009e-12
2.89009e-12
)
;
    }
    inandouthalf12
    {
        type            cyclic;
        value           nonuniform List<scalar> 
100
(
-9.72461e-39
-2.60587e-14
-5.53851e-14
-8.1423e-14
-1.07428e-13
-1.34557e-13
-1.62433e-13
-1.90712e-13
-2.19315e-13
-2.48268e-13
-2.77627e-13
-3.07427e-13
-3.37676e-13
-3.68368e-13
-3.99495e-13
-4.3106e-13
-4.63071e-13
-4.95539e-13
-5.28471e-13
-5.61874e-13
-5.95751e-13
-6.30106e-13
-6.64945e-13
-7.00272e-13
-7.36087e-13
-7.72389e-13
-8.09172e-13
-8.4644e-13
-8.84196e-13
-9.22445e-13
-9.612e-13
-1.00049e-12
-1.04034e-12
-1.08082e-12
-1.12198e-12
-1.16389e-12
-1.2066e-12
-1.25017e-12
-1.29463e-12
-1.33992e-12
-1.38596e-12
-1.43258e-12
-1.47953e-12
-1.52652e-12
-1.57325e-12
-1.61946e-12
-1.66498e-12
-1.70978e-12
-1.75408e-12
-1.79838e-12
-1.84343e-12
-1.89035e-12
-1.94068e-12
-1.99648e-12
-2.06046e-12
-2.13591e-12
-2.22629e-12
-2.33376e-12
-2.45641e-12
-2.58492e-12
-2.70267e-12
-2.79273e-12
-2.84821e-12
-2.87523e-12
-2.88567e-12
-2.88894e-12
-2.88981e-12
-2.89002e-12
-2.89007e-12
-2.89008e-12
-2.89008e-12
-2.89008e-12
-2.89008e-12
-2.89008e-12
-2.89008e-12
-2.89008e-12
-2.89008e-12
-2.89008e-12
-2.89008e-12
-2.89008e-12
-2.89008e-12
-2.89008e-12
-2.89008e-12
-2.89008e-12
-2.89008e-12
-2.89008e-12
-2.89008e-12
-2.89008e-12
-2.89008e-12
-2.89008e-12
-2.89008e-12
-2.89009e-12
-2.89009e-12
-2.89009e-12
-2.89009e-12
-2.89009e-12
-2.89009e-12
-2.89009e-12
-2.89009e-12
-2.89009e-12
)
;
    }
    inandouthalf21
    {
        type            cyclic;
        value           nonuniform List<scalar> 
100
(
2.89009e-12
2.89009e-12
2.89009e-12
2.89009e-12
2.89009e-12
2.89009e-12
2.89009e-12
2.89009e-12
2.89009e-12
2.89009e-12
2.89009e-12
2.89009e-12
2.89009e-12
2.89009e-12
2.89009e-12
2.89009e-12
2.89009e-12
2.89009e-12
2.89009e-12
2.89009e-12
2.89009e-12
2.89009e-12
2.89009e-12
2.89009e-12
2.89009e-12
2.8901e-12
2.8901e-12
2.8901e-12
2.8901e-12
2.8901e-12
2.8901e-12
2.8901e-12
2.8901e-12
2.8901e-12
2.8901e-12
2.8901e-12
2.8901e-12
2.8901e-12
2.8901e-12
2.8901e-12
2.8901e-12
2.8901e-12
2.8901e-12
2.8901e-12
2.8901e-12
2.8901e-12
2.8901e-12
2.8901e-12
3.89141e-08
1.35033e-07
2.12406e-07
2.72559e-07
3.20813e-07
3.60529e-07
3.9391e-07
4.2248e-07
4.47326e-07
4.69239e-07
4.88804e-07
5.06458e-07
5.22532e-07
5.37282e-07
5.50908e-07
5.63566e-07
5.75385e-07
5.86466e-07
5.96893e-07
6.06736e-07
6.16052e-07
6.24891e-07
6.33292e-07
6.41292e-07
6.48919e-07
6.562e-07
6.63157e-07
6.6981e-07
6.76174e-07
6.82266e-07
6.88097e-07
6.93679e-07
6.99023e-07
7.04137e-07
7.0903e-07
7.1371e-07
7.18181e-07
7.22452e-07
7.26528e-07
7.30412e-07
7.34112e-07
7.3763e-07
7.40971e-07
7.44141e-07
7.47141e-07
7.49977e-07
7.52653e-07
7.55172e-07
7.57539e-07
7.59759e-07
7.61835e-07
7.63775e-07
)
;
    }
    inandouthalf22
    {
        type            cyclic;
        value           nonuniform List<scalar> 
100
(
-2.89009e-12
-2.89009e-12
-2.89009e-12
-2.89009e-12
-2.89009e-12
-2.89009e-12
-2.89009e-12
-2.89009e-12
-2.89009e-12
-2.89009e-12
-2.89009e-12
-2.89009e-12
-2.89009e-12
-2.89009e-12
-2.89009e-12
-2.89009e-12
-2.89009e-12
-2.89009e-12
-2.89009e-12
-2.89009e-12
-2.89009e-12
-2.89009e-12
-2.89009e-12
-2.89009e-12
-2.89009e-12
-2.8901e-12
-2.8901e-12
-2.8901e-12
-2.8901e-12
-2.8901e-12
-2.8901e-12
-2.8901e-12
-2.8901e-12
-2.8901e-12
-2.8901e-12
-2.8901e-12
-2.8901e-12
-2.8901e-12
-2.8901e-12
-2.8901e-12
-2.8901e-12
-2.8901e-12
-2.8901e-12
-2.8901e-12
-2.8901e-12
-2.8901e-12
-2.8901e-12
-2.8901e-12
-3.89141e-08
-1.35033e-07
-2.12406e-07
-2.72559e-07
-3.20813e-07
-3.60529e-07
-3.9391e-07
-4.2248e-07
-4.47326e-07
-4.69239e-07
-4.88804e-07
-5.06458e-07
-5.22532e-07
-5.37282e-07
-5.50908e-07
-5.63566e-07
-5.75385e-07
-5.86466e-07
-5.96893e-07
-6.06736e-07
-6.16052e-07
-6.24891e-07
-6.33292e-07
-6.41292e-07
-6.48919e-07
-6.562e-07
-6.63157e-07
-6.6981e-07
-6.76174e-07
-6.82266e-07
-6.88097e-07
-6.93679e-07
-6.99023e-07
-7.04137e-07
-7.0903e-07
-7.1371e-07
-7.18181e-07
-7.22452e-07
-7.26528e-07
-7.30412e-07
-7.34112e-07
-7.3763e-07
-7.40971e-07
-7.44141e-07
-7.47141e-07
-7.49977e-07
-7.52653e-07
-7.55172e-07
-7.57539e-07
-7.59759e-07
-7.61835e-07
-7.63775e-07
)
;
    }
    inandouthalf31
    {
        type            cyclic;
        value           nonuniform List<scalar> 
110
(
7.65584e-07
7.82855e-07
8.00416e-07
8.18269e-07
8.36419e-07
8.54871e-07
8.73633e-07
8.92713e-07
9.12121e-07
9.3187e-07
9.51971e-07
9.72438e-07
9.93284e-07
1.01452e-06
1.03617e-06
1.05824e-06
1.08075e-06
1.10371e-06
1.12714e-06
1.15105e-06
1.17545e-06
1.20037e-06
1.2258e-06
1.25178e-06
1.2783e-06
1.30539e-06
1.33306e-06
1.36131e-06
1.39017e-06
1.41963e-06
1.44972e-06
1.48043e-06
1.51177e-06
1.54375e-06
1.57632e-06
1.60953e-06
1.6438e-06
1.87565e-06
1.91673e-06
1.9529e-06
1.98893e-06
2.02616e-06
2.06353e-06
2.10181e-06
2.1406e-06
2.17998e-06
2.21997e-06
2.26063e-06
2.30199e-06
2.34411e-06
2.38709e-06
2.431e-06
2.47599e-06
2.52224e-06
2.57034e-06
2.6213e-06
2.67437e-06
2.72865e-06
2.78403e-06
2.84054e-06
2.89819e-06
2.95702e-06
3.01704e-06
3.07828e-06
3.14076e-06
3.2045e-06
3.26955e-06
3.33591e-06
3.40362e-06
3.4727e-06
3.54319e-06
3.61511e-06
3.68849e-06
3.76335e-06
3.83974e-06
3.91767e-06
3.99719e-06
4.07833e-06
4.1611e-06
4.24556e-06
4.33174e-06
4.41966e-06
4.50937e-06
4.6009e-06
4.69428e-06
4.78956e-06
4.88678e-06
4.98597e-06
5.08717e-06
5.19042e-06
5.29578e-06
5.40327e-06
5.51294e-06
5.62484e-06
5.73901e-06
5.85549e-06
5.97434e-06
6.09561e-06
6.21933e-06
6.34557e-06
6.47436e-06
6.60578e-06
6.73986e-06
6.87666e-06
7.01624e-06
7.15865e-06
7.30395e-06
7.4522e-06
7.60346e-06
7.75779e-06
)
;
    }
    inandouthalf32
    {
        type            cyclic;
        value           nonuniform List<scalar> 
110
(
-7.65584e-07
-7.82855e-07
-8.00416e-07
-8.18269e-07
-8.36419e-07
-8.54871e-07
-8.73633e-07
-8.92713e-07
-9.12121e-07
-9.3187e-07
-9.51971e-07
-9.72438e-07
-9.93284e-07
-1.01452e-06
-1.03617e-06
-1.05824e-06
-1.08075e-06
-1.10371e-06
-1.12714e-06
-1.15105e-06
-1.17545e-06
-1.20037e-06
-1.2258e-06
-1.25178e-06
-1.2783e-06
-1.30539e-06
-1.33306e-06
-1.36131e-06
-1.39017e-06
-1.41963e-06
-1.44972e-06
-1.48043e-06
-1.51177e-06
-1.54375e-06
-1.57632e-06
-1.60953e-06
-1.6438e-06
-1.87565e-06
-1.91673e-06
-1.9529e-06
-1.98893e-06
-2.02616e-06
-2.06353e-06
-2.10181e-06
-2.1406e-06
-2.17998e-06
-2.21997e-06
-2.26063e-06
-2.30199e-06
-2.34411e-06
-2.38709e-06
-2.431e-06
-2.47599e-06
-2.52224e-06
-2.57034e-06
-2.6213e-06
-2.67437e-06
-2.72865e-06
-2.78403e-06
-2.84054e-06
-2.89819e-06
-2.95702e-06
-3.01704e-06
-3.07828e-06
-3.14076e-06
-3.2045e-06
-3.26955e-06
-3.33591e-06
-3.40362e-06
-3.4727e-06
-3.54319e-06
-3.61511e-06
-3.68849e-06
-3.76335e-06
-3.83974e-06
-3.91767e-06
-3.99719e-06
-4.07833e-06
-4.1611e-06
-4.24556e-06
-4.33174e-06
-4.41966e-06
-4.50937e-06
-4.6009e-06
-4.69428e-06
-4.78956e-06
-4.88678e-06
-4.98597e-06
-5.08717e-06
-5.19042e-06
-5.29578e-06
-5.40327e-06
-5.51294e-06
-5.62484e-06
-5.73901e-06
-5.85549e-06
-5.97434e-06
-6.09561e-06
-6.21933e-06
-6.34557e-06
-6.47436e-06
-6.60578e-06
-6.73986e-06
-6.87666e-06
-7.01624e-06
-7.15865e-06
-7.30395e-06
-7.4522e-06
-7.60346e-06
-7.75779e-06
)
;
    }
    inandouthalf41
    {
        type            cyclic;
        value           nonuniform List<scalar> 
50
(
6.94401e-06
6.94401e-06
6.94401e-06
6.94401e-06
6.94401e-06
6.94401e-06
6.94401e-06
6.94401e-06
6.94401e-06
6.94401e-06
6.94401e-06
6.94401e-06
6.94401e-06
6.94401e-06
6.94401e-06
6.94401e-06
6.94401e-06
6.94401e-06
6.94401e-06
6.94401e-06
6.94401e-06
6.94401e-06
6.94401e-06
6.94401e-06
6.94401e-06
6.94401e-06
6.94401e-06
6.94401e-06
6.94401e-06
6.94401e-06
6.94401e-06
6.94401e-06
6.94401e-06
6.94401e-06
6.94401e-06
6.94401e-06
6.94401e-06
6.94401e-06
6.94401e-06
6.94401e-06
6.94401e-06
6.94401e-06
6.94401e-06
6.94401e-06
6.94401e-06
6.94401e-06
6.94401e-06
6.94401e-06
6.94403e-06
6.9445e-06
)
;
    }
    inandouthalf42
    {
        type            cyclic;
        value           nonuniform List<scalar> 
50
(
-6.94401e-06
-6.94401e-06
-6.94401e-06
-6.94401e-06
-6.94401e-06
-6.94401e-06
-6.94401e-06
-6.94401e-06
-6.94401e-06
-6.94401e-06
-6.94401e-06
-6.94401e-06
-6.94401e-06
-6.94401e-06
-6.94401e-06
-6.94401e-06
-6.94401e-06
-6.94401e-06
-6.94401e-06
-6.94401e-06
-6.94401e-06
-6.94401e-06
-6.94401e-06
-6.94401e-06
-6.94401e-06
-6.94401e-06
-6.94401e-06
-6.94401e-06
-6.94401e-06
-6.94401e-06
-6.94401e-06
-6.94401e-06
-6.94401e-06
-6.94401e-06
-6.94401e-06
-6.94401e-06
-6.94401e-06
-6.94401e-06
-6.94401e-06
-6.94401e-06
-6.94401e-06
-6.94401e-06
-6.94401e-06
-6.94401e-06
-6.94401e-06
-6.94401e-06
-6.94401e-06
-6.94401e-06
-6.94403e-06
-6.9445e-06
)
;
    }
    top
    {
        type            symmetryPlane;
        value           uniform 0;
    }
    walls
    {
        type            fixedValue;
        value           uniform 0;
    }
    frontAndBackPlanes
    {
        type            empty;
        value           nonuniform 0();
    }
}


// ************************************************************************* //
