/*--------------------------------*- C++ -*----------------------------------*\
| =========                 |                                                 |
| \\      /  F ield         | OpenFOAM: The Open Source CFD Toolbox           |
|  \\    /   O peration     | Version:  2.4.x                                 |
|   \\  /    A nd           | Web:      www.OpenFOAM.org                      |
|    \\/     M anipulation  |                                                 |
\*---------------------------------------------------------------------------*/
FoamFile
{
    version     2.0;
    format      ascii;
    class       surfaceScalarField;
    location    "6.1";
    object      phib_0;
}
// * * * * * * * * * * * * * * * * * * * * * * * * * * * * * * * * * * * * * //

dimensions      [0 3 -1 0 0 0 0];

internalField   nonuniform List<scalar> 
359
(
6.00628e-13
1.56769e-12
2.45117e-12
3.2779e-12
4.11839e-12
4.98067e-12
5.85321e-12
6.72971e-12
7.60909e-12
8.49302e-12
9.38302e-12
1.02794e-11
1.11821e-11
1.20905e-11
1.30044e-11
1.3924e-11
1.48492e-11
1.57804e-11
1.67172e-11
1.76601e-11
1.86086e-11
1.95629e-11
2.05228e-11
2.14884e-11
2.24593e-11
2.34353e-11
2.44161e-11
2.54018e-11
2.63922e-11
2.73873e-11
2.83874e-11
2.93933e-11
3.04054e-11
3.14258e-11
3.2455e-11
3.34948e-11
3.45459e-11
3.56092e-11
3.66846e-11
3.77692e-11
3.88605e-11
3.9953e-11
4.10397e-11
4.21145e-11
4.31702e-11
4.42019e-11
4.52077e-11
4.61893e-11
4.71549e-11
4.81186e-11
4.90997e-11
5.01265e-11
5.12359e-11
5.24773e-11
5.39106e-11
5.56058e-11
5.76186e-11
5.99537e-11
6.24981e-11
6.49865e-11
6.70774e-11
6.85271e-11
6.93356e-11
6.96922e-11
6.98149e-11
6.9845e-11
6.98459e-11
6.9839e-11
6.983e-11
6.98201e-11
6.98097e-11
6.97991e-11
6.97881e-11
6.97767e-11
6.97651e-11
6.97532e-11
6.97412e-11
6.97288e-11
6.97162e-11
6.97032e-11
6.969e-11
6.96763e-11
6.96623e-11
6.9648e-11
6.96333e-11
6.96183e-11
6.96029e-11
6.95873e-11
6.95713e-11
6.9555e-11
6.95383e-11
6.95213e-11
6.95038e-11
6.9486e-11
6.94677e-11
6.94491e-11
6.943e-11
6.94104e-11
6.93904e-11
6.937e-11
6.93491e-11
6.93276e-11
6.93057e-11
6.92832e-11
6.92602e-11
6.92366e-11
6.92124e-11
6.91876e-11
6.91622e-11
6.91361e-11
6.91093e-11
6.90817e-11
6.90534e-11
6.90243e-11
6.89944e-11
6.89636e-11
6.8932e-11
6.88993e-11
6.88657e-11
6.88311e-11
6.87953e-11
6.87585e-11
6.87204e-11
6.86811e-11
6.86406e-11
6.85986e-11
6.85551e-11
6.851e-11
6.84632e-11
6.84145e-11
6.83639e-11
6.83112e-11
6.8256e-11
6.81976e-11
6.81358e-11
6.80708e-11
6.80023e-11
6.79279e-11
6.78442e-11
6.77512e-11
6.76571e-11
6.75564e-11
6.74307e-11
6.72722e-11
6.70255e-11
6.63633e-11
6.53798e-11
1.11962e-10
4.49445e-10
4.50766e-10
4.20393e-10
3.73614e-10
3.21897e-10
2.71452e-10
2.25678e-10
1.85962e-10
1.52429e-10
1.24565e-10
1.01608e-10
8.27701e-11
6.73304e-11
5.46709e-11
4.42777e-11
3.57312e-11
2.86911e-11
2.28825e-11
1.80837e-11
1.41152e-11
1.08314e-11
8.11414e-12
5.86672e-12
4.01003e-12
2.47903e-12
1.22004e-12
1.88648e-13
-6.52053e-13
-1.33278e-12
-1.87919e-12
-2.31275e-12
-2.65146e-12
-2.91045e-12
-3.10245e-12
-3.23818e-12
-3.32669e-12
-3.37564e-12
-3.39148e-12
-3.37969e-12
-3.34489e-12
-3.29091e-12
-3.22094e-12
-3.13751e-12
-3.04255e-12
-2.9375e-12
-2.82342e-12
-2.70106e-12
-2.57097e-12
-2.43386e-12
-2.29083e-12
-2.1437e-12
-1.99476e-12
-1.84588e-12
-1.69508e-12
-1.54346e-12
-1.39193e-12
-1.24137e-12
-1.09415e-12
-9.53498e-13
-8.21922e-13
-7.01616e-13
-5.94031e-13
-4.99578e-13
-4.17979e-13
-3.48144e-13
-2.88997e-13
-2.39451e-13
-1.97977e-13
-1.63386e-13
-1.34716e-13
-1.10927e-13
-9.11504e-14
-7.47285e-14
-6.11779e-14
-4.9966e-14
-4.06651e-14
-3.30154e-14
-2.67209e-14
-2.15295e-14
-1.72678e-14
-1.37677e-14
-1.09134e-14
-8.56669e-15
-6.67724e-15
-5.15253e-15
-3.96496e-15
-2.91223e-15
-2.50568e-15
-1.42188e-15
-4.75921e-16
-4.16558e-16
-3.70025e-17
-4.73151e-18
-6.51207e-18
-6.38263e-18
-6.26884e-18
-6.12476e-18
-5.99702e-18
-5.8403e-18
-5.70058e-18
-5.5318e-18
-5.3761e-18
-5.19332e-18
-5.02343e-18
-4.8289e-18
-4.64402e-18
-4.43734e-18
-4.24075e-18
-4.02856e-18
-3.82501e-18
-3.60775e-18
-3.40079e-18
-3.18771e-18
-2.98828e-18
-2.79038e-18
-2.61453e-18
-2.45685e-18
-2.32156e-18
-2.19646e-18
-2.08433e-18
-1.98133e-18
-1.88549e-18
-1.79368e-18
-1.70668e-18
-1.63121e-18
-1.55851e-18
-1.48758e-18
-1.41482e-18
-1.34506e-18
-1.27243e-18
-1.20033e-18
-1.12796e-18
-1.0662e-18
-1.00449e-18
-9.45014e-19
-8.82441e-19
-8.2136e-19
-7.58702e-19
-6.43907e-19
-5.79292e-19
-5.15867e-19
-4.53205e-19
-3.90376e-19
-3.27445e-19
-2.65104e-19
-2.04858e-19
-1.47638e-19
-9.86487e-20
-4.2484e-21
2.006e-20
4.04748e-20
9.5943e-20
1.13543e-19
1.25324e-19
1.35835e-19
1.41255e-19
1.55144e-19
1.6135e-19
1.67719e-19
1.64986e-19
1.68998e-19
1.63206e-19
1.58121e-19
1.47418e-19
1.45406e-19
1.39483e-19
1.34182e-19
1.24182e-19
1.16354e-19
1.05897e-19
9.52714e-20
8.2192e-20
6.58882e-20
4.98724e-20
3.28093e-20
1.74907e-20
-6.98306e-21
-2.98314e-20
-6.60611e-20
-1.31479e-19
-2.86712e-19
-4.57838e-19
-6.40353e-19
-7.85054e-19
-9.7553e-19
-1.09962e-18
-1.22748e-18
-1.28011e-18
-1.47763e-18
-1.56887e-18
-1.66107e-18
-1.61017e-18
-1.67572e-18
-1.57045e-18
-1.47427e-18
-1.22948e-18
-1.28934e-18
-1.16345e-18
-1.04113e-18
-6.79214e-19
-4.52843e-19
-1.24615e-20
4.51108e-19
9.05523e-19
1.83915e-18
2.55084e-18
3.27432e-18
3.18273e-18
4.63177e-18
3.41116e-18
9.79368e-19
)
;

boundaryField
{
    inandouthalf11
    {
        type            cyclic;
        value           nonuniform List<scalar> 
100
(
-2.01228e-11
-2.00042e-11
-1.99551e-11
-1.99415e-11
-1.99236e-11
-1.98999e-11
-1.98752e-11
-1.98508e-11
-1.98261e-11
-1.98012e-11
-1.9776e-11
-1.97503e-11
-1.97242e-11
-1.96977e-11
-1.96707e-11
-1.96434e-11
-1.96157e-11
-1.95876e-11
-1.9559e-11
-1.953e-11
-1.95006e-11
-1.94707e-11
-1.94404e-11
-1.94097e-11
-1.93785e-11
-1.93469e-11
-1.93148e-11
-1.92823e-11
-1.92493e-11
-1.92159e-11
-1.9182e-11
-1.91477e-11
-1.91127e-11
-1.90773e-11
-1.90412e-11
-1.90045e-11
-1.89669e-11
-1.89286e-11
-1.88896e-11
-1.88496e-11
-1.88091e-11
-1.87679e-11
-1.87265e-11
-1.86851e-11
-1.86439e-11
-1.86033e-11
-1.85634e-11
-1.8524e-11
-1.84853e-11
-1.84468e-11
-1.84073e-11
-1.83663e-11
-1.83219e-11
-1.82723e-11
-1.82148e-11
-1.81463e-11
-1.80633e-11
-1.79639e-11
-1.78498e-11
-1.773e-11
-1.7621e-11
-1.75387e-11
-1.74901e-11
-1.74689e-11
-1.74638e-11
-1.74656e-11
-1.74699e-11
-1.7475e-11
-1.74805e-11
-1.74861e-11
-1.74921e-11
-1.74983e-11
-1.75045e-11
-1.75111e-11
-1.75178e-11
-1.75247e-11
-1.75317e-11
-1.75388e-11
-1.75461e-11
-1.75536e-11
-1.75613e-11
-1.75692e-11
-1.75773e-11
-1.75856e-11
-1.75941e-11
-1.76029e-11
-1.76118e-11
-1.7621e-11
-1.76303e-11
-1.76398e-11
-1.76495e-11
-1.76595e-11
-1.76697e-11
-1.76801e-11
-1.76908e-11
-1.77017e-11
-1.77129e-11
-1.77243e-11
-1.77361e-11
-1.77481e-11
)
;
    }
    inandouthalf12
    {
        type            cyclic;
        value           nonuniform List<scalar> 
100
(
2.01228e-11
2.00042e-11
1.99551e-11
1.99415e-11
1.99236e-11
1.98999e-11
1.98752e-11
1.98508e-11
1.98261e-11
1.98012e-11
1.9776e-11
1.97503e-11
1.97242e-11
1.96977e-11
1.96707e-11
1.96434e-11
1.96157e-11
1.95876e-11
1.9559e-11
1.953e-11
1.95006e-11
1.94707e-11
1.94404e-11
1.94097e-11
1.93785e-11
1.93469e-11
1.93148e-11
1.92823e-11
1.92493e-11
1.92159e-11
1.9182e-11
1.91477e-11
1.91127e-11
1.90773e-11
1.90412e-11
1.90045e-11
1.89669e-11
1.89286e-11
1.88896e-11
1.88496e-11
1.88091e-11
1.87679e-11
1.87265e-11
1.86851e-11
1.86439e-11
1.86033e-11
1.85634e-11
1.8524e-11
1.84853e-11
1.84468e-11
1.84073e-11
1.83663e-11
1.83219e-11
1.82723e-11
1.82148e-11
1.81463e-11
1.80633e-11
1.79639e-11
1.78498e-11
1.773e-11
1.7621e-11
1.75387e-11
1.74901e-11
1.74689e-11
1.74638e-11
1.74656e-11
1.74699e-11
1.7475e-11
1.74805e-11
1.74861e-11
1.74921e-11
1.74983e-11
1.75045e-11
1.75111e-11
1.75178e-11
1.75247e-11
1.75317e-11
1.75388e-11
1.75461e-11
1.75536e-11
1.75613e-11
1.75692e-11
1.75773e-11
1.75856e-11
1.75941e-11
1.76029e-11
1.76118e-11
1.7621e-11
1.76303e-11
1.76398e-11
1.76495e-11
1.76595e-11
1.76697e-11
1.76801e-11
1.76908e-11
1.77017e-11
1.77129e-11
1.77243e-11
1.77361e-11
1.77481e-11
)
;
    }
    inandouthalf21
    {
        type            cyclic;
        value           nonuniform List<scalar> 
100
(
-1.77604e-11
-1.7773e-11
-1.77859e-11
-1.77991e-11
-1.78127e-11
-1.78266e-11
-1.78409e-11
-1.78556e-11
-1.78706e-11
-1.78861e-11
-1.7902e-11
-1.79183e-11
-1.79351e-11
-1.79524e-11
-1.79702e-11
-1.79886e-11
-1.80075e-11
-1.80269e-11
-1.8047e-11
-1.80678e-11
-1.80892e-11
-1.81113e-11
-1.81342e-11
-1.81578e-11
-1.81823e-11
-1.82076e-11
-1.82338e-11
-1.82611e-11
-1.82894e-11
-1.8319e-11
-1.83497e-11
-1.83818e-11
-1.84153e-11
-1.84506e-11
-1.84882e-11
-1.85281e-11
-1.857e-11
-1.86145e-11
-1.86639e-11
-1.87208e-11
-1.87824e-11
-1.88412e-11
-1.89117e-11
-1.90035e-11
-1.91177e-11
-1.93275e-11
-1.98394e-11
1.34566e-10
4.40835e-08
1.4486e-07
2.20328e-07
2.78798e-07
3.25961e-07
3.64998e-07
3.97985e-07
4.26359e-07
4.51148e-07
4.73102e-07
4.92778e-07
5.10597e-07
5.26878e-07
5.41871e-07
5.55773e-07
5.68738e-07
5.80894e-07
5.92342e-07
6.03168e-07
6.13442e-07
6.23224e-07
6.32563e-07
6.41503e-07
6.5008e-07
6.58326e-07
6.66269e-07
6.73932e-07
6.81338e-07
6.88505e-07
6.9545e-07
7.02186e-07
7.08728e-07
7.15087e-07
7.21274e-07
7.27297e-07
7.33166e-07
7.38889e-07
7.44471e-07
7.4992e-07
7.55241e-07
7.6044e-07
7.6552e-07
7.70486e-07
7.75341e-07
7.8009e-07
7.84735e-07
7.89279e-07
7.93724e-07
7.98073e-07
8.02326e-07
8.06487e-07
8.10556e-07
)
;
    }
    inandouthalf22
    {
        type            cyclic;
        value           nonuniform List<scalar> 
100
(
1.77604e-11
1.7773e-11
1.77859e-11
1.77991e-11
1.78127e-11
1.78266e-11
1.78409e-11
1.78556e-11
1.78706e-11
1.78861e-11
1.7902e-11
1.79183e-11
1.79351e-11
1.79524e-11
1.79702e-11
1.79886e-11
1.80075e-11
1.80269e-11
1.8047e-11
1.80678e-11
1.80892e-11
1.81113e-11
1.81342e-11
1.81578e-11
1.81823e-11
1.82076e-11
1.82338e-11
1.82611e-11
1.82894e-11
1.8319e-11
1.83497e-11
1.83818e-11
1.84153e-11
1.84506e-11
1.84882e-11
1.85281e-11
1.857e-11
1.86145e-11
1.86639e-11
1.87208e-11
1.87824e-11
1.88412e-11
1.89117e-11
1.90035e-11
1.91177e-11
1.93275e-11
1.98394e-11
-1.34566e-10
-4.40835e-08
-1.4486e-07
-2.20328e-07
-2.78798e-07
-3.25961e-07
-3.64998e-07
-3.97985e-07
-4.26359e-07
-4.51148e-07
-4.73102e-07
-4.92778e-07
-5.10597e-07
-5.26878e-07
-5.41871e-07
-5.55773e-07
-5.68738e-07
-5.80894e-07
-5.92342e-07
-6.03168e-07
-6.13442e-07
-6.23224e-07
-6.32563e-07
-6.41503e-07
-6.5008e-07
-6.58326e-07
-6.66269e-07
-6.73932e-07
-6.81338e-07
-6.88505e-07
-6.9545e-07
-7.02186e-07
-7.08728e-07
-7.15087e-07
-7.21274e-07
-7.27297e-07
-7.33166e-07
-7.38889e-07
-7.44471e-07
-7.4992e-07
-7.55241e-07
-7.6044e-07
-7.6552e-07
-7.70486e-07
-7.75341e-07
-7.8009e-07
-7.84735e-07
-7.89279e-07
-7.93724e-07
-7.98073e-07
-8.02326e-07
-8.06487e-07
-8.10556e-07
)
;
    }
    inandouthalf31
    {
        type            cyclic;
        value           nonuniform List<scalar> 
110
(
8.14537e-07
8.35077e-07
8.56102e-07
8.77617e-07
8.99631e-07
9.22147e-07
9.45173e-07
9.68713e-07
9.92769e-07
1.01735e-06
1.04244e-06
1.06806e-06
1.09419e-06
1.12084e-06
1.14799e-06
1.17565e-06
1.20379e-06
1.2324e-06
1.26147e-06
1.29098e-06
1.32091e-06
1.35123e-06
1.38193e-06
1.41297e-06
1.44433e-06
1.476e-06
1.50796e-06
1.5402e-06
1.57272e-06
1.60552e-06
1.63861e-06
1.67199e-06
1.70569e-06
1.73971e-06
1.77408e-06
1.80881e-06
1.84392e-06
1.87943e-06
1.91535e-06
1.9517e-06
1.9885e-06
2.02577e-06
2.06353e-06
2.10181e-06
2.14063e-06
2.18003e-06
2.22004e-06
2.26069e-06
2.30205e-06
2.34416e-06
2.38709e-06
2.43095e-06
2.47586e-06
2.52202e-06
2.56975e-06
2.62028e-06
2.67328e-06
2.72753e-06
2.78289e-06
2.83938e-06
2.89701e-06
2.95581e-06
3.0158e-06
3.07702e-06
3.13947e-06
3.2032e-06
3.26821e-06
3.33455e-06
3.40223e-06
3.47129e-06
3.54174e-06
3.61363e-06
3.68698e-06
3.76181e-06
3.83817e-06
3.91607e-06
3.99556e-06
4.07666e-06
4.1594e-06
4.24383e-06
4.32997e-06
4.41785e-06
4.50753e-06
4.59902e-06
4.69236e-06
4.78761e-06
4.88478e-06
4.98393e-06
5.08509e-06
5.1883e-06
5.29361e-06
5.40106e-06
5.51069e-06
5.62254e-06
5.73666e-06
5.8531e-06
5.9719e-06
6.09312e-06
6.21679e-06
6.34297e-06
6.47172e-06
6.60308e-06
6.7371e-06
6.87385e-06
7.01337e-06
7.15572e-06
7.30096e-06
7.44915e-06
7.60035e-06
7.75462e-06
)
;
    }
    inandouthalf32
    {
        type            cyclic;
        value           nonuniform List<scalar> 
110
(
-8.14537e-07
-8.35077e-07
-8.56102e-07
-8.77617e-07
-8.99631e-07
-9.22147e-07
-9.45173e-07
-9.68713e-07
-9.92769e-07
-1.01735e-06
-1.04244e-06
-1.06806e-06
-1.09419e-06
-1.12084e-06
-1.14799e-06
-1.17565e-06
-1.20379e-06
-1.2324e-06
-1.26147e-06
-1.29098e-06
-1.32091e-06
-1.35123e-06
-1.38193e-06
-1.41297e-06
-1.44433e-06
-1.476e-06
-1.50796e-06
-1.5402e-06
-1.57272e-06
-1.60552e-06
-1.63861e-06
-1.67199e-06
-1.70569e-06
-1.73971e-06
-1.77408e-06
-1.80881e-06
-1.84392e-06
-1.87943e-06
-1.91535e-06
-1.9517e-06
-1.9885e-06
-2.02577e-06
-2.06353e-06
-2.10181e-06
-2.14063e-06
-2.18003e-06
-2.22004e-06
-2.26069e-06
-2.30205e-06
-2.34416e-06
-2.38709e-06
-2.43095e-06
-2.47586e-06
-2.52202e-06
-2.56975e-06
-2.62028e-06
-2.67328e-06
-2.72753e-06
-2.78289e-06
-2.83938e-06
-2.89701e-06
-2.95581e-06
-3.0158e-06
-3.07702e-06
-3.13947e-06
-3.2032e-06
-3.26821e-06
-3.33455e-06
-3.40223e-06
-3.47129e-06
-3.54174e-06
-3.61363e-06
-3.68698e-06
-3.76181e-06
-3.83817e-06
-3.91607e-06
-3.99556e-06
-4.07666e-06
-4.1594e-06
-4.24383e-06
-4.32997e-06
-4.41785e-06
-4.50753e-06
-4.59902e-06
-4.69236e-06
-4.78761e-06
-4.88478e-06
-4.98393e-06
-5.08509e-06
-5.1883e-06
-5.29361e-06
-5.40106e-06
-5.51069e-06
-5.62254e-06
-5.73666e-06
-5.8531e-06
-5.9719e-06
-6.09312e-06
-6.21679e-06
-6.34297e-06
-6.47172e-06
-6.60308e-06
-6.7371e-06
-6.87385e-06
-7.01337e-06
-7.15572e-06
-7.30096e-06
-7.44915e-06
-7.60035e-06
-7.75462e-06
)
;
    }
    inandouthalf41
    {
        type            cyclic;
        value           nonuniform List<scalar> 
50
(
6.94117e-06
6.94117e-06
6.94117e-06
6.94117e-06
6.94117e-06
6.94117e-06
6.94117e-06
6.94117e-06
6.94117e-06
6.94117e-06
6.94117e-06
6.94117e-06
6.94117e-06
6.94117e-06
6.94117e-06
6.94117e-06
6.94117e-06
6.94117e-06
6.94117e-06
6.94117e-06
6.94117e-06
6.94117e-06
6.94117e-06
6.94117e-06
6.94117e-06
6.94117e-06
6.94117e-06
6.94117e-06
6.94117e-06
6.94117e-06
6.94117e-06
6.94117e-06
6.94117e-06
6.94117e-06
6.94117e-06
6.94117e-06
6.94117e-06
6.94117e-06
6.94117e-06
6.94117e-06
6.94117e-06
6.94117e-06
6.94117e-06
6.94117e-06
6.94117e-06
6.94117e-06
6.94117e-06
6.94117e-06
6.94117e-06
6.94117e-06
)
;
    }
    inandouthalf42
    {
        type            cyclic;
        value           nonuniform List<scalar> 
50
(
-6.94117e-06
-6.94117e-06
-6.94117e-06
-6.94117e-06
-6.94117e-06
-6.94117e-06
-6.94117e-06
-6.94117e-06
-6.94117e-06
-6.94117e-06
-6.94117e-06
-6.94117e-06
-6.94117e-06
-6.94117e-06
-6.94117e-06
-6.94117e-06
-6.94117e-06
-6.94117e-06
-6.94117e-06
-6.94117e-06
-6.94117e-06
-6.94117e-06
-6.94117e-06
-6.94117e-06
-6.94117e-06
-6.94117e-06
-6.94117e-06
-6.94117e-06
-6.94117e-06
-6.94117e-06
-6.94117e-06
-6.94117e-06
-6.94117e-06
-6.94117e-06
-6.94117e-06
-6.94117e-06
-6.94117e-06
-6.94117e-06
-6.94117e-06
-6.94117e-06
-6.94117e-06
-6.94117e-06
-6.94117e-06
-6.94117e-06
-6.94117e-06
-6.94117e-06
-6.94117e-06
-6.94117e-06
-6.94117e-06
-6.94117e-06
)
;
    }
    top
    {
        type            symmetryPlane;
        value           uniform 0;
    }
    walls
    {
        type            fixedValue;
        value           uniform 0;
    }
    frontAndBackPlanes
    {
        type            empty;
        value           nonuniform 0();
    }
}


// ************************************************************************* //
