/*--------------------------------*- C++ -*----------------------------------*\
| =========                 |                                                 |
| \\      /  F ield         | OpenFOAM: The Open Source CFD Toolbox           |
|  \\    /   O peration     | Version:  2.4.x                                 |
|   \\  /    A nd           | Web:      www.OpenFOAM.org                      |
|    \\/     M anipulation  |                                                 |
\*---------------------------------------------------------------------------*/
FoamFile
{
    version     2.0;
    format      ascii;
    class       volVectorField;
    location    "6.1";
    object      susb;
}
// * * * * * * * * * * * * * * * * * * * * * * * * * * * * * * * * * * * * * //

dimensions      [0 1 -2 0 0 0 0];

internalField   nonuniform List<vector> 
360
(
(0 5.21203e-18 0)
(0 6.05751e-18 0)
(0 3.02066e-19 0)
(0 -8.55383e-19 0)
(-3.69156e-31 -4.7852e-19 0)
(-3.69106e-31 -2.75643e-19 0)
(-3.69057e-31 -2.93478e-19 0)
(0 -3.20653e-19 0)
(-3.68942e-31 -3.29952e-19 0)
(0 -3.39007e-19 0)
(-3.68821e-31 -3.42422e-19 0)
(0 -3.43096e-19 0)
(-7.37395e-31 -3.44415e-19 0)
(0 -3.46024e-19 0)
(0 -3.49687e-19 0)
(0 -3.53908e-19 0)
(0 -3.57074e-19 0)
(-3.68382e-31 -3.59535e-19 0)
(0 -3.63792e-19 0)
(0 -3.66196e-19 0)
(0 -3.68812e-19 0)
(-3.6812e-31 -3.73422e-19 0)
(0 -3.76308e-19 0)
(0 -3.79759e-19 0)
(0 -3.83182e-19 0)
(-3.67848e-31 -3.85571e-19 0)
(0 -3.89634e-19 0)
(0 -3.9385e-19 0)
(0 -3.9616e-19 0)
(0 -3.99081e-19 0)
(0 -4.04333e-19 0)
(0 -4.06226e-19 0)
(0 -4.11333e-19 0)
(0 -4.1667e-19 0)
(0 -4.19481e-19 0)
(3.67125e-31 -4.24601e-19 0)
(0 -4.29563e-19 0)
(0 -4.37648e-19 0)
(0 -4.39086e-19 0)
(0 -4.4427e-19 0)
(0 -4.51467e-19 0)
(0 -4.49625e-19 0)
(3.66572e-31 -4.53902e-19 0)
(0 -4.5647e-19 0)
(0 -4.54684e-19 0)
(0 -4.56589e-19 0)
(0 -4.52805e-19 0)
(0 -4.52581e-19 0)
(0 -4.61432e-19 0)
(0 -4.63395e-19 0)
(3.65918e-31 -4.69233e-19 0)
(0 -4.83068e-19 0)
(0 -5.00282e-19 0)
(0 -5.22156e-19 0)
(0 -5.55255e-19 0)
(0 -5.94492e-19 0)
(0 -6.38434e-19 0)
(0 -6.83314e-19 0)
(0 -7.03499e-19 0)
(0 -6.97967e-19 0)
(0 -6.48192e-19 0)
(0 -5.68981e-19 0)
(0 -4.93848e-19 0)
(0 -4.39087e-19 0)
(0 -4.14675e-19 0)
(0 -4.11966e-19 0)
(0 -4.21907e-19 0)
(0 -4.34402e-19 0)
(0 -4.47273e-19 0)
(0 -4.66764e-19 0)
(0 -4.88909e-19 0)
(0 -5.00579e-19 0)
(0 -5.1543e-19 0)
(0 -5.32313e-19 0)
(0 -5.45503e-19 0)
(0 -5.56525e-19 0)
(0 -5.6556e-19 0)
(0 -5.78865e-19 0)
(0 -5.92837e-19 0)
(0 -6.06192e-19 0)
(0 -6.21376e-19 0)
(0 -6.38907e-19 0)
(0 -6.55636e-19 0)
(0 -6.72246e-19 0)
(0 -6.88412e-19 0)
(0 -7.04118e-19 0)
(0 -7.19098e-19 0)
(0 -7.33378e-19 0)
(0 -7.48529e-19 0)
(0 -7.64308e-19 0)
(0 -7.80561e-19 0)
(0 -7.97999e-19 0)
(0 -8.16422e-19 0)
(0 -8.35244e-19 0)
(0 -8.54522e-19 0)
(0 -8.74169e-19 0)
(0 -8.94091e-19 0)
(0 -9.14373e-19 0)
(0 -9.35209e-19 0)
(0 -9.56685e-19 0)
(0 -9.78871e-19 0)
(0 -1.00189e-18 0)
(0 -1.02578e-18 0)
(0 -1.0505e-18 0)
(0 -1.07612e-18 0)
(0 -1.1027e-18 0)
(0 -1.1303e-18 0)
(0 -1.159e-18 0)
(0 -1.18888e-18 0)
(0 -1.22e-18 0)
(0 -1.25244e-18 0)
(0 -1.28627e-18 0)
(0 -1.32156e-18 0)
(0 -1.35837e-18 0)
(0 -1.39678e-18 0)
(0 -1.43687e-18 0)
(0 -1.47874e-18 0)
(0 -1.52248e-18 0)
(0 -1.56821e-18 0)
(0 -1.61605e-18 0)
(0 -1.66609e-18 0)
(0 -1.71842e-18 0)
(0 -1.77315e-18 0)
(0 -1.83043e-18 0)
(0 -1.89069e-18 0)
(0 -1.95474e-18 0)
(0 -2.0237e-18 0)
(0 -2.09862e-18 0)
(0 -2.17954e-18 0)
(0 -2.26505e-18 0)
(0 -2.35401e-18 0)
(0 -2.45065e-18 0)
(0 -2.81417e-18 0)
(0 -1.06837e-17 0)
(0 -5.01393e-17 0)
(0 -2.5351e-16 0)
(0 -1.39274e-15 0)
(0 -8.61214e-15 0)
(0 -6.13478e-14 0)
(0 -4.84229e-13 0)
(0 -3.97859e-12 0)
(0 -3.99333e-11 0)
(0 -5.51513e-10 0)
(0 -9.22503e-09 0)
(0 -2.31113e-07 0)
(0 -1.22769e-05 0)
(0 -0.000442665 0)
(0 -0.361838 0)
(0 -2.33196 0)
(0 -1.89924 0)
(0 -1.06256 0)
(0 -0.868682 0)
(0 -0.741421 0)
(0 -0.630895 0)
(0 -0.530774 0)
(0 -0.442643 0)
(0 -0.36758 0)
(0 -0.305131 0)
(0 -0.253879 0)
(0 -0.212076 0)
(0 -0.178017 0)
(0 -0.150213 0)
(0 -0.127425 0)
(0 -0.108658 0)
(0 -0.0931176 0)
(0 -0.0801775 0)
(0 -0.0693428 0)
(0 -0.0602224 0)
(0 -0.0525052 0)
(0 -0.0459435 0)
(0 -0.0403382 0)
(0 -0.035529 0)
(0 -0.0313858 0)
(0 -0.0278023 0)
(0 -0.0246916 0)
(0 -0.021982 0)
(0 -0.0196139 0)
(0 -0.017538 0)
(0 -0.0157129 0)
(0 -0.0141039 0)
(0 -0.0126816 0)
(0 -0.0114214 0)
(0 -0.010302 0)
(0 -0.00930565 0)
(0 -0.00841685 0)
(0 -0.00762243 0)
(0 -0.00691109 0)
(0 -0.00627316 0)
(0 -0.00570048 0)
(0 -0.00518621 0)
(0 -0.00472463 0)
(0 -0.00431079 0)
(0 -0.00394009 0)
(0 -0.00360828 0)
(0 -0.00331153 0)
(0 -0.0030458 0)
(0 -0.00280581 0)
(0 -0.0025851 0)
(0 -0.00237671 0)
(0 -0.00217705 0)
(0 -0.00199048 0)
(0 -0.00181917 0)
(-9.65489e-19 -0.00165901 0)
(0 -0.00151128 0)
(0 -0.00137441 0)
(4.57907e-19 -0.00123725 0)
(0 -0.00109683 0)
(-2.19723e-19 -0.000958412 0)
(0 -0.000823616 0)
(2.09697e-19 -0.000696246 0)
(0 -0.000580349 0)
(0 -0.000477765 0)
(0 -0.000390656 0)
(9.37197e-20 -0.000316624 0)
(0 -0.000254223 0)
(0 -0.000204147 0)
(0 -0.000163369 0)
(0 -0.000129993 0)
(0 -0.000103567 0)
(-1.89043e-20 -8.26987e-05 0)
(0 -6.59695e-05 0)
(-1.74621e-20 -5.23223e-05 0)
(0 -4.16637e-05 0)
(-8.06775e-21 -3.32939e-05 0)
(0 -2.64172e-05 0)
(0 -2.10125e-05 0)
(0 -1.67837e-05 0)
(0 -1.33659e-05 0)
(3.37025e-21 -1.06694e-05 0)
(0 -8.4577e-06 0)
(0 -6.77562e-06 0)
(0 -5.29185e-06 0)
(0 -4.16248e-06 0)
(0 -3.11168e-06 0)
(0 -2.74909e-06 0)
(0 -6.75249e-07 0)
(0 -1.89943e-09 0)
(0 -1.26111e-06 0)
(0 -9.45326e-07 0)
(0 -3.9389e-07 0)
(0 -2.34356e-07 0)
(0 -4.92262e-10 0)
(0 -4.3892e-26 0)
(-4.13188e-42 -1.07832e-26 0)
(3.81792e-42 -1.41277e-26 0)
(0 -1.38586e-26 0)
(0 -9.31993e-27 0)
(-3.54275e-43 -3.50345e-27 0)
(0 -1.16489e-27 0)
(0 -4.41539e-28 0)
(-5.57417e-44 -1.81481e-28 0)
(0 -8.10951e-29 0)
(0 -4.6305e-29 0)
(0 -3.15217e-29 0)
(0 -1.26346e-29 0)
(0 -9.59735e-31 0)
(0 -1.02866e-32 0)
(0 -8.01078e-35 0)
(0 -6.6261e-37 0)
(0 -5.97195e-39 0)
(0 -6.58941e-41 0)
(0 -6.52052e-43 0)
(0 -4.03986e-45 0)
(0 -1.35144e-47 0)
(0 -2.5438e-48 0)
(0 -1.3754e-48 0)
(1.27619e-64 -7.5718e-49 0)
(0 -3.71211e-49 0)
(0 -1.8087e-49 0)
(0 -8.93062e-50 0)
(0 -4.3417e-50 0)
(0 -2.07253e-50 0)
(0 -9.70763e-51 0)
(0 -4.45873e-51 0)
(0 -2.00676e-51 0)
(0 -8.84405e-52 0)
(0 -3.81368e-52 0)
(0 -1.60776e-52 0)
(0 -6.62071e-53 0)
(0 -2.66072e-53 0)
(0 -1.04251e-53 0)
(0 -3.97825e-54 0)
(0 -1.47691e-54 0)
(0 -5.32776e-55 0)
(0 -1.86513e-55 0)
(0 -6.32772e-56 0)
(2.54467e-72 -2.07735e-56 0)
(0 -6.5886e-57 0)
(0 -2.01528e-57 0)
(0 -5.93336e-58 0)
(0 -1.67795e-58 0)
(0 -4.54737e-59 0)
(0 -1.17797e-59 0)
(0 -2.90849e-60 0)
(0 -6.82297e-61 0)
(0 -1.51528e-61 0)
(3.97003e-78 -3.17295e-62 0)
(0 -6.23526e-63 0)
(0 -1.14375e-63 0)
(-1.46007e-80 -1.94605e-64 0)
(0 -3.04846e-65 0)
(0 -4.35718e-66 0)
(0 -5.61991e-67 0)
(0 -6.45083e-68 0)
(0 -6.47198e-69 0)
(0 -5.53899e-70 0)
(0 -3.90613e-71 0)
(0 -2.15164e-72 0)
(0 -8.4305e-74 0)
(0 -1.90742e-75 0)
(0 -9.65155e-78 0)
(0 -1.57364e-81 0)
(0 -1.71675e-83 0)
(0 -9.29345e-86 0)
(0 -2.96809e-96 0)
(0 -4.69052e-107 0)
(0 -5.14982e-118 0)
(0 -4.13799e-129 0)
(0 -2.72232e-140 0)
(0 -1.42305e-151 0)
(0 -6.27017e-163 0)
(0 -1.05561e-172 0)
(0 -4.08238e-183 0)
(0 -3.58356e-191 0)
(0 -1.23804e-201 0)
(0 -1.23266e-209 0)
(0 -4.94007e-220 0)
(0 -4.24072e-228 0)
(0 -2.08351e-238 0)
(0 -1.46018e-246 0)
(0 -1.31723e-256 0)
(0 -5.08978e-265 0)
(0 -8.57464e-275 0)
(0 -1.80623e-283 0)
(0 -4.23796e-293 0)
(0 -6.51961e-302 0)
(0 -2.00393e-311 0)
(0 -2.38881e-320 0)
(0 -0 0)
(0 0 0)
(0 0 0)
(0 0 0)
(0 0 0)
(0 0 0)
(0 0 0)
(0 0 0)
(0 0 0)
(0 0 0)
(0 0 0)
(0 0 0)
(0 0 0)
(0 0 0)
(0 0 0)
(0 0 0)
(0 0 0)
(0 0 0)
(0 0 0)
(0 0 0)
(0 0 0)
(0 0 0)
)
;

boundaryField
{
    inandouthalf11
    {
        type            cyclic;
    }
    inandouthalf12
    {
        type            cyclic;
    }
    inandouthalf21
    {
        type            cyclic;
    }
    inandouthalf22
    {
        type            cyclic;
    }
    inandouthalf31
    {
        type            cyclic;
    }
    inandouthalf32
    {
        type            cyclic;
    }
    inandouthalf41
    {
        type            cyclic;
    }
    inandouthalf42
    {
        type            cyclic;
    }
    top
    {
        type            symmetryPlane;
    }
    walls
    {
        type            zeroGradient;
    }
    frontAndBackPlanes
    {
        type            empty;
    }
}


// ************************************************************************* //
