/*--------------------------------*- C++ -*----------------------------------*\
| =========                 |                                                 |
| \\      /  F ield         | OpenFOAM: The Open Source CFD Toolbox           |
|  \\    /   O peration     | Version:  2.4.x                                 |
|   \\  /    A nd           | Web:      www.OpenFOAM.org                      |
|    \\/     M anipulation  |                                                 |
\*---------------------------------------------------------------------------*/
FoamFile
{
    version     2.0;
    format      ascii;
    class       volTensorField;
    location    "6.1";
    object      Tauf;
}
// * * * * * * * * * * * * * * * * * * * * * * * * * * * * * * * * * * * * * //

dimensions      [0 2 -2 0 0 0 0];

internalField   nonuniform List<tensor> 
360
(
(0 4.01599e-08 0 4.01599e-08 6.83418e-10 0 0 0 0)
(0 -1.67866e-10 0 -1.67866e-10 8.58421e-10 0 0 0 0)
(0 -6.27354e-11 0 -6.27354e-11 8.94792e-10 0 0 0 0)
(0 -3.14244e-11 0 -3.14244e-11 8.44513e-10 0 0 0 0)
(-6.46235e-24 -4.15753e-11 0 -4.15753e-11 8.42365e-10 0 0 0 0)
(-3.23117e-24 -4.83465e-11 0 -4.83465e-11 8.59214e-10 0 0 0 0)
(-3.23117e-24 -4.9068e-11 0 -4.9068e-11 8.70881e-10 0 0 0 0)
(0 -4.91371e-11 0 -4.91371e-11 8.76164e-10 0 0 0 0)
(-3.23117e-24 -4.95838e-11 0 -4.95838e-11 8.79717e-10 0 0 0 0)
(0 -5.01181e-11 0 -5.01181e-11 8.84237e-10 0 0 0 0)
(-3.23117e-24 -5.08798e-11 0 -5.08798e-11 8.90007e-10 0 0 0 0)
(0 -5.17524e-11 0 -5.17524e-11 8.96284e-10 0 0 0 0)
(-3.23117e-24 -5.26102e-11 0 -5.26102e-11 9.02455e-10 0 0 0 0)
(0 -5.34461e-11 0 -5.34461e-11 9.08273e-10 0 0 0 0)
(0 -5.42272e-11 0 -5.42272e-11 9.13869e-10 0 0 0 0)
(0 -5.50071e-11 0 -5.50071e-11 9.19491e-10 0 0 0 0)
(0 -5.58316e-11 0 -5.58316e-11 9.25228e-10 0 0 0 0)
(-6.46235e-24 -5.66896e-11 0 -5.66896e-11 9.31017e-10 0 0 0 0)
(0 -5.75185e-11 0 -5.75185e-11 9.36869e-10 0 0 0 0)
(0 -5.84028e-11 0 -5.84028e-11 9.42703e-10 0 0 0 0)
(0 -5.92884e-11 0 -5.92884e-11 9.4844e-10 0 0 0 0)
(-3.23117e-24 -6.01354e-11 0 -6.01354e-11 9.54166e-10 0 0 0 0)
(0 -6.10344e-11 0 -6.10344e-11 9.59842e-10 0 0 0 0)
(0 -6.19236e-11 0 -6.19236e-11 9.6539e-10 0 0 0 0)
(0 -6.28114e-11 0 -6.28114e-11 9.70755e-10 0 0 0 0)
(-6.46235e-24 -6.37184e-11 0 -6.37184e-11 9.7585e-10 0 0 0 0)
(0 -6.4583e-11 0 -6.4583e-11 9.8075e-10 0 0 0 0)
(0 -6.54502e-11 0 -6.54502e-11 9.85573e-10 0 0 0 0)
(0 -6.63719e-11 0 -6.63719e-11 9.90318e-10 0 0 0 0)
(0 -6.72951e-11 0 -6.72951e-11 9.95078e-10 0 0 0 0)
(0 -6.82013e-11 0 -6.82013e-11 1.00022e-09 0 0 0 0)
(0 -6.92523e-11 0 -6.92523e-11 1.00592e-09 0 0 0 0)
(0 -7.03143e-11 0 -7.03143e-11 1.01255e-09 0 0 0 0)
(0 -7.14872e-11 0 -7.14872e-11 1.02042e-09 0 0 0 0)
(0 -7.28451e-11 0 -7.28451e-11 1.02953e-09 0 0 0 0)
(3.23117e-24 -7.42685e-11 0 -7.42685e-11 1.03988e-09 0 0 0 0)
(0 -7.5809e-11 0 -7.5809e-11 1.05123e-09 0 0 0 0)
(0 -7.73479e-11 0 -7.73479e-11 1.06322e-09 0 0 0 0)
(0 -7.90312e-11 0 -7.90312e-11 1.07453e-09 0 0 0 0)
(0 -8.04856e-11 0 -8.04856e-11 1.08385e-09 0 0 0 0)
(0 -8.16273e-11 0 -8.16273e-11 1.08989e-09 0 0 0 0)
(0 -8.25729e-11 0 -8.25729e-11 1.09066e-09 0 0 0 0)
(3.23117e-24 -8.28314e-11 0 -8.28314e-11 1.08516e-09 0 0 0 0)
(0 -8.25479e-11 0 -8.25479e-11 1.07301e-09 0 0 0 0)
(0 -8.18059e-11 0 -8.18059e-11 1.05444e-09 0 0 0 0)
(0 -8.05337e-11 0 -8.05337e-11 1.03128e-09 0 0 0 0)
(0 -7.92118e-11 0 -7.92118e-11 1.00624e-09 0 0 0 0)
(0 -7.80002e-11 0 -7.80002e-11 9.8358e-10 0 0 0 0)
(0 -7.72745e-11 0 -7.72745e-11 9.69109e-10 0 0 0 0)
(0 -7.79792e-11 0 -7.79792e-11 9.68377e-10 0 0 0 0)
(3.23117e-24 -8.04653e-11 0 -8.04653e-11 9.87901e-10 0 0 0 0)
(0 -8.54077e-11 0 -8.54077e-11 1.03567e-09 0 0 0 0)
(0 -9.38857e-11 0 -9.38857e-11 1.12122e-09 0 0 0 0)
(0 -1.07023e-10 0 -1.07023e-10 1.25554e-09 0 0 0 0)
(0 -1.25889e-10 0 -1.25889e-10 1.44973e-09 0 0 0 0)
(0 -1.51356e-10 0 -1.51356e-10 1.70779e-09 0 0 0 0)
(0 -1.82301e-10 0 -1.82301e-10 2.01264e-09 0 0 0 0)
(0 -2.13416e-10 0 -2.13416e-10 2.30611e-09 0 0 0 0)
(0 -2.33835e-10 0 -2.33835e-10 2.47821e-09 0 0 0 0)
(0 -2.28896e-10 0 -2.28896e-10 2.40468e-09 0 0 0 0)
(0 -1.91498e-10 0 -1.91498e-10 2.03268e-09 0 0 0 0)
(0 -1.31111e-10 0 -1.31111e-10 1.45226e-09 0 0 0 0)
(0 -6.99966e-11 0 -6.99966e-11 8.57571e-10 0 0 0 0)
(0 -2.64173e-11 0 -2.64173e-11 4.11937e-10 0 0 0 0)
(0 -3.34391e-12 0 -3.34391e-12 1.58341e-10 0 0 0 0)
(0 6.11857e-12 0 6.11857e-12 4.60388e-11 0 0 0 0)
(0 9.41561e-12 0 9.41561e-12 6.29677e-12 0 0 0 0)
(0 1.05466e-11 0 1.05466e-11 -5.48242e-12 0 0 0 0)
(0 1.10671e-11 0 1.10671e-11 -8.76374e-12 0 0 0 0)
(0 1.16023e-11 0 1.16023e-11 -9.78965e-12 0 0 0 0)
(0 1.21698e-11 0 1.21698e-11 -1.02066e-11 0 0 0 0)
(0 1.24698e-11 0 1.24698e-11 -1.07113e-11 0 0 0 0)
(0 1.28473e-11 0 1.28473e-11 -1.10205e-11 0 0 0 0)
(0 1.32755e-11 0 1.32755e-11 -1.12928e-11 0 0 0 0)
(0 1.36122e-11 0 1.36122e-11 -1.16004e-11 0 0 0 0)
(0 1.38952e-11 0 1.38952e-11 -1.18397e-11 0 0 0 0)
(0 1.41292e-11 0 1.41292e-11 -1.21333e-11 0 0 0 0)
(0 1.44701e-11 0 1.44701e-11 -1.23605e-11 0 0 0 0)
(0 1.48283e-11 0 1.48283e-11 -1.26389e-11 0 0 0 0)
(0 1.51718e-11 0 1.51718e-11 -1.29638e-11 0 0 0 0)
(0 1.55617e-11 0 1.55617e-11 -1.32969e-11 0 0 0 0)
(0 1.60111e-11 0 1.60111e-11 -1.36215e-11 0 0 0 0)
(0 1.64414e-11 0 1.64414e-11 -1.39902e-11 0 0 0 0)
(0 1.68695e-11 0 1.68695e-11 -1.43404e-11 0 0 0 0)
(0 1.72873e-11 0 1.72873e-11 -1.4686e-11 0 0 0 0)
(0 1.76945e-11 0 1.76945e-11 -1.50179e-11 0 0 0 0)
(0 1.80842e-11 0 1.80842e-11 -1.53391e-11 0 0 0 0)
(0 1.84573e-11 0 1.84573e-11 -1.56701e-11 0 0 0 0)
(0 1.88531e-11 0 1.88531e-11 -1.59908e-11 0 0 0 0)
(0 1.92656e-11 0 1.92656e-11 -1.63265e-11 0 0 0 0)
(0 1.96911e-11 0 1.96911e-11 -1.66863e-11 0 0 0 0)
(0 2.01475e-11 0 2.01475e-11 -1.7057e-11 0 0 0 0)
(0 2.063e-11 0 2.063e-11 -1.74427e-11 0 0 0 0)
(0 2.11237e-11 0 2.11237e-11 -1.78475e-11 0 0 0 0)
(0 2.16303e-11 0 2.16303e-11 -1.82598e-11 0 0 0 0)
(0 2.21476e-11 0 2.21476e-11 -1.868e-11 0 0 0 0)
(0 2.26732e-11 0 2.26732e-11 -1.91091e-11 0 0 0 0)
(0 2.32094e-11 0 2.32094e-11 -1.95479e-11 0 0 0 0)
(0 2.37612e-11 0 2.37612e-11 -1.99969e-11 0 0 0 0)
(0 2.43309e-11 0 2.43309e-11 -2.04595e-11 0 0 0 0)
(0 2.49203e-11 0 2.49203e-11 -2.09384e-11 0 0 0 0)
(0 2.55329e-11 0 2.55329e-11 -2.14336e-11 0 0 0 0)
(0 2.61692e-11 0 2.61692e-11 -2.19468e-11 0 0 0 0)
(0 2.68291e-11 0 2.68291e-11 -2.24794e-11 0 0 0 0)
(0 2.75142e-11 0 2.75142e-11 -2.30314e-11 0 0 0 0)
(0 2.8226e-11 0 2.8226e-11 -2.36041e-11 0 0 0 0)
(0 2.89662e-11 0 2.89662e-11 -2.41993e-11 0 0 0 0)
(0 2.97373e-11 0 2.97373e-11 -2.48181e-11 0 0 0 0)
(0 3.05415e-11 0 3.05415e-11 -2.54623e-11 0 0 0 0)
(0 3.13807e-11 0 3.13807e-11 -2.61335e-11 0 0 0 0)
(0 3.22571e-11 0 3.22571e-11 -2.68331e-11 0 0 0 0)
(0 3.31726e-11 0 3.31726e-11 -2.75628e-11 0 0 0 0)
(0 3.41292e-11 0 3.41292e-11 -2.8324e-11 0 0 0 0)
(0 3.51293e-11 0 3.51293e-11 -2.91183e-11 0 0 0 0)
(0 3.6175e-11 0 3.6175e-11 -2.99475e-11 0 0 0 0)
(0 3.7269e-11 0 3.7269e-11 -3.08132e-11 0 0 0 0)
(0 3.84138e-11 0 3.84138e-11 -3.17176e-11 0 0 0 0)
(0 3.96128e-11 0 3.96128e-11 -3.26629e-11 0 0 0 0)
(0 4.08692e-11 0 4.08692e-11 -3.36513e-11 0 0 0 0)
(0 4.21867e-11 0 4.21867e-11 -3.46853e-11 0 0 0 0)
(0 4.35685e-11 0 4.35685e-11 -3.57669e-11 0 0 0 0)
(0 4.50176e-11 0 4.50176e-11 -3.68984e-11 0 0 0 0)
(0 4.6537e-11 0 4.6537e-11 -3.80833e-11 0 0 0 0)
(0 4.81322e-11 0 4.81322e-11 -3.93278e-11 0 0 0 0)
(0 4.98149e-11 0 4.98149e-11 -4.06432e-11 0 0 0 0)
(0 5.16075e-11 0 5.16075e-11 -4.20461e-11 0 0 0 0)
(0 5.35411e-11 0 5.35411e-11 -4.3554e-11 0 0 0 0)
(0 5.56449e-11 0 5.56449e-11 -4.51753e-11 0 0 0 0)
(0 5.79222e-11 0 5.79222e-11 -4.69032e-11 0 0 0 0)
(0 6.03374e-11 0 6.03374e-11 -4.87356e-11 0 0 0 0)
(0 6.28617e-11 0 6.28617e-11 -5.07302e-11 0 0 0 0)
(0 6.56106e-11 0 6.56106e-11 -5.30232e-11 0 0 0 0)
(0 6.89202e-11 0 6.89202e-11 -5.56853e-11 0 0 0 0)
(0 7.30231e-11 0 7.30231e-11 -5.85803e-11 0 0 0 0)
(0 7.75152e-11 0 7.75152e-11 -6.16363e-11 0 0 0 0)
(0 8.17792e-11 0 8.17792e-11 -6.52422e-11 0 0 0 0)
(0 8.64721e-11 0 8.64721e-11 -7.02275e-11 0 0 0 0)
(0 9.40727e-11 0 9.40727e-11 -7.70482e-11 0 0 0 0)
(0 1.06382e-10 0 1.06382e-10 -8.35697e-11 0 0 0 0)
(0 1.18511e-10 0 1.18511e-10 -8.69419e-11 0 0 0 0)
(0 1.20507e-10 0 1.20507e-10 -9.81156e-11 0 0 0 0)
(0 1.29446e-10 0 1.29446e-10 -1.14432e-10 0 0 0 0)
(0 1.62422e-10 0 1.62422e-10 -1.31344e-10 0 0 0 0)
(0 2.06215e-10 0 2.06215e-10 -1.98666e-10 0 0 0 0)
(0 3.24286e-10 0 3.24286e-10 -4.89302e-10 0 0 0 0)
(0 7.22728e-10 0 7.22728e-10 1.10256e-10 0 0 0 0)
(0 -1.5516e-07 0 -1.5516e-07 -1.18489e-08 0 0 0 0)
(0 -5.43931e-05 0 -5.43931e-05 1.00248e-07 0 0 0 0)
(0 -0.00066782 0 -0.00066782 1.18431e-06 0 0 0 0)
(0 -0.00226613 0 -0.00226613 1.28276e-06 0 0 0 0)
(0 -0.00271549 0 -0.00271549 -1.56608e-06 0 0 0 0)
(0 -0.00285933 0 -0.00285933 -1.05631e-06 0 0 0 0)
(0 -0.00290809 0 -0.00290809 -1.75236e-06 0 0 0 0)
(0 -0.00291525 0 -0.00291525 -2.08671e-06 0 0 0 0)
(0 -0.00290569 0 -0.00290569 -2.19938e-06 0 0 0 0)
(0 -0.00288993 0 -0.00288993 -2.17764e-06 0 0 0 0)
(0 -0.00287211 0 -0.00287211 -2.07231e-06 0 0 0 0)
(0 -0.00285362 0 -0.00285362 -1.91799e-06 0 0 0 0)
(0 -0.00283477 0 -0.00283477 -1.7409e-06 0 0 0 0)
(0 -0.00281548 0 -0.00281548 -1.5588e-06 0 0 0 0)
(0 -0.00279559 0 -0.00279559 -1.38235e-06 0 0 0 0)
(0 -0.00277493 0 -0.00277493 -1.21726e-06 0 0 0 0)
(0 -0.00275339 0 -0.00275339 -1.06615e-06 0 0 0 0)
(0 -0.00273091 0 -0.00273091 -9.2984e-07 0 0 0 0)
(0 -0.00270744 0 -0.00270744 -8.08079e-07 0 0 0 0)
(0 -0.00268296 0 -0.00268296 -7.0007e-07 0 0 0 0)
(0 -0.00265749 0 -0.00265749 -6.04736e-07 0 0 0 0)
(0 -0.00263104 0 -0.00263104 -5.20897e-07 0 0 0 0)
(0 -0.00260363 0 -0.00260363 -4.47371e-07 0 0 0 0)
(0 -0.00257529 0 -0.00257529 -3.83032e-07 0 0 0 0)
(0 -0.00254606 0 -0.00254606 -3.26834e-07 0 0 0 0)
(0 -0.00251597 0 -0.00251597 -2.77823e-07 0 0 0 0)
(0 -0.00248504 0 -0.00248504 -2.35141e-07 0 0 0 0)
(0 -0.00245331 0 -0.00245331 -1.98021e-07 0 0 0 0)
(0 -0.00242082 0 -0.00242082 -1.65785e-07 0 0 0 0)
(0 -0.00238759 0 -0.00238759 -1.37829e-07 0 0 0 0)
(0 -0.00235365 0 -0.00235365 -1.13621e-07 0 0 0 0)
(0 -0.00231903 0 -0.00231903 -9.26933e-08 0 0 0 0)
(0 -0.00228375 0 -0.00228375 -7.46325e-08 0 0 0 0)
(0 -0.00224785 0 -0.00224785 -5.90759e-08 0 0 0 0)
(0 -0.00221135 0 -0.00221135 -4.57041e-08 0 0 0 0)
(0 -0.00217427 0 -0.00217427 -3.42369e-08 0 0 0 0)
(0 -0.00213664 0 -0.00213664 -2.44285e-08 0 0 0 0)
(0 -0.00209847 0 -0.00209847 -1.60637e-08 0 0 0 0)
(0 -0.0020598 0 -0.0020598 -8.95443e-09 0 0 0 0)
(0 -0.00202064 0 -0.00202064 -2.93594e-09 0 0 0 0)
(0 -0.00198102 0 -0.00198102 2.13675e-09 0 0 0 0)
(0 -0.00194095 0 -0.00194095 6.39327e-09 0 0 0 0)
(0 -0.00190047 0 -0.00190047 9.95256e-09 0 0 0 0)
(0 -0.00185958 0 -0.00185958 1.29272e-08 0 0 0 0)
(0 -0.00181832 0 -0.00181832 1.5425e-08 0 0 0 0)
(0 -0.00177671 0 -0.00177671 1.75467e-08 0 0 0 0)
(0 -0.00173476 0 -0.00173476 1.93799e-08 0 0 0 0)
(0 -0.0016925 0 -0.0016925 2.09964e-08 0 0 0 0)
(0 -0.00164996 0 -0.00164996 2.24503e-08 0 0 0 0)
(0 -0.00160715 0 -0.00160715 2.37667e-08 0 0 0 0)
(0 -0.0015641 0 -0.0015641 2.49201e-08 0 0 0 0)
(0 -0.00152084 0 -0.00152084 2.5826e-08 0 0 0 0)
(0 -0.00147738 0 -0.00147738 2.63741e-08 0 0 0 0)
(0 -0.00143377 0 -0.00143377 2.6514e-08 0 0 0 0)
(0 -0.00139002 0 -0.00139002 2.63103e-08 0 0 0 0)
(0 -0.00134573 0 -0.00134573 2.58665e-08 0 0 0 0)
(3.5256e-17 -0.00130047 0 -0.00130047 2.52436e-08 0 0 0 0)
(0 -0.00125426 0 -0.00125426 2.44703e-08 0 0 0 0)
(0 -0.00120712 0 -0.00120712 2.35025e-08 0 0 0 0)
(-3.20013e-17 -0.00115906 0 -0.00115906 2.22122e-08 0 0 0 0)
(0 -0.00111013 0 -0.00111013 2.05334e-08 0 0 0 0)
(2.98364e-17 -0.00106037 0 -0.00106037 1.85345e-08 0 0 0 0)
(0 -0.00100984 0 -0.00100984 1.63372e-08 0 0 0 0)
(-2.76889e-17 -0.000958604 0 -0.000958604 1.40747e-08 0 0 0 0)
(0 -0.000906756 0 -0.000906756 1.18822e-08 0 0 0 0)
(0 -0.000854396 0 -0.000854396 9.86802e-09 0 0 0 0)
(0 -0.000801643 0 -0.000801643 8.09262e-09 0 0 0 0)
(-2.35084e-17 -0.000748634 0 -0.000748634 6.56384e-09 0 0 0 0)
(0 -0.000695527 0 -0.000695527 5.27386e-09 0 0 0 0)
(0 -0.000642501 0 -0.000642501 4.21441e-09 0 0 0 0)
(0 -0.000589755 0 -0.000589755 3.35487e-09 0 0 0 0)
(0 -0.000537512 0 -0.000537512 2.65938e-09 0 0 0 0)
(0 -0.000486016 0 -0.000486016 2.10503e-09 0 0 0 0)
(0 -0.00043553 0 -0.00043553 1.66791e-09 0 0 0 0)
(0 -0.000386331 0 -0.000386331 1.32047e-09 0 0 0 0)
(1.62799e-17 -0.000338708 0 -0.000338708 1.04294e-09 0 0 0 0)
(0 -0.000292946 0 -0.000292946 8.24233e-10 0 0 0 0)
(1.48904e-17 -0.000249322 0 -0.000249322 6.52579e-10 0 0 0 0)
(0 -0.000208083 0 -0.000208083 5.1606e-10 0 0 0 0)
(0 -0.00016944 0 -0.00016944 4.08031e-10 0 0 0 0)
(0 -0.000133553 0 -0.000133553 3.23422e-10 0 0 0 0)
(0 -0.000100522 0 -0.000100522 2.56639e-10 0 0 0 0)
(-1.23288e-17 -7.0387e-05 0 -7.0387e-05 2.03522e-10 0 0 0 0)
(0 -4.31334e-05 0 -4.31334e-05 1.61345e-10 0 0 0 0)
(0 -1.87e-05 0 -1.87e-05 1.27691e-10 0 0 0 0)
(0 3.00754e-06 0 3.00754e-06 1.00304e-10 0 0 0 0)
(0 2.21039e-05 0 2.21039e-05 7.8153e-11 0 0 0 0)
(0 3.87129e-05 0 3.87129e-05 6.15073e-11 0 0 0 0)
(0 5.29597e-05 0 5.29597e-05 4.20707e-11 0 0 0 0)
(0 6.49657e-05 0 6.49657e-05 3.08155e-11 0 0 0 0)
(0 7.4844e-05 0 7.4844e-05 4.25226e-11 0 0 0 0)
(0 8.27055e-05 0 8.27055e-05 3.50427e-11 0 0 0 0)
(0 8.8653e-05 0 8.8653e-05 1.10166e-11 0 0 0 0)
(0 9.27791e-05 0 9.27791e-05 8.0371e-12 0 0 0 0)
(0 9.51762e-05 0 9.51762e-05 4.66228e-12 0 0 0 0)
(0 9.59339e-05 0 9.59339e-05 -1.05361e-12 0 0 0 0)
(0 9.51398e-05 0 9.51398e-05 -1.13875e-13 0 0 0 0)
(1.26739e-17 9.288e-05 0 9.288e-05 3.61961e-14 0 0 0 0)
(-1.17208e-17 8.92406e-05 0 8.92406e-05 2.68255e-14 0 0 0 0)
(0 8.43094e-05 0 8.43094e-05 4.07707e-13 0 0 0 0)
(0 7.81781e-05 0 7.81781e-05 -1.32733e-12 0 0 0 0)
(8.73546e-18 7.09461e-05 0 7.09461e-05 2.46543e-12 0 0 0 0)
(0 6.27259e-05 0 6.27259e-05 -3.54827e-12 0 0 0 0)
(0 5.36515e-05 0 5.36515e-05 4.39671e-12 0 0 0 0)
(0 4.38911e-05 0 4.38911e-05 -4.8342e-12 0 0 0 0)
(0 3.36652e-05 0 3.36652e-05 4.7792e-12 0 0 0 0)
(0 2.32775e-05 0 2.32775e-05 -4.17399e-12 0 0 0 0)
(0 1.32484e-05 0 1.32484e-05 3.06119e-12 0 0 0 0)
(0 4.02983e-06 0 4.02983e-06 -1.50519e-12 0 0 0 0)
(0 3.56283e-07 0 3.56283e-07 3.90794e-13 0 0 0 0)
(0 2.13615e-08 0 2.13615e-08 -2.23975e-13 0 0 0 0)
(0 6.81574e-10 0 6.81574e-10 2.16446e-13 0 0 0 0)
(0 1.10001e-10 0 1.10001e-10 -2.13016e-13 0 0 0 0)
(0 7.7259e-11 0 7.7259e-11 2.10007e-13 0 0 0 0)
(0 5.91276e-11 0 5.91276e-11 -2.06861e-13 0 0 0 0)
(0 4.51236e-11 0 4.51236e-11 2.04078e-13 0 0 0 0)
(0 3.42587e-11 0 3.42587e-11 -2.01165e-13 0 0 0 0)
(0 2.58683e-11 0 2.58683e-11 1.98569e-13 0 0 0 0)
(0 1.94228e-11 0 1.94228e-11 -1.95857e-13 0 0 0 0)
(0 1.44988e-11 0 1.44988e-11 1.93389e-13 0 0 0 0)
(-1.12435e-19 1.07592e-11 0 1.07592e-11 -1.90828e-13 0 0 0 0)
(0 7.93623e-12 0 7.93623e-12 1.88446e-13 0 0 0 0)
(0 5.81758e-12 0 5.81758e-12 -1.85982e-13 0 0 0 0)
(0 4.23781e-12 0 4.23781e-12 1.83649e-13 0 0 0 0)
(0 3.06734e-12 0 3.06734e-12 -1.81239e-13 0 0 0 0)
(0 2.20561e-12 0 2.20561e-12 1.78931e-13 0 0 0 0)
(0 1.5752e-12 0 1.5752e-12 -1.76546e-13 0 0 0 0)
(0 1.11748e-12 0 1.11748e-12 1.74237e-13 0 0 0 0)
(0 7.87552e-13 0 7.87552e-13 -1.71857e-13 0 0 0 0)
(0 5.50746e-13 0 5.50746e-13 1.69535e-13 0 0 0 0)
(0 3.82213e-13 0 3.82213e-13 -1.67141e-13 0 0 0 0)
(0 2.6346e-13 0 2.6346e-13 1.64796e-13 0 0 0 0)
(0 1.80352e-13 0 1.80352e-13 -1.62376e-13 0 0 0 0)
(0 1.22533e-13 0 1.22533e-13 1.6e-13 0 0 0 0)
(0 8.25428e-14 0 8.25428e-14 -1.57552e-13 0 0 0 0)
(0 5.50228e-14 0 5.50228e-14 1.55138e-13 0 0 0 0)
(0 3.65664e-14 0 3.65664e-14 -1.52658e-13 0 0 0 0)
(0 2.39944e-14 0 2.39944e-14 1.50207e-13 0 0 0 0)
(0 1.56134e-14 0 1.56134e-14 -1.47691e-13 0 0 0 0)
(0 1.0184e-14 0 1.0184e-14 1.45203e-13 0 0 0 0)
(0 6.45082e-15 0 6.45082e-15 -1.42639e-13 0 0 0 0)
(0 4.08237e-15 0 4.08237e-15 1.40122e-13 0 0 0 0)
(0 2.53809e-15 0 2.53809e-15 -1.37535e-13 0 0 0 0)
(0 1.52894e-15 0 1.52894e-15 1.34975e-13 0 0 0 0)
(0 1.01247e-15 0 1.01247e-15 -1.32356e-13 0 0 0 0)
(0 6.69808e-16 0 6.69808e-16 1.29762e-13 0 0 0 0)
(0 3.73418e-16 0 3.73418e-16 -1.27112e-13 0 0 0 0)
(0 1.81296e-16 0 1.81296e-16 1.24487e-13 0 0 0 0)
(0 1.49056e-16 0 1.49056e-16 -1.2181e-13 0 0 0 0)
(0 1.30302e-16 0 1.30302e-16 1.19155e-13 0 0 0 0)
(-1.23064e-19 -3.42733e-17 0 -3.42733e-17 -1.16447e-13 0 0 0 0)
(0 -4.79749e-17 0 -4.79749e-17 1.13767e-13 0 0 0 0)
(0 9.75284e-18 0 9.75284e-18 -1.11053e-13 0 0 0 0)
(1.15864e-19 5.14149e-17 0 5.14149e-17 1.08344e-13 0 0 0 0)
(0 6.84196e-17 0 6.84196e-17 -1.05601e-13 0 0 0 0)
(0 2.29557e-17 0 2.29557e-17 1.0286e-13 0 0 0 0)
(0 -4.22709e-17 0 -4.22709e-17 -1.00097e-13 0 0 0 0)
(0 -3.8276e-17 0 -3.8276e-17 9.73284e-14 0 0 0 0)
(0 7.38764e-18 0 7.38764e-18 -9.45403e-14 0 0 0 0)
(0 6.74769e-17 0 6.74769e-17 9.1746e-14 0 0 0 0)
(0 -1.39919e-17 0 -1.39919e-17 -8.89315e-14 0 0 0 0)
(0 -2.62186e-17 0 -2.62186e-17 8.6108e-14 0 0 0 0)
(0 3.61402e-17 0 3.61402e-17 -8.32655e-14 0 0 0 0)
(0 -7.11979e-17 0 -7.11979e-17 8.04575e-14 0 0 0 0)
(0 -8.57356e-17 0 -8.57356e-17 -8.87311e-14 0 0 0 0)
(0 -2.12023e-17 0 -2.12023e-17 8.7755e-14 0 0 0 0)
(0 3.39607e-17 0 3.39607e-17 -8.68124e-14 0 0 0 0)
(0 1.39496e-17 0 1.39496e-17 8.58657e-14 0 0 0 0)
(0 -1.58819e-18 0 -1.58819e-18 -8.49058e-14 0 0 0 0)
(0 3.39872e-17 0 3.39872e-17 8.39402e-14 0 0 0 0)
(0 -2.35052e-17 0 -2.35052e-17 -8.29614e-14 0 0 0 0)
(0 -1.2282e-17 0 -1.2282e-17 8.19752e-14 0 0 0 0)
(0 4.04194e-17 0 4.04194e-17 -8.09752e-14 0 0 0 0)
(0 -4.87838e-17 0 -4.87838e-17 7.99658e-14 0 0 0 0)
(0 -3.04932e-17 0 -3.04932e-17 -7.89418e-14 0 0 0 0)
(0 2.84021e-17 0 2.84021e-17 7.79091e-14 0 0 0 0)
(0 3.51254e-17 0 3.51254e-17 -7.68592e-14 0 0 0 0)
(0 6.4851e-18 0 6.4851e-18 7.57997e-14 0 0 0 0)
(0 -8.39092e-18 0 -8.39092e-18 -7.47215e-14 0 0 0 0)
(0 -3.99694e-18 0 -3.99694e-18 7.36352e-14 0 0 0 0)
(0 -2.16258e-17 0 -2.16258e-17 -7.25237e-14 0 0 0 0)
(0 2.74756e-17 0 2.74756e-17 7.1417e-14 0 0 0 0)
(0 1.64113e-18 0 1.64113e-18 -7.02564e-14 0 0 0 0)
(0 -7.27919e-18 0 -7.27919e-18 6.91424e-14 0 0 0 0)
(0 -3.6793e-18 0 -3.6793e-18 -6.79319e-14 0 0 0 0)
(0 -1.972e-17 0 -1.972e-17 6.67844e-14 0 0 0 0)
(0 5.37337e-18 0 5.37337e-18 -6.55341e-14 0 0 0 0)
(0 2.40346e-17 0 2.40346e-17 6.434e-14 0 0 0 0)
(0 5.13514e-18 0 5.13514e-18 -6.30525e-14 0 0 0 0)
(0 2.38228e-18 0 2.38228e-18 6.17985e-14 0 0 0 0)
(0 -1.99317e-17 0 -1.99317e-17 -6.04616e-14 0 0 0 0)
(0 -1.25996e-17 0 -1.25996e-17 5.91586e-14 0 0 0 0)
(0 -4.87044e-18 0 -4.87044e-18 -5.7772e-14 0 0 0 0)
(0 -9.13737e-17 0 -9.13737e-17 5.63825e-14 0 0 0 0)
(0 -2.958e-16 0 -2.958e-16 -5.49483e-14 0 0 0 0)
(0 3.17637e-19 0 3.17637e-19 5.34694e-14 0 0 0 0)
(0 2.94662e-16 0 2.94662e-16 -5.19807e-14 0 0 0 0)
(0 8.3168e-17 0 8.3168e-17 5.03909e-14 0 0 0 0)
(0 2.64698e-20 0 2.64698e-20 -4.88114e-14 0 0 0 0)
(0 8.41739e-18 0 8.41739e-18 4.71379e-14 0 0 0 0)
(0 5.38925e-17 0 5.38925e-17 -4.5455e-14 0 0 0 0)
(0 2.18111e-17 0 2.18111e-17 4.36151e-14 0 0 0 0)
(0 -2.68933e-17 0 -2.68933e-17 -4.18272e-14 0 0 0 0)
(0 -8.15799e-17 0 -8.15799e-17 3.97921e-14 0 0 0 0)
(0 6.03511e-18 0 6.03511e-18 -3.78539e-14 0 0 0 0)
(0 1.17976e-16 0 1.17976e-16 3.55679e-14 0 0 0 0)
(0 6.0854e-17 0 6.0854e-17 -3.34406e-14 0 0 0 0)
(0 -3.22137e-17 0 -3.22137e-17 3.07881e-14 0 0 0 0)
(0 -4.44428e-17 0 -4.44428e-17 -2.82697e-14 0 0 0 0)
(0 -4.01282e-17 0 -4.01282e-17 2.51792e-14 0 0 0 0)
(0 -3.04932e-17 0 -3.04932e-17 -2.19391e-14 0 0 0 0)
(0 2.51198e-17 0 2.51198e-17 1.80309e-14 0 0 0 0)
(0 -3.94929e-17 0 -3.94929e-17 -1.28485e-14 0 0 0 0)
(0 -6.14364e-17 0 -6.14364e-17 5.32436e-15 0 0 0 0)
)
;

boundaryField
{
    inandouthalf11
    {
        type            cyclic;
    }
    inandouthalf12
    {
        type            cyclic;
    }
    inandouthalf21
    {
        type            cyclic;
    }
    inandouthalf22
    {
        type            cyclic;
    }
    inandouthalf31
    {
        type            cyclic;
    }
    inandouthalf32
    {
        type            cyclic;
    }
    inandouthalf41
    {
        type            cyclic;
    }
    inandouthalf42
    {
        type            cyclic;
    }
    top
    {
        type            symmetryPlane;
    }
    walls
    {
        type            zeroGradient;
    }
    frontAndBackPlanes
    {
        type            empty;
    }
}


// ************************************************************************* //
