/*--------------------------------*- C++ -*----------------------------------*\
| =========                 |                                                 |
| \\      /  F ield         | OpenFOAM: The Open Source CFD Toolbox           |
|  \\    /   O peration     | Version:  2.4.x                                 |
|   \\  /    A nd           | Web:      www.OpenFOAM.org                      |
|    \\/     M anipulation  |                                                 |
\*---------------------------------------------------------------------------*/
FoamFile
{
    version     2.0;
    format      ascii;
    class       volScalarField;
    location    "6.1";
    object      Theta_0;
}
// * * * * * * * * * * * * * * * * * * * * * * * * * * * * * * * * * * * * * //

dimensions      [0 2 -2 0 0 0 0];

internalField   nonuniform List<scalar> 
360
(
6.66568e-21
6.67609e-21
6.67194e-21
6.67051e-21
6.67113e-21
6.67173e-21
6.67196e-21
6.67204e-21
6.67213e-21
6.67224e-21
6.6724e-21
6.67256e-21
6.67272e-21
6.67288e-21
6.67302e-21
6.67317e-21
6.67333e-21
6.67348e-21
6.67364e-21
6.67381e-21
6.67396e-21
6.67412e-21
6.67429e-21
6.67444e-21
6.6746e-21
6.67475e-21
6.67489e-21
6.67503e-21
6.67517e-21
6.67531e-21
6.67546e-21
6.67563e-21
6.67583e-21
6.67607e-21
6.67634e-21
6.67666e-21
6.67701e-21
6.67739e-21
6.67776e-21
6.67807e-21
6.67828e-21
6.67833e-21
6.67817e-21
6.67781e-21
6.67725e-21
6.67655e-21
6.67581e-21
6.67515e-21
6.67472e-21
6.67468e-21
6.67519e-21
6.67652e-21
6.67909e-21
6.68357e-21
6.69102e-21
6.70285e-21
6.71995e-21
6.74025e-21
6.75497e-21
6.75076e-21
6.7242e-21
6.69154e-21
6.67078e-21
6.66323e-21
6.66159e-21
6.66137e-21
6.66135e-21
6.66134e-21
6.66134e-21
6.66134e-21
6.66134e-21
6.66134e-21
6.66134e-21
6.66134e-21
6.66134e-21
6.66134e-21
6.66134e-21
6.66134e-21
6.66133e-21
6.66133e-21
6.66133e-21
6.66133e-21
6.66133e-21
6.66133e-21
6.66133e-21
6.66133e-21
6.66133e-21
6.66132e-21
6.66132e-21
6.66132e-21
6.66132e-21
6.66132e-21
6.66132e-21
6.66132e-21
6.66132e-21
6.66131e-21
6.66131e-21
6.66131e-21
6.66131e-21
6.66131e-21
6.66131e-21
6.6613e-21
6.6613e-21
6.6613e-21
6.6613e-21
6.6613e-21
6.6613e-21
6.66129e-21
6.66129e-21
6.66129e-21
6.66129e-21
6.66129e-21
6.66128e-21
6.66128e-21
6.66128e-21
6.66128e-21
6.66127e-21
6.66127e-21
6.66127e-21
6.66127e-21
6.66126e-21
6.66126e-21
6.66126e-21
6.66126e-21
6.66125e-21
6.66125e-21
6.66125e-21
6.66124e-21
6.66124e-21
6.66123e-21
6.66123e-21
6.66124e-21
9.66187e-21
4.03537e-20
2.03536e-19
1.12349e-18
6.80424e-18
4.56496e-17
3.43565e-16
2.94186e-15
2.90557e-14
3.35648e-13
4.61329e-12
7.67816e-11
1.66978e-09
8.40253e-08
4.39273e-06
7.56692e-05
0.000782509
0.00215579
0.00287873
0.00333247
0.00367681
0.00396461
0.00421286
0.00442724
0.00461056
0.00476544
0.0048947
0.00500126
0.00508793
0.00515725
0.00521146
0.00525253
0.00528211
0.0053016
0.0053122
0.00531492
0.00531061
0.00530001
0.00528376
0.00526241
0.00523645
0.00520631
0.00517237
0.00513499
0.00509448
0.00505114
0.00500524
0.00495703
0.00490676
0.00485466
0.00480093
0.00474578
0.00468941
0.004632
0.00457371
0.00451473
0.00445521
0.00439529
0.00433512
0.00427482
0.00421452
0.00415432
0.00409433
0.00403464
0.00397532
0.00391643
0.00385802
0.00380013
0.00374278
0.00368542
0.00362748
0.00356896
0.00350985
0.00345011
0.00338971
0.00332857
0.00326661
0.00320373
0.00313982
0.00307475
0.0030084
0.00294062
0.00287128
0.00280021
0.00272725
0.00265223
0.00257495
0.00249523
0.00241284
0.00232754
0.00223906
0.0021471
0.00205132
0.00195132
0.00184662
0.00173667
0.00162078
0.00149807
0.00136741
0.00122725
0.00107535
0.000908247
0.000719855
0.00049693
0
0
0
0
0
0
0
0
0
0
0
0
0
0
0
0
0
0
0
0
0
0
0
0
0
0
0
0
0
0
0
0
0
0
0
0
0
0
0
0
0
0
0
0
0
0
0
0
0
0
0
0
0
0
0
0
0
0
0
0
0
0
0
0
0
0
0
0
0
0
0
0
0
0
0
0
0
0
0
0
0
0
0
0
0
0
0
0
0
0
0
0
0
0
0
0
0
0
0
0
0
0
0
0
0
0
0
0
0
0
0
0
0
0
0
0
0
0
0
0
0
0
0
0
)
;

boundaryField
{
    inandouthalf11
    {
        type            cyclic;
    }
    inandouthalf12
    {
        type            cyclic;
    }
    inandouthalf21
    {
        type            cyclic;
    }
    inandouthalf22
    {
        type            cyclic;
    }
    inandouthalf31
    {
        type            cyclic;
    }
    inandouthalf32
    {
        type            cyclic;
    }
    inandouthalf41
    {
        type            cyclic;
    }
    inandouthalf42
    {
        type            cyclic;
    }
    top
    {
        type            symmetryPlane;
    }
    walls
    {
        type            zeroGradient;
    }
    frontAndBackPlanes
    {
        type            empty;
    }
}


// ************************************************************************* //
