/*--------------------------------*- C++ -*----------------------------------*\
| =========                 |                                                 |
| \\      /  F ield         | OpenFOAM: The Open Source CFD Toolbox           |
|  \\    /   O peration     | Version:  2.4.x                                 |
|   \\  /    A nd           | Web:      www.OpenFOAM.org                      |
|    \\/     M anipulation  |                                                 |
\*---------------------------------------------------------------------------*/
FoamFile
{
    version     2.0;
    format      ascii;
    class       volVectorField;
    location    "6.1";
    object      U;
}
// * * * * * * * * * * * * * * * * * * * * * * * * * * * * * * * * * * * * * //

dimensions      [0 1 -1 0 0 0 0];

internalField   nonuniform List<vector> 
360
(
(7.84066e-06 2.84276e-08 0)
(7.76347e-06 -4.57604e-09 0)
(7.72409e-06 -5.56695e-09 0)
(7.70438e-06 -3.29673e-10 0)
(7.68251e-06 9.96177e-10 0)
(7.65711e-06 4.50708e-10 0)
(7.63089e-06 9.26203e-11 0)
(7.60455e-06 4.90458e-11 0)
(7.57794e-06 8.29478e-11 0)
(7.55104e-06 1.25202e-10 0)
(7.52379e-06 1.52348e-10 0)
(7.49609e-06 1.52809e-10 0)
(7.46795e-06 1.42003e-10 0)
(7.43938e-06 1.31536e-10 0)
(7.41039e-06 1.29188e-10 0)
(7.38099e-06 1.33139e-10 0)
(7.35117e-06 1.36481e-10 0)
(7.3209e-06 1.37992e-10 0)
(7.29019e-06 1.37146e-10 0)
(7.25905e-06 1.38018e-10 0)
(7.22742e-06 1.33222e-10 0)
(7.19536e-06 1.34626e-10 0)
(7.16283e-06 1.33315e-10 0)
(7.12984e-06 1.2862e-10 0)
(7.09638e-06 1.22649e-10 0)
(7.06245e-06 1.16702e-10 0)
(7.02805e-06 1.11157e-10 0)
(6.99321e-06 1.11565e-10 0)
(6.9579e-06 1.09124e-10 0)
(6.92211e-06 1.12031e-10 0)
(6.88583e-06 1.20695e-10 0)
(6.84907e-06 1.4587e-10 0)
(6.81172e-06 1.62148e-10 0)
(6.77383e-06 2.05921e-10 0)
(6.73525e-06 2.29226e-10 0)
(6.69597e-06 2.63422e-10 0)
(6.65589e-06 2.85043e-10 0)
(6.61501e-06 2.89725e-10 0)
(6.5733e-06 2.70885e-10 0)
(6.53072e-06 1.90127e-10 0)
(6.48749e-06 9.92052e-11 0)
(6.44367e-06 -4.67302e-11 0)
(6.39951e-06 -2.28365e-10 0)
(6.35539e-06 -3.82735e-10 0)
(6.31148e-06 -5.39963e-10 0)
(6.26811e-06 -6.36181e-10 0)
(6.22545e-06 -6.34035e-10 0)
(6.18345e-06 -5.3125e-10 0)
(6.142e-06 -2.68602e-10 0)
(6.10062e-06 1.52011e-10 0)
(6.05844e-06 6.97814e-10 0)
(6.01451e-06 1.48608e-09 0)
(5.96723e-06 2.50685e-09 0)
(5.91462e-06 3.84805e-09 0)
(5.85396e-06 5.44299e-09 0)
(5.7821e-06 7.16366e-09 0)
(5.69552e-06 8.21381e-09 0)
(5.59219e-06 7.31039e-09 0)
(5.47393e-06 2.74797e-09 0)
(5.34987e-06 -5.50151e-09 0)
(5.2365e-06 -1.38116e-08 0)
(5.15034e-06 -1.70917e-08 0)
(5.09828e-06 -1.3866e-08 0)
(5.07418e-06 -7.96464e-09 0)
(5.06642e-06 -3.37594e-09 0)
(5.06574e-06 -1.12339e-09 0)
(5.06751e-06 -3.13608e-10 0)
(5.07001e-06 -8.63674e-11 0)
(5.07276e-06 -3.03152e-11 0)
(5.07562e-06 -3.95591e-11 0)
(5.07867e-06 -2.35348e-11 0)
(5.08183e-06 -3.48721e-12 0)
(5.08502e-06 -3.26204e-11 0)
(5.08838e-06 -9.62348e-12 0)
(5.09179e-06 -2.10259e-11 0)
(5.09532e-06 -2.84614e-12 0)
(5.09888e-06 -1.48264e-11 0)
(5.10252e-06 -1.61883e-11 0)
(5.10626e-06 -1.69327e-11 0)
(5.11009e-06 -1.42766e-11 0)
(5.114e-06 -2.26715e-11 0)
(5.11803e-06 -2.16384e-11 0)
(5.12217e-06 -2.01964e-11 0)
(5.12642e-06 -2.12979e-11 0)
(5.13078e-06 -1.88509e-11 0)
(5.13524e-06 -1.9897e-11 0)
(5.13981e-06 -1.66256e-11 0)
(5.14448e-06 -1.77545e-11 0)
(5.14924e-06 -1.94027e-11 0)
(5.1541e-06 -1.9775e-11 0)
(5.15908e-06 -2.09451e-11 0)
(5.16416e-06 -2.35393e-11 0)
(5.16937e-06 -2.40938e-11 0)
(5.1747e-06 -2.48484e-11 0)
(5.18016e-06 -2.55857e-11 0)
(5.18576e-06 -2.60689e-11 0)
(5.19148e-06 -2.65117e-11 0)
(5.19735e-06 -2.72658e-11 0)
(5.20335e-06 -2.83163e-11 0)
(5.2095e-06 -2.93424e-11 0)
(5.21579e-06 -3.06139e-11 0)
(5.22224e-06 -3.20434e-11 0)
(5.22886e-06 -3.33741e-11 0)
(5.23563e-06 -3.47649e-11 0)
(5.24259e-06 -3.62721e-11 0)
(5.24972e-06 -3.78446e-11 0)
(5.25704e-06 -3.95392e-11 0)
(5.26455e-06 -4.13763e-11 0)
(5.27226e-06 -4.33234e-11 0)
(5.28019e-06 -4.5379e-11 0)
(5.28834e-06 -4.75447e-11 0)
(5.29672e-06 -4.9814e-11 0)
(5.30534e-06 -5.21944e-11 0)
(5.31422e-06 -5.46935e-11 0)
(5.32335e-06 -5.73141e-11 0)
(5.33277e-06 -6.00674e-11 0)
(5.34247e-06 -6.29749e-11 0)
(5.35248e-06 -6.60564e-11 0)
(5.3628e-06 -6.93206e-11 0)
(5.37346e-06 -7.2762e-11 0)
(5.38446e-06 -7.63568e-11 0)
(5.39583e-06 -8.00749e-11 0)
(5.40759e-06 -8.39549e-11 0)
(5.41975e-06 -8.82356e-11 0)
(5.43233e-06 -9.34374e-11 0)
(5.44536e-06 -1.00254e-10 0)
(5.45888e-06 -1.09079e-10 0)
(5.47291e-06 -1.1918e-10 0)
(5.48752e-06 -1.28182e-10 0)
(5.50273e-06 -1.33782e-10 0)
(5.51859e-06 -1.39124e-10 0)
(5.53512e-06 -1.58185e-10 0)
(5.55241e-06 -2.03058e-10 0)
(5.57066e-06 -2.48869e-10 0)
(5.59008e-06 -2.44833e-10 0)
(5.61067e-06 -2.16952e-10 0)
(5.63231e-06 -2.89875e-10 0)
(5.65534e-06 -5.51545e-10 0)
(5.68093e-06 -8.30239e-10 0)
(5.71036e-06 -5.13723e-10 0)
(5.74227e-06 3.66536e-10 0)
(5.77277e-06 -1.30662e-09 0)
(5.80936e-06 -2.38032e-09 0)
(5.85702e-06 -2.4458e-09 0)
(5.91644e-06 -1.04209e-08 0)
(6.02569e-06 -5.11226e-08 0)
(6.31386e-06 1.45308e-07 0)
(-5.65888e-05 -2.24826e-06 0)
(-0.0421719 1.14918e-05 0)
(-0.14253 1.67959e-05 0)
(-0.218889 -2.70533e-06 0)
(-0.277904 1.03429e-06 0)
(-0.325377 1.19684e-06 0)
(-0.364595 7.58612e-07 0)
(-0.397692 4.49637e-07 0)
(-0.426134 2.74527e-07 0)
(-0.450967 1.65079e-07 0)
(-0.472951 9.33697e-08 0)
(-0.492649 4.74964e-08 0)
(-0.510483 1.92913e-08 0)
(-0.526776 2.51062e-09 0)
(-0.541779 -7.13274e-09 0)
(-0.555688 -1.23727e-08 0)
(-0.568659 -1.49212e-08 0)
(-0.58082 -1.58415e-08 0)
(-0.592272 -1.58004e-08 0)
(-0.603101 -1.5209e-08 0)
(-0.613378 -1.43237e-08 0)
(-0.623162 -1.3301e-08 0)
(-0.632503 -1.22368e-08 0)
(-0.641445 -1.11873e-08 0)
(-0.650023 -1.0185e-08 0)
(-0.658271 -9.24666e-09 0)
(-0.666215 -8.37963e-09 0)
(-0.67388 -7.58545e-09 0)
(-0.681287 -6.86338e-09 0)
(-0.688455 -6.20974e-09 0)
(-0.6954 -5.61884e-09 0)
(-0.702137 -5.08576e-09 0)
(-0.708679 -4.60548e-09 0)
(-0.715039 -4.17302e-09 0)
(-0.721226 -3.78364e-09 0)
(-0.72725 -3.43296e-09 0)
(-0.73312 -3.11696e-09 0)
(-0.738843 -2.83204e-09 0)
(-0.744426 -2.57495e-09 0)
(-0.749875 -2.34276e-09 0)
(-0.755197 -2.13281e-09 0)
(-0.760395 -1.94246e-09 0)
(-0.765476 -1.76883e-09 0)
(-0.770442 -1.60924e-09 0)
(-0.775298 -1.46244e-09 0)
(-0.780047 -1.32815e-09 0)
(-0.784692 -1.20337e-09 0)
(-0.789237 -1.08277e-09 0)
(-0.793682 -9.65398e-10 0)
(-0.798031 -8.56041e-10 0)
(-0.802285 -7.62445e-10 0)
(-0.806446 -7.03231e-10 0)
(-0.810515 -6.47185e-10 0)
(-0.814494 -5.37103e-10 0)
(-0.818422 -4.69738e-10 0)
(-0.822337 -4.32911e-10 0)
(-0.826234 -3.22885e-10 0)
(-0.83011 -2.59715e-10 0)
(-0.83396 -2.91292e-10 0)
(-0.83778 -2.47791e-10 0)
(-0.841564 -1.89748e-10 0)
(-0.845306 -1.7189e-10 0)
(-0.848999 -1.13652e-10 0)
(-0.852637 -8.63503e-11 0)
(-0.856211 -4.52744e-11 0)
(-0.859711 -2.21872e-13 0)
(-0.86313 -2.2725e-11 0)
(-0.866454 2.65189e-12 0)
(-0.869674 2.57642e-11 0)
(-0.872777 4.00969e-12 0)
(-0.875748 1.17812e-11 0)
(-0.878575 1.5006e-11 0)
(-0.881242 1.65362e-11 0)
(-0.883735 7.30127e-12 0)
(-0.886038 3.40862e-12 0)
(-0.888139 1.38541e-11 0)
(-0.890023 4.20156e-12 0)
(-0.891682 2.38355e-12 0)
(-0.893107 5.50795e-12 0)
(-0.894296 3.33588e-12 0)
(-0.895246 1.18741e-12 0)
(-0.895963 3.2005e-12 0)
(-0.896453 -2.02485e-12 0)
(-0.896726 6.82344e-12 0)
(-0.896793 -8.65302e-12 0)
(-0.896667 9.72201e-12 0)
(-0.89636 -1.17101e-11 0)
(-0.895886 3.88336e-11 0)
(-0.895254 -1.09207e-10 0)
(-0.894477 1.95896e-10 0)
(-0.893564 -5.30902e-11 0)
(-0.892526 -8.31901e-11 0)
(-0.891372 1.45861e-10 0)
(-0.890113 1.25194e-11 0)
(-0.888756 -1.52039e-13 0)
(-0.887314 -2.39365e-12 0)
(-0.885795 -1.89669e-12 0)
(-0.884209 -1.79283e-12 0)
(-0.882569 -1.40922e-12 0)
(-0.880887 6.31422e-12 0)
(-0.879174 -3.06797e-11 0)
(-0.877447 6.74366e-11 0)
(-0.875722 -1.31293e-10 0)
(-0.874022 2.1324e-10 0)
(-0.872373 -3.24635e-10 0)
(-0.870813 4.54286e-10 0)
(-0.869401 -6.09751e-10 0)
(-0.868233 7.77305e-10 0)
(-0.867693 -9.61195e-10 0)
(-0.867632 1.14832e-09 0)
(-0.86763 -1.34492e-09 0)
(-0.867629 1.54245e-09 0)
(-0.867629 -1.7486e-09 0)
(-0.867629 1.95636e-09 0)
(-0.867629 -2.17266e-09 0)
(-0.867629 2.39131e-09 0)
(-0.867629 -2.61845e-09 0)
(-0.867629 2.84867e-09 0)
(-0.867629 -3.08736e-09 0)
(-0.867629 3.32976e-09 0)
(-0.867629 -3.58065e-09 0)
(-0.867629 3.83581e-09 0)
(-0.867629 -4.09953e-09 0)
(-0.867629 4.36798e-09 0)
(-0.867629 -4.64506e-09 0)
(-0.867629 4.92731e-09 0)
(-0.867629 -5.21827e-09 0)
(-0.867629 5.51479e-09 0)
(-0.867629 -5.8201e-09 0)
(-0.867629 6.13133e-09 0)
(-0.867629 -6.45143e-09 0)
(-0.867629 6.77781e-09 0)
(-0.867629 -7.1131e-09 0)
(-0.867629 7.45502e-09 0)
(-0.867629 -7.80592e-09 0)
(-0.867629 8.16375e-09 0)
(-0.867629 -8.53062e-09 0)
(-0.867629 8.90473e-09 0)
(-0.867629 -9.28793e-09 0)
(-0.867629 9.67867e-09 0)
(-0.867629 -1.00785e-08 0)
(-0.867629 1.04862e-08 0)
(-0.867629 -1.0903e-08 0)
(-0.867629 1.1328e-08 0)
(-0.867629 -1.17621e-08 0)
(-0.867629 1.22047e-08 0)
(-0.867629 -1.26563e-08 0)
(-0.867629 1.31167e-08 0)
(-0.867629 -1.35862e-08 0)
(-0.867629 1.40647e-08 0)
(-0.867629 -1.45523e-08 0)
(-0.867629 1.50491e-08 0)
(-0.867629 -1.5555e-08 0)
(-0.867629 1.60703e-08 0)
(-0.867629 -1.65948e-08 0)
(-0.867629 1.71287e-08 0)
(-0.867629 -1.76718e-08 0)
(-0.867629 1.82245e-08 0)
(-0.867629 -1.87864e-08 0)
(-0.867629 1.93579e-08 0)
(-0.867629 -1.99386e-08 0)
(-0.867629 2.05289e-08 0)
(-0.867629 -2.11284e-08 0)
(-0.867629 1.90813e-08 0)
(-0.867629 -1.92576e-08 0)
(-0.867629 1.94323e-08 0)
(-0.867629 -1.96048e-08 0)
(-0.867629 1.97757e-08 0)
(-0.867629 -1.99445e-08 0)
(-0.867629 2.01115e-08 0)
(-0.867629 -2.02763e-08 0)
(-0.867629 2.04394e-08 0)
(-0.867629 -2.06002e-08 0)
(-0.867629 2.07593e-08 0)
(-0.867629 -2.0916e-08 0)
(-0.867629 2.10709e-08 0)
(-0.867629 -2.12234e-08 0)
(-0.867629 2.13741e-08 0)
(-0.867629 -2.15223e-08 0)
(-0.867629 2.16686e-08 0)
(-0.867629 -2.18124e-08 0)
(-0.867629 2.19543e-08 0)
(-0.867629 -2.20934e-08 0)
(-0.867629 2.22309e-08 0)
(-0.867629 -2.23651e-08 0)
(-0.867629 2.2498e-08 0)
(-0.867629 -2.26273e-08 0)
(-0.867629 2.27554e-08 0)
(-0.867629 -2.28795e-08 0)
(-0.867629 2.30026e-08 0)
(-0.867629 -2.31213e-08 0)
(-0.867629 2.32392e-08 0)
(-0.867629 -2.33524e-08 0)
(-0.867629 2.34647e-08 0)
(-0.867629 -2.35722e-08 0)
(-0.867629 2.36786e-08 0)
(-0.867629 -2.37801e-08 0)
(-0.867629 2.38802e-08 0)
(-0.867629 -2.39754e-08 0)
(-0.867629 2.40687e-08 0)
(-0.867629 -2.41572e-08 0)
(-0.867629 2.42432e-08 0)
(-0.867629 -2.43245e-08 0)
(-0.867629 2.44024e-08 0)
(-0.867629 -2.44759e-08 0)
(-0.867629 2.45446e-08 0)
(-0.867629 -2.46097e-08 0)
(-0.867629 2.46678e-08 0)
(-0.867629 -2.47228e-08 0)
(-0.867629 2.47685e-08 0)
(-0.867629 -2.48105e-08 0)
(-0.867629 2.48406e-08 0)
(-0.867629 -2.48619e-08 0)
)
;

boundaryField
{
    inandouthalf11
    {
        type            cyclic;
    }
    inandouthalf12
    {
        type            cyclic;
    }
    inandouthalf21
    {
        type            cyclic;
    }
    inandouthalf22
    {
        type            cyclic;
    }
    inandouthalf31
    {
        type            cyclic;
    }
    inandouthalf32
    {
        type            cyclic;
    }
    inandouthalf41
    {
        type            cyclic;
    }
    inandouthalf42
    {
        type            cyclic;
    }
    top
    {
        type            symmetryPlane;
    }
    walls
    {
        type            calculated;
        value           uniform (0 0 0);
    }
    frontAndBackPlanes
    {
        type            empty;
    }
}


// ************************************************************************* //
