/*--------------------------------*- C++ -*----------------------------------*\
| =========                 |                                                 |
| \\      /  F ield         | OpenFOAM: The Open Source CFD Toolbox           |
|  \\    /   O peration     | Version:  2.4.x                                 |
|   \\  /    A nd           | Web:      www.OpenFOAM.org                      |
|    \\/     M anipulation  |                                                 |
\*---------------------------------------------------------------------------*/
FoamFile
{
    version     2.0;
    format      ascii;
    class       volVectorField;
    location    "6.1";
    object      Ua;
}
// * * * * * * * * * * * * * * * * * * * * * * * * * * * * * * * * * * * * * //

dimensions      [0 1 -1 0 0 0 0];

internalField   nonuniform List<vector> 
360
(
(-9.72461e-33 -9.3708e-32 0)
(-2.60587e-08 -1.7824e-07 0)
(-5.53851e-08 -3.28116e-07 0)
(-8.1423e-08 -4.55536e-07 0)
(-1.07428e-07 -5.85903e-07 0)
(-1.34557e-07 -7.22085e-07 0)
(-1.62433e-07 -8.60549e-07 0)
(-1.90712e-07 -9.99675e-07 0)
(-2.19315e-07 -1.13924e-06 0)
(-2.48268e-07 -1.27942e-06 0)
(-2.77627e-07 -1.4205e-06 0)
(-3.07427e-07 -1.56264e-06 0)
(-3.37676e-07 -1.70583e-06 0)
(-3.68368e-07 -1.85001e-06 0)
(-3.99495e-07 -1.99511e-06 0)
(-4.3106e-07 -2.14111e-06 0)
(-4.63071e-07 -2.28805e-06 0)
(-4.95539e-07 -2.43595e-06 0)
(-5.28471e-07 -2.58481e-06 0)
(-5.61874e-07 -2.73464e-06 0)
(-5.95751e-07 -2.88543e-06 0)
(-6.30106e-07 -3.03716e-06 0)
(-6.64945e-07 -3.18985e-06 0)
(-7.00272e-07 -3.34347e-06 0)
(-7.36087e-07 -3.498e-06 0)
(-7.72389e-07 -3.65341e-06 0)
(-8.09172e-07 -3.80965e-06 0)
(-8.4644e-07 -3.96669e-06 0)
(-8.84196e-07 -4.12454e-06 0)
(-9.22445e-07 -4.28317e-06 0)
(-9.612e-07 -4.4426e-06 0)
(-1.00049e-06 -4.60293e-06 0)
(-1.04034e-06 -4.76425e-06 0)
(-1.08082e-06 -4.92675e-06 0)
(-1.12198e-06 -5.09067e-06 0)
(-1.16389e-06 -5.25618e-06 0)
(-1.2066e-06 -5.4235e-06 0)
(-1.25017e-06 -5.59278e-06 0)
(-1.29463e-06 -5.76411e-06 0)
(-1.33992e-06 -5.93724e-06 0)
(-1.38596e-06 -6.11176e-06 0)
(-1.43258e-06 -6.28704e-06 0)
(-1.47953e-06 -6.46205e-06 0)
(-1.52652e-06 -6.63571e-06 0)
(-1.57325e-06 -6.8069e-06 0)
(-1.61946e-06 -6.97463e-06 0)
(-1.66498e-06 -7.13827e-06 0)
(-1.70978e-06 -7.29774e-06 0)
(-1.75408e-06 -7.4538e-06 0)
(-1.79838e-06 -7.60826e-06 0)
(-1.84343e-06 -7.76373e-06 0)
(-1.89035e-06 -7.92393e-06 0)
(-1.94068e-06 -8.09404e-06 0)
(-1.99648e-06 -8.28087e-06 0)
(-2.06046e-06 -8.4932e-06 0)
(-2.13591e-06 -8.7418e-06 0)
(-2.22629e-06 -9.03792e-06 0)
(-2.33376e-06 -9.38877e-06 0)
(-2.45641e-06 -9.7885e-06 0)
(-2.58492e-06 -1.02069e-05 0)
(-2.70267e-06 -1.05895e-05 0)
(-2.79273e-06 -1.08807e-05 0)
(-2.84821e-06 -1.10583e-05 0)
(-2.87523e-06 -1.11436e-05 0)
(-2.88567e-06 -1.1176e-05 0)
(-2.88894e-06 -1.11859e-05 0)
(-2.88981e-06 -1.11885e-05 0)
(-2.89002e-06 -1.11891e-05 0)
(-2.89007e-06 -1.11893e-05 0)
(-2.89008e-06 -1.11893e-05 0)
(-2.89008e-06 -1.11893e-05 0)
(-2.89008e-06 -1.11893e-05 0)
(-2.89008e-06 -1.11893e-05 0)
(-2.89008e-06 -1.11893e-05 0)
(-2.89008e-06 -1.11893e-05 0)
(-2.89008e-06 -1.11893e-05 0)
(-2.89008e-06 -1.11893e-05 0)
(-2.89008e-06 -1.11893e-05 0)
(-2.89008e-06 -1.11893e-05 0)
(-2.89008e-06 -1.11893e-05 0)
(-2.89008e-06 -1.11893e-05 0)
(-2.89008e-06 -1.11893e-05 0)
(-2.89008e-06 -1.11893e-05 0)
(-2.89008e-06 -1.11893e-05 0)
(-2.89008e-06 -1.11893e-05 0)
(-2.89008e-06 -1.11893e-05 0)
(-2.89008e-06 -1.11893e-05 0)
(-2.89008e-06 -1.11893e-05 0)
(-2.89008e-06 -1.11893e-05 0)
(-2.89008e-06 -1.11893e-05 0)
(-2.89008e-06 -1.11893e-05 0)
(-2.89009e-06 -1.11893e-05 0)
(-2.89009e-06 -1.11893e-05 0)
(-2.89009e-06 -1.11893e-05 0)
(-2.89009e-06 -1.11893e-05 0)
(-2.89009e-06 -1.11893e-05 0)
(-2.89009e-06 -1.11893e-05 0)
(-2.89009e-06 -1.11893e-05 0)
(-2.89009e-06 -1.11893e-05 0)
(-2.89009e-06 -1.11893e-05 0)
(-2.89009e-06 -1.11893e-05 0)
(-2.89009e-06 -1.11893e-05 0)
(-2.89009e-06 -1.11893e-05 0)
(-2.89009e-06 -1.11893e-05 0)
(-2.89009e-06 -1.11893e-05 0)
(-2.89009e-06 -1.11893e-05 0)
(-2.89009e-06 -1.11893e-05 0)
(-2.89009e-06 -1.11893e-05 0)
(-2.89009e-06 -1.11893e-05 0)
(-2.89009e-06 -1.11893e-05 0)
(-2.89009e-06 -1.11893e-05 0)
(-2.89009e-06 -1.11893e-05 0)
(-2.89009e-06 -1.11893e-05 0)
(-2.89009e-06 -1.11893e-05 0)
(-2.89009e-06 -1.11893e-05 0)
(-2.89009e-06 -1.11893e-05 0)
(-2.89009e-06 -1.11893e-05 0)
(-2.89009e-06 -1.11893e-05 0)
(-2.89009e-06 -1.11893e-05 0)
(-2.89009e-06 -1.11893e-05 0)
(-2.89009e-06 -1.11893e-05 0)
(-2.89009e-06 -1.11893e-05 0)
(-2.89009e-06 -1.11893e-05 0)
(-2.89009e-06 -1.11893e-05 0)
(-2.89009e-06 -1.11893e-05 0)
(-2.8901e-06 -1.11893e-05 0)
(-2.8901e-06 -1.11893e-05 0)
(-2.8901e-06 -1.11893e-05 0)
(-2.8901e-06 -1.11893e-05 0)
(-2.8901e-06 -1.11894e-05 0)
(-2.8901e-06 -1.11894e-05 0)
(-2.8901e-06 -1.11894e-05 0)
(-2.8901e-06 -1.11894e-05 0)
(-2.8901e-06 -1.11894e-05 0)
(-2.8901e-06 -1.11894e-05 0)
(-2.8901e-06 -1.11894e-05 0)
(-2.8901e-06 -1.11894e-05 0)
(-2.8901e-06 -1.11894e-05 0)
(-2.8901e-06 -1.11894e-05 0)
(-2.8901e-06 -1.11894e-05 0)
(-2.8901e-06 -1.11894e-05 0)
(-2.8901e-06 -1.11894e-05 0)
(-2.8901e-06 -1.11894e-05 0)
(-2.8901e-06 -1.11894e-05 0)
(-2.8901e-06 -1.11894e-05 0)
(-2.8901e-06 -1.11894e-05 0)
(-2.8901e-06 -1.11894e-05 0)
(-2.8901e-06 -1.11894e-05 0)
(-0.0389141 -6.75225e-05 0)
(-0.135033 -0.000379625 0)
(-0.212406 -0.000504671 0)
(-0.272559 -0.000605857 0)
(-0.320813 -0.000698321 0)
(-0.360529 -0.000781667 0)
(-0.39391 -0.000854453 0)
(-0.42248 -0.000915875 0)
(-0.447326 -0.00096533 0)
(-0.469239 -0.00100246 0)
(-0.488804 -0.00102722 0)
(-0.506458 -0.00103981 0)
(-0.522532 -0.00104062 0)
(-0.537282 -0.00103014 0)
(-0.550908 -0.00100889 0)
(-0.563566 -0.000977418 0)
(-0.575385 -0.000936251 0)
(-0.586466 -0.000885892 0)
(-0.596893 -0.000826812 0)
(-0.606736 -0.000759451 0)
(-0.616052 -0.000684218 0)
(-0.624891 -0.000601488 0)
(-0.633292 -0.000511609 0)
(-0.641292 -0.0004149 0)
(-0.648919 -0.000311659 0)
(-0.6562 -0.000202156 0)
(-0.663157 -8.66421e-05 0)
(-0.66981 3.4651e-05 0)
(-0.676174 0.000161511 0)
(-0.682266 0.000293742 0)
(-0.688097 0.000431161 0)
(-0.693679 0.0005736 0)
(-0.699023 0.000720897 0)
(-0.704137 0.0008729 0)
(-0.70903 0.00102946 0)
(-0.71371 0.00119043 0)
(-0.718181 0.00135566 0)
(-0.722452 0.001525 0)
(-0.726528 0.00169831 0)
(-0.730412 0.0018754 0)
(-0.734112 0.00205611 0)
(-0.73763 0.00224021 0)
(-0.740971 0.0024274 0)
(-0.744141 0.00261727 0)
(-0.747141 0.00280926 0)
(-0.749977 0.0030026 0)
(-0.752653 0.00319631 0)
(-0.755172 0.00338915 0)
(-0.757539 0.00357966 0)
(-0.759759 0.00376621 0)
(-0.761835 0.00394722 0)
(-0.763775 0.00412141 0)
(-0.765582 0.00428797 0)
(-0.767279 0.0044478 0)
(-0.768884 0.00460129 0)
(-0.770397 0.00474704 0)
(-0.771819 0.0048833 0)
(-0.773153 0.00500801 0)
(-0.774403 0.00511952 0)
(-0.775574 0.00521692 0)
(-0.776671 0.0052999 0)
(-0.777702 0.00536879 0)
(-0.778672 0.00542451 0)
(-0.77959 0.00546827 0)
(-0.78046 0.00550145 0)
(-0.781291 0.00552526 0)
(-0.782089 0.00554089 0)
(-0.782858 0.0055496 0)
(-0.783604 0.00555223 0)
(-0.784333 0.00554954 0)
(-0.785047 0.00554227 0)
(-0.78575 0.00553097 0)
(-0.786446 0.00551596 0)
(-0.787138 0.00549744 0)
(-0.787828 0.00547577 0)
(-0.788516 0.00545109 0)
(-0.789206 0.00542333 0)
(-0.789898 0.00539259 0)
(-0.790592 0.00535887 0)
(-0.791288 0.00532187 0)
(-0.791985 0.00528129 0)
(-0.792682 0.00523636 0)
(-0.793377 0.00518649 0)
(-0.794068 0.00512937 0)
(-0.794748 0.00506389 0)
(-0.795412 0.00498534 0)
(-0.796037 0.00489494 0)
(-0.796636 0.00476209 0)
(-0.797415 0.00454558 0)
(-0.891785 0.00122293 0)
(-0.893186 0.000255248 0)
(-0.89194 0.00966809 0)
(-0.890325 -0.00976633 0)
(-0.888947 -0.0395495 0)
(-0.88733 -0.0395774 0)
(-0.885812 -0.0395779 0)
(-0.884213 -0.0395789 0)
(-0.882565 -0.03958 0)
(-0.880877 -0.0395812 0)
(-0.879164 -0.0395822 0)
(-0.877439 -0.0395829 0)
(-0.875723 -0.0395834 0)
(-0.874035 -0.0395833 0)
(-0.872407 -0.0395825 0)
(-0.870877 -0.0395804 0)
(-0.869493 -0.039576 0)
(-0.86845 -0.039566 0)
(-0.868047 -0.0395551 0)
(-0.868004 -0.0395502 0)
(-0.868002 -0.0395497 0)
(-0.868002 -0.0395497 0)
(-0.868002 -0.0395497 0)
(-0.868002 -0.0395497 0)
(-0.868002 -0.0395497 0)
(-0.868002 -0.0395497 0)
(-0.868002 -0.0395497 0)
(-0.868002 -0.0395497 0)
(-0.868002 -0.0395497 0)
(-0.868002 -0.0395497 0)
(-0.868002 -0.0395497 0)
(-0.868002 -0.0395497 0)
(-0.868001 -0.0395497 0)
(-0.868001 -0.0395497 0)
(-0.868001 -0.0395497 0)
(-0.868001 -0.0395497 0)
(-0.868001 -0.0395497 0)
(-0.868001 -0.0395497 0)
(-0.868001 -0.0395497 0)
(-0.868001 -0.0395497 0)
(-0.868001 -0.0395497 0)
(-0.868001 -0.0395497 0)
(-0.868001 -0.0395497 0)
(-0.868001 -0.0395497 0)
(-0.868001 -0.0395497 0)
(-0.868001 -0.0395497 0)
(-0.868001 -0.0395497 0)
(-0.868001 -0.0395497 0)
(-0.868001 -0.0395497 0)
(-0.868001 -0.0395497 0)
(-0.868001 -0.0395497 0)
(-0.868001 -0.0395497 0)
(-0.868001 -0.0395497 0)
(-0.868001 -0.0395497 0)
(-0.868001 -0.0395497 0)
(-0.868001 -0.0395497 0)
(-0.868001 -0.0395497 0)
(-0.868001 -0.0395497 0)
(-0.868001 -0.0395497 0)
(-0.868001 -0.0395497 0)
(-0.868001 -0.0395497 0)
(-0.868001 -0.0395497 0)
(-0.868001 -0.0395497 0)
(-0.868001 -0.0395497 0)
(-0.868001 -0.0395497 0)
(-0.868001 -0.0395497 0)
(-0.868001 -0.0395497 0)
(-0.868001 -0.0395497 0)
(-0.868001 -0.0395497 0)
(-0.868001 -0.0395497 0)
(-0.868001 -0.0395497 0)
(-0.868001 -0.0395497 0)
(-0.868001 -0.0395497 0)
(-0.868001 -0.0395497 0)
(-0.868001 -0.0395497 0)
(-0.868001 -0.0395497 0)
(-0.868001 -0.0395497 0)
(-0.868001 -0.0395497 0)
(-0.868001 -0.0395497 0)
(-0.868001 -0.0395497 0)
(-0.868001 -0.0395497 0)
(-0.868001 -0.0395497 0)
(-0.868001 -0.0395497 0)
(-0.868001 -0.0395497 0)
(-0.868001 -0.0395497 0)
(-0.868001 -0.0395497 0)
(-0.868001 -0.0395497 0)
(-0.868001 -0.0395497 0)
(-0.868001 -0.0395497 0)
(-0.868001 -0.0395497 0)
(-0.868001 -0.0395497 0)
(-0.868001 -0.0395497 0)
(-0.868001 -0.0395497 0)
(-0.868001 -0.0395497 0)
(-0.868001 -0.0395497 0)
(-0.868001 -0.0395497 0)
(-0.868001 -0.0395497 0)
(-0.868001 -0.0395497 0)
(-0.868001 -0.0395497 0)
(-0.868001 -0.0395497 0)
(-0.868001 -0.0395497 0)
(-0.868001 -0.0395497 0)
(-0.868001 -0.0395497 0)
(-0.868001 -0.0395497 0)
(-0.868001 -0.0395497 0)
(-0.868001 -0.0395497 0)
(-0.868001 -0.0395497 0)
(-0.868001 -0.0395497 0)
(-0.868001 -0.0395497 0)
(-0.868001 -0.0395497 0)
(-0.868001 -0.0395497 0)
(-0.868001 -0.0395497 0)
(-0.868001 -0.0395497 0)
(-0.868001 -0.0395497 0)
(-0.868001 -0.0395497 0)
(-0.868001 -0.0395497 0)
(-0.868001 -0.0395497 0)
(-0.868001 -0.0395497 0)
(-0.868001 -0.0395497 0)
(-0.868001 -0.0395495 0)
(-0.868002 -0.0395411 0)
(-0.868004 -0.0391966 0)
(-0.868062 -0.0224997 0)
)
;

boundaryField
{
    inandouthalf11
    {
        type            cyclic;
    }
    inandouthalf12
    {
        type            cyclic;
    }
    inandouthalf21
    {
        type            cyclic;
    }
    inandouthalf22
    {
        type            cyclic;
    }
    inandouthalf31
    {
        type            cyclic;
    }
    inandouthalf32
    {
        type            cyclic;
    }
    inandouthalf41
    {
        type            cyclic;
    }
    inandouthalf42
    {
        type            cyclic;
    }
    top
    {
        type            symmetryPlane;
    }
    walls
    {
        type            fixedValue;
        value           uniform (0 0 0);
    }
    frontAndBackPlanes
    {
        type            empty;
    }
}


// ************************************************************************* //
