/*--------------------------------*- C++ -*----------------------------------*\
| =========                 |                                                 |
| \\      /  F ield         | OpenFOAM: The Open Source CFD Toolbox           |
|  \\    /   O peration     | Version:  2.4.x                                 |
|   \\  /    A nd           | Web:      www.OpenFOAM.org                      |
|    \\/     M anipulation  |                                                 |
\*---------------------------------------------------------------------------*/
FoamFile
{
    version     2.0;
    format      ascii;
    class       volVectorField;
    location    "6.1";
    object      Ua_0;
}
// * * * * * * * * * * * * * * * * * * * * * * * * * * * * * * * * * * * * * //

dimensions      [0 1 -1 0 0 0 0];

internalField   nonuniform List<vector> 
360
(
(-9.72506e-33 -9.37068e-32 0)
(-2.60622e-08 -1.78254e-07 0)
(-5.53928e-08 -3.28144e-07 0)
(-8.14343e-08 -4.55575e-07 0)
(-1.07443e-07 -5.85953e-07 0)
(-1.34576e-07 -7.22147e-07 0)
(-1.62455e-07 -8.60623e-07 0)
(-1.90739e-07 -9.99761e-07 0)
(-2.19345e-07 -1.13934e-06 0)
(-2.48302e-07 -1.27953e-06 0)
(-2.77665e-07 -1.42062e-06 0)
(-3.07469e-07 -1.56277e-06 0)
(-3.37722e-07 -1.70598e-06 0)
(-3.68418e-07 -1.85017e-06 0)
(-3.99549e-07 -1.99528e-06 0)
(-4.31118e-07 -2.1413e-06 0)
(-4.63133e-07 -2.28825e-06 0)
(-4.95606e-07 -2.43616e-06 0)
(-5.28542e-07 -2.58503e-06 0)
(-5.61949e-07 -2.73488e-06 0)
(-5.9583e-07 -2.88568e-06 0)
(-6.30189e-07 -3.03742e-06 0)
(-6.65033e-07 -3.19012e-06 0)
(-7.00364e-07 -3.34376e-06 0)
(-7.36183e-07 -3.4983e-06 0)
(-7.72489e-07 -3.65373e-06 0)
(-8.09277e-07 -3.80997e-06 0)
(-8.46549e-07 -3.96703e-06 0)
(-8.8431e-07 -4.12489e-06 0)
(-9.22563e-07 -4.28354e-06 0)
(-9.61322e-07 -4.44298e-06 0)
(-1.00061e-06 -4.60332e-06 0)
(-1.04047e-06 -4.76466e-06 0)
(-1.08095e-06 -4.92717e-06 0)
(-1.12212e-06 -5.0911e-06 0)
(-1.16403e-06 -5.25663e-06 0)
(-1.20675e-06 -5.42397e-06 0)
(-1.25033e-06 -5.59327e-06 0)
(-1.29479e-06 -5.76461e-06 0)
(-1.34009e-06 -5.93775e-06 0)
(-1.38613e-06 -6.11229e-06 0)
(-1.43276e-06 -6.28759e-06 0)
(-1.47971e-06 -6.4626e-06 0)
(-1.5267e-06 -6.63627e-06 0)
(-1.57344e-06 -6.80746e-06 0)
(-1.61965e-06 -6.97518e-06 0)
(-1.66516e-06 -7.13882e-06 0)
(-1.70997e-06 -7.29829e-06 0)
(-1.75427e-06 -7.45436e-06 0)
(-1.79857e-06 -7.60882e-06 0)
(-1.84363e-06 -7.76431e-06 0)
(-1.89056e-06 -7.92455e-06 0)
(-1.9409e-06 -8.09471e-06 0)
(-1.99673e-06 -8.28163e-06 0)
(-2.06075e-06 -8.49408e-06 0)
(-2.13625e-06 -8.74285e-06 0)
(-2.2267e-06 -9.03918e-06 0)
(-2.33424e-06 -9.39025e-06 0)
(-2.45693e-06 -9.79013e-06 0)
(-2.58543e-06 -1.02085e-05 0)
(-2.7031e-06 -1.05909e-05 0)
(-2.79302e-06 -1.08816e-05 0)
(-2.84837e-06 -1.10588e-05 0)
(-2.8753e-06 -1.11438e-05 0)
(-2.8857e-06 -1.11761e-05 0)
(-2.88895e-06 -1.1186e-05 0)
(-2.88981e-06 -1.11885e-05 0)
(-2.89002e-06 -1.11891e-05 0)
(-2.89007e-06 -1.11893e-05 0)
(-2.89008e-06 -1.11893e-05 0)
(-2.89008e-06 -1.11893e-05 0)
(-2.89008e-06 -1.11893e-05 0)
(-2.89008e-06 -1.11893e-05 0)
(-2.89008e-06 -1.11893e-05 0)
(-2.89008e-06 -1.11893e-05 0)
(-2.89008e-06 -1.11893e-05 0)
(-2.89008e-06 -1.11893e-05 0)
(-2.89008e-06 -1.11893e-05 0)
(-2.89008e-06 -1.11893e-05 0)
(-2.89008e-06 -1.11893e-05 0)
(-2.89008e-06 -1.11893e-05 0)
(-2.89008e-06 -1.11893e-05 0)
(-2.89008e-06 -1.11893e-05 0)
(-2.89008e-06 -1.11893e-05 0)
(-2.89008e-06 -1.11893e-05 0)
(-2.89008e-06 -1.11893e-05 0)
(-2.89008e-06 -1.11893e-05 0)
(-2.89008e-06 -1.11893e-05 0)
(-2.89008e-06 -1.11893e-05 0)
(-2.89008e-06 -1.11893e-05 0)
(-2.89008e-06 -1.11893e-05 0)
(-2.89009e-06 -1.11893e-05 0)
(-2.89009e-06 -1.11893e-05 0)
(-2.89009e-06 -1.11893e-05 0)
(-2.89009e-06 -1.11893e-05 0)
(-2.89009e-06 -1.11893e-05 0)
(-2.89009e-06 -1.11893e-05 0)
(-2.89009e-06 -1.11893e-05 0)
(-2.89009e-06 -1.11893e-05 0)
(-2.89009e-06 -1.11893e-05 0)
(-2.89009e-06 -1.11893e-05 0)
(-2.89009e-06 -1.11893e-05 0)
(-2.89009e-06 -1.11893e-05 0)
(-2.89009e-06 -1.11893e-05 0)
(-2.89009e-06 -1.11893e-05 0)
(-2.89009e-06 -1.11893e-05 0)
(-2.89009e-06 -1.11893e-05 0)
(-2.89009e-06 -1.11893e-05 0)
(-2.89009e-06 -1.11893e-05 0)
(-2.89009e-06 -1.11893e-05 0)
(-2.89009e-06 -1.11893e-05 0)
(-2.89009e-06 -1.11893e-05 0)
(-2.89009e-06 -1.11893e-05 0)
(-2.89009e-06 -1.11893e-05 0)
(-2.89009e-06 -1.11893e-05 0)
(-2.89009e-06 -1.11893e-05 0)
(-2.89009e-06 -1.11893e-05 0)
(-2.89009e-06 -1.11893e-05 0)
(-2.89009e-06 -1.11893e-05 0)
(-2.89009e-06 -1.11893e-05 0)
(-2.89009e-06 -1.11893e-05 0)
(-2.89009e-06 -1.11893e-05 0)
(-2.89009e-06 -1.11893e-05 0)
(-2.89009e-06 -1.11893e-05 0)
(-2.89009e-06 -1.11893e-05 0)
(-2.8901e-06 -1.11893e-05 0)
(-2.8901e-06 -1.11893e-05 0)
(-2.8901e-06 -1.11893e-05 0)
(-2.8901e-06 -1.11893e-05 0)
(-2.8901e-06 -1.11894e-05 0)
(-2.8901e-06 -1.11894e-05 0)
(-2.8901e-06 -1.11894e-05 0)
(-2.8901e-06 -1.11894e-05 0)
(-2.8901e-06 -1.11894e-05 0)
(-2.8901e-06 -1.11894e-05 0)
(-2.8901e-06 -1.11894e-05 0)
(-2.8901e-06 -1.11894e-05 0)
(-2.8901e-06 -1.11894e-05 0)
(-2.8901e-06 -1.11894e-05 0)
(-2.8901e-06 -1.11894e-05 0)
(-2.8901e-06 -1.11894e-05 0)
(-2.8901e-06 -1.11894e-05 0)
(-2.8901e-06 -1.11894e-05 0)
(-2.8901e-06 -1.11894e-05 0)
(-2.8901e-06 -1.11894e-05 0)
(-2.8901e-06 -1.11894e-05 0)
(-2.8901e-06 -1.11894e-05 0)
(-2.8901e-06 -1.11894e-05 0)
(-0.0389292 -6.753e-05 0)
(-0.135051 -0.000379443 0)
(-0.212424 -0.000504452 0)
(-0.272577 -0.000605575 0)
(-0.320832 -0.000697995 0)
(-0.360549 -0.000781301 0)
(-0.393931 -0.00085405 0)
(-0.422502 -0.000915438 0)
(-0.447348 -0.000964861 0)
(-0.469263 -0.00100196 0)
(-0.488828 -0.0010267 0)
(-0.506483 -0.00103926 0)
(-0.522558 -0.00104005 0)
(-0.537308 -0.00102954 0)
(-0.550934 -0.00100828 0)
(-0.563593 -0.000976785 0)
(-0.575413 -0.000935602 0)
(-0.586494 -0.000885227 0)
(-0.596921 -0.000826133 0)
(-0.606765 -0.00075876 0)
(-0.616081 -0.000683516 0)
(-0.62492 -0.000600775 0)
(-0.633322 -0.000510887 0)
(-0.641322 -0.000414169 0)
(-0.648949 -0.000310919 0)
(-0.656231 -0.000201407 0)
(-0.663188 -8.5885e-05 0)
(-0.669841 3.54172e-05 0)
(-0.676205 0.000162287 0)
(-0.682297 0.000294528 0)
(-0.688128 0.000431958 0)
(-0.693711 0.000574409 0)
(-0.699055 0.000721718 0)
(-0.704169 0.000873734 0)
(-0.709062 0.00103031 0)
(-0.713742 0.00119129 0)
(-0.718214 0.00135654 0)
(-0.722484 0.0015259 0)
(-0.72656 0.00169922 0)
(-0.730444 0.00187633 0)
(-0.734144 0.00205705 0)
(-0.737662 0.00224117 0)
(-0.741003 0.00242837 0)
(-0.744172 0.00261826 0)
(-0.747173 0.00281026 0)
(-0.750009 0.00300362 0)
(-0.752684 0.00319733 0)
(-0.755203 0.00339018 0)
(-0.75757 0.00358069 0)
(-0.759789 0.00376723 0)
(-0.761866 0.00394823 0)
(-0.763805 0.00412241 0)
(-0.765612 0.00428895 0)
(-0.767309 0.00444876 0)
(-0.768914 0.00460222 0)
(-0.770426 0.00474793 0)
(-0.771848 0.00488416 0)
(-0.773182 0.00500883 0)
(-0.774432 0.00512029 0)
(-0.775603 0.00521765 0)
(-0.7767 0.00530057 0)
(-0.77773 0.00536942 0)
(-0.778701 0.0054251 0)
(-0.779618 0.00546882 0)
(-0.780488 0.00550197 0)
(-0.781319 0.00552574 0)
(-0.782117 0.00554135 0)
(-0.782886 0.00555003 0)
(-0.783632 0.00555264 0)
(-0.78436 0.00554993 0)
(-0.785074 0.00554264 0)
(-0.785778 0.00553133 0)
(-0.786474 0.0055163 0)
(-0.787166 0.00549777 0)
(-0.787855 0.0054761 0)
(-0.788544 0.00545141 0)
(-0.789234 0.00542363 0)
(-0.789925 0.00539289 0)
(-0.790619 0.00535916 0)
(-0.791315 0.00532216 0)
(-0.792012 0.00528157 0)
(-0.792709 0.00523664 0)
(-0.793404 0.00518676 0)
(-0.794095 0.00512963 0)
(-0.794775 0.00506415 0)
(-0.795438 0.00498558 0)
(-0.796064 0.00489518 0)
(-0.796663 0.00476231 0)
(-0.797441 0.0045458 0)
(-0.891804 0.00121864 0)
(-0.893204 0.000252822 0)
(-0.891958 0.00966482 0)
(-0.890342 -0.0097853 0)
(-0.888964 -0.0395511 0)
(-0.887347 -0.0395773 0)
(-0.88583 -0.0395779 0)
(-0.88423 -0.0395789 0)
(-0.882582 -0.0395801 0)
(-0.880894 -0.0395812 0)
(-0.87918 -0.0395822 0)
(-0.877456 -0.0395829 0)
(-0.875739 -0.0395834 0)
(-0.874052 -0.0395833 0)
(-0.872423 -0.0395825 0)
(-0.870893 -0.0395804 0)
(-0.86951 -0.039576 0)
(-0.868467 -0.039566 0)
(-0.868064 -0.0395551 0)
(-0.868021 -0.0395502 0)
(-0.86802 -0.0395497 0)
(-0.86802 -0.0395497 0)
(-0.86802 -0.0395497 0)
(-0.868019 -0.0395497 0)
(-0.868019 -0.0395497 0)
(-0.868019 -0.0395497 0)
(-0.868019 -0.0395497 0)
(-0.868019 -0.0395497 0)
(-0.868019 -0.0395497 0)
(-0.868019 -0.0395497 0)
(-0.868019 -0.0395497 0)
(-0.868019 -0.0395497 0)
(-0.868019 -0.0395497 0)
(-0.868019 -0.0395497 0)
(-0.868019 -0.0395497 0)
(-0.868019 -0.0395497 0)
(-0.868019 -0.0395497 0)
(-0.868019 -0.0395497 0)
(-0.868019 -0.0395497 0)
(-0.868019 -0.0395497 0)
(-0.868019 -0.0395497 0)
(-0.868019 -0.0395497 0)
(-0.868019 -0.0395497 0)
(-0.868019 -0.0395497 0)
(-0.868019 -0.0395497 0)
(-0.868019 -0.0395497 0)
(-0.868019 -0.0395497 0)
(-0.868019 -0.0395497 0)
(-0.868019 -0.0395497 0)
(-0.868019 -0.0395497 0)
(-0.868019 -0.0395497 0)
(-0.868019 -0.0395497 0)
(-0.868019 -0.0395497 0)
(-0.868019 -0.0395497 0)
(-0.868019 -0.0395497 0)
(-0.868019 -0.0395497 0)
(-0.868019 -0.0395497 0)
(-0.868019 -0.0395497 0)
(-0.868019 -0.0395497 0)
(-0.868019 -0.0395497 0)
(-0.868019 -0.0395497 0)
(-0.868019 -0.0395497 0)
(-0.868019 -0.0395497 0)
(-0.868019 -0.0395497 0)
(-0.868019 -0.0395497 0)
(-0.868019 -0.0395497 0)
(-0.868019 -0.0395497 0)
(-0.868019 -0.0395497 0)
(-0.868019 -0.0395497 0)
(-0.868019 -0.0395497 0)
(-0.868019 -0.0395497 0)
(-0.868019 -0.0395497 0)
(-0.868019 -0.0395497 0)
(-0.868019 -0.0395497 0)
(-0.868019 -0.0395497 0)
(-0.868019 -0.0395497 0)
(-0.868019 -0.0395497 0)
(-0.868019 -0.0395497 0)
(-0.868019 -0.0395497 0)
(-0.868019 -0.0395497 0)
(-0.868019 -0.0395497 0)
(-0.868019 -0.0395497 0)
(-0.868019 -0.0395497 0)
(-0.868019 -0.0395497 0)
(-0.868019 -0.0395497 0)
(-0.868019 -0.0395497 0)
(-0.868019 -0.0395497 0)
(-0.868019 -0.0395497 0)
(-0.868019 -0.0395497 0)
(-0.868019 -0.0395497 0)
(-0.868019 -0.0395497 0)
(-0.868019 -0.0395497 0)
(-0.868019 -0.0395497 0)
(-0.868019 -0.0395497 0)
(-0.868019 -0.0395497 0)
(-0.868019 -0.0395497 0)
(-0.868019 -0.0395497 0)
(-0.868019 -0.0395497 0)
(-0.868019 -0.0395497 0)
(-0.868019 -0.0395497 0)
(-0.868019 -0.0395497 0)
(-0.868019 -0.0395497 0)
(-0.868019 -0.0395497 0)
(-0.868019 -0.0395497 0)
(-0.868019 -0.0395497 0)
(-0.868019 -0.0395497 0)
(-0.868019 -0.0395497 0)
(-0.868019 -0.0395497 0)
(-0.868019 -0.0395497 0)
(-0.868019 -0.0395497 0)
(-0.868019 -0.0395497 0)
(-0.868019 -0.0395497 0)
(-0.868019 -0.0395497 0)
(-0.868019 -0.0395497 0)
(-0.868019 -0.0395497 0)
(-0.868019 -0.0395497 0)
(-0.868019 -0.0395497 0)
(-0.868019 -0.0395497 0)
(-0.868019 -0.0395497 0)
(-0.868019 -0.0395495 0)
(-0.868019 -0.0395411 0)
(-0.868022 -0.0391966 0)
(-0.86808 -0.0224997 0)
)
;

boundaryField
{
    inandouthalf11
    {
        type            cyclic;
    }
    inandouthalf12
    {
        type            cyclic;
    }
    inandouthalf21
    {
        type            cyclic;
    }
    inandouthalf22
    {
        type            cyclic;
    }
    inandouthalf31
    {
        type            cyclic;
    }
    inandouthalf32
    {
        type            cyclic;
    }
    inandouthalf41
    {
        type            cyclic;
    }
    inandouthalf42
    {
        type            cyclic;
    }
    top
    {
        type            symmetryPlane;
    }
    walls
    {
        type            fixedValue;
        value           uniform (0 0 0);
    }
    frontAndBackPlanes
    {
        type            empty;
    }
}


// ************************************************************************* //
