/*--------------------------------*- C++ -*----------------------------------*\
| =========                 |                                                 |
| \\      /  F ield         | OpenFOAM: The Open Source CFD Toolbox           |
|  \\    /   O peration     | Version:  2.4.x                                 |
|   \\  /    A nd           | Web:      www.OpenFOAM.org                      |
|    \\/     M anipulation  |                                                 |
\*---------------------------------------------------------------------------*/
FoamFile
{
    version     2.0;
    format      ascii;
    class       volVectorField;
    location    "8.35";
    object      ddt0(Ua);
}
// * * * * * * * * * * * * * * * * * * * * * * * * * * * * * * * * * * * * * //

dimensions      [0 1 -2 0 0 0 0];

internalField   nonuniform List<vector> 
360
(
(6.3412e-33 1.15053e-34 0)
(-6.6687e-09 4.56886e-08 0)
(-1.34817e-08 8.21563e-08 0)
(-1.90249e-08 1.13267e-07 0)
(-2.41198e-08 1.45223e-07 0)
(-2.89509e-08 1.78068e-07 0)
(-3.33633e-08 2.10518e-07 0)
(-3.7239e-08 2.42032e-07 0)
(-4.05256e-08 2.72468e-07 0)
(-4.3198e-08 3.01762e-07 0)
(-4.52437e-08 3.29868e-07 0)
(-4.6657e-08 3.56743e-07 0)
(-4.74397e-08 3.82348e-07 0)
(-4.76023e-08 4.06672e-07 0)
(-4.71644e-08 4.29731e-07 0)
(-4.6154e-08 4.51572e-07 0)
(-4.46058e-08 4.72263e-07 0)
(-4.25594e-08 4.91883e-07 0)
(-4.00588e-08 5.10521e-07 0)
(-3.71505e-08 5.28278e-07 0)
(-3.38835e-08 5.4526e-07 0)
(-3.03082e-08 5.61578e-07 0)
(-2.6475e-08 5.77351e-07 0)
(-2.24344e-08 5.92697e-07 0)
(-1.82358e-08 6.07735e-07 0)
(-1.39267e-08 6.22578e-07 0)
(-9.55252e-09 6.37338e-07 0)
(-5.15576e-09 6.52124e-07 0)
(-7.75654e-10 6.67036e-07 0)
(3.55185e-09 6.82168e-07 0)
(7.79467e-09 6.97603e-07 0)
(1.19247e-08 7.13418e-07 0)
(1.59176e-08 7.29681e-07 0)
(1.9753e-08 7.4645e-07 0)
(2.34146e-08 7.63777e-07 0)
(2.68893e-08 7.81697e-07 0)
(3.01678e-08 8.00241e-07 0)
(3.32439e-08 8.19435e-07 0)
(3.61147e-08 8.39297e-07 0)
(3.87796e-08 8.5983e-07 0)
(4.12407e-08 8.81036e-07 0)
(4.35022e-08 9.02917e-07 0)
(4.55703e-08 9.25453e-07 0)
(4.74526e-08 9.48633e-07 0)
(4.9158e-08 9.72445e-07 0)
(5.06966e-08 9.96864e-07 0)
(5.20796e-08 1.02187e-06 0)
(5.33186e-08 1.04741e-06 0)
(5.44253e-08 1.07348e-06 0)
(5.54116e-08 1.10005e-06 0)
(5.62892e-08 1.12709e-06 0)
(5.70705e-08 1.15456e-06 0)
(5.77675e-08 1.18243e-06 0)
(5.83922e-08 1.21068e-06 0)
(5.89562e-08 1.23927e-06 0)
(5.94712e-08 1.26817e-06 0)
(5.99484e-08 1.29735e-06 0)
(6.03989e-08 1.32677e-06 0)
(6.08332e-08 1.35641e-06 0)
(6.12608e-08 1.38622e-06 0)
(6.16902e-08 1.41618e-06 0)
(6.21292e-08 1.44629e-06 0)
(6.25853e-08 1.47652e-06 0)
(6.30662e-08 1.50684e-06 0)
(6.35799e-08 1.53724e-06 0)
(6.41344e-08 1.56767e-06 0)
(6.47375e-08 1.59812e-06 0)
(6.53966e-08 1.62855e-06 0)
(6.61189e-08 1.65895e-06 0)
(6.69105e-08 1.68927e-06 0)
(6.77766e-08 1.71952e-06 0)
(6.87217e-08 1.74968e-06 0)
(6.97504e-08 1.77974e-06 0)
(7.0867e-08 1.80967e-06 0)
(7.20764e-08 1.83949e-06 0)
(7.3384e-08 1.86916e-06 0)
(7.47957e-08 1.89867e-06 0)
(7.63177e-08 1.92797e-06 0)
(7.7956e-08 1.95706e-06 0)
(7.97161e-08 1.98591e-06 0)
(8.16024e-08 2.0145e-06 0)
(8.36187e-08 2.04282e-06 0)
(8.57685e-08 2.07087e-06 0)
(8.80547e-08 2.09865e-06 0)
(9.04808e-08 2.12616e-06 0)
(9.30505e-08 2.15339e-06 0)
(9.57681e-08 2.18033e-06 0)
(9.86382e-08 2.20697e-06 0)
(1.01665e-07 2.23329e-06 0)
(1.04854e-07 2.25927e-06 0)
(1.08209e-07 2.28491e-06 0)
(1.11734e-07 2.31019e-06 0)
(1.15431e-07 2.33512e-06 0)
(1.19304e-07 2.35971e-06 0)
(1.23356e-07 2.38395e-06 0)
(1.27589e-07 2.40786e-06 0)
(1.32006e-07 2.43146e-06 0)
(1.36611e-07 2.45473e-06 0)
(1.41406e-07 2.47769e-06 0)
(1.46394e-07 2.50033e-06 0)
(1.51578e-07 2.52267e-06 0)
(1.56961e-07 2.5447e-06 0)
(1.62547e-07 2.56644e-06 0)
(1.68338e-07 2.58788e-06 0)
(1.7434e-07 2.60904e-06 0)
(1.80557e-07 2.62992e-06 0)
(1.86999e-07 2.65053e-06 0)
(1.93675e-07 2.67087e-06 0)
(2.006e-07 2.69093e-06 0)
(2.07793e-07 2.7107e-06 0)
(2.1528e-07 2.73017e-06 0)
(2.23089e-07 2.7493e-06 0)
(2.31253e-07 2.76808e-06 0)
(2.39808e-07 2.78648e-06 0)
(2.48784e-07 2.80451e-06 0)
(2.58202e-07 2.8222e-06 0)
(2.68069e-07 2.83962e-06 0)
(2.78359e-07 2.85692e-06 0)
(2.89014e-07 2.87436e-06 0)
(2.99925e-07 2.89228e-06 0)
(3.10931e-07 2.91115e-06 0)
(3.21814e-07 2.93152e-06 0)
(3.32316e-07 2.95398e-06 0)
(3.42161e-07 2.97909e-06 0)
(3.51106e-07 3.00719e-06 0)
(3.59017e-07 3.03822e-06 0)
(3.65967e-07 3.0714e-06 0)
(3.72366e-07 3.10497e-06 0)
(3.79078e-07 3.1357e-06 0)
(3.87564e-07 3.15862e-06 0)
(3.99893e-07 3.16673e-06 0)
(4.18749e-07 3.15115e-06 0)
(4.47023e-07 3.10178e-06 0)
(4.8745e-07 3.00895e-06 0)
(5.41012e-07 2.86633e-06 0)
(6.05429e-07 2.67781e-06 0)
(6.70921e-07 2.46677e-06 0)
(7.21246e-07 2.28273e-06 0)
(7.33804e-07 2.18949e-06 0)
(6.99172e-07 2.23518e-06 0)
(6.30172e-07 2.38674e-06 0)
(5.77502e-07 2.52093e-06 0)
(5.51671e-07 2.56504e-06 0)
(5.45413e-07 2.57288e-06 0)
(5.26365e-07 2.56539e-06 0)
(3.55825e-07 2.4148e-06 0)
(0.293171 0.0930646 0)
(0.386355 0.00888963 0)
(0.314006 -0.00519983 0)
(0.264056 -0.00305652 0)
(0.24205 -0.00118366 0)
(0.236996 0.000312328 0)
(0.242402 0.00163717 0)
(0.253906 0.00297348 0)
(0.268823 0.0043429 0)
(0.285595 0.0057275 0)
(0.303438 0.00708375 0)
(0.322066 0.00835188 0)
(0.34153 0.00946698 0)
(0.362115 0.0103699 0)
(0.384269 0.0110136 0)
(0.408544 0.0113678 0)
(0.435534 0.011427 0)
(0.465791 0.011225 0)
(0.499717 0.0108512 0)
(0.537427 0.0104548 0)
(0.578621 0.010231 0)
(0.62248 0.010412 0)
(0.667656 0.0112995 0)
(0.712379 0.0132815 0)
(0.754701 0.0166346 0)
(0.792872 0.0211162 0)
(0.825768 0.0258388 0)
(0.853154 0.029753 0)
(0.875557 0.0322595 0)
(0.893881 0.0333604 0)
(0.909036 0.0334043 0)
(0.921774 0.0327923 0)
(0.932657 0.0318317 0)
(0.942095 0.0307172 0)
(0.950384 0.0295589 0)
(0.957746 0.0284147 0)
(0.964345 0.0273131 0)
(0.970308 0.0262662 0)
(0.975733 0.0252777 0)
(0.980697 0.0243467 0)
(0.985263 0.0234707 0)
(0.989479 0.022646 0)
(0.993388 0.021869 0)
(0.997021 0.021136 0)
(1.00041 0.0204439 0)
(1.00357 0.0197897 0)
(1.00653 0.0191709 0)
(1.0093 0.0185851 0)
(1.01189 0.0180304 0)
(1.01432 0.0175053 0)
(1.01661 0.0170084 0)
(1.01874 0.0165385 0)
(1.02075 0.0160948 0)
(1.02262 0.0156767 0)
(1.02438 0.0152838 0)
(1.02603 0.014912 0)
(1.0276 0.0145581 0)
(1.02909 0.0142231 0)
(1.03051 0.0139079 0)
(1.03185 0.0136134 0)
(1.03312 0.0133406 0)
(1.03432 0.0130902 0)
(1.03546 0.0128625 0)
(1.03653 0.0126576 0)
(1.03754 0.0124753 0)
(1.0385 0.0123151 0)
(1.03941 0.0121762 0)
(1.04028 0.012057 0)
(1.0411 0.0119556 0)
(1.04189 0.0118705 0)
(1.04264 0.0118 0)
(1.04337 0.0117423 0)
(1.04407 0.0116954 0)
(1.04474 0.0116581 0)
(1.0454 0.01163 0)
(1.04605 0.0116099 0)
(1.04667 0.0115966 0)
(1.04728 0.0115896 0)
(1.04788 0.0115888 0)
(1.04846 0.011593 0)
(1.04903 0.0116011 0)
(1.04958 0.0116121 0)
(1.05011 0.0116246 0)
(1.05062 0.011636 0)
(1.05111 0.0116428 0)
(1.05157 0.0116415 0)
(1.05199 0.0116263 0)
(1.05236 0.0115673 0)
(1.05264 0.011435 0)
(1.05286 0.0113165 0)
(1.0531 0.0112626 0)
(1.09947 0.0104275 0)
(1.10178 0.00988603 0)
(1.10285 0.0122799 0)
(1.1023 -0.0129563 0)
(1.10452 0.0513217 0)
(1.10219 -0.0766733 0)
(1.11181 0.0825697 0)
(1.09531 0.227229 0)
(1.10369 0.00959556 0)
(1.10379 -0.000340963 0)
(1.10361 -5.31306e-05 0)
(1.10323 -6.87138e-05 0)
(1.10262 -7.62028e-05 0)
(1.10178 -8.448e-05 0)
(1.10067 -9.30809e-05 0)
(1.09928 -0.000101824 0)
(1.0976 -0.000110417 0)
(1.09563 -0.000118518 0)
(1.09339 -0.000126151 0)
(1.09097 -0.000135084 0)
(1.08821 -0.000132505 0)
(1.08524 -0.000125222 0)
(1.08304 -0.000135667 0)
(1.08043 -0.000125837 0)
(1.07847 -0.000121701 0)
(1.07702 -0.00011954 0)
(1.0771 -0.000132843 0)
(1.07827 -0.000118933 0)
(1.07869 -9.99339e-05 0)
(1.07871 -9.53712e-05 0)
(1.07871 -9.51977e-05 0)
(1.07871 -9.51969e-05 0)
(1.07871 -9.51966e-05 0)
(1.07871 -9.51969e-05 0)
(1.07871 -9.51966e-05 0)
(1.07871 -9.5197e-05 0)
(1.07871 -9.51966e-05 0)
(1.07871 -9.5197e-05 0)
(1.07871 -9.51967e-05 0)
(1.07871 -9.5197e-05 0)
(1.07871 -9.51967e-05 0)
(1.07871 -9.51971e-05 0)
(1.07871 -9.51967e-05 0)
(1.07871 -9.51971e-05 0)
(1.07871 -9.51966e-05 0)
(1.07871 -9.51972e-05 0)
(1.07871 -9.51966e-05 0)
(1.07871 -9.51972e-05 0)
(1.07871 -9.51966e-05 0)
(1.07871 -9.51972e-05 0)
(1.07871 -9.51966e-05 0)
(1.07871 -9.51972e-05 0)
(1.07871 -9.51965e-05 0)
(1.07871 -9.51972e-05 0)
(1.07871 -9.51965e-05 0)
(1.07871 -9.51972e-05 0)
(1.07871 -9.51964e-05 0)
(1.07871 -9.51972e-05 0)
(1.07871 -9.51964e-05 0)
(1.07871 -9.51972e-05 0)
(1.07871 -9.51963e-05 0)
(1.07871 -9.51972e-05 0)
(1.07871 -9.51962e-05 0)
(1.07871 -9.51972e-05 0)
(1.07871 -9.51961e-05 0)
(1.07871 -9.51971e-05 0)
(1.07871 -9.5196e-05 0)
(1.07871 -9.51971e-05 0)
(1.07871 -9.51959e-05 0)
(1.07871 -9.51971e-05 0)
(1.07871 -9.51958e-05 0)
(1.07871 -9.5197e-05 0)
(1.07871 -9.51957e-05 0)
(1.07871 -9.51969e-05 0)
(1.07871 -9.51957e-05 0)
(1.07871 -9.51969e-05 0)
(1.07871 -9.51957e-05 0)
(1.07871 -9.51968e-05 0)
(1.07871 -9.51956e-05 0)
(1.07871 -9.51968e-05 0)
(1.07871 -9.51955e-05 0)
(1.07871 -9.51967e-05 0)
(1.07871 -9.51955e-05 0)
(1.07871 -9.51967e-05 0)
(1.07871 -9.51954e-05 0)
(1.07871 -9.51966e-05 0)
(1.07871 -9.51953e-05 0)
(1.07871 -9.51966e-05 0)
(1.07871 -9.51952e-05 0)
(1.07871 -9.51964e-05 0)
(1.07871 -9.51947e-05 0)
(1.07871 -9.51954e-05 0)
(1.07871 -9.51933e-05 0)
(1.07871 -9.51935e-05 0)
(1.07871 -9.51912e-05 0)
(1.07871 -9.51915e-05 0)
(1.07871 -9.51892e-05 0)
(1.07871 -9.51898e-05 0)
(1.07871 -9.51878e-05 0)
(1.07871 -9.51884e-05 0)
(1.07871 -9.51862e-05 0)
(1.07871 -9.51869e-05 0)
(1.07871 -9.51853e-05 0)
(1.07871 -9.51865e-05 0)
(1.07871 -9.5185e-05 0)
(1.07871 -9.51867e-05 0)
(1.07871 -9.51857e-05 0)
(1.07871 -9.51873e-05 0)
(1.07871 -9.51857e-05 0)
(1.07871 -9.51872e-05 0)
(1.07871 -9.51863e-05 0)
(1.07871 -9.51884e-05 0)
(1.07871 -9.51879e-05 0)
(1.07871 -9.51907e-05 0)
(1.07871 -9.5191e-05 0)
(1.07871 -9.51944e-05 0)
(1.07871 -9.51951e-05 0)
(1.07871 -9.51989e-05 0)
(1.07871 -9.51997e-05 0)
(1.07871 -9.52084e-05 0)
(1.07871 -9.53043e-05 0)
(1.07873 -9.73812e-05 0)
(1.07929 -0.000183047 0)
)
;

boundaryField
{
    inandouthalf11
    {
        type            cyclic;
    }
    inandouthalf12
    {
        type            cyclic;
    }
    inandouthalf21
    {
        type            cyclic;
    }
    inandouthalf22
    {
        type            cyclic;
    }
    inandouthalf31
    {
        type            cyclic;
    }
    inandouthalf32
    {
        type            cyclic;
    }
    inandouthalf41
    {
        type            cyclic;
    }
    inandouthalf42
    {
        type            cyclic;
    }
    top
    {
        type            symmetryPlane;
    }
    walls
    {
        type            calculated;
        value           uniform (0 0 0);
    }
    frontAndBackPlanes
    {
        type            empty;
    }
}


// ************************************************************************* //
