/*--------------------------------*- C++ -*----------------------------------*\
| =========                 |                                                 |
| \\      /  F ield         | OpenFOAM: The Open Source CFD Toolbox           |
|  \\    /   O peration     | Version:  2.4.x                                 |
|   \\  /    A nd           | Web:      www.OpenFOAM.org                      |
|    \\/     M anipulation  |                                                 |
\*---------------------------------------------------------------------------*/
FoamFile
{
    version     2.0;
    format      ascii;
    class       volVectorField;
    location    "8.35";
    object      gradPs;
}
// * * * * * * * * * * * * * * * * * * * * * * * * * * * * * * * * * * * * * //

dimensions      [0 1 -2 0 0 0 0];

internalField   nonuniform List<vector> 
360
(
(0 1.54738e-18 0)
(0 1.70199e-18 0)
(0 -2.86197e-21 0)
(0 -2.34441e-19 0)
(-2.90083e-32 -9.86876e-20 0)
(-2.9009e-32 -5.44956e-20 0)
(-1.45049e-32 -7.03509e-20 0)
(0 -8.06184e-20 0)
(-1.4506e-32 -8.24182e-20 0)
(0 -8.3558e-20 0)
(-2.90142e-32 -8.41299e-20 0)
(0 -8.46575e-20 0)
(-1.45082e-32 -8.55266e-20 0)
(0 -8.63801e-20 0)
(0 -8.74492e-20 0)
(0 -8.85077e-20 0)
(0 -8.93348e-20 0)
(-1.45111e-32 -9.00554e-20 0)
(0 -9.11421e-20 0)
(0 -9.18715e-20 0)
(0 -9.26173e-20 0)
(-2.9027e-32 -9.37082e-20 0)
(0 -9.44541e-20 0)
(0 -9.53299e-20 0)
(0 -9.62182e-20 0)
(-1.4516e-32 -9.68942e-20 0)
(0 -9.78705e-20 0)
(0 -9.88832e-20 0)
(0 -9.95505e-20 0)
(0 -1.00351e-19 0)
(0 -1.01555e-19 0)
(0 -1.0208e-19 0)
(0 -1.03176e-19 0)
(0 -1.04299e-19 0)
(0 -1.04931e-19 0)
(1.45227e-32 -1.05936e-19 0)
(0 -1.06873e-19 0)
(0 -1.08393e-19 0)
(0 -1.08747e-19 0)
(0 -1.09937e-19 0)
(0 -1.11637e-19 0)
(0 -1.11831e-19 0)
(2.90555e-32 -1.13364e-19 0)
(0 -1.14756e-19 0)
(0 -1.15571e-19 0)
(0 -1.1728e-19 0)
(0 -1.179e-19 0)
(0 -1.1895e-19 0)
(0 -1.21339e-19 0)
(0 -1.22079e-19 0)
(2.90681e-32 -1.23091e-19 0)
(0 -1.24898e-19 0)
(0 -1.26339e-19 0)
(0 -1.27469e-19 0)
(0 -1.29274e-19 0)
(0 -1.30738e-19 0)
(0 -1.32112e-19 0)
(0 -1.34146e-19 0)
(0 -1.34893e-19 0)
(0 -1.37179e-19 0)
(0 -1.38954e-19 0)
(0 -1.40426e-19 0)
(0 -1.42535e-19 0)
(0 -1.4408e-19 0)
(0 -1.45875e-19 0)
(0 -1.47824e-19 0)
(0 -1.50077e-19 0)
(0 -1.51914e-19 0)
(0 -1.5335e-19 0)
(0 -1.55811e-19 0)
(0 -1.58781e-19 0)
(0 -1.60019e-19 0)
(0 -1.62204e-19 0)
(0 -1.65037e-19 0)
(0 -1.67462e-19 0)
(0 -1.69756e-19 0)
(0 -1.71803e-19 0)
(0 -1.74627e-19 0)
(0 -1.77402e-19 0)
(0 -1.79868e-19 0)
(0 -1.82568e-19 0)
(0 -1.85649e-19 0)
(0 -1.88565e-19 0)
(0 -1.91578e-19 0)
(0 -1.94687e-19 0)
(0 -1.97911e-19 0)
(0 -2.01171e-19 0)
(0 -2.0442e-19 0)
(0 -2.07916e-19 0)
(0 -2.11534e-19 0)
(0 -2.15206e-19 0)
(0 -2.1908e-19 0)
(0 -2.23127e-19 0)
(0 -2.27253e-19 0)
(0 -2.31511e-19 0)
(0 -2.35908e-19 0)
(0 -2.40433e-19 0)
(0 -2.45107e-19 0)
(0 -2.49962e-19 0)
(0 -2.55005e-19 0)
(0 -2.60242e-19 0)
(0 -2.65694e-19 0)
(0 -2.71364e-19 0)
(0 -2.77248e-19 0)
(0 -2.8336e-19 0)
(0 -2.8971e-19 0)
(0 -2.96311e-19 0)
(0 -3.03176e-19 0)
(0 -3.10319e-19 0)
(0 -3.17754e-19 0)
(0 -3.25491e-19 0)
(0 -3.33546e-19 0)
(0 -3.41932e-19 0)
(0 -3.50668e-19 0)
(0 -3.59773e-19 0)
(0 -3.69272e-19 0)
(0 -3.79194e-19 0)
(0 -3.89579e-19 0)
(0 -4.00475e-19 0)
(0 -4.11938e-19 0)
(0 -4.24028e-19 0)
(0 -4.3681e-19 0)
(0 -4.50347e-19 0)
(0 -4.64715e-19 0)
(0 -4.80033e-19 0)
(0 -4.965e-19 0)
(0 -5.1439e-19 0)
(0 -5.33964e-19 0)
(0 -5.55239e-19 0)
(0 -5.77823e-19 0)
(0 -6.01263e-19 0)
(0 -6.26291e-19 0)
(0 -7.33306e-19 0)
(0 4.88738e-16 0)
(0 8.72423e-15 0)
(0 1.34138e-13 0)
(0 2.20204e-12 0)
(0 3.97122e-11 0)
(0 8.00364e-10 0)
(0 1.8276e-08 0)
(0 4.78454e-07 0)
(0 1.68309e-05 0)
(0 0.00188095 0)
(0 0.123225 0)
(0 2.15723 0)
(0 7.20648 0)
(0 6.1153 0)
(0 -1.52842 0)
(0 -3.25988 0)
(0 -4.55588 0)
(0 -4.90869 0)
(0 -4.94669 0)
(0 -4.91076 0)
(0 -4.83552 0)
(0 -4.73958 0)
(0 -4.63475 0)
(0 -4.52902 0)
(0 -4.42542 0)
(0 -4.32386 0)
(0 -4.22422 0)
(0 -4.12481 0)
(0 -4.02335 0)
(0 -3.91737 0)
(0 -3.80457 0)
(0 -3.68315 0)
(0 -3.55206 0)
(0 -3.4112 0)
(0 -3.26205 0)
(0 -3.10841 0)
(0 -2.95564 0)
(0 -2.80493 0)
(0 -2.64498 0)
(0 -2.45353 0)
(0 -2.21621 0)
(0 -1.94498 0)
(0 -1.67238 0)
(0 -1.4281 0)
(0 -1.22497 0)
(0 -1.06191 0)
(0 -0.932063 0)
(0 -0.828053 0)
(0 -0.743781 0)
(0 -0.674624 0)
(0 -0.617162 0)
(0 -0.568867 0)
(0 -0.527853 0)
(0 -0.492697 0)
(0 -0.462309 0)
(0 -0.435846 0)
(0 -0.412643 0)
(0 -0.392171 0)
(0 -0.374005 0)
(0 -0.357803 0)
(0 -0.34329 0)
(0 -0.330246 0)
(0 -0.318491 0)
(0 -0.307882 0)
(0 -0.298307 0)
(0 -0.289679 0)
(0 -0.281924 0)
(0 -0.274922 0)
(0 -0.268501 0)
(-2.15399e-16 -0.262518 0)
(0 -0.256912 0)
(0 -0.251641 0)
(1.22277e-16 -0.246604 0)
(0 -0.241634 0)
(-1.33625e-16 -0.236531 0)
(0 -0.231093 0)
(7.32584e-17 -0.225126 0)
(0 -0.218445 0)
(0 -0.21092 0)
(0 -0.202317 0)
(8.84683e-17 -0.192389 0)
(0 -0.181268 0)
(0 -0.169236 0)
(0 -0.156281 0)
(0 -0.142555 0)
(0 -0.12854 0)
(-2.81374e-17 -0.114694 0)
(0 -0.101234 0)
(-2.96925e-17 -0.0881861 0)
(0 -0.0759129 0)
(-1.54103e-17 -0.0647356 0)
(0 -0.0545603 0)
(0 -0.0454259 0)
(0 -0.0374414 0)
(0 -0.0305333 0)
(7.92e-18 -0.0246501 0)
(3.94499e-18 -0.0196502 0)
(0 -0.015526 0)
(0 -0.0121274 0)
(0 -0.00933279 0)
(0 -0.0068703 0)
(0 -0.00526545 0)
(0 -0.00519237 0)
(0 -0.00272807 0)
(0 0 0)
(0 0 0)
(0 0 0)
(0 0 0)
(0 0 0)
(0 0 0)
(0 0 0)
(0 0 0)
(0 0 0)
(0 0 0)
(0 0 0)
(0 0 0)
(0 0 0)
(0 0 0)
(0 0 0)
(0 0 0)
(0 0 0)
(0 0 0)
(0 0 0)
(0 0 0)
(0 0 0)
(0 0 0)
(0 0 0)
(0 0 0)
(0 0 0)
(0 0 0)
(0 0 0)
(0 0 0)
(0 0 0)
(0 0 0)
(0 0 0)
(0 0 0)
(0 0 0)
(0 0 0)
(0 0 0)
(0 0 0)
(0 0 0)
(0 0 0)
(0 0 0)
(0 0 0)
(0 0 0)
(0 0 0)
(0 0 0)
(0 0 0)
(0 0 0)
(0 0 0)
(0 0 0)
(0 0 0)
(0 0 0)
(0 0 0)
(0 0 0)
(0 0 0)
(0 0 0)
(0 0 0)
(0 0 0)
(0 0 0)
(0 0 0)
(0 0 0)
(0 0 0)
(0 0 0)
(0 0 0)
(0 0 0)
(0 0 0)
(0 0 0)
(0 0 0)
(0 0 0)
(0 0 0)
(0 0 0)
(0 0 0)
(0 0 0)
(0 0 0)
(0 0 0)
(0 0 0)
(0 0 0)
(0 0 0)
(0 0 0)
(0 0 0)
(0 0 0)
(0 0 0)
(0 0 0)
(0 0 0)
(0 0 0)
(0 0 0)
(0 0 0)
(0 0 0)
(0 0 0)
(0 0 0)
(0 0 0)
(0 0 0)
(0 0 0)
(0 0 0)
(0 0 0)
(0 0 0)
(0 0 0)
(0 0 0)
(0 0 0)
(0 0 0)
(0 0 0)
(0 0 0)
(0 0 0)
(0 0 0)
(0 0 0)
(0 0 0)
(0 0 0)
(0 0 0)
(0 0 0)
(0 0 0)
(0 0 0)
(0 0 0)
(0 0 0)
(0 0 0)
(0 0 0)
(0 0 0)
(0 0 0)
(0 0 0)
(0 0 0)
(0 0 0)
(0 0 0)
(0 0 0)
(0 0 0)
(0 0 0)
(0 0 0)
(0 0 0)
)
;

boundaryField
{
    inandouthalf11
    {
        type            cyclic;
    }
    inandouthalf12
    {
        type            cyclic;
    }
    inandouthalf21
    {
        type            cyclic;
    }
    inandouthalf22
    {
        type            cyclic;
    }
    inandouthalf31
    {
        type            cyclic;
    }
    inandouthalf32
    {
        type            cyclic;
    }
    inandouthalf41
    {
        type            cyclic;
    }
    inandouthalf42
    {
        type            cyclic;
    }
    top
    {
        type            symmetryPlane;
    }
    walls
    {
        type            calculated;
        value           uniform (0 0 0);
    }
    frontAndBackPlanes
    {
        type            empty;
    }
}


// ************************************************************************* //
