/*--------------------------------*- C++ -*----------------------------------*\
| =========                 |                                                 |
| \\      /  F ield         | OpenFOAM: The Open Source CFD Toolbox           |
|  \\    /   O peration     | Version:  2.4.x                                 |
|   \\  /    A nd           | Web:      www.OpenFOAM.org                      |
|    \\/     M anipulation  |                                                 |
\*---------------------------------------------------------------------------*/
FoamFile
{
    version     2.0;
    format      ascii;
    class       volScalarField;
    location    "8.35";
    object      pa;
}
// * * * * * * * * * * * * * * * * * * * * * * * * * * * * * * * * * * * * * //

dimensions      [1 -1 -2 0 0 0 0];

internalField   nonuniform List<scalar> 
360
(
2.90277e-16
2.92781e-16
2.93035e-16
2.92777e-16
2.92655e-16
2.92617e-16
2.92567e-16
2.92503e-16
2.92436e-16
2.92369e-16
2.92301e-16
2.92233e-16
2.92164e-16
2.92094e-16
2.92024e-16
2.91953e-16
2.9188e-16
2.91808e-16
2.91735e-16
2.9166e-16
2.91586e-16
2.9151e-16
2.91434e-16
2.91357e-16
2.91279e-16
2.91201e-16
2.91123e-16
2.91043e-16
2.90962e-16
2.90882e-16
2.908e-16
2.90717e-16
2.90635e-16
2.9055e-16
2.90466e-16
2.9038e-16
2.90294e-16
2.90207e-16
2.90119e-16
2.90031e-16
2.89941e-16
2.8985e-16
2.8976e-16
2.89667e-16
2.89574e-16
2.8948e-16
2.89384e-16
2.89289e-16
2.89192e-16
2.89093e-16
2.88995e-16
2.88894e-16
2.88793e-16
2.8869e-16
2.88586e-16
2.8848e-16
2.88375e-16
2.88267e-16
2.88158e-16
2.88049e-16
2.87936e-16
2.87824e-16
2.87709e-16
2.87594e-16
2.87476e-16
2.87358e-16
2.87238e-16
2.87115e-16
2.86992e-16
2.86868e-16
2.8674e-16
2.86611e-16
2.86482e-16
2.86349e-16
2.86215e-16
2.86079e-16
2.85941e-16
2.85801e-16
2.85659e-16
2.85515e-16
2.85369e-16
2.8522e-16
2.85069e-16
2.84916e-16
2.8476e-16
2.84602e-16
2.84441e-16
2.84277e-16
2.84111e-16
2.83942e-16
2.8377e-16
2.83595e-16
2.83416e-16
2.83235e-16
2.8305e-16
2.82862e-16
2.8267e-16
2.82474e-16
2.82275e-16
2.82071e-16
2.81864e-16
2.81652e-16
2.81436e-16
2.81215e-16
2.8099e-16
2.80759e-16
2.80523e-16
2.80282e-16
2.80035e-16
2.79783e-16
2.79524e-16
2.79259e-16
2.78988e-16
2.78709e-16
2.78424e-16
2.78131e-16
2.7783e-16
2.77521e-16
2.77204e-16
2.76878e-16
2.76543e-16
2.76197e-16
2.75841e-16
2.75474e-16
2.75095e-16
2.74704e-16
2.74299e-16
2.73879e-16
2.73443e-16
2.72989e-16
2.72517e-16
2.72026e-16
2.71514e-16
2.70852e-16
1.05366e-15
1.42277e-14
2.15564e-13
3.53431e-12
6.36713e-11
1.28184e-09
2.92378e-08
7.64608e-07
2.68664e-05
0.00299797
0.196213
3.43383
11.6249
11.2158
10.344
9.00126
7.63932
6.40737
5.31824
4.3708
3.55776
2.86823
2.28978
1.80928
1.4143
1.09303
0.834627
0.629276
0.468211
0.343669
0.248843
0.177818
0.125522
0.0876716
0.0607173
0.0417881
0.028644
0.0196189
0.0135145
0.00945826
0.00679591
0.00504478
0.00387127
0.00306084
0.00248183
0.00205444
0.00172966
0.00147661
0.00127517
0.00111184
0.000977312
0.000864971
0.000770033
0.000688954
0.000619065
0.000558323
0.000505139
0.000458265
0.000416705
0.000379658
0.000346471
0.000316608
0.000289625
0.000265149
0.000242867
0.000222512
0.000203858
0.000186543
0.000170297
0.000155049
0.000140731
0.000127288
0.000114674
0.000102853
9.18033e-05
8.15065e-05
7.19517e-05
6.31291e-05
5.50285e-05
4.76478e-05
4.09823e-05
3.5007e-05
2.96922e-05
2.50126e-05
2.0929e-05
1.73925e-05
1.43485e-05
1.17499e-05
9.5543e-06
7.70749e-06
6.16396e-06
4.8862e-06
3.83573e-06
2.97724e-06
2.28203e-06
1.72151e-06
1.27728e-06
9.22546e-07
6.48114e-07
4.33295e-07
2.83888e-07
1.49686e-07
0
0
0
0
0
0
0
0
0
0
0
0
0
0
0
0
0
0
0
0
0
0
0
0
0
0
0
0
0
0
0
0
0
0
0
0
0
0
0
0
0
0
0
0
0
0
0
0
0
0
0
0
0
0
0
0
0
0
0
0
0
0
0
0
0
0
0
0
0
0
0
0
0
0
0
0
0
0
0
0
0
0
0
0
0
0
0
0
0
0
0
0
0
0
0
0
0
0
0
0
0
0
0
0
0
0
0
0
0
0
0
0
0
0
0
0
0
0
0
0
0
0
0
0
)
;

boundaryField
{
    inandouthalf11
    {
        type            cyclic;
    }
    inandouthalf12
    {
        type            cyclic;
    }
    inandouthalf21
    {
        type            cyclic;
    }
    inandouthalf22
    {
        type            cyclic;
    }
    inandouthalf31
    {
        type            cyclic;
    }
    inandouthalf32
    {
        type            cyclic;
    }
    inandouthalf41
    {
        type            cyclic;
    }
    inandouthalf42
    {
        type            cyclic;
    }
    top
    {
        type            symmetryPlane;
    }
    walls
    {
        type            calculated;
        value           uniform 2.90277e-16;
    }
    frontAndBackPlanes
    {
        type            empty;
    }
}


// ************************************************************************* //
