/*--------------------------------*- C++ -*----------------------------------*\
| =========                 |                                                 |
| \\      /  F ield         | OpenFOAM: The Open Source CFD Toolbox           |
|  \\    /   O peration     | Version:  2.4.x                                 |
|   \\  /    A nd           | Web:      www.OpenFOAM.org                      |
|    \\/     M anipulation  |                                                 |
\*---------------------------------------------------------------------------*/
FoamFile
{
    version     2.0;
    format      ascii;
    class       surfaceScalarField;
    location    "8.35";
    object      phia_0;
}
// * * * * * * * * * * * * * * * * * * * * * * * * * * * * * * * * * * * * * //

dimensions      [0 3 -1 0 0 0 0];

internalField   nonuniform List<scalar> 
359
(
-1.36636e-13
-3.44662e-13
-5.40415e-13
-7.31727e-13
-9.30758e-13
-1.13603e-12
-1.34385e-12
-1.55275e-12
-1.76248e-12
-1.97306e-12
-2.18439e-12
-2.39617e-12
-2.60813e-12
-2.81999e-12
-3.03157e-12
-3.2427e-12
-3.45325e-12
-3.66304e-12
-3.87191e-12
-4.07976e-12
-4.28642e-12
-4.49182e-12
-4.69587e-12
-4.89849e-12
-5.09964e-12
-5.29926e-12
-5.49733e-12
-5.69386e-12
-5.88885e-12
-6.08231e-12
-6.27425e-12
-6.46475e-12
-6.65378e-12
-6.84149e-12
-7.02785e-12
-7.21296e-12
-7.39684e-12
-7.57959e-12
-7.76131e-12
-7.94194e-12
-8.12166e-12
-8.30047e-12
-8.47838e-12
-8.65554e-12
-8.83193e-12
-9.00762e-12
-9.18264e-12
-9.35693e-12
-9.53061e-12
-9.70375e-12
-9.87626e-12
-1.00482e-11
-1.02196e-11
-1.03905e-11
-1.05608e-11
-1.07306e-11
-1.08997e-11
-1.10684e-11
-1.12364e-11
-1.14037e-11
-1.15704e-11
-1.17365e-11
-1.1902e-11
-1.20668e-11
-1.22309e-11
-1.23942e-11
-1.25568e-11
-1.27185e-11
-1.28794e-11
-1.30393e-11
-1.31983e-11
-1.33565e-11
-1.35135e-11
-1.36697e-11
-1.38248e-11
-1.39789e-11
-1.41318e-11
-1.42836e-11
-1.44341e-11
-1.45833e-11
-1.47311e-11
-1.48776e-11
-1.50228e-11
-1.51665e-11
-1.53089e-11
-1.54498e-11
-1.55893e-11
-1.57273e-11
-1.58637e-11
-1.59984e-11
-1.61314e-11
-1.62628e-11
-1.63924e-11
-1.65203e-11
-1.66466e-11
-1.67711e-11
-1.68939e-11
-1.70149e-11
-1.71342e-11
-1.72517e-11
-1.73675e-11
-1.74814e-11
-1.75935e-11
-1.77038e-11
-1.78123e-11
-1.79191e-11
-1.80241e-11
-1.81275e-11
-1.82293e-11
-1.83296e-11
-1.84285e-11
-1.85262e-11
-1.86229e-11
-1.87188e-11
-1.8814e-11
-1.89088e-11
-1.90034e-11
-1.90981e-11
-1.9193e-11
-1.92883e-11
-1.9384e-11
-1.94802e-11
-1.95768e-11
-1.96734e-11
-1.977e-11
-1.9866e-11
-1.99614e-11
-2.0056e-11
-2.01498e-11
-2.0243e-11
-2.03363e-11
-2.04302e-11
-2.05261e-11
-2.06254e-11
-2.07297e-11
-2.08395e-11
-2.09532e-11
-2.10667e-11
-2.11723e-11
-2.12578e-11
-2.13106e-11
-2.13314e-11
-2.13361e-11
-2.13365e-11
-2.1336e-11
5.86376e-10
6.69604e-09
1.33228e-08
1.72576e-08
2.00047e-08
2.23104e-08
2.4449e-08
2.64758e-08
2.8426e-08
3.0319e-08
3.2167e-08
3.39764e-08
3.57507e-08
3.74928e-08
3.9203e-08
4.08797e-08
4.25192e-08
4.41149e-08
4.56558e-08
4.71246e-08
4.84947e-08
4.97281e-08
5.07732e-08
5.1559e-08
5.19852e-08
5.19256e-08
5.12803e-08
5.00503e-08
4.83568e-08
4.63828e-08
4.42989e-08
4.22277e-08
4.0243e-08
3.83826e-08
3.66618e-08
3.5083e-08
3.36421e-08
3.23319e-08
3.1144e-08
3.00696e-08
2.91005e-08
2.82289e-08
2.74476e-08
2.67501e-08
2.61303e-08
2.55828e-08
2.51026e-08
2.4685e-08
2.43259e-08
2.40212e-08
2.37672e-08
2.35605e-08
2.33978e-08
2.32757e-08
2.31912e-08
2.3141e-08
2.3122e-08
2.31324e-08
2.31706e-08
2.32343e-08
2.3321e-08
2.34279e-08
2.3552e-08
2.369e-08
2.38384e-08
2.39939e-08
2.41531e-08
2.43125e-08
2.44693e-08
2.4621e-08
2.47655e-08
2.49008e-08
2.50255e-08
2.51388e-08
2.52402e-08
2.53286e-08
2.54034e-08
2.54647e-08
2.55122e-08
2.55453e-08
2.55641e-08
2.55691e-08
2.55603e-08
2.55396e-08
2.55063e-08
2.54674e-08
2.54193e-08
2.53823e-08
2.5329e-08
2.53829e-08
2.55536e-08
2.61174e-08
2.59591e-08
2.57693e-08
2.5557e-08
2.58909e-08
2.34393e-08
2.85429e-08
6.22614e-09
-1.16593e-07
-1.58334e-07
-1.58288e-07
-1.58289e-07
-1.58285e-07
-1.58279e-07
-1.5827e-07
-1.58259e-07
-1.58245e-07
-1.58229e-07
-1.5821e-07
-1.5819e-07
-1.58167e-07
-1.58145e-07
-1.58125e-07
-1.58104e-07
-1.58083e-07
-1.58064e-07
-1.58043e-07
-1.58006e-07
-1.5798e-07
-1.57977e-07
-1.57977e-07
-1.57977e-07
-1.57977e-07
-1.57977e-07
-1.57977e-07
-1.57977e-07
-1.57977e-07
-1.57977e-07
-1.57977e-07
-1.57977e-07
-1.57977e-07
-1.57977e-07
-1.57977e-07
-1.57977e-07
-1.57977e-07
-1.57977e-07
-1.57977e-07
-1.57977e-07
-1.57977e-07
-1.57977e-07
-1.57977e-07
-1.57977e-07
-1.57977e-07
-1.57977e-07
-1.57977e-07
-1.57977e-07
-1.57977e-07
-1.57977e-07
-1.57977e-07
-1.57977e-07
-1.57977e-07
-1.57977e-07
-1.57977e-07
-1.57977e-07
-1.57977e-07
-1.57977e-07
-1.57977e-07
-1.57977e-07
-1.57977e-07
-1.57977e-07
-1.57977e-07
-1.57977e-07
-1.57977e-07
-1.57977e-07
-1.57977e-07
-1.57977e-07
-1.57977e-07
-1.57977e-07
-1.57977e-07
-1.57977e-07
-1.57977e-07
-1.57977e-07
-1.57977e-07
-1.57977e-07
-1.57977e-07
-1.57977e-07
-1.57977e-07
-1.57977e-07
-1.57977e-07
-1.57977e-07
-1.57977e-07
-1.57977e-07
-1.57977e-07
-1.57977e-07
-1.57977e-07
-1.57977e-07
-1.57977e-07
-1.57977e-07
-1.57977e-07
-1.57977e-07
-1.57977e-07
-1.57977e-07
-1.57977e-07
-1.57977e-07
-1.57977e-07
-1.57977e-07
-1.57977e-07
-1.57977e-07
-1.57977e-07
-1.57977e-07
-1.57977e-07
-1.57977e-07
-1.57977e-07
-1.57977e-07
-1.57977e-07
-1.57977e-07
-1.57977e-07
-1.57977e-07
-1.57977e-07
-1.57977e-07
-1.57959e-07
-1.57251e-07
-1.32259e-07
)
;

boundaryField
{
    inandouthalf11
    {
        type            cyclic;
        value           nonuniform List<scalar> 
100
(
-1.93878e-38
-1.73974e-14
-3.65368e-14
-5.39665e-14
-7.18784e-14
-9.06681e-14
-1.09839e-13
-1.29121e-13
-1.48464e-13
-1.67867e-13
-1.87322e-13
-2.06811e-13
-2.26306e-13
-2.45783e-13
-2.65218e-13
-2.84598e-13
-3.03907e-13
-3.23132e-13
-3.42259e-13
-3.61275e-13
-3.80168e-13
-3.98928e-13
-4.17547e-13
-4.3602e-13
-4.54341e-13
-4.72506e-13
-4.90512e-13
-5.08359e-13
-5.26049e-13
-5.43583e-13
-5.60961e-13
-5.78189e-13
-5.9527e-13
-6.1221e-13
-6.29014e-13
-6.45687e-13
-6.62234e-13
-6.78661e-13
-6.94977e-13
-7.11185e-13
-7.27291e-13
-7.43302e-13
-7.5922e-13
-7.75052e-13
-7.90804e-13
-8.06479e-13
-8.22081e-13
-8.37609e-13
-8.53066e-13
-8.6846e-13
-8.83792e-13
-8.9906e-13
-9.14268e-13
-9.29416e-13
-9.44504e-13
-9.59532e-13
-9.745e-13
-9.89407e-13
-1.00425e-12
-1.01902e-12
-1.03373e-12
-1.04837e-12
-1.06295e-12
-1.07746e-12
-1.09189e-12
-1.10626e-12
-1.12054e-12
-1.13474e-12
-1.14886e-12
-1.16289e-12
-1.17682e-12
-1.19067e-12
-1.20441e-12
-1.21807e-12
-1.23162e-12
-1.24508e-12
-1.25843e-12
-1.27166e-12
-1.28478e-12
-1.29778e-12
-1.31066e-12
-1.3234e-12
-1.33602e-12
-1.34851e-12
-1.36087e-12
-1.3731e-12
-1.3852e-12
-1.39716e-12
-1.40897e-12
-1.42064e-12
-1.43216e-12
-1.44352e-12
-1.45473e-12
-1.46578e-12
-1.47668e-12
-1.48743e-12
-1.49802e-12
-1.50846e-12
-1.51874e-12
-1.52887e-12
)
;
    }
    inandouthalf12
    {
        type            cyclic;
        value           nonuniform List<scalar> 
100
(
1.93878e-38
1.73974e-14
3.65368e-14
5.39665e-14
7.18784e-14
9.06681e-14
1.09839e-13
1.29121e-13
1.48464e-13
1.67867e-13
1.87322e-13
2.06811e-13
2.26306e-13
2.45783e-13
2.65218e-13
2.84598e-13
3.03907e-13
3.23132e-13
3.42259e-13
3.61275e-13
3.80168e-13
3.98928e-13
4.17547e-13
4.3602e-13
4.54341e-13
4.72506e-13
4.90512e-13
5.08359e-13
5.26049e-13
5.43583e-13
5.60961e-13
5.78189e-13
5.9527e-13
6.1221e-13
6.29014e-13
6.45687e-13
6.62234e-13
6.78661e-13
6.94977e-13
7.11185e-13
7.27291e-13
7.43302e-13
7.5922e-13
7.75052e-13
7.90804e-13
8.06479e-13
8.22081e-13
8.37609e-13
8.53066e-13
8.6846e-13
8.83792e-13
8.9906e-13
9.14268e-13
9.29416e-13
9.44504e-13
9.59532e-13
9.745e-13
9.89407e-13
1.00425e-12
1.01902e-12
1.03373e-12
1.04837e-12
1.06295e-12
1.07746e-12
1.09189e-12
1.10626e-12
1.12054e-12
1.13474e-12
1.14886e-12
1.16289e-12
1.17682e-12
1.19067e-12
1.20441e-12
1.21807e-12
1.23162e-12
1.24508e-12
1.25843e-12
1.27166e-12
1.28478e-12
1.29778e-12
1.31066e-12
1.3234e-12
1.33602e-12
1.34851e-12
1.36087e-12
1.3731e-12
1.3852e-12
1.39716e-12
1.40897e-12
1.42064e-12
1.43216e-12
1.44352e-12
1.45473e-12
1.46578e-12
1.47668e-12
1.48743e-12
1.49802e-12
1.50846e-12
1.51874e-12
1.52887e-12
)
;
    }
    inandouthalf21
    {
        type            cyclic;
        value           nonuniform List<scalar> 
100
(
-1.53884e-12
-1.54865e-12
-1.55831e-12
-1.56781e-12
-1.57715e-12
-1.58634e-12
-1.59537e-12
-1.60427e-12
-1.61302e-12
-1.62164e-12
-1.63015e-12
-1.63854e-12
-1.64684e-12
-1.65506e-12
-1.66322e-12
-1.67134e-12
-1.67944e-12
-1.68753e-12
-1.69564e-12
-1.70377e-12
-1.71195e-12
-1.72016e-12
-1.72841e-12
-1.73667e-12
-1.74494e-12
-1.75317e-12
-1.76135e-12
-1.76945e-12
-1.77748e-12
-1.78544e-12
-1.79335e-12
-1.80128e-12
-1.80929e-12
-1.8175e-12
-1.82602e-12
-1.83494e-12
-1.8442e-12
-1.85357e-12
-1.86255e-12
-1.8703e-12
-1.87566e-12
-1.87818e-12
-1.87883e-12
-1.87899e-12
-1.87915e-12
-1.88024e-12
-5.16413e-10
-1.14699e-07
-2.41956e-07
-3.48056e-07
-4.38228e-07
-5.16786e-07
-5.85902e-07
-6.4725e-07
-7.02106e-07
-7.51458e-07
-7.96076e-07
-8.36573e-07
-8.73435e-07
-9.07047e-07
-9.37711e-07
-9.65658e-07
-9.91058e-07
-1.01403e-06
-1.03467e-06
-1.05302e-06
-1.06914e-06
-1.08309e-06
-1.09497e-06
-1.10489e-06
-1.11303e-06
-1.1196e-06
-1.12484e-06
-1.12899e-06
-1.13224e-06
-1.1348e-06
-1.13678e-06
-1.1383e-06
-1.13944e-06
-1.14027e-06
-1.14082e-06
-1.14116e-06
-1.1413e-06
-1.14127e-06
-1.14111e-06
-1.14082e-06
-1.14044e-06
-1.13996e-06
-1.13942e-06
-1.13881e-06
-1.13815e-06
-1.13744e-06
-1.13671e-06
-1.13595e-06
-1.13517e-06
-1.13438e-06
-1.13359e-06
-1.13279e-06
-1.132e-06
-1.13123e-06
)
;
    }
    inandouthalf22
    {
        type            cyclic;
        value           nonuniform List<scalar> 
100
(
1.53884e-12
1.54865e-12
1.55831e-12
1.56781e-12
1.57715e-12
1.58634e-12
1.59537e-12
1.60427e-12
1.61302e-12
1.62164e-12
1.63015e-12
1.63854e-12
1.64684e-12
1.65506e-12
1.66322e-12
1.67134e-12
1.67944e-12
1.68753e-12
1.69564e-12
1.70377e-12
1.71195e-12
1.72016e-12
1.72841e-12
1.73667e-12
1.74494e-12
1.75317e-12
1.76135e-12
1.76945e-12
1.77748e-12
1.78544e-12
1.79335e-12
1.80128e-12
1.80929e-12
1.8175e-12
1.82602e-12
1.83494e-12
1.8442e-12
1.85357e-12
1.86255e-12
1.8703e-12
1.87566e-12
1.87818e-12
1.87883e-12
1.87899e-12
1.87915e-12
1.88024e-12
5.16413e-10
1.14699e-07
2.41956e-07
3.48056e-07
4.38228e-07
5.16786e-07
5.85902e-07
6.4725e-07
7.02106e-07
7.51458e-07
7.96076e-07
8.36573e-07
8.73435e-07
9.07047e-07
9.37711e-07
9.65658e-07
9.91058e-07
1.01403e-06
1.03467e-06
1.05302e-06
1.06914e-06
1.08309e-06
1.09497e-06
1.10489e-06
1.11303e-06
1.1196e-06
1.12484e-06
1.12899e-06
1.13224e-06
1.1348e-06
1.13678e-06
1.1383e-06
1.13944e-06
1.14027e-06
1.14082e-06
1.14116e-06
1.1413e-06
1.14127e-06
1.14111e-06
1.14082e-06
1.14044e-06
1.13996e-06
1.13942e-06
1.13881e-06
1.13815e-06
1.13744e-06
1.13671e-06
1.13595e-06
1.13517e-06
1.13438e-06
1.13359e-06
1.13279e-06
1.132e-06
1.13123e-06
)
;
    }
    inandouthalf31
    {
        type            cyclic;
        value           nonuniform List<scalar> 
110
(
-1.13047e-06
-1.15265e-06
-1.17527e-06
-1.19834e-06
-1.22188e-06
-1.24588e-06
-1.27037e-06
-1.29536e-06
-1.32085e-06
-1.34686e-06
-1.37339e-06
-1.40047e-06
-1.4281e-06
-1.4563e-06
-1.48507e-06
-1.51443e-06
-1.5444e-06
-1.57498e-06
-1.60618e-06
-1.63803e-06
-1.67053e-06
-1.70369e-06
-1.73753e-06
-1.77206e-06
-1.80731e-06
-1.84327e-06
-1.87998e-06
-1.91744e-06
-1.95568e-06
-1.99471e-06
-2.03456e-06
-2.07526e-06
-2.11684e-06
-2.15932e-06
-2.20276e-06
-2.24722e-06
-2.29265e-06
-2.31272e-06
-2.35254e-06
-2.39433e-06
-2.43684e-06
-2.48022e-06
-2.52379e-06
-2.5703e-06
-2.61544e-06
-2.66504e-06
-2.71214e-06
-2.76098e-06
-2.81084e-06
-2.86186e-06
-2.91412e-06
-2.96772e-06
-3.02276e-06
-3.07936e-06
-3.13763e-06
-3.19772e-06
-3.25974e-06
-3.32381e-06
-3.39015e-06
-3.45866e-06
-3.52944e-06
-3.60245e-06
-3.67751e-06
-3.75427e-06
-3.83154e-06
-3.90946e-06
-3.98882e-06
-4.06978e-06
-4.15239e-06
-4.23667e-06
-4.32266e-06
-4.4104e-06
-4.49992e-06
-4.59126e-06
-4.68445e-06
-4.77953e-06
-4.87654e-06
-4.97552e-06
-5.07651e-06
-5.17955e-06
-5.28468e-06
-5.39195e-06
-5.50139e-06
-5.61305e-06
-5.72698e-06
-5.84323e-06
-5.96183e-06
-6.08284e-06
-6.2063e-06
-6.33228e-06
-6.4608e-06
-6.59194e-06
-6.72574e-06
-6.86225e-06
-7.00154e-06
-7.14365e-06
-7.28865e-06
-7.43659e-06
-7.58753e-06
-7.74154e-06
-7.89867e-06
-8.05899e-06
-8.22257e-06
-8.38947e-06
-8.55975e-06
-8.73349e-06
-8.91076e-06
-9.09162e-06
-9.27616e-06
-9.46444e-06
)
;
    }
    inandouthalf32
    {
        type            cyclic;
        value           nonuniform List<scalar> 
110
(
1.13047e-06
1.15265e-06
1.17527e-06
1.19834e-06
1.22188e-06
1.24588e-06
1.27037e-06
1.29536e-06
1.32085e-06
1.34686e-06
1.37339e-06
1.40047e-06
1.4281e-06
1.4563e-06
1.48507e-06
1.51443e-06
1.5444e-06
1.57498e-06
1.60618e-06
1.63803e-06
1.67053e-06
1.70369e-06
1.73753e-06
1.77206e-06
1.80731e-06
1.84327e-06
1.87998e-06
1.91744e-06
1.95568e-06
1.99471e-06
2.03456e-06
2.07526e-06
2.11684e-06
2.15932e-06
2.20276e-06
2.24722e-06
2.29265e-06
2.31272e-06
2.35254e-06
2.39433e-06
2.43684e-06
2.48022e-06
2.52379e-06
2.5703e-06
2.61544e-06
2.66504e-06
2.71214e-06
2.76098e-06
2.81084e-06
2.86186e-06
2.91412e-06
2.96772e-06
3.02276e-06
3.07936e-06
3.13763e-06
3.19772e-06
3.25974e-06
3.32381e-06
3.39015e-06
3.45866e-06
3.52944e-06
3.60245e-06
3.67751e-06
3.75427e-06
3.83154e-06
3.90946e-06
3.98882e-06
4.06978e-06
4.15239e-06
4.23667e-06
4.32266e-06
4.4104e-06
4.49992e-06
4.59126e-06
4.68445e-06
4.77953e-06
4.87654e-06
4.97552e-06
5.07651e-06
5.17955e-06
5.28468e-06
5.39195e-06
5.50139e-06
5.61305e-06
5.72698e-06
5.84323e-06
5.96183e-06
6.08284e-06
6.2063e-06
6.33228e-06
6.4608e-06
6.59194e-06
6.72574e-06
6.86225e-06
7.00154e-06
7.14365e-06
7.28865e-06
7.43659e-06
7.58753e-06
7.74154e-06
7.89867e-06
8.05899e-06
8.22257e-06
8.38947e-06
8.55975e-06
8.73349e-06
8.91076e-06
9.09162e-06
9.27616e-06
9.46444e-06
)
;
    }
    inandouthalf41
    {
        type            cyclic;
        value           nonuniform List<scalar> 
50
(
-8.47164e-06
-8.47164e-06
-8.47164e-06
-8.47164e-06
-8.47164e-06
-8.47164e-06
-8.47164e-06
-8.47164e-06
-8.47164e-06
-8.47164e-06
-8.47164e-06
-8.47164e-06
-8.47164e-06
-8.47164e-06
-8.47164e-06
-8.47164e-06
-8.47164e-06
-8.47164e-06
-8.47164e-06
-8.47164e-06
-8.47164e-06
-8.47164e-06
-8.47164e-06
-8.47164e-06
-8.47164e-06
-8.47164e-06
-8.47164e-06
-8.47164e-06
-8.47164e-06
-8.47164e-06
-8.47164e-06
-8.47164e-06
-8.47164e-06
-8.47164e-06
-8.47164e-06
-8.47164e-06
-8.47164e-06
-8.47164e-06
-8.47164e-06
-8.47164e-06
-8.47164e-06
-8.47164e-06
-8.47164e-06
-8.47164e-06
-8.47164e-06
-8.47164e-06
-8.47164e-06
-8.47163e-06
-8.47139e-06
-8.46585e-06
)
;
    }
    inandouthalf42
    {
        type            cyclic;
        value           nonuniform List<scalar> 
50
(
8.47164e-06
8.47164e-06
8.47164e-06
8.47164e-06
8.47164e-06
8.47164e-06
8.47164e-06
8.47164e-06
8.47164e-06
8.47164e-06
8.47164e-06
8.47164e-06
8.47164e-06
8.47164e-06
8.47164e-06
8.47164e-06
8.47164e-06
8.47164e-06
8.47164e-06
8.47164e-06
8.47164e-06
8.47164e-06
8.47164e-06
8.47164e-06
8.47164e-06
8.47164e-06
8.47164e-06
8.47164e-06
8.47164e-06
8.47164e-06
8.47164e-06
8.47164e-06
8.47164e-06
8.47164e-06
8.47164e-06
8.47164e-06
8.47164e-06
8.47164e-06
8.47164e-06
8.47164e-06
8.47164e-06
8.47164e-06
8.47164e-06
8.47164e-06
8.47164e-06
8.47164e-06
8.47164e-06
8.47163e-06
8.47139e-06
8.46585e-06
)
;
    }
    top
    {
        type            symmetryPlane;
        value           uniform 0;
    }
    walls
    {
        type            fixedValue;
        value           uniform 0;
    }
    frontAndBackPlanes
    {
        type            empty;
        value           nonuniform 0();
    }
}


// ************************************************************************* //
