/*--------------------------------*- C++ -*----------------------------------*\
| =========                 |                                                 |
| \\      /  F ield         | OpenFOAM: The Open Source CFD Toolbox           |
|  \\    /   O peration     | Version:  2.4.x                                 |
|   \\  /    A nd           | Web:      www.OpenFOAM.org                      |
|    \\/     M anipulation  |                                                 |
\*---------------------------------------------------------------------------*/
FoamFile
{
    version     2.0;
    format      ascii;
    class       volTensorField;
    location    "8.35";
    object      Tauf;
}
// * * * * * * * * * * * * * * * * * * * * * * * * * * * * * * * * * * * * * //

dimensions      [0 2 -2 0 0 0 0];

internalField   nonuniform List<tensor> 
360
(
(0 4.53857e-07 0 4.53857e-07 2.40899e-10 0 0 0 0)
(0 -1.36934e-09 0 -1.36934e-09 2.95751e-10 0 0 0 0)
(0 2.25749e-11 0 2.25749e-11 3.12784e-10 0 0 0 0)
(0 2.85721e-10 0 2.85721e-10 3.06082e-10 0 0 0 0)
(-5.16988e-23 1.48676e-10 0 1.48676e-10 3.12669e-10 0 0 0 0)
(-5.16988e-23 9.95866e-11 0 9.95866e-11 3.21616e-10 0 0 0 0)
(-5.16988e-23 1.14322e-10 0 1.14322e-10 3.26493e-10 0 0 0 0)
(0 1.24864e-10 0 1.24864e-10 3.28604e-10 0 0 0 0)
(-5.16988e-23 1.26911e-10 0 1.26911e-10 3.29939e-10 0 0 0 0)
(0 1.28204e-10 0 1.28204e-10 3.31163e-10 0 0 0 0)
(-5.16988e-23 1.28763e-10 0 1.28763e-10 3.32197e-10 0 0 0 0)
(0 1.29161e-10 0 1.29161e-10 3.32849e-10 0 0 0 0)
(-5.16988e-23 1.29869e-10 0 1.29869e-10 3.33065e-10 0 0 0 0)
(0 1.30556e-10 0 1.30556e-10 3.3288e-10 0 0 0 0)
(0 1.31481e-10 0 1.31481e-10 3.32372e-10 0 0 0 0)
(0 1.32389e-10 0 1.32389e-10 3.31606e-10 0 0 0 0)
(0 1.33022e-10 0 1.33022e-10 3.30598e-10 0 0 0 0)
(-5.16988e-23 1.33518e-10 0 1.33518e-10 3.29337e-10 0 0 0 0)
(0 1.34391e-10 0 1.34391e-10 3.27848e-10 0 0 0 0)
(0 1.34867e-10 0 1.34867e-10 3.26143e-10 0 0 0 0)
(0 1.35358e-10 0 1.35358e-10 3.2423e-10 0 0 0 0)
(-5.16988e-23 1.36224e-10 0 1.36224e-10 3.22164e-10 0 0 0 0)
(0 1.36725e-10 0 1.36725e-10 3.19968e-10 0 0 0 0)
(0 1.37363e-10 0 1.37363e-10 3.1766e-10 0 0 0 0)
(0 1.38017e-10 0 1.38017e-10 3.15266e-10 0 0 0 0)
(-5.16988e-23 1.38454e-10 0 1.38454e-10 3.12797e-10 0 0 0 0)
(0 1.39232e-10 0 1.39232e-10 3.10294e-10 0 0 0 0)
(0 1.40063e-10 0 1.40063e-10 3.07793e-10 0 0 0 0)
(0 1.40526e-10 0 1.40526e-10 3.05295e-10 0 0 0 0)
(0 1.41147e-10 0 1.41147e-10 3.02804e-10 0 0 0 0)
(0 1.4222e-10 0 1.4222e-10 3.0037e-10 0 0 0 0)
(0 1.42578e-10 0 1.42578e-10 2.97977e-10 0 0 0 0)
(0 1.43569e-10 0 1.43569e-10 2.95656e-10 0 0 0 0)
(0 1.44603e-10 0 1.44603e-10 2.93431e-10 0 0 0 0)
(0 1.45113e-10 0 1.45113e-10 2.91274e-10 0 0 0 0)
(5.16988e-23 1.46039e-10 0 1.46039e-10 2.89197e-10 0 0 0 0)
(0 1.46922e-10 0 1.46922e-10 2.87206e-10 0 0 0 0)
(0 1.48441e-10 0 1.48441e-10 2.85354e-10 0 0 0 0)
(0 1.48706e-10 0 1.48706e-10 2.8357e-10 0 0 0 0)
(0 1.49889e-10 0 1.49889e-10 2.81866e-10 0 0 0 0)
(0 1.51635e-10 0 1.51635e-10 2.80296e-10 0 0 0 0)
(0 1.51756e-10 0 1.51756e-10 2.78764e-10 0 0 0 0)
(5.16988e-23 1.53339e-10 0 1.53339e-10 2.77321e-10 0 0 0 0)
(0 1.54789e-10 0 1.54789e-10 2.75983e-10 0 0 0 0)
(0 1.55619e-10 0 1.55619e-10 2.74703e-10 0 0 0 0)
(0 1.57402e-10 0 1.57402e-10 2.73508e-10 0 0 0 0)
(0 1.58004e-10 0 1.58004e-10 2.72319e-10 0 0 0 0)
(0 1.59097e-10 0 1.59097e-10 2.71137e-10 0 0 0 0)
(0 1.61666e-10 0 1.61666e-10 2.70078e-10 0 0 0 0)
(0 1.62436e-10 0 1.62436e-10 2.69056e-10 0 0 0 0)
(5.16988e-23 1.63486e-10 0 1.63486e-10 2.68037e-10 0 0 0 0)
(0 1.65413e-10 0 1.65413e-10 2.67044e-10 0 0 0 0)
(0 1.66947e-10 0 1.66947e-10 2.66071e-10 0 0 0 0)
(0 1.68139e-10 0 1.68139e-10 2.65087e-10 0 0 0 0)
(0 1.70069e-10 0 1.70069e-10 2.64121e-10 0 0 0 0)
(0 1.71624e-10 0 1.71624e-10 2.63146e-10 0 0 0 0)
(0 1.73077e-10 0 1.73077e-10 2.62132e-10 0 0 0 0)
(0 1.75236e-10 0 1.75236e-10 2.6112e-10 0 0 0 0)
(0 1.75996e-10 0 1.75996e-10 2.60005e-10 0 0 0 0)
(0 1.7845e-10 0 1.7845e-10 2.58903e-10 0 0 0 0)
(0 1.80363e-10 0 1.80363e-10 2.57803e-10 0 0 0 0)
(0 1.81941e-10 0 1.81941e-10 2.56689e-10 0 0 0 0)
(0 1.84202e-10 0 1.84202e-10 2.55581e-10 0 0 0 0)
(0 1.85837e-10 0 1.85837e-10 2.54411e-10 0 0 0 0)
(0 1.87736e-10 0 1.87736e-10 2.53178e-10 0 0 0 0)
(0 1.8981e-10 0 1.8981e-10 2.51876e-10 0 0 0 0)
(0 1.92213e-10 0 1.92213e-10 2.50528e-10 0 0 0 0)
(0 1.94142e-10 0 1.94142e-10 2.49108e-10 0 0 0 0)
(0 1.95631e-10 0 1.95631e-10 2.47569e-10 0 0 0 0)
(0 1.98277e-10 0 1.98277e-10 2.45983e-10 0 0 0 0)
(0 2.01492e-10 0 2.01492e-10 2.44438e-10 0 0 0 0)
(0 2.02783e-10 0 2.02783e-10 2.4281e-10 0 0 0 0)
(0 2.05114e-10 0 2.05114e-10 2.41137e-10 0 0 0 0)
(0 2.08181e-10 0 2.08181e-10 2.39444e-10 0 0 0 0)
(0 2.10793e-10 0 2.10793e-10 2.37714e-10 0 0 0 0)
(0 2.13232e-10 0 2.13232e-10 2.35922e-10 0 0 0 0)
(0 2.15386e-10 0 2.15386e-10 2.33993e-10 0 0 0 0)
(0 2.18403e-10 0 2.18403e-10 2.31967e-10 0 0 0 0)
(0 2.21377e-10 0 2.21377e-10 2.29854e-10 0 0 0 0)
(0 2.24009e-10 0 2.24009e-10 2.27655e-10 0 0 0 0)
(0 2.26912e-10 0 2.26912e-10 2.25391e-10 0 0 0 0)
(0 2.30255e-10 0 2.30255e-10 2.23101e-10 0 0 0 0)
(0 2.33428e-10 0 2.33428e-10 2.20787e-10 0 0 0 0)
(0 2.36711e-10 0 2.36711e-10 2.18458e-10 0 0 0 0)
(0 2.40103e-10 0 2.40103e-10 2.16096e-10 0 0 0 0)
(0 2.43621e-10 0 2.43621e-10 2.13684e-10 0 0 0 0)
(0 2.47175e-10 0 2.47175e-10 2.11201e-10 0 0 0 0)
(0 2.50715e-10 0 2.50715e-10 2.0862e-10 0 0 0 0)
(0 2.54535e-10 0 2.54535e-10 2.05946e-10 0 0 0 0)
(0 2.58504e-10 0 2.58504e-10 2.03188e-10 0 0 0 0)
(0 2.62549e-10 0 2.62549e-10 2.00362e-10 0 0 0 0)
(0 2.6684e-10 0 2.6684e-10 1.97495e-10 0 0 0 0)
(0 2.71345e-10 0 2.71345e-10 1.9461e-10 0 0 0 0)
(0 2.75958e-10 0 2.75958e-10 1.91717e-10 0 0 0 0)
(0 2.80735e-10 0 2.80735e-10 1.88821e-10 0 0 0 0)
(0 2.85683e-10 0 2.85683e-10 1.85914e-10 0 0 0 0)
(0 2.9079e-10 0 2.9079e-10 1.82987e-10 0 0 0 0)
(0 2.96079e-10 0 2.96079e-10 1.80028e-10 0 0 0 0)
(0 3.0159e-10 0 3.0159e-10 1.77032e-10 0 0 0 0)
(0 3.07333e-10 0 3.07333e-10 1.73999e-10 0 0 0 0)
(0 3.13319e-10 0 3.13319e-10 1.70933e-10 0 0 0 0)
(0 3.19577e-10 0 3.19577e-10 1.67843e-10 0 0 0 0)
(0 3.26111e-10 0 3.26111e-10 1.64741e-10 0 0 0 0)
(0 3.32922e-10 0 3.32922e-10 1.6164e-10 0 0 0 0)
(0 3.40029e-10 0 3.40029e-10 1.58555e-10 0 0 0 0)
(0 3.4745e-10 0 3.4745e-10 1.55502e-10 0 0 0 0)
(0 3.55203e-10 0 3.55203e-10 1.52503e-10 0 0 0 0)
(0 3.6331e-10 0 3.6331e-10 1.49582e-10 0 0 0 0)
(0 3.71796e-10 0 3.71796e-10 1.46768e-10 0 0 0 0)
(0 3.8068e-10 0 3.8068e-10 1.44096e-10 0 0 0 0)
(0 3.89985e-10 0 3.89985e-10 1.41602e-10 0 0 0 0)
(0 3.99735e-10 0 3.99735e-10 1.39324e-10 0 0 0 0)
(0 4.09953e-10 0 4.09953e-10 1.37298e-10 0 0 0 0)
(0 4.20667e-10 0 4.20667e-10 1.35559e-10 0 0 0 0)
(0 4.31905e-10 0 4.31905e-10 1.34134e-10 0 0 0 0)
(0 4.43698e-10 0 4.43698e-10 1.33038e-10 0 0 0 0)
(0 4.56084e-10 0 4.56084e-10 1.3227e-10 0 0 0 0)
(0 4.69105e-10 0 4.69105e-10 1.3181e-10 0 0 0 0)
(0 4.82812e-10 0 4.82812e-10 1.3161e-10 0 0 0 0)
(0 4.97262e-10 0 4.97262e-10 1.31596e-10 0 0 0 0)
(0 5.12516e-10 0 5.12516e-10 1.31659e-10 0 0 0 0)
(0 5.28634e-10 0 5.28634e-10 1.31668e-10 0 0 0 0)
(0 5.45684e-10 0 5.45684e-10 1.31473e-10 0 0 0 0)
(0 5.63757e-10 0 5.63757e-10 1.30931e-10 0 0 0 0)
(0 5.8301e-10 0 5.8301e-10 1.29937e-10 0 0 0 0)
(0 6.03716e-10 0 6.03716e-10 1.28458e-10 0 0 0 0)
(0 6.2626e-10 0 6.2626e-10 1.26559e-10 0 0 0 0)
(0 6.51018e-10 0 6.51018e-10 1.24419e-10 0 0 0 0)
(0 6.78085e-10 0 6.78085e-10 1.22302e-10 0 0 0 0)
(0 7.07066e-10 0 7.07066e-10 1.20525e-10 0 0 0 0)
(0 7.37504e-10 0 7.37504e-10 1.19435e-10 0 0 0 0)
(0 7.704e-10 0 7.704e-10 1.19438e-10 0 0 0 0)
(0 8.09167e-10 0 8.09167e-10 1.21065e-10 0 0 0 0)
(0 8.5616e-10 0 8.5616e-10 1.24802e-10 0 0 0 0)
(0 9.0687e-10 0 9.0687e-10 1.30385e-10 0 0 0 0)
(0 9.54576e-10 0 9.54576e-10 1.36032e-10 0 0 0 0)
(0 1.00677e-09 0 1.00677e-09 1.38387e-10 0 0 0 0)
(0 1.09143e-09 0 1.09143e-09 1.3311e-10 0 0 0 0)
(0 1.22902e-09 0 1.22902e-09 1.15794e-10 0 0 0 0)
(0 1.36582e-09 0 1.36582e-09 8.28709e-11 0 0 0 0)
(0 1.39614e-09 0 1.39614e-09 3.25088e-11 0 0 0 0)
(0 1.50984e-09 0 1.50984e-09 -1.88877e-11 0 0 0 0)
(0 1.88676e-09 0 1.88676e-09 -1.02635e-09 0 0 0 0)
(0 2.40887e-09 0 2.40887e-09 1.43062e-08 0 0 0 0)
(0 1.73878e-08 0 1.73878e-08 -6.16878e-08 0 0 0 0)
(0 5.11995e-06 0 5.11995e-06 -1.00085e-06 0 0 0 0)
(0 0.000571818 0 0.000571818 -1.30078e-05 0 0 0 0)
(0 0.0038633 0 0.0038633 -3.00634e-05 0 0 0 0)
(0 0.00585236 0 0.00585236 6.80547e-06 0 0 0 0)
(0 0.00646353 0 0.00646353 3.10271e-06 0 0 0 0)
(0 0.00666695 0 0.00666695 8.57004e-06 0 0 0 0)
(0 0.00664126 0 0.00664126 1.35377e-05 0 0 0 0)
(0 0.00648523 0 0.00648523 1.69477e-05 0 0 0 0)
(0 0.00624693 0 0.00624693 2.00697e-05 0 0 0 0)
(0 0.00595852 0 0.00595852 2.24675e-05 0 0 0 0)
(0 0.00564131 0 0.00564131 2.39733e-05 0 0 0 0)
(0 0.00530913 0 0.00530913 2.45929e-05 0 0 0 0)
(0 0.00497105 0 0.00497105 2.4406e-05 0 0 0 0)
(0 0.00463295 0 0.00463295 2.35315e-05 0 0 0 0)
(0 0.00429858 0 0.00429858 2.21126e-05 0 0 0 0)
(0 0.00397036 0 0.00397036 2.02997e-05 0 0 0 0)
(0 0.00364984 0 0.00364984 1.82371e-05 0 0 0 0)
(0 0.00333812 0 0.00333812 1.60539e-05 0 0 0 0)
(0 0.00303606 0 0.00303606 1.38595e-05 0 0 0 0)
(0 0.00274445 0 0.00274445 1.17416e-05 0 0 0 0)
(0 0.00246419 0 0.00246419 9.76684e-06 0 0 0 0)
(0 0.00219636 0 0.00219636 7.98248e-06 0 0 0 0)
(0 0.0019423 0 0.0019423 6.41911e-06 0 0 0 0)
(0 0.00170359 0 0.00170359 5.09203e-06 0 0 0 0)
(0 0.00148198 0 0.00148198 3.9977e-06 0 0 0 0)
(0 0.00127914 0 0.00127914 3.11058e-06 0 0 0 0)
(0 0.00109627 0 0.00109627 2.39116e-06 0 0 0 0)
(0 0.000933732 0 0.000933732 1.80496e-06 0 0 0 0)
(0 0.000790877 0 0.000790877 1.33444e-06 0 0 0 0)
(0 0.000666136 0 0.000666136 9.72713e-07 0 0 0 0)
(0 0.000557364 0 0.000557364 7.09618e-07 0 0 0 0)
(0 0.000462212 0 0.000462212 5.26459e-07 0 0 0 0)
(0 0.00037842 0 0.00037842 4.00956e-07 0 0 0 0)
(0 0.000303978 0 0.000303978 3.13849e-07 0 0 0 0)
(0 0.000237195 0 0.000237195 2.5158e-07 0 0 0 0)
(0 0.000176693 0 0.000176693 2.05581e-07 0 0 0 0)
(0 0.000121377 0 0.000121377 1.70588e-07 0 0 0 0)
(0 7.03886e-05 0 7.03886e-05 1.43306e-07 0 0 0 0)
(0 2.3058e-05 0 2.3058e-05 1.21602e-07 0 0 0 0)
(0 -2.1136e-05 0 -2.1136e-05 1.04046e-07 0 0 0 0)
(0 -6.26008e-05 0 -6.26008e-05 8.96497e-08 0 0 0 0)
(0 -0.000101655 0 -0.000101655 7.77128e-08 0 0 0 0)
(0 -0.000138552 0 -0.000138552 6.77239e-08 0 0 0 0)
(0 -0.000173493 0 -0.000173493 5.93013e-08 0 0 0 0)
(0 -0.000206642 0 -0.000206642 5.2154e-08 0 0 0 0)
(0 -0.00023813 0 -0.00023813 4.6056e-08 0 0 0 0)
(0 -0.000268069 0 -0.000268069 4.08292e-08 0 0 0 0)
(0 -0.000296551 0 -0.000296551 3.63317e-08 0 0 0 0)
(0 -0.000323654 0 -0.000323654 3.24493e-08 0 0 0 0)
(0 -0.000349446 0 -0.000349446 2.9089e-08 0 0 0 0)
(0 -0.000373984 0 -0.000373984 2.61747e-08 0 0 0 0)
(0 -0.000397322 0 -0.000397322 2.36438e-08 0 0 0 0)
(0 -0.000419506 0 -0.000419506 2.14442e-08 0 0 0 0)
(0 -0.000440578 0 -0.000440578 1.95327e-08 0 0 0 0)
(0 -0.000460586 0 -0.000460586 1.78716e-08 0 0 0 0)
(0 -0.000479587 0 -0.000479587 1.64265e-08 0 0 0 0)
(0 -0.000497841 0 -0.000497841 1.51554e-08 0 0 0 0)
(-9.65827e-17 -0.000515572 0 -0.000515572 1.4025e-08 0 0 0 0)
(0 -0.000532782 0 -0.000532782 1.30205e-08 0 0 0 0)
(0 -0.000549453 0 -0.000549453 1.21277e-08 0 0 0 0)
(4.68669e-17 -0.000565558 0 -0.000565558 1.13307e-08 0 0 0 0)
(0 -0.000581069 0 -0.000581069 1.06119e-08 0 0 0 0)
(-4.5796e-17 -0.000595956 0 -0.000595956 9.95325e-09 0 0 0 0)
(0 -0.000610186 0 -0.000610186 9.33823e-09 0 0 0 0)
(4.46412e-17 -0.000623727 0 -0.000623727 8.75302e-09 0 0 0 0)
(0 -0.000636544 0 -0.000636544 8.18658e-09 0 0 0 0)
(0 -0.000648602 0 -0.000648602 7.62931e-09 0 0 0 0)
(0 -0.000659865 0 -0.000659865 7.07145e-09 0 0 0 0)
(8.42288e-17 -0.000670296 0 -0.000670296 6.50768e-09 0 0 0 0)
(0 -0.000679858 0 -0.000679858 5.94231e-09 0 0 0 0)
(0 -0.000688511 0 -0.000688511 5.38279e-09 0 0 0 0)
(0 -0.000696218 0 -0.000696218 4.83277e-09 0 0 0 0)
(0 -0.000702938 0 -0.000702938 4.2976e-09 0 0 0 0)
(0 -0.000708633 0 -0.000708633 3.78829e-09 0 0 0 0)
(-3.78723e-17 -0.000713263 0 -0.000713263 3.3145e-09 0 0 0 0)
(0 -0.000716788 0 -0.000716788 2.87825e-09 0 0 0 0)
(-3.63539e-17 -0.000719169 0 -0.000719169 2.47853e-09 0 0 0 0)
(0 -0.000720367 0 -0.000720367 2.11802e-09 0 0 0 0)
(-3.47878e-17 -0.000720343 0 -0.000720343 1.79874e-09 0 0 0 0)
(0 -0.000719061 0 -0.000719061 1.51751e-09 0 0 0 0)
(0 -0.000716483 0 -0.000716483 1.27094e-09 0 0 0 0)
(0 -0.000712575 0 -0.000712575 1.05757e-09 0 0 0 0)
(0 -0.000707303 0 -0.000707303 8.74999e-10 0 0 0 0)
(6.13518e-17 -0.000700634 0 -0.000700634 7.19514e-10 0 0 0 0)
(0 -0.00069254 0 -0.00069254 5.88054e-10 0 0 0 0)
(0 -0.000682993 0 -0.000682993 4.78431e-10 0 0 0 0)
(0 -0.000671971 0 -0.000671971 3.86267e-10 0 0 0 0)
(0 -0.000659452 0 -0.000659452 3.03313e-10 0 0 0 0)
(0 -0.000645422 0 -0.000645422 2.31662e-10 0 0 0 0)
(0 -0.000629871 0 -0.000629871 1.89319e-10 0 0 0 0)
(0 -0.000612793 0 -0.000612793 1.67575e-10 0 0 0 0)
(0 -0.000594191 0 -0.000594191 1.3646e-10 0 0 0 0)
(0 -0.000574075 0 -0.000574075 9.92003e-11 0 0 0 0)
(0 -0.000552465 0 -0.000552465 7.10399e-11 0 0 0 0)
(0 -0.000529391 0 -0.000529391 5.1251e-11 0 0 0 0)
(0 -0.000504895 0 -0.000504895 3.77272e-11 0 0 0 0)
(0 -0.000479034 0 -0.000479034 2.63368e-11 0 0 0 0)
(0 -0.000451881 0 -0.000451881 1.85355e-11 0 0 0 0)
(-3.39165e-17 -0.000423526 0 -0.000423526 1.45674e-11 0 0 0 0)
(3.19953e-17 -0.000394083 0 -0.000394083 5.78831e-12 0 0 0 0)
(0 -0.000363688 0 -0.000363688 -6.90686e-13 0 0 0 0)
(0 -0.000332508 0 -0.000332508 -4.94912e-13 0 0 0 0)
(-2.62403e-17 -0.00030074 0 -0.00030074 -2.74116e-14 0 0 0 0)
(0 -0.000268617 0 -0.000268617 1.70202e-14 0 0 0 0)
(0 -0.000236414 0 -0.000236414 -1.39896e-14 0 0 0 0)
(-2.05829e-17 -0.00020445 0 -0.00020445 -2.01583e-14 0 0 0 0)
(0 -0.000173093 0 -0.000173093 -1.716e-14 0 0 0 0)
(0 -0.000142761 0 -0.000142761 -1.91342e-14 0 0 0 0)
(0 -0.000113919 0 -0.000113919 -2.48465e-14 0 0 0 0)
(0 -8.70753e-05 0 -8.70753e-05 4.9082e-15 0 0 0 0)
(0 -6.27636e-05 0 -6.27636e-05 2.39257e-13 0 0 0 0)
(0 -4.15141e-05 0 -4.15141e-05 -9.12718e-13 0 0 0 0)
(0 -2.38106e-05 0 -2.38106e-05 1.67619e-12 0 0 0 0)
(0 -1.00313e-05 0 -1.00313e-05 -2.3504e-12 0 0 0 0)
(0 -3.80423e-07 0 -3.80423e-07 2.72219e-12 0 0 0 0)
(0 5.17661e-06 0 5.17661e-06 -2.76634e-12 0 0 0 0)
(0 6.96971e-06 0 6.96971e-06 2.43011e-12 0 0 0 0)
(0 5.70767e-06 0 5.70767e-06 -1.78992e-12 0 0 0 0)
(0 2.30742e-06 0 2.30742e-06 9.14873e-13 0 0 0 0)
(0 2.51971e-07 0 2.51971e-07 -2.38192e-13 0 0 0 0)
(0 1.62085e-08 0 1.62085e-08 1.15631e-13 0 0 0 0)
(0 5.04872e-10 0 5.04872e-10 -1.10113e-13 0 0 0 0)
(0 1.81676e-11 0 1.81676e-11 1.08042e-13 0 0 0 0)
(0 6.35104e-12 0 6.35104e-12 -1.06359e-13 0 0 0 0)
(0 4.49498e-12 0 4.49498e-12 1.04553e-13 0 0 0 0)
(0 3.25108e-12 0 3.25108e-12 -1.0303e-13 0 0 0 0)
(0 2.33763e-12 0 2.33763e-12 1.0139e-13 0 0 0 0)
(0 1.66962e-12 0 1.66962e-12 -9.99782e-14 0 0 0 0)
(0 1.1845e-12 0 1.1845e-12 9.84635e-14 0 0 0 0)
(0 8.34579e-13 0 8.34579e-13 -9.71252e-14 0 0 0 0)
(0 5.83732e-13 0 5.83732e-13 9.56897e-14 0 0 0 0)
(0 4.05257e-13 0 4.05257e-13 -9.43992e-14 0 0 0 0)
(0 2.79311e-13 0 2.79311e-13 9.30125e-14 0 0 0 0)
(0 1.91154e-13 0 1.91154e-13 -9.17466e-14 0 0 0 0)
(0 1.29849e-13 0 1.29849e-13 9.03857e-14 0 0 0 0)
(0 8.75143e-14 0 8.75143e-14 -8.91264e-14 0 0 0 0)
(0 5.84418e-14 0 5.84418e-14 8.77796e-14 0 0 0 0)
(0 3.8716e-14 0 3.8716e-14 -8.65123e-14 0 0 0 0)
(0 2.54147e-14 0 2.54147e-14 8.51638e-14 0 0 0 0)
(0 1.65374e-14 0 1.65374e-14 -8.38795e-14 0 0 0 0)
(0 1.07511e-14 0 1.07511e-14 8.25196e-14 0 0 0 0)
(1.50452e-19 6.86558e-15 0 6.86558e-15 -8.1217e-14 0 0 0 0)
(0 4.33375e-15 0 4.33375e-15 7.98309e-14 0 0 0 0)
(0 2.69836e-15 0 2.69836e-15 -7.84954e-14 0 0 0 0)
(0 1.63989e-15 0 1.63989e-15 7.7093e-14 0 0 0 0)
(0 1.07692e-15 0 1.07692e-15 -7.57281e-14 0 0 0 0)
(0 6.88994e-16 0 6.88994e-16 7.43002e-14 0 0 0 0)
(0 3.89089e-16 0 3.89089e-16 -7.29018e-14 0 0 0 0)
(0 2.1796e-16 0 2.1796e-16 7.14457e-14 0 0 0 0)
(0 1.98763e-16 0 1.98763e-16 -7.00137e-14 0 0 0 0)
(0 1.46782e-16 0 1.46782e-16 6.85321e-14 0 0 0 0)
(1.23064e-19 -4.09187e-17 0 -4.09187e-17 -6.70775e-14 0 0 0 0)
(0 -7.02586e-17 0 -7.02586e-17 6.55588e-14 0 0 0 0)
(0 7.62495e-18 0 7.62495e-18 -6.40567e-14 0 0 0 0)
(0 5.17914e-17 0 5.17914e-17 6.25229e-14 0 0 0 0)
(0 1.11572e-16 0 1.11572e-16 -6.09897e-14 0 0 0 0)
(0 4.78035e-17 0 4.78035e-17 5.94261e-14 0 0 0 0)
(0 -8.476e-17 0 -8.476e-17 -5.78556e-14 0 0 0 0)
(0 -5.40996e-17 0 -5.40996e-17 5.62579e-14 0 0 0 0)
(0 1.12648e-17 0 1.12648e-17 -5.46522e-14 0 0 0 0)
(0 6.58336e-17 0 6.58336e-17 5.30196e-14 0 0 0 0)
(0 -7.24762e-18 0 -7.24762e-18 -5.13768e-14 0 0 0 0)
(0 -3.90196e-17 0 -3.90196e-17 4.97047e-14 0 0 0 0)
(0 3.96455e-17 0 3.96455e-17 -4.80209e-14 0 0 0 0)
(0 -4.32163e-17 0 -4.32163e-17 4.63427e-14 0 0 0 0)
(0 -9.49736e-17 0 -9.49736e-17 -5.1077e-14 0 0 0 0)
(0 -4.92338e-17 0 -4.92338e-17 5.05015e-14 0 0 0 0)
(0 4.03399e-17 0 4.03399e-17 -4.99685e-14 0 0 0 0)
(0 2.82697e-17 0 2.82697e-17 4.94184e-14 0 0 0 0)
(0 8.57621e-18 0 8.57621e-18 -4.88757e-14 0 0 0 0)
(0 4.34104e-17 0 4.34104e-17 4.83141e-14 0 0 0 0)
(0 -2.82697e-17 0 -2.82697e-17 -4.77604e-14 0 0 0 0)
(0 -1.23879e-17 0 -1.23879e-17 4.7187e-14 0 0 0 0)
(0 3.01226e-17 0 3.01226e-17 -4.6621e-14 0 0 0 0)
(0 -8.90973e-17 0 -8.90973e-17 4.60339e-14 0 0 0 0)
(0 -4.48398e-17 0 -4.48398e-17 -4.54578e-14 0 0 0 0)
(0 6.17275e-17 0 6.17275e-17 4.48537e-14 0 0 0 0)
(0 4.54221e-17 0 4.54221e-17 -4.42657e-14 0 0 0 0)
(0 7.83505e-18 0 7.83505e-18 4.36446e-14 0 0 0 0)
(0 -4.71162e-18 0 -4.71162e-18 -4.30451e-14 0 0 0 0)
(0 -1.42407e-17 0 -1.42407e-17 4.24004e-14 0 0 0 0)
(0 -1.83171e-17 0 -1.83171e-17 -4.17918e-14 0 0 0 0)
(0 3.84341e-17 0 3.84341e-17 4.10946e-14 0 0 0 0)
(0 1.05879e-19 0 1.05879e-19 -4.0549e-14 0 0 0 0)
(0 -6.14099e-18 0 -6.14099e-18 3.97383e-14 0 0 0 0)
(0 -1.95876e-18 0 -1.95876e-18 -3.92434e-14 0 0 0 0)
(0 -3.24519e-17 0 -3.24519e-17 3.83898e-14 0 0 0 0)
(0 -3.33519e-18 0 -3.33519e-18 -3.78672e-14 0 0 0 0)
(0 3.65283e-17 0 3.65283e-17 3.69944e-14 0 0 0 0)
(0 7.19978e-18 0 7.19978e-18 -3.64234e-14 0 0 0 0)
(0 -1.27055e-18 0 -1.27055e-18 3.5549e-14 0 0 0 0)
(0 -8.62915e-18 0 -8.62915e-18 -3.49479e-14 0 0 0 0)
(0 -7.78212e-18 0 -7.78212e-18 3.40261e-14 0 0 0 0)
(0 -4.4628e-17 0 -4.4628e-17 -3.33781e-14 0 0 0 0)
(0 -1.55642e-16 0 -1.55642e-16 3.24659e-14 0 0 0 0)
(0 -3.79577e-16 0 -3.79577e-16 -3.17409e-14 0 0 0 0)
(0 -6.40569e-18 0 -6.40569e-18 3.08108e-14 0 0 0 0)
(0 3.82541e-16 0 3.82541e-16 -2.99989e-14 0 0 0 0)
(0 1.53895e-16 0 1.53895e-16 2.90522e-14 0 0 0 0)
(0 3.21873e-17 0 3.21873e-17 -2.8228e-14 0 0 0 0)
(0 1.16996e-17 0 1.16996e-17 2.7138e-14 0 0 0 0)
(0 5.70688e-17 0 5.70688e-17 -2.62753e-14 0 0 0 0)
(0 2.6258e-17 0 2.6258e-17 2.51589e-14 0 0 0 0)
(0 -2.67874e-17 0 -2.67874e-17 -2.41547e-14 0 0 0 0)
(0 -1.0265e-16 0 -1.0265e-16 2.29844e-14 0 0 0 0)
(0 8.36445e-18 0 8.36445e-18 -2.1796e-14 0 0 0 0)
(0 1.58183e-16 0 1.58183e-16 2.05553e-14 0 0 0 0)
(0 9.02619e-17 0 9.02619e-17 -1.92117e-14 0 0 0 0)
(0 -4.5581e-17 0 -4.5581e-17 1.77946e-14 0 0 0 0)
(0 -7.48565e-17 0 -7.48565e-17 -1.6174e-14 0 0 0 0)
(0 -6.7445e-17 0 -6.7445e-17 1.45324e-14 0 0 0 0)
(0 -4.6428e-17 0 -4.6428e-17 -1.23288e-14 0 0 0 0)
(0 3.07049e-17 0 3.07049e-17 1.0036e-14 0 0 0 0)
(0 -6.79215e-17 0 -6.79215e-17 -6.32324e-15 0 0 0 0)
(0 -9.30148e-17 0 -9.30148e-17 3.18292e-15 0 0 0 0)
)
;

boundaryField
{
    inandouthalf11
    {
        type            cyclic;
    }
    inandouthalf12
    {
        type            cyclic;
    }
    inandouthalf21
    {
        type            cyclic;
    }
    inandouthalf22
    {
        type            cyclic;
    }
    inandouthalf31
    {
        type            cyclic;
    }
    inandouthalf32
    {
        type            cyclic;
    }
    inandouthalf41
    {
        type            cyclic;
    }
    inandouthalf42
    {
        type            cyclic;
    }
    top
    {
        type            symmetryPlane;
    }
    walls
    {
        type            zeroGradient;
    }
    frontAndBackPlanes
    {
        type            empty;
    }
}


// ************************************************************************* //
