/*--------------------------------*- C++ -*----------------------------------*\
| =========                 |                                                 |
| \\      /  F ield         | OpenFOAM: The Open Source CFD Toolbox           |
|  \\    /   O peration     | Version:  2.4.x                                 |
|   \\  /    A nd           | Web:      www.OpenFOAM.org                      |
|    \\/     M anipulation  |                                                 |
\*---------------------------------------------------------------------------*/
FoamFile
{
    version     2.0;
    format      ascii;
    class       volTensorField;
    location    "8.35";
    object      Taus;
}
// * * * * * * * * * * * * * * * * * * * * * * * * * * * * * * * * * * * * * //

dimensions      [0 2 -2 0 0 0 0];

internalField   nonuniform List<tensor> 
360
(
(0 0.028037 0 0.028037 -0.202453 0 0 0 0)
(0 0.0409695 0 0.0409695 -0.2544 0 0 0 0)
(0 0.0491311 0 0.0491311 -0.257642 0 0 0 0)
(0 0.047494 0 0.047494 -0.251519 0 0 0 0)
(-1.58116e-17 0.0459745 0 0.0459745 -0.248913 0 0 0 0)
(-3.04121e-17 0.0457313 0 0.0457313 -0.247896 0 0 0 0)
(-2.99436e-17 0.0456103 0 0.0456103 -0.246606 0 0 0 0)
(0 0.0453254 0 0.0453254 -0.245048 0 0 0 0)
(-2.93105e-17 0.0449871 0 0.0449871 -0.24348 0 0 0 0)
(0 0.0446407 0 0.0446407 -0.241905 0 0 0 0)
(-5.74226e-17 0.0442929 0 0.0442929 -0.240321 0 0 0 0)
(0 0.0439516 0 0.0439516 -0.238751 0 0 0 0)
(-5.64995e-17 0.0436125 0 0.0436125 -0.237175 0 0 0 0)
(0 0.0432748 0 0.0432748 -0.2356 0 0 0 0)
(0 0.0429365 0 0.0429365 -0.234021 0 0 0 0)
(0 0.0425959 0 0.0425959 -0.232436 0 0 0 0)
(0 0.0422547 0 0.0422547 -0.230847 0 0 0 0)
(-5.51775e-17 0.0419156 0 0.0419156 -0.229258 0 0 0 0)
(0 0.0415772 0 0.0415772 -0.227669 0 0 0 0)
(0 0.0412374 0 0.0412374 -0.226069 0 0 0 0)
(0 0.0409021 0 0.0409021 -0.22448 0 0 0 0)
(-5.47881e-17 0.0405652 0 0.0405652 -0.222879 0 0 0 0)
(0 0.0402289 0 0.0402289 -0.221278 0 0 0 0)
(0 0.0398942 0 0.0398942 -0.219676 0 0 0 0)
(0 0.0395597 0 0.0395597 -0.21807 0 0 0 0)
(-1.095e-16 0.0392269 0 0.0392269 -0.216463 0 0 0 0)
(0 0.0388962 0 0.0388962 -0.214857 0 0 0 0)
(0 0.0385635 0 0.0385635 -0.213242 0 0 0 0)
(0 0.0382327 0 0.0382327 -0.211627 0 0 0 0)
(0 0.0379045 0 0.0379045 -0.210013 0 0 0 0)
(0 0.0375761 0 0.0375761 -0.208397 0 0 0 0)
(0 0.0372469 0 0.0372469 -0.206768 0 0 0 0)
(0 0.0369233 0 0.0369233 -0.205158 0 0 0 0)
(0 0.036594 0 0.036594 -0.203519 0 0 0 0)
(0 0.0362698 0 0.0362698 -0.201899 0 0 0 0)
(2.18512e-16 0.0359454 0 0.0359454 -0.200265 0 0 0 0)
(0 0.0356235 0 0.0356235 -0.198638 0 0 0 0)
(0 0.0352989 0 0.0352989 -0.197002 0 0 0 0)
(0 0.0349741 0 0.0349741 -0.195355 0 0 0 0)
(0 0.0346569 0 0.0346569 -0.193733 0 0 0 0)
(0 0.0343317 0 0.0343317 -0.192077 0 0 0 0)
(0 0.0340103 0 0.0340103 -0.190433 0 0 0 0)
(2.14302e-16 0.0336937 0 0.0336937 -0.188798 0 0 0 0)
(0 0.0333705 0 0.0333705 -0.187137 0 0 0 0)
(0 0.0330513 0 0.0330513 -0.185492 0 0 0 0)
(0 0.0327306 0 0.0327306 -0.183837 0 0 0 0)
(0 0.0324095 0 0.0324095 -0.182173 0 0 0 0)
(0 0.0320958 0 0.0320958 -0.180529 0 0 0 0)
(0 0.0317761 0 0.0317761 -0.178866 0 0 0 0)
(0 0.0314524 0 0.0314524 -0.177189 0 0 0 0)
(1.02745e-16 0.0311371 0 0.0311371 -0.175538 0 0 0 0)
(0 0.0308183 0 0.0308183 -0.173865 0 0 0 0)
(0 0.0304995 0 0.0304995 -0.172198 0 0 0 0)
(0 0.0301802 0 0.0301802 -0.17052 0 0 0 0)
(0 0.029864 0 0.029864 -0.168856 0 0 0 0)
(0 0.0295425 0 0.0295425 -0.167166 0 0 0 0)
(0 0.0292264 0 0.0292264 -0.1655 0 0 0 0)
(0 0.0289059 0 0.0289059 -0.16381 0 0 0 0)
(0 0.0285884 0 0.0285884 -0.162128 0 0 0 0)
(0 0.0282738 0 0.0282738 -0.160456 0 0 0 0)
(0 0.0279522 0 0.0279522 -0.158754 0 0 0 0)
(0 0.0276355 0 0.0276355 -0.157076 0 0 0 0)
(0 0.0273152 0 0.0273152 -0.155376 0 0 0 0)
(0 0.0269966 0 0.0269966 -0.153685 0 0 0 0)
(0 0.0266783 0 0.0266783 -0.151988 0 0 0 0)
(0 0.0263611 0 0.0263611 -0.150295 0 0 0 0)
(0 0.0260418 0 0.0260418 -0.148593 0 0 0 0)
(0 0.0257221 0 0.0257221 -0.146889 0 0 0 0)
(0 0.0254053 0 0.0254053 -0.145187 0 0 0 0)
(0 0.0250908 0 0.0250908 -0.143491 0 0 0 0)
(0 0.02477 0 0.02477 -0.141777 0 0 0 0)
(0 0.0244495 0 0.0244495 -0.140061 0 0 0 0)
(0 0.0241353 0 0.0241353 -0.138362 0 0 0 0)
(0 0.0238165 0 0.0238165 -0.136643 0 0 0 0)
(0 0.0234978 0 0.0234978 -0.13493 0 0 0 0)
(0 0.0231777 0 0.0231777 -0.133207 0 0 0 0)
(0 0.0228613 0 0.0228613 -0.131493 0 0 0 0)
(0 0.0225451 0 0.0225451 -0.129774 0 0 0 0)
(0 0.0222278 0 0.0222278 -0.128051 0 0 0 0)
(0 0.0219108 0 0.0219108 -0.126326 0 0 0 0)
(0 0.0215955 0 0.0215955 -0.124604 0 0 0 0)
(0 0.0212795 0 0.0212795 -0.122876 0 0 0 0)
(0 0.020963 0 0.020963 -0.121146 0 0 0 0)
(0 0.0206469 0 0.0206469 -0.119415 0 0 0 0)
(0 0.0203309 0 0.0203309 -0.117682 0 0 0 0)
(0 0.0200152 0 0.0200152 -0.115947 0 0 0 0)
(0 0.0196997 0 0.0196997 -0.11421 0 0 0 0)
(0 0.0193852 0 0.0193852 -0.112472 0 0 0 0)
(0 0.0190716 0 0.0190716 -0.110734 0 0 0 0)
(0 0.0187583 0 0.0187583 -0.108993 0 0 0 0)
(0 0.0184457 0 0.0184457 -0.107251 0 0 0 0)
(0 0.0181337 0 0.0181337 -0.105508 0 0 0 0)
(0 0.0178218 0 0.0178218 -0.103762 0 0 0 0)
(0 0.0175101 0 0.0175101 -0.102014 0 0 0 0)
(0 0.0171989 0 0.0171989 -0.100265 0 0 0 0)
(0 0.0168882 0 0.0168882 -0.0985142 0 0 0 0)
(0 0.0165781 0 0.0165781 -0.0967619 0 0 0 0)
(0 0.0162687 0 0.0162687 -0.0950084 0 0 0 0)
(0 0.0159602 0 0.0159602 -0.0932538 0 0 0 0)
(0 0.0156524 0 0.0156524 -0.0914979 0 0 0 0)
(0 0.0153454 0 0.0153454 -0.089741 0 0 0 0)
(0 0.0150392 0 0.0150392 -0.0879828 0 0 0 0)
(0 0.0147337 0 0.0147337 -0.0862235 0 0 0 0)
(0 0.0144291 0 0.0144291 -0.0844631 0 0 0 0)
(0 0.0141253 0 0.0141253 -0.0827018 0 0 0 0)
(0 0.0138224 0 0.0138224 -0.0809396 0 0 0 0)
(0 0.0135204 0 0.0135204 -0.0791768 0 0 0 0)
(0 0.0132193 0 0.0132193 -0.0774136 0 0 0 0)
(0 0.0129191 0 0.0129191 -0.0756502 0 0 0 0)
(0 0.0126198 0 0.0126198 -0.0738869 0 0 0 0)
(0 0.0123212 0 0.0123212 -0.072124 0 0 0 0)
(0 0.0120233 0 0.0120233 -0.0703618 0 0 0 0)
(0 0.0117261 0 0.0117261 -0.0686008 0 0 0 0)
(0 0.0114292 0 0.0114292 -0.0668415 0 0 0 0)
(0 0.0111327 0 0.0111327 -0.0650844 0 0 0 0)
(0 0.0108363 0 0.0108363 -0.06333 0 0 0 0)
(0 0.0105398 0 0.0105398 -0.061579 0 0 0 0)
(0 0.0102432 0 0.0102432 -0.0598318 0 0 0 0)
(0 0.0099463 0 0.0099463 -0.058089 0 0 0 0)
(0 0.00964906 0 0.00964906 -0.0563509 0 0 0 0)
(0 0.00935153 0 0.00935153 -0.054618 0 0 0 0)
(0 0.00905381 0 0.00905381 -0.0528906 0 0 0 0)
(0 0.00875616 0 0.00875616 -0.0511688 0 0 0 0)
(0 0.00845894 0 0.00845894 -0.0494529 0 0 0 0)
(0 0.00816251 0 0.00816251 -0.0477431 0 0 0 0)
(0 0.00786709 0 0.00786709 -0.0460394 0 0 0 0)
(0 0.00757258 0 0.00757258 -0.0443417 0 0 0 0)
(0 0.0072784 0 0.0072784 -0.0426494 0 0 0 0)
(0 0.0069839 0 0.0069839 -0.0409619 0 0 0 0)
(0 0.00668879 0 0.00668879 -0.0392801 0 0 0 0)
(0 0.00639378 0 0.00639378 -0.0376063 0 0 0 0)
(0 0.00609918 0 0.00609918 -0.0359439 0 0 0 0)
(0 0.00580257 0 0.00580257 -0.034292 0 0 0 0)
(0 0.00549756 0 0.00549756 -0.0326423 0 0 0 0)
(0 0.00518116 0 0.00518116 -0.0309866 0 0 0 0)
(0 0.00485878 0 0.00485878 -0.0293328 0 0 0 0)
(0 0.00453872 0 0.00453872 -0.0276938 0 0 0 0)
(0 0.00421039 0 0.00421039 -0.0260566 0 0 0 0)
(0 0.00385195 0 0.00385195 -0.0243629 0 0 0 0)
(0 0.00346047 0 0.00346047 -0.022564 0 0 0 0)
(0 0.00310838 0 0.00310838 -0.0207514 0 0 0 0)
(0 0.00287817 0 0.00287817 -0.0191063 0 0 0 0)
(0 0.00299786 0 0.00299786 -0.0171288 0 0 0 0)
(0 0.0070536 0 0.0070536 -0.00988431 0 0 0 0)
(0 0.00653424 0 0.00653424 0.00651057 0 0 0 0)
(0 0.00536623 0 0.00536623 0.00402955 0 0 0 0)
(0 0.00286215 0 0.00286215 0.000161215 0 0 0 0)
(0 0.00497625 0 0.00497625 0.000152544 0 0 0 0)
(0 0.00488204 0 0.00488204 6.11116e-05 0 0 0 0)
(0 0.00413596 0 0.00413596 6.0324e-05 0 0 0 0)
(0 0.00357953 0 0.00357953 4.96609e-05 0 0 0 0)
(0 0.00319993 0 0.00319993 4.44969e-05 0 0 0 0)
(0 0.00293373 0 0.00293373 4.53811e-05 0 0 0 0)
(0 0.00275938 0 0.00275938 4.64309e-05 0 0 0 0)
(0 0.00266108 0 0.00266108 4.84592e-05 0 0 0 0)
(0 0.00262802 0 0.00262802 5.17518e-05 0 0 0 0)
(0 0.00265347 0 0.00265347 5.64584e-05 0 0 0 0)
(0 0.00273287 0 0.00273287 6.27325e-05 0 0 0 0)
(0 0.00286457 0 0.00286457 7.08446e-05 0 0 0 0)
(0 0.00304832 0 0.00304832 8.11274e-05 0 0 0 0)
(0 0.0032852 0 0.0032852 9.3989e-05 0 0 0 0)
(0 0.00357702 0 0.00357702 0.000109921 0 0 0 0)
(0 0.00392587 0 0.00392587 0.000129456 0 0 0 0)
(0 0.00433333 0 0.00433333 0.000153032 0 0 0 0)
(0 0.00479974 0 0.00479974 0.000180669 0 0 0 0)
(0 0.00532312 0 0.00532312 0.000211366 0 0 0 0)
(0 0.00589838 0 0.00589838 0.000241947 0 0 0 0)
(0 0.00651654 0 0.00651654 0.000264298 0 0 0 0)
(0 0.00716563 0 0.00716563 0.000258641 0 0 0 0)
(0 0.00783453 0 0.00783453 0.00018176 0 0 0 0)
(0 0.00851765 0 0.00851765 -4.18814e-05 0 0 0 0)
(0 0.00920826 0 0.00920826 -0.000507552 0 0 0 0)
(0 0.00987213 0 0.00987213 -0.00128511 0 0 0 0)
(0 0.0104221 0 0.0104221 -0.00236135 0 0 0 0)
(0 0.0107317 0 0.0107317 -0.00362019 0 0 0 0)
(0 0.0106899 0 0.0106899 -0.00489377 0 0 0 0)
(0 0.0102441 0 0.0102441 -0.00604391 0 0 0 0)
(0 0.00940134 0 0.00940134 -0.00700254 0 0 0 0)
(0 0.0082023 0 0.0082023 -0.0077592 0 0 0 0)
(0 0.00669831 0 0.00669831 -0.00833169 0 0 0 0)
(0 0.00493952 0 0.00493952 -0.00874548 0 0 0 0)
(0 0.00297081 0 0.00297081 -0.00902464 0 0 0 0)
(0 0.000831087 0 0.000831087 -0.0091891 0 0 0 0)
(0 -0.00144597 0 -0.00144597 -0.00925459 0 0 0 0)
(0 -0.00383099 0 -0.00383099 -0.00923325 0 0 0 0)
(0 -0.00629785 0 -0.00629785 -0.00913441 0 0 0 0)
(0 -0.00882293 0 -0.00882293 -0.00896526 0 0 0 0)
(0 -0.0113844 0 -0.0113844 -0.00873144 0 0 0 0)
(0 -0.0139616 0 -0.0139616 -0.00843746 0 0 0 0)
(0 -0.0165347 0 -0.0165347 -0.00808699 0 0 0 0)
(0 -0.0190845 0 -0.0190845 -0.0076831 0 0 0 0)
(0 -0.0215916 0 -0.0215916 -0.00722846 0 0 0 0)
(0 -0.024037 0 -0.024037 -0.00672544 0 0 0 0)
(0 -0.0264011 0 -0.0264011 -0.00617635 0 0 0 0)
(0 -0.0286642 0 -0.0286642 -0.00558363 0 0 0 0)
(0 -0.0308061 0 -0.0308061 -0.00494998 0 0 0 0)
(0 -0.0328061 0 -0.0328061 -0.00427857 0 0 0 0)
(0 -0.0346427 0 -0.0346427 -0.00357326 0 0 0 0)
(0 -0.036294 0 -0.036294 -0.00283886 0 0 0 0)
(0 -0.0377376 0 -0.0377376 -0.00208128 0 0 0 0)
(0 -0.0389641 0 -0.0389641 -0.00130752 0 0 0 0)
(0 -0.0400547 0 -0.0400547 -0.000519093 0 0 0 0)
(-5.8816e-15 -0.0411031 0 -0.0411031 0.000282968 0 0 0 0)
(0 -0.0421219 0 -0.0421219 0.00108988 0 0 0 0)
(0 -0.0431096 0 -0.0431096 0.00189084 0 0 0 0)
(6.5441e-15 -0.0440653 0 -0.0440653 0.00267276 0 0 0 0)
(0 -0.0449874 0 -0.0449874 0.00342125 0 0 0 0)
(-7.04504e-15 -0.0458736 0 -0.0458736 0.00412165 0 0 0 0)
(0 -0.0467196 0 -0.0467196 0.00475941 0 0 0 0)
(7.59851e-15 -0.0475201 0 -0.0475201 0.00532026 0 0 0 0)
(0 -0.0482675 0 -0.0482675 0.00579039 0 0 0 0)
(0 -0.0489533 0 -0.0489533 0.00615581 0 0 0 0)
(0 -0.0495665 0 -0.0495665 0.00640493 0 0 0 0)
(8.82906e-15 -0.0500867 0 -0.0500867 0.00653444 0 0 0 0)
(0 -0.0504878 0 -0.0504878 0.00654613 0 0 0 0)
(0 -0.0507521 0 -0.0507521 0.00643826 0 0 0 0)
(0 -0.0508597 0 -0.0508597 0.00621251 0 0 0 0)
(0 -0.0507783 0 -0.0507783 0.00588262 0 0 0 0)
(0 -0.0504815 0 -0.0504815 0.00546531 0 0 0 0)
(-1.03892e-14 -0.0499567 0 -0.0499567 0.0049673 0 0 0 0)
(0 -0.0492019 0 -0.0492019 0.00438957 0 0 0 0)
(-1.05973e-14 -0.0482016 0 -0.0482016 0.00374932 0 0 0 0)
(0 -0.0469355 0 -0.0469355 0.00307267 0 0 0 0)
(-1.05713e-14 -0.0454129 0 -0.0454129 0.00236586 0 0 0 0)
(0 -0.0436355 0 -0.0436355 0.00163748 0 0 0 0)
(0 -0.0415884 0 -0.0415884 0.000918379 0 0 0 0)
(0 -0.0392667 0 -0.0392667 0.000233363 0 0 0 0)
(0 -0.0366666 0 -0.0366666 -0.000395201 0 0 0 0)
(0 -0.0337805 0 -0.0337805 -0.000947067 0 0 0 0)
(0 -0.0305883 0 -0.0305883 -0.00137407 0 0 0 0)
(0 -0.0270735 0 -0.0270735 -0.00165002 0 0 0 0)
(0 -0.0232294 0 -0.0232294 -0.00174524 0 0 0 0)
(0 -0.0190067 0 -0.0190067 -0.00165782 0 0 0 0)
(0 -0.0142205 0 -0.0142205 -0.000746232 0 0 0 0)
(0 -0.00895902 0 -0.00895902 0.00105369 0 0 0 0)
(0 -0.00493079 0 -0.00493079 0.00209439 0 0 0 0)
(0 -0 0 -0 0 0 0 0 0)
(0 -0 0 -0 0 0 0 0 0)
(0 -0 0 -0 -0 0 0 0 0)
(0 -0 0 -0 -0 0 0 0 0)
(0 -0 0 -0 0 0 0 0 0)
(0 -0 0 -0 -0 0 0 0 0)
(0 -0 0 -0 0 0 0 0 0)
(-0 -0 0 -0 -0 0 0 0 0)
(0 -0 0 -0 -0 0 0 0 0)
(0 -0 0 -0 -0 0 0 0 0)
(0 -0 0 -0 -0 0 0 0 0)
(-0 -0 0 -0 -0 0 0 0 0)
(0 -0 0 -0 0 0 0 0 0)
(0 -0 0 -0 0 0 0 0 0)
(-0 -0 0 -0 0 0 0 0 0)
(0 -0 0 -0 0 0 0 0 0)
(0 -0 0 -0 0 0 0 0 0)
(0 -0 0 -0 0 0 0 0 0)
(0 -0 0 -0 0 0 0 0 0)
(0 -0 0 -0 0 0 0 0 0)
(0 -0 0 -0 0 0 0 0 0)
(0 -0 0 -0 0 0 0 0 0)
(0 -0 0 -0 0 0 0 0 0)
(0 0 0 0 0 0 0 0 0)
(0 0 0 0 0 0 0 0 0)
(0 0 0 0 0 0 0 0 0)
(0 0 0 0 0 0 0 0 0)
(0 0 0 0 0 0 0 0 0)
(0 0 0 0 0 0 0 0 0)
(0 0 0 0 0 0 0 0 0)
(0 0 0 0 0 0 0 0 0)
(0 0 0 0 0 0 0 0 0)
(0 0 0 0 -0 0 0 0 0)
(0 0 0 0 0 0 0 0 0)
(0 0 0 0 -0 0 0 0 0)
(0 0 0 0 0 0 0 0 0)
(0 0 0 0 -0 0 0 0 0)
(0 0 0 0 0 0 0 0 0)
(0 0 0 0 -0 0 0 0 0)
(0 0 0 0 -0 0 0 0 0)
(0 0 0 0 -0 0 0 0 0)
(0 0 0 0 0 0 0 0 0)
(0 0 0 0 -0 0 0 0 0)
(0 0 0 0 0 0 0 0 0)
(0 0 0 0 -0 0 0 0 0)
(0 0 0 0 0 0 0 0 0)
(0 0 0 0 -0 0 0 0 0)
(0 0 0 0 0 0 0 0 0)
(0 0 0 0 -0 0 0 0 0)
(0 0 0 0 0 0 0 0 0)
(0 0 0 0 -0 0 0 0 0)
(0 0 0 0 0 0 0 0 0)
(0 0 0 0 -0 0 0 0 0)
(0 0 0 0 0 0 0 0 0)
(0 0 0 0 -0 0 0 0 0)
(0 0 0 0 0 0 0 0 0)
(0 -0 0 -0 -0 0 0 0 0)
(0 0 0 0 0 0 0 0 0)
(0 -0 0 -0 -0 0 0 0 0)
(0 0 0 0 0 0 0 0 0)
(0 -0 0 -0 -0 0 0 0 0)
(0 0 0 0 0 0 0 0 0)
(0 -0 0 -0 -0 0 0 0 0)
(0 0 0 0 0 0 0 0 0)
(0 -0 0 -0 -0 0 0 0 0)
(0 0 0 0 0 0 0 0 0)
(0 -0 0 -0 -0 0 0 0 0)
(0 0 0 0 0 0 0 0 0)
(0 -0 0 -0 -0 0 0 0 0)
(0 0 0 0 0 0 0 0 0)
(0 -0 0 -0 -0 0 0 0 0)
(0 0 0 0 0 0 0 0 0)
(0 -0 0 -0 -0 0 0 0 0)
(0 0 0 0 0 0 0 0 0)
(0 -0 0 -0 -0 0 0 0 0)
(0 0 0 0 0 0 0 0 0)
(0 -0 0 -0 -0 0 0 0 0)
(0 0 0 0 0 0 0 0 0)
(0 -0 0 -0 -0 0 0 0 0)
(0 0 0 0 0 0 0 0 0)
(0 -0 0 -0 -0 0 0 0 0)
(0 0 0 0 0 0 0 0 0)
(0 -0 0 -0 -0 0 0 0 0)
(0 0 0 0 0 0 0 0 0)
(0 -0 0 -0 -0 0 0 0 0)
(0 0 0 0 0 0 0 0 0)
(0 -0 0 -0 -0 0 0 0 0)
(0 0 0 0 0 0 0 0 0)
(0 -0 0 -0 -0 0 0 0 0)
(0 0 0 0 0 0 0 0 0)
(0 -0 0 -0 -0 0 0 0 0)
(0 0 0 0 0 0 0 0 0)
(0 -0 0 -0 -0 0 0 0 0)
(0 0 0 0 0 0 0 0 0)
(0 -0 0 -0 -0 0 0 0 0)
(0 0 0 0 0 0 0 0 0)
(0 -0 0 -0 -0 0 0 0 0)
(0 0 0 0 0 0 0 0 0)
(0 -0 0 -0 -0 0 0 0 0)
(0 0 0 0 0 0 0 0 0)
(0 -0 0 -0 -0 0 0 0 0)
(0 0 0 0 0 0 0 0 0)
(0 -0 0 -0 -0 0 0 0 0)
(0 0 0 0 0 0 0 0 0)
(0 -0 0 -0 -0 0 0 0 0)
(0 0 0 0 0 0 0 0 0)
(0 0 0 0 -0 0 0 0 0)
(0 0 0 0 0 0 0 0 0)
(0 -0 0 -0 -0 0 0 0 0)
(0 0 0 0 0 0 0 0 0)
(0 -0 0 -0 -0 0 0 0 0)
(0 0 0 0 0 0 0 0 0)
(0 -0 0 -0 -0 0 0 0 0)
(0 0 0 0 0 0 0 0 0)
(0 -0 0 -0 -0 0 0 0 0)
(0 0 0 0 0 0 0 0 0)
(0 -0 0 -0 -0 0 0 0 0)
(0 -0 0 -0 0 0 0 0 0)
(0 -0 0 -0 0 0 0 0 0)
(0 -0 0 -0 0 0 0 0 0)
(0 -0 0 -0 0 0 0 0 0)
(0 -0 0 -0 0 0 0 0 0)
(0 -0 0 -0 0 0 0 0 0)
(0 -0 0 -0 0 0 0 0 0)
)
;

boundaryField
{
    inandouthalf11
    {
        type            cyclic;
    }
    inandouthalf12
    {
        type            cyclic;
    }
    inandouthalf21
    {
        type            cyclic;
    }
    inandouthalf22
    {
        type            cyclic;
    }
    inandouthalf31
    {
        type            cyclic;
    }
    inandouthalf32
    {
        type            cyclic;
    }
    inandouthalf41
    {
        type            cyclic;
    }
    inandouthalf42
    {
        type            cyclic;
    }
    top
    {
        type            symmetryPlane;
    }
    walls
    {
        type            zeroGradient;
    }
    frontAndBackPlanes
    {
        type            empty;
    }
}


// ************************************************************************* //
