/*--------------------------------*- C++ -*----------------------------------*\
| =========                 |                                                 |
| \\      /  F ield         | OpenFOAM: The Open Source CFD Toolbox           |
|  \\    /   O peration     | Version:  2.4.x                                 |
|   \\  /    A nd           | Web:      www.OpenFOAM.org                      |
|    \\/     M anipulation  |                                                 |
\*---------------------------------------------------------------------------*/
FoamFile
{
    version     2.0;
    format      ascii;
    class       volScalarField;
    location    "8.35";
    object      Theta;
}
// * * * * * * * * * * * * * * * * * * * * * * * * * * * * * * * * * * * * * //

dimensions      [0 2 -2 0 0 0 0];

internalField   nonuniform List<scalar> 
360
(
6.66193e-21
6.66321e-21
6.66271e-21
6.66265e-21
6.6628e-21
6.6629e-21
6.66293e-21
6.66295e-21
6.66296e-21
6.66297e-21
6.66298e-21
6.66299e-21
6.66299e-21
6.66299e-21
6.66298e-21
6.66297e-21
6.66296e-21
6.66295e-21
6.66294e-21
6.66292e-21
6.6629e-21
6.66288e-21
6.66286e-21
6.66284e-21
6.66282e-21
6.6628e-21
6.66277e-21
6.66275e-21
6.66273e-21
6.66271e-21
6.66269e-21
6.66266e-21
6.66264e-21
6.66263e-21
6.66261e-21
6.66259e-21
6.66257e-21
6.66256e-21
6.66254e-21
6.66253e-21
6.66252e-21
6.6625e-21
6.66249e-21
6.66248e-21
6.66247e-21
6.66246e-21
6.66245e-21
6.66244e-21
6.66243e-21
6.66243e-21
6.66242e-21
6.66241e-21
6.6624e-21
6.66239e-21
6.66239e-21
6.66238e-21
6.66237e-21
6.66236e-21
6.66235e-21
6.66235e-21
6.66234e-21
6.66233e-21
6.66232e-21
6.66231e-21
6.6623e-21
6.66229e-21
6.66228e-21
6.66227e-21
6.66226e-21
6.66225e-21
6.66224e-21
6.66223e-21
6.66221e-21
6.6622e-21
6.66219e-21
6.66218e-21
6.66216e-21
6.66215e-21
6.66214e-21
6.66212e-21
6.6621e-21
6.66209e-21
6.66207e-21
6.66206e-21
6.66204e-21
6.66203e-21
6.66201e-21
6.662e-21
6.66198e-21
6.66196e-21
6.66194e-21
6.66193e-21
6.66191e-21
6.66189e-21
6.66188e-21
6.66186e-21
6.66184e-21
6.66183e-21
6.66181e-21
6.66179e-21
6.66178e-21
6.66176e-21
6.66175e-21
6.66173e-21
6.66171e-21
6.6617e-21
6.66168e-21
6.66167e-21
6.66166e-21
6.66164e-21
6.66163e-21
6.66162e-21
6.66161e-21
6.6616e-21
6.6616e-21
6.66159e-21
6.66159e-21
6.66159e-21
6.66159e-21
6.66158e-21
6.66158e-21
6.66158e-21
6.66158e-21
6.66158e-21
6.66158e-21
6.66157e-21
6.66156e-21
6.66155e-21
6.66154e-21
6.66154e-21
6.66153e-21
6.66153e-21
6.66154e-21
6.6585e-21
2.59573e-20
3.51283e-19
5.33466e-18
8.76807e-17
1.58389e-15
3.19867e-14
7.32065e-13
1.92072e-11
6.77544e-10
7.59883e-08
5.00468e-06
8.9046e-05
0.00088239
0.0033474
0.00515085
0.00598686
0.00639888
0.00668629
0.00687567
0.00699039
0.00704374
0.00704308
0.00699336
0.00689557
0.00675285
0.00656809
0.00634523
0.00608954
0.00580768
0.0055075
0.00519778
0.0048876
0.00458596
0.00430088
0.00403877
0.0038038
0.00359756
0.00341921
0.00326609
0.00313459
0.00302106
0.00292227
0.00283559
0.00275893
0.00269066
0.00262943
0.00257418
0.00252402
0.00247819
0.00243608
0.00239715
0.00236095
0.00232707
0.00229518
0.00226499
0.00223622
0.00220865
0.00218209
0.00215636
0.0021313
0.00210679
0.00208271
0.00205895
0.00203542
0.00201205
0.00198877
0.00196552
0.00194202
0.00191797
0.00189333
0.00186803
0.00184201
0.00181523
0.00178762
0.00175912
0.00172968
0.00169924
0.00166774
0.00163513
0.00160133
0.00156628
0.00152993
0.0014922
0.00145301
0.00141229
0.00136994
0.00132588
0.00127999
0.00123214
0.00118219
0.00112997
0.00107529
0.0010179
0.000957515
0.00089377
0.000826201
0.000754195
0.000676912
0.000593134
0.00050096
0.000397038
0.000274067
0
0
0
0
0
0
0
0
0
0
0
0
0
0
0
0
0
0
0
0
0
0
0
0
0
0
0
0
0
0
0
0
0
0
0
0
0
0
0
0
0
0
0
0
0
0
0
0
0
0
0
0
0
0
0
0
0
0
0
0
0
0
0
0
0
0
0
0
0
0
0
0
0
0
0
0
0
0
0
0
0
0
0
0
0
0
0
0
0
0
0
0
0
0
0
0
0
0
0
0
0
0
0
0
0
0
0
0
0
0
0
0
0
0
0
0
0
0
0
0
0
0
0
0
)
;

boundaryField
{
    inandouthalf11
    {
        type            cyclic;
    }
    inandouthalf12
    {
        type            cyclic;
    }
    inandouthalf21
    {
        type            cyclic;
    }
    inandouthalf22
    {
        type            cyclic;
    }
    inandouthalf31
    {
        type            cyclic;
    }
    inandouthalf32
    {
        type            cyclic;
    }
    inandouthalf41
    {
        type            cyclic;
    }
    inandouthalf42
    {
        type            cyclic;
    }
    top
    {
        type            symmetryPlane;
    }
    walls
    {
        type            zeroGradient;
    }
    frontAndBackPlanes
    {
        type            empty;
    }
}


// ************************************************************************* //
