/*--------------------------------*- C++ -*----------------------------------*\
| =========                 |                                                 |
| \\      /  F ield         | OpenFOAM: The Open Source CFD Toolbox           |
|  \\    /   O peration     | Version:  2.4.x                                 |
|   \\  /    A nd           | Web:      www.OpenFOAM.org                      |
|    \\/     M anipulation  |                                                 |
\*---------------------------------------------------------------------------*/
FoamFile
{
    version     2.0;
    format      ascii;
    class       volScalarField;
    location    "8.4";
    object      alpha_0;
}
// * * * * * * * * * * * * * * * * * * * * * * * * * * * * * * * * * * * * * //

dimensions      [0 0 0 0 0 0 0];

internalField   nonuniform List<scalar> 
360
(
0.610849
0.611694
0.611788
0.611701
0.611657
0.611642
0.611625
0.611602
0.611579
0.611556
0.611533
0.611509
0.611485
0.611461
0.611437
0.611413
0.611388
0.611363
0.611338
0.611313
0.611287
0.611262
0.611236
0.611209
0.611183
0.611156
0.611129
0.611102
0.611075
0.611047
0.611019
0.610991
0.610963
0.610934
0.610905
0.610875
0.610846
0.610816
0.610785
0.610755
0.610724
0.610693
0.610662
0.610629
0.610597
0.610565
0.610532
0.610499
0.610465
0.610431
0.610396
0.610361
0.610326
0.61029
0.610255
0.610218
0.610181
0.610143
0.610106
0.610067
0.610028
0.609989
0.609949
0.609909
0.609868
0.609826
0.609784
0.609742
0.609698
0.609655
0.60961
0.609565
0.60952
0.609473
0.609426
0.609378
0.60933
0.609281
0.609231
0.60918
0.609129
0.609076
0.609023
0.608969
0.608914
0.608858
0.608801
0.608744
0.608685
0.608625
0.608564
0.608502
0.608439
0.608374
0.608309
0.608242
0.608173
0.608104
0.608032
0.60796
0.607886
0.60781
0.607733
0.607653
0.607573
0.60749
0.607405
0.607318
0.607229
0.607138
0.607045
0.606949
0.606851
0.60675
0.606646
0.606539
0.60643
0.606317
0.606201
0.606082
0.605959
0.605833
0.605702
0.605567
0.605427
0.605283
0.605133
0.604978
0.604816
0.604648
0.604472
0.604289
0.604097
0.603896
0.603682
0.603456
0.603219
0.602969
0.602692
0.602374
0.602029
0.601695
0.601294
0.600778
0.600133
0.592791
0.41505
0.302426
0.253137
0.222266
0.198442
0.177174
0.157937
0.140226
0.123783
0.108499
0.0943418
0.0813198
0.0694507
0.0587411
0.0491844
0.0407546
0.0334069
0.0270798
0.0216993
0.0171829
0.0134427
0.0103895
0.00793436
0.00599074
0.00447549
0.00331081
0.00242813
0.00177119
0.00129432
0.000957463
0.000724039
0.000562751
0.000449713
0.000368444
0.000308259
0.000262383
0.000226496
0.000197784
0.000174366
0.000154947
0.000138615
0.000124709
0.000112742
0.000102347
9.32418e-05
8.52089e-05
7.80753e-05
7.1703e-05
6.59804e-05
6.08163e-05
5.6135e-05
5.18735e-05
4.79787e-05
4.44053e-05
4.11144e-05
3.80427e-05
3.51424e-05
3.24004e-05
2.98048e-05
2.73451e-05
2.50123e-05
2.27998e-05
2.07031e-05
1.87195e-05
1.68479e-05
1.50883e-05
1.34405e-05
1.19066e-05
1.04902e-05
9.19127e-06
8.00766e-06
6.93879e-06
5.982e-06
5.13184e-06
4.38017e-06
3.71958e-06
3.14475e-06
2.64655e-06
2.21625e-06
1.84739e-06
1.53297e-06
1.26572e-06
1.04009e-06
8.49307e-07
6.90838e-07
5.56596e-07
4.46754e-07
3.52175e-07
2.90193e-07
2.26518e-07
1.61096e-07
1.1832e-07
8.57061e-08
6.06927e-08
4.10123e-08
2.75057e-08
1.49329e-08
9.56194e-09
9.04057e-10
1.28962e-20
1.23973e-31
1.10286e-42
2.89745e-44
1.71518e-44
1.17169e-44
8.376e-45
5.24275e-45
2.31758e-45
1.09944e-45
5.95419e-46
3.47876e-46
2.11794e-46
1.13359e-46
5.30888e-47
2.7211e-47
1.43326e-47
7.44375e-48
3.68e-48
1.8316e-48
8.98382e-49
4.3329e-49
2.05414e-49
9.56741e-50
4.37544e-50
1.9636e-50
8.64204e-51
3.72754e-51
1.57459e-51
6.50925e-52
2.63133e-52
1.03929e-52
4.00719e-53
1.50687e-53
5.52091e-54
1.96872e-54
6.82501e-55
2.29741e-55
7.49926e-56
2.37046e-56
7.24459e-57
2.1372e-57
6.07494e-58
1.66054e-58
4.35541e-59
1.09357e-59
2.62154e-60
5.98253e-61
1.2954e-61
2.6516e-62
5.10931e-63
9.22301e-64
1.55099e-64
2.41395e-65
3.45023e-66
4.48629e-67
5.24591e-68
5.4363e-69
4.89863e-70
3.74047e-71
2.33227e-72
1.12091e-73
3.74683e-75
6.86773e-77
1.61779e-79
1.22626e-84
9.78693e-87
3.87166e-89
1.37935e-99
2.46125e-110
3.21166e-121
3.00468e-132
2.42882e-143
1.47685e-154
7.7782e-166
4.64036e-176
2.0428e-186
1.49464e-194
6.00956e-205
5.14087e-213
2.43584e-223
1.76906e-231
1.03062e-241
6.09302e-250
6.62186e-260
2.13805e-268
4.39773e-278
7.70726e-287
2.17969e-296
2.84503e-305
1.04442e-314
1.77844e-318
8.52757e-321
4.57737e-319
2.8055e-319
6.80328e-321
7.09478e-321
6.08689e-321
8.5424e-321
0
0
0
0
0
0
0
0
0
0
0
0
0
0
0
0
)
;

boundaryField
{
    inandouthalf11
    {
        type            cyclic;
    }
    inandouthalf12
    {
        type            cyclic;
    }
    inandouthalf21
    {
        type            cyclic;
    }
    inandouthalf22
    {
        type            cyclic;
    }
    inandouthalf31
    {
        type            cyclic;
    }
    inandouthalf32
    {
        type            cyclic;
    }
    inandouthalf41
    {
        type            cyclic;
    }
    inandouthalf42
    {
        type            cyclic;
    }
    top
    {
        type            symmetryPlane;
    }
    walls
    {
        type            zeroGradient;
    }
    frontAndBackPlanes
    {
        type            empty;
    }
}


// ************************************************************************* //
