/*--------------------------------*- C++ -*----------------------------------*\
| =========                 |                                                 |
| \\      /  F ield         | OpenFOAM: The Open Source CFD Toolbox           |
|  \\    /   O peration     | Version:  2.4.x                                 |
|   \\  /    A nd           | Web:      www.OpenFOAM.org                      |
|    \\/     M anipulation  |                                                 |
\*---------------------------------------------------------------------------*/
FoamFile
{
    version     2.0;
    format      ascii;
    class       volVectorField;
    location    "8.4";
    object      ddt0(Ub);
}
// * * * * * * * * * * * * * * * * * * * * * * * * * * * * * * * * * * * * * //

dimensions      [0 1 -2 0 0 0 0];

internalField   nonuniform List<vector> 
360
(
(-0.000220194 -1.90368e-08 0)
(-0.000219054 -6.83878e-08 0)
(-0.000218882 -1.26306e-07 0)
(-0.000219048 -1.79713e-07 0)
(-0.00021914 -2.31955e-07 0)
(-0.000219178 -2.84796e-07 0)
(-0.000219218 -3.37473e-07 0)
(-0.000219266 -3.89046e-07 0)
(-0.000219315 -4.39067e-07 0)
(-0.000219363 -4.87364e-07 0)
(-0.000219412 -5.33828e-07 0)
(-0.000219459 -5.78354e-07 0)
(-0.000219506 -6.20858e-07 0)
(-0.000219553 -6.61291e-07 0)
(-0.000219599 -6.99651e-07 0)
(-0.000219645 -7.35974e-07 0)
(-0.000219691 -7.70332e-07 0)
(-0.000219737 -8.02826e-07 0)
(-0.000219782 -8.33563e-07 0)
(-0.000219828 -8.62679e-07 0)
(-0.000219873 -8.9032e-07 0)
(-0.000219918 -9.16646e-07 0)
(-0.000219963 -9.41827e-07 0)
(-0.000220008 -9.66043e-07 0)
(-0.000220053 -9.89474e-07 0)
(-0.000220099 -1.0123e-06 0)
(-0.000220145 -1.0347e-06 0)
(-0.000220191 -1.05685e-06 0)
(-0.000220238 -1.07891e-06 0)
(-0.000220285 -1.10106e-06 0)
(-0.000220332 -1.12344e-06 0)
(-0.000220381 -1.14619e-06 0)
(-0.000220429 -1.16942e-06 0)
(-0.000220479 -1.19327e-06 0)
(-0.000220529 -1.21782e-06 0)
(-0.00022058 -1.24316e-06 0)
(-0.000220632 -1.26935e-06 0)
(-0.000220684 -1.29646e-06 0)
(-0.000220738 -1.32453e-06 0)
(-0.000220791 -1.35359e-06 0)
(-0.000220847 -1.38366e-06 0)
(-0.000220902 -1.41473e-06 0)
(-0.000220958 -1.44682e-06 0)
(-0.000221016 -1.47992e-06 0)
(-0.000221074 -1.514e-06 0)
(-0.000221134 -1.54904e-06 0)
(-0.000221194 -1.58501e-06 0)
(-0.000221255 -1.62186e-06 0)
(-0.000221316 -1.65956e-06 0)
(-0.00022138 -1.69807e-06 0)
(-0.000221443 -1.73733e-06 0)
(-0.000221508 -1.77732e-06 0)
(-0.000221573 -1.81798e-06 0)
(-0.00022164 -1.85925e-06 0)
(-0.000221706 -1.90109e-06 0)
(-0.000221775 -1.94345e-06 0)
(-0.000221844 -1.98627e-06 0)
(-0.000221914 -2.0295e-06 0)
(-0.000221985 -2.07309e-06 0)
(-0.000222056 -2.11698e-06 0)
(-0.000222129 -2.16115e-06 0)
(-0.000222202 -2.20554e-06 0)
(-0.000222277 -2.25013e-06 0)
(-0.000222353 -2.29487e-06 0)
(-0.00022243 -2.33973e-06 0)
(-0.000222507 -2.38465e-06 0)
(-0.000222586 -2.4296e-06 0)
(-0.000222666 -2.47453e-06 0)
(-0.000222746 -2.5194e-06 0)
(-0.000222828 -2.56415e-06 0)
(-0.000222911 -2.60878e-06 0)
(-0.000222996 -2.65327e-06 0)
(-0.00022308 -2.69757e-06 0)
(-0.000223167 -2.74169e-06 0)
(-0.000223255 -2.78558e-06 0)
(-0.000223344 -2.82922e-06 0)
(-0.000223434 -2.87258e-06 0)
(-0.000223526 -2.91561e-06 0)
(-0.000223619 -2.95827e-06 0)
(-0.000223713 -3.00053e-06 0)
(-0.000223809 -3.04237e-06 0)
(-0.000223906 -3.08376e-06 0)
(-0.000224005 -3.12469e-06 0)
(-0.000224106 -3.16516e-06 0)
(-0.000224208 -3.20516e-06 0)
(-0.000224312 -3.24468e-06 0)
(-0.000224418 -3.28369e-06 0)
(-0.000224525 -3.32217e-06 0)
(-0.000224634 -3.36009e-06 0)
(-0.000224745 -3.39743e-06 0)
(-0.000224859 -3.43416e-06 0)
(-0.000224974 -3.47028e-06 0)
(-0.000225091 -3.50576e-06 0)
(-0.000225211 -3.54063e-06 0)
(-0.000225333 -3.57491e-06 0)
(-0.000225457 -3.60858e-06 0)
(-0.000225584 -3.64168e-06 0)
(-0.000225714 -3.67422e-06 0)
(-0.000225846 -3.70619e-06 0)
(-0.000225981 -3.73762e-06 0)
(-0.000226119 -3.76849e-06 0)
(-0.00022626 -3.79881e-06 0)
(-0.000226404 -3.82857e-06 0)
(-0.000226551 -3.85776e-06 0)
(-0.000226702 -3.88636e-06 0)
(-0.000226856 -3.91434e-06 0)
(-0.000227014 -3.94171e-06 0)
(-0.000227175 -3.96847e-06 0)
(-0.000227341 -3.99461e-06 0)
(-0.000227511 -4.0202e-06 0)
(-0.000227685 -4.04527e-06 0)
(-0.000227864 -4.06993e-06 0)
(-0.000228048 -4.09427e-06 0)
(-0.000228236 -4.11838e-06 0)
(-0.00022843 -4.14238e-06 0)
(-0.000228629 -4.16632e-06 0)
(-0.000228834 -4.19026e-06 0)
(-0.000229045 -4.21422e-06 0)
(-0.000229262 -4.2382e-06 0)
(-0.000229485 -4.2622e-06 0)
(-0.000229714 -4.2863e-06 0)
(-0.000229951 -4.31067e-06 0)
(-0.000230195 -4.33563e-06 0)
(-0.000230447 -4.36166e-06 0)
(-0.000230707 -4.38939e-06 0)
(-0.000230977 -4.41953e-06 0)
(-0.000231256 -4.45271e-06 0)
(-0.000231548 -4.48932e-06 0)
(-0.000231851 -4.52932e-06 0)
(-0.000232168 -4.57206e-06 0)
(-0.000232499 -4.61617e-06 0)
(-0.000232843 -4.65959e-06 0)
(-0.000233202 -4.69983e-06 0)
(-0.000233579 -4.73434e-06 0)
(-0.000233976 -4.76113e-06 0)
(-0.000234392 -4.77947e-06 0)
(-0.000234824 -4.79134e-06 0)
(-0.000235278 -4.80323e-06 0)
(-0.000235781 -4.82737e-06 0)
(-0.000236363 -4.87877e-06 0)
(-0.000237002 -4.96045e-06 0)
(-0.000237628 -5.04711e-06 0)
(-0.000238402 -3.26967e-06 0)
(-0.000239405 -8.61907e-05 0)
(-0.000228868 0.000472157 0)
(0.00777767 -0.00124589 0)
(0.801229 -0.00484509 0)
(0.937793 0.00644123 0)
(0.800205 0.000553602 0)
(0.670466 -0.00020903 0)
(0.55841 -0.000456825 0)
(0.466725 8.35394e-05 0)
(0.395438 0.000994169 0)
(0.343168 0.00188369 0)
(0.30747 0.0025118 0)
(0.285539 0.00277961 0)
(0.274748 0.00269192 0)
(0.272731 0.00231608 0)
(0.277457 0.00175108 0)
(0.287254 0.00110404 0)
(0.300791 0.000472192 0)
(0.317063 -7.06638e-05 0)
(0.335376 -0.000482218 0)
(0.355324 -0.000751962 0)
(0.376763 -0.000893768 0)
(0.399777 -0.000934532 0)
(0.424635 -0.000903961 0)
(0.451735 -0.000828443 0)
(0.481527 -0.000728914 0)
(0.514405 -0.000621046 0)
(0.550554 -0.000515813 0)
(0.589773 -0.000419347 0)
(0.631313 -0.000333128 0)
(0.673828 -0.000256398 0)
(0.715543 -0.000189543 0)
(0.754645 -0.0001347 0)
(0.789718 -9.33387e-05 0)
(0.820015 -6.44626e-05 0)
(0.845456 -4.52416e-05 0)
(0.866436 -3.26008e-05 0)
(0.883585 -2.41679e-05 0)
(0.89759 -1.83925e-05 0)
(0.909084 -1.43239e-05 0)
(0.918606 -1.13811e-05 0)
(0.926587 -9.20118e-06 0)
(0.933369 -7.55071e-06 0)
(0.939212 -6.27877e-06 0)
(0.944318 -5.27934e-06 0)
(0.94884 -4.48358e-06 0)
(0.952895 -3.84092e-06 0)
(0.956574 -3.31559e-06 0)
(0.959945 -2.88156e-06 0)
(0.963064 -2.51947e-06 0)
(0.965971 -2.21477e-06 0)
(0.9687 -1.95637e-06 0)
(0.971277 -1.7357e-06 0)
(0.973723 -1.54608e-06 0)
(0.976055 -1.3822e-06 0)
(0.978286 -1.23988e-06 0)
(0.980427 -1.11571e-06 0)
(0.982488 -1.00691e-06 0)
(0.984495 -9.10178e-07 0)
(0.986474 -8.232e-07 0)
(0.988427 -7.44872e-07 0)
(0.990356 -6.74234e-07 0)
(0.992263 -6.10425e-07 0)
(0.994151 -5.5264e-07 0)
(0.996021 -5.00141e-07 0)
(0.997874 -4.52275e-07 0)
(0.999711 -4.08467e-07 0)
(1.00153 -3.68243e-07 0)
(1.00334 -3.31193e-07 0)
(1.00513 -2.96938e-07 0)
(1.00691 -2.65164e-07 0)
(1.00867 -2.35717e-07 0)
(1.01042 -2.08532e-07 0)
(1.01216 -1.8351e-07 0)
(1.01388 -1.60564e-07 0)
(1.01558 -1.39696e-07 0)
(1.01727 -1.20915e-07 0)
(1.01894 -1.04133e-07 0)
(1.0206 -8.91962e-08 0)
(1.02223 -7.60115e-08 0)
(1.02385 -6.44874e-08 0)
(1.02544 -5.44737e-08 0)
(1.02702 -4.5801e-08 0)
(1.02856 -3.83459e-08 0)
(1.03009 -3.19862e-08 0)
(1.03158 -2.65877e-08 0)
(1.03304 -2.20199e-08 0)
(1.03447 -1.81851e-08 0)
(1.03587 -1.4973e-08 0)
(1.03722 -1.22078e-08 0)
(1.03854 -9.83728e-09 0)
(1.0398 -8.10578e-09 0)
(1.04101 -6.89508e-09 0)
(1.04217 -5.71338e-09 0)
(1.04327 -4.52789e-09 0)
(1.0443 -3.53316e-09 0)
(1.04525 -2.78682e-09 0)
(1.04612 -2.14287e-09 0)
(1.04691 -1.75026e-09 0)
(1.04759 -1.48402e-09 0)
(1.04816 -1.35898e-09 0)
(1.04861 -1.06169e-09 0)
(1.04892 -7.83399e-10 0)
(1.04908 -9.8503e-10 0)
(1.04908 -9.65536e-10 0)
(1.04889 -9.27997e-10 0)
(1.0485 -9.00219e-10 0)
(1.04789 -8.76243e-10 0)
(1.04703 -8.54527e-10 0)
(1.04591 -8.31998e-10 0)
(1.0445 -8.13757e-10 0)
(1.0428 -7.9653e-10 0)
(1.04081 -7.82518e-10 0)
(1.03854 -7.98901e-10 0)
(1.03604 -6.62181e-10 0)
(1.03339 -9.02689e-10 0)
(1.0307 -4.92901e-10 0)
(1.02814 -1.06881e-09 0)
(1.02588 -3.2767e-10 0)
(1.02416 -1.23781e-09 0)
(1.02323 -2.10204e-10 0)
(1.02425 -1.32436e-09 0)
(1.02502 -6.99844e-11 0)
(1.02507 -1.29895e-09 0)
(1.02507 8.56558e-11 0)
(1.02507 -1.28171e-09 0)
(1.02507 2.3044e-10 0)
(1.02507 -1.28941e-09 0)
(1.02507 3.47681e-10 0)
(1.02507 -1.32081e-09 0)
(1.02507 4.84528e-10 0)
(1.02507 -1.3366e-09 0)
(1.02507 6.20463e-10 0)
(1.02507 -1.37758e-09 0)
(1.02507 7.5237e-10 0)
(1.02507 -1.42924e-09 0)
(1.02507 8.76159e-10 0)
(1.02507 -1.49628e-09 0)
(1.02507 1.00728e-09 0)
(1.02507 -1.5603e-09 0)
(1.02507 1.14676e-09 0)
(1.02507 -1.62936e-09 0)
(1.02507 1.29051e-09 0)
(1.02507 -1.70249e-09 0)
(1.02507 1.44724e-09 0)
(1.02507 -1.77749e-09 0)
(1.02507 1.59792e-09 0)
(1.02507 -1.869e-09 0)
(1.02507 1.75553e-09 0)
(1.02507 -1.95586e-09 0)
(1.02507 1.92355e-09 0)
(1.02507 -2.0507e-09 0)
(1.02507 2.09678e-09 0)
(1.02507 -2.14877e-09 0)
(1.02507 2.26293e-09 0)
(1.02507 -2.275e-09 0)
(1.02507 2.41982e-09 0)
(1.02507 -2.41406e-09 0)
(1.02507 2.57825e-09 0)
(1.02507 -2.55764e-09 0)
(1.02507 2.74586e-09 0)
(1.02507 -2.70568e-09 0)
(1.02507 2.91428e-09 0)
(1.02507 -2.8641e-09 0)
(1.02507 3.08817e-09 0)
(1.02507 -3.02905e-09 0)
(1.02507 3.27035e-09 0)
(1.02507 -2.79352e-09 0)
(1.02507 2.99636e-09 0)
(1.02507 -2.82675e-09 0)
(1.02507 3.05195e-09 0)
(1.02507 -2.86654e-09 0)
(1.02507 3.10209e-09 0)
(1.02507 -2.90771e-09 0)
(1.02507 3.15579e-09 0)
(1.02507 -2.947e-09 0)
(1.02507 3.19966e-09 0)
(1.02507 -2.98718e-09 0)
(1.02507 3.25406e-09 0)
(1.02507 -3.01979e-09 0)
(1.02507 3.29732e-09 0)
(1.02507 -3.0658e-09 0)
(1.02507 3.33722e-09 0)
(1.02507 -3.09675e-09 0)
(1.02507 3.4409e-09 0)
(1.02507 -3.01601e-09 0)
(1.02507 3.58249e-09 0)
(1.02507 -2.93301e-09 0)
(1.02507 3.72084e-09 0)
(1.02507 -2.91274e-09 0)
(1.02507 3.77626e-09 0)
(1.02507 -3.08225e-09 0)
(1.02507 3.45356e-09 0)
(1.02507 -3.48036e-09 0)
(1.02507 3.30078e-09 0)
(1.02507 -3.83271e-09 0)
(1.02507 2.56662e-09 0)
(1.02507 -4.95224e-09 0)
(1.02507 1.32713e-09 0)
(1.02507 -6.67935e-09 0)
(1.02507 -9.10613e-10 0)
(1.02507 -9.18649e-09 0)
(1.02507 -3.31214e-09 0)
(1.02507 -1.20028e-08 0)
(1.02507 -6.85453e-09 0)
(1.02507 -1.62923e-08 0)
(1.02507 -1.15122e-08 0)
(1.02507 -2.15792e-08 0)
(1.02507 -1.74404e-08 0)
(1.02507 -2.90183e-08 0)
(1.02507 -2.66912e-08 0)
(1.02507 -3.86609e-08 0)
(1.02507 -3.5076e-08 0)
(1.02507 -4.71001e-08 0)
(1.02507 -4.40209e-08 0)
(1.02507 -5.36465e-08 0)
(1.02507 -2.19544e-08 0)
)
;

boundaryField
{
    inandouthalf11
    {
        type            cyclic;
    }
    inandouthalf12
    {
        type            cyclic;
    }
    inandouthalf21
    {
        type            cyclic;
    }
    inandouthalf22
    {
        type            cyclic;
    }
    inandouthalf31
    {
        type            cyclic;
    }
    inandouthalf32
    {
        type            cyclic;
    }
    inandouthalf41
    {
        type            cyclic;
    }
    inandouthalf42
    {
        type            cyclic;
    }
    top
    {
        type            symmetryPlane;
    }
    walls
    {
        type            calculated;
        value           uniform (0 0 0);
    }
    frontAndBackPlanes
    {
        type            empty;
    }
}


// ************************************************************************* //
