/*--------------------------------*- C++ -*----------------------------------*\
| =========                 |                                                 |
| \\      /  F ield         | OpenFOAM: The Open Source CFD Toolbox           |
|  \\    /   O peration     | Version:  2.4.x                                 |
|   \\  /    A nd           | Web:      www.OpenFOAM.org                      |
|    \\/     M anipulation  |                                                 |
\*---------------------------------------------------------------------------*/
FoamFile
{
    version     2.0;
    format      ascii;
    class       surfaceScalarField;
    location    "8.4";
    object      ddt0(phia);
}
// * * * * * * * * * * * * * * * * * * * * * * * * * * * * * * * * * * * * * //

dimensions      [0 3 -2 0 0 0 0];

internalField   nonuniform List<scalar> 
359
(
9.88053e-14
2.51003e-13
3.90359e-13
5.22112e-13
6.55851e-13
7.90697e-13
9.23568e-13
1.05286e-12
1.17792e-12
1.29848e-12
1.41428e-12
1.52505e-12
1.63061e-12
1.7309e-12
1.82595e-12
1.91593e-12
2.00103e-12
2.08154e-12
2.15776e-12
2.23007e-12
2.29882e-12
2.36445e-12
2.42742e-12
2.48817e-12
2.54716e-12
2.60486e-12
2.66171e-12
2.71816e-12
2.77464e-12
2.83153e-12
2.8892e-12
2.94801e-12
3.00822e-12
3.07015e-12
3.13399e-12
3.19997e-12
3.26822e-12
3.33889e-12
3.41208e-12
3.48783e-12
3.5662e-12
3.64719e-12
3.73076e-12
3.81692e-12
3.90559e-12
3.99671e-12
4.09019e-12
4.18587e-12
4.28371e-12
4.38363e-12
4.48545e-12
4.5891e-12
4.69441e-12
4.80129e-12
4.90956e-12
5.01917e-12
5.1299e-12
5.24169e-12
5.35435e-12
5.46775e-12
5.58188e-12
5.69657e-12
5.8118e-12
5.92741e-12
6.04332e-12
6.15938e-12
6.27551e-12
6.39159e-12
6.50751e-12
6.62315e-12
6.73852e-12
6.85356e-12
6.96814e-12
7.08228e-12
7.19587e-12
7.30888e-12
7.42116e-12
7.5326e-12
7.64312e-12
7.75266e-12
7.86113e-12
7.96851e-12
8.0748e-12
8.17995e-12
8.28397e-12
8.3868e-12
8.48838e-12
8.58865e-12
8.68753e-12
8.78496e-12
8.8809e-12
8.97532e-12
9.06825e-12
9.15969e-12
9.2497e-12
9.3383e-12
9.42553e-12
9.51142e-12
9.59599e-12
9.67926e-12
9.76121e-12
9.84185e-12
9.92115e-12
9.99907e-12
1.00756e-11
1.01506e-11
1.02242e-11
1.02963e-11
1.03671e-11
1.04365e-11
1.0505e-11
1.05726e-11
1.06397e-11
1.07066e-11
1.07734e-11
1.08404e-11
1.09076e-11
1.09751e-11
1.10428e-11
1.11108e-11
1.11795e-11
1.12495e-11
1.13218e-11
1.13979e-11
1.14796e-11
1.15689e-11
1.16672e-11
1.17752e-11
1.18921e-11
1.20154e-11
1.21405e-11
1.22614e-11
1.23711e-11
1.24634e-11
1.2534e-11
1.25835e-11
1.26218e-11
1.26737e-11
1.27795e-11
1.29773e-11
1.32511e-11
1.34989e-11
1.36382e-11
1.36756e-11
1.36823e-11
1.43704e-08
-1.19095e-09
-1.00365e-08
-1.35338e-09
5.418e-09
1.20361e-09
-1.46304e-08
-3.8724e-08
-6.6755e-08
-9.44893e-08
-1.18516e-07
-1.36262e-07
-1.4604e-07
-1.47188e-07
-1.40045e-07
-1.26037e-07
-1.07428e-07
-8.67813e-08
-6.63244e-08
-4.75337e-08
-3.10581e-08
-1.68766e-08
-4.51448e-09
6.81322e-09
1.82239e-08
3.13103e-08
4.77425e-08
6.77268e-08
8.88028e-08
1.0709e-07
1.19904e-07
1.26904e-07
1.29284e-07
1.2859e-07
1.26094e-07
1.22663e-07
1.18829e-07
1.14895e-07
1.11023e-07
1.07295e-07
1.03744e-07
1.0038e-07
9.72023e-08
9.42011e-08
9.13657e-08
8.86847e-08
8.61469e-08
8.37423e-08
8.14617e-08
7.92973e-08
7.72425e-08
7.52918e-08
7.34409e-08
7.16863e-08
7.00258e-08
6.84578e-08
6.69522e-08
6.55126e-08
6.41432e-08
6.28484e-08
6.16329e-08
6.0501e-08
5.94563e-08
5.85009e-08
5.76359e-08
5.68608e-08
5.61741e-08
5.55734e-08
5.50522e-08
5.46025e-08
5.42191e-08
5.38957e-08
5.36231e-08
5.33937e-08
5.32031e-08
5.30501e-08
5.29291e-08
5.28332e-08
5.27643e-08
5.27205e-08
5.26955e-08
5.26877e-08
5.26922e-08
5.27069e-08
5.27193e-08
5.27204e-08
5.26856e-08
5.26369e-08
5.24115e-08
5.1717e-08
5.13282e-08
5.10447e-08
5.1064e-08
4.56547e-08
4.91044e-08
1.3573e-08
5.74212e-08
-4.97428e-08
1.67206e-07
5.81892e-07
1.1175e-07
7.55223e-11
1.0702e-12
-3.33051e-10
-3.19606e-10
-3.55286e-10
-3.882e-10
-4.22232e-10
-4.55955e-10
-4.87909e-10
-5.1664e-10
-5.44308e-10
-5.41648e-10
-5.45046e-10
-5.49634e-10
-5.24002e-10
-5.09161e-10
-5.04292e-10
-5.68296e-10
-4.58608e-10
-3.98615e-10
-3.98503e-10
-3.98659e-10
-3.98668e-10
-3.98667e-10
-3.98668e-10
-3.98667e-10
-3.98668e-10
-3.98667e-10
-3.98668e-10
-3.98667e-10
-3.98668e-10
-3.98667e-10
-3.98668e-10
-3.98667e-10
-3.98668e-10
-3.98667e-10
-3.98668e-10
-3.98667e-10
-3.98668e-10
-3.98667e-10
-3.98667e-10
-3.98667e-10
-3.98667e-10
-3.98667e-10
-3.98667e-10
-3.98667e-10
-3.98667e-10
-3.98667e-10
-3.98667e-10
-3.98667e-10
-3.98667e-10
-3.98667e-10
-3.98667e-10
-3.98667e-10
-3.98667e-10
-3.98667e-10
-3.98667e-10
-3.98667e-10
-3.98667e-10
-3.98667e-10
-3.98667e-10
-3.98667e-10
-3.98667e-10
-3.98666e-10
-3.98667e-10
-3.98666e-10
-3.98667e-10
-3.98666e-10
-3.98667e-10
-3.98667e-10
-3.98667e-10
-3.98667e-10
-3.98667e-10
-3.98667e-10
-3.98667e-10
-3.98667e-10
-3.98667e-10
-3.98667e-10
-3.98667e-10
-3.98667e-10
-3.98667e-10
-3.98666e-10
-3.98667e-10
-3.98666e-10
-3.98666e-10
-3.98666e-10
-3.98666e-10
-3.98666e-10
-3.98666e-10
-3.98667e-10
-3.98667e-10
-3.98667e-10
-3.98667e-10
-3.98669e-10
-3.98669e-10
-3.98671e-10
-3.98672e-10
-3.98675e-10
-3.98676e-10
-3.98679e-10
-3.98681e-10
-3.98685e-10
-3.98688e-10
-3.98692e-10
-3.98697e-10
-3.98702e-10
-3.9871e-10
-3.98717e-10
-3.98725e-10
-3.98738e-10
-3.98957e-10
-4.0355e-10
-6.13907e-10
)
;

boundaryField
{
    inandouthalf11
    {
        type            cyclic;
        value           nonuniform List<scalar> 
100
(
-4.98665e-39
8.3294e-15
1.70976e-14
2.45474e-14
3.16927e-14
3.87328e-14
4.54394e-14
5.16505e-14
5.72968e-14
6.23423e-14
6.67637e-14
7.0544e-14
7.36733e-14
7.61512e-14
7.79873e-14
7.92005e-14
7.98173e-14
7.98699e-14
7.93953e-14
7.84346e-14
7.70321e-14
7.52347e-14
7.30911e-14
7.0651e-14
6.7964e-14
6.50796e-14
6.20458e-14
5.89089e-14
5.57129e-14
5.24991e-14
4.93053e-14
4.61662e-14
4.31125e-14
4.01714e-14
3.73661e-14
3.4716e-14
3.22369e-14
2.99409e-14
2.78369e-14
2.59306e-14
2.42247e-14
2.27193e-14
2.14122e-14
2.02992e-14
1.93741e-14
1.86295e-14
1.80562e-14
1.76442e-14
1.73828e-14
1.72617e-14
1.72696e-14
1.73947e-14
1.76253e-14
1.79498e-14
1.83564e-14
1.88339e-14
1.93709e-14
1.99565e-14
2.05802e-14
2.12326e-14
2.19054e-14
2.25917e-14
2.32843e-14
2.39765e-14
2.4661e-14
2.53309e-14
2.59796e-14
2.66011e-14
2.71897e-14
2.77409e-14
2.82515e-14
2.87197e-14
2.91428e-14
2.95188e-14
2.98459e-14
3.01215e-14
3.03422e-14
3.05045e-14
3.06052e-14
3.0642e-14
3.06136e-14
3.05192e-14
3.03591e-14
3.01337e-14
2.98431e-14
2.94869e-14
2.90636e-14
2.85714e-14
2.80078e-14
2.73705e-14
2.66576e-14
2.58679e-14
2.50007e-14
2.40563e-14
2.30351e-14
2.19378e-14
2.07648e-14
1.95162e-14
1.81911e-14
1.67877e-14
)
;
    }
    inandouthalf12
    {
        type            cyclic;
        value           nonuniform List<scalar> 
100
(
4.98665e-39
-8.3294e-15
-1.70976e-14
-2.45474e-14
-3.16927e-14
-3.87328e-14
-4.54394e-14
-5.16505e-14
-5.72968e-14
-6.23423e-14
-6.67637e-14
-7.0544e-14
-7.36733e-14
-7.61512e-14
-7.79873e-14
-7.92005e-14
-7.98173e-14
-7.98699e-14
-7.93953e-14
-7.84346e-14
-7.70321e-14
-7.52347e-14
-7.30911e-14
-7.0651e-14
-6.7964e-14
-6.50796e-14
-6.20458e-14
-5.89089e-14
-5.57129e-14
-5.24991e-14
-4.93053e-14
-4.61662e-14
-4.31125e-14
-4.01714e-14
-3.73661e-14
-3.4716e-14
-3.22369e-14
-2.99409e-14
-2.78369e-14
-2.59306e-14
-2.42247e-14
-2.27193e-14
-2.14122e-14
-2.02992e-14
-1.93741e-14
-1.86295e-14
-1.80562e-14
-1.76442e-14
-1.73828e-14
-1.72617e-14
-1.72696e-14
-1.73947e-14
-1.76253e-14
-1.79498e-14
-1.83564e-14
-1.88339e-14
-1.93709e-14
-1.99565e-14
-2.05802e-14
-2.12326e-14
-2.19054e-14
-2.25917e-14
-2.32843e-14
-2.39765e-14
-2.4661e-14
-2.53309e-14
-2.59796e-14
-2.66011e-14
-2.71897e-14
-2.77409e-14
-2.82515e-14
-2.87197e-14
-2.91428e-14
-2.95188e-14
-2.98459e-14
-3.01215e-14
-3.03422e-14
-3.05045e-14
-3.06052e-14
-3.0642e-14
-3.06136e-14
-3.05192e-14
-3.03591e-14
-3.01337e-14
-2.98431e-14
-2.94869e-14
-2.90636e-14
-2.85714e-14
-2.80078e-14
-2.73705e-14
-2.66576e-14
-2.58679e-14
-2.50007e-14
-2.40563e-14
-2.30351e-14
-2.19378e-14
-2.07648e-14
-1.95162e-14
-1.81911e-14
-1.67877e-14
)
;
    }
    inandouthalf21
    {
        type            cyclic;
        value           nonuniform List<scalar> 
100
(
1.53021e-14
1.37287e-14
1.20593e-14
1.0283e-14
8.38684e-15
6.35567e-15
4.17356e-15
1.82462e-15
-7.05882e-16
-3.43081e-15
-6.36115e-15
-9.50686e-15
-1.28788e-14
-1.64915e-14
-2.03665e-14
-2.45352e-14
-2.9041e-14
-3.3938e-14
-3.92874e-14
-4.51491e-14
-5.15694e-14
-5.85667e-14
-6.61185e-14
-7.41536e-14
-8.25572e-14
-9.11914e-14
-9.99348e-14
-1.08736e-13
-1.17671e-13
-1.27e-13
-1.37196e-13
-1.48963e-13
-1.63219e-13
-1.81062e-13
-2.03677e-13
-2.32091e-13
-2.66705e-13
-3.06738e-13
-3.49611e-13
-3.89869e-13
-4.19029e-13
-4.31646e-13
-4.32992e-13
-4.32357e-13
-4.33217e-13
-4.34231e-13
-7.20101e-07
-9.53174e-07
-8.26516e-07
-6.91749e-07
-5.73526e-07
-4.77843e-07
-4.05502e-07
-3.54368e-07
-3.21023e-07
-3.01847e-07
-2.93635e-07
-2.93732e-07
-3.00123e-07
-3.11396e-07
-3.26624e-07
-3.45289e-07
-3.67185e-07
-3.92318e-07
-4.20806e-07
-4.52772e-07
-4.88217e-07
-5.26895e-07
-5.68212e-07
-6.11171e-07
-6.54406e-07
-6.96304e-07
-7.35221e-07
-7.69804e-07
-7.99324e-07
-8.23811e-07
-8.43877e-07
-8.60365e-07
-8.74078e-07
-8.85664e-07
-8.95607e-07
-9.0426e-07
-9.11882e-07
-9.18665e-07
-9.24756e-07
-9.30266e-07
-9.35284e-07
-9.39878e-07
-9.44104e-07
-9.48007e-07
-9.51624e-07
-9.54984e-07
-9.58114e-07
-9.61035e-07
-9.63763e-07
-9.66314e-07
-9.687e-07
-9.70933e-07
-9.73021e-07
-9.74973e-07
)
;
    }
    inandouthalf22
    {
        type            cyclic;
        value           nonuniform List<scalar> 
100
(
-1.53021e-14
-1.37287e-14
-1.20593e-14
-1.0283e-14
-8.38684e-15
-6.35567e-15
-4.17356e-15
-1.82462e-15
7.05882e-16
3.43081e-15
6.36115e-15
9.50686e-15
1.28788e-14
1.64915e-14
2.03665e-14
2.45352e-14
2.9041e-14
3.3938e-14
3.92874e-14
4.51491e-14
5.15694e-14
5.85667e-14
6.61185e-14
7.41536e-14
8.25572e-14
9.11914e-14
9.99348e-14
1.08736e-13
1.17671e-13
1.27e-13
1.37196e-13
1.48963e-13
1.63219e-13
1.81062e-13
2.03677e-13
2.32091e-13
2.66705e-13
3.06738e-13
3.49611e-13
3.89869e-13
4.19029e-13
4.31646e-13
4.32992e-13
4.32357e-13
4.33217e-13
4.34231e-13
7.20101e-07
9.53174e-07
8.26516e-07
6.91749e-07
5.73526e-07
4.77843e-07
4.05502e-07
3.54368e-07
3.21023e-07
3.01847e-07
2.93635e-07
2.93732e-07
3.00123e-07
3.11396e-07
3.26624e-07
3.45289e-07
3.67185e-07
3.92318e-07
4.20806e-07
4.52772e-07
4.88217e-07
5.26895e-07
5.68212e-07
6.11171e-07
6.54406e-07
6.96304e-07
7.35221e-07
7.69804e-07
7.99324e-07
8.23811e-07
8.43877e-07
8.60365e-07
8.74078e-07
8.85664e-07
8.95607e-07
9.0426e-07
9.11882e-07
9.18665e-07
9.24756e-07
9.30266e-07
9.35284e-07
9.39878e-07
9.44104e-07
9.48007e-07
9.51624e-07
9.54984e-07
9.58114e-07
9.61035e-07
9.63763e-07
9.66314e-07
9.687e-07
9.70933e-07
9.73021e-07
9.74973e-07
)
;
    }
    inandouthalf31
    {
        type            cyclic;
        value           nonuniform List<scalar> 
110
(
-9.76799e-07
-9.98376e-07
-1.02034e-06
-1.04269e-06
-1.06545e-06
-1.08861e-06
-1.11219e-06
-1.1362e-06
-1.16064e-06
-1.18552e-06
-1.21086e-06
-1.23668e-06
-1.26297e-06
-1.28975e-06
-1.31705e-06
-1.34487e-06
-1.37322e-06
-1.40213e-06
-1.43161e-06
-1.46167e-06
-1.49233e-06
-1.5236e-06
-1.55551e-06
-1.58805e-06
-1.62125e-06
-1.65512e-06
-1.68967e-06
-1.72491e-06
-1.76085e-06
-1.7975e-06
-1.83487e-06
-1.87297e-06
-1.91179e-06
-1.95131e-06
-1.99147e-06
-2.03231e-06
-2.07401e-06
-2.20542e-06
-2.25496e-06
-2.30448e-06
-2.34806e-06
-2.40243e-06
-2.45122e-06
-2.49158e-06
-2.53545e-06
-2.58074e-06
-2.67184e-06
-2.7071e-06
-2.76276e-06
-2.81756e-06
-2.8729e-06
-2.92864e-06
-2.98469e-06
-3.04098e-06
-3.09747e-06
-3.15413e-06
-3.21101e-06
-3.26846e-06
-3.32512e-06
-3.38541e-06
-3.44506e-06
-3.5077e-06
-3.57342e-06
-3.64355e-06
-3.72176e-06
-3.79951e-06
-3.87677e-06
-3.95546e-06
-4.03574e-06
-4.11766e-06
-4.20123e-06
-4.28651e-06
-4.37351e-06
-4.46228e-06
-4.55286e-06
-4.64527e-06
-4.73955e-06
-4.83575e-06
-4.93391e-06
-5.03405e-06
-5.13623e-06
-5.24048e-06
-5.34685e-06
-5.45538e-06
-5.56611e-06
-5.67908e-06
-5.79435e-06
-5.91196e-06
-6.03196e-06
-6.15439e-06
-6.27931e-06
-6.40676e-06
-6.53681e-06
-6.66948e-06
-6.80486e-06
-6.94298e-06
-7.0839e-06
-7.22769e-06
-7.37439e-06
-7.52407e-06
-7.67679e-06
-7.83261e-06
-7.99159e-06
-8.1538e-06
-8.3193e-06
-8.48816e-06
-8.66044e-06
-8.83623e-06
-9.01558e-06
-9.19857e-06
)
;
    }
    inandouthalf32
    {
        type            cyclic;
        value           nonuniform List<scalar> 
110
(
9.76799e-07
9.98376e-07
1.02034e-06
1.04269e-06
1.06545e-06
1.08861e-06
1.11219e-06
1.1362e-06
1.16064e-06
1.18552e-06
1.21086e-06
1.23668e-06
1.26297e-06
1.28975e-06
1.31705e-06
1.34487e-06
1.37322e-06
1.40213e-06
1.43161e-06
1.46167e-06
1.49233e-06
1.5236e-06
1.55551e-06
1.58805e-06
1.62125e-06
1.65512e-06
1.68967e-06
1.72491e-06
1.76085e-06
1.7975e-06
1.83487e-06
1.87297e-06
1.91179e-06
1.95131e-06
1.99147e-06
2.03231e-06
2.07401e-06
2.20542e-06
2.25496e-06
2.30448e-06
2.34806e-06
2.40243e-06
2.45122e-06
2.49158e-06
2.53545e-06
2.58074e-06
2.67184e-06
2.7071e-06
2.76276e-06
2.81756e-06
2.8729e-06
2.92864e-06
2.98469e-06
3.04098e-06
3.09747e-06
3.15413e-06
3.21101e-06
3.26846e-06
3.32512e-06
3.38541e-06
3.44506e-06
3.5077e-06
3.57342e-06
3.64355e-06
3.72176e-06
3.79951e-06
3.87677e-06
3.95546e-06
4.03574e-06
4.11766e-06
4.20123e-06
4.28651e-06
4.37351e-06
4.46228e-06
4.55286e-06
4.64527e-06
4.73955e-06
4.83575e-06
4.93391e-06
5.03405e-06
5.13623e-06
5.24048e-06
5.34685e-06
5.45538e-06
5.56611e-06
5.67908e-06
5.79435e-06
5.91196e-06
6.03196e-06
6.15439e-06
6.27931e-06
6.40676e-06
6.53681e-06
6.66948e-06
6.80486e-06
6.94298e-06
7.0839e-06
7.22769e-06
7.37439e-06
7.52407e-06
7.67679e-06
7.83261e-06
7.99159e-06
8.1538e-06
8.3193e-06
8.48816e-06
8.66044e-06
8.83623e-06
9.01558e-06
9.19857e-06
)
;
    }
    inandouthalf41
    {
        type            cyclic;
        value           nonuniform List<scalar> 
50
(
-8.23366e-06
-8.23366e-06
-8.23366e-06
-8.23366e-06
-8.23366e-06
-8.23366e-06
-8.23366e-06
-8.23366e-06
-8.23366e-06
-8.23366e-06
-8.23366e-06
-8.23366e-06
-8.23366e-06
-8.23366e-06
-8.23366e-06
-8.23366e-06
-8.23366e-06
-8.23366e-06
-8.23366e-06
-8.23366e-06
-8.23366e-06
-8.23366e-06
-8.23366e-06
-8.23366e-06
-8.23366e-06
-8.23366e-06
-8.23366e-06
-8.23366e-06
-8.23366e-06
-8.23366e-06
-8.23366e-06
-8.23366e-06
-8.23366e-06
-8.23366e-06
-8.23366e-06
-8.23366e-06
-8.23366e-06
-8.23366e-06
-8.23366e-06
-8.23366e-06
-8.23366e-06
-8.23366e-06
-8.23366e-06
-8.23366e-06
-8.23366e-06
-8.23366e-06
-8.23366e-06
-8.23367e-06
-8.23388e-06
-8.23881e-06
)
;
    }
    inandouthalf42
    {
        type            cyclic;
        value           nonuniform List<scalar> 
50
(
8.23366e-06
8.23366e-06
8.23366e-06
8.23366e-06
8.23366e-06
8.23366e-06
8.23366e-06
8.23366e-06
8.23366e-06
8.23366e-06
8.23366e-06
8.23366e-06
8.23366e-06
8.23366e-06
8.23366e-06
8.23366e-06
8.23366e-06
8.23366e-06
8.23366e-06
8.23366e-06
8.23366e-06
8.23366e-06
8.23366e-06
8.23366e-06
8.23366e-06
8.23366e-06
8.23366e-06
8.23366e-06
8.23366e-06
8.23366e-06
8.23366e-06
8.23366e-06
8.23366e-06
8.23366e-06
8.23366e-06
8.23366e-06
8.23366e-06
8.23366e-06
8.23366e-06
8.23366e-06
8.23366e-06
8.23366e-06
8.23366e-06
8.23366e-06
8.23366e-06
8.23366e-06
8.23366e-06
8.23367e-06
8.23388e-06
8.23881e-06
)
;
    }
    top
    {
        type            symmetryPlane;
        value           uniform 0;
    }
    walls
    {
        type            calculated;
        value           uniform 0;
    }
    frontAndBackPlanes
    {
        type            empty;
        value           nonuniform 0();
    }
}


// ************************************************************************* //
