/*--------------------------------*- C++ -*----------------------------------*\
| =========                 |                                                 |
| \\      /  F ield         | OpenFOAM: The Open Source CFD Toolbox           |
|  \\    /   O peration     | Version:  2.4.x                                 |
|   \\  /    A nd           | Web:      www.OpenFOAM.org                      |
|    \\/     M anipulation  |                                                 |
\*---------------------------------------------------------------------------*/
FoamFile
{
    version     2.0;
    format      ascii;
    class       surfaceScalarField;
    location    "8.4";
    object      ddt0(phib);
}
// * * * * * * * * * * * * * * * * * * * * * * * * * * * * * * * * * * * * * //

dimensions      [0 3 -2 0 0 0 0];

internalField   nonuniform List<scalar> 
359
(
-1.55413e-13
-3.95541e-13
-6.15146e-13
-8.22513e-13
-1.03305e-12
-1.24534e-12
-1.45449e-12
-1.65791e-12
-1.85466e-12
-2.04428e-12
-2.22636e-12
-2.40048e-12
-2.5664e-12
-2.72395e-12
-2.87328e-12
-3.01453e-12
-3.14815e-12
-3.27448e-12
-3.39405e-12
-3.5074e-12
-3.61518e-12
-3.718e-12
-3.81663e-12
-3.91173e-12
-4.00408e-12
-4.09433e-12
-4.18328e-12
-4.27152e-12
-4.35982e-12
-4.44871e-12
-4.53884e-12
-4.63068e-12
-4.72474e-12
-4.82144e-12
-4.92115e-12
-5.02412e-12
-5.13071e-12
-5.24099e-12
-5.35527e-12
-5.47347e-12
-5.59581e-12
-5.7221e-12
-5.85252e-12
-5.98688e-12
-6.12518e-12
-6.2672e-12
-6.41292e-12
-6.56201e-12
-6.7145e-12
-6.87007e-12
-7.02867e-12
-7.18997e-12
-7.35389e-12
-7.52016e-12
-7.68862e-12
-7.85902e-12
-8.03121e-12
-8.20486e-12
-8.37994e-12
-8.556e-12
-8.73321e-12
-8.91116e-12
-9.08992e-12
-9.2691e-12
-9.44877e-12
-9.6285e-12
-9.80837e-12
-9.98795e-12
-1.01673e-11
-1.0346e-11
-1.05243e-11
-1.07019e-11
-1.08788e-11
-1.10548e-11
-1.12299e-11
-1.14039e-11
-1.15768e-11
-1.17481e-11
-1.19181e-11
-1.20863e-11
-1.22528e-11
-1.24174e-11
-1.25803e-11
-1.27412e-11
-1.29003e-11
-1.30573e-11
-1.32123e-11
-1.33651e-11
-1.35157e-11
-1.36638e-11
-1.38096e-11
-1.39527e-11
-1.40935e-11
-1.42317e-11
-1.43677e-11
-1.45011e-11
-1.46325e-11
-1.47614e-11
-1.48883e-11
-1.50128e-11
-1.51353e-11
-1.52554e-11
-1.53734e-11
-1.54889e-11
-1.56021e-11
-1.57128e-11
-1.58211e-11
-1.59268e-11
-1.60303e-11
-1.61315e-11
-1.62309e-11
-1.63287e-11
-1.64256e-11
-1.65217e-11
-1.66176e-11
-1.67133e-11
-1.68092e-11
-1.69049e-11
-1.7001e-11
-1.7097e-11
-1.71938e-11
-1.7292e-11
-1.73935e-11
-1.75002e-11
-1.76154e-11
-1.77414e-11
-1.78809e-11
-1.80343e-11
-1.82009e-11
-1.83763e-11
-1.85538e-11
-1.87238e-11
-1.88759e-11
-1.9e-11
-1.90901e-11
-1.91466e-11
-1.91853e-11
-1.92427e-11
-1.93795e-11
-1.96526e-11
-2.004e-11
-2.03845e-11
-2.05566e-11
-2.05688e-11
-2.7948e-11
-1.35987e-08
1.28751e-08
8.19965e-09
1.13547e-09
-1.84003e-09
-9.70757e-10
2.15034e-09
5.81794e-09
8.85624e-09
1.06276e-08
1.09674e-08
1.00267e-08
8.13563e-09
5.70465e-09
3.14118e-09
7.88152e-10
-1.12048e-09
-2.47924e-09
-3.29716e-09
-3.65809e-09
-3.67612e-09
-3.46311e-09
-3.11283e-09
-2.69767e-09
-2.27088e-09
-1.86796e-09
-1.50476e-09
-1.18069e-09
-8.93076e-10
-6.4815e-10
-4.55135e-10
-3.15103e-10
-2.1947e-10
-1.5596e-10
-1.13782e-10
-8.52759e-11
-6.55199e-11
-5.14582e-11
-4.11917e-11
-3.35207e-11
-2.76688e-11
-2.31216e-11
-1.953e-11
-1.66517e-11
-1.43148e-11
-1.23956e-11
-1.08029e-11
-9.46914e-12
-8.34275e-12
-7.38454e-12
-6.56383e-12
-5.8568e-12
-5.24431e-12
-4.71131e-12
-4.24529e-12
-3.8362e-12
-3.46857e-12
-3.13781e-12
-2.83966e-12
-2.57066e-12
-2.32734e-12
-2.1067e-12
-1.90584e-12
-1.72246e-12
-1.55424e-12
-1.39967e-12
-1.257e-12
-1.12499e-12
-1.00232e-12
-8.89055e-13
-7.84599e-13
-6.88692e-13
-6.00858e-13
-5.21573e-13
-4.50399e-13
-3.87055e-13
-3.30594e-13
-2.81259e-13
-2.38093e-13
-2.00812e-13
-1.68375e-13
-1.40863e-13
-1.17209e-13
-9.73995e-14
-8.03986e-14
-6.64372e-14
-5.45182e-14
-4.42792e-14
-3.54263e-14
-3.02464e-14
-2.54544e-14
-2.04896e-14
-1.60357e-14
-1.26e-14
-1.01721e-14
-7.30626e-15
-7.11772e-15
-4.75208e-15
-5.66348e-15
-3.09204e-15
-3.82941e-15
-3.92423e-15
-3.66851e-15
-3.7439e-15
-3.47194e-15
-3.54531e-15
-3.29472e-15
-3.36406e-15
-3.15123e-15
-3.23619e-15
-3.03426e-15
-3.09558e-15
-2.91558e-15
-3.00511e-15
-2.89672e-15
-2.99586e-15
-2.92574e-15
-3.07317e-15
-3.00744e-15
-2.90287e-15
-2.6371e-15
-2.48887e-15
-2.31927e-15
-2.15983e-15
-2.00987e-15
-1.94806e-15
-1.90717e-15
-1.74467e-15
-1.60248e-15
-1.49692e-15
-1.44088e-15
-1.32305e-15
-1.25031e-15
-1.18756e-15
-1.16505e-15
-1.07253e-15
-9.95755e-16
-9.32308e-16
-8.51346e-16
-7.89085e-16
-7.13268e-16
-6.28945e-16
-5.15574e-16
-4.8614e-16
-4.16035e-16
-3.64435e-16
-2.60823e-16
-1.95284e-16
-1.19128e-16
-3.90789e-17
3.908e-17
8.8335e-17
1.28416e-16
1.43757e-16
1.63597e-16
1.76251e-16
1.94766e-16
2.12017e-16
2.59091e-16
2.44104e-16
2.65187e-16
2.74966e-16
2.90836e-16
3.00227e-16
3.23673e-16
3.49814e-16
4.12259e-16
3.92333e-16
4.20732e-16
4.21021e-16
4.28982e-16
4.5324e-16
4.64021e-16
4.5827e-16
4.61625e-16
4.97825e-16
5.08512e-16
5.24686e-16
4.97562e-16
5.02456e-16
4.94172e-16
5.4844e-16
1.0868e-15
1.03469e-15
1.32148e-15
1.65552e-15
1.53018e-15
1.93903e-15
1.43197e-15
9.71237e-16
-5.32022e-16
1.34869e-17
-9.81452e-16
-1.99276e-15
-5.12145e-15
-6.58939e-15
-1.06129e-14
-1.46386e-14
-2.08302e-14
-2.42941e-14
-3.05004e-14
-3.68156e-14
-4.65819e-14
-5.49523e-14
-6.59039e-14
-7.77484e-14
-9.03989e-14
-1.12385e-13
-1.30509e-13
-1.49892e-13
-1.59822e-13
-1.87769e-13
-1.94618e-13
-2.05344e-13
)
;

boundaryField
{
    inandouthalf11
    {
        type            cyclic;
        value           nonuniform List<scalar> 
100
(
2.20194e-10
2.19054e-10
2.18882e-10
2.19048e-10
2.1914e-10
2.19178e-10
2.19218e-10
2.19266e-10
2.19315e-10
2.19363e-10
2.19412e-10
2.19459e-10
2.19506e-10
2.19553e-10
2.19599e-10
2.19645e-10
2.19691e-10
2.19737e-10
2.19782e-10
2.19828e-10
2.19873e-10
2.19918e-10
2.19963e-10
2.20008e-10
2.20053e-10
2.20099e-10
2.20145e-10
2.20191e-10
2.20238e-10
2.20285e-10
2.20332e-10
2.20381e-10
2.20429e-10
2.20479e-10
2.20529e-10
2.2058e-10
2.20632e-10
2.20684e-10
2.20738e-10
2.20791e-10
2.20847e-10
2.20902e-10
2.20958e-10
2.21016e-10
2.21074e-10
2.21134e-10
2.21194e-10
2.21255e-10
2.21316e-10
2.2138e-10
2.21443e-10
2.21508e-10
2.21573e-10
2.2164e-10
2.21706e-10
2.21775e-10
2.21844e-10
2.21914e-10
2.21985e-10
2.22056e-10
2.22129e-10
2.22202e-10
2.22277e-10
2.22353e-10
2.2243e-10
2.22507e-10
2.22586e-10
2.22666e-10
2.22746e-10
2.22828e-10
2.22911e-10
2.22996e-10
2.2308e-10
2.23167e-10
2.23255e-10
2.23344e-10
2.23434e-10
2.23526e-10
2.23619e-10
2.23713e-10
2.23809e-10
2.23906e-10
2.24005e-10
2.24106e-10
2.24208e-10
2.24312e-10
2.24418e-10
2.24525e-10
2.24634e-10
2.24745e-10
2.24859e-10
2.24974e-10
2.25091e-10
2.25211e-10
2.25333e-10
2.25457e-10
2.25584e-10
2.25714e-10
2.25846e-10
2.25981e-10
)
;
    }
    inandouthalf12
    {
        type            cyclic;
        value           nonuniform List<scalar> 
100
(
-2.20194e-10
-2.19054e-10
-2.18882e-10
-2.19048e-10
-2.1914e-10
-2.19178e-10
-2.19218e-10
-2.19266e-10
-2.19315e-10
-2.19363e-10
-2.19412e-10
-2.19459e-10
-2.19506e-10
-2.19553e-10
-2.19599e-10
-2.19645e-10
-2.19691e-10
-2.19737e-10
-2.19782e-10
-2.19828e-10
-2.19873e-10
-2.19918e-10
-2.19963e-10
-2.20008e-10
-2.20053e-10
-2.20099e-10
-2.20145e-10
-2.20191e-10
-2.20238e-10
-2.20285e-10
-2.20332e-10
-2.20381e-10
-2.20429e-10
-2.20479e-10
-2.20529e-10
-2.2058e-10
-2.20632e-10
-2.20684e-10
-2.20738e-10
-2.20791e-10
-2.20847e-10
-2.20902e-10
-2.20958e-10
-2.21016e-10
-2.21074e-10
-2.21134e-10
-2.21194e-10
-2.21255e-10
-2.21316e-10
-2.2138e-10
-2.21443e-10
-2.21508e-10
-2.21573e-10
-2.2164e-10
-2.21706e-10
-2.21775e-10
-2.21844e-10
-2.21914e-10
-2.21985e-10
-2.22056e-10
-2.22129e-10
-2.22202e-10
-2.22277e-10
-2.22353e-10
-2.2243e-10
-2.22507e-10
-2.22586e-10
-2.22666e-10
-2.22746e-10
-2.22828e-10
-2.22911e-10
-2.22996e-10
-2.2308e-10
-2.23167e-10
-2.23255e-10
-2.23344e-10
-2.23434e-10
-2.23526e-10
-2.23619e-10
-2.23713e-10
-2.23809e-10
-2.23906e-10
-2.24005e-10
-2.24106e-10
-2.24208e-10
-2.24312e-10
-2.24418e-10
-2.24525e-10
-2.24634e-10
-2.24745e-10
-2.24859e-10
-2.24974e-10
-2.25091e-10
-2.25211e-10
-2.25333e-10
-2.25457e-10
-2.25584e-10
-2.25714e-10
-2.25846e-10
-2.25981e-10
)
;
    }
    inandouthalf21
    {
        type            cyclic;
        value           nonuniform List<scalar> 
100
(
2.26119e-10
2.2626e-10
2.26404e-10
2.26551e-10
2.26702e-10
2.26856e-10
2.27014e-10
2.27175e-10
2.27341e-10
2.27511e-10
2.27685e-10
2.27864e-10
2.28048e-10
2.28236e-10
2.2843e-10
2.28629e-10
2.28834e-10
2.29045e-10
2.29262e-10
2.29485e-10
2.29714e-10
2.29951e-10
2.30195e-10
2.30447e-10
2.30707e-10
2.30977e-10
2.31256e-10
2.31548e-10
2.31851e-10
2.32168e-10
2.32499e-10
2.32843e-10
2.33202e-10
2.33579e-10
2.33976e-10
2.34392e-10
2.34824e-10
2.35278e-10
2.35781e-10
2.36363e-10
2.37002e-10
2.37628e-10
2.38402e-10
2.39405e-10
2.28868e-10
-7.77767e-09
-8.01229e-07
-9.37793e-07
-8.00205e-07
-6.70466e-07
-5.5841e-07
-4.66725e-07
-3.95438e-07
-3.43168e-07
-3.0747e-07
-2.85539e-07
-2.74748e-07
-2.72731e-07
-2.77457e-07
-2.87254e-07
-3.00791e-07
-3.17063e-07
-3.35376e-07
-3.55324e-07
-3.76763e-07
-3.99777e-07
-4.24635e-07
-4.51735e-07
-4.81527e-07
-5.14405e-07
-5.50554e-07
-5.89773e-07
-6.31313e-07
-6.73828e-07
-7.15543e-07
-7.54645e-07
-7.89718e-07
-8.20015e-07
-8.45456e-07
-8.66436e-07
-8.83585e-07
-8.9759e-07
-9.09084e-07
-9.18606e-07
-9.26587e-07
-9.33369e-07
-9.39212e-07
-9.44318e-07
-9.4884e-07
-9.52895e-07
-9.56574e-07
-9.59945e-07
-9.63064e-07
-9.65971e-07
-9.687e-07
-9.71277e-07
-9.73723e-07
-9.76055e-07
-9.78286e-07
-9.80427e-07
)
;
    }
    inandouthalf22
    {
        type            cyclic;
        value           nonuniform List<scalar> 
100
(
-2.26119e-10
-2.2626e-10
-2.26404e-10
-2.26551e-10
-2.26702e-10
-2.26856e-10
-2.27014e-10
-2.27175e-10
-2.27341e-10
-2.27511e-10
-2.27685e-10
-2.27864e-10
-2.28048e-10
-2.28236e-10
-2.2843e-10
-2.28629e-10
-2.28834e-10
-2.29045e-10
-2.29262e-10
-2.29485e-10
-2.29714e-10
-2.29951e-10
-2.30195e-10
-2.30447e-10
-2.30707e-10
-2.30977e-10
-2.31256e-10
-2.31548e-10
-2.31851e-10
-2.32168e-10
-2.32499e-10
-2.32843e-10
-2.33202e-10
-2.33579e-10
-2.33976e-10
-2.34392e-10
-2.34824e-10
-2.35278e-10
-2.35781e-10
-2.36363e-10
-2.37002e-10
-2.37628e-10
-2.38402e-10
-2.39405e-10
-2.28868e-10
7.77767e-09
8.01229e-07
9.37793e-07
8.00205e-07
6.70466e-07
5.5841e-07
4.66725e-07
3.95438e-07
3.43168e-07
3.0747e-07
2.85539e-07
2.74748e-07
2.72731e-07
2.77457e-07
2.87254e-07
3.00791e-07
3.17063e-07
3.35376e-07
3.55324e-07
3.76763e-07
3.99777e-07
4.24635e-07
4.51735e-07
4.81527e-07
5.14405e-07
5.50554e-07
5.89773e-07
6.31313e-07
6.73828e-07
7.15543e-07
7.54645e-07
7.89718e-07
8.20015e-07
8.45456e-07
8.66436e-07
8.83585e-07
8.9759e-07
9.09084e-07
9.18606e-07
9.26587e-07
9.33369e-07
9.39212e-07
9.44318e-07
9.4884e-07
9.52895e-07
9.56574e-07
9.59945e-07
9.63064e-07
9.65971e-07
9.687e-07
9.71277e-07
9.73723e-07
9.76055e-07
9.78286e-07
9.80427e-07
)
;
    }
    inandouthalf31
    {
        type            cyclic;
        value           nonuniform List<scalar> 
110
(
-9.82491e-07
-1.00448e-06
-1.02693e-06
-1.04985e-06
-1.07325e-06
-1.09714e-06
-1.12154e-06
-1.14646e-06
-1.1719e-06
-1.19789e-06
-1.22443e-06
-1.25154e-06
-1.27922e-06
-1.30749e-06
-1.33637e-06
-1.36586e-06
-1.39597e-06
-1.42673e-06
-1.45813e-06
-1.4902e-06
-1.52295e-06
-1.55639e-06
-1.59052e-06
-1.62537e-06
-1.66094e-06
-1.69726e-06
-1.73432e-06
-1.77214e-06
-1.81073e-06
-1.8501e-06
-1.89027e-06
-1.93124e-06
-1.97301e-06
-2.01561e-06
-2.05902e-06
-2.10327e-06
-2.14835e-06
-2.19426e-06
-2.241e-06
-2.28858e-06
-2.33698e-06
-2.3862e-06
-2.43621e-06
-2.48702e-06
-2.53858e-06
-2.59088e-06
-2.64388e-06
-2.69754e-06
-2.7518e-06
-2.80661e-06
-2.8619e-06
-2.91759e-06
-2.97362e-06
-3.02989e-06
-3.08636e-06
-3.14299e-06
-3.19979e-06
-3.25688e-06
-3.31448e-06
-3.37297e-06
-3.43287e-06
-3.49487e-06
-3.55982e-06
-3.62877e-06
-3.70611e-06
-3.78419e-06
-3.86119e-06
-3.93957e-06
-4.01953e-06
-4.10111e-06
-4.18436e-06
-4.26929e-06
-4.35594e-06
-4.44436e-06
-4.53457e-06
-4.62661e-06
-4.72051e-06
-4.81633e-06
-4.91409e-06
-5.01383e-06
-5.1156e-06
-5.21943e-06
-5.32537e-06
-5.43346e-06
-5.54374e-06
-5.65627e-06
-5.77107e-06
-5.88821e-06
-6.00773e-06
-6.12967e-06
-6.25408e-06
-6.38103e-06
-6.51054e-06
-6.64269e-06
-6.77752e-06
-6.91508e-06
-7.05544e-06
-7.19865e-06
-7.34476e-06
-7.49384e-06
-7.64595e-06
-7.80114e-06
-7.95948e-06
-8.12104e-06
-8.28587e-06
-8.45405e-06
-8.62565e-06
-8.80073e-06
-8.97936e-06
-9.16161e-06
)
;
    }
    inandouthalf32
    {
        type            cyclic;
        value           nonuniform List<scalar> 
110
(
9.82491e-07
1.00448e-06
1.02693e-06
1.04985e-06
1.07325e-06
1.09714e-06
1.12154e-06
1.14646e-06
1.1719e-06
1.19789e-06
1.22443e-06
1.25154e-06
1.27922e-06
1.30749e-06
1.33637e-06
1.36586e-06
1.39597e-06
1.42673e-06
1.45813e-06
1.4902e-06
1.52295e-06
1.55639e-06
1.59052e-06
1.62537e-06
1.66094e-06
1.69726e-06
1.73432e-06
1.77214e-06
1.81073e-06
1.8501e-06
1.89027e-06
1.93124e-06
1.97301e-06
2.01561e-06
2.05902e-06
2.10327e-06
2.14835e-06
2.19426e-06
2.241e-06
2.28858e-06
2.33698e-06
2.3862e-06
2.43621e-06
2.48702e-06
2.53858e-06
2.59088e-06
2.64388e-06
2.69754e-06
2.7518e-06
2.80661e-06
2.8619e-06
2.91759e-06
2.97362e-06
3.02989e-06
3.08636e-06
3.14299e-06
3.19979e-06
3.25688e-06
3.31448e-06
3.37297e-06
3.43287e-06
3.49487e-06
3.55982e-06
3.62877e-06
3.70611e-06
3.78419e-06
3.86119e-06
3.93957e-06
4.01953e-06
4.10111e-06
4.18436e-06
4.26929e-06
4.35594e-06
4.44436e-06
4.53457e-06
4.62661e-06
4.72051e-06
4.81633e-06
4.91409e-06
5.01383e-06
5.1156e-06
5.21943e-06
5.32537e-06
5.43346e-06
5.54374e-06
5.65627e-06
5.77107e-06
5.88821e-06
6.00773e-06
6.12967e-06
6.25408e-06
6.38103e-06
6.51054e-06
6.64269e-06
6.77752e-06
6.91508e-06
7.05544e-06
7.19865e-06
7.34476e-06
7.49384e-06
7.64595e-06
7.80114e-06
7.95948e-06
8.12104e-06
8.28587e-06
8.45405e-06
8.62565e-06
8.80073e-06
8.97936e-06
9.16161e-06
)
;
    }
    inandouthalf41
    {
        type            cyclic;
        value           nonuniform List<scalar> 
50
(
-8.20058e-06
-8.20058e-06
-8.20058e-06
-8.20058e-06
-8.20058e-06
-8.20058e-06
-8.20058e-06
-8.20058e-06
-8.20058e-06
-8.20058e-06
-8.20058e-06
-8.20058e-06
-8.20058e-06
-8.20058e-06
-8.20058e-06
-8.20058e-06
-8.20058e-06
-8.20058e-06
-8.20058e-06
-8.20058e-06
-8.20058e-06
-8.20058e-06
-8.20058e-06
-8.20058e-06
-8.20058e-06
-8.20058e-06
-8.20058e-06
-8.20058e-06
-8.20058e-06
-8.20058e-06
-8.20058e-06
-8.20058e-06
-8.20058e-06
-8.20058e-06
-8.20058e-06
-8.20058e-06
-8.20058e-06
-8.20058e-06
-8.20058e-06
-8.20058e-06
-8.20058e-06
-8.20058e-06
-8.20058e-06
-8.20058e-06
-8.20058e-06
-8.20058e-06
-8.20058e-06
-8.20058e-06
-8.20058e-06
-8.20058e-06
)
;
    }
    inandouthalf42
    {
        type            cyclic;
        value           nonuniform List<scalar> 
50
(
8.20058e-06
8.20058e-06
8.20058e-06
8.20058e-06
8.20058e-06
8.20058e-06
8.20058e-06
8.20058e-06
8.20058e-06
8.20058e-06
8.20058e-06
8.20058e-06
8.20058e-06
8.20058e-06
8.20058e-06
8.20058e-06
8.20058e-06
8.20058e-06
8.20058e-06
8.20058e-06
8.20058e-06
8.20058e-06
8.20058e-06
8.20058e-06
8.20058e-06
8.20058e-06
8.20058e-06
8.20058e-06
8.20058e-06
8.20058e-06
8.20058e-06
8.20058e-06
8.20058e-06
8.20058e-06
8.20058e-06
8.20058e-06
8.20058e-06
8.20058e-06
8.20058e-06
8.20058e-06
8.20058e-06
8.20058e-06
8.20058e-06
8.20058e-06
8.20058e-06
8.20058e-06
8.20058e-06
8.20058e-06
8.20058e-06
8.20058e-06
)
;
    }
    top
    {
        type            symmetryPlane;
        value           uniform 0;
    }
    walls
    {
        type            calculated;
        value           uniform 0;
    }
    frontAndBackPlanes
    {
        type            empty;
        value           nonuniform 0();
    }
}


// ************************************************************************* //
