/*--------------------------------*- C++ -*----------------------------------*\
| =========                 |                                                 |
| \\      /  F ield         | OpenFOAM: The Open Source CFD Toolbox           |
|  \\    /   O peration     | Version:  2.4.x                                 |
|   \\  /    A nd           | Web:      www.OpenFOAM.org                      |
|    \\/     M anipulation  |                                                 |
\*---------------------------------------------------------------------------*/
FoamFile
{
    version     2.0;
    format      ascii;
    class       volScalarField;
    location    "8.4";
    object      epsilon_0;
}
// * * * * * * * * * * * * * * * * * * * * * * * * * * * * * * * * * * * * * //

dimensions      [0 2 -3 0 0 0 0];

internalField   nonuniform List<scalar> 
360
(
1.60309e-27
1e-20
1e-20
1e-20
1e-20
1e-20
1e-20
1e-20
1e-20
1e-20
1e-20
1e-20
1e-20
1e-20
1e-20
1e-20
1e-20
1e-20
1e-20
1e-20
1e-20
1e-20
1e-20
1e-20
1e-20
1e-20
1e-20
1e-20
1e-20
1e-20
1e-20
1e-20
1e-20
1e-20
1e-20
1e-20
1e-20
1e-20
1e-20
1e-20
1e-20
1e-20
1e-20
1e-20
1e-20
1e-20
1e-20
1e-20
1e-20
1e-20
1e-20
1e-20
1e-20
1e-20
1e-20
1e-20
1e-20
1e-20
1e-20
1e-20
1e-20
1e-20
1e-20
1e-20
1e-20
1e-20
1e-20
1e-20
1e-20
1e-20
1e-20
1e-20
1e-20
1e-20
1e-20
1e-20
1e-20
1e-20
1e-20
1e-20
1e-20
1e-20
1e-20
1e-20
1e-20
1e-20
1e-20
1e-20
1e-20
1e-20
1e-20
1e-20
1e-20
1e-20
1e-20
1e-20
1e-20
1e-20
1e-20
1e-20
1e-20
1e-20
1e-20
1e-20
1e-20
1e-20
1e-20
1e-20
1e-20
1e-20
1e-20
1e-20
1e-20
1e-20
1e-20
1e-20
1e-20
1e-20
1e-20
1e-20
1e-20
1e-20
1e-20
1e-20
1e-20
1e-20
1e-20
1e-20
1e-20
1e-20
1e-20
1e-20
1e-20
2.98006e-20
3.6005e-19
5.89778e-18
1.06535e-16
2.13377e-15
4.77769e-14
1.20202e-12
3.41222e-11
1.09956e-09
4.06477e-08
1.74862e-06
8.82192e-05
0.00438022
0.0855739
0.300404
0.400178
0.435785
0.439006
0.42462
0.40071
0.371889
0.341015
0.309874
0.27955
0.250665
0.223548
0.198337
0.175056
0.153663
0.134082
0.116224
0.100001
0.0853342
0.0721531
0.0604007
0.0500288
0.0409936
0.0332486
0.0267351
0.021374
0.0170603
0.0136644
0.0110407
0.0090415
0.00752991
0.00638919
0.00552571
0.00486779
0.00436211
0.0039697
0.00366226
0.0034192
0.00322549
0.00307004
0.00294459
0.0028429
0.00276022
0.00269288
0.00263801
0.00259334
0.00255704
0.00252766
0.00250399
0.00248506
0.00247003
0.00245823
0.00244908
0.00244208
0.00243677
0.00243281
0.00242992
0.00242786
0.00242638
0.00242527
0.00242428
0.00242321
0.00242184
0.00241996
0.00241736
0.00241386
0.00240924
0.00240331
0.0023959
0.0023868
0.00237585
0.00236286
0.00234766
0.00233008
0.00230998
0.00228719
0.00226157
0.002233
0.00220134
0.00216649
0.00212835
0.00208684
0.00204189
0.00199346
0.00194152
0.00188607
0.00182713
0.00176475
0.00169901
0.00163003
0.00155795
0.00148295
0.00140528
0.0013252
0.00124303
0.00115916
0.00107399
0.000988019
0.000901779
0.000815864
0.000730921
0.00064765
0.000566795
0.000489132
0.000415454
0.000346546
0.000283156
0.000225953
0.000175476
0.000132082
9.58833e-05
6.67071e-05
4.40761e-05
2.72405e-05
1.52723e-05
7.22132e-06
2.29354e-06
2.79562e-07
9.11017e-09
1.72152e-10
3.14249e-12
5.66781e-14
1.00334e-15
1.73146e-17
2.96101e-19
1.27375e-20
1e-20
1e-20
1e-20
1e-20
1e-20
1e-20
1e-20
1e-20
1e-20
1e-20
1e-20
1e-20
1e-20
1e-20
1e-20
1e-20
1e-20
1e-20
1e-20
1e-20
1e-20
1e-20
1e-20
1e-20
1e-20
1e-20
1e-20
1e-20
1e-20
1e-20
1e-20
1e-20
1e-20
1e-20
1e-20
1e-20
1e-20
1e-20
1e-20
1e-20
1e-20
1e-20
1e-20
1e-20
1e-20
1e-20
1e-20
1e-20
1e-20
1e-20
1e-20
1e-20
1e-20
1e-20
1e-20
1e-20
1e-20
1e-20
1e-20
1e-20
1e-20
1e-20
1e-20
1e-20
1e-20
1e-20
1e-20
1e-20
1e-20
1e-20
1e-20
1e-20
1e-20
1e-20
1e-20
1e-20
1e-20
1e-20
1e-20
1e-20
1e-20
1e-20
1e-20
1e-20
1e-20
1e-20
1e-20
)
;

boundaryField
{
    inandouthalf11
    {
        type            cyclic;
    }
    inandouthalf12
    {
        type            cyclic;
    }
    inandouthalf21
    {
        type            cyclic;
    }
    inandouthalf22
    {
        type            cyclic;
    }
    inandouthalf31
    {
        type            cyclic;
    }
    inandouthalf32
    {
        type            cyclic;
    }
    inandouthalf41
    {
        type            cyclic;
    }
    inandouthalf42
    {
        type            cyclic;
    }
    top
    {
        type            symmetryPlane;
    }
    walls
    {
        type            zeroGradient;
    }
    frontAndBackPlanes
    {
        type            empty;
    }
}


// ************************************************************************* //
