/*--------------------------------*- C++ -*----------------------------------*\
| =========                 |                                                 |
| \\      /  F ield         | OpenFOAM: The Open Source CFD Toolbox           |
|  \\    /   O peration     | Version:  2.4.x                                 |
|   \\  /    A nd           | Web:      www.OpenFOAM.org                      |
|    \\/     M anipulation  |                                                 |
\*---------------------------------------------------------------------------*/
FoamFile
{
    version     2.0;
    format      ascii;
    class       volScalarField;
    location    "8.4";
    object      k;
}
// * * * * * * * * * * * * * * * * * * * * * * * * * * * * * * * * * * * * * //

dimensions      [0 2 -2 0 0 0 0];

internalField   nonuniform List<scalar> 
360
(
1e-20
1e-20
1e-20
1e-20
1e-20
1e-20
1e-20
1e-20
1e-20
1e-20
1e-20
1e-20
1e-20
1e-20
1e-20
1e-20
1e-20
1e-20
1e-20
1e-20
1e-20
1e-20
1e-20
1e-20
1e-20
1e-20
1e-20
1e-20
1e-20
1e-20
1e-20
1e-20
1e-20
1e-20
1e-20
1e-20
1e-20
1e-20
1e-20
1e-20
1e-20
1e-20
1e-20
1e-20
1e-20
1e-20
1e-20
1e-20
1e-20
1e-20
1e-20
1e-20
1e-20
1e-20
1e-20
1e-20
1e-20
1e-20
1e-20
1e-20
1e-20
1e-20
1e-20
1e-20
1e-20
1e-20
1e-20
1e-20
1e-20
1e-20
1e-20
1e-20
1e-20
1e-20
1e-20
1e-20
1e-20
1e-20
1e-20
1e-20
1e-20
1e-20
1e-20
1e-20
1e-20
1e-20
1e-20
1e-20
1e-20
1e-20
1e-20
1e-20
1e-20
1e-20
1e-20
1e-20
1e-20
1e-20
1e-20
1e-20
1e-20
1e-20
1e-20
1e-20
1e-20
1e-20
1e-20
1e-20
1e-20
1e-20
1e-20
1e-20
1e-20
1e-20
1e-20
1e-20
1e-20
1e-20
1e-20
1e-20
1e-20
1e-20
1e-20
1e-20
1e-20
1e-20
1e-20
1e-20
1e-20
1e-20
1e-20
1e-20
1e-20
1.17659e-20
1.02758e-19
1.45612e-18
2.26505e-17
3.88086e-16
7.39747e-15
1.57717e-13
3.77059e-12
1.0141e-10
3.09527e-09
1.0881e-07
4.43866e-06
0.000169142
0.0024621
0.00763142
0.0109949
0.0130863
0.0143627
0.0150799
0.0153976
0.0154208
0.0152235
0.0148622
0.0143798
0.0138087
0.0131736
0.0124929
0.0117813
0.0110497
0.0103074
0.00956216
0.008821
0.0080908
0.00737856
0.00669166
0.00603794
0.00542559
0.0048628
0.00435707
0.00391421
0.00353728
0.00322582
0.00297581
0.00278038
0.00263115
0.00251956
0.00243773
0.00237901
0.00233804
0.00231065
0.00229364
0.00228458
0.00228165
0.00228343
0.00228887
0.00229713
0.00230756
0.00231966
0.002333
0.00234727
0.00236218
0.00237751
0.00239307
0.00240871
0.00242427
0.00243965
0.00245474
0.00246946
0.00248386
0.00249801
0.00251181
0.00252516
0.00253796
0.00255011
0.00256151
0.00257205
0.00258161
0.0025901
0.0025974
0.00260339
0.00260795
0.00261097
0.00261232
0.00261188
0.00260952
0.00260512
0.00259854
0.00258967
0.00257837
0.00256451
0.00254798
0.00252864
0.00250638
0.00248108
0.00245261
0.00242089
0.00238579
0.00234723
0.00230512
0.00225938
0.00220995
0.00215679
0.00209985
0.00203913
0.00197463
0.00190638
0.00183444
0.00175891
0.0016799
0.0015976
0.0015122
0.00142398
0.00133325
0.0012404
0.0011459
0.00105026
0.000954104
0.000858137
0.00076315
0.00067002
0.000579705
0.000493219
0.000411603
0.000335869
0.000266929
0.000205505
0.000152034
0.000106599
6.89459e-05
3.8642e-05
1.54142e-05
2.41058e-06
8.88319e-08
1.6835e-09
3.04824e-11
5.44417e-13
9.53536e-15
1.62714e-16
2.69299e-18
4.92948e-20
1e-20
1e-20
1e-20
1e-20
1e-20
1e-20
1e-20
1e-20
1e-20
1e-20
1e-20
1e-20
1e-20
1e-20
1e-20
1e-20
1e-20
1e-20
1e-20
1e-20
1e-20
1e-20
1e-20
1e-20
1e-20
1e-20
1e-20
1e-20
1e-20
1e-20
1e-20
1e-20
1e-20
1e-20
1e-20
1e-20
1e-20
1e-20
1e-20
1e-20
1e-20
1e-20
1e-20
1e-20
1e-20
1e-20
1e-20
1e-20
1e-20
1e-20
1e-20
1e-20
1e-20
1e-20
1e-20
1e-20
1e-20
1e-20
1e-20
1e-20
1e-20
1e-20
1e-20
1e-20
1e-20
1e-20
1e-20
1e-20
1e-20
1e-20
1e-20
1e-20
1e-20
1e-20
1e-20
1e-20
1e-20
1e-20
1e-20
1e-20
1e-20
1e-20
1e-20
1e-20
1e-20
1e-20
1e-20
)
;

boundaryField
{
    inandouthalf11
    {
        type            cyclic;
    }
    inandouthalf12
    {
        type            cyclic;
    }
    inandouthalf21
    {
        type            cyclic;
    }
    inandouthalf22
    {
        type            cyclic;
    }
    inandouthalf31
    {
        type            cyclic;
    }
    inandouthalf32
    {
        type            cyclic;
    }
    inandouthalf41
    {
        type            cyclic;
    }
    inandouthalf42
    {
        type            cyclic;
    }
    top
    {
        type            symmetryPlane;
    }
    walls
    {
        type            zeroGradient;
    }
    frontAndBackPlanes
    {
        type            empty;
    }
}


// ************************************************************************* //
