/*--------------------------------*- C++ -*----------------------------------*\
| =========                 |                                                 |
| \\      /  F ield         | OpenFOAM: The Open Source CFD Toolbox           |
|  \\    /   O peration     | Version:  2.4.x                                 |
|   \\  /    A nd           | Web:      www.OpenFOAM.org                      |
|    \\/     M anipulation  |                                                 |
\*---------------------------------------------------------------------------*/
FoamFile
{
    version     2.0;
    format      ascii;
    class       volScalarField;
    location    "8.4";
    object      k_0;
}
// * * * * * * * * * * * * * * * * * * * * * * * * * * * * * * * * * * * * * //

dimensions      [0 2 -2 0 0 0 0];

internalField   nonuniform List<scalar> 
360
(
1e-20
1e-20
1e-20
1e-20
1e-20
1e-20
1e-20
1e-20
1e-20
1e-20
1e-20
1e-20
1e-20
1e-20
1e-20
1e-20
1e-20
1e-20
1e-20
1e-20
1e-20
1e-20
1e-20
1e-20
1e-20
1e-20
1e-20
1e-20
1e-20
1e-20
1e-20
1e-20
1e-20
1e-20
1e-20
1e-20
1e-20
1e-20
1e-20
1e-20
1e-20
1e-20
1e-20
1e-20
1e-20
1e-20
1e-20
1e-20
1e-20
1e-20
1e-20
1e-20
1e-20
1e-20
1e-20
1e-20
1e-20
1e-20
1e-20
1e-20
1e-20
1e-20
1e-20
1e-20
1e-20
1e-20
1e-20
1e-20
1e-20
1e-20
1e-20
1e-20
1e-20
1e-20
1e-20
1e-20
1e-20
1e-20
1e-20
1e-20
1e-20
1e-20
1e-20
1e-20
1e-20
1e-20
1e-20
1e-20
1e-20
1e-20
1e-20
1e-20
1e-20
1e-20
1e-20
1e-20
1e-20
1e-20
1e-20
1e-20
1e-20
1e-20
1e-20
1e-20
1e-20
1e-20
1e-20
1e-20
1e-20
1e-20
1e-20
1e-20
1e-20
1e-20
1e-20
1e-20
1e-20
1e-20
1e-20
1e-20
1e-20
1e-20
1e-20
1e-20
1e-20
1e-20
1e-20
1e-20
1e-20
1e-20
1e-20
1e-20
1e-20
1.17454e-20
1.02358e-19
1.45018e-18
2.25539e-17
3.86339e-16
7.36249e-15
1.56945e-13
3.7519e-12
1.00909e-10
3.07999e-09
1.08264e-07
4.41591e-06
0.000168394
0.00245548
0.00762546
0.0109924
0.0130855
0.0143623
0.0150792
0.0153963
0.0154187
0.0152207
0.0148587
0.0143758
0.0138043
0.0131688
0.012488
0.0117763
0.0110447
0.0103024
0.00955723
0.00881615
0.00808605
0.00737394
0.0066872
0.00603368
0.00542158
0.0048591
0.00435373
0.00391128
0.00353478
0.00322376
0.00297416
0.00277909
0.00263019
0.00251885
0.00243723
0.00237868
0.00233784
0.00231056
0.00229363
0.00228464
0.00228176
0.00228359
0.00228906
0.00229735
0.00230781
0.00231993
0.0023333
0.00234758
0.00236251
0.00237785
0.00239342
0.00240906
0.00242463
0.00244002
0.00245511
0.00246983
0.00248425
0.0024984
0.0025122
0.00252555
0.00253835
0.0025505
0.0025619
0.00257243
0.002582
0.00259048
0.00259778
0.00260376
0.00260832
0.00261133
0.00261268
0.00261223
0.00260986
0.00260545
0.00259887
0.00258998
0.00257867
0.00256481
0.00254826
0.00252892
0.00250664
0.00248132
0.00245285
0.0024211
0.00238599
0.00234742
0.00230529
0.00225954
0.00221009
0.00215691
0.00209996
0.00203922
0.0019747
0.00190644
0.00183448
0.00175893
0.00167991
0.00159759
0.00151217
0.00142394
0.0013332
0.00124034
0.00114582
0.00105017
0.000954006
0.000858032
0.00076304
0.000669908
0.000579593
0.000493111
0.0004115
0.000335774
0.000266845
0.000205433
0.000151974
0.000106552
6.89106e-05
3.86167e-05
1.53976e-05
2.40561e-06
8.85679e-08
1.6785e-09
3.03946e-11
5.42891e-13
9.50915e-15
1.62272e-16
2.68575e-18
4.91813e-20
1e-20
1e-20
1e-20
1e-20
1e-20
1e-20
1e-20
1e-20
1e-20
1e-20
1e-20
1e-20
1e-20
1e-20
1e-20
1e-20
1e-20
1e-20
1e-20
1e-20
1e-20
1e-20
1e-20
1e-20
1e-20
1e-20
1e-20
1e-20
1e-20
1e-20
1e-20
1e-20
1e-20
1e-20
1e-20
1e-20
1e-20
1e-20
1e-20
1e-20
1e-20
1e-20
1e-20
1e-20
1e-20
1e-20
1e-20
1e-20
1e-20
1e-20
1e-20
1e-20
1e-20
1e-20
1e-20
1e-20
1e-20
1e-20
1e-20
1e-20
1e-20
1e-20
1e-20
1e-20
1e-20
1e-20
1e-20
1e-20
1e-20
1e-20
1e-20
1e-20
1e-20
1e-20
1e-20
1e-20
1e-20
1e-20
1e-20
1e-20
1e-20
1e-20
1e-20
1e-20
1e-20
1e-20
1e-20
)
;

boundaryField
{
    inandouthalf11
    {
        type            cyclic;
    }
    inandouthalf12
    {
        type            cyclic;
    }
    inandouthalf21
    {
        type            cyclic;
    }
    inandouthalf22
    {
        type            cyclic;
    }
    inandouthalf31
    {
        type            cyclic;
    }
    inandouthalf32
    {
        type            cyclic;
    }
    inandouthalf41
    {
        type            cyclic;
    }
    inandouthalf42
    {
        type            cyclic;
    }
    top
    {
        type            symmetryPlane;
    }
    walls
    {
        type            zeroGradient;
    }
    frontAndBackPlanes
    {
        type            empty;
    }
}


// ************************************************************************* //
