/*--------------------------------*- C++ -*----------------------------------*\
| =========                 |                                                 |
| \\      /  F ield         | OpenFOAM: The Open Source CFD Toolbox           |
|  \\    /   O peration     | Version:  2.4.x                                 |
|   \\  /    A nd           | Web:      www.OpenFOAM.org                      |
|    \\/     M anipulation  |                                                 |
\*---------------------------------------------------------------------------*/
FoamFile
{
    version     2.0;
    format      ascii;
    class       volScalarField;
    location    "8.4";
    object      mua;
}
// * * * * * * * * * * * * * * * * * * * * * * * * * * * * * * * * * * * * * //

dimensions      [1 -1 -1 0 0 0 0];

internalField   nonuniform List<scalar> 
360
(
2.70673e+06
1.88574e+06
2.25664e+06
2.25363e+06
2.09851e+06
2.01636e+06
1.98329e+06
1.95982e+06
1.93664e+06
1.91366e+06
1.89202e+06
1.87298e+06
1.85661e+06
1.84261e+06
1.83042e+06
1.81962e+06
1.8102e+06
1.8023e+06
1.7958e+06
1.79053e+06
1.78667e+06
1.78374e+06
1.78167e+06
1.78042e+06
1.77982e+06
1.77985e+06
1.78032e+06
1.78084e+06
1.78156e+06
1.78244e+06
1.78316e+06
1.78362e+06
1.784e+06
1.78361e+06
1.78303e+06
1.78199e+06
1.78045e+06
1.77801e+06
1.77493e+06
1.77165e+06
1.7672e+06
1.76234e+06
1.75716e+06
1.75086e+06
1.7441e+06
1.73674e+06
1.72906e+06
1.72145e+06
1.71282e+06
1.70336e+06
1.69417e+06
1.68455e+06
1.67461e+06
1.66443e+06
1.65426e+06
1.64364e+06
1.6333e+06
1.62276e+06
1.61255e+06
1.60252e+06
1.59182e+06
1.58123e+06
1.5704e+06
1.55978e+06
1.54944e+06
1.53938e+06
1.52934e+06
1.51958e+06
1.51042e+06
1.50154e+06
1.49206e+06
1.48262e+06
1.47382e+06
1.46474e+06
1.4556e+06
1.44664e+06
1.43847e+06
1.4308e+06
1.42337e+06
1.41624e+06
1.40944e+06
1.40261e+06
1.39564e+06
1.38862e+06
1.3816e+06
1.37472e+06
1.36809e+06
1.36191e+06
1.3562e+06
1.35082e+06
1.34569e+06
1.34067e+06
1.33555e+06
1.33028e+06
1.32484e+06
1.31927e+06
1.31366e+06
1.30808e+06
1.30256e+06
1.29711e+06
1.29168e+06
1.2862e+06
1.28057e+06
1.27467e+06
1.26836e+06
1.26148e+06
1.25383e+06
1.24518e+06
1.23523e+06
1.22368e+06
1.21023e+06
1.19456e+06
1.17642e+06
1.15563e+06
1.13213e+06
1.10596e+06
1.07735e+06
1.04668e+06
1.01444e+06
981286
947925
915093
883474
853601
825747
799811
775267
751224
726630
700511
671970
639806
602192
557644
507320
455675
407329
364529
331180
322625
377959
605549
1.45134e+06
5.97708e+06
3.25351e+07
0.0774289
0.0240959
0.0164043
0.0138891
0.0123798
0.0112369
0.0103225
0.00957463
0.00895495
0.0084387
0.00800716
0.00764464
0.00733696
0.00707128
0.00683664
0.00662357
0.00642436
0.00623322
0.0060462
0.00586111
0.00567728
0.00549547
0.00531743
0.00514571
0.00498305
0.00483202
0.0046945
0.00457138
0.00446241
0.00436649
0.00428199
0.00420719
0.00414052
0.00408068
0.00402662
0.00397747
0.00393253
0.00389122
0.00385304
0.00381756
0.00378443
0.00375332
0.00372396
0.0036961
0.00366954
0.00364407
0.00361953
0.00359577
0.00357265
0.00355006
0.00352788
0.00350602
0.0034844
0.00346294
0.00344157
0.00342023
0.00339865
0.00337655
0.00335387
0.00333055
0.00330651
0.00328169
0.003256
0.00322937
0.00320173
0.00317297
0.00314302
0.00311177
0.00307913
0.00304498
0.00300919
0.00297164
0.00293219
0.00289065
0.00284686
0.00280059
0.00275159
0.00269959
0.00264424
0.00258513
0.00252175
0.0024535
0.00237958
0.00229898
0.00221036
0.00211183
0.0020007
0.00187279
0.00172113
0.00153225
0.00127304
0
0
0
0
0
0
0
0
0
0
0
0
0
0
0
0
0
0
0
0
0
0
0
0
0
0
0
0
0
0
0
0
0
0
0
0
0
0
0
0
0
0
0
0
0
0
0
0
0
0
0
0
0
0
0
0
0
0
0
0
0
0
0
0
0
0
0
0
0
0
0
0
0
0
0
0
0
0
0
0
0
0
0
0
0
0
0
0
0
0
0
0
0
0
0
0
0
0
0
0
0
0
0
0
0
0
0
0
0
0
0
0
0
0
0
0
0
0
0
0
0
0
0
0
)
;

boundaryField
{
    inandouthalf11
    {
        type            cyclic;
    }
    inandouthalf12
    {
        type            cyclic;
    }
    inandouthalf21
    {
        type            cyclic;
    }
    inandouthalf22
    {
        type            cyclic;
    }
    inandouthalf31
    {
        type            cyclic;
    }
    inandouthalf32
    {
        type            cyclic;
    }
    inandouthalf41
    {
        type            cyclic;
    }
    inandouthalf42
    {
        type            cyclic;
    }
    top
    {
        type            symmetryPlane;
    }
    walls
    {
        type            calculated;
        value           uniform 1e+30;
    }
    frontAndBackPlanes
    {
        type            empty;
    }
}


// ************************************************************************* //
