/*--------------------------------*- C++ -*----------------------------------*\
| =========                 |                                                 |
| \\      /  F ield         | OpenFOAM: The Open Source CFD Toolbox           |
|  \\    /   O peration     | Version:  2.4.x                                 |
|   \\  /    A nd           | Web:      www.OpenFOAM.org                      |
|    \\/     M anipulation  |                                                 |
\*---------------------------------------------------------------------------*/
FoamFile
{
    version     2.0;
    format      ascii;
    class       volScalarField;
    location    "8.4";
    object      nutb;
}
// * * * * * * * * * * * * * * * * * * * * * * * * * * * * * * * * * * * * * //

dimensions      [0 2 -1 0 0 0 0];

internalField   nonuniform List<scalar> 
360
(
9e-22
9e-22
9e-22
9e-22
9e-22
9e-22
9e-22
9e-22
9e-22
9e-22
9e-22
9e-22
9e-22
9e-22
9e-22
9e-22
9e-22
9e-22
9e-22
9e-22
9e-22
9e-22
9e-22
9e-22
9e-22
9e-22
9e-22
9e-22
9e-22
9e-22
9e-22
9e-22
9e-22
9e-22
9e-22
9e-22
9e-22
9e-22
9e-22
9e-22
9e-22
9e-22
9e-22
9e-22
9e-22
9e-22
9e-22
9e-22
9e-22
9e-22
9e-22
9e-22
9e-22
9e-22
9e-22
9e-22
9e-22
9e-22
9e-22
9e-22
9e-22
9e-22
9e-22
9e-22
9e-22
9e-22
9e-22
9e-22
9e-22
9e-22
9e-22
9e-22
9e-22
9e-22
9e-22
9e-22
9e-22
9e-22
9e-22
9e-22
9e-22
9e-22
9e-22
9e-22
9e-22
9e-22
9e-22
9e-22
9e-22
9e-22
9e-22
9e-22
9e-22
9e-22
9e-22
9e-22
9e-22
9e-22
9e-22
9e-22
9e-22
9e-22
9e-22
9e-22
9e-22
9e-22
9e-22
9e-22
9e-22
9e-22
9e-22
9e-22
9e-22
9e-22
9e-22
9e-22
9e-22
9e-22
9e-22
9e-22
9e-22
9e-22
9e-22
9e-22
9e-22
9e-22
9e-22
9e-22
9e-22
9e-22
9e-22
9e-22
9e-22
4.16862e-22
2.62872e-21
3.22182e-20
4.31502e-19
6.32323e-18
1.02589e-16
1.85328e-15
3.73123e-14
8.37527e-13
2.11052e-11
6.06196e-10
1.99914e-08
5.84981e-07
6.35571e-06
1.74365e-05
2.7189e-05
3.53757e-05
4.23014e-05
4.82087e-05
5.3256e-05
5.75508e-05
6.11594e-05
6.41431e-05
6.65549e-05
6.84406e-05
6.98405e-05
7.07903e-05
7.13234e-05
7.14723e-05
7.12712e-05
7.07582e-05
6.99784e-05
6.89866e-05
6.78516e-05
6.66593e-05
6.55167e-05
6.4555e-05
6.3931e-05
6.38238e-05
6.44244e-05
6.59153e-05
6.84431e-05
7.20895e-05
7.68535e-05
8.2651e-05
8.93311e-05
9.67027e-05
0.000104562
0.000112712
0.000120982
0.000129227
0.000137335
0.00014522
0.000152822
0.000160103
0.000167037
0.000173614
0.000179833
0.000185699
0.000191221
0.000196412
0.000201288
0.000205863
0.000210154
0.000214176
0.000217946
0.000221478
0.000224786
0.000227913
0.000230895
0.000233732
0.000236425
0.000238974
0.000241379
0.000243641
0.000245759
0.000247731
0.000249557
0.000251235
0.000252761
0.000254134
0.00025535
0.000256405
0.000257294
0.000258013
0.000258556
0.000258917
0.00025909
0.000259068
0.000258844
0.000258411
0.000257759
0.000256881
0.000255768
0.00025441
0.0002528
0.000250926
0.000248779
0.000246349
0.000243627
0.000240601
0.000237262
0.000233601
0.000229606
0.00022527
0.000220583
0.000215536
0.000210123
0.000204338
0.000198175
0.000191632
0.000184707
0.000177402
0.000169721
0.000161673
0.00015327
0.000144531
0.000135478
0.000126144
0.000116565
0.000106789
9.68682e-05
8.68636e-05
7.68378e-05
6.68507e-05
5.69521e-05
4.71726e-05
3.75211e-05
2.7994e-05
1.85946e-05
9.31159e-06
1.86658e-06
7.77253e-08
1.47734e-09
2.65358e-11
4.69344e-13
8.13384e-15
1.37253e-16
2.19862e-18
1.71544e-20
9e-22
9e-22
9e-22
9e-22
9e-22
9e-22
9e-22
9e-22
9e-22
9e-22
9e-22
9e-22
9e-22
9e-22
9e-22
9e-22
9e-22
9e-22
9e-22
9e-22
9e-22
9e-22
9e-22
9e-22
9e-22
9e-22
9e-22
9e-22
9e-22
9e-22
9e-22
9e-22
9e-22
9e-22
9e-22
9e-22
9e-22
9e-22
9e-22
9e-22
9e-22
9e-22
9e-22
9e-22
9e-22
9e-22
9e-22
9e-22
9e-22
9e-22
9e-22
9e-22
9e-22
9e-22
9e-22
9e-22
9e-22
9e-22
9e-22
9e-22
9e-22
9e-22
9e-22
9e-22
9e-22
9e-22
9e-22
9e-22
9e-22
9e-22
9e-22
9e-22
9e-22
9e-22
9e-22
9e-22
9e-22
9e-22
9e-22
9e-22
9e-22
9e-22
9e-22
9e-22
9e-22
9e-22
9e-22
)
;

boundaryField
{
    inandouthalf11
    {
        type            cyclic;
    }
    inandouthalf12
    {
        type            cyclic;
    }
    inandouthalf21
    {
        type            cyclic;
    }
    inandouthalf22
    {
        type            cyclic;
    }
    inandouthalf31
    {
        type            cyclic;
    }
    inandouthalf32
    {
        type            cyclic;
    }
    inandouthalf41
    {
        type            cyclic;
    }
    inandouthalf42
    {
        type            cyclic;
    }
    top
    {
        type            symmetryPlane;
    }
    walls
    {
        type            calculated;
        value           uniform 0;
    }
    frontAndBackPlanes
    {
        type            empty;
    }
}


// ************************************************************************* //
