/*--------------------------------*- C++ -*----------------------------------*\
| =========                 |                                                 |
| \\      /  F ield         | OpenFOAM: The Open Source CFD Toolbox           |
|  \\    /   O peration     | Version:  2.4.x                                 |
|   \\  /    A nd           | Web:      www.OpenFOAM.org                      |
|    \\/     M anipulation  |                                                 |
\*---------------------------------------------------------------------------*/
FoamFile
{
    version     2.0;
    format      ascii;
    class       surfaceScalarField;
    location    "8.4";
    object      phia_0;
}
// * * * * * * * * * * * * * * * * * * * * * * * * * * * * * * * * * * * * * //

dimensions      [0 3 -1 0 0 0 0];

internalField   nonuniform List<scalar> 
359
(
-1.31699e-13
-3.32119e-13
-5.20944e-13
-7.0574e-13
-8.98179e-13
-1.09682e-12
-1.29812e-12
-1.50069e-12
-1.7043e-12
-1.909e-12
-2.11468e-12
-2.32107e-12
-2.52789e-12
-2.73488e-12
-2.94184e-12
-3.1486e-12
-3.35501e-12
-3.56087e-12
-3.76602e-12
-3.97034e-12
-4.17362e-12
-4.37577e-12
-4.5767e-12
-4.77629e-12
-4.97447e-12
-5.17118e-12
-5.36635e-12
-5.55999e-12
-5.75208e-12
-5.94259e-12
-6.13153e-12
-6.31896e-12
-6.50483e-12
-6.6893e-12
-6.8723e-12
-7.05394e-12
-7.23423e-12
-7.41327e-12
-7.59113e-12
-7.76778e-12
-7.94339e-12
-8.11796e-12
-8.29149e-12
-8.46415e-12
-8.63591e-12
-8.80685e-12
-8.977e-12
-9.14632e-12
-9.31492e-12
-9.48288e-12
-9.65012e-12
-9.81673e-12
-9.98269e-12
-1.0148e-11
-1.03127e-11
-1.04769e-11
-1.06403e-11
-1.08032e-11
-1.09654e-11
-1.11269e-11
-1.12878e-11
-1.1448e-11
-1.16075e-11
-1.17664e-11
-1.19245e-11
-1.20819e-11
-1.22385e-11
-1.23943e-11
-1.25493e-11
-1.27032e-11
-1.28563e-11
-1.30086e-11
-1.31598e-11
-1.331e-11
-1.34593e-11
-1.36076e-11
-1.37548e-11
-1.39008e-11
-1.40456e-11
-1.41892e-11
-1.43315e-11
-1.44725e-11
-1.46121e-11
-1.47505e-11
-1.48875e-11
-1.50232e-11
-1.51574e-11
-1.52902e-11
-1.54215e-11
-1.55512e-11
-1.56793e-11
-1.58058e-11
-1.59306e-11
-1.60538e-11
-1.61754e-11
-1.62953e-11
-1.64136e-11
-1.65303e-11
-1.66452e-11
-1.67585e-11
-1.687e-11
-1.69797e-11
-1.70878e-11
-1.71941e-11
-1.72987e-11
-1.74016e-11
-1.75029e-11
-1.76026e-11
-1.77007e-11
-1.77975e-11
-1.7893e-11
-1.79874e-11
-1.80809e-11
-1.81735e-11
-1.82656e-11
-1.83573e-11
-1.84489e-11
-1.85404e-11
-1.8632e-11
-1.8724e-11
-1.88162e-11
-1.89086e-11
-1.90013e-11
-1.90939e-11
-1.91864e-11
-1.92784e-11
-1.93698e-11
-1.94605e-11
-1.95506e-11
-1.96401e-11
-1.97294e-11
-1.9819e-11
-1.99097e-11
-2.00029e-11
-2.01e-11
-2.02023e-11
-2.03104e-11
-2.04238e-11
-2.05403e-11
-2.06513e-11
-2.07391e-11
-2.0789e-11
-2.08079e-11
-2.08121e-11
-2.08118e-11
3.93873e-10
6.8645e-09
1.13528e-08
1.38286e-08
1.55657e-08
1.71644e-08
1.8902e-08
2.08336e-08
2.29653e-08
2.52697e-08
2.77041e-08
3.02157e-08
3.27558e-08
3.52719e-08
3.77199e-08
4.0063e-08
4.22754e-08
4.43424e-08
4.62581e-08
4.80219e-08
4.96328e-08
5.10862e-08
5.23705e-08
5.34647e-08
5.43341e-08
5.49201e-08
5.51293e-08
5.48504e-08
5.40156e-08
5.26595e-08
5.09145e-08
4.89494e-08
4.69115e-08
4.49036e-08
4.29867e-08
4.11916e-08
3.95303e-08
3.80043e-08
3.66092e-08
3.53383e-08
3.41835e-08
3.31369e-08
3.21907e-08
3.13378e-08
3.05715e-08
2.98855e-08
2.92744e-08
2.8733e-08
2.82565e-08
2.78407e-08
2.74814e-08
2.7175e-08
2.69178e-08
2.67066e-08
2.65379e-08
2.64085e-08
2.63136e-08
2.62519e-08
2.62216e-08
2.62208e-08
2.62473e-08
2.62983e-08
2.63711e-08
2.64622e-08
2.65685e-08
2.66863e-08
2.68123e-08
2.69428e-08
2.70746e-08
2.72048e-08
2.73311e-08
2.7451e-08
2.75629e-08
2.76655e-08
2.77581e-08
2.78397e-08
2.79091e-08
2.79664e-08
2.80112e-08
2.80428e-08
2.80611e-08
2.80664e-08
2.80584e-08
2.80389e-08
2.80064e-08
2.79676e-08
2.79172e-08
2.78764e-08
2.78088e-08
2.78269e-08
2.79808e-08
2.84745e-08
2.81693e-08
2.78179e-08
2.7352e-08
2.69943e-08
2.64446e-08
2.48511e-08
2.57298e-08
-8.94582e-08
-1.56701e-07
-1.586e-07
-1.5828e-07
-1.58301e-07
-1.58295e-07
-1.58288e-07
-1.58278e-07
-1.58266e-07
-1.58252e-07
-1.58235e-07
-1.58216e-07
-1.58194e-07
-1.58172e-07
-1.58152e-07
-1.5813e-07
-1.58108e-07
-1.58088e-07
-1.58068e-07
-1.58034e-07
-1.58001e-07
-1.57997e-07
-1.57997e-07
-1.57997e-07
-1.57997e-07
-1.57997e-07
-1.57997e-07
-1.57997e-07
-1.57997e-07
-1.57997e-07
-1.57997e-07
-1.57997e-07
-1.57997e-07
-1.57997e-07
-1.57997e-07
-1.57997e-07
-1.57997e-07
-1.57997e-07
-1.57997e-07
-1.57997e-07
-1.57997e-07
-1.57997e-07
-1.57997e-07
-1.57997e-07
-1.57997e-07
-1.57997e-07
-1.57997e-07
-1.57997e-07
-1.57997e-07
-1.57997e-07
-1.57997e-07
-1.57997e-07
-1.57997e-07
-1.57997e-07
-1.57997e-07
-1.57997e-07
-1.57997e-07
-1.57997e-07
-1.57997e-07
-1.57997e-07
-1.57997e-07
-1.57997e-07
-1.57997e-07
-1.57997e-07
-1.57997e-07
-1.57997e-07
-1.57997e-07
-1.57997e-07
-1.57997e-07
-1.57997e-07
-1.57997e-07
-1.57997e-07
-1.57997e-07
-1.57997e-07
-1.57997e-07
-1.57997e-07
-1.57997e-07
-1.57997e-07
-1.57997e-07
-1.57997e-07
-1.57997e-07
-1.57997e-07
-1.57997e-07
-1.57997e-07
-1.57997e-07
-1.57997e-07
-1.57997e-07
-1.57997e-07
-1.57997e-07
-1.57997e-07
-1.57997e-07
-1.57997e-07
-1.57997e-07
-1.57997e-07
-1.57997e-07
-1.57997e-07
-1.57997e-07
-1.57997e-07
-1.57997e-07
-1.57997e-07
-1.57997e-07
-1.57997e-07
-1.57997e-07
-1.57997e-07
-1.57997e-07
-1.57997e-07
-1.57997e-07
-1.57997e-07
-1.57997e-07
-1.57997e-07
-1.57997e-07
-1.57996e-07
-1.57979e-07
-1.5727e-07
-1.32289e-07
)
;

boundaryField
{
    inandouthalf11
    {
        type            cyclic;
        value           nonuniform List<scalar> 
100
(
-1.96708e-38
-1.70216e-14
-3.57704e-14
-5.28744e-14
-7.04794e-14
-8.89715e-14
-1.07864e-13
-1.26892e-13
-1.46012e-13
-1.65221e-13
-1.84514e-13
-2.03872e-13
-2.23269e-13
-2.42679e-13
-2.62079e-13
-2.81453e-13
-3.00786e-13
-3.2006e-13
-3.39261e-13
-3.58374e-13
-3.77383e-13
-3.96277e-13
-4.15046e-13
-4.33681e-13
-4.52173e-13
-4.70518e-13
-4.88709e-13
-5.06745e-13
-5.24624e-13
-5.42346e-13
-5.5991e-13
-5.77319e-13
-5.94576e-13
-6.11685e-13
-6.2865e-13
-6.45476e-13
-6.62166e-13
-6.78727e-13
-6.95166e-13
-7.11488e-13
-7.27698e-13
-7.43802e-13
-7.59805e-13
-7.75711e-13
-7.91529e-13
-8.07261e-13
-8.22911e-13
-8.38481e-13
-8.53973e-13
-8.69395e-13
-8.84749e-13
-9.00035e-13
-9.15255e-13
-9.30412e-13
-9.45506e-13
-9.60537e-13
-9.75506e-13
-9.90412e-13
-1.00525e-12
-1.02003e-12
-1.03473e-12
-1.04937e-12
-1.06395e-12
-1.07845e-12
-1.09289e-12
-1.10726e-12
-1.12155e-12
-1.13576e-12
-1.14989e-12
-1.16393e-12
-1.17788e-12
-1.19175e-12
-1.20552e-12
-1.2192e-12
-1.23279e-12
-1.24628e-12
-1.25968e-12
-1.27296e-12
-1.28613e-12
-1.29919e-12
-1.31212e-12
-1.32493e-12
-1.33762e-12
-1.35019e-12
-1.36263e-12
-1.37494e-12
-1.38713e-12
-1.39918e-12
-1.41109e-12
-1.42286e-12
-1.43448e-12
-1.44595e-12
-1.45728e-12
-1.46845e-12
-1.47947e-12
-1.49033e-12
-1.50105e-12
-1.51162e-12
-1.52203e-12
-1.53229e-12
)
;
    }
    inandouthalf12
    {
        type            cyclic;
        value           nonuniform List<scalar> 
100
(
1.96708e-38
1.70216e-14
3.57704e-14
5.28744e-14
7.04794e-14
8.89715e-14
1.07864e-13
1.26892e-13
1.46012e-13
1.65221e-13
1.84514e-13
2.03872e-13
2.23269e-13
2.42679e-13
2.62079e-13
2.81453e-13
3.00786e-13
3.2006e-13
3.39261e-13
3.58374e-13
3.77383e-13
3.96277e-13
4.15046e-13
4.33681e-13
4.52173e-13
4.70518e-13
4.88709e-13
5.06745e-13
5.24624e-13
5.42346e-13
5.5991e-13
5.77319e-13
5.94576e-13
6.11685e-13
6.2865e-13
6.45476e-13
6.62166e-13
6.78727e-13
6.95166e-13
7.11488e-13
7.27698e-13
7.43802e-13
7.59805e-13
7.75711e-13
7.91529e-13
8.07261e-13
8.22911e-13
8.38481e-13
8.53973e-13
8.69395e-13
8.84749e-13
9.00035e-13
9.15255e-13
9.30412e-13
9.45506e-13
9.60537e-13
9.75506e-13
9.90412e-13
1.00525e-12
1.02003e-12
1.03473e-12
1.04937e-12
1.06395e-12
1.07845e-12
1.09289e-12
1.10726e-12
1.12155e-12
1.13576e-12
1.14989e-12
1.16393e-12
1.17788e-12
1.19175e-12
1.20552e-12
1.2192e-12
1.23279e-12
1.24628e-12
1.25968e-12
1.27296e-12
1.28613e-12
1.29919e-12
1.31212e-12
1.32493e-12
1.33762e-12
1.35019e-12
1.36263e-12
1.37494e-12
1.38713e-12
1.39918e-12
1.41109e-12
1.42286e-12
1.43448e-12
1.44595e-12
1.45728e-12
1.46845e-12
1.47947e-12
1.49033e-12
1.50105e-12
1.51162e-12
1.52203e-12
1.53229e-12
)
;
    }
    inandouthalf21
    {
        type            cyclic;
        value           nonuniform List<scalar> 
100
(
-1.54239e-12
-1.55233e-12
-1.56212e-12
-1.57175e-12
-1.58122e-12
-1.59054e-12
-1.5997e-12
-1.60872e-12
-1.6176e-12
-1.62635e-12
-1.63499e-12
-1.64351e-12
-1.65194e-12
-1.66029e-12
-1.66858e-12
-1.67683e-12
-1.68505e-12
-1.69326e-12
-1.70148e-12
-1.70972e-12
-1.71797e-12
-1.72626e-12
-1.73456e-12
-1.74287e-12
-1.75116e-12
-1.75942e-12
-1.76764e-12
-1.77579e-12
-1.78387e-12
-1.79189e-12
-1.79987e-12
-1.80785e-12
-1.81588e-12
-1.82405e-12
-1.83249e-12
-1.84131e-12
-1.85059e-12
-1.86033e-12
-1.87043e-12
-1.88043e-12
-1.88908e-12
-1.89475e-12
-1.89725e-12
-1.8979e-12
-1.89804e-12
-1.89824e-12
-5.75714e-08
-1.73694e-07
-2.82127e-07
-3.76812e-07
-4.60106e-07
-5.34531e-07
-6.01285e-07
-6.61433e-07
-7.15853e-07
-7.65273e-07
-8.10294e-07
-8.5142e-07
-8.89072e-07
-9.23601e-07
-9.55294e-07
-9.84385e-07
-1.01106e-06
-1.03545e-06
-1.05766e-06
-1.07777e-06
-1.09581e-06
-1.11184e-06
-1.12588e-06
-1.13801e-06
-1.14831e-06
-1.1569e-06
-1.16394e-06
-1.16964e-06
-1.17419e-06
-1.1778e-06
-1.18066e-06
-1.1829e-06
-1.18465e-06
-1.18599e-06
-1.187e-06
-1.18773e-06
-1.18822e-06
-1.18852e-06
-1.18864e-06
-1.18862e-06
-1.18847e-06
-1.18821e-06
-1.18787e-06
-1.18745e-06
-1.18696e-06
-1.18642e-06
-1.18584e-06
-1.18522e-06
-1.18457e-06
-1.18391e-06
-1.18323e-06
-1.18254e-06
-1.18186e-06
-1.18118e-06
)
;
    }
    inandouthalf22
    {
        type            cyclic;
        value           nonuniform List<scalar> 
100
(
1.54239e-12
1.55233e-12
1.56212e-12
1.57175e-12
1.58122e-12
1.59054e-12
1.5997e-12
1.60872e-12
1.6176e-12
1.62635e-12
1.63499e-12
1.64351e-12
1.65194e-12
1.66029e-12
1.66858e-12
1.67683e-12
1.68505e-12
1.69326e-12
1.70148e-12
1.70972e-12
1.71797e-12
1.72626e-12
1.73456e-12
1.74287e-12
1.75116e-12
1.75942e-12
1.76764e-12
1.77579e-12
1.78387e-12
1.79189e-12
1.79987e-12
1.80785e-12
1.81588e-12
1.82405e-12
1.83249e-12
1.84131e-12
1.85059e-12
1.86033e-12
1.87043e-12
1.88043e-12
1.88908e-12
1.89475e-12
1.89725e-12
1.8979e-12
1.89804e-12
1.89824e-12
5.75714e-08
1.73694e-07
2.82127e-07
3.76812e-07
4.60106e-07
5.34531e-07
6.01285e-07
6.61433e-07
7.15853e-07
7.65273e-07
8.10294e-07
8.5142e-07
8.89072e-07
9.23601e-07
9.55294e-07
9.84385e-07
1.01106e-06
1.03545e-06
1.05766e-06
1.07777e-06
1.09581e-06
1.11184e-06
1.12588e-06
1.13801e-06
1.14831e-06
1.1569e-06
1.16394e-06
1.16964e-06
1.17419e-06
1.1778e-06
1.18066e-06
1.1829e-06
1.18465e-06
1.18599e-06
1.187e-06
1.18773e-06
1.18822e-06
1.18852e-06
1.18864e-06
1.18862e-06
1.18847e-06
1.18821e-06
1.18787e-06
1.18745e-06
1.18696e-06
1.18642e-06
1.18584e-06
1.18522e-06
1.18457e-06
1.18391e-06
1.18323e-06
1.18254e-06
1.18186e-06
1.18118e-06
)
;
    }
    inandouthalf31
    {
        type            cyclic;
        value           nonuniform List<scalar> 
110
(
-1.18051e-06
-1.20379e-06
-1.22753e-06
-1.25175e-06
-1.27644e-06
-1.30163e-06
-1.32732e-06
-1.35354e-06
-1.38027e-06
-1.40755e-06
-1.43538e-06
-1.46378e-06
-1.49276e-06
-1.52232e-06
-1.55249e-06
-1.58328e-06
-1.61469e-06
-1.64675e-06
-1.67946e-06
-1.71284e-06
-1.74691e-06
-1.78167e-06
-1.81714e-06
-1.85334e-06
-1.89028e-06
-1.92798e-06
-1.96645e-06
-2.00571e-06
-2.04579e-06
-2.0867e-06
-2.12846e-06
-2.17111e-06
-2.21467e-06
-2.25917e-06
-2.30467e-06
-2.35122e-06
-2.39879e-06
-2.4257e-06
-2.46805e-06
-2.51235e-06
-2.557e-06
-2.60348e-06
-2.64918e-06
-2.69838e-06
-2.74513e-06
-2.79795e-06
-2.84825e-06
-2.89967e-06
-2.95231e-06
-3.00613e-06
-3.06122e-06
-3.11766e-06
-3.17556e-06
-3.23503e-06
-3.29619e-06
-3.35917e-06
-3.4241e-06
-3.4911e-06
-3.56036e-06
-3.63196e-06
-3.70581e-06
-3.78204e-06
-3.8605e-06
-3.94091e-06
-4.02219e-06
-4.10407e-06
-4.18738e-06
-4.27238e-06
-4.35909e-06
-4.44757e-06
-4.53785e-06
-4.62995e-06
-4.72393e-06
-4.81981e-06
-4.91764e-06
-5.01745e-06
-5.1193e-06
-5.2232e-06
-5.32922e-06
-5.43739e-06
-5.54775e-06
-5.66036e-06
-5.77525e-06
-5.89247e-06
-6.01207e-06
-6.1341e-06
-6.25861e-06
-6.38564e-06
-6.51525e-06
-6.6475e-06
-6.78242e-06
-6.92009e-06
-7.06055e-06
-7.20386e-06
-7.35008e-06
-7.49926e-06
-7.65148e-06
-7.80678e-06
-7.96524e-06
-8.12691e-06
-8.29187e-06
-8.46017e-06
-8.63189e-06
-8.80709e-06
-8.98585e-06
-9.16824e-06
-9.35433e-06
-9.5442e-06
-9.73792e-06
-9.93558e-06
)
;
    }
    inandouthalf32
    {
        type            cyclic;
        value           nonuniform List<scalar> 
110
(
1.18051e-06
1.20379e-06
1.22753e-06
1.25175e-06
1.27644e-06
1.30163e-06
1.32732e-06
1.35354e-06
1.38027e-06
1.40755e-06
1.43538e-06
1.46378e-06
1.49276e-06
1.52232e-06
1.55249e-06
1.58328e-06
1.61469e-06
1.64675e-06
1.67946e-06
1.71284e-06
1.74691e-06
1.78167e-06
1.81714e-06
1.85334e-06
1.89028e-06
1.92798e-06
1.96645e-06
2.00571e-06
2.04579e-06
2.0867e-06
2.12846e-06
2.17111e-06
2.21467e-06
2.25917e-06
2.30467e-06
2.35122e-06
2.39879e-06
2.4257e-06
2.46805e-06
2.51235e-06
2.557e-06
2.60348e-06
2.64918e-06
2.69838e-06
2.74513e-06
2.79795e-06
2.84825e-06
2.89967e-06
2.95231e-06
3.00613e-06
3.06122e-06
3.11766e-06
3.17556e-06
3.23503e-06
3.29619e-06
3.35917e-06
3.4241e-06
3.4911e-06
3.56036e-06
3.63196e-06
3.70581e-06
3.78204e-06
3.8605e-06
3.94091e-06
4.02219e-06
4.10407e-06
4.18738e-06
4.27238e-06
4.35909e-06
4.44757e-06
4.53785e-06
4.62995e-06
4.72393e-06
4.81981e-06
4.91764e-06
5.01745e-06
5.1193e-06
5.2232e-06
5.32922e-06
5.43739e-06
5.54775e-06
5.66036e-06
5.77525e-06
5.89247e-06
6.01207e-06
6.1341e-06
6.25861e-06
6.38564e-06
6.51525e-06
6.6475e-06
6.78242e-06
6.92009e-06
7.06055e-06
7.20386e-06
7.35008e-06
7.49926e-06
7.65148e-06
7.80678e-06
7.96524e-06
8.12691e-06
8.29187e-06
8.46017e-06
8.63189e-06
8.80709e-06
8.98585e-06
9.16824e-06
9.35433e-06
9.5442e-06
9.73792e-06
9.93558e-06
)
;
    }
    inandouthalf41
    {
        type            cyclic;
        value           nonuniform List<scalar> 
50
(
-8.89335e-06
-8.89335e-06
-8.89335e-06
-8.89335e-06
-8.89335e-06
-8.89335e-06
-8.89335e-06
-8.89335e-06
-8.89335e-06
-8.89335e-06
-8.89335e-06
-8.89335e-06
-8.89335e-06
-8.89335e-06
-8.89335e-06
-8.89335e-06
-8.89335e-06
-8.89335e-06
-8.89335e-06
-8.89335e-06
-8.89335e-06
-8.89335e-06
-8.89335e-06
-8.89335e-06
-8.89335e-06
-8.89335e-06
-8.89335e-06
-8.89335e-06
-8.89335e-06
-8.89335e-06
-8.89335e-06
-8.89335e-06
-8.89335e-06
-8.89335e-06
-8.89335e-06
-8.89335e-06
-8.89335e-06
-8.89335e-06
-8.89335e-06
-8.89335e-06
-8.89335e-06
-8.89335e-06
-8.89335e-06
-8.89335e-06
-8.89335e-06
-8.89335e-06
-8.89335e-06
-8.89334e-06
-8.89311e-06
-8.88782e-06
)
;
    }
    inandouthalf42
    {
        type            cyclic;
        value           nonuniform List<scalar> 
50
(
8.89335e-06
8.89335e-06
8.89335e-06
8.89335e-06
8.89335e-06
8.89335e-06
8.89335e-06
8.89335e-06
8.89335e-06
8.89335e-06
8.89335e-06
8.89335e-06
8.89335e-06
8.89335e-06
8.89335e-06
8.89335e-06
8.89335e-06
8.89335e-06
8.89335e-06
8.89335e-06
8.89335e-06
8.89335e-06
8.89335e-06
8.89335e-06
8.89335e-06
8.89335e-06
8.89335e-06
8.89335e-06
8.89335e-06
8.89335e-06
8.89335e-06
8.89335e-06
8.89335e-06
8.89335e-06
8.89335e-06
8.89335e-06
8.89335e-06
8.89335e-06
8.89335e-06
8.89335e-06
8.89335e-06
8.89335e-06
8.89335e-06
8.89335e-06
8.89335e-06
8.89335e-06
8.89335e-06
8.89334e-06
8.89311e-06
8.88782e-06
)
;
    }
    top
    {
        type            symmetryPlane;
        value           uniform 0;
    }
    walls
    {
        type            fixedValue;
        value           uniform 0;
    }
    frontAndBackPlanes
    {
        type            empty;
        value           nonuniform 0();
    }
}


// ************************************************************************* //
