/*--------------------------------*- C++ -*----------------------------------*\
| =========                 |                                                 |
| \\      /  F ield         | OpenFOAM: The Open Source CFD Toolbox           |
|  \\    /   O peration     | Version:  2.4.x                                 |
|   \\  /    A nd           | Web:      www.OpenFOAM.org                      |
|    \\/     M anipulation  |                                                 |
\*---------------------------------------------------------------------------*/
FoamFile
{
    version     2.0;
    format      ascii;
    class       volScalarField;
    location    "8.4";
    object      Theta_0;
}
// * * * * * * * * * * * * * * * * * * * * * * * * * * * * * * * * * * * * * //

dimensions      [0 2 -2 0 0 0 0];

internalField   nonuniform List<scalar> 
360
(
6.66189e-21
6.66308e-21
6.66262e-21
6.66256e-21
6.66271e-21
6.66281e-21
6.66284e-21
6.66286e-21
6.66287e-21
6.66289e-21
6.6629e-21
6.66291e-21
6.66291e-21
6.66292e-21
6.66292e-21
6.66291e-21
6.66291e-21
6.6629e-21
6.66289e-21
6.66287e-21
6.66286e-21
6.66284e-21
6.66282e-21
6.6628e-21
6.66278e-21
6.66276e-21
6.66274e-21
6.66271e-21
6.66269e-21
6.66267e-21
6.66265e-21
6.66263e-21
6.66261e-21
6.66259e-21
6.66257e-21
6.66255e-21
6.66253e-21
6.66251e-21
6.6625e-21
6.66248e-21
6.66247e-21
6.66245e-21
6.66244e-21
6.66243e-21
6.66242e-21
6.66241e-21
6.6624e-21
6.66238e-21
6.66238e-21
6.66237e-21
6.66236e-21
6.66235e-21
6.66234e-21
6.66233e-21
6.66232e-21
6.66232e-21
6.66231e-21
6.6623e-21
6.66229e-21
6.66228e-21
6.66227e-21
6.66226e-21
6.66226e-21
6.66225e-21
6.66224e-21
6.66223e-21
6.66222e-21
6.66221e-21
6.6622e-21
6.66219e-21
6.66218e-21
6.66217e-21
6.66215e-21
6.66214e-21
6.66213e-21
6.66212e-21
6.66211e-21
6.66209e-21
6.66208e-21
6.66207e-21
6.66205e-21
6.66204e-21
6.66202e-21
6.66201e-21
6.66199e-21
6.66198e-21
6.66196e-21
6.66195e-21
6.66193e-21
6.66192e-21
6.6619e-21
6.66189e-21
6.66187e-21
6.66185e-21
6.66184e-21
6.66182e-21
6.66181e-21
6.66179e-21
6.66178e-21
6.66176e-21
6.66175e-21
6.66173e-21
6.66172e-21
6.6617e-21
6.66169e-21
6.66167e-21
6.66166e-21
6.66165e-21
6.66163e-21
6.66162e-21
6.66161e-21
6.6616e-21
6.66159e-21
6.66158e-21
6.66158e-21
6.66157e-21
6.66157e-21
6.66157e-21
6.66157e-21
6.66156e-21
6.66156e-21
6.66156e-21
6.66156e-21
6.66156e-21
6.66155e-21
6.66155e-21
6.66154e-21
6.66153e-21
6.66152e-21
6.66152e-21
6.66151e-21
6.66151e-21
6.66151e-21
7.7973e-21
6.77062e-20
9.58575e-19
1.48965e-17
2.54925e-16
4.85292e-15
1.03342e-13
2.46963e-12
6.71864e-11
3.25517e-09
3.99239e-07
1.61609e-05
0.000202198
0.00146977
0.00367354
0.00512685
0.00598632
0.00649728
0.00688263
0.00714989
0.00732273
0.00741884
0.00745043
0.00742605
0.00735111
0.00722946
0.00706535
0.00686263
0.00662562
0.00635949
0.00607028
0.00576492
0.00545087
0.00513605
0.00482824
0.00453472
0.0042616
0.00401337
0.00379243
0.00359904
0.00343154
0.00328699
0.00316194
0.00305307
0.00295751
0.00287294
0.00279754
0.00272983
0.00266862
0.00261295
0.00256201
0.00251512
0.00247171
0.00243129
0.00239344
0.00235781
0.00232407
0.00229195
0.00226121
0.00223165
0.00220306
0.00217531
0.00214823
0.00212171
0.00209564
0.00206991
0.00204446
0.00201919
0.0019938
0.00196797
0.00194163
0.00191473
0.00188719
0.00185897
0.00182999
0.00180018
0.0017695
0.00173786
0.00170521
0.00167148
0.0016366
0.00160049
0.0015631
0.00152434
0.00148413
0.00144238
0.00139901
0.0013539
0.00130695
0.00125802
0.00120696
0.0011536
0.00109773
0.00103911
0.000977445
0.000912355
0.000843367
0.000769855
0.000690961
0.000605441
0.000511353
0.000405275
0.000279753
0
0
0
0
0
0
0
0
0
0
0
0
0
0
0
0
0
0
0
0
0
0
0
0
0
0
0
0
0
0
0
0
0
0
0
0
0
0
0
0
0
0
0
0
0
0
0
0
0
0
0
0
0
0
0
0
0
0
0
0
0
0
0
0
0
0
0
0
0
0
0
0
0
0
0
0
0
0
0
0
0
0
0
0
0
0
0
0
0
0
0
0
0
0
0
0
0
0
0
0
0
0
0
0
0
0
0
0
0
0
0
0
0
0
0
0
0
0
0
0
0
0
0
0
)
;

boundaryField
{
    inandouthalf11
    {
        type            cyclic;
    }
    inandouthalf12
    {
        type            cyclic;
    }
    inandouthalf21
    {
        type            cyclic;
    }
    inandouthalf22
    {
        type            cyclic;
    }
    inandouthalf31
    {
        type            cyclic;
    }
    inandouthalf32
    {
        type            cyclic;
    }
    inandouthalf41
    {
        type            cyclic;
    }
    inandouthalf42
    {
        type            cyclic;
    }
    top
    {
        type            symmetryPlane;
    }
    walls
    {
        type            zeroGradient;
    }
    frontAndBackPlanes
    {
        type            empty;
    }
}


// ************************************************************************* //
