/*--------------------------------*- C++ -*----------------------------------*\
| =========                 |                                                 |
| \\      /  F ield         | OpenFOAM: The Open Source CFD Toolbox           |
|  \\    /   O peration     | Version:  2.4.x                                 |
|   \\  /    A nd           | Web:      www.OpenFOAM.org                      |
|    \\/     M anipulation  |                                                 |
\*---------------------------------------------------------------------------*/
FoamFile
{
    version     2.0;
    format      ascii;
    class       volScalarField;
    location    "8.4";
    object      Theta;
}
// * * * * * * * * * * * * * * * * * * * * * * * * * * * * * * * * * * * * * //

dimensions      [0 2 -2 0 0 0 0];

internalField   nonuniform List<scalar> 
360
(
6.66189e-21
6.66308e-21
6.66262e-21
6.66256e-21
6.66271e-21
6.66281e-21
6.66284e-21
6.66286e-21
6.66287e-21
6.66289e-21
6.6629e-21
6.66291e-21
6.66291e-21
6.66292e-21
6.66292e-21
6.66291e-21
6.66291e-21
6.6629e-21
6.66289e-21
6.66287e-21
6.66286e-21
6.66284e-21
6.66282e-21
6.6628e-21
6.66278e-21
6.66276e-21
6.66274e-21
6.66271e-21
6.66269e-21
6.66267e-21
6.66265e-21
6.66263e-21
6.66261e-21
6.66259e-21
6.66257e-21
6.66255e-21
6.66253e-21
6.66251e-21
6.6625e-21
6.66248e-21
6.66247e-21
6.66245e-21
6.66244e-21
6.66243e-21
6.66242e-21
6.66241e-21
6.6624e-21
6.66238e-21
6.66237e-21
6.66237e-21
6.66236e-21
6.66235e-21
6.66234e-21
6.66233e-21
6.66232e-21
6.66232e-21
6.66231e-21
6.6623e-21
6.66229e-21
6.66228e-21
6.66227e-21
6.66226e-21
6.66226e-21
6.66225e-21
6.66224e-21
6.66223e-21
6.66222e-21
6.66221e-21
6.6622e-21
6.66219e-21
6.66218e-21
6.66216e-21
6.66215e-21
6.66214e-21
6.66213e-21
6.66212e-21
6.66211e-21
6.66209e-21
6.66208e-21
6.66207e-21
6.66205e-21
6.66204e-21
6.66202e-21
6.66201e-21
6.66199e-21
6.66198e-21
6.66196e-21
6.66195e-21
6.66193e-21
6.66192e-21
6.6619e-21
6.66189e-21
6.66187e-21
6.66185e-21
6.66184e-21
6.66182e-21
6.66181e-21
6.66179e-21
6.66178e-21
6.66176e-21
6.66175e-21
6.66173e-21
6.66172e-21
6.6617e-21
6.66169e-21
6.66167e-21
6.66166e-21
6.66165e-21
6.66163e-21
6.66162e-21
6.66161e-21
6.6616e-21
6.66159e-21
6.66158e-21
6.66158e-21
6.66157e-21
6.66157e-21
6.66157e-21
6.66157e-21
6.66156e-21
6.66156e-21
6.66156e-21
6.66156e-21
6.66156e-21
6.66155e-21
6.66155e-21
6.66154e-21
6.66153e-21
6.66152e-21
6.66151e-21
6.66151e-21
6.66151e-21
6.66151e-21
7.81077e-21
6.79711e-20
9.62498e-19
1.49603e-17
2.56077e-16
4.87596e-15
1.0385e-13
2.48195e-12
6.75253e-11
3.27781e-09
4.01949e-07
1.62375e-05
0.000202875
0.00147269
0.00367611
0.00512783
0.00598656
0.00649732
0.00688279
0.00715031
0.00732345
0.00741985
0.0074517
0.00742753
0.00735276
0.00723125
0.00706727
0.00686465
0.00662772
0.00636166
0.00607251
0.00576719
0.00545314
0.00513829
0.00483041
0.00453679
0.00426354
0.00401515
0.00379405
0.00360048
0.00343283
0.00328814
0.00316297
0.003054
0.00295835
0.00287372
0.00279825
0.00273049
0.00266923
0.00261352
0.00256254
0.00251561
0.00247217
0.00243173
0.00239386
0.0023582
0.00232444
0.0022923
0.00226155
0.00223196
0.00220337
0.0021756
0.00214851
0.00212198
0.00209589
0.00207016
0.00204469
0.00201942
0.00199402
0.00196818
0.00194184
0.00191493
0.00188739
0.00185915
0.00183017
0.00180036
0.00176967
0.00173803
0.00170537
0.00167163
0.00163675
0.00160064
0.00156324
0.00152448
0.00148426
0.00144251
0.00139913
0.00135402
0.00130706
0.00125813
0.00120706
0.0011537
0.00109783
0.0010392
0.000977531
0.000912434
0.00084344
0.000769922
0.000691021
0.000605494
0.000511397
0.00040531
0.000279778
0
0
0
0
0
0
0
0
0
0
0
0
0
0
0
0
0
0
0
0
0
0
0
0
0
0
0
0
0
0
0
0
0
0
0
0
0
0
0
0
0
0
0
0
0
0
0
0
0
0
0
0
0
0
0
0
0
0
0
0
0
0
0
0
0
0
0
0
0
0
0
0
0
0
0
0
0
0
0
0
0
0
0
0
0
0
0
0
0
0
0
0
0
0
0
0
0
0
0
0
0
0
0
0
0
0
0
0
0
0
0
0
0
0
0
0
0
0
0
0
0
0
0
0
)
;

boundaryField
{
    inandouthalf11
    {
        type            cyclic;
    }
    inandouthalf12
    {
        type            cyclic;
    }
    inandouthalf21
    {
        type            cyclic;
    }
    inandouthalf22
    {
        type            cyclic;
    }
    inandouthalf31
    {
        type            cyclic;
    }
    inandouthalf32
    {
        type            cyclic;
    }
    inandouthalf41
    {
        type            cyclic;
    }
    inandouthalf42
    {
        type            cyclic;
    }
    top
    {
        type            symmetryPlane;
    }
    walls
    {
        type            zeroGradient;
    }
    frontAndBackPlanes
    {
        type            empty;
    }
}


// ************************************************************************* //
