/*--------------------------------*- C++ -*----------------------------------*\
| =========                 |                                                 |
| \\      /  F ield         | OpenFOAM: The Open Source CFD Toolbox           |
|  \\    /   O peration     | Version:  2.4.x                                 |
|   \\  /    A nd           | Web:      www.OpenFOAM.org                      |
|    \\/     M anipulation  |                                                 |
\*---------------------------------------------------------------------------*/
FoamFile
{
    version     2.0;
    format      ascii;
    class       volScalarField;
    location    "8.4";
    object      tmf;
}
// * * * * * * * * * * * * * * * * * * * * * * * * * * * * * * * * * * * * * //

dimensions      [0 0 0 0 0 0 0];

internalField   nonuniform List<scalar> 
360
(
0.999207
0.999209
0.99921
0.999209
0.999209
0.999209
0.999209
0.999209
0.999209
0.999209
0.999209
0.999209
0.999209
0.999209
0.999208
0.999208
0.999208
0.999208
0.999208
0.999208
0.999208
0.999208
0.999208
0.999208
0.999208
0.999208
0.999207
0.999207
0.999207
0.999207
0.999207
0.999207
0.999207
0.999207
0.999207
0.999207
0.999207
0.999206
0.999206
0.999206
0.999206
0.999206
0.999206
0.999206
0.999206
0.999206
0.999205
0.999205
0.999205
0.999205
0.999205
0.999205
0.999205
0.999205
0.999205
0.999204
0.999204
0.999204
0.999204
0.999204
0.999204
0.999204
0.999204
0.999203
0.999203
0.999203
0.999203
0.999203
0.999203
0.999203
0.999202
0.999202
0.999202
0.999202
0.999202
0.999202
0.999201
0.999201
0.999201
0.999201
0.999201
0.999201
0.9992
0.9992
0.9992
0.9992
0.9992
0.999199
0.999199
0.999199
0.999199
0.999199
0.999198
0.999198
0.999198
0.999198
0.999198
0.999197
0.999197
0.999197
0.999197
0.999196
0.999196
0.999196
0.999196
0.999195
0.999195
0.999195
0.999194
0.999194
0.999194
0.999193
0.999193
0.999193
0.999192
0.999192
0.999192
0.999191
0.999191
0.999191
0.99919
0.99919
0.999189
0.999189
0.999188
0.999188
0.999187
0.999187
0.999186
0.999186
0.999185
0.999184
0.999184
0.997929
0.997127
0.996676
0.996136
0.995479
0.994684
0.993721
0.992537
0.991053
0.989156
0.986717
0.983552
0.977998
0.942203
0.902063
0.887911
0.880585
0.872677
0.873773
0.875651
0.878187
0.881242
0.884709
0.888503
0.89256
0.89683
0.901276
0.905874
0.910613
0.915488
0.920501
0.925655
0.930944
0.93635
0.941836
0.94734
0.952782
0.958066
0.963092
0.967768
0.972016
0.975782
0.979041
0.981801
0.984096
0.985979
0.987513
0.988757
0.989767
0.99059
0.991262
0.991816
0.992274
0.992656
0.992975
0.993244
0.993472
0.993665
0.99383
0.993971
0.994091
0.994194
0.994283
0.994359
0.994423
0.994478
0.994525
0.994564
0.994596
0.994622
0.994644
0.99466
0.994671
0.994678
0.994681
0.994679
0.994674
0.994664
0.994651
0.994634
0.994613
0.994589
0.994561
0.994529
0.994494
0.994454
0.994411
0.994364
0.994312
0.994256
0.994195
0.994129
0.994057
0.993979
0.993895
0.993803
0.993704
0.993598
0.993486
0.993373
0.993271
0.993208
0.993231
0.993368
0.99363
0.993722
0.993855
0.993831
0.994204
0.993862
0.994711
0.994241
0.995981
0.996188
0.996298
0.996421
0.996552
0.996691
0.996839
0.996996
0.997163
0.997339
0.997523
0.997715
0.997912
0.998113
0.998314
0.998514
0.998711
0.998912
0.999133
0.999324
0.999402
0.999403
0.999398
0.999393
0.999386
0.999379
0.999359
0.998494
0.994197
0.994197
0.994197
0.994197
0.994197
0.994197
0.994197
0.994197
0.994197
0.994197
0.994197
0.994197
0.994197
0.994197
0.994197
0.994197
0.994197
0.994197
0.994197
0.994197
0.994197
0.994197
0.994197
0.994197
0.994197
0.994197
0.994197
0.994197
0.994197
0.994197
0.994197
0.994197
0.994197
0.994197
0.994197
0.994197
0.994197
0.994197
0.994197
0.994197
0.994197
0.994197
0.994197
0.994197
0.994197
0.994197
0.994197
0.994197
0.994197
0.994197
0.994197
0.994197
0.994197
0.994197
0.994197
0.994197
0.994197
0.994197
0.994197
0.994197
0.994197
0.994197
0.994197
0.994197
0.994197
0.994197
0.994197
0.994197
0.994197
0.994197
0.994197
0.994197
0.994197
0.994197
0.994197
0.994197
0.994197
0.994197
0.994197
0.994197
0.994197
0.994197
0.994197
0.994197
0.994196
0.994181
0.993268
)
;

boundaryField
{
    inandouthalf11
    {
        type            cyclic;
    }
    inandouthalf12
    {
        type            cyclic;
    }
    inandouthalf21
    {
        type            cyclic;
    }
    inandouthalf22
    {
        type            cyclic;
    }
    inandouthalf31
    {
        type            cyclic;
    }
    inandouthalf32
    {
        type            cyclic;
    }
    inandouthalf41
    {
        type            cyclic;
    }
    inandouthalf42
    {
        type            cyclic;
    }
    top
    {
        type            symmetryPlane;
    }
    walls
    {
        type            calculated;
        value           uniform 0;
    }
    frontAndBackPlanes
    {
        type            empty;
    }
}


// ************************************************************************* //
