/*--------------------------------*- C++ -*----------------------------------*\
| =========                 |                                                 |
| \\      /  F ield         | OpenFOAM: The Open Source CFD Toolbox           |
|  \\    /   O peration     | Version:  2.4.x                                 |
|   \\  /    A nd           | Web:      www.OpenFOAM.org                      |
|    \\/     M anipulation  |                                                 |
\*---------------------------------------------------------------------------*/
FoamFile
{
    version     2.0;
    format      ascii;
    class       volVectorField;
    location    "8.4";
    object      U;
}
// * * * * * * * * * * * * * * * * * * * * * * * * * * * * * * * * * * * * * //

dimensions      [0 1 -1 0 0 0 0];

internalField   nonuniform List<vector> 
360
(
(8.44382e-05 9.88879e-09 0)
(8.38173e-05 -1.81284e-09 0)
(8.3749e-05 -1.68233e-09 0)
(8.38467e-05 1.9627e-10 0)
(8.39047e-05 4.72612e-10 0)
(8.39368e-05 1.68414e-10 0)
(8.39718e-05 3.53543e-11 0)
(8.40114e-05 3.18414e-11 0)
(8.40516e-05 3.91585e-11 0)
(8.40923e-05 3.75049e-11 0)
(8.41333e-05 3.02548e-11 0)
(8.41744e-05 1.90153e-11 0)
(8.42157e-05 8.23846e-12 0)
(8.42572e-05 -7.45163e-13 0)
(8.42989e-05 -7.67575e-12 0)
(8.43408e-05 -1.36307e-11 0)
(8.43829e-05 -2.00411e-11 0)
(8.44251e-05 -2.66169e-11 0)
(8.44675e-05 -3.30953e-11 0)
(8.45101e-05 -3.83761e-11 0)
(8.45526e-05 -4.44213e-11 0)
(8.45953e-05 -4.82162e-11 0)
(8.46381e-05 -5.18401e-11 0)
(8.4681e-05 -5.53318e-11 0)
(8.4724e-05 -5.8123e-11 0)
(8.4767e-05 -6.02067e-11 0)
(8.48101e-05 -6.18351e-11 0)
(8.48533e-05 -6.18297e-11 0)
(8.48967e-05 -6.258e-11 0)
(8.494e-05 -6.27217e-11 0)
(8.49834e-05 -6.2566e-11 0)
(8.50271e-05 -6.00015e-11 0)
(8.50706e-05 -6.10686e-11 0)
(8.51146e-05 -5.65971e-11 0)
(8.51584e-05 -5.71693e-11 0)
(8.52025e-05 -5.44538e-11 0)
(8.52466e-05 -5.2647e-11 0)
(8.5291e-05 -5.01903e-11 0)
(8.53357e-05 -4.61939e-11 0)
(8.53801e-05 -4.79361e-11 0)
(8.54253e-05 -4.24406e-11 0)
(8.54704e-05 -4.08184e-11 0)
(8.55155e-05 -4.17691e-11 0)
(8.55613e-05 -3.56519e-11 0)
(8.5607e-05 -3.57187e-11 0)
(8.5653e-05 -3.47614e-11 0)
(8.56995e-05 -3.2086e-11 0)
(8.57458e-05 -3.40736e-11 0)
(8.57927e-05 -3.08845e-11 0)
(8.58402e-05 -2.602e-11 0)
(8.58874e-05 -3.08291e-11 0)
(8.59353e-05 -2.73769e-11 0)
(8.59834e-05 -2.82522e-11 0)
(8.60319e-05 -2.55745e-11 0)
(8.60805e-05 -2.96812e-11 0)
(8.613e-05 -2.42653e-11 0)
(8.61793e-05 -2.99003e-11 0)
(8.62294e-05 -2.76636e-11 0)
(8.62796e-05 -2.83381e-11 0)
(8.633e-05 -3.30626e-11 0)
(8.63814e-05 -2.57487e-11 0)
(8.64327e-05 -3.13374e-11 0)
(8.64848e-05 -2.82413e-11 0)
(8.65371e-05 -3.15276e-11 0)
(8.65899e-05 -3.19967e-11 0)
(8.66431e-05 -3.47226e-11 0)
(8.66969e-05 -3.50338e-11 0)
(8.67511e-05 -3.68331e-11 0)
(8.68058e-05 -3.83617e-11 0)
(8.68607e-05 -4.24216e-11 0)
(8.69166e-05 -3.94434e-11 0)
(8.69729e-05 -3.75304e-11 0)
(8.70293e-05 -4.59378e-11 0)
(8.70868e-05 -4.11607e-11 0)
(8.71446e-05 -4.48798e-11 0)
(8.72032e-05 -4.38353e-11 0)
(8.72621e-05 -4.98079e-11 0)
(8.73217e-05 -5.20555e-11 0)
(8.7382e-05 -5.34176e-11 0)
(8.74429e-05 -5.42815e-11 0)
(8.75044e-05 -5.73749e-11 0)
(8.75666e-05 -5.72622e-11 0)
(8.76296e-05 -5.71492e-11 0)
(8.76932e-05 -5.82937e-11 0)
(8.77577e-05 -5.89022e-11 0)
(8.78229e-05 -6.09716e-11 0)
(8.7889e-05 -6.24073e-11 0)
(8.79558e-05 -6.52959e-11 0)
(8.80234e-05 -6.79734e-11 0)
(8.8092e-05 -6.97053e-11 0)
(8.81615e-05 -7.11542e-11 0)
(8.82318e-05 -7.24253e-11 0)
(8.83033e-05 -7.26466e-11 0)
(8.83757e-05 -7.28929e-11 0)
(8.84492e-05 -7.33271e-11 0)
(8.85239e-05 -7.39522e-11 0)
(8.85997e-05 -7.48654e-11 0)
(8.86767e-05 -7.60884e-11 0)
(8.87549e-05 -7.74523e-11 0)
(8.88345e-05 -7.87118e-11 0)
(8.89154e-05 -7.985e-11 0)
(8.89977e-05 -8.07528e-11 0)
(8.90816e-05 -8.12912e-11 0)
(8.9167e-05 -8.14947e-11 0)
(8.9254e-05 -8.13267e-11 0)
(8.93427e-05 -8.06821e-11 0)
(8.94332e-05 -7.94805e-11 0)
(8.95256e-05 -7.76249e-11 0)
(8.96199e-05 -7.5016e-11 0)
(8.97163e-05 -7.16011e-11 0)
(8.98149e-05 -6.73738e-11 0)
(8.99158e-05 -6.23778e-11 0)
(9.00191e-05 -5.6724e-11 0)
(9.01249e-05 -5.05922e-11 0)
(9.02334e-05 -4.42357e-11 0)
(9.03447e-05 -3.799e-11 0)
(9.0459e-05 -3.2271e-11 0)
(9.05764e-05 -2.75631e-11 0)
(9.0697e-05 -2.4401e-11 0)
(9.08212e-05 -2.33382e-11 0)
(9.0949e-05 -2.48834e-11 0)
(9.10807e-05 -2.93967e-11 0)
(9.12165e-05 -3.69491e-11 0)
(9.13566e-05 -4.71627e-11 0)
(9.15013e-05 -5.90844e-11 0)
(9.16509e-05 -7.11994e-11 0)
(9.18058e-05 -8.16541e-11 0)
(9.19665e-05 -8.86098e-11 0)
(9.21336e-05 -9.04864e-11 0)
(9.23077e-05 -8.60883e-11 0)
(9.24891e-05 -7.49436e-11 0)
(9.26782e-05 -5.80752e-11 0)
(9.28759e-05 -3.54079e-11 0)
(9.30842e-05 9.68552e-13 0)
(9.33053e-05 5.70384e-11 0)
(9.35391e-05 1.0295e-10 0)
(9.37844e-05 8.13613e-11 0)
(9.40448e-05 -5.6943e-11 0)
(9.43331e-05 -3.56302e-10 0)
(9.46629e-05 -7.83307e-10 0)
(9.50198e-05 -1.19985e-09 0)
(9.53638e-05 -2.09563e-09 0)
(9.57737e-05 -3.65227e-09 0)
(9.63008e-05 1.55991e-07 0)
(9.71286e-05 -1.60034e-06 0)
(0.000238705 6.7784e-06 0)
(0.0614317 -4.88322e-05 0)
(0.182694 -0.000115213 0)
(0.291525 -6.84385e-06 0)
(0.385886 -8.30191e-06 0)
(0.468961 -1.86875e-06 0)
(0.542943 -3.64677e-06 0)
(0.609315 -2.99032e-06 0)
(0.669193 -2.63532e-06 0)
(0.723458 -2.48428e-06 0)
(0.772833 -2.39309e-06 0)
(0.817912 -2.29457e-06 0)
(0.859195 -2.15084e-06 0)
(0.8971 -1.95681e-06 0)
(0.931983 -1.73614e-06 0)
(0.964144 -1.49763e-06 0)
(0.993835 -1.25627e-06 0)
(1.02127 -1.02675e-06 0)
(1.04663 -8.18463e-07 0)
(1.07005 -6.3783e-07 0)
(1.09165 -4.8559e-07 0)
(1.11152 -3.60778e-07 0)
(1.12971 -2.59019e-07 0)
(1.14627 -1.74348e-07 0)
(1.16121 -1.00053e-07 0)
(1.17454 -3.57221e-08 0)
(1.18626 8.76341e-09 0)
(1.19639 2.54289e-08 0)
(1.20499 2.40636e-08 0)
(1.21212 2.26344e-08 0)
(1.21793 2.63254e-08 0)
(1.22256 2.85653e-08 0)
(1.2262 2.53613e-08 0)
(1.22902 1.90011e-08 0)
(1.23117 1.29078e-08 0)
(1.23279 8.50522e-09 0)
(1.23398 5.67849e-09 0)
(1.23482 3.90448e-09 0)
(1.2354 2.76474e-09 0)
(1.23574 2.0073e-09 0)
(1.2359 1.48661e-09 0)
(1.23591 1.12055e-09 0)
(1.23578 8.56684e-10 0)
(1.23554 6.62039e-10 0)
(1.23521 5.16124e-10 0)
(1.23479 4.04993e-10 0)
(1.23429 3.19196e-10 0)
(1.23373 2.52239e-10 0)
(1.23311 1.99548e-10 0)
(1.23243 1.57798e-10 0)
(1.2317 1.24452e-10 0)
(1.23093 9.76245e-11 0)
(1.23012 7.60615e-11 0)
(1.22927 5.8768e-11 0)
(1.22838 4.58223e-11 0)
(1.22746 3.43428e-11 0)
(1.2265 2.58729e-11 0)
(1.22549 1.83658e-11 0)
(1.22444 1.22069e-11 0)
(1.22333 7.80612e-12 0)
(1.22217 3.86375e-12 0)
(1.22096 5.61725e-13 0)
(1.2197 -2.87124e-12 0)
(1.21839 -5.064e-12 0)
(1.21703 -7.35159e-12 0)
(1.21561 -8.50743e-12 0)
(1.21415 -7.35206e-12 0)
(1.21263 -8.25467e-12 0)
(1.21106 -1.17423e-11 0)
(1.20943 -9.69544e-12 0)
(1.20776 -5.75758e-12 0)
(1.20603 -6.95599e-12 0)
(1.20425 -7.01493e-12 0)
(1.20242 -4.90851e-12 0)
(1.20053 -3.85629e-13 0)
(1.1986 1.11026e-12 0)
(1.19661 -1.89211e-12 0)
(1.19457 1.71506e-12 0)
(1.19248 4.21646e-12 0)
(1.19035 2.71967e-12 0)
(1.18816 3.06166e-12 0)
(1.18593 4.58189e-12 0)
(1.18365 3.72883e-12 0)
(1.18133 5.78085e-12 0)
(1.17896 1.33192e-12 0)
(1.17655 7.92263e-12 0)
(1.17411 2.68178e-12 0)
(1.17162 1.27761e-11 0)
(1.16911 -2.61361e-11 0)
(1.16656 2.663e-11 0)
(1.16398 1.8719e-11 0)
(1.16138 -3.18357e-11 0)
(1.15875 2.67644e-11 0)
(1.15611 -5.37229e-12 0)
(1.15346 3.28746e-11 0)
(1.1508 -4.96198e-11 0)
(1.14815 7.87111e-11 0)
(1.1455 -7.22418e-11 0)
(1.14287 7.98511e-11 0)
(1.14026 -7.37453e-12 0)
(1.13768 1.26734e-11 0)
(1.13516 2.96613e-12 0)
(1.13268 1.56392e-12 0)
(1.13029 1.94926e-12 0)
(1.12798 2.10147e-12 0)
(1.12577 2.03583e-12 0)
(1.12369 1.94764e-12 0)
(1.12175 1.86658e-12 0)
(1.11998 1.75158e-12 0)
(1.11841 1.65842e-12 0)
(1.11705 2.03638e-12 0)
(1.11594 3.96562e-12 0)
(1.11509 -1.24552e-11 0)
(1.11451 3.92081e-11 0)
(1.11423 -7.55249e-11 0)
(1.11423 1.3314e-10 0)
(1.11448 -2.02272e-10 0)
(1.11494 2.90563e-10 0)
(1.11551 -3.87144e-10 0)
(1.11594 4.96044e-10 0)
(1.11602 -6.06982e-10 0)
(1.11603 7.2431e-10 0)
(1.11603 -8.41429e-10 0)
(1.11603 9.63946e-10 0)
(1.11603 -1.08673e-09 0)
(1.11603 1.21485e-09 0)
(1.11603 -1.34376e-09 0)
(1.11603 1.47795e-09 0)
(1.11603 -1.6134e-09 0)
(1.11603 1.75409e-09 0)
(1.11603 -1.89645e-09 0)
(1.11603 2.04401e-09 0)
(1.11603 -2.19361e-09 0)
(1.11603 2.34835e-09 0)
(1.11603 -2.5055e-09 0)
(1.11603 2.66769e-09 0)
(1.11603 -2.83265e-09 0)
(1.11603 3.00255e-09 0)
(1.11603 -3.17553e-09 0)
(1.11603 3.35337e-09 0)
(1.11603 -3.53456e-09 0)
(1.11603 3.72054e-09 0)
(1.11603 -3.91013e-09 0)
(1.11603 4.10439e-09 0)
(1.11603 -4.3025e-09 0)
(1.11603 4.5052e-09 0)
(1.11603 -4.71195e-09 0)
(1.11603 4.92322e-09 0)
(1.11603 -5.13868e-09 0)
(1.11603 5.35862e-09 0)
(1.11603 -5.58287e-09 0)
(1.11603 5.81155e-09 0)
(1.11603 -6.04465e-09 0)
(1.11603 6.28208e-09 0)
(1.11603 -6.52403e-09 0)
(1.11603 6.77023e-09 0)
(1.11603 -7.02101e-09 0)
(1.11603 7.27595e-09 0)
(1.11603 -7.53549e-09 0)
(1.11603 7.79911e-09 0)
(1.11603 -8.0673e-09 0)
(1.11603 8.33945e-09 0)
(1.11603 -8.61613e-09 0)
(1.11603 8.89664e-09 0)
(1.11603 -9.18157e-09 0)
(1.11603 8.3145e-09 0)
(1.11603 -8.41501e-09 0)
(1.11603 8.51414e-09 0)
(1.11603 -8.61252e-09 0)
(1.11603 8.70948e-09 0)
(1.11603 -8.80569e-09 0)
(1.11603 8.90045e-09 0)
(1.11603 -8.99444e-09 0)
(1.11603 9.08695e-09 0)
(1.11603 -9.17868e-09 0)
(1.11603 9.2689e-09 0)
(1.11603 -9.3583e-09 0)
(1.11603 9.44618e-09 0)
(1.11603 -9.5332e-09 0)
(1.11603 9.61867e-09 0)
(1.11603 -9.70326e-09 0)
(1.11603 9.78625e-09 0)
(1.11603 -9.86833e-09 0)
(1.11603 9.94878e-09 0)
(1.11603 -1.00284e-08 0)
(1.11603 1.0106e-08 0)
(1.11603 -1.01833e-08 0)
(1.11603 1.02578e-08 0)
(1.11603 -1.03328e-08 0)
(1.11603 1.04042e-08 0)
(1.11603 -1.04766e-08 0)
(1.11603 1.05447e-08 0)
(1.11603 -1.06146e-08 0)
(1.11603 1.06793e-08 0)
(1.11603 -1.07465e-08 0)
(1.11603 1.08075e-08 0)
(1.11603 -1.0872e-08 0)
(1.11603 1.09291e-08 0)
(1.11603 -1.09907e-08 0)
(1.11603 1.10437e-08 0)
(1.11603 -1.11025e-08 0)
(1.11603 1.11506e-08 0)
(1.11603 -1.12066e-08 0)
(1.11603 1.12495e-08 0)
(1.11603 -1.13024e-08 0)
(1.11603 1.13397e-08 0)
(1.11603 -1.13891e-08 0)
(1.11603 1.14201e-08 0)
(1.11603 -1.14662e-08 0)
(1.11603 1.1489e-08 0)
(1.11603 -1.1531e-08 0)
(1.11603 1.15453e-08 0)
(1.11603 -1.1581e-08 0)
(1.11603 1.15839e-08 0)
(1.11603 -1.16047e-08 0)
)
;

boundaryField
{
    inandouthalf11
    {
        type            cyclic;
    }
    inandouthalf12
    {
        type            cyclic;
    }
    inandouthalf21
    {
        type            cyclic;
    }
    inandouthalf22
    {
        type            cyclic;
    }
    inandouthalf31
    {
        type            cyclic;
    }
    inandouthalf32
    {
        type            cyclic;
    }
    inandouthalf41
    {
        type            cyclic;
    }
    inandouthalf42
    {
        type            cyclic;
    }
    top
    {
        type            symmetryPlane;
    }
    walls
    {
        type            calculated;
        value           uniform (0 0 0);
    }
    frontAndBackPlanes
    {
        type            empty;
    }
}


// ************************************************************************* //
