/*--------------------------------*- C++ -*----------------------------------*\
| =========                 |                                                 |
| \\      /  F ield         | OpenFOAM: The Open Source CFD Toolbox           |
|  \\    /   O peration     | Version:  2.4.x                                 |
|   \\  /    A nd           | Web:      www.OpenFOAM.org                      |
|    \\/     M anipulation  |                                                 |
\*---------------------------------------------------------------------------*/
FoamFile
{
    version     2.0;
    format      ascii;
    class       volVectorField;
    location    "8.4";
    object      Ua;
}
// * * * * * * * * * * * * * * * * * * * * * * * * * * * * * * * * * * * * * //

dimensions      [0 1 -1 0 0 0 0];

internalField   nonuniform List<vector> 
360
(
(1.96717e-32 -9.95568e-32 0)
(1.70199e-08 -6.05226e-08 0)
(3.5767e-08 -1.09314e-07 0)
(5.28695e-08 -1.52999e-07 0)
(7.04731e-08 -1.99699e-07 0)
(8.89638e-08 -2.49058e-07 0)
(1.07855e-07 -2.99258e-07 0)
(1.26882e-07 -3.49744e-07 0)
(1.46e-07 -4.00499e-07 0)
(1.65208e-07 -4.51535e-07 0)
(1.84501e-07 -5.02839e-07 0)
(2.03858e-07 -5.5436e-07 0)
(2.23254e-07 -6.06023e-07 0)
(2.42664e-07 -6.57759e-07 0)
(2.62064e-07 -7.09509e-07 0)
(2.81438e-07 -7.6123e-07 0)
(3.0077e-07 -8.12882e-07 0)
(3.20044e-07 -8.64422e-07 0)
(3.39245e-07 -9.15805e-07 0)
(3.58358e-07 -9.66994e-07 0)
(3.77368e-07 -1.01795e-06 0)
(3.96262e-07 -1.06863e-06 0)
(4.15031e-07 -1.11902e-06 0)
(4.33667e-07 -1.16909e-06 0)
(4.5216e-07 -1.21881e-06 0)
(4.70505e-07 -1.26817e-06 0)
(4.88697e-07 -1.31716e-06 0)
(5.06733e-07 -1.36576e-06 0)
(5.24613e-07 -1.41397e-06 0)
(5.42335e-07 -1.46179e-06 0)
(5.599e-07 -1.50922e-06 0)
(5.7731e-07 -1.55626e-06 0)
(5.94567e-07 -1.60292e-06 0)
(6.11677e-07 -1.6492e-06 0)
(6.28643e-07 -1.69513e-06 0)
(6.45469e-07 -1.74071e-06 0)
(6.62159e-07 -1.78594e-06 0)
(6.78721e-07 -1.83085e-06 0)
(6.95161e-07 -1.87546e-06 0)
(7.11483e-07 -1.91976e-06 0)
(7.27693e-07 -1.96379e-06 0)
(7.43798e-07 -2.00755e-06 0)
(7.59801e-07 -2.05106e-06 0)
(7.75707e-07 -2.09432e-06 0)
(7.91525e-07 -2.13737e-06 0)
(8.07257e-07 -2.1802e-06 0)
(8.22908e-07 -2.22283e-06 0)
(8.38477e-07 -2.26526e-06 0)
(8.53969e-07 -2.30749e-06 0)
(8.69391e-07 -2.34955e-06 0)
(8.84745e-07 -2.39145e-06 0)
(9.00031e-07 -2.43317e-06 0)
(9.15252e-07 -2.47474e-06 0)
(9.30409e-07 -2.51614e-06 0)
(9.45502e-07 -2.5574e-06 0)
(9.60533e-07 -2.59849e-06 0)
(9.75502e-07 -2.63944e-06 0)
(9.90408e-07 -2.68023e-06 0)
(1.00525e-06 -2.72086e-06 0)
(1.02002e-06 -2.76131e-06 0)
(1.03473e-06 -2.8016e-06 0)
(1.04937e-06 -2.84173e-06 0)
(1.06394e-06 -2.88169e-06 0)
(1.07845e-06 -2.92149e-06 0)
(1.09289e-06 -2.96111e-06 0)
(1.10725e-06 -3.00055e-06 0)
(1.12154e-06 -3.0398e-06 0)
(1.13576e-06 -3.07885e-06 0)
(1.14988e-06 -3.11769e-06 0)
(1.16392e-06 -3.15629e-06 0)
(1.17788e-06 -3.19467e-06 0)
(1.19174e-06 -3.23283e-06 0)
(1.20552e-06 -3.27076e-06 0)
(1.2192e-06 -3.30844e-06 0)
(1.23279e-06 -3.34588e-06 0)
(1.24628e-06 -3.38307e-06 0)
(1.25967e-06 -3.42001e-06 0)
(1.27295e-06 -3.45666e-06 0)
(1.28613e-06 -3.49301e-06 0)
(1.29918e-06 -3.52906e-06 0)
(1.31212e-06 -3.56478e-06 0)
(1.32493e-06 -3.60019e-06 0)
(1.33762e-06 -3.63526e-06 0)
(1.35018e-06 -3.67001e-06 0)
(1.36262e-06 -3.70443e-06 0)
(1.37494e-06 -3.73851e-06 0)
(1.38712e-06 -3.77224e-06 0)
(1.39917e-06 -3.80562e-06 0)
(1.41109e-06 -3.83863e-06 0)
(1.42285e-06 -3.87125e-06 0)
(1.43448e-06 -3.90347e-06 0)
(1.44595e-06 -3.93529e-06 0)
(1.45727e-06 -3.9667e-06 0)
(1.46844e-06 -3.9977e-06 0)
(1.47946e-06 -4.0283e-06 0)
(1.49033e-06 -4.05848e-06 0)
(1.50105e-06 -4.08826e-06 0)
(1.51162e-06 -4.11762e-06 0)
(1.52203e-06 -4.14657e-06 0)
(1.53229e-06 -4.17509e-06 0)
(1.54239e-06 -4.20318e-06 0)
(1.55233e-06 -4.23083e-06 0)
(1.56212e-06 -4.25806e-06 0)
(1.57175e-06 -4.28485e-06 0)
(1.58122e-06 -4.31121e-06 0)
(1.59053e-06 -4.33714e-06 0)
(1.5997e-06 -4.36265e-06 0)
(1.60872e-06 -4.38776e-06 0)
(1.6176e-06 -4.41249e-06 0)
(1.62636e-06 -4.43685e-06 0)
(1.63499e-06 -4.46088e-06 0)
(1.64351e-06 -4.4846e-06 0)
(1.65194e-06 -4.50807e-06 0)
(1.66029e-06 -4.53131e-06 0)
(1.66858e-06 -4.55439e-06 0)
(1.67683e-06 -4.57735e-06 0)
(1.68505e-06 -4.60024e-06 0)
(1.69327e-06 -4.6231e-06 0)
(1.70149e-06 -4.64599e-06 0)
(1.70972e-06 -4.66893e-06 0)
(1.71799e-06 -4.69194e-06 0)
(1.72627e-06 -4.71503e-06 0)
(1.73457e-06 -4.73817e-06 0)
(1.74288e-06 -4.76134e-06 0)
(1.75118e-06 -4.78449e-06 0)
(1.75944e-06 -4.80756e-06 0)
(1.76766e-06 -4.8305e-06 0)
(1.77581e-06 -4.85326e-06 0)
(1.78389e-06 -4.87584e-06 0)
(1.79192e-06 -4.89826e-06 0)
(1.7999e-06 -4.92059e-06 0)
(1.80788e-06 -4.9429e-06 0)
(1.81591e-06 -4.96537e-06 0)
(1.82409e-06 -4.98826e-06 0)
(1.83253e-06 -5.01195e-06 0)
(1.84136e-06 -5.03682e-06 0)
(1.85064e-06 -5.06309e-06 0)
(1.86039e-06 -5.09079e-06 0)
(1.8705e-06 -5.11981e-06 0)
(1.88051e-06 -5.14916e-06 0)
(1.88916e-06 -5.17532e-06 0)
(1.89484e-06 -5.19276e-06 0)
(1.89734e-06 -5.2004e-06 0)
(1.89799e-06 -5.20223e-06 0)
(1.89813e-06 -5.20239e-06 0)
(1.89833e-06 -5.20238e-06 0)
(0.0577147 0.000349441 0)
(0.173884 0.00249808 0)
(0.282292 0.00323453 0)
(0.37695 0.0037061 0)
(0.460221 0.00412894 0)
(0.534626 0.00450757 0)
(0.601366 0.00495853 0)
(0.661503 0.00546536 0)
(0.715917 0.00602014 0)
(0.765333 0.00661316 0)
(0.810353 0.00723264 0)
(0.851479 0.0078658 0)
(0.889132 0.00849981 0)
(0.923663 0.00912248 0)
(0.955359 0.0097235 0)
(0.984454 0.0102949 0)
(1.01113 0.0108315 0)
(1.03553 0.0113308 0)
(1.05775 0.0117921 0)
(1.07786 0.0122151 0)
(1.09591 0.0125995 0)
(1.11194 0.0129434 0)
(1.126 0.0132433 0)
(1.13813 0.013493 0)
(1.14844 0.0136808 0)
(1.15703 0.0137865 0)
(1.16409 0.0137817 0)
(1.16979 0.0136421 0)
(1.17435 0.0133637 0)
(1.17796 0.0129689 0)
(1.18082 0.0124976 0)
(1.18307 0.0119907 0)
(1.18482 0.0114801 0)
(1.18617 0.0109865 0)
(1.18718 0.0105209 0)
(1.18791 0.0100881 0)
(1.18841 0.00968953 0)
(1.1887 0.00932449 0)
(1.18882 0.00899147 0)
(1.1888 0.00868854 0)
(1.18865 0.00841366 0)
(1.1884 0.00816486 0)
(1.18806 0.00794025 0)
(1.18764 0.00773809 0)
(1.18715 0.00755678 0)
(1.18661 0.00739485 0)
(1.18603 0.00725096 0)
(1.18541 0.00712389 0)
(1.18477 0.0070125 0)
(1.1841 0.00691575 0)
(1.18342 0.00683267 0)
(1.18274 0.00676234 0)
(1.18205 0.00670391 0)
(1.18137 0.00665653 0)
(1.1807 0.00661939 0)
(1.18003 0.00659141 0)
(1.17937 0.0065719 0)
(1.17871 0.00656047 0)
(1.17805 0.00655669 0)
(1.1774 0.00656003 0)
(1.17676 0.00656987 0)
(1.17612 0.0065855 0)
(1.1755 0.00660617 0)
(1.17488 0.00663103 0)
(1.17428 0.00665923 0)
(1.17369 0.0066899 0)
(1.17311 0.00672213 0)
(1.17255 0.00675508 0)
(1.172 0.00678797 0)
(1.17146 0.00682015 0)
(1.17094 0.00685102 0)
(1.17043 0.00688007 0)
(1.16993 0.00690694 0)
(1.16945 0.00693138 0)
(1.16898 0.00695316 0)
(1.16852 0.00697205 0)
(1.16808 0.00698791 0)
(1.16765 0.00700067 0)
(1.16723 0.00701022 0)
(1.16683 0.00701644 0)
(1.16643 0.00701936 0)
(1.16606 0.007019 0)
(1.1657 0.00701549 0)
(1.16535 0.00700892 0)
(1.16503 0.00699982 0)
(1.16473 0.00698858 0)
(1.16446 0.0069762 0)
(1.16423 0.0069621 0)
(1.16405 0.00695609 0)
(1.16394 0.00696879 0)
(1.16386 0.0069923 0)
(1.15352 0.00729418 0)
(1.15031 0.0068837 0)
(1.14766 0.00736157 0)
(1.14482 0.00556438 0)
(1.14245 0.00926687 0)
(1.13937 0.00190533 0)
(1.13745 0.0133467 0)
(1.13413 -0.0041583 0)
(1.13296 -0.0364746 0)
(1.13039 -0.039734 0)
(1.1279 -0.039564 0)
(1.12553 -0.0395759 0)
(1.12325 -0.0395742 0)
(1.12108 -0.0395727 0)
(1.11904 -0.0395707 0)
(1.11714 -0.039568 0)
(1.11542 -0.0395647 0)
(1.1139 -0.0395608 0)
(1.1126 -0.0395563 0)
(1.11155 -0.0395513 0)
(1.11075 -0.0395457 0)
(1.11025 -0.0395404 0)
(1.11005 -0.0395358 0)
(1.11009 -0.0395298 0)
(1.11038 -0.0395248 0)
(1.11087 -0.0395198 0)
(1.11145 -0.039513 0)
(1.1118 -0.0395043 0)
(1.11187 -0.0394999 0)
(1.11187 -0.0394992 0)
(1.11187 -0.0394992 0)
(1.11187 -0.0394992 0)
(1.11187 -0.0394992 0)
(1.11187 -0.0394992 0)
(1.11187 -0.0394992 0)
(1.11187 -0.0394992 0)
(1.11187 -0.0394992 0)
(1.11187 -0.0394992 0)
(1.11187 -0.0394992 0)
(1.11187 -0.0394992 0)
(1.11187 -0.0394992 0)
(1.11187 -0.0394992 0)
(1.11187 -0.0394992 0)
(1.11187 -0.0394992 0)
(1.11187 -0.0394992 0)
(1.11187 -0.0394992 0)
(1.11187 -0.0394992 0)
(1.11187 -0.0394992 0)
(1.11187 -0.0394992 0)
(1.11187 -0.0394992 0)
(1.11187 -0.0394992 0)
(1.11187 -0.0394992 0)
(1.11187 -0.0394992 0)
(1.11187 -0.0394992 0)
(1.11187 -0.0394992 0)
(1.11187 -0.0394992 0)
(1.11187 -0.0394992 0)
(1.11187 -0.0394992 0)
(1.11187 -0.0394992 0)
(1.11187 -0.0394992 0)
(1.11187 -0.0394992 0)
(1.11187 -0.0394992 0)
(1.11187 -0.0394992 0)
(1.11187 -0.0394992 0)
(1.11187 -0.0394992 0)
(1.11187 -0.0394992 0)
(1.11187 -0.0394992 0)
(1.11187 -0.0394992 0)
(1.11187 -0.0394992 0)
(1.11187 -0.0394992 0)
(1.11187 -0.0394992 0)
(1.11187 -0.0394992 0)
(1.11187 -0.0394992 0)
(1.11187 -0.0394992 0)
(1.11187 -0.0394992 0)
(1.11187 -0.0394992 0)
(1.11187 -0.0394992 0)
(1.11187 -0.0394992 0)
(1.11187 -0.0394992 0)
(1.11187 -0.0394992 0)
(1.11187 -0.0394992 0)
(1.11187 -0.0394992 0)
(1.11187 -0.0394992 0)
(1.11187 -0.0394992 0)
(1.11187 -0.0394992 0)
(1.11187 -0.0394992 0)
(1.11187 -0.0394992 0)
(1.11187 -0.0394992 0)
(1.11187 -0.0394992 0)
(1.11187 -0.0394992 0)
(1.11187 -0.0394992 0)
(1.11187 -0.0394992 0)
(1.11187 -0.0394992 0)
(1.11187 -0.0394992 0)
(1.11187 -0.0394992 0)
(1.11187 -0.0394992 0)
(1.11187 -0.0394992 0)
(1.11187 -0.0394992 0)
(1.11187 -0.0394992 0)
(1.11187 -0.0394992 0)
(1.11187 -0.0394992 0)
(1.11187 -0.0394992 0)
(1.11187 -0.0394992 0)
(1.11187 -0.0394992 0)
(1.11187 -0.0394992 0)
(1.11187 -0.0394992 0)
(1.11187 -0.0394992 0)
(1.11187 -0.0394992 0)
(1.11187 -0.0394992 0)
(1.11187 -0.0394992 0)
(1.11187 -0.0394992 0)
(1.11187 -0.0394992 0)
(1.11187 -0.0394992 0)
(1.11187 -0.0394992 0)
(1.11187 -0.0394992 0)
(1.11187 -0.0394992 0)
(1.11187 -0.0394992 0)
(1.11187 -0.0394992 0)
(1.11187 -0.0394992 0)
(1.11187 -0.039499 0)
(1.11187 -0.0394905 0)
(1.11184 -0.0391447 0)
(1.11118 -0.0223998 0)
)
;

boundaryField
{
    inandouthalf11
    {
        type            cyclic;
    }
    inandouthalf12
    {
        type            cyclic;
    }
    inandouthalf21
    {
        type            cyclic;
    }
    inandouthalf22
    {
        type            cyclic;
    }
    inandouthalf31
    {
        type            cyclic;
    }
    inandouthalf32
    {
        type            cyclic;
    }
    inandouthalf41
    {
        type            cyclic;
    }
    inandouthalf42
    {
        type            cyclic;
    }
    top
    {
        type            symmetryPlane;
    }
    walls
    {
        type            fixedValue;
        value           uniform (0 0 0);
    }
    frontAndBackPlanes
    {
        type            empty;
    }
}


// ************************************************************************* //
