/*--------------------------------*- C++ -*----------------------------------*\
| =========                 |                                                 |
| \\      /  F ield         | OpenFOAM: The Open Source CFD Toolbox           |
|  \\    /   O peration     | Version:  2.4.x                                 |
|   \\  /    A nd           | Web:      www.OpenFOAM.org                      |
|    \\/     M anipulation  |                                                 |
\*---------------------------------------------------------------------------*/
FoamFile
{
    version     2.0;
    format      ascii;
    class       volScalarField;
    location    "12";
    object      alpha_0;
}
// * * * * * * * * * * * * * * * * * * * * * * * * * * * * * * * * * * * * * //

dimensions      [0 0 0 0 0 0 0];

internalField   nonuniform List<scalar> 
360
(
0.610895
0.611764
0.611853
0.611763
0.611721
0.611707
0.611691
0.611669
0.611646
0.611623
0.6116
0.611577
0.611554
0.611531
0.611507
0.611483
0.611459
0.611435
0.61141
0.611385
0.61136
0.611335
0.611309
0.611283
0.611257
0.611231
0.611204
0.611177
0.61115
0.611123
0.611095
0.611067
0.611038
0.611009
0.610981
0.610951
0.610922
0.610892
0.610861
0.610831
0.6108
0.610768
0.610737
0.610705
0.610672
0.61064
0.610606
0.610573
0.610539
0.610505
0.61047
0.610435
0.610399
0.610363
0.610327
0.61029
0.610253
0.610215
0.610176
0.610138
0.610098
0.610059
0.610018
0.609978
0.609936
0.609894
0.609852
0.609809
0.609765
0.609721
0.609676
0.60963
0.609584
0.609537
0.60949
0.609441
0.609392
0.609342
0.609292
0.60924
0.609188
0.609135
0.609082
0.609027
0.608971
0.608915
0.608857
0.608799
0.608739
0.608678
0.608617
0.608554
0.60849
0.608425
0.608358
0.608291
0.608221
0.608151
0.608079
0.608006
0.607931
0.607854
0.607776
0.607696
0.607614
0.607531
0.607445
0.607358
0.607268
0.607176
0.607082
0.606986
0.606887
0.606785
0.606681
0.606574
0.606464
0.606351
0.606234
0.606114
0.605991
0.605863
0.605732
0.605596
0.605455
0.60531
0.60516
0.605004
0.604842
0.604674
0.604499
0.604317
0.604127
0.603926
0.603713
0.603485
0.603244
0.602987
0.602702
0.602378
0.602028
0.601615
0.598783
0.599204
0.598689
0.597837
0.594193
0.422926
0.283082
0.22792
0.192608
0.162881
0.137003
0.114295
0.0945411
0.0776088
0.0633239
0.0514425
0.0416723
0.0337048
0.0272432
0.02202
0.0178044
0.0144032
0.0116577
0.00943957
0.00764538
0.00619234
0.00501419
0.00405776
0.00328002
0.00264567
0.00212601
0.00169935
0.00135146
0.00107339
0.000857053
0.000692456
0.000568384
0.000474504
0.000402574
0.000346532
0.000302077
0.000266186
0.000236729
0.000212185
0.000191454
0.000173729
0.000158407
0.000145033
0.000133255
0.000122803
0.000113461
0.000105059
9.74594e-05
9.055e-05
8.42395e-05
7.84522e-05
7.3125e-05
6.82052e-05
6.36485e-05
5.93743e-05
5.53214e-05
5.1476e-05
4.78265e-05
4.43631e-05
4.10776e-05
3.79636e-05
3.50155e-05
3.22287e-05
2.95992e-05
2.71232e-05
2.47969e-05
2.2616e-05
2.0576e-05
1.86721e-05
1.68989e-05
1.52509e-05
1.37226e-05
1.23083e-05
1.10027e-05
9.80064e-06
8.69732e-06
7.68807e-06
6.76827e-06
5.93304e-06
5.17658e-06
4.49103e-06
3.86535e-06
3.28529e-06
2.73666e-06
2.21667e-06
1.75307e-06
1.40037e-06
1.17804e-06
1.02022e-06
8.66939e-07
7.22231e-07
5.84971e-07
4.70651e-07
3.75799e-07
2.97411e-07
2.32942e-07
1.80225e-07
1.37414e-07
1.02914e-07
7.53994e-08
5.37439e-08
3.65196e-08
2.41397e-08
1.32948e-08
7.77089e-09
1.02877e-09
9.24851e-21
4.84145e-32
2.93217e-43
2.22787e-54
2.36822e-65
1.90229e-73
1.00305e-73
4.95946e-74
2.48096e-74
1.23012e-74
6.00393e-75
2.88313e-75
1.36151e-75
6.3196e-76
2.88166e-76
1.29016e-76
5.6681e-77
2.44213e-77
1.03124e-77
4.26502e-78
1.72642e-78
6.83449e-79
2.64398e-79
9.98701e-80
3.67996e-80
1.32151e-80
4.61983e-81
1.57039e-81
5.18547e-82
1.66125e-82
5.15661e-83
1.54864e-83
4.49274e-84
1.25693e-84
3.38493e-85
8.75686e-86
2.17142e-86
5.14845e-87
1.16405e-87
2.50219e-88
5.09628e-89
9.79754e-90
1.77022e-90
2.99105e-91
4.69895e-92
6.8174e-93
9.06111e-94
1.0926e-94
1.18096e-95
1.12696e-96
9.30782e-98
6.47611e-99
3.65056e-100
1.56806e-101
4.59488e-103
7.0566e-105
6.45943e-108
3.33101e-115
1.8754e-117
5.21902e-120
2.26786e-130
5.05356e-141
8.57946e-152
1.05952e-162
1.15535e-173
9.63827e-185
6.98356e-196
1.0097e-206
3.97719e-217
2.01987e-225
1.08447e-235
6.94599e-244
4.43837e-254
2.39212e-262
1.88171e-272
8.25397e-281
1.21637e-290
2.9417e-299
8.11086e-309
1.27919e-317
5.8448e-321
7.96928e-321
7.83094e-321
2.51973e-321
8.86848e-321
4.57737e-319
2.8055e-319
6.80328e-321
7.09478e-321
6.08689e-321
8.5424e-321
0
0
0
0
0
0
0
0
0
0
0
0
0
0
0
0
)
;

boundaryField
{
    inandouthalf11
    {
        type            cyclic;
    }
    inandouthalf12
    {
        type            cyclic;
    }
    inandouthalf21
    {
        type            cyclic;
    }
    inandouthalf22
    {
        type            cyclic;
    }
    inandouthalf31
    {
        type            cyclic;
    }
    inandouthalf32
    {
        type            cyclic;
    }
    inandouthalf41
    {
        type            cyclic;
    }
    inandouthalf42
    {
        type            cyclic;
    }
    top
    {
        type            symmetryPlane;
    }
    walls
    {
        type            zeroGradient;
    }
    frontAndBackPlanes
    {
        type            empty;
    }
}


// ************************************************************************* //
