/*--------------------------------*- C++ -*----------------------------------*\
| =========                 |                                                 |
| \\      /  F ield         | OpenFOAM: The Open Source CFD Toolbox           |
|  \\    /   O peration     | Version:  2.4.x                                 |
|   \\  /    A nd           | Web:      www.OpenFOAM.org                      |
|    \\/     M anipulation  |                                                 |
\*---------------------------------------------------------------------------*/
FoamFile
{
    version     2.0;
    format      ascii;
    class       volScalarField;
    location    "12";
    object      alpha;
}
// * * * * * * * * * * * * * * * * * * * * * * * * * * * * * * * * * * * * * //

dimensions      [0 0 0 0 0 0 0];

internalField   nonuniform List<scalar> 
360
(
0.610895
0.611764
0.611853
0.611763
0.611721
0.611707
0.611691
0.611669
0.611646
0.611623
0.6116
0.611577
0.611554
0.611531
0.611507
0.611483
0.611459
0.611435
0.61141
0.611385
0.61136
0.611335
0.611309
0.611283
0.611257
0.611231
0.611204
0.611177
0.61115
0.611123
0.611095
0.611067
0.611038
0.611009
0.610981
0.610951
0.610922
0.610892
0.610861
0.610831
0.6108
0.610768
0.610737
0.610705
0.610672
0.61064
0.610606
0.610573
0.610539
0.610505
0.61047
0.610435
0.610399
0.610363
0.610327
0.61029
0.610253
0.610215
0.610176
0.610138
0.610098
0.610059
0.610018
0.609978
0.609936
0.609894
0.609852
0.609809
0.609765
0.609721
0.609676
0.60963
0.609584
0.609537
0.60949
0.609441
0.609392
0.609342
0.609292
0.60924
0.609188
0.609135
0.609082
0.609027
0.608971
0.608915
0.608857
0.608799
0.608739
0.608678
0.608617
0.608554
0.60849
0.608425
0.608358
0.608291
0.608221
0.608151
0.608079
0.608006
0.607931
0.607854
0.607776
0.607696
0.607614
0.607531
0.607445
0.607358
0.607268
0.607176
0.607082
0.606986
0.606887
0.606785
0.606681
0.606574
0.606464
0.606351
0.606234
0.606114
0.605991
0.605863
0.605732
0.605596
0.605455
0.60531
0.60516
0.605004
0.604842
0.604674
0.604499
0.604317
0.604127
0.603926
0.603713
0.603485
0.603244
0.602987
0.602702
0.602378
0.602028
0.601615
0.598783
0.599204
0.598689
0.597837
0.594193
0.422926
0.283081
0.22792
0.192608
0.162881
0.137002
0.114294
0.0945399
0.0776075
0.0633227
0.0514415
0.0416716
0.0337043
0.0272431
0.0220201
0.0178047
0.0144037
0.0116583
0.00944025
0.00764611
0.0061931
0.00501495
0.00405851
0.00328074
0.00264636
0.00212667
0.00169996
0.00135201
0.00107385
0.00085742
0.000692734
0.000568589
0.000474652
0.000402681
0.000346609
0.000302132
0.000266226
0.000236757
0.000212204
0.000191467
0.000173737
0.000158412
0.000145035
0.000133256
0.000122802
0.000113459
0.000105056
9.74554e-05
9.05456e-05
8.42347e-05
7.84472e-05
7.31199e-05
6.82001e-05
6.36434e-05
5.93693e-05
5.53165e-05
5.14712e-05
4.78218e-05
4.43586e-05
4.10733e-05
3.79595e-05
3.50116e-05
3.2225e-05
2.95957e-05
2.712e-05
2.47939e-05
2.26132e-05
2.05734e-05
1.86697e-05
1.68967e-05
1.52489e-05
1.37208e-05
1.23066e-05
1.10012e-05
9.79927e-06
8.69609e-06
7.68696e-06
6.76727e-06
5.93215e-06
5.17578e-06
4.49032e-06
3.86471e-06
3.28471e-06
2.73612e-06
2.2162e-06
1.7527e-06
1.40012e-06
1.17788e-06
1.02009e-06
8.66828e-07
7.22123e-07
5.84876e-07
4.7057e-07
3.75731e-07
2.97355e-07
2.32896e-07
1.80188e-07
1.37385e-07
1.02892e-07
7.53833e-08
5.37323e-08
3.65115e-08
2.41341e-08
1.32913e-08
7.76856e-09
1.02773e-09
9.21227e-21
4.81072e-32
2.91002e-43
2.20886e-54
2.3468e-65
1.89576e-73
9.99604e-74
4.94204e-74
2.47234e-74
1.22584e-74
5.98305e-75
2.8731e-75
1.35677e-75
6.2976e-76
2.87163e-76
1.28566e-76
5.64835e-77
2.43362e-77
1.02765e-77
4.25015e-78
1.72039e-78
6.81064e-79
2.63475e-79
9.95212e-80
3.6671e-80
1.31689e-80
4.60367e-81
1.5649e-81
5.16732e-82
1.65543e-82
5.13854e-83
1.54321e-83
4.47698e-84
1.25252e-84
3.37305e-85
8.72611e-86
2.16379e-86
5.13036e-87
1.15996e-87
2.49338e-88
5.07834e-89
9.76303e-90
1.76398e-90
2.98051e-91
4.68237e-92
6.79333e-93
9.02909e-94
1.08873e-94
1.17678e-95
1.12296e-96
9.27483e-98
6.45313e-99
3.63759e-100
1.56249e-101
4.57852e-103
7.03144e-105
6.43608e-108
3.31804e-115
1.86806e-117
5.19852e-120
2.25898e-130
5.03388e-141
8.54621e-152
1.05544e-162
1.15093e-173
9.60162e-185
6.9572e-196
1.00581e-206
3.96171e-217
2.01194e-225
1.08023e-235
6.9187e-244
4.42105e-254
2.38273e-262
1.87437e-272
8.22154e-281
1.21162e-290
2.93015e-299
8.07918e-309
1.2792e-317
5.8448e-321
7.96928e-321
7.83094e-321
2.51973e-321
8.86848e-321
4.57737e-319
2.8055e-319
6.80328e-321
7.09478e-321
6.08689e-321
8.5424e-321
0
0
0
0
0
0
0
0
0
0
0
0
0
0
0
0
)
;

boundaryField
{
    inandouthalf11
    {
        type            cyclic;
    }
    inandouthalf12
    {
        type            cyclic;
    }
    inandouthalf21
    {
        type            cyclic;
    }
    inandouthalf22
    {
        type            cyclic;
    }
    inandouthalf31
    {
        type            cyclic;
    }
    inandouthalf32
    {
        type            cyclic;
    }
    inandouthalf41
    {
        type            cyclic;
    }
    inandouthalf42
    {
        type            cyclic;
    }
    top
    {
        type            symmetryPlane;
    }
    walls
    {
        type            zeroGradient;
    }
    frontAndBackPlanes
    {
        type            empty;
    }
}


// ************************************************************************* //
