/*--------------------------------*- C++ -*----------------------------------*\
| =========                 |                                                 |
| \\      /  F ield         | OpenFOAM: The Open Source CFD Toolbox           |
|  \\    /   O peration     | Version:  2.4.x                                 |
|   \\  /    A nd           | Web:      www.OpenFOAM.org                      |
|    \\/     M anipulation  |                                                 |
\*---------------------------------------------------------------------------*/
FoamFile
{
    version     2.0;
    format      ascii;
    class       volScalarField;
    location    "12";
    object      ddt0(((1.5*(alpha+1e-08))*rho),Theta);
}
// * * * * * * * * * * * * * * * * * * * * * * * * * * * * * * * * * * * * * //

dimensions      [1 -1 -3 0 0 0 0];

internalField   nonuniform List<scalar> 
360
(
-9.96202e-24
-2.59988e-23
-1.99114e-23
-1.97671e-23
-2.25736e-23
-2.47431e-23
-2.60876e-23
-2.72958e-23
-2.85459e-23
-2.97693e-23
-3.08776e-23
-3.17933e-23
-3.24691e-23
-3.28818e-23
-3.30227e-23
-3.28909e-23
-3.2485e-23
-3.18103e-23
-3.08881e-23
-2.97449e-23
-2.84109e-23
-2.69268e-23
-2.53322e-23
-2.36632e-23
-2.19574e-23
-2.02488e-23
-1.85704e-23
-1.69516e-23
-1.54126e-23
-1.39703e-23
-1.26402e-23
-1.14304e-23
-1.03455e-23
-9.38806e-24
-8.55492e-24
-7.84163e-24
-7.24336e-24
-6.7535e-24
-6.36246e-24
-6.0614e-24
-5.84266e-24
-5.6963e-24
-5.61372e-24
-5.5879e-24
-5.61083e-24
-5.67537e-24
-5.77443e-24
-5.9019e-24
-6.05504e-24
-6.22877e-24
-6.41721e-24
-6.6175e-24
-6.82775e-24
-7.04427e-24
-7.2651e-24
-7.48868e-24
-7.71261e-24
-7.9355e-24
-8.15483e-24
-8.37045e-24
-8.58381e-24
-8.79298e-24
-8.99694e-24
-9.19451e-24
-9.38422e-24
-9.56643e-24
-9.74196e-24
-9.90901e-24
-1.00646e-23
-1.02113e-23
-1.03535e-23
-1.0487e-23
-1.06085e-23
-1.07221e-23
-1.08296e-23
-1.0927e-23
-1.10115e-23
-1.10842e-23
-1.11475e-23
-1.12007e-23
-1.12429e-23
-1.12766e-23
-1.13026e-23
-1.13202e-23
-1.13292e-23
-1.1329e-23
-1.13187e-23
-1.12973e-23
-1.12649e-23
-1.12226e-23
-1.11711e-23
-1.11115e-23
-1.10454e-23
-1.09731e-23
-1.08949e-23
-1.08107e-23
-1.07205e-23
-1.06239e-23
-1.05216e-23
-1.04142e-23
-1.03026e-23
-1.01881e-23
-1.0072e-23
-9.95525e-24
-9.83912e-24
-9.72456e-24
-9.61254e-24
-9.50398e-24
-9.39944e-24
-9.29956e-24
-9.20431e-24
-9.11335e-24
-9.02563e-24
-8.93962e-24
-8.85321e-24
-8.76377e-24
-8.66817e-24
-8.56372e-24
-8.44793e-24
-8.31945e-24
-8.17901e-24
-8.0291e-24
-7.87529e-24
-7.72621e-24
-7.5937e-24
-7.49257e-24
-7.44009e-24
-7.45395e-24
-7.54892e-24
-7.7315e-24
-7.99159e-24
-8.30918e-24
-7.15043e-20
4.50651e-16
3.52237e-15
2.64334e-14
1.92535e-13
1.36403e-12
9.58188e-12
6.89225e-11
5.17568e-10
3.89979e-09
2.3292e-08
-3.83636e-07
-8.28865e-05
-0.00427913
-0.055728
-0.242946
-0.353111
-0.490278
-0.560566
-0.564744
-0.520181
-0.446343
-0.359223
-0.270251
-0.190121
-0.119985
-0.0634257
-0.0192351
0.0132878
0.0357866
0.050016
0.0577239
0.0602106
0.0591349
0.0554162
0.0502015
0.0441002
0.0378021
0.0316434
0.025952
0.0208737
0.0164709
0.0128038
0.00986997
0.00761106
0.00591522
0.0046566
0.00371761
0.00300886
0.00246479
0.00204051
0.00170431
0.00143441
0.00121503
0.00103488
0.000885643
0.000761093
0.000656471
0.000568098
0.000493089
0.000429154
0.000374454
0.000327501
0.000287078
0.000252183
0.000221987
0.000195797
0.000173037
0.000153216
0.000135752
0.000120211
0.000106394
9.41172e-05
8.32144e-05
7.35367e-05
6.49491e-05
5.7332e-05
5.0577e-05
4.4587e-05
3.92748e-05
3.45625e-05
3.03806e-05
2.66672e-05
2.33672e-05
2.04323e-05
1.782e-05
1.54934e-05
1.34207e-05
1.15738e-05
9.9299e-06
8.46929e-06
7.17427e-06
6.02982e-06
5.02257e-06
4.14007e-06
3.36999e-06
2.69933e-06
2.11428e-06
1.60298e-06
1.16236e-06
8.03846e-07
5.41415e-07
3.60224e-07
2.14752e-07
0
0
0
0
0
0
0
0
0
0
0
0
0
0
0
0
0
0
0
0
0
0
0
0
0
0
0
0
0
0
0
0
0
0
0
0
0
0
0
0
0
0
0
0
0
0
0
0
0
0
0
0
0
0
0
0
0
0
0
0
0
0
0
0
0
0
0
0
0
0
0
0
0
0
0
0
0
0
0
0
0
0
0
0
0
0
0
0
0
0
0
0
0
0
0
0
0
0
0
0
0
0
0
0
0
0
0
0
0
0
0
0
0
0
0
0
0
0
0
0
0
0
0
0
)
;

boundaryField
{
    inandouthalf11
    {
        type            cyclic;
    }
    inandouthalf12
    {
        type            cyclic;
    }
    inandouthalf21
    {
        type            cyclic;
    }
    inandouthalf22
    {
        type            cyclic;
    }
    inandouthalf31
    {
        type            cyclic;
    }
    inandouthalf32
    {
        type            cyclic;
    }
    inandouthalf41
    {
        type            cyclic;
    }
    inandouthalf42
    {
        type            cyclic;
    }
    top
    {
        type            symmetryPlane;
    }
    walls
    {
        type            calculated;
        value           uniform -9.96202e-24;
    }
    frontAndBackPlanes
    {
        type            empty;
    }
}


// ************************************************************************* //
