/*--------------------------------*- C++ -*----------------------------------*\
| =========                 |                                                 |
| \\      /  F ield         | OpenFOAM: The Open Source CFD Toolbox           |
|  \\    /   O peration     | Version:  2.4.x                                 |
|   \\  /    A nd           | Web:      www.OpenFOAM.org                      |
|    \\/     M anipulation  |                                                 |
\*---------------------------------------------------------------------------*/
FoamFile
{
    version     2.0;
    format      ascii;
    class       surfaceScalarField;
    location    "12";
    object      ddt0(phia);
}
// * * * * * * * * * * * * * * * * * * * * * * * * * * * * * * * * * * * * * //

dimensions      [0 3 -2 0 0 0 0];

internalField   nonuniform List<scalar> 
359
(
7.48153e-15
1.87603e-14
2.96442e-14
4.06134e-14
5.22997e-14
6.45969e-14
7.72903e-14
9.02867e-14
1.0354e-13
1.17003e-13
1.30609e-13
1.44271e-13
1.57898e-13
1.714e-13
1.84689e-13
1.97683e-13
2.10302e-13
2.22476e-13
2.34138e-13
2.45238e-13
2.55728e-13
2.65578e-13
2.74764e-13
2.83276e-13
2.91111e-13
2.98278e-13
3.04792e-13
3.10679e-13
3.15968e-13
3.20696e-13
3.24901e-13
3.2863e-13
3.31924e-13
3.34834e-13
3.37405e-13
3.39684e-13
3.41717e-13
3.43548e-13
3.4522e-13
3.46771e-13
3.48241e-13
3.49664e-13
3.5107e-13
3.52492e-13
3.53953e-13
3.55478e-13
3.57089e-13
3.58803e-13
3.60637e-13
3.62605e-13
3.64719e-13
3.66989e-13
3.69422e-13
3.72027e-13
3.74806e-13
3.77766e-13
3.80906e-13
3.84231e-13
3.87738e-13
3.91426e-13
3.95296e-13
3.99345e-13
4.03571e-13
4.07969e-13
4.12536e-13
4.17267e-13
4.22158e-13
4.27203e-13
4.32396e-13
4.37729e-13
4.43201e-13
4.48804e-13
4.5453e-13
4.60375e-13
4.66331e-13
4.72395e-13
4.78555e-13
4.84807e-13
4.91142e-13
4.97554e-13
5.04036e-13
5.10582e-13
5.17186e-13
5.23842e-13
5.30543e-13
5.37285e-13
5.44059e-13
5.5086e-13
5.5768e-13
5.64513e-13
5.71353e-13
5.78194e-13
5.85031e-13
5.9186e-13
5.98677e-13
6.05476e-13
6.12253e-13
6.19003e-13
6.25722e-13
6.32406e-13
6.39052e-13
6.45655e-13
6.52215e-13
6.58729e-13
6.65196e-13
6.71615e-13
6.77988e-13
6.84315e-13
6.90596e-13
6.96835e-13
7.03031e-13
7.09187e-13
7.15303e-13
7.21379e-13
7.27412e-13
7.33399e-13
7.39334e-13
7.45209e-13
7.51015e-13
7.56742e-13
7.6238e-13
7.67924e-13
7.73371e-13
7.78726e-13
7.84002e-13
7.89226e-13
7.94433e-13
7.99672e-13
8.05e-13
8.10471e-13
8.16124e-13
8.21965e-13
8.27941e-13
8.33909e-13
8.39595e-13
8.44587e-13
8.48453e-13
8.50981e-13
8.52325e-13
8.52897e-13
8.53135e-13
8.53101e-13
8.53841e-13
8.54091e-13
8.54267e-13
8.54076e-13
-1.77876e-10
-4.76747e-09
-8.60492e-09
-1.02972e-08
-1.1385e-08
-1.23454e-08
-1.33008e-08
-1.43533e-08
-1.55879e-08
-1.70112e-08
-1.86969e-08
-2.05712e-08
-2.26644e-08
-2.49033e-08
-2.72415e-08
-2.96154e-08
-3.19436e-08
-3.41073e-08
-3.60471e-08
-3.75998e-08
-3.86781e-08
-3.90978e-08
-3.87094e-08
-3.72567e-08
-3.43946e-08
-2.9577e-08
-2.22488e-08
-1.23847e-08
-9.88047e-10
1.02162e-08
1.97877e-08
2.71568e-08
3.24402e-08
3.60361e-08
3.83781e-08
3.98345e-08
4.06876e-08
4.11413e-08
4.13392e-08
4.13801e-08
4.13309e-08
4.12364e-08
4.11257e-08
4.10171e-08
4.09216e-08
4.08451e-08
4.07901e-08
4.07568e-08
4.07443e-08
4.07506e-08
4.07735e-08
4.08105e-08
4.0859e-08
4.09168e-08
4.09815e-08
4.10529e-08
4.11298e-08
4.12111e-08
4.12958e-08
4.13825e-08
4.14702e-08
4.15573e-08
4.16423e-08
4.17232e-08
4.17976e-08
4.18624e-08
4.19139e-08
4.19475e-08
4.19575e-08
4.19375e-08
4.1879e-08
4.178e-08
4.16473e-08
4.14422e-08
4.11334e-08
4.07225e-08
4.01894e-08
3.95143e-08
3.86791e-08
3.76732e-08
3.65056e-08
3.52152e-08
3.38512e-08
3.24381e-08
3.09721e-08
2.94504e-08
2.79663e-08
2.68103e-08
2.61678e-08
2.54227e-08
2.19196e-08
1.86709e-08
1.6183e-08
1.36898e-08
1.11947e-08
8.70421e-09
6.23379e-09
3.79548e-09
1.40767e-09
-9.17866e-10
-3.19249e-09
-5.30024e-09
-8.13253e-09
-1.01622e-08
-1.77427e-08
-6.01828e-08
-1.18923e-07
-2.37092e-08
-4.50144e-10
1.17283e-10
4.48309e-11
1.22761e-11
-2.24266e-11
-5.49826e-11
-8.37357e-11
-1.07038e-10
-1.26212e-10
-1.34992e-10
-1.24064e-10
-1.17256e-10
-1.11419e-10
-9.33648e-11
-7.68631e-11
-6.08015e-11
-4.68713e-11
-3.58347e-11
-2.81191e-11
-2.39369e-11
-2.35669e-11
-2.85456e-11
-3.63726e-11
-9.27558e-11
-5.72269e-11
-2.74376e-11
-2.76729e-11
-2.77553e-11
-2.77569e-11
-2.77568e-11
-2.77569e-11
-2.77568e-11
-2.77569e-11
-2.77568e-11
-2.77568e-11
-2.77567e-11
-2.77567e-11
-2.77565e-11
-2.77566e-11
-2.77564e-11
-2.77564e-11
-2.77562e-11
-2.77562e-11
-2.77561e-11
-2.77561e-11
-2.7756e-11
-2.77561e-11
-2.77559e-11
-2.7756e-11
-2.77558e-11
-2.77559e-11
-2.77558e-11
-2.77558e-11
-2.77557e-11
-2.77557e-11
-2.77556e-11
-2.77557e-11
-2.77556e-11
-2.77556e-11
-2.77555e-11
-2.77555e-11
-2.77555e-11
-2.77555e-11
-2.77554e-11
-2.77555e-11
-2.77555e-11
-2.77555e-11
-2.77554e-11
-2.77554e-11
-2.77555e-11
-2.77554e-11
-2.77554e-11
-2.77554e-11
-2.77554e-11
-2.77542e-11
-2.77534e-11
-2.77524e-11
-2.77523e-11
-2.77511e-11
-2.77513e-11
-2.77513e-11
-2.77527e-11
-2.77514e-11
-2.77518e-11
-2.7752e-11
-2.77541e-11
-2.77545e-11
-2.77567e-11
-2.77587e-11
-2.77621e-11
-2.77639e-11
-2.77664e-11
-2.77689e-11
-2.77712e-11
-2.77742e-11
-2.77757e-11
-2.77775e-11
-2.77773e-11
-2.77826e-11
-2.77834e-11
-2.7785e-11
-2.77812e-11
-2.77979e-11
-2.81569e-11
-4.41597e-11
)
;

boundaryField
{
    inandouthalf11
    {
        type            cyclic;
        value           nonuniform List<scalar> 
100
(
-6.75807e-39
-1.19517e-15
-2.52526e-15
-3.76792e-15
-5.08059e-15
-6.49112e-15
-7.96428e-15
-9.48155e-15
-1.10391e-14
-1.26343e-14
-1.42619e-14
-1.59147e-14
-1.75838e-14
-1.92598e-14
-2.09333e-14
-2.25951e-14
-2.42364e-14
-2.58486e-14
-2.74237e-14
-2.89544e-14
-3.04345e-14
-3.18584e-14
-3.32221e-14
-3.45224e-14
-3.57571e-14
-3.69251e-14
-3.80263e-14
-3.90614e-14
-4.00321e-14
-4.09407e-14
-4.179e-14
-4.25835e-14
-4.33249e-14
-4.40185e-14
-4.46685e-14
-4.52793e-14
-4.58554e-14
-4.64012e-14
-4.69212e-14
-4.74195e-14
-4.79001e-14
-4.8367e-14
-4.88237e-14
-4.92737e-14
-4.97202e-14
-5.01659e-14
-5.06137e-14
-5.10658e-14
-5.15244e-14
-5.19915e-14
-5.24689e-14
-5.2958e-14
-5.34602e-14
-5.39767e-14
-5.45083e-14
-5.5056e-14
-5.56204e-14
-5.6202e-14
-5.68013e-14
-5.74184e-14
-5.80535e-14
-5.8707e-14
-5.93787e-14
-6.00687e-14
-6.07767e-14
-6.15026e-14
-6.2246e-14
-6.30066e-14
-6.37841e-14
-6.45777e-14
-6.53873e-14
-6.62125e-14
-6.70526e-14
-6.7907e-14
-6.87755e-14
-6.96573e-14
-7.05518e-14
-7.14583e-14
-7.2376e-14
-7.33044e-14
-7.42426e-14
-7.519e-14
-7.61462e-14
-7.71104e-14
-7.80822e-14
-7.90608e-14
-8.00457e-14
-8.10361e-14
-8.20312e-14
-8.30303e-14
-8.40327e-14
-8.50378e-14
-8.60451e-14
-8.7054e-14
-8.80641e-14
-8.90749e-14
-9.00859e-14
-9.10967e-14
-9.21067e-14
-9.31156e-14
)
;
    }
    inandouthalf12
    {
        type            cyclic;
        value           nonuniform List<scalar> 
100
(
6.75807e-39
1.19517e-15
2.52526e-15
3.76792e-15
5.08059e-15
6.49112e-15
7.96428e-15
9.48155e-15
1.10391e-14
1.26343e-14
1.42619e-14
1.59147e-14
1.75838e-14
1.92598e-14
2.09333e-14
2.25951e-14
2.42364e-14
2.58486e-14
2.74237e-14
2.89544e-14
3.04345e-14
3.18584e-14
3.32221e-14
3.45224e-14
3.57571e-14
3.69251e-14
3.80263e-14
3.90614e-14
4.00321e-14
4.09407e-14
4.179e-14
4.25835e-14
4.33249e-14
4.40185e-14
4.46685e-14
4.52793e-14
4.58554e-14
4.64012e-14
4.69212e-14
4.74195e-14
4.79001e-14
4.8367e-14
4.88237e-14
4.92737e-14
4.97202e-14
5.01659e-14
5.06137e-14
5.10658e-14
5.15244e-14
5.19915e-14
5.24689e-14
5.2958e-14
5.34602e-14
5.39767e-14
5.45083e-14
5.5056e-14
5.56204e-14
5.6202e-14
5.68013e-14
5.74184e-14
5.80535e-14
5.8707e-14
5.93787e-14
6.00687e-14
6.07767e-14
6.15026e-14
6.2246e-14
6.30066e-14
6.37841e-14
6.45777e-14
6.53873e-14
6.62125e-14
6.70526e-14
6.7907e-14
6.87755e-14
6.96573e-14
7.05518e-14
7.14583e-14
7.2376e-14
7.33044e-14
7.42426e-14
7.519e-14
7.61462e-14
7.71104e-14
7.80822e-14
7.90608e-14
8.00457e-14
8.10361e-14
8.20312e-14
8.30303e-14
8.40327e-14
8.50378e-14
8.60451e-14
8.7054e-14
8.80641e-14
8.90749e-14
9.00859e-14
9.10967e-14
9.21067e-14
9.31156e-14
)
;
    }
    inandouthalf21
    {
        type            cyclic;
        value           nonuniform List<scalar> 
100
(
-9.41229e-14
-9.51284e-14
-9.61318e-14
-9.7133e-14
-9.81321e-14
-9.91292e-14
-1.00124e-13
-1.01118e-13
-1.02111e-13
-1.03103e-13
-1.04095e-13
-1.05088e-13
-1.06082e-13
-1.07078e-13
-1.08076e-13
-1.09076e-13
-1.10078e-13
-1.11082e-13
-1.12086e-13
-1.13091e-13
-1.14094e-13
-1.15095e-13
-1.16095e-13
-1.17094e-13
-1.18094e-13
-1.19101e-13
-1.20122e-13
-1.21167e-13
-1.22251e-13
-1.23389e-13
-1.24597e-13
-1.25889e-13
-1.2727e-13
-1.28728e-13
-1.3022e-13
-1.31658e-13
-1.32908e-13
-1.33845e-13
-1.34422e-13
-1.34707e-13
-1.34826e-13
-1.34891e-13
-1.34968e-13
-1.35126e-13
-1.35237e-13
-1.35348e-13
-1.35656e-13
-3.70218e-09
-7.56756e-11
6.78465e-12
-3.28232e-09
-8.69361e-09
-1.56069e-08
-2.36501e-08
-3.24813e-08
-4.17638e-08
-5.11752e-08
-6.0424e-08
-6.92577e-08
-7.74647e-08
-8.48709e-08
-9.13329e-08
-9.67329e-08
-1.00976e-07
-1.03987e-07
-1.05714e-07
-1.0613e-07
-1.05237e-07
-1.0307e-07
-9.97002e-08
-9.52399e-08
-8.98484e-08
-8.37402e-08
-7.71802e-08
-7.0458e-08
-6.38296e-08
-5.7461e-08
-5.14172e-08
-4.56946e-08
-4.02617e-08
-3.50841e-08
-3.01347e-08
-2.53947e-08
-2.08516e-08
-1.64971e-08
-1.2325e-08
-8.32978e-09
-4.50623e-09
-8.48757e-10
2.64848e-09
5.99154e-09
9.18662e-09
1.22399e-08
1.51573e-08
1.79446e-08
2.06074e-08
2.31508e-08
2.55795e-08
2.78981e-08
3.01106e-08
)
;
    }
    inandouthalf22
    {
        type            cyclic;
        value           nonuniform List<scalar> 
100
(
9.41229e-14
9.51284e-14
9.61318e-14
9.7133e-14
9.81321e-14
9.91292e-14
1.00124e-13
1.01118e-13
1.02111e-13
1.03103e-13
1.04095e-13
1.05088e-13
1.06082e-13
1.07078e-13
1.08076e-13
1.09076e-13
1.10078e-13
1.11082e-13
1.12086e-13
1.13091e-13
1.14094e-13
1.15095e-13
1.16095e-13
1.17094e-13
1.18094e-13
1.19101e-13
1.20122e-13
1.21167e-13
1.22251e-13
1.23389e-13
1.24597e-13
1.25889e-13
1.2727e-13
1.28728e-13
1.3022e-13
1.31658e-13
1.32908e-13
1.33845e-13
1.34422e-13
1.34707e-13
1.34826e-13
1.34891e-13
1.34968e-13
1.35126e-13
1.35237e-13
1.35348e-13
1.35656e-13
3.70218e-09
7.56756e-11
-6.78465e-12
3.28232e-09
8.69361e-09
1.56069e-08
2.36501e-08
3.24813e-08
4.17638e-08
5.11752e-08
6.0424e-08
6.92577e-08
7.74647e-08
8.48709e-08
9.13329e-08
9.67329e-08
1.00976e-07
1.03987e-07
1.05714e-07
1.0613e-07
1.05237e-07
1.0307e-07
9.97002e-08
9.52399e-08
8.98484e-08
8.37402e-08
7.71802e-08
7.0458e-08
6.38296e-08
5.7461e-08
5.14172e-08
4.56946e-08
4.02617e-08
3.50841e-08
3.01347e-08
2.53947e-08
2.08516e-08
1.64971e-08
1.2325e-08
8.32978e-09
4.50623e-09
8.48757e-10
-2.64848e-09
-5.99154e-09
-9.18662e-09
-1.22399e-08
-1.51573e-08
-1.79446e-08
-2.06074e-08
-2.31508e-08
-2.55795e-08
-2.78981e-08
-3.01106e-08
)
;
    }
    inandouthalf31
    {
        type            cyclic;
        value           nonuniform List<scalar> 
110
(
3.22209e-08
3.49482e-08
3.77132e-08
4.05151e-08
4.33535e-08
4.62275e-08
4.91366e-08
5.208e-08
5.50571e-08
5.80672e-08
6.11097e-08
6.41837e-08
6.72887e-08
7.04238e-08
7.35884e-08
7.67818e-08
8.00039e-08
8.32543e-08
8.64968e-08
8.98826e-08
9.32471e-08
9.66432e-08
1.00072e-07
1.03536e-07
1.07038e-07
1.10582e-07
1.14172e-07
1.17811e-07
1.21498e-07
1.25231e-07
1.29003e-07
1.32815e-07
1.36674e-07
1.40586e-07
1.44512e-07
1.48353e-07
1.52429e-07
3.07891e-07
3.16991e-07
3.26466e-07
3.36104e-07
3.45905e-07
3.55856e-07
3.65942e-07
3.76143e-07
3.86443e-07
3.96775e-07
4.07109e-07
4.17558e-07
4.28043e-07
4.37665e-07
4.47603e-07
4.56384e-07
4.65682e-07
4.71524e-07
4.81621e-07
4.89579e-07
4.97084e-07
5.03945e-07
5.10144e-07
5.1569e-07
5.20639e-07
5.25123e-07
5.29634e-07
5.32989e-07
5.36768e-07
5.42156e-07
5.46651e-07
5.52252e-07
5.58589e-07
5.65769e-07
5.73841e-07
5.82841e-07
5.92795e-07
6.03722e-07
6.15658e-07
6.28717e-07
6.43198e-07
6.61102e-07
6.76562e-07
6.90402e-07
7.04417e-07
7.18714e-07
7.33302e-07
7.48186e-07
7.63373e-07
7.78867e-07
7.94676e-07
8.10806e-07
8.27263e-07
8.44054e-07
8.61186e-07
8.78666e-07
8.96501e-07
9.14697e-07
9.33263e-07
9.52206e-07
9.71533e-07
9.91253e-07
1.01137e-06
1.0319e-06
1.05285e-06
1.07422e-06
1.09602e-06
1.11827e-06
1.14096e-06
1.16412e-06
1.18775e-06
1.21186e-06
1.23646e-06
)
;
    }
    inandouthalf32
    {
        type            cyclic;
        value           nonuniform List<scalar> 
110
(
-3.22209e-08
-3.49482e-08
-3.77132e-08
-4.05151e-08
-4.33535e-08
-4.62275e-08
-4.91366e-08
-5.208e-08
-5.50571e-08
-5.80672e-08
-6.11097e-08
-6.41837e-08
-6.72887e-08
-7.04238e-08
-7.35884e-08
-7.67818e-08
-8.00039e-08
-8.32543e-08
-8.64968e-08
-8.98826e-08
-9.32471e-08
-9.66432e-08
-1.00072e-07
-1.03536e-07
-1.07038e-07
-1.10582e-07
-1.14172e-07
-1.17811e-07
-1.21498e-07
-1.25231e-07
-1.29003e-07
-1.32815e-07
-1.36674e-07
-1.40586e-07
-1.44512e-07
-1.48353e-07
-1.52429e-07
-3.07891e-07
-3.16991e-07
-3.26466e-07
-3.36104e-07
-3.45905e-07
-3.55856e-07
-3.65942e-07
-3.76143e-07
-3.86443e-07
-3.96775e-07
-4.07109e-07
-4.17558e-07
-4.28043e-07
-4.37665e-07
-4.47603e-07
-4.56384e-07
-4.65682e-07
-4.71524e-07
-4.81621e-07
-4.89579e-07
-4.97084e-07
-5.03945e-07
-5.10144e-07
-5.1569e-07
-5.20639e-07
-5.25123e-07
-5.29634e-07
-5.32989e-07
-5.36768e-07
-5.42156e-07
-5.46651e-07
-5.52252e-07
-5.58589e-07
-5.65769e-07
-5.73841e-07
-5.82841e-07
-5.92795e-07
-6.03722e-07
-6.15658e-07
-6.28717e-07
-6.43198e-07
-6.61102e-07
-6.76562e-07
-6.90402e-07
-7.04417e-07
-7.18714e-07
-7.33302e-07
-7.48186e-07
-7.63373e-07
-7.78867e-07
-7.94676e-07
-8.10806e-07
-8.27263e-07
-8.44054e-07
-8.61186e-07
-8.78666e-07
-8.96501e-07
-9.14697e-07
-9.33263e-07
-9.52206e-07
-9.71533e-07
-9.91253e-07
-1.01137e-06
-1.0319e-06
-1.05285e-06
-1.07422e-06
-1.09602e-06
-1.11827e-06
-1.14096e-06
-1.16412e-06
-1.18775e-06
-1.21186e-06
-1.23646e-06
)
;
    }
    inandouthalf41
    {
        type            cyclic;
        value           nonuniform List<scalar> 
50
(
1.10675e-06
1.10675e-06
1.10675e-06
1.10675e-06
1.10675e-06
1.10675e-06
1.10675e-06
1.10675e-06
1.10675e-06
1.10675e-06
1.10675e-06
1.10675e-06
1.10675e-06
1.10675e-06
1.10675e-06
1.10675e-06
1.10675e-06
1.10675e-06
1.10675e-06
1.10675e-06
1.10675e-06
1.10675e-06
1.10675e-06
1.10675e-06
1.10675e-06
1.10675e-06
1.10675e-06
1.10675e-06
1.10675e-06
1.10675e-06
1.10675e-06
1.10675e-06
1.10675e-06
1.10675e-06
1.10675e-06
1.10675e-06
1.10675e-06
1.10675e-06
1.10675e-06
1.10675e-06
1.10675e-06
1.10675e-06
1.10675e-06
1.10675e-06
1.10675e-06
1.10675e-06
1.10675e-06
1.10676e-06
1.10688e-06
1.10956e-06
)
;
    }
    inandouthalf42
    {
        type            cyclic;
        value           nonuniform List<scalar> 
50
(
-1.10675e-06
-1.10675e-06
-1.10675e-06
-1.10675e-06
-1.10675e-06
-1.10675e-06
-1.10675e-06
-1.10675e-06
-1.10675e-06
-1.10675e-06
-1.10675e-06
-1.10675e-06
-1.10675e-06
-1.10675e-06
-1.10675e-06
-1.10675e-06
-1.10675e-06
-1.10675e-06
-1.10675e-06
-1.10675e-06
-1.10675e-06
-1.10675e-06
-1.10675e-06
-1.10675e-06
-1.10675e-06
-1.10675e-06
-1.10675e-06
-1.10675e-06
-1.10675e-06
-1.10675e-06
-1.10675e-06
-1.10675e-06
-1.10675e-06
-1.10675e-06
-1.10675e-06
-1.10675e-06
-1.10675e-06
-1.10675e-06
-1.10675e-06
-1.10675e-06
-1.10675e-06
-1.10675e-06
-1.10675e-06
-1.10675e-06
-1.10675e-06
-1.10675e-06
-1.10675e-06
-1.10676e-06
-1.10688e-06
-1.10956e-06
)
;
    }
    top
    {
        type            symmetryPlane;
        value           uniform 0;
    }
    walls
    {
        type            calculated;
        value           uniform 0;
    }
    frontAndBackPlanes
    {
        type            empty;
        value           nonuniform 0();
    }
}


// ************************************************************************* //
