/*--------------------------------*- C++ -*----------------------------------*\
| =========                 |                                                 |
| \\      /  F ield         | OpenFOAM: The Open Source CFD Toolbox           |
|  \\    /   O peration     | Version:  2.4.x                                 |
|   \\  /    A nd           | Web:      www.OpenFOAM.org                      |
|    \\/     M anipulation  |                                                 |
\*---------------------------------------------------------------------------*/
FoamFile
{
    version     2.0;
    format      ascii;
    class       volVectorField;
    location    "12";
    object      ddt0(Ua);
}
// * * * * * * * * * * * * * * * * * * * * * * * * * * * * * * * * * * * * * //

dimensions      [0 1 -2 0 0 0 0];

internalField   nonuniform List<vector> 
360
(
(6.75807e-33 -2.31423e-33 0)
(1.19517e-09 3.42146e-09 0)
(2.52526e-09 6.18959e-09 0)
(3.76792e-09 8.74504e-09 0)
(5.08059e-09 1.15525e-08 0)
(6.49112e-09 1.45803e-08 0)
(7.96428e-09 1.77174e-08 0)
(9.48155e-09 2.09303e-08 0)
(1.10391e-08 2.42133e-08 0)
(1.26343e-08 2.75566e-08 0)
(1.42619e-08 3.09452e-08 0)
(1.59147e-08 3.43592e-08 0)
(1.75838e-08 3.77761e-08 0)
(1.92598e-08 4.1173e-08 0)
(2.09333e-08 4.45272e-08 0)
(2.25951e-08 4.78175e-08 0)
(2.42364e-08 5.10239e-08 0)
(2.58486e-08 5.41273e-08 0)
(2.74237e-08 5.71104e-08 0)
(2.89544e-08 5.99588e-08 0)
(3.04345e-08 6.266e-08 0)
(3.18584e-08 6.52042e-08 0)
(3.32221e-08 6.75847e-08 0)
(3.45224e-08 6.97974e-08 0)
(3.57571e-08 7.18405e-08 0)
(3.69251e-08 7.37151e-08 0)
(3.80263e-08 7.54239e-08 0)
(3.90614e-08 7.69723e-08 0)
(4.00321e-08 7.83672e-08 0)
(4.09407e-08 7.96169e-08 0)
(4.179e-08 8.07309e-08 0)
(4.25835e-08 8.17199e-08 0)
(4.33249e-08 8.25948e-08 0)
(4.40185e-08 8.33675e-08 0)
(4.46685e-08 8.40496e-08 0)
(4.52793e-08 8.4653e-08 0)
(4.58554e-08 8.51891e-08 0)
(4.64012e-08 8.56693e-08 0)
(4.69212e-08 8.61046e-08 0)
(4.74195e-08 8.65051e-08 0)
(4.79001e-08 8.68805e-08 0)
(4.8367e-08 8.724e-08 0)
(4.88237e-08 8.75918e-08 0)
(4.92737e-08 8.79435e-08 0)
(4.97202e-08 8.83022e-08 0)
(5.01659e-08 8.86742e-08 0)
(5.06137e-08 8.9065e-08 0)
(5.10658e-08 8.94795e-08 0)
(5.15244e-08 8.9922e-08 0)
(5.19915e-08 9.03964e-08 0)
(5.24689e-08 9.09061e-08 0)
(5.2958e-08 9.14534e-08 0)
(5.34602e-08 9.20409e-08 0)
(5.39767e-08 9.26703e-08 0)
(5.45083e-08 9.3343e-08 0)
(5.5056e-08 9.40602e-08 0)
(5.56204e-08 9.48226e-08 0)
(5.6202e-08 9.56307e-08 0)
(5.68013e-08 9.64846e-08 0)
(5.74184e-08 9.73841e-08 0)
(5.80535e-08 9.8329e-08 0)
(5.8707e-08 9.9319e-08 0)
(5.93787e-08 1.00353e-07 0)
(6.00687e-08 1.01432e-07 0)
(6.07767e-08 1.02553e-07 0)
(6.15026e-08 1.03715e-07 0)
(6.2246e-08 1.04918e-07 0)
(6.30066e-08 1.06161e-07 0)
(6.37841e-08 1.07441e-07 0)
(6.45777e-08 1.08757e-07 0)
(6.53873e-08 1.10108e-07 0)
(6.62125e-08 1.11493e-07 0)
(6.70526e-08 1.12909e-07 0)
(6.7907e-08 1.14356e-07 0)
(6.87755e-08 1.15831e-07 0)
(6.96573e-08 1.17334e-07 0)
(7.05518e-08 1.18863e-07 0)
(7.14583e-08 1.20415e-07 0)
(7.2376e-08 1.21989e-07 0)
(7.33044e-08 1.23582e-07 0)
(7.42426e-08 1.25195e-07 0)
(7.519e-08 1.26823e-07 0)
(7.61462e-08 1.28468e-07 0)
(7.71104e-08 1.30125e-07 0)
(7.80822e-08 1.31795e-07 0)
(7.90608e-08 1.33476e-07 0)
(8.00457e-08 1.35166e-07 0)
(8.10361e-08 1.36863e-07 0)
(8.20312e-08 1.38566e-07 0)
(8.30303e-08 1.40273e-07 0)
(8.40327e-08 1.41983e-07 0)
(8.50378e-08 1.43693e-07 0)
(8.60451e-08 1.45403e-07 0)
(8.7054e-08 1.47112e-07 0)
(8.80641e-08 1.48818e-07 0)
(8.90749e-08 1.5052e-07 0)
(9.00859e-08 1.52218e-07 0)
(9.10967e-08 1.53909e-07 0)
(9.21067e-08 1.55593e-07 0)
(9.31156e-08 1.57268e-07 0)
(9.41229e-08 1.58935e-07 0)
(9.51284e-08 1.60591e-07 0)
(9.61318e-08 1.62237e-07 0)
(9.7133e-08 1.63871e-07 0)
(9.81321e-08 1.65493e-07 0)
(9.91292e-08 1.67104e-07 0)
(1.00124e-07 1.68703e-07 0)
(1.01118e-07 1.70291e-07 0)
(1.02111e-07 1.71867e-07 0)
(1.03103e-07 1.73432e-07 0)
(1.04095e-07 1.74986e-07 0)
(1.05088e-07 1.7653e-07 0)
(1.06082e-07 1.78064e-07 0)
(1.07078e-07 1.79588e-07 0)
(1.08076e-07 1.81102e-07 0)
(1.09076e-07 1.82605e-07 0)
(1.10078e-07 1.84095e-07 0)
(1.11082e-07 1.85572e-07 0)
(1.12086e-07 1.87033e-07 0)
(1.13091e-07 1.88475e-07 0)
(1.14094e-07 1.89896e-07 0)
(1.15095e-07 1.91294e-07 0)
(1.16095e-07 1.92668e-07 0)
(1.17094e-07 1.94018e-07 0)
(1.18094e-07 1.95345e-07 0)
(1.19101e-07 1.96656e-07 0)
(1.20122e-07 1.97957e-07 0)
(1.21167e-07 1.99259e-07 0)
(1.22251e-07 2.00577e-07 0)
(1.23389e-07 2.01923e-07 0)
(1.24597e-07 2.03312e-07 0)
(1.25889e-07 2.0475e-07 0)
(1.2727e-07 2.06232e-07 0)
(1.28728e-07 2.07738e-07 0)
(1.3022e-07 2.09217e-07 0)
(1.31658e-07 2.10581e-07 0)
(1.32908e-07 2.11712e-07 0)
(1.33845e-07 2.12514e-07 0)
(1.34422e-07 2.12977e-07 0)
(1.34707e-07 2.13187e-07 0)
(1.34826e-07 2.13261e-07 0)
(1.34891e-07 2.13286e-07 0)
(1.34968e-07 2.13341e-07 0)
(1.35126e-07 2.13506e-07 0)
(1.35237e-07 2.13554e-07 0)
(1.35348e-07 2.13563e-07 0)
(1.35656e-07 2.13546e-07 0)
(0.00370218 -0.000168166 0)
(7.56756e-05 -0.00180078 0)
(-6.78465e-06 -0.00234637 0)
(0.00328232 -0.00277508 0)
(0.00869361 -0.0029889 0)
(0.0156069 -0.00321867 0)
(0.0236501 -0.00346156 0)
(0.0324813 -0.00374102 0)
(0.0417638 -0.0040692 0)
(0.0511752 -0.004456 0)
(0.060424 -0.00490102 0)
(0.0692577 -0.00539808 0)
(0.0774647 -0.00594196 0)
(0.0848709 -0.0065173 0)
(0.0913329 -0.00711046 0)
(0.0967329 -0.007703 0)
(0.100976 -0.00827027 0)
(0.103987 -0.00878984 0)
(0.105714 -0.00923381 0)
(0.10613 -0.00957154 0)
(0.105237 -0.00976931 0)
(0.10307 -0.00978888 0)
(0.0997002 -0.00958244 0)
(0.0952399 -0.00907407 0)
(0.0898484 -0.00813795 0)
(0.0837402 -0.00661405 0)
(0.0771802 -0.00441804 0)
(0.070458 -0.00168698 0)
(0.0638296 0.00120836 0)
(0.057461 0.00385115 0)
(0.0514172 0.00598466 0)
(0.0456946 0.00755826 0)
(0.0402617 0.00864793 0)
(0.0350841 0.00936781 0)
(0.0301347 0.00982333 0)
(0.0253947 0.0100972 0)
(0.0208516 0.0102497 0)
(0.0164971 0.0103235 0)
(0.012325 0.0103481 0)
(0.00832978 0.0103435 0)
(0.00450623 0.0103231 0)
(0.000848757 0.0102959 0)
(-0.00264848 0.0102676 0)
(-0.00599154 0.0102415 0)
(-0.00918662 0.0102197 0)
(-0.0122399 0.0102031 0)
(-0.0151573 0.0101921 0)
(-0.0179446 0.0101864 0)
(-0.0206074 0.0101858 0)
(-0.0231508 0.0101896 0)
(-0.0255795 0.0101972 0)
(-0.0278981 0.010208 0)
(-0.0301106 0.0102215 0)
(-0.0322208 0.0102369 0)
(-0.0342529 0.010254 0)
(-0.0362275 0.0102726 0)
(-0.0381448 0.0102925 0)
(-0.0400051 0.0103133 0)
(-0.0418086 0.0103348 0)
(-0.0435555 0.0103567 0)
(-0.0452462 0.0103786 0)
(-0.0468811 0.0104003 0)
(-0.0484606 0.0104211 0)
(-0.0499852 0.0104407 0)
(-0.0514552 0.0104583 0)
(-0.0528713 0.0104731 0)
(-0.0542338 0.010484 0)
(-0.0555435 0.0104898 0)
(-0.0568009 0.0104889 0)
(-0.0580072 0.0104798 0)
(-0.059163 0.0104595 0)
(-0.0602445 0.0104302 0)
(-0.0613573 0.0103931 0)
(-0.0623877 0.0103273 0)
(-0.0633735 0.0102384 0)
(-0.0643166 0.0101215 0)
(-0.0652192 0.00997133 0)
(-0.066084 0.00978306 0)
(-0.0669138 0.00955257 0)
(-0.0677115 0.00927947 0)
(-0.0684795 0.00897003 0)
(-0.0692182 0.00863612 0)
(-0.0699254 0.00828747 0)
(-0.0705988 0.00792589 0)
(-0.0712388 0.00754923 0)
(-0.0718505 0.00716817 0)
(-0.0724368 0.00683044 0)
(-0.0729783 0.00659674 0)
(-0.0734275 0.0064612 0)
(-0.0739443 0.00634837 0)
(-0.146388 0.00437855 0)
(-0.147716 0.00439895 0)
(-0.149105 0.00372799 0)
(-0.150454 0.00310965 0)
(-0.151761 0.00248664 0)
(-0.15302 0.00186711 0)
(-0.154227 0.00125422 0)
(-0.155373 0.000645222 0)
(-0.156452 8.69896e-05 0)
(-0.157439 -0.000599784 0)
(-0.158326 -0.000891121 0)
(-0.159159 -0.00198176 0)
(-0.15991 -0.00167115 0)
(-0.160252 -0.00414377 0)
(-0.16063 -0.00320397 0)
(-0.160523 -0.0325978 0)
(-0.160535 -0.0177982 0)
(-0.159315 -0.000265579 0)
(-0.15949 4.33257e-05 0)
(-0.1589 1.48171e-05 0)
(-0.158126 7.4748e-06 0)
(-0.157119 -1.25755e-06 0)
(-0.155888 -9.60548e-06 0)
(-0.154448 -1.72279e-05 0)
(-0.152828 -2.36715e-05 0)
(-0.151078 -2.86182e-05 0)
(-0.149344 -3.3121e-05 0)
(-0.147301 -3.31345e-05 0)
(-0.145394 -2.80044e-05 0)
(-0.143932 -2.98705e-05 0)
(-0.142238 -2.51674e-05 0)
(-0.140837 -2.13054e-05 0)
(-0.139619 -1.72121e-05 0)
(-0.1386 -1.34914e-05 0)
(-0.137781 -1.03837e-05 0)
(-0.137159 -8.04579e-06 0)
(-0.136726 -6.56046e-06 0)
(-0.136476 -5.999e-06 0)
(-0.136405 -6.53497e-06 0)
(-0.136528 -8.4439e-06 0)
(-0.136894 -1.62631e-05 0)
(-0.137905 -1.79352e-05 0)
(-0.138322 -1.07972e-05 0)
(-0.138344 -7.13106e-06 0)
(-0.138344 -6.94182e-06 0)
(-0.138344 -6.9393e-06 0)
(-0.138344 -6.93916e-06 0)
(-0.138344 -6.93928e-06 0)
(-0.138344 -6.93915e-06 0)
(-0.138344 -6.93928e-06 0)
(-0.138344 -6.93913e-06 0)
(-0.138344 -6.93928e-06 0)
(-0.138344 -6.9391e-06 0)
(-0.138344 -6.93926e-06 0)
(-0.138344 -6.93906e-06 0)
(-0.138344 -6.93923e-06 0)
(-0.138344 -6.93901e-06 0)
(-0.138344 -6.9392e-06 0)
(-0.138344 -6.93896e-06 0)
(-0.138344 -6.93916e-06 0)
(-0.138344 -6.93891e-06 0)
(-0.138344 -6.93915e-06 0)
(-0.138344 -6.93888e-06 0)
(-0.138344 -6.93914e-06 0)
(-0.138344 -6.93885e-06 0)
(-0.138344 -6.93913e-06 0)
(-0.138344 -6.93882e-06 0)
(-0.138344 -6.93913e-06 0)
(-0.138344 -6.93879e-06 0)
(-0.138344 -6.93912e-06 0)
(-0.138344 -6.93876e-06 0)
(-0.138344 -6.93911e-06 0)
(-0.138344 -6.93873e-06 0)
(-0.138344 -6.93909e-06 0)
(-0.138344 -6.93874e-06 0)
(-0.138344 -6.93908e-06 0)
(-0.138344 -6.93871e-06 0)
(-0.138344 -6.93906e-06 0)
(-0.138344 -6.93869e-06 0)
(-0.138344 -6.93905e-06 0)
(-0.138344 -6.93868e-06 0)
(-0.138344 -6.93905e-06 0)
(-0.138344 -6.93869e-06 0)
(-0.138344 -6.93906e-06 0)
(-0.138344 -6.93867e-06 0)
(-0.138344 -6.93905e-06 0)
(-0.138344 -6.93867e-06 0)
(-0.138344 -6.93906e-06 0)
(-0.138344 -6.93866e-06 0)
(-0.138344 -6.93906e-06 0)
(-0.138344 -6.93865e-06 0)
(-0.138344 -6.93891e-06 0)
(-0.138344 -6.93825e-06 0)
(-0.138344 -6.93843e-06 0)
(-0.138344 -6.93788e-06 0)
(-0.138344 -6.93814e-06 0)
(-0.138344 -6.93759e-06 0)
(-0.138344 -6.93803e-06 0)
(-0.138344 -6.93778e-06 0)
(-0.138344 -6.93823e-06 0)
(-0.138344 -6.93767e-06 0)
(-0.138344 -6.93818e-06 0)
(-0.138344 -6.93804e-06 0)
(-0.138344 -6.9388e-06 0)
(-0.138344 -6.93868e-06 0)
(-0.138344 -6.93964e-06 0)
(-0.138344 -6.93988e-06 0)
(-0.138344 -6.94098e-06 0)
(-0.138344 -6.94106e-06 0)
(-0.138344 -6.94214e-06 0)
(-0.138344 -6.94228e-06 0)
(-0.138344 -6.94342e-06 0)
(-0.138344 -6.94351e-06 0)
(-0.138344 -6.94439e-06 0)
(-0.138344 -6.94412e-06 0)
(-0.138344 -6.94522e-06 0)
(-0.138344 -6.94551e-06 0)
(-0.138344 -6.9463e-06 0)
(-0.138344 -6.94543e-06 0)
(-0.138344 -6.94573e-06 0)
(-0.138345 -6.95273e-06 0)
(-0.138359 -7.12621e-06 0)
(-0.138695 -1.40536e-05 0)
)
;

boundaryField
{
    inandouthalf11
    {
        type            cyclic;
    }
    inandouthalf12
    {
        type            cyclic;
    }
    inandouthalf21
    {
        type            cyclic;
    }
    inandouthalf22
    {
        type            cyclic;
    }
    inandouthalf31
    {
        type            cyclic;
    }
    inandouthalf32
    {
        type            cyclic;
    }
    inandouthalf41
    {
        type            cyclic;
    }
    inandouthalf42
    {
        type            cyclic;
    }
    top
    {
        type            symmetryPlane;
    }
    walls
    {
        type            calculated;
        value           uniform (0 0 0);
    }
    frontAndBackPlanes
    {
        type            empty;
    }
}


// ************************************************************************* //
