/*--------------------------------*- C++ -*----------------------------------*\
| =========                 |                                                 |
| \\      /  F ield         | OpenFOAM: The Open Source CFD Toolbox           |
|  \\    /   O peration     | Version:  2.4.x                                 |
|   \\  /    A nd           | Web:      www.OpenFOAM.org                      |
|    \\/     M anipulation  |                                                 |
\*---------------------------------------------------------------------------*/
FoamFile
{
    version     2.0;
    format      ascii;
    class       volVectorField;
    location    "12";
    object      ddt0(Ub);
}
// * * * * * * * * * * * * * * * * * * * * * * * * * * * * * * * * * * * * * //

dimensions      [0 1 -2 0 0 0 0];

internalField   nonuniform List<vector> 
360
(
(0.000106075 -1.48162e-09 0)
(0.000105483 -5.24313e-09 0)
(0.000105405 -9.71735e-09 0)
(0.000105486 -1.4098e-08 0)
(0.000105525 -1.86295e-08 0)
(0.000105538 -2.34224e-08 0)
(0.000105554 -2.84168e-08 0)
(0.000105576 -3.35467e-08 0)
(0.000105597 -3.87866e-08 0)
(0.000105619 -4.41177e-08 0)
(0.000105641 -4.95113e-08 0)
(0.000105663 -5.49446e-08 0)
(0.000105686 -6.03807e-08 0)
(0.000105708 -6.57829e-08 0)
(0.000105731 -7.1116e-08 0)
(0.000105754 -7.63452e-08 0)
(0.000105777 -8.14405e-08 0)
(0.0001058 -8.63748e-08 0)
(0.000105824 -9.11205e-08 0)
(0.000105847 -9.56524e-08 0)
(0.000105871 -9.99472e-08 0)
(0.000105895 -1.03994e-07 0)
(0.000105919 -1.07788e-07 0)
(0.000105944 -1.11321e-07 0)
(0.000105968 -1.14578e-07 0)
(0.000105993 -1.1757e-07 0)
(0.000106018 -1.203e-07 0)
(0.000106043 -1.22772e-07 0)
(0.000106068 -1.25001e-07 0)
(0.000106094 -1.26996e-07 0)
(0.000106119 -1.28776e-07 0)
(0.000106145 -1.30365e-07 0)
(0.000106171 -1.31776e-07 0)
(0.000106198 -1.33024e-07 0)
(0.000106224 -1.34122e-07 0)
(0.000106251 -1.35098e-07 0)
(0.000106278 -1.35971e-07 0)
(0.000106305 -1.36748e-07 0)
(0.000106333 -1.37453e-07 0)
(0.000106361 -1.38099e-07 0)
(0.000106389 -1.38705e-07 0)
(0.000106417 -1.39285e-07 0)
(0.000106446 -1.39852e-07 0)
(0.000106475 -1.40418e-07 0)
(0.000106505 -1.40991e-07 0)
(0.000106535 -1.41584e-07 0)
(0.000106565 -1.42205e-07 0)
(0.000106595 -1.42866e-07 0)
(0.000106626 -1.43567e-07 0)
(0.000106657 -1.44314e-07 0)
(0.000106689 -1.45118e-07 0)
(0.000106721 -1.45981e-07 0)
(0.000106753 -1.46903e-07 0)
(0.000106786 -1.47892e-07 0)
(0.000106819 -1.48944e-07 0)
(0.000106853 -1.50066e-07 0)
(0.000106887 -1.51253e-07 0)
(0.000106922 -1.52514e-07 0)
(0.000106957 -1.53849e-07 0)
(0.000106992 -1.55246e-07 0)
(0.000107028 -1.56713e-07 0)
(0.000107064 -1.58252e-07 0)
(0.000107101 -1.59862e-07 0)
(0.000107139 -1.61534e-07 0)
(0.000107177 -1.63271e-07 0)
(0.000107215 -1.65076e-07 0)
(0.000107254 -1.66942e-07 0)
(0.000107294 -1.68865e-07 0)
(0.000107334 -1.7084e-07 0)
(0.000107375 -1.72873e-07 0)
(0.000107416 -1.7496e-07 0)
(0.000107458 -1.77096e-07 0)
(0.000107501 -1.7928e-07 0)
(0.000107544 -1.81512e-07 0)
(0.000107588 -1.83786e-07 0)
(0.000107632 -1.86101e-07 0)
(0.000107678 -1.88456e-07 0)
(0.000107723 -1.90843e-07 0)
(0.00010777 -1.93259e-07 0)
(0.000107818 -1.95708e-07 0)
(0.000107866 -1.98184e-07 0)
(0.000107915 -2.00677e-07 0)
(0.000107964 -2.03193e-07 0)
(0.000108015 -2.0573e-07 0)
(0.000108066 -2.0828e-07 0)
(0.000108119 -2.10841e-07 0)
(0.000108172 -2.13416e-07 0)
(0.000108226 -2.15999e-07 0)
(0.000108281 -2.18585e-07 0)
(0.000108337 -2.21177e-07 0)
(0.000108394 -2.23767e-07 0)
(0.000108452 -2.26356e-07 0)
(0.000108512 -2.28942e-07 0)
(0.000108572 -2.31517e-07 0)
(0.000108634 -2.34087e-07 0)
(0.000108696 -2.3665e-07 0)
(0.00010876 -2.39199e-07 0)
(0.000108826 -2.41738e-07 0)
(0.000108892 -2.44255e-07 0)
(0.00010896 -2.46753e-07 0)
(0.00010903 -2.49233e-07 0)
(0.000109101 -2.51694e-07 0)
(0.000109173 -2.54134e-07 0)
(0.000109248 -2.56552e-07 0)
(0.000109324 -2.58947e-07 0)
(0.000109401 -2.61318e-07 0)
(0.000109481 -2.63666e-07 0)
(0.000109562 -2.6599e-07 0)
(0.000109645 -2.68287e-07 0)
(0.000109731 -2.70561e-07 0)
(0.000109818 -2.72812e-07 0)
(0.000109908 -2.75041e-07 0)
(0.00011 -2.77246e-07 0)
(0.000110095 -2.79424e-07 0)
(0.000110192 -2.81581e-07 0)
(0.000110292 -2.83715e-07 0)
(0.000110394 -2.85817e-07 0)
(0.0001105 -2.87893e-07 0)
(0.000110609 -2.8994e-07 0)
(0.000110721 -2.91948e-07 0)
(0.000110837 -2.93912e-07 0)
(0.000110956 -2.95828e-07 0)
(0.000111079 -2.977e-07 0)
(0.000111207 -2.99527e-07 0)
(0.000111338 -3.01306e-07 0)
(0.000111475 -3.03047e-07 0)
(0.000111616 -3.04765e-07 0)
(0.000111762 -3.06476e-07 0)
(0.000111915 -3.08194e-07 0)
(0.000112073 -3.09942e-07 0)
(0.000112239 -3.11736e-07 0)
(0.000112411 -3.13583e-07 0)
(0.000112591 -3.15474e-07 0)
(0.000112781 -3.17363e-07 0)
(0.000112984 -3.19181e-07 0)
(0.0001132 -3.2079e-07 0)
(0.000113429 -3.22026e-07 0)
(0.000113674 -3.22758e-07 0)
(0.000113945 -3.22971e-07 0)
(0.000114254 -3.22783e-07 0)
(0.000114588 -3.22307e-07 0)
(0.000114985 -3.19309e-07 0)
(0.000117725 -3.21196e-07 0)
(0.000117317 -3.17607e-07 0)
(0.000117821 -3.19984e-07 0)
(0.000118698 -5.05807e-07 0)
(0.000155594 1.72329e-06 0)
(0.00435273 0.000272675 0)
(0.00160044 0.00084929 0)
(0.0026189 0.000719839 0)
(0.00637936 0.000667851 0)
(0.01192 0.000585691 0)
(0.0188548 0.000513283 0)
(0.0268695 0.000448909 0)
(0.035663 0.000393166 0)
(0.0449445 0.000345357 0)
(0.0544446 0.000304535 0)
(0.0639257 0.00026929 0)
(0.073185 0.000238034 0)
(0.0820524 0.000209955 0)
(0.0903866 0.000184159 0)
(0.0980694 0.000160269 0)
(0.105001 0.000138048 0)
(0.111096 0.000117345 0)
(0.116277 9.81805e-05 0)
(0.120476 8.06007e-05 0)
(0.123627 6.46344e-05 0)
(0.12567 5.033e-05 0)
(0.126545 3.76822e-05 0)
(0.126195 2.66393e-05 0)
(0.12457 1.70473e-05 0)
(0.121625 8.71139e-06 0)
(0.117328 1.57675e-06 0)
(0.111667 -4.06464e-06 0)
(0.104666 -7.71598e-06 0)
(0.0963908 -9.18689e-06 0)
(0.0869641 -8.92657e-06 0)
(0.0765662 -7.76813e-06 0)
(0.0654277 -6.41937e-06 0)
(0.0538166 -5.23451e-06 0)
(0.0420189 -4.30052e-06 0)
(0.0303158 -3.59015e-06 0)
(0.0189606 -3.05381e-06 0)
(0.00815957 -2.64463e-06 0)
(-0.00193862 -2.32709e-06 0)
(-0.0112454 -2.07785e-06 0)
(-0.0197266 -1.87842e-06 0)
(-0.0273918 -1.71556e-06 0)
(-0.0342819 -1.5799e-06 0)
(-0.0404575 -1.46472e-06 0)
(-0.0459893 -1.36516e-06 0)
(-0.0509505 -1.27767e-06 0)
(-0.0554122 -1.19963e-06 0)
(-0.0594403 -1.12909e-06 0)
(-0.0630943 -1.0646e-06 0)
(-0.0664265 -1.00507e-06 0)
(-0.0694825 -9.49673e-07 0)
(-0.0723014 -8.97773e-07 0)
(-0.0749166 -8.48895e-07 0)
(-0.0773562 -8.02662e-07 0)
(-0.0796444 -7.58785e-07 0)
(-0.0818232 -7.1661e-07 0)
(-0.0839265 -6.75631e-07 0)
(-0.085964 -6.35808e-07 0)
(-0.0879446 -5.97115e-07 0)
(-0.0898761 -5.59553e-07 0)
(-0.0917652 -5.23133e-07 0)
(-0.093618 -4.87878e-07 0)
(-0.0954396 -4.53824e-07 0)
(-0.0972345 -4.21028e-07 0)
(-0.0990067 -3.89529e-07 0)
(-0.100759 -3.59374e-07 0)
(-0.102496 -3.30598e-07 0)
(-0.104217 -3.03229e-07 0)
(-0.105927 -2.77281e-07 0)
(-0.107626 -2.5275e-07 0)
(-0.109317 -2.29618e-07 0)
(-0.110999 -2.0788e-07 0)
(-0.112673 -1.87526e-07 0)
(-0.114341 -1.68487e-07 0)
(-0.116003 -1.50656e-07 0)
(-0.117659 -1.33993e-07 0)
(-0.119309 -1.18496e-07 0)
(-0.120952 -1.0413e-07 0)
(-0.12259 -9.08774e-08 0)
(-0.12422 -7.87254e-08 0)
(-0.125843 -6.76937e-08 0)
(-0.127458 -5.7811e-08 0)
(-0.129064 -4.90835e-08 0)
(-0.13066 -4.13795e-08 0)
(-0.132245 -3.44035e-08 0)
(-0.133817 -2.77551e-08 0)
(-0.135374 -2.13853e-08 0)
(-0.136916 -1.59239e-08 0)
(-0.138438 -1.21867e-08 0)
(-0.139941 -9.97564e-09 0)
(-0.141419 -8.22313e-09 0)
(-0.142871 -6.52222e-09 0)
(-0.144293 -5.10907e-09 0)
(-0.145681 -3.96039e-09 0)
(-0.14703 -3.02982e-09 0)
(-0.148335 -2.27169e-09 0)
(-0.149592 -1.67073e-09 0)
(-0.150794 -1.19663e-09 0)
(-0.151933 -8.36935e-10 0)
(-0.153002 -5.65346e-10 0)
(-0.153992 -3.69187e-10 0)
(-0.154894 -2.26209e-10 0)
(-0.155697 -1.295e-10 0)
(-0.156388 -6.75708e-11 0)
(-0.156954 -2.16444e-11 0)
(-0.157383 1.65391e-11 0)
(-0.157657 -1.24055e-11 0)
(-0.157762 -2.68426e-11 0)
(-0.157681 6.76918e-12 0)
(-0.157399 3.06192e-12 0)
(-0.156902 -1.02622e-12 0)
(-0.15618 -5.27206e-12 0)
(-0.155227 -1.29538e-11 0)
(-0.154046 -3.2389e-11 0)
(-0.152651 -5.45091e-11 0)
(-0.151067 -8.66196e-11 0)
(-0.149336 -1.28233e-10 0)
(-0.147508 -1.75178e-10 0)
(-0.145647 -1.95227e-10 0)
(-0.143814 -1.95862e-10 0)
(-0.142069 -1.97714e-10 0)
(-0.140459 -2.15882e-10 0)
(-0.139018 -2.28016e-10 0)
(-0.137765 -2.43598e-10 0)
(-0.136711 -2.79342e-10 0)
(-0.135857 -3.04718e-10 0)
(-0.135202 -3.90478e-10 0)
(-0.134739 -2.9083e-10 0)
(-0.134461 -4.70307e-10 0)
(-0.134364 -2.74987e-10 0)
(-0.134459 -5.85233e-10 0)
(-0.134749 -2.58415e-10 0)
(-0.135759 -6.84893e-10 0)
(-0.136271 -2.91659e-10 0)
(-0.136299 -7.85373e-10 0)
(-0.136299 -2.76605e-10 0)
(-0.136299 -8.21376e-10 0)
(-0.136299 -2.59203e-10 0)
(-0.136299 -8.713e-10 0)
(-0.136299 -2.2108e-10 0)
(-0.136299 -8.90016e-10 0)
(-0.136299 -1.5913e-10 0)
(-0.136299 -8.93166e-10 0)
(-0.136299 -6.95925e-11 0)
(-0.136299 -8.7049e-10 0)
(-0.136299 4.76948e-11 0)
(-0.136299 -8.19174e-10 0)
(-0.136299 1.93531e-10 0)
(-0.136299 -7.48156e-10 0)
(-0.136299 3.57141e-10 0)
(-0.136299 -6.82267e-10 0)
(-0.136299 4.92083e-10 0)
(-0.136299 -6.6446e-10 0)
(-0.136299 5.90061e-10 0)
(-0.136299 -6.65999e-10 0)
(-0.136299 6.84907e-10 0)
(-0.136299 -6.68336e-10 0)
(-0.136299 7.83608e-10 0)
(-0.136299 -6.69405e-10 0)
(-0.136299 8.87888e-10 0)
(-0.136299 -6.73257e-10 0)
(-0.136299 9.87336e-10 0)
(-0.136299 -6.82742e-10 0)
(-0.136299 1.08872e-09 0)
(-0.136299 -5.90841e-10 0)
(-0.136299 1.03654e-09 0)
(-0.136299 -5.80074e-10 0)
(-0.136299 1.11792e-09 0)
(-0.136299 -5.34202e-10 0)
(-0.136299 1.17917e-09 0)
(-0.136299 -5.25399e-10 0)
(-0.136299 1.2247e-09 0)
(-0.136299 -5.37238e-10 0)
(-0.136299 1.21024e-09 0)
(-0.136299 -5.77604e-10 0)
(-0.136299 1.26761e-09 0)
(-0.136299 -5.52884e-10 0)
(-0.136299 1.26786e-09 0)
(-0.136299 -5.89786e-10 0)
(-0.136299 1.30333e-09 0)
(-0.136299 -6.04205e-10 0)
(-0.136299 1.30002e-09 0)
(-0.136299 -2.5179e-10 0)
(-0.136299 2.36318e-09 0)
(-0.136299 9.8618e-10 0)
(-0.136299 3.29051e-09 0)
(-0.136299 1.69613e-09 0)
(-0.136299 4.03016e-09 0)
(-0.136299 1.94579e-09 0)
(-0.136299 3.46732e-09 0)
(-0.136299 1.35624e-09 0)
(-0.136299 3.72135e-09 0)
(-0.136299 1.41428e-09 0)
(-0.136299 2.68953e-09 0)
(-0.136299 -2.94651e-10 0)
(-0.136299 9.41477e-10 0)
(-0.136299 -2.59643e-09 0)
(-0.136299 -2.32001e-09 0)
(-0.136299 -6.24814e-09 0)
(-0.136299 -5.55637e-09 0)
(-0.136299 -9.43179e-09 0)
(-0.136299 -8.89521e-09 0)
(-0.136299 -1.29304e-08 0)
(-0.136299 -1.22679e-08 0)
(-0.136299 -1.56179e-08 0)
(-0.136299 -1.39709e-08 0)
(-0.136299 -1.796e-08 0)
(-0.136299 -1.78221e-08 0)
(-0.136299 -2.08432e-08 0)
(-0.136299 -1.76026e-08 0)
(-0.136299 -1.82886e-08 0)
(-0.136299 -1.45938e-08 0)
(-0.136299 -1.53133e-08 0)
(-0.136299 -5.86811e-09 0)
)
;

boundaryField
{
    inandouthalf11
    {
        type            cyclic;
    }
    inandouthalf12
    {
        type            cyclic;
    }
    inandouthalf21
    {
        type            cyclic;
    }
    inandouthalf22
    {
        type            cyclic;
    }
    inandouthalf31
    {
        type            cyclic;
    }
    inandouthalf32
    {
        type            cyclic;
    }
    inandouthalf41
    {
        type            cyclic;
    }
    inandouthalf42
    {
        type            cyclic;
    }
    top
    {
        type            symmetryPlane;
    }
    walls
    {
        type            calculated;
        value           uniform (0 0 0);
    }
    frontAndBackPlanes
    {
        type            empty;
    }
}


// ************************************************************************* //
