/*--------------------------------*- C++ -*----------------------------------*\
| =========                 |                                                 |
| \\      /  F ield         | OpenFOAM: The Open Source CFD Toolbox           |
|  \\    /   O peration     | Version:  2.4.x                                 |
|   \\  /    A nd           | Web:      www.OpenFOAM.org                      |
|    \\/     M anipulation  |                                                 |
\*---------------------------------------------------------------------------*/
FoamFile
{
    version     2.0;
    format      ascii;
    class       surfaceScalarField;
    location    "12";
    object      ddt0(phib);
}
// * * * * * * * * * * * * * * * * * * * * * * * * * * * * * * * * * * * * * //

dimensions      [0 3 -2 0 0 0 0];

internalField   nonuniform List<scalar> 
359
(
-1.20523e-14
-3.01628e-14
-4.76042e-14
-6.51791e-14
-8.38549e-14
-1.0353e-13
-1.23811e-13
-1.44567e-13
-1.6573e-13
-1.87215e-13
-2.08879e-13
-2.30682e-13
-2.52367e-13
-2.73899e-13
-2.95032e-13
-3.15733e-13
-3.35794e-13
-3.55207e-13
-3.73759e-13
-3.91462e-13
-4.08118e-13
-4.23834e-13
-4.3847e-13
-4.52097e-13
-4.64529e-13
-4.7603e-13
-4.8637e-13
-4.95804e-13
-5.04201e-13
-5.11769e-13
-5.18437e-13
-5.24484e-13
-5.2973e-13
-5.34463e-13
-5.38511e-13
-5.42275e-13
-5.45491e-13
-5.48496e-13
-5.51128e-13
-5.53665e-13
-5.55972e-13
-5.5831e-13
-5.60507e-13
-5.62835e-13
-5.65093e-13
-5.67578e-13
-5.70065e-13
-5.72865e-13
-5.75675e-13
-5.78834e-13
-5.82115e-13
-5.85734e-13
-5.89492e-13
-5.93645e-13
-5.97914e-13
-6.02617e-13
-6.07412e-13
-6.12701e-13
-6.18092e-13
-6.23881e-13
-6.29825e-13
-6.36194e-13
-6.42703e-13
-6.49576e-13
-6.56596e-13
-6.64016e-13
-6.71525e-13
-6.79396e-13
-6.87328e-13
-6.95665e-13
-7.04022e-13
-7.12748e-13
-7.21499e-13
-7.30603e-13
-7.39691e-13
-7.49121e-13
-7.58532e-13
-7.68219e-13
-7.7786e-13
-7.87809e-13
-7.97666e-13
-8.07758e-13
-8.17796e-13
-8.28051e-13
-8.38193e-13
-8.48545e-13
-8.5879e-13
-8.69206e-13
-8.79484e-13
-8.89941e-13
-9.00199e-13
-9.10655e-13
-9.20894e-13
-9.3125e-13
-9.41457e-13
-9.51753e-13
-9.61849e-13
-9.72064e-13
-9.81991e-13
-9.92041e-13
-1.00184e-12
-1.01173e-12
-1.02135e-12
-1.03107e-12
-1.04052e-12
-1.05004e-12
-1.0593e-12
-1.06864e-12
-1.07768e-12
-1.08682e-12
-1.09569e-12
-1.10465e-12
-1.11333e-12
-1.12208e-12
-1.1306e-12
-1.13914e-12
-1.14741e-12
-1.15576e-12
-1.16379e-12
-1.17182e-12
-1.1795e-12
-1.18715e-12
-1.19448e-12
-1.20176e-12
-1.20872e-12
-1.21569e-12
-1.22247e-12
-1.22938e-12
-1.23622e-12
-1.24336e-12
-1.25058e-12
-1.25814e-12
-1.26571e-12
-1.27327e-12
-1.28026e-12
-1.28614e-12
-1.29016e-12
-1.29206e-12
-1.29192e-12
-1.29047e-12
-1.28827e-12
-1.279e-12
-1.27319e-12
-1.27281e-12
-1.26897e-12
-1.25539e-12
1.84072e-10
2.60116e-09
2.95326e-09
2.74177e-09
2.46131e-09
2.1782e-09
1.91277e-09
1.67627e-09
1.47281e-09
1.29641e-09
1.14667e-09
1.01352e-09
8.95636e-10
7.87958e-10
6.88662e-10
5.96516e-10
5.10791e-10
4.30906e-10
3.5757e-10
2.90373e-10
2.29899e-10
1.75931e-10
1.28575e-10
8.73705e-11
5.16931e-11
2.08281e-11
-4.9535e-12
-2.3887e-11
-3.4167e-11
-3.62918e-11
-3.32123e-11
-2.8186e-11
-2.3213e-11
-1.90482e-11
-1.57883e-11
-1.32986e-11
-1.14026e-11
-9.94726e-12
-8.81367e-12
-7.91559e-12
-7.18987e-12
-6.59225e-12
-6.09e-12
-5.66039e-12
-5.28594e-12
-4.95492e-12
-4.65749e-12
-4.38756e-12
-4.13933e-12
-3.90965e-12
-3.69485e-12
-3.49346e-12
-3.30306e-12
-3.12301e-12
-2.95158e-12
-2.78543e-12
-2.62361e-12
-2.46675e-12
-2.31401e-12
-2.16624e-12
-2.02265e-12
-1.88422e-12
-1.75026e-12
-1.62188e-12
-1.49829e-12
-1.38066e-12
-1.26808e-12
-1.16167e-12
-1.06044e-12
-9.65363e-13
-8.75293e-13
-7.91307e-13
-7.12304e-13
-6.38822e-13
-5.69497e-13
-5.05421e-13
-4.45434e-13
-3.90411e-13
-3.39355e-13
-2.9317e-13
-2.51067e-13
-2.13975e-13
-1.80917e-13
-1.51831e-13
-1.24711e-13
-9.87723e-14
-7.44017e-14
-5.56164e-14
-4.43452e-14
-3.71599e-14
-2.93958e-14
-2.322e-14
-1.81777e-14
-1.39797e-14
-1.06504e-14
-7.85067e-15
-5.79191e-15
-4.01303e-15
-2.87309e-15
-1.80317e-15
-1.26928e-15
-6.30688e-16
-4.65639e-16
-1.15506e-16
-1.05171e-16
2.19167e-16
-2.7195e-16
1.14767e-16
-7.91056e-17
8.30175e-17
-9.28189e-17
5.1991e-17
-1.55349e-16
-1.04037e-16
-3.32196e-16
-3.60918e-16
-6.6497e-16
-7.36597e-16
-8.25503e-16
-7.41778e-16
-8.40157e-16
-8.87389e-16
-9.38219e-16
-1.00769e-15
-1.18765e-15
-1.40307e-15
-1.40177e-15
-1.45464e-15
-1.53288e-15
-1.69288e-15
-1.71638e-15
-1.83756e-15
-1.96056e-15
-2.20862e-15
-2.13178e-15
-2.16256e-15
-2.18232e-15
-2.25052e-15
-2.22314e-15
-2.18751e-15
-2.13749e-15
-2.08372e-15
-1.96884e-15
-1.84244e-15
-1.7027e-15
-1.49993e-15
-1.30311e-15
-1.06829e-15
-8.17673e-16
-6.05669e-16
-4.03687e-16
-2.93201e-16
-1.92986e-16
-1.01807e-16
-1.62986e-17
8.83119e-17
1.75483e-16
2.78647e-16
3.86679e-16
4.84757e-16
5.78272e-16
6.54926e-16
7.6947e-16
8.32298e-16
8.84626e-16
8.81064e-16
1.07868e-15
1.18462e-15
1.30596e-15
1.289e-15
1.42277e-15
1.38887e-15
1.38225e-15
1.15735e-15
1.42839e-15
1.43597e-15
1.49901e-15
1.22034e-15
1.55156e-15
1.32413e-15
1.4691e-15
1.22194e-15
4.50931e-15
6.60349e-15
9.21138e-15
9.15935e-15
1.24161e-14
1.18339e-14
1.19251e-14
7.56214e-15
1.14481e-14
1.01213e-14
9.61017e-15
3.53635e-15
2.53508e-15
-3.42646e-15
-8.7938e-15
-1.8251e-14
-2.30594e-14
-3.00859e-14
-3.67227e-14
-4.31497e-14
-5.15402e-14
-5.55377e-14
-6.06724e-14
-5.97918e-14
-7.48557e-14
-7.68596e-14
-8.10699e-14
-6.88259e-14
-6.83667e-14
-5.73043e-14
-5.62874e-14
)
;

boundaryField
{
    inandouthalf11
    {
        type            cyclic;
        value           nonuniform List<scalar> 
100
(
-1.06075e-10
-1.05483e-10
-1.05405e-10
-1.05486e-10
-1.05525e-10
-1.05538e-10
-1.05554e-10
-1.05576e-10
-1.05597e-10
-1.05619e-10
-1.05641e-10
-1.05663e-10
-1.05686e-10
-1.05708e-10
-1.05731e-10
-1.05754e-10
-1.05777e-10
-1.058e-10
-1.05824e-10
-1.05847e-10
-1.05871e-10
-1.05895e-10
-1.05919e-10
-1.05944e-10
-1.05968e-10
-1.05993e-10
-1.06018e-10
-1.06043e-10
-1.06068e-10
-1.06094e-10
-1.06119e-10
-1.06145e-10
-1.06171e-10
-1.06198e-10
-1.06224e-10
-1.06251e-10
-1.06278e-10
-1.06305e-10
-1.06333e-10
-1.06361e-10
-1.06389e-10
-1.06417e-10
-1.06446e-10
-1.06475e-10
-1.06505e-10
-1.06535e-10
-1.06565e-10
-1.06595e-10
-1.06626e-10
-1.06657e-10
-1.06689e-10
-1.06721e-10
-1.06753e-10
-1.06786e-10
-1.06819e-10
-1.06853e-10
-1.06887e-10
-1.06922e-10
-1.06957e-10
-1.06992e-10
-1.07028e-10
-1.07064e-10
-1.07101e-10
-1.07139e-10
-1.07177e-10
-1.07215e-10
-1.07254e-10
-1.07294e-10
-1.07334e-10
-1.07375e-10
-1.07416e-10
-1.07458e-10
-1.07501e-10
-1.07544e-10
-1.07588e-10
-1.07632e-10
-1.07678e-10
-1.07723e-10
-1.0777e-10
-1.07818e-10
-1.07866e-10
-1.07915e-10
-1.07964e-10
-1.08015e-10
-1.08066e-10
-1.08119e-10
-1.08172e-10
-1.08226e-10
-1.08281e-10
-1.08337e-10
-1.08394e-10
-1.08452e-10
-1.08512e-10
-1.08572e-10
-1.08634e-10
-1.08696e-10
-1.0876e-10
-1.08826e-10
-1.08892e-10
-1.0896e-10
)
;
    }
    inandouthalf12
    {
        type            cyclic;
        value           nonuniform List<scalar> 
100
(
1.06075e-10
1.05483e-10
1.05405e-10
1.05486e-10
1.05525e-10
1.05538e-10
1.05554e-10
1.05576e-10
1.05597e-10
1.05619e-10
1.05641e-10
1.05663e-10
1.05686e-10
1.05708e-10
1.05731e-10
1.05754e-10
1.05777e-10
1.058e-10
1.05824e-10
1.05847e-10
1.05871e-10
1.05895e-10
1.05919e-10
1.05944e-10
1.05968e-10
1.05993e-10
1.06018e-10
1.06043e-10
1.06068e-10
1.06094e-10
1.06119e-10
1.06145e-10
1.06171e-10
1.06198e-10
1.06224e-10
1.06251e-10
1.06278e-10
1.06305e-10
1.06333e-10
1.06361e-10
1.06389e-10
1.06417e-10
1.06446e-10
1.06475e-10
1.06505e-10
1.06535e-10
1.06565e-10
1.06595e-10
1.06626e-10
1.06657e-10
1.06689e-10
1.06721e-10
1.06753e-10
1.06786e-10
1.06819e-10
1.06853e-10
1.06887e-10
1.06922e-10
1.06957e-10
1.06992e-10
1.07028e-10
1.07064e-10
1.07101e-10
1.07139e-10
1.07177e-10
1.07215e-10
1.07254e-10
1.07294e-10
1.07334e-10
1.07375e-10
1.07416e-10
1.07458e-10
1.07501e-10
1.07544e-10
1.07588e-10
1.07632e-10
1.07678e-10
1.07723e-10
1.0777e-10
1.07818e-10
1.07866e-10
1.07915e-10
1.07964e-10
1.08015e-10
1.08066e-10
1.08119e-10
1.08172e-10
1.08226e-10
1.08281e-10
1.08337e-10
1.08394e-10
1.08452e-10
1.08512e-10
1.08572e-10
1.08634e-10
1.08696e-10
1.0876e-10
1.08826e-10
1.08892e-10
1.0896e-10
)
;
    }
    inandouthalf21
    {
        type            cyclic;
        value           nonuniform List<scalar> 
100
(
-1.0903e-10
-1.09101e-10
-1.09173e-10
-1.09248e-10
-1.09324e-10
-1.09401e-10
-1.09481e-10
-1.09562e-10
-1.09645e-10
-1.09731e-10
-1.09818e-10
-1.09908e-10
-1.1e-10
-1.10095e-10
-1.10192e-10
-1.10292e-10
-1.10394e-10
-1.105e-10
-1.10609e-10
-1.10721e-10
-1.10837e-10
-1.10956e-10
-1.11079e-10
-1.11207e-10
-1.11338e-10
-1.11475e-10
-1.11616e-10
-1.11762e-10
-1.11915e-10
-1.12073e-10
-1.12239e-10
-1.12411e-10
-1.12591e-10
-1.12781e-10
-1.12984e-10
-1.132e-10
-1.13429e-10
-1.13674e-10
-1.13945e-10
-1.14254e-10
-1.14588e-10
-1.14985e-10
-1.17725e-10
-1.17317e-10
-1.17821e-10
-1.18698e-10
-1.55594e-10
-4.35273e-09
-1.60044e-09
-2.6189e-09
-6.37936e-09
-1.192e-08
-1.88548e-08
-2.68695e-08
-3.5663e-08
-4.49445e-08
-5.44446e-08
-6.39257e-08
-7.3185e-08
-8.20524e-08
-9.03866e-08
-9.80694e-08
-1.05001e-07
-1.11096e-07
-1.16277e-07
-1.20476e-07
-1.23627e-07
-1.2567e-07
-1.26545e-07
-1.26195e-07
-1.2457e-07
-1.21625e-07
-1.17328e-07
-1.11667e-07
-1.04666e-07
-9.63908e-08
-8.69641e-08
-7.65662e-08
-6.54277e-08
-5.38166e-08
-4.20189e-08
-3.03158e-08
-1.89606e-08
-8.15957e-09
1.93862e-09
1.12454e-08
1.97266e-08
2.73918e-08
3.42819e-08
4.04575e-08
4.59893e-08
5.09505e-08
5.54122e-08
5.94403e-08
6.30943e-08
6.64265e-08
6.94825e-08
7.23014e-08
7.49166e-08
7.73562e-08
)
;
    }
    inandouthalf22
    {
        type            cyclic;
        value           nonuniform List<scalar> 
100
(
1.0903e-10
1.09101e-10
1.09173e-10
1.09248e-10
1.09324e-10
1.09401e-10
1.09481e-10
1.09562e-10
1.09645e-10
1.09731e-10
1.09818e-10
1.09908e-10
1.1e-10
1.10095e-10
1.10192e-10
1.10292e-10
1.10394e-10
1.105e-10
1.10609e-10
1.10721e-10
1.10837e-10
1.10956e-10
1.11079e-10
1.11207e-10
1.11338e-10
1.11475e-10
1.11616e-10
1.11762e-10
1.11915e-10
1.12073e-10
1.12239e-10
1.12411e-10
1.12591e-10
1.12781e-10
1.12984e-10
1.132e-10
1.13429e-10
1.13674e-10
1.13945e-10
1.14254e-10
1.14588e-10
1.14985e-10
1.17725e-10
1.17317e-10
1.17821e-10
1.18698e-10
1.55594e-10
4.35273e-09
1.60044e-09
2.6189e-09
6.37936e-09
1.192e-08
1.88548e-08
2.68695e-08
3.5663e-08
4.49445e-08
5.44446e-08
6.39257e-08
7.3185e-08
8.20524e-08
9.03866e-08
9.80694e-08
1.05001e-07
1.11096e-07
1.16277e-07
1.20476e-07
1.23627e-07
1.2567e-07
1.26545e-07
1.26195e-07
1.2457e-07
1.21625e-07
1.17328e-07
1.11667e-07
1.04666e-07
9.63908e-08
8.69641e-08
7.65662e-08
6.54277e-08
5.38166e-08
4.20189e-08
3.03158e-08
1.89606e-08
8.15957e-09
-1.93862e-09
-1.12454e-08
-1.97266e-08
-2.73918e-08
-3.42819e-08
-4.04575e-08
-4.59893e-08
-5.09505e-08
-5.54122e-08
-5.94403e-08
-6.30943e-08
-6.64265e-08
-6.94825e-08
-7.23014e-08
-7.49166e-08
-7.73562e-08
)
;
    }
    inandouthalf31
    {
        type            cyclic;
        value           nonuniform List<scalar> 
110
(
7.96447e-08
8.34843e-08
8.73683e-08
9.13058e-08
9.53055e-08
9.93755e-08
1.03524e-07
1.07758e-07
1.12084e-07
1.1651e-07
1.21041e-07
1.25684e-07
1.30445e-07
1.35329e-07
1.40341e-07
1.45486e-07
1.5077e-07
1.56197e-07
1.61772e-07
1.67499e-07
1.73383e-07
1.79427e-07
1.85636e-07
1.92013e-07
1.98563e-07
2.05288e-07
2.12191e-07
2.19276e-07
2.26546e-07
2.34003e-07
2.41648e-07
2.49483e-07
2.5751e-07
2.65728e-07
2.74137e-07
2.82736e-07
2.91523e-07
3.00494e-07
3.09644e-07
3.18967e-07
3.28455e-07
3.38098e-07
3.47883e-07
3.57795e-07
3.67816e-07
3.77922e-07
3.88089e-07
3.98285e-07
4.08474e-07
4.18615e-07
4.2866e-07
4.38554e-07
4.48235e-07
4.57637e-07
4.66687e-07
4.75308e-07
4.83424e-07
4.90965e-07
4.97874e-07
5.04115e-07
5.09689e-07
5.1464e-07
5.19067e-07
5.23123e-07
5.27005e-07
5.30936e-07
5.3514e-07
5.39814e-07
5.45118e-07
5.5117e-07
5.58054e-07
5.65826e-07
5.74526e-07
5.84181e-07
5.94809e-07
6.06445e-07
6.1919e-07
6.33123e-07
6.50813e-07
6.66529e-07
6.80195e-07
6.94003e-07
7.0809e-07
7.22462e-07
7.37126e-07
7.52088e-07
7.67353e-07
7.82928e-07
7.9882e-07
8.15034e-07
8.31577e-07
8.48455e-07
8.65677e-07
8.83248e-07
9.01175e-07
9.19467e-07
9.38129e-07
9.57171e-07
9.76599e-07
9.96421e-07
1.01665e-06
1.03728e-06
1.05834e-06
1.07982e-06
1.10173e-06
1.1241e-06
1.14691e-06
1.17019e-06
1.19394e-06
1.21818e-06
)
;
    }
    inandouthalf32
    {
        type            cyclic;
        value           nonuniform List<scalar> 
110
(
-7.96447e-08
-8.34843e-08
-8.73683e-08
-9.13058e-08
-9.53055e-08
-9.93755e-08
-1.03524e-07
-1.07758e-07
-1.12084e-07
-1.1651e-07
-1.21041e-07
-1.25684e-07
-1.30445e-07
-1.35329e-07
-1.40341e-07
-1.45486e-07
-1.5077e-07
-1.56197e-07
-1.61772e-07
-1.67499e-07
-1.73383e-07
-1.79427e-07
-1.85636e-07
-1.92013e-07
-1.98563e-07
-2.05288e-07
-2.12191e-07
-2.19276e-07
-2.26546e-07
-2.34003e-07
-2.41648e-07
-2.49483e-07
-2.5751e-07
-2.65728e-07
-2.74137e-07
-2.82736e-07
-2.91523e-07
-3.00494e-07
-3.09644e-07
-3.18967e-07
-3.28455e-07
-3.38098e-07
-3.47883e-07
-3.57795e-07
-3.67816e-07
-3.77922e-07
-3.88089e-07
-3.98285e-07
-4.08474e-07
-4.18615e-07
-4.2866e-07
-4.38554e-07
-4.48235e-07
-4.57637e-07
-4.66687e-07
-4.75308e-07
-4.83424e-07
-4.90965e-07
-4.97874e-07
-5.04115e-07
-5.09689e-07
-5.1464e-07
-5.19067e-07
-5.23123e-07
-5.27005e-07
-5.30936e-07
-5.3514e-07
-5.39814e-07
-5.45118e-07
-5.5117e-07
-5.58054e-07
-5.65826e-07
-5.74526e-07
-5.84181e-07
-5.94809e-07
-6.06445e-07
-6.1919e-07
-6.33123e-07
-6.50813e-07
-6.66529e-07
-6.80195e-07
-6.94003e-07
-7.0809e-07
-7.22462e-07
-7.37126e-07
-7.52088e-07
-7.67353e-07
-7.82928e-07
-7.9882e-07
-8.15034e-07
-8.31577e-07
-8.48455e-07
-8.65677e-07
-8.83248e-07
-9.01175e-07
-9.19467e-07
-9.38129e-07
-9.57171e-07
-9.76599e-07
-9.96421e-07
-1.01665e-06
-1.03728e-06
-1.05834e-06
-1.07982e-06
-1.10173e-06
-1.1241e-06
-1.14691e-06
-1.17019e-06
-1.19394e-06
-1.21818e-06
)
;
    }
    inandouthalf41
    {
        type            cyclic;
        value           nonuniform List<scalar> 
50
(
1.09039e-06
1.09039e-06
1.09039e-06
1.09039e-06
1.09039e-06
1.09039e-06
1.09039e-06
1.09039e-06
1.09039e-06
1.09039e-06
1.09039e-06
1.09039e-06
1.09039e-06
1.09039e-06
1.09039e-06
1.09039e-06
1.09039e-06
1.09039e-06
1.09039e-06
1.09039e-06
1.09039e-06
1.09039e-06
1.09039e-06
1.09039e-06
1.09039e-06
1.09039e-06
1.09039e-06
1.09039e-06
1.09039e-06
1.09039e-06
1.09039e-06
1.09039e-06
1.09039e-06
1.09039e-06
1.09039e-06
1.09039e-06
1.09039e-06
1.09039e-06
1.09039e-06
1.09039e-06
1.09039e-06
1.09039e-06
1.09039e-06
1.09039e-06
1.09039e-06
1.09039e-06
1.09039e-06
1.09039e-06
1.09039e-06
1.09039e-06
)
;
    }
    inandouthalf42
    {
        type            cyclic;
        value           nonuniform List<scalar> 
50
(
-1.09039e-06
-1.09039e-06
-1.09039e-06
-1.09039e-06
-1.09039e-06
-1.09039e-06
-1.09039e-06
-1.09039e-06
-1.09039e-06
-1.09039e-06
-1.09039e-06
-1.09039e-06
-1.09039e-06
-1.09039e-06
-1.09039e-06
-1.09039e-06
-1.09039e-06
-1.09039e-06
-1.09039e-06
-1.09039e-06
-1.09039e-06
-1.09039e-06
-1.09039e-06
-1.09039e-06
-1.09039e-06
-1.09039e-06
-1.09039e-06
-1.09039e-06
-1.09039e-06
-1.09039e-06
-1.09039e-06
-1.09039e-06
-1.09039e-06
-1.09039e-06
-1.09039e-06
-1.09039e-06
-1.09039e-06
-1.09039e-06
-1.09039e-06
-1.09039e-06
-1.09039e-06
-1.09039e-06
-1.09039e-06
-1.09039e-06
-1.09039e-06
-1.09039e-06
-1.09039e-06
-1.09039e-06
-1.09039e-06
-1.09039e-06
)
;
    }
    top
    {
        type            symmetryPlane;
        value           uniform 0;
    }
    walls
    {
        type            calculated;
        value           uniform 0;
    }
    frontAndBackPlanes
    {
        type            empty;
        value           nonuniform 0();
    }
}


// ************************************************************************* //
