/*--------------------------------*- C++ -*----------------------------------*\
| =========                 |                                                 |
| \\      /  F ield         | OpenFOAM: The Open Source CFD Toolbox           |
|  \\    /   O peration     | Version:  2.4.x                                 |
|   \\  /    A nd           | Web:      www.OpenFOAM.org                      |
|    \\/     M anipulation  |                                                 |
\*---------------------------------------------------------------------------*/
FoamFile
{
    version     2.0;
    format      ascii;
    class       volScalarField;
    location    "12";
    object      ddt0(alpha);
}
// * * * * * * * * * * * * * * * * * * * * * * * * * * * * * * * * * * * * * //

dimensions      [0 0 -1 0 0 0 0];

internalField   nonuniform List<scalar> 
360
(
1.99432e-06
2.98729e-06
2.81045e-06
2.7676e-06
2.91317e-06
3.04995e-06
3.14808e-06
3.23967e-06
3.33739e-06
3.44123e-06
3.54572e-06
3.64561e-06
3.73944e-06
3.82548e-06
3.90344e-06
3.9729e-06
4.03301e-06
4.08288e-06
4.12214e-06
4.15167e-06
4.1698e-06
4.17876e-06
4.17806e-06
4.16828e-06
4.15015e-06
4.12416e-06
4.09079e-06
4.05186e-06
4.00711e-06
3.9574e-06
3.90354e-06
3.84727e-06
3.78672e-06
3.72638e-06
3.66296e-06
3.59957e-06
3.53517e-06
3.47151e-06
3.40903e-06
3.34539e-06
3.28506e-06
3.22528e-06
3.16613e-06
3.11056e-06
3.05582e-06
3.00348e-06
2.95341e-06
2.90388e-06
2.85763e-06
2.81457e-06
2.7717e-06
2.73201e-06
2.6937e-06
2.65809e-06
2.62314e-06
2.59173e-06
2.56029e-06
2.53167e-06
2.50393e-06
2.47675e-06
2.45292e-06
2.42891e-06
2.40741e-06
2.38621e-06
2.36626e-06
2.3468e-06
2.32859e-06
2.31103e-06
2.29382e-06
2.27655e-06
2.26106e-06
2.24635e-06
2.23054e-06
2.21642e-06
2.20213e-06
2.18876e-06
2.17445e-06
2.1602e-06
2.14599e-06
2.13184e-06
2.11725e-06
2.10286e-06
2.08858e-06
2.07419e-06
2.05976e-06
2.04499e-06
2.02994e-06
2.01424e-06
1.99793e-06
1.98112e-06
1.96383e-06
1.94612e-06
1.92817e-06
1.90998e-06
1.89151e-06
1.87272e-06
1.85355e-06
1.83393e-06
1.81387e-06
1.7934e-06
1.7726e-06
1.75156e-06
1.73037e-06
1.70913e-06
1.68792e-06
1.66683e-06
1.64591e-06
1.62523e-06
1.60487e-06
1.58487e-06
1.56522e-06
1.54592e-06
1.52687e-06
1.50792e-06
1.48886e-06
1.46939e-06
1.44918e-06
1.42781e-06
1.40488e-06
1.38003e-06
1.35301e-06
1.32373e-06
1.29242e-06
1.25969e-06
1.2267e-06
1.19516e-06
1.16735e-06
1.14575e-06
1.13252e-06
1.12861e-06
1.13279e-06
1.14057e-06
1.14299e-06
1.12458e-06
1.06078e-06
9.21527e-07
6.93353e-07
4.0782e-07
1.35853e-07
-5.48958e-08
-1.56198e-07
-2.56477e-06
1.44851e-06
-4.7443e-07
-1.29255e-07
-2.10876e-06
0.000282556
-0.000740722
-0.00398369
-0.00220803
-0.00142778
-0.00237199
-0.00396217
-0.00547624
-0.00643693
-0.00663495
-0.00611188
-0.00504555
-0.00367433
-0.00220538
-0.000793365
0.000464038
0.00151973
0.00235827
0.00298572
0.00342065
0.00368775
0.00381371
0.00382539
0.00375046
0.00362007
0.00346417
0.00329172
0.00307104
0.00275084
0.00232178
0.00184286
0.00139476
0.00102593
0.000744624
0.000537923
0.000388094
0.000279587
0.000200586
0.000142612
9.97109e-05
6.77131e-05
4.36889e-05
2.55603e-05
1.18378e-05
1.44127e-06
-6.42163e-06
-1.23385e-05
-1.67497e-05
-1.99888e-05
-2.23104e-05
-2.39107e-05
-2.49417e-05
-2.55225e-05
-2.57466e-05
-2.56878e-05
-2.54023e-05
-2.4926e-05
-2.42895e-05
-2.352e-05
-2.26412e-05
-2.16746e-05
-2.06397e-05
-1.95549e-05
-1.84377e-05
-1.73045e-05
-1.61707e-05
-1.50505e-05
-1.3956e-05
-1.28972e-05
-1.18819e-05
-1.09152e-05
-1.00022e-05
-9.14027e-06
-8.32893e-06
-7.5698e-06
-6.85916e-06
-6.19501e-06
-5.57574e-06
-5.00061e-06
-4.47088e-06
-3.99136e-06
-3.57037e-06
-3.21636e-06
-2.92834e-06
-2.67205e-06
-2.35222e-06
-1.86047e-06
-1.25169e-06
-8.0287e-07
-6.57714e-07
-5.57038e-07
-5.45129e-07
-4.75312e-07
-4.071e-07
-3.42428e-07
-2.82915e-07
-2.29491e-07
-1.82599e-07
-1.42315e-07
-1.08445e-07
-8.05897e-08
-5.83114e-08
-4.06181e-08
-2.80155e-08
-1.76303e-08
-1.17279e-08
-5.22418e-09
-1.71798e-19
-1.45597e-30
-1.07065e-41
-9.31865e-53
-1.06166e-63
-3.28634e-72
-1.73324e-72
-8.76637e-73
-4.33837e-73
-2.15167e-73
-1.0505e-73
-5.0461e-74
-2.38366e-74
-1.10675e-74
-5.0483e-75
-2.26092e-75
-9.93634e-76
-4.2826e-76
-1.80906e-76
-7.4847e-77
-3.03083e-77
-1.2003e-77
-4.64528e-78
-1.75534e-78
-6.47059e-79
-2.32461e-79
-8.12963e-80
-2.7646e-80
-9.13269e-81
-2.92709e-81
-9.08993e-82
-2.73114e-82
-7.92698e-83
-2.21879e-83
-5.97811e-84
-1.54731e-84
-3.83877e-85
-9.10648e-86
-2.06004e-86
-4.43057e-87
-9.0289e-88
-1.73679e-88
-3.13989e-89
-5.30853e-90
-8.34493e-91
-1.2115e-91
-1.61131e-92
-1.94429e-93
-2.10309e-94
-2.00846e-95
-1.66021e-96
-1.15614e-97
-6.52342e-99
-2.80512e-100
-8.23037e-102
-1.26621e-103
-1.17501e-106
-6.53227e-114
-3.69306e-116
-1.03205e-118
-4.47994e-129
-9.97126e-140
-1.68963e-150
-2.08288e-161
-2.26651e-172
-1.88719e-183
-1.36427e-194
-1.98318e-205
-7.8374e-216
-3.99413e-224
-2.14077e-234
-1.37351e-242
-8.75968e-253
-4.73019e-261
-3.71363e-271
-1.63214e-279
-2.40401e-289
-5.8169e-298
-1.60357e-307
3.27689e-319
0
0
0
0
0
0
0
0
0
0
0
0
0
0
0
0
0
0
0
0
0
0
0
0
0
0
0
)
;

boundaryField
{
    inandouthalf11
    {
        type            cyclic;
    }
    inandouthalf12
    {
        type            cyclic;
    }
    inandouthalf21
    {
        type            cyclic;
    }
    inandouthalf22
    {
        type            cyclic;
    }
    inandouthalf31
    {
        type            cyclic;
    }
    inandouthalf32
    {
        type            cyclic;
    }
    inandouthalf41
    {
        type            cyclic;
    }
    inandouthalf42
    {
        type            cyclic;
    }
    top
    {
        type            symmetryPlane;
    }
    walls
    {
        type            calculated;
        value           uniform 1.99432e-06;
    }
    frontAndBackPlanes
    {
        type            empty;
    }
}


// ************************************************************************* //
