/*--------------------------------*- C++ -*----------------------------------*\
| =========                 |                                                 |
| \\      /  F ield         | OpenFOAM: The Open Source CFD Toolbox           |
|  \\    /   O peration     | Version:  2.4.x                                 |
|   \\  /    A nd           | Web:      www.OpenFOAM.org                      |
|    \\/     M anipulation  |                                                 |
\*---------------------------------------------------------------------------*/
FoamFile
{
    version     2.0;
    format      ascii;
    class       volScalarField;
    location    "12";
    object      epsilon_0;
}
// * * * * * * * * * * * * * * * * * * * * * * * * * * * * * * * * * * * * * //

dimensions      [0 2 -3 0 0 0 0];

internalField   nonuniform List<scalar> 
360
(
1.60309e-27
1e-20
1e-20
1e-20
1e-20
1e-20
1e-20
1e-20
1e-20
1e-20
1e-20
1e-20
1e-20
1e-20
1e-20
1e-20
1e-20
1e-20
1e-20
1e-20
1e-20
1e-20
1e-20
1e-20
1e-20
1e-20
1e-20
1e-20
1e-20
1e-20
1e-20
1e-20
1e-20
1e-20
1e-20
1e-20
1e-20
1e-20
1e-20
1e-20
1e-20
1e-20
1e-20
1e-20
1e-20
1e-20
1e-20
1e-20
1e-20
1e-20
1e-20
1e-20
1e-20
1e-20
1e-20
1e-20
1e-20
1e-20
1e-20
1e-20
1e-20
1e-20
1e-20
1e-20
1e-20
1e-20
1e-20
1e-20
1e-20
1e-20
1e-20
1e-20
1e-20
1e-20
1e-20
1e-20
1e-20
1e-20
1e-20
1e-20
1e-20
1e-20
1e-20
1e-20
1e-20
1e-20
1e-20
1e-20
1e-20
1e-20
1e-20
1e-20
1e-20
1e-20
1e-20
1e-20
1e-20
1e-20
1e-20
1e-20
1e-20
1e-20
1e-20
1e-20
1e-20
1e-20
1e-20
1e-20
1e-20
1e-20
1e-20
1e-20
1e-20
1e-20
1e-20
1e-20
1e-20
1e-20
1e-20
1e-20
1e-20
1e-20
1e-20
1e-20
1e-20
1e-20
1e-20
1e-20
1e-20
1e-20
1e-20
1e-20
1.38591e-20
8.25688e-20
7.50997e-19
7.33535e-18
7.57261e-17
8.35556e-16
1.00521e-14
1.35281e-13
2.09169e-12
3.80576e-11
8.30535e-10
2.15733e-08
6.87352e-07
2.72141e-05
0.00125477
0.0340211
0.165256
0.21205
0.216883
0.208484
0.195559
0.181318
0.16712
0.153549
0.140833
0.12903
0.118122
0.108053
0.098755
0.0901591
0.0822001
0.0748199
0.0679681
0.0616014
0.0556841
0.0501863
0.0450838
0.0403572
0.0359908
0.0319721
0.0282906
0.024937
0.0219026
0.0191777
0.0167512
0.0146095
0.0127364
0.0111131
0.00971815
0.0085288
0.00752141
0.00667262
0.00596017
0.00536356
0.00486446
0.00444687
0.00409709
0.00380357
0.00355673
0.0033486
0.00317268
0.0030236
0.00289697
0.0027892
0.00269733
0.00261891
0.00255192
0.00249467
0.00244576
0.00240358
0.002367
0.00233545
0.00230841
0.0022854
0.00226599
0.00224978
0.00223641
0.00222551
0.00221678
0.00220991
0.0022046
0.00220058
0.00219757
0.00219533
0.0021936
0.00219213
0.00219069
0.00218903
0.00218692
0.00218414
0.00218046
0.00217566
0.00216951
0.0021618
0.00215232
0.00214086
0.00212722
0.00211121
0.00209262
0.0020713
0.00204705
0.00201974
0.00198921
0.00195533
0.001918
0.00187712
0.00183263
0.00178449
0.00173268
0.00167722
0.00161818
0.00155565
0.00148977
0.00142073
0.00134878
0.00127423
0.00119742
0.00111878
0.00103882
0.000958077
0.00087718
0.000796808
0.000717694
0.000640608
0.000566339
0.000495668
0.000429334
0.000367998
0.000312197
0.000262301
0.000218479
0.000180676
0.000148618
0.000121834
9.9708e-05
8.15432e-05
6.6626e-05
5.42838e-05
4.39261e-05
3.5071e-05
2.73565e-05
2.05445e-05
1.45178e-05
9.27647e-06
4.93748e-06
1.72592e-06
2.17807e-07
6.1736e-09
8.49407e-11
1.06256e-12
1.24984e-14
1.38322e-16
1.44783e-18
2.21339e-20
1e-20
1e-20
1e-20
1e-20
1e-20
1e-20
1e-20
1e-20
1e-20
1e-20
1e-20
1e-20
1e-20
1e-20
1e-20
1e-20
1e-20
1e-20
1e-20
1e-20
1e-20
1e-20
1e-20
1e-20
1e-20
1e-20
1e-20
1e-20
1e-20
1e-20
1e-20
1e-20
1e-20
1e-20
1e-20
1e-20
1e-20
1e-20
1e-20
1e-20
1e-20
1e-20
1e-20
1e-20
1e-20
1e-20
1e-20
1e-20
1e-20
1e-20
1e-20
1e-20
1e-20
1e-20
1e-20
1e-20
1e-20
1e-20
1e-20
1e-20
1e-20
1e-20
1e-20
1e-20
1e-20
1e-20
1e-20
1e-20
1e-20
1e-20
1e-20
1e-20
1e-20
1e-20
)
;

boundaryField
{
    inandouthalf11
    {
        type            cyclic;
    }
    inandouthalf12
    {
        type            cyclic;
    }
    inandouthalf21
    {
        type            cyclic;
    }
    inandouthalf22
    {
        type            cyclic;
    }
    inandouthalf31
    {
        type            cyclic;
    }
    inandouthalf32
    {
        type            cyclic;
    }
    inandouthalf41
    {
        type            cyclic;
    }
    inandouthalf42
    {
        type            cyclic;
    }
    top
    {
        type            symmetryPlane;
    }
    walls
    {
        type            zeroGradient;
    }
    frontAndBackPlanes
    {
        type            empty;
    }
}


// ************************************************************************* //
