/*--------------------------------*- C++ -*----------------------------------*\
| =========                 |                                                 |
| \\      /  F ield         | OpenFOAM: The Open Source CFD Toolbox           |
|  \\    /   O peration     | Version:  2.4.x                                 |
|   \\  /    A nd           | Web:      www.OpenFOAM.org                      |
|    \\/     M anipulation  |                                                 |
\*---------------------------------------------------------------------------*/
FoamFile
{
    version     2.0;
    format      ascii;
    class       volScalarField;
    location    "12";
    object      epsilon;
}
// * * * * * * * * * * * * * * * * * * * * * * * * * * * * * * * * * * * * * //

dimensions      [0 2 -3 0 0 0 0];

internalField   nonuniform List<scalar> 
360
(
1e-20
1e-20
1e-20
1e-20
1e-20
1e-20
1e-20
1e-20
1e-20
1e-20
1e-20
1e-20
1e-20
1e-20
1e-20
1e-20
1e-20
1e-20
1e-20
1e-20
1e-20
1e-20
1e-20
1e-20
1e-20
1e-20
1e-20
1e-20
1e-20
1e-20
1e-20
1e-20
1e-20
1e-20
1e-20
1e-20
1e-20
1e-20
1e-20
1e-20
1e-20
1e-20
1e-20
1e-20
1e-20
1e-20
1e-20
1e-20
1e-20
1e-20
1e-20
1e-20
1e-20
1e-20
1e-20
1e-20
1e-20
1e-20
1e-20
1e-20
1e-20
1e-20
1e-20
1e-20
1e-20
1e-20
1e-20
1e-20
1e-20
1e-20
1e-20
1e-20
1e-20
1e-20
1e-20
1e-20
1e-20
1e-20
1e-20
1e-20
1e-20
1e-20
1e-20
1e-20
1e-20
1e-20
1e-20
1e-20
1e-20
1e-20
1e-20
1e-20
1e-20
1e-20
1e-20
1e-20
1e-20
1e-20
1e-20
1e-20
1e-20
1e-20
1e-20
1e-20
1e-20
1e-20
1e-20
1e-20
1e-20
1e-20
1e-20
1e-20
1e-20
1e-20
1e-20
1e-20
1e-20
1e-20
1e-20
1e-20
1e-20
1e-20
1e-20
1e-20
1e-20
1e-20
1e-20
1e-20
1e-20
1e-20
1e-20
1e-20
1.38701e-20
8.26822e-20
7.51954e-19
7.34326e-18
7.57905e-17
8.36077e-16
1.00564e-14
1.35317e-13
2.09202e-12
3.80604e-11
8.30551e-10
2.15728e-08
6.87316e-07
2.72122e-05
0.00125467
0.0340193
0.16525
0.212041
0.216871
0.208469
0.195544
0.181303
0.167106
0.153535
0.14082
0.129019
0.118112
0.108045
0.0987492
0.0901551
0.082198
0.0748196
0.0679694
0.0616043
0.0556883
0.0501917
0.0450902
0.0403644
0.0359987
0.0319804
0.028299
0.0249455
0.0219109
0.0191857
0.0167587
0.0146165
0.0127428
0.0111188
0.00972319
0.00853319
0.00752518
0.00667581
0.00596286
0.0053658
0.00486632
0.00444839
0.00409832
0.00380457
0.00355752
0.00334922
0.00317315
0.00302394
0.00289721
0.00278935
0.0026974
0.00261891
0.00255186
0.00249456
0.00244561
0.00240338
0.00236677
0.00233519
0.00230812
0.00228509
0.00226565
0.00224943
0.00223603
0.00222512
0.00221637
0.00220949
0.00220416
0.00220013
0.00219712
0.00219487
0.00219313
0.00219166
0.00219021
0.00218855
0.00218644
0.00218367
0.00217999
0.00217518
0.00216904
0.00216134
0.00215186
0.00214041
0.00212678
0.00211077
0.0020922
0.00207088
0.00204665
0.00201935
0.00198884
0.00195498
0.00191766
0.0018768
0.00183233
0.00178421
0.00173242
0.00167698
0.00161796
0.00155545
0.00148959
0.00142057
0.00134865
0.00127411
0.00119732
0.00111871
0.00103877
0.000958042
0.000877162
0.000796805
0.000717704
0.000640629
0.000566369
0.000495703
0.000429373
0.000368039
0.000312237
0.000262339
0.000218513
0.000180706
0.000148643
0.000121853
9.97231e-05
8.15544e-05
6.66341e-05
5.42896e-05
4.39304e-05
3.50741e-05
2.73591e-05
2.05468e-05
1.45199e-05
9.27845e-06
4.9392e-06
1.72715e-06
2.18125e-07
6.18725e-09
8.51395e-11
1.0651e-12
1.25291e-14
1.38668e-16
1.45152e-18
2.21703e-20
1e-20
1e-20
1e-20
1e-20
1e-20
1e-20
1e-20
1e-20
1e-20
1e-20
1e-20
1e-20
1e-20
1e-20
1e-20
1e-20
1e-20
1e-20
1e-20
1e-20
1e-20
1e-20
1e-20
1e-20
1e-20
1e-20
1e-20
1e-20
1e-20
1e-20
1e-20
1e-20
1e-20
1e-20
1e-20
1e-20
1e-20
1e-20
1e-20
1e-20
1e-20
1e-20
1e-20
1e-20
1e-20
1e-20
1e-20
1e-20
1e-20
1e-20
1e-20
1e-20
1e-20
1e-20
1e-20
1e-20
1e-20
1e-20
1e-20
1e-20
1e-20
1e-20
1e-20
1e-20
1e-20
1e-20
1e-20
1e-20
1e-20
1e-20
1e-20
1e-20
1e-20
1e-20
)
;

boundaryField
{
    inandouthalf11
    {
        type            cyclic;
    }
    inandouthalf12
    {
        type            cyclic;
    }
    inandouthalf21
    {
        type            cyclic;
    }
    inandouthalf22
    {
        type            cyclic;
    }
    inandouthalf31
    {
        type            cyclic;
    }
    inandouthalf32
    {
        type            cyclic;
    }
    inandouthalf41
    {
        type            cyclic;
    }
    inandouthalf42
    {
        type            cyclic;
    }
    top
    {
        type            symmetryPlane;
    }
    walls
    {
        type            zeroGradient;
    }
    frontAndBackPlanes
    {
        type            empty;
    }
}


// ************************************************************************* //
