/*--------------------------------*- C++ -*----------------------------------*\
| =========                 |                                                 |
| \\      /  F ield         | OpenFOAM: The Open Source CFD Toolbox           |
|  \\    /   O peration     | Version:  2.4.x                                 |
|   \\  /    A nd           | Web:      www.OpenFOAM.org                      |
|    \\/     M anipulation  |                                                 |
\*---------------------------------------------------------------------------*/
FoamFile
{
    version     2.0;
    format      ascii;
    class       volVectorField;
    location    "12";
    object      gradPs;
}
// * * * * * * * * * * * * * * * * * * * * * * * * * * * * * * * * * * * * * //

dimensions      [0 1 -2 0 0 0 0];

internalField   nonuniform List<vector> 
360
(
(0 1.55776e-18 0)
(0 1.7162e-18 0)
(0 -1.72685e-21 0)
(0 -2.37967e-19 0)
(-2.90051e-32 -9.92965e-20 0)
(-2.90057e-32 -5.42289e-20 0)
(-1.45033e-32 -7.00836e-20 0)
(0 -8.01583e-20 0)
(-2.90086e-32 -8.15043e-20 0)
(0 -8.219e-20 0)
(-1.45054e-32 -8.24886e-20 0)
(0 -8.28279e-20 0)
(-1.45065e-32 -8.35414e-20 0)
(0 -8.4278e-20 0)
(0 -8.524e-20 0)
(0 -8.62151e-20 0)
(0 -8.69912e-20 0)
(-2.90187e-32 -8.76947e-20 0)
(0 -8.8758e-20 0)
(0 -8.95063e-20 0)
(0 -9.02855e-20 0)
(-1.45117e-32 -9.13997e-20 0)
(0 -9.22094e-20 0)
(0 -9.31517e-20 0)
(0 -9.41188e-20 0)
(-1.45142e-32 -9.49003e-20 0)
(0 -9.59713e-20 0)
(0 -9.70846e-20 0)
(0 -9.78821e-20 0)
(0 -9.88167e-20 0)
(0 -1.00124e-19 0)
(0 -1.00808e-19 0)
(0 -1.02023e-19 0)
(0 -1.03267e-19 0)
(0 -1.04057e-19 0)
(1.45208e-32 -1.05186e-19 0)
(0 -1.06264e-19 0)
(0 -1.07864e-19 0)
(0 -1.08389e-19 0)
(0 -1.09693e-19 0)
(0 -1.11457e-19 0)
(0 -1.1183e-19 0)
(2.90518e-32 -1.13433e-19 0)
(0 -1.14901e-19 0)
(0 -1.15841e-19 0)
(0 -1.17602e-19 0)
(0 -1.18353e-19 0)
(0 -1.19502e-19 0)
(0 -1.21877e-19 0)
(0 -1.22724e-19 0)
(2.90645e-32 -1.23823e-19 0)
(0 -1.25667e-19 0)
(0 -1.27159e-19 0)
(0 -1.28361e-19 0)
(0 -1.30191e-19 0)
(0 -1.31702e-19 0)
(0 -1.33144e-19 0)
(0 -1.35183e-19 0)
(0 -1.36041e-19 0)
(0 -1.38311e-19 0)
(0 -1.40105e-19 0)
(0 -1.41619e-19 0)
(0 -1.4373e-19 0)
(0 -1.45328e-19 0)
(0 -1.47155e-19 0)
(0 -1.49134e-19 0)
(0 -1.51399e-19 0)
(0 -1.53274e-19 0)
(0 -1.54775e-19 0)
(0 -1.57242e-19 0)
(0 -1.60168e-19 0)
(0 -1.61483e-19 0)
(0 -1.6369e-19 0)
(0 -1.6651e-19 0)
(0 -1.6895e-19 0)
(0 -1.71274e-19 0)
(0 -1.73388e-19 0)
(0 -1.76233e-19 0)
(0 -1.79029e-19 0)
(0 -1.8153e-19 0)
(0 -1.84257e-19 0)
(0 -1.8734e-19 0)
(0 -1.90269e-19 0)
(0 -1.93295e-19 0)
(0 -1.96425e-19 0)
(0 -1.99676e-19 0)
(0 -2.02973e-19 0)
(0 -2.0627e-19 0)
(0 -2.09808e-19 0)
(0 -2.13463e-19 0)
(0 -2.17169e-19 0)
(0 -2.21068e-19 0)
(0 -2.25132e-19 0)
(0 -2.29276e-19 0)
(0 -2.33555e-19 0)
(0 -2.37976e-19 0)
(0 -2.42531e-19 0)
(0 -2.47235e-19 0)
(0 -2.52121e-19 0)
(0 -2.5719e-19 0)
(0 -2.62446e-19 0)
(0 -2.67911e-19 0)
(0 -2.73585e-19 0)
(0 -2.79465e-19 0)
(0 -2.85565e-19 0)
(0 -2.91896e-19 0)
(0 -2.98469e-19 0)
(0 -3.053e-19 0)
(0 -3.12405e-19 0)
(0 -3.19798e-19 0)
(0 -3.27495e-19 0)
(0 -3.35516e-19 0)
(0 -3.4388e-19 0)
(0 -3.52612e-19 0)
(0 -3.61739e-19 0)
(0 -3.71293e-19 0)
(0 -3.81309e-19 0)
(0 -3.91826e-19 0)
(0 -4.02891e-19 0)
(0 -4.14549e-19 0)
(0 -4.26842e-19 0)
(0 -4.39807e-19 0)
(0 -4.53467e-19 0)
(0 -4.67849e-19 0)
(0 -4.8301e-19 0)
(0 -4.99086e-19 0)
(0 -5.16297e-19 0)
(0 -5.34871e-19 0)
(0 -5.54857e-19 0)
(0 -5.75988e-19 0)
(0 -5.98089e-19 0)
(0 -6.75692e-19 0)
(0 5.00278e-16 0)
(0 5.19623e-15 0)
(0 4.57261e-14 0)
(0 4.13414e-13 0)
(0 3.92869e-12 0)
(0 3.9984e-11 0)
(0 4.47391e-10 0)
(0 5.66392e-09 0)
(0 8.33222e-08 0)
(0 1.44929e-06 0)
(0 3.27602e-05 0)
(0 0.00177374 0)
(0 0.0989988 0)
(0 1.72754 0)
(0 3.90424 0)
(0 2.97 0)
(0 -1.38718 0)
(0 -2.86657 0)
(0 -3.43887 0)
(0 -3.53269 0)
(0 -3.49635 0)
(0 -3.42088 0)
(0 -3.33217 0)
(0 -3.24232 0)
(0 -3.1563 0)
(0 -3.07543 0)
(0 -2.99926 0)
(0 -2.92668 0)
(0 -2.85649 0)
(0 -2.78769 0)
(0 -2.71947 0)
(0 -2.65126 0)
(0 -2.58273 0)
(0 -2.51374 0)
(0 -2.44438 0)
(0 -2.37495 0)
(0 -2.30606 0)
(0 -2.23913 0)
(0 -2.17723 0)
(0 -2.12515 0)
(0 -2.08591 0)
(0 -2.05349 0)
(0 -2.0089 0)
(0 -1.92909 0)
(0 -1.80453 0)
(0 -1.6468 0)
(0 -1.47819 0)
(0 -1.31715 0)
(0 -1.17308 0)
(0 -1.04846 0)
(0 -0.942305 0)
(0 -0.852336 0)
(0 -0.776047 0)
(0 -0.711145 0)
(0 -0.655674 0)
(0 -0.608015 0)
(0 -0.56685 0)
(0 -0.531108 0)
(0 -0.499921 0)
(0 -0.47258 0)
(0 -0.448505 0)
(0 -0.427219 0)
(0 -0.408325 0)
(0 -0.391492 0)
(0 -0.376437 0)
(0 -0.362921 0)
(0 -0.350734 0)
(0 -0.339691 0)
(0 -0.32961 0)
(0 -0.320308 0)
(-1.43459e-16 -0.311595 0)
(0 -0.303351 0)
(0 -0.295468 0)
(1.62294e-16 -0.287838 0)
(0 -0.280348 0)
(-1.76702e-16 -0.272893 0)
(0 -0.265372 0)
(9.63968e-17 -0.257698 0)
(0 -0.249803 0)
(0 -0.241641 0)
(0 -0.233184 0)
(1.15168e-16 -0.224429 0)
(0 -0.215382 0)
(0 -0.206061 0)
(0 -0.196487 0)
(0 -0.186683 0)
(0 -0.176664 0)
(-7.46278e-17 -0.166447 0)
(0 -0.156042 0)
(-8.07666e-17 -0.145467 0)
(0 -0.134754 0)
(-4.34255e-17 -0.123957 0)
(0 -0.113165 0)
(0 -0.102519 0)
(0 -0.0922471 0)
(0 -0.082654 0)
(0 -0.0740326 0)
(2.56245e-17 -0.0664453 0)
(0 -0.0593269 0)
(0 -0.0511945 0)
(0 -0.0407282 0)
(0 -0.0294881 0)
(0 -0.0217369 0)
(0 -0.0239082 0)
(0 -0.0143828 0)
(0 0 0)
(0 0 0)
(0 0 0)
(0 0 0)
(0 0 0)
(0 0 0)
(0 0 0)
(0 0 0)
(0 0 0)
(0 0 0)
(0 0 0)
(0 0 0)
(0 0 0)
(0 0 0)
(0 0 0)
(0 0 0)
(0 0 0)
(0 0 0)
(0 0 0)
(0 0 0)
(0 0 0)
(0 0 0)
(0 0 0)
(0 0 0)
(0 0 0)
(0 0 0)
(0 0 0)
(0 0 0)
(0 0 0)
(0 0 0)
(0 0 0)
(0 0 0)
(0 0 0)
(0 0 0)
(0 0 0)
(0 0 0)
(0 0 0)
(0 0 0)
(0 0 0)
(0 0 0)
(0 0 0)
(0 0 0)
(0 0 0)
(0 0 0)
(0 0 0)
(0 0 0)
(0 0 0)
(0 0 0)
(0 0 0)
(0 0 0)
(0 0 0)
(0 0 0)
(0 0 0)
(0 0 0)
(0 0 0)
(0 0 0)
(0 0 0)
(0 0 0)
(0 0 0)
(0 0 0)
(0 0 0)
(0 0 0)
(0 0 0)
(0 0 0)
(0 0 0)
(0 0 0)
(0 0 0)
(0 0 0)
(0 0 0)
(0 0 0)
(0 0 0)
(0 0 0)
(0 0 0)
(0 0 0)
(0 0 0)
(0 0 0)
(0 0 0)
(0 0 0)
(0 0 0)
(0 0 0)
(0 0 0)
(0 0 0)
(0 0 0)
(0 0 0)
(0 0 0)
(0 0 0)
(0 0 0)
(0 0 0)
(0 0 0)
(0 0 0)
(0 0 0)
(0 0 0)
(0 0 0)
(0 0 0)
(0 0 0)
(0 0 0)
(0 0 0)
(0 0 0)
(0 0 0)
(0 0 0)
(0 0 0)
(0 0 0)
(0 0 0)
(0 0 0)
(0 0 0)
(0 0 0)
(0 0 0)
(0 0 0)
(0 0 0)
(0 0 0)
(0 0 0)
(0 0 0)
(0 0 0)
(0 0 0)
(0 0 0)
(0 0 0)
(0 0 0)
(0 0 0)
(0 0 0)
(0 0 0)
(0 0 0)
(0 0 0)
(0 0 0)
)
;

boundaryField
{
    inandouthalf11
    {
        type            cyclic;
    }
    inandouthalf12
    {
        type            cyclic;
    }
    inandouthalf21
    {
        type            cyclic;
    }
    inandouthalf22
    {
        type            cyclic;
    }
    inandouthalf31
    {
        type            cyclic;
    }
    inandouthalf32
    {
        type            cyclic;
    }
    inandouthalf41
    {
        type            cyclic;
    }
    inandouthalf42
    {
        type            cyclic;
    }
    top
    {
        type            symmetryPlane;
    }
    walls
    {
        type            calculated;
        value           uniform (0 0 0);
    }
    frontAndBackPlanes
    {
        type            empty;
    }
}


// ************************************************************************* //
