/*--------------------------------*- C++ -*----------------------------------*\
| =========                 |                                                 |
| \\      /  F ield         | OpenFOAM: The Open Source CFD Toolbox           |
|  \\    /   O peration     | Version:  2.4.x                                 |
|   \\  /    A nd           | Web:      www.OpenFOAM.org                      |
|    \\/     M anipulation  |                                                 |
\*---------------------------------------------------------------------------*/
FoamFile
{
    version     2.0;
    format      ascii;
    class       volVectorField;
    location    "12";
    object      gradPf;
}
// * * * * * * * * * * * * * * * * * * * * * * * * * * * * * * * * * * * * * //

dimensions      [0 1 -2 0 0 0 0];

internalField   nonuniform List<vector> 
360
(
(0 72.5748 0)
(0 81.0864 0)
(0 -0.0895101 0)
(0 -12.6762 0)
(-3.34406e-14 -5.20813 0)
(-3.34413e-14 -2.81933 0)
(-3.34423e-14 -3.62397 0)
(0 -4.12029 0)
(-3.34447e-14 -4.16143 0)
(0 -4.16786 0)
(-3.34472e-14 -4.1544 0)
(0 -4.14269 0)
(-3.34497e-14 -4.14945 0)
(0 -4.15676 0)
(0 -4.17453 0)
(0 -4.19217 0)
(0 -4.19946 0)
(-3.34562e-14 -4.20266 0)
(0 -4.22238 0)
(0 -4.22656 0)
(0 -4.23143 0)
(-3.34617e-14 -4.25143 0)
(0 -4.25646 0)
(0 -4.26693 0)
(0 -4.27785 0)
(-1.67337e-14 -4.27969 0)
(0 -4.2938 0)
(0 -4.30908 0)
(0 -4.30955 0)
(0 -4.31543 0)
(0 -4.33669 0)
(0 -4.3304 0)
(0 -4.34579 0)
(0 -4.36195 0)
(0 -4.35778 0)
(3.34827e-14 -4.36737 0)
(0 -4.37384 0)
(0 -4.40077 0)
(0 -4.38327 0)
(0 -4.39612 0)
(0 -4.42673 0)
(0 -4.40107 0)
(3.34945e-14 -4.42288 0)
(0 -4.43868 0)
(0 -4.43279 0)
(0 -4.45744 0)
(0 -4.44301 0)
(0 -4.44251 0)
(0 -4.4864 0)
(0 -4.47298 0)
(1.67546e-14 -4.46762 0)
(0 -4.48847 0)
(0 -4.49515 0)
(0 -4.49088 0)
(0 -4.507 0)
(0 -4.51138 0)
(0 -4.5117 0)
(0 -4.53142 0)
(0 -4.51031 0)
(0 -4.53463 0)
(0 -4.54234 0)
(0 -4.53908 0)
(0 -4.55413 0)
(0 -4.55122 0)
(0 -4.55441 0)
(0 -4.56076 0)
(0 -4.57435 0)
(0 -4.57458 0)
(0 -4.56253 0)
(0 -4.57725 0)
(0 -4.60352 0)
(0 -4.58193 0)
(0 -4.58407 0)
(0 -4.602 0)
(0 -4.60701 0)
(0 -4.60744 0)
(0 -4.60038 0)
(0 -4.61104 0)
(0 -4.6183 0)
(0 -4.61607 0)
(0 -4.61759 0)
(0 -4.62598 0)
(0 -4.62833 0)
(0 -4.63086 0)
(0 -4.63367 0)
(0 -4.63696 0)
(0 -4.639 0)
(0 -4.63865 0)
(0 -4.64125 0)
(0 -4.64387 0)
(0 -4.64494 0)
(0 -4.64738 0)
(0 -4.65043 0)
(0 -4.65218 0)
(0 -4.65363 0)
(0 -4.65481 0)
(0 -4.6554 0)
(0 -4.65558 0)
(0 -4.65576 0)
(0 -4.65581 0)
(0 -4.65561 0)
(0 -4.65532 0)
(0 -4.65474 0)
(0 -4.65363 0)
(0 -4.65198 0)
(0 -4.64979 0)
(0 -4.64698 0)
(0 -4.64357 0)
(0 -4.63953 0)
(0 -4.63482 0)
(0 -4.6294 0)
(0 -4.62323 0)
(0 -4.61629 0)
(0 -4.60858 0)
(0 -4.60011 0)
(0 -4.59088 0)
(0 -4.58093 0)
(0 -4.57031 0)
(0 -4.55905 0)
(0 -4.54716 0)
(0 -4.53455 0)
(0 -4.52099 0)
(0 -4.50615 0)
(0 -4.48965 0)
(0 -4.47146 0)
(0 -4.45211 0)
(0 -4.43266 0)
(0 -4.41397 0)
(0 -4.39516 0)
(0 -4.37304 0)
(0 -4.34549 0)
(0 -4.3199 0)
(0 -4.3159 0)
(0 -4.34412 0)
(0 -4.3788 0)
(0 -4.38385 0)
(0 -4.38159 0)
(0 -4.46206 0)
(0 -4.66223 0)
(0 -4.76368 0)
(0 -4.91001 0)
(0 -14.4387 0)
(0 -10.6591 0)
(0 -0.271692 0)
(0 -3.76332 0)
(0 -7.85542 0)
(0 -9.66374 0)
(0 -5.58217 0)
(0 0 0)
(0 0 0)
(0 0 0)
(0 0 0)
(0 0 0)
(0 0 0)
(0 0 0)
(0 0 0)
(0 0 0)
(0 0 0)
(0 0 0)
(0 0 0)
(0 0 0)
(0 0 0)
(0 0 0)
(0 0 0)
(0 0 0)
(0 0 0)
(0 0 0)
(0 0 0)
(0 0 0)
(0 0 0)
(0 0 0)
(0 0 0)
(0 0 0)
(0 0 0)
(0 0 0)
(0 0 0)
(0 0 0)
(0 0 0)
(0 0 0)
(0 0 0)
(0 0 0)
(0 0 0)
(0 0 0)
(0 0 0)
(0 0 0)
(0 0 0)
(0 0 0)
(0 0 0)
(0 0 0)
(0 0 0)
(0 0 0)
(0 0 0)
(0 0 0)
(0 0 0)
(0 0 0)
(0 0 0)
(0 0 0)
(0 0 0)
(0 0 0)
(0 0 0)
(0 0 0)
(0 0 0)
(0 0 0)
(0 0 0)
(0 0 0)
(0 0 0)
(0 0 0)
(0 0 0)
(0 0 0)
(0 0 0)
(0 0 0)
(0 0 0)
(0 0 0)
(0 0 0)
(0 0 0)
(0 0 0)
(0 0 0)
(0 0 0)
(0 0 0)
(0 0 0)
(0 0 0)
(0 0 0)
(0 0 0)
(0 0 0)
(0 0 0)
(0 0 0)
(0 0 0)
(0 0 0)
(0 0 0)
(0 0 0)
(0 0 0)
(0 0 0)
(0 0 0)
(0 0 0)
(0 0 0)
(0 0 0)
(0 0 0)
(0 0 0)
(0 0 0)
(0 0 0)
(0 0 0)
(0 0 0)
(0 0 0)
(0 0 0)
(0 0 0)
(0 0 0)
(0 0 0)
(0 0 0)
(0 0 0)
(0 0 0)
(0 0 0)
(0 0 0)
(0 0 0)
(0 0 0)
(0 0 0)
(0 0 0)
(0 0 0)
(0 0 0)
(0 0 0)
(0 0 0)
(0 0 0)
(0 0 0)
(0 0 0)
(0 0 0)
(0 0 0)
(0 0 0)
(0 0 0)
(0 0 0)
(0 0 0)
(0 0 0)
(0 0 0)
(0 0 0)
(0 0 0)
(0 0 0)
(0 0 0)
(0 0 0)
(0 0 0)
(0 0 0)
(0 0 0)
(0 0 0)
(0 0 0)
(0 0 0)
(0 0 0)
(0 0 0)
(0 0 0)
(0 0 0)
(0 0 0)
(0 0 0)
(0 0 0)
(0 0 0)
(0 0 0)
(0 0 0)
(0 0 0)
(0 0 0)
(0 0 0)
(0 0 0)
(0 0 0)
(0 0 0)
(0 0 0)
(0 0 0)
(0 0 0)
(0 0 0)
(0 0 0)
(0 0 0)
(0 0 0)
(0 0 0)
(0 0 0)
(0 0 0)
(0 0 0)
(0 0 0)
(0 0 0)
(0 0 0)
(0 0 0)
(0 0 0)
(0 0 0)
(0 0 0)
(0 0 0)
(0 0 0)
(0 0 0)
(0 0 0)
(0 0 0)
(0 0 0)
(0 0 0)
(0 0 0)
(0 0 0)
(0 0 0)
(0 0 0)
(0 0 0)
(0 0 0)
(0 0 0)
(0 0 0)
(0 0 0)
(0 0 0)
(0 0 0)
(0 0 0)
(0 0 0)
(0 0 0)
(0 0 0)
(0 0 0)
(0 0 0)
(0 0 0)
(0 0 0)
(0 0 0)
(0 0 0)
(0 0 0)
(0 0 0)
(0 0 0)
(0 0 0)
(0 0 0)
(0 0 0)
(0 0 0)
(0 0 0)
(0 0 0)
(0 0 0)
(0 0 0)
(0 0 0)
(0 0 0)
(0 0 0)
(0 0 0)
(0 0 0)
)
;

boundaryField
{
    inandouthalf11
    {
        type            cyclic;
    }
    inandouthalf12
    {
        type            cyclic;
    }
    inandouthalf21
    {
        type            cyclic;
    }
    inandouthalf22
    {
        type            cyclic;
    }
    inandouthalf31
    {
        type            cyclic;
    }
    inandouthalf32
    {
        type            cyclic;
    }
    inandouthalf41
    {
        type            cyclic;
    }
    inandouthalf42
    {
        type            cyclic;
    }
    top
    {
        type            symmetryPlane;
    }
    walls
    {
        type            calculated;
        value           uniform (0 0 0);
    }
    frontAndBackPlanes
    {
        type            empty;
    }
}


// ************************************************************************* //
