/*--------------------------------*- C++ -*----------------------------------*\
| =========                 |                                                 |
| \\      /  F ield         | OpenFOAM: The Open Source CFD Toolbox           |
|  \\    /   O peration     | Version:  2.4.x                                 |
|   \\  /    A nd           | Web:      www.OpenFOAM.org                      |
|    \\/     M anipulation  |                                                 |
\*---------------------------------------------------------------------------*/
FoamFile
{
    version     2.0;
    format      ascii;
    class       volScalarField;
    location    "12";
    object      k;
}
// * * * * * * * * * * * * * * * * * * * * * * * * * * * * * * * * * * * * * //

dimensions      [0 2 -2 0 0 0 0];

internalField   nonuniform List<scalar> 
360
(
1e-20
1e-20
1e-20
1e-20
1e-20
1e-20
1e-20
1e-20
1e-20
1e-20
1e-20
1e-20
1e-20
1e-20
1e-20
1e-20
1e-20
1e-20
1e-20
1e-20
1e-20
1e-20
1e-20
1e-20
1e-20
1e-20
1e-20
1e-20
1e-20
1e-20
1e-20
1e-20
1e-20
1e-20
1e-20
1e-20
1e-20
1e-20
1e-20
1e-20
1e-20
1e-20
1e-20
1e-20
1e-20
1e-20
1e-20
1e-20
1e-20
1e-20
1e-20
1e-20
1e-20
1e-20
1e-20
1e-20
1e-20
1e-20
1e-20
1e-20
1e-20
1e-20
1e-20
1e-20
1e-20
1e-20
1e-20
1e-20
1e-20
1e-20
1e-20
1e-20
1e-20
1e-20
1e-20
1e-20
1e-20
1e-20
1e-20
1e-20
1e-20
1e-20
1e-20
1e-20
1e-20
1e-20
1e-20
1e-20
1e-20
1e-20
1e-20
1e-20
1e-20
1e-20
1e-20
1e-20
1e-20
1e-20
1e-20
1e-20
1e-20
1e-20
1e-20
1e-20
1e-20
1e-20
1e-20
1e-20
1e-20
1e-20
1e-20
1e-20
1e-20
1e-20
1e-20
1e-20
1e-20
1e-20
1e-20
1e-20
1e-20
1e-20
1e-20
1e-20
1e-20
1e-20
1e-20
1e-20
1e-20
1e-20
1e-20
1e-20
1e-20
3.96972e-20
3.18436e-19
2.75861e-18
2.49492e-17
2.37341e-16
2.4186e-15
2.71049e-14
3.43757e-13
5.06847e-12
9.02495e-11
1.88061e-09
4.73113e-08
1.47565e-06
5.25332e-05
0.00109684
0.00462858
0.00678355
0.00793692
0.00861066
0.00901447
0.00924661
0.00936184
0.00939251
0.00935848
0.00927243
0.00914297
0.00897642
0.00877774
0.00855118
0.0083005
0.00802923
0.00774066
0.00743801
0.00712436
0.00680278
0.0064763
0.00614794
0.00582072
0.00549768
0.00518185
0.0048762
0.00458359
0.00430663
0.00404761
0.00380837
0.00359026
0.00339404
0.00321988
0.00306734
0.00293546
0.00282284
0.00272782
0.00264856
0.0025832
0.00252995
0.00248714
0.00245326
0.00242696
0.00240711
0.00239269
0.00238286
0.00237691
0.00237422
0.00237427
0.00237663
0.00238093
0.00238684
0.0023941
0.00240255
0.00241213
0.00242269
0.00243411
0.00244626
0.00245901
0.00247225
0.00248585
0.0024997
0.00251367
0.00252765
0.00254151
0.00255513
0.00256839
0.00258114
0.00259328
0.00260465
0.00261512
0.00262456
0.00263281
0.00263974
0.00264518
0.002649
0.00265104
0.00265114
0.00264914
0.00264488
0.00263821
0.00262896
0.00261698
0.00260211
0.00258419
0.00256308
0.00253862
0.00251067
0.00247911
0.0024438
0.00240465
0.00236154
0.00231441
0.00226319
0.00220784
0.00214835
0.00208473
0.00201705
0.0019454
0.00186991
0.00179077
0.00170824
0.00162264
0.00153433
0.00144379
0.00135156
0.00125826
0.00116461
0.0010714
0.000979476
0.00088975
0.000803139
0.00072053
0.00064273
0.000570399
0.000503995
0.000443723
0.000389517
0.000341045
0.000297761
0.000258966
0.000223892
0.00019178
0.000161948
0.000133843
0.000107086
8.15166e-05
5.72403e-05
3.47229e-05
1.4926e-05
2.41877e-06
7.8611e-08
1.08534e-09
1.34931e-11
1.57795e-13
1.73691e-15
1.80032e-17
1.81414e-19
1.02939e-20
1e-20
1e-20
1e-20
1e-20
1e-20
1e-20
1e-20
1e-20
1e-20
1e-20
1e-20
1e-20
1e-20
1e-20
1e-20
1e-20
1e-20
1e-20
1e-20
1e-20
1e-20
1e-20
1e-20
1e-20
1e-20
1e-20
1e-20
1e-20
1e-20
1e-20
1e-20
1e-20
1e-20
1e-20
1e-20
1e-20
1e-20
1e-20
1e-20
1e-20
1e-20
1e-20
1e-20
1e-20
1e-20
1e-20
1e-20
1e-20
1e-20
1e-20
1e-20
1e-20
1e-20
1e-20
1e-20
1e-20
1e-20
1e-20
1e-20
1e-20
1e-20
1e-20
1e-20
1e-20
1e-20
1e-20
1e-20
1e-20
1e-20
1e-20
1e-20
1e-20
1e-20
)
;

boundaryField
{
    inandouthalf11
    {
        type            cyclic;
    }
    inandouthalf12
    {
        type            cyclic;
    }
    inandouthalf21
    {
        type            cyclic;
    }
    inandouthalf22
    {
        type            cyclic;
    }
    inandouthalf31
    {
        type            cyclic;
    }
    inandouthalf32
    {
        type            cyclic;
    }
    inandouthalf41
    {
        type            cyclic;
    }
    inandouthalf42
    {
        type            cyclic;
    }
    top
    {
        type            symmetryPlane;
    }
    walls
    {
        type            zeroGradient;
    }
    frontAndBackPlanes
    {
        type            empty;
    }
}


// ************************************************************************* //
