/*--------------------------------*- C++ -*----------------------------------*\
| =========                 |                                                 |
| \\      /  F ield         | OpenFOAM: The Open Source CFD Toolbox           |
|  \\    /   O peration     | Version:  2.4.x                                 |
|   \\  /    A nd           | Web:      www.OpenFOAM.org                      |
|    \\/     M anipulation  |                                                 |
\*---------------------------------------------------------------------------*/
FoamFile
{
    version     2.0;
    format      ascii;
    class       volScalarField;
    location    "12";
    object      k_0;
}
// * * * * * * * * * * * * * * * * * * * * * * * * * * * * * * * * * * * * * //

dimensions      [0 2 -2 0 0 0 0];

internalField   nonuniform List<scalar> 
360
(
1e-20
1e-20
1e-20
1e-20
1e-20
1e-20
1e-20
1e-20
1e-20
1e-20
1e-20
1e-20
1e-20
1e-20
1e-20
1e-20
1e-20
1e-20
1e-20
1e-20
1e-20
1e-20
1e-20
1e-20
1e-20
1e-20
1e-20
1e-20
1e-20
1e-20
1e-20
1e-20
1e-20
1e-20
1e-20
1e-20
1e-20
1e-20
1e-20
1e-20
1e-20
1e-20
1e-20
1e-20
1e-20
1e-20
1e-20
1e-20
1e-20
1e-20
1e-20
1e-20
1e-20
1e-20
1e-20
1e-20
1e-20
1e-20
1e-20
1e-20
1e-20
1e-20
1e-20
1e-20
1e-20
1e-20
1e-20
1e-20
1e-20
1e-20
1e-20
1e-20
1e-20
1e-20
1e-20
1e-20
1e-20
1e-20
1e-20
1e-20
1e-20
1e-20
1e-20
1e-20
1e-20
1e-20
1e-20
1e-20
1e-20
1e-20
1e-20
1e-20
1e-20
1e-20
1e-20
1e-20
1e-20
1e-20
1e-20
1e-20
1e-20
1e-20
1e-20
1e-20
1e-20
1e-20
1e-20
1e-20
1e-20
1e-20
1e-20
1e-20
1e-20
1e-20
1e-20
1e-20
1e-20
1e-20
1e-20
1e-20
1e-20
1e-20
1e-20
1e-20
1e-20
1e-20
1e-20
1e-20
1e-20
1e-20
1e-20
1e-20
1e-20
3.96408e-20
3.17995e-19
2.7553e-18
2.49251e-17
2.37171e-16
2.4174e-15
2.70963e-14
3.43692e-13
5.06799e-12
9.02467e-11
1.88064e-09
4.73136e-08
1.47576e-06
5.25375e-05
0.0010969
0.00462874
0.00678381
0.00793726
0.00861105
0.00901489
0.00924703
0.00936225
0.00939288
0.00935878
0.00927265
0.00914311
0.00897645
0.00877766
0.00855098
0.00830018
0.00802879
0.00774011
0.00743733
0.00712358
0.0068019
0.00647533
0.00614689
0.00581962
0.00549653
0.00518067
0.00487502
0.00458241
0.00430549
0.00404651
0.00380734
0.0035893
0.00339318
0.00321911
0.00306667
0.00293488
0.00282237
0.00272743
0.00264826
0.00258298
0.0025298
0.00248705
0.00245321
0.00242697
0.00240715
0.00239277
0.00238298
0.00237705
0.00237439
0.00237446
0.00237684
0.00238116
0.00238708
0.00239436
0.00240282
0.00241241
0.00242298
0.00243441
0.00244657
0.00245933
0.00247258
0.00248619
0.00250004
0.00251402
0.002528
0.00254187
0.00255549
0.00256875
0.00258151
0.00259364
0.00260501
0.00261548
0.00262492
0.00263317
0.00264009
0.00264554
0.00264936
0.00265139
0.00265148
0.00264947
0.00264521
0.00263853
0.00262928
0.00261729
0.0026024
0.00258448
0.00256335
0.00253888
0.00251092
0.00247935
0.00244403
0.00240486
0.00236174
0.00231459
0.00226335
0.00220799
0.00214848
0.00208485
0.00201715
0.00194548
0.00186997
0.00179082
0.00170827
0.00162265
0.00153433
0.00144378
0.00135153
0.00125822
0.00116456
0.00107134
0.00097941
0.000889681
0.000803068
0.00072046
0.000642662
0.000570336
0.000503938
0.000443674
0.000389474
0.000341011
0.000297733
0.000258943
0.000223874
0.000191765
0.000161935
0.000133831
0.000107075
8.15059e-05
5.72298e-05
3.47128e-05
1.4917e-05
2.41546e-06
7.8437e-08
1.08277e-09
1.34605e-11
1.57405e-13
1.73252e-15
1.79567e-17
1.80953e-19
1.02916e-20
1e-20
1e-20
1e-20
1e-20
1e-20
1e-20
1e-20
1e-20
1e-20
1e-20
1e-20
1e-20
1e-20
1e-20
1e-20
1e-20
1e-20
1e-20
1e-20
1e-20
1e-20
1e-20
1e-20
1e-20
1e-20
1e-20
1e-20
1e-20
1e-20
1e-20
1e-20
1e-20
1e-20
1e-20
1e-20
1e-20
1e-20
1e-20
1e-20
1e-20
1e-20
1e-20
1e-20
1e-20
1e-20
1e-20
1e-20
1e-20
1e-20
1e-20
1e-20
1e-20
1e-20
1e-20
1e-20
1e-20
1e-20
1e-20
1e-20
1e-20
1e-20
1e-20
1e-20
1e-20
1e-20
1e-20
1e-20
1e-20
1e-20
1e-20
1e-20
1e-20
1e-20
)
;

boundaryField
{
    inandouthalf11
    {
        type            cyclic;
    }
    inandouthalf12
    {
        type            cyclic;
    }
    inandouthalf21
    {
        type            cyclic;
    }
    inandouthalf22
    {
        type            cyclic;
    }
    inandouthalf31
    {
        type            cyclic;
    }
    inandouthalf32
    {
        type            cyclic;
    }
    inandouthalf41
    {
        type            cyclic;
    }
    inandouthalf42
    {
        type            cyclic;
    }
    top
    {
        type            symmetryPlane;
    }
    walls
    {
        type            zeroGradient;
    }
    frontAndBackPlanes
    {
        type            empty;
    }
}


// ************************************************************************* //
