/*--------------------------------*- C++ -*----------------------------------*\
| =========                 |                                                 |
| \\      /  F ield         | OpenFOAM: The Open Source CFD Toolbox           |
|  \\    /   O peration     | Version:  2.4.x                                 |
|   \\  /    A nd           | Web:      www.OpenFOAM.org                      |
|    \\/     M anipulation  |                                                 |
\*---------------------------------------------------------------------------*/
FoamFile
{
    version     2.0;
    format      ascii;
    class       volScalarField;
    location    "12";
    object      mua;
}
// * * * * * * * * * * * * * * * * * * * * * * * * * * * * * * * * * * * * * //

dimensions      [1 -1 -1 0 0 0 0];

internalField   nonuniform List<scalar> 
360
(
5.57931e+07
3.95048e+07
4.76462e+07
4.71465e+07
4.3391e+07
4.11105e+07
3.96858e+07
3.83312e+07
3.69404e+07
3.55743e+07
3.42861e+07
3.31103e+07
3.20521e+07
3.11073e+07
3.02663e+07
2.95207e+07
2.88673e+07
2.83037e+07
2.78232e+07
2.74191e+07
2.709e+07
2.68255e+07
2.66217e+07
2.6475e+07
2.63807e+07
2.63359e+07
2.63361e+07
2.6374e+07
2.64495e+07
2.65604e+07
2.67003e+07
2.68659e+07
2.70579e+07
2.72647e+07
2.74918e+07
2.77337e+07
2.79874e+07
2.82447e+07
2.85071e+07
2.87783e+07
2.90411e+07
2.93045e+07
2.95674e+07
2.9815e+07
3.00547e+07
3.02816e+07
3.04974e+07
3.07073e+07
3.08916e+07
3.1052e+07
3.12044e+07
3.13357e+07
3.14459e+07
3.15359e+07
3.16082e+07
3.16543e+07
3.16861e+07
3.16946e+07
3.16898e+07
3.16696e+07
3.16202e+07
3.1556e+07
3.14703e+07
3.13708e+07
3.12585e+07
3.11334e+07
3.09914e+07
3.08378e+07
3.06801e+07
3.05143e+07
3.03259e+07
3.01279e+07
2.99322e+07
2.97218e+07
2.95008e+07
2.92731e+07
2.90491e+07
2.8824e+07
2.85937e+07
2.83613e+07
2.81292e+07
2.78924e+07
2.76506e+07
2.7406e+07
2.71594e+07
2.69125e+07
2.66666e+07
2.64248e+07
2.6187e+07
2.59517e+07
2.57185e+07
2.54861e+07
2.52526e+07
2.50176e+07
2.47815e+07
2.45449e+07
2.43083e+07
2.40724e+07
2.38371e+07
2.36017e+07
2.3365e+07
2.31258e+07
2.28826e+07
2.26339e+07
2.23785e+07
2.21153e+07
2.18431e+07
2.15607e+07
2.12671e+07
2.09616e+07
2.06438e+07
2.03139e+07
1.99726e+07
1.96218e+07
1.92637e+07
1.89017e+07
1.85397e+07
1.81818e+07
1.78323e+07
1.74946e+07
1.71711e+07
1.68618e+07
1.65633e+07
1.62673e+07
1.59586e+07
1.56146e+07
1.5206e+07
1.4702e+07
1.40813e+07
1.33445e+07
1.25219e+07
1.16712e+07
1.0873e+07
1.02415e+07
9.96188e+06
1.03508e+07
1.19926e+07
1.61851e+07
2.63869e+07
5.24823e+07
1.11747e+08
1.25645e+08
3.05848e+07
3.34449e+07
5.49323e+07
2.98414e+07
0.113024
0.0186532
0.011591
0.00962358
0.00840776
0.00754561
0.00693833
0.00651775
0.00623377
0.00604625
0.00592326
0.00584054
0.00578054
0.00573128
0.00568507
0.00563724
0.00558524
0.00552794
0.00546514
0.0053972
0.00532486
0.0052491
0.00517101
0.00509173
0.00501239
0.00493401
0.00485748
0.00478348
0.00471243
0.00464451
0.00457973
0.00451796
0.00445905
0.00440286
0.00434924
0.00429808
0.00424924
0.00420262
0.00415809
0.00411553
0.00407481
0.00403583
0.00399844
0.00396253
0.00392799
0.00389469
0.00386253
0.0038314
0.00380119
0.00377181
0.00374316
0.00371516
0.00368771
0.00366074
0.00363418
0.00360768
0.00358091
0.00355382
0.00352632
0.00349834
0.00346981
0.00344064
0.00341073
0.00337999
0.00334833
0.00331563
0.00328178
0.00324665
0.00321012
0.00317204
0.00313225
0.00309059
0.00304685
0.00300083
0.00295229
0.00290095
0.00284649
0.00278854
0.00272665
0.00266029
0.00258879
0.00251131
0.00242678
0.00233374
0.00223021
0.00211332
0.00197865
0.00181881
0.00161956
0.00134586
0
0
0
0
0
0
0
0
0
0
0
0
0
0
0
0
0
0
0
0
0
0
0
0
0
0
0
0
0
0
0
0
0
0
0
0
0
0
0
0
0
0
0
0
0
0
0
0
0
0
0
0
0
0
0
0
0
0
0
0
0
0
0
0
0
0
0
0
0
0
0
0
0
0
0
0
0
0
0
0
0
0
0
0
0
0
0
0
0
0
0
0
0
0
0
0
0
0
0
0
0
0
0
0
0
0
0
0
0
0
0
0
0
0
0
0
0
0
0
0
0
0
0
0
)
;

boundaryField
{
    inandouthalf11
    {
        type            cyclic;
    }
    inandouthalf12
    {
        type            cyclic;
    }
    inandouthalf21
    {
        type            cyclic;
    }
    inandouthalf22
    {
        type            cyclic;
    }
    inandouthalf31
    {
        type            cyclic;
    }
    inandouthalf32
    {
        type            cyclic;
    }
    inandouthalf41
    {
        type            cyclic;
    }
    inandouthalf42
    {
        type            cyclic;
    }
    top
    {
        type            symmetryPlane;
    }
    walls
    {
        type            calculated;
        value           uniform 1e+30;
    }
    frontAndBackPlanes
    {
        type            empty;
    }
}


// ************************************************************************* //
