/*--------------------------------*- C++ -*----------------------------------*\
| =========                 |                                                 |
| \\      /  F ield         | OpenFOAM: The Open Source CFD Toolbox           |
|  \\    /   O peration     | Version:  2.4.x                                 |
|   \\  /    A nd           | Web:      www.OpenFOAM.org                      |
|    \\/     M anipulation  |                                                 |
\*---------------------------------------------------------------------------*/
FoamFile
{
    version     2.0;
    format      ascii;
    class       volScalarField;
    location    "12";
    object      nutb;
}
// * * * * * * * * * * * * * * * * * * * * * * * * * * * * * * * * * * * * * //

dimensions      [0 2 -1 0 0 0 0];

internalField   nonuniform List<scalar> 
360
(
9e-22
9e-22
9e-22
9e-22
9e-22
9e-22
9e-22
9e-22
9e-22
9e-22
9e-22
9e-22
9e-22
9e-22
9e-22
9e-22
9e-22
9e-22
9e-22
9e-22
9e-22
9e-22
9e-22
9e-22
9e-22
9e-22
9e-22
9e-22
9e-22
9e-22
9e-22
9e-22
9e-22
9e-22
9e-22
9e-22
9e-22
9e-22
9e-22
9e-22
9e-22
9e-22
9e-22
9e-22
9e-22
9e-22
9e-22
9e-22
9e-22
9e-22
9e-22
9e-22
9e-22
9e-22
9e-22
9e-22
9e-22
9e-22
9e-22
9e-22
9e-22
9e-22
9e-22
9e-22
9e-22
9e-22
9e-22
9e-22
9e-22
9e-22
9e-22
9e-22
9e-22
9e-22
9e-22
9e-22
9e-22
9e-22
9e-22
9e-22
9e-22
9e-22
9e-22
9e-22
9e-22
9e-22
9e-22
9e-22
9e-22
9e-22
9e-22
9e-22
9e-22
9e-22
9e-22
9e-22
9e-22
9e-22
9e-22
9e-22
9e-22
9e-22
9e-22
9e-22
9e-22
9e-22
9e-22
9e-22
9e-22
9e-22
9e-22
9e-22
9e-22
9e-22
9e-22
9e-22
9e-22
9e-22
9e-22
9e-22
9e-22
9e-22
9e-22
9e-22
9e-22
9e-22
9e-22
9e-22
9e-22
9e-22
9e-22
9e-22
6.4888e-22
1.71534e-21
1.21366e-20
9.32684e-20
7.39162e-19
6.06377e-18
5.23514e-17
4.88635e-16
5.08369e-15
6.07467e-14
8.82605e-13
1.47548e-11
2.93099e-10
7.20186e-09
1.97962e-07
3.18278e-06
1.1668e-05
1.95316e-05
2.61424e-05
3.2009e-05
3.74005e-05
4.24427e-05
4.72035e-05
5.17128e-05
5.59743e-05
5.99757e-05
6.36974e-05
6.71187e-05
7.02222e-05
7.29968e-05
7.5438e-05
7.75487e-05
7.93388e-05
8.08247e-05
8.20295e-05
8.2982e-05
8.37171e-05
8.42758e-05
8.47051e-05
8.50587e-05
8.53966e-05
8.57854e-05
8.62965e-05
8.70042e-05
8.79831e-05
8.93057e-05
9.10395e-05
9.32438e-05
9.5965e-05
9.92327e-05
0.000103057
0.000107426
0.00011231
0.000117659
0.000123413
0.000129499
0.000135843
0.000142371
0.000149012
0.0001557
0.000162377
0.000168993
0.000175504
0.000181878
0.000188087
0.000194109
0.00019993
0.000205539
0.00021093
0.000216154
0.000221251
0.000226212
0.000231028
0.000235691
0.000240198
0.000244543
0.000248723
0.000252734
0.000256576
0.000260247
0.000263744
0.000267067
0.000270215
0.000273186
0.000275978
0.000278591
0.000281022
0.000283268
0.000285327
0.000287195
0.000288869
0.000290343
0.000291614
0.000292674
0.000293519
0.000294142
0.000294536
0.000294693
0.000294605
0.000294264
0.000293662
0.000292788
0.000291633
0.000290189
0.000288444
0.000286389
0.000284015
0.000281313
0.000278273
0.000274888
0.00027115
0.000267052
0.000262589
0.000257758
0.000252557
0.000246987
0.000241052
0.00023476
0.000228122
0.000221155
0.000213881
0.00020633
0.000198537
0.000190546
0.000182408
0.000174184
0.000165937
0.000157736
0.000149645
0.000141722
0.000134006
0.000126509
0.000119213
0.000112062
0.000104971
9.78433e-05
9.05797e-05
8.31004e-05
7.53505e-05
6.72987e-05
5.89291e-05
5.02303e-05
4.11881e-05
3.17813e-05
2.19694e-05
1.16092e-05
2.41393e-06
8.98901e-08
1.24521e-09
1.53842e-11
1.78859e-13
1.95803e-15
2.00964e-17
1.33603e-19
9.5368e-22
9e-22
9e-22
9e-22
9e-22
9e-22
9e-22
9e-22
9e-22
9e-22
9e-22
9e-22
9e-22
9e-22
9e-22
9e-22
9e-22
9e-22
9e-22
9e-22
9e-22
9e-22
9e-22
9e-22
9e-22
9e-22
9e-22
9e-22
9e-22
9e-22
9e-22
9e-22
9e-22
9e-22
9e-22
9e-22
9e-22
9e-22
9e-22
9e-22
9e-22
9e-22
9e-22
9e-22
9e-22
9e-22
9e-22
9e-22
9e-22
9e-22
9e-22
9e-22
9e-22
9e-22
9e-22
9e-22
9e-22
9e-22
9e-22
9e-22
9e-22
9e-22
9e-22
9e-22
9e-22
9e-22
9e-22
9e-22
9e-22
9e-22
9e-22
9e-22
9e-22
9e-22
)
;

boundaryField
{
    inandouthalf11
    {
        type            cyclic;
    }
    inandouthalf12
    {
        type            cyclic;
    }
    inandouthalf21
    {
        type            cyclic;
    }
    inandouthalf22
    {
        type            cyclic;
    }
    inandouthalf31
    {
        type            cyclic;
    }
    inandouthalf32
    {
        type            cyclic;
    }
    inandouthalf41
    {
        type            cyclic;
    }
    inandouthalf42
    {
        type            cyclic;
    }
    top
    {
        type            symmetryPlane;
    }
    walls
    {
        type            calculated;
        value           uniform 0;
    }
    frontAndBackPlanes
    {
        type            empty;
    }
}


// ************************************************************************* //
