/*--------------------------------*- C++ -*----------------------------------*\
| =========                 |                                                 |
| \\      /  F ield         | OpenFOAM: The Open Source CFD Toolbox           |
|  \\    /   O peration     | Version:  2.4.x                                 |
|   \\  /    A nd           | Web:      www.OpenFOAM.org                      |
|    \\/     M anipulation  |                                                 |
\*---------------------------------------------------------------------------*/
FoamFile
{
    version     2.0;
    format      ascii;
    class       volScalarField;
    location    "12";
    object      p;
}
// * * * * * * * * * * * * * * * * * * * * * * * * * * * * * * * * * * * * * //

dimensions      [1 -1 -2 0 0 0 0];

internalField   nonuniform List<scalar> 
360
(
4892.65
4887.74
4882.84
4877.93
4873.03
4868.12
4863.22
4858.31
4853.41
4848.5
4843.6
4838.69
4833.79
4828.88
4823.98
4819.07
4814.17
4809.26
4804.36
4799.45
4794.55
4789.64
4784.74
4779.83
4774.92
4770.02
4765.11
4760.21
4755.3
4750.4
4745.49
4740.59
4735.68
4730.77
4725.87
4720.96
4716.06
4711.15
4706.25
4701.34
4696.44
4691.53
4686.62
4681.72
4676.81
4671.91
4667
4662.09
4657.19
4652.28
4647.38
4642.47
4637.57
4632.66
4627.75
4622.85
4617.94
4613.04
4608.13
4603.22
4598.32
4593.41
4588.51
4583.6
4578.69
4573.79
4568.88
4563.98
4559.07
4554.16
4549.26
4544.35
4539.44
4534.54
4529.63
4524.73
4519.82
4514.91
4510.01
4505.1
4500.2
4495.29
4490.38
4485.48
4480.57
4475.66
4470.76
4465.85
4460.95
4456.04
4451.13
4446.23
4441.32
4436.41
4431.51
4426.6
4421.69
4416.79
4411.88
4406.98
4402.07
4397.16
4392.26
4387.35
4382.44
4377.54
4372.63
4367.72
4362.82
4357.91
4353.01
4348.1
4343.19
4338.29
4333.38
4328.47
4323.57
4318.66
4313.75
4308.85
4303.94
4299.03
4294.13
4289.22
4284.31
4279.41
4274.5
4269.59
4264.69
4259.78
4254.87
4249.97
4245.06
4240.16
4235.25
4230.34
4225.44
4220.53
4215.62
4210.72
4205.81
4200.9
4196
4191.09
4186.18
4181.28
4176.33
4169.78
4160.59
4153.17
4146.72
4140.68
4134.89
4129.28
4123.81
4118.46
4113.22
4108.07
4103
4098
4093.06
4088.16
4083.31
4078.49
4073.7
4068.94
4064.19
4059.46
4054.74
4050.02
4045.31
4040.61
4035.9
4031.18
4026.46
4021.73
4016.99
4012.24
4007.48
4002.7
3997.91
3993.1
3988.28
3983.45
3978.61
3973.75
3968.89
3964.02
3959.14
3954.26
3949.37
3944.48
3939.58
3934.68
3929.78
3924.88
3919.97
3915.07
3910.16
3905.25
3900.34
3895.38
3890.31
3885.15
3879.88
3874.5
3869.01
3863.41
3857.7
3851.87
3845.93
3839.86
3833.67
3827.35
3820.91
3814.34
3807.63
3800.79
3793.81
3786.69
3779.43
3772.02
3764.46
3756.75
3748.88
3740.85
3732.67
3724.31
3715.79
3707.1
3698.24
3689.19
3679.97
3670.56
3660.96
3651.16
3641.17
3630.98
3620.59
3609.99
3599.17
3588.13
3576.88
3565.39
3553.68
3541.73
3529.54
3517.1
3504.42
3491.47
3478.27
3464.79
3451.05
3437.02
3422.71
3408.11
3393.21
3378
3362.49
3346.65
3330.49
3314
3297.17
3279.99
3262.46
3244.57
3226.31
3207.67
3188.66
3169.25
3149.45
3129.25
3108.63
3087.59
3066.13
3044.22
3021.88
2999.07
2975.8
2952.05
2927.81
2903.09
2877.86
2852.12
2825.86
2799.06
2771.72
2743.82
2715.36
2686.32
2656.7
2626.47
2595.62
2564.15
2532.05
2499.29
2465.86
2431.76
2396.96
2361.46
2325.24
2288.28
2250.57
2212.1
2172.85
2132.8
2091.93
2050.24
2007.7
1964.3
1922.76
1883.52
1844.28
1805.04
1765.8
1726.56
1687.32
1648.08
1608.84
1569.6
1530.36
1491.12
1451.88
1412.64
1373.4
1334.16
1294.92
1255.68
1216.44
1177.2
1137.96
1098.72
1059.48
1020.24
981
941.76
902.52
863.28
824.04
784.8
745.56
706.32
667.08
627.84
588.6
549.36
510.12
470.88
431.64
392.4
353.16
313.92
274.68
235.44
196.2
156.96
117.72
78.48
39.24
-1.78213e-07
)
;

boundaryField
{
    inandouthalf11
    {
        type            cyclic;
    }
    inandouthalf12
    {
        type            cyclic;
    }
    inandouthalf21
    {
        type            cyclic;
    }
    inandouthalf22
    {
        type            cyclic;
    }
    inandouthalf31
    {
        type            cyclic;
    }
    inandouthalf32
    {
        type            cyclic;
    }
    inandouthalf41
    {
        type            cyclic;
    }
    inandouthalf42
    {
        type            cyclic;
    }
    top
    {
        type            symmetryPlane;
    }
    walls
    {
        type            slip;
    }
    frontAndBackPlanes
    {
        type            empty;
    }
}


// ************************************************************************* //
