/*--------------------------------*- C++ -*----------------------------------*\
| =========                 |                                                 |
| \\      /  F ield         | OpenFOAM: The Open Source CFD Toolbox           |
|  \\    /   O peration     | Version:  2.4.x                                 |
|   \\  /    A nd           | Web:      www.OpenFOAM.org                      |
|    \\/     M anipulation  |                                                 |
\*---------------------------------------------------------------------------*/
FoamFile
{
    version     2.0;
    format      ascii;
    class       volScalarField;
    location    "12";
    object      pa;
}
// * * * * * * * * * * * * * * * * * * * * * * * * * * * * * * * * * * * * * //

dimensions      [1 -1 -2 0 0 0 0];

internalField   nonuniform List<scalar> 
360
(
2.90392e-16
2.92914e-16
2.93175e-16
2.92911e-16
2.92789e-16
2.9275e-16
2.92701e-16
2.92637e-16
2.92571e-16
2.92505e-16
2.92438e-16
2.92371e-16
2.92303e-16
2.92236e-16
2.92167e-16
2.92097e-16
2.92027e-16
2.91956e-16
2.91885e-16
2.91813e-16
2.9174e-16
2.91666e-16
2.91592e-16
2.91517e-16
2.91441e-16
2.91365e-16
2.91287e-16
2.91209e-16
2.9113e-16
2.91051e-16
2.9097e-16
2.90888e-16
2.90807e-16
2.90723e-16
2.9064e-16
2.90555e-16
2.90469e-16
2.90383e-16
2.90295e-16
2.90207e-16
2.90117e-16
2.90027e-16
2.89936e-16
2.89843e-16
2.8975e-16
2.89656e-16
2.8956e-16
2.89464e-16
2.89367e-16
2.89267e-16
2.89168e-16
2.89067e-16
2.88965e-16
2.88861e-16
2.88757e-16
2.8865e-16
2.88544e-16
2.88435e-16
2.88326e-16
2.88215e-16
2.88102e-16
2.87989e-16
2.87873e-16
2.87756e-16
2.87638e-16
2.87518e-16
2.87397e-16
2.87274e-16
2.87149e-16
2.87024e-16
2.86895e-16
2.86765e-16
2.86634e-16
2.865e-16
2.86365e-16
2.86228e-16
2.86089e-16
2.85948e-16
2.85804e-16
2.85659e-16
2.85511e-16
2.85361e-16
2.85209e-16
2.85054e-16
2.84897e-16
2.84737e-16
2.84574e-16
2.84409e-16
2.84242e-16
2.84071e-16
2.83897e-16
2.83721e-16
2.83541e-16
2.83358e-16
2.83171e-16
2.82981e-16
2.82788e-16
2.8259e-16
2.82389e-16
2.82184e-16
2.81975e-16
2.81761e-16
2.81543e-16
2.81321e-16
2.81093e-16
2.80861e-16
2.80623e-16
2.8038e-16
2.80132e-16
2.79878e-16
2.79617e-16
2.79351e-16
2.79078e-16
2.78798e-16
2.78511e-16
2.78216e-16
2.77914e-16
2.77603e-16
2.77284e-16
2.76956e-16
2.76618e-16
2.7627e-16
2.75912e-16
2.75543e-16
2.75161e-16
2.74768e-16
2.74361e-16
2.7394e-16
2.73503e-16
2.7305e-16
2.7258e-16
2.72092e-16
2.71498e-16
1.07302e-15
8.58771e-15
7.42287e-14
6.69744e-13
6.35473e-12
6.45618e-11
7.20922e-10
9.10603e-09
1.33653e-07
2.31973e-06
5.21176e-05
0.00281886
0.157119
2.73976
6.30487
6.06848
5.26422
4.33703
3.5089
2.81211
2.23943
1.7759
1.40454
1.109
0.874808
0.689677
0.543521
0.428199
0.337223
0.265454
0.208839
0.164186
0.128979
0.101234
0.0793853
0.0621939
0.0486775
0.0380527
0.029691
0.023093
0.0178803
0.0137878
0.0106295
0.00824707
0.00648151
0.00518032
0.00421506
0.00348866
0.00293218
0.00249786
0.00215275
0.00187395
0.00164529
0.0014552
0.00129523
0.00115915
0.00104225
0.00094095
0.000852469
0.000774637
0.000705733
0.000644378
0.000589459
0.000540067
0.000495455
0.000455004
0.000418199
0.00038461
0.000353562
0.000324553
0.000297436
0.000272085
0.000248389
0.000226255
0.000205599
0.000186348
0.000168438
0.000151809
0.000136405
0.000122171
0.000109053
9.69955e-05
8.59437e-05
7.58425e-05
6.6637e-05
5.82738e-05
5.07007e-05
4.38679e-05
3.77278e-05
3.22351e-05
2.7346e-05
2.30174e-05
1.92067e-05
1.58691e-05
1.29557e-05
1.04125e-05
8.1843e-06
6.22597e-06
4.52812e-06
3.13923e-06
2.11894e-06
1.41343e-06
8.45309e-07
0
0
0
0
0
0
0
0
0
0
0
0
0
0
0
0
0
0
0
0
0
0
0
0
0
0
0
0
0
0
0
0
0
0
0
0
0
0
0
0
0
0
0
0
0
0
0
0
0
0
0
0
0
0
0
0
0
0
0
0
0
0
0
0
0
0
0
0
0
0
0
0
0
0
0
0
0
0
0
0
0
0
0
0
0
0
0
0
0
0
0
0
0
0
0
0
0
0
0
0
0
0
0
0
0
0
0
0
0
0
0
0
0
0
0
0
0
0
0
0
0
0
0
0
)
;

boundaryField
{
    inandouthalf11
    {
        type            cyclic;
    }
    inandouthalf12
    {
        type            cyclic;
    }
    inandouthalf21
    {
        type            cyclic;
    }
    inandouthalf22
    {
        type            cyclic;
    }
    inandouthalf31
    {
        type            cyclic;
    }
    inandouthalf32
    {
        type            cyclic;
    }
    inandouthalf41
    {
        type            cyclic;
    }
    inandouthalf42
    {
        type            cyclic;
    }
    top
    {
        type            symmetryPlane;
    }
    walls
    {
        type            calculated;
        value           uniform 2.90392e-16;
    }
    frontAndBackPlanes
    {
        type            empty;
    }
}


// ************************************************************************* //
