/*--------------------------------*- C++ -*----------------------------------*\
| =========                 |                                                 |
| \\      /  F ield         | OpenFOAM: The Open Source CFD Toolbox           |
|  \\    /   O peration     | Version:  2.4.x                                 |
|   \\  /    A nd           | Web:      www.OpenFOAM.org                      |
|    \\/     M anipulation  |                                                 |
\*---------------------------------------------------------------------------*/
FoamFile
{
    version     2.0;
    format      ascii;
    class       surfaceScalarField;
    location    "12";
    object      phia_0;
}
// * * * * * * * * * * * * * * * * * * * * * * * * * * * * * * * * * * * * * //

dimensions      [0 3 -1 0 0 0 0];

internalField   nonuniform List<scalar> 
359
(
-6.5121e-15
-1.628e-14
-2.54694e-14
-3.45156e-14
-4.4039e-14
-5.40097e-14
-6.43021e-14
-7.4895e-14
-8.58081e-14
-9.70616e-14
-1.08658e-13
-1.20581e-13
-1.32813e-13
-1.45326e-13
-1.58096e-13
-1.71095e-13
-1.8429e-13
-1.97651e-13
-2.11141e-13
-2.24729e-13
-2.38377e-13
-2.52056e-13
-2.65735e-13
-2.79382e-13
-2.92972e-13
-3.06478e-13
-3.19877e-13
-3.33149e-13
-3.46277e-13
-3.59243e-13
-3.72035e-13
-3.84643e-13
-3.97055e-13
-4.09271e-13
-4.21281e-13
-4.33085e-13
-4.44679e-13
-4.56066e-13
-4.6725e-13
-4.78227e-13
-4.89008e-13
-4.99595e-13
-5.09989e-13
-5.20203e-13
-5.30239e-13
-5.40104e-13
-5.49807e-13
-5.5935e-13
-5.68742e-13
-5.77994e-13
-5.87108e-13
-5.96093e-13
-6.04953e-13
-6.13699e-13
-6.22331e-13
-6.30862e-13
-6.39292e-13
-6.47629e-13
-6.55876e-13
-6.64037e-13
-6.7212e-13
-6.80127e-13
-6.88064e-13
-6.95934e-13
-7.0374e-13
-7.11484e-13
-7.1917e-13
-7.268e-13
-7.34375e-13
-7.41895e-13
-7.49367e-13
-7.56792e-13
-7.64167e-13
-7.71498e-13
-7.78784e-13
-7.86028e-13
-7.93227e-13
-8.00382e-13
-8.07492e-13
-8.14558e-13
-8.21578e-13
-8.28554e-13
-8.35485e-13
-8.42371e-13
-8.49212e-13
-8.56008e-13
-8.62756e-13
-8.69456e-13
-8.76105e-13
-8.82701e-13
-8.89244e-13
-8.95732e-13
-9.02163e-13
-9.08538e-13
-9.14856e-13
-9.21115e-13
-9.27315e-13
-9.33454e-13
-9.3953e-13
-9.45543e-13
-9.51492e-13
-9.57375e-13
-9.63193e-13
-9.68945e-13
-9.74632e-13
-9.80254e-13
-9.85811e-13
-9.91306e-13
-9.96739e-13
-1.00211e-12
-1.00742e-12
-1.01268e-12
-1.01788e-12
-1.02302e-12
-1.02811e-12
-1.03313e-12
-1.0381e-12
-1.04301e-12
-1.04785e-12
-1.05261e-12
-1.05729e-12
-1.06189e-12
-1.06639e-12
-1.07079e-12
-1.0751e-12
-1.07931e-12
-1.08344e-12
-1.08751e-12
-1.09155e-12
-1.09559e-12
-1.09966e-12
-1.10378e-12
-1.10792e-12
-1.11202e-12
-1.11594e-12
-1.11943e-12
-1.12219e-12
-1.12404e-12
-1.12506e-12
-1.12551e-12
-1.1257e-12
-1.12568e-12
-1.12631e-12
-1.12652e-12
-1.12665e-12
-1.12653e-12
-2.95004e-12
-1.37805e-13
3.04324e-11
5.80153e-11
8.4853e-11
1.32455e-10
2.21415e-10
3.71654e-10
6.00787e-10
9.22582e-10
1.34638e-09
1.87669e-09
2.51385e-09
3.25435e-09
4.09138e-09
5.01528e-09
6.01354e-09
7.071e-09
8.16974e-09
9.2889e-09
1.04042e-08
1.14875e-08
1.25057e-08
1.34189e-08
1.41753e-08
1.47021e-08
1.49001e-08
1.46596e-08
1.3909e-08
1.26627e-08
1.10198e-08
9.11849e-09
7.08912e-09
5.03287e-09
3.01954e-09
1.09311e-09
-7.21307e-10
-2.41138e-09
-3.97314e-09
-5.40783e-09
-6.71988e-09
-7.91548e-09
-9.00179e-09
-9.98628e-09
-1.08765e-08
-1.16797e-08
-1.24029e-08
-1.30527e-08
-1.36354e-08
-1.41567e-08
-1.46221e-08
-1.50367e-08
-1.54052e-08
-1.57319e-08
-1.60209e-08
-1.62809e-08
-1.6514e-08
-1.6722e-08
-1.69072e-08
-1.70716e-08
-1.72173e-08
-1.73464e-08
-1.74607e-08
-1.75622e-08
-1.76522e-08
-1.77321e-08
-1.78031e-08
-1.7866e-08
-1.79213e-08
-1.79692e-08
-1.80099e-08
-1.80428e-08
-1.80676e-08
-1.80839e-08
-1.80903e-08
-1.80851e-08
-1.80659e-08
-1.80298e-08
-1.79728e-08
-1.78902e-08
-1.77768e-08
-1.76288e-08
-1.7446e-08
-1.7235e-08
-1.70133e-08
-1.68144e-08
-1.66858e-08
-1.66483e-08
-1.66404e-08
-1.65684e-08
-1.67873e-08
-1.69024e-08
-1.70706e-08
-1.70821e-08
-1.69383e-08
-1.66433e-08
-1.62033e-08
-1.5627e-08
-1.49268e-08
-1.41169e-08
-1.32094e-08
-1.22632e-08
-1.12332e-08
-1.0201e-08
-9.00553e-09
-1.45165e-08
-1.01e-07
-1.55271e-07
-1.58689e-07
-1.58481e-07
-1.58484e-07
-1.58471e-07
-1.58456e-07
-1.58439e-07
-1.5842e-07
-1.58401e-07
-1.5838e-07
-1.5836e-07
-1.58341e-07
-1.58324e-07
-1.58309e-07
-1.58295e-07
-1.58284e-07
-1.58276e-07
-1.58269e-07
-1.58264e-07
-1.5826e-07
-1.58256e-07
-1.58252e-07
-1.58247e-07
-1.58239e-07
-1.58222e-07
-1.582e-07
-1.58196e-07
-1.58196e-07
-1.58196e-07
-1.58196e-07
-1.58196e-07
-1.58196e-07
-1.58196e-07
-1.58196e-07
-1.58196e-07
-1.58196e-07
-1.58196e-07
-1.58196e-07
-1.58196e-07
-1.58196e-07
-1.58196e-07
-1.58196e-07
-1.58196e-07
-1.58196e-07
-1.58196e-07
-1.58196e-07
-1.58196e-07
-1.58196e-07
-1.58196e-07
-1.58196e-07
-1.58196e-07
-1.58196e-07
-1.58196e-07
-1.58196e-07
-1.58196e-07
-1.58196e-07
-1.58196e-07
-1.58196e-07
-1.58196e-07
-1.58196e-07
-1.58196e-07
-1.58196e-07
-1.58196e-07
-1.58196e-07
-1.58196e-07
-1.58196e-07
-1.58196e-07
-1.58196e-07
-1.58196e-07
-1.58196e-07
-1.58196e-07
-1.58196e-07
-1.58196e-07
-1.58196e-07
-1.58196e-07
-1.58196e-07
-1.58196e-07
-1.58196e-07
-1.58196e-07
-1.58196e-07
-1.58196e-07
-1.58196e-07
-1.58196e-07
-1.58196e-07
-1.58196e-07
-1.58196e-07
-1.58196e-07
-1.58196e-07
-1.58196e-07
-1.58196e-07
-1.58196e-07
-1.58196e-07
-1.58196e-07
-1.58196e-07
-1.58196e-07
-1.58196e-07
-1.58196e-07
-1.58196e-07
-1.58196e-07
-1.58196e-07
-1.58196e-07
-1.58196e-07
-1.58196e-07
-1.58179e-07
-1.57473e-07
-1.32601e-07
)
;

boundaryField
{
    inandouthalf11
    {
        type            cyclic;
        value           nonuniform List<scalar> 
100
(
1.85891e-38
7.79564e-16
1.6312e-15
2.4132e-15
3.2308e-15
4.10543e-15
5.01863e-15
5.96263e-15
6.93914e-15
7.95063e-15
8.99822e-15
1.00816e-14
1.11993e-14
1.23495e-14
1.35299e-14
1.47384e-14
1.59721e-14
1.72284e-14
1.85041e-14
1.9796e-14
2.11009e-14
2.24157e-14
2.37374e-14
2.5063e-14
2.63896e-14
2.77147e-14
2.90357e-14
3.03504e-14
3.16569e-14
3.29532e-14
3.42379e-14
3.55095e-14
3.6767e-14
3.80094e-14
3.9236e-14
4.04463e-14
4.16399e-14
4.28165e-14
4.39763e-14
4.51191e-14
4.62453e-14
4.7355e-14
4.84486e-14
4.95265e-14
5.05893e-14
5.16375e-14
5.26716e-14
5.36921e-14
5.46996e-14
5.56949e-14
5.66787e-14
5.76513e-14
5.86136e-14
5.95661e-14
6.05093e-14
6.14439e-14
6.23705e-14
6.32895e-14
6.42015e-14
6.51067e-14
6.60058e-14
6.68993e-14
6.77876e-14
6.86711e-14
6.95502e-14
7.0425e-14
7.12961e-14
7.21635e-14
7.30276e-14
7.38884e-14
7.47462e-14
7.56014e-14
7.64541e-14
7.73043e-14
7.81524e-14
7.89984e-14
7.98425e-14
8.06844e-14
8.15242e-14
8.2362e-14
8.31976e-14
8.40312e-14
8.48627e-14
8.56922e-14
8.65198e-14
8.73453e-14
8.81688e-14
8.899e-14
8.98088e-14
9.0625e-14
9.14385e-14
9.22491e-14
9.30568e-14
9.38615e-14
9.46631e-14
9.54617e-14
9.62572e-14
9.70495e-14
9.78385e-14
9.8624e-14
)
;
    }
    inandouthalf12
    {
        type            cyclic;
        value           nonuniform List<scalar> 
100
(
-1.85891e-38
-7.79564e-16
-1.6312e-15
-2.4132e-15
-3.2308e-15
-4.10543e-15
-5.01863e-15
-5.96263e-15
-6.93914e-15
-7.95063e-15
-8.99822e-15
-1.00816e-14
-1.11993e-14
-1.23495e-14
-1.35299e-14
-1.47384e-14
-1.59721e-14
-1.72284e-14
-1.85041e-14
-1.9796e-14
-2.11009e-14
-2.24157e-14
-2.37374e-14
-2.5063e-14
-2.63896e-14
-2.77147e-14
-2.90357e-14
-3.03504e-14
-3.16569e-14
-3.29532e-14
-3.42379e-14
-3.55095e-14
-3.6767e-14
-3.80094e-14
-3.9236e-14
-4.04463e-14
-4.16399e-14
-4.28165e-14
-4.39763e-14
-4.51191e-14
-4.62453e-14
-4.7355e-14
-4.84486e-14
-4.95265e-14
-5.05893e-14
-5.16375e-14
-5.26716e-14
-5.36921e-14
-5.46996e-14
-5.56949e-14
-5.66787e-14
-5.76513e-14
-5.86136e-14
-5.95661e-14
-6.05093e-14
-6.14439e-14
-6.23705e-14
-6.32895e-14
-6.42015e-14
-6.51067e-14
-6.60058e-14
-6.68993e-14
-6.77876e-14
-6.86711e-14
-6.95502e-14
-7.0425e-14
-7.12961e-14
-7.21635e-14
-7.30276e-14
-7.38884e-14
-7.47462e-14
-7.56014e-14
-7.64541e-14
-7.73043e-14
-7.81524e-14
-7.89984e-14
-7.98425e-14
-8.06844e-14
-8.15242e-14
-8.2362e-14
-8.31976e-14
-8.40312e-14
-8.48627e-14
-8.56922e-14
-8.65198e-14
-8.73453e-14
-8.81688e-14
-8.899e-14
-8.98088e-14
-9.0625e-14
-9.14385e-14
-9.22491e-14
-9.30568e-14
-9.38615e-14
-9.46631e-14
-9.54617e-14
-9.62572e-14
-9.70495e-14
-9.78385e-14
-9.8624e-14
)
;
    }
    inandouthalf21
    {
        type            cyclic;
        value           nonuniform List<scalar> 
100
(
9.94061e-14
1.00185e-13
1.0096e-13
1.01732e-13
1.025e-13
1.03266e-13
1.04029e-13
1.04789e-13
1.05547e-13
1.06304e-13
1.07059e-13
1.07813e-13
1.08567e-13
1.09322e-13
1.10076e-13
1.10832e-13
1.11589e-13
1.12347e-13
1.13106e-13
1.13866e-13
1.14626e-13
1.15387e-13
1.16146e-13
1.16906e-13
1.17664e-13
1.18424e-13
1.19187e-13
1.19959e-13
1.20745e-13
1.21554e-13
1.22396e-13
1.2328e-13
1.24211e-13
1.25189e-13
1.26193e-13
1.27175e-13
1.28051e-13
1.28731e-13
1.29167e-13
1.29391e-13
1.29488e-13
1.29542e-13
1.29606e-13
1.29738e-13
1.2982e-13
1.2989e-13
1.30059e-13
3.35548e-08
1.37927e-07
2.33167e-07
3.10397e-07
3.75138e-07
4.30379e-07
4.78201e-07
5.2009e-07
5.57147e-07
5.90214e-07
6.19943e-07
6.4685e-07
6.71341e-07
6.93738e-07
7.14296e-07
7.33216e-07
7.50658e-07
7.66749e-07
7.81591e-07
7.95265e-07
8.07839e-07
8.19374e-07
8.29921e-07
8.3953e-07
8.48251e-07
8.56137e-07
8.63246e-07
8.69642e-07
8.75396e-07
8.80577e-07
8.85252e-07
8.89482e-07
8.93316e-07
8.96797e-07
8.99961e-07
9.02839e-07
9.05459e-07
9.07843e-07
9.10014e-07
9.1199e-07
9.13787e-07
9.15422e-07
9.16908e-07
9.18258e-07
9.19484e-07
9.20596e-07
9.21603e-07
9.22515e-07
9.23339e-07
9.24083e-07
9.24754e-07
9.25357e-07
9.25899e-07
)
;
    }
    inandouthalf22
    {
        type            cyclic;
        value           nonuniform List<scalar> 
100
(
-9.94061e-14
-1.00185e-13
-1.0096e-13
-1.01732e-13
-1.025e-13
-1.03266e-13
-1.04029e-13
-1.04789e-13
-1.05547e-13
-1.06304e-13
-1.07059e-13
-1.07813e-13
-1.08567e-13
-1.09322e-13
-1.10076e-13
-1.10832e-13
-1.11589e-13
-1.12347e-13
-1.13106e-13
-1.13866e-13
-1.14626e-13
-1.15387e-13
-1.16146e-13
-1.16906e-13
-1.17664e-13
-1.18424e-13
-1.19187e-13
-1.19959e-13
-1.20745e-13
-1.21554e-13
-1.22396e-13
-1.2328e-13
-1.24211e-13
-1.25189e-13
-1.26193e-13
-1.27175e-13
-1.28051e-13
-1.28731e-13
-1.29167e-13
-1.29391e-13
-1.29488e-13
-1.29542e-13
-1.29606e-13
-1.29738e-13
-1.2982e-13
-1.2989e-13
-1.30059e-13
-3.35548e-08
-1.37927e-07
-2.33167e-07
-3.10397e-07
-3.75138e-07
-4.30379e-07
-4.78201e-07
-5.2009e-07
-5.57147e-07
-5.90214e-07
-6.19943e-07
-6.4685e-07
-6.71341e-07
-6.93738e-07
-7.14296e-07
-7.33216e-07
-7.50658e-07
-7.66749e-07
-7.81591e-07
-7.95265e-07
-8.07839e-07
-8.19374e-07
-8.29921e-07
-8.3953e-07
-8.48251e-07
-8.56137e-07
-8.63246e-07
-8.69642e-07
-8.75396e-07
-8.80577e-07
-8.85252e-07
-8.89482e-07
-8.93316e-07
-8.96797e-07
-8.99961e-07
-9.02839e-07
-9.05459e-07
-9.07843e-07
-9.10014e-07
-9.1199e-07
-9.13787e-07
-9.15422e-07
-9.16908e-07
-9.18258e-07
-9.19484e-07
-9.20596e-07
-9.21603e-07
-9.22515e-07
-9.23339e-07
-9.24083e-07
-9.24754e-07
-9.25357e-07
-9.25899e-07
)
;
    }
    inandouthalf31
    {
        type            cyclic;
        value           nonuniform List<scalar> 
110
(
9.26388e-07
9.45639e-07
9.65249e-07
9.85223e-07
1.00557e-06
1.0263e-06
1.04742e-06
1.06894e-06
1.09086e-06
1.1132e-06
1.13597e-06
1.15917e-06
1.18282e-06
1.20692e-06
1.23149e-06
1.25653e-06
1.28206e-06
1.30809e-06
1.33463e-06
1.36169e-06
1.38928e-06
1.41742e-06
1.44611e-06
1.47537e-06
1.50521e-06
1.53565e-06
1.56669e-06
1.59836e-06
1.63065e-06
1.6636e-06
1.6972e-06
1.73147e-06
1.76643e-06
1.80209e-06
1.83847e-06
1.87561e-06
1.91346e-06
1.9054e-06
1.93897e-06
1.97293e-06
2.0074e-06
2.04238e-06
2.0779e-06
2.11396e-06
2.1506e-06
2.18782e-06
2.22568e-06
2.26409e-06
2.30335e-06
2.34308e-06
2.38406e-06
2.42533e-06
2.46743e-06
2.51113e-06
2.55574e-06
2.60076e-06
2.64738e-06
2.69522e-06
2.74443e-06
2.79512e-06
2.84739e-06
2.90134e-06
2.95708e-06
3.01468e-06
3.07422e-06
3.13582e-06
3.19935e-06
3.26493e-06
3.33253e-06
3.40212e-06
3.47366e-06
3.54711e-06
3.62241e-06
3.69947e-06
3.77822e-06
3.85854e-06
3.94028e-06
4.02326e-06
4.10656e-06
4.1902e-06
4.27526e-06
4.36203e-06
4.45057e-06
4.54091e-06
4.63308e-06
4.72711e-06
4.82306e-06
4.92096e-06
5.02084e-06
5.12275e-06
5.22673e-06
5.33282e-06
5.44106e-06
5.5515e-06
5.66418e-06
5.77915e-06
5.89645e-06
6.01613e-06
6.13824e-06
6.26283e-06
6.38995e-06
6.51965e-06
6.65198e-06
6.787e-06
6.92476e-06
7.06531e-06
7.20872e-06
7.35503e-06
7.50432e-06
7.65664e-06
)
;
    }
    inandouthalf32
    {
        type            cyclic;
        value           nonuniform List<scalar> 
110
(
-9.26388e-07
-9.45639e-07
-9.65249e-07
-9.85223e-07
-1.00557e-06
-1.0263e-06
-1.04742e-06
-1.06894e-06
-1.09086e-06
-1.1132e-06
-1.13597e-06
-1.15917e-06
-1.18282e-06
-1.20692e-06
-1.23149e-06
-1.25653e-06
-1.28206e-06
-1.30809e-06
-1.33463e-06
-1.36169e-06
-1.38928e-06
-1.41742e-06
-1.44611e-06
-1.47537e-06
-1.50521e-06
-1.53565e-06
-1.56669e-06
-1.59836e-06
-1.63065e-06
-1.6636e-06
-1.6972e-06
-1.73147e-06
-1.76643e-06
-1.80209e-06
-1.83847e-06
-1.87561e-06
-1.91346e-06
-1.9054e-06
-1.93897e-06
-1.97293e-06
-2.0074e-06
-2.04238e-06
-2.0779e-06
-2.11396e-06
-2.1506e-06
-2.18782e-06
-2.22568e-06
-2.26409e-06
-2.30335e-06
-2.34308e-06
-2.38406e-06
-2.42533e-06
-2.46743e-06
-2.51113e-06
-2.55574e-06
-2.60076e-06
-2.64738e-06
-2.69522e-06
-2.74443e-06
-2.79512e-06
-2.84739e-06
-2.90134e-06
-2.95708e-06
-3.01468e-06
-3.07422e-06
-3.13582e-06
-3.19935e-06
-3.26493e-06
-3.33253e-06
-3.40212e-06
-3.47366e-06
-3.54711e-06
-3.62241e-06
-3.69947e-06
-3.77822e-06
-3.85854e-06
-3.94028e-06
-4.02326e-06
-4.10656e-06
-4.1902e-06
-4.27526e-06
-4.36203e-06
-4.45057e-06
-4.54091e-06
-4.63308e-06
-4.72711e-06
-4.82306e-06
-4.92096e-06
-5.02084e-06
-5.12275e-06
-5.22673e-06
-5.33282e-06
-5.44106e-06
-5.5515e-06
-5.66418e-06
-5.77915e-06
-5.89645e-06
-6.01613e-06
-6.13824e-06
-6.26283e-06
-6.38995e-06
-6.51965e-06
-6.65198e-06
-6.787e-06
-6.92476e-06
-7.06531e-06
-7.20872e-06
-7.35503e-06
-7.50432e-06
-7.65664e-06
)
;
    }
    inandouthalf41
    {
        type            cyclic;
        value           nonuniform List<scalar> 
50
(
6.85347e-06
6.85347e-06
6.85347e-06
6.85347e-06
6.85347e-06
6.85347e-06
6.85347e-06
6.85347e-06
6.85347e-06
6.85347e-06
6.85347e-06
6.85347e-06
6.85347e-06
6.85347e-06
6.85347e-06
6.85347e-06
6.85347e-06
6.85347e-06
6.85347e-06
6.85347e-06
6.85347e-06
6.85347e-06
6.85347e-06
6.85347e-06
6.85347e-06
6.85347e-06
6.85347e-06
6.85347e-06
6.85347e-06
6.85347e-06
6.85347e-06
6.85347e-06
6.85347e-06
6.85347e-06
6.85347e-06
6.85347e-06
6.85347e-06
6.85347e-06
6.85347e-06
6.85347e-06
6.85347e-06
6.85347e-06
6.85347e-06
6.85347e-06
6.85347e-06
6.85347e-06
6.85347e-06
6.85347e-06
6.85344e-06
6.85269e-06
)
;
    }
    inandouthalf42
    {
        type            cyclic;
        value           nonuniform List<scalar> 
50
(
-6.85347e-06
-6.85347e-06
-6.85347e-06
-6.85347e-06
-6.85347e-06
-6.85347e-06
-6.85347e-06
-6.85347e-06
-6.85347e-06
-6.85347e-06
-6.85347e-06
-6.85347e-06
-6.85347e-06
-6.85347e-06
-6.85347e-06
-6.85347e-06
-6.85347e-06
-6.85347e-06
-6.85347e-06
-6.85347e-06
-6.85347e-06
-6.85347e-06
-6.85347e-06
-6.85347e-06
-6.85347e-06
-6.85347e-06
-6.85347e-06
-6.85347e-06
-6.85347e-06
-6.85347e-06
-6.85347e-06
-6.85347e-06
-6.85347e-06
-6.85347e-06
-6.85347e-06
-6.85347e-06
-6.85347e-06
-6.85347e-06
-6.85347e-06
-6.85347e-06
-6.85347e-06
-6.85347e-06
-6.85347e-06
-6.85347e-06
-6.85347e-06
-6.85347e-06
-6.85347e-06
-6.85347e-06
-6.85344e-06
-6.85269e-06
)
;
    }
    top
    {
        type            symmetryPlane;
        value           uniform 0;
    }
    walls
    {
        type            fixedValue;
        value           uniform 0;
    }
    frontAndBackPlanes
    {
        type            empty;
        value           nonuniform 0();
    }
}


// ************************************************************************* //
