/*--------------------------------*- C++ -*----------------------------------*\
| =========                 |                                                 |
| \\      /  F ield         | OpenFOAM: The Open Source CFD Toolbox           |
|  \\    /   O peration     | Version:  2.4.x                                 |
|   \\  /    A nd           | Web:      www.OpenFOAM.org                      |
|    \\/     M anipulation  |                                                 |
\*---------------------------------------------------------------------------*/
FoamFile
{
    version     2.0;
    format      ascii;
    class       surfaceScalarField;
    location    "12";
    object      phia;
}
// * * * * * * * * * * * * * * * * * * * * * * * * * * * * * * * * * * * * * //

dimensions      [0 3 -1 0 0 0 0];

internalField   nonuniform List<scalar> 
359
(
-6.51061e-15
-1.62762e-14
-2.54635e-14
-3.45076e-14
-4.40286e-14
-5.39968e-14
-6.42867e-14
-7.4877e-14
-8.57875e-14
-9.70383e-14
-1.08632e-13
-1.20553e-13
-1.32781e-13
-1.45292e-13
-1.5806e-13
-1.71055e-13
-1.84249e-13
-1.97606e-13
-2.11094e-13
-2.2468e-13
-2.38326e-13
-2.52004e-13
-2.6568e-13
-2.79326e-13
-2.92914e-13
-3.06419e-13
-3.19816e-13
-3.33087e-13
-3.46214e-13
-3.59179e-13
-3.7197e-13
-3.84578e-13
-3.96989e-13
-4.09205e-13
-4.21214e-13
-4.33017e-13
-4.44611e-13
-4.55998e-13
-4.67181e-13
-4.78158e-13
-4.88939e-13
-4.99525e-13
-5.09919e-13
-5.20133e-13
-5.30168e-13
-5.40034e-13
-5.49736e-13
-5.59278e-13
-5.6867e-13
-5.77922e-13
-5.87035e-13
-5.9602e-13
-6.0488e-13
-6.13625e-13
-6.22257e-13
-6.30787e-13
-6.39216e-13
-6.47552e-13
-6.55799e-13
-6.63959e-13
-6.72041e-13
-6.80047e-13
-6.87984e-13
-6.95853e-13
-7.03658e-13
-7.11401e-13
-7.19086e-13
-7.26715e-13
-7.34289e-13
-7.41808e-13
-7.49279e-13
-7.56703e-13
-7.64077e-13
-7.71406e-13
-7.78691e-13
-7.85934e-13
-7.93132e-13
-8.00285e-13
-8.07394e-13
-8.14459e-13
-8.21478e-13
-8.28452e-13
-8.35382e-13
-8.42267e-13
-8.49107e-13
-8.55901e-13
-8.62648e-13
-8.69346e-13
-8.75994e-13
-8.82589e-13
-8.8913e-13
-8.95616e-13
-9.02047e-13
-9.0842e-13
-9.14737e-13
-9.20995e-13
-9.27193e-13
-9.3333e-13
-9.39406e-13
-9.45417e-13
-9.51364e-13
-9.57246e-13
-9.63063e-13
-9.68813e-13
-9.74499e-13
-9.8012e-13
-9.85676e-13
-9.9117e-13
-9.96602e-13
-1.00197e-12
-1.00728e-12
-1.01254e-12
-1.01774e-12
-1.02288e-12
-1.02796e-12
-1.03299e-12
-1.03796e-12
-1.04286e-12
-1.0477e-12
-1.05246e-12
-1.05714e-12
-1.06173e-12
-1.06623e-12
-1.07064e-12
-1.07494e-12
-1.07915e-12
-1.08328e-12
-1.08735e-12
-1.09139e-12
-1.09543e-12
-1.0995e-12
-1.10361e-12
-1.10775e-12
-1.11185e-12
-1.11577e-12
-1.11926e-12
-1.12202e-12
-1.12387e-12
-1.12489e-12
-1.12534e-12
-1.12553e-12
-1.12551e-12
-1.12614e-12
-1.12635e-12
-1.12648e-12
-1.12636e-12
-2.9753e-12
-9.43575e-13
2.87218e-11
5.59646e-11
8.25871e-11
1.29998e-10
2.18769e-10
3.68798e-10
5.97684e-10
9.19199e-10
1.34266e-09
1.8726e-09
2.50934e-09
3.24939e-09
4.08596e-09
5.00938e-09
6.00718e-09
7.06421e-09
8.16257e-09
9.28141e-09
1.03965e-08
1.14797e-08
1.2498e-08
1.34114e-08
1.41684e-08
1.46962e-08
1.48957e-08
1.46571e-08
1.39088e-08
1.26647e-08
1.10237e-08
9.12389e-09
7.09557e-09
5.04004e-09
3.02718e-09
1.10103e-09
-7.13209e-10
-2.40319e-09
-3.96491e-09
-5.39959e-09
-6.71165e-09
-7.90728e-09
-8.9936e-09
-9.97812e-09
-1.08683e-08
-1.16715e-08
-1.23948e-08
-1.30446e-08
-1.36273e-08
-1.41486e-08
-1.4614e-08
-1.50286e-08
-1.5397e-08
-1.57237e-08
-1.60127e-08
-1.62728e-08
-1.65058e-08
-1.67138e-08
-1.6899e-08
-1.70633e-08
-1.7209e-08
-1.73381e-08
-1.74524e-08
-1.75538e-08
-1.76439e-08
-1.77238e-08
-1.77948e-08
-1.78576e-08
-1.79129e-08
-1.79609e-08
-1.80016e-08
-1.80345e-08
-1.80593e-08
-1.80757e-08
-1.80821e-08
-1.8077e-08
-1.80579e-08
-1.80219e-08
-1.79651e-08
-1.78827e-08
-1.77696e-08
-1.76218e-08
-1.74393e-08
-1.72285e-08
-1.70071e-08
-1.68085e-08
-1.66803e-08
-1.6643e-08
-1.66351e-08
-1.65634e-08
-1.67829e-08
-1.68987e-08
-1.70674e-08
-1.70794e-08
-1.69361e-08
-1.66415e-08
-1.6202e-08
-1.56263e-08
-1.49266e-08
-1.41171e-08
-1.32101e-08
-1.22643e-08
-1.12349e-08
-1.0203e-08
-9.00906e-09
-1.45285e-08
-1.01024e-07
-1.55276e-07
-1.58689e-07
-1.58481e-07
-1.58484e-07
-1.58471e-07
-1.58456e-07
-1.58439e-07
-1.5842e-07
-1.58401e-07
-1.5838e-07
-1.5836e-07
-1.58341e-07
-1.58324e-07
-1.58309e-07
-1.58295e-07
-1.58284e-07
-1.58276e-07
-1.58269e-07
-1.58264e-07
-1.5826e-07
-1.58256e-07
-1.58252e-07
-1.58247e-07
-1.58239e-07
-1.58222e-07
-1.582e-07
-1.58196e-07
-1.58196e-07
-1.58196e-07
-1.58196e-07
-1.58196e-07
-1.58196e-07
-1.58196e-07
-1.58196e-07
-1.58196e-07
-1.58196e-07
-1.58196e-07
-1.58196e-07
-1.58196e-07
-1.58196e-07
-1.58196e-07
-1.58196e-07
-1.58196e-07
-1.58196e-07
-1.58196e-07
-1.58196e-07
-1.58196e-07
-1.58196e-07
-1.58196e-07
-1.58196e-07
-1.58196e-07
-1.58196e-07
-1.58196e-07
-1.58196e-07
-1.58196e-07
-1.58196e-07
-1.58196e-07
-1.58196e-07
-1.58196e-07
-1.58196e-07
-1.58196e-07
-1.58196e-07
-1.58196e-07
-1.58196e-07
-1.58196e-07
-1.58196e-07
-1.58196e-07
-1.58196e-07
-1.58196e-07
-1.58196e-07
-1.58196e-07
-1.58196e-07
-1.58196e-07
-1.58196e-07
-1.58196e-07
-1.58196e-07
-1.58196e-07
-1.58196e-07
-1.58196e-07
-1.58196e-07
-1.58196e-07
-1.58196e-07
-1.58196e-07
-1.58196e-07
-1.58196e-07
-1.58196e-07
-1.58196e-07
-1.58196e-07
-1.58196e-07
-1.58196e-07
-1.58196e-07
-1.58196e-07
-1.58196e-07
-1.58196e-07
-1.58196e-07
-1.58196e-07
-1.58196e-07
-1.58196e-07
-1.58196e-07
-1.58196e-07
-1.58196e-07
-1.58196e-07
-1.58196e-07
-1.58179e-07
-1.57473e-07
-1.32601e-07
)
;

boundaryField
{
    inandouthalf11
    {
        type            cyclic;
        value           nonuniform List<scalar> 
100
(
1.85877e-38
7.79326e-16
1.6307e-15
2.41245e-15
3.22979e-15
4.10414e-15
5.01705e-15
5.96075e-15
6.93694e-15
7.94812e-15
8.99538e-15
1.00784e-14
1.11958e-14
1.23456e-14
1.35258e-14
1.47339e-14
1.59673e-14
1.72233e-14
1.84986e-14
1.97902e-14
2.10949e-14
2.24094e-14
2.37308e-14
2.50561e-14
2.63825e-14
2.77073e-14
2.90281e-14
3.03426e-14
3.16489e-14
3.29451e-14
3.42296e-14
3.5501e-14
3.67583e-14
3.80006e-14
3.92271e-14
4.04373e-14
4.16307e-14
4.28073e-14
4.39669e-14
4.51097e-14
4.62357e-14
4.73454e-14
4.84389e-14
4.95167e-14
5.05794e-14
5.16275e-14
5.26615e-14
5.36819e-14
5.46893e-14
5.56846e-14
5.66682e-14
5.76408e-14
5.86029e-14
5.95553e-14
6.04984e-14
6.14329e-14
6.23594e-14
6.32783e-14
6.41902e-14
6.50953e-14
6.59942e-14
6.68876e-14
6.77757e-14
6.86591e-14
6.95381e-14
7.04128e-14
7.12837e-14
7.2151e-14
7.30149e-14
7.38755e-14
7.47332e-14
7.55883e-14
7.64408e-14
7.72908e-14
7.81387e-14
7.89846e-14
7.98284e-14
8.06702e-14
8.15098e-14
8.23474e-14
8.31829e-14
8.40162e-14
8.48475e-14
8.56769e-14
8.65042e-14
8.73296e-14
8.81528e-14
8.89739e-14
8.97925e-14
9.06085e-14
9.14218e-14
9.22322e-14
9.30396e-14
9.38441e-14
9.46456e-14
9.5444e-14
9.62393e-14
9.70314e-14
9.78201e-14
9.86055e-14
)
;
    }
    inandouthalf12
    {
        type            cyclic;
        value           nonuniform List<scalar> 
100
(
-1.85877e-38
-7.79326e-16
-1.6307e-15
-2.41245e-15
-3.22979e-15
-4.10414e-15
-5.01705e-15
-5.96075e-15
-6.93694e-15
-7.94812e-15
-8.99538e-15
-1.00784e-14
-1.11958e-14
-1.23456e-14
-1.35258e-14
-1.47339e-14
-1.59673e-14
-1.72233e-14
-1.84986e-14
-1.97902e-14
-2.10949e-14
-2.24094e-14
-2.37308e-14
-2.50561e-14
-2.63825e-14
-2.77073e-14
-2.90281e-14
-3.03426e-14
-3.16489e-14
-3.29451e-14
-3.42296e-14
-3.5501e-14
-3.67583e-14
-3.80006e-14
-3.92271e-14
-4.04373e-14
-4.16307e-14
-4.28073e-14
-4.39669e-14
-4.51097e-14
-4.62357e-14
-4.73454e-14
-4.84389e-14
-4.95167e-14
-5.05794e-14
-5.16275e-14
-5.26615e-14
-5.36819e-14
-5.46893e-14
-5.56846e-14
-5.66682e-14
-5.76408e-14
-5.86029e-14
-5.95553e-14
-6.04984e-14
-6.14329e-14
-6.23594e-14
-6.32783e-14
-6.41902e-14
-6.50953e-14
-6.59942e-14
-6.68876e-14
-6.77757e-14
-6.86591e-14
-6.95381e-14
-7.04128e-14
-7.12837e-14
-7.2151e-14
-7.30149e-14
-7.38755e-14
-7.47332e-14
-7.55883e-14
-7.64408e-14
-7.72908e-14
-7.81387e-14
-7.89846e-14
-7.98284e-14
-8.06702e-14
-8.15098e-14
-8.23474e-14
-8.31829e-14
-8.40162e-14
-8.48475e-14
-8.56769e-14
-8.65042e-14
-8.73296e-14
-8.81528e-14
-8.89739e-14
-8.97925e-14
-9.06085e-14
-9.14218e-14
-9.22322e-14
-9.30396e-14
-9.38441e-14
-9.46456e-14
-9.5444e-14
-9.62393e-14
-9.70314e-14
-9.78201e-14
-9.86055e-14
)
;
    }
    inandouthalf21
    {
        type            cyclic;
        value           nonuniform List<scalar> 
100
(
9.93873e-14
1.00166e-13
1.00941e-13
1.01712e-13
1.02481e-13
1.03246e-13
1.04009e-13
1.04769e-13
1.05527e-13
1.06283e-13
1.07038e-13
1.07792e-13
1.08546e-13
1.093e-13
1.10055e-13
1.1081e-13
1.11567e-13
1.12325e-13
1.13083e-13
1.13843e-13
1.14603e-13
1.15364e-13
1.16123e-13
1.16882e-13
1.17641e-13
1.184e-13
1.19163e-13
1.19935e-13
1.2072e-13
1.21529e-13
1.22371e-13
1.23255e-13
1.24186e-13
1.25163e-13
1.26167e-13
1.27148e-13
1.28024e-13
1.28704e-13
1.29141e-13
1.29364e-13
1.29461e-13
1.29515e-13
1.2958e-13
1.29711e-13
1.29793e-13
1.29863e-13
1.30032e-13
3.35541e-08
1.37927e-07
2.33167e-07
3.10397e-07
3.75136e-07
4.30376e-07
4.78196e-07
5.20083e-07
5.57139e-07
5.90203e-07
6.19931e-07
6.46836e-07
6.71326e-07
6.93721e-07
7.14278e-07
7.33197e-07
7.50638e-07
7.66729e-07
7.8157e-07
7.95243e-07
8.07818e-07
8.19353e-07
8.29901e-07
8.39511e-07
8.48233e-07
8.5612e-07
8.63231e-07
8.69628e-07
8.75383e-07
8.80565e-07
8.85242e-07
8.89473e-07
8.93308e-07
8.9679e-07
8.99955e-07
9.02834e-07
9.05455e-07
9.0784e-07
9.10012e-07
9.11988e-07
9.13786e-07
9.15422e-07
9.16909e-07
9.1826e-07
9.19486e-07
9.20598e-07
9.21606e-07
9.22518e-07
9.23343e-07
9.24088e-07
9.24759e-07
9.25363e-07
9.25905e-07
)
;
    }
    inandouthalf22
    {
        type            cyclic;
        value           nonuniform List<scalar> 
100
(
-9.93873e-14
-1.00166e-13
-1.00941e-13
-1.01712e-13
-1.02481e-13
-1.03246e-13
-1.04009e-13
-1.04769e-13
-1.05527e-13
-1.06283e-13
-1.07038e-13
-1.07792e-13
-1.08546e-13
-1.093e-13
-1.10055e-13
-1.1081e-13
-1.11567e-13
-1.12325e-13
-1.13083e-13
-1.13843e-13
-1.14603e-13
-1.15364e-13
-1.16123e-13
-1.16882e-13
-1.17641e-13
-1.184e-13
-1.19163e-13
-1.19935e-13
-1.2072e-13
-1.21529e-13
-1.22371e-13
-1.23255e-13
-1.24186e-13
-1.25163e-13
-1.26167e-13
-1.27148e-13
-1.28024e-13
-1.28704e-13
-1.29141e-13
-1.29364e-13
-1.29461e-13
-1.29515e-13
-1.2958e-13
-1.29711e-13
-1.29793e-13
-1.29863e-13
-1.30032e-13
-3.35541e-08
-1.37927e-07
-2.33167e-07
-3.10397e-07
-3.75136e-07
-4.30376e-07
-4.78196e-07
-5.20083e-07
-5.57139e-07
-5.90203e-07
-6.19931e-07
-6.46836e-07
-6.71326e-07
-6.93721e-07
-7.14278e-07
-7.33197e-07
-7.50638e-07
-7.66729e-07
-7.8157e-07
-7.95243e-07
-8.07818e-07
-8.19353e-07
-8.29901e-07
-8.39511e-07
-8.48233e-07
-8.5612e-07
-8.63231e-07
-8.69628e-07
-8.75383e-07
-8.80565e-07
-8.85242e-07
-8.89473e-07
-8.93308e-07
-8.9679e-07
-8.99955e-07
-9.02834e-07
-9.05455e-07
-9.0784e-07
-9.10012e-07
-9.11988e-07
-9.13786e-07
-9.15422e-07
-9.16909e-07
-9.1826e-07
-9.19486e-07
-9.20598e-07
-9.21606e-07
-9.22518e-07
-9.23343e-07
-9.24088e-07
-9.24759e-07
-9.25363e-07
-9.25905e-07
)
;
    }
    inandouthalf31
    {
        type            cyclic;
        value           nonuniform List<scalar> 
110
(
9.26395e-07
9.45646e-07
9.65256e-07
9.85231e-07
1.00558e-06
1.02631e-06
1.04743e-06
1.06895e-06
1.09087e-06
1.11321e-06
1.13598e-06
1.15918e-06
1.18283e-06
1.20693e-06
1.2315e-06
1.25655e-06
1.28208e-06
1.30811e-06
1.33465e-06
1.36171e-06
1.3893e-06
1.41744e-06
1.44613e-06
1.47539e-06
1.50524e-06
1.53567e-06
1.56672e-06
1.59838e-06
1.63068e-06
1.66362e-06
1.69722e-06
1.7315e-06
1.76646e-06
1.80212e-06
1.8385e-06
1.87564e-06
1.91349e-06
1.90546e-06
1.93903e-06
1.973e-06
2.00746e-06
2.04245e-06
2.07797e-06
2.11404e-06
2.15067e-06
2.1879e-06
2.22576e-06
2.26417e-06
2.30343e-06
2.34316e-06
2.38415e-06
2.42542e-06
2.46752e-06
2.51122e-06
2.55583e-06
2.60086e-06
2.64748e-06
2.69532e-06
2.74453e-06
2.79522e-06
2.84749e-06
2.90144e-06
2.95718e-06
3.01478e-06
3.07433e-06
3.13593e-06
3.19946e-06
3.26504e-06
3.33264e-06
3.40223e-06
3.47378e-06
3.54723e-06
3.62252e-06
3.69959e-06
3.77834e-06
3.85866e-06
3.9404e-06
4.02339e-06
4.10669e-06
4.19033e-06
4.2754e-06
4.36217e-06
4.45072e-06
4.54105e-06
4.63322e-06
4.72727e-06
4.82322e-06
4.92112e-06
5.021e-06
5.12291e-06
5.2269e-06
5.33299e-06
5.44123e-06
5.55168e-06
5.66436e-06
5.77933e-06
5.89664e-06
6.01632e-06
6.13844e-06
6.26303e-06
6.39015e-06
6.51986e-06
6.65219e-06
6.78722e-06
6.92498e-06
7.06554e-06
7.20895e-06
7.35527e-06
7.50456e-06
7.65689e-06
)
;
    }
    inandouthalf32
    {
        type            cyclic;
        value           nonuniform List<scalar> 
110
(
-9.26395e-07
-9.45646e-07
-9.65256e-07
-9.85231e-07
-1.00558e-06
-1.02631e-06
-1.04743e-06
-1.06895e-06
-1.09087e-06
-1.11321e-06
-1.13598e-06
-1.15918e-06
-1.18283e-06
-1.20693e-06
-1.2315e-06
-1.25655e-06
-1.28208e-06
-1.30811e-06
-1.33465e-06
-1.36171e-06
-1.3893e-06
-1.41744e-06
-1.44613e-06
-1.47539e-06
-1.50524e-06
-1.53567e-06
-1.56672e-06
-1.59838e-06
-1.63068e-06
-1.66362e-06
-1.69722e-06
-1.7315e-06
-1.76646e-06
-1.80212e-06
-1.8385e-06
-1.87564e-06
-1.91349e-06
-1.90546e-06
-1.93903e-06
-1.973e-06
-2.00746e-06
-2.04245e-06
-2.07797e-06
-2.11404e-06
-2.15067e-06
-2.1879e-06
-2.22576e-06
-2.26417e-06
-2.30343e-06
-2.34316e-06
-2.38415e-06
-2.42542e-06
-2.46752e-06
-2.51122e-06
-2.55583e-06
-2.60086e-06
-2.64748e-06
-2.69532e-06
-2.74453e-06
-2.79522e-06
-2.84749e-06
-2.90144e-06
-2.95718e-06
-3.01478e-06
-3.07433e-06
-3.13593e-06
-3.19946e-06
-3.26504e-06
-3.33264e-06
-3.40223e-06
-3.47378e-06
-3.54723e-06
-3.62252e-06
-3.69959e-06
-3.77834e-06
-3.85866e-06
-3.9404e-06
-4.02339e-06
-4.10669e-06
-4.19033e-06
-4.2754e-06
-4.36217e-06
-4.45072e-06
-4.54105e-06
-4.63322e-06
-4.72727e-06
-4.82322e-06
-4.92112e-06
-5.021e-06
-5.12291e-06
-5.2269e-06
-5.33299e-06
-5.44123e-06
-5.55168e-06
-5.66436e-06
-5.77933e-06
-5.89664e-06
-6.01632e-06
-6.13844e-06
-6.26303e-06
-6.39015e-06
-6.51986e-06
-6.65219e-06
-6.78722e-06
-6.92498e-06
-7.06554e-06
-7.20895e-06
-7.35527e-06
-7.50456e-06
-7.65689e-06
)
;
    }
    inandouthalf41
    {
        type            cyclic;
        value           nonuniform List<scalar> 
50
(
6.85369e-06
6.85369e-06
6.85369e-06
6.85369e-06
6.85369e-06
6.85369e-06
6.85369e-06
6.85369e-06
6.85369e-06
6.85369e-06
6.85369e-06
6.85369e-06
6.85369e-06
6.85369e-06
6.85369e-06
6.85369e-06
6.85369e-06
6.85369e-06
6.85369e-06
6.85369e-06
6.85369e-06
6.85369e-06
6.85369e-06
6.85369e-06
6.85369e-06
6.85369e-06
6.85369e-06
6.85369e-06
6.85369e-06
6.85369e-06
6.85369e-06
6.85369e-06
6.85369e-06
6.85369e-06
6.85369e-06
6.85369e-06
6.85369e-06
6.85369e-06
6.85369e-06
6.85369e-06
6.85369e-06
6.85369e-06
6.85369e-06
6.85369e-06
6.85369e-06
6.85369e-06
6.85369e-06
6.85369e-06
6.85366e-06
6.85291e-06
)
;
    }
    inandouthalf42
    {
        type            cyclic;
        value           nonuniform List<scalar> 
50
(
-6.85369e-06
-6.85369e-06
-6.85369e-06
-6.85369e-06
-6.85369e-06
-6.85369e-06
-6.85369e-06
-6.85369e-06
-6.85369e-06
-6.85369e-06
-6.85369e-06
-6.85369e-06
-6.85369e-06
-6.85369e-06
-6.85369e-06
-6.85369e-06
-6.85369e-06
-6.85369e-06
-6.85369e-06
-6.85369e-06
-6.85369e-06
-6.85369e-06
-6.85369e-06
-6.85369e-06
-6.85369e-06
-6.85369e-06
-6.85369e-06
-6.85369e-06
-6.85369e-06
-6.85369e-06
-6.85369e-06
-6.85369e-06
-6.85369e-06
-6.85369e-06
-6.85369e-06
-6.85369e-06
-6.85369e-06
-6.85369e-06
-6.85369e-06
-6.85369e-06
-6.85369e-06
-6.85369e-06
-6.85369e-06
-6.85369e-06
-6.85369e-06
-6.85369e-06
-6.85369e-06
-6.85369e-06
-6.85366e-06
-6.85291e-06
)
;
    }
    top
    {
        type            symmetryPlane;
        value           uniform 0;
    }
    walls
    {
        type            fixedValue;
        value           uniform 0;
    }
    frontAndBackPlanes
    {
        type            empty;
        value           nonuniform 0();
    }
}


// ************************************************************************* //
