/*--------------------------------*- C++ -*----------------------------------*\
| =========                 |                                                 |
| \\      /  F ield         | OpenFOAM: The Open Source CFD Toolbox           |
|  \\    /   O peration     | Version:  2.4.x                                 |
|   \\  /    A nd           | Web:      www.OpenFOAM.org                      |
|    \\/     M anipulation  |                                                 |
\*---------------------------------------------------------------------------*/
FoamFile
{
    version     2.0;
    format      ascii;
    class       surfaceScalarField;
    location    "12";
    object      phib;
}
// * * * * * * * * * * * * * * * * * * * * * * * * * * * * * * * * * * * * * //

dimensions      [0 3 -1 0 0 0 0];

internalField   nonuniform List<scalar> 
359
(
1.02408e-14
2.5653e-14
4.01329e-14
5.4372e-14
6.93658e-14
8.5065e-14
1.01267e-13
1.17938e-13
1.3511e-13
1.52815e-13
1.71055e-13
1.89808e-13
2.09041e-13
2.28715e-13
2.48787e-13
2.69215e-13
2.8995e-13
3.10939e-13
3.32128e-13
3.53466e-13
3.74894e-13
3.96366e-13
4.17832e-13
4.39245e-13
4.60562e-13
4.81742e-13
5.02748e-13
5.2355e-13
5.4412e-13
5.64431e-13
5.84462e-13
6.042e-13
6.23624e-13
6.42735e-13
6.61517e-13
6.79969e-13
6.98088e-13
7.15875e-13
7.33339e-13
7.50472e-13
7.67291e-13
7.83801e-13
8.00003e-13
8.15916e-13
8.31544e-13
8.469e-13
8.61996e-13
8.76833e-13
8.9143e-13
9.05801e-13
9.1995e-13
9.3389e-13
9.47631e-13
9.61185e-13
9.74555e-13
9.87761e-13
1.0008e-12
1.01369e-12
1.02644e-12
1.03904e-12
1.05151e-12
1.06386e-12
1.07609e-12
1.08821e-12
1.10022e-12
1.11213e-12
1.12394e-12
1.13566e-12
1.14728e-12
1.15882e-12
1.17026e-12
1.18163e-12
1.19291e-12
1.20412e-12
1.21524e-12
1.22629e-12
1.23727e-12
1.24816e-12
1.25898e-12
1.26972e-12
1.28038e-12
1.29096e-12
1.30146e-12
1.31189e-12
1.32223e-12
1.33249e-12
1.34267e-12
1.35276e-12
1.36276e-12
1.37266e-12
1.38248e-12
1.39219e-12
1.40181e-12
1.41132e-12
1.42073e-12
1.43004e-12
1.43924e-12
1.44834e-12
1.45732e-12
1.46619e-12
1.47494e-12
1.48358e-12
1.4921e-12
1.5005e-12
1.50878e-12
1.51695e-12
1.52499e-12
1.53292e-12
1.54074e-12
1.54844e-12
1.55603e-12
1.5635e-12
1.57087e-12
1.57812e-12
1.58526e-12
1.59229e-12
1.5992e-12
1.60598e-12
1.61263e-12
1.61913e-12
1.62548e-12
1.63166e-12
1.63766e-12
1.64347e-12
1.64909e-12
1.65452e-12
1.65979e-12
1.66492e-12
1.66995e-12
1.67493e-12
1.6799e-12
1.68487e-12
1.68981e-12
1.6946e-12
1.699e-12
1.70264e-12
1.70507e-12
1.70596e-12
1.70533e-12
1.70361e-12
1.7012e-12
1.68968e-12
1.68216e-12
1.68215e-12
1.67756e-12
1.66179e-12
3.07896e-12
5.14829e-13
-9.85686e-12
-1.49003e-11
-1.78526e-11
-2.29302e-11
-3.1438e-11
-4.29986e-11
-5.629e-11
-6.96815e-11
-8.1735e-11
-9.14388e-11
-9.82756e-11
-1.02133e-10
-1.03185e-10
-1.01776e-10
-9.83243e-11
-9.3269e-11
-8.70273e-11
-7.9976e-11
-7.24411e-11
-6.46952e-11
-5.69583e-11
-4.93962e-11
-4.21136e-11
-3.51567e-11
-2.85547e-11
-2.24007e-11
-1.68909e-11
-1.22413e-11
-8.55085e-12
-5.7577e-12
-3.70311e-12
-2.21185e-12
-1.13453e-12
-3.57241e-13
2.02756e-13
6.04554e-13
8.90266e-13
1.09007e-12
1.22581e-12
1.31344e-12
1.36477e-12
1.38862e-12
1.39166e-12
1.37895e-12
1.35439e-12
1.321e-12
1.28111e-12
1.23658e-12
1.18884e-12
1.13903e-12
1.08805e-12
1.03663e-12
9.85312e-13
9.33535e-13
8.81696e-13
8.30154e-13
7.7923e-13
7.29213e-13
6.80358e-13
6.32892e-13
5.87008e-13
5.42867e-13
5.00598e-13
4.60296e-13
4.22026e-13
3.85818e-13
3.51678e-13
3.19588e-13
2.8951e-13
2.61388e-13
2.35169e-13
2.10792e-13
1.88187e-13
1.67289e-13
1.48031e-13
1.30347e-13
1.14165e-13
9.94032e-14
8.59571e-14
7.36848e-14
6.24044e-14
5.19253e-14
4.21689e-14
3.34062e-14
2.63352e-14
2.14816e-14
1.83045e-14
1.56486e-14
1.33542e-14
1.10628e-14
9.02392e-15
7.24201e-15
5.7126e-15
4.42318e-15
3.35593e-15
2.48934e-15
1.80017e-15
1.26418e-15
8.5773e-16
5.57493e-16
3.44077e-16
1.93788e-16
9.71265e-17
6.60437e-17
5.3843e-17
1.10072e-18
9.05823e-19
6.40804e-19
4.76052e-19
2.50857e-19
1.30605e-19
-3.91281e-20
-1.26436e-19
-2.57562e-19
-3.15958e-19
-4.38244e-19
-5.60995e-19
-7.33971e-19
-8.65177e-19
-9.98701e-19
-1.12273e-18
-1.22854e-18
-1.29356e-18
-1.34183e-18
-1.44243e-18
-1.51807e-18
-1.57064e-18
-1.56778e-18
-1.59797e-18
-1.56753e-18
-1.52673e-18
-1.43925e-18
-1.48017e-18
-1.47535e-18
-1.47548e-18
-1.4056e-18
-1.39267e-18
-1.31532e-18
-1.24445e-18
-1.10845e-18
-1.06492e-18
-9.72234e-19
-8.82674e-19
-7.43229e-19
-6.48773e-19
-5.11376e-19
-3.8588e-19
-2.37541e-19
-2.18304e-19
-1.87613e-19
-1.72419e-19
-7.88973e-20
-6.52521e-20
-4.40093e-20
-2.35341e-20
-2.74955e-21
1.86645e-20
3.31939e-20
4.94844e-20
5.12207e-20
7.04179e-20
6.83723e-20
7.08191e-20
5.40645e-20
7.76119e-20
8.15708e-20
8.92023e-20
7.69807e-20
8.42194e-20
7.23568e-20
6.36218e-20
3.57921e-20
3.78187e-20
2.16026e-20
8.24782e-21
-2.27193e-20
-3.91835e-20
-7.28713e-20
-1.05777e-19
-1.63877e-19
-1.98184e-19
-2.83604e-19
-3.64161e-19
-5.30563e-19
-5.92571e-19
-7.8462e-19
-9.51905e-19
-1.26356e-18
-1.32417e-18
-1.55073e-18
-1.74724e-18
-2.10094e-18
-2.34981e-18
-2.68192e-18
-3.01932e-18
-3.27349e-18
-4.01732e-18
-4.5529e-18
-5.12101e-18
-5.38828e-18
-6.12075e-18
-6.28609e-18
-6.6029e-18
-6.18326e-18
-7.44824e-18
-7.54271e-18
-7.93316e-18
-7.28274e-18
-7.34255e-18
-7.8393e-18
-9.69517e-18
)
;

boundaryField
{
    inandouthalf11
    {
        type            cyclic;
        value           nonuniform List<scalar> 
100
(
2.88519e-11
2.86912e-11
2.86704e-11
2.86929e-11
2.87039e-11
2.8708e-11
2.8713e-11
2.87193e-11
2.87257e-11
2.87322e-11
2.87388e-11
2.87455e-11
2.87522e-11
2.8759e-11
2.87659e-11
2.87729e-11
2.878e-11
2.87871e-11
2.87944e-11
2.88017e-11
2.88091e-11
2.88165e-11
2.88241e-11
2.88317e-11
2.88394e-11
2.88471e-11
2.88549e-11
2.88627e-11
2.88707e-11
2.88786e-11
2.88867e-11
2.88948e-11
2.89029e-11
2.89112e-11
2.89194e-11
2.89278e-11
2.89362e-11
2.89446e-11
2.89532e-11
2.89617e-11
2.89704e-11
2.89792e-11
2.89879e-11
2.89969e-11
2.90058e-11
2.90148e-11
2.9024e-11
2.90331e-11
2.90424e-11
2.90518e-11
2.90612e-11
2.90708e-11
2.90804e-11
2.90902e-11
2.91e-11
2.911e-11
2.912e-11
2.91302e-11
2.91405e-11
2.91508e-11
2.91614e-11
2.9172e-11
2.91828e-11
2.91937e-11
2.92047e-11
2.92158e-11
2.92271e-11
2.92386e-11
2.92502e-11
2.92619e-11
2.92738e-11
2.92859e-11
2.9298e-11
2.93104e-11
2.9323e-11
2.93357e-11
2.93486e-11
2.93617e-11
2.9375e-11
2.93885e-11
2.94021e-11
2.9416e-11
2.94301e-11
2.94445e-11
2.9459e-11
2.94738e-11
2.94889e-11
2.95041e-11
2.95197e-11
2.95355e-11
2.95516e-11
2.95679e-11
2.95846e-11
2.96016e-11
2.96188e-11
2.96364e-11
2.96544e-11
2.96727e-11
2.96913e-11
2.97104e-11
)
;
    }
    inandouthalf12
    {
        type            cyclic;
        value           nonuniform List<scalar> 
100
(
-2.88519e-11
-2.86912e-11
-2.86704e-11
-2.86929e-11
-2.87039e-11
-2.8708e-11
-2.8713e-11
-2.87193e-11
-2.87257e-11
-2.87322e-11
-2.87388e-11
-2.87455e-11
-2.87522e-11
-2.8759e-11
-2.87659e-11
-2.87729e-11
-2.878e-11
-2.87871e-11
-2.87944e-11
-2.88017e-11
-2.88091e-11
-2.88165e-11
-2.88241e-11
-2.88317e-11
-2.88394e-11
-2.88471e-11
-2.88549e-11
-2.88627e-11
-2.88707e-11
-2.88786e-11
-2.88867e-11
-2.88948e-11
-2.89029e-11
-2.89112e-11
-2.89194e-11
-2.89278e-11
-2.89362e-11
-2.89446e-11
-2.89532e-11
-2.89617e-11
-2.89704e-11
-2.89792e-11
-2.89879e-11
-2.89969e-11
-2.90058e-11
-2.90148e-11
-2.9024e-11
-2.90331e-11
-2.90424e-11
-2.90518e-11
-2.90612e-11
-2.90708e-11
-2.90804e-11
-2.90902e-11
-2.91e-11
-2.911e-11
-2.912e-11
-2.91302e-11
-2.91405e-11
-2.91508e-11
-2.91614e-11
-2.9172e-11
-2.91828e-11
-2.91937e-11
-2.92047e-11
-2.92158e-11
-2.92271e-11
-2.92386e-11
-2.92502e-11
-2.92619e-11
-2.92738e-11
-2.92859e-11
-2.9298e-11
-2.93104e-11
-2.9323e-11
-2.93357e-11
-2.93486e-11
-2.93617e-11
-2.9375e-11
-2.93885e-11
-2.94021e-11
-2.9416e-11
-2.94301e-11
-2.94445e-11
-2.9459e-11
-2.94738e-11
-2.94889e-11
-2.95041e-11
-2.95197e-11
-2.95355e-11
-2.95516e-11
-2.95679e-11
-2.95846e-11
-2.96016e-11
-2.96188e-11
-2.96364e-11
-2.96544e-11
-2.96727e-11
-2.96913e-11
-2.97104e-11
)
;
    }
    inandouthalf21
    {
        type            cyclic;
        value           nonuniform List<scalar> 
100
(
2.97298e-11
2.97496e-11
2.97699e-11
2.97905e-11
2.98117e-11
2.98333e-11
2.98554e-11
2.9878e-11
2.99012e-11
2.99249e-11
2.99492e-11
2.99742e-11
2.99997e-11
3.0026e-11
3.00529e-11
3.00805e-11
3.0109e-11
3.01382e-11
3.01683e-11
3.01993e-11
3.02313e-11
3.02642e-11
3.02982e-11
3.03334e-11
3.03697e-11
3.04073e-11
3.04462e-11
3.04866e-11
3.05286e-11
3.05722e-11
3.06177e-11
3.06651e-11
3.07147e-11
3.0767e-11
3.08229e-11
3.08823e-11
3.09452e-11
3.10122e-11
3.10862e-11
3.11706e-11
3.12615e-11
3.13696e-11
3.21152e-11
3.20044e-11
3.21415e-11
3.24895e-11
1.4774e-10
3.73282e-08
1.48018e-07
2.41693e-07
3.17666e-07
3.81259e-07
4.35646e-07
4.82854e-07
5.24323e-07
5.61129e-07
5.94095e-07
6.23867e-07
6.50951e-07
6.75754e-07
6.98596e-07
7.19738e-07
7.39387e-07
7.57712e-07
7.74847e-07
7.90903e-07
8.05967e-07
8.20109e-07
8.33387e-07
8.45842e-07
8.5751e-07
8.68414e-07
8.78574e-07
8.88003e-07
8.96712e-07
9.04708e-07
9.12003e-07
9.18608e-07
9.24543e-07
9.29831e-07
9.34504e-07
9.38598e-07
9.42155e-07
9.45221e-07
9.47842e-07
9.50067e-07
9.5194e-07
9.53503e-07
9.54795e-07
9.5585e-07
9.56699e-07
9.57366e-07
9.57876e-07
9.58246e-07
9.58494e-07
9.58633e-07
9.58676e-07
9.58631e-07
9.58509e-07
9.58316e-07
)
;
    }
    inandouthalf22
    {
        type            cyclic;
        value           nonuniform List<scalar> 
100
(
-2.97298e-11
-2.97496e-11
-2.97699e-11
-2.97905e-11
-2.98117e-11
-2.98333e-11
-2.98554e-11
-2.9878e-11
-2.99012e-11
-2.99249e-11
-2.99492e-11
-2.99742e-11
-2.99997e-11
-3.0026e-11
-3.00529e-11
-3.00805e-11
-3.0109e-11
-3.01382e-11
-3.01683e-11
-3.01993e-11
-3.02313e-11
-3.02642e-11
-3.02982e-11
-3.03334e-11
-3.03697e-11
-3.04073e-11
-3.04462e-11
-3.04866e-11
-3.05286e-11
-3.05722e-11
-3.06177e-11
-3.06651e-11
-3.07147e-11
-3.0767e-11
-3.08229e-11
-3.08823e-11
-3.09452e-11
-3.10122e-11
-3.10862e-11
-3.11706e-11
-3.12615e-11
-3.13696e-11
-3.21152e-11
-3.20044e-11
-3.21415e-11
-3.24895e-11
-1.4774e-10
-3.73282e-08
-1.48018e-07
-2.41693e-07
-3.17666e-07
-3.81259e-07
-4.35646e-07
-4.82854e-07
-5.24323e-07
-5.61129e-07
-5.94095e-07
-6.23867e-07
-6.50951e-07
-6.75754e-07
-6.98596e-07
-7.19738e-07
-7.39387e-07
-7.57712e-07
-7.74847e-07
-7.90903e-07
-8.05967e-07
-8.20109e-07
-8.33387e-07
-8.45842e-07
-8.5751e-07
-8.68414e-07
-8.78574e-07
-8.88003e-07
-8.96712e-07
-9.04708e-07
-9.12003e-07
-9.18608e-07
-9.24543e-07
-9.29831e-07
-9.34504e-07
-9.38598e-07
-9.42155e-07
-9.45221e-07
-9.47842e-07
-9.50067e-07
-9.5194e-07
-9.53503e-07
-9.54795e-07
-9.5585e-07
-9.56699e-07
-9.57366e-07
-9.57876e-07
-9.58246e-07
-9.58494e-07
-9.58633e-07
-9.58676e-07
-9.58631e-07
-9.58509e-07
-9.58316e-07
)
;
    }
    inandouthalf31
    {
        type            cyclic;
        value           nonuniform List<scalar> 
110
(
9.58062e-07
9.77183e-07
9.96619e-07
1.01638e-06
1.03646e-06
1.05687e-06
1.07762e-06
1.0987e-06
1.12013e-06
1.14191e-06
1.16404e-06
1.18652e-06
1.20936e-06
1.23256e-06
1.25613e-06
1.28007e-06
1.30438e-06
1.32906e-06
1.35413e-06
1.37958e-06
1.40542e-06
1.43165e-06
1.45827e-06
1.4853e-06
1.51272e-06
1.54055e-06
1.56878e-06
1.59743e-06
1.6265e-06
1.65599e-06
1.6859e-06
1.71625e-06
1.74703e-06
1.77826e-06
1.80993e-06
1.84206e-06
1.87465e-06
1.90772e-06
1.94127e-06
1.97531e-06
2.00985e-06
2.04491e-06
2.08051e-06
2.11665e-06
2.15337e-06
2.19068e-06
2.2286e-06
2.26717e-06
2.30642e-06
2.34639e-06
2.38711e-06
2.42865e-06
2.47104e-06
2.51437e-06
2.55868e-06
2.60407e-06
2.65061e-06
2.69841e-06
2.74756e-06
2.79817e-06
2.85035e-06
2.9042e-06
2.95983e-06
3.01733e-06
3.07677e-06
3.13821e-06
3.20167e-06
3.26717e-06
3.3347e-06
3.40423e-06
3.47574e-06
3.54917e-06
3.62447e-06
3.70156e-06
3.78036e-06
3.86074e-06
3.94258e-06
4.02567e-06
4.10931e-06
4.19308e-06
4.2782e-06
4.36504e-06
4.45364e-06
4.54403e-06
4.63627e-06
4.73037e-06
4.82638e-06
4.92435e-06
5.0243e-06
5.12628e-06
5.23033e-06
5.33649e-06
5.44481e-06
5.55532e-06
5.66808e-06
5.78313e-06
5.90051e-06
6.02027e-06
6.14247e-06
6.26714e-06
6.39435e-06
6.52414e-06
6.65656e-06
6.79167e-06
6.92952e-06
7.07017e-06
7.21368e-06
7.3601e-06
7.50949e-06
7.66191e-06
)
;
    }
    inandouthalf32
    {
        type            cyclic;
        value           nonuniform List<scalar> 
110
(
-9.58062e-07
-9.77183e-07
-9.96619e-07
-1.01638e-06
-1.03646e-06
-1.05687e-06
-1.07762e-06
-1.0987e-06
-1.12013e-06
-1.14191e-06
-1.16404e-06
-1.18652e-06
-1.20936e-06
-1.23256e-06
-1.25613e-06
-1.28007e-06
-1.30438e-06
-1.32906e-06
-1.35413e-06
-1.37958e-06
-1.40542e-06
-1.43165e-06
-1.45827e-06
-1.4853e-06
-1.51272e-06
-1.54055e-06
-1.56878e-06
-1.59743e-06
-1.6265e-06
-1.65599e-06
-1.6859e-06
-1.71625e-06
-1.74703e-06
-1.77826e-06
-1.80993e-06
-1.84206e-06
-1.87465e-06
-1.90772e-06
-1.94127e-06
-1.97531e-06
-2.00985e-06
-2.04491e-06
-2.08051e-06
-2.11665e-06
-2.15337e-06
-2.19068e-06
-2.2286e-06
-2.26717e-06
-2.30642e-06
-2.34639e-06
-2.38711e-06
-2.42865e-06
-2.47104e-06
-2.51437e-06
-2.55868e-06
-2.60407e-06
-2.65061e-06
-2.69841e-06
-2.74756e-06
-2.79817e-06
-2.85035e-06
-2.9042e-06
-2.95983e-06
-3.01733e-06
-3.07677e-06
-3.13821e-06
-3.20167e-06
-3.26717e-06
-3.3347e-06
-3.40423e-06
-3.47574e-06
-3.54917e-06
-3.62447e-06
-3.70156e-06
-3.78036e-06
-3.86074e-06
-3.94258e-06
-4.02567e-06
-4.10931e-06
-4.19308e-06
-4.2782e-06
-4.36504e-06
-4.45364e-06
-4.54403e-06
-4.63627e-06
-4.73037e-06
-4.82638e-06
-4.92435e-06
-5.0243e-06
-5.12628e-06
-5.23033e-06
-5.33649e-06
-5.44481e-06
-5.55532e-06
-5.66808e-06
-5.78313e-06
-5.90051e-06
-6.02027e-06
-6.14247e-06
-6.26714e-06
-6.39435e-06
-6.52414e-06
-6.65656e-06
-6.79167e-06
-6.92952e-06
-7.07017e-06
-7.21368e-06
-7.3601e-06
-7.50949e-06
-7.66191e-06
)
;
    }
    inandouthalf41
    {
        type            cyclic;
        value           nonuniform List<scalar> 
50
(
6.85819e-06
6.85819e-06
6.85819e-06
6.85819e-06
6.85819e-06
6.85819e-06
6.85819e-06
6.85819e-06
6.85819e-06
6.85819e-06
6.85819e-06
6.85819e-06
6.85819e-06
6.85819e-06
6.85819e-06
6.85819e-06
6.85819e-06
6.85819e-06
6.85819e-06
6.85819e-06
6.85819e-06
6.85819e-06
6.85819e-06
6.85819e-06
6.85819e-06
6.85819e-06
6.85819e-06
6.85819e-06
6.85819e-06
6.85819e-06
6.85819e-06
6.85819e-06
6.85819e-06
6.85819e-06
6.85819e-06
6.85819e-06
6.85819e-06
6.85819e-06
6.85819e-06
6.85819e-06
6.85819e-06
6.85819e-06
6.85819e-06
6.85819e-06
6.85819e-06
6.85819e-06
6.85819e-06
6.85819e-06
6.85819e-06
6.85819e-06
)
;
    }
    inandouthalf42
    {
        type            cyclic;
        value           nonuniform List<scalar> 
50
(
-6.85819e-06
-6.85819e-06
-6.85819e-06
-6.85819e-06
-6.85819e-06
-6.85819e-06
-6.85819e-06
-6.85819e-06
-6.85819e-06
-6.85819e-06
-6.85819e-06
-6.85819e-06
-6.85819e-06
-6.85819e-06
-6.85819e-06
-6.85819e-06
-6.85819e-06
-6.85819e-06
-6.85819e-06
-6.85819e-06
-6.85819e-06
-6.85819e-06
-6.85819e-06
-6.85819e-06
-6.85819e-06
-6.85819e-06
-6.85819e-06
-6.85819e-06
-6.85819e-06
-6.85819e-06
-6.85819e-06
-6.85819e-06
-6.85819e-06
-6.85819e-06
-6.85819e-06
-6.85819e-06
-6.85819e-06
-6.85819e-06
-6.85819e-06
-6.85819e-06
-6.85819e-06
-6.85819e-06
-6.85819e-06
-6.85819e-06
-6.85819e-06
-6.85819e-06
-6.85819e-06
-6.85819e-06
-6.85819e-06
-6.85819e-06
)
;
    }
    top
    {
        type            symmetryPlane;
        value           uniform 0;
    }
    walls
    {
        type            fixedValue;
        value           uniform 0;
    }
    frontAndBackPlanes
    {
        type            empty;
        value           nonuniform 0();
    }
}


// ************************************************************************* //
