/*--------------------------------*- C++ -*----------------------------------*\
| =========                 |                                                 |
| \\      /  F ield         | OpenFOAM: The Open Source CFD Toolbox           |
|  \\    /   O peration     | Version:  2.4.x                                 |
|   \\  /    A nd           | Web:      www.OpenFOAM.org                      |
|    \\/     M anipulation  |                                                 |
\*---------------------------------------------------------------------------*/
FoamFile
{
    version     2.0;
    format      ascii;
    class       surfaceScalarField;
    location    "12";
    object      phib_0;
}
// * * * * * * * * * * * * * * * * * * * * * * * * * * * * * * * * * * * * * //

dimensions      [0 3 -1 0 0 0 0];

internalField   nonuniform List<scalar> 
359
(
1.02431e-14
2.56588e-14
4.01422e-14
5.43847e-14
6.93822e-14
8.50852e-14
1.01291e-13
1.17966e-13
1.35143e-13
1.52851e-13
1.71096e-13
1.89853e-13
2.0909e-13
2.28768e-13
2.48845e-13
2.69277e-13
2.90016e-13
3.11009e-13
3.32201e-13
3.53542e-13
3.74974e-13
3.96449e-13
4.17918e-13
4.39334e-13
4.60653e-13
4.81835e-13
5.02843e-13
5.23647e-13
5.44219e-13
5.64531e-13
5.84563e-13
6.04303e-13
6.23728e-13
6.4284e-13
6.61622e-13
6.80075e-13
6.98194e-13
7.15982e-13
7.33447e-13
7.5058e-13
7.674e-13
7.8391e-13
8.00112e-13
8.16026e-13
8.31655e-13
8.47011e-13
8.62107e-13
8.76945e-13
8.91542e-13
9.05914e-13
9.20063e-13
9.34005e-13
9.47746e-13
9.613e-13
9.74672e-13
9.87878e-13
1.00092e-12
1.01381e-12
1.02656e-12
1.03916e-12
1.05163e-12
1.06398e-12
1.07621e-12
1.08834e-12
1.10035e-12
1.11226e-12
1.12407e-12
1.13579e-12
1.14742e-12
1.15895e-12
1.1704e-12
1.18177e-12
1.19305e-12
1.20426e-12
1.21539e-12
1.22644e-12
1.23742e-12
1.24831e-12
1.25913e-12
1.26988e-12
1.28054e-12
1.29112e-12
1.30162e-12
1.31205e-12
1.32239e-12
1.33265e-12
1.34283e-12
1.35293e-12
1.36293e-12
1.37284e-12
1.38265e-12
1.39237e-12
1.40199e-12
1.4115e-12
1.42092e-12
1.43023e-12
1.43943e-12
1.44853e-12
1.45751e-12
1.46638e-12
1.47514e-12
1.48378e-12
1.4923e-12
1.5007e-12
1.50899e-12
1.51716e-12
1.5252e-12
1.53313e-12
1.54095e-12
1.54865e-12
1.55624e-12
1.56372e-12
1.57108e-12
1.57834e-12
1.58548e-12
1.59251e-12
1.59942e-12
1.60621e-12
1.61286e-12
1.61936e-12
1.62571e-12
1.63189e-12
1.63789e-12
1.64371e-12
1.64933e-12
1.65476e-12
1.66003e-12
1.66516e-12
1.6702e-12
1.67518e-12
1.68015e-12
1.68512e-12
1.69006e-12
1.69485e-12
1.69926e-12
1.7029e-12
1.70532e-12
1.70621e-12
1.70559e-12
1.70387e-12
1.70145e-12
1.68994e-12
1.68241e-12
1.6824e-12
1.67782e-12
1.66204e-12
3.05281e-12
7.51985e-14
-1.04439e-11
-1.54463e-11
-1.83424e-11
-2.33637e-11
-3.18186e-11
-4.33322e-11
-5.65831e-11
-6.99394e-11
-8.19632e-11
-9.16405e-11
-9.84538e-11
-1.0229e-10
-1.03322e-10
-1.01894e-10
-9.8426e-11
-9.33548e-11
-8.70985e-11
-8.00338e-11
-7.24869e-11
-6.47303e-11
-5.69839e-11
-4.94136e-11
-4.21239e-11
-3.51609e-11
-2.85538e-11
-2.23959e-11
-1.68841e-11
-1.22341e-11
-8.54424e-12
-5.75209e-12
-3.69849e-12
-2.20806e-12
-1.13138e-12
-3.54595e-13
2.05023e-13
6.06532e-13
8.92017e-13
1.09164e-12
1.22724e-12
1.31475e-12
1.36598e-12
1.38975e-12
1.39271e-12
1.37993e-12
1.35531e-12
1.32187e-12
1.28193e-12
1.23735e-12
1.18957e-12
1.13972e-12
1.08871e-12
1.03724e-12
9.85896e-13
9.34086e-13
8.82214e-13
8.30641e-13
7.79687e-13
7.2964e-13
6.80757e-13
6.33264e-13
5.87353e-13
5.43186e-13
5.00893e-13
4.60568e-13
4.22275e-13
3.86046e-13
3.51886e-13
3.19777e-13
2.89681e-13
2.61543e-13
2.35308e-13
2.10917e-13
1.88298e-13
1.67388e-13
1.48118e-13
1.30423e-13
1.14231e-13
9.94601e-14
8.60058e-14
7.37262e-14
6.24393e-14
5.19545e-14
4.21928e-14
3.3425e-14
2.63493e-14
2.1492e-14
1.83128e-14
1.56555e-14
1.33597e-14
1.1067e-14
9.02725e-15
7.24456e-15
5.71453e-15
4.42461e-15
3.35696e-15
2.49008e-15
1.80068e-15
1.26454e-15
8.57977e-16
5.5767e-16
3.44203e-16
1.93892e-16
9.72059e-17
6.61022e-17
5.39659e-17
1.17835e-18
9.76953e-19
7.06567e-19
5.36121e-19
3.05015e-19
1.78214e-19
8.06501e-22
-9.31836e-20
-2.32269e-19
-2.97538e-19
-4.27928e-19
-5.58066e-19
-7.3954e-19
-8.80265e-19
-1.02141e-18
-1.15243e-18
-1.26571e-18
-1.33753e-18
-1.39213e-18
-1.5001e-18
-1.58253e-18
-1.64048e-18
-1.64113e-18
-1.67632e-18
-1.64743e-18
-1.60758e-18
-1.51806e-18
-1.56606e-18
-1.56473e-18
-1.56847e-18
-1.49581e-18
-1.48583e-18
-1.40507e-18
-1.32953e-18
-1.18283e-18
-1.13964e-18
-1.04077e-18
-9.45765e-19
-7.92945e-19
-6.92605e-19
-5.4086e-19
-4.0142e-19
-2.27469e-19
-2.19406e-19
-1.89364e-19
-1.75849e-19
-7.69212e-20
-6.47426e-20
-3.90744e-20
-1.45906e-20
1.63592e-20
3.50675e-20
5.41795e-20
7.43106e-20
8.78052e-20
1.09936e-19
1.22137e-19
1.33961e-19
1.36967e-19
1.61495e-19
1.77151e-19
1.94332e-19
2.02725e-19
2.20357e-19
2.30352e-19
2.41323e-19
2.41212e-19
2.70997e-19
2.90295e-19
3.11541e-19
3.20137e-19
3.65409e-19
3.84249e-19
4.30229e-19
4.5625e-19
7.86513e-19
1.09629e-18
1.4337e-18
1.74043e-18
2.09138e-18
2.42039e-18
2.75145e-18
3.03919e-18
3.44364e-18
3.79221e-18
4.14457e-18
4.4116e-18
4.83361e-18
5.07468e-18
5.36855e-18
5.28864e-18
6.33108e-18
6.87828e-18
7.50582e-18
7.58167e-18
8.36212e-18
8.35872e-18
8.53515e-18
7.79202e-18
9.01507e-18
8.93658e-18
9.17239e-18
8.286e-18
8.17824e-18
8.47372e-18
1.01395e-17
)
;

boundaryField
{
    inandouthalf11
    {
        type            cyclic;
        value           nonuniform List<scalar> 
100
(
2.8873e-11
2.87122e-11
2.86914e-11
2.87139e-11
2.87249e-11
2.8729e-11
2.8734e-11
2.87403e-11
2.87467e-11
2.87533e-11
2.87599e-11
2.87665e-11
2.87733e-11
2.87801e-11
2.8787e-11
2.8794e-11
2.88011e-11
2.88082e-11
2.88154e-11
2.88228e-11
2.88302e-11
2.88376e-11
2.88452e-11
2.88528e-11
2.88605e-11
2.88682e-11
2.8876e-11
2.88839e-11
2.88918e-11
2.88998e-11
2.89078e-11
2.89159e-11
2.8924e-11
2.89323e-11
2.89406e-11
2.89489e-11
2.89573e-11
2.89658e-11
2.89744e-11
2.89829e-11
2.89916e-11
2.90004e-11
2.90091e-11
2.90181e-11
2.9027e-11
2.90361e-11
2.90452e-11
2.90543e-11
2.90636e-11
2.90731e-11
2.90825e-11
2.90921e-11
2.91017e-11
2.91115e-11
2.91213e-11
2.91313e-11
2.91413e-11
2.91515e-11
2.91618e-11
2.91721e-11
2.91827e-11
2.91933e-11
2.92041e-11
2.9215e-11
2.92261e-11
2.92372e-11
2.92485e-11
2.926e-11
2.92716e-11
2.92832e-11
2.92952e-11
2.93073e-11
2.93194e-11
2.93318e-11
2.93444e-11
2.93572e-11
2.937e-11
2.93831e-11
2.93964e-11
2.94099e-11
2.94236e-11
2.94375e-11
2.94516e-11
2.9466e-11
2.94806e-11
2.94954e-11
2.95104e-11
2.95257e-11
2.95412e-11
2.95571e-11
2.95732e-11
2.95895e-11
2.96062e-11
2.96232e-11
2.96405e-11
2.96581e-11
2.9676e-11
2.96943e-11
2.9713e-11
2.97321e-11
)
;
    }
    inandouthalf12
    {
        type            cyclic;
        value           nonuniform List<scalar> 
100
(
-2.8873e-11
-2.87122e-11
-2.86914e-11
-2.87139e-11
-2.87249e-11
-2.8729e-11
-2.8734e-11
-2.87403e-11
-2.87467e-11
-2.87533e-11
-2.87599e-11
-2.87665e-11
-2.87733e-11
-2.87801e-11
-2.8787e-11
-2.8794e-11
-2.88011e-11
-2.88082e-11
-2.88154e-11
-2.88228e-11
-2.88302e-11
-2.88376e-11
-2.88452e-11
-2.88528e-11
-2.88605e-11
-2.88682e-11
-2.8876e-11
-2.88839e-11
-2.88918e-11
-2.88998e-11
-2.89078e-11
-2.89159e-11
-2.8924e-11
-2.89323e-11
-2.89406e-11
-2.89489e-11
-2.89573e-11
-2.89658e-11
-2.89744e-11
-2.89829e-11
-2.89916e-11
-2.90004e-11
-2.90091e-11
-2.90181e-11
-2.9027e-11
-2.90361e-11
-2.90452e-11
-2.90543e-11
-2.90636e-11
-2.90731e-11
-2.90825e-11
-2.90921e-11
-2.91017e-11
-2.91115e-11
-2.91213e-11
-2.91313e-11
-2.91413e-11
-2.91515e-11
-2.91618e-11
-2.91721e-11
-2.91827e-11
-2.91933e-11
-2.92041e-11
-2.9215e-11
-2.92261e-11
-2.92372e-11
-2.92485e-11
-2.926e-11
-2.92716e-11
-2.92832e-11
-2.92952e-11
-2.93073e-11
-2.93194e-11
-2.93318e-11
-2.93444e-11
-2.93572e-11
-2.937e-11
-2.93831e-11
-2.93964e-11
-2.94099e-11
-2.94236e-11
-2.94375e-11
-2.94516e-11
-2.9466e-11
-2.94806e-11
-2.94954e-11
-2.95104e-11
-2.95257e-11
-2.95412e-11
-2.95571e-11
-2.95732e-11
-2.95895e-11
-2.96062e-11
-2.96232e-11
-2.96405e-11
-2.96581e-11
-2.9676e-11
-2.96943e-11
-2.9713e-11
-2.97321e-11
)
;
    }
    inandouthalf21
    {
        type            cyclic;
        value           nonuniform List<scalar> 
100
(
2.97515e-11
2.97713e-11
2.97916e-11
2.98123e-11
2.98335e-11
2.98551e-11
2.98772e-11
2.98999e-11
2.9923e-11
2.99468e-11
2.99711e-11
2.99961e-11
3.00216e-11
3.00479e-11
3.00748e-11
3.01025e-11
3.0131e-11
3.01602e-11
3.01903e-11
3.02214e-11
3.02533e-11
3.02863e-11
3.03204e-11
3.03555e-11
3.03919e-11
3.04295e-11
3.04684e-11
3.05089e-11
3.05509e-11
3.05946e-11
3.06401e-11
3.06875e-11
3.07371e-11
3.07895e-11
3.08454e-11
3.09049e-11
3.09678e-11
3.10348e-11
3.11089e-11
3.11933e-11
3.12843e-11
3.13925e-11
3.21386e-11
3.20277e-11
3.2165e-11
3.25131e-11
1.47771e-10
3.73291e-08
1.48018e-07
2.41694e-07
3.17668e-07
3.81262e-07
4.3565e-07
4.82859e-07
5.2433e-07
5.61138e-07
5.94106e-07
6.23879e-07
6.50966e-07
6.7577e-07
6.98614e-07
7.19758e-07
7.39408e-07
7.57734e-07
7.74871e-07
7.90927e-07
8.05992e-07
8.20135e-07
8.33412e-07
8.45867e-07
8.57534e-07
8.68438e-07
8.78598e-07
8.88026e-07
8.96733e-07
9.04727e-07
9.1202e-07
9.18623e-07
9.24556e-07
9.29842e-07
9.34513e-07
9.38604e-07
9.42159e-07
9.45222e-07
9.47842e-07
9.50064e-07
9.51936e-07
9.53497e-07
9.54788e-07
9.55842e-07
9.56689e-07
9.57356e-07
9.57865e-07
9.58235e-07
9.58482e-07
9.5862e-07
9.58662e-07
9.58617e-07
9.58494e-07
9.58301e-07
)
;
    }
    inandouthalf22
    {
        type            cyclic;
        value           nonuniform List<scalar> 
100
(
-2.97515e-11
-2.97713e-11
-2.97916e-11
-2.98123e-11
-2.98335e-11
-2.98551e-11
-2.98772e-11
-2.98999e-11
-2.9923e-11
-2.99468e-11
-2.99711e-11
-2.99961e-11
-3.00216e-11
-3.00479e-11
-3.00748e-11
-3.01025e-11
-3.0131e-11
-3.01602e-11
-3.01903e-11
-3.02214e-11
-3.02533e-11
-3.02863e-11
-3.03204e-11
-3.03555e-11
-3.03919e-11
-3.04295e-11
-3.04684e-11
-3.05089e-11
-3.05509e-11
-3.05946e-11
-3.06401e-11
-3.06875e-11
-3.07371e-11
-3.07895e-11
-3.08454e-11
-3.09049e-11
-3.09678e-11
-3.10348e-11
-3.11089e-11
-3.11933e-11
-3.12843e-11
-3.13925e-11
-3.21386e-11
-3.20277e-11
-3.2165e-11
-3.25131e-11
-1.47771e-10
-3.73291e-08
-1.48018e-07
-2.41694e-07
-3.17668e-07
-3.81262e-07
-4.3565e-07
-4.82859e-07
-5.2433e-07
-5.61138e-07
-5.94106e-07
-6.23879e-07
-6.50966e-07
-6.7577e-07
-6.98614e-07
-7.19758e-07
-7.39408e-07
-7.57734e-07
-7.74871e-07
-7.90927e-07
-8.05992e-07
-8.20135e-07
-8.33412e-07
-8.45867e-07
-8.57534e-07
-8.68438e-07
-8.78598e-07
-8.88026e-07
-8.96733e-07
-9.04727e-07
-9.1202e-07
-9.18623e-07
-9.24556e-07
-9.29842e-07
-9.34513e-07
-9.38604e-07
-9.42159e-07
-9.45222e-07
-9.47842e-07
-9.50064e-07
-9.51936e-07
-9.53497e-07
-9.54788e-07
-9.55842e-07
-9.56689e-07
-9.57356e-07
-9.57865e-07
-9.58235e-07
-9.58482e-07
-9.5862e-07
-9.58662e-07
-9.58617e-07
-9.58494e-07
-9.58301e-07
)
;
    }
    inandouthalf31
    {
        type            cyclic;
        value           nonuniform List<scalar> 
110
(
9.58046e-07
9.77166e-07
9.96602e-07
1.01636e-06
1.03644e-06
1.05685e-06
1.0776e-06
1.09868e-06
1.12011e-06
1.14189e-06
1.16401e-06
1.18649e-06
1.20933e-06
1.23253e-06
1.2561e-06
1.28004e-06
1.30435e-06
1.32903e-06
1.3541e-06
1.37955e-06
1.40539e-06
1.43162e-06
1.45824e-06
1.48526e-06
1.51268e-06
1.54051e-06
1.56874e-06
1.59739e-06
1.62645e-06
1.65594e-06
1.68585e-06
1.7162e-06
1.74698e-06
1.7782e-06
1.80988e-06
1.842e-06
1.8746e-06
1.90766e-06
1.94121e-06
1.97524e-06
2.00979e-06
2.04485e-06
2.08044e-06
2.11658e-06
2.15329e-06
2.1906e-06
2.22852e-06
2.26709e-06
2.30634e-06
2.34631e-06
2.38703e-06
2.42856e-06
2.47096e-06
2.51427e-06
2.55859e-06
2.60397e-06
2.65052e-06
2.69831e-06
2.74746e-06
2.79807e-06
2.85024e-06
2.9041e-06
2.95973e-06
3.01723e-06
3.07667e-06
3.1381e-06
3.20156e-06
3.26706e-06
3.33459e-06
3.40412e-06
3.47563e-06
3.54906e-06
3.62436e-06
3.70145e-06
3.78024e-06
3.86062e-06
3.94246e-06
4.02555e-06
4.10918e-06
4.19295e-06
4.27807e-06
4.3649e-06
4.4535e-06
4.54389e-06
4.63612e-06
4.73022e-06
4.82623e-06
4.92419e-06
5.02414e-06
5.12611e-06
5.23016e-06
5.33632e-06
5.44463e-06
5.55514e-06
5.6679e-06
5.78294e-06
5.90032e-06
6.02008e-06
6.14227e-06
6.26694e-06
6.39415e-06
6.52393e-06
6.65635e-06
6.79146e-06
6.9293e-06
7.06995e-06
7.21345e-06
7.35987e-06
7.50925e-06
7.66167e-06
)
;
    }
    inandouthalf32
    {
        type            cyclic;
        value           nonuniform List<scalar> 
110
(
-9.58046e-07
-9.77166e-07
-9.96602e-07
-1.01636e-06
-1.03644e-06
-1.05685e-06
-1.0776e-06
-1.09868e-06
-1.12011e-06
-1.14189e-06
-1.16401e-06
-1.18649e-06
-1.20933e-06
-1.23253e-06
-1.2561e-06
-1.28004e-06
-1.30435e-06
-1.32903e-06
-1.3541e-06
-1.37955e-06
-1.40539e-06
-1.43162e-06
-1.45824e-06
-1.48526e-06
-1.51268e-06
-1.54051e-06
-1.56874e-06
-1.59739e-06
-1.62645e-06
-1.65594e-06
-1.68585e-06
-1.7162e-06
-1.74698e-06
-1.7782e-06
-1.80988e-06
-1.842e-06
-1.8746e-06
-1.90766e-06
-1.94121e-06
-1.97524e-06
-2.00979e-06
-2.04485e-06
-2.08044e-06
-2.11658e-06
-2.15329e-06
-2.1906e-06
-2.22852e-06
-2.26709e-06
-2.30634e-06
-2.34631e-06
-2.38703e-06
-2.42856e-06
-2.47096e-06
-2.51427e-06
-2.55859e-06
-2.60397e-06
-2.65052e-06
-2.69831e-06
-2.74746e-06
-2.79807e-06
-2.85024e-06
-2.9041e-06
-2.95973e-06
-3.01723e-06
-3.07667e-06
-3.1381e-06
-3.20156e-06
-3.26706e-06
-3.33459e-06
-3.40412e-06
-3.47563e-06
-3.54906e-06
-3.62436e-06
-3.70145e-06
-3.78024e-06
-3.86062e-06
-3.94246e-06
-4.02555e-06
-4.10918e-06
-4.19295e-06
-4.27807e-06
-4.3649e-06
-4.4535e-06
-4.54389e-06
-4.63612e-06
-4.73022e-06
-4.82623e-06
-4.92419e-06
-5.02414e-06
-5.12611e-06
-5.23016e-06
-5.33632e-06
-5.44463e-06
-5.55514e-06
-5.6679e-06
-5.78294e-06
-5.90032e-06
-6.02008e-06
-6.14227e-06
-6.26694e-06
-6.39415e-06
-6.52393e-06
-6.65635e-06
-6.79146e-06
-6.9293e-06
-7.06995e-06
-7.21345e-06
-7.35987e-06
-7.50925e-06
-7.66167e-06
)
;
    }
    inandouthalf41
    {
        type            cyclic;
        value           nonuniform List<scalar> 
50
(
6.85797e-06
6.85797e-06
6.85797e-06
6.85797e-06
6.85797e-06
6.85797e-06
6.85797e-06
6.85797e-06
6.85797e-06
6.85797e-06
6.85797e-06
6.85797e-06
6.85797e-06
6.85797e-06
6.85797e-06
6.85797e-06
6.85797e-06
6.85797e-06
6.85797e-06
6.85797e-06
6.85797e-06
6.85797e-06
6.85797e-06
6.85797e-06
6.85797e-06
6.85797e-06
6.85797e-06
6.85797e-06
6.85797e-06
6.85797e-06
6.85797e-06
6.85797e-06
6.85797e-06
6.85797e-06
6.85797e-06
6.85797e-06
6.85797e-06
6.85797e-06
6.85797e-06
6.85797e-06
6.85797e-06
6.85797e-06
6.85797e-06
6.85797e-06
6.85797e-06
6.85797e-06
6.85797e-06
6.85797e-06
6.85797e-06
6.85797e-06
)
;
    }
    inandouthalf42
    {
        type            cyclic;
        value           nonuniform List<scalar> 
50
(
-6.85797e-06
-6.85797e-06
-6.85797e-06
-6.85797e-06
-6.85797e-06
-6.85797e-06
-6.85797e-06
-6.85797e-06
-6.85797e-06
-6.85797e-06
-6.85797e-06
-6.85797e-06
-6.85797e-06
-6.85797e-06
-6.85797e-06
-6.85797e-06
-6.85797e-06
-6.85797e-06
-6.85797e-06
-6.85797e-06
-6.85797e-06
-6.85797e-06
-6.85797e-06
-6.85797e-06
-6.85797e-06
-6.85797e-06
-6.85797e-06
-6.85797e-06
-6.85797e-06
-6.85797e-06
-6.85797e-06
-6.85797e-06
-6.85797e-06
-6.85797e-06
-6.85797e-06
-6.85797e-06
-6.85797e-06
-6.85797e-06
-6.85797e-06
-6.85797e-06
-6.85797e-06
-6.85797e-06
-6.85797e-06
-6.85797e-06
-6.85797e-06
-6.85797e-06
-6.85797e-06
-6.85797e-06
-6.85797e-06
-6.85797e-06
)
;
    }
    top
    {
        type            symmetryPlane;
        value           uniform 0;
    }
    walls
    {
        type            fixedValue;
        value           uniform 0;
    }
    frontAndBackPlanes
    {
        type            empty;
        value           nonuniform 0();
    }
}


// ************************************************************************* //
