/*--------------------------------*- C++ -*----------------------------------*\
| =========                 |                                                 |
| \\      /  F ield         | OpenFOAM: The Open Source CFD Toolbox           |
|  \\    /   O peration     | Version:  2.4.x                                 |
|   \\  /    A nd           | Web:      www.OpenFOAM.org                      |
|    \\/     M anipulation  |                                                 |
\*---------------------------------------------------------------------------*/
FoamFile
{
    version     2.0;
    format      ascii;
    class       volVectorField;
    location    "12";
    object      susb;
}
// * * * * * * * * * * * * * * * * * * * * * * * * * * * * * * * * * * * * * //

dimensions      [0 1 -2 0 0 0 0];

internalField   nonuniform List<vector> 
360
(
(0 6.03554e-18 0)
(0 6.69492e-18 0)
(0 -6.57822e-21 0)
(0 -9.23948e-19 0)
(-3.69904e-31 -3.85698e-19 0)
(-3.6987e-31 -2.10705e-19 0)
(-3.69828e-31 -2.72294e-19 0)
(0 -3.11447e-19 0)
(-3.69716e-31 -3.16703e-19 0)
(0 -3.19393e-19 0)
(-7.39203e-31 -3.20577e-19 0)
(0 -3.21917e-19 0)
(-3.69486e-31 -3.24711e-19 0)
(0 -3.27594e-19 0)
(0 -3.31353e-19 0)
(0 -3.35163e-19 0)
(0 -3.382e-19 0)
(-3.69187e-31 -3.40954e-19 0)
(0 -3.45108e-19 0)
(0 -3.48037e-19 0)
(0 -3.51088e-19 0)
(-3.68937e-31 -3.55442e-19 0)
(0 -3.58614e-19 0)
(0 -3.62302e-19 0)
(0 -3.66088e-19 0)
(-7.37353e-31 -3.69154e-19 0)
(0 -3.73347e-19 0)
(0 -3.77707e-19 0)
(0 -3.80839e-19 0)
(0 -3.84507e-19 0)
(0 -3.89628e-19 0)
(0 -3.92322e-19 0)
(0 -3.97085e-19 0)
(0 -4.01961e-19 0)
(0 -4.05076e-19 0)
(3.67978e-31 -4.09507e-19 0)
(0 -4.13746e-19 0)
(0 -4.20015e-19 0)
(0 -4.22101e-19 0)
(0 -4.27223e-19 0)
(0 -4.34137e-19 0)
(0 -4.35634e-19 0)
(3.67445e-31 -4.41923e-19 0)
(0 -4.47687e-19 0)
(0 -4.514e-19 0)
(0 -4.58313e-19 0)
(0 -4.61286e-19 0)
(0 -4.65816e-19 0)
(0 -4.75125e-19 0)
(0 -4.78478e-19 0)
(7.33562e-31 -4.8282e-19 0)
(0 -4.90065e-19 0)
(0 -4.9594e-19 0)
(0 -5.00686e-19 0)
(0 -5.07884e-19 0)
(0 -5.13836e-19 0)
(0 -5.19526e-19 0)
(0 -5.27546e-19 0)
(0 -5.30956e-19 0)
(0 -5.39886e-19 0)
(0 -5.46953e-19 0)
(0 -5.52935e-19 0)
(0 -5.61248e-19 0)
(0 -5.67563e-19 0)
(0 -5.7477e-19 0)
(0 -5.82578e-19 0)
(0 -5.91507e-19 0)
(0 -5.98913e-19 0)
(0 -6.04861e-19 0)
(0 -6.14587e-19 0)
(0 -6.26112e-19 0)
(0 -6.31338e-19 0)
(0 -6.40063e-19 0)
(0 -6.51184e-19 0)
(0 -6.60826e-19 0)
(0 -6.70017e-19 0)
(0 -6.78391e-19 0)
(0 -6.89627e-19 0)
(0 -7.00678e-19 0)
(0 -7.10582e-19 0)
(0 -7.21374e-19 0)
(0 -7.33565e-19 0)
(0 -7.45158e-19 0)
(0 -7.5714e-19 0)
(0 -7.69532e-19 0)
(0 -7.82405e-19 0)
(0 -7.95465e-19 0)
(0 -8.08535e-19 0)
(0 -8.22554e-19 0)
(0 -8.37043e-19 0)
(0 -8.51739e-19 0)
(0 -8.67199e-19 0)
(0 -8.83316e-19 0)
(0 -8.99759e-19 0)
(0 -9.1674e-19 0)
(0 -9.3429e-19 0)
(0 -9.52375e-19 0)
(0 -9.71062e-19 0)
(0 -9.9047e-19 0)
(0 -1.01061e-18 0)
(0 -1.03151e-18 0)
(0 -1.05324e-18 0)
(0 -1.0758e-18 0)
(0 -1.0992e-18 0)
(0 -1.12347e-18 0)
(0 -1.14868e-18 0)
(0 -1.17485e-18 0)
(0 -1.20207e-18 0)
(0 -1.23038e-18 0)
(0 -1.25986e-18 0)
(0 -1.29056e-18 0)
(0 -1.32255e-18 0)
(0 -1.35594e-18 0)
(0 -1.3908e-18 0)
(0 -1.42726e-18 0)
(0 -1.46544e-18 0)
(0 -1.50548e-18 0)
(0 -1.54755e-18 0)
(0 -1.59182e-18 0)
(0 -1.63848e-18 0)
(0 -1.68771e-18 0)
(0 -1.73965e-18 0)
(0 -1.79441e-18 0)
(0 -1.85209e-18 0)
(0 -1.91293e-18 0)
(0 -1.97748e-18 0)
(0 -2.04661e-18 0)
(0 -2.12126e-18 0)
(0 -2.20161e-18 0)
(0 -2.28663e-18 0)
(0 -2.37564e-18 0)
(0 -2.47341e-18 0)
(0 -1.86976e-18 0)
(0 -5.23427e-18 0)
(0 -3.93858e-17 0)
(0 -3.207e-16 0)
(0 -2.69799e-15 0)
(0 -2.40544e-14 0)
(0 -2.33097e-13 0)
(0 -2.4025e-12 0)
(0 -2.81856e-11 0)
(0 -1.42984e-09 0)
(0 -1.51508e-08 0)
(0 -9.9132e-09 0)
(0 -2.8482e-06 0)
(0 -0.00022901 0)
(0 -0.239114 0)
(0 -2.4465 0)
(0 -2.59783 0)
(0 -1.41463 0)
(0 -1.03221 0)
(0 -0.932283 0)
(0 -0.840871 0)
(0 -0.751139 0)
(0 -0.661393 0)
(0 -0.574026 0)
(0 -0.492031 0)
(0 -0.417635 0)
(0 -0.351962 0)
(0 -0.295182 0)
(0 -0.246812 0)
(0 -0.206019 0)
(0 -0.171834 0)
(0 -0.143296 0)
(0 -0.119517 0)
(0 -0.0997159 0)
(0 -0.0832255 0)
(0 -0.0694852 0)
(0 -0.0580322 0)
(0 -0.0484959 0)
(0 -0.0405899 0)
(0 -0.0340773 0)
(0 -0.0286979 0)
(0 -0.0241218 0)
(0 -0.0200266 0)
(0 -0.0162621 0)
(0 -0.0128974 0)
(0 -0.0100774 0)
(0 -0.00786163 0)
(0 -0.00619478 0)
(0 -0.00496522 0)
(0 -0.00406002 0)
(0 -0.00338787 0)
(0 -0.00288162 0)
(0 -0.00249376 0)
(0 -0.00219112 0)
(0 -0.00195053 0)
(0 -0.00175571 0)
(0 -0.00159513 0)
(0 -0.00146051 0)
(0 -0.00134589 0)
(0 -0.00124688 0)
(0 -0.00116024 0)
(0 -0.00108357 0)
(0 -0.00101502 0)
(0 -0.000953183 0)
(0 -0.000896965 0)
(0 -0.000845493 0)
(0 -0.000798066 0)
(0 -0.000754109 0)
(0 -0.00071315 0)
(0 -0.000674475 0)
(-5.2143e-19 -0.000637443 0)
(0 -0.000601843 0)
(0 -0.000567483 0)
(2.55703e-19 -0.000534193 0)
(0 -0.000501832 0)
(-2.50618e-19 -0.000470296 0)
(0 -0.000439521 0)
(2.44237e-19 -0.000409488 0)
(0 -0.000380225 0)
(0 -0.000351795 0)
(0 -0.00032429 0)
(2.27933e-19 -0.000297815 0)
(0 -0.000272471 0)
(0 -0.000248343 0)
(0 -0.000225494 0)
(0 -0.000203959 0)
(0 -0.000183745 0)
(-9.78831e-20 -0.000164837 0)
(0 -0.000147202 0)
(-9.16374e-20 -0.000130803 0)
(0 -0.000115614 0)
(-4.25449e-20 -0.000101634 0)
(0 -8.89104e-05 0)
(0 -7.75891e-05 0)
(0 -6.79812e-05 0)
(0 -6.04874e-05 0)
(1.8497e-20 -5.52333e-05 0)
(1.85574e-20 -5.18681e-05 0)
(0 -4.94701e-05 0)
(0 -4.59098e-05 0)
(0 -3.83967e-05 0)
(0 -2.72179e-05 0)
(0 -1.80499e-05 0)
(0 -1.47774e-05 0)
(0 -1.41507e-05 0)
(0 -1.03351e-05 0)
(0 -8.96946e-06 0)
(0 -7.2439e-06 0)
(0 -5.81489e-06 0)
(0 -4.63721e-06 0)
(0 -3.67027e-06 0)
(-7.60405e-22 -2.88004e-06 0)
(7.30248e-22 -2.23844e-06 0)
(0 -1.71846e-06 0)
(0 -1.30899e-06 0)
(-3.1478e-22 -9.70552e-07 0)
(0 -7.29199e-07 0)
(0 -5.06014e-07 0)
(-7.26532e-23 -3.78044e-07 0)
(0 -2.49519e-07 0)
(0 -1.81389e-07 0)
(0 -2.92809e-08 0)
(0 -2.55816e-19 0)
(0 -1.25561e-30 0)
(0 -7.12641e-42 0)
(0 -5.06252e-53 0)
(0 -5.02191e-64 0)
(0 -2.77408e-72 0)
(0 -1.38551e-72 0)
(0 -6.35102e-73 0)
(0 -2.96802e-73 0)
(0 -1.37538e-73 0)
(0 -6.26167e-74 0)
(0 -2.79753e-74 0)
(2.6705e-90 -1.22465e-74 0)
(0 -5.24258e-75 0)
(0 -2.1895e-75 0)
(0 -8.89611e-76 0)
(0 -3.5051e-76 0)
(0 -1.33386e-76 0)
(0 -4.87664e-77 0)
(0 -1.69961e-77 0)
(0 -5.57624e-78 0)
(0 -1.68345e-78 0)
(0 -4.44863e-79 0)
(0 -8.77278e-80 0)
(0 -6.63978e-81 0)
(0 -8.76992e-83 0)
(0 -4.19407e-85 0)
(0 -1.73908e-87 0)
(0 -6.59058e-90 0)
(0 -2.28135e-92 0)
(0 -7.17225e-95 0)
(0 -1.41283e-97 0)
(3.02286e-116 -2.88609e-100 0)
(0 -7.51513e-101 0)
(0 -1.9956e-101 0)
(0 -5.08959e-102 0)
(0 -1.24394e-102 0)
(0 -2.90643e-103 0)
(0 -6.47421e-104 0)
(0 -1.37079e-104 0)
(0 -2.74941e-105 0)
(0 -5.20399e-106 0)
(1.11265e-122 -9.25496e-107 0)
(0 -1.53883e-107 0)
(0 -2.37835e-108 0)
(-2.04602e-125 -3.39381e-109 0)
(0 -4.43534e-110 0)
(0 -5.25727e-111 0)
(0 -5.58427e-112 0)
(0 -5.23525e-113 0)
(0 -4.24664e-114 0)
(0 -2.90094e-115 0)
(0 -1.60498e-116 0)
(0 -6.76406e-118 0)
(0 -1.944e-119 0)
(0 -2.92715e-121 0)
(0 -2.79936e-124 0)
(0 -1.52772e-131 0)
(0 -8.6012e-134 0)
(0 -2.39358e-136 0)
(0 -1.04011e-146 0)
(0 -2.31777e-157 0)
(0 -3.93497e-168 0)
(0 -4.8596e-179 0)
(0 -5.29926e-190 0)
(0 -4.42092e-201 0)
(0 -3.20334e-212 0)
(0 -4.63109e-223 0)
(0 -1.82411e-233 0)
(0 -9.26365e-242 0)
(0 -4.97378e-252 0)
(0 -3.18561e-260 0)
(0 -2.03561e-270 0)
(0 -1.09709e-278 0)
(0 -8.63024e-289 0)
(0 -3.78549e-297 0)
(0 -5.57871e-307 0)
(0 -1.34914e-315 0)
(0 -0 0)
(0 -0 0)
(0 0 0)
(0 0 0)
(0 0 0)
(0 0 0)
(0 0 0)
(0 0 0)
(0 0 0)
(0 0 0)
(0 0 0)
(0 0 0)
(0 0 0)
(0 0 0)
(0 0 0)
(0 0 0)
(0 0 0)
(0 0 0)
(0 0 0)
(0 0 0)
(0 0 0)
(0 0 0)
(0 0 0)
(0 0 0)
(0 0 0)
(0 0 0)
(0 0 0)
(0 0 0)
)
;

boundaryField
{
    inandouthalf11
    {
        type            cyclic;
    }
    inandouthalf12
    {
        type            cyclic;
    }
    inandouthalf21
    {
        type            cyclic;
    }
    inandouthalf22
    {
        type            cyclic;
    }
    inandouthalf31
    {
        type            cyclic;
    }
    inandouthalf32
    {
        type            cyclic;
    }
    inandouthalf41
    {
        type            cyclic;
    }
    inandouthalf42
    {
        type            cyclic;
    }
    top
    {
        type            symmetryPlane;
    }
    walls
    {
        type            zeroGradient;
    }
    frontAndBackPlanes
    {
        type            empty;
    }
}


// ************************************************************************* //
