/*--------------------------------*- C++ -*----------------------------------*\
| =========                 |                                                 |
| \\      /  F ield         | OpenFOAM: The Open Source CFD Toolbox           |
|  \\    /   O peration     | Version:  2.4.x                                 |
|   \\  /    A nd           | Web:      www.OpenFOAM.org                      |
|    \\/     M anipulation  |                                                 |
\*---------------------------------------------------------------------------*/
FoamFile
{
    version     2.0;
    format      ascii;
    class       volTensorField;
    location    "12";
    object      Tauf;
}
// * * * * * * * * * * * * * * * * * * * * * * * * * * * * * * * * * * * * * //

dimensions      [0 2 -2 0 0 0 0];

internalField   nonuniform List<tensor> 
360
(
(0 -5.75431e-08 0 -5.75431e-08 1.14431e-11 0 0 0 0)
(0 1.81474e-10 0 1.81474e-10 1.3919e-11 0 0 0 0)
(0 -1.7333e-12 0 -1.7333e-12 1.4706e-11 0 0 0 0)
(0 -3.35113e-11 0 -3.35113e-11 1.44938e-11 0 0 0 0)
(6.46235e-24 -1.50509e-11 0 -1.50509e-11 1.49798e-11 0 0 0 0)
(6.46235e-24 -9.08908e-12 0 -9.08908e-12 1.56466e-11 0 0 0 0)
(6.46235e-24 -1.12853e-11 0 -1.12853e-11 1.61937e-11 0 0 0 0)
(0 -1.27072e-11 0 -1.27072e-11 1.66794e-11 0 0 0 0)
(6.46235e-24 -1.29612e-11 0 -1.29612e-11 1.71799e-11 0 0 0 0)
(0 -1.31292e-11 0 -1.31292e-11 1.77054e-11 0 0 0 0)
(6.46235e-24 -1.32457e-11 0 -1.32457e-11 1.82344e-11 0 0 0 0)
(0 -1.3366e-11 0 -1.3366e-11 1.87446e-11 0 0 0 0)
(3.23117e-24 -1.35335e-11 0 -1.35335e-11 1.92232e-11 0 0 0 0)
(0 -1.37001e-11 0 -1.37001e-11 1.96634e-11 0 0 0 0)
(0 -1.38926e-11 0 -1.38926e-11 2.00618e-11 0 0 0 0)
(0 -1.40821e-11 0 -1.40821e-11 2.04158e-11 0 0 0 0)
(0 -1.42395e-11 0 -1.42395e-11 2.07216e-11 0 0 0 0)
(3.23117e-24 -1.43812e-11 0 -1.43812e-11 2.09753e-11 0 0 0 0)
(0 -1.45653e-11 0 -1.45653e-11 2.11761e-11 0 0 0 0)
(0 -1.47008e-11 0 -1.47008e-11 2.13232e-11 0 0 0 0)
(0 -1.48342e-11 0 -1.48342e-11 2.14168e-11 0 0 0 0)
(6.46235e-24 -1.50068e-11 0 -1.50068e-11 2.14597e-11 0 0 0 0)
(0 -1.51325e-11 0 -1.51325e-11 2.14541e-11 0 0 0 0)
(0 -1.52705e-11 0 -1.52705e-11 2.1402e-11 0 0 0 0)
(0 -1.54066e-11 0 -1.54066e-11 2.13067e-11 0 0 0 0)
(3.23117e-24 -1.55127e-11 0 -1.55127e-11 2.11707e-11 0 0 0 0)
(0 -1.56534e-11 0 -1.56534e-11 2.09986e-11 0 0 0 0)
(0 -1.57959e-11 0 -1.57959e-11 2.07952e-11 0 0 0 0)
(0 -1.5892e-11 0 -1.5892e-11 2.05631e-11 0 0 0 0)
(0 -1.60034e-11 0 -1.60034e-11 2.03055e-11 0 0 0 0)
(0 -1.61627e-11 0 -1.61627e-11 2.0028e-11 0 0 0 0)
(0 -1.62353e-11 0 -1.62353e-11 1.97329e-11 0 0 0 0)
(0 -1.6378e-11 0 -1.6378e-11 1.94244e-11 0 0 0 0)
(0 -1.65233e-11 0 -1.65233e-11 1.9107e-11 0 0 0 0)
(0 -1.66061e-11 0 -1.66061e-11 1.87815e-11 0 0 0 0)
(-6.46235e-24 -1.67339e-11 0 -1.67339e-11 1.84513e-11 0 0 0 0)
(0 -1.68547e-11 0 -1.68547e-11 1.8119e-11 0 0 0 0)
(0 -1.70466e-11 0 -1.70466e-11 1.77898e-11 0 0 0 0)
(0 -1.70924e-11 0 -1.70924e-11 1.74617e-11 0 0 0 0)
(0 -1.72447e-11 0 -1.72447e-11 1.71372e-11 0 0 0 0)
(0 -1.74605e-11 0 -1.74605e-11 1.6821e-11 0 0 0 0)
(0 -1.74876e-11 0 -1.74876e-11 1.65095e-11 0 0 0 0)
(-6.46235e-24 -1.76832e-11 0 -1.76832e-11 1.62066e-11 0 0 0 0)
(0 -1.78619e-11 0 -1.78619e-11 1.59143e-11 0 0 0 0)
(0 -1.797e-11 0 -1.797e-11 1.5631e-11 0 0 0 0)
(0 -1.81916e-11 0 -1.81916e-11 1.53594e-11 0 0 0 0)
(0 -1.82762e-11 0 -1.82762e-11 1.5096e-11 0 0 0 0)
(0 -1.84168e-11 0 -1.84168e-11 1.48412e-11 0 0 0 0)
(0 -1.87269e-11 0 -1.87269e-11 1.46013e-11 0 0 0 0)
(0 -1.88297e-11 0 -1.88297e-11 1.43719e-11 0 0 0 0)
(-6.46235e-24 -1.89684e-11 0 -1.89684e-11 1.41518e-11 0 0 0 0)
(0 -1.92107e-11 0 -1.92107e-11 1.39426e-11 0 0 0 0)
(0 -1.94065e-11 0 -1.94065e-11 1.37439e-11 0 0 0 0)
(0 -1.9564e-11 0 -1.9564e-11 1.35543e-11 0 0 0 0)
(0 -1.98094e-11 0 -1.98094e-11 1.33754e-11 0 0 0 0)
(0 -2.00125e-11 0 -2.00125e-11 1.32057e-11 0 0 0 0)
(0 -2.02077e-11 0 -2.02077e-11 1.30438e-11 0 0 0 0)
(0 -2.04864e-11 0 -2.04864e-11 1.28917e-11 0 0 0 0)
(0 -2.06038e-11 0 -2.06038e-11 1.27436e-11 0 0 0 0)
(0 -2.09172e-11 0 -2.09172e-11 1.26049e-11 0 0 0 0)
(0 -2.11665e-11 0 -2.11665e-11 1.24739e-11 0 0 0 0)
(0 -2.13788e-11 0 -2.13788e-11 1.23497e-11 0 0 0 0)
(0 -2.16748e-11 0 -2.16748e-11 1.22332e-11 0 0 0 0)
(0 -2.19014e-11 0 -2.19014e-11 1.21211e-11 0 0 0 0)
(0 -2.21604e-11 0 -2.21604e-11 1.20137e-11 0 0 0 0)
(0 -2.2442e-11 0 -2.2442e-11 1.19105e-11 0 0 0 0)
(0 -2.27645e-11 0 -2.27645e-11 1.18124e-11 0 0 0 0)
(0 -2.30339e-11 0 -2.30339e-11 1.17177e-11 0 0 0 0)
(0 -2.32523e-11 0 -2.32523e-11 1.16238e-11 0 0 0 0)
(0 -2.36059e-11 0 -2.36059e-11 1.15332e-11 0 0 0 0)
(0 -2.40249e-11 0 -2.40249e-11 1.14492e-11 0 0 0 0)
(0 -2.42209e-11 0 -2.42209e-11 1.13652e-11 0 0 0 0)
(0 -2.4542e-11 0 -2.4542e-11 1.12833e-11 0 0 0 0)
(0 -2.49496e-11 0 -2.49496e-11 1.12042e-11 0 0 0 0)
(0 -2.53058e-11 0 -2.53058e-11 1.11272e-11 0 0 0 0)
(0 -2.56467e-11 0 -2.56467e-11 1.10515e-11 0 0 0 0)
(0 -2.5959e-11 0 -2.5959e-11 1.09738e-11 0 0 0 0)
(0 -2.63743e-11 0 -2.63743e-11 1.08961e-11 0 0 0 0)
(0 -2.67839e-11 0 -2.67839e-11 1.08181e-11 0 0 0 0)
(0 -2.71532e-11 0 -2.71532e-11 1.07393e-11 0 0 0 0)
(0 -2.75553e-11 0 -2.75553e-11 1.06598e-11 0 0 0 0)
(0 -2.80084e-11 0 -2.80084e-11 1.05806e-11 0 0 0 0)
(0 -2.84413e-11 0 -2.84413e-11 1.05012e-11 0 0 0 0)
(0 -2.88892e-11 0 -2.88892e-11 1.04218e-11 0 0 0 0)
(0 -2.93529e-11 0 -2.93529e-11 1.03415e-11 0 0 0 0)
(0 -2.98348e-11 0 -2.98348e-11 1.02598e-11 0 0 0 0)
(0 -3.03245e-11 0 -3.03245e-11 1.01761e-11 0 0 0 0)
(0 -3.08154e-11 0 -3.08154e-11 1.00892e-11 0 0 0 0)
(0 -3.13415e-11 0 -3.13415e-11 9.99939e-12 0 0 0 0)
(0 -3.18855e-11 0 -3.18855e-11 9.9067e-12 0 0 0 0)
(0 -3.24382e-11 0 -3.24382e-11 9.8113e-12 0 0 0 0)
(0 -3.30198e-11 0 -3.30198e-11 9.71384e-12 0 0 0 0)
(0 -3.36266e-11 0 -3.36266e-11 9.61477e-12 0 0 0 0)
(0 -3.42469e-11 0 -3.42469e-11 9.51415e-12 0 0 0 0)
(0 -3.48884e-11 0 -3.48884e-11 9.41197e-12 0 0 0 0)
(0 -3.55522e-11 0 -3.55522e-11 9.30795e-12 0 0 0 0)
(0 -3.62373e-11 0 -3.62373e-11 9.20175e-12 0 0 0 0)
(0 -3.69461e-11 0 -3.69461e-11 9.09314e-12 0 0 0 0)
(0 -3.76831e-11 0 -3.76831e-11 8.98211e-12 0 0 0 0)
(0 -3.84492e-11 0 -3.84492e-11 8.86881e-12 0 0 0 0)
(0 -3.9245e-11 0 -3.9245e-11 8.75355e-12 0 0 0 0)
(0 -4.00739e-11 0 -4.00739e-11 8.63681e-12 0 0 0 0)
(0 -4.09362e-11 0 -4.09362e-11 8.51905e-12 0 0 0 0)
(0 -4.1832e-11 0 -4.1832e-11 8.40073e-12 0 0 0 0)
(0 -4.27636e-11 0 -4.27636e-11 8.28225e-12 0 0 0 0)
(0 -4.3733e-11 0 -4.3733e-11 8.164e-12 0 0 0 0)
(0 -4.47422e-11 0 -4.47422e-11 8.04632e-12 0 0 0 0)
(0 -4.57939e-11 0 -4.57939e-11 7.92955e-12 0 0 0 0)
(0 -4.68908e-11 0 -4.68908e-11 7.81395e-12 0 0 0 0)
(0 -4.80355e-11 0 -4.80355e-11 7.6997e-12 0 0 0 0)
(0 -4.92309e-11 0 -4.92309e-11 7.58684e-12 0 0 0 0)
(0 -5.04802e-11 0 -5.04802e-11 7.47517e-12 0 0 0 0)
(0 -5.17869e-11 0 -5.17869e-11 7.36421e-12 0 0 0 0)
(0 -5.31551e-11 0 -5.31551e-11 7.25318e-12 0 0 0 0)
(0 -5.45892e-11 0 -5.45892e-11 7.14091e-12 0 0 0 0)
(0 -5.60942e-11 0 -5.60942e-11 7.02592e-12 0 0 0 0)
(0 -5.76758e-11 0 -5.76758e-11 6.90638e-12 0 0 0 0)
(0 -5.93404e-11 0 -5.93404e-11 6.78029e-12 0 0 0 0)
(0 -6.10952e-11 0 -6.10952e-11 6.64559e-12 0 0 0 0)
(0 -6.29477e-11 0 -6.29477e-11 6.50047e-12 0 0 0 0)
(0 -6.49052e-11 0 -6.49052e-11 6.34369e-12 0 0 0 0)
(0 -6.69741e-11 0 -6.69741e-11 6.17495e-12 0 0 0 0)
(0 -6.91595e-11 0 -6.91595e-11 5.99547e-12 0 0 0 0)
(0 -7.14677e-11 0 -7.14677e-11 5.80847e-12 0 0 0 0)
(0 -7.39107e-11 0 -7.39107e-11 5.61969e-12 0 0 0 0)
(0 -7.65127e-11 0 -7.65127e-11 5.43763e-12 0 0 0 0)
(0 -7.93124e-11 0 -7.93124e-11 5.27316e-12 0 0 0 0)
(0 -8.23509e-11 0 -8.23509e-11 5.1381e-12 0 0 0 0)
(0 -8.56424e-11 0 -8.56424e-11 5.0423e-12 0 0 0 0)
(0 -8.91531e-11 0 -8.91531e-11 4.98904e-12 0 0 0 0)
(0 -9.28602e-11 0 -9.28602e-11 4.96914e-12 0 0 0 0)
(0 -9.69472e-11 0 -9.69472e-11 4.95568e-12 0 0 0 0)
(0 -1.01926e-10 0 -1.01926e-10 4.90034e-12 0 0 0 0)
(0 -1.08199e-10 0 -1.08199e-10 4.72523e-12 0 0 0 0)
(0 -1.15292e-10 0 -1.15292e-10 4.31093e-12 0 0 0 0)
(0 -1.223e-10 0 -1.223e-10 3.5241e-12 0 0 0 0)
(0 -1.29852e-10 0 -1.29852e-10 2.31994e-12 0 0 0 0)
(0 -1.41067e-10 0 -1.41067e-10 8.54445e-13 0 0 0 0)
(0 -1.58381e-10 0 -1.58381e-10 -5.13403e-13 0 0 0 0)
(0 -1.75286e-10 0 -1.75286e-10 -1.65e-12 0 0 0 0)
(0 -1.99035e-10 0 -1.99035e-10 -8.67681e-12 0 0 0 0)
(0 -8.53651e-10 0 -8.53651e-10 -2.42083e-12 0 0 0 0)
(0 -6.34769e-10 0 -6.34769e-10 -4.0788e-12 0 0 0 0)
(0 -2.63124e-11 0 -2.63124e-11 -9.33273e-12 0 0 0 0)
(0 -4.85277e-10 0 -4.85277e-10 -9.69434e-12 0 0 0 0)
(0 -1.16431e-07 0 -1.16431e-07 -3.33843e-11 0 0 0 0)
(0 -4.46789e-05 0 -4.46789e-05 1.62079e-09 0 0 0 0)
(0 -0.000618508 0 -0.000618508 -1.12123e-08 0 0 0 0)
(0 -0.00258889 0 -0.00258889 -1.12766e-07 0 0 0 0)
(0 -0.00348315 0 -0.00348315 -1.31344e-07 0 0 0 0)
(0 -0.00378816 0 -0.00378816 -8.76025e-08 0 0 0 0)
(0 -0.00389441 0 -0.00389441 -1.64772e-07 0 0 0 0)
(0 -0.00390128 0 -0.00390128 -3.22873e-07 0 0 0 0)
(0 -0.00385235 0 -0.00385235 -4.97603e-07 0 0 0 0)
(0 -0.00377312 0 -0.00377312 -6.36327e-07 0 0 0 0)
(0 -0.00367787 0 -0.00367787 -7.03263e-07 0 0 0 0)
(0 -0.00357445 0 -0.00357445 -6.85854e-07 0 0 0 0)
(0 -0.00346685 0 -0.00346685 -5.92327e-07 0 0 0 0)
(0 -0.00335696 0 -0.00335696 -4.43563e-07 0 0 0 0)
(0 -0.00324551 0 -0.00324551 -2.64111e-07 0 0 0 0)
(0 -0.00313267 0 -0.00313267 -7.60927e-08 0 0 0 0)
(0 -0.00301841 0 -0.00301841 1.03479e-07 0 0 0 0)
(0 -0.00290264 0 -0.00290264 2.63245e-07 0 0 0 0)
(0 -0.00278533 0 -0.00278533 3.96737e-07 0 0 0 0)
(0 -0.00266653 0 -0.00266653 5.01263e-07 0 0 0 0)
(0 -0.00254635 0 -0.00254635 5.76903e-07 0 0 0 0)
(0 -0.002425 0 -0.002425 6.25605e-07 0 0 0 0)
(0 -0.00230277 0 -0.00230277 6.50458e-07 0 0 0 0)
(0 -0.00218 0 -0.00218 6.55324e-07 0 0 0 0)
(0 -0.0020571 0 -0.0020571 6.44933e-07 0 0 0 0)
(0 -0.00193453 0 -0.00193453 6.24837e-07 0 0 0 0)
(0 -0.0018128 0 -0.0018128 5.99889e-07 0 0 0 0)
(0 -0.00169246 0 -0.00169246 5.70941e-07 0 0 0 0)
(0 -0.00157408 0 -0.00157408 5.33005e-07 0 0 0 0)
(0 -0.00145827 0 -0.00145827 4.79183e-07 0 0 0 0)
(0 -0.00134565 0 -0.00134565 4.08487e-07 0 0 0 0)
(0 -0.00123686 0 -0.00123686 3.29133e-07 0 0 0 0)
(0 -0.00113247 0 -0.00113247 2.53331e-07 0 0 0 0)
(0 -0.00103299 0 -0.00103299 1.89717e-07 0 0 0 0)
(0 -0.000938773 0 -0.000938773 1.40659e-07 0 0 0 0)
(0 -0.000850043 0 -0.000850043 1.04363e-07 0 0 0 0)
(0 -0.000766856 0 -0.000766856 7.7781e-08 0 0 0 0)
(0 -0.000689126 0 -0.000689126 5.81756e-08 0 0 0 0)
(0 -0.000616645 0 -0.000616645 4.35022e-08 0 0 0 0)
(0 -0.000549118 0 -0.000549118 3.23287e-08 0 0 0 0)
(0 -0.000486193 0 -0.000486193 2.36754e-08 0 0 0 0)
(0 -0.00042749 0 -0.00042749 1.68637e-08 0 0 0 0)
(0 -0.000372624 0 -0.000372624 1.14198e-08 0 0 0 0)
(0 -0.000321223 0 -0.000321223 7.01358e-09 0 0 0 0)
(0 -0.000272939 0 -0.000272939 3.41261e-09 0 0 0 0)
(0 -0.000227454 0 -0.000227454 4.50304e-10 0 0 0 0)
(0 -0.000184484 0 -0.000184484 -1.99518e-09 0 0 0 0)
(0 -0.000143777 0 -0.000143777 -4.0149e-09 0 0 0 0)
(0 -0.000105114 0 -0.000105114 -5.67855e-09 0 0 0 0)
(0 -6.83042e-05 0 -6.83042e-05 -7.04074e-09 0 0 0 0)
(0 -3.31829e-05 0 -3.31829e-05 -8.14527e-09 0 0 0 0)
(0 3.91313e-07 0 3.91313e-07 -9.028e-09 0 0 0 0)
(0 3.25403e-05 0 3.25403e-05 -9.71882e-09 0 0 0 0)
(0 6.33688e-05 0 6.33688e-05 -1.0243e-08 0 0 0 0)
(0 9.29673e-05 0 9.29673e-05 -1.06222e-08 0 0 0 0)
(0 0.000121415 0 0.000121415 -1.08755e-08 0 0 0 0)
(0 0.000149045 0 0.000149045 -1.10201e-08 0 0 0 0)
(4.52095e-17 0.000176167 0 0.000176167 -1.10676e-08 0 0 0 0)
(0 0.000202785 0 0.000202785 -1.1026e-08 0 0 0 0)
(0 0.000228898 0 0.000228898 -1.09032e-08 0 0 0 0)
(-4.53302e-17 0.000254503 0 0.000254503 -1.0707e-08 0 0 0 0)
(0 0.000279592 0 0.000279592 -1.04452e-08 0 0 0 0)
(4.5173e-17 0.000304153 0 0.000304153 -1.01257e-08 0 0 0 0)
(0 0.000328173 0 0.000328173 -9.75686e-09 0 0 0 0)
(-4.48412e-17 0.000351635 0 0.000351635 -9.34726e-09 0 0 0 0)
(0 0.000374518 0 0.000374518 -8.90564e-09 0 0 0 0)
(0 0.000396802 0 0.000396802 -8.44079e-09 0 0 0 0)
(0 0.000418461 0 0.000418461 -7.96124e-09 0 0 0 0)
(-4.37154e-17 0.00043947 0 0.00043947 -7.47495e-09 0 0 0 0)
(0 0.0004598 0 0.0004598 -6.98895e-09 0 0 0 0)
(0 0.00047942 0 0.00047942 -6.50925e-09 0 0 0 0)
(0 0.000498299 0 0.000498299 -6.04085e-09 0 0 0 0)
(0 0.000516402 0 0.000516402 -5.58727e-09 0 0 0 0)
(0 0.000533694 0 0.000533694 -5.15013e-09 0 0 0 0)
(4.10922e-17 0.000550138 0 0.000550138 -4.73072e-09 0 0 0 0)
(0 0.000565696 0 0.000565696 -4.33035e-09 0 0 0 0)
(0 0.000580329 0 0.000580329 -3.94937e-09 0 0 0 0)
(0 0.000593995 0 0.000593995 -3.58764e-09 0 0 0 0)
(0 0.000606653 0 0.000606653 -3.24532e-09 0 0 0 0)
(0 0.000618261 0 0.000618261 -2.9231e-09 0 0 0 0)
(0 0.000628774 0 0.000628774 -2.62285e-09 0 0 0 0)
(0 0.000638148 0 0.000638148 -2.34849e-09 0 0 0 0)
(0 0.000646339 0 0.000646339 -2.10628e-09 0 0 0 0)
(-3.56534e-17 0.000653301 0 0.000653301 -1.90263e-09 0 0 0 0)
(-3.49626e-17 0.000658988 0 0.000658988 -1.73544e-09 0 0 0 0)
(0 0.000663356 0 0.000663356 -1.57779e-09 0 0 0 0)
(0 0.000666359 0 0.000666359 -1.37332e-09 0 0 0 0)
(0 0.000667951 0 0.000667951 -1.08046e-09 0 0 0 0)
(0 0.000668088 0 0.000668088 -7.47096e-10 0 0 0 0)
(0 0.000666728 0 0.000666728 -4.93566e-10 0 0 0 0)
(0 0.000663829 0 0.000663829 -3.70634e-10 0 0 0 0)
(0 0.000659351 0 0.000659351 -3.2625e-10 0 0 0 0)
(0 0.000653254 0 0.000653254 -3.03326e-10 0 0 0 0)
(0 0.000645505 0 0.000645505 -2.72029e-10 0 0 0 0)
(0 0.000636076 0 0.000636076 -2.30894e-10 0 0 0 0)
(0 0.000624942 0 0.000624942 -1.91364e-10 0 0 0 0)
(0 0.000612084 0 0.000612084 -1.56033e-10 0 0 0 0)
(0 0.00059749 0 0.00059749 -1.24899e-10 0 0 0 0)
(4.78451e-17 0.000581155 0 0.000581155 -9.79148e-11 0 0 0 0)
(0 0.000563086 0 0.000563086 -7.50541e-11 0 0 0 0)
(0 0.000543298 0 0.000543298 -5.61495e-11 0 0 0 0)
(0 0.000521822 0 0.000521822 -4.08992e-11 0 0 0 0)
(0 0.000498704 0 0.000498704 -2.89141e-11 0 0 0 0)
(0 0.000474008 0 0.000474008 -1.98637e-11 0 0 0 0)
(0 0.00044782 0 0.00044782 -1.31742e-11 0 0 0 0)
(3.55302e-17 0.000420248 0 0.000420248 -7.52446e-12 0 0 0 0)
(0 0.000391428 0 0.000391428 -2.96319e-12 0 0 0 0)
(0 0.000361527 0 0.000361527 -1.74255e-12 0 0 0 0)
(0 0.000330746 0 0.000330746 -2.16845e-12 0 0 0 0)
(0 0.000299324 0 0.000299324 -9.69389e-13 0 0 0 0)
(0 0.000267536 0 0.000267536 1.14418e-13 0 0 0 0)
(0 0.000235701 0 0.000235701 7.11188e-14 0 0 0 0)
(0 0.000204176 0 0.000204176 -7.23105e-15 0 0 0 0)
(0 0.000173349 0 0.000173349 -1.44329e-14 0 0 0 0)
(0 0.000143637 0 0.000143637 -7.7291e-15 0 0 0 0)
(0 0.000115465 0 0.000115465 -5.00898e-15 0 0 0 0)
(0 8.92473e-05 0 8.92473e-05 -4.10057e-15 0 0 0 0)
(0 6.53619e-05 0 6.53619e-05 -3.55786e-15 0 0 0 0)
(0 4.41242e-05 0 4.41242e-05 -3.78629e-15 0 0 0 0)
(0 2.57619e-05 0 2.57619e-05 -4.47027e-15 0 0 0 0)
(0 1.03999e-05 0 1.03999e-05 -4.69133e-15 0 0 0 0)
(-1.19149e-17 -1.94482e-06 0 -1.94482e-06 -4.5759e-15 0 0 0 0)
(0 -1.13555e-05 0 -1.13555e-05 -3.53358e-15 0 0 0 0)
(0 -1.80004e-05 0 -1.80004e-05 3.22707e-15 0 0 0 0)
(0 -2.21143e-05 0 -2.21143e-05 1.44528e-14 0 0 0 0)
(0 -2.39807e-05 0 -2.39807e-05 -1.58835e-13 0 0 0 0)
(0 -2.39176e-05 0 -2.39176e-05 4.22751e-13 0 0 0 0)
(0 -2.22658e-05 0 -2.22658e-05 -7.23339e-13 0 0 0 0)
(0 -1.93803e-05 0 -1.93803e-05 9.63348e-13 0 0 0 0)
(0 -1.5624e-05 0 -1.5624e-05 -1.0895e-12 0 0 0 0)
(0 -1.13701e-05 0 -1.13701e-05 1.05976e-12 0 0 0 0)
(0 -7.02524e-06 0 -7.02524e-06 -8.65891e-13 0 0 0 0)
(0 -2.83796e-06 0 -2.83796e-06 5.21245e-13 0 0 0 0)
(0 -3.41542e-07 0 -3.41542e-07 -1.4691e-13 0 0 0 0)
(0 -1.72079e-08 0 -1.72079e-08 4.71045e-14 0 0 0 0)
(0 -4.98303e-10 0 -4.98303e-10 -4.26363e-14 0 0 0 0)
(0 -6.59065e-12 0 -6.59065e-12 4.17451e-14 0 0 0 0)
(0 -3.74451e-14 0 -3.74451e-14 -4.09144e-14 0 0 0 0)
(0 2.71469e-14 0 2.71469e-14 4.01294e-14 0 0 0 0)
(0 1.82982e-14 0 1.82982e-14 -3.9344e-14 0 0 0 0)
(0 1.17783e-14 0 1.17783e-14 3.86137e-14 0 0 0 0)
(-1.50452e-19 7.56262e-15 0 7.56262e-15 -3.78585e-14 0 0 0 0)
(0 4.7766e-15 0 4.7766e-15 3.71801e-14 0 0 0 0)
(0 2.97376e-15 0 2.97376e-15 -3.64467e-14 0 0 0 0)
(0 1.80151e-15 0 1.80151e-15 3.57767e-14 0 0 0 0)
(0 1.12437e-15 0 1.12437e-15 -3.50583e-14 0 0 0 0)
(0 7.54886e-16 0 7.54886e-16 3.44099e-14 0 0 0 0)
(0 4.65106e-16 0 4.65106e-16 -3.36886e-14 0 0 0 0)
(0 2.30639e-16 0 2.30639e-16 3.30403e-14 0 0 0 0)
(0 9.06701e-17 0 9.06701e-17 -3.23131e-14 0 0 0 0)
(0 1.01705e-17 0 1.01705e-17 3.16627e-14 0 0 0 0)
(-1.23064e-19 4.2457e-17 0 4.2457e-17 -3.09427e-14 0 0 0 0)
(0 8.26821e-17 0 8.26821e-17 3.02495e-14 0 0 0 0)
(0 1.38313e-17 0 1.38313e-17 -2.95348e-14 0 0 0 0)
(0 -4.94741e-17 0 -4.94741e-17 2.88327e-14 0 0 0 0)
(0 5.70637e-17 0 5.70637e-17 -2.8092e-14 0 0 0 0)
(0 5.54276e-17 0 5.54276e-17 2.73607e-14 0 0 0 0)
(0 -3.27259e-17 0 -3.27259e-17 -2.66083e-14 0 0 0 0)
(0 2.91347e-17 0 2.91347e-17 2.58548e-14 0 0 0 0)
(0 -1.06885e-16 0 -1.06885e-16 -2.50778e-14 0 0 0 0)
(0 -1.20601e-16 0 -1.20601e-16 2.42965e-14 0 0 0 0)
(0 1.28343e-16 0 1.28343e-16 -2.34926e-14 0 0 0 0)
(0 1.79041e-16 0 1.79041e-16 2.26787e-14 0 0 0 0)
(0 -2.69057e-17 0 -2.69057e-17 -2.18428e-14 0 0 0 0)
(0 -1.92365e-16 0 -1.92365e-16 2.10161e-14 0 0 0 0)
(0 -1.40607e-16 0 -1.40607e-16 -2.31006e-14 0 0 0 0)
(0 -6.88479e-17 0 -6.88479e-17 2.28033e-14 0 0 0 0)
(0 3.44107e-17 0 3.44107e-17 -2.25276e-14 0 0 0 0)
(0 4.95779e-17 0 4.95779e-17 2.2254e-14 0 0 0 0)
(0 2.90109e-17 0 2.90109e-17 -2.19748e-14 0 0 0 0)
(0 4.39663e-17 0 4.39663e-17 2.16951e-14 0 0 0 0)
(0 5.0822e-18 0 5.0822e-18 -2.14145e-14 0 0 0 0)
(0 -1.10114e-17 0 -1.10114e-17 2.11305e-14 0 0 0 0)
(0 -2.80315e-17 0 -2.80315e-17 -2.08482e-14 0 0 0 0)
(0 -1.12708e-16 0 -1.12708e-16 2.05572e-14 0 0 0 0)
(0 -3.97047e-17 0 -3.97047e-17 -2.02713e-14 0 0 0 0)
(0 1.01591e-16 0 1.01591e-16 1.99775e-14 0 0 0 0)
(0 5.48983e-17 0 5.48983e-17 -1.96873e-14 0 0 0 0)
(0 -2.00641e-17 0 -2.00641e-17 1.93857e-14 0 0 0 0)
(0 1.37643e-18 0 1.37643e-18 -1.90925e-14 0 0 0 0)
(0 3.52048e-18 0 3.52048e-18 1.87839e-14 0 0 0 0)
(0 3.44107e-18 0 3.44107e-18 -1.84876e-14 0 0 0 0)
(0 1.837e-17 0 1.837e-17 1.81682e-14 0 0 0 0)
(0 -2.28434e-17 0 -2.28434e-17 -1.78693e-14 0 0 0 0)
(0 2.99109e-18 0 2.99109e-18 1.75393e-14 0 0 0 0)
(0 1.07467e-17 0 1.07467e-17 -1.72422e-14 0 0 0 0)
(0 -3.39607e-17 0 -3.39607e-17 1.68915e-14 0 0 0 0)
(0 -1.95347e-17 0 -1.95347e-17 -1.65941e-14 0 0 0 0)
(0 3.33519e-17 0 3.33519e-17 1.62271e-14 0 0 0 0)
(0 1.51142e-17 0 1.51142e-17 -1.59344e-14 0 0 0 0)
(0 2.3214e-17 0 2.3214e-17 1.55387e-14 0 0 0 0)
(0 2.42993e-17 0 2.42993e-17 -1.52365e-14 0 0 0 0)
(0 -3.26108e-17 0 -3.26108e-17 1.48369e-14 0 0 0 0)
(0 -1.03047e-16 0 -1.03047e-16 -1.45265e-14 0 0 0 0)
(0 -1.95294e-16 0 -1.95294e-16 1.40899e-14 0 0 0 0)
(0 -4.19334e-16 0 -4.19334e-16 -1.37839e-14 0 0 0 0)
(0 -4.0737e-17 0 -4.0737e-17 1.33204e-14 0 0 0 0)
(0 4.01917e-16 0 4.01917e-16 -1.30022e-14 0 0 0 0)
(0 2.26872e-16 0 2.26872e-16 1.25039e-14 0 0 0 0)
(0 9.17178e-17 0 9.17178e-17 -1.22042e-14 0 0 0 0)
(0 2.68933e-17 0 2.68933e-17 1.1626e-14 0 0 0 0)
(0 4.12929e-17 0 4.12929e-17 -1.1311e-14 0 0 0 0)
(0 1.29967e-17 0 1.29967e-17 1.07246e-14 0 0 0 0)
(0 -2.81109e-17 0 -2.81109e-17 -1.03534e-14 0 0 0 0)
(0 -8.96002e-17 0 -8.96002e-17 9.74161e-15 0 0 0 0)
(0 2.09376e-17 0 2.09376e-17 -9.25865e-15 0 0 0 0)
(0 1.70677e-16 0 1.70677e-16 8.64807e-15 0 0 0 0)
(0 9.93676e-17 0 9.93676e-17 -8.13125e-15 0 0 0 0)
(0 -5.77835e-17 0 -5.77835e-17 7.35389e-15 0 0 0 0)
(0 -1.01432e-16 0 -1.01432e-16 -6.69764e-15 0 0 0 0)
(0 -7.85094e-17 0 -7.85094e-17 5.90655e-15 0 0 0 0)
(0 -4.12399e-17 0 -4.12399e-17 -4.94335e-15 0 0 0 0)
(0 1.25467e-17 0 1.25467e-17 3.69482e-15 0 0 0 0)
(0 -9.61118e-17 0 -9.61118e-17 -1.96243e-15 0 0 0 0)
(0 -1.01962e-16 0 -1.01962e-16 1.4183e-15 0 0 0 0)
)
;

boundaryField
{
    inandouthalf11
    {
        type            cyclic;
    }
    inandouthalf12
    {
        type            cyclic;
    }
    inandouthalf21
    {
        type            cyclic;
    }
    inandouthalf22
    {
        type            cyclic;
    }
    inandouthalf31
    {
        type            cyclic;
    }
    inandouthalf32
    {
        type            cyclic;
    }
    inandouthalf41
    {
        type            cyclic;
    }
    inandouthalf42
    {
        type            cyclic;
    }
    top
    {
        type            symmetryPlane;
    }
    walls
    {
        type            zeroGradient;
    }
    frontAndBackPlanes
    {
        type            empty;
    }
}


// ************************************************************************* //
