/*--------------------------------*- C++ -*----------------------------------*\
| =========                 |                                                 |
| \\      /  F ield         | OpenFOAM: The Open Source CFD Toolbox           |
|  \\    /   O peration     | Version:  2.4.x                                 |
|   \\  /    A nd           | Web:      www.OpenFOAM.org                      |
|    \\/     M anipulation  |                                                 |
\*---------------------------------------------------------------------------*/
FoamFile
{
    version     2.0;
    format      ascii;
    class       volTensorField;
    location    "12";
    object      Taus;
}
// * * * * * * * * * * * * * * * * * * * * * * * * * * * * * * * * * * * * * //

dimensions      [0 2 -2 0 0 0 0];

internalField   nonuniform List<tensor> 
360
(
(0 -0.0268584 0 -0.0268584 -0.205814 0 0 0 0)
(0 -0.0397362 0 -0.0397362 -0.260689 0 0 0 0)
(0 -0.0479897 0 -0.0479897 -0.263797 0 0 0 0)
(0 -0.0465036 0 -0.0465036 -0.25723 0 0 0 0)
(2.11152e-17 -0.0452808 0 -0.0452808 -0.254525 0 0 0 0)
(2.00058e-17 -0.0453256 0 -0.0453256 -0.253455 0 0 0 0)
(1.9313e-17 -0.0454537 0 -0.0454537 -0.252046 0 0 0 0)
(0 -0.0454004 0 -0.0454004 -0.250346 0 0 0 0)
(1.79783e-17 -0.0452926 0 -0.0452926 -0.248643 0 0 0 0)
(0 -0.0451792 0 -0.0451792 -0.246942 0 0 0 0)
(6.67511e-17 -0.0450643 0 -0.0450643 -0.245237 0 0 0 0)
(0 -0.0449531 0 -0.0449531 -0.243545 0 0 0 0)
(6.24064e-17 -0.0448402 0 -0.0448402 -0.241849 0 0 0 0)
(0 -0.0447247 0 -0.0447247 -0.240153 0 0 0 0)
(0 -0.0446048 0 -0.0446048 -0.238454 0 0 0 0)
(0 -0.0444789 0 -0.0444789 -0.236748 0 0 0 0)
(0 -0.0443485 0 -0.0443485 -0.235039 0 0 0 0)
(5.51188e-17 -0.0442159 0 -0.0442159 -0.233331 0 0 0 0)
(0 -0.0440796 0 -0.0440796 -0.231621 0 0 0 0)
(0 -0.0439373 0 -0.0439373 -0.229901 0 0 0 0)
(0 -0.0437949 0 -0.0437949 -0.228191 0 0 0 0)
(5.22488e-17 -0.0436464 0 -0.0436464 -0.226469 0 0 0 0)
(0 -0.0434938 0 -0.0434938 -0.224747 0 0 0 0)
(0 -0.0433381 0 -0.0433381 -0.223024 0 0 0 0)
(0 -0.0431779 0 -0.0431779 -0.221296 0 0 0 0)
(1.02608e-16 -0.0430147 0 -0.0430147 -0.219567 0 0 0 0)
(0 -0.0428488 0 -0.0428488 -0.217841 0 0 0 0)
(0 -0.0426764 0 -0.0426764 -0.216104 0 0 0 0)
(0 -0.0425011 0 -0.0425011 -0.214369 0 0 0 0)
(0 -0.0423237 0 -0.0423237 -0.212634 0 0 0 0)
(0 -0.0421414 0 -0.0421414 -0.210898 0 0 0 0)
(0 -0.0419538 0 -0.0419538 -0.20915 0 0 0 0)
(0 -0.0417672 0 -0.0417672 -0.20742 0 0 0 0)
(0 -0.0415702 0 -0.0415702 -0.205664 0 0 0 0)
(0 -0.0413739 0 -0.0413739 -0.203925 0 0 0 0)
(-2.16207e-16 -0.0411729 0 -0.0411729 -0.202174 0 0 0 0)
(0 -0.04097 0 -0.04097 -0.20043 0 0 0 0)
(0 -0.0407601 0 -0.0407601 -0.198677 0 0 0 0)
(0 -0.0405457 0 -0.0405457 -0.196917 0 0 0 0)
(0 -0.0403351 0 -0.0403351 -0.195179 0 0 0 0)
(0 -0.0401118 0 -0.0401118 -0.193412 0 0 0 0)
(0 -0.0398885 0 -0.0398885 -0.191655 0 0 0 0)
(-2.30583e-16 -0.0396663 0 -0.0396663 -0.189908 0 0 0 0)
(0 -0.0394333 0 -0.0394333 -0.188138 0 0 0 0)
(0 -0.039201 0 -0.039201 -0.186383 0 0 0 0)
(0 -0.0389632 0 -0.0389632 -0.18462 0 0 0 0)
(0 -0.0387212 0 -0.0387212 -0.18285 0 0 0 0)
(0 -0.0384837 0 -0.0384837 -0.181098 0 0 0 0)
(0 -0.0382363 0 -0.0382363 -0.179331 0 0 0 0)
(0 -0.0379816 0 -0.0379816 -0.177552 0 0 0 0)
(-2.43455e-16 -0.0377328 0 -0.0377328 -0.175797 0 0 0 0)
(0 -0.0374769 0 -0.0374769 -0.174023 0 0 0 0)
(0 -0.0372181 0 -0.0372181 -0.172256 0 0 0 0)
(0 -0.0369559 0 -0.0369559 -0.170479 0 0 0 0)
(0 -0.0366942 0 -0.0366942 -0.168717 0 0 0 0)
(0 -0.0364239 0 -0.0364239 -0.166932 0 0 0 0)
(0 -0.0361571 0 -0.0361571 -0.165169 0 0 0 0)
(0 -0.0358824 0 -0.0358824 -0.163385 0 0 0 0)
(0 -0.0356085 0 -0.0356085 -0.161609 0 0 0 0)
(0 -0.0353356 0 -0.0353356 -0.159843 0 0 0 0)
(0 -0.0350525 0 -0.0350525 -0.158052 0 0 0 0)
(0 -0.034773 0 -0.034773 -0.156283 0 0 0 0)
(0 -0.0344873 0 -0.0344873 -0.154495 0 0 0 0)
(0 -0.0342015 0 -0.0342015 -0.152717 0 0 0 0)
(0 -0.0339138 0 -0.0339138 -0.150934 0 0 0 0)
(0 -0.0336253 0 -0.0336253 -0.149154 0 0 0 0)
(0 -0.0333324 0 -0.0333324 -0.147368 0 0 0 0)
(0 -0.0330369 0 -0.0330369 -0.145581 0 0 0 0)
(0 -0.0327428 0 -0.0327428 -0.143796 0 0 0 0)
(0 -0.0324496 0 -0.0324496 -0.142017 0 0 0 0)
(0 -0.0321474 0 -0.0321474 -0.140224 0 0 0 0)
(0 -0.031844 0 -0.031844 -0.138429 0 0 0 0)
(0 -0.0315465 0 -0.0315465 -0.136651 0 0 0 0)
(0 -0.031242 0 -0.031242 -0.134855 0 0 0 0)
(0 -0.0309361 0 -0.0309361 -0.133067 0 0 0 0)
(0 -0.0306271 0 -0.0306271 -0.131269 0 0 0 0)
(0 -0.0303207 0 -0.0303207 -0.129481 0 0 0 0)
(0 -0.0300128 0 -0.0300128 -0.127688 0 0 0 0)
(0 -0.0297017 0 -0.0297017 -0.125893 0 0 0 0)
(0 -0.0293895 0 -0.0293895 -0.124097 0 0 0 0)
(0 -0.0290779 0 -0.0290779 -0.122304 0 0 0 0)
(0 -0.028764 0 -0.028764 -0.120507 0 0 0 0)
(0 -0.0284482 0 -0.0284482 -0.118709 0 0 0 0)
(0 -0.0281318 0 -0.0281318 -0.116911 0 0 0 0)
(0 -0.0278141 0 -0.0278141 -0.115112 0 0 0 0)
(0 -0.0274955 0 -0.0274955 -0.113313 0 0 0 0)
(0 -0.0271757 0 -0.0271757 -0.111512 0 0 0 0)
(0 -0.0268556 0 -0.0268556 -0.109712 0 0 0 0)
(0 -0.026535 0 -0.026535 -0.107911 0 0 0 0)
(0 -0.0262133 0 -0.0262133 -0.106109 0 0 0 0)
(0 -0.0258909 0 -0.0258909 -0.104307 0 0 0 0)
(0 -0.0255679 0 -0.0255679 -0.102504 0 0 0 0)
(0 -0.0252436 0 -0.0252436 -0.1007 0 0 0 0)
(0 -0.0249185 0 -0.0249185 -0.0988957 0 0 0 0)
(0 -0.0245927 0 -0.0245927 -0.0970907 0 0 0 0)
(0 -0.0242663 0 -0.0242663 -0.0952851 0 0 0 0)
(0 -0.0239394 0 -0.0239394 -0.0934791 0 0 0 0)
(0 -0.0236122 0 -0.0236122 -0.0916727 0 0 0 0)
(0 -0.0232848 0 -0.0232848 -0.089866 0 0 0 0)
(0 -0.0229571 0 -0.0229571 -0.0880588 0 0 0 0)
(0 -0.0226292 0 -0.0226292 -0.0862513 0 0 0 0)
(0 -0.0223012 0 -0.0223012 -0.0844434 0 0 0 0)
(0 -0.0219732 0 -0.0219732 -0.0826351 0 0 0 0)
(0 -0.0216451 0 -0.0216451 -0.0808264 0 0 0 0)
(0 -0.0213173 0 -0.0213173 -0.0790175 0 0 0 0)
(0 -0.0209899 0 -0.0209899 -0.0772084 0 0 0 0)
(0 -0.020663 0 -0.020663 -0.075399 0 0 0 0)
(0 -0.0203369 0 -0.0203369 -0.0735895 0 0 0 0)
(0 -0.0200118 0 -0.0200118 -0.0717799 0 0 0 0)
(0 -0.0196877 0 -0.0196877 -0.0699703 0 0 0 0)
(0 -0.0193651 0 -0.0193651 -0.0681606 0 0 0 0)
(0 -0.0190439 0 -0.0190439 -0.0663509 0 0 0 0)
(0 -0.0187246 0 -0.0187246 -0.0645412 0 0 0 0)
(0 -0.0184072 0 -0.0184072 -0.0627315 0 0 0 0)
(0 -0.0180921 0 -0.0180921 -0.0609219 0 0 0 0)
(0 -0.0177793 0 -0.0177793 -0.0591122 0 0 0 0)
(0 -0.0174691 0 -0.0174691 -0.0573024 0 0 0 0)
(0 -0.0171616 0 -0.0171616 -0.0554925 0 0 0 0)
(0 -0.016857 0 -0.016857 -0.0536823 0 0 0 0)
(0 -0.0165554 0 -0.0165554 -0.0518716 0 0 0 0)
(0 -0.0162568 0 -0.0162568 -0.0500601 0 0 0 0)
(0 -0.0159616 0 -0.0159616 -0.0482476 0 0 0 0)
(0 -0.0156699 0 -0.0156699 -0.0464338 0 0 0 0)
(0 -0.0153823 0 -0.0153823 -0.0446181 0 0 0 0)
(0 -0.0150991 0 -0.0150991 -0.0428002 0 0 0 0)
(0 -0.0148209 0 -0.0148209 -0.0409794 0 0 0 0)
(0 -0.0145473 0 -0.0145473 -0.0391552 0 0 0 0)
(0 -0.0142779 0 -0.0142779 -0.0373266 0 0 0 0)
(0 -0.0140113 0 -0.0140113 -0.035493 0 0 0 0)
(0 -0.0137469 0 -0.0137469 -0.0336541 0 0 0 0)
(0 -0.0134852 0 -0.0134852 -0.0318102 0 0 0 0)
(0 -0.0132255 0 -0.0132255 -0.0299621 0 0 0 0)
(0 -0.0129613 0 -0.0129613 -0.0281114 0 0 0 0)
(0 -0.0126777 0 -0.0126777 -0.0262591 0 0 0 0)
(0 -0.0123627 0 -0.0123627 -0.0244056 0 0 0 0)
(0 -0.0120216 0 -0.0120216 -0.0225521 0 0 0 0)
(0 -0.0116693 0 -0.0116693 -0.0206956 0 0 0 0)
(0 -0.0113044 0 -0.0113044 -0.0188184 0 0 0 0)
(0 -0.0109098 0 -0.0109098 -0.0168614 0 0 0 0)
(0 -0.0105374 0 -0.0105374 -0.0146326 0 0 0 0)
(0 -0.0105807 0 -0.0105807 -0.0112029 0 0 0 0)
(0 -0.0093407 0 -0.0093407 -0.0107571 0 0 0 0)
(0 -0.00376441 0 -0.00376441 -0.00731944 0 0 0 0)
(0 -0.00449164 0 -0.00449164 -0.00755893 0 0 0 0)
(0 -0.00526131 0 -0.00526131 -0.0029626 0 0 0 0)
(0 -0.0045033 0 -0.0045033 0.000341931 0 0 0 0)
(0 -0.00240842 0 -0.00240842 -1.86084e-07 0 0 0 0)
(0 -0.00229553 0 -0.00229553 6.39468e-08 0 0 0 0)
(0 -0.00308416 0 -0.00308416 3.83845e-07 0 0 0 0)
(0 -0.00274791 0 -0.00274791 4.91748e-07 0 0 0 0)
(0 -0.00233847 0 -0.00233847 4.73854e-07 0 0 0 0)
(0 -0.00209729 0 -0.00209729 8.43247e-07 0 0 0 0)
(0 -0.00196942 0 -0.00196942 1.71369e-06 0 0 0 0)
(0 -0.00193026 0 -0.00193026 3.24534e-06 0 0 0 0)
(0 -0.00196407 0 -0.00196407 5.70771e-06 0 0 0 0)
(0 -0.00206122 0 -0.00206122 9.4584e-06 0 0 0 0)
(0 -0.00221612 0 -0.00221612 1.4943e-05 0 0 0 0)
(0 -0.00242592 0 -0.00242592 2.26897e-05 0 0 0 0)
(0 -0.00268965 0 -0.00268965 3.33021e-05 0 0 0 0)
(0 -0.00300765 0 -0.00300765 4.74442e-05 0 0 0 0)
(0 -0.00338111 0 -0.00338111 6.58176e-05 0 0 0 0)
(0 -0.00381182 0 -0.00381182 8.91242e-05 0 0 0 0)
(0 -0.00430173 0 -0.00430173 0.000118002 0 0 0 0)
(0 -0.00485286 0 -0.00485286 0.000152932 0 0 0 0)
(0 -0.00546694 0 -0.00546694 0.000194087 0 0 0 0)
(0 -0.00614539 0 -0.00614539 0.000241091 0 0 0 0)
(0 -0.00688915 0 -0.00688915 0.000292645 0 0 0 0)
(0 -0.00769889 0 -0.00769889 0.000345969 0 0 0 0)
(0 -0.00857519 0 -0.00857519 0.000395866 0 0 0 0)
(0 -0.00951959 0 -0.00951959 0.00043253 0 0 0 0)
(0 -0.010537 0 -0.010537 0.000436311 0 0 0 0)
(0 -0.011642 0 -0.011642 0.000368549 0 0 0 0)
(0 -0.0128662 0 -0.0128662 0.000163798 0 0 0 0)
(0 -0.0142593 0 -0.0142593 -0.00026273 0 0 0 0)
(0 -0.0158662 0 -0.0158662 -0.000981982 0 0 0 0)
(0 -0.0176857 0 -0.0176857 -0.00200424 0 0 0 0)
(0 -0.0196431 0 -0.0196431 -0.00325422 0 0 0 0)
(0 -0.0216105 0 -0.0216105 -0.00459637 0 0 0 0)
(0 -0.0234566 0 -0.0234566 -0.00589269 0 0 0 0)
(0 -0.0250834 0 -0.0250834 -0.00704585 0 0 0 0)
(0 -0.0264352 0 -0.0264352 -0.00800696 0 0 0 0)
(0 -0.027491 0 -0.027491 -0.00876315 0 0 0 0)
(0 -0.0282536 0 -0.0282536 -0.00932289 0 0 0 0)
(0 -0.0287403 0 -0.0287403 -0.00970512 0 0 0 0)
(0 -0.0289762 0 -0.0289762 -0.00993274 0 0 0 0)
(0 -0.0289896 0 -0.0289896 -0.0100289 0 0 0 0)
(0 -0.0288093 0 -0.0288093 -0.0100153 0 0 0 0)
(0 -0.0284628 0 -0.0284628 -0.00991127 0 0 0 0)
(0 -0.0279753 0 -0.0279753 -0.00973347 0 0 0 0)
(0 -0.0273696 0 -0.0273696 -0.00949618 0 0 0 0)
(0 -0.0266656 0 -0.0266656 -0.00921147 0 0 0 0)
(0 -0.0258811 0 -0.0258811 -0.00888945 0 0 0 0)
(0 -0.0250312 0 -0.0250312 -0.00853862 0 0 0 0)
(0 -0.0241292 0 -0.0241292 -0.00816617 0 0 0 0)
(0 -0.0231867 0 -0.0231867 -0.00777824 0 0 0 0)
(0 -0.0222136 0 -0.0222136 -0.00738011 0 0 0 0)
(0 -0.0212187 0 -0.0212187 -0.00697644 0 0 0 0)
(0 -0.0202096 0 -0.0202096 -0.0065713 0 0 0 0)
(0 -0.019193 0 -0.019193 -0.00616837 0 0 0 0)
(0 -0.0181749 0 -0.0181749 -0.00577091 0 0 0 0)
(0 -0.0171599 0 -0.0171599 -0.00538189 0 0 0 0)
(0 -0.0161416 0 -0.0161416 -0.00500175 0 0 0 0)
(4.20834e-15 -0.0151101 0 -0.0151101 -0.00463085 0 0 0 0)
(0 -0.0140682 0 -0.0140682 -0.00427311 0 0 0 0)
(0 -0.0130188 0 -0.0130188 -0.003932 0 0 0 0)
(-4.65108e-15 -0.0119646 0 -0.0119646 -0.00361058 0 0 0 0)
(0 -0.0109082 0 -0.0109082 -0.00331128 0 0 0 0)
(4.98047e-15 -0.00985204 0 -0.00985204 -0.00303566 0 0 0 0)
(0 -0.00879842 0 -0.00879842 -0.00278421 0 0 0 0)
(-5.33825e-15 -0.00774973 0 -0.00774973 -0.00255615 0 0 0 0)
(0 -0.00670838 0 -0.00670838 -0.00234941 0 0 0 0)
(0 -0.00567701 0 -0.00567701 -0.00216064 0 0 0 0)
(0 -0.00465849 0 -0.00465849 -0.00198532 0 0 0 0)
(-6.12616e-15 -0.00365604 0 -0.00365604 -0.00181795 0 0 0 0)
(0 -0.00267326 0 -0.00267326 -0.00165224 0 0 0 0)
(0 -0.00171413 0 -0.00171413 -0.00148112 0 0 0 0)
(0 -0.000782991 0 -0.000782991 -0.00129791 0 0 0 0)
(0 0.0001049 0 0.0001049 -0.00107983 0 0 0 0)
(0 0.000956833 0 0.000956833 -0.000838273 0 0 0 0)
(7.33825e-15 0.00177809 0 0.00177809 -0.000567602 0 0 0 0)
(0 0.00254885 0 0.00254885 -0.000228475 0 0 0 0)
(7.67754e-15 0.00326522 0 0.00326522 0.000187386 0 0 0 0)
(0 0.00392325 0 0.00392325 0.000703848 0 0 0 0)
(7.93599e-15 0.00451763 0 0.00451763 0.00134976 0 0 0 0)
(0 0.00504303 0 0.00504303 0.00215692 0 0 0 0)
(0 0.00549448 0 0.00549448 0.00315131 0 0 0 0)
(0 0.00586795 0 0.00586795 0.00433134 0 0 0 0)
(0 0.00616149 0 0.00616149 0.00563195 0 0 0 0)
(-7.96825e-15 0.00637714 0 0.00637714 0.00688802 0 0 0 0)
(-7.83822e-15 0.00652595 0 0.00652595 0.00780305 0 0 0 0)
(0 0.0066314 0 0.0066314 0.00792284 0 0 0 0)
(0 0.00670368 0 0.00670368 0.00672957 0 0 0 0)
(0 0.00664786 0 0.00664786 0.00419669 0 0 0 0)
(0 0.006202 0 0.006202 0.00159828 0 0 0 0)
(0 0.00513197 0 0.00513197 0.000528192 0 0 0 0)
(0 0.00445151 0 0.00445151 0.00069369 0 0 0 0)
(0 0 0 0 -0 0 0 0 0)
(0 0 0 0 -0 0 0 0 0)
(0 0 0 0 -0 0 0 0 0)
(0 0 0 0 -0 0 0 0 0)
(0 0 0 0 0 0 0 0 0)
(0 0 0 0 0 0 0 0 0)
(0 0 0 0 0 0 0 0 0)
(0 0 0 0 0 0 0 0 0)
(-0 0 0 0 0 0 0 0 0)
(0 0 0 0 0 0 0 0 0)
(0 0 0 0 0 0 0 0 0)
(0 0 0 0 -0 0 0 0 0)
(0 0 0 0 0 0 0 0 0)
(0 0 0 0 -0 0 0 0 0)
(0 0 0 0 0 0 0 0 0)
(0 0 0 0 -0 0 0 0 0)
(0 0 0 0 -0 0 0 0 0)
(0 0 0 0 -0 0 0 0 0)
(0 0 0 0 -0 0 0 0 0)
(0 0 0 0 0 0 0 0 0)
(0 0 0 0 -0 0 0 0 0)
(0 0 0 0 0 0 0 0 0)
(0 0 0 0 0 0 0 0 0)
(0 0 0 0 0 0 0 0 0)
(0 0 0 0 0 0 0 0 0)
(0 0 0 0 0 0 0 0 0)
(0 0 0 0 0 0 0 0 0)
(0 0 0 0 0 0 0 0 0)
(0 0 0 0 0 0 0 0 0)
(0 0 0 0 0 0 0 0 0)
(0 -0 0 -0 0 0 0 0 0)
(0 -0 0 -0 0 0 0 0 0)
(0 -0 0 -0 0 0 0 0 0)
(0 -0 0 -0 0 0 0 0 0)
(0 -0 0 -0 0 0 0 0 0)
(0 -0 0 -0 0 0 0 0 0)
(0 -0 0 -0 0 0 0 0 0)
(0 -0 0 -0 0 0 0 0 0)
(0 -0 0 -0 0 0 0 0 0)
(0 -0 0 -0 0 0 0 0 0)
(0 -0 0 -0 0 0 0 0 0)
(0 -0 0 -0 0 0 0 0 0)
(0 -0 0 -0 0 0 0 0 0)
(0 -0 0 -0 0 0 0 0 0)
(0 -0 0 -0 0 0 0 0 0)
(0 -0 0 -0 0 0 0 0 0)
(0 -0 0 -0 0 0 0 0 0)
(0 0 0 0 0 0 0 0 0)
(0 0 0 0 -0 0 0 0 0)
(0 0 0 0 0 0 0 0 0)
(-0 0 0 0 -0 0 0 0 0)
(0 0 0 0 0 0 0 0 0)
(0 0 0 0 -0 0 0 0 0)
(0 0 0 0 0 0 0 0 0)
(0 0 0 0 -0 0 0 0 0)
(0 0 0 0 0 0 0 0 0)
(0 0 0 0 -0 0 0 0 0)
(0 0 0 0 0 0 0 0 0)
(0 0 0 0 -0 0 0 0 0)
(0 -0 0 -0 0 0 0 0 0)
(0 0 0 0 -0 0 0 0 0)
(0 0 0 0 0 0 0 0 0)
(0 0 0 0 -0 0 0 0 0)
(0 -0 0 -0 0 0 0 0 0)
(0 0 0 0 -0 0 0 0 0)
(0 0 0 0 0 0 0 0 0)
(0 0 0 0 -0 0 0 0 0)
(0 -0 0 -0 0 0 0 0 0)
(0 -0 0 -0 -0 0 0 0 0)
(0 -0 0 -0 0 0 0 0 0)
(0 0 0 0 -0 0 0 0 0)
(0 0 0 0 0 0 0 0 0)
(0 0 0 0 -0 0 0 0 0)
(0 -0 0 -0 0 0 0 0 0)
(0 -0 0 -0 -0 0 0 0 0)
(0 -0 0 -0 0 0 0 0 0)
(0 0 0 0 -0 0 0 0 0)
(0 0 0 0 0 0 0 0 0)
(0 0 0 0 -0 0 0 0 0)
(0 0 0 0 0 0 0 0 0)
(0 0 0 0 -0 0 0 0 0)
(0 -0 0 -0 0 0 0 0 0)
(0 -0 0 -0 -0 0 0 0 0)
(0 -0 0 -0 0 0 0 0 0)
(0 -0 0 -0 -0 0 0 0 0)
(0 0 0 0 0 0 0 0 0)
(0 0 0 0 -0 0 0 0 0)
(0 -0 0 -0 0 0 0 0 0)
(0 0 0 0 -0 0 0 0 0)
(0 -0 0 -0 0 0 0 0 0)
(0 0 0 0 -0 0 0 0 0)
(0 -0 0 -0 0 0 0 0 0)
(0 0 0 0 -0 0 0 0 0)
(0 -0 0 -0 0 0 0 0 0)
(0 0 0 0 -0 0 0 0 0)
(0 -0 0 -0 0 0 0 0 0)
(0 0 0 0 -0 0 0 0 0)
(0 0 0 0 0 0 0 0 0)
(0 0 0 0 -0 0 0 0 0)
(0 -0 0 -0 0 0 0 0 0)
(0 0 0 0 -0 0 0 0 0)
(0 -0 0 -0 0 0 0 0 0)
(0 -0 0 -0 -0 0 0 0 0)
(0 -0 0 -0 0 0 0 0 0)
(0 -0 0 -0 -0 0 0 0 0)
(0 -0 0 -0 0 0 0 0 0)
(0 0 0 0 -0 0 0 0 0)
(0 0 0 0 0 0 0 0 0)
(0 0 0 0 -0 0 0 0 0)
(0 0 0 0 0 0 0 0 0)
(0 0 0 0 -0 0 0 0 0)
(0 -0 0 -0 0 0 0 0 0)
(0 -0 0 -0 -0 0 0 0 0)
(0 -0 0 -0 0 0 0 0 0)
(0 0 0 0 -0 0 0 0 0)
(0 0 0 0 0 0 0 0 0)
(0 0 0 0 -0 0 0 0 0)
(0 0 0 0 0 0 0 0 0)
(0 0 0 0 0 0 0 0 0)
(0 0 0 0 0 0 0 0 0)
(0 0 0 0 0 0 0 0 0)
(0 0 0 0 0 0 0 0 0)
(0 0 0 0 0 0 0 0 0)
(0 0 0 0 0 0 0 0 0)
)
;

boundaryField
{
    inandouthalf11
    {
        type            cyclic;
    }
    inandouthalf12
    {
        type            cyclic;
    }
    inandouthalf21
    {
        type            cyclic;
    }
    inandouthalf22
    {
        type            cyclic;
    }
    inandouthalf31
    {
        type            cyclic;
    }
    inandouthalf32
    {
        type            cyclic;
    }
    inandouthalf41
    {
        type            cyclic;
    }
    inandouthalf42
    {
        type            cyclic;
    }
    top
    {
        type            symmetryPlane;
    }
    walls
    {
        type            zeroGradient;
    }
    frontAndBackPlanes
    {
        type            empty;
    }
}


// ************************************************************************* //
