/*--------------------------------*- C++ -*----------------------------------*\
| =========                 |                                                 |
| \\      /  F ield         | OpenFOAM: The Open Source CFD Toolbox           |
|  \\    /   O peration     | Version:  2.4.x                                 |
|   \\  /    A nd           | Web:      www.OpenFOAM.org                      |
|    \\/     M anipulation  |                                                 |
\*---------------------------------------------------------------------------*/
FoamFile
{
    version     2.0;
    format      ascii;
    class       volScalarField;
    location    "12";
    object      tmf;
}
// * * * * * * * * * * * * * * * * * * * * * * * * * * * * * * * * * * * * * //

dimensions      [0 0 0 0 0 0 0];

internalField   nonuniform List<scalar> 
360
(
0.999206
0.999209
0.99921
0.999209
0.999209
0.999209
0.999209
0.999209
0.999209
0.999209
0.999209
0.999209
0.999209
0.999208
0.999208
0.999208
0.999208
0.999208
0.999208
0.999208
0.999208
0.999208
0.999208
0.999208
0.999208
0.999207
0.999207
0.999207
0.999207
0.999207
0.999207
0.999207
0.999207
0.999207
0.999207
0.999207
0.999206
0.999206
0.999206
0.999206
0.999206
0.999206
0.999206
0.999206
0.999206
0.999206
0.999205
0.999205
0.999205
0.999205
0.999205
0.999205
0.999205
0.999205
0.999204
0.999204
0.999204
0.999204
0.999204
0.999204
0.999204
0.999204
0.999203
0.999203
0.999203
0.999203
0.999203
0.999203
0.999203
0.999202
0.999202
0.999202
0.999202
0.999202
0.999202
0.999202
0.999201
0.999201
0.999201
0.999201
0.999201
0.9992
0.9992
0.9992
0.9992
0.9992
0.9992
0.999199
0.999199
0.999199
0.999199
0.999199
0.999198
0.999198
0.999198
0.999198
0.999197
0.999197
0.999197
0.999197
0.999196
0.999196
0.999196
0.999196
0.999195
0.999195
0.999195
0.999195
0.999194
0.999194
0.999194
0.999193
0.999193
0.999193
0.999192
0.999192
0.999191
0.999191
0.999191
0.99919
0.99919
0.999189
0.999189
0.999189
0.999188
0.999188
0.999187
0.999187
0.999186
0.999185
0.999185
0.999184
0.998869
0.998299
0.99807
0.997822
0.997512
0.997113
0.996589
0.995901
0.994998
0.993821
0.992343
0.990482
0.987935
0.984656
0.979879
0.949441
0.901201
0.886375
0.875504
0.876612
0.878487
0.881013
0.884168
0.887923
0.89221
0.896925
0.90194
0.907129
0.912381
0.917607
0.922741
0.927737
0.932566
0.937206
0.941648
0.945884
0.94991
0.953726
0.957331
0.960726
0.963913
0.966895
0.969674
0.972253
0.974638
0.976833
0.978843
0.980674
0.982333
0.983826
0.985161
0.986348
0.987397
0.988318
0.989125
0.989828
0.99044
0.990971
0.991431
0.99183
0.992175
0.992474
0.992733
0.992956
0.993149
0.993316
0.993459
0.993582
0.993687
0.993777
0.993854
0.993919
0.993973
0.994016
0.994049
0.994073
0.994087
0.994092
0.994089
0.994078
0.994058
0.994029
0.993992
0.993947
0.993893
0.993829
0.993755
0.993671
0.993576
0.993469
0.99335
0.993221
0.993085
0.992957
0.992869
0.992869
0.992981
0.993166
0.993381
0.9936
0.993814
0.994018
0.994214
0.994401
0.994578
0.993217
0.99327
0.993331
0.993391
0.99345
0.993509
0.993568
0.99363
0.993688
0.993789
0.99376
0.994061
0.993729
0.994476
0.994214
0.995308
0.996461
0.996686
0.996801
0.996926
0.997057
0.997193
0.997335
0.997479
0.997625
0.997771
0.997914
0.99805
0.998179
0.998298
0.998406
0.998502
0.998588
0.998666
0.998739
0.99881
0.998883
0.998963
0.999056
0.999172
0.999326
0.999475
0.999541
0.999543
0.99954
0.999537
0.999535
0.99953
0.999287
0.994354
0.99419
0.99419
0.99419
0.99419
0.99419
0.99419
0.99419
0.99419
0.99419
0.99419
0.99419
0.99419
0.99419
0.99419
0.99419
0.99419
0.99419
0.99419
0.99419
0.99419
0.99419
0.99419
0.99419
0.99419
0.99419
0.99419
0.99419
0.99419
0.99419
0.99419
0.99419
0.99419
0.99419
0.99419
0.99419
0.99419
0.99419
0.99419
0.99419
0.99419
0.99419
0.99419
0.99419
0.99419
0.99419
0.99419
0.99419
0.99419
0.99419
0.99419
0.99419
0.99419
0.99419
0.99419
0.99419
0.99419
0.99419
0.99419
0.99419
0.99419
0.99419
0.99419
0.99419
0.99419
0.99419
0.99419
0.99419
0.99419
0.99419
0.99419
0.994189
0.994174
0.993239
)
;

boundaryField
{
    inandouthalf11
    {
        type            cyclic;
    }
    inandouthalf12
    {
        type            cyclic;
    }
    inandouthalf21
    {
        type            cyclic;
    }
    inandouthalf22
    {
        type            cyclic;
    }
    inandouthalf31
    {
        type            cyclic;
    }
    inandouthalf32
    {
        type            cyclic;
    }
    inandouthalf41
    {
        type            cyclic;
    }
    inandouthalf42
    {
        type            cyclic;
    }
    top
    {
        type            symmetryPlane;
    }
    walls
    {
        type            calculated;
        value           uniform 0;
    }
    frontAndBackPlanes
    {
        type            empty;
    }
}


// ************************************************************************* //
