/*--------------------------------*- C++ -*----------------------------------*\
| =========                 |                                                 |
| \\      /  F ield         | OpenFOAM: The Open Source CFD Toolbox           |
|  \\    /   O peration     | Version:  2.4.x                                 |
|   \\  /    A nd           | Web:      www.OpenFOAM.org                      |
|    \\/     M anipulation  |                                                 |
\*---------------------------------------------------------------------------*/
FoamFile
{
    version     2.0;
    format      ascii;
    class       volVectorField;
    location    "12";
    object      U;
}
// * * * * * * * * * * * * * * * * * * * * * * * * * * * * * * * * * * * * * //

dimensions      [0 1 -1 0 0 0 0];

internalField   nonuniform List<vector> 
360
(
(-1.12264e-05 4.90713e-10 0)
(-1.11394e-05 -9.50102e-11 0)
(-1.11293e-05 -8.20374e-11 0)
(-1.11411e-05 1.37382e-11 0)
(-1.11471e-05 2.81851e-11 0)
(-1.11496e-05 1.47085e-11 0)
(-1.11526e-05 1.0154e-11 0)
(-1.11562e-05 1.16231e-11 0)
(-1.116e-05 1.2974e-11 0)
(-1.11638e-05 1.3362e-11 0)
(-1.11677e-05 1.31332e-11 0)
(-1.11716e-05 1.24524e-11 0)
(-1.11755e-05 1.15853e-11 0)
(-1.11795e-05 1.06286e-11 0)
(-1.11836e-05 9.62522e-12 0)
(-1.11878e-05 8.55163e-12 0)
(-1.1192e-05 7.36242e-12 0)
(-1.11962e-05 6.10537e-12 0)
(-1.12005e-05 4.82029e-12 0)
(-1.12049e-05 3.57907e-12 0)
(-1.12092e-05 2.29625e-12 0)
(-1.12137e-05 1.14846e-12 0)
(-1.12182e-05 3.55407e-14 0)
(-1.12227e-05 -1.03539e-12 0)
(-1.12272e-05 -2.02287e-12 0)
(-1.12318e-05 -2.91876e-12 0)
(-1.12364e-05 -3.7268e-12 0)
(-1.1241e-05 -4.38303e-12 0)
(-1.12457e-05 -5.01784e-12 0)
(-1.12504e-05 -5.54938e-12 0)
(-1.12551e-05 -5.99482e-12 0)
(-1.12598e-05 -6.24435e-12 0)
(-1.12646e-05 -6.62624e-12 0)
(-1.12694e-05 -6.64039e-12 0)
(-1.12742e-05 -6.87524e-12 0)
(-1.1279e-05 -6.87356e-12 0)
(-1.12839e-05 -6.86805e-12 0)
(-1.12887e-05 -6.78204e-12 0)
(-1.12937e-05 -6.56769e-12 0)
(-1.12986e-05 -6.63038e-12 0)
(-1.13035e-05 -6.25392e-12 0)
(-1.13085e-05 -6.06342e-12 0)
(-1.13135e-05 -5.99106e-12 0)
(-1.13186e-05 -5.50143e-12 0)
(-1.13236e-05 -5.33443e-12 0)
(-1.13288e-05 -5.08558e-12 0)
(-1.13339e-05 -4.72151e-12 0)
(-1.13391e-05 -4.61957e-12 0)
(-1.13443e-05 -4.23235e-12 0)
(-1.13496e-05 -3.73987e-12 0)
(-1.13548e-05 -3.76772e-12 0)
(-1.13602e-05 -3.33894e-12 0)
(-1.13655e-05 -3.14478e-12 0)
(-1.1371e-05 -2.75628e-12 0)
(-1.13764e-05 -2.73818e-12 0)
(-1.1382e-05 -2.1958e-12 0)
(-1.13875e-05 -2.26043e-12 0)
(-1.13931e-05 -1.89059e-12 0)
(-1.13988e-05 -1.69554e-12 0)
(-1.14045e-05 -1.74711e-12 0)
(-1.14104e-05 -1.16188e-12 0)
(-1.14162e-05 -1.28153e-12 0)
(-1.14221e-05 -9.23123e-13 0)
(-1.14281e-05 -9.00311e-13 0)
(-1.14341e-05 -7.23181e-13 0)
(-1.14402e-05 -6.78081e-13 0)
(-1.14464e-05 -5.1017e-13 0)
(-1.14527e-05 -4.19438e-13 0)
(-1.1459e-05 -3.32283e-13 0)
(-1.14653e-05 -4.25356e-13 0)
(-1.14718e-05 -1.55094e-13 0)
(-1.14784e-05 6.27318e-14 0)
(-1.1485e-05 -2.77471e-13 0)
(-1.14917e-05 7.47375e-14 0)
(-1.14985e-05 -2.06253e-14 0)
(-1.15055e-05 1.61984e-13 0)
(-1.15124e-05 -2.19338e-14 0)
(-1.15195e-05 -2.13965e-14 0)
(-1.15267e-05 7.95273e-15 0)
(-1.1534e-05 4.51263e-14 0)
(-1.15414e-05 -6.05807e-14 0)
(-1.15489e-05 -1.87847e-14 0)
(-1.15565e-05 9.46168e-15 0)
(-1.15642e-05 -3.06323e-14 0)
(-1.1572e-05 -3.65444e-14 0)
(-1.158e-05 -1.10067e-13 0)
(-1.1588e-05 -1.39367e-13 0)
(-1.15962e-05 -2.41964e-13 0)
(-1.16046e-05 -3.39104e-13 0)
(-1.1613e-05 -3.99493e-13 0)
(-1.16216e-05 -4.63418e-13 0)
(-1.16304e-05 -5.37416e-13 0)
(-1.16393e-05 -5.71419e-13 0)
(-1.16483e-05 -6.1571e-13 0)
(-1.16575e-05 -6.71632e-13 0)
(-1.16669e-05 -7.33852e-13 0)
(-1.16765e-05 -8.04424e-13 0)
(-1.16862e-05 -8.83974e-13 0)
(-1.16961e-05 -9.65072e-13 0)
(-1.17062e-05 -1.03744e-12 0)
(-1.17166e-05 -1.10342e-12 0)
(-1.17271e-05 -1.15989e-12 0)
(-1.17378e-05 -1.20284e-12 0)
(-1.17488e-05 -1.23711e-12 0)
(-1.17599e-05 -1.26473e-12 0)
(-1.17714e-05 -1.28493e-12 0)
(-1.17831e-05 -1.29895e-12 0)
(-1.1795e-05 -1.30765e-12 0)
(-1.18072e-05 -1.31232e-12 0)
(-1.18198e-05 -1.31614e-12 0)
(-1.18326e-05 -1.32384e-12 0)
(-1.18457e-05 -1.34165e-12 0)
(-1.18592e-05 -1.37747e-12 0)
(-1.1873e-05 -1.44053e-12 0)
(-1.18871e-05 -1.54017e-12 0)
(-1.19017e-05 -1.68555e-12 0)
(-1.19166e-05 -1.8843e-12 0)
(-1.1932e-05 -2.14081e-12 0)
(-1.19478e-05 -2.45392e-12 0)
(-1.19641e-05 -2.81537e-12 0)
(-1.19809e-05 -3.2068e-12 0)
(-1.19981e-05 -3.59777e-12 0)
(-1.2016e-05 -3.94399e-12 0)
(-1.20344e-05 -4.18852e-12 0)
(-1.20534e-05 -4.26614e-12 0)
(-1.20731e-05 -4.11457e-12 0)
(-1.20935e-05 -3.69018e-12 0)
(-1.21147e-05 -2.98693e-12 0)
(-1.21366e-05 -2.05811e-12 0)
(-1.21595e-05 -1.06615e-12 0)
(-1.21833e-05 -3.9184e-13 0)
(-1.22082e-05 -7.76736e-13 0)
(-1.22341e-05 -3.19819e-12 0)
(-1.22616e-05 -8.31865e-12 0)
(-1.22909e-05 -1.63364e-11 0)
(-1.2322e-05 -2.72722e-11 0)
(-1.23549e-05 -3.92497e-11 0)
(-1.23898e-05 -4.77431e-11 0)
(-1.24283e-05 -4.67093e-11 0)
(-1.2472e-05 -2.62435e-11 0)
(-1.25192e-05 -3.18248e-11 0)
(-1.25751e-05 -1.26345e-09 0)
(-1.29628e-05 1.73577e-09 0)
(-1.2905e-05 -4.98716e-10 0)
(-1.29765e-05 -1.77856e-10 0)
(-1.31437e-05 -1.51497e-09 0)
(-6.00312e-05 -3.74486e-09 0)
(-0.035732 -3.75335e-08 0)
(-0.145161 -2.0777e-07 0)
(-0.23975 -1.22293e-07 0)
(-0.316266 -5.10882e-08 0)
(-0.380262 -5.41023e-08 0)
(-0.434924 -7.98129e-08 0)
(-0.482322 -1.20181e-07 0)
(-0.523922 -1.66701e-07 0)
(-0.560819 -2.13478e-07 0)
(-0.593849 -2.53355e-07 0)
(-0.623664 -2.8028e-07 0)
(-0.65078 -2.91447e-07 0)
(-0.675604 -2.87819e-07 0)
(-0.698464 -2.72541e-07 0)
(-0.719618 -2.49353e-07 0)
(-0.739277 -2.21737e-07 0)
(-0.75761 -1.92439e-07 0)
(-0.774753 -1.63313e-07 0)
(-0.790815 -1.35598e-07 0)
(-0.805885 -1.10046e-07 0)
(-0.820033 -8.70353e-08 0)
(-0.833316 -6.64204e-08 0)
(-0.845777 -4.74471e-08 0)
(-0.85745 -2.92545e-08 0)
(-0.868361 -1.23689e-08 0)
(-0.878527 4.16256e-10 0)
(-0.887961 6.55969e-09 0)
(-0.896675 7.96062e-09 0)
(-0.904677 9.54876e-09 0)
(-0.911976 1.28154e-08 0)
(-0.918585 1.51158e-08 0)
(-0.924523 1.46654e-08 0)
(-0.929814 1.22588e-08 0)
(-0.934489 9.41654e-09 0)
(-0.938585 6.99017e-09 0)
(-0.942143 5.16684e-09 0)
(-0.94521 3.85871e-09 0)
(-0.947833 2.91139e-09 0)
(-0.950058 2.21244e-09 0)
(-0.951932 1.69703e-09 0)
(-0.953496 1.3152e-09 0)
(-0.954789 1.02938e-09 0)
(-0.955844 8.12895e-10 0)
(-0.956693 6.47086e-10 0)
(-0.957362 5.18777e-10 0)
(-0.957872 4.18533e-10 0)
(-0.958243 3.39521e-10 0)
(-0.958491 2.76743e-10 0)
(-0.95863 2.2651e-10 0)
(-0.958673 1.8608e-10 0)
(-0.958629 1.53333e-10 0)
(-0.958507 1.26735e-10 0)
(-0.958314 1.05115e-10 0)
(-0.958057 8.75653e-11 0)
(-0.957738 7.56292e-11 0)
(-0.957356 6.51828e-11 0)
(-0.956913 5.63027e-11 0)
(-0.956408 4.8477e-11 0)
(-0.955843 4.19118e-11 0)
(-0.955219 3.61782e-11 0)
(-0.954535 3.14364e-11 0)
(-0.953793 2.73067e-11 0)
(-0.952991 2.39024e-11 0)
(-0.952132 2.08946e-11 0)
(-0.951213 1.83776e-11 0)
(-0.950237 1.60765e-11 0)
(-0.949201 1.41046e-11 0)
(-0.948107 1.22721e-11 0)
(-0.946955 1.0735e-11 0)
(-0.945743 9.28209e-12 0)
(-0.944473 7.10702e-12 0)
(-0.943144 7.10838e-12 0)
(-0.941755 5.32985e-12 0)
(-0.940308 4.27316e-12 0)
(-0.938802 3.33712e-12 0)
(-0.937237 2.38129e-12 0)
(-0.935613 1.48713e-12 0)
(-0.933931 8.01403e-13 0)
(-0.93219 3.85352e-13 0)
(-0.930392 3.99047e-14 0)
(-0.928536 -8.58678e-13 0)
(-0.926624 -4.06025e-12 0)
(-0.924655 -1.21751e-11 0)
(-0.922632 -2.13358e-11 0)
(-0.920554 -1.28267e-11 0)
(-0.918424 2.24039e-11 0)
(-0.916242 4.01595e-11 0)
(-0.91401 -5.73833e-12 0)
(-0.91173 -3.54766e-11 0)
(-0.909403 1.57432e-11 0)
(-0.907033 -1.71887e-11 0)
(-0.904622 1.30683e-11 0)
(-0.902173 6.56953e-12 0)
(-0.899689 3.90957e-12 0)
(-0.897173 2.52376e-12 0)
(-0.894632 1.46742e-12 0)
(-0.892068 6.32884e-13 0)
(-0.889487 -3.31565e-13 0)
(-0.886896 3.6987e-12 0)
(-0.884301 -1.46081e-11 0)
(-0.881709 2.60848e-11 0)
(-0.87913 -3.77223e-11 0)
(-0.876572 4.26137e-11 0)
(-0.874046 -3.81716e-11 0)
(-0.871563 3.55251e-11 0)
(-0.869137 2.27652e-12 0)
(-0.86678 6.66892e-12 0)
(-0.86451 -7.77553e-13 0)
(-0.862342 -4.42278e-13 0)
(-0.860293 1.26706e-13 0)
(-0.858384 1.49594e-13 0)
(-0.856631 6.07037e-14 0)
(-0.855055 1.13398e-14 0)
(-0.853672 -1.87746e-14 0)
(-0.852498 -4.41222e-14 0)
(-0.851544 -6.76959e-14 0)
(-0.850817 -8.99087e-14 0)
(-0.850319 -1.20433e-13 0)
(-0.850044 -1.57249e-13 0)
(-0.849981 -1.97057e-13 0)
(-0.850115 -2.38591e-13 0)
(-0.850425 -2.65607e-13 0)
(-0.850887 -1.68254e-13 0)
(-0.851478 7.96796e-14 0)
(-0.85217 -4.46238e-12 0)
(-0.852937 1.31924e-11 0)
(-0.85375 -3.07259e-11 0)
(-0.854578 5.52619e-11 0)
(-0.855388 -9.0171e-11 0)
(-0.856142 1.3191e-10 0)
(-0.856795 -1.82359e-10 0)
(-0.857197 2.36389e-10 0)
(-0.857271 -2.95052e-10 0)
(-0.857274 3.53946e-10 0)
(-0.857274 -4.15558e-10 0)
(-0.857274 4.7692e-10 0)
(-0.857274 -5.41029e-10 0)
(-0.857274 6.05015e-10 0)
(-0.857274 -6.7176e-10 0)
(-0.857274 7.38545e-10 0)
(-0.857274 -8.08037e-10 0)
(-0.857274 8.77805e-10 0)
(-0.857274 -9.50142e-10 0)
(-0.857274 1.02296e-09 0)
(-0.857274 -1.09822e-09 0)
(-0.857274 1.1742e-09 0)
(-0.857274 -1.25242e-09 0)
(-0.857274 1.3316e-09 0)
(-0.857274 -1.41277e-09 0)
(-0.857274 1.49518e-09 0)
(-0.857274 -1.57936e-09 0)
(-0.857274 1.66488e-09 0)
(-0.857274 -1.7521e-09 0)
(-0.857274 1.8407e-09 0)
(-0.857274 -1.93085e-09 0)
(-0.857274 2.02242e-09 0)
(-0.857274 -2.11545e-09 0)
(-0.857274 2.20986e-09 0)
(-0.857274 -2.30562e-09 0)
(-0.857274 2.40272e-09 0)
(-0.857274 -2.50103e-09 0)
(-0.857274 2.60059e-09 0)
(-0.857274 -2.70122e-09 0)
(-0.857274 2.46198e-09 0)
(-0.857274 -2.50783e-09 0)
(-0.857274 2.55319e-09 0)
(-0.857274 -2.59794e-09 0)
(-0.857274 2.64221e-09 0)
(-0.857274 -2.68584e-09 0)
(-0.857274 2.72899e-09 0)
(-0.857274 -2.7715e-09 0)
(-0.857274 2.81351e-09 0)
(-0.857274 -2.85489e-09 0)
(-0.857274 2.89574e-09 0)
(-0.857274 -2.93597e-09 0)
(-0.857274 2.97565e-09 0)
(-0.857274 -3.01472e-09 0)
(-0.857274 3.05319e-09 0)
(-0.857274 -3.09109e-09 0)
(-0.857274 3.12833e-09 0)
(-0.857274 -3.16504e-09 0)
(-0.857274 3.201e-09 0)
(-0.857274 -3.23652e-09 0)
(-0.857274 3.27116e-09 0)
(-0.857274 -3.30549e-09 0)
(-0.857274 3.33873e-09 0)
(-0.857274 -3.37187e-09 0)
(-0.857274 3.40363e-09 0)
(-0.857274 -3.4356e-09 0)
(-0.857274 3.46579e-09 0)
(-0.857274 -3.49655e-09 0)
(-0.857274 3.52514e-09 0)
(-0.857274 -3.55466e-09 0)
(-0.857274 3.5815e-09 0)
(-0.857274 -3.60979e-09 0)
(-0.857274 3.63478e-09 0)
(-0.857274 -3.6618e-09 0)
(-0.857274 3.68479e-09 0)
(-0.857274 -3.71062e-09 0)
(-0.857274 3.7313e-09 0)
(-0.857274 -3.75586e-09 0)
(-0.857274 3.7742e-09 0)
(-0.857274 -3.79727e-09 0)
(-0.857274 3.81316e-09 0)
(-0.857274 -3.83431e-09 0)
(-0.857274 3.84775e-09 0)
(-0.857274 -3.86683e-09 0)
(-0.857274 3.87717e-09 0)
(-0.857274 -3.89363e-09 0)
(-0.857274 3.9008e-09 0)
(-0.857274 -3.9134e-09 0)
(-0.857274 3.91558e-09 0)
(-0.857274 -3.92125e-09 0)
)
;

boundaryField
{
    inandouthalf11
    {
        type            cyclic;
    }
    inandouthalf12
    {
        type            cyclic;
    }
    inandouthalf21
    {
        type            cyclic;
    }
    inandouthalf22
    {
        type            cyclic;
    }
    inandouthalf31
    {
        type            cyclic;
    }
    inandouthalf32
    {
        type            cyclic;
    }
    inandouthalf41
    {
        type            cyclic;
    }
    inandouthalf42
    {
        type            cyclic;
    }
    top
    {
        type            symmetryPlane;
    }
    walls
    {
        type            calculated;
        value           uniform (0 0 0);
    }
    frontAndBackPlanes
    {
        type            empty;
    }
}


// ************************************************************************* //
