/*--------------------------------*- C++ -*----------------------------------*\
| =========                 |                                                 |
| \\      /  F ield         | OpenFOAM: The Open Source CFD Toolbox           |
|  \\    /   O peration     | Version:  2.4.x                                 |
|   \\  /    A nd           | Web:      www.OpenFOAM.org                      |
|    \\/     M anipulation  |                                                 |
\*---------------------------------------------------------------------------*/
FoamFile
{
    version     2.0;
    format      ascii;
    class       volVectorField;
    location    "12";
    object      Ua;
}
// * * * * * * * * * * * * * * * * * * * * * * * * * * * * * * * * * * * * * //

dimensions      [0 1 -1 0 0 0 0];

internalField   nonuniform List<vector> 
360
(
(-1.85877e-32 -1.02192e-31 0)
(-7.79326e-10 -2.98595e-09 0)
(-1.6307e-09 -5.34909e-09 0)
(-2.41245e-09 -7.47456e-09 0)
(-3.22979e-09 -9.77169e-09 0)
(-4.10414e-09 -1.22291e-08 0)
(-5.01705e-09 -1.47688e-08 0)
(-5.96075e-09 -1.73766e-08 0)
(-6.93694e-09 -2.00621e-08 0)
(-7.94812e-09 -2.28317e-08 0)
(-8.99538e-09 -2.56876e-08 0)
(-1.00784e-08 -2.86281e-08 0)
(-1.11958e-08 -3.16482e-08 0)
(-1.23456e-08 -3.47423e-08 0)
(-1.35258e-08 -3.79038e-08 0)
(-1.47339e-08 -4.1126e-08 0)
(-1.59673e-08 -4.44016e-08 0)
(-1.72233e-08 -4.77227e-08 0)
(-1.84986e-08 -5.10805e-08 0)
(-1.97902e-08 -5.44668e-08 0)
(-2.10949e-08 -5.78729e-08 0)
(-2.24094e-08 -6.12903e-08 0)
(-2.37308e-08 -6.47114e-08 0)
(-2.50561e-08 -6.81285e-08 0)
(-2.63825e-08 -7.15345e-08 0)
(-2.77073e-08 -7.49227e-08 0)
(-2.90281e-08 -7.82867e-08 0)
(-3.03426e-08 -8.16215e-08 0)
(-3.16489e-08 -8.49223e-08 0)
(-3.29451e-08 -8.81847e-08 0)
(-3.42296e-08 -9.14049e-08 0)
(-3.5501e-08 -9.45803e-08 0)
(-3.67583e-08 -9.77082e-08 0)
(-3.80006e-08 -1.00787e-07 0)
(-3.92271e-08 -1.03815e-07 0)
(-4.04373e-08 -1.06792e-07 0)
(-4.16307e-08 -1.09716e-07 0)
(-4.28073e-08 -1.12589e-07 0)
(-4.39669e-08 -1.1541e-07 0)
(-4.51097e-08 -1.1818e-07 0)
(-4.62357e-08 -1.20899e-07 0)
(-4.73454e-08 -1.2357e-07 0)
(-4.84389e-08 -1.26192e-07 0)
(-4.95167e-08 -1.28768e-07 0)
(-5.05794e-08 -1.31298e-07 0)
(-5.16275e-08 -1.33786e-07 0)
(-5.26615e-08 -1.36231e-07 0)
(-5.36819e-08 -1.38636e-07 0)
(-5.46893e-08 -1.41003e-07 0)
(-5.56846e-08 -1.43333e-07 0)
(-5.66682e-08 -1.45628e-07 0)
(-5.76408e-08 -1.4789e-07 0)
(-5.86029e-08 -1.5012e-07 0)
(-5.95553e-08 -1.5232e-07 0)
(-6.04984e-08 -1.54492e-07 0)
(-6.14329e-08 -1.56637e-07 0)
(-6.23594e-08 -1.58756e-07 0)
(-6.32783e-08 -1.60852e-07 0)
(-6.41902e-08 -1.62924e-07 0)
(-6.50953e-08 -1.64975e-07 0)
(-6.59942e-08 -1.67005e-07 0)
(-6.68876e-08 -1.69016e-07 0)
(-6.77757e-08 -1.71008e-07 0)
(-6.86591e-08 -1.72984e-07 0)
(-6.95381e-08 -1.74943e-07 0)
(-7.04128e-08 -1.76886e-07 0)
(-7.12837e-08 -1.78814e-07 0)
(-7.2151e-08 -1.80728e-07 0)
(-7.30149e-08 -1.82629e-07 0)
(-7.38755e-08 -1.84515e-07 0)
(-7.47332e-08 -1.86389e-07 0)
(-7.55883e-08 -1.88251e-07 0)
(-7.64408e-08 -1.901e-07 0)
(-7.72908e-08 -1.91938e-07 0)
(-7.81387e-08 -1.93765e-07 0)
(-7.89846e-08 -1.95581e-07 0)
(-7.98284e-08 -1.97386e-07 0)
(-8.06702e-08 -1.9918e-07 0)
(-8.15098e-08 -2.00963e-07 0)
(-8.23474e-08 -2.02734e-07 0)
(-8.31829e-08 -2.04495e-07 0)
(-8.40162e-08 -2.06244e-07 0)
(-8.48475e-08 -2.07982e-07 0)
(-8.56769e-08 -2.09709e-07 0)
(-8.65042e-08 -2.11424e-07 0)
(-8.73296e-08 -2.13129e-07 0)
(-8.81528e-08 -2.14822e-07 0)
(-8.89739e-08 -2.16502e-07 0)
(-8.97925e-08 -2.18171e-07 0)
(-9.06085e-08 -2.19826e-07 0)
(-9.14218e-08 -2.21468e-07 0)
(-9.22322e-08 -2.23097e-07 0)
(-9.30396e-08 -2.24711e-07 0)
(-9.38441e-08 -2.26312e-07 0)
(-9.46456e-08 -2.27898e-07 0)
(-9.5444e-08 -2.2947e-07 0)
(-9.62393e-08 -2.31027e-07 0)
(-9.70314e-08 -2.32569e-07 0)
(-9.78201e-08 -2.34096e-07 0)
(-9.86055e-08 -2.35607e-07 0)
(-9.93873e-08 -2.37102e-07 0)
(-1.00166e-07 -2.3858e-07 0)
(-1.00941e-07 -2.40043e-07 0)
(-1.01712e-07 -2.41489e-07 0)
(-1.02481e-07 -2.42918e-07 0)
(-1.03246e-07 -2.44331e-07 0)
(-1.04009e-07 -2.45729e-07 0)
(-1.04769e-07 -2.4711e-07 0)
(-1.05527e-07 -2.48475e-07 0)
(-1.06283e-07 -2.49826e-07 0)
(-1.07038e-07 -2.51161e-07 0)
(-1.07792e-07 -2.52481e-07 0)
(-1.08546e-07 -2.53788e-07 0)
(-1.093e-07 -2.5508e-07 0)
(-1.10055e-07 -2.56358e-07 0)
(-1.1081e-07 -2.57622e-07 0)
(-1.11567e-07 -2.58872e-07 0)
(-1.12325e-07 -2.60106e-07 0)
(-1.13083e-07 -2.61324e-07 0)
(-1.13843e-07 -2.62524e-07 0)
(-1.14603e-07 -2.63705e-07 0)
(-1.15364e-07 -2.64865e-07 0)
(-1.16123e-07 -2.66002e-07 0)
(-1.16882e-07 -2.67115e-07 0)
(-1.17641e-07 -2.68203e-07 0)
(-1.184e-07 -2.69267e-07 0)
(-1.19163e-07 -2.70308e-07 0)
(-1.19935e-07 -2.71331e-07 0)
(-1.2072e-07 -2.72343e-07 0)
(-1.21529e-07 -2.73351e-07 0)
(-1.22371e-07 -2.74364e-07 0)
(-1.23255e-07 -2.75386e-07 0)
(-1.24186e-07 -2.76419e-07 0)
(-1.25163e-07 -2.77456e-07 0)
(-1.26167e-07 -2.78471e-07 0)
(-1.27148e-07 -2.79416e-07 0)
(-1.28024e-07 -2.80213e-07 0)
(-1.28704e-07 -2.80795e-07 0)
(-1.29141e-07 -2.81142e-07 0)
(-1.29364e-07 -2.81305e-07 0)
(-1.29461e-07 -2.81365e-07 0)
(-1.29515e-07 -2.81385e-07 0)
(-1.2958e-07 -2.81433e-07 0)
(-1.29711e-07 -2.81575e-07 0)
(-1.29793e-07 -2.81613e-07 0)
(-1.29863e-07 -2.81618e-07 0)
(-1.30032e-07 -2.81604e-07 0)
(-0.0335541 -1.57787e-06 0)
(-0.137927 1.63952e-06 0)
(-0.233167 1.08437e-05 0)
(-0.310397 1.70715e-05 0)
(-0.375136 2.52276e-05 0)
(-0.430376 4.11913e-05 0)
(-0.478196 7.00662e-05 0)
(-0.520083 0.000116603 0)
(-0.557139 0.000184773 0)
(-0.590203 0.000277485 0)
(-0.619931 0.000396472 0)
(-0.646836 0.000542329 0)
(-0.671326 0.000714645 0)
(-0.693721 0.000912125 0)
(-0.714278 0.0011327 0)
(-0.733197 0.00137361 0)
(-0.750638 0.00163141 0)
(-0.766729 0.00190197 0)
(-0.78157 0.00218047 0)
(-0.795243 0.0024613 0)
(-0.807818 0.00273798 0)
(-0.819353 0.00300303 0)
(-0.829901 0.00324769 0)
(-0.839511 0.00346096 0)
(-0.848233 0.00362723 0)
(-0.85612 0.00372386 0)
(-0.863231 0.0037227 0)
(-0.869628 0.00359942 0)
(-0.875383 0.00334664 0)
(-0.880565 0.0029797 0)
(-0.885242 0.00252996 0)
(-0.889473 0.00203242 0)
(-0.893308 0.00151685 0)
(-0.89679 0.00100477 0)
(-0.899955 0.000510185 0)
(-0.902834 4.13973e-05 0)
(-0.905455 -0.000397205 0)
(-0.90784 -0.000803806 0)
(-0.910012 -0.00117822 0)
(-0.911988 -0.00152127 0)
(-0.913786 -0.00183434 0)
(-0.915422 -0.00211914 0)
(-0.916909 -0.00237754 0)
(-0.91826 -0.00261143 0)
(-0.919486 -0.00282267 0)
(-0.920598 -0.00301306 0)
(-0.921606 -0.00318429 0)
(-0.922518 -0.00333798 0)
(-0.923343 -0.00347564 0)
(-0.924088 -0.00359866 0)
(-0.924759 -0.00370835 0)
(-0.925363 -0.00380594 0)
(-0.925905 -0.00389257 0)
(-0.926391 -0.00396929 0)
(-0.926831 -0.00403776 0)
(-0.92723 -0.00409923 0)
(-0.927591 -0.00415421 0)
(-0.927915 -0.00420319 0)
(-0.928204 -0.00424673 0)
(-0.928459 -0.00428534 0)
(-0.928683 -0.00431954 0)
(-0.928878 -0.00434983 0)
(-0.929044 -0.00437668 0)
(-0.929185 -0.0044005 0)
(-0.929301 -0.00442166 0)
(-0.929395 -0.00444046 0)
(-0.929467 -0.00445713 0)
(-0.929521 -0.00447186 0)
(-0.929557 -0.00448474 0)
(-0.929576 -0.00449582 0)
(-0.929581 -0.00450509 0)
(-0.929573 -0.00451224 0)
(-0.929553 -0.00451748 0)
(-0.929521 -0.00452041 0)
(-0.929481 -0.00452068 0)
(-0.929431 -0.00451779 0)
(-0.929374 -0.00451111 0)
(-0.929311 -0.00449974 0)
(-0.929241 -0.00448258 0)
(-0.929167 -0.00445834 0)
(-0.929087 -0.00442577 0)
(-0.929004 -0.00438418 0)
(-0.928918 -0.00433416 0)
(-0.928828 -0.00427872 0)
(-0.928735 -0.00422463 0)
(-0.928637 -0.00418274 0)
(-0.928535 -0.00416202 0)
(-0.928437 -0.00415714 0)
(-0.92835 -0.00415245 0)
(-0.928241 -0.00414188 0)
(-0.90596 -0.00423211 0)
(-0.903581 -0.00424581 0)
(-0.901117 -0.00426904 0)
(-0.898621 -0.00425237 0)
(-0.896093 -0.00419762 0)
(-0.89354 -0.00410583 0)
(-0.890965 -0.00397899 0)
(-0.888374 -0.00382241 0)
(-0.885771 -0.00359261 0)
(-0.883172 -0.00360529 0)
(-0.880542 -0.00268564 0)
(-0.87799 -0.00397766 0)
(-0.875366 -0.000841644 0)
(-0.87296 -0.0053446 0)
(-0.870403 0.00222557 0)
(-0.867896 -0.011786 0)
(-0.865696 -0.0355324 0)
(-0.863547 -0.0397255 0)
(-0.86128 -0.0396176 0)
(-0.859275 -0.0396224 0)
(-0.857401 -0.0396192 0)
(-0.855688 -0.0396158 0)
(-0.854154 -0.0396119 0)
(-0.852816 -0.0396074 0)
(-0.851689 -0.0396026 0)
(-0.850782 -0.0395976 0)
(-0.850099 -0.0395925 0)
(-0.849643 -0.0395875 0)
(-0.849427 -0.0395832 0)
(-0.849394 -0.0395792 0)
(-0.849561 -0.0395754 0)
(-0.8499 -0.0395725 0)
(-0.850387 -0.0395701 0)
(-0.850997 -0.0395682 0)
(-0.851703 -0.0395667 0)
(-0.852479 -0.0395655 0)
(-0.853295 -0.0395645 0)
(-0.854122 -0.0395634 0)
(-0.854926 -0.0395623 0)
(-0.855669 -0.0395607 0)
(-0.856308 -0.0395575 0)
(-0.85665 -0.0395527 0)
(-0.85671 -0.0395497 0)
(-0.856712 -0.0395491 0)
(-0.856712 -0.0395491 0)
(-0.856712 -0.0395491 0)
(-0.856712 -0.0395491 0)
(-0.856712 -0.0395491 0)
(-0.856712 -0.0395491 0)
(-0.856712 -0.0395491 0)
(-0.856712 -0.0395491 0)
(-0.856712 -0.0395491 0)
(-0.856712 -0.0395491 0)
(-0.856712 -0.0395491 0)
(-0.856712 -0.0395491 0)
(-0.856712 -0.0395491 0)
(-0.856712 -0.0395491 0)
(-0.856712 -0.0395491 0)
(-0.856712 -0.0395491 0)
(-0.856712 -0.0395491 0)
(-0.856712 -0.0395491 0)
(-0.856712 -0.0395491 0)
(-0.856712 -0.0395491 0)
(-0.856712 -0.0395491 0)
(-0.856712 -0.0395491 0)
(-0.856712 -0.0395491 0)
(-0.856712 -0.0395491 0)
(-0.856712 -0.0395491 0)
(-0.856712 -0.0395491 0)
(-0.856712 -0.0395491 0)
(-0.856712 -0.0395491 0)
(-0.856712 -0.0395491 0)
(-0.856712 -0.0395491 0)
(-0.856712 -0.0395491 0)
(-0.856712 -0.0395491 0)
(-0.856712 -0.0395491 0)
(-0.856712 -0.0395491 0)
(-0.856712 -0.0395491 0)
(-0.856712 -0.0395491 0)
(-0.856712 -0.0395491 0)
(-0.856712 -0.0395491 0)
(-0.856712 -0.0395491 0)
(-0.856712 -0.0395491 0)
(-0.856712 -0.0395491 0)
(-0.856712 -0.0395491 0)
(-0.856712 -0.0395491 0)
(-0.856712 -0.0395491 0)
(-0.856712 -0.0395491 0)
(-0.856712 -0.0395491 0)
(-0.856712 -0.0395491 0)
(-0.856712 -0.0395491 0)
(-0.856712 -0.0395491 0)
(-0.856712 -0.0395491 0)
(-0.856712 -0.0395491 0)
(-0.856712 -0.0395491 0)
(-0.856712 -0.0395491 0)
(-0.856712 -0.0395491 0)
(-0.856712 -0.0395491 0)
(-0.856712 -0.0395491 0)
(-0.856712 -0.0395491 0)
(-0.856712 -0.0395491 0)
(-0.856712 -0.0395491 0)
(-0.856712 -0.0395491 0)
(-0.856712 -0.0395491 0)
(-0.856712 -0.0395491 0)
(-0.856712 -0.0395491 0)
(-0.856712 -0.0395491 0)
(-0.856712 -0.0395491 0)
(-0.856712 -0.0395491 0)
(-0.856712 -0.0395491 0)
(-0.856712 -0.0395491 0)
(-0.856712 -0.0395491 0)
(-0.856712 -0.0395491 0)
(-0.856712 -0.0395491 0)
(-0.856712 -0.0395491 0)
(-0.856712 -0.0395491 0)
(-0.856712 -0.0395491 0)
(-0.856712 -0.0395491 0)
(-0.856712 -0.0395491 0)
(-0.856712 -0.0395489 0)
(-0.856711 -0.0395405 0)
(-0.856707 -0.0391958 0)
(-0.856614 -0.0224983 0)
)
;

boundaryField
{
    inandouthalf11
    {
        type            cyclic;
    }
    inandouthalf12
    {
        type            cyclic;
    }
    inandouthalf21
    {
        type            cyclic;
    }
    inandouthalf22
    {
        type            cyclic;
    }
    inandouthalf31
    {
        type            cyclic;
    }
    inandouthalf32
    {
        type            cyclic;
    }
    inandouthalf41
    {
        type            cyclic;
    }
    inandouthalf42
    {
        type            cyclic;
    }
    top
    {
        type            symmetryPlane;
    }
    walls
    {
        type            fixedValue;
        value           uniform (0 0 0);
    }
    frontAndBackPlanes
    {
        type            empty;
    }
}


// ************************************************************************* //
