/*--------------------------------*- C++ -*----------------------------------*\
| =========                 |                                                 |
| \\      /  F ield         | OpenFOAM: The Open Source CFD Toolbox           |
|  \\    /   O peration     | Version:  2.4.x                                 |
|   \\  /    A nd           | Web:      www.OpenFOAM.org                      |
|    \\/     M anipulation  |                                                 |
\*---------------------------------------------------------------------------*/
FoamFile
{
    version     2.0;
    format      ascii;
    class       volVectorField;
    location    "12";
    object      Ua_0;
}
// * * * * * * * * * * * * * * * * * * * * * * * * * * * * * * * * * * * * * //

dimensions      [0 1 -1 0 0 0 0];

internalField   nonuniform List<vector> 
360
(
(-1.85891e-32 -1.02192e-31 0)
(-7.79564e-10 -2.98663e-09 0)
(-1.6312e-09 -5.35032e-09 0)
(-2.4132e-09 -7.4763e-09 0)
(-3.2308e-09 -9.77399e-09 0)
(-4.10543e-09 -1.2232e-08 0)
(-5.01863e-09 -1.47723e-08 0)
(-5.96263e-09 -1.73808e-08 0)
(-6.93914e-09 -2.00669e-08 0)
(-7.95063e-09 -2.28371e-08 0)
(-8.99822e-09 -2.56938e-08 0)
(-1.00816e-08 -2.86349e-08 0)
(-1.11993e-08 -3.16558e-08 0)
(-1.23495e-08 -3.47505e-08 0)
(-1.35299e-08 -3.79127e-08 0)
(-1.47384e-08 -4.11355e-08 0)
(-1.59721e-08 -4.44118e-08 0)
(-1.72284e-08 -4.77334e-08 0)
(-1.85041e-08 -5.10919e-08 0)
(-1.9796e-08 -5.44787e-08 0)
(-2.11009e-08 -5.78854e-08 0)
(-2.24157e-08 -6.13033e-08 0)
(-2.37374e-08 -6.47249e-08 0)
(-2.5063e-08 -6.81424e-08 0)
(-2.63896e-08 -7.15488e-08 0)
(-2.77147e-08 -7.49373e-08 0)
(-2.90357e-08 -7.83017e-08 0)
(-3.03504e-08 -8.16368e-08 0)
(-3.16569e-08 -8.49379e-08 0)
(-3.29532e-08 -8.82005e-08 0)
(-3.42379e-08 -9.1421e-08 0)
(-3.55095e-08 -9.45966e-08 0)
(-3.6767e-08 -9.77246e-08 0)
(-3.80094e-08 -1.00803e-07 0)
(-3.9236e-08 -1.03832e-07 0)
(-4.04463e-08 -1.06809e-07 0)
(-4.16399e-08 -1.09733e-07 0)
(-4.28165e-08 -1.12606e-07 0)
(-4.39763e-08 -1.15427e-07 0)
(-4.51191e-08 -1.18197e-07 0)
(-4.62453e-08 -1.20917e-07 0)
(-4.7355e-08 -1.23587e-07 0)
(-4.84486e-08 -1.2621e-07 0)
(-4.95265e-08 -1.28785e-07 0)
(-5.05893e-08 -1.31316e-07 0)
(-5.16375e-08 -1.33803e-07 0)
(-5.26716e-08 -1.36249e-07 0)
(-5.36921e-08 -1.38654e-07 0)
(-5.46996e-08 -1.41021e-07 0)
(-5.56949e-08 -1.43351e-07 0)
(-5.66787e-08 -1.45646e-07 0)
(-5.76513e-08 -1.47908e-07 0)
(-5.86136e-08 -1.50138e-07 0)
(-5.95661e-08 -1.52339e-07 0)
(-6.05093e-08 -1.5451e-07 0)
(-6.14439e-08 -1.56656e-07 0)
(-6.23705e-08 -1.58775e-07 0)
(-6.32895e-08 -1.60871e-07 0)
(-6.42015e-08 -1.62944e-07 0)
(-6.51067e-08 -1.64994e-07 0)
(-6.60058e-08 -1.67024e-07 0)
(-6.68993e-08 -1.69035e-07 0)
(-6.77876e-08 -1.71028e-07 0)
(-6.86711e-08 -1.73004e-07 0)
(-6.95502e-08 -1.74963e-07 0)
(-7.0425e-08 -1.76907e-07 0)
(-7.12961e-08 -1.78835e-07 0)
(-7.21635e-08 -1.8075e-07 0)
(-7.30276e-08 -1.8265e-07 0)
(-7.38884e-08 -1.84537e-07 0)
(-7.47462e-08 -1.86411e-07 0)
(-7.56014e-08 -1.88273e-07 0)
(-7.64541e-08 -1.90123e-07 0)
(-7.73043e-08 -1.91961e-07 0)
(-7.81524e-08 -1.93788e-07 0)
(-7.89984e-08 -1.95604e-07 0)
(-7.98425e-08 -1.9741e-07 0)
(-8.06844e-08 -1.99204e-07 0)
(-8.15242e-08 -2.00987e-07 0)
(-8.2362e-08 -2.02759e-07 0)
(-8.31976e-08 -2.0452e-07 0)
(-8.40312e-08 -2.06269e-07 0)
(-8.48627e-08 -2.08008e-07 0)
(-8.56922e-08 -2.09735e-07 0)
(-8.65198e-08 -2.11451e-07 0)
(-8.73453e-08 -2.13155e-07 0)
(-8.81688e-08 -2.14848e-07 0)
(-8.899e-08 -2.1653e-07 0)
(-8.98088e-08 -2.18198e-07 0)
(-9.0625e-08 -2.19854e-07 0)
(-9.14385e-08 -2.21497e-07 0)
(-9.22491e-08 -2.23125e-07 0)
(-9.30568e-08 -2.2474e-07 0)
(-9.38615e-08 -2.26341e-07 0)
(-9.46631e-08 -2.27928e-07 0)
(-9.54617e-08 -2.295e-07 0)
(-9.62572e-08 -2.31058e-07 0)
(-9.70495e-08 -2.326e-07 0)
(-9.78385e-08 -2.34127e-07 0)
(-9.8624e-08 -2.35638e-07 0)
(-9.94061e-08 -2.37133e-07 0)
(-1.00185e-07 -2.38612e-07 0)
(-1.0096e-07 -2.40075e-07 0)
(-1.01732e-07 -2.41521e-07 0)
(-1.025e-07 -2.42951e-07 0)
(-1.03266e-07 -2.44365e-07 0)
(-1.04029e-07 -2.45762e-07 0)
(-1.04789e-07 -2.47144e-07 0)
(-1.05547e-07 -2.48509e-07 0)
(-1.06304e-07 -2.4986e-07 0)
(-1.07059e-07 -2.51196e-07 0)
(-1.07813e-07 -2.52517e-07 0)
(-1.08567e-07 -2.53823e-07 0)
(-1.09322e-07 -2.55116e-07 0)
(-1.10076e-07 -2.56394e-07 0)
(-1.10832e-07 -2.57659e-07 0)
(-1.11589e-07 -2.58908e-07 0)
(-1.12347e-07 -2.60143e-07 0)
(-1.13106e-07 -2.61361e-07 0)
(-1.13866e-07 -2.62562e-07 0)
(-1.14626e-07 -2.63743e-07 0)
(-1.15387e-07 -2.64903e-07 0)
(-1.16146e-07 -2.6604e-07 0)
(-1.16906e-07 -2.67154e-07 0)
(-1.17664e-07 -2.68242e-07 0)
(-1.18424e-07 -2.69306e-07 0)
(-1.19187e-07 -2.70347e-07 0)
(-1.19959e-07 -2.71371e-07 0)
(-1.20745e-07 -2.72383e-07 0)
(-1.21554e-07 -2.73392e-07 0)
(-1.22396e-07 -2.74404e-07 0)
(-1.2328e-07 -2.75427e-07 0)
(-1.24211e-07 -2.7646e-07 0)
(-1.25189e-07 -2.77497e-07 0)
(-1.26193e-07 -2.78513e-07 0)
(-1.27175e-07 -2.79457e-07 0)
(-1.28051e-07 -2.80256e-07 0)
(-1.28731e-07 -2.80837e-07 0)
(-1.29167e-07 -2.81185e-07 0)
(-1.29391e-07 -2.81348e-07 0)
(-1.29488e-07 -2.81407e-07 0)
(-1.29542e-07 -2.81428e-07 0)
(-1.29606e-07 -2.81476e-07 0)
(-1.29738e-07 -2.81618e-07 0)
(-1.2982e-07 -2.81655e-07 0)
(-1.2989e-07 -2.8166e-07 0)
(-1.30059e-07 -2.81646e-07 0)
(-0.0335548 -1.54622e-06 0)
(-0.137927 1.99471e-06 0)
(-0.233167 1.13101e-05 0)
(-0.310397 1.7624e-05 0)
(-0.375138 2.58225e-05 0)
(-0.430379 4.18318e-05 0)
(-0.478201 7.0755e-05 0)
(-0.52009 0.000117348 0)
(-0.557147 0.000185582 0)
(-0.590214 0.000278372 0)
(-0.619943 0.000397447 0)
(-0.64685 0.000543403 0)
(-0.671341 0.000715828 0)
(-0.693738 0.000913422 0)
(-0.714296 0.00113412 0)
(-0.733216 0.00137515 0)
(-0.750658 0.00163305 0)
(-0.766749 0.00190372 0)
(-0.781591 0.00218231 0)
(-0.795265 0.00246321 0)
(-0.807839 0.00273993 0)
(-0.819374 0.00300497 0)
(-0.829921 0.0032496 0)
(-0.83953 0.00346277 0)
(-0.848251 0.00362885 0)
(-0.856137 0.00372518 0)
(-0.863246 0.00372358 0)
(-0.869642 0.00359976 0)
(-0.875396 0.0033464 0)
(-0.880577 0.00297894 0)
(-0.885252 0.00252877 0)
(-0.889482 0.00203092 0)
(-0.893316 0.00151513 0)
(-0.896797 0.00100291 0)
(-0.899961 0.00050823 0)
(-0.902839 3.93876e-05 0)
(-0.905459 -0.000399245 0)
(-0.907843 -0.000805861 0)
(-0.910014 -0.00118028 0)
(-0.91199 -0.00152333 0)
(-0.913787 -0.00183639 0)
(-0.915422 -0.00212119 0)
(-0.916908 -0.00237959 0)
(-0.918258 -0.00261347 0)
(-0.919484 -0.00282471 0)
(-0.920596 -0.00301509 0)
(-0.921603 -0.00318632 0)
(-0.922515 -0.00334001 0)
(-0.923339 -0.00347766 0)
(-0.924083 -0.00360068 0)
(-0.924754 -0.00371038 0)
(-0.925357 -0.00380798 0)
(-0.925899 -0.0038946 0)
(-0.926385 -0.00397132 0)
(-0.926824 -0.0040398 0)
(-0.927223 -0.00410128 0)
(-0.927583 -0.00415625 0)
(-0.927907 -0.00420525 0)
(-0.928195 -0.00424879 0)
(-0.92845 -0.0042874 0)
(-0.928674 -0.00432161 0)
(-0.928868 -0.0043519 0)
(-0.929035 -0.00437876 0)
(-0.929175 -0.00440258 0)
(-0.929291 -0.00442374 0)
(-0.929384 -0.00444254 0)
(-0.929457 -0.00445922 0)
(-0.92951 -0.00447395 0)
(-0.929545 -0.00448683 0)
(-0.929565 -0.0044979 0)
(-0.929569 -0.00450717 0)
(-0.929561 -0.00451432 0)
(-0.92954 -0.00451955 0)
(-0.929509 -0.00452247 0)
(-0.929468 -0.00452271 0)
(-0.929419 -0.00451981 0)
(-0.929361 -0.00451309 0)
(-0.929298 -0.00450169 0)
(-0.929228 -0.00448448 0)
(-0.929153 -0.00446019 0)
(-0.929074 -0.00442756 0)
(-0.928991 -0.0043859 0)
(-0.928904 -0.00433581 0)
(-0.928814 -0.0042803 0)
(-0.92872 -0.00422613 0)
(-0.928622 -0.00418417 0)
(-0.928521 -0.00416338 0)
(-0.928422 -0.00415845 0)
(-0.928335 -0.00415374 0)
(-0.928227 -0.00414314 0)
(-0.905931 -0.00423298 0)
(-0.903551 -0.00424669 0)
(-0.901088 -0.00426978 0)
(-0.898591 -0.00425299 0)
(-0.896063 -0.00419811 0)
(-0.893509 -0.0041062 0)
(-0.890934 -0.00397924 0)
(-0.888343 -0.00382254 0)
(-0.88574 -0.00359263 0)
(-0.883141 -0.00360517 0)
(-0.880511 -0.00268546 0)
(-0.877958 -0.00397726 0)
(-0.875334 -0.000841311 0)
(-0.872928 -0.00534377 0)
(-0.870371 0.00222621 0)
(-0.867864 -0.0117795 0)
(-0.865665 -0.0355289 0)
(-0.863515 -0.0397255 0)
(-0.861248 -0.0396176 0)
(-0.859244 -0.0396224 0)
(-0.857369 -0.0396192 0)
(-0.855657 -0.0396158 0)
(-0.854123 -0.0396119 0)
(-0.852785 -0.0396074 0)
(-0.851658 -0.0396026 0)
(-0.850752 -0.0395976 0)
(-0.850069 -0.0395925 0)
(-0.849613 -0.0395875 0)
(-0.849398 -0.0395832 0)
(-0.849366 -0.0395792 0)
(-0.849533 -0.0395754 0)
(-0.849872 -0.0395725 0)
(-0.850359 -0.0395701 0)
(-0.850969 -0.0395682 0)
(-0.851675 -0.0395667 0)
(-0.852451 -0.0395655 0)
(-0.853268 -0.0395645 0)
(-0.854095 -0.0395634 0)
(-0.854899 -0.0395623 0)
(-0.855642 -0.0395607 0)
(-0.856281 -0.0395575 0)
(-0.856623 -0.0395527 0)
(-0.856682 -0.0395497 0)
(-0.856684 -0.0395491 0)
(-0.856684 -0.0395491 0)
(-0.856684 -0.0395491 0)
(-0.856684 -0.0395491 0)
(-0.856684 -0.0395491 0)
(-0.856684 -0.0395491 0)
(-0.856684 -0.0395491 0)
(-0.856684 -0.0395491 0)
(-0.856684 -0.0395491 0)
(-0.856684 -0.0395491 0)
(-0.856684 -0.0395491 0)
(-0.856684 -0.0395491 0)
(-0.856684 -0.0395491 0)
(-0.856684 -0.0395491 0)
(-0.856684 -0.0395491 0)
(-0.856684 -0.0395491 0)
(-0.856684 -0.0395491 0)
(-0.856684 -0.0395491 0)
(-0.856684 -0.0395491 0)
(-0.856684 -0.0395491 0)
(-0.856684 -0.0395491 0)
(-0.856684 -0.0395491 0)
(-0.856684 -0.0395491 0)
(-0.856684 -0.0395491 0)
(-0.856684 -0.0395491 0)
(-0.856684 -0.0395491 0)
(-0.856684 -0.0395491 0)
(-0.856684 -0.0395491 0)
(-0.856684 -0.0395491 0)
(-0.856684 -0.0395491 0)
(-0.856684 -0.0395491 0)
(-0.856684 -0.0395491 0)
(-0.856684 -0.0395491 0)
(-0.856684 -0.0395491 0)
(-0.856684 -0.0395491 0)
(-0.856684 -0.0395491 0)
(-0.856684 -0.0395491 0)
(-0.856684 -0.0395491 0)
(-0.856684 -0.0395491 0)
(-0.856684 -0.0395491 0)
(-0.856684 -0.0395491 0)
(-0.856684 -0.0395491 0)
(-0.856684 -0.0395491 0)
(-0.856684 -0.0395491 0)
(-0.856684 -0.0395491 0)
(-0.856684 -0.0395491 0)
(-0.856684 -0.0395491 0)
(-0.856684 -0.0395491 0)
(-0.856684 -0.0395491 0)
(-0.856684 -0.0395491 0)
(-0.856684 -0.0395491 0)
(-0.856684 -0.0395491 0)
(-0.856684 -0.0395491 0)
(-0.856684 -0.0395491 0)
(-0.856684 -0.0395491 0)
(-0.856684 -0.0395491 0)
(-0.856684 -0.0395491 0)
(-0.856684 -0.0395491 0)
(-0.856684 -0.0395491 0)
(-0.856684 -0.0395491 0)
(-0.856684 -0.0395491 0)
(-0.856684 -0.0395491 0)
(-0.856684 -0.0395491 0)
(-0.856684 -0.0395491 0)
(-0.856684 -0.0395491 0)
(-0.856684 -0.0395491 0)
(-0.856684 -0.0395491 0)
(-0.856684 -0.0395491 0)
(-0.856684 -0.0395491 0)
(-0.856684 -0.0395491 0)
(-0.856684 -0.0395491 0)
(-0.856684 -0.0395491 0)
(-0.856684 -0.0395491 0)
(-0.856684 -0.0395491 0)
(-0.856684 -0.0395491 0)
(-0.856684 -0.0395491 0)
(-0.856684 -0.0395489 0)
(-0.856684 -0.0395405 0)
(-0.85668 -0.0391958 0)
(-0.856586 -0.0224983 0)
)
;

boundaryField
{
    inandouthalf11
    {
        type            cyclic;
    }
    inandouthalf12
    {
        type            cyclic;
    }
    inandouthalf21
    {
        type            cyclic;
    }
    inandouthalf22
    {
        type            cyclic;
    }
    inandouthalf31
    {
        type            cyclic;
    }
    inandouthalf32
    {
        type            cyclic;
    }
    inandouthalf41
    {
        type            cyclic;
    }
    inandouthalf42
    {
        type            cyclic;
    }
    top
    {
        type            symmetryPlane;
    }
    walls
    {
        type            fixedValue;
        value           uniform (0 0 0);
    }
    frontAndBackPlanes
    {
        type            empty;
    }
}


// ************************************************************************* //
