/*--------------------------------*- C++ -*----------------------------------*\
| =========                 |                                                 |
| \\      /  F ield         | OpenFOAM: The Open Source CFD Toolbox           |
|  \\    /   O peration     | Version:  2.4.x                                 |
|   \\  /    A nd           | Web:      www.OpenFOAM.org                      |
|    \\/     M anipulation  |                                                 |
\*---------------------------------------------------------------------------*/
FoamFile
{
    version     2.0;
    format      ascii;
    class       volVectorField;
    location    "12";
    object      Ub;
}
// * * * * * * * * * * * * * * * * * * * * * * * * * * * * * * * * * * * * * //

dimensions      [0 1 -1 0 0 0 0];

internalField   nonuniform List<vector> 
360
(
(-2.88519e-05 1.26113e-09 0)
(-2.86912e-05 4.46039e-09 0)
(-2.86704e-05 8.22064e-09 0)
(-2.86929e-05 1.18134e-08 0)
(-2.87039e-05 1.54675e-08 0)
(-2.8708e-05 1.93033e-08 0)
(-2.8713e-05 2.32909e-08 0)
(-2.87193e-05 2.74002e-08 0)
(-2.87257e-05 3.16306e-08 0)
(-2.87322e-05 3.59901e-08 0)
(-2.87388e-05 4.04833e-08 0)
(-2.87455e-05 4.51073e-08 0)
(-2.87522e-05 4.98556e-08 0)
(-2.8759e-05 5.4719e-08 0)
(-2.87659e-05 5.96873e-08 0)
(-2.87729e-05 6.47499e-08 0)
(-2.878e-05 6.98952e-08 0)
(-2.87871e-05 7.51107e-08 0)
(-2.87944e-05 8.03828e-08 0)
(-2.88017e-05 8.56987e-08 0)
(-2.88091e-05 9.10445e-08 0)
(-2.88165e-05 9.64071e-08 0)
(-2.88241e-05 1.01774e-07 0)
(-2.88317e-05 1.07134e-07 0)
(-2.88394e-05 1.12475e-07 0)
(-2.88471e-05 1.17787e-07 0)
(-2.88549e-05 1.23061e-07 0)
(-2.88627e-05 1.28287e-07 0)
(-2.88707e-05 1.33458e-07 0)
(-2.88786e-05 1.38568e-07 0)
(-2.88867e-05 1.43611e-07 0)
(-2.88948e-05 1.48582e-07 0)
(-2.89029e-05 1.53477e-07 0)
(-2.89112e-05 1.58294e-07 0)
(-2.89194e-05 1.63031e-07 0)
(-2.89278e-05 1.67685e-07 0)
(-2.89362e-05 1.72257e-07 0)
(-2.89446e-05 1.76745e-07 0)
(-2.89532e-05 1.81151e-07 0)
(-2.89617e-05 1.85476e-07 0)
(-2.89704e-05 1.8972e-07 0)
(-2.89792e-05 1.93886e-07 0)
(-2.89879e-05 1.97975e-07 0)
(-2.89969e-05 2.01989e-07 0)
(-2.90058e-05 2.05932e-07 0)
(-2.90148e-05 2.09805e-07 0)
(-2.9024e-05 2.13612e-07 0)
(-2.90331e-05 2.17353e-07 0)
(-2.90424e-05 2.21032e-07 0)
(-2.90518e-05 2.24654e-07 0)
(-2.90612e-05 2.28218e-07 0)
(-2.90708e-05 2.31729e-07 0)
(-2.90804e-05 2.35189e-07 0)
(-2.90902e-05 2.38601e-07 0)
(-2.91e-05 2.41967e-07 0)
(-2.911e-05 2.45289e-07 0)
(-2.912e-05 2.48569e-07 0)
(-2.91302e-05 2.51811e-07 0)
(-2.91405e-05 2.55015e-07 0)
(-2.91508e-05 2.58183e-07 0)
(-2.91614e-05 2.61318e-07 0)
(-2.9172e-05 2.6442e-07 0)
(-2.91828e-05 2.67493e-07 0)
(-2.91937e-05 2.70536e-07 0)
(-2.92047e-05 2.73553e-07 0)
(-2.92158e-05 2.76543e-07 0)
(-2.92271e-05 2.79508e-07 0)
(-2.92386e-05 2.82449e-07 0)
(-2.92502e-05 2.85367e-07 0)
(-2.92619e-05 2.88261e-07 0)
(-2.92738e-05 2.91134e-07 0)
(-2.92859e-05 2.93986e-07 0)
(-2.9298e-05 2.96816e-07 0)
(-2.93104e-05 2.99628e-07 0)
(-2.9323e-05 3.02419e-07 0)
(-2.93357e-05 3.05191e-07 0)
(-2.93486e-05 3.07944e-07 0)
(-2.93617e-05 3.10678e-07 0)
(-2.9375e-05 3.13392e-07 0)
(-2.93885e-05 3.16087e-07 0)
(-2.94021e-05 3.18762e-07 0)
(-2.9416e-05 3.21417e-07 0)
(-2.94301e-05 3.24052e-07 0)
(-2.94445e-05 3.26668e-07 0)
(-2.9459e-05 3.29263e-07 0)
(-2.94738e-05 3.31838e-07 0)
(-2.94889e-05 3.34393e-07 0)
(-2.95041e-05 3.36926e-07 0)
(-2.95197e-05 3.39438e-07 0)
(-2.95355e-05 3.41926e-07 0)
(-2.95516e-05 3.44391e-07 0)
(-2.95679e-05 3.46832e-07 0)
(-2.95846e-05 3.49248e-07 0)
(-2.96016e-05 3.51639e-07 0)
(-2.96188e-05 3.54005e-07 0)
(-2.96364e-05 3.56345e-07 0)
(-2.96544e-05 3.58659e-07 0)
(-2.96727e-05 3.60946e-07 0)
(-2.96913e-05 3.63206e-07 0)
(-2.97104e-05 3.65437e-07 0)
(-2.97298e-05 3.6764e-07 0)
(-2.97496e-05 3.69814e-07 0)
(-2.97699e-05 3.71958e-07 0)
(-2.97905e-05 3.74073e-07 0)
(-2.98117e-05 3.76159e-07 0)
(-2.98333e-05 3.78215e-07 0)
(-2.98554e-05 3.80241e-07 0)
(-2.9878e-05 3.82238e-07 0)
(-2.99012e-05 3.84206e-07 0)
(-2.99249e-05 3.86145e-07 0)
(-2.99492e-05 3.88055e-07 0)
(-2.99742e-05 3.89938e-07 0)
(-2.99997e-05 3.91793e-07 0)
(-3.0026e-05 3.9362e-07 0)
(-3.00529e-05 3.9542e-07 0)
(-3.00805e-05 3.97191e-07 0)
(-3.0109e-05 3.98933e-07 0)
(-3.01382e-05 4.00644e-07 0)
(-3.01683e-05 4.02323e-07 0)
(-3.01993e-05 4.03967e-07 0)
(-3.02313e-05 4.05573e-07 0)
(-3.02642e-05 4.07138e-07 0)
(-3.02982e-05 4.0866e-07 0)
(-3.03334e-05 4.10136e-07 0)
(-3.03697e-05 4.11565e-07 0)
(-3.04073e-05 4.12946e-07 0)
(-3.04462e-05 4.14283e-07 0)
(-3.04866e-05 4.15583e-07 0)
(-3.05286e-05 4.16852e-07 0)
(-3.05722e-05 4.18104e-07 0)
(-3.06177e-05 4.19347e-07 0)
(-3.06651e-05 4.20588e-07 0)
(-3.07147e-05 4.21825e-07 0)
(-3.0767e-05 4.23039e-07 0)
(-3.08229e-05 4.24187e-07 0)
(-3.08823e-05 4.25194e-07 0)
(-3.09452e-05 4.2595e-07 0)
(-3.10122e-05 4.26354e-07 0)
(-3.10862e-05 4.26377e-07 0)
(-3.11706e-05 4.26097e-07 0)
(-3.12615e-05 4.25552e-07 0)
(-3.13696e-05 4.21759e-07 0)
(-3.21152e-05 4.24341e-07 0)
(-3.20044e-05 4.19719e-07 0)
(-3.21415e-05 4.19675e-07 0)
(-3.24895e-05 4.14874e-07 0)
(-0.00014774 4.03102e-07 0)
(-0.0373282 1.09135e-06 0)
(-0.148018 -9.37188e-07 0)
(-0.241693 -3.35949e-06 0)
(-0.317666 -4.13579e-06 0)
(-0.381259 -4.97324e-06 0)
(-0.435646 -6.63165e-06 0)
(-0.482854 -9.17726e-06 0)
(-0.524323 -1.23588e-05 0)
(-0.561129 -1.57777e-05 0)
(-0.594095 -1.90295e-05 0)
(-0.623867 -2.17967e-05 0)
(-0.650951 -2.38865e-05 0)
(-0.675754 -2.52247e-05 0)
(-0.698596 -2.58252e-05 0)
(-0.719738 -2.57588e-05 0)
(-0.739387 -2.51259e-05 0)
(-0.757712 -2.40369e-05 0)
(-0.774847 -2.26005e-05 0)
(-0.790903 -2.09172e-05 0)
(-0.805967 -1.90753e-05 0)
(-0.820109 -1.71498e-05 0)
(-0.833387 -1.52027e-05 0)
(-0.845842 -1.32821e-05 0)
(-0.85751 -1.14212e-05 0)
(-0.868414 -9.63685e-06 0)
(-0.878574 -7.93589e-06 0)
(-0.888003 -6.33266e-06 0)
(-0.896712 -4.86506e-06 0)
(-0.904708 -3.58809e-06 0)
(-0.912003 -2.54423e-06 0)
(-0.918608 -1.73868e-06 0)
(-0.924543 -1.14159e-06 0)
(-0.929831 -7.08053e-07 0)
(-0.934504 -3.95345e-07 0)
(-0.938598 -1.69903e-07 0)
(-0.942155 -7.34283e-09 0)
(-0.945221 1.09634e-07 0)
(-0.947842 1.93264e-07 0)
(-0.950067 2.5229e-07 0)
(-0.95194 2.93026e-07 0)
(-0.953503 3.20063e-07 0)
(-0.954795 3.3678e-07 0)
(-0.95585 3.4569e-07 0)
(-0.956699 3.48682e-07 0)
(-0.957366 3.47191e-07 0)
(-0.957876 3.42315e-07 0)
(-0.958246 3.34903e-07 0)
(-0.958494 3.25613e-07 0)
(-0.958633 3.14959e-07 0)
(-0.958676 3.03343e-07 0)
(-0.958631 2.91086e-07 0)
(-0.958509 2.78437e-07 0)
(-0.958316 2.65597e-07 0)
(-0.958059 2.52722e-07 0)
(-0.95774 2.39809e-07 0)
(-0.957358 2.26833e-07 0)
(-0.956914 2.13889e-07 0)
(-0.956409 2.01063e-07 0)
(-0.955844 1.88429e-07 0)
(-0.95522 1.76056e-07 0)
(-0.954536 1.64005e-07 0)
(-0.953793 1.52327e-07 0)
(-0.952992 1.41067e-07 0)
(-0.952132 1.30261e-07 0)
(-0.951214 1.19937e-07 0)
(-0.950237 1.10115e-07 0)
(-0.949202 1.00806e-07 0)
(-0.948108 9.20157e-08 0)
(-0.946955 8.3741e-08 0)
(-0.945744 7.59751e-08 0)
(-0.944473 6.87059e-08 0)
(-0.943144 6.19194e-08 0)
(-0.941756 5.5601e-08 0)
(-0.940308 4.97346e-08 0)
(-0.938802 4.43031e-08 0)
(-0.937237 3.92899e-08 0)
(-0.935613 3.46785e-08 0)
(-0.933931 3.0452e-08 0)
(-0.93219 2.65919e-08 0)
(-0.930392 2.30756e-08 0)
(-0.928536 1.98723e-08 0)
(-0.926624 1.69396e-08 0)
(-0.924655 1.42243e-08 0)
(-0.922632 1.16858e-08 0)
(-0.920554 9.34983e-09 0)
(-0.918424 7.3535e-09 0)
(-0.916242 5.86748e-09 0)
(-0.91401 4.89089e-09 0)
(-0.91173 4.20041e-09 0)
(-0.909403 3.60604e-09 0)
(-0.907033 3.03891e-09 0)
(-0.904622 2.49634e-09 0)
(-0.902173 2.01545e-09 0)
(-0.899689 1.60166e-09 0)
(-0.897173 1.25071e-09 0)
(-0.894632 9.57699e-10 0)
(-0.892068 7.17599e-10 0)
(-0.889487 5.24812e-10 0)
(-0.886896 3.7335e-10 0)
(-0.884301 2.57171e-10 0)
(-0.881709 1.70391e-10 0)
(-0.87913 1.07508e-10 0)
(-0.876572 6.29261e-11 0)
(-0.874046 3.28651e-11 0)
(-0.871563 1.82357e-11 0)
(-0.869137 1.43894e-11 0)
(-0.86678 6.66892e-12 0)
(-0.86451 -7.77553e-13 0)
(-0.862342 -4.42278e-13 0)
(-0.860293 1.26706e-13 0)
(-0.858384 1.49594e-13 0)
(-0.856631 6.07037e-14 0)
(-0.855055 1.13398e-14 0)
(-0.853672 -1.87746e-14 0)
(-0.852498 -4.41222e-14 0)
(-0.851544 -6.76959e-14 0)
(-0.850817 -8.99087e-14 0)
(-0.850319 -1.20433e-13 0)
(-0.850044 -1.57249e-13 0)
(-0.849981 -1.97057e-13 0)
(-0.850115 -2.38591e-13 0)
(-0.850425 -2.65607e-13 0)
(-0.850887 -1.68254e-13 0)
(-0.851478 7.96796e-14 0)
(-0.85217 -4.46238e-12 0)
(-0.852937 1.31924e-11 0)
(-0.85375 -3.07259e-11 0)
(-0.854578 5.52619e-11 0)
(-0.855388 -9.0171e-11 0)
(-0.856142 1.3191e-10 0)
(-0.856795 -1.82359e-10 0)
(-0.857197 2.36389e-10 0)
(-0.857271 -2.95052e-10 0)
(-0.857274 3.53946e-10 0)
(-0.857274 -4.15558e-10 0)
(-0.857274 4.7692e-10 0)
(-0.857274 -5.41029e-10 0)
(-0.857274 6.05015e-10 0)
(-0.857274 -6.7176e-10 0)
(-0.857274 7.38545e-10 0)
(-0.857274 -8.08037e-10 0)
(-0.857274 8.77805e-10 0)
(-0.857274 -9.50142e-10 0)
(-0.857274 1.02296e-09 0)
(-0.857274 -1.09822e-09 0)
(-0.857274 1.1742e-09 0)
(-0.857274 -1.25242e-09 0)
(-0.857274 1.3316e-09 0)
(-0.857274 -1.41277e-09 0)
(-0.857274 1.49518e-09 0)
(-0.857274 -1.57936e-09 0)
(-0.857274 1.66488e-09 0)
(-0.857274 -1.7521e-09 0)
(-0.857274 1.8407e-09 0)
(-0.857274 -1.93085e-09 0)
(-0.857274 2.02242e-09 0)
(-0.857274 -2.11545e-09 0)
(-0.857274 2.20986e-09 0)
(-0.857274 -2.30562e-09 0)
(-0.857274 2.40272e-09 0)
(-0.857274 -2.50103e-09 0)
(-0.857274 2.60059e-09 0)
(-0.857274 -2.70122e-09 0)
(-0.857274 2.46198e-09 0)
(-0.857274 -2.50783e-09 0)
(-0.857274 2.55319e-09 0)
(-0.857274 -2.59794e-09 0)
(-0.857274 2.64221e-09 0)
(-0.857274 -2.68584e-09 0)
(-0.857274 2.72899e-09 0)
(-0.857274 -2.7715e-09 0)
(-0.857274 2.81351e-09 0)
(-0.857274 -2.85489e-09 0)
(-0.857274 2.89574e-09 0)
(-0.857274 -2.93597e-09 0)
(-0.857274 2.97565e-09 0)
(-0.857274 -3.01472e-09 0)
(-0.857274 3.05319e-09 0)
(-0.857274 -3.09109e-09 0)
(-0.857274 3.12833e-09 0)
(-0.857274 -3.16504e-09 0)
(-0.857274 3.201e-09 0)
(-0.857274 -3.23652e-09 0)
(-0.857274 3.27116e-09 0)
(-0.857274 -3.30549e-09 0)
(-0.857274 3.33873e-09 0)
(-0.857274 -3.37187e-09 0)
(-0.857274 3.40363e-09 0)
(-0.857274 -3.4356e-09 0)
(-0.857274 3.46579e-09 0)
(-0.857274 -3.49655e-09 0)
(-0.857274 3.52514e-09 0)
(-0.857274 -3.55466e-09 0)
(-0.857274 3.5815e-09 0)
(-0.857274 -3.60979e-09 0)
(-0.857274 3.63478e-09 0)
(-0.857274 -3.6618e-09 0)
(-0.857274 3.68479e-09 0)
(-0.857274 -3.71062e-09 0)
(-0.857274 3.7313e-09 0)
(-0.857274 -3.75586e-09 0)
(-0.857274 3.7742e-09 0)
(-0.857274 -3.79727e-09 0)
(-0.857274 3.81316e-09 0)
(-0.857274 -3.83431e-09 0)
(-0.857274 3.84775e-09 0)
(-0.857274 -3.86683e-09 0)
(-0.857274 3.87717e-09 0)
(-0.857274 -3.89363e-09 0)
(-0.857274 3.9008e-09 0)
(-0.857274 -3.9134e-09 0)
(-0.857274 3.91558e-09 0)
(-0.857274 -3.92125e-09 0)
)
;

boundaryField
{
    inandouthalf11
    {
        type            cyclic;
    }
    inandouthalf12
    {
        type            cyclic;
    }
    inandouthalf21
    {
        type            cyclic;
    }
    inandouthalf22
    {
        type            cyclic;
    }
    inandouthalf31
    {
        type            cyclic;
    }
    inandouthalf32
    {
        type            cyclic;
    }
    inandouthalf41
    {
        type            cyclic;
    }
    inandouthalf42
    {
        type            cyclic;
    }
    top
    {
        type            symmetryPlane;
    }
    walls
    {
        type            fixedValue;
        value           uniform (0 0 0);
    }
    frontAndBackPlanes
    {
        type            empty;
    }
}


// ************************************************************************* //
