/*--------------------------------*- C++ -*----------------------------------*\
| =========                 |                                                 |
| \\      /  F ield         | OpenFOAM: The Open Source CFD Toolbox           |
|  \\    /   O peration     | Version:  2.4.x                                 |
|   \\  /    A nd           | Web:      www.OpenFOAM.org                      |
|    \\/     M anipulation  |                                                 |
\*---------------------------------------------------------------------------*/
FoamFile
{
    version     2.0;
    format      ascii;
    class       volVectorField;
    location    "12";
    object      Ub_0;
}
// * * * * * * * * * * * * * * * * * * * * * * * * * * * * * * * * * * * * * //

dimensions      [0 1 -1 0 0 0 0];

internalField   nonuniform List<vector> 
360
(
(-2.8873e-05 1.26142e-09 0)
(-2.87122e-05 4.46142e-09 0)
(-2.86914e-05 8.22254e-09 0)
(-2.87139e-05 1.18161e-08 0)
(-2.87249e-05 1.54712e-08 0)
(-2.8729e-05 1.93079e-08 0)
(-2.8734e-05 2.32964e-08 0)
(-2.87403e-05 2.74067e-08 0)
(-2.87467e-05 3.16382e-08 0)
(-2.87533e-05 3.59988e-08 0)
(-2.87599e-05 4.0493e-08 0)
(-2.87665e-05 4.51181e-08 0)
(-2.87733e-05 4.98674e-08 0)
(-2.87801e-05 5.47318e-08 0)
(-2.8787e-05 5.97012e-08 0)
(-2.8794e-05 6.47648e-08 0)
(-2.88011e-05 6.99112e-08 0)
(-2.88082e-05 7.51276e-08 0)
(-2.88154e-05 8.04007e-08 0)
(-2.88228e-05 8.57175e-08 0)
(-2.88302e-05 9.10641e-08 0)
(-2.88376e-05 9.64275e-08 0)
(-2.88452e-05 1.01795e-07 0)
(-2.88528e-05 1.07156e-07 0)
(-2.88605e-05 1.12498e-07 0)
(-2.88682e-05 1.1781e-07 0)
(-2.8876e-05 1.23084e-07 0)
(-2.88839e-05 1.28311e-07 0)
(-2.88918e-05 1.33483e-07 0)
(-2.88998e-05 1.38593e-07 0)
(-2.89078e-05 1.43636e-07 0)
(-2.89159e-05 1.48608e-07 0)
(-2.8924e-05 1.53503e-07 0)
(-2.89323e-05 1.58321e-07 0)
(-2.89406e-05 1.63057e-07 0)
(-2.89489e-05 1.67712e-07 0)
(-2.89573e-05 1.72283e-07 0)
(-2.89658e-05 1.76772e-07 0)
(-2.89744e-05 1.81178e-07 0)
(-2.89829e-05 1.85503e-07 0)
(-2.89916e-05 1.89747e-07 0)
(-2.90004e-05 1.93913e-07 0)
(-2.90091e-05 1.98002e-07 0)
(-2.90181e-05 2.02017e-07 0)
(-2.9027e-05 2.05959e-07 0)
(-2.90361e-05 2.09833e-07 0)
(-2.90452e-05 2.13639e-07 0)
(-2.90543e-05 2.17381e-07 0)
(-2.90636e-05 2.2106e-07 0)
(-2.90731e-05 2.24682e-07 0)
(-2.90825e-05 2.28246e-07 0)
(-2.90921e-05 2.31758e-07 0)
(-2.91017e-05 2.35218e-07 0)
(-2.91115e-05 2.3863e-07 0)
(-2.91213e-05 2.41996e-07 0)
(-2.91313e-05 2.45318e-07 0)
(-2.91413e-05 2.48599e-07 0)
(-2.91515e-05 2.51841e-07 0)
(-2.91618e-05 2.55045e-07 0)
(-2.91721e-05 2.58213e-07 0)
(-2.91827e-05 2.61348e-07 0)
(-2.91933e-05 2.64451e-07 0)
(-2.92041e-05 2.67524e-07 0)
(-2.9215e-05 2.70568e-07 0)
(-2.92261e-05 2.73585e-07 0)
(-2.92372e-05 2.76576e-07 0)
(-2.92485e-05 2.79541e-07 0)
(-2.926e-05 2.82482e-07 0)
(-2.92716e-05 2.85401e-07 0)
(-2.92832e-05 2.88295e-07 0)
(-2.92952e-05 2.91168e-07 0)
(-2.93073e-05 2.94021e-07 0)
(-2.93194e-05 2.96852e-07 0)
(-2.93318e-05 2.99663e-07 0)
(-2.93444e-05 3.02455e-07 0)
(-2.93572e-05 3.05228e-07 0)
(-2.937e-05 3.07981e-07 0)
(-2.93831e-05 3.10715e-07 0)
(-2.93964e-05 3.1343e-07 0)
(-2.94099e-05 3.16125e-07 0)
(-2.94236e-05 3.18801e-07 0)
(-2.94375e-05 3.21456e-07 0)
(-2.94516e-05 3.24092e-07 0)
(-2.9466e-05 3.26708e-07 0)
(-2.94806e-05 3.29304e-07 0)
(-2.94954e-05 3.3188e-07 0)
(-2.95104e-05 3.34435e-07 0)
(-2.95257e-05 3.36969e-07 0)
(-2.95412e-05 3.39481e-07 0)
(-2.95571e-05 3.4197e-07 0)
(-2.95732e-05 3.44435e-07 0)
(-2.95895e-05 3.46876e-07 0)
(-2.96062e-05 3.49293e-07 0)
(-2.96232e-05 3.51685e-07 0)
(-2.96405e-05 3.54051e-07 0)
(-2.96581e-05 3.56392e-07 0)
(-2.9676e-05 3.58706e-07 0)
(-2.96943e-05 3.60994e-07 0)
(-2.9713e-05 3.63254e-07 0)
(-2.97321e-05 3.65486e-07 0)
(-2.97515e-05 3.67689e-07 0)
(-2.97713e-05 3.69863e-07 0)
(-2.97916e-05 3.72008e-07 0)
(-2.98123e-05 3.74124e-07 0)
(-2.98335e-05 3.7621e-07 0)
(-2.98551e-05 3.78266e-07 0)
(-2.98772e-05 3.80293e-07 0)
(-2.98999e-05 3.8229e-07 0)
(-2.9923e-05 3.84258e-07 0)
(-2.99468e-05 3.86198e-07 0)
(-2.99711e-05 3.88109e-07 0)
(-2.99961e-05 3.89992e-07 0)
(-3.00216e-05 3.91848e-07 0)
(-3.00479e-05 3.93675e-07 0)
(-3.00748e-05 3.95475e-07 0)
(-3.01025e-05 3.97247e-07 0)
(-3.0131e-05 3.98989e-07 0)
(-3.01602e-05 4.00701e-07 0)
(-3.01903e-05 4.0238e-07 0)
(-3.02214e-05 4.04024e-07 0)
(-3.02533e-05 4.05631e-07 0)
(-3.02863e-05 4.07197e-07 0)
(-3.03204e-05 4.08719e-07 0)
(-3.03555e-05 4.10195e-07 0)
(-3.03919e-05 4.11624e-07 0)
(-3.04295e-05 4.13006e-07 0)
(-3.04684e-05 4.14344e-07 0)
(-3.05089e-05 4.15643e-07 0)
(-3.05509e-05 4.16914e-07 0)
(-3.05946e-05 4.18165e-07 0)
(-3.06401e-05 4.19409e-07 0)
(-3.06875e-05 4.20651e-07 0)
(-3.07371e-05 4.21887e-07 0)
(-3.07895e-05 4.23102e-07 0)
(-3.08454e-05 4.24251e-07 0)
(-3.09049e-05 4.25258e-07 0)
(-3.09678e-05 4.26014e-07 0)
(-3.10348e-05 4.26418e-07 0)
(-3.11089e-05 4.26441e-07 0)
(-3.11933e-05 4.26162e-07 0)
(-3.12843e-05 4.25616e-07 0)
(-3.13925e-05 4.21822e-07 0)
(-3.21386e-05 4.24405e-07 0)
(-3.20277e-05 4.19783e-07 0)
(-3.2165e-05 4.19739e-07 0)
(-3.25131e-05 4.14983e-07 0)
(-0.000147771 4.05169e-07 0)
(-0.0373291 1.03393e-06 0)
(-0.148018 -1.11291e-06 0)
(-0.241694 -3.50165e-06 0)
(-0.317668 -4.26871e-06 0)
(-0.381262 -5.0898e-06 0)
(-0.43565 -6.73379e-06 0)
(-0.482859 -9.26659e-06 0)
(-0.52433 -1.2437e-05 0)
(-0.561138 -1.58464e-05 0)
(-0.594106 -1.90901e-05 0)
(-0.623879 -2.18503e-05 0)
(-0.650966 -2.39339e-05 0)
(-0.67577 -2.52664e-05 0)
(-0.698614 -2.58618e-05 0)
(-0.719758 -2.57907e-05 0)
(-0.739408 -2.51534e-05 0)
(-0.757734 -2.40603e-05 0)
(-0.774871 -2.26201e-05 0)
(-0.790927 -2.09333e-05 0)
(-0.805992 -1.90882e-05 0)
(-0.820135 -1.71599e-05 0)
(-0.833412 -1.52102e-05 0)
(-0.845867 -1.32874e-05 0)
(-0.857534 -1.14246e-05 0)
(-0.868438 -9.63859e-06 0)
(-0.878598 -7.9362e-06 0)
(-0.888026 -6.33186e-06 0)
(-0.896733 -4.86353e-06 0)
(-0.904727 -3.58627e-06 0)
(-0.91202 -2.54245e-06 0)
(-0.918623 -1.73713e-06 0)
(-0.924556 -1.14032e-06 0)
(-0.929842 -7.07011e-07 0)
(-0.934513 -3.94489e-07 0)
(-0.938604 -1.69189e-07 0)
(-0.942159 -6.73545e-09 0)
(-0.945222 1.1016e-07 0)
(-0.947842 1.93727e-07 0)
(-0.950064 2.52703e-07 0)
(-0.951936 2.93399e-07 0)
(-0.953497 3.20404e-07 0)
(-0.954788 3.37094e-07 0)
(-0.955842 3.4598e-07 0)
(-0.956689 3.48952e-07 0)
(-0.957356 3.47444e-07 0)
(-0.957865 3.42553e-07 0)
(-0.958235 3.35127e-07 0)
(-0.958482 3.25824e-07 0)
(-0.95862 3.15158e-07 0)
(-0.958662 3.03531e-07 0)
(-0.958617 2.91264e-07 0)
(-0.958494 2.78605e-07 0)
(-0.958301 2.65756e-07 0)
(-0.958043 2.52872e-07 0)
(-0.957724 2.3995e-07 0)
(-0.957341 2.26966e-07 0)
(-0.956897 2.14015e-07 0)
(-0.956392 2.0118e-07 0)
(-0.955826 1.88539e-07 0)
(-0.955202 1.7616e-07 0)
(-0.954517 1.64101e-07 0)
(-0.953774 1.52417e-07 0)
(-0.952973 1.4115e-07 0)
(-0.952113 1.30338e-07 0)
(-0.951194 1.20008e-07 0)
(-0.950217 1.1018e-07 0)
(-0.949181 1.00866e-07 0)
(-0.948087 9.20702e-08 0)
(-0.946934 8.37907e-08 0)
(-0.945722 7.60201e-08 0)
(-0.944451 6.87467e-08 0)
(-0.943121 6.19561e-08 0)
(-0.941733 5.5634e-08 0)
(-0.940285 4.97641e-08 0)
(-0.938779 4.43293e-08 0)
(-0.937213 3.9313e-08 0)
(-0.935589 3.46988e-08 0)
(-0.933906 3.04696e-08 0)
(-0.932165 2.66072e-08 0)
(-0.930367 2.30887e-08 0)
(-0.928511 1.98835e-08 0)
(-0.926598 1.6949e-08 0)
(-0.924629 1.42323e-08 0)
(-0.922606 1.16924e-08 0)
(-0.920528 9.35514e-09 0)
(-0.918397 7.35756e-09 0)
(-0.916214 5.87048e-09 0)
(-0.913982 4.89317e-09 0)
(-0.911702 4.20227e-09 0)
(-0.909375 3.60757e-09 0)
(-0.907005 3.04012e-09 0)
(-0.904593 2.49728e-09 0)
(-0.902144 2.01617e-09 0)
(-0.899659 1.60221e-09 0)
(-0.897144 1.25112e-09 0)
(-0.894602 9.58e-10 0)
(-0.892038 7.17815e-10 0)
(-0.889457 5.24964e-10 0)
(-0.886865 3.73456e-10 0)
(-0.88427 2.57243e-10 0)
(-0.881679 1.70441e-10 0)
(-0.879099 1.07544e-10 0)
(-0.876541 6.29538e-11 0)
(-0.874015 3.28867e-11 0)
(-0.871532 1.82525e-11 0)
(-0.869105 1.44133e-11 0)
(-0.866749 6.69542e-12 0)
(-0.864479 -7.59437e-13 0)
(-0.86231 -4.25677e-13 0)
(-0.860262 1.42389e-13 0)
(-0.858352 1.63903e-13 0)
(-0.8566 7.34277e-14 0)
(-0.855024 2.22725e-14 0)
(-0.853641 -9.63408e-15 0)
(-0.852468 -3.68124e-14 0)
(-0.851514 -6.22375e-14 0)
(-0.850788 -8.63241e-14 0)
(-0.85029 -1.18786e-13 0)
(-0.850015 -1.57589e-13 0)
(-0.849953 -1.99646e-13 0)
(-0.850087 -2.43331e-13 0)
(-0.850397 -2.72196e-13 0)
(-0.85086 -1.76544e-13 0)
(-0.851451 7.05132e-14 0)
(-0.852143 -4.47796e-12 0)
(-0.85291 1.31869e-11 0)
(-0.853723 -3.07544e-11 0)
(-0.854551 5.52644e-11 0)
(-0.855361 -9.02145e-11 0)
(-0.856116 1.31922e-10 0)
(-0.856768 -1.82416e-10 0)
(-0.85717 2.36411e-10 0)
(-0.857244 -2.95117e-10 0)
(-0.857247 3.53974e-10 0)
(-0.857247 -4.15632e-10 0)
(-0.857247 4.76953e-10 0)
(-0.857247 -5.41111e-10 0)
(-0.857247 6.05055e-10 0)
(-0.857247 -6.71848e-10 0)
(-0.857247 7.38593e-10 0)
(-0.857247 -8.0813e-10 0)
(-0.857247 8.77864e-10 0)
(-0.857247 -9.50241e-10 0)
(-0.857247 1.02303e-09 0)
(-0.857247 -1.09833e-09 0)
(-0.857247 1.17428e-09 0)
(-0.857247 -1.25252e-09 0)
(-0.857247 1.33169e-09 0)
(-0.857247 -1.41288e-09 0)
(-0.857247 1.49529e-09 0)
(-0.857247 -1.57948e-09 0)
(-0.857247 1.665e-09 0)
(-0.857247 -1.75222e-09 0)
(-0.857247 1.84083e-09 0)
(-0.857247 -1.93099e-09 0)
(-0.857247 2.02256e-09 0)
(-0.857247 -2.11559e-09 0)
(-0.857247 2.21001e-09 0)
(-0.857247 -2.30577e-09 0)
(-0.857247 2.40289e-09 0)
(-0.857247 -2.50119e-09 0)
(-0.857247 2.60077e-09 0)
(-0.857247 -2.70139e-09 0)
(-0.857247 2.46216e-09 0)
(-0.857247 -2.50797e-09 0)
(-0.857247 2.55338e-09 0)
(-0.857247 -2.59808e-09 0)
(-0.857247 2.6424e-09 0)
(-0.857247 -2.68598e-09 0)
(-0.857247 2.72919e-09 0)
(-0.857247 -2.77163e-09 0)
(-0.857247 2.81373e-09 0)
(-0.857247 -2.85502e-09 0)
(-0.857247 2.89598e-09 0)
(-0.857247 -2.93609e-09 0)
(-0.857247 2.97591e-09 0)
(-0.857247 -3.01483e-09 0)
(-0.857247 3.05347e-09 0)
(-0.857247 -3.09117e-09 0)
(-0.857247 3.12864e-09 0)
(-0.857247 -3.16509e-09 0)
(-0.857247 3.2014e-09 0)
(-0.857247 -3.23642e-09 0)
(-0.857247 3.27175e-09 0)
(-0.857247 -3.30518e-09 0)
(-0.857247 3.33954e-09 0)
(-0.857247 -3.37133e-09 0)
(-0.857247 3.4047e-09 0)
(-0.857247 -3.43481e-09 0)
(-0.857247 3.46713e-09 0)
(-0.857247 -3.49549e-09 0)
(-0.857247 3.52675e-09 0)
(-0.857247 -3.55331e-09 0)
(-0.857247 3.58342e-09 0)
(-0.857247 -3.60814e-09 0)
(-0.857247 3.63701e-09 0)
(-0.857247 -3.65989e-09 0)
(-0.857247 3.68737e-09 0)
(-0.857247 -3.70811e-09 0)
(-0.857247 3.73452e-09 0)
(-0.857247 -3.75288e-09 0)
(-0.857247 3.77785e-09 0)
(-0.857247 -3.79386e-09 0)
(-0.857247 3.8171e-09 0)
(-0.857247 -3.83089e-09 0)
(-0.857247 3.85178e-09 0)
(-0.857247 -3.86294e-09 0)
(-0.857247 3.88159e-09 0)
(-0.857247 -3.88977e-09 0)
(-0.857247 3.90491e-09 0)
(-0.857247 -3.90964e-09 0)
(-0.857247 3.92032e-09 0)
(-0.857247 -3.919e-09 0)
)
;

boundaryField
{
    inandouthalf11
    {
        type            cyclic;
    }
    inandouthalf12
    {
        type            cyclic;
    }
    inandouthalf21
    {
        type            cyclic;
    }
    inandouthalf22
    {
        type            cyclic;
    }
    inandouthalf31
    {
        type            cyclic;
    }
    inandouthalf32
    {
        type            cyclic;
    }
    inandouthalf41
    {
        type            cyclic;
    }
    inandouthalf42
    {
        type            cyclic;
    }
    top
    {
        type            symmetryPlane;
    }
    walls
    {
        type            fixedValue;
        value           uniform (0 0 0);
    }
    frontAndBackPlanes
    {
        type            empty;
    }
}


// ************************************************************************* //
