/*--------------------------------*- C++ -*----------------------------------*\
| =========                 |                                                 |
| \\      /  F ield         | OpenFOAM: The Open Source CFD Toolbox           |
|  \\    /   O peration     | Version:  2.4.x                                 |
|   \\  /    A nd           | Web:      www.OpenFOAM.org                      |
|    \\/     M anipulation  |                                                 |
\*---------------------------------------------------------------------------*/
FoamFile
{
    version     2.0;
    format      ascii;
    class       volVectorField;
    location    "12";
    object      Ur;
}
// * * * * * * * * * * * * * * * * * * * * * * * * * * * * * * * * * * * * * //

dimensions      [0 1 -1 0 0 0 0];

internalField   nonuniform List<vector> 
360
(
(-2.88519e-05 1.26113e-09 0)
(-2.86904e-05 7.44635e-09 0)
(-2.86688e-05 1.35697e-08 0)
(-2.86905e-05 1.92879e-08 0)
(-2.87007e-05 2.52392e-08 0)
(-2.87039e-05 3.15324e-08 0)
(-2.8708e-05 3.80596e-08 0)
(-2.87133e-05 4.47768e-08 0)
(-2.87188e-05 5.16926e-08 0)
(-2.87243e-05 5.88218e-08 0)
(-2.87298e-05 6.61709e-08 0)
(-2.87354e-05 7.37354e-08 0)
(-2.8741e-05 8.15038e-08 0)
(-2.87467e-05 8.94613e-08 0)
(-2.87524e-05 9.75911e-08 0)
(-2.87582e-05 1.05876e-07 0)
(-2.8764e-05 1.14297e-07 0)
(-2.87699e-05 1.22833e-07 0)
(-2.87759e-05 1.31463e-07 0)
(-2.87819e-05 1.40166e-07 0)
(-2.8788e-05 1.48917e-07 0)
(-2.87941e-05 1.57697e-07 0)
(-2.88004e-05 1.66486e-07 0)
(-2.88066e-05 1.75263e-07 0)
(-2.8813e-05 1.8401e-07 0)
(-2.88194e-05 1.9271e-07 0)
(-2.88258e-05 2.01347e-07 0)
(-2.88324e-05 2.09908e-07 0)
(-2.8839e-05 2.18381e-07 0)
(-2.88457e-05 2.26753e-07 0)
(-2.88524e-05 2.35016e-07 0)
(-2.88593e-05 2.43163e-07 0)
(-2.88661e-05 2.51186e-07 0)
(-2.88732e-05 2.59081e-07 0)
(-2.88802e-05 2.66846e-07 0)
(-2.88873e-05 2.74477e-07 0)
(-2.88945e-05 2.81973e-07 0)
(-2.89018e-05 2.89334e-07 0)
(-2.89092e-05 2.96562e-07 0)
(-2.89166e-05 3.03656e-07 0)
(-2.89242e-05 3.10619e-07 0)
(-2.89318e-05 3.17456e-07 0)
(-2.89395e-05 3.24167e-07 0)
(-2.89474e-05 3.30757e-07 0)
(-2.89552e-05 3.3723e-07 0)
(-2.89632e-05 3.43591e-07 0)
(-2.89713e-05 3.49843e-07 0)
(-2.89794e-05 3.55989e-07 0)
(-2.89877e-05 3.62035e-07 0)
(-2.89962e-05 3.67986e-07 0)
(-2.90046e-05 3.73846e-07 0)
(-2.90132e-05 3.79619e-07 0)
(-2.90218e-05 3.85309e-07 0)
(-2.90307e-05 3.90922e-07 0)
(-2.90395e-05 3.96458e-07 0)
(-2.90486e-05 4.01926e-07 0)
(-2.90577e-05 4.07326e-07 0)
(-2.9067e-05 4.12663e-07 0)
(-2.90763e-05 4.1794e-07 0)
(-2.90857e-05 4.23158e-07 0)
(-2.90954e-05 4.28323e-07 0)
(-2.91051e-05 4.33435e-07 0)
(-2.9115e-05 4.38501e-07 0)
(-2.9125e-05 4.4352e-07 0)
(-2.91352e-05 4.48496e-07 0)
(-2.91454e-05 4.53429e-07 0)
(-2.91559e-05 4.58323e-07 0)
(-2.91665e-05 4.63178e-07 0)
(-2.91772e-05 4.67996e-07 0)
(-2.9188e-05 4.72777e-07 0)
(-2.91991e-05 4.77523e-07 0)
(-2.92103e-05 4.82237e-07 0)
(-2.92216e-05 4.86917e-07 0)
(-2.92331e-05 4.91566e-07 0)
(-2.92448e-05 4.96183e-07 0)
(-2.92567e-05 5.00772e-07 0)
(-2.92688e-05 5.0533e-07 0)
(-2.9281e-05 5.09858e-07 0)
(-2.92935e-05 5.14355e-07 0)
(-2.93061e-05 5.18822e-07 0)
(-2.9319e-05 5.23257e-07 0)
(-2.9332e-05 5.27661e-07 0)
(-2.93453e-05 5.32034e-07 0)
(-2.93588e-05 5.36377e-07 0)
(-2.93725e-05 5.40688e-07 0)
(-2.93865e-05 5.44967e-07 0)
(-2.94007e-05 5.49215e-07 0)
(-2.94152e-05 5.53429e-07 0)
(-2.94299e-05 5.57608e-07 0)
(-2.94449e-05 5.61752e-07 0)
(-2.94601e-05 5.65859e-07 0)
(-2.94757e-05 5.69929e-07 0)
(-2.94915e-05 5.73959e-07 0)
(-2.95077e-05 5.77951e-07 0)
(-2.95242e-05 5.81903e-07 0)
(-2.9541e-05 5.85815e-07 0)
(-2.95581e-05 5.89686e-07 0)
(-2.95756e-05 5.93515e-07 0)
(-2.95935e-05 5.97302e-07 0)
(-2.96118e-05 6.01044e-07 0)
(-2.96304e-05 6.04742e-07 0)
(-2.96494e-05 6.08394e-07 0)
(-2.96689e-05 6.12001e-07 0)
(-2.96888e-05 6.15562e-07 0)
(-2.97092e-05 6.19077e-07 0)
(-2.97301e-05 6.22546e-07 0)
(-2.97514e-05 6.25969e-07 0)
(-2.97733e-05 6.29347e-07 0)
(-2.97957e-05 6.32681e-07 0)
(-2.98187e-05 6.3597e-07 0)
(-2.98422e-05 6.39216e-07 0)
(-2.98664e-05 6.4242e-07 0)
(-2.98912e-05 6.45581e-07 0)
(-2.99167e-05 6.487e-07 0)
(-2.99428e-05 6.51778e-07 0)
(-2.99697e-05 6.54813e-07 0)
(-2.99974e-05 6.57804e-07 0)
(-3.00259e-05 6.6075e-07 0)
(-3.00552e-05 6.63647e-07 0)
(-3.00855e-05 6.66491e-07 0)
(-3.01167e-05 6.69278e-07 0)
(-3.01489e-05 6.72003e-07 0)
(-3.01821e-05 6.74662e-07 0)
(-3.02165e-05 6.77251e-07 0)
(-3.02521e-05 6.79768e-07 0)
(-3.02889e-05 6.82213e-07 0)
(-3.03271e-05 6.84591e-07 0)
(-3.03667e-05 6.86914e-07 0)
(-3.04079e-05 6.89196e-07 0)
(-3.04507e-05 6.91455e-07 0)
(-3.04954e-05 6.93711e-07 0)
(-3.05419e-05 6.95975e-07 0)
(-3.05905e-05 6.98244e-07 0)
(-3.06419e-05 7.00494e-07 0)
(-3.06967e-05 7.02659e-07 0)
(-3.07552e-05 7.0461e-07 0)
(-3.08171e-05 7.06163e-07 0)
(-3.08835e-05 7.07149e-07 0)
(-3.09571e-05 7.07519e-07 0)
(-3.10412e-05 7.07402e-07 0)
(-3.11321e-05 7.06917e-07 0)
(-3.12401e-05 7.03144e-07 0)
(-3.19856e-05 7.05774e-07 0)
(-3.18747e-05 7.01295e-07 0)
(-3.20117e-05 7.01288e-07 0)
(-3.23596e-05 6.96492e-07 0)
(-0.00014761 6.84706e-07 0)
(-0.00377416 2.66922e-06 0)
(-0.0100905 -2.57671e-06 0)
(-0.00852628 -1.42032e-05 0)
(-0.0072698 -2.12073e-05 0)
(-0.00612313 -3.02009e-05 0)
(-0.00527038 -4.78229e-05 0)
(-0.00465799 -7.92435e-05 0)
(-0.00424004 -0.000128962 0)
(-0.00398992 -0.00020055 0)
(-0.00389178 -0.000296515 0)
(-0.00393555 -0.000418269 0)
(-0.00411512 -0.000566215 0)
(-0.00442792 -0.00073987 0)
(-0.0048749 -0.00093795 0)
(-0.00546018 -0.00115846 0)
(-0.00619037 -0.00139874 0)
(-0.00707369 -0.00165545 0)
(-0.00811877 -0.00192457 0)
(-0.00933349 -0.00220138 0)
(-0.0107235 -0.00248038 0)
(-0.012291 -0.00275513 0)
(-0.0140332 -0.00301823 0)
(-0.0159413 -0.00326097 0)
(-0.0179988 -0.00347238 0)
(-0.020181 -0.00363687 0)
(-0.0224538 -0.0037318 0)
(-0.0247728 -0.00372903 0)
(-0.0270835 -0.00360429 0)
(-0.0293253 -0.00335023 0)
(-0.0314373 -0.00298225 0)
(-0.0333659 -0.0025317 0)
(-0.0350702 -0.00203356 0)
(-0.0365236 -0.00151756 0)
(-0.0377144 -0.00100517 0)
(-0.038643 -0.000510355 0)
(-0.0393207 -4.14046e-05 0)
(-0.0397658 0.000397314 0)
(-0.040002 0.000804 0)
(-0.0400552 0.00117847 0)
(-0.0399516 0.00152156 0)
(-0.0397166 0.00183466 0)
(-0.0393731 0.00211948 0)
(-0.0389415 0.00237789 0)
(-0.0384391 0.00261178 0)
(-0.0378805 0.00282302 0)
(-0.0372778 0.0030134 0)
(-0.0366404 0.00318463 0)
(-0.0359759 0.00333831 0)
(-0.0352904 0.00347595 0)
(-0.0345882 0.00359896 0)
(-0.0338727 0.00370864 0)
(-0.0331464 0.00380622 0)
(-0.0324109 0.00389284 0)
(-0.0316674 0.00396954 0)
(-0.0309089 0.004038 0)
(-0.0301277 0.00409946 0)
(-0.0293232 0.00415442 0)
(-0.0284946 0.0042034 0)
(-0.0276408 0.00424692 0)
(-0.0267607 0.00428551 0)
(-0.0258528 0.0043197 0)
(-0.0249157 0.00434999 0)
(-0.0239478 0.00437682 0)
(-0.0229474 0.00440063 0)
(-0.0219129 0.00442178 0)
(-0.0208424 0.00444057 0)
(-0.0197343 0.00445723 0)
(-0.0185868 0.00447195 0)
(-0.0173984 0.00448482 0)
(-0.0161673 0.00449589 0)
(-0.0148921 0.00450516 0)
(-0.0135709 0.00451231 0)
(-0.0122029 0.00451754 0)
(-0.0107868 0.00452046 0)
(-0.00932129 0.00452072 0)
(-0.00780552 0.00451783 0)
(-0.00623863 0.00451114 0)
(-0.00461993 0.00449977 0)
(-0.0029489 0.00448261 0)
(-0.00122518 0.00445836 0)
(0.00055139 0.00442579 0)
(0.00238076 0.00438419 0)
(0.00426263 0.00433418 0)
(0.00619627 0.00427873 0)
(0.00818028 0.00422464 0)
(0.0102128 0.00418275 0)
(0.0122937 0.00416202 0)
(0.0144269 0.00415715 0)
(0.0166201 0.00415246 0)
(0.018838 0.00414188 0)
(-0.00107339 0.00423211 0)
(-0.00104159 0.00424581 0)
(-0.0010555 0.00426904 0)
(-0.00106804 0.00425238 0)
(-0.00108013 0.00419762 0)
(-0.00109175 0.00410583 0)
(-0.00110289 0.00397899 0)
(-0.00111351 0.00382241 0)
(-0.0011247 0.00359261 0)
(-0.00112861 0.00360529 0)
(-0.00116735 0.00268564 0)
(-0.00114024 0.00397766 0)
(-0.00120586 0.000841644 0)
(-0.00108601 0.0053446 0)
(-0.00116027 -0.00222557 0)
(-0.00124061 0.011786 0)
(-0.00108394 0.0355324 0)
(-0.000963366 0.0397255 0)
(-0.0010619 0.0396176 0)
(-0.00101785 0.0396224 0)
(-0.000982709 0.0396192 0)
(-0.000943159 0.0396158 0)
(-0.000900681 0.0396119 0)
(-0.000855712 0.0396074 0)
(-0.000809046 0.0396026 0)
(-0.000761918 0.0395976 0)
(-0.000718323 0.0395925 0)
(-0.000676276 0.0395875 0)
(-0.000616865 0.0395832 0)
(-0.000587139 0.0395792 0)
(-0.000553826 0.0395754 0)
(-0.000524528 0.0395725 0)
(-0.000500378 0.0395701 0)
(-0.000481393 0.0395682 0)
(-0.000467513 0.0395667 0)
(-0.000458647 0.0395655 0)
(-0.000454717 0.0395645 0)
(-0.000455729 0.0395634 0)
(-0.000461893 0.0395623 0)
(-0.000473569 0.0395607 0)
(-0.00048681 0.0395575 0)
(-0.000547053 0.0395527 0)
(-0.000561788 0.0395497 0)
(-0.000562319 0.0395491 0)
(-0.000562327 0.0395491 0)
(-0.000562327 0.0395491 0)
(-0.000562327 0.0395491 0)
(-0.000562327 0.0395491 0)
(-0.000562327 0.0395491 0)
(-0.000562327 0.0395491 0)
(-0.000562327 0.0395491 0)
(-0.000562327 0.0395491 0)
(-0.000562327 0.0395491 0)
(-0.000562327 0.0395491 0)
(-0.000562327 0.0395491 0)
(-0.000562327 0.0395491 0)
(-0.000562327 0.0395491 0)
(-0.000562327 0.0395491 0)
(-0.000562327 0.0395491 0)
(-0.000562327 0.0395491 0)
(-0.000562327 0.0395491 0)
(-0.000562327 0.0395491 0)
(-0.000562327 0.0395491 0)
(-0.000562327 0.0395491 0)
(-0.000562327 0.0395491 0)
(-0.000562327 0.0395491 0)
(-0.000562327 0.0395491 0)
(-0.000562327 0.0395491 0)
(-0.000562327 0.0395491 0)
(-0.000562327 0.0395491 0)
(-0.000562327 0.0395491 0)
(-0.000562327 0.0395491 0)
(-0.000562327 0.0395491 0)
(-0.000562327 0.0395491 0)
(-0.000562327 0.0395491 0)
(-0.000562327 0.0395491 0)
(-0.000562327 0.0395491 0)
(-0.000562327 0.0395491 0)
(-0.000562327 0.0395491 0)
(-0.000562327 0.0395491 0)
(-0.000562327 0.0395491 0)
(-0.000562327 0.0395491 0)
(-0.000562327 0.0395491 0)
(-0.000562327 0.0395491 0)
(-0.000562327 0.0395491 0)
(-0.000562327 0.0395491 0)
(-0.000562327 0.0395491 0)
(-0.000562327 0.0395491 0)
(-0.000562327 0.0395491 0)
(-0.000562327 0.0395491 0)
(-0.000562327 0.0395491 0)
(-0.000562327 0.0395491 0)
(-0.000562327 0.0395491 0)
(-0.000562327 0.0395491 0)
(-0.000562327 0.0395491 0)
(-0.000562327 0.0395491 0)
(-0.000562327 0.0395491 0)
(-0.000562327 0.0395491 0)
(-0.000562327 0.0395491 0)
(-0.000562327 0.0395491 0)
(-0.000562327 0.0395491 0)
(-0.000562327 0.0395491 0)
(-0.000562327 0.0395491 0)
(-0.000562327 0.0395491 0)
(-0.000562327 0.0395491 0)
(-0.000562327 0.0395491 0)
(-0.000562327 0.0395491 0)
(-0.000562327 0.0395491 0)
(-0.000562327 0.0395491 0)
(-0.000562327 0.0395491 0)
(-0.000562327 0.0395491 0)
(-0.000562327 0.0395491 0)
(-0.000562327 0.0395491 0)
(-0.000562327 0.0395491 0)
(-0.000562327 0.0395491 0)
(-0.000562327 0.0395491 0)
(-0.000562327 0.0395491 0)
(-0.000562327 0.0395491 0)
(-0.000562327 0.0395491 0)
(-0.000562333 0.0395489 0)
(-0.000562504 0.0395405 0)
(-0.000566594 0.0391958 0)
(-0.000660182 0.0224983 0)
)
;

boundaryField
{
    inandouthalf11
    {
        type            cyclic;
    }
    inandouthalf12
    {
        type            cyclic;
    }
    inandouthalf21
    {
        type            cyclic;
    }
    inandouthalf22
    {
        type            cyclic;
    }
    inandouthalf31
    {
        type            cyclic;
    }
    inandouthalf32
    {
        type            cyclic;
    }
    inandouthalf41
    {
        type            cyclic;
    }
    inandouthalf42
    {
        type            cyclic;
    }
    top
    {
        type            symmetryPlane;
    }
    walls
    {
        type            calculated;
        value           uniform (0 0 0);
    }
    frontAndBackPlanes
    {
        type            empty;
    }
}


// ************************************************************************* //
