/*--------------------------------*- C++ -*----------------------------------*\
| =========                 |                                                 |
| \\      /  F ield         | OpenFOAM: The Open Source CFD Toolbox           |
|  \\    /   O peration     | Version:  2.4.x                                 |
|   \\  /    A nd           | Web:      www.OpenFOAM.org                      |
|    \\/     M anipulation  |                                                 |
\*---------------------------------------------------------------------------*/
FoamFile
{
    version     2.0;
    format      ascii;
    class       volScalarField;
    location    "1.05";
    object      alpha_0;
}
// * * * * * * * * * * * * * * * * * * * * * * * * * * * * * * * * * * * * * //

dimensions      [0 0 0 0 0 0 0];

internalField   nonuniform List<scalar> 
360
(
0.609996
0.609996
0.609995
0.609995
0.609995
0.609994
0.609994
0.609993
0.609993
0.609992
0.609991
0.609991
0.60999
0.609989
0.609988
0.609987
0.609986
0.609985
0.609984
0.609982
0.609981
0.609979
0.609977
0.609975
0.609973
0.609971
0.609969
0.609966
0.609963
0.60996
0.609957
0.609953
0.60995
0.609945
0.609941
0.609936
0.609931
0.609925
0.609918
0.609912
0.609904
0.609896
0.609888
0.609878
0.609868
0.609857
0.609845
0.609833
0.609819
0.609803
0.609787
0.609769
0.60975
0.609729
0.609707
0.609682
0.609656
0.609627
0.609596
0.609563
0.609526
0.609487
0.609444
0.609398
0.609348
0.609294
0.609235
0.609171
0.609102
0.609028
0.608947
0.608859
0.608765
0.608662
0.608551
0.60843
0.6083
0.608159
0.608006
0.60784
0.607665
0.60752
0.607483
0.607538
0.60758
0.607561
0.607494
0.607404
0.607307
0.607214
0.607129
0.607049
0.606972
0.606891
0.606807
0.606718
0.606626
0.606531
0.606436
0.606338
0.606239
0.606137
0.606032
0.605924
0.605813
0.605699
0.605582
0.605461
0.605337
0.605209
0.605077
0.604941
0.6048
0.604655
0.604505
0.60435
0.60419
0.604025
0.603854
0.603675
0.603488
0.603291
0.603084
0.602874
0.602673
0.602493
0.602339
0.602199
0.602046
0.60183
0.601491
0.601027
0.600462
0.599608
0.598153
0.59641
0.594418
0.591462
0.5846
0.562788
0.552155
0.542532
0.520946
0.504519
0.496851
0.492061
0.484654
0.480732
0.473265
0.467892
0.460313
0.455925
0.475606
0.103804
0.00401916
0.00185295
0.00131158
0.00106318
0.000853121
0.00075276
0.000645631
0.000556482
0.000508346
0.000435587
0.000399872
0.000349668
0.000325075
0.000281731
0.00025966
0.000236668
0.000209774
0.000196248
0.000173171
0.000162058
0.000143925
0.000135358
0.00012006
0.00011233
0.000100261
9.47655e-05
8.47807e-05
7.76192e-05
7.25517e-05
6.50474e-05
6.12694e-05
5.45999e-05
5.14875e-05
4.63055e-05
4.3754e-05
3.89325e-05
3.66432e-05
3.32436e-05
3.12679e-05
2.77026e-05
2.6175e-05
2.43854e-05
2.16716e-05
2.03707e-05
1.89223e-05
1.69012e-05
1.6017e-05
1.48086e-05
1.3176e-05
1.23545e-05
1.12142e-05
1.05728e-05
9.2257e-06
8.47364e-06
7.99831e-06
7.06253e-06
6.25718e-06
5.88159e-06
5.301e-06
4.60679e-06
4.28412e-06
3.81852e-06
3.3386e-06
3.09111e-06
2.66853e-06
2.45969e-06
2.09001e-06
1.91324e-06
1.63368e-06
1.50239e-06
1.26824e-06
1.14646e-06
9.51297e-07
8.67698e-07
7.43895e-07
6.71592e-07
5.33594e-07
4.73743e-07
4.28591e-07
3.49233e-07
2.94131e-07
2.64895e-07
2.14333e-07
1.80665e-07
1.59904e-07
1.25777e-07
1.09778e-07
8.78316e-08
7.77583e-08
6.00425e-08
5.0855e-08
4.30487e-08
3.26875e-08
2.8082e-08
2.2077e-08
1.91956e-08
1.40037e-08
1.1481e-08
9.535e-09
8.03638e-09
5.55325e-09
4.45148e-09
3.26122e-09
2.70218e-09
1.95805e-09
1.6248e-09
1.15308e-09
9.29612e-10
6.53909e-10
5.40703e-10
3.81729e-10
2.75443e-10
2.19317e-10
1.49266e-10
1.18038e-10
7.91454e-11
6.17248e-11
4.06716e-11
3.13726e-11
2.02839e-11
1.52953e-11
9.78384e-12
7.49011e-12
4.63494e-12
3.22252e-12
2.33973e-12
1.43681e-12
1.03905e-12
6.21956e-13
4.41775e-13
2.62963e-13
1.8268e-13
1.02586e-13
7.08919e-14
4.3185e-14
2.50069e-14
1.71318e-14
9.66764e-15
5.65452e-15
3.6331e-15
1.95568e-15
1.21776e-15
6.33413e-16
3.80233e-16
2.01235e-16
1.20914e-16
6.31685e-17
3.68017e-17
1.68394e-17
7.36375e-18
2.18627e-18
6.27628e-19
1.55183e-19
3.09982e-20
4.62475e-21
4.3806e-22
2.54994e-23
1.48211e-24
4.20977e-26
2.46805e-37
7.3839e-49
1.61738e-60
2.69943e-72
3.92853e-84
1.39805e-94
9.9507e-106
4.71086e-113
4.30937e-124
1.61936e-131
1.49389e-142
5.56982e-150
6.14232e-161
1.91504e-168
2.72689e-179
6.58639e-187
2.10445e-197
2.27045e-205
1.4901e-215
7.8512e-224
7.77069e-234
2.72427e-242
3.64863e-252
9.48617e-261
1.60204e-270
3.31794e-279
6.7356e-289
1.16355e-297
2.70683e-307
4.09152e-316
6.11159e-321
0
0
0
0
0
0
0
0
0
0
0
0
0
0
0
0
)
;

boundaryField
{
    inandouthalf11
    {
        type            cyclic;
    }
    inandouthalf12
    {
        type            cyclic;
    }
    inandouthalf21
    {
        type            cyclic;
    }
    inandouthalf22
    {
        type            cyclic;
    }
    inandouthalf31
    {
        type            cyclic;
    }
    inandouthalf32
    {
        type            cyclic;
    }
    inandouthalf41
    {
        type            cyclic;
    }
    inandouthalf42
    {
        type            cyclic;
    }
    top
    {
        type            symmetryPlane;
    }
    walls
    {
        type            zeroGradient;
    }
    frontAndBackPlanes
    {
        type            empty;
    }
}


// ************************************************************************* //
