/*--------------------------------*- C++ -*----------------------------------*\
| =========                 |                                                 |
| \\      /  F ield         | OpenFOAM: The Open Source CFD Toolbox           |
|  \\    /   O peration     | Version:  2.4.x                                 |
|   \\  /    A nd           | Web:      www.OpenFOAM.org                      |
|    \\/     M anipulation  |                                                 |
\*---------------------------------------------------------------------------*/
FoamFile
{
    version     2.0;
    format      ascii;
    class       volVectorField;
    location    "1.05";
    object      gradPs;
}
// * * * * * * * * * * * * * * * * * * * * * * * * * * * * * * * * * * * * * //

dimensions      [0 1 -2 0 0 0 0];

internalField   nonuniform List<vector> 
360
(
(0 9.16166e-26 0)
(0 -1.76833e-21 0)
(0 -1.76843e-21 0)
(0 4.25254e-29 0)
(-1.45436e-32 -1.76841e-21 0)
(-2.90872e-32 -1.76841e-21 0)
(-1.45436e-32 -1.76839e-21 0)
(0 -1.76839e-21 0)
(-1.45436e-32 -1.76837e-21 0)
(0 -3.53673e-21 0)
(-2.90873e-32 -1.76836e-21 0)
(0 -1.76834e-21 0)
(-2.90874e-32 -3.53666e-21 0)
(0 -3.53663e-21 0)
(0 -3.53659e-21 0)
(0 -3.53656e-21 0)
(0 -3.53652e-21 0)
(-1.45438e-32 -3.53649e-21 0)
(0 -5.30465e-21 0)
(0 -5.3046e-21 0)
(0 -5.30449e-21 0)
(-1.4544e-32 -7.07256e-21 0)
(0 -7.07242e-21 0)
(0 -7.07228e-21 0)
(0 -7.07214e-21 0)
(-1.45442e-32 -7.072e-21 0)
(0 -8.83977e-21 0)
(0 -1.06075e-20 0)
(0 -1.06072e-20 0)
(0 -1.06068e-20 0)
(0 -1.23742e-20 0)
(0 -1.23739e-20 0)
(0 -1.41409e-20 0)
(0 -1.5908e-20 0)
(0 -1.59072e-20 0)
(1.4545e-32 -1.76739e-20 0)
(0 -1.94402e-20 0)
(0 -2.29734e-20 0)
(0 -2.29721e-20 0)
(0 -2.47373e-20 0)
(0 -2.82692e-20 0)
(0 -2.8267e-20 0)
(1.45461e-32 -3.17975e-20 0)
(0 -3.53275e-20 0)
(0 -3.709e-20 0)
(0 -4.06179e-20 0)
(0 -4.23791e-20 0)
(0 -4.59048e-20 0)
(0 -5.29597e-20 0)
(0 -5.64821e-20 0)
(2.90971e-32 -6.0002e-20 0)
(0 -6.52851e-20 0)
(0 -7.05648e-20 0)
(0 -7.58418e-20 0)
(0 -8.28779e-20 0)
(0 -8.99102e-20 0)
(0 -9.69359e-20 0)
(0 -1.05719e-19 0)
(0 -1.12732e-19 0)
(0 -1.23259e-19 0)
(0 -1.33777e-19 0)
(0 -1.44281e-19 0)
(0 -1.56532e-19 0)
(0 -1.68766e-19 0)
(0 -1.82739e-19 0)
(0 -1.98446e-19 0)
(0 -2.15882e-19 0)
(0 -2.33286e-19 0)
(0 -2.50655e-19 0)
(0 -2.71488e-19 0)
(0 -2.95773e-19 0)
(0 -3.18251e-19 0)
(0 -3.44155e-19 0)
(0 -3.73476e-19 0)
(0 -4.04443e-19 0)
(0 -4.37047e-19 0)
(0 -4.71262e-19 0)
(0 -5.10547e-19 0)
(0 -5.53124e-19 0)
(0 -4.87816e-20 0)
(0 1.66429e-17 0)
(0 8.11205e-17 0)
(0 8.02152e-17 0)
(0 -3.35094e-17 0)
(0 -7.55444e-17 0)
(0 -3.49101e-17 0)
(0 -9.86753e-18 0)
(0 3.45713e-19 0)
(0 5.90328e-18 0)
(0 9.17206e-18 0)
(0 9.78503e-18 0)
(0 7.96453e-18 0)
(0 5.33152e-18 0)
(0 3.49036e-18 0)
(0 2.8545e-18 0)
(0 2.94792e-18 0)
(0 3.19793e-18 0)
(0 3.35568e-18 0)
(0 3.49282e-18 0)
(0 -2.15596e-16 0)
(0 -2.17421e-16 0)
(0 0 0)
(0 0 0)
(0 0 0)
(0 0 0)
(0 0 0)
(0 0 0)
(0 0 0)
(0 0 0)
(0 0 0)
(0 0 0)
(0 0 0)
(0 0 0)
(0 0 0)
(0 3.6705e-16 0)
(0 3.94302e-16 0)
(0 6.14668e-17 0)
(0 8.07113e-17 0)
(0 1.13389e-16 0)
(0 1.66164e-16 0)
(0 2.38582e-16 0)
(0 3.03021e-16 0)
(0 2.92557e-16 0)
(0 1.71393e-16 0)
(0 7.37112e-17 0)
(0 3.7831e-16 0)
(0 3.02018e-15 0)
(0 6.06494e-14 0)
(0 7.0026e-11 0)
(0 6.4196e-07 0)
(0 0.000653825 0)
(0 0.0611561 0)
(0 0.839966 0)
(0 2.60566 0)
(0 2.9372 0)
(0 1.34794 0)
(0 0.13406 0)
(0 -0.49966 0)
(0 -1.63433 0)
(0 -2.32014 0)
(0 -1.91068 0)
(0 -1.38796 0)
(0 -0.631657 0)
(0 -0.0960812 0)
(0 -0.00330068 0)
(0 -3.07234e-05 0)
(0 2.76696e-05 0)
(0 6.56957e-05 0)
(0 0.000329641 0)
(0 0.00305747 0)
(0 0.0179959 0)
(0 0.131907 0)
(0 0.0423153 0)
(0 -0.557533 0)
(0 -6.4613 0)
(0 -0.965145 0)
(0 -0.545644 0)
(0 -0.554766 0)
(0 -0.578756 0)
(0 -0.508778 0)
(0 -0.609326 0)
(0 -0.531094 0)
(0 -0.518307 0)
(0 -0.540839 0)
(0 -0.467608 0)
(0 -0.459295 0)
(0 -0.428326 0)
(0 -0.450813 0)
(0 -0.347814 0)
(0 -0.379725 0)
(0 -0.34285 0)
(0 -0.314071 0)
(0 -0.315677 0)
(0 -0.277328 0)
(0 -0.272528 0)
(0 -0.246082 0)
(0 -0.251671 0)
(0 -0.222036 0)
(0 -0.212664 0)
(0 -0.189954 0)
(0 -0.212995 0)
(0 -0.168137 0)
(0 -0.170676 0)
(0 -0.163827 0)
(0 -0.152507 0)
(0 -0.152084 0)
(0 -0.13247 0)
(0 -0.130755 0)
(0 -0.124597 0)
(0 -0.12723 0)
(0 -0.106062 0)
(0 -0.105009 0)
(0 -0.107326 0)
(0 -0.105384 0)
(0 -0.0745314 0)
(0 -0.0966439 0)
(0 -0.0917835 0)
(0 -0.0673579 0)
(0 -0.0829259 0)
(0 -0.0741283 0)
(0 -0.056094 0)
(0 -0.0729425 0)
(-2.52852e-17 -0.0657961 0)
(0 -0.0532581 0)
(0 -0.0497256 0)
(2.68161e-17 -0.0533879 0)
(0 -0.0576389 0)
(-2.86815e-17 -0.0358004 0)
(0 -0.0394831 0)
(1.49182e-17 -0.048151 0)
(0 -0.0342243 0)
(0 -0.0277817 0)
(0 -0.035605 0)
(1.60765e-17 -0.0292479 0)
(0 -0.0227225 0)
(0 -0.0264864 0)
(0 -0.0208327 0)
(0 -0.0187362 0)
(0 -0.0177309 0)
(-8.3522e-18 -0.0157949 0)
(0 -0.0149283 0)
(-4.19543e-18 -0.0122113 0)
(0 -0.0109841 0)
(-4.17394e-18 -0.00947059 0)
(0 -0.00909818 0)
(0 -0.00782526 0)
(0 -0.00683427 0)
(0 -0.005012 0)
(2.02061e-18 -0.00463554 0)
(1.99385e-18 -0.00465822 0)
(0 -0.0042804 0)
(0 -0.00235091 0)
(0 -0.00256523 0)
(0 -0.00262288 0)
(0 -0.00166428 0)
(0 -0.00148324 0)
(0 -0.00147387 0)
(0 -0.000958504 0)
(0 -0.000891902 0)
(0 -0.000780327 0)
(0 -0.000567766 0)
(0 -0.000464395 0)
(0 -0.000374509 0)
(-9.97691e-20 -0.000337742 0)
(9.78735e-20 -0.000215359 0)
(0 -0.000201121 0)
(0 -0.000157959 0)
(-4.61784e-20 -0.000108055 0)
(0 -8.66407e-05 0)
(0 -6.81361e-05 0)
(-1.08845e-20 -5.7684e-05 0)
(0 -4.85341e-05 0)
(0 -2.72792e-05 0)
(0 0 0)
(0 0 0)
(0 0 0)
(0 0 0)
(0 0 0)
(0 0 0)
(0 0 0)
(0 0 0)
(0 0 0)
(0 0 0)
(0 0 0)
(0 0 0)
(0 0 0)
(0 0 0)
(0 0 0)
(0 0 0)
(0 0 0)
(0 0 0)
(0 0 0)
(0 0 0)
(0 0 0)
(0 0 0)
(0 0 0)
(0 0 0)
(0 0 0)
(0 0 0)
(0 0 0)
(0 0 0)
(0 0 0)
(0 0 0)
(0 0 0)
(0 0 0)
(0 0 0)
(0 0 0)
(0 0 0)
(0 0 0)
(0 0 0)
(0 0 0)
(0 0 0)
(0 0 0)
(0 0 0)
(0 0 0)
(0 0 0)
(0 0 0)
(0 0 0)
(0 0 0)
(0 0 0)
(0 0 0)
(0 0 0)
(0 0 0)
(0 0 0)
(0 0 0)
(0 0 0)
(0 0 0)
(0 0 0)
(0 0 0)
(0 0 0)
(0 0 0)
(0 0 0)
(0 0 0)
(0 0 0)
(0 0 0)
(0 0 0)
(0 0 0)
(0 0 0)
(0 0 0)
(0 0 0)
(0 0 0)
(0 0 0)
(0 0 0)
(0 0 0)
(0 0 0)
(0 0 0)
(0 0 0)
(0 0 0)
(0 0 0)
(0 0 0)
(0 0 0)
(0 0 0)
(0 0 0)
(0 0 0)
(0 0 0)
(0 0 0)
(0 0 0)
(0 0 0)
(0 0 0)
(0 0 0)
(0 0 0)
(0 0 0)
(0 0 0)
(0 0 0)
(0 0 0)
(0 0 0)
(0 0 0)
(0 0 0)
(0 0 0)
(0 0 0)
(0 0 0)
(0 0 0)
(0 0 0)
(0 0 0)
(0 0 0)
(0 0 0)
(0 0 0)
(0 0 0)
(0 0 0)
(0 0 0)
)
;

boundaryField
{
    inandouthalf11
    {
        type            cyclic;
    }
    inandouthalf12
    {
        type            cyclic;
    }
    inandouthalf21
    {
        type            cyclic;
    }
    inandouthalf22
    {
        type            cyclic;
    }
    inandouthalf31
    {
        type            cyclic;
    }
    inandouthalf32
    {
        type            cyclic;
    }
    inandouthalf41
    {
        type            cyclic;
    }
    inandouthalf42
    {
        type            cyclic;
    }
    top
    {
        type            symmetryPlane;
    }
    walls
    {
        type            calculated;
        value           uniform (0 0 0);
    }
    frontAndBackPlanes
    {
        type            empty;
    }
}


// ************************************************************************* //
