/*--------------------------------*- C++ -*----------------------------------*\
| =========                 |                                                 |
| \\      /  F ield         | OpenFOAM: The Open Source CFD Toolbox           |
|  \\    /   O peration     | Version:  2.4.x                                 |
|   \\  /    A nd           | Web:      www.OpenFOAM.org                      |
|    \\/     M anipulation  |                                                 |
\*---------------------------------------------------------------------------*/
FoamFile
{
    version     2.0;
    format      ascii;
    class       volScalarField;
    location    "1.05";
    object      mua;
}
// * * * * * * * * * * * * * * * * * * * * * * * * * * * * * * * * * * * * * //

dimensions      [1 -1 -1 0 0 0 0];

internalField   nonuniform List<scalar> 
360
(
2.06717e+34
6.59223e+36
7.6368e+36
7.59303e+36
7.54251e+36
7.47988e+36
7.4176e+36
7.35377e+36
7.29316e+36
7.23127e+36
7.1709e+36
7.11473e+36
7.0574e+36
7.00091e+36
6.94592e+36
6.89236e+36
6.84017e+36
6.78935e+36
6.73914e+36
6.68769e+36
6.63938e+36
6.58978e+36
6.54073e+36
6.49289e+36
6.44619e+36
6.40059e+36
6.35541e+36
6.30822e+36
6.26148e+36
6.21583e+36
6.17056e+36
6.12399e+36
6.07948e+36
6.03137e+36
5.98534e+36
5.93806e+36
5.89056e+36
5.84058e+36
5.78887e+36
5.73926e+36
5.68573e+36
5.63214e+36
5.57848e+36
5.52047e+36
5.46187e+36
5.40122e+36
5.33861e+36
5.2755e+36
5.20717e+36
5.13379e+36
5.05957e+36
4.98119e+36
4.89951e+36
4.8133e+36
4.72337e+36
4.6267e+36
4.526e+36
4.41842e+36
4.30538e+36
4.18654e+36
4.05854e+36
3.92419e+36
3.7808e+36
3.62979e+36
3.46917e+36
3.29954e+36
3.11748e+36
2.92644e+36
2.72241e+36
2.51207e+36
2.282e+36
2.04771e+36
1.77907e+36
1.49323e+36
1.12598e+36
7.03597e+35
2.40947e+35
3.47776e+34
7.98808e+32
1.64541e+23
171930
30077
14646.5
13773.5
18683.8
26656.7
32790.9
33667.1
30501.4
26281.5
22803.9
20457.1
18980.6
17990.9
17194
16440.8
15696.1
14973.7
14284.7
13620.7
12961.7
12290.1
11599.7
10896.4
10192.6
9501.56
8833.36
8194.55
7588.39
7015.75
6475.83
5966.99
5487.48
5035.96
4611.35
4211.9
3833.94
3471.15
3116.14
2764.84
2422.59
2107.16
1843.65
1650.83
1523.14
1410.63
1212.05
847.333
410.363
117.023
17.924
2.00022
0.352652
0.131975
0.085955
0.0694075
0.0577455
0.0468519
0.0361544
0.0254875
0.0184692
0.0113668
0.00396244
0.000687424
0.000125351
0.000102414
0.000102964
0.000112455
0.000128507
0.000209316
0.000542804
0.00126667
0.0036899
0.00124302
0.00238471
0.00286338
0.00310178
0.00322542
0.00328295
0.00329677
0.00328259
0.00324966
0.00320402
0.00315105
0.00309316
0.003033
0.00297169
0.00291079
0.00285048
0.00279145
0.00273416
0.00267858
0.00262512
0.00257362
0.00252432
0.00247707
0.00243202
0.002389
0.00234807
0.00230907
0.00227206
0.00223691
0.00220353
0.0021719
0.00214189
0.0021135
0.00208657
0.00206108
0.00203693
0.00201407
0.0019924
0.00197187
0.00195238
0.00193392
0.00191636
0.00189967
0.00188381
0.00186868
0.00185424
0.00184047
0.00182727
0.0018145
0.001802
0.00178975
0.00177773
0.00176591
0.0017543
0.00174284
0.00173151
0.00172032
0.00170922
0.00169818
0.00168718
0.0016762
0.00166521
0.00165418
0.00164309
0.00163189
0.00162057
0.00160908
0.00159741
0.00158551
0.00157335
0.00156089
0.0015481
0.00153494
0.00152135
0.0015073
0.00149274
0.00147761
0.00146187
0.00144543
0.00142824
0.00141022
0.00139127
0.0013713
0.0013502
0.00132782
0.00130402
0.00127862
0.0012514
0.0012221
0.00119038
0.00115586
0.001118
0.00107612
0.00102928
0.000976115
0.000914558
0.000841175
0.000749383
0.000623021
0
0
0
0
0
0
0
0
0
0
0
0
0
0
0
0
0
0
0
0
0
0
0
0
0
0
0
0
0
0
0
0
0
0
0
0
0
0
0
0
0
0
0
0
0
0
0
0
0
0
0
0
0
0
0
0
0
0
0
0
0
0
0
0
0
0
0
0
0
0
0
0
0
0
0
0
0
0
0
0
0
0
0
0
0
0
0
0
0
0
0
0
0
0
0
0
0
0
0
0
0
0
0
0
0
0
0
0
)
;

boundaryField
{
    inandouthalf11
    {
        type            cyclic;
    }
    inandouthalf12
    {
        type            cyclic;
    }
    inandouthalf21
    {
        type            cyclic;
    }
    inandouthalf22
    {
        type            cyclic;
    }
    inandouthalf31
    {
        type            cyclic;
    }
    inandouthalf32
    {
        type            cyclic;
    }
    inandouthalf41
    {
        type            cyclic;
    }
    inandouthalf42
    {
        type            cyclic;
    }
    top
    {
        type            symmetryPlane;
    }
    walls
    {
        type            calculated;
        value           uniform 1e+30;
    }
    frontAndBackPlanes
    {
        type            empty;
    }
}


// ************************************************************************* //
