/*--------------------------------*- C++ -*----------------------------------*\
| =========                 |                                                 |
| \\      /  F ield         | OpenFOAM: The Open Source CFD Toolbox           |
|  \\    /   O peration     | Version:  2.4.x                                 |
|   \\  /    A nd           | Web:      www.OpenFOAM.org                      |
|    \\/     M anipulation  |                                                 |
\*---------------------------------------------------------------------------*/
FoamFile
{
    version     2.0;
    format      ascii;
    class       surfaceScalarField;
    location    "1.05";
    object      phib;
}
// * * * * * * * * * * * * * * * * * * * * * * * * * * * * * * * * * * * * * //

dimensions      [0 3 -1 0 0 0 0];

internalField   nonuniform List<scalar> 
359
(
7.49549e-19
1.50322e-18
2.25825e-18
3.01595e-18
3.77345e-18
4.53125e-18
5.28771e-18
6.04629e-18
6.80049e-18
7.55844e-18
8.31217e-18
9.06951e-18
9.82097e-18
1.05726e-17
1.1323e-17
1.2073e-17
1.282e-17
1.35677e-17
1.43088e-17
1.50537e-17
1.5792e-17
1.65344e-17
1.7268e-17
1.80045e-17
1.87337e-17
1.94652e-17
2.01891e-17
2.09152e-17
2.16343e-17
2.2355e-17
2.30666e-17
2.3784e-17
2.44907e-17
2.52018e-17
2.59018e-17
2.66051e-17
2.73007e-17
2.79983e-17
2.86858e-17
2.93781e-17
3.00563e-17
3.07428e-17
3.1417e-17
3.20952e-17
3.27606e-17
3.34326e-17
3.40901e-17
3.47546e-17
3.54048e-17
3.60628e-17
3.67039e-17
3.73513e-17
3.79858e-17
3.86274e-17
3.92529e-17
3.98823e-17
4.04977e-17
4.11193e-17
4.1725e-17
4.23374e-17
4.29325e-17
4.35369e-17
4.41232e-17
4.47162e-17
4.52924e-17
4.58749e-17
4.64376e-17
4.70112e-17
4.75649e-17
4.81259e-17
4.86643e-17
4.92162e-17
4.97441e-17
5.02809e-17
5.07971e-17
5.132e-17
5.182e-17
5.23298e-17
5.28177e-17
5.3312e-17
1.13725e-12
7.53108e-12
2.06349e-11
3.43741e-11
4.4414e-11
5.1354e-11
5.68608e-11
6.20849e-11
6.77079e-11
7.40775e-11
8.12445e-11
8.90427e-11
9.72432e-11
1.05679e-10
1.14277e-10
1.2303e-10
1.31948e-10
1.41035e-10
1.50284e-10
1.59697e-10
1.69285e-10
1.79078e-10
1.89117e-10
1.99446e-10
2.10106e-10
2.21133e-10
2.32557e-10
2.444e-10
2.56682e-10
2.69418e-10
2.82624e-10
2.96312e-10
3.10499e-10
3.25197e-10
3.40417e-10
3.56171e-10
3.72477e-10
3.89378e-10
4.06966e-10
4.2539e-10
4.4482e-10
4.65332e-10
4.86692e-10
5.08176e-10
5.28718e-10
5.47543e-10
5.64886e-10
5.82334e-10
6.03254e-10
6.32728e-10
6.74147e-10
7.24987e-10
7.87479e-10
8.93254e-10
1.0425e-09
1.19769e-09
1.38565e-09
1.7317e-09
2.98792e-09
4.39694e-09
4.9034e-09
6.05392e-09
7.80833e-09
8.32217e-09
8.52717e-09
8.72689e-09
8.91456e-09
9.10394e-09
9.31622e-09
9.56053e-09
9.7447e-09
1.00074e-08
1.07272e-08
1.70857e-09
1.25666e-10
8.85269e-11
7.72932e-11
6.91689e-11
6.22631e-11
5.73644e-11
5.14969e-11
4.74103e-11
4.33387e-11
3.94843e-11
3.62919e-11
3.34278e-11
3.06553e-11
2.78703e-11
2.59783e-11
2.37286e-11
2.18884e-11
2.01751e-11
1.85302e-11
1.71029e-11
1.57737e-11
1.45637e-11
1.33697e-11
1.23335e-11
1.14041e-11
1.05741e-11
9.62985e-12
8.96283e-12
8.26127e-12
7.62694e-12
7.03321e-12
6.47224e-12
5.99444e-12
5.54497e-12
5.1122e-12
4.69159e-12
4.355e-12
4.03399e-12
3.6999e-12
3.39203e-12
3.19269e-12
2.9162e-12
2.66982e-12
2.50164e-12
2.28621e-12
2.10623e-12
1.97733e-12
1.799e-12
1.64446e-12
1.52158e-12
1.40896e-12
1.28305e-12
1.14899e-12
1.07128e-12
9.81252e-13
8.69255e-13
7.93498e-13
7.322e-13
6.49783e-13
5.83914e-13
5.3302e-13
4.7152e-13
4.24131e-13
3.80598e-13
3.39227e-13
3.01487e-13
2.65545e-13
2.35687e-13
2.086e-13
1.84606e-13
1.61034e-13
1.40151e-13
1.21655e-13
1.07965e-13
9.49146e-14
8.09648e-14
6.77488e-14
6.07749e-14
5.2477e-14
4.3463e-14
3.78176e-14
3.24821e-14
2.6811e-14
2.31518e-14
1.94634e-14
1.60696e-14
1.35134e-14
1.13409e-14
9.46233e-15
7.62873e-15
6.47443e-15
5.23671e-15
4.21065e-15
3.48619e-15
2.87456e-15
2.32035e-15
1.78582e-15
1.47759e-15
1.31362e-15
1.08279e-15
8.02577e-16
6.21396e-16
4.8236e-16
3.79185e-16
2.93311e-16
2.29384e-16
1.73794e-16
1.33981e-16
1.02707e-16
8.08572e-17
5.95375e-17
4.64238e-17
3.6229e-17
2.80028e-17
2.22957e-17
1.7667e-17
1.4465e-17
1.18996e-17
1.01688e-17
8.76793e-18
7.80177e-18
7.01409e-18
6.45001e-18
5.91442e-18
5.52575e-18
5.15632e-18
4.89699e-18
4.65735e-18
4.43321e-18
4.18117e-18
3.96042e-18
3.69765e-18
3.54286e-18
3.23613e-18
2.97837e-18
2.6895e-18
2.39795e-18
2.07141e-18
1.76694e-18
1.44435e-18
1.13849e-18
8.66661e-19
7.97449e-19
7.05928e-19
6.39541e-19
3.3089e-19
2.84219e-19
2.37567e-19
1.92473e-19
1.47873e-19
1.13764e-19
8.21663e-20
5.1674e-20
2.37781e-20
-7.52486e-21
-3.43057e-20
-5.97084e-20
-8.11241e-20
-1.09596e-19
-1.35204e-19
-1.59513e-19
-1.79763e-19
-2.04295e-19
-2.21771e-19
-2.41106e-19
-2.54796e-19
-2.84221e-19
-3.09107e-19
-3.35026e-19
-3.53921e-19
-3.90648e-19
-4.23733e-19
-4.78325e-19
-5.85773e-19
-8.53799e-19
-1.15336e-18
-1.47142e-18
-1.73475e-18
-2.06423e-18
-2.30021e-18
-2.54021e-18
-2.67937e-18
-3.0044e-18
-3.19748e-18
-3.39049e-18
-3.41213e-18
-3.56843e-18
-3.53563e-18
-3.51551e-18
-3.3473e-18
-3.54263e-18
-3.56984e-18
-3.60651e-18
-3.41778e-18
-3.37431e-18
-3.11201e-18
-2.84613e-18
-2.62162e-18
-2.07649e-18
-1.63065e-18
-1.18028e-18
-1.23105e-18
2.90605e-20
-7.53069e-19
-2.87281e-18
)
;

boundaryField
{
    inandouthalf11
    {
        type            cyclic;
        value           nonuniform List<scalar> 
100
(
-1.81331e-10
-1.81641e-10
-1.81642e-10
-1.81642e-10
-1.81642e-10
-1.81644e-10
-1.81644e-10
-1.81645e-10
-1.81645e-10
-1.81647e-10
-1.81648e-10
-1.81648e-10
-1.8165e-10
-1.81652e-10
-1.81653e-10
-1.81655e-10
-1.81656e-10
-1.81658e-10
-1.81659e-10
-1.81662e-10
-1.81664e-10
-1.81667e-10
-1.8167e-10
-1.81673e-10
-1.81676e-10
-1.81679e-10
-1.81682e-10
-1.81687e-10
-1.81691e-10
-1.81696e-10
-1.817e-10
-1.81706e-10
-1.81711e-10
-1.81719e-10
-1.81725e-10
-1.81732e-10
-1.8174e-10
-1.81749e-10
-1.8176e-10
-1.81769e-10
-1.81781e-10
-1.81794e-10
-1.81806e-10
-1.81821e-10
-1.81836e-10
-1.81853e-10
-1.81871e-10
-1.8189e-10
-1.81911e-10
-1.81936e-10
-1.8196e-10
-1.81988e-10
-1.82017e-10
-1.82049e-10
-1.82083e-10
-1.82121e-10
-1.82161e-10
-1.82205e-10
-1.82252e-10
-1.82303e-10
-1.8236e-10
-1.82419e-10
-1.82485e-10
-1.82556e-10
-1.82632e-10
-1.82715e-10
-1.82806e-10
-1.82904e-10
-1.8301e-10
-1.83124e-10
-1.83249e-10
-1.83384e-10
-1.83529e-10
-1.83688e-10
-1.83859e-10
-1.84046e-10
-1.84247e-10
-1.84465e-10
-1.84702e-10
-1.84959e-10
-1.85231e-10
-1.85657e-10
-1.86615e-10
-1.87932e-10
-1.89083e-10
-1.89975e-10
-1.90731e-10
-1.91449e-10
-1.92192e-10
-1.92999e-10
-1.93889e-10
-1.94862e-10
-1.95904e-10
-1.96997e-10
-1.98133e-10
-1.99306e-10
-2.00515e-10
-2.01762e-10
-2.03046e-10
-2.04369e-10
)
;
    }
    inandouthalf12
    {
        type            cyclic;
        value           nonuniform List<scalar> 
100
(
1.81331e-10
1.81641e-10
1.81642e-10
1.81642e-10
1.81642e-10
1.81644e-10
1.81644e-10
1.81645e-10
1.81645e-10
1.81647e-10
1.81648e-10
1.81648e-10
1.8165e-10
1.81652e-10
1.81653e-10
1.81655e-10
1.81656e-10
1.81658e-10
1.81659e-10
1.81662e-10
1.81664e-10
1.81667e-10
1.8167e-10
1.81673e-10
1.81676e-10
1.81679e-10
1.81682e-10
1.81687e-10
1.81691e-10
1.81696e-10
1.817e-10
1.81706e-10
1.81711e-10
1.81719e-10
1.81725e-10
1.81732e-10
1.8174e-10
1.81749e-10
1.8176e-10
1.81769e-10
1.81781e-10
1.81794e-10
1.81806e-10
1.81821e-10
1.81836e-10
1.81853e-10
1.81871e-10
1.8189e-10
1.81911e-10
1.81936e-10
1.8196e-10
1.81988e-10
1.82017e-10
1.82049e-10
1.82083e-10
1.82121e-10
1.82161e-10
1.82205e-10
1.82252e-10
1.82303e-10
1.8236e-10
1.82419e-10
1.82485e-10
1.82556e-10
1.82632e-10
1.82715e-10
1.82806e-10
1.82904e-10
1.8301e-10
1.83124e-10
1.83249e-10
1.83384e-10
1.83529e-10
1.83688e-10
1.83859e-10
1.84046e-10
1.84247e-10
1.84465e-10
1.84702e-10
1.84959e-10
1.85231e-10
1.85657e-10
1.86615e-10
1.87932e-10
1.89083e-10
1.89975e-10
1.90731e-10
1.91449e-10
1.92192e-10
1.92999e-10
1.93889e-10
1.94862e-10
1.95904e-10
1.96997e-10
1.98133e-10
1.99306e-10
2.00515e-10
2.01762e-10
2.03046e-10
2.04369e-10
)
;
    }
    inandouthalf21
    {
        type            cyclic;
        value           nonuniform List<scalar> 
100
(
-2.05735e-10
-2.07149e-10
-2.08617e-10
-2.10149e-10
-2.11752e-10
-2.13437e-10
-2.1521e-10
-2.17081e-10
-2.19059e-10
-2.21151e-10
-2.23367e-10
-2.25718e-10
-2.28216e-10
-2.30874e-10
-2.33707e-10
-2.36732e-10
-2.39971e-10
-2.43452e-10
-2.47217e-10
-2.51327e-10
-2.55868e-10
-2.60933e-10
-2.66584e-10
-2.72796e-10
-2.79433e-10
-2.86388e-10
-2.93909e-10
-3.0317e-10
-3.17852e-10
-3.518e-10
-4.80523e-10
-1.32845e-09
-8.26432e-09
-4.02292e-08
-1.04907e-07
-1.84199e-07
-2.66571e-07
-3.49321e-07
-4.32274e-07
-5.15437e-07
-5.92801e-07
-6.57873e-07
-7.07199e-07
-7.29053e-07
-7.37194e-07
-7.44164e-07
-7.51495e-07
-7.59091e-07
-7.67426e-07
-7.76787e-07
-7.90402e-07
-8.15137e-07
-8.48772e-07
-8.96779e-07
-9.44039e-07
-9.89581e-07
-1.02987e-06
-1.06491e-06
-1.09497e-06
-1.12021e-06
-1.14086e-06
-1.15743e-06
-1.17037e-06
-1.18057e-06
-1.18865e-06
-1.19529e-06
-1.20089e-06
-1.20575e-06
-1.21005e-06
-1.21389e-06
-1.21738e-06
-1.22054e-06
-1.22342e-06
-1.22605e-06
-1.22847e-06
-1.23068e-06
-1.23273e-06
-1.2346e-06
-1.23633e-06
-1.23792e-06
-1.23939e-06
-1.24074e-06
-1.24199e-06
-1.24315e-06
-1.24421e-06
-1.2452e-06
-1.2461e-06
-1.24694e-06
-1.24772e-06
-1.24844e-06
-1.2491e-06
-1.24971e-06
-1.25027e-06
-1.2508e-06
-1.25128e-06
-1.25172e-06
-1.25213e-06
-1.25251e-06
-1.25287e-06
-1.25319e-06
)
;
    }
    inandouthalf22
    {
        type            cyclic;
        value           nonuniform List<scalar> 
100
(
2.05735e-10
2.07149e-10
2.08617e-10
2.10149e-10
2.11752e-10
2.13437e-10
2.1521e-10
2.17081e-10
2.19059e-10
2.21151e-10
2.23367e-10
2.25718e-10
2.28216e-10
2.30874e-10
2.33707e-10
2.36732e-10
2.39971e-10
2.43452e-10
2.47217e-10
2.51327e-10
2.55868e-10
2.60933e-10
2.66584e-10
2.72796e-10
2.79433e-10
2.86388e-10
2.93909e-10
3.0317e-10
3.17852e-10
3.518e-10
4.80523e-10
1.32845e-09
8.26432e-09
4.02292e-08
1.04907e-07
1.84199e-07
2.66571e-07
3.49321e-07
4.32274e-07
5.15437e-07
5.92801e-07
6.57873e-07
7.07199e-07
7.29053e-07
7.37194e-07
7.44164e-07
7.51495e-07
7.59091e-07
7.67426e-07
7.76787e-07
7.90402e-07
8.15137e-07
8.48772e-07
8.96779e-07
9.44039e-07
9.89581e-07
1.02987e-06
1.06491e-06
1.09497e-06
1.12021e-06
1.14086e-06
1.15743e-06
1.17037e-06
1.18057e-06
1.18865e-06
1.19529e-06
1.20089e-06
1.20575e-06
1.21005e-06
1.21389e-06
1.21738e-06
1.22054e-06
1.22342e-06
1.22605e-06
1.22847e-06
1.23068e-06
1.23273e-06
1.2346e-06
1.23633e-06
1.23792e-06
1.23939e-06
1.24074e-06
1.24199e-06
1.24315e-06
1.24421e-06
1.2452e-06
1.2461e-06
1.24694e-06
1.24772e-06
1.24844e-06
1.2491e-06
1.24971e-06
1.25027e-06
1.2508e-06
1.25128e-06
1.25172e-06
1.25213e-06
1.25251e-06
1.25287e-06
1.25319e-06
)
;
    }
    inandouthalf31
    {
        type            cyclic;
        value           nonuniform List<scalar> 
110
(
-1.25349e-06
-1.27922e-06
-1.30546e-06
-1.33222e-06
-1.35951e-06
-1.38735e-06
-1.41573e-06
-1.44469e-06
-1.47422e-06
-1.50434e-06
-1.53506e-06
-1.56639e-06
-1.59835e-06
-1.63094e-06
-1.66419e-06
-1.69811e-06
-1.7327e-06
-1.76799e-06
-1.80399e-06
-1.8407e-06
-1.87816e-06
-1.91637e-06
-1.95535e-06
-1.99511e-06
-2.03567e-06
-2.07706e-06
-2.11927e-06
-2.16234e-06
-2.20628e-06
-2.2511e-06
-2.29683e-06
-2.34348e-06
-2.39108e-06
-2.43964e-06
-2.48918e-06
-2.53973e-06
-2.5913e-06
-2.64391e-06
-2.69759e-06
-2.75236e-06
-2.80823e-06
-2.86524e-06
-2.92341e-06
-2.98275e-06
-3.0433e-06
-3.10508e-06
-3.16811e-06
-3.23242e-06
-3.29803e-06
-3.36497e-06
-3.43328e-06
-3.50296e-06
-3.57407e-06
-3.64661e-06
-3.72063e-06
-3.79615e-06
-3.8732e-06
-3.95182e-06
-4.03203e-06
-4.11387e-06
-4.19737e-06
-4.28257e-06
-4.36949e-06
-4.45818e-06
-4.54867e-06
-4.641e-06
-4.7352e-06
-4.83131e-06
-4.92937e-06
-5.02942e-06
-5.13151e-06
-5.23566e-06
-5.34193e-06
-5.45036e-06
-5.56099e-06
-5.67386e-06
-5.78903e-06
-5.90653e-06
-6.02641e-06
-6.14873e-06
-6.27354e-06
-6.40087e-06
-6.53079e-06
-6.66335e-06
-6.7986e-06
-6.93659e-06
-7.07739e-06
-7.22104e-06
-7.36761e-06
-7.51715e-06
-7.66973e-06
-7.8254e-06
-7.98424e-06
-8.1463e-06
-8.31165e-06
-8.48035e-06
-8.65248e-06
-8.8281e-06
-9.00729e-06
-9.19011e-06
-9.37665e-06
-9.56697e-06
-9.76115e-06
-9.95928e-06
-1.01614e-05
-1.03677e-05
-1.05781e-05
-1.07928e-05
-1.10119e-05
-1.12354e-05
)
;
    }
    inandouthalf32
    {
        type            cyclic;
        value           nonuniform List<scalar> 
110
(
1.25349e-06
1.27922e-06
1.30546e-06
1.33222e-06
1.35951e-06
1.38735e-06
1.41573e-06
1.44469e-06
1.47422e-06
1.50434e-06
1.53506e-06
1.56639e-06
1.59835e-06
1.63094e-06
1.66419e-06
1.69811e-06
1.7327e-06
1.76799e-06
1.80399e-06
1.8407e-06
1.87816e-06
1.91637e-06
1.95535e-06
1.99511e-06
2.03567e-06
2.07706e-06
2.11927e-06
2.16234e-06
2.20628e-06
2.2511e-06
2.29683e-06
2.34348e-06
2.39108e-06
2.43964e-06
2.48918e-06
2.53973e-06
2.5913e-06
2.64391e-06
2.69759e-06
2.75236e-06
2.80823e-06
2.86524e-06
2.92341e-06
2.98275e-06
3.0433e-06
3.10508e-06
3.16811e-06
3.23242e-06
3.29803e-06
3.36497e-06
3.43328e-06
3.50296e-06
3.57407e-06
3.64661e-06
3.72063e-06
3.79615e-06
3.8732e-06
3.95182e-06
4.03203e-06
4.11387e-06
4.19737e-06
4.28257e-06
4.36949e-06
4.45818e-06
4.54867e-06
4.641e-06
4.7352e-06
4.83131e-06
4.92937e-06
5.02942e-06
5.13151e-06
5.23566e-06
5.34193e-06
5.45036e-06
5.56099e-06
5.67386e-06
5.78903e-06
5.90653e-06
6.02641e-06
6.14873e-06
6.27354e-06
6.40087e-06
6.53079e-06
6.66335e-06
6.7986e-06
6.93659e-06
7.07739e-06
7.22104e-06
7.36761e-06
7.51715e-06
7.66973e-06
7.8254e-06
7.98424e-06
8.1463e-06
8.31165e-06
8.48035e-06
8.65248e-06
8.8281e-06
9.00729e-06
9.19011e-06
9.37665e-06
9.56697e-06
9.76115e-06
9.95928e-06
1.01614e-05
1.03677e-05
1.05781e-05
1.07928e-05
1.10119e-05
1.12354e-05
)
;
    }
    inandouthalf41
    {
        type            cyclic;
        value           nonuniform List<scalar> 
50
(
-1.00568e-05
-1.00568e-05
-1.00568e-05
-1.00568e-05
-1.00568e-05
-1.00568e-05
-1.00568e-05
-1.00568e-05
-1.00568e-05
-1.00568e-05
-1.00568e-05
-1.00568e-05
-1.00568e-05
-1.00568e-05
-1.00568e-05
-1.00568e-05
-1.00568e-05
-1.00568e-05
-1.00568e-05
-1.00568e-05
-1.00568e-05
-1.00568e-05
-1.00568e-05
-1.00568e-05
-1.00568e-05
-1.00568e-05
-1.00568e-05
-1.00568e-05
-1.00568e-05
-1.00568e-05
-1.00568e-05
-1.00568e-05
-1.00568e-05
-1.00568e-05
-1.00568e-05
-1.00568e-05
-1.00568e-05
-1.00568e-05
-1.00568e-05
-1.00568e-05
-1.00568e-05
-1.00568e-05
-1.00568e-05
-1.00568e-05
-1.00568e-05
-1.00568e-05
-1.00568e-05
-1.00568e-05
-1.00568e-05
-1.00568e-05
)
;
    }
    inandouthalf42
    {
        type            cyclic;
        value           nonuniform List<scalar> 
50
(
1.00568e-05
1.00568e-05
1.00568e-05
1.00568e-05
1.00568e-05
1.00568e-05
1.00568e-05
1.00568e-05
1.00568e-05
1.00568e-05
1.00568e-05
1.00568e-05
1.00568e-05
1.00568e-05
1.00568e-05
1.00568e-05
1.00568e-05
1.00568e-05
1.00568e-05
1.00568e-05
1.00568e-05
1.00568e-05
1.00568e-05
1.00568e-05
1.00568e-05
1.00568e-05
1.00568e-05
1.00568e-05
1.00568e-05
1.00568e-05
1.00568e-05
1.00568e-05
1.00568e-05
1.00568e-05
1.00568e-05
1.00568e-05
1.00568e-05
1.00568e-05
1.00568e-05
1.00568e-05
1.00568e-05
1.00568e-05
1.00568e-05
1.00568e-05
1.00568e-05
1.00568e-05
1.00568e-05
1.00568e-05
1.00568e-05
1.00568e-05
)
;
    }
    top
    {
        type            symmetryPlane;
        value           uniform 0;
    }
    walls
    {
        type            fixedValue;
        value           uniform 0;
    }
    frontAndBackPlanes
    {
        type            empty;
        value           nonuniform 0();
    }
}


// ************************************************************************* //
