/*--------------------------------*- C++ -*----------------------------------*\
| =========                 |                                                 |
| \\      /  F ield         | OpenFOAM: The Open Source CFD Toolbox           |
|  \\    /   O peration     | Version:  2.4.x                                 |
|   \\  /    A nd           | Web:      www.OpenFOAM.org                      |
|    \\/     M anipulation  |                                                 |
\*---------------------------------------------------------------------------*/
FoamFile
{
    version     2.0;
    format      ascii;
    class       surfaceScalarField;
    location    "1.05";
    object      phib_0;
}
// * * * * * * * * * * * * * * * * * * * * * * * * * * * * * * * * * * * * * //

dimensions      [0 3 -1 0 0 0 0];

internalField   nonuniform List<scalar> 
359
(
8.06883e-19
1.61778e-18
2.4289e-18
3.24348e-18
4.05604e-18
4.87301e-18
5.68713e-18
6.50384e-18
7.31842e-18
8.13435e-18
8.94633e-18
9.75923e-18
1.05677e-17
1.13779e-17
1.21843e-17
1.2992e-17
1.37958e-17
1.46023e-17
1.54041e-17
1.62046e-17
1.69994e-17
1.77984e-17
1.85872e-17
1.93798e-17
2.01638e-17
2.09523e-17
2.17325e-17
2.25157e-17
2.32897e-17
2.40662e-17
2.48346e-17
2.56067e-17
2.63678e-17
2.71329e-17
2.78872e-17
2.8647e-17
2.93952e-17
3.01483e-17
3.08893e-17
3.16347e-17
3.2365e-17
3.31037e-17
3.38271e-17
3.45605e-17
3.52764e-17
3.60012e-17
3.67076e-17
3.74245e-17
3.81247e-17
3.88329e-17
3.95222e-17
4.02223e-17
4.09042e-17
4.15938e-17
4.22642e-17
4.29465e-17
4.36092e-17
4.4281e-17
4.49336e-17
4.55963e-17
4.62372e-17
4.68912e-17
4.75207e-17
4.81627e-17
4.87808e-17
4.9411e-17
5.00172e-17
5.0636e-17
5.12319e-17
5.18377e-17
5.2421e-17
5.30161e-17
5.3582e-17
5.41626e-17
5.47168e-17
5.52831e-17
5.58218e-17
5.6371e-17
5.6895e-17
5.74303e-17
1.1337e-12
7.51615e-12
2.06104e-11
3.43482e-11
4.43891e-11
5.13296e-11
5.6837e-11
6.20624e-11
6.76883e-11
7.4063e-11
8.12373e-11
8.90441e-11
9.72532e-11
1.05696e-10
1.14299e-10
1.23055e-10
1.31974e-10
1.4106e-10
1.50308e-10
1.59719e-10
1.69306e-10
1.79099e-10
1.89138e-10
1.99468e-10
2.10131e-10
2.21162e-10
2.3259e-10
2.44438e-10
2.56724e-10
2.69465e-10
2.82675e-10
2.96369e-10
3.10559e-10
3.25261e-10
3.40485e-10
3.56243e-10
3.72552e-10
3.89458e-10
4.0705e-10
4.25478e-10
4.44915e-10
4.65432e-10
4.86797e-10
5.08283e-10
5.28826e-10
5.47652e-10
5.65e-10
5.82462e-10
6.03416e-10
6.32947e-10
6.74414e-10
7.25277e-10
7.87831e-10
8.93813e-10
1.04306e-09
1.1982e-09
1.38604e-09
1.73218e-09
2.99875e-09
4.39987e-09
4.90571e-09
6.06237e-09
7.81287e-09
8.32284e-09
8.52772e-09
8.72738e-09
8.91505e-09
9.10447e-09
9.31682e-09
9.56104e-09
9.74537e-09
1.00051e-08
1.07365e-08
1.71492e-09
1.25862e-10
8.86065e-11
7.73677e-11
6.92396e-11
6.23238e-11
5.74249e-11
5.15545e-11
4.74612e-11
4.33885e-11
3.953e-11
3.63329e-11
3.34664e-11
3.06935e-11
2.79036e-11
2.60088e-11
2.37583e-11
2.19153e-11
2.02004e-11
1.85537e-11
1.71243e-11
1.57932e-11
1.45825e-11
1.33876e-11
1.23493e-11
1.14181e-11
1.05883e-11
9.64281e-12
8.97417e-12
8.27221e-12
7.63722e-12
7.0427e-12
6.48074e-12
6.00224e-12
5.55242e-12
5.11928e-12
4.69785e-12
4.36063e-12
4.0397e-12
3.70522e-12
3.39621e-12
3.19686e-12
2.92053e-12
2.67334e-12
2.50506e-12
2.28953e-12
2.10884e-12
1.97996e-12
1.8017e-12
1.64673e-12
1.52352e-12
1.41085e-12
1.28499e-12
1.15059e-12
1.07258e-12
9.82717e-13
8.70568e-13
7.94469e-13
7.33213e-13
6.50761e-13
5.84676e-13
5.3375e-13
4.72204e-13
4.24708e-13
3.81119e-13
3.39704e-13
3.01918e-13
2.65922e-13
2.36011e-13
2.08879e-13
1.84864e-13
1.61276e-13
1.40355e-13
1.21813e-13
1.08104e-13
9.50529e-14
8.10924e-14
6.784e-14
6.08495e-14
5.2555e-14
4.35282e-14
3.78674e-14
3.25295e-14
2.68507e-14
2.31839e-14
1.94924e-14
1.60936e-14
1.35326e-14
1.13568e-14
9.47682e-15
7.64043e-15
6.48413e-15
5.24532e-15
4.21724e-15
3.49154e-15
2.87917e-15
2.32455e-15
1.78913e-15
1.47988e-15
1.3153e-15
1.08464e-15
8.04391e-16
6.22841e-16
4.83548e-16
3.802e-16
2.94168e-16
2.30142e-16
1.74453e-16
1.34544e-16
1.03173e-16
8.12805e-17
5.99153e-17
4.67635e-17
3.65368e-17
2.82855e-17
2.25574e-17
1.79112e-17
1.46887e-17
1.21026e-17
1.03611e-17
8.94974e-18
7.97198e-18
7.16951e-18
6.59559e-18
6.04615e-18
5.64425e-18
5.25761e-18
4.99567e-18
4.74842e-18
4.51681e-18
4.25371e-18
4.02699e-18
3.75574e-18
3.5927e-18
3.27466e-18
3.01326e-18
2.71881e-18
2.42148e-18
2.08685e-18
1.78119e-18
1.45082e-18
1.13723e-18
8.34107e-19
7.92347e-19
7.0389e-19
6.40603e-19
3.26338e-19
2.82516e-19
2.37845e-19
1.9415e-19
1.50697e-19
1.17999e-19
8.80393e-20
5.9308e-20
3.47325e-20
6.95907e-21
-1.32547e-20
-3.29789e-20
-4.51558e-20
-7.13005e-20
-8.91014e-20
-1.07227e-19
-1.15059e-19
-1.31454e-19
-1.34197e-19
-1.38637e-19
-1.30198e-19
-1.45552e-19
-1.44627e-19
-1.44642e-19
-1.25771e-19
-1.26493e-19
-1.06579e-19
-9.60712e-20
-7.31525e-20
-1.74131e-19
-2.28817e-19
-2.87842e-19
-2.40727e-19
-2.88966e-19
-1.82817e-19
-7.75664e-20
1.8459e-19
2.00596e-19
3.98208e-19
5.99824e-19
1.00859e-18
1.30022e-18
1.76046e-18
2.23833e-18
2.81946e-18
3.45846e-18
4.08935e-18
4.72778e-18
5.27092e-18
5.9503e-18
6.38042e-18
6.84266e-18
7.21714e-18
7.85464e-18
8.17033e-18
8.49824e-18
8.67676e-18
8.17565e-18
8.91432e-18
1.11754e-17
)
;

boundaryField
{
    inandouthalf11
    {
        type            cyclic;
        value           nonuniform List<scalar> 
100
(
-1.81386e-10
-1.81695e-10
-1.81697e-10
-1.81697e-10
-1.81697e-10
-1.81698e-10
-1.81698e-10
-1.817e-10
-1.817e-10
-1.81701e-10
-1.81703e-10
-1.81703e-10
-1.81704e-10
-1.81706e-10
-1.81707e-10
-1.81709e-10
-1.81711e-10
-1.81712e-10
-1.81714e-10
-1.81717e-10
-1.81718e-10
-1.81721e-10
-1.81724e-10
-1.81727e-10
-1.8173e-10
-1.81733e-10
-1.81737e-10
-1.81741e-10
-1.81746e-10
-1.8175e-10
-1.81755e-10
-1.81761e-10
-1.81766e-10
-1.81773e-10
-1.81779e-10
-1.81787e-10
-1.81795e-10
-1.81804e-10
-1.81814e-10
-1.81824e-10
-1.81836e-10
-1.81848e-10
-1.8186e-10
-1.81876e-10
-1.81891e-10
-1.81908e-10
-1.81926e-10
-1.81944e-10
-1.81966e-10
-1.8199e-10
-1.82015e-10
-1.82042e-10
-1.82071e-10
-1.82103e-10
-1.82137e-10
-1.82175e-10
-1.82215e-10
-1.8226e-10
-1.82307e-10
-1.82358e-10
-1.82414e-10
-1.82474e-10
-1.8254e-10
-1.82611e-10
-1.82687e-10
-1.8277e-10
-1.82861e-10
-1.82959e-10
-1.83065e-10
-1.83179e-10
-1.83304e-10
-1.83439e-10
-1.83584e-10
-1.83743e-10
-1.83914e-10
-1.84101e-10
-1.84302e-10
-1.8452e-10
-1.84757e-10
-1.85014e-10
-1.85286e-10
-1.85712e-10
-1.8667e-10
-1.87986e-10
-1.89137e-10
-1.9003e-10
-1.90785e-10
-1.91504e-10
-1.92247e-10
-1.93054e-10
-1.93946e-10
-1.9492e-10
-1.95963e-10
-1.97058e-10
-1.98194e-10
-1.99368e-10
-2.00578e-10
-2.01824e-10
-2.03109e-10
-2.04432e-10
)
;
    }
    inandouthalf12
    {
        type            cyclic;
        value           nonuniform List<scalar> 
100
(
1.81386e-10
1.81695e-10
1.81697e-10
1.81697e-10
1.81697e-10
1.81698e-10
1.81698e-10
1.817e-10
1.817e-10
1.81701e-10
1.81703e-10
1.81703e-10
1.81704e-10
1.81706e-10
1.81707e-10
1.81709e-10
1.81711e-10
1.81712e-10
1.81714e-10
1.81717e-10
1.81718e-10
1.81721e-10
1.81724e-10
1.81727e-10
1.8173e-10
1.81733e-10
1.81737e-10
1.81741e-10
1.81746e-10
1.8175e-10
1.81755e-10
1.81761e-10
1.81766e-10
1.81773e-10
1.81779e-10
1.81787e-10
1.81795e-10
1.81804e-10
1.81814e-10
1.81824e-10
1.81836e-10
1.81848e-10
1.8186e-10
1.81876e-10
1.81891e-10
1.81908e-10
1.81926e-10
1.81944e-10
1.81966e-10
1.8199e-10
1.82015e-10
1.82042e-10
1.82071e-10
1.82103e-10
1.82137e-10
1.82175e-10
1.82215e-10
1.8226e-10
1.82307e-10
1.82358e-10
1.82414e-10
1.82474e-10
1.8254e-10
1.82611e-10
1.82687e-10
1.8277e-10
1.82861e-10
1.82959e-10
1.83065e-10
1.83179e-10
1.83304e-10
1.83439e-10
1.83584e-10
1.83743e-10
1.83914e-10
1.84101e-10
1.84302e-10
1.8452e-10
1.84757e-10
1.85014e-10
1.85286e-10
1.85712e-10
1.8667e-10
1.87986e-10
1.89137e-10
1.9003e-10
1.90785e-10
1.91504e-10
1.92247e-10
1.93054e-10
1.93946e-10
1.9492e-10
1.95963e-10
1.97058e-10
1.98194e-10
1.99368e-10
2.00578e-10
2.01824e-10
2.03109e-10
2.04432e-10
)
;
    }
    inandouthalf21
    {
        type            cyclic;
        value           nonuniform List<scalar> 
100
(
-2.05798e-10
-2.07212e-10
-2.0868e-10
-2.10212e-10
-2.11817e-10
-2.13502e-10
-2.15276e-10
-2.17149e-10
-2.19127e-10
-2.2122e-10
-2.23438e-10
-2.2579e-10
-2.28289e-10
-2.30948e-10
-2.33782e-10
-2.36809e-10
-2.40049e-10
-2.43532e-10
-2.47298e-10
-2.51411e-10
-2.55954e-10
-2.61022e-10
-2.66676e-10
-2.7289e-10
-2.7953e-10
-2.86489e-10
-2.94017e-10
-3.03292e-10
-3.18015e-10
-3.52109e-10
-4.81626e-10
-1.33612e-09
-8.31974e-09
-4.0407e-08
-1.05169e-07
-1.84479e-07
-2.66847e-07
-3.49587e-07
-4.32539e-07
-5.15691e-07
-5.93005e-07
-6.58022e-07
-7.07241e-07
-7.2898e-07
-7.371e-07
-7.44068e-07
-7.51398e-07
-7.58993e-07
-7.67326e-07
-7.76683e-07
-7.90286e-07
-8.14997e-07
-8.48624e-07
-8.9662e-07
-9.43875e-07
-9.8942e-07
-1.02971e-06
-1.06475e-06
-1.09481e-06
-1.12005e-06
-1.1407e-06
-1.15727e-06
-1.17021e-06
-1.18041e-06
-1.18848e-06
-1.19513e-06
-1.20072e-06
-1.20558e-06
-1.20989e-06
-1.21373e-06
-1.21722e-06
-1.22037e-06
-1.22326e-06
-1.22588e-06
-1.2283e-06
-1.23052e-06
-1.23256e-06
-1.23443e-06
-1.23616e-06
-1.23775e-06
-1.23922e-06
-1.24057e-06
-1.24182e-06
-1.24298e-06
-1.24404e-06
-1.24503e-06
-1.24593e-06
-1.24677e-06
-1.24755e-06
-1.24827e-06
-1.24893e-06
-1.24954e-06
-1.2501e-06
-1.25063e-06
-1.25111e-06
-1.25155e-06
-1.25196e-06
-1.25235e-06
-1.2527e-06
-1.25302e-06
)
;
    }
    inandouthalf22
    {
        type            cyclic;
        value           nonuniform List<scalar> 
100
(
2.05798e-10
2.07212e-10
2.0868e-10
2.10212e-10
2.11817e-10
2.13502e-10
2.15276e-10
2.17149e-10
2.19127e-10
2.2122e-10
2.23438e-10
2.2579e-10
2.28289e-10
2.30948e-10
2.33782e-10
2.36809e-10
2.40049e-10
2.43532e-10
2.47298e-10
2.51411e-10
2.55954e-10
2.61022e-10
2.66676e-10
2.7289e-10
2.7953e-10
2.86489e-10
2.94017e-10
3.03292e-10
3.18015e-10
3.52109e-10
4.81626e-10
1.33612e-09
8.31974e-09
4.0407e-08
1.05169e-07
1.84479e-07
2.66847e-07
3.49587e-07
4.32539e-07
5.15691e-07
5.93005e-07
6.58022e-07
7.07241e-07
7.2898e-07
7.371e-07
7.44068e-07
7.51398e-07
7.58993e-07
7.67326e-07
7.76683e-07
7.90286e-07
8.14997e-07
8.48624e-07
8.9662e-07
9.43875e-07
9.8942e-07
1.02971e-06
1.06475e-06
1.09481e-06
1.12005e-06
1.1407e-06
1.15727e-06
1.17021e-06
1.18041e-06
1.18848e-06
1.19513e-06
1.20072e-06
1.20558e-06
1.20989e-06
1.21373e-06
1.21722e-06
1.22037e-06
1.22326e-06
1.22588e-06
1.2283e-06
1.23052e-06
1.23256e-06
1.23443e-06
1.23616e-06
1.23775e-06
1.23922e-06
1.24057e-06
1.24182e-06
1.24298e-06
1.24404e-06
1.24503e-06
1.24593e-06
1.24677e-06
1.24755e-06
1.24827e-06
1.24893e-06
1.24954e-06
1.2501e-06
1.25063e-06
1.25111e-06
1.25155e-06
1.25196e-06
1.25235e-06
1.2527e-06
1.25302e-06
)
;
    }
    inandouthalf31
    {
        type            cyclic;
        value           nonuniform List<scalar> 
110
(
-1.25332e-06
-1.27905e-06
-1.30528e-06
-1.33204e-06
-1.35933e-06
-1.38716e-06
-1.41554e-06
-1.44449e-06
-1.47402e-06
-1.50413e-06
-1.53485e-06
-1.56618e-06
-1.59813e-06
-1.63072e-06
-1.66397e-06
-1.69788e-06
-1.73247e-06
-1.76775e-06
-1.80374e-06
-1.84046e-06
-1.87791e-06
-1.91611e-06
-1.95509e-06
-1.99484e-06
-2.0354e-06
-2.07678e-06
-2.11899e-06
-2.16205e-06
-2.20598e-06
-2.2508e-06
-2.29652e-06
-2.34317e-06
-2.39076e-06
-2.43931e-06
-2.48885e-06
-2.53939e-06
-2.59095e-06
-2.64355e-06
-2.69723e-06
-2.75199e-06
-2.80786e-06
-2.86486e-06
-2.92301e-06
-2.98235e-06
-3.04289e-06
-3.10466e-06
-3.16768e-06
-3.23198e-06
-3.29758e-06
-3.36452e-06
-3.43281e-06
-3.50249e-06
-3.57358e-06
-3.64612e-06
-3.72013e-06
-3.79564e-06
-3.87268e-06
-3.95129e-06
-4.03149e-06
-4.11332e-06
-4.1968e-06
-4.28199e-06
-4.3689e-06
-4.45758e-06
-4.54806e-06
-4.64037e-06
-4.73456e-06
-4.83066e-06
-4.92871e-06
-5.02875e-06
-5.13082e-06
-5.23496e-06
-5.34121e-06
-5.44963e-06
-5.56024e-06
-5.6731e-06
-5.78825e-06
-5.90573e-06
-6.0256e-06
-6.14791e-06
-6.27269e-06
-6.40001e-06
-6.52991e-06
-6.66245e-06
-6.79768e-06
-6.93566e-06
-7.07643e-06
-7.22007e-06
-7.36661e-06
-7.51614e-06
-7.6687e-06
-7.82435e-06
-7.98316e-06
-8.1452e-06
-8.31053e-06
-8.47921e-06
-8.65131e-06
-8.82691e-06
-9.00607e-06
-9.18887e-06
-9.37538e-06
-9.56568e-06
-9.75984e-06
-9.95793e-06
-1.01601e-05
-1.03663e-05
-1.05767e-05
-1.07914e-05
-1.10104e-05
-1.12339e-05
)
;
    }
    inandouthalf32
    {
        type            cyclic;
        value           nonuniform List<scalar> 
110
(
1.25332e-06
1.27905e-06
1.30528e-06
1.33204e-06
1.35933e-06
1.38716e-06
1.41554e-06
1.44449e-06
1.47402e-06
1.50413e-06
1.53485e-06
1.56618e-06
1.59813e-06
1.63072e-06
1.66397e-06
1.69788e-06
1.73247e-06
1.76775e-06
1.80374e-06
1.84046e-06
1.87791e-06
1.91611e-06
1.95509e-06
1.99484e-06
2.0354e-06
2.07678e-06
2.11899e-06
2.16205e-06
2.20598e-06
2.2508e-06
2.29652e-06
2.34317e-06
2.39076e-06
2.43931e-06
2.48885e-06
2.53939e-06
2.59095e-06
2.64355e-06
2.69723e-06
2.75199e-06
2.80786e-06
2.86486e-06
2.92301e-06
2.98235e-06
3.04289e-06
3.10466e-06
3.16768e-06
3.23198e-06
3.29758e-06
3.36452e-06
3.43281e-06
3.50249e-06
3.57358e-06
3.64612e-06
3.72013e-06
3.79564e-06
3.87268e-06
3.95129e-06
4.03149e-06
4.11332e-06
4.1968e-06
4.28199e-06
4.3689e-06
4.45758e-06
4.54806e-06
4.64037e-06
4.73456e-06
4.83066e-06
4.92871e-06
5.02875e-06
5.13082e-06
5.23496e-06
5.34121e-06
5.44963e-06
5.56024e-06
5.6731e-06
5.78825e-06
5.90573e-06
6.0256e-06
6.14791e-06
6.27269e-06
6.40001e-06
6.52991e-06
6.66245e-06
6.79768e-06
6.93566e-06
7.07643e-06
7.22007e-06
7.36661e-06
7.51614e-06
7.6687e-06
7.82435e-06
7.98316e-06
8.1452e-06
8.31053e-06
8.47921e-06
8.65131e-06
8.82691e-06
9.00607e-06
9.18887e-06
9.37538e-06
9.56568e-06
9.75984e-06
9.95793e-06
1.01601e-05
1.03663e-05
1.05767e-05
1.07914e-05
1.10104e-05
1.12339e-05
)
;
    }
    inandouthalf41
    {
        type            cyclic;
        value           nonuniform List<scalar> 
50
(
-1.00555e-05
-1.00555e-05
-1.00555e-05
-1.00555e-05
-1.00555e-05
-1.00555e-05
-1.00555e-05
-1.00555e-05
-1.00555e-05
-1.00555e-05
-1.00555e-05
-1.00555e-05
-1.00555e-05
-1.00555e-05
-1.00555e-05
-1.00555e-05
-1.00555e-05
-1.00555e-05
-1.00555e-05
-1.00555e-05
-1.00555e-05
-1.00555e-05
-1.00555e-05
-1.00555e-05
-1.00555e-05
-1.00555e-05
-1.00555e-05
-1.00555e-05
-1.00555e-05
-1.00555e-05
-1.00555e-05
-1.00555e-05
-1.00555e-05
-1.00555e-05
-1.00555e-05
-1.00555e-05
-1.00555e-05
-1.00555e-05
-1.00555e-05
-1.00555e-05
-1.00555e-05
-1.00555e-05
-1.00555e-05
-1.00555e-05
-1.00555e-05
-1.00555e-05
-1.00555e-05
-1.00555e-05
-1.00555e-05
-1.00555e-05
)
;
    }
    inandouthalf42
    {
        type            cyclic;
        value           nonuniform List<scalar> 
50
(
1.00555e-05
1.00555e-05
1.00555e-05
1.00555e-05
1.00555e-05
1.00555e-05
1.00555e-05
1.00555e-05
1.00555e-05
1.00555e-05
1.00555e-05
1.00555e-05
1.00555e-05
1.00555e-05
1.00555e-05
1.00555e-05
1.00555e-05
1.00555e-05
1.00555e-05
1.00555e-05
1.00555e-05
1.00555e-05
1.00555e-05
1.00555e-05
1.00555e-05
1.00555e-05
1.00555e-05
1.00555e-05
1.00555e-05
1.00555e-05
1.00555e-05
1.00555e-05
1.00555e-05
1.00555e-05
1.00555e-05
1.00555e-05
1.00555e-05
1.00555e-05
1.00555e-05
1.00555e-05
1.00555e-05
1.00555e-05
1.00555e-05
1.00555e-05
1.00555e-05
1.00555e-05
1.00555e-05
1.00555e-05
1.00555e-05
1.00555e-05
)
;
    }
    top
    {
        type            symmetryPlane;
        value           uniform 0;
    }
    walls
    {
        type            fixedValue;
        value           uniform 0;
    }
    frontAndBackPlanes
    {
        type            empty;
        value           nonuniform 0();
    }
}


// ************************************************************************* //
