/*--------------------------------*- C++ -*----------------------------------*\
| =========                 |                                                 |
| \\      /  F ield         | OpenFOAM: The Open Source CFD Toolbox           |
|  \\    /   O peration     | Version:  2.4.x                                 |
|   \\  /    A nd           | Web:      www.OpenFOAM.org                      |
|    \\/     M anipulation  |                                                 |
\*---------------------------------------------------------------------------*/
FoamFile
{
    version     2.0;
    format      ascii;
    class       volTensorField;
    location    "1.05";
    object      Taus;
}
// * * * * * * * * * * * * * * * * * * * * * * * * * * * * * * * * * * * * * //

dimensions      [0 2 -2 0 0 0 0];

internalField   nonuniform List<tensor> 
360
(
(0 0.0225214 0 0.0225214 -0.159547 0 0 0 0)
(0 1.91569e-05 0 1.91569e-05 0.023382 0 0 0 0)
(0 0.00051789 0 0.00051789 -0.000322552 0 0 0 0)
(0 0.00107279 0 0.00107279 0.000347421 0 0 0 0)
(-1.48665e-15 0.00164564 0 0.00164564 -0.000849196 0 0 0 0)
(-1.4743e-15 0.00221123 0 0.00221123 -0.0018923 0 0 0 0)
(-1.46203e-15 0.0027709 0 0.0027709 -0.00289945 0 0 0 0)
(0 0.00332303 0 0.00332303 -0.00386027 0 0 0 0)
(-7.18751e-16 0.00386942 0 0.00386942 -0.0047762 0 0 0 0)
(0 0.00440823 0 0.00440823 -0.00567167 0 0 0 0)
(-7.06705e-16 0.00494032 0 0.00494032 -0.00652421 0 0 0 0)
(0 0.00546752 0 0.00546752 -0.00731226 0 0 0 0)
(-6.9552e-16 0.00598725 0 0.00598725 -0.00808331 0 0 0 0)
(0 0.00650107 0 0.00650107 -0.00883789 0 0 0 0)
(0 0.00700906 0 0.00700906 -0.00955303 0 0 0 0)
(0 0.00751122 0 0.00751122 -0.0102315 0 0 0 0)
(0 0.0080077 0 0.0080077 -0.0108746 0 0 0 0)
(-6.69109e-16 0.00849891 0 0.00849891 -0.0114821 0 0 0 0)
(0 0.00898514 0 0.00898514 -0.0120791 0 0 0 0)
(0 0.00946385 0 0.00946385 -0.0126626 0 0 0 0)
(0 0.00994037 0 0.00994037 -0.0132143 0 0 0 0)
(-6.49447e-16 0.0104094 0 0.0104094 -0.0137539 0 0 0 0)
(0 0.0108737 0 0.0108737 -0.0142849 0 0 0 0)
(0 0.0113332 0 0.0113332 -0.0147837 0 0 0 0)
(0 0.0117877 0 0.0117877 -0.0152529 0 0 0 0)
(-6.30811e-16 0.0122378 0 0.0122378 -0.0156921 0 0 0 0)
(0 0.012684 0 0.012684 -0.0161249 0 0 0 0)
(0 0.013123 0 0.013123 -0.0165708 0 0 0 0)
(0 0.013558 0 0.013558 -0.0170098 0 0 0 0)
(0 0.013989 0 0.013989 -0.017418 0 0 0 0)
(0 0.014416 0 0.014416 -0.0178219 0 0 0 0)
(0 0.0148353 0 0.0148353 -0.018215 0 0 0 0)
(0 0.0152555 0 0.0152555 -0.0186063 0 0 0 0)
(0 0.015664 0 0.015664 -0.0190057 0 0 0 0)
(0 0.0160735 0 0.0160735 -0.0194027 0 0 0 0)
(5.85259e-16 0.0164755 0 0.0164755 -0.0197873 0 0 0 0)
(0 0.0168752 0 0.0168752 -0.020187 0 0 0 0)
(0 0.0172679 0 0.0172679 -0.0206195 0 0 0 0)
(0 0.0176533 0 0.0176533 -0.0210592 0 0 0 0)
(0 0.0180412 0 0.0180412 -0.0214919 0 0 0 0)
(0 0.0184165 0 0.0184165 -0.0219502 0 0 0 0)
(0 0.0187896 0 0.0187896 -0.0224178 0 0 0 0)
(5.49862e-16 0.0191613 0 0.0191613 -0.0228932 0 0 0 0)
(0 0.0195208 0 0.0195208 -0.0234112 0 0 0 0)
(0 0.0198794 0 0.0198794 -0.0239557 0 0 0 0)
(0 0.0202309 0 0.0202309 -0.0245202 0 0 0 0)
(0 0.0205754 0 0.0205754 -0.0251028 0 0 0 0)
(0 0.02092 0 0.02092 -0.0257054 0 0 0 0)
(0 0.0212539 0 0.0212539 -0.0263819 0 0 0 0)
(0 0.0215769 0 0.0215769 -0.0271258 0 0 0 0)
(4.98796e-16 0.0219009 0 0.0219009 -0.0279005 0 0 0 0)
(0 0.0222134 0 0.0222134 -0.0287122 0 0 0 0)
(0 0.0225208 0 0.0225208 -0.0295863 0 0 0 0)
(0 0.022818 0 0.022818 -0.0305081 0 0 0 0)
(0 0.0231117 0 0.0231117 -0.0315027 0 0 0 0)
(0 0.0233897 0 0.0233897 -0.032568 0 0 0 0)
(0 0.0236655 0 0.0236655 -0.0337128 0 0 0 0)
(0 0.0239257 0 0.0239257 -0.0349331 0 0 0 0)
(0 0.0241781 0 0.0241781 -0.0362288 0 0 0 0)
(0 0.0244234 0 0.0244234 -0.0376105 0 0 0 0)
(0 0.0246488 0 0.0246488 -0.0390921 0 0 0 0)
(0 0.0248685 0 0.0248685 -0.0406751 0 0 0 0)
(0 0.0250703 0 0.0250703 -0.0423537 0 0 0 0)
(0 0.0252602 0 0.0252602 -0.0441313 0 0 0 0)
(0 0.0254359 0 0.0254359 -0.046021 0 0 0 0)
(0 0.0255948 0 0.0255948 -0.0480128 0 0 0 0)
(0 0.025737 0 0.025737 -0.0501612 0 0 0 0)
(0 0.0258545 0 0.0258545 -0.0523844 0 0 0 0)
(0 0.0259645 0 0.0259645 -0.0547795 0 0 0 0)
(0 0.0260518 0 0.0260518 -0.0571888 0 0 0 0)
(0 0.0261312 0 0.0261312 -0.0598864 0 0 0 0)
(0 0.0261854 0 0.0261854 -0.0624863 0 0 0 0)
(0 0.026339 0 0.026339 -0.0657009 0 0 0 0)
(0 0.0266107 0 0.0266107 -0.0689539 0 0 0 0)
(0 0.0272929 0 0.0272929 -0.0736646 0 0 0 0)
(0 0.0285289 0 0.0285289 -0.0789751 0 0 0 0)
(0 0.02946 0 0.02946 -0.08567 0 0 0 0)
(0 0.0285133 0 0.0285133 -0.0878026 0 0 0 0)
(0 0.026365 0 0.026365 -0.0871864 0 0 0 0)
(0 0.025536 0 0.025536 -0.0904517 0 0 0 0)
(0 0.021521 0 0.021521 -0.0804572 0 0 0 0)
(0 0.0206024 0 0.0206024 -0.0774516 0 0 0 0)
(0 0.0209713 0 0.0209713 -0.0761527 0 0 0 0)
(0 0.0224193 0 0.0224193 -0.0762171 0 0 0 0)
(0 0.0241278 0 0.0241278 -0.075687 0 0 0 0)
(0 0.0250635 0 0.0250635 -0.0742702 0 0 0 0)
(0 0.0250203 0 0.0250203 -0.0725878 0 0 0 0)
(0 0.0244414 0 0.0244414 -0.070885 0 0 0 0)
(0 0.023747 0 0.023747 -0.069193 0 0 0 0)
(0 0.0231594 0 0.0231594 -0.067542 0 0 0 0)
(0 0.0227451 0 0.0227451 -0.0659559 0 0 0 0)
(0 0.0224695 0 0.0224695 -0.0644228 0 0 0 0)
(0 0.022253 0 0.022253 -0.062907 0 0 0 0)
(0 0.0220277 0 0.0220277 -0.0613866 0 0 0 0)
(0 0.0217619 0 0.0217619 -0.0598555 0 0 0 0)
(0 0.0214578 0 0.0214578 -0.0583171 0 0 0 0)
(0 0.0211348 0 0.0211348 -0.0567764 0 0 0 0)
(0 0.0208109 0 0.0208109 -0.0552359 0 0 0 0)
(0 0.0204944 0 0.0204944 -0.0536956 0 0 0 0)
(0 0.0201844 0 0.0201844 -0.052154 0 0 0 0)
(0 0.0198767 0 0.0198767 -0.0506106 0 0 0 0)
(0 0.0195673 0 0.0195673 -0.0490658 0 0 0 0)
(0 0.0192549 0 0.0192549 -0.0475208 0 0 0 0)
(0 0.0189402 0 0.0189402 -0.045977 0 0 0 0)
(0 0.0186243 0 0.0186243 -0.0444352 0 0 0 0)
(0 0.0183083 0 0.0183083 -0.0428955 0 0 0 0)
(0 0.0179923 0 0.0179923 -0.0413577 0 0 0 0)
(0 0.0176762 0 0.0176762 -0.0398215 0 0 0 0)
(0 0.0173601 0 0.0173601 -0.0382864 0 0 0 0)
(0 0.0170439 0 0.0170439 -0.0367517 0 0 0 0)
(0 0.0167277 0 0.0167277 -0.035217 0 0 0 0)
(0 0.0164116 0 0.0164116 -0.0336816 0 0 0 0)
(0 0.0160955 0 0.0160955 -0.0321448 0 0 0 0)
(0 0.0157798 0 0.0157798 -0.0306061 0 0 0 0)
(0 0.0154655 0 0.0154655 -0.0290645 0 0 0 0)
(0 0.0151544 0 0.0151544 -0.0275184 0 0 0 0)
(0 0.0148482 0 0.0148482 -0.0259662 0 0 0 0)
(0 0.0145469 0 0.0145469 -0.0244062 0 0 0 0)
(0 0.0142469 0 0.0142469 -0.0228384 0 0 0 0)
(0 0.0139395 0 0.0139395 -0.0212654 0 0 0 0)
(0 0.013614 0 0.013614 -0.0196926 0 0 0 0)
(0 0.0132654 0 0.0132654 -0.0181223 0 0 0 0)
(0 0.0129089 0 0.0129089 -0.0165426 0 0 0 0)
(0 0.0125897 0 0.0125897 -0.0149136 0 0 0 0)
(0 0.0123723 0 0.0123723 -0.0131601 0 0 0 0)
(0 0.0123036 0 0.0123036 -0.0111696 0 0 0 0)
(0 0.0123593 0 0.0123593 -0.00882626 0 0 0 0)
(0 0.0124113 0 0.0124113 -0.00613236 0 0 0 0)
(0 0.0122582 0 0.0122582 -0.00340046 0 0 0 0)
(0 0.0117317 0 0.0117317 -0.00130735 0 0 0 0)
(0 0.0108058 0 0.0108058 -0.000314002 0 0 0 0)
(0 0.00966606 0 0.00966606 -5.56005e-05 0 0 0 0)
(0 0.00857208 0 0.00857208 -1.18567e-05 0 0 0 0)
(0 0.00800728 0 0.00800728 -5.6049e-06 0 0 0 0)
(0 0.0078013 0 0.0078013 -5.03295e-06 0 0 0 0)
(0 0.00709868 0 0.00709868 -4.83755e-06 0 0 0 0)
(0 0.00605309 0 0.00605309 -5.24107e-06 0 0 0 0)
(0 0.00495236 0 0.00495236 -1.13169e-05 0 0 0 0)
(0 0.0038743 0 0.0038743 -2.11517e-05 0 0 0 0)
(0 0.00274268 0 0.00274268 -1.84232e-05 0 0 0 0)
(0 0.0017991 0 0.0017991 -1.0911e-05 0 0 0 0)
(0 0.000905934 0 0.000905934 -1.01765e-05 0 0 0 0)
(0 0.000205203 0 0.000205203 -4.84606e-06 0 0 0 0)
(0 1.55182e-05 0 1.55182e-05 -5.5956e-07 0 0 0 0)
(0 1.43859e-06 0 1.43859e-06 -4.50328e-08 0 0 0 0)
(0 1.12216e-06 0 1.12216e-06 -3.30236e-08 0 0 0 0)
(0 1.1958e-06 0 1.1958e-06 -3.30918e-08 0 0 0 0)
(0 1.4055e-06 0 1.4055e-06 -3.84436e-08 0 0 0 0)
(0 1.81313e-06 0 1.81313e-06 -5.13569e-08 0 0 0 0)
(0 3.88615e-06 0 3.88615e-06 -8.71719e-08 0 0 0 0)
(0 1.71392e-05 0 1.71392e-05 -1.79138e-07 0 0 0 0)
(0 6.13484e-05 0 6.13484e-05 -8.19419e-07 0 0 0 0)
(0 0.000241824 0 0.000241824 -3.34755e-05 0 0 0 0)
(0 0.000386652 0 0.000386652 -4.56081e-05 0 0 0 0)
(0 0.0148819 0 0.0148819 -0.00175655 0 0 0 0)
(0 0.0324105 0 0.0324105 -0.00819549 0 0 0 0)
(0 0.0427603 0 0.0427603 -0.00842839 0 0 0 0)
(0 0.0482473 0 0.0482473 -0.00791647 0 0 0 0)
(0 0.054186 0 0.054186 -0.00781714 0 0 0 0)
(0 0.0546838 0 0.0546838 -0.00723828 0 0 0 0)
(0 0.0561196 0 0.0561196 -0.00707656 0 0 0 0)
(0 0.0569664 0 0.0569664 -0.00707093 0 0 0 0)
(0 0.0543395 0 0.0543395 -0.00675764 0 0 0 0)
(0 0.0551071 0 0.0551071 -0.00698212 0 0 0 0)
(0 0.0522903 0 0.0522903 -0.00680701 0 0 0 0)
(0 0.0520923 0 0.0520923 -0.00697908 0 0 0 0)
(0 0.048986 0 0.048986 -0.00677329 0 0 0 0)
(0 0.049449 0 0.049449 -0.00707768 0 0 0 0)
(0 0.0471689 0 0.0471689 -0.00697398 0 0 0 0)
(0 0.0455306 0 0.0455306 -0.0069399 0 0 0 0)
(0 0.0452498 0 0.0452498 -0.00712881 0 0 0 0)
(0 0.0427666 0 0.0427666 -0.00694854 0 0 0 0)
(0 0.0427847 0 0.0427847 -0.00717646 0 0 0 0)
(0 0.04054 0 0.04054 -0.00701898 0 0 0 0)
(0 0.0403743 0 0.0403743 -0.00721389 0 0 0 0)
(0 0.03813 0 0.03813 -0.00703356 0 0 0 0)
(0 0.0380459 0 0.0380459 -0.00725448 0 0 0 0)
(0 0.036157 0 0.036157 -0.00713219 0 0 0 0)
(0 0.0358703 0 0.0358703 -0.00731941 0 0 0 0)
(0 0.0337578 0 0.0337578 -0.00712867 0 0 0 0)
(0 0.0333951 0 0.0333951 -0.00731962 0 0 0 0)
(0 0.0323702 0 0.0323702 -0.00736698 0 0 0 0)
(0 0.0307601 0 0.0307601 -0.0072673 0 0 0 0)
(0 0.0303139 0 0.0303139 -0.0074518 0 0 0 0)
(0 0.0286057 0 0.0286057 -0.00732342 0 0 0 0)
(0 0.0282997 0 0.0282997 -0.0075554 0 0 0 0)
(0 0.0266734 0 0.0266734 -0.00742939 0 0 0 0)
(0 0.0261234 0 0.0261234 -0.00759396 0 0 0 0)
(0 0.0245562 0 0.0245562 -0.0074598 0 0 0 0)
(0 0.0242517 0 0.0242517 -0.0077061 0 0 0 0)
(0 0.0229 0 0.0229 -0.00760256 0 0 0 0)
(0 0.0222286 0 0.0222286 -0.00770223 0 0 0 0)
(0 0.0210194 0 0.0210194 -0.00760626 0 0 0 0)
(0 0.0208593 0 0.0208593 -0.00787214 0 0 0 0)
(0 0.0197251 0 0.0197251 -0.00771761 0 0 0 0)
(0 0.0188572 0 0.0188572 -0.00764609 0 0 0 0)
(0 0.0187944 0 0.0187944 -0.00787458 0 0 0 0)
(0 0.0180503 0 0.0180503 -0.00773928 0 0 0 0)
(0 0.0175437 0 0.0175437 -0.0076662 0 0 0 0)
(0 0.0176715 0 0.0176715 -0.00780903 0 0 0 0)
(0 0.0171841 0 0.0171841 -0.00758573 0 0 0 0)
(0 0.0170353 0 0.0170353 -0.00749779 0 0 0 0)
(-5.97216e-15 0.0173956 0 0.0173956 -0.00761958 0 0 0 0)
(0 0.0171889 0 0.0171889 -0.0074593 0 0 0 0)
(0 0.0172207 0 0.0172207 -0.00738637 0 0 0 0)
(6.20689e-15 0.0169414 0 0.0169414 -0.00718743 0 0 0 0)
(0 0.0174874 0 0.0174874 -0.00734422 0 0 0 0)
(-6.55192e-15 0.0175358 0 0.0175358 -0.00723038 0 0 0 0)
(0 0.017216 0 0.017216 -0.00695637 0 0 0 0)
(6.72767e-15 0.0176343 0 0.0176343 -0.00701587 0 0 0 0)
(0 0.0180947 0 0.0180947 -0.0070442 0 0 0 0)
(0 0.0179052 0 0.0179052 -0.00677744 0 0 0 0)
(0 0.0181084 0 0.0181084 -0.00669376 0 0 0 0)
(7.06413e-15 0.0187146 0 0.0187146 -0.00674255 0 0 0 0)
(0 0.0187356 0 0.0187356 -0.00653714 0 0 0 0)
(0 0.0190629 0 0.0190629 -0.00646036 0 0 0 0)
(0 0.0195903 0 0.0195903 -0.00643376 0 0 0 0)
(0 0.0197069 0 0.0197069 -0.00625619 0 0 0 0)
(0 0.0201718 0 0.0201718 -0.00619173 0 0 0 0)
(-7.0461e-15 0.0203977 0 0.0203977 -0.00605262 0 0 0 0)
(0 0.0210095 0 0.0210095 -0.00602965 0 0 0 0)
(-6.97502e-15 0.021329 0 0.021329 -0.00591662 0 0 0 0)
(0 0.0217954 0 0.0217954 -0.00583938 0 0 0 0)
(-1.36631e-14 0.0219957 0 0.0219957 -0.00569402 0 0 0 0)
(0 0.0225088 0 0.0225088 -0.00563899 0 0 0 0)
(0 0.0229697 0 0.0229697 -0.00557965 0 0 0 0)
(0 0.0236363 0 0.0236363 -0.00557521 0 0 0 0)
(0 0.0238235 0 0.0238235 -0.00544817 0 0 0 0)
(1.2651e-14 0.0238886 0 0.0238886 -0.0052902 0 0 0 0)
(0 0.0242225 0 0.0242225 -0.00522206 0 0 0 0)
(0 0.0252356 0 0.0252356 -0.00534124 0 0 0 0)
(0 0.0254435 0 0.0254435 -0.00524675 0 0 0 0)
(0 0.0251761 0 0.0251761 -0.00504907 0 0 0 0)
(0 0.0258362 0 0.0258362 -0.00510651 0 0 0 0)
(0 0.0262852 0 0.0262852 -0.00510341 0 0 0 0)
(0 0.0261585 0 0.0261585 -0.00497154 0 0 0 0)
(0 0.026619 0 0.026619 -0.00500257 0 0 0 0)
(0 0.0268617 0 0.0268617 -0.0049789 0 0 0 0)
(0 0.0267654 0 0.0267654 -0.00488745 0 0 0 0)
(0 0.0270972 0 0.0270972 -0.00490659 0 0 0 0)
(0 0.0272477 0 0.0272477 -0.0048896 0 0 0 0)
(0 0.0270624 0 0.0270624 -0.00480516 0 0 0 0)
(0 0.0267335 0 0.0267335 -0.00469577 0 0 0 0)
(-7.73893e-15 0.0266498 0 0.0266498 -0.0046525 0 0 0 0)
(7.34323e-15 0.0260618 0 0.0260618 -0.00450056 0 0 0 0)
(0 0.0251317 0 0.0251317 -0.00428128 0 0 0 0)
(0 0.0243386 0 0.0243386 -0.00410325 0 0 0 0)
(-1.20998e-14 0.0228282 0 0.0228282 -0.00378421 0 0 0 0)
(0 0.0205704 0 0.0205704 -0.00332757 0 0 0 0)
(0 0.0177971 0 0.0177971 -0.00279247 0 0 0 0)
(-8.75815e-15 0.0146079 0 0.0146079 -0.00216868 0 0 0 0)
(0 0.0132818 0 0.0132818 -0.00195433 0 0 0 0)
(0 0 0 0 -0 0 0 0 0)
(0 0 0 0 -0 0 0 0 0)
(0 0 0 0 -0 0 0 0 0)
(0 0 0 0 -0 0 0 0 0)
(0 0 0 0 0 0 0 0 0)
(0 0 0 0 0 0 0 0 0)
(0 0 0 0 -0 0 0 0 0)
(0 0 0 0 0 0 0 0 0)
(0 0 0 0 -0 0 0 0 0)
(0 0 0 0 0 0 0 0 0)
(0 0 0 0 -0 0 0 0 0)
(0 0 0 0 0 0 0 0 0)
(0 0 0 0 -0 0 0 0 0)
(0 0 0 0 0 0 0 0 0)
(0 0 0 0 -0 0 0 0 0)
(0 0 0 0 0 0 0 0 0)
(0 0 0 0 -0 0 0 0 0)
(0 0 0 0 0 0 0 0 0)
(0 0 0 0 -0 0 0 0 0)
(0 0 0 0 0 0 0 0 0)
(0 0 0 0 -0 0 0 0 0)
(0 0 0 0 0 0 0 0 0)
(0 0 0 0 -0 0 0 0 0)
(0 0 0 0 0 0 0 0 0)
(0 0 0 0 -0 0 0 0 0)
(0 0 0 0 0 0 0 0 0)
(0 0 0 0 -0 0 0 0 0)
(0 0 0 0 0 0 0 0 0)
(0 0 0 0 -0 0 0 0 0)
(0 0 0 0 0 0 0 0 0)
(0 0 0 0 -0 0 0 0 0)
(0 0 0 0 0 0 0 0 0)
(0 0 0 0 0 0 0 0 0)
(0 0 0 0 -0 0 0 0 0)
(0 0 0 0 -0 0 0 0 0)
(0 0 0 0 -0 0 0 0 0)
(0 0 0 0 -0 0 0 0 0)
(0 0 0 0 -0 0 0 0 0)
(0 0 0 0 -0 0 0 0 0)
(0 0 0 0 -0 0 0 0 0)
(0 0 0 0 -0 0 0 0 0)
(0 0 0 0 -0 0 0 0 0)
(0 0 0 0 -0 0 0 0 0)
(0 -0 0 -0 -0 0 0 0 0)
(0 0 0 0 -0 0 0 0 0)
(0 0 0 0 -0 0 0 0 0)
(0 0 0 0 -0 0 0 0 0)
(-0 -0 0 -0 -0 0 0 0 0)
(0 0 0 0 -0 0 0 0 0)
(0 0 0 0 -0 0 0 0 0)
(0 -0 0 -0 -0 0 0 0 0)
(0 0 0 0 -0 0 0 0 0)
(0 -0 0 -0 -0 0 0 0 0)
(0 -0 0 -0 -0 0 0 0 0)
(0 0 0 0 -0 0 0 0 0)
(0 0 0 0 -0 0 0 0 0)
(0 -0 0 -0 -0 0 0 0 0)
(0 -0 0 -0 -0 0 0 0 0)
(0 0 0 0 -0 0 0 0 0)
(0 -0 0 -0 -0 0 0 0 0)
(0 0 0 0 -0 0 0 0 0)
(0 0 0 0 -0 0 0 0 0)
(0 -0 0 -0 -0 0 0 0 0)
(0 -0 0 -0 -0 0 0 0 0)
(0 -0 0 -0 -0 0 0 0 0)
(0 -0 0 -0 -0 0 0 0 0)
(0 -0 0 -0 -0 0 0 0 0)
(0 -0 0 -0 -0 0 0 0 0)
(0 0 0 0 -0 0 0 0 0)
(0 0 0 0 -0 0 0 0 0)
(0 -0 0 -0 -0 0 0 0 0)
(0 -0 0 -0 -0 0 0 0 0)
(0 -0 0 -0 -0 0 0 0 0)
(0 0 0 0 -0 0 0 0 0)
(0 0 0 0 -0 0 0 0 0)
(0 0 0 0 -0 0 0 0 0)
(0 -0 0 -0 -0 0 0 0 0)
(0 -0 0 -0 -0 0 0 0 0)
(0 0 0 0 -0 0 0 0 0)
(0 0 0 0 -0 0 0 0 0)
(0 -0 0 -0 -0 0 0 0 0)
(0 0 0 0 -0 0 0 0 0)
(0 -0 0 -0 -0 0 0 0 0)
(0 -0 0 -0 -0 0 0 0 0)
(0 -0 0 -0 -0 0 0 0 0)
(0 -0 0 -0 -0 0 0 0 0)
(0 -0 0 -0 -0 0 0 0 0)
(0 0 0 0 -0 0 0 0 0)
(0 0 0 0 -0 0 0 0 0)
(0 0 0 0 -0 0 0 0 0)
(0 0 0 0 -0 0 0 0 0)
(0 -0 0 -0 -0 0 0 0 0)
(0 0 0 0 -0 0 0 0 0)
(0 0 0 0 -0 0 0 0 0)
(0 0 0 0 -0 0 0 0 0)
(0 0 0 0 -0 0 0 0 0)
(0 -0 0 -0 -0 0 0 0 0)
(0 -0 0 -0 -0 0 0 0 0)
(0 0 0 0 0 0 0 0 0)
(0 0 0 0 0 0 0 0 0)
(0 -0 0 -0 0 0 0 0 0)
(0 -0 0 -0 0 0 0 0 0)
(0 -0 0 -0 0 0 0 0 0)
(0 -0 0 -0 0 0 0 0 0)
(0 -0 0 -0 0 0 0 0 0)
(0 -0 0 -0 0 0 0 0 0)
(0 -0 0 -0 0 0 0 0 0)
(0 -0 0 -0 0 0 0 0 0)
)
;

boundaryField
{
    inandouthalf11
    {
        type            cyclic;
    }
    inandouthalf12
    {
        type            cyclic;
    }
    inandouthalf21
    {
        type            cyclic;
    }
    inandouthalf22
    {
        type            cyclic;
    }
    inandouthalf31
    {
        type            cyclic;
    }
    inandouthalf32
    {
        type            cyclic;
    }
    inandouthalf41
    {
        type            cyclic;
    }
    inandouthalf42
    {
        type            cyclic;
    }
    top
    {
        type            symmetryPlane;
    }
    walls
    {
        type            zeroGradient;
    }
    frontAndBackPlanes
    {
        type            empty;
    }
}


// ************************************************************************* //
