/*--------------------------------*- C++ -*----------------------------------*\
| =========                 |                                                 |
| \\      /  F ield         | OpenFOAM: The Open Source CFD Toolbox           |
|  \\    /   O peration     | Version:  2.4.x                                 |
|   \\  /    A nd           | Web:      www.OpenFOAM.org                      |
|    \\/     M anipulation  |                                                 |
\*---------------------------------------------------------------------------*/
FoamFile
{
    version     2.0;
    format      ascii;
    class       volScalarField;
    location    "1.05";
    object      Theta_0;
}
// * * * * * * * * * * * * * * * * * * * * * * * * * * * * * * * * * * * * * //

dimensions      [0 2 -2 0 0 0 0];

internalField   nonuniform List<scalar> 
360
(
6.66136e-21
6.66136e-21
6.66136e-21
6.66136e-21
6.66136e-21
6.66136e-21
6.66136e-21
6.66136e-21
6.66136e-21
6.66136e-21
6.66136e-21
6.66136e-21
6.66136e-21
6.66136e-21
6.66136e-21
6.66136e-21
6.66136e-21
6.66136e-21
6.66136e-21
6.66136e-21
6.66136e-21
6.66136e-21
6.66136e-21
6.66136e-21
6.66136e-21
6.66136e-21
6.66136e-21
6.66136e-21
6.66136e-21
6.66136e-21
6.66136e-21
6.66136e-21
6.66136e-21
6.66136e-21
6.66136e-21
6.66136e-21
6.66136e-21
6.66136e-21
6.66136e-21
6.66136e-21
6.66136e-21
6.66136e-21
6.66136e-21
6.66135e-21
6.66135e-21
6.66135e-21
6.66135e-21
6.66135e-21
6.66135e-21
6.66135e-21
6.66135e-21
6.66135e-21
6.66135e-21
6.66135e-21
6.66135e-21
6.66135e-21
6.66135e-21
6.66135e-21
6.66135e-21
6.66135e-21
6.66135e-21
6.66135e-21
6.66135e-21
6.66134e-21
6.66134e-21
6.66134e-21
6.66134e-21
6.66134e-21
6.66134e-21
6.66134e-21
6.66133e-21
6.66133e-21
6.66133e-21
6.66133e-21
6.66133e-21
6.66132e-21
6.66132e-21
6.66132e-21
6.66131e-21
6.66131e-21
6.68183e-21
7.31571e-21
9.78717e-21
1.03782e-20
8.50515e-21
7.49321e-21
7.17845e-21
7.12772e-21
7.20548e-21
7.36813e-21
7.57103e-21
7.75666e-21
7.88908e-21
7.97327e-21
8.03506e-21
8.0953e-21
8.1614e-21
8.23208e-21
8.30515e-21
8.38209e-21
0
0
0
0
0
0
0
0
0
0
0
0
0
0
0
1.43968e-20
1.54867e-20
1.6862e-20
1.87196e-20
2.13974e-20
2.53592e-20
3.09295e-20
3.74798e-20
4.26727e-20
4.44448e-20
4.5794e-20
5.98276e-20
1.67666e-19
2.52428e-18
2.89399e-15
2.65257e-11
2.6872e-08
2.50692e-06
3.45049e-05
0.000110426
0.00015857
0.000171675
0.000172094
0.000165356
0.000133392
8.50537e-05
3.82121e-05
6.76179e-06
2.69011e-07
1.03042e-08
7.51612e-09
8.61237e-09
1.09717e-08
1.62196e-08
4.69649e-08
3.57697e-07
2.09604e-06
1.28908e-05
0.000184981
0.000977783
0.00141284
0.00165875
0.00179401
0.00185888
0.00187468
0.0018587
0.00182168
0.00177087
0.00171284
0.00165047
0.00158691
0.00152338
0.00146157
0.00140162
0.00134415
0.00128953
0.0012376
0.00118868
0.00114247
0.00109911
0.00105831
0.00102015
0.000984356
0.000950895
0.000919539
0.000890281
0.000862923
0.000837332
0.000813448
0.000791102
0.000770248
0.000750724
0.000732481
0.000715394
0.00069942
0.000684435
0.000670391
0.000657202
0.000644825
0.000633164
0.000622179
0.000611831
0.000602041
0.000592776
0.000583999
0.000575652
0.000567629
0.000559838
0.000552246
0.000544847
0.00053762
0.000530563
0.000523644
0.000516847
0.000510169
0.000503587
0.000497078
0.000490636
0.000484245
0.000477882
0.000471538
0.000465197
0.000458838
0.000452454
0.000446022
0.000439533
0.000432967
0.00042631
0.000419544
0.000412656
0.000405627
0.000398441
0.000391077
0.00038352
0.00037575
0.000367751
0.000359494
0.000350958
0.000342124
0.000332962
0.000323441
0.000313535
0.000303205
0.000292412
0.000281113
0.000269256
0.00025678
0.000243616
0.000229684
0.000214881
0.00019908
0.000182125
0.000163796
0.000143789
0.000121639
9.65405e-05
6.67277e-05
0
0
0
0
0
0
0
0
0
0
0
0
0
0
0
0
0
0
0
0
0
0
0
0
0
0
0
0
0
0
0
0
0
0
0
0
0
0
0
0
0
0
0
0
0
0
0
0
0
0
0
0
0
0
0
0
0
0
0
0
0
0
0
0
0
0
0
0
0
0
0
0
0
0
0
0
0
0
0
0
0
0
0
0
0
0
0
0
0
0
0
0
0
0
0
0
0
0
0
0
0
0
0
0
0
0
0
0
)
;

boundaryField
{
    inandouthalf11
    {
        type            cyclic;
    }
    inandouthalf12
    {
        type            cyclic;
    }
    inandouthalf21
    {
        type            cyclic;
    }
    inandouthalf22
    {
        type            cyclic;
    }
    inandouthalf31
    {
        type            cyclic;
    }
    inandouthalf32
    {
        type            cyclic;
    }
    inandouthalf41
    {
        type            cyclic;
    }
    inandouthalf42
    {
        type            cyclic;
    }
    top
    {
        type            symmetryPlane;
    }
    walls
    {
        type            zeroGradient;
    }
    frontAndBackPlanes
    {
        type            empty;
    }
}


// ************************************************************************* //
