/*--------------------------------*- C++ -*----------------------------------*\
| =========                 |                                                 |
| \\      /  F ield         | OpenFOAM: The Open Source CFD Toolbox           |
|  \\    /   O peration     | Version:  2.4.x                                 |
|   \\  /    A nd           | Web:      www.OpenFOAM.org                      |
|    \\/     M anipulation  |                                                 |
\*---------------------------------------------------------------------------*/
FoamFile
{
    version     2.0;
    format      ascii;
    class       volVectorField;
    location    "1.05";
    object      U;
}
// * * * * * * * * * * * * * * * * * * * * * * * * * * * * * * * * * * * * * //

dimensions      [0 1 -1 0 0 0 0];

internalField   nonuniform List<vector> 
360
(
(7.07199e-05 3.65368e-14 0)
(7.08405e-05 1.09829e-13 0)
(7.08414e-05 1.83374e-13 0)
(7.08414e-05 2.57121e-13 0)
(7.08414e-05 3.30987e-13 0)
(7.08422e-05 4.04861e-13 0)
(7.08422e-05 4.78681e-13 0)
(7.0843e-05 5.52543e-13 0)
(7.0843e-05 6.2629e-13 0)
(7.08438e-05 7.00012e-13 0)
(7.08445e-05 7.73712e-13 0)
(7.08445e-05 8.47374e-13 0)
(7.08453e-05 9.20934e-13 0)
(7.08461e-05 9.94217e-13 0)
(7.08469e-05 1.06745e-12 0)
(7.08476e-05 1.14059e-12 0)
(7.08484e-05 1.21358e-12 0)
(7.08492e-05 1.28645e-12 0)
(7.085e-05 1.35903e-12 0)
(7.08515e-05 1.43149e-12 0)
(7.08523e-05 1.5038e-12 0)
(7.08539e-05 1.576e-12 0)
(7.08554e-05 1.64796e-12 0)
(7.0857e-05 1.71964e-12 0)
(7.08585e-05 1.79111e-12 0)
(7.08601e-05 1.86234e-12 0)
(7.08616e-05 1.9333e-12 0)
(7.0864e-05 2.00401e-12 0)
(7.08663e-05 2.07449e-12 0)
(7.08686e-05 2.1447e-12 0)
(7.0871e-05 2.21454e-12 0)
(7.08741e-05 2.28425e-12 0)
(7.08764e-05 2.35368e-12 0)
(7.08803e-05 2.42285e-12 0)
(7.08834e-05 2.49167e-12 0)
(7.08873e-05 2.56013e-12 0)
(7.08912e-05 2.62836e-12 0)
(7.08958e-05 2.69634e-12 0)
(7.09013e-05 2.76393e-12 0)
(7.09059e-05 2.83124e-12 0)
(7.09122e-05 2.89814e-12 0)
(7.09184e-05 2.96475e-12 0)
(7.09246e-05 3.03115e-12 0)
(7.09324e-05 3.09719e-12 0)
(7.09402e-05 3.16278e-12 0)
(7.09487e-05 3.22809e-12 0)
(7.09581e-05 3.29304e-12 0)
(7.09674e-05 3.3576e-12 0)
(7.09783e-05 3.42184e-12 0)
(7.09908e-05 3.4858e-12 0)
(7.10032e-05 3.54929e-12 0)
(7.10172e-05 3.61232e-12 0)
(7.1032e-05 3.67502e-12 0)
(7.10484e-05 3.73748e-12 0)
(7.10655e-05 3.79949e-12 0)
(7.1085e-05 3.86097e-12 0)
(7.11053e-05 3.92195e-12 0)
(7.11279e-05 3.98261e-12 0)
(7.11521e-05 4.04282e-12 0)
(7.11778e-05 4.1026e-12 0)
(7.12067e-05 4.16194e-12 0)
(7.12371e-05 4.22089e-12 0)
(7.12707e-05 4.27949e-12 0)
(7.13067e-05 4.33756e-12 0)
(7.13457e-05 4.39521e-12 0)
(7.1388e-05 4.4524e-12 0)
(7.14342e-05 4.50901e-12 0)
(7.14843e-05 4.56525e-12 0)
(7.15383e-05 4.62114e-12 0)
(7.15964e-05 4.67647e-12 0)
(7.16599e-05 4.73118e-12 0)
(7.1729e-05 4.78556e-12 0)
(7.18029e-05 4.8395e-12 0)
(7.18839e-05 4.8926e-12 0)
(7.19713e-05 4.94543e-12 0)
(7.20667e-05 3.9211e-12 0)
(7.21694e-05 3.03491e-11 0)
(7.22808e-05 -1.38004e-10 0)
(7.24019e-05 5.73571e-10 0)
(7.25335e-05 -2.43038e-09 0)
(7.26725e-05 1.01651e-08 0)
(7.2989e-05 1.36156e-07 0)
(7.39194e-05 1.05252e-07 0)
(7.52789e-05 -7.09265e-08 0)
(7.64622e-05 -9.86491e-08 0)
(7.73399e-05 -5.44023e-08 0)
(7.80446e-05 -1.87688e-08 0)
(7.86937e-05 2.83172e-09 0)
(7.93625e-05 1.54451e-08 0)
(8.00985e-05 2.04681e-08 0)
(8.09235e-05 1.85506e-08 0)
(8.18354e-05 1.27356e-08 0)
(8.28169e-05 7.18623e-09 0)
(8.38487e-05 4.11563e-09 0)
(8.49191e-05 3.31961e-09 0)
(8.60238e-05 3.56842e-09 0)
(8.7163e-05 3.85572e-09 0)
(8.83378e-05 3.84341e-09 0)
(8.95491e-05 3.71556e-09 0)
(9.07984e-05 3.80629e-09 0)
(9.20884e-05 4.29899e-09 0)
(9.34242e-05 5.1612e-09 0)
(9.48125e-05 6.22278e-09 0)
(9.62617e-05 7.28795e-09 0)
(9.77804e-05 8.22749e-09 0)
(9.93772e-05 8.99675e-09 0)
(0.000101061 9.60356e-09 0)
(0.000102839 1.00787e-08 0)
(0.000104721 1.04597e-08 0)
(0.000106714 1.07845e-08 0)
(0.000108829 1.10886e-08 0)
(0.000111075 1.13923e-08 0)
(0.000113464 1.16855e-08 0)
(0.00011601 1.19321e-08 0)
(0.000118727 1.21182e-08 0)
(0.000121633 1.23476e-08 0)
(0.000124748 1.29439e-08 0)
(0.000128101 1.44517e-08 0)
(0.000131733 1.73852e-08 0)
(0.000135706 2.15943e-08 0)
(0.000140101 2.52444e-08 0)
(0.000145012 2.38835e-08 0)
(0.000150502 1.15292e-08 0)
(0.000156549 -1.31758e-08 0)
(0.000163029 -3.86933e-08 0)
(0.000169842 -4.49081e-08 0)
(0.000177238 -1.981e-08 0)
(0.000186376 4.4855e-08 0)
(0.000200896 1.99557e-07 0)
(0.000234494 5.54411e-07 0)
(0.000362001 1.00498e-06 0)
(0.00120187 5.01141e-07 0)
(0.00809387 -1.78826e-06 0)
(0.0399702 -1.17711e-06 0)
(0.104598 -5.36288e-08 0)
(0.183881 5.00661e-07 0)
(0.266255 1.2318e-06 0)
(0.349007 2.29507e-06 0)
(0.431951 -6.94118e-06 0)
(0.515089 5.47438e-06 0)
(0.592486 -1.29688e-06 0)
(0.657595 -1.51512e-05 0)
(0.707007 2.37751e-06 0)
(0.72896 1.19101e-05 0)
(0.737105 5.44973e-06 0)
(0.744073 -5.60016e-06 0)
(0.751402 8.04287e-06 0)
(0.758997 -8.0217e-06 0)
(0.767331 5.26173e-06 0)
(0.776696 -5.34524e-06 0)
(0.790331 5.25341e-06 0)
(0.815125 0.000139927 0)
(0.848771 -0.000643088 0)
(0.896873 0.00226053 0)
(0.943998 -0.00218663 0)
(0.989534 0.0019519 0)
(1.02982 -0.00172903 0)
(1.06486 0.00152707 0)
(1.09492 -0.00134358 0)
(1.12016 0.00117771 0)
(1.14081 -0.00102798 0)
(1.15738 0.000893342 0)
(1.17033 -0.00077247 0)
(1.18054 0.000664419 0)
(1.18862 -0.000568025 0)
(1.19527 0.000482401 0)
(1.20086 -0.000406558 0)
(1.20573 0.000339684 0)
(1.21004 -0.000280915 0)
(1.21388 0.000229522 0)
(1.21737 -0.000184773 0)
(1.22052 0.000146021 0)
(1.22341 -0.00011264 0)
(1.22604 8.40687e-05 0)
(1.22846 -5.97742e-05 0)
(1.23068 3.92804e-05 0)
(1.23272 -2.21391e-05 0)
(1.23459 7.95296e-06 0)
(1.23632 3.64962e-06 0)
(1.23791 -1.29957e-05 0)
(1.23938 2.03893e-05 0)
(1.24074 -2.61032e-05 0)
(1.24199 3.04984e-05 0)
(1.24314 -3.4034e-05 0)
(1.24421 3.67145e-05 0)
(1.24519 -3.84734e-05 0)
(1.2461 3.8473e-05 0)
(1.24694 -3.74141e-05 0)
(1.24772 3.6047e-05 0)
(1.24843 -3.45194e-05 0)
(1.24909 3.29104e-05 0)
(1.24971 -3.12546e-05 0)
(1.25027 2.95833e-05 0)
(1.25079 -2.79238e-05 0)
(1.25128 2.62914e-05 0)
(1.25172 -2.46502e-05 0)
(1.25213 2.29761e-05 0)
(1.25251 -2.12975e-05 0)
(1.25286 1.96386e-05 0)
(1.25319 -1.80179e-05 0)
(1.25349 1.64506e-05 0)
(1.25377 -1.52646e-05 0)
(1.25403 1.41238e-05 0)
(1.25428 -1.30312e-05 0)
(1.25451 1.19897e-05 0)
(1.25473 -1.10007e-05 0)
(1.25493 1.00652e-05 0)
(1.25512 -9.18308e-06 0)
(1.2553 8.35419e-06 0)
(1.25546 -7.57784e-06 0)
(1.25561 6.85318e-06 0)
(1.25575 -6.17865e-06 0)
(1.25588 5.55265e-06 0)
(1.256 -4.97332e-06 0)
(1.25611 4.43894e-06 0)
(1.25621 -3.94752e-06 0)
(1.2563 3.49709e-06 0)
(1.25639 -3.08546e-06 0)
(1.25646 2.71057e-06 0)
(1.25653 -2.37025e-06 0)
(1.2566 2.06247e-06 0)
(1.25666 -1.78508e-06 0)
(1.25671 1.53612e-06 0)
(1.25675 -1.31352e-06 0)
(1.2568 1.1154e-06 0)
(1.25683 -9.39817e-07 0)
(1.25687 7.85032e-07 0)
(1.2569 -6.49241e-07 0)
(1.25692 5.30821e-07 0)
(1.25695 -4.28137e-07 0)
(1.25697 3.39736e-07 0)
(1.25699 -2.64133e-07 0)
(1.257 2.00026e-07 0)
(1.25702 -1.46122e-07 0)
(1.25703 1.01297e-07 0)
(1.25704 -6.44172e-08 0)
(1.25705 3.4513e-08 0)
(1.25706 -1.06163e-08 0)
(1.25707 -8.07456e-09 0)
(1.25707 2.23523e-08 0)
(1.25708 -3.28448e-08 0)
(1.25708 4.05529e-08 0)
(1.25708 -4.62165e-08 0)
(1.25709 4.97882e-08 0)
(1.25709 -4.94105e-08 0)
(1.25709 4.81278e-08 0)
(1.25709 -4.65312e-08 0)
(1.2571 4.48231e-08 0)
(1.2571 -4.26686e-08 0)
(1.2571 4.02316e-08 0)
(1.2571 -3.75953e-08 0)
(1.2571 3.48804e-08 0)
(1.2571 -3.2131e-08 0)
(1.2571 2.94332e-08 0)
(1.2571 -2.67965e-08 0)
(1.2571 2.42814e-08 0)
(1.2571 -2.18849e-08 0)
(1.2571 1.96449e-08 0)
(1.2571 -1.75477e-08 0)
(1.2571 1.56185e-08 0)
(1.2571 -1.3837e-08 0)
(1.2571 1.222e-08 0)
(1.2571 -1.07439e-08 0)
(1.2571 9.41981e-09 0)
(1.2571 -8.22324e-09 0)
(1.2571 7.16161e-09 0)
(1.2571 -6.21076e-09 0)
(1.2571 5.37626e-09 0)
(1.2571 -4.63488e-09 0)
(1.2571 3.99151e-09 0)
(1.2571 -3.42415e-09 0)
(1.2571 2.9376e-09 0)
(1.2571 -2.49683e-09 0)
(1.2571 2.09224e-09 0)
(1.2571 -1.71296e-09 0)
(1.2571 1.3722e-09 0)
(1.2571 -1.05992e-09 0)
(1.2571 7.89016e-10 0)
(1.2571 -5.50247e-10 0)
(1.2571 3.55966e-10 0)
(1.2571 -1.97905e-10 0)
(1.2571 8.78137e-11 0)
(1.2571 -1.84377e-11 0)
(1.2571 1.63077e-12 0)
(1.2571 9.76682e-13 0)
(1.2571 9.25261e-13 0)
(1.2571 8.82153e-13 0)
(1.2571 8.3219e-13 0)
(1.2571 7.64581e-13 0)
(1.2571 7.01504e-13 0)
(1.2571 6.31142e-13 0)
(1.2571 5.55159e-13 0)
(1.2571 4.76965e-13 0)
(1.2571 3.99411e-13 0)
(1.2571 3.20586e-13 0)
(1.2571 2.47196e-13 0)
(1.2571 2.0468e-13 0)
(1.2571 1.86317e-13 0)
(1.2571 1.68775e-13 0)
(1.2571 1.20419e-13 0)
(1.2571 7.44376e-14 0)
(1.2571 6.43253e-14 0)
(1.2571 5.29318e-14 0)
(1.2571 4.14462e-14 0)
(1.2571 3.15592e-14 0)
(1.2571 2.35715e-14 0)
(1.2571 1.58458e-14 0)
(1.2571 8.42047e-15 0)
(1.2571 1.01204e-15 0)
(1.2571 -6.14978e-15 0)
(1.2571 -1.26476e-14 0)
(1.2571 -1.86646e-14 0)
(1.2571 -2.48895e-14 0)
(1.2571 -3.14495e-14 0)
(1.2571 -3.76347e-14 0)
(1.2571 -4.32184e-14 0)
(1.2571 -4.879e-14 0)
(1.2571 -5.39577e-14 0)
(1.2571 -5.85361e-14 0)
(1.2571 -6.26284e-14 0)
(1.2571 -6.79781e-14 0)
(1.2571 -7.4709e-14 0)
(1.2571 -8.10077e-14 0)
(1.2571 -8.65245e-14 0)
(1.2571 -9.3453e-14 0)
(1.2571 -1.02207e-13 0)
(1.2571 -1.11678e-13 0)
(1.2571 -1.32242e-13 0)
(1.2571 -1.79243e-13 0)
(1.2571 -2.49975e-13 0)
(1.2571 -3.2873e-13 0)
(1.2571 -4.01202e-13 0)
(1.2571 -4.75356e-13 0)
(1.2571 -5.46491e-13 0)
(1.2571 -6.06242e-13 0)
(1.2571 -6.51995e-13 0)
(1.2571 -7.10139e-13 0)
(1.2571 -7.76779e-13 0)
(1.2571 -8.2541e-13 0)
(1.2571 -8.50033e-13 0)
(1.2571 -8.72893e-13 0)
(1.2571 -8.89932e-13 0)
(1.2571 -8.83157e-13 0)
(1.2571 -8.5515e-13 0)
(1.2571 -8.59629e-13 0)
(1.2571 -8.91812e-13 0)
(1.2571 -9.02812e-13 0)
(1.2571 -8.75833e-13 0)
(1.2571 -8.4707e-13 0)
(1.2571 -8.16461e-13 0)
(1.2571 -7.51065e-13 0)
(1.2571 -6.79962e-13 0)
(1.2571 -5.84352e-13 0)
(1.2571 -4.70167e-13 0)
(1.2571 -3.56008e-13 0)
(1.2571 -3.01943e-13 0)
(1.2571 -1.50521e-13 0)
(1.2571 -9.32677e-14 0)
(1.2571 -4.98344e-13 0)
(1.2571 -4.04906e-13 0)
)
;

boundaryField
{
    inandouthalf11
    {
        type            cyclic;
    }
    inandouthalf12
    {
        type            cyclic;
    }
    inandouthalf21
    {
        type            cyclic;
    }
    inandouthalf22
    {
        type            cyclic;
    }
    inandouthalf31
    {
        type            cyclic;
    }
    inandouthalf32
    {
        type            cyclic;
    }
    inandouthalf41
    {
        type            cyclic;
    }
    inandouthalf42
    {
        type            cyclic;
    }
    top
    {
        type            symmetryPlane;
    }
    walls
    {
        type            calculated;
        value           uniform (0 0 0);
    }
    frontAndBackPlanes
    {
        type            empty;
    }
}


// ************************************************************************* //
