/*--------------------------------*- C++ -*----------------------------------*\
| =========                 |                                                 |
| \\      /  F ield         | OpenFOAM: The Open Source CFD Toolbox           |
|  \\    /   O peration     | Version:  2.4.x                                 |
|   \\  /    A nd           | Web:      www.OpenFOAM.org                      |
|    \\/     M anipulation  |                                                 |
\*---------------------------------------------------------------------------*/
FoamFile
{
    version     2.0;
    format      ascii;
    class       volVectorField;
    location    "1.05";
    object      Ua;
}
// * * * * * * * * * * * * * * * * * * * * * * * * * * * * * * * * * * * * * //

dimensions      [0 1 -1 0 0 0 0];

internalField   nonuniform List<vector> 
360
(
(8.80591e-37 -3.1206e-36 0)
(8.80569e-37 -3.11765e-36 0)
(8.80596e-37 -3.11773e-36 0)
(8.80679e-37 -3.11768e-36 0)
(8.80824e-37 -3.1177e-36 0)
(8.81032e-37 -3.11777e-36 0)
(8.81302e-37 -3.1179e-36 0)
(8.81636e-37 -3.11809e-36 0)
(8.82033e-37 -3.11833e-36 0)
(8.82493e-37 -3.11862e-36 0)
(8.83018e-37 -3.11896e-36 0)
(8.83607e-37 -3.11935e-36 0)
(8.8426e-37 -3.11979e-36 0)
(8.84978e-37 -3.12028e-36 0)
(8.85761e-37 -3.12081e-36 0)
(8.8661e-37 -3.12139e-36 0)
(8.87523e-37 -3.12201e-36 0)
(8.88502e-37 -3.12267e-36 0)
(8.89547e-37 -3.12338e-36 0)
(8.90657e-37 -3.12412e-36 0)
(8.91834e-37 -3.12491e-36 0)
(8.93077e-37 -3.12573e-36 0)
(8.94387e-37 -3.12659e-36 0)
(8.95765e-37 -3.1275e-36 0)
(8.97209e-37 -3.12843e-36 0)
(8.98721e-37 -3.12941e-36 0)
(9.003e-37 -3.13042e-36 0)
(9.01947e-37 -3.13146e-36 0)
(9.03662e-37 -3.13254e-36 0)
(9.05447e-37 -3.13365e-36 0)
(9.073e-37 -3.1348e-36 0)
(9.09223e-37 -3.13599e-36 0)
(9.11216e-37 -3.13721e-36 0)
(9.13279e-37 -3.13846e-36 0)
(9.15414e-37 -3.13975e-36 0)
(9.1762e-37 -3.14108e-36 0)
(9.19898e-37 -3.14245e-36 0)
(9.2225e-37 -3.14385e-36 0)
(9.24677e-37 -3.1453e-36 0)
(9.27179e-37 -3.14679e-36 0)
(9.29758e-37 -3.14833e-36 0)
(9.32414e-37 -3.14991e-36 0)
(9.3515e-37 -3.15154e-36 0)
(9.37966e-37 -3.15323e-36 0)
(9.40865e-37 -3.15497e-36 0)
(9.43848e-37 -3.15677e-36 0)
(9.46918e-37 -3.15864e-36 0)
(9.50077e-37 -3.16057e-36 0)
(9.53327e-37 -3.16258e-36 0)
(9.56673e-37 -3.16467e-36 0)
(9.60119e-37 -3.16685e-36 0)
(9.63668e-37 -3.16912e-36 0)
(9.67325e-37 -3.1715e-36 0)
(9.71095e-37 -3.174e-36 0)
(9.74985e-37 -3.17662e-36 0)
(9.79001e-37 -3.17939e-36 0)
(9.83153e-37 -3.18231e-36 0)
(9.87449e-37 -3.18541e-36 0)
(9.91901e-37 -3.1887e-36 0)
(9.96521e-37 -3.1922e-36 0)
(1.00132e-36 -3.19595e-36 0)
(1.00633e-36 -3.19998e-36 0)
(1.01156e-36 -3.20432e-36 0)
(1.01704e-36 -3.20903e-36 0)
(1.0228e-36 -3.21414e-36 0)
(1.02888e-36 -3.21974e-36 0)
(1.03532e-36 -3.22589e-36 0)
(1.04221e-36 -3.23273e-36 0)
(1.04959e-36 -3.24034e-36 0)
(1.0576e-36 -3.24897e-36 0)
(1.06632e-36 -3.25871e-36 0)
(1.07608e-36 -3.27014e-36 0)
(1.08696e-36 -3.28333e-36 0)
(1.09997e-36 -3.29993e-36 0)
(1.1157e-36 -3.32057e-36 0)
(1.13906e-36 -3.35268e-36 0)
(1.18108e-36 -3.41106e-36 0)
(1.33616e-36 -3.63927e-36 0)
(2.50243e-36 -5.44551e-36 0)
(5.4516e-35 -9.15693e-35 0)
(2.4999e-25 -4.42747e-25 0)
(2.01571e-07 -3.76792e-07 0)
(1.1028e-06 -2.07291e-06 0)
(2.50662e-06 -4.56193e-06 0)
(3.72343e-06 -6.52747e-06 0)
(4.58587e-06 -7.82317e-06 0)
(5.23726e-06 -8.77043e-06 0)
(5.81425e-06 -9.60503e-06 0)
(6.40582e-06 -1.0465e-05 0)
(7.06725e-06 -1.14305e-05 0)
(7.82381e-06 -1.25327e-05 0)
(8.67202e-06 -1.37572e-05 0)
(9.59077e-06 -1.50657e-05 0)
(1.05578e-05 -1.64227e-05 0)
(1.15599e-05 -1.78095e-05 0)
(1.25931e-05 -1.92217e-05 0)
(1.36584e-05 -2.06611e-05 0)
(1.47577e-05 -2.21292e-05 0)
(1.58923e-05 -2.36257e-05 0)
(1.70634e-05 -2.51497e-05 0)
(1.82735e-05 -2.6702e-05 0)
(1.95271e-05 -2.82862e-05 0)
(2.08309e-05 -2.99084e-05 0)
(2.2193e-05 -3.15759e-05 0)
(2.36219e-05 -3.3296e-05 0)
(2.51265e-05 -3.50754e-05 0)
(2.67148e-05 -3.69193e-05 0)
(2.83952e-05 -3.88322e-05 0)
(3.01759e-05 -4.08178e-05 0)
(3.20651e-05 -4.28791e-05 0)
(3.40722e-05 -4.50186e-05 0)
(3.62071e-05 -4.72391e-05 0)
(3.84814e-05 -4.95432e-05 0)
(4.09081e-05 -5.19335e-05 0)
(4.35022e-05 -5.44124e-05 0)
(4.62808e-05 -5.69819e-05 0)
(4.92646e-05 -5.96442e-05 0)
(5.24817e-05 -6.24039e-05 0)
(5.59728e-05 -6.52716e-05 0)
(5.9798e-05 -6.8268e-05 0)
(6.40384e-05 -7.14238e-05 0)
(6.87852e-05 -7.47681e-05 0)
(7.41032e-05 -7.82987e-05 0)
(7.99756e-05 -8.19382e-05 0)
(8.62873e-05 -8.55153e-05 0)
(9.29487e-05 -8.88378e-05 0)
(0.000100213 -9.18365e-05 0)
(0.000109225 -9.46497e-05 0)
(0.000123588 -9.76113e-05 0)
(0.000156884 -0.00010126 0)
(0.000283477 -0.00010652 0)
(0.00111785 -0.000115222 0)
(0.00798046 -0.000128657 0)
(0.0397973 -0.000141972 0)
(0.10439 -0.000162399 0)
(0.183666 -0.00018838 0)
(0.266039 -0.000217479 0)
(0.34879 -0.000259866 0)
(0.431722 -0.000406783 0)
(0.514819 -0.000713084 0)
(0.59223 -0.000945869 0)
(0.657361 -0.00114532 0)
(0.706831 -0.00158953 0)
(0.728868 -0.00198967 0)
(0.737015 -0.00213372 0)
(0.743979 -0.00222619 0)
(0.751303 -0.00234397 0)
(0.758896 -0.00243259 0)
(0.767226 -0.00256173 0)
(0.776592 -0.00268321 0)
(0.790248 -0.00281993 0)
(0.81511 -0.00288451 0)
(0.848769 -0.00321077 0)
(0.897684 -0.0085998 0)
(0.934034 -0.00823954 0)
(0.964179 -0.0125241 0)
(0.989869 -0.0152989 0)
(1.01242 -0.0172787 0)
(1.03238 -0.0187862 0)
(1.05015 -0.0199998 0)
(1.06588 -0.0210038 0)
(1.07982 -0.0218709 0)
(1.09218 -0.0226358 0)
(1.1031 -0.0233183 0)
(1.11281 -0.0239429 0)
(1.12145 -0.0245125 0)
(1.12917 -0.0250386 0)
(1.13607 -0.0255236 0)
(1.14229 -0.0259776 0)
(1.14789 -0.0263972 0)
(1.15294 -0.0267895 0)
(1.15752 -0.0271558 0)
(1.16166 -0.0274978 0)
(1.16542 -0.0278187 0)
(1.16884 -0.028119 0)
(1.17194 -0.028401 0)
(1.17476 -0.0286654 0)
(1.17733 -0.0289146 0)
(1.17966 -0.0291489 0)
(1.18179 -0.0293697 0)
(1.18372 -0.0295771 0)
(1.18548 -0.0297738 0)
(1.18708 -0.0299592 0)
(1.18853 -0.0301343 0)
(1.18985 -0.0303001 0)
(1.19105 -0.0304569 0)
(1.19214 -0.0306058 0)
(1.19313 -0.0307467 0)
(1.19403 -0.0308804 0)
(1.19485 -0.0310074 0)
(1.19559 -0.0311283 0)
(1.19627 -0.031243 0)
(1.19688 -0.031352 0)
(1.19744 -0.0314559 0)
(1.19796 -0.0315552 0)
(1.19843 -0.0316488 0)
(1.19886 -0.0317384 0)
(1.19927 -0.0318241 0)
(1.19964 -0.031905 0)
(1.19999 -0.0319824 0)
(1.20032 -0.0320561 0)
(1.20064 -0.0321261 0)
(1.20095 -0.0321946 0)
(1.20126 -0.0322612 0)
(1.20156 -0.0323256 0)
(1.20185 -0.0323877 0)
(1.20213 -0.0324482 0)
(1.20242 -0.0325079 0)
(1.2027 -0.032565 0)
(1.20298 -0.0326204 0)
(1.20326 -0.0326754 0)
(1.20353 -0.0327288 0)
(1.20381 -0.0327801 0)
(1.20409 -0.0328312 0)
(1.20437 -0.0328812 0)
(1.20465 -0.0329295 0)
(1.20494 -0.0329778 0)
(1.20523 -0.033025 0)
(1.20553 -0.0330714 0)
(1.20583 -0.033117 0)
(1.20614 -0.0331623 0)
(1.20646 -0.0332074 0)
(1.20679 -0.0332521 0)
(1.20713 -0.0332964 0)
(1.20747 -0.0333404 0)
(1.20783 -0.0333844 0)
(1.2082 -0.0334291 0)
(1.20859 -0.0334741 0)
(1.20899 -0.0335186 0)
(1.20939 -0.0335626 0)
(1.20982 -0.0336081 0)
(1.21027 -0.0336558 0)
(1.21073 -0.033702 0)
(1.2112 -0.0337488 0)
(1.2117 -0.0337984 0)
(1.21222 -0.0338478 0)
(1.21275 -0.033898 0)
(1.21332 -0.0339512 0)
(1.2139 -0.0340044 0)
(1.21451 -0.0340595 0)
(1.21515 -0.0341172 0)
(1.21581 -0.0341765 0)
(1.21649 -0.034237 0)
(1.2172 -0.034299 0)
(1.21795 -0.0343643 0)
(1.21871 -0.0344288 0)
(1.21949 -0.0344951 0)
(1.22029 -0.0345623 0)
(1.22109 -0.0346275 0)
(1.22186 -0.034689 0)
(1.22259 -0.0347454 0)
(1.22327 -0.0347938 0)
(1.22417 -0.0348616 0)
(1.25184 -0.0391881 0)
(1.25364 -0.0395145 0)
(1.25364 -0.0395146 0)
(1.25364 -0.0395146 0)
(1.25364 -0.0395146 0)
(1.25364 -0.0395146 0)
(1.25364 -0.0395146 0)
(1.25364 -0.0395146 0)
(1.25364 -0.0395146 0)
(1.25364 -0.0395146 0)
(1.25364 -0.0395146 0)
(1.25365 -0.0395146 0)
(1.25365 -0.0395146 0)
(1.25365 -0.0395146 0)
(1.25365 -0.0395146 0)
(1.25365 -0.0395146 0)
(1.25365 -0.0395146 0)
(1.25365 -0.0395146 0)
(1.25365 -0.0395146 0)
(1.25365 -0.0395146 0)
(1.25365 -0.0395146 0)
(1.25365 -0.0395146 0)
(1.25365 -0.0395146 0)
(1.25365 -0.0395146 0)
(1.25365 -0.0395146 0)
(1.25365 -0.0395146 0)
(1.25365 -0.0395146 0)
(1.25365 -0.0395146 0)
(1.25365 -0.0395146 0)
(1.25365 -0.0395146 0)
(1.25365 -0.0395146 0)
(1.25365 -0.0395146 0)
(1.25365 -0.0395146 0)
(1.25365 -0.0395146 0)
(1.25365 -0.0395146 0)
(1.25365 -0.0395146 0)
(1.25365 -0.0395146 0)
(1.25365 -0.0395146 0)
(1.25365 -0.0395146 0)
(1.25365 -0.0395146 0)
(1.25365 -0.0395146 0)
(1.25365 -0.0395146 0)
(1.25365 -0.0395146 0)
(1.25365 -0.0395146 0)
(1.25365 -0.0395146 0)
(1.25365 -0.0395146 0)
(1.25365 -0.0395146 0)
(1.25365 -0.0395146 0)
(1.25365 -0.0395146 0)
(1.25365 -0.0395146 0)
(1.25365 -0.0395146 0)
(1.25365 -0.0395146 0)
(1.25365 -0.0395146 0)
(1.25365 -0.0395146 0)
(1.25365 -0.0395146 0)
(1.25365 -0.0395146 0)
(1.25365 -0.0395146 0)
(1.25365 -0.0395146 0)
(1.25365 -0.0395146 0)
(1.25365 -0.0395146 0)
(1.25365 -0.0395146 0)
(1.25365 -0.0395146 0)
(1.25365 -0.0395146 0)
(1.25365 -0.0395146 0)
(1.25365 -0.0395146 0)
(1.25365 -0.0395146 0)
(1.25365 -0.0395146 0)
(1.25365 -0.0395146 0)
(1.25365 -0.0395146 0)
(1.25365 -0.0395146 0)
(1.25365 -0.0395146 0)
(1.25365 -0.0395146 0)
(1.25365 -0.0395146 0)
(1.25365 -0.0395146 0)
(1.25365 -0.0395146 0)
(1.25365 -0.0395146 0)
(1.25365 -0.0395146 0)
(1.25365 -0.0395146 0)
(1.25365 -0.0395146 0)
(1.25365 -0.0395146 0)
(1.25365 -0.0395146 0)
(1.25365 -0.0395146 0)
(1.25365 -0.0395146 0)
(1.25365 -0.0395146 0)
(1.25365 -0.0395146 0)
(1.25365 -0.0395146 0)
(1.25365 -0.0395146 0)
(1.25365 -0.0395146 0)
(1.25365 -0.0395146 0)
(1.25365 -0.0395146 0)
(1.25365 -0.0395146 0)
(1.25365 -0.0395146 0)
(1.25365 -0.0395146 0)
(1.25365 -0.0395146 0)
(1.25365 -0.0395146 0)
(1.25365 -0.0395146 0)
(1.25365 -0.0395146 0)
(1.25365 -0.0395146 0)
(1.25365 -0.0395146 0)
(1.25365 -0.0395146 0)
(1.25365 -0.0395146 0)
(1.25365 -0.0395146 0)
(1.25365 -0.0395146 0)
(1.25365 -0.0395144 0)
(1.25364 -0.0395059 0)
(1.25362 -0.0391605 0)
(1.25306 -0.0224297 0)
)
;

boundaryField
{
    inandouthalf11
    {
        type            cyclic;
    }
    inandouthalf12
    {
        type            cyclic;
    }
    inandouthalf21
    {
        type            cyclic;
    }
    inandouthalf22
    {
        type            cyclic;
    }
    inandouthalf31
    {
        type            cyclic;
    }
    inandouthalf32
    {
        type            cyclic;
    }
    inandouthalf41
    {
        type            cyclic;
    }
    inandouthalf42
    {
        type            cyclic;
    }
    top
    {
        type            symmetryPlane;
    }
    walls
    {
        type            fixedValue;
        value           uniform (0 0 0);
    }
    frontAndBackPlanes
    {
        type            empty;
    }
}


// ************************************************************************* //
