/*--------------------------------*- C++ -*----------------------------------*\
| =========                 |                                                 |
| \\      /  F ield         | OpenFOAM: The Open Source CFD Toolbox           |
|  \\    /   O peration     | Version:  2.4.x                                 |
|   \\  /    A nd           | Web:      www.OpenFOAM.org                      |
|    \\/     M anipulation  |                                                 |
\*---------------------------------------------------------------------------*/
FoamFile
{
    version     2.0;
    format      ascii;
    class       volVectorField;
    location    "1.05";
    object      Ub;
}
// * * * * * * * * * * * * * * * * * * * * * * * * * * * * * * * * * * * * * //

dimensions      [0 1 -1 0 0 0 0];

internalField   nonuniform List<vector> 
360
(
(0.000181331 9.36832e-14 0)
(0.000181641 2.81609e-13 0)
(0.000181642 4.70185e-13 0)
(0.000181642 6.59275e-13 0)
(0.000181642 8.48673e-13 0)
(0.000181644 1.03809e-12 0)
(0.000181644 1.22737e-12 0)
(0.000181645 1.41675e-12 0)
(0.000181645 1.60584e-12 0)
(0.000181647 1.79487e-12 0)
(0.000181648 1.98383e-12 0)
(0.000181648 2.1727e-12 0)
(0.00018165 2.36131e-12 0)
(0.000181652 2.5492e-12 0)
(0.000181653 2.73696e-12 0)
(0.000181655 2.9245e-12 0)
(0.000181656 3.11162e-12 0)
(0.000181658 3.29847e-12 0)
(0.000181659 3.48456e-12 0)
(0.000181662 3.67031e-12 0)
(0.000181664 3.8557e-12 0)
(0.000181667 4.0408e-12 0)
(0.00018167 4.22529e-12 0)
(0.000181673 4.40906e-12 0)
(0.000181676 4.59228e-12 0)
(0.000181679 4.77487e-12 0)
(0.000181682 4.95677e-12 0)
(0.000181687 5.13803e-12 0)
(0.000181691 5.31869e-12 0)
(0.000181696 5.49866e-12 0)
(0.0001817 5.67769e-12 0)
(0.000181706 5.85634e-12 0)
(0.000181711 6.03431e-12 0)
(0.000181719 6.21157e-12 0)
(0.000181725 6.38793e-12 0)
(0.000181732 6.56336e-12 0)
(0.00018174 6.7382e-12 0)
(0.000181749 6.91235e-12 0)
(0.00018176 7.08552e-12 0)
(0.000181769 7.25795e-12 0)
(0.000181781 7.4293e-12 0)
(0.000181794 7.59989e-12 0)
(0.000181806 7.76994e-12 0)
(0.000181821 7.93903e-12 0)
(0.000181836 8.10696e-12 0)
(0.000181853 8.27412e-12 0)
(0.000181871 8.44033e-12 0)
(0.00018189 8.60555e-12 0)
(0.000181911 8.76989e-12 0)
(0.000181936 8.93345e-12 0)
(0.00018196 9.09578e-12 0)
(0.000181988 9.25687e-12 0)
(0.000182017 9.41709e-12 0)
(0.000182049 9.57662e-12 0)
(0.000182083 9.73497e-12 0)
(0.000182121 9.89186e-12 0)
(0.000182161 1.00474e-11 0)
(0.000182205 1.02021e-11 0)
(0.000182252 1.03555e-11 0)
(0.000182303 1.05077e-11 0)
(0.00018236 1.06587e-11 0)
(0.000182419 1.08086e-11 0)
(0.000182485 1.09574e-11 0)
(0.000182556 1.11048e-11 0)
(0.000182632 1.1251e-11 0)
(0.000182715 1.13958e-11 0)
(0.000182806 1.15389e-11 0)
(0.000182904 1.16809e-11 0)
(0.00018301 1.18219e-11 0)
(0.000183124 1.19611e-11 0)
(0.000183249 1.20986e-11 0)
(0.000183384 1.22349e-11 0)
(0.000183529 1.23698e-11 0)
(0.000183688 1.25022e-11 0)
(0.000183859 1.26337e-11 0)
(0.000184046 1.00138e-11 0)
(0.000184247 7.74805e-11 0)
(0.000184465 -3.52194e-10 0)
(0.000184702 1.46321e-09 0)
(0.000184959 -6.19743e-09 0)
(0.000185231 2.59094e-08 0)
(0.000185657 9.3015e-07 0)
(0.000186615 3.47631e-06 0)
(0.000187932 6.88124e-06 0)
(0.000189083 9.85505e-06 0)
(0.000189975 1.19729e-05 0)
(0.000190731 1.35265e-05 0)
(0.000191449 1.48676e-05 0)
(0.000192192 1.62236e-05 0)
(0.000192999 1.77227e-05 0)
(0.000193889 1.94148e-05 0)
(0.000194862 2.12853e-05 0)
(0.000195904 2.3285e-05 0)
(0.000196997 2.53644e-05 0)
(0.000198133 2.74935e-05 0)
(0.000199306 2.96625e-05 0)
(0.000200515 3.18715e-05 0)
(0.000201762 3.4122e-05 0)
(0.000203046 3.64139e-05 0)
(0.000204369 3.87466e-05 0)
(0.000205735 4.11217e-05 0)
(0.000207149 4.35443e-05 0)
(0.000208617 4.60232e-05 0)
(0.000210149 4.85691e-05 0)
(0.000211752 5.11926e-05 0)
(0.000213437 5.39034e-05 0)
(0.00021521 5.67096e-05 0)
(0.000217081 5.96179e-05 0)
(0.000219059 6.26333e-05 0)
(0.000221151 6.57605e-05 0)
(0.000223367 6.90031e-05 0)
(0.000225718 7.23647e-05 0)
(0.000228216 7.58489e-05 0)
(0.000230874 7.94592e-05 0)
(0.000233707 8.31988e-05 0)
(0.000236732 8.70704e-05 0)
(0.000239971 9.10777e-05 0)
(0.000243452 9.52283e-05 0)
(0.000247217 9.95389e-05 0)
(0.000251327 0.00010404 0)
(0.000255868 0.000108771 0)
(0.000260933 0.000113763 0)
(0.000266584 0.000118999 0)
(0.000272796 0.000124357 0)
(0.000279433 0.000129614 0)
(0.000286388 0.000134537 0)
(0.000293909 0.000139056 0)
(0.00030317 0.000143396 0)
(0.000317852 0.000148174 0)
(0.0003518 0.000154447 0)
(0.000480523 0.000163299 0)
(0.00132845 0.000174832 0)
(0.00826432 0.000188883 0)
(0.0402292 0.000209675 0)
(0.104907 0.000241605 0)
(0.184199 0.000279629 0)
(0.266571 0.000321783 0)
(0.349321 0.000381864 0)
(0.432274 0.00055589 0)
(0.515437 0.000930672 0)
(0.592801 0.00116341 0)
(0.657873 0.0013255 0)
(0.707199 0.00173416 0)
(0.729053 0.00205029 0)
(0.737194 0.00211798 0)
(0.744164 0.00214571 0)
(0.751495 0.0022201 0)
(0.759091 0.00223675 0)
(0.767426 0.00231183 0)
(0.776787 0.00234953 0)
(0.790402 0.00241506 0)
(0.815137 0.00267465 0)
(0.848772 0.00168421 0)
(0.896779 0.00351338 0)
(0.944039 -0.00216225 0)
(0.989581 0.00197875 0)
(1.02987 -0.00171122 0)
(1.06491 0.00154707 0)
(1.09497 -0.0013287 0)
(1.12021 0.00119365 0)
(1.14086 -0.00101509 0)
(1.15743 0.000906008 0)
(1.17037 -0.00076136 0)
(1.18057 0.000674861 0)
(1.18865 -0.000558681 0)
(1.19529 0.000491137 0)
(1.20089 -0.000398555 0)
(1.20575 0.000346966 0)
(1.21005 -0.000274246 0)
(1.21389 0.000235819 0)
(1.21738 -0.000179196 0)
(1.22054 0.000151375 0)
(1.22342 -0.000107901 0)
(1.22605 8.85872e-05 0)
(1.22847 -5.57387e-05 0)
(1.23068 4.31271e-05 0)
(1.23273 -1.87032e-05 0)
(1.2346 1.1199e-05 0)
(1.23633 6.57026e-06 0)
(1.23792 -1.02158e-05 0)
(1.23939 2.28961e-05 0)
(1.24074 -2.3796e-05 0)
(1.24199 3.26723e-05 0)
(1.24315 -3.20778e-05 0)
(1.24421 3.85714e-05 0)
(1.2452 -3.6814e-05 0)
(1.2461 4.00494e-05 0)
(1.24694 -3.59933e-05 0)
(1.24772 3.73984e-05 0)
(1.24844 -3.33148e-05 0)
(1.2491 3.40513e-05 0)
(1.24971 -3.0218e-05 0)
(1.25027 3.05634e-05 0)
(1.2508 -2.7054e-05 0)
(1.25128 2.71175e-05 0)
(1.25172 -2.38799e-05 0)
(1.25213 2.36637e-05 0)
(1.25251 -2.06502e-05 0)
(1.25287 2.02419e-05 0)
(1.25319 -1.74782e-05 0)
(1.25349 1.69639e-05 0)
(1.25377 -1.47897e-05 0)
(1.25403 1.45477e-05 0)
(1.25428 -1.26332e-05 0)
(1.25451 1.2352e-05 0)
(1.25473 -1.06588e-05 0)
(1.25493 1.03643e-05 0)
(1.25512 -8.90791e-06 0)
(1.2553 8.61447e-06 0)
(1.25546 -7.34783e-06 0)
(1.25561 7.05749e-06 0)
(1.25575 -5.98635e-06 0)
(1.25588 5.72623e-06 0)
(1.256 -4.82225e-06 0)
(1.25611 4.57971e-06 0)
(1.25621 -3.82194e-06 0)
(1.2563 3.60709e-06 0)
(1.25639 -2.98349e-06 0)
(1.25646 2.79874e-06 0)
(1.25653 -2.28889e-06 0)
(1.2566 2.13171e-06 0)
(1.25666 -1.72162e-06 0)
(1.25671 1.59039e-06 0)
(1.25675 -1.26354e-06 0)
(1.2568 1.15763e-06 0)
(1.25683 -9.0159e-07 0)
(1.25687 8.16802e-07 0)
(1.2569 -6.20223e-07 0)
(1.25692 5.55731e-07 0)
(1.25695 -4.05626e-07 0)
(1.25697 3.57647e-07 0)
(1.25699 -2.48201e-07 0)
(1.257 2.14456e-07 0)
(1.25702 -1.34352e-07 0)
(1.25703 1.11229e-07 0)
(1.25704 -5.546e-08 0)
(1.25705 4.17691e-08 0)
(1.25706 -4.48842e-09 0)
(1.25707 -2.64325e-09 0)
(1.25707 2.66312e-08 0)
(1.25708 -2.91037e-08 0)
(1.25708 4.35517e-08 0)
(1.25708 -4.3557e-08 0)
(1.25709 5.1845e-08 0)
(1.25709 -4.76646e-08 0)
(1.25709 4.9608e-08 0)
(1.25709 -4.54049e-08 0)
(1.2571 4.57927e-08 0)
(1.2571 -4.19049e-08 0)
(1.2571 4.08967e-08 0)
(1.2571 -3.71094e-08 0)
(1.2571 3.52795e-08 0)
(1.2571 -3.17988e-08 0)
(1.2571 2.97478e-08 0)
(1.2571 -2.65774e-08 0)
(1.2571 2.4457e-08 0)
(1.2571 -2.17562e-08 0)
(1.2571 1.97516e-08 0)
(1.2571 -1.74704e-08 0)
(1.2571 1.56826e-08 0)
(1.2571 -1.37915e-08 0)
(1.2571 1.22567e-08 0)
(1.2571 -1.07181e-08 0)
(1.2571 9.44115e-09 0)
(1.2571 -8.20818e-09 0)
(1.2571 7.17248e-09 0)
(1.2571 -6.2021e-09 0)
(1.2571 5.38215e-09 0)
(1.2571 -4.63022e-09 0)
(1.2571 3.99463e-09 0)
(1.2571 -3.42171e-09 0)
(1.2571 2.9392e-09 0)
(1.2571 -2.49559e-09 0)
(1.2571 2.09304e-09 0)
(1.2571 -1.71236e-09 0)
(1.2571 1.37259e-09 0)
(1.2571 -1.05962e-09 0)
(1.2571 7.89198e-10 0)
(1.2571 -5.50119e-10 0)
(1.2571 3.56059e-10 0)
(1.2571 -1.97848e-10 0)
(1.2571 8.78547e-11 0)
(1.2571 -1.84132e-11 0)
(1.2571 1.6482e-12 0)
(1.2571 9.87059e-13 0)
(1.2571 9.32469e-13 0)
(1.2571 8.86202e-13 0)
(1.2571 8.34988e-13 0)
(1.2571 7.66285e-13 0)
(1.2571 7.02491e-13 0)
(1.2571 6.31818e-13 0)
(1.2571 5.55541e-13 0)
(1.2571 4.77188e-13 0)
(1.2571 3.99554e-13 0)
(1.2571 3.20664e-13 0)
(1.2571 2.47244e-13 0)
(1.2571 2.04705e-13 0)
(1.2571 1.86332e-13 0)
(1.2571 1.68783e-13 0)
(1.2571 1.20424e-13 0)
(1.2571 7.44401e-14 0)
(1.2571 6.43267e-14 0)
(1.2571 5.29325e-14 0)
(1.2571 4.14465e-14 0)
(1.2571 3.15593e-14 0)
(1.2571 2.35716e-14 0)
(1.2571 1.58459e-14 0)
(1.2571 8.42047e-15 0)
(1.2571 1.01204e-15 0)
(1.2571 -6.14978e-15 0)
(1.2571 -1.26476e-14 0)
(1.2571 -1.86646e-14 0)
(1.2571 -2.48895e-14 0)
(1.2571 -3.14495e-14 0)
(1.2571 -3.76347e-14 0)
(1.2571 -4.32184e-14 0)
(1.2571 -4.879e-14 0)
(1.2571 -5.39577e-14 0)
(1.2571 -5.85361e-14 0)
(1.2571 -6.26284e-14 0)
(1.2571 -6.79781e-14 0)
(1.2571 -7.4709e-14 0)
(1.2571 -8.10077e-14 0)
(1.2571 -8.65245e-14 0)
(1.2571 -9.3453e-14 0)
(1.2571 -1.02207e-13 0)
(1.2571 -1.11678e-13 0)
(1.2571 -1.32242e-13 0)
(1.2571 -1.79243e-13 0)
(1.2571 -2.49975e-13 0)
(1.2571 -3.2873e-13 0)
(1.2571 -4.01202e-13 0)
(1.2571 -4.75356e-13 0)
(1.2571 -5.46491e-13 0)
(1.2571 -6.06242e-13 0)
(1.2571 -6.51995e-13 0)
(1.2571 -7.10139e-13 0)
(1.2571 -7.76779e-13 0)
(1.2571 -8.2541e-13 0)
(1.2571 -8.50033e-13 0)
(1.2571 -8.72893e-13 0)
(1.2571 -8.89932e-13 0)
(1.2571 -8.83157e-13 0)
(1.2571 -8.5515e-13 0)
(1.2571 -8.59629e-13 0)
(1.2571 -8.91812e-13 0)
(1.2571 -9.02812e-13 0)
(1.2571 -8.75833e-13 0)
(1.2571 -8.4707e-13 0)
(1.2571 -8.16461e-13 0)
(1.2571 -7.51065e-13 0)
(1.2571 -6.79962e-13 0)
(1.2571 -5.84352e-13 0)
(1.2571 -4.70167e-13 0)
(1.2571 -3.56008e-13 0)
(1.2571 -3.01943e-13 0)
(1.2571 -1.50521e-13 0)
(1.2571 -9.32677e-14 0)
(1.2571 -4.98344e-13 0)
(1.2571 -4.04906e-13 0)
)
;

boundaryField
{
    inandouthalf11
    {
        type            cyclic;
    }
    inandouthalf12
    {
        type            cyclic;
    }
    inandouthalf21
    {
        type            cyclic;
    }
    inandouthalf22
    {
        type            cyclic;
    }
    inandouthalf31
    {
        type            cyclic;
    }
    inandouthalf32
    {
        type            cyclic;
    }
    inandouthalf41
    {
        type            cyclic;
    }
    inandouthalf42
    {
        type            cyclic;
    }
    top
    {
        type            symmetryPlane;
    }
    walls
    {
        type            fixedValue;
        value           uniform (0 0 0);
    }
    frontAndBackPlanes
    {
        type            empty;
    }
}


// ************************************************************************* //
