/*--------------------------------*- C++ -*----------------------------------*\
| =========                 |                                                 |
| \\      /  F ield         | OpenFOAM: The Open Source CFD Toolbox           |
|  \\    /   O peration     | Version:  2.4.x                                 |
|   \\  /    A nd           | Web:      www.OpenFOAM.org                      |
|    \\/     M anipulation  |                                                 |
\*---------------------------------------------------------------------------*/
FoamFile
{
    version     2.0;
    format      ascii;
    class       volVectorField;
    location    "1.05";
    object      Ur;
}
// * * * * * * * * * * * * * * * * * * * * * * * * * * * * * * * * * * * * * //

dimensions      [0 1 -1 0 0 0 0];

internalField   nonuniform List<vector> 
360
(
(0.000181331 9.36832e-14 0)
(0.000181641 2.81609e-13 0)
(0.000181642 4.70185e-13 0)
(0.000181642 6.59275e-13 0)
(0.000181642 8.48673e-13 0)
(0.000181644 1.03809e-12 0)
(0.000181644 1.22737e-12 0)
(0.000181645 1.41675e-12 0)
(0.000181645 1.60584e-12 0)
(0.000181647 1.79487e-12 0)
(0.000181648 1.98383e-12 0)
(0.000181648 2.1727e-12 0)
(0.00018165 2.36131e-12 0)
(0.000181652 2.5492e-12 0)
(0.000181653 2.73696e-12 0)
(0.000181655 2.9245e-12 0)
(0.000181656 3.11162e-12 0)
(0.000181658 3.29847e-12 0)
(0.000181659 3.48456e-12 0)
(0.000181662 3.67031e-12 0)
(0.000181664 3.8557e-12 0)
(0.000181667 4.0408e-12 0)
(0.00018167 4.22529e-12 0)
(0.000181673 4.40906e-12 0)
(0.000181676 4.59228e-12 0)
(0.000181679 4.77487e-12 0)
(0.000181682 4.95677e-12 0)
(0.000181687 5.13803e-12 0)
(0.000181691 5.31869e-12 0)
(0.000181696 5.49866e-12 0)
(0.0001817 5.67769e-12 0)
(0.000181706 5.85634e-12 0)
(0.000181711 6.03431e-12 0)
(0.000181719 6.21157e-12 0)
(0.000181725 6.38793e-12 0)
(0.000181732 6.56336e-12 0)
(0.00018174 6.7382e-12 0)
(0.000181749 6.91235e-12 0)
(0.00018176 7.08552e-12 0)
(0.000181769 7.25795e-12 0)
(0.000181781 7.4293e-12 0)
(0.000181794 7.59989e-12 0)
(0.000181806 7.76994e-12 0)
(0.000181821 7.93903e-12 0)
(0.000181836 8.10696e-12 0)
(0.000181853 8.27412e-12 0)
(0.000181871 8.44033e-12 0)
(0.00018189 8.60555e-12 0)
(0.000181911 8.76989e-12 0)
(0.000181936 8.93345e-12 0)
(0.00018196 9.09578e-12 0)
(0.000181988 9.25687e-12 0)
(0.000182017 9.41709e-12 0)
(0.000182049 9.57662e-12 0)
(0.000182083 9.73497e-12 0)
(0.000182121 9.89186e-12 0)
(0.000182161 1.00474e-11 0)
(0.000182205 1.02021e-11 0)
(0.000182252 1.03555e-11 0)
(0.000182303 1.05077e-11 0)
(0.00018236 1.06587e-11 0)
(0.000182419 1.08086e-11 0)
(0.000182485 1.09574e-11 0)
(0.000182556 1.11048e-11 0)
(0.000182632 1.1251e-11 0)
(0.000182715 1.13958e-11 0)
(0.000182806 1.15389e-11 0)
(0.000182904 1.16809e-11 0)
(0.00018301 1.18219e-11 0)
(0.000183124 1.19611e-11 0)
(0.000183249 1.20986e-11 0)
(0.000183384 1.22349e-11 0)
(0.000183529 1.23698e-11 0)
(0.000183688 1.25022e-11 0)
(0.000183859 1.26337e-11 0)
(0.000184046 1.00138e-11 0)
(0.000184247 7.74805e-11 0)
(0.000184465 -3.52194e-10 0)
(0.000184702 1.46321e-09 0)
(0.000184959 -6.19743e-09 0)
(0.000185231 2.59094e-08 0)
(0.000185455 1.30694e-06 0)
(0.000185512 5.54922e-06 0)
(0.000185425 1.14432e-05 0)
(0.00018536 1.63825e-05 0)
(0.00018539 1.97961e-05 0)
(0.000185494 2.22969e-05 0)
(0.000185635 2.44726e-05 0)
(0.000185786 2.66886e-05 0)
(0.000185931 2.91532e-05 0)
(0.000186065 3.19474e-05 0)
(0.00018619 3.50425e-05 0)
(0.000186313 3.83507e-05 0)
(0.000186439 4.17871e-05 0)
(0.000186573 4.53031e-05 0)
(0.000186713 4.88842e-05 0)
(0.000186857 5.25325e-05 0)
(0.000187004 5.62512e-05 0)
(0.000187153 6.00397e-05 0)
(0.000187306 6.38964e-05 0)
(0.000187461 6.78237e-05 0)
(0.000187621 7.18305e-05 0)
(0.000187786 7.59316e-05 0)
(0.000187956 8.0145e-05 0)
(0.00018813 8.44886e-05 0)
(0.00018831 8.89788e-05 0)
(0.000188495 9.36289e-05 0)
(0.000188686 9.84501e-05 0)
(0.000188883 0.000103451 0)
(0.000189086 0.00010864 0)
(0.000189295 0.000114022 0)
(0.000189511 0.000119604 0)
(0.000189735 0.000125392 0)
(0.000189966 0.000131393 0)
(0.000190204 0.000137611 0)
(0.000190451 0.000144052 0)
(0.000190706 0.000150722 0)
(0.00019097 0.000157632 0)
(0.000191244 0.000164811 0)
(0.000191529 0.000172308 0)
(0.00019183 0.000180194 0)
(0.000192148 0.000188531 0)
(0.000192481 0.000197297 0)
(0.00019282 0.000206295 0)
(0.000193145 0.00021513 0)
(0.000193439 0.000223375 0)
(0.000193696 0.000230892 0)
(0.000193944 0.000238046 0)
(0.000194263 0.000245785 0)
(0.000194916 0.000255707 0)
(0.000197046 0.000269819 0)
(0.000210599 0.000290054 0)
(0.000283854 0.000317541 0)
(0.000431947 0.000351648 0)
(0.000517224 0.000404005 0)
(0.000533207 0.000468009 0)
(0.000532268 0.000539262 0)
(0.000531238 0.00064173 0)
(0.000552468 0.000962673 0)
(0.000618429 0.00164376 0)
(0.00057056 0.00210928 0)
(0.000512654 0.00247082 0)
(0.000368009 0.00332369 0)
(0.00018493 0.00403996 0)
(0.000179453 0.0042517 0)
(0.000185201 0.0043719 0)
(0.000192273 0.00456407 0)
(0.000195063 0.00466934 0)
(0.00019999 0.00487356 0)
(0.000194774 0.00503273 0)
(0.000154573 0.00523499 0)
(2.6353e-05 0.00555916 0)
(2.1649e-06 0.00489498 0)
(-0.00090465 0.0121132 0)
(0.0100041 0.00607729 0)
(0.025402 0.0145028 0)
(0.0400027 0.0135877 0)
(0.0524904 0.0188258 0)
(0.0625969 0.0174575 0)
(0.0700679 0.0211935 0)
(0.0749792 0.0199887 0)
(0.0776041 0.0227769 0)
(0.0781936 0.0218744 0)
(0.0774712 0.0239932 0)
(0.0758364 0.0233842 0)
(0.0738449 0.0250036 0)
(0.0717158 0.0246401 0)
(0.0696739 0.0258706 0)
(0.0677624 0.0257034 0)
(0.0660047 0.026633 0)
(0.0644411 0.0266103 0)
(0.0630145 0.0273071 0)
(0.0617619 0.0273899 0)
(0.0606273 0.0279073 0)
(0.0596341 0.0280633 0)
(0.0587408 0.0284442 0)
(0.0579627 0.0286467 0)
(0.0572677 0.0289258 0)
(0.0566623 0.0291555 0)
(0.056128 0.0293595 0)
(0.055665 0.0296 0)
(0.0552634 0.0297501 0)
(0.0549118 0.0299918 0)
(0.054616 0.0301022 0)
(0.054358 0.0303386 0)
(0.0541452 0.0304201 0)
(0.053961 0.0306458 0)
(0.0538121 0.0307107 0)
(0.0536866 0.0309178 0)
(0.053588 0.030974 0)
(0.0535052 0.0311624 0)
(0.0534417 0.0312128 0)
(0.0533909 0.0313825 0)
(0.053352 0.0314288 0)
(0.0533186 0.0315823 0)
(0.0532933 0.0316249 0)
(0.0532716 0.031762 0)
(0.0532486 0.0318034 0)
(0.053226 0.0319252 0)
(0.0531995 0.0319649 0)
(0.0531663 0.0320731 0)
(0.0531274 0.0321113 0)
(0.0530797 0.0322091 0)
(0.053021 0.0322486 0)
(0.0529547 0.032338 0)
(0.0528798 0.032377 0)
(0.0527961 0.0324586 0)
(0.0526991 0.032499 0)
(0.0525945 0.0325736 0)
(0.0524817 0.032613 0)
(0.0523545 0.0326825 0)
(0.0522163 0.0327228 0)
(0.052071 0.0327859 0)
(0.0519116 0.0328263 0)
(0.0517393 0.0328858 0)
(0.0515581 0.0329257 0)
(0.0513622 0.0329814 0)
(0.0511537 0.033022 0)
(0.0509341 0.0330742 0)
(0.0507007 0.0331147 0)
(0.0504545 0.0331644 0)
(0.0501919 0.0332056 0)
(0.0499162 0.0332537 0)
(0.0496262 0.0332951 0)
(0.0493231 0.0333415 0)
(0.0490026 0.0333835 0)
(0.0486639 0.0334299 0)
(0.048306 0.0334735 0)
(0.0479375 0.0335192 0)
(0.0475565 0.0335622 0)
(0.0471516 0.0336085 0)
(0.0467151 0.0336556 0)
(0.0462754 0.0337022 0)
(0.0458187 0.0337486 0)
(0.0453265 0.0337985 0)
(0.0448212 0.0338478 0)
(0.0442981 0.0338981 0)
(0.0437383 0.0339512 0)
(0.0431652 0.0340044 0)
(0.0425652 0.0340596 0)
(0.0419309 0.0341171 0)
(0.0412713 0.0341765 0)
(0.0405895 0.0342369 0)
(0.0398832 0.034299 0)
(0.0391365 0.0343642 0)
(0.0383849 0.0344288 0)
(0.0376051 0.034495 0)
(0.0368037 0.0345624 0)
(0.03601 0.0346275 0)
(0.0352392 0.0346891 0)
(0.0345087 0.0347454 0)
(0.0338285 0.0347939 0)
(0.0329318 0.0348615 0)
(0.00526562 0.0391881 0)
(0.00345928 0.0395145 0)
(0.00345774 0.0395146 0)
(0.00345776 0.0395146 0)
(0.00345777 0.0395146 0)
(0.00345777 0.0395146 0)
(0.00345778 0.0395146 0)
(0.00345778 0.0395146 0)
(0.00345778 0.0395146 0)
(0.00345779 0.0395146 0)
(0.00345779 0.0395146 0)
(0.00345779 0.0395146 0)
(0.00345779 0.0395146 0)
(0.00345779 0.0395146 0)
(0.00345779 0.0395146 0)
(0.00345779 0.0395146 0)
(0.00345779 0.0395146 0)
(0.00345779 0.0395146 0)
(0.00345779 0.0395146 0)
(0.00345779 0.0395146 0)
(0.00345779 0.0395146 0)
(0.00345779 0.0395146 0)
(0.00345779 0.0395146 0)
(0.00345779 0.0395146 0)
(0.00345779 0.0395146 0)
(0.00345779 0.0395146 0)
(0.00345779 0.0395146 0)
(0.00345779 0.0395146 0)
(0.00345779 0.0395146 0)
(0.00345779 0.0395146 0)
(0.00345779 0.0395146 0)
(0.00345779 0.0395146 0)
(0.00345779 0.0395146 0)
(0.00345779 0.0395146 0)
(0.00345779 0.0395146 0)
(0.00345779 0.0395146 0)
(0.00345779 0.0395146 0)
(0.00345779 0.0395146 0)
(0.00345779 0.0395146 0)
(0.00345779 0.0395146 0)
(0.00345779 0.0395146 0)
(0.00345779 0.0395146 0)
(0.00345779 0.0395146 0)
(0.00345779 0.0395146 0)
(0.00345779 0.0395146 0)
(0.00345779 0.0395146 0)
(0.00345779 0.0395146 0)
(0.00345779 0.0395146 0)
(0.00345779 0.0395146 0)
(0.00345779 0.0395146 0)
(0.00345779 0.0395146 0)
(0.00345779 0.0395146 0)
(0.00345779 0.0395146 0)
(0.00345779 0.0395146 0)
(0.00345779 0.0395146 0)
(0.00345779 0.0395146 0)
(0.00345779 0.0395146 0)
(0.00345779 0.0395146 0)
(0.00345779 0.0395146 0)
(0.00345779 0.0395146 0)
(0.00345779 0.0395146 0)
(0.00345779 0.0395146 0)
(0.00345779 0.0395146 0)
(0.00345779 0.0395146 0)
(0.00345779 0.0395146 0)
(0.00345779 0.0395146 0)
(0.00345779 0.0395146 0)
(0.00345779 0.0395146 0)
(0.00345779 0.0395146 0)
(0.00345779 0.0395146 0)
(0.00345779 0.0395146 0)
(0.00345779 0.0395146 0)
(0.00345779 0.0395146 0)
(0.00345779 0.0395146 0)
(0.00345779 0.0395146 0)
(0.00345779 0.0395146 0)
(0.00345779 0.0395146 0)
(0.00345779 0.0395146 0)
(0.00345779 0.0395146 0)
(0.00345779 0.0395146 0)
(0.00345779 0.0395146 0)
(0.00345779 0.0395146 0)
(0.00345779 0.0395146 0)
(0.00345779 0.0395146 0)
(0.00345779 0.0395146 0)
(0.00345779 0.0395146 0)
(0.00345779 0.0395146 0)
(0.00345779 0.0395146 0)
(0.00345779 0.0395146 0)
(0.00345779 0.0395146 0)
(0.00345779 0.0395146 0)
(0.00345779 0.0395146 0)
(0.00345779 0.0395146 0)
(0.00345779 0.0395146 0)
(0.00345779 0.0395146 0)
(0.00345779 0.0395146 0)
(0.00345779 0.0395146 0)
(0.00345779 0.0395146 0)
(0.00345779 0.0395146 0)
(0.00345779 0.0395146 0)
(0.00345779 0.0395146 0)
(0.00345779 0.0395146 0)
(0.0034578 0.0395146 0)
(0.00345783 0.0395144 0)
(0.00345883 0.0395059 0)
(0.00348301 0.0391605 0)
(0.00404019 0.0224297 0)
)
;

boundaryField
{
    inandouthalf11
    {
        type            cyclic;
    }
    inandouthalf12
    {
        type            cyclic;
    }
    inandouthalf21
    {
        type            cyclic;
    }
    inandouthalf22
    {
        type            cyclic;
    }
    inandouthalf31
    {
        type            cyclic;
    }
    inandouthalf32
    {
        type            cyclic;
    }
    inandouthalf41
    {
        type            cyclic;
    }
    inandouthalf42
    {
        type            cyclic;
    }
    top
    {
        type            symmetryPlane;
    }
    walls
    {
        type            calculated;
        value           uniform (0 0 0);
    }
    frontAndBackPlanes
    {
        type            empty;
    }
}


// ************************************************************************* //
