/*--------------------------------*- C++ -*----------------------------------*\
| =========                 |                                                 |
| \\      /  F ield         | OpenFOAM: The Open Source CFD Toolbox           |
|  \\    /   O peration     | Version:  2.4.x                                 |
|   \\  /    A nd           | Web:      www.OpenFOAM.org                      |
|    \\/     M anipulation  |                                                 |
\*---------------------------------------------------------------------------*/
FoamFile
{
    version     2.0;
    format      ascii;
    class       volVectorField;
    location    "1.1";
    object      ddt0(Ua);
}
// * * * * * * * * * * * * * * * * * * * * * * * * * * * * * * * * * * * * * //

dimensions      [0 1 -2 0 0 0 0];

internalField   nonuniform List<vector> 
360
(
(8.26285e-37 -3.9446e-36 0)
(8.26372e-37 -3.9447e-36 0)
(8.26434e-37 -3.94495e-36 0)
(8.26503e-37 -3.94544e-36 0)
(8.26583e-37 -3.9462e-36 0)
(8.26679e-37 -3.94722e-36 0)
(8.26791e-37 -3.9485e-36 0)
(8.26919e-37 -3.95004e-36 0)
(8.27064e-37 -3.95183e-36 0)
(8.27227e-37 -3.95387e-36 0)
(8.27409e-37 -3.95616e-36 0)
(8.27611e-37 -3.9587e-36 0)
(8.27832e-37 -3.96148e-36 0)
(8.28074e-37 -3.9645e-36 0)
(8.28337e-37 -3.96776e-36 0)
(8.28622e-37 -3.97125e-36 0)
(8.28929e-37 -3.97498e-36 0)
(8.29258e-37 -3.97893e-36 0)
(8.29609e-37 -3.98311e-36 0)
(8.29982e-37 -3.98751e-36 0)
(8.30379e-37 -3.99214e-36 0)
(8.30798e-37 -3.99698e-36 0)
(8.31239e-37 -4.00203e-36 0)
(8.31704e-37 -4.0073e-36 0)
(8.32191e-37 -4.01277e-36 0)
(8.32699e-37 -4.01845e-36 0)
(8.33228e-37 -4.02433e-36 0)
(8.33778e-37 -4.03041e-36 0)
(8.3435e-37 -4.03669e-36 0)
(8.34942e-37 -4.04317e-36 0)
(8.35553e-37 -4.04984e-36 0)
(8.36183e-37 -4.0567e-36 0)
(8.36831e-37 -4.06374e-36 0)
(8.37496e-37 -4.07098e-36 0)
(8.38179e-37 -4.0784e-36 0)
(8.38876e-37 -4.086e-36 0)
(8.39589e-37 -4.09379e-36 0)
(8.40316e-37 -4.10175e-36 0)
(8.41058e-37 -4.10991e-36 0)
(8.41812e-37 -4.11825e-36 0)
(8.42579e-37 -4.12677e-36 0)
(8.43356e-37 -4.13548e-36 0)
(8.44143e-37 -4.14437e-36 0)
(8.44939e-37 -4.15344e-36 0)
(8.45743e-37 -4.16271e-36 0)
(8.46555e-37 -4.17218e-36 0)
(8.47372e-37 -4.18184e-36 0)
(8.48194e-37 -4.1917e-36 0)
(8.4902e-37 -4.20176e-36 0)
(8.49852e-37 -4.21205e-36 0)
(8.5069e-37 -4.22257e-36 0)
(8.51533e-37 -4.23333e-36 0)
(8.5238e-37 -4.24434e-36 0)
(8.53233e-37 -4.25561e-36 0)
(8.54091e-37 -4.26718e-36 0)
(8.54959e-37 -4.27905e-36 0)
(8.55837e-37 -4.29127e-36 0)
(8.5673e-37 -4.30386e-36 0)
(8.57642e-37 -4.31686e-36 0)
(8.58581e-37 -4.33031e-36 0)
(8.59552e-37 -4.34429e-36 0)
(8.60574e-37 -4.35886e-36 0)
(8.61653e-37 -4.3741e-36 0)
(8.62827e-37 -4.39016e-36 0)
(8.64098e-37 -4.4071e-36 0)
(8.65555e-37 -4.42525e-36 0)
(8.67179e-37 -4.4446e-36 0)
(8.69187e-37 -4.4659e-36 0)
(8.71479e-37 -4.48888e-36 0)
(8.74697e-37 -4.51545e-36 0)
(8.78458e-37 -4.54453e-36 0)
(8.84343e-37 -4.58077e-36 0)
(8.9258e-37 -4.62223e-36 0)
(9.15142e-37 -4.69497e-36 0)
(9.60557e-37 -4.80801e-36 0)
(1.10217e-36 -5.10147e-36 0)
(1.80448e-36 -6.32576e-36 0)
(1.81966e-35 -3.46696e-35 0)
(1.01243e-33 -1.78732e-33 0)
(1.62988e-28 -2.98492e-28 0)
(7.02441e-10 -1.35968e-09 0)
(1.63417e-07 -9.65698e-07 0)
(-2.96603e-06 4.1e-06 0)
(-9.52087e-06 1.5312e-05 0)
(-1.44801e-05 2.27362e-05 0)
(-1.64194e-05 2.47527e-05 0)
(-1.63001e-05 2.34758e-05 0)
(-1.4982e-05 2.03319e-05 0)
(-1.30182e-05 1.61475e-05 0)
(-1.08932e-05 1.16729e-05 0)
(-9.07202e-06 7.65611e-06 0)
(-7.8896e-06 4.62399e-06 0)
(-7.47987e-06 2.75821e-06 0)
(-7.83093e-06 2.00343e-06 0)
(-8.88064e-06 2.2333e-06 0)
(-1.0569e-05 3.33319e-06 0)
(-1.28395e-05 5.19976e-06 0)
(-1.56191e-05 7.70915e-06 0)
(-1.88029e-05 1.06956e-05 0)
(-2.22568e-05 1.39577e-05 0)
(-2.58348e-05 1.72851e-05 0)
(-2.94013e-05 2.04891e-05 0)
(-3.28485e-05 2.34258e-05 0)
(-3.61071e-05 2.60062e-05 0)
(-3.91503e-05 2.81986e-05 0)
(-4.19929e-05 3.00242e-05 0)
(-4.46878e-05 3.15494e-05 0)
(-4.732e-05 3.28748e-05 0)
(-4.99984e-05 3.41229e-05 0)
(-5.28471e-05 3.5425e-05 0)
(-5.5996e-05 3.69085e-05 0)
(-5.95725e-05 3.86863e-05 0)
(-6.3693e-05 4.08463e-05 0)
(-6.84543e-05 4.34432e-05 0)
(-7.3927e-05 4.64914e-05 0)
(-8.0153e-05 4.99638e-05 0)
(-8.71546e-05 5.38007e-05 0)
(-9.49598e-05 5.79355e-05 0)
(-0.000103646 6.23306e-05 0)
(-0.000113372 6.70062e-05 0)
(-0.000124371 7.20197e-05 0)
(-0.000136797 7.7347e-05 0)
(-0.000150428 8.26361e-05 0)
(-0.00016428 8.6935e-05 0)
(-0.00017691 8.8849e-05 0)
(-0.000188154 8.77422e-05 0)
(-0.000202312 8.52177e-05 0)
(-0.000230848 8.46883e-05 0)
(-0.000301607 8.96399e-05 0)
(-0.00050657 0.000103882 0)
(-0.00130019 0.00013422 0)
(-0.00597813 0.000194959 0)
(-0.0473398 0.000301545 0)
(-0.333857 0.000339131 0)
(-0.974723 0.000416762 0)
(-1.36093 0.000580414 0)
(-1.43997 0.000594566 0)
(-1.42174 0.000618174 0)
(-1.37667 -4.44752e-06 0)
(-1.36622 0.00449567 0)
(-1.30286 0.00670071 0)
(-1.06204 0.00255182 0)
(-0.799323 0.00637132 0)
(-0.33323 0.0110815 0)
(0.284451 0.00594359 0)
(0.437433 0.00153738 0)
(0.450156 0.00138075 0)
(0.455472 0.00132697 0)
(0.465595 0.00149049 0)
(0.498522 0.00154834 0)
(0.582176 0.00217025 0)
(0.657991 0.00168142 0)
(0.766675 -0.038424 0)
(0.696617 -0.0130363 0)
(0.642586 -0.042057 0)
(0.606556 -0.0199236 0)
(0.583052 -0.0076388 0)
(0.565142 0.000712415 0)
(0.550541 0.00690297 0)
(0.538513 0.0115503 0)
(0.5297 0.0152221 0)
(0.522476 0.0185101 0)
(0.516181 0.0213057 0)
(0.512184 0.0236406 0)
(0.508969 0.0258304 0)
(0.50691 0.0277318 0)
(0.505472 0.0295216 0)
(0.504296 0.0311648 0)
(0.503527 0.0326296 0)
(0.503359 0.0339273 0)
(0.503362 0.0351953 0)
(0.503198 0.0363657 0)
(0.503443 0.037395 0)
(0.503714 0.0383694 0)
(0.504148 0.0392545 0)
(0.504642 0.0400833 0)
(0.505156 0.0408543 0)
(0.50574 0.0415598 0)
(0.506467 0.0421995 0)
(0.507261 0.0427994 0)
(0.508021 0.0433697 0)
(0.508785 0.0438994 0)
(0.509732 0.0443598 0)
(0.510784 0.0447968 0)
(0.511707 0.0452251 0)
(0.512792 0.0455985 0)
(0.513918 0.0459488 0)
(0.51509 0.0462749 0)
(0.516257 0.0465861 0)
(0.517478 0.046868 0)
(0.518798 0.0471168 0)
(0.52014 0.0473546 0)
(0.521416 0.0475934 0)
(0.522717 0.0478062 0)
(0.524162 0.0479735 0)
(0.525624 0.0481389 0)
(0.526929 0.0483276 0)
(0.528289 0.0484728 0)
(0.529738 0.0485955 0)
(0.531053 0.0487369 0)
(0.532475 0.048827 0)
(0.533952 0.0489104 0)
(0.535206 0.049038 0)
(0.536546 0.0491224 0)
(0.538081 0.0491675 0)
(0.539519 0.0492372 0)
(0.54085 0.0493197 0)
(0.542264 0.0493713 0)
(0.543906 0.0493747 0)
(0.545436 0.0494134 0)
(0.546725 0.0494845 0)
(0.548325 0.0494796 0)
(0.550042 0.049464 0)
(0.551467 0.0495032 0)
(0.553045 0.0494956 0)
(0.554793 0.0494641 0)
(0.556274 0.0494802 0)
(0.557855 0.0494643 0)
(0.559651 0.0494162 0)
(0.56136 0.0493807 0)
(0.56305 0.049344 0)
(0.564728 0.0493053 0)
(0.566506 0.0492483 0)
(0.568432 0.0491668 0)
(0.570349 0.049086 0)
(0.572131 0.0490211 0)
(0.573852 0.0489579 0)
(0.575647 0.0488807 0)
(0.577787 0.0487547 0)
(0.580039 0.048614 0)
(0.581879 0.0485211 0)
(0.583598 0.0484364 0)
(0.58592 0.0482699 0)
(0.588436 0.0480791 0)
(0.590293 0.0479669 0)
(0.592589 0.0477881 0)
(0.595217 0.0475665 0)
(0.597315 0.0474056 0)
(0.599801 0.0471876 0)
(0.602651 0.0469211 0)
(0.605178 0.0466863 0)
(0.607916 0.0464171 0)
(0.61097 0.0461016 0)
(0.613918 0.0457872 0)
(0.616646 0.0454878 0)
(0.619853 0.0451232 0)
(0.623252 0.0447209 0)
(0.62611 0.0443661 0)
(0.629249 0.0439663 0)
(0.632921 0.0434954 0)
(0.636504 0.0430463 0)
(0.641542 0.0422758 0)
(1.09492 -0.0677388 0)
(0.790068 -0.000102604 0)
(0.790053 -0.000100022 0)
(0.790054 -0.000101885 0)
(0.790054 -0.000100346 0)
(0.790054 -0.000101699 0)
(0.790054 -0.000100507 0)
(0.790054 -0.000101552 0)
(0.790054 -0.00010064 0)
(0.790054 -0.00010143 0)
(0.790054 -0.000100749 0)
(0.790054 -0.000101332 0)
(0.790054 -0.000100836 0)
(0.790054 -0.000101257 0)
(0.790054 -0.000100898 0)
(0.790054 -0.000101203 0)
(0.790054 -0.00010094 0)
(0.790054 -0.000101133 0)
(0.790054 -0.000101025 0)
(0.790054 -0.00010109 0)
(0.790054 -0.00010104 0)
(0.790054 -0.000101085 0)
(0.790054 -0.000101045 0)
(0.790054 -0.000101077 0)
(0.790054 -0.000101052 0)
(0.790054 -0.000101071 0)
(0.790054 -0.000101058 0)
(0.790054 -0.000101065 0)
(0.790054 -0.000101064 0)
(0.790054 -0.00010106 0)
(0.790054 -0.000101068 0)
(0.790054 -0.000101057 0)
(0.790054 -0.00010107 0)
(0.790054 -0.000101054 0)
(0.790054 -0.000101072 0)
(0.790054 -0.000101053 0)
(0.790054 -0.000101073 0)
(0.790054 -0.000101053 0)
(0.790054 -0.000101072 0)
(0.790054 -0.000101053 0)
(0.790054 -0.000101071 0)
(0.790054 -0.000101055 0)
(0.790054 -0.00010107 0)
(0.790054 -0.000101057 0)
(0.790054 -0.000101067 0)
(0.790054 -0.000101061 0)
(0.790054 -0.000101062 0)
(0.790054 -0.000101062 0)
(0.790054 -0.000101062 0)
(0.790054 -0.000101062 0)
(0.790054 -0.000101062 0)
(0.790054 -0.000101062 0)
(0.790054 -0.000101062 0)
(0.790054 -0.000101062 0)
(0.790054 -0.000101062 0)
(0.790054 -0.000101062 0)
(0.790054 -0.000101062 0)
(0.790054 -0.000101062 0)
(0.790054 -0.000101062 0)
(0.790054 -0.000101062 0)
(0.790054 -0.000101062 0)
(0.790054 -0.000101062 0)
(0.790054 -0.000101062 0)
(0.790054 -0.000101062 0)
(0.790054 -0.000101062 0)
(0.790054 -0.000101062 0)
(0.790054 -0.000101062 0)
(0.790054 -0.000101062 0)
(0.790054 -0.000101062 0)
(0.790054 -0.000101061 0)
(0.790054 -0.000101061 0)
(0.790054 -0.000101061 0)
(0.790054 -0.000101061 0)
(0.790054 -0.00010106 0)
(0.790054 -0.00010106 0)
(0.790054 -0.000101059 0)
(0.790054 -0.000101058 0)
(0.790054 -0.000101057 0)
(0.790054 -0.000101055 0)
(0.790054 -0.000101053 0)
(0.790054 -0.000101051 0)
(0.790054 -0.000101048 0)
(0.790054 -0.000101046 0)
(0.790054 -0.000101043 0)
(0.790054 -0.00010104 0)
(0.790054 -0.000101037 0)
(0.790054 -0.000101034 0)
(0.790054 -0.00010103 0)
(0.790054 -0.000101026 0)
(0.790054 -0.000101022 0)
(0.790054 -0.000101018 0)
(0.790054 -0.000101014 0)
(0.790054 -0.000101009 0)
(0.790054 -0.000101002 0)
(0.790054 -0.000100996 0)
(0.790054 -0.000100992 0)
(0.790054 -0.000100987 0)
(0.790054 -0.000100984 0)
(0.790054 -0.000100982 0)
(0.790054 -0.000100983 0)
(0.790054 -0.000100982 0)
(0.790054 -0.00010098 0)
(0.790054 -0.000100981 0)
(0.790054 -0.000100989 0)
(0.790054 -0.000101003 0)
(0.790055 -0.000101121 0)
(0.790091 -0.000103458 0)
(0.790923 -0.000198299 0)
)
;

boundaryField
{
    inandouthalf11
    {
        type            cyclic;
    }
    inandouthalf12
    {
        type            cyclic;
    }
    inandouthalf21
    {
        type            cyclic;
    }
    inandouthalf22
    {
        type            cyclic;
    }
    inandouthalf31
    {
        type            cyclic;
    }
    inandouthalf32
    {
        type            cyclic;
    }
    inandouthalf41
    {
        type            cyclic;
    }
    inandouthalf42
    {
        type            cyclic;
    }
    top
    {
        type            symmetryPlane;
    }
    walls
    {
        type            calculated;
        value           uniform (0 0 0);
    }
    frontAndBackPlanes
    {
        type            empty;
    }
}


// ************************************************************************* //
