/*--------------------------------*- C++ -*----------------------------------*\
| =========                 |                                                 |
| \\      /  F ield         | OpenFOAM: The Open Source CFD Toolbox           |
|  \\    /   O peration     | Version:  2.4.x                                 |
|   \\  /    A nd           | Web:      www.OpenFOAM.org                      |
|    \\/     M anipulation  |                                                 |
\*---------------------------------------------------------------------------*/
FoamFile
{
    version     2.0;
    format      ascii;
    class       volScalarField;
    location    "1.1";
    object      pa;
}
// * * * * * * * * * * * * * * * * * * * * * * * * * * * * * * * * * * * * * //

dimensions      [1 -1 -2 0 0 0 0];

internalField   nonuniform List<scalar> 
360
(
2.87809e-16
2.87809e-16
2.87806e-16
2.87806e-16
2.87806e-16
2.87803e-16
2.87803e-16
2.878e-16
2.878e-16
2.87798e-16
2.87795e-16
2.87795e-16
2.87792e-16
2.87789e-16
2.87786e-16
2.87783e-16
2.8778e-16
2.87778e-16
2.87775e-16
2.87769e-16
2.87766e-16
2.8776e-16
2.87755e-16
2.87749e-16
2.87743e-16
2.87737e-16
2.87732e-16
2.87723e-16
2.87715e-16
2.87706e-16
2.87697e-16
2.87686e-16
2.87677e-16
2.87663e-16
2.87652e-16
2.87637e-16
2.87623e-16
2.87606e-16
2.87586e-16
2.87569e-16
2.87546e-16
2.87523e-16
2.875e-16
2.87472e-16
2.87443e-16
2.87412e-16
2.87378e-16
2.87343e-16
2.87303e-16
2.87258e-16
2.87212e-16
2.87161e-16
2.87107e-16
2.87047e-16
2.86984e-16
2.86913e-16
2.86839e-16
2.86756e-16
2.86668e-16
2.86574e-16
2.86469e-16
2.86358e-16
2.86236e-16
2.86105e-16
2.85963e-16
2.8581e-16
2.85643e-16
2.85462e-16
2.85266e-16
2.85057e-16
2.84828e-16
2.8458e-16
2.84315e-16
2.84025e-16
2.83712e-16
2.83372e-16
2.83008e-16
2.82613e-16
2.82185e-16
2.81721e-16
2.83005e-16
3.15107e-16
3.95415e-16
3.95797e-16
3.45194e-16
3.17753e-16
3.0831e-16
3.07101e-16
3.09964e-16
3.14378e-16
3.18113e-16
3.19995e-16
3.20437e-16
3.2063e-16
3.21533e-16
3.23545e-16
3.26623e-16
3.30499e-16
3.34877e-16
3.39552e-16
0
0
0
0
0
0
0
0
0
0
0
0
0
0
0
5.22005e-16
5.54975e-16
5.94977e-16
6.45893e-16
7.15248e-16
8.15476e-16
9.62032e-16
1.16021e-15
1.37282e-15
1.50578e-15
1.50757e-15
1.51844e-15
2.00428e-15
6.1103e-15
1.31744e-13
3.33057e-10
2.82188e-06
0.00208871
0.151937
1.71103
4.77616
6.43419
6.7582
6.5908
5.85613
3.8578
2.28449
1.01112
0.182139
0.00804225
0.000268275
0.000143865
0.000179615
0.000312651
0.00131516
0.0093103
0.0438265
0.157503
0.0503992
0.00800272
0.00604299
0.00506002
0.0044504
0.0037524
0.00334707
0.00276173
0.00247419
0.00210539
0.00179265
0.00159786
0.00133541
0.00119573
0.00101508
0.000912341
0.000764763
0.000687894
0.000602692
0.000519825
0.000470587
0.000402605
0.000366001
0.000316178
0.000288678
0.000248208
0.000226624
0.000198051
0.000182313
0.000157441
0.000142906
0.000129659
0.000113876
0.000104981
9.20323e-05
8.52898e-05
7.49213e-05
6.92831e-05
6.09334e-05
5.67663e-05
5.04668e-05
4.62836e-05
4.08844e-05
3.83087e-05
3.44095e-05
3.07713e-05
2.88383e-05
2.56135e-05
2.29878e-05
2.16097e-05
1.94453e-05
1.70907e-05
1.57938e-05
1.41745e-05
1.31016e-05
1.11608e-05
1.01787e-05
9.46011e-06
8.20429e-06
7.1493e-06
6.61121e-06
5.82134e-06
4.9923e-06
4.58711e-06
4.01225e-06
3.42418e-06
3.10457e-06
2.62644e-06
2.38283e-06
1.98656e-06
1.77807e-06
1.46559e-06
1.31508e-06
1.1011e-06
9.86536e-07
7.88316e-07
6.8161e-07
5.69531e-07
5.08802e-07
4.03484e-07
3.27827e-07
2.88117e-07
2.332e-07
1.83391e-07
1.58403e-07
1.24848e-07
9.71788e-08
8.19933e-08
6.14666e-08
5.03503e-08
3.68792e-08
3.00512e-08
2.13284e-08
1.54609e-08
1.1835e-08
7.63341e-09
5.08558e-09
2.68752e-09
0
0
0
0
0
0
0
0
0
0
0
0
0
0
0
0
0
0
0
0
0
0
0
0
0
0
0
0
0
0
0
0
0
0
0
0
0
0
0
0
0
0
0
0
0
0
0
0
0
0
0
0
0
0
0
0
0
0
0
0
0
0
0
0
0
0
0
0
0
0
0
0
0
0
0
0
0
0
0
0
0
0
0
0
0
0
0
0
0
0
0
0
0
0
0
0
0
0
0
0
0
0
0
0
0
0
0
0
0
)
;

boundaryField
{
    inandouthalf11
    {
        type            cyclic;
    }
    inandouthalf12
    {
        type            cyclic;
    }
    inandouthalf21
    {
        type            cyclic;
    }
    inandouthalf22
    {
        type            cyclic;
    }
    inandouthalf31
    {
        type            cyclic;
    }
    inandouthalf32
    {
        type            cyclic;
    }
    inandouthalf41
    {
        type            cyclic;
    }
    inandouthalf42
    {
        type            cyclic;
    }
    top
    {
        type            symmetryPlane;
    }
    walls
    {
        type            calculated;
        value           uniform 2.87809e-16;
    }
    frontAndBackPlanes
    {
        type            empty;
    }
}


// ************************************************************************* //
