/*--------------------------------*- C++ -*----------------------------------*\
| =========                 |                                                 |
| \\      /  F ield         | OpenFOAM: The Open Source CFD Toolbox           |
|  \\    /   O peration     | Version:  2.4.x                                 |
|   \\  /    A nd           | Web:      www.OpenFOAM.org                      |
|    \\/     M anipulation  |                                                 |
\*---------------------------------------------------------------------------*/
FoamFile
{
    version     2.0;
    format      ascii;
    class       volScalarField;
    location    "1.1";
    object      Theta;
}
// * * * * * * * * * * * * * * * * * * * * * * * * * * * * * * * * * * * * * //

dimensions      [0 2 -2 0 0 0 0];

internalField   nonuniform List<scalar> 
360
(
6.66136e-21
6.66136e-21
6.66136e-21
6.66136e-21
6.66136e-21
6.66136e-21
6.66136e-21
6.66136e-21
6.66136e-21
6.66136e-21
6.66136e-21
6.66136e-21
6.66136e-21
6.66136e-21
6.66136e-21
6.66136e-21
6.66136e-21
6.66136e-21
6.66136e-21
6.66136e-21
6.66136e-21
6.66136e-21
6.66136e-21
6.66136e-21
6.66136e-21
6.66136e-21
6.66136e-21
6.66136e-21
6.66136e-21
6.66136e-21
6.66136e-21
6.66136e-21
6.66136e-21
6.66136e-21
6.66136e-21
6.66136e-21
6.66136e-21
6.66136e-21
6.66136e-21
6.66136e-21
6.66136e-21
6.66136e-21
6.66135e-21
6.66135e-21
6.66135e-21
6.66135e-21
6.66135e-21
6.66135e-21
6.66135e-21
6.66135e-21
6.66135e-21
6.66135e-21
6.66135e-21
6.66135e-21
6.66135e-21
6.66135e-21
6.66135e-21
6.66135e-21
6.66135e-21
6.66135e-21
6.66135e-21
6.66135e-21
6.66135e-21
6.66134e-21
6.66134e-21
6.66134e-21
6.66134e-21
6.66134e-21
6.66134e-21
6.66134e-21
6.66133e-21
6.66133e-21
6.66133e-21
6.66133e-21
6.66133e-21
6.66132e-21
6.66132e-21
6.66132e-21
6.66131e-21
6.66131e-21
6.70232e-21
7.4692e-21
9.37075e-21
9.37463e-21
8.17536e-21
7.52888e-21
7.31083e-21
7.28886e-21
7.36362e-21
7.47494e-21
7.56974e-21
7.62018e-21
7.63639e-21
7.64693e-21
7.67476e-21
7.7294e-21
7.80982e-21
7.90963e-21
8.02177e-21
8.14136e-21
0
0
0
0
0
0
0
0
0
0
0
0
0
0
0
1.27562e-20
1.35825e-20
1.45843e-20
1.5858e-20
1.75902e-20
2.00902e-20
2.37443e-20
2.86913e-20
3.40176e-20
3.73881e-20
3.75043e-20
3.78387e-20
5.00176e-20
1.52687e-19
3.297e-18
8.35301e-15
7.10129e-11
5.28041e-08
3.86267e-06
4.38871e-05
0.000124334
0.0001704
0.000182569
0.000183574
0.000176356
0.000142139
9.18075e-05
4.43016e-05
9.5982e-06
5.01424e-07
1.77438e-08
1.01794e-08
1.31507e-08
2.43081e-08
1.06904e-07
8.10909e-07
3.71348e-06
2.27406e-05
0.000439916
0.00114984
0.001553
0.00179111
0.00192831
0.00199931
0.00202379
0.00201767
0.0019895
0.00194787
0.00189772
0.00184237
0.00178501
0.00172676
0.00166925
0.00161295
0.00155878
0.00150659
0.00145681
0.00140956
0.00136469
0.00132238
0.00128238
0.00124477
0.00120933
0.00117609
0.00114481
0.00111547
0.0010879
0.00106208
0.00103781
0.00101501
0.000993621
0.000973498
0.000954595
0.000936785
0.000920025
0.000904206
0.000889282
0.000875155
0.000861791
0.000849114
0.000837079
0.000825613
0.000814689
0.000804258
0.000794266
0.000784692
0.000775396
0.000766258
0.000757278
0.000748437
0.000739707
0.000731078
0.000722532
0.000714062
0.000705634
0.000697233
0.000688855
0.000680474
0.000672068
0.000663626
0.000655131
0.000646558
0.000637896
0.000629126
0.000620226
0.00061118
0.000601967
0.00059257
0.000582966
0.000573137
0.000563057
0.000552706
0.000542061
0.000531101
0.000519794
0.000508111
0.000496024
0.000483505
0.000470515
0.000457011
0.000442955
0.0004283
0.000412986
0.000396957
0.000380141
0.000362453
0.000343799
0.000324064
0.000303107
0.000280754
0.000256782
0.000230888
0.000202643
0.000171397
0.000136007
9.39895e-05
0
0
0
0
0
0
0
0
0
0
0
0
0
0
0
0
0
0
0
0
0
0
0
0
0
0
0
0
0
0
0
0
0
0
0
0
0
0
0
0
0
0
0
0
0
0
0
0
0
0
0
0
0
0
0
0
0
0
0
0
0
0
0
0
0
0
0
0
0
0
0
0
0
0
0
0
0
0
0
0
0
0
0
0
0
0
0
0
0
0
0
0
0
0
0
0
0
0
0
0
0
0
0
0
0
0
0
0
0
)
;

boundaryField
{
    inandouthalf11
    {
        type            cyclic;
    }
    inandouthalf12
    {
        type            cyclic;
    }
    inandouthalf21
    {
        type            cyclic;
    }
    inandouthalf22
    {
        type            cyclic;
    }
    inandouthalf31
    {
        type            cyclic;
    }
    inandouthalf32
    {
        type            cyclic;
    }
    inandouthalf41
    {
        type            cyclic;
    }
    inandouthalf42
    {
        type            cyclic;
    }
    top
    {
        type            symmetryPlane;
    }
    walls
    {
        type            zeroGradient;
    }
    frontAndBackPlanes
    {
        type            empty;
    }
}


// ************************************************************************* //
