/*--------------------------------*- C++ -*----------------------------------*\
| =========                 |                                                 |
| \\      /  F ield         | OpenFOAM: The Open Source CFD Toolbox           |
|  \\    /   O peration     | Version:  2.4.x                                 |
|   \\  /    A nd           | Web:      www.OpenFOAM.org                      |
|    \\/     M anipulation  |                                                 |
\*---------------------------------------------------------------------------*/
FoamFile
{
    version     2.0;
    format      ascii;
    class       volVectorField;
    location    "1.1";
    object      Ub_0;
}
// * * * * * * * * * * * * * * * * * * * * * * * * * * * * * * * * * * * * * //

dimensions      [0 1 -1 0 0 0 0];

internalField   nonuniform List<vector> 
360
(
(0.000167361 4.29209e-14 0)
(0.000167647 1.28645e-13 0)
(0.000167648 2.14471e-13 0)
(0.000167648 3.00535e-13 0)
(0.000167648 3.87226e-13 0)
(0.00016765 4.74268e-13 0)
(0.00016765 5.60927e-13 0)
(0.000167651 6.47275e-13 0)
(0.000167651 7.33658e-13 0)
(0.000167652 8.2009e-13 0)
(0.000167654 9.06476e-13 0)
(0.000167654 9.92949e-13 0)
(0.000167655 1.07928e-12 0)
(0.000167657 1.16527e-12 0)
(0.000167658 1.25121e-12 0)
(0.000167659 1.33694e-12 0)
(0.000167661 1.42249e-12 0)
(0.000167662 1.50837e-12 0)
(0.000167664 1.59381e-12 0)
(0.000167667 1.6788e-12 0)
(0.000167668 1.7637e-12 0)
(0.000167671 1.84842e-12 0)
(0.000167674 1.93277e-12 0)
(0.000167676 2.01728e-12 0)
(0.000167679 2.10128e-12 0)
(0.000167682 2.18463e-12 0)
(0.000167685 2.26821e-12 0)
(0.000167689 2.35149e-12 0)
(0.000167693 2.43417e-12 0)
(0.000167698 2.5167e-12 0)
(0.000167702 2.59904e-12 0)
(0.000167707 2.68103e-12 0)
(0.000167712 2.76251e-12 0)
(0.000167719 2.84369e-12 0)
(0.000167724 2.92457e-12 0)
(0.000167731 3.00525e-12 0)
(0.000167738 3.08561e-12 0)
(0.000167747 3.16551e-12 0)
(0.000167757 3.24517e-12 0)
(0.000167765 3.32449e-12 0)
(0.000167776 3.4034e-12 0)
(0.000167788 3.4818e-12 0)
(0.000167799 3.55981e-12 0)
(0.000167813 3.63749e-12 0)
(0.000167827 3.71471e-12 0)
(0.000167843 3.79156e-12 0)
(0.00016786 3.86785e-12 0)
(0.000167877 3.94369e-12 0)
(0.000167896 4.01921e-12 0)
(0.000167919 4.09439e-12 0)
(0.000167942 4.16923e-12 0)
(0.000167967 4.24367e-12 0)
(0.000167994 4.31751e-12 0)
(0.000168023 4.39093e-12 0)
(0.000168054 4.4638e-12 0)
(0.00016809 4.53636e-12 0)
(0.000168127 4.60844e-12 0)
(0.000168167 4.67983e-12 0)
(0.000168211 4.75062e-12 0)
(0.000168258 4.82112e-12 0)
(0.00016831 4.89126e-12 0)
(0.000168365 4.96063e-12 0)
(0.000168426 5.0294e-12 0)
(0.000168491 5.09773e-12 0)
(0.000168562 5.16535e-12 0)
(0.000168639 5.23265e-12 0)
(0.000168722 5.29941e-12 0)
(0.000168813 5.3651e-12 0)
(0.000168911 5.43034e-12 0)
(0.000169016 5.49505e-12 0)
(0.000169131 5.55915e-12 0)
(0.000169256 5.62264e-12 0)
(0.000169389 5.68588e-12 0)
(0.000169536 5.74926e-12 0)
(0.000169694 6.86242e-12 0)
(0.000169867 -3.28505e-11 0)
(0.000170052 2.7094e-10 0)
(0.000170253 -1.01322e-09 0)
(0.000170472 4.29744e-09 0)
(0.00017071 -1.82117e-08 0)
(0.00017094 7.62775e-08 0)
(0.000171336 1.16792e-06 0)
(0.000172213 3.68954e-06 0)
(0.000173353 6.74686e-06 0)
(0.00017439 9.40505e-06 0)
(0.000175266 1.14498e-05 0)
(0.000176052 1.31154e-05 0)
(0.000176816 1.46527e-05 0)
(0.000177599 1.62192e-05 0)
(0.000178423 1.78855e-05 0)
(0.000179287 1.96539e-05 0)
(0.000180182 2.14873e-05 0)
(0.000181098 2.33458e-05 0)
(0.000182032 2.52107e-05 0)
(0.000182989 2.70869e-05 0)
(0.000183976 2.89935e-05 0)
(0.000185003 3.09513e-05 0)
(0.000186076 3.29758e-05 0)
(0.000187201 3.5075e-05 0)
(0.00018838 3.72514e-05 0)
(0.000189617 3.95046e-05 0)
(0.000190912 4.18336e-05 0)
(0.000192267 4.42378e-05 0)
(0.000193685 4.67169e-05 0)
(0.000195169 4.92706e-05 0)
(0.00019672 5.18989e-05 0)
(0.000198343 5.46025e-05 0)
(0.000200043 5.73832e-05 0)
(0.000201826 6.02441e-05 0)
(0.000203699 6.31898e-05 0)
(0.000205672 6.62262e-05 0)
(0.000207756 6.93604e-05 0)
(0.000209962 7.26001e-05 0)
(0.000212306 7.59536e-05 0)
(0.000214802 7.94284e-05 0)
(0.000217469 8.30311e-05 0)
(0.000220325 8.67668e-05 0)
(0.000223391 9.06408e-05 0)
(0.000226698 9.46622e-05 0)
(0.000230287 9.88496e-05 0)
(0.000234223 0.000103234 0)
(0.000238587 0.000107855 0)
(0.000243465 0.000112734 0)
(0.000248898 0.000117833 0)
(0.000254828 0.000123005 0)
(0.000261097 0.000128009 0)
(0.00026761 0.000132628 0)
(0.000274671 0.000136836 0)
(0.000283545 0.00014091 0)
(0.000298202 0.000145515 0)
(0.000334198 0.000151768 0)
(0.000482055 0.000160685 0)
(0.00153854 0.000172183 0)
(0.0101745 0.000186296 0)
(0.0466608 0.000208029 0)
(0.115023 0.000240919 0)
(0.196274 0.000278957 0)
(0.280136 0.000320694 0)
(0.364368 0.000376844 0)
(0.449143 0.00058062 0)
(0.53407 0.000957389 0)
(0.612776 0.00115152 0)
(0.679396 0.00130791 0)
(0.731906 0.00169094 0)
(0.757778 0.00205838 0)
(0.76719 0.0021161 0)
(0.774855 0.00219018 0)
(0.782683 0.00220803 0)
(0.791436 0.00227705 0)
(0.8021 0.00231227 0)
(0.819377 0.0024237 0)
(0.848987 0.00240131 0)
(0.886149 0.00235263 0)
(0.935039 0.00256995 0)
(0.983263 -0.00196873 0)
(1.02832 0.00186203 0)
(1.06841 -0.0016791 0)
(1.10336 0.00157188 0)
(1.13343 -0.00141379 0)
(1.1587 0.00131642 0)
(1.17955 -0.00117983 0)
(1.1963 0.00109339 0)
(1.20952 -0.000975974 0)
(1.21999 0.000900736 0)
(1.22829 -0.000800715 0)
(1.23513 0.00073623 0)
(1.24087 -0.000651574 0)
(1.24585 0.000596913 0)
(1.25023 -0.000525605 0)
(1.25416 0.000479769 0)
(1.2577 -0.000420264 0)
(1.2609 0.000382286 0)
(1.26383 -0.000332833 0)
(1.26649 0.000301622 0)
(1.26894 -0.0002608 0)
(1.27118 0.000235441 0)
(1.27324 -0.000201986 0)
(1.27513 0.000181644 0)
(1.27688 -0.000154416 0)
(1.27849 0.000138259 0)
(1.27997 -0.000116264 0)
(1.28134 0.000103649 0)
(1.2826 -8.60001e-05 0)
(1.28376 7.62439e-05 0)
(1.28483 -6.22024e-05 0)
(1.28583 5.48391e-05 0)
(1.28674 -4.37722e-05 0)
(1.28759 3.83231e-05 0)
(1.28837 -2.96727e-05 0)
(1.28909 2.5752e-05 0)
(1.28976 -1.90573e-05 0)
(1.29038 1.63318e-05 0)
(1.29095 -1.1206e-05 0)
(1.29147 9.41941e-06 0)
(1.29196 -5.53488e-06 0)
(1.29241 4.44311e-06 0)
(1.29282 -1.54224e-06 0)
(1.2932 9.88373e-07 0)
(1.29356 1.15313e-06 0)
(1.29388 -1.33695e-06 0)
(1.29419 2.90559e-06 0)
(1.29447 -2.92978e-06 0)
(1.29473 4.19295e-06 0)
(1.29498 -4.10567e-06 0)
(1.29522 5.05033e-06 0)
(1.29543 -4.82804e-06 0)
(1.29564 5.29787e-06 0)
(1.29583 -4.81431e-06 0)
(1.29601 5.10554e-06 0)
(1.29617 -4.65929e-06 0)
(1.29632 4.85698e-06 0)
(1.29646 -4.44033e-06 0)
(1.29659 4.56774e-06 0)
(1.29671 -4.20603e-06 0)
(1.29682 4.28319e-06 0)
(1.29693 -3.94459e-06 0)
(1.29702 3.94978e-06 0)
(1.2971 -3.62324e-06 0)
(1.29718 3.57855e-06 0)
(1.29725 -3.27425e-06 0)
(1.29732 3.19542e-06 0)
(1.29737 -2.91357e-06 0)
(1.29743 2.81307e-06 0)
(1.29747 -2.55649e-06 0)
(1.29752 2.44323e-06 0)
(1.29755 -2.21294e-06 0)
(1.29759 2.09581e-06 0)
(1.29762 -1.89027e-06 0)
(1.29764 1.77485e-06 0)
(1.29767 -1.59548e-06 0)
(1.29769 1.48503e-06 0)
(1.29771 -1.32866e-06 0)
(1.29772 1.22729e-06 0)
(1.29774 -1.09382e-06 0)
(1.29775 1.00186e-06 0)
(1.29776 -8.8814e-07 0)
(1.29777 8.06862e-07 0)
(1.29778 -7.11787e-07 0)
(1.29779 6.41567e-07 0)
(1.29779 -5.62817e-07 0)
(1.2978 5.02905e-07 0)
(1.2978 -4.38303e-07 0)
(1.29781 3.88162e-07 0)
(1.29781 -3.35904e-07 0)
(1.29781 2.94639e-07 0)
(1.29781 -2.52853e-07 0)
(1.29782 2.19403e-07 0)
(1.29782 -1.86484e-07 0)
(1.29782 1.59915e-07 0)
(1.29782 -1.34342e-07 0)
(1.29782 1.13555e-07 0)
(1.29782 -9.39823e-08 0)
(1.29782 7.81581e-08 0)
(1.29782 -6.33442e-08 0)
(1.29782 5.14034e-08 0)
(1.29782 -4.05646e-08 0)
(1.29782 3.17887e-08 0)
(1.29782 -2.39958e-08 0)
(1.29782 1.7728e-08 0)
(1.29782 -1.2283e-08 0)
(1.29782 7.95334e-09 0)
(1.29782 -4.28673e-09 0)
(1.29782 1.42455e-09 0)
(1.29782 9.26708e-10 0)
(1.29782 -2.70609e-09 0)
(1.29782 4.10392e-09 0)
(1.29782 -5.10179e-09 0)
(1.29782 5.82178e-09 0)
(1.29782 -6.35142e-09 0)
(1.29782 6.73306e-09 0)
(1.29782 -6.70909e-09 0)
(1.29782 6.57974e-09 0)
(1.29782 -6.38089e-09 0)
(1.29782 6.14612e-09 0)
(1.29782 -5.87405e-09 0)
(1.29782 5.58235e-09 0)
(1.29782 -5.26821e-09 0)
(1.29782 4.94436e-09 0)
(1.29782 -4.60806e-09 0)
(1.29782 4.26937e-09 0)
(1.29782 -3.92574e-09 0)
(1.29782 3.58565e-09 0)
(1.29782 -3.24666e-09 0)
(1.29782 2.91625e-09 0)
(1.29782 -2.59207e-09 0)
(1.29782 2.28076e-09 0)
(1.29782 -1.98012e-09 0)
(1.29782 1.69607e-09 0)
(1.29782 -1.42659e-09 0)
(1.29782 1.17697e-09 0)
(1.29782 -9.45539e-10 0)
(1.29782 7.36903e-10 0)
(1.29782 -5.49922e-10 0)
(1.29782 3.88481e-10 0)
(1.29782 -2.52124e-10 0)
(1.29782 1.4405e-10 0)
(1.29782 -6.45531e-11 0)
(1.29782 1.62884e-11 0)
(1.29782 -6.09416e-13 0)
(1.29782 6.05242e-14 0)
(1.29782 3.501e-14 0)
(1.29782 3.0939e-14 0)
(1.29782 2.63677e-14 0)
(1.29782 2.25216e-14 0)
(1.29782 1.8909e-14 0)
(1.29782 1.59436e-14 0)
(1.29782 1.39697e-14 0)
(1.29782 1.35256e-14 0)
(1.29782 1.37799e-14 0)
(1.29782 1.51574e-14 0)
(1.29782 1.84855e-14 0)
(1.29782 2.25114e-14 0)
(1.29782 2.50825e-14 0)
(1.29782 2.668e-14 0)
(1.29782 2.98917e-14 0)
(1.29782 3.60166e-14 0)
(1.29782 4.30103e-14 0)
(1.29782 5.15751e-14 0)
(1.29782 6.37745e-14 0)
(1.29782 7.94863e-14 0)
(1.29782 9.50883e-14 0)
(1.29782 1.11274e-13 0)
(1.29782 1.31963e-13 0)
(1.29782 1.59248e-13 0)
(1.29782 1.90741e-13 0)
(1.29782 2.28374e-13 0)
(1.29782 2.80233e-13 0)
(1.29782 3.60136e-13 0)
(1.29782 4.76979e-13 0)
(1.29782 6.40628e-13 0)
(1.29782 8.43808e-13 0)
(1.29782 1.08387e-12 0)
(1.29782 1.33485e-12 0)
(1.29782 1.60593e-12 0)
(1.29782 1.91738e-12 0)
(1.29782 2.26237e-12 0)
(1.29782 2.59894e-12 0)
(1.29782 2.92815e-12 0)
(1.29782 3.29207e-12 0)
(1.29782 3.69613e-12 0)
(1.29782 4.12881e-12 0)
(1.29782 4.56643e-12 0)
(1.29782 5.02951e-12 0)
(1.29782 5.52191e-12 0)
(1.29782 6.16995e-12 0)
(1.29782 6.90522e-12 0)
(1.29782 7.58526e-12 0)
(1.29782 8.12455e-12 0)
(1.29782 8.65148e-12 0)
(1.29782 9.05519e-12 0)
(1.29782 9.20633e-12 0)
(1.29782 9.13697e-12 0)
(1.29782 9.3348e-12 0)
(1.29782 9.60833e-12 0)
(1.29782 9.43196e-12 0)
(1.29782 8.60327e-12 0)
(1.29782 7.47534e-12 0)
(1.29782 6.06435e-12 0)
(1.29782 4.08866e-12 0)
(1.29782 1.55868e-12 0)
)
;

boundaryField
{
    inandouthalf11
    {
        type            cyclic;
    }
    inandouthalf12
    {
        type            cyclic;
    }
    inandouthalf21
    {
        type            cyclic;
    }
    inandouthalf22
    {
        type            cyclic;
    }
    inandouthalf31
    {
        type            cyclic;
    }
    inandouthalf32
    {
        type            cyclic;
    }
    inandouthalf41
    {
        type            cyclic;
    }
    inandouthalf42
    {
        type            cyclic;
    }
    top
    {
        type            symmetryPlane;
    }
    walls
    {
        type            fixedValue;
        value           uniform (0 0 0);
    }
    frontAndBackPlanes
    {
        type            empty;
    }
}


// ************************************************************************* //
