/*--------------------------------*- C++ -*----------------------------------*\
| =========                 |                                                 |
| \\      /  F ield         | OpenFOAM: The Open Source CFD Toolbox           |
|  \\    /   O peration     | Version:  2.4.x                                 |
|   \\  /    A nd           | Web:      www.OpenFOAM.org                      |
|    \\/     M anipulation  |                                                 |
\*---------------------------------------------------------------------------*/
FoamFile
{
    version     2.0;
    format      ascii;
    class       volScalarField;
    location    "6.5";
    object      alpha;
}
// * * * * * * * * * * * * * * * * * * * * * * * * * * * * * * * * * * * * * //

dimensions      [0 0 0 0 0 0 0];

internalField   nonuniform List<scalar> 
360
(
0.610722
0.611499
0.61161
0.611532
0.611485
0.611466
0.611447
0.611425
0.611402
0.611378
0.611354
0.61133
0.611306
0.611281
0.611257
0.611232
0.611207
0.611182
0.611156
0.61113
0.611104
0.611078
0.611052
0.611025
0.610998
0.61097
0.610943
0.610915
0.610887
0.610859
0.61083
0.610801
0.610773
0.610743
0.610713
0.610684
0.610653
0.610623
0.610592
0.610561
0.610529
0.610498
0.610466
0.610433
0.6104
0.610367
0.610333
0.610299
0.610265
0.61023
0.610196
0.610161
0.610125
0.61009
0.610055
0.610019
0.609983
0.609947
0.60991
0.609873
0.609834
0.609795
0.609753
0.609711
0.609667
0.609621
0.609573
0.609523
0.609473
0.609423
0.609375
0.609329
0.609286
0.609244
0.609204
0.609163
0.609122
0.60908
0.609037
0.608994
0.608949
0.608903
0.608856
0.608807
0.608758
0.608707
0.608655
0.608602
0.608547
0.608492
0.608436
0.608378
0.608319
0.608258
0.608196
0.608133
0.608068
0.608002
0.607934
0.607865
0.607793
0.607721
0.607646
0.60757
0.607491
0.607411
0.607329
0.607244
0.607158
0.607069
0.606978
0.606884
0.606787
0.606688
0.606586
0.606481
0.606373
0.606262
0.606147
0.606029
0.605907
0.605781
0.605651
0.605516
0.605377
0.605234
0.605085
0.604931
0.60477
0.604604
0.60443
0.60425
0.604061
0.603863
0.603652
0.603428
0.603194
0.602946
0.60267
0.602354
0.602013
0.601688
0.601298
0.600793
0.600166
0.599003
0.595386
0.594126
0.467793
0.255979
0.174551
0.127965
0.0951129
0.0711422
0.0537111
0.0410648
0.0318451
0.025053
0.0199819
0.0161406
0.0131888
0.010889
0.00907433
0.00762545
0.00645615
0.00550322
0.00471968
0.00407017
0.00352776
0.00307172
0.00268591
0.00235764
0.00207686
0.00183553
0.00162718
0.00144653
0.0012893
0.00115194
0.00103154
0.000925672
0.000832291
0.000749694
0.000676439
0.000611304
0.000553251
0.000501391
0.000454962
0.00041331
0.000375869
0.000342151
0.000311729
0.000284231
0.000259332
0.000236745
0.000216215
0.000197518
0.000180453
0.00016484
0.000150519
0.000137351
0.000125228
0.000113948
0.000103353
9.34058e-05
8.40795e-05
7.53204e-05
6.70691e-05
5.93063e-05
5.20289e-05
4.52565e-05
3.90222e-05
3.33503e-05
2.82777e-05
2.38073e-05
1.99097e-05
1.65641e-05
1.3724e-05
1.13313e-05
9.3291e-06
7.66611e-06
6.29116e-06
5.15017e-06
4.20862e-06
3.43418e-06
2.7951e-06
2.26896e-06
1.83797e-06
1.48336e-06
1.19483e-06
9.55259e-07
7.64787e-07
6.0245e-07
4.79931e-07
3.64761e-07
3.01208e-07
2.04967e-07
2.6621e-07
1.87554e-07
7.75177e-08
3.53039e-08
1.15878e-08
1.71224e-28
1.28716e-29
7.32511e-30
2.85215e-30
1.32831e-30
7.50753e-31
4.84665e-31
3.51734e-31
2.77224e-31
2.168e-31
1.4797e-31
7.0532e-32
2.97961e-32
1.51964e-32
8.75688e-33
5.55014e-33
3.74687e-33
2.32486e-33
1.06932e-33
5.07609e-34
2.67234e-34
1.47738e-34
8.28544e-35
4.1433e-35
2.04263e-35
1.03132e-35
5.1469e-36
2.526e-36
1.21795e-36
5.766e-37
2.67853e-37
1.22015e-37
5.44662e-38
2.38079e-38
1.01827e-38
4.25791e-39
1.7392e-39
6.93304e-40
2.69459e-40
1.02001e-40
3.75644e-41
1.34427e-41
4.6685e-42
1.57126e-42
5.11741e-43
1.6102e-43
4.88615e-44
1.42718e-44
4.00404e-45
1.07651e-45
2.76641e-46
6.77571e-47
1.57668e-47
3.47308e-48
7.21258e-49
1.40551e-49
2.55619e-50
4.31129e-51
6.69281e-52
9.47669e-53
1.21034e-53
1.37489e-54
1.364e-55
1.15307e-56
8.01906e-58
4.34528e-59
1.66744e-60
3.65567e-62
1.54404e-64
1.42826e-68
1.46435e-70
7.44927e-73
2.46841e-83
4.0576e-94
4.6727e-105
3.91571e-116
2.71697e-127
1.47534e-138
6.7898e-150
8.53286e-160
3.41299e-170
2.87307e-178
1.02708e-188
9.88244e-197
4.09165e-207
3.39997e-215
1.71974e-225
1.17072e-233
1.08194e-243
4.08327e-252
7.03186e-262
1.45068e-270
3.4638e-280
5.24439e-289
1.63695e-298
1.92447e-307
7.18607e-317
4.52722e-319
2.8055e-319
6.80328e-321
7.09478e-321
6.08689e-321
8.5424e-321
0
0
0
0
0
0
0
0
0
0
0
0
0
0
0
0
)
;

boundaryField
{
    inandouthalf11
    {
        type            cyclic;
    }
    inandouthalf12
    {
        type            cyclic;
    }
    inandouthalf21
    {
        type            cyclic;
    }
    inandouthalf22
    {
        type            cyclic;
    }
    inandouthalf31
    {
        type            cyclic;
    }
    inandouthalf32
    {
        type            cyclic;
    }
    inandouthalf41
    {
        type            cyclic;
    }
    inandouthalf42
    {
        type            cyclic;
    }
    top
    {
        type            symmetryPlane;
    }
    walls
    {
        type            zeroGradient;
    }
    frontAndBackPlanes
    {
        type            empty;
    }
}


// ************************************************************************* //
