/*--------------------------------*- C++ -*----------------------------------*\
| =========                 |                                                 |
| \\      /  F ield         | OpenFOAM: The Open Source CFD Toolbox           |
|  \\    /   O peration     | Version:  2.4.x                                 |
|   \\  /    A nd           | Web:      www.OpenFOAM.org                      |
|    \\/     M anipulation  |                                                 |
\*---------------------------------------------------------------------------*/
FoamFile
{
    version     2.0;
    format      ascii;
    class       surfaceScalarField;
    location    "6.5";
    object      ddt0(phia);
}
// * * * * * * * * * * * * * * * * * * * * * * * * * * * * * * * * * * * * * //

dimensions      [0 3 -2 0 0 0 0];

internalField   nonuniform List<scalar> 
359
(
1.57304e-13
4.25064e-13
6.74344e-13
9.08301e-13
1.14576e-12
1.39054e-12
1.63965e-12
1.89054e-12
2.14224e-12
2.39509e-12
2.64964e-12
2.90605e-12
3.16428e-12
3.42406e-12
3.68525e-12
3.94781e-12
4.21177e-12
4.47715e-12
4.74393e-12
5.0122e-12
5.2818e-12
5.55282e-12
5.82518e-12
6.0988e-12
6.3735e-12
6.64903e-12
6.92508e-12
7.2014e-12
7.47767e-12
7.75362e-12
8.02914e-12
8.30456e-12
8.58021e-12
8.85737e-12
9.13724e-12
9.42182e-12
9.71327e-12
1.00141e-11
1.03267e-11
1.06524e-11
1.09922e-11
1.1345e-11
1.17076e-11
1.20744e-11
1.24366e-11
1.27827e-11
1.30989e-11
1.33707e-11
1.35854e-11
1.37344e-11
1.38156e-11
1.38365e-11
1.38151e-11
1.37808e-11
1.37732e-11
1.38412e-11
1.40423e-11
1.44442e-11
1.51278e-11
1.61927e-11
1.77662e-11
2.00009e-11
2.30673e-11
2.70992e-11
3.20805e-11
3.76321e-11
4.27665e-11
4.58189e-11
4.49467e-11
3.92766e-11
2.99007e-11
1.95498e-11
1.09296e-11
5.24573e-12
2.18898e-12
8.09208e-13
2.71841e-13
8.54539e-14
2.59454e-14
7.85099e-15
2.43651e-15
7.92533e-16
2.73173e-16
9.91747e-17
3.65789e-17
1.22673e-17
2.0937e-18
-2.43661e-18
-4.52128e-18
-5.44499e-18
-5.75144e-18
-5.67897e-18
-5.32809e-18
-4.73351e-18
-3.89533e-18
-2.79554e-18
-1.40745e-18
2.97534e-19
2.34435e-18
4.75185e-18
7.52874e-18
1.06728e-17
1.41713e-17
1.80004e-17
2.21277e-17
2.6515e-17
3.11192e-17
3.58957e-17
4.07998e-17
4.57889e-17
5.08233e-17
5.5868e-17
6.0892e-17
6.587e-17
7.07817e-17
7.56115e-17
8.03485e-17
8.49863e-17
8.95219e-17
9.3954e-17
9.82838e-17
1.02512e-16
1.06639e-16
1.10659e-16
1.14567e-16
1.1835e-16
1.21992e-16
1.2547e-16
1.28759e-16
1.31831e-16
1.34657e-16
1.37217e-16
1.39502e-16
1.41524e-16
1.43308e-16
1.44881e-16
1.46272e-16
1.47514e-16
1.48635e-16
1.49634e-16
1.50442e-16
1.50959e-16
1.51224e-16
1.51329e-16
1.51356e-16
1.51317e-16
1.51745e-16
4.24672e-12
-1.27072e-08
-2.60823e-08
-3.96479e-08
-4.52178e-08
-4.64538e-08
-4.46312e-08
-4.17872e-08
-3.89956e-08
-3.66664e-08
-3.4858e-08
-3.35051e-08
-3.25064e-08
-3.17688e-08
-3.12173e-08
-3.0794e-08
-3.04569e-08
-3.01756e-08
-2.99301e-08
-2.97081e-08
-2.95036e-08
-2.93151e-08
-2.91439e-08
-2.89934e-08
-2.88676e-08
-2.87704e-08
-2.87054e-08
-2.8675e-08
-2.86808e-08
-2.87232e-08
-2.88018e-08
-2.89152e-08
-2.90612e-08
-2.9237e-08
-2.94397e-08
-2.96657e-08
-2.99117e-08
-3.01741e-08
-3.04495e-08
-3.07344e-08
-3.10259e-08
-3.13209e-08
-3.16167e-08
-3.19107e-08
-3.22002e-08
-3.24823e-08
-3.27539e-08
-3.30112e-08
-3.32497e-08
-3.34639e-08
-3.36476e-08
-3.37936e-08
-3.38946e-08
-3.39453e-08
-3.39435e-08
-3.3883e-08
-3.37588e-08
-3.35666e-08
-3.32961e-08
-3.29369e-08
-3.24858e-08
-3.19438e-08
-3.13219e-08
-3.06365e-08
-2.99088e-08
-2.9166e-08
-2.84258e-08
-2.77028e-08
-2.70124e-08
-2.63593e-08
-2.57445e-08
-2.5168e-08
-2.46295e-08
-2.41234e-08
-2.3643e-08
-2.31892e-08
-2.27581e-08
-2.23453e-08
-2.19526e-08
-2.15786e-08
-2.12257e-08
-2.08908e-08
-2.05801e-08
-2.02891e-08
-2.00295e-08
-1.977e-08
-1.95852e-08
-1.93807e-08
-1.98858e-08
-2.01301e-08
1.75218e-08
4.71677e-08
-2.23436e-07
2.76557e-07
1.78989e-07
1.11646e-10
2.77526e-11
6.80349e-11
9.03496e-11
1.08222e-10
1.21034e-10
1.29355e-10
1.33491e-10
1.33526e-10
1.29147e-10
1.1938e-10
1.01634e-10
6.75848e-11
-1.98195e-11
-1.37637e-10
5.36605e-11
9.81131e-11
9.67108e-11
9.66169e-11
9.65759e-11
9.65924e-11
9.65766e-11
9.65927e-11
9.65766e-11
9.65931e-11
9.65765e-11
9.65934e-11
9.65763e-11
9.65935e-11
9.65763e-11
9.65936e-11
9.65762e-11
9.65936e-11
9.65762e-11
9.65938e-11
9.65759e-11
9.6594e-11
9.65757e-11
9.65942e-11
9.65755e-11
9.65944e-11
9.65754e-11
9.65946e-11
9.65752e-11
9.65947e-11
9.65751e-11
9.65948e-11
9.6575e-11
9.65949e-11
9.6575e-11
9.65949e-11
9.6575e-11
9.65948e-11
9.6575e-11
9.65948e-11
9.65752e-11
9.65946e-11
9.65753e-11
9.65944e-11
9.65755e-11
9.65942e-11
9.65758e-11
9.65939e-11
9.65761e-11
9.65936e-11
9.65765e-11
9.65932e-11
9.6577e-11
9.65928e-11
9.65773e-11
9.65924e-11
9.65776e-11
9.65921e-11
9.6578e-11
9.65918e-11
9.65783e-11
9.65914e-11
9.65786e-11
9.65911e-11
9.65789e-11
9.65908e-11
9.65792e-11
9.65905e-11
9.65795e-11
9.65902e-11
9.65798e-11
9.65899e-11
9.65801e-11
9.65896e-11
9.65804e-11
9.65893e-11
9.65807e-11
9.6589e-11
9.65809e-11
9.65886e-11
9.65812e-11
9.65883e-11
9.65816e-11
9.65879e-11
9.65819e-11
9.65875e-11
9.65822e-11
9.65871e-11
9.65825e-11
9.65867e-11
9.65828e-11
9.65863e-11
9.65831e-11
9.6586e-11
9.65834e-11
9.65856e-11
9.65837e-11
9.65855e-11
9.65747e-11
9.4968e-11
-3.57681e-11
2.22923e-09
)
;

boundaryField
{
    inandouthalf11
    {
        type            cyclic;
        value           nonuniform List<scalar> 
100
(
-5.85323e-39
-2.25838e-14
-4.81888e-14
-7.08423e-14
-9.3268e-14
-1.16495e-13
-1.40218e-13
-1.6413e-13
-1.88138e-13
-2.1225e-13
-2.36508e-13
-2.60942e-13
-2.85553e-13
-3.10329e-13
-3.35256e-13
-3.60329e-13
-3.8555e-13
-4.10922e-13
-4.36446e-13
-4.62124e-13
-4.87954e-13
-5.13936e-13
-5.40071e-13
-5.66358e-13
-5.9279e-13
-6.19355e-13
-6.46038e-13
-6.72823e-13
-6.99695e-13
-7.26631e-13
-7.5362e-13
-7.80661e-13
-8.0777e-13
-8.34992e-13
-8.62399e-13
-8.90087e-13
-9.18185e-13
-9.46849e-13
-9.76244e-13
-1.00651e-12
-1.03775e-12
-1.06999e-12
-1.10312e-12
-1.13689e-12
-1.17085e-12
-1.20433e-12
-1.23646e-12
-1.26623e-12
-1.29261e-12
-1.31474e-12
-1.33211e-12
-1.34472e-12
-1.35332e-12
-1.35951e-12
-1.36571e-12
-1.37515e-12
-1.39187e-12
-1.42071e-12
-1.46752e-12
-1.5396e-12
-1.64621e-12
-1.79915e-12
-2.01254e-12
-2.30093e-12
-2.67298e-12
-3.11801e-12
-3.58435e-12
-3.95881e-12
-4.07607e-12
-3.79187e-12
-3.09931e-12
-2.18062e-12
-1.30743e-12
-6.68637e-13
-2.94801e-13
-1.14168e-13
-3.98292e-14
-1.28997e-14
-4.00738e-15
-1.23461e-15
-3.8994e-16
-1.30573e-16
-4.81519e-17
-2.04957e-17
-1.0561e-17
-6.71165e-18
-5.10108e-18
-4.3775e-18
-4.03355e-18
-3.86563e-18
-3.78686e-18
-3.75826e-18
-3.76184e-18
-3.7895e-18
-3.83824e-18
-3.90774e-18
-3.99914e-18
-4.11442e-18
-4.25582e-18
-4.42549e-18
)
;
    }
    inandouthalf12
    {
        type            cyclic;
        value           nonuniform List<scalar> 
100
(
5.85323e-39
2.25838e-14
4.81888e-14
7.08423e-14
9.3268e-14
1.16495e-13
1.40218e-13
1.6413e-13
1.88138e-13
2.1225e-13
2.36508e-13
2.60942e-13
2.85553e-13
3.10329e-13
3.35256e-13
3.60329e-13
3.8555e-13
4.10922e-13
4.36446e-13
4.62124e-13
4.87954e-13
5.13936e-13
5.40071e-13
5.66358e-13
5.9279e-13
6.19355e-13
6.46038e-13
6.72823e-13
6.99695e-13
7.26631e-13
7.5362e-13
7.80661e-13
8.0777e-13
8.34992e-13
8.62399e-13
8.90087e-13
9.18185e-13
9.46849e-13
9.76244e-13
1.00651e-12
1.03775e-12
1.06999e-12
1.10312e-12
1.13689e-12
1.17085e-12
1.20433e-12
1.23646e-12
1.26623e-12
1.29261e-12
1.31474e-12
1.33211e-12
1.34472e-12
1.35332e-12
1.35951e-12
1.36571e-12
1.37515e-12
1.39187e-12
1.42071e-12
1.46752e-12
1.5396e-12
1.64621e-12
1.79915e-12
2.01254e-12
2.30093e-12
2.67298e-12
3.11801e-12
3.58435e-12
3.95881e-12
4.07607e-12
3.79187e-12
3.09931e-12
2.18062e-12
1.30743e-12
6.68637e-13
2.94801e-13
1.14168e-13
3.98292e-14
1.28997e-14
4.00738e-15
1.23461e-15
3.8994e-16
1.30573e-16
4.81519e-17
2.04957e-17
1.0561e-17
6.71165e-18
5.10108e-18
4.3775e-18
4.03355e-18
3.86563e-18
3.78686e-18
3.75826e-18
3.76184e-18
3.7895e-18
3.83824e-18
3.90774e-18
3.99914e-18
4.11442e-18
4.25582e-18
4.42549e-18
)
;
    }
    inandouthalf21
    {
        type            cyclic;
        value           nonuniform List<scalar> 
100
(
-4.62517e-18
-4.8561e-18
-5.11873e-18
-5.41288e-18
-5.73757e-18
-6.09122e-18
-6.47179e-18
-6.8768e-18
-7.30354e-18
-7.74922e-18
-8.21106e-18
-8.68645e-18
-9.17289e-18
-9.6682e-18
-1.01706e-17
-1.06786e-17
-1.11912e-17
-1.17078e-17
-1.2228e-17
-1.27519e-17
-1.32801e-17
-1.3813e-17
-1.43513e-17
-1.48953e-17
-1.5445e-17
-1.59997e-17
-1.6558e-17
-1.71174e-17
-1.76741e-17
-1.82232e-17
-1.87583e-17
-1.9273e-17
-1.97618e-17
-2.02218e-17
-2.06534e-17
-2.10591e-17
-2.14432e-17
-2.18123e-17
-2.21752e-17
-2.25364e-17
-2.28796e-17
-2.31638e-17
-2.33547e-17
-2.34558e-17
-2.34964e-17
-2.35161e-17
-2.35335e-17
-2.36904e-17
-3.30837e-11
-1.2071e-07
-1.62847e-07
-1.95615e-07
-2.23351e-07
-2.46327e-07
-2.6524e-07
-2.80849e-07
-2.93846e-07
-3.04798e-07
-3.14143e-07
-3.22213e-07
-3.29262e-07
-3.35483e-07
-3.41027e-07
-3.46013e-07
-3.50534e-07
-3.54662e-07
-3.58458e-07
-3.61965e-07
-3.6522e-07
-3.68251e-07
-3.7108e-07
-3.73725e-07
-3.76198e-07
-3.78512e-07
-3.80676e-07
-3.82696e-07
-3.8458e-07
-3.86332e-07
-3.87957e-07
-3.89459e-07
-3.90841e-07
-3.92105e-07
-3.93255e-07
-3.94293e-07
-3.9522e-07
-3.96041e-07
-3.96755e-07
-3.97367e-07
-3.97878e-07
-3.98291e-07
-3.98609e-07
-3.98833e-07
-3.98968e-07
-3.99016e-07
-3.98981e-07
-3.98866e-07
-3.98676e-07
-3.98414e-07
-3.98085e-07
-3.97694e-07
)
;
    }
    inandouthalf22
    {
        type            cyclic;
        value           nonuniform List<scalar> 
100
(
4.62517e-18
4.8561e-18
5.11873e-18
5.41288e-18
5.73757e-18
6.09122e-18
6.47179e-18
6.8768e-18
7.30354e-18
7.74922e-18
8.21106e-18
8.68645e-18
9.17289e-18
9.6682e-18
1.01706e-17
1.06786e-17
1.11912e-17
1.17078e-17
1.2228e-17
1.27519e-17
1.32801e-17
1.3813e-17
1.43513e-17
1.48953e-17
1.5445e-17
1.59997e-17
1.6558e-17
1.71174e-17
1.76741e-17
1.82232e-17
1.87583e-17
1.9273e-17
1.97618e-17
2.02218e-17
2.06534e-17
2.10591e-17
2.14432e-17
2.18123e-17
2.21752e-17
2.25364e-17
2.28796e-17
2.31638e-17
2.33547e-17
2.34558e-17
2.34964e-17
2.35161e-17
2.35335e-17
2.36904e-17
3.30837e-11
1.2071e-07
1.62847e-07
1.95615e-07
2.23351e-07
2.46327e-07
2.6524e-07
2.80849e-07
2.93846e-07
3.04798e-07
3.14143e-07
3.22213e-07
3.29262e-07
3.35483e-07
3.41027e-07
3.46013e-07
3.50534e-07
3.54662e-07
3.58458e-07
3.61965e-07
3.6522e-07
3.68251e-07
3.7108e-07
3.73725e-07
3.76198e-07
3.78512e-07
3.80676e-07
3.82696e-07
3.8458e-07
3.86332e-07
3.87957e-07
3.89459e-07
3.90841e-07
3.92105e-07
3.93255e-07
3.94293e-07
3.9522e-07
3.96041e-07
3.96755e-07
3.97367e-07
3.97878e-07
3.98291e-07
3.98609e-07
3.98833e-07
3.98968e-07
3.99016e-07
3.98981e-07
3.98866e-07
3.98676e-07
3.98414e-07
3.98085e-07
3.97694e-07
)
;
    }
    inandouthalf31
    {
        type            cyclic;
        value           nonuniform List<scalar> 
110
(
-3.97249e-07
-4.04799e-07
-4.12433e-07
-4.20154e-07
-4.27965e-07
-4.35874e-07
-4.43887e-07
-4.52017e-07
-4.60277e-07
-4.68682e-07
-4.77249e-07
-4.85996e-07
-4.94938e-07
-5.04092e-07
-5.1347e-07
-5.23083e-07
-5.32938e-07
-5.43041e-07
-5.53397e-07
-5.64005e-07
-5.74867e-07
-5.85984e-07
-5.97356e-07
-6.0898e-07
-6.20857e-07
-6.32986e-07
-6.45363e-07
-6.57987e-07
-6.70858e-07
-6.83975e-07
-6.97339e-07
-7.10953e-07
-7.24832e-07
-7.3896e-07
-7.53343e-07
-7.68006e-07
-7.82861e-07
-7.25627e-07
-7.46926e-07
-7.5368e-07
-7.65621e-07
-7.70835e-07
-7.86941e-07
-7.98109e-07
-8.10447e-07
-8.23351e-07
-8.36891e-07
-8.51068e-07
-8.65891e-07
-8.81374e-07
-8.97543e-07
-9.1444e-07
-9.32137e-07
-9.50753e-07
-9.70482e-07
-9.91477e-07
-1.01825e-06
-1.04656e-06
-1.06958e-06
-1.09136e-06
-1.11351e-06
-1.13611e-06
-1.15917e-06
-1.1827e-06
-1.20671e-06
-1.2312e-06
-1.25619e-06
-1.28169e-06
-1.3077e-06
-1.33425e-06
-1.36133e-06
-1.38896e-06
-1.41715e-06
-1.44592e-06
-1.47526e-06
-1.50521e-06
-1.53576e-06
-1.56693e-06
-1.59874e-06
-1.63119e-06
-1.6643e-06
-1.69808e-06
-1.73254e-06
-1.76771e-06
-1.80359e-06
-1.8402e-06
-1.87755e-06
-1.91566e-06
-1.95454e-06
-1.99421e-06
-2.03469e-06
-2.07599e-06
-2.11812e-06
-2.16112e-06
-2.20498e-06
-2.24974e-06
-2.2954e-06
-2.34199e-06
-2.38953e-06
-2.43803e-06
-2.48751e-06
-2.538e-06
-2.58952e-06
-2.64208e-06
-2.69571e-06
-2.75042e-06
-2.80625e-06
-2.86321e-06
-2.92132e-06
-2.98062e-06
)
;
    }
    inandouthalf32
    {
        type            cyclic;
        value           nonuniform List<scalar> 
110
(
3.97249e-07
4.04799e-07
4.12433e-07
4.20154e-07
4.27965e-07
4.35874e-07
4.43887e-07
4.52017e-07
4.60277e-07
4.68682e-07
4.77249e-07
4.85996e-07
4.94938e-07
5.04092e-07
5.1347e-07
5.23083e-07
5.32938e-07
5.43041e-07
5.53397e-07
5.64005e-07
5.74867e-07
5.85984e-07
5.97356e-07
6.0898e-07
6.20857e-07
6.32986e-07
6.45363e-07
6.57987e-07
6.70858e-07
6.83975e-07
6.97339e-07
7.10953e-07
7.24832e-07
7.3896e-07
7.53343e-07
7.68006e-07
7.82861e-07
7.25627e-07
7.46926e-07
7.5368e-07
7.65621e-07
7.70835e-07
7.86941e-07
7.98109e-07
8.10447e-07
8.23351e-07
8.36891e-07
8.51068e-07
8.65891e-07
8.81374e-07
8.97543e-07
9.1444e-07
9.32137e-07
9.50753e-07
9.70482e-07
9.91477e-07
1.01825e-06
1.04656e-06
1.06958e-06
1.09136e-06
1.11351e-06
1.13611e-06
1.15917e-06
1.1827e-06
1.20671e-06
1.2312e-06
1.25619e-06
1.28169e-06
1.3077e-06
1.33425e-06
1.36133e-06
1.38896e-06
1.41715e-06
1.44592e-06
1.47526e-06
1.50521e-06
1.53576e-06
1.56693e-06
1.59874e-06
1.63119e-06
1.6643e-06
1.69808e-06
1.73254e-06
1.76771e-06
1.80359e-06
1.8402e-06
1.87755e-06
1.91566e-06
1.95454e-06
1.99421e-06
2.03469e-06
2.07599e-06
2.11812e-06
2.16112e-06
2.20498e-06
2.24974e-06
2.2954e-06
2.34199e-06
2.38953e-06
2.43803e-06
2.48751e-06
2.538e-06
2.58952e-06
2.64208e-06
2.69571e-06
2.75042e-06
2.80625e-06
2.86321e-06
2.92132e-06
2.98062e-06
)
;
    }
    inandouthalf41
    {
        type            cyclic;
        value           nonuniform List<scalar> 
50
(
-2.66796e-06
-2.66796e-06
-2.66796e-06
-2.66796e-06
-2.66796e-06
-2.66796e-06
-2.66796e-06
-2.66796e-06
-2.66796e-06
-2.66796e-06
-2.66796e-06
-2.66796e-06
-2.66796e-06
-2.66796e-06
-2.66796e-06
-2.66796e-06
-2.66796e-06
-2.66796e-06
-2.66796e-06
-2.66796e-06
-2.66796e-06
-2.66796e-06
-2.66796e-06
-2.66796e-06
-2.66796e-06
-2.66796e-06
-2.66796e-06
-2.66796e-06
-2.66796e-06
-2.66796e-06
-2.66796e-06
-2.66796e-06
-2.66796e-06
-2.66796e-06
-2.66796e-06
-2.66796e-06
-2.66796e-06
-2.66796e-06
-2.66796e-06
-2.66796e-06
-2.66796e-06
-2.66796e-06
-2.66796e-06
-2.66796e-06
-2.66796e-06
-2.66796e-06
-2.66796e-06
-2.66795e-06
-2.66779e-06
-2.66378e-06
)
;
    }
    inandouthalf42
    {
        type            cyclic;
        value           nonuniform List<scalar> 
50
(
2.66796e-06
2.66796e-06
2.66796e-06
2.66796e-06
2.66796e-06
2.66796e-06
2.66796e-06
2.66796e-06
2.66796e-06
2.66796e-06
2.66796e-06
2.66796e-06
2.66796e-06
2.66796e-06
2.66796e-06
2.66796e-06
2.66796e-06
2.66796e-06
2.66796e-06
2.66796e-06
2.66796e-06
2.66796e-06
2.66796e-06
2.66796e-06
2.66796e-06
2.66796e-06
2.66796e-06
2.66796e-06
2.66796e-06
2.66796e-06
2.66796e-06
2.66796e-06
2.66796e-06
2.66796e-06
2.66796e-06
2.66796e-06
2.66796e-06
2.66796e-06
2.66796e-06
2.66796e-06
2.66796e-06
2.66796e-06
2.66796e-06
2.66796e-06
2.66796e-06
2.66796e-06
2.66796e-06
2.66795e-06
2.66779e-06
2.66378e-06
)
;
    }
    top
    {
        type            symmetryPlane;
        value           uniform 0;
    }
    walls
    {
        type            calculated;
        value           uniform 0;
    }
    frontAndBackPlanes
    {
        type            empty;
        value           nonuniform 0();
    }
}


// ************************************************************************* //
