/*--------------------------------*- C++ -*----------------------------------*\
| =========                 |                                                 |
| \\      /  F ield         | OpenFOAM: The Open Source CFD Toolbox           |
|  \\    /   O peration     | Version:  2.4.x                                 |
|   \\  /    A nd           | Web:      www.OpenFOAM.org                      |
|    \\/     M anipulation  |                                                 |
\*---------------------------------------------------------------------------*/
FoamFile
{
    version     2.0;
    format      ascii;
    class       volVectorField;
    location    "6.5";
    object      ddt0(Ub);
}
// * * * * * * * * * * * * * * * * * * * * * * * * * * * * * * * * * * * * * //

dimensions      [0 1 -2 0 0 0 0];

internalField   nonuniform List<vector> 
360
(
(0.000165936 -2.97407e-08 0)
(0.000165125 -1.13207e-07 0)
(0.000165004 -2.16077e-07 0)
(0.00016514 -3.11092e-07 0)
(0.000165227 -4.03701e-07 0)
(0.000165274 -4.98406e-07 0)
(0.000165323 -5.95401e-07 0)
(0.000165378 -6.93586e-07 0)
(0.000165433 -7.9225e-07 0)
(0.00016549 -8.91276e-07 0)
(0.000165547 -9.90842e-07 0)
(0.000165604 -1.09108e-06 0)
(0.000165662 -1.19202e-06 0)
(0.00016572 -1.2936e-06 0)
(0.000165779 -1.39573e-06 0)
(0.000165838 -1.49839e-06 0)
(0.000165897 -1.60156e-06 0)
(0.000165957 -1.70527e-06 0)
(0.000166018 -1.80951e-06 0)
(0.000166079 -1.91429e-06 0)
(0.00016614 -2.01959e-06 0)
(0.000166202 -2.1254e-06 0)
(0.000166265 -2.23173e-06 0)
(0.000166328 -2.33853e-06 0)
(0.000166391 -2.44577e-06 0)
(0.000166455 -2.55335e-06 0)
(0.00016652 -2.66116e-06 0)
(0.000166585 -2.76911e-06 0)
(0.00016665 -2.87707e-06 0)
(0.000166716 -2.98492e-06 0)
(0.000166782 -3.0926e-06 0)
(0.000166849 -3.20015e-06 0)
(0.000166916 -3.30767e-06 0)
(0.000166984 -3.41552e-06 0)
(0.000167052 -3.52415e-06 0)
(0.000167121 -3.63422e-06 0)
(0.000167191 -3.7465e-06 0)
(0.000167261 -3.86193e-06 0)
(0.000167333 -3.98146e-06 0)
(0.000167406 -4.10581e-06 0)
(0.00016748 -4.23547e-06 0)
(0.000167556 -4.37038e-06 0)
(0.000167633 -4.50968e-06 0)
(0.000167711 -4.6517e-06 0)
(0.00016779 -4.79358e-06 0)
(0.000167869 -4.93136e-06 0)
(0.000167948 -5.06013e-06 0)
(0.000168024 -5.1743e-06 0)
(0.000168099 -5.26861e-06 0)
(0.000168171 -5.33893e-06 0)
(0.000168238 -5.38309e-06 0)
(0.000168301 -5.40224e-06 0)
(0.000168361 -5.40133e-06 0)
(0.00016842 -5.38967e-06 0)
(0.000168478 -5.38066e-06 0)
(0.00016854 -5.39166e-06 0)
(0.000168608 -5.44334e-06 0)
(0.000168689 -5.56018e-06 0)
(0.000168785 -5.7711e-06 0)
(0.000168906 -6.11124e-06 0)
(0.00016906 -6.62482e-06 0)
(0.000169258 -7.36621e-06 0)
(0.000169514 -8.39843e-06 0)
(0.000169841 -9.78062e-06 0)
(0.000170249 -1.15357e-05 0)
(0.000170729 -1.35865e-05 0)
(0.000171232 -1.56667e-05 0)
(0.000171654 -1.7259e-05 0)
(0.000171837 -1.76809e-05 0)
(0.000171643 -1.64041e-05 0)
(0.000171065 -1.34703e-05 0)
(0.000170271 -9.62513e-06 0)
(0.000169515 -5.92948e-06 0)
(0.000168977 -3.14516e-06 0)
(0.000168687 -1.44498e-06 0)
(0.000168576 -5.82522e-07 0)
(0.000168565 -2.10022e-07 0)
(0.000168599 -6.94691e-08 0)
(0.000168652 -2.17418e-08 0)
(0.000168711 -6.69007e-09 0)
(0.000168773 -2.13125e-09 0)
(0.000168838 -7.60996e-10 0)
(0.000168905 -3.42253e-10 0)
(0.000168974 -2.12522e-10 0)
(0.000169044 -1.7032e-10 0)
(0.000169117 -1.54235e-10 0)
(0.00016919 -1.45069e-10 0)
(0.000169266 -1.41755e-10 0)
(0.000169343 -1.43336e-10 0)
(0.000169421 -1.4165e-10 0)
(0.000169502 -1.41732e-10 0)
(0.000169584 -1.43477e-10 0)
(0.000169668 -1.45231e-10 0)
(0.000169754 -1.48145e-10 0)
(0.000169842 -1.49668e-10 0)
(0.000169933 -1.50401e-10 0)
(0.000170025 -1.54025e-10 0)
(0.00017012 -1.61409e-10 0)
(0.000170217 -1.69383e-10 0)
(0.000170316 -1.71878e-10 0)
(0.000170417 -1.75777e-10 0)
(0.000170521 -1.81114e-10 0)
(0.000170628 -1.84133e-10 0)
(0.000170737 -1.87635e-10 0)
(0.000170849 -1.88551e-10 0)
(0.000170964 -1.91991e-10 0)
(0.000171082 -1.94592e-10 0)
(0.000171203 -1.97135e-10 0)
(0.000171328 -2.02471e-10 0)
(0.000171456 -2.02923e-10 0)
(0.000171587 -2.05316e-10 0)
(0.000171722 -2.08389e-10 0)
(0.000171861 -2.11806e-10 0)
(0.000172003 -2.19271e-10 0)
(0.00017215 -2.2104e-10 0)
(0.000172302 -2.24028e-10 0)
(0.000172458 -2.31982e-10 0)
(0.000172619 -2.39785e-10 0)
(0.000172785 -2.4327e-10 0)
(0.000172956 -2.46198e-10 0)
(0.000173133 -2.52927e-10 0)
(0.000173316 -2.57728e-10 0)
(0.000173505 -2.6249e-10 0)
(0.0001737 -2.69188e-10 0)
(0.000173902 -2.74317e-10 0)
(0.000174111 -2.81977e-10 0)
(0.000174328 -2.9399e-10 0)
(0.000174553 -3.04043e-10 0)
(0.000174787 -3.13754e-10 0)
(0.000175031 -3.24807e-10 0)
(0.000175285 -3.37901e-10 0)
(0.00017555 -3.51189e-10 0)
(0.000175827 -3.63337e-10 0)
(0.000176119 -3.75788e-10 0)
(0.00017643 -3.91749e-10 0)
(0.000176759 -4.10331e-10 0)
(0.000177105 -4.34034e-10 0)
(0.000177473 -4.71621e-10 0)
(0.000177883 -5.12237e-10 0)
(0.000178353 -5.33537e-10 0)
(0.000178861 -5.97073e-10 0)
(0.000179348 -6.86216e-10 0)
(0.000179932 -7.46884e-10 0)
(0.000180693 -1.21738e-09 0)
(0.000181646 1.00654e-08 0)
(0.000183459 -1.98303e-06 0)
(0.000189025 2.22187e-05 0)
(0.000214219 -7.42308e-05 0)
(0.00941976 0.000287319 0)
(0.139759 0.00324935 0)
(0.169633 0.0012668 0)
(0.202415 0.00162841 0)
(0.230141 0.00103461 0)
(0.252716 0.000693218 0)
(0.271097 0.000455363 0)
(0.28622 0.000300049 0)
(0.298836 0.000202773 0)
(0.309506 0.000142346 0)
(0.318643 0.000103988 0)
(0.326557 7.88085e-05 0)
(0.33348 6.16651e-05 0)
(0.33959 4.95683e-05 0)
(0.345024 4.07362e-05 0)
(0.349891 3.40816e-05 0)
(0.354278 2.89263e-05 0)
(0.358254 2.48366e-05 0)
(0.361877 2.15282e-05 0)
(0.365193 1.88097e-05 0)
(0.36824 1.6548e-05 0)
(0.371052 1.46478e-05 0)
(0.373656 1.30386e-05 0)
(0.376074 1.16668e-05 0)
(0.378327 1.04903e-05 0)
(0.380431 9.47581e-06 0)
(0.382402 8.59602e-06 0)
(0.384252 7.82874e-06 0)
(0.385991 7.15567e-06 0)
(0.38763 6.5617e-06 0)
(0.389178 6.03432e-06 0)
(0.39064 5.56319e-06 0)
(0.392024 5.13975e-06 0)
(0.393336 4.75698e-06 0)
(0.394581 4.40904e-06 0)
(0.395763 4.09115e-06 0)
(0.396886 3.79935e-06 0)
(0.397953 3.53039e-06 0)
(0.398968 3.28155e-06 0)
(0.399934 3.05059e-06 0)
(0.400852 2.83564e-06 0)
(0.401725 2.63513e-06 0)
(0.402555 2.44772e-06 0)
(0.403342 2.27227e-06 0)
(0.40409 2.10764e-06 0)
(0.404797 1.95289e-06 0)
(0.405467 1.8072e-06 0)
(0.406098 1.66969e-06 0)
(0.406692 1.53953e-06 0)
(0.407248 1.41591e-06 0)
(0.407768 1.29812e-06 0)
(0.408249 1.1856e-06 0)
(0.408693 1.07813e-06 0)
(0.409103 9.74663e-07 0)
(0.409481 8.74428e-07 0)
(0.409824 7.77717e-07 0)
(0.410131 6.84707e-07 0)
(0.410398 5.95337e-07 0)
(0.41062 5.09687e-07 0)
(0.410795 4.28437e-07 0)
(0.410915 3.5277e-07 0)
(0.410977 2.84074e-07 0)
(0.410973 2.23624e-07 0)
(0.410896 1.72292e-07 0)
(0.410739 1.30287e-07 0)
(0.410493 9.70054e-08 0)
(0.410149 7.13753e-08 0)
(0.409696 5.21869e-08 0)
(0.409122 3.8101e-08 0)
(0.408417 2.78568e-08 0)
(0.407565 2.04763e-08 0)
(0.406552 1.51835e-08 0)
(0.405363 1.13316e-08 0)
(0.403982 8.48343e-09 0)
(0.40239 6.39199e-09 0)
(0.400572 4.84783e-09 0)
(0.398511 3.68206e-09 0)
(0.396194 2.8103e-09 0)
(0.393612 2.16271e-09 0)
(0.390761 1.67065e-09 0)
(0.387646 1.29388e-09 0)
(0.384285 1.00914e-09 0)
(0.380708 7.92566e-10 0)
(0.376963 6.12789e-10 0)
(0.37311 4.76388e-10 0)
(0.369221 4.36716e-10 0)
(0.365374 5.67136e-10 0)
(0.361643 -1.90049e-10 0)
(0.358091 1.13149e-09 0)
(0.354763 6.2393e-10 0)
(0.351685 -1.82632e-09 0)
(0.348866 7.46132e-10 0)
(0.346302 8.65111e-10 0)
(0.34398 -3.00654e-10 0)
(0.341886 1.70716e-10 0)
(0.340006 1.22121e-10 0)
(0.338327 9.86836e-11 0)
(0.336838 9.6239e-11 0)
(0.335528 9.95876e-11 0)
(0.334388 9.66888e-11 0)
(0.333411 1.0678e-10 0)
(0.33259 4.37506e-11 0)
(0.331922 1.63198e-10 0)
(0.331409 2.70383e-11 0)
(0.331063 1.00025e-10 0)
(0.33091 1.75437e-10 0)
(0.330997 -1.33043e-10 0)
(0.331456 4.60452e-10 0)
(0.332841 -4.50638e-10 0)
(0.335834 7.64621e-10 0)
(0.336601 -7.39832e-10 0)
(0.336631 1.02341e-09 0)
(0.336631 -9.7412e-10 0)
(0.336631 1.22272e-09 0)
(0.336631 -1.15689e-09 0)
(0.336631 1.37457e-09 0)
(0.336631 -1.30693e-09 0)
(0.336631 1.51128e-09 0)
(0.336631 -1.45122e-09 0)
(0.336631 1.65308e-09 0)
(0.336631 -1.59789e-09 0)
(0.336631 1.80234e-09 0)
(0.336631 -1.75908e-09 0)
(0.336631 1.95917e-09 0)
(0.336631 -1.92956e-09 0)
(0.336631 2.12705e-09 0)
(0.336631 -2.10907e-09 0)
(0.336631 2.30467e-09 0)
(0.336631 -2.29847e-09 0)
(0.336631 2.49448e-09 0)
(0.336631 -2.49593e-09 0)
(0.336631 2.69395e-09 0)
(0.336631 -2.70354e-09 0)
(0.336631 2.90305e-09 0)
(0.336631 -2.92035e-09 0)
(0.336631 3.12356e-09 0)
(0.336631 -3.14896e-09 0)
(0.336631 3.35109e-09 0)
(0.336631 -3.38812e-09 0)
(0.336631 3.59162e-09 0)
(0.336631 -3.63363e-09 0)
(0.336631 3.84659e-09 0)
(0.336631 -3.8884e-09 0)
(0.336631 4.10922e-09 0)
(0.336631 -4.1573e-09 0)
(0.336631 4.38252e-09 0)
(0.336631 -4.43707e-09 0)
(0.336631 4.66493e-09 0)
(0.336631 -4.72956e-09 0)
(0.336631 4.96054e-09 0)
(0.336631 -5.02977e-09 0)
(0.336631 5.26993e-09 0)
(0.336631 -5.34071e-09 0)
(0.336631 5.59169e-09 0)
(0.336631 -5.6646e-09 0)
(0.336631 5.9211e-09 0)
(0.336631 -6.00036e-09 0)
(0.336631 6.26161e-09 0)
(0.336631 -6.34316e-09 0)
(0.336631 6.61216e-09 0)
(0.336631 -6.68873e-09 0)
(0.336631 6.96548e-09 0)
(0.336631 -6.17457e-09 0)
(0.336631 6.31099e-09 0)
(0.336631 -6.24567e-09 0)
(0.336631 6.38279e-09 0)
(0.336631 -6.32042e-09 0)
(0.336631 6.45527e-09 0)
(0.336631 -6.39284e-09 0)
(0.336631 6.52621e-09 0)
(0.336631 -6.46911e-09 0)
(0.336631 6.59388e-09 0)
(0.336631 -6.54122e-09 0)
(0.336631 6.66224e-09 0)
(0.336631 -6.61369e-09 0)
(0.336631 6.72554e-09 0)
(0.336631 -6.68324e-09 0)
(0.336631 6.78673e-09 0)
(0.336631 -6.75066e-09 0)
(0.336631 6.8436e-09 0)
(0.336631 -6.81841e-09 0)
(0.336631 6.88813e-09 0)
(0.336631 -6.89492e-09 0)
(0.336631 6.92988e-09 0)
(0.336631 -6.9723e-09 0)
(0.336631 6.96909e-09 0)
(0.336631 -7.05045e-09 0)
(0.336631 7.00366e-09 0)
(0.336631 -7.13182e-09 0)
(0.336631 7.03747e-09 0)
(0.336631 -7.21283e-09 0)
(0.336631 7.07161e-09 0)
(0.336631 -7.28767e-09 0)
(0.336631 7.09906e-09 0)
(0.336631 -7.35614e-09 0)
(0.336631 7.12811e-09 0)
(0.336631 -7.42271e-09 0)
(0.336631 7.13557e-09 0)
(0.336631 -7.49646e-09 0)
(0.336631 7.1502e-09 0)
(0.336631 -7.54697e-09 0)
(0.336631 7.17029e-09 0)
(0.336631 -7.57782e-09 0)
(0.336631 7.21806e-09 0)
(0.336631 -7.58655e-09 0)
(0.336631 7.25586e-09 0)
(0.336631 -7.59178e-09 0)
(0.336631 7.32979e-09 0)
(0.336631 -7.56418e-09 0)
(0.336631 7.46283e-09 0)
(0.336631 -7.48147e-09 0)
(0.336631 7.38759e-09 0)
)
;

boundaryField
{
    inandouthalf11
    {
        type            cyclic;
    }
    inandouthalf12
    {
        type            cyclic;
    }
    inandouthalf21
    {
        type            cyclic;
    }
    inandouthalf22
    {
        type            cyclic;
    }
    inandouthalf31
    {
        type            cyclic;
    }
    inandouthalf32
    {
        type            cyclic;
    }
    inandouthalf41
    {
        type            cyclic;
    }
    inandouthalf42
    {
        type            cyclic;
    }
    top
    {
        type            symmetryPlane;
    }
    walls
    {
        type            calculated;
        value           uniform (0 0 0);
    }
    frontAndBackPlanes
    {
        type            empty;
    }
}


// ************************************************************************* //
