/*--------------------------------*- C++ -*----------------------------------*\
| =========                 |                                                 |
| \\      /  F ield         | OpenFOAM: The Open Source CFD Toolbox           |
|  \\    /   O peration     | Version:  2.4.x                                 |
|   \\  /    A nd           | Web:      www.OpenFOAM.org                      |
|    \\/     M anipulation  |                                                 |
\*---------------------------------------------------------------------------*/
FoamFile
{
    version     2.0;
    format      ascii;
    class       volScalarField;
    location    "6.5";
    object      epsilon;
}
// * * * * * * * * * * * * * * * * * * * * * * * * * * * * * * * * * * * * * //

dimensions      [0 2 -3 0 0 0 0];

internalField   nonuniform List<scalar> 
360
(
1e-20
1e-20
1e-20
1e-20
1e-20
1e-20
1e-20
1e-20
1e-20
1e-20
1e-20
1e-20
1e-20
1e-20
1e-20
1e-20
1e-20
1e-20
1e-20
1e-20
1e-20
1e-20
1e-20
1e-20
1e-20
1e-20
1e-20
1e-20
1e-20
1e-20
1e-20
1e-20
1e-20
1e-20
1e-20
1e-20
1e-20
1e-20
1e-20
1e-20
1e-20
1e-20
1e-20
1e-20
1e-20
1e-20
1e-20
1e-20
1e-20
1e-20
1e-20
1e-20
1e-20
1e-20
1e-20
1e-20
1e-20
1e-20
1e-20
1e-20
1e-20
1e-20
1e-20
1e-20
1e-20
1e-20
1e-20
1e-20
1e-20
1e-20
1e-20
1e-20
1e-20
1e-20
1e-20
1e-20
1e-20
1e-20
1e-20
1e-20
1e-20
1e-20
1e-20
1e-20
1e-20
1e-20
1e-20
1e-20
1e-20
1e-20
1e-20
1e-20
1e-20
1e-20
1e-20
1e-20
1e-20
1e-20
1e-20
1e-20
1e-20
1e-20
1e-20
1e-20
1e-20
1e-20
1e-20
1e-20
1e-20
1e-20
1e-20
1e-20
1e-20
1e-20
1e-20
1e-20
1e-20
1e-20
1e-20
1e-20
1e-20
1e-20
1e-20
1e-20
1e-20
1e-20
1e-20
1e-20
1e-20
1e-20
1e-20
1e-20
1.58471e-20
7.34852e-20
4.04661e-19
2.40746e-18
1.55518e-17
1.10475e-16
8.76263e-16
7.89111e-15
8.2082e-14
1.00409e-12
1.47161e-11
2.62435e-10
5.75953e-09
1.56965e-07
5.33275e-06
0.000220453
0.00819334
0.0755373
0.110863
0.110064
0.102628
0.0941209
0.0861158
0.0790014
0.0727937
0.0673956
0.0626874
0.0585575
0.0549102
0.0516665
0.048762
0.0461445
0.0437714
0.0416078
0.0396251
0.0377995
0.0361114
0.0345441
0.0330835
0.0317178
0.0304368
0.0292318
0.028095
0.0270201
0.0260012
0.0250334
0.0241121
0.0232335
0.0223942
0.021591
0.0208212
0.0200824
0.0193722
0.0186889
0.0180305
0.0173954
0.0167822
0.0161895
0.0156162
0.0150611
0.0145233
0.0140018
0.0134958
0.0130045
0.0125273
0.0120636
0.0116126
0.011174
0.0107473
0.0103277
0.0099112
0.00949788
0.00908789
0.00868139
0.00827859
0.00787971
0.007485
0.00709475
0.00670929
0.00632898
0.00595425
0.00558556
0.00522342
0.00486841
0.00452116
0.00418235
0.00385273
0.00353311
0.00322433
0.00292732
0.002643
0.00237234
0.00211632
0.00187585
0.00165182
0.00144499
0.00125596
0.00108511
0.000932574
0.000798132
0.000681234
0.000580971
0.000496111
0.000425162
0.000366458
0.000318265
0.00027887
0.000246662
0.00022018
0.00019814
0.000179438
0.000163145
0.000148495
0.000134873
0.000121799
0.000108918
9.59986e-05
8.29206e-05
6.9677e-05
5.63746e-05
4.32413e-05
3.06409e-05
1.91021e-05
9.38354e-06
2.58531e-06
2.24369e-07
6.08963e-09
1.20912e-10
2.23497e-12
3.88133e-14
6.33865e-16
9.7477e-18
1.4848e-19
1.06181e-20
1e-20
1e-20
1e-20
1e-20
1e-20
1e-20
1e-20
1e-20
1e-20
1e-20
1e-20
1e-20
1e-20
1e-20
1e-20
1e-20
1e-20
1e-20
1e-20
1e-20
1e-20
1e-20
1e-20
1e-20
1e-20
1e-20
1e-20
1e-20
1e-20
1e-20
1e-20
1e-20
1e-20
1e-20
1e-20
1e-20
1e-20
1e-20
1e-20
1e-20
1e-20
1e-20
1e-20
1e-20
1e-20
1e-20
1e-20
1e-20
1e-20
1e-20
1e-20
1e-20
1e-20
1e-20
1e-20
1e-20
1e-20
1e-20
1e-20
1e-20
1e-20
1e-20
1e-20
1e-20
1e-20
1e-20
1e-20
1e-20
1e-20
1e-20
1e-20
1e-20
1e-20
1e-20
1e-20
1e-20
1e-20
1e-20
1e-20
1e-20
1e-20
1e-20
1e-20
1e-20
1e-20
1e-20
1e-20
1e-20
1e-20
1e-20
1e-20
1e-20
1e-20
1e-20
)
;

boundaryField
{
    inandouthalf11
    {
        type            cyclic;
    }
    inandouthalf12
    {
        type            cyclic;
    }
    inandouthalf21
    {
        type            cyclic;
    }
    inandouthalf22
    {
        type            cyclic;
    }
    inandouthalf31
    {
        type            cyclic;
    }
    inandouthalf32
    {
        type            cyclic;
    }
    inandouthalf41
    {
        type            cyclic;
    }
    inandouthalf42
    {
        type            cyclic;
    }
    top
    {
        type            symmetryPlane;
    }
    walls
    {
        type            zeroGradient;
    }
    frontAndBackPlanes
    {
        type            empty;
    }
}


// ************************************************************************* //
