/*--------------------------------*- C++ -*----------------------------------*\
| =========                 |                                                 |
| \\      /  F ield         | OpenFOAM: The Open Source CFD Toolbox           |
|  \\    /   O peration     | Version:  2.4.x                                 |
|   \\  /    A nd           | Web:      www.OpenFOAM.org                      |
|    \\/     M anipulation  |                                                 |
\*---------------------------------------------------------------------------*/
FoamFile
{
    version     2.0;
    format      ascii;
    class       volScalarField;
    location    "6.5";
    object      epsilon_0;
}
// * * * * * * * * * * * * * * * * * * * * * * * * * * * * * * * * * * * * * //

dimensions      [0 2 -3 0 0 0 0];

internalField   nonuniform List<scalar> 
360
(
1.60309e-27
1e-20
1e-20
1e-20
1e-20
1e-20
1e-20
1e-20
1e-20
1e-20
1e-20
1e-20
1e-20
1e-20
1e-20
1e-20
1e-20
1e-20
1e-20
1e-20
1e-20
1e-20
1e-20
1e-20
1e-20
1e-20
1e-20
1e-20
1e-20
1e-20
1e-20
1e-20
1e-20
1e-20
1e-20
1e-20
1e-20
1e-20
1e-20
1e-20
1e-20
1e-20
1e-20
1e-20
1e-20
1e-20
1e-20
1e-20
1e-20
1e-20
1e-20
1e-20
1e-20
1e-20
1e-20
1e-20
1e-20
1e-20
1e-20
1e-20
1e-20
1e-20
1e-20
1e-20
1e-20
1e-20
1e-20
1e-20
1e-20
1e-20
1e-20
1e-20
1e-20
1e-20
1e-20
1e-20
1e-20
1e-20
1e-20
1e-20
1e-20
1e-20
1e-20
1e-20
1e-20
1e-20
1e-20
1e-20
1e-20
1e-20
1e-20
1e-20
1e-20
1e-20
1e-20
1e-20
1e-20
1e-20
1e-20
1e-20
1e-20
1e-20
1e-20
1e-20
1e-20
1e-20
1e-20
1e-20
1e-20
1e-20
1e-20
1e-20
1e-20
1e-20
1e-20
1e-20
1e-20
1e-20
1e-20
1e-20
1e-20
1e-20
1e-20
1e-20
1e-20
1e-20
1e-20
1e-20
1e-20
1e-20
1e-20
1e-20
1.58487e-20
7.34959e-20
4.04738e-19
2.40805e-18
1.55567e-17
1.10518e-16
8.76681e-16
7.89559e-15
8.21363e-14
1.00485e-12
1.47287e-11
2.62685e-10
5.76566e-09
1.57152e-07
5.33983e-06
0.000220773
0.00820384
0.0755901
0.110902
0.110094
0.102652
0.0941402
0.0861319
0.0790152
0.0728056
0.0674059
0.0626966
0.0585656
0.0549174
0.0516729
0.0487678
0.0461498
0.0437761
0.0416121
0.039629
0.0378031
0.0361147
0.034547
0.0330862
0.0317203
0.0304391
0.0292338
0.0280969
0.0270218
0.0260028
0.0250348
0.0241134
0.0232347
0.0223953
0.021592
0.0208221
0.0200832
0.019373
0.0186895
0.018031
0.0173958
0.0167826
0.0161898
0.0156165
0.0150613
0.0145234
0.0140019
0.0134958
0.0130045
0.0125273
0.0120635
0.0116125
0.0111739
0.0107471
0.0103275
0.00991093
0.00949757
0.00908754
0.00868102
0.00827819
0.00787928
0.00748454
0.00709426
0.00670878
0.00632845
0.0059537
0.00558499
0.00522284
0.00486782
0.00452056
0.00418174
0.00385212
0.0035325
0.00322374
0.00292673
0.00264243
0.00237179
0.00211579
0.00187535
0.00165135
0.00144455
0.00125556
0.00108476
0.000932261
0.000797862
0.000681006
0.000580782
0.000495959
0.000425042
0.000366367
0.000318197
0.000278822
0.00024663
0.00022016
0.000198129
0.000179432
0.000163144
0.000148497
0.000134876
0.000121802
0.000108921
9.59997e-05
8.292e-05
6.96747e-05
5.63706e-05
4.32357e-05
3.06343e-05
1.90952e-05
9.37725e-06
2.58158e-06
2.23774e-07
6.06941e-09
1.20496e-10
2.22708e-12
3.8673e-14
6.31518e-16
9.7108e-18
1.47935e-19
1.06125e-20
1e-20
1e-20
1e-20
1e-20
1e-20
1e-20
1e-20
1e-20
1e-20
1e-20
1e-20
1e-20
1e-20
1e-20
1e-20
1e-20
1e-20
1e-20
1e-20
1e-20
1e-20
1e-20
1e-20
1e-20
1e-20
1e-20
1e-20
1e-20
1e-20
1e-20
1e-20
1e-20
1e-20
1e-20
1e-20
1e-20
1e-20
1e-20
1e-20
1e-20
1e-20
1e-20
1e-20
1e-20
1e-20
1e-20
1e-20
1e-20
1e-20
1e-20
1e-20
1e-20
1e-20
1e-20
1e-20
1e-20
1e-20
1e-20
1e-20
1e-20
1e-20
1e-20
1e-20
1e-20
1e-20
1e-20
1e-20
1e-20
1e-20
1e-20
1e-20
1e-20
1e-20
1e-20
1e-20
1e-20
1e-20
1e-20
1e-20
1e-20
1e-20
1e-20
1e-20
1e-20
1e-20
1e-20
1e-20
1e-20
1e-20
1e-20
1e-20
1e-20
1e-20
1e-20
)
;

boundaryField
{
    inandouthalf11
    {
        type            cyclic;
    }
    inandouthalf12
    {
        type            cyclic;
    }
    inandouthalf21
    {
        type            cyclic;
    }
    inandouthalf22
    {
        type            cyclic;
    }
    inandouthalf31
    {
        type            cyclic;
    }
    inandouthalf32
    {
        type            cyclic;
    }
    inandouthalf41
    {
        type            cyclic;
    }
    inandouthalf42
    {
        type            cyclic;
    }
    top
    {
        type            symmetryPlane;
    }
    walls
    {
        type            zeroGradient;
    }
    frontAndBackPlanes
    {
        type            empty;
    }
}


// ************************************************************************* //
