/*--------------------------------*- C++ -*----------------------------------*\
| =========                 |                                                 |
| \\      /  F ield         | OpenFOAM: The Open Source CFD Toolbox           |
|  \\    /   O peration     | Version:  2.4.x                                 |
|   \\  /    A nd           | Web:      www.OpenFOAM.org                      |
|    \\/     M anipulation  |                                                 |
\*---------------------------------------------------------------------------*/
FoamFile
{
    version     2.0;
    format      ascii;
    class       volVectorField;
    location    "6.5";
    object      gradPf;
}
// * * * * * * * * * * * * * * * * * * * * * * * * * * * * * * * * * * * * * //

dimensions      [0 1 -2 0 0 0 0];

internalField   nonuniform List<vector> 
360
(
(0 60.636 0)
(0 70.5015 0)
(0 2.94423 0)
(0 -11.1715 0)
(-3.34535e-14 -5.79538 0)
(-3.34545e-14 -3.23931 0)
(-3.34555e-14 -3.54697 0)
(0 -3.899 0)
(-3.3458e-14 -3.97943 0)
(0 -4.04193 0)
(-1.67303e-14 -4.04428 0)
(0 -4.02258 0)
(-3.34633e-14 -4.01292 0)
(0 -4.00676 0)
(0 -4.02082 0)
(0 -4.0386 0)
(0 -4.04375 0)
(-3.34701e-14 -4.0413 0)
(0 -4.05768 0)
(0 -4.05446 0)
(0 -4.0527 0)
(-3.34758e-14 -4.07097 0)
(0 -4.07099 0)
(0 -4.07685 0)
(0 -4.08248 0)
(-1.67408e-14 -4.07748 0)
(0 -4.0884 0)
(0 -4.10034 0)
(0 -4.09298 0)
(0 -4.09078 0)
(0 -4.10859 0)
(0 -4.09239 0)
(0 -4.10329 0)
(0 -4.11431 0)
(0 -4.09918 0)
(3.34974e-14 -4.10325 0)
(0 -4.10442 0)
(0 -4.13352 0)
(0 -4.10677 0)
(0 -4.1177 0)
(0 -4.15294 0)
(0 -4.11825 0)
(3.35094e-14 -4.14436 0)
(0 -4.16399 0)
(0 -4.15302 0)
(0 -4.17517 0)
(0 -4.1461 0)
(0 -4.13392 0)
(0 -4.17631 0)
(0 -4.14034 0)
(1.67621e-14 -4.10644 0)
(0 -4.10066 0)
(0 -4.07728 0)
(0 -4.04038 0)
(0 -4.03188 0)
(0 -4.01558 0)
(0 -4.00159 0)
(0 -4.02573 0)
(0 -4.01502 0)
(0 -4.08209 0)
(0 -4.14894 0)
(0 -4.21981 0)
(0 -4.32979 0)
(0 -4.43378 0)
(0 -4.55972 0)
(0 -4.69145 0)
(0 -4.80794 0)
(0 -4.84511 0)
(0 -4.76772 0)
(0 -4.61058 0)
(0 -4.3814 0)
(0 -4.06413 0)
(0 -3.82042 0)
(0 -3.68089 0)
(0 -3.60437 0)
(0 -3.5753 0)
(0 -3.56655 0)
(0 -3.59868 0)
(0 -3.63846 0)
(0 -3.67413 0)
(0 -3.71886 0)
(0 -3.77477 0)
(0 -3.82266 0)
(0 -3.86668 0)
(0 -3.9051 0)
(0 -3.93787 0)
(0 -3.96381 0)
(0 -3.98324 0)
(0 -4.0048 0)
(0 -4.02695 0)
(0 -4.0487 0)
(0 -4.07352 0)
(0 -4.10009 0)
(0 -4.1252 0)
(0 -4.14906 0)
(0 -4.17113 0)
(0 -4.19091 0)
(0 -4.20874 0)
(0 -4.22542 0)
(0 -4.2412 0)
(0 -4.25622 0)
(0 -4.27084 0)
(0 -4.28494 0)
(0 -4.29823 0)
(0 -4.31073 0)
(0 -4.32245 0)
(0 -4.33338 0)
(0 -4.34357 0)
(0 -4.35306 0)
(0 -4.36179 0)
(0 -4.3697 0)
(0 -4.37671 0)
(0 -4.38269 0)
(0 -4.38755 0)
(0 -4.39117 0)
(0 -4.39342 0)
(0 -4.39419 0)
(0 -4.39339 0)
(0 -4.39092 0)
(0 -4.38665 0)
(0 -4.38043 0)
(0 -4.37201 0)
(0 -4.36116 0)
(0 -4.34784 0)
(0 -4.33252 0)
(0 -4.31633 0)
(0 -4.30085 0)
(0 -4.28701 0)
(0 -4.27351 0)
(0 -4.25643 0)
(0 -4.23291 0)
(0 -4.20961 0)
(0 -4.20456 0)
(0 -4.22514 0)
(0 -4.24176 0)
(0 -4.22016 0)
(0 -4.19491 0)
(0 -4.27079 0)
(0 -4.48834 0)
(0 -4.61441 0)
(0 -4.31806 0)
(0 -4.22653 0)
(0 -4.77559 0)
(0 -5.33985 0)
(0 -6.9104 0)
(0 -11.5742 0)
(0 -8.89053 0)
(0 -5.32596 0)
(0 -4.96415 0)
(0 0 0)
(0 0 0)
(0 0 0)
(0 0 0)
(0 0 0)
(0 0 0)
(0 0 0)
(0 0 0)
(0 0 0)
(0 0 0)
(0 0 0)
(0 0 0)
(0 0 0)
(0 0 0)
(0 0 0)
(0 0 0)
(0 0 0)
(0 0 0)
(0 0 0)
(0 0 0)
(0 0 0)
(0 0 0)
(0 0 0)
(0 0 0)
(0 0 0)
(0 0 0)
(0 0 0)
(0 0 0)
(0 0 0)
(0 0 0)
(0 0 0)
(0 0 0)
(0 0 0)
(0 0 0)
(0 0 0)
(0 0 0)
(0 0 0)
(0 0 0)
(0 0 0)
(0 0 0)
(0 0 0)
(0 0 0)
(0 0 0)
(0 0 0)
(0 0 0)
(0 0 0)
(0 0 0)
(0 0 0)
(0 0 0)
(0 0 0)
(0 0 0)
(0 0 0)
(0 0 0)
(0 0 0)
(0 0 0)
(0 0 0)
(0 0 0)
(0 0 0)
(0 0 0)
(0 0 0)
(0 0 0)
(0 0 0)
(0 0 0)
(0 0 0)
(0 0 0)
(0 0 0)
(0 0 0)
(0 0 0)
(0 0 0)
(0 0 0)
(0 0 0)
(0 0 0)
(0 0 0)
(0 0 0)
(0 0 0)
(0 0 0)
(0 0 0)
(0 0 0)
(0 0 0)
(0 0 0)
(0 0 0)
(0 0 0)
(0 0 0)
(0 0 0)
(0 0 0)
(0 0 0)
(0 0 0)
(0 0 0)
(0 0 0)
(0 0 0)
(0 0 0)
(0 0 0)
(0 0 0)
(0 0 0)
(0 0 0)
(0 0 0)
(0 0 0)
(0 0 0)
(0 0 0)
(0 0 0)
(0 0 0)
(0 0 0)
(0 0 0)
(0 0 0)
(0 0 0)
(0 0 0)
(0 0 0)
(0 0 0)
(0 0 0)
(0 0 0)
(0 0 0)
(0 0 0)
(0 0 0)
(0 0 0)
(0 0 0)
(0 0 0)
(0 0 0)
(0 0 0)
(0 0 0)
(0 0 0)
(0 0 0)
(0 0 0)
(0 0 0)
(0 0 0)
(0 0 0)
(0 0 0)
(0 0 0)
(0 0 0)
(0 0 0)
(0 0 0)
(0 0 0)
(0 0 0)
(0 0 0)
(0 0 0)
(0 0 0)
(0 0 0)
(0 0 0)
(0 0 0)
(0 0 0)
(0 0 0)
(0 0 0)
(0 0 0)
(0 0 0)
(0 0 0)
(0 0 0)
(0 0 0)
(0 0 0)
(0 0 0)
(0 0 0)
(0 0 0)
(0 0 0)
(0 0 0)
(0 0 0)
(0 0 0)
(0 0 0)
(0 0 0)
(0 0 0)
(0 0 0)
(0 0 0)
(0 0 0)
(0 0 0)
(0 0 0)
(0 0 0)
(0 0 0)
(0 0 0)
(0 0 0)
(0 0 0)
(0 0 0)
(0 0 0)
(0 0 0)
(0 0 0)
(0 0 0)
(0 0 0)
(0 0 0)
(0 0 0)
(0 0 0)
(0 0 0)
(0 0 0)
(0 0 0)
(0 0 0)
(0 0 0)
(0 0 0)
(0 0 0)
(0 0 0)
(0 0 0)
(0 0 0)
(0 0 0)
(0 0 0)
(0 0 0)
(0 0 0)
(0 0 0)
(0 0 0)
(0 0 0)
(0 0 0)
(0 0 0)
(0 0 0)
(0 0 0)
(0 0 0)
(0 0 0)
(0 0 0)
(0 0 0)
(0 0 0)
(0 0 0)
(0 0 0)
(0 0 0)
(0 0 0)
(0 0 0)
(0 0 0)
(0 0 0)
(0 0 0)
(0 0 0)
)
;

boundaryField
{
    inandouthalf11
    {
        type            cyclic;
    }
    inandouthalf12
    {
        type            cyclic;
    }
    inandouthalf21
    {
        type            cyclic;
    }
    inandouthalf22
    {
        type            cyclic;
    }
    inandouthalf31
    {
        type            cyclic;
    }
    inandouthalf32
    {
        type            cyclic;
    }
    inandouthalf41
    {
        type            cyclic;
    }
    inandouthalf42
    {
        type            cyclic;
    }
    top
    {
        type            symmetryPlane;
    }
    walls
    {
        type            calculated;
        value           uniform (0 0 0);
    }
    frontAndBackPlanes
    {
        type            empty;
    }
}


// ************************************************************************* //
