/*--------------------------------*- C++ -*----------------------------------*\
| =========                 |                                                 |
| \\      /  F ield         | OpenFOAM: The Open Source CFD Toolbox           |
|  \\    /   O peration     | Version:  2.4.x                                 |
|   \\  /    A nd           | Web:      www.OpenFOAM.org                      |
|    \\/     M anipulation  |                                                 |
\*---------------------------------------------------------------------------*/
FoamFile
{
    version     2.0;
    format      ascii;
    class       volScalarField;
    location    "6.5";
    object      k;
}
// * * * * * * * * * * * * * * * * * * * * * * * * * * * * * * * * * * * * * //

dimensions      [0 2 -2 0 0 0 0];

internalField   nonuniform List<scalar> 
360
(
1e-20
1e-20
1e-20
1e-20
1e-20
1e-20
1e-20
1e-20
1e-20
1e-20
1e-20
1e-20
1e-20
1e-20
1e-20
1e-20
1e-20
1e-20
1e-20
1e-20
1e-20
1e-20
1e-20
1e-20
1e-20
1e-20
1e-20
1e-20
1e-20
1e-20
1e-20
1e-20
1e-20
1e-20
1e-20
1e-20
1e-20
1e-20
1e-20
1e-20
1e-20
1e-20
1e-20
1e-20
1e-20
1e-20
1e-20
1e-20
1e-20
1e-20
1e-20
1e-20
1e-20
1e-20
1e-20
1e-20
1e-20
1e-20
1e-20
1e-20
1e-20
1e-20
1e-20
1e-20
1e-20
1e-20
1e-20
1e-20
1e-20
1e-20
1e-20
1e-20
1e-20
1e-20
1e-20
1e-20
1e-20
1e-20
1e-20
1e-20
1e-20
1e-20
1e-20
1e-20
1e-20
1e-20
1e-20
1e-20
1e-20
1e-20
1e-20
1e-20
1e-20
1e-20
1e-20
1e-20
1e-20
1e-20
1e-20
1e-20
1e-20
1e-20
1e-20
1e-20
1e-20
1e-20
1e-20
1e-20
1e-20
1e-20
1e-20
1e-20
1e-20
1e-20
1e-20
1e-20
1e-20
1e-20
1e-20
1e-20
1e-20
1e-20
1e-20
1e-20
1e-20
1e-20
1e-20
1e-20
1e-20
1e-20
1e-20
1e-20
1.2446e-20
5.01273e-20
2.46267e-19
1.2948e-18
7.29483e-18
4.45557e-17
2.99629e-16
2.25738e-15
1.93823e-14
1.93026e-13
2.27779e-12
3.24509e-11
5.65317e-10
1.2182e-08
3.27716e-07
1.05904e-05
0.00031853
0.00249311
0.00435152
0.00525434
0.00582541
0.00623191
0.00654174
0.00678623
0.00698205
0.0071394
0.0072653
0.00736493
0.00744234
0.00750071
0.00754266
0.0075703
0.00758541
0.00758946
0.00758369
0.00756917
0.00754679
0.00751733
0.00748146
0.00743978
0.00739278
0.00734092
0.0072846
0.00722417
0.00715994
0.00709221
0.00702123
0.00694722
0.00687039
0.00679094
0.00670905
0.00662486
0.00653854
0.00645021
0.00636
0.00626804
0.00617444
0.0060793
0.00598272
0.0058848
0.00578563
0.0056853
0.00558389
0.00548147
0.00537814
0.00527397
0.00516903
0.0050634
0.00495716
0.00484929
0.00473874
0.00462552
0.00450963
0.00439111
0.00426999
0.00414631
0.00402014
0.00389154
0.00376061
0.00362747
0.00349223
0.00335508
0.00321618
0.00307577
0.0029341
0.00279147
0.00264822
0.00250474
0.00236147
0.00221893
0.00207767
0.0019383
0.00180151
0.00166804
0.00153865
0.00141416
0.00129537
0.00118307
0.00107795
0.000980616
0.000891492
0.000810792
0.000738492
0.00067432
0.000617771
0.000568152
0.000524637
0.000486323
0.000452284
0.000421617
0.000393471
0.000367067
0.00034171
0.000316795
0.000291813
0.000266355
0.000240117
0.000212906
0.000184644
0.00015539
0.000125365
9.5001e-05
6.50421e-05
3.67978e-05
1.26372e-05
1.34882e-06
3.88053e-08
7.66967e-10
1.40813e-11
2.42947e-13
3.94277e-15
6.02338e-17
8.7314e-19
1.98614e-20
1e-20
1e-20
1e-20
1e-20
1e-20
1e-20
1e-20
1e-20
1e-20
1e-20
1e-20
1e-20
1e-20
1e-20
1e-20
1e-20
1e-20
1e-20
1e-20
1e-20
1e-20
1e-20
1e-20
1e-20
1e-20
1e-20
1e-20
1e-20
1e-20
1e-20
1e-20
1e-20
1e-20
1e-20
1e-20
1e-20
1e-20
1e-20
1e-20
1e-20
1e-20
1e-20
1e-20
1e-20
1e-20
1e-20
1e-20
1e-20
1e-20
1e-20
1e-20
1e-20
1e-20
1e-20
1e-20
1e-20
1e-20
1e-20
1e-20
1e-20
1e-20
1e-20
1e-20
1e-20
1e-20
1e-20
1e-20
1e-20
1e-20
1e-20
1e-20
1e-20
1e-20
1e-20
1e-20
1e-20
1e-20
1e-20
1e-20
1e-20
1e-20
1e-20
1e-20
1e-20
1e-20
1e-20
1e-20
1e-20
1e-20
1e-20
1e-20
1e-20
1e-20
1e-20
)
;

boundaryField
{
    inandouthalf11
    {
        type            cyclic;
    }
    inandouthalf12
    {
        type            cyclic;
    }
    inandouthalf21
    {
        type            cyclic;
    }
    inandouthalf22
    {
        type            cyclic;
    }
    inandouthalf31
    {
        type            cyclic;
    }
    inandouthalf32
    {
        type            cyclic;
    }
    inandouthalf41
    {
        type            cyclic;
    }
    inandouthalf42
    {
        type            cyclic;
    }
    top
    {
        type            symmetryPlane;
    }
    walls
    {
        type            zeroGradient;
    }
    frontAndBackPlanes
    {
        type            empty;
    }
}


// ************************************************************************* //
