/*--------------------------------*- C++ -*----------------------------------*\
| =========                 |                                                 |
| \\      /  F ield         | OpenFOAM: The Open Source CFD Toolbox           |
|  \\    /   O peration     | Version:  2.4.x                                 |
|   \\  /    A nd           | Web:      www.OpenFOAM.org                      |
|    \\/     M anipulation  |                                                 |
\*---------------------------------------------------------------------------*/
FoamFile
{
    version     2.0;
    format      ascii;
    class       volScalarField;
    location    "6.5";
    object      k_0;
}
// * * * * * * * * * * * * * * * * * * * * * * * * * * * * * * * * * * * * * //

dimensions      [0 2 -2 0 0 0 0];

internalField   nonuniform List<scalar> 
360
(
1e-20
1e-20
1e-20
1e-20
1e-20
1e-20
1e-20
1e-20
1e-20
1e-20
1e-20
1e-20
1e-20
1e-20
1e-20
1e-20
1e-20
1e-20
1e-20
1e-20
1e-20
1e-20
1e-20
1e-20
1e-20
1e-20
1e-20
1e-20
1e-20
1e-20
1e-20
1e-20
1e-20
1e-20
1e-20
1e-20
1e-20
1e-20
1e-20
1e-20
1e-20
1e-20
1e-20
1e-20
1e-20
1e-20
1e-20
1e-20
1e-20
1e-20
1e-20
1e-20
1e-20
1e-20
1e-20
1e-20
1e-20
1e-20
1e-20
1e-20
1e-20
1e-20
1e-20
1e-20
1e-20
1e-20
1e-20
1e-20
1e-20
1e-20
1e-20
1e-20
1e-20
1e-20
1e-20
1e-20
1e-20
1e-20
1e-20
1e-20
1e-20
1e-20
1e-20
1e-20
1e-20
1e-20
1e-20
1e-20
1e-20
1e-20
1e-20
1e-20
1e-20
1e-20
1e-20
1e-20
1e-20
1e-20
1e-20
1e-20
1e-20
1e-20
1e-20
1e-20
1e-20
1e-20
1e-20
1e-20
1e-20
1e-20
1e-20
1e-20
1e-20
1e-20
1e-20
1e-20
1e-20
1e-20
1e-20
1e-20
1e-20
1e-20
1e-20
1e-20
1e-20
1e-20
1e-20
1e-20
1e-20
1e-20
1e-20
1e-20
1.24468e-20
5.01326e-20
2.46302e-19
1.29504e-18
7.29666e-18
4.45701e-17
2.99749e-16
2.25849e-15
1.93936e-14
1.93157e-13
2.27954e-12
3.2479e-11
5.65864e-10
1.21952e-08
3.28116e-07
1.06047e-05
0.0003189
0.00249456
0.0043527
0.00525533
0.00582625
0.00623264
0.00654238
0.00678681
0.00698258
0.0071399
0.00726576
0.00736537
0.00744274
0.0075011
0.00754302
0.00757064
0.00758573
0.00758975
0.00758397
0.00756943
0.00754703
0.00751755
0.00748167
0.00743996
0.00739294
0.00734107
0.00728473
0.00722429
0.00716005
0.0070923
0.0070213
0.00694728
0.00687044
0.00679098
0.00670906
0.00662486
0.00653852
0.00645018
0.00635996
0.00626799
0.00617438
0.00607922
0.00598263
0.0058847
0.00578552
0.00568517
0.00558375
0.00548132
0.00537798
0.0052738
0.00516885
0.00506321
0.00495695
0.00484907
0.00473851
0.00462528
0.00450938
0.00439085
0.00426972
0.00414603
0.00401985
0.00389124
0.0037603
0.00362715
0.00349191
0.00335474
0.00321584
0.00307543
0.00293375
0.00279111
0.00264786
0.00250438
0.00236111
0.00221857
0.00207731
0.00193795
0.00180117
0.00166771
0.00153834
0.00141386
0.00129509
0.0011828
0.00107771
0.000980401
0.000891303
0.000810629
0.000738355
0.000674207
0.00061768
0.000568081
0.000524584
0.000486284
0.000452256
0.000421599
0.00039346
0.00036706
0.000341706
0.000316792
0.00029181
0.000266351
0.000240112
0.000212898
0.000184633
0.000155376
0.000125349
9.49819e-05
6.50213e-05
3.67771e-05
1.2621e-05
1.34535e-06
3.86747e-08
7.64288e-10
1.40308e-11
2.42055e-13
3.92796e-15
6.00026e-17
8.69741e-19
1.9816e-20
1e-20
1e-20
1e-20
1e-20
1e-20
1e-20
1e-20
1e-20
1e-20
1e-20
1e-20
1e-20
1e-20
1e-20
1e-20
1e-20
1e-20
1e-20
1e-20
1e-20
1e-20
1e-20
1e-20
1e-20
1e-20
1e-20
1e-20
1e-20
1e-20
1e-20
1e-20
1e-20
1e-20
1e-20
1e-20
1e-20
1e-20
1e-20
1e-20
1e-20
1e-20
1e-20
1e-20
1e-20
1e-20
1e-20
1e-20
1e-20
1e-20
1e-20
1e-20
1e-20
1e-20
1e-20
1e-20
1e-20
1e-20
1e-20
1e-20
1e-20
1e-20
1e-20
1e-20
1e-20
1e-20
1e-20
1e-20
1e-20
1e-20
1e-20
1e-20
1e-20
1e-20
1e-20
1e-20
1e-20
1e-20
1e-20
1e-20
1e-20
1e-20
1e-20
1e-20
1e-20
1e-20
1e-20
1e-20
1e-20
1e-20
1e-20
1e-20
1e-20
1e-20
1e-20
)
;

boundaryField
{
    inandouthalf11
    {
        type            cyclic;
    }
    inandouthalf12
    {
        type            cyclic;
    }
    inandouthalf21
    {
        type            cyclic;
    }
    inandouthalf22
    {
        type            cyclic;
    }
    inandouthalf31
    {
        type            cyclic;
    }
    inandouthalf32
    {
        type            cyclic;
    }
    inandouthalf41
    {
        type            cyclic;
    }
    inandouthalf42
    {
        type            cyclic;
    }
    top
    {
        type            symmetryPlane;
    }
    walls
    {
        type            zeroGradient;
    }
    frontAndBackPlanes
    {
        type            empty;
    }
}


// ************************************************************************* //
