/*--------------------------------*- C++ -*----------------------------------*\
| =========                 |                                                 |
| \\      /  F ield         | OpenFOAM: The Open Source CFD Toolbox           |
|  \\    /   O peration     | Version:  2.4.x                                 |
|   \\  /    A nd           | Web:      www.OpenFOAM.org                      |
|    \\/     M anipulation  |                                                 |
\*---------------------------------------------------------------------------*/
FoamFile
{
    version     2.0;
    format      ascii;
    class       volScalarField;
    location    "6.5";
    object      Theta;
}
// * * * * * * * * * * * * * * * * * * * * * * * * * * * * * * * * * * * * * //

dimensions      [0 2 -2 0 0 0 0];

internalField   nonuniform List<scalar> 
360
(
6.66441e-21
6.67152e-21
6.6685e-21
6.66757e-21
6.66803e-21
6.66842e-21
6.66856e-21
6.66861e-21
6.66867e-21
6.66876e-21
6.66887e-21
6.66898e-21
6.66909e-21
6.6692e-21
6.6693e-21
6.66941e-21
6.66952e-21
6.66963e-21
6.66974e-21
6.66985e-21
6.66996e-21
6.67008e-21
6.6702e-21
6.67032e-21
6.67044e-21
6.67056e-21
6.67068e-21
6.6708e-21
6.67092e-21
6.67104e-21
6.67115e-21
6.67126e-21
6.67137e-21
6.67148e-21
6.67159e-21
6.67171e-21
6.67184e-21
6.67199e-21
6.67216e-21
6.67236e-21
6.67258e-21
6.67283e-21
6.67309e-21
6.67337e-21
6.67365e-21
6.67388e-21
6.67406e-21
6.67414e-21
6.67412e-21
6.67397e-21
6.67368e-21
6.67327e-21
6.67277e-21
6.67222e-21
6.67171e-21
6.67128e-21
6.67103e-21
6.67104e-21
6.6714e-21
6.67226e-21
6.67384e-21
6.67649e-21
6.6807e-21
6.68719e-21
6.6967e-21
6.7095e-21
6.72409e-21
6.73573e-21
6.7372e-21
6.72434e-21
6.70201e-21
6.68104e-21
6.66837e-21
6.66319e-21
6.6617e-21
6.66139e-21
6.66134e-21
6.66134e-21
6.66134e-21
6.66133e-21
6.66133e-21
6.66133e-21
6.66133e-21
6.66133e-21
6.66133e-21
6.66133e-21
6.66133e-21
6.66133e-21
6.66132e-21
6.66132e-21
6.66132e-21
6.66132e-21
6.66132e-21
6.66132e-21
6.66132e-21
6.66131e-21
6.66131e-21
6.66131e-21
6.66131e-21
6.66131e-21
6.66131e-21
6.66131e-21
6.6613e-21
6.6613e-21
6.6613e-21
6.6613e-21
6.6613e-21
6.66129e-21
6.66129e-21
6.66129e-21
6.66129e-21
6.66129e-21
6.66128e-21
6.66128e-21
6.66128e-21
6.66128e-21
6.66128e-21
6.66127e-21
6.66127e-21
6.66127e-21
6.66126e-21
6.66126e-21
6.66126e-21
6.66126e-21
6.66125e-21
6.66125e-21
6.66125e-21
6.66124e-21
6.66124e-21
6.66123e-21
6.66123e-21
6.66124e-21
8.28962e-21
3.33838e-20
1.63994e-19
8.62135e-19
4.85657e-18
2.96578e-17
1.99393e-16
1.5017e-15
1.2888e-14
1.28272e-13
1.51269e-12
2.15554e-11
3.7939e-10
1.00058e-08
5.38821e-07
1.60457e-05
0.000262212
0.00135942
0.00228329
0.00282122
0.00321253
0.00353247
0.00380362
0.00403461
0.0042308
0.00439687
0.00453696
0.00465482
0.00475363
0.00483606
0.00490436
0.0049604
0.00500574
0.00504165
0.00506922
0.00508935
0.0051028
0.00511022
0.00511218
0.00510914
0.00510154
0.00508974
0.00507406
0.00505481
0.00503224
0.0050066
0.0049781
0.00494696
0.00491336
0.00487748
0.00483948
0.00479954
0.00475779
0.00471438
0.00466944
0.00462312
0.00457552
0.00452677
0.00447699
0.00442629
0.00437475
0.0043225
0.00426961
0.00421618
0.0041623
0.00410803
0.00405345
0.00399863
0.00394362
0.00388793
0.00383101
0.00377289
0.00371357
0.00365305
0.00359133
0.00352839
0.00346419
0.0033987
0.00333186
0.00326357
0.00319375
0.00312229
0.00304905
0.0029739
0.00289668
0.00281722
0.00273533
0.0026508
0.00256341
0.0024729
0.00237901
0.0022814
0.00217972
0.00207354
0.00196237
0.0018456
0.00172252
0.00159217
0.00145336
0.00130444
0.00114303
0.000965443
0.000765209
0.000528252
0
0
0
0
0
0
0
0
0
0
0
0
0
0
0
0
0
0
0
0
0
0
0
0
0
0
0
0
0
0
0
0
0
0
0
0
0
0
0
0
0
0
0
0
0
0
0
0
0
0
0
0
0
0
0
0
0
0
0
0
0
0
0
0
0
0
0
0
0
0
0
0
0
0
0
0
0
0
0
0
0
0
0
0
0
0
0
0
0
0
0
0
0
0
0
0
0
0
0
0
0
0
0
0
0
0
0
0
0
0
0
0
0
0
0
0
0
0
0
0
0
0
0
0
)
;

boundaryField
{
    inandouthalf11
    {
        type            cyclic;
    }
    inandouthalf12
    {
        type            cyclic;
    }
    inandouthalf21
    {
        type            cyclic;
    }
    inandouthalf22
    {
        type            cyclic;
    }
    inandouthalf31
    {
        type            cyclic;
    }
    inandouthalf32
    {
        type            cyclic;
    }
    inandouthalf41
    {
        type            cyclic;
    }
    inandouthalf42
    {
        type            cyclic;
    }
    top
    {
        type            symmetryPlane;
    }
    walls
    {
        type            zeroGradient;
    }
    frontAndBackPlanes
    {
        type            empty;
    }
}


// ************************************************************************* //
