/*--------------------------------*- C++ -*----------------------------------*\
| =========                 |                                                 |
| \\      /  F ield         | OpenFOAM: The Open Source CFD Toolbox           |
|  \\    /   O peration     | Version:  2.4.x                                 |
|   \\  /    A nd           | Web:      www.OpenFOAM.org                      |
|    \\/     M anipulation  |                                                 |
\*---------------------------------------------------------------------------*/
FoamFile
{
    version     2.0;
    format      ascii;
    class       volVectorField;
    location    "6.5";
    object      U;
}
// * * * * * * * * * * * * * * * * * * * * * * * * * * * * * * * * * * * * * //

dimensions      [0 1 -1 0 0 0 0];

internalField   nonuniform List<vector> 
360
(
(2.77744e-05 2.4007e-08 0)
(2.75674e-05 -4.22027e-09 0)
(2.75134e-05 -4.6594e-09 0)
(2.75191e-05 -1.81607e-10 0)
(2.75155e-05 8.4049e-10 0)
(2.75022e-05 3.40423e-10 0)
(2.74885e-05 5.57463e-11 0)
(2.74755e-05 4.20057e-11 0)
(2.74624e-05 7.97221e-11 0)
(2.74492e-05 1.13129e-10 0)
(2.74358e-05 1.30865e-10 0)
(2.7422e-05 1.28673e-10 0)
(2.74079e-05 1.19832e-10 0)
(2.73933e-05 1.12491e-10 0)
(2.73785e-05 1.11342e-10 0)
(2.73634e-05 1.14386e-10 0)
(2.7348e-05 1.16521e-10 0)
(2.73322e-05 1.17316e-10 0)
(2.73161e-05 1.16819e-10 0)
(2.72997e-05 1.18245e-10 0)
(2.72829e-05 1.16009e-10 0)
(2.72658e-05 1.19199e-10 0)
(2.72483e-05 1.21071e-10 0)
(2.72305e-05 1.21049e-10 0)
(2.72122e-05 1.20438e-10 0)
(2.71937e-05 1.19491e-10 0)
(2.71747e-05 1.17647e-10 0)
(2.71553e-05 1.18155e-10 0)
(2.71356e-05 1.13275e-10 0)
(2.71155e-05 1.08189e-10 0)
(2.70949e-05 1.02579e-10 0)
(2.70741e-05 1.04325e-10 0)
(2.70527e-05 9.5355e-11 0)
(2.70311e-05 1.05338e-10 0)
(2.70089e-05 1.01439e-10 0)
(2.69864e-05 1.12064e-10 0)
(2.69634e-05 1.25407e-10 0)
(2.694e-05 1.45022e-10 0)
(2.69162e-05 1.72469e-10 0)
(2.68916e-05 1.83453e-10 0)
(2.68667e-05 2.17587e-10 0)
(2.6841e-05 2.3509e-10 0)
(2.68146e-05 2.37026e-10 0)
(2.67876e-05 2.50348e-10 0)
(2.67598e-05 2.242e-10 0)
(2.67313e-05 1.77259e-10 0)
(2.67023e-05 1.10753e-10 0)
(2.66725e-05 7.94588e-12 0)
(2.66424e-05 -9.47224e-11 0)
(2.66123e-05 -2.0569e-10 0)
(2.65818e-05 -3.52277e-10 0)
(2.65518e-05 -4.52889e-10 0)
(2.6522e-05 -5.33523e-10 0)
(2.64928e-05 -5.47761e-10 0)
(2.64641e-05 -5.17775e-10 0)
(2.6436e-05 -3.74492e-10 0)
(2.64081e-05 -1.81543e-10 0)
(2.63803e-05 1.36311e-10 0)
(2.63517e-05 5.54752e-10 0)
(2.63216e-05 1.08705e-09 0)
(2.62893e-05 1.81765e-09 0)
(2.62527e-05 2.67616e-09 0)
(2.62105e-05 3.74781e-09 0)
(2.616e-05 4.91343e-09 0)
(2.60989e-05 6.00735e-09 0)
(2.60245e-05 6.55936e-09 0)
(2.59357e-05 5.84414e-09 0)
(2.58335e-05 3.03982e-09 0)
(2.57237e-05 -1.9636e-09 0)
(2.56169e-05 -7.82158e-09 0)
(2.55261e-05 -1.20163e-08 0)
(2.54607e-05 -1.26953e-08 0)
(2.54227e-05 -1.01904e-08 0)
(2.54074e-05 -6.43496e-09 0)
(2.54067e-05 -3.33191e-09 0)
(2.5414e-05 -1.43585e-09 0)
(2.54247e-05 -5.5114e-10 0)
(2.5437e-05 -1.95725e-10 0)
(2.54501e-05 -7.27782e-11 0)
(2.54636e-05 -3.12303e-11 0)
(2.54774e-05 -2.80605e-11 0)
(2.54917e-05 -2.36167e-11 0)
(2.55064e-05 -2.11905e-11 0)
(2.55215e-05 -2.19776e-11 0)
(2.55369e-05 -1.94229e-11 0)
(2.55528e-05 -2.04197e-11 0)
(2.5569e-05 -1.71232e-11 0)
(2.55855e-05 -1.82552e-11 0)
(2.56024e-05 -1.98831e-11 0)
(2.56196e-05 -2.02374e-11 0)
(2.56373e-05 -2.14018e-11 0)
(2.56553e-05 -2.39776e-11 0)
(2.56738e-05 -2.45089e-11 0)
(2.56927e-05 -2.52496e-11 0)
(2.5712e-05 -2.59711e-11 0)
(2.57319e-05 -2.64386e-11 0)
(2.57522e-05 -2.68686e-11 0)
(2.5773e-05 -2.76115e-11 0)
(2.57942e-05 -2.86494e-11 0)
(2.5816e-05 -2.96629e-11 0)
(2.58384e-05 -3.09226e-11 0)
(2.58612e-05 -3.23392e-11 0)
(2.58847e-05 -3.36566e-11 0)
(2.59087e-05 -3.50352e-11 0)
(2.59334e-05 -3.65306e-11 0)
(2.59586e-05 -3.80914e-11 0)
(2.59846e-05 -3.97749e-11 0)
(2.60112e-05 -4.1601e-11 0)
(2.60386e-05 -4.35371e-11 0)
(2.60667e-05 -4.55819e-11 0)
(2.60956e-05 -4.77371e-11 0)
(2.61253e-05 -4.9996e-11 0)
(2.61559e-05 -5.23663e-11 0)
(2.61874e-05 -5.48557e-11 0)
(2.62198e-05 -5.74666e-11 0)
(2.62531e-05 -6.02106e-11 0)
(2.62875e-05 -6.31091e-11 0)
(2.6323e-05 -6.61822e-11 0)
(2.63596e-05 -6.9438e-11 0)
(2.63974e-05 -7.28711e-11 0)
(2.64364e-05 -7.64578e-11 0)
(2.64768e-05 -8.01679e-11 0)
(2.65185e-05 -8.40415e-11 0)
(2.65616e-05 -8.83194e-11 0)
(2.66062e-05 -9.3524e-11 0)
(2.66524e-05 -1.00349e-10 0)
(2.67003e-05 -1.0918e-10 0)
(2.67501e-05 -1.19272e-10 0)
(2.68019e-05 -1.28246e-10 0)
(2.68558e-05 -1.33822e-10 0)
(2.69121e-05 -1.39217e-10 0)
(2.69707e-05 -1.58447e-10 0)
(2.7032e-05 -2.03428e-10 0)
(2.70967e-05 -2.49009e-10 0)
(2.71656e-05 -2.44641e-10 0)
(2.72386e-05 -2.17108e-10 0)
(2.73154e-05 -2.91317e-10 0)
(2.73971e-05 -5.53865e-10 0)
(2.74879e-05 -8.29924e-10 0)
(2.75923e-05 -5.08285e-10 0)
(2.77055e-05 3.6293e-10 0)
(2.78137e-05 -1.31873e-09 0)
(2.79436e-05 -2.38378e-09 0)
(2.8113e-05 -2.49657e-09 0)
(2.83246e-05 -1.05028e-08 0)
(2.87203e-05 -1.25318e-07 0)
(2.9976e-05 1.60482e-06 0)
(2.9552e-05 -8.43022e-06 0)
(-0.000614934 2.84838e-05 0)
(-0.0820595 7.15837e-05 0)
(-0.159591 -2.7517e-05 0)
(-0.215799 1.04742e-05 0)
(-0.259411 4.15407e-06 0)
(-0.294625 1.78028e-06 0)
(-0.323923 9.08367e-07 0)
(-0.348899 5.28279e-07 0)
(-0.370625 3.05221e-07 0)
(-0.389842 1.71579e-07 0)
(-0.407077 9.48028e-08 0)
(-0.422714 5.13187e-08 0)
(-0.43704 2.63001e-08 0)
(-0.450274 1.1653e-08 0)
(-0.462584 3.05888e-09 0)
(-0.474103 -1.92868e-09 0)
(-0.484938 -4.73558e-09 0)
(-0.495176 -6.22886e-09 0)
(-0.504887 -6.91801e-09 0)
(-0.51413 -7.12324e-09 0)
(-0.522955 -7.03608e-09 0)
(-0.531404 -6.78091e-09 0)
(-0.539512 -6.43126e-09 0)
(-0.54731 -6.03636e-09 0)
(-0.554824 -5.6256e-09 0)
(-0.562078 -5.21693e-09 0)
(-0.569092 -4.82165e-09 0)
(-0.575883 -4.44586e-09 0)
(-0.582468 -4.09278e-09 0)
(-0.58886 -3.76366e-09 0)
(-0.595072 -3.45864e-09 0)
(-0.601115 -3.17705e-09 0)
(-0.607 -2.91781e-09 0)
(-0.612735 -2.67962e-09 0)
(-0.618328 -2.46105e-09 0)
(-0.623787 -2.26068e-09 0)
(-0.629119 -2.07709e-09 0)
(-0.63433 -1.90893e-09 0)
(-0.639425 -1.75493e-09 0)
(-0.644409 -1.61389e-09 0)
(-0.649288 -1.48469e-09 0)
(-0.654065 -1.36631e-09 0)
(-0.658745 -1.25775e-09 0)
(-0.66333 -1.15802e-09 0)
(-0.667825 -1.0665e-09 0)
(-0.672231 -9.82423e-10 0)
(-0.676553 -9.04888e-10 0)
(-0.680793 -8.33175e-10 0)
(-0.684952 -7.66468e-10 0)
(-0.689034 -7.03184e-10 0)
(-0.693039 -6.42802e-10 0)
(-0.69697 -5.89856e-10 0)
(-0.700828 -5.4227e-10 0)
(-0.704654 -5.12024e-10 0)
(-0.708484 -4.82485e-10 0)
(-0.712317 -4.60571e-10 0)
(-0.71615 -4.22458e-10 0)
(-0.719983 -3.7477e-10 0)
(-0.723812 -3.43795e-10 0)
(-0.727636 -3.10707e-10 0)
(-0.731452 -2.80911e-10 0)
(-0.735256 -2.5293e-10 0)
(-0.739046 -2.15645e-10 0)
(-0.742817 -1.97731e-10 0)
(-0.746566 -1.6309e-10 0)
(-0.750287 -1.16461e-10 0)
(-0.753976 -9.82115e-11 0)
(-0.757626 -7.11735e-11 0)
(-0.761231 -4.40323e-11 0)
(-0.764784 -2.72117e-11 0)
(-0.768277 -1.94915e-11 0)
(-0.771702 -1.14373e-11 0)
(-0.775048 2.17037e-12 0)
(-0.778305 -8.61368e-13 0)
(-0.781462 -5.3109e-13 0)
(-0.784506 4.47525e-12 0)
(-0.787423 3.413e-12 0)
(-0.790198 1.58252e-12 0)
(-0.792817 4.07843e-12 0)
(-0.795262 5.58907e-13 0)
(-0.797518 6.03738e-12 0)
(-0.799568 -3.84297e-12 0)
(-0.8014 8.86134e-12 0)
(-0.802999 -9.06816e-12 0)
(-0.804356 1.82263e-11 0)
(-0.805465 -2.12652e-11 0)
(-0.806325 5.94544e-11 0)
(-0.806939 -1.94119e-10 0)
(-0.807314 4.32849e-10 0)
(-0.80746 -4.05843e-10 0)
(-0.807391 1.12893e-10 0)
(-0.807121 -6.70404e-11 0)
(-0.806664 4.87459e-11 0)
(-0.806037 4.79184e-11 0)
(-0.805252 -1.69998e-11 0)
(-0.804325 -1.93751e-12 0)
(-0.803269 -1.11384e-12 0)
(-0.8021 -1.73923e-12 0)
(-0.80083 -2.2989e-12 0)
(-0.799477 -2.31644e-12 0)
(-0.798054 7.39029e-12 0)
(-0.796579 -3.2418e-11 0)
(-0.795068 6.73009e-11 0)
(-0.793544 -1.28579e-10 0)
(-0.792027 2.04617e-10 0)
(-0.790546 -3.08826e-10 0)
(-0.789139 4.27858e-10 0)
(-0.78786 -5.71551e-10 0)
(-0.786803 7.24592e-10 0)
(-0.786316 -8.93675e-10 0)
(-0.786259 1.06436e-09 0)
(-0.786257 -1.24488e-09 0)
(-0.786257 1.42512e-09 0)
(-0.786257 -1.61432e-09 0)
(-0.786257 1.80399e-09 0)
(-0.786257 -2.00243e-09 0)
(-0.786257 2.20211e-09 0)
(-0.786257 -2.41047e-09 0)
(-0.786257 2.62074e-09 0)
(-0.786257 -2.83966e-09 0)
(-0.786257 3.06107e-09 0)
(-0.786257 -3.29115e-09 0)
(-0.786257 3.5242e-09 0)
(-0.786257 -3.76597e-09 0)
(-0.786257 4.01115e-09 0)
(-0.786257 -4.26509e-09 0)
(-0.786257 4.52283e-09 0)
(-0.786257 -4.78939e-09 0)
(-0.786257 5.06011e-09 0)
(-0.786257 -5.33968e-09 0)
(-0.786257 5.62377e-09 0)
(-0.786257 -5.91673e-09 0)
(-0.786257 6.21457e-09 0)
(-0.786257 -6.52126e-09 0)
(-0.786257 6.83317e-09 0)
(-0.786257 -7.15394e-09 0)
(-0.786257 7.48025e-09 0)
(-0.786257 -7.8154e-09 0)
(-0.786257 8.15641e-09 0)
(-0.786257 -8.5062e-09 0)
(-0.786257 8.86222e-09 0)
(-0.786257 -9.22694e-09 0)
(-0.786257 9.59822e-09 0)
(-0.786257 -9.9781e-09 0)
(-0.786257 1.03649e-08 0)
(-0.786257 -1.07602e-08 0)
(-0.786257 1.11627e-08 0)
(-0.786257 -1.15736e-08 0)
(-0.786257 1.19921e-08 0)
(-0.786257 -1.24188e-08 0)
(-0.786257 1.28533e-08 0)
(-0.786257 -1.32961e-08 0)
(-0.786257 1.37468e-08 0)
(-0.786257 -1.42058e-08 0)
(-0.786257 1.46728e-08 0)
(-0.786257 -1.51481e-08 0)
(-0.786257 1.56314e-08 0)
(-0.786257 -1.6123e-08 0)
(-0.786257 1.66227e-08 0)
(-0.786257 -1.71307e-08 0)
(-0.786257 1.76467e-08 0)
(-0.786257 -1.81708e-08 0)
(-0.786257 1.64182e-08 0)
(-0.786257 -1.65783e-08 0)
(-0.786257 1.67368e-08 0)
(-0.786257 -1.68935e-08 0)
(-0.786257 1.70485e-08 0)
(-0.786257 -1.72018e-08 0)
(-0.786257 1.73533e-08 0)
(-0.786257 -1.75031e-08 0)
(-0.786257 1.76511e-08 0)
(-0.786257 -1.77972e-08 0)
(-0.786257 1.79416e-08 0)
(-0.786257 -1.80841e-08 0)
(-0.786257 1.82247e-08 0)
(-0.786257 -1.83634e-08 0)
(-0.786257 1.85002e-08 0)
(-0.786257 -1.8635e-08 0)
(-0.786257 1.87679e-08 0)
(-0.786257 -1.88987e-08 0)
(-0.786257 1.90275e-08 0)
(-0.786257 -1.91542e-08 0)
(-0.786257 1.92789e-08 0)
(-0.786257 -1.94014e-08 0)
(-0.786257 1.95217e-08 0)
(-0.786257 -1.96398e-08 0)
(-0.786257 1.97557e-08 0)
(-0.786257 -1.98693e-08 0)
(-0.786257 1.99805e-08 0)
(-0.786257 -2.00893e-08 0)
(-0.786257 2.01957e-08 0)
(-0.786257 -2.02996e-08 0)
(-0.786257 2.04008e-08 0)
(-0.786257 -2.04996e-08 0)
(-0.786257 2.05954e-08 0)
(-0.786257 -2.06889e-08 0)
(-0.786257 2.07787e-08 0)
(-0.786257 -2.08666e-08 0)
(-0.786257 2.09502e-08 0)
(-0.786257 -2.10321e-08 0)
(-0.786257 2.11089e-08 0)
(-0.786257 -2.11844e-08 0)
(-0.786257 2.12538e-08 0)
(-0.786257 -2.13223e-08 0)
(-0.786257 2.13833e-08 0)
(-0.786257 -2.14441e-08 0)
(-0.786257 2.14956e-08 0)
(-0.786257 -2.15472e-08 0)
(-0.786257 2.15873e-08 0)
(-0.786257 -2.16269e-08 0)
(-0.786257 2.16516e-08 0)
(-0.786257 -2.16742e-08 0)
)
;

boundaryField
{
    inandouthalf11
    {
        type            cyclic;
    }
    inandouthalf12
    {
        type            cyclic;
    }
    inandouthalf21
    {
        type            cyclic;
    }
    inandouthalf22
    {
        type            cyclic;
    }
    inandouthalf31
    {
        type            cyclic;
    }
    inandouthalf32
    {
        type            cyclic;
    }
    inandouthalf41
    {
        type            cyclic;
    }
    inandouthalf42
    {
        type            cyclic;
    }
    top
    {
        type            symmetryPlane;
    }
    walls
    {
        type            calculated;
        value           uniform (0 0 0);
    }
    frontAndBackPlanes
    {
        type            empty;
    }
}


// ************************************************************************* //
