/*--------------------------------*- C++ -*----------------------------------*\
| =========                 |                                                 |
| \\      /  F ield         | OpenFOAM: The Open Source CFD Toolbox           |
|  \\    /   O peration     | Version:  2.4.x                                 |
|   \\  /    A nd           | Web:      www.OpenFOAM.org                      |
|    \\/     M anipulation  |                                                 |
\*---------------------------------------------------------------------------*/
FoamFile
{
    version     2.0;
    format      ascii;
    class       volVectorField;
    location    "6.5";
    object      Ub_0;
}
// * * * * * * * * * * * * * * * * * * * * * * * * * * * * * * * * * * * * * //

dimensions      [0 1 -1 0 0 0 0];

internalField   nonuniform List<vector> 
360
(
(7.13171e-05 6.16764e-08 0)
(7.09555e-05 2.24763e-07 0)
(7.08687e-05 4.17678e-07 0)
(7.08972e-05 5.94195e-07 0)
(7.09075e-05 7.66464e-07 0)
(7.08997e-05 9.42429e-07 0)
(7.08915e-05 1.12154e-06 0)
(7.08851e-05 1.30197e-06 0)
(7.08788e-05 1.48311e-06 0)
(7.08726e-05 1.6651e-06 0)
(7.08663e-05 1.84828e-06 0)
(7.08595e-05 2.03279e-06 0)
(7.08525e-05 2.21864e-06 0)
(7.08451e-05 2.40577e-06 0)
(7.08375e-05 2.59409e-06 0)
(7.08297e-05 2.78361e-06 0)
(7.08217e-05 2.97435e-06 0)
(7.08134e-05 3.16632e-06 0)
(7.08048e-05 3.35953e-06 0)
(7.0796e-05 3.55399e-06 0)
(7.07868e-05 3.74969e-06 0)
(7.07774e-05 3.94663e-06 0)
(7.07677e-05 4.14484e-06 0)
(7.07577e-05 4.34433e-06 0)
(7.07475e-05 4.5451e-06 0)
(7.07369e-05 4.74715e-06 0)
(7.0726e-05 4.95046e-06 0)
(7.07149e-05 5.15503e-06 0)
(7.07034e-05 5.36085e-06 0)
(7.06916e-05 5.56787e-06 0)
(7.06795e-05 5.77604e-06 0)
(7.06672e-05 5.98534e-06 0)
(7.06542e-05 6.1957e-06 0)
(7.06414e-05 6.40716e-06 0)
(7.06279e-05 6.61971e-06 0)
(7.06142e-05 6.83338e-06 0)
(7.06001e-05 7.04824e-06 0)
(7.05857e-05 7.26446e-06 0)
(7.0571e-05 7.48228e-06 0)
(7.05555e-05 7.70182e-06 0)
(7.05399e-05 7.9234e-06 0)
(7.05236e-05 8.14725e-06 0)
(7.05066e-05 8.37347e-06 0)
(7.04893e-05 8.60227e-06 0)
(7.04712e-05 8.83359e-06 0)
(7.04526e-05 9.06722e-06 0)
(7.04335e-05 9.30272e-06 0)
(7.04136e-05 9.53927e-06 0)
(7.03937e-05 9.77596e-06 0)
(7.03739e-05 1.00118e-05 0)
(7.03536e-05 1.02454e-05 0)
(7.03339e-05 1.04756e-05 0)
(7.03145e-05 1.07012e-05 0)
(7.02958e-05 1.09215e-05 0)
(7.02775e-05 1.11364e-05 0)
(7.02601e-05 1.13463e-05 0)
(7.02427e-05 1.15525e-05 0)
(7.02257e-05 1.17573e-05 0)
(7.0208e-05 1.19638e-05 0)
(7.01889e-05 1.21763e-05 0)
(7.01681e-05 1.24008e-05 0)
(7.01431e-05 1.26444e-05 0)
(7.0113e-05 1.29163e-05 0)
(7.0075e-05 1.32272e-05 0)
(7.00269e-05 1.35889e-05 0)
(6.9966e-05 1.40112e-05 0)
(6.98912e-05 1.44982e-05 0)
(6.98036e-05 1.50402e-05 0)
(6.97087e-05 1.56081e-05 0)
(6.96167e-05 1.61535e-05 0)
(6.95405e-05 1.66226e-05 0)
(6.94891e-05 1.69768e-05 0)
(6.9464e-05 1.72081e-05 0)
(6.94614e-05 1.73377e-05 0)
(6.94729e-05 1.73995e-05 0)
(6.94924e-05 1.74242e-05 0)
(6.95154e-05 1.74316e-05 0)
(6.95401e-05 1.74321e-05 0)
(6.95659e-05 1.74301e-05 0)
(6.95924e-05 1.74272e-05 0)
(6.96196e-05 1.7424e-05 0)
(6.96475e-05 1.74207e-05 0)
(6.96763e-05 1.74173e-05 0)
(6.97058e-05 1.74137e-05 0)
(6.97361e-05 1.74101e-05 0)
(6.97671e-05 1.74064e-05 0)
(6.97988e-05 1.74026e-05 0)
(6.98312e-05 1.73987e-05 0)
(6.98642e-05 1.73947e-05 0)
(6.9898e-05 1.73907e-05 0)
(6.99325e-05 1.73866e-05 0)
(6.99678e-05 1.73824e-05 0)
(7.00039e-05 1.7378e-05 0)
(7.00409e-05 1.73736e-05 0)
(7.00788e-05 1.73691e-05 0)
(7.01176e-05 1.73645e-05 0)
(7.01573e-05 1.73598e-05 0)
(7.01979e-05 1.73549e-05 0)
(7.02395e-05 1.735e-05 0)
(7.02821e-05 1.73449e-05 0)
(7.03258e-05 1.73398e-05 0)
(7.03705e-05 1.73345e-05 0)
(7.04163e-05 1.7329e-05 0)
(7.04632e-05 1.73235e-05 0)
(7.05114e-05 1.73178e-05 0)
(7.05607e-05 1.7312e-05 0)
(7.06114e-05 1.7306e-05 0)
(7.06634e-05 1.72999e-05 0)
(7.07168e-05 1.72936e-05 0)
(7.07717e-05 1.72871e-05 0)
(7.0828e-05 1.72805e-05 0)
(7.0886e-05 1.72737e-05 0)
(7.09456e-05 1.72667e-05 0)
(7.1007e-05 1.72595e-05 0)
(7.10701e-05 1.72522e-05 0)
(7.11352e-05 1.72446e-05 0)
(7.12022e-05 1.72367e-05 0)
(7.12714e-05 1.72287e-05 0)
(7.13426e-05 1.72204e-05 0)
(7.14162e-05 1.72119e-05 0)
(7.14922e-05 1.72031e-05 0)
(7.15706e-05 1.7194e-05 0)
(7.16517e-05 1.71846e-05 0)
(7.17356e-05 1.71749e-05 0)
(7.18224e-05 1.71649e-05 0)
(7.19122e-05 1.71546e-05 0)
(7.20053e-05 1.71439e-05 0)
(7.2102e-05 1.71328e-05 0)
(7.22025e-05 1.71213e-05 0)
(7.23073e-05 1.71094e-05 0)
(7.24164e-05 1.70969e-05 0)
(7.25301e-05 1.7084e-05 0)
(7.2649e-05 1.70704e-05 0)
(7.27745e-05 1.70561e-05 0)
(7.29079e-05 1.70411e-05 0)
(7.30493e-05 1.70253e-05 0)
(7.31979e-05 1.70085e-05 0)
(7.33559e-05 1.69901e-05 0)
(7.35315e-05 1.69699e-05 0)
(7.37333e-05 1.69483e-05 0)
(7.39517e-05 1.69264e-05 0)
(7.41605e-05 1.68992e-05 0)
(7.44111e-05 1.68691e-05 0)
(7.47373e-05 1.68333e-05 0)
(7.51444e-05 1.67693e-05 0)
(7.59045e-05 1.64023e-05 0)
(7.83024e-05 2.04271e-05 0)
(7.70006e-05 -4.3772e-06 0)
(-0.00115463 6.33074e-05 0)
(-0.0844171 0.000525443 0)
(-0.160954 0.000288618 0)
(-0.216531 0.00028665 0)
(-0.259844 0.000227034 0)
(-0.294909 0.000178749 0)
(-0.32413 0.000141126 0)
(-0.349065 0.000112163 0)
(-0.370767 8.98413e-05 0)
(-0.389969 7.25647e-05 0)
(-0.407194 5.90913e-05 0)
(-0.422824 4.84855e-05 0)
(-0.437146 4.00558e-05 0)
(-0.450376 3.32932e-05 0)
(-0.462683 2.78207e-05 0)
(-0.4742 2.33567e-05 0)
(-0.485033 1.96886e-05 0)
(-0.49527 1.66543e-05 0)
(-0.504979 1.41291e-05 0)
(-0.514222 1.20159e-05 0)
(-0.523046 1.02389e-05 0)
(-0.531494 8.73777e-06 0)
(-0.539601 7.46463e-06 0)
(-0.547398 6.38094e-06 0)
(-0.554912 5.45552e-06 0)
(-0.562165 4.66298e-06 0)
(-0.569179 3.9825e-06 0)
(-0.57597 3.39694e-06 0)
(-0.582554 2.89208e-06 0)
(-0.588946 2.45609e-06 0)
(-0.595158 2.07906e-06 0)
(-0.601201 1.75267e-06 0)
(-0.607085 1.46989e-06 0)
(-0.61282 1.22476e-06 0)
(-0.618413 1.01223e-06 0)
(-0.623872 8.27978e-07 0)
(-0.629204 6.68304e-07 0)
(-0.634414 5.30035e-07 0)
(-0.639509 4.10437e-07 0)
(-0.644493 3.0715e-07 0)
(-0.649372 2.18133e-07 0)
(-0.654149 1.41612e-07 0)
(-0.658828 7.60513e-08 0)
(-0.663413 2.01127e-08 0)
(-0.667908 -2.73644e-08 0)
(-0.672315 -6.7386e-08 0)
(-0.676637 -1.00822e-07 0)
(-0.680876 -1.28421e-07 0)
(-0.685035 -1.50824e-07 0)
(-0.689116 -1.68575e-07 0)
(-0.693122 -1.82138e-07 0)
(-0.697053 -1.91916e-07 0)
(-0.700911 -1.98284e-07 0)
(-0.704736 -2.01646e-07 0)
(-0.708566 -2.02247e-07 0)
(-0.712398 -2.0028e-07 0)
(-0.716232 -1.95934e-07 0)
(-0.720064 -1.89362e-07 0)
(-0.723894 -1.80692e-07 0)
(-0.727717 -1.70098e-07 0)
(-0.731533 -1.57858e-07 0)
(-0.735337 -1.44358e-07 0)
(-0.739127 -1.30071e-07 0)
(-0.742898 -1.15523e-07 0)
(-0.746646 -1.01235e-07 0)
(-0.750367 -8.76452e-08 0)
(-0.754055 -7.50637e-08 0)
(-0.757705 -6.36962e-08 0)
(-0.76131 -5.36396e-08 0)
(-0.764862 -4.48837e-08 0)
(-0.768355 -3.73587e-08 0)
(-0.77178 -3.09644e-08 0)
(-0.775126 -2.55726e-08 0)
(-0.778383 -2.10435e-08 0)
(-0.781539 -1.72558e-08 0)
(-0.784583 -1.41039e-08 0)
(-0.787499 -1.14866e-08 0)
(-0.790274 -9.31868e-09 0)
(-0.792892 -7.53e-09 0)
(-0.795336 -6.05878e-09 0)
(-0.797591 -4.85073e-09 0)
(-0.799642 -3.86143e-09 0)
(-0.801472 -3.05394e-09 0)
(-0.80307 -2.39628e-09 0)
(-0.804427 -1.8586e-09 0)
(-0.805535 -1.42266e-09 0)
(-0.806395 -1.07295e-09 0)
(-0.807008 -9.39015e-10 0)
(-0.807382 -4.8259e-10 0)
(-0.807528 -2.32066e-10 0)
(-0.807458 -2.22925e-10 0)
(-0.807187 -3.67622e-11 0)
(-0.80673 -3.3296e-11 0)
(-0.806102 4.79878e-11 0)
(-0.805317 -1.7024e-11 0)
(-0.804389 -1.95129e-12 0)
(-0.803334 -1.12391e-12 0)
(-0.802164 -1.74929e-12 0)
(-0.800894 -2.3093e-12 0)
(-0.79954 -2.32627e-12 0)
(-0.798117 7.37814e-12 0)
(-0.796642 -3.24179e-11 0)
(-0.795132 6.72792e-11 0)
(-0.793607 -1.28576e-10 0)
(-0.79209 2.04608e-10 0)
(-0.790609 -3.08851e-10 0)
(-0.789202 4.27894e-10 0)
(-0.787923 -5.7163e-10 0)
(-0.786866 7.24687e-10 0)
(-0.78638 -8.93811e-10 0)
(-0.786323 1.06451e-09 0)
(-0.786321 -1.24506e-09 0)
(-0.786321 1.42531e-09 0)
(-0.786321 -1.61454e-09 0)
(-0.786321 1.80421e-09 0)
(-0.786321 -2.00268e-09 0)
(-0.786321 2.20237e-09 0)
(-0.786321 -2.41074e-09 0)
(-0.786321 2.62102e-09 0)
(-0.786321 -2.83996e-09 0)
(-0.786321 3.06138e-09 0)
(-0.786321 -3.29148e-09 0)
(-0.786321 3.52454e-09 0)
(-0.786321 -3.76633e-09 0)
(-0.786321 4.01152e-09 0)
(-0.786321 -4.26549e-09 0)
(-0.786321 4.52323e-09 0)
(-0.786321 -4.78982e-09 0)
(-0.786321 5.06055e-09 0)
(-0.786321 -5.34015e-09 0)
(-0.786321 5.62425e-09 0)
(-0.786321 -5.91723e-09 0)
(-0.786321 6.21509e-09 0)
(-0.786321 -6.52181e-09 0)
(-0.786321 6.83373e-09 0)
(-0.786321 -7.15453e-09 0)
(-0.786321 7.48085e-09 0)
(-0.786321 -7.81603e-09 0)
(-0.786321 8.15706e-09 0)
(-0.786321 -8.50688e-09 0)
(-0.786321 8.86292e-09 0)
(-0.786321 -9.22766e-09 0)
(-0.786321 9.59897e-09 0)
(-0.786321 -9.97888e-09 0)
(-0.786321 1.03657e-08 0)
(-0.786321 -1.0761e-08 0)
(-0.786321 1.11636e-08 0)
(-0.786321 -1.15745e-08 0)
(-0.786321 1.1993e-08 0)
(-0.786321 -1.24197e-08 0)
(-0.786321 1.28543e-08 0)
(-0.786321 -1.32971e-08 0)
(-0.786321 1.37478e-08 0)
(-0.786321 -1.42069e-08 0)
(-0.786321 1.46739e-08 0)
(-0.786321 -1.51492e-08 0)
(-0.786321 1.56326e-08 0)
(-0.786321 -1.61242e-08 0)
(-0.786321 1.6624e-08 0)
(-0.786321 -1.71319e-08 0)
(-0.786321 1.7648e-08 0)
(-0.786321 -1.81722e-08 0)
(-0.786321 1.64194e-08 0)
(-0.786321 -1.65795e-08 0)
(-0.786321 1.67379e-08 0)
(-0.786321 -1.68947e-08 0)
(-0.786321 1.70497e-08 0)
(-0.786321 -1.7203e-08 0)
(-0.786321 1.73546e-08 0)
(-0.786321 -1.75043e-08 0)
(-0.786321 1.76523e-08 0)
(-0.786321 -1.77985e-08 0)
(-0.786321 1.79429e-08 0)
(-0.786321 -1.80853e-08 0)
(-0.786321 1.8226e-08 0)
(-0.786321 -1.83647e-08 0)
(-0.786321 1.85015e-08 0)
(-0.786321 -1.86363e-08 0)
(-0.786321 1.87692e-08 0)
(-0.786321 -1.89e-08 0)
(-0.786321 1.90288e-08 0)
(-0.786321 -1.91555e-08 0)
(-0.786321 1.92802e-08 0)
(-0.786321 -1.94027e-08 0)
(-0.786321 1.95231e-08 0)
(-0.786321 -1.96411e-08 0)
(-0.786321 1.97571e-08 0)
(-0.786321 -1.98706e-08 0)
(-0.786321 1.99818e-08 0)
(-0.786321 -2.00907e-08 0)
(-0.786321 2.0197e-08 0)
(-0.786321 -2.0301e-08 0)
(-0.786321 2.04022e-08 0)
(-0.786321 -2.0501e-08 0)
(-0.786321 2.05967e-08 0)
(-0.786321 -2.06902e-08 0)
(-0.786321 2.07801e-08 0)
(-0.786321 -2.0868e-08 0)
(-0.786321 2.09516e-08 0)
(-0.786321 -2.10335e-08 0)
(-0.786321 2.11103e-08 0)
(-0.786321 -2.11858e-08 0)
(-0.786321 2.12552e-08 0)
(-0.786321 -2.13237e-08 0)
(-0.786321 2.13847e-08 0)
(-0.786321 -2.14455e-08 0)
(-0.786321 2.1497e-08 0)
(-0.786321 -2.15486e-08 0)
(-0.786321 2.15887e-08 0)
(-0.786321 -2.16284e-08 0)
(-0.786321 2.1653e-08 0)
(-0.786321 -2.16756e-08 0)
)
;

boundaryField
{
    inandouthalf11
    {
        type            cyclic;
    }
    inandouthalf12
    {
        type            cyclic;
    }
    inandouthalf21
    {
        type            cyclic;
    }
    inandouthalf22
    {
        type            cyclic;
    }
    inandouthalf31
    {
        type            cyclic;
    }
    inandouthalf32
    {
        type            cyclic;
    }
    inandouthalf41
    {
        type            cyclic;
    }
    inandouthalf42
    {
        type            cyclic;
    }
    top
    {
        type            symmetryPlane;
    }
    walls
    {
        type            fixedValue;
        value           uniform (0 0 0);
    }
    frontAndBackPlanes
    {
        type            empty;
    }
}


// ************************************************************************* //
