/*--------------------------------*- C++ -*----------------------------------*\
| =========                 |                                                 |
| \\      /  F ield         | OpenFOAM: The Open Source CFD Toolbox           |
|  \\    /   O peration     | Version:  2.4.x                                 |
|   \\  /    A nd           | Web:      www.OpenFOAM.org                      |
|    \\/     M anipulation  |                                                 |
\*---------------------------------------------------------------------------*/
FoamFile
{
    version     2.0;
    format      ascii;
    class       volScalarField;
    location    "10.5";
    object      alpha_0;
}
// * * * * * * * * * * * * * * * * * * * * * * * * * * * * * * * * * * * * * //

dimensions      [0 0 0 0 0 0 0];

internalField   nonuniform List<scalar> 
360
(
0.610888
0.611753
0.611843
0.611753
0.611711
0.611697
0.61168
0.611658
0.611636
0.611613
0.61159
0.611567
0.611544
0.611521
0.611498
0.611474
0.61145
0.611426
0.611401
0.611376
0.611352
0.611326
0.611301
0.611275
0.611249
0.611223
0.611196
0.611169
0.611142
0.611115
0.611087
0.611059
0.611031
0.611002
0.610973
0.610943
0.610914
0.610884
0.610853
0.610823
0.610792
0.610761
0.610729
0.610697
0.610665
0.610632
0.610598
0.610565
0.610531
0.610497
0.610462
0.610427
0.610391
0.610355
0.610319
0.610282
0.610245
0.610207
0.610168
0.61013
0.61009
0.610051
0.61001
0.609969
0.609928
0.609886
0.609843
0.6098
0.609757
0.609712
0.609667
0.609622
0.609576
0.609529
0.609481
0.609433
0.609384
0.609334
0.609284
0.609232
0.60918
0.609127
0.609073
0.609019
0.608963
0.608907
0.608849
0.608791
0.608731
0.608671
0.608609
0.608546
0.608482
0.608417
0.608351
0.608283
0.608214
0.608144
0.608072
0.607998
0.607924
0.607847
0.607769
0.607689
0.607607
0.607524
0.607438
0.607351
0.607261
0.60717
0.607076
0.606979
0.60688
0.606779
0.606675
0.606567
0.606457
0.606344
0.606228
0.606108
0.605985
0.605857
0.605726
0.60559
0.60545
0.605304
0.605154
0.604998
0.604835
0.604666
0.604491
0.604308
0.604117
0.603916
0.603702
0.603476
0.603237
0.602983
0.602701
0.602378
0.602028
0.601624
0.598617
0.598953
0.598391
0.597439
0.596411
0.595241
0.593081
0.473892
0.121085
0.0481154
0.0276728
0.0192951
0.0150164
0.0124116
0.0106368
0.00933769
0.00833658
0.00753411
0.006871
0.00630985
0.00582585
0.00540192
0.00502589
0.00468887
0.00438419
0.00410674
0.00385257
0.00361851
0.00340204
0.00320109
0.00301396
0.00283923
0.00267569
0.00252233
0.00237827
0.00224274
0.00211508
0.0019947
0.00188108
0.00177376
0.00167231
0.00157637
0.00148557
0.00139962
0.00131823
0.00124111
0.00116804
0.00109877
0.0010331
0.000970814
0.000911727
0.000855657
0.000802434
0.000751898
0.0007039
0.000658303
0.000614986
0.000573844
0.000534791
0.000497387
0.000461313
0.000426649
0.000393489
0.000361934
0.000332079
0.000303997
0.000277727
0.000253265
0.000230559
0.000209511
0.000189988
0.000171841
0.000154916
0.000139077
0.000124214
0.000110259
9.71959e-05
8.50509e-05
7.38814e-05
6.37477e-05
5.46872e-05
4.66954e-05
3.97269e-05
3.36954e-05
2.85141e-05
2.40423e-05
2.02495e-05
1.69233e-05
1.41849e-05
1.16828e-05
9.77548e-06
7.8588e-06
6.62141e-06
5.16986e-06
5.084e-06
3.98745e-06
2.86111e-06
2.01524e-06
1.39311e-06
9.45257e-07
6.30196e-07
4.11798e-07
2.66171e-07
1.65799e-07
1.04852e-07
5.97087e-08
3.69483e-08
1.64821e-08
9.05388e-09
1.56463e-10
2.1118e-23
3.04007e-35
4.58065e-46
6.35155e-50
1.87249e-51
5.0856e-55
1.53829e-56
3.89087e-60
1.30847e-61
5.00597e-63
2.48668e-63
1.22556e-63
5.9476e-64
2.83922e-64
1.33252e-64
6.14522e-65
2.78322e-65
1.23724e-65
5.39491e-66
2.30601e-66
9.65581e-67
3.95783e-67
1.58666e-67
6.21522e-68
2.37755e-68
8.87438e-69
3.22901e-69
1.14416e-69
3.94385e-70
1.3209e-70
4.29334e-71
1.35245e-71
4.1231e-72
1.21459e-72
3.45147e-73
9.44399e-74
2.4832e-74
6.26065e-75
1.50982e-75
3.47348e-76
7.60048e-77
1.57652e-77
3.08815e-78
5.6882e-79
9.80361e-80
1.572e-80
2.32953e-81
3.16498e-82
3.90466e-83
4.32264e-84
4.23008e-85
3.58822e-86
2.56904e-87
1.49404e-88
6.6458e-90
2.02956e-91
3.29758e-93
4.40353e-96
1.87081e-102
1.20031e-104
3.81125e-107
1.54203e-117
3.18672e-128
4.95414e-139
5.62061e-150
5.57559e-161
4.28686e-172
2.84728e-183
5.84773e-194
2.54236e-204
1.47363e-212
7.29546e-223
5.06798e-231
2.97785e-241
1.7449e-249
1.26174e-259
6.01723e-268
8.11856e-278
2.13243e-286
5.39485e-296
7.86925e-305
2.68151e-314
3.81419e-321
7.83094e-321
2.51973e-321
8.86848e-321
4.57737e-319
2.8055e-319
6.80328e-321
7.09478e-321
6.08689e-321
8.5424e-321
0
0
0
0
0
0
0
0
0
0
0
0
0
0
0
0
)
;

boundaryField
{
    inandouthalf11
    {
        type            cyclic;
    }
    inandouthalf12
    {
        type            cyclic;
    }
    inandouthalf21
    {
        type            cyclic;
    }
    inandouthalf22
    {
        type            cyclic;
    }
    inandouthalf31
    {
        type            cyclic;
    }
    inandouthalf32
    {
        type            cyclic;
    }
    inandouthalf41
    {
        type            cyclic;
    }
    inandouthalf42
    {
        type            cyclic;
    }
    top
    {
        type            symmetryPlane;
    }
    walls
    {
        type            zeroGradient;
    }
    frontAndBackPlanes
    {
        type            empty;
    }
}


// ************************************************************************* //
