/*--------------------------------*- C++ -*----------------------------------*\
| =========                 |                                                 |
| \\      /  F ield         | OpenFOAM: The Open Source CFD Toolbox           |
|  \\    /   O peration     | Version:  2.4.x                                 |
|   \\  /    A nd           | Web:      www.OpenFOAM.org                      |
|    \\/     M anipulation  |                                                 |
\*---------------------------------------------------------------------------*/
FoamFile
{
    version     2.0;
    format      ascii;
    class       surfaceScalarField;
    location    "10.5";
    object      ddt0(phia);
}
// * * * * * * * * * * * * * * * * * * * * * * * * * * * * * * * * * * * * * //

dimensions      [0 3 -2 0 0 0 0];

internalField   nonuniform List<scalar> 
359
(
1.47101e-14
3.61923e-14
5.30903e-14
6.64881e-14
7.84618e-14
8.95162e-14
9.9874e-14
1.09886e-13
1.19921e-13
1.30291e-13
1.41239e-13
1.52944e-13
1.6554e-13
1.79124e-13
1.93765e-13
2.09508e-13
2.26381e-13
2.44392e-13
2.63538e-13
2.8381e-13
3.05184e-13
3.27641e-13
3.51154e-13
3.75693e-13
4.01228e-13
4.27727e-13
4.55156e-13
4.83489e-13
5.12691e-13
5.42731e-13
5.73577e-13
6.05208e-13
6.37581e-13
6.70688e-13
7.04488e-13
7.38962e-13
7.74081e-13
8.09828e-13
8.46185e-13
8.83111e-13
9.20607e-13
9.58644e-13
9.97189e-13
1.03624e-12
1.07578e-12
1.11578e-12
1.15622e-12
1.19707e-12
1.23832e-12
1.27997e-12
1.32198e-12
1.36433e-12
1.40699e-12
1.44997e-12
1.49322e-12
1.53675e-12
1.5805e-12
1.62447e-12
1.66863e-12
1.71295e-12
1.75742e-12
1.80202e-12
1.84673e-12
1.89152e-12
1.93637e-12
1.98125e-12
2.02613e-12
2.071e-12
2.11583e-12
2.16056e-12
2.20522e-12
2.24977e-12
2.29418e-12
2.33843e-12
2.3825e-12
2.42639e-12
2.47004e-12
2.51343e-12
2.55654e-12
2.59935e-12
2.64182e-12
2.68394e-12
2.7257e-12
2.76708e-12
2.80806e-12
2.84863e-12
2.88876e-12
2.92843e-12
2.9676e-12
3.00627e-12
3.0444e-12
3.08198e-12
3.11901e-12
3.15547e-12
3.19135e-12
3.22665e-12
3.26137e-12
3.29548e-12
3.329e-12
3.3619e-12
3.39418e-12
3.42583e-12
3.45684e-12
3.48719e-12
3.51686e-12
3.54582e-12
3.57404e-12
3.60147e-12
3.62807e-12
3.65382e-12
3.67868e-12
3.70264e-12
3.72572e-12
3.74796e-12
3.76943e-12
3.79025e-12
3.81058e-12
3.83055e-12
3.85031e-12
3.86993e-12
3.88937e-12
3.90843e-12
3.92666e-12
3.9434e-12
3.95775e-12
3.96861e-12
3.97473e-12
3.97481e-12
3.96751e-12
3.9516e-12
3.92613e-12
3.89096e-12
3.84763e-12
3.80058e-12
3.75806e-12
3.73065e-12
3.72517e-12
3.73746e-12
3.75397e-12
3.7637e-12
3.7663e-12
3.76632e-12
-7.155e-12
-2.36187e-11
-4.32495e-11
-6.8278e-11
-1.10359e-10
-1.55494e-10
4.04492e-10
5.459e-08
1.06103e-07
1.37833e-07
1.48164e-07
1.38397e-07
1.21205e-07
1.02584e-07
8.46125e-08
6.79007e-08
5.27502e-08
3.92196e-08
2.72441e-08
1.67074e-08
7.4735e-09
-5.96605e-10
-7.63582e-09
-1.37665e-08
-1.90989e-08
-2.37312e-08
-2.77497e-08
-3.12302e-08
-3.4239e-08
-3.68339e-08
-3.90655e-08
-4.09778e-08
-4.26095e-08
-4.39943e-08
-4.51619e-08
-4.61383e-08
-4.69465e-08
-4.76065e-08
-4.81363e-08
-4.85515e-08
-4.88661e-08
-4.90922e-08
-4.92406e-08
-4.93207e-08
-4.93408e-08
-4.93078e-08
-4.92278e-08
-4.91058e-08
-4.89455e-08
-4.87498e-08
-4.85203e-08
-4.82575e-08
-4.79606e-08
-4.76277e-08
-4.7256e-08
-4.68421e-08
-4.63834e-08
-4.58787e-08
-4.53301e-08
-4.47319e-08
-4.40953e-08
-4.3441e-08
-4.27992e-08
-4.22091e-08
-4.17146e-08
-4.13572e-08
-4.11663e-08
-4.1148e-08
-4.12807e-08
-4.15215e-08
-4.18218e-08
-4.21364e-08
-4.24249e-08
-4.26485e-08
-4.27689e-08
-4.27492e-08
-4.2559e-08
-4.21794e-08
-4.16079e-08
-4.08589e-08
-3.99609e-08
-3.89489e-08
-3.78611e-08
-3.67277e-08
-3.55814e-08
-3.44329e-08
-3.3311e-08
-3.22035e-08
-3.11424e-08
-3.00958e-08
-2.90821e-08
-2.80867e-08
-2.69756e-08
-2.5447e-08
-1.57407e-08
-1.21882e-08
-8.46743e-09
-1.77912e-09
5.62707e-09
1.34478e-08
2.02772e-08
2.78792e-08
3.275e-08
3.75454e-08
4.26077e-08
4.44385e-08
5.53724e-08
3.90274e-08
4.05734e-09
-2.46678e-08
-6.47375e-10
3.54205e-10
-1.74222e-10
-1.10616e-10
-9.40712e-11
-7.93022e-11
-6.87166e-11
-6.15811e-11
-5.74712e-11
-5.60335e-11
-5.69942e-11
-6.01534e-11
-6.53824e-11
-7.26246e-11
-8.19035e-11
-9.33533e-11
-1.07309e-10
-1.24557e-10
-1.48292e-10
-1.7494e-10
-2.98552e-10
-2.27346e-10
-1.32636e-10
-1.31468e-10
-1.31767e-10
-1.3177e-10
-1.31771e-10
-1.31771e-10
-1.31771e-10
-1.31771e-10
-1.31771e-10
-1.31771e-10
-1.31771e-10
-1.31771e-10
-1.31771e-10
-1.31771e-10
-1.31771e-10
-1.31771e-10
-1.31771e-10
-1.31771e-10
-1.31771e-10
-1.31771e-10
-1.31771e-10
-1.31771e-10
-1.31771e-10
-1.31771e-10
-1.31771e-10
-1.31771e-10
-1.31771e-10
-1.31771e-10
-1.31771e-10
-1.31771e-10
-1.31771e-10
-1.31771e-10
-1.31771e-10
-1.31771e-10
-1.31771e-10
-1.31771e-10
-1.31771e-10
-1.31771e-10
-1.31771e-10
-1.31771e-10
-1.31771e-10
-1.31771e-10
-1.31771e-10
-1.31771e-10
-1.31771e-10
-1.31771e-10
-1.31771e-10
-1.31771e-10
-1.31771e-10
-1.31771e-10
-1.31771e-10
-1.31771e-10
-1.31771e-10
-1.31771e-10
-1.31771e-10
-1.31771e-10
-1.31771e-10
-1.31771e-10
-1.31771e-10
-1.31771e-10
-1.31771e-10
-1.31771e-10
-1.31771e-10
-1.31771e-10
-1.31771e-10
-1.31771e-10
-1.31771e-10
-1.31771e-10
-1.31771e-10
-1.31771e-10
-1.31771e-10
-1.31771e-10
-1.31771e-10
-1.31771e-10
-1.31771e-10
-1.31771e-10
-1.31771e-10
-1.31771e-10
-1.31771e-10
-1.31771e-10
-1.31771e-10
-1.31774e-10
-1.31837e-10
-1.33233e-10
-1.98972e-10
)
;

boundaryField
{
    inandouthalf11
    {
        type            cyclic;
        value           nonuniform List<scalar> 
100
(
2.06074e-38
2.49883e-15
5.31716e-15
7.94439e-15
1.06651e-14
1.34952e-14
1.63327e-14
1.91227e-14
2.18479e-14
2.45001e-14
2.7073e-14
2.95619e-14
3.19646e-14
3.42812e-14
3.65146e-14
3.86696e-14
4.07523e-14
4.27696e-14
4.47287e-14
4.66371e-14
4.85026e-14
5.03328e-14
5.21353e-14
5.39177e-14
5.56868e-14
5.74495e-14
5.92119e-14
6.09803e-14
6.27602e-14
6.45568e-14
6.63749e-14
6.8219e-14
7.00931e-14
7.20011e-14
7.39464e-14
7.59319e-14
7.79606e-14
8.00349e-14
8.21574e-14
8.43299e-14
8.65542e-14
8.88323e-14
9.11653e-14
9.35546e-14
9.60017e-14
9.85075e-14
1.01073e-13
1.03698e-13
1.06385e-13
1.09133e-13
1.11943e-13
1.14816e-13
1.17752e-13
1.20752e-13
1.23814e-13
1.26941e-13
1.30131e-13
1.33385e-13
1.36703e-13
1.40083e-13
1.43527e-13
1.47033e-13
1.50603e-13
1.54235e-13
1.5793e-13
1.61685e-13
1.65501e-13
1.69378e-13
1.73314e-13
1.77307e-13
1.81357e-13
1.85465e-13
1.89628e-13
1.93846e-13
1.98117e-13
2.02443e-13
2.0682e-13
2.11246e-13
2.1572e-13
2.2024e-13
2.24805e-13
2.29413e-13
2.34063e-13
2.38754e-13
2.43485e-13
2.48253e-13
2.53058e-13
2.57897e-13
2.62767e-13
2.67666e-13
2.72593e-13
2.77544e-13
2.82519e-13
2.87516e-13
2.92533e-13
2.97569e-13
3.02624e-13
3.07694e-13
3.12777e-13
3.17874e-13
)
;
    }
    inandouthalf12
    {
        type            cyclic;
        value           nonuniform List<scalar> 
100
(
-2.06074e-38
-2.49883e-15
-5.31716e-15
-7.94439e-15
-1.06651e-14
-1.34952e-14
-1.63327e-14
-1.91227e-14
-2.18479e-14
-2.45001e-14
-2.7073e-14
-2.95619e-14
-3.19646e-14
-3.42812e-14
-3.65146e-14
-3.86696e-14
-4.07523e-14
-4.27696e-14
-4.47287e-14
-4.66371e-14
-4.85026e-14
-5.03328e-14
-5.21353e-14
-5.39177e-14
-5.56868e-14
-5.74495e-14
-5.92119e-14
-6.09803e-14
-6.27602e-14
-6.45568e-14
-6.63749e-14
-6.8219e-14
-7.00931e-14
-7.20011e-14
-7.39464e-14
-7.59319e-14
-7.79606e-14
-8.00349e-14
-8.21574e-14
-8.43299e-14
-8.65542e-14
-8.88323e-14
-9.11653e-14
-9.35546e-14
-9.60017e-14
-9.85075e-14
-1.01073e-13
-1.03698e-13
-1.06385e-13
-1.09133e-13
-1.11943e-13
-1.14816e-13
-1.17752e-13
-1.20752e-13
-1.23814e-13
-1.26941e-13
-1.30131e-13
-1.33385e-13
-1.36703e-13
-1.40083e-13
-1.43527e-13
-1.47033e-13
-1.50603e-13
-1.54235e-13
-1.5793e-13
-1.61685e-13
-1.65501e-13
-1.69378e-13
-1.73314e-13
-1.77307e-13
-1.81357e-13
-1.85465e-13
-1.89628e-13
-1.93846e-13
-1.98117e-13
-2.02443e-13
-2.0682e-13
-2.11246e-13
-2.1572e-13
-2.2024e-13
-2.24805e-13
-2.29413e-13
-2.34063e-13
-2.38754e-13
-2.43485e-13
-2.48253e-13
-2.53058e-13
-2.57897e-13
-2.62767e-13
-2.67666e-13
-2.72593e-13
-2.77544e-13
-2.82519e-13
-2.87516e-13
-2.92533e-13
-2.97569e-13
-3.02624e-13
-3.07694e-13
-3.12777e-13
-3.17874e-13
)
;
    }
    inandouthalf21
    {
        type            cyclic;
        value           nonuniform List<scalar> 
100
(
3.2298e-13
3.28097e-13
3.33223e-13
3.38358e-13
3.43503e-13
3.48659e-13
3.53829e-13
3.59017e-13
3.64225e-13
3.69459e-13
3.74725e-13
3.80029e-13
3.85377e-13
3.90775e-13
3.96229e-13
4.01742e-13
4.07317e-13
4.12954e-13
4.18651e-13
4.24403e-13
4.30202e-13
4.3604e-13
4.41907e-13
4.47792e-13
4.5369e-13
4.596e-13
4.65536e-13
4.71525e-13
4.77617e-13
4.83888e-13
4.90438e-13
4.97394e-13
5.04922e-13
5.13227e-13
5.22516e-13
5.32826e-13
5.43685e-13
5.53798e-13
5.61344e-13
5.65242e-13
5.66346e-13
5.66568e-13
5.6671e-13
4.26249e-12
1.01391e-11
1.84099e-11
3.29281e-11
6.69012e-11
2.28369e-10
2.74368e-08
3.39102e-07
6.09372e-07
7.32585e-07
8.0346e-07
8.53408e-07
8.91958e-07
9.23755e-07
9.51112e-07
9.75289e-07
9.97038e-07
1.01684e-06
1.03502e-06
1.05181e-06
1.0674e-06
1.08191e-06
1.09547e-06
1.10816e-06
1.12007e-06
1.13126e-06
1.14179e-06
1.15172e-06
1.16109e-06
1.16995e-06
1.17833e-06
1.18626e-06
1.19379e-06
1.20094e-06
1.20773e-06
1.2142e-06
1.22036e-06
1.22623e-06
1.23184e-06
1.2372e-06
1.24233e-06
1.24724e-06
1.25195e-06
1.25647e-06
1.26081e-06
1.26499e-06
1.269e-06
1.27286e-06
1.27657e-06
1.28015e-06
1.2836e-06
1.28692e-06
1.29011e-06
1.29319e-06
1.29615e-06
1.299e-06
1.30173e-06
)
;
    }
    inandouthalf22
    {
        type            cyclic;
        value           nonuniform List<scalar> 
100
(
-3.2298e-13
-3.28097e-13
-3.33223e-13
-3.38358e-13
-3.43503e-13
-3.48659e-13
-3.53829e-13
-3.59017e-13
-3.64225e-13
-3.69459e-13
-3.74725e-13
-3.80029e-13
-3.85377e-13
-3.90775e-13
-3.96229e-13
-4.01742e-13
-4.07317e-13
-4.12954e-13
-4.18651e-13
-4.24403e-13
-4.30202e-13
-4.3604e-13
-4.41907e-13
-4.47792e-13
-4.5369e-13
-4.596e-13
-4.65536e-13
-4.71525e-13
-4.77617e-13
-4.83888e-13
-4.90438e-13
-4.97394e-13
-5.04922e-13
-5.13227e-13
-5.22516e-13
-5.32826e-13
-5.43685e-13
-5.53798e-13
-5.61344e-13
-5.65242e-13
-5.66346e-13
-5.66568e-13
-5.6671e-13
-4.26249e-12
-1.01391e-11
-1.84099e-11
-3.29281e-11
-6.69012e-11
-2.28369e-10
-2.74368e-08
-3.39102e-07
-6.09372e-07
-7.32585e-07
-8.0346e-07
-8.53408e-07
-8.91958e-07
-9.23755e-07
-9.51112e-07
-9.75289e-07
-9.97038e-07
-1.01684e-06
-1.03502e-06
-1.05181e-06
-1.0674e-06
-1.08191e-06
-1.09547e-06
-1.10816e-06
-1.12007e-06
-1.13126e-06
-1.14179e-06
-1.15172e-06
-1.16109e-06
-1.16995e-06
-1.17833e-06
-1.18626e-06
-1.19379e-06
-1.20094e-06
-1.20773e-06
-1.2142e-06
-1.22036e-06
-1.22623e-06
-1.23184e-06
-1.2372e-06
-1.24233e-06
-1.24724e-06
-1.25195e-06
-1.25647e-06
-1.26081e-06
-1.26499e-06
-1.269e-06
-1.27286e-06
-1.27657e-06
-1.28015e-06
-1.2836e-06
-1.28692e-06
-1.29011e-06
-1.29319e-06
-1.29615e-06
-1.299e-06
-1.30173e-06
)
;
    }
    inandouthalf31
    {
        type            cyclic;
        value           nonuniform List<scalar> 
110
(
1.30437e-06
1.33344e-06
1.36309e-06
1.39334e-06
1.42418e-06
1.45563e-06
1.4877e-06
1.52039e-06
1.55372e-06
1.58769e-06
1.62231e-06
1.6576e-06
1.69354e-06
1.73016e-06
1.76745e-06
1.80541e-06
1.84404e-06
1.88335e-06
1.92335e-06
1.96404e-06
2.00544e-06
2.04756e-06
2.09042e-06
2.13404e-06
2.17844e-06
2.22365e-06
2.26968e-06
2.31656e-06
2.36431e-06
2.41295e-06
2.4625e-06
2.51298e-06
2.56442e-06
2.61685e-06
2.67029e-06
2.72481e-06
2.78044e-06
2.84663e-06
2.90111e-06
2.95124e-06
3.00139e-06
3.05182e-06
3.10258e-06
3.15423e-06
3.20671e-06
3.26037e-06
3.3165e-06
3.37278e-06
3.43407e-06
3.49259e-06
3.55798e-06
3.62331e-06
3.68937e-06
3.75797e-06
3.82946e-06
3.90272e-06
3.97791e-06
4.055e-06
4.13402e-06
4.215e-06
4.29797e-06
4.38296e-06
4.47003e-06
4.55922e-06
4.65059e-06
4.74421e-06
4.84017e-06
4.93853e-06
5.0394e-06
5.1429e-06
5.24915e-06
5.35834e-06
5.47073e-06
5.58845e-06
5.70496e-06
5.82094e-06
5.93909e-06
6.05964e-06
6.18263e-06
6.30813e-06
6.43616e-06
6.5668e-06
6.70009e-06
6.83608e-06
6.97484e-06
7.11641e-06
7.26085e-06
7.40823e-06
7.5586e-06
7.71201e-06
7.86855e-06
8.02826e-06
8.19121e-06
8.35747e-06
8.5271e-06
8.70018e-06
8.87677e-06
9.05695e-06
9.24078e-06
9.42834e-06
9.61971e-06
9.81497e-06
1.00142e-05
1.02174e-05
1.04248e-05
1.06364e-05
1.08523e-05
1.10726e-05
1.12973e-05
1.15266e-05
)
;
    }
    inandouthalf32
    {
        type            cyclic;
        value           nonuniform List<scalar> 
110
(
-1.30437e-06
-1.33344e-06
-1.36309e-06
-1.39334e-06
-1.42418e-06
-1.45563e-06
-1.4877e-06
-1.52039e-06
-1.55372e-06
-1.58769e-06
-1.62231e-06
-1.6576e-06
-1.69354e-06
-1.73016e-06
-1.76745e-06
-1.80541e-06
-1.84404e-06
-1.88335e-06
-1.92335e-06
-1.96404e-06
-2.00544e-06
-2.04756e-06
-2.09042e-06
-2.13404e-06
-2.17844e-06
-2.22365e-06
-2.26968e-06
-2.31656e-06
-2.36431e-06
-2.41295e-06
-2.4625e-06
-2.51298e-06
-2.56442e-06
-2.61685e-06
-2.67029e-06
-2.72481e-06
-2.78044e-06
-2.84663e-06
-2.90111e-06
-2.95124e-06
-3.00139e-06
-3.05182e-06
-3.10258e-06
-3.15423e-06
-3.20671e-06
-3.26037e-06
-3.3165e-06
-3.37278e-06
-3.43407e-06
-3.49259e-06
-3.55798e-06
-3.62331e-06
-3.68937e-06
-3.75797e-06
-3.82946e-06
-3.90272e-06
-3.97791e-06
-4.055e-06
-4.13402e-06
-4.215e-06
-4.29797e-06
-4.38296e-06
-4.47003e-06
-4.55922e-06
-4.65059e-06
-4.74421e-06
-4.84017e-06
-4.93853e-06
-5.0394e-06
-5.1429e-06
-5.24915e-06
-5.35834e-06
-5.47073e-06
-5.58845e-06
-5.70496e-06
-5.82094e-06
-5.93909e-06
-6.05964e-06
-6.18263e-06
-6.30813e-06
-6.43616e-06
-6.5668e-06
-6.70009e-06
-6.83608e-06
-6.97484e-06
-7.11641e-06
-7.26085e-06
-7.40823e-06
-7.5586e-06
-7.71201e-06
-7.86855e-06
-8.02826e-06
-8.19121e-06
-8.35747e-06
-8.5271e-06
-8.70018e-06
-8.87677e-06
-9.05695e-06
-9.24078e-06
-9.42834e-06
-9.61971e-06
-9.81497e-06
-1.00142e-05
-1.02174e-05
-1.04248e-05
-1.06364e-05
-1.08523e-05
-1.10726e-05
-1.12973e-05
-1.15266e-05
)
;
    }
    inandouthalf41
    {
        type            cyclic;
        value           nonuniform List<scalar> 
50
(
1.03175e-05
1.03175e-05
1.03175e-05
1.03175e-05
1.03175e-05
1.03175e-05
1.03175e-05
1.03175e-05
1.03175e-05
1.03175e-05
1.03175e-05
1.03175e-05
1.03175e-05
1.03175e-05
1.03175e-05
1.03175e-05
1.03175e-05
1.03175e-05
1.03175e-05
1.03175e-05
1.03175e-05
1.03175e-05
1.03175e-05
1.03175e-05
1.03175e-05
1.03175e-05
1.03175e-05
1.03175e-05
1.03175e-05
1.03175e-05
1.03175e-05
1.03175e-05
1.03175e-05
1.03175e-05
1.03175e-05
1.03175e-05
1.03175e-05
1.03175e-05
1.03175e-05
1.03175e-05
1.03175e-05
1.03175e-05
1.03175e-05
1.03175e-05
1.03175e-05
1.03175e-05
1.03175e-05
1.03175e-05
1.03176e-05
1.03188e-05
)
;
    }
    inandouthalf42
    {
        type            cyclic;
        value           nonuniform List<scalar> 
50
(
-1.03175e-05
-1.03175e-05
-1.03175e-05
-1.03175e-05
-1.03175e-05
-1.03175e-05
-1.03175e-05
-1.03175e-05
-1.03175e-05
-1.03175e-05
-1.03175e-05
-1.03175e-05
-1.03175e-05
-1.03175e-05
-1.03175e-05
-1.03175e-05
-1.03175e-05
-1.03175e-05
-1.03175e-05
-1.03175e-05
-1.03175e-05
-1.03175e-05
-1.03175e-05
-1.03175e-05
-1.03175e-05
-1.03175e-05
-1.03175e-05
-1.03175e-05
-1.03175e-05
-1.03175e-05
-1.03175e-05
-1.03175e-05
-1.03175e-05
-1.03175e-05
-1.03175e-05
-1.03175e-05
-1.03175e-05
-1.03175e-05
-1.03175e-05
-1.03175e-05
-1.03175e-05
-1.03175e-05
-1.03175e-05
-1.03175e-05
-1.03175e-05
-1.03175e-05
-1.03175e-05
-1.03175e-05
-1.03176e-05
-1.03188e-05
)
;
    }
    top
    {
        type            symmetryPlane;
        value           uniform 0;
    }
    walls
    {
        type            calculated;
        value           uniform 0;
    }
    frontAndBackPlanes
    {
        type            empty;
        value           nonuniform 0();
    }
}


// ************************************************************************* //
