/*--------------------------------*- C++ -*----------------------------------*\
| =========                 |                                                 |
| \\      /  F ield         | OpenFOAM: The Open Source CFD Toolbox           |
|  \\    /   O peration     | Version:  2.4.x                                 |
|   \\  /    A nd           | Web:      www.OpenFOAM.org                      |
|    \\/     M anipulation  |                                                 |
\*---------------------------------------------------------------------------*/
FoamFile
{
    version     2.0;
    format      ascii;
    class       volVectorField;
    location    "10.5";
    object      ddt0(Ua);
}
// * * * * * * * * * * * * * * * * * * * * * * * * * * * * * * * * * * * * * //

dimensions      [0 1 -2 0 0 0 0];

internalField   nonuniform List<vector> 
360
(
(-2.06074e-32 4.30341e-33 0)
(-2.49883e-09 6.86595e-09 0)
(-5.31716e-09 1.16106e-08 0)
(-7.94439e-09 1.50651e-08 0)
(-1.06651e-08 1.8169e-08 0)
(-1.34952e-08 2.10488e-08 0)
(-1.63327e-08 2.37087e-08 0)
(-1.91227e-08 2.62297e-08 0)
(-2.18479e-08 2.87135e-08 0)
(-2.45001e-08 3.1247e-08 0)
(-2.7073e-08 3.38986e-08 0)
(-2.95619e-08 3.67206e-08 0)
(-3.19646e-08 3.97512e-08 0)
(-3.42812e-08 4.30187e-08 0)
(-3.65146e-08 4.65433e-08 0)
(-3.86696e-08 5.0339e-08 0)
(-4.07523e-08 5.4415e-08 0)
(-4.27696e-08 5.87754e-08 0)
(-4.47287e-08 6.34205e-08 0)
(-4.66371e-08 6.83488e-08 0)
(-4.85026e-08 7.35559e-08 0)
(-5.03328e-08 7.90363e-08 0)
(-5.21353e-08 8.47842e-08 0)
(-5.39177e-08 9.07925e-08 0)
(-5.56868e-08 9.70538e-08 0)
(-5.74495e-08 1.0356e-07 0)
(-5.92119e-08 1.10303e-07 0)
(-6.09803e-08 1.17275e-07 0)
(-6.27602e-08 1.24469e-07 0)
(-6.45568e-08 1.31876e-07 0)
(-6.63749e-08 1.39489e-07 0)
(-6.8219e-08 1.473e-07 0)
(-7.00931e-08 1.55302e-07 0)
(-7.20011e-08 1.63489e-07 0)
(-7.39464e-08 1.71854e-07 0)
(-7.59319e-08 1.8039e-07 0)
(-7.79606e-08 1.89091e-07 0)
(-8.00349e-08 1.9795e-07 0)
(-8.21574e-08 2.06965e-07 0)
(-8.43299e-08 2.16126e-07 0)
(-8.65542e-08 2.2543e-07 0)
(-8.88323e-08 2.34873e-07 0)
(-9.11653e-08 2.44447e-07 0)
(-9.35546e-08 2.54148e-07 0)
(-9.60017e-08 2.63973e-07 0)
(-9.85075e-08 2.73916e-07 0)
(-1.01073e-07 2.83973e-07 0)
(-1.03698e-07 2.94136e-07 0)
(-1.06385e-07 3.04399e-07 0)
(-1.09133e-07 3.14763e-07 0)
(-1.11943e-07 3.25222e-07 0)
(-1.14816e-07 3.35767e-07 0)
(-1.17752e-07 3.46396e-07 0)
(-1.20752e-07 3.57103e-07 0)
(-1.23814e-07 3.67882e-07 0)
(-1.26941e-07 3.7873e-07 0)
(-1.30131e-07 3.89641e-07 0)
(-1.33385e-07 4.00608e-07 0)
(-1.36703e-07 4.11627e-07 0)
(-1.40083e-07 4.22688e-07 0)
(-1.43527e-07 4.33787e-07 0)
(-1.47033e-07 4.44923e-07 0)
(-1.50603e-07 4.56087e-07 0)
(-1.54235e-07 4.67276e-07 0)
(-1.5793e-07 4.78483e-07 0)
(-1.61685e-07 4.897e-07 0)
(-1.65501e-07 5.00922e-07 0)
(-1.69378e-07 5.12144e-07 0)
(-1.73314e-07 5.23358e-07 0)
(-1.77307e-07 5.34554e-07 0)
(-1.81357e-07 5.45729e-07 0)
(-1.85465e-07 5.56882e-07 0)
(-1.89628e-07 5.68003e-07 0)
(-1.93846e-07 5.79086e-07 0)
(-1.98117e-07 5.90128e-07 0)
(-2.02443e-07 6.01125e-07 0)
(-2.0682e-07 6.12069e-07 0)
(-2.11246e-07 6.22951e-07 0)
(-2.1572e-07 6.33765e-07 0)
(-2.2024e-07 6.44506e-07 0)
(-2.24805e-07 6.55167e-07 0)
(-2.29413e-07 6.65742e-07 0)
(-2.34063e-07 6.76228e-07 0)
(-2.38754e-07 6.86622e-07 0)
(-2.43485e-07 6.96918e-07 0)
(-2.48253e-07 7.07114e-07 0)
(-2.53058e-07 7.17202e-07 0)
(-2.57897e-07 7.27178e-07 0)
(-2.62767e-07 7.37035e-07 0)
(-2.67666e-07 7.46766e-07 0)
(-2.72593e-07 7.56367e-07 0)
(-2.77544e-07 7.65832e-07 0)
(-2.82519e-07 7.75159e-07 0)
(-2.87516e-07 7.84345e-07 0)
(-2.92533e-07 7.93388e-07 0)
(-2.97569e-07 8.02287e-07 0)
(-3.02624e-07 8.11039e-07 0)
(-3.07694e-07 8.19644e-07 0)
(-3.12777e-07 8.28098e-07 0)
(-3.17874e-07 8.36401e-07 0)
(-3.2298e-07 8.44549e-07 0)
(-3.28097e-07 8.52542e-07 0)
(-3.33223e-07 8.60375e-07 0)
(-3.38358e-07 8.68047e-07 0)
(-3.43503e-07 8.75551e-07 0)
(-3.48659e-07 8.82881e-07 0)
(-3.53829e-07 8.9003e-07 0)
(-3.59017e-07 8.96988e-07 0)
(-3.64225e-07 9.03745e-07 0)
(-3.69459e-07 9.10292e-07 0)
(-3.74725e-07 9.16619e-07 0)
(-3.80029e-07 9.22722e-07 0)
(-3.85377e-07 9.286e-07 0)
(-3.90775e-07 9.3426e-07 0)
(-3.96229e-07 9.39718e-07 0)
(-4.01742e-07 9.44997e-07 0)
(-4.07317e-07 9.50131e-07 0)
(-4.12954e-07 9.55158e-07 0)
(-4.18651e-07 9.60117e-07 0)
(-4.24403e-07 9.65038e-07 0)
(-4.30202e-07 9.69928e-07 0)
(-4.3604e-07 9.74759e-07 0)
(-4.41907e-07 9.79454e-07 0)
(-4.47792e-07 9.83876e-07 0)
(-4.5369e-07 9.87826e-07 0)
(-4.596e-07 9.9105e-07 0)
(-4.65536e-07 9.93252e-07 0)
(-4.71525e-07 9.94111e-07 0)
(-4.77617e-07 9.93292e-07 0)
(-4.83888e-07 9.90464e-07 0)
(-4.90438e-07 9.85335e-07 0)
(-4.97394e-07 9.77728e-07 0)
(-5.04922e-07 9.67752e-07 0)
(-5.13227e-07 9.56066e-07 0)
(-5.22516e-07 9.44225e-07 0)
(-5.32826e-07 9.34803e-07 0)
(-5.43685e-07 9.30521e-07 0)
(-5.53798e-07 9.32055e-07 0)
(-5.61344e-07 9.36669e-07 0)
(-5.65242e-07 9.4033e-07 0)
(-5.66346e-07 9.41519e-07 0)
(-5.66568e-07 9.41603e-07 0)
(-5.6671e-07 9.41603e-07 0)
(-4.26249e-06 -3.84444e-06 0)
(-1.01391e-05 -8.40858e-06 0)
(-1.84099e-05 -1.37344e-05 0)
(-3.29281e-05 -2.09669e-05 0)
(-6.69012e-05 -2.80637e-05 0)
(-0.000228369 -1.99099e-05 0)
(-0.0274368 0.000263452 0)
(-0.339102 0.0253051 0)
(-0.609372 0.032975 0)
(-0.732585 0.0362054 0)
(-0.80346 0.0363847 0)
(-0.853408 0.0325542 0)
(-0.891958 0.027958 0)
(-0.923755 0.0233255 0)
(-0.951112 0.0189683 0)
(-0.975289 0.0149824 0)
(-0.997038 0.0114004 0)
(-1.01684 0.0082184 0)
(-1.03502 0.00541223 0)
(-1.05181 0.0029492 0)
(-1.0674 0.000794278 0)
(-1.08191 -0.00108685 0)
(-1.09547 -0.00272622 0)
(-1.10816 -0.00415297 0)
(-1.12007 -0.0053931 0)
(-1.13126 -0.00646964 0)
(-1.14179 -0.0074028 0)
(-1.15172 -0.00821027 0)
(-1.16109 -0.0089075 0)
(-1.16995 -0.00950799 0)
(-1.17833 -0.0100235 0)
(-1.18626 -0.0104643 0)
(-1.19379 -0.0108395 0)
(-1.20094 -0.0111569 0)
(-1.20773 -0.0114234 0)
(-1.2142 -0.0116452 0)
(-1.22036 -0.0118275 0)
(-1.22623 -0.0119753 0)
(-1.23184 -0.0120925 0)
(-1.2372 -0.0121829 0)
(-1.24233 -0.0122498 0)
(-1.24724 -0.012296 0)
(-1.25195 -0.012324 0)
(-1.25647 -0.0123361 0)
(-1.26081 -0.0123341 0)
(-1.26499 -0.0123197 0)
(-1.269 -0.0122941 0)
(-1.27286 -0.0122587 0)
(-1.27657 -0.012214 0)
(-1.28015 -0.0121608 0)
(-1.2836 -0.0120993 0)
(-1.28692 -0.0120294 0)
(-1.29011 -0.0119509 0)
(-1.29319 -0.011863 0)
(-1.29615 -0.0117649 0)
(-1.299 -0.0116559 0)
(-1.30173 -0.0115354 0)
(-1.30436 -0.0114035 0)
(-1.30691 -0.0112595 0)
(-1.3094 -0.0111041 0)
(-1.31182 -0.0109411 0)
(-1.31419 -0.010777 0)
(-1.31649 -0.0106206 0)
(-1.31872 -0.0104827 0)
(-1.32089 -0.0103744 0)
(-1.32299 -0.0103052 0)
(-1.32502 -0.0102798 0)
(-1.32698 -0.0102961 0)
(-1.32887 -0.0103454 0)
(-1.33068 -0.0104159 0)
(-1.33241 -0.0104955 0)
(-1.33404 -0.0105734 0)
(-1.33559 -0.0106398 0)
(-1.33703 -0.0106849 0)
(-1.33837 -0.0106993 0)
(-1.3396 -0.0106742 0)
(-1.34073 -0.0106033 0)
(-1.34175 -0.0104838 0)
(-1.34268 -0.0103172 0)
(-1.34352 -0.0101093 0)
(-1.34427 -0.00986829 0)
(-1.34494 -0.00960362 0)
(-1.34554 -0.00932412 0)
(-1.34607 -0.00903766 0)
(-1.34654 -0.00874977 0)
(-1.34696 -0.00846523 0)
(-1.34732 -0.00818618 0)
(-1.34763 -0.00791506 0)
(-1.3479 -0.00765137 0)
(-1.34813 -0.00739616 0)
(-1.34833 -0.00714545 0)
(-1.34849 -0.00690384 0)
(-1.34865 -0.00662962 0)
(-1.3488 -0.0062879 0)
(-1.35344 -0.000720519 0)
(-1.3519 -0.0033033 0)
(-1.34791 -0.00109707 0)
(-1.34354 0.000289696 0)
(-1.33894 0.00283052 0)
(-1.33413 0.0031176 0)
(-1.32936 0.0077842 0)
(-1.32459 0.00548329 0)
(-1.31996 0.0111135 0)
(-1.31598 0.00842076 0)
(-1.31168 0.0105989 0)
(-1.30895 0.0171347 0)
(-1.30477 0.0108179 0)
(-1.30276 0.00846702 0)
(-1.30029 -0.00645239 0)
(-1.29766 -0.0039618 0)
(-1.29549 0.000230619 0)
(-1.29387 -5.78752e-05 0)
(-1.29239 -3.02142e-05 0)
(-1.29109 -2.61245e-05 0)
(-1.28992 -2.17786e-05 0)
(-1.2889 -1.86147e-05 0)
(-1.28801 -1.63797e-05 0)
(-1.28723 -1.4959e-05 0)
(-1.28657 -1.42529e-05 0)
(-1.28603 -1.41826e-05 0)
(-1.28559 -1.46887e-05 0)
(-1.28527 -1.573e-05 0)
(-1.28506 -1.72833e-05 0)
(-1.28497 -1.93445e-05 0)
(-1.285 -2.19337e-05 0)
(-1.28516 -2.51129e-05 0)
(-1.28547 -2.90372e-05 0)
(-1.28592 -3.40241e-05 0)
(-1.28656 -4.05368e-05 0)
(-1.28741 -6.08684e-05 0)
(-1.28895 -6.42689e-05 0)
(-1.28965 -4.42604e-05 0)
(-1.28969 -3.35998e-05 0)
(-1.28969 -3.29517e-05 0)
(-1.28969 -3.29425e-05 0)
(-1.28969 -3.29429e-05 0)
(-1.28969 -3.29427e-05 0)
(-1.28969 -3.29429e-05 0)
(-1.28969 -3.29427e-05 0)
(-1.28969 -3.29429e-05 0)
(-1.28969 -3.29427e-05 0)
(-1.28969 -3.29429e-05 0)
(-1.28969 -3.29427e-05 0)
(-1.28969 -3.2943e-05 0)
(-1.28969 -3.29427e-05 0)
(-1.28969 -3.2943e-05 0)
(-1.28969 -3.29427e-05 0)
(-1.28969 -3.2943e-05 0)
(-1.28969 -3.29427e-05 0)
(-1.28969 -3.2943e-05 0)
(-1.28969 -3.29426e-05 0)
(-1.28969 -3.2943e-05 0)
(-1.28969 -3.29426e-05 0)
(-1.28969 -3.2943e-05 0)
(-1.28969 -3.29426e-05 0)
(-1.28969 -3.2943e-05 0)
(-1.28969 -3.29426e-05 0)
(-1.28969 -3.29431e-05 0)
(-1.28969 -3.29426e-05 0)
(-1.28969 -3.29431e-05 0)
(-1.28969 -3.29426e-05 0)
(-1.28969 -3.29431e-05 0)
(-1.28969 -3.29425e-05 0)
(-1.28969 -3.29431e-05 0)
(-1.28969 -3.29425e-05 0)
(-1.28969 -3.29431e-05 0)
(-1.28969 -3.29425e-05 0)
(-1.28969 -3.29431e-05 0)
(-1.28969 -3.29425e-05 0)
(-1.28969 -3.29431e-05 0)
(-1.28969 -3.29425e-05 0)
(-1.28969 -3.29431e-05 0)
(-1.28969 -3.29425e-05 0)
(-1.28969 -3.29431e-05 0)
(-1.28969 -3.29425e-05 0)
(-1.28969 -3.29431e-05 0)
(-1.28969 -3.29425e-05 0)
(-1.28969 -3.29431e-05 0)
(-1.28969 -3.29425e-05 0)
(-1.28969 -3.29431e-05 0)
(-1.28969 -3.29425e-05 0)
(-1.28969 -3.29431e-05 0)
(-1.28969 -3.29425e-05 0)
(-1.28969 -3.29431e-05 0)
(-1.28969 -3.29425e-05 0)
(-1.28969 -3.29431e-05 0)
(-1.28969 -3.29425e-05 0)
(-1.28969 -3.29431e-05 0)
(-1.28969 -3.29425e-05 0)
(-1.28969 -3.29432e-05 0)
(-1.28969 -3.29425e-05 0)
(-1.28969 -3.29432e-05 0)
(-1.28969 -3.29425e-05 0)
(-1.28969 -3.29432e-05 0)
(-1.28969 -3.29425e-05 0)
(-1.28969 -3.29432e-05 0)
(-1.28969 -3.29425e-05 0)
(-1.28969 -3.29432e-05 0)
(-1.28969 -3.29425e-05 0)
(-1.28969 -3.29432e-05 0)
(-1.28969 -3.29425e-05 0)
(-1.28969 -3.29432e-05 0)
(-1.28969 -3.29424e-05 0)
(-1.28969 -3.29432e-05 0)
(-1.28969 -3.29424e-05 0)
(-1.28969 -3.29432e-05 0)
(-1.28969 -3.29424e-05 0)
(-1.28969 -3.29432e-05 0)
(-1.28969 -3.29424e-05 0)
(-1.28969 -3.29432e-05 0)
(-1.28969 -3.29424e-05 0)
(-1.28969 -3.29432e-05 0)
(-1.28969 -3.29424e-05 0)
(-1.28969 -3.29445e-05 0)
(-1.28969 -3.2974e-05 0)
(-1.2897 -3.36423e-05 0)
(-1.28985 -6.17517e-05 0)
)
;

boundaryField
{
    inandouthalf11
    {
        type            cyclic;
    }
    inandouthalf12
    {
        type            cyclic;
    }
    inandouthalf21
    {
        type            cyclic;
    }
    inandouthalf22
    {
        type            cyclic;
    }
    inandouthalf31
    {
        type            cyclic;
    }
    inandouthalf32
    {
        type            cyclic;
    }
    inandouthalf41
    {
        type            cyclic;
    }
    inandouthalf42
    {
        type            cyclic;
    }
    top
    {
        type            symmetryPlane;
    }
    walls
    {
        type            calculated;
        value           uniform (0 0 0);
    }
    frontAndBackPlanes
    {
        type            empty;
    }
}


// ************************************************************************* //
