/*--------------------------------*- C++ -*----------------------------------*\
| =========                 |                                                 |
| \\      /  F ield         | OpenFOAM: The Open Source CFD Toolbox           |
|  \\    /   O peration     | Version:  2.4.x                                 |
|   \\  /    A nd           | Web:      www.OpenFOAM.org                      |
|    \\/     M anipulation  |                                                 |
\*---------------------------------------------------------------------------*/
FoamFile
{
    version     2.0;
    format      ascii;
    class       volVectorField;
    location    "10.5";
    object      ddt0(Ub);
}
// * * * * * * * * * * * * * * * * * * * * * * * * * * * * * * * * * * * * * //

dimensions      [0 1 -2 0 0 0 0];

internalField   nonuniform List<vector> 
360
(
(6.16982e-05 -2.85124e-09 0)
(6.13629e-05 -9.9706e-09 0)
(6.13108e-05 -1.75893e-08 0)
(6.13525e-05 -2.35555e-08 0)
(6.13715e-05 -2.85455e-08 0)
(6.13753e-05 -3.30706e-08 0)
(6.13806e-05 -3.72826e-08 0)
(6.13884e-05 -4.12915e-08 0)
(6.13967e-05 -4.52334e-08 0)
(6.14052e-05 -4.92449e-08 0)
(6.1414e-05 -5.34375e-08 0)
(6.14228e-05 -5.78913e-08 0)
(6.14319e-05 -6.2663e-08 0)
(6.14413e-05 -6.78056e-08 0)
(6.14509e-05 -7.33517e-08 0)
(6.14607e-05 -7.93194e-08 0)
(6.14708e-05 -8.57248e-08 0)
(6.14812e-05 -9.25766e-08 0)
(6.14917e-05 -9.9875e-08 0)
(6.15026e-05 -1.07614e-07 0)
(6.15135e-05 -1.15788e-07 0)
(6.15248e-05 -1.24386e-07 0)
(6.15362e-05 -1.33409e-07 0)
(6.15478e-05 -1.42844e-07 0)
(6.15596e-05 -1.52669e-07 0)
(6.15716e-05 -1.62876e-07 0)
(6.15837e-05 -1.73454e-07 0)
(6.1596e-05 -1.84391e-07 0)
(6.16085e-05 -1.95676e-07 0)
(6.16211e-05 -2.07291e-07 0)
(6.16338e-05 -2.19223e-07 0)
(6.16468e-05 -2.31463e-07 0)
(6.16597e-05 -2.43999e-07 0)
(6.1673e-05 -2.5682e-07 0)
(6.16862e-05 -2.69917e-07 0)
(6.16997e-05 -2.83281e-07 0)
(6.17132e-05 -2.96903e-07 0)
(6.17269e-05 -3.10773e-07 0)
(6.17409e-05 -3.2488e-07 0)
(6.17547e-05 -3.39211e-07 0)
(6.17689e-05 -3.53767e-07 0)
(6.17831e-05 -3.68539e-07 0)
(6.17973e-05 -3.83506e-07 0)
(6.18119e-05 -3.98669e-07 0)
(6.18265e-05 -4.14022e-07 0)
(6.18412e-05 -4.29554e-07 0)
(6.18562e-05 -4.45262e-07 0)
(6.18711e-05 -4.61128e-07 0)
(6.18863e-05 -4.77148e-07 0)
(6.19017e-05 -4.93324e-07 0)
(6.1917e-05 -5.09636e-07 0)
(6.19327e-05 -5.2608e-07 0)
(6.19485e-05 -5.42649e-07 0)
(6.19644e-05 -5.59336e-07 0)
(6.19804e-05 -5.76124e-07 0)
(6.19968e-05 -5.93019e-07 0)
(6.20131e-05 -6.10006e-07 0)
(6.20298e-05 -6.27071e-07 0)
(6.20466e-05 -6.44208e-07 0)
(6.20634e-05 -6.61406e-07 0)
(6.20807e-05 -6.78665e-07 0)
(6.2098e-05 -6.95965e-07 0)
(6.21156e-05 -7.13303e-07 0)
(6.21334e-05 -7.30672e-07 0)
(6.21514e-05 -7.48063e-07 0)
(6.21696e-05 -7.65468e-07 0)
(6.21881e-05 -7.82869e-07 0)
(6.22068e-05 -8.00253e-07 0)
(6.22257e-05 -8.1762e-07 0)
(6.22448e-05 -8.34954e-07 0)
(6.22643e-05 -8.52248e-07 0)
(6.22842e-05 -8.69497e-07 0)
(6.2304e-05 -8.86683e-07 0)
(6.23244e-05 -9.03804e-07 0)
(6.2345e-05 -9.20852e-07 0)
(6.23661e-05 -9.37819e-07 0)
(6.23873e-05 -9.54695e-07 0)
(6.24088e-05 -9.71463e-07 0)
(6.24308e-05 -9.88114e-07 0)
(6.24532e-05 -1.00464e-06 0)
(6.24758e-05 -1.02104e-06 0)
(6.24989e-05 -1.03729e-06 0)
(6.25224e-05 -1.05339e-06 0)
(6.25463e-05 -1.06933e-06 0)
(6.25707e-05 -1.08511e-06 0)
(6.25955e-05 -1.10073e-06 0)
(6.26209e-05 -1.11617e-06 0)
(6.26466e-05 -1.13142e-06 0)
(6.26729e-05 -1.14647e-06 0)
(6.26997e-05 -1.16132e-06 0)
(6.27271e-05 -1.17594e-06 0)
(6.2755e-05 -1.19034e-06 0)
(6.27836e-05 -1.20452e-06 0)
(6.28127e-05 -1.21846e-06 0)
(6.28426e-05 -1.23216e-06 0)
(6.28731e-05 -1.24563e-06 0)
(6.29043e-05 -1.25885e-06 0)
(6.29362e-05 -1.27184e-06 0)
(6.29689e-05 -1.28457e-06 0)
(6.30023e-05 -1.29705e-06 0)
(6.30366e-05 -1.30928e-06 0)
(6.30717e-05 -1.32125e-06 0)
(6.31078e-05 -1.33295e-06 0)
(6.31448e-05 -1.34439e-06 0)
(6.31827e-05 -1.35554e-06 0)
(6.32216e-05 -1.36641e-06 0)
(6.32617e-05 -1.37698e-06 0)
(6.33028e-05 -1.38724e-06 0)
(6.3345e-05 -1.39716e-06 0)
(6.33884e-05 -1.40674e-06 0)
(6.34331e-05 -1.41596e-06 0)
(6.34791e-05 -1.42481e-06 0)
(6.35263e-05 -1.43329e-06 0)
(6.3575e-05 -1.44142e-06 0)
(6.36252e-05 -1.44921e-06 0)
(6.36768e-05 -1.45671e-06 0)
(6.373e-05 -1.46397e-06 0)
(6.37848e-05 -1.47103e-06 0)
(6.38414e-05 -1.47795e-06 0)
(6.38998e-05 -1.48479e-06 0)
(6.39601e-05 -1.49152e-06 0)
(6.40224e-05 -1.49812e-06 0)
(6.4087e-05 -1.50445e-06 0)
(6.41538e-05 -1.51031e-06 0)
(6.42233e-05 -1.51539e-06 0)
(6.42954e-05 -1.5193e-06 0)
(6.43706e-05 -1.52159e-06 0)
(6.44491e-05 -1.52178e-06 0)
(6.45312e-05 -1.51937e-06 0)
(6.46172e-05 -1.51386e-06 0)
(6.47072e-05 -1.50484e-06 0)
(6.48014e-05 -1.4921e-06 0)
(6.49e-05 -1.47593e-06 0)
(6.50037e-05 -1.45745e-06 0)
(6.51128e-05 -1.43909e-06 0)
(6.52262e-05 -1.42442e-06 0)
(6.53424e-05 -1.41674e-06 0)
(6.5465e-05 -1.41649e-06 0)
(6.56047e-05 -1.42025e-06 0)
(6.57728e-05 -1.42339e-06 0)
(6.59618e-05 -1.42214e-06 0)
(6.61633e-05 -1.60757e-06 0)
(6.98614e-05 3.94045e-07 0)
(6.71654e-05 5.71062e-06 0)
(6.23052e-05 1.24411e-05 0)
(5.60682e-05 2.0602e-05 0)
(4.52246e-05 3.50977e-05 0)
(1.96566e-05 2.62535e-05 0)
(-0.000165752 0.000213318 0)
(-0.0256434 -0.00101954 0)
(-0.42659 -0.00712111 0)
(-0.676109 0.000691494 0)
(-0.776316 -0.00189396 0)
(-0.83149 -0.000952761 0)
(-0.871277 -0.000836982 0)
(-0.90394 -0.00076109 0)
(-0.932338 -0.000678302 0)
(-0.957774 -0.000599604 0)
(-0.980904 -0.000531311 0)
(-1.00213 -0.000472323 0)
(-1.02172 -0.000420699 0)
(-1.03989 -0.000375173 0)
(-1.05678 -0.000334889 0)
(-1.07254 -0.000299153 0)
(-1.08727 -0.000267376 0)
(-1.10108 -0.000239055 0)
(-1.11403 -0.000213766 0)
(-1.12621 -0.000191146 0)
(-1.13768 -0.000170884 0)
(-1.1485 -0.000152714 0)
(-1.15871 -0.000136402 0)
(-1.16837 -0.000121747 0)
(-1.17751 -0.000108572 0)
(-1.18617 -9.67227e-05 0)
(-1.19438 -8.60617e-05 0)
(-1.20219 -7.64687e-05 0)
(-1.20961 -6.78366e-05 0)
(-1.21666 -6.00701e-05 0)
(-1.22339 -5.30845e-05 0)
(-1.2298 -4.6804e-05 0)
(-1.23591 -4.11605e-05 0)
(-1.24175 -3.60931e-05 0)
(-1.24733 -3.15471e-05 0)
(-1.25267 -2.74729e-05 0)
(-1.25778 -2.38263e-05 0)
(-1.26268 -2.05668e-05 0)
(-1.26738 -1.76583e-05 0)
(-1.27188 -1.50679e-05 0)
(-1.27621 -1.27657e-05 0)
(-1.28036 -1.07248e-05 0)
(-1.28436 -8.92081e-06 0)
(-1.2882 -7.33151e-06 0)
(-1.2919 -5.93681e-06 0)
(-1.29546 -4.71849e-06 0)
(-1.29889 -3.66002e-06 0)
(-1.3022 -2.74642e-06 0)
(-1.30539 -1.96405e-06 0)
(-1.30847 -1.30045e-06 0)
(-1.31144 -7.44089e-07 0)
(-1.31431 -2.84144e-07 0)
(-1.31708 8.97369e-08 0)
(-1.31978 3.90614e-07 0)
(-1.32245 6.28214e-07 0)
(-1.32507 8.09593e-07 0)
(-1.32765 9.42749e-07 0)
(-1.33018 1.03632e-06 0)
(-1.33267 1.09906e-06 0)
(-1.33512 1.13916e-06 0)
(-1.33751 1.16348e-06 0)
(-1.33985 1.17683e-06 0)
(-1.34214 1.18172e-06 0)
(-1.34438 1.17862e-06 0)
(-1.34655 1.16685e-06 0)
(-1.34866 1.1454e-06 0)
(-1.3507 1.11335e-06 0)
(-1.35267 1.06999e-06 0)
(-1.35456 1.01498e-06 0)
(-1.35637 9.48568e-07 0)
(-1.35809 8.71923e-07 0)
(-1.35971 7.87372e-07 0)
(-1.36122 6.98298e-07 0)
(-1.36262 6.08669e-07 0)
(-1.36388 5.22322e-07 0)
(-1.36501 4.42315e-07 0)
(-1.36598 3.70561e-07 0)
(-1.36678 3.07824e-07 0)
(-1.36738 2.53983e-07 0)
(-1.36778 2.08375e-07 0)
(-1.36794 1.70081e-07 0)
(-1.36784 1.38062e-07 0)
(-1.36746 1.1131e-07 0)
(-1.36676 8.88186e-08 0)
(-1.36572 7.47191e-08 0)
(-1.36431 5.20893e-08 0)
(-1.36249 4.7303e-08 0)
(-1.36024 4.18155e-08 0)
(-1.35754 1.76425e-08 0)
(-1.35439 1.45218e-08 0)
(-1.35079 7.91331e-09 0)
(-1.34677 2.23096e-09 0)
(-1.3424 -1.59263e-09 0)
(-1.33776 -3.25874e-09 0)
(-1.33296 -3.51396e-09 0)
(-1.32812 -3.08235e-09 0)
(-1.32338 -2.39106e-09 0)
(-1.31885 -1.67303e-09 0)
(-1.31462 -1.12908e-09 0)
(-1.31075 -7.24192e-10 0)
(-1.30725 -4.58572e-10 0)
(-1.30414 -2.47054e-10 0)
(-1.30137 -5.86288e-11 0)
(-1.29892 -2.27915e-11 0)
(-1.29675 -4.04438e-11 0)
(-1.29483 -2.87617e-11 0)
(-1.29312 -3.03042e-11 0)
(-1.2916 -3.41194e-11 0)
(-1.29025 -3.6008e-11 0)
(-1.28905 -3.65689e-11 0)
(-1.288 -3.78361e-11 0)
(-1.28707 -3.93359e-11 0)
(-1.28627 -4.00824e-11 0)
(-1.28559 -4.06846e-11 0)
(-1.28502 -4.20757e-11 0)
(-1.28456 -4.38974e-11 0)
(-1.28421 -4.34554e-11 0)
(-1.28398 -4.01203e-11 0)
(-1.28387 -7.09809e-11 0)
(-1.28388 1.5419e-11 0)
(-1.28402 -1.48374e-10 0)
(-1.28429 1.1185e-10 0)
(-1.28472 -2.55598e-10 0)
(-1.28533 2.19242e-10 0)
(-1.2861 -3.57198e-10 0)
(-1.28763 3.0395e-10 0)
(-1.28851 -4.23155e-10 0)
(-1.28856 3.5461e-10 0)
(-1.28856 -4.69689e-10 0)
(-1.28856 3.99305e-10 0)
(-1.28856 -5.17009e-10 0)
(-1.28856 4.44935e-10 0)
(-1.28856 -5.68031e-10 0)
(-1.28856 4.93035e-10 0)
(-1.28856 -6.20315e-10 0)
(-1.28856 5.44985e-10 0)
(-1.28856 -6.75628e-10 0)
(-1.28856 5.98519e-10 0)
(-1.28856 -7.32856e-10 0)
(-1.28856 6.54796e-10 0)
(-1.28856 -7.93889e-10 0)
(-1.28856 7.14609e-10 0)
(-1.28856 -8.54941e-10 0)
(-1.28856 7.7806e-10 0)
(-1.28856 -9.19338e-10 0)
(-1.28856 8.41777e-10 0)
(-1.28856 -9.88859e-10 0)
(-1.28856 9.07195e-10 0)
(-1.28856 -1.06001e-09 0)
(-1.28856 9.80602e-10 0)
(-1.28856 -1.12766e-09 0)
(-1.28856 1.05848e-09 0)
(-1.28856 -1.19967e-09 0)
(-1.28856 1.1366e-09 0)
(-1.28856 -1.27515e-09 0)
(-1.28856 1.21767e-09 0)
(-1.28856 -1.35301e-09 0)
(-1.28856 1.30299e-09 0)
(-1.28856 -1.43327e-09 0)
(-1.28856 1.38778e-09 0)
(-1.28856 -1.51901e-09 0)
(-1.28856 1.47452e-09 0)
(-1.28856 -1.41724e-09 0)
(-1.28856 1.33968e-09 0)
(-1.28856 -1.44516e-09 0)
(-1.28856 1.36433e-09 0)
(-1.28856 -1.47209e-09 0)
(-1.28856 1.39075e-09 0)
(-1.28856 -1.49673e-09 0)
(-1.28856 1.41464e-09 0)
(-1.28856 -1.52332e-09 0)
(-1.28856 1.43705e-09 0)
(-1.28856 -1.55015e-09 0)
(-1.28856 1.45812e-09 0)
(-1.28856 -1.57671e-09 0)
(-1.28856 1.47895e-09 0)
(-1.28856 -1.60224e-09 0)
(-1.28856 1.4988e-09 0)
(-1.28856 -1.62763e-09 0)
(-1.28856 1.51546e-09 0)
(-1.28856 -1.65287e-09 0)
(-1.28856 1.53953e-09 0)
(-1.28856 -1.66937e-09 0)
(-1.28856 1.56195e-09 0)
(-1.28856 -1.68739e-09 0)
(-1.28856 1.58446e-09 0)
(-1.28856 -1.70533e-09 0)
(-1.28856 1.60529e-09 0)
(-1.28856 -1.72293e-09 0)
(-1.28856 1.62517e-09 0)
(-1.28856 -1.73993e-09 0)
(-1.28856 1.64381e-09 0)
(-1.28856 -1.75694e-09 0)
(-1.28856 1.66125e-09 0)
(-1.28856 -1.77333e-09 0)
(-1.28856 1.67757e-09 0)
(-1.28856 -1.78963e-09 0)
(-1.28856 1.6932e-09 0)
(-1.28856 -1.80574e-09 0)
(-1.28856 1.70864e-09 0)
(-1.28856 -1.82119e-09 0)
(-1.28856 1.72432e-09 0)
(-1.28856 -1.83381e-09 0)
(-1.28856 1.74017e-09 0)
(-1.28856 -1.8443e-09 0)
(-1.28856 1.75634e-09 0)
(-1.28856 -1.85002e-09 0)
(-1.28856 1.77091e-09 0)
(-1.28856 -1.84458e-09 0)
(-1.28856 1.78539e-09 0)
(-1.28856 -1.8452e-09 0)
(-1.28856 1.78529e-09 0)
)
;

boundaryField
{
    inandouthalf11
    {
        type            cyclic;
    }
    inandouthalf12
    {
        type            cyclic;
    }
    inandouthalf21
    {
        type            cyclic;
    }
    inandouthalf22
    {
        type            cyclic;
    }
    inandouthalf31
    {
        type            cyclic;
    }
    inandouthalf32
    {
        type            cyclic;
    }
    inandouthalf41
    {
        type            cyclic;
    }
    inandouthalf42
    {
        type            cyclic;
    }
    top
    {
        type            symmetryPlane;
    }
    walls
    {
        type            calculated;
        value           uniform (0 0 0);
    }
    frontAndBackPlanes
    {
        type            empty;
    }
}


// ************************************************************************* //
