/*--------------------------------*- C++ -*----------------------------------*\
| =========                 |                                                 |
| \\      /  F ield         | OpenFOAM: The Open Source CFD Toolbox           |
|  \\    /   O peration     | Version:  2.4.x                                 |
|   \\  /    A nd           | Web:      www.OpenFOAM.org                      |
|    \\/     M anipulation  |                                                 |
\*---------------------------------------------------------------------------*/
FoamFile
{
    version     2.0;
    format      ascii;
    class       volScalarField;
    location    "10.5";
    object      epsilon_0;
}
// * * * * * * * * * * * * * * * * * * * * * * * * * * * * * * * * * * * * * //

dimensions      [0 2 -3 0 0 0 0];

internalField   nonuniform List<scalar> 
360
(
1.60309e-27
1e-20
1e-20
1e-20
1e-20
1e-20
1e-20
1e-20
1e-20
1e-20
1e-20
1e-20
1e-20
1e-20
1e-20
1e-20
1e-20
1e-20
1e-20
1e-20
1e-20
1e-20
1e-20
1e-20
1e-20
1e-20
1e-20
1e-20
1e-20
1e-20
1e-20
1e-20
1e-20
1e-20
1e-20
1e-20
1e-20
1e-20
1e-20
1e-20
1e-20
1e-20
1e-20
1e-20
1e-20
1e-20
1e-20
1e-20
1e-20
1e-20
1e-20
1e-20
1e-20
1e-20
1e-20
1e-20
1e-20
1e-20
1e-20
1e-20
1e-20
1e-20
1e-20
1e-20
1e-20
1e-20
1e-20
1e-20
1e-20
1e-20
1e-20
1e-20
1e-20
1e-20
1e-20
1e-20
1e-20
1e-20
1e-20
1e-20
1e-20
1e-20
1e-20
1e-20
1e-20
1e-20
1e-20
1e-20
1e-20
1e-20
1e-20
1e-20
1e-20
1e-20
1e-20
1e-20
1e-20
1e-20
1e-20
1e-20
1e-20
1e-20
1e-20
1e-20
1e-20
1e-20
1e-20
1e-20
1e-20
1e-20
1e-20
1e-20
1e-20
1e-20
1e-20
1e-20
1e-20
1e-20
1e-20
1e-20
1e-20
1e-20
1e-20
1e-20
1e-20
1e-20
1e-20
2.32231e-20
6.44582e-20
1.75746e-19
4.65641e-19
1.19895e-18
3.0041e-18
7.34579e-18
1.76308e-17
4.20317e-17
1.0221e-16
2.68268e-16
8.33809e-16
3.3408e-15
1.73655e-14
1.11861e-13
8.81686e-13
7.85609e-12
8.94067e-11
1.45408e-09
3.1891e-08
9.13282e-07
3.36314e-05
0.00141339
0.0147539
0.010574
0.00979395
0.0101237
0.0107986
0.0115959
0.012429
0.0132573
0.0140591
0.0148223
0.0155402
0.0162089
0.016827
0.0173941
0.0179108
0.0183782
0.0187978
0.0191715
0.0195012
0.019789
0.0200368
0.0202469
0.0204211
0.0205615
0.02067
0.0207485
0.0207986
0.0208221
0.0208207
0.0207957
0.0207488
0.0206812
0.0205942
0.0204891
0.0203671
0.0202292
0.0200764
0.0199099
0.0197304
0.0195389
0.0193361
0.019123
0.0189001
0.0186683
0.0184281
0.0181803
0.0179255
0.0176641
0.0173968
0.0171241
0.0168464
0.0165615
0.0162666
0.0159618
0.0156473
0.0153231
0.0149893
0.0146461
0.0142936
0.0139319
0.0135612
0.0131817
0.0127936
0.0123972
0.0119926
0.0115804
0.0111608
0.0107342
0.0103012
0.00986227
0.00941811
0.00896945
0.0085171
0.00806201
0.00760523
0.00714797
0.00669153
0.00623741
0.00578724
0.00534281
0.00490608
0.00447915
0.00406428
0.00366382
0.0032802
0.00291586
0.00257318
0.00225433
0.00196121
0.00169528
0.00145744
0.00124789
0.00106605
0.00091064
0.000779669
0.000670664
0.000580849
0.000507369
0.000447466
0.000398618
0.000358607
0.000325542
0.000297847
0.00027423
0.000253646
0.000235256
0.000218396
0.000202547
0.000187311
0.000172398
0.000157604
0.000142807
0.000127952
0.000113049
9.81643e-05
8.3416e-05
6.89718e-05
5.5045e-05
4.18936e-05
2.98199e-05
1.91745e-05
1.03628e-05
3.8462e-06
5.54154e-07
1.68983e-08
1.99438e-10
2.09485e-12
2.0805e-14
1.95669e-16
1.75123e-18
2.29749e-20
1e-20
1e-20
1e-20
1e-20
1e-20
1e-20
1e-20
1e-20
1e-20
1e-20
1e-20
1e-20
1e-20
1e-20
1e-20
1e-20
1e-20
1e-20
1e-20
1e-20
1e-20
1e-20
1e-20
1e-20
1e-20
1e-20
1e-20
1e-20
1e-20
1e-20
1e-20
1e-20
1e-20
1e-20
1e-20
1e-20
1e-20
1e-20
1e-20
1e-20
1e-20
1e-20
1e-20
1e-20
1e-20
1e-20
1e-20
1e-20
1e-20
1e-20
1e-20
1e-20
1e-20
1e-20
1e-20
1e-20
1e-20
1e-20
1e-20
1e-20
1e-20
1e-20
1e-20
1e-20
1e-20
1e-20
1e-20
1e-20
1e-20
1e-20
1e-20
1e-20
1e-20
1e-20
1e-20
1e-20
1e-20
1e-20
1e-20
)
;

boundaryField
{
    inandouthalf11
    {
        type            cyclic;
    }
    inandouthalf12
    {
        type            cyclic;
    }
    inandouthalf21
    {
        type            cyclic;
    }
    inandouthalf22
    {
        type            cyclic;
    }
    inandouthalf31
    {
        type            cyclic;
    }
    inandouthalf32
    {
        type            cyclic;
    }
    inandouthalf41
    {
        type            cyclic;
    }
    inandouthalf42
    {
        type            cyclic;
    }
    top
    {
        type            symmetryPlane;
    }
    walls
    {
        type            zeroGradient;
    }
    frontAndBackPlanes
    {
        type            empty;
    }
}


// ************************************************************************* //
