/*--------------------------------*- C++ -*----------------------------------*\
| =========                 |                                                 |
| \\      /  F ield         | OpenFOAM: The Open Source CFD Toolbox           |
|  \\    /   O peration     | Version:  2.4.x                                 |
|   \\  /    A nd           | Web:      www.OpenFOAM.org                      |
|    \\/     M anipulation  |                                                 |
\*---------------------------------------------------------------------------*/
FoamFile
{
    version     2.0;
    format      ascii;
    class       volVectorField;
    location    "10.5";
    object      gradPf;
}
// * * * * * * * * * * * * * * * * * * * * * * * * * * * * * * * * * * * * * //

dimensions      [0 1 -2 0 0 0 0];

internalField   nonuniform List<vector> 
360
(
(0 72.0675 0)
(0 80.6238 0)
(0 0.0140896 0)
(0 -12.6293 0)
(-3.34412e-14 -5.234 0)
(-3.34419e-14 -2.82663 0)
(-3.34428e-14 -3.60599 0)
(0 -4.09463 0)
(-3.34452e-14 -4.13524 0)
(0 -4.14111 0)
(-3.34477e-14 -4.1256 0)
(0 -4.11145 0)
(-3.34503e-14 -4.1162 0)
(0 -4.12213 0)
(0 -4.13927 0)
(0 -4.15677 0)
(0 -4.16418 0)
(-3.34567e-14 -4.16775 0)
(0 -4.18822 0)
(0 -4.19328 0)
(0 -4.19925 0)
(-3.34622e-14 -4.22065 0)
(0 -4.22708 0)
(0 -4.23904 0)
(0 -4.25148 0)
(-3.34679e-14 -4.2548 0)
(0 -4.2705 0)
(0 -4.28733 0)
(0 -4.2892 0)
(0 -4.29643 0)
(0 -4.31911 0)
(0 -4.31399 0)
(0 -4.33062 0)
(0 -4.34791 0)
(0 -4.34464 0)
(3.34831e-14 -4.35516 0)
(0 -4.36246 0)
(0 -4.3903 0)
(0 -4.37331 0)
(0 -4.38676 0)
(0 -4.41804 0)
(0 -4.39259 0)
(3.34949e-14 -4.41489 0)
(0 -4.4311 0)
(0 -4.42539 0)
(0 -4.4503 0)
(0 -4.43583 0)
(0 -4.43538 0)
(0 -4.47964 0)
(0 -4.46613 0)
(1.67548e-14 -4.46064 0)
(0 -4.4815 0)
(0 -4.48812 0)
(0 -4.48368 0)
(0 -4.49974 0)
(0 -4.50397 0)
(0 -4.50401 0)
(0 -4.5236 0)
(0 -4.50205 0)
(0 -4.52632 0)
(0 -4.53389 0)
(0 -4.53039 0)
(0 -4.54527 0)
(0 -4.54202 0)
(0 -4.54491 0)
(0 -4.55099 0)
(0 -4.56437 0)
(0 -4.56425 0)
(0 -4.5518 0)
(0 -4.56637 0)
(0 -4.59262 0)
(0 -4.57063 0)
(0 -4.57252 0)
(0 -4.59035 0)
(0 -4.59517 0)
(0 -4.59532 0)
(0 -4.58787 0)
(0 -4.5983 0)
(0 -4.60537 0)
(0 -4.60291 0)
(0 -4.60426 0)
(0 -4.61258 0)
(0 -4.61485 0)
(0 -4.61728 0)
(0 -4.61997 0)
(0 -4.62313 0)
(0 -4.62501 0)
(0 -4.62447 0)
(0 -4.62693 0)
(0 -4.62945 0)
(0 -4.63045 0)
(0 -4.63287 0)
(0 -4.63595 0)
(0 -4.63773 0)
(0 -4.63922 0)
(0 -4.64043 0)
(0 -4.64105 0)
(0 -4.64128 0)
(0 -4.64152 0)
(0 -4.64168 0)
(0 -4.64163 0)
(0 -4.64155 0)
(0 -4.64122 0)
(0 -4.64041 0)
(0 -4.6391 0)
(0 -4.63728 0)
(0 -4.63487 0)
(0 -4.63186 0)
(0 -4.62823 0)
(0 -4.6239 0)
(0 -4.61881 0)
(0 -4.61289 0)
(0 -4.60612 0)
(0 -4.59847 0)
(0 -4.58995 0)
(0 -4.58059 0)
(0 -4.57046 0)
(0 -4.55964 0)
(0 -4.54827 0)
(0 -4.53641 0)
(0 -4.52408 0)
(0 -4.51114 0)
(0 -4.49733 0)
(0 -4.48234 0)
(0 -4.46618 0)
(0 -4.44939 0)
(0 -4.43303 0)
(0 -4.4178 0)
(0 -4.40249 0)
(0 -4.38325 0)
(0 -4.35697 0)
(0 -4.32975 0)
(0 -4.31972 0)
(0 -4.33634 0)
(0 -4.35427 0)
(0 -4.34184 0)
(0 -4.32962 0)
(0 -4.41376 0)
(0 -4.629 0)
(0 -4.74752 0)
(0 -4.85932 0)
(0 -14.9132 0)
(0 -11.4971 0)
(0 -0.616581 0)
(0 -3.86143 0)
(0 -4.19073 0)
(0 -3.62021 0)
(0 -3.81367 0)
(0 -5.15148 0)
(0 -3.78326 0)
(0 0 0)
(0 0 0)
(0 0 0)
(0 0 0)
(0 0 0)
(0 0 0)
(0 0 0)
(0 0 0)
(0 0 0)
(0 0 0)
(0 0 0)
(0 0 0)
(0 0 0)
(0 0 0)
(0 0 0)
(0 0 0)
(0 0 0)
(0 0 0)
(0 0 0)
(0 0 0)
(0 0 0)
(0 0 0)
(0 0 0)
(0 0 0)
(0 0 0)
(0 0 0)
(0 0 0)
(0 0 0)
(0 0 0)
(0 0 0)
(0 0 0)
(0 0 0)
(0 0 0)
(0 0 0)
(0 0 0)
(0 0 0)
(0 0 0)
(0 0 0)
(0 0 0)
(0 0 0)
(0 0 0)
(0 0 0)
(0 0 0)
(0 0 0)
(0 0 0)
(0 0 0)
(0 0 0)
(0 0 0)
(0 0 0)
(0 0 0)
(0 0 0)
(0 0 0)
(0 0 0)
(0 0 0)
(0 0 0)
(0 0 0)
(0 0 0)
(0 0 0)
(0 0 0)
(0 0 0)
(0 0 0)
(0 0 0)
(0 0 0)
(0 0 0)
(0 0 0)
(0 0 0)
(0 0 0)
(0 0 0)
(0 0 0)
(0 0 0)
(0 0 0)
(0 0 0)
(0 0 0)
(0 0 0)
(0 0 0)
(0 0 0)
(0 0 0)
(0 0 0)
(0 0 0)
(0 0 0)
(0 0 0)
(0 0 0)
(0 0 0)
(0 0 0)
(0 0 0)
(0 0 0)
(0 0 0)
(0 0 0)
(0 0 0)
(0 0 0)
(0 0 0)
(0 0 0)
(0 0 0)
(0 0 0)
(0 0 0)
(0 0 0)
(0 0 0)
(0 0 0)
(0 0 0)
(0 0 0)
(0 0 0)
(0 0 0)
(0 0 0)
(0 0 0)
(0 0 0)
(0 0 0)
(0 0 0)
(0 0 0)
(0 0 0)
(0 0 0)
(0 0 0)
(0 0 0)
(0 0 0)
(0 0 0)
(0 0 0)
(0 0 0)
(0 0 0)
(0 0 0)
(0 0 0)
(0 0 0)
(0 0 0)
(0 0 0)
(0 0 0)
(0 0 0)
(0 0 0)
(0 0 0)
(0 0 0)
(0 0 0)
(0 0 0)
(0 0 0)
(0 0 0)
(0 0 0)
(0 0 0)
(0 0 0)
(0 0 0)
(0 0 0)
(0 0 0)
(0 0 0)
(0 0 0)
(0 0 0)
(0 0 0)
(0 0 0)
(0 0 0)
(0 0 0)
(0 0 0)
(0 0 0)
(0 0 0)
(0 0 0)
(0 0 0)
(0 0 0)
(0 0 0)
(0 0 0)
(0 0 0)
(0 0 0)
(0 0 0)
(0 0 0)
(0 0 0)
(0 0 0)
(0 0 0)
(0 0 0)
(0 0 0)
(0 0 0)
(0 0 0)
(0 0 0)
(0 0 0)
(0 0 0)
(0 0 0)
(0 0 0)
(0 0 0)
(0 0 0)
(0 0 0)
(0 0 0)
(0 0 0)
(0 0 0)
(0 0 0)
(0 0 0)
(0 0 0)
(0 0 0)
(0 0 0)
(0 0 0)
(0 0 0)
(0 0 0)
(0 0 0)
(0 0 0)
(0 0 0)
(0 0 0)
(0 0 0)
(0 0 0)
(0 0 0)
(0 0 0)
(0 0 0)
(0 0 0)
(0 0 0)
(0 0 0)
(0 0 0)
(0 0 0)
(0 0 0)
(0 0 0)
(0 0 0)
(0 0 0)
(0 0 0)
(0 0 0)
(0 0 0)
(0 0 0)
(0 0 0)
(0 0 0)
(0 0 0)
(0 0 0)
(0 0 0)
(0 0 0)
)
;

boundaryField
{
    inandouthalf11
    {
        type            cyclic;
    }
    inandouthalf12
    {
        type            cyclic;
    }
    inandouthalf21
    {
        type            cyclic;
    }
    inandouthalf22
    {
        type            cyclic;
    }
    inandouthalf31
    {
        type            cyclic;
    }
    inandouthalf32
    {
        type            cyclic;
    }
    inandouthalf41
    {
        type            cyclic;
    }
    inandouthalf42
    {
        type            cyclic;
    }
    top
    {
        type            symmetryPlane;
    }
    walls
    {
        type            calculated;
        value           uniform (0 0 0);
    }
    frontAndBackPlanes
    {
        type            empty;
    }
}


// ************************************************************************* //
