/*--------------------------------*- C++ -*----------------------------------*\
| =========                 |                                                 |
| \\      /  F ield         | OpenFOAM: The Open Source CFD Toolbox           |
|  \\    /   O peration     | Version:  2.4.x                                 |
|   \\  /    A nd           | Web:      www.OpenFOAM.org                      |
|    \\/     M anipulation  |                                                 |
\*---------------------------------------------------------------------------*/
FoamFile
{
    version     2.0;
    format      ascii;
    class       volVectorField;
    location    "10.5";
    object      gradPs;
}
// * * * * * * * * * * * * * * * * * * * * * * * * * * * * * * * * * * * * * //

dimensions      [0 1 -2 0 0 0 0];

internalField   nonuniform List<vector> 
360
(
(0 1.55234e-18 0)
(0 1.71151e-18 0)
(0 -5.47542e-22 0)
(0 -2.37948e-19 0)
(-2.90056e-32 -1.00092e-19 0)
(-2.90062e-32 -5.46289e-20 0)
(-2.9007e-32 -7.00887e-20 0)
(0 -8.00337e-20 0)
(-1.45046e-32 -8.13516e-20 0)
(0 -8.20095e-20 0)
(-1.45056e-32 -8.22517e-20 0)
(0 -8.25275e-20 0)
(-1.45067e-32 -8.31863e-20 0)
(0 -8.38799e-20 0)
(0 -8.48139e-20 0)
(0 -8.57708e-20 0)
(0 -8.65341e-20 0)
(-1.45096e-32 -8.72298e-20 0)
(0 -8.8295e-20 0)
(0 -8.90476e-20 0)
(0 -8.98365e-20 0)
(-1.45119e-32 -9.09684e-20 0)
(0 -9.17961e-20 0)
(0 -9.27597e-20 0)
(0 -9.37499e-20 0)
(-2.90287e-32 -9.45543e-20 0)
(0 -9.5652e-20 0)
(0 -9.67928e-20 0)
(0 -9.76148e-20 0)
(0 -9.8574e-20 0)
(0 -9.99096e-20 0)
(0 -1.00616e-19 0)
(0 -1.01856e-19 0)
(0 -1.03124e-19 0)
(0 -1.03933e-19 0)
(2.9042e-32 -1.05082e-19 0)
(0 -1.06179e-19 0)
(0 -1.07802e-19 0)
(0 -1.08338e-19 0)
(0 -1.09658e-19 0)
(0 -1.11441e-19 0)
(0 -1.11819e-19 0)
(1.45261e-32 -1.13436e-19 0)
(0 -1.14917e-19 0)
(0 -1.15864e-19 0)
(0 -1.17636e-19 0)
(0 -1.18387e-19 0)
(0 -1.1954e-19 0)
(0 -1.21929e-19 0)
(0 -1.22776e-19 0)
(1.45324e-32 -1.23875e-19 0)
(0 -1.25724e-19 0)
(0 -1.27218e-19 0)
(0 -1.28418e-19 0)
(0 -1.3025e-19 0)
(0 -1.3176e-19 0)
(0 -1.33198e-19 0)
(0 -1.35239e-19 0)
(0 -1.36085e-19 0)
(0 -1.38359e-19 0)
(0 -1.40151e-19 0)
(0 -1.4166e-19 0)
(0 -1.4377e-19 0)
(0 -1.45361e-19 0)
(0 -1.47181e-19 0)
(0 -1.49155e-19 0)
(0 -1.51417e-19 0)
(0 -1.53283e-19 0)
(0 -1.54773e-19 0)
(0 -1.57236e-19 0)
(0 -1.60165e-19 0)
(0 -1.61465e-19 0)
(0 -1.63665e-19 0)
(0 -1.66484e-19 0)
(0 -1.68918e-19 0)
(0 -1.71233e-19 0)
(0 -1.73333e-19 0)
(0 -1.7617e-19 0)
(0 -1.78958e-19 0)
(0 -1.8145e-19 0)
(0 -1.84169e-19 0)
(0 -1.87247e-19 0)
(0 -1.9017e-19 0)
(0 -1.9319e-19 0)
(0 -1.96313e-19 0)
(0 -1.99555e-19 0)
(0 -2.02841e-19 0)
(0 -2.06127e-19 0)
(0 -2.09654e-19 0)
(0 -2.133e-19 0)
(0 -2.16997e-19 0)
(0 -2.20888e-19 0)
(0 -2.24946e-19 0)
(0 -2.29085e-19 0)
(0 -2.33357e-19 0)
(0 -2.37771e-19 0)
(0 -2.42318e-19 0)
(0 -2.47016e-19 0)
(0 -2.51894e-19 0)
(0 -2.56959e-19 0)
(0 -2.62212e-19 0)
(0 -2.67676e-19 0)
(0 -2.73352e-19 0)
(0 -2.79237e-19 0)
(0 -2.85344e-19 0)
(0 -2.91684e-19 0)
(0 -2.98269e-19 0)
(0 -3.05113e-19 0)
(0 -3.12231e-19 0)
(0 -3.19636e-19 0)
(0 -3.27342e-19 0)
(0 -3.35367e-19 0)
(0 -3.4373e-19 0)
(0 -3.52453e-19 0)
(0 -3.61564e-19 0)
(0 -3.71093e-19 0)
(0 -3.81078e-19 0)
(0 -3.91564e-19 0)
(0 -4.02602e-19 0)
(0 -4.14246e-19 0)
(0 -4.26549e-19 0)
(0 -4.39556e-19 0)
(0 -4.53303e-19 0)
(0 -4.67827e-19 0)
(0 -4.8319e-19 0)
(0 2.15511e-17 0)
(0 3.14286e-16 0)
(0 1.12292e-15 0)
(0 2.99635e-15 0)
(0 7.60766e-15 0)
(0 1.86522e-14 0)
(0 4.42043e-14 0)
(0 1.01409e-13 0)
(0 2.26098e-13 0)
(0 4.93855e-13 0)
(0 1.07804e-12 0)
(0 2.48143e-12 0)
(0 6.6886e-12 0)
(0 2.33367e-11 0)
(0 1.04585e-10 0)
(0 5.6151e-10 0)
(0 3.85428e-09 0)
(0 2.83589e-08 0)
(0 2.34972e-07 0)
(0 2.89311e-06 0)
(0 5.02565e-05 0)
(0 0.00152071 0)
(0 0.0581193 0)
(0 0.535762 0)
(0 0.128196 0)
(0 -2.19664 0)
(0 -1.18414 0)
(0 -0.737038 0)
(0 -0.486912 0)
(0 -0.346141 0)
(0 -0.276211 0)
(0 -0.239928 0)
(0 -0.220824 0)
(0 -0.212816 0)
(0 -0.212538 0)
(0 -0.217632 0)
(0 -0.226497 0)
(0 -0.238051 0)
(0 -0.251527 0)
(0 -0.266367 0)
(0 -0.282153 0)
(0 -0.298567 0)
(0 -0.315371 0)
(0 -0.33238 0)
(0 -0.349451 0)
(0 -0.366477 0)
(0 -0.383376 0)
(0 -0.400082 0)
(0 -0.416548 0)
(0 -0.432739 0)
(0 -0.44863 0)
(0 -0.464203 0)
(0 -0.479447 0)
(0 -0.494358 0)
(0 -0.508932 0)
(0 -0.523174 0)
(0 -0.537088 0)
(0 -0.550684 0)
(0 -0.563973 0)
(0 -0.576969 0)
(0 -0.589689 0)
(0 -0.602155 0)
(0 -0.614393 0)
(0 -0.626433 0)
(0 -0.638308 0)
(0 -0.650062 0)
(0 -0.661748 0)
(0 -0.673422 0)
(0 -0.685148 0)
(0 -0.696986 0)
(0 -0.708992 0)
(0 -0.721192 0)
(0 -0.733574 0)
(0 -0.74606 0)
(0 -0.758485 0)
(0 -0.770554 0)
(0 -0.781963 0)
(-3.18189e-16 -0.792319 0)
(0 -0.801036 0)
(0 -0.807433 0)
(3.79609e-16 -0.810938 0)
(0 -0.811164 0)
(-4.31932e-16 -0.808015 0)
(0 -0.801785 0)
(4.94866e-16 -0.793186 0)
(0 -0.783293 0)
(0 -0.77338 0)
(0 -0.764683 0)
(3.30551e-16 -0.758203 0)
(0 -0.754559 0)
(0 -0.753848 0)
(0 -0.755486 0)
(0 -0.758087 0)
(0 -0.759512 0)
(0 -0.757175 0)
(0 -0.748628 0)
(-1.73487e-16 -0.732204 0)
(0 -0.707485 0)
(0 -0.675272 0)
(0 -0.637363 0)
(0 -0.595354 0)
(0 -0.55192 0)
(0 -0.506745 0)
(9.18576e-17 -0.462857 0)
(1.01152e-16 -0.417826 0)
(0 -0.374449 0)
(0 -0.330753 0)
(0 -0.288158 0)
(0 -0.250104 0)
(0 -0.20938 0)
(0 -0.234642 0)
(0 -0.126095 0)
(0 0 0)
(0 0 0)
(0 0 0)
(0 0 0)
(0 0 0)
(0 0 0)
(0 0 0)
(0 0 0)
(0 0 0)
(0 0 0)
(0 0 0)
(0 0 0)
(0 0 0)
(0 0 0)
(0 0 0)
(0 0 0)
(0 0 0)
(0 0 0)
(0 0 0)
(0 0 0)
(0 0 0)
(0 0 0)
(0 0 0)
(0 0 0)
(0 0 0)
(0 0 0)
(0 0 0)
(0 0 0)
(0 0 0)
(0 0 0)
(0 0 0)
(0 0 0)
(0 0 0)
(0 0 0)
(0 0 0)
(0 0 0)
(0 0 0)
(0 0 0)
(0 0 0)
(0 0 0)
(0 0 0)
(0 0 0)
(0 0 0)
(0 0 0)
(0 0 0)
(0 0 0)
(0 0 0)
(0 0 0)
(0 0 0)
(0 0 0)
(0 0 0)
(0 0 0)
(0 0 0)
(0 0 0)
(0 0 0)
(0 0 0)
(0 0 0)
(0 0 0)
(0 0 0)
(0 0 0)
(0 0 0)
(0 0 0)
(0 0 0)
(0 0 0)
(0 0 0)
(0 0 0)
(0 0 0)
(0 0 0)
(0 0 0)
(0 0 0)
(0 0 0)
(0 0 0)
(0 0 0)
(0 0 0)
(0 0 0)
(0 0 0)
(0 0 0)
(0 0 0)
(0 0 0)
(0 0 0)
(0 0 0)
(0 0 0)
(0 0 0)
(0 0 0)
(0 0 0)
(0 0 0)
(0 0 0)
(0 0 0)
(0 0 0)
(0 0 0)
(0 0 0)
(0 0 0)
(0 0 0)
(0 0 0)
(0 0 0)
(0 0 0)
(0 0 0)
(0 0 0)
(0 0 0)
(0 0 0)
(0 0 0)
(0 0 0)
(0 0 0)
(0 0 0)
(0 0 0)
(0 0 0)
(0 0 0)
(0 0 0)
(0 0 0)
(0 0 0)
(0 0 0)
(0 0 0)
(0 0 0)
(0 0 0)
(0 0 0)
(0 0 0)
(0 0 0)
(0 0 0)
(0 0 0)
(0 0 0)
(0 0 0)
(0 0 0)
(0 0 0)
)
;

boundaryField
{
    inandouthalf11
    {
        type            cyclic;
    }
    inandouthalf12
    {
        type            cyclic;
    }
    inandouthalf21
    {
        type            cyclic;
    }
    inandouthalf22
    {
        type            cyclic;
    }
    inandouthalf31
    {
        type            cyclic;
    }
    inandouthalf32
    {
        type            cyclic;
    }
    inandouthalf41
    {
        type            cyclic;
    }
    inandouthalf42
    {
        type            cyclic;
    }
    top
    {
        type            symmetryPlane;
    }
    walls
    {
        type            calculated;
        value           uniform (0 0 0);
    }
    frontAndBackPlanes
    {
        type            empty;
    }
}


// ************************************************************************* //
