/*--------------------------------*- C++ -*----------------------------------*\
| =========                 |                                                 |
| \\      /  F ield         | OpenFOAM: The Open Source CFD Toolbox           |
|  \\    /   O peration     | Version:  2.4.x                                 |
|   \\  /    A nd           | Web:      www.OpenFOAM.org                      |
|    \\/     M anipulation  |                                                 |
\*---------------------------------------------------------------------------*/
FoamFile
{
    version     2.0;
    format      ascii;
    class       volScalarField;
    location    "10.5";
    object      k_0;
}
// * * * * * * * * * * * * * * * * * * * * * * * * * * * * * * * * * * * * * //

dimensions      [0 2 -2 0 0 0 0];

internalField   nonuniform List<scalar> 
360
(
1e-20
1e-20
1e-20
1e-20
1e-20
1e-20
1e-20
1e-20
1e-20
1e-20
1e-20
1e-20
1e-20
1e-20
1e-20
1e-20
1e-20
1e-20
1e-20
1e-20
1e-20
1e-20
1e-20
1e-20
1e-20
1e-20
1e-20
1e-20
1e-20
1e-20
1e-20
1e-20
1e-20
1e-20
1e-20
1e-20
1e-20
1e-20
1e-20
1e-20
1e-20
1e-20
1e-20
1e-20
1e-20
1e-20
1e-20
1e-20
1e-20
1e-20
1e-20
1e-20
1e-20
1e-20
1e-20
1e-20
1e-20
1e-20
1e-20
1e-20
1e-20
1e-20
1e-20
1e-20
1e-20
1e-20
1e-20
1e-20
1e-20
1e-20
1e-20
1e-20
1e-20
1e-20
1e-20
1e-20
1e-20
1e-20
1e-20
1e-20
1e-20
1e-20
1e-20
1e-20
1e-20
1e-20
1e-20
1e-20
1e-20
1e-20
1e-20
1e-20
1e-20
1e-20
1e-20
1e-20
1e-20
1e-20
1e-20
1e-20
1e-20
1e-20
1e-20
1e-20
1e-20
1e-20
1e-20
1e-20
1e-20
1e-20
1e-20
1e-20
1e-20
1e-20
1e-20
1e-20
1e-20
1e-20
1e-20
1e-20
1e-20
1e-20
1e-20
1e-20
1e-20
1e-20
1.1287e-20
2.84221e-20
7.71318e-20
2.04366e-19
5.24526e-19
1.30301e-18
3.13259e-18
7.29681e-18
1.65217e-17
3.66018e-17
8.06296e-17
1.84503e-16
4.80283e-16
1.58274e-15
6.76514e-15
3.54488e-14
2.46204e-13
1.78294e-12
1.48192e-11
1.82436e-10
3.07444e-09
6.79647e-08
1.9383e-06
7.13392e-05
0.000849669
0.00141716
0.00193171
0.00239287
0.0028124
0.00320019
0.00356215
0.00390172
0.004221
0.00452145
0.00480415
0.00507
0.00531978
0.00555419
0.00577388
0.00597947
0.00617152
0.0063506
0.00651724
0.00667194
0.00681518
0.00694744
0.00706915
0.00718074
0.0072826
0.00737514
0.0074587
0.00753366
0.00760034
0.00765906
0.00771014
0.00775385
0.00779049
0.00782032
0.00784359
0.00786056
0.00787145
0.00787649
0.0078759
0.00786989
0.00785865
0.00784237
0.00782125
0.00779547
0.00776518
0.00773057
0.0076918
0.00764902
0.00760239
0.00755205
0.00749816
0.00744027
0.00737775
0.00731052
0.00723848
0.00716154
0.00707959
0.00699256
0.00690033
0.00680282
0.00669994
0.00659161
0.00647774
0.00635829
0.00623318
0.00610238
0.00596587
0.00582363
0.0056757
0.0055221
0.00536291
0.00519823
0.0050282
0.00485302
0.00467292
0.0044882
0.00429924
0.00410647
0.00391045
0.0037118
0.00351127
0.00330972
0.00310814
0.00290765
0.00270949
0.00251503
0.00232574
0.00214314
0.00196881
0.00180425
0.00165081
0.00150959
0.00138135
0.00126643
0.00116468
0.00107554
0.000998047
0.000930983
0.000872961
0.000822553
0.000778373
0.000739131
0.000703667
0.000670959
0.000640124
0.000610404
0.000581166
0.00055188
0.000522121
0.000491553
0.000459928
0.000427082
0.00039293
0.000357465
0.000320763
0.000282981
0.000244366
0.000205265
0.000166143
0.000127612
9.04881e-05
5.58951e-05
2.54771e-05
4.77612e-06
1.73188e-07
2.075e-09
2.17451e-11
2.15487e-13
2.02301e-15
1.80093e-17
1.588e-19
1.02467e-20
1e-20
1e-20
1e-20
1e-20
1e-20
1e-20
1e-20
1e-20
1e-20
1e-20
1e-20
1e-20
1e-20
1e-20
1e-20
1e-20
1e-20
1e-20
1e-20
1e-20
1e-20
1e-20
1e-20
1e-20
1e-20
1e-20
1e-20
1e-20
1e-20
1e-20
1e-20
1e-20
1e-20
1e-20
1e-20
1e-20
1e-20
1e-20
1e-20
1e-20
1e-20
1e-20
1e-20
1e-20
1e-20
1e-20
1e-20
1e-20
1e-20
1e-20
1e-20
1e-20
1e-20
1e-20
1e-20
1e-20
1e-20
1e-20
1e-20
1e-20
1e-20
1e-20
1e-20
1e-20
1e-20
1e-20
1e-20
1e-20
1e-20
1e-20
1e-20
1e-20
1e-20
1e-20
1e-20
1e-20
1e-20
1e-20
)
;

boundaryField
{
    inandouthalf11
    {
        type            cyclic;
    }
    inandouthalf12
    {
        type            cyclic;
    }
    inandouthalf21
    {
        type            cyclic;
    }
    inandouthalf22
    {
        type            cyclic;
    }
    inandouthalf31
    {
        type            cyclic;
    }
    inandouthalf32
    {
        type            cyclic;
    }
    inandouthalf41
    {
        type            cyclic;
    }
    inandouthalf42
    {
        type            cyclic;
    }
    top
    {
        type            symmetryPlane;
    }
    walls
    {
        type            zeroGradient;
    }
    frontAndBackPlanes
    {
        type            empty;
    }
}


// ************************************************************************* //
