/*--------------------------------*- C++ -*----------------------------------*\
| =========                 |                                                 |
| \\      /  F ield         | OpenFOAM: The Open Source CFD Toolbox           |
|  \\    /   O peration     | Version:  2.4.x                                 |
|   \\  /    A nd           | Web:      www.OpenFOAM.org                      |
|    \\/     M anipulation  |                                                 |
\*---------------------------------------------------------------------------*/
FoamFile
{
    version     2.0;
    format      ascii;
    class       volScalarField;
    location    "10.5";
    object      mua;
}
// * * * * * * * * * * * * * * * * * * * * * * * * * * * * * * * * * * * * * //

dimensions      [1 -1 -1 0 0 0 0];

internalField   nonuniform List<scalar> 
360
(
1.32574e+07
9.54734e+06
1.2081e+07
1.26239e+07
1.22655e+07
1.2301e+07
1.26004e+07
1.29199e+07
1.32022e+07
1.34499e+07
1.36703e+07
1.38698e+07
1.40467e+07
1.41966e+07
1.43144e+07
1.43964e+07
1.44426e+07
1.44549e+07
1.44337e+07
1.43799e+07
1.4298e+07
1.41875e+07
1.40519e+07
1.38946e+07
1.37187e+07
1.35277e+07
1.33241e+07
1.3109e+07
1.28867e+07
1.266e+07
1.24294e+07
1.21967e+07
1.19652e+07
1.17323e+07
1.15032e+07
1.12774e+07
1.10557e+07
1.08364e+07
1.06218e+07
1.04147e+07
1.02098e+07
1.00115e+07
9.82024e+06
9.63173e+06
9.4492e+06
9.2717e+06
9.10029e+06
8.93671e+06
8.77528e+06
8.61689e+06
8.46635e+06
8.31988e+06
8.17757e+06
8.03961e+06
7.90659e+06
7.77621e+06
7.65131e+06
7.52951e+06
7.41299e+06
7.30091e+06
7.18968e+06
7.08246e+06
6.97745e+06
6.87618e+06
6.77857e+06
6.6843e+06
6.59216e+06
6.50303e+06
6.41828e+06
6.33659e+06
6.25454e+06
6.17474e+06
6.09942e+06
6.02474e+06
5.95129e+06
5.87976e+06
5.81218e+06
5.74728e+06
5.68398e+06
5.62268e+06
5.56367e+06
5.50572e+06
5.44855e+06
5.39248e+06
5.33757e+06
5.28406e+06
5.23217e+06
5.1824e+06
5.13464e+06
5.08848e+06
5.04366e+06
4.9998e+06
4.95637e+06
4.91322e+06
4.87036e+06
4.82787e+06
4.78589e+06
4.74453e+06
4.70374e+06
4.66338e+06
4.62317e+06
4.58277e+06
4.54177e+06
4.49974e+06
4.45626e+06
4.41084e+06
4.36295e+06
4.31203e+06
4.2575e+06
4.19879e+06
4.1355e+06
4.06738e+06
3.9945e+06
3.91728e+06
3.83658e+06
3.7537e+06
3.67035e+06
3.58858e+06
3.51055e+06
3.43836e+06
3.37366e+06
3.31727e+06
3.26862e+06
3.22503e+06
3.18087e+06
3.12696e+06
3.05069e+06
2.93793e+06
2.7772e+06
2.56517e+06
2.31052e+06
2.03298e+06
1.75894e+06
1.51809e+06
1.3434e+06
1.27375e+06
1.36975e+06
1.78199e+06
3.03427e+06
7.57165e+06
3.08126e+07
8.26655e+07
5658.67
2872.06
2068
1146.01
522.925
151.532
2.88667
0.00833784
0.00214951
0.00241236
0.00274864
0.00303742
0.00328222
0.00349394
0.00368049
0.00384711
0.00399734
0.00413373
0.00425818
0.00437215
0.00447681
0.00457311
0.00466185
0.00474371
0.00481926
0.004889
0.00495337
0.00501277
0.00506752
0.00511795
0.00516432
0.00520687
0.00524584
0.00528141
0.00531378
0.0053431
0.00536952
0.00539318
0.00541419
0.00543268
0.00544872
0.00546243
0.00547388
0.00548314
0.00549029
0.00549538
0.00549848
0.00549963
0.0054989
0.00549631
0.00549193
0.00548578
0.00547791
0.00546835
0.00545715
0.00544434
0.00542995
0.00541403
0.00539662
0.00537755
0.0053566
0.0053337
0.00530878
0.00528178
0.00525263
0.00522123
0.0051875
0.00515136
0.0051127
0.00507141
0.00502739
0.0049805
0.00493059
0.00487752
0.0048211
0.00476113
0.00469737
0.00462956
0.00455737
0.00448044
0.00439832
0.00431049
0.00421628
0.0041149
0.00400536
0.00388638
0.00375632
0.00361297
0.00345327
0.00327279
0.00306471
0.00281756
0.00250924
0.00208545
0
0
0
0
0
0
0
0
0
0
0
0
0
0
0
0
0
0
0
0
0
0
0
0
0
0
0
0
0
0
0
0
0
0
0
0
0
0
0
0
0
0
0
0
0
0
0
0
0
0
0
0
0
0
0
0
0
0
0
0
0
0
0
0
0
0
0
0
0
0
0
0
0
0
0
0
0
0
0
0
0
0
0
0
0
0
0
0
0
0
0
0
0
0
0
0
0
0
0
0
0
0
0
0
0
0
0
0
0
0
0
0
0
0
0
0
0
0
0
0
0
0
0
0
)
;

boundaryField
{
    inandouthalf11
    {
        type            cyclic;
    }
    inandouthalf12
    {
        type            cyclic;
    }
    inandouthalf21
    {
        type            cyclic;
    }
    inandouthalf22
    {
        type            cyclic;
    }
    inandouthalf31
    {
        type            cyclic;
    }
    inandouthalf32
    {
        type            cyclic;
    }
    inandouthalf41
    {
        type            cyclic;
    }
    inandouthalf42
    {
        type            cyclic;
    }
    top
    {
        type            symmetryPlane;
    }
    walls
    {
        type            calculated;
        value           uniform 1e+30;
    }
    frontAndBackPlanes
    {
        type            empty;
    }
}


// ************************************************************************* //
