/*--------------------------------*- C++ -*----------------------------------*\
| =========                 |                                                 |
| \\      /  F ield         | OpenFOAM: The Open Source CFD Toolbox           |
|  \\    /   O peration     | Version:  2.4.x                                 |
|   \\  /    A nd           | Web:      www.OpenFOAM.org                      |
|    \\/     M anipulation  |                                                 |
\*---------------------------------------------------------------------------*/
FoamFile
{
    version     2.0;
    format      ascii;
    class       volVectorField;
    location    "10.5";
    object      U;
}
// * * * * * * * * * * * * * * * * * * * * * * * * * * * * * * * * * * * * * //

dimensions      [0 1 -1 0 0 0 0];

internalField   nonuniform List<vector> 
360
(
(-0.000106084 2.07928e-09 0)
(-0.000105262 -4.53158e-10 0)
(-0.00010516 -3.99129e-10 0)
(-0.000105266 -1.73667e-11 0)
(-0.000105317 2.90085e-11 0)
(-0.000105335 -2.5813e-11 0)
(-0.000105356 -4.31571e-11 0)
(-0.000105383 -3.77819e-11 0)
(-0.000105411 -3.18313e-11 0)
(-0.000105439 -2.79938e-11 0)
(-0.000105468 -2.51434e-11 0)
(-0.000105496 -2.28187e-11 0)
(-0.000105524 -2.03887e-11 0)
(-0.000105553 -1.77646e-11 0)
(-0.000105581 -1.49798e-11 0)
(-0.000105611 -1.22047e-11 0)
(-0.00010564 -9.63125e-12 0)
(-0.00010567 -7.23755e-12 0)
(-0.000105699 -5.00786e-12 0)
(-0.00010573 -2.80656e-12 0)
(-0.00010576 -9.4557e-13 0)
(-0.000105791 9.89988e-13 0)
(-0.000105822 2.70613e-12 0)
(-0.000105853 4.20528e-12 0)
(-0.000105885 5.56781e-12 0)
(-0.000105917 6.78984e-12 0)
(-0.000105949 7.84314e-12 0)
(-0.000105982 8.91299e-12 0)
(-0.000106015 9.67974e-12 0)
(-0.000106048 1.03411e-11 0)
(-0.000106082 1.08746e-11 0)
(-0.000106116 1.15766e-11 0)
(-0.000106151 1.16344e-11 0)
(-0.000106186 1.23432e-11 0)
(-0.000106221 1.22233e-11 0)
(-0.000106257 1.24627e-11 0)
(-0.000106293 1.25039e-11 0)
(-0.000106329 1.25616e-11 0)
(-0.000106366 1.2752e-11 0)
(-0.000106403 1.21008e-11 0)
(-0.000106441 1.24507e-11 0)
(-0.000106479 1.21757e-11 0)
(-0.000106518 1.15286e-11 0)
(-0.000106557 1.19154e-11 0)
(-0.000106596 1.13792e-11 0)
(-0.000106636 1.09636e-11 0)
(-0.000106677 1.07613e-11 0)
(-0.000106717 9.91781e-12 0)
(-0.000106759 9.90265e-12 0)
(-0.000106801 1.00549e-11 0)
(-0.000106843 8.73059e-12 0)
(-0.000106886 8.73081e-12 0)
(-0.000106929 8.0936e-12 0)
(-0.000106973 7.97359e-12 0)
(-0.000107017 6.86681e-12 0)
(-0.000107062 7.22529e-12 0)
(-0.000107107 5.88088e-12 0)
(-0.000107154 5.72419e-12 0)
(-0.0001072 5.09834e-12 0)
(-0.000107247 3.89288e-12 0)
(-0.000107295 4.61041e-12 0)
(-0.000107343 3.24534e-12 0)
(-0.000107393 3.27099e-12 0)
(-0.000107442 2.28299e-12 0)
(-0.000107493 1.76155e-12 0)
(-0.000107543 9.53036e-13 0)
(-0.000107595 5.37231e-13 0)
(-0.000107648 -2.21767e-13 0)
(-0.000107701 -9.64799e-13 0)
(-0.000107754 -1.99064e-12 0)
(-0.000107809 -1.85296e-12 0)
(-0.000107864 -2.06735e-12 0)
(-0.00010792 -3.98149e-12 0)
(-0.000107977 -3.4953e-12 0)
(-0.000108035 -4.46334e-12 0)
(-0.000108093 -4.719e-12 0)
(-0.000108153 -6.16899e-12 0)
(-0.000108213 -6.89231e-12 0)
(-0.000108274 -7.45135e-12 0)
(-0.000108336 -8.00555e-12 0)
(-0.0001084 -8.9594e-12 0)
(-0.000108464 -9.31949e-12 0)
(-0.000108529 -9.69571e-12 0)
(-0.000108595 -1.0317e-11 0)
(-0.000108662 -1.08276e-11 0)
(-0.000108731 -1.15849e-11 0)
(-0.0001088 -1.22289e-11 0)
(-0.000108871 -1.31335e-11 0)
(-0.000108943 -1.39785e-11 0)
(-0.000109017 -1.46388e-11 0)
(-0.000109091 -1.5254e-11 0)
(-0.000109167 -1.58343e-11 0)
(-0.000109244 -1.62179e-11 0)
(-0.000109323 -1.66162e-11 0)
(-0.000109404 -1.70561e-11 0)
(-0.000109486 -1.75266e-11 0)
(-0.000109569 -1.80384e-11 0)
(-0.000109654 -1.85851e-11 0)
(-0.000109741 -1.91239e-11 0)
(-0.00010983 -1.96022e-11 0)
(-0.000109921 -2.00148e-11 0)
(-0.000110014 -2.03393e-11 0)
(-0.000110108 -2.05532e-11 0)
(-0.000110205 -2.0667e-11 0)
(-0.000110304 -2.06772e-11 0)
(-0.000110405 -2.05669e-11 0)
(-0.000110509 -2.03266e-11 0)
(-0.000110615 -1.99477e-11 0)
(-0.000110724 -1.94272e-11 0)
(-0.000110836 -1.87799e-11 0)
(-0.00011095 -1.80413e-11 0)
(-0.000111067 -1.7269e-11 0)
(-0.000111188 -1.65463e-11 0)
(-0.000111311 -1.59824e-11 0)
(-0.000111438 -1.57083e-11 0)
(-0.000111569 -1.58694e-11 0)
(-0.000111703 -1.66091e-11 0)
(-0.000111841 -1.80446e-11 0)
(-0.000111983 -2.02331e-11 0)
(-0.00011213 -2.31334e-11 0)
(-0.000112281 -2.65629e-11 0)
(-0.000112437 -3.01555e-11 0)
(-0.000112598 -3.33356e-11 0)
(-0.000112765 -3.53223e-11 0)
(-0.000112938 -3.5177e-11 0)
(-0.000113116 -3.19047e-11 0)
(-0.000113302 -2.45904e-11 0)
(-0.000113494 -1.25229e-11 0)
(-0.000113695 4.6954e-12 0)
(-0.000113903 2.69151e-11 0)
(-0.000114121 5.28162e-11 0)
(-0.000114347 7.86108e-11 0)
(-0.000114584 9.6079e-11 0)
(-0.000114834 8.90952e-11 0)
(-0.000115099 2.88227e-11 0)
(-0.000115381 -1.148e-10 0)
(-0.000115678 -3.21085e-10 0)
(-0.000115996 -4.85671e-10 0)
(-0.000116351 -4.85515e-10 0)
(-0.000116759 -2.81204e-10 0)
(-0.000117202 -1.41932e-10 0)
(-0.000117719 -1.55444e-08 0)
(-0.000121604 1.91512e-07 0)
(-0.000121874 4.06622e-09 0)
(-0.000123703 -1.89225e-09 0)
(-0.000126439 7.17636e-08 0)
(-0.000130277 1.487e-07 0)
(-0.000137013 1.0759e-06 0)
(-0.00015947 -2.15113e-06 0)
(-0.00171009 1.35324e-05 0)
(-0.0815021 0.00023744 0)
(-0.105568 -4.78826e-05 0)
(-0.111596 2.58627e-05 0)
(-0.112698 5.19461e-06 0)
(-0.111758 1.42836e-06 0)
(-0.109699 7.62081e-07 0)
(-0.106921 5.41942e-07 0)
(-0.103641 3.24828e-07 0)
(-0.0999919 1.76726e-07 0)
(-0.0960614 9.72846e-08 0)
(-0.0919139 5.45081e-08 0)
(-0.0875968 2.86882e-08 0)
(-0.0831463 1.21453e-08 0)
(-0.0785914 1.50715e-09 0)
(-0.0739547 -5.27866e-09 0)
(-0.0692551 -9.59289e-09 0)
(-0.0645077 -1.22807e-08 0)
(-0.0597252 -1.38957e-08 0)
(-0.0549182 -1.47795e-08 0)
(-0.0500956 -1.51709e-08 0)
(-0.045265 -1.52226e-08 0)
(-0.0404326 -1.50451e-08 0)
(-0.0356039 -1.4712e-08 0)
(-0.0307837 -1.42751e-08 0)
(-0.0259758 -1.37722e-08 0)
(-0.0211839 -1.32287e-08 0)
(-0.0164108 -1.26633e-08 0)
(-0.0116592 -1.20892e-08 0)
(-0.00693125 -1.1516e-08 0)
(-0.00222893 -1.09499e-08 0)
(0.00244609 -1.03959e-08 0)
(0.00709234 -9.85652e-09 0)
(0.0117085 -9.33435e-09 0)
(0.0162936 -8.83012e-09 0)
(0.0208465 -8.34484e-09 0)
(0.0253664 -7.87828e-09 0)
(0.0298526 -7.43053e-09 0)
(0.0343045 -7.00106e-09 0)
(0.0387215 -6.58945e-09 0)
(0.0431031 -6.19468e-09 0)
(0.0474488 -5.81621e-09 0)
(0.0517584 -5.45318e-09 0)
(0.0560314 -5.10472e-09 0)
(0.0602676 -4.76998e-09 0)
(0.0644667 -4.44807e-09 0)
(0.0686285 -4.13807e-09 0)
(0.0727528 -3.83911e-09 0)
(0.0768393 -3.55052e-09 0)
(0.0808879 -3.27231e-09 0)
(0.0848985 -3.00452e-09 0)
(0.0888709 -2.74401e-09 0)
(0.0928452 -2.58333e-09 0)
(0.0968604 -2.43757e-09 0)
(0.100916 -2.28367e-09 0)
(0.105012 -2.13268e-09 0)
(0.109148 -1.9906e-09 0)
(0.113323 -1.86113e-09 0)
(0.117537 -1.74707e-09 0)
(0.121788 -1.64959e-09 0)
(0.126075 -1.56836e-09 0)
(0.130398 -1.50148e-09 0)
(0.134755 -1.44475e-09 0)
(0.139143 -1.39243e-09 0)
(0.143562 -1.33889e-09 0)
(0.14801 -1.27934e-09 0)
(0.152483 -1.20989e-09 0)
(0.156979 -1.12793e-09 0)
(0.161495 -1.03333e-09 0)
(0.166027 -9.29065e-10 0)
(0.170572 -8.19693e-10 0)
(0.175126 -7.1032e-10 0)
(0.179682 -6.03449e-10 0)
(0.184236 -5.01691e-10 0)
(0.188781 -4.06155e-10 0)
(0.19331 -3.21337e-10 0)
(0.197815 -2.45875e-10 0)
(0.202288 -1.89427e-10 0)
(0.206718 -1.35517e-10 0)
(0.211095 -1.06576e-10 0)
(0.215406 -6.84217e-11 0)
(0.219637 -5.53891e-11 0)
(0.223774 -2.78145e-11 0)
(0.227799 -3.66451e-11 0)
(0.231694 6.006e-11 0)
(0.235439 -2.32146e-10 0)
(0.239013 4.08327e-10 0)
(0.242394 -5.07793e-10 0)
(0.245558 3.2145e-11 0)
(0.248482 -2.04814e-10 0)
(0.251144 -1.19033e-10 0)
(0.253526 -5.31406e-11 0)
(0.255611 -5.69726e-11 0)
(0.257392 5.18695e-11 0)
(0.258865 -1.03092e-10 0)
(0.260034 1.26318e-10 0)
(0.26091 -1.32977e-10 0)
(0.261512 1.27236e-10 0)
(0.261858 -1.02756e-10 0)
(0.261974 7.56016e-11 0)
(0.261881 -4.59841e-11 0)
(0.261601 3.746e-11 0)
(0.261157 1.01356e-11 0)
(0.260565 -4.65377e-12 0)
(0.259843 -5.15493e-12 0)
(0.259006 -3.8307e-12 0)
(0.258066 -3.42943e-12 0)
(0.257037 -3.32629e-12 0)
(0.255931 -3.18939e-12 0)
(0.254759 -3.01872e-12 0)
(0.253532 -2.84342e-12 0)
(0.252261 -2.67137e-12 0)
(0.250958 -2.50002e-12 0)
(0.249634 -2.33108e-12 0)
(0.2483 -2.20364e-12 0)
(0.24697 -2.18501e-12 0)
(0.245657 -1.97972e-12 0)
(0.244374 2.02568e-12 0)
(0.243137 -1.66304e-11 0)
(0.241963 3.40846e-11 0)
(0.240871 -6.96835e-11 0)
(0.239882 1.1114e-10 0)
(0.239022 -1.70434e-10 0)
(0.238323 2.34141e-10 0)
(0.237885 -3.10924e-10 0)
(0.237793 3.86993e-10 0)
(0.23779 -4.70675e-10 0)
(0.237789 5.51226e-10 0)
(0.237789 -6.38104e-10 0)
(0.237789 7.22282e-10 0)
(0.237789 -8.12477e-10 0)
(0.237789 9.00559e-10 0)
(0.237789 -9.94348e-10 0)
(0.237789 1.08654e-09 0)
(0.237789 -1.18416e-09 0)
(0.237789 1.28067e-09 0)
(0.237789 -1.38231e-09 0)
(0.237789 1.4833e-09 0)
(0.237789 -1.58905e-09 0)
(0.237789 1.69471e-09 0)
(0.237789 -1.80471e-09 0)
(0.237789 1.91512e-09 0)
(0.237789 -2.02947e-09 0)
(0.237789 2.1447e-09 0)
(0.237789 -2.26344e-09 0)
(0.237789 2.38354e-09 0)
(0.237789 -2.50672e-09 0)
(0.237789 2.63167e-09 0)
(0.237789 -2.75941e-09 0)
(0.237789 2.88909e-09 0)
(0.237789 -3.0214e-09 0)
(0.237789 3.15576e-09 0)
(0.237789 -3.29259e-09 0)
(0.237789 3.43153e-09 0)
(0.237789 -3.57279e-09 0)
(0.237789 3.71619e-09 0)
(0.237789 -3.86175e-09 0)
(0.237789 4.00944e-09 0)
(0.237789 -4.15912e-09 0)
(0.237789 4.31085e-09 0)
(0.237789 -4.46441e-09 0)
(0.237789 4.05708e-09 0)
(0.237789 -4.12045e-09 0)
(0.237789 4.18321e-09 0)
(0.237789 -4.24506e-09 0)
(0.237789 4.30634e-09 0)
(0.237789 -4.36666e-09 0)
(0.237789 4.42643e-09 0)
(0.237789 -4.48521e-09 0)
(0.237789 4.54345e-09 0)
(0.237789 -4.60067e-09 0)
(0.237789 4.65734e-09 0)
(0.237789 -4.71298e-09 0)
(0.237789 4.76807e-09 0)
(0.237789 -4.8221e-09 0)
(0.237789 4.87558e-09 0)
(0.237789 -4.92798e-09 0)
(0.237789 4.97982e-09 0)
(0.237789 -5.03054e-09 0)
(0.237789 5.08078e-09 0)
(0.237789 -5.12967e-09 0)
(0.237789 5.17839e-09 0)
(0.237789 -5.22531e-09 0)
(0.237789 5.27251e-09 0)
(0.237789 -5.31742e-09 0)
(0.237789 5.36303e-09 0)
(0.237789 -5.40592e-09 0)
(0.237789 5.4498e-09 0)
(0.237789 -5.49061e-09 0)
(0.237789 5.53277e-09 0)
(0.237789 -5.57146e-09 0)
(0.237789 5.61164e-09 0)
(0.237789 -5.64824e-09 0)
(0.237789 5.68628e-09 0)
(0.237789 -5.72084e-09 0)
(0.237789 5.75641e-09 0)
(0.237789 -5.78878e-09 0)
(0.237789 5.82194e-09 0)
(0.237789 -5.852e-09 0)
(0.237789 5.88223e-09 0)
(0.237789 -5.91004e-09 0)
(0.237789 5.93692e-09 0)
(0.237789 -5.96252e-09 0)
(0.237789 5.9854e-09 0)
(0.237789 -6.00878e-09 0)
(0.237789 6.02678e-09 0)
(0.237789 -6.04743e-09 0)
(0.237789 6.06002e-09 0)
(0.237789 -6.07691e-09 0)
(0.237789 6.08219e-09 0)
(0.237789 -6.09042e-09 0)
)
;

boundaryField
{
    inandouthalf11
    {
        type            cyclic;
    }
    inandouthalf12
    {
        type            cyclic;
    }
    inandouthalf21
    {
        type            cyclic;
    }
    inandouthalf22
    {
        type            cyclic;
    }
    inandouthalf31
    {
        type            cyclic;
    }
    inandouthalf32
    {
        type            cyclic;
    }
    inandouthalf41
    {
        type            cyclic;
    }
    inandouthalf42
    {
        type            cyclic;
    }
    top
    {
        type            symmetryPlane;
    }
    walls
    {
        type            calculated;
        value           uniform (0 0 0);
    }
    frontAndBackPlanes
    {
        type            empty;
    }
}


// ************************************************************************* //
