/*--------------------------------*- C++ -*----------------------------------*\
| =========                 |                                                 |
| \\      /  F ield         | OpenFOAM: The Open Source CFD Toolbox           |
|  \\    /   O peration     | Version:  2.4.x                                 |
|   \\  /    A nd           | Web:      www.OpenFOAM.org                      |
|    \\/     M anipulation  |                                                 |
\*---------------------------------------------------------------------------*/
FoamFile
{
    version     2.0;
    format      ascii;
    class       volVectorField;
    location    "10.5";
    object      Ua_0;
}
// * * * * * * * * * * * * * * * * * * * * * * * * * * * * * * * * * * * * * //

dimensions      [0 1 -1 0 0 0 0];

internalField   nonuniform List<vector> 
360
(
(-1.32434e-32 -1.03581e-31 0)
(-2.29477e-09 -1.27053e-08 0)
(-4.68512e-09 -2.24619e-08 0)
(-6.75221e-09 -3.08091e-08 0)
(-8.77892e-09 -3.93572e-08 0)
(-1.08072e-08 -4.80079e-08 0)
(-1.27837e-08 -5.6445e-08 0)
(-1.46887e-08 -6.46103e-08 0)
(-1.65272e-08 -7.25386e-08 0)
(-1.83073e-08 -8.02623e-08 0)
(-2.00354e-08 -8.78066e-08 0)
(-2.17167e-08 -9.51896e-08 0)
(-2.33553e-08 -1.02427e-07 0)
(-2.49555e-08 -1.09534e-07 0)
(-2.65217e-08 -1.16529e-07 0)
(-2.80584e-08 -1.23429e-07 0)
(-2.957e-08 -1.30254e-07 0)
(-3.10606e-08 -1.3702e-07 0)
(-3.25339e-08 -1.43743e-07 0)
(-3.39933e-08 -1.50438e-07 0)
(-3.54422e-08 -1.57119e-07 0)
(-3.68834e-08 -1.63798e-07 0)
(-3.83197e-08 -1.70489e-07 0)
(-3.97535e-08 -1.77202e-07 0)
(-4.11871e-08 -1.83948e-07 0)
(-4.26222e-08 -1.90736e-07 0)
(-4.40606e-08 -1.97573e-07 0)
(-4.55037e-08 -2.04468e-07 0)
(-4.69528e-08 -2.11427e-07 0)
(-4.84088e-08 -2.18456e-07 0)
(-4.98726e-08 -2.25558e-07 0)
(-5.13449e-08 -2.32738e-07 0)
(-5.2826e-08 -2.4e-07 0)
(-5.43165e-08 -2.47346e-07 0)
(-5.58166e-08 -2.54779e-07 0)
(-5.73262e-08 -2.623e-07 0)
(-5.88454e-08 -2.6991e-07 0)
(-6.03741e-08 -2.77609e-07 0)
(-6.19122e-08 -2.854e-07 0)
(-6.34593e-08 -2.9328e-07 0)
(-6.50151e-08 -3.0125e-07 0)
(-6.65793e-08 -3.0931e-07 0)
(-6.81512e-08 -3.17457e-07 0)
(-6.97304e-08 -3.25691e-07 0)
(-7.13165e-08 -3.34011e-07 0)
(-7.2909e-08 -3.42416e-07 0)
(-7.45072e-08 -3.50904e-07 0)
(-7.61101e-08 -3.5947e-07 0)
(-7.77172e-08 -3.68113e-07 0)
(-7.93281e-08 -3.76834e-07 0)
(-8.0942e-08 -3.85629e-07 0)
(-8.25581e-08 -3.94494e-07 0)
(-8.41757e-08 -4.03427e-07 0)
(-8.5794e-08 -4.12427e-07 0)
(-8.74124e-08 -4.2149e-07 0)
(-8.903e-08 -4.30613e-07 0)
(-9.06462e-08 -4.39794e-07 0)
(-9.22601e-08 -4.49029e-07 0)
(-9.38708e-08 -4.58316e-07 0)
(-9.54774e-08 -4.67647e-07 0)
(-9.70791e-08 -4.77022e-07 0)
(-9.86756e-08 -4.8644e-07 0)
(-1.00266e-07 -4.95896e-07 0)
(-1.0185e-07 -5.05388e-07 0)
(-1.03425e-07 -5.14912e-07 0)
(-1.04993e-07 -5.24463e-07 0)
(-1.06551e-07 -5.34038e-07 0)
(-1.08099e-07 -5.43635e-07 0)
(-1.09636e-07 -5.53247e-07 0)
(-1.11161e-07 -5.62869e-07 0)
(-1.12674e-07 -5.725e-07 0)
(-1.14173e-07 -5.82139e-07 0)
(-1.15659e-07 -5.91779e-07 0)
(-1.17131e-07 -6.01417e-07 0)
(-1.18587e-07 -6.11051e-07 0)
(-1.20028e-07 -6.2068e-07 0)
(-1.21452e-07 -6.30296e-07 0)
(-1.22859e-07 -6.39895e-07 0)
(-1.24248e-07 -6.49471e-07 0)
(-1.25618e-07 -6.59023e-07 0)
(-1.26969e-07 -6.68544e-07 0)
(-1.283e-07 -6.78032e-07 0)
(-1.2961e-07 -6.87484e-07 0)
(-1.309e-07 -6.96898e-07 0)
(-1.32168e-07 -7.0627e-07 0)
(-1.33414e-07 -7.15598e-07 0)
(-1.34638e-07 -7.24878e-07 0)
(-1.35839e-07 -7.34106e-07 0)
(-1.37016e-07 -7.43276e-07 0)
(-1.38169e-07 -7.52385e-07 0)
(-1.39297e-07 -7.61427e-07 0)
(-1.404e-07 -7.70401e-07 0)
(-1.41477e-07 -7.79302e-07 0)
(-1.42529e-07 -7.8813e-07 0)
(-1.43554e-07 -7.96883e-07 0)
(-1.44553e-07 -8.05559e-07 0)
(-1.45526e-07 -8.14154e-07 0)
(-1.46472e-07 -8.22668e-07 0)
(-1.4739e-07 -8.31097e-07 0)
(-1.4828e-07 -8.39439e-07 0)
(-1.49143e-07 -8.47691e-07 0)
(-1.49978e-07 -8.55852e-07 0)
(-1.50784e-07 -8.63922e-07 0)
(-1.51562e-07 -8.71899e-07 0)
(-1.52312e-07 -8.79785e-07 0)
(-1.53032e-07 -8.8758e-07 0)
(-1.53725e-07 -8.95287e-07 0)
(-1.54388e-07 -9.02909e-07 0)
(-1.55022e-07 -9.10449e-07 0)
(-1.55628e-07 -9.17912e-07 0)
(-1.56205e-07 -9.25306e-07 0)
(-1.56752e-07 -9.32635e-07 0)
(-1.57269e-07 -9.39907e-07 0)
(-1.57756e-07 -9.47129e-07 0)
(-1.58212e-07 -9.54306e-07 0)
(-1.58634e-07 -9.61443e-07 0)
(-1.59023e-07 -9.6854e-07 0)
(-1.59375e-07 -9.75596e-07 0)
(-1.59689e-07 -9.82603e-07 0)
(-1.59961e-07 -9.89551e-07 0)
(-1.60189e-07 -9.96423e-07 0)
(-1.60372e-07 -1.0032e-06 0)
(-1.60506e-07 -1.00986e-06 0)
(-1.60589e-07 -1.01639e-06 0)
(-1.60621e-07 -1.02277e-06 0)
(-1.606e-07 -1.02902e-06 0)
(-1.60523e-07 -1.03516e-06 0)
(-1.60386e-07 -1.04124e-06 0)
(-1.60181e-07 -1.04736e-06 0)
(-1.59893e-07 -1.05363e-06 0)
(-1.595e-07 -1.0602e-06 0)
(-1.58964e-07 -1.06726e-06 0)
(-1.58238e-07 -1.07499e-06 0)
(-1.57258e-07 -1.08353e-06 0)
(-1.55969e-07 -1.09288e-06 0)
(-1.54372e-07 -1.10265e-06 0)
(-1.52602e-07 -1.11189e-06 0)
(-1.50967e-07 -1.11925e-06 0)
(-1.49811e-07 -1.12381e-06 0)
(-1.49267e-07 -1.12575e-06 0)
(-1.49138e-07 -1.12621e-06 0)
(-1.49128e-07 -1.12629e-06 0)
(-1.49181e-07 -1.12639e-06 0)
(-8.55984e-07 -2.29652e-06 0)
(-1.94748e-06 -3.48092e-06 0)
(-3.42431e-06 -4.89621e-06 0)
(-5.89114e-06 -6.99792e-06 0)
(-1.10376e-05 -1.0055e-05 0)
(-2.93966e-05 -1.45839e-05 0)
(-0.000784115 -4.3245e-05 0)
(-0.0672797 -0.0015351 0)
(-0.0953041 -0.00472427 0)
(-0.10336 -0.00793031 0)
(-0.105325 -0.010834 0)
(-0.104688 -0.0131744 0)
(-0.102684 -0.0149145 0)
(-0.0998592 -0.0161964 0)
(-0.0964926 -0.0171383 0)
(-0.0927462 -0.0178193 0)
(-0.0887221 -0.0182962 0)
(-0.084489 -0.018612 0)
(-0.0800959 -0.0187995 0)
(-0.0755791 -0.0188842 0)
(-0.0709663 -0.0188855 0)
(-0.0662792 -0.0188191 0)
(-0.0615349 -0.0186971 0)
(-0.0567476 -0.0185294 0)
(-0.0519285 -0.0183241 0)
(-0.0470873 -0.0180875 0)
(-0.0422319 -0.017825 0)
(-0.037369 -0.0175411 0)
(-0.0325042 -0.0172393 0)
(-0.0276426 -0.0169226 0)
(-0.0227884 -0.0165937 0)
(-0.0179453 -0.0162547 0)
(-0.0131166 -0.0159074 0)
(-0.00830552 -0.0155534 0)
(-0.00351466 -0.0151939 0)
(0.00125339 -0.0148301 0)
(0.00599615 -0.0144631 0)
(0.0107113 -0.0140936 0)
(0.0153965 -0.0137225 0)
(0.0200495 -0.0133504 0)
(0.0246679 -0.0129778 0)
(0.0292494 -0.0126055 0)
(0.0337915 -0.0122338 0)
(0.0382918 -0.0118633 0)
(0.0427475 -0.0114945 0)
(0.0471561 -0.0111278 0)
(0.0515145 -0.0107637 0)
(0.0558198 -0.0104028 0)
(0.0600689 -0.0100455 0)
(0.0642586 -0.00969253 0)
(0.0683854 -0.00934448 0)
(0.0724457 -0.00900212 0)
(0.0764361 -0.00866629 0)
(0.0803527 -0.00833789 0)
(0.0841917 -0.00801793 0)
(0.0879491 -0.0077074 0)
(0.091621 -0.0074073 0)
(0.0952034 -0.00711848 0)
(0.0987287 -0.00683879 0)
(0.102228 -0.00656625 0)
(0.105697 -0.00630128 0)
(0.109132 -0.00604365 0)
(0.11253 -0.00579231 0)
(0.115885 -0.00554533 0)
(0.119193 -0.00529993 0)
(0.12245 -0.00505269 0)
(0.125652 -0.00480001 0)
(0.128794 -0.00453865 0)
(0.131871 -0.00426633 0)
(0.13488 -0.00398214 0)
(0.137815 -0.00368664 0)
(0.140672 -0.00338181 0)
(0.143445 -0.0030709 0)
(0.14613 -0.00275826 0)
(0.148722 -0.00244909 0)
(0.151217 -0.002149 0)
(0.153612 -0.00186346 0)
(0.155905 -0.00159715 0)
(0.158092 -0.00135343 0)
(0.160174 -0.0011341 0)
(0.162149 -0.000939421 0)
(0.164018 -0.000768473 0)
(0.165779 -0.000619631 0)
(0.167432 -0.000490814 0)
(0.168978 -0.000380379 0)
(0.170416 -0.000286281 0)
(0.171744 -0.00020817 0)
(0.17296 -0.000144323 0)
(0.174063 -9.6596e-05 0)
(0.175043 -6.30867e-05 0)
(0.175896 -4.98334e-05 0)
(0.176603 -5.51477e-05 0)
(0.177143 -9.34867e-05 0)
(0.177708 -0.000168389 0)
(0.253613 0.000559752 0)
(0.256659 0.000914665 0)
(0.259279 0.00124196 0)
(0.261618 0.00148956 0)
(0.263665 0.00160284 0)
(0.265404 0.00178385 0)
(0.266851 0.00139117 0)
(0.267974 0.00196181 0)
(0.268839 0.000478797 0)
(0.269376 0.00218358 0)
(0.269718 -0.00100394 0)
(0.269775 0.00240518 0)
(0.269643 -0.00251799 0)
(0.269311 0.00275014 0)
(0.267592 -0.0166835 0)
(0.266006 -0.0390024 0)
(0.26518 -0.0395375 0)
(0.264325 -0.0394982 0)
(0.263363 -0.0395005 0)
(0.262316 -0.0395002 0)
(0.261194 -0.0395004 0)
(0.26001 -0.0395009 0)
(0.258773 -0.0395014 0)
(0.257496 -0.039502 0)
(0.256188 -0.0395025 0)
(0.254863 -0.039503 0)
(0.25353 -0.0395034 0)
(0.252204 -0.0395035 0)
(0.250896 -0.0395035 0)
(0.249622 -0.0395031 0)
(0.248396 -0.0395024 0)
(0.247236 -0.0395012 0)
(0.246161 -0.0394995 0)
(0.245192 -0.0394971 0)
(0.244356 -0.0394938 0)
(0.24368 -0.039488 0)
(0.243312 -0.0394785 0)
(0.243241 -0.0394725 0)
(0.243238 -0.0394713 0)
(0.243238 -0.0394713 0)
(0.243238 -0.0394713 0)
(0.243238 -0.0394713 0)
(0.243238 -0.0394713 0)
(0.243238 -0.0394713 0)
(0.243238 -0.0394713 0)
(0.243238 -0.0394713 0)
(0.243238 -0.0394713 0)
(0.243238 -0.0394713 0)
(0.243238 -0.0394713 0)
(0.243238 -0.0394713 0)
(0.243238 -0.0394713 0)
(0.243238 -0.0394713 0)
(0.243238 -0.0394713 0)
(0.243238 -0.0394713 0)
(0.243238 -0.0394713 0)
(0.243238 -0.0394713 0)
(0.243238 -0.0394713 0)
(0.243238 -0.0394713 0)
(0.243238 -0.0394713 0)
(0.243238 -0.0394713 0)
(0.243238 -0.0394713 0)
(0.243238 -0.0394713 0)
(0.243238 -0.0394713 0)
(0.243238 -0.0394713 0)
(0.243238 -0.0394713 0)
(0.243238 -0.0394713 0)
(0.243238 -0.0394713 0)
(0.243238 -0.0394713 0)
(0.243238 -0.0394713 0)
(0.243238 -0.0394713 0)
(0.243238 -0.0394713 0)
(0.243238 -0.0394713 0)
(0.243238 -0.0394713 0)
(0.243238 -0.0394713 0)
(0.243238 -0.0394713 0)
(0.243238 -0.0394713 0)
(0.243238 -0.0394713 0)
(0.243238 -0.0394713 0)
(0.243238 -0.0394713 0)
(0.243238 -0.0394713 0)
(0.243238 -0.0394713 0)
(0.243238 -0.0394713 0)
(0.243238 -0.0394713 0)
(0.243238 -0.0394713 0)
(0.243238 -0.0394713 0)
(0.243238 -0.0394713 0)
(0.243238 -0.0394713 0)
(0.243238 -0.0394713 0)
(0.243238 -0.0394713 0)
(0.243238 -0.0394713 0)
(0.243238 -0.0394713 0)
(0.243238 -0.0394713 0)
(0.243238 -0.0394713 0)
(0.243238 -0.0394713 0)
(0.243238 -0.0394713 0)
(0.243238 -0.0394713 0)
(0.243238 -0.0394713 0)
(0.243238 -0.0394713 0)
(0.243238 -0.0394713 0)
(0.243238 -0.0394713 0)
(0.243238 -0.0394713 0)
(0.243238 -0.0394713 0)
(0.243238 -0.0394713 0)
(0.243238 -0.0394713 0)
(0.243238 -0.0394713 0)
(0.243238 -0.0394713 0)
(0.243238 -0.0394713 0)
(0.243238 -0.0394713 0)
(0.243238 -0.0394713 0)
(0.243238 -0.0394713 0)
(0.243238 -0.0394713 0)
(0.243238 -0.0394713 0)
(0.243238 -0.0394713 0)
(0.243238 -0.0394713 0)
(0.243238 -0.0394713 0)
(0.243238 -0.0394713 0)
(0.243238 -0.0394713 0)
(0.243238 -0.0394713 0)
(0.243238 -0.0394713 0)
(0.243238 -0.0394711 0)
(0.24324 -0.0394626 0)
(0.243275 -0.0391162 0)
(0.244088 -0.0223466 0)
)
;

boundaryField
{
    inandouthalf11
    {
        type            cyclic;
    }
    inandouthalf12
    {
        type            cyclic;
    }
    inandouthalf21
    {
        type            cyclic;
    }
    inandouthalf22
    {
        type            cyclic;
    }
    inandouthalf31
    {
        type            cyclic;
    }
    inandouthalf32
    {
        type            cyclic;
    }
    inandouthalf41
    {
        type            cyclic;
    }
    inandouthalf42
    {
        type            cyclic;
    }
    top
    {
        type            symmetryPlane;
    }
    walls
    {
        type            fixedValue;
        value           uniform (0 0 0);
    }
    frontAndBackPlanes
    {
        type            empty;
    }
}


// ************************************************************************* //
