/*--------------------------------*- C++ -*----------------------------------*\
| =========                 |                                                 |
| \\      /  F ield         | OpenFOAM: The Open Source CFD Toolbox           |
|  \\    /   O peration     | Version:  2.4.x                                 |
|   \\  /    A nd           | Web:      www.OpenFOAM.org                      |
|    \\/     M anipulation  |                                                 |
\*---------------------------------------------------------------------------*/
FoamFile
{
    version     2.0;
    format      ascii;
    class       volVectorField;
    location    "10.5";
    object      Ub_0;
}
// * * * * * * * * * * * * * * * * * * * * * * * * * * * * * * * * * * * * * //

dimensions      [0 1 -1 0 0 0 0];

internalField   nonuniform List<vector> 
360
(
(-0.000272643 5.34422e-09 0)
(-0.00027113 1.88521e-08 0)
(-0.000270927 3.43777e-08 0)
(-0.000271133 4.85005e-08 0)
(-0.000271232 6.2078e-08 0)
(-0.000271264 7.55609e-08 0)
(-0.000271305 8.88008e-08 0)
(-0.000271357 1.01667e-07 0)
(-0.00027141 1.14159e-07 0)
(-0.000271464 1.26321e-07 0)
(-0.000271518 1.38196e-07 0)
(-0.000271572 1.49812e-07 0)
(-0.000271626 1.61197e-07 0)
(-0.000271681 1.72376e-07 0)
(-0.000271736 1.83376e-07 0)
(-0.000271792 1.94225e-07 0)
(-0.000271848 2.04952e-07 0)
(-0.000271905 2.15584e-07 0)
(-0.000271962 2.26145e-07 0)
(-0.00027202 2.36659e-07 0)
(-0.000272079 2.47148e-07 0)
(-0.000272138 2.57632e-07 0)
(-0.000272198 2.68131e-07 0)
(-0.000272258 2.78663e-07 0)
(-0.000272319 2.89243e-07 0)
(-0.000272381 2.99886e-07 0)
(-0.000272443 3.10604e-07 0)
(-0.000272506 3.21409e-07 0)
(-0.00027257 3.32311e-07 0)
(-0.000272634 3.43319e-07 0)
(-0.000272699 3.5444e-07 0)
(-0.000272765 3.65681e-07 0)
(-0.000272831 3.77045e-07 0)
(-0.000272899 3.8854e-07 0)
(-0.000272967 4.00166e-07 0)
(-0.000273036 4.11928e-07 0)
(-0.000273105 4.23825e-07 0)
(-0.000273175 4.35859e-07 0)
(-0.000273247 4.48033e-07 0)
(-0.000273318 4.60342e-07 0)
(-0.000273391 4.7279e-07 0)
(-0.000273465 4.85374e-07 0)
(-0.000273539 4.9809e-07 0)
(-0.000273615 5.1094e-07 0)
(-0.00027369 5.23919e-07 0)
(-0.000273767 5.37026e-07 0)
(-0.000273846 5.5026e-07 0)
(-0.000273924 5.63612e-07 0)
(-0.000274004 5.77079e-07 0)
(-0.000274085 5.90664e-07 0)
(-0.000274166 6.04358e-07 0)
(-0.000274249 6.18159e-07 0)
(-0.000274332 6.32062e-07 0)
(-0.000274417 6.46063e-07 0)
(-0.000274502 6.60156e-07 0)
(-0.00027459 6.7434e-07 0)
(-0.000274677 6.88606e-07 0)
(-0.000274766 7.02953e-07 0)
(-0.000274856 7.17373e-07 0)
(-0.000274947 7.31857e-07 0)
(-0.00027504 7.46406e-07 0)
(-0.000275133 7.61011e-07 0)
(-0.000275228 7.75673e-07 0)
(-0.000275324 7.90382e-07 0)
(-0.000275422 8.05135e-07 0)
(-0.00027552 8.19923e-07 0)
(-0.00027562 8.34742e-07 0)
(-0.000275721 8.49586e-07 0)
(-0.000275824 8.64448e-07 0)
(-0.000275928 8.79317e-07 0)
(-0.000276034 8.94193e-07 0)
(-0.000276141 9.09073e-07 0)
(-0.000276249 9.23945e-07 0)
(-0.00027636 9.38808e-07 0)
(-0.000276471 9.53654e-07 0)
(-0.000276585 9.68483e-07 0)
(-0.0002767 9.83283e-07 0)
(-0.000276817 9.98046e-07 0)
(-0.000276936 1.01277e-06 0)
(-0.000277057 1.02744e-06 0)
(-0.000277179 1.04205e-06 0)
(-0.000277303 1.05661e-06 0)
(-0.00027743 1.07109e-06 0)
(-0.000277559 1.08551e-06 0)
(-0.000277689 1.09985e-06 0)
(-0.000277822 1.11411e-06 0)
(-0.000277958 1.12828e-06 0)
(-0.000278095 1.14236e-06 0)
(-0.000278235 1.15634e-06 0)
(-0.000278377 1.17022e-06 0)
(-0.000278522 1.18397e-06 0)
(-0.00027867 1.19761e-06 0)
(-0.000278821 1.21112e-06 0)
(-0.000278974 1.22451e-06 0)
(-0.00027913 1.23776e-06 0)
(-0.00027929 1.25088e-06 0)
(-0.000279452 1.26386e-06 0)
(-0.000279618 1.2767e-06 0)
(-0.000279788 1.28939e-06 0)
(-0.00027996 1.30193e-06 0)
(-0.000280137 1.31431e-06 0)
(-0.000280317 1.32654e-06 0)
(-0.000280502 1.33861e-06 0)
(-0.00028069 1.35052e-06 0)
(-0.000280883 1.36227e-06 0)
(-0.00028108 1.37386e-06 0)
(-0.000281282 1.38529e-06 0)
(-0.000281489 1.39657e-06 0)
(-0.000281701 1.40771e-06 0)
(-0.000281918 1.4187e-06 0)
(-0.000282141 1.42957e-06 0)
(-0.000282369 1.44031e-06 0)
(-0.000282604 1.45094e-06 0)
(-0.000282845 1.46147e-06 0)
(-0.000283092 1.4719e-06 0)
(-0.000283346 1.48225e-06 0)
(-0.000283607 1.4925e-06 0)
(-0.000283876 1.50266e-06 0)
(-0.000284153 1.51271e-06 0)
(-0.000284438 1.52263e-06 0)
(-0.000284733 1.5324e-06 0)
(-0.000285036 1.54199e-06 0)
(-0.00028535 1.55137e-06 0)
(-0.000285674 1.56051e-06 0)
(-0.00028601 1.56939e-06 0)
(-0.000286358 1.57803e-06 0)
(-0.000286718 1.58646e-06 0)
(-0.000287092 1.59477e-06 0)
(-0.000287482 1.60309e-06 0)
(-0.000287888 1.6116e-06 0)
(-0.00028831 1.62053e-06 0)
(-0.000288751 1.63013e-06 0)
(-0.000289211 1.64067e-06 0)
(-0.000289696 1.6523e-06 0)
(-0.000290211 1.66492e-06 0)
(-0.000290758 1.67786e-06 0)
(-0.000291336 1.6897e-06 0)
(-0.000291953 1.69868e-06 0)
(-0.00029264 1.70359e-06 0)
(-0.000293429 1.70475e-06 0)
(-0.000294285 1.70331e-06 0)
(-0.000295284 1.66194e-06 0)
(-0.000302754 2.15666e-06 0)
(-0.000302625 3.43995e-06 0)
(-0.000305127 5.18183e-06 0)
(-0.000309012 7.44469e-06 0)
(-0.00031409 1.0709e-05 0)
(-0.00032226 1.74481e-05 0)
(-0.000348953 1.59332e-05 0)
(-0.00253424 6.48399e-05 0)
(-0.0833678 0.000482431 0)
(-0.105946 0.000188059 0)
(-0.111671 0.000252447 0)
(-0.112674 0.000218441 0)
(-0.11169 0.00020229 0)
(-0.109605 0.00018821 0)
(-0.106809 0.000174678 0)
(-0.103516 0.000161868 0)
(-0.0998557 0.000149979 0)
(-0.095916 0.00013899 0)
(-0.0917604 0.000128822 0)
(-0.0874359 0.000119404 0)
(-0.0829789 0.000110673 0)
(-0.078418 0.000102574 0)
(-0.0737758 9.50551e-05 0)
(-0.0690711 8.80715e-05 0)
(-0.064319 8.15818e-05 0)
(-0.0595321 7.55485e-05 0)
(-0.054721 6.99379e-05 0)
(-0.0498946 6.4719e-05 0)
(-0.0450603 5.98638e-05 0)
(-0.0402245 5.53465e-05 0)
(-0.0353927 5.11435e-05 0)
(-0.0305695 4.72332e-05 0)
(-0.0257588 4.35955e-05 0)
(-0.0209642 4.0212e-05 0)
(-0.0161886 3.70656e-05 0)
(-0.0114346 3.41404e-05 0)
(-0.0067044 3.14219e-05 0)
(-0.00199992 2.88963e-05 0)
(0.00267715 2.65508e-05 0)
(0.00732536 2.43738e-05 0)
(0.0119434 2.2354e-05 0)
(0.0165303 2.04813e-05 0)
(0.0210849 1.87459e-05 0)
(0.0256065 1.71389e-05 0)
(0.0300943 1.56518e-05 0)
(0.0345477 1.42767e-05 0)
(0.0389661 1.30063e-05 0)
(0.0433491 1.18337e-05 0)
(0.0476963 1.07524e-05 0)
(0.0520071 9.75636e-06 0)
(0.0562815 8.83989e-06 0)
(0.0605189 7.99774e-06 0)
(0.0647192 7.22496e-06 0)
(0.0688822 6.51693e-06 0)
(0.0730076 5.86933e-06 0)
(0.0770953 5.27815e-06 0)
(0.081145 4.73958e-06 0)
(0.0851566 4.25006e-06 0)
(0.08913 3.80619e-06 0)
(0.0931053 3.40063e-06 0)
(0.0971215 3.02806e-06 0)
(0.101178 2.68729e-06 0)
(0.105275 2.37691e-06 0)
(0.109412 2.0952e-06 0)
(0.113588 1.84024e-06 0)
(0.117802 1.6099e-06 0)
(0.122054 1.40201e-06 0)
(0.126342 1.21441e-06 0)
(0.130666 1.04516e-06 0)
(0.135023 8.92582e-07 0)
(0.139412 7.5531e-07 0)
(0.143832 6.32285e-07 0)
(0.14828 5.227e-07 0)
(0.152753 4.2594e-07 0)
(0.15725 3.41527e-07 0)
(0.161766 2.6903e-07 0)
(0.166299 2.07965e-07 0)
(0.170845 1.57683e-07 0)
(0.175398 1.17298e-07 0)
(0.179955 8.56801e-08 0)
(0.184509 6.15222e-08 0)
(0.189054 4.34625e-08 0)
(0.193583 3.0209e-08 0)
(0.198089 2.06336e-08 0)
(0.202561 1.38061e-08 0)
(0.206992 9.0099e-09 0)
(0.211368 5.69066e-09 0)
(0.215679 3.45456e-09 0)
(0.21991 1.99198e-09 0)
(0.224047 1.10079e-09 0)
(0.228071 5.79569e-10 0)
(0.231966 4.5248e-10 0)
(0.235711 1.32668e-10 0)
(0.239285 8.90149e-10 0)
(0.242665 3.51045e-10 0)
(0.245828 -2.20206e-09 0)
(0.248751 -2.82146e-09 0)
(0.251413 -2.62199e-09 0)
(0.253793 -2.12818e-09 0)
(0.255878 -1.57212e-09 0)
(0.257657 -1.07215e-09 0)
(0.259129 -6.76098e-10 0)
(0.260297 -3.95766e-10 0)
(0.261173 -2.12426e-10 0)
(0.261773 -1.01713e-10 0)
(0.26212 -4.28043e-11 0)
(0.262234 -1.33247e-11 0)
(0.26214 -4.4842e-12 0)
(0.261861 1.25394e-11 0)
(0.261415 1.27289e-11 0)
(0.260823 -4.66368e-12 0)
(0.260101 -5.16723e-12 0)
(0.259263 -3.84301e-12 0)
(0.258323 -3.44119e-12 0)
(0.257294 -3.3376e-12 0)
(0.256188 -3.20041e-12 0)
(0.255016 -3.02948e-12 0)
(0.253788 -2.85383e-12 0)
(0.252517 -2.68142e-12 0)
(0.251214 -2.50973e-12 0)
(0.24989 -2.34044e-12 0)
(0.248556 -2.2127e-12 0)
(0.247226 -2.19405e-12 0)
(0.245913 -1.98923e-12 0)
(0.24463 2.0224e-12 0)
(0.243393 -1.66507e-11 0)
(0.242219 3.40972e-11 0)
(0.241127 -6.97227e-11 0)
(0.240138 1.11174e-10 0)
(0.239278 -1.70495e-10 0)
(0.238579 2.34196e-10 0)
(0.238142 -3.11001e-10 0)
(0.23805 3.87061e-10 0)
(0.238046 -4.70762e-10 0)
(0.238046 5.51303e-10 0)
(0.238046 -6.382e-10 0)
(0.238046 7.22368e-10 0)
(0.238046 -8.12583e-10 0)
(0.238046 9.00655e-10 0)
(0.238046 -9.94463e-10 0)
(0.238046 1.08665e-09 0)
(0.238046 -1.18429e-09 0)
(0.238046 1.28079e-09 0)
(0.238046 -1.38244e-09 0)
(0.238046 1.48343e-09 0)
(0.238046 -1.58919e-09 0)
(0.238046 1.69485e-09 0)
(0.238046 -1.80487e-09 0)
(0.238046 1.91527e-09 0)
(0.238046 -2.02964e-09 0)
(0.238046 2.14486e-09 0)
(0.238046 -2.26362e-09 0)
(0.238046 2.38372e-09 0)
(0.238046 -2.50691e-09 0)
(0.238046 2.63186e-09 0)
(0.238046 -2.75962e-09 0)
(0.238046 2.8893e-09 0)
(0.238046 -3.02163e-09 0)
(0.238046 3.15599e-09 0)
(0.238046 -3.29283e-09 0)
(0.238046 3.43177e-09 0)
(0.238046 -3.57305e-09 0)
(0.238046 3.71644e-09 0)
(0.238046 -3.86203e-09 0)
(0.238046 4.00971e-09 0)
(0.238046 -4.15941e-09 0)
(0.238046 4.31114e-09 0)
(0.238046 -4.46471e-09 0)
(0.238046 4.05734e-09 0)
(0.238046 -4.12073e-09 0)
(0.238046 4.18348e-09 0)
(0.238046 -4.24535e-09 0)
(0.238046 4.30662e-09 0)
(0.238046 -4.36696e-09 0)
(0.238046 4.42672e-09 0)
(0.238046 -4.48551e-09 0)
(0.238046 4.54374e-09 0)
(0.238046 -4.60097e-09 0)
(0.238046 4.65763e-09 0)
(0.238046 -4.71328e-09 0)
(0.238046 4.76837e-09 0)
(0.238046 -4.82241e-09 0)
(0.238046 4.87589e-09 0)
(0.238046 -4.92829e-09 0)
(0.238046 4.98013e-09 0)
(0.238046 -5.03086e-09 0)
(0.238046 5.08109e-09 0)
(0.238046 -5.12999e-09 0)
(0.238046 5.17871e-09 0)
(0.238046 -5.22564e-09 0)
(0.238046 5.27283e-09 0)
(0.238046 -5.31775e-09 0)
(0.238046 5.36335e-09 0)
(0.238046 -5.40626e-09 0)
(0.238046 5.45013e-09 0)
(0.238046 -5.49095e-09 0)
(0.238046 5.5331e-09 0)
(0.238046 -5.57181e-09 0)
(0.238046 5.61197e-09 0)
(0.238046 -5.64859e-09 0)
(0.238046 5.68661e-09 0)
(0.238046 -5.72119e-09 0)
(0.238046 5.75675e-09 0)
(0.238046 -5.78913e-09 0)
(0.238046 5.82229e-09 0)
(0.238046 -5.85236e-09 0)
(0.238046 5.88258e-09 0)
(0.238046 -5.9104e-09 0)
(0.238046 5.93727e-09 0)
(0.238046 -5.96288e-09 0)
(0.238046 5.98575e-09 0)
(0.238046 -6.00915e-09 0)
(0.238046 6.02714e-09 0)
(0.238046 -6.0478e-09 0)
(0.238046 6.06037e-09 0)
(0.238046 -6.07728e-09 0)
(0.238046 6.08254e-09 0)
(0.238046 -6.09078e-09 0)
)
;

boundaryField
{
    inandouthalf11
    {
        type            cyclic;
    }
    inandouthalf12
    {
        type            cyclic;
    }
    inandouthalf21
    {
        type            cyclic;
    }
    inandouthalf22
    {
        type            cyclic;
    }
    inandouthalf31
    {
        type            cyclic;
    }
    inandouthalf32
    {
        type            cyclic;
    }
    inandouthalf41
    {
        type            cyclic;
    }
    inandouthalf42
    {
        type            cyclic;
    }
    top
    {
        type            symmetryPlane;
    }
    walls
    {
        type            fixedValue;
        value           uniform (0 0 0);
    }
    frontAndBackPlanes
    {
        type            empty;
    }
}


// ************************************************************************* //
