/*--------------------------------*- C++ -*----------------------------------*\
| =========                 |                                                 |
| \\      /  F ield         | OpenFOAM: The Open Source CFD Toolbox           |
|  \\    /   O peration     | Version:  2.4.x                                 |
|   \\  /    A nd           | Web:      www.OpenFOAM.org                      |
|    \\/     M anipulation  |                                                 |
\*---------------------------------------------------------------------------*/
FoamFile
{
    version     2.0;
    format      ascii;
    class       volScalarField;
    location    "12.25";
    object      alpha_0;
}
// * * * * * * * * * * * * * * * * * * * * * * * * * * * * * * * * * * * * * //

dimensions      [0 0 0 0 0 0 0];

internalField   nonuniform List<scalar> 
360
(
0.610895
0.611764
0.611853
0.611763
0.611721
0.611708
0.611691
0.611669
0.611647
0.611624
0.611601
0.611578
0.611555
0.611532
0.611508
0.611484
0.61146
0.611436
0.611411
0.611386
0.611361
0.611336
0.61131
0.611284
0.611258
0.611232
0.611205
0.611178
0.611151
0.611123
0.611096
0.611067
0.611039
0.61101
0.610981
0.610952
0.610922
0.610892
0.610862
0.610832
0.6108
0.610769
0.610738
0.610705
0.610673
0.61064
0.610607
0.610574
0.61054
0.610505
0.610471
0.610436
0.6104
0.610364
0.610328
0.61029
0.610253
0.610215
0.610177
0.610139
0.610099
0.610059
0.610019
0.609978
0.609937
0.609895
0.609852
0.609809
0.609765
0.609721
0.609676
0.609631
0.609585
0.609538
0.60949
0.609442
0.609393
0.609343
0.609292
0.609241
0.609189
0.609136
0.609082
0.609027
0.608972
0.608915
0.608858
0.608799
0.60874
0.608679
0.608617
0.608554
0.60849
0.608425
0.608359
0.608291
0.608222
0.608151
0.608079
0.608006
0.607931
0.607855
0.607776
0.607696
0.607615
0.607531
0.607446
0.607358
0.607268
0.607177
0.607082
0.606986
0.606887
0.606785
0.606681
0.606574
0.606464
0.606351
0.606234
0.606114
0.605991
0.605863
0.605732
0.605596
0.605456
0.60531
0.60516
0.605004
0.604842
0.604674
0.604499
0.604317
0.604127
0.603926
0.603713
0.603485
0.603244
0.602987
0.602702
0.602378
0.602028
0.601615
0.598783
0.599203
0.598689
0.597837
0.594643
0.437941
0.286153
0.227552
0.191051
0.160595
0.134222
0.111244
0.0914475
0.0746797
0.0607141
0.0492442
0.0399194
0.0323876
0.0263239
0.0214468
0.0175207
0.0143539
0.0117925
0.00971423
0.00802235
0.00664032
0.00550762
0.00457625
0.00380805
0.00317257
0.00264534
0.00220654
0.00183982
0.00153162
0.00127106
0.00105025
0.000864226
0.00070989
0.000584416
0.000484226
0.000405067
0.000342652
0.000293201
0.000253657
0.000221666
0.000195461
0.000173725
0.000155481
0.000139992
0.000126707
0.000115202
0.00010515
9.62991e-05
8.84478e-05
8.14374e-05
7.51403e-05
6.94535e-05
6.42927e-05
5.9589e-05
5.52417e-05
5.11762e-05
4.73685e-05
4.37983e-05
4.0448e-05
3.73031e-05
3.43507e-05
3.15803e-05
2.89823e-05
2.65483e-05
2.42707e-05
2.21423e-05
2.0156e-05
1.83052e-05
1.65832e-05
1.49835e-05
1.35001e-05
1.2127e-05
1.08585e-05
9.68961e-06
8.61532e-06
7.63107e-06
6.73234e-06
5.91444e-06
5.17198e-06
4.49799e-06
3.8831e-06
3.31547e-06
2.78324e-06
2.2819e-06
1.82691e-06
1.45831e-06
1.2083e-06
1.04778e-06
9.08242e-07
7.87714e-07
6.29276e-07
4.99517e-07
3.9484e-07
3.10339e-07
2.42188e-07
1.87355e-07
1.43382e-07
1.0827e-07
8.0384e-08
5.8389e-08
4.11554e-08
2.77955e-08
1.76028e-08
9.68097e-09
4.13841e-09
9.29216e-11
4.46833e-22
1.25548e-33
2.50237e-45
3.55894e-57
3.85688e-69
2.38667e-75
1.2527e-75
6.23033e-76
3.13461e-76
1.54968e-76
7.55369e-77
3.62257e-77
1.70845e-77
7.91941e-78
3.60627e-78
1.61234e-78
7.07359e-79
3.04328e-79
1.28317e-79
5.29885e-80
2.14152e-80
8.46416e-81
3.26905e-81
1.23273e-81
4.53455e-82
1.62556e-82
5.67326e-83
1.92522e-83
6.34549e-84
2.02908e-84
6.28641e-85
1.88428e-85
5.45564e-86
1.52324e-86
4.09364e-87
1.05679e-87
2.61486e-88
6.18616e-89
1.39551e-89
2.99276e-90
6.08092e-91
1.16619e-91
2.10176e-92
3.54201e-93
5.54955e-94
8.02906e-95
1.06407e-95
1.27919e-96
1.37828e-97
1.31086e-98
1.07884e-99
7.47765e-101
4.19756e-102
1.79458e-103
5.22935e-105
7.96956e-107
6.86025e-110
2.48079e-117
1.36872e-119
3.73209e-122
1.70981e-132
4.00907e-143
7.08227e-154
9.16474e-165
1.03356e-175
9.08155e-187
6.82489e-198
8.48967e-209
3.0297e-219
1.44494e-227
8.04614e-238
4.96849e-246
3.2719e-256
1.71119e-264
1.37881e-274
5.90496e-283
8.84946e-293
2.10648e-301
5.88676e-311
2.47033e-323
6.79834e-321
7.96928e-321
7.83094e-321
2.51973e-321
8.86848e-321
4.57737e-319
2.8055e-319
6.80328e-321
7.09478e-321
6.08689e-321
8.5424e-321
0
0
0
0
0
0
0
0
0
0
0
0
0
0
0
0
)
;

boundaryField
{
    inandouthalf11
    {
        type            cyclic;
    }
    inandouthalf12
    {
        type            cyclic;
    }
    inandouthalf21
    {
        type            cyclic;
    }
    inandouthalf22
    {
        type            cyclic;
    }
    inandouthalf31
    {
        type            cyclic;
    }
    inandouthalf32
    {
        type            cyclic;
    }
    inandouthalf41
    {
        type            cyclic;
    }
    inandouthalf42
    {
        type            cyclic;
    }
    top
    {
        type            symmetryPlane;
    }
    walls
    {
        type            zeroGradient;
    }
    frontAndBackPlanes
    {
        type            empty;
    }
}


// ************************************************************************* //
