/*--------------------------------*- C++ -*----------------------------------*\
| =========                 |                                                 |
| \\      /  F ield         | OpenFOAM: The Open Source CFD Toolbox           |
|  \\    /   O peration     | Version:  2.4.x                                 |
|   \\  /    A nd           | Web:      www.OpenFOAM.org                      |
|    \\/     M anipulation  |                                                 |
\*---------------------------------------------------------------------------*/
FoamFile
{
    version     2.0;
    format      ascii;
    class       volScalarField;
    location    "12.25";
    object      ddt0(alpha);
}
// * * * * * * * * * * * * * * * * * * * * * * * * * * * * * * * * * * * * * //

dimensions      [0 0 -1 0 0 0 0];

internalField   nonuniform List<scalar> 
360
(
1.5068e-06
2.2534e-06
2.10329e-06
2.05463e-06
2.15185e-06
2.24564e-06
2.31345e-06
2.37945e-06
2.45322e-06
2.53486e-06
2.6204e-06
2.70602e-06
2.79062e-06
2.87285e-06
2.95237e-06
3.02871e-06
3.10098e-06
3.16821e-06
3.22976e-06
3.28592e-06
3.33495e-06
3.37816e-06
3.41467e-06
3.44448e-06
3.4677e-06
3.48424e-06
3.49406e-06
3.49827e-06
3.49624e-06
3.48836e-06
3.47502e-06
3.45746e-06
3.43382e-06
3.40792e-06
3.37667e-06
3.34279e-06
3.30529e-06
3.26578e-06
3.22467e-06
3.17985e-06
3.13557e-06
3.08932e-06
3.04132e-06
2.99448e-06
2.94632e-06
2.8985e-06
2.85101e-06
2.80238e-06
2.75538e-06
2.71005e-06
2.66366e-06
2.61923e-06
2.57516e-06
2.53282e-06
2.49042e-06
2.45075e-06
2.41059e-06
2.37268e-06
2.33529e-06
2.29824e-06
2.26413e-06
2.22982e-06
2.19781e-06
2.16613e-06
2.13569e-06
2.10585e-06
2.07734e-06
2.04964e-06
2.02251e-06
1.99564e-06
1.97064e-06
1.94666e-06
1.92208e-06
1.89931e-06
1.87678e-06
1.85541e-06
1.83364e-06
1.81229e-06
1.79139e-06
1.77092e-06
1.75048e-06
1.7306e-06
1.71118e-06
1.69207e-06
1.67328e-06
1.65458e-06
1.636e-06
1.61725e-06
1.59835e-06
1.57937e-06
1.56034e-06
1.54128e-06
1.52234e-06
1.50349e-06
1.4847e-06
1.46593e-06
1.44712e-06
1.42821e-06
1.40919e-06
1.39008e-06
1.37092e-06
1.35178e-06
1.33271e-06
1.31377e-06
1.29501e-06
1.27647e-06
1.25818e-06
1.24019e-06
1.22254e-06
1.20523e-06
1.18828e-06
1.17167e-06
1.15534e-06
1.13919e-06
1.12308e-06
1.1068e-06
1.09012e-06
1.07274e-06
1.05436e-06
1.03468e-06
1.01346e-06
9.90554e-07
9.66018e-07
9.402e-07
9.13827e-07
8.88094e-07
8.64634e-07
8.45318e-07
8.31833e-07
8.25099e-07
8.24513e-07
8.27213e-07
8.27077e-07
8.13143e-07
7.67466e-07
6.67244e-07
5.0088e-07
2.89817e-07
8.61746e-08
-5.78918e-08
-1.35834e-07
-2.14382e-06
1.20078e-06
-3.96649e-07
-1.10491e-07
-1.4899e-06
0.00211733
0.0936134
0.0214755
-0.00158684
-0.00944779
-0.0134588
-0.0155459
-0.0161989
-0.0156962
-0.0143458
-0.0124848
-0.0104151
-0.00837021
-0.00645821
-0.00481013
-0.00341106
-0.00225946
-0.00133329
-0.000602766
-3.71363e-05
0.000392019
0.000710172
0.000938936
0.00109667
0.00119836
0.00125665
0.00128277
0.00128817
0.00128452
0.00127941
0.00126894
0.00123519
0.00115741
0.00103028
0.000870247
0.00070371
0.000551796
0.000424485
0.00032304
0.000244389
0.000184198
0.00013834
0.000103395
7.66961e-05
5.62276e-05
4.04815e-05
2.83341e-05
1.89461e-05
1.16874e-05
6.08209e-06
1.76813e-06
-1.53203e-06
-4.03262e-06
-5.90017e-06
-7.26479e-06
-8.23782e-06
-8.89646e-06
-9.29353e-06
-9.47455e-06
-9.47848e-06
-9.33922e-06
-9.08618e-06
-8.7452e-06
-8.33877e-06
-7.88651e-06
-7.40517e-06
-6.90891e-06
-6.40923e-06
-5.91528e-06
-5.43397e-06
-4.97035e-06
-4.52773e-06
-4.1082e-06
-3.71284e-06
-3.34209e-06
-2.99608e-06
-2.67479e-06
-2.37837e-06
-2.10746e-06
-1.86368e-06
-1.64965e-06
-1.46757e-06
-1.31566e-06
-1.1818e-06
-1.03647e-06
-8.40302e-07
-5.90464e-07
-3.68558e-07
-2.71324e-07
-2.28702e-07
-5.5852e-08
-1.78868e-07
-2.00313e-07
-1.98253e-07
-1.83006e-07
-1.61627e-07
-1.38038e-07
-1.1461e-07
-9.27509e-08
-7.32365e-08
-5.67054e-08
-4.26703e-08
-3.04948e-08
-2.4179e-08
-1.27151e-08
-1.49551e-08
-1.45341e-09
-1.84617e-21
1.20665e-32
6.28167e-44
1.50455e-55
2.21364e-67
-4.20119e-74
-2.16892e-74
-1.09079e-74
-5.49267e-75
-2.71534e-75
-1.32395e-75
-6.35124e-76
-2.99622e-76
-1.38929e-76
-6.3283e-77
-2.83022e-77
-1.24205e-77
-5.34535e-78
-2.25456e-78
-9.31327e-79
-3.76523e-79
-1.4887e-79
-5.75174e-80
-2.16973e-80
-7.98425e-81
-2.86331e-81
-9.99684e-82
-3.39365e-82
-1.11899e-82
-3.57963e-83
-1.10949e-83
-3.32697e-84
-9.63694e-85
-2.69187e-85
-7.23755e-86
-1.86927e-86
-4.62739e-87
-1.09526e-87
-2.47198e-88
-5.30402e-89
-1.07827e-89
-2.069e-90
-3.73091e-91
-6.29111e-92
-9.86258e-93
-1.42778e-93
-1.89339e-94
-2.27768e-95
-2.4558e-96
-2.33738e-97
-1.92515e-98
-1.33547e-99
-7.50343e-101
-3.2112e-102
-9.36873e-104
-1.43018e-105
-1.24795e-108
-4.86577e-116
-2.6956e-118
-7.38027e-121
-3.31169e-131
-7.6083e-142
-1.32356e-152
-1.67949e-163
-1.86929e-174
-1.60551e-185
-1.18547e-196
-1.56045e-207
-5.83644e-218
-2.85697e-226
-1.56676e-236
-9.82412e-245
-6.38644e-255
-3.38341e-263
-2.69674e-273
-1.16747e-281
-1.73514e-291
-4.16276e-300
-1.15558e-309
-1.43279e-322
0
0
0
0
0
0
0
0
0
0
0
0
0
0
0
0
0
0
0
0
0
0
0
0
0
0
0
)
;

boundaryField
{
    inandouthalf11
    {
        type            cyclic;
    }
    inandouthalf12
    {
        type            cyclic;
    }
    inandouthalf21
    {
        type            cyclic;
    }
    inandouthalf22
    {
        type            cyclic;
    }
    inandouthalf31
    {
        type            cyclic;
    }
    inandouthalf32
    {
        type            cyclic;
    }
    inandouthalf41
    {
        type            cyclic;
    }
    inandouthalf42
    {
        type            cyclic;
    }
    top
    {
        type            symmetryPlane;
    }
    walls
    {
        type            calculated;
        value           uniform 1.5068e-06;
    }
    frontAndBackPlanes
    {
        type            empty;
    }
}


// ************************************************************************* //
