/*--------------------------------*- C++ -*----------------------------------*\
| =========                 |                                                 |
| \\      /  F ield         | OpenFOAM: The Open Source CFD Toolbox           |
|  \\    /   O peration     | Version:  2.4.x                                 |
|   \\  /    A nd           | Web:      www.OpenFOAM.org                      |
|    \\/     M anipulation  |                                                 |
\*---------------------------------------------------------------------------*/
FoamFile
{
    version     2.0;
    format      ascii;
    class       volVectorField;
    location    "12.25";
    object      ddt0(Ua);
}
// * * * * * * * * * * * * * * * * * * * * * * * * * * * * * * * * * * * * * //

dimensions      [0 1 -2 0 0 0 0];

internalField   nonuniform List<vector> 
360
(
(6.81896e-33 -2.15344e-33 0)
(8.05481e-10 2.4555e-09 0)
(1.69675e-09 4.43417e-09 0)
(2.52608e-09 6.2546e-09 0)
(3.40239e-09 8.25724e-09 0)
(4.34777e-09 1.04288e-08 0)
(5.34176e-09 1.26977e-08 0)
(6.37499e-09 1.50474e-08 0)
(7.44812e-09 1.74815e-08 0)
(8.56254e-09 2.00008e-08 0)
(9.71802e-09 2.26016e-08 0)
(1.09126e-08 2.52765e-08 0)
(1.2143e-08 2.80149e-08 0)
(1.34053e-08 3.0805e-08 0)
(1.4695e-08 3.3634e-08 0)
(1.60076e-08 3.6489e-08 0)
(1.73379e-08 3.93563e-08 0)
(1.86807e-08 4.22218e-08 0)
(2.00302e-08 4.50707e-08 0)
(2.13808e-08 4.78892e-08 0)
(2.27269e-08 5.06633e-08 0)
(2.4063e-08 5.33797e-08 0)
(2.53839e-08 5.60267e-08 0)
(2.66847e-08 5.85929e-08 0)
(2.79607e-08 6.10686e-08 0)
(2.92077e-08 6.3445e-08 0)
(3.04221e-08 6.57147e-08 0)
(3.16006e-08 6.78721e-08 0)
(3.27406e-08 6.9913e-08 0)
(3.38398e-08 7.18341e-08 0)
(3.48967e-08 7.36339e-08 0)
(3.59102e-08 7.53123e-08 0)
(3.68794e-08 7.68701e-08 0)
(3.78045e-08 7.83096e-08 0)
(3.86856e-08 7.9634e-08 0)
(3.95235e-08 8.08473e-08 0)
(4.03191e-08 8.19543e-08 0)
(4.10739e-08 8.29606e-08 0)
(4.17895e-08 8.38723e-08 0)
(4.24678e-08 8.46958e-08 0)
(4.31108e-08 8.54377e-08 0)
(4.37209e-08 8.61053e-08 0)
(4.43002e-08 8.67052e-08 0)
(4.48512e-08 8.72446e-08 0)
(4.53763e-08 8.77306e-08 0)
(4.58781e-08 8.81698e-08 0)
(4.63587e-08 8.85689e-08 0)
(4.68207e-08 8.89341e-08 0)
(4.72662e-08 8.92714e-08 0)
(4.76977e-08 8.95868e-08 0)
(4.81173e-08 8.98856e-08 0)
(4.85269e-08 9.01728e-08 0)
(4.89285e-08 9.04531e-08 0)
(4.9324e-08 9.07309e-08 0)
(4.97151e-08 9.101e-08 0)
(5.01033e-08 9.12942e-08 0)
(5.04902e-08 9.15866e-08 0)
(5.08771e-08 9.18902e-08 0)
(5.12653e-08 9.22077e-08 0)
(5.16558e-08 9.25413e-08 0)
(5.20497e-08 9.28929e-08 0)
(5.2448e-08 9.32645e-08 0)
(5.28516e-08 9.36576e-08 0)
(5.32611e-08 9.40733e-08 0)
(5.36772e-08 9.45127e-08 0)
(5.41004e-08 9.49766e-08 0)
(5.45313e-08 9.54656e-08 0)
(5.49702e-08 9.59802e-08 0)
(5.54174e-08 9.65206e-08 0)
(5.58732e-08 9.70868e-08 0)
(5.63378e-08 9.76789e-08 0)
(5.68115e-08 9.82969e-08 0)
(5.72942e-08 9.89406e-08 0)
(5.77861e-08 9.96093e-08 0)
(5.82872e-08 1.00303e-07 0)
(5.87975e-08 1.01021e-07 0)
(5.93169e-08 1.01763e-07 0)
(5.98452e-08 1.02527e-07 0)
(6.03823e-08 1.03314e-07 0)
(6.09279e-08 1.04122e-07 0)
(6.14818e-08 1.04951e-07 0)
(6.20438e-08 1.05799e-07 0)
(6.26137e-08 1.06665e-07 0)
(6.31913e-08 1.0755e-07 0)
(6.37764e-08 1.08451e-07 0)
(6.43686e-08 1.09368e-07 0)
(6.49676e-08 1.103e-07 0)
(6.55731e-08 1.11246e-07 0)
(6.61846e-08 1.12204e-07 0)
(6.68017e-08 1.13174e-07 0)
(6.74241e-08 1.14153e-07 0)
(6.80513e-08 1.15142e-07 0)
(6.86831e-08 1.16139e-07 0)
(6.9319e-08 1.17143e-07 0)
(6.99588e-08 1.18153e-07 0)
(7.06022e-08 1.19168e-07 0)
(7.12488e-08 1.20188e-07 0)
(7.18984e-08 1.2121e-07 0)
(7.25505e-08 1.22235e-07 0)
(7.32049e-08 1.23261e-07 0)
(7.38612e-08 1.24287e-07 0)
(7.45192e-08 1.25312e-07 0)
(7.51787e-08 1.26337e-07 0)
(7.58396e-08 1.27359e-07 0)
(7.65017e-08 1.28378e-07 0)
(7.71649e-08 1.29395e-07 0)
(7.78294e-08 1.30407e-07 0)
(7.84951e-08 1.31416e-07 0)
(7.91621e-08 1.3242e-07 0)
(7.98307e-08 1.3342e-07 0)
(8.05011e-08 1.34415e-07 0)
(8.11735e-08 1.35406e-07 0)
(8.18483e-08 1.36391e-07 0)
(8.25256e-08 1.3737e-07 0)
(8.32056e-08 1.38344e-07 0)
(8.38887e-08 1.39312e-07 0)
(8.45747e-08 1.40272e-07 0)
(8.52637e-08 1.41225e-07 0)
(8.59554e-08 1.42168e-07 0)
(8.66494e-08 1.43101e-07 0)
(8.7345e-08 1.44022e-07 0)
(8.80418e-08 1.44928e-07 0)
(8.87391e-08 1.45819e-07 0)
(8.94364e-08 1.46692e-07 0)
(9.01339e-08 1.47547e-07 0)
(9.08325e-08 1.48383e-07 0)
(9.15341e-08 1.49203e-07 0)
(9.22427e-08 1.50008e-07 0)
(9.29635e-08 1.50803e-07 0)
(9.37037e-08 1.51593e-07 0)
(9.4471e-08 1.52383e-07 0)
(9.52729e-08 1.53177e-07 0)
(9.61136e-08 1.53974e-07 0)
(9.69907e-08 1.54767e-07 0)
(9.78868e-08 1.55538e-07 0)
(9.87591e-08 1.56249e-07 0)
(9.95369e-08 1.56846e-07 0)
(1.00144e-07 1.57282e-07 0)
(1.00539e-07 1.57546e-07 0)
(1.00748e-07 1.57672e-07 0)
(1.00841e-07 1.5772e-07 0)
(1.00893e-07 1.57734e-07 0)
(1.00952e-07 1.57769e-07 0)
(1.01049e-07 1.57846e-07 0)
(1.0112e-07 1.57866e-07 0)
(1.01196e-07 1.57863e-07 0)
(1.01417e-07 1.57837e-07 0)
(0.0429126 -5.5637e-06 0)
(0.0664416 -0.000257921 0)
(0.0666441 -0.00036816 0)
(0.0693868 -0.000435028 0)
(0.0736966 -0.000464492 0)
(0.0787886 -0.000485686 0)
(0.0842568 -0.00050184 0)
(0.0898659 -0.000515647 0)
(0.0954577 -0.000549823 0)
(0.100927 -0.000595022 0)
(0.106199 -0.00065275 0)
(0.11122 -0.00075354 0)
(0.115952 -0.000862839 0)
(0.120368 -0.000987537 0)
(0.124444 -0.0011452 0)
(0.128157 -0.00132278 0)
(0.131476 -0.00153268 0)
(0.134381 -0.00175367 0)
(0.136841 -0.00198725 0)
(0.138835 -0.00222627 0)
(0.140332 -0.00246345 0)
(0.141317 -0.00269112 0)
(0.14177 -0.00289544 0)
(0.141685 -0.00306493 0)
(0.141069 -0.00317628 0)
(0.139918 -0.00322013 0)
(0.138263 -0.0031601 0)
(0.136143 -0.00293909 0)
(0.133614 -0.00247871 0)
(0.130756 -0.00169344 0)
(0.127671 -0.000549791 0)
(0.124471 0.000886467 0)
(0.121258 0.00245366 0)
(0.118103 0.00396354 0)
(0.115043 0.00527674 0)
(0.112088 0.00633185 0)
(0.109231 0.00713012 0)
(0.106463 0.00770577 0)
(0.103776 0.00810315 0)
(0.10116 0.00836305 0)
(0.0986093 0.00851997 0)
(0.0961224 0.00860153 0)
(0.0936981 0.00862891 0)
(0.0913367 0.00861816 0)
(0.0890393 0.00858132 0)
(0.0868067 0.00852739 0)
(0.0846401 0.00846315 0)
(0.0825406 0.00839364 0)
(0.0805089 0.00832267 0)
(0.0785457 0.00825306 0)
(0.0766513 0.00818692 0)
(0.074826 0.00812581 0)
(0.07307 0.00807091 0)
(0.0713835 0.00802315 0)
(0.0697503 0.00798278 0)
(0.0681548 0.00794983 0)
(0.0665976 0.00792461 0)
(0.0650794 0.0079074 0)
(0.0636006 0.00789842 0)
(0.0621617 0.00789791 0)
(0.0607632 0.00790606 0)
(0.0594055 0.00792301 0)
(0.058089 0.00794887 0)
(0.0568138 0.00798365 0)
(0.0555801 0.0080273 0)
(0.0543879 0.00807968 0)
(0.0532371 0.00814061 0)
(0.0521277 0.00820981 0)
(0.0510592 0.008287 0)
(0.0500314 0.00837185 0)
(0.0490438 0.00846406 0)
(0.0480959 0.0085633 0)
(0.0471872 0.00866932 0)
(0.0463171 0.00878183 0)
(0.045485 0.00890059 0)
(0.0446906 0.00902524 0)
(0.0439334 0.00915528 0)
(0.0432133 0.00928981 0)
(0.0425303 0.00942724 0)
(0.0418848 0.00956497 0)
(0.0412766 0.00969921 0)
(0.0407049 0.00982526 0)
(0.0401674 0.00993884 0)
(0.0396592 0.0100388 0)
(0.0391741 0.0101309 0)
(0.0387107 0.0102283 0)
(0.0382809 0.0103384 0)
(0.0379082 0.0104328 0)
(0.0376145 0.0104648 0)
(0.037285 0.0104528 0)
(-0.0449138 0.0109565 0)
(-0.0454182 0.00756585 0)
(-0.0467284 0.00630992 0)
(-0.0480071 0.00534221 0)
(-0.0492592 0.00443902 0)
(-0.0504796 0.00361777 0)
(-0.0516641 0.002844 0)
(-0.0528083 0.00211723 0)
(-0.0539081 0.00141919 0)
(-0.0549419 0.00179734 0)
(-0.0559922 -0.00242318 0)
(-0.0569493 0.00627842 0)
(-0.0586279 -0.0108364 0)
(-0.0574081 0.0179417 0)
(-0.059282 -0.0268379 0)
(-0.0590127 -0.0500238 0)
(-0.0595933 -0.00684998 0)
(-0.0598071 0.000534344 0)
(-0.0599733 7.35242e-06 0)
(-0.0599661 3.82537e-05 0)
(-0.0597903 2.99843e-05 0)
(-0.0594303 2.38244e-05 0)
(-0.0588765 1.71178e-05 0)
(-0.0581234 1.02329e-05 0)
(-0.0571715 3.40746e-06 0)
(-0.0560297 -3.04817e-06 0)
(-0.0547179 -8.78791e-06 0)
(-0.0532729 -1.35212e-05 0)
(-0.0518185 -1.78389e-05 0)
(-0.0500673 -1.92803e-05 0)
(-0.0484085 -1.66851e-05 0)
(-0.0471188 -1.786e-05 0)
(-0.0456139 -1.54332e-05 0)
(-0.0443607 -1.2731e-05 0)
(-0.0432734 -9.78899e-06 0)
(-0.0423738 -7.03146e-06 0)
(-0.0416701 -4.73397e-06 0)
(-0.0411653 -3.09691e-06 0)
(-0.0408593 -2.27294e-06 0)
(-0.0407501 -2.57203e-06 0)
(-0.0408179 -5.47781e-06 0)
(-0.041427 -1.11156e-05 0)
(-0.0422669 -9.47034e-06 0)
(-0.0424567 -2.80051e-06 0)
(-0.0424621 -1.20173e-06 0)
(-0.0424621 -1.15799e-06 0)
(-0.0424621 -1.15727e-06 0)
(-0.0424621 -1.15737e-06 0)
(-0.0424621 -1.15725e-06 0)
(-0.0424621 -1.15738e-06 0)
(-0.0424621 -1.15725e-06 0)
(-0.0424621 -1.15739e-06 0)
(-0.0424621 -1.15724e-06 0)
(-0.0424621 -1.1574e-06 0)
(-0.0424621 -1.15724e-06 0)
(-0.0424621 -1.15741e-06 0)
(-0.0424621 -1.15723e-06 0)
(-0.0424621 -1.15742e-06 0)
(-0.0424621 -1.15723e-06 0)
(-0.0424621 -1.15743e-06 0)
(-0.0424621 -1.15722e-06 0)
(-0.0424621 -1.15744e-06 0)
(-0.0424621 -1.15721e-06 0)
(-0.0424621 -1.15745e-06 0)
(-0.0424621 -1.15719e-06 0)
(-0.0424621 -1.15746e-06 0)
(-0.0424621 -1.15718e-06 0)
(-0.0424621 -1.15747e-06 0)
(-0.0424621 -1.15717e-06 0)
(-0.0424621 -1.15747e-06 0)
(-0.0424621 -1.15716e-06 0)
(-0.0424621 -1.15749e-06 0)
(-0.0424621 -1.15714e-06 0)
(-0.0424621 -1.15747e-06 0)
(-0.0424621 -1.15716e-06 0)
(-0.0424621 -1.15748e-06 0)
(-0.0424621 -1.15716e-06 0)
(-0.0424621 -1.15748e-06 0)
(-0.0424621 -1.15715e-06 0)
(-0.0424621 -1.15749e-06 0)
(-0.0424621 -1.15715e-06 0)
(-0.0424621 -1.15749e-06 0)
(-0.0424621 -1.15715e-06 0)
(-0.0424621 -1.15749e-06 0)
(-0.0424621 -1.15714e-06 0)
(-0.0424621 -1.1575e-06 0)
(-0.0424621 -1.15714e-06 0)
(-0.0424621 -1.1575e-06 0)
(-0.0424621 -1.15714e-06 0)
(-0.0424621 -1.15751e-06 0)
(-0.0424621 -1.15713e-06 0)
(-0.0424621 -1.15751e-06 0)
(-0.0424621 -1.15713e-06 0)
(-0.0424621 -1.15751e-06 0)
(-0.0424621 -1.15712e-06 0)
(-0.0424621 -1.15751e-06 0)
(-0.0424621 -1.15711e-06 0)
(-0.0424621 -1.1575e-06 0)
(-0.0424621 -1.1571e-06 0)
(-0.0424621 -1.1575e-06 0)
(-0.0424621 -1.15709e-06 0)
(-0.0424621 -1.1575e-06 0)
(-0.0424621 -1.15709e-06 0)
(-0.0424621 -1.15749e-06 0)
(-0.0424621 -1.15708e-06 0)
(-0.0424621 -1.15749e-06 0)
(-0.0424621 -1.15707e-06 0)
(-0.0424621 -1.15749e-06 0)
(-0.0424621 -1.15706e-06 0)
(-0.0424621 -1.15748e-06 0)
(-0.0424621 -1.15705e-06 0)
(-0.0424621 -1.15747e-06 0)
(-0.0424621 -1.15704e-06 0)
(-0.0424621 -1.15747e-06 0)
(-0.0424621 -1.15704e-06 0)
(-0.0424621 -1.15747e-06 0)
(-0.0424621 -1.15702e-06 0)
(-0.0424621 -1.1575e-06 0)
(-0.0424621 -1.15703e-06 0)
(-0.0424622 -1.15759e-06 0)
(-0.0424625 -1.15853e-06 0)
(-0.0424703 -1.18895e-06 0)
(-0.0426499 -2.36701e-06 0)
)
;

boundaryField
{
    inandouthalf11
    {
        type            cyclic;
    }
    inandouthalf12
    {
        type            cyclic;
    }
    inandouthalf21
    {
        type            cyclic;
    }
    inandouthalf22
    {
        type            cyclic;
    }
    inandouthalf31
    {
        type            cyclic;
    }
    inandouthalf32
    {
        type            cyclic;
    }
    inandouthalf41
    {
        type            cyclic;
    }
    inandouthalf42
    {
        type            cyclic;
    }
    top
    {
        type            symmetryPlane;
    }
    walls
    {
        type            calculated;
        value           uniform (0 0 0);
    }
    frontAndBackPlanes
    {
        type            empty;
    }
}


// ************************************************************************* //
