/*--------------------------------*- C++ -*----------------------------------*\
| =========                 |                                                 |
| \\      /  F ield         | OpenFOAM: The Open Source CFD Toolbox           |
|  \\    /   O peration     | Version:  2.4.x                                 |
|   \\  /    A nd           | Web:      www.OpenFOAM.org                      |
|    \\/     M anipulation  |                                                 |
\*---------------------------------------------------------------------------*/
FoamFile
{
    version     2.0;
    format      ascii;
    class       volScalarField;
    location    "12.25";
    object      epsilon_0;
}
// * * * * * * * * * * * * * * * * * * * * * * * * * * * * * * * * * * * * * //

dimensions      [0 2 -3 0 0 0 0];

internalField   nonuniform List<scalar> 
360
(
1.60309e-27
1e-20
1e-20
1e-20
1e-20
1e-20
1e-20
1e-20
1e-20
1e-20
1e-20
1e-20
1e-20
1e-20
1e-20
1e-20
1e-20
1e-20
1e-20
1e-20
1e-20
1e-20
1e-20
1e-20
1e-20
1e-20
1e-20
1e-20
1e-20
1e-20
1e-20
1e-20
1e-20
1e-20
1e-20
1e-20
1e-20
1e-20
1e-20
1e-20
1e-20
1e-20
1e-20
1e-20
1e-20
1e-20
1e-20
1e-20
1e-20
1e-20
1e-20
1e-20
1e-20
1e-20
1e-20
1e-20
1e-20
1e-20
1e-20
1e-20
1e-20
1e-20
1e-20
1e-20
1e-20
1e-20
1e-20
1e-20
1e-20
1e-20
1e-20
1e-20
1e-20
1e-20
1e-20
1e-20
1e-20
1e-20
1e-20
1e-20
1e-20
1e-20
1e-20
1e-20
1e-20
1e-20
1e-20
1e-20
1e-20
1e-20
1e-20
1e-20
1e-20
1e-20
1e-20
1e-20
1e-20
1e-20
1e-20
1e-20
1e-20
1e-20
1e-20
1e-20
1e-20
1e-20
1e-20
1e-20
1e-20
1e-20
1e-20
1e-20
1e-20
1e-20
1e-20
1e-20
1e-20
1e-20
1e-20
1e-20
1e-20
1e-20
1e-20
1e-20
1e-20
1e-20
1e-20
1e-20
1e-20
1e-20
1e-20
1e-20
3.65752e-20
2.4414e-19
1.76338e-18
1.34485e-17
1.10808e-16
1.01287e-15
1.05341e-14
1.27372e-13
1.82211e-12
3.12943e-11
6.53078e-10
1.63327e-08
5.03553e-07
1.93807e-05
0.000886554
0.0263323
0.150265
0.200227
0.204876
0.196131
0.183058
0.168932
0.155111
0.142154
0.130255
0.119436
0.109641
0.10078
0.0927519
0.0854603
0.0788153
0.0727369
0.0671555
0.0620114
0.0572534
0.0528382
0.0487293
0.044896
0.0413128
0.0379584
0.0348152
0.031869
0.0291082
0.0265235
0.0241075
0.0218544
0.0197594
0.0178188
0.0160289
0.0143864
0.0128874
0.0115277
0.010302
0.00920427
0.00822757
0.00736399
0.00660492
0.00594129
0.00536379
0.00486317
0.0044305
0.00405734
0.00373594
0.00345928
0.00322113
0.00301599
0.00283914
0.00268647
0.0025545
0.00243908
0.00233727
0.00224758
0.00216869
0.00209941
0.00203867
0.00198553
0.00193914
0.00189875
0.00186369
0.00183335
0.00180719
0.0017847
0.00176544
0.00174899
0.00173497
0.00172303
0.00171284
0.00170409
0.00169648
0.00168974
0.00168359
0.00167779
0.00167207
0.00166622
0.00165998
0.00165314
0.00164549
0.00163679
0.00162687
0.0016155
0.00160251
0.00158772
0.00157094
0.00155202
0.0015308
0.00150716
0.00148095
0.00145208
0.00142046
0.00138603
0.00134872
0.00130854
0.00126548
0.0012196
0.00117097
0.0011197
0.00106595
0.00100994
0.000951909
0.000892163
0.000831061
0.000769015
0.00070649
0.000644003
0.000582117
0.000521432
0.000462571
0.000406162
0.000352816
0.000303094
0.000257476
0.000216327
0.000179863
0.000148128
0.000120991
9.81523e-05
7.91758e-05
6.35382e-05
5.0681e-05
4.00627e-05
3.12008e-05
2.3702e-05
1.72811e-05
1.17704e-05
7.1249e-06
3.43233e-06
9.27449e-07
7.29097e-08
1.43896e-09
1.93576e-11
2.43142e-13
2.87519e-15
3.20216e-17
3.43158e-19
1.16859e-20
1e-20
1e-20
1e-20
1e-20
1e-20
1e-20
1e-20
1e-20
1e-20
1e-20
1e-20
1e-20
1e-20
1e-20
1e-20
1e-20
1e-20
1e-20
1e-20
1e-20
1e-20
1e-20
1e-20
1e-20
1e-20
1e-20
1e-20
1e-20
1e-20
1e-20
1e-20
1e-20
1e-20
1e-20
1e-20
1e-20
1e-20
1e-20
1e-20
1e-20
1e-20
1e-20
1e-20
1e-20
1e-20
1e-20
1e-20
1e-20
1e-20
1e-20
1e-20
1e-20
1e-20
1e-20
1e-20
1e-20
1e-20
1e-20
1e-20
1e-20
1e-20
1e-20
1e-20
1e-20
1e-20
1e-20
1e-20
1e-20
1e-20
1e-20
1e-20
1e-20
1e-20
)
;

boundaryField
{
    inandouthalf11
    {
        type            cyclic;
    }
    inandouthalf12
    {
        type            cyclic;
    }
    inandouthalf21
    {
        type            cyclic;
    }
    inandouthalf22
    {
        type            cyclic;
    }
    inandouthalf31
    {
        type            cyclic;
    }
    inandouthalf32
    {
        type            cyclic;
    }
    inandouthalf41
    {
        type            cyclic;
    }
    inandouthalf42
    {
        type            cyclic;
    }
    top
    {
        type            symmetryPlane;
    }
    walls
    {
        type            zeroGradient;
    }
    frontAndBackPlanes
    {
        type            empty;
    }
}


// ************************************************************************* //
