/*--------------------------------*- C++ -*----------------------------------*\
| =========                 |                                                 |
| \\      /  F ield         | OpenFOAM: The Open Source CFD Toolbox           |
|  \\    /   O peration     | Version:  2.4.x                                 |
|   \\  /    A nd           | Web:      www.OpenFOAM.org                      |
|    \\/     M anipulation  |                                                 |
\*---------------------------------------------------------------------------*/
FoamFile
{
    version     2.0;
    format      ascii;
    class       volVectorField;
    location    "12.25";
    object      gradPs;
}
// * * * * * * * * * * * * * * * * * * * * * * * * * * * * * * * * * * * * * //

dimensions      [0 1 -2 0 0 0 0];

internalField   nonuniform List<vector> 
360
(
(0 1.55812e-18 0)
(0 1.7165e-18 0)
(0 -1.80758e-21 0)
(0 -2.3794e-19 0)
(-2.90051e-32 -9.92019e-20 0)
(-1.45028e-32 -5.41482e-20 0)
(-1.45033e-32 -7.00172e-20 0)
(0 -8.00905e-20 0)
(-2.90086e-32 -8.14303e-20 0)
(0 -8.21117e-20 0)
(-1.45054e-32 -8.24096e-20 0)
(0 -8.27506e-20 0)
(-2.9013e-32 -8.3467e-20 0)
(0 -8.42072e-20 0)
(0 -8.51731e-20 0)
(0 -8.61527e-20 0)
(0 -8.6934e-20 0)
(-1.45093e-32 -8.76434e-20 0)
(0 -8.87126e-20 0)
(0 -8.94674e-20 0)
(0 -9.02532e-20 0)
(-1.45117e-32 -9.13737e-20 0)
(0 -9.21901e-20 0)
(0 -9.31389e-20 0)
(0 -9.41123e-20 0)
(-2.90283e-32 -9.49001e-20 0)
(0 -9.59768e-20 0)
(0 -9.70956e-20 0)
(0 -9.78985e-20 0)
(0 -9.88381e-20 0)
(0 -1.0015e-19 0)
(0 -1.00838e-19 0)
(0 -1.02056e-19 0)
(0 -1.03303e-19 0)
(0 -1.04096e-19 0)
(2.90416e-32 -1.05227e-19 0)
(0 -1.06308e-19 0)
(0 -1.07908e-19 0)
(0 -1.08435e-19 0)
(0 -1.0974e-19 0)
(0 -1.11504e-19 0)
(0 -1.11878e-19 0)
(1.45259e-32 -1.1348e-19 0)
(0 -1.14947e-19 0)
(0 -1.15888e-19 0)
(0 -1.17648e-19 0)
(0 -1.18398e-19 0)
(0 -1.19546e-19 0)
(0 -1.21919e-19 0)
(0 -1.22765e-19 0)
(1.45322e-32 -1.23864e-19 0)
(0 -1.25706e-19 0)
(0 -1.27197e-19 0)
(0 -1.28398e-19 0)
(0 -1.30226e-19 0)
(0 -1.31736e-19 0)
(0 -1.33177e-19 0)
(0 -1.35215e-19 0)
(0 -1.36072e-19 0)
(0 -1.3834e-19 0)
(0 -1.40133e-19 0)
(0 -1.41646e-19 0)
(0 -1.43756e-19 0)
(0 -1.45353e-19 0)
(0 -1.47179e-19 0)
(0 -1.49157e-19 0)
(0 -1.51422e-19 0)
(0 -1.53296e-19 0)
(0 -1.54797e-19 0)
(0 -1.57262e-19 0)
(0 -1.60187e-19 0)
(0 -1.61501e-19 0)
(0 -1.63708e-19 0)
(0 -1.66528e-19 0)
(0 -1.68967e-19 0)
(0 -1.71291e-19 0)
(0 -1.73405e-19 0)
(0 -1.76249e-19 0)
(0 -1.79045e-19 0)
(0 -1.81546e-19 0)
(0 -1.84273e-19 0)
(0 -1.87356e-19 0)
(0 -1.90284e-19 0)
(0 -1.93311e-19 0)
(0 -1.96441e-19 0)
(0 -1.99691e-19 0)
(0 -2.02988e-19 0)
(0 -2.06286e-19 0)
(0 -2.09824e-19 0)
(0 -2.13479e-19 0)
(0 -2.17186e-19 0)
(0 -2.21084e-19 0)
(0 -2.25148e-19 0)
(0 -2.29293e-19 0)
(0 -2.33572e-19 0)
(0 -2.37993e-19 0)
(0 -2.42548e-19 0)
(0 -2.47253e-19 0)
(0 -2.52138e-19 0)
(0 -2.57207e-19 0)
(0 -2.62464e-19 0)
(0 -2.67929e-19 0)
(0 -2.73603e-19 0)
(0 -2.79483e-19 0)
(0 -2.85582e-19 0)
(0 -2.91913e-19 0)
(0 -2.98486e-19 0)
(0 -3.05317e-19 0)
(0 -3.12422e-19 0)
(0 -3.19814e-19 0)
(0 -3.27511e-19 0)
(0 -3.35531e-19 0)
(0 -3.43895e-19 0)
(0 -3.52627e-19 0)
(0 -3.61755e-19 0)
(0 -3.71309e-19 0)
(0 -3.81325e-19 0)
(0 -3.91844e-19 0)
(0 -4.0291e-19 0)
(0 -4.14569e-19 0)
(0 -4.26864e-19 0)
(0 -4.39831e-19 0)
(0 -4.53492e-19 0)
(0 -4.67874e-19 0)
(0 -4.83035e-19 0)
(0 -4.9911e-19 0)
(0 -5.16317e-19 0)
(0 -5.34887e-19 0)
(0 -5.54867e-19 0)
(0 -5.75992e-19 0)
(0 -5.98067e-19 0)
(0 2.13313e-16 0)
(0 2.07324e-15 0)
(0 1.40053e-14 0)
(0 9.35614e-14 0)
(0 6.6194e-13 0)
(0 5.10751e-12 0)
(0 4.41739e-11 0)
(0 4.38559e-10 0)
(0 5.09398e-09 0)
(0 7.03534e-08 0)
(0 1.16697e-06 0)
(0 2.47547e-05 0)
(0 0.00114551 0)
(0 0.0680583 0)
(0 1.32821 0)
(0 3.73222 0)
(0 3.15468 0)
(0 -1.29111 0)
(0 -2.75229 0)
(0 -3.3723 0)
(0 -3.46887 0)
(0 -3.42191 0)
(0 -3.33158 0)
(0 -3.22648 0)
(0 -3.11995 0)
(0 -3.01782 0)
(0 -2.92209 0)
(0 -2.83276 0)
(0 -2.74925 0)
(0 -2.67071 0)
(0 -2.59617 0)
(0 -2.52498 0)
(0 -2.45652 0)
(0 -2.39033 0)
(0 -2.32603 0)
(0 -2.26335 0)
(0 -2.20214 0)
(0 -2.14231 0)
(0 -2.08391 0)
(0 -2.02707 0)
(0 -1.97213 0)
(0 -1.91983 0)
(0 -1.87197 0)
(0 -1.83166 0)
(0 -1.80222 0)
(0 -1.78386 0)
(0 -1.7698 0)
(0 -1.74629 0)
(0 -1.69899 0)
(0 -1.62152 0)
(0 -1.51858 0)
(0 -1.4016 0)
(0 -1.28223 0)
(0 -1.16854 0)
(0 -1.06472 0)
(0 -0.972182 0)
(0 -0.89076 0)
(0 -0.819542 0)
(0 -0.757358 0)
(0 -0.703026 0)
(0 -0.655455 0)
(0 -0.613685 0)
(0 -0.576886 0)
(0 -0.544354 0)
(0 -0.515489 0)
(0 -0.489778 0)
(0 -0.466784 0)
(0 -0.446129 0)
(0 -0.427485 0)
(0 -0.410535 0)
(0 -0.39496 0)
(-3.06344e-16 -0.380442 0)
(0 -0.366793 0)
(0 -0.353863 0)
(1.7488e-16 -0.341506 0)
(0 -0.32958 0)
(0 -0.317957 0)
(0 -0.306523 0)
(2.0884e-16 -0.295184 0)
(0 -0.283865 0)
(0 -0.272516 0)
(0 -0.261101 0)
(1.24557e-16 -0.249603 0)
(0 -0.238015 0)
(0 -0.226334 0)
(0 -0.214561 0)
(0 -0.202694 0)
(0 -0.190731 0)
(0 -0.178672 0)
(0 -0.166522 0)
(-8.59062e-17 -0.154305 0)
(0 -0.142067 0)
(0 -0.12989 0)
(0 -0.11791 0)
(0 -0.106342 0)
(0 -0.0954754 0)
(0 -0.0855996 0)
(2.60847e-17 -0.0768048 0)
(1.33151e-17 -0.0686572 0)
(0 -0.0599304 0)
(0 -0.049147 0)
(0 -0.0366864 0)
(0 -0.0261359 0)
(0 -0.0206138 0)
(0 -0.0238311 0)
(0 -0.0143041 0)
(0 0 0)
(0 0 0)
(0 0 0)
(0 0 0)
(0 0 0)
(0 0 0)
(0 0 0)
(0 0 0)
(0 0 0)
(0 0 0)
(0 0 0)
(0 0 0)
(0 0 0)
(0 0 0)
(0 0 0)
(0 0 0)
(0 0 0)
(0 0 0)
(0 0 0)
(0 0 0)
(0 0 0)
(0 0 0)
(0 0 0)
(0 0 0)
(0 0 0)
(0 0 0)
(0 0 0)
(0 0 0)
(0 0 0)
(0 0 0)
(0 0 0)
(0 0 0)
(0 0 0)
(0 0 0)
(0 0 0)
(0 0 0)
(0 0 0)
(0 0 0)
(0 0 0)
(0 0 0)
(0 0 0)
(0 0 0)
(0 0 0)
(0 0 0)
(0 0 0)
(0 0 0)
(0 0 0)
(0 0 0)
(0 0 0)
(0 0 0)
(0 0 0)
(0 0 0)
(0 0 0)
(0 0 0)
(0 0 0)
(0 0 0)
(0 0 0)
(0 0 0)
(0 0 0)
(0 0 0)
(0 0 0)
(0 0 0)
(0 0 0)
(0 0 0)
(0 0 0)
(0 0 0)
(0 0 0)
(0 0 0)
(0 0 0)
(0 0 0)
(0 0 0)
(0 0 0)
(0 0 0)
(0 0 0)
(0 0 0)
(0 0 0)
(0 0 0)
(0 0 0)
(0 0 0)
(0 0 0)
(0 0 0)
(0 0 0)
(0 0 0)
(0 0 0)
(0 0 0)
(0 0 0)
(0 0 0)
(0 0 0)
(0 0 0)
(0 0 0)
(0 0 0)
(0 0 0)
(0 0 0)
(0 0 0)
(0 0 0)
(0 0 0)
(0 0 0)
(0 0 0)
(0 0 0)
(0 0 0)
(0 0 0)
(0 0 0)
(0 0 0)
(0 0 0)
(0 0 0)
(0 0 0)
(0 0 0)
(0 0 0)
(0 0 0)
(0 0 0)
(0 0 0)
(0 0 0)
(0 0 0)
(0 0 0)
(0 0 0)
(0 0 0)
(0 0 0)
(0 0 0)
(0 0 0)
(0 0 0)
(0 0 0)
(0 0 0)
(0 0 0)
)
;

boundaryField
{
    inandouthalf11
    {
        type            cyclic;
    }
    inandouthalf12
    {
        type            cyclic;
    }
    inandouthalf21
    {
        type            cyclic;
    }
    inandouthalf22
    {
        type            cyclic;
    }
    inandouthalf31
    {
        type            cyclic;
    }
    inandouthalf32
    {
        type            cyclic;
    }
    inandouthalf41
    {
        type            cyclic;
    }
    inandouthalf42
    {
        type            cyclic;
    }
    top
    {
        type            symmetryPlane;
    }
    walls
    {
        type            calculated;
        value           uniform (0 0 0);
    }
    frontAndBackPlanes
    {
        type            empty;
    }
}


// ************************************************************************* //
