/*--------------------------------*- C++ -*----------------------------------*\
| =========                 |                                                 |
| \\      /  F ield         | OpenFOAM: The Open Source CFD Toolbox           |
|  \\    /   O peration     | Version:  2.4.x                                 |
|   \\  /    A nd           | Web:      www.OpenFOAM.org                      |
|    \\/     M anipulation  |                                                 |
\*---------------------------------------------------------------------------*/
FoamFile
{
    version     2.0;
    format      ascii;
    class       volScalarField;
    location    "12.25";
    object      mua;
}
// * * * * * * * * * * * * * * * * * * * * * * * * * * * * * * * * * * * * * //

dimensions      [1 -1 -1 0 0 0 0];

internalField   nonuniform List<scalar> 
360
(
7.41289e+07
5.27319e+07
6.42454e+07
6.40488e+07
5.92278e+07
5.63012e+07
5.44592e+07
5.26319e+07
5.06826e+07
4.87079e+07
4.67923e+07
4.49924e+07
4.33228e+07
4.17836e+07
4.03666e+07
3.90642e+07
3.78751e+07
3.67984e+07
3.58268e+07
3.49528e+07
3.41752e+07
3.34816e+07
3.28674e+07
3.23285e+07
3.18595e+07
3.14569e+07
3.11157e+07
3.08276e+07
3.05929e+07
3.04092e+07
3.02699e+07
3.01715e+07
3.01155e+07
3.00894e+07
3.01003e+07
3.01424e+07
3.02132e+07
3.03046e+07
3.04186e+07
3.05599e+07
3.07107e+07
3.08807e+07
3.10693e+07
3.1261e+07
3.14637e+07
3.16722e+07
3.18883e+07
3.2117e+07
3.23373e+07
3.25503e+07
3.27724e+07
3.29887e+07
3.31985e+07
3.34017e+07
3.36e+07
3.37831e+07
3.39625e+07
3.41276e+07
3.42876e+07
3.44394e+07
3.45663e+07
3.4683e+07
3.47806e+07
3.48666e+07
3.49409e+07
3.50024e+07
3.50454e+07
3.50748e+07
3.50986e+07
3.5111e+07
3.50947e+07
3.50638e+07
3.50316e+07
3.49777e+07
3.49062e+07
3.48212e+07
3.4735e+07
3.46413e+07
3.45353e+07
3.44202e+07
3.4299e+07
3.41656e+07
3.40192e+07
3.38626e+07
3.36968e+07
3.3524e+07
3.33459e+07
3.31663e+07
3.29855e+07
3.28017e+07
3.26145e+07
3.24226e+07
3.22236e+07
3.20171e+07
3.18038e+07
3.15846e+07
3.13604e+07
3.11323e+07
3.09002e+07
3.06635e+07
3.04211e+07
3.01714e+07
2.99126e+07
2.96434e+07
2.93623e+07
2.9068e+07
2.87593e+07
2.84349e+07
2.80937e+07
2.77348e+07
2.73577e+07
2.69624e+07
2.65499e+07
2.61219e+07
2.56812e+07
2.52316e+07
2.4778e+07
2.43258e+07
2.38807e+07
2.34482e+07
2.30324e+07
2.26354e+07
2.22549e+07
2.18827e+07
2.15015e+07
2.1083e+07
2.05883e+07
1.99741e+07
1.92063e+07
1.82774e+07
1.72189e+07
1.6101e+07
1.50282e+07
1.4157e+07
1.37458e+07
1.42347e+07
1.64253e+07
2.20867e+07
3.59448e+07
7.15932e+07
1.52842e+08
1.68976e+08
3.9172e+07
4.28788e+07
7.69927e+07
4.87026e+07
0.149021
0.0192561
0.0113897
0.0093833
0.0081754
0.00732944
0.00674376
0.00634845
0.00609138
0.00593072
0.00583368
0.00577582
0.00574002
0.0057149
0.00569327
0.00567083
0.00564517
0.00561507
0.00558009
0.0055402
0.00549568
0.00544698
0.00539463
0.00533921
0.00528138
0.00522175
0.00516095
0.0050996
0.00503826
0.00497743
0.00491756
0.00485899
0.00480192
0.00474649
0.00469271
0.00464058
0.00459003
0.00454101
0.00449346
0.00444733
0.00440258
0.00435916
0.00431702
0.0042761
0.00423635
0.00419772
0.00416015
0.00412356
0.00408789
0.00405308
0.00401905
0.00398575
0.00395309
0.00392101
0.00388945
0.00385802
0.00382636
0.00379441
0.00376211
0.00372939
0.00369618
0.00366239
0.00362794
0.00359274
0.00355668
0.00351966
0.00348156
0.00344225
0.0034016
0.00335945
0.00331563
0.00326997
0.00322226
0.00317228
0.00311975
0.0030644
0.00300587
0.00294377
0.00287761
0.00280683
0.00273071
0.00264836
0.00255865
0.00246003
0.00235043
0.00222682
0.00208456
0.00191586
0.00170572
0.00141726
0
0
0
0
0
0
0
0
0
0
0
0
0
0
0
0
0
0
0
0
0
0
0
0
0
0
0
0
0
0
0
0
0
0
0
0
0
0
0
0
0
0
0
0
0
0
0
0
0
0
0
0
0
0
0
0
0
0
0
0
0
0
0
0
0
0
0
0
0
0
0
0
0
0
0
0
0
0
0
0
0
0
0
0
0
0
0
0
0
0
0
0
0
0
0
0
0
0
0
0
0
0
0
0
0
0
0
0
0
0
0
0
0
0
0
0
0
0
0
0
0
0
0
0
)
;

boundaryField
{
    inandouthalf11
    {
        type            cyclic;
    }
    inandouthalf12
    {
        type            cyclic;
    }
    inandouthalf21
    {
        type            cyclic;
    }
    inandouthalf22
    {
        type            cyclic;
    }
    inandouthalf31
    {
        type            cyclic;
    }
    inandouthalf32
    {
        type            cyclic;
    }
    inandouthalf41
    {
        type            cyclic;
    }
    inandouthalf42
    {
        type            cyclic;
    }
    top
    {
        type            symmetryPlane;
    }
    walls
    {
        type            calculated;
        value           uniform 1e+30;
    }
    frontAndBackPlanes
    {
        type            empty;
    }
}


// ************************************************************************* //
