/*--------------------------------*- C++ -*----------------------------------*\
| =========                 |                                                 |
| \\      /  F ield         | OpenFOAM: The Open Source CFD Toolbox           |
|  \\    /   O peration     | Version:  2.4.x                                 |
|   \\  /    A nd           | Web:      www.OpenFOAM.org                      |
|    \\/     M anipulation  |                                                 |
\*---------------------------------------------------------------------------*/
FoamFile
{
    version     2.0;
    format      ascii;
    class       volScalarField;
    location    "12.25";
    object      p;
}
// * * * * * * * * * * * * * * * * * * * * * * * * * * * * * * * * * * * * * //

dimensions      [1 -1 -2 0 0 0 0];

internalField   nonuniform List<scalar> 
360
(
4892.57
4887.67
4882.76
4877.86
4872.95
4868.05
4863.14
4858.24
4853.33
4848.43
4843.52
4838.62
4833.71
4828.81
4823.9
4819
4814.09
4809.19
4804.28
4799.38
4794.47
4789.57
4784.66
4779.76
4774.85
4769.94
4765.04
4760.13
4755.23
4750.32
4745.42
4740.51
4735.61
4730.7
4725.8
4720.89
4715.98
4711.08
4706.17
4701.27
4696.36
4691.46
4686.55
4681.65
4676.74
4671.83
4666.93
4662.02
4657.12
4652.21
4647.31
4642.4
4637.49
4632.59
4627.68
4622.78
4617.87
4612.97
4608.06
4603.15
4598.25
4593.34
4588.44
4583.53
4578.62
4573.72
4568.81
4563.91
4559
4554.09
4549.19
4544.28
4539.38
4534.47
4529.56
4524.66
4519.75
4514.85
4509.94
4505.03
4500.13
4495.22
4490.32
4485.41
4480.5
4475.6
4470.69
4465.79
4460.88
4455.97
4451.07
4446.16
4441.26
4436.35
4431.44
4426.54
4421.63
4416.72
4411.82
4406.91
4402.01
4397.1
4392.19
4387.29
4382.38
4377.48
4372.57
4367.66
4362.76
4357.85
4352.94
4348.04
4343.13
4338.23
4333.32
4328.41
4323.51
4318.6
4313.69
4308.79
4303.88
4298.98
4294.07
4289.16
4284.26
4279.35
4274.44
4269.54
4264.63
4259.72
4254.82
4249.91
4245.01
4240.1
4235.19
4230.29
4225.38
4220.47
4215.57
4210.66
4205.76
4200.85
4195.94
4191.04
4186.13
4181.22
4176.29
4170.09
4160.95
4153.45
4146.99
4140.95
4135.16
4129.54
4124.06
4118.69
4113.42
4108.24
4103.13
4098.08
4093.09
4088.13
4083.22
4078.34
4073.48
4068.64
4063.83
4059.03
4054.24
4049.46
4044.7
4039.94
4035.18
4030.43
4025.69
4020.94
4016.2
4011.45
4006.7
4001.95
3997.19
3992.43
3987.66
3982.88
3978.1
3973.3
3968.5
3963.69
3958.87
3954.04
3949.2
3944.35
3939.5
3934.64
3929.77
3924.9
3920.02
3915.14
3910.25
3905.36
3900.47
3895.52
3890.48
3885.32
3880.06
3874.7
3869.22
3863.63
3857.93
3852.11
3846.17
3840.1
3833.92
3827.61
3821.17
3814.6
3807.9
3801.06
3794.08
3786.96
3779.7
3772.29
3764.73
3757.01
3749.14
3741.11
3732.92
3724.57
3716.05
3707.35
3698.48
3689.43
3680.2
3670.78
3661.17
3651.37
3641.37
3631.17
3620.77
3610.15
3599.32
3588.28
3577.01
3565.51
3553.79
3541.83
3529.62
3517.17
3504.47
3491.51
3478.3
3464.81
3451.05
3437.02
3422.69
3408.08
3393.17
3377.96
3362.44
3346.6
3330.44
3313.95
3297.12
3279.95
3262.42
3244.53
3226.28
3207.65
3188.64
3169.23
3149.44
3129.23
3108.62
3087.58
3066.12
3044.22
3021.87
2999.06
2975.8
2952.05
2927.81
2903.09
2877.86
2852.12
2825.86
2799.06
2771.72
2743.82
2715.36
2686.32
2656.7
2626.47
2595.62
2564.15
2532.05
2499.29
2465.86
2431.76
2396.96
2361.46
2325.24
2288.28
2250.57
2212.1
2172.85
2132.8
2091.93
2050.24
2007.7
1964.3
1922.76
1883.52
1844.28
1805.04
1765.8
1726.56
1687.32
1648.08
1608.84
1569.6
1530.36
1491.12
1451.88
1412.64
1373.4
1334.16
1294.92
1255.68
1216.44
1177.2
1137.96
1098.72
1059.48
1020.24
981
941.76
902.52
863.28
824.04
784.8
745.56
706.32
667.08
627.84
588.6
549.36
510.12
470.88
431.64
392.4
353.16
313.92
274.68
235.44
196.2
156.96
117.72
78.48
39.24
1.17178e-07
)
;

boundaryField
{
    inandouthalf11
    {
        type            cyclic;
    }
    inandouthalf12
    {
        type            cyclic;
    }
    inandouthalf21
    {
        type            cyclic;
    }
    inandouthalf22
    {
        type            cyclic;
    }
    inandouthalf31
    {
        type            cyclic;
    }
    inandouthalf32
    {
        type            cyclic;
    }
    inandouthalf41
    {
        type            cyclic;
    }
    inandouthalf42
    {
        type            cyclic;
    }
    top
    {
        type            symmetryPlane;
    }
    walls
    {
        type            slip;
    }
    frontAndBackPlanes
    {
        type            empty;
    }
}


// ************************************************************************* //
