/*--------------------------------*- C++ -*----------------------------------*\
| =========                 |                                                 |
| \\      /  F ield         | OpenFOAM: The Open Source CFD Toolbox           |
|  \\    /   O peration     | Version:  2.4.x                                 |
|   \\  /    A nd           | Web:      www.OpenFOAM.org                      |
|    \\/     M anipulation  |                                                 |
\*---------------------------------------------------------------------------*/
FoamFile
{
    version     2.0;
    format      ascii;
    class       surfaceScalarField;
    location    "12.25";
    object      phia_0;
}
// * * * * * * * * * * * * * * * * * * * * * * * * * * * * * * * * * * * * * //

dimensions      [0 3 -1 0 0 0 0];

internalField   nonuniform List<scalar> 
359
(
-4.92024e-15
-1.22885e-14
-1.91658e-14
-2.58817e-14
-3.29163e-14
-4.02576e-14
-4.78213e-14
-5.56015e-14
-6.36234e-14
-7.19128e-14
-8.04826e-14
-8.93329e-14
-9.84606e-14
-1.07858e-13
-1.17516e-13
-1.27425e-13
-1.3757e-13
-1.47937e-13
-1.58506e-13
-1.69259e-13
-1.80174e-13
-1.91232e-13
-2.0241e-13
-2.13686e-13
-2.2504e-13
-2.36449e-13
-2.47891e-13
-2.59348e-13
-2.708e-13
-2.82227e-13
-2.93612e-13
-3.04941e-13
-3.16193e-13
-3.27362e-13
-3.38431e-13
-3.49389e-13
-3.60226e-13
-3.70935e-13
-3.81511e-13
-3.91942e-13
-4.02228e-13
-4.12365e-13
-4.22346e-13
-4.32175e-13
-4.41847e-13
-4.51364e-13
-4.60727e-13
-4.69932e-13
-4.78984e-13
-4.87889e-13
-4.96644e-13
-5.05254e-13
-5.13722e-13
-5.22051e-13
-5.30244e-13
-5.38307e-13
-5.46241e-13
-5.54052e-13
-5.61741e-13
-5.6931e-13
-5.76769e-13
-5.84117e-13
-5.91362e-13
-5.98504e-13
-6.05548e-13
-6.12495e-13
-6.19351e-13
-6.26117e-13
-6.32795e-13
-6.39387e-13
-6.45899e-13
-6.52334e-13
-6.5869e-13
-6.64973e-13
-6.71183e-13
-6.77325e-13
-6.83398e-13
-6.89402e-13
-6.95339e-13
-7.01212e-13
-7.07019e-13
-7.12762e-13
-7.18444e-13
-7.24066e-13
-7.29627e-13
-7.3513e-13
-7.40573e-13
-7.45958e-13
-7.51282e-13
-7.56547e-13
-7.61751e-13
-7.66895e-13
-7.7198e-13
-7.77005e-13
-7.81971e-13
-7.86878e-13
-7.91727e-13
-7.96516e-13
-8.01245e-13
-8.05915e-13
-8.10525e-13
-8.15075e-13
-8.19567e-13
-8.23999e-13
-8.28373e-13
-8.3269e-13
-8.36951e-13
-8.41156e-13
-8.45308e-13
-8.49407e-13
-8.53454e-13
-8.57452e-13
-8.614e-13
-8.65301e-13
-8.69154e-13
-8.72958e-13
-8.76713e-13
-8.80417e-13
-8.84067e-13
-8.87659e-13
-8.91187e-13
-8.94647e-13
-8.98034e-13
-9.01343e-13
-9.04574e-13
-9.07729e-13
-9.10816e-13
-9.1385e-13
-9.16849e-13
-9.19839e-13
-9.22838e-13
-9.2586e-13
-9.28897e-13
-9.31908e-13
-9.34791e-13
-9.37365e-13
-9.39413e-13
-9.40797e-13
-9.41558e-13
-9.41893e-13
-9.42039e-13
-9.42023e-13
-9.42513e-13
-9.42694e-13
-9.42795e-13
-9.42737e-13
-1.09958e-11
-5.57114e-10
-9.15065e-10
-1.10781e-09
-1.21126e-09
-1.26209e-09
-1.26244e-09
-1.20911e-09
-1.09722e-09
-9.22409e-10
-6.81541e-10
-3.73198e-10
2.9288e-12
4.43601e-10
9.48014e-10
1.51238e-09
2.13254e-09
2.80379e-09
3.52087e-09
4.27776e-09
5.06779e-09
5.88322e-09
6.71527e-09
7.5536e-09
8.38618e-09
9.19861e-09
9.97306e-09
1.06856e-08
1.13015e-08
1.17699e-08
1.20252e-08
1.2001e-08
1.1656e-08
1.09928e-08
1.00573e-08
8.92057e-09
7.65758e-09
6.33404e-09
5.00138e-09
3.69677e-09
2.44543e-09
1.26334e-09
1.59686e-10
-8.61145e-10
-1.79813e-09
-2.65251e-09
-3.42705e-09
-4.12551e-09
-4.7522e-09
-5.31178e-09
-5.80901e-09
-6.24867e-09
-6.63545e-09
-6.97386e-09
-7.26825e-09
-7.52754e-09
-7.75367e-09
-7.94871e-09
-8.11484e-09
-8.25425e-09
-8.36919e-09
-8.46184e-09
-8.53435e-09
-8.58874e-09
-8.62692e-09
-8.65065e-09
-8.66153e-09
-8.661e-09
-8.65037e-09
-8.63079e-09
-8.60332e-09
-8.56888e-09
-8.5283e-09
-8.4823e-09
-8.43145e-09
-8.37616e-09
-8.31662e-09
-8.25274e-09
-8.1842e-09
-8.11062e-09
-8.03204e-09
-7.95029e-09
-7.87124e-09
-7.80805e-09
-7.78431e-09
-7.83225e-09
-7.96959e-09
-8.15602e-09
-8.31044e-09
-8.49713e-09
-9.84243e-09
-1.10273e-08
-1.20004e-08
-1.27625e-08
-1.3334e-08
-1.37266e-08
-1.39508e-08
-1.40188e-08
-1.39459e-08
-1.37518e-08
-1.34365e-08
-1.30422e-08
-1.27689e-08
-1.17724e-08
-1.32044e-08
-4.46714e-08
-1.34477e-07
-1.58705e-07
-1.58521e-07
-1.58458e-07
-1.58459e-07
-1.58454e-07
-1.58447e-07
-1.58438e-07
-1.58426e-07
-1.58413e-07
-1.58398e-07
-1.58382e-07
-1.58365e-07
-1.58348e-07
-1.58331e-07
-1.58317e-07
-1.58303e-07
-1.5829e-07
-1.5828e-07
-1.58272e-07
-1.58265e-07
-1.5826e-07
-1.58255e-07
-1.5825e-07
-1.58244e-07
-1.58236e-07
-1.58215e-07
-1.58201e-07
-1.582e-07
-1.582e-07
-1.582e-07
-1.582e-07
-1.582e-07
-1.582e-07
-1.582e-07
-1.582e-07
-1.582e-07
-1.582e-07
-1.582e-07
-1.582e-07
-1.582e-07
-1.582e-07
-1.582e-07
-1.582e-07
-1.582e-07
-1.582e-07
-1.582e-07
-1.582e-07
-1.582e-07
-1.582e-07
-1.582e-07
-1.582e-07
-1.582e-07
-1.582e-07
-1.582e-07
-1.582e-07
-1.582e-07
-1.582e-07
-1.582e-07
-1.582e-07
-1.582e-07
-1.582e-07
-1.582e-07
-1.582e-07
-1.582e-07
-1.582e-07
-1.582e-07
-1.582e-07
-1.582e-07
-1.582e-07
-1.582e-07
-1.582e-07
-1.582e-07
-1.582e-07
-1.582e-07
-1.582e-07
-1.582e-07
-1.582e-07
-1.582e-07
-1.582e-07
-1.582e-07
-1.582e-07
-1.582e-07
-1.582e-07
-1.582e-07
-1.582e-07
-1.582e-07
-1.582e-07
-1.582e-07
-1.582e-07
-1.582e-07
-1.582e-07
-1.582e-07
-1.582e-07
-1.582e-07
-1.582e-07
-1.582e-07
-1.582e-07
-1.582e-07
-1.582e-07
-1.582e-07
-1.582e-07
-1.582e-07
-1.58199e-07
-1.58182e-07
-1.57476e-07
-1.32607e-07
)
;

boundaryField
{
    inandouthalf11
    {
        type            cyclic;
        value           nonuniform List<scalar> 
100
(
1.68685e-38
5.31725e-16
1.10819e-15
1.63346e-15
2.17968e-15
2.76197e-15
3.36868e-15
3.99541e-15
4.64416e-15
5.31752e-15
6.01716e-15
6.74385e-15
7.49768e-15
8.27837e-15
9.08547e-15
9.91835e-15
1.07762e-14
1.1658e-14
1.25623e-14
1.34877e-14
1.44327e-14
1.53955e-14
1.63744e-14
1.73676e-14
1.83732e-14
1.93893e-14
2.04141e-14
2.14457e-14
2.24824e-14
2.35223e-14
2.45639e-14
2.56055e-14
2.66457e-14
2.7683e-14
2.87162e-14
2.97441e-14
3.07655e-14
3.17796e-14
3.27856e-14
3.37826e-14
3.47701e-14
3.57475e-14
3.67143e-14
3.76702e-14
3.8615e-14
3.95485e-14
4.04707e-14
4.13812e-14
4.22802e-14
4.31678e-14
4.40441e-14
4.49093e-14
4.57634e-14
4.66068e-14
4.74396e-14
4.82621e-14
4.90746e-14
4.98774e-14
5.06707e-14
5.14547e-14
5.22298e-14
5.29963e-14
5.37547e-14
5.45052e-14
5.5248e-14
5.59834e-14
5.67117e-14
5.74332e-14
5.8148e-14
5.88563e-14
5.95584e-14
6.02548e-14
6.09454e-14
6.16306e-14
6.23105e-14
6.29856e-14
6.36557e-14
6.4321e-14
6.49816e-14
6.56377e-14
6.62892e-14
6.69363e-14
6.75792e-14
6.8218e-14
6.88528e-14
6.94838e-14
7.0111e-14
7.07343e-14
7.13538e-14
7.19693e-14
7.25809e-14
7.31887e-14
7.37925e-14
7.43926e-14
7.49889e-14
7.55816e-14
7.61705e-14
7.67559e-14
7.73376e-14
7.79157e-14
)
;
    }
    inandouthalf12
    {
        type            cyclic;
        value           nonuniform List<scalar> 
100
(
-1.68685e-38
-5.31725e-16
-1.10819e-15
-1.63346e-15
-2.17968e-15
-2.76197e-15
-3.36868e-15
-3.99541e-15
-4.64416e-15
-5.31752e-15
-6.01716e-15
-6.74385e-15
-7.49768e-15
-8.27837e-15
-9.08547e-15
-9.91835e-15
-1.07762e-14
-1.1658e-14
-1.25623e-14
-1.34877e-14
-1.44327e-14
-1.53955e-14
-1.63744e-14
-1.73676e-14
-1.83732e-14
-1.93893e-14
-2.04141e-14
-2.14457e-14
-2.24824e-14
-2.35223e-14
-2.45639e-14
-2.56055e-14
-2.66457e-14
-2.7683e-14
-2.87162e-14
-2.97441e-14
-3.07655e-14
-3.17796e-14
-3.27856e-14
-3.37826e-14
-3.47701e-14
-3.57475e-14
-3.67143e-14
-3.76702e-14
-3.8615e-14
-3.95485e-14
-4.04707e-14
-4.13812e-14
-4.22802e-14
-4.31678e-14
-4.40441e-14
-4.49093e-14
-4.57634e-14
-4.66068e-14
-4.74396e-14
-4.82621e-14
-4.90746e-14
-4.98774e-14
-5.06707e-14
-5.14547e-14
-5.22298e-14
-5.29963e-14
-5.37547e-14
-5.45052e-14
-5.5248e-14
-5.59834e-14
-5.67117e-14
-5.74332e-14
-5.8148e-14
-5.88563e-14
-5.95584e-14
-6.02548e-14
-6.09454e-14
-6.16306e-14
-6.23105e-14
-6.29856e-14
-6.36557e-14
-6.4321e-14
-6.49816e-14
-6.56377e-14
-6.62892e-14
-6.69363e-14
-6.75792e-14
-6.8218e-14
-6.88528e-14
-6.94838e-14
-7.0111e-14
-7.07343e-14
-7.13538e-14
-7.19693e-14
-7.25809e-14
-7.31887e-14
-7.37925e-14
-7.43926e-14
-7.49889e-14
-7.55816e-14
-7.61705e-14
-7.67559e-14
-7.73376e-14
-7.79157e-14
)
;
    }
    inandouthalf21
    {
        type            cyclic;
        value           nonuniform List<scalar> 
100
(
7.84903e-14
7.90613e-14
7.96289e-14
8.01931e-14
8.07543e-14
8.13124e-14
8.18679e-14
8.24208e-14
8.29715e-14
8.35203e-14
8.40676e-14
8.46137e-14
8.5159e-14
8.57039e-14
8.62487e-14
8.67937e-14
8.73393e-14
8.78854e-14
8.84322e-14
8.89794e-14
8.9527e-14
9.00746e-14
9.06217e-14
9.11683e-14
9.17143e-14
9.22605e-14
9.28085e-14
9.3361e-14
9.39226e-14
9.44991e-14
9.5097e-14
9.5723e-14
9.6382e-14
9.70737e-14
9.77859e-14
9.8485e-14
9.91124e-14
9.9602e-14
9.99177e-14
1.0008e-13
1.00149e-13
1.00189e-13
1.00236e-13
1.00337e-13
1.00397e-13
1.00443e-13
1.00544e-13
2.59204e-08
1.27103e-07
2.22593e-07
2.99338e-07
3.63127e-07
4.17124e-07
4.63506e-07
5.03829e-07
5.39247e-07
5.70651e-07
5.98734e-07
6.24046e-07
6.47023e-07
6.6801e-07
6.87282e-07
7.05061e-07
7.21521e-07
7.36804e-07
7.51025e-07
7.64276e-07
7.76633e-07
7.88158e-07
7.98904e-07
8.08915e-07
8.18229e-07
8.26881e-07
8.34901e-07
8.4232e-07
8.49168e-07
8.55475e-07
8.61275e-07
8.66604e-07
8.71501e-07
8.76004e-07
8.80152e-07
8.83978e-07
8.87513e-07
8.90784e-07
8.93813e-07
8.96621e-07
8.99224e-07
9.01638e-07
9.03877e-07
9.05954e-07
9.0788e-07
9.09666e-07
9.11321e-07
9.12856e-07
9.14277e-07
9.15594e-07
9.16813e-07
9.17942e-07
9.18986e-07
)
;
    }
    inandouthalf22
    {
        type            cyclic;
        value           nonuniform List<scalar> 
100
(
-7.84903e-14
-7.90613e-14
-7.96289e-14
-8.01931e-14
-8.07543e-14
-8.13124e-14
-8.18679e-14
-8.24208e-14
-8.29715e-14
-8.35203e-14
-8.40676e-14
-8.46137e-14
-8.5159e-14
-8.57039e-14
-8.62487e-14
-8.67937e-14
-8.73393e-14
-8.78854e-14
-8.84322e-14
-8.89794e-14
-8.9527e-14
-9.00746e-14
-9.06217e-14
-9.11683e-14
-9.17143e-14
-9.22605e-14
-9.28085e-14
-9.3361e-14
-9.39226e-14
-9.44991e-14
-9.5097e-14
-9.5723e-14
-9.6382e-14
-9.70737e-14
-9.77859e-14
-9.8485e-14
-9.91124e-14
-9.9602e-14
-9.99177e-14
-1.0008e-13
-1.00149e-13
-1.00189e-13
-1.00236e-13
-1.00337e-13
-1.00397e-13
-1.00443e-13
-1.00544e-13
-2.59204e-08
-1.27103e-07
-2.22593e-07
-2.99338e-07
-3.63127e-07
-4.17124e-07
-4.63506e-07
-5.03829e-07
-5.39247e-07
-5.70651e-07
-5.98734e-07
-6.24046e-07
-6.47023e-07
-6.6801e-07
-6.87282e-07
-7.05061e-07
-7.21521e-07
-7.36804e-07
-7.51025e-07
-7.64276e-07
-7.76633e-07
-7.88158e-07
-7.98904e-07
-8.08915e-07
-8.18229e-07
-8.26881e-07
-8.34901e-07
-8.4232e-07
-8.49168e-07
-8.55475e-07
-8.61275e-07
-8.66604e-07
-8.71501e-07
-8.76004e-07
-8.80152e-07
-8.83978e-07
-8.87513e-07
-8.90784e-07
-8.93813e-07
-8.96621e-07
-8.99224e-07
-9.01638e-07
-9.03877e-07
-9.05954e-07
-9.0788e-07
-9.09666e-07
-9.11321e-07
-9.12856e-07
-9.14277e-07
-9.15594e-07
-9.16813e-07
-9.17942e-07
-9.18986e-07
)
;
    }
    inandouthalf31
    {
        type            cyclic;
        value           nonuniform List<scalar> 
110
(
9.19955e-07
9.39547e-07
9.59502e-07
9.79824e-07
1.00052e-06
1.02161e-06
1.04308e-06
1.06495e-06
1.08724e-06
1.10994e-06
1.13307e-06
1.15663e-06
1.18064e-06
1.2051e-06
1.23003e-06
1.25543e-06
1.28132e-06
1.30771e-06
1.33461e-06
1.36202e-06
1.38996e-06
1.41845e-06
1.44749e-06
1.4771e-06
1.50729e-06
1.53807e-06
1.56945e-06
1.60145e-06
1.63408e-06
1.66735e-06
1.70129e-06
1.73589e-06
1.77119e-06
1.80718e-06
1.84389e-06
1.88134e-06
1.91953e-06
1.95281e-06
1.98801e-06
2.02371e-06
2.05994e-06
2.09672e-06
2.13407e-06
2.17198e-06
2.21049e-06
2.24961e-06
2.28935e-06
2.32975e-06
2.37083e-06
2.41255e-06
2.4551e-06
2.49823e-06
2.54184e-06
2.58749e-06
2.63289e-06
2.67987e-06
2.72786e-06
2.77698e-06
2.82732e-06
2.87898e-06
2.93204e-06
2.98662e-06
3.04283e-06
3.10078e-06
3.16056e-06
3.22227e-06
3.28598e-06
3.35184e-06
3.41972e-06
3.48975e-06
3.56189e-06
3.63613e-06
3.71242e-06
3.7907e-06
3.87088e-06
3.95287e-06
4.03654e-06
4.12171e-06
4.20801e-06
4.29451e-06
4.3818e-06
4.47074e-06
4.56148e-06
4.65407e-06
4.74853e-06
4.84492e-06
4.94325e-06
5.04359e-06
5.14596e-06
5.25041e-06
5.35698e-06
5.46571e-06
5.57665e-06
5.68984e-06
5.80533e-06
5.92316e-06
6.04339e-06
6.16605e-06
6.29121e-06
6.4189e-06
6.54919e-06
6.68212e-06
6.81775e-06
6.95613e-06
7.09732e-06
7.24138e-06
7.38836e-06
7.53832e-06
7.69133e-06
7.84744e-06
)
;
    }
    inandouthalf32
    {
        type            cyclic;
        value           nonuniform List<scalar> 
110
(
-9.19955e-07
-9.39547e-07
-9.59502e-07
-9.79824e-07
-1.00052e-06
-1.02161e-06
-1.04308e-06
-1.06495e-06
-1.08724e-06
-1.10994e-06
-1.13307e-06
-1.15663e-06
-1.18064e-06
-1.2051e-06
-1.23003e-06
-1.25543e-06
-1.28132e-06
-1.30771e-06
-1.33461e-06
-1.36202e-06
-1.38996e-06
-1.41845e-06
-1.44749e-06
-1.4771e-06
-1.50729e-06
-1.53807e-06
-1.56945e-06
-1.60145e-06
-1.63408e-06
-1.66735e-06
-1.70129e-06
-1.73589e-06
-1.77119e-06
-1.80718e-06
-1.84389e-06
-1.88134e-06
-1.91953e-06
-1.95281e-06
-1.98801e-06
-2.02371e-06
-2.05994e-06
-2.09672e-06
-2.13407e-06
-2.17198e-06
-2.21049e-06
-2.24961e-06
-2.28935e-06
-2.32975e-06
-2.37083e-06
-2.41255e-06
-2.4551e-06
-2.49823e-06
-2.54184e-06
-2.58749e-06
-2.63289e-06
-2.67987e-06
-2.72786e-06
-2.77698e-06
-2.82732e-06
-2.87898e-06
-2.93204e-06
-2.98662e-06
-3.04283e-06
-3.10078e-06
-3.16056e-06
-3.22227e-06
-3.28598e-06
-3.35184e-06
-3.41972e-06
-3.48975e-06
-3.56189e-06
-3.63613e-06
-3.71242e-06
-3.7907e-06
-3.87088e-06
-3.95287e-06
-4.03654e-06
-4.12171e-06
-4.20801e-06
-4.29451e-06
-4.3818e-06
-4.47074e-06
-4.56148e-06
-4.65407e-06
-4.74853e-06
-4.84492e-06
-4.94325e-06
-5.04359e-06
-5.14596e-06
-5.25041e-06
-5.35698e-06
-5.46571e-06
-5.57665e-06
-5.68984e-06
-5.80533e-06
-5.92316e-06
-6.04339e-06
-6.16605e-06
-6.29121e-06
-6.4189e-06
-6.54919e-06
-6.68212e-06
-6.81775e-06
-6.95613e-06
-7.09732e-06
-7.24138e-06
-7.38836e-06
-7.53832e-06
-7.69133e-06
-7.84744e-06
)
;
    }
    inandouthalf41
    {
        type            cyclic;
        value           nonuniform List<scalar> 
50
(
7.02426e-06
7.02426e-06
7.02426e-06
7.02426e-06
7.02426e-06
7.02426e-06
7.02426e-06
7.02426e-06
7.02426e-06
7.02426e-06
7.02426e-06
7.02426e-06
7.02426e-06
7.02426e-06
7.02426e-06
7.02426e-06
7.02426e-06
7.02426e-06
7.02426e-06
7.02426e-06
7.02426e-06
7.02426e-06
7.02426e-06
7.02426e-06
7.02426e-06
7.02426e-06
7.02426e-06
7.02426e-06
7.02426e-06
7.02426e-06
7.02426e-06
7.02426e-06
7.02426e-06
7.02426e-06
7.02426e-06
7.02426e-06
7.02426e-06
7.02426e-06
7.02426e-06
7.02426e-06
7.02426e-06
7.02426e-06
7.02426e-06
7.02426e-06
7.02426e-06
7.02426e-06
7.02426e-06
7.02426e-06
7.02425e-06
7.02402e-06
)
;
    }
    inandouthalf42
    {
        type            cyclic;
        value           nonuniform List<scalar> 
50
(
-7.02426e-06
-7.02426e-06
-7.02426e-06
-7.02426e-06
-7.02426e-06
-7.02426e-06
-7.02426e-06
-7.02426e-06
-7.02426e-06
-7.02426e-06
-7.02426e-06
-7.02426e-06
-7.02426e-06
-7.02426e-06
-7.02426e-06
-7.02426e-06
-7.02426e-06
-7.02426e-06
-7.02426e-06
-7.02426e-06
-7.02426e-06
-7.02426e-06
-7.02426e-06
-7.02426e-06
-7.02426e-06
-7.02426e-06
-7.02426e-06
-7.02426e-06
-7.02426e-06
-7.02426e-06
-7.02426e-06
-7.02426e-06
-7.02426e-06
-7.02426e-06
-7.02426e-06
-7.02426e-06
-7.02426e-06
-7.02426e-06
-7.02426e-06
-7.02426e-06
-7.02426e-06
-7.02426e-06
-7.02426e-06
-7.02426e-06
-7.02426e-06
-7.02426e-06
-7.02426e-06
-7.02426e-06
-7.02425e-06
-7.02402e-06
)
;
    }
    top
    {
        type            symmetryPlane;
        value           uniform 0;
    }
    walls
    {
        type            fixedValue;
        value           uniform 0;
    }
    frontAndBackPlanes
    {
        type            empty;
        value           nonuniform 0();
    }
}


// ************************************************************************* //
