/*--------------------------------*- C++ -*----------------------------------*\
| =========                 |                                                 |
| \\      /  F ield         | OpenFOAM: The Open Source CFD Toolbox           |
|  \\    /   O peration     | Version:  2.4.x                                 |
|   \\  /    A nd           | Web:      www.OpenFOAM.org                      |
|    \\/     M anipulation  |                                                 |
\*---------------------------------------------------------------------------*/
FoamFile
{
    version     2.0;
    format      ascii;
    class       surfaceScalarField;
    location    "12.25";
    object      phia;
}
// * * * * * * * * * * * * * * * * * * * * * * * * * * * * * * * * * * * * * //

dimensions      [0 3 -1 0 0 0 0];

internalField   nonuniform List<scalar> 
359
(
-4.91917e-15
-1.22858e-14
-1.91616e-14
-2.58759e-14
-3.29088e-14
-4.02484e-14
-4.78103e-14
-5.55885e-14
-6.36085e-14
-7.18959e-14
-8.04635e-14
-8.93117e-14
-9.84371e-14
-1.07832e-13
-1.17488e-13
-1.27394e-13
-1.37538e-13
-1.47902e-13
-1.58469e-13
-1.6922e-13
-1.80133e-13
-1.91188e-13
-2.02364e-13
-2.13638e-13
-2.2499e-13
-2.36397e-13
-2.47838e-13
-2.59293e-13
-2.70743e-13
-2.82169e-13
-2.93553e-13
-3.0488e-13
-3.16131e-13
-3.27299e-13
-3.38367e-13
-3.49324e-13
-3.60161e-13
-3.70869e-13
-3.81444e-13
-3.91874e-13
-4.0216e-13
-4.12296e-13
-4.22277e-13
-4.32105e-13
-4.41777e-13
-4.51294e-13
-4.60656e-13
-4.69861e-13
-4.78913e-13
-4.87818e-13
-4.96572e-13
-5.05182e-13
-5.13649e-13
-5.21979e-13
-5.30171e-13
-5.38235e-13
-5.46168e-13
-5.53978e-13
-5.61667e-13
-5.69236e-13
-5.76695e-13
-5.84043e-13
-5.91287e-13
-5.98429e-13
-6.05472e-13
-6.12419e-13
-6.19274e-13
-6.2604e-13
-6.32718e-13
-6.3931e-13
-6.45821e-13
-6.52256e-13
-6.58611e-13
-6.64893e-13
-6.71103e-13
-6.77245e-13
-6.83316e-13
-6.8932e-13
-6.95257e-13
-7.01128e-13
-7.06935e-13
-7.12678e-13
-7.18359e-13
-7.2398e-13
-7.29541e-13
-7.35042e-13
-7.40485e-13
-7.45869e-13
-7.51192e-13
-7.56456e-13
-7.6166e-13
-7.66803e-13
-7.71887e-13
-7.76911e-13
-7.81877e-13
-7.86783e-13
-7.91631e-13
-7.96419e-13
-8.01148e-13
-8.05816e-13
-8.10426e-13
-8.14975e-13
-8.19465e-13
-8.23897e-13
-8.2827e-13
-8.32586e-13
-8.36846e-13
-8.41051e-13
-8.45202e-13
-8.493e-13
-8.53347e-13
-8.57344e-13
-8.61291e-13
-8.65191e-13
-8.69043e-13
-8.72847e-13
-8.76601e-13
-8.80305e-13
-8.83954e-13
-8.87544e-13
-8.91072e-13
-8.94531e-13
-8.97917e-13
-9.01226e-13
-9.04457e-13
-9.07611e-13
-9.10697e-13
-9.1373e-13
-9.16729e-13
-9.19717e-13
-9.22716e-13
-9.25737e-13
-9.28774e-13
-9.31785e-13
-9.34667e-13
-9.37241e-13
-9.39288e-13
-9.40671e-13
-9.41433e-13
-9.41768e-13
-9.41913e-13
-9.41897e-13
-9.42388e-13
-9.42568e-13
-9.42669e-13
-9.42611e-13
-1.09928e-11
-5.5724e-10
-9.15304e-10
-1.10813e-09
-1.21161e-09
-1.26247e-09
-1.26284e-09
-1.20952e-09
-1.09764e-09
-9.22875e-10
-6.82032e-10
-3.73754e-10
2.34217e-12
4.42868e-10
9.47163e-10
1.5114e-09
2.13141e-09
2.80247e-09
3.51939e-09
4.27607e-09
5.06593e-09
5.88115e-09
6.71304e-09
7.55122e-09
8.3837e-09
9.19607e-09
9.97052e-09
1.06832e-08
1.12994e-08
1.17683e-08
1.20242e-08
1.20012e-08
1.16573e-08
1.09953e-08
1.0061e-08
8.9252e-09
7.66295e-09
6.33997e-09
5.0077e-09
3.70336e-09
2.4522e-09
1.2702e-09
1.66597e-10
-8.54226e-10
-1.79123e-09
-2.64564e-09
-3.42024e-09
-4.11875e-09
-4.7455e-09
-5.30514e-09
-5.80242e-09
-6.24214e-09
-6.62897e-09
-6.96742e-09
-7.26185e-09
-7.52117e-09
-7.74732e-09
-7.94238e-09
-8.10852e-09
-8.24794e-09
-8.36288e-09
-8.45553e-09
-8.52802e-09
-8.58238e-09
-8.62054e-09
-8.64423e-09
-8.65506e-09
-8.65448e-09
-8.64379e-09
-8.62415e-09
-8.5966e-09
-8.56209e-09
-8.52143e-09
-8.47534e-09
-8.42441e-09
-8.36902e-09
-8.30937e-09
-8.24539e-09
-8.17675e-09
-8.10305e-09
-8.02437e-09
-7.94251e-09
-7.86336e-09
-7.80009e-09
-7.77627e-09
-7.82413e-09
-7.9614e-09
-8.14775e-09
-8.30212e-09
-8.48887e-09
-9.83377e-09
-1.10204e-08
-1.19948e-08
-1.27579e-08
-1.33301e-08
-1.37234e-08
-1.39482e-08
-1.40168e-08
-1.39445e-08
-1.37508e-08
-1.34359e-08
-1.30422e-08
-1.27686e-08
-1.17725e-08
-1.32038e-08
-4.4703e-08
-1.34499e-07
-1.58706e-07
-1.5852e-07
-1.58458e-07
-1.58459e-07
-1.58454e-07
-1.58447e-07
-1.58438e-07
-1.58426e-07
-1.58413e-07
-1.58398e-07
-1.58382e-07
-1.58365e-07
-1.58348e-07
-1.58331e-07
-1.58317e-07
-1.58303e-07
-1.5829e-07
-1.5828e-07
-1.58272e-07
-1.58265e-07
-1.5826e-07
-1.58255e-07
-1.5825e-07
-1.58244e-07
-1.58236e-07
-1.58215e-07
-1.58201e-07
-1.582e-07
-1.582e-07
-1.582e-07
-1.582e-07
-1.582e-07
-1.582e-07
-1.582e-07
-1.582e-07
-1.582e-07
-1.582e-07
-1.582e-07
-1.582e-07
-1.582e-07
-1.582e-07
-1.582e-07
-1.582e-07
-1.582e-07
-1.582e-07
-1.582e-07
-1.582e-07
-1.582e-07
-1.582e-07
-1.582e-07
-1.582e-07
-1.582e-07
-1.582e-07
-1.582e-07
-1.582e-07
-1.582e-07
-1.582e-07
-1.582e-07
-1.582e-07
-1.582e-07
-1.582e-07
-1.582e-07
-1.582e-07
-1.582e-07
-1.582e-07
-1.582e-07
-1.582e-07
-1.582e-07
-1.582e-07
-1.582e-07
-1.582e-07
-1.582e-07
-1.582e-07
-1.582e-07
-1.582e-07
-1.582e-07
-1.582e-07
-1.582e-07
-1.582e-07
-1.582e-07
-1.582e-07
-1.582e-07
-1.582e-07
-1.582e-07
-1.582e-07
-1.582e-07
-1.582e-07
-1.582e-07
-1.582e-07
-1.582e-07
-1.582e-07
-1.582e-07
-1.582e-07
-1.582e-07
-1.582e-07
-1.582e-07
-1.582e-07
-1.582e-07
-1.582e-07
-1.582e-07
-1.582e-07
-1.582e-07
-1.58199e-07
-1.58182e-07
-1.57476e-07
-1.32607e-07
)
;

boundaryField
{
    inandouthalf11
    {
        type            cyclic;
        value           nonuniform List<scalar> 
100
(
1.68671e-38
5.31565e-16
1.10785e-15
1.63296e-15
2.179e-15
2.76111e-15
3.36762e-15
3.99414e-15
4.64268e-15
5.31581e-15
6.01523e-15
6.74168e-15
7.49526e-15
8.2757e-15
9.08254e-15
9.91516e-15
1.07728e-14
1.16542e-14
1.25583e-14
1.34835e-14
1.44282e-14
1.53907e-14
1.63694e-14
1.73623e-14
1.83676e-14
1.93835e-14
2.0408e-14
2.14394e-14
2.24758e-14
2.35156e-14
2.4557e-14
2.55984e-14
2.66383e-14
2.76755e-14
2.87085e-14
2.97362e-14
3.07575e-14
3.17715e-14
3.27773e-14
3.37742e-14
3.47615e-14
3.57388e-14
3.67055e-14
3.76612e-14
3.8606e-14
3.95394e-14
4.04615e-14
4.13719e-14
4.22707e-14
4.31583e-14
4.40346e-14
4.48996e-14
4.57537e-14
4.65969e-14
4.74297e-14
4.82521e-14
4.90646e-14
4.98673e-14
5.06605e-14
5.14444e-14
5.22194e-14
5.29859e-14
5.37442e-14
5.44945e-14
5.52373e-14
5.59726e-14
5.67008e-14
5.74222e-14
5.81369e-14
5.88451e-14
5.95472e-14
6.02434e-14
6.0934e-14
6.16191e-14
6.22989e-14
6.29739e-14
6.36439e-14
6.43091e-14
6.49696e-14
6.56255e-14
6.62769e-14
6.69239e-14
6.75667e-14
6.82054e-14
6.88401e-14
6.9471e-14
7.0098e-14
7.07213e-14
7.13406e-14
7.1956e-14
7.25675e-14
7.31751e-14
7.37789e-14
7.43788e-14
7.4975e-14
7.55675e-14
7.61564e-14
7.67416e-14
7.73232e-14
7.79012e-14
)
;
    }
    inandouthalf12
    {
        type            cyclic;
        value           nonuniform List<scalar> 
100
(
-1.68671e-38
-5.31565e-16
-1.10785e-15
-1.63296e-15
-2.179e-15
-2.76111e-15
-3.36762e-15
-3.99414e-15
-4.64268e-15
-5.31581e-15
-6.01523e-15
-6.74168e-15
-7.49526e-15
-8.2757e-15
-9.08254e-15
-9.91516e-15
-1.07728e-14
-1.16542e-14
-1.25583e-14
-1.34835e-14
-1.44282e-14
-1.53907e-14
-1.63694e-14
-1.73623e-14
-1.83676e-14
-1.93835e-14
-2.0408e-14
-2.14394e-14
-2.24758e-14
-2.35156e-14
-2.4557e-14
-2.55984e-14
-2.66383e-14
-2.76755e-14
-2.87085e-14
-2.97362e-14
-3.07575e-14
-3.17715e-14
-3.27773e-14
-3.37742e-14
-3.47615e-14
-3.57388e-14
-3.67055e-14
-3.76612e-14
-3.8606e-14
-3.95394e-14
-4.04615e-14
-4.13719e-14
-4.22707e-14
-4.31583e-14
-4.40346e-14
-4.48996e-14
-4.57537e-14
-4.65969e-14
-4.74297e-14
-4.82521e-14
-4.90646e-14
-4.98673e-14
-5.06605e-14
-5.14444e-14
-5.22194e-14
-5.29859e-14
-5.37442e-14
-5.44945e-14
-5.52373e-14
-5.59726e-14
-5.67008e-14
-5.74222e-14
-5.81369e-14
-5.88451e-14
-5.95472e-14
-6.02434e-14
-6.0934e-14
-6.16191e-14
-6.22989e-14
-6.29739e-14
-6.36439e-14
-6.43091e-14
-6.49696e-14
-6.56255e-14
-6.62769e-14
-6.69239e-14
-6.75667e-14
-6.82054e-14
-6.88401e-14
-6.9471e-14
-7.0098e-14
-7.07213e-14
-7.13406e-14
-7.1956e-14
-7.25675e-14
-7.31751e-14
-7.37789e-14
-7.43788e-14
-7.4975e-14
-7.55675e-14
-7.61564e-14
-7.67416e-14
-7.73232e-14
-7.79012e-14
)
;
    }
    inandouthalf21
    {
        type            cyclic;
        value           nonuniform List<scalar> 
100
(
7.84756e-14
7.90464e-14
7.96139e-14
8.0178e-14
8.0739e-14
8.12971e-14
8.18524e-14
8.24052e-14
8.29557e-14
8.35044e-14
8.40516e-14
8.45975e-14
8.51427e-14
8.56874e-14
8.62321e-14
8.6777e-14
8.73224e-14
8.78684e-14
8.8415e-14
8.89622e-14
8.95096e-14
9.0057e-14
9.06041e-14
9.11505e-14
9.16964e-14
9.22424e-14
9.27902e-14
9.33427e-14
9.39041e-14
9.44804e-14
9.50782e-14
9.5704e-14
9.63629e-14
9.70544e-14
9.77664e-14
9.84654e-14
9.90926e-14
9.9582e-14
9.98976e-14
1.0006e-13
1.00129e-13
1.00169e-13
1.00216e-13
1.00317e-13
1.00377e-13
1.00423e-13
1.00523e-13
2.59119e-08
1.2709e-07
2.2258e-07
2.99325e-07
3.63112e-07
4.17108e-07
4.6349e-07
5.03811e-07
5.39228e-07
5.70631e-07
5.98713e-07
6.24024e-07
6.47e-07
6.67986e-07
6.87257e-07
7.05035e-07
7.21495e-07
7.36777e-07
7.50998e-07
7.64248e-07
7.76605e-07
7.8813e-07
7.98876e-07
8.08887e-07
8.18201e-07
8.26853e-07
8.34873e-07
8.42293e-07
8.49141e-07
8.55449e-07
8.6125e-07
8.6658e-07
8.71477e-07
8.75981e-07
8.80129e-07
8.83956e-07
8.87491e-07
8.90763e-07
8.93793e-07
8.96601e-07
8.99204e-07
9.01619e-07
9.03858e-07
9.05936e-07
9.07862e-07
9.09649e-07
9.11305e-07
9.12839e-07
9.14261e-07
9.15579e-07
9.16798e-07
9.17927e-07
9.18972e-07
)
;
    }
    inandouthalf22
    {
        type            cyclic;
        value           nonuniform List<scalar> 
100
(
-7.84756e-14
-7.90464e-14
-7.96139e-14
-8.0178e-14
-8.0739e-14
-8.12971e-14
-8.18524e-14
-8.24052e-14
-8.29557e-14
-8.35044e-14
-8.40516e-14
-8.45975e-14
-8.51427e-14
-8.56874e-14
-8.62321e-14
-8.6777e-14
-8.73224e-14
-8.78684e-14
-8.8415e-14
-8.89622e-14
-8.95096e-14
-9.0057e-14
-9.06041e-14
-9.11505e-14
-9.16964e-14
-9.22424e-14
-9.27902e-14
-9.33427e-14
-9.39041e-14
-9.44804e-14
-9.50782e-14
-9.5704e-14
-9.63629e-14
-9.70544e-14
-9.77664e-14
-9.84654e-14
-9.90926e-14
-9.9582e-14
-9.98976e-14
-1.0006e-13
-1.00129e-13
-1.00169e-13
-1.00216e-13
-1.00317e-13
-1.00377e-13
-1.00423e-13
-1.00523e-13
-2.59119e-08
-1.2709e-07
-2.2258e-07
-2.99325e-07
-3.63112e-07
-4.17108e-07
-4.6349e-07
-5.03811e-07
-5.39228e-07
-5.70631e-07
-5.98713e-07
-6.24024e-07
-6.47e-07
-6.67986e-07
-6.87257e-07
-7.05035e-07
-7.21495e-07
-7.36777e-07
-7.50998e-07
-7.64248e-07
-7.76605e-07
-7.8813e-07
-7.98876e-07
-8.08887e-07
-8.18201e-07
-8.26853e-07
-8.34873e-07
-8.42293e-07
-8.49141e-07
-8.55449e-07
-8.6125e-07
-8.6658e-07
-8.71477e-07
-8.75981e-07
-8.80129e-07
-8.83956e-07
-8.87491e-07
-8.90763e-07
-8.93793e-07
-8.96601e-07
-8.99204e-07
-9.01619e-07
-9.03858e-07
-9.05936e-07
-9.07862e-07
-9.09649e-07
-9.11305e-07
-9.12839e-07
-9.14261e-07
-9.15579e-07
-9.16798e-07
-9.17927e-07
-9.18972e-07
)
;
    }
    inandouthalf31
    {
        type            cyclic;
        value           nonuniform List<scalar> 
110
(
9.19941e-07
9.39533e-07
9.59488e-07
9.7981e-07
1.00051e-06
1.02159e-06
1.04307e-06
1.06494e-06
1.08722e-06
1.10992e-06
1.13305e-06
1.15661e-06
1.18062e-06
1.20509e-06
1.23001e-06
1.25542e-06
1.28131e-06
1.3077e-06
1.33459e-06
1.36201e-06
1.38995e-06
1.41844e-06
1.44748e-06
1.47709e-06
1.50728e-06
1.53805e-06
1.56944e-06
1.60144e-06
1.63407e-06
1.66734e-06
1.70127e-06
1.73588e-06
1.77117e-06
1.80717e-06
1.84388e-06
1.88132e-06
1.91951e-06
1.95283e-06
1.98803e-06
2.02373e-06
2.05996e-06
2.09675e-06
2.13409e-06
2.17201e-06
2.21052e-06
2.24963e-06
2.28938e-06
2.32977e-06
2.37086e-06
2.41258e-06
2.45513e-06
2.49827e-06
2.54188e-06
2.58752e-06
2.63293e-06
2.67991e-06
2.7279e-06
2.77702e-06
2.82736e-06
2.87901e-06
2.93208e-06
2.98666e-06
3.04287e-06
3.10081e-06
3.1606e-06
3.22231e-06
3.28602e-06
3.35187e-06
3.41976e-06
3.48978e-06
3.56193e-06
3.63617e-06
3.71246e-06
3.79074e-06
3.87092e-06
3.95291e-06
4.03657e-06
4.12175e-06
4.20805e-06
4.29456e-06
4.38184e-06
4.47078e-06
4.56153e-06
4.65411e-06
4.74858e-06
4.84496e-06
4.9433e-06
5.04364e-06
5.14601e-06
5.25046e-06
5.35703e-06
5.46576e-06
5.5767e-06
5.6899e-06
5.80539e-06
5.92322e-06
6.04345e-06
6.16611e-06
6.29127e-06
6.41896e-06
6.54925e-06
6.68218e-06
6.81781e-06
6.9562e-06
7.09739e-06
7.24145e-06
7.38843e-06
7.5384e-06
7.6914e-06
7.84752e-06
)
;
    }
    inandouthalf32
    {
        type            cyclic;
        value           nonuniform List<scalar> 
110
(
-9.19941e-07
-9.39533e-07
-9.59488e-07
-9.7981e-07
-1.00051e-06
-1.02159e-06
-1.04307e-06
-1.06494e-06
-1.08722e-06
-1.10992e-06
-1.13305e-06
-1.15661e-06
-1.18062e-06
-1.20509e-06
-1.23001e-06
-1.25542e-06
-1.28131e-06
-1.3077e-06
-1.33459e-06
-1.36201e-06
-1.38995e-06
-1.41844e-06
-1.44748e-06
-1.47709e-06
-1.50728e-06
-1.53805e-06
-1.56944e-06
-1.60144e-06
-1.63407e-06
-1.66734e-06
-1.70127e-06
-1.73588e-06
-1.77117e-06
-1.80717e-06
-1.84388e-06
-1.88132e-06
-1.91951e-06
-1.95283e-06
-1.98803e-06
-2.02373e-06
-2.05996e-06
-2.09675e-06
-2.13409e-06
-2.17201e-06
-2.21052e-06
-2.24963e-06
-2.28938e-06
-2.32977e-06
-2.37086e-06
-2.41258e-06
-2.45513e-06
-2.49827e-06
-2.54188e-06
-2.58752e-06
-2.63293e-06
-2.67991e-06
-2.7279e-06
-2.77702e-06
-2.82736e-06
-2.87901e-06
-2.93208e-06
-2.98666e-06
-3.04287e-06
-3.10081e-06
-3.1606e-06
-3.22231e-06
-3.28602e-06
-3.35187e-06
-3.41976e-06
-3.48978e-06
-3.56193e-06
-3.63617e-06
-3.71246e-06
-3.79074e-06
-3.87092e-06
-3.95291e-06
-4.03657e-06
-4.12175e-06
-4.20805e-06
-4.29456e-06
-4.38184e-06
-4.47078e-06
-4.56153e-06
-4.65411e-06
-4.74858e-06
-4.84496e-06
-4.9433e-06
-5.04364e-06
-5.14601e-06
-5.25046e-06
-5.35703e-06
-5.46576e-06
-5.5767e-06
-5.6899e-06
-5.80539e-06
-5.92322e-06
-6.04345e-06
-6.16611e-06
-6.29127e-06
-6.41896e-06
-6.54925e-06
-6.68218e-06
-6.81781e-06
-6.9562e-06
-7.09739e-06
-7.24145e-06
-7.38843e-06
-7.5384e-06
-7.6914e-06
-7.84752e-06
)
;
    }
    inandouthalf41
    {
        type            cyclic;
        value           nonuniform List<scalar> 
50
(
7.02433e-06
7.02433e-06
7.02433e-06
7.02433e-06
7.02433e-06
7.02433e-06
7.02433e-06
7.02433e-06
7.02433e-06
7.02433e-06
7.02433e-06
7.02433e-06
7.02433e-06
7.02433e-06
7.02433e-06
7.02433e-06
7.02433e-06
7.02433e-06
7.02433e-06
7.02433e-06
7.02433e-06
7.02433e-06
7.02433e-06
7.02433e-06
7.02433e-06
7.02433e-06
7.02433e-06
7.02433e-06
7.02433e-06
7.02433e-06
7.02433e-06
7.02433e-06
7.02433e-06
7.02433e-06
7.02433e-06
7.02433e-06
7.02433e-06
7.02433e-06
7.02433e-06
7.02433e-06
7.02433e-06
7.02433e-06
7.02433e-06
7.02433e-06
7.02433e-06
7.02433e-06
7.02433e-06
7.02433e-06
7.02432e-06
7.02408e-06
)
;
    }
    inandouthalf42
    {
        type            cyclic;
        value           nonuniform List<scalar> 
50
(
-7.02433e-06
-7.02433e-06
-7.02433e-06
-7.02433e-06
-7.02433e-06
-7.02433e-06
-7.02433e-06
-7.02433e-06
-7.02433e-06
-7.02433e-06
-7.02433e-06
-7.02433e-06
-7.02433e-06
-7.02433e-06
-7.02433e-06
-7.02433e-06
-7.02433e-06
-7.02433e-06
-7.02433e-06
-7.02433e-06
-7.02433e-06
-7.02433e-06
-7.02433e-06
-7.02433e-06
-7.02433e-06
-7.02433e-06
-7.02433e-06
-7.02433e-06
-7.02433e-06
-7.02433e-06
-7.02433e-06
-7.02433e-06
-7.02433e-06
-7.02433e-06
-7.02433e-06
-7.02433e-06
-7.02433e-06
-7.02433e-06
-7.02433e-06
-7.02433e-06
-7.02433e-06
-7.02433e-06
-7.02433e-06
-7.02433e-06
-7.02433e-06
-7.02433e-06
-7.02433e-06
-7.02433e-06
-7.02432e-06
-7.02408e-06
)
;
    }
    top
    {
        type            symmetryPlane;
        value           uniform 0;
    }
    walls
    {
        type            fixedValue;
        value           uniform 0;
    }
    frontAndBackPlanes
    {
        type            empty;
        value           nonuniform 0();
    }
}


// ************************************************************************* //
