/*--------------------------------*- C++ -*----------------------------------*\
| =========                 |                                                 |
| \\      /  F ield         | OpenFOAM: The Open Source CFD Toolbox           |
|  \\    /   O peration     | Version:  2.4.x                                 |
|   \\  /    A nd           | Web:      www.OpenFOAM.org                      |
|    \\/     M anipulation  |                                                 |
\*---------------------------------------------------------------------------*/
FoamFile
{
    version     2.0;
    format      ascii;
    class       volTensorField;
    location    "12.25";
    object      Tauf;
}
// * * * * * * * * * * * * * * * * * * * * * * * * * * * * * * * * * * * * * //

dimensions      [0 2 -2 0 0 0 0];

internalField   nonuniform List<tensor> 
360
(
(0 -1.74717e-08 0 -1.74717e-08 8.64412e-12 0 0 0 0)
(0 5.45345e-11 0 5.45345e-11 1.04806e-11 0 0 0 0)
(0 -1.13586e-12 0 -1.13586e-12 1.10068e-11 0 0 0 0)
(0 -1.07654e-11 0 -1.07654e-11 1.0768e-11 0 0 0 0)
(3.23117e-24 -5.18279e-12 0 -5.18279e-12 1.10692e-11 0 0 0 0)
(1.61559e-24 -3.40365e-12 0 -3.40365e-12 1.15238e-11 0 0 0 0)
(1.61559e-24 -4.09492e-12 0 -4.09492e-12 1.19044e-11 0 0 0 0)
(0 -4.54967e-12 0 -4.54967e-12 1.22549e-11 0 0 0 0)
(1.61559e-24 -4.65269e-12 0 -4.65269e-12 1.26328e-11 0 0 0 0)
(0 -4.73283e-12 0 -4.73283e-12 1.30464e-11 0 0 0 0)
(1.61559e-24 -4.79973e-12 0 -4.79973e-12 1.34802e-11 0 0 0 0)
(0 -4.86926e-12 0 -4.86926e-12 1.39178e-11 0 0 0 0)
(1.61559e-24 -4.95397e-12 0 -4.95397e-12 1.43497e-11 0 0 0 0)
(0 -5.03897e-12 0 -5.03897e-12 1.47707e-11 0 0 0 0)
(0 -5.13217e-12 0 -5.13217e-12 1.51775e-11 0 0 0 0)
(0 -5.22454e-12 0 -5.22454e-12 1.55673e-11 0 0 0 0)
(0 -5.30695e-12 0 -5.30695e-12 1.5936e-11 0 0 0 0)
(1.61559e-24 -5.38404e-12 0 -5.38404e-12 1.6279e-11 0 0 0 0)
(0 -5.47316e-12 0 -5.47316e-12 1.65941e-11 0 0 0 0)
(0 -5.54638e-12 0 -5.54638e-12 1.68787e-11 0 0 0 0)
(0 -5.6176e-12 0 -5.6176e-12 1.71304e-11 0 0 0 0)
(1.61559e-24 -5.69915e-12 0 -5.69915e-12 1.73494e-11 0 0 0 0)
(0 -5.76476e-12 0 -5.76476e-12 1.75349e-11 0 0 0 0)
(0 -5.83218e-12 0 -5.83218e-12 1.76861e-11 0 0 0 0)
(0 -5.89691e-12 0 -5.89691e-12 1.78031e-11 0 0 0 0)
(1.61559e-24 -5.95029e-12 0 -5.95029e-12 1.78857e-11 0 0 0 0)
(0 -6.01191e-12 0 -6.01191e-12 1.79352e-11 0 0 0 0)
(0 -6.07176e-12 0 -6.07176e-12 1.79536e-11 0 0 0 0)
(0 -6.11513e-12 0 -6.11513e-12 1.79411e-11 0 0 0 0)
(0 -6.16071e-12 0 -6.16071e-12 1.78984e-11 0 0 0 0)
(0 -6.21843e-12 0 -6.21843e-12 1.78291e-11 0 0 0 0)
(0 -6.24746e-12 0 -6.24746e-12 1.77334e-11 0 0 0 0)
(0 -6.29551e-12 0 -6.29551e-12 1.76143e-11 0 0 0 0)
(0 -6.3422e-12 0 -6.3422e-12 1.74745e-11 0 0 0 0)
(0 -6.36777e-12 0 -6.36777e-12 1.73145e-11 0 0 0 0)
(-1.61559e-24 -6.40494e-12 0 -6.40494e-12 1.71364e-11 0 0 0 0)
(0 -6.43816e-12 0 -6.43816e-12 1.69427e-11 0 0 0 0)
(0 -6.49125e-12 0 -6.49125e-12 1.67378e-11 0 0 0 0)
(0 -6.49843e-12 0 -6.49843e-12 1.65203e-11 0 0 0 0)
(0 -6.53639e-12 0 -6.53639e-12 1.62926e-11 0 0 0 0)
(0 -6.59237e-12 0 -6.59237e-12 1.60595e-11 0 0 0 0)
(0 -6.58988e-12 0 -6.58988e-12 1.58183e-11 0 0 0 0)
(-3.23117e-24 -6.63744e-12 0 -6.63744e-12 1.55729e-11 0 0 0 0)
(0 -6.67907e-12 0 -6.67907e-12 1.53262e-11 0 0 0 0)
(0 -6.6986e-12 0 -6.6986e-12 1.50773e-11 0 0 0 0)
(0 -6.75188e-12 0 -6.75188e-12 1.48293e-11 0 0 0 0)
(0 -6.76297e-12 0 -6.76297e-12 1.45799e-11 0 0 0 0)
(0 -6.79051e-12 0 -6.79051e-12 1.43302e-11 0 0 0 0)
(0 -6.86937e-12 0 -6.86937e-12 1.40868e-11 0 0 0 0)
(0 -6.8852e-12 0 -6.8852e-12 1.38465e-11 0 0 0 0)
(-3.23117e-24 -6.9117e-12 0 -6.9117e-12 1.36089e-11 0 0 0 0)
(0 -6.96955e-12 0 -6.96955e-12 1.33759e-11 0 0 0 0)
(0 -7.01334e-12 0 -7.01334e-12 1.31481e-11 0 0 0 0)
(0 -7.0456e-12 0 -7.0456e-12 1.29247e-11 0 0 0 0)
(0 -7.10467e-12 0 -7.10467e-12 1.27078e-11 0 0 0 0)
(0 -7.15112e-12 0 -7.15112e-12 1.24965e-11 0 0 0 0)
(0 -7.1954e-12 0 -7.1954e-12 1.22902e-11 0 0 0 0)
(0 -7.26523e-12 0 -7.26523e-12 1.20909e-11 0 0 0 0)
(0 -7.28625e-12 0 -7.28625e-12 1.18941e-11 0 0 0 0)
(0 -7.36708e-12 0 -7.36708e-12 1.17048e-11 0 0 0 0)
(0 -7.42891e-12 0 -7.42891e-12 1.15221e-11 0 0 0 0)
(0 -7.47992e-12 0 -7.47992e-12 1.13453e-11 0 0 0 0)
(0 -7.55674e-12 0 -7.55674e-12 1.11755e-11 0 0 0 0)
(0 -7.61282e-12 0 -7.61282e-12 1.10102e-11 0 0 0 0)
(0 -7.67907e-12 0 -7.67907e-12 1.08497e-11 0 0 0 0)
(0 -7.7525e-12 0 -7.7525e-12 1.06938e-11 0 0 0 0)
(0 -7.83876e-12 0 -7.83876e-12 1.05434e-11 0 0 0 0)
(0 -7.90924e-12 0 -7.90924e-12 1.03974e-11 0 0 0 0)
(0 -7.96444e-12 0 -7.96444e-12 1.02534e-11 0 0 0 0)
(0 -8.06106e-12 0 -8.06106e-12 1.0114e-11 0 0 0 0)
(0 -8.17804e-12 0 -8.17804e-12 9.98183e-12 0 0 0 0)
(0 -8.22768e-12 0 -8.22768e-12 9.85152e-12 0 0 0 0)
(0 -8.31556e-12 0 -8.31556e-12 9.72483e-12 0 0 0 0)
(0 -8.43008e-12 0 -8.43008e-12 9.60242e-12 0 0 0 0)
(0 -8.52942e-12 0 -8.52942e-12 9.48371e-12 0 0 0 0)
(0 -8.62439e-12 0 -8.62439e-12 9.36809e-12 0 0 0 0)
(0 -8.71084e-12 0 -8.71084e-12 9.25281e-12 0 0 0 0)
(0 -8.82871e-12 0 -8.82871e-12 9.1395e-12 0 0 0 0)
(0 -8.94511e-12 0 -8.94511e-12 9.02803e-12 0 0 0 0)
(0 -9.04953e-12 0 -9.04953e-12 8.91784e-12 0 0 0 0)
(0 -9.16405e-12 0 -9.16405e-12 8.80914e-12 0 0 0 0)
(0 -9.29436e-12 0 -9.29436e-12 8.70274e-12 0 0 0 0)
(0 -9.41879e-12 0 -9.41879e-12 8.59808e-12 0 0 0 0)
(0 -9.54804e-12 0 -9.54804e-12 8.49532e-12 0 0 0 0)
(0 -9.6823e-12 0 -9.6823e-12 8.39378e-12 0 0 0 0)
(0 -9.8223e-12 0 -9.8223e-12 8.293e-12 0 0 0 0)
(0 -9.96474e-12 0 -9.96474e-12 8.19235e-12 0 0 0 0)
(0 -1.01076e-11 0 -1.01076e-11 8.09094e-12 0 0 0 0)
(0 -1.02612e-11 0 -1.02612e-11 7.98893e-12 0 0 0 0)
(0 -1.04203e-11 0 -1.04203e-11 7.8863e-12 0 0 0 0)
(0 -1.05821e-11 0 -1.05821e-11 7.78314e-12 0 0 0 0)
(0 -1.07528e-11 0 -1.07528e-11 7.67994e-12 0 0 0 0)
(0 -1.09314e-11 0 -1.09314e-11 7.57702e-12 0 0 0 0)
(0 -1.11141e-11 0 -1.11141e-11 7.47434e-12 0 0 0 0)
(0 -1.13034e-11 0 -1.13034e-11 7.37187e-12 0 0 0 0)
(0 -1.14997e-11 0 -1.14997e-11 7.26933e-12 0 0 0 0)
(0 -1.17025e-11 0 -1.17025e-11 7.16641e-12 0 0 0 0)
(0 -1.19126e-11 0 -1.19126e-11 7.06287e-12 0 0 0 0)
(0 -1.21314e-11 0 -1.21314e-11 6.95864e-12 0 0 0 0)
(0 -1.2359e-11 0 -1.2359e-11 6.85379e-12 0 0 0 0)
(0 -1.25958e-11 0 -1.25958e-11 6.7485e-12 0 0 0 0)
(0 -1.28428e-11 0 -1.28428e-11 6.64307e-12 0 0 0 0)
(0 -1.31001e-11 0 -1.31001e-11 6.53779e-12 0 0 0 0)
(0 -1.33679e-11 0 -1.33679e-11 6.43293e-12 0 0 0 0)
(0 -1.36467e-11 0 -1.36467e-11 6.32872e-12 0 0 0 0)
(0 -1.39373e-11 0 -1.39373e-11 6.22538e-12 0 0 0 0)
(0 -1.42403e-11 0 -1.42403e-11 6.12307e-12 0 0 0 0)
(0 -1.45565e-11 0 -1.45565e-11 6.02197e-12 0 0 0 0)
(0 -1.48868e-11 0 -1.48868e-11 5.92223e-12 0 0 0 0)
(0 -1.52321e-11 0 -1.52321e-11 5.82393e-12 0 0 0 0)
(0 -1.55933e-11 0 -1.55933e-11 5.72708e-12 0 0 0 0)
(0 -1.59712e-11 0 -1.59712e-11 5.63152e-12 0 0 0 0)
(0 -1.63671e-11 0 -1.63671e-11 5.53693e-12 0 0 0 0)
(0 -1.67821e-11 0 -1.67821e-11 5.44279e-12 0 0 0 0)
(0 -1.72176e-11 0 -1.72176e-11 5.3483e-12 0 0 0 0)
(0 -1.7675e-11 0 -1.7675e-11 5.25243e-12 0 0 0 0)
(0 -1.81559e-11 0 -1.81559e-11 5.1539e-12 0 0 0 0)
(0 -1.86623e-11 0 -1.86623e-11 5.05124e-12 0 0 0 0)
(0 -1.91961e-11 0 -1.91961e-11 4.94288e-12 0 0 0 0)
(0 -1.97594e-11 0 -1.97594e-11 4.82732e-12 0 0 0 0)
(0 -2.03544e-11 0 -2.03544e-11 4.70335e-12 0 0 0 0)
(0 -2.09829e-11 0 -2.09829e-11 4.57035e-12 0 0 0 0)
(0 -2.16464e-11 0 -2.16464e-11 4.42869e-12 0 0 0 0)
(0 -2.23469e-11 0 -2.23469e-11 4.28016e-12 0 0 0 0)
(0 -2.30887e-11 0 -2.30887e-11 4.12847e-12 0 0 0 0)
(0 -2.38798e-11 0 -2.38798e-11 3.97947e-12 0 0 0 0)
(0 -2.47331e-11 0 -2.47331e-11 3.841e-12 0 0 0 0)
(0 -2.56629e-11 0 -2.56629e-11 3.72196e-12 0 0 0 0)
(0 -2.66751e-11 0 -2.66751e-11 3.6302e-12 0 0 0 0)
(0 -2.77609e-11 0 -2.77609e-11 3.56916e-12 0 0 0 0)
(0 -2.89141e-11 0 -2.89141e-11 3.53353e-12 0 0 0 0)
(0 -3.01898e-11 0 -3.01898e-11 3.50531e-12 0 0 0 0)
(0 -3.17401e-11 0 -3.17401e-11 3.45117e-12 0 0 0 0)
(0 -3.36785e-11 0 -3.36785e-11 3.31592e-12 0 0 0 0)
(0 -3.58416e-11 0 -3.58416e-11 3.0116e-12 0 0 0 0)
(0 -3.79279e-11 0 -3.79279e-11 2.43538e-12 0 0 0 0)
(0 -4.01073e-11 0 -4.01073e-11 1.5456e-12 0 0 0 0)
(0 -4.33377e-11 0 -4.33377e-11 4.50764e-13 0 0 0 0)
(0 -4.84083e-11 0 -4.84083e-11 -5.78792e-13 0 0 0 0)
(0 -5.33996e-11 0 -5.33996e-11 -1.45385e-12 0 0 0 0)
(0 -6.0585e-11 0 -6.0585e-11 -7.28459e-12 0 0 0 0)
(0 -2.59406e-10 0 -2.59406e-10 -2.82289e-12 0 0 0 0)
(0 -1.92928e-10 0 -1.92928e-10 4.55539e-11 0 0 0 0)
(0 -8.16059e-12 0 -8.16059e-12 -4.54509e-10 0 0 0 0)
(0 -1.90065e-10 0 -1.90065e-10 1.65833e-09 0 0 0 0)
(0 -7.80729e-08 0 -7.80729e-08 -6.35305e-09 0 0 0 0)
(0 -3.31745e-05 0 -3.31745e-05 3.63163e-08 0 0 0 0)
(0 -0.0004935 0 -0.0004935 7.9528e-07 0 0 0 0)
(0 -0.00237213 0 -0.00237213 1.28963e-06 0 0 0 0)
(0 -0.00332415 0 -0.00332415 -1.4401e-06 0 0 0 0)
(0 -0.00362484 0 -0.00362484 -5.99671e-07 0 0 0 0)
(0 -0.00372983 0 -0.00372983 -1.34428e-06 0 0 0 0)
(0 -0.00373978 0 -0.00373978 -1.61234e-06 0 0 0 0)
(0 -0.00369872 0 -0.00369872 -1.75976e-06 0 0 0 0)
(0 -0.00363201 0 -0.00363201 -1.80121e-06 0 0 0 0)
(0 -0.00355344 0 -0.00355344 -1.74307e-06 0 0 0 0)
(0 -0.0034702 0 -0.0034702 -1.60447e-06 0 0 0 0)
(0 -0.00338573 0 -0.00338573 -1.41395e-06 0 0 0 0)
(0 -0.0033014 0 -0.0033014 -1.19376e-06 0 0 0 0)
(0 -0.00321753 0 -0.00321753 -9.63646e-07 0 0 0 0)
(0 -0.00313399 0 -0.00313399 -7.46982e-07 0 0 0 0)
(0 -0.00305048 0 -0.00305048 -5.51624e-07 0 0 0 0)
(0 -0.00296667 0 -0.00296667 -3.77377e-07 0 0 0 0)
(0 -0.00288227 0 -0.00288227 -2.27564e-07 0 0 0 0)
(0 -0.00279707 0 -0.00279707 -1.02467e-07 0 0 0 0)
(0 -0.00271091 0 -0.00271091 -5.18851e-10 0 0 0 0)
(0 -0.00262371 0 -0.00262371 8.05452e-08 0 0 0 0)
(0 -0.00253543 0 -0.00253543 1.43252e-07 0 0 0 0)
(0 -0.00244607 0 -0.00244607 1.90164e-07 0 0 0 0)
(0 -0.00235568 0 -0.00235568 2.23732e-07 0 0 0 0)
(0 -0.00226435 0 -0.00226435 2.46219e-07 0 0 0 0)
(0 -0.00217218 0 -0.00217218 2.59732e-07 0 0 0 0)
(0 -0.00207932 0 -0.00207932 2.6641e-07 0 0 0 0)
(0 -0.00198593 0 -0.00198593 2.68607e-07 0 0 0 0)
(0 -0.00189222 0 -0.00189222 2.68691e-07 0 0 0 0)
(0 -0.0017984 0 -0.0017984 2.68014e-07 0 0 0 0)
(0 -0.00170472 0 -0.00170472 2.6559e-07 0 0 0 0)
(0 -0.00161144 0 -0.00161144 2.58017e-07 0 0 0 0)
(0 -0.00151887 0 -0.00151887 2.41646e-07 0 0 0 0)
(0 -0.00142733 0 -0.00142733 2.15617e-07 0 0 0 0)
(0 -0.00133719 0 -0.00133719 1.82933e-07 0 0 0 0)
(0 -0.0012488 0 -0.0012488 1.48655e-07 0 0 0 0)
(0 -0.00116255 0 -0.00116255 1.17152e-07 0 0 0 0)
(0 -0.0010788 0 -0.0010788 9.06794e-08 0 0 0 0)
(0 -0.000997855 0 -0.000997855 6.96036e-08 0 0 0 0)
(0 -0.000920006 0 -0.000920006 5.32839e-08 0 0 0 0)
(0 -0.000845466 0 -0.000845466 4.07807e-08 0 0 0 0)
(0 -0.000774384 0 -0.000774384 3.12086e-08 0 0 0 0)
(0 -0.000706845 0 -0.000706845 2.38496e-08 0 0 0 0)
(0 -0.000642864 0 -0.000642864 1.81502e-08 0 0 0 0)
(0 -0.000582394 0 -0.000582394 1.369e-08 0 0 0 0)
(0 -0.000525337 0 -0.000525337 1.01644e-08 0 0 0 0)
(0 -0.000471551 0 -0.000471551 7.35327e-09 0 0 0 0)
(0 -0.000420865 0 -0.000420865 5.09154e-09 0 0 0 0)
(0 -0.000373087 0 -0.000373087 3.25771e-09 0 0 0 0)
(0 -0.000328016 0 -0.000328016 1.76233e-09 0 0 0 0)
(0 -0.000285451 0 -0.000285451 5.38935e-10 0 0 0 0)
(0 -0.000245197 0 -0.000245197 -4.62559e-10 0 0 0 0)
(0 -0.000207066 0 -0.000207066 -1.28038e-09 0 0 0 0)
(0 -0.000170886 0 -0.000170886 -1.94421e-09 0 0 0 0)
(0 -0.000136496 0 -0.000136496 -2.47772e-09 0 0 0 0)
(0 -0.000103449 0 -0.000103449 -2.9032e-09 0 0 0 0)
(3.71e-17 -7.13206e-05 0 -7.13206e-05 -3.23681e-09 0 0 0 0)
(0 -4.00655e-05 0 -4.00655e-05 -3.48714e-09 0 0 0 0)
(0 -9.64119e-06 0 -9.64119e-06 -3.66229e-09 0 0 0 0)
(-3.81567e-17 1.99896e-05 0 1.99896e-05 -3.76996e-09 0 0 0 0)
(0 4.8859e-05 0 4.8859e-05 -3.81759e-09 0 0 0 0)
(3.86581e-17 7.69933e-05 0 7.69933e-05 -3.81245e-09 0 0 0 0)
(0 0.000104414 0 0.000104414 -3.76178e-09 0 0 0 0)
(-3.89742e-17 0.000131136 0 0.000131136 -3.67266e-09 0 0 0 0)
(0 0.00015717 0 0.00015717 -3.55201e-09 0 0 0 0)
(0 0.000182523 0 0.000182523 -3.40643e-09 0 0 0 0)
(0 0.000207196 0 0.000207196 -3.24206e-09 0 0 0 0)
(-3.90366e-17 0.000231186 0 0.000231186 -3.06443e-09 0 0 0 0)
(0 0.000254485 0 0.000254485 -2.87839e-09 0 0 0 0)
(0 0.000277083 0 0.000277083 -2.68804e-09 0 0 0 0)
(0 0.000298967 0 0.000298967 -2.49676e-09 0 0 0 0)
(0 0.000320119 0 0.000320119 -2.30721e-09 0 0 0 0)
(0 0.000340519 0 0.000340519 -2.12145e-09 0 0 0 0)
(3.78367e-17 0.000360145 0 0.000360145 -1.94104e-09 0 0 0 0)
(0 0.000378972 0 0.000378972 -1.76718e-09 0 0 0 0)
(3.71488e-17 0.000396973 0 0.000396973 -1.60083e-09 0 0 0 0)
(0 0.000414119 0 0.000414119 -1.44282e-09 0 0 0 0)
(3.63421e-17 0.000430379 0 0.000430379 -1.29403e-09 0 0 0 0)
(0 0.000445721 0 0.000445721 -1.15557e-09 0 0 0 0)
(0 0.000460111 0 0.000460111 -1.02909e-09 0 0 0 0)
(0 0.000473514 0 0.000473514 -9.16765e-10 0 0 0 0)
(0 0.000485893 0 0.000485893 -8.20517e-10 0 0 0 0)
(-3.38881e-17 0.000497213 0 0.000497213 -7.39508e-10 0 0 0 0)
(-3.33328e-17 0.000507434 0 0.000507434 -6.65708e-10 0 0 0 0)
(0 0.000516518 0 0.000516518 -5.81351e-10 0 0 0 0)
(0 0.000524427 0 0.000524427 -4.68694e-10 0 0 0 0)
(0 0.00053112 0 0.00053112 -3.34908e-10 0 0 0 0)
(0 0.000536558 0 0.000536558 -2.20862e-10 0 0 0 0)
(0 0.000540702 0 0.000540702 -1.54334e-10 0 0 0 0)
(0 0.000543513 0 0.000543513 -1.03252e-10 0 0 0 0)
(0 0.000544953 0 0.000544953 -6.69847e-11 0 0 0 0)
(0 0.000544986 0 0.000544986 -8.25373e-11 0 0 0 0)
(0 0.000543574 0 0.000543574 -1.09709e-10 0 0 0 0)
(0 0.000540686 0 0.000540686 -1.11293e-10 0 0 0 0)
(0 0.000536291 0 0.000536291 -1.01444e-10 0 0 0 0)
(0 0.000530361 0 0.000530361 -8.84003e-11 0 0 0 0)
(0 0.000522872 0 0.000522872 -7.47187e-11 0 0 0 0)
(4.77623e-17 0.000513805 0 0.000513805 -6.13729e-11 0 0 0 0)
(-4.62196e-17 0.000503146 0 0.000503146 -4.90534e-11 0 0 0 0)
(0 0.00049089 0 0.00049089 -3.82288e-11 0 0 0 0)
(0 0.000477037 0 0.000477037 -2.90558e-11 0 0 0 0)
(4.14824e-17 0.000461599 0 0.000461599 -2.14552e-11 0 0 0 0)
(0 0.000444598 0 0.000444598 -1.56694e-11 0 0 0 0)
(0 0.00042607 0 0.00042607 -1.0891e-11 0 0 0 0)
(3.66204e-17 0.000406066 0 0.000406066 -5.27407e-12 0 0 0 0)
(0 0.000384654 0 0.000384654 -2.70166e-12 0 0 0 0)
(0 0.000361924 0 0.000361924 -3.76383e-12 0 0 0 0)
(0 0.000337989 0 0.000337989 -2.13164e-12 0 0 0 0)
(0 0.000312988 0 0.000312988 9.5922e-14 0 0 0 0)
(0 0.000287089 0 0.000287089 1.52651e-13 0 0 0 0)
(0 0.000260494 0 0.000260494 4.23387e-15 0 0 0 0)
(0 0.000233439 0 0.000233439 -2.11482e-14 0 0 0 0)
(0 0.000206197 0 0.000206197 -1.17426e-14 0 0 0 0)
(0 0.000179076 0 0.000179076 -6.87718e-15 0 0 0 0)
(0 0.000152418 0 0.000152418 -5.61988e-15 0 0 0 0)
(0 0.000126592 0 0.000126592 -4.70679e-15 0 0 0 0)
(0 0.000101984 0 0.000101984 -3.74564e-15 0 0 0 0)
(0 7.89791e-05 0 7.89791e-05 -2.97206e-15 0 0 0 0)
(0 5.79405e-05 0 5.79405e-05 -2.4216e-15 0 0 0 0)
(0 3.91863e-05 0 3.91863e-05 -1.99393e-15 0 0 0 0)
(-1.27903e-17 2.29651e-05 0 2.29651e-05 -1.53485e-15 0 0 0 0)
(0 9.43577e-06 0 9.43577e-06 -4.84228e-16 0 0 0 0)
(0 -1.34243e-06 0 -1.34243e-06 4.30421e-16 0 0 0 0)
(0 -9.41056e-06 0 -9.41056e-06 -6.49408e-15 0 0 0 0)
(0 -1.49013e-05 0 -1.49013e-05 -3.91964e-14 0 0 0 0)
(0 -1.80253e-05 0 -1.80253e-05 2.09092e-13 0 0 0 0)
(0 -1.90561e-05 0 -1.90561e-05 -4.78281e-13 0 0 0 0)
(0 -1.83168e-05 0 -1.83168e-05 7.49318e-13 0 0 0 0)
(0 -1.61684e-05 0 -1.61684e-05 -9.46094e-13 0 0 0 0)
(0 -1.29999e-05 0 -1.29999e-05 1.01791e-12 0 0 0 0)
(0 -9.22208e-06 0 -9.22208e-06 -9.39255e-13 0 0 0 0)
(0 -5.30542e-06 0 -5.30542e-06 7.11313e-13 0 0 0 0)
(0 -1.59712e-06 0 -1.59712e-06 -3.52131e-13 0 0 0 0)
(0 -1.22223e-07 0 -1.22223e-07 8.04603e-14 0 0 0 0)
(0 -6.07302e-09 0 -6.07302e-09 -4.11912e-14 0 0 0 0)
(0 -1.22811e-10 0 -1.22811e-10 3.9599e-14 0 0 0 0)
(0 -1.55468e-12 0 -1.55468e-12 -3.87902e-14 0 0 0 0)
(0 8.88879e-15 0 8.88879e-15 3.80208e-14 0 0 0 0)
(0 1.82091e-14 0 1.82091e-14 -3.72776e-14 0 0 0 0)
(0 1.18581e-14 0 1.18581e-14 3.65591e-14 0 0 0 0)
(-1.50452e-19 7.60031e-15 0 7.60031e-15 -3.58577e-14 0 0 0 0)
(0 4.79769e-15 0 4.79769e-15 3.51785e-14 0 0 0 0)
(0 2.99349e-15 0 2.99349e-15 -3.45152e-14 0 0 0 0)
(0 1.8139e-15 0 1.8139e-15 3.3851e-14 0 0 0 0)
(0 1.14613e-15 0 1.14613e-15 -3.32053e-14 0 0 0 0)
(0 7.57097e-16 0 7.57097e-16 3.25464e-14 0 0 0 0)
(0 4.54437e-16 0 4.54437e-16 -3.1911e-14 0 0 0 0)
(0 2.30345e-16 0 2.30345e-16 3.12526e-14 0 0 0 0)
(0 1.07837e-16 0 1.07837e-16 -3.06165e-14 0 0 0 0)
(0 4.14668e-17 0 4.14668e-17 2.99561e-14 0 0 0 0)
(-1.23064e-19 2.92892e-17 0 2.92892e-17 -2.93048e-14 0 0 0 0)
(0 5.77448e-17 0 5.77448e-17 2.86442e-14 0 0 0 0)
(0 1.25014e-17 0 1.25014e-17 -2.79656e-14 0 0 0 0)
(0 -2.94296e-17 0 -2.94296e-17 2.73174e-14 0 0 0 0)
(0 6.70569e-17 0 6.70569e-17 -2.66033e-14 0 0 0 0)
(0 5.94066e-17 0 5.94066e-17 2.59158e-14 0 0 0 0)
(0 -3.62439e-17 0 -3.62439e-17 -2.52021e-14 0 0 0 0)
(0 5.34581e-20 0 5.34581e-20 2.44869e-14 0 0 0 0)
(0 -9.76112e-17 0 -9.76112e-17 -2.37488e-14 0 0 0 0)
(0 -9.21003e-17 0 -9.21003e-17 2.30118e-14 0 0 0 0)
(0 1.05091e-16 0 1.05091e-16 -2.2246e-14 0 0 0 0)
(0 1.41082e-16 0 1.41082e-16 2.14718e-14 0 0 0 0)
(0 -1.32716e-17 0 -1.32716e-17 -2.06774e-14 0 0 0 0)
(0 -1.60711e-16 0 -1.60711e-16 1.98893e-14 0 0 0 0)
(0 -1.30152e-16 0 -1.30152e-16 -2.18618e-14 0 0 0 0)
(0 -6.75244e-17 0 -6.75244e-17 2.15752e-14 0 0 0 0)
(0 3.12873e-17 0 3.12873e-17 -2.13156e-14 0 0 0 0)
(0 5.1219e-17 0 5.1219e-17 2.10556e-14 0 0 0 0)
(0 2.85874e-17 0 2.85874e-17 -2.07909e-14 0 0 0 0)
(0 4.01811e-17 0 4.01811e-17 2.05249e-14 0 0 0 0)
(0 2.5411e-18 0 2.5411e-18 -2.02594e-14 0 0 0 0)
(0 -1.0085e-17 0 -1.0085e-17 1.99896e-14 0 0 0 0)
(0 -2.74756e-17 0 -2.74756e-17 -1.97225e-14 0 0 0 0)
(0 -1.06197e-16 0 -1.06197e-16 1.9446e-14 0 0 0 0)
(0 -3.69518e-17 0 -3.69518e-17 -1.91743e-14 0 0 0 0)
(0 9.23795e-17 0 9.23795e-17 1.88972e-14 0 0 0 0)
(0 5.38131e-17 0 5.38131e-17 -1.86202e-14 0 0 0 0)
(0 -1.43466e-17 0 -1.43466e-17 1.83365e-14 0 0 0 0)
(0 -1.95876e-18 0 -1.95876e-18 -1.80544e-14 0 0 0 0)
(0 3.78518e-18 0 3.78518e-18 1.77678e-14 0 0 0 0)
(0 4.15576e-18 0 4.15576e-18 -1.74769e-14 0 0 0 0)
(0 1.56966e-17 0 1.56966e-17 1.71973e-14 0 0 0 0)
(0 -1.68877e-17 0 -1.68877e-17 -1.68714e-14 0 0 0 0)
(0 2.14405e-18 0 2.14405e-18 1.66228e-14 0 0 0 0)
(0 2.77933e-18 0 2.77933e-18 -1.62619e-14 0 0 0 0)
(0 -3.12608e-17 0 -3.12608e-17 1.60162e-14 0 0 0 0)
(0 -1.23349e-17 0 -1.23349e-17 -1.56449e-14 0 0 0 0)
(0 3.05726e-17 0 3.05726e-17 1.5392e-14 0 0 0 0)
(0 1.37378e-17 0 1.37378e-17 -1.50155e-14 0 0 0 0)
(0 1.85553e-17 0 1.85553e-17 1.47433e-14 0 0 0 0)
(0 1.96141e-17 0 1.96141e-17 -1.43526e-14 0 0 0 0)
(0 -2.81109e-17 0 -2.81109e-17 1.40818e-14 0 0 0 0)
(0 -1.02438e-16 0 -1.02438e-16 -1.36813e-14 0 0 0 0)
(0 -2.00217e-16 0 -2.00217e-16 1.33758e-14 0 0 0 0)
(0 -4.31299e-16 0 -4.31299e-16 -1.29714e-14 0 0 0 0)
(0 -3.48078e-17 0 -3.48078e-17 1.26456e-14 0 0 0 0)
(0 4.16026e-16 0 4.16026e-16 -1.22429e-14 0 0 0 0)
(0 2.25628e-16 0 2.25628e-16 1.1873e-14 0 0 0 0)
(0 9.16648e-17 0 9.16648e-17 -1.14237e-14 0 0 0 0)
(0 2.89315e-17 0 2.89315e-17 1.10901e-14 0 0 0 0)
(0 4.14781e-17 0 4.14781e-17 -1.06045e-14 0 0 0 0)
(0 1.3182e-17 0 1.3182e-17 1.01897e-14 0 0 0 0)
(0 -2.89579e-17 0 -2.89579e-17 -9.70507e-15 0 0 0 0)
(0 -8.81444e-17 0 -8.81444e-17 9.23285e-15 0 0 0 0)
(0 2.07258e-17 0 2.07258e-17 -8.75231e-15 0 0 0 0)
(0 1.70545e-16 0 1.70545e-16 8.16727e-15 0 0 0 0)
(0 9.94205e-17 0 9.94205e-17 -7.62137e-15 0 0 0 0)
(0 -5.86041e-17 0 -5.86041e-17 6.96957e-15 0 0 0 0)
(0 -1.01194e-16 0 -1.01194e-16 -6.34192e-15 0 0 0 0)
(0 -7.55977e-17 0 -7.55977e-17 5.48596e-15 0 0 0 0)
(0 -3.75341e-17 0 -3.75341e-17 -4.7346e-15 0 0 0 0)
(0 7.67624e-18 0 7.67624e-18 3.44049e-15 0 0 0 0)
(0 -9.70912e-17 0 -9.70912e-17 -1.95818e-15 0 0 0 0)
(0 -9.91823e-17 0 -9.91823e-17 2.56048e-16 0 0 0 0)
)
;

boundaryField
{
    inandouthalf11
    {
        type            cyclic;
    }
    inandouthalf12
    {
        type            cyclic;
    }
    inandouthalf21
    {
        type            cyclic;
    }
    inandouthalf22
    {
        type            cyclic;
    }
    inandouthalf31
    {
        type            cyclic;
    }
    inandouthalf32
    {
        type            cyclic;
    }
    inandouthalf41
    {
        type            cyclic;
    }
    inandouthalf42
    {
        type            cyclic;
    }
    top
    {
        type            symmetryPlane;
    }
    walls
    {
        type            zeroGradient;
    }
    frontAndBackPlanes
    {
        type            empty;
    }
}


// ************************************************************************* //
