/*--------------------------------*- C++ -*----------------------------------*\
| =========                 |                                                 |
| \\      /  F ield         | OpenFOAM: The Open Source CFD Toolbox           |
|  \\    /   O peration     | Version:  2.4.x                                 |
|   \\  /    A nd           | Web:      www.OpenFOAM.org                      |
|    \\/     M anipulation  |                                                 |
\*---------------------------------------------------------------------------*/
FoamFile
{
    version     2.0;
    format      ascii;
    class       volVectorField;
    location    "12.25";
    object      U;
}
// * * * * * * * * * * * * * * * * * * * * * * * * * * * * * * * * * * * * * //

dimensions      [0 1 -1 0 0 0 0];

internalField   nonuniform List<vector> 
360
(
(-3.40861e-06 3.71017e-10 0)
(-3.38248e-06 -7.35314e-11 0)
(-3.37973e-06 -6.34532e-11 0)
(-3.3836e-06 8.7665e-12 0)
(-3.38571e-06 1.98328e-11 0)
(-3.38679e-06 1.01896e-11 0)
(-3.38802e-06 7.21447e-12 0)
(-3.38947e-06 8.70975e-12 0)
(-3.39096e-06 1.01318e-11 0)
(-3.39248e-06 1.08567e-11 0)
(-3.39404e-06 1.11351e-11 0)
(-3.39562e-06 1.10818e-11 0)
(-3.39723e-06 1.0886e-11 0)
(-3.39888e-06 1.06118e-11 0)
(-3.40057e-06 1.02846e-11 0)
(-3.4023e-06 9.87905e-12 0)
(-3.40405e-06 9.35234e-12 0)
(-3.40584e-06 8.73315e-12 0)
(-3.40766e-06 8.0457e-12 0)
(-3.40952e-06 7.3393e-12 0)
(-3.4114e-06 6.54546e-12 0)
(-3.41331e-06 5.79884e-12 0)
(-3.41525e-06 5.02054e-12 0)
(-3.41721e-06 4.21562e-12 0)
(-3.41919e-06 3.41755e-12 0)
(-3.42119e-06 2.6364e-12 0)
(-3.42321e-06 1.87595e-12 0)
(-3.42526e-06 1.18886e-12 0)
(-3.42731e-06 4.74275e-13 0)
(-3.42938e-06 -1.9273e-13 0)
(-3.43147e-06 -8.1991e-13 0)
(-3.43357e-06 -1.31574e-12 0)
(-3.43566e-06 -1.93265e-12 0)
(-3.43778e-06 -2.26698e-12 0)
(-3.4399e-06 -2.79094e-12 0)
(-3.44203e-06 -3.12598e-12 0)
(-3.44416e-06 -3.4462e-12 0)
(-3.4463e-06 -3.69833e-12 0)
(-3.44845e-06 -3.84239e-12 0)
(-3.45059e-06 -4.19468e-12 0)
(-3.45275e-06 -4.17184e-12 0)
(-3.4549e-06 -4.29163e-12 0)
(-3.45705e-06 -4.48615e-12 0)
(-3.45922e-06 -4.31075e-12 0)
(-3.46138e-06 -4.38746e-12 0)
(-3.46355e-06 -4.38373e-12 0)
(-3.46572e-06 -4.26869e-12 0)
(-3.46789e-06 -4.34294e-12 0)
(-3.47006e-06 -4.15158e-12 0)
(-3.47225e-06 -3.86551e-12 0)
(-3.47443e-06 -4.00641e-12 0)
(-3.47662e-06 -3.73764e-12 0)
(-3.47882e-06 -3.65228e-12 0)
(-3.48102e-06 -3.39077e-12 0)
(-3.48322e-06 -3.42843e-12 0)
(-3.48545e-06 -3.00981e-12 0)
(-3.48766e-06 -3.09705e-12 0)
(-3.4899e-06 -2.80725e-12 0)
(-3.49214e-06 -2.65624e-12 0)
(-3.49438e-06 -2.7031e-12 0)
(-3.49666e-06 -2.19664e-12 0)
(-3.49892e-06 -2.28906e-12 0)
(-3.50121e-06 -1.9674e-12 0)
(-3.50351e-06 -1.92881e-12 0)
(-3.50582e-06 -1.75313e-12 0)
(-3.50814e-06 -1.68464e-12 0)
(-3.51048e-06 -1.50728e-12 0)
(-3.51284e-06 -1.39489e-12 0)
(-3.51521e-06 -1.28224e-12 0)
(-3.51759e-06 -1.31951e-12 0)
(-3.52001e-06 -1.04287e-12 0)
(-3.52244e-06 -8.11408e-13 0)
(-3.52488e-06 -1.0577e-12 0)
(-3.52735e-06 -7.07076e-13 0)
(-3.52984e-06 -7.4108e-13 0)
(-3.53236e-06 -5.35025e-13 0)
(-3.53489e-06 -6.43034e-13 0)
(-3.53746e-06 -5.92052e-13 0)
(-3.54004e-06 -5.16608e-13 0)
(-3.54266e-06 -4.34033e-13 0)
(-3.5453e-06 -4.74661e-13 0)
(-3.54797e-06 -3.89725e-13 0)
(-3.55067e-06 -3.17203e-13 0)
(-3.5534e-06 -3.03578e-13 0)
(-3.55616e-06 -2.61005e-13 0)
(-3.55895e-06 -2.76605e-13 0)
(-3.56178e-06 -2.53728e-13 0)
(-3.56465e-06 -2.93574e-13 0)
(-3.56755e-06 -3.2975e-13 0)
(-3.57049e-06 -3.35878e-13 0)
(-3.57347e-06 -3.46424e-13 0)
(-3.57649e-06 -3.67435e-13 0)
(-3.57955e-06 -3.56058e-13 0)
(-3.58266e-06 -3.54629e-13 0)
(-3.58581e-06 -3.63894e-13 0)
(-3.58901e-06 -3.7912e-13 0)
(-3.59226e-06 -4.02121e-13 0)
(-3.59556e-06 -4.33533e-13 0)
(-3.59891e-06 -4.67587e-13 0)
(-3.60233e-06 -4.95919e-13 0)
(-3.60579e-06 -5.20974e-13 0)
(-3.60932e-06 -5.4054e-13 0)
(-3.61292e-06 -5.51229e-13 0)
(-3.61657e-06 -5.57336e-13 0)
(-3.6203e-06 -5.60497e-13 0)
(-3.6241e-06 -5.59954e-13 0)
(-3.62797e-06 -5.56647e-13 0)
(-3.63193e-06 -5.51229e-13 0)
(-3.63596e-06 -5.44219e-13 0)
(-3.64008e-06 -5.37501e-13 0)
(-3.64429e-06 -5.34068e-13 0)
(-3.6486e-06 -5.38062e-13 0)
(-3.65301e-06 -5.54628e-13 0)
(-3.65752e-06 -5.89779e-13 0)
(-3.66213e-06 -6.50117e-13 0)
(-3.66687e-06 -7.4261e-13 0)
(-3.67173e-06 -8.73686e-13 0)
(-3.67671e-06 -1.04783e-12 0)
(-3.68183e-06 -1.26657e-12 0)
(-3.68709e-06 -1.52662e-12 0)
(-3.6925e-06 -1.81784e-12 0)
(-3.69807e-06 -2.12082e-12 0)
(-3.7038e-06 -2.40516e-12 0)
(-3.70972e-06 -2.62952e-12 0)
(-3.71581e-06 -2.74457e-12 0)
(-3.72211e-06 -2.7006e-12 0)
(-3.72862e-06 -2.45933e-12 0)
(-3.73536e-06 -2.00682e-12 0)
(-3.74236e-06 -1.36754e-12 0)
(-3.74964e-06 -6.43576e-13 0)
(-3.75722e-06 -1.07659e-13 0)
(-3.76512e-06 -3.25302e-13 0)
(-3.77339e-06 -2.04367e-12 0)
(-3.78213e-06 -5.71741e-12 0)
(-3.79143e-06 -1.14448e-11 0)
(-3.8013e-06 -1.94133e-11 0)
(-3.81165e-06 -2.85957e-11 0)
(-3.82254e-06 -3.57488e-11 0)
(-3.83442e-06 -3.57631e-11 0)
(-3.8478e-06 -1.9786e-11 0)
(-3.86215e-06 -2.59208e-11 0)
(-3.87919e-06 -1.05543e-09 0)
(-3.99696e-06 1.29589e-09 0)
(-3.97948e-06 9.40156e-09 0)
(-4.00124e-06 -8.99338e-08 0)
(-4.06919e-06 3.43601e-07 0)
(-3.552e-05 -1.36925e-06 0)
(-0.0276151 2.26875e-06 0)
(-0.134163 1.64894e-05 0)
(-0.229023 -3.8843e-06 0)
(-0.304965 2.39206e-07 0)
(-0.367956 6.65068e-07 0)
(-0.421345 3.62863e-07 0)
(-0.467287 1.47521e-07 0)
(-0.507314 2.3257e-08 0)
(-0.542567 -5.85305e-08 0)
(-0.573922 -1.12796e-07 0)
(-0.602065 -1.48816e-07 0)
(-0.627535 -1.84556e-07 0)
(-0.650761 -1.83439e-07 0)
(-0.672085 -1.57273e-07 0)
(-0.691782 -1.43389e-07 0)
(-0.710075 -1.30264e-07 0)
(-0.727142 -1.15891e-07 0)
(-0.743131 -1.01341e-07 0)
(-0.758164 -8.75721e-08 0)
(-0.772339 -7.49031e-08 0)
(-0.785739 -6.34828e-08 0)
(-0.798432 -5.32757e-08 0)
(-0.810473 -4.42604e-08 0)
(-0.821909 -3.63247e-08 0)
(-0.832779 -2.93335e-08 0)
(-0.843113 -2.30175e-08 0)
(-0.852936 -1.70367e-08 0)
(-0.862269 -1.12173e-08 0)
(-0.871126 -5.87607e-09 0)
(-0.879519 -1.80407e-09 0)
(-0.887456 5.05246e-10 0)
(-0.894943 1.61915e-09 0)
(-0.901983 2.65444e-09 0)
(-0.908579 3.97517e-09 0)
(-0.914733 5.03389e-09 0)
(-0.920448 5.32799e-09 0)
(-0.925727 4.9103e-09 0)
(-0.930578 4.13562e-09 0)
(-0.935008 3.3119e-09 0)
(-0.939028 2.58894e-09 0)
(-0.942652 2.00212e-09 0)
(-0.945898 1.53863e-09 0)
(-0.948786 1.18919e-09 0)
(-0.951337 9.29424e-10 0)
(-0.953577 7.26534e-10 0)
(-0.955529 5.68856e-10 0)
(-0.957219 4.47275e-10 0)
(-0.95867 3.5339e-10 0)
(-0.959907 2.8042e-10 0)
(-0.960951 2.23341e-10 0)
(-0.961822 1.78453e-10 0)
(-0.962538 1.42997e-10 0)
(-0.963116 1.14931e-10 0)
(-0.96357 9.27707e-11 0)
(-0.963917 7.75151e-11 0)
(-0.964167 6.46156e-11 0)
(-0.964324 5.36566e-11 0)
(-0.964393 4.43261e-11 0)
(-0.964377 3.64865e-11 0)
(-0.964281 2.9864e-11 0)
(-0.964108 2.4363e-11 0)
(-0.963859 1.97454e-11 0)
(-0.963538 1.59474e-11 0)
(-0.963146 1.2776e-11 0)
(-0.962685 1.01925e-11 0)
(-0.962157 8.04681e-12 0)
(-0.961563 6.32731e-12 0)
(-0.960903 4.91551e-12 0)
(-0.960178 3.81227e-12 0)
(-0.95939 2.92062e-12 0)
(-0.958538 2.25829e-12 0)
(-0.957623 1.74499e-12 0)
(-0.956646 1.39537e-12 0)
(-0.955607 1.14325e-12 0)
(-0.954506 9.88974e-13 0)
(-0.953344 9.11999e-13 0)
(-0.95212 9.41113e-13 0)
(-0.950836 1.08162e-12 0)
(-0.94949 1.26757e-12 0)
(-0.948085 1.28679e-12 0)
(-0.94662 6.91695e-13 0)
(-0.945095 -1.16348e-12 0)
(-0.943512 -3.82053e-12 0)
(-0.941871 -2.95454e-12 0)
(-0.940173 7.316e-12 0)
(-0.938418 1.96871e-11 0)
(-0.936608 9.91103e-12 0)
(-0.934744 -1.8882e-11 0)
(-0.932827 1.32396e-12 0)
(-0.930859 9.84036e-11 0)
(-0.928842 -1.42172e-10 0)
(-0.926777 5.59956e-11 0)
(-0.924666 7.30724e-12 0)
(-0.922513 8.61792e-12 0)
(-0.92032 5.75388e-12 0)
(-0.91809 4.19044e-12 0)
(-0.915826 2.96432e-12 0)
(-0.913534 2.07247e-12 0)
(-0.911216 1.4394e-12 0)
(-0.908878 -2.61957e-13 0)
(-0.906526 4.7303e-12 0)
(-0.904165 -6.96986e-12 0)
(-0.901803 9.02145e-12 0)
(-0.899448 -7.30078e-12 0)
(-0.897107 1.5357e-11 0)
(-0.894791 1.12833e-11 0)
(-0.89251 -3.28792e-13 0)
(-0.890277 -6.29266e-13 0)
(-0.888102 3.59741e-13 0)
(-0.886002 4.98805e-13 0)
(-0.883991 3.90677e-13 0)
(-0.882085 3.21734e-13 0)
(-0.880302 2.8595e-13 0)
(-0.87866 2.55999e-13 0)
(-0.877177 2.28314e-13 0)
(-0.875868 2.04098e-13 0)
(-0.874751 1.83779e-13 0)
(-0.873838 1.65874e-13 0)
(-0.873136 1.50006e-13 0)
(-0.87265 1.3563e-13 0)
(-0.872378 1.24629e-13 0)
(-0.87231 1.26983e-13 0)
(-0.872433 1.33261e-13 0)
(-0.872728 -1.83152e-14 0)
(-0.873173 -8.43859e-13 0)
(-0.87374 5.91899e-12 0)
(-0.874403 -1.6562e-11 0)
(-0.875129 3.50634e-11 0)
(-0.875886 -6.14467e-11 0)
(-0.876636 9.66054e-11 0)
(-0.877332 -1.39063e-10 0)
(-0.877916 1.88157e-10 0)
(-0.878185 -2.41073e-10 0)
(-0.878214 2.96811e-10 0)
(-0.878215 -3.53516e-10 0)
(-0.878215 4.11817e-10 0)
(-0.878215 -4.70832e-10 0)
(-0.878215 5.31521e-10 0)
(-0.878215 -5.93002e-10 0)
(-0.878215 6.56235e-10 0)
(-0.878215 -7.2032e-10 0)
(-0.878215 7.86237e-10 0)
(-0.878215 -8.53069e-10 0)
(-0.878215 9.21747e-10 0)
(-0.878215 -9.91416e-10 0)
(-0.878215 1.06291e-09 0)
(-0.878215 -1.13548e-09 0)
(-0.878215 1.20982e-09 0)
(-0.878215 -1.28532e-09 0)
(-0.878215 1.36253e-09 0)
(-0.878215 -1.44094e-09 0)
(-0.878215 1.52103e-09 0)
(-0.878215 -1.60227e-09 0)
(-0.878215 1.68529e-09 0)
(-0.878215 -1.76922e-09 0)
(-0.878215 1.85502e-09 0)
(-0.878215 -1.94162e-09 0)
(-0.878215 2.03007e-09 0)
(-0.878215 -2.11919e-09 0)
(-0.878215 2.21014e-09 0)
(-0.878215 -2.30161e-09 0)
(-0.878215 2.39483e-09 0)
(-0.878215 -2.48842e-09 0)
(-0.878215 2.26941e-09 0)
(-0.878215 -2.31251e-09 0)
(-0.878215 2.35571e-09 0)
(-0.878215 -2.39777e-09 0)
(-0.878215 2.43993e-09 0)
(-0.878215 -2.48094e-09 0)
(-0.878215 2.52203e-09 0)
(-0.878215 -2.56197e-09 0)
(-0.878215 2.60199e-09 0)
(-0.878215 -2.64086e-09 0)
(-0.878215 2.67978e-09 0)
(-0.878215 -2.71756e-09 0)
(-0.878215 2.75537e-09 0)
(-0.878215 -2.79204e-09 0)
(-0.878215 2.82871e-09 0)
(-0.878215 -2.86426e-09 0)
(-0.878215 2.89978e-09 0)
(-0.878215 -2.93417e-09 0)
(-0.878215 2.96857e-09 0)
(-0.878215 -3.00165e-09 0)
(-0.878215 3.03506e-09 0)
(-0.878215 -3.0667e-09 0)
(-0.878215 3.09913e-09 0)
(-0.878215 -3.12928e-09 0)
(-0.878215 3.1607e-09 0)
(-0.878215 -3.18934e-09 0)
(-0.878215 3.21967e-09 0)
(-0.878215 -3.24675e-09 0)
(-0.878215 3.276e-09 0)
(-0.878215 -3.30148e-09 0)
(-0.878215 3.3295e-09 0)
(-0.878215 -3.35336e-09 0)
(-0.878215 3.38008e-09 0)
(-0.878215 -3.40234e-09 0)
(-0.878215 3.42757e-09 0)
(-0.878215 -3.44803e-09 0)
(-0.878215 3.47193e-09 0)
(-0.878215 -3.49045e-09 0)
(-0.878215 3.51269e-09 0)
(-0.878215 -3.52927e-09 0)
(-0.878215 3.54962e-09 0)
(-0.878215 -3.56428e-09 0)
(-0.878215 3.58229e-09 0)
(-0.878215 -3.59476e-09 0)
(-0.878215 3.61017e-09 0)
(-0.878215 -3.62013e-09 0)
(-0.878215 3.63212e-09 0)
(-0.878215 -3.63907e-09 0)
(-0.878215 3.64588e-09 0)
(-0.878215 -3.6469e-09 0)
)
;

boundaryField
{
    inandouthalf11
    {
        type            cyclic;
    }
    inandouthalf12
    {
        type            cyclic;
    }
    inandouthalf21
    {
        type            cyclic;
    }
    inandouthalf22
    {
        type            cyclic;
    }
    inandouthalf31
    {
        type            cyclic;
    }
    inandouthalf32
    {
        type            cyclic;
    }
    inandouthalf41
    {
        type            cyclic;
    }
    inandouthalf42
    {
        type            cyclic;
    }
    top
    {
        type            symmetryPlane;
    }
    walls
    {
        type            calculated;
        value           uniform (0 0 0);
    }
    frontAndBackPlanes
    {
        type            empty;
    }
}


// ************************************************************************* //
