/*--------------------------------*- C++ -*----------------------------------*\
| =========                 |                                                 |
| \\      /  F ield         | OpenFOAM: The Open Source CFD Toolbox           |
|  \\    /   O peration     | Version:  2.4.x                                 |
|   \\  /    A nd           | Web:      www.OpenFOAM.org                      |
|    \\/     M anipulation  |                                                 |
\*---------------------------------------------------------------------------*/
FoamFile
{
    version     2.0;
    format      ascii;
    class       volVectorField;
    location    "12.25";
    object      Ua;
}
// * * * * * * * * * * * * * * * * * * * * * * * * * * * * * * * * * * * * * //

dimensions      [0 1 -1 0 0 0 0];

internalField   nonuniform List<vector> 
360
(
(-1.68671e-32 -1.02759e-31 0)
(-5.31565e-10 -2.25793e-09 0)
(-1.10785e-09 -4.03292e-09 0)
(-1.63296e-09 -5.61596e-09 0)
(-2.179e-09 -7.31637e-09 0)
(-2.76111e-09 -9.12812e-09 0)
(-3.36762e-09 -1.09957e-08 0)
(-3.99414e-09 -1.29109e-08 0)
(-4.64268e-09 -1.48835e-08 0)
(-5.31581e-09 -1.69208e-08 0)
(-6.01523e-09 -1.90273e-08 0)
(-6.74168e-09 -2.12044e-08 0)
(-7.49526e-09 -2.34515e-08 0)
(-8.2757e-09 -2.57671e-08 0)
(-9.08254e-09 -2.8149e-08 0)
(-9.91516e-09 -3.0595e-08 0)
(-1.07728e-08 -3.31022e-08 0)
(-1.16542e-08 -3.56668e-08 0)
(-1.25583e-08 -3.82843e-08 0)
(-1.34835e-08 -4.09503e-08 0)
(-1.44282e-08 -4.36596e-08 0)
(-1.53907e-08 -4.64069e-08 0)
(-1.63694e-08 -4.91871e-08 0)
(-1.73623e-08 -5.19948e-08 0)
(-1.83676e-08 -5.48245e-08 0)
(-1.93835e-08 -5.76706e-08 0)
(-2.0408e-08 -6.05278e-08 0)
(-2.14394e-08 -6.33911e-08 0)
(-2.24758e-08 -6.62555e-08 0)
(-2.35156e-08 -6.91162e-08 0)
(-2.4557e-08 -7.19684e-08 0)
(-2.55984e-08 -7.48082e-08 0)
(-2.66383e-08 -7.76314e-08 0)
(-2.76755e-08 -8.04347e-08 0)
(-2.87085e-08 -8.32148e-08 0)
(-2.97362e-08 -8.59686e-08 0)
(-3.07575e-08 -8.86934e-08 0)
(-3.17715e-08 -9.13869e-08 0)
(-3.27773e-08 -9.40478e-08 0)
(-3.37742e-08 -9.66737e-08 0)
(-3.47615e-08 -9.92635e-08 0)
(-3.57388e-08 -1.01817e-07 0)
(-3.67055e-08 -1.04331e-07 0)
(-3.76612e-08 -1.06807e-07 0)
(-3.8606e-08 -1.09245e-07 0)
(-3.95394e-08 -1.11644e-07 0)
(-4.04615e-08 -1.14004e-07 0)
(-4.13719e-08 -1.16324e-07 0)
(-4.22707e-08 -1.18606e-07 0)
(-4.31583e-08 -1.20851e-07 0)
(-4.40346e-08 -1.23058e-07 0)
(-4.48996e-08 -1.25228e-07 0)
(-4.57537e-08 -1.27363e-07 0)
(-4.65969e-08 -1.29462e-07 0)
(-4.74297e-08 -1.31527e-07 0)
(-4.82521e-08 -1.33559e-07 0)
(-4.90646e-08 -1.35558e-07 0)
(-4.98673e-08 -1.37526e-07 0)
(-5.06605e-08 -1.39463e-07 0)
(-5.14444e-08 -1.4137e-07 0)
(-5.22194e-08 -1.43248e-07 0)
(-5.29859e-08 -1.45099e-07 0)
(-5.37442e-08 -1.46923e-07 0)
(-5.44945e-08 -1.48721e-07 0)
(-5.52373e-08 -1.50494e-07 0)
(-5.59726e-08 -1.52242e-07 0)
(-5.67008e-08 -1.53967e-07 0)
(-5.74222e-08 -1.5567e-07 0)
(-5.81369e-08 -1.5735e-07 0)
(-5.88451e-08 -1.59009e-07 0)
(-5.95472e-08 -1.60646e-07 0)
(-6.02434e-08 -1.62264e-07 0)
(-6.0934e-08 -1.63863e-07 0)
(-6.16191e-08 -1.65442e-07 0)
(-6.22989e-08 -1.67004e-07 0)
(-6.29739e-08 -1.68548e-07 0)
(-6.36439e-08 -1.70074e-07 0)
(-6.43091e-08 -1.71584e-07 0)
(-6.49696e-08 -1.73076e-07 0)
(-6.56255e-08 -1.74552e-07 0)
(-6.62769e-08 -1.76012e-07 0)
(-6.69239e-08 -1.77455e-07 0)
(-6.75667e-08 -1.78883e-07 0)
(-6.82054e-08 -1.80296e-07 0)
(-6.88401e-08 -1.81694e-07 0)
(-6.9471e-08 -1.83077e-07 0)
(-7.0098e-08 -1.84445e-07 0)
(-7.07213e-08 -1.85798e-07 0)
(-7.13406e-08 -1.87136e-07 0)
(-7.1956e-08 -1.8846e-07 0)
(-7.25675e-08 -1.89768e-07 0)
(-7.31751e-08 -1.91062e-07 0)
(-7.37789e-08 -1.9234e-07 0)
(-7.43788e-08 -1.93603e-07 0)
(-7.4975e-08 -1.94852e-07 0)
(-7.55675e-08 -1.96086e-07 0)
(-7.61564e-08 -1.97305e-07 0)
(-7.67416e-08 -1.9851e-07 0)
(-7.73232e-08 -1.997e-07 0)
(-7.79012e-08 -2.00874e-07 0)
(-7.84756e-08 -2.02034e-07 0)
(-7.90464e-08 -2.03179e-07 0)
(-7.96139e-08 -2.04309e-07 0)
(-8.0178e-08 -2.05424e-07 0)
(-8.0739e-08 -2.06525e-07 0)
(-8.12971e-08 -2.07611e-07 0)
(-8.18524e-08 -2.08683e-07 0)
(-8.24052e-08 -2.09741e-07 0)
(-8.29557e-08 -2.10785e-07 0)
(-8.35044e-08 -2.11816e-07 0)
(-8.40516e-08 -2.12834e-07 0)
(-8.45975e-08 -2.13839e-07 0)
(-8.51427e-08 -2.14832e-07 0)
(-8.56874e-08 -2.15813e-07 0)
(-8.62321e-08 -2.16782e-07 0)
(-8.6777e-08 -2.17739e-07 0)
(-8.73224e-08 -2.18684e-07 0)
(-8.78684e-08 -2.19617e-07 0)
(-8.8415e-08 -2.20536e-07 0)
(-8.89622e-08 -2.21441e-07 0)
(-8.95096e-08 -2.22331e-07 0)
(-9.0057e-08 -2.23205e-07 0)
(-9.06041e-08 -2.24061e-07 0)
(-9.11505e-08 -2.24898e-07 0)
(-9.16964e-08 -2.25715e-07 0)
(-9.22424e-08 -2.26513e-07 0)
(-9.27902e-08 -2.27292e-07 0)
(-9.33427e-08 -2.28056e-07 0)
(-9.39041e-08 -2.28809e-07 0)
(-9.44804e-08 -2.29556e-07 0)
(-9.50782e-08 -2.30303e-07 0)
(-9.5704e-08 -2.31055e-07 0)
(-9.63629e-08 -2.31813e-07 0)
(-9.70544e-08 -2.32573e-07 0)
(-9.77664e-08 -2.33319e-07 0)
(-9.84654e-08 -2.34015e-07 0)
(-9.90926e-08 -2.34605e-07 0)
(-9.9582e-08 -2.35038e-07 0)
(-9.98976e-08 -2.35298e-07 0)
(-1.0006e-07 -2.35419e-07 0)
(-1.00129e-07 -2.35464e-07 0)
(-1.00169e-07 -2.3548e-07 0)
(-1.00216e-07 -2.35517e-07 0)
(-1.00317e-07 -2.35631e-07 0)
(-1.00377e-07 -2.35662e-07 0)
(-1.00423e-07 -2.35667e-07 0)
(-1.00523e-07 -2.3566e-07 0)
(-0.0259119 -1.66887e-05 0)
(-0.12709 -0.000210008 0)
(-0.22258 -0.000261294 0)
(-0.299325 -0.000297741 0)
(-0.363112 -0.000312263 0)
(-0.417108 -0.000318289 0)
(-0.46349 -0.000312009 0)
(-0.503811 -0.000291689 0)
(-0.539228 -0.000256071 0)
(-0.570631 -0.000204239 0)
(-0.598713 -0.000135667 0)
(-0.624024 -5.03237e-05 0)
(-0.647 5.18623e-05 0)
(-0.667986 0.000170318 0)
(-0.687257 0.000304087 0)
(-0.705035 0.000452336 0)
(-0.721495 0.000613985 0)
(-0.736777 0.000787795 0)
(-0.750998 0.000972361 0)
(-0.764248 0.00116611 0)
(-0.776605 0.00136724 0)
(-0.78813 0.00157372 0)
(-0.798876 0.00178316 0)
(-0.808887 0.00199283 0)
(-0.818201 0.00219948 0)
(-0.826853 0.00239928 0)
(-0.834873 0.00258727 0)
(-0.842293 0.00275632 0)
(-0.849141 0.00289555 0)
(-0.855449 0.00298971 0)
(-0.86125 0.00302129 0)
(-0.86658 0.00297595 0)
(-0.871477 0.00284862 0)
(-0.875981 0.00264583 0)
(-0.880129 0.00238302 0)
(-0.883956 0.00207925 0)
(-0.887491 0.00175264 0)
(-0.890763 0.00141804 0)
(-0.893793 0.00108653 0)
(-0.896601 0.000765795 0)
(-0.899204 0.000460839 0)
(-0.901619 0.00017469 0)
(-0.903858 -9.1056e-05 0)
(-0.905936 -0.000335797 0)
(-0.907862 -0.000559615 0)
(-0.909649 -0.000763052 0)
(-0.911305 -0.00094695 0)
(-0.912839 -0.00111234 0)
(-0.914261 -0.00126035 0)
(-0.915579 -0.00139217 0)
(-0.916798 -0.001509 0)
(-0.917927 -0.00161204 0)
(-0.918972 -0.00170242 0)
(-0.919938 -0.00178127 0)
(-0.92084 -0.00185033 0)
(-0.921689 -0.00191085 0)
(-0.922487 -0.00196333 0)
(-0.923236 -0.00200831 0)
(-0.923937 -0.00204633 0)
(-0.924592 -0.00207796 0)
(-0.925202 -0.00210374 0)
(-0.925771 -0.00212423 0)
(-0.926299 -0.00213994 0)
(-0.926789 -0.00215138 0)
(-0.927242 -0.00215898 0)
(-0.92766 -0.00216319 0)
(-0.928045 -0.00216437 0)
(-0.928398 -0.00216287 0)
(-0.928722 -0.002159 0)
(-0.929019 -0.00215303 0)
(-0.929289 -0.0021452 0)
(-0.929534 -0.00213575 0)
(-0.929756 -0.00212486 0)
(-0.929957 -0.0021127 0)
(-0.930138 -0.00209939 0)
(-0.930299 -0.002085 0)
(-0.930443 -0.00206955 0)
(-0.930571 -0.00205298 0)
(-0.930682 -0.00203518 0)
(-0.93078 -0.00201604 0)
(-0.930863 -0.00199568 0)
(-0.930934 -0.00197494 0)
(-0.930993 -0.00195611 0)
(-0.931042 -0.00194398 0)
(-0.931082 -0.00194615 0)
(-0.931114 -0.00196967 0)
(-0.931138 -0.00201207 0)
(-0.931154 -0.00205795 0)
(-0.931162 -0.00209294 0)
(-0.931164 -0.00212131 0)
(-0.928483 -0.00285994 0)
(-0.926415 -0.00280971 0)
(-0.924289 -0.00311179 0)
(-0.922122 -0.00326163 0)
(-0.919915 -0.00338312 0)
(-0.917672 -0.00345993 0)
(-0.915397 -0.00349634 0)
(-0.913093 -0.00349558 0)
(-0.910765 -0.00346212 0)
(-0.908418 -0.00342029 0)
(-0.906056 -0.00321551 0)
(-0.903691 -0.00349079 0)
(-0.901302 -0.00255195 0)
(-0.898951 -0.00384018 0)
(-0.896547 -0.00199619 0)
(-0.894051 -0.023645 0)
(-0.891999 -0.0391934 0)
(-0.889597 -0.0396462 0)
(-0.887457 -0.0396134 0)
(-0.885377 -0.0396152 0)
(-0.88339 -0.0396141 0)
(-0.881512 -0.0396126 0)
(-0.879759 -0.0396105 0)
(-0.878151 -0.039608 0)
(-0.876703 -0.0396049 0)
(-0.875434 -0.0396014 0)
(-0.874357 -0.0395975 0)
(-0.873485 -0.0395934 0)
(-0.872823 -0.0395891 0)
(-0.872374 -0.0395849 0)
(-0.872155 -0.039581 0)
(-0.872116 -0.0395775 0)
(-0.87227 -0.0395741 0)
(-0.872592 -0.0395714 0)
(-0.873058 -0.0395691 0)
(-0.873643 -0.0395672 0)
(-0.874317 -0.0395657 0)
(-0.87505 -0.0395644 0)
(-0.875808 -0.0395632 0)
(-0.876553 -0.0395618 0)
(-0.877243 -0.03956 0)
(-0.877794 -0.0395563 0)
(-0.878018 -0.0395521 0)
(-0.878041 -0.0395502 0)
(-0.878041 -0.03955 0)
(-0.878041 -0.03955 0)
(-0.878041 -0.03955 0)
(-0.878041 -0.03955 0)
(-0.878041 -0.03955 0)
(-0.878041 -0.03955 0)
(-0.878041 -0.03955 0)
(-0.878041 -0.03955 0)
(-0.878041 -0.03955 0)
(-0.878041 -0.03955 0)
(-0.878041 -0.03955 0)
(-0.878041 -0.03955 0)
(-0.878041 -0.03955 0)
(-0.878041 -0.03955 0)
(-0.878041 -0.03955 0)
(-0.878041 -0.03955 0)
(-0.878041 -0.03955 0)
(-0.878041 -0.03955 0)
(-0.878041 -0.03955 0)
(-0.878041 -0.03955 0)
(-0.878041 -0.03955 0)
(-0.878041 -0.03955 0)
(-0.878041 -0.03955 0)
(-0.878041 -0.03955 0)
(-0.878041 -0.03955 0)
(-0.878041 -0.03955 0)
(-0.878041 -0.03955 0)
(-0.878041 -0.03955 0)
(-0.878041 -0.03955 0)
(-0.878041 -0.03955 0)
(-0.878041 -0.03955 0)
(-0.878041 -0.03955 0)
(-0.878041 -0.03955 0)
(-0.878041 -0.03955 0)
(-0.878041 -0.03955 0)
(-0.878041 -0.03955 0)
(-0.878041 -0.03955 0)
(-0.878041 -0.03955 0)
(-0.878041 -0.03955 0)
(-0.878041 -0.03955 0)
(-0.878041 -0.03955 0)
(-0.878041 -0.03955 0)
(-0.878041 -0.03955 0)
(-0.878041 -0.03955 0)
(-0.878041 -0.03955 0)
(-0.878041 -0.03955 0)
(-0.878041 -0.03955 0)
(-0.878041 -0.03955 0)
(-0.878041 -0.03955 0)
(-0.878041 -0.03955 0)
(-0.878041 -0.03955 0)
(-0.878041 -0.03955 0)
(-0.878041 -0.03955 0)
(-0.878041 -0.03955 0)
(-0.878041 -0.03955 0)
(-0.878041 -0.03955 0)
(-0.878041 -0.03955 0)
(-0.878041 -0.03955 0)
(-0.878041 -0.03955 0)
(-0.878041 -0.03955 0)
(-0.878041 -0.03955 0)
(-0.878041 -0.03955 0)
(-0.878041 -0.03955 0)
(-0.878041 -0.03955 0)
(-0.878041 -0.03955 0)
(-0.878041 -0.03955 0)
(-0.878041 -0.03955 0)
(-0.878041 -0.03955 0)
(-0.878041 -0.03955 0)
(-0.878041 -0.03955 0)
(-0.878041 -0.03955 0)
(-0.878041 -0.03955 0)
(-0.878041 -0.03955 0)
(-0.878041 -0.03955 0)
(-0.878041 -0.03955 0)
(-0.878041 -0.0395498 0)
(-0.878041 -0.0395413 0)
(-0.87804 -0.0391967 0)
(-0.87801 -0.0225001 0)
)
;

boundaryField
{
    inandouthalf11
    {
        type            cyclic;
    }
    inandouthalf12
    {
        type            cyclic;
    }
    inandouthalf21
    {
        type            cyclic;
    }
    inandouthalf22
    {
        type            cyclic;
    }
    inandouthalf31
    {
        type            cyclic;
    }
    inandouthalf32
    {
        type            cyclic;
    }
    inandouthalf41
    {
        type            cyclic;
    }
    inandouthalf42
    {
        type            cyclic;
    }
    top
    {
        type            symmetryPlane;
    }
    walls
    {
        type            fixedValue;
        value           uniform (0 0 0);
    }
    frontAndBackPlanes
    {
        type            empty;
    }
}


// ************************************************************************* //
