/*--------------------------------*- C++ -*----------------------------------*\
| =========                 |                                                 |
| \\      /  F ield         | OpenFOAM: The Open Source CFD Toolbox           |
|  \\    /   O peration     | Version:  2.4.x                                 |
|   \\  /    A nd           | Web:      www.OpenFOAM.org                      |
|    \\/     M anipulation  |                                                 |
\*---------------------------------------------------------------------------*/
FoamFile
{
    version     2.0;
    format      ascii;
    class       volVectorField;
    location    "12.25";
    object      Ub;
}
// * * * * * * * * * * * * * * * * * * * * * * * * * * * * * * * * * * * * * //

dimensions      [0 1 -1 0 0 0 0];

internalField   nonuniform List<vector> 
360
(
(-8.76014e-06 9.53516e-10 0)
(-8.7116e-06 3.36855e-09 0)
(-8.7056e-06 6.1938e-09 0)
(-8.71274e-06 8.87192e-09 0)
(-8.71637e-06 1.15778e-08 0)
(-8.71792e-06 1.44065e-08 0)
(-8.71977e-06 1.73397e-08 0)
(-8.72202e-06 2.03587e-08 0)
(-8.72432e-06 2.34672e-08 0)
(-8.72667e-06 2.66752e-08 0)
(-8.72906e-06 2.99904e-08 0)
(-8.73147e-06 3.34152e-08 0)
(-8.73392e-06 3.69492e-08 0)
(-8.73642e-06 4.05901e-08 0)
(-8.73896e-06 4.43346e-08 0)
(-8.74155e-06 4.81789e-08 0)
(-8.74419e-06 5.21182e-08 0)
(-8.74686e-06 5.61469e-08 0)
(-8.74957e-06 6.02578e-08 0)
(-8.75233e-06 6.44439e-08 0)
(-8.75512e-06 6.86971e-08 0)
(-8.75795e-06 7.30091e-08 0)
(-8.76082e-06 7.73718e-08 0)
(-8.76372e-06 8.17766e-08 0)
(-8.76665e-06 8.62148e-08 0)
(-8.76961e-06 9.06781e-08 0)
(-8.7726e-06 9.51577e-08 0)
(-8.77562e-06 9.96457e-08 0)
(-8.77867e-06 1.04134e-07 0)
(-8.78174e-06 1.08616e-07 0)
(-8.78483e-06 1.13084e-07 0)
(-8.78796e-06 1.17531e-07 0)
(-8.79108e-06 1.2195e-07 0)
(-8.79425e-06 1.26338e-07 0)
(-8.79742e-06 1.30688e-07 0)
(-8.80062e-06 1.34995e-07 0)
(-8.80383e-06 1.39256e-07 0)
(-8.80706e-06 1.43466e-07 0)
(-8.81032e-06 1.47625e-07 0)
(-8.81356e-06 1.51727e-07 0)
(-8.81685e-06 1.55771e-07 0)
(-8.82015e-06 1.59756e-07 0)
(-8.82344e-06 1.6368e-07 0)
(-8.82679e-06 1.67543e-07 0)
(-8.83012e-06 1.71343e-07 0)
(-8.83349e-06 1.75082e-07 0)
(-8.83688e-06 1.78758e-07 0)
(-8.84025e-06 1.82371e-07 0)
(-8.84367e-06 1.85923e-07 0)
(-8.84712e-06 1.89415e-07 0)
(-8.85055e-06 1.92846e-07 0)
(-8.85403e-06 1.96219e-07 0)
(-8.85752e-06 1.99534e-07 0)
(-8.86104e-06 2.02793e-07 0)
(-8.86457e-06 2.05997e-07 0)
(-8.86815e-06 2.09147e-07 0)
(-8.87172e-06 2.12245e-07 0)
(-8.87534e-06 2.15292e-07 0)
(-8.87898e-06 2.1829e-07 0)
(-8.88263e-06 2.21239e-07 0)
(-8.88635e-06 2.24143e-07 0)
(-8.89006e-06 2.27e-07 0)
(-8.89383e-06 2.29815e-07 0)
(-8.89762e-06 2.32588e-07 0)
(-8.90144e-06 2.35321e-07 0)
(-8.9053e-06 2.38013e-07 0)
(-8.9092e-06 2.40667e-07 0)
(-8.91313e-06 2.43285e-07 0)
(-8.9171e-06 2.45866e-07 0)
(-8.9211e-06 2.48411e-07 0)
(-8.92517e-06 2.50923e-07 0)
(-8.92928e-06 2.53402e-07 0)
(-8.93339e-06 2.55849e-07 0)
(-8.93759e-06 2.58265e-07 0)
(-8.94182e-06 2.6065e-07 0)
(-8.94612e-06 2.63007e-07 0)
(-8.95045e-06 2.65334e-07 0)
(-8.95483e-06 2.67633e-07 0)
(-8.95928e-06 2.69904e-07 0)
(-8.96378e-06 2.72147e-07 0)
(-8.96833e-06 2.74363e-07 0)
(-8.97294e-06 2.76552e-07 0)
(-8.97762e-06 2.78714e-07 0)
(-8.98236e-06 2.80851e-07 0)
(-8.98717e-06 2.82962e-07 0)
(-8.99204e-06 2.85048e-07 0)
(-8.99699e-06 2.87108e-07 0)
(-9.00201e-06 2.89144e-07 0)
(-9.0071e-06 2.91154e-07 0)
(-9.01227e-06 2.93138e-07 0)
(-9.01752e-06 2.95097e-07 0)
(-9.02285e-06 2.9703e-07 0)
(-9.02827e-06 2.98937e-07 0)
(-9.03378e-06 3.00818e-07 0)
(-9.03939e-06 3.02674e-07 0)
(-9.04509e-06 3.04504e-07 0)
(-9.05089e-06 3.06309e-07 0)
(-9.05679e-06 3.08087e-07 0)
(-9.0628e-06 3.0984e-07 0)
(-9.06892e-06 3.11567e-07 0)
(-9.07516e-06 3.13267e-07 0)
(-9.08152e-06 3.14941e-07 0)
(-9.088e-06 3.16589e-07 0)
(-9.09462e-06 3.1821e-07 0)
(-9.10137e-06 3.19805e-07 0)
(-9.10826e-06 3.21374e-07 0)
(-9.1153e-06 3.22918e-07 0)
(-9.1225e-06 3.24436e-07 0)
(-9.12986e-06 3.25929e-07 0)
(-9.13739e-06 3.27397e-07 0)
(-9.14509e-06 3.28841e-07 0)
(-9.15298e-06 3.3026e-07 0)
(-9.16106e-06 3.31656e-07 0)
(-9.16935e-06 3.33029e-07 0)
(-9.17785e-06 3.34378e-07 0)
(-9.18657e-06 3.35703e-07 0)
(-9.19552e-06 3.37004e-07 0)
(-9.20472e-06 3.3828e-07 0)
(-9.21418e-06 3.3953e-07 0)
(-9.22392e-06 3.40751e-07 0)
(-9.23394e-06 3.41943e-07 0)
(-9.24427e-06 3.43103e-07 0)
(-9.25493e-06 3.44229e-07 0)
(-9.26592e-06 3.45317e-07 0)
(-9.27727e-06 3.46369e-07 0)
(-9.28901e-06 3.47382e-07 0)
(-9.30115e-06 3.48358e-07 0)
(-9.31374e-06 3.49302e-07 0)
(-9.32682e-06 3.50219e-07 0)
(-9.34042e-06 3.51117e-07 0)
(-9.35458e-06 3.52004e-07 0)
(-9.36933e-06 3.52884e-07 0)
(-9.38477e-06 3.53757e-07 0)
(-9.40107e-06 3.5461e-07 0)
(-9.41844e-06 3.55415e-07 0)
(-9.43691e-06 3.56115e-07 0)
(-9.45637e-06 3.56632e-07 0)
(-9.47702e-06 3.56888e-07 0)
(-9.49971e-06 3.56858e-07 0)
(-9.52543e-06 3.56599e-07 0)
(-9.55311e-06 3.56131e-07 0)
(-9.58601e-06 3.52957e-07 0)
(-9.81252e-06 3.54719e-07 0)
(-9.77894e-06 3.75734e-07 0)
(-9.82068e-06 1.27467e-07 0)
(-9.96896e-06 1.20471e-06 0)
(-8.74791e-05 -3.0322e-06 0)
(-0.0289424 1.7041e-05 0)
(-0.136999 0.000107285 0)
(-0.230922 7.19449e-05 0)
(-0.306297 7.06128e-05 0)
(-0.368883 6.05332e-05 0)
(-0.422001 4.97621e-05 0)
(-0.467762 3.92181e-05 0)
(-0.507666 2.93835e-05 0)
(-0.542836 2.06026e-05 0)
(-0.574135 1.30811e-05 0)
(-0.602239 6.87002e-06 0)
(-0.627681 1.9001e-06 0)
(-0.650887 -1.92542e-06 0)
(-0.672196 -4.76601e-06 0)
(-0.691882 -6.81093e-06 0)
(-0.710164 -8.19895e-06 0)
(-0.727224 -9.05881e-06 0)
(-0.743207 -9.50337e-06 0)
(-0.758234 -9.62682e-06 0)
(-0.772405 -9.50616e-06 0)
(-0.7858 -9.2037e-06 0)
(-0.798489 -8.76929e-06 0)
(-0.810526 -8.24257e-06 0)
(-0.821959 -7.65473e-06 0)
(-0.832826 -7.03019e-06 0)
(-0.843156 -6.38744e-06 0)
(-0.852976 -5.73928e-06 0)
(-0.862306 -5.09241e-06 0)
(-0.87116 -4.4483e-06 0)
(-0.879549 -3.8075e-06 0)
(-0.887483 -3.17669e-06 0)
(-0.894967 -2.57319e-06 0)
(-0.902005 -2.02157e-06 0)
(-0.908598 -1.54365e-06 0)
(-0.91475 -1.14978e-06 0)
(-0.920462 -8.37476e-07 0)
(-0.925741 -5.95987e-07 0)
(-0.93059 -4.11849e-07 0)
(-0.935018 -2.72417e-07 0)
(-0.939037 -1.67227e-07 0)
(-0.942661 -8.81038e-08 0)
(-0.945906 -2.8818e-08 0)
(-0.948793 1.53504e-08 0)
(-0.951344 4.79489e-08 0)
(-0.953583 7.16473e-08 0)
(-0.955534 8.84883e-08 0)
(-0.957223 1.00034e-07 0)
(-0.958675 1.07483e-07 0)
(-0.959911 1.11767e-07 0)
(-0.960954 1.13608e-07 0)
(-0.961825 1.13574e-07 0)
(-0.962541 1.12111e-07 0)
(-0.963119 1.09573e-07 0)
(-0.963573 1.06241e-07 0)
(-0.96392 1.02296e-07 0)
(-0.964169 9.78563e-08 0)
(-0.964326 9.30545e-08 0)
(-0.964395 8.80049e-08 0)
(-0.964379 8.28061e-08 0)
(-0.964283 7.75432e-08 0)
(-0.964109 7.22882e-08 0)
(-0.96386 6.71021e-08 0)
(-0.963539 6.20347e-08 0)
(-0.963147 5.71263e-08 0)
(-0.962686 5.24084e-08 0)
(-0.962158 4.7904e-08 0)
(-0.961563 4.36295e-08 0)
(-0.960903 3.95948e-08 0)
(-0.960179 3.5805e-08 0)
(-0.95939 3.22613e-08 0)
(-0.958538 2.89612e-08 0)
(-0.957624 2.59005e-08 0)
(-0.956647 2.3073e-08 0)
(-0.955608 2.04712e-08 0)
(-0.954507 1.80868e-08 0)
(-0.953344 1.59107e-08 0)
(-0.95212 1.3933e-08 0)
(-0.950836 1.21425e-08 0)
(-0.949491 1.05265e-08 0)
(-0.948085 9.06877e-09 0)
(-0.94662 7.74958e-09 0)
(-0.945096 6.5462e-09 0)
(-0.943512 5.44006e-09 0)
(-0.941871 4.43262e-09 0)
(-0.940173 3.56245e-09 0)
(-0.938418 2.89186e-09 0)
(-0.936608 2.44096e-09 0)
(-0.934744 2.13729e-09 0)
(-0.932827 1.90213e-09 0)
(-0.930859 1.76936e-09 0)
(-0.928842 1.65742e-09 0)
(-0.926777 1.45938e-09 0)
(-0.924666 1.23585e-09 0)
(-0.922513 1.02071e-09 0)
(-0.92032 8.24995e-10 0)
(-0.91809 6.52331e-10 0)
(-0.915826 5.04199e-10 0)
(-0.913534 3.80474e-10 0)
(-0.911216 2.79688e-10 0)
(-0.908878 1.99407e-10 0)
(-0.906526 1.37039e-10 0)
(-0.904165 9.00374e-11 0)
(-0.901803 5.39305e-11 0)
(-0.899448 2.98662e-11 0)
(-0.897107 2.36121e-11 0)
(-0.894791 1.34736e-11 0)
(-0.89251 -3.28792e-13 0)
(-0.890277 -6.29266e-13 0)
(-0.888102 3.59741e-13 0)
(-0.886002 4.98805e-13 0)
(-0.883991 3.90677e-13 0)
(-0.882085 3.21734e-13 0)
(-0.880302 2.8595e-13 0)
(-0.87866 2.55999e-13 0)
(-0.877177 2.28314e-13 0)
(-0.875868 2.04098e-13 0)
(-0.874751 1.83779e-13 0)
(-0.873838 1.65874e-13 0)
(-0.873136 1.50006e-13 0)
(-0.87265 1.3563e-13 0)
(-0.872378 1.24629e-13 0)
(-0.87231 1.26983e-13 0)
(-0.872433 1.33261e-13 0)
(-0.872728 -1.83152e-14 0)
(-0.873173 -8.43859e-13 0)
(-0.87374 5.91899e-12 0)
(-0.874403 -1.6562e-11 0)
(-0.875129 3.50634e-11 0)
(-0.875886 -6.14467e-11 0)
(-0.876636 9.66054e-11 0)
(-0.877332 -1.39063e-10 0)
(-0.877916 1.88157e-10 0)
(-0.878185 -2.41073e-10 0)
(-0.878214 2.96811e-10 0)
(-0.878215 -3.53516e-10 0)
(-0.878215 4.11817e-10 0)
(-0.878215 -4.70832e-10 0)
(-0.878215 5.31521e-10 0)
(-0.878215 -5.93002e-10 0)
(-0.878215 6.56235e-10 0)
(-0.878215 -7.2032e-10 0)
(-0.878215 7.86237e-10 0)
(-0.878215 -8.53069e-10 0)
(-0.878215 9.21747e-10 0)
(-0.878215 -9.91416e-10 0)
(-0.878215 1.06291e-09 0)
(-0.878215 -1.13548e-09 0)
(-0.878215 1.20982e-09 0)
(-0.878215 -1.28532e-09 0)
(-0.878215 1.36253e-09 0)
(-0.878215 -1.44094e-09 0)
(-0.878215 1.52103e-09 0)
(-0.878215 -1.60227e-09 0)
(-0.878215 1.68529e-09 0)
(-0.878215 -1.76922e-09 0)
(-0.878215 1.85502e-09 0)
(-0.878215 -1.94162e-09 0)
(-0.878215 2.03007e-09 0)
(-0.878215 -2.11919e-09 0)
(-0.878215 2.21014e-09 0)
(-0.878215 -2.30161e-09 0)
(-0.878215 2.39483e-09 0)
(-0.878215 -2.48842e-09 0)
(-0.878215 2.26941e-09 0)
(-0.878215 -2.31251e-09 0)
(-0.878215 2.35571e-09 0)
(-0.878215 -2.39777e-09 0)
(-0.878215 2.43993e-09 0)
(-0.878215 -2.48094e-09 0)
(-0.878215 2.52203e-09 0)
(-0.878215 -2.56197e-09 0)
(-0.878215 2.60199e-09 0)
(-0.878215 -2.64086e-09 0)
(-0.878215 2.67978e-09 0)
(-0.878215 -2.71756e-09 0)
(-0.878215 2.75537e-09 0)
(-0.878215 -2.79204e-09 0)
(-0.878215 2.82871e-09 0)
(-0.878215 -2.86426e-09 0)
(-0.878215 2.89978e-09 0)
(-0.878215 -2.93417e-09 0)
(-0.878215 2.96857e-09 0)
(-0.878215 -3.00165e-09 0)
(-0.878215 3.03506e-09 0)
(-0.878215 -3.0667e-09 0)
(-0.878215 3.09913e-09 0)
(-0.878215 -3.12928e-09 0)
(-0.878215 3.1607e-09 0)
(-0.878215 -3.18934e-09 0)
(-0.878215 3.21967e-09 0)
(-0.878215 -3.24675e-09 0)
(-0.878215 3.276e-09 0)
(-0.878215 -3.30148e-09 0)
(-0.878215 3.3295e-09 0)
(-0.878215 -3.35336e-09 0)
(-0.878215 3.38008e-09 0)
(-0.878215 -3.40234e-09 0)
(-0.878215 3.42757e-09 0)
(-0.878215 -3.44803e-09 0)
(-0.878215 3.47193e-09 0)
(-0.878215 -3.49045e-09 0)
(-0.878215 3.51269e-09 0)
(-0.878215 -3.52927e-09 0)
(-0.878215 3.54962e-09 0)
(-0.878215 -3.56428e-09 0)
(-0.878215 3.58229e-09 0)
(-0.878215 -3.59476e-09 0)
(-0.878215 3.61017e-09 0)
(-0.878215 -3.62013e-09 0)
(-0.878215 3.63212e-09 0)
(-0.878215 -3.63907e-09 0)
(-0.878215 3.64588e-09 0)
(-0.878215 -3.6469e-09 0)
)
;

boundaryField
{
    inandouthalf11
    {
        type            cyclic;
    }
    inandouthalf12
    {
        type            cyclic;
    }
    inandouthalf21
    {
        type            cyclic;
    }
    inandouthalf22
    {
        type            cyclic;
    }
    inandouthalf31
    {
        type            cyclic;
    }
    inandouthalf32
    {
        type            cyclic;
    }
    inandouthalf41
    {
        type            cyclic;
    }
    inandouthalf42
    {
        type            cyclic;
    }
    top
    {
        type            symmetryPlane;
    }
    walls
    {
        type            fixedValue;
        value           uniform (0 0 0);
    }
    frontAndBackPlanes
    {
        type            empty;
    }
}


// ************************************************************************* //
