/*--------------------------------*- C++ -*----------------------------------*\
| =========                 |                                                 |
| \\      /  F ield         | OpenFOAM: The Open Source CFD Toolbox           |
|  \\    /   O peration     | Version:  2.4.x                                 |
|   \\  /    A nd           | Web:      www.OpenFOAM.org                      |
|    \\/     M anipulation  |                                                 |
\*---------------------------------------------------------------------------*/
FoamFile
{
    version     2.0;
    format      ascii;
    class       volVectorField;
    location    "12.25";
    object      Ub_0;
}
// * * * * * * * * * * * * * * * * * * * * * * * * * * * * * * * * * * * * * //

dimensions      [0 1 -1 0 0 0 0];

internalField   nonuniform List<vector> 
360
(
(-8.77121e-06 9.53722e-10 0)
(-8.72261e-06 3.36928e-09 0)
(-8.7166e-06 6.19516e-09 0)
(-8.72374e-06 8.87389e-09 0)
(-8.72738e-06 1.15804e-08 0)
(-8.72893e-06 1.44098e-08 0)
(-8.73079e-06 1.73437e-08 0)
(-8.73303e-06 2.03635e-08 0)
(-8.73534e-06 2.34726e-08 0)
(-8.73769e-06 2.66814e-08 0)
(-8.74008e-06 2.99975e-08 0)
(-8.74249e-06 3.34232e-08 0)
(-8.74495e-06 3.6958e-08 0)
(-8.74745e-06 4.05998e-08 0)
(-8.75e-06 4.43451e-08 0)
(-8.75259e-06 4.81903e-08 0)
(-8.75523e-06 5.21306e-08 0)
(-8.7579e-06 5.61601e-08 0)
(-8.76062e-06 6.02719e-08 0)
(-8.76338e-06 6.44589e-08 0)
(-8.76617e-06 6.8713e-08 0)
(-8.769e-06 7.30258e-08 0)
(-8.77187e-06 7.73893e-08 0)
(-8.77477e-06 8.17949e-08 0)
(-8.77771e-06 8.6234e-08 0)
(-8.78067e-06 9.0698e-08 0)
(-8.78366e-06 9.51782e-08 0)
(-8.78669e-06 9.96669e-08 0)
(-8.78974e-06 1.04156e-07 0)
(-8.79281e-06 1.08639e-07 0)
(-8.79591e-06 1.13107e-07 0)
(-8.79904e-06 1.17554e-07 0)
(-8.80216e-06 1.21974e-07 0)
(-8.80534e-06 1.26362e-07 0)
(-8.80851e-06 1.30713e-07 0)
(-8.81171e-06 1.3502e-07 0)
(-8.81492e-06 1.39281e-07 0)
(-8.81816e-06 1.43492e-07 0)
(-8.82142e-06 1.47651e-07 0)
(-8.82466e-06 1.51753e-07 0)
(-8.82796e-06 1.55798e-07 0)
(-8.83126e-06 1.59783e-07 0)
(-8.83456e-06 1.63707e-07 0)
(-8.8379e-06 1.6757e-07 0)
(-8.84124e-06 1.71371e-07 0)
(-8.84461e-06 1.75109e-07 0)
(-8.848e-06 1.78786e-07 0)
(-8.85138e-06 1.82399e-07 0)
(-8.8548e-06 1.85951e-07 0)
(-8.85825e-06 1.89443e-07 0)
(-8.86169e-06 1.92874e-07 0)
(-8.86517e-06 1.96247e-07 0)
(-8.86866e-06 1.99563e-07 0)
(-8.87219e-06 2.02822e-07 0)
(-8.87572e-06 2.06025e-07 0)
(-8.8793e-06 2.09176e-07 0)
(-8.88288e-06 2.12273e-07 0)
(-8.88651e-06 2.15321e-07 0)
(-8.89015e-06 2.18319e-07 0)
(-8.8938e-06 2.21268e-07 0)
(-8.89752e-06 2.24172e-07 0)
(-8.90124e-06 2.27029e-07 0)
(-8.90501e-06 2.29845e-07 0)
(-8.9088e-06 2.32617e-07 0)
(-8.91263e-06 2.3535e-07 0)
(-8.91649e-06 2.38043e-07 0)
(-8.92039e-06 2.40697e-07 0)
(-8.92433e-06 2.43315e-07 0)
(-8.92831e-06 2.45896e-07 0)
(-8.93231e-06 2.48442e-07 0)
(-8.93638e-06 2.50953e-07 0)
(-8.94049e-06 2.53433e-07 0)
(-8.94461e-06 2.5588e-07 0)
(-8.94882e-06 2.58296e-07 0)
(-8.95305e-06 2.60681e-07 0)
(-8.95736e-06 2.63038e-07 0)
(-8.96169e-06 2.65366e-07 0)
(-8.96608e-06 2.67665e-07 0)
(-8.97053e-06 2.69936e-07 0)
(-8.97503e-06 2.72179e-07 0)
(-8.97959e-06 2.74395e-07 0)
(-8.98421e-06 2.76584e-07 0)
(-8.98889e-06 2.78747e-07 0)
(-8.99364e-06 2.80884e-07 0)
(-8.99845e-06 2.82995e-07 0)
(-9.00333e-06 2.85081e-07 0)
(-9.00828e-06 2.87142e-07 0)
(-9.01331e-06 2.89178e-07 0)
(-9.0184e-06 2.91189e-07 0)
(-9.02358e-06 2.93173e-07 0)
(-9.02883e-06 2.95132e-07 0)
(-9.03417e-06 2.97065e-07 0)
(-9.0396e-06 2.98973e-07 0)
(-9.04512e-06 3.00855e-07 0)
(-9.05073e-06 3.02711e-07 0)
(-9.05643e-06 3.04541e-07 0)
(-9.06224e-06 3.06346e-07 0)
(-9.06815e-06 3.08125e-07 0)
(-9.07417e-06 3.09878e-07 0)
(-9.08029e-06 3.11605e-07 0)
(-9.08654e-06 3.13305e-07 0)
(-9.0929e-06 3.1498e-07 0)
(-9.0994e-06 3.16628e-07 0)
(-9.10602e-06 3.18249e-07 0)
(-9.11278e-06 3.19845e-07 0)
(-9.11968e-06 3.21414e-07 0)
(-9.12673e-06 3.22958e-07 0)
(-9.13394e-06 3.24476e-07 0)
(-9.14131e-06 3.25969e-07 0)
(-9.14884e-06 3.27438e-07 0)
(-9.15656e-06 3.28882e-07 0)
(-9.16446e-06 3.30302e-07 0)
(-9.17255e-06 3.31698e-07 0)
(-9.18084e-06 3.33071e-07 0)
(-9.18935e-06 3.3442e-07 0)
(-9.19808e-06 3.35746e-07 0)
(-9.20705e-06 3.37047e-07 0)
(-9.21626e-06 3.38323e-07 0)
(-9.22573e-06 3.39573e-07 0)
(-9.23548e-06 3.40795e-07 0)
(-9.24551e-06 3.41987e-07 0)
(-9.25586e-06 3.43147e-07 0)
(-9.26652e-06 3.44273e-07 0)
(-9.27753e-06 3.45362e-07 0)
(-9.2889e-06 3.46414e-07 0)
(-9.30065e-06 3.47427e-07 0)
(-9.31281e-06 3.48404e-07 0)
(-9.32541e-06 3.49348e-07 0)
(-9.3385e-06 3.50265e-07 0)
(-9.35212e-06 3.51163e-07 0)
(-9.36629e-06 3.5205e-07 0)
(-9.38107e-06 3.52931e-07 0)
(-9.39652e-06 3.53803e-07 0)
(-9.41285e-06 3.54657e-07 0)
(-9.43024e-06 3.55462e-07 0)
(-9.44873e-06 3.56163e-07 0)
(-9.46822e-06 3.5668e-07 0)
(-9.48889e-06 3.56936e-07 0)
(-9.51161e-06 3.56905e-07 0)
(-9.53736e-06 3.56646e-07 0)
(-9.56507e-06 3.56178e-07 0)
(-9.59802e-06 3.53004e-07 0)
(-9.82481e-06 3.54767e-07 0)
(-9.79119e-06 3.75754e-07 0)
(-9.83298e-06 1.27626e-07 0)
(-9.98139e-06 1.20452e-06 0)
(-8.75278e-05 -3.03104e-06 0)
(-0.0289517 1.70386e-05 0)
(-0.137012 0.000107253 0)
(-0.230935 7.19259e-05 0)
(-0.306311 7.0593e-05 0)
(-0.368898 6.05165e-05 0)
(-0.422017 4.97484e-05 0)
(-0.467779 3.92069e-05 0)
(-0.507684 2.93743e-05 0)
(-0.542855 2.05946e-05 0)
(-0.574155 1.30739e-05 0)
(-0.60226 6.8636e-06 0)
(-0.627703 1.895e-06 0)
(-0.65091 -1.93025e-06 0)
(-0.67222 -4.77151e-06 0)
(-0.691907 -6.81624e-06 0)
(-0.71019 -8.20392e-06 0)
(-0.727251 -9.06346e-06 0)
(-0.743235 -9.50767e-06 0)
(-0.758263 -9.63074e-06 0)
(-0.772434 -9.50968e-06 0)
(-0.78583 -9.2068e-06 0)
(-0.798519 -8.77198e-06 0)
(-0.810557 -8.24484e-06 0)
(-0.82199 -7.65659e-06 0)
(-0.832857 -7.03165e-06 0)
(-0.843187 -6.38852e-06 0)
(-0.853008 -5.74e-06 0)
(-0.862337 -5.09277e-06 0)
(-0.871191 -4.4483e-06 0)
(-0.87958 -3.80716e-06 0)
(-0.887514 -3.17605e-06 0)
(-0.894997 -2.57234e-06 0)
(-0.902034 -2.02063e-06 0)
(-0.908627 -1.54272e-06 0)
(-0.914777 -1.14893e-06 0)
(-0.920489 -8.36732e-07 0)
(-0.925766 -5.9535e-07 0)
(-0.930614 -4.11306e-07 0)
(-0.935041 -2.71953e-07 0)
(-0.939059 -1.66828e-07 0)
(-0.942681 -8.7758e-08 0)
(-0.945924 -2.85158e-08 0)
(-0.94881 1.56173e-08 0)
(-0.95136 4.81868e-08 0)
(-0.953597 7.18607e-08 0)
(-0.955547 8.86808e-08 0)
(-0.957235 1.00208e-07 0)
(-0.958685 1.07643e-07 0)
(-0.95992 1.11913e-07 0)
(-0.960963 1.13742e-07 0)
(-0.961833 1.13697e-07 0)
(-0.962548 1.12225e-07 0)
(-0.963125 1.09679e-07 0)
(-0.963578 1.06339e-07 0)
(-0.963924 1.02387e-07 0)
(-0.964173 9.79409e-08 0)
(-0.964329 9.31331e-08 0)
(-0.964397 8.80778e-08 0)
(-0.964381 8.28737e-08 0)
(-0.964285 7.76058e-08 0)
(-0.96411 7.23462e-08 0)
(-0.963861 6.71557e-08 0)
(-0.96354 6.20842e-08 0)
(-0.963147 5.7172e-08 0)
(-0.962686 5.24504e-08 0)
(-0.962157 4.79426e-08 0)
(-0.961562 4.36649e-08 0)
(-0.960902 3.96273e-08 0)
(-0.960177 3.58347e-08 0)
(-0.959388 3.22884e-08 0)
(-0.958536 2.89859e-08 0)
(-0.957621 2.5923e-08 0)
(-0.956644 2.30933e-08 0)
(-0.955604 2.04895e-08 0)
(-0.954503 1.81033e-08 0)
(-0.95334 1.59255e-08 0)
(-0.952116 1.39462e-08 0)
(-0.950831 1.21543e-08 0)
(-0.949486 1.05369e-08 0)
(-0.94808 9.07797e-09 0)
(-0.946614 7.75763e-09 0)
(-0.94509 6.55318e-09 0)
(-0.943506 5.446e-09 0)
(-0.941865 4.43756e-09 0)
(-0.940166 3.56644e-09 0)
(-0.938411 2.89506e-09 0)
(-0.936601 2.44358e-09 0)
(-0.934737 2.13953e-09 0)
(-0.93282 1.90407e-09 0)
(-0.930851 1.77105e-09 0)
(-0.928833 1.65873e-09 0)
(-0.926768 1.46026e-09 0)
(-0.924657 1.23643e-09 0)
(-0.922504 1.02112e-09 0)
(-0.920311 8.25292e-10 0)
(-0.91808 6.52538e-10 0)
(-0.915817 5.04338e-10 0)
(-0.913523 3.80564e-10 0)
(-0.911205 2.79743e-10 0)
(-0.908867 1.99438e-10 0)
(-0.906515 1.37053e-10 0)
(-0.904154 9.00425e-11 0)
(-0.901792 5.39302e-11 0)
(-0.899437 2.98624e-11 0)
(-0.897096 2.36042e-11 0)
(-0.89478 1.3464e-11 0)
(-0.892499 -3.37089e-13 0)
(-0.890265 -6.39637e-13 0)
(-0.888091 3.5002e-13 0)
(-0.88599 4.90196e-13 0)
(-0.883979 3.83023e-13 0)
(-0.882074 3.14957e-13 0)
(-0.880291 2.79947e-13 0)
(-0.878649 2.50654e-13 0)
(-0.877165 2.2369e-13 0)
(-0.875857 2.00156e-13 0)
(-0.87474 1.80516e-13 0)
(-0.873827 1.63236e-13 0)
(-0.873126 1.47884e-13 0)
(-0.872641 1.33998e-13 0)
(-0.872368 1.23494e-13 0)
(-0.872301 1.2626e-13 0)
(-0.872424 1.32908e-13 0)
(-0.87272 -1.84379e-14 0)
(-0.873164 -8.45274e-13 0)
(-0.873732 5.92395e-12 0)
(-0.874395 -1.65701e-11 0)
(-0.875121 3.50786e-11 0)
(-0.875878 -6.1465e-11 0)
(-0.876628 9.66329e-11 0)
(-0.877324 -1.39092e-10 0)
(-0.877908 1.88196e-10 0)
(-0.878177 -2.4111e-10 0)
(-0.878206 2.96857e-10 0)
(-0.878207 -3.5356e-10 0)
(-0.878207 4.1187e-10 0)
(-0.878207 -4.70882e-10 0)
(-0.878207 5.3158e-10 0)
(-0.878207 -5.93058e-10 0)
(-0.878207 6.563e-10 0)
(-0.878207 -7.20383e-10 0)
(-0.878207 7.86309e-10 0)
(-0.878207 -8.53139e-10 0)
(-0.878207 9.21828e-10 0)
(-0.878207 -9.91493e-10 0)
(-0.878207 1.063e-09 0)
(-0.878207 -1.13556e-09 0)
(-0.878207 1.20991e-09 0)
(-0.878207 -1.28542e-09 0)
(-0.878207 1.36263e-09 0)
(-0.878207 -1.44104e-09 0)
(-0.878207 1.52114e-09 0)
(-0.878207 -1.60238e-09 0)
(-0.878207 1.68541e-09 0)
(-0.878207 -1.76934e-09 0)
(-0.878207 1.85515e-09 0)
(-0.878207 -1.94175e-09 0)
(-0.878207 2.03021e-09 0)
(-0.878207 -2.11933e-09 0)
(-0.878207 2.21029e-09 0)
(-0.878207 -2.30176e-09 0)
(-0.878207 2.39498e-09 0)
(-0.878207 -2.48858e-09 0)
(-0.878207 2.26956e-09 0)
(-0.878207 -2.31266e-09 0)
(-0.878207 2.35586e-09 0)
(-0.878207 -2.39793e-09 0)
(-0.878207 2.44009e-09 0)
(-0.878207 -2.48109e-09 0)
(-0.878207 2.52219e-09 0)
(-0.878207 -2.56213e-09 0)
(-0.878207 2.60215e-09 0)
(-0.878207 -2.64103e-09 0)
(-0.878207 2.67994e-09 0)
(-0.878207 -2.71773e-09 0)
(-0.878207 2.75554e-09 0)
(-0.878207 -2.79221e-09 0)
(-0.878207 2.82888e-09 0)
(-0.878207 -2.86443e-09 0)
(-0.878207 2.89996e-09 0)
(-0.878207 -2.93434e-09 0)
(-0.878207 2.96875e-09 0)
(-0.878207 -3.00183e-09 0)
(-0.878207 3.03524e-09 0)
(-0.878207 -3.06688e-09 0)
(-0.878207 3.09931e-09 0)
(-0.878207 -3.12947e-09 0)
(-0.878207 3.16088e-09 0)
(-0.878207 -3.18953e-09 0)
(-0.878207 3.21986e-09 0)
(-0.878207 -3.24695e-09 0)
(-0.878207 3.27618e-09 0)
(-0.878207 -3.30168e-09 0)
(-0.878207 3.32969e-09 0)
(-0.878207 -3.35356e-09 0)
(-0.878207 3.38027e-09 0)
(-0.878207 -3.40254e-09 0)
(-0.878207 3.42777e-09 0)
(-0.878207 -3.44824e-09 0)
(-0.878207 3.47213e-09 0)
(-0.878207 -3.49066e-09 0)
(-0.878207 3.51289e-09 0)
(-0.878207 -3.52948e-09 0)
(-0.878207 3.54982e-09 0)
(-0.878207 -3.56449e-09 0)
(-0.878207 3.58249e-09 0)
(-0.878207 -3.59498e-09 0)
(-0.878207 3.61037e-09 0)
(-0.878207 -3.62034e-09 0)
(-0.878207 3.63232e-09 0)
(-0.878207 -3.63927e-09 0)
(-0.878207 3.6461e-09 0)
(-0.878207 -3.6471e-09 0)
)
;

boundaryField
{
    inandouthalf11
    {
        type            cyclic;
    }
    inandouthalf12
    {
        type            cyclic;
    }
    inandouthalf21
    {
        type            cyclic;
    }
    inandouthalf22
    {
        type            cyclic;
    }
    inandouthalf31
    {
        type            cyclic;
    }
    inandouthalf32
    {
        type            cyclic;
    }
    inandouthalf41
    {
        type            cyclic;
    }
    inandouthalf42
    {
        type            cyclic;
    }
    top
    {
        type            symmetryPlane;
    }
    walls
    {
        type            fixedValue;
        value           uniform (0 0 0);
    }
    frontAndBackPlanes
    {
        type            empty;
    }
}


// ************************************************************************* //
