/*--------------------------------*- C++ -*----------------------------------*\
| =========                 |                                                 |
| \\      /  F ield         | OpenFOAM: The Open Source CFD Toolbox           |
|  \\    /   O peration     | Version:  2.4.x                                 |
|   \\  /    A nd           | Web:      www.OpenFOAM.org                      |
|    \\/     M anipulation  |                                                 |
\*---------------------------------------------------------------------------*/
FoamFile
{
    version     2.0;
    format      ascii;
    class       volScalarField;
    location    "2";
    object      alpha;
}
// * * * * * * * * * * * * * * * * * * * * * * * * * * * * * * * * * * * * * //

dimensions      [0 0 0 0 0 0 0];

internalField   nonuniform List<scalar> 
360
(
0.609996
0.609996
0.609995
0.609995
0.609995
0.609994
0.609994
0.609993
0.609993
0.609992
0.609991
0.609991
0.60999
0.609989
0.609988
0.609987
0.609986
0.609985
0.609984
0.609982
0.609981
0.609979
0.609977
0.609975
0.609973
0.609971
0.609969
0.609966
0.609963
0.60996
0.609957
0.609953
0.60995
0.609945
0.609941
0.609936
0.609931
0.609925
0.609918
0.609912
0.609904
0.609896
0.609888
0.609878
0.609868
0.609857
0.609845
0.609833
0.609819
0.609803
0.609787
0.609769
0.60975
0.609729
0.609707
0.609682
0.609656
0.609627
0.609596
0.609563
0.609526
0.609487
0.609444
0.609398
0.609348
0.609294
0.609235
0.609171
0.609102
0.609033
0.608977
0.608954
0.608961
0.608969
0.60896
0.608932
0.60889
0.608839
0.608783
0.608726
0.608669
0.608613
0.608561
0.608509
0.608459
0.608407
0.608354
0.608298
0.608241
0.608182
0.608122
0.60806
0.607998
0.607935
0.60787
0.607804
0.607737
0.607668
0.607597
0.607525
0.607452
0.607377
0.6073
0.607221
0.607141
0.607059
0.606975
0.60689
0.606802
0.606712
0.60662
0.606527
0.60643
0.606332
0.606231
0.606127
0.606021
0.605912
0.605799
0.605684
0.605565
0.605442
0.605315
0.605184
0.605048
0.604908
0.604761
0.604609
0.604451
0.604287
0.604117
0.603941
0.603757
0.603563
0.603355
0.603137
0.60291
0.602674
0.602413
0.602121
0.601822
0.601568
0.601253
0.600811
0.600247
0.599529
0.598622
0.59741
0.595259
0.557519
0.181278
0.0573573
0.0375365
0.0294764
0.0245406
0.0203206
0.0160217
0.0114792
0.00716066
0.00376185
0.00166051
0.000683108
0.000337636
0.000210045
0.000154845
0.000118993
9.4545e-05
7.92298e-05
6.45202e-05
5.60837e-05
4.67739e-05
4.15549e-05
3.49164e-05
3.15448e-05
2.70237e-05
2.44712e-05
2.09802e-05
1.93263e-05
1.68248e-05
1.50776e-05
1.36901e-05
1.19908e-05
1.10914e-05
9.69539e-06
9.02345e-06
7.89587e-06
7.31658e-06
6.45564e-06
6.05287e-06
5.33647e-06
4.82865e-06
4.47065e-06
3.9834e-06
3.73549e-06
3.27898e-06
3.03176e-06
2.69619e-06
2.54611e-06
2.30033e-06
2.13644e-06
1.85512e-06
1.70229e-06
1.53449e-06
1.45893e-06
1.33794e-06
1.16307e-06
1.02501e-06
9.33101e-07
8.83184e-07
7.89947e-07
6.75324e-07
6.08239e-07
5.71304e-07
5.04713e-07
4.20568e-07
3.8203e-07
3.58264e-07
3.15724e-07
2.59885e-07
2.28817e-07
2.11657e-07
1.8333e-07
1.52738e-07
1.38738e-07
1.21479e-07
9.78887e-08
8.77713e-08
7.86962e-08
6.31815e-08
5.37451e-08
4.84882e-08
3.95434e-08
3.23794e-08
2.84332e-08
2.27129e-08
1.99193e-08
1.5462e-08
1.34609e-08
1.17774e-08
1.12453e-08
1.09635e-08
1.0849e-08
1.12779e-08
1.71404e-09
1.13435e-10
8.8523e-11
7.58462e-11
5.40612e-11
4.54694e-11
3.81666e-11
3.08588e-11
2.6007e-11
1.79922e-11
1.46636e-11
1.19423e-11
9.51414e-12
7.70039e-12
5.15533e-12
4.2251e-12
3.60278e-12
2.5702e-12
1.78074e-12
1.47228e-12
1.21249e-12
7.9318e-13
5.58772e-13
4.58088e-13
3.50184e-13
2.17424e-13
1.6223e-13
1.29382e-13
8.36968e-14
5.75671e-14
4.37154e-14
2.85288e-14
2.1629e-14
1.33131e-14
9.75771e-15
6.32694e-15
4.77752e-15
2.70595e-15
1.82109e-15
1.28516e-15
7.62287e-16
5.26526e-16
2.96562e-16
2.02122e-16
1.18757e-16
8.01497e-17
4.4792e-17
3.03218e-17
1.56114e-17
7.41303e-18
3.51118e-18
1.23636e-18
4.7023e-19
1.7283e-19
6.20371e-20
2.10036e-20
6.63895e-21
1.94303e-21
5.21171e-22
1.26566e-22
2.74218e-23
5.20155e-24
8.42385e-25
1.12363e-25
1.16632e-26
8.47491e-28
3.23262e-29
5.85854e-31
1.87265e-32
2.9561e-34
3.44969e-45
2.00529e-56
8.2053e-68
2.52694e-79
6.51045e-91
2.32765e-102
1.53768e-113
3.30741e-121
5.49778e-132
1.13744e-139
1.87785e-150
3.91249e-158
7.85997e-169
1.34537e-176
3.52163e-187
4.62863e-195
2.42374e-205
1.60009e-213
1.62443e-223
5.57337e-232
8.34132e-242
1.95648e-250
3.96197e-260
6.9332e-269
1.75355e-278
2.47873e-287
7.4893e-297
8.94713e-306
3.09002e-315
2.97428e-321
8.5424e-321
0
0
0
0
0
0
0
0
0
0
0
0
0
0
0
0
)
;

boundaryField
{
    inandouthalf11
    {
        type            cyclic;
    }
    inandouthalf12
    {
        type            cyclic;
    }
    inandouthalf21
    {
        type            cyclic;
    }
    inandouthalf22
    {
        type            cyclic;
    }
    inandouthalf31
    {
        type            cyclic;
    }
    inandouthalf32
    {
        type            cyclic;
    }
    inandouthalf41
    {
        type            cyclic;
    }
    inandouthalf42
    {
        type            cyclic;
    }
    top
    {
        type            symmetryPlane;
    }
    walls
    {
        type            zeroGradient;
    }
    frontAndBackPlanes
    {
        type            empty;
    }
}


// ************************************************************************* //
