/*--------------------------------*- C++ -*----------------------------------*\
| =========                 |                                                 |
| \\      /  F ield         | OpenFOAM: The Open Source CFD Toolbox           |
|  \\    /   O peration     | Version:  2.4.x                                 |
|   \\  /    A nd           | Web:      www.OpenFOAM.org                      |
|    \\/     M anipulation  |                                                 |
\*---------------------------------------------------------------------------*/
FoamFile
{
    version     2.0;
    format      ascii;
    class       volScalarField;
    location    "2";
    object      alpha_0;
}
// * * * * * * * * * * * * * * * * * * * * * * * * * * * * * * * * * * * * * //

dimensions      [0 0 0 0 0 0 0];

internalField   nonuniform List<scalar> 
360
(
0.609996
0.609996
0.609995
0.609995
0.609995
0.609994
0.609994
0.609993
0.609993
0.609992
0.609991
0.609991
0.60999
0.609989
0.609988
0.609987
0.609986
0.609985
0.609984
0.609982
0.609981
0.609979
0.609977
0.609975
0.609973
0.609971
0.609969
0.609966
0.609963
0.60996
0.609957
0.609953
0.60995
0.609945
0.609941
0.609936
0.609931
0.609925
0.609918
0.609912
0.609904
0.609896
0.609888
0.609878
0.609868
0.609857
0.609845
0.609833
0.609819
0.609803
0.609787
0.609769
0.60975
0.609729
0.609707
0.609682
0.609656
0.609627
0.609596
0.609563
0.609526
0.609487
0.609444
0.609398
0.609348
0.609294
0.609235
0.609171
0.609102
0.609033
0.608977
0.608954
0.60896
0.608969
0.60896
0.608932
0.60889
0.608839
0.608783
0.608726
0.608668
0.608613
0.60856
0.608509
0.608459
0.608407
0.608354
0.608298
0.608241
0.608182
0.608122
0.60806
0.607998
0.607935
0.60787
0.607804
0.607737
0.607668
0.607597
0.607525
0.607452
0.607377
0.6073
0.607221
0.607141
0.607059
0.606975
0.606889
0.606802
0.606712
0.60662
0.606526
0.60643
0.606332
0.606231
0.606127
0.606021
0.605912
0.605799
0.605684
0.605564
0.605442
0.605315
0.605184
0.605048
0.604907
0.604761
0.604609
0.604451
0.604287
0.604116
0.60394
0.603757
0.603563
0.603355
0.603137
0.60291
0.602673
0.602413
0.602121
0.601822
0.601568
0.601253
0.60081
0.600247
0.599529
0.598622
0.59741
0.59526
0.557427
0.181284
0.0573849
0.0375603
0.0294975
0.0245583
0.0203336
0.0160284
0.0114796
0.00715692
0.00375738
0.00165754
0.000681836
0.000337211
0.000209886
0.000154769
0.000118947
9.45166e-05
7.92108e-05
6.45071e-05
5.60747e-05
4.67675e-05
4.15504e-05
3.49131e-05
3.15425e-05
2.7022e-05
2.44702e-05
2.09794e-05
1.93258e-05
1.68247e-05
1.50775e-05
1.36901e-05
1.19909e-05
1.10916e-05
9.69557e-06
9.02366e-06
7.89614e-06
7.31685e-06
6.45585e-06
6.05311e-06
5.3368e-06
4.82887e-06
4.47089e-06
3.98361e-06
3.73573e-06
3.27924e-06
3.03199e-06
2.69635e-06
2.54626e-06
2.3005e-06
2.13664e-06
1.85533e-06
1.70245e-06
1.53459e-06
1.45901e-06
1.33809e-06
1.16323e-06
1.02513e-06
9.33163e-07
8.8325e-07
7.90057e-07
6.7542e-07
6.08288e-07
5.71354e-07
5.04801e-07
4.20629e-07
3.82059e-07
3.58296e-07
3.15779e-07
2.59934e-07
2.28841e-07
2.1168e-07
1.83366e-07
1.52761e-07
1.38755e-07
1.21504e-07
9.79054e-08
8.77812e-08
7.87102e-08
6.31962e-08
5.37531e-08
4.84962e-08
3.9553e-08
3.23858e-08
2.84391e-08
2.27179e-08
1.99241e-08
1.54656e-08
1.34635e-08
1.17781e-08
1.12456e-08
1.09635e-08
1.08481e-08
1.12805e-08
1.72641e-09
1.13676e-10
8.86425e-11
7.59692e-11
5.41395e-11
4.55172e-11
3.82096e-11
3.08939e-11
2.60475e-11
1.80196e-11
1.468e-11
1.19561e-11
9.52522e-12
7.71338e-12
5.16226e-12
4.22893e-12
3.60675e-12
2.57494e-12
1.78286e-12
1.47357e-12
1.214e-12
7.94689e-13
5.59409e-13
4.58524e-13
3.50727e-13
2.17753e-13
1.62404e-13
1.29533e-13
8.3833e-14
5.76414e-14
4.37712e-14
2.85653e-14
2.16579e-14
1.33312e-14
9.77009e-15
6.33449e-15
4.78389e-15
2.71011e-15
1.82329e-15
1.28686e-15
7.63327e-16
5.27271e-16
2.96962e-16
2.02382e-16
1.18914e-16
8.02587e-17
4.48486e-17
3.03594e-17
1.56412e-17
7.4274e-18
3.51966e-18
1.23929e-18
4.71356e-19
1.73242e-19
6.21885e-20
2.10563e-20
6.65606e-21
1.94818e-21
5.22594e-22
1.26922e-22
2.75012e-23
5.21706e-24
8.44971e-25
1.12718e-25
1.17012e-26
8.50351e-28
3.24403e-29
5.88054e-31
1.87985e-32
2.96776e-34
3.46284e-45
2.01267e-56
8.2344e-68
2.53548e-79
6.53151e-91
2.33557e-102
1.54325e-113
3.32045e-121
5.51856e-132
1.14192e-139
1.8849e-150
3.92792e-158
7.88934e-169
1.35068e-176
3.53474e-187
4.64687e-195
2.43284e-205
1.60639e-213
1.63055e-223
5.5953e-232
8.37277e-242
1.96416e-250
3.97688e-260
6.96037e-269
1.76014e-278
2.4884e-287
7.51737e-297
8.98191e-306
3.10159e-315
2.96933e-321
8.5424e-321
0
0
0
0
0
0
0
0
0
0
0
0
0
0
0
0
)
;

boundaryField
{
    inandouthalf11
    {
        type            cyclic;
    }
    inandouthalf12
    {
        type            cyclic;
    }
    inandouthalf21
    {
        type            cyclic;
    }
    inandouthalf22
    {
        type            cyclic;
    }
    inandouthalf31
    {
        type            cyclic;
    }
    inandouthalf32
    {
        type            cyclic;
    }
    inandouthalf41
    {
        type            cyclic;
    }
    inandouthalf42
    {
        type            cyclic;
    }
    top
    {
        type            symmetryPlane;
    }
    walls
    {
        type            zeroGradient;
    }
    frontAndBackPlanes
    {
        type            empty;
    }
}


// ************************************************************************* //
