/*--------------------------------*- C++ -*----------------------------------*\
| =========                 |                                                 |
| \\      /  F ield         | OpenFOAM: The Open Source CFD Toolbox           |
|  \\    /   O peration     | Version:  2.4.x                                 |
|   \\  /    A nd           | Web:      www.OpenFOAM.org                      |
|    \\/     M anipulation  |                                                 |
\*---------------------------------------------------------------------------*/
FoamFile
{
    version     2.0;
    format      ascii;
    class       volVectorField;
    location    "2";
    object      ddt0(Ua);
}
// * * * * * * * * * * * * * * * * * * * * * * * * * * * * * * * * * * * * * //

dimensions      [0 1 -2 0 0 0 0];

internalField   nonuniform List<vector> 
360
(
(-7.18708e-37 -1.43518e-35 0)
(-7.18925e-37 -1.43543e-35 0)
(-7.19488e-37 -1.43584e-35 0)
(-7.20734e-37 -1.43678e-35 0)
(-7.22735e-37 -1.43828e-35 0)
(-7.25571e-37 -1.44042e-35 0)
(-7.29316e-37 -1.44328e-35 0)
(-7.34035e-37 -1.44694e-35 0)
(-7.39791e-37 -1.45146e-35 0)
(-7.46639e-37 -1.45689e-35 0)
(-7.5463e-37 -1.46331e-35 0)
(-7.638e-37 -1.47073e-35 0)
(-7.74178e-37 -1.4792e-35 0)
(-7.85789e-37 -1.48873e-35 0)
(-7.98648e-37 -1.49935e-35 0)
(-8.1276e-37 -1.51105e-35 0)
(-8.28119e-37 -1.52382e-35 0)
(-8.44718e-37 -1.53765e-35 0)
(-8.62547e-37 -1.55252e-35 0)
(-8.81601e-37 -1.56842e-35 0)
(-9.0187e-37 -1.58534e-35 0)
(-9.23343e-37 -1.60326e-35 0)
(-9.46018e-37 -1.62217e-35 0)
(-9.69884e-37 -1.64207e-35 0)
(-9.94929e-37 -1.66292e-35 0)
(-1.02114e-36 -1.68473e-35 0)
(-1.04854e-36 -1.7075e-35 0)
(-1.07713e-36 -1.73125e-35 0)
(-1.10696e-36 -1.75604e-35 0)
(-1.13805e-36 -1.78188e-35 0)
(-1.17043e-36 -1.8088e-35 0)
(-1.20413e-36 -1.83685e-35 0)
(-1.2392e-36 -1.86607e-35 0)
(-1.2757e-36 -1.89654e-35 0)
(-1.3137e-36 -1.92832e-35 0)
(-1.35327e-36 -1.96148e-35 0)
(-1.3945e-36 -1.99609e-35 0)
(-1.43749e-36 -2.03227e-35 0)
(-1.48237e-36 -2.07012e-35 0)
(-1.52923e-36 -2.10971e-35 0)
(-1.57818e-36 -2.15111e-35 0)
(-1.62935e-36 -2.19444e-35 0)
(-1.68288e-36 -2.23975e-35 0)
(-1.73894e-36 -2.28718e-35 0)
(-1.79777e-36 -2.33691e-35 0)
(-1.8596e-36 -2.38913e-35 0)
(-1.92473e-36 -2.4441e-35 0)
(-1.9936e-36 -2.50231e-35 0)
(-2.06681e-36 -2.56435e-35 0)
(-2.14537e-36 -2.63173e-35 0)
(-2.23051e-36 -2.70587e-35 0)
(-2.32428e-36 -2.7903e-35 0)
(-2.42945e-36 -2.88876e-35 0)
(-2.55149e-36 -3.01152e-35 0)
(-2.69832e-36 -3.17009e-35 0)
(-2.88722e-36 -3.39843e-35 0)
(-3.14732e-36 -3.74297e-35 0)
(-3.55074e-36 -4.35143e-35 0)
(-4.24579e-36 -5.49034e-35 0)
(-5.6912e-36 -8.13927e-35 0)
(-9.31825e-36 -1.52501e-34 0)
(-2.19239e-35 -4.29697e-34 0)
(-7.66694e-35 -1.7172e-33 0)
(-4.3361e-34 -1.08849e-32 0)
(-4.60502e-33 -1.27129e-31 0)
(-8.4368e-31 -2.84908e-29 0)
(-3.95722e-27 -1.49365e-25 0)
(-5.95904e-22 -2.57596e-20 0)
(-2.63293e-14 -1.32237e-12 0)
(-5.37425e-08 -1.81336e-06 0)
(-3.55e-07 -1.06697e-05 0)
(-1.02427e-06 -2.42526e-05 0)
(-1.86463e-06 -3.08838e-05 0)
(-2.61476e-06 -2.87505e-05 0)
(-3.18857e-06 -2.38687e-05 0)
(-3.61959e-06 -1.95306e-05 0)
(-3.9643e-06 -1.62067e-05 0)
(-4.26746e-06 -1.36418e-05 0)
(-4.55984e-06 -1.15871e-05 0)
(-4.86191e-06 -9.90048e-06 0)
(-5.18581e-06 -8.51221e-06 0)
(-5.53582e-06 -7.37617e-06 0)
(-5.90915e-06 -6.43826e-06 0)
(-6.2984e-06 -5.62882e-06 0)
(-6.69547e-06 -4.87121e-06 0)
(-7.09481e-06 -4.09456e-06 0)
(-7.49469e-06 -3.24279e-06 0)
(-7.8965e-06 -2.2791e-06 0)
(-8.30314e-06 -1.18756e-06 0)
(-8.71751e-06 2.74631e-08 0)
(-9.14141e-06 1.34356e-06 0)
(-9.57509e-06 2.7251e-06 0)
(-1.00174e-05 4.1309e-06 0)
(-1.04665e-05 5.52262e-06 0)
(-1.09204e-05 6.87116e-06 0)
(-1.13776e-05 8.15964e-06 0)
(-1.18374e-05 9.38255e-06 0)
(-1.22998e-05 1.05423e-05 0)
(-1.27653e-05 1.1645e-05 0)
(-1.32346e-05 1.26966e-05 0)
(-1.37082e-05 1.37012e-05 0)
(-1.41868e-05 1.46592e-05 0)
(-1.46706e-05 1.55688e-05 0)
(-1.51599e-05 1.64264e-05 0)
(-1.56551e-05 1.72288e-05 0)
(-1.61567e-05 1.79742e-05 0)
(-1.66653e-05 1.8664e-05 0)
(-1.71822e-05 1.93035e-05 0)
(-1.77093e-05 1.99029e-05 0)
(-1.82489e-05 2.04773e-05 0)
(-1.88043e-05 2.10465e-05 0)
(-1.93796e-05 2.16345e-05 0)
(-1.99795e-05 2.22684e-05 0)
(-2.06095e-05 2.29767e-05 0)
(-2.12757e-05 2.37878e-05 0)
(-2.19843e-05 2.4728e-05 0)
(-2.27418e-05 2.58198e-05 0)
(-2.35543e-05 2.70808e-05 0)
(-2.44276e-05 2.85226e-05 0)
(-2.53669e-05 3.01508e-05 0)
(-2.63769e-05 3.19656e-05 0)
(-2.7462e-05 3.39633e-05 0)
(-2.86265e-05 3.61379e-05 0)
(-2.98752e-05 3.84818e-05 0)
(-3.12133e-05 4.09869e-05 0)
(-3.26461e-05 4.36416e-05 0)
(-3.41769e-05 4.64271e-05 0)
(-3.58046e-05 4.93108e-05 0)
(-3.75201e-05 5.22411e-05 0)
(-3.93046e-05 5.51494e-05 0)
(-4.11334e-05 5.79634e-05 0)
(-4.2986e-05 6.06333e-05 0)
(-4.48605e-05 6.31556e-05 0)
(-4.67811e-05 6.55774e-05 0)
(-4.87908e-05 6.79687e-05 0)
(-5.09261e-05 7.03737e-05 0)
(-5.31888e-05 7.27663e-05 0)
(-5.55333e-05 7.50521e-05 0)
(-5.78686e-05 7.71057e-05 0)
(-6.00367e-05 7.8784e-05 0)
(-6.18048e-05 7.99363e-05 0)
(-6.30093e-05 8.05347e-05 0)
(-6.37312e-05 8.07779e-05 0)
(-6.41448e-05 8.08605e-05 0)
(-6.43708e-05 8.08727e-05 0)
(-6.44879e-05 8.08621e-05 0)
(-6.45666e-05 8.08569e-05 0)
(-6.46579e-05 8.08563e-05 0)
(-6.4914e-05 8.08464e-05 0)
(-0.127517 0.00048609 0)
(-0.419191 0.00149686 0)
(-0.705112 -0.0027555 0)
(-0.946712 -0.0119014 0)
(-1.12706 -0.0193136 0)
(-1.24414 -0.0250261 0)
(-1.29912 -0.0286987 0)
(-1.28814 -0.0298227 0)
(-1.20911 -0.0275581 0)
(-1.07583 -0.0214413 0)
(-0.93263 -0.0122116 0)
(-0.831091 -0.00316603 0)
(-0.782099 0.00201883 0)
(-0.761922 0.00458732 0)
(-0.752064 0.0057414 0)
(-0.745931 0.00640674 0)
(-0.74152 0.00691961 0)
(-0.738153 0.00737308 0)
(-0.735387 0.00777844 0)
(-0.733023 0.0081498 0)
(-0.730928 0.00849355 0)
(-0.729001 0.00881066 0)
(-0.727201 0.00910681 0)
(-0.725478 0.00938243 0)
(-0.723821 0.00964124 0)
(-0.722198 0.00988316 0)
(-0.720606 0.0101106 0)
(-0.719032 0.0103248 0)
(-0.717488 0.0105282 0)
(-0.715941 0.0107187 0)
(-0.714407 0.0109001 0)
(-0.71289 0.0110723 0)
(-0.711369 0.0112355 0)
(-0.709864 0.011391 0)
(-0.708364 0.0115393 0)
(-0.706885 0.0116814 0)
(-0.705396 0.0118162 0)
(-0.703909 0.0119446 0)
(-0.702457 0.0120692 0)
(-0.701044 0.0121902 0)
(-0.699585 0.0123019 0)
(-0.698138 0.0124103 0)
(-0.69676 0.0125171 0)
(-0.695393 0.0126192 0)
(-0.694053 0.012717 0)
(-0.692679 0.0128078 0)
(-0.691294 0.0128931 0)
(-0.690001 0.0129797 0)
(-0.688826 0.0130681 0)
(-0.687684 0.0131513 0)
(-0.686499 0.0132249 0)
(-0.685235 0.0132886 0)
(-0.683995 0.0133506 0)
(-0.682939 0.0134223 0)
(-0.682062 0.0135019 0)
(-0.681122 0.0135701 0)
(-0.679958 0.0136192 0)
(-0.678774 0.0136662 0)
(-0.677829 0.0137292 0)
(-0.677071 0.0138007 0)
(-0.676166 0.0138544 0)
(-0.67506 0.0138896 0)
(-0.674138 0.0139385 0)
(-0.673453 0.0140022 0)
(-0.672539 0.0140404 0)
(-0.671432 0.0140591 0)
(-0.670637 0.0141043 0)
(-0.670099 0.0141656 0)
(-0.669328 0.0141994 0)
(-0.668241 0.014201 0)
(-0.667347 0.0142187 0)
(-0.666764 0.0142617 0)
(-0.665959 0.0142757 0)
(-0.665035 0.0142718 0)
(-0.664382 0.014294 0)
(-0.663568 0.0142924 0)
(-0.66256 0.014262 0)
(-0.661892 0.0142658 0)
(-0.66128 0.0142687 0)
(-0.660278 0.0142194 0)
(-0.659347 0.0141702 0)
(-0.658691 0.0141486 0)
(-0.657762 0.0140843 0)
(-0.656704 0.0139935 0)
(-0.655787 0.0139132 0)
(-0.65484 0.0138179 0)
(-0.653819 0.0137021 0)
(-0.652762 0.0135694 0)
(-0.651839 0.01344 0)
(-0.651364 0.0133592 0)
(-0.651358 0.0133326 0)
(-0.651576 0.0133245 0)
(-0.652075 0.0133521 0)
(-0.652958 0.0133904 0)
(-0.643489 -0.000315662 0)
(-0.651123 9.28849e-05 0)
(-0.651124 8.94782e-05 0)
(-0.651123 8.96195e-05 0)
(-0.651123 8.97483e-05 0)
(-0.651123 8.95987e-05 0)
(-0.651123 8.97406e-05 0)
(-0.651123 8.96015e-05 0)
(-0.651123 8.9732e-05 0)
(-0.651123 8.96059e-05 0)
(-0.651123 8.97237e-05 0)
(-0.651123 8.96112e-05 0)
(-0.651123 8.97158e-05 0)
(-0.651123 8.9617e-05 0)
(-0.651123 8.97085e-05 0)
(-0.651123 8.96261e-05 0)
(-0.651123 8.96931e-05 0)
(-0.651123 8.96386e-05 0)
(-0.651123 8.96837e-05 0)
(-0.651123 8.9643e-05 0)
(-0.651123 8.9684e-05 0)
(-0.651123 8.96438e-05 0)
(-0.651123 8.96796e-05 0)
(-0.651123 8.96476e-05 0)
(-0.651123 8.96757e-05 0)
(-0.651123 8.96511e-05 0)
(-0.651123 8.96722e-05 0)
(-0.651123 8.96541e-05 0)
(-0.651123 8.96692e-05 0)
(-0.651123 8.96568e-05 0)
(-0.651123 8.96666e-05 0)
(-0.651123 8.96591e-05 0)
(-0.651123 8.96644e-05 0)
(-0.651123 8.96609e-05 0)
(-0.651123 8.96626e-05 0)
(-0.651123 8.96624e-05 0)
(-0.651123 8.96612e-05 0)
(-0.651123 8.96635e-05 0)
(-0.651123 8.966e-05 0)
(-0.651123 8.96644e-05 0)
(-0.651123 8.96592e-05 0)
(-0.651123 8.96651e-05 0)
(-0.651123 8.96585e-05 0)
(-0.651123 8.96655e-05 0)
(-0.651123 8.9658e-05 0)
(-0.651123 8.96658e-05 0)
(-0.651123 8.96577e-05 0)
(-0.651123 8.9666e-05 0)
(-0.651123 8.96574e-05 0)
(-0.651123 8.96662e-05 0)
(-0.651123 8.96571e-05 0)
(-0.651123 8.96663e-05 0)
(-0.651123 8.96569e-05 0)
(-0.651123 8.96665e-05 0)
(-0.651123 8.96566e-05 0)
(-0.651123 8.96667e-05 0)
(-0.651123 8.96563e-05 0)
(-0.651123 8.96671e-05 0)
(-0.651123 8.96559e-05 0)
(-0.651123 8.96675e-05 0)
(-0.651123 8.96555e-05 0)
(-0.651123 8.9668e-05 0)
(-0.651123 8.96549e-05 0)
(-0.651123 8.96685e-05 0)
(-0.651123 8.96543e-05 0)
(-0.651123 8.96692e-05 0)
(-0.651123 8.96535e-05 0)
(-0.651123 8.96689e-05 0)
(-0.651123 8.9654e-05 0)
(-0.651123 8.96694e-05 0)
(-0.651123 8.96534e-05 0)
(-0.651123 8.967e-05 0)
(-0.651123 8.96529e-05 0)
(-0.651123 8.96705e-05 0)
(-0.651123 8.96523e-05 0)
(-0.651123 8.96711e-05 0)
(-0.651123 8.96517e-05 0)
(-0.651123 8.96717e-05 0)
(-0.651123 8.96511e-05 0)
(-0.651123 8.96722e-05 0)
(-0.651123 8.96505e-05 0)
(-0.651123 8.96728e-05 0)
(-0.651123 8.96499e-05 0)
(-0.651123 8.96732e-05 0)
(-0.651123 8.96493e-05 0)
(-0.651123 8.96736e-05 0)
(-0.651123 8.96487e-05 0)
(-0.651123 8.96739e-05 0)
(-0.651123 8.96481e-05 0)
(-0.651123 8.96741e-05 0)
(-0.651123 8.96473e-05 0)
(-0.651123 8.9674e-05 0)
(-0.651123 8.96465e-05 0)
(-0.651123 8.96738e-05 0)
(-0.651123 8.96456e-05 0)
(-0.651123 8.96735e-05 0)
(-0.651123 8.96446e-05 0)
(-0.651123 8.96729e-05 0)
(-0.651123 8.96434e-05 0)
(-0.651123 8.9672e-05 0)
(-0.651123 8.96419e-05 0)
(-0.651123 8.96708e-05 0)
(-0.651123 8.964e-05 0)
(-0.651123 8.96678e-05 0)
(-0.651123 8.96356e-05 0)
(-0.651123 8.96662e-05 0)
(-0.651123 8.96371e-05 0)
(-0.651123 8.96668e-05 0)
(-0.651123 8.96355e-05 0)
(-0.651123 8.96653e-05 0)
(-0.651123 8.96345e-05 0)
(-0.651123 8.96641e-05 0)
(-0.651123 8.9633e-05 0)
(-0.651123 8.96694e-05 0)
(-0.651122 8.97305e-05 0)
(-0.651081 9.18317e-05 0)
(-0.65014 0.000176431 0)
)
;

boundaryField
{
    inandouthalf11
    {
        type            cyclic;
    }
    inandouthalf12
    {
        type            cyclic;
    }
    inandouthalf21
    {
        type            cyclic;
    }
    inandouthalf22
    {
        type            cyclic;
    }
    inandouthalf31
    {
        type            cyclic;
    }
    inandouthalf32
    {
        type            cyclic;
    }
    inandouthalf41
    {
        type            cyclic;
    }
    inandouthalf42
    {
        type            cyclic;
    }
    top
    {
        type            symmetryPlane;
    }
    walls
    {
        type            calculated;
        value           uniform (0 0 0);
    }
    frontAndBackPlanes
    {
        type            empty;
    }
}


// ************************************************************************* //
