/*--------------------------------*- C++ -*----------------------------------*\
| =========                 |                                                 |
| \\      /  F ield         | OpenFOAM: The Open Source CFD Toolbox           |
|  \\    /   O peration     | Version:  2.4.x                                 |
|   \\  /    A nd           | Web:      www.OpenFOAM.org                      |
|    \\/     M anipulation  |                                                 |
\*---------------------------------------------------------------------------*/
FoamFile
{
    version     2.0;
    format      ascii;
    class       volScalarField;
    location    "2";
    object      ddt0(alpha);
}
// * * * * * * * * * * * * * * * * * * * * * * * * * * * * * * * * * * * * * //

dimensions      [0 0 -1 0 0 0 0];

internalField   nonuniform List<scalar> 
360
(
-1.18422e-12
-5.51381e-13
8.49097e-13
4.19102e-13
1.29632e-13
-1.2757e-12
3.85211e-13
-5.86385e-14
1.20775e-12
-1.99029e-14
-9.66873e-13
-1.89076e-12
-1.19103e-12
2.53652e-14
-1.02882e-13
-4.75482e-15
-1.6331e-15
6.57063e-14
-3.11071e-13
-1.26075e-12
-3.17067e-13
9.5084e-13
2.81459e-16
-3.08903e-13
-5.34844e-13
5.29941e-14
-9.53677e-13
3.07026e-13
3.15484e-13
3.09526e-13
9.1321e-15
1.91967e-17
-9.30588e-14
-3.09482e-13
-3.12219e-13
-3.14205e-13
-4.09054e-13
7.37425e-15
1.91967e-17
6.24936e-13
-2.52865e-14
7.91996e-14
3.53702e-13
1.19292e-12
4.17452e-13
3.09495e-13
4.44595e-13
-2.61023e-14
-6.04245e-14
2.37293e-15
8.94301e-13
-2.21151e-13
4.51124e-14
-2.66978e-13
-6.19043e-14
-3.9031e-13
-4.15588e-13
-1.87515e-17
-2.18443e-13
4.55716e-14
-6.71203e-13
3.00099e-13
3.28267e-13
1.11047e-13
-6.61015e-15
-1.17717e-13
9.63247e-14
1.87257e-12
2.88204e-05
0.000242962
0.000819527
0.00148713
0.00169703
0.00142759
0.00104495
0.000768095
0.000615128
0.000550463
0.00054232
0.000569271
0.000613768
0.000660006
0.000694923
0.000711997
0.000712491
0.000702482
0.00068912
0.000677326
0.000669436
0.000665518
0.000664293
0.000664165
0.000663972
0.00066312
0.000661641
0.000659947
0.000658554
0.000657894
0.00065825
0.000659785
0.000662585
0.000666736
0.000672345
0.000679523
0.000688366
0.000698936
0.000711236
0.000725211
0.00074074
0.000757635
0.000775641
0.000794433
0.000813624
0.000832777
0.000851424
0.000869084
0.000885287
0.000899595
0.000911631
0.000921113
0.000927901
0.00093205
0.000933847
0.000933785
0.00093243
0.000930137
0.000926624
0.000920576
0.000909623
0.000891167
0.000864184
0.000831119
0.000797926
0.000770889
0.000751278
0.000732243
0.000703705
0.000660269
0.00059797
0.000504706
0.000371225
0.000213831
0.000100256
3.0591e-05
-1.73549e-05
-5.48834e-05
-8.99461e-05
-0.000155888
-0.00156606
0.46108
-0.0284236
-0.138332
-0.119466
-0.106013
-0.0889496
-0.064895
-0.0337344
-0.00191794
0.0188688
0.0224752
0.0149185
0.0063834
0.0021311
0.000797302
0.000382922
0.000230709
0.000142278
9.51847e-05
6.57788e-05
4.50826e-05
3.23838e-05
2.27776e-05
1.64636e-05
1.15557e-05
8.20421e-06
5.43858e-06
3.8815e-06
2.54994e-06
9.79865e-07
8.09382e-07
-1.73708e-07
-4.02973e-07
-8.07628e-07
-8.89662e-07
-1.07077e-06
-1.33322e-06
-1.34595e-06
-1.09388e-06
-1.19168e-06
-1.65517e-06
-1.07337e-06
-1.20671e-06
-1.09411e-06
-1.1624e-06
-1.28268e-06
-1.17554e-06
-8.0602e-07
-7.34076e-07
-8.4456e-07
-1.02287e-06
-1.04817e-06
-7.98816e-07
-4.64617e-07
-4.02508e-07
-7.39046e-07
-8.17769e-07
-5.7576e-07
-3.12959e-07
-3.30671e-07
-5.52395e-07
-4.83659e-07
-2.45442e-07
-2.52642e-07
-4.42953e-07
-3.06904e-07
-1.45615e-07
-1.6454e-07
-2.75443e-07
-2.44811e-07
-1.23053e-07
-1.17852e-07
-1.77126e-07
-1.13083e-07
-8.20767e-08
-1.29753e-07
-8.39713e-08
-4.98772e-08
-7.00577e-08
-7.37422e-08
-4.05848e-08
-4.02435e-08
-4.84954e-08
-3.25625e-08
-2.94184e-08
-2.48135e-08
-2.39382e-08
-1.82236e-08
-1.31237e-08
-3.6199e-09
-1.39416e-09
-2.64645e-10
4.52047e-09
-1.27066e-08
-6.24263e-08
-1.21712e-09
-6.00287e-10
-6.17428e-10
-3.94071e-10
-2.40223e-10
-2.15957e-10
-1.76395e-10
-2.03256e-10
-1.38056e-10
-8.27158e-11
-6.88885e-11
-5.56212e-11
-6.52099e-11
-3.48793e-11
-1.92097e-11
-1.99299e-11
-2.38486e-11
-1.06542e-11
-6.47532e-12
-7.54948e-12
-7.58927e-12
-3.20455e-12
-2.1893e-12
-2.72686e-12
-1.6585e-12
-8.73914e-13
-7.5964e-13
-6.84216e-13
-3.7383e-13
-2.80345e-13
-1.83296e-13
-1.45193e-13
-9.08038e-14
-6.22594e-14
-3.79573e-14
-3.1972e-14
-2.0878e-14
-1.10769e-14
-8.53379e-15
-5.22835e-15
-3.74087e-15
-2.0123e-15
-1.30551e-15
-7.90056e-16
-5.47563e-16
-2.84435e-16
-1.89227e-16
-1.49612e-16
-7.22147e-17
-4.26247e-17
-1.47434e-17
-5.66438e-18
-2.07063e-18
-7.61015e-19
-2.64775e-19
-8.60572e-20
-2.59183e-20
-7.15748e-21
-1.78989e-21
-3.99355e-22
-7.80094e-23
-1.30106e-23
-1.78786e-24
-1.91395e-25
-1.43874e-26
-5.74136e-28
-1.10699e-29
-3.62777e-31
-5.86614e-33
-6.61347e-44
-3.70441e-55
-1.45978e-66
-4.29247e-78
-1.05863e-89
-3.99436e-101
-2.81413e-112
-6.56356e-120
-1.0486e-130
-2.2571e-138
-3.56394e-149
-7.76377e-157
-1.48628e-167
-2.66964e-175
-6.63933e-186
-9.18421e-194
-4.60518e-204
-3.17381e-212
-3.10006e-222
-1.10443e-230
-1.59151e-240
-3.87096e-249
-7.54521e-259
-1.36834e-267
-3.33284e-277
-4.877e-286
-1.41997e-295
-1.75307e-304
-5.87549e-314
4.94066e-324
0
0
0
0
0
0
0
0
0
0
0
0
0
0
0
0
0
)
;

boundaryField
{
    inandouthalf11
    {
        type            cyclic;
    }
    inandouthalf12
    {
        type            cyclic;
    }
    inandouthalf21
    {
        type            cyclic;
    }
    inandouthalf22
    {
        type            cyclic;
    }
    inandouthalf31
    {
        type            cyclic;
    }
    inandouthalf32
    {
        type            cyclic;
    }
    inandouthalf41
    {
        type            cyclic;
    }
    inandouthalf42
    {
        type            cyclic;
    }
    top
    {
        type            symmetryPlane;
    }
    walls
    {
        type            calculated;
        value           uniform -1.18422e-12;
    }
    frontAndBackPlanes
    {
        type            empty;
    }
}


// ************************************************************************* //
