/*--------------------------------*- C++ -*----------------------------------*\
| =========                 |                                                 |
| \\      /  F ield         | OpenFOAM: The Open Source CFD Toolbox           |
|  \\    /   O peration     | Version:  2.4.x                                 |
|   \\  /    A nd           | Web:      www.OpenFOAM.org                      |
|    \\/     M anipulation  |                                                 |
\*---------------------------------------------------------------------------*/
FoamFile
{
    version     2.0;
    format      ascii;
    class       surfaceScalarField;
    location    "2";
    object      ddt0(phib);
}
// * * * * * * * * * * * * * * * * * * * * * * * * * * * * * * * * * * * * * //

dimensions      [0 3 -2 0 0 0 0];

internalField   nonuniform List<scalar> 
359
(
1.33259e-15
2.68943e-15
4.02967e-15
5.38078e-15
6.73493e-15
8.09255e-15
9.45104e-15
1.07917e-14
1.2124e-14
1.34702e-14
1.48343e-14
1.6159e-14
1.75001e-14
1.88225e-14
2.01798e-14
2.1536e-14
2.28398e-14
2.41856e-14
2.54984e-14
2.68239e-14
2.81371e-14
2.9476e-14
3.07607e-14
3.2079e-14
3.33393e-14
3.46724e-14
3.59497e-14
3.72201e-14
3.84971e-14
3.98038e-14
4.10585e-14
4.23481e-14
4.35978e-14
4.48926e-14
4.6116e-14
4.73664e-14
4.8568e-14
4.98071e-14
5.10035e-14
5.22246e-14
5.34359e-14
5.46719e-14
5.58299e-14
5.70507e-14
5.81944e-14
5.94057e-14
6.05388e-14
6.17199e-14
6.28569e-14
6.40147e-14
6.51187e-14
6.62557e-14
6.73442e-14
6.84745e-14
6.95626e-14
7.06933e-14
7.17719e-14
7.28877e-14
7.39441e-14
7.50336e-14
7.60676e-14
7.71175e-14
7.81515e-14
7.91776e-14
8.02054e-14
8.12305e-14
8.22096e-14
8.32321e-14
5.70304e-12
3.88301e-11
1.09136e-10
1.72122e-10
1.85707e-10
1.64007e-10
1.35406e-10
1.11515e-10
9.31386e-11
7.87316e-11
6.70763e-11
5.7507e-11
4.96598e-11
4.32169e-11
3.77902e-11
3.29239e-11
2.8159e-11
2.31023e-11
1.74657e-11
1.10872e-11
3.932e-12
-3.91618e-12
-1.22769e-11
-2.09112e-11
-2.95727e-11
-3.8052e-11
-4.62067e-11
-5.39672e-11
-6.13241e-11
-6.83035e-11
-7.49432e-11
-8.1274e-11
-8.73099e-11
-9.30467e-11
-9.84677e-11
-1.03552e-10
-1.08284e-10
-1.12662e-10
-1.16708e-10
-1.20469e-10
-1.24024e-10
-1.27481e-10
-1.30974e-10
-1.34662e-10
-1.38714e-10
-1.43307e-10
-1.48607e-10
-1.54766e-10
-1.61904e-10
-1.7011e-10
-1.79436e-10
-1.89897e-10
-2.01481e-10
-2.14155e-10
-2.27876e-10
-2.42592e-10
-2.58238e-10
-2.7472e-10
-2.91878e-10
-3.09452e-10
-3.27079e-10
-3.44328e-10
-3.60827e-10
-3.76406e-10
-3.91184e-10
-4.05509e-10
-4.1974e-10
-4.3395e-10
-4.47771e-10
-4.60503e-10
-4.71326e-10
-4.79439e-10
-4.8442e-10
-4.86482e-10
-4.86788e-10
-4.86132e-10
-4.84892e-10
-4.8325e-10
-4.81166e-10
-4.78631e-10
-6.08433e-10
1.79457e-10
-1.65048e-09
-6.6862e-10
5.18885e-10
1.54094e-09
2.22609e-09
2.33948e-09
1.77074e-09
7.95679e-10
1.3707e-11
-2.60503e-10
-1.88826e-10
-7.35773e-11
-2.51432e-11
-1.10461e-11
-6.51072e-12
-4.47295e-12
-3.34355e-12
-2.65076e-12
-2.17367e-12
-1.83964e-12
-1.58326e-12
-1.38257e-12
-1.21597e-12
-1.08752e-12
-9.70881e-13
-8.70333e-13
-7.83111e-13
-7.13931e-13
-6.38102e-13
-5.82891e-13
-5.26722e-13
-4.78129e-13
-4.34496e-13
-3.93925e-13
-3.58996e-13
-3.24566e-13
-2.93645e-13
-2.66412e-13
-2.44967e-13
-2.17425e-13
-1.96697e-13
-1.78077e-13
-1.61533e-13
-1.46608e-13
-1.30458e-13
-1.14479e-13
-1.0085e-13
-9.2072e-14
-8.42383e-14
-7.47926e-14
-6.29553e-14
-5.1588e-14
-4.33832e-14
-4.07122e-14
-3.63348e-14
-2.74164e-14
-1.82145e-14
-1.31373e-14
-1.16286e-14
-7.65117e-15
-7.99294e-16
3.4625e-15
4.19514e-15
7.45122e-15
1.29193e-14
1.54764e-14
1.56582e-14
1.72605e-14
2.06524e-14
2.28075e-14
2.30624e-14
2.43499e-14
2.61047e-14
2.64157e-14
2.70564e-14
2.84673e-14
2.86768e-14
2.86613e-14
2.91884e-14
2.96066e-14
2.93844e-14
2.95146e-14
2.95439e-14
2.94949e-14
2.92884e-14
2.91496e-14
2.89339e-14
2.88075e-14
2.84943e-14
2.81054e-14
2.76075e-14
2.69376e-14
2.33163e-14
2.14711e-14
2.57542e-14
2.52703e-14
2.45857e-14
2.40474e-14
2.33249e-14
2.27277e-14
2.19561e-14
2.12873e-14
2.04793e-14
1.97544e-14
1.88858e-14
1.81126e-14
1.72196e-14
1.64169e-14
1.55017e-14
1.46697e-14
1.37622e-14
1.29396e-14
1.2088e-14
1.13845e-14
1.0755e-14
1.02824e-14
9.79612e-15
9.39222e-15
9.00437e-15
8.63171e-15
8.24666e-15
7.87637e-15
7.58851e-15
7.29224e-15
7.00402e-15
6.66216e-15
6.35707e-15
6.01057e-15
5.64985e-15
5.26175e-15
4.99203e-15
4.70846e-15
4.42697e-15
4.11592e-15
3.84441e-15
3.53654e-15
3.20754e-15
2.89223e-15
2.61871e-15
2.32145e-15
2.03576e-15
1.75274e-15
1.49273e-15
1.20594e-15
9.35784e-16
6.22194e-16
5.87767e-16
5.28596e-16
5.02115e-16
4.43418e-16
4.24055e-16
3.74227e-16
3.31437e-16
2.77306e-16
2.63282e-16
2.259e-16
2.06437e-16
1.8554e-16
1.70128e-16
1.30099e-16
1.18087e-16
8.84884e-17
1.00857e-16
8.08636e-17
7.38131e-17
1.8896e-17
8.96702e-18
-6.36973e-17
-1.21543e-16
-2.4098e-16
-2.83539e-16
-4.07578e-16
-5.24957e-16
-7.48739e-16
-9.17619e-16
-1.21449e-15
-1.50334e-15
-1.62944e-15
-2.16833e-15
-2.89353e-15
-3.65183e-15
-5.326e-15
-6.21215e-15
-8.52026e-15
-1.08213e-14
-1.45563e-14
-1.60095e-14
-1.92068e-14
-2.24577e-14
-2.7727e-14
-3.19383e-14
-3.78278e-14
-4.39915e-14
-5.09276e-14
-5.99739e-14
-6.86261e-14
-7.74686e-14
-8.49191e-14
-9.46645e-14
-1.00876e-13
-1.07682e-13
-1.10989e-13
-1.24532e-13
-1.30341e-13
-1.36383e-13
-1.33625e-13
-1.33658e-13
-1.3178e-13
-1.41148e-13
)
;

boundaryField
{
    inandouthalf11
    {
        type            cyclic;
        value           nonuniform List<scalar> 
100
(
3.12261e-10
3.12793e-10
3.12796e-10
3.12796e-10
3.12796e-10
3.12799e-10
3.12799e-10
3.12801e-10
3.12801e-10
3.12804e-10
3.12806e-10
3.12806e-10
3.12809e-10
3.12812e-10
3.12814e-10
3.12817e-10
3.1282e-10
3.12822e-10
3.12825e-10
3.1283e-10
3.12833e-10
3.12838e-10
3.12843e-10
3.12848e-10
3.12854e-10
3.12859e-10
3.12864e-10
3.12872e-10
3.1288e-10
3.12888e-10
3.12896e-10
3.12906e-10
3.12914e-10
3.12927e-10
3.12938e-10
3.12951e-10
3.12964e-10
3.1298e-10
3.12998e-10
3.13014e-10
3.13035e-10
3.13056e-10
3.13077e-10
3.13104e-10
3.1313e-10
3.13159e-10
3.1319e-10
3.13222e-10
3.13259e-10
3.13301e-10
3.13343e-10
3.1339e-10
3.1344e-10
3.13496e-10
3.13554e-10
3.13619e-10
3.13688e-10
3.13764e-10
3.13846e-10
3.13933e-10
3.14031e-10
3.14133e-10
3.14247e-10
3.14368e-10
3.145e-10
3.14643e-10
3.14799e-10
3.14968e-10
3.15115e-10
3.15099e-10
3.14865e-10
3.14801e-10
3.1537e-10
3.16415e-10
3.17465e-10
3.18301e-10
3.18939e-10
3.19455e-10
3.19907e-10
3.20331e-10
3.20753e-10
3.21195e-10
3.21667e-10
3.22171e-10
3.22702e-10
3.2325e-10
3.23807e-10
3.24371e-10
3.2494e-10
3.25516e-10
3.26103e-10
3.267e-10
3.2731e-10
3.27929e-10
3.28558e-10
3.29194e-10
3.29835e-10
3.30483e-10
3.31137e-10
3.31798e-10
)
;
    }
    inandouthalf12
    {
        type            cyclic;
        value           nonuniform List<scalar> 
100
(
-3.12261e-10
-3.12793e-10
-3.12796e-10
-3.12796e-10
-3.12796e-10
-3.12799e-10
-3.12799e-10
-3.12801e-10
-3.12801e-10
-3.12804e-10
-3.12806e-10
-3.12806e-10
-3.12809e-10
-3.12812e-10
-3.12814e-10
-3.12817e-10
-3.1282e-10
-3.12822e-10
-3.12825e-10
-3.1283e-10
-3.12833e-10
-3.12838e-10
-3.12843e-10
-3.12848e-10
-3.12854e-10
-3.12859e-10
-3.12864e-10
-3.12872e-10
-3.1288e-10
-3.12888e-10
-3.12896e-10
-3.12906e-10
-3.12914e-10
-3.12927e-10
-3.12938e-10
-3.12951e-10
-3.12964e-10
-3.1298e-10
-3.12998e-10
-3.13014e-10
-3.13035e-10
-3.13056e-10
-3.13077e-10
-3.13104e-10
-3.1313e-10
-3.13159e-10
-3.1319e-10
-3.13222e-10
-3.13259e-10
-3.13301e-10
-3.13343e-10
-3.1339e-10
-3.1344e-10
-3.13496e-10
-3.13554e-10
-3.13619e-10
-3.13688e-10
-3.13764e-10
-3.13846e-10
-3.13933e-10
-3.14031e-10
-3.14133e-10
-3.14247e-10
-3.14368e-10
-3.145e-10
-3.14643e-10
-3.14799e-10
-3.14968e-10
-3.15115e-10
-3.15099e-10
-3.14865e-10
-3.14801e-10
-3.1537e-10
-3.16415e-10
-3.17465e-10
-3.18301e-10
-3.18939e-10
-3.19455e-10
-3.19907e-10
-3.20331e-10
-3.20753e-10
-3.21195e-10
-3.21667e-10
-3.22171e-10
-3.22702e-10
-3.2325e-10
-3.23807e-10
-3.24371e-10
-3.2494e-10
-3.25516e-10
-3.26103e-10
-3.267e-10
-3.2731e-10
-3.27929e-10
-3.28558e-10
-3.29194e-10
-3.29835e-10
-3.30483e-10
-3.31137e-10
-3.31798e-10
)
;
    }
    inandouthalf21
    {
        type            cyclic;
        value           nonuniform List<scalar> 
100
(
3.32465e-10
3.33141e-10
3.33824e-10
3.34516e-10
3.35216e-10
3.35926e-10
3.36645e-10
3.37376e-10
3.3812e-10
3.38881e-10
3.39662e-10
3.40468e-10
3.41304e-10
3.42176e-10
3.43092e-10
3.44059e-10
3.45085e-10
3.46176e-10
3.47339e-10
3.48581e-10
3.49906e-10
3.51321e-10
3.52829e-10
3.54435e-10
3.56146e-10
3.57968e-10
3.59904e-10
3.61958e-10
3.64123e-10
3.66384e-10
3.68715e-10
3.71095e-10
3.73519e-10
3.76012e-10
3.78621e-10
3.81389e-10
3.84317e-10
3.87378e-10
3.90518e-10
3.9362e-10
3.96392e-10
3.98506e-10
4.00256e-10
4.02001e-10
4.03878e-10
4.06081e-10
4.0879e-10
4.12582e-10
5.51979e-10
1.28447e-07
4.38019e-07
7.88224e-07
1.04992e-06
1.19959e-06
1.2686e-06
1.29371e-06
1.27922e-06
1.22719e-06
1.13505e-06
1.00287e-06
8.61817e-07
7.62297e-07
7.14631e-07
6.94997e-07
6.85313e-07
6.79301e-07
6.74883e-07
6.71569e-07
6.69027e-07
6.67048e-07
6.65502e-07
6.64267e-07
6.63276e-07
6.62469e-07
6.6179e-07
6.61213e-07
6.60735e-07
6.60324e-07
6.5995e-07
6.59644e-07
6.59364e-07
6.59124e-07
6.5891e-07
6.58723e-07
6.58556e-07
6.58404e-07
6.58269e-07
6.58156e-07
6.58052e-07
6.57947e-07
6.57866e-07
6.57789e-07
6.57722e-07
6.57659e-07
6.57599e-07
6.57545e-07
6.57503e-07
6.57465e-07
6.57428e-07
6.57391e-07
)
;
    }
    inandouthalf22
    {
        type            cyclic;
        value           nonuniform List<scalar> 
100
(
-3.32465e-10
-3.33141e-10
-3.33824e-10
-3.34516e-10
-3.35216e-10
-3.35926e-10
-3.36645e-10
-3.37376e-10
-3.3812e-10
-3.38881e-10
-3.39662e-10
-3.40468e-10
-3.41304e-10
-3.42176e-10
-3.43092e-10
-3.44059e-10
-3.45085e-10
-3.46176e-10
-3.47339e-10
-3.48581e-10
-3.49906e-10
-3.51321e-10
-3.52829e-10
-3.54435e-10
-3.56146e-10
-3.57968e-10
-3.59904e-10
-3.61958e-10
-3.64123e-10
-3.66384e-10
-3.68715e-10
-3.71095e-10
-3.73519e-10
-3.76012e-10
-3.78621e-10
-3.81389e-10
-3.84317e-10
-3.87378e-10
-3.90518e-10
-3.9362e-10
-3.96392e-10
-3.98506e-10
-4.00256e-10
-4.02001e-10
-4.03878e-10
-4.06081e-10
-4.0879e-10
-4.12582e-10
-5.51979e-10
-1.28447e-07
-4.38019e-07
-7.88224e-07
-1.04992e-06
-1.19959e-06
-1.2686e-06
-1.29371e-06
-1.27922e-06
-1.22719e-06
-1.13505e-06
-1.00287e-06
-8.61817e-07
-7.62297e-07
-7.14631e-07
-6.94997e-07
-6.85313e-07
-6.79301e-07
-6.74883e-07
-6.71569e-07
-6.69027e-07
-6.67048e-07
-6.65502e-07
-6.64267e-07
-6.63276e-07
-6.62469e-07
-6.6179e-07
-6.61213e-07
-6.60735e-07
-6.60324e-07
-6.5995e-07
-6.59644e-07
-6.59364e-07
-6.59124e-07
-6.5891e-07
-6.58723e-07
-6.58556e-07
-6.58404e-07
-6.58269e-07
-6.58156e-07
-6.58052e-07
-6.57947e-07
-6.57866e-07
-6.57789e-07
-6.57722e-07
-6.57659e-07
-6.57599e-07
-6.57545e-07
-6.57503e-07
-6.57465e-07
-6.57428e-07
-6.57391e-07
)
;
    }
    inandouthalf31
    {
        type            cyclic;
        value           nonuniform List<scalar> 
110
(
6.57358e-07
6.70671e-07
6.8426e-07
6.98128e-07
7.12273e-07
7.26703e-07
7.41429e-07
7.56463e-07
7.71802e-07
7.87448e-07
8.03412e-07
8.19707e-07
8.36333e-07
8.53294e-07
8.70599e-07
8.88262e-07
9.06283e-07
9.24668e-07
9.43426e-07
9.62568e-07
9.821e-07
1.00203e-06
1.02236e-06
1.04311e-06
1.06427e-06
1.08587e-06
1.10791e-06
1.13039e-06
1.15333e-06
1.17674e-06
1.20062e-06
1.22499e-06
1.24985e-06
1.27522e-06
1.3011e-06
1.32751e-06
1.35445e-06
1.38194e-06
1.40999e-06
1.43861e-06
1.46781e-06
1.4976e-06
1.528e-06
1.55901e-06
1.59066e-06
1.62294e-06
1.65588e-06
1.68949e-06
1.72379e-06
1.75877e-06
1.79447e-06
1.8309e-06
1.86806e-06
1.90597e-06
1.94466e-06
1.98413e-06
2.0244e-06
2.06549e-06
2.10742e-06
2.15019e-06
2.19384e-06
2.23837e-06
2.2838e-06
2.33015e-06
2.37745e-06
2.42571e-06
2.47494e-06
2.52518e-06
2.57643e-06
2.62872e-06
2.68208e-06
2.73652e-06
2.79206e-06
2.84873e-06
2.90656e-06
2.96555e-06
3.02574e-06
3.08716e-06
3.14982e-06
3.21375e-06
3.27898e-06
3.34554e-06
3.41344e-06
3.48273e-06
3.55342e-06
3.62554e-06
3.69913e-06
3.77421e-06
3.85082e-06
3.92898e-06
4.00873e-06
4.0901e-06
4.17311e-06
4.25782e-06
4.34424e-06
4.43242e-06
4.52238e-06
4.61418e-06
4.70783e-06
4.80339e-06
4.90088e-06
5.00036e-06
5.10185e-06
5.20541e-06
5.31106e-06
5.41886e-06
5.52885e-06
5.64107e-06
5.75557e-06
5.87239e-06
)
;
    }
    inandouthalf32
    {
        type            cyclic;
        value           nonuniform List<scalar> 
110
(
-6.57358e-07
-6.70671e-07
-6.8426e-07
-6.98128e-07
-7.12273e-07
-7.26703e-07
-7.41429e-07
-7.56463e-07
-7.71802e-07
-7.87448e-07
-8.03412e-07
-8.19707e-07
-8.36333e-07
-8.53294e-07
-8.70599e-07
-8.88262e-07
-9.06283e-07
-9.24668e-07
-9.43426e-07
-9.62568e-07
-9.821e-07
-1.00203e-06
-1.02236e-06
-1.04311e-06
-1.06427e-06
-1.08587e-06
-1.10791e-06
-1.13039e-06
-1.15333e-06
-1.17674e-06
-1.20062e-06
-1.22499e-06
-1.24985e-06
-1.27522e-06
-1.3011e-06
-1.32751e-06
-1.35445e-06
-1.38194e-06
-1.40999e-06
-1.43861e-06
-1.46781e-06
-1.4976e-06
-1.528e-06
-1.55901e-06
-1.59066e-06
-1.62294e-06
-1.65588e-06
-1.68949e-06
-1.72379e-06
-1.75877e-06
-1.79447e-06
-1.8309e-06
-1.86806e-06
-1.90597e-06
-1.94466e-06
-1.98413e-06
-2.0244e-06
-2.06549e-06
-2.10742e-06
-2.15019e-06
-2.19384e-06
-2.23837e-06
-2.2838e-06
-2.33015e-06
-2.37745e-06
-2.42571e-06
-2.47494e-06
-2.52518e-06
-2.57643e-06
-2.62872e-06
-2.68208e-06
-2.73652e-06
-2.79206e-06
-2.84873e-06
-2.90656e-06
-2.96555e-06
-3.02574e-06
-3.08716e-06
-3.14982e-06
-3.21375e-06
-3.27898e-06
-3.34554e-06
-3.41344e-06
-3.48273e-06
-3.55342e-06
-3.62554e-06
-3.69913e-06
-3.77421e-06
-3.85082e-06
-3.92898e-06
-4.00873e-06
-4.0901e-06
-4.17311e-06
-4.25782e-06
-4.34424e-06
-4.43242e-06
-4.52238e-06
-4.61418e-06
-4.70783e-06
-4.80339e-06
-4.90088e-06
-5.00036e-06
-5.10185e-06
-5.20541e-06
-5.31106e-06
-5.41886e-06
-5.52885e-06
-5.64107e-06
-5.75557e-06
-5.87239e-06
)
;
    }
    inandouthalf41
    {
        type            cyclic;
        value           nonuniform List<scalar> 
50
(
5.25639e-06
5.25639e-06
5.25639e-06
5.25639e-06
5.25639e-06
5.25639e-06
5.25639e-06
5.25639e-06
5.25639e-06
5.25639e-06
5.25639e-06
5.25639e-06
5.25639e-06
5.25639e-06
5.25639e-06
5.25639e-06
5.25639e-06
5.25639e-06
5.25639e-06
5.25639e-06
5.25639e-06
5.25639e-06
5.25639e-06
5.25639e-06
5.25639e-06
5.25639e-06
5.25639e-06
5.25639e-06
5.25639e-06
5.25639e-06
5.25639e-06
5.25639e-06
5.25639e-06
5.25639e-06
5.25639e-06
5.25639e-06
5.25639e-06
5.25639e-06
5.25639e-06
5.25639e-06
5.25639e-06
5.25639e-06
5.25639e-06
5.25639e-06
5.25639e-06
5.25639e-06
5.25639e-06
5.25639e-06
5.25639e-06
5.25639e-06
)
;
    }
    inandouthalf42
    {
        type            cyclic;
        value           nonuniform List<scalar> 
50
(
-5.25639e-06
-5.25639e-06
-5.25639e-06
-5.25639e-06
-5.25639e-06
-5.25639e-06
-5.25639e-06
-5.25639e-06
-5.25639e-06
-5.25639e-06
-5.25639e-06
-5.25639e-06
-5.25639e-06
-5.25639e-06
-5.25639e-06
-5.25639e-06
-5.25639e-06
-5.25639e-06
-5.25639e-06
-5.25639e-06
-5.25639e-06
-5.25639e-06
-5.25639e-06
-5.25639e-06
-5.25639e-06
-5.25639e-06
-5.25639e-06
-5.25639e-06
-5.25639e-06
-5.25639e-06
-5.25639e-06
-5.25639e-06
-5.25639e-06
-5.25639e-06
-5.25639e-06
-5.25639e-06
-5.25639e-06
-5.25639e-06
-5.25639e-06
-5.25639e-06
-5.25639e-06
-5.25639e-06
-5.25639e-06
-5.25639e-06
-5.25639e-06
-5.25639e-06
-5.25639e-06
-5.25639e-06
-5.25639e-06
-5.25639e-06
)
;
    }
    top
    {
        type            symmetryPlane;
        value           uniform 0;
    }
    walls
    {
        type            calculated;
        value           uniform 0;
    }
    frontAndBackPlanes
    {
        type            empty;
        value           nonuniform 0();
    }
}


// ************************************************************************* //
