/*--------------------------------*- C++ -*----------------------------------*\
| =========                 |                                                 |
| \\      /  F ield         | OpenFOAM: The Open Source CFD Toolbox           |
|  \\    /   O peration     | Version:  2.4.x                                 |
|   \\  /    A nd           | Web:      www.OpenFOAM.org                      |
|    \\/     M anipulation  |                                                 |
\*---------------------------------------------------------------------------*/
FoamFile
{
    version     2.0;
    format      ascii;
    class       volScalarField;
    location    "2";
    object      ddt0(((1.5*(alpha+1e-08))*rho),Theta);
}
// * * * * * * * * * * * * * * * * * * * * * * * * * * * * * * * * * * * * * //

dimensions      [1 -1 -3 0 0 0 0];

internalField   nonuniform List<scalar> 
360
(
8.39495e-24
8.40928e-24
8.40936e-24
8.40938e-24
8.40939e-24
8.40954e-24
8.40952e-24
8.4097e-24
8.40963e-24
8.40973e-24
8.40988e-24
8.40992e-24
8.41006e-24
8.41018e-24
8.4103e-24
8.41044e-24
8.41055e-24
8.41068e-24
8.41075e-24
8.41107e-24
8.41113e-24
8.41138e-24
8.4117e-24
8.41194e-24
8.41219e-24
8.41241e-24
8.41271e-24
8.41308e-24
8.41347e-24
8.41386e-24
8.41426e-24
8.41473e-24
8.41513e-24
8.41573e-24
8.41627e-24
8.41694e-24
8.41755e-24
8.41833e-24
8.41922e-24
8.41996e-24
8.42101e-24
8.42198e-24
8.42302e-24
8.42434e-24
8.4256e-24
8.42698e-24
8.42852e-24
8.43006e-24
8.43184e-24
8.43391e-24
8.43592e-24
8.4383e-24
8.44064e-24
8.44333e-24
8.44621e-24
8.44936e-24
8.45268e-24
8.4564e-24
8.46043e-24
8.46462e-24
8.46934e-24
8.47442e-24
8.4799e-24
8.48581e-24
8.49226e-24
8.49914e-24
8.50675e-24
8.51519e-24
5.55034e-20
2.78018e-18
2.04442e-17
3.64674e-17
9.88916e-18
-1.21105e-17
-1.12105e-17
-6.69497e-18
-4.08028e-18
-2.84273e-18
-2.24764e-18
-1.91498e-18
-1.66848e-18
-1.44901e-18
-1.26993e-18
-1.16768e-18
-1.1599e-18
-1.23579e-18
-1.36979e-18
-1.53459e-18
-1.70514e-18
-1.85798e-18
-1.97167e-18
-2.03124e-18
-2.03304e-18
-1.98534e-18
-1.90466e-18
-1.80954e-18
-1.71503e-18
-1.62983e-18
-1.55639e-18
-1.49243e-18
0
0
0
0
0
0
0
0
0
0
0
0
0
0
0
-2.02009e-18
-2.38445e-18
-2.78668e-18
-3.21271e-18
-3.6477e-18
-4.07828e-18
-4.49452e-18
-4.89095e-18
-5.26545e-18
-5.61543e-18
-5.93118e-18
-6.18761e-18
-6.33976e-18
-6.33109e-18
-6.12341e-18
-5.73956e-18
-5.28197e-18
-4.89335e-18
-4.67613e-18
-4.62227e-18
-4.59791e-18
-4.42304e-18
-3.99336e-18
-3.26933e-18
-2.22798e-18
-1.11072e-18
-5.83824e-19
-3.75129e-18
1.47952e-14
7.51397e-13
-2.69264e-10
-3.21955e-06
-0.00157767
-0.0831696
-1.80038
-3.15916
0.339627
1.44747
1.98692
2.15883
1.99625
1.56964
1.01835
0.529864
0.223454
0.0822639
0.0304683
0.0142351
0.00853634
0.00611655
0.00458926
0.00357093
0.00293655
0.00235023
0.00200997
0.00165068
0.00144492
0.0011968
0.00106615
0.000900834
0.000804678
0.000680602
0.000618512
0.000531231
0.000469651
0.000420653
0.000363427
0.000331544
0.000285809
0.000262272
0.000226263
0.000206661
0.000179714
0.000166029
0.00014422
0.000128543
0.000117204
0.000102832
9.49281e-05
8.20261e-05
7.46318e-05
6.53086e-05
6.06613e-05
5.39056e-05
4.92284e-05
4.20382e-05
3.79122e-05
3.35734e-05
3.13298e-05
2.81908e-05
2.40417e-05
2.07728e-05
1.8523e-05
1.71549e-05
1.50135e-05
1.25591e-05
1.10538e-05
1.01318e-05
8.73766e-06
7.11262e-06
6.29574e-06
5.74371e-06
4.92881e-06
3.95777e-06
3.38998e-06
3.0418e-06
2.56147e-06
2.07875e-06
1.82887e-06
1.55353e-06
1.22278e-06
1.0607e-06
9.18992e-07
7.22299e-07
5.97567e-07
5.18975e-07
4.14451e-07
3.3264e-07
2.81393e-07
2.21811e-07
1.86157e-07
1.43626e-07
1.18018e-07
9.54306e-08
7.82339e-08
6.09364e-08
4.17178e-08
2.08544e-62
-3.11642e-260
0
0
0
0
0
0
0
0
0
0
0
0
0
0
0
0
0
0
0
0
0
0
0
0
0
0
0
0
0
0
0
0
0
0
0
0
0
0
0
0
0
0
0
0
0
0
0
0
0
0
0
0
0
0
0
0
0
0
0
0
0
0
0
0
0
0
0
0
0
0
0
0
0
0
0
0
0
0
0
0
0
0
0
0
0
0
0
0
0
0
0
0
0
0
0
0
0
0
0
0
0
0
0
0
0
0
0
0
0
0
0
0
0
0
0
0
)
;

boundaryField
{
    inandouthalf11
    {
        type            cyclic;
    }
    inandouthalf12
    {
        type            cyclic;
    }
    inandouthalf21
    {
        type            cyclic;
    }
    inandouthalf22
    {
        type            cyclic;
    }
    inandouthalf31
    {
        type            cyclic;
    }
    inandouthalf32
    {
        type            cyclic;
    }
    inandouthalf41
    {
        type            cyclic;
    }
    inandouthalf42
    {
        type            cyclic;
    }
    top
    {
        type            symmetryPlane;
    }
    walls
    {
        type            calculated;
        value           uniform 8.39495e-24;
    }
    frontAndBackPlanes
    {
        type            empty;
    }
}


// ************************************************************************* //
