/*--------------------------------*- C++ -*----------------------------------*\
| =========                 |                                                 |
| \\      /  F ield         | OpenFOAM: The Open Source CFD Toolbox           |
|  \\    /   O peration     | Version:  2.4.x                                 |
|   \\  /    A nd           | Web:      www.OpenFOAM.org                      |
|    \\/     M anipulation  |                                                 |
\*---------------------------------------------------------------------------*/
FoamFile
{
    version     2.0;
    format      ascii;
    class       surfaceScalarField;
    location    "2";
    object      ddt0(phia);
}
// * * * * * * * * * * * * * * * * * * * * * * * * * * * * * * * * * * * * * //

dimensions      [0 3 -2 0 0 0 0];

internalField   nonuniform List<scalar> 
359
(
-5.7412e-41
-5.74254e-41
-5.74524e-41
-5.75012e-41
-5.7574e-41
-5.76741e-41
-5.78045e-41
-5.7968e-41
-5.8167e-41
-5.8404e-41
-5.86807e-41
-5.89985e-41
-5.93586e-41
-5.97616e-41
-6.0208e-41
-6.06974e-41
-6.12295e-41
-6.18035e-41
-6.24188e-41
-6.30755e-41
-6.3772e-41
-6.45087e-41
-6.52848e-41
-6.60998e-41
-6.69531e-41
-6.78447e-41
-6.87749e-41
-6.97458e-41
-7.07584e-41
-7.18137e-41
-7.29129e-41
-7.40588e-41
-7.5252e-41
-7.64975e-41
-7.7796e-41
-7.91516e-41
-8.05672e-41
-8.20474e-41
-8.35969e-41
-8.52162e-41
-8.69111e-41
-8.8684e-41
-9.05383e-41
-9.24819e-41
-9.45208e-41
-9.66645e-41
-9.89285e-41
-1.01333e-40
-1.03921e-40
-1.06752e-40
-1.09923e-40
-1.13582e-40
-1.18006e-40
-1.23634e-40
-1.31369e-40
-1.42831e-40
-1.61888e-40
-1.9684e-40
-2.7263e-40
-4.67801e-40
-1.16486e-39
-4.29512e-39
-2.52215e-38
-2.76269e-37
-5.73082e-35
-2.99148e-31
-5.15713e-26
-2.6437e-18
-3.60642e-12
-2.48731e-11
-7.00068e-11
-1.10416e-10
-1.191e-10
-1.0516e-10
-8.68132e-11
-7.1493e-11
-5.9708e-11
-5.04637e-11
-4.2979e-11
-3.6828e-11
-3.17788e-11
-2.76297e-11
-2.41335e-11
-2.09986e-11
-1.793e-11
-1.46738e-11
-1.10434e-11
-6.9334e-12
-2.32058e-12
2.74166e-12
8.13712e-12
1.37119e-11
1.93071e-11
2.47877e-11
3.00617e-11
3.50844e-11
3.98497e-11
4.43745e-11
4.86832e-11
5.27956e-11
5.67208e-11
6.0456e-11
6.39904e-11
6.73105e-11
7.0406e-11
7.32763e-11
7.59349e-11
7.84127e-11
8.07602e-11
8.30474e-11
8.53619e-11
8.78058e-11
9.04903e-11
9.3529e-11
9.70314e-11
1.01095e-10
1.05801e-10
1.11207e-10
1.17347e-10
1.24233e-10
1.31858e-10
1.40203e-10
1.4924e-10
1.58938e-10
1.69257e-10
1.80137e-10
1.91475e-10
2.03103e-10
2.1478e-10
2.26226e-10
2.37196e-10
2.47581e-10
2.57467e-10
2.67088e-10
2.76679e-10
2.86281e-10
2.95645e-10
3.04317e-10
3.11761e-10
3.17427e-10
3.20981e-10
3.22625e-10
3.23268e-10
3.23464e-10
3.23468e-10
3.23438e-10
3.23427e-10
3.23408e-10
6.31008e-10
3.80741e-09
2.17953e-09
-3.01266e-08
-6.24885e-08
-8.92225e-08
-1.07599e-07
-1.1697e-07
-1.14627e-07
-9.7702e-08
-6.90944e-08
-3.32159e-08
3.45661e-11
1.43854e-08
2.03561e-08
2.4106e-08
2.65768e-08
2.85859e-08
3.029e-08
3.18574e-08
3.32837e-08
3.46095e-08
3.58322e-08
3.69807e-08
3.8044e-08
3.90504e-08
3.99862e-08
4.08723e-08
4.17036e-08
4.24965e-08
4.32356e-08
4.39456e-08
4.46157e-08
4.52522e-08
4.58614e-08
4.64402e-08
4.69968e-08
4.75208e-08
4.80278e-08
4.85178e-08
4.89871e-08
4.94217e-08
4.98557e-08
5.02726e-08
5.06717e-08
5.10513e-08
5.14014e-08
5.17451e-08
5.2095e-08
5.24395e-08
5.27524e-08
5.30285e-08
5.32762e-08
5.35436e-08
5.38454e-08
5.4145e-08
5.43788e-08
5.45686e-08
5.47875e-08
5.50577e-08
5.53125e-08
5.54875e-08
5.56513e-08
5.58795e-08
5.60902e-08
5.61966e-08
5.63222e-08
5.65388e-08
5.67333e-08
5.68016e-08
5.68338e-08
5.69598e-08
5.70805e-08
5.70912e-08
5.71279e-08
5.71803e-08
5.71062e-08
5.70517e-08
5.70724e-08
5.69807e-08
5.67744e-08
5.66388e-08
5.64715e-08
5.61534e-08
5.58158e-08
5.54643e-08
5.50429e-08
5.45457e-08
5.40218e-08
5.35977e-08
5.33854e-08
5.33151e-08
5.33495e-08
5.34939e-08
2.64112e-08
-4.51055e-10
3.65367e-10
3.57496e-10
3.59453e-10
3.57959e-10
3.59425e-10
3.57932e-10
3.59421e-10
3.57926e-10
3.59401e-10
3.57941e-10
3.59367e-10
3.57972e-10
3.59323e-10
3.5803e-10
3.59232e-10
3.58119e-10
3.59141e-10
3.58196e-10
3.59086e-10
3.58247e-10
3.59028e-10
3.583e-10
3.58974e-10
3.58353e-10
3.58921e-10
3.58404e-10
3.58871e-10
3.58451e-10
3.58825e-10
3.58495e-10
3.58783e-10
3.58533e-10
3.58747e-10
3.58567e-10
3.58715e-10
3.58595e-10
3.5869e-10
3.58617e-10
3.58669e-10
3.58635e-10
3.58654e-10
3.58647e-10
3.58644e-10
3.58655e-10
3.58637e-10
3.58659e-10
3.58635e-10
3.58659e-10
3.58635e-10
3.58657e-10
3.58638e-10
3.58653e-10
3.58643e-10
3.58647e-10
3.58649e-10
3.5864e-10
3.58656e-10
3.58633e-10
3.58664e-10
3.58625e-10
3.58671e-10
3.58618e-10
3.58678e-10
3.58612e-10
3.58684e-10
3.58606e-10
3.58688e-10
3.58602e-10
3.58692e-10
3.586e-10
3.58694e-10
3.58598e-10
3.58695e-10
3.58598e-10
3.58695e-10
3.58598e-10
3.58693e-10
3.586e-10
3.58691e-10
3.58602e-10
3.58688e-10
3.58605e-10
3.58685e-10
3.58608e-10
3.58681e-10
3.58611e-10
3.58676e-10
3.58614e-10
3.58671e-10
3.58616e-10
3.58666e-10
3.58618e-10
3.5866e-10
3.58619e-10
3.58654e-10
3.58619e-10
3.58648e-10
3.58617e-10
3.58641e-10
3.58613e-10
3.58634e-10
3.58606e-10
3.58616e-10
3.5859e-10
3.58619e-10
3.58599e-10
3.58614e-10
3.58592e-10
3.58609e-10
3.58589e-10
3.58601e-10
3.58598e-10
3.58805e-10
3.6312e-10
5.59402e-10
)
;

boundaryField
{
    inandouthalf11
    {
        type            cyclic;
        value           nonuniform List<scalar> 
100
(
7.18708e-43
7.18925e-43
7.19488e-43
7.20734e-43
7.22735e-43
7.25571e-43
7.29316e-43
7.34035e-43
7.39791e-43
7.46639e-43
7.5463e-43
7.638e-43
7.74178e-43
7.85789e-43
7.98648e-43
8.1276e-43
8.28119e-43
8.44718e-43
8.62547e-43
8.81601e-43
9.0187e-43
9.23343e-43
9.46018e-43
9.69884e-43
9.94929e-43
1.02114e-42
1.04854e-42
1.07713e-42
1.10696e-42
1.13805e-42
1.17043e-42
1.20413e-42
1.2392e-42
1.2757e-42
1.3137e-42
1.35327e-42
1.3945e-42
1.43749e-42
1.48237e-42
1.52923e-42
1.57818e-42
1.62935e-42
1.68288e-42
1.73894e-42
1.79777e-42
1.8596e-42
1.92473e-42
1.9936e-42
2.06681e-42
2.14537e-42
2.23051e-42
2.32428e-42
2.42945e-42
2.55149e-42
2.69832e-42
2.88722e-42
3.14732e-42
3.55074e-42
4.24579e-42
5.6912e-42
9.31825e-42
2.19239e-41
7.66694e-41
4.3361e-40
4.60502e-39
8.4368e-37
3.95722e-33
5.95904e-28
2.63293e-20
5.37425e-14
3.55e-13
1.02427e-12
1.86463e-12
2.61476e-12
3.18857e-12
3.61959e-12
3.9643e-12
4.26746e-12
4.55984e-12
4.86191e-12
5.18581e-12
5.53582e-12
5.90915e-12
6.2984e-12
6.69547e-12
7.09481e-12
7.49469e-12
7.8965e-12
8.30314e-12
8.71751e-12
9.14141e-12
9.57509e-12
1.00174e-11
1.04665e-11
1.09204e-11
1.13776e-11
1.18374e-11
1.22998e-11
1.27653e-11
1.32346e-11
)
;
    }
    inandouthalf12
    {
        type            cyclic;
        value           nonuniform List<scalar> 
100
(
-7.18708e-43
-7.18925e-43
-7.19488e-43
-7.20734e-43
-7.22735e-43
-7.25571e-43
-7.29316e-43
-7.34035e-43
-7.39791e-43
-7.46639e-43
-7.5463e-43
-7.638e-43
-7.74178e-43
-7.85789e-43
-7.98648e-43
-8.1276e-43
-8.28119e-43
-8.44718e-43
-8.62547e-43
-8.81601e-43
-9.0187e-43
-9.23343e-43
-9.46018e-43
-9.69884e-43
-9.94929e-43
-1.02114e-42
-1.04854e-42
-1.07713e-42
-1.10696e-42
-1.13805e-42
-1.17043e-42
-1.20413e-42
-1.2392e-42
-1.2757e-42
-1.3137e-42
-1.35327e-42
-1.3945e-42
-1.43749e-42
-1.48237e-42
-1.52923e-42
-1.57818e-42
-1.62935e-42
-1.68288e-42
-1.73894e-42
-1.79777e-42
-1.8596e-42
-1.92473e-42
-1.9936e-42
-2.06681e-42
-2.14537e-42
-2.23051e-42
-2.32428e-42
-2.42945e-42
-2.55149e-42
-2.69832e-42
-2.88722e-42
-3.14732e-42
-3.55074e-42
-4.24579e-42
-5.6912e-42
-9.31825e-42
-2.19239e-41
-7.66694e-41
-4.3361e-40
-4.60502e-39
-8.4368e-37
-3.95722e-33
-5.95904e-28
-2.63293e-20
-5.37425e-14
-3.55e-13
-1.02427e-12
-1.86463e-12
-2.61476e-12
-3.18857e-12
-3.61959e-12
-3.9643e-12
-4.26746e-12
-4.55984e-12
-4.86191e-12
-5.18581e-12
-5.53582e-12
-5.90915e-12
-6.2984e-12
-6.69547e-12
-7.09481e-12
-7.49469e-12
-7.8965e-12
-8.30314e-12
-8.71751e-12
-9.14141e-12
-9.57509e-12
-1.00174e-11
-1.04665e-11
-1.09204e-11
-1.13776e-11
-1.18374e-11
-1.22998e-11
-1.27653e-11
-1.32346e-11
)
;
    }
    inandouthalf21
    {
        type            cyclic;
        value           nonuniform List<scalar> 
100
(
1.37082e-11
1.41868e-11
1.46706e-11
1.51599e-11
1.56551e-11
1.61567e-11
1.66653e-11
1.71822e-11
1.77093e-11
1.82489e-11
1.88043e-11
1.93796e-11
1.99795e-11
2.06095e-11
2.12757e-11
2.19843e-11
2.27418e-11
2.35543e-11
2.44276e-11
2.53669e-11
2.63769e-11
2.7462e-11
2.86265e-11
2.98752e-11
3.12133e-11
3.26461e-11
3.41769e-11
3.58046e-11
3.75201e-11
3.93046e-11
4.11334e-11
4.2986e-11
4.48605e-11
4.67811e-11
4.87908e-11
5.09261e-11
5.31888e-11
5.55333e-11
5.78686e-11
6.00367e-11
6.18048e-11
6.30093e-11
6.37312e-11
6.41448e-11
6.43708e-11
6.44879e-11
6.45666e-11
6.46579e-11
6.4914e-11
1.27517e-07
4.19191e-07
7.05112e-07
9.46712e-07
1.12706e-06
1.24414e-06
1.29912e-06
1.28814e-06
1.20911e-06
1.07583e-06
9.3263e-07
8.31091e-07
7.82099e-07
7.61922e-07
7.52064e-07
7.45931e-07
7.4152e-07
7.38153e-07
7.35387e-07
7.33023e-07
7.30928e-07
7.29001e-07
7.27201e-07
7.25478e-07
7.23821e-07
7.22198e-07
7.20606e-07
7.19032e-07
7.17488e-07
7.15941e-07
7.14407e-07
7.1289e-07
7.11369e-07
7.09864e-07
7.08364e-07
7.06885e-07
7.05396e-07
7.03909e-07
7.02457e-07
7.01044e-07
6.99585e-07
6.98138e-07
6.9676e-07
6.95393e-07
6.94053e-07
6.92679e-07
6.91294e-07
6.90001e-07
6.88826e-07
6.87684e-07
6.86499e-07
)
;
    }
    inandouthalf22
    {
        type            cyclic;
        value           nonuniform List<scalar> 
100
(
-1.37082e-11
-1.41868e-11
-1.46706e-11
-1.51599e-11
-1.56551e-11
-1.61567e-11
-1.66653e-11
-1.71822e-11
-1.77093e-11
-1.82489e-11
-1.88043e-11
-1.93796e-11
-1.99795e-11
-2.06095e-11
-2.12757e-11
-2.19843e-11
-2.27418e-11
-2.35543e-11
-2.44276e-11
-2.53669e-11
-2.63769e-11
-2.7462e-11
-2.86265e-11
-2.98752e-11
-3.12133e-11
-3.26461e-11
-3.41769e-11
-3.58046e-11
-3.75201e-11
-3.93046e-11
-4.11334e-11
-4.2986e-11
-4.48605e-11
-4.67811e-11
-4.87908e-11
-5.09261e-11
-5.31888e-11
-5.55333e-11
-5.78686e-11
-6.00367e-11
-6.18048e-11
-6.30093e-11
-6.37312e-11
-6.41448e-11
-6.43708e-11
-6.44879e-11
-6.45666e-11
-6.46579e-11
-6.4914e-11
-1.27517e-07
-4.19191e-07
-7.05112e-07
-9.46712e-07
-1.12706e-06
-1.24414e-06
-1.29912e-06
-1.28814e-06
-1.20911e-06
-1.07583e-06
-9.3263e-07
-8.31091e-07
-7.82099e-07
-7.61922e-07
-7.52064e-07
-7.45931e-07
-7.4152e-07
-7.38153e-07
-7.35387e-07
-7.33023e-07
-7.30928e-07
-7.29001e-07
-7.27201e-07
-7.25478e-07
-7.23821e-07
-7.22198e-07
-7.20606e-07
-7.19032e-07
-7.17488e-07
-7.15941e-07
-7.14407e-07
-7.1289e-07
-7.11369e-07
-7.09864e-07
-7.08364e-07
-7.06885e-07
-7.05396e-07
-7.03909e-07
-7.02457e-07
-7.01044e-07
-6.99585e-07
-6.98138e-07
-6.9676e-07
-6.95393e-07
-6.94053e-07
-6.92679e-07
-6.91294e-07
-6.90001e-07
-6.88826e-07
-6.87684e-07
-6.86499e-07
)
;
    }
    inandouthalf31
    {
        type            cyclic;
        value           nonuniform List<scalar> 
110
(
6.85238e-07
6.97881e-07
7.10947e-07
7.24445e-07
7.38131e-07
7.51826e-07
7.6575e-07
7.80205e-07
7.95152e-07
8.10206e-07
8.25299e-07
8.409e-07
8.57097e-07
8.73307e-07
8.89566e-07
9.06547e-07
9.24205e-07
9.4188e-07
9.59436e-07
9.77601e-07
9.96571e-07
1.01557e-06
1.03475e-06
1.05471e-06
1.0748e-06
1.09495e-06
1.11605e-06
1.13765e-06
1.15898e-06
1.18084e-06
1.20361e-06
1.22631e-06
1.24919e-06
1.27276e-06
1.29672e-06
1.32098e-06
1.34561e-06
1.37098e-06
1.39779e-06
1.42615e-06
1.45558e-06
1.48626e-06
1.51848e-06
1.52684e-06
1.57631e-06
1.60831e-06
1.64095e-06
1.67426e-06
1.70824e-06
1.74291e-06
1.77829e-06
1.81438e-06
1.85121e-06
1.88879e-06
1.92712e-06
1.96624e-06
2.00615e-06
2.04687e-06
2.08841e-06
2.1308e-06
2.17405e-06
2.21818e-06
2.2632e-06
2.30914e-06
2.35601e-06
2.40383e-06
2.45262e-06
2.5024e-06
2.55319e-06
2.60502e-06
2.65789e-06
2.71184e-06
2.76688e-06
2.82304e-06
2.88034e-06
2.93881e-06
2.99846e-06
3.05932e-06
3.12141e-06
3.18477e-06
3.24941e-06
3.31537e-06
3.38266e-06
3.45132e-06
3.52137e-06
3.59285e-06
3.66577e-06
3.74018e-06
3.81609e-06
3.89355e-06
3.97258e-06
4.05321e-06
4.13548e-06
4.21942e-06
4.30506e-06
4.39244e-06
4.4816e-06
4.57256e-06
4.66537e-06
4.76007e-06
4.85668e-06
4.95526e-06
5.05584e-06
5.15846e-06
5.26316e-06
5.36999e-06
5.47899e-06
5.5902e-06
5.70366e-06
5.81943e-06
)
;
    }
    inandouthalf32
    {
        type            cyclic;
        value           nonuniform List<scalar> 
110
(
-6.85238e-07
-6.97881e-07
-7.10947e-07
-7.24445e-07
-7.38131e-07
-7.51826e-07
-7.6575e-07
-7.80205e-07
-7.95152e-07
-8.10206e-07
-8.25299e-07
-8.409e-07
-8.57097e-07
-8.73307e-07
-8.89566e-07
-9.06547e-07
-9.24205e-07
-9.4188e-07
-9.59436e-07
-9.77601e-07
-9.96571e-07
-1.01557e-06
-1.03475e-06
-1.05471e-06
-1.0748e-06
-1.09495e-06
-1.11605e-06
-1.13765e-06
-1.15898e-06
-1.18084e-06
-1.20361e-06
-1.22631e-06
-1.24919e-06
-1.27276e-06
-1.29672e-06
-1.32098e-06
-1.34561e-06
-1.37098e-06
-1.39779e-06
-1.42615e-06
-1.45558e-06
-1.48626e-06
-1.51848e-06
-1.52684e-06
-1.57631e-06
-1.60831e-06
-1.64095e-06
-1.67426e-06
-1.70824e-06
-1.74291e-06
-1.77829e-06
-1.81438e-06
-1.85121e-06
-1.88879e-06
-1.92712e-06
-1.96624e-06
-2.00615e-06
-2.04687e-06
-2.08841e-06
-2.1308e-06
-2.17405e-06
-2.21818e-06
-2.2632e-06
-2.30914e-06
-2.35601e-06
-2.40383e-06
-2.45262e-06
-2.5024e-06
-2.55319e-06
-2.60502e-06
-2.65789e-06
-2.71184e-06
-2.76688e-06
-2.82304e-06
-2.88034e-06
-2.93881e-06
-2.99846e-06
-3.05932e-06
-3.12141e-06
-3.18477e-06
-3.24941e-06
-3.31537e-06
-3.38266e-06
-3.45132e-06
-3.52137e-06
-3.59285e-06
-3.66577e-06
-3.74018e-06
-3.81609e-06
-3.89355e-06
-3.97258e-06
-4.05321e-06
-4.13548e-06
-4.21942e-06
-4.30506e-06
-4.39244e-06
-4.4816e-06
-4.57256e-06
-4.66537e-06
-4.76007e-06
-4.85668e-06
-4.95526e-06
-5.05584e-06
-5.15846e-06
-5.26316e-06
-5.36999e-06
-5.47899e-06
-5.5902e-06
-5.70366e-06
-5.81943e-06
)
;
    }
    inandouthalf41
    {
        type            cyclic;
        value           nonuniform List<scalar> 
50
(
5.20899e-06
5.20899e-06
5.20899e-06
5.20899e-06
5.20899e-06
5.20899e-06
5.20899e-06
5.20899e-06
5.20899e-06
5.20899e-06
5.20899e-06
5.20899e-06
5.20899e-06
5.20899e-06
5.20899e-06
5.20899e-06
5.20899e-06
5.20899e-06
5.20899e-06
5.20899e-06
5.20899e-06
5.20899e-06
5.20899e-06
5.20899e-06
5.20899e-06
5.20899e-06
5.20899e-06
5.20899e-06
5.20899e-06
5.20899e-06
5.20899e-06
5.20899e-06
5.20899e-06
5.20899e-06
5.20899e-06
5.20899e-06
5.20899e-06
5.20899e-06
5.20899e-06
5.20899e-06
5.20899e-06
5.20899e-06
5.20899e-06
5.20899e-06
5.20899e-06
5.20899e-06
5.20899e-06
5.20897e-06
5.20865e-06
5.20112e-06
)
;
    }
    inandouthalf42
    {
        type            cyclic;
        value           nonuniform List<scalar> 
50
(
-5.20899e-06
-5.20899e-06
-5.20899e-06
-5.20899e-06
-5.20899e-06
-5.20899e-06
-5.20899e-06
-5.20899e-06
-5.20899e-06
-5.20899e-06
-5.20899e-06
-5.20899e-06
-5.20899e-06
-5.20899e-06
-5.20899e-06
-5.20899e-06
-5.20899e-06
-5.20899e-06
-5.20899e-06
-5.20899e-06
-5.20899e-06
-5.20899e-06
-5.20899e-06
-5.20899e-06
-5.20899e-06
-5.20899e-06
-5.20899e-06
-5.20899e-06
-5.20899e-06
-5.20899e-06
-5.20899e-06
-5.20899e-06
-5.20899e-06
-5.20899e-06
-5.20899e-06
-5.20899e-06
-5.20899e-06
-5.20899e-06
-5.20899e-06
-5.20899e-06
-5.20899e-06
-5.20899e-06
-5.20899e-06
-5.20899e-06
-5.20899e-06
-5.20899e-06
-5.20899e-06
-5.20897e-06
-5.20865e-06
-5.20112e-06
)
;
    }
    top
    {
        type            symmetryPlane;
        value           uniform 0;
    }
    walls
    {
        type            calculated;
        value           uniform 0;
    }
    frontAndBackPlanes
    {
        type            empty;
        value           nonuniform 0();
    }
}


// ************************************************************************* //
