/*--------------------------------*- C++ -*----------------------------------*\
| =========                 |                                                 |
| \\      /  F ield         | OpenFOAM: The Open Source CFD Toolbox           |
|  \\    /   O peration     | Version:  2.4.x                                 |
|   \\  /    A nd           | Web:      www.OpenFOAM.org                      |
|    \\/     M anipulation  |                                                 |
\*---------------------------------------------------------------------------*/
FoamFile
{
    version     2.0;
    format      ascii;
    class       volVectorField;
    location    "2";
    object      ddt0(Ub);
}
// * * * * * * * * * * * * * * * * * * * * * * * * * * * * * * * * * * * * * //

dimensions      [0 1 -2 0 0 0 0];

internalField   nonuniform List<vector> 
360
(
(-0.000312261 1.66627e-10 0)
(-0.000312793 5.02753e-10 0)
(-0.000312796 8.39888e-10 0)
(-0.000312796 1.17631e-09 0)
(-0.000312796 1.51446e-09 0)
(-0.000312799 1.85344e-09 0)
(-0.000312799 2.19295e-09 0)
(-0.000312801 2.53034e-09 0)
(-0.000312801 2.86446e-09 0)
(-0.000312804 3.19927e-09 0)
(-0.000312806 3.53806e-09 0)
(-0.000312806 3.87416e-09 0)
(-0.000312809 4.20739e-09 0)
(-0.000312812 4.54032e-09 0)
(-0.000312814 4.87529e-09 0)
(-0.000312817 5.21447e-09 0)
(-0.00031282 5.54698e-09 0)
(-0.000312822 5.87818e-09 0)
(-0.000312825 6.2105e-09 0)
(-0.00031283 6.54029e-09 0)
(-0.000312833 6.87013e-09 0)
(-0.000312838 7.20163e-09 0)
(-0.000312843 7.52958e-09 0)
(-0.000312848 7.85496e-09 0)
(-0.000312854 8.17729e-09 0)
(-0.000312859 8.50146e-09 0)
(-0.000312864 8.82775e-09 0)
(-0.000312872 9.14622e-09 0)
(-0.00031288 9.46466e-09 0)
(-0.000312888 9.78761e-09 0)
(-0.000312896 1.01078e-08 0)
(-0.000312906 1.04258e-08 0)
(-0.000312914 1.07432e-08 0)
(-0.000312927 1.10613e-08 0)
(-0.000312938 1.13761e-08 0)
(-0.000312951 1.16853e-08 0)
(-0.000312964 1.19918e-08 0)
(-0.00031298 1.22969e-08 0)
(-0.000312998 1.26013e-08 0)
(-0.000313014 1.29035e-08 0)
(-0.000313035 1.32076e-08 0)
(-0.000313056 1.35135e-08 0)
(-0.000313077 1.38127e-08 0)
(-0.000313104 1.41101e-08 0)
(-0.00031313 1.44056e-08 0)
(-0.000313159 1.47e-08 0)
(-0.00031319 1.49931e-08 0)
(-0.000313222 1.52823e-08 0)
(-0.000313259 1.55721e-08 0)
(-0.000313301 1.5859e-08 0)
(-0.000313343 1.61417e-08 0)
(-0.00031339 1.64218e-08 0)
(-0.00031344 1.67e-08 0)
(-0.000313496 1.69773e-08 0)
(-0.000313554 1.72547e-08 0)
(-0.000313619 1.7532e-08 0)
(-0.000313688 1.78082e-08 0)
(-0.000313764 1.80825e-08 0)
(-0.000313846 1.8354e-08 0)
(-0.000313933 1.86222e-08 0)
(-0.000314031 1.88877e-08 0)
(-0.000314133 1.91482e-08 0)
(-0.000314247 1.94087e-08 0)
(-0.000314368 1.96661e-08 0)
(-0.0003145 1.99226e-08 0)
(-0.000314643 1.99866e-08 0)
(-0.000314799 2.38607e-08 0)
(-0.000314968 -1.64409e-09 0)
(-0.000315115 9.04296e-08 0)
(-0.000315099 4.78866e-06 0)
(-0.000314865 1.87043e-05 0)
(-0.000314801 3.56303e-05 0)
(-0.00031537 4.48645e-05 0)
(-0.000316415 4.37593e-05 0)
(-0.000317465 3.74216e-05 0)
(-0.000318301 3.08554e-05 0)
(-0.000318939 2.55786e-05 0)
(-0.000319455 2.1484e-05 0)
(-0.000319907 1.82268e-05 0)
(-0.000320331 1.55734e-05 0)
(-0.000320753 1.33959e-05 0)
(-0.000321195 1.16094e-05 0)
(-0.000321667 1.01255e-05 0)
(-0.000322171 8.8389e-06 0)
(-0.000322702 7.63518e-06 0)
(-0.00032325 6.40777e-06 0)
(-0.000323807 5.07136e-06 0)
(-0.000324371 3.56964e-06 0)
(-0.00032494 1.87799e-06 0)
(-0.000325516 2.55324e-09 0)
(-0.000326103 -2.02361e-06 0)
(-0.0003267 -4.14803e-06 0)
(-0.00032731 -6.31005e-06 0)
(-0.000327929 -8.45268e-06 0)
(-0.000328558 -1.05319e-05 0)
(-0.000329194 -1.25213e-05 0)
(-0.000329835 -1.4411e-05 0)
(-0.000330483 -1.6203e-05 0)
(-0.000331137 -1.79053e-05 0)
(-0.000331798 -1.95267e-05 0)
(-0.000332465 -2.10725e-05 0)
(-0.000333141 -2.25441e-05 0)
(-0.000333824 -2.39388e-05 0)
(-0.000334516 -2.52519e-05 0)
(-0.000335216 -2.64789e-05 0)
(-0.000335926 -2.76177e-05 0)
(-0.000336645 -2.86707e-05 0)
(-0.000337376 -2.96466e-05 0)
(-0.00033812 -3.05611e-05 0)
(-0.000338881 -3.14375e-05 0)
(-0.000339662 -3.23063e-05 0)
(-0.000340468 -3.32039e-05 0)
(-0.000341304 -3.41714e-05 0)
(-0.000342176 -3.5252e-05 0)
(-0.000343092 -3.64886e-05 0)
(-0.000344059 -3.79208e-05 0)
(-0.000345085 -3.95828e-05 0)
(-0.000346176 -4.15007e-05 0)
(-0.000347339 -4.36921e-05 0)
(-0.000348581 -4.61653e-05 0)
(-0.000349906 -4.89208e-05 0)
(-0.000351321 -5.19529e-05 0)
(-0.000352829 -5.5252e-05 0)
(-0.000354435 -5.88063e-05 0)
(-0.000356146 -6.26013e-05 0)
(-0.000357968 -6.66172e-05 0)
(-0.000359904 -7.0822e-05 0)
(-0.000361958 -7.51636e-05 0)
(-0.000364123 -7.9564e-05 0)
(-0.000366384 -8.39237e-05 0)
(-0.000368715 -8.81419e-05 0)
(-0.000371095 -9.21506e-05 0)
(-0.000373519 -9.59436e-05 0)
(-0.000376012 -9.95806e-05 0)
(-0.000378621 -0.000103151 0)
(-0.000381389 -0.000106708 0)
(-0.000384317 -0.000110212 0)
(-0.000387378 -0.000113529 0)
(-0.000390518 -0.000116473 0)
(-0.00039362 -0.000118848 0)
(-0.000396392 -0.000120497 0)
(-0.000398506 -0.000121341 0)
(-0.000400256 -0.000121621 0)
(-0.000402001 -0.000121582 0)
(-0.000403878 -0.000121339 0)
(-0.000406081 -0.000120973 0)
(-0.00040879 -0.000120489 0)
(-0.000412582 -0.000122188 0)
(-0.000551979 -6.29617e-05 0)
(-0.128447 -0.000288786 0)
(-0.438019 0.000375487 0)
(-0.788224 -0.00110781 0)
(-1.04992 0.000666264 0)
(-1.19959 -0.000267552 0)
(-1.2686 0.000847098 0)
(-1.29371 0.000578971 0)
(-1.27922 0.000807326 0)
(-1.22719 2.3076e-05 0)
(-1.13505 0.000357237 0)
(-1.00287 -0.000299743 0)
(-0.861817 0.000113624 0)
(-0.762297 -0.000164969 0)
(-0.714631 0.000103286 0)
(-0.694997 -0.000101772 0)
(-0.685313 8.40871e-05 0)
(-0.679301 -7.67889e-05 0)
(-0.674883 6.53347e-05 0)
(-0.671569 -5.8905e-05 0)
(-0.669027 5.04175e-05 0)
(-0.667048 -4.51415e-05 0)
(-0.665502 3.85476e-05 0)
(-0.664267 -3.42679e-05 0)
(-0.663276 2.90403e-05 0)
(-0.662469 -2.55939e-05 0)
(-0.66179 2.14344e-05 0)
(-0.661213 -1.87069e-05 0)
(-0.660735 1.543e-05 0)
(-0.660324 -1.33226e-05 0)
(-0.65995 1.07825e-05 0)
(-0.659644 -9.20853e-06 0)
(-0.659364 7.28871e-06 0)
(-0.659124 -6.16354e-06 0)
(-0.65891 4.7515e-06 0)
(-0.658723 -3.98779e-06 0)
(-0.658556 2.97928e-06 0)
(-0.658404 -2.4952e-06 0)
(-0.658269 1.79726e-06 0)
(-0.658156 -1.5178e-06 0)
(-0.658052 1.05078e-06 0)
(-0.657947 -9.16685e-07 0)
(-0.657866 6.15059e-07 0)
(-0.657789 -5.72239e-07 0)
(-0.657722 3.83432e-07 0)
(-0.657659 -3.96938e-07 0)
(-0.657599 2.81324e-07 0)
(-0.657545 -3.22877e-07 0)
(-0.657503 2.55368e-07 0)
(-0.657465 -3.04674e-07 0)
(-0.657428 2.63242e-07 0)
(-0.657391 -3.13005e-07 0)
(-0.657356 2.84219e-07 0)
(-0.657326 -3.29868e-07 0)
(-0.657304 3.16725e-07 0)
(-0.657285 -3.4851e-07 0)
(-0.657261 3.35049e-07 0)
(-0.657236 -3.56415e-07 0)
(-0.657216 3.41972e-07 0)
(-0.657202 -3.46198e-07 0)
(-0.657189 3.30683e-07 0)
(-0.657173 -3.23557e-07 0)
(-0.657157 3.03011e-07 0)
(-0.657147 -2.83124e-07 0)
(-0.657138 2.61374e-07 0)
(-0.657127 -2.3293e-07 0)
(-0.657116 2.07834e-07 0)
(-0.65711 -1.70445e-07 0)
(-0.657104 1.45589e-07 0)
(-0.657097 -1.03895e-07 0)
(-0.65709 7.78038e-08 0)
(-0.657085 -3.22728e-08 0)
(-0.657081 8.38722e-09 0)
(-0.657077 3.81758e-08 0)
(-0.657073 -6.04266e-08 0)
(-0.65707 1.07014e-07 0)
(-0.657067 -1.26152e-07 0)
(-0.657064 1.7059e-07 0)
(-0.657062 -1.85603e-07 0)
(-0.657061 2.27347e-07 0)
(-0.657059 -2.38415e-07 0)
(-0.657057 2.76284e-07 0)
(-0.657056 -2.82514e-07 0)
(-0.657055 3.15938e-07 0)
(-0.657054 -3.17559e-07 0)
(-0.657053 3.46352e-07 0)
(-0.657052 -3.43252e-07 0)
(-0.657052 3.67218e-07 0)
(-0.657051 -3.59683e-07 0)
(-0.657051 3.78972e-07 0)
(-0.657051 -3.67255e-07 0)
(-0.65705 3.82148e-07 0)
(-0.65705 -3.66822e-07 0)
(-0.65705 3.77541e-07 0)
(-0.65705 -3.5931e-07 0)
(-0.657049 3.64638e-07 0)
(-0.657049 -3.46176e-07 0)
(-0.657049 3.50036e-07 0)
(-0.657049 -3.27224e-07 0)
(-0.657049 3.28297e-07 0)
(-0.657049 -3.04173e-07 0)
(-0.657049 3.02966e-07 0)
(-0.657049 -2.7813e-07 0)
(-0.657049 2.75122e-07 0)
(-0.657049 -2.50153e-07 0)
(-0.657049 2.45796e-07 0)
(-0.657049 -2.21214e-07 0)
(-0.657049 2.15914e-07 0)
(-0.657049 -1.92194e-07 0)
(-0.657049 1.86303e-07 0)
(-0.657049 -1.63839e-07 0)
(-0.657049 1.57665e-07 0)
(-0.657049 -1.36768e-07 0)
(-0.657049 1.30578e-07 0)
(-0.657049 -1.11455e-07 0)
(-0.657049 1.05509e-07 0)
(-0.657049 -8.82247e-08 0)
(-0.657049 8.27854e-08 0)
(-0.657049 -6.73091e-08 0)
(-0.657049 6.25961e-08 0)
(-0.657049 -4.88502e-08 0)
(-0.657049 4.49868e-08 0)
(-0.657049 -3.29116e-08 0)
(-0.657049 2.9931e-08 0)
(-0.657049 -1.94375e-08 0)
(-0.657049 1.7321e-08 0)
(-0.657049 -8.3187e-09 0)
(-0.657049 6.99967e-09 0)
(-0.657049 6.24047e-10 0)
(-0.657049 -1.2591e-09 0)
(-0.657049 7.60038e-09 0)
(-0.657049 -7.6817e-09 0)
(-0.657049 1.28783e-08 0)
(-0.657049 -1.25283e-08 0)
(-0.657049 1.67224e-08 0)
(-0.657049 -1.60563e-08 0)
(-0.657049 1.94112e-08 0)
(-0.657049 -1.85541e-08 0)
(-0.657049 2.1187e-08 0)
(-0.657049 -2.02806e-08 0)
(-0.657049 2.23186e-08 0)
(-0.657049 -2.1476e-08 0)
(-0.657049 2.30379e-08 0)
(-0.657049 -2.23578e-08 0)
(-0.657049 2.35621e-08 0)
(-0.657049 -2.31295e-08 0)
(-0.657049 2.40727e-08 0)
(-0.657049 -2.39272e-08 0)
(-0.657049 2.47622e-08 0)
(-0.657049 -2.49055e-08 0)
(-0.657049 2.57365e-08 0)
(-0.657049 -2.61389e-08 0)
(-0.657049 2.71142e-08 0)
(-0.657049 -2.77596e-08 0)
(-0.657049 2.89101e-08 0)
(-0.657049 -2.98271e-08 0)
(-0.657049 3.1181e-08 0)
(-0.657049 -3.23783e-08 0)
(-0.657049 3.39402e-08 0)
(-0.657049 -3.54132e-08 0)
(-0.657049 3.72001e-08 0)
(-0.657049 -3.89359e-08 0)
(-0.657049 3.59806e-08 0)
(-0.657049 -3.71101e-08 0)
(-0.657049 3.84151e-08 0)
(-0.657049 -3.96622e-08 0)
(-0.657049 4.10264e-08 0)
(-0.657049 -4.23685e-08 0)
(-0.657049 4.37634e-08 0)
(-0.657049 -4.51808e-08 0)
(-0.657049 4.65409e-08 0)
(-0.657049 -4.80233e-08 0)
(-0.657049 4.93125e-08 0)
(-0.657049 -5.08618e-08 0)
(-0.657049 5.19955e-08 0)
(-0.657049 -5.36381e-08 0)
(-0.657049 5.45471e-08 0)
(-0.657049 -5.633e-08 0)
(-0.657049 5.69243e-08 0)
(-0.657049 -5.88981e-08 0)
(-0.657049 5.90365e-08 0)
(-0.657049 -6.13644e-08 0)
(-0.657049 6.07981e-08 0)
(-0.657049 -6.38623e-08 0)
(-0.657049 6.21094e-08 0)
(-0.657049 -6.64947e-08 0)
(-0.657049 6.27925e-08 0)
(-0.657049 -6.92364e-08 0)
(-0.657049 6.30384e-08 0)
(-0.657049 -7.20751e-08 0)
(-0.657049 6.27624e-08 0)
(-0.657049 -7.51495e-08 0)
(-0.657049 6.17487e-08 0)
(-0.657049 -7.86952e-08 0)
(-0.657049 5.99116e-08 0)
(-0.657049 -8.29932e-08 0)
(-0.657049 5.70629e-08 0)
(-0.657049 -8.82151e-08 0)
(-0.657049 4.95801e-08 0)
(-0.657049 -1.00031e-07 0)
(-0.657049 4.55223e-08 0)
(-0.657049 -9.61435e-08 0)
(-0.657049 4.7209e-08 0)
(-0.657049 -1.0043e-07 0)
(-0.657049 4.3157e-08 0)
(-0.657049 -1.03137e-07 0)
(-0.657049 3.99266e-08 0)
(-0.657049 -1.05815e-07 0)
(-0.657049 3.89289e-08 0)
(-0.657049 -1.05012e-07 0)
(-0.657049 4.25173e-08 0)
(-0.657049 -8.61101e-08 0)
)
;

boundaryField
{
    inandouthalf11
    {
        type            cyclic;
    }
    inandouthalf12
    {
        type            cyclic;
    }
    inandouthalf21
    {
        type            cyclic;
    }
    inandouthalf22
    {
        type            cyclic;
    }
    inandouthalf31
    {
        type            cyclic;
    }
    inandouthalf32
    {
        type            cyclic;
    }
    inandouthalf41
    {
        type            cyclic;
    }
    inandouthalf42
    {
        type            cyclic;
    }
    top
    {
        type            symmetryPlane;
    }
    walls
    {
        type            calculated;
        value           uniform (0 0 0);
    }
    frontAndBackPlanes
    {
        type            empty;
    }
}


// ************************************************************************* //
