/*--------------------------------*- C++ -*----------------------------------*\
| =========                 |                                                 |
| \\      /  F ield         | OpenFOAM: The Open Source CFD Toolbox           |
|  \\    /   O peration     | Version:  2.4.x                                 |
|   \\  /    A nd           | Web:      www.OpenFOAM.org                      |
|    \\/     M anipulation  |                                                 |
\*---------------------------------------------------------------------------*/
FoamFile
{
    version     2.0;
    format      ascii;
    class       volVectorField;
    location    "2";
    object      gradPs;
}
// * * * * * * * * * * * * * * * * * * * * * * * * * * * * * * * * * * * * * //

dimensions      [0 1 -2 0 0 0 0];

internalField   nonuniform List<vector> 
360
(
(0 7.06193e-26 0)
(0 -1.76836e-21 0)
(0 -1.76843e-21 0)
(0 8.79596e-29 0)
(-1.45436e-32 -1.76841e-21 0)
(-2.90872e-32 -1.76841e-21 0)
(-2.90872e-32 -1.76839e-21 0)
(0 -1.76839e-21 0)
(-1.45436e-32 -1.76837e-21 0)
(0 -3.53673e-21 0)
(-1.45437e-32 -1.76836e-21 0)
(0 -1.76834e-21 0)
(-2.90874e-32 -3.53666e-21 0)
(0 -3.53663e-21 0)
(0 -3.53659e-21 0)
(0 -3.53656e-21 0)
(0 -3.53652e-21 0)
(-1.45438e-32 -3.53649e-21 0)
(0 -5.30465e-21 0)
(0 -5.3046e-21 0)
(0 -5.30449e-21 0)
(-1.4544e-32 -7.07256e-21 0)
(0 -7.07242e-21 0)
(0 -7.07228e-21 0)
(0 -7.07214e-21 0)
(-1.45442e-32 -7.072e-21 0)
(0 -8.83977e-21 0)
(0 -1.06075e-20 0)
(0 -1.06072e-20 0)
(0 -1.06068e-20 0)
(0 -1.23742e-20 0)
(0 -1.23739e-20 0)
(0 -1.41409e-20 0)
(0 -1.5908e-20 0)
(0 -1.59072e-20 0)
(2.909e-32 -1.76739e-20 0)
(0 -1.94402e-20 0)
(0 -2.29734e-20 0)
(0 -2.29721e-20 0)
(0 -2.47373e-20 0)
(0 -2.82692e-20 0)
(0 -2.8267e-20 0)
(1.45461e-32 -3.17975e-20 0)
(0 -3.53275e-20 0)
(0 -3.709e-20 0)
(0 -4.06179e-20 0)
(0 -4.23791e-20 0)
(0 -4.59048e-20 0)
(0 -5.29597e-20 0)
(0 -5.64821e-20 0)
(1.45485e-32 -6.0002e-20 0)
(0 -6.52851e-20 0)
(0 -7.05648e-20 0)
(0 -7.58418e-20 0)
(0 -8.28779e-20 0)
(0 -8.99102e-20 0)
(0 -9.69359e-20 0)
(0 -1.05719e-19 0)
(0 -1.12732e-19 0)
(0 -1.23259e-19 0)
(0 -1.33777e-19 0)
(0 -1.44281e-19 0)
(0 -1.56532e-19 0)
(0 -1.68766e-19 0)
(0 -1.82739e-19 0)
(0 -1.98446e-19 0)
(0 -2.15882e-19 0)
(0 -2.2468e-19 0)
(0 3.27735e-19 0)
(0 6.28997e-18 0)
(0 2.15102e-17 0)
(0 2.31398e-17 0)
(0 -1.60027e-18 0)
(0 -1.89484e-17 0)
(0 -1.49445e-17 0)
(0 -7.21413e-18 0)
(0 -2.9591e-18 0)
(0 -1.00466e-18 0)
(0 3.3088e-21 0)
(0 5.97556e-19 0)
(0 8.84333e-19 0)
(0 8.41279e-19 0)
(0 5.11312e-19 0)
(0 6.11772e-20 0)
(0 -3.11865e-19 0)
(0 -5.04477e-19 0)
(0 -5.29864e-19 0)
(0 -4.58073e-19 0)
(0 -3.58399e-19 0)
(0 -2.76075e-19 0)
(0 -2.30544e-19 0)
(0 -2.2063e-19 0)
(0 -2.33529e-19 0)
(0 -2.53657e-19 0)
(0 -2.68605e-19 0)
(0 -2.72063e-19 0)
(0 -2.6368e-19 0)
(0 -2.46335e-19 0)
(0 -2.26487e-19 0)
(0 -1.78734e-16 0)
(0 -1.78647e-16 0)
(0 0 0)
(0 0 0)
(0 0 0)
(0 0 0)
(0 0 0)
(0 0 0)
(0 0 0)
(0 0 0)
(0 0 0)
(0 0 0)
(0 0 0)
(0 0 0)
(0 0 0)
(0 1.79746e-16 0)
(0 1.7988e-16 0)
(0 1.76425e-19 0)
(0 1.0478e-19 0)
(0 1.74842e-20 0)
(0 -8.11132e-20 0)
(0 -1.84326e-19 0)
(0 -2.83476e-19 0)
(0 -3.69553e-19 0)
(0 -4.36659e-19 0)
(0 -4.87122e-19 0)
(0 -5.36804e-19 0)
(0 -6.16821e-19 0)
(0 -7.64982e-19 0)
(0 -1.00064e-18 0)
(0 -1.28941e-18 0)
(0 -1.53035e-18 0)
(0 -1.60563e-18 0)
(0 -1.47974e-18 0)
(0 -1.26315e-18 0)
(0 -1.15715e-18 0)
(0 -1.28918e-18 0)
(0 -1.60688e-18 0)
(0 -2.04277e-18 0)
(0 -2.70611e-18 0)
(0 -3.41225e-18 0)
(0 -3.32965e-18 0)
(0 -3.41511e-18 0)
(0 2.4719e-15 0)
(0 1.40685e-13 0)
(0 1.9138e-10 0)
(0 2.61178e-06 0)
(0 0.00191006 0)
(0 0.150672 0)
(0 2.34217 0)
(0 1.16486 0)
(0 -4.83707 0)
(0 -5.88521 0)
(0 -5.40971 0)
(0 -5.42133 0)
(0 -5.67552 0)
(0 -6.06338 0)
(0 -6.45595 0)
(0 -6.8967 0)
(0 -7.47412 0)
(0 -8.36057 0)
(0 -9.41329 0)
(0 -9.21905 0)
(0 -6.42089 0)
(0 -3.88595 0)
(0 -2.57191 0)
(0 -2.16126 0)
(0 -1.75217 0)
(0 -1.53865 0)
(0 -1.4129 0)
(0 -1.21452 0)
(0 -1.15115 0)
(0 -1.02732 0)
(0 -0.990317 0)
(0 -0.840766 0)
(0 -0.839558 0)
(0 -0.764902 0)
(0 -0.722055 0)
(0 -0.614058 0)
(0 -0.677308 0)
(0 -0.536543 0)
(0 -0.552163 0)
(0 -0.499929 0)
(0 -0.457165 0)
(0 -0.439009 0)
(0 -0.393114 0)
(0 -0.393317 0)
(0 -0.341683 0)
(0 -0.314779 0)
(0 -0.283876 0)
(0 -0.319318 0)
(0 -0.236015 0)
(0 -0.233133 0)
(0 -0.209564 0)
(0 -0.201848 0)
(0 -0.206141 0)
(0 -0.173597 0)
(0 -0.148854 0)
(0 -0.123014 0)
(0 -0.127788 0)
(0 -0.137447 0)
(0 -0.135208 0)
(0 -0.10027 0)
(-5.07728e-17 -0.0771098 0)
(0 -0.061656 0)
(0 -0.0867754 0)
(2.46965e-17 -0.0897989 0)
(0 -0.0660808 0)
(-2.42227e-17 -0.0418456 0)
(0 -0.0405094 0)
(2.35772e-17 -0.0549476 0)
(0 -0.0474236 0)
(0 -0.0279651 0)
(0 -0.0266189 0)
(1.11735e-17 -0.0358777 0)
(0 -0.0289267 0)
(0 -0.0154055 0)
(0 -0.015446 0)
(0 -0.0208741 0)
(0 -0.017991 0)
(-5.0858e-18 -0.0103058 0)
(0 -0.00926861 0)
(-4.90729e-18 -0.0110202 0)
(0 -0.00827781 0)
(-2.36736e-18 -0.00577749 0)
(0 -0.00680498 0)
(0 -0.00549493 0)
(0 -0.00324664 0)
(0 -0.00367744 0)
(1.07857e-18 -0.00350496 0)
(0 -0.00213079 0)
(0 -0.0019 0)
(0 -0.00194621 0)
(0 -0.0013398 0)
(0 -0.00108524 0)
(0 -0.000910084 0)
(0 -0.000714155 0)
(0 -0.00059885 0)
(0 -0.000373245 0)
(0 -0.000272875 0)
(0 -0.00020227 0)
(0 -0.000200397 0)
(0 -0.00032058 0)
(0 -0.00021761 0)
(0 0 0)
(0 0 0)
(0 0 0)
(0 0 0)
(0 0 0)
(0 0 0)
(0 0 0)
(0 0 0)
(0 0 0)
(0 0 0)
(0 0 0)
(0 0 0)
(0 0 0)
(0 0 0)
(0 0 0)
(0 0 0)
(0 0 0)
(0 0 0)
(0 0 0)
(0 0 0)
(0 0 0)
(0 0 0)
(0 0 0)
(0 0 0)
(0 0 0)
(0 0 0)
(0 0 0)
(0 0 0)
(0 0 0)
(0 0 0)
(0 0 0)
(0 0 0)
(0 0 0)
(0 0 0)
(0 0 0)
(0 0 0)
(0 0 0)
(0 0 0)
(0 0 0)
(0 0 0)
(0 0 0)
(0 0 0)
(0 0 0)
(0 0 0)
(0 0 0)
(0 0 0)
(0 0 0)
(0 0 0)
(0 0 0)
(0 0 0)
(0 0 0)
(0 0 0)
(0 0 0)
(0 0 0)
(0 0 0)
(0 0 0)
(0 0 0)
(0 0 0)
(0 0 0)
(0 0 0)
(0 0 0)
(0 0 0)
(0 0 0)
(0 0 0)
(0 0 0)
(0 0 0)
(0 0 0)
(0 0 0)
(0 0 0)
(0 0 0)
(0 0 0)
(0 0 0)
(0 0 0)
(0 0 0)
(0 0 0)
(0 0 0)
(0 0 0)
(0 0 0)
(0 0 0)
(0 0 0)
(0 0 0)
(0 0 0)
(0 0 0)
(0 0 0)
(0 0 0)
(0 0 0)
(0 0 0)
(0 0 0)
(0 0 0)
(0 0 0)
(0 0 0)
(0 0 0)
(0 0 0)
(0 0 0)
(0 0 0)
(0 0 0)
(0 0 0)
(0 0 0)
(0 0 0)
(0 0 0)
(0 0 0)
(0 0 0)
(0 0 0)
(0 0 0)
(0 0 0)
(0 0 0)
(0 0 0)
(0 0 0)
(0 0 0)
(0 0 0)
(0 0 0)
(0 0 0)
(0 0 0)
(0 0 0)
(0 0 0)
(0 0 0)
(0 0 0)
)
;

boundaryField
{
    inandouthalf11
    {
        type            cyclic;
    }
    inandouthalf12
    {
        type            cyclic;
    }
    inandouthalf21
    {
        type            cyclic;
    }
    inandouthalf22
    {
        type            cyclic;
    }
    inandouthalf31
    {
        type            cyclic;
    }
    inandouthalf32
    {
        type            cyclic;
    }
    inandouthalf41
    {
        type            cyclic;
    }
    inandouthalf42
    {
        type            cyclic;
    }
    top
    {
        type            symmetryPlane;
    }
    walls
    {
        type            calculated;
        value           uniform (0 0 0);
    }
    frontAndBackPlanes
    {
        type            empty;
    }
}


// ************************************************************************* //
