/*--------------------------------*- C++ -*----------------------------------*\
| =========                 |                                                 |
| \\      /  F ield         | OpenFOAM: The Open Source CFD Toolbox           |
|  \\    /   O peration     | Version:  2.4.x                                 |
|   \\  /    A nd           | Web:      www.OpenFOAM.org                      |
|    \\/     M anipulation  |                                                 |
\*---------------------------------------------------------------------------*/
FoamFile
{
    version     2.0;
    format      ascii;
    class       volVectorField;
    location    "2";
    object      gradPf;
}
// * * * * * * * * * * * * * * * * * * * * * * * * * * * * * * * * * * * * * //

dimensions      [0 1 -2 0 0 0 0];

internalField   nonuniform List<vector> 
360
(
(0 -1.35998e-09 0)
(0 -0.0556701 0)
(0 -0.0556702 0)
(0 2.74989e-09 0)
(-1.67676e-14 -0.0556536 0)
(-1.67676e-14 -0.0556537 0)
(-1.67676e-14 -0.0556372 0)
(0 -0.0556373 0)
(-1.67677e-14 -0.0556207 0)
(0 -0.111225 0)
(-1.67677e-14 -0.0556044 0)
(0 -0.0555879 0)
(-3.35355e-14 -0.111159 0)
(0 -0.111127 0)
(0 -0.111094 0)
(0 -0.111061 0)
(0 -0.111028 0)
(-3.35358e-14 -0.110995 0)
(0 -0.166419 0)
(0 -0.16637 0)
(0 -0.166271 0)
(-1.6768e-14 -0.221597 0)
(0 -0.221466 0)
(0 -0.221336 0)
(0 -0.221205 0)
(-1.67683e-14 -0.221074 0)
(0 -0.276138 0)
(0 -0.331122 0)
(0 -0.330829 0)
(0 -0.330536 0)
(0 -0.385226 0)
(0 -0.384886 0)
(0 -0.439284 0)
(0 -0.493686 0)
(0 -0.492957 0)
(1.67692e-14 -0.547004 0)
(0 -0.600728 0)
(0 -0.708696 0)
(0 -0.707444 0)
(0 -0.760177 0)
(0 -0.866984 0)
(0 -0.864942 0)
(1.67705e-14 -0.97048 0)
(0 -1.07546 0)
(0 -1.12574 0)
(0 -1.22897 0)
(0 -1.27807 0)
(0 -1.37929 0)
(0 -1.58494 0)
(0 -1.68317 0)
(1.67733e-14 -1.77945 0)
(0 -1.92653 0)
(0 -2.07085 0)
(0 -2.21281 0)
(0 -2.40239 0)
(0 -2.58858 0)
(0 -2.76962 0)
(0 -2.99631 0)
(0 -3.16723 0)
(0 -3.42991 0)
(0 -3.68499 0)
(0 -3.92981 0)
(0 -4.21283 0)
(0 -4.48313 0)
(0 -4.7867 0)
(0 -5.11936 0)
(0 -5.47801 0)
(0 -5.80036 0)
(0 -5.9071 0)
(0 -5.2635 0)
(0 -3.29242 0)
(0 -0.687784 0)
(0 0.609826 0)
(0 -0.0101545 0)
(0 -1.50404 0)
(0 -2.85954 0)
(0 -3.74267 0)
(0 -4.24821 0)
(0 -4.45104 0)
(0 -4.42012 0)
(0 -4.24865 0)
(0 -4.02844 0)
(0 -3.82058 0)
(0 -3.6896 0)
(0 -3.65273 0)
(0 -3.69163 0)
(0 -3.76676 0)
(0 -3.84047 0)
(0 -3.89931 0)
(0 -3.93242 0)
(0 -3.94111 0)
(0 -3.93948 0)
(0 -3.93719 0)
(0 -3.93786 0)
(0 -3.94474 0)
(0 -3.95646 0)
(0 -3.96952 0)
(0 -3.98119 0)
(0 -3.99039 0)
(0 -3.99677 0)
(0 -4.00075 0)
(0 -4.00349 0)
(0 -4.00539 0)
(0 -4.00626 0)
(0 -4.00594 0)
(0 -4.00424 0)
(0 -4.00099 0)
(0 -3.9963 0)
(0 -3.99038 0)
(0 -3.98344 0)
(0 -3.97572 0)
(0 -3.96744 0)
(0 -3.95884 0)
(0 -3.9502 0)
(0 -3.94176 0)
(0 -3.93371 0)
(0 -3.92616 0)
(0 -3.91912 0)
(0 -3.91249 0)
(0 -3.90613 0)
(0 -3.89997 0)
(0 -3.89417 0)
(0 -3.8892 0)
(0 -3.88587 0)
(0 -3.88503 0)
(0 -3.88684 0)
(0 -3.88963 0)
(0 -3.88898 0)
(0 -3.87824 0)
(0 -3.8524 0)
(0 -3.8155 0)
(0 -3.78704 0)
(0 -3.79395 0)
(0 -3.83613 0)
(0 -3.85966 0)
(0 -3.8137 0)
(0 -3.74727 0)
(0 -3.78196 0)
(0 -3.93129 0)
(0 -3.92246 0)
(0 -3.42652 0)
(0 -3.26917 0)
(0 -3.99155 0)
(0 -4.75804 0)
(0 -5.26775 0)
(0 -5.59619 0)
(0 -5.80232 0)
(0 -6.48846 0)
(0 -8.69766 0)
(0 -5.50227 0)
(0 0 0)
(0 0 0)
(0 0 0)
(0 0 0)
(0 0 0)
(0 0 0)
(0 0 0)
(0 0 0)
(0 0 0)
(0 0 0)
(0 0 0)
(0 0 0)
(0 0 0)
(0 0 0)
(0 0 0)
(0 0 0)
(0 0 0)
(0 0 0)
(0 0 0)
(0 0 0)
(0 0 0)
(0 0 0)
(0 0 0)
(0 0 0)
(0 0 0)
(0 0 0)
(0 0 0)
(0 0 0)
(0 0 0)
(0 0 0)
(0 0 0)
(0 0 0)
(0 0 0)
(0 0 0)
(0 0 0)
(0 0 0)
(0 0 0)
(0 0 0)
(0 0 0)
(0 0 0)
(0 0 0)
(0 0 0)
(0 0 0)
(0 0 0)
(0 0 0)
(0 0 0)
(0 0 0)
(0 0 0)
(0 0 0)
(0 0 0)
(0 0 0)
(0 0 0)
(0 0 0)
(0 0 0)
(0 0 0)
(0 0 0)
(0 0 0)
(0 0 0)
(0 0 0)
(0 0 0)
(0 0 0)
(0 0 0)
(0 0 0)
(0 0 0)
(0 0 0)
(0 0 0)
(0 0 0)
(0 0 0)
(0 0 0)
(0 0 0)
(0 0 0)
(0 0 0)
(0 0 0)
(0 0 0)
(0 0 0)
(0 0 0)
(0 0 0)
(0 0 0)
(0 0 0)
(0 0 0)
(0 0 0)
(0 0 0)
(0 0 0)
(0 0 0)
(0 0 0)
(0 0 0)
(0 0 0)
(0 0 0)
(0 0 0)
(0 0 0)
(0 0 0)
(0 0 0)
(0 0 0)
(0 0 0)
(0 0 0)
(0 0 0)
(0 0 0)
(0 0 0)
(0 0 0)
(0 0 0)
(0 0 0)
(0 0 0)
(0 0 0)
(0 0 0)
(0 0 0)
(0 0 0)
(0 0 0)
(0 0 0)
(0 0 0)
(0 0 0)
(0 0 0)
(0 0 0)
(0 0 0)
(0 0 0)
(0 0 0)
(0 0 0)
(0 0 0)
(0 0 0)
(0 0 0)
(0 0 0)
(0 0 0)
(0 0 0)
(0 0 0)
(0 0 0)
(0 0 0)
(0 0 0)
(0 0 0)
(0 0 0)
(0 0 0)
(0 0 0)
(0 0 0)
(0 0 0)
(0 0 0)
(0 0 0)
(0 0 0)
(0 0 0)
(0 0 0)
(0 0 0)
(0 0 0)
(0 0 0)
(0 0 0)
(0 0 0)
(0 0 0)
(0 0 0)
(0 0 0)
(0 0 0)
(0 0 0)
(0 0 0)
(0 0 0)
(0 0 0)
(0 0 0)
(0 0 0)
(0 0 0)
(0 0 0)
(0 0 0)
(0 0 0)
(0 0 0)
(0 0 0)
(0 0 0)
(0 0 0)
(0 0 0)
(0 0 0)
(0 0 0)
(0 0 0)
(0 0 0)
(0 0 0)
(0 0 0)
(0 0 0)
(0 0 0)
(0 0 0)
(0 0 0)
(0 0 0)
(0 0 0)
(0 0 0)
(0 0 0)
(0 0 0)
(0 0 0)
(0 0 0)
(0 0 0)
(0 0 0)
(0 0 0)
(0 0 0)
(0 0 0)
(0 0 0)
(0 0 0)
(0 0 0)
(0 0 0)
(0 0 0)
(0 0 0)
(0 0 0)
(0 0 0)
(0 0 0)
(0 0 0)
(0 0 0)
(0 0 0)
(0 0 0)
(0 0 0)
(0 0 0)
(0 0 0)
(0 0 0)
(0 0 0)
(0 0 0)
(0 0 0)
(0 0 0)
(0 0 0)
(0 0 0)
(0 0 0)
(0 0 0)
(0 0 0)
(0 0 0)
)
;

boundaryField
{
    inandouthalf11
    {
        type            cyclic;
    }
    inandouthalf12
    {
        type            cyclic;
    }
    inandouthalf21
    {
        type            cyclic;
    }
    inandouthalf22
    {
        type            cyclic;
    }
    inandouthalf31
    {
        type            cyclic;
    }
    inandouthalf32
    {
        type            cyclic;
    }
    inandouthalf41
    {
        type            cyclic;
    }
    inandouthalf42
    {
        type            cyclic;
    }
    top
    {
        type            symmetryPlane;
    }
    walls
    {
        type            calculated;
        value           uniform (0 0 0);
    }
    frontAndBackPlanes
    {
        type            empty;
    }
}


// ************************************************************************* //
