/*--------------------------------*- C++ -*----------------------------------*\
| =========                 |                                                 |
| \\      /  F ield         | OpenFOAM: The Open Source CFD Toolbox           |
|  \\    /   O peration     | Version:  2.4.x                                 |
|   \\  /    A nd           | Web:      www.OpenFOAM.org                      |
|    \\/     M anipulation  |                                                 |
\*---------------------------------------------------------------------------*/
FoamFile
{
    version     2.0;
    format      ascii;
    class       volScalarField;
    location    "2";
    object      mua;
}
// * * * * * * * * * * * * * * * * * * * * * * * * * * * * * * * * * * * * * //

dimensions      [1 -1 -1 0 0 0 0];

internalField   nonuniform List<scalar> 
360
(
6.93007e+33
7.04903e+36
6.66991e+36
6.11137e+36
5.55442e+36
5.06385e+36
4.63429e+36
4.25556e+36
3.92346e+36
3.62912e+36
3.36985e+36
3.14273e+36
2.94038e+36
2.76047e+36
2.60096e+36
2.45942e+36
2.33355e+36
2.22121e+36
2.11993e+36
2.02776e+36
1.94515e+36
1.86933e+36
1.8e+36
1.73701e+36
1.67964e+36
1.627e+36
1.57768e+36
1.53022e+36
1.48532e+36
1.44325e+36
1.40323e+36
1.36446e+36
1.3273e+36
1.29008e+36
1.25415e+36
1.2186e+36
1.18307e+36
1.14677e+36
1.11026e+36
1.07453e+36
1.03803e+36
1.00161e+36
9.65106e+35
9.27353e+35
8.8923e+35
8.50706e+35
8.11744e+35
7.72288e+35
7.30762e+35
6.87454e+35
6.42993e+35
5.96899e+35
5.47617e+35
4.94537e+35
4.3438e+35
3.66648e+35
2.88089e+35
2.05496e+35
1.24916e+35
6.19759e+34
2.20406e+34
5.79683e+33
1.00976e+33
9.86701e+31
8.95883e+29
1.95254e+26
1.49784e+21
3.72938e+13
2.18027e+06
254025
74684
41100.9
36008
42891.2
58537.3
79112
97588.4
107494
107418
100734
91989.2
84282.3
78911.6
75955
74864.5
74870.7
75227.3
75395.9
75110.3
74359.1
73294.9
72105
70922.9
69807.8
68752.8
67711.6
66630.5
65468.1
64201.3
62821.7
61330
59728.9
58021.2
56211.6
54308.3
52324.4
50277.9
48190.8
46087.2
43992.1
41929.9
39923.3
37992.1
36152.6
34416.9
32793.2
31285.6
29894.6
28617.6
27448.9
26379
25395
24479.6
23612.4
22774
21951.7
21149
20391.9
19726.9
19204.2
18842.4
18588.3
18304.1
17835.2
17156.2
16433.3
15872.8
15559.6
15604
16622.4
20223.6
29075.3
44583.5
66128.1
97340.1
149770
216811
151625
0.957969
0.0249612
0.00562607
0.0069263
0.00758405
0.00762183
0.0073469
0.00691255
0.00642167
0.00595933
0.00559689
0.0053684
0.00525121
0.00519331
0.00515745
0.00512933
0.00510446
0.00508161
0.00506011
0.00503957
0.00501989
0.00500082
0.00498233
0.00496427
0.00494664
0.00492928
0.00491222
0.00489537
0.00487871
0.00486215
0.00484572
0.00482935
0.00481301
0.00479667
0.00478031
0.00476391
0.00474742
0.00473086
0.00471418
0.00469738
0.00468043
0.00466333
0.00464605
0.00462858
0.00461091
0.00459303
0.00457494
0.00455662
0.00453806
0.00451925
0.00450019
0.00448088
0.00446132
0.00444128
0.00442053
0.00439906
0.00437683
0.00435382
0.00432998
0.00430525
0.00427958
0.00425296
0.00422533
0.00419661
0.00416675
0.0041357
0.00410337
0.00406967
0.00403453
0.00399785
0.00395955
0.00391948
0.0038775
0.00383349
0.00378728
0.00373866
0.00368745
0.00363339
0.00357618
0.00351551
0.003451
0.00338218
0.00330849
0.00322929
0.00314374
0.00305078
0.00294909
0.00283688
0.0027117
0.00257002
0.00240646
0.00221205
0.00196954
0.0016365
0
0
0
0
0
0
0
0
0
0
0
0
0
0
0
0
0
0
0
0
0
0
0
0
0
0
0
0
0
0
0
0
0
0
0
0
0
0
0
0
0
0
0
0
0
0
0
0
0
0
0
0
0
0
0
0
0
0
0
0
0
0
0
0
0
0
0
0
0
0
0
0
0
0
0
0
0
0
0
0
0
0
0
0
0
0
0
0
0
0
0
0
0
0
0
0
0
0
0
0
0
0
0
0
0
0
0
0
0
0
0
0
0
0
0
0
0
0
)
;

boundaryField
{
    inandouthalf11
    {
        type            cyclic;
    }
    inandouthalf12
    {
        type            cyclic;
    }
    inandouthalf21
    {
        type            cyclic;
    }
    inandouthalf22
    {
        type            cyclic;
    }
    inandouthalf31
    {
        type            cyclic;
    }
    inandouthalf32
    {
        type            cyclic;
    }
    inandouthalf41
    {
        type            cyclic;
    }
    inandouthalf42
    {
        type            cyclic;
    }
    top
    {
        type            symmetryPlane;
    }
    walls
    {
        type            calculated;
        value           uniform 1e+30;
    }
    frontAndBackPlanes
    {
        type            empty;
    }
}


// ************************************************************************* //
