/*--------------------------------*- C++ -*----------------------------------*\
| =========                 |                                                 |
| \\      /  F ield         | OpenFOAM: The Open Source CFD Toolbox           |
|  \\    /   O peration     | Version:  2.4.x                                 |
|   \\  /    A nd           | Web:      www.OpenFOAM.org                      |
|    \\/     M anipulation  |                                                 |
\*---------------------------------------------------------------------------*/
FoamFile
{
    version     2.0;
    format      ascii;
    class       volScalarField;
    location    "2";
    object      p;
}
// * * * * * * * * * * * * * * * * * * * * * * * * * * * * * * * * * * * * * //

dimensions      [1 -1 -2 0 0 0 0];

internalField   nonuniform List<scalar> 
360
(
4895.51
4890.61
4885.7
4880.8
4875.89
4870.99
4866.08
4861.18
4856.27
4851.37
4846.46
4841.56
4836.65
4831.75
4826.84
4821.94
4817.03
4812.13
4807.22
4802.32
4797.41
4792.51
4787.6
4782.7
4777.79
4772.89
4767.98
4763.08
4758.17
4753.27
4748.36
4743.46
4738.55
4733.65
4728.74
4723.84
4718.93
4714.03
4709.12
4704.22
4699.31
4694.41
4689.5
4684.6
4679.69
4674.79
4669.88
4664.98
4660.07
4655.17
4650.26
4645.36
4640.45
4635.55
4630.64
4625.74
4620.83
4615.93
4611.02
4606.12
4601.21
4596.31
4591.4
4586.5
4581.59
4576.69
4571.78
4566.88
4561.97
4557.07
4552.16
4547.25
4542.33
4537.41
4532.48
4527.54
4522.6
4517.65
4512.7
4507.75
4502.8
4497.85
4492.89
4487.93
4482.96
4477.99
4473.02
4468.04
4463.06
4458.08
4453.1
4448.11
4443.12
4438.12
4433.12
4428.12
4423.12
4418.11
4413.1
4408.09
4403.07
4398.05
4393.03
4388
4382.97
4377.94
4372.91
4367.87
4362.83
4357.78
4352.73
4347.68
4342.62
4337.56
4332.5
4327.43
4322.36
4317.28
4312.2
4307.12
4302.03
4296.94
4291.84
4286.74
4281.64
4276.53
4271.42
4266.3
4261.18
4256.05
4250.93
4245.79
4240.66
4235.52
4230.38
4225.23
4220.08
4214.93
4209.78
4204.62
4199.47
4194.31
4189.15
4183.99
4178.84
4173.68
4168.53
4163.38
4158.23
4153.09
4147.29
4142.29
4137.32
4132.44
4127.52
4122.62
4117.71
4112.82
4107.92
4103.03
4098.12
4093.22
4088.31
4083.41
4078.51
4073.6
4068.7
4063.79
4058.89
4053.98
4049.08
4044.17
4039.27
4034.36
4029.46
4024.55
4019.65
4014.74
4009.84
4004.93
4000.03
3995.12
3990.22
3985.31
3980.41
3975.5
3970.6
3965.69
3960.79
3955.88
3950.98
3946.07
3941.17
3936.26
3931.36
3926.45
3921.55
3916.64
3911.74
3906.83
3901.93
3896.97
3891.92
3886.76
3881.5
3876.13
3870.65
3865.06
3859.36
3853.54
3847.6
3841.54
3835.36
3829.06
3822.62
3816.06
3809.36
3802.53
3795.55
3788.44
3781.18
3773.78
3766.22
3758.51
3750.65
3742.62
3734.43
3726.08
3717.55
3708.86
3699.98
3690.93
3681.69
3672.27
3662.65
3652.84
3642.83
3632.61
3622.19
3611.56
3600.71
3589.64
3578.35
3566.83
3555.07
3543.08
3530.84
3518.35
3505.61
3492.61
3479.35
3465.82
3452.01
3437.92
3423.55
3408.88
3393.92
3378.66
3363.08
3347.19
3330.97
3314.43
3297.55
3280.33
3262.76
3244.83
3226.54
3207.87
3188.83
3169.4
3149.58
3129.35
3108.72
3087.66
3066.18
3044.26
3021.9
2999.08
2975.8
2952.05
2927.81
2903.09
2877.86
2852.12
2825.86
2799.06
2771.72
2743.82
2715.36
2686.32
2656.7
2626.47
2595.62
2564.15
2532.05
2499.29
2465.86
2431.76
2396.96
2361.46
2325.24
2288.28
2250.57
2212.1
2172.85
2132.8
2091.93
2050.24
2007.7
1964.3
1922.76
1883.52
1844.28
1805.04
1765.8
1726.56
1687.32
1648.08
1608.84
1569.6
1530.36
1491.12
1451.88
1412.64
1373.4
1334.16
1294.92
1255.68
1216.44
1177.2
1137.96
1098.72
1059.48
1020.24
981
941.76
902.52
863.28
824.04
784.8
745.56
706.32
667.08
627.84
588.6
549.36
510.12
470.88
431.64
392.4
353.16
313.92
274.68
235.44
196.2
156.96
117.72
78.48
39.24
-1.5014e-07
)
;

boundaryField
{
    inandouthalf11
    {
        type            cyclic;
    }
    inandouthalf12
    {
        type            cyclic;
    }
    inandouthalf21
    {
        type            cyclic;
    }
    inandouthalf22
    {
        type            cyclic;
    }
    inandouthalf31
    {
        type            cyclic;
    }
    inandouthalf32
    {
        type            cyclic;
    }
    inandouthalf41
    {
        type            cyclic;
    }
    inandouthalf42
    {
        type            cyclic;
    }
    top
    {
        type            symmetryPlane;
    }
    walls
    {
        type            slip;
    }
    frontAndBackPlanes
    {
        type            empty;
    }
}


// ************************************************************************* //
