/*--------------------------------*- C++ -*----------------------------------*\
| =========                 |                                                 |
| \\      /  F ield         | OpenFOAM: The Open Source CFD Toolbox           |
|  \\    /   O peration     | Version:  2.4.x                                 |
|   \\  /    A nd           | Web:      www.OpenFOAM.org                      |
|    \\/     M anipulation  |                                                 |
\*---------------------------------------------------------------------------*/
FoamFile
{
    version     2.0;
    format      ascii;
    class       volScalarField;
    location    "2";
    object      pa;
}
// * * * * * * * * * * * * * * * * * * * * * * * * * * * * * * * * * * * * * //

dimensions      [1 -1 -2 0 0 0 0];

internalField   nonuniform List<scalar> 
360
(
2.87809e-16
2.87809e-16
2.87806e-16
2.87806e-16
2.87806e-16
2.87803e-16
2.87803e-16
2.878e-16
2.878e-16
2.87798e-16
2.87795e-16
2.87795e-16
2.87792e-16
2.87789e-16
2.87786e-16
2.87783e-16
2.8778e-16
2.87777e-16
2.87775e-16
2.87769e-16
2.87766e-16
2.8776e-16
2.87755e-16
2.87749e-16
2.87743e-16
2.87737e-16
2.87732e-16
2.87723e-16
2.87715e-16
2.87706e-16
2.87697e-16
2.87686e-16
2.87677e-16
2.87663e-16
2.87652e-16
2.87637e-16
2.87623e-16
2.87606e-16
2.87586e-16
2.87569e-16
2.87546e-16
2.87523e-16
2.875e-16
2.87472e-16
2.87443e-16
2.87412e-16
2.87378e-16
2.87343e-16
2.87303e-16
2.87258e-16
2.87212e-16
2.87161e-16
2.87107e-16
2.87047e-16
2.86984e-16
2.86913e-16
2.86839e-16
2.86756e-16
2.86668e-16
2.86574e-16
2.86469e-16
2.86358e-16
2.86236e-16
2.86105e-16
2.85963e-16
2.8581e-16
2.85643e-16
2.85462e-16
2.8528e-16
2.85991e-16
2.95432e-16
3.20704e-16
3.32774e-16
3.18122e-16
3.02195e-16
2.94005e-16
2.90554e-16
2.8923e-16
2.88933e-16
2.89235e-16
2.89897e-16
2.90662e-16
2.91254e-16
2.91486e-16
2.91352e-16
2.90983e-16
2.90539e-16
2.90129e-16
2.89801e-16
2.89552e-16
2.89356e-16
2.8918e-16
2.89e-16
2.88804e-16
2.88591e-16
2.88371e-16
2.88153e-16
2.87946e-16
2.87756e-16
2.87582e-16
0
0
0
0
0
0
0
0
0
0
0
0
0
0
0
2.88768e-16
2.88935e-16
2.89051e-16
2.89103e-16
2.89079e-16
2.88973e-16
2.88784e-16
2.88518e-16
2.88191e-16
2.87818e-16
2.8741e-16
2.86957e-16
2.86421e-16
2.85732e-16
2.84818e-16
2.83667e-16
2.82368e-16
2.81097e-16
2.80001e-16
2.79077e-16
2.78151e-16
2.77016e-16
2.75583e-16
2.73754e-16
2.71263e-16
2.68309e-16
2.65953e-16
2.62865e-16
4.20455e-15
2.24258e-13
3.04429e-10
4.14954e-06
0.00303007
0.238542
3.69771
1.95957
1.37392
1.06488
0.835661
0.641264
0.466416
0.314592
0.192141
0.104613
0.0501162
0.0210455
0.00844486
0.00411253
0.0025297
0.00184656
0.00140619
0.00110777
0.000920765
0.000743944
0.000641746
0.000531255
0.000468554
0.000390902
0.000350678
0.000298339
0.000268307
0.000228466
0.000209028
0.000180744
0.000160881
0.000145088
0.000126217
0.000115954
0.000100665
9.30413e-05
8.08475e-05
7.43886e-05
6.5168e-05
6.06618e-05
5.30919e-05
4.76842e-05
4.38174e-05
3.87442e-05
3.60518e-05
3.13971e-05
2.87979e-05
2.54021e-05
2.37897e-05
2.13123e-05
1.96243e-05
1.68918e-05
1.53612e-05
1.3718e-05
1.29161e-05
1.17255e-05
1.00861e-05
8.79179e-06
7.91227e-06
7.39999e-06
6.53669e-06
5.51582e-06
4.90059e-06
4.53773e-06
3.94928e-06
3.23962e-06
2.89463e-06
2.66787e-06
2.30854e-06
1.86402e-06
1.60813e-06
1.45583e-06
1.23253e-06
1.00225e-06
8.87167e-07
7.55662e-07
5.91197e-07
5.13533e-07
4.44945e-07
3.44236e-07
2.8126e-07
2.42813e-07
1.88653e-07
1.46399e-07
1.21067e-07
9.03702e-08
7.33384e-08
5.20146e-08
4.06745e-08
3.12021e-08
2.51731e-08
1.9456e-08
1.32922e-08
0
0
0
0
0
0
0
0
0
0
0
0
0
0
0
0
0
0
0
0
0
0
0
0
0
0
0
0
0
0
0
0
0
0
0
0
0
0
0
0
0
0
0
0
0
0
0
0
0
0
0
0
0
0
0
0
0
0
0
0
0
0
0
0
0
0
0
0
0
0
0
0
0
0
0
0
0
0
0
0
0
0
0
0
0
0
0
0
0
0
0
0
0
0
0
0
0
0
0
0
0
0
0
0
0
0
0
0
0
0
0
0
0
0
0
0
0
0
)
;

boundaryField
{
    inandouthalf11
    {
        type            cyclic;
    }
    inandouthalf12
    {
        type            cyclic;
    }
    inandouthalf21
    {
        type            cyclic;
    }
    inandouthalf22
    {
        type            cyclic;
    }
    inandouthalf31
    {
        type            cyclic;
    }
    inandouthalf32
    {
        type            cyclic;
    }
    inandouthalf41
    {
        type            cyclic;
    }
    inandouthalf42
    {
        type            cyclic;
    }
    top
    {
        type            symmetryPlane;
    }
    walls
    {
        type            calculated;
        value           uniform 2.87809e-16;
    }
    frontAndBackPlanes
    {
        type            empty;
    }
}


// ************************************************************************* //
