/*--------------------------------*- C++ -*----------------------------------*\
| =========                 |                                                 |
| \\      /  F ield         | OpenFOAM: The Open Source CFD Toolbox           |
|  \\    /   O peration     | Version:  2.4.x                                 |
|   \\  /    A nd           | Web:      www.OpenFOAM.org                      |
|    \\/     M anipulation  |                                                 |
\*---------------------------------------------------------------------------*/
FoamFile
{
    version     2.0;
    format      ascii;
    class       surfaceScalarField;
    location    "2";
    object      phia_0;
}
// * * * * * * * * * * * * * * * * * * * * * * * * * * * * * * * * * * * * * //

dimensions      [0 3 -1 0 0 0 0];

internalField   nonuniform List<scalar> 
359
(
-3.81281e-41
-3.81243e-41
-3.81295e-41
-3.81384e-41
-3.81517e-41
-3.81696e-41
-3.81923e-41
-3.82201e-41
-3.82532e-41
-3.82918e-41
-3.8336e-41
-3.83858e-41
-3.84415e-41
-3.8503e-41
-3.85704e-41
-3.86437e-41
-3.87227e-41
-3.88074e-41
-3.88978e-41
-3.89939e-41
-3.90954e-41
-3.92023e-41
-3.93147e-41
-3.94323e-41
-3.9555e-41
-3.96827e-41
-3.98154e-41
-3.99531e-41
-4.00959e-41
-4.02438e-41
-4.03966e-41
-4.05546e-41
-4.07178e-41
-4.08865e-41
-4.10607e-41
-4.12408e-41
-4.14269e-41
-4.16197e-41
-4.18196e-41
-4.20267e-41
-4.22419e-41
-4.24656e-41
-4.26984e-41
-4.29415e-41
-4.31956e-41
-4.34618e-41
-4.37415e-41
-4.40361e-41
-4.43481e-41
-4.46805e-41
-4.50363e-41
-4.54204e-41
-4.58396e-41
-4.63049e-41
-4.68357e-41
-4.74669e-41
-4.82732e-41
-4.94085e-41
-5.1283e-41
-5.50599e-41
-6.56446e-41
-1.05548e-40
-3.32254e-40
-2.62424e-39
-2.51782e-37
-1.12686e-33
-1.44518e-28
-5.69746e-21
-9.53566e-14
-8.97514e-13
-3.59818e-12
-8.49035e-12
-1.40654e-11
-1.87515e-11
-2.21805e-11
-2.47013e-11
-2.67214e-11
-2.85302e-11
-3.03131e-11
-3.21852e-11
-3.4204e-11
-3.63752e-11
-3.86615e-11
-4.10044e-11
-4.33493e-11
-4.56617e-11
-4.79307e-11
-5.01614e-11
-5.23666e-11
-5.45593e-11
-5.67486e-11
-5.89379e-11
-6.11271e-11
-6.33141e-11
-6.54969e-11
-6.76748e-11
-6.98488e-11
-7.20213e-11
-7.41958e-11
-7.6376e-11
-7.85662e-11
-8.07709e-11
-8.29949e-11
-8.52434e-11
-8.75219e-11
-8.98361e-11
-9.21918e-11
-9.45946e-11
-9.70496e-11
-9.95614e-11
-1.02134e-10
-1.04769e-10
-1.07469e-10
-1.10233e-10
-1.1306e-10
-1.15947e-10
-1.18888e-10
-1.21879e-10
-1.2491e-10
-1.27975e-10
-1.31064e-10
-1.34169e-10
-1.37281e-10
-1.40396e-10
-1.43508e-10
-1.46616e-10
-1.49715e-10
-1.52796e-10
-1.55845e-10
-1.58836e-10
-1.61741e-10
-1.64539e-10
-1.67233e-10
-1.69841e-10
-1.7239e-10
-1.7488e-10
-1.77281e-10
-1.79544e-10
-1.8161e-10
-1.83375e-10
-1.84693e-10
-1.85491e-10
-1.85941e-10
-1.86199e-10
-1.8634e-10
-1.8641e-10
-1.86439e-10
-1.86442e-10
-1.95165e-10
-4.42927e-09
-1.26057e-08
-1.52772e-08
-1.36664e-08
-9.1112e-09
-3.04546e-09
3.38206e-09
9.38401e-09
1.4277e-08
1.74825e-08
1.8655e-08
1.7688e-08
1.55571e-08
1.33961e-08
1.13515e-08
9.5259e-09
7.89041e-09
6.4183e-09
5.10833e-09
3.90549e-09
2.82481e-09
1.82179e-09
9.11791e-10
5.72491e-11
-7.25118e-10
-1.46291e-09
-2.14564e-09
-2.79577e-09
-3.40004e-09
-3.97664e-09
-4.52328e-09
-5.0408e-09
-5.53932e-09
-6.01157e-09
-6.46964e-09
-6.90542e-09
-7.33057e-09
-7.73843e-09
-8.13687e-09
-8.51866e-09
-8.89437e-09
-9.26168e-09
-9.61762e-09
-9.96751e-09
-1.03065e-08
-1.06438e-08
-1.09751e-08
-1.13035e-08
-1.16216e-08
-1.1934e-08
-1.2241e-08
-1.25523e-08
-1.28685e-08
-1.31876e-08
-1.35011e-08
-1.38148e-08
-1.41414e-08
-1.44805e-08
-1.48224e-08
-1.51585e-08
-1.55007e-08
-1.58602e-08
-1.62261e-08
-1.65876e-08
-1.69594e-08
-1.73555e-08
-1.77575e-08
-1.81528e-08
-1.85585e-08
-1.89941e-08
-1.9445e-08
-1.98953e-08
-2.03613e-08
-2.08538e-08
-2.1354e-08
-2.18711e-08
-2.24255e-08
-2.29929e-08
-2.35699e-08
-2.41867e-08
-2.48318e-08
-2.54867e-08
-2.61753e-08
-2.69002e-08
-2.76456e-08
-2.8417e-08
-2.9206e-08
-3.00176e-08
-3.08255e-08
-3.15935e-08
-3.22857e-08
-3.28635e-08
-3.34299e-08
-9.5336e-08
-1.58122e-07
-1.58123e-07
-1.58122e-07
-1.58123e-07
-1.58122e-07
-1.58123e-07
-1.58122e-07
-1.58123e-07
-1.58122e-07
-1.58123e-07
-1.58122e-07
-1.58123e-07
-1.58122e-07
-1.58123e-07
-1.58122e-07
-1.58123e-07
-1.58122e-07
-1.58123e-07
-1.58122e-07
-1.58123e-07
-1.58122e-07
-1.58123e-07
-1.58122e-07
-1.58123e-07
-1.58122e-07
-1.58123e-07
-1.58122e-07
-1.58123e-07
-1.58122e-07
-1.58123e-07
-1.58122e-07
-1.58123e-07
-1.58122e-07
-1.58123e-07
-1.58122e-07
-1.58123e-07
-1.58122e-07
-1.58123e-07
-1.58122e-07
-1.58123e-07
-1.58122e-07
-1.58123e-07
-1.58122e-07
-1.58123e-07
-1.58122e-07
-1.58123e-07
-1.58122e-07
-1.58123e-07
-1.58122e-07
-1.58123e-07
-1.58122e-07
-1.58123e-07
-1.58122e-07
-1.58123e-07
-1.58122e-07
-1.58123e-07
-1.58122e-07
-1.58123e-07
-1.58122e-07
-1.58123e-07
-1.58122e-07
-1.58123e-07
-1.58122e-07
-1.58123e-07
-1.58122e-07
-1.58123e-07
-1.58122e-07
-1.58123e-07
-1.58122e-07
-1.58123e-07
-1.58122e-07
-1.58123e-07
-1.58122e-07
-1.58123e-07
-1.58122e-07
-1.58123e-07
-1.58122e-07
-1.58123e-07
-1.58122e-07
-1.58123e-07
-1.58122e-07
-1.58123e-07
-1.58122e-07
-1.58123e-07
-1.58122e-07
-1.58123e-07
-1.58122e-07
-1.58123e-07
-1.58122e-07
-1.58123e-07
-1.58122e-07
-1.58123e-07
-1.58122e-07
-1.58122e-07
-1.58122e-07
-1.58122e-07
-1.58122e-07
-1.58122e-07
-1.58122e-07
-1.58122e-07
-1.58122e-07
-1.58122e-07
-1.58122e-07
-1.58122e-07
-1.58122e-07
-1.58122e-07
-1.58122e-07
-1.58122e-07
-1.58122e-07
-1.58122e-07
-1.58122e-07
-1.58122e-07
-1.58122e-07
-1.58105e-07
-1.57398e-07
-1.32486e-07
)
;

boundaryField
{
    inandouthalf11
    {
        type            cyclic;
        value           nonuniform List<scalar> 
100
(
-1.24835e-42
-1.24836e-42
-1.24833e-42
-1.24825e-42
-1.2481e-42
-1.2479e-42
-1.24762e-42
-1.24728e-42
-1.24686e-42
-1.24638e-42
-1.24582e-42
-1.24519e-42
-1.24448e-42
-1.2437e-42
-1.24284e-42
-1.24191e-42
-1.24091e-42
-1.23984e-42
-1.23869e-42
-1.23749e-42
-1.23621e-42
-1.23487e-42
-1.23347e-42
-1.23201e-42
-1.23049e-42
-1.22891e-42
-1.22727e-42
-1.22557e-42
-1.22382e-42
-1.222e-42
-1.22013e-42
-1.21819e-42
-1.2162e-42
-1.21414e-42
-1.21201e-42
-1.20981e-42
-1.20754e-42
-1.20519e-42
-1.20276e-42
-1.20023e-42
-1.19761e-42
-1.19489e-42
-1.19206e-42
-1.18911e-42
-1.18603e-42
-1.1828e-42
-1.17942e-42
-1.17588e-42
-1.17214e-42
-1.16819e-42
-1.16399e-42
-1.1595e-42
-1.15467e-42
-1.14941e-42
-1.14358e-42
-1.13691e-42
-1.12893e-42
-1.11859e-42
-1.10375e-42
-1.07853e-42
-1.02586e-42
-8.74773e-43
-3.04e-43
2.92424e-42
3.53669e-41
3.40419e-39
1.3802e-35
1.56572e-30
5.36264e-23
7.63743e-16
5.45419e-15
1.60235e-14
2.77836e-14
3.53117e-14
3.81732e-14
3.81863e-14
3.66772e-14
3.41653e-14
3.06811e-14
2.5996e-14
1.97661e-14
1.16652e-14
1.51104e-15
-1.06688e-14
-2.46789e-14
-4.0274e-14
-5.72709e-14
-7.55986e-14
-9.52882e-14
-1.16432e-13
-1.39133e-13
-1.63471e-13
-1.89489e-13
-2.17198e-13
-2.46597e-13
-2.7769e-13
-3.10508e-13
-3.45106e-13
-3.81574e-13
-4.20022e-13
)
;
    }
    inandouthalf12
    {
        type            cyclic;
        value           nonuniform List<scalar> 
100
(
1.24835e-42
1.24836e-42
1.24833e-42
1.24825e-42
1.2481e-42
1.2479e-42
1.24762e-42
1.24728e-42
1.24686e-42
1.24638e-42
1.24582e-42
1.24519e-42
1.24448e-42
1.2437e-42
1.24284e-42
1.24191e-42
1.24091e-42
1.23984e-42
1.23869e-42
1.23749e-42
1.23621e-42
1.23487e-42
1.23347e-42
1.23201e-42
1.23049e-42
1.22891e-42
1.22727e-42
1.22557e-42
1.22382e-42
1.222e-42
1.22013e-42
1.21819e-42
1.2162e-42
1.21414e-42
1.21201e-42
1.20981e-42
1.20754e-42
1.20519e-42
1.20276e-42
1.20023e-42
1.19761e-42
1.19489e-42
1.19206e-42
1.18911e-42
1.18603e-42
1.1828e-42
1.17942e-42
1.17588e-42
1.17214e-42
1.16819e-42
1.16399e-42
1.1595e-42
1.15467e-42
1.14941e-42
1.14358e-42
1.13691e-42
1.12893e-42
1.11859e-42
1.10375e-42
1.07853e-42
1.02586e-42
8.74773e-43
3.04e-43
-2.92424e-42
-3.53669e-41
-3.40419e-39
-1.3802e-35
-1.56572e-30
-5.36264e-23
-7.63743e-16
-5.45419e-15
-1.60235e-14
-2.77836e-14
-3.53117e-14
-3.81732e-14
-3.81863e-14
-3.66772e-14
-3.41653e-14
-3.06811e-14
-2.5996e-14
-1.97661e-14
-1.16652e-14
-1.51104e-15
1.06688e-14
2.46789e-14
4.0274e-14
5.72709e-14
7.55986e-14
9.52882e-14
1.16432e-13
1.39133e-13
1.63471e-13
1.89489e-13
2.17198e-13
2.46597e-13
2.7769e-13
3.10508e-13
3.45106e-13
3.81574e-13
4.20022e-13
)
;
    }
    inandouthalf21
    {
        type            cyclic;
        value           nonuniform List<scalar> 
100
(
-4.6059e-13
-5.0344e-13
-5.48762e-13
-5.96779e-13
-6.47751e-13
-7.01975e-13
-7.59789e-13
-8.21565e-13
-8.87715e-13
-9.58677e-13
-1.03492e-12
-1.11693e-12
-1.20519e-12
-1.30022e-12
-1.40247e-12
-1.51242e-12
-1.63049e-12
-1.75706e-12
-1.89248e-12
-2.03702e-12
-2.19095e-12
-2.35448e-12
-2.52787e-12
-2.71144e-12
-2.90563e-12
-3.11101e-12
-3.32825e-12
-3.55787e-12
-3.79998e-12
-4.05388e-12
-4.31811e-12
-4.59109e-12
-4.87237e-12
-5.16381e-12
-5.46918e-12
-5.7918e-12
-6.13193e-12
-6.48627e-12
-6.8483e-12
-7.20257e-12
-7.51538e-12
-7.75015e-12
-7.90617e-12
-8.00735e-12
-8.07218e-12
-8.11078e-12
-8.13196e-12
-8.1471e-12
-8.17415e-12
-4.02346e-09
-1.0135e-07
-2.822e-07
-4.35482e-07
-5.69295e-07
-6.87595e-07
-7.9074e-07
-8.77885e-07
-9.47727e-07
-9.99366e-07
-1.03395e-06
-1.05579e-06
-1.07045e-06
-1.0817e-06
-1.09113e-06
-1.09936e-06
-1.10666e-06
-1.11321e-06
-1.11914e-06
-1.12456e-06
-1.12953e-06
-1.13412e-06
-1.13838e-06
-1.14235e-06
-1.14606e-06
-1.14955e-06
-1.15283e-06
-1.15593e-06
-1.15887e-06
-1.16165e-06
-1.16431e-06
-1.16684e-06
-1.16927e-06
-1.17159e-06
-1.17383e-06
-1.17597e-06
-1.17805e-06
-1.18005e-06
-1.18199e-06
-1.18386e-06
-1.18567e-06
-1.18745e-06
-1.18916e-06
-1.19083e-06
-1.19245e-06
-1.19403e-06
-1.19558e-06
-1.1971e-06
-1.19857e-06
-1.19999e-06
-1.20137e-06
)
;
    }
    inandouthalf22
    {
        type            cyclic;
        value           nonuniform List<scalar> 
100
(
4.6059e-13
5.0344e-13
5.48762e-13
5.96779e-13
6.47751e-13
7.01975e-13
7.59789e-13
8.21565e-13
8.87715e-13
9.58677e-13
1.03492e-12
1.11693e-12
1.20519e-12
1.30022e-12
1.40247e-12
1.51242e-12
1.63049e-12
1.75706e-12
1.89248e-12
2.03702e-12
2.19095e-12
2.35448e-12
2.52787e-12
2.71144e-12
2.90563e-12
3.11101e-12
3.32825e-12
3.55787e-12
3.79998e-12
4.05388e-12
4.31811e-12
4.59109e-12
4.87237e-12
5.16381e-12
5.46918e-12
5.7918e-12
6.13193e-12
6.48627e-12
6.8483e-12
7.20257e-12
7.51538e-12
7.75015e-12
7.90617e-12
8.00735e-12
8.07218e-12
8.11078e-12
8.13196e-12
8.1471e-12
8.17415e-12
4.02346e-09
1.0135e-07
2.822e-07
4.35482e-07
5.69295e-07
6.87595e-07
7.9074e-07
8.77885e-07
9.47727e-07
9.99366e-07
1.03395e-06
1.05579e-06
1.07045e-06
1.0817e-06
1.09113e-06
1.09936e-06
1.10666e-06
1.11321e-06
1.11914e-06
1.12456e-06
1.12953e-06
1.13412e-06
1.13838e-06
1.14235e-06
1.14606e-06
1.14955e-06
1.15283e-06
1.15593e-06
1.15887e-06
1.16165e-06
1.16431e-06
1.16684e-06
1.16927e-06
1.17159e-06
1.17383e-06
1.17597e-06
1.17805e-06
1.18005e-06
1.18199e-06
1.18386e-06
1.18567e-06
1.18745e-06
1.18916e-06
1.19083e-06
1.19245e-06
1.19403e-06
1.19558e-06
1.1971e-06
1.19857e-06
1.19999e-06
1.20137e-06
)
;
    }
    inandouthalf31
    {
        type            cyclic;
        value           nonuniform List<scalar> 
110
(
-1.20273e-06
-1.22853e-06
-1.25488e-06
-1.28176e-06
-1.30918e-06
-1.33719e-06
-1.36584e-06
-1.39511e-06
-1.42497e-06
-1.45544e-06
-1.48659e-06
-1.51844e-06
-1.55093e-06
-1.58409e-06
-1.61802e-06
-1.65272e-06
-1.68811e-06
-1.72422e-06
-1.76117e-06
-1.79899e-06
-1.83759e-06
-1.87699e-06
-1.91731e-06
-1.95853e-06
-2.00061e-06
-2.04369e-06
-2.08777e-06
-2.13274e-06
-2.17874e-06
-2.22586e-06
-2.27397e-06
-2.32314e-06
-2.37349e-06
-2.42495e-06
-2.47755e-06
-2.5313e-06
-2.5862e-06
-2.64228e-06
-2.69938e-06
-2.75736e-06
-2.81609e-06
-2.87545e-06
-2.93632e-06
-3.2404e-06
-3.30627e-06
-3.37338e-06
-3.44186e-06
-3.51172e-06
-3.583e-06
-3.65573e-06
-3.72994e-06
-3.80565e-06
-3.88289e-06
-3.96171e-06
-4.04212e-06
-4.12417e-06
-4.20788e-06
-4.29329e-06
-4.38043e-06
-4.46934e-06
-4.56006e-06
-4.65261e-06
-4.74705e-06
-4.8434e-06
-4.94171e-06
-5.04201e-06
-5.14435e-06
-5.24877e-06
-5.35531e-06
-5.464e-06
-5.57491e-06
-5.68806e-06
-5.80352e-06
-5.92131e-06
-6.0415e-06
-6.16413e-06
-6.28924e-06
-6.4169e-06
-6.54714e-06
-6.68003e-06
-6.81562e-06
-6.95396e-06
-7.0951e-06
-7.23912e-06
-7.38605e-06
-7.53597e-06
-7.68893e-06
-7.84499e-06
-8.00423e-06
-8.16669e-06
-8.33245e-06
-8.50158e-06
-8.67414e-06
-8.8502e-06
-9.02983e-06
-9.21312e-06
-9.40012e-06
-9.59092e-06
-9.78559e-06
-9.98421e-06
-1.01869e-05
-1.03936e-05
-1.06046e-05
-1.08198e-05
-1.10394e-05
-1.12635e-05
-1.14921e-05
-1.17254e-05
-1.19634e-05
-1.22062e-05
)
;
    }
    inandouthalf32
    {
        type            cyclic;
        value           nonuniform List<scalar> 
110
(
1.20273e-06
1.22853e-06
1.25488e-06
1.28176e-06
1.30918e-06
1.33719e-06
1.36584e-06
1.39511e-06
1.42497e-06
1.45544e-06
1.48659e-06
1.51844e-06
1.55093e-06
1.58409e-06
1.61802e-06
1.65272e-06
1.68811e-06
1.72422e-06
1.76117e-06
1.79899e-06
1.83759e-06
1.87699e-06
1.91731e-06
1.95853e-06
2.00061e-06
2.04369e-06
2.08777e-06
2.13274e-06
2.17874e-06
2.22586e-06
2.27397e-06
2.32314e-06
2.37349e-06
2.42495e-06
2.47755e-06
2.5313e-06
2.5862e-06
2.64228e-06
2.69938e-06
2.75736e-06
2.81609e-06
2.87545e-06
2.93632e-06
3.2404e-06
3.30627e-06
3.37338e-06
3.44186e-06
3.51172e-06
3.583e-06
3.65573e-06
3.72994e-06
3.80565e-06
3.88289e-06
3.96171e-06
4.04212e-06
4.12417e-06
4.20788e-06
4.29329e-06
4.38043e-06
4.46934e-06
4.56006e-06
4.65261e-06
4.74705e-06
4.8434e-06
4.94171e-06
5.04201e-06
5.14435e-06
5.24877e-06
5.35531e-06
5.464e-06
5.57491e-06
5.68806e-06
5.80352e-06
5.92131e-06
6.0415e-06
6.16413e-06
6.28924e-06
6.4169e-06
6.54714e-06
6.68003e-06
6.81562e-06
6.95396e-06
7.0951e-06
7.23912e-06
7.38605e-06
7.53597e-06
7.68893e-06
7.84499e-06
8.00423e-06
8.16669e-06
8.33245e-06
8.50158e-06
8.67414e-06
8.8502e-06
9.02983e-06
9.21312e-06
9.40012e-06
9.59092e-06
9.78559e-06
9.98421e-06
1.01869e-05
1.03936e-05
1.06046e-05
1.08198e-05
1.10394e-05
1.12635e-05
1.14921e-05
1.17254e-05
1.19634e-05
1.22062e-05
)
;
    }
    inandouthalf41
    {
        type            cyclic;
        value           nonuniform List<scalar> 
50
(
-1.09258e-05
-1.09258e-05
-1.09258e-05
-1.09258e-05
-1.09258e-05
-1.09258e-05
-1.09258e-05
-1.09258e-05
-1.09258e-05
-1.09258e-05
-1.09258e-05
-1.09258e-05
-1.09258e-05
-1.09258e-05
-1.09258e-05
-1.09258e-05
-1.09258e-05
-1.09258e-05
-1.09258e-05
-1.09258e-05
-1.09258e-05
-1.09258e-05
-1.09258e-05
-1.09258e-05
-1.09258e-05
-1.09258e-05
-1.09258e-05
-1.09258e-05
-1.09258e-05
-1.09258e-05
-1.09258e-05
-1.09258e-05
-1.09258e-05
-1.09258e-05
-1.09258e-05
-1.09258e-05
-1.09258e-05
-1.09258e-05
-1.09258e-05
-1.09258e-05
-1.09258e-05
-1.09258e-05
-1.09258e-05
-1.09258e-05
-1.09258e-05
-1.09258e-05
-1.09258e-05
-1.09258e-05
-1.0926e-05
-1.09292e-05
)
;
    }
    inandouthalf42
    {
        type            cyclic;
        value           nonuniform List<scalar> 
50
(
1.09258e-05
1.09258e-05
1.09258e-05
1.09258e-05
1.09258e-05
1.09258e-05
1.09258e-05
1.09258e-05
1.09258e-05
1.09258e-05
1.09258e-05
1.09258e-05
1.09258e-05
1.09258e-05
1.09258e-05
1.09258e-05
1.09258e-05
1.09258e-05
1.09258e-05
1.09258e-05
1.09258e-05
1.09258e-05
1.09258e-05
1.09258e-05
1.09258e-05
1.09258e-05
1.09258e-05
1.09258e-05
1.09258e-05
1.09258e-05
1.09258e-05
1.09258e-05
1.09258e-05
1.09258e-05
1.09258e-05
1.09258e-05
1.09258e-05
1.09258e-05
1.09258e-05
1.09258e-05
1.09258e-05
1.09258e-05
1.09258e-05
1.09258e-05
1.09258e-05
1.09258e-05
1.09258e-05
1.09258e-05
1.0926e-05
1.09292e-05
)
;
    }
    top
    {
        type            symmetryPlane;
        value           uniform 0;
    }
    walls
    {
        type            fixedValue;
        value           uniform 0;
    }
    frontAndBackPlanes
    {
        type            empty;
        value           nonuniform 0();
    }
}


// ************************************************************************* //
