/*--------------------------------*- C++ -*----------------------------------*\
| =========                 |                                                 |
| \\      /  F ield         | OpenFOAM: The Open Source CFD Toolbox           |
|  \\    /   O peration     | Version:  2.4.x                                 |
|   \\  /    A nd           | Web:      www.OpenFOAM.org                      |
|    \\/     M anipulation  |                                                 |
\*---------------------------------------------------------------------------*/
FoamFile
{
    version     2.0;
    format      ascii;
    class       surfaceScalarField;
    location    "2";
    object      phia;
}
// * * * * * * * * * * * * * * * * * * * * * * * * * * * * * * * * * * * * * //

dimensions      [0 3 -1 0 0 0 0];

internalField   nonuniform List<scalar> 
359
(
-3.81395e-41
-3.81357e-41
-3.8141e-41
-3.81499e-41
-3.81631e-41
-3.8181e-41
-3.82038e-41
-3.82317e-41
-3.82648e-41
-3.83034e-41
-3.83477e-41
-3.83976e-41
-3.84533e-41
-3.85149e-41
-3.85824e-41
-3.86558e-41
-3.87349e-41
-3.88198e-41
-3.89103e-41
-3.90064e-41
-3.91081e-41
-3.92152e-41
-3.93277e-41
-3.94455e-41
-3.95683e-41
-3.96962e-41
-3.98291e-41
-3.9967e-41
-4.011e-41
-4.02581e-41
-4.04111e-41
-4.05694e-41
-4.07328e-41
-4.09017e-41
-4.10762e-41
-4.12565e-41
-4.1443e-41
-4.1636e-41
-4.18362e-41
-4.20437e-41
-4.22592e-41
-4.24833e-41
-4.27165e-41
-4.29599e-41
-4.32144e-41
-4.34811e-41
-4.37613e-41
-4.40563e-41
-4.43688e-41
-4.47018e-41
-4.50582e-41
-4.5443e-41
-4.58632e-41
-4.63296e-41
-4.6862e-41
-4.74954e-41
-4.83055e-41
-4.94479e-41
-5.13375e-41
-5.51536e-41
-6.58784e-41
-1.06411e-40
-3.37332e-40
-2.67995e-39
-2.63564e-37
-1.18881e-33
-1.55323e-28
-6.25945e-21
-9.60741e-14
-9.02455e-13
-3.61207e-12
-8.51223e-12
-1.4089e-11
-1.87724e-11
-2.21978e-11
-2.47155e-11
-2.67332e-11
-2.85402e-11
-3.03217e-11
-3.21925e-11
-3.42103e-11
-3.63807e-11
-3.86663e-11
-4.10085e-11
-4.33528e-11
-4.56646e-11
-4.79329e-11
-5.01627e-11
-5.2367e-11
-5.45588e-11
-5.67469e-11
-5.89351e-11
-6.11232e-11
-6.33092e-11
-6.54909e-11
-6.76678e-11
-6.98408e-11
-7.20125e-11
-7.41861e-11
-7.63655e-11
-7.85549e-11
-8.07589e-11
-8.29821e-11
-8.523e-11
-8.75078e-11
-8.98215e-11
-9.21767e-11
-9.4579e-11
-9.70335e-11
-9.95448e-11
-1.02117e-10
-1.04751e-10
-1.07451e-10
-1.10214e-10
-1.13041e-10
-1.15927e-10
-1.18867e-10
-1.21857e-10
-1.24887e-10
-1.2795e-10
-1.31038e-10
-1.34141e-10
-1.37252e-10
-1.40364e-10
-1.43475e-10
-1.4658e-10
-1.49677e-10
-1.52756e-10
-1.55802e-10
-1.58791e-10
-1.61693e-10
-1.6449e-10
-1.67181e-10
-1.69788e-10
-1.72335e-10
-1.74823e-10
-1.77222e-10
-1.79483e-10
-1.81548e-10
-1.83312e-10
-1.84629e-10
-1.85427e-10
-1.85877e-10
-1.86134e-10
-1.86276e-10
-1.86345e-10
-1.86375e-10
-1.86378e-10
-1.95039e-10
-4.42851e-09
-1.26052e-08
-1.52832e-08
-1.36789e-08
-9.12896e-09
-3.06688e-09
3.35878e-09
9.36119e-09
1.42575e-08
1.74688e-08
1.86484e-08
1.7688e-08
1.556e-08
1.34002e-08
1.13563e-08
9.53119e-09
7.8961e-09
6.42432e-09
5.11467e-09
3.91211e-09
2.8317e-09
1.82892e-09
9.1915e-10
6.48203e-11
-7.17347e-10
-1.45495e-09
-2.1375e-09
-2.78747e-09
-3.39158e-09
-3.96804e-09
-4.51453e-09
-5.03192e-09
-5.53032e-09
-6.00244e-09
-6.4604e-09
-6.89607e-09
-7.32111e-09
-7.72887e-09
-8.12721e-09
-8.50891e-09
-8.88453e-09
-9.25176e-09
-9.60762e-09
-9.95742e-09
-1.02963e-08
-1.06336e-08
-1.09648e-08
-1.12931e-08
-1.16112e-08
-1.19235e-08
-1.22305e-08
-1.25417e-08
-1.28578e-08
-1.31769e-08
-1.34903e-08
-1.3804e-08
-1.41305e-08
-1.44696e-08
-1.48114e-08
-1.51475e-08
-1.54896e-08
-1.58491e-08
-1.62149e-08
-1.65764e-08
-1.69482e-08
-1.73443e-08
-1.77462e-08
-1.81415e-08
-1.85472e-08
-1.89828e-08
-1.94336e-08
-1.98839e-08
-2.03499e-08
-2.08424e-08
-2.13427e-08
-2.18598e-08
-2.24141e-08
-2.29815e-08
-2.35585e-08
-2.41754e-08
-2.48206e-08
-2.54754e-08
-2.61641e-08
-2.68891e-08
-2.76345e-08
-2.8406e-08
-2.91951e-08
-3.00068e-08
-3.08148e-08
-3.15829e-08
-3.22751e-08
-3.28528e-08
-3.34193e-08
-9.53307e-08
-1.58122e-07
-1.58123e-07
-1.58122e-07
-1.58123e-07
-1.58122e-07
-1.58123e-07
-1.58122e-07
-1.58123e-07
-1.58122e-07
-1.58123e-07
-1.58122e-07
-1.58123e-07
-1.58122e-07
-1.58123e-07
-1.58122e-07
-1.58123e-07
-1.58122e-07
-1.58123e-07
-1.58122e-07
-1.58123e-07
-1.58122e-07
-1.58123e-07
-1.58122e-07
-1.58123e-07
-1.58122e-07
-1.58122e-07
-1.58122e-07
-1.58122e-07
-1.58122e-07
-1.58122e-07
-1.58122e-07
-1.58122e-07
-1.58122e-07
-1.58122e-07
-1.58122e-07
-1.58122e-07
-1.58122e-07
-1.58122e-07
-1.58122e-07
-1.58122e-07
-1.58122e-07
-1.58122e-07
-1.58122e-07
-1.58122e-07
-1.58122e-07
-1.58122e-07
-1.58122e-07
-1.58122e-07
-1.58122e-07
-1.58122e-07
-1.58122e-07
-1.58122e-07
-1.58122e-07
-1.58122e-07
-1.58122e-07
-1.58122e-07
-1.58122e-07
-1.58122e-07
-1.58122e-07
-1.58122e-07
-1.58122e-07
-1.58122e-07
-1.58122e-07
-1.58122e-07
-1.58122e-07
-1.58122e-07
-1.58122e-07
-1.58122e-07
-1.58122e-07
-1.58122e-07
-1.58122e-07
-1.58122e-07
-1.58122e-07
-1.58122e-07
-1.58122e-07
-1.58122e-07
-1.58122e-07
-1.58122e-07
-1.58122e-07
-1.58122e-07
-1.58122e-07
-1.58122e-07
-1.58122e-07
-1.58122e-07
-1.58122e-07
-1.58122e-07
-1.58122e-07
-1.58122e-07
-1.58122e-07
-1.58122e-07
-1.58122e-07
-1.58122e-07
-1.58122e-07
-1.58122e-07
-1.58122e-07
-1.58122e-07
-1.58122e-07
-1.58122e-07
-1.58122e-07
-1.58122e-07
-1.58122e-07
-1.58122e-07
-1.58122e-07
-1.58122e-07
-1.58122e-07
-1.58122e-07
-1.58122e-07
-1.58122e-07
-1.58122e-07
-1.58122e-07
-1.58122e-07
-1.58122e-07
-1.58122e-07
-1.58105e-07
-1.57398e-07
-1.32485e-07
)
;

boundaryField
{
    inandouthalf11
    {
        type            cyclic;
        value           nonuniform List<scalar> 
100
(
-1.24821e-42
-1.24822e-42
-1.24819e-42
-1.2481e-42
-1.24796e-42
-1.24775e-42
-1.24748e-42
-1.24713e-42
-1.24672e-42
-1.24623e-42
-1.24567e-42
-1.24503e-42
-1.24432e-42
-1.24354e-42
-1.24268e-42
-1.24175e-42
-1.24074e-42
-1.23967e-42
-1.23852e-42
-1.23731e-42
-1.23603e-42
-1.23469e-42
-1.23328e-42
-1.23182e-42
-1.23029e-42
-1.2287e-42
-1.22706e-42
-1.22536e-42
-1.2236e-42
-1.22177e-42
-1.21989e-42
-1.21795e-42
-1.21595e-42
-1.21388e-42
-1.21175e-42
-1.20954e-42
-1.20726e-42
-1.20491e-42
-1.20246e-42
-1.19993e-42
-1.1973e-42
-1.19457e-42
-1.19172e-42
-1.18876e-42
-1.18567e-42
-1.18243e-42
-1.17904e-42
-1.17548e-42
-1.17173e-42
-1.16776e-42
-1.16354e-42
-1.15904e-42
-1.15418e-42
-1.1489e-42
-1.14304e-42
-1.13633e-42
-1.1283e-42
-1.11788e-42
-1.1029e-42
-1.07739e-42
-1.02399e-42
-8.70366e-43
-2.88558e-43
3.01173e-42
3.62978e-41
3.57806e-39
1.46235e-35
1.69095e-30
5.92431e-23
7.74491e-16
5.52512e-15
1.6228e-14
2.81556e-14
3.58332e-14
3.88088e-14
3.89077e-14
3.74671e-14
3.50155e-14
3.15895e-14
2.69644e-14
2.0799e-14
1.27678e-14
2.688e-15
-9.41432e-15
-2.33453e-14
-3.88608e-14
-5.5778e-14
-7.40258e-14
-9.36345e-14
-1.14695e-13
-1.37312e-13
-1.61564e-13
-1.87494e-13
-2.15114e-13
-2.44422e-13
-2.75425e-13
-3.0815e-13
-3.42657e-13
-3.79032e-13
-4.17387e-13
)
;
    }
    inandouthalf12
    {
        type            cyclic;
        value           nonuniform List<scalar> 
100
(
1.24821e-42
1.24822e-42
1.24819e-42
1.2481e-42
1.24796e-42
1.24775e-42
1.24748e-42
1.24713e-42
1.24672e-42
1.24623e-42
1.24567e-42
1.24503e-42
1.24432e-42
1.24354e-42
1.24268e-42
1.24175e-42
1.24074e-42
1.23967e-42
1.23852e-42
1.23731e-42
1.23603e-42
1.23469e-42
1.23328e-42
1.23182e-42
1.23029e-42
1.2287e-42
1.22706e-42
1.22536e-42
1.2236e-42
1.22177e-42
1.21989e-42
1.21795e-42
1.21595e-42
1.21388e-42
1.21175e-42
1.20954e-42
1.20726e-42
1.20491e-42
1.20246e-42
1.19993e-42
1.1973e-42
1.19457e-42
1.19172e-42
1.18876e-42
1.18567e-42
1.18243e-42
1.17904e-42
1.17548e-42
1.17173e-42
1.16776e-42
1.16354e-42
1.15904e-42
1.15418e-42
1.1489e-42
1.14304e-42
1.13633e-42
1.1283e-42
1.11788e-42
1.1029e-42
1.07739e-42
1.02399e-42
8.70366e-43
2.88558e-43
-3.01173e-42
-3.62978e-41
-3.57806e-39
-1.46235e-35
-1.69095e-30
-5.92431e-23
-7.74491e-16
-5.52512e-15
-1.6228e-14
-2.81556e-14
-3.58332e-14
-3.88088e-14
-3.89077e-14
-3.74671e-14
-3.50155e-14
-3.15895e-14
-2.69644e-14
-2.0799e-14
-1.27678e-14
-2.688e-15
9.41432e-15
2.33453e-14
3.88608e-14
5.5778e-14
7.40258e-14
9.36345e-14
1.14695e-13
1.37312e-13
1.61564e-13
1.87494e-13
2.15114e-13
2.44422e-13
2.75425e-13
3.0815e-13
3.42657e-13
3.79032e-13
4.17387e-13
)
;
    }
    inandouthalf21
    {
        type            cyclic;
        value           nonuniform List<scalar> 
100
(
-4.57861e-13
-5.00615e-13
-5.4584e-13
-5.9376e-13
-6.44634e-13
-6.98758e-13
-7.56471e-13
-8.18144e-13
-8.84189e-13
-9.55043e-13
-1.03118e-12
-1.11307e-12
-1.20122e-12
-1.29611e-12
-1.39823e-12
-1.50804e-12
-1.62596e-12
-1.75237e-12
-1.88761e-12
-2.03197e-12
-2.18569e-12
-2.34901e-12
-2.52217e-12
-2.70549e-12
-2.89941e-12
-3.10451e-12
-3.32144e-12
-3.55075e-12
-3.79251e-12
-4.04605e-12
-4.30992e-12
-4.58253e-12
-4.86344e-12
-5.1545e-12
-5.45946e-12
-5.78167e-12
-6.12134e-12
-6.47521e-12
-6.83678e-12
-7.19062e-12
-7.50308e-12
-7.7376e-12
-7.89348e-12
-7.99458e-12
-8.05937e-12
-8.09795e-12
-8.11911e-12
-8.13423e-12
-8.16123e-12
-3.99808e-09
-1.01267e-07
-2.8206e-07
-4.35294e-07
-5.69071e-07
-6.87347e-07
-7.90481e-07
-8.77629e-07
-9.47486e-07
-9.99152e-07
-1.03377e-06
-1.05563e-06
-1.07029e-06
-1.08155e-06
-1.09098e-06
-1.09921e-06
-1.10651e-06
-1.11306e-06
-1.119e-06
-1.12441e-06
-1.12938e-06
-1.13398e-06
-1.13824e-06
-1.14221e-06
-1.14592e-06
-1.1494e-06
-1.15268e-06
-1.15579e-06
-1.15872e-06
-1.16151e-06
-1.16417e-06
-1.1667e-06
-1.16913e-06
-1.17145e-06
-1.17368e-06
-1.17583e-06
-1.17791e-06
-1.17991e-06
-1.18185e-06
-1.18372e-06
-1.18553e-06
-1.18731e-06
-1.18902e-06
-1.19069e-06
-1.19231e-06
-1.19389e-06
-1.19544e-06
-1.19696e-06
-1.19843e-06
-1.19985e-06
-1.20123e-06
)
;
    }
    inandouthalf22
    {
        type            cyclic;
        value           nonuniform List<scalar> 
100
(
4.57861e-13
5.00615e-13
5.4584e-13
5.9376e-13
6.44634e-13
6.98758e-13
7.56471e-13
8.18144e-13
8.84189e-13
9.55043e-13
1.03118e-12
1.11307e-12
1.20122e-12
1.29611e-12
1.39823e-12
1.50804e-12
1.62596e-12
1.75237e-12
1.88761e-12
2.03197e-12
2.18569e-12
2.34901e-12
2.52217e-12
2.70549e-12
2.89941e-12
3.10451e-12
3.32144e-12
3.55075e-12
3.79251e-12
4.04605e-12
4.30992e-12
4.58253e-12
4.86344e-12
5.1545e-12
5.45946e-12
5.78167e-12
6.12134e-12
6.47521e-12
6.83678e-12
7.19062e-12
7.50308e-12
7.7376e-12
7.89348e-12
7.99458e-12
8.05937e-12
8.09795e-12
8.11911e-12
8.13423e-12
8.16123e-12
3.99808e-09
1.01267e-07
2.8206e-07
4.35294e-07
5.69071e-07
6.87347e-07
7.90481e-07
8.77629e-07
9.47486e-07
9.99152e-07
1.03377e-06
1.05563e-06
1.07029e-06
1.08155e-06
1.09098e-06
1.09921e-06
1.10651e-06
1.11306e-06
1.119e-06
1.12441e-06
1.12938e-06
1.13398e-06
1.13824e-06
1.14221e-06
1.14592e-06
1.1494e-06
1.15268e-06
1.15579e-06
1.15872e-06
1.16151e-06
1.16417e-06
1.1667e-06
1.16913e-06
1.17145e-06
1.17368e-06
1.17583e-06
1.17791e-06
1.17991e-06
1.18185e-06
1.18372e-06
1.18553e-06
1.18731e-06
1.18902e-06
1.19069e-06
1.19231e-06
1.19389e-06
1.19544e-06
1.19696e-06
1.19843e-06
1.19985e-06
1.20123e-06
)
;
    }
    inandouthalf31
    {
        type            cyclic;
        value           nonuniform List<scalar> 
110
(
-1.20259e-06
-1.22839e-06
-1.25474e-06
-1.28162e-06
-1.30903e-06
-1.33704e-06
-1.36569e-06
-1.39496e-06
-1.42482e-06
-1.45528e-06
-1.48642e-06
-1.51827e-06
-1.55076e-06
-1.58391e-06
-1.61784e-06
-1.65254e-06
-1.68793e-06
-1.72403e-06
-1.76097e-06
-1.79879e-06
-1.83739e-06
-1.87679e-06
-1.91711e-06
-1.95832e-06
-2.0004e-06
-2.04347e-06
-2.08754e-06
-2.13251e-06
-2.17851e-06
-2.22562e-06
-2.27373e-06
-2.32289e-06
-2.37324e-06
-2.4247e-06
-2.47729e-06
-2.53103e-06
-2.58594e-06
-2.64201e-06
-2.6991e-06
-2.75708e-06
-2.8158e-06
-2.87515e-06
-2.93602e-06
-3.2401e-06
-3.30595e-06
-3.37306e-06
-3.44153e-06
-3.51139e-06
-3.58266e-06
-3.65539e-06
-3.72958e-06
-3.80529e-06
-3.88252e-06
-3.96133e-06
-4.04174e-06
-4.12377e-06
-4.20748e-06
-4.29288e-06
-4.38001e-06
-4.46891e-06
-4.55962e-06
-4.65217e-06
-4.7466e-06
-4.84294e-06
-4.94124e-06
-5.04153e-06
-5.14386e-06
-5.24827e-06
-5.3548e-06
-5.46348e-06
-5.57438e-06
-5.68752e-06
-5.80297e-06
-5.92075e-06
-6.04093e-06
-6.16354e-06
-6.28864e-06
-6.41629e-06
-6.54652e-06
-6.6794e-06
-6.81497e-06
-6.9533e-06
-7.09443e-06
-7.23843e-06
-7.38535e-06
-7.53525e-06
-7.6882e-06
-7.84425e-06
-8.00346e-06
-8.16591e-06
-8.33166e-06
-8.50077e-06
-8.67331e-06
-8.84936e-06
-9.02898e-06
-9.21224e-06
-9.39923e-06
-9.59e-06
-9.78466e-06
-9.98326e-06
-1.01859e-05
-1.03926e-05
-1.06036e-05
-1.08188e-05
-1.10384e-05
-1.12624e-05
-1.1491e-05
-1.17243e-05
-1.19623e-05
-1.22051e-05
)
;
    }
    inandouthalf32
    {
        type            cyclic;
        value           nonuniform List<scalar> 
110
(
1.20259e-06
1.22839e-06
1.25474e-06
1.28162e-06
1.30903e-06
1.33704e-06
1.36569e-06
1.39496e-06
1.42482e-06
1.45528e-06
1.48642e-06
1.51827e-06
1.55076e-06
1.58391e-06
1.61784e-06
1.65254e-06
1.68793e-06
1.72403e-06
1.76097e-06
1.79879e-06
1.83739e-06
1.87679e-06
1.91711e-06
1.95832e-06
2.0004e-06
2.04347e-06
2.08754e-06
2.13251e-06
2.17851e-06
2.22562e-06
2.27373e-06
2.32289e-06
2.37324e-06
2.4247e-06
2.47729e-06
2.53103e-06
2.58594e-06
2.64201e-06
2.6991e-06
2.75708e-06
2.8158e-06
2.87515e-06
2.93602e-06
3.2401e-06
3.30595e-06
3.37306e-06
3.44153e-06
3.51139e-06
3.58266e-06
3.65539e-06
3.72958e-06
3.80529e-06
3.88252e-06
3.96133e-06
4.04174e-06
4.12377e-06
4.20748e-06
4.29288e-06
4.38001e-06
4.46891e-06
4.55962e-06
4.65217e-06
4.7466e-06
4.84294e-06
4.94124e-06
5.04153e-06
5.14386e-06
5.24827e-06
5.3548e-06
5.46348e-06
5.57438e-06
5.68752e-06
5.80297e-06
5.92075e-06
6.04093e-06
6.16354e-06
6.28864e-06
6.41629e-06
6.54652e-06
6.6794e-06
6.81497e-06
6.9533e-06
7.09443e-06
7.23843e-06
7.38535e-06
7.53525e-06
7.6882e-06
7.84425e-06
8.00346e-06
8.16591e-06
8.33166e-06
8.50077e-06
8.67331e-06
8.84936e-06
9.02898e-06
9.21224e-06
9.39923e-06
9.59e-06
9.78466e-06
9.98326e-06
1.01859e-05
1.03926e-05
1.06036e-05
1.08188e-05
1.10384e-05
1.12624e-05
1.1491e-05
1.17243e-05
1.19623e-05
1.22051e-05
)
;
    }
    inandouthalf41
    {
        type            cyclic;
        value           nonuniform List<scalar> 
50
(
-1.09248e-05
-1.09248e-05
-1.09248e-05
-1.09248e-05
-1.09248e-05
-1.09248e-05
-1.09248e-05
-1.09248e-05
-1.09248e-05
-1.09248e-05
-1.09248e-05
-1.09248e-05
-1.09248e-05
-1.09248e-05
-1.09248e-05
-1.09248e-05
-1.09248e-05
-1.09248e-05
-1.09248e-05
-1.09248e-05
-1.09248e-05
-1.09248e-05
-1.09248e-05
-1.09248e-05
-1.09248e-05
-1.09248e-05
-1.09248e-05
-1.09248e-05
-1.09248e-05
-1.09248e-05
-1.09248e-05
-1.09248e-05
-1.09248e-05
-1.09248e-05
-1.09248e-05
-1.09248e-05
-1.09248e-05
-1.09248e-05
-1.09248e-05
-1.09248e-05
-1.09248e-05
-1.09248e-05
-1.09248e-05
-1.09248e-05
-1.09248e-05
-1.09248e-05
-1.09248e-05
-1.09248e-05
-1.09249e-05
-1.09282e-05
)
;
    }
    inandouthalf42
    {
        type            cyclic;
        value           nonuniform List<scalar> 
50
(
1.09248e-05
1.09248e-05
1.09248e-05
1.09248e-05
1.09248e-05
1.09248e-05
1.09248e-05
1.09248e-05
1.09248e-05
1.09248e-05
1.09248e-05
1.09248e-05
1.09248e-05
1.09248e-05
1.09248e-05
1.09248e-05
1.09248e-05
1.09248e-05
1.09248e-05
1.09248e-05
1.09248e-05
1.09248e-05
1.09248e-05
1.09248e-05
1.09248e-05
1.09248e-05
1.09248e-05
1.09248e-05
1.09248e-05
1.09248e-05
1.09248e-05
1.09248e-05
1.09248e-05
1.09248e-05
1.09248e-05
1.09248e-05
1.09248e-05
1.09248e-05
1.09248e-05
1.09248e-05
1.09248e-05
1.09248e-05
1.09248e-05
1.09248e-05
1.09248e-05
1.09248e-05
1.09248e-05
1.09248e-05
1.09249e-05
1.09282e-05
)
;
    }
    top
    {
        type            symmetryPlane;
        value           uniform 0;
    }
    walls
    {
        type            fixedValue;
        value           uniform 0;
    }
    frontAndBackPlanes
    {
        type            empty;
        value           nonuniform 0();
    }
}


// ************************************************************************* //
