/*--------------------------------*- C++ -*----------------------------------*\
| =========                 |                                                 |
| \\      /  F ield         | OpenFOAM: The Open Source CFD Toolbox           |
|  \\    /   O peration     | Version:  2.4.x                                 |
|   \\  /    A nd           | Web:      www.OpenFOAM.org                      |
|    \\/     M anipulation  |                                                 |
\*---------------------------------------------------------------------------*/
FoamFile
{
    version     2.0;
    format      ascii;
    class       surfaceScalarField;
    location    "2";
    object      phib;
}
// * * * * * * * * * * * * * * * * * * * * * * * * * * * * * * * * * * * * * //

dimensions      [0 3 -1 0 0 0 0];

internalField   nonuniform List<scalar> 
359
(
4.57663e-19
9.17342e-19
1.37795e-18
1.83984e-18
2.30194e-18
2.76358e-18
3.22568e-18
3.68775e-18
4.14692e-18
4.60984e-18
5.06968e-18
5.52853e-18
5.98544e-18
6.44528e-18
6.9024e-18
7.35869e-18
7.81357e-18
8.26858e-18
8.72099e-18
9.17574e-18
9.62413e-18
1.00749e-17
1.05203e-17
1.0968e-17
1.14111e-17
1.18535e-17
1.22913e-17
1.2731e-17
1.31659e-17
1.36033e-17
1.40355e-17
1.44697e-17
1.48953e-17
1.53254e-17
1.57505e-17
1.61741e-17
1.65944e-17
1.70143e-17
1.74308e-17
1.78462e-17
1.82566e-17
1.86697e-17
1.90745e-17
1.94824e-17
1.98825e-17
2.02836e-17
2.06801e-17
2.10762e-17
2.14675e-17
2.18583e-17
2.22436e-17
2.26301e-17
2.30107e-17
2.33925e-17
2.37642e-17
2.41408e-17
2.45061e-17
2.48776e-17
2.52379e-17
2.56015e-17
2.59573e-17
2.63138e-17
2.66622e-17
2.7013e-17
2.73542e-17
2.7699e-17
2.80346e-17
2.8384e-17
1.49711e-13
1.40567e-12
5.62518e-12
1.32558e-11
2.19411e-11
2.92345e-11
3.45662e-11
3.84811e-11
4.16146e-11
4.44175e-11
4.71787e-11
5.00776e-11
5.32039e-11
5.65664e-11
6.01071e-11
6.37345e-11
6.73634e-11
7.09399e-11
7.44467e-11
7.78915e-11
8.12945e-11
8.46758e-11
8.80494e-11
9.14209e-11
9.47901e-11
9.81537e-11
1.01508e-10
1.04853e-10
1.08189e-10
1.11521e-10
1.14853e-10
1.18191e-10
1.21541e-10
1.24912e-10
1.28309e-10
1.3174e-10
1.35215e-10
1.38742e-10
1.42329e-10
1.45986e-10
1.49719e-10
1.53535e-10
1.5744e-10
1.61439e-10
1.65531e-10
1.69718e-10
1.73995e-10
1.78359e-10
1.82801e-10
1.87311e-10
1.91877e-10
1.96487e-10
2.01127e-10
2.05782e-10
2.1044e-10
2.15093e-10
2.19732e-10
2.24353e-10
2.2895e-10
2.33509e-10
2.38005e-10
2.424e-10
2.46653e-10
2.5073e-10
2.54631e-10
2.58385e-10
2.62027e-10
2.65564e-10
2.68947e-10
2.72096e-10
2.74909e-10
2.77238e-10
2.78908e-10
2.7978e-10
2.80017e-10
2.79818e-10
2.79283e-10
2.78443e-10
2.77262e-10
2.75336e-10
2.65381e-10
2.59417e-09
1.7078e-09
7.61259e-10
4.7422e-10
2.53404e-10
7.03705e-11
-6.21624e-11
-1.30515e-10
-1.34129e-10
-9.59253e-11
-5.06967e-11
-2.07513e-11
-7.94543e-12
-3.6705e-12
-2.07226e-12
-1.30516e-12
-8.4313e-13
-5.58224e-13
-3.67626e-13
-2.35905e-13
-1.45621e-13
-8.07595e-14
-3.51285e-14
-2.13697e-15
2.10246e-14
3.74793e-14
4.85944e-14
5.61947e-14
6.13227e-14
6.33131e-14
6.49542e-14
6.46297e-14
6.38434e-14
6.24031e-14
6.04828e-14
5.83555e-14
5.57031e-14
5.32388e-14
5.08464e-14
4.84722e-14
4.51728e-14
4.3034e-14
4.06281e-14
3.84465e-14
3.6128e-14
3.35691e-14
3.1419e-14
2.9617e-14
2.81524e-14
2.64668e-14
2.44252e-14
2.23334e-14
2.08356e-14
1.97426e-14
1.88891e-14
1.72896e-14
1.54846e-14
1.41886e-14
1.34699e-14
1.26942e-14
1.13723e-14
1.0192e-14
9.58106e-15
8.93866e-15
7.86284e-15
6.97826e-15
6.5854e-15
6.1319e-15
5.35752e-15
4.65568e-15
4.29582e-15
3.9438e-15
3.43656e-15
3.05282e-15
2.79242e-15
2.41383e-15
2.09531e-15
1.92722e-15
1.68627e-15
1.42759e-15
1.28235e-15
1.13528e-15
9.54528e-16
8.30675e-16
7.1991e-16
6.1817e-16
5.29267e-16
4.46217e-16
4.0095e-16
3.75311e-16
3.69957e-16
3.69657e-16
3.80838e-16
6.34832e-16
1.56603e-16
2.66066e-17
2.34358e-17
2.04945e-17
1.78725e-17
1.63731e-17
1.49929e-17
1.3769e-17
1.25066e-17
1.13202e-17
1.05677e-17
9.85201e-18
9.2218e-18
8.55491e-18
7.97013e-18
7.51377e-18
7.0673e-18
6.59614e-18
6.20655e-18
5.86499e-18
5.56026e-18
5.2938e-18
5.09761e-18
5.01247e-18
4.86593e-18
4.73893e-18
4.62843e-18
4.51838e-18
4.41537e-18
4.33548e-18
4.25433e-18
4.16636e-18
4.05844e-18
3.95574e-18
3.82838e-18
3.69475e-18
3.5488e-18
3.44605e-18
3.33185e-18
3.2161e-18
3.06672e-18
2.93038e-18
2.75718e-18
2.53341e-18
2.32174e-18
2.14144e-18
1.9372e-18
1.72834e-18
1.49401e-18
1.27437e-18
1.04078e-18
8.18264e-19
6.20439e-19
3.57245e-19
2.87069e-19
2.36358e-19
2.98281e-19
2.61777e-19
2.26219e-19
1.92144e-19
1.57656e-19
1.33825e-19
1.08072e-19
8.27511e-20
5.44401e-20
2.94989e-20
-1.73542e-21
-2.90349e-20
-5.9672e-20
-8.17486e-20
-1.09663e-19
-1.37325e-19
-1.74356e-19
-2.05064e-19
-2.47601e-19
-2.91749e-19
-3.49701e-19
-3.9791e-19
-4.65638e-19
-5.38429e-19
-6.39702e-19
-7.43133e-19
-8.91378e-19
-1.07719e-18
-1.37894e-18
-1.92363e-18
-2.6212e-18
-3.36383e-18
-4.22853e-18
-5.03821e-18
-5.99251e-18
-6.95838e-18
-8.03786e-18
-9.01413e-18
-1.00936e-17
-1.1185e-17
-1.23711e-17
-1.36003e-17
-1.4799e-17
-1.60782e-17
-1.73172e-17
-1.95361e-17
-2.13761e-17
-2.32447e-17
-2.42676e-17
-2.61061e-17
-2.6558e-17
-2.70552e-17
-2.62601e-17
-2.8197e-17
-2.78819e-17
-2.74269e-17
-2.38632e-17
-2.18237e-17
-1.68746e-17
-1.25027e-17
)
;

boundaryField
{
    inandouthalf11
    {
        type            cyclic;
        value           nonuniform List<scalar> 
100
(
1.40096e-10
1.40335e-10
1.40336e-10
1.40336e-10
1.40336e-10
1.40337e-10
1.40337e-10
1.40338e-10
1.40338e-10
1.4034e-10
1.40341e-10
1.40341e-10
1.40342e-10
1.40343e-10
1.40344e-10
1.40345e-10
1.40347e-10
1.40348e-10
1.40349e-10
1.40351e-10
1.40353e-10
1.40355e-10
1.40357e-10
1.4036e-10
1.40362e-10
1.40364e-10
1.40367e-10
1.4037e-10
1.40374e-10
1.40377e-10
1.40381e-10
1.40386e-10
1.40389e-10
1.40395e-10
1.404e-10
1.40406e-10
1.40411e-10
1.40419e-10
1.40427e-10
1.40434e-10
1.40443e-10
1.40453e-10
1.40462e-10
1.40474e-10
1.40486e-10
1.40499e-10
1.40513e-10
1.40527e-10
1.40544e-10
1.40562e-10
1.40581e-10
1.40603e-10
1.40625e-10
1.4065e-10
1.40676e-10
1.40705e-10
1.40736e-10
1.4077e-10
1.40807e-10
1.40846e-10
1.4089e-10
1.40936e-10
1.40987e-10
1.41041e-10
1.411e-10
1.41164e-10
1.41234e-10
1.4131e-10
1.41392e-10
1.41474e-10
1.41546e-10
1.41584e-10
1.41588e-10
1.41586e-10
1.41598e-10
1.41632e-10
1.4168e-10
1.41738e-10
1.41801e-10
1.41865e-10
1.41926e-10
1.41984e-10
1.42037e-10
1.42085e-10
1.42132e-10
1.42177e-10
1.42224e-10
1.42272e-10
1.4232e-10
1.42369e-10
1.42419e-10
1.42467e-10
1.42516e-10
1.42564e-10
1.42612e-10
1.42659e-10
1.42707e-10
1.42755e-10
1.42803e-10
1.42851e-10
)
;
    }
    inandouthalf12
    {
        type            cyclic;
        value           nonuniform List<scalar> 
100
(
-1.40096e-10
-1.40335e-10
-1.40336e-10
-1.40336e-10
-1.40336e-10
-1.40337e-10
-1.40337e-10
-1.40338e-10
-1.40338e-10
-1.4034e-10
-1.40341e-10
-1.40341e-10
-1.40342e-10
-1.40343e-10
-1.40344e-10
-1.40345e-10
-1.40347e-10
-1.40348e-10
-1.40349e-10
-1.40351e-10
-1.40353e-10
-1.40355e-10
-1.40357e-10
-1.4036e-10
-1.40362e-10
-1.40364e-10
-1.40367e-10
-1.4037e-10
-1.40374e-10
-1.40377e-10
-1.40381e-10
-1.40386e-10
-1.40389e-10
-1.40395e-10
-1.404e-10
-1.40406e-10
-1.40411e-10
-1.40419e-10
-1.40427e-10
-1.40434e-10
-1.40443e-10
-1.40453e-10
-1.40462e-10
-1.40474e-10
-1.40486e-10
-1.40499e-10
-1.40513e-10
-1.40527e-10
-1.40544e-10
-1.40562e-10
-1.40581e-10
-1.40603e-10
-1.40625e-10
-1.4065e-10
-1.40676e-10
-1.40705e-10
-1.40736e-10
-1.4077e-10
-1.40807e-10
-1.40846e-10
-1.4089e-10
-1.40936e-10
-1.40987e-10
-1.41041e-10
-1.411e-10
-1.41164e-10
-1.41234e-10
-1.4131e-10
-1.41392e-10
-1.41474e-10
-1.41546e-10
-1.41584e-10
-1.41588e-10
-1.41586e-10
-1.41598e-10
-1.41632e-10
-1.4168e-10
-1.41738e-10
-1.41801e-10
-1.41865e-10
-1.41926e-10
-1.41984e-10
-1.42037e-10
-1.42085e-10
-1.42132e-10
-1.42177e-10
-1.42224e-10
-1.42272e-10
-1.4232e-10
-1.42369e-10
-1.42419e-10
-1.42467e-10
-1.42516e-10
-1.42564e-10
-1.42612e-10
-1.42659e-10
-1.42707e-10
-1.42755e-10
-1.42803e-10
-1.42851e-10
)
;
    }
    inandouthalf21
    {
        type            cyclic;
        value           nonuniform List<scalar> 
100
(
1.42898e-10
1.42946e-10
1.42992e-10
1.43039e-10
1.43084e-10
1.43128e-10
1.43172e-10
1.43213e-10
1.43252e-10
1.4329e-10
1.43324e-10
1.43355e-10
1.43383e-10
1.43407e-10
1.43427e-10
1.43442e-10
1.43453e-10
1.43459e-10
1.4346e-10
1.43455e-10
1.43446e-10
1.43432e-10
1.43413e-10
1.43389e-10
1.4336e-10
1.43326e-10
1.43288e-10
1.43244e-10
1.43196e-10
1.43144e-10
1.43088e-10
1.43032e-10
1.42977e-10
1.42925e-10
1.42876e-10
1.42823e-10
1.42764e-10
1.42704e-10
1.42665e-10
1.42675e-10
1.42736e-10
1.4282e-10
1.4306e-10
1.43516e-10
1.44164e-10
1.45039e-10
1.46177e-10
1.47721e-10
1.46306e-10
-3.98548e-09
-1.02447e-07
-2.84784e-07
-4.53126e-07
-6.02289e-07
-7.33449e-07
-8.47681e-07
-9.46203e-07
-1.03025e-06
-1.10042e-06
-1.15613e-06
-1.19694e-06
-1.22522e-06
-1.24534e-06
-1.2608e-06
-1.27318e-06
-1.28338e-06
-1.29186e-06
-1.299e-06
-1.30514e-06
-1.31044e-06
-1.31511e-06
-1.31925e-06
-1.32297e-06
-1.3263e-06
-1.32933e-06
-1.33207e-06
-1.33457e-06
-1.33685e-06
-1.33894e-06
-1.34085e-06
-1.3426e-06
-1.34421e-06
-1.34568e-06
-1.34704e-06
-1.34828e-06
-1.34943e-06
-1.35049e-06
-1.35147e-06
-1.35236e-06
-1.35319e-06
-1.35395e-06
-1.35465e-06
-1.3553e-06
-1.35589e-06
-1.35644e-06
-1.35695e-06
-1.35742e-06
-1.35785e-06
-1.35825e-06
-1.35862e-06
)
;
    }
    inandouthalf22
    {
        type            cyclic;
        value           nonuniform List<scalar> 
100
(
-1.42898e-10
-1.42946e-10
-1.42992e-10
-1.43039e-10
-1.43084e-10
-1.43128e-10
-1.43172e-10
-1.43213e-10
-1.43252e-10
-1.4329e-10
-1.43324e-10
-1.43355e-10
-1.43383e-10
-1.43407e-10
-1.43427e-10
-1.43442e-10
-1.43453e-10
-1.43459e-10
-1.4346e-10
-1.43455e-10
-1.43446e-10
-1.43432e-10
-1.43413e-10
-1.43389e-10
-1.4336e-10
-1.43326e-10
-1.43288e-10
-1.43244e-10
-1.43196e-10
-1.43144e-10
-1.43088e-10
-1.43032e-10
-1.42977e-10
-1.42925e-10
-1.42876e-10
-1.42823e-10
-1.42764e-10
-1.42704e-10
-1.42665e-10
-1.42675e-10
-1.42736e-10
-1.4282e-10
-1.4306e-10
-1.43516e-10
-1.44164e-10
-1.45039e-10
-1.46177e-10
-1.47721e-10
-1.46306e-10
3.98548e-09
1.02447e-07
2.84784e-07
4.53126e-07
6.02289e-07
7.33449e-07
8.47681e-07
9.46203e-07
1.03025e-06
1.10042e-06
1.15613e-06
1.19694e-06
1.22522e-06
1.24534e-06
1.2608e-06
1.27318e-06
1.28338e-06
1.29186e-06
1.299e-06
1.30514e-06
1.31044e-06
1.31511e-06
1.31925e-06
1.32297e-06
1.3263e-06
1.32933e-06
1.33207e-06
1.33457e-06
1.33685e-06
1.33894e-06
1.34085e-06
1.3426e-06
1.34421e-06
1.34568e-06
1.34704e-06
1.34828e-06
1.34943e-06
1.35049e-06
1.35147e-06
1.35236e-06
1.35319e-06
1.35395e-06
1.35465e-06
1.3553e-06
1.35589e-06
1.35644e-06
1.35695e-06
1.35742e-06
1.35785e-06
1.35825e-06
1.35862e-06
)
;
    }
    inandouthalf31
    {
        type            cyclic;
        value           nonuniform List<scalar> 
110
(
-1.35896e-06
-1.38686e-06
-1.41532e-06
-1.44435e-06
-1.47394e-06
-1.50413e-06
-1.53492e-06
-1.56632e-06
-1.59834e-06
-1.631e-06
-1.66431e-06
-1.69829e-06
-1.73294e-06
-1.76829e-06
-1.80434e-06
-1.84112e-06
-1.87863e-06
-1.91689e-06
-1.95592e-06
-1.99573e-06
-2.03635e-06
-2.07778e-06
-2.12004e-06
-2.16315e-06
-2.20713e-06
-2.252e-06
-2.29777e-06
-2.34447e-06
-2.3921e-06
-2.4407e-06
-2.49029e-06
-2.54087e-06
-2.59248e-06
-2.64513e-06
-2.69884e-06
-2.75364e-06
-2.80956e-06
-2.8666e-06
-2.9248e-06
-2.98418e-06
-3.04477e-06
-3.10658e-06
-3.16964e-06
-3.23399e-06
-3.29963e-06
-3.36661e-06
-3.43495e-06
-3.50468e-06
-3.57582e-06
-3.6484e-06
-3.72245e-06
-3.79801e-06
-3.8751e-06
-3.95376e-06
-4.03401e-06
-4.11589e-06
-4.19943e-06
-4.28467e-06
-4.37164e-06
-4.46037e-06
-4.55091e-06
-4.64328e-06
-4.73752e-06
-4.83368e-06
-4.93179e-06
-5.0319e-06
-5.13403e-06
-5.23824e-06
-5.34456e-06
-5.45304e-06
-5.56372e-06
-5.67665e-06
-5.79187e-06
-5.90943e-06
-6.02938e-06
-6.15176e-06
-6.27662e-06
-6.40402e-06
-6.53401e-06
-6.66663e-06
-6.80194e-06
-6.94e-06
-7.08087e-06
-7.22459e-06
-7.37123e-06
-7.52085e-06
-7.6735e-06
-7.82925e-06
-7.98817e-06
-8.1503e-06
-8.31573e-06
-8.48452e-06
-8.65673e-06
-8.83244e-06
-9.01172e-06
-9.19463e-06
-9.38126e-06
-9.57167e-06
-9.76595e-06
-9.96417e-06
-1.01664e-05
-1.03728e-05
-1.05833e-05
-1.07981e-05
-1.10173e-05
-1.12409e-05
-1.14691e-05
-1.17019e-05
-1.19394e-05
-1.21817e-05
)
;
    }
    inandouthalf32
    {
        type            cyclic;
        value           nonuniform List<scalar> 
110
(
1.35896e-06
1.38686e-06
1.41532e-06
1.44435e-06
1.47394e-06
1.50413e-06
1.53492e-06
1.56632e-06
1.59834e-06
1.631e-06
1.66431e-06
1.69829e-06
1.73294e-06
1.76829e-06
1.80434e-06
1.84112e-06
1.87863e-06
1.91689e-06
1.95592e-06
1.99573e-06
2.03635e-06
2.07778e-06
2.12004e-06
2.16315e-06
2.20713e-06
2.252e-06
2.29777e-06
2.34447e-06
2.3921e-06
2.4407e-06
2.49029e-06
2.54087e-06
2.59248e-06
2.64513e-06
2.69884e-06
2.75364e-06
2.80956e-06
2.8666e-06
2.9248e-06
2.98418e-06
3.04477e-06
3.10658e-06
3.16964e-06
3.23399e-06
3.29963e-06
3.36661e-06
3.43495e-06
3.50468e-06
3.57582e-06
3.6484e-06
3.72245e-06
3.79801e-06
3.8751e-06
3.95376e-06
4.03401e-06
4.11589e-06
4.19943e-06
4.28467e-06
4.37164e-06
4.46037e-06
4.55091e-06
4.64328e-06
4.73752e-06
4.83368e-06
4.93179e-06
5.0319e-06
5.13403e-06
5.23824e-06
5.34456e-06
5.45304e-06
5.56372e-06
5.67665e-06
5.79187e-06
5.90943e-06
6.02938e-06
6.15176e-06
6.27662e-06
6.40402e-06
6.53401e-06
6.66663e-06
6.80194e-06
6.94e-06
7.08087e-06
7.22459e-06
7.37123e-06
7.52085e-06
7.6735e-06
7.82925e-06
7.98817e-06
8.1503e-06
8.31573e-06
8.48452e-06
8.65673e-06
8.83244e-06
9.01172e-06
9.19463e-06
9.38126e-06
9.57167e-06
9.76595e-06
9.96417e-06
1.01664e-05
1.03728e-05
1.05833e-05
1.07981e-05
1.10173e-05
1.12409e-05
1.14691e-05
1.17019e-05
1.19394e-05
1.21817e-05
)
;
    }
    inandouthalf41
    {
        type            cyclic;
        value           nonuniform List<scalar> 
50
(
-1.09039e-05
-1.09039e-05
-1.09039e-05
-1.09039e-05
-1.09039e-05
-1.09039e-05
-1.09039e-05
-1.09039e-05
-1.09039e-05
-1.09039e-05
-1.09039e-05
-1.09039e-05
-1.09039e-05
-1.09039e-05
-1.09039e-05
-1.09039e-05
-1.09039e-05
-1.09039e-05
-1.09039e-05
-1.09039e-05
-1.09039e-05
-1.09039e-05
-1.09039e-05
-1.09039e-05
-1.09039e-05
-1.09039e-05
-1.09039e-05
-1.09039e-05
-1.09039e-05
-1.09039e-05
-1.09039e-05
-1.09039e-05
-1.09039e-05
-1.09039e-05
-1.09039e-05
-1.09039e-05
-1.09039e-05
-1.09039e-05
-1.09039e-05
-1.09039e-05
-1.09039e-05
-1.09039e-05
-1.09039e-05
-1.09039e-05
-1.09039e-05
-1.09039e-05
-1.09039e-05
-1.09039e-05
-1.09039e-05
-1.09039e-05
)
;
    }
    inandouthalf42
    {
        type            cyclic;
        value           nonuniform List<scalar> 
50
(
1.09039e-05
1.09039e-05
1.09039e-05
1.09039e-05
1.09039e-05
1.09039e-05
1.09039e-05
1.09039e-05
1.09039e-05
1.09039e-05
1.09039e-05
1.09039e-05
1.09039e-05
1.09039e-05
1.09039e-05
1.09039e-05
1.09039e-05
1.09039e-05
1.09039e-05
1.09039e-05
1.09039e-05
1.09039e-05
1.09039e-05
1.09039e-05
1.09039e-05
1.09039e-05
1.09039e-05
1.09039e-05
1.09039e-05
1.09039e-05
1.09039e-05
1.09039e-05
1.09039e-05
1.09039e-05
1.09039e-05
1.09039e-05
1.09039e-05
1.09039e-05
1.09039e-05
1.09039e-05
1.09039e-05
1.09039e-05
1.09039e-05
1.09039e-05
1.09039e-05
1.09039e-05
1.09039e-05
1.09039e-05
1.09039e-05
1.09039e-05
)
;
    }
    top
    {
        type            symmetryPlane;
        value           uniform 0;
    }
    walls
    {
        type            fixedValue;
        value           uniform 0;
    }
    frontAndBackPlanes
    {
        type            empty;
        value           nonuniform 0();
    }
}


// ************************************************************************* //
