/*--------------------------------*- C++ -*----------------------------------*\
| =========                 |                                                 |
| \\      /  F ield         | OpenFOAM: The Open Source CFD Toolbox           |
|  \\    /   O peration     | Version:  2.4.x                                 |
|   \\  /    A nd           | Web:      www.OpenFOAM.org                      |
|    \\/     M anipulation  |                                                 |
\*---------------------------------------------------------------------------*/
FoamFile
{
    version     2.0;
    format      ascii;
    class       surfaceScalarField;
    location    "2";
    object      phib_0;
}
// * * * * * * * * * * * * * * * * * * * * * * * * * * * * * * * * * * * * * //

dimensions      [0 3 -1 0 0 0 0];

internalField   nonuniform List<scalar> 
359
(
5.39641e-19
1.08365e-18
1.62733e-18
2.1716e-18
2.71791e-18
3.26387e-18
3.81019e-18
4.3554e-18
4.90198e-18
5.44739e-18
5.99183e-18
6.53686e-18
7.07797e-18
7.62048e-18
8.16197e-18
8.70385e-18
9.24151e-18
9.77904e-18
1.03153e-17
1.08518e-17
1.13818e-17
1.19144e-17
1.24417e-17
1.29726e-17
1.34945e-17
1.40205e-17
1.45384e-17
1.5059e-17
1.55745e-17
1.60933e-17
1.66046e-17
1.71195e-17
1.76258e-17
1.81349e-17
1.86353e-17
1.91396e-17
1.96345e-17
2.0132e-17
2.06207e-17
2.11148e-17
2.15997e-17
2.20892e-17
2.2567e-17
2.30499e-17
2.3523e-17
2.39985e-17
2.44666e-17
2.49366e-17
2.53956e-17
2.58597e-17
2.63125e-17
2.67721e-17
2.72181e-17
2.76699e-17
2.81114e-17
2.85567e-17
2.89894e-17
2.94286e-17
2.98562e-17
3.02883e-17
3.07074e-17
3.1131e-17
3.15435e-17
3.19596e-17
3.23639e-17
3.27723e-17
3.31665e-17
3.35777e-17
1.48598e-13
1.39798e-12
5.60356e-12
1.32217e-11
2.19043e-11
2.9202e-11
3.45394e-11
3.8459e-11
4.15961e-11
4.44019e-11
4.71654e-11
5.00661e-11
5.3194e-11
5.65578e-11
6.00996e-11
6.37279e-11
6.73578e-11
7.09354e-11
7.44432e-11
7.78894e-11
8.12937e-11
8.46766e-11
8.80518e-11
9.14251e-11
9.4796e-11
9.81613e-11
1.01518e-10
1.04864e-10
1.08202e-10
1.11535e-10
1.14868e-10
1.18207e-10
1.21559e-10
1.2493e-10
1.28328e-10
1.31761e-10
1.35237e-10
1.38765e-10
1.42353e-10
1.4601e-10
1.49743e-10
1.53561e-10
1.57467e-10
1.61465e-10
1.65559e-10
1.69746e-10
1.74025e-10
1.7839e-10
1.82833e-10
1.87345e-10
1.91913e-10
1.96525e-10
2.01167e-10
2.05824e-10
2.10486e-10
2.15141e-10
2.19784e-10
2.24408e-10
2.29008e-10
2.3357e-10
2.3807e-10
2.42469e-10
2.46725e-10
2.50805e-10
2.54709e-10
2.58466e-10
2.62111e-10
2.6565e-10
2.69036e-10
2.72188e-10
2.75003e-10
2.77334e-10
2.79004e-10
2.79877e-10
2.80114e-10
2.79914e-10
2.79379e-10
2.7854e-10
2.77358e-10
2.75431e-10
2.65502e-10
2.59413e-09
1.70813e-09
7.61393e-10
4.74117e-10
2.53097e-10
6.99279e-11
-6.26278e-11
-1.30867e-10
-1.34287e-10
-9.59283e-11
-5.06449e-11
-2.07137e-11
-7.93075e-12
-3.66548e-12
-2.07005e-12
-1.30385e-12
-8.42226e-13
-5.57545e-13
-3.67086e-13
-2.35459e-13
-1.45242e-13
-8.04314e-14
-3.48404e-14
-1.88213e-15
2.12539e-14
3.76853e-14
4.87803e-14
5.63632e-14
6.14774e-14
6.34527e-14
6.50828e-14
6.4747e-14
6.3951e-14
6.25019e-14
6.05736e-14
5.84393e-14
5.57799e-14
5.33094e-14
5.09116e-14
4.8533e-14
4.52281e-14
4.30851e-14
4.06755e-14
3.84905e-14
3.61689e-14
3.36068e-14
3.14535e-14
2.96487e-14
2.81823e-14
2.64951e-14
2.44515e-14
2.23573e-14
2.08572e-14
1.97625e-14
1.89084e-14
1.7308e-14
1.55012e-14
1.42032e-14
1.34834e-14
1.27074e-14
1.13846e-14
1.02028e-14
9.59099e-15
8.94835e-15
7.87181e-15
6.98605e-15
6.5926e-15
6.13896e-15
5.36418e-15
4.66156e-15
4.30118e-15
3.949e-15
3.4414e-15
3.0572e-15
2.79665e-15
2.41781e-15
2.09891e-15
1.93066e-15
1.6896e-15
1.43068e-15
1.28527e-15
1.13811e-15
9.57224e-16
8.33229e-16
7.22366e-16
6.20532e-16
5.31546e-16
4.48395e-16
4.03039e-16
3.77319e-16
3.71922e-16
3.71562e-16
3.82759e-16
6.37311e-16
1.59314e-16
2.82974e-17
2.50843e-17
2.20965e-17
1.94313e-17
1.78835e-17
1.64634e-17
1.5191e-17
1.38854e-17
1.2646e-17
1.18468e-17
1.10754e-17
1.03962e-17
9.67368e-18
9.03731e-18
8.5237e-18
8.02469e-18
7.4961e-18
7.05486e-18
6.66034e-18
6.31106e-18
6.00477e-18
5.77825e-18
5.66186e-18
5.48889e-18
5.33756e-18
5.20412e-18
5.07022e-18
4.94391e-18
4.84716e-18
4.74813e-18
4.64229e-18
4.51357e-18
4.39217e-18
4.244e-18
4.08761e-18
3.91723e-18
3.79868e-18
3.66638e-18
3.5325e-18
3.36267e-18
3.20914e-18
3.01579e-18
2.77509e-18
2.54033e-18
2.34249e-18
2.11926e-18
1.89202e-18
1.63748e-18
1.40038e-18
1.14926e-18
9.09956e-19
6.93706e-19
4.38871e-19
3.70122e-19
3.22281e-19
3.90239e-19
3.60285e-19
3.34202e-19
3.10018e-19
2.88924e-19
2.71075e-19
2.58472e-19
2.47382e-19
2.44712e-19
2.35924e-19
2.36931e-19
2.38191e-19
2.47305e-19
2.43033e-19
2.48643e-19
2.54146e-19
2.74147e-19
2.84513e-19
3.11039e-19
3.39309e-19
3.84777e-19
4.15289e-19
4.67337e-19
5.2196e-19
6.05874e-19
6.90154e-19
8.12145e-19
9.65825e-19
1.20383e-18
1.67396e-18
2.26655e-18
2.89735e-18
3.65221e-18
4.34287e-18
5.18917e-18
6.04468e-18
7.03196e-18
7.87852e-18
8.85307e-18
9.83947e-18
1.09532e-17
1.20807e-17
1.32195e-17
1.44315e-17
1.56119e-17
1.76881e-17
1.94226e-17
2.11852e-17
2.22031e-17
2.39634e-17
2.44802e-17
2.50521e-17
2.44494e-17
2.63686e-17
2.62326e-17
2.59943e-17
2.29964e-17
2.12986e-17
1.72048e-17
1.38898e-17
)
;

boundaryField
{
    inandouthalf11
    {
        type            cyclic;
        value           nonuniform List<scalar> 
100
(
1.40034e-10
1.40272e-10
1.40274e-10
1.40274e-10
1.40274e-10
1.40275e-10
1.40275e-10
1.40276e-10
1.40276e-10
1.40277e-10
1.40278e-10
1.40278e-10
1.4028e-10
1.40281e-10
1.40282e-10
1.40283e-10
1.40284e-10
1.40285e-10
1.40287e-10
1.40289e-10
1.4029e-10
1.40293e-10
1.40295e-10
1.40297e-10
1.403e-10
1.40302e-10
1.40304e-10
1.40308e-10
1.40311e-10
1.40315e-10
1.40318e-10
1.40323e-10
1.40327e-10
1.40333e-10
1.40337e-10
1.40343e-10
1.40349e-10
1.40356e-10
1.40364e-10
1.40372e-10
1.40381e-10
1.4039e-10
1.404e-10
1.40412e-10
1.40423e-10
1.40436e-10
1.40451e-10
1.40465e-10
1.40481e-10
1.405e-10
1.40519e-10
1.4054e-10
1.40563e-10
1.40587e-10
1.40613e-10
1.40643e-10
1.40674e-10
1.40708e-10
1.40745e-10
1.40784e-10
1.40827e-10
1.40873e-10
1.40924e-10
1.40979e-10
1.41038e-10
1.41102e-10
1.41172e-10
1.41248e-10
1.41329e-10
1.41412e-10
1.41483e-10
1.41521e-10
1.41525e-10
1.41523e-10
1.41535e-10
1.41568e-10
1.41616e-10
1.41674e-10
1.41737e-10
1.41801e-10
1.41862e-10
1.4192e-10
1.41972e-10
1.42021e-10
1.42067e-10
1.42113e-10
1.4216e-10
1.42207e-10
1.42256e-10
1.42305e-10
1.42354e-10
1.42402e-10
1.42451e-10
1.42498e-10
1.42546e-10
1.42594e-10
1.42641e-10
1.42689e-10
1.42737e-10
1.42785e-10
)
;
    }
    inandouthalf12
    {
        type            cyclic;
        value           nonuniform List<scalar> 
100
(
-1.40034e-10
-1.40272e-10
-1.40274e-10
-1.40274e-10
-1.40274e-10
-1.40275e-10
-1.40275e-10
-1.40276e-10
-1.40276e-10
-1.40277e-10
-1.40278e-10
-1.40278e-10
-1.4028e-10
-1.40281e-10
-1.40282e-10
-1.40283e-10
-1.40284e-10
-1.40285e-10
-1.40287e-10
-1.40289e-10
-1.4029e-10
-1.40293e-10
-1.40295e-10
-1.40297e-10
-1.403e-10
-1.40302e-10
-1.40304e-10
-1.40308e-10
-1.40311e-10
-1.40315e-10
-1.40318e-10
-1.40323e-10
-1.40327e-10
-1.40333e-10
-1.40337e-10
-1.40343e-10
-1.40349e-10
-1.40356e-10
-1.40364e-10
-1.40372e-10
-1.40381e-10
-1.4039e-10
-1.404e-10
-1.40412e-10
-1.40423e-10
-1.40436e-10
-1.40451e-10
-1.40465e-10
-1.40481e-10
-1.405e-10
-1.40519e-10
-1.4054e-10
-1.40563e-10
-1.40587e-10
-1.40613e-10
-1.40643e-10
-1.40674e-10
-1.40708e-10
-1.40745e-10
-1.40784e-10
-1.40827e-10
-1.40873e-10
-1.40924e-10
-1.40979e-10
-1.41038e-10
-1.41102e-10
-1.41172e-10
-1.41248e-10
-1.41329e-10
-1.41412e-10
-1.41483e-10
-1.41521e-10
-1.41525e-10
-1.41523e-10
-1.41535e-10
-1.41568e-10
-1.41616e-10
-1.41674e-10
-1.41737e-10
-1.41801e-10
-1.41862e-10
-1.4192e-10
-1.41972e-10
-1.42021e-10
-1.42067e-10
-1.42113e-10
-1.4216e-10
-1.42207e-10
-1.42256e-10
-1.42305e-10
-1.42354e-10
-1.42402e-10
-1.42451e-10
-1.42498e-10
-1.42546e-10
-1.42594e-10
-1.42641e-10
-1.42689e-10
-1.42737e-10
-1.42785e-10
)
;
    }
    inandouthalf21
    {
        type            cyclic;
        value           nonuniform List<scalar> 
100
(
1.42832e-10
1.42879e-10
1.42926e-10
1.42972e-10
1.43017e-10
1.43062e-10
1.43104e-10
1.43146e-10
1.43185e-10
1.43222e-10
1.43256e-10
1.43287e-10
1.43315e-10
1.43339e-10
1.43359e-10
1.43374e-10
1.43384e-10
1.4339e-10
1.4339e-10
1.43386e-10
1.43377e-10
1.43362e-10
1.43343e-10
1.43318e-10
1.43289e-10
1.43255e-10
1.43216e-10
1.43172e-10
1.43124e-10
1.43071e-10
1.43015e-10
1.42958e-10
1.42902e-10
1.4285e-10
1.428e-10
1.42748e-10
1.42687e-10
1.42627e-10
1.42588e-10
1.42597e-10
1.42657e-10
1.42741e-10
1.42981e-10
1.43436e-10
1.44084e-10
1.44958e-10
1.46096e-10
1.47638e-10
1.46196e-10
-4.01104e-09
-1.02534e-07
-2.84941e-07
-4.53335e-07
-6.02528e-07
-7.33701e-07
-8.47939e-07
-9.46457e-07
-1.0305e-06
-1.10065e-06
-1.15633e-06
-1.19711e-06
-1.22537e-06
-1.24548e-06
-1.26094e-06
-1.27332e-06
-1.28351e-06
-1.292e-06
-1.29913e-06
-1.30527e-06
-1.31057e-06
-1.31525e-06
-1.31938e-06
-1.3231e-06
-1.32643e-06
-1.32946e-06
-1.3322e-06
-1.3347e-06
-1.33698e-06
-1.33907e-06
-1.34098e-06
-1.34273e-06
-1.34434e-06
-1.34581e-06
-1.34717e-06
-1.34842e-06
-1.34957e-06
-1.35062e-06
-1.3516e-06
-1.35249e-06
-1.35332e-06
-1.35408e-06
-1.35478e-06
-1.35543e-06
-1.35603e-06
-1.35658e-06
-1.35708e-06
-1.35755e-06
-1.35798e-06
-1.35838e-06
-1.35875e-06
)
;
    }
    inandouthalf22
    {
        type            cyclic;
        value           nonuniform List<scalar> 
100
(
-1.42832e-10
-1.42879e-10
-1.42926e-10
-1.42972e-10
-1.43017e-10
-1.43062e-10
-1.43104e-10
-1.43146e-10
-1.43185e-10
-1.43222e-10
-1.43256e-10
-1.43287e-10
-1.43315e-10
-1.43339e-10
-1.43359e-10
-1.43374e-10
-1.43384e-10
-1.4339e-10
-1.4339e-10
-1.43386e-10
-1.43377e-10
-1.43362e-10
-1.43343e-10
-1.43318e-10
-1.43289e-10
-1.43255e-10
-1.43216e-10
-1.43172e-10
-1.43124e-10
-1.43071e-10
-1.43015e-10
-1.42958e-10
-1.42902e-10
-1.4285e-10
-1.428e-10
-1.42748e-10
-1.42687e-10
-1.42627e-10
-1.42588e-10
-1.42597e-10
-1.42657e-10
-1.42741e-10
-1.42981e-10
-1.43436e-10
-1.44084e-10
-1.44958e-10
-1.46096e-10
-1.47638e-10
-1.46196e-10
4.01104e-09
1.02534e-07
2.84941e-07
4.53335e-07
6.02528e-07
7.33701e-07
8.47939e-07
9.46457e-07
1.0305e-06
1.10065e-06
1.15633e-06
1.19711e-06
1.22537e-06
1.24548e-06
1.26094e-06
1.27332e-06
1.28351e-06
1.292e-06
1.29913e-06
1.30527e-06
1.31057e-06
1.31525e-06
1.31938e-06
1.3231e-06
1.32643e-06
1.32946e-06
1.3322e-06
1.3347e-06
1.33698e-06
1.33907e-06
1.34098e-06
1.34273e-06
1.34434e-06
1.34581e-06
1.34717e-06
1.34842e-06
1.34957e-06
1.35062e-06
1.3516e-06
1.35249e-06
1.35332e-06
1.35408e-06
1.35478e-06
1.35543e-06
1.35603e-06
1.35658e-06
1.35708e-06
1.35755e-06
1.35798e-06
1.35838e-06
1.35875e-06
)
;
    }
    inandouthalf31
    {
        type            cyclic;
        value           nonuniform List<scalar> 
110
(
-1.35909e-06
-1.387e-06
-1.41546e-06
-1.44449e-06
-1.47409e-06
-1.50428e-06
-1.53507e-06
-1.56647e-06
-1.59849e-06
-1.63116e-06
-1.66447e-06
-1.69845e-06
-1.73311e-06
-1.76846e-06
-1.80452e-06
-1.84129e-06
-1.87881e-06
-1.91708e-06
-1.95611e-06
-1.99593e-06
-2.03654e-06
-2.07798e-06
-2.12024e-06
-2.16336e-06
-2.20734e-06
-2.25222e-06
-2.29799e-06
-2.34469e-06
-2.39233e-06
-2.44094e-06
-2.49052e-06
-2.54111e-06
-2.59272e-06
-2.64538e-06
-2.6991e-06
-2.75391e-06
-2.80983e-06
-2.86688e-06
-2.92508e-06
-2.98447e-06
-3.04506e-06
-3.10688e-06
-3.16995e-06
-3.2343e-06
-3.29995e-06
-3.36694e-06
-3.43528e-06
-3.50501e-06
-3.57616e-06
-3.64875e-06
-3.72281e-06
-3.79838e-06
-3.87547e-06
-3.95414e-06
-4.0344e-06
-4.11629e-06
-4.19984e-06
-4.28508e-06
-4.37206e-06
-4.4608e-06
-4.55134e-06
-4.64372e-06
-4.73798e-06
-4.83415e-06
-4.93227e-06
-5.03238e-06
-5.13452e-06
-5.23874e-06
-5.34507e-06
-5.45356e-06
-5.56426e-06
-5.6772e-06
-5.79243e-06
-5.91e-06
-6.02996e-06
-6.15235e-06
-6.27723e-06
-6.40464e-06
-6.53463e-06
-6.66727e-06
-6.8026e-06
-6.94067e-06
-7.08155e-06
-7.22528e-06
-7.37194e-06
-7.52157e-06
-7.67424e-06
-7.83e-06
-7.98893e-06
-8.15109e-06
-8.31653e-06
-8.48534e-06
-8.65757e-06
-8.83329e-06
-9.01258e-06
-9.19551e-06
-9.38216e-06
-9.57259e-06
-9.76689e-06
-9.96513e-06
-1.01674e-05
-1.03738e-05
-1.05843e-05
-1.07992e-05
-1.10184e-05
-1.1242e-05
-1.14702e-05
-1.1703e-05
-1.19405e-05
-1.21829e-05
)
;
    }
    inandouthalf32
    {
        type            cyclic;
        value           nonuniform List<scalar> 
110
(
1.35909e-06
1.387e-06
1.41546e-06
1.44449e-06
1.47409e-06
1.50428e-06
1.53507e-06
1.56647e-06
1.59849e-06
1.63116e-06
1.66447e-06
1.69845e-06
1.73311e-06
1.76846e-06
1.80452e-06
1.84129e-06
1.87881e-06
1.91708e-06
1.95611e-06
1.99593e-06
2.03654e-06
2.07798e-06
2.12024e-06
2.16336e-06
2.20734e-06
2.25222e-06
2.29799e-06
2.34469e-06
2.39233e-06
2.44094e-06
2.49052e-06
2.54111e-06
2.59272e-06
2.64538e-06
2.6991e-06
2.75391e-06
2.80983e-06
2.86688e-06
2.92508e-06
2.98447e-06
3.04506e-06
3.10688e-06
3.16995e-06
3.2343e-06
3.29995e-06
3.36694e-06
3.43528e-06
3.50501e-06
3.57616e-06
3.64875e-06
3.72281e-06
3.79838e-06
3.87547e-06
3.95414e-06
4.0344e-06
4.11629e-06
4.19984e-06
4.28508e-06
4.37206e-06
4.4608e-06
4.55134e-06
4.64372e-06
4.73798e-06
4.83415e-06
4.93227e-06
5.03238e-06
5.13452e-06
5.23874e-06
5.34507e-06
5.45356e-06
5.56426e-06
5.6772e-06
5.79243e-06
5.91e-06
6.02996e-06
6.15235e-06
6.27723e-06
6.40464e-06
6.53463e-06
6.66727e-06
6.8026e-06
6.94067e-06
7.08155e-06
7.22528e-06
7.37194e-06
7.52157e-06
7.67424e-06
7.83e-06
7.98893e-06
8.15109e-06
8.31653e-06
8.48534e-06
8.65757e-06
8.83329e-06
9.01258e-06
9.19551e-06
9.38216e-06
9.57259e-06
9.76689e-06
9.96513e-06
1.01674e-05
1.03738e-05
1.05843e-05
1.07992e-05
1.10184e-05
1.1242e-05
1.14702e-05
1.1703e-05
1.19405e-05
1.21829e-05
)
;
    }
    inandouthalf41
    {
        type            cyclic;
        value           nonuniform List<scalar> 
50
(
-1.09049e-05
-1.09049e-05
-1.09049e-05
-1.09049e-05
-1.09049e-05
-1.09049e-05
-1.09049e-05
-1.09049e-05
-1.09049e-05
-1.09049e-05
-1.09049e-05
-1.09049e-05
-1.09049e-05
-1.09049e-05
-1.09049e-05
-1.09049e-05
-1.09049e-05
-1.09049e-05
-1.09049e-05
-1.09049e-05
-1.09049e-05
-1.09049e-05
-1.09049e-05
-1.09049e-05
-1.09049e-05
-1.09049e-05
-1.09049e-05
-1.09049e-05
-1.09049e-05
-1.09049e-05
-1.09049e-05
-1.09049e-05
-1.09049e-05
-1.09049e-05
-1.09049e-05
-1.09049e-05
-1.09049e-05
-1.09049e-05
-1.09049e-05
-1.09049e-05
-1.09049e-05
-1.09049e-05
-1.09049e-05
-1.09049e-05
-1.09049e-05
-1.09049e-05
-1.09049e-05
-1.09049e-05
-1.09049e-05
-1.09049e-05
)
;
    }
    inandouthalf42
    {
        type            cyclic;
        value           nonuniform List<scalar> 
50
(
1.09049e-05
1.09049e-05
1.09049e-05
1.09049e-05
1.09049e-05
1.09049e-05
1.09049e-05
1.09049e-05
1.09049e-05
1.09049e-05
1.09049e-05
1.09049e-05
1.09049e-05
1.09049e-05
1.09049e-05
1.09049e-05
1.09049e-05
1.09049e-05
1.09049e-05
1.09049e-05
1.09049e-05
1.09049e-05
1.09049e-05
1.09049e-05
1.09049e-05
1.09049e-05
1.09049e-05
1.09049e-05
1.09049e-05
1.09049e-05
1.09049e-05
1.09049e-05
1.09049e-05
1.09049e-05
1.09049e-05
1.09049e-05
1.09049e-05
1.09049e-05
1.09049e-05
1.09049e-05
1.09049e-05
1.09049e-05
1.09049e-05
1.09049e-05
1.09049e-05
1.09049e-05
1.09049e-05
1.09049e-05
1.09049e-05
1.09049e-05
)
;
    }
    top
    {
        type            symmetryPlane;
        value           uniform 0;
    }
    walls
    {
        type            fixedValue;
        value           uniform 0;
    }
    frontAndBackPlanes
    {
        type            empty;
        value           nonuniform 0();
    }
}


// ************************************************************************* //
