/*--------------------------------*- C++ -*----------------------------------*\
| =========                 |                                                 |
| \\      /  F ield         | OpenFOAM: The Open Source CFD Toolbox           |
|  \\    /   O peration     | Version:  2.4.x                                 |
|   \\  /    A nd           | Web:      www.OpenFOAM.org                      |
|    \\/     M anipulation  |                                                 |
\*---------------------------------------------------------------------------*/
FoamFile
{
    version     2.0;
    format      ascii;
    class       volVectorField;
    location    "2";
    object      susb;
}
// * * * * * * * * * * * * * * * * * * * * * * * * * * * * * * * * * * * * * //

dimensions      [0 1 -2 0 0 0 0];

internalField   nonuniform List<vector> 
360
(
(0 -1.6968e-28 0)
(0 -6.90771e-21 0)
(0 -6.90766e-21 0)
(0 3.40822e-28 0)
(-7.31377e-31 -6.90766e-21 0)
(-7.31372e-31 -6.90761e-21 0)
(-3.65686e-31 -6.90761e-21 0)
(0 -6.90757e-21 0)
(-3.65683e-31 -6.90757e-21 0)
(0 -1.3815e-20 0)
(-3.65679e-31 -6.90747e-21 0)
(0 -6.90747e-21 0)
(-3.65676e-31 -1.38149e-20 0)
(0 -1.38148e-20 0)
(0 -1.38147e-20 0)
(0 -1.38146e-20 0)
(0 -1.38145e-20 0)
(-7.31327e-31 -1.38144e-20 0)
(0 -2.07214e-20 0)
(0 -2.07212e-20 0)
(0 -2.0721e-20 0)
(-3.65649e-31 -2.76276e-20 0)
(0 -2.76273e-20 0)
(0 -2.76269e-20 0)
(0 -2.76265e-20 0)
(-3.65629e-31 -2.76262e-20 0)
(0 -3.45322e-20 0)
(0 -4.14378e-20 0)
(0 -4.1437e-20 0)
(0 -4.14361e-20 0)
(0 -4.83412e-20 0)
(0 -4.83399e-20 0)
(0 -5.52445e-20 0)
(0 -6.21479e-20 0)
(0 -6.21462e-20 0)
(3.65543e-31 -6.9049e-20 0)
(0 -7.59514e-20 0)
(0 -8.97571e-20 0)
(0 -8.97528e-20 0)
(0 -9.6653e-20 0)
(0 -1.10455e-19 0)
(0 -1.10449e-19 0)
(3.65424e-31 -1.24248e-19 0)
(0 -1.38044e-19 0)
(0 -1.44936e-19 0)
(0 -1.58728e-19 0)
(0 -1.65616e-19 0)
(0 -1.79402e-19 0)
(0 -2.06983e-19 0)
(0 -2.20758e-19 0)
(3.65174e-31 -2.3453e-19 0)
(0 -2.55193e-19 0)
(0 -2.75849e-19 0)
(0 -2.96496e-19 0)
(0 -3.24028e-19 0)
(0 -3.51546e-19 0)
(0 -3.79051e-19 0)
(0 -4.1343e-19 0)
(0 -4.40899e-19 0)
(0 -4.82126e-19 0)
(0 -5.2332e-19 0)
(0 -5.64486e-19 0)
(0 -6.12496e-19 0)
(0 -6.60464e-19 0)
(0 -7.15261e-19 0)
(0 -7.76875e-19 0)
(0 -8.45288e-19 0)
(0 -9.11306e-19 0)
(0 -9.4563e-19 0)
(0 -8.57466e-19 0)
(0 -5.43346e-19 0)
(0 -1.14296e-19 0)
(0 1.01569e-19 0)
(0 -1.69182e-21 0)
(0 -2.51294e-19 0)
(0 -4.81134e-19 0)
(0 -6.36732e-19 0)
(0 -7.32687e-19 0)
(0 -7.79414e-19 0)
(0 -7.86291e-19 0)
(0 -7.6778e-19 0)
(0 -7.39202e-19 0)
(0 -7.115e-19 0)
(0 -6.97069e-19 0)
(0 -7.00004e-19 0)
(0 -7.17741e-19 0)
(0 -7.43257e-19 0)
(0 -7.69472e-19 0)
(0 -7.93669e-19 0)
(0 -8.13462e-19 0)
(0 -8.28841e-19 0)
(0 -8.42549e-19 0)
(0 -8.56564e-19 0)
(0 -8.71713e-19 0)
(0 -8.88797e-19 0)
(0 -9.07628e-19 0)
(0 -9.27497e-19 0)
(0 -9.47818e-19 0)
(0 -9.68351e-19 0)
(0 -9.89006e-19 0)
(0 -1.00989e-18 0)
(0 -1.0313e-18 0)
(0 -1.05337e-18 0)
(0 -1.07609e-18 0)
(0 -1.09944e-18 0)
(0 -1.1234e-18 0)
(0 -1.14796e-18 0)
(0 -1.17317e-18 0)
(0 -1.19913e-18 0)
(0 -1.22595e-18 0)
(0 -1.25374e-18 0)
(0 -1.28265e-18 0)
(0 -1.31283e-18 0)
(0 -1.34445e-18 0)
(0 -1.37773e-18 0)
(0 -1.41284e-18 0)
(0 -1.44999e-18 0)
(0 -1.48935e-18 0)
(0 -1.53107e-18 0)
(0 -1.57529e-18 0)
(0 -1.62223e-18 0)
(0 -1.67219e-18 0)
(0 -1.72569e-18 0)
(0 -1.78347e-18 0)
(0 -1.84639e-18 0)
(0 -1.91514e-18 0)
(0 -1.98954e-18 0)
(0 -2.06783e-18 0)
(0 -2.14665e-18 0)
(0 -2.22284e-18 0)
(0 -2.29816e-18 0)
(0 -2.3848e-18 0)
(0 -2.50272e-18 0)
(0 -2.65723e-18 0)
(0 -2.81454e-18 0)
(0 -2.93474e-18 0)
(0 -3.05077e-18 0)
(0 -3.2692e-18 0)
(0 -3.62598e-18 0)
(0 -3.87307e-18 0)
(0 -3.61581e-18 0)
(0 -3.19819e-18 0)
(0 -5.73655e-19 0)
(0 -6.15628e-18 0)
(0 -3.4343e-16 0)
(0 -2.11748e-14 0)
(0 -1.50693e-12 0)
(0 -1.48556e-10 0)
(0 -1.25707e-07 0)
(0 -8.75213e-05 0)
(0 -0.000995094 0)
(0 -0.00364258 0)
(0 -0.000957738 0)
(0 -0.000166995 0)
(0 -2.30726e-05 0)
(0 -2.91107e-06 0)
(0 -3.239e-07 0)
(0 -2.97095e-08 0)
(0 -2.09561e-09 0)
(0 -1.09714e-10 0)
(0 -4.35601e-12 0)
(0 -1.50738e-13 0)
(0 -6.43358e-15 0)
(0 -4.73905e-16 0)
(0 -5.47157e-17 0)
(0 -8.65998e-18 0)
(0 -1.43948e-18 0)
(0 -3.38122e-19 0)
(0 -1.24906e-19 0)
(0 -6.92976e-20 0)
(0 -4.84769e-20 0)
(0 -3.50248e-20 0)
(0 -2.63396e-20 0)
(0 -1.85239e-20 0)
(0 -1.4794e-20 0)
(0 -1.12112e-20 0)
(0 -8.38755e-21 0)
(0 -5.87485e-21 0)
(0 -5.13152e-21 0)
(0 -3.18757e-21 0)
(0 -2.61565e-21 0)
(0 -1.82698e-21 0)
(0 -1.50238e-21 0)
(0 -1.35031e-21 0)
(0 -1.17216e-21 0)
(0 -1.10902e-21 0)
(0 -9.3336e-22 0)
(0 -8.16794e-22 0)
(0 -7.2142e-22 0)
(0 -7.86987e-22 0)
(0 -5.55021e-22 0)
(0 -5.40301e-22 0)
(0 -4.68575e-22 0)
(0 -4.47684e-22 0)
(0 -4.45948e-22 0)
(0 -3.68212e-22 0)
(0 -3.05912e-22 0)
(0 -2.48608e-22 0)
(0 -2.56524e-22 0)
(0 -2.77958e-22 0)
(0 -2.6929e-22 0)
(0 -1.94917e-22 0)
(-6.00044e-38 -1.45168e-22 0)
(0 -1.13857e-22 0)
(0 -1.67537e-22 0)
(5.59666e-38 -1.73651e-22 0)
(0 -1.24763e-22 0)
(-5.33984e-38 -7.52264e-23 0)
(0 -7.37211e-23 0)
(5.0948e-38 -1.04771e-22 0)
(0 -8.97777e-23 0)
(0 -5.02e-23 0)
(0 -4.85074e-23 0)
(2.31677e-38 -6.90894e-23 0)
(0 -5.517e-23 0)
(0 -2.73134e-23 0)
(0 -2.82293e-23 0)
(0 -4.09508e-23 0)
(0 -3.54592e-23 0)
(-1.0022e-38 -1.92031e-23 0)
(0 -1.75789e-23 0)
(-9.54355e-39 -2.2266e-23 0)
(0 -1.65089e-23 0)
(-4.54135e-39 -1.12355e-23 0)
(0 -1.43154e-23 0)
(0 -1.15843e-23 0)
(0 -6.40907e-24 0)
(0 -7.98141e-24 0)
(2.00227e-39 -7.9357e-24 0)
(1.95141e-39 -4.55636e-24 0)
(0 -4.2685e-24 0)
(0 -4.73577e-24 0)
(0 -3.18764e-24 0)
(0 -2.68871e-24 0)
(0 -2.31869e-24 0)
(0 -1.91208e-24 0)
(0 -1.66865e-24 0)
(0 -9.24263e-25 0)
(0 -5.43671e-25 0)
(0 -1.94226e-25 0)
(0 -9.23624e-26 0)
(0 6.99957e-26 0)
(0 -1.99752e-24 0)
(-6.12602e-41 -1.74642e-24 0)
(3.75268e-42 -2.49857e-25 0)
(0 -5.62651e-27 0)
(0 -5.02597e-27 0)
(0 -4.37263e-27 0)
(0 -2.23452e-27 0)
(0 -2.01152e-27 0)
(-8.31611e-43 -1.64411e-27 0)
(0 -1.69743e-27 0)
(0 -1.47645e-27 0)
(0 -7.69362e-28 0)
(0 -6.41553e-28 0)
(0 -5.18433e-28 0)
(0 -5.20481e-28 0)
(0 -4.09313e-28 0)
(0 -1.78741e-28 0)
(0 -1.859e-28 0)
(0 -2.01373e-28 0)
(0 -1.19292e-28 0)
(0 -6.03007e-29 0)
(0 -7.04032e-29 0)
(0 -6.67697e-29 0)
(0 -3.35837e-29 0)
(9.42133e-45 -2.04004e-29 0)
(0 -2.30534e-29 0)
(0 -1.77377e-29 0)
(0 -8.1305e-30 0)
(0 -7.07841e-30 0)
(0 -6.37186e-30 0)
(0 -3.47806e-30 0)
(0 -2.46708e-30 0)
(0 -1.84691e-30 0)
(0 -1.24121e-30 0)
(0 -9.53847e-31 0)
(0 -5.48056e-31 0)
(0 -3.84301e-31 0)
(0 -2.72427e-31 0)
(0 -2.19201e-31 0)
(0 -1.03086e-31 0)
(0 -7.51176e-32 0)
(0 -5.29451e-32 0)
(0 -3.17398e-32 0)
(0 -2.1757e-32 0)
(6.1557e-48 -1.16461e-32 0)
(0 -7.85416e-33 0)
(0 -4.65297e-33 0)
(0 -3.08379e-33 0)
(0 -1.76246e-33 0)
(0 -1.3601e-33 0)
(0 -7.04606e-34 0)
(0 -3.52193e-34 0)
(0 -1.70342e-34 0)
(0 -5.83572e-35 0)
(4.91711e-51 -2.19561e-35 0)
(0 -8.00421e-36 0)
(0 -2.8631e-36 0)
(-1.4467e-52 -9.65747e-37 0)
(0 -3.03889e-37 0)
(0 -8.84609e-38 0)
(0 -2.35748e-38 0)
(0 -5.68147e-39 0)
(0 -1.21998e-39 0)
(0 -2.29038e-40 0)
(0 -3.66589e-41 0)
(0 -4.82551e-42 0)
(0 -4.93544e-43 0)
(0 -3.53311e-44 0)
(0 -1.40734e-45 0)
(0 -2.69742e-47 0)
(0 -8.6265e-49 0)
(0 -1.36175e-50 0)
(0 -1.58913e-61 0)
(0 -9.23752e-73 0)
(0 -3.77984e-84 0)
(0 -1.16405e-95 0)
(0 -2.99909e-107 0)
(0 -1.07225e-118 0)
(0 -7.08343e-130 0)
(0 -1.52358e-137 0)
(0 -2.5326e-148 0)
(0 -5.2397e-156 0)
(0 -8.65046e-167 0)
(0 -1.80232e-174 0)
(0 -3.62076e-185 0)
(0 -6.19756e-193 0)
(0 -1.62227e-203 0)
(0 -2.13221e-211 0)
(0 -1.11652e-221 0)
(0 -7.37093e-230 0)
(0 -7.48306e-240 0)
(0 -2.56741e-248 0)
(0 -3.8425e-258 0)
(0 -9.01267e-267 0)
(0 -1.82511e-276 0)
(0 -3.19383e-285 0)
(0 -8.07787e-295 0)
(0 -1.14184e-303 0)
(0 -3.45001e-313 0)
(0 -4.10074e-322 0)
(0 -0 0)
(0 0 0)
(0 0 0)
(0 0 0)
(0 0 0)
(0 0 0)
(0 0 0)
(0 0 0)
(0 0 0)
(0 0 0)
(0 0 0)
(0 0 0)
(0 0 0)
(0 0 0)
(0 0 0)
(0 0 0)
(0 0 0)
(0 0 0)
)
;

boundaryField
{
    inandouthalf11
    {
        type            cyclic;
    }
    inandouthalf12
    {
        type            cyclic;
    }
    inandouthalf21
    {
        type            cyclic;
    }
    inandouthalf22
    {
        type            cyclic;
    }
    inandouthalf31
    {
        type            cyclic;
    }
    inandouthalf32
    {
        type            cyclic;
    }
    inandouthalf41
    {
        type            cyclic;
    }
    inandouthalf42
    {
        type            cyclic;
    }
    top
    {
        type            symmetryPlane;
    }
    walls
    {
        type            zeroGradient;
    }
    frontAndBackPlanes
    {
        type            empty;
    }
}


// ************************************************************************* //
