/*--------------------------------*- C++ -*----------------------------------*\
| =========                 |                                                 |
| \\      /  F ield         | OpenFOAM: The Open Source CFD Toolbox           |
|  \\    /   O peration     | Version:  2.4.x                                 |
|   \\  /    A nd           | Web:      www.OpenFOAM.org                      |
|    \\/     M anipulation  |                                                 |
\*---------------------------------------------------------------------------*/
FoamFile
{
    version     2.0;
    format      ascii;
    class       volTensorField;
    location    "2";
    object      Tauf;
}
// * * * * * * * * * * * * * * * * * * * * * * * * * * * * * * * * * * * * * //

dimensions      [0 2 -2 0 0 0 0];

internalField   nonuniform List<tensor> 
360
(
(0 -2.8043e-07 0 -2.8043e-07 4.58203e-16 0 0 0 0)
(0 -2.40175e-10 0 -2.40175e-10 4.59369e-16 0 0 0 0)
(0 -1.38138e-12 0 -1.38138e-12 4.60695e-16 0 0 0 0)
(0 -2.18095e-15 0 -2.18095e-15 4.61618e-16 0 0 0 0)
(2.58494e-23 -1.17771e-12 0 -1.17771e-12 4.61936e-16 0 0 0 0)
(2.58494e-23 -1.17871e-12 0 -1.17871e-12 4.61871e-16 0 0 0 0)
(2.58494e-23 -1.17872e-12 0 -1.17872e-12 4.61981e-16 0 0 0 0)
(0 -1.17872e-12 0 -1.17872e-12 4.61351e-16 0 0 0 0)
(2.58494e-23 -1.17973e-12 0 -1.17973e-12 4.60826e-16 0 0 0 0)
(0 -2.35546e-12 0 -2.35546e-12 4.61221e-16 0 0 0 0)
(5.16988e-23 -1.17974e-12 0 -1.17974e-12 4.60355e-16 0 0 0 0)
(0 -1.17975e-12 0 -1.17975e-12 4.58607e-16 0 0 0 0)
(2.58494e-23 -2.35649e-12 0 -2.35649e-12 4.58134e-16 0 0 0 0)
(0 -2.35752e-12 0 -2.35752e-12 4.58428e-16 0 0 0 0)
(0 -2.35753e-12 0 -2.35753e-12 4.57595e-16 0 0 0 0)
(0 -2.35755e-12 0 -2.35755e-12 4.56146e-16 0 0 0 0)
(0 -2.35757e-12 0 -2.35757e-12 4.55264e-16 0 0 0 0)
(2.58494e-23 -2.35859e-12 0 -2.35859e-12 4.54315e-16 0 0 0 0)
(0 -3.53542e-12 0 -3.53542e-12 4.53653e-16 0 0 0 0)
(0 -3.53645e-12 0 -3.53645e-12 4.52574e-16 0 0 0 0)
(0 -3.5375e-12 0 -3.5375e-12 4.50577e-16 0 0 0 0)
(2.58494e-23 -4.71438e-12 0 -4.71438e-12 4.48867e-16 0 0 0 0)
(0 -4.71545e-12 0 -4.71545e-12 4.4733e-16 0 0 0 0)
(0 -4.71553e-12 0 -4.71553e-12 4.4596e-16 0 0 0 0)
(0 -4.7156e-12 0 -4.7156e-12 4.44053e-16 0 0 0 0)
(2.58494e-23 -4.71667e-12 0 -4.71667e-12 4.41416e-16 0 0 0 0)
(0 -5.89469e-12 0 -5.89469e-12 4.39436e-16 0 0 0 0)
(0 -7.07276e-12 0 -7.07276e-12 4.38019e-16 0 0 0 0)
(0 -7.07392e-12 0 -7.07392e-12 4.36709e-16 0 0 0 0)
(0 -7.07508e-12 0 -7.07508e-12 4.35487e-16 0 0 0 0)
(0 -8.2523e-12 0 -8.2523e-12 4.34033e-16 0 0 0 0)
(0 -8.2545e-12 0 -8.2545e-12 4.31502e-16 0 0 0 0)
(0 -9.43288e-12 0 -9.43288e-12 4.28859e-16 0 0 0 0)
(0 -1.06113e-11 0 -1.06113e-11 4.27755e-16 0 0 0 0)
(0 -1.06137e-11 0 -1.06137e-11 4.25967e-16 0 0 0 0)
(-2.58494e-23 -1.17922e-11 0 -1.17922e-11 4.2315e-16 0 0 0 0)
(0 -1.2973e-11 0 -1.2973e-11 4.20981e-16 0 0 0 0)
(0 -1.53292e-11 0 -1.53292e-11 4.19181e-16 0 0 0 0)
(0 -1.53329e-11 0 -1.53329e-11 4.17066e-16 0 0 0 0)
(0 -1.65132e-11 0 -1.65132e-11 4.14383e-16 0 0 0 0)
(0 -1.88701e-11 0 -1.88701e-11 4.12348e-16 0 0 0 0)
(0 -1.88752e-11 0 -1.88752e-11 4.10322e-16 0 0 0 0)
(-2.58494e-23 -2.12338e-11 0 -2.12338e-11 4.07686e-16 0 0 0 0)
(0 -2.35937e-11 0 -2.35937e-11 4.05199e-16 0 0 0 0)
(0 -2.47774e-11 0 -2.47774e-11 4.02235e-16 0 0 0 0)
(0 -2.71373e-11 0 -2.71373e-11 3.99706e-16 0 0 0 0)
(0 -2.83216e-11 0 -2.83216e-11 3.9755e-16 0 0 0 0)
(0 -3.06857e-11 0 -3.06857e-11 3.94976e-16 0 0 0 0)
(0 -3.54059e-11 0 -3.54059e-11 3.92414e-16 0 0 0 0)
(0 -3.77727e-11 0 -3.77727e-11 3.89537e-16 0 0 0 0)
(-2.58494e-23 -4.01396e-11 0 -4.01396e-11 3.86963e-16 0 0 0 0)
(0 -4.36859e-11 0 -4.36859e-11 3.84726e-16 0 0 0 0)
(0 -4.72349e-11 0 -4.72349e-11 3.82363e-16 0 0 0 0)
(0 -5.07863e-11 0 -5.07863e-11 3.78948e-16 0 0 0 0)
(0 -5.5519e-11 0 -5.5519e-11 3.75462e-16 0 0 0 0)
(0 -6.02548e-11 0 -6.02548e-11 3.72538e-16 0 0 0 0)
(0 -6.49948e-11 0 -6.49948e-11 3.69612e-16 0 0 0 0)
(0 -7.09164e-11 0 -7.09164e-11 3.67149e-16 0 0 0 0)
(0 -7.56648e-11 0 -7.56648e-11 3.63868e-16 0 0 0 0)
(0 -8.27771e-11 0 -8.27771e-11 3.60841e-16 0 0 0 0)
(0 -8.98965e-11 0 -8.98965e-11 3.57913e-16 0 0 0 0)
(0 -9.70235e-11 0 -9.70235e-11 3.54243e-16 0 0 0 0)
(0 -1.05338e-10 0 -1.05338e-10 3.51856e-16 0 0 0 0)
(0 -1.13664e-10 0 -1.13664e-10 3.50136e-16 0 0 0 0)
(0 -1.23182e-10 0 -1.23182e-10 1.57546e-15 0 0 0 0)
(0 -1.33896e-10 0 -1.33896e-10 -5.55463e-14 0 0 0 0)
(0 -1.45808e-10 0 -1.45808e-10 4.10998e-13 0 0 0 0)
(0 -1.57342e-10 0 -1.57342e-10 -1.66005e-12 0 0 0 0)
(0 -1.6423e-10 0 -1.6423e-10 2.72771e-10 0 0 0 0)
(0 -1.53929e-10 0 -1.53929e-10 1.64724e-09 0 0 0 0)
(0 -1.09539e-10 0 -1.09539e-10 4.40942e-09 0 0 0 0)
(0 -4.22157e-11 0 -4.22157e-11 7.15426e-09 0 0 0 0)
(0 -1.51616e-12 0 -1.51616e-12 8.11636e-09 0 0 0 0)
(0 -1.03222e-11 0 -1.03222e-11 7.1545e-09 0 0 0 0)
(0 -4.60381e-11 0 -4.60381e-11 5.46419e-09 0 0 0 0)
(0 -8.15849e-11 0 -8.15849e-11 4.06963e-09 0 0 0 0)
(0 -1.06156e-10 0 -1.06156e-10 3.24452e-09 0 0 0 0)
(0 -1.20949e-10 0 -1.20949e-10 2.87477e-09 0 0 0 0)
(0 -1.27008e-10 0 -1.27008e-10 2.80609e-09 0 0 0 0)
(0 -1.25571e-10 0 -1.25571e-10 2.92139e-09 0 0 0 0)
(0 -1.19037e-10 0 -1.19037e-10 3.12855e-09 0 0 0 0)
(0 -1.10224e-10 0 -1.10224e-10 3.34804e-09 0 0 0 0)
(0 -1.01395e-10 0 -1.01395e-10 3.51776e-09 0 0 0 0)
(0 -9.50923e-11 0 -9.50923e-11 3.60597e-09 0 0 0 0)
(0 -9.22597e-11 0 -9.22597e-11 3.61531e-09 0 0 0 0)
(0 -9.24467e-11 0 -9.24467e-11 3.57209e-09 0 0 0 0)
(0 -9.42586e-11 0 -9.42586e-11 3.50869e-09 0 0 0 0)
(0 -9.62455e-11 0 -9.62455e-11 3.44985e-09 0 0 0 0)
(0 -9.77673e-11 0 -9.77673e-11 3.40804e-09 0 0 0 0)
(0 -9.83315e-11 0 -9.83315e-11 3.38482e-09 0 0 0 0)
(0 -9.79462e-11 0 -9.79462e-11 3.375e-09 0 0 0 0)
(0 -9.71515e-11 0 -9.71515e-11 3.37144e-09 0 0 0 0)
(0 -9.63632e-11 0 -9.63632e-11 3.36835e-09 0 0 0 0)
(0 -9.57716e-11 0 -9.57716e-11 3.36273e-09 0 0 0 0)
(0 -9.55244e-11 0 -9.55244e-11 3.3544e-09 0 0 0 0)
(0 -9.55596e-11 0 -9.55596e-11 3.34508e-09 0 0 0 0)
(0 -9.57014e-11 0 -9.57014e-11 3.33715e-09 0 0 0 0)
(0 -9.57882e-11 0 -9.57882e-11 3.3327e-09 0 0 0 0)
(0 -9.57232e-11 0 -9.57232e-11 3.33322e-09 0 0 0 0)
(0 -9.54397e-11 0 -9.54397e-11 3.33959e-09 0 0 0 0)
(0 -9.49077e-11 0 -9.49077e-11 3.35235e-09 0 0 0 0)
(0 -9.41279e-11 0 -9.41279e-11 3.37196e-09 0 0 0 0)
(0 -9.30632e-11 0 -9.30632e-11 3.39893e-09 0 0 0 0)
(0 -9.16421e-11 0 -9.16421e-11 3.43381e-09 0 0 0 0)
(0 -8.97904e-11 0 -8.97904e-11 3.47704e-09 0 0 0 0)
(0 -8.74266e-11 0 -8.74266e-11 3.52889e-09 0 0 0 0)
(0 -8.44725e-11 0 -8.44725e-11 3.58936e-09 0 0 0 0)
(0 -8.08665e-11 0 -8.08665e-11 3.65814e-09 0 0 0 0)
(0 -7.65595e-11 0 -7.65595e-11 3.73459e-09 0 0 0 0)
(0 -7.15143e-11 0 -7.15143e-11 3.81772e-09 0 0 0 0)
(0 -6.57096e-11 0 -6.57096e-11 3.9062e-09 0 0 0 0)
(0 -5.91435e-11 0 -5.91435e-11 3.99838e-09 0 0 0 0)
(0 -5.18368e-11 0 -5.18368e-11 4.09228e-09 0 0 0 0)
(0 -4.38369e-11 0 -4.38369e-11 4.18569e-09 0 0 0 0)
(0 -3.52164e-11 0 -3.52164e-11 4.27624e-09 0 0 0 0)
(0 -2.60697e-11 0 -2.60697e-11 4.36152e-09 0 0 0 0)
(0 -1.65091e-11 0 -1.65091e-11 4.43916e-09 0 0 0 0)
(0 -6.65816e-12 0 -6.65816e-12 4.507e-09 0 0 0 0)
(0 3.35669e-12 0 3.35669e-12 4.56316e-09 0 0 0 0)
(0 1.34163e-11 0 1.34163e-11 4.60628e-09 0 0 0 0)
(0 2.34215e-11 0 2.34215e-11 4.63572e-09 0 0 0 0)
(0 3.33092e-11 0 3.33092e-11 4.65181e-09 0 0 0 0)
(0 4.30697e-11 0 4.30697e-11 4.65595e-09 0 0 0 0)
(0 5.27523e-11 0 5.27523e-11 4.65045e-09 0 0 0 0)
(0 6.24481e-11 0 6.24481e-11 4.6378e-09 0 0 0 0)
(0 7.22388e-11 0 7.22388e-11 4.61926e-09 0 0 0 0)
(0 8.21012e-11 0 8.21012e-11 4.59297e-09 0 0 0 0)
(0 9.17789e-11 0 9.17789e-11 4.55237e-09 0 0 0 0)
(0 1.00669e-10 0 1.00669e-10 4.48664e-09 0 0 0 0)
(0 1.07792e-10 0 1.07792e-10 4.38491e-09 0 0 0 0)
(0 1.11903e-10 0 1.11903e-10 4.24404e-09 0 0 0 0)
(0 1.11768e-10 0 1.11768e-10 4.07592e-09 0 0 0 0)
(0 1.07087e-10 0 1.07087e-10 3.90669e-09 0 0 0 0)
(0 1.01001e-10 0 1.01001e-10 3.7623e-09 0 0 0 0)
(0 1.01248e-10 0 1.01248e-10 3.64518e-09 0 0 0 0)
(0 1.11778e-10 0 1.11778e-10 3.52474e-09 0 0 0 0)
(0 1.198e-10 0 1.198e-10 3.35844e-09 0 0 0 0)
(0 9.83705e-11 0 9.83705e-11 3.11766e-09 0 0 0 0)
(0 2.81864e-11 0 2.81864e-11 2.7811e-09 0 0 0 0)
(0 -7.10005e-11 0 -7.10005e-11 2.30781e-09 0 0 0 0)
(0 -1.44506e-10 0 -1.44506e-10 1.61995e-09 0 0 0 0)
(0 -3.24057e-10 0 -3.24057e-10 8.6379e-10 0 0 0 0)
(0 -6.96381e-10 0 -6.96381e-10 2.70037e-10 0 0 0 0)
(0 -1.10392e-09 0 -1.10392e-09 -1.8116e-10 0 0 0 0)
(0 -1.52245e-09 0 -1.52245e-09 -5.44317e-10 0 0 0 0)
(0 -2.0129e-09 0 -2.0129e-09 -8.86683e-10 0 0 0 0)
(0 -2.68182e-09 0 -2.68182e-09 -1.19347e-09 0 0 0 0)
(0 -1.28744e-10 0 -1.28744e-10 -1.5954e-08 0 0 0 0)
(0 4.1332e-06 0 4.1332e-06 3.98873e-08 0 0 0 0)
(0 0.000102597 0 0.000102597 2.03724e-06 0 0 0 0)
(0 0.000281838 0 0.000281838 -2.89938e-07 0 0 0 0)
(0 0.000377282 0 0.000377282 -1.55712e-06 0 0 0 0)
(0 0.000346016 0 0.000346016 -1.97178e-08 0 0 0 0)
(0 0.000288686 0 0.000288686 -4.1325e-07 0 0 0 0)
(0 0.000246718 0 0.000246718 -7.91969e-08 0 0 0 0)
(0 0.000212901 0 0.000212901 -1.94542e-07 0 0 0 0)
(0 0.000182582 0 0.000182582 -2.84047e-09 0 0 0 0)
(0 0.000154218 0 0.000154218 -7.45073e-08 0 0 0 0)
(0 0.000125877 0 0.000125877 9.8167e-08 0 0 0 0)
(0 9.65187e-05 0 9.65187e-05 1.55293e-09 0 0 0 0)
(0 6.90916e-05 0 6.90916e-05 5.79904e-08 0 0 0 0)
(0 4.8401e-05 0 4.8401e-05 -3.82778e-09 0 0 0 0)
(0 3.55858e-05 0 3.55858e-05 1.46459e-08 0 0 0 0)
(0 2.7841e-05 0 2.7841e-05 -6.44148e-09 0 0 0 0)
(0 2.25736e-05 0 2.25736e-05 7.98131e-09 0 0 0 0)
(0 1.86838e-05 0 1.86838e-05 -6.01454e-09 0 0 0 0)
(0 1.56217e-05 0 1.56217e-05 6.10128e-09 0 0 0 0)
(0 1.32738e-05 0 1.32738e-05 -5.03441e-09 0 0 0 0)
(0 1.14366e-05 0 1.14366e-05 4.82677e-09 0 0 0 0)
(0 9.97719e-06 0 9.97719e-06 -4.12967e-09 0 0 0 0)
(0 8.81148e-06 0 8.81148e-06 3.85882e-09 0 0 0 0)
(0 7.85377e-06 0 7.85377e-06 -3.36636e-09 0 0 0 0)
(0 7.05133e-06 0 7.05133e-06 3.10249e-09 0 0 0 0)
(0 6.35781e-06 0 6.35781e-06 -2.73929e-09 0 0 0 0)
(0 5.76587e-06 0 5.76587e-06 2.50366e-09 0 0 0 0)
(0 5.24567e-06 0 5.24567e-06 -2.2294e-09 0 0 0 0)
(0 4.78205e-06 0 4.78205e-06 2.02702e-09 0 0 0 0)
(0 4.36391e-06 0 4.36391e-06 -1.81615e-09 0 0 0 0)
(0 3.99922e-06 0 3.99922e-06 1.64568e-09 0 0 0 0)
(0 3.65979e-06 0 3.65979e-06 -1.48284e-09 0 0 0 0)
(0 3.35926e-06 0 3.35926e-06 1.34138e-09 0 0 0 0)
(0 3.08367e-06 0 3.08367e-06 -1.2144e-09 0 0 0 0)
(0 2.83326e-06 0 2.83326e-06 1.09718e-09 0 0 0 0)
(0 2.60535e-06 0 2.60535e-06 -9.97232e-10 0 0 0 0)
(0 2.39603e-06 0 2.39603e-06 9.00295e-10 0 0 0 0)
(0 2.20609e-06 0 2.20609e-06 -8.21472e-10 0 0 0 0)
(0 2.03105e-06 0 2.03105e-06 7.41033e-10 0 0 0 0)
(0 1.87021e-06 0 1.87021e-06 -6.77951e-10 0 0 0 0)
(0 1.72194e-06 0 1.72194e-06 6.11831e-10 0 0 0 0)
(0 1.58906e-06 0 1.58906e-06 -5.62034e-10 0 0 0 0)
(0 1.46318e-06 0 1.46318e-06 5.06382e-10 0 0 0 0)
(0 1.34875e-06 0 1.34875e-06 -4.65419e-10 0 0 0 0)
(0 1.24308e-06 0 1.24308e-06 4.1954e-10 0 0 0 0)
(0 1.14621e-06 0 1.14621e-06 -3.86531e-10 0 0 0 0)
(0 1.05777e-06 0 1.05777e-06 3.47544e-10 0 0 0 0)
(0 9.75825e-07 0 9.75825e-07 -3.21204e-10 0 0 0 0)
(0 8.99817e-07 0 8.99817e-07 2.88963e-10 0 0 0 0)
(0 8.28843e-07 0 8.28843e-07 -2.66435e-10 0 0 0 0)
(0 7.64253e-07 0 7.64253e-07 2.39749e-10 0 0 0 0)
(0 7.05602e-07 0 7.05602e-07 -2.21988e-10 0 0 0 0)
(0 6.51787e-07 0 6.51787e-07 1.9831e-10 0 0 0 0)
(0 6.00871e-07 0 6.00871e-07 -1.80522e-10 0 0 0 0)
(-4.06832e-19 5.52492e-07 0 5.52492e-07 1.5906e-10 0 0 0 0)
(0 5.06487e-07 0 5.06487e-07 -1.44145e-10 0 0 0 0)
(0 4.64808e-07 0 4.64808e-07 1.2699e-10 0 0 0 0)
(1.91516e-19 4.26321e-07 0 4.26321e-07 -1.16877e-10 0 0 0 0)
(0 3.89943e-07 0 3.89943e-07 1.02323e-10 0 0 0 0)
(-1.83972e-19 3.55247e-07 0 3.55247e-07 -9.35991e-11 0 0 0 0)
(0 3.22839e-07 0 3.22839e-07 8.29395e-11 0 0 0 0)
(3.5345e-19 2.93653e-07 0 2.93653e-07 -7.63209e-11 0 0 0 0)
(0 2.66741e-07 0 2.66741e-07 6.67503e-11 0 0 0 0)
(0 2.41216e-07 0 2.41216e-07 -6.14859e-11 0 0 0 0)
(0 2.17547e-07 0 2.17547e-07 5.44677e-11 0 0 0 0)
(3.26153e-19 1.96363e-07 0 1.96363e-07 -5.03991e-11 0 0 0 0)
(0 1.76948e-07 0 1.76948e-07 4.40581e-11 0 0 0 0)
(0 1.58655e-07 0 1.58655e-07 -4.0671e-11 0 0 0 0)
(0 1.41856e-07 0 1.41856e-07 3.61543e-11 0 0 0 0)
(0 1.26881e-07 0 1.26881e-07 -3.35392e-11 0 0 0 0)
(0 1.13352e-07 0 1.13352e-07 2.93693e-11 0 0 0 0)
(0 1.00789e-07 0 1.00789e-07 -2.73007e-11 0 0 0 0)
(0 8.93049e-08 0 8.93049e-08 2.43115e-11 0 0 0 0)
(-2.7772e-19 7.91094e-08 0 7.91094e-08 -2.26381e-11 0 0 0 0)
(0 6.99163e-08 0 6.99163e-08 2.00579e-11 0 0 0 0)
(0 6.15131e-08 0 6.15131e-08 -1.86849e-11 0 0 0 0)
(0 5.40657e-08 0 5.40657e-08 1.66994e-11 0 0 0 0)
(0 4.74492e-08 0 4.74492e-08 -1.57145e-11 0 0 0 0)
(0 4.14268e-08 0 4.14268e-08 1.41694e-11 0 0 0 0)
(0 3.60794e-08 0 3.60794e-08 -1.32994e-11 0 0 0 0)
(2.41279e-19 3.13955e-08 0 3.13955e-08 1.20305e-11 0 0 0 0)
(0 2.72091e-08 0 2.72091e-08 -1.13923e-11 0 0 0 0)
(0 2.34846e-08 0 2.34846e-08 1.04667e-11 0 0 0 0)
(0 2.0256e-08 0 2.0256e-08 -9.97153e-12 0 0 0 0)
(0 1.73974e-08 0 1.73974e-08 9.21819e-12 0 0 0 0)
(0 1.48965e-08 0 1.48965e-08 -8.82117e-12 0 0 0 0)
(0 1.27217e-08 0 1.27217e-08 8.25712e-12 0 0 0 0)
(0 1.08201e-08 0 1.08201e-08 -7.95281e-12 0 0 0 0)
(0 9.18075e-09 0 9.18075e-09 7.51777e-12 0 0 0 0)
(0 7.75331e-09 0 7.75331e-09 -7.27145e-12 0 0 0 0)
(0 6.5303e-09 0 6.5303e-09 6.96676e-12 0 0 0 0)
(0 5.46728e-09 0 5.46728e-09 -6.74174e-12 0 0 0 0)
(0 4.56496e-09 0 4.56496e-09 6.52693e-12 0 0 0 0)
(0 3.79299e-09 0 3.79299e-09 -6.33304e-12 0 0 0 0)
(0 3.15716e-09 0 3.15716e-09 6.27738e-12 0 0 0 0)
(-1.78492e-19 2.6428e-09 0 2.6428e-09 -6.21598e-12 0 0 0 0)
(3.49882e-19 2.20539e-09 0 2.20539e-09 5.82072e-12 0 0 0 0)
(0 1.81877e-09 0 1.81877e-09 -5.74714e-12 0 0 0 0)
(0 1.48176e-09 0 1.48176e-09 5.62498e-12 0 0 0 0)
(-3.29414e-19 1.19896e-09 0 1.19896e-09 -5.51414e-12 0 0 0 0)
(0 9.66512e-10 0 9.66512e-10 5.40461e-12 0 0 0 0)
(0 7.77264e-10 0 7.77264e-10 -5.30145e-12 0 0 0 0)
(-3.10142e-19 6.22992e-10 0 6.22992e-10 5.1988e-12 0 0 0 0)
(0 4.95498e-10 0 4.95498e-10 -5.09964e-12 0 0 0 0)
(0 3.91899e-10 0 3.91899e-10 4.99957e-12 0 0 0 0)
(0 3.09384e-10 0 3.09384e-10 -4.90132e-12 0 0 0 0)
(0 2.43593e-10 0 2.43593e-10 4.80172e-12 0 0 0 0)
(0 1.90962e-10 0 1.90962e-10 -4.70258e-12 0 0 0 0)
(0 1.49048e-10 0 1.49048e-10 4.60186e-12 0 0 0 0)
(0 1.15899e-10 0 1.15899e-10 -4.50114e-12 0 0 0 0)
(0 8.97882e-11 0 8.97882e-11 4.39885e-12 0 0 0 0)
(0 6.92537e-11 0 6.92537e-11 -4.29634e-12 0 0 0 0)
(0 5.31595e-11 0 5.31595e-11 4.19255e-12 0 0 0 0)
(0 4.05852e-11 0 4.05852e-11 -4.08871e-12 0 0 0 0)
(0 3.08196e-11 0 3.08196e-11 3.98398e-12 0 0 0 0)
(0 2.32718e-11 0 2.32718e-11 -3.87942e-12 0 0 0 0)
(0 1.74731e-11 0 1.74731e-11 3.77451e-12 0 0 0 0)
(0 1.30436e-11 0 1.30436e-11 -3.67011e-12 0 0 0 0)
(0 9.67884e-12 0 9.67884e-12 3.56596e-12 0 0 0 0)
(0 7.13885e-12 0 7.13885e-12 -3.46263e-12 0 0 0 0)
(0 5.23282e-12 0 5.23282e-12 3.36009e-12 0 0 0 0)
(0 3.81187e-12 0 3.81187e-12 -3.25881e-12 0 0 0 0)
(0 2.75835e-12 0 2.75835e-12 3.15876e-12 0 0 0 0)
(0 1.98391e-12 0 1.98391e-12 -3.06035e-12 0 0 0 0)
(0 1.41708e-12 0 1.41708e-12 2.96357e-12 0 0 0 0)
(0 1.00523e-12 0 1.00523e-12 -2.86874e-12 0 0 0 0)
(0 7.07578e-13 0 7.07578e-13 2.77586e-12 0 0 0 0)
(0 4.9504e-13 0 4.9504e-13 -2.68521e-12 0 0 0 0)
(0 3.4436e-13 0 3.4436e-13 2.59673e-12 0 0 0 0)
(0 2.37516e-13 0 2.37516e-13 -2.51068e-12 0 0 0 0)
(0 1.6194e-13 0 1.6194e-13 2.42693e-12 0 0 0 0)
(0 1.09624e-13 0 1.09624e-13 -2.34576e-12 0 0 0 0)
(0 7.39861e-14 0 7.39861e-14 2.26697e-12 0 0 0 0)
(0 4.97148e-14 0 4.97148e-14 -2.19079e-12 0 0 0 0)
(0 3.27887e-14 0 3.27887e-14 2.11703e-12 0 0 0 0)
(0 2.17022e-14 0 2.17022e-14 -2.04586e-12 0 0 0 0)
(0 1.42941e-14 0 1.42941e-14 1.97706e-12 0 0 0 0)
(0 9.06283e-15 0 9.06283e-15 -1.91081e-12 0 0 0 0)
(3.00904e-19 5.82663e-15 0 5.82663e-15 1.84681e-12 0 0 0 0)
(0 3.64755e-15 0 3.64755e-15 -1.7853e-12 0 0 0 0)
(0 2.30258e-15 0 2.30258e-15 1.7259e-12 0 0 0 0)
(0 1.37897e-15 0 1.37897e-15 -1.66882e-12 0 0 0 0)
(0 7.49834e-16 0 7.49834e-16 1.61372e-12 0 0 0 0)
(0 6.32932e-16 0 6.32932e-16 -1.56079e-12 0 0 0 0)
(0 4.61372e-16 0 4.61372e-16 1.50966e-12 0 0 0 0)
(0 1.92079e-16 0 1.92079e-16 -1.46053e-12 0 0 0 0)
(0 -6.21335e-17 0 -6.21335e-17 1.41303e-12 0 0 0 0)
(0 -1.7158e-16 0 -1.7158e-16 -1.36733e-12 0 0 0 0)
(2.46128e-19 1.43e-16 0 1.43e-16 1.32308e-12 0 0 0 0)
(0 2.02393e-16 0 2.02393e-16 -1.28045e-12 0 0 0 0)
(0 3.74154e-17 0 3.74154e-17 1.23915e-12 0 0 0 0)
(0 -9.60517e-17 0 -9.60517e-17 -1.19919e-12 0 0 0 0)
(0 -6.13221e-18 0 -6.13221e-18 1.16047e-12 0 0 0 0)
(0 -2.17036e-18 0 -2.17036e-18 -1.12291e-12 0 0 0 0)
(0 -2.69443e-17 0 -2.69443e-17 1.08642e-12 0 0 0 0)
(0 1.11888e-16 0 1.11888e-16 -1.05094e-12 0 0 0 0)
(0 -5.16087e-17 0 -5.16087e-17 1.01639e-12 0 0 0 0)
(0 -2.07104e-16 0 -2.07104e-16 -9.82718e-13 0 0 0 0)
(0 1.64229e-16 0 1.64229e-16 9.49844e-13 0 0 0 0)
(0 2.27606e-16 0 2.27606e-16 -9.17735e-13 0 0 0 0)
(0 -1.52345e-16 0 -1.52345e-16 8.86313e-13 0 0 0 0)
(0 -1.76514e-16 0 -1.76514e-16 -8.55419e-13 0 0 0 0)
(0 4.5528e-18 0 4.5528e-18 9.41026e-13 0 0 0 0)
(0 -2.11758e-17 0 -2.11758e-17 -9.26655e-13 0 0 0 0)
(0 -3.53636e-17 0 -3.53636e-17 9.11943e-13 0 0 0 0)
(0 5.27278e-17 0 5.27278e-17 -8.9703e-13 0 0 0 0)
(0 1.18585e-17 0 1.18585e-17 8.81874e-13 0 0 0 0)
(0 -3.45695e-17 0 -3.45695e-17 -8.66494e-13 0 0 0 0)
(0 2.3611e-17 0 2.3611e-17 8.50848e-13 0 0 0 0)
(0 -2.43522e-18 0 -2.43522e-18 -8.34965e-13 0 0 0 0)
(0 -3.51519e-17 0 -3.51519e-17 8.18801e-13 0 0 0 0)
(0 2.32405e-17 0 2.32405e-17 -8.02396e-13 0 0 0 0)
(0 3.5893e-17 0 3.5893e-17 7.85701e-13 0 0 0 0)
(0 9.42324e-18 0 9.42324e-18 -7.6877e-13 0 0 0 0)
(0 -3.5946e-17 0 -3.5946e-17 7.51543e-13 0 0 0 0)
(0 3.17637e-18 0 3.17637e-18 -7.34099e-13 0 0 0 0)
(0 2.13346e-17 0 2.13346e-17 7.16353e-13 0 0 0 0)
(0 -3.22931e-18 0 -3.22931e-18 -6.98421e-13 0 0 0 0)
(0 2.11229e-17 0 2.11229e-17 6.80171e-13 0 0 0 0)
(0 -3.19226e-17 0 -3.19226e-17 -6.61811e-13 0 0 0 0)
(0 -1.95876e-18 0 -1.95876e-18 6.43051e-13 0 0 0 0)
(0 1.48231e-17 0 1.48231e-17 -6.24333e-13 0 0 0 0)
(0 -1.55642e-17 0 -1.55642e-17 6.05095e-13 0 0 0 0)
(0 1.77348e-17 0 1.77348e-17 -5.86043e-13 0 0 0 0)
(0 1.07467e-17 0 1.07467e-17 5.66407e-13 0 0 0 0)
(0 -1.96935e-17 0 -1.96935e-17 -5.47042e-13 0 0 0 0)
(0 7.3586e-18 0 7.3586e-18 5.2706e-13 0 0 0 0)
(0 1.6623e-17 0 1.6623e-17 -5.07422e-13 0 0 0 0)
(0 -1.32349e-17 0 -1.32349e-17 4.87146e-13 0 0 0 0)
(0 -1.69407e-17 0 -1.69407e-17 -4.67268e-13 0 0 0 0)
(0 -2.20229e-17 0 -2.20229e-17 4.46739e-13 0 0 0 0)
(0 -1.48231e-18 0 -1.48231e-18 -4.26663e-13 0 0 0 0)
(0 -1.82112e-17 0 -1.82112e-17 4.05912e-13 0 0 0 0)
(0 3.59989e-18 0 3.59989e-18 -3.85672e-13 0 0 0 0)
(0 -1.05879e-19 0 -1.05879e-19 3.64732e-13 0 0 0 0)
(0 -1.25996e-17 0 -1.25996e-17 -3.44385e-13 0 0 0 0)
(0 2.58345e-17 0 2.58345e-17 3.23222e-13 0 0 0 0)
(0 8.78797e-18 0 8.78797e-18 -3.0289e-13 0 0 0 0)
(0 -7.83505e-18 0 -7.83505e-18 2.81522e-13 0 0 0 0)
(0 -9.05266e-18 0 -9.05266e-18 -2.62216e-13 0 0 0 0)
(0 7.51742e-18 0 7.51742e-18 2.47336e-13 0 0 0 0)
(0 -9.21148e-18 0 -9.21148e-18 -2.36515e-13 0 0 0 0)
(0 -7.41154e-19 0 -7.41154e-19 2.24848e-13 0 0 0 0)
(0 5.3469e-17 0 5.3469e-17 -2.1283e-13 0 0 0 0)
(0 4.44692e-18 0 4.44692e-18 1.99843e-13 0 0 0 0)
(0 -4.63751e-17 0 -4.63751e-17 -1.8608e-13 0 0 0 0)
(0 -1.23879e-17 0 -1.23879e-17 1.7125e-13 0 0 0 0)
(0 3.02285e-17 0 3.02285e-17 -1.54369e-13 0 0 0 0)
(0 3.07049e-17 0 3.07049e-17 1.36559e-13 0 0 0 0)
(0 -1.64113e-17 0 -1.64113e-17 -1.14107e-13 0 0 0 0)
(0 -4.18223e-18 0 -4.18223e-18 8.88176e-14 0 0 0 0)
(0 1.32878e-17 0 1.32878e-17 -3.52737e-14 0 0 0 0)
)
;

boundaryField
{
    inandouthalf11
    {
        type            cyclic;
    }
    inandouthalf12
    {
        type            cyclic;
    }
    inandouthalf21
    {
        type            cyclic;
    }
    inandouthalf22
    {
        type            cyclic;
    }
    inandouthalf31
    {
        type            cyclic;
    }
    inandouthalf32
    {
        type            cyclic;
    }
    inandouthalf41
    {
        type            cyclic;
    }
    inandouthalf42
    {
        type            cyclic;
    }
    top
    {
        type            symmetryPlane;
    }
    walls
    {
        type            zeroGradient;
    }
    frontAndBackPlanes
    {
        type            empty;
    }
}


// ************************************************************************* //
