/*--------------------------------*- C++ -*----------------------------------*\
| =========                 |                                                 |
| \\      /  F ield         | OpenFOAM: The Open Source CFD Toolbox           |
|  \\    /   O peration     | Version:  2.4.x                                 |
|   \\  /    A nd           | Web:      www.OpenFOAM.org                      |
|    \\/     M anipulation  |                                                 |
\*---------------------------------------------------------------------------*/
FoamFile
{
    version     2.0;
    format      ascii;
    class       volTensorField;
    location    "2";
    object      Taus;
}
// * * * * * * * * * * * * * * * * * * * * * * * * * * * * * * * * * * * * * //

dimensions      [0 2 -2 0 0 0 0];

internalField   nonuniform List<tensor> 
360
(
(0 0.0107023 0 0.0107023 -0.163503 0 0 0 0)
(0 -7.73671e-05 0 -7.73671e-05 0.0135814 0 0 0 0)
(0 -0.000469534 0 -0.000469534 -0.0216797 0 0 0 0)
(0 -0.000867076 0 -0.000867076 -0.0336452 0 0 0 0)
(-1.09479e-15 -0.00121321 0 -0.00121321 -0.0455787 0 0 0 0)
(-9.98097e-16 -0.00151389 0 -0.00151389 -0.056046 0 0 0 0)
(-4.56715e-16 -0.00177342 0 -0.00177342 -0.0652523 0 0 0 0)
(0 -0.00199642 0 -0.00199642 -0.0733253 0 0 0 0)
(-7.73325e-16 -0.00218882 0 -0.00218882 -0.0804448 0 0 0 0)
(0 -0.00235337 0 -0.00235337 -0.0867106 0 0 0 0)
(-3.32105e-16 -0.0024944 0 -0.0024944 -0.0922251 0 0 0 0)
(0 -0.00261617 0 -0.00261617 -0.0970959 0 0 0 0)
(-5.7956e-16 -0.00271961 0 -0.00271961 -0.101391 0 0 0 0)
(0 -0.00280788 0 -0.00280788 -0.105205 0 0 0 0)
(0 -0.00288328 0 -0.00288328 -0.108582 0 0 0 0)
(0 -0.00294757 0 -0.00294757 -0.111573 0 0 0 0)
(0 -0.00300242 0 -0.00300242 -0.114229 0 0 0 0)
(-4.37813e-16 -0.00304945 0 -0.00304945 -0.116594 0 0 0 0)
(0 -0.00308959 0 -0.00308959 -0.118722 0 0 0 0)
(0 -0.00312308 0 -0.00312308 -0.12061 0 0 0 0)
(0 -0.00315298 0 -0.00315298 -0.122338 0 0 0 0)
(-3.68458e-16 -0.00317792 0 -0.00317792 -0.123876 0 0 0 0)
(0 -0.00319944 0 -0.00319944 -0.125274 0 0 0 0)
(0 -0.0032185 0 -0.0032185 -0.126536 0 0 0 0)
(0 -0.00323562 0 -0.00323562 -0.127678 0 0 0 0)
(-1.60349e-16 -0.00325151 0 -0.00325151 -0.128719 0 0 0 0)
(0 -0.00326636 0 -0.00326636 -0.129688 0 0 0 0)
(0 -0.00327925 0 -0.00327925 -0.130573 0 0 0 0)
(0 -0.00329172 0 -0.00329172 -0.131404 0 0 0 0)
(0 -0.00330438 0 -0.00330438 -0.132173 0 0 0 0)
(0 -0.00331697 0 -0.00331697 -0.1329 0 0 0 0)
(0 -0.00332892 0 -0.00332892 -0.133555 0 0 0 0)
(0 -0.0033423 0 -0.0033423 -0.13422 0 0 0 0)
(0 -0.00335397 0 -0.00335397 -0.134798 0 0 0 0)
(0 -0.00336728 0 -0.00336728 -0.135393 0 0 0 0)
(2.40212e-16 -0.00338048 0 -0.00338048 -0.135936 0 0 0 0)
(0 -0.00339416 0 -0.00339416 -0.136478 0 0 0 0)
(0 -0.00340685 0 -0.00340685 -0.136994 0 0 0 0)
(0 -0.0034189 0 -0.0034189 -0.13747 0 0 0 0)
(0 -0.0034326 0 -0.0034326 -0.137974 0 0 0 0)
(0 -0.00344392 0 -0.00344392 -0.138407 0 0 0 0)
(0 -0.00345531 0 -0.00345531 -0.138839 0 0 0 0)
(9.51289e-17 -0.00346672 0 -0.00346672 -0.139273 0 0 0 0)
(0 -0.00347505 0 -0.00347505 -0.139648 0 0 0 0)
(0 -0.00348255 0 -0.00348255 -0.140032 0 0 0 0)
(0 -0.00348806 0 -0.00348806 -0.140383 0 0 0 0)
(0 -0.00349129 0 -0.00349129 -0.140702 0 0 0 0)
(0 -0.00349349 0 -0.00349349 -0.141034 0 0 0 0)
(0 -0.00349053 0 -0.00349053 -0.14133 0 0 0 0)
(0 -0.00348282 0 -0.00348282 -0.141584 0 0 0 0)
(1.26779e-16 -0.00347199 0 -0.00347199 -0.141871 0 0 0 0)
(0 -0.0034571 0 -0.0034571 -0.142118 0 0 0 0)
(0 -0.00343584 0 -0.00343584 -0.142408 0 0 0 0)
(0 -0.00341177 0 -0.00341177 -0.142717 0 0 0 0)
(0 -0.00337861 0 -0.00337861 -0.143169 0 0 0 0)
(0 -0.00334411 0 -0.00334411 -0.143698 0 0 0 0)
(0 -0.00328957 0 -0.00328957 -0.144484 0 0 0 0)
(0 -0.00323143 0 -0.00323143 -0.145294 0 0 0 0)
(0 -0.00313129 0 -0.00313129 -0.146067 0 0 0 0)
(0 -0.00302741 0 -0.00302741 -0.146437 0 0 0 0)
(0 -0.00282483 0 -0.00282483 -0.146254 0 0 0 0)
(0 -0.00263946 0 -0.00263946 -0.145441 0 0 0 0)
(0 -0.00242715 0 -0.00242715 -0.144272 0 0 0 0)
(0 -0.00223537 0 -0.00223537 -0.143009 0 0 0 0)
(0 -0.00198342 0 -0.00198342 -0.144555 0 0 0 0)
(0 -0.00176835 0 -0.00176835 -0.143552 0 0 0 0)
(0 -0.00156876 0 -0.00156876 -0.14395 0 0 0 0)
(0 -0.00136862 0 -0.00136862 -0.144646 0 0 0 0)
(0 -0.00104612 0 -0.00104612 -0.130233 0 0 0 0)
(0 -0.000869609 0 -0.000869609 -0.127559 0 0 0 0)
(0 -0.000715156 0 -0.000715156 -0.125423 0 0 0 0)
(0 -0.000576378 0 -0.000576378 -0.12444 0 0 0 0)
(0 -0.000437448 0 -0.000437448 -0.124499 0 0 0 0)
(0 -0.000283141 0 -0.000283141 -0.124658 0 0 0 0)
(0 -0.000111525 0 -0.000111525 -0.124321 0 0 0 0)
(0 6.57787e-05 0 6.57787e-05 -0.123369 0 0 0 0)
(0 0.000235394 0 0.000235394 -0.122001 0 0 0 0)
(0 0.000391588 0 0.000391588 -0.120369 0 0 0 0)
(0 0.000536067 0 0.000536067 -0.118607 0 0 0 0)
(0 0.000673815 0 0.000673815 -0.116813 0 0 0 0)
(0 0.000809629 0 0.000809629 -0.115071 0 0 0 0)
(0 0.000946421 0 0.000946421 -0.113406 0 0 0 0)
(0 0.0010854 0 0.0010854 -0.111831 0 0 0 0)
(0 0.00122621 0 0.00122621 -0.110324 0 0 0 0)
(0 0.00136718 0 0.00136718 -0.108845 0 0 0 0)
(0 0.00150608 0 0.00150608 -0.10736 0 0 0 0)
(0 0.00164088 0 0.00164088 -0.105844 0 0 0 0)
(0 0.00177059 0 0.00177059 -0.104295 0 0 0 0)
(0 0.00189514 0 0.00189514 -0.102717 0 0 0 0)
(0 0.00201514 0 0.00201514 -0.10112 0 0 0 0)
(0 0.00213164 0 0.00213164 -0.0995172 0 0 0 0)
(0 0.00224551 0 0.00224551 -0.0979153 0 0 0 0)
(0 0.00235716 0 0.00235716 -0.0963154 0 0 0 0)
(0 0.00246672 0 0.00246672 -0.0947169 0 0 0 0)
(0 0.00257408 0 0.00257408 -0.0931172 0 0 0 0)
(0 0.00267904 0 0.00267904 -0.0915132 0 0 0 0)
(0 0.00278152 0 0.00278152 -0.0899033 0 0 0 0)
(0 0.00288165 0 0.00288165 -0.0882875 0 0 0 0)
(0 0.00297968 0 0.00297968 -0.0866667 0 0 0 0)
(0 0.00307595 0 0.00307595 -0.085042 0 0 0 0)
(0 0.00317086 0 0.00317086 -0.0834145 0 0 0 0)
(0 0.00326479 0 0.00326479 -0.081785 0 0 0 0)
(0 0.00335808 0 0.00335808 -0.0801538 0 0 0 0)
(0 0.00345106 0 0.00345106 -0.0785211 0 0 0 0)
(0 0.00354409 0 0.00354409 -0.0768873 0 0 0 0)
(0 0.00363752 0 0.00363752 -0.0752527 0 0 0 0)
(0 0.0037317 0 0.0037317 -0.0736176 0 0 0 0)
(0 0.00382695 0 0.00382695 -0.0719824 0 0 0 0)
(0 0.00392357 0 0.00392357 -0.0703475 0 0 0 0)
(0 0.00402177 0 0.00402177 -0.0687129 0 0 0 0)
(0 0.00412172 0 0.00412172 -0.067079 0 0 0 0)
(0 0.00422354 0 0.00422354 -0.0654456 0 0 0 0)
(0 0.00432726 0 0.00432726 -0.0638129 0 0 0 0)
(0 0.00443286 0 0.00443286 -0.0621808 0 0 0 0)
(0 0.00454024 0 0.00454024 -0.0605492 0 0 0 0)
(0 0.00464926 0 0.00464926 -0.0589176 0 0 0 0)
(0 0.00475972 0 0.00475972 -0.057286 0 0 0 0)
(0 0.00487141 0 0.00487141 -0.0556538 0 0 0 0)
(0 0.00498407 0 0.00498407 -0.0540208 0 0 0 0)
(0 0.00509748 0 0.00509748 -0.0523865 0 0 0 0)
(0 0.00521143 0 0.00521143 -0.0507507 0 0 0 0)
(0 0.00532571 0 0.00532571 -0.0491129 0 0 0 0)
(0 0.00544008 0 0.00544008 -0.0474724 0 0 0 0)
(0 0.00555419 0 0.00555419 -0.0458285 0 0 0 0)
(0 0.00566751 0 0.00566751 -0.0441799 0 0 0 0)
(0 0.00577927 0 0.00577927 -0.0425251 0 0 0 0)
(0 0.00588864 0 0.00588864 -0.0408628 0 0 0 0)
(0 0.00599525 0 0.00599525 -0.0391928 0 0 0 0)
(0 0.00609986 0 0.00609986 -0.0375165 0 0 0 0)
(0 0.00620498 0 0.00620498 -0.0358373 0 0 0 0)
(0 0.00631411 0 0.00631411 -0.0341585 0 0 0 0)
(0 0.00642868 0 0.00642868 -0.0324794 0 0 0 0)
(0 0.00654343 0 0.00654343 -0.0307906 0 0 0 0)
(0 0.00664611 0 0.00664611 -0.0290768 0 0 0 0)
(0 0.00672945 0 0.00672945 -0.0273315 0 0 0 0)
(0 0.00680509 0 0.00680509 -0.0255703 0 0 0 0)
(0 0.00689006 0 0.00689006 -0.0238108 0 0 0 0)
(0 0.00697003 0 0.00697003 -0.0220421 0 0 0 0)
(0 0.00699265 0 0.00699265 -0.020235 0 0 0 0)
(0 0.00694104 0 0.00694104 -0.0183782 0 0 0 0)
(0 0.00693604 0 0.00693604 -0.0165125 0 0 0 0)
(0 0.00712032 0 0.00712032 -0.0147141 0 0 0 0)
(0 0.00719042 0 0.00719042 -0.0126957 0 0 0 0)
(0 0.00688972 0 0.00688972 -0.0106276 0 0 0 0)
(0 0.00632558 0 0.00632558 -0.0086289 0 0 0 0)
(0 0.00563189 0 0.00563189 -0.00651118 0 0 0 0)
(0 0.004959 0 0.004959 -0.00388062 0 0 0 0)
(0 0.00403365 0 0.00403365 -0.000830667 0 0 0 0)
(0 0.00242303 0 0.00242303 -5.30142e-05 0 0 0 0)
(0 0.00171074 0 0.00171074 -7.10194e-05 0 0 0 0)
(0 0.00325635 0 0.00325635 -8.75443e-05 0 0 0 0)
(0 0.0152185 0 0.0152185 -0.000149477 0 0 0 0)
(0 0.0218768 0 0.0218768 0.000136486 0 0 0 0)
(0 0.0245858 0 0.0245858 0.000434254 0 0 0 0)
(0 0.0250031 0 0.0250031 0.000671738 0 0 0 0)
(0 0.024414 0 0.024414 0.000822834 0 0 0 0)
(0 0.0237322 0 0.0237322 0.000911976 0 0 0 0)
(0 0.0237861 0 0.0237861 0.000966301 0 0 0 0)
(0 0.0254133 0 0.0254133 0.000934285 0 0 0 0)
(0 0.0303327 0 0.0303327 0.000521447 0 0 0 0)
(0 0.043323 0 0.043323 -0.00111661 0 0 0 0)
(0 0.0732841 0 0.0732841 -0.0054875 0 0 0 0)
(0 0.115855 0 0.115855 -0.0121552 0 0 0 0)
(0 0.155406 0 0.155406 -0.0180837 0 0 0 0)
(0 0.181394 0 0.181394 -0.0215205 0 0 0 0)
(0 0.20583 0 0.20583 -0.0243416 0 0 0 0)
(0 0.228065 0 0.228065 -0.0267855 0 0 0 0)
(0 0.241895 0 0.241895 -0.0280968 0 0 0 0)
(0 0.264101 0 0.264101 -0.0303583 0 0 0 0)
(0 0.273178 0 0.273178 -0.0310707 0 0 0 0)
(0 0.293108 0 0.293108 -0.0329774 0 0 0 0)
(0 0.299015 0 0.299015 -0.0333058 0 0 0 0)
(0 0.319342 0 0.319342 -0.0352448 0 0 0 0)
(0 0.322281 0 0.322281 -0.0352544 0 0 0 0)
(0 0.338626 0 0.338626 -0.03671 0 0 0 0)
(0 0.342013 0 0.342013 -0.0368075 0 0 0 0)
(0 0.358885 0 0.358885 -0.0383733 0 0 0 0)
(0 0.357927 0 0.357927 -0.0380047 0 0 0 0)
(0 0.371141 0 0.371141 -0.0391913 0 0 0 0)
(0 0.377292 0 0.377292 -0.0396866 0 0 0 0)
(0 0.380187 0 0.380187 -0.0397947 0 0 0 0)
(0 0.391141 0 0.391141 -0.0408339 0 0 0 0)
(0 0.389915 0 0.389915 -0.0405922 0 0 0 0)
(0 0.400039 0 0.400039 -0.0415732 0 0 0 0)
(0 0.397424 0 0.397424 -0.0412509 0 0 0 0)
(0 0.40654 0 0.40654 -0.0421933 0 0 0 0)
(0 0.405019 0 0.405019 -0.0420834 0 0 0 0)
(0 0.410522 0 0.410522 -0.0426994 0 0 0 0)
(0 0.405276 0 0.405276 -0.0421846 0 0 0 0)
(0 0.411676 0 0.411676 -0.0430151 0 0 0 0)
(0 0.412967 0 0.412967 -0.0433688 0 0 0 0)
(0 0.408909 0 0.408909 -0.0430832 0 0 0 0)
(0 0.409333 0 0.409333 -0.0433473 0 0 0 0)
(0 0.403626 0 0.403626 -0.0429661 0 0 0 0)
(0 0.406947 0 0.406947 -0.0436683 0 0 0 0)
(0 0.404794 0 0.404794 -0.0438588 0 0 0 0)
(0 0.403378 0 0.403378 -0.0441119 0 0 0 0)
(0 0.393303 0 0.393303 -0.043382 0 0 0 0)
(0 0.386212 0 0.386212 -0.0429838 0 0 0 0)
(0 0.381078 0 0.381078 -0.0429466 0 0 0 0)
(0 0.384107 0 0.384107 -0.044035 0 0 0 0)
(0 0.381396 0 0.381396 -0.0444896 0 0 0 0)
(-5.88363e-14 0.373495 0 0.373495 -0.0441966 0 0 0 0)
(0 0.357848 0 0.357848 -0.0428044 0 0 0 0)
(0 0.348662 0 0.348662 -0.0422372 0 0 0 0)
(2.81868e-14 0.351191 0 0.351191 -0.0434247 0 0 0 0)
(0 0.352633 0 0.352633 -0.0445324 0 0 0 0)
(-2.73376e-14 0.343573 0 0.343573 -0.0440521 0 0 0 0)
(0 0.328352 0 0.328352 -0.0425497 0 0 0 0)
(5.2572e-14 0.32281 0 0.32281 -0.0425236 0 0 0 0)
(0 0.32502 0 0.32502 -0.0438378 0 0 0 0)
(0 0.318374 0 0.318374 -0.0437246 0 0 0 0)
(0 0.304718 0 0.304718 -0.0423211 0 0 0 0)
(2.42276e-14 0.301291 0 0.301291 -0.0426224 0 0 0 0)
(0 0.305002 0 0.305002 -0.044296 0 0 0 0)
(0 0.297145 0 0.297145 -0.0439608 0 0 0 0)
(0 0.28194 0 0.28194 -0.0421748 0 0 0 0)
(0 0.277145 0 0.277145 -0.042245 0 0 0 0)
(0 0.281359 0 0.281359 -0.044095 0 0 0 0)
(-2.0902e-14 0.2775 0 0.2775 -0.0444506 0 0 0 0)
(0 0.266168 0 0.266168 -0.0432455 0 0 0 0)
(-1.97258e-14 0.261856 0 0.261856 -0.0434598 0 0 0 0)
(0 0.260796 0 0.260796 -0.0444265 0 0 0 0)
(0 0.252976 0 0.252976 -0.0438922 0 0 0 0)
(0 0.248514 0 0.248514 -0.043998 0 0 0 0)
(0 0.249286 0 0.249286 -0.0454129 0 0 0 0)
(0 0.241996 0 0.241996 -0.0450169 0 0 0 0)
(0 0.233694 0 0.233694 -0.0442584 0 0 0 0)
(3.12237e-14 0.233092 0 0.233092 -0.0454133 0 0 0 0)
(3.00204e-14 0.228591 0 0.228591 -0.0456783 0 0 0 0)
(0 0.219086 0 0.219086 -0.0446151 0 0 0 0)
(0 0.214448 0 0.214448 -0.044817 0 0 0 0)
(0 0.209681 0 0.209681 -0.0450127 0 0 0 0)
(0 0.20109 0 0.20109 -0.0441748 0 0 0 0)
(0 0.191722 0 0.191722 -0.0431754 0 0 0 0)
(0 0.181106 0 0.181106 -0.0418074 0 0 0 0)
(0 0.169388 0 0.169388 -0.040173 0 0 0 0)
(0 0.152856 0 0.152856 -0.0372339 0 0 0 0)
(0 0.129949 0 0.129949 -0.0324482 0 0 0 0)
(0 0.102686 0 0.102686 -0.0263644 0 0 0 0)
(0 0.0732428 0 0.0732428 -0.0191717 0 0 0 0)
(0 0.0553145 0 0.0553145 -0.0155992 0 0 0 0)
(0 0 0 0 -0 0 0 0 0)
(-0 0 0 0 -0 0 0 0 0)
(0 0 0 0 -0 0 0 0 0)
(0 0 0 0 0 0 0 0 0)
(0 0 0 0 -0 0 0 0 0)
(-0 0 0 0 -0 0 0 0 0)
(0 0 0 0 0 0 0 0 0)
(0 0 0 0 -0 0 0 0 0)
(-0 0 0 0 0 0 0 0 0)
(0 0 0 0 -0 0 0 0 0)
(0 0 0 0 0 0 0 0 0)
(0 0 0 0 -0 0 0 0 0)
(0 0 0 0 0 0 0 0 0)
(0 0 0 0 -0 0 0 0 0)
(0 0 0 0 0 0 0 0 0)
(0 0 0 0 -0 0 0 0 0)
(0 0 0 0 0 0 0 0 0)
(0 0 0 0 -0 0 0 0 0)
(0 0 0 0 0 0 0 0 0)
(0 0 0 0 -0 0 0 0 0)
(0 0 0 0 0 0 0 0 0)
(0 0 0 0 -0 0 0 0 0)
(0 0 0 0 0 0 0 0 0)
(0 0 0 0 -0 0 0 0 0)
(0 0 0 0 0 0 0 0 0)
(0 0 0 0 -0 0 0 0 0)
(0 0 0 0 0 0 0 0 0)
(0 0 0 0 -0 0 0 0 0)
(0 0 0 0 0 0 0 0 0)
(0 0 0 0 -0 0 0 0 0)
(0 0 0 0 0 0 0 0 0)
(0 0 0 0 -0 0 0 0 0)
(0 0 0 0 0 0 0 0 0)
(0 0 0 0 -0 0 0 0 0)
(0 0 0 0 0 0 0 0 0)
(0 0 0 0 -0 0 0 0 0)
(0 0 0 0 0 0 0 0 0)
(0 0 0 0 -0 0 0 0 0)
(0 0 0 0 0 0 0 0 0)
(0 0 0 0 -0 0 0 0 0)
(0 0 0 0 0 0 0 0 0)
(0 0 0 0 -0 0 0 0 0)
(0 0 0 0 0 0 0 0 0)
(0 0 0 0 -0 0 0 0 0)
(0 -0 0 -0 0 0 0 0 0)
(0 0 0 0 -0 0 0 0 0)
(0 -0 0 -0 0 0 0 0 0)
(0 0 0 0 -0 0 0 0 0)
(0 -0 0 -0 0 0 0 0 0)
(0 0 0 0 -0 0 0 0 0)
(0 -0 0 -0 0 0 0 0 0)
(0 0 0 0 -0 0 0 0 0)
(0 -0 0 -0 0 0 0 0 0)
(0 0 0 0 -0 0 0 0 0)
(0 -0 0 -0 0 0 0 0 0)
(0 0 0 0 -0 0 0 0 0)
(0 -0 0 -0 0 0 0 0 0)
(0 0 0 0 -0 0 0 0 0)
(0 -0 0 -0 0 0 0 0 0)
(0 0 0 0 -0 0 0 0 0)
(0 -0 0 -0 0 0 0 0 0)
(0 0 0 0 -0 0 0 0 0)
(0 -0 0 -0 0 0 0 0 0)
(0 0 0 0 -0 0 0 0 0)
(0 -0 0 -0 0 0 0 0 0)
(0 0 0 0 -0 0 0 0 0)
(0 -0 0 -0 0 0 0 0 0)
(0 0 0 0 -0 0 0 0 0)
(0 -0 0 -0 0 0 0 0 0)
(0 0 0 0 -0 0 0 0 0)
(0 -0 0 -0 0 0 0 0 0)
(0 0 0 0 -0 0 0 0 0)
(0 -0 0 -0 0 0 0 0 0)
(0 0 0 0 -0 0 0 0 0)
(0 -0 0 -0 0 0 0 0 0)
(0 0 0 0 -0 0 0 0 0)
(0 -0 0 -0 0 0 0 0 0)
(0 0 0 0 -0 0 0 0 0)
(0 -0 0 -0 0 0 0 0 0)
(0 0 0 0 -0 0 0 0 0)
(0 -0 0 -0 0 0 0 0 0)
(0 0 0 0 -0 0 0 0 0)
(0 -0 0 -0 0 0 0 0 0)
(0 0 0 0 -0 0 0 0 0)
(0 -0 0 -0 0 0 0 0 0)
(0 0 0 0 -0 0 0 0 0)
(0 -0 0 -0 0 0 0 0 0)
(0 0 0 0 -0 0 0 0 0)
(0 -0 0 -0 0 0 0 0 0)
(0 0 0 0 -0 0 0 0 0)
(0 -0 0 -0 0 0 0 0 0)
(0 0 0 0 -0 0 0 0 0)
(0 -0 0 -0 0 0 0 0 0)
(0 0 0 0 -0 0 0 0 0)
(0 -0 0 -0 0 0 0 0 0)
(0 0 0 0 -0 0 0 0 0)
(0 -0 0 -0 0 0 0 0 0)
(0 0 0 0 -0 0 0 0 0)
(0 -0 0 -0 0 0 0 0 0)
(0 0 0 0 -0 0 0 0 0)
(0 -0 0 -0 0 0 0 0 0)
(0 0 0 0 -0 0 0 0 0)
(0 -0 0 -0 0 0 0 0 0)
(0 0 0 0 -0 0 0 0 0)
(0 -0 0 -0 0 0 0 0 0)
(0 0 0 0 -0 0 0 0 0)
(0 -0 0 -0 0 0 0 0 0)
(0 0 0 0 -0 0 0 0 0)
(0 -0 0 -0 0 0 0 0 0)
(0 0 0 0 -0 0 0 0 0)
(0 -0 0 -0 0 0 0 0 0)
(0 0 0 0 0 0 0 0 0)
(0 0 0 0 0 0 0 0 0)
(0 0 0 0 0 0 0 0 0)
(0 0 0 0 0 0 0 0 0)
(0 0 0 0 0 0 0 0 0)
(0 0 0 0 0 0 0 0 0)
(0 0 0 0 0 0 0 0 0)
)
;

boundaryField
{
    inandouthalf11
    {
        type            cyclic;
    }
    inandouthalf12
    {
        type            cyclic;
    }
    inandouthalf21
    {
        type            cyclic;
    }
    inandouthalf22
    {
        type            cyclic;
    }
    inandouthalf31
    {
        type            cyclic;
    }
    inandouthalf32
    {
        type            cyclic;
    }
    inandouthalf41
    {
        type            cyclic;
    }
    inandouthalf42
    {
        type            cyclic;
    }
    top
    {
        type            symmetryPlane;
    }
    walls
    {
        type            zeroGradient;
    }
    frontAndBackPlanes
    {
        type            empty;
    }
}


// ************************************************************************* //
