/*--------------------------------*- C++ -*----------------------------------*\
| =========                 |                                                 |
| \\      /  F ield         | OpenFOAM: The Open Source CFD Toolbox           |
|  \\    /   O peration     | Version:  2.4.x                                 |
|   \\  /    A nd           | Web:      www.OpenFOAM.org                      |
|    \\/     M anipulation  |                                                 |
\*---------------------------------------------------------------------------*/
FoamFile
{
    version     2.0;
    format      ascii;
    class       volScalarField;
    location    "2";
    object      Theta_0;
}
// * * * * * * * * * * * * * * * * * * * * * * * * * * * * * * * * * * * * * //

dimensions      [0 2 -2 0 0 0 0];

internalField   nonuniform List<scalar> 
360
(
6.66136e-21
6.66136e-21
6.66136e-21
6.66136e-21
6.66136e-21
6.66136e-21
6.66136e-21
6.66136e-21
6.66136e-21
6.66136e-21
6.66136e-21
6.66136e-21
6.66136e-21
6.66136e-21
6.66136e-21
6.66136e-21
6.66136e-21
6.66136e-21
6.66136e-21
6.66136e-21
6.66136e-21
6.66136e-21
6.66136e-21
6.66136e-21
6.66136e-21
6.66136e-21
6.66136e-21
6.66136e-21
6.66136e-21
6.66136e-21
6.66136e-21
6.66136e-21
6.66136e-21
6.66136e-21
6.66136e-21
6.66136e-21
6.66136e-21
6.66136e-21
6.66136e-21
6.66136e-21
6.66135e-21
6.66135e-21
6.66135e-21
6.66135e-21
6.66135e-21
6.66135e-21
6.66135e-21
6.66135e-21
6.66135e-21
6.66135e-21
6.66135e-21
6.66135e-21
6.66135e-21
6.66135e-21
6.66135e-21
6.66135e-21
6.66135e-21
6.66135e-21
6.66135e-21
6.66135e-21
6.66135e-21
6.66135e-21
6.66134e-21
6.66134e-21
6.66134e-21
6.66134e-21
6.66134e-21
6.66134e-21
6.66163e-21
6.68257e-21
6.90557e-21
7.49686e-21
7.78079e-21
7.43935e-21
7.06747e-21
6.8775e-21
6.79939e-21
6.77173e-21
6.76848e-21
6.77942e-21
6.79874e-21
6.82039e-21
6.83784e-21
6.84677e-21
6.84706e-21
6.8419e-21
6.83507e-21
6.82919e-21
6.82534e-21
6.82347e-21
6.82293e-21
6.82293e-21
6.82289e-21
6.82253e-21
6.82187e-21
6.8211e-21
6.82048e-21
6.82023e-21
6.82048e-21
6.82119e-21
0
0
0
0
0
0
0
0
0
0
0
0
0
0
0
6.94464e-21
6.95598e-21
6.96632e-21
6.97533e-21
6.98275e-21
6.98842e-21
6.99234e-21
6.99468e-21
6.9958e-21
6.99612e-21
6.99592e-21
6.99499e-21
6.9924e-21
6.98644e-21
6.97537e-21
6.95877e-21
6.93888e-21
6.92009e-21
6.90626e-21
6.89751e-21
6.8894e-21
6.87655e-21
6.85688e-21
6.82871e-21
6.78592e-21
6.73164e-21
6.68911e-21
6.63218e-21
1.05294e-19
5.65059e-18
7.83352e-15
1.07686e-10
7.95014e-08
6.38739e-06
0.000141489
0.0019607
0.00729255
0.00931744
0.00959683
0.00900885
0.00803719
0.00698489
0.00605417
0.00536827
0.00495647
0.00475166
0.00465136
0.00458867
0.00453928
0.00449559
0.00445558
0.00441807
0.00438234
0.00434826
0.00431531
0.00428352
0.00425254
0.00422242
0.00419286
0.00416392
0.00413541
0.00410734
0.00407953
0.00405202
0.0040247
0.00399752
0.00397045
0.00394342
0.00391642
0.00388938
0.00386231
0.00383513
0.00380785
0.00378043
0.00375287
0.00372512
0.00369717
0.00366901
0.00364062
0.00361202
0.00358316
0.00355404
0.00352464
0.00349498
0.00346506
0.00343488
0.00340411
0.00337239
0.00333971
0.00330606
0.0032714
0.00323568
0.00319883
0.00316082
0.00312163
0.00308121
0.00303948
0.00299639
0.0029519
0.00290594
0.00285842
0.00280927
0.00275844
0.00270585
0.00265137
0.00259489
0.00253632
0.00247555
0.00241241
0.00234678
0.00227848
0.0022073
0.00213305
0.00205549
0.00197433
0.00188924
0.00179987
0.00170578
0.0016064
0.00150109
0.00138904
0.00126916
0.00114001
0.000999522
0.000844546
0.000669519
0.000462241
0
0
0
0
0
0
0
0
0
0
0
0
0
0
0
0
0
0
0
0
0
0
0
0
0
0
0
0
0
0
0
0
0
0
0
0
0
0
0
0
0
0
0
0
0
0
0
0
0
0
0
0
0
0
0
0
0
0
0
0
0
0
0
0
0
0
0
0
0
0
0
0
0
0
0
0
0
0
0
0
0
0
0
0
0
0
0
0
0
0
0
0
0
0
0
0
0
0
0
0
0
0
0
0
0
0
0
0
0
0
0
0
0
0
0
0
0
0
)
;

boundaryField
{
    inandouthalf11
    {
        type            cyclic;
    }
    inandouthalf12
    {
        type            cyclic;
    }
    inandouthalf21
    {
        type            cyclic;
    }
    inandouthalf22
    {
        type            cyclic;
    }
    inandouthalf31
    {
        type            cyclic;
    }
    inandouthalf32
    {
        type            cyclic;
    }
    inandouthalf41
    {
        type            cyclic;
    }
    inandouthalf42
    {
        type            cyclic;
    }
    top
    {
        type            symmetryPlane;
    }
    walls
    {
        type            zeroGradient;
    }
    frontAndBackPlanes
    {
        type            empty;
    }
}


// ************************************************************************* //
