/*--------------------------------*- C++ -*----------------------------------*\
| =========                 |                                                 |
| \\      /  F ield         | OpenFOAM: The Open Source CFD Toolbox           |
|  \\    /   O peration     | Version:  2.4.x                                 |
|   \\  /    A nd           | Web:      www.OpenFOAM.org                      |
|    \\/     M anipulation  |                                                 |
\*---------------------------------------------------------------------------*/
FoamFile
{
    version     2.0;
    format      ascii;
    class       volScalarField;
    location    "2";
    object      Theta;
}
// * * * * * * * * * * * * * * * * * * * * * * * * * * * * * * * * * * * * * //

dimensions      [0 2 -2 0 0 0 0];

internalField   nonuniform List<scalar> 
360
(
6.66136e-21
6.66136e-21
6.66136e-21
6.66136e-21
6.66136e-21
6.66136e-21
6.66136e-21
6.66136e-21
6.66136e-21
6.66136e-21
6.66136e-21
6.66136e-21
6.66136e-21
6.66136e-21
6.66136e-21
6.66136e-21
6.66136e-21
6.66136e-21
6.66136e-21
6.66136e-21
6.66136e-21
6.66136e-21
6.66136e-21
6.66136e-21
6.66136e-21
6.66136e-21
6.66136e-21
6.66136e-21
6.66136e-21
6.66136e-21
6.66136e-21
6.66136e-21
6.66136e-21
6.66136e-21
6.66136e-21
6.66136e-21
6.66136e-21
6.66136e-21
6.66136e-21
6.66136e-21
6.66135e-21
6.66135e-21
6.66135e-21
6.66135e-21
6.66135e-21
6.66135e-21
6.66135e-21
6.66135e-21
6.66135e-21
6.66135e-21
6.66135e-21
6.66135e-21
6.66135e-21
6.66135e-21
6.66135e-21
6.66135e-21
6.66135e-21
6.66135e-21
6.66135e-21
6.66135e-21
6.66135e-21
6.66135e-21
6.66134e-21
6.66134e-21
6.66134e-21
6.66134e-21
6.66134e-21
6.66134e-21
6.66164e-21
6.6828e-21
6.90725e-21
7.49985e-21
7.78159e-21
7.43836e-21
7.06656e-21
6.87695e-21
6.79906e-21
6.7715e-21
6.76829e-21
6.77926e-21
6.7986e-21
6.82027e-21
6.83774e-21
6.84667e-21
6.84696e-21
6.84179e-21
6.83496e-21
6.82906e-21
6.8252e-21
6.82332e-21
6.82276e-21
6.82276e-21
6.82272e-21
6.82237e-21
6.82171e-21
6.82095e-21
6.82034e-21
6.8201e-21
6.82035e-21
6.82107e-21
0
0
0
0
0
0
0
0
0
0
0
0
0
0
0
6.94447e-21
6.95578e-21
6.96609e-21
6.97506e-21
6.98245e-21
6.98808e-21
6.99196e-21
6.99427e-21
6.99536e-21
6.99566e-21
6.99543e-21
6.99448e-21
6.99188e-21
6.98592e-21
6.97486e-21
6.95829e-21
6.93845e-21
6.91969e-21
6.90588e-21
6.89713e-21
6.88902e-21
6.87619e-21
6.85655e-21
6.82844e-21
6.78574e-21
6.73154e-21
6.68906e-21
6.63186e-21
1.06538e-19
5.7138e-18
7.81112e-15
1.07417e-10
7.93692e-08
6.38039e-06
0.000141328
0.00195983
0.00729285
0.00931937
0.0096002
0.00901326
0.00804211
0.0069898
0.00605862
0.00537198
0.00495945
0.00475414
0.00465359
0.00459078
0.00454132
0.00449757
0.00445751
0.00441996
0.0043842
0.00435008
0.00431711
0.00428529
0.00425429
0.00422414
0.00419456
0.00416559
0.00413706
0.00410896
0.00408113
0.00405361
0.00402626
0.00399906
0.00397197
0.00394492
0.0039179
0.00389084
0.00386374
0.00383655
0.00380925
0.0037818
0.00375422
0.00372645
0.00369848
0.0036703
0.00364189
0.00361327
0.00358439
0.00355525
0.00352583
0.00349615
0.00346621
0.00343601
0.00340522
0.00337348
0.00334078
0.00330711
0.00327243
0.00323669
0.00319982
0.00316179
0.00312257
0.00308213
0.00304038
0.00299726
0.00295275
0.00290677
0.00285923
0.00281005
0.0027592
0.00270659
0.00265208
0.00259558
0.00253699
0.00247619
0.00241303
0.00234737
0.00227905
0.00220785
0.00213357
0.00205599
0.0019748
0.00188969
0.00180029
0.00170617
0.00160677
0.00150143
0.00138935
0.00126944
0.00114026
0.000999743
0.000844732
0.000669665
0.000462342
0
0
0
0
0
0
0
0
0
0
0
0
0
0
0
0
0
0
0
0
0
0
0
0
0
0
0
0
0
0
0
0
0
0
0
0
0
0
0
0
0
0
0
0
0
0
0
0
0
0
0
0
0
0
0
0
0
0
0
0
0
0
0
0
0
0
0
0
0
0
0
0
0
0
0
0
0
0
0
0
0
0
0
0
0
0
0
0
0
0
0
0
0
0
0
0
0
0
0
0
0
0
0
0
0
0
0
0
0
0
0
0
0
0
0
0
0
0
)
;

boundaryField
{
    inandouthalf11
    {
        type            cyclic;
    }
    inandouthalf12
    {
        type            cyclic;
    }
    inandouthalf21
    {
        type            cyclic;
    }
    inandouthalf22
    {
        type            cyclic;
    }
    inandouthalf31
    {
        type            cyclic;
    }
    inandouthalf32
    {
        type            cyclic;
    }
    inandouthalf41
    {
        type            cyclic;
    }
    inandouthalf42
    {
        type            cyclic;
    }
    top
    {
        type            symmetryPlane;
    }
    walls
    {
        type            zeroGradient;
    }
    frontAndBackPlanes
    {
        type            empty;
    }
}


// ************************************************************************* //
