/*--------------------------------*- C++ -*----------------------------------*\
| =========                 |                                                 |
| \\      /  F ield         | OpenFOAM: The Open Source CFD Toolbox           |
|  \\    /   O peration     | Version:  2.4.x                                 |
|   \\  /    A nd           | Web:      www.OpenFOAM.org                      |
|    \\/     M anipulation  |                                                 |
\*---------------------------------------------------------------------------*/
FoamFile
{
    version     2.0;
    format      ascii;
    class       volScalarField;
    location    "2";
    object      tmf;
}
// * * * * * * * * * * * * * * * * * * * * * * * * * * * * * * * * * * * * * //

dimensions      [0 0 0 0 0 0 0];

internalField   nonuniform List<scalar> 
360
(
0.999204
0.999204
0.999204
0.999204
0.999204
0.999204
0.999204
0.999204
0.999204
0.999204
0.999204
0.999204
0.999204
0.999204
0.999204
0.999204
0.999204
0.999204
0.999204
0.999204
0.999204
0.999203
0.999203
0.999203
0.999203
0.999203
0.999203
0.999203
0.999203
0.999203
0.999203
0.999203
0.999203
0.999203
0.999203
0.999203
0.999203
0.999203
0.999203
0.999203
0.999203
0.999203
0.999203
0.999203
0.999203
0.999203
0.999203
0.999203
0.999203
0.999203
0.999203
0.999203
0.999203
0.999203
0.999203
0.999203
0.999202
0.999202
0.999202
0.999202
0.999202
0.999202
0.999202
0.999202
0.999201
0.999201
0.999201
0.999201
0.999201
0.9992
0.9992
0.9992
0.9992
0.9992
0.9992
0.9992
0.9992
0.9992
0.999199
0.999199
0.999199
0.999199
0.999199
0.999199
0.999198
0.999198
0.999198
0.999198
0.999198
0.999197
0.999197
0.999197
0.999197
0.999197
0.999196
0.999196
0.999196
0.999196
0.999196
0.999195
0.999195
0.999195
0.999195
0.999194
0.999194
0.999194
0.999193
0.999193
0.999193
0.999193
0.999192
0.999192
0.999192
0.999191
0.999191
0.999191
0.99919
0.99919
0.999189
0.999189
0.999189
0.999188
0.999188
0.999187
0.999187
0.999186
0.999186
0.999185
0.999185
0.999184
0.999184
0.999183
0.999183
0.999182
0.999181
0.99918
0.99918
0.999179
0.999178
0.999177
0.999176
0.999043
0.992964
0.985674
0.982954
0.979529
0.97517
0.969586
0.962315
0.946165
0.698037
0.571986
0.650499
0.713141
0.758385
0.793899
0.824503
0.852707
0.879286
0.903114
0.923083
0.940268
0.956505
0.969497
0.977209
0.98166
0.984758
0.987531
0.990312
0.992493
0.993837
0.994686
0.995295
0.995771
0.996159
0.996476
0.996735
0.996935
0.997069
0.997123
0.997066
0.996844
0.996726
0.996718
0.99671
0.996702
0.996693
0.996684
0.996675
0.996666
0.996657
0.996648
0.996638
0.996628
0.996618
0.996608
0.996598
0.996588
0.996578
0.996568
0.996558
0.996547
0.996536
0.996525
0.996515
0.996504
0.996492
0.99648
0.996468
0.996456
0.996443
0.99643
0.996417
0.996404
0.99639
0.996376
0.996361
0.996347
0.996332
0.996316
0.9963
0.996284
0.996267
0.996249
0.996231
0.996213
0.996193
0.996173
0.996153
0.996131
0.996109
0.996087
0.996063
0.996039
0.996014
0.995989
0.995963
0.995936
0.995911
0.995888
0.995868
0.995852
0.995834
0.994192
0.994192
0.994192
0.994192
0.994192
0.994192
0.994192
0.994192
0.994192
0.994192
0.994192
0.994192
0.994192
0.994192
0.994192
0.994192
0.994192
0.994192
0.994192
0.994192
0.994192
0.994192
0.994192
0.994192
0.994192
0.994192
0.994192
0.994192
0.994192
0.994192
0.994192
0.994192
0.994192
0.994192
0.994192
0.994192
0.994192
0.994192
0.994192
0.994192
0.994192
0.994192
0.994192
0.994192
0.994192
0.994192
0.994192
0.994192
0.994192
0.994192
0.994192
0.994192
0.994192
0.994192
0.994192
0.994192
0.994192
0.994192
0.994192
0.994192
0.994192
0.994192
0.994192
0.994192
0.994192
0.994192
0.994192
0.994192
0.994192
0.994192
0.994192
0.994192
0.994192
0.994192
0.994192
0.994192
0.994192
0.994192
0.994192
0.994192
0.994192
0.994192
0.994192
0.994192
0.994192
0.994192
0.994192
0.994192
0.994192
0.994192
0.994192
0.994192
0.994192
0.994192
0.994192
0.994192
0.994192
0.994192
0.994192
0.994192
0.994192
0.994192
0.994192
0.994192
0.994192
0.994192
0.994192
0.994192
0.994192
0.994192
0.994192
0.994192
0.994192
0.994192
0.994192
0.994177
0.99325
)
;

boundaryField
{
    inandouthalf11
    {
        type            cyclic;
    }
    inandouthalf12
    {
        type            cyclic;
    }
    inandouthalf21
    {
        type            cyclic;
    }
    inandouthalf22
    {
        type            cyclic;
    }
    inandouthalf31
    {
        type            cyclic;
    }
    inandouthalf32
    {
        type            cyclic;
    }
    inandouthalf41
    {
        type            cyclic;
    }
    inandouthalf42
    {
        type            cyclic;
    }
    top
    {
        type            symmetryPlane;
    }
    walls
    {
        type            calculated;
        value           uniform 0;
    }
    frontAndBackPlanes
    {
        type            empty;
    }
}


// ************************************************************************* //
