/*--------------------------------*- C++ -*----------------------------------*\
| =========                 |                                                 |
| \\      /  F ield         | OpenFOAM: The Open Source CFD Toolbox           |
|  \\    /   O peration     | Version:  2.4.x                                 |
|   \\  /    A nd           | Web:      www.OpenFOAM.org                      |
|    \\/     M anipulation  |                                                 |
\*---------------------------------------------------------------------------*/
FoamFile
{
    version     2.0;
    format      ascii;
    class       volVectorField;
    location    "2";
    object      U;
}
// * * * * * * * * * * * * * * * * * * * * * * * * * * * * * * * * * * * * * //

dimensions      [0 1 -1 0 0 0 0];

internalField   nonuniform List<vector> 
360
(
(-5.46379e-05 2.23186e-14 0)
(-5.47311e-05 6.70319e-14 0)
(-5.47317e-05 1.11897e-13 0)
(-5.47317e-05 1.56869e-13 0)
(-5.47317e-05 2.01913e-13 0)
(-5.47323e-05 2.46948e-13 0)
(-5.47323e-05 2.9198e-13 0)
(-5.47329e-05 3.37037e-13 0)
(-5.47329e-05 3.81946e-13 0)
(-5.47335e-05 4.26901e-13 0)
(-5.47341e-05 4.71888e-13 0)
(-5.47341e-05 5.16673e-13 0)
(-5.47347e-05 5.6132e-13 0)
(-5.47353e-05 6.06014e-13 0)
(-5.47359e-05 6.50719e-13 0)
(-5.47365e-05 6.95251e-13 0)
(-5.47371e-05 7.39674e-13 0)
(-5.47377e-05 7.84035e-13 0)
(-5.47383e-05 8.28273e-13 0)
(-5.47395e-05 8.72507e-13 0)
(-5.47401e-05 9.16536e-13 0)
(-5.47413e-05 9.60381e-13 0)
(-5.47425e-05 1.00408e-12 0)
(-5.47437e-05 1.04763e-12 0)
(-5.47449e-05 1.09106e-12 0)
(-5.47461e-05 1.13423e-12 0)
(-5.47473e-05 1.17715e-12 0)
(-5.47491e-05 1.21995e-12 0)
(-5.47509e-05 1.26259e-12 0)
(-5.47527e-05 1.30513e-12 0)
(-5.47546e-05 1.34754e-12 0)
(-5.4757e-05 1.3898e-12 0)
(-5.47588e-05 1.43172e-12 0)
(-5.47618e-05 1.47347e-12 0)
(-5.47642e-05 1.51518e-12 0)
(-5.47672e-05 1.55658e-12 0)
(-5.47702e-05 1.59774e-12 0)
(-5.47738e-05 1.63873e-12 0)
(-5.4778e-05 1.67955e-12 0)
(-5.47816e-05 1.72013e-12 0)
(-5.47864e-05 1.76044e-12 0)
(-5.47912e-05 1.80063e-12 0)
(-5.4796e-05 1.84055e-12 0)
(-5.4802e-05 1.88024e-12 0)
(-5.4808e-05 1.91968e-12 0)
(-5.48146e-05 1.9588e-12 0)
(-5.48218e-05 1.99777e-12 0)
(-5.4829e-05 2.03648e-12 0)
(-5.48374e-05 2.07496e-12 0)
(-5.48471e-05 2.1132e-12 0)
(-5.48567e-05 2.15113e-12 0)
(-5.48675e-05 2.18888e-12 0)
(-5.48789e-05 2.2264e-12 0)
(-5.48916e-05 2.26372e-12 0)
(-5.49048e-05 2.3006e-12 0)
(-5.49198e-05 2.33727e-12 0)
(-5.49355e-05 2.37361e-12 0)
(-5.4953e-05 2.40974e-12 0)
(-5.49716e-05 2.44564e-12 0)
(-5.49915e-05 2.48117e-12 0)
(-5.50138e-05 2.51653e-12 0)
(-5.50373e-05 2.55154e-12 0)
(-5.50632e-05 2.58623e-12 0)
(-5.5091e-05 2.62084e-12 0)
(-5.51212e-05 2.65526e-12 0)
(-5.51538e-05 2.9293e-12 0)
(-5.51895e-05 -8.19675e-12 0)
(-5.52281e-05 8.32452e-11 0)
(-5.52697e-05 -3.32657e-10 0)
(-5.53123e-05 2.40448e-08 0)
(-5.53509e-05 7.49456e-08 0)
(-5.53757e-05 6.10031e-08 0)
(-5.53836e-05 -1.3902e-08 0)
(-5.53862e-05 -5.10981e-08 0)
(-5.53941e-05 -4.31585e-08 0)
(-5.54112e-05 -2.5779e-08 0)
(-5.54351e-05 -1.25178e-08 0)
(-5.54635e-05 -3.90717e-09 0)
(-5.5494e-05 1.62334e-09 0)
(-5.55245e-05 4.90249e-09 0)
(-5.55529e-05 6.09392e-09 0)
(-5.55783e-05 5.3704e-09 0)
(-5.56003e-05 3.3182e-09 0)
(-5.56193e-05 9.323e-10 0)
(-5.56362e-05 -8.78147e-10 0)
(-5.5652e-05 -1.74765e-09 0)
(-5.56676e-05 -1.79326e-09 0)
(-5.5683e-05 -1.37633e-09 0)
(-5.56983e-05 -8.29624e-10 0)
(-5.57132e-05 -3.8127e-10 0)
(-5.57273e-05 -1.37172e-10 0)
(-5.57404e-05 -8.77386e-11 0)
(-5.57524e-05 -1.52972e-10 0)
(-5.57635e-05 -2.51991e-10 0)
(-5.57737e-05 -3.18257e-10 0)
(-5.5783e-05 -3.19097e-10 0)
(-5.57915e-05 -2.55616e-10 0)
(-5.57991e-05 -1.4617e-10 0)
(-5.58059e-05 -1.02324e-11 0)
(-5.58117e-05 1.39727e-10 0)
(-5.58163e-05 2.98454e-10 0)
(-5.58197e-05 4.67757e-10 0)
(-5.58217e-05 6.50915e-10 0)
(-5.5822e-05 8.474e-10 0)
(-5.58205e-05 1.05367e-09 0)
(-5.58168e-05 1.26391e-09 0)
(-5.58108e-05 1.47037e-09 0)
(-5.5802e-05 1.66484e-09 0)
(-5.579e-05 1.83905e-09 0)
(-5.57746e-05 1.98443e-09 0)
(-5.57552e-05 2.09227e-09 0)
(-5.57314e-05 2.15427e-09 0)
(-5.57028e-05 2.16322e-09 0)
(-5.56689e-05 2.11386e-09 0)
(-5.56294e-05 2.00347e-09 0)
(-5.55839e-05 1.83199e-09 0)
(-5.55321e-05 1.60214e-09 0)
(-5.54736e-05 1.31966e-09 0)
(-5.54084e-05 9.94006e-10 0)
(-5.53361e-05 6.39683e-10 0)
(-5.52567e-05 2.77535e-10 0)
(-5.51701e-05 -6.54576e-11 0)
(-5.50762e-05 -3.60426e-10 0)
(-5.49749e-05 -5.8698e-10 0)
(-5.48661e-05 -7.50007e-10 0)
(-5.47493e-05 -8.9909e-10 0)
(-5.46242e-05 -1.13898e-09 0)
(-5.44907e-05 -1.60972e-09 0)
(-5.43487e-05 -2.41213e-09 0)
(-5.41989e-05 -3.48414e-09 0)
(-5.40426e-05 -4.51271e-09 0)
(-5.38815e-05 -5.04137e-09 0)
(-5.37171e-05 -4.80165e-09 0)
(-5.35496e-05 -3.99366e-09 0)
(-5.33768e-05 -3.28649e-09 0)
(-5.31943e-05 -3.57379e-09 0)
(-5.29994e-05 -5.23003e-09 0)
(-5.27975e-05 -7.96073e-09 0)
(-5.26033e-05 -1.18484e-08 0)
(-5.24379e-05 -1.59662e-08 0)
(-5.23189e-05 -1.6154e-08 0)
(-5.22493e-05 -2.15293e-08 0)
(-5.2299e-05 -2.06534e-08 0)
(-5.2487e-05 -1.59478e-08 0)
(-5.27926e-05 -1.66074e-08 0)
(-5.3229e-05 -1.79029e-08 0)
(-5.38121e-05 -2.60294e-08 0)
(-5.46113e-05 -2.03205e-08 0)
(-5.4358e-05 -2.86713e-06 0)
(0.0039925 -1.09156e-05 0)
(0.102233 0.000494779 0)
(0.284627 -0.000271782 0)
(0.452457 0.000200769 0)
(0.60131 -0.000148989 0)
(0.732317 0.000113551 0)
(0.846519 -0.000100875 0)
(0.945104 8.39198e-05 0)
(1.0293 -6.89352e-05 0)
(1.09969 5.05623e-05 0)
(1.15567 -3.84836e-05 0)
(1.1967 2.96432e-05 0)
(1.22511 -2.43012e-05 0)
(1.24528 2.13494e-05 0)
(1.26077 -1.9195e-05 0)
(1.27315 1.73107e-05 0)
(1.28336 -1.55974e-05 0)
(1.29185 1.40705e-05 0)
(1.29899 -1.26919e-05 0)
(1.30513 1.14579e-05 0)
(1.31043 -1.03456e-05 0)
(1.31511 9.34805e-06 0)
(1.31924 -8.44928e-06 0)
(1.32296 7.64219e-06 0)
(1.32629 -6.91494e-06 0)
(1.32932 6.26106e-06 0)
(1.33206 -5.67155e-06 0)
(1.33457 5.14088e-06 0)
(1.33684 -4.66201e-06 0)
(1.33893 4.2303e-06 0)
(1.34084 -3.84024e-06 0)
(1.34259 3.48805e-06 0)
(1.3442 -3.1694e-06 0)
(1.34568 2.88122e-06 0)
(1.34704 -2.62009e-06 0)
(1.34828 2.38355e-06 0)
(1.34943 -2.16888e-06 0)
(1.35049 1.97412e-06 0)
(1.35146 -1.79713e-06 0)
(1.35236 1.63633e-06 0)
(1.35319 -1.49002e-06 0)
(1.35395 1.35696e-06 0)
(1.35465 -1.23577e-06 0)
(1.3553 1.12546e-06 0)
(1.35589 -1.02492e-06 0)
(1.35644 9.33357e-07 0)
(1.35695 -8.49875e-07 0)
(1.35742 7.73833e-07 0)
(1.35785 -7.045e-07 0)
(1.35825 6.41351e-07 0)
(1.35862 -5.83785e-07 0)
(1.35895 5.31383e-07 0)
(1.35927 -4.93891e-07 0)
(1.35957 4.59922e-07 0)
(1.35985 -4.2907e-07 0)
(1.36011 4.01071e-07 0)
(1.36035 -3.75602e-07 0)
(1.36058 3.52476e-07 0)
(1.36079 -3.31424e-07 0)
(1.36099 3.12304e-07 0)
(1.36117 -2.94901e-07 0)
(1.36134 2.79108e-07 0)
(1.36149 -2.6474e-07 0)
(1.36164 2.51717e-07 0)
(1.36177 -2.39886e-07 0)
(1.36189 2.29185e-07 0)
(1.36201 -2.1948e-07 0)
(1.36211 2.10722e-07 0)
(1.3622 -2.02797e-07 0)
(1.36229 1.95669e-07 0)
(1.36236 -1.89233e-07 0)
(1.36243 1.83463e-07 0)
(1.3625 -1.78267e-07 0)
(1.36255 1.73625e-07 0)
(1.36261 -1.69454e-07 0)
(1.36265 1.65739e-07 0)
(1.36269 -1.62404e-07 0)
(1.36273 1.59443e-07 0)
(1.36276 -1.56785e-07 0)
(1.36279 1.54427e-07 0)
(1.36282 -1.52306e-07 0)
(1.36284 1.50421e-07 0)
(1.36286 -1.48716e-07 0)
(1.36288 1.47194e-07 0)
(1.36289 -1.45804e-07 0)
(1.36291 1.4455e-07 0)
(1.36292 -1.43388e-07 0)
(1.36293 1.42324e-07 0)
(1.36294 -1.41318e-07 0)
(1.36295 1.4038e-07 0)
(1.36295 -1.39472e-07 0)
(1.36296 1.38607e-07 0)
(1.36296 -1.37752e-07 0)
(1.36297 1.3692e-07 0)
(1.36297 -1.35932e-07 0)
(1.36297 1.351e-07 0)
(1.36297 -1.3425e-07 0)
(1.36298 1.33399e-07 0)
(1.36298 -1.32522e-07 0)
(1.36298 1.31636e-07 0)
(1.36298 -1.30721e-07 0)
(1.36298 1.29795e-07 0)
(1.36298 -1.28837e-07 0)
(1.36298 1.27867e-07 0)
(1.36298 -1.26868e-07 0)
(1.36298 1.25857e-07 0)
(1.36298 -1.24819e-07 0)
(1.36298 1.23773e-07 0)
(1.36299 -1.22704e-07 0)
(1.36299 1.21629e-07 0)
(1.36299 -1.20537e-07 0)
(1.36299 1.19443e-07 0)
(1.36299 -1.18337e-07 0)
(1.36299 1.17234e-07 0)
(1.36299 -1.16125e-07 0)
(1.36299 1.15022e-07 0)
(1.36299 -1.13918e-07 0)
(1.36299 1.12826e-07 0)
(1.36299 -1.11736e-07 0)
(1.36299 1.10662e-07 0)
(1.36299 -1.09596e-07 0)
(1.36299 1.08548e-07 0)
(1.36299 -1.07511e-07 0)
(1.36299 1.06496e-07 0)
(1.36299 -1.05494e-07 0)
(1.36299 1.04516e-07 0)
(1.36299 -1.03555e-07 0)
(1.36299 1.02618e-07 0)
(1.36299 -1.017e-07 0)
(1.36299 1.00808e-07 0)
(1.36299 -9.9934e-08 0)
(1.36299 9.9087e-08 0)
(1.36299 -9.82596e-08 0)
(1.36299 9.74585e-08 0)
(1.36299 -9.66772e-08 0)
(1.36299 9.59218e-08 0)
(1.36299 -9.51861e-08 0)
(1.36299 9.44755e-08 0)
(1.36299 -9.37842e-08 0)
(1.36299 9.31171e-08 0)
(1.36299 -9.24689e-08 0)
(1.36299 9.18438e-08 0)
(1.36299 -9.12373e-08 0)
(1.36299 9.06526e-08 0)
(1.36299 -9.00863e-08 0)
(1.36299 8.95408e-08 0)
(1.36299 -8.90136e-08 0)
(1.36299 8.85062e-08 0)
(1.36299 -8.80173e-08 0)
(1.36299 8.75475e-08 0)
(1.36299 -8.70964e-08 0)
(1.36299 8.66645e-08 0)
(1.36299 -8.62514e-08 0)
(1.36299 8.5858e-08 0)
(1.36299 -8.5484e-08 0)
(1.36299 8.51305e-08 0)
(1.36299 -8.47975e-08 0)
(1.36299 8.44861e-08 0)
(1.36299 -8.41967e-08 0)
(1.36299 8.39303e-08 0)
(1.36299 -8.36879e-08 0)
(1.36299 7.31124e-08 0)
(1.36299 -7.12445e-08 0)
(1.36299 6.94058e-08 0)
(1.36299 -6.75968e-08 0)
(1.36299 6.58177e-08 0)
(1.36299 -6.40693e-08 0)
(1.36299 6.23517e-08 0)
(1.36299 -6.06659e-08 0)
(1.36299 5.90118e-08 0)
(1.36299 -5.73907e-08 0)
(1.36299 5.58023e-08 0)
(1.36299 -5.42479e-08 0)
(1.36299 5.27272e-08 0)
(1.36299 -5.12417e-08 0)
(1.36299 4.97908e-08 0)
(1.36299 -4.83763e-08 0)
(1.36299 4.69971e-08 0)
(1.36299 -4.56556e-08 0)
(1.36299 4.43499e-08 0)
(1.36299 -4.30834e-08 0)
(1.36299 4.18525e-08 0)
(1.36299 -4.0663e-08 0)
(1.36299 3.95084e-08 0)
(1.36299 -3.83974e-08 0)
(1.36299 3.73202e-08 0)
(1.36299 -3.62891e-08 0)
(1.36299 3.52905e-08 0)
(1.36299 -3.43406e-08 0)
(1.36299 3.34214e-08 0)
(1.36299 -3.25536e-08 0)
(1.36299 3.17148e-08 0)
(1.36299 -3.09299e-08 0)
(1.36299 3.01721e-08 0)
(1.36299 -2.9471e-08 0)
(1.36299 2.87945e-08 0)
(1.36299 -2.81781e-08 0)
(1.36299 2.7583e-08 0)
(1.36299 -2.7052e-08 0)
(1.36299 2.65341e-08 0)
(1.36299 -2.60627e-08 0)
(1.36299 2.55881e-08 0)
(1.36299 -2.51633e-08 0)
(1.36299 2.47367e-08 0)
(1.36299 -2.43639e-08 0)
(1.36299 2.39924e-08 0)
(1.36299 -2.36789e-08 0)
(1.36299 2.33749e-08 0)
(1.36299 -2.31327e-08 0)
(1.36299 2.29185e-08 0)
(1.36299 -2.27774e-08 0)
)
;

boundaryField
{
    inandouthalf11
    {
        type            cyclic;
    }
    inandouthalf12
    {
        type            cyclic;
    }
    inandouthalf21
    {
        type            cyclic;
    }
    inandouthalf22
    {
        type            cyclic;
    }
    inandouthalf31
    {
        type            cyclic;
    }
    inandouthalf32
    {
        type            cyclic;
    }
    inandouthalf41
    {
        type            cyclic;
    }
    inandouthalf42
    {
        type            cyclic;
    }
    top
    {
        type            symmetryPlane;
    }
    walls
    {
        type            calculated;
        value           uniform (0 0 0);
    }
    frontAndBackPlanes
    {
        type            empty;
    }
}


// ************************************************************************* //
