/*--------------------------------*- C++ -*----------------------------------*\
| =========                 |                                                 |
| \\      /  F ield         | OpenFOAM: The Open Source CFD Toolbox           |
|  \\    /   O peration     | Version:  2.4.x                                 |
|   \\  /    A nd           | Web:      www.OpenFOAM.org                      |
|    \\/     M anipulation  |                                                 |
\*---------------------------------------------------------------------------*/
FoamFile
{
    version     2.0;
    format      ascii;
    class       volVectorField;
    location    "2";
    object      Ua;
}
// * * * * * * * * * * * * * * * * * * * * * * * * * * * * * * * * * * * * * //

dimensions      [0 1 -1 0 0 0 0];

internalField   nonuniform List<vector> 
360
(
(1.24821e-36 -9.53595e-36 0)
(1.24822e-36 -9.53347e-36 0)
(1.24819e-36 -9.5344e-36 0)
(1.2481e-36 -9.53609e-36 0)
(1.24796e-36 -9.53885e-36 0)
(1.24775e-36 -9.54273e-36 0)
(1.24748e-36 -9.54779e-36 0)
(1.24713e-36 -9.55411e-36 0)
(1.24672e-36 -9.56172e-36 0)
(1.24623e-36 -9.57068e-36 0)
(1.24567e-36 -9.58103e-36 0)
(1.24503e-36 -9.5928e-36 0)
(1.24432e-36 -9.606e-36 0)
(1.24354e-36 -9.62067e-36 0)
(1.24268e-36 -9.63681e-36 0)
(1.24175e-36 -9.65441e-36 0)
(1.24074e-36 -9.67347e-36 0)
(1.23967e-36 -9.69397e-36 0)
(1.23852e-36 -9.7159e-36 0)
(1.23731e-36 -9.73924e-36 0)
(1.23603e-36 -9.76397e-36 0)
(1.23469e-36 -9.79007e-36 0)
(1.23328e-36 -9.81753e-36 0)
(1.23182e-36 -9.84632e-36 0)
(1.23029e-36 -9.87641e-36 0)
(1.2287e-36 -9.90776e-36 0)
(1.22706e-36 -9.94035e-36 0)
(1.22536e-36 -9.9742e-36 0)
(1.2236e-36 -1.00093e-35 0)
(1.22177e-36 -1.00457e-35 0)
(1.21989e-36 -1.00833e-35 0)
(1.21795e-36 -1.01222e-35 0)
(1.21595e-36 -1.01624e-35 0)
(1.21388e-36 -1.0204e-35 0)
(1.21175e-36 -1.02469e-35 0)
(1.20954e-36 -1.02912e-35 0)
(1.20726e-36 -1.0337e-35 0)
(1.20491e-36 -1.03844e-35 0)
(1.20246e-36 -1.04336e-35 0)
(1.19993e-36 -1.04845e-35 0)
(1.1973e-36 -1.05374e-35 0)
(1.19457e-36 -1.05923e-35 0)
(1.19172e-36 -1.06494e-35 0)
(1.18876e-36 -1.07089e-35 0)
(1.18567e-36 -1.07711e-35 0)
(1.18243e-36 -1.08361e-35 0)
(1.17904e-36 -1.09044e-35 0)
(1.17548e-36 -1.09762e-35 0)
(1.17173e-36 -1.1052e-35 0)
(1.16776e-36 -1.11325e-35 0)
(1.16354e-36 -1.12184e-35 0)
(1.15904e-36 -1.13107e-35 0)
(1.15418e-36 -1.14108e-35 0)
(1.1489e-36 -1.15208e-35 0)
(1.14304e-36 -1.16439e-35 0)
(1.13633e-36 -1.17871e-35 0)
(1.1283e-36 -1.19605e-35 0)
(1.11788e-36 -1.21923e-35 0)
(1.1029e-36 -1.25316e-35 0)
(1.07739e-36 -1.31367e-35 0)
(1.02399e-36 -1.444e-35 0)
(8.70366e-37 -1.84959e-35 0)
(2.88558e-37 -3.47021e-35 0)
(-3.01173e-36 -1.33873e-34 0)
(-3.62978e-35 -1.20501e-33 0)
(-3.57806e-33 -1.30412e-31 0)
(-1.46235e-29 -5.93556e-28 0)
(-1.69095e-24 -7.7581e-23 0)
(-5.92431e-17 -3.13062e-15 0)
(-7.74491e-10 -4.82087e-08 0)
(-5.52512e-09 -4.05229e-07 0)
(-1.6228e-08 -1.40332e-06 0)
(-2.81556e-08 -2.84819e-06 0)
(-3.58332e-08 -4.19315e-06 0)
(-3.88088e-08 -5.19334e-06 0)
(-3.89077e-08 -5.90681e-06 0)
(-3.74671e-08 -6.45156e-06 0)
(-3.50155e-08 -6.91543e-06 0)
(-3.15895e-08 -7.35492e-06 0)
(-2.69644e-08 -7.8061e-06 0)
(-2.0799e-08 -8.29024e-06 0)
(-1.27678e-08 -8.81497e-06 0)
(-2.688e-09 -9.37533e-06 0)
(9.41432e-09 -9.9577e-06 0)
(2.33453e-08 -1.05465e-05 0)
(3.88608e-08 -1.11299e-05 0)
(5.5778e-08 -1.17024e-05 0)
(7.40258e-08 -1.2264e-05 0)
(9.36345e-08 -1.28174e-05 0)
(1.14695e-07 -1.33662e-05 0)
(1.37312e-07 -1.39133e-05 0)
(1.61564e-07 -1.44602e-05 0)
(1.87494e-07 -1.50074e-05 0)
(2.15114e-07 -1.55543e-05 0)
(2.44422e-07 -1.61003e-05 0)
(2.75425e-07 -1.66451e-05 0)
(3.0815e-07 -1.71888e-05 0)
(3.42657e-07 -1.77317e-05 0)
(3.79032e-07 -1.82746e-05 0)
(4.17387e-07 -1.88185e-05 0)
(4.57861e-07 -1.93643e-05 0)
(5.00615e-07 -1.99132e-05 0)
(5.4584e-07 -2.04663e-05 0)
(5.9376e-07 -2.10248e-05 0)
(6.44634e-07 -2.15902e-05 0)
(6.98758e-07 -2.21638e-05 0)
(7.56471e-07 -2.2747e-05 0)
(8.18144e-07 -2.33414e-05 0)
(8.84189e-07 -2.39482e-05 0)
(9.55043e-07 -2.45686e-05 0)
(1.03118e-06 -2.52038e-05 0)
(1.11307e-06 -2.58545e-05 0)
(1.20122e-06 -2.65212e-05 0)
(1.29611e-06 -2.72042e-05 0)
(1.39823e-06 -2.79031e-05 0)
(1.50804e-06 -2.86173e-05 0)
(1.62596e-06 -2.9346e-05 0)
(1.75237e-06 -3.00877e-05 0)
(1.88761e-06 -3.08406e-05 0)
(2.03197e-06 -3.16029e-05 0)
(2.18569e-06 -3.23723e-05 0)
(2.34901e-06 -3.31466e-05 0)
(2.52217e-06 -3.39238e-05 0)
(2.70549e-06 -3.4702e-05 0)
(2.89941e-06 -3.54801e-05 0)
(3.10451e-06 -3.62572e-05 0)
(3.32144e-06 -3.70328e-05 0)
(3.55075e-06 -3.78055e-05 0)
(3.79251e-06 -3.85725e-05 0)
(4.04605e-06 -3.93287e-05 0)
(4.30992e-06 -4.00667e-05 0)
(4.58253e-06 -4.07798e-05 0)
(4.86344e-06 -4.1465e-05 0)
(5.1545e-06 -4.21255e-05 0)
(5.45946e-06 -4.27688e-05 0)
(5.78167e-06 -4.33992e-05 0)
(6.12134e-06 -4.40123e-05 0)
(6.47521e-06 -4.45975e-05 0)
(6.83678e-06 -4.51436e-05 0)
(7.19062e-06 -4.56326e-05 0)
(7.50308e-06 -4.60257e-05 0)
(7.7376e-06 -4.62837e-05 0)
(7.89348e-06 -4.6429e-05 0)
(7.99458e-06 -4.65106e-05 0)
(8.05937e-06 -4.6557e-05 0)
(8.09795e-06 -4.65811e-05 0)
(8.11911e-06 -4.65915e-05 0)
(8.13423e-06 -4.65953e-05 0)
(8.16123e-06 -4.65958e-05 0)
(0.00399808 -9.02439e-05 0)
(0.101267 -0.00214842 0)
(0.28206 -0.00382798 0)
(0.435294 -0.00378884 0)
(0.569071 -0.00293267 0)
(0.687347 -0.00156285 0)
(0.790481 4.15552e-05 0)
(0.877629 0.00164372 0)
(0.947486 0.00305824 0)
(0.999152 0.00411214 0)
(1.03377 0.00464426 0)
(1.05563 0.00459758 0)
(1.07029 0.0041736 0)
(1.08155 0.00362719 0)
(1.09098 0.003088 0)
(1.09921 0.00259928 0)
(1.10651 0.00216714 0)
(1.11306 0.00178057 0)
(1.119 0.00143388 0)
(1.12441 0.00112141 0)
(1.12938 0.000836741 0)
(1.13398 0.000577387 0)
(1.13824 0.000338834 0)
(1.14221 0.000119086 0)
(1.14592 -8.52046e-05 0)
(1.1494 -0.00027461 0)
(1.15268 -0.000451812 0)
(1.15579 -0.000618029 0)
(1.15872 -0.00077468 0)
(1.16151 -0.000921754 0)
(1.16417 -0.00106214 0)
(1.1667 -0.00119481 0)
(1.16913 -0.00132168 0)
(1.17145 -0.00144286 0)
(1.17368 -0.00155898 0)
(1.17583 -0.0016706 0)
(1.17791 -0.001778 0)
(1.17991 -0.00188208 0)
(1.18185 -0.00198282 0)
(1.18372 -0.00208028 0)
(1.18553 -0.00217453 0)
(1.18731 -0.00226772 0)
(1.18902 -0.00235794 0)
(1.19069 -0.00244619 0)
(1.19231 -0.00253212 0)
(1.19389 -0.00261644 0)
(1.19544 -0.00270006 0)
(1.19696 -0.00278264 0)
(1.19843 -0.00286358 0)
(1.19985 -0.00294221 0)
(1.20123 -0.00301925 0)
(1.20259 -0.00309634 0)
(1.20395 -0.00317509 0)
(1.20531 -0.00325483 0)
(1.20664 -0.00333415 0)
(1.20793 -0.00341172 0)
(1.20923 -0.00349128 0)
(1.21057 -0.00357488 0)
(1.21192 -0.00366079 0)
(1.21323 -0.00374549 0)
(1.21452 -0.00382916 0)
(1.21583 -0.00391681 0)
(1.21718 -0.00400862 0)
(1.21849 -0.00409948 0)
(1.21978 -0.00418967 0)
(1.22112 -0.0042858 0)
(1.2225 -0.0043872 0)
(1.22384 -0.00448665 0)
(1.22515 -0.00458506 0)
(1.22651 -0.00468996 0)
(1.22792 -0.0048025 0)
(1.22932 -0.00491513 0)
(1.2307 -0.00502805 0)
(1.23213 -0.00514847 0)
(1.23358 -0.00527363 0)
(1.23502 -0.00539885 0)
(1.23651 -0.0055329 0)
(1.23805 -0.0056753 0)
(1.23956 -0.00581659 0)
(1.24111 -0.0059646 0)
(1.24272 -0.00612471 0)
(1.24433 -0.00628683 0)
(1.24594 -0.00645282 0)
(1.24762 -0.00663114 0)
(1.24932 -0.00681492 0)
(1.25102 -0.00700462 0)
(1.25274 -0.00719998 0)
(1.25445 -0.00739997 0)
(1.25615 -0.0076053 0)
(1.25777 -0.00780419 0)
(1.25923 -0.00798901 0)
(1.26046 -0.00815011 0)
(1.26143 -0.00827711 0)
(1.26251 -0.00843864 0)
(1.36555 -0.0395305 0)
(1.36558 -0.0395306 0)
(1.36559 -0.0395306 0)
(1.36559 -0.0395306 0)
(1.36559 -0.0395306 0)
(1.36559 -0.0395306 0)
(1.36559 -0.0395306 0)
(1.36559 -0.0395306 0)
(1.36559 -0.0395306 0)
(1.36559 -0.0395306 0)
(1.36559 -0.0395306 0)
(1.36559 -0.0395306 0)
(1.3656 -0.0395306 0)
(1.3656 -0.0395306 0)
(1.3656 -0.0395306 0)
(1.3656 -0.0395306 0)
(1.3656 -0.0395306 0)
(1.3656 -0.0395306 0)
(1.3656 -0.0395306 0)
(1.3656 -0.0395306 0)
(1.3656 -0.0395306 0)
(1.3656 -0.0395306 0)
(1.3656 -0.0395306 0)
(1.3656 -0.0395306 0)
(1.3656 -0.0395306 0)
(1.3656 -0.0395306 0)
(1.3656 -0.0395306 0)
(1.3656 -0.0395306 0)
(1.3656 -0.0395306 0)
(1.3656 -0.0395306 0)
(1.3656 -0.0395306 0)
(1.3656 -0.0395306 0)
(1.3656 -0.0395306 0)
(1.3656 -0.0395306 0)
(1.3656 -0.0395306 0)
(1.3656 -0.0395306 0)
(1.3656 -0.0395306 0)
(1.3656 -0.0395306 0)
(1.3656 -0.0395306 0)
(1.3656 -0.0395306 0)
(1.3656 -0.0395306 0)
(1.3656 -0.0395306 0)
(1.3656 -0.0395306 0)
(1.3656 -0.0395306 0)
(1.3656 -0.0395306 0)
(1.3656 -0.0395306 0)
(1.3656 -0.0395306 0)
(1.3656 -0.0395306 0)
(1.3656 -0.0395306 0)
(1.3656 -0.0395306 0)
(1.3656 -0.0395306 0)
(1.3656 -0.0395306 0)
(1.3656 -0.0395306 0)
(1.3656 -0.0395306 0)
(1.3656 -0.0395306 0)
(1.3656 -0.0395306 0)
(1.3656 -0.0395306 0)
(1.3656 -0.0395306 0)
(1.3656 -0.0395306 0)
(1.3656 -0.0395306 0)
(1.3656 -0.0395306 0)
(1.3656 -0.0395306 0)
(1.3656 -0.0395306 0)
(1.3656 -0.0395306 0)
(1.3656 -0.0395306 0)
(1.3656 -0.0395306 0)
(1.3656 -0.0395306 0)
(1.3656 -0.0395306 0)
(1.3656 -0.0395306 0)
(1.3656 -0.0395306 0)
(1.3656 -0.0395306 0)
(1.3656 -0.0395306 0)
(1.3656 -0.0395306 0)
(1.3656 -0.0395306 0)
(1.3656 -0.0395306 0)
(1.3656 -0.0395306 0)
(1.3656 -0.0395306 0)
(1.3656 -0.0395306 0)
(1.3656 -0.0395306 0)
(1.3656 -0.0395306 0)
(1.3656 -0.0395306 0)
(1.3656 -0.0395306 0)
(1.3656 -0.0395306 0)
(1.3656 -0.0395306 0)
(1.3656 -0.0395306 0)
(1.3656 -0.0395306 0)
(1.3656 -0.0395306 0)
(1.3656 -0.0395306 0)
(1.3656 -0.0395306 0)
(1.3656 -0.0395306 0)
(1.3656 -0.0395306 0)
(1.3656 -0.0395306 0)
(1.3656 -0.0395306 0)
(1.3656 -0.0395306 0)
(1.3656 -0.0395306 0)
(1.3656 -0.0395306 0)
(1.3656 -0.0395306 0)
(1.3656 -0.0395306 0)
(1.3656 -0.0395306 0)
(1.3656 -0.0395306 0)
(1.3656 -0.0395306 0)
(1.3656 -0.0395306 0)
(1.3656 -0.0395306 0)
(1.3656 -0.0395306 0)
(1.3656 -0.0395306 0)
(1.3656 -0.0395306 0)
(1.3656 -0.0395306 0)
(1.3656 -0.0395306 0)
(1.3656 -0.0395306 0)
(1.3656 -0.0395306 0)
(1.3656 -0.0395306 0)
(1.3656 -0.0395306 0)
(1.3656 -0.0395306 0)
(1.3656 -0.0395304 0)
(1.3656 -0.0395219 0)
(1.36561 -0.0391769 0)
(1.36603 -0.022462 0)
)
;

boundaryField
{
    inandouthalf11
    {
        type            cyclic;
    }
    inandouthalf12
    {
        type            cyclic;
    }
    inandouthalf21
    {
        type            cyclic;
    }
    inandouthalf22
    {
        type            cyclic;
    }
    inandouthalf31
    {
        type            cyclic;
    }
    inandouthalf32
    {
        type            cyclic;
    }
    inandouthalf41
    {
        type            cyclic;
    }
    inandouthalf42
    {
        type            cyclic;
    }
    top
    {
        type            symmetryPlane;
    }
    walls
    {
        type            fixedValue;
        value           uniform (0 0 0);
    }
    frontAndBackPlanes
    {
        type            empty;
    }
}


// ************************************************************************* //
