/*--------------------------------*- C++ -*----------------------------------*\
| =========                 |                                                 |
| \\      /  F ield         | OpenFOAM: The Open Source CFD Toolbox           |
|  \\    /   O peration     | Version:  2.4.x                                 |
|   \\  /    A nd           | Web:      www.OpenFOAM.org                      |
|    \\/     M anipulation  |                                                 |
\*---------------------------------------------------------------------------*/
FoamFile
{
    version     2.0;
    format      ascii;
    class       volVectorField;
    location    "2";
    object      Ua_0;
}
// * * * * * * * * * * * * * * * * * * * * * * * * * * * * * * * * * * * * * //

dimensions      [0 1 -1 0 0 0 0];

internalField   nonuniform List<vector> 
360
(
(1.24835e-36 -9.53309e-36 0)
(1.24836e-36 -9.53061e-36 0)
(1.24833e-36 -9.53154e-36 0)
(1.24825e-36 -9.53323e-36 0)
(1.2481e-36 -9.53598e-36 0)
(1.2479e-36 -9.53985e-36 0)
(1.24762e-36 -9.54492e-36 0)
(1.24728e-36 -9.55122e-36 0)
(1.24686e-36 -9.55883e-36 0)
(1.24638e-36 -9.56777e-36 0)
(1.24582e-36 -9.57811e-36 0)
(1.24519e-36 -9.58987e-36 0)
(1.24448e-36 -9.60305e-36 0)
(1.2437e-36 -9.6177e-36 0)
(1.24284e-36 -9.63382e-36 0)
(1.24191e-36 -9.6514e-36 0)
(1.24091e-36 -9.67044e-36 0)
(1.23984e-36 -9.69091e-36 0)
(1.23869e-36 -9.7128e-36 0)
(1.23749e-36 -9.73611e-36 0)
(1.23621e-36 -9.76081e-36 0)
(1.23487e-36 -9.78688e-36 0)
(1.23347e-36 -9.8143e-36 0)
(1.23201e-36 -9.84305e-36 0)
(1.23049e-36 -9.87309e-36 0)
(1.22891e-36 -9.9044e-36 0)
(1.22727e-36 -9.93695e-36 0)
(1.22557e-36 -9.97075e-36 0)
(1.22382e-36 -1.00058e-35 0)
(1.222e-36 -1.00421e-35 0)
(1.22013e-36 -1.00797e-35 0)
(1.21819e-36 -1.01186e-35 0)
(1.2162e-36 -1.01587e-35 0)
(1.21414e-36 -1.02002e-35 0)
(1.21201e-36 -1.0243e-35 0)
(1.20981e-36 -1.02873e-35 0)
(1.20754e-36 -1.03331e-35 0)
(1.20519e-36 -1.03804e-35 0)
(1.20276e-36 -1.04295e-35 0)
(1.20023e-36 -1.04803e-35 0)
(1.19761e-36 -1.05331e-35 0)
(1.19489e-36 -1.05879e-35 0)
(1.19206e-36 -1.06449e-35 0)
(1.18911e-36 -1.07043e-35 0)
(1.18603e-36 -1.07664e-35 0)
(1.1828e-36 -1.08314e-35 0)
(1.17942e-36 -1.08995e-35 0)
(1.17588e-36 -1.09712e-35 0)
(1.17214e-36 -1.10469e-35 0)
(1.16819e-36 -1.11272e-35 0)
(1.16399e-36 -1.1213e-35 0)
(1.1595e-36 -1.13052e-35 0)
(1.15467e-36 -1.1405e-35 0)
(1.14941e-36 -1.15148e-35 0)
(1.14358e-36 -1.16376e-35 0)
(1.13691e-36 -1.17803e-35 0)
(1.12893e-36 -1.1953e-35 0)
(1.11859e-36 -1.21836e-35 0)
(1.10375e-36 -1.25207e-35 0)
(1.07853e-36 -1.31204e-35 0)
(1.02586e-36 -1.44095e-35 0)
(8.74773e-37 -1.84096e-35 0)
(3.04e-37 -3.43568e-35 0)
(-2.92424e-36 -1.31681e-34 0)
(-3.53669e-35 -1.17938e-33 0)
(-3.40419e-33 -1.24554e-31 0)
(-1.3802e-29 -5.62626e-28 0)
(-1.56572e-24 -7.21837e-23 0)
(-5.36264e-17 -2.84952e-15 0)
(-7.63743e-10 -4.7848e-08 0)
(-5.45419e-09 -4.03109e-07 0)
(-1.60235e-08 -1.39851e-06 0)
(-2.77836e-08 -2.84207e-06 0)
(-3.53117e-08 -4.18746e-06 0)
(-3.81732e-08 -5.18861e-06 0)
(-3.81863e-08 -5.90294e-06 0)
(-3.66772e-08 -6.44834e-06 0)
(-3.41653e-08 -6.91272e-06 0)
(-3.06811e-08 -7.35261e-06 0)
(-2.5996e-08 -7.80413e-06 0)
(-1.97661e-08 -8.28854e-06 0)
(-1.16652e-08 -8.81349e-06 0)
(-1.51104e-09 -9.37405e-06 0)
(1.06688e-08 -9.95658e-06 0)
(2.46789e-08 -1.05455e-05 0)
(4.0274e-08 -1.11291e-05 0)
(5.72709e-08 -1.17018e-05 0)
(7.55986e-08 -1.22636e-05 0)
(9.52882e-08 -1.28171e-05 0)
(1.16432e-07 -1.33662e-05 0)
(1.39133e-07 -1.39135e-05 0)
(1.63471e-07 -1.44608e-05 0)
(1.89489e-07 -1.50082e-05 0)
(2.17198e-07 -1.55554e-05 0)
(2.46597e-07 -1.61017e-05 0)
(2.7769e-07 -1.66468e-05 0)
(3.10508e-07 -1.71906e-05 0)
(3.45106e-07 -1.77338e-05 0)
(3.81574e-07 -1.82769e-05 0)
(4.20022e-07 -1.8821e-05 0)
(4.6059e-07 -1.9367e-05 0)
(5.0344e-07 -1.99161e-05 0)
(5.48762e-07 -2.04694e-05 0)
(5.96779e-07 -2.10281e-05 0)
(6.47751e-07 -2.15936e-05 0)
(7.01975e-07 -2.21673e-05 0)
(7.59789e-07 -2.27507e-05 0)
(8.21565e-07 -2.33452e-05 0)
(8.87715e-07 -2.39521e-05 0)
(9.58677e-07 -2.45727e-05 0)
(1.03492e-06 -2.5208e-05 0)
(1.11693e-06 -2.58588e-05 0)
(1.20519e-06 -2.65257e-05 0)
(1.30022e-06 -2.72087e-05 0)
(1.40247e-06 -2.79078e-05 0)
(1.51242e-06 -2.86223e-05 0)
(1.63049e-06 -2.93511e-05 0)
(1.75706e-06 -3.00931e-05 0)
(1.89248e-06 -3.08463e-05 0)
(2.03702e-06 -3.16089e-05 0)
(2.19095e-06 -3.23787e-05 0)
(2.35448e-06 -3.31534e-05 0)
(2.52787e-06 -3.3931e-05 0)
(2.71144e-06 -3.47097e-05 0)
(2.90563e-06 -3.54883e-05 0)
(3.11101e-06 -3.62659e-05 0)
(3.32825e-06 -3.70421e-05 0)
(3.55787e-06 -3.78153e-05 0)
(3.79998e-06 -3.85829e-05 0)
(4.05388e-06 -3.93397e-05 0)
(4.31811e-06 -4.00783e-05 0)
(4.59109e-06 -4.07919e-05 0)
(4.87237e-06 -4.14776e-05 0)
(5.16381e-06 -4.21386e-05 0)
(5.46918e-06 -4.27823e-05 0)
(5.7918e-06 -4.34132e-05 0)
(6.13193e-06 -4.40268e-05 0)
(6.48627e-06 -4.46125e-05 0)
(6.8483e-06 -4.51589e-05 0)
(7.20257e-06 -4.56483e-05 0)
(7.51538e-06 -4.60416e-05 0)
(7.75015e-06 -4.62998e-05 0)
(7.90617e-06 -4.64451e-05 0)
(8.00735e-06 -4.65267e-05 0)
(8.07218e-06 -4.65731e-05 0)
(8.11078e-06 -4.65972e-05 0)
(8.13196e-06 -4.66076e-05 0)
(8.1471e-06 -4.66114e-05 0)
(8.17415e-06 -4.66119e-05 0)
(0.00402346 -9.0341e-05 0)
(0.10135 -0.00214872 0)
(0.2822 -0.00382744 0)
(0.435482 -0.00378647 0)
(0.569295 -0.00292883 0)
(0.687595 -0.00155787 0)
(0.79074 4.72677e-05 0)
(0.877885 0.00164965 0)
(0.947727 0.00306373 0)
(0.999366 0.00411641 0)
(1.03395 0.00464669 0)
(1.05579 0.00459821 0)
(1.07045 0.0041732 0)
(1.0817 0.00362628 0)
(1.09113 0.00308686 0)
(1.09936 0.002598 0)
(1.10666 0.00216576 0)
(1.11321 0.0017791 0)
(1.11914 0.00143233 0)
(1.12456 0.00111979 0)
(1.12953 0.000835051 0)
(1.13412 0.000575633 0)
(1.13838 0.000337021 0)
(1.14235 0.000117219 0)
(1.14606 -8.71234e-05 0)
(1.14955 -0.000276577 0)
(1.15283 -0.000453824 0)
(1.15593 -0.000620084 0)
(1.15887 -0.000776775 0)
(1.16165 -0.000923887 0)
(1.16431 -0.00106431 0)
(1.16684 -0.00119702 0)
(1.16927 -0.00132391 0)
(1.17159 -0.00144513 0)
(1.17383 -0.00156128 0)
(1.17597 -0.00167292 0)
(1.17805 -0.00178035 0)
(1.18005 -0.00188446 0)
(1.18199 -0.00198523 0)
(1.18386 -0.0020827 0)
(1.18567 -0.00217698 0)
(1.18745 -0.00227019 0)
(1.18916 -0.00236043 0)
(1.19083 -0.0024487 0)
(1.19245 -0.00253465 0)
(1.19403 -0.00261899 0)
(1.19558 -0.00270263 0)
(1.1971 -0.00278522 0)
(1.19857 -0.00286618 0)
(1.19999 -0.00294483 0)
(1.20137 -0.00302189 0)
(1.20273 -0.00309898 0)
(1.20409 -0.00317775 0)
(1.20544 -0.0032575 0)
(1.20677 -0.00333684 0)
(1.20807 -0.00341443 0)
(1.20937 -0.00349399 0)
(1.2107 -0.0035776 0)
(1.21205 -0.00366353 0)
(1.21337 -0.00374823 0)
(1.21465 -0.00383192 0)
(1.21597 -0.00391957 0)
(1.21731 -0.00401139 0)
(1.21863 -0.00410226 0)
(1.21992 -0.00419247 0)
(1.22126 -0.0042886 0)
(1.22264 -0.00439 0)
(1.22397 -0.00448947 0)
(1.22528 -0.00458789 0)
(1.22664 -0.00469279 0)
(1.22806 -0.00480533 0)
(1.22945 -0.00491797 0)
(1.23083 -0.00503089 0)
(1.23226 -0.00515131 0)
(1.23371 -0.00527647 0)
(1.23515 -0.00540169 0)
(1.23664 -0.00553574 0)
(1.23818 -0.00567814 0)
(1.23969 -0.00581944 0)
(1.24124 -0.00596743 0)
(1.24285 -0.00612753 0)
(1.24446 -0.00628964 0)
(1.24608 -0.00645563 0)
(1.24776 -0.00663392 0)
(1.24945 -0.0068177 0)
(1.25115 -0.00700737 0)
(1.25287 -0.00720271 0)
(1.25458 -0.00740267 0)
(1.25628 -0.00760798 0)
(1.2579 -0.00780685 0)
(1.25936 -0.00799167 0)
(1.26059 -0.00815276 0)
(1.26156 -0.00827977 0)
(1.26264 -0.00844131 0)
(1.36567 -0.0395304 0)
(1.36571 -0.0395306 0)
(1.36572 -0.0395306 0)
(1.36572 -0.0395306 0)
(1.36572 -0.0395306 0)
(1.36572 -0.0395306 0)
(1.36572 -0.0395306 0)
(1.36572 -0.0395306 0)
(1.36572 -0.0395306 0)
(1.36572 -0.0395306 0)
(1.36572 -0.0395306 0)
(1.36572 -0.0395306 0)
(1.36572 -0.0395306 0)
(1.36573 -0.0395306 0)
(1.36573 -0.0395306 0)
(1.36573 -0.0395306 0)
(1.36573 -0.0395306 0)
(1.36573 -0.0395306 0)
(1.36573 -0.0395306 0)
(1.36573 -0.0395306 0)
(1.36573 -0.0395306 0)
(1.36573 -0.0395306 0)
(1.36573 -0.0395306 0)
(1.36573 -0.0395306 0)
(1.36573 -0.0395306 0)
(1.36573 -0.0395306 0)
(1.36573 -0.0395306 0)
(1.36573 -0.0395306 0)
(1.36573 -0.0395306 0)
(1.36573 -0.0395306 0)
(1.36573 -0.0395306 0)
(1.36573 -0.0395306 0)
(1.36573 -0.0395306 0)
(1.36573 -0.0395306 0)
(1.36573 -0.0395306 0)
(1.36573 -0.0395306 0)
(1.36573 -0.0395306 0)
(1.36573 -0.0395306 0)
(1.36573 -0.0395306 0)
(1.36573 -0.0395306 0)
(1.36573 -0.0395306 0)
(1.36573 -0.0395306 0)
(1.36573 -0.0395306 0)
(1.36573 -0.0395306 0)
(1.36573 -0.0395306 0)
(1.36573 -0.0395306 0)
(1.36573 -0.0395306 0)
(1.36573 -0.0395306 0)
(1.36573 -0.0395306 0)
(1.36573 -0.0395306 0)
(1.36573 -0.0395306 0)
(1.36573 -0.0395306 0)
(1.36573 -0.0395306 0)
(1.36573 -0.0395306 0)
(1.36573 -0.0395306 0)
(1.36573 -0.0395306 0)
(1.36573 -0.0395306 0)
(1.36573 -0.0395306 0)
(1.36573 -0.0395306 0)
(1.36573 -0.0395306 0)
(1.36573 -0.0395306 0)
(1.36573 -0.0395306 0)
(1.36573 -0.0395306 0)
(1.36573 -0.0395306 0)
(1.36573 -0.0395306 0)
(1.36573 -0.0395306 0)
(1.36573 -0.0395306 0)
(1.36573 -0.0395306 0)
(1.36573 -0.0395306 0)
(1.36573 -0.0395306 0)
(1.36573 -0.0395306 0)
(1.36573 -0.0395306 0)
(1.36573 -0.0395306 0)
(1.36573 -0.0395306 0)
(1.36573 -0.0395306 0)
(1.36573 -0.0395306 0)
(1.36573 -0.0395306 0)
(1.36573 -0.0395306 0)
(1.36573 -0.0395306 0)
(1.36573 -0.0395306 0)
(1.36573 -0.0395306 0)
(1.36573 -0.0395306 0)
(1.36573 -0.0395306 0)
(1.36573 -0.0395306 0)
(1.36573 -0.0395306 0)
(1.36573 -0.0395306 0)
(1.36573 -0.0395306 0)
(1.36573 -0.0395306 0)
(1.36573 -0.0395306 0)
(1.36573 -0.0395306 0)
(1.36573 -0.0395306 0)
(1.36573 -0.0395306 0)
(1.36573 -0.0395306 0)
(1.36573 -0.0395306 0)
(1.36573 -0.0395306 0)
(1.36573 -0.0395306 0)
(1.36573 -0.0395306 0)
(1.36573 -0.0395306 0)
(1.36573 -0.0395306 0)
(1.36573 -0.0395306 0)
(1.36573 -0.0395306 0)
(1.36573 -0.0395306 0)
(1.36573 -0.0395306 0)
(1.36573 -0.0395306 0)
(1.36573 -0.0395306 0)
(1.36573 -0.0395306 0)
(1.36573 -0.0395306 0)
(1.36573 -0.0395306 0)
(1.36573 -0.0395306 0)
(1.36573 -0.0395306 0)
(1.36573 -0.0395306 0)
(1.36573 -0.0395306 0)
(1.36573 -0.0395306 0)
(1.36573 -0.0395304 0)
(1.36573 -0.039522 0)
(1.36574 -0.0391769 0)
(1.36616 -0.022462 0)
)
;

boundaryField
{
    inandouthalf11
    {
        type            cyclic;
    }
    inandouthalf12
    {
        type            cyclic;
    }
    inandouthalf21
    {
        type            cyclic;
    }
    inandouthalf22
    {
        type            cyclic;
    }
    inandouthalf31
    {
        type            cyclic;
    }
    inandouthalf32
    {
        type            cyclic;
    }
    inandouthalf41
    {
        type            cyclic;
    }
    inandouthalf42
    {
        type            cyclic;
    }
    top
    {
        type            symmetryPlane;
    }
    walls
    {
        type            fixedValue;
        value           uniform (0 0 0);
    }
    frontAndBackPlanes
    {
        type            empty;
    }
}


// ************************************************************************* //
