/*--------------------------------*- C++ -*----------------------------------*\
| =========                 |                                                 |
| \\      /  F ield         | OpenFOAM: The Open Source CFD Toolbox           |
|  \\    /   O peration     | Version:  2.4.x                                 |
|   \\  /    A nd           | Web:      www.OpenFOAM.org                      |
|    \\/     M anipulation  |                                                 |
\*---------------------------------------------------------------------------*/
FoamFile
{
    version     2.0;
    format      ascii;
    class       volVectorField;
    location    "2";
    object      Ub;
}
// * * * * * * * * * * * * * * * * * * * * * * * * * * * * * * * * * * * * * //

dimensions      [0 1 -1 0 0 0 0];

internalField   nonuniform List<vector> 
360
(
(-0.000140096 5.72267e-14 0)
(-0.000140335 1.71875e-13 0)
(-0.000140336 2.86911e-13 0)
(-0.000140336 4.02223e-13 0)
(-0.000140336 5.1772e-13 0)
(-0.000140337 6.3319e-13 0)
(-0.000140337 7.48656e-13 0)
(-0.000140338 8.64181e-13 0)
(-0.000140338 9.79331e-13 0)
(-0.00014034 1.09459e-12 0)
(-0.000140341 1.20994e-12 0)
(-0.000140341 1.32477e-12 0)
(-0.000140342 1.43925e-12 0)
(-0.000140343 1.55384e-12 0)
(-0.000140344 1.66846e-12 0)
(-0.000140345 1.78264e-12 0)
(-0.000140347 1.89653e-12 0)
(-0.000140348 2.01027e-12 0)
(-0.000140349 2.12369e-12 0)
(-0.000140351 2.2371e-12 0)
(-0.000140353 2.34998e-12 0)
(-0.000140355 2.46238e-12 0)
(-0.000140357 2.57441e-12 0)
(-0.00014036 2.68605e-12 0)
(-0.000140362 2.79739e-12 0)
(-0.000140364 2.90808e-12 0)
(-0.000140367 3.0181e-12 0)
(-0.00014037 3.12779e-12 0)
(-0.000140374 3.23711e-12 0)
(-0.000140377 3.34615e-12 0)
(-0.000140381 3.45485e-12 0)
(-0.000140386 3.56316e-12 0)
(-0.000140389 3.6706e-12 0)
(-0.000140395 3.77759e-12 0)
(-0.0001404 3.88448e-12 0)
(-0.000140406 3.99058e-12 0)
(-0.000140411 4.09605e-12 0)
(-0.000140419 4.20107e-12 0)
(-0.000140427 4.30564e-12 0)
(-0.000140434 4.4096e-12 0)
(-0.000140443 4.51284e-12 0)
(-0.000140453 4.61577e-12 0)
(-0.000140462 4.718e-12 0)
(-0.000140474 4.81962e-12 0)
(-0.000140486 4.9206e-12 0)
(-0.000140499 5.02074e-12 0)
(-0.000140513 5.12045e-12 0)
(-0.000140527 5.21951e-12 0)
(-0.000140544 5.31794e-12 0)
(-0.000140562 5.41572e-12 0)
(-0.000140581 5.51271e-12 0)
(-0.000140603 5.6092e-12 0)
(-0.000140625 5.70507e-12 0)
(-0.00014065 5.80038e-12 0)
(-0.000140676 5.89454e-12 0)
(-0.000140705 5.98811e-12 0)
(-0.000140736 6.08081e-12 0)
(-0.00014077 6.17292e-12 0)
(-0.000140807 6.26439e-12 0)
(-0.000140846 6.35485e-12 0)
(-0.00014089 6.44481e-12 0)
(-0.000140936 6.53381e-12 0)
(-0.000140987 6.62193e-12 0)
(-0.000141041 6.70974e-12 0)
(-0.0001411 6.797e-12 0)
(-0.000141164 7.49746e-12 0)
(-0.000141234 -2.09762e-11 0)
(-0.00014131 2.12996e-10 0)
(-0.000141392 -8.51002e-10 0)
(-0.000141474 1.36599e-07 0)
(-0.000141546 8.22767e-07 0)
(-0.000141584 2.34131e-06 0)
(-0.000141588 4.3999e-06 0)
(-0.000141586 6.39949e-06 0)
(-0.000141598 7.97715e-06 0)
(-0.000141632 9.13158e-06 0)
(-0.00014168 1.0012e-05 0)
(-0.000141738 1.07538e-05 0)
(-0.000141801 1.14493e-05 0)
(-0.000141865 1.21569e-05 0)
(-0.000141926 1.291e-05 0)
(-0.000141984 1.37212e-05 0)
(-0.000142037 1.45841e-05 0)
(-0.000142085 1.548e-05 0)
(-0.000142132 1.6387e-05 0)
(-0.000142177 1.72877e-05 0)
(-0.000142224 1.81731e-05 0)
(-0.000142272 1.9042e-05 0)
(-0.00014232 1.9898e-05 0)
(-0.000142369 2.07461e-05 0)
(-0.000142419 2.15904e-05 0)
(-0.000142467 2.24336e-05 0)
(-0.000142516 2.32761e-05 0)
(-0.000142564 2.41177e-05 0)
(-0.000142612 2.49575e-05 0)
(-0.000142659 2.57949e-05 0)
(-0.000142707 2.663e-05 0)
(-0.000142755 2.74635e-05 0)
(-0.000142803 2.82964e-05 0)
(-0.000142851 2.91301e-05 0)
(-0.000142898 2.99662e-05 0)
(-0.000142946 3.08063e-05 0)
(-0.000142992 3.16522e-05 0)
(-0.000143039 3.25058e-05 0)
(-0.000143084 3.33691e-05 0)
(-0.000143128 3.42443e-05 0)
(-0.000143172 3.51335e-05 0)
(-0.000143213 3.6039e-05 0)
(-0.000143252 3.69626e-05 0)
(-0.00014329 3.79063e-05 0)
(-0.000143324 3.88715e-05 0)
(-0.000143355 3.98594e-05 0)
(-0.000143383 4.08706e-05 0)
(-0.000143407 4.19055e-05 0)
(-0.000143427 4.29635e-05 0)
(-0.000143442 4.40436e-05 0)
(-0.000143453 4.51443e-05 0)
(-0.000143459 4.62632e-05 0)
(-0.00014346 4.73977e-05 0)
(-0.000143455 4.85448e-05 0)
(-0.000143446 4.97009e-05 0)
(-0.000143432 5.08626e-05 0)
(-0.000143413 5.20268e-05 0)
(-0.000143389 5.31906e-05 0)
(-0.00014336 5.4352e-05 0)
(-0.000143326 5.55095e-05 0)
(-0.000143288 5.66617e-05 0)
(-0.000143244 5.7806e-05 0)
(-0.000143196 5.89378e-05 0)
(-0.000143144 6.00493e-05 0)
(-0.000143088 6.11303e-05 0)
(-0.000143032 6.21713e-05 0)
(-0.000142977 6.31682e-05 0)
(-0.000142925 6.41247e-05 0)
(-0.000142876 6.50494e-05 0)
(-0.000142823 6.59473e-05 0)
(-0.000142764 6.68118e-05 0)
(-0.000142704 6.76265e-05 0)
(-0.000142665 6.83706e-05 0)
(-0.000142675 6.9017e-05 0)
(-0.000142736 6.95245e-05 0)
(-0.00014282 6.9827e-05 0)
(-0.00014306 6.99564e-05 0)
(-0.000143516 6.9962e-05 0)
(-0.000144164 6.98658e-05 0)
(-0.000145039 6.96899e-05 0)
(-0.000146177 6.94225e-05 0)
(-0.000147721 6.90931e-05 0)
(-0.000146306 6.14455e-05 0)
(0.00398548 8.90368e-05 0)
(0.102447 0.00108003 0)
(0.284784 -5.53971e-05 0)
(0.453126 0.000356365 0)
(0.602289 -6.44436e-05 0)
(0.733449 0.000155726 0)
(0.847681 -0.000103829 0)
(0.946203 5.85224e-05 0)
(1.03025 -0.000105249 0)
(1.10042 2.1269e-05 0)
(1.15613 -5.61659e-05 0)
(1.19694 2.20454e-05 0)
(1.22522 -2.71707e-05 0)
(1.24534 2.01315e-05 0)
(1.2608 -1.98478e-05 0)
(1.27318 1.69108e-05 0)
(1.28338 -1.58572e-05 0)
(1.29186 1.39035e-05 0)
(1.299 -1.28065e-05 0)
(1.30514 1.13863e-05 0)
(1.31044 -1.03931e-05 0)
(1.31511 9.32148e-06 0)
(1.31925 -8.46371e-06 0)
(1.32297 7.6383e-06 0)
(1.3263 -6.91247e-06 0)
(1.32933 6.26865e-06 0)
(1.33207 -5.66064e-06 0)
(1.33457 5.15395e-06 0)
(1.33685 -4.64712e-06 0)
(1.33894 4.24588e-06 0)
(1.34085 -3.82429e-06 0)
(1.3426 3.50446e-06 0)
(1.34421 -3.15359e-06 0)
(1.34568 2.89726e-06 0)
(1.34704 -2.60501e-06 0)
(1.34828 2.39864e-06 0)
(1.34943 -2.15486e-06 0)
(1.35049 1.98791e-06 0)
(1.35147 -1.78434e-06 0)
(1.35236 1.64893e-06 0)
(1.35319 -1.47843e-06 0)
(1.35395 1.36791e-06 0)
(1.35465 -1.22523e-06 0)
(1.3553 1.13521e-06 0)
(1.35589 -1.01546e-06 0)
(1.35644 9.4194e-07 0)
(1.35695 -8.41692e-07 0)
(1.35742 7.81338e-07 0)
(1.35785 -6.97211e-07 0)
(1.35825 6.4812e-07 0)
(1.35862 -5.77336e-07 0)
(1.35896 5.37128e-07 0)
(1.35927 -4.88487e-07 0)
(1.35957 4.64918e-07 0)
(1.35985 -4.24206e-07 0)
(1.36011 4.05637e-07 0)
(1.36035 -3.71542e-07 0)
(1.36058 3.5614e-07 0)
(1.36079 -3.28009e-07 0)
(1.36099 3.15612e-07 0)
(1.36117 -2.91876e-07 0)
(1.36134 2.81753e-07 0)
(1.36149 -2.62302e-07 0)
(1.36164 2.54059e-07 0)
(1.36177 -2.37771e-07 0)
(1.36189 2.30988e-07 0)
(1.36201 -2.17804e-07 0)
(1.36211 2.12329e-07 0)
(1.3622 -2.01349e-07 0)
(1.36229 1.96888e-07 0)
(1.36236 -1.88135e-07 0)
(1.36243 1.84504e-07 0)
(1.3625 -1.77345e-07 0)
(1.36255 1.74412e-07 0)
(1.36261 -1.68722e-07 0)
(1.36265 1.66395e-07 0)
(1.36269 -1.61863e-07 0)
(1.36273 1.59941e-07 0)
(1.36276 -1.56327e-07 0)
(1.36279 1.54804e-07 0)
(1.36282 -1.51977e-07 0)
(1.36284 1.50726e-07 0)
(1.36286 -1.48461e-07 0)
(1.36288 1.47409e-07 0)
(1.36289 -1.4561e-07 0)
(1.36291 1.44709e-07 0)
(1.36292 -1.43244e-07 0)
(1.36293 1.42439e-07 0)
(1.36294 -1.41216e-07 0)
(1.36295 1.40472e-07 0)
(1.36295 -1.39382e-07 0)
(1.36296 1.38697e-07 0)
(1.36296 -1.37662e-07 0)
(1.36297 1.37015e-07 0)
(1.36297 -1.35864e-07 0)
(1.36297 1.35105e-07 0)
(1.36297 -1.34247e-07 0)
(1.36298 1.33402e-07 0)
(1.36298 -1.32519e-07 0)
(1.36298 1.31638e-07 0)
(1.36298 -1.3072e-07 0)
(1.36298 1.29796e-07 0)
(1.36298 -1.28836e-07 0)
(1.36298 1.27868e-07 0)
(1.36298 -1.26867e-07 0)
(1.36298 1.25857e-07 0)
(1.36298 -1.24819e-07 0)
(1.36298 1.23773e-07 0)
(1.36299 -1.22703e-07 0)
(1.36299 1.21629e-07 0)
(1.36299 -1.20537e-07 0)
(1.36299 1.19443e-07 0)
(1.36299 -1.18337e-07 0)
(1.36299 1.17234e-07 0)
(1.36299 -1.16125e-07 0)
(1.36299 1.15022e-07 0)
(1.36299 -1.13918e-07 0)
(1.36299 1.12826e-07 0)
(1.36299 -1.11736e-07 0)
(1.36299 1.10662e-07 0)
(1.36299 -1.09596e-07 0)
(1.36299 1.08548e-07 0)
(1.36299 -1.07511e-07 0)
(1.36299 1.06496e-07 0)
(1.36299 -1.05494e-07 0)
(1.36299 1.04516e-07 0)
(1.36299 -1.03555e-07 0)
(1.36299 1.02618e-07 0)
(1.36299 -1.017e-07 0)
(1.36299 1.00808e-07 0)
(1.36299 -9.9934e-08 0)
(1.36299 9.9087e-08 0)
(1.36299 -9.82596e-08 0)
(1.36299 9.74585e-08 0)
(1.36299 -9.66772e-08 0)
(1.36299 9.59218e-08 0)
(1.36299 -9.51861e-08 0)
(1.36299 9.44755e-08 0)
(1.36299 -9.37842e-08 0)
(1.36299 9.31171e-08 0)
(1.36299 -9.24689e-08 0)
(1.36299 9.18438e-08 0)
(1.36299 -9.12373e-08 0)
(1.36299 9.06526e-08 0)
(1.36299 -9.00863e-08 0)
(1.36299 8.95408e-08 0)
(1.36299 -8.90136e-08 0)
(1.36299 8.85062e-08 0)
(1.36299 -8.80173e-08 0)
(1.36299 8.75475e-08 0)
(1.36299 -8.70964e-08 0)
(1.36299 8.66645e-08 0)
(1.36299 -8.62514e-08 0)
(1.36299 8.5858e-08 0)
(1.36299 -8.5484e-08 0)
(1.36299 8.51305e-08 0)
(1.36299 -8.47975e-08 0)
(1.36299 8.44861e-08 0)
(1.36299 -8.41967e-08 0)
(1.36299 8.39303e-08 0)
(1.36299 -8.36879e-08 0)
(1.36299 7.31124e-08 0)
(1.36299 -7.12445e-08 0)
(1.36299 6.94058e-08 0)
(1.36299 -6.75968e-08 0)
(1.36299 6.58177e-08 0)
(1.36299 -6.40693e-08 0)
(1.36299 6.23517e-08 0)
(1.36299 -6.06659e-08 0)
(1.36299 5.90118e-08 0)
(1.36299 -5.73907e-08 0)
(1.36299 5.58023e-08 0)
(1.36299 -5.42479e-08 0)
(1.36299 5.27272e-08 0)
(1.36299 -5.12417e-08 0)
(1.36299 4.97908e-08 0)
(1.36299 -4.83763e-08 0)
(1.36299 4.69971e-08 0)
(1.36299 -4.56556e-08 0)
(1.36299 4.43499e-08 0)
(1.36299 -4.30834e-08 0)
(1.36299 4.18525e-08 0)
(1.36299 -4.0663e-08 0)
(1.36299 3.95084e-08 0)
(1.36299 -3.83974e-08 0)
(1.36299 3.73202e-08 0)
(1.36299 -3.62891e-08 0)
(1.36299 3.52905e-08 0)
(1.36299 -3.43406e-08 0)
(1.36299 3.34214e-08 0)
(1.36299 -3.25536e-08 0)
(1.36299 3.17148e-08 0)
(1.36299 -3.09299e-08 0)
(1.36299 3.01721e-08 0)
(1.36299 -2.9471e-08 0)
(1.36299 2.87945e-08 0)
(1.36299 -2.81781e-08 0)
(1.36299 2.7583e-08 0)
(1.36299 -2.7052e-08 0)
(1.36299 2.65341e-08 0)
(1.36299 -2.60627e-08 0)
(1.36299 2.55881e-08 0)
(1.36299 -2.51633e-08 0)
(1.36299 2.47367e-08 0)
(1.36299 -2.43639e-08 0)
(1.36299 2.39924e-08 0)
(1.36299 -2.36789e-08 0)
(1.36299 2.33749e-08 0)
(1.36299 -2.31327e-08 0)
(1.36299 2.29185e-08 0)
(1.36299 -2.27774e-08 0)
)
;

boundaryField
{
    inandouthalf11
    {
        type            cyclic;
    }
    inandouthalf12
    {
        type            cyclic;
    }
    inandouthalf21
    {
        type            cyclic;
    }
    inandouthalf22
    {
        type            cyclic;
    }
    inandouthalf31
    {
        type            cyclic;
    }
    inandouthalf32
    {
        type            cyclic;
    }
    inandouthalf41
    {
        type            cyclic;
    }
    inandouthalf42
    {
        type            cyclic;
    }
    top
    {
        type            symmetryPlane;
    }
    walls
    {
        type            fixedValue;
        value           uniform (0 0 0);
    }
    frontAndBackPlanes
    {
        type            empty;
    }
}


// ************************************************************************* //
