/*--------------------------------*- C++ -*----------------------------------*\
| =========                 |                                                 |
| \\      /  F ield         | OpenFOAM: The Open Source CFD Toolbox           |
|  \\    /   O peration     | Version:  2.4.x                                 |
|   \\  /    A nd           | Web:      www.OpenFOAM.org                      |
|    \\/     M anipulation  |                                                 |
\*---------------------------------------------------------------------------*/
FoamFile
{
    version     2.0;
    format      ascii;
    class       volVectorField;
    location    "2";
    object      Ub_0;
}
// * * * * * * * * * * * * * * * * * * * * * * * * * * * * * * * * * * * * * //

dimensions      [0 1 -1 0 0 0 0];

internalField   nonuniform List<vector> 
360
(
(-0.000140034 6.74704e-14 0)
(-0.000140272 2.02912e-13 0)
(-0.000140274 3.38873e-13 0)
(-0.000140274 4.74866e-13 0)
(-0.000140274 6.11186e-13 0)
(-0.000140275 7.47723e-13 0)
(-0.000140275 8.84255e-13 0)
(-0.000140276 1.0207e-12 0)
(-0.000140276 1.15717e-12 0)
(-0.000140277 1.29367e-12 0)
(-0.000140278 1.42991e-12 0)
(-0.000140278 1.56608e-12 0)
(-0.00014028 1.70185e-12 0)
(-0.000140281 1.83731e-12 0)
(-0.000140282 1.97281e-12 0)
(-0.000140283 2.10823e-12 0)
(-0.000140284 2.24317e-12 0)
(-0.000140285 2.37757e-12 0)
(-0.000140287 2.51179e-12 0)
(-0.000140289 2.6459e-12 0)
(-0.00014029 2.7792e-12 0)
(-0.000140293 2.91203e-12 0)
(-0.000140295 3.04451e-12 0)
(-0.000140297 3.17679e-12 0)
(-0.0001403 3.30839e-12 0)
(-0.000140302 3.43938e-12 0)
(-0.000140304 3.56985e-12 0)
(-0.000140308 3.69967e-12 0)
(-0.000140311 3.82918e-12 0)
(-0.000140315 3.95847e-12 0)
(-0.000140318 4.08723e-12 0)
(-0.000140323 4.21551e-12 0)
(-0.000140327 4.34313e-12 0)
(-0.000140333 4.47009e-12 0)
(-0.000140337 4.59626e-12 0)
(-0.000140343 4.72185e-12 0)
(-0.000140349 4.84674e-12 0)
(-0.000140356 4.9708e-12 0)
(-0.000140364 5.0941e-12 0)
(-0.000140372 5.21691e-12 0)
(-0.000140381 5.33931e-12 0)
(-0.00014039 5.46112e-12 0)
(-0.0001404 5.582e-12 0)
(-0.000140412 5.70211e-12 0)
(-0.000140423 5.82159e-12 0)
(-0.000140436 5.94017e-12 0)
(-0.000140451 6.05814e-12 0)
(-0.000140465 6.17537e-12 0)
(-0.000140481 6.29149e-12 0)
(-0.0001405 6.40691e-12 0)
(-0.000140519 6.52149e-12 0)
(-0.00014054 6.63555e-12 0)
(-0.000140563 6.74874e-12 0)
(-0.000140587 6.86098e-12 0)
(-0.000140613 6.97261e-12 0)
(-0.000140643 7.08348e-12 0)
(-0.000140674 7.19321e-12 0)
(-0.000140708 7.30221e-12 0)
(-0.000140745 7.41055e-12 0)
(-0.000140784 7.51798e-12 0)
(-0.000140827 7.62442e-12 0)
(-0.000140873 7.72971e-12 0)
(-0.000140924 7.83423e-12 0)
(-0.000140979 7.93821e-12 0)
(-0.000141038 8.04157e-12 0)
(-0.000141102 8.79322e-12 0)
(-0.000141172 -2.04853e-11 0)
(-0.000141248 2.1819e-10 0)
(-0.000141329 -8.65226e-10 0)
(-0.000141412 1.35651e-07 0)
(-0.000141483 8.1906e-07 0)
(-0.000141521 2.33425e-06 0)
(-0.000141525 4.39101e-06 0)
(-0.000141523 6.39083e-06 0)
(-0.000141535 7.96974e-06 0)
(-0.000141568 9.12547e-06 0)
(-0.000141616 1.00069e-05 0)
(-0.000141674 1.07496e-05 0)
(-0.000141737 1.14457e-05 0)
(-0.000141801 1.21538e-05 0)
(-0.000141862 1.29074e-05 0)
(-0.00014192 1.37188e-05 0)
(-0.000141972 1.45821e-05 0)
(-0.000142021 1.54783e-05 0)
(-0.000142067 1.63855e-05 0)
(-0.000142113 1.72864e-05 0)
(-0.00014216 1.81721e-05 0)
(-0.000142207 1.90413e-05 0)
(-0.000142256 1.98977e-05 0)
(-0.000142305 2.07461e-05 0)
(-0.000142354 2.15908e-05 0)
(-0.000142402 2.24344e-05 0)
(-0.000142451 2.32774e-05 0)
(-0.000142498 2.41194e-05 0)
(-0.000142546 2.49596e-05 0)
(-0.000142594 2.57974e-05 0)
(-0.000142641 2.66329e-05 0)
(-0.000142689 2.74667e-05 0)
(-0.000142737 2.83e-05 0)
(-0.000142785 2.9134e-05 0)
(-0.000142832 2.99704e-05 0)
(-0.000142879 3.08108e-05 0)
(-0.000142926 3.1657e-05 0)
(-0.000142972 3.25108e-05 0)
(-0.000143017 3.33744e-05 0)
(-0.000143062 3.42498e-05 0)
(-0.000143104 3.51392e-05 0)
(-0.000143146 3.60449e-05 0)
(-0.000143185 3.69687e-05 0)
(-0.000143222 3.79125e-05 0)
(-0.000143256 3.88779e-05 0)
(-0.000143287 3.9866e-05 0)
(-0.000143315 4.08775e-05 0)
(-0.000143339 4.19125e-05 0)
(-0.000143359 4.29708e-05 0)
(-0.000143374 4.40512e-05 0)
(-0.000143384 4.51521e-05 0)
(-0.00014339 4.62715e-05 0)
(-0.00014339 4.74065e-05 0)
(-0.000143386 4.8554e-05 0)
(-0.000143377 4.97106e-05 0)
(-0.000143362 5.0873e-05 0)
(-0.000143343 5.20378e-05 0)
(-0.000143318 5.32023e-05 0)
(-0.000143289 5.43645e-05 0)
(-0.000143255 5.55228e-05 0)
(-0.000143216 5.66758e-05 0)
(-0.000143172 5.7821e-05 0)
(-0.000143124 5.89537e-05 0)
(-0.000143071 6.0066e-05 0)
(-0.000143015 6.11479e-05 0)
(-0.000142958 6.21897e-05 0)
(-0.000142902 6.31874e-05 0)
(-0.00014285 6.41445e-05 0)
(-0.0001428 6.50699e-05 0)
(-0.000142748 6.59685e-05 0)
(-0.000142687 6.68337e-05 0)
(-0.000142627 6.76491e-05 0)
(-0.000142588 6.83938e-05 0)
(-0.000142597 6.90407e-05 0)
(-0.000142657 6.95485e-05 0)
(-0.000142741 6.98512e-05 0)
(-0.000142981 6.99806e-05 0)
(-0.000143436 6.99863e-05 0)
(-0.000144084 6.989e-05 0)
(-0.000144958 6.9714e-05 0)
(-0.000146096 6.94465e-05 0)
(-0.000147638 6.91175e-05 0)
(-0.000146196 6.1458e-05 0)
(0.00401104 8.90943e-05 0)
(0.102534 0.00107995 0)
(0.284941 -5.51764e-05 0)
(0.453335 0.000356233 0)
(0.602528 -6.43903e-05 0)
(0.733701 0.000155558 0)
(0.847939 -0.000103944 0)
(0.946457 5.83615e-05 0)
(1.0305 -0.000105254 0)
(1.10065 2.11976e-05 0)
(1.15633 -5.61061e-05 0)
(1.19711 2.20227e-05 0)
(1.22537 -2.71378e-05 0)
(1.24548 2.01109e-05 0)
(1.26094 -1.98275e-05 0)
(1.27332 1.6894e-05 0)
(1.28351 -1.58418e-05 0)
(1.292 1.38905e-05 0)
(1.29913 -1.27948e-05 0)
(1.30527 1.13763e-05 0)
(1.31057 -1.03841e-05 0)
(1.31525 9.31379e-06 0)
(1.31938 -8.45687e-06 0)
(1.3231 7.63251e-06 0)
(1.32643 -6.90736e-06 0)
(1.32946 6.26438e-06 0)
(1.3322 -5.6569e-06 0)
(1.3347 5.15087e-06 0)
(1.33698 -4.64446e-06 0)
(1.33907 4.24372e-06 0)
(1.34098 -3.82244e-06 0)
(1.34273 3.503e-06 0)
(1.34434 -3.15236e-06 0)
(1.34581 2.89631e-06 0)
(1.34717 -2.6042e-06 0)
(1.34842 2.39805e-06 0)
(1.34957 -2.15435e-06 0)
(1.35062 1.98755e-06 0)
(1.3516 -1.78403e-06 0)
(1.35249 1.64872e-06 0)
(1.35332 -1.47824e-06 0)
(1.35408 1.36779e-06 0)
(1.35478 -1.22512e-06 0)
(1.35543 1.13513e-06 0)
(1.35603 -1.01538e-06 0)
(1.35658 9.41886e-07 0)
(1.35708 -8.41624e-07 0)
(1.35755 7.8129e-07 0)
(1.35798 -6.97147e-07 0)
(1.35838 6.48071e-07 0)
(1.35875 -5.77271e-07 0)
(1.35909 5.37075e-07 0)
(1.3594 -4.88418e-07 0)
(1.3597 4.64858e-07 0)
(1.35998 -4.24134e-07 0)
(1.36024 4.05573e-07 0)
(1.36048 -3.71468e-07 0)
(1.36071 3.56075e-07 0)
(1.36092 -3.27938e-07 0)
(1.36112 3.15549e-07 0)
(1.3613 -2.9181e-07 0)
(1.36147 2.81696e-07 0)
(1.36163 -2.62244e-07 0)
(1.36177 2.5401e-07 0)
(1.3619 -2.37722e-07 0)
(1.36202 2.30949e-07 0)
(1.36214 -2.17767e-07 0)
(1.36224 2.12303e-07 0)
(1.36233 -2.01326e-07 0)
(1.36242 1.96875e-07 0)
(1.36249 -1.88126e-07 0)
(1.36256 1.84504e-07 0)
(1.36263 -1.7735e-07 0)
(1.36269 1.74426e-07 0)
(1.36274 -1.68741e-07 0)
(1.36278 1.66422e-07 0)
(1.36282 -1.61894e-07 0)
(1.36286 1.5998e-07 0)
(1.36289 -1.5637e-07 0)
(1.36292 1.54854e-07 0)
(1.36295 -1.52029e-07 0)
(1.36297 1.50784e-07 0)
(1.36299 -1.48522e-07 0)
(1.36301 1.47474e-07 0)
(1.36302 -1.45677e-07 0)
(1.36304 1.4478e-07 0)
(1.36305 -1.43315e-07 0)
(1.36306 1.42512e-07 0)
(1.36307 -1.41289e-07 0)
(1.36308 1.40547e-07 0)
(1.36308 -1.39456e-07 0)
(1.36309 1.38771e-07 0)
(1.36309 -1.37735e-07 0)
(1.3631 1.37088e-07 0)
(1.3631 -1.35935e-07 0)
(1.3631 1.35175e-07 0)
(1.36311 -1.34315e-07 0)
(1.36311 1.33469e-07 0)
(1.36311 -1.32583e-07 0)
(1.36311 1.317e-07 0)
(1.36311 -1.30778e-07 0)
(1.36311 1.29853e-07 0)
(1.36311 -1.28889e-07 0)
(1.36311 1.27919e-07 0)
(1.36311 -1.26915e-07 0)
(1.36312 1.25903e-07 0)
(1.36312 -1.24861e-07 0)
(1.36312 1.23813e-07 0)
(1.36312 -1.22739e-07 0)
(1.36312 1.21663e-07 0)
(1.36312 -1.20567e-07 0)
(1.36312 1.19472e-07 0)
(1.36312 -1.18362e-07 0)
(1.36312 1.17258e-07 0)
(1.36312 -1.16145e-07 0)
(1.36312 1.15041e-07 0)
(1.36312 -1.13934e-07 0)
(1.36312 1.1284e-07 0)
(1.36312 -1.11748e-07 0)
(1.36312 1.10673e-07 0)
(1.36312 -1.09604e-07 0)
(1.36312 1.08555e-07 0)
(1.36312 -1.07517e-07 0)
(1.36312 1.065e-07 0)
(1.36312 -1.05497e-07 0)
(1.36312 1.04519e-07 0)
(1.36312 -1.03556e-07 0)
(1.36312 1.02619e-07 0)
(1.36312 -1.01699e-07 0)
(1.36312 1.00806e-07 0)
(1.36312 -9.99321e-08 0)
(1.36312 9.90848e-08 0)
(1.36312 -9.82568e-08 0)
(1.36312 9.74555e-08 0)
(1.36312 -9.66737e-08 0)
(1.36312 9.59182e-08 0)
(1.36312 -9.51821e-08 0)
(1.36312 9.44715e-08 0)
(1.36312 -9.378e-08 0)
(1.36312 9.31128e-08 0)
(1.36312 -9.24645e-08 0)
(1.36312 9.18393e-08 0)
(1.36312 -9.12327e-08 0)
(1.36312 9.0648e-08 0)
(1.36312 -9.00816e-08 0)
(1.36312 8.95361e-08 0)
(1.36312 -8.90088e-08 0)
(1.36312 8.85013e-08 0)
(1.36312 -8.80122e-08 0)
(1.36312 8.75424e-08 0)
(1.36312 -8.70911e-08 0)
(1.36312 8.66591e-08 0)
(1.36312 -8.62458e-08 0)
(1.36312 8.58522e-08 0)
(1.36312 -8.54781e-08 0)
(1.36312 8.51243e-08 0)
(1.36312 -8.4791e-08 0)
(1.36312 8.44794e-08 0)
(1.36312 -8.41896e-08 0)
(1.36312 8.3923e-08 0)
(1.36312 -8.36801e-08 0)
(1.36312 7.31053e-08 0)
(1.36312 -7.12371e-08 0)
(1.36312 6.93982e-08 0)
(1.36312 -6.75888e-08 0)
(1.36312 6.58096e-08 0)
(1.36312 -6.40607e-08 0)
(1.36312 6.23431e-08 0)
(1.36312 -6.06567e-08 0)
(1.36312 5.90027e-08 0)
(1.36312 -5.73809e-08 0)
(1.36312 5.57926e-08 0)
(1.36312 -5.42375e-08 0)
(1.36312 5.2717e-08 0)
(1.36312 -5.12308e-08 0)
(1.36312 4.97802e-08 0)
(1.36312 -4.83647e-08 0)
(1.36312 4.69862e-08 0)
(1.36312 -4.56434e-08 0)
(1.36312 4.43388e-08 0)
(1.36312 -4.30702e-08 0)
(1.36312 4.18416e-08 0)
(1.36312 -4.06488e-08 0)
(1.36312 3.94978e-08 0)
(1.36312 -3.8382e-08 0)
(1.36312 3.73102e-08 0)
(1.36312 -3.62725e-08 0)
(1.36312 3.52812e-08 0)
(1.36312 -3.43226e-08 0)
(1.36312 3.34128e-08 0)
(1.36312 -3.25344e-08 0)
(1.36312 3.17071e-08 0)
(1.36312 -3.09093e-08 0)
(1.36312 3.01654e-08 0)
(1.36312 -2.9449e-08 0)
(1.36312 2.87891e-08 0)
(1.36312 -2.81543e-08 0)
(1.36312 2.75793e-08 0)
(1.36312 -2.70259e-08 0)
(1.36312 2.65316e-08 0)
(1.36312 -2.60359e-08 0)
(1.36312 2.55866e-08 0)
(1.36312 -2.5136e-08 0)
(1.36312 2.47355e-08 0)
(1.36312 -2.4336e-08 0)
(1.36312 2.39915e-08 0)
(1.36312 -2.3652e-08 0)
(1.36312 2.33718e-08 0)
(1.36312 -2.31086e-08 0)
(1.36312 2.29114e-08 0)
(1.36312 -2.276e-08 0)
)
;

boundaryField
{
    inandouthalf11
    {
        type            cyclic;
    }
    inandouthalf12
    {
        type            cyclic;
    }
    inandouthalf21
    {
        type            cyclic;
    }
    inandouthalf22
    {
        type            cyclic;
    }
    inandouthalf31
    {
        type            cyclic;
    }
    inandouthalf32
    {
        type            cyclic;
    }
    inandouthalf41
    {
        type            cyclic;
    }
    inandouthalf42
    {
        type            cyclic;
    }
    top
    {
        type            symmetryPlane;
    }
    walls
    {
        type            fixedValue;
        value           uniform (0 0 0);
    }
    frontAndBackPlanes
    {
        type            empty;
    }
}


// ************************************************************************* //
