/*--------------------------------*- C++ -*----------------------------------*\
| =========                 |                                                 |
| \\      /  F ield         | OpenFOAM: The Open Source CFD Toolbox           |
|  \\    /   O peration     | Version:  2.4.x                                 |
|   \\  /    A nd           | Web:      www.OpenFOAM.org                      |
|    \\/     M anipulation  |                                                 |
\*---------------------------------------------------------------------------*/
FoamFile
{
    version     2.0;
    format      ascii;
    class       volVectorField;
    location    "2";
    object      Ur;
}
// * * * * * * * * * * * * * * * * * * * * * * * * * * * * * * * * * * * * * //

dimensions      [0 1 -1 0 0 0 0];

internalField   nonuniform List<vector> 
360
(
(-0.000140096 5.72267e-14 0)
(-0.000140335 1.71875e-13 0)
(-0.000140336 2.86911e-13 0)
(-0.000140336 4.02223e-13 0)
(-0.000140336 5.1772e-13 0)
(-0.000140337 6.3319e-13 0)
(-0.000140337 7.48656e-13 0)
(-0.000140338 8.64181e-13 0)
(-0.000140338 9.79331e-13 0)
(-0.00014034 1.09459e-12 0)
(-0.000140341 1.20994e-12 0)
(-0.000140341 1.32477e-12 0)
(-0.000140342 1.43925e-12 0)
(-0.000140343 1.55384e-12 0)
(-0.000140344 1.66846e-12 0)
(-0.000140345 1.78264e-12 0)
(-0.000140347 1.89653e-12 0)
(-0.000140348 2.01027e-12 0)
(-0.000140349 2.12369e-12 0)
(-0.000140351 2.2371e-12 0)
(-0.000140353 2.34998e-12 0)
(-0.000140355 2.46238e-12 0)
(-0.000140357 2.57441e-12 0)
(-0.00014036 2.68605e-12 0)
(-0.000140362 2.79739e-12 0)
(-0.000140364 2.90808e-12 0)
(-0.000140367 3.0181e-12 0)
(-0.00014037 3.12779e-12 0)
(-0.000140374 3.23711e-12 0)
(-0.000140377 3.34615e-12 0)
(-0.000140381 3.45485e-12 0)
(-0.000140386 3.56316e-12 0)
(-0.000140389 3.6706e-12 0)
(-0.000140395 3.77759e-12 0)
(-0.0001404 3.88448e-12 0)
(-0.000140406 3.99058e-12 0)
(-0.000140411 4.09605e-12 0)
(-0.000140419 4.20107e-12 0)
(-0.000140427 4.30564e-12 0)
(-0.000140434 4.4096e-12 0)
(-0.000140443 4.51284e-12 0)
(-0.000140453 4.61577e-12 0)
(-0.000140462 4.718e-12 0)
(-0.000140474 4.81962e-12 0)
(-0.000140486 4.9206e-12 0)
(-0.000140499 5.02074e-12 0)
(-0.000140513 5.12045e-12 0)
(-0.000140527 5.21951e-12 0)
(-0.000140544 5.31794e-12 0)
(-0.000140562 5.41572e-12 0)
(-0.000140581 5.51271e-12 0)
(-0.000140603 5.6092e-12 0)
(-0.000140625 5.70507e-12 0)
(-0.00014065 5.80038e-12 0)
(-0.000140676 5.89454e-12 0)
(-0.000140705 5.98811e-12 0)
(-0.000140736 6.08081e-12 0)
(-0.00014077 6.17292e-12 0)
(-0.000140807 6.26439e-12 0)
(-0.000140846 6.35485e-12 0)
(-0.00014089 6.44481e-12 0)
(-0.000140936 6.53381e-12 0)
(-0.000140987 6.62193e-12 0)
(-0.000141041 6.70974e-12 0)
(-0.0001411 6.797e-12 0)
(-0.000141164 7.49746e-12 0)
(-0.000141234 -2.09762e-11 0)
(-0.00014131 2.12996e-10 0)
(-0.000141392 -8.50999e-10 0)
(-0.000141474 1.84807e-07 0)
(-0.00014154 1.228e-06 0)
(-0.000141568 3.74463e-06 0)
(-0.00014156 7.24808e-06 0)
(-0.00014155 1.05926e-05 0)
(-0.000141559 1.31705e-05 0)
(-0.000141593 1.50384e-05 0)
(-0.000141642 1.64635e-05 0)
(-0.000141703 1.76693e-05 0)
(-0.000141769 1.88043e-05 0)
(-0.000141838 1.9963e-05 0)
(-0.000141905 2.12003e-05 0)
(-0.000141971 2.25361e-05 0)
(-0.000142034 2.39594e-05 0)
(-0.000142095 2.54377e-05 0)
(-0.000142155 2.69335e-05 0)
(-0.000142216 2.84176e-05 0)
(-0.00014228 2.98755e-05 0)
(-0.000142346 3.1306e-05 0)
(-0.000142414 3.27154e-05 0)
(-0.000142484 3.41122e-05 0)
(-0.000142556 3.55037e-05 0)
(-0.000142629 3.68938e-05 0)
(-0.000142703 3.82835e-05 0)
(-0.000142779 3.9672e-05 0)
(-0.000142856 4.10578e-05 0)
(-0.000142935 4.24401e-05 0)
(-0.000143015 4.38188e-05 0)
(-0.000143098 4.51952e-05 0)
(-0.000143182 4.6571e-05 0)
(-0.000143268 4.79486e-05 0)
(-0.000143356 4.93305e-05 0)
(-0.000143446 5.07195e-05 0)
(-0.000143538 5.21184e-05 0)
(-0.000143632 5.35306e-05 0)
(-0.000143729 5.49593e-05 0)
(-0.000143827 5.6408e-05 0)
(-0.000143928 5.78805e-05 0)
(-0.000144031 5.93803e-05 0)
(-0.000144137 6.09108e-05 0)
(-0.000144245 6.24749e-05 0)
(-0.000144355 6.40753e-05 0)
(-0.000144468 6.57139e-05 0)
(-0.000144584 6.73919e-05 0)
(-0.000144703 6.91096e-05 0)
(-0.000144825 7.08665e-05 0)
(-0.00014495 7.26609e-05 0)
(-0.000145079 7.44902e-05 0)
(-0.000145211 7.63509e-05 0)
(-0.000145347 7.82384e-05 0)
(-0.000145487 8.01477e-05 0)
(-0.000145632 8.20732e-05 0)
(-0.000145781 8.40092e-05 0)
(-0.000145935 8.59506e-05 0)
(-0.000146094 8.78926e-05 0)
(-0.00014626 8.98321e-05 0)
(-0.000146431 9.17668e-05 0)
(-0.000146609 9.36945e-05 0)
(-0.000146795 9.56115e-05 0)
(-0.000146989 9.75104e-05 0)
(-0.00014719 9.9378e-05 0)
(-0.000147398 0.000101197 0)
(-0.000147614 0.000102951 0)
(-0.00014784 0.000104633 0)
(-0.000148079 0.00010625 0)
(-0.000148335 0.000107818 0)
(-0.000148605 0.000109346 0)
(-0.000148885 0.000110824 0)
(-0.000149179 0.000112224 0)
(-0.000149502 0.000113514 0)
(-0.000149866 0.00011465 0)
(-0.00015024 0.00011555 0)
(-0.000150558 0.000116111 0)
(-0.000150954 0.000116385 0)
(-0.000151511 0.000116473 0)
(-0.000152224 0.000116423 0)
(-0.000153137 0.000116271 0)
(-0.000154296 0.000116014 0)
(-0.000155855 0.000115688 0)
(-0.000154467 0.000108041 0)
(-1.26053e-05 0.000179281 0)
(0.00118033 0.00322844 0)
(0.00272358 0.00377258 0)
(0.0178321 0.0041452 0)
(0.0332187 0.00286823 0)
(0.0461015 0.00171858 0)
(0.0572003 -0.000145384 0)
(0.0685737 -0.00158519 0)
(0.0827641 -0.00316349 0)
(0.101267 -0.00409087 0)
(0.122359 -0.00470042 0)
(0.141309 -0.00457553 0)
(0.154928 -0.00420077 0)
(0.163792 -0.00360706 0)
(0.16982 -0.00310785 0)
(0.173966 -0.00258237 0)
(0.17687 -0.002183 0)
(0.178804 -0.00176667 0)
(0.180005 -0.00144668 0)
(0.180728 -0.00111003 0)
(0.181052 -0.000847134 0)
(0.181138 -0.000568065 0)
(0.181012 -0.000347297 0)
(0.180763 -0.000111448 0)
(0.18038 7.82921e-05 0)
(0.179923 0.000280879 0)
(0.179382 0.000446151 0)
(0.178786 0.000623183 0)
(0.178125 0.000770033 0)
(0.177429 0.000926 0)
(0.176679 0.00105832 0)
(0.175897 0.00119832 0)
(0.17508 0.00131852 0)
(0.174229 0.00144576 0)
(0.173354 0.00155638 0)
(0.172452 0.001673 0)
(0.17153 0.00177585 0)
(0.170582 0.00188407 0)
(0.169618 0.00198104 0)
(0.168642 0.00208192 0)
(0.167657 0.00217305 0)
(0.166643 0.00226909 0)
(0.165627 0.00235671 0)
(0.164604 0.00244732 0)
(0.163581 0.0025311 0)
(0.162551 0.00261738 0)
(0.161508 0.00269922 0)
(0.160459 0.00278342 0)
(0.159417 0.00286289 0)
(0.158395 0.00294286 0)
(0.157384 0.00301868 0)
(0.156365 0.00309688 0)
(0.155321 0.0031746 0)
(0.154261 0.00325529 0)
(0.153207 0.00333373 0)
(0.152175 0.00341213 0)
(0.151117 0.00349091 0)
(0.150008 0.00357524 0)
(0.148872 0.00366047 0)
(0.147756 0.0037458 0)
(0.146653 0.00382887 0)
(0.145506 0.00391709 0)
(0.144318 0.00400835 0)
(0.143147 0.00409973 0)
(0.141988 0.00418943 0)
(0.140768 0.00428603 0)
(0.139503 0.00438698 0)
(0.138268 0.00448686 0)
(0.137053 0.00458486 0)
(0.135779 0.00469016 0)
(0.134441 0.00480231 0)
(0.133115 0.00491531 0)
(0.131798 0.00502787 0)
(0.130424 0.00514865 0)
(0.129024 0.00527346 0)
(0.127636 0.00539901 0)
(0.126183 0.00553274 0)
(0.12468 0.00567546 0)
(0.123203 0.00581644 0)
(0.121687 0.00596475 0)
(0.120096 0.00612456 0)
(0.118511 0.00628698 0)
(0.116916 0.00645267 0)
(0.115254 0.00663128 0)
(0.113576 0.00681478 0)
(0.111883 0.00700476 0)
(0.110182 0.00719984 0)
(0.10848 0.00740011 0)
(0.106784 0.00760516 0)
(0.105178 0.00780433 0)
(0.103725 0.00798887 0)
(0.102496 0.00815025 0)
(0.101534 0.00827697 0)
(0.100459 0.00843878 0)
(-0.00257562 0.0395303 0)
(-0.00261112 0.0395307 0)
(-0.00261089 0.0395305 0)
(-0.00261082 0.0395307 0)
(-0.00261075 0.0395305 0)
(-0.00261069 0.0395307 0)
(-0.00261065 0.0395305 0)
(-0.0026106 0.0395307 0)
(-0.00261058 0.0395305 0)
(-0.00261055 0.0395307 0)
(-0.00261053 0.0395305 0)
(-0.00261051 0.0395307 0)
(-0.0026105 0.0395305 0)
(-0.00261049 0.0395307 0)
(-0.00261048 0.0395305 0)
(-0.00261047 0.0395307 0)
(-0.00261047 0.0395305 0)
(-0.00261047 0.0395307 0)
(-0.00261046 0.0395305 0)
(-0.00261046 0.0395307 0)
(-0.00261046 0.0395305 0)
(-0.00261045 0.0395307 0)
(-0.00261046 0.0395305 0)
(-0.00261045 0.0395307 0)
(-0.00261046 0.0395305 0)
(-0.00261045 0.0395307 0)
(-0.00261045 0.0395305 0)
(-0.00261045 0.0395307 0)
(-0.00261045 0.0395305 0)
(-0.00261045 0.0395307 0)
(-0.00261045 0.0395305 0)
(-0.00261045 0.0395307 0)
(-0.00261045 0.0395305 0)
(-0.00261045 0.0395307 0)
(-0.00261045 0.0395305 0)
(-0.00261045 0.0395307 0)
(-0.00261045 0.0395305 0)
(-0.00261045 0.0395307 0)
(-0.00261045 0.0395305 0)
(-0.00261045 0.0395307 0)
(-0.00261045 0.0395305 0)
(-0.00261045 0.0395307 0)
(-0.00261045 0.0395305 0)
(-0.00261045 0.0395307 0)
(-0.00261045 0.0395305 0)
(-0.00261045 0.0395307 0)
(-0.00261045 0.0395305 0)
(-0.00261045 0.0395307 0)
(-0.00261045 0.0395305 0)
(-0.00261045 0.0395307 0)
(-0.00261045 0.0395305 0)
(-0.00261045 0.0395307 0)
(-0.00261045 0.0395305 0)
(-0.00261045 0.0395307 0)
(-0.00261045 0.0395305 0)
(-0.00261045 0.0395307 0)
(-0.00261045 0.0395305 0)
(-0.00261045 0.0395307 0)
(-0.00261045 0.0395305 0)
(-0.00261045 0.0395307 0)
(-0.00261045 0.0395305 0)
(-0.00261045 0.0395307 0)
(-0.00261045 0.0395305 0)
(-0.00261045 0.0395307 0)
(-0.00261045 0.0395305 0)
(-0.00261045 0.0395307 0)
(-0.00261045 0.0395305 0)
(-0.00261045 0.0395307 0)
(-0.00261045 0.0395305 0)
(-0.00261045 0.0395307 0)
(-0.00261045 0.0395305 0)
(-0.00261045 0.0395307 0)
(-0.00261045 0.0395305 0)
(-0.00261045 0.0395306 0)
(-0.00261045 0.0395306 0)
(-0.00261045 0.0395306 0)
(-0.00261045 0.0395306 0)
(-0.00261045 0.0395306 0)
(-0.00261045 0.0395306 0)
(-0.00261045 0.0395306 0)
(-0.00261045 0.0395306 0)
(-0.00261045 0.0395306 0)
(-0.00261045 0.0395306 0)
(-0.00261045 0.0395306 0)
(-0.00261045 0.0395306 0)
(-0.00261045 0.0395306 0)
(-0.00261045 0.0395306 0)
(-0.00261045 0.0395306 0)
(-0.00261045 0.0395306 0)
(-0.00261045 0.0395306 0)
(-0.00261045 0.0395306 0)
(-0.00261045 0.0395306 0)
(-0.00261045 0.0395306 0)
(-0.00261045 0.0395306 0)
(-0.00261045 0.0395306 0)
(-0.00261045 0.0395306 0)
(-0.00261045 0.0395306 0)
(-0.00261045 0.0395306 0)
(-0.00261045 0.0395306 0)
(-0.00261045 0.0395306 0)
(-0.00261045 0.0395306 0)
(-0.00261045 0.0395306 0)
(-0.00261045 0.0395306 0)
(-0.00261045 0.0395306 0)
(-0.00261045 0.0395306 0)
(-0.00261045 0.0395306 0)
(-0.00261045 0.0395306 0)
(-0.00261045 0.0395306 0)
(-0.00261045 0.0395306 0)
(-0.00261045 0.0395306 0)
(-0.00261045 0.0395306 0)
(-0.00261045 0.0395306 0)
(-0.00261045 0.0395306 0)
(-0.00261048 0.0395304 0)
(-0.0026112 0.0395219 0)
(-0.00262883 0.0391769 0)
(-0.00304069 0.022462 0)
)
;

boundaryField
{
    inandouthalf11
    {
        type            cyclic;
    }
    inandouthalf12
    {
        type            cyclic;
    }
    inandouthalf21
    {
        type            cyclic;
    }
    inandouthalf22
    {
        type            cyclic;
    }
    inandouthalf31
    {
        type            cyclic;
    }
    inandouthalf32
    {
        type            cyclic;
    }
    inandouthalf41
    {
        type            cyclic;
    }
    inandouthalf42
    {
        type            cyclic;
    }
    top
    {
        type            symmetryPlane;
    }
    walls
    {
        type            calculated;
        value           uniform (0 0 0);
    }
    frontAndBackPlanes
    {
        type            empty;
    }
}


// ************************************************************************* //
