/*--------------------------------*- C++ -*----------------------------------*\
| =========                 |                                                 |
| \\      /  F ield         | OpenFOAM: The Open Source CFD Toolbox           |
|  \\    /   O peration     | Version:  2.4.x                                 |
|   \\  /    A nd           | Web:      www.OpenFOAM.org                      |
|    \\/     M anipulation  |                                                 |
\*---------------------------------------------------------------------------*/
FoamFile
{
    version     2.0;
    format      ascii;
    class       volScalarField;
    location    "8.75";
    object      alpha_0;
}
// * * * * * * * * * * * * * * * * * * * * * * * * * * * * * * * * * * * * * //

dimensions      [0 0 0 0 0 0 0];

internalField   nonuniform List<scalar> 
360
(
0.610861
0.611713
0.611806
0.611718
0.611675
0.611661
0.611643
0.611621
0.611599
0.611576
0.611552
0.611529
0.611505
0.611481
0.611457
0.611433
0.611408
0.611384
0.611359
0.611333
0.611308
0.611282
0.611256
0.61123
0.611203
0.611176
0.611149
0.611122
0.611094
0.611066
0.611038
0.61101
0.610981
0.610952
0.610923
0.610894
0.610864
0.610834
0.610803
0.610773
0.610742
0.61071
0.610679
0.610647
0.610614
0.610582
0.610548
0.610515
0.610481
0.610447
0.610413
0.610378
0.610342
0.610306
0.61027
0.610233
0.610197
0.610159
0.610121
0.610083
0.610043
0.610004
0.609964
0.609924
0.609883
0.609841
0.609799
0.609756
0.609713
0.609669
0.609625
0.609579
0.609534
0.609487
0.60944
0.609392
0.609344
0.609294
0.609244
0.609193
0.609142
0.609089
0.609036
0.608982
0.608927
0.608871
0.608814
0.608756
0.608697
0.608637
0.608576
0.608514
0.60845
0.608386
0.60832
0.608253
0.608184
0.608114
0.608043
0.60797
0.607896
0.60782
0.607742
0.607663
0.607582
0.607499
0.607414
0.607327
0.607238
0.607147
0.607053
0.606957
0.606859
0.606758
0.606654
0.606548
0.606438
0.606325
0.606209
0.60609
0.605967
0.60584
0.60571
0.605575
0.605435
0.60529
0.605141
0.604985
0.604824
0.604655
0.60448
0.604297
0.604106
0.603905
0.603692
0.603466
0.603229
0.602977
0.602698
0.602378
0.602031
0.601695
0.601273
0.594623
0.447803
0.335903
0.286532
0.257801
0.236825
0.219311
0.203553
0.188749
0.174086
0.160004
0.146569
0.133804
0.121725
0.110347
0.0996808
0.0897288
0.0804877
0.071946
0.0640875
0.0568872
0.0503166
0.0443437
0.038934
0.034052
0.0296616
0.0257273
0.0222144
0.0190897
0.0163214
0.0138795
0.0117357
0.00986333
0.0082372
0.00683366
0.00563035
0.0046062
0.00374133
0.00301685
0.00241465
0.00191744
0.00150959
0.00117818
0.000913158
0.000705985
0.000548064
0.000430158
0.000343065
0.000278656
0.000230489
0.000193837
0.000165388
0.000142863
0.000124695
0.000109796
9.73959e-05
8.69421e-05
7.80247e-05
7.02666e-05
6.3406e-05
5.73035e-05
5.18455e-05
4.69387e-05
4.25063e-05
3.84847e-05
3.48209e-05
3.14699e-05
2.83943e-05
2.55623e-05
2.29488e-05
2.05348e-05
1.83033e-05
1.62411e-05
1.43403e-05
1.25955e-05
1.10016e-05
9.55287e-06
8.24675e-06
7.07917e-06
6.04205e-06
5.12738e-06
4.32774e-06
3.63279e-06
3.03373e-06
2.51885e-06
2.08194e-06
1.70944e-06
1.39949e-06
1.13327e-06
9.19639e-07
7.38466e-07
5.80478e-07
4.59507e-07
3.8837e-07
2.93207e-07
2.15183e-07
1.56043e-07
1.11028e-07
7.73184e-08
5.16625e-08
3.4066e-08
1.88964e-08
1.15453e-08
2.07811e-09
2.04803e-20
1.271e-31
7.81702e-43
4.33865e-47
2.47201e-47
1.03007e-47
5.75826e-48
3.51098e-48
2.24015e-48
1.23934e-48
5.63802e-49
2.8748e-49
1.54348e-49
8.45317e-50
4.26014e-50
2.11344e-50
1.06205e-50
5.26394e-51
2.56697e-51
1.23092e-51
5.80011e-52
2.6846e-52
1.21998e-52
5.43998e-53
2.37868e-53
1.01925e-53
4.27688e-54
1.75612e-54
7.05056e-55
2.76549e-55
1.05881e-55
3.95325e-56
1.43796e-56
5.0902e-57
1.75154e-57
5.85161e-58
1.89551e-58
5.94508e-59
1.80262e-59
5.27529e-60
1.48729e-60
4.03174e-61
1.04857e-61
2.6102e-62
6.20256e-63
1.40285e-63
3.00995e-64
6.10383e-65
1.16494e-65
2.08236e-66
3.46673e-67
5.33997e-68
7.55123e-69
9.71078e-70
1.12253e-70
1.14938e-71
1.02271e-72
7.70504e-74
4.73522e-75
2.23963e-76
7.34846e-78
1.31427e-79
2.80432e-82
1.32419e-87
1.01549e-89
3.85907e-92
1.38963e-102
2.51144e-113
3.34424e-124
3.18676e-135
2.64189e-146
1.63891e-157
8.82515e-169
4.68095e-179
2.08685e-189
1.49004e-197
6.11537e-208
5.12498e-216
2.48503e-226
1.76368e-234
1.05332e-244
6.07532e-253
6.82042e-263
2.13491e-271
4.55084e-281
7.72313e-290
2.25865e-299
2.86448e-308
1.04747e-317
1.53654e-321
8.86848e-321
4.57737e-319
2.8055e-319
6.80328e-321
7.09478e-321
6.08689e-321
8.5424e-321
0
0
0
0
0
0
0
0
0
0
0
0
0
0
0
0
)
;

boundaryField
{
    inandouthalf11
    {
        type            cyclic;
    }
    inandouthalf12
    {
        type            cyclic;
    }
    inandouthalf21
    {
        type            cyclic;
    }
    inandouthalf22
    {
        type            cyclic;
    }
    inandouthalf31
    {
        type            cyclic;
    }
    inandouthalf32
    {
        type            cyclic;
    }
    inandouthalf41
    {
        type            cyclic;
    }
    inandouthalf42
    {
        type            cyclic;
    }
    top
    {
        type            symmetryPlane;
    }
    walls
    {
        type            zeroGradient;
    }
    frontAndBackPlanes
    {
        type            empty;
    }
}


// ************************************************************************* //
