/*--------------------------------*- C++ -*----------------------------------*\
| =========                 |                                                 |
| \\      /  F ield         | OpenFOAM: The Open Source CFD Toolbox           |
|  \\    /   O peration     | Version:  2.4.x                                 |
|   \\  /    A nd           | Web:      www.OpenFOAM.org                      |
|    \\/     M anipulation  |                                                 |
\*---------------------------------------------------------------------------*/
FoamFile
{
    version     2.0;
    format      ascii;
    class       volScalarField;
    location    "8.75";
    object      alpha;
}
// * * * * * * * * * * * * * * * * * * * * * * * * * * * * * * * * * * * * * //

dimensions      [0 0 0 0 0 0 0];

internalField   nonuniform List<scalar> 
360
(
0.610861
0.611713
0.611806
0.611718
0.611675
0.611661
0.611643
0.611621
0.611599
0.611576
0.611552
0.611529
0.611505
0.611481
0.611457
0.611433
0.611408
0.611384
0.611359
0.611333
0.611308
0.611282
0.611256
0.61123
0.611203
0.611176
0.611149
0.611122
0.611094
0.611066
0.611038
0.61101
0.610981
0.610952
0.610923
0.610894
0.610864
0.610834
0.610803
0.610773
0.610742
0.61071
0.610679
0.610647
0.610614
0.610582
0.610548
0.610515
0.610481
0.610447
0.610413
0.610378
0.610342
0.610306
0.61027
0.610233
0.610197
0.610159
0.610121
0.610083
0.610043
0.610004
0.609964
0.609924
0.609883
0.609841
0.609799
0.609756
0.609713
0.609669
0.609625
0.609579
0.609534
0.609487
0.60944
0.609392
0.609344
0.609294
0.609244
0.609193
0.609142
0.609089
0.609036
0.608982
0.608927
0.608871
0.608814
0.608756
0.608697
0.608637
0.608576
0.608514
0.60845
0.608386
0.60832
0.608253
0.608184
0.608114
0.608043
0.60797
0.607896
0.60782
0.607742
0.607663
0.607582
0.607499
0.607414
0.607327
0.607238
0.607147
0.607053
0.606957
0.606859
0.606758
0.606654
0.606548
0.606438
0.606325
0.606209
0.60609
0.605967
0.60584
0.60571
0.605575
0.605435
0.60529
0.605141
0.604985
0.604824
0.604655
0.60448
0.604297
0.604106
0.603905
0.603692
0.603466
0.603229
0.602977
0.602698
0.602378
0.602031
0.601695
0.601273
0.59461
0.447637
0.335872
0.286533
0.257793
0.236808
0.219291
0.203535
0.188736
0.174079
0.160003
0.146572
0.133811
0.121735
0.110359
0.0996937
0.0897425
0.0805018
0.0719603
0.0641017
0.0569012
0.0503303
0.0443571
0.038947
0.0340644
0.0296735
0.0257385
0.022225
0.0190996
0.0163307
0.0138882
0.0117437
0.00987061
0.00824381
0.00683961
0.00563566
0.00461089
0.00374543
0.0030204
0.00241769
0.00192003
0.00151177
0.00118
0.000914627
0.000707136
0.000548939
0.000430808
0.000343541
0.000279006
0.000230749
0.000194034
0.000165539
0.000142981
0.000124789
0.000109873
9.74587e-05
8.69942e-05
7.80684e-05
7.03036e-05
6.34375e-05
5.73304e-05
5.18688e-05
4.69588e-05
4.25237e-05
3.85e-05
3.48343e-05
3.14817e-05
2.84048e-05
2.55717e-05
2.29571e-05
2.05423e-05
1.831e-05
1.62471e-05
1.43457e-05
1.26003e-05
1.10059e-05
9.55669e-06
8.25011e-06
7.0821e-06
6.04459e-06
5.12957e-06
4.32961e-06
3.63438e-06
3.03507e-06
2.51997e-06
2.08288e-06
1.71022e-06
1.40013e-06
1.13379e-06
9.2006e-07
7.3882e-07
5.80763e-07
4.59702e-07
3.88581e-07
2.93371e-07
2.15303e-07
1.56131e-07
1.11092e-07
7.73639e-08
5.16952e-08
3.40875e-08
1.89136e-08
1.15534e-08
2.08664e-09
2.05777e-20
1.27559e-31
7.83633e-43
4.32262e-47
2.46108e-47
1.0263e-47
5.74016e-48
3.50159e-48
2.23422e-48
1.2347e-48
5.6171e-49
2.8651e-49
1.53858e-49
8.42677e-50
4.24525e-50
2.10638e-50
1.05851e-50
5.24636e-51
2.55839e-51
1.2268e-51
5.78069e-52
2.67561e-52
1.21589e-52
5.42171e-53
2.37068e-53
1.01582e-53
4.26247e-54
1.7502e-54
7.02676e-55
2.75614e-55
1.05523e-55
3.93986e-56
1.43308e-56
5.07291e-57
1.74559e-57
5.83169e-58
1.88905e-58
5.9248e-59
1.79647e-59
5.25724e-60
1.48219e-60
4.01792e-61
1.04497e-61
2.60123e-62
6.1812e-63
1.39801e-63
2.99956e-64
6.08272e-65
1.1609e-65
2.07513e-66
3.45468e-67
5.32139e-68
7.52491e-69
9.67688e-70
1.1186e-70
1.14536e-71
1.01912e-72
7.67793e-74
4.71852e-75
2.23172e-76
7.32241e-78
1.30959e-79
2.79419e-82
1.31905e-87
1.01152e-89
3.84391e-92
1.38417e-102
2.50158e-113
3.33114e-124
3.1743e-135
2.6316e-146
1.63256e-157
8.79107e-169
4.6626e-179
2.07869e-189
1.48419e-197
6.09146e-208
5.10486e-216
2.47532e-226
1.75676e-234
1.04921e-244
6.05147e-253
6.79378e-263
2.12653e-271
4.53307e-281
7.69282e-290
2.24983e-299
2.85324e-308
1.04339e-317
1.53654e-321
8.86848e-321
4.57737e-319
2.8055e-319
6.80328e-321
7.09478e-321
6.08689e-321
8.5424e-321
0
0
0
0
0
0
0
0
0
0
0
0
0
0
0
0
)
;

boundaryField
{
    inandouthalf11
    {
        type            cyclic;
    }
    inandouthalf12
    {
        type            cyclic;
    }
    inandouthalf21
    {
        type            cyclic;
    }
    inandouthalf22
    {
        type            cyclic;
    }
    inandouthalf31
    {
        type            cyclic;
    }
    inandouthalf32
    {
        type            cyclic;
    }
    inandouthalf41
    {
        type            cyclic;
    }
    inandouthalf42
    {
        type            cyclic;
    }
    top
    {
        type            symmetryPlane;
    }
    walls
    {
        type            zeroGradient;
    }
    frontAndBackPlanes
    {
        type            empty;
    }
}


// ************************************************************************* //
