/*--------------------------------*- C++ -*----------------------------------*\
| =========                 |                                                 |
| \\      /  F ield         | OpenFOAM: The Open Source CFD Toolbox           |
|  \\    /   O peration     | Version:  2.4.x                                 |
|   \\  /    A nd           | Web:      www.OpenFOAM.org                      |
|    \\/     M anipulation  |                                                 |
\*---------------------------------------------------------------------------*/
FoamFile
{
    version     2.0;
    format      ascii;
    class       volScalarField;
    location    "8.75";
    object      ddt0(alpha);
}
// * * * * * * * * * * * * * * * * * * * * * * * * * * * * * * * * * * * * * //

dimensions      [0 0 -1 0 0 0 0];

internalField   nonuniform List<scalar> 
360
(
3.00059e-05
4.5429e-05
4.28204e-05
4.19968e-05
4.38307e-05
4.53901e-05
4.62136e-05
4.68058e-05
4.74075e-05
4.80694e-05
4.87452e-05
4.93831e-05
4.99804e-05
5.05272e-05
5.1032e-05
5.14983e-05
5.19203e-05
5.22886e-05
5.25988e-05
5.28615e-05
5.30511e-05
5.31943e-05
5.32788e-05
5.33067e-05
5.32809e-05
5.32003e-05
5.3064e-05
5.28895e-05
5.26652e-05
5.23954e-05
5.20841e-05
5.17495e-05
5.13584e-05
5.09702e-05
5.05315e-05
5.00838e-05
4.96079e-05
4.9127e-05
4.86457e-05
4.81259e-05
4.76344e-05
4.71278e-05
4.66069e-05
4.61178e-05
4.56169e-05
4.51289e-05
4.4652e-05
4.41594e-05
4.36966e-05
4.32633e-05
4.28108e-05
4.23891e-05
4.19689e-05
4.15732e-05
4.11687e-05
4.08037e-05
4.04195e-05
4.00643e-05
3.97066e-05
3.93429e-05
3.90218e-05
3.86847e-05
3.83774e-05
3.80618e-05
3.77543e-05
3.74418e-05
3.7138e-05
3.68329e-05
3.65228e-05
3.62027e-05
3.59047e-05
3.56134e-05
3.52973e-05
3.50038e-05
3.4701e-05
3.44069e-05
3.40899e-05
3.37664e-05
3.34376e-05
3.31047e-05
3.27616e-05
3.24202e-05
3.20801e-05
3.17388e-05
3.13968e-05
3.1049e-05
3.06956e-05
3.03304e-05
2.9954e-05
2.95687e-05
2.91759e-05
2.87774e-05
2.83772e-05
2.79756e-05
2.75724e-05
2.71663e-05
2.67558e-05
2.63395e-05
2.59165e-05
2.54874e-05
2.50532e-05
2.46158e-05
2.41778e-05
2.37422e-05
2.33121e-05
2.28911e-05
2.24833e-05
2.20926e-05
2.17228e-05
2.13767e-05
2.10559e-05
2.07595e-05
2.04842e-05
2.02232e-05
1.99669e-05
1.97029e-05
1.94176e-05
1.90983e-05
1.87358e-05
1.8327e-05
1.78784e-05
1.74067e-05
1.69401e-05
1.65169e-05
1.61837e-05
1.59929e-05
1.60002e-05
1.62592e-05
1.68148e-05
1.76899e-05
1.88689e-05
2.02771e-05
2.17577e-05
2.30271e-05
2.35867e-05
2.26888e-05
1.96524e-05
1.44852e-05
8.19374e-06
2.47194e-06
-1.13496e-06
-2.79527e-06
-6.4376e-05
-0.0616304
-0.831526
-0.150568
0.00461309
-0.0389047
-0.0869988
-0.102396
-0.090478
-0.0646656
-0.0351441
-0.00715679
0.0166939
0.0354654
0.0492815
0.0588694
0.0651327
0.0689323
0.0709664
0.0716903
0.0714754
0.0705389
0.0690424
0.0671015
0.0648066
0.0622272
0.0594208
0.056433
0.0533024
0.0500615
0.0467392
0.0433624
0.0399578
0.0365529
0.033177
0.0298613
0.0266369
0.0235341
0.0205839
0.0178234
0.015294
0.0130188
0.010976
0.00910706
0.00736848
0.00577525
0.004387
0.0032558
0.00239019
0.00175754
0.00130663
0.000987358
0.000759817
0.000595353
0.000474394
0.000383817
0.000314798
0.000261367
0.000219376
0.000185631
0.000158028
0.0001353
0.000116481
0.000100815
8.7701e-05
7.66716e-05
6.73584e-05
5.94596e-05
5.2732e-05
4.69653e-05
4.19649e-05
3.75933e-05
3.37466e-05
3.03049e-05
2.71694e-05
2.42861e-05
2.16288e-05
1.91584e-05
1.68439e-05
1.47067e-05
1.276e-05
1.09874e-05
9.39202e-06
7.97353e-06
6.72973e-06
5.63839e-06
4.69941e-06
3.88513e-06
3.21159e-06
2.6235e-06
2.11174e-06
1.77453e-06
1.43117e-06
9.81366e-07
1.05709e-06
8.20717e-07
6.00251e-07
4.40203e-07
3.18642e-07
2.28102e-07
1.64106e-07
1.07828e-07
8.60974e-08
4.06791e-08
4.27356e-08
4.78564e-19
2.2093e-30
9.1441e-42
-8.06361e-46
-5.50039e-46
-1.89778e-46
-9.10842e-47
-4.72029e-47
-2.98243e-47
-2.33213e-47
-1.05352e-47
-4.87907e-48
-2.46284e-48
-1.32813e-48
-7.49062e-49
-3.55598e-49
-1.78283e-49
-8.84393e-50
-4.31681e-50
-2.0719e-50
-9.77193e-51
-4.5275e-51
-2.05955e-51
-9.19304e-52
-4.0239e-52
-1.72603e-52
-7.25031e-53
-2.98024e-53
-1.19782e-53
-4.70347e-54
-1.80281e-54
-6.7387e-55
-2.45396e-55
-8.69678e-56
-2.9961e-56
-1.00214e-56
-3.25015e-57
-1.02063e-57
-3.09854e-58
-9.07918e-59
-2.56303e-59
-6.95693e-60
-1.81175e-60
-4.51607e-61
-1.07462e-61
-2.4339e-62
-5.22964e-63
-1.06206e-63
-2.03e-64
-3.63422e-65
-6.05976e-66
-9.34919e-67
-1.32426e-67
-1.7059e-68
-1.97546e-69
-2.02648e-70
-1.80665e-71
-1.36394e-72
-8.40097e-74
-3.98323e-75
-1.31067e-76
-2.35298e-78
-5.09922e-81
-2.5878e-86
-1.99589e-88
-7.62826e-91
-2.74688e-101
-4.95396e-112
-6.56611e-123
-6.21093e-134
-5.10533e-145
-3.12393e-156
-1.65704e-167
-9.19779e-178
-4.08447e-188
-2.9452e-196
-1.19332e-206
-1.013e-214
-4.83938e-225
-3.48595e-233
-2.04869e-243
-1.20072e-251
-1.32576e-261
-4.21669e-270
-8.85267e-280
-1.52311e-288
-4.39244e-298
-5.63854e-307
-2.04898e-316
0
0
0
0
0
0
0
0
0
0
0
0
0
0
0
0
0
0
0
0
0
0
0
0
)
;

boundaryField
{
    inandouthalf11
    {
        type            cyclic;
    }
    inandouthalf12
    {
        type            cyclic;
    }
    inandouthalf21
    {
        type            cyclic;
    }
    inandouthalf22
    {
        type            cyclic;
    }
    inandouthalf31
    {
        type            cyclic;
    }
    inandouthalf32
    {
        type            cyclic;
    }
    inandouthalf41
    {
        type            cyclic;
    }
    inandouthalf42
    {
        type            cyclic;
    }
    top
    {
        type            symmetryPlane;
    }
    walls
    {
        type            calculated;
        value           uniform 3.00059e-05;
    }
    frontAndBackPlanes
    {
        type            empty;
    }
}


// ************************************************************************* //
