/*--------------------------------*- C++ -*----------------------------------*\
| =========                 |                                                 |
| \\      /  F ield         | OpenFOAM: The Open Source CFD Toolbox           |
|  \\    /   O peration     | Version:  2.4.x                                 |
|   \\  /    A nd           | Web:      www.OpenFOAM.org                      |
|    \\/     M anipulation  |                                                 |
\*---------------------------------------------------------------------------*/
FoamFile
{
    version     2.0;
    format      ascii;
    class       surfaceScalarField;
    location    "8.75";
    object      ddt0(phia);
}
// * * * * * * * * * * * * * * * * * * * * * * * * * * * * * * * * * * * * * //

dimensions      [0 3 -2 0 0 0 0];

internalField   nonuniform List<scalar> 
359
(
9.14793e-14
2.32041e-13
3.67021e-13
5.01294e-13
6.42159e-13
7.8786e-13
9.35126e-13
1.08229e-12
1.22859e-12
1.37359e-12
1.51684e-12
1.65778e-12
1.79596e-12
1.93094e-12
2.06236e-12
2.18995e-12
2.31344e-12
2.43258e-12
2.54717e-12
2.65705e-12
2.76204e-12
2.86207e-12
2.95708e-12
3.04706e-12
3.13203e-12
3.21207e-12
3.2873e-12
3.3579e-12
3.42407e-12
3.48606e-12
3.54414e-12
3.59866e-12
3.64992e-12
3.69834e-12
3.74425e-12
3.78808e-12
3.83021e-12
3.87103e-12
3.91094e-12
3.9503e-12
3.98948e-12
4.02882e-12
4.0686e-12
4.10915e-12
4.15071e-12
4.19351e-12
4.23776e-12
4.28359e-12
4.33117e-12
4.38064e-12
4.43205e-12
4.48548e-12
4.54095e-12
4.5985e-12
4.6581e-12
4.71975e-12
4.78337e-12
4.84893e-12
4.91635e-12
4.98553e-12
5.05645e-12
5.12898e-12
5.20307e-12
5.27859e-12
5.35545e-12
5.43351e-12
5.51267e-12
5.59282e-12
5.67382e-12
5.75555e-12
5.83796e-12
5.92095e-12
6.00439e-12
6.08822e-12
6.17234e-12
6.25667e-12
6.34106e-12
6.4254e-12
6.50959e-12
6.59354e-12
6.67715e-12
6.76034e-12
6.84307e-12
6.92525e-12
7.00684e-12
7.08773e-12
7.16784e-12
7.24707e-12
7.32531e-12
7.40246e-12
7.47844e-12
7.55317e-12
7.6266e-12
7.69867e-12
7.76934e-12
7.83856e-12
7.90629e-12
7.97246e-12
8.037e-12
8.09983e-12
8.16085e-12
8.21993e-12
8.27692e-12
8.33164e-12
8.38388e-12
8.43346e-12
8.48021e-12
8.52405e-12
8.56507e-12
8.60351e-12
8.63989e-12
8.67493e-12
8.70954e-12
8.7446e-12
8.78077e-12
8.81812e-12
8.85584e-12
8.89204e-12
8.92387e-12
8.94804e-12
8.96182e-12
8.96441e-12
8.95843e-12
8.95108e-12
8.95471e-12
8.98645e-12
9.06669e-12
9.21641e-12
9.45261e-12
9.78142e-12
1.01882e-11
1.06265e-11
1.10103e-11
1.12194e-11
1.11287e-11
1.06729e-11
9.92328e-12
9.09804e-12
8.44787e-12
8.09571e-12
7.98064e-12
7.95748e-12
7.99874e-12
3.93825e-09
-2.64237e-08
2.82211e-09
-2.33206e-09
-6.75537e-08
-1.49084e-07
-2.125e-07
-2.43502e-07
-2.44138e-07
-2.23698e-07
-1.9067e-07
-1.53303e-07
-1.18055e-07
-8.89203e-08
-6.73373e-08
-5.28151e-08
-4.38919e-08
-3.89347e-08
-3.65059e-08
-3.56219e-08
-3.56286e-08
-3.61419e-08
-3.69399e-08
-3.78931e-08
-3.89175e-08
-3.99555e-08
-4.09562e-08
-4.18798e-08
-4.2684e-08
-4.33278e-08
-4.37754e-08
-4.39789e-08
-4.38776e-08
-4.33841e-08
-4.23771e-08
-4.06987e-08
-3.81726e-08
-3.45962e-08
-2.96467e-08
-2.27333e-08
-1.30962e-08
-3.8624e-10
1.4648e-08
3.01316e-08
4.38896e-08
5.44388e-08
6.13813e-08
6.51439e-08
6.65008e-08
6.62247e-08
6.4933e-08
6.30627e-08
6.09008e-08
5.86255e-08
5.63429e-08
5.41125e-08
5.19664e-08
4.99188e-08
4.79369e-08
4.60257e-08
4.41875e-08
4.24238e-08
4.07352e-08
3.91224e-08
3.75862e-08
3.61287e-08
3.47526e-08
3.34614e-08
3.22596e-08
3.11494e-08
3.01327e-08
2.92127e-08
2.83897e-08
2.76603e-08
2.70192e-08
2.64619e-08
2.59818e-08
2.55668e-08
2.52078e-08
2.49e-08
2.46342e-08
2.44034e-08
2.42015e-08
2.40255e-08
2.38681e-08
2.37268e-08
2.35896e-08
2.34573e-08
2.33453e-08
2.31233e-08
2.29649e-08
2.30648e-08
2.13851e-08
1.02816e-08
1.40758e-08
1.84997e-08
2.1517e-08
2.10091e-08
2.77968e-08
1.32146e-08
3.70779e-08
4.80801e-09
2.00002e-07
7.60086e-07
2.01164e-07
2.96451e-09
-4.54062e-10
-2.13719e-10
-2.49611e-10
-2.69195e-10
-2.918e-10
-3.16187e-10
-3.42043e-10
-3.68786e-10
-3.95548e-10
-4.21509e-10
-4.50412e-10
-4.66369e-10
-4.50188e-10
-4.70337e-10
-4.86287e-10
-5.3024e-10
-4.90364e-10
-3.46262e-10
-3.36206e-10
-3.37064e-10
-3.37091e-10
-3.37095e-10
-3.37095e-10
-3.37095e-10
-3.37095e-10
-3.37095e-10
-3.37094e-10
-3.37095e-10
-3.37094e-10
-3.37095e-10
-3.37094e-10
-3.37095e-10
-3.37094e-10
-3.37095e-10
-3.37094e-10
-3.37095e-10
-3.37094e-10
-3.37095e-10
-3.37094e-10
-3.37095e-10
-3.37094e-10
-3.37095e-10
-3.37095e-10
-3.37095e-10
-3.37095e-10
-3.37096e-10
-3.37095e-10
-3.37096e-10
-3.37095e-10
-3.37096e-10
-3.37095e-10
-3.37096e-10
-3.37095e-10
-3.37096e-10
-3.37095e-10
-3.37096e-10
-3.37095e-10
-3.37096e-10
-3.37096e-10
-3.37096e-10
-3.37096e-10
-3.37096e-10
-3.37096e-10
-3.37096e-10
-3.37096e-10
-3.37096e-10
-3.37096e-10
-3.37097e-10
-3.37096e-10
-3.37097e-10
-3.37096e-10
-3.37097e-10
-3.37097e-10
-3.37097e-10
-3.37097e-10
-3.37097e-10
-3.37097e-10
-3.37098e-10
-3.37098e-10
-3.371e-10
-3.37102e-10
-3.37104e-10
-3.37105e-10
-3.37107e-10
-3.37108e-10
-3.3711e-10
-3.37111e-10
-3.37113e-10
-3.37114e-10
-3.37116e-10
-3.37116e-10
-3.37118e-10
-3.37118e-10
-3.37119e-10
-3.37119e-10
-3.37121e-10
-3.37122e-10
-3.37123e-10
-3.37124e-10
-3.37126e-10
-3.37127e-10
-3.37128e-10
-3.3713e-10
-3.37132e-10
-3.37135e-10
-3.37138e-10
-3.3715e-10
-3.37343e-10
-3.41528e-10
-5.29212e-10
)
;

boundaryField
{
    inandouthalf11
    {
        type            cyclic;
        value           nonuniform List<scalar> 
100
(
3.7704e-39
1.45511e-14
3.08234e-14
4.58315e-14
6.13395e-14
7.76176e-14
9.41752e-14
1.10714e-13
1.27135e-13
1.43383e-13
1.5941e-13
1.75162e-13
1.90583e-13
2.05621e-13
2.20232e-13
2.34379e-13
2.48029e-13
2.61152e-13
2.7372e-13
2.85709e-13
2.97099e-13
3.07873e-13
3.1802e-13
3.27535e-13
3.36414e-13
3.4466e-13
3.52282e-13
3.59292e-13
3.65709e-13
3.71555e-13
3.76856e-13
3.81644e-13
3.85951e-13
3.89815e-13
3.93274e-13
3.96369e-13
3.99142e-13
4.01634e-13
4.03886e-13
4.05941e-13
4.07835e-13
4.09608e-13
4.11294e-13
4.12926e-13
4.14534e-13
4.16145e-13
4.17783e-13
4.19468e-13
4.21218e-13
4.23049e-13
4.24974e-13
4.27e-13
4.29135e-13
4.31384e-13
4.33748e-13
4.36227e-13
4.38819e-13
4.41522e-13
4.4433e-13
4.47237e-13
4.50239e-13
4.53329e-13
4.565e-13
4.59747e-13
4.63059e-13
4.6643e-13
4.6985e-13
4.73312e-13
4.76809e-13
4.80333e-13
4.83879e-13
4.87444e-13
4.91025e-13
4.94617e-13
4.9822e-13
5.01832e-13
5.05452e-13
5.09077e-13
5.12709e-13
5.16348e-13
5.2e-13
5.23669e-13
5.27364e-13
5.31092e-13
5.34865e-13
5.38693e-13
5.42586e-13
5.46556e-13
5.50615e-13
5.54776e-13
5.59054e-13
5.63468e-13
5.68036e-13
5.7278e-13
5.77724e-13
5.82893e-13
5.88309e-13
5.93999e-13
5.99984e-13
6.06287e-13
)
;
    }
    inandouthalf12
    {
        type            cyclic;
        value           nonuniform List<scalar> 
100
(
-3.7704e-39
-1.45511e-14
-3.08234e-14
-4.58315e-14
-6.13395e-14
-7.76176e-14
-9.41752e-14
-1.10714e-13
-1.27135e-13
-1.43383e-13
-1.5941e-13
-1.75162e-13
-1.90583e-13
-2.05621e-13
-2.20232e-13
-2.34379e-13
-2.48029e-13
-2.61152e-13
-2.7372e-13
-2.85709e-13
-2.97099e-13
-3.07873e-13
-3.1802e-13
-3.27535e-13
-3.36414e-13
-3.4466e-13
-3.52282e-13
-3.59292e-13
-3.65709e-13
-3.71555e-13
-3.76856e-13
-3.81644e-13
-3.85951e-13
-3.89815e-13
-3.93274e-13
-3.96369e-13
-3.99142e-13
-4.01634e-13
-4.03886e-13
-4.05941e-13
-4.07835e-13
-4.09608e-13
-4.11294e-13
-4.12926e-13
-4.14534e-13
-4.16145e-13
-4.17783e-13
-4.19468e-13
-4.21218e-13
-4.23049e-13
-4.24974e-13
-4.27e-13
-4.29135e-13
-4.31384e-13
-4.33748e-13
-4.36227e-13
-4.38819e-13
-4.41522e-13
-4.4433e-13
-4.47237e-13
-4.50239e-13
-4.53329e-13
-4.565e-13
-4.59747e-13
-4.63059e-13
-4.6643e-13
-4.6985e-13
-4.73312e-13
-4.76809e-13
-4.80333e-13
-4.83879e-13
-4.87444e-13
-4.91025e-13
-4.94617e-13
-4.9822e-13
-5.01832e-13
-5.05452e-13
-5.09077e-13
-5.12709e-13
-5.16348e-13
-5.2e-13
-5.23669e-13
-5.27364e-13
-5.31092e-13
-5.34865e-13
-5.38693e-13
-5.42586e-13
-5.46556e-13
-5.50615e-13
-5.54776e-13
-5.59054e-13
-5.63468e-13
-5.68036e-13
-5.7278e-13
-5.77724e-13
-5.82893e-13
-5.88309e-13
-5.93999e-13
-5.99984e-13
-6.06287e-13
)
;
    }
    inandouthalf21
    {
        type            cyclic;
        value           nonuniform List<scalar> 
100
(
6.12926e-13
6.19916e-13
6.27265e-13
6.34978e-13
6.43053e-13
6.51484e-13
6.60264e-13
6.69389e-13
6.78869e-13
6.88729e-13
6.99025e-13
7.09839e-13
7.21279e-13
7.33464e-13
7.4649e-13
7.60387e-13
7.75065e-13
7.90268e-13
8.05555e-13
8.20335e-13
8.33977e-13
8.46002e-13
8.56323e-13
8.65495e-13
8.74914e-13
8.86891e-13
9.04578e-13
9.31685e-13
9.71923e-13
1.02803e-12
1.10014e-12
1.18346e-12
1.26566e-12
1.32523e-12
1.33307e-12
1.26155e-12
1.10297e-12
8.87869e-13
6.79985e-13
5.3947e-13
4.79546e-13
4.63804e-13
4.56295e-13
4.47047e-13
-8.65477e-07
-1.1897e-06
-9.23391e-07
-6.43664e-07
-4.40113e-07
-3.06984e-07
-2.22727e-07
-1.69587e-07
-1.35437e-07
-1.1332e-07
-9.88015e-08
-8.91247e-08
-8.2547e-08
-7.79495e-08
-7.4617e-08
-7.21114e-08
-7.01916e-08
-6.87426e-08
-6.77351e-08
-6.71958e-08
-6.71826e-08
-6.77746e-08
-6.90668e-08
-7.11676e-08
-7.41987e-08
-7.82953e-08
-8.36053e-08
-9.02875e-08
-9.85067e-08
-1.08427e-07
-1.20199e-07
-1.33949e-07
-1.49757e-07
-1.67636e-07
-1.87515e-07
-2.09213e-07
-2.32432e-07
-2.56747e-07
-2.81621e-07
-3.06423e-07
-3.30463e-07
-3.53065e-07
-3.73669e-07
-3.91945e-07
-4.07836e-07
-4.21514e-07
-4.3328e-07
-4.43463e-07
-4.52359e-07
-4.60208e-07
-4.67201e-07
-4.7348e-07
-4.79157e-07
-4.84317e-07
-4.8903e-07
-4.93348e-07
)
;
    }
    inandouthalf22
    {
        type            cyclic;
        value           nonuniform List<scalar> 
100
(
-6.12926e-13
-6.19916e-13
-6.27265e-13
-6.34978e-13
-6.43053e-13
-6.51484e-13
-6.60264e-13
-6.69389e-13
-6.78869e-13
-6.88729e-13
-6.99025e-13
-7.09839e-13
-7.21279e-13
-7.33464e-13
-7.4649e-13
-7.60387e-13
-7.75065e-13
-7.90268e-13
-8.05555e-13
-8.20335e-13
-8.33977e-13
-8.46002e-13
-8.56323e-13
-8.65495e-13
-8.74914e-13
-8.86891e-13
-9.04578e-13
-9.31685e-13
-9.71923e-13
-1.02803e-12
-1.10014e-12
-1.18346e-12
-1.26566e-12
-1.32523e-12
-1.33307e-12
-1.26155e-12
-1.10297e-12
-8.87869e-13
-6.79985e-13
-5.3947e-13
-4.79546e-13
-4.63804e-13
-4.56295e-13
-4.47047e-13
8.65477e-07
1.1897e-06
9.23391e-07
6.43664e-07
4.40113e-07
3.06984e-07
2.22727e-07
1.69587e-07
1.35437e-07
1.1332e-07
9.88015e-08
8.91247e-08
8.2547e-08
7.79495e-08
7.4617e-08
7.21114e-08
7.01916e-08
6.87426e-08
6.77351e-08
6.71958e-08
6.71826e-08
6.77746e-08
6.90668e-08
7.11676e-08
7.41987e-08
7.82953e-08
8.36053e-08
9.02875e-08
9.85067e-08
1.08427e-07
1.20199e-07
1.33949e-07
1.49757e-07
1.67636e-07
1.87515e-07
2.09213e-07
2.32432e-07
2.56747e-07
2.81621e-07
3.06423e-07
3.30463e-07
3.53065e-07
3.73669e-07
3.91945e-07
4.07836e-07
4.21514e-07
4.3328e-07
4.43463e-07
4.52359e-07
4.60208e-07
4.67201e-07
4.7348e-07
4.79157e-07
4.84317e-07
4.8903e-07
4.93348e-07
)
;
    }
    inandouthalf31
    {
        type            cyclic;
        value           nonuniform List<scalar> 
110
(
-4.97316e-07
-5.11174e-07
-5.25161e-07
-5.39287e-07
-5.53566e-07
-5.68007e-07
-5.82618e-07
-5.97409e-07
-6.12386e-07
-6.27556e-07
-6.42927e-07
-6.58503e-07
-6.74293e-07
-6.90302e-07
-7.06538e-07
-7.23008e-07
-7.3972e-07
-7.56684e-07
-7.73909e-07
-7.91407e-07
-8.09188e-07
-8.27264e-07
-8.45646e-07
-8.64346e-07
-8.83373e-07
-9.02739e-07
-9.22451e-07
-9.42516e-07
-9.62939e-07
-9.83722e-07
-1.00486e-06
-1.02636e-06
-1.04819e-06
-1.07035e-06
-1.09281e-06
-1.1155e-06
-1.13857e-06
-1.22469e-06
-1.25709e-06
-1.28551e-06
-1.31397e-06
-1.34335e-06
-1.37392e-06
-1.39977e-06
-1.4378e-06
-1.45628e-06
-1.49454e-06
-1.51187e-06
-1.55789e-06
-1.58483e-06
-1.61815e-06
-1.6509e-06
-1.68392e-06
-1.71704e-06
-1.75018e-06
-1.78326e-06
-1.81618e-06
-1.84886e-06
-1.88124e-06
-1.9133e-06
-1.9455e-06
-1.97636e-06
-2.00791e-06
-2.04177e-06
-2.07585e-06
-2.11691e-06
-2.16223e-06
-2.20655e-06
-2.25135e-06
-2.29705e-06
-2.34367e-06
-2.39124e-06
-2.43978e-06
-2.4893e-06
-2.53982e-06
-2.59138e-06
-2.64397e-06
-2.69764e-06
-2.75239e-06
-2.80826e-06
-2.86526e-06
-2.92342e-06
-2.98276e-06
-3.0433e-06
-3.10507e-06
-3.16809e-06
-3.2324e-06
-3.29801e-06
-3.36495e-06
-3.43325e-06
-3.50293e-06
-3.57403e-06
-3.64658e-06
-3.72059e-06
-3.79611e-06
-3.87316e-06
-3.95177e-06
-4.03199e-06
-4.11382e-06
-4.19732e-06
-4.28252e-06
-4.36944e-06
-4.45813e-06
-4.54862e-06
-4.64094e-06
-4.73514e-06
-4.83125e-06
-4.92931e-06
-5.02937e-06
-5.13145e-06
)
;
    }
    inandouthalf32
    {
        type            cyclic;
        value           nonuniform List<scalar> 
110
(
4.97316e-07
5.11174e-07
5.25161e-07
5.39287e-07
5.53566e-07
5.68007e-07
5.82618e-07
5.97409e-07
6.12386e-07
6.27556e-07
6.42927e-07
6.58503e-07
6.74293e-07
6.90302e-07
7.06538e-07
7.23008e-07
7.3972e-07
7.56684e-07
7.73909e-07
7.91407e-07
8.09188e-07
8.27264e-07
8.45646e-07
8.64346e-07
8.83373e-07
9.02739e-07
9.22451e-07
9.42516e-07
9.62939e-07
9.83722e-07
1.00486e-06
1.02636e-06
1.04819e-06
1.07035e-06
1.09281e-06
1.1155e-06
1.13857e-06
1.22469e-06
1.25709e-06
1.28551e-06
1.31397e-06
1.34335e-06
1.37392e-06
1.39977e-06
1.4378e-06
1.45628e-06
1.49454e-06
1.51187e-06
1.55789e-06
1.58483e-06
1.61815e-06
1.6509e-06
1.68392e-06
1.71704e-06
1.75018e-06
1.78326e-06
1.81618e-06
1.84886e-06
1.88124e-06
1.9133e-06
1.9455e-06
1.97636e-06
2.00791e-06
2.04177e-06
2.07585e-06
2.11691e-06
2.16223e-06
2.20655e-06
2.25135e-06
2.29705e-06
2.34367e-06
2.39124e-06
2.43978e-06
2.4893e-06
2.53982e-06
2.59138e-06
2.64397e-06
2.69764e-06
2.75239e-06
2.80826e-06
2.86526e-06
2.92342e-06
2.98276e-06
3.0433e-06
3.10507e-06
3.16809e-06
3.2324e-06
3.29801e-06
3.36495e-06
3.43325e-06
3.50293e-06
3.57403e-06
3.64658e-06
3.72059e-06
3.79611e-06
3.87316e-06
3.95177e-06
4.03199e-06
4.11382e-06
4.19732e-06
4.28252e-06
4.36944e-06
4.45813e-06
4.54862e-06
4.64094e-06
4.73514e-06
4.83125e-06
4.92931e-06
5.02937e-06
5.13145e-06
)
;
    }
    inandouthalf41
    {
        type            cyclic;
        value           nonuniform List<scalar> 
50
(
-4.59317e-06
-4.59317e-06
-4.59317e-06
-4.59317e-06
-4.59317e-06
-4.59317e-06
-4.59317e-06
-4.59317e-06
-4.59317e-06
-4.59317e-06
-4.59317e-06
-4.59317e-06
-4.59317e-06
-4.59317e-06
-4.59317e-06
-4.59317e-06
-4.59317e-06
-4.59317e-06
-4.59317e-06
-4.59317e-06
-4.59317e-06
-4.59317e-06
-4.59317e-06
-4.59317e-06
-4.59317e-06
-4.59317e-06
-4.59317e-06
-4.59317e-06
-4.59317e-06
-4.59317e-06
-4.59317e-06
-4.59317e-06
-4.59317e-06
-4.59317e-06
-4.59317e-06
-4.59317e-06
-4.59317e-06
-4.59317e-06
-4.59317e-06
-4.59317e-06
-4.59317e-06
-4.59317e-06
-4.59317e-06
-4.59317e-06
-4.59317e-06
-4.59317e-06
-4.59317e-06
-4.59318e-06
-4.59352e-06
-4.60124e-06
)
;
    }
    inandouthalf42
    {
        type            cyclic;
        value           nonuniform List<scalar> 
50
(
4.59317e-06
4.59317e-06
4.59317e-06
4.59317e-06
4.59317e-06
4.59317e-06
4.59317e-06
4.59317e-06
4.59317e-06
4.59317e-06
4.59317e-06
4.59317e-06
4.59317e-06
4.59317e-06
4.59317e-06
4.59317e-06
4.59317e-06
4.59317e-06
4.59317e-06
4.59317e-06
4.59317e-06
4.59317e-06
4.59317e-06
4.59317e-06
4.59317e-06
4.59317e-06
4.59317e-06
4.59317e-06
4.59317e-06
4.59317e-06
4.59317e-06
4.59317e-06
4.59317e-06
4.59317e-06
4.59317e-06
4.59317e-06
4.59317e-06
4.59317e-06
4.59317e-06
4.59317e-06
4.59317e-06
4.59317e-06
4.59317e-06
4.59317e-06
4.59317e-06
4.59317e-06
4.59317e-06
4.59318e-06
4.59352e-06
4.60124e-06
)
;
    }
    top
    {
        type            symmetryPlane;
        value           uniform 0;
    }
    walls
    {
        type            calculated;
        value           uniform 0;
    }
    frontAndBackPlanes
    {
        type            empty;
        value           nonuniform 0();
    }
}


// ************************************************************************* //
