/*--------------------------------*- C++ -*----------------------------------*\
| =========                 |                                                 |
| \\      /  F ield         | OpenFOAM: The Open Source CFD Toolbox           |
|  \\    /   O peration     | Version:  2.4.x                                 |
|   \\  /    A nd           | Web:      www.OpenFOAM.org                      |
|    \\/     M anipulation  |                                                 |
\*---------------------------------------------------------------------------*/
FoamFile
{
    version     2.0;
    format      ascii;
    class       volScalarField;
    location    "8.75";
    object      epsilon_0;
}
// * * * * * * * * * * * * * * * * * * * * * * * * * * * * * * * * * * * * * //

dimensions      [0 2 -3 0 0 0 0];

internalField   nonuniform List<scalar> 
360
(
1.60309e-27
1e-20
1e-20
1e-20
1e-20
1e-20
1e-20
1e-20
1e-20
1e-20
1e-20
1e-20
1e-20
1e-20
1e-20
1e-20
1e-20
1e-20
1e-20
1e-20
1e-20
1e-20
1e-20
1e-20
1e-20
1e-20
1e-20
1e-20
1e-20
1e-20
1e-20
1e-20
1e-20
1e-20
1e-20
1e-20
1e-20
1e-20
1e-20
1e-20
1e-20
1e-20
1e-20
1e-20
1e-20
1e-20
1e-20
1e-20
1e-20
1e-20
1e-20
1e-20
1e-20
1e-20
1e-20
1e-20
1e-20
1e-20
1e-20
1e-20
1e-20
1e-20
1e-20
1e-20
1e-20
1e-20
1e-20
1e-20
1e-20
1e-20
1e-20
1e-20
1e-20
1e-20
1e-20
1e-20
1e-20
1e-20
1e-20
1e-20
1e-20
1e-20
1e-20
1e-20
1e-20
1e-20
1e-20
1e-20
1e-20
1e-20
1e-20
1e-20
1e-20
1e-20
1e-20
1e-20
1e-20
1e-20
1e-20
1e-20
1e-20
1e-20
1e-20
1e-20
1e-20
1e-20
1e-20
1e-20
1e-20
1e-20
1e-20
1e-20
1e-20
1e-20
1e-20
1e-20
1e-20
1e-20
1e-20
1e-20
1e-20
1e-20
1e-20
1e-20
1e-20
1e-20
1e-20
1e-20
1e-20
1e-20
1.75002e-20
1.53882e-19
2.11314e-18
3.13154e-17
4.9799e-16
8.61502e-15
1.64292e-13
3.4941e-12
8.37968e-11
2.29276e-09
7.23926e-08
2.66363e-06
0.000114119
0.00457933
0.0751785
0.285967
0.420442
0.480364
0.498533
0.494334
0.478506
0.456962
0.432952
0.408255
0.383797
0.360051
0.337249
0.315483
0.294773
0.2751
0.256427
0.238707
0.221892
0.205935
0.190789
0.176414
0.162773
0.149832
0.137562
0.125935
0.11493
0.104526
0.0947066
0.0854577
0.0767672
0.0686255
0.0610246
0.0539587
0.0474227
0.0414128
0.0359251
0.0309548
0.0264956
0.0225374
0.0190659
0.0160607
0.0134947
0.0113336
0.00953744
0.00806211
0.00686195
0.00589252
0.00511279
0.00448661
0.00398334
0.00357775
0.00324953
0.00298259
0.00276431
0.0025848
0.00243636
0.00231171
0.00220584
0.00211583
0.00203923
0.00197401
0.00191845
0.00187112
0.0018308
0.00179645
0.00176717
0.00174218
0.00172082
0.00170247
0.0016866
0.00167275
0.00166046
0.00164936
0.00163907
0.00162927
0.00161964
0.00160989
0.00159975
0.00158897
0.0015773
0.00156452
0.00155042
0.00153479
0.00151746
0.00149826
0.00147701
0.00145359
0.00142787
0.00139972
0.00136907
0.00133583
0.00129995
0.00126141
0.00122018
0.0011763
0.0011298
0.00108077
0.00102932
0.000975597
0.000919787
0.000862119
0.000802868
0.000742354
0.000680949
0.000619072
0.000557197
0.000495846
0.000435591
0.000377043
0.000320848
0.00026767
0.00021817
0.000172979
0.000132664
9.76788e-05
6.8319e-05
4.46717e-05
2.65815e-05
1.36481e-05
5.29079e-06
1.01244e-06
5.13508e-08
8.67975e-10
1.26164e-11
1.83121e-13
2.66737e-15
3.89628e-17
5.75213e-19
1.61969e-20
1e-20
1e-20
1e-20
1e-20
1e-20
1e-20
1e-20
1e-20
1e-20
1e-20
1e-20
1e-20
1e-20
1e-20
1e-20
1e-20
1e-20
1e-20
1e-20
1e-20
1e-20
1e-20
1e-20
1e-20
1e-20
1e-20
1e-20
1e-20
1e-20
1e-20
1e-20
1e-20
1e-20
1e-20
1e-20
1e-20
1e-20
1e-20
1e-20
1e-20
1e-20
1e-20
1e-20
1e-20
1e-20
1e-20
1e-20
1e-20
1e-20
1e-20
1e-20
1e-20
1e-20
1e-20
1e-20
1e-20
1e-20
1e-20
1e-20
1e-20
1e-20
1e-20
1e-20
1e-20
1e-20
1e-20
1e-20
1e-20
1e-20
1e-20
1e-20
1e-20
1e-20
1e-20
1e-20
1e-20
1e-20
1e-20
1e-20
1e-20
1e-20
1e-20
1e-20
1e-20
1e-20
1e-20
)
;

boundaryField
{
    inandouthalf11
    {
        type            cyclic;
    }
    inandouthalf12
    {
        type            cyclic;
    }
    inandouthalf21
    {
        type            cyclic;
    }
    inandouthalf22
    {
        type            cyclic;
    }
    inandouthalf31
    {
        type            cyclic;
    }
    inandouthalf32
    {
        type            cyclic;
    }
    inandouthalf41
    {
        type            cyclic;
    }
    inandouthalf42
    {
        type            cyclic;
    }
    top
    {
        type            symmetryPlane;
    }
    walls
    {
        type            zeroGradient;
    }
    frontAndBackPlanes
    {
        type            empty;
    }
}


// ************************************************************************* //
