/*--------------------------------*- C++ -*----------------------------------*\
| =========                 |                                                 |
| \\      /  F ield         | OpenFOAM: The Open Source CFD Toolbox           |
|  \\    /   O peration     | Version:  2.4.x                                 |
|   \\  /    A nd           | Web:      www.OpenFOAM.org                      |
|    \\/     M anipulation  |                                                 |
\*---------------------------------------------------------------------------*/
FoamFile
{
    version     2.0;
    format      ascii;
    class       volVectorField;
    location    "8.75";
    object      gradPf;
}
// * * * * * * * * * * * * * * * * * * * * * * * * * * * * * * * * * * * * * //

dimensions      [0 1 -2 0 0 0 0];

internalField   nonuniform List<vector> 
360
(
(0 70.2233 0)
(0 78.9981 0)
(0 0.488644 0)
(0 -12.4006 0)
(-3.34431e-14 -5.31777 0)
(-3.34439e-14 -2.88116 0)
(-3.34448e-14 -3.59918 0)
(0 -4.08578 0)
(-3.34473e-14 -4.14782 0)
(0 -4.17244 0)
(-3.34498e-14 -4.16677 0)
(0 -4.15716 0)
(-3.34524e-14 -4.16426 0)
(0 -4.17153 0)
(0 -4.18987 0)
(0 -4.20775 0)
(0 -4.21412 0)
(-3.3459e-14 -4.21532 0)
(0 -4.23321 0)
(0 -4.23454 0)
(0 -4.23644 0)
(-3.34646e-14 -4.25414 0)
(0 -4.25602 0)
(0 -4.26328 0)
(0 -4.27073 0)
(-3.34704e-14 -4.26864 0)
(0 -4.27942 0)
(0 -4.29128 0)
(0 -4.28746 0)
(0 -4.28901 0)
(0 -4.30684 0)
(0 -4.29582 0)
(0 -4.30756 0)
(0 -4.31996 0)
(0 -4.31086 0)
(1.67429e-14 -4.31648 0)
(0 -4.31889 0)
(0 -4.34309 0)
(0 -4.32052 0)
(0 -4.32971 0)
(0 -4.35787 0)
(0 -4.327 0)
(3.34977e-14 -4.34632 0)
(0 -4.35975 0)
(0 -4.35023 0)
(0 -4.37247 0)
(0 -4.35391 0)
(0 -4.35058 0)
(0 -4.39452 0)
(0 -4.37821 0)
(3.35123e-14 -4.37007 0)
(0 -4.38953 0)
(0 -4.3947 0)
(0 -4.3885 0)
(0 -4.40374 0)
(0 -4.40684 0)
(0 -4.40535 0)
(0 -4.42444 0)
(0 -4.40087 0)
(0 -4.42564 0)
(0 -4.43348 0)
(0 -4.42978 0)
(0 -4.44494 0)
(0 -4.44106 0)
(0 -4.44371 0)
(0 -4.44976 0)
(0 -4.46339 0)
(0 -4.46301 0)
(0 -4.45011 0)
(0 -4.4656 0)
(0 -4.49362 0)
(0 -4.47143 0)
(0 -4.47388 0)
(0 -4.49308 0)
(0 -4.49876 0)
(0 -4.49922 0)
(0 -4.49152 0)
(0 -4.50252 0)
(0 -4.51035 0)
(0 -4.50855 0)
(0 -4.51081 0)
(0 -4.52054 0)
(0 -4.52415 0)
(0 -4.52786 0)
(0 -4.53167 0)
(0 -4.53578 0)
(0 -4.53842 0)
(0 -4.53849 0)
(0 -4.5417 0)
(0 -4.54514 0)
(0 -4.54722 0)
(0 -4.55093 0)
(0 -4.55546 0)
(0 -4.55872 0)
(0 -4.56164 0)
(0 -4.56421 0)
(0 -4.56612 0)
(0 -4.5676 0)
(0 -4.56911 0)
(0 -4.57059 0)
(0 -4.57195 0)
(0 -4.57336 0)
(0 -4.57461 0)
(0 -4.57544 0)
(0 -4.57584 0)
(0 -4.57577 0)
(0 -4.57515 0)
(0 -4.57397 0)
(0 -4.5722 0)
(0 -4.56973 0)
(0 -4.5665 0)
(0 -4.56241 0)
(0 -4.5574 0)
(0 -4.5514 0)
(0 -4.54439 0)
(0 -4.53634 0)
(0 -4.52727 0)
(0 -4.51724 0)
(0 -4.50632 0)
(0 -4.49461 0)
(0 -4.48213 0)
(0 -4.46885 0)
(0 -4.45467 0)
(0 -4.43956 0)
(0 -4.42384 0)
(0 -4.40841 0)
(0 -4.39462 0)
(0 -4.38328 0)
(0 -4.37307 0)
(0 -4.35974 0)
(0 -4.3394 0)
(0 -4.31707 0)
(0 -4.30946 0)
(0 -4.32441 0)
(0 -4.33506 0)
(0 -4.30984 0)
(0 -4.28303 0)
(0 -4.35827 0)
(0 -4.57809 0)
(0 -4.71443 0)
(0 -4.44541 0)
(0 -4.47955 0)
(0 -20.0294 0)
(0 -22.2375 0)
(0 -5.84526 0)
(0 0 0)
(0 0 0)
(0 0 0)
(0 0 0)
(0 0 0)
(0 0 0)
(0 0 0)
(0 0 0)
(0 0 0)
(0 0 0)
(0 0 0)
(0 0 0)
(0 0 0)
(0 0 0)
(0 0 0)
(0 0 0)
(0 0 0)
(0 0 0)
(0 0 0)
(0 0 0)
(0 0 0)
(0 0 0)
(0 0 0)
(0 0 0)
(0 0 0)
(0 0 0)
(0 0 0)
(0 0 0)
(0 0 0)
(0 0 0)
(0 0 0)
(0 0 0)
(0 0 0)
(0 0 0)
(0 0 0)
(0 0 0)
(0 0 0)
(0 0 0)
(0 0 0)
(0 0 0)
(0 0 0)
(0 0 0)
(0 0 0)
(0 0 0)
(0 0 0)
(0 0 0)
(0 0 0)
(0 0 0)
(0 0 0)
(0 0 0)
(0 0 0)
(0 0 0)
(0 0 0)
(0 0 0)
(0 0 0)
(0 0 0)
(0 0 0)
(0 0 0)
(0 0 0)
(0 0 0)
(0 0 0)
(0 0 0)
(0 0 0)
(0 0 0)
(0 0 0)
(0 0 0)
(0 0 0)
(0 0 0)
(0 0 0)
(0 0 0)
(0 0 0)
(0 0 0)
(0 0 0)
(0 0 0)
(0 0 0)
(0 0 0)
(0 0 0)
(0 0 0)
(0 0 0)
(0 0 0)
(0 0 0)
(0 0 0)
(0 0 0)
(0 0 0)
(0 0 0)
(0 0 0)
(0 0 0)
(0 0 0)
(0 0 0)
(0 0 0)
(0 0 0)
(0 0 0)
(0 0 0)
(0 0 0)
(0 0 0)
(0 0 0)
(0 0 0)
(0 0 0)
(0 0 0)
(0 0 0)
(0 0 0)
(0 0 0)
(0 0 0)
(0 0 0)
(0 0 0)
(0 0 0)
(0 0 0)
(0 0 0)
(0 0 0)
(0 0 0)
(0 0 0)
(0 0 0)
(0 0 0)
(0 0 0)
(0 0 0)
(0 0 0)
(0 0 0)
(0 0 0)
(0 0 0)
(0 0 0)
(0 0 0)
(0 0 0)
(0 0 0)
(0 0 0)
(0 0 0)
(0 0 0)
(0 0 0)
(0 0 0)
(0 0 0)
(0 0 0)
(0 0 0)
(0 0 0)
(0 0 0)
(0 0 0)
(0 0 0)
(0 0 0)
(0 0 0)
(0 0 0)
(0 0 0)
(0 0 0)
(0 0 0)
(0 0 0)
(0 0 0)
(0 0 0)
(0 0 0)
(0 0 0)
(0 0 0)
(0 0 0)
(0 0 0)
(0 0 0)
(0 0 0)
(0 0 0)
(0 0 0)
(0 0 0)
(0 0 0)
(0 0 0)
(0 0 0)
(0 0 0)
(0 0 0)
(0 0 0)
(0 0 0)
(0 0 0)
(0 0 0)
(0 0 0)
(0 0 0)
(0 0 0)
(0 0 0)
(0 0 0)
(0 0 0)
(0 0 0)
(0 0 0)
(0 0 0)
(0 0 0)
(0 0 0)
(0 0 0)
(0 0 0)
(0 0 0)
(0 0 0)
(0 0 0)
(0 0 0)
(0 0 0)
(0 0 0)
(0 0 0)
(0 0 0)
(0 0 0)
(0 0 0)
(0 0 0)
(0 0 0)
(0 0 0)
(0 0 0)
(0 0 0)
(0 0 0)
(0 0 0)
(0 0 0)
(0 0 0)
(0 0 0)
(0 0 0)
(0 0 0)
(0 0 0)
(0 0 0)
(0 0 0)
(0 0 0)
(0 0 0)
(0 0 0)
(0 0 0)
(0 0 0)
(0 0 0)
(0 0 0)
(0 0 0)
(0 0 0)
(0 0 0)
(0 0 0)
(0 0 0)
(0 0 0)
(0 0 0)
)
;

boundaryField
{
    inandouthalf11
    {
        type            cyclic;
    }
    inandouthalf12
    {
        type            cyclic;
    }
    inandouthalf21
    {
        type            cyclic;
    }
    inandouthalf22
    {
        type            cyclic;
    }
    inandouthalf31
    {
        type            cyclic;
    }
    inandouthalf32
    {
        type            cyclic;
    }
    inandouthalf41
    {
        type            cyclic;
    }
    inandouthalf42
    {
        type            cyclic;
    }
    top
    {
        type            symmetryPlane;
    }
    walls
    {
        type            calculated;
        value           uniform (0 0 0);
    }
    frontAndBackPlanes
    {
        type            empty;
    }
}


// ************************************************************************* //
