/*--------------------------------*- C++ -*----------------------------------*\
| =========                 |                                                 |
| \\      /  F ield         | OpenFOAM: The Open Source CFD Toolbox           |
|  \\    /   O peration     | Version:  2.4.x                                 |
|   \\  /    A nd           | Web:      www.OpenFOAM.org                      |
|    \\/     M anipulation  |                                                 |
\*---------------------------------------------------------------------------*/
FoamFile
{
    version     2.0;
    format      ascii;
    class       volScalarField;
    location    "8.75";
    object      k_0;
}
// * * * * * * * * * * * * * * * * * * * * * * * * * * * * * * * * * * * * * //

dimensions      [0 2 -2 0 0 0 0];

internalField   nonuniform List<scalar> 
360
(
1e-20
1e-20
1e-20
1e-20
1e-20
1e-20
1e-20
1e-20
1e-20
1e-20
1e-20
1e-20
1e-20
1e-20
1e-20
1e-20
1e-20
1e-20
1e-20
1e-20
1e-20
1e-20
1e-20
1e-20
1e-20
1e-20
1e-20
1e-20
1e-20
1e-20
1e-20
1e-20
1e-20
1e-20
1e-20
1e-20
1e-20
1e-20
1e-20
1e-20
1e-20
1e-20
1e-20
1e-20
1e-20
1e-20
1e-20
1e-20
1e-20
1e-20
1e-20
1e-20
1e-20
1e-20
1e-20
1e-20
1e-20
1e-20
1e-20
1e-20
1e-20
1e-20
1e-20
1e-20
1e-20
1e-20
1e-20
1e-20
1e-20
1e-20
1e-20
1e-20
1e-20
1e-20
1e-20
1e-20
1e-20
1e-20
1e-20
1e-20
1e-20
1e-20
1e-20
1e-20
1e-20
1e-20
1e-20
1e-20
1e-20
1e-20
1e-20
1e-20
1e-20
1e-20
1e-20
1e-20
1e-20
1e-20
1e-20
1e-20
1e-20
1e-20
1e-20
1e-20
1e-20
1e-20
1e-20
1e-20
1e-20
1e-20
1e-20
1e-20
1e-20
1e-20
1e-20
1e-20
1e-20
1e-20
1e-20
1e-20
1e-20
1e-20
1e-20
1e-20
1e-20
1e-20
1e-20
1e-20
1e-20
1e-20
1.02181e-20
5.60374e-20
6.74296e-19
8.77749e-18
1.21296e-16
1.80481e-15
2.93257e-14
5.26491e-13
1.05582e-11
2.39431e-10
6.22087e-09
1.87082e-07
6.47393e-06
0.000197035
0.00240884
0.00782291
0.0120008
0.0147827
0.0166256
0.0178381
0.0186185
0.0190944
0.0193523
0.0194509
0.0194274
0.0193071
0.0191079
0.0188435
0.0185238
0.0181568
0.0177487
0.0173048
0.0168294
0.0163264
0.0157989
0.0152502
0.014683
0.0141
0.0135039
0.0128972
0.0122825
0.0116623
0.0110392
0.010416
0.00979523
0.00917992
0.00857301
0.00797764
0.00739713
0.00683493
0.00629468
0.00578006
0.00529478
0.00484237
0.00442604
0.00404834
0.00371094
0.00341439
0.00315795
0.00293966
0.00275653
0.00260486
0.00248063
0.00237978
0.00229854
0.0022335
0.00218176
0.00214084
0.00210872
0.00208375
0.00206457
0.00204997
0.00203909
0.00203138
0.00202635
0.00202358
0.0020227
0.00202339
0.00202535
0.00202834
0.00203209
0.00203641
0.00204109
0.00204592
0.00205073
0.00205535
0.00205959
0.0020633
0.00206631
0.00206845
0.00206958
0.00206952
0.00206814
0.00206526
0.00206073
0.00205441
0.00204615
0.0020358
0.0020232
0.00200823
0.00199074
0.0019706
0.00194769
0.00192188
0.00189306
0.00186112
0.00182597
0.00178752
0.00174571
0.00170048
0.0016518
0.00159965
0.00154403
0.00148498
0.00142255
0.00135686
0.00128803
0.00121624
0.00114173
0.00106477
0.000985724
0.000904997
0.000823084
0.000740561
0.000658089
0.000576421
0.000496399
0.000418949
0.00034506
0.000275763
0.000212078
0.00015496
0.000105231
6.35445e-05
3.05028e-05
7.68625e-06
4.85209e-07
8.6277e-09
1.26388e-10
1.84123e-12
2.68246e-14
3.90531e-16
5.66596e-18
8.74405e-20
1.00857e-20
1e-20
1e-20
1e-20
1e-20
1e-20
1e-20
1e-20
1e-20
1e-20
1e-20
1e-20
1e-20
1e-20
1e-20
1e-20
1e-20
1e-20
1e-20
1e-20
1e-20
1e-20
1e-20
1e-20
1e-20
1e-20
1e-20
1e-20
1e-20
1e-20
1e-20
1e-20
1e-20
1e-20
1e-20
1e-20
1e-20
1e-20
1e-20
1e-20
1e-20
1e-20
1e-20
1e-20
1e-20
1e-20
1e-20
1e-20
1e-20
1e-20
1e-20
1e-20
1e-20
1e-20
1e-20
1e-20
1e-20
1e-20
1e-20
1e-20
1e-20
1e-20
1e-20
1e-20
1e-20
1e-20
1e-20
1e-20
1e-20
1e-20
1e-20
1e-20
1e-20
1e-20
1e-20
1e-20
1e-20
1e-20
1e-20
1e-20
1e-20
1e-20
1e-20
1e-20
1e-20
1e-20
)
;

boundaryField
{
    inandouthalf11
    {
        type            cyclic;
    }
    inandouthalf12
    {
        type            cyclic;
    }
    inandouthalf21
    {
        type            cyclic;
    }
    inandouthalf22
    {
        type            cyclic;
    }
    inandouthalf31
    {
        type            cyclic;
    }
    inandouthalf32
    {
        type            cyclic;
    }
    inandouthalf41
    {
        type            cyclic;
    }
    inandouthalf42
    {
        type            cyclic;
    }
    top
    {
        type            symmetryPlane;
    }
    walls
    {
        type            zeroGradient;
    }
    frontAndBackPlanes
    {
        type            empty;
    }
}


// ************************************************************************* //
