/*--------------------------------*- C++ -*----------------------------------*\
| =========                 |                                                 |
| \\      /  F ield         | OpenFOAM: The Open Source CFD Toolbox           |
|  \\    /   O peration     | Version:  2.4.x                                 |
|   \\  /    A nd           | Web:      www.OpenFOAM.org                      |
|    \\/     M anipulation  |                                                 |
\*---------------------------------------------------------------------------*/
FoamFile
{
    version     2.0;
    format      ascii;
    class       volScalarField;
    location    "8.75";
    object      mua;
}
// * * * * * * * * * * * * * * * * * * * * * * * * * * * * * * * * * * * * * //

dimensions      [1 -1 -1 0 0 0 0];

internalField   nonuniform List<scalar> 
360
(
3.65176e+06
2.55298e+06
3.05678e+06
3.04454e+06
2.82759e+06
2.70788e+06
2.65012e+06
2.60124e+06
2.55004e+06
2.49757e+06
2.44608e+06
2.39759e+06
2.35248e+06
2.31061e+06
2.2715e+06
2.23478e+06
2.20057e+06
2.16914e+06
2.14036e+06
2.11409e+06
2.09058e+06
2.06931e+06
2.05025e+06
2.0334e+06
2.01862e+06
2.0059e+06
1.9951e+06
1.98581e+06
1.97822e+06
1.97231e+06
1.96775e+06
1.96441e+06
1.96249e+06
1.96121e+06
1.96114e+06
1.96196e+06
1.96355e+06
1.96539e+06
1.96768e+06
1.9708e+06
1.97356e+06
1.9767e+06
1.9802e+06
1.98306e+06
1.98586e+06
1.98834e+06
1.99069e+06
1.99326e+06
1.9947e+06
1.99516e+06
1.99578e+06
1.99568e+06
1.9949e+06
1.99349e+06
1.99168e+06
1.98888e+06
1.98592e+06
1.98221e+06
1.97838e+06
1.97424e+06
1.96881e+06
1.96302e+06
1.95643e+06
1.94958e+06
1.94257e+06
1.93538e+06
1.92775e+06
1.91998e+06
1.91253e+06
1.90503e+06
1.89645e+06
1.88761e+06
1.87925e+06
1.87025e+06
1.86089e+06
1.85145e+06
1.84267e+06
1.83423e+06
1.82581e+06
1.81753e+06
1.80947e+06
1.80121e+06
1.79264e+06
1.7839e+06
1.77504e+06
1.76621e+06
1.75756e+06
1.74931e+06
1.74149e+06
1.73396e+06
1.72665e+06
1.71942e+06
1.71208e+06
1.70457e+06
1.69691e+06
1.68918e+06
1.68147e+06
1.67386e+06
1.6664e+06
1.65906e+06
1.65178e+06
1.64442e+06
1.63682e+06
1.62875e+06
1.62e+06
1.61027e+06
1.59926e+06
1.58664e+06
1.57212e+06
1.55542e+06
1.53643e+06
1.51516e+06
1.49185e+06
1.46697e+06
1.4412e+06
1.41537e+06
1.39038e+06
1.36706e+06
1.34598e+06
1.32732e+06
1.31064e+06
1.29477e+06
1.27772e+06
1.25668e+06
1.22823e+06
1.18876e+06
1.13527e+06
1.06641e+06
983417
890531
794197
701348
617951
549193
501223
483013
509141
610367
874330
1.626e+06
4.50366e+06
2.04142e+07
4.88722e+07
0.123223
0.0306362
0.0208833
0.0178371
0.0161271
0.0148441
0.0137642
0.012817
0.0119754
0.0112502
0.0106284
0.0100964
0.00964272
0.0092567
0.00892837
0.0086484
0.00840824
0.00820016
0.00801733
0.00785354
0.00770373
0.00756358
0.00742951
0.00729867
0.00716882
0.00703829
0.00690591
0.00677094
0.00663299
0.00649204
0.00634838
0.00620254
0.00605532
0.00590774
0.00576102
0.00561651
0.00547566
0.0053399
0.00521058
0.00508885
0.00497554
0.00487114
0.00477566
0.00468871
0.00460961
0.00453747
0.00447136
0.00441044
0.00435394
0.00430123
0.00425176
0.00420511
0.00416088
0.00411876
0.00407846
0.00403976
0.00400243
0.00396629
0.00393082
0.00389555
0.00386037
0.00382518
0.00378986
0.00375432
0.00371843
0.00368208
0.00364515
0.00360752
0.00356906
0.00352963
0.00348909
0.00344727
0.00340402
0.00335915
0.00331246
0.00326374
0.00321276
0.00315923
0.00310285
0.00304328
0.00298011
0.00291285
0.00284093
0.00276362
0.00268003
0.002589
0.002489
0.00237792
0.00225269
0.00210863
0.00193785
0.00172517
0.00143333
0
0
0
0
0
0
0
0
0
0
0
0
0
0
0
0
0
0
0
0
0
0
0
0
0
0
0
0
0
0
0
0
0
0
0
0
0
0
0
0
0
0
0
0
0
0
0
0
0
0
0
0
0
0
0
0
0
0
0
0
0
0
0
0
0
0
0
0
0
0
0
0
0
0
0
0
0
0
0
0
0
0
0
0
0
0
0
0
0
0
0
0
0
0
0
0
0
0
0
0
0
0
0
0
0
0
0
0
0
0
0
0
0
0
0
0
0
0
0
0
0
0
0
0
)
;

boundaryField
{
    inandouthalf11
    {
        type            cyclic;
    }
    inandouthalf12
    {
        type            cyclic;
    }
    inandouthalf21
    {
        type            cyclic;
    }
    inandouthalf22
    {
        type            cyclic;
    }
    inandouthalf31
    {
        type            cyclic;
    }
    inandouthalf32
    {
        type            cyclic;
    }
    inandouthalf41
    {
        type            cyclic;
    }
    inandouthalf42
    {
        type            cyclic;
    }
    top
    {
        type            symmetryPlane;
    }
    walls
    {
        type            calculated;
        value           uniform 1e+30;
    }
    frontAndBackPlanes
    {
        type            empty;
    }
}


// ************************************************************************* //
