/*--------------------------------*- C++ -*----------------------------------*\
| =========                 |                                                 |
| \\      /  F ield         | OpenFOAM: The Open Source CFD Toolbox           |
|  \\    /   O peration     | Version:  2.4.x                                 |
|   \\  /    A nd           | Web:      www.OpenFOAM.org                      |
|    \\/     M anipulation  |                                                 |
\*---------------------------------------------------------------------------*/
FoamFile
{
    version     2.0;
    format      ascii;
    class       volScalarField;
    location    "8.75";
    object      nutb;
}
// * * * * * * * * * * * * * * * * * * * * * * * * * * * * * * * * * * * * * //

dimensions      [0 2 -1 0 0 0 0];

internalField   nonuniform List<scalar> 
360
(
9e-22
9e-22
9e-22
9e-22
9e-22
9e-22
9e-22
9e-22
9e-22
9e-22
9e-22
9e-22
9e-22
9e-22
9e-22
9e-22
9e-22
9e-22
9e-22
9e-22
9e-22
9e-22
9e-22
9e-22
9e-22
9e-22
9e-22
9e-22
9e-22
9e-22
9e-22
9e-22
9e-22
9e-22
9e-22
9e-22
9e-22
9e-22
9e-22
9e-22
9e-22
9e-22
9e-22
9e-22
9e-22
9e-22
9e-22
9e-22
9e-22
9e-22
9e-22
9e-22
9e-22
9e-22
9e-22
9e-22
9e-22
9e-22
9e-22
9e-22
9e-22
9e-22
9e-22
9e-22
9e-22
9e-22
9e-22
9e-22
9e-22
9e-22
9e-22
9e-22
9e-22
9e-22
9e-22
9e-22
9e-22
9e-22
9e-22
9e-22
9e-22
9e-22
9e-22
9e-22
9e-22
9e-22
9e-22
9e-22
9e-22
9e-22
9e-22
9e-22
9e-22
9e-22
9e-22
9e-22
9e-22
9e-22
9e-22
9e-22
9e-22
9e-22
9e-22
9e-22
9e-22
9e-22
9e-22
9e-22
9e-22
9e-22
9e-22
9e-22
9e-22
9e-22
9e-22
9e-22
9e-22
9e-22
9e-22
9e-22
9e-22
9e-22
9e-22
9e-22
9e-22
9e-22
9e-22
9e-22
9e-22
9e-22
5.36387e-22
1.84286e-21
1.94337e-20
2.22192e-19
2.66809e-18
3.41459e-17
4.72732e-16
7.1644e-15
1.20137e-13
2.25807e-12
4.82783e-11
1.18655e-09
3.31563e-08
7.64838e-07
6.95655e-06
1.92684e-05
3.0833e-05
4.09459e-05
4.99045e-05
5.79383e-05
6.52077e-05
7.1818e-05
7.7863e-05
8.34167e-05
8.85185e-05
9.31904e-05
9.74497e-05
0.000101309
0.00010478
0.000107868
0.000110581
0.000112923
0.000114898
0.000116511
0.000117767
0.000118671
0.000119228
0.000119446
0.000119334
0.000118903
0.000118167
0.00011714
0.000115842
0.000114293
0.000112521
0.000110555
0.000108431
0.00010619
0.000103881
0.000101562
9.92995e-05
9.71694e-05
9.52593e-05
9.36666e-05
9.24966e-05
9.1858e-05
9.18559e-05
9.25822e-05
9.41049e-05
9.64592e-05
9.96422e-05
0.000103611
0.000108288
0.000113568
0.000119329
0.000125443
0.000131788
0.000138248
0.000144725
0.000151133
0.000157407
0.000163558
0.000169597
0.00017548
0.000181175
0.000186653
0.000191896
0.000196887
0.000201617
0.00020608
0.000210275
0.0002142
0.000217858
0.000221253
0.000224388
0.000227268
0.000229898
0.000232281
0.000234422
0.000236324
0.00023799
0.000239419
0.000240615
0.000241575
0.000242298
0.000242782
0.000243025
0.000243021
0.000242765
0.000242253
0.000241476
0.000240429
0.000239103
0.000237489
0.000235579
0.000233363
0.000230832
0.000227975
0.000224782
0.000221244
0.000217349
0.000213089
0.000208453
0.000203431
0.000198017
0.000192202
0.000185979
0.000179345
0.000172295
0.000164831
0.000156953
0.000148669
0.000139987
0.000130922
0.000121494
0.000111731
0.000101664
9.13342e-05
8.0789e-05
7.00807e-05
5.92638e-05
4.83909e-05
3.75055e-05
2.66388e-05
1.58378e-05
5.25979e-06
4.13873e-07
7.74586e-09
1.14346e-10
1.67174e-12
2.43571e-14
3.53388e-16
5.03825e-18
4.26521e-20
9.15709e-22
9e-22
9e-22
9e-22
9e-22
9e-22
9e-22
9e-22
9e-22
9e-22
9e-22
9e-22
9e-22
9e-22
9e-22
9e-22
9e-22
9e-22
9e-22
9e-22
9e-22
9e-22
9e-22
9e-22
9e-22
9e-22
9e-22
9e-22
9e-22
9e-22
9e-22
9e-22
9e-22
9e-22
9e-22
9e-22
9e-22
9e-22
9e-22
9e-22
9e-22
9e-22
9e-22
9e-22
9e-22
9e-22
9e-22
9e-22
9e-22
9e-22
9e-22
9e-22
9e-22
9e-22
9e-22
9e-22
9e-22
9e-22
9e-22
9e-22
9e-22
9e-22
9e-22
9e-22
9e-22
9e-22
9e-22
9e-22
9e-22
9e-22
9e-22
9e-22
9e-22
9e-22
9e-22
9e-22
9e-22
9e-22
9e-22
9e-22
9e-22
9e-22
9e-22
9e-22
9e-22
9e-22
)
;

boundaryField
{
    inandouthalf11
    {
        type            cyclic;
    }
    inandouthalf12
    {
        type            cyclic;
    }
    inandouthalf21
    {
        type            cyclic;
    }
    inandouthalf22
    {
        type            cyclic;
    }
    inandouthalf31
    {
        type            cyclic;
    }
    inandouthalf32
    {
        type            cyclic;
    }
    inandouthalf41
    {
        type            cyclic;
    }
    inandouthalf42
    {
        type            cyclic;
    }
    top
    {
        type            symmetryPlane;
    }
    walls
    {
        type            calculated;
        value           uniform 0;
    }
    frontAndBackPlanes
    {
        type            empty;
    }
}


// ************************************************************************* //
