/*--------------------------------*- C++ -*----------------------------------*\
| =========                 |                                                 |
| \\      /  F ield         | OpenFOAM: The Open Source CFD Toolbox           |
|  \\    /   O peration     | Version:  2.4.x                                 |
|   \\  /    A nd           | Web:      www.OpenFOAM.org                      |
|    \\/     M anipulation  |                                                 |
\*---------------------------------------------------------------------------*/
FoamFile
{
    version     2.0;
    format      ascii;
    class       surfaceScalarField;
    location    "8.75";
    object      phia;
}
// * * * * * * * * * * * * * * * * * * * * * * * * * * * * * * * * * * * * * //

dimensions      [0 3 -1 0 0 0 0];

internalField   nonuniform List<scalar> 
359
(
-9.79757e-14
-2.46505e-13
-3.86504e-13
-5.23766e-13
-6.67044e-13
-8.15421e-13
-9.66504e-13
-1.11954e-12
-1.27455e-12
-1.43175e-12
-1.59116e-12
-1.75268e-12
-1.91616e-12
-2.08144e-12
-2.2484e-12
-2.41689e-12
-2.58678e-12
-2.75789e-12
-2.93004e-12
-3.10306e-12
-3.27672e-12
-3.45086e-12
-3.6253e-12
-3.79985e-12
-3.97433e-12
-4.14857e-12
-4.32238e-12
-4.49564e-12
-4.66819e-12
-4.83987e-12
-5.01055e-12
-5.18016e-12
-5.3485e-12
-5.5156e-12
-5.68127e-12
-5.8455e-12
-6.0082e-12
-6.16934e-12
-6.32892e-12
-6.48681e-12
-6.64312e-12
-6.79779e-12
-6.95077e-12
-7.10217e-12
-7.25195e-12
-7.40015e-12
-7.54681e-12
-7.69187e-12
-7.83544e-12
-7.97761e-12
-8.11832e-12
-8.25766e-12
-8.39565e-12
-8.53237e-12
-8.66777e-12
-8.80201e-12
-8.93501e-12
-9.06686e-12
-9.19757e-12
-9.3271e-12
-9.45561e-12
-9.58303e-12
-9.70948e-12
-9.83491e-12
-9.95936e-12
-1.00828e-11
-1.02053e-11
-1.03268e-11
-1.04473e-11
-1.05668e-11
-1.06853e-11
-1.08029e-11
-1.09196e-11
-1.10352e-11
-1.11499e-11
-1.12637e-11
-1.13765e-11
-1.14882e-11
-1.15989e-11
-1.17085e-11
-1.18171e-11
-1.19245e-11
-1.20309e-11
-1.21362e-11
-1.22404e-11
-1.23435e-11
-1.24455e-11
-1.25463e-11
-1.26459e-11
-1.27443e-11
-1.28414e-11
-1.29373e-11
-1.30319e-11
-1.31253e-11
-1.32173e-11
-1.33081e-11
-1.33976e-11
-1.34858e-11
-1.35726e-11
-1.3658e-11
-1.37421e-11
-1.38249e-11
-1.39062e-11
-1.39862e-11
-1.40648e-11
-1.41421e-11
-1.42181e-11
-1.42929e-11
-1.43665e-11
-1.44391e-11
-1.45107e-11
-1.45815e-11
-1.46514e-11
-1.47205e-11
-1.47889e-11
-1.48564e-11
-1.49232e-11
-1.4989e-11
-1.50537e-11
-1.51172e-11
-1.51793e-11
-1.524e-11
-1.52993e-11
-1.53573e-11
-1.54144e-11
-1.5471e-11
-1.55278e-11
-1.55855e-11
-1.56453e-11
-1.57081e-11
-1.57751e-11
-1.58469e-11
-1.59239e-11
-1.60056e-11
-1.60896e-11
-1.61712e-11
-1.62432e-11
-1.62987e-11
-1.63343e-11
-1.63517e-11
-1.63572e-11
-1.63583e-11
-1.63576e-11
1.94691e-10
4.47459e-09
6.67734e-09
7.59937e-09
8.65187e-09
1.01147e-08
1.18585e-08
1.36989e-08
1.55319e-08
1.73054e-08
1.89732e-08
2.053e-08
2.19909e-08
2.33805e-08
2.47257e-08
2.60506e-08
2.7374e-08
2.87093e-08
3.00653e-08
3.14466e-08
3.2856e-08
3.4294e-08
3.576e-08
3.72524e-08
3.8769e-08
4.03065e-08
4.18613e-08
4.34288e-08
4.50037e-08
4.65798e-08
4.81501e-08
4.97065e-08
5.12396e-08
5.27383e-08
5.41894e-08
5.55767e-08
5.68811e-08
5.808e-08
5.91458e-08
6.00402e-08
6.07074e-08
6.10763e-08
6.1082e-08
6.06967e-08
5.99483e-08
5.89123e-08
5.76856e-08
5.63603e-08
5.50089e-08
5.36821e-08
5.24111e-08
5.12134e-08
5.00973e-08
4.90651e-08
4.81158e-08
4.72466e-08
4.64537e-08
4.57328e-08
4.50672e-08
4.44559e-08
4.38982e-08
4.3393e-08
4.2939e-08
4.25346e-08
4.21784e-08
4.18685e-08
4.16026e-08
4.13783e-08
4.11927e-08
4.10424e-08
4.09241e-08
4.08339e-08
4.07676e-08
4.07211e-08
4.06904e-08
4.06715e-08
4.06607e-08
4.06548e-08
4.06511e-08
4.06472e-08
4.06409e-08
4.06307e-08
4.06147e-08
4.05925e-08
4.05614e-08
4.05229e-08
4.04721e-08
4.04159e-08
4.03407e-08
4.02612e-08
4.01742e-08
4.00622e-08
3.98064e-08
3.6714e-08
3.56536e-08
3.49668e-08
3.41863e-08
3.33763e-08
3.2636e-08
3.13171e-08
3.13894e-08
2.72904e-08
3.1483e-08
-6.95757e-08
-1.51803e-07
-1.58562e-07
-1.58382e-07
-1.58398e-07
-1.58397e-07
-1.58394e-07
-1.5839e-07
-1.58383e-07
-1.58375e-07
-1.58363e-07
-1.58349e-07
-1.58333e-07
-1.58315e-07
-1.58294e-07
-1.58272e-07
-1.58251e-07
-1.58226e-07
-1.58195e-07
-1.58151e-07
-1.58135e-07
-1.58135e-07
-1.58135e-07
-1.58135e-07
-1.58135e-07
-1.58135e-07
-1.58135e-07
-1.58135e-07
-1.58135e-07
-1.58135e-07
-1.58135e-07
-1.58135e-07
-1.58135e-07
-1.58135e-07
-1.58135e-07
-1.58135e-07
-1.58135e-07
-1.58135e-07
-1.58135e-07
-1.58135e-07
-1.58135e-07
-1.58135e-07
-1.58135e-07
-1.58135e-07
-1.58135e-07
-1.58135e-07
-1.58135e-07
-1.58135e-07
-1.58135e-07
-1.58135e-07
-1.58135e-07
-1.58135e-07
-1.58135e-07
-1.58135e-07
-1.58135e-07
-1.58135e-07
-1.58135e-07
-1.58135e-07
-1.58135e-07
-1.58135e-07
-1.58135e-07
-1.58135e-07
-1.58135e-07
-1.58135e-07
-1.58135e-07
-1.58135e-07
-1.58135e-07
-1.58135e-07
-1.58135e-07
-1.58135e-07
-1.58135e-07
-1.58135e-07
-1.58135e-07
-1.58135e-07
-1.58135e-07
-1.58135e-07
-1.58135e-07
-1.58135e-07
-1.58135e-07
-1.58135e-07
-1.58135e-07
-1.58135e-07
-1.58135e-07
-1.58135e-07
-1.58135e-07
-1.58135e-07
-1.58135e-07
-1.58135e-07
-1.58135e-07
-1.58135e-07
-1.58135e-07
-1.58135e-07
-1.58135e-07
-1.58135e-07
-1.58135e-07
-1.58135e-07
-1.58135e-07
-1.58135e-07
-1.58135e-07
-1.58135e-07
-1.58135e-07
-1.58135e-07
-1.58135e-07
-1.58135e-07
-1.58135e-07
-1.58135e-07
-1.58135e-07
-1.58135e-07
-1.58135e-07
-1.58135e-07
-1.58117e-07
-1.5741e-07
-1.32504e-07
)
;

boundaryField
{
    inandouthalf11
    {
        type            cyclic;
        value           nonuniform List<scalar> 
100
(
-1.98204e-38
-1.27296e-14
-2.67589e-14
-3.96081e-14
-5.29056e-14
-6.69538e-14
-8.1406e-14
-9.60876e-14
-1.10988e-13
-1.26124e-13
-1.41506e-13
-1.57129e-13
-1.72983e-13
-1.8905e-13
-2.05318e-13
-2.21773e-13
-2.38403e-13
-2.5519e-13
-2.72119e-13
-2.89171e-13
-3.06327e-13
-3.23568e-13
-3.40876e-13
-3.58234e-13
-3.75621e-13
-3.93022e-13
-4.10417e-13
-4.27792e-13
-4.4513e-13
-4.62418e-13
-4.7964e-13
-4.96784e-13
-5.13839e-13
-5.30795e-13
-5.47643e-13
-5.64373e-13
-5.80979e-13
-5.97457e-13
-6.13802e-13
-6.3001e-13
-6.46079e-13
-6.62009e-13
-6.77797e-13
-6.93444e-13
-7.08954e-13
-7.24329e-13
-7.39569e-13
-7.54675e-13
-7.6965e-13
-7.84502e-13
-7.99234e-13
-8.13848e-13
-8.2835e-13
-8.42742e-13
-8.57029e-13
-8.71215e-13
-8.85305e-13
-8.993e-13
-9.13203e-13
-9.27015e-13
-9.40741e-13
-9.54387e-13
-9.67955e-13
-9.81448e-13
-9.94868e-13
-1.00822e-12
-1.02149e-12
-1.03469e-12
-1.04783e-12
-1.06089e-12
-1.07388e-12
-1.0868e-12
-1.09965e-12
-1.11244e-12
-1.12516e-12
-1.13781e-12
-1.1504e-12
-1.16292e-12
-1.17536e-12
-1.18772e-12
-1.20001e-12
-1.21222e-12
-1.22436e-12
-1.23641e-12
-1.24839e-12
-1.2603e-12
-1.27212e-12
-1.28386e-12
-1.29552e-12
-1.30709e-12
-1.31857e-12
-1.32995e-12
-1.34124e-12
-1.35243e-12
-1.36354e-12
-1.37454e-12
-1.38545e-12
-1.39627e-12
-1.40698e-12
-1.41759e-12
)
;
    }
    inandouthalf12
    {
        type            cyclic;
        value           nonuniform List<scalar> 
100
(
1.98204e-38
1.27296e-14
2.67589e-14
3.96081e-14
5.29056e-14
6.69538e-14
8.1406e-14
9.60876e-14
1.10988e-13
1.26124e-13
1.41506e-13
1.57129e-13
1.72983e-13
1.8905e-13
2.05318e-13
2.21773e-13
2.38403e-13
2.5519e-13
2.72119e-13
2.89171e-13
3.06327e-13
3.23568e-13
3.40876e-13
3.58234e-13
3.75621e-13
3.93022e-13
4.10417e-13
4.27792e-13
4.4513e-13
4.62418e-13
4.7964e-13
4.96784e-13
5.13839e-13
5.30795e-13
5.47643e-13
5.64373e-13
5.80979e-13
5.97457e-13
6.13802e-13
6.3001e-13
6.46079e-13
6.62009e-13
6.77797e-13
6.93444e-13
7.08954e-13
7.24329e-13
7.39569e-13
7.54675e-13
7.6965e-13
7.84502e-13
7.99234e-13
8.13848e-13
8.2835e-13
8.42742e-13
8.57029e-13
8.71215e-13
8.85305e-13
8.993e-13
9.13203e-13
9.27015e-13
9.40741e-13
9.54387e-13
9.67955e-13
9.81448e-13
9.94868e-13
1.00822e-12
1.02149e-12
1.03469e-12
1.04783e-12
1.06089e-12
1.07388e-12
1.0868e-12
1.09965e-12
1.11244e-12
1.12516e-12
1.13781e-12
1.1504e-12
1.16292e-12
1.17536e-12
1.18772e-12
1.20001e-12
1.21222e-12
1.22436e-12
1.23641e-12
1.24839e-12
1.2603e-12
1.27212e-12
1.28386e-12
1.29552e-12
1.30709e-12
1.31857e-12
1.32995e-12
1.34124e-12
1.35243e-12
1.36354e-12
1.37454e-12
1.38545e-12
1.39627e-12
1.40698e-12
1.41759e-12
)
;
    }
    inandouthalf21
    {
        type            cyclic;
        value           nonuniform List<scalar> 
100
(
-1.4281e-12
-1.4385e-12
-1.4488e-12
-1.459e-12
-1.46909e-12
-1.47909e-12
-1.48899e-12
-1.4988e-12
-1.50854e-12
-1.51822e-12
-1.52784e-12
-1.53741e-12
-1.54696e-12
-1.5565e-12
-1.56602e-12
-1.57553e-12
-1.58504e-12
-1.59453e-12
-1.60398e-12
-1.61338e-12
-1.62271e-12
-1.63196e-12
-1.64113e-12
-1.65023e-12
-1.65931e-12
-1.66843e-12
-1.6777e-12
-1.68725e-12
-1.69727e-12
-1.70798e-12
-1.71959e-12
-1.73237e-12
-1.7465e-12
-1.76209e-12
-1.77901e-12
-1.79664e-12
-1.81372e-12
-1.82851e-12
-1.83938e-12
-1.84568e-12
-1.84816e-12
-1.84872e-12
-1.84889e-12
-1.84906e-12
-4.08142e-08
-1.43522e-07
-2.49091e-07
-3.44636e-07
-4.30155e-07
-5.06949e-07
-5.76311e-07
-6.39343e-07
-6.97065e-07
-7.50058e-07
-7.98889e-07
-8.44052e-07
-8.8597e-07
-9.25002e-07
-9.61452e-07
-9.95582e-07
-1.02762e-06
-1.05775e-06
-1.08615e-06
-1.11296e-06
-1.1383e-06
-1.16228e-06
-1.185e-06
-1.20652e-06
-1.22692e-06
-1.24625e-06
-1.26455e-06
-1.28185e-06
-1.29818e-06
-1.31355e-06
-1.32797e-06
-1.34144e-06
-1.35395e-06
-1.36549e-06
-1.37608e-06
-1.38569e-06
-1.39435e-06
-1.40206e-06
-1.40884e-06
-1.41475e-06
-1.41983e-06
-1.42416e-06
-1.42781e-06
-1.43087e-06
-1.43344e-06
-1.43559e-06
-1.43739e-06
-1.43891e-06
-1.44018e-06
-1.44125e-06
-1.44215e-06
-1.4429e-06
-1.44353e-06
-1.44406e-06
-1.44449e-06
-1.44484e-06
)
;
    }
    inandouthalf22
    {
        type            cyclic;
        value           nonuniform List<scalar> 
100
(
1.4281e-12
1.4385e-12
1.4488e-12
1.459e-12
1.46909e-12
1.47909e-12
1.48899e-12
1.4988e-12
1.50854e-12
1.51822e-12
1.52784e-12
1.53741e-12
1.54696e-12
1.5565e-12
1.56602e-12
1.57553e-12
1.58504e-12
1.59453e-12
1.60398e-12
1.61338e-12
1.62271e-12
1.63196e-12
1.64113e-12
1.65023e-12
1.65931e-12
1.66843e-12
1.6777e-12
1.68725e-12
1.69727e-12
1.70798e-12
1.71959e-12
1.73237e-12
1.7465e-12
1.76209e-12
1.77901e-12
1.79664e-12
1.81372e-12
1.82851e-12
1.83938e-12
1.84568e-12
1.84816e-12
1.84872e-12
1.84889e-12
1.84906e-12
4.08142e-08
1.43522e-07
2.49091e-07
3.44636e-07
4.30155e-07
5.06949e-07
5.76311e-07
6.39343e-07
6.97065e-07
7.50058e-07
7.98889e-07
8.44052e-07
8.8597e-07
9.25002e-07
9.61452e-07
9.95582e-07
1.02762e-06
1.05775e-06
1.08615e-06
1.11296e-06
1.1383e-06
1.16228e-06
1.185e-06
1.20652e-06
1.22692e-06
1.24625e-06
1.26455e-06
1.28185e-06
1.29818e-06
1.31355e-06
1.32797e-06
1.34144e-06
1.35395e-06
1.36549e-06
1.37608e-06
1.38569e-06
1.39435e-06
1.40206e-06
1.40884e-06
1.41475e-06
1.41983e-06
1.42416e-06
1.42781e-06
1.43087e-06
1.43344e-06
1.43559e-06
1.43739e-06
1.43891e-06
1.44018e-06
1.44125e-06
1.44215e-06
1.4429e-06
1.44353e-06
1.44406e-06
1.44449e-06
1.44484e-06
)
;
    }
    inandouthalf31
    {
        type            cyclic;
        value           nonuniform List<scalar> 
110
(
-1.44514e-06
-1.47471e-06
-1.50484e-06
-1.53553e-06
-1.56682e-06
-1.5987e-06
-1.63119e-06
-1.66431e-06
-1.69806e-06
-1.73248e-06
-1.76756e-06
-1.80334e-06
-1.83981e-06
-1.87701e-06
-1.91494e-06
-1.95362e-06
-1.99307e-06
-2.03331e-06
-2.07436e-06
-2.11623e-06
-2.15894e-06
-2.20251e-06
-2.24696e-06
-2.29231e-06
-2.33858e-06
-2.38579e-06
-2.43396e-06
-2.48311e-06
-2.53326e-06
-2.58443e-06
-2.63666e-06
-2.68996e-06
-2.74436e-06
-2.7999e-06
-2.85661e-06
-2.91452e-06
-2.97366e-06
-3.03622e-06
-3.09368e-06
-3.15129e-06
-3.21003e-06
-3.26987e-06
-3.33041e-06
-3.39279e-06
-3.45518e-06
-3.52041e-06
-3.58421e-06
-3.65296e-06
-3.72159e-06
-3.79051e-06
-3.86136e-06
-3.93363e-06
-4.00747e-06
-4.08293e-06
-4.16013e-06
-4.23916e-06
-4.32015e-06
-4.40323e-06
-4.48852e-06
-4.57619e-06
-4.66637e-06
-4.75923e-06
-4.85497e-06
-4.95343e-06
-5.05474e-06
-5.15844e-06
-5.26357e-06
-5.37044e-06
-5.47945e-06
-5.59067e-06
-5.70414e-06
-5.81992e-06
-5.93805e-06
-6.05858e-06
-6.18155e-06
-6.30702e-06
-6.43504e-06
-6.56565e-06
-6.69891e-06
-6.83488e-06
-6.97361e-06
-7.11516e-06
-7.25958e-06
-7.40693e-06
-7.55727e-06
-7.71066e-06
-7.86717e-06
-8.02685e-06
-8.18977e-06
-8.35601e-06
-8.52561e-06
-8.69866e-06
-8.87522e-06
-9.05536e-06
-9.23916e-06
-9.42669e-06
-9.61803e-06
-9.81325e-06
-1.00124e-05
-1.02157e-05
-1.0423e-05
-1.06346e-05
-1.08504e-05
-1.10707e-05
-1.12954e-05
-1.15246e-05
-1.17585e-05
-1.19972e-05
-1.22407e-05
-1.24892e-05
)
;
    }
    inandouthalf32
    {
        type            cyclic;
        value           nonuniform List<scalar> 
110
(
1.44514e-06
1.47471e-06
1.50484e-06
1.53553e-06
1.56682e-06
1.5987e-06
1.63119e-06
1.66431e-06
1.69806e-06
1.73248e-06
1.76756e-06
1.80334e-06
1.83981e-06
1.87701e-06
1.91494e-06
1.95362e-06
1.99307e-06
2.03331e-06
2.07436e-06
2.11623e-06
2.15894e-06
2.20251e-06
2.24696e-06
2.29231e-06
2.33858e-06
2.38579e-06
2.43396e-06
2.48311e-06
2.53326e-06
2.58443e-06
2.63666e-06
2.68996e-06
2.74436e-06
2.7999e-06
2.85661e-06
2.91452e-06
2.97366e-06
3.03622e-06
3.09368e-06
3.15129e-06
3.21003e-06
3.26987e-06
3.33041e-06
3.39279e-06
3.45518e-06
3.52041e-06
3.58421e-06
3.65296e-06
3.72159e-06
3.79051e-06
3.86136e-06
3.93363e-06
4.00747e-06
4.08293e-06
4.16013e-06
4.23916e-06
4.32015e-06
4.40323e-06
4.48852e-06
4.57619e-06
4.66637e-06
4.75923e-06
4.85497e-06
4.95343e-06
5.05474e-06
5.15844e-06
5.26357e-06
5.37044e-06
5.47945e-06
5.59067e-06
5.70414e-06
5.81992e-06
5.93805e-06
6.05858e-06
6.18155e-06
6.30702e-06
6.43504e-06
6.56565e-06
6.69891e-06
6.83488e-06
6.97361e-06
7.11516e-06
7.25958e-06
7.40693e-06
7.55727e-06
7.71066e-06
7.86717e-06
8.02685e-06
8.18977e-06
8.35601e-06
8.52561e-06
8.69866e-06
8.87522e-06
9.05536e-06
9.23916e-06
9.42669e-06
9.61803e-06
9.81325e-06
1.00124e-05
1.02157e-05
1.0423e-05
1.06346e-05
1.08504e-05
1.10707e-05
1.12954e-05
1.15246e-05
1.17585e-05
1.19972e-05
1.22407e-05
1.24892e-05
)
;
    }
    inandouthalf41
    {
        type            cyclic;
        value           nonuniform List<scalar> 
50
(
-1.11791e-05
-1.11791e-05
-1.11791e-05
-1.11791e-05
-1.11791e-05
-1.11791e-05
-1.11791e-05
-1.11791e-05
-1.11791e-05
-1.11791e-05
-1.11791e-05
-1.11791e-05
-1.11791e-05
-1.11791e-05
-1.11791e-05
-1.11791e-05
-1.11791e-05
-1.11791e-05
-1.11791e-05
-1.11791e-05
-1.11791e-05
-1.11791e-05
-1.11791e-05
-1.11791e-05
-1.11791e-05
-1.11791e-05
-1.11791e-05
-1.11791e-05
-1.11791e-05
-1.11791e-05
-1.11791e-05
-1.11791e-05
-1.11791e-05
-1.11791e-05
-1.11791e-05
-1.11791e-05
-1.11791e-05
-1.11791e-05
-1.11791e-05
-1.11791e-05
-1.11791e-05
-1.11791e-05
-1.11791e-05
-1.11791e-05
-1.11791e-05
-1.11791e-05
-1.11791e-05
-1.11791e-05
-1.11789e-05
-1.11759e-05
)
;
    }
    inandouthalf42
    {
        type            cyclic;
        value           nonuniform List<scalar> 
50
(
1.11791e-05
1.11791e-05
1.11791e-05
1.11791e-05
1.11791e-05
1.11791e-05
1.11791e-05
1.11791e-05
1.11791e-05
1.11791e-05
1.11791e-05
1.11791e-05
1.11791e-05
1.11791e-05
1.11791e-05
1.11791e-05
1.11791e-05
1.11791e-05
1.11791e-05
1.11791e-05
1.11791e-05
1.11791e-05
1.11791e-05
1.11791e-05
1.11791e-05
1.11791e-05
1.11791e-05
1.11791e-05
1.11791e-05
1.11791e-05
1.11791e-05
1.11791e-05
1.11791e-05
1.11791e-05
1.11791e-05
1.11791e-05
1.11791e-05
1.11791e-05
1.11791e-05
1.11791e-05
1.11791e-05
1.11791e-05
1.11791e-05
1.11791e-05
1.11791e-05
1.11791e-05
1.11791e-05
1.11791e-05
1.11789e-05
1.11759e-05
)
;
    }
    top
    {
        type            symmetryPlane;
        value           uniform 0;
    }
    walls
    {
        type            fixedValue;
        value           uniform 0;
    }
    frontAndBackPlanes
    {
        type            empty;
        value           nonuniform 0();
    }
}


// ************************************************************************* //
