/*--------------------------------*- C++ -*----------------------------------*\
| =========                 |                                                 |
| \\      /  F ield         | OpenFOAM: The Open Source CFD Toolbox           |
|  \\    /   O peration     | Version:  2.4.x                                 |
|   \\  /    A nd           | Web:      www.OpenFOAM.org                      |
|    \\/     M anipulation  |                                                 |
\*---------------------------------------------------------------------------*/
FoamFile
{
    version     2.0;
    format      ascii;
    class       surfaceScalarField;
    location    "8.75";
    object      phia_0;
}
// * * * * * * * * * * * * * * * * * * * * * * * * * * * * * * * * * * * * * //

dimensions      [0 3 -1 0 0 0 0];

internalField   nonuniform List<scalar> 
359
(
-9.79939e-14
-2.46551e-13
-3.86577e-13
-5.23866e-13
-6.67172e-13
-8.15577e-13
-9.6669e-13
-1.11975e-12
-1.2748e-12
-1.43202e-12
-1.59146e-12
-1.75301e-12
-1.91652e-12
-2.08183e-12
-2.24881e-12
-2.41733e-12
-2.58724e-12
-2.75838e-12
-2.93054e-12
-3.10359e-12
-3.27727e-12
-3.45143e-12
-3.62589e-12
-3.80046e-12
-3.97496e-12
-4.14921e-12
-4.32304e-12
-4.49631e-12
-4.66887e-12
-4.84056e-12
-5.01126e-12
-5.18087e-12
-5.34923e-12
-5.51633e-12
-5.68202e-12
-5.84626e-12
-6.00896e-12
-6.17011e-12
-6.32969e-12
-6.4876e-12
-6.64392e-12
-6.79859e-12
-6.95158e-12
-7.10299e-12
-7.25278e-12
-7.40099e-12
-7.54765e-12
-7.69273e-12
-7.83631e-12
-7.97848e-12
-8.1192e-12
-8.25856e-12
-8.39656e-12
-8.53328e-12
-8.6687e-12
-8.80295e-12
-8.93596e-12
-9.06783e-12
-9.19855e-12
-9.3281e-12
-9.45662e-12
-9.58406e-12
-9.71051e-12
-9.83596e-12
-9.96042e-12
-1.00839e-11
-1.02064e-11
-1.03279e-11
-1.04484e-11
-1.05679e-11
-1.06865e-11
-1.08041e-11
-1.09207e-11
-1.10364e-11
-1.11512e-11
-1.1265e-11
-1.13777e-11
-1.14895e-11
-1.16002e-11
-1.17098e-11
-1.18184e-11
-1.19259e-11
-1.20323e-11
-1.21376e-11
-1.22418e-11
-1.23449e-11
-1.24469e-11
-1.25477e-11
-1.26474e-11
-1.27458e-11
-1.28429e-11
-1.29388e-11
-1.30335e-11
-1.31268e-11
-1.32189e-11
-1.33097e-11
-1.33992e-11
-1.34873e-11
-1.35742e-11
-1.36597e-11
-1.37438e-11
-1.38265e-11
-1.39078e-11
-1.39878e-11
-1.40664e-11
-1.41437e-11
-1.42198e-11
-1.42946e-11
-1.43682e-11
-1.44408e-11
-1.45125e-11
-1.45832e-11
-1.46531e-11
-1.47222e-11
-1.47906e-11
-1.48582e-11
-1.4925e-11
-1.49908e-11
-1.50555e-11
-1.5119e-11
-1.51811e-11
-1.52418e-11
-1.53011e-11
-1.53591e-11
-1.54162e-11
-1.54728e-11
-1.55296e-11
-1.55874e-11
-1.56472e-11
-1.57101e-11
-1.57771e-11
-1.5849e-11
-1.59261e-11
-1.60078e-11
-1.60918e-11
-1.61733e-11
-1.62452e-11
-1.63005e-11
-1.6336e-11
-1.63533e-11
-1.63588e-11
-1.63599e-11
-1.63592e-11
1.93895e-10
4.4797e-09
6.67666e-09
7.59957e-09
8.66485e-09
1.01438e-08
1.19003e-08
1.37472e-08
1.55805e-08
1.73501e-08
1.90114e-08
2.05609e-08
2.20147e-08
2.33985e-08
2.47393e-08
2.60612e-08
2.73829e-08
2.87171e-08
3.00726e-08
3.14538e-08
3.28631e-08
3.43012e-08
3.57673e-08
3.726e-08
3.87767e-08
4.03145e-08
4.18695e-08
4.34372e-08
4.50122e-08
4.65884e-08
4.81588e-08
4.97153e-08
5.12483e-08
5.2747e-08
5.41978e-08
5.55848e-08
5.68887e-08
5.80869e-08
5.91517e-08
6.00447e-08
6.071e-08
6.10764e-08
6.10791e-08
6.06907e-08
5.99395e-08
5.89015e-08
5.76734e-08
5.63473e-08
5.49957e-08
5.36689e-08
5.23982e-08
5.12009e-08
5.00852e-08
4.90534e-08
4.81046e-08
4.72358e-08
4.64434e-08
4.57229e-08
4.50576e-08
4.44468e-08
4.38894e-08
4.33846e-08
4.29308e-08
4.25269e-08
4.2171e-08
4.18613e-08
4.15957e-08
4.13716e-08
4.11862e-08
4.10362e-08
4.09181e-08
4.08281e-08
4.0762e-08
4.07156e-08
4.0685e-08
4.06663e-08
4.06556e-08
4.06497e-08
4.06461e-08
4.06423e-08
4.0636e-08
4.06258e-08
4.06099e-08
4.05877e-08
4.05567e-08
4.05182e-08
4.04674e-08
4.04112e-08
4.03361e-08
4.02566e-08
4.01697e-08
4.00576e-08
3.98021e-08
3.6712e-08
3.56508e-08
3.49631e-08
3.4182e-08
3.33721e-08
3.26304e-08
3.13144e-08
3.1382e-08
2.72893e-08
3.14429e-08
-6.97275e-08
-1.51844e-07
-1.58563e-07
-1.58382e-07
-1.58398e-07
-1.58397e-07
-1.58394e-07
-1.5839e-07
-1.58383e-07
-1.58374e-07
-1.58363e-07
-1.58349e-07
-1.58333e-07
-1.58314e-07
-1.58294e-07
-1.58272e-07
-1.5825e-07
-1.58225e-07
-1.58195e-07
-1.58151e-07
-1.58135e-07
-1.58135e-07
-1.58135e-07
-1.58135e-07
-1.58135e-07
-1.58135e-07
-1.58135e-07
-1.58135e-07
-1.58135e-07
-1.58135e-07
-1.58135e-07
-1.58135e-07
-1.58135e-07
-1.58135e-07
-1.58135e-07
-1.58135e-07
-1.58135e-07
-1.58135e-07
-1.58135e-07
-1.58135e-07
-1.58135e-07
-1.58135e-07
-1.58135e-07
-1.58135e-07
-1.58135e-07
-1.58135e-07
-1.58135e-07
-1.58135e-07
-1.58135e-07
-1.58135e-07
-1.58135e-07
-1.58135e-07
-1.58135e-07
-1.58135e-07
-1.58135e-07
-1.58135e-07
-1.58135e-07
-1.58135e-07
-1.58135e-07
-1.58135e-07
-1.58135e-07
-1.58135e-07
-1.58135e-07
-1.58135e-07
-1.58135e-07
-1.58135e-07
-1.58135e-07
-1.58135e-07
-1.58135e-07
-1.58135e-07
-1.58135e-07
-1.58135e-07
-1.58135e-07
-1.58135e-07
-1.58135e-07
-1.58135e-07
-1.58135e-07
-1.58135e-07
-1.58135e-07
-1.58135e-07
-1.58135e-07
-1.58135e-07
-1.58135e-07
-1.58135e-07
-1.58135e-07
-1.58135e-07
-1.58135e-07
-1.58135e-07
-1.58135e-07
-1.58135e-07
-1.58135e-07
-1.58135e-07
-1.58135e-07
-1.58135e-07
-1.58135e-07
-1.58135e-07
-1.58135e-07
-1.58135e-07
-1.58135e-07
-1.58135e-07
-1.58135e-07
-1.58135e-07
-1.58135e-07
-1.58135e-07
-1.58135e-07
-1.58135e-07
-1.58135e-07
-1.58135e-07
-1.58135e-07
-1.58135e-07
-1.58117e-07
-1.5741e-07
-1.32504e-07
)
;

boundaryField
{
    inandouthalf11
    {
        type            cyclic;
        value           nonuniform List<scalar> 
100
(
-1.98212e-38
-1.27325e-14
-2.6765e-14
-3.96173e-14
-5.29178e-14
-6.69693e-14
-8.14248e-14
-9.61097e-14
-1.11013e-13
-1.26152e-13
-1.41537e-13
-1.57164e-13
-1.7302e-13
-1.89091e-13
-2.05362e-13
-2.2182e-13
-2.38452e-13
-2.55243e-13
-2.72174e-13
-2.89228e-13
-3.06387e-13
-3.2363e-13
-3.4094e-13
-3.58299e-13
-3.75688e-13
-3.93091e-13
-4.10487e-13
-4.27863e-13
-4.45203e-13
-4.62492e-13
-4.79715e-13
-4.9686e-13
-5.13916e-13
-5.30873e-13
-5.47721e-13
-5.64452e-13
-5.81059e-13
-5.97537e-13
-6.13882e-13
-6.30091e-13
-6.4616e-13
-6.6209e-13
-6.77879e-13
-6.93527e-13
-7.09037e-13
-7.24412e-13
-7.39652e-13
-7.54758e-13
-7.69734e-13
-7.84586e-13
-7.99319e-13
-8.13934e-13
-8.28435e-13
-8.42828e-13
-8.57115e-13
-8.71302e-13
-8.85392e-13
-8.99388e-13
-9.13291e-13
-9.27104e-13
-9.40831e-13
-9.54477e-13
-9.68046e-13
-9.8154e-13
-9.94961e-13
-1.00831e-12
-1.02158e-12
-1.03479e-12
-1.04792e-12
-1.06098e-12
-1.07397e-12
-1.08689e-12
-1.09975e-12
-1.11254e-12
-1.12526e-12
-1.13791e-12
-1.1505e-12
-1.16302e-12
-1.17546e-12
-1.18783e-12
-1.20012e-12
-1.21233e-12
-1.22446e-12
-1.23652e-12
-1.2485e-12
-1.2604e-12
-1.27223e-12
-1.28397e-12
-1.29563e-12
-1.3072e-12
-1.31868e-12
-1.33006e-12
-1.34135e-12
-1.35255e-12
-1.36365e-12
-1.37466e-12
-1.38557e-12
-1.39638e-12
-1.4071e-12
-1.41771e-12
)
;
    }
    inandouthalf12
    {
        type            cyclic;
        value           nonuniform List<scalar> 
100
(
1.98212e-38
1.27325e-14
2.6765e-14
3.96173e-14
5.29178e-14
6.69693e-14
8.14248e-14
9.61097e-14
1.11013e-13
1.26152e-13
1.41537e-13
1.57164e-13
1.7302e-13
1.89091e-13
2.05362e-13
2.2182e-13
2.38452e-13
2.55243e-13
2.72174e-13
2.89228e-13
3.06387e-13
3.2363e-13
3.4094e-13
3.58299e-13
3.75688e-13
3.93091e-13
4.10487e-13
4.27863e-13
4.45203e-13
4.62492e-13
4.79715e-13
4.9686e-13
5.13916e-13
5.30873e-13
5.47721e-13
5.64452e-13
5.81059e-13
5.97537e-13
6.13882e-13
6.30091e-13
6.4616e-13
6.6209e-13
6.77879e-13
6.93527e-13
7.09037e-13
7.24412e-13
7.39652e-13
7.54758e-13
7.69734e-13
7.84586e-13
7.99319e-13
8.13934e-13
8.28435e-13
8.42828e-13
8.57115e-13
8.71302e-13
8.85392e-13
8.99388e-13
9.13291e-13
9.27104e-13
9.40831e-13
9.54477e-13
9.68046e-13
9.8154e-13
9.94961e-13
1.00831e-12
1.02158e-12
1.03479e-12
1.04792e-12
1.06098e-12
1.07397e-12
1.08689e-12
1.09975e-12
1.11254e-12
1.12526e-12
1.13791e-12
1.1505e-12
1.16302e-12
1.17546e-12
1.18783e-12
1.20012e-12
1.21233e-12
1.22446e-12
1.23652e-12
1.2485e-12
1.2604e-12
1.27223e-12
1.28397e-12
1.29563e-12
1.3072e-12
1.31868e-12
1.33006e-12
1.34135e-12
1.35255e-12
1.36365e-12
1.37466e-12
1.38557e-12
1.39638e-12
1.4071e-12
1.41771e-12
)
;
    }
    inandouthalf21
    {
        type            cyclic;
        value           nonuniform List<scalar> 
100
(
-1.42822e-12
-1.43863e-12
-1.44893e-12
-1.45913e-12
-1.46922e-12
-1.47922e-12
-1.48912e-12
-1.49894e-12
-1.50868e-12
-1.51835e-12
-1.52797e-12
-1.53756e-12
-1.54711e-12
-1.55664e-12
-1.56617e-12
-1.57569e-12
-1.58519e-12
-1.59468e-12
-1.60414e-12
-1.61354e-12
-1.62288e-12
-1.63213e-12
-1.6413e-12
-1.65041e-12
-1.65949e-12
-1.66861e-12
-1.67788e-12
-1.68744e-12
-1.69747e-12
-1.70818e-12
-1.71981e-12
-1.7326e-12
-1.74675e-12
-1.76236e-12
-1.77928e-12
-1.79689e-12
-1.81394e-12
-1.82868e-12
-1.83952e-12
-1.84578e-12
-1.84825e-12
-1.84882e-12
-1.84898e-12
-1.84915e-12
-4.06426e-08
-1.43286e-07
-2.48908e-07
-3.44507e-07
-4.30067e-07
-5.06888e-07
-5.76266e-07
-6.39309e-07
-6.97037e-07
-7.50035e-07
-7.98869e-07
-8.44034e-07
-8.85954e-07
-9.24986e-07
-9.61437e-07
-9.95568e-07
-1.0276e-06
-1.05774e-06
-1.08614e-06
-1.11294e-06
-1.13829e-06
-1.16227e-06
-1.18498e-06
-1.20651e-06
-1.22691e-06
-1.24624e-06
-1.26453e-06
-1.28184e-06
-1.29816e-06
-1.31353e-06
-1.32795e-06
-1.34141e-06
-1.35392e-06
-1.36546e-06
-1.37604e-06
-1.38565e-06
-1.3943e-06
-1.40201e-06
-1.40879e-06
-1.41469e-06
-1.41976e-06
-1.42408e-06
-1.42773e-06
-1.43079e-06
-1.43336e-06
-1.4355e-06
-1.4373e-06
-1.43882e-06
-1.44009e-06
-1.44116e-06
-1.44206e-06
-1.44281e-06
-1.44344e-06
-1.44396e-06
-1.44439e-06
-1.44474e-06
)
;
    }
    inandouthalf22
    {
        type            cyclic;
        value           nonuniform List<scalar> 
100
(
1.42822e-12
1.43863e-12
1.44893e-12
1.45913e-12
1.46922e-12
1.47922e-12
1.48912e-12
1.49894e-12
1.50868e-12
1.51835e-12
1.52797e-12
1.53756e-12
1.54711e-12
1.55664e-12
1.56617e-12
1.57569e-12
1.58519e-12
1.59468e-12
1.60414e-12
1.61354e-12
1.62288e-12
1.63213e-12
1.6413e-12
1.65041e-12
1.65949e-12
1.66861e-12
1.67788e-12
1.68744e-12
1.69747e-12
1.70818e-12
1.71981e-12
1.7326e-12
1.74675e-12
1.76236e-12
1.77928e-12
1.79689e-12
1.81394e-12
1.82868e-12
1.83952e-12
1.84578e-12
1.84825e-12
1.84882e-12
1.84898e-12
1.84915e-12
4.06426e-08
1.43286e-07
2.48908e-07
3.44507e-07
4.30067e-07
5.06888e-07
5.76266e-07
6.39309e-07
6.97037e-07
7.50035e-07
7.98869e-07
8.44034e-07
8.85954e-07
9.24986e-07
9.61437e-07
9.95568e-07
1.0276e-06
1.05774e-06
1.08614e-06
1.11294e-06
1.13829e-06
1.16227e-06
1.18498e-06
1.20651e-06
1.22691e-06
1.24624e-06
1.26453e-06
1.28184e-06
1.29816e-06
1.31353e-06
1.32795e-06
1.34141e-06
1.35392e-06
1.36546e-06
1.37604e-06
1.38565e-06
1.3943e-06
1.40201e-06
1.40879e-06
1.41469e-06
1.41976e-06
1.42408e-06
1.42773e-06
1.43079e-06
1.43336e-06
1.4355e-06
1.4373e-06
1.43882e-06
1.44009e-06
1.44116e-06
1.44206e-06
1.44281e-06
1.44344e-06
1.44396e-06
1.44439e-06
1.44474e-06
)
;
    }
    inandouthalf31
    {
        type            cyclic;
        value           nonuniform List<scalar> 
110
(
-1.44504e-06
-1.4746e-06
-1.50473e-06
-1.53543e-06
-1.56671e-06
-1.59858e-06
-1.63107e-06
-1.66419e-06
-1.69794e-06
-1.73235e-06
-1.76744e-06
-1.80321e-06
-1.83968e-06
-1.87687e-06
-1.9148e-06
-1.95347e-06
-1.99292e-06
-2.03316e-06
-2.0742e-06
-2.11607e-06
-2.15878e-06
-2.20235e-06
-2.24679e-06
-2.29214e-06
-2.33841e-06
-2.38561e-06
-2.43378e-06
-2.48292e-06
-2.53307e-06
-2.58424e-06
-2.63646e-06
-2.68976e-06
-2.74416e-06
-2.79969e-06
-2.85639e-06
-2.9143e-06
-2.97343e-06
-3.03598e-06
-3.09343e-06
-3.15104e-06
-3.20977e-06
-3.2696e-06
-3.33014e-06
-3.39252e-06
-3.4549e-06
-3.52012e-06
-3.58392e-06
-3.65266e-06
-3.72128e-06
-3.79019e-06
-3.86103e-06
-3.9333e-06
-4.00713e-06
-4.08259e-06
-4.15978e-06
-4.23881e-06
-4.31979e-06
-4.40286e-06
-4.48815e-06
-4.57581e-06
-4.66599e-06
-4.75884e-06
-4.85457e-06
-4.95302e-06
-5.05433e-06
-5.15802e-06
-5.26314e-06
-5.37e-06
-5.479e-06
-5.59021e-06
-5.70368e-06
-5.81945e-06
-5.93756e-06
-6.05808e-06
-6.18104e-06
-6.3065e-06
-6.43451e-06
-6.56511e-06
-6.69837e-06
-6.83433e-06
-6.97304e-06
-7.11458e-06
-7.25899e-06
-7.40632e-06
-7.55665e-06
-7.71003e-06
-7.86652e-06
-8.02619e-06
-8.1891e-06
-8.35532e-06
-8.52491e-06
-8.69795e-06
-8.87449e-06
-9.05462e-06
-9.2384e-06
-9.42592e-06
-9.61724e-06
-9.81244e-06
-1.00116e-05
-1.02148e-05
-1.04222e-05
-1.06337e-05
-1.08495e-05
-1.10697e-05
-1.12944e-05
-1.15237e-05
-1.17576e-05
-1.19962e-05
-1.22397e-05
-1.24882e-05
)
;
    }
    inandouthalf32
    {
        type            cyclic;
        value           nonuniform List<scalar> 
110
(
1.44504e-06
1.4746e-06
1.50473e-06
1.53543e-06
1.56671e-06
1.59858e-06
1.63107e-06
1.66419e-06
1.69794e-06
1.73235e-06
1.76744e-06
1.80321e-06
1.83968e-06
1.87687e-06
1.9148e-06
1.95347e-06
1.99292e-06
2.03316e-06
2.0742e-06
2.11607e-06
2.15878e-06
2.20235e-06
2.24679e-06
2.29214e-06
2.33841e-06
2.38561e-06
2.43378e-06
2.48292e-06
2.53307e-06
2.58424e-06
2.63646e-06
2.68976e-06
2.74416e-06
2.79969e-06
2.85639e-06
2.9143e-06
2.97343e-06
3.03598e-06
3.09343e-06
3.15104e-06
3.20977e-06
3.2696e-06
3.33014e-06
3.39252e-06
3.4549e-06
3.52012e-06
3.58392e-06
3.65266e-06
3.72128e-06
3.79019e-06
3.86103e-06
3.9333e-06
4.00713e-06
4.08259e-06
4.15978e-06
4.23881e-06
4.31979e-06
4.40286e-06
4.48815e-06
4.57581e-06
4.66599e-06
4.75884e-06
4.85457e-06
4.95302e-06
5.05433e-06
5.15802e-06
5.26314e-06
5.37e-06
5.479e-06
5.59021e-06
5.70368e-06
5.81945e-06
5.93756e-06
6.05808e-06
6.18104e-06
6.3065e-06
6.43451e-06
6.56511e-06
6.69837e-06
6.83433e-06
6.97304e-06
7.11458e-06
7.25899e-06
7.40632e-06
7.55665e-06
7.71003e-06
7.86652e-06
8.02619e-06
8.1891e-06
8.35532e-06
8.52491e-06
8.69795e-06
8.87449e-06
9.05462e-06
9.2384e-06
9.42592e-06
9.61724e-06
9.81244e-06
1.00116e-05
1.02148e-05
1.04222e-05
1.06337e-05
1.08495e-05
1.10697e-05
1.12944e-05
1.15237e-05
1.17576e-05
1.19962e-05
1.22397e-05
1.24882e-05
)
;
    }
    inandouthalf41
    {
        type            cyclic;
        value           nonuniform List<scalar> 
50
(
-1.11782e-05
-1.11782e-05
-1.11782e-05
-1.11782e-05
-1.11782e-05
-1.11782e-05
-1.11782e-05
-1.11782e-05
-1.11782e-05
-1.11782e-05
-1.11782e-05
-1.11782e-05
-1.11782e-05
-1.11782e-05
-1.11782e-05
-1.11782e-05
-1.11782e-05
-1.11782e-05
-1.11782e-05
-1.11782e-05
-1.11782e-05
-1.11782e-05
-1.11782e-05
-1.11782e-05
-1.11782e-05
-1.11782e-05
-1.11782e-05
-1.11782e-05
-1.11782e-05
-1.11782e-05
-1.11782e-05
-1.11782e-05
-1.11782e-05
-1.11782e-05
-1.11782e-05
-1.11782e-05
-1.11782e-05
-1.11782e-05
-1.11782e-05
-1.11782e-05
-1.11782e-05
-1.11782e-05
-1.11782e-05
-1.11782e-05
-1.11782e-05
-1.11782e-05
-1.11782e-05
-1.11782e-05
-1.1178e-05
-1.1175e-05
)
;
    }
    inandouthalf42
    {
        type            cyclic;
        value           nonuniform List<scalar> 
50
(
1.11782e-05
1.11782e-05
1.11782e-05
1.11782e-05
1.11782e-05
1.11782e-05
1.11782e-05
1.11782e-05
1.11782e-05
1.11782e-05
1.11782e-05
1.11782e-05
1.11782e-05
1.11782e-05
1.11782e-05
1.11782e-05
1.11782e-05
1.11782e-05
1.11782e-05
1.11782e-05
1.11782e-05
1.11782e-05
1.11782e-05
1.11782e-05
1.11782e-05
1.11782e-05
1.11782e-05
1.11782e-05
1.11782e-05
1.11782e-05
1.11782e-05
1.11782e-05
1.11782e-05
1.11782e-05
1.11782e-05
1.11782e-05
1.11782e-05
1.11782e-05
1.11782e-05
1.11782e-05
1.11782e-05
1.11782e-05
1.11782e-05
1.11782e-05
1.11782e-05
1.11782e-05
1.11782e-05
1.11782e-05
1.1178e-05
1.1175e-05
)
;
    }
    top
    {
        type            symmetryPlane;
        value           uniform 0;
    }
    walls
    {
        type            fixedValue;
        value           uniform 0;
    }
    frontAndBackPlanes
    {
        type            empty;
        value           nonuniform 0();
    }
}


// ************************************************************************* //
