/*--------------------------------*- C++ -*----------------------------------*\
| =========                 |                                                 |
| \\      /  F ield         | OpenFOAM: The Open Source CFD Toolbox           |
|  \\    /   O peration     | Version:  2.4.x                                 |
|   \\  /    A nd           | Web:      www.OpenFOAM.org                      |
|    \\/     M anipulation  |                                                 |
\*---------------------------------------------------------------------------*/
FoamFile
{
    version     2.0;
    format      ascii;
    class       volVectorField;
    location    "8.75";
    object      susb;
}
// * * * * * * * * * * * * * * * * * * * * * * * * * * * * * * * * * * * * * //

dimensions      [0 1 -2 0 0 0 0];

internalField   nonuniform List<vector> 
360
(
(0 5.91744e-18 0)
(0 6.60388e-18 0)
(0 3.64466e-20 0)
(0 -9.16935e-19 0)
(-3.69858e-31 -3.99425e-19 0)
(-3.69823e-31 -2.18432e-19 0)
(-3.6978e-31 -2.74372e-19 0)
(0 -3.13356e-19 0)
(-7.39334e-31 -3.203e-19 0)
(0 -3.24463e-19 0)
(-3.69551e-31 -3.2631e-19 0)
(0 -3.27881e-19 0)
(-3.69433e-31 -3.30792e-19 0)
(0 -3.33764e-19 0)
(0 -3.37678e-19 0)
(0 -3.41618e-19 0)
(0 -3.4468e-19 0)
(-3.69128e-31 -3.47366e-19 0)
(0 -3.51487e-19 0)
(0 -3.54274e-19 0)
(0 -3.57173e-19 0)
(-3.68874e-31 -3.61448e-19 0)
(0 -3.64445e-19 0)
(0 -3.67957e-19 0)
(0 -3.71541e-19 0)
(-7.3722e-31 -3.74347e-19 0)
(0 -3.78345e-19 0)
(0 -3.82498e-19 0)
(0 -3.85317e-19 0)
(0 -3.8867e-19 0)
(0 -3.93575e-19 0)
(0 -3.95882e-19 0)
(0 -4.00386e-19 0)
(0 -4.04983e-19 0)
(0 -4.07672e-19 0)
(3.67905e-31 -4.11778e-19 0)
(0 -4.1567e-19 0)
(0 -4.21747e-19 0)
(0 -4.23328e-19 0)
(0 -4.28127e-19 0)
(0 -4.34857e-19 0)
(0 -4.3579e-19 0)
(3.6737e-31 -4.41861e-19 0)
(0 -4.474e-19 0)
(0 -4.50713e-19 0)
(0 -4.57396e-19 0)
(0 -4.59879e-19 0)
(0 -4.64071e-19 0)
(0 -4.73424e-19 0)
(0 -4.76393e-19 0)
(3.66709e-31 -4.80369e-19 0)
(0 -4.87439e-19 0)
(0 -4.93094e-19 0)
(0 -4.97542e-19 0)
(0 -5.04597e-19 0)
(0 -5.10327e-19 0)
(0 -5.15723e-19 0)
(0 -5.23612e-19 0)
(0 -5.26589e-19 0)
(0 -5.35516e-19 0)
(0 -5.42504e-19 0)
(0 -5.48313e-19 0)
(0 -5.5655e-19 0)
(0 -5.62615e-19 0)
(0 -5.69631e-19 0)
(0 -5.77279e-19 0)
(0 -5.86099e-19 0)
(0 -5.9328e-19 0)
(0 -5.98936e-19 0)
(0 -6.08638e-19 0)
(0 -6.20295e-19 0)
(0 -6.25227e-19 0)
(0 -6.3383e-19 0)
(0 -6.44992e-19 0)
(0 -6.54563e-19 0)
(0 -6.63572e-19 0)
(0 -6.71643e-19 0)
(0 -6.82751e-19 0)
(0 -6.93695e-19 0)
(0 -7.03445e-19 0)
(0 -7.14136e-19 0)
(0 -7.2633e-19 0)
(0 -7.379e-19 0)
(0 -7.49846e-19 0)
(0 -7.62172e-19 0)
(0 -7.74944e-19 0)
(0 -7.87856e-19 0)
(0 -8.00735e-19 0)
(0 -8.14594e-19 0)
(0 -8.28953e-19 0)
(0 -8.43545e-19 0)
(0 -8.58949e-19 0)
(0 -8.75048e-19 0)
(0 -8.91474e-19 0)
(0 -9.08429e-19 0)
(0 -9.25937e-19 0)
(0 -9.4396e-19 0)
(0 -9.62575e-19 0)
(0 -9.81916e-19 0)
(0 -1.00201e-18 0)
(0 -1.02288e-18 0)
(0 -1.04462e-18 0)
(0 -1.06722e-18 0)
(0 -1.09068e-18 0)
(0 -1.11505e-18 0)
(0 -1.14038e-18 0)
(0 -1.16671e-18 0)
(0 -1.19409e-18 0)
(0 -1.2226e-18 0)
(0 -1.25227e-18 0)
(0 -1.28316e-18 0)
(0 -1.31534e-18 0)
(0 -1.34887e-18 0)
(0 -1.38383e-18 0)
(0 -1.42032e-18 0)
(0 -1.45843e-18 0)
(0 -1.49829e-18 0)
(0 -1.54006e-18 0)
(0 -1.58393e-18 0)
(0 -1.63008e-18 0)
(0 -1.67875e-18 0)
(0 -1.73012e-18 0)
(0 -1.78441e-18 0)
(0 -1.84187e-18 0)
(0 -1.90295e-18 0)
(0 -1.96844e-18 0)
(0 -2.03945e-18 0)
(0 -2.11705e-18 0)
(0 -2.20138e-18 0)
(0 -2.291e-18 0)
(0 -1.42103e-18 0)
(0 -5.08774e-18 0)
(0 -5.62165e-17 0)
(0 -6.78608e-16 0)
(0 -8.61724e-15 0)
(0 -1.15975e-13 0)
(0 -1.69314e-12 0)
(0 -2.78321e-11 0)
(0 -5.25986e-10 0)
(0 -1.09916e-08 0)
(0 -2.40046e-07 0)
(0 -6.52882e-06 0)
(0 -0.00170014 0)
(0 -0.814129 0)
(0 -5.14339 0)
(0 -4.83289 0)
(0 -2.81633 0)
(0 -1.98852 0)
(0 -1.63439 0)
(0 -1.4572 0)
(0 -1.35219 0)
(0 -1.28312 0)
(0 -1.2732 0)
(0 -1.23055 0)
(0 -1.17693 0)
(0 -1.11673 0)
(0 -1.0521 0)
(0 -0.984662 0)
(0 -0.915858 0)
(0 -0.846977 0)
(0 -0.779116 0)
(0 -0.713072 0)
(0 -0.649553 0)
(0 -0.589119 0)
(0 -0.532057 0)
(0 -0.478571 0)
(0 -0.428757 0)
(0 -0.382622 0)
(0 -0.340107 0)
(0 -0.301104 0)
(0 -0.265477 0)
(0 -0.233063 0)
(0 -0.203697 0)
(0 -0.177201 0)
(0 -0.153397 0)
(0 -0.132111 0)
(0 -0.11317 0)
(0 -0.0964028 0)
(0 -0.0816424 0)
(0 -0.068726 0)
(0 -0.0575018 0)
(0 -0.0478396 0)
(0 -0.0396219 0)
(0 -0.0327081 0)
(0 -0.0268984 0)
(0 -0.0219553 0)
(0 -0.0176837 0)
(0 -0.0139954 0)
(0 -0.0108926 0)
(0 -0.00839215 0)
(0 -0.00646563 0)
(0 -0.00503171 0)
(0 -0.00398381 0)
(0 -0.00321951 0)
(0 -0.00265601 0)
(0 -0.00223276 0)
(0 -0.00190775 0)
(0 -0.00165252 0)
(0 -0.00144774 0)
(0 -0.00128039 0)
(0 -0.00114116 0)
(0 -0.00102259 0)
(-4.57871e-19 -0.000919718 0)
(0 -0.000829832 0)
(0 -0.000750868 0)
(4.70794e-19 -0.000681148 0)
(0 -0.000619257 0)
(-2.36921e-19 -0.000564081 0)
(0 -0.000514734 0)
(2.36313e-19 -0.000470424 0)
(0 -0.000430485 0)
(0 -0.000394241 0)
(0 -0.000360918 0)
(1.14705e-19 -0.000330074 0)
(0 -0.000301407 0)
(0 -0.000274363 0)
(0 -0.000248493 0)
(0 -0.000223691 0)
(0 -0.000200039 0)
(-1.03971e-19 -0.000177439 0)
(0 -0.000155841 0)
(-4.96447e-20 -0.000135626 0)
(0 -0.000117047 0)
(0 -0.000100052 0)
(0 -8.47456e-05 0)
(0 -7.11594e-05 0)
(0 -5.93014e-05 0)
(0 -4.89629e-05 0)
(2.00133e-20 -4.0156e-05 0)
(9.63148e-21 -3.25924e-05 0)
(0 -2.64271e-05 0)
(0 -2.11044e-05 0)
(0 -1.66045e-05 0)
(0 -1.36147e-05 0)
(0 -1.06783e-05 0)
(0 -7.0039e-06 0)
(0 -5.74031e-06 0)
(0 -5.5397e-06 0)
(0 -4.27486e-06 0)
(0 -3.11733e-06 0)
(0 -2.25948e-06 0)
(0 -1.64274e-06 0)
(0 -1.12147e-06 0)
(-1.62817e-22 -8.46373e-07 0)
(7.09326e-23 -5.08319e-07 0)
(0 -4.06937e-07 0)
(0 -2.27675e-07 0)
(-1.55498e-34 -5.70983e-08 0)
(0 -5.59628e-19 0)
(0 -3.25063e-30 0)
(-2.18355e-61 -1.86373e-41 0)
(0 -7.21525e-46 0)
(0 -3.82688e-46 0)
(0 -1.25456e-46 0)
(0 -5.91288e-47 0)
(0 -3.44039e-47 0)
(0 -2.26533e-47 0)
(0 -1.13333e-47 0)
(0 -4.22305e-48 0)
(0 -1.77961e-48 0)
(0 -8.11947e-49 0)
(0 -3.68896e-49 0)
(0 -1.41307e-49 0)
(0 -4.88136e-50 0)
(0 -1.44341e-50 0)
(0 -2.35277e-51 0)
(1.27308e-68 -8.93972e-53 0)
(0 -7.94363e-55 0)
(0 -5.46976e-57 0)
(0 -3.6634e-59 0)
(0 -2.40034e-61 0)
(0 -1.53652e-63 0)
(0 -9.47626e-66 0)
(0 -3.40023e-68 0)
(0 -3.02951e-70 0)
(0 -1.20897e-70 0)
(0 -4.79894e-71 0)
(0 -1.86073e-71 0)
(0 -7.04123e-72 0)
(0 -2.59794e-72 0)
(0 -9.33668e-73 0)
(0 -3.26492e-73 0)
(0 -1.10962e-73 0)
(0 -3.66069e-74 0)
(0 -1.17076e-74 0)
(0 -3.62467e-75 0)
(1.38e-91 -1.08467e-75 0)
(0 -3.13211e-76 0)
(0 -8.71148e-77 0)
(0 -2.32919e-77 0)
(0 -5.97353e-78 0)
(0 -1.46599e-78 0)
(0 -3.43363e-79 0)
(0 -7.65272e-80 0)
(0 -1.61765e-80 0)
(0 -3.23101e-81 0)
(5.38248e-98 -6.07211e-82 0)
(0 -1.06851e-82 0)
(0 -1.75071e-83 0)
(-1.97953e-100 -2.65327e-84 0)
(0 -3.69049e-85 0)
(0 -4.66676e-86 0)
(0 -5.30296e-87 0)
(0 -5.33592e-88 0)
(0 -4.66415e-89 0)
(0 -3.45084e-90 0)
(0 -2.0819e-91 0)
(0 -9.66282e-93 0)
(0 -3.10996e-94 0)
(0 -5.4541e-96 0)
(0 -1.21578e-98 0)
(0 -6.07548e-104 0)
(0 -4.65916e-106 0)
(0 -1.77053e-108 0)
(0 -6.3756e-119 0)
(0 -1.15225e-129 0)
(0 -1.53435e-140 0)
(0 -1.46211e-151 0)
(0 -1.21213e-162 0)
(0 -7.51967e-174 0)
(0 -4.04923e-185 0)
(0 -2.14763e-195 0)
(0 -9.5746e-206 0)
(0 -6.83627e-214 0)
(0 -2.80577e-224 0)
(0 -2.35133e-232 0)
(0 -1.14015e-242 0)
(0 -8.09175e-251 0)
(0 -4.83273e-261 0)
(0 -2.78735e-269 0)
(0 -3.12927e-279 0)
(0 -9.79495e-288 0)
(0 -2.08797e-297 0)
(0 -3.54337e-306 0)
(0 -1.03629e-315 0)
(0 -0 0)
(0 -0 0)
(0 0 0)
(0 0 0)
(0 0 0)
(0 0 0)
(0 0 0)
(0 0 0)
(0 0 0)
(0 0 0)
(0 0 0)
(0 0 0)
(0 0 0)
(0 0 0)
(0 0 0)
(0 0 0)
(0 0 0)
(0 0 0)
(0 0 0)
(0 0 0)
(0 0 0)
(0 0 0)
(0 0 0)
(0 0 0)
(0 0 0)
)
;

boundaryField
{
    inandouthalf11
    {
        type            cyclic;
    }
    inandouthalf12
    {
        type            cyclic;
    }
    inandouthalf21
    {
        type            cyclic;
    }
    inandouthalf22
    {
        type            cyclic;
    }
    inandouthalf31
    {
        type            cyclic;
    }
    inandouthalf32
    {
        type            cyclic;
    }
    inandouthalf41
    {
        type            cyclic;
    }
    inandouthalf42
    {
        type            cyclic;
    }
    top
    {
        type            symmetryPlane;
    }
    walls
    {
        type            zeroGradient;
    }
    frontAndBackPlanes
    {
        type            empty;
    }
}


// ************************************************************************* //
