/*--------------------------------*- C++ -*----------------------------------*\
| =========                 |                                                 |
| \\      /  F ield         | OpenFOAM: The Open Source CFD Toolbox           |
|  \\    /   O peration     | Version:  2.4.x                                 |
|   \\  /    A nd           | Web:      www.OpenFOAM.org                      |
|    \\/     M anipulation  |                                                 |
\*---------------------------------------------------------------------------*/
FoamFile
{
    version     2.0;
    format      ascii;
    class       volTensorField;
    location    "8.75";
    object      Taus;
}
// * * * * * * * * * * * * * * * * * * * * * * * * * * * * * * * * * * * * * //

dimensions      [0 2 -2 0 0 0 0];

internalField   nonuniform List<tensor> 
360
(
(0 0.0287158 0 0.0287158 -0.203016 0 0 0 0)
(0 0.042142 0 0.042142 -0.255518 0 0 0 0)
(0 0.0506761 0 0.0506761 -0.25841 0 0 0 0)
(0 0.0491061 0 0.0491061 -0.252175 0 0 0 0)
(-2.20173e-17 0.0477015 0 0.0477015 -0.249564 0 0 0 0)
(-2.10857e-17 0.0476122 0 0.0476122 -0.248508 0 0 0 0)
(-2.06365e-17 0.0476335 0 0.0476335 -0.24715 0 0 0 0)
(0 0.0474752 0 0.0474752 -0.245522 0 0 0 0)
(-3.97171e-17 0.0472576 0 0.0472576 -0.243887 0 0 0 0)
(0 0.0470296 0 0.0470296 -0.242246 0 0 0 0)
(-3.81008e-17 0.0467976 0 0.0467976 -0.240599 0 0 0 0)
(0 0.046569 0 0.046569 -0.238963 0 0 0 0)
(-3.66458e-17 0.0463391 0 0.0463391 -0.237323 0 0 0 0)
(0 0.0461075 0 0.0461075 -0.235683 0 0 0 0)
(0 0.0458719 0 0.0458719 -0.23404 0 0 0 0)
(0 0.0456308 0 0.0456308 -0.23239 0 0 0 0)
(0 0.045386 0 0.045386 -0.230737 0 0 0 0)
(-6.75929e-17 0.0451403 0 0.0451403 -0.229084 0 0 0 0)
(0 0.0448923 0 0.0448923 -0.227431 0 0 0 0)
(0 0.0446397 0 0.0446397 -0.225767 0 0 0 0)
(0 0.0443889 0 0.0443889 -0.224115 0 0 0 0)
(-1.28986e-16 0.0441335 0 0.0441335 -0.222451 0 0 0 0)
(0 0.0438759 0 0.0438759 -0.220787 0 0 0 0)
(0 0.0436172 0 0.0436172 -0.219123 0 0 0 0)
(0 0.0433559 0 0.0433559 -0.217455 0 0 0 0)
(-6.25275e-17 0.043094 0 0.043094 -0.215786 0 0 0 0)
(0 0.0428317 0 0.0428317 -0.214121 0 0 0 0)
(0 0.0425649 0 0.0425649 -0.212445 0 0 0 0)
(0 0.0422978 0 0.0422978 -0.210772 0 0 0 0)
(0 0.0420312 0 0.0420312 -0.2091 0 0 0 0)
(0 0.0417623 0 0.0417623 -0.207426 0 0 0 0)
(0 0.0414906 0 0.0414906 -0.205741 0 0 0 0)
(0 0.0412229 0 0.0412229 -0.204075 0 0 0 0)
(0 0.0409471 0 0.0409471 -0.202383 0 0 0 0)
(0 0.0406752 0 0.0406752 -0.200709 0 0 0 0)
(1.22372e-16 0.0404013 0 0.0404013 -0.199022 0 0 0 0)
(0 0.0401285 0 0.0401285 -0.197344 0 0 0 0)
(0 0.0398513 0 0.0398513 -0.195657 0 0 0 0)
(0 0.0395725 0 0.0395725 -0.193961 0 0 0 0)
(0 0.0393007 0 0.0393007 -0.19229 0 0 0 0)
(0 0.0390188 0 0.0390188 -0.190588 0 0 0 0)
(0 0.0387399 0 0.0387399 -0.188897 0 0 0 0)
(2.47107e-16 0.0384651 0 0.0384651 -0.187217 0 0 0 0)
(0 0.038182 0 0.038182 -0.185511 0 0 0 0)
(0 0.0379024 0 0.0379024 -0.183822 0 0 0 0)
(0 0.0376201 0 0.0376201 -0.182124 0 0 0 0)
(0 0.0373364 0 0.0373364 -0.180418 0 0 0 0)
(0 0.03706 0 0.03706 -0.178732 0 0 0 0)
(0 0.0367762 0 0.0367762 -0.177029 0 0 0 0)
(0 0.0364872 0 0.0364872 -0.175313 0 0 0 0)
(2.49159e-16 0.036207 0 0.036207 -0.173621 0 0 0 0)
(0 0.035922 0 0.035922 -0.17191 0 0 0 0)
(0 0.0356364 0 0.0356364 -0.170204 0 0 0 0)
(0 0.0353497 0 0.0353497 -0.168489 0 0 0 0)
(0 0.0350658 0 0.0350658 -0.166788 0 0 0 0)
(0 0.0347754 0 0.0347754 -0.165062 0 0 0 0)
(0 0.0344905 0 0.0344905 -0.163359 0 0 0 0)
(0 0.0342 0 0.0342 -0.161634 0 0 0 0)
(0 0.0339124 0 0.0339124 -0.159916 0 0 0 0)
(0 0.0336277 0 0.0336277 -0.158207 0 0 0 0)
(0 0.0333344 0 0.0333344 -0.156472 0 0 0 0)
(0 0.0330464 0 0.0330464 -0.154758 0 0 0 0)
(0 0.0327538 0 0.0327538 -0.153025 0 0 0 0)
(0 0.0324628 0 0.0324628 -0.151301 0 0 0 0)
(0 0.0321716 0 0.0321716 -0.14957 0 0 0 0)
(0 0.0318812 0 0.0318812 -0.147843 0 0 0 0)
(0 0.0315879 0 0.0315879 -0.146108 0 0 0 0)
(0 0.0312937 0 0.0312937 -0.144371 0 0 0 0)
(0 0.0310024 0 0.0310024 -0.142635 0 0 0 0)
(0 0.0307133 0 0.0307133 -0.140906 0 0 0 0)
(0 0.0304165 0 0.0304165 -0.13916 0 0 0 0)
(0 0.0301195 0 0.0301195 -0.137412 0 0 0 0)
(0 0.0298297 0 0.0298297 -0.13568 0 0 0 0)
(0 0.029534 0 0.029534 -0.133928 0 0 0 0)
(0 0.0292379 0 0.0292379 -0.132184 0 0 0 0)
(0 0.0289398 0 0.0289398 -0.130429 0 0 0 0)
(0 0.0286456 0 0.0286456 -0.128683 0 0 0 0)
(0 0.028351 0 0.028351 -0.126932 0 0 0 0)
(0 0.0280543 0 0.0280543 -0.125177 0 0 0 0)
(0 0.0277576 0 0.0277576 -0.123421 0 0 0 0)
(0 0.0274623 0 0.0274623 -0.121667 0 0 0 0)
(0 0.0271656 0 0.0271656 -0.119907 0 0 0 0)
(0 0.0268677 0 0.0268677 -0.118146 0 0 0 0)
(0 0.0265697 0 0.0265697 -0.116385 0 0 0 0)
(0 0.0262711 0 0.0262711 -0.11462 0 0 0 0)
(0 0.0259722 0 0.0259722 -0.112855 0 0 0 0)
(0 0.0256728 0 0.0256728 -0.111088 0 0 0 0)
(0 0.0253738 0 0.0253738 -0.10932 0 0 0 0)
(0 0.0250749 0 0.0250749 -0.107551 0 0 0 0)
(0 0.0247755 0 0.0247755 -0.105781 0 0 0 0)
(0 0.0244758 0 0.0244758 -0.104009 0 0 0 0)
(0 0.0241758 0 0.0241758 -0.102236 0 0 0 0)
(0 0.0238749 0 0.0238749 -0.100462 0 0 0 0)
(0 0.0235731 0 0.0235731 -0.0986855 0 0 0 0)
(0 0.0232707 0 0.0232707 -0.0969083 0 0 0 0)
(0 0.0229675 0 0.0229675 -0.0951299 0 0 0 0)
(0 0.0226638 0 0.0226638 -0.0933505 0 0 0 0)
(0 0.0223596 0 0.0223596 -0.0915704 0 0 0 0)
(0 0.0220549 0 0.0220549 -0.0897896 0 0 0 0)
(0 0.0217496 0 0.0217496 -0.0880081 0 0 0 0)
(0 0.0214436 0 0.0214436 -0.0862259 0 0 0 0)
(0 0.0211368 0 0.0211368 -0.0844433 0 0 0 0)
(0 0.0208291 0 0.0208291 -0.0826601 0 0 0 0)
(0 0.0205206 0 0.0205206 -0.0808766 0 0 0 0)
(0 0.0202111 0 0.0202111 -0.0790929 0 0 0 0)
(0 0.0199007 0 0.0199007 -0.0773093 0 0 0 0)
(0 0.0195894 0 0.0195894 -0.0755258 0 0 0 0)
(0 0.0192772 0 0.0192772 -0.0737427 0 0 0 0)
(0 0.0189641 0 0.0189641 -0.0719602 0 0 0 0)
(0 0.01865 0 0.01865 -0.0701785 0 0 0 0)
(0 0.0183349 0 0.0183349 -0.0683979 0 0 0 0)
(0 0.018019 0 0.018019 -0.0666185 0 0 0 0)
(0 0.0177022 0 0.0177022 -0.0648406 0 0 0 0)
(0 0.0173847 0 0.0173847 -0.0630646 0 0 0 0)
(0 0.0170667 0 0.0170667 -0.0612907 0 0 0 0)
(0 0.0167484 0 0.0167484 -0.0595191 0 0 0 0)
(0 0.0164302 0 0.0164302 -0.0577503 0 0 0 0)
(0 0.0161125 0 0.0161125 -0.0559844 0 0 0 0)
(0 0.0157957 0 0.0157957 -0.0542215 0 0 0 0)
(0 0.0154802 0 0.0154802 -0.0524615 0 0 0 0)
(0 0.0151664 0 0.0151664 -0.0507042 0 0 0 0)
(0 0.0148545 0 0.0148545 -0.0489491 0 0 0 0)
(0 0.0145449 0 0.0145449 -0.0471953 0 0 0 0)
(0 0.0142374 0 0.0142374 -0.0454421 0 0 0 0)
(0 0.0139321 0 0.0139321 -0.0436887 0 0 0 0)
(0 0.0136283 0 0.0136283 -0.0419346 0 0 0 0)
(0 0.0133249 0 0.0133249 -0.0401799 0 0 0 0)
(0 0.0130204 0 0.0130204 -0.0384254 0 0 0 0)
(0 0.0127133 0 0.0127133 -0.0366727 0 0 0 0)
(0 0.0124035 0 0.0124035 -0.0349244 0 0 0 0)
(0 0.012093 0 0.012093 -0.0331837 0 0 0 0)
(0 0.0117842 0 0.0117842 -0.031454 0 0 0 0)
(0 0.011475 0 0.011475 -0.0297366 0 0 0 0)
(0 0.0111568 0 0.0111568 -0.0280284 0 0 0 0)
(0 0.0108236 0 0.0108236 -0.0263243 0 0 0 0)
(0 0.0104838 0 0.0104838 -0.0246234 0 0 0 0)
(0 0.0101485 0 0.0101485 -0.0229271 0 0 0 0)
(0 0.00980214 0 0.00980214 -0.0212283 0 0 0 0)
(0 0.00939911 0 0.00939911 -0.0195012 0 0 0 0)
(0 0.00893471 0 0.00893471 -0.0176859 0 0 0 0)
(0 0.00860562 0 0.00860562 -0.0156277 0 0 0 0)
(0 0.00940896 0 0.00940896 -0.0114518 0 0 0 0)
(0 0.010353 0 0.010353 0.00217705 0 0 0 0)
(0 0.00319153 0 0.00319153 3.29367e-05 0 0 0 0)
(0 0.00370652 0 0.00370652 8.21982e-05 0 0 0 0)
(0 0.00488661 0 0.00488661 7.66276e-05 0 0 0 0)
(0 0.00472423 0 0.00472423 2.13287e-05 0 0 0 0)
(0 0.00427419 0 0.00427419 2.3385e-05 0 0 0 0)
(0 0.00383926 0 0.00383926 3.28015e-05 0 0 0 0)
(0 0.00346161 0 0.00346161 4.02843e-05 0 0 0 0)
(0 0.00314592 0 0.00314592 4.44142e-05 0 0 0 0)
(0 0.00289112 0 0.00289112 4.42071e-05 0 0 0 0)
(0 0.0026999 0 0.0026999 4.23244e-05 0 0 0 0)
(0 0.00255221 0 0.00255221 4.17033e-05 0 0 0 0)
(0 0.0024431 0 0.0024431 4.05712e-05 0 0 0 0)
(0 0.00236787 0 0.00236787 3.98552e-05 0 0 0 0)
(0 0.0023226 0 0.0023226 3.99917e-05 0 0 0 0)
(0 0.00230419 0 0.00230419 4.1169e-05 0 0 0 0)
(0 0.00231027 0 0.00231027 4.34483e-05 0 0 0 0)
(0 0.00233908 0 0.00233908 4.68429e-05 0 0 0 0)
(0 0.0023894 0 0.0023894 5.1358e-05 0 0 0 0)
(0 0.0024605 0 0.0024605 5.7015e-05 0 0 0 0)
(0 0.00255195 0 0.00255195 6.38597e-05 0 0 0 0)
(0 0.00266384 0 0.00266384 7.19841e-05 0 0 0 0)
(0 0.00279657 0 0.00279657 8.15169e-05 0 0 0 0)
(0 0.00295085 0 0.00295085 9.26202e-05 0 0 0 0)
(0 0.00312774 0 0.00312774 0.000105495 0 0 0 0)
(0 0.00332854 0 0.00332854 0.000120381 0 0 0 0)
(0 0.00355485 0 0.00355485 0.000137555 0 0 0 0)
(0 0.00380844 0 0.00380844 0.00015734 0 0 0 0)
(0 0.00409126 0 0.00409126 0.000180103 0 0 0 0)
(0 0.00440527 0 0.00440527 0.000206258 0 0 0 0)
(0 0.00475238 0 0.00475238 0.000236275 0 0 0 0)
(0 0.00513429 0 0.00513429 0.000270658 0 0 0 0)
(0 0.00555228 0 0.00555228 0.000309924 0 0 0 0)
(0 0.006007 0 0.006007 0.00035454 0 0 0 0)
(0 0.00649822 0 0.00649822 0.000404783 0 0 0 0)
(0 0.00702457 0 0.00702457 0.000460498 0 0 0 0)
(0 0.00758333 0 0.00758333 0.000520753 0 0 0 0)
(0 0.00817023 0 0.00817023 0.000583376 0 0 0 0)
(0 0.00877943 0 0.00877943 0.000643931 0 0 0 0)
(0 0.00940429 0 0.00940429 0.000692676 0 0 0 0)
(0 0.0100399 0 0.0100399 0.000707765 0 0 0 0)
(0 0.0106883 0 0.0106883 0.000646001 0 0 0 0)
(0 0.0113617 0 0.0113617 0.000438485 0 0 0 0)
(0 0.0120795 0 0.0120795 7.99673e-07 0 0 0 0)
(0 0.0128521 0 0.0128521 -0.000739647 0 0 0 0)
(0 0.0136613 0 0.0136613 -0.00180854 0 0 0 0)
(0 0.0144493 0 0.0144493 -0.00316018 0 0 0 0)
(0 0.01513 0 0.01513 -0.00468201 0 0 0 0)
(0 0.0156165 0 0.0156165 -0.00623089 0 0 0 0)
(0 0.0158488 0 0.0158488 -0.00767989 0 0 0 0)
(0 0.0158044 0 0.0158044 -0.00894722 0 0 0 0)
(0 0.0154926 0 0.0154926 -0.00999802 0 0 0 0)
(0 0.0149431 0 0.0149431 -0.0108303 0 0 0 0)
(0 0.0141942 0 0.0141942 -0.011459 0 0 0 0)
(0 0.0132873 0 0.0132873 -0.0119051 0 0 0 0)
(0 0.0122628 0 0.0122628 -0.0121897 0 0 0 0)
(0 0.0111591 0 0.0111591 -0.012332 0 0 0 0)
(0 0.0100117 0 0.0100117 -0.012348 0 0 0 0)
(0 0.00884929 0 0.00884929 -0.0122514 0 0 0 0)
(0 0.00766074 0 0.00766074 -0.0120519 0 0 0 0)
(-4.07183e-15 0.00641963 0 0.00641963 -0.0117533 0 0 0 0)
(0 0.00513243 0 0.00513243 -0.0113602 0 0 0 0)
(0 0.00380986 0 0.00380986 -0.0108774 0 0 0 0)
(4.80863e-15 0.00246239 0 0.00246239 -0.0103107 0 0 0 0)
(0 0.00110044 0 0.00110044 -0.00966669 0 0 0 0)
(-5.32259e-15 -0.000266078 0 -0.000266078 -0.00895302 0 0 0 0)
(0 -0.00162737 0 -0.00162737 -0.00817943 0 0 0 0)
(1.17204e-14 -0.00297394 0 -0.00297394 -0.00735808 0 0 0 0)
(0 -0.00429654 0 -0.00429654 -0.00650401 0 0 0 0)
(0 -0.00558629 0 -0.00558629 -0.00563536 0 0 0 0)
(0 -0.00683435 0 -0.00683435 -0.00477056 0 0 0 0)
(1.406e-14 -0.00803169 0 -0.00803169 -0.00392815 0 0 0 0)
(0 -0.00916992 0 -0.00916992 -0.00313048 0 0 0 0)
(0 -0.0102405 0 -0.0102405 -0.00240044 0 0 0 0)
(0 -0.0112335 0 -0.0112335 -0.00175562 0 0 0 0)
(0 -0.0121378 0 -0.0121378 -0.0012088 0 0 0 0)
(0 -0.0129425 0 -0.0129425 -0.000772658 0 0 0 0)
(0 -0.0136361 0 -0.0136361 -0.000456738 0 0 0 0)
(0 -0.0142039 0 -0.0142039 -0.000257736 0 0 0 0)
(-1.90362e-14 -0.014631 0 -0.014631 -0.000166753 0 0 0 0)
(0 -0.0149064 0 -0.0149064 -0.000180865 0 0 0 0)
(-1.98296e-14 -0.0150188 0 -0.0150188 -0.000292622 0 0 0 0)
(0 -0.0149563 0 -0.0149563 -0.000487542 0 0 0 0)
(0 -0.0147103 0 -0.0147103 -0.000750284 0 0 0 0)
(0 -0.0142733 0 -0.0142733 -0.00107156 0 0 0 0)
(0 -0.0136389 0 -0.0136389 -0.00143209 0 0 0 0)
(0 -0.0127974 0 -0.0127974 -0.00181774 0 0 0 0)
(1.89674e-14 -0.0117418 0 -0.0117418 -0.00219197 0 0 0 0)
(0 -0.0104643 0 -0.0104643 -0.00256614 0 0 0 0)
(0 -0.00896073 0 -0.00896073 -0.00290923 0 0 0 0)
(0 -0.00719086 0 -0.00719086 -0.00305687 0 0 0 0)
(0 -0.00521213 0 -0.00521213 -0.00329689 0 0 0 0)
(0 -0.00305413 0 -0.00305413 -0.00373634 0 0 0 0)
(0 -0.00110568 0 -0.00110568 -0.00389383 0 0 0 0)
(0 0 0 0 -0 0 0 0 0)
(0 -0 0 -0 -0 0 0 0 0)
(0 -0 0 -0 0 0 0 0 0)
(0 -0 0 -0 -0 0 0 0 0)
(0 -0 0 -0 -0 0 0 0 0)
(0 -0 0 -0 -0 0 0 0 0)
(0 -0 0 -0 0 0 0 0 0)
(-0 -0 0 -0 -0 0 0 0 0)
(0 -0 0 -0 0 0 0 0 0)
(0 -0 0 -0 -0 0 0 0 0)
(0 -0 0 -0 -0 0 0 0 0)
(-0 -0 0 -0 -0 0 0 0 0)
(0 -0 0 -0 -0 0 0 0 0)
(0 -0 0 -0 0 0 0 0 0)
(0 -0 0 -0 -0 0 0 0 0)
(0 -0 0 -0 0 0 0 0 0)
(0 -0 0 -0 0 0 0 0 0)
(0 -0 0 -0 0 0 0 0 0)
(0 -0 0 -0 0 0 0 0 0)
(0 -0 0 -0 0 0 0 0 0)
(0 -0 0 -0 0 0 0 0 0)
(0 -0 0 -0 0 0 0 0 0)
(0 -0 0 -0 0 0 0 0 0)
(0 -0 0 -0 0 0 0 0 0)
(0 -0 0 -0 0 0 0 0 0)
(0 -0 0 -0 0 0 0 0 0)
(0 -0 0 -0 0 0 0 0 0)
(0 0 0 0 0 0 0 0 0)
(0 0 0 0 0 0 0 0 0)
(0 0 0 0 0 0 0 0 0)
(0 0 0 0 0 0 0 0 0)
(0 0 0 0 0 0 0 0 0)
(0 0 0 0 0 0 0 0 0)
(0 0 0 0 0 0 0 0 0)
(0 0 0 0 -0 0 0 0 0)
(0 0 0 0 0 0 0 0 0)
(0 0 0 0 -0 0 0 0 0)
(0 0 0 0 0 0 0 0 0)
(0 0 0 0 -0 0 0 0 0)
(0 0 0 0 0 0 0 0 0)
(0 0 0 0 -0 0 0 0 0)
(0 0 0 0 0 0 0 0 0)
(0 0 0 0 -0 0 0 0 0)
(0 0 0 0 0 0 0 0 0)
(0 0 0 0 -0 0 0 0 0)
(0 0 0 0 0 0 0 0 0)
(0 0 0 0 -0 0 0 0 0)
(0 0 0 0 0 0 0 0 0)
(0 0 0 0 -0 0 0 0 0)
(0 0 0 0 0 0 0 0 0)
(0 0 0 0 -0 0 0 0 0)
(0 0 0 0 0 0 0 0 0)
(0 0 0 0 -0 0 0 0 0)
(0 0 0 0 0 0 0 0 0)
(0 0 0 0 -0 0 0 0 0)
(0 0 0 0 0 0 0 0 0)
(0 -0 0 -0 -0 0 0 0 0)
(0 0 0 0 0 0 0 0 0)
(0 -0 0 -0 -0 0 0 0 0)
(0 0 0 0 0 0 0 0 0)
(0 -0 0 -0 -0 0 0 0 0)
(0 0 0 0 0 0 0 0 0)
(0 -0 0 -0 -0 0 0 0 0)
(0 0 0 0 0 0 0 0 0)
(0 -0 0 -0 -0 0 0 0 0)
(0 0 0 0 0 0 0 0 0)
(0 -0 0 -0 -0 0 0 0 0)
(0 0 0 0 0 0 0 0 0)
(0 -0 0 -0 -0 0 0 0 0)
(0 0 0 0 0 0 0 0 0)
(0 -0 0 -0 -0 0 0 0 0)
(0 0 0 0 0 0 0 0 0)
(0 -0 0 -0 -0 0 0 0 0)
(0 0 0 0 0 0 0 0 0)
(0 -0 0 -0 -0 0 0 0 0)
(0 0 0 0 0 0 0 0 0)
(0 -0 0 -0 -0 0 0 0 0)
(0 0 0 0 0 0 0 0 0)
(0 -0 0 -0 -0 0 0 0 0)
(0 0 0 0 0 0 0 0 0)
(0 -0 0 -0 -0 0 0 0 0)
(0 0 0 0 0 0 0 0 0)
(0 -0 0 -0 -0 0 0 0 0)
(0 0 0 0 0 0 0 0 0)
(0 -0 0 -0 -0 0 0 0 0)
(0 0 0 0 0 0 0 0 0)
(0 -0 0 -0 -0 0 0 0 0)
(0 0 0 0 0 0 0 0 0)
(0 -0 0 -0 -0 0 0 0 0)
(0 0 0 0 0 0 0 0 0)
(0 -0 0 -0 -0 0 0 0 0)
(0 0 0 0 0 0 0 0 0)
(0 -0 0 -0 -0 0 0 0 0)
(0 0 0 0 0 0 0 0 0)
(0 -0 0 -0 -0 0 0 0 0)
(0 0 0 0 0 0 0 0 0)
(0 -0 0 -0 -0 0 0 0 0)
(0 0 0 0 0 0 0 0 0)
(0 -0 0 -0 -0 0 0 0 0)
(0 0 0 0 0 0 0 0 0)
(0 -0 0 -0 -0 0 0 0 0)
(0 0 0 0 0 0 0 0 0)
(0 -0 0 -0 -0 0 0 0 0)
(0 0 0 0 0 0 0 0 0)
(0 -0 0 -0 -0 0 0 0 0)
(0 0 0 0 0 0 0 0 0)
(0 0 0 0 -0 0 0 0 0)
(0 0 0 0 0 0 0 0 0)
(0 -0 0 -0 -0 0 0 0 0)
(0 0 0 0 0 0 0 0 0)
(0 -0 0 -0 -0 0 0 0 0)
(0 0 0 0 0 0 0 0 0)
(0 -0 0 -0 -0 0 0 0 0)
(0 0 0 0 0 0 0 0 0)
(0 -0 0 -0 -0 0 0 0 0)
(0 0 0 0 0 0 0 0 0)
(0 -0 0 -0 -0 0 0 0 0)
(0 -0 0 -0 0 0 0 0 0)
(0 -0 0 -0 0 0 0 0 0)
(0 -0 0 -0 0 0 0 0 0)
(0 -0 0 -0 0 0 0 0 0)
(0 -0 0 -0 0 0 0 0 0)
(0 -0 0 -0 0 0 0 0 0)
(0 -0 0 -0 0 0 0 0 0)
)
;

boundaryField
{
    inandouthalf11
    {
        type            cyclic;
    }
    inandouthalf12
    {
        type            cyclic;
    }
    inandouthalf21
    {
        type            cyclic;
    }
    inandouthalf22
    {
        type            cyclic;
    }
    inandouthalf31
    {
        type            cyclic;
    }
    inandouthalf32
    {
        type            cyclic;
    }
    inandouthalf41
    {
        type            cyclic;
    }
    inandouthalf42
    {
        type            cyclic;
    }
    top
    {
        type            symmetryPlane;
    }
    walls
    {
        type            zeroGradient;
    }
    frontAndBackPlanes
    {
        type            empty;
    }
}


// ************************************************************************* //
