/*--------------------------------*- C++ -*----------------------------------*\
| =========                 |                                                 |
| \\      /  F ield         | OpenFOAM: The Open Source CFD Toolbox           |
|  \\    /   O peration     | Version:  2.4.x                                 |
|   \\  /    A nd           | Web:      www.OpenFOAM.org                      |
|    \\/     M anipulation  |                                                 |
\*---------------------------------------------------------------------------*/
FoamFile
{
    version     2.0;
    format      ascii;
    class       volScalarField;
    location    "8.75";
    object      Theta_0;
}
// * * * * * * * * * * * * * * * * * * * * * * * * * * * * * * * * * * * * * //

dimensions      [0 2 -2 0 0 0 0];

internalField   nonuniform List<scalar> 
360
(
6.66166e-21
6.66232e-21
6.66207e-21
6.66204e-21
6.66213e-21
6.66219e-21
6.66221e-21
6.66223e-21
6.66225e-21
6.66228e-21
6.6623e-21
6.66233e-21
6.66235e-21
6.66237e-21
6.66239e-21
6.66241e-21
6.66242e-21
6.66244e-21
6.66245e-21
6.66246e-21
6.66247e-21
6.66247e-21
6.66248e-21
6.66248e-21
6.66248e-21
6.66247e-21
6.66247e-21
6.66246e-21
6.66245e-21
6.66244e-21
6.66242e-21
6.66241e-21
6.6624e-21
6.66238e-21
6.66236e-21
6.66234e-21
6.66233e-21
6.66231e-21
6.66229e-21
6.66227e-21
6.66225e-21
6.66223e-21
6.66221e-21
6.66219e-21
6.66218e-21
6.66216e-21
6.66214e-21
6.66212e-21
6.66211e-21
6.66209e-21
6.66208e-21
6.66206e-21
6.66205e-21
6.66204e-21
6.66202e-21
6.66201e-21
6.662e-21
6.66199e-21
6.66197e-21
6.66196e-21
6.66195e-21
6.66194e-21
6.66193e-21
6.66192e-21
6.66191e-21
6.6619e-21
6.66189e-21
6.66188e-21
6.66187e-21
6.66186e-21
6.66186e-21
6.66185e-21
6.66184e-21
6.66183e-21
6.66182e-21
6.66181e-21
6.6618e-21
6.66179e-21
6.66178e-21
6.66177e-21
6.66176e-21
6.66175e-21
6.66175e-21
6.66174e-21
6.66173e-21
6.66172e-21
6.66171e-21
6.6617e-21
6.66169e-21
6.66168e-21
6.66167e-21
6.66166e-21
6.66165e-21
6.66164e-21
6.66163e-21
6.66162e-21
6.66161e-21
6.6616e-21
6.66159e-21
6.66158e-21
6.66157e-21
6.66156e-21
6.66155e-21
6.66154e-21
6.66153e-21
6.66152e-21
6.66151e-21
6.6615e-21
6.6615e-21
6.66149e-21
6.66148e-21
6.66147e-21
6.66147e-21
6.66146e-21
6.66146e-21
6.66145e-21
6.66144e-21
6.66144e-21
6.66143e-21
6.66142e-21
6.66141e-21
6.6614e-21
6.66139e-21
6.66139e-21
6.66138e-21
6.66137e-21
6.66137e-21
6.66137e-21
6.66138e-21
6.66139e-21
6.79789e-21
3.71098e-20
4.46348e-19
5.80863e-18
8.02366e-17
1.19322e-15
1.93754e-14
3.47632e-13
6.97252e-12
1.60041e-10
5.98102e-09
5.2262e-07
1.8276e-05
0.000209803
0.00140565
0.00368184
0.00541746
0.00650884
0.00720657
0.00766877
0.00798405
0.00820594
0.00843747
0.0086417
0.0088141
0.0089554
0.00906684
0.00914922
0.00920282
0.00922761
0.00922345
0.00919038
0.00912784
0.00903642
0.00891678
0.00876985
0.00859709
0.00840022
0.0081814
0.00794302
0.00768781
0.00741863
0.00713859
0.00685093
0.006559
0.0062662
0.00597597
0.00569168
0.00541654
0.00515353
0.00490519
0.0046736
0.00446019
0.00426566
0.00408997
0.00393233
0.00379133
0.00366514
0.00355181
0.00344943
0.00335634
0.00327109
0.00319251
0.00311961
0.00305161
0.00298782
0.00292769
0.00287074
0.00281655
0.00276477
0.0027151
0.00266677
0.00261915
0.00257208
0.00252542
0.00247902
0.00243275
0.00238647
0.00234006
0.00229337
0.00224627
0.00219864
0.00215034
0.00210122
0.00205117
0.00200002
0.00194765
0.00189389
0.0018386
0.0017816
0.00172273
0.0016618
0.00159861
0.00153293
0.00146452
0.00139308
0.0013183
0.00123976
0.00115697
0.00106932
0.000976005
0.000875915
0.000767466
0.000648182
0.000513717
0.000354612
0
0
0
0
0
0
0
0
0
0
0
0
0
0
0
0
0
0
0
0
0
0
0
0
0
0
0
0
0
0
0
0
0
0
0
0
0
0
0
0
0
0
0
0
0
0
0
0
0
0
0
0
0
0
0
0
0
0
0
0
0
0
0
0
0
0
0
0
0
0
0
0
0
0
0
0
0
0
0
0
0
0
0
0
0
0
0
0
0
0
0
0
0
0
0
0
0
0
0
0
0
0
0
0
0
0
0
0
0
0
0
0
0
0
0
0
0
0
0
0
0
0
0
0
)
;

boundaryField
{
    inandouthalf11
    {
        type            cyclic;
    }
    inandouthalf12
    {
        type            cyclic;
    }
    inandouthalf21
    {
        type            cyclic;
    }
    inandouthalf22
    {
        type            cyclic;
    }
    inandouthalf31
    {
        type            cyclic;
    }
    inandouthalf32
    {
        type            cyclic;
    }
    inandouthalf41
    {
        type            cyclic;
    }
    inandouthalf42
    {
        type            cyclic;
    }
    top
    {
        type            symmetryPlane;
    }
    walls
    {
        type            zeroGradient;
    }
    frontAndBackPlanes
    {
        type            empty;
    }
}


// ************************************************************************* //
