/*--------------------------------*- C++ -*----------------------------------*\
| =========                 |                                                 |
| \\      /  F ield         | OpenFOAM: The Open Source CFD Toolbox           |
|  \\    /   O peration     | Version:  2.4.x                                 |
|   \\  /    A nd           | Web:      www.OpenFOAM.org                      |
|    \\/     M anipulation  |                                                 |
\*---------------------------------------------------------------------------*/
FoamFile
{
    version     2.0;
    format      ascii;
    class       volVectorField;
    location    "8.75";
    object      Ua;
}
// * * * * * * * * * * * * * * * * * * * * * * * * * * * * * * * * * * * * * //

dimensions      [0 1 -1 0 0 0 0];

internalField   nonuniform List<vector> 
360
(
(1.98204e-32 -1.00106e-31 0)
(1.27296e-08 -4.49979e-08 0)
(2.67589e-08 -8.11232e-08 0)
(3.96081e-08 -1.13528e-07 0)
(5.29056e-08 -1.48259e-07 0)
(6.69538e-08 -1.85061e-07 0)
(8.1406e-08 -2.22637e-07 0)
(9.60876e-08 -2.60643e-07 0)
(1.10988e-07 -2.99129e-07 0)
(1.26124e-07 -3.38148e-07 0)
(1.41506e-07 -3.77727e-07 0)
(1.57129e-07 -4.17852e-07 0)
(1.72983e-07 -4.58487e-07 0)
(1.8905e-07 -4.99592e-07 0)
(2.05318e-07 -5.4113e-07 0)
(2.21773e-07 -5.83069e-07 0)
(2.38403e-07 -6.25377e-07 0)
(2.5519e-07 -6.68014e-07 0)
(2.72119e-07 -7.10932e-07 0)
(2.89171e-07 -7.54089e-07 0)
(3.06327e-07 -7.97436e-07 0)
(3.23568e-07 -8.40923e-07 0)
(3.40876e-07 -8.84507e-07 0)
(3.58234e-07 -9.28142e-07 0)
(3.75621e-07 -9.71783e-07 0)
(3.93022e-07 -1.01538e-06 0)
(4.10417e-07 -1.0589e-06 0)
(4.27792e-07 -1.10229e-06 0)
(4.4513e-07 -1.14553e-06 0)
(4.62418e-07 -1.18856e-06 0)
(4.7964e-07 -1.23137e-06 0)
(4.96784e-07 -1.27391e-06 0)
(5.13839e-07 -1.31616e-06 0)
(5.30795e-07 -1.3581e-06 0)
(5.47643e-07 -1.3997e-06 0)
(5.64373e-07 -1.44094e-06 0)
(5.80979e-07 -1.48181e-06 0)
(5.97457e-07 -1.52229e-06 0)
(6.13802e-07 -1.56238e-06 0)
(6.3001e-07 -1.60207e-06 0)
(6.46079e-07 -1.64134e-06 0)
(6.62009e-07 -1.68022e-06 0)
(6.77797e-07 -1.71867e-06 0)
(6.93444e-07 -1.75672e-06 0)
(7.08954e-07 -1.79436e-06 0)
(7.24329e-07 -1.83161e-06 0)
(7.39569e-07 -1.86847e-06 0)
(7.54675e-07 -1.90493e-06 0)
(7.6965e-07 -1.94101e-06 0)
(7.84502e-07 -1.97672e-06 0)
(7.99234e-07 -2.01208e-06 0)
(8.13848e-07 -2.04708e-06 0)
(8.2835e-07 -2.08175e-06 0)
(8.42742e-07 -2.11608e-06 0)
(8.57029e-07 -2.1501e-06 0)
(8.71215e-07 -2.1838e-06 0)
(8.85305e-07 -2.2172e-06 0)
(8.993e-07 -2.25031e-06 0)
(9.13203e-07 -2.28313e-06 0)
(9.27015e-07 -2.31565e-06 0)
(9.40741e-07 -2.34791e-06 0)
(9.54387e-07 -2.37989e-06 0)
(9.67955e-07 -2.41163e-06 0)
(9.81448e-07 -2.44311e-06 0)
(9.94868e-07 -2.47435e-06 0)
(1.00822e-06 -2.50533e-06 0)
(1.02149e-06 -2.53607e-06 0)
(1.03469e-06 -2.56657e-06 0)
(1.04783e-06 -2.59682e-06 0)
(1.06089e-06 -2.62682e-06 0)
(1.07388e-06 -2.65658e-06 0)
(1.0868e-06 -2.6861e-06 0)
(1.09965e-06 -2.71537e-06 0)
(1.11244e-06 -2.74441e-06 0)
(1.12516e-06 -2.7732e-06 0)
(1.13781e-06 -2.80177e-06 0)
(1.1504e-06 -2.83009e-06 0)
(1.16292e-06 -2.85815e-06 0)
(1.17536e-06 -2.88596e-06 0)
(1.18772e-06 -2.9135e-06 0)
(1.20001e-06 -2.94077e-06 0)
(1.21222e-06 -2.96777e-06 0)
(1.22436e-06 -2.99449e-06 0)
(1.23641e-06 -3.02095e-06 0)
(1.24839e-06 -3.04714e-06 0)
(1.2603e-06 -3.07305e-06 0)
(1.27212e-06 -3.09869e-06 0)
(1.28386e-06 -3.12404e-06 0)
(1.29552e-06 -3.1491e-06 0)
(1.30709e-06 -3.17385e-06 0)
(1.31857e-06 -3.1983e-06 0)
(1.32995e-06 -3.22242e-06 0)
(1.34124e-06 -3.24624e-06 0)
(1.35243e-06 -3.26973e-06 0)
(1.36354e-06 -3.29291e-06 0)
(1.37454e-06 -3.31576e-06 0)
(1.38545e-06 -3.3383e-06 0)
(1.39627e-06 -3.3605e-06 0)
(1.40698e-06 -3.38238e-06 0)
(1.41759e-06 -3.40391e-06 0)
(1.4281e-06 -3.42511e-06 0)
(1.4385e-06 -3.44596e-06 0)
(1.4488e-06 -3.46647e-06 0)
(1.459e-06 -3.48663e-06 0)
(1.46909e-06 -3.50645e-06 0)
(1.47909e-06 -3.52593e-06 0)
(1.48899e-06 -3.54509e-06 0)
(1.4988e-06 -3.56394e-06 0)
(1.50854e-06 -3.58249e-06 0)
(1.51822e-06 -3.60077e-06 0)
(1.52784e-06 -3.61879e-06 0)
(1.53741e-06 -3.63658e-06 0)
(1.54696e-06 -3.65415e-06 0)
(1.5565e-06 -3.67153e-06 0)
(1.56602e-06 -3.68871e-06 0)
(1.57553e-06 -3.70571e-06 0)
(1.58504e-06 -3.72251e-06 0)
(1.59453e-06 -3.73909e-06 0)
(1.60398e-06 -3.75541e-06 0)
(1.61338e-06 -3.77145e-06 0)
(1.62271e-06 -3.78715e-06 0)
(1.63196e-06 -3.80251e-06 0)
(1.64113e-06 -3.8175e-06 0)
(1.65023e-06 -3.83215e-06 0)
(1.65931e-06 -3.84652e-06 0)
(1.66843e-06 -3.86069e-06 0)
(1.6777e-06 -3.87481e-06 0)
(1.68725e-06 -3.88907e-06 0)
(1.69727e-06 -3.90369e-06 0)
(1.70798e-06 -3.91895e-06 0)
(1.71959e-06 -3.93511e-06 0)
(1.73237e-06 -3.95242e-06 0)
(1.7465e-06 -3.97102e-06 0)
(1.76209e-06 -3.99094e-06 0)
(1.77901e-06 -4.01186e-06 0)
(1.79664e-06 -4.03295e-06 0)
(1.81372e-06 -4.05262e-06 0)
(1.82851e-06 -4.06894e-06 0)
(1.83938e-06 -4.08041e-06 0)
(1.84568e-06 -4.08675e-06 0)
(1.84816e-06 -4.08909e-06 0)
(1.84872e-06 -4.08952e-06 0)
(1.84889e-06 -4.08954e-06 0)
(1.84906e-06 -4.08949e-06 0)
(0.0408142 0.000206503 0)
(0.143522 0.00158731 0)
(0.249091 0.00183951 0)
(0.344636 0.0020413 0)
(0.430155 0.00233483 0)
(0.506949 0.00273468 0)
(0.576311 0.00318527 0)
(0.639343 0.00366925 0)
(0.697065 0.00410848 0)
(0.750058 0.00453705 0)
(0.798889 0.00494038 0)
(0.844052 0.0053175 0)
(0.88597 0.00567325 0)
(0.925002 0.00601442 0)
(0.961452 0.00634756 0)
(0.995582 0.00667811 0)
(1.02762 0.00701008 0)
(1.05775 0.00734624 0)
(1.08615 0.00768824 0)
(1.11296 0.00803698 0)
(1.1383 0.00839285 0)
(1.16228 0.00875585 0)
(1.185 0.00912571 0)
(1.20652 0.00950194 0)
(1.22692 0.00988386 0)
(1.24625 0.0102706 0)
(1.26455 0.0106612 0)
(1.28185 0.0110543 0)
(1.29818 0.0114485 0)
(1.31355 0.0118423 0)
(1.32797 0.0122336 0)
(1.34144 0.0126204 0)
(1.35395 0.0130002 0)
(1.36549 0.0133698 0)
(1.37608 0.0137256 0)
(1.38569 0.0140633 0)
(1.39435 0.0143779 0)
(1.40206 0.0146634 0)
(1.40884 0.0149117 0)
(1.41475 0.0151108 0)
(1.41983 0.0152437 0)
(1.42416 0.0152923 0)
(1.42781 0.015244 0)
(1.43087 0.015099 0)
(1.43344 0.0148712 0)
(1.43559 0.0145832 0)
(1.43739 0.0142596 0)
(1.43891 0.0139214 0)
(1.44018 0.0135841 0)
(1.44125 0.0132579 0)
(1.44215 0.0129484 0)
(1.4429 0.0126588 0)
(1.44353 0.0123902 0)
(1.44406 0.0121426 0)
(1.44449 0.0119155 0)
(1.44484 0.0117079 0)
(1.44513 0.011519 0)
(1.44536 0.0113458 0)
(1.44555 0.0111863 0)
(1.4457 0.0110403 0)
(1.4458 0.0109076 0)
(1.44587 0.0107878 0)
(1.44591 0.0106807 0)
(1.44592 0.0105858 0)
(1.4459 0.0105027 0)
(1.44586 0.0104309 0)
(1.44579 0.0103698 0)
(1.44571 0.0103188 0)
(1.44561 0.0102771 0)
(1.44549 0.0102438 0)
(1.44537 0.010218 0)
(1.44523 0.0101987 0)
(1.44508 0.0101849 0)
(1.44493 0.0101755 0)
(1.44478 0.0101696 0)
(1.44462 0.0101661 0)
(1.44445 0.0101642 0)
(1.44429 0.0101632 0)
(1.44413 0.0101623 0)
(1.44397 0.0101612 0)
(1.44381 0.0101592 0)
(1.44365 0.010156 0)
(1.4435 0.0101513 0)
(1.44335 0.0101447 0)
(1.44321 0.010136 0)
(1.44307 0.010125 0)
(1.44295 0.0101115 0)
(1.44283 0.0100951 0)
(1.44273 0.010076 0)
(1.44264 0.0100552 0)
(1.44258 0.010029 0)
(1.44254 0.00999502 0)
(1.44254 0.00995281 0)
(1.44359 0.00835461 0)
(1.44164 0.00896901 0)
(1.43927 0.00864954 0)
(1.43694 0.00837453 0)
(1.4346 0.00859451 0)
(1.4321 0.00705461 0)
(1.4299 0.00979891 0)
(1.42723 0.00400335 0)
(1.42524 0.0121452 0)
(1.4222 0.000225532 0)
(1.42065 -0.0329193 0)
(1.41854 -0.039689 0)
(1.41607 -0.039591 0)
(1.41384 -0.0395997 0)
(1.41165 -0.0395991 0)
(1.40954 -0.0395988 0)
(1.40751 -0.039598 0)
(1.4056 -0.0395966 0)
(1.40381 -0.0395947 0)
(1.40217 -0.0395922 0)
(1.4007 -0.039589 0)
(1.39943 -0.0395853 0)
(1.39838 -0.039581 0)
(1.39757 -0.039576 0)
(1.39702 -0.0395706 0)
(1.39678 -0.0395655 0)
(1.39675 -0.0395597 0)
(1.39696 -0.0395525 0)
(1.39726 -0.0395432 0)
(1.39738 -0.039536 0)
(1.39739 -0.0395339 0)
(1.39739 -0.0395338 0)
(1.39739 -0.0395338 0)
(1.39739 -0.0395338 0)
(1.39739 -0.0395338 0)
(1.39739 -0.0395338 0)
(1.39739 -0.0395338 0)
(1.39739 -0.0395338 0)
(1.39739 -0.0395338 0)
(1.39739 -0.0395338 0)
(1.39739 -0.0395338 0)
(1.39739 -0.0395338 0)
(1.39739 -0.0395338 0)
(1.39739 -0.0395338 0)
(1.39739 -0.0395338 0)
(1.39739 -0.0395338 0)
(1.39739 -0.0395338 0)
(1.39739 -0.0395338 0)
(1.39739 -0.0395338 0)
(1.39739 -0.0395338 0)
(1.39739 -0.0395338 0)
(1.39739 -0.0395338 0)
(1.39739 -0.0395338 0)
(1.39739 -0.0395338 0)
(1.39739 -0.0395338 0)
(1.39739 -0.0395338 0)
(1.39739 -0.0395338 0)
(1.39739 -0.0395338 0)
(1.39739 -0.0395338 0)
(1.39739 -0.0395338 0)
(1.39739 -0.0395338 0)
(1.39739 -0.0395338 0)
(1.39739 -0.0395338 0)
(1.39739 -0.0395338 0)
(1.39739 -0.0395338 0)
(1.39739 -0.0395338 0)
(1.39739 -0.0395338 0)
(1.39739 -0.0395338 0)
(1.39739 -0.0395338 0)
(1.39739 -0.0395338 0)
(1.39739 -0.0395338 0)
(1.39739 -0.0395338 0)
(1.39739 -0.0395338 0)
(1.39739 -0.0395338 0)
(1.39739 -0.0395338 0)
(1.39739 -0.0395338 0)
(1.39739 -0.0395338 0)
(1.39739 -0.0395338 0)
(1.39739 -0.0395338 0)
(1.39739 -0.0395338 0)
(1.39739 -0.0395338 0)
(1.39739 -0.0395338 0)
(1.39739 -0.0395338 0)
(1.39739 -0.0395338 0)
(1.39739 -0.0395338 0)
(1.39739 -0.0395338 0)
(1.39739 -0.0395338 0)
(1.39739 -0.0395338 0)
(1.39739 -0.0395338 0)
(1.39739 -0.0395338 0)
(1.39739 -0.0395338 0)
(1.39739 -0.0395338 0)
(1.39739 -0.0395338 0)
(1.39739 -0.0395338 0)
(1.39739 -0.0395338 0)
(1.39739 -0.0395338 0)
(1.39739 -0.0395338 0)
(1.39739 -0.0395338 0)
(1.39739 -0.0395338 0)
(1.39739 -0.0395338 0)
(1.39739 -0.0395338 0)
(1.39739 -0.0395338 0)
(1.39739 -0.0395338 0)
(1.39739 -0.0395338 0)
(1.39739 -0.0395338 0)
(1.39739 -0.0395338 0)
(1.39739 -0.0395338 0)
(1.39739 -0.0395338 0)
(1.39739 -0.0395338 0)
(1.39739 -0.0395338 0)
(1.39739 -0.0395338 0)
(1.39739 -0.0395338 0)
(1.39739 -0.0395338 0)
(1.39739 -0.0395338 0)
(1.39739 -0.0395338 0)
(1.39739 -0.0395338 0)
(1.39739 -0.0395338 0)
(1.39739 -0.0395338 0)
(1.39739 -0.0395338 0)
(1.39739 -0.0395336 0)
(1.39738 -0.0395251 0)
(1.39737 -0.0391801 0)
(1.39699 -0.0224675 0)
)
;

boundaryField
{
    inandouthalf11
    {
        type            cyclic;
    }
    inandouthalf12
    {
        type            cyclic;
    }
    inandouthalf21
    {
        type            cyclic;
    }
    inandouthalf22
    {
        type            cyclic;
    }
    inandouthalf31
    {
        type            cyclic;
    }
    inandouthalf32
    {
        type            cyclic;
    }
    inandouthalf41
    {
        type            cyclic;
    }
    inandouthalf42
    {
        type            cyclic;
    }
    top
    {
        type            symmetryPlane;
    }
    walls
    {
        type            fixedValue;
        value           uniform (0 0 0);
    }
    frontAndBackPlanes
    {
        type            empty;
    }
}


// ************************************************************************* //
