/*--------------------------------*- C++ -*----------------------------------*\
| =========                 |                                                 |
| \\      /  F ield         | OpenFOAM: The Open Source CFD Toolbox           |
|  \\    /   O peration     | Version:  2.4.x                                 |
|   \\  /    A nd           | Web:      www.OpenFOAM.org                      |
|    \\/     M anipulation  |                                                 |
\*---------------------------------------------------------------------------*/
FoamFile
{
    version     2.0;
    format      ascii;
    class       volVectorField;
    location    "8.75";
    object      Ua_0;
}
// * * * * * * * * * * * * * * * * * * * * * * * * * * * * * * * * * * * * * //

dimensions      [0 1 -1 0 0 0 0];

internalField   nonuniform List<vector> 
360
(
(1.98212e-32 -1.00105e-31 0)
(1.27325e-08 -4.50063e-08 0)
(2.6765e-08 -8.11385e-08 0)
(3.96173e-08 -1.1355e-07 0)
(5.29178e-08 -1.48287e-07 0)
(6.69693e-08 -1.85097e-07 0)
(8.14248e-08 -2.2268e-07 0)
(9.61097e-08 -2.60693e-07 0)
(1.11013e-07 -2.99186e-07 0)
(1.26152e-07 -3.38213e-07 0)
(1.41537e-07 -3.77799e-07 0)
(1.57164e-07 -4.17931e-07 0)
(1.7302e-07 -4.58573e-07 0)
(1.89091e-07 -4.99685e-07 0)
(2.05362e-07 -5.4123e-07 0)
(2.2182e-07 -5.83175e-07 0)
(2.38452e-07 -6.25489e-07 0)
(2.55243e-07 -6.68132e-07 0)
(2.72174e-07 -7.11056e-07 0)
(2.89228e-07 -7.54219e-07 0)
(3.06387e-07 -7.97571e-07 0)
(3.2363e-07 -8.41063e-07 0)
(3.4094e-07 -8.84652e-07 0)
(3.58299e-07 -9.28292e-07 0)
(3.75688e-07 -9.71936e-07 0)
(3.93091e-07 -1.01554e-06 0)
(4.10487e-07 -1.05906e-06 0)
(4.27863e-07 -1.10246e-06 0)
(4.45203e-07 -1.1457e-06 0)
(4.62492e-07 -1.18874e-06 0)
(4.79715e-07 -1.23154e-06 0)
(4.9686e-07 -1.27409e-06 0)
(5.13916e-07 -1.31634e-06 0)
(5.30873e-07 -1.35828e-06 0)
(5.47721e-07 -1.39988e-06 0)
(5.64452e-07 -1.44113e-06 0)
(5.81059e-07 -1.482e-06 0)
(5.97537e-07 -1.52248e-06 0)
(6.13882e-07 -1.56258e-06 0)
(6.30091e-07 -1.60226e-06 0)
(6.4616e-07 -1.64154e-06 0)
(6.6209e-07 -1.68042e-06 0)
(6.77879e-07 -1.71887e-06 0)
(6.93527e-07 -1.75692e-06 0)
(7.09037e-07 -1.79457e-06 0)
(7.24412e-07 -1.83182e-06 0)
(7.39652e-07 -1.86868e-06 0)
(7.54758e-07 -1.90514e-06 0)
(7.69734e-07 -1.94122e-06 0)
(7.84586e-07 -1.97694e-06 0)
(7.99319e-07 -2.0123e-06 0)
(8.13934e-07 -2.0473e-06 0)
(8.28435e-07 -2.08197e-06 0)
(8.42828e-07 -2.11631e-06 0)
(8.57115e-07 -2.15033e-06 0)
(8.71302e-07 -2.18403e-06 0)
(8.85392e-07 -2.21744e-06 0)
(8.99388e-07 -2.25055e-06 0)
(9.13291e-07 -2.28337e-06 0)
(9.27104e-07 -2.3159e-06 0)
(9.40831e-07 -2.34816e-06 0)
(9.54477e-07 -2.38015e-06 0)
(9.68046e-07 -2.41188e-06 0)
(9.8154e-07 -2.44337e-06 0)
(9.94961e-07 -2.47461e-06 0)
(1.00831e-06 -2.5056e-06 0)
(1.02158e-06 -2.53634e-06 0)
(1.03479e-06 -2.56685e-06 0)
(1.04792e-06 -2.5971e-06 0)
(1.06098e-06 -2.62711e-06 0)
(1.07397e-06 -2.65686e-06 0)
(1.08689e-06 -2.68639e-06 0)
(1.09975e-06 -2.71567e-06 0)
(1.11254e-06 -2.74471e-06 0)
(1.12526e-06 -2.77351e-06 0)
(1.13791e-06 -2.80208e-06 0)
(1.1505e-06 -2.8304e-06 0)
(1.16302e-06 -2.85847e-06 0)
(1.17546e-06 -2.88628e-06 0)
(1.18783e-06 -2.91382e-06 0)
(1.20012e-06 -2.9411e-06 0)
(1.21233e-06 -2.9681e-06 0)
(1.22446e-06 -2.99483e-06 0)
(1.23652e-06 -3.0213e-06 0)
(1.2485e-06 -3.04749e-06 0)
(1.2604e-06 -3.0734e-06 0)
(1.27223e-06 -3.09904e-06 0)
(1.28397e-06 -3.1244e-06 0)
(1.29563e-06 -3.14946e-06 0)
(1.3072e-06 -3.17422e-06 0)
(1.31868e-06 -3.19867e-06 0)
(1.33006e-06 -3.2228e-06 0)
(1.34135e-06 -3.24662e-06 0)
(1.35255e-06 -3.27011e-06 0)
(1.36365e-06 -3.29329e-06 0)
(1.37466e-06 -3.31615e-06 0)
(1.38557e-06 -3.33869e-06 0)
(1.39638e-06 -3.3609e-06 0)
(1.4071e-06 -3.38278e-06 0)
(1.41771e-06 -3.40432e-06 0)
(1.42822e-06 -3.42551e-06 0)
(1.43863e-06 -3.44637e-06 0)
(1.44893e-06 -3.46688e-06 0)
(1.45913e-06 -3.48704e-06 0)
(1.46922e-06 -3.50686e-06 0)
(1.47922e-06 -3.52635e-06 0)
(1.48912e-06 -3.54551e-06 0)
(1.49894e-06 -3.56437e-06 0)
(1.50868e-06 -3.58292e-06 0)
(1.51835e-06 -3.6012e-06 0)
(1.52797e-06 -3.61922e-06 0)
(1.53756e-06 -3.63701e-06 0)
(1.54711e-06 -3.65459e-06 0)
(1.55664e-06 -3.67196e-06 0)
(1.56617e-06 -3.68915e-06 0)
(1.57569e-06 -3.70615e-06 0)
(1.58519e-06 -3.72295e-06 0)
(1.59468e-06 -3.73953e-06 0)
(1.60414e-06 -3.75586e-06 0)
(1.61354e-06 -3.77189e-06 0)
(1.62288e-06 -3.7876e-06 0)
(1.63213e-06 -3.80295e-06 0)
(1.6413e-06 -3.81795e-06 0)
(1.65041e-06 -3.8326e-06 0)
(1.65949e-06 -3.84696e-06 0)
(1.66861e-06 -3.86113e-06 0)
(1.67788e-06 -3.87526e-06 0)
(1.68744e-06 -3.88952e-06 0)
(1.69747e-06 -3.90416e-06 0)
(1.70818e-06 -3.91943e-06 0)
(1.71981e-06 -3.93561e-06 0)
(1.7326e-06 -3.95294e-06 0)
(1.74675e-06 -3.97156e-06 0)
(1.76236e-06 -3.99149e-06 0)
(1.77928e-06 -4.01242e-06 0)
(1.79689e-06 -4.0335e-06 0)
(1.81394e-06 -4.05314e-06 0)
(1.82868e-06 -4.06942e-06 0)
(1.83952e-06 -4.08085e-06 0)
(1.84578e-06 -4.08716e-06 0)
(1.84825e-06 -4.08949e-06 0)
(1.84882e-06 -4.08992e-06 0)
(1.84898e-06 -4.08994e-06 0)
(1.84915e-06 -4.08989e-06 0)
(0.0406426 0.000206387 0)
(0.143286 0.00158878 0)
(0.248908 0.00183918 0)
(0.344507 0.00204263 0)
(0.430067 0.00233998 0)
(0.506888 0.00274362 0)
(0.576266 0.0031967 0)
(0.639309 0.00368157 0)
(0.697037 0.00412025 0)
(0.750035 0.00454746 0)
(0.798869 0.00494902 0)
(0.844034 0.00532432 0)
(0.885954 0.00567844 0)
(0.924986 0.00601833 0)
(0.961437 0.00635056 0)
(0.995568 0.00668052 0)
(1.0276 0.00701215 0)
(1.05774 0.00734812 0)
(1.08614 0.00769003 0)
(1.11294 0.00803875 0)
(1.13829 0.00839464 0)
(1.16227 0.00875767 0)
(1.18498 0.00912758 0)
(1.20651 0.00950386 0)
(1.22691 0.00988583 0)
(1.24624 0.0102726 0)
(1.26453 0.0106632 0)
(1.28184 0.0110564 0)
(1.29816 0.0114507 0)
(1.31353 0.0118444 0)
(1.32795 0.0122358 0)
(1.34141 0.0126226 0)
(1.35392 0.0130023 0)
(1.36546 0.0133719 0)
(1.37604 0.0137277 0)
(1.38565 0.0140653 0)
(1.3943 0.0143797 0)
(1.40201 0.014665 0)
(1.40879 0.014913 0)
(1.41469 0.0151117 0)
(1.41976 0.0152441 0)
(1.42408 0.0152919 0)
(1.42773 0.0152429 0)
(1.43079 0.0150971 0)
(1.43336 0.0148687 0)
(1.4355 0.0145803 0)
(1.4373 0.0142564 0)
(1.43882 0.0139181 0)
(1.44009 0.0135808 0)
(1.44116 0.0132546 0)
(1.44206 0.0129452 0)
(1.44281 0.0126557 0)
(1.44344 0.0123872 0)
(1.44396 0.0121397 0)
(1.44439 0.0119127 0)
(1.44474 0.0117053 0)
(1.44503 0.0115164 0)
(1.44527 0.0113433 0)
(1.44545 0.0111839 0)
(1.4456 0.011038 0)
(1.4457 0.0109054 0)
(1.44577 0.0107857 0)
(1.44581 0.0106787 0)
(1.44582 0.0105838 0)
(1.4458 0.0105008 0)
(1.44575 0.0104291 0)
(1.44569 0.0103681 0)
(1.44561 0.0103172 0)
(1.4455 0.0102755 0)
(1.44539 0.0102423 0)
(1.44526 0.0102165 0)
(1.44512 0.0101973 0)
(1.44498 0.0101835 0)
(1.44483 0.0101742 0)
(1.44467 0.0101682 0)
(1.44451 0.0101648 0)
(1.44435 0.0101629 0)
(1.44418 0.0101619 0)
(1.44402 0.0101611 0)
(1.44386 0.01016 0)
(1.4437 0.010158 0)
(1.44354 0.0101548 0)
(1.44339 0.0101501 0)
(1.44324 0.0101435 0)
(1.4431 0.0101349 0)
(1.44296 0.0101238 0)
(1.44284 0.0101104 0)
(1.44272 0.010094 0)
(1.44262 0.0100748 0)
(1.44253 0.0100541 0)
(1.44247 0.0100278 0)
(1.44243 0.0099939 0)
(1.44243 0.00995173 0)
(1.44347 0.0083547 0)
(1.44153 0.00896793 0)
(1.43916 0.00864854 0)
(1.43682 0.00837351 0)
(1.43449 0.0085936 0)
(1.43198 0.00705208 0)
(1.42978 0.00980142 0)
(1.42711 0.00399512 0)
(1.42512 0.0121559 0)
(1.42209 0.000191862 0)
(1.42053 -0.0329462 0)
(1.41843 -0.0396893 0)
(1.41595 -0.0395909 0)
(1.41372 -0.0395997 0)
(1.41154 -0.0395991 0)
(1.40942 -0.0395988 0)
(1.4074 -0.039598 0)
(1.40548 -0.0395966 0)
(1.40369 -0.0395947 0)
(1.40205 -0.0395921 0)
(1.40058 -0.039589 0)
(1.39931 -0.0395853 0)
(1.39826 -0.039581 0)
(1.39745 -0.039576 0)
(1.39691 -0.0395706 0)
(1.39666 -0.0395655 0)
(1.39664 -0.0395597 0)
(1.39685 -0.0395525 0)
(1.39715 -0.0395432 0)
(1.39726 -0.039536 0)
(1.39727 -0.0395339 0)
(1.39727 -0.0395338 0)
(1.39727 -0.0395338 0)
(1.39727 -0.0395338 0)
(1.39727 -0.0395338 0)
(1.39727 -0.0395338 0)
(1.39727 -0.0395338 0)
(1.39727 -0.0395338 0)
(1.39727 -0.0395338 0)
(1.39727 -0.0395338 0)
(1.39727 -0.0395338 0)
(1.39727 -0.0395338 0)
(1.39727 -0.0395338 0)
(1.39727 -0.0395338 0)
(1.39727 -0.0395338 0)
(1.39727 -0.0395338 0)
(1.39727 -0.0395338 0)
(1.39727 -0.0395338 0)
(1.39727 -0.0395338 0)
(1.39727 -0.0395338 0)
(1.39727 -0.0395338 0)
(1.39727 -0.0395338 0)
(1.39727 -0.0395338 0)
(1.39727 -0.0395338 0)
(1.39727 -0.0395338 0)
(1.39727 -0.0395338 0)
(1.39727 -0.0395338 0)
(1.39727 -0.0395338 0)
(1.39727 -0.0395338 0)
(1.39727 -0.0395338 0)
(1.39727 -0.0395338 0)
(1.39727 -0.0395338 0)
(1.39727 -0.0395338 0)
(1.39727 -0.0395338 0)
(1.39727 -0.0395338 0)
(1.39727 -0.0395338 0)
(1.39727 -0.0395338 0)
(1.39727 -0.0395338 0)
(1.39727 -0.0395338 0)
(1.39727 -0.0395338 0)
(1.39727 -0.0395338 0)
(1.39727 -0.0395338 0)
(1.39727 -0.0395338 0)
(1.39727 -0.0395338 0)
(1.39727 -0.0395338 0)
(1.39727 -0.0395338 0)
(1.39727 -0.0395338 0)
(1.39727 -0.0395338 0)
(1.39727 -0.0395338 0)
(1.39727 -0.0395338 0)
(1.39727 -0.0395338 0)
(1.39727 -0.0395338 0)
(1.39727 -0.0395338 0)
(1.39727 -0.0395338 0)
(1.39727 -0.0395338 0)
(1.39727 -0.0395338 0)
(1.39727 -0.0395338 0)
(1.39727 -0.0395338 0)
(1.39727 -0.0395338 0)
(1.39727 -0.0395338 0)
(1.39727 -0.0395338 0)
(1.39727 -0.0395338 0)
(1.39727 -0.0395338 0)
(1.39727 -0.0395338 0)
(1.39727 -0.0395338 0)
(1.39727 -0.0395338 0)
(1.39727 -0.0395338 0)
(1.39727 -0.0395338 0)
(1.39727 -0.0395338 0)
(1.39727 -0.0395338 0)
(1.39727 -0.0395338 0)
(1.39727 -0.0395338 0)
(1.39727 -0.0395338 0)
(1.39727 -0.0395338 0)
(1.39727 -0.0395338 0)
(1.39727 -0.0395338 0)
(1.39727 -0.0395338 0)
(1.39727 -0.0395338 0)
(1.39727 -0.0395338 0)
(1.39727 -0.0395338 0)
(1.39727 -0.0395338 0)
(1.39727 -0.0395338 0)
(1.39727 -0.0395338 0)
(1.39727 -0.0395338 0)
(1.39727 -0.0395338 0)
(1.39727 -0.0395338 0)
(1.39727 -0.0395338 0)
(1.39727 -0.0395338 0)
(1.39727 -0.0395338 0)
(1.39727 -0.0395336 0)
(1.39727 -0.0395251 0)
(1.39725 -0.0391801 0)
(1.39687 -0.0224675 0)
)
;

boundaryField
{
    inandouthalf11
    {
        type            cyclic;
    }
    inandouthalf12
    {
        type            cyclic;
    }
    inandouthalf21
    {
        type            cyclic;
    }
    inandouthalf22
    {
        type            cyclic;
    }
    inandouthalf31
    {
        type            cyclic;
    }
    inandouthalf32
    {
        type            cyclic;
    }
    inandouthalf41
    {
        type            cyclic;
    }
    inandouthalf42
    {
        type            cyclic;
    }
    top
    {
        type            symmetryPlane;
    }
    walls
    {
        type            fixedValue;
        value           uniform (0 0 0);
    }
    frontAndBackPlanes
    {
        type            empty;
    }
}


// ************************************************************************* //
