/*--------------------------------*- C++ -*----------------------------------*\
| =========                 |                                                 |
| \\      /  F ield         | OpenFOAM: The Open Source CFD Toolbox           |
|  \\    /   O peration     | Version:  2.4.x                                 |
|   \\  /    A nd           | Web:      www.OpenFOAM.org                      |
|    \\/     M anipulation  |                                                 |
\*---------------------------------------------------------------------------*/
FoamFile
{
    version     2.0;
    format      ascii;
    class       volVectorField;
    location    "8.75";
    object      Ub_0;
}
// * * * * * * * * * * * * * * * * * * * * * * * * * * * * * * * * * * * * * //

dimensions      [0 1 -1 0 0 0 0];

internalField   nonuniform List<vector> 
360
(
(0.000120313 1.89222e-08 0)
(0.00011967 6.73782e-08 0)
(0.00011959 1.24667e-07 0)
(0.000119691 1.79304e-07 0)
(0.000119748 2.34522e-07 0)
(0.000119776 2.91921e-07 0)
(0.000119808 3.50864e-07 0)
(0.000119845 4.10712e-07 0)
(0.000119883 4.71319e-07 0)
(0.000119921 5.32731e-07 0)
(0.00011996 5.94997e-07 0)
(0.000119999 6.581e-07 0)
(0.000120039 7.21991e-07 0)
(0.000120079 7.86609e-07 0)
(0.00012012 8.51896e-07 0)
(0.000120161 9.178e-07 0)
(0.000120202 9.84267e-07 0)
(0.000120244 1.05123e-06 0)
(0.000120286 1.11863e-06 0)
(0.000120329 1.18638e-06 0)
(0.000120372 1.25441e-06 0)
(0.000120415 1.32265e-06 0)
(0.000120459 1.39103e-06 0)
(0.000120503 1.45947e-06 0)
(0.000120547 1.5279e-06 0)
(0.000120592 1.59625e-06 0)
(0.000120636 1.66445e-06 0)
(0.000120681 1.73245e-06 0)
(0.000120727 1.80017e-06 0)
(0.000120772 1.86757e-06 0)
(0.000120818 1.93458e-06 0)
(0.000120864 2.00117e-06 0)
(0.00012091 2.06728e-06 0)
(0.000120956 2.13288e-06 0)
(0.000121002 2.19793e-06 0)
(0.000121049 2.26241e-06 0)
(0.000121096 2.32628e-06 0)
(0.000121143 2.38952e-06 0)
(0.00012119 2.45214e-06 0)
(0.000121237 2.5141e-06 0)
(0.000121285 2.5754e-06 0)
(0.000121333 2.63604e-06 0)
(0.000121381 2.69601e-06 0)
(0.000121429 2.75533e-06 0)
(0.000121477 2.81399e-06 0)
(0.000121526 2.87201e-06 0)
(0.000121575 2.9294e-06 0)
(0.000121624 2.98615e-06 0)
(0.000121673 3.04227e-06 0)
(0.000121723 3.09781e-06 0)
(0.000121773 3.15276e-06 0)
(0.000121823 3.20715e-06 0)
(0.000121873 3.26097e-06 0)
(0.000121924 3.31427e-06 0)
(0.000121975 3.36703e-06 0)
(0.000122027 3.41929e-06 0)
(0.000122079 3.47105e-06 0)
(0.000122131 3.52232e-06 0)
(0.000122184 3.57313e-06 0)
(0.000122236 3.62345e-06 0)
(0.00012229 3.67333e-06 0)
(0.000122344 3.72275e-06 0)
(0.000122399 3.77177e-06 0)
(0.000122453 3.82036e-06 0)
(0.000122509 3.86854e-06 0)
(0.000122564 3.9163e-06 0)
(0.000122621 3.96365e-06 0)
(0.000122678 4.0106e-06 0)
(0.000122735 4.05714e-06 0)
(0.000122793 4.10325e-06 0)
(0.000122852 4.14896e-06 0)
(0.000122911 4.19427e-06 0)
(0.00012297 4.23917e-06 0)
(0.000123031 4.28367e-06 0)
(0.000123092 4.32776e-06 0)
(0.000123154 4.37146e-06 0)
(0.000123216 4.41474e-06 0)
(0.000123279 4.45759e-06 0)
(0.000123343 4.50001e-06 0)
(0.000123407 4.54199e-06 0)
(0.000123473 4.58351e-06 0)
(0.000123539 4.62458e-06 0)
(0.000123606 4.66518e-06 0)
(0.000123673 4.70533e-06 0)
(0.000123742 4.74502e-06 0)
(0.000123812 4.78425e-06 0)
(0.000123882 4.82301e-06 0)
(0.000123954 4.86128e-06 0)
(0.000124026 4.89906e-06 0)
(0.0001241 4.93632e-06 0)
(0.000124174 4.97307e-06 0)
(0.00012425 5.00928e-06 0)
(0.000124326 5.04495e-06 0)
(0.000124404 5.08009e-06 0)
(0.000124483 5.11468e-06 0)
(0.000124564 5.14873e-06 0)
(0.000124646 5.18223e-06 0)
(0.000124729 5.21517e-06 0)
(0.000124813 5.24755e-06 0)
(0.000124899 5.27935e-06 0)
(0.000124987 5.31057e-06 0)
(0.000125076 5.3412e-06 0)
(0.000125167 5.37123e-06 0)
(0.000125259 5.40068e-06 0)
(0.000125354 5.42953e-06 0)
(0.00012545 5.45781e-06 0)
(0.000125548 5.48552e-06 0)
(0.000125649 5.51268e-06 0)
(0.000125751 5.53931e-06 0)
(0.000125856 5.56545e-06 0)
(0.000125963 5.59112e-06 0)
(0.000126073 5.61634e-06 0)
(0.000126185 5.64116e-06 0)
(0.0001263 5.66559e-06 0)
(0.000126418 5.68963e-06 0)
(0.000126539 5.71329e-06 0)
(0.000126664 5.73655e-06 0)
(0.000126791 5.75936e-06 0)
(0.000126923 5.78168e-06 0)
(0.000127057 5.80344e-06 0)
(0.000127196 5.8246e-06 0)
(0.000127339 5.8451e-06 0)
(0.000127486 5.86494e-06 0)
(0.000127637 5.88413e-06 0)
(0.000127794 5.90276e-06 0)
(0.000127955 5.92097e-06 0)
(0.000128123 5.93897e-06 0)
(0.000128297 5.95703e-06 0)
(0.000128479 5.9755e-06 0)
(0.000128668 5.99474e-06 0)
(0.000128866 6.01516e-06 0)
(0.000129074 6.03706e-06 0)
(0.000129292 6.06063e-06 0)
(0.000129522 6.08576e-06 0)
(0.000129767 6.11188e-06 0)
(0.000130026 6.13762e-06 0)
(0.000130297 6.16062e-06 0)
(0.000130583 6.17807e-06 0)
(0.000130894 6.18783e-06 0)
(0.000131246 6.18981e-06 0)
(0.000131624 6.15209e-06 0)
(0.000131989 7.19121e-06 0)
(0.000132767 -2.62201e-07 0)
(0.000381307 2.99949e-05 0)
(0.0450717 -0.000222142 0)
(0.153609 -0.00091931 0)
(0.259202 -0.000736448 0)
(0.353767 -0.000712297 0)
(0.438408 -0.000730335 0)
(0.514563 -0.000774739 0)
(0.583491 -0.000821216 0)
(0.646232 -0.000856297 0)
(0.703585 -0.000870879 0)
(0.756247 -0.000868751 0)
(0.804796 -0.000852153 0)
(0.849723 -0.000824301 0)
(0.891445 -0.000788541 0)
(0.930319 -0.000747767 0)
(0.966648 -0.000704212 0)
(1.00069 -0.000659474 0)
(1.03268 -0.000614636 0)
(1.0628 -0.000570413 0)
(1.09122 -0.000527274 0)
(1.11808 -0.00048552 0)
(1.14353 -0.000445351 0)
(1.16765 -0.000406902 0)
(1.19056 -0.000370259 0)
(1.21233 -0.00033548 0)
(1.23304 -0.000302598 0)
(1.25276 -0.000271631 0)
(1.27152 -0.000242586 0)
(1.28939 -0.000215462 0)
(1.30641 -0.00019025 0)
(1.32259 -0.000166936 0)
(1.33798 -0.000145498 0)
(1.35259 -0.000125911 0)
(1.36644 -0.000108136 0)
(1.37953 -9.21274e-05 0)
(1.39187 -7.78273e-05 0)
(1.40347 -6.51661e-05 0)
(1.41431 -5.40624e-05 0)
(1.4244 -4.44198e-05 0)
(1.4337 -3.61234e-05 0)
(1.44223 -2.90426e-05 0)
(1.44997 -2.30486e-05 0)
(1.45691 -1.80363e-05 0)
(1.46307 -1.39301e-05 0)
(1.46845 -1.0663e-05 0)
(1.47309 -8.14773e-06 0)
(1.47705 -6.26634e-06 0)
(1.48036 -4.8838e-06 0)
(1.48311 -3.87181e-06 0)
(1.48535 -3.12508e-06 0)
(1.48716 -2.56552e-06 0)
(1.4886 -2.13839e-06 0)
(1.48973 -1.80621e-06 0)
(1.49059 -1.54334e-06 0)
(1.49123 -1.33197e-06 0)
(1.49169 -1.15958e-06 0)
(1.49198 -1.01717e-06 0)
(1.49214 -8.9819e-07 0)
(1.49219 -7.96752e-07 0)
(1.49212 -7.0888e-07 0)
(1.49196 -6.32316e-07 0)
(1.49172 -5.65231e-07 0)
(1.49138 -5.06134e-07 0)
(1.49097 -4.53802e-07 0)
(1.49048 -4.07229e-07 0)
(1.48991 -3.65577e-07 0)
(1.48928 -3.28146e-07 0)
(1.48857 -2.94348e-07 0)
(1.4878 -2.63693e-07 0)
(1.48696 -2.35784e-07 0)
(1.48606 -2.103e-07 0)
(1.48509 -1.86975e-07 0)
(1.48406 -1.65602e-07 0)
(1.48297 -1.46028e-07 0)
(1.48182 -1.28144e-07 0)
(1.4806 -1.1186e-07 0)
(1.47933 -9.71018e-08 0)
(1.47799 -8.38133e-08 0)
(1.4766 -7.19355e-08 0)
(1.47514 -6.13905e-08 0)
(1.47363 -5.20933e-08 0)
(1.47206 -4.39572e-08 0)
(1.47043 -3.68879e-08 0)
(1.46874 -3.07849e-08 0)
(1.46701 -2.55501e-08 0)
(1.46521 -2.10889e-08 0)
(1.46336 -1.73108e-08 0)
(1.46147 -1.41262e-08 0)
(1.45952 -1.1459e-08 0)
(1.45752 -9.24832e-09 0)
(1.45547 -7.39463e-09 0)
(1.45338 -5.84775e-09 0)
(1.45125 -4.66e-09 0)
(1.44907 -3.6342e-09 0)
(1.44686 -2.65856e-09 0)
(1.44461 -1.8963e-09 0)
(1.44233 -1.34036e-09 0)
(1.44003 -9.32459e-10 0)
(1.43769 -6.32472e-10 0)
(1.43534 -4.13149e-10 0)
(1.43298 -2.57874e-10 0)
(1.4306 -1.45835e-10 0)
(1.42822 -7.25493e-11 0)
(1.42585 -7.61597e-12 0)
(1.42349 1.9826e-11 0)
(1.42115 5.76683e-13 0)
(1.41885 -1.84953e-13 0)
(1.41658 8.80101e-13 0)
(1.41438 1.11165e-12 0)
(1.41224 1.00697e-12 0)
(1.41019 9.19667e-13 0)
(1.40824 8.62499e-13 0)
(1.40641 7.65738e-13 0)
(1.40473 6.34849e-13 0)
(1.40322 9.84281e-13 0)
(1.4019 4.46287e-12 0)
(1.4008 -1.67414e-11 0)
(1.39994 4.43374e-11 0)
(1.39934 -8.49835e-11 0)
(1.39902 1.43639e-10 0)
(1.39896 -2.16125e-10 0)
(1.39913 3.0379e-10 0)
(1.39944 -4.00519e-10 0)
(1.39959 5.05162e-10 0)
(1.3996 -6.12612e-10 0)
(1.3996 7.23589e-10 0)
(1.3996 -8.36184e-10 0)
(1.3996 9.51939e-10 0)
(1.3996 -1.06978e-09 0)
(1.3996 1.19077e-09 0)
(1.3996 -1.31427e-09 0)
(1.3996 1.44092e-09 0)
(1.3996 -1.57047e-09 0)
(1.3996 1.70315e-09 0)
(1.3996 -1.83907e-09 0)
(1.3996 1.97813e-09 0)
(1.3996 -2.1207e-09 0)
(1.3996 2.26643e-09 0)
(1.3996 -2.41592e-09 0)
(1.3996 2.56856e-09 0)
(1.3996 -2.72519e-09 0)
(1.3996 2.88498e-09 0)
(1.3996 -3.04891e-09 0)
(1.3996 3.21605e-09 0)
(1.3996 -3.38748e-09 0)
(1.3996 3.56211e-09 0)
(1.3996 -3.74112e-09 0)
(1.3996 3.92342e-09 0)
(1.3996 -4.11011e-09 0)
(1.3996 4.30019e-09 0)
(1.3996 -4.49463e-09 0)
(1.3996 4.69259e-09 0)
(1.3996 -4.89481e-09 0)
(1.3996 5.10071e-09 0)
(1.3996 -5.31078e-09 0)
(1.3996 5.52458e-09 0)
(1.3996 -5.74257e-09 0)
(1.3996 5.96426e-09 0)
(1.3996 -6.19012e-09 0)
(1.3996 6.41961e-09 0)
(1.3996 -6.65329e-09 0)
(1.3996 6.89052e-09 0)
(1.3996 -7.13191e-09 0)
(1.3996 7.37671e-09 0)
(1.3996 -7.62562e-09 0)
(1.3996 7.87781e-09 0)
(1.3996 -8.13401e-09 0)
(1.3996 7.36927e-09 0)
(1.3996 -7.46198e-09 0)
(1.3996 7.55326e-09 0)
(1.3996 -7.64397e-09 0)
(1.3996 7.73323e-09 0)
(1.3996 -7.82191e-09 0)
(1.3996 7.9091e-09 0)
(1.3996 -7.99573e-09 0)
(1.3996 8.08081e-09 0)
(1.3996 -8.16532e-09 0)
(1.3996 8.24827e-09 0)
(1.3996 -8.33063e-09 0)
(1.3996 8.41137e-09 0)
(1.3996 -8.49155e-09 0)
(1.3996 8.57003e-09 0)
(1.3996 -8.64796e-09 0)
(1.3996 8.72411e-09 0)
(1.3996 -8.79979e-09 0)
(1.3996 8.87343e-09 0)
(1.3996 -8.94705e-09 0)
(1.3996 9.01781e-09 0)
(1.3996 -9.08954e-09 0)
(1.3996 9.15727e-09 0)
(1.3996 -9.227e-09 0)
(1.3996 9.29165e-09 0)
(1.3996 -9.35922e-09 0)
(1.3996 9.42077e-09 0)
(1.3996 -9.48604e-09 0)
(1.3996 9.54435e-09 0)
(1.3996 -9.60712e-09 0)
(1.3996 9.66222e-09 0)
(1.3996 -9.72221e-09 0)
(1.3996 9.77405e-09 0)
(1.3996 -9.83091e-09 0)
(1.3996 9.87946e-09 0)
(1.3996 -9.93308e-09 0)
(1.3996 9.97791e-09 0)
(1.3996 -1.00281e-08 0)
(1.3996 1.00691e-08 0)
(1.3996 -1.01154e-08 0)
(1.3996 1.01523e-08 0)
(1.3996 -1.01941e-08 0)
(1.3996 1.02266e-08 0)
(1.3996 -1.02634e-08 0)
(1.3996 1.02909e-08 0)
(1.3996 -1.03218e-08 0)
(1.3996 1.0343e-08 0)
(1.3996 -1.03664e-08 0)
(1.3996 1.03786e-08 0)
(1.3996 -1.03901e-08 0)
)
;

boundaryField
{
    inandouthalf11
    {
        type            cyclic;
    }
    inandouthalf12
    {
        type            cyclic;
    }
    inandouthalf21
    {
        type            cyclic;
    }
    inandouthalf22
    {
        type            cyclic;
    }
    inandouthalf31
    {
        type            cyclic;
    }
    inandouthalf32
    {
        type            cyclic;
    }
    inandouthalf41
    {
        type            cyclic;
    }
    inandouthalf42
    {
        type            cyclic;
    }
    top
    {
        type            symmetryPlane;
    }
    walls
    {
        type            fixedValue;
        value           uniform (0 0 0);
    }
    frontAndBackPlanes
    {
        type            empty;
    }
}


// ************************************************************************* //
