/*--------------------------------*- C++ -*----------------------------------*\
| =========                 |                                                 |
| \\      /  F ield         | OpenFOAM: The Open Source CFD Toolbox           |
|  \\    /   O peration     | Version:  2.4.x                                 |
|   \\  /    A nd           | Web:      www.OpenFOAM.org                      |
|    \\/     M anipulation  |                                                 |
\*---------------------------------------------------------------------------*/
FoamFile
{
    version     2.0;
    format      ascii;
    class       volVectorField;
    location    "5.5";
    object      ddt0(Ub);
}
// * * * * * * * * * * * * * * * * * * * * * * * * * * * * * * * * * * * * * //

dimensions      [0 1 -2 0 0 0 0];

internalField   nonuniform List<vector> 
360
(
(-2.41319e-06 -2.18821e-08 0)
(-2.39111e-06 -9.43295e-08 0)
(-2.37344e-06 -1.91151e-07 0)
(-2.36132e-06 -2.78868e-07 0)
(-2.34953e-06 -3.60561e-07 0)
(-2.33687e-06 -4.42371e-07 0)
(-2.32361e-06 -5.26782e-07 0)
(-2.30997e-06 -6.13251e-07 0)
(-2.29611e-06 -7.0048e-07 0)
(-2.28212e-06 -7.87803e-07 0)
(-2.26797e-06 -8.75309e-07 0)
(-2.25359e-06 -9.63342e-07 0)
(-2.23893e-06 -1.05215e-06 0)
(-2.22399e-06 -1.14175e-06 0)
(-2.20879e-06 -1.23198e-06 0)
(-2.19336e-06 -1.3227e-06 0)
(-2.1777e-06 -1.41378e-06 0)
(-2.16183e-06 -1.50511e-06 0)
(-2.14574e-06 -1.59663e-06 0)
(-2.12945e-06 -1.68834e-06 0)
(-2.11293e-06 -1.78029e-06 0)
(-2.09614e-06 -1.87278e-06 0)
(-2.07898e-06 -1.96637e-06 0)
(-2.06133e-06 -2.06188e-06 0)
(-2.043e-06 -2.16036e-06 0)
(-2.02378e-06 -2.26304e-06 0)
(-2.00346e-06 -2.37111e-06 0)
(-1.98186e-06 -2.4855e-06 0)
(-1.95892e-06 -2.60644e-06 0)
(-1.93475e-06 -2.733e-06 0)
(-1.90975e-06 -2.86265e-06 0)
(-1.88463e-06 -2.99107e-06 0)
(-1.86044e-06 -3.11193e-06 0)
(-1.83852e-06 -3.21783e-06 0)
(-1.8202e-06 -3.30133e-06 0)
(-1.80652e-06 -3.35725e-06 0)
(-1.79768e-06 -3.38516e-06 0)
(-1.79263e-06 -3.39168e-06 0)
(-1.7888e-06 -3.39177e-06 0)
(-1.78202e-06 -3.40868e-06 0)
(-1.76668e-06 -3.47361e-06 0)
(-1.73564e-06 -3.62528e-06 0)
(-1.68005e-06 -3.91128e-06 0)
(-1.58873e-06 -4.39109e-06 0)
(-1.4478e-06 -5.13532e-06 0)
(-1.24297e-06 -6.20958e-06 0)
(-9.6945e-07 -7.61425e-06 0)
(-6.58076e-07 -9.1483e-06 0)
(-4.14761e-07 -1.02575e-05 0)
(-4.20302e-07 -1.01378e-05 0)
(-7.96254e-07 -8.34902e-06 0)
(-1.41283e-06 -5.4708e-06 0)
(-1.96309e-06 -2.76713e-06 0)
(-2.27366e-06 -1.06766e-06 0)
(-2.39247e-06 -3.16599e-07 0)
(-2.42593e-06 -7.34996e-08 0)
(-2.4338e-06 -1.23069e-08 0)
(-2.43579e-06 7.74861e-10 0)
(-2.43658e-06 3.43103e-09 0)
(-2.43715e-06 3.99176e-09 0)
(-2.4377e-06 4.11216e-09 0)
(-2.43823e-06 4.12991e-09 0)
(-2.43879e-06 4.11837e-09 0)
(-2.43936e-06 4.08936e-09 0)
(-2.43994e-06 4.05318e-09 0)
(-2.44053e-06 4.00941e-09 0)
(-2.44115e-06 3.95736e-09 0)
(-2.44178e-06 3.89808e-09 0)
(-2.44244e-06 3.83433e-09 0)
(-2.44311e-06 3.76682e-09 0)
(-2.44382e-06 3.69926e-09 0)
(-2.44456e-06 3.6243e-09 0)
(-2.44531e-06 3.54586e-09 0)
(-2.44609e-06 3.47251e-09 0)
(-2.44689e-06 3.4011e-09 0)
(-2.44772e-06 3.32818e-09 0)
(-2.44855e-06 3.2509e-09 0)
(-2.44941e-06 3.18112e-09 0)
(-2.45028e-06 3.11426e-09 0)
(-2.45118e-06 3.03973e-09 0)
(-2.4521e-06 2.96399e-09 0)
(-2.45305e-06 2.89323e-09 0)
(-2.45402e-06 2.8209e-09 0)
(-2.45502e-06 2.74708e-09 0)
(-2.45604e-06 2.67294e-09 0)
(-2.45708e-06 2.59342e-09 0)
(-2.45816e-06 2.51397e-09 0)
(-2.45925e-06 2.43139e-09 0)
(-2.46036e-06 2.344e-09 0)
(-2.4615e-06 2.25576e-09 0)
(-2.46267e-06 2.16746e-09 0)
(-2.46386e-06 2.08133e-09 0)
(-2.46508e-06 1.994e-09 0)
(-2.46633e-06 1.90591e-09 0)
(-2.4676e-06 1.8148e-09 0)
(-2.46891e-06 1.72148e-09 0)
(-2.47025e-06 1.6327e-09 0)
(-2.47162e-06 1.54221e-09 0)
(-2.47303e-06 1.44782e-09 0)
(-2.47446e-06 1.35474e-09 0)
(-2.47593e-06 1.26274e-09 0)
(-2.47744e-06 1.16953e-09 0)
(-2.47899e-06 1.077e-09 0)
(-2.48057e-06 9.83652e-10 0)
(-2.48219e-06 8.92505e-10 0)
(-2.48386e-06 8.01773e-10 0)
(-2.48557e-06 7.06093e-10 0)
(-2.48733e-06 6.08363e-10 0)
(-2.48913e-06 5.15482e-10 0)
(-2.49098e-06 4.30195e-10 0)
(-2.49288e-06 3.42446e-10 0)
(-2.49484e-06 2.54028e-10 0)
(-2.49685e-06 1.65022e-10 0)
(-2.49892e-06 7.6086e-11 0)
(-2.50106e-06 -1.00595e-11 0)
(-2.50326e-06 -9.58396e-11 0)
(-2.50552e-06 -1.83426e-10 0)
(-2.50786e-06 -2.70951e-10 0)
(-2.51027e-06 -3.55061e-10 0)
(-2.51275e-06 -4.39297e-10 0)
(-2.51532e-06 -5.23074e-10 0)
(-2.51797e-06 -6.04331e-10 0)
(-2.52072e-06 -6.89599e-10 0)
(-2.52355e-06 -7.7735e-10 0)
(-2.52648e-06 -8.58322e-10 0)
(-2.52952e-06 -9.37922e-10 0)
(-2.53267e-06 -1.01989e-09 0)
(-2.53594e-06 -1.10189e-09 0)
(-2.53934e-06 -1.18483e-09 0)
(-2.54289e-06 -1.26378e-09 0)
(-2.54658e-06 -1.3415e-09 0)
(-2.55043e-06 -1.41771e-09 0)
(-2.55445e-06 -1.49469e-09 0)
(-2.5587e-06 -1.56938e-09 0)
(-2.56323e-06 -1.64039e-09 0)
(-2.56802e-06 -1.71337e-09 0)
(-2.57306e-06 -1.7912e-09 0)
(-2.57841e-06 -1.87729e-09 0)
(-2.58437e-06 -1.95969e-09 0)
(-2.59121e-06 -2.02183e-09 0)
(-2.59863e-06 -2.11753e-09 0)
(-2.60572e-06 -2.23644e-09 0)
(-2.61422e-06 -2.32531e-09 0)
(-2.62528e-06 -2.67238e-09 0)
(-2.63904e-06 3.28468e-09 0)
(-2.66268e-06 -1.6919e-06 0)
(-1.28014e-06 1.26845e-05 0)
(0.000886443 9.23292e-06 0)
(0.0318887 2.71084e-05 0)
(0.02495 -0.000105609 0)
(0.0256478 2.0324e-05 0)
(0.029298 -4.75091e-05 0)
(0.0342341 -2.88348e-05 0)
(0.0396763 -1.90619e-05 0)
(0.0452083 -1.21723e-05 0)
(0.0506026 -5.9995e-06 0)
(0.0557427 -6.23789e-07 0)
(0.0605779 3.66513e-06 0)
(0.0650955 6.8628e-06 0)
(0.0693031 9.1129e-06 0)
(0.0732184 1.05789e-05 0)
(0.076863 1.14227e-05 0)
(0.0802595 1.17864e-05 0)
(0.0834293 1.17889e-05 0)
(0.0863925 1.15275e-05 0)
(0.0891668 1.10797e-05 0)
(0.0917683 1.05063e-05 0)
(0.0942107 9.85422e-06 0)
(0.0965061 9.15927e-06 0)
(0.0986651 8.44835e-06 0)
(0.100696 7.74106e-06 0)
(0.102608 7.05128e-06 0)
(0.104405 6.38845e-06 0)
(0.106094 5.75851e-06 0)
(0.107678 5.16489e-06 0)
(0.109162 4.60909e-06 0)
(0.110546 4.09129e-06 0)
(0.111833 3.61069e-06 0)
(0.113024 3.16594e-06 0)
(0.114119 2.75529e-06 0)
(0.115116 2.37682e-06 0)
(0.116015 2.02828e-06 0)
(0.116814 1.70679e-06 0)
(0.117511 1.40831e-06 0)
(0.118101 1.12728e-06 0)
(0.118581 8.57076e-07 0)
(0.118947 5.91525e-07 0)
(0.119193 3.27554e-07 0)
(0.119314 6.78855e-08 0)
(0.119301 -1.77977e-07 0)
(0.119149 -3.95832e-07 0)
(0.118848 -5.71064e-07 0)
(0.118392 -6.9282e-07 0)
(0.117771 -7.5759e-07 0)
(0.116977 -7.72482e-07 0)
(0.116002 -7.54436e-07 0)
(0.114837 -7.2199e-07 0)
(0.113474 -6.85321e-07 0)
(0.111904 -6.44047e-07 0)
(0.11012 -5.94236e-07 0)
(0.108117 -5.35961e-07 0)
(0.105866 -4.72423e-07 0)
(0.103331 -4.06951e-07 0)
(0.100497 -3.44303e-07 0)
(0.0973512 -2.88969e-07 0)
(0.093888 -2.4127e-07 0)
(0.0901078 -1.99703e-07 0)
(0.0860205 -1.64709e-07 0)
(0.0816474 -1.36126e-07 0)
(0.0770227 -1.12246e-07 0)
(0.0721939 -9.22413e-08 0)
(0.0672216 -7.58364e-08 0)
(0.0621761 -6.24619e-08 0)
(0.0571334 -5.15791e-08 0)
(0.0521692 -4.2546e-08 0)
(0.0473524 -3.50341e-08 0)
(0.0427403 -2.9019e-08 0)
(0.0383739 -2.406e-08 0)
(0.0342774 -1.98021e-08 0)
(0.030459 -1.63188e-08 0)
(0.0269135 -1.35284e-08 0)
(0.0236261 -1.11967e-08 0)
(0.0205765 -9.22015e-09 0)
(0.0177419 -7.60126e-09 0)
(0.0150996 -6.30504e-09 0)
(0.0126284 -5.21699e-09 0)
(0.0103101 -4.29481e-09 0)
(0.0081288 -3.54697e-09 0)
(0.00607159 -2.92664e-09 0)
(0.00412778 -2.40184e-09 0)
(0.00228867 -1.97197e-09 0)
(0.000547067 -1.6372e-09 0)
(-0.001103 -1.37784e-09 0)
(-0.00266654 -1.11341e-09 0)
(-0.00414768 -7.59208e-10 0)
(-0.00554978 -1.00923e-09 0)
(-0.00687533 -4.27175e-10 0)
(-0.00812591 -5.14627e-11 0)
(-0.00930187 -7.60558e-10 0)
(-0.0104022 -4.1847e-10 0)
(-0.0114242 -2.57341e-10 0)
(-0.012363 -2.66589e-10 0)
(-0.0132108 -2.61728e-10 0)
(-0.013956 -2.79331e-10 0)
(-0.0145818 -1.77138e-10 0)
(-0.0150637 -2.882e-10 0)
(-0.0153659 -2.33742e-10 0)
(-0.0154328 -5.98354e-11 0)
(-0.0151666 -5.38844e-10 0)
(-0.0143714 3.67002e-10 0)
(-0.0128516 -9.64449e-10 0)
(-0.00740349 8.16229e-10 0)
(-0.00423158 -1.34296e-09 0)
(-0.00402323 1.18932e-09 0)
(-0.00401932 -1.65694e-09 0)
(-0.00401924 1.49819e-09 0)
(-0.00401924 -1.90807e-09 0)
(-0.00401923 1.73808e-09 0)
(-0.00401923 -2.10165e-09 0)
(-0.00401922 1.93491e-09 0)
(-0.00401922 -2.27482e-09 0)
(-0.00401922 2.12233e-09 0)
(-0.00401922 -2.4509e-09 0)
(-0.00401921 2.31208e-09 0)
(-0.00401921 -2.64422e-09 0)
(-0.00401921 2.51163e-09 0)
(-0.00401921 -2.85238e-09 0)
(-0.00401921 2.72346e-09 0)
(-0.00401921 -3.07447e-09 0)
(-0.00401921 2.94672e-09 0)
(-0.00401921 -3.31627e-09 0)
(-0.00401921 3.17929e-09 0)
(-0.00401921 -3.57192e-09 0)
(-0.00401921 3.42701e-09 0)
(-0.00401921 -3.83858e-09 0)
(-0.00401921 3.68816e-09 0)
(-0.00401921 -4.1135e-09 0)
(-0.00401921 3.96846e-09 0)
(-0.00401921 -4.41473e-09 0)
(-0.00401921 4.26083e-09 0)
(-0.00401921 -4.71868e-09 0)
(-0.00401921 4.56432e-09 0)
(-0.00401921 -5.04063e-09 0)
(-0.00401921 4.88343e-09 0)
(-0.00401921 -5.3697e-09 0)
(-0.00401921 5.22352e-09 0)
(-0.00401921 -5.70859e-09 0)
(-0.00401921 5.58942e-09 0)
(-0.00401921 -6.05423e-09 0)
(-0.00401921 5.96948e-09 0)
(-0.00401921 -6.41269e-09 0)
(-0.00401921 6.37337e-09 0)
(-0.00401921 -6.77666e-09 0)
(-0.00401921 6.7995e-09 0)
(-0.00401921 -7.15088e-09 0)
(-0.00401921 7.24487e-09 0)
(-0.00401921 -7.55426e-09 0)
(-0.00401921 7.66867e-09 0)
(-0.00401921 -8.01096e-09 0)
(-0.00401921 8.09471e-09 0)
(-0.00401921 -8.48202e-09 0)
(-0.00401921 8.5413e-09 0)
(-0.00401921 -8.96882e-09 0)
(-0.00401921 9.00341e-09 0)
(-0.00401921 -9.47031e-09 0)
(-0.00401921 9.47602e-09 0)
(-0.00401921 -9.98631e-09 0)
(-0.00401921 9.96034e-09 0)
(-0.00401921 -1.05063e-08 0)
(-0.00401921 1.04564e-08 0)
(-0.00401921 -9.70169e-09 0)
(-0.00401921 9.41291e-09 0)
(-0.00401921 -9.79417e-09 0)
(-0.00401921 9.47651e-09 0)
(-0.00401921 -9.89031e-09 0)
(-0.00401921 9.53685e-09 0)
(-0.00401921 -9.98656e-09 0)
(-0.00401921 9.59853e-09 0)
(-0.00401921 -1.00798e-08 0)
(-0.00401921 9.66155e-09 0)
(-0.00401921 -1.01764e-08 0)
(-0.00401921 9.7122e-09 0)
(-0.00401921 -1.0279e-08 0)
(-0.00401921 9.75582e-09 0)
(-0.00401921 -1.03832e-08 0)
(-0.00401921 9.78675e-09 0)
(-0.00401921 -1.05023e-08 0)
(-0.00401921 9.75956e-09 0)
(-0.00401921 -1.08092e-08 0)
(-0.00401921 9.38491e-09 0)
(-0.00401921 -1.14369e-08 0)
(-0.00401921 8.86855e-09 0)
(-0.00401921 -1.2057e-08 0)
(-0.00401921 8.39473e-09 0)
(-0.00401921 -1.25824e-08 0)
(-0.00401921 8.05945e-09 0)
(-0.00401921 -1.30226e-08 0)
(-0.00401921 7.68388e-09 0)
(-0.00401921 -1.34519e-08 0)
(-0.00401921 7.50559e-09 0)
(-0.00401921 -1.3599e-08 0)
(-0.00401921 7.54987e-09 0)
(-0.00401921 -1.34859e-08 0)
(-0.00401921 7.93344e-09 0)
(-0.00401921 -1.32073e-08 0)
(-0.00401921 8.13284e-09 0)
(-0.00401921 -1.30434e-08 0)
(-0.00401921 8.66097e-09 0)
(-0.00401921 -1.2331e-08 0)
(-0.00401921 9.62263e-09 0)
(-0.00401921 -1.1117e-08 0)
(-0.00401921 1.14419e-08 0)
(-0.00401921 -9.09666e-09 0)
(-0.00401921 1.35128e-08 0)
(-0.00401921 -6.79786e-09 0)
(-0.00401921 1.65098e-08 0)
(-0.00401921 -3.35949e-09 0)
(-0.00401921 2.04703e-08 0)
(-0.00401921 2.23989e-09 0)
(-0.00401921 1.83652e-08 0)
)
;

boundaryField
{
    inandouthalf11
    {
        type            cyclic;
    }
    inandouthalf12
    {
        type            cyclic;
    }
    inandouthalf21
    {
        type            cyclic;
    }
    inandouthalf22
    {
        type            cyclic;
    }
    inandouthalf31
    {
        type            cyclic;
    }
    inandouthalf32
    {
        type            cyclic;
    }
    inandouthalf41
    {
        type            cyclic;
    }
    inandouthalf42
    {
        type            cyclic;
    }
    top
    {
        type            symmetryPlane;
    }
    walls
    {
        type            calculated;
        value           uniform (0 0 0);
    }
    frontAndBackPlanes
    {
        type            empty;
    }
}


// ************************************************************************* //
