/*--------------------------------*- C++ -*----------------------------------*\
| =========                 |                                                 |
| \\      /  F ield         | OpenFOAM: The Open Source CFD Toolbox           |
|  \\    /   O peration     | Version:  2.4.x                                 |
|   \\  /    A nd           | Web:      www.OpenFOAM.org                      |
|    \\/     M anipulation  |                                                 |
\*---------------------------------------------------------------------------*/
FoamFile
{
    version     2.0;
    format      ascii;
    class       volVectorField;
    location    "5.5";
    object      ddt0(Ua);
}
// * * * * * * * * * * * * * * * * * * * * * * * * * * * * * * * * * * * * * //

dimensions      [0 1 -2 0 0 0 0];

internalField   nonuniform List<vector> 
360
(
(-1.14584e-34 -7.00578e-33 0)
(1.12462e-08 5.90753e-08 0)
(2.64528e-08 1.25423e-07 0)
(4.00238e-08 1.79428e-07 0)
(5.28146e-08 2.29941e-07 0)
(6.59101e-08 2.81902e-07 0)
(7.95776e-08 3.36071e-07 0)
(9.36758e-08 3.91582e-07 0)
(1.08013e-07 4.47453e-07 0)
(1.22499e-07 5.03257e-07 0)
(1.37155e-07 5.59144e-07 0)
(1.52046e-07 6.15413e-07 0)
(1.67212e-07 6.72234e-07 0)
(1.82659e-07 7.29598e-07 0)
(1.9837e-07 7.87384e-07 0)
(2.14324e-07 8.45483e-07 0)
(2.30508e-07 9.03823e-07 0)
(2.46913e-07 9.62343e-07 0)
(2.63531e-07 1.02099e-06 0)
(2.80364e-07 1.07974e-06 0)
(2.97426e-07 1.13865e-06 0)
(3.14765e-07 1.19786e-06 0)
(3.32472e-07 1.25775e-06 0)
(3.50683e-07 1.31883e-06 0)
(3.69577e-07 1.38181e-06 0)
(3.8936e-07 1.44748e-06 0)
(4.10247e-07 1.51665e-06 0)
(4.32413e-07 1.58998e-06 0)
(4.5593e-07 1.66771e-06 0)
(4.80677e-07 1.74931e-06 0)
(5.06266e-07 1.83323e-06 0)
(5.31985e-07 1.91668e-06 0)
(5.56774e-07 1.99558e-06 0)
(5.7932e-07 2.06492e-06 0)
(5.98271e-07 2.11964e-06 0)
(6.12605e-07 2.15594e-06 0)
(6.2211e-07 2.17316e-06 0)
(6.27829e-07 2.17531e-06 0)
(6.32332e-07 2.17196e-06 0)
(6.3976e-07 2.17817e-06 0)
(6.55741e-07 2.21393e-06 0)
(6.87378e-07 2.30392e-06 0)
(7.43497e-07 2.47814e-06 0)
(8.35265e-07 2.77429e-06 0)
(9.76501e-07 3.23935e-06 0)
(1.18149e-06 3.92331e-06 0)
(1.45511e-06 4.84831e-06 0)
(1.76681e-06 5.92075e-06 0)
(2.01127e-06 6.79007e-06 0)
(2.00807e-06 6.82555e-06 0)
(1.63501e-06 5.56999e-06 0)
(1.0206e-06 3.45713e-06 0)
(4.71272e-07 1.57397e-06 0)
(1.61034e-07 5.27016e-07 0)
(4.24901e-08 1.35735e-07 0)
(9.41198e-09 2.91454e-08 0)
(1.95041e-09 5.6667e-09 0)
(4.10992e-10 9.31752e-10 0)
(8.44394e-11 -5.17263e-11 0)
(7.26335e-12 -2.79691e-10 0)
(-1.35597e-11 -3.40175e-10 0)
(-1.9553e-11 -3.57324e-10 0)
(-2.07749e-11 -3.60731e-10 0)
(-1.99358e-11 -3.58269e-10 0)
(-1.77676e-11 -3.52058e-10 0)
(-1.44012e-11 -3.42503e-10 0)
(-9.80755e-12 -3.29583e-10 0)
(-3.98584e-12 -3.13378e-10 0)
(2.94632e-12 -2.9431e-10 0)
(1.07398e-11 -2.73158e-10 0)
(1.90613e-11 -2.50895e-10 0)
(2.7561e-11 -2.28489e-10 0)
(3.59331e-11 -2.06762e-10 0)
(4.39646e-11 -1.86245e-10 0)
(5.15499e-11 -1.67163e-10 0)
(5.86757e-11 -1.49493e-10 0)
(6.53947e-11 -1.33049e-10 0)
(7.17999e-11 -1.17549e-10 0)
(7.80027e-11 -1.02677e-10 0)
(8.41163e-11 -8.81283e-11 0)
(9.02446e-11 -7.36334e-11 0)
(9.648e-11 -5.89627e-11 0)
(1.02903e-10 -4.39224e-11 0)
(1.09582e-10 -2.83562e-11 0)
(1.16574e-10 -1.21427e-11 0)
(1.23919e-10 4.80472e-12 0)
(1.31649e-10 2.25383e-11 0)
(1.39779e-10 4.10765e-11 0)
(1.48312e-10 6.04079e-11 0)
(1.57245e-10 8.05008e-11 0)
(1.66564e-10 1.01311e-10 0)
(1.76258e-10 1.22789e-10 0)
(1.86313e-10 1.44887e-10 0)
(1.96715e-10 1.67564e-10 0)
(2.07456e-10 1.90779e-10 0)
(2.18525e-10 2.14498e-10 0)
(2.29913e-10 2.38684e-10 0)
(2.41608e-10 2.63299e-10 0)
(2.53599e-10 2.88303e-10 0)
(2.65873e-10 3.13653e-10 0)
(2.78416e-10 3.39307e-10 0)
(2.91213e-10 3.6522e-10 0)
(3.04251e-10 3.91351e-10 0)
(3.17514e-10 4.17659e-10 0)
(3.30991e-10 4.44102e-10 0)
(3.44666e-10 4.70642e-10 0)
(3.58528e-10 4.97241e-10 0)
(3.72563e-10 5.23861e-10 0)
(3.86759e-10 5.50467e-10 0)
(4.01106e-10 5.77028e-10 0)
(4.15594e-10 6.03513e-10 0)
(4.30218e-10 6.29898e-10 0)
(4.44974e-10 6.56162e-10 0)
(4.59861e-10 6.82291e-10 0)
(4.74884e-10 7.08277e-10 0)
(4.90053e-10 7.3412e-10 0)
(5.05385e-10 7.59829e-10 0)
(5.20903e-10 7.85421e-10 0)
(5.36638e-10 8.10923e-10 0)
(5.52629e-10 8.36367e-10 0)
(5.68919e-10 8.6179e-10 0)
(5.85556e-10 8.87226e-10 0)
(6.02586e-10 9.127e-10 0)
(6.20048e-10 9.38218e-10 0)
(6.37964e-10 9.63758e-10 0)
(6.56335e-10 9.89258e-10 0)
(6.75131e-10 1.01461e-09 0)
(6.94284e-10 1.03967e-09 0)
(7.1368e-10 1.06422e-09 0)
(7.3315e-10 1.088e-09 0)
(7.52479e-10 1.11072e-09 0)
(7.71422e-10 1.13207e-09 0)
(7.89765e-10 1.15181e-09 0)
(8.07379e-10 1.16983e-09 0)
(8.24243e-10 1.18618e-09 0)
(8.40418e-10 1.20095e-09 0)
(8.56015e-10 1.21427e-09 0)
(8.7122e-10 1.2263e-09 0)
(8.86279e-10 1.23727e-09 0)
(9.01219e-10 1.2473e-09 0)
(9.15245e-10 1.25595e-09 0)
(9.26604e-10 1.26213e-09 0)
(9.34045e-10 1.2655e-09 0)
(9.37874e-10 1.26687e-09 0)
(9.3947e-10 1.26718e-09 0)
(9.4027e-10 1.26709e-09 0)
(9.4122e-10 1.26687e-09 0)
(-4.74785e-05 -5.97434e-06 0)
(0.0287628 9.77608e-05 0)
(0.0263658 0.000184104 0)
(0.0265993 6.74518e-05 0)
(0.0299882 9.79061e-05 0)
(0.0348467 6.89629e-05 0)
(0.0403173 2.89967e-05 0)
(0.0459212 -3.01198e-05 0)
(0.0513898 -0.000105678 0)
(0.0565821 -0.000195083 0)
(0.0614353 -0.000296035 0)
(0.0659331 -0.000406412 0)
(0.0700833 -0.000524506 0)
(0.073905 -0.00064857 0)
(0.0774214 -0.000777156 0)
(0.0806556 -0.000908933 0)
(0.0836293 -0.0010427 0)
(0.0863615 -0.00117741 0)
(0.0888688 -0.00131225 0)
(0.0911645 -0.00144654 0)
(0.0932597 -0.0015798 0)
(0.0951623 -0.0017118 0)
(0.0968782 -0.00184249 0)
(0.0984108 -0.00197194 0)
(0.0997621 -0.00210035 0)
(0.100933 -0.00222796 0)
(0.101922 -0.00235498 0)
(0.10273 -0.0024816 0)
(0.103355 -0.0026079 0)
(0.103796 -0.00273382 0)
(0.104052 -0.00285917 0)
(0.104125 -0.00298356 0)
(0.104013 -0.00310644 0)
(0.103719 -0.00322706 0)
(0.103246 -0.00334437 0)
(0.102597 -0.00345663 0)
(0.101778 -0.00356072 0)
(0.100795 -0.00365098 0)
(0.0996599 -0.00371825 0)
(0.0983844 -0.00374953 0)
(0.0969859 -0.00372935 0)
(0.095486 -0.00364301 0)
(0.0939108 -0.00348127 0)
(0.0922895 -0.00324433 0)
(0.090652 -0.00294286 0)
(0.0890264 -0.00259655 0)
(0.0874362 -0.00223141 0)
(0.0858979 -0.00187405 0)
(0.0844217 -0.00154204 0)
(0.0830149 -0.00123781 0)
(0.0816868 -0.000953272 0)
(0.0804482 -0.000681115 0)
(0.079308 -0.000422567 0)
(0.0782696 -0.00018441 0)
(0.077322 3.07563e-05 0)
(0.0764551 0.000220465 0)
(0.0756627 0.000379895 0)
(0.0749383 0.000511076 0)
(0.0742785 0.000620139 0)
(0.0736752 0.000707765 0)
(0.073118 0.000775032 0)
(0.0726036 0.000827919 0)
(0.0721269 0.000869104 0)
(0.0716788 0.000898863 0)
(0.0712545 0.000919849 0)
(0.0708487 0.000933628 0)
(0.070458 0.000942083 0)
(0.0700811 0.000947692 0)
(0.0697093 0.000949309 0)
(0.0693414 0.000948619 0)
(0.0689818 0.000949532 0)
(0.0686206 0.000949879 0)
(0.0682526 0.000949001 0)
(0.0678819 0.000949885 0)
(0.067507 0.000952994 0)
(0.0671232 0.000957723 0)
(0.0667255 0.000962604 0)
(0.0663185 0.000969908 0)
(0.065905 0.000981967 0)
(0.0654762 0.000995339 0)
(0.0650349 0.00101153 0)
(0.0645841 0.00103294 0)
(0.064118 0.00105719 0)
(0.0636352 0.00108386 0)
(0.0631352 0.00111192 0)
(0.0626372 0.00115088 0)
(0.0621496 0.00121354 0)
(0.0616425 0.00128316 0)
(0.061041 0.00127676 0)
(0.0602081 0.00140143 0)
(-0.0104965 -0.0128106 0)
(-0.00992701 0.0232747 0)
(-0.0110923 0.0971517 0)
(-0.0116054 0.000160043 0)
(-0.0126098 3.50227e-05 0)
(-0.0134175 4.57733e-05 0)
(-0.0141312 4.34868e-05 0)
(-0.0147192 4.11695e-05 0)
(-0.0151558 3.73438e-05 0)
(-0.0154011 3.15454e-05 0)
(-0.0153948 2.25915e-05 0)
(-0.0150562 7.55804e-06 0)
(-0.0144774 -2.1088e-05 0)
(-0.0113107 -8.44321e-05 0)
(-0.00636355 -9.57293e-05 0)
(-0.0041074 -3.55628e-05 0)
(-0.00396914 -2.225e-06 0)
(-0.00396641 9.53781e-08 0)
(-0.00396655 -3.29942e-10 0)
(-0.00396653 5.19527e-09 0)
(-0.00396653 5.67362e-09 0)
(-0.00396652 4.81038e-09 0)
(-0.00396652 5.73495e-09 0)
(-0.00396652 4.76468e-09 0)
(-0.00396651 5.77523e-09 0)
(-0.00396651 4.72144e-09 0)
(-0.00396651 5.81586e-09 0)
(-0.00396651 4.67435e-09 0)
(-0.00396651 5.85927e-09 0)
(-0.00396651 4.62393e-09 0)
(-0.00396651 5.90573e-09 0)
(-0.00396651 4.56825e-09 0)
(-0.00396651 5.90953e-09 0)
(-0.00396651 4.65079e-09 0)
(-0.00396651 5.77802e-09 0)
(-0.00396651 4.65124e-09 0)
(-0.00396651 5.93246e-09 0)
(-0.00396651 4.5184e-09 0)
(-0.00396651 5.98641e-09 0)
(-0.00396651 4.45835e-09 0)
(-0.00396651 6.04613e-09 0)
(-0.00396651 4.3902e-09 0)
(-0.00396651 6.10887e-09 0)
(-0.00396651 4.32314e-09 0)
(-0.00396651 6.17395e-09 0)
(-0.00396651 4.25102e-09 0)
(-0.00396651 6.24345e-09 0)
(-0.00396651 4.1783e-09 0)
(-0.00396651 6.31901e-09 0)
(-0.00396651 4.10415e-09 0)
(-0.00396651 6.40309e-09 0)
(-0.00396651 4.02975e-09 0)
(-0.00396651 6.49051e-09 0)
(-0.00396651 3.95231e-09 0)
(-0.00396651 6.5852e-09 0)
(-0.00396651 3.87531e-09 0)
(-0.00396651 6.68656e-09 0)
(-0.00396651 3.79658e-09 0)
(-0.00396651 6.79328e-09 0)
(-0.00396651 3.70856e-09 0)
(-0.00396651 6.88895e-09 0)
(-0.00396651 3.60196e-09 0)
(-0.00396651 6.98312e-09 0)
(-0.00396651 3.49219e-09 0)
(-0.00396651 7.08279e-09 0)
(-0.00396651 3.37874e-09 0)
(-0.00396651 7.1864e-09 0)
(-0.00396651 3.26203e-09 0)
(-0.00396651 7.29181e-09 0)
(-0.00396651 3.14146e-09 0)
(-0.00396651 7.40028e-09 0)
(-0.00396651 3.02131e-09 0)
(-0.00396651 7.52461e-09 0)
(-0.00396651 3.20465e-09 0)
(-0.00396651 7.26961e-09 0)
(-0.00396651 3.18362e-09 0)
(-0.00396651 7.2804e-09 0)
(-0.00396651 3.16143e-09 0)
(-0.00396651 7.28994e-09 0)
(-0.00396651 3.13885e-09 0)
(-0.00396651 7.30023e-09 0)
(-0.00396651 3.1169e-09 0)
(-0.00396651 7.31131e-09 0)
(-0.00396651 3.09351e-09 0)
(-0.00396651 7.31822e-09 0)
(-0.00396651 3.0675e-09 0)
(-0.00396651 7.32289e-09 0)
(-0.00396651 3.04057e-09 0)
(-0.00396651 7.32317e-09 0)
(-0.00396651 3.00789e-09 0)
(-0.00396651 7.30296e-09 0)
(-0.00396651 2.9055e-09 0)
(-0.00396651 7.1545e-09 0)
(-0.00396651 2.68376e-09 0)
(-0.00396651 6.95463e-09 0)
(-0.00396651 2.4653e-09 0)
(-0.00396651 6.77118e-09 0)
(-0.00396651 2.2813e-09 0)
(-0.00396651 6.63983e-09 0)
(-0.00396651 2.12914e-09 0)
(-0.00396651 6.4939e-09 0)
(-0.00396651 1.97994e-09 0)
(-0.00396651 6.42159e-09 0)
(-0.00396651 1.9351e-09 0)
(-0.00396651 6.43152e-09 0)
(-0.00396651 1.98546e-09 0)
(-0.00396651 6.56725e-09 0)
(-0.00396651 2.09697e-09 0)
(-0.00396651 6.63556e-09 0)
(-0.00396651 2.16468e-09 0)
(-0.00396651 6.82449e-09 0)
(-0.00396651 2.43204e-09 0)
(-0.00396651 7.17045e-09 0)
(-0.00396651 2.88128e-09 0)
(-0.00396651 7.83403e-09 0)
(-0.00396651 3.6254e-09 0)
(-0.00396651 8.58108e-09 0)
(-0.00396651 4.47217e-09 0)
(-0.00396651 9.76546e-09 0)
(-0.00396651 -2.09248e-10 0)
(-0.00396649 -8.18843e-07 0)
(-0.00396605 -6.59376e-05 0)
(-0.00395624 -7.13707e-05 0)
)
;

boundaryField
{
    inandouthalf11
    {
        type            cyclic;
    }
    inandouthalf12
    {
        type            cyclic;
    }
    inandouthalf21
    {
        type            cyclic;
    }
    inandouthalf22
    {
        type            cyclic;
    }
    inandouthalf31
    {
        type            cyclic;
    }
    inandouthalf32
    {
        type            cyclic;
    }
    inandouthalf41
    {
        type            cyclic;
    }
    inandouthalf42
    {
        type            cyclic;
    }
    top
    {
        type            symmetryPlane;
    }
    walls
    {
        type            calculated;
        value           uniform (0 0 0);
    }
    frontAndBackPlanes
    {
        type            empty;
    }
}


// ************************************************************************* //
