/*--------------------------------*- C++ -*----------------------------------*\
| =========                 |                                                 |
| \\      /  F ield         | OpenFOAM: The Open Source CFD Toolbox           |
|  \\    /   O peration     | Version:  2.4.x                                 |
|   \\  /    A nd           | Web:      www.OpenFOAM.org                      |
|    \\/     M anipulation  |                                                 |
\*---------------------------------------------------------------------------*/
FoamFile
{
    version     2.0;
    format      ascii;
    class       surfaceScalarField;
    location    "5.5";
    object      ddt0(phib);
}
// * * * * * * * * * * * * * * * * * * * * * * * * * * * * * * * * * * * * * //

dimensions      [0 3 -2 0 0 0 0];

internalField   nonuniform List<scalar> 
359
(
-1.89146e-13
-5.79371e-13
-9.4998e-13
-1.28106e-12
-1.60343e-12
-1.93556e-12
-2.27874e-12
-2.62732e-12
-2.97661e-12
-3.32591e-12
-3.67665e-12
-4.03017e-12
-4.3871e-12
-4.74696e-12
-5.10898e-12
-5.47269e-12
-5.8376e-12
-6.20339e-12
-6.56977e-12
-6.937e-12
-7.30543e-12
-7.67692e-12
-8.05417e-12
-8.44098e-12
-8.84206e-12
-9.26244e-12
-9.70662e-12
-1.01775e-11
-1.06742e-11
-1.119e-11
-1.17114e-11
-1.22172e-11
-1.26783e-11
-1.30641e-11
-1.33462e-11
-1.35113e-11
-1.35696e-11
-1.35637e-11
-1.35706e-11
-1.36997e-11
-1.40906e-11
-1.4914e-11
-1.63802e-11
-1.87545e-11
-2.23368e-11
-2.73501e-11
-3.35699e-11
-3.96095e-11
-4.24277e-11
-3.86312e-11
-2.81212e-11
-1.56471e-11
-6.51974e-12
-2.04557e-12
-4.98045e-13
-9.35555e-14
-5.8893e-15
1.18521e-14
1.5551e-14
1.63708e-14
1.65221e-14
1.65173e-14
1.64272e-14
1.62885e-14
1.61379e-14
1.59389e-14
1.57196e-14
1.54647e-14
1.52129e-14
1.4923e-14
1.46661e-14
1.43297e-14
1.40382e-14
1.37402e-14
1.34676e-14
1.31568e-14
1.28524e-14
1.25969e-14
1.23169e-14
1.20017e-14
1.17113e-14
1.14342e-14
1.11329e-14
1.08435e-14
1.05398e-14
1.02072e-14
9.90417e-15
9.54728e-15
9.20496e-15
8.84127e-15
8.49892e-15
8.15215e-15
7.79997e-15
7.44747e-15
7.07106e-15
6.70083e-15
6.36085e-15
5.97705e-15
5.60572e-15
5.23243e-15
4.8698e-15
4.48675e-15
4.12959e-15
3.73996e-15
3.40043e-15
3.01413e-15
2.63503e-15
2.23232e-15
1.89201e-15
1.55005e-15
1.19005e-15
8.42728e-16
4.78022e-16
1.31269e-16
-2.11113e-16
-5.54935e-16
-9.1177e-16
-1.25509e-15
-1.5846e-15
-1.92894e-15
-2.25478e-15
-2.57897e-15
-2.93685e-15
-3.28079e-15
-3.58426e-15
-3.91707e-15
-4.23951e-15
-4.57305e-15
-4.9037e-15
-5.20526e-15
-5.52349e-15
-5.80906e-15
-6.13532e-15
-6.41391e-15
-6.71468e-15
-6.98645e-15
-7.29412e-15
-7.64395e-15
-8.03948e-15
-8.31678e-15
-8.5078e-15
-8.97478e-15
-9.72778e-15
-1.11307e-14
-2.02462e-14
-7.33951e-14
4.4724e-11
1.30383e-10
-2.37781e-10
-6.4768e-11
-1.39861e-10
-1.10952e-10
-8.95495e-11
-6.26562e-11
-3.62093e-11
-1.28499e-11
6.37546e-12
2.1197e-11
3.20282e-11
3.94213e-11
4.40198e-11
4.64247e-11
4.71508e-11
4.663e-11
4.52094e-11
4.31664e-11
4.07152e-11
3.80212e-11
3.52099e-11
3.23742e-11
2.95809e-11
2.68764e-11
2.42916e-11
2.18451e-11
1.95468e-11
1.74e-11
1.54035e-11
1.3553e-11
1.18423e-11
1.02639e-11
8.80962e-12
7.46925e-12
6.22928e-12
5.07088e-12
3.96983e-12
2.90022e-12
1.84257e-12
7.94991e-13
-2.18399e-13
-1.14878e-12
-1.9372e-12
-2.53336e-12
-2.90783e-12
-3.06411e-12
-3.05071e-12
-2.9452e-12
-2.80932e-12
-2.65957e-12
-2.48004e-12
-2.26107e-12
-2.01747e-12
-1.76064e-12
-1.50164e-12
-1.26463e-12
-1.06256e-12
-8.83697e-13
-7.28007e-13
-6.02452e-13
-4.98212e-13
-4.09195e-13
-3.36592e-13
-2.76958e-13
-2.28316e-13
-1.8892e-13
-1.55227e-13
-1.28016e-13
-1.06669e-13
-8.78838e-14
-7.21348e-14
-5.98165e-14
-4.95902e-14
-4.0908e-14
-3.36099e-14
-2.78348e-14
-2.31467e-14
-1.90099e-14
-1.56812e-14
-1.29916e-14
-1.06666e-14
-8.75784e-15
-7.19836e-15
-6.01274e-15
-5.04935e-15
-4.09408e-15
-3.20011e-15
-3.24688e-15
-8.30255e-16
-1.57617e-15
-2.6335e-15
-1.15206e-15
-1.11324e-15
-1.05897e-15
-1.01464e-15
-9.83611e-16
-9.44423e-16
-9.01266e-16
-8.62868e-16
-8.15698e-16
-7.79328e-16
-7.49906e-16
-7.13306e-16
-6.75179e-16
-6.49178e-16
-6.20465e-16
-5.97195e-16
-5.7459e-16
-5.5552e-16
-5.29327e-16
-5.15947e-16
-5.02891e-16
-4.84229e-16
-4.67536e-16
-4.67503e-16
-4.65572e-16
-4.69395e-16
-4.69832e-16
-4.76422e-16
-4.74838e-16
-4.86197e-16
-4.98984e-16
-5.19831e-16
-5.33159e-16
-5.45561e-16
-5.6392e-16
-5.71227e-16
-5.73646e-16
-5.87435e-16
-5.92828e-16
-6.01955e-16
-6.00776e-16
-6.2168e-16
-6.37925e-16
-6.46242e-16
-6.36332e-16
-6.4192e-16
-6.17503e-16
-6.05127e-16
-5.50032e-16
-5.49516e-16
-5.11434e-16
-4.74318e-16
-4.04236e-16
-3.63177e-16
-2.96731e-16
-2.27351e-16
-1.2957e-16
-2.04268e-16
-2.44019e-16
-2.92979e-16
-3.02766e-16
-3.50784e-16
-3.81466e-16
-4.1738e-16
-4.31151e-16
-4.87539e-16
-5.22039e-16
-5.61868e-16
-5.81729e-16
-6.11692e-16
-6.42834e-16
-6.59042e-16
-6.64411e-16
-7.1345e-16
-7.51647e-16
-7.90065e-16
-8.12989e-16
-8.6177e-16
-8.87608e-16
-9.14222e-16
-9.20273e-16
-1.00805e-15
-1.06198e-15
-1.12817e-15
-1.14368e-15
-1.27611e-15
-1.33946e-15
-1.48171e-15
-1.5379e-15
-2.87251e-15
-4.04138e-15
-5.29379e-15
-6.23694e-15
-7.53981e-15
-8.37476e-15
-9.23562e-15
-9.55928e-15
-1.09369e-14
-1.15807e-14
-1.22467e-14
-1.19734e-14
-1.25046e-14
-1.19275e-14
-1.14116e-14
-9.83154e-15
-1.05296e-14
-9.90352e-15
-9.32126e-15
-7.03229e-15
-6.01978e-15
-3.13682e-15
-1.09442e-16
5.39015e-15
8.17877e-15
1.31829e-14
1.85399e-14
2.68976e-14
3.25307e-14
4.38473e-14
6.34416e-14
)
;

boundaryField
{
    inandouthalf11
    {
        type            cyclic;
        value           nonuniform List<scalar> 
100
(
2.41319e-12
2.39111e-12
2.37344e-12
2.36132e-12
2.34953e-12
2.33687e-12
2.32361e-12
2.30997e-12
2.29611e-12
2.28212e-12
2.26797e-12
2.25359e-12
2.23893e-12
2.22399e-12
2.20879e-12
2.19336e-12
2.1777e-12
2.16183e-12
2.14574e-12
2.12945e-12
2.11293e-12
2.09614e-12
2.07898e-12
2.06133e-12
2.043e-12
2.02378e-12
2.00346e-12
1.98186e-12
1.95892e-12
1.93475e-12
1.90975e-12
1.88463e-12
1.86044e-12
1.83852e-12
1.8202e-12
1.80652e-12
1.79768e-12
1.79263e-12
1.7888e-12
1.78202e-12
1.76668e-12
1.73564e-12
1.68005e-12
1.58873e-12
1.4478e-12
1.24297e-12
9.6945e-13
6.58076e-13
4.14761e-13
4.20302e-13
7.96254e-13
1.41283e-12
1.96309e-12
2.27366e-12
2.39247e-12
2.42593e-12
2.4338e-12
2.43579e-12
2.43658e-12
2.43715e-12
2.4377e-12
2.43823e-12
2.43879e-12
2.43936e-12
2.43994e-12
2.44053e-12
2.44115e-12
2.44178e-12
2.44244e-12
2.44311e-12
2.44382e-12
2.44456e-12
2.44531e-12
2.44609e-12
2.44689e-12
2.44772e-12
2.44855e-12
2.44941e-12
2.45028e-12
2.45118e-12
2.4521e-12
2.45305e-12
2.45402e-12
2.45502e-12
2.45604e-12
2.45708e-12
2.45816e-12
2.45925e-12
2.46036e-12
2.4615e-12
2.46267e-12
2.46386e-12
2.46508e-12
2.46633e-12
2.4676e-12
2.46891e-12
2.47025e-12
2.47162e-12
2.47303e-12
2.47446e-12
)
;
    }
    inandouthalf12
    {
        type            cyclic;
        value           nonuniform List<scalar> 
100
(
-2.41319e-12
-2.39111e-12
-2.37344e-12
-2.36132e-12
-2.34953e-12
-2.33687e-12
-2.32361e-12
-2.30997e-12
-2.29611e-12
-2.28212e-12
-2.26797e-12
-2.25359e-12
-2.23893e-12
-2.22399e-12
-2.20879e-12
-2.19336e-12
-2.1777e-12
-2.16183e-12
-2.14574e-12
-2.12945e-12
-2.11293e-12
-2.09614e-12
-2.07898e-12
-2.06133e-12
-2.043e-12
-2.02378e-12
-2.00346e-12
-1.98186e-12
-1.95892e-12
-1.93475e-12
-1.90975e-12
-1.88463e-12
-1.86044e-12
-1.83852e-12
-1.8202e-12
-1.80652e-12
-1.79768e-12
-1.79263e-12
-1.7888e-12
-1.78202e-12
-1.76668e-12
-1.73564e-12
-1.68005e-12
-1.58873e-12
-1.4478e-12
-1.24297e-12
-9.6945e-13
-6.58076e-13
-4.14761e-13
-4.20302e-13
-7.96254e-13
-1.41283e-12
-1.96309e-12
-2.27366e-12
-2.39247e-12
-2.42593e-12
-2.4338e-12
-2.43579e-12
-2.43658e-12
-2.43715e-12
-2.4377e-12
-2.43823e-12
-2.43879e-12
-2.43936e-12
-2.43994e-12
-2.44053e-12
-2.44115e-12
-2.44178e-12
-2.44244e-12
-2.44311e-12
-2.44382e-12
-2.44456e-12
-2.44531e-12
-2.44609e-12
-2.44689e-12
-2.44772e-12
-2.44855e-12
-2.44941e-12
-2.45028e-12
-2.45118e-12
-2.4521e-12
-2.45305e-12
-2.45402e-12
-2.45502e-12
-2.45604e-12
-2.45708e-12
-2.45816e-12
-2.45925e-12
-2.46036e-12
-2.4615e-12
-2.46267e-12
-2.46386e-12
-2.46508e-12
-2.46633e-12
-2.4676e-12
-2.46891e-12
-2.47025e-12
-2.47162e-12
-2.47303e-12
-2.47446e-12
)
;
    }
    inandouthalf21
    {
        type            cyclic;
        value           nonuniform List<scalar> 
100
(
2.47593e-12
2.47744e-12
2.47899e-12
2.48057e-12
2.48219e-12
2.48386e-12
2.48557e-12
2.48733e-12
2.48913e-12
2.49098e-12
2.49288e-12
2.49484e-12
2.49685e-12
2.49892e-12
2.50106e-12
2.50326e-12
2.50552e-12
2.50786e-12
2.51027e-12
2.51275e-12
2.51532e-12
2.51797e-12
2.52072e-12
2.52355e-12
2.52648e-12
2.52952e-12
2.53267e-12
2.53594e-12
2.53934e-12
2.54289e-12
2.54658e-12
2.55043e-12
2.55445e-12
2.5587e-12
2.56323e-12
2.56802e-12
2.57306e-12
2.57841e-12
2.58437e-12
2.59121e-12
2.59863e-12
2.60572e-12
2.61422e-12
2.62528e-12
2.63904e-12
2.66268e-12
1.28014e-12
-8.86443e-10
-3.18887e-08
-2.495e-08
-2.56478e-08
-2.9298e-08
-3.42341e-08
-3.96763e-08
-4.52083e-08
-5.06026e-08
-5.57427e-08
-6.05779e-08
-6.50955e-08
-6.93031e-08
-7.32184e-08
-7.6863e-08
-8.02595e-08
-8.34293e-08
-8.63925e-08
-8.91668e-08
-9.17683e-08
-9.42107e-08
-9.65061e-08
-9.86651e-08
-1.00696e-07
-1.02608e-07
-1.04405e-07
-1.06094e-07
-1.07678e-07
-1.09162e-07
-1.10546e-07
-1.11833e-07
-1.13024e-07
-1.14119e-07
-1.15116e-07
-1.16015e-07
-1.16814e-07
-1.17511e-07
-1.18101e-07
-1.18581e-07
-1.18947e-07
-1.19193e-07
-1.19314e-07
-1.19301e-07
-1.19149e-07
-1.18848e-07
-1.18392e-07
-1.17771e-07
-1.16977e-07
-1.16002e-07
-1.14837e-07
-1.13474e-07
-1.11904e-07
-1.1012e-07
)
;
    }
    inandouthalf22
    {
        type            cyclic;
        value           nonuniform List<scalar> 
100
(
-2.47593e-12
-2.47744e-12
-2.47899e-12
-2.48057e-12
-2.48219e-12
-2.48386e-12
-2.48557e-12
-2.48733e-12
-2.48913e-12
-2.49098e-12
-2.49288e-12
-2.49484e-12
-2.49685e-12
-2.49892e-12
-2.50106e-12
-2.50326e-12
-2.50552e-12
-2.50786e-12
-2.51027e-12
-2.51275e-12
-2.51532e-12
-2.51797e-12
-2.52072e-12
-2.52355e-12
-2.52648e-12
-2.52952e-12
-2.53267e-12
-2.53594e-12
-2.53934e-12
-2.54289e-12
-2.54658e-12
-2.55043e-12
-2.55445e-12
-2.5587e-12
-2.56323e-12
-2.56802e-12
-2.57306e-12
-2.57841e-12
-2.58437e-12
-2.59121e-12
-2.59863e-12
-2.60572e-12
-2.61422e-12
-2.62528e-12
-2.63904e-12
-2.66268e-12
-1.28014e-12
8.86443e-10
3.18887e-08
2.495e-08
2.56478e-08
2.9298e-08
3.42341e-08
3.96763e-08
4.52083e-08
5.06026e-08
5.57427e-08
6.05779e-08
6.50955e-08
6.93031e-08
7.32184e-08
7.6863e-08
8.02595e-08
8.34293e-08
8.63925e-08
8.91668e-08
9.17683e-08
9.42107e-08
9.65061e-08
9.86651e-08
1.00696e-07
1.02608e-07
1.04405e-07
1.06094e-07
1.07678e-07
1.09162e-07
1.10546e-07
1.11833e-07
1.13024e-07
1.14119e-07
1.15116e-07
1.16015e-07
1.16814e-07
1.17511e-07
1.18101e-07
1.18581e-07
1.18947e-07
1.19193e-07
1.19314e-07
1.19301e-07
1.19149e-07
1.18848e-07
1.18392e-07
1.17771e-07
1.16977e-07
1.16002e-07
1.14837e-07
1.13474e-07
1.11904e-07
1.1012e-07
)
;
    }
    inandouthalf31
    {
        type            cyclic;
        value           nonuniform List<scalar> 
110
(
-1.08117e-07
-1.08015e-07
-1.07569e-07
-1.06742e-07
-1.05499e-07
-1.03811e-07
-1.01654e-07
-9.90127e-08
-9.58866e-08
-9.22913e-08
-8.82612e-08
-8.38503e-08
-7.91309e-08
-7.4189e-08
-6.91178e-08
-6.40096e-08
-5.89477e-08
-5.39998e-08
-4.92143e-08
-4.46196e-08
-4.02259e-08
-3.60292e-08
-3.20156e-08
-2.81654e-08
-2.44572e-08
-2.08699e-08
-1.73844e-08
-1.39846e-08
-1.06574e-08
-7.39255e-09
-4.18203e-09
-1.01993e-09
2.09814e-09
5.17526e-09
8.21328e-09
1.12128e-08
1.41729e-08
1.70908e-08
1.99613e-08
2.27756e-08
2.55211e-08
2.81788e-08
3.07224e-08
3.31141e-08
3.53011e-08
3.7208e-08
3.87249e-08
3.96829e-08
3.97901e-08
3.84692e-08
3.5099e-08
2.06301e-08
1.20308e-08
1.16706e-08
1.18959e-08
1.21372e-08
1.23835e-08
1.26348e-08
1.28913e-08
1.31529e-08
1.34199e-08
1.36922e-08
1.39702e-08
1.42537e-08
1.4543e-08
1.48382e-08
1.51394e-08
1.54467e-08
1.57602e-08
1.60801e-08
1.64065e-08
1.67395e-08
1.70792e-08
1.74259e-08
1.77796e-08
1.81405e-08
1.85087e-08
1.88843e-08
1.92676e-08
1.96587e-08
2.00577e-08
2.04649e-08
2.08802e-08
2.13041e-08
2.17365e-08
2.21777e-08
2.26278e-08
2.30871e-08
2.35557e-08
2.40338e-08
2.45216e-08
2.50194e-08
2.55272e-08
2.60453e-08
2.6574e-08
2.71134e-08
2.76637e-08
2.82252e-08
2.87981e-08
2.93826e-08
2.9979e-08
3.05875e-08
3.12083e-08
3.18418e-08
3.24881e-08
3.31475e-08
3.38203e-08
3.45068e-08
3.52072e-08
3.59218e-08
)
;
    }
    inandouthalf32
    {
        type            cyclic;
        value           nonuniform List<scalar> 
110
(
1.08117e-07
1.08015e-07
1.07569e-07
1.06742e-07
1.05499e-07
1.03811e-07
1.01654e-07
9.90127e-08
9.58866e-08
9.22913e-08
8.82612e-08
8.38503e-08
7.91309e-08
7.4189e-08
6.91178e-08
6.40096e-08
5.89477e-08
5.39998e-08
4.92143e-08
4.46196e-08
4.02259e-08
3.60292e-08
3.20156e-08
2.81654e-08
2.44572e-08
2.08699e-08
1.73844e-08
1.39846e-08
1.06574e-08
7.39255e-09
4.18203e-09
1.01993e-09
-2.09814e-09
-5.17526e-09
-8.21328e-09
-1.12128e-08
-1.41729e-08
-1.70908e-08
-1.99613e-08
-2.27756e-08
-2.55211e-08
-2.81788e-08
-3.07224e-08
-3.31141e-08
-3.53011e-08
-3.7208e-08
-3.87249e-08
-3.96829e-08
-3.97901e-08
-3.84692e-08
-3.5099e-08
-2.06301e-08
-1.20308e-08
-1.16706e-08
-1.18959e-08
-1.21372e-08
-1.23835e-08
-1.26348e-08
-1.28913e-08
-1.31529e-08
-1.34199e-08
-1.36922e-08
-1.39702e-08
-1.42537e-08
-1.4543e-08
-1.48382e-08
-1.51394e-08
-1.54467e-08
-1.57602e-08
-1.60801e-08
-1.64065e-08
-1.67395e-08
-1.70792e-08
-1.74259e-08
-1.77796e-08
-1.81405e-08
-1.85087e-08
-1.88843e-08
-1.92676e-08
-1.96587e-08
-2.00577e-08
-2.04649e-08
-2.08802e-08
-2.13041e-08
-2.17365e-08
-2.21777e-08
-2.26278e-08
-2.30871e-08
-2.35557e-08
-2.40338e-08
-2.45216e-08
-2.50194e-08
-2.55272e-08
-2.60453e-08
-2.6574e-08
-2.71134e-08
-2.76637e-08
-2.82252e-08
-2.87981e-08
-2.93826e-08
-2.9979e-08
-3.05875e-08
-3.12083e-08
-3.18418e-08
-3.24881e-08
-3.31475e-08
-3.38203e-08
-3.45068e-08
-3.52072e-08
-3.59218e-08
)
;
    }
    inandouthalf41
    {
        type            cyclic;
        value           nonuniform List<scalar> 
50
(
3.21536e-08
3.21536e-08
3.21536e-08
3.21536e-08
3.21536e-08
3.21536e-08
3.21536e-08
3.21536e-08
3.21536e-08
3.21536e-08
3.21536e-08
3.21536e-08
3.21536e-08
3.21536e-08
3.21536e-08
3.21536e-08
3.21536e-08
3.21536e-08
3.21536e-08
3.21536e-08
3.21536e-08
3.21536e-08
3.21536e-08
3.21536e-08
3.21536e-08
3.21536e-08
3.21536e-08
3.21536e-08
3.21536e-08
3.21536e-08
3.21536e-08
3.21536e-08
3.21536e-08
3.21536e-08
3.21536e-08
3.21536e-08
3.21536e-08
3.21536e-08
3.21536e-08
3.21536e-08
3.21536e-08
3.21536e-08
3.21536e-08
3.21536e-08
3.21536e-08
3.21536e-08
3.21536e-08
3.21536e-08
3.21536e-08
3.21536e-08
)
;
    }
    inandouthalf42
    {
        type            cyclic;
        value           nonuniform List<scalar> 
50
(
-3.21536e-08
-3.21536e-08
-3.21536e-08
-3.21536e-08
-3.21536e-08
-3.21536e-08
-3.21536e-08
-3.21536e-08
-3.21536e-08
-3.21536e-08
-3.21536e-08
-3.21536e-08
-3.21536e-08
-3.21536e-08
-3.21536e-08
-3.21536e-08
-3.21536e-08
-3.21536e-08
-3.21536e-08
-3.21536e-08
-3.21536e-08
-3.21536e-08
-3.21536e-08
-3.21536e-08
-3.21536e-08
-3.21536e-08
-3.21536e-08
-3.21536e-08
-3.21536e-08
-3.21536e-08
-3.21536e-08
-3.21536e-08
-3.21536e-08
-3.21536e-08
-3.21536e-08
-3.21536e-08
-3.21536e-08
-3.21536e-08
-3.21536e-08
-3.21536e-08
-3.21536e-08
-3.21536e-08
-3.21536e-08
-3.21536e-08
-3.21536e-08
-3.21536e-08
-3.21536e-08
-3.21536e-08
-3.21536e-08
-3.21536e-08
)
;
    }
    top
    {
        type            symmetryPlane;
        value           uniform 0;
    }
    walls
    {
        type            calculated;
        value           uniform 0;
    }
    frontAndBackPlanes
    {
        type            empty;
        value           nonuniform 0();
    }
}


// ************************************************************************* //
