/*--------------------------------*- C++ -*----------------------------------*\
| =========                 |                                                 |
| \\      /  F ield         | OpenFOAM: The Open Source CFD Toolbox           |
|  \\    /   O peration     | Version:  2.4.x                                 |
|   \\  /    A nd           | Web:      www.OpenFOAM.org                      |
|    \\/     M anipulation  |                                                 |
\*---------------------------------------------------------------------------*/
FoamFile
{
    version     2.0;
    format      ascii;
    class       volScalarField;
    location    "5.5";
    object      k;
}
// * * * * * * * * * * * * * * * * * * * * * * * * * * * * * * * * * * * * * //

dimensions      [0 2 -2 0 0 0 0];

internalField   nonuniform List<scalar> 
360
(
1e-20
1e-20
1e-20
1e-20
1e-20
1e-20
1e-20
1e-20
1e-20
1e-20
1e-20
1e-20
1e-20
1e-20
1e-20
1e-20
1e-20
1e-20
1e-20
1e-20
1e-20
1e-20
1e-20
1e-20
1e-20
1e-20
1e-20
1e-20
1e-20
1e-20
1e-20
1e-20
1e-20
1e-20
1e-20
1e-20
1e-20
1e-20
1e-20
1e-20
1e-20
1e-20
1e-20
1e-20
1e-20
1e-20
1e-20
1e-20
1e-20
1e-20
1e-20
1e-20
1e-20
1e-20
1e-20
1e-20
1e-20
1e-20
1e-20
1e-20
1e-20
1e-20
1e-20
1e-20
1e-20
1e-20
1e-20
1e-20
1e-20
1e-20
1e-20
1e-20
1e-20
1e-20
1e-20
1e-20
1e-20
1e-20
1e-20
1e-20
1e-20
1e-20
1e-20
1e-20
1e-20
1e-20
1e-20
1e-20
1e-20
1e-20
1e-20
1e-20
1e-20
1e-20
1e-20
1e-20
1e-20
1e-20
1e-20
1e-20
1e-20
1e-20
1e-20
1e-20
1e-20
1e-20
1e-20
1e-20
1e-20
1e-20
1e-20
1e-20
1e-20
1e-20
1e-20
1e-20
1e-20
1e-20
1e-20
1e-20
1e-20
1e-20
1e-20
1e-20
1e-20
1e-20
1e-20
1e-20
1e-20
1e-20
1e-20
1e-20
2.1261e-20
9.62281e-20
4.94742e-19
2.76094e-18
1.69015e-17
1.15136e-16
8.8661e-16
7.84135e-15
8.08226e-14
9.84437e-13
1.43912e-11
2.55818e-10
5.57996e-09
1.50578e-07
5.01514e-06
0.000166044
0.00218297
0.00505422
0.00637192
0.00712396
0.00760025
0.00792055
0.00814399
0.00830183
0.00841159
0.00848378
0.00852528
0.00854093
0.00853444
0.00850874
0.00846626
0.00840901
0.00833872
0.00825686
0.00816469
0.0080633
0.00795367
0.00783661
0.00771286
0.00758308
0.00744784
0.00730767
0.00716302
0.00701434
0.006862
0.00670638
0.0065478
0.00638659
0.00622304
0.00605745
0.00589009
0.00572124
0.00555115
0.00538011
0.00520837
0.0050362
0.00486389
0.00469171
0.00451995
0.0043489
0.00417887
0.00401016
0.00384311
0.00367803
0.00351527
0.00335518
0.00319813
0.00304448
0.00289462
0.00274743
0.00260202
0.00245903
0.00231914
0.00218307
0.00205157
0.00192536
0.00180516
0.00169165
0.00158539
0.00148685
0.00139634
0.00131399
0.00123977
0.00117345
0.00111467
0.00106292
0.00101758
0.000978011
0.000943505
0.000913377
0.000886954
0.000863595
0.000842697
0.000823698
0.000806072
0.000789333
0.00077303
0.000756744
0.000740085
0.000722693
0.000704238
0.000684415
0.000662948
0.000639589
0.000614122
0.000586358
0.000556146
0.000523371
0.000487959
0.000449886
0.000409187
0.000365968
0.000320428
0.000272887
0.000223829
0.000173979
0.000124431
7.68896e-05
3.40749e-05
6.00816e-06
2.35772e-07
4.09545e-09
6.38478e-11
9.38221e-13
1.30108e-14
1.7035e-16
2.11391e-18
3.3041e-20
1e-20
1e-20
1e-20
1e-20
1e-20
1e-20
1e-20
1e-20
1e-20
1e-20
1e-20
1e-20
1e-20
1e-20
1e-20
1e-20
1e-20
1e-20
1e-20
1e-20
1e-20
1e-20
1e-20
1e-20
1e-20
1e-20
1e-20
1e-20
1e-20
1e-20
1e-20
1e-20
1e-20
1e-20
1e-20
1e-20
1e-20
1e-20
1e-20
1e-20
1e-20
1e-20
1e-20
1e-20
1e-20
1e-20
1e-20
1e-20
1e-20
1e-20
1e-20
1e-20
1e-20
1e-20
1e-20
1e-20
1e-20
1e-20
1e-20
1e-20
1e-20
1e-20
1e-20
1e-20
1e-20
1e-20
1e-20
1e-20
1e-20
1e-20
1e-20
1e-20
1e-20
1e-20
1e-20
1e-20
1e-20
1e-20
1e-20
1e-20
1e-20
1e-20
1e-20
1e-20
1e-20
1e-20
1e-20
1e-20
1e-20
1e-20
1e-20
1e-20
1e-20
1e-20
1e-20
1e-20
1e-20
1e-20
1e-20
1e-20
)
;

boundaryField
{
    inandouthalf11
    {
        type            cyclic;
    }
    inandouthalf12
    {
        type            cyclic;
    }
    inandouthalf21
    {
        type            cyclic;
    }
    inandouthalf22
    {
        type            cyclic;
    }
    inandouthalf31
    {
        type            cyclic;
    }
    inandouthalf32
    {
        type            cyclic;
    }
    inandouthalf41
    {
        type            cyclic;
    }
    inandouthalf42
    {
        type            cyclic;
    }
    top
    {
        type            symmetryPlane;
    }
    walls
    {
        type            zeroGradient;
    }
    frontAndBackPlanes
    {
        type            empty;
    }
}


// ************************************************************************* //
