/*--------------------------------*- C++ -*----------------------------------*\
| =========                 |                                                 |
| \\      /  F ield         | OpenFOAM: The Open Source CFD Toolbox           |
|  \\    /   O peration     | Version:  2.4.x                                 |
|   \\  /    A nd           | Web:      www.OpenFOAM.org                      |
|    \\/     M anipulation  |                                                 |
\*---------------------------------------------------------------------------*/
FoamFile
{
    version     2.0;
    format      ascii;
    class       volScalarField;
    location    "5.5";
    object      p;
}
// * * * * * * * * * * * * * * * * * * * * * * * * * * * * * * * * * * * * * //

dimensions      [1 -1 -2 0 0 0 0];

internalField   nonuniform List<scalar> 
360
(
4899.53
4894.63
4889.72
4884.81
4879.9
4874.99
4870.08
4865.17
4860.26
4855.34
4850.43
4845.51
4840.59
4835.68
4830.76
4825.84
4820.91
4815.99
4811.07
4806.14
4801.22
4796.29
4791.36
4786.43
4781.5
4776.57
4771.63
4766.7
4761.76
4756.83
4751.89
4746.95
4742.01
4737.07
4732.13
4727.18
4722.24
4717.29
4712.34
4707.39
4702.44
4697.49
4692.54
4687.59
4682.63
4677.68
4672.72
4667.76
4662.8
4657.83
4652.86
4647.89
4642.92
4637.95
4632.98
4628.01
4623.04
4618.06
4613.09
4608.12
4603.15
4598.18
4593.2
4588.23
4583.26
4578.29
4573.32
4568.35
4563.37
4558.4
4553.43
4548.46
4543.49
4538.52
4533.54
4528.57
4523.6
4518.63
4513.66
4508.69
4503.72
4498.74
4493.77
4488.8
4483.83
4478.86
4473.89
4468.92
4463.95
4458.97
4454
4449.03
4444.06
4439.09
4434.12
4429.15
4424.18
4419.21
4414.24
4409.27
4404.3
4399.33
4394.35
4389.38
4384.41
4379.44
4374.47
4369.5
4364.53
4359.56
4354.59
4349.62
4344.65
4339.68
4334.71
4329.74
4324.77
4319.8
4314.84
4309.87
4304.9
4299.93
4294.96
4289.99
4285.02
4280.05
4275.08
4270.11
4265.15
4260.18
4255.21
4250.24
4245.27
4240.31
4235.34
4230.37
4225.4
4220.44
4215.47
4210.5
4205.54
4200.57
4195.6
4190.64
4185.67
4180.71
4175.74
4170.65
4162.22
4154
4147.38
4141.28
4135.47
4129.83
4124.35
4118.97
4113.69
4108.49
4103.35
4098.27
4093.23
4088.22
4083.25
4078.3
4073.37
4068.46
4063.57
4058.69
4053.82
4048.97
4044.12
4039.28
4034.44
4029.61
4024.79
4019.97
4015.16
4010.34
4005.54
4000.73
3995.93
3991.13
3986.33
3981.53
3976.74
3971.94
3967.15
3962.36
3957.56
3952.77
3947.98
3943.18
3938.39
3933.6
3928.8
3924.01
3919.21
3914.41
3909.61
3904.81
3900
3895.14
3890.18
3885.12
3879.95
3874.67
3869.28
3863.78
3858.15
3852.41
3846.54
3840.55
3834.43
3828.18
3821.8
3815.28
3808.62
3801.82
3794.88
3787.79
3780.55
3773.17
3765.63
3757.94
3750.08
3742.07
3733.89
3725.55
3717.04
3708.35
3699.49
3690.45
3681.22
3671.81
3662.21
3652.41
3642.42
3632.22
3621.82
3611.21
3600.39
3589.34
3578.08
3566.58
3554.86
3542.89
3530.69
3518.23
3505.53
3492.56
3479.32
3465.81
3452.01
3437.92
3423.55
3408.88
3393.92
3378.66
3363.08
3347.19
3330.97
3314.43
3297.55
3280.33
3262.76
3244.83
3226.54
3207.87
3188.83
3169.4
3149.58
3129.35
3108.72
3087.66
3066.18
3044.26
3021.9
2999.08
2975.8
2952.05
2927.81
2903.09
2877.86
2852.12
2825.86
2799.06
2771.72
2743.82
2715.36
2686.32
2656.7
2626.47
2595.62
2564.15
2532.05
2499.29
2465.86
2431.76
2396.96
2361.46
2325.24
2288.28
2250.57
2212.1
2172.85
2132.8
2091.93
2050.24
2007.7
1964.3
1922.76
1883.52
1844.28
1805.04
1765.8
1726.56
1687.32
1648.08
1608.84
1569.6
1530.36
1491.12
1451.88
1412.64
1373.4
1334.16
1294.92
1255.68
1216.44
1177.2
1137.96
1098.72
1059.48
1020.24
981
941.76
902.52
863.28
824.04
784.8
745.56
706.32
667.08
627.84
588.6
549.36
510.12
470.88
431.64
392.4
353.16
313.92
274.68
235.44
196.2
156.96
117.72
78.48
39.24
2.23443e-07
)
;

boundaryField
{
    inandouthalf11
    {
        type            cyclic;
    }
    inandouthalf12
    {
        type            cyclic;
    }
    inandouthalf21
    {
        type            cyclic;
    }
    inandouthalf22
    {
        type            cyclic;
    }
    inandouthalf31
    {
        type            cyclic;
    }
    inandouthalf32
    {
        type            cyclic;
    }
    inandouthalf41
    {
        type            cyclic;
    }
    inandouthalf42
    {
        type            cyclic;
    }
    top
    {
        type            symmetryPlane;
    }
    walls
    {
        type            slip;
    }
    frontAndBackPlanes
    {
        type            empty;
    }
}


// ************************************************************************* //
