/*--------------------------------*- C++ -*----------------------------------*\
| =========                 |                                                 |
| \\      /  F ield         | OpenFOAM: The Open Source CFD Toolbox           |
|  \\    /   O peration     | Version:  2.4.x                                 |
|   \\  /    A nd           | Web:      www.OpenFOAM.org                      |
|    \\/     M anipulation  |                                                 |
\*---------------------------------------------------------------------------*/
FoamFile
{
    version     2.0;
    format      ascii;
    class       surfaceScalarField;
    location    "5.5";
    object      phib_0;
}
// * * * * * * * * * * * * * * * * * * * * * * * * * * * * * * * * * * * * * //

dimensions      [0 3 -1 0 0 0 0];

internalField   nonuniform List<scalar> 
359
(
7.27804e-13
1.93829e-12
3.05031e-12
4.08456e-12
5.13027e-12
6.20388e-12
7.29302e-12
8.38825e-12
9.4863e-12
1.05888e-11
1.1698e-11
1.28149e-11
1.39396e-11
1.50714e-11
1.62098e-11
1.73549e-11
1.85068e-11
1.96653e-11
2.08303e-11
2.20018e-11
2.31791e-11
2.43624e-11
2.55518e-11
2.67474e-11
2.79501e-11
2.91606e-11
3.03803e-11
3.16113e-11
3.2855e-11
3.41128e-11
3.53849e-11
3.66711e-11
3.79674e-11
3.92697e-11
4.05693e-11
4.18573e-11
4.31241e-11
4.4363e-11
4.55722e-11
4.67548e-11
4.79258e-11
4.91094e-11
5.03423e-11
5.16791e-11
5.31911e-11
5.49684e-11
5.71025e-11
5.96319e-11
6.24493e-11
6.52192e-11
6.74694e-11
6.89049e-11
6.95992e-11
6.98504e-11
6.99174e-11
6.99284e-11
6.99257e-11
6.99199e-11
6.99133e-11
6.99061e-11
6.98986e-11
6.98908e-11
6.98828e-11
6.98746e-11
6.98662e-11
6.98576e-11
6.98486e-11
6.98394e-11
6.98299e-11
6.98199e-11
6.98095e-11
6.97989e-11
6.97879e-11
6.97766e-11
6.9765e-11
6.97532e-11
6.97411e-11
6.97288e-11
6.97162e-11
6.97033e-11
6.96901e-11
6.96765e-11
6.96625e-11
6.96482e-11
6.96335e-11
6.96185e-11
6.96032e-11
6.95876e-11
6.95716e-11
6.95553e-11
6.95387e-11
6.95217e-11
6.95043e-11
6.94865e-11
6.94683e-11
6.94496e-11
6.94305e-11
6.9411e-11
6.93911e-11
6.93707e-11
6.93498e-11
6.93284e-11
6.93065e-11
6.92841e-11
6.92611e-11
6.92376e-11
6.92134e-11
6.91887e-11
6.91633e-11
6.91372e-11
6.91104e-11
6.90829e-11
6.90547e-11
6.90256e-11
6.89957e-11
6.8965e-11
6.89333e-11
6.89008e-11
6.88672e-11
6.88326e-11
6.87969e-11
6.87601e-11
6.87221e-11
6.86829e-11
6.86423e-11
6.86004e-11
6.8557e-11
6.8512e-11
6.84652e-11
6.84166e-11
6.8366e-11
6.83134e-11
6.82582e-11
6.81999e-11
6.81382e-11
6.80732e-11
6.80048e-11
6.79305e-11
6.78469e-11
6.7754e-11
6.76599e-11
6.75595e-11
6.74342e-11
6.72765e-11
6.70351e-11
6.63726e-11
6.33797e-11
6.56895e-10
5.25355e-10
4.65282e-10
4.07385e-10
3.4748e-10
2.89367e-10
2.35931e-10
1.88884e-10
1.48826e-10
1.15538e-10
8.83446e-11
6.63896e-11
4.88093e-11
3.48173e-11
2.37371e-11
1.50047e-11
8.15873e-12
2.82581e-12
-1.29466e-12
-4.4439e-12
-6.81542e-12
-8.56446e-12
-9.81572e-12
-1.06696e-11
-1.12068e-11
-1.14928e-11
-1.15802e-11
-1.15118e-11
-1.13221e-11
-1.10392e-11
-1.06856e-11
-1.02797e-11
-9.83635e-12
-9.36733e-12
-8.88214e-12
-8.38804e-12
-7.89012e-12
-7.39132e-12
-6.89249e-12
-6.39298e-12
-5.89172e-12
-5.38882e-12
-4.88697e-12
-4.39201e-12
-3.91214e-12
-3.45669e-12
-3.03477e-12
-2.65276e-12
-2.31148e-12
-2.00673e-12
-1.73298e-12
-1.48708e-12
-1.26882e-12
-1.07821e-12
-9.10703e-13
-7.66337e-13
-6.44113e-13
-5.40407e-13
-4.52533e-13
-3.79328e-13
-3.18109e-13
-2.66407e-13
-2.23229e-13
-1.87171e-13
-1.56896e-13
-1.31594e-13
-1.10203e-13
-9.21955e-14
-7.72265e-14
-6.44634e-14
-5.36449e-14
-4.4679e-14
-3.7113e-14
-3.07168e-14
-2.53363e-14
-2.08467e-14
-1.71152e-14
-1.39406e-14
-1.12984e-14
-9.12116e-15
-7.29484e-15
-5.79101e-15
-4.56414e-15
-3.5655e-15
-2.75883e-15
-2.0703e-15
-1.52717e-15
-1.11966e-15
-1.05768e-15
-2.28768e-16
-3.21805e-16
3.37349e-17
-5.7579e-18
-5.60055e-18
-5.46001e-18
-5.29472e-18
-5.14906e-18
-4.97768e-18
-4.82183e-18
-4.645e-18
-4.48672e-18
-4.30505e-18
-4.13799e-18
-3.94959e-18
-3.77569e-18
-3.58492e-18
-3.40416e-18
-3.20888e-18
-3.02379e-18
-2.82775e-18
-2.63961e-18
-2.44291e-18
-2.25431e-18
-2.06152e-18
-1.87764e-18
-1.69474e-18
-1.52571e-18
-1.36816e-18
-1.22435e-18
-1.08726e-18
-9.58483e-19
-8.37906e-19
-7.24673e-19
-6.16167e-19
-5.1205e-19
-4.13159e-19
-3.2181e-19
-2.36957e-19
-1.58648e-19
-8.13367e-20
-1.46866e-20
4.93645e-20
1.04956e-19
1.77219e-19
2.35987e-19
2.91093e-19
3.23546e-19
3.6697e-19
3.82103e-19
3.6301e-19
3.46609e-19
3.6607e-19
3.58282e-19
3.47347e-19
3.01664e-19
2.78534e-19
2.26249e-19
1.77929e-19
1.14061e-19
2.05093e-19
2.18681e-19
2.40154e-19
3.04197e-19
3.29955e-19
3.39058e-19
3.49193e-19
3.43064e-19
3.65786e-19
3.72899e-19
3.81482e-19
3.71565e-19
3.76095e-19
3.62418e-19
3.51998e-19
3.31415e-19
3.34925e-19
3.30874e-19
3.27836e-19
3.15985e-19
3.10996e-19
2.98109e-19
2.86034e-19
2.66751e-19
2.59913e-19
2.47488e-19
2.3489e-19
2.16711e-19
2.06884e-19
1.89439e-19
1.77328e-19
1.56313e-19
2.13342e-19
2.55157e-19
3.0122e-19
3.23193e-19
3.71599e-19
3.84081e-19
3.98876e-19
3.71873e-19
4.23733e-19
4.18396e-19
4.13025e-19
3.34209e-19
3.16355e-19
2.10325e-19
1.0661e-19
-8.34418e-20
-1.31108e-19
-2.83189e-19
-4.36612e-19
-7.25652e-19
-9.21023e-19
-1.26414e-18
-1.63134e-18
-2.25988e-18
-2.63732e-18
-3.24086e-18
-3.89784e-18
-4.91061e-18
-5.52186e-18
-6.97696e-18
-9.72983e-18
)
;

boundaryField
{
    inandouthalf11
    {
        type            cyclic;
        value           nonuniform List<scalar> 
100
(
8.5242e-13
8.8331e-13
9.22293e-13
9.58205e-13
9.93598e-13
1.03018e-12
1.06779e-12
1.10601e-12
1.14465e-12
1.18369e-12
1.22321e-12
1.26327e-12
1.30391e-12
1.34511e-12
1.38686e-12
1.42916e-12
1.47202e-12
1.51545e-12
1.55945e-12
1.60402e-12
1.64916e-12
1.69487e-12
1.74116e-12
1.78804e-12
1.83554e-12
1.8837e-12
1.93258e-12
1.98225e-12
2.0328e-12
2.0843e-12
2.1368e-12
2.19032e-12
2.24477e-12
2.30003e-12
2.3558e-12
2.41173e-12
2.4674e-12
2.52245e-12
2.57667e-12
2.63008e-12
2.68308e-12
2.73651e-12
2.79178e-12
2.85097e-12
2.917e-12
2.99372e-12
3.08568e-12
3.19662e-12
3.32595e-12
3.46319e-12
3.58675e-12
3.67503e-12
3.72279e-12
3.74202e-12
3.74794e-12
3.74949e-12
3.74994e-12
3.75016e-12
3.75034e-12
3.75052e-12
3.7507e-12
3.75089e-12
3.75109e-12
3.75129e-12
3.75149e-12
3.7517e-12
3.75192e-12
3.75215e-12
3.75238e-12
3.75262e-12
3.75287e-12
3.75314e-12
3.7534e-12
3.75368e-12
3.75397e-12
3.75426e-12
3.75456e-12
3.75486e-12
3.75518e-12
3.75549e-12
3.75582e-12
3.75616e-12
3.7565e-12
3.75686e-12
3.75722e-12
3.75759e-12
3.75797e-12
3.75836e-12
3.75876e-12
3.75916e-12
3.75957e-12
3.76e-12
3.76043e-12
3.76088e-12
3.76133e-12
3.76179e-12
3.76227e-12
3.76276e-12
3.76326e-12
3.76377e-12
)
;
    }
    inandouthalf12
    {
        type            cyclic;
        value           nonuniform List<scalar> 
100
(
-8.5242e-13
-8.8331e-13
-9.22293e-13
-9.58205e-13
-9.93598e-13
-1.03018e-12
-1.06779e-12
-1.10601e-12
-1.14465e-12
-1.18369e-12
-1.22321e-12
-1.26327e-12
-1.30391e-12
-1.34511e-12
-1.38686e-12
-1.42916e-12
-1.47202e-12
-1.51545e-12
-1.55945e-12
-1.60402e-12
-1.64916e-12
-1.69487e-12
-1.74116e-12
-1.78804e-12
-1.83554e-12
-1.8837e-12
-1.93258e-12
-1.98225e-12
-2.0328e-12
-2.0843e-12
-2.1368e-12
-2.19032e-12
-2.24477e-12
-2.30003e-12
-2.3558e-12
-2.41173e-12
-2.4674e-12
-2.52245e-12
-2.57667e-12
-2.63008e-12
-2.68308e-12
-2.73651e-12
-2.79178e-12
-2.85097e-12
-2.917e-12
-2.99372e-12
-3.08568e-12
-3.19662e-12
-3.32595e-12
-3.46319e-12
-3.58675e-12
-3.67503e-12
-3.72279e-12
-3.74202e-12
-3.74794e-12
-3.74949e-12
-3.74994e-12
-3.75016e-12
-3.75034e-12
-3.75052e-12
-3.7507e-12
-3.75089e-12
-3.75109e-12
-3.75129e-12
-3.75149e-12
-3.7517e-12
-3.75192e-12
-3.75215e-12
-3.75238e-12
-3.75262e-12
-3.75287e-12
-3.75314e-12
-3.7534e-12
-3.75368e-12
-3.75397e-12
-3.75426e-12
-3.75456e-12
-3.75486e-12
-3.75518e-12
-3.75549e-12
-3.75582e-12
-3.75616e-12
-3.7565e-12
-3.75686e-12
-3.75722e-12
-3.75759e-12
-3.75797e-12
-3.75836e-12
-3.75876e-12
-3.75916e-12
-3.75957e-12
-3.76e-12
-3.76043e-12
-3.76088e-12
-3.76133e-12
-3.76179e-12
-3.76227e-12
-3.76276e-12
-3.76326e-12
-3.76377e-12
)
;
    }
    inandouthalf21
    {
        type            cyclic;
        value           nonuniform List<scalar> 
100
(
3.76429e-12
3.76483e-12
3.76538e-12
3.76594e-12
3.76652e-12
3.76711e-12
3.76772e-12
3.76834e-12
3.76898e-12
3.76964e-12
3.77032e-12
3.77101e-12
3.77172e-12
3.77246e-12
3.77322e-12
3.774e-12
3.7748e-12
3.77563e-12
3.77648e-12
3.77736e-12
3.77827e-12
3.77921e-12
3.78018e-12
3.78119e-12
3.78223e-12
3.7833e-12
3.78442e-12
3.78558e-12
3.78678e-12
3.78804e-12
3.78934e-12
3.7907e-12
3.79212e-12
3.79362e-12
3.79522e-12
3.79691e-12
3.79869e-12
3.80057e-12
3.80267e-12
3.80507e-12
3.80768e-12
3.81018e-12
3.81315e-12
3.81703e-12
3.82184e-12
3.83105e-12
4.47891e-12
4.84634e-10
7.80885e-08
1.7711e-07
2.51417e-07
3.10696e-07
3.59568e-07
4.00737e-07
4.36018e-07
4.66705e-07
4.93749e-07
5.17862e-07
5.39586e-07
5.59337e-07
5.7744e-07
5.94151e-07
6.09673e-07
6.2417e-07
6.37775e-07
6.50598e-07
6.62729e-07
6.74243e-07
6.85205e-07
6.95669e-07
7.05682e-07
7.15282e-07
7.24504e-07
7.33378e-07
7.41929e-07
7.50181e-07
7.58153e-07
7.65863e-07
7.73326e-07
7.80555e-07
7.87562e-07
7.94358e-07
8.00953e-07
8.07353e-07
8.13567e-07
8.196e-07
8.25458e-07
8.31144e-07
8.36664e-07
8.42019e-07
8.47212e-07
8.52245e-07
8.5712e-07
8.61836e-07
8.66393e-07
8.70793e-07
8.75033e-07
8.79114e-07
8.83033e-07
8.86789e-07
)
;
    }
    inandouthalf22
    {
        type            cyclic;
        value           nonuniform List<scalar> 
100
(
-3.76429e-12
-3.76483e-12
-3.76538e-12
-3.76594e-12
-3.76652e-12
-3.76711e-12
-3.76772e-12
-3.76834e-12
-3.76898e-12
-3.76964e-12
-3.77032e-12
-3.77101e-12
-3.77172e-12
-3.77246e-12
-3.77322e-12
-3.774e-12
-3.7748e-12
-3.77563e-12
-3.77648e-12
-3.77736e-12
-3.77827e-12
-3.77921e-12
-3.78018e-12
-3.78119e-12
-3.78223e-12
-3.7833e-12
-3.78442e-12
-3.78558e-12
-3.78678e-12
-3.78804e-12
-3.78934e-12
-3.7907e-12
-3.79212e-12
-3.79362e-12
-3.79522e-12
-3.79691e-12
-3.79869e-12
-3.80057e-12
-3.80267e-12
-3.80507e-12
-3.80768e-12
-3.81018e-12
-3.81315e-12
-3.81703e-12
-3.82184e-12
-3.83105e-12
-4.47891e-12
-4.84634e-10
-7.80885e-08
-1.7711e-07
-2.51417e-07
-3.10696e-07
-3.59568e-07
-4.00737e-07
-4.36018e-07
-4.66705e-07
-4.93749e-07
-5.17862e-07
-5.39586e-07
-5.59337e-07
-5.7744e-07
-5.94151e-07
-6.09673e-07
-6.2417e-07
-6.37775e-07
-6.50598e-07
-6.62729e-07
-6.74243e-07
-6.85205e-07
-6.95669e-07
-7.05682e-07
-7.15282e-07
-7.24504e-07
-7.33378e-07
-7.41929e-07
-7.50181e-07
-7.58153e-07
-7.65863e-07
-7.73326e-07
-7.80555e-07
-7.87562e-07
-7.94358e-07
-8.00953e-07
-8.07353e-07
-8.13567e-07
-8.196e-07
-8.25458e-07
-8.31144e-07
-8.36664e-07
-8.42019e-07
-8.47212e-07
-8.52245e-07
-8.5712e-07
-8.61836e-07
-8.66393e-07
-8.70793e-07
-8.75033e-07
-8.79114e-07
-8.83033e-07
-8.86789e-07
)
;
    }
    inandouthalf31
    {
        type            cyclic;
        value           nonuniform List<scalar> 
110
(
8.90384e-07
9.11985e-07
9.33986e-07
9.56376e-07
9.79148e-07
1.00229e-06
1.02579e-06
1.04964e-06
1.07381e-06
1.0983e-06
1.12309e-06
1.14818e-06
1.17353e-06
1.19916e-06
1.22506e-06
1.25121e-06
1.27764e-06
1.30434e-06
1.33131e-06
1.35858e-06
1.38615e-06
1.41404e-06
1.44224e-06
1.47079e-06
1.49967e-06
1.52892e-06
1.55853e-06
1.5885e-06
1.61886e-06
1.64961e-06
1.68076e-06
1.71231e-06
1.74428e-06
1.77668e-06
1.80951e-06
1.84278e-06
1.87652e-06
1.91073e-06
1.94543e-06
1.98064e-06
2.01638e-06
2.05266e-06
2.08953e-06
2.12701e-06
2.16514e-06
2.20397e-06
2.24357e-06
2.28402e-06
2.32543e-06
2.36799e-06
2.41193e-06
2.45819e-06
2.50752e-06
2.5584e-06
2.61032e-06
2.6633e-06
2.71736e-06
2.77252e-06
2.82879e-06
2.88621e-06
2.94479e-06
3.00456e-06
3.06554e-06
3.12777e-06
3.19125e-06
3.25603e-06
3.32211e-06
3.38954e-06
3.45834e-06
3.52854e-06
3.60016e-06
3.67323e-06
3.74779e-06
3.82386e-06
3.90147e-06
3.98066e-06
4.06146e-06
4.1439e-06
4.22801e-06
4.31382e-06
4.40138e-06
4.49072e-06
4.58187e-06
4.67487e-06
4.76975e-06
4.86657e-06
4.96535e-06
5.06613e-06
5.16896e-06
5.27387e-06
5.38092e-06
5.49014e-06
5.60157e-06
5.71527e-06
5.83128e-06
5.94964e-06
6.0704e-06
6.19361e-06
6.31932e-06
6.44759e-06
6.57846e-06
6.71198e-06
6.84822e-06
6.98722e-06
7.12904e-06
7.27374e-06
7.42138e-06
7.57201e-06
7.7257e-06
7.88252e-06
)
;
    }
    inandouthalf32
    {
        type            cyclic;
        value           nonuniform List<scalar> 
110
(
-8.90384e-07
-9.11985e-07
-9.33986e-07
-9.56376e-07
-9.79148e-07
-1.00229e-06
-1.02579e-06
-1.04964e-06
-1.07381e-06
-1.0983e-06
-1.12309e-06
-1.14818e-06
-1.17353e-06
-1.19916e-06
-1.22506e-06
-1.25121e-06
-1.27764e-06
-1.30434e-06
-1.33131e-06
-1.35858e-06
-1.38615e-06
-1.41404e-06
-1.44224e-06
-1.47079e-06
-1.49967e-06
-1.52892e-06
-1.55853e-06
-1.5885e-06
-1.61886e-06
-1.64961e-06
-1.68076e-06
-1.71231e-06
-1.74428e-06
-1.77668e-06
-1.80951e-06
-1.84278e-06
-1.87652e-06
-1.91073e-06
-1.94543e-06
-1.98064e-06
-2.01638e-06
-2.05266e-06
-2.08953e-06
-2.12701e-06
-2.16514e-06
-2.20397e-06
-2.24357e-06
-2.28402e-06
-2.32543e-06
-2.36799e-06
-2.41193e-06
-2.45819e-06
-2.50752e-06
-2.5584e-06
-2.61032e-06
-2.6633e-06
-2.71736e-06
-2.77252e-06
-2.82879e-06
-2.88621e-06
-2.94479e-06
-3.00456e-06
-3.06554e-06
-3.12777e-06
-3.19125e-06
-3.25603e-06
-3.32211e-06
-3.38954e-06
-3.45834e-06
-3.52854e-06
-3.60016e-06
-3.67323e-06
-3.74779e-06
-3.82386e-06
-3.90147e-06
-3.98066e-06
-4.06146e-06
-4.1439e-06
-4.22801e-06
-4.31382e-06
-4.40138e-06
-4.49072e-06
-4.58187e-06
-4.67487e-06
-4.76975e-06
-4.86657e-06
-4.96535e-06
-5.06613e-06
-5.16896e-06
-5.27387e-06
-5.38092e-06
-5.49014e-06
-5.60157e-06
-5.71527e-06
-5.83128e-06
-5.94964e-06
-6.0704e-06
-6.19361e-06
-6.31932e-06
-6.44759e-06
-6.57846e-06
-6.71198e-06
-6.84822e-06
-6.98722e-06
-7.12904e-06
-7.27374e-06
-7.42138e-06
-7.57201e-06
-7.7257e-06
-7.88252e-06
)
;
    }
    inandouthalf41
    {
        type            cyclic;
        value           nonuniform List<scalar> 
50
(
7.05566e-06
7.05566e-06
7.05566e-06
7.05566e-06
7.05566e-06
7.05566e-06
7.05566e-06
7.05566e-06
7.05566e-06
7.05566e-06
7.05566e-06
7.05566e-06
7.05566e-06
7.05566e-06
7.05566e-06
7.05566e-06
7.05566e-06
7.05566e-06
7.05566e-06
7.05566e-06
7.05566e-06
7.05566e-06
7.05566e-06
7.05566e-06
7.05566e-06
7.05566e-06
7.05566e-06
7.05566e-06
7.05566e-06
7.05566e-06
7.05566e-06
7.05566e-06
7.05566e-06
7.05566e-06
7.05566e-06
7.05566e-06
7.05566e-06
7.05566e-06
7.05566e-06
7.05566e-06
7.05566e-06
7.05566e-06
7.05566e-06
7.05566e-06
7.05566e-06
7.05566e-06
7.05566e-06
7.05566e-06
7.05566e-06
7.05566e-06
)
;
    }
    inandouthalf42
    {
        type            cyclic;
        value           nonuniform List<scalar> 
50
(
-7.05566e-06
-7.05566e-06
-7.05566e-06
-7.05566e-06
-7.05566e-06
-7.05566e-06
-7.05566e-06
-7.05566e-06
-7.05566e-06
-7.05566e-06
-7.05566e-06
-7.05566e-06
-7.05566e-06
-7.05566e-06
-7.05566e-06
-7.05566e-06
-7.05566e-06
-7.05566e-06
-7.05566e-06
-7.05566e-06
-7.05566e-06
-7.05566e-06
-7.05566e-06
-7.05566e-06
-7.05566e-06
-7.05566e-06
-7.05566e-06
-7.05566e-06
-7.05566e-06
-7.05566e-06
-7.05566e-06
-7.05566e-06
-7.05566e-06
-7.05566e-06
-7.05566e-06
-7.05566e-06
-7.05566e-06
-7.05566e-06
-7.05566e-06
-7.05566e-06
-7.05566e-06
-7.05566e-06
-7.05566e-06
-7.05566e-06
-7.05566e-06
-7.05566e-06
-7.05566e-06
-7.05566e-06
-7.05566e-06
-7.05566e-06
)
;
    }
    top
    {
        type            symmetryPlane;
        value           uniform 0;
    }
    walls
    {
        type            fixedValue;
        value           uniform 0;
    }
    frontAndBackPlanes
    {
        type            empty;
        value           nonuniform 0();
    }
}


// ************************************************************************* //
