/*--------------------------------*- C++ -*----------------------------------*\
| =========                 |                                                 |
| \\      /  F ield         | OpenFOAM: The Open Source CFD Toolbox           |
|  \\    /   O peration     | Version:  2.4.x                                 |
|   \\  /    A nd           | Web:      www.OpenFOAM.org                      |
|    \\/     M anipulation  |                                                 |
\*---------------------------------------------------------------------------*/
FoamFile
{
    version     2.0;
    format      ascii;
    class       volTensorField;
    location    "5.5";
    object      Taus;
}
// * * * * * * * * * * * * * * * * * * * * * * * * * * * * * * * * * * * * * //

dimensions      [0 2 -2 0 0 0 0];

internalField   nonuniform List<tensor> 
360
(
(0 -0.0152897 0 -0.0152897 -0.192669 0 0 0 0)
(0 -0.0213361 0 -0.0213361 -0.233754 0 0 0 0)
(0 -0.0258973 0 -0.0258973 -0.241234 0 0 0 0)
(0 -0.0258073 0 -0.0258073 -0.236614 0 0 0 0)
(8.88209e-18 -0.0251367 0 -0.0251367 -0.233401 0 0 0 0)
(1.71119e-17 -0.025038 0 -0.025038 -0.231868 0 0 0 0)
(1.67794e-17 -0.0250958 0 -0.0250958 -0.23044 0 0 0 0)
(0 -0.0251267 0 -0.0251267 -0.228869 0 0 0 0)
(3.2833e-17 -0.0251403 0 -0.0251403 -0.227291 0 0 0 0)
(0 -0.0251374 0 -0.0251374 -0.225667 0 0 0 0)
(3.20229e-17 -0.0251215 0 -0.0251215 -0.224009 0 0 0 0)
(0 -0.0251056 0 -0.0251056 -0.222362 0 0 0 0)
(3.11035e-17 -0.0250919 0 -0.0250919 -0.220716 0 0 0 0)
(0 -0.0250821 0 -0.0250821 -0.219084 0 0 0 0)
(0 -0.025073 0 -0.025073 -0.217453 0 0 0 0)
(0 -0.0250611 0 -0.0250611 -0.215815 0 0 0 0)
(0 -0.0250467 0 -0.0250467 -0.21417 0 0 0 0)
(2.90424e-17 -0.0250323 0 -0.0250323 -0.212527 0 0 0 0)
(0 -0.0250172 0 -0.0250172 -0.210887 0 0 0 0)
(0 -0.025 0 -0.025 -0.209233 0 0 0 0)
(0 -0.0249862 0 -0.0249862 -0.207599 0 0 0 0)
(5.50576e-17 -0.0249699 0 -0.0249699 -0.205951 0 0 0 0)
(0 -0.0249528 0 -0.0249528 -0.204305 0 0 0 0)
(0 -0.0249359 0 -0.0249359 -0.20266 0 0 0 0)
(0 -0.0249181 0 -0.0249181 -0.201012 0 0 0 0)
(5.20477e-17 -0.0249004 0 -0.0249004 -0.199365 0 0 0 0)
(0 -0.0248823 0 -0.0248823 -0.197722 0 0 0 0)
(0 -0.0248593 0 -0.0248593 -0.196063 0 0 0 0)
(0 -0.0248344 0 -0.0248344 -0.194404 0 0 0 0)
(0 -0.0248083 0 -0.0248083 -0.192744 0 0 0 0)
(0 -0.024778 0 -0.024778 -0.19108 0 0 0 0)
(0 -0.0247426 0 -0.0247426 -0.189395 0 0 0 0)
(0 -0.0247097 0 -0.0247097 -0.187739 0 0 0 0)
(0 -0.0246694 0 -0.0246694 -0.186042 0 0 0 0)
(0 -0.0246365 0 -0.0246365 -0.184383 0 0 0 0)
(-4.47151e-17 -0.0246086 0 -0.0246086 -0.182719 0 0 0 0)
(0 -0.0245918 0 -0.0245918 -0.181085 0 0 0 0)
(0 -0.0245833 0 -0.0245833 -0.17946 0 0 0 0)
(0 -0.0245869 0 -0.0245869 -0.177843 0 0 0 0)
(0 -0.0246113 0 -0.0246113 -0.176284 0 0 0 0)
(0 -0.0246351 0 -0.0246351 -0.174691 0 0 0 0)
(0 -0.0246636 0 -0.0246636 -0.173112 0 0 0 0)
(-8.75147e-17 -0.0246857 0 -0.0246857 -0.17153 0 0 0 0)
(0 -0.0246707 0 -0.0246707 -0.169865 0 0 0 0)
(0 -0.0246095 0 -0.0246095 -0.168152 0 0 0 0)
(0 -0.0244711 0 -0.0244711 -0.166323 0 0 0 0)
(0 -0.0242347 0 -0.0242347 -0.164347 0 0 0 0)
(0 -0.0239009 0 -0.0239009 -0.162245 0 0 0 0)
(0 -0.0234825 0 -0.0234825 -0.159987 0 0 0 0)
(0 -0.0230596 0 -0.0230596 -0.157701 0 0 0 0)
(-8.68322e-17 -0.022751 0 -0.022751 -0.15567 0 0 0 0)
(0 -0.0226233 0 -0.0226233 -0.154007 0 0 0 0)
(0 -0.022701 0 -0.022701 -0.152767 0 0 0 0)
(0 -0.0229428 0 -0.0229428 -0.151765 0 0 0 0)
(0 -0.0232899 0 -0.0232899 -0.15086 0 0 0 0)
(0 -0.023671 0 -0.023671 -0.149872 0 0 0 0)
(0 -0.0240665 0 -0.0240665 -0.148828 0 0 0 0)
(0 -0.0244496 0 -0.0244496 -0.147642 0 0 0 0)
(0 -0.0248128 0 -0.0248128 -0.146374 0 0 0 0)
(0 -0.0251369 0 -0.0251369 -0.145056 0 0 0 0)
(0 -0.0253498 0 -0.0253498 -0.143688 0 0 0 0)
(0 -0.0254078 0 -0.0254078 -0.142404 0 0 0 0)
(0 -0.0252832 0 -0.0252832 -0.14118 0 0 0 0)
(0 -0.0250402 0 -0.0250402 -0.140049 0 0 0 0)
(0 -0.0247688 0 -0.0247688 -0.138946 0 0 0 0)
(0 -0.024537 0 -0.024537 -0.137843 0 0 0 0)
(0 -0.0243644 0 -0.0243644 -0.136699 0 0 0 0)
(0 -0.0242489 0 -0.0242489 -0.135514 0 0 0 0)
(0 -0.0241785 0 -0.0241785 -0.134286 0 0 0 0)
(0 -0.0241357 0 -0.0241357 -0.133023 0 0 0 0)
(0 -0.0240967 0 -0.0240967 -0.131696 0 0 0 0)
(0 -0.0240618 0 -0.0240618 -0.130328 0 0 0 0)
(0 -0.0240341 0 -0.0240341 -0.128952 0 0 0 0)
(0 -0.0239969 0 -0.0239969 -0.127525 0 0 0 0)
(0 -0.0239546 0 -0.0239546 -0.126086 0 0 0 0)
(0 -0.0239048 0 -0.0239048 -0.124618 0 0 0 0)
(0 -0.0238535 0 -0.0238535 -0.123149 0 0 0 0)
(0 -0.0237948 0 -0.0237948 -0.121665 0 0 0 0)
(0 -0.0237246 0 -0.0237246 -0.120165 0 0 0 0)
(0 -0.0236427 0 -0.0236427 -0.118652 0 0 0 0)
(0 -0.0235497 0 -0.0235497 -0.117129 0 0 0 0)
(0 -0.0234414 0 -0.0234414 -0.115589 0 0 0 0)
(0 -0.0233185 0 -0.0233185 -0.114034 0 0 0 0)
(0 -0.0231834 0 -0.0231834 -0.112466 0 0 0 0)
(0 -0.0230377 0 -0.0230377 -0.110885 0 0 0 0)
(0 -0.022884 0 -0.022884 -0.109295 0 0 0 0)
(0 -0.0227239 0 -0.0227239 -0.107694 0 0 0 0)
(0 -0.0225604 0 -0.0225604 -0.106086 0 0 0 0)
(0 -0.0223938 0 -0.0223938 -0.104471 0 0 0 0)
(0 -0.0222239 0 -0.0222239 -0.102849 0 0 0 0)
(0 -0.0220506 0 -0.0220506 -0.101218 0 0 0 0)
(0 -0.0218736 0 -0.0218736 -0.0995804 0 0 0 0)
(0 -0.0216919 0 -0.0216919 -0.0979333 0 0 0 0)
(0 -0.0215054 0 -0.0215054 -0.0962776 0 0 0 0)
(0 -0.0213144 0 -0.0213144 -0.0946137 0 0 0 0)
(0 -0.0211193 0 -0.0211193 -0.0929419 0 0 0 0)
(0 -0.0209204 0 -0.0209204 -0.0912627 0 0 0 0)
(0 -0.0207183 0 -0.0207183 -0.0895768 0 0 0 0)
(0 -0.0205132 0 -0.0205132 -0.0878847 0 0 0 0)
(0 -0.0203053 0 -0.0203053 -0.0861865 0 0 0 0)
(0 -0.0200947 0 -0.0200947 -0.0844825 0 0 0 0)
(0 -0.0198813 0 -0.0198813 -0.082773 0 0 0 0)
(0 -0.0196651 0 -0.0196651 -0.0810581 0 0 0 0)
(0 -0.0194461 0 -0.0194461 -0.0793379 0 0 0 0)
(0 -0.0192244 0 -0.0192244 -0.0776129 0 0 0 0)
(0 -0.019 0 -0.019 -0.0758831 0 0 0 0)
(0 -0.018773 0 -0.018773 -0.0741489 0 0 0 0)
(0 -0.0185436 0 -0.0185436 -0.0724104 0 0 0 0)
(0 -0.0183117 0 -0.0183117 -0.0706679 0 0 0 0)
(0 -0.0180775 0 -0.0180775 -0.0689214 0 0 0 0)
(0 -0.0178411 0 -0.0178411 -0.0671712 0 0 0 0)
(0 -0.0176026 0 -0.0176026 -0.0654173 0 0 0 0)
(0 -0.0173622 0 -0.0173622 -0.06366 0 0 0 0)
(0 -0.0171202 0 -0.0171202 -0.0618995 0 0 0 0)
(0 -0.0168769 0 -0.0168769 -0.0601357 0 0 0 0)
(0 -0.0166326 0 -0.0166326 -0.058369 0 0 0 0)
(0 -0.0163876 0 -0.0163876 -0.0565993 0 0 0 0)
(0 -0.0161423 0 -0.0161423 -0.0548267 0 0 0 0)
(0 -0.0158973 0 -0.0158973 -0.0530515 0 0 0 0)
(0 -0.0156528 0 -0.0156528 -0.0512735 0 0 0 0)
(0 -0.0154094 0 -0.0154094 -0.0494928 0 0 0 0)
(0 -0.0151674 0 -0.0151674 -0.0477095 0 0 0 0)
(0 -0.0149275 0 -0.0149275 -0.0459236 0 0 0 0)
(0 -0.01469 0 -0.01469 -0.044135 0 0 0 0)
(0 -0.0144555 0 -0.0144555 -0.0423436 0 0 0 0)
(0 -0.014224 0 -0.014224 -0.0405491 0 0 0 0)
(0 -0.0139952 0 -0.0139952 -0.0387509 0 0 0 0)
(0 -0.0137679 0 -0.0137679 -0.0369481 0 0 0 0)
(0 -0.0135411 0 -0.0135411 -0.0351396 0 0 0 0)
(0 -0.0133148 0 -0.0133148 -0.0333241 0 0 0 0)
(0 -0.013091 0 -0.013091 -0.0315 0 0 0 0)
(0 -0.0128715 0 -0.0128715 -0.0296658 0 0 0 0)
(0 -0.0126532 0 -0.0126532 -0.0278184 0 0 0 0)
(0 -0.0124252 0 -0.0124252 -0.0259538 0 0 0 0)
(0 -0.0121794 0 -0.0121794 -0.0240682 0 0 0 0)
(0 -0.0119239 0 -0.0119239 -0.0221606 0 0 0 0)
(0 -0.0116704 0 -0.0116704 -0.0202304 0 0 0 0)
(0 -0.0113964 0 -0.0113964 -0.0182861 0 0 0 0)
(0 -0.011032 0 -0.011032 -0.0163594 0 0 0 0)
(0 -0.010538 0 -0.010538 -0.014464 0 0 0 0)
(0 -0.0100308 0 -0.0100308 -0.0125441 0 0 0 0)
(0 -0.00965741 0 -0.00965741 -0.0105958 0 0 0 0)
(0 -0.0091838 0 -0.0091838 -0.00847339 0 0 0 0)
(0 -0.00852952 0 -0.00852952 -0.00603013 0 0 0 0)
(0 -0.00782545 0 -0.00782545 -0.00221895 0 0 0 0)
(0 -0.00601633 0 -0.00601633 0.00147302 0 0 0 0)
(0 -0.00250179 0 -0.00250179 -0.000587517 0 0 0 0)
(0 -0.00145619 0 -0.00145619 -1.49424e-05 0 0 0 0)
(0 -0.00219152 0 -0.00219152 -9.88636e-06 0 0 0 0)
(0 -0.00241573 0 -0.00241573 -3.40858e-06 0 0 0 0)
(0 -0.00205167 0 -0.00205167 -4.72539e-06 0 0 0 0)
(0 -0.00184666 0 -0.00184666 -3.24337e-06 0 0 0 0)
(0 -0.00176876 0 -0.00176876 -2.91476e-06 0 0 0 0)
(0 -0.00178509 0 -0.00178509 -2.38039e-06 0 0 0 0)
(0 -0.00187423 0 -0.00187423 -1.49425e-06 0 0 0 0)
(0 -0.00202297 0 -0.00202297 -1.30861e-08 0 0 0 0)
(0 -0.00222336 0 -0.00222336 2.31871e-06 0 0 0 0)
(0 -0.00247083 0 -0.00247083 5.79131e-06 0 0 0 0)
(0 -0.00276303 0 -0.00276303 1.07222e-05 0 0 0 0)
(0 -0.00309911 0 -0.00309911 1.74566e-05 0 0 0 0)
(0 -0.00347927 0 -0.00347927 2.6373e-05 0 0 0 0)
(0 -0.00390435 0 -0.00390435 3.78897e-05 0 0 0 0)
(0 -0.00437567 0 -0.00437567 5.24719e-05 0 0 0 0)
(0 -0.00489481 0 -0.00489481 7.06383e-05 0 0 0 0)
(0 -0.00546349 0 -0.00546349 9.29673e-05 0 0 0 0)
(0 -0.00608346 0 -0.00608346 0.000120103 0 0 0 0)
(0 -0.00675639 0 -0.00675639 0.00015276 0 0 0 0)
(0 -0.00748382 0 -0.00748382 0.000191729 0 0 0 0)
(0 -0.00826704 0 -0.00826704 0.000237884 0 0 0 0)
(0 -0.00910705 0 -0.00910705 0.000292188 0 0 0 0)
(0 -0.0100045 0 -0.0100045 0.000355701 0 0 0 0)
(0 -0.0109595 0 -0.0109595 0.000429585 0 0 0 0)
(0 -0.0119717 0 -0.0119717 0.000515119 0 0 0 0)
(0 -0.0130403 0 -0.0130403 0.000613704 0 0 0 0)
(0 -0.0141637 0 -0.0141637 0.000726877 0 0 0 0)
(0 -0.0153395 0 -0.0153395 0.000856314 0 0 0 0)
(0 -0.0165649 0 -0.0165649 0.00100384 0 0 0 0)
(0 -0.017836 0 -0.017836 0.00117145 0 0 0 0)
(0 -0.0191481 0 -0.0191481 0.00136127 0 0 0 0)
(0 -0.0204957 0 -0.0204957 0.00157562 0 0 0 0)
(0 -0.0218725 0 -0.0218725 0.00181695 0 0 0 0)
(0 -0.0232711 0 -0.0232711 0.00208773 0 0 0 0)
(0 -0.024684 0 -0.024684 0.00239009 0 0 0 0)
(0 -0.0261034 0 -0.0261034 0.00272485 0 0 0 0)
(0 -0.0275236 0 -0.0275236 0.00309 0 0 0 0)
(0 -0.0289423 0 -0.0289423 0.00347869 0 0 0 0)
(0 -0.0303643 0 -0.0303643 0.00387732 0 0 0 0)
(0 -0.0318026 0 -0.0318026 0.00426488 0 0 0 0)
(0 -0.0332786 0 -0.0332786 0.00461479 0 0 0 0)
(0 -0.0348183 0 -0.0348183 0.00489944 0 0 0 0)
(0 -0.0364453 0 -0.0364453 0.00509589 0 0 0 0)
(0 -0.0381754 0 -0.0381754 0.00519055 0 0 0 0)
(0 -0.0400104 0 -0.0400104 0.0051843 0 0 0 0)
(0 -0.0419247 0 -0.0419247 0.00509919 0 0 0 0)
(0 -0.0438589 0 -0.0438589 0.00497585 0 0 0 0)
(0 -0.0457534 0 -0.0457534 0.00484829 0 0 0 0)
(0 -0.0476106 0 -0.0476106 0.0047098 0 0 0 0)
(0 -0.0495125 0 -0.0495125 0.00450572 0 0 0 0)
(0 -0.0515701 0 -0.0515701 0.00416858 0 0 0 0)
(0 -0.0538334 0 -0.0538334 0.00366665 0 0 0 0)
(0 -0.0562614 0 -0.0562614 0.00301196 0 0 0 0)
(0 -0.0588604 0 -0.0588604 0.00222059 0 0 0 0)
(7.18511e-15 -0.0616181 0 -0.0616181 0.00132531 0 0 0 0)
(0 -0.06434 0 -0.06434 0.000406381 0 0 0 0)
(0 -0.0669703 0 -0.0669703 -0.000509025 0 0 0 0)
(-9.70675e-15 -0.0696405 0 -0.0696405 -0.00145003 0 0 0 0)
(0 -0.0721484 0 -0.0721484 -0.00235499 0 0 0 0)
(5.7313e-15 -0.0743381 0 -0.0743381 -0.00316675 0 0 0 0)
(0 -0.0764115 0 -0.0764115 -0.00394418 0 0 0 0)
(-1.31363e-14 -0.0782726 0 -0.0782726 -0.00467632 0 0 0 0)
(0 -0.0797636 0 -0.0797636 -0.00530954 0 0 0 0)
(0 -0.0809899 0 -0.0809899 -0.00586683 0 0 0 0)
(0 -0.081852 0 -0.081852 -0.00633341 0 0 0 0)
(-1.56442e-14 -0.0823883 0 -0.0823883 -0.00674 0 0 0 0)
(0 -0.0827335 0 -0.0827335 -0.00713235 0 0 0 0)
(0 -0.0826087 0 -0.0826087 -0.00741784 0 0 0 0)
(0 -0.0821825 0 -0.0821825 -0.00766918 0 0 0 0)
(0 -0.0816802 0 -0.0816802 -0.00799804 0 0 0 0)
(0 -0.080777 0 -0.080777 -0.00827252 0 0 0 0)
(1.6551e-14 -0.0795217 0 -0.0795217 -0.00849079 0 0 0 0)
(0 -0.0780778 0 -0.0780778 -0.0087499 0 0 0 0)
(1.61364e-14 -0.0764203 0 -0.0764203 -0.0090558 0 0 0 0)
(0 -0.0745152 0 -0.0745152 -0.00936727 0 0 0 0)
(1.54432e-14 -0.0722451 0 -0.0722451 -0.00961786 0 0 0 0)
(0 -0.0698286 0 -0.0698286 -0.0099473 0 0 0 0)
(0 -0.0672998 0 -0.0672998 -0.0103888 0 0 0 0)
(0 -0.0644623 0 -0.0644623 -0.0108091 0 0 0 0)
(0 -0.0614448 0 -0.0614448 -0.0113133 0 0 0 0)
(-1.28016e-14 -0.0582562 0 -0.0582562 -0.0119458 0 0 0 0)
(-1.21366e-14 -0.0547555 0 -0.0547555 -0.0126187 0 0 0 0)
(0 -0.0508741 0 -0.0508741 -0.0133323 0 0 0 0)
(0 -0.0465196 0 -0.0465196 -0.014021 0 0 0 0)
(0 -0.0420322 0 -0.0420322 -0.0153043 0 0 0 0)
(0 -0.0372444 0 -0.0372444 -0.0171297 0 0 0 0)
(0 -0.0314891 0 -0.0314891 -0.0192502 0 0 0 0)
(0 -0.028279 0 -0.028279 -0.0196165 0 0 0 0)
(0 -0 0 -0 -0 0 0 0 0)
(0 -0 0 -0 0 0 0 0 0)
(0 0 0 0 -0 0 0 0 0)
(0 0 0 0 -0 0 0 0 0)
(0 0 0 0 -0 0 0 0 0)
(0 0 0 0 0 0 0 0 0)
(0 0 0 0 -0 0 0 0 0)
(0 0 0 0 -0 0 0 0 0)
(-0 0 0 0 -0 0 0 0 0)
(0 0 0 0 -0 0 0 0 0)
(0 0 0 0 0 0 0 0 0)
(0 0 0 0 0 0 0 0 0)
(0 0 0 0 0 0 0 0 0)
(0 0 0 0 0 0 0 0 0)
(0 0 0 0 0 0 0 0 0)
(0 0 0 0 0 0 0 0 0)
(0 0 0 0 0 0 0 0 0)
(0 0 0 0 0 0 0 0 0)
(0 0 0 0 0 0 0 0 0)
(0 0 0 0 -0 0 0 0 0)
(0 0 0 0 0 0 0 0 0)
(0 0 0 0 0 0 0 0 0)
(0 0 0 0 -0 0 0 0 0)
(0 0 0 0 0 0 0 0 0)
(0 0 0 0 -0 0 0 0 0)
(0 0 0 0 0 0 0 0 0)
(0 0 0 0 -0 0 0 0 0)
(0 0 0 0 0 0 0 0 0)
(0 0 0 0 -0 0 0 0 0)
(0 0 0 0 0 0 0 0 0)
(-0 0 0 0 -0 0 0 0 0)
(0 0 0 0 0 0 0 0 0)
(0 0 0 0 -0 0 0 0 0)
(0 0 0 0 0 0 0 0 0)
(0 0 0 0 0 0 0 0 0)
(0 0 0 0 -0 0 0 0 0)
(0 0 0 0 0 0 0 0 0)
(0 0 0 0 0 0 0 0 0)
(0 0 0 0 -0 0 0 0 0)
(0 0 0 0 0 0 0 0 0)
(0 0 0 0 -0 0 0 0 0)
(0 0 0 0 0 0 0 0 0)
(0 0 0 0 -0 0 0 0 0)
(0 0 0 0 0 0 0 0 0)
(0 0 0 0 -0 0 0 0 0)
(0 0 0 0 0 0 0 0 0)
(0 0 0 0 -0 0 0 0 0)
(0 0 0 0 0 0 0 0 0)
(0 0 0 0 -0 0 0 0 0)
(0 0 0 0 0 0 0 0 0)
(-0 0 0 0 -0 0 0 0 0)
(0 0 0 0 0 0 0 0 0)
(0 0 0 0 -0 0 0 0 0)
(0 0 0 0 0 0 0 0 0)
(0 0 0 0 -0 0 0 0 0)
(0 0 0 0 0 0 0 0 0)
(0 0 0 0 -0 0 0 0 0)
(0 0 0 0 0 0 0 0 0)
(0 0 0 0 -0 0 0 0 0)
(0 0 0 0 0 0 0 0 0)
(-0 0 0 0 -0 0 0 0 0)
(0 0 0 0 0 0 0 0 0)
(0 0 0 0 -0 0 0 0 0)
(0 0 0 0 0 0 0 0 0)
(0 0 0 0 -0 0 0 0 0)
(0 0 0 0 0 0 0 0 0)
(0 -0 0 -0 -0 0 0 0 0)
(0 -0 0 -0 0 0 0 0 0)
(0 -0 0 -0 -0 0 0 0 0)
(0 -0 0 -0 0 0 0 0 0)
(0 0 0 0 -0 0 0 0 0)
(0 0 0 0 0 0 0 0 0)
(0 -0 0 -0 -0 0 0 0 0)
(0 -0 0 -0 0 0 0 0 0)
(0 -0 0 -0 -0 0 0 0 0)
(0 -0 0 -0 0 0 0 0 0)
(0 0 0 0 -0 0 0 0 0)
(0 0 0 0 0 0 0 0 0)
(0 0 0 0 -0 0 0 0 0)
(0 0 0 0 0 0 0 0 0)
(0 -0 0 -0 -0 0 0 0 0)
(0 -0 0 -0 0 0 0 0 0)
(0 0 0 0 -0 0 0 0 0)
(0 -0 0 -0 0 0 0 0 0)
(0 -0 0 -0 -0 0 0 0 0)
(0 0 0 0 0 0 0 0 0)
(0 0 0 0 -0 0 0 0 0)
(0 0 0 0 0 0 0 0 0)
(0 -0 0 -0 -0 0 0 0 0)
(0 -0 0 -0 0 0 0 0 0)
(0 -0 0 -0 -0 0 0 0 0)
(0 0 0 0 0 0 0 0 0)
(0 0 0 0 -0 0 0 0 0)
(0 -0 0 -0 0 0 0 0 0)
(0 -0 0 -0 -0 0 0 0 0)
(0 -0 0 -0 0 0 0 0 0)
(0 0 0 0 -0 0 0 0 0)
(0 0 0 0 0 0 0 0 0)
(0 0 0 0 -0 0 0 0 0)
(0 -0 0 -0 0 0 0 0 0)
(0 -0 0 -0 -0 0 0 0 0)
(0 -0 0 -0 0 0 0 0 0)
(0 -0 0 -0 -0 0 0 0 0)
(0 -0 0 -0 0 0 0 0 0)
(0 -0 0 -0 -0 0 0 0 0)
(0 0 0 0 0 0 0 0 0)
(0 0 0 0 -0 0 0 0 0)
(0 0 0 0 0 0 0 0 0)
(0 0 0 0 -0 0 0 0 0)
(0 0 0 0 0 0 0 0 0)
(0 0 0 0 -0 0 0 0 0)
(0 0 0 0 0 0 0 0 0)
(0 -0 0 -0 -0 0 0 0 0)
(0 -0 0 -0 0 0 0 0 0)
(0 0 0 0 -0 0 0 0 0)
(0 0 0 0 0 0 0 0 0)
(0 0 0 0 -0 0 0 0 0)
(0 0 0 0 0 0 0 0 0)
(0 0 0 0 0 0 0 0 0)
(0 0 0 0 0 0 0 0 0)
(0 0 0 0 0 0 0 0 0)
(0 0 0 0 0 0 0 0 0)
(0 0 0 0 0 0 0 0 0)
(0 0 0 0 0 0 0 0 0)
)
;

boundaryField
{
    inandouthalf11
    {
        type            cyclic;
    }
    inandouthalf12
    {
        type            cyclic;
    }
    inandouthalf21
    {
        type            cyclic;
    }
    inandouthalf22
    {
        type            cyclic;
    }
    inandouthalf31
    {
        type            cyclic;
    }
    inandouthalf32
    {
        type            cyclic;
    }
    inandouthalf41
    {
        type            cyclic;
    }
    inandouthalf42
    {
        type            cyclic;
    }
    top
    {
        type            symmetryPlane;
    }
    walls
    {
        type            zeroGradient;
    }
    frontAndBackPlanes
    {
        type            empty;
    }
}


// ************************************************************************* //
