/*--------------------------------*- C++ -*----------------------------------*\
| =========                 |                                                 |
| \\      /  F ield         | OpenFOAM: The Open Source CFD Toolbox           |
|  \\    /   O peration     | Version:  2.4.x                                 |
|   \\  /    A nd           | Web:      www.OpenFOAM.org                      |
|    \\/     M anipulation  |                                                 |
\*---------------------------------------------------------------------------*/
FoamFile
{
    version     2.0;
    format      ascii;
    class       volScalarField;
    location    "5.5";
    object      Theta;
}
// * * * * * * * * * * * * * * * * * * * * * * * * * * * * * * * * * * * * * //

dimensions      [0 2 -2 0 0 0 0];

internalField   nonuniform List<scalar> 
360
(
6.66778e-21
6.6841e-21
6.67831e-21
6.67573e-21
6.6765e-21
6.67746e-21
6.67791e-21
6.67808e-21
6.67818e-21
6.67833e-21
6.67854e-21
6.67879e-21
6.67904e-21
6.67928e-21
6.6795e-21
6.67972e-21
6.67995e-21
6.68018e-21
6.6804e-21
6.68062e-21
6.68083e-21
6.68104e-21
6.68126e-21
6.68148e-21
6.68173e-21
6.68201e-21
6.68235e-21
6.68275e-21
6.68321e-21
6.68372e-21
6.68426e-21
6.68477e-21
6.68518e-21
6.6854e-21
6.68533e-21
6.68492e-21
6.68417e-21
6.6832e-21
6.68217e-21
6.68131e-21
6.68093e-21
6.68137e-21
6.68312e-21
6.68695e-21
6.69415e-21
6.70672e-21
6.72684e-21
6.75357e-21
6.77586e-21
6.77172e-21
6.73399e-21
6.69087e-21
6.66831e-21
6.66229e-21
6.66143e-21
6.66135e-21
6.66135e-21
6.66135e-21
6.66135e-21
6.66135e-21
6.66135e-21
6.66135e-21
6.66135e-21
6.66135e-21
6.66135e-21
6.66135e-21
6.66134e-21
6.66134e-21
6.66134e-21
6.66134e-21
6.66134e-21
6.66134e-21
6.66134e-21
6.66134e-21
6.66134e-21
6.66134e-21
6.66134e-21
6.66134e-21
6.66133e-21
6.66133e-21
6.66133e-21
6.66133e-21
6.66133e-21
6.66133e-21
6.66133e-21
6.66133e-21
6.66133e-21
6.66132e-21
6.66132e-21
6.66132e-21
6.66132e-21
6.66132e-21
6.66132e-21
6.66132e-21
6.66132e-21
6.66131e-21
6.66131e-21
6.66131e-21
6.66131e-21
6.66131e-21
6.66131e-21
6.6613e-21
6.6613e-21
6.6613e-21
6.6613e-21
6.6613e-21
6.6613e-21
6.66129e-21
6.66129e-21
6.66129e-21
6.66129e-21
6.66129e-21
6.66128e-21
6.66128e-21
6.66128e-21
6.66128e-21
6.66127e-21
6.66127e-21
6.66127e-21
6.66127e-21
6.66126e-21
6.66126e-21
6.66126e-21
6.66126e-21
6.66125e-21
6.66125e-21
6.66125e-21
6.66124e-21
6.66124e-21
6.66123e-21
6.66123e-21
6.66126e-21
1.41602e-20
6.40815e-20
3.29414e-19
1.83794e-18
1.12483e-17
7.65996e-17
5.89604e-16
5.21167e-15
5.36802e-14
6.53321e-13
9.54791e-12
1.70863e-10
4.61871e-09
3.25743e-07
1.27706e-05
0.00017683
0.00123521
0.00256866
0.00321722
0.0036431
0.00397212
0.00424851
0.00448754
0.00469423
0.00487053
0.00501807
0.00513882
0.00523511
0.00530942
0.00536416
0.00540162
0.00542385
0.00543267
0.00542967
0.00541625
0.00539362
0.00536285
0.00532488
0.00528055
0.00523062
0.00517578
0.00511667
0.00505387
0.00498793
0.00491936
0.00484865
0.00477626
0.00470262
0.00462814
0.00455321
0.00447818
0.00440339
0.00432915
0.00425573
0.00418338
0.00411232
0.00404273
0.00397472
0.00390841
0.00384382
0.00378098
0.00371987
0.00366042
0.00360257
0.00354625
0.00349137
0.00343782
0.00338549
0.00333425
0.00328347
0.00323254
0.00318136
0.00312983
0.00307784
0.00302527
0.00297202
0.00291797
0.00286301
0.00280703
0.00274989
0.00269149
0.00263169
0.00257036
0.00250738
0.00244259
0.00237585
0.00230699
0.00223585
0.00216224
0.00208594
0.00200673
0.00192435
0.00183849
0.00174882
0.00165492
0.0015563
0.00145234
0.00134229
0.00122512
0.00109945
0.000963296
0.000813551
0.000644762
0.000445061
0
0
0
0
0
0
0
0
0
0
0
0
0
0
0
0
0
0
0
0
0
0
0
0
0
0
0
0
0
0
0
0
0
0
0
0
0
0
0
0
0
0
0
0
0
0
0
0
0
0
0
0
0
0
0
0
0
0
0
0
0
0
0
0
0
0
0
0
0
0
0
0
0
0
0
0
0
0
0
0
0
0
0
0
0
0
0
0
0
0
0
0
0
0
0
0
0
0
0
0
0
0
0
0
0
0
0
0
0
0
0
0
0
0
0
0
0
0
0
0
0
0
0
0
)
;

boundaryField
{
    inandouthalf11
    {
        type            cyclic;
    }
    inandouthalf12
    {
        type            cyclic;
    }
    inandouthalf21
    {
        type            cyclic;
    }
    inandouthalf22
    {
        type            cyclic;
    }
    inandouthalf31
    {
        type            cyclic;
    }
    inandouthalf32
    {
        type            cyclic;
    }
    inandouthalf41
    {
        type            cyclic;
    }
    inandouthalf42
    {
        type            cyclic;
    }
    top
    {
        type            symmetryPlane;
    }
    walls
    {
        type            zeroGradient;
    }
    frontAndBackPlanes
    {
        type            empty;
    }
}


// ************************************************************************* //
