/*--------------------------------*- C++ -*----------------------------------*\
| =========                 |                                                 |
| \\      /  F ield         | OpenFOAM: The Open Source CFD Toolbox           |
|  \\    /   O peration     | Version:  2.4.x                                 |
|   \\  /    A nd           | Web:      www.OpenFOAM.org                      |
|    \\/     M anipulation  |                                                 |
\*---------------------------------------------------------------------------*/
FoamFile
{
    version     2.0;
    format      ascii;
    class       volScalarField;
    location    "5.5";
    object      Theta_0;
}
// * * * * * * * * * * * * * * * * * * * * * * * * * * * * * * * * * * * * * //

dimensions      [0 2 -2 0 0 0 0];

internalField   nonuniform List<scalar> 
360
(
6.66778e-21
6.6841e-21
6.67831e-21
6.67574e-21
6.6765e-21
6.67747e-21
6.67791e-21
6.67808e-21
6.67818e-21
6.67833e-21
6.67854e-21
6.67879e-21
6.67905e-21
6.67928e-21
6.6795e-21
6.67973e-21
6.67995e-21
6.68018e-21
6.68041e-21
6.68063e-21
6.68084e-21
6.68104e-21
6.68126e-21
6.68149e-21
6.68174e-21
6.68202e-21
6.68235e-21
6.68275e-21
6.68321e-21
6.68373e-21
6.68426e-21
6.68478e-21
6.68518e-21
6.6854e-21
6.68533e-21
6.68492e-21
6.68417e-21
6.6832e-21
6.68217e-21
6.68131e-21
6.68093e-21
6.68138e-21
6.68313e-21
6.68697e-21
6.69418e-21
6.70677e-21
6.72691e-21
6.75365e-21
6.77591e-21
6.77166e-21
6.73386e-21
6.69077e-21
6.66828e-21
6.66228e-21
6.66143e-21
6.66135e-21
6.66135e-21
6.66135e-21
6.66135e-21
6.66135e-21
6.66135e-21
6.66135e-21
6.66135e-21
6.66135e-21
6.66135e-21
6.66135e-21
6.66134e-21
6.66134e-21
6.66134e-21
6.66134e-21
6.66134e-21
6.66134e-21
6.66134e-21
6.66134e-21
6.66134e-21
6.66134e-21
6.66134e-21
6.66134e-21
6.66133e-21
6.66133e-21
6.66133e-21
6.66133e-21
6.66133e-21
6.66133e-21
6.66133e-21
6.66133e-21
6.66133e-21
6.66132e-21
6.66132e-21
6.66132e-21
6.66132e-21
6.66132e-21
6.66132e-21
6.66132e-21
6.66132e-21
6.66131e-21
6.66131e-21
6.66131e-21
6.66131e-21
6.66131e-21
6.66131e-21
6.6613e-21
6.6613e-21
6.6613e-21
6.6613e-21
6.6613e-21
6.6613e-21
6.66129e-21
6.66129e-21
6.66129e-21
6.66129e-21
6.66129e-21
6.66128e-21
6.66128e-21
6.66128e-21
6.66128e-21
6.66127e-21
6.66127e-21
6.66127e-21
6.66127e-21
6.66126e-21
6.66126e-21
6.66126e-21
6.66126e-21
6.66125e-21
6.66125e-21
6.66125e-21
6.66124e-21
6.66124e-21
6.66123e-21
6.66123e-21
6.66126e-21
1.41615e-20
6.40893e-20
3.29459e-19
1.83822e-18
1.12502e-17
7.66139e-17
5.89727e-16
5.21287e-15
5.36936e-14
6.53496e-13
9.55063e-12
1.70915e-10
4.62035e-09
3.25853e-07
1.27735e-05
0.000176872
0.00123537
0.00256877
0.00321731
0.00364318
0.0039722
0.00424859
0.00448762
0.0046943
0.00487059
0.00501813
0.00513888
0.00523517
0.00530946
0.0053642
0.00540166
0.00542388
0.00543269
0.00542968
0.00541625
0.00539361
0.00536282
0.00532484
0.0052805
0.00523056
0.00517571
0.00511659
0.00505377
0.00498782
0.00491924
0.00484853
0.00477613
0.00470248
0.00462799
0.00455305
0.00447802
0.00440322
0.00432897
0.00425555
0.00418321
0.00411215
0.00404255
0.00397455
0.00390823
0.00384365
0.00378081
0.00371969
0.00366025
0.00360241
0.00354609
0.00349121
0.00343766
0.00338533
0.0033341
0.00328332
0.00323239
0.00318122
0.00312969
0.0030777
0.00302514
0.00297189
0.00291784
0.00286289
0.0028069
0.00274977
0.00269137
0.00263157
0.00257025
0.00250727
0.00244248
0.00237575
0.00230689
0.00223576
0.00216214
0.00208585
0.00200664
0.00192426
0.00183841
0.00174874
0.00165485
0.00155623
0.00145228
0.00134223
0.00122506
0.0010994
0.000963254
0.000813516
0.000644733
0.000445042
0
0
0
0
0
0
0
0
0
0
0
0
0
0
0
0
0
0
0
0
0
0
0
0
0
0
0
0
0
0
0
0
0
0
0
0
0
0
0
0
0
0
0
0
0
0
0
0
0
0
0
0
0
0
0
0
0
0
0
0
0
0
0
0
0
0
0
0
0
0
0
0
0
0
0
0
0
0
0
0
0
0
0
0
0
0
0
0
0
0
0
0
0
0
0
0
0
0
0
0
0
0
0
0
0
0
0
0
0
0
0
0
0
0
0
0
0
0
0
0
0
0
0
0
)
;

boundaryField
{
    inandouthalf11
    {
        type            cyclic;
    }
    inandouthalf12
    {
        type            cyclic;
    }
    inandouthalf21
    {
        type            cyclic;
    }
    inandouthalf22
    {
        type            cyclic;
    }
    inandouthalf31
    {
        type            cyclic;
    }
    inandouthalf32
    {
        type            cyclic;
    }
    inandouthalf41
    {
        type            cyclic;
    }
    inandouthalf42
    {
        type            cyclic;
    }
    top
    {
        type            symmetryPlane;
    }
    walls
    {
        type            zeroGradient;
    }
    frontAndBackPlanes
    {
        type            empty;
    }
}


// ************************************************************************* //
