/*--------------------------------*- C++ -*----------------------------------*\
| =========                 |                                                 |
| \\      /  F ield         | OpenFOAM: The Open Source CFD Toolbox           |
|  \\    /   O peration     | Version:  2.4.x                                 |
|   \\  /    A nd           | Web:      www.OpenFOAM.org                      |
|    \\/     M anipulation  |                                                 |
\*---------------------------------------------------------------------------*/
FoamFile
{
    version     2.0;
    format      ascii;
    class       volVectorField;
    location    "5.5";
    object      U;
}
// * * * * * * * * * * * * * * * * * * * * * * * * * * * * * * * * * * * * * //

dimensions      [0 1 -1 0 0 0 0];

internalField   nonuniform List<vector> 
360
(
(-3.32109e-07 3.42677e-08 0)
(-3.64595e-07 -4.54569e-09 0)
(-4.04028e-07 -6.88504e-09 0)
(-4.39701e-07 -7.32974e-10 0)
(-4.74914e-07 1.15069e-09 0)
(-5.11409e-07 6.40521e-10 0)
(-5.48947e-07 1.81206e-10 0)
(-5.87081e-07 6.3527e-11 0)
(-6.25625e-07 7.16664e-11 0)
(-6.64575e-07 1.26151e-10 0)
(-7.04003e-07 1.76048e-10 0)
(-7.43974e-07 1.88276e-10 0)
(-7.84516e-07 1.77349e-10 0)
(-8.2562e-07 1.60722e-10 0)
(-8.67275e-07 1.53654e-10 0)
(-9.09479e-07 1.56051e-10 0)
(-9.52241e-07 1.57915e-10 0)
(-9.9557e-07 1.56336e-10 0)
(-1.03947e-06 1.49945e-10 0)
(-1.08394e-06 1.45798e-10 0)
(-1.12898e-06 1.35317e-10 0)
(-1.17459e-06 1.38188e-10 0)
(-1.22077e-06 1.43868e-10 0)
(-1.26755e-06 1.53495e-10 0)
(-1.31495e-06 1.71498e-10 0)
(-1.36301e-06 2.00223e-10 0)
(-1.41178e-06 2.37754e-10 0)
(-1.46134e-06 2.86247e-10 0)
(-1.51177e-06 3.22858e-10 0)
(-1.56316e-06 3.4645e-10 0)
(-1.61555e-06 3.4141e-10 0)
(-1.66895e-06 3.0787e-10 0)
(-1.72329e-06 1.94652e-10 0)
(-1.77842e-06 5.208e-11 0)
(-1.83408e-06 -1.76551e-10 0)
(-1.8899e-06 -4.08398e-10 0)
(-1.94545e-06 -6.20022e-10 0)
(-2.00039e-06 -7.46204e-10 0)
(-2.05451e-06 -7.21222e-10 0)
(-2.1078e-06 -5.3557e-10 0)
(-2.16069e-06 -6.48845e-11 0)
(-2.21401e-06 6.67996e-10 0)
(-2.26914e-06 1.72659e-09 0)
(-2.32819e-06 3.25281e-09 0)
(-2.39404e-06 5.2224e-09 0)
(-2.47055e-06 7.57056e-09 0)
(-2.56226e-06 9.62215e-09 0)
(-2.67293e-06 9.4711e-09 0)
(-2.80199e-06 4.28629e-09 0)
(-2.93906e-06 -6.8432e-09 0)
(-3.06258e-06 -1.82179e-08 0)
(-3.15093e-06 -2.09551e-08 0)
(-3.19877e-06 -1.46271e-08 0)
(-3.21802e-06 -6.71016e-09 0)
(-3.22391e-06 -2.19905e-09 0)
(-3.22539e-06 -5.30161e-10 0)
(-3.22577e-06 -1.47442e-10 0)
(-3.22591e-06 -3.50158e-11 0)
(-3.22601e-06 -1.50003e-11 0)
(-3.22611e-06 -4.17431e-11 0)
(-3.2262e-06 3.193e-12 0)
(-3.2263e-06 -2.6756e-11 0)
(-3.2264e-06 -7.99441e-13 0)
(-3.2265e-06 -1.22537e-11 0)
(-3.22661e-06 -6.49982e-12 0)
(-3.22671e-06 -1.88457e-11 0)
(-3.22682e-06 -1.65988e-11 0)
(-3.22694e-06 -1.61945e-11 0)
(-3.22706e-06 -1.45227e-11 0)
(-3.22718e-06 -3.60286e-11 0)
(-3.22731e-06 -2.3021e-11 0)
(-3.22745e-06 -3.36628e-12 0)
(-3.22758e-06 -3.2729e-11 0)
(-3.22773e-06 -9.94041e-12 0)
(-3.22787e-06 -2.13663e-11 0)
(-3.22802e-06 -3.22572e-12 0)
(-3.22818e-06 -1.51113e-11 0)
(-3.22833e-06 -1.658e-11 0)
(-3.22849e-06 -1.73796e-11 0)
(-3.22866e-06 -1.4697e-11 0)
(-3.22882e-06 -2.3103e-11 0)
(-3.229e-06 -2.21562e-11 0)
(-3.22917e-06 -2.07192e-11 0)
(-3.22936e-06 -2.18462e-11 0)
(-3.22954e-06 -1.94178e-11 0)
(-3.22973e-06 -2.04877e-11 0)
(-3.22993e-06 -1.7234e-11 0)
(-3.23013e-06 -1.83481e-11 0)
(-3.23033e-06 -2.00194e-11 0)
(-3.23054e-06 -2.04127e-11 0)
(-3.23075e-06 -2.15854e-11 0)
(-3.23097e-06 -2.42009e-11 0)
(-3.23119e-06 -2.47847e-11 0)
(-3.23142e-06 -2.55547e-11 0)
(-3.23165e-06 -2.63101e-11 0)
(-3.23189e-06 -2.68115e-11 0)
(-3.23214e-06 -2.72687e-11 0)
(-3.23239e-06 -2.8035e-11 0)
(-3.23264e-06 -2.90997e-11 0)
(-3.23291e-06 -3.01403e-11 0)
(-3.23317e-06 -3.14245e-11 0)
(-3.23345e-06 -3.28689e-11 0)
(-3.23373e-06 -3.42149e-11 0)
(-3.23402e-06 -3.56191e-11 0)
(-3.23432e-06 -3.71395e-11 0)
(-3.23462e-06 -3.87246e-11 0)
(-3.23494e-06 -4.0431e-11 0)
(-3.23526e-06 -4.22795e-11 0)
(-3.23559e-06 -4.42376e-11 0)
(-3.23593e-06 -4.63039e-11 0)
(-3.23627e-06 -4.84798e-11 0)
(-3.23663e-06 -5.07587e-11 0)
(-3.237e-06 -5.31482e-11 0)
(-3.23738e-06 -5.56557e-11 0)
(-3.23777e-06 -5.82837e-11 0)
(-3.23817e-06 -6.10436e-11 0)
(-3.23858e-06 -6.39565e-11 0)
(-3.23901e-06 -6.70426e-11 0)
(-3.23945e-06 -7.03108e-11 0)
(-3.23991e-06 -7.37559e-11 0)
(-3.24037e-06 -7.73545e-11 0)
(-3.24086e-06 -8.10762e-11 0)
(-3.24136e-06 -8.49582e-11 0)
(-3.24188e-06 -8.92366e-11 0)
(-3.24242e-06 -9.44289e-11 0)
(-3.24297e-06 -1.0123e-10 0)
(-3.24355e-06 -1.10043e-10 0)
(-3.24415e-06 -1.20154e-10 0)
(-3.24477e-06 -1.292e-10 0)
(-3.24542e-06 -1.34839e-10 0)
(-3.24609e-06 -1.40106e-10 0)
(-3.24679e-06 -1.58915e-10 0)
(-3.24753e-06 -2.03615e-10 0)
(-3.24831e-06 -2.49757e-10 0)
(-3.24913e-06 -2.46218e-10 0)
(-3.25001e-06 -2.17826e-10 0)
(-3.25093e-06 -2.88807e-10 0)
(-3.2519e-06 -5.49084e-10 0)
(-3.25299e-06 -8.31649e-10 0)
(-3.25424e-06 -5.2298e-10 0)
(-3.25559e-06 3.70593e-10 0)
(-3.25688e-06 -1.28947e-09 0)
(-3.25843e-06 -2.3771e-09 0)
(-3.26044e-06 -2.37866e-09 0)
(-3.26294e-06 -1.00223e-08 0)
(-3.26766e-06 1.03737e-07 0)
(-3.53313e-06 -2.24951e-06 0)
(-0.000210878 9.83352e-06 0)
(-0.075508 2.94537e-05 0)
(-0.174974 -1.45e-05 0)
(-0.250031 5.40318e-06 0)
(-0.309789 1.13249e-06 0)
(-0.358951 5.84667e-07 0)
(-0.4003 3.7004e-07 0)
(-0.435696 2.2154e-07 0)
(-0.466458 1.05197e-07 0)
(-0.493551 2.78219e-08 0)
(-0.517698 -1.83749e-08 0)
(-0.539447 -4.36684e-08 0)
(-0.559216 -5.57676e-08 0)
(-0.577333 -5.98272e-08 0)
(-0.594055 -5.92075e-08 0)
(-0.609586 -5.60514e-08 0)
(-0.62409 -5.16792e-08 0)
(-0.637701 -4.687e-08 0)
(-0.650528 -4.20626e-08 0)
(-0.662663 -3.74938e-08 0)
(-0.67418 -3.32787e-08 0)
(-0.685146 -2.94587e-08 0)
(-0.695612 -2.60357e-08 0)
(-0.705627 -2.29907e-08 0)
(-0.715229 -2.02947e-08 0)
(-0.724452 -1.79147e-08 0)
(-0.733328 -1.58169e-08 0)
(-0.741881 -1.39695e-08 0)
(-0.750134 -1.23428e-08 0)
(-0.758107 -1.09103e-08 0)
(-0.765818 -9.64777e-09 0)
(-0.773282 -8.53474e-09 0)
(-0.780512 -7.55298e-09 0)
(-0.78752 -6.68686e-09 0)
(-0.794317 -5.92125e-09 0)
(-0.800913 -5.24053e-09 0)
(-0.807314 -4.62742e-09 0)
(-0.813529 -4.06466e-09 0)
(-0.819563 -3.53768e-09 0)
(-0.825421 -3.03918e-09 0)
(-0.831109 -2.57574e-09 0)
(-0.836629 -2.16889e-09 0)
(-0.841985 -1.83152e-09 0)
(-0.847179 -1.53796e-09 0)
(-0.852213 -1.26608e-09 0)
(-0.857088 -1.06356e-09 0)
(-0.861805 -9.42897e-10 0)
(-0.866364 -7.8206e-10 0)
(-0.870764 -5.00961e-10 0)
(-0.875006 -2.06228e-10 0)
(-0.879087 -4.45057e-11 0)
(-0.883007 -7.20622e-11 0)
(-0.886764 -1.57055e-10 0)
(-0.890357 -1.00516e-10 0)
(-0.893817 -2.96195e-11 0)
(-0.897169 -1.11426e-10 0)
(-0.900402 -2.47301e-11 0)
(-0.903504 1.24838e-10 0)
(-0.906461 5.06102e-12 0)
(-0.90926 -2.76021e-11 0)
(-0.911888 8.94433e-11 0)
(-0.914333 3.69866e-11 0)
(-0.916584 -6.62072e-12 0)
(-0.918629 4.05958e-11 0)
(-0.920462 1.03196e-11 0)
(-0.922077 1.08877e-11 0)
(-0.923471 3.6484e-11 0)
(-0.924645 -1.60769e-11 0)
(-0.925602 7.09997e-12 0)
(-0.926349 3.02826e-11 0)
(-0.926893 -1.38503e-11 0)
(-0.927244 8.72074e-13 0)
(-0.927413 1.0383e-11 0)
(-0.927411 -9.07058e-13 0)
(-0.927246 4.16154e-12 0)
(-0.92693 -6.26015e-12 0)
(-0.92647 4.4237e-12 0)
(-0.925875 3.69429e-12 0)
(-0.925151 -6.02727e-12 0)
(-0.924306 2.64475e-12 0)
(-0.923345 -7.87686e-14 0)
(-0.922273 -1.34312e-12 0)
(-0.921096 -6.60125e-13 0)
(-0.919818 -1.08907e-12 0)
(-0.918444 -1.73183e-12 0)
(-0.916979 4.92276e-12 0)
(-0.915429 -3.91598e-12 0)
(-0.913797 1.26474e-11 0)
(-0.912089 -6.97372e-11 0)
(-0.910311 1.68122e-10 0)
(-0.908468 -1.46505e-10 0)
(-0.906566 1.31343e-10 0)
(-0.904612 2.55856e-11 0)
(-0.902612 -5.20077e-12 0)
(-0.900577 -2.50879e-12 0)
(-0.898514 -5.90323e-13 0)
(-0.896434 -1.45159e-11 0)
(-0.894351 4.22271e-11 0)
(-0.892281 -9.76777e-11 0)
(-0.890243 1.74534e-10 0)
(-0.888264 -2.84116e-10 0)
(-0.886379 4.1723e-10 0)
(-0.884643 -5.80777e-10 0)
(-0.883136 7.62164e-10 0)
(-0.882168 -9.63794e-10 0)
(-0.881968 1.17208e-09 0)
(-0.88196 -1.39077e-09 0)
(-0.881959 1.61152e-09 0)
(-0.881959 -1.84102e-09 0)
(-0.881959 2.0731e-09 0)
(-0.881958 -2.31394e-09 0)
(-0.881958 2.55814e-09 0)
(-0.881958 -2.81113e-09 0)
(-0.881958 3.06826e-09 0)
(-0.881958 -3.3342e-09 0)
(-0.881958 3.60505e-09 0)
(-0.881958 -3.8847e-09 0)
(-0.881958 4.16998e-09 0)
(-0.881958 -4.46407e-09 0)
(-0.881958 4.76444e-09 0)
(-0.881958 -5.07365e-09 0)
(-0.881958 5.38973e-09 0)
(-0.881958 -5.7147e-09 0)
(-0.881958 6.04706e-09 0)
(-0.881958 -6.38837e-09 0)
(-0.881958 6.73757e-09 0)
(-0.881958 -7.09578e-09 0)
(-0.881958 7.46234e-09 0)
(-0.881958 -7.83798e-09 0)
(-0.881958 8.2224e-09 0)
(-0.881958 -8.61598e-09 0)
(-0.881958 9.01874e-09 0)
(-0.881958 -9.43078e-09 0)
(-0.881958 9.85236e-09 0)
(-0.881958 -1.02833e-08 0)
(-0.881958 1.07242e-08 0)
(-0.881958 -1.11745e-08 0)
(-0.881958 1.16351e-08 0)
(-0.881958 -1.21053e-08 0)
(-0.881958 1.25859e-08 0)
(-0.881958 -1.30764e-08 0)
(-0.881958 1.35775e-08 0)
(-0.881958 -1.40886e-08 0)
(-0.881958 1.46106e-08 0)
(-0.881958 -1.51429e-08 0)
(-0.881958 1.56861e-08 0)
(-0.881958 -1.62398e-08 0)
(-0.881958 1.68046e-08 0)
(-0.881958 -1.73802e-08 0)
(-0.881958 1.79669e-08 0)
(-0.881958 -1.85646e-08 0)
(-0.881958 1.91737e-08 0)
(-0.881958 -1.97938e-08 0)
(-0.881958 2.04255e-08 0)
(-0.881958 -2.10684e-08 0)
(-0.881958 2.1723e-08 0)
(-0.881958 -2.23888e-08 0)
(-0.881958 2.30664e-08 0)
(-0.881958 -2.37553e-08 0)
(-0.881958 2.44562e-08 0)
(-0.881958 -2.51684e-08 0)
(-0.881958 2.58926e-08 0)
(-0.881958 -2.66282e-08 0)
(-0.881958 2.40294e-08 0)
(-0.881958 -2.42319e-08 0)
(-0.881958 2.44324e-08 0)
(-0.881958 -2.46305e-08 0)
(-0.881958 2.48266e-08 0)
(-0.881958 -2.50202e-08 0)
(-0.881958 2.52116e-08 0)
(-0.881958 -2.54006e-08 0)
(-0.881958 2.55874e-08 0)
(-0.881958 -2.57717e-08 0)
(-0.881958 2.59538e-08 0)
(-0.881958 -2.61333e-08 0)
(-0.881958 2.63105e-08 0)
(-0.881958 -2.64851e-08 0)
(-0.881958 2.66573e-08 0)
(-0.881958 -2.68269e-08 0)
(-0.881958 2.6994e-08 0)
(-0.881958 -2.71585e-08 0)
(-0.881958 2.73202e-08 0)
(-0.881958 -2.74795e-08 0)
(-0.881958 2.76358e-08 0)
(-0.881958 -2.77898e-08 0)
(-0.881958 2.79405e-08 0)
(-0.881958 -2.80889e-08 0)
(-0.881958 2.82337e-08 0)
(-0.881958 -2.83765e-08 0)
(-0.881958 2.85153e-08 0)
(-0.881958 -2.86521e-08 0)
(-0.881958 2.87846e-08 0)
(-0.881958 -2.89152e-08 0)
(-0.881958 2.90413e-08 0)
(-0.881958 -2.91653e-08 0)
(-0.881958 2.92846e-08 0)
(-0.881958 -2.94016e-08 0)
(-0.881958 2.95139e-08 0)
(-0.881958 -2.96234e-08 0)
(-0.881958 2.97282e-08 0)
(-0.881958 -2.98297e-08 0)
(-0.881958 2.99266e-08 0)
(-0.881958 -3.00194e-08 0)
(-0.881958 3.01078e-08 0)
(-0.881958 -3.01909e-08 0)
(-0.881958 3.027e-08 0)
(-0.881958 -3.03421e-08 0)
(-0.881958 3.04107e-08 0)
(-0.881958 -3.04699e-08 0)
(-0.881958 3.05261e-08 0)
(-0.881958 -3.05691e-08 0)
(-0.881958 3.06087e-08 0)
(-0.881958 -3.06293e-08 0)
)
;

boundaryField
{
    inandouthalf11
    {
        type            cyclic;
    }
    inandouthalf12
    {
        type            cyclic;
    }
    inandouthalf21
    {
        type            cyclic;
    }
    inandouthalf22
    {
        type            cyclic;
    }
    inandouthalf31
    {
        type            cyclic;
    }
    inandouthalf32
    {
        type            cyclic;
    }
    inandouthalf41
    {
        type            cyclic;
    }
    inandouthalf42
    {
        type            cyclic;
    }
    top
    {
        type            symmetryPlane;
    }
    walls
    {
        type            calculated;
        value           uniform (0 0 0);
    }
    frontAndBackPlanes
    {
        type            empty;
    }
}


// ************************************************************************* //
