/*--------------------------------*- C++ -*----------------------------------*\
| =========                 |                                                 |
| \\      /  F ield         | OpenFOAM: The Open Source CFD Toolbox           |
|  \\    /   O peration     | Version:  2.4.x                                 |
|   \\  /    A nd           | Web:      www.OpenFOAM.org                      |
|    \\/     M anipulation  |                                                 |
\*---------------------------------------------------------------------------*/
FoamFile
{
    version     2.0;
    format      ascii;
    class       volVectorField;
    location    "5.5";
    object      Ua;
}
// * * * * * * * * * * * * * * * * * * * * * * * * * * * * * * * * * * * * * //

dimensions      [0 1 -1 0 0 0 0];

internalField   nonuniform List<vector> 
360
(
(-1.0193e-32 -8.97735e-32 0)
(-3.44829e-08 -2.17263e-07 0)
(-7.43822e-08 -4.07458e-07 0)
(-1.09812e-07 -5.68112e-07 0)
(-1.44842e-07 -7.30464e-07 0)
(-1.81253e-07 -8.99783e-07 0)
(-2.18714e-07 -1.07252e-06 0)
(-2.56763e-07 -1.24646e-06 0)
(-2.9522e-07 -1.42094e-06 0)
(-3.34079e-07 -1.59597e-06 0)
(-3.73414e-07 -1.77193e-06 0)
(-4.13292e-07 -1.94914e-06 0)
(-4.53739e-07 -2.12766e-06 0)
(-4.9475e-07 -2.3074e-06 0)
(-5.3631e-07 -2.48827e-06 0)
(-5.78418e-07 -2.67022e-06 0)
(-6.21083e-07 -2.85329e-06 0)
(-6.64314e-07 -3.03747e-06 0)
(-7.08115e-07 -3.22274e-06 0)
(-7.52488e-07 -3.4091e-06 0)
(-7.97428e-07 -3.59649e-06 0)
(-8.42934e-07 -3.78484e-06 0)
(-8.89016e-07 -3.9742e-06 0)
(-9.35691e-07 -4.16457e-06 0)
(-9.82985e-07 -4.35605e-06 0)
(-1.03094e-06 -4.54874e-06 0)
(-1.0796e-06 -4.74283e-06 0)
(-1.12905e-06 -4.93858e-06 0)
(-1.17938e-06 -5.13631e-06 0)
(-1.23066e-06 -5.33626e-06 0)
(-1.28293e-06 -5.53857e-06 0)
(-1.33622e-06 -5.74328e-06 0)
(-1.39045e-06 -5.95006e-06 0)
(-1.44547e-06 -6.1583e-06 0)
(-1.50101e-06 -6.36696e-06 0)
(-1.55671e-06 -6.57457e-06 0)
(-1.61215e-06 -6.77957e-06 0)
(-1.66698e-06 -6.98057e-06 0)
(-1.72098e-06 -7.17679e-06 0)
(-1.77416e-06 -7.36822e-06 0)
(-1.82693e-06 -7.55626e-06 0)
(-1.88014e-06 -7.74395e-06 0)
(-1.93516e-06 -7.93606e-06 0)
(-1.99407e-06 -8.13977e-06 0)
(-2.05978e-06 -8.36509e-06 0)
(-2.13613e-06 -8.62512e-06 0)
(-2.22765e-06 -8.93557e-06 0)
(-2.33811e-06 -9.31e-06 0)
(-2.46696e-06 -9.74783e-06 0)
(-2.60384e-06 -1.02152e-05 0)
(-2.72722e-06 -1.06378e-05 0)
(-2.81549e-06 -1.09393e-05 0)
(-2.86326e-06 -1.11008e-05 0)
(-2.88245e-06 -1.11646e-05 0)
(-2.88827e-06 -1.11835e-05 0)
(-2.88969e-06 -1.1188e-05 0)
(-2.88999e-06 -1.1189e-05 0)
(-2.89006e-06 -1.11892e-05 0)
(-2.89007e-06 -1.11892e-05 0)
(-2.89008e-06 -1.11892e-05 0)
(-2.89008e-06 -1.11892e-05 0)
(-2.89008e-06 -1.11892e-05 0)
(-2.89008e-06 -1.11892e-05 0)
(-2.89008e-06 -1.11892e-05 0)
(-2.89008e-06 -1.11892e-05 0)
(-2.89008e-06 -1.11892e-05 0)
(-2.89008e-06 -1.11893e-05 0)
(-2.89008e-06 -1.11893e-05 0)
(-2.89008e-06 -1.11893e-05 0)
(-2.89008e-06 -1.11893e-05 0)
(-2.89009e-06 -1.11893e-05 0)
(-2.89009e-06 -1.11893e-05 0)
(-2.89009e-06 -1.11893e-05 0)
(-2.89009e-06 -1.11893e-05 0)
(-2.89009e-06 -1.11893e-05 0)
(-2.89009e-06 -1.11893e-05 0)
(-2.8901e-06 -1.11893e-05 0)
(-2.8901e-06 -1.11893e-05 0)
(-2.8901e-06 -1.11893e-05 0)
(-2.8901e-06 -1.11893e-05 0)
(-2.8901e-06 -1.11893e-05 0)
(-2.89011e-06 -1.11893e-05 0)
(-2.89011e-06 -1.11893e-05 0)
(-2.89011e-06 -1.11893e-05 0)
(-2.89011e-06 -1.11893e-05 0)
(-2.89011e-06 -1.11893e-05 0)
(-2.89011e-06 -1.11893e-05 0)
(-2.89012e-06 -1.11893e-05 0)
(-2.89012e-06 -1.11893e-05 0)
(-2.89012e-06 -1.11893e-05 0)
(-2.89012e-06 -1.11894e-05 0)
(-2.89013e-06 -1.11894e-05 0)
(-2.89013e-06 -1.11894e-05 0)
(-2.89013e-06 -1.11894e-05 0)
(-2.89013e-06 -1.11894e-05 0)
(-2.89013e-06 -1.11894e-05 0)
(-2.89014e-06 -1.11894e-05 0)
(-2.89014e-06 -1.11894e-05 0)
(-2.89014e-06 -1.11894e-05 0)
(-2.89014e-06 -1.11894e-05 0)
(-2.89015e-06 -1.11894e-05 0)
(-2.89015e-06 -1.11894e-05 0)
(-2.89015e-06 -1.11894e-05 0)
(-2.89015e-06 -1.11894e-05 0)
(-2.89016e-06 -1.11894e-05 0)
(-2.89016e-06 -1.11894e-05 0)
(-2.89016e-06 -1.11894e-05 0)
(-2.89017e-06 -1.11894e-05 0)
(-2.89017e-06 -1.11895e-05 0)
(-2.89017e-06 -1.11895e-05 0)
(-2.89018e-06 -1.11895e-05 0)
(-2.89018e-06 -1.11895e-05 0)
(-2.89018e-06 -1.11895e-05 0)
(-2.89019e-06 -1.11895e-05 0)
(-2.89019e-06 -1.11895e-05 0)
(-2.89019e-06 -1.11895e-05 0)
(-2.8902e-06 -1.11895e-05 0)
(-2.8902e-06 -1.11895e-05 0)
(-2.8902e-06 -1.11895e-05 0)
(-2.89021e-06 -1.11895e-05 0)
(-2.89021e-06 -1.11895e-05 0)
(-2.89021e-06 -1.11895e-05 0)
(-2.89022e-06 -1.11895e-05 0)
(-2.89022e-06 -1.11895e-05 0)
(-2.89022e-06 -1.11895e-05 0)
(-2.89023e-06 -1.11896e-05 0)
(-2.89023e-06 -1.11896e-05 0)
(-2.89024e-06 -1.11896e-05 0)
(-2.89024e-06 -1.11896e-05 0)
(-2.89025e-06 -1.11896e-05 0)
(-2.89025e-06 -1.11896e-05 0)
(-2.89025e-06 -1.11896e-05 0)
(-2.89026e-06 -1.11896e-05 0)
(-2.89026e-06 -1.11896e-05 0)
(-2.89027e-06 -1.11896e-05 0)
(-2.89027e-06 -1.11896e-05 0)
(-2.89027e-06 -1.11896e-05 0)
(-2.89028e-06 -1.11896e-05 0)
(-2.89028e-06 -1.11896e-05 0)
(-2.89028e-06 -1.11896e-05 0)
(-2.89029e-06 -1.11896e-05 0)
(-2.89029e-06 -1.11896e-05 0)
(-2.89029e-06 -1.11896e-05 0)
(-2.89029e-06 -1.11896e-05 0)
(-2.89029e-06 -1.11896e-05 0)
(-2.89029e-06 -1.11896e-05 0)
(-2.89029e-06 -1.11896e-05 0)
(-4.51454e-06 -1.13803e-05 0)
(-0.0701997 -0.000371344 0)
(-0.167789 -0.000389833 0)
(-0.243822 -0.000493833 0)
(-0.304553 -0.00054733 0)
(-0.354399 -0.00059094 0)
(-0.3962 -0.000622843 0)
(-0.431866 -0.00064259 0)
(-0.462755 -0.000649374 0)
(-0.489864 -0.000642777 0)
(-0.513939 -0.000622685 0)
(-0.535544 -0.000589244 0)
(-0.555112 -0.000542796 0)
(-0.572978 -0.000483814 0)
(-0.589402 -0.000412837 0)
(-0.604591 -0.000330422 0)
(-0.618708 -0.000237124 0)
(-0.631885 -0.000133473 0)
(-0.644231 -1.99694e-05 0)
(-0.655833 0.000102916 0)
(-0.666762 0.000234742 0)
(-0.677081 0.000375093 0)
(-0.686838 0.000523573 0)
(-0.696076 0.000679808 0)
(-0.70483 0.000843434 0)
(-0.713132 0.0010141 0)
(-0.721008 0.00119147 0)
(-0.728478 0.0013752 0)
(-0.735563 0.00156497 0)
(-0.74228 0.00176044 0)
(-0.748643 0.00196129 0)
(-0.754665 0.00216716 0)
(-0.760358 0.0023777 0)
(-0.765732 0.00259253 0)
(-0.770796 0.00281127 0)
(-0.775561 0.00303345 0)
(-0.780034 0.0032585 0)
(-0.784224 0.00348559 0)
(-0.788138 0.00371341 0)
(-0.791786 0.00394003 0)
(-0.795175 0.00416266 0)
(-0.798314 0.00437779 0)
(-0.801215 0.00458145 0)
(-0.803887 0.00476985 0)
(-0.806342 0.00493994 0)
(-0.808594 0.00508989 0)
(-0.810656 0.0052194 0)
(-0.81254 0.00532985 0)
(-0.81426 0.00542386 0)
(-0.815829 0.00550408 0)
(-0.817257 0.00557209 0)
(-0.818558 0.00562827 0)
(-0.819744 0.00567259 0)
(-0.820826 0.00570552 0)
(-0.821828 0.00572833 0)
(-0.822764 0.00574199 0)
(-0.823643 0.00574778 0)
(-0.824469 0.00574732 0)
(-0.825249 0.00574162 0)
(-0.825988 0.00573146 0)
(-0.826691 0.00571805 0)
(-0.827361 0.00570218 0)
(-0.828004 0.00568413 0)
(-0.828623 0.00566447 0)
(-0.82922 0.00564363 0)
(-0.8298 0.00562181 0)
(-0.830364 0.00559936 0)
(-0.830915 0.00557619 0)
(-0.831455 0.00555232 0)
(-0.831985 0.00552813 0)
(-0.832508 0.0055032 0)
(-0.833025 0.00547724 0)
(-0.833536 0.00545056 0)
(-0.834042 0.00542291 0)
(-0.834545 0.005394 0)
(-0.835045 0.00536348 0)
(-0.835542 0.00533131 0)
(-0.836035 0.00529752 0)
(-0.836527 0.00526111 0)
(-0.837016 0.00522179 0)
(-0.837502 0.00517931 0)
(-0.837986 0.00513249 0)
(-0.838466 0.00508046 0)
(-0.838941 0.00502234 0)
(-0.839409 0.0049568 0)
(-0.839866 0.00488286 0)
(-0.840317 0.00479132 0)
(-0.840756 0.00467788 0)
(-0.841178 0.00452777 0)
(-0.841705 0.0043489 0)
(-0.907721 -0.00294024 0)
(-0.906511 0.0108042 0)
(-0.904113 -0.014868 0)
(-0.902288 -0.0396097 0)
(-0.90002 -0.0395913 0)
(-0.897983 -0.0395951 0)
(-0.895903 -0.0395965 0)
(-0.893828 -0.0395977 0)
(-0.891769 -0.0395985 0)
(-0.889749 -0.0395986 0)
(-0.887795 -0.0395977 0)
(-0.885946 -0.0395954 0)
(-0.88426 -0.0395906 0)
(-0.882823 -0.0395792 0)
(-0.882087 -0.039563 0)
(-0.88195 -0.0395522 0)
(-0.881944 -0.0395501 0)
(-0.881943 -0.0395501 0)
(-0.881943 -0.0395501 0)
(-0.881943 -0.0395501 0)
(-0.881943 -0.0395501 0)
(-0.881942 -0.0395501 0)
(-0.881942 -0.0395501 0)
(-0.881942 -0.0395501 0)
(-0.881942 -0.0395501 0)
(-0.881942 -0.0395501 0)
(-0.881942 -0.0395501 0)
(-0.881942 -0.0395501 0)
(-0.881942 -0.0395501 0)
(-0.881942 -0.0395501 0)
(-0.881942 -0.0395501 0)
(-0.881942 -0.0395501 0)
(-0.881942 -0.0395501 0)
(-0.881942 -0.0395501 0)
(-0.881942 -0.0395501 0)
(-0.881942 -0.0395501 0)
(-0.881942 -0.0395501 0)
(-0.881942 -0.0395501 0)
(-0.881942 -0.0395501 0)
(-0.881942 -0.0395501 0)
(-0.881942 -0.0395501 0)
(-0.881942 -0.0395501 0)
(-0.881942 -0.0395501 0)
(-0.881942 -0.0395501 0)
(-0.881942 -0.0395501 0)
(-0.881942 -0.0395501 0)
(-0.881942 -0.0395501 0)
(-0.881942 -0.0395501 0)
(-0.881942 -0.0395501 0)
(-0.881942 -0.0395501 0)
(-0.881942 -0.0395501 0)
(-0.881942 -0.0395501 0)
(-0.881942 -0.0395501 0)
(-0.881942 -0.0395501 0)
(-0.881942 -0.0395501 0)
(-0.881942 -0.0395501 0)
(-0.881942 -0.0395501 0)
(-0.881942 -0.0395501 0)
(-0.881942 -0.0395501 0)
(-0.881942 -0.0395501 0)
(-0.881942 -0.0395501 0)
(-0.881942 -0.0395501 0)
(-0.881942 -0.0395501 0)
(-0.881942 -0.0395501 0)
(-0.881942 -0.0395501 0)
(-0.881942 -0.0395501 0)
(-0.881942 -0.0395501 0)
(-0.881942 -0.0395501 0)
(-0.881942 -0.0395501 0)
(-0.881942 -0.0395501 0)
(-0.881942 -0.0395501 0)
(-0.881942 -0.0395501 0)
(-0.881942 -0.0395501 0)
(-0.881942 -0.0395501 0)
(-0.881942 -0.0395501 0)
(-0.881942 -0.0395501 0)
(-0.881942 -0.0395501 0)
(-0.881942 -0.0395501 0)
(-0.881942 -0.0395501 0)
(-0.881942 -0.0395501 0)
(-0.881942 -0.0395501 0)
(-0.881942 -0.0395501 0)
(-0.881942 -0.0395501 0)
(-0.881942 -0.0395501 0)
(-0.881942 -0.0395501 0)
(-0.881942 -0.0395501 0)
(-0.881942 -0.0395501 0)
(-0.881942 -0.0395501 0)
(-0.881942 -0.0395501 0)
(-0.881942 -0.0395501 0)
(-0.881942 -0.0395501 0)
(-0.881942 -0.0395501 0)
(-0.881942 -0.0395501 0)
(-0.881942 -0.0395501 0)
(-0.881942 -0.0395501 0)
(-0.881942 -0.0395501 0)
(-0.881942 -0.0395501 0)
(-0.881942 -0.0395501 0)
(-0.881942 -0.0395501 0)
(-0.881942 -0.0395501 0)
(-0.881942 -0.0395501 0)
(-0.881942 -0.0395501 0)
(-0.881942 -0.0395501 0)
(-0.881942 -0.0395501 0)
(-0.881942 -0.0395501 0)
(-0.881942 -0.0395501 0)
(-0.881942 -0.0395501 0)
(-0.881942 -0.0395501 0)
(-0.881942 -0.0395501 0)
(-0.881942 -0.0395501 0)
(-0.881942 -0.0395501 0)
(-0.881942 -0.0395501 0)
(-0.881942 -0.0395501 0)
(-0.881942 -0.0395501 0)
(-0.881942 -0.0395501 0)
(-0.881942 -0.0395501 0)
(-0.881942 -0.0395501 0)
(-0.881942 -0.0395501 0)
(-0.881942 -0.0395501 0)
(-0.881942 -0.0395499 0)
(-0.881942 -0.0395414 0)
(-0.881942 -0.039197 0)
(-0.881939 -0.0225005 0)
)
;

boundaryField
{
    inandouthalf11
    {
        type            cyclic;
    }
    inandouthalf12
    {
        type            cyclic;
    }
    inandouthalf21
    {
        type            cyclic;
    }
    inandouthalf22
    {
        type            cyclic;
    }
    inandouthalf31
    {
        type            cyclic;
    }
    inandouthalf32
    {
        type            cyclic;
    }
    inandouthalf41
    {
        type            cyclic;
    }
    inandouthalf42
    {
        type            cyclic;
    }
    top
    {
        type            symmetryPlane;
    }
    walls
    {
        type            fixedValue;
        value           uniform (0 0 0);
    }
    frontAndBackPlanes
    {
        type            empty;
    }
}


// ************************************************************************* //
