/*--------------------------------*- C++ -*----------------------------------*\
| =========                 |                                                 |
| \\      /  F ield         | OpenFOAM: The Open Source CFD Toolbox           |
|  \\    /   O peration     | Version:  2.4.x                                 |
|   \\  /    A nd           | Web:      www.OpenFOAM.org                      |
|    \\/     M anipulation  |                                                 |
\*---------------------------------------------------------------------------*/
FoamFile
{
    version     2.0;
    format      ascii;
    class       volVectorField;
    location    "5.5";
    object      Ua_0;
}
// * * * * * * * * * * * * * * * * * * * * * * * * * * * * * * * * * * * * * //

dimensions      [0 1 -1 0 0 0 0];

internalField   nonuniform List<vector> 
360
(
(-1.0193e-32 -8.97722e-32 0)
(-3.4485e-08 -2.17275e-07 0)
(-7.43872e-08 -4.07482e-07 0)
(-1.0982e-07 -5.68146e-07 0)
(-1.44852e-07 -7.30508e-07 0)
(-1.81265e-07 -8.99836e-07 0)
(-2.18729e-07 -1.07258e-06 0)
(-2.56781e-07 -1.24654e-06 0)
(-2.9524e-07 -1.42103e-06 0)
(-3.34102e-07 -1.59606e-06 0)
(-3.7344e-07 -1.77204e-06 0)
(-4.1332e-07 -1.94926e-06 0)
(-4.53771e-07 -2.12778e-06 0)
(-4.94784e-07 -2.30754e-06 0)
(-5.36348e-07 -2.48842e-06 0)
(-5.78459e-07 -2.67038e-06 0)
(-6.21127e-07 -2.85346e-06 0)
(-6.64361e-07 -3.03765e-06 0)
(-7.08165e-07 -3.22294e-06 0)
(-7.52541e-07 -3.40931e-06 0)
(-7.97485e-07 -3.5967e-06 0)
(-8.42994e-07 -3.78507e-06 0)
(-8.8908e-07 -3.97443e-06 0)
(-9.35758e-07 -4.16483e-06 0)
(-9.83056e-07 -4.35631e-06 0)
(-1.03101e-06 -4.54902e-06 0)
(-1.07968e-06 -4.74311e-06 0)
(-1.12914e-06 -4.93888e-06 0)
(-1.17947e-06 -5.13663e-06 0)
(-1.23075e-06 -5.33659e-06 0)
(-1.28303e-06 -5.53892e-06 0)
(-1.33632e-06 -5.74364e-06 0)
(-1.39055e-06 -5.95044e-06 0)
(-1.44558e-06 -6.15869e-06 0)
(-1.50112e-06 -6.36736e-06 0)
(-1.55682e-06 -6.57498e-06 0)
(-1.61227e-06 -6.77998e-06 0)
(-1.6671e-06 -6.98098e-06 0)
(-1.7211e-06 -7.1772e-06 0)
(-1.77429e-06 -7.36863e-06 0)
(-1.82706e-06 -7.55668e-06 0)
(-1.88027e-06 -7.74439e-06 0)
(-1.9353e-06 -7.93653e-06 0)
(-1.99422e-06 -8.1403e-06 0)
(-2.05996e-06 -8.3657e-06 0)
(-2.13635e-06 -8.62586e-06 0)
(-2.22792e-06 -8.93649e-06 0)
(-2.33845e-06 -9.31113e-06 0)
(-2.46734e-06 -9.74912e-06 0)
(-2.60422e-06 -1.02165e-05 0)
(-2.72753e-06 -1.06388e-05 0)
(-2.81568e-06 -1.09399e-05 0)
(-2.86335e-06 -1.11011e-05 0)
(-2.88248e-06 -1.11647e-05 0)
(-2.88828e-06 -1.11836e-05 0)
(-2.88969e-06 -1.1188e-05 0)
(-2.88999e-06 -1.1189e-05 0)
(-2.89006e-06 -1.11892e-05 0)
(-2.89007e-06 -1.11892e-05 0)
(-2.89008e-06 -1.11892e-05 0)
(-2.89008e-06 -1.11892e-05 0)
(-2.89008e-06 -1.11892e-05 0)
(-2.89008e-06 -1.11892e-05 0)
(-2.89008e-06 -1.11892e-05 0)
(-2.89008e-06 -1.11892e-05 0)
(-2.89008e-06 -1.11892e-05 0)
(-2.89008e-06 -1.11893e-05 0)
(-2.89008e-06 -1.11893e-05 0)
(-2.89008e-06 -1.11893e-05 0)
(-2.89008e-06 -1.11893e-05 0)
(-2.89009e-06 -1.11893e-05 0)
(-2.89009e-06 -1.11893e-05 0)
(-2.89009e-06 -1.11893e-05 0)
(-2.89009e-06 -1.11893e-05 0)
(-2.89009e-06 -1.11893e-05 0)
(-2.89009e-06 -1.11893e-05 0)
(-2.8901e-06 -1.11893e-05 0)
(-2.8901e-06 -1.11893e-05 0)
(-2.8901e-06 -1.11893e-05 0)
(-2.8901e-06 -1.11893e-05 0)
(-2.8901e-06 -1.11893e-05 0)
(-2.89011e-06 -1.11893e-05 0)
(-2.89011e-06 -1.11893e-05 0)
(-2.89011e-06 -1.11893e-05 0)
(-2.89011e-06 -1.11893e-05 0)
(-2.89011e-06 -1.11893e-05 0)
(-2.89012e-06 -1.11893e-05 0)
(-2.89012e-06 -1.11893e-05 0)
(-2.89012e-06 -1.11893e-05 0)
(-2.89012e-06 -1.11893e-05 0)
(-2.89012e-06 -1.11894e-05 0)
(-2.89013e-06 -1.11894e-05 0)
(-2.89013e-06 -1.11894e-05 0)
(-2.89013e-06 -1.11894e-05 0)
(-2.89013e-06 -1.11894e-05 0)
(-2.89013e-06 -1.11894e-05 0)
(-2.89014e-06 -1.11894e-05 0)
(-2.89014e-06 -1.11894e-05 0)
(-2.89014e-06 -1.11894e-05 0)
(-2.89014e-06 -1.11894e-05 0)
(-2.89015e-06 -1.11894e-05 0)
(-2.89015e-06 -1.11894e-05 0)
(-2.89015e-06 -1.11894e-05 0)
(-2.89016e-06 -1.11894e-05 0)
(-2.89016e-06 -1.11894e-05 0)
(-2.89016e-06 -1.11894e-05 0)
(-2.89016e-06 -1.11894e-05 0)
(-2.89017e-06 -1.11894e-05 0)
(-2.89017e-06 -1.11895e-05 0)
(-2.89017e-06 -1.11895e-05 0)
(-2.89018e-06 -1.11895e-05 0)
(-2.89018e-06 -1.11895e-05 0)
(-2.89018e-06 -1.11895e-05 0)
(-2.89019e-06 -1.11895e-05 0)
(-2.89019e-06 -1.11895e-05 0)
(-2.89019e-06 -1.11895e-05 0)
(-2.8902e-06 -1.11895e-05 0)
(-2.8902e-06 -1.11895e-05 0)
(-2.8902e-06 -1.11895e-05 0)
(-2.89021e-06 -1.11895e-05 0)
(-2.89021e-06 -1.11895e-05 0)
(-2.89021e-06 -1.11895e-05 0)
(-2.89022e-06 -1.11895e-05 0)
(-2.89022e-06 -1.11895e-05 0)
(-2.89022e-06 -1.11895e-05 0)
(-2.89023e-06 -1.11896e-05 0)
(-2.89023e-06 -1.11896e-05 0)
(-2.89024e-06 -1.11896e-05 0)
(-2.89024e-06 -1.11896e-05 0)
(-2.89025e-06 -1.11896e-05 0)
(-2.89025e-06 -1.11896e-05 0)
(-2.89025e-06 -1.11896e-05 0)
(-2.89026e-06 -1.11896e-05 0)
(-2.89026e-06 -1.11896e-05 0)
(-2.89027e-06 -1.11896e-05 0)
(-2.89027e-06 -1.11896e-05 0)
(-2.89027e-06 -1.11896e-05 0)
(-2.89028e-06 -1.11896e-05 0)
(-2.89028e-06 -1.11896e-05 0)
(-2.89028e-06 -1.11896e-05 0)
(-2.89029e-06 -1.11896e-05 0)
(-2.89029e-06 -1.11896e-05 0)
(-2.89029e-06 -1.11896e-05 0)
(-2.89029e-06 -1.11896e-05 0)
(-2.89029e-06 -1.11896e-05 0)
(-2.89029e-06 -1.11896e-05 0)
(-2.89029e-06 -1.11896e-05 0)
(-4.50549e-06 -1.13792e-05 0)
(-0.0702051 -0.000371362 0)
(-0.167794 -0.000389869 0)
(-0.243827 -0.000493846 0)
(-0.304558 -0.000547349 0)
(-0.354406 -0.000590953 0)
(-0.396207 -0.000622849 0)
(-0.431875 -0.000642584 0)
(-0.462765 -0.000649354 0)
(-0.489875 -0.00064274 0)
(-0.51395 -0.000622629 0)
(-0.535556 -0.000589166 0)
(-0.555126 -0.000542696 0)
(-0.572992 -0.000483691 0)
(-0.589417 -0.000412689 0)
(-0.604606 -0.00033025 0)
(-0.618724 -0.000236926 0)
(-0.631902 -0.000133249 0)
(-0.644248 -1.97203e-05 0)
(-0.65585 0.000103191 0)
(-0.66678 0.000235042 0)
(-0.677099 0.000375418 0)
(-0.686856 0.000523923 0)
(-0.696094 0.000680182 0)
(-0.704849 0.000843832 0)
(-0.713152 0.00101452 0)
(-0.721027 0.00119192 0)
(-0.728498 0.00137567 0)
(-0.735583 0.00156547 0)
(-0.7423 0.00176096 0)
(-0.748663 0.00196183 0)
(-0.754685 0.00216772 0)
(-0.760377 0.00237829 0)
(-0.765751 0.00259315 0)
(-0.770816 0.0028119 0)
(-0.775581 0.00303411 0)
(-0.780054 0.00325918 0)
(-0.784243 0.00348628 0)
(-0.788157 0.00371412 0)
(-0.791804 0.00394074 0)
(-0.795193 0.00416337 0)
(-0.798332 0.00437848 0)
(-0.801232 0.00458211 0)
(-0.803904 0.00477047 0)
(-0.80636 0.0049405 0)
(-0.808611 0.00509038 0)
(-0.810673 0.00521982 0)
(-0.812557 0.00533021 0)
(-0.814276 0.00542415 0)
(-0.815844 0.00550431 0)
(-0.817273 0.00557227 0)
(-0.818573 0.0056284 0)
(-0.819759 0.00567267 0)
(-0.820841 0.00570556 0)
(-0.821842 0.00572832 0)
(-0.822779 0.00574195 0)
(-0.823657 0.00574771 0)
(-0.824484 0.00574722 0)
(-0.825263 0.0057415 0)
(-0.826002 0.00573132 0)
(-0.826705 0.00571791 0)
(-0.827375 0.00570202 0)
(-0.828018 0.00568397 0)
(-0.828636 0.0056643 0)
(-0.829234 0.00564345 0)
(-0.829814 0.00562163 0)
(-0.830378 0.00559918 0)
(-0.830929 0.00557601 0)
(-0.831469 0.00555214 0)
(-0.831999 0.00552795 0)
(-0.832521 0.00550302 0)
(-0.833038 0.00547706 0)
(-0.833549 0.00545038 0)
(-0.834055 0.00542273 0)
(-0.834558 0.00539382 0)
(-0.835058 0.0053633 0)
(-0.835555 0.00533113 0)
(-0.836048 0.00529734 0)
(-0.83654 0.00526093 0)
(-0.837029 0.0052216 0)
(-0.837515 0.00517912 0)
(-0.837998 0.00513229 0)
(-0.838478 0.00508026 0)
(-0.838953 0.00502214 0)
(-0.839421 0.00495658 0)
(-0.839878 0.00488264 0)
(-0.840329 0.00479109 0)
(-0.840768 0.00467764 0)
(-0.841189 0.00452752 0)
(-0.841716 0.00434863 0)
(-0.907719 -0.00293781 0)
(-0.906509 0.0107998 0)
(-0.904111 -0.0148864 0)
(-0.902286 -0.0396097 0)
(-0.900018 -0.0395913 0)
(-0.89798 -0.0395951 0)
(-0.895901 -0.0395965 0)
(-0.893825 -0.0395977 0)
(-0.891766 -0.0395985 0)
(-0.889746 -0.0395986 0)
(-0.887792 -0.0395977 0)
(-0.885943 -0.0395954 0)
(-0.884257 -0.0395906 0)
(-0.882821 -0.0395792 0)
(-0.882086 -0.039563 0)
(-0.881949 -0.0395522 0)
(-0.881943 -0.0395501 0)
(-0.881943 -0.0395501 0)
(-0.881942 -0.0395501 0)
(-0.881942 -0.0395501 0)
(-0.881942 -0.0395501 0)
(-0.881942 -0.0395501 0)
(-0.881941 -0.0395501 0)
(-0.881941 -0.0395501 0)
(-0.881941 -0.0395501 0)
(-0.881941 -0.0395501 0)
(-0.881941 -0.0395501 0)
(-0.881941 -0.0395501 0)
(-0.881941 -0.0395501 0)
(-0.881941 -0.0395501 0)
(-0.881941 -0.0395501 0)
(-0.881941 -0.0395501 0)
(-0.881941 -0.0395501 0)
(-0.881941 -0.0395501 0)
(-0.881941 -0.0395501 0)
(-0.881941 -0.0395501 0)
(-0.881941 -0.0395501 0)
(-0.881941 -0.0395501 0)
(-0.881941 -0.0395501 0)
(-0.881941 -0.0395501 0)
(-0.881941 -0.0395501 0)
(-0.881941 -0.0395501 0)
(-0.881941 -0.0395501 0)
(-0.881941 -0.0395501 0)
(-0.881941 -0.0395501 0)
(-0.881941 -0.0395501 0)
(-0.881941 -0.0395501 0)
(-0.881941 -0.0395501 0)
(-0.881941 -0.0395501 0)
(-0.881941 -0.0395501 0)
(-0.881941 -0.0395501 0)
(-0.881941 -0.0395501 0)
(-0.881941 -0.0395501 0)
(-0.881941 -0.0395501 0)
(-0.881941 -0.0395501 0)
(-0.881941 -0.0395501 0)
(-0.881941 -0.0395501 0)
(-0.881941 -0.0395501 0)
(-0.881941 -0.0395501 0)
(-0.881941 -0.0395501 0)
(-0.881941 -0.0395501 0)
(-0.881941 -0.0395501 0)
(-0.881941 -0.0395501 0)
(-0.881941 -0.0395501 0)
(-0.881941 -0.0395501 0)
(-0.881941 -0.0395501 0)
(-0.881941 -0.0395501 0)
(-0.881941 -0.0395501 0)
(-0.881941 -0.0395501 0)
(-0.881941 -0.0395501 0)
(-0.881941 -0.0395501 0)
(-0.881941 -0.0395501 0)
(-0.881941 -0.0395501 0)
(-0.881941 -0.0395501 0)
(-0.881941 -0.0395501 0)
(-0.881941 -0.0395501 0)
(-0.881941 -0.0395501 0)
(-0.881941 -0.0395501 0)
(-0.881941 -0.0395501 0)
(-0.881941 -0.0395501 0)
(-0.881941 -0.0395501 0)
(-0.881941 -0.0395501 0)
(-0.881941 -0.0395501 0)
(-0.881941 -0.0395501 0)
(-0.881941 -0.0395501 0)
(-0.881941 -0.0395501 0)
(-0.881941 -0.0395501 0)
(-0.881941 -0.0395501 0)
(-0.881941 -0.0395501 0)
(-0.881941 -0.0395501 0)
(-0.881941 -0.0395501 0)
(-0.881941 -0.0395501 0)
(-0.881941 -0.0395501 0)
(-0.881941 -0.0395501 0)
(-0.881941 -0.0395501 0)
(-0.881941 -0.0395501 0)
(-0.881941 -0.0395501 0)
(-0.881941 -0.0395501 0)
(-0.881941 -0.0395501 0)
(-0.881941 -0.0395501 0)
(-0.881941 -0.0395501 0)
(-0.881941 -0.0395501 0)
(-0.881941 -0.0395501 0)
(-0.881941 -0.0395501 0)
(-0.881941 -0.0395501 0)
(-0.881941 -0.0395501 0)
(-0.881941 -0.0395501 0)
(-0.881941 -0.0395501 0)
(-0.881941 -0.0395501 0)
(-0.881941 -0.0395501 0)
(-0.881941 -0.0395501 0)
(-0.881941 -0.0395501 0)
(-0.881941 -0.0395501 0)
(-0.881941 -0.0395501 0)
(-0.881941 -0.0395501 0)
(-0.881941 -0.0395501 0)
(-0.881941 -0.0395501 0)
(-0.881941 -0.0395501 0)
(-0.881941 -0.0395501 0)
(-0.881941 -0.0395499 0)
(-0.881941 -0.0395414 0)
(-0.881941 -0.039197 0)
(-0.881938 -0.0225005 0)
)
;

boundaryField
{
    inandouthalf11
    {
        type            cyclic;
    }
    inandouthalf12
    {
        type            cyclic;
    }
    inandouthalf21
    {
        type            cyclic;
    }
    inandouthalf22
    {
        type            cyclic;
    }
    inandouthalf31
    {
        type            cyclic;
    }
    inandouthalf32
    {
        type            cyclic;
    }
    inandouthalf41
    {
        type            cyclic;
    }
    inandouthalf42
    {
        type            cyclic;
    }
    top
    {
        type            symmetryPlane;
    }
    walls
    {
        type            fixedValue;
        value           uniform (0 0 0);
    }
    frontAndBackPlanes
    {
        type            empty;
    }
}


// ************************************************************************* //
