/*--------------------------------*- C++ -*----------------------------------*\
| =========                 |                                                 |
| \\      /  F ield         | OpenFOAM: The Open Source CFD Toolbox           |
|  \\    /   O peration     | Version:  2.4.x                                 |
|   \\  /    A nd           | Web:      www.OpenFOAM.org                      |
|    \\/     M anipulation  |                                                 |
\*---------------------------------------------------------------------------*/
FoamFile
{
    version     2.0;
    format      ascii;
    class       volVectorField;
    location    "5.5";
    object      Ub;
}
// * * * * * * * * * * * * * * * * * * * * * * * * * * * * * * * * * * * * * //

dimensions      [0 1 -1 0 0 0 0];

internalField   nonuniform List<vector> 
360
(
(-8.52877e-07 8.80015e-08 0)
(-8.83763e-07 3.29995e-07 0)
(-9.22742e-07 6.23436e-07 0)
(-9.58652e-07 8.91814e-07 0)
(-9.94043e-07 1.15182e-06 0)
(-1.03062e-06 1.41667e-06 0)
(-1.06823e-06 1.68698e-06 0)
(-1.10645e-06 1.96002e-06 0)
(-1.14508e-06 2.23416e-06 0)
(-1.18412e-06 2.50921e-06 0)
(-1.22364e-06 2.78565e-06 0)
(-1.2637e-06 3.0639e-06 0)
(-1.30433e-06 3.34408e-06 0)
(-1.34553e-06 3.62613e-06 0)
(-1.38728e-06 3.90989e-06 0)
(-1.42957e-06 4.19532e-06 0)
(-1.47243e-06 4.48241e-06 0)
(-1.51586e-06 4.77119e-06 0)
(-1.55985e-06 5.06161e-06 0)
(-1.60442e-06 5.35367e-06 0)
(-1.64956e-06 5.64724e-06 0)
(-1.69527e-06 5.9423e-06 0)
(-1.74155e-06 6.23887e-06 0)
(-1.78843e-06 6.53697e-06 0)
(-1.83593e-06 6.83674e-06 0)
(-1.88409e-06 7.13838e-06 0)
(-1.93296e-06 7.44213e-06 0)
(-1.98263e-06 7.74844e-06 0)
(-2.03317e-06 8.05775e-06 0)
(-2.08466e-06 8.37041e-06 0)
(-2.13716e-06 8.68662e-06 0)
(-2.19067e-06 9.0064e-06 0)
(-2.24513e-06 9.32916e-06 0)
(-2.30038e-06 9.65399e-06 0)
(-2.35614e-06 9.9792e-06 0)
(-2.41207e-06 1.03027e-05 0)
(-2.46774e-06 1.0622e-05 0)
(-2.52279e-06 1.09352e-05 0)
(-2.57701e-06 1.12413e-05 0)
(-2.63042e-06 1.15402e-05 0)
(-2.68341e-06 1.18344e-05 0)
(-2.73684e-06 1.21287e-05 0)
(-2.7921e-06 1.24306e-05 0)
(-2.85127e-06 1.27517e-05 0)
(-2.91728e-06 1.31076e-05 0)
(-2.99396e-06 1.35185e-05 0)
(-3.08586e-06 1.40071e-05 0)
(-3.19675e-06 1.45897e-05 0)
(-3.32602e-06 1.5258e-05 0)
(-3.46327e-06 1.59568e-05 0)
(-3.5869e-06 1.65849e-05 0)
(-3.6753e-06 1.70464e-05 0)
(-3.72316e-06 1.73129e-05 0)
(-3.74245e-06 1.74312e-05 0)
(-3.7484e-06 1.74709e-05 0)
(-3.74995e-06 1.74807e-05 0)
(-3.7504e-06 1.74817e-05 0)
(-3.75062e-06 1.74807e-05 0)
(-3.7508e-06 1.74791e-05 0)
(-3.75098e-06 1.74773e-05 0)
(-3.75117e-06 1.74756e-05 0)
(-3.75135e-06 1.74736e-05 0)
(-3.75155e-06 1.74717e-05 0)
(-3.75175e-06 1.74696e-05 0)
(-3.75196e-06 1.74676e-05 0)
(-3.75217e-06 1.74654e-05 0)
(-3.75238e-06 1.74632e-05 0)
(-3.75261e-06 1.7461e-05 0)
(-3.75284e-06 1.74586e-05 0)
(-3.75308e-06 1.74562e-05 0)
(-3.75334e-06 1.74536e-05 0)
(-3.7536e-06 1.7451e-05 0)
(-3.75387e-06 1.74483e-05 0)
(-3.75415e-06 1.74455e-05 0)
(-3.75443e-06 1.74427e-05 0)
(-3.75473e-06 1.74398e-05 0)
(-3.75502e-06 1.74368e-05 0)
(-3.75533e-06 1.74337e-05 0)
(-3.75564e-06 1.74306e-05 0)
(-3.75596e-06 1.74274e-05 0)
(-3.75629e-06 1.74241e-05 0)
(-3.75662e-06 1.74208e-05 0)
(-3.75697e-06 1.74173e-05 0)
(-3.75732e-06 1.74138e-05 0)
(-3.75768e-06 1.74102e-05 0)
(-3.75806e-06 1.74065e-05 0)
(-3.75844e-06 1.74027e-05 0)
(-3.75883e-06 1.73988e-05 0)
(-3.75922e-06 1.73949e-05 0)
(-3.75963e-06 1.73908e-05 0)
(-3.76004e-06 1.73867e-05 0)
(-3.76046e-06 1.73825e-05 0)
(-3.7609e-06 1.73782e-05 0)
(-3.76134e-06 1.73738e-05 0)
(-3.7618e-06 1.73693e-05 0)
(-3.76226e-06 1.73647e-05 0)
(-3.76274e-06 1.736e-05 0)
(-3.76323e-06 1.73551e-05 0)
(-3.76373e-06 1.73502e-05 0)
(-3.76424e-06 1.73452e-05 0)
(-3.76476e-06 1.734e-05 0)
(-3.7653e-06 1.73347e-05 0)
(-3.76585e-06 1.73293e-05 0)
(-3.76641e-06 1.73238e-05 0)
(-3.76699e-06 1.73181e-05 0)
(-3.76758e-06 1.73123e-05 0)
(-3.76819e-06 1.73063e-05 0)
(-3.76881e-06 1.73002e-05 0)
(-3.76945e-06 1.72939e-05 0)
(-3.77011e-06 1.72875e-05 0)
(-3.77079e-06 1.72809e-05 0)
(-3.77148e-06 1.72741e-05 0)
(-3.7722e-06 1.72671e-05 0)
(-3.77293e-06 1.72599e-05 0)
(-3.77369e-06 1.72526e-05 0)
(-3.77447e-06 1.7245e-05 0)
(-3.77527e-06 1.72372e-05 0)
(-3.7761e-06 1.72291e-05 0)
(-3.77696e-06 1.72209e-05 0)
(-3.77784e-06 1.72123e-05 0)
(-3.77875e-06 1.72036e-05 0)
(-3.77969e-06 1.71945e-05 0)
(-3.78066e-06 1.71851e-05 0)
(-3.78167e-06 1.71755e-05 0)
(-3.78271e-06 1.71655e-05 0)
(-3.78378e-06 1.71552e-05 0)
(-3.7849e-06 1.71445e-05 0)
(-3.78606e-06 1.71334e-05 0)
(-3.78726e-06 1.71219e-05 0)
(-3.78852e-06 1.711e-05 0)
(-3.78982e-06 1.70976e-05 0)
(-3.79119e-06 1.70847e-05 0)
(-3.79261e-06 1.70711e-05 0)
(-3.79411e-06 1.70568e-05 0)
(-3.79571e-06 1.70418e-05 0)
(-3.7974e-06 1.70261e-05 0)
(-3.79917e-06 1.70093e-05 0)
(-3.80106e-06 1.6991e-05 0)
(-3.80316e-06 1.69708e-05 0)
(-3.80556e-06 1.69492e-05 0)
(-3.80818e-06 1.69274e-05 0)
(-3.81067e-06 1.69003e-05 0)
(-3.81365e-06 1.68703e-05 0)
(-3.81753e-06 1.68349e-05 0)
(-3.82234e-06 1.67723e-05 0)
(-3.83155e-06 1.6979e-05 0)
(-4.47915e-06 1.09072e-05 0)
(-0.000484465 3.79578e-05 0)
(-0.0780824 0.00022383 0)
(-0.177106 9.68711e-05 0)
(-0.251412 0.000116447 0)
(-0.31069 9.55139e-05 0)
(-0.359561 7.99204e-05 0)
(-0.400729 6.56325e-05 0)
(-0.43601 5.28911e-05 0)
(-0.466696 4.19086e-05 0)
(-0.493739 3.27163e-05 0)
(-0.517851 2.51743e-05 0)
(-0.539573 1.90676e-05 0)
(-0.559324 1.41675e-05 0)
(-0.577426 1.0261e-05 0)
(-0.594137 7.1623e-06 0)
(-0.609658 4.7157e-06 0)
(-0.624155 2.79322e-06 0)
(-0.637759 1.29111e-06 0)
(-0.650581 1.25814e-07 0)
(-0.662711 -7.69704e-07 0)
(-0.674225 -1.44919e-06 0)
(-0.685187 -1.95574e-06 0)
(-0.695651 -2.32394e-06 0)
(-0.705663 -2.58158e-06 0)
(-0.715262 -2.75104e-06 0)
(-0.724484 -2.85039e-06 0)
(-0.733357 -2.8942e-06 0)
(-0.741909 -2.89427e-06 0)
(-0.75016 -2.86015e-06 0)
(-0.758132 -2.79958e-06 0)
(-0.765842 -2.71882e-06 0)
(-0.773304 -2.62293e-06 0)
(-0.780533 -2.51601e-06 0)
(-0.78754 -2.40136e-06 0)
(-0.794336 -2.28163e-06 0)
(-0.800931 -2.1589e-06 0)
(-0.807331 -2.0347e-06 0)
(-0.813545 -1.91004e-06 0)
(-0.819578 -1.78536e-06 0)
(-0.825435 -1.66064e-06 0)
(-0.831122 -1.53558e-06 0)
(-0.836641 -1.41e-06 0)
(-0.841996 -1.28419e-06 0)
(-0.84719 -1.15922e-06 0)
(-0.852223 -1.03688e-06 0)
(-0.857097 -9.19466e-07 0)
(-0.861813 -8.09403e-07 0)
(-0.866371 -7.08723e-07 0)
(-0.870771 -6.18343e-07 0)
(-0.875012 -5.37767e-07 0)
(-0.879092 -4.65658e-07 0)
(-0.883012 -4.00845e-07 0)
(-0.886768 -3.42895e-07 0)
(-0.89036 -2.91819e-07 0)
(-0.89382 -2.47055e-07 0)
(-0.897172 -2.08148e-07 0)
(-0.900405 -1.74945e-07 0)
(-0.903506 -1.46855e-07 0)
(-0.906463 -1.23083e-07 0)
(-0.909261 -1.03101e-07 0)
(-0.91189 -8.64239e-08 0)
(-0.914335 -7.24349e-08 0)
(-0.916585 -6.06801e-08 0)
(-0.91863 -5.08554e-08 0)
(-0.920463 -4.26388e-08 0)
(-0.922078 -3.57543e-08 0)
(-0.923472 -2.99671e-08 0)
(-0.924645 -2.50871e-08 0)
(-0.925602 -2.09984e-08 0)
(-0.926349 -1.75592e-08 0)
(-0.926893 -1.46379e-08 0)
(-0.927245 -1.21832e-08 0)
(-0.927414 -1.01325e-08 0)
(-0.927411 -8.40278e-09 0)
(-0.927246 -6.94235e-09 0)
(-0.92693 -5.71845e-09 0)
(-0.92647 -4.69905e-09 0)
(-0.925875 -3.84325e-09 0)
(-0.925151 -3.12254e-09 0)
(-0.924306 -2.5244e-09 0)
(-0.923345 -2.02819e-09 0)
(-0.922273 -1.61573e-09 0)
(-0.921096 -1.27734e-09 0)
(-0.919818 -1.00239e-09 0)
(-0.918444 -7.79399e-10 0)
(-0.916979 -5.93601e-10 0)
(-0.915429 -4.36845e-10 0)
(-0.913797 -3.15547e-10 0)
(-0.912089 -2.96428e-10 0)
(-0.910311 -1.45523e-10 0)
(-0.908468 -4.29914e-11 0)
(-0.906566 -5.10705e-11 0)
(-0.904612 2.55856e-11 0)
(-0.902612 -5.20077e-12 0)
(-0.900577 -2.50879e-12 0)
(-0.898514 -5.90323e-13 0)
(-0.896434 -1.45159e-11 0)
(-0.894351 4.22271e-11 0)
(-0.892281 -9.76777e-11 0)
(-0.890243 1.74534e-10 0)
(-0.888264 -2.84116e-10 0)
(-0.886379 4.1723e-10 0)
(-0.884643 -5.80777e-10 0)
(-0.883136 7.62164e-10 0)
(-0.882168 -9.63794e-10 0)
(-0.881968 1.17208e-09 0)
(-0.88196 -1.39077e-09 0)
(-0.881959 1.61152e-09 0)
(-0.881959 -1.84102e-09 0)
(-0.881959 2.0731e-09 0)
(-0.881958 -2.31394e-09 0)
(-0.881958 2.55814e-09 0)
(-0.881958 -2.81113e-09 0)
(-0.881958 3.06826e-09 0)
(-0.881958 -3.3342e-09 0)
(-0.881958 3.60505e-09 0)
(-0.881958 -3.8847e-09 0)
(-0.881958 4.16998e-09 0)
(-0.881958 -4.46407e-09 0)
(-0.881958 4.76444e-09 0)
(-0.881958 -5.07365e-09 0)
(-0.881958 5.38973e-09 0)
(-0.881958 -5.7147e-09 0)
(-0.881958 6.04706e-09 0)
(-0.881958 -6.38837e-09 0)
(-0.881958 6.73757e-09 0)
(-0.881958 -7.09578e-09 0)
(-0.881958 7.46234e-09 0)
(-0.881958 -7.83798e-09 0)
(-0.881958 8.2224e-09 0)
(-0.881958 -8.61598e-09 0)
(-0.881958 9.01874e-09 0)
(-0.881958 -9.43078e-09 0)
(-0.881958 9.85236e-09 0)
(-0.881958 -1.02833e-08 0)
(-0.881958 1.07242e-08 0)
(-0.881958 -1.11745e-08 0)
(-0.881958 1.16351e-08 0)
(-0.881958 -1.21053e-08 0)
(-0.881958 1.25859e-08 0)
(-0.881958 -1.30764e-08 0)
(-0.881958 1.35775e-08 0)
(-0.881958 -1.40886e-08 0)
(-0.881958 1.46106e-08 0)
(-0.881958 -1.51429e-08 0)
(-0.881958 1.56861e-08 0)
(-0.881958 -1.62398e-08 0)
(-0.881958 1.68046e-08 0)
(-0.881958 -1.73802e-08 0)
(-0.881958 1.79669e-08 0)
(-0.881958 -1.85646e-08 0)
(-0.881958 1.91737e-08 0)
(-0.881958 -1.97938e-08 0)
(-0.881958 2.04255e-08 0)
(-0.881958 -2.10684e-08 0)
(-0.881958 2.1723e-08 0)
(-0.881958 -2.23888e-08 0)
(-0.881958 2.30664e-08 0)
(-0.881958 -2.37553e-08 0)
(-0.881958 2.44562e-08 0)
(-0.881958 -2.51684e-08 0)
(-0.881958 2.58926e-08 0)
(-0.881958 -2.66282e-08 0)
(-0.881958 2.40294e-08 0)
(-0.881958 -2.42319e-08 0)
(-0.881958 2.44324e-08 0)
(-0.881958 -2.46305e-08 0)
(-0.881958 2.48266e-08 0)
(-0.881958 -2.50202e-08 0)
(-0.881958 2.52116e-08 0)
(-0.881958 -2.54006e-08 0)
(-0.881958 2.55874e-08 0)
(-0.881958 -2.57717e-08 0)
(-0.881958 2.59538e-08 0)
(-0.881958 -2.61333e-08 0)
(-0.881958 2.63105e-08 0)
(-0.881958 -2.64851e-08 0)
(-0.881958 2.66573e-08 0)
(-0.881958 -2.68269e-08 0)
(-0.881958 2.6994e-08 0)
(-0.881958 -2.71585e-08 0)
(-0.881958 2.73202e-08 0)
(-0.881958 -2.74795e-08 0)
(-0.881958 2.76358e-08 0)
(-0.881958 -2.77898e-08 0)
(-0.881958 2.79405e-08 0)
(-0.881958 -2.80889e-08 0)
(-0.881958 2.82337e-08 0)
(-0.881958 -2.83765e-08 0)
(-0.881958 2.85153e-08 0)
(-0.881958 -2.86521e-08 0)
(-0.881958 2.87846e-08 0)
(-0.881958 -2.89152e-08 0)
(-0.881958 2.90413e-08 0)
(-0.881958 -2.91653e-08 0)
(-0.881958 2.92846e-08 0)
(-0.881958 -2.94016e-08 0)
(-0.881958 2.95139e-08 0)
(-0.881958 -2.96234e-08 0)
(-0.881958 2.97282e-08 0)
(-0.881958 -2.98297e-08 0)
(-0.881958 2.99266e-08 0)
(-0.881958 -3.00194e-08 0)
(-0.881958 3.01078e-08 0)
(-0.881958 -3.01909e-08 0)
(-0.881958 3.027e-08 0)
(-0.881958 -3.03421e-08 0)
(-0.881958 3.04107e-08 0)
(-0.881958 -3.04699e-08 0)
(-0.881958 3.05261e-08 0)
(-0.881958 -3.05691e-08 0)
(-0.881958 3.06087e-08 0)
(-0.881958 -3.06293e-08 0)
)
;

boundaryField
{
    inandouthalf11
    {
        type            cyclic;
    }
    inandouthalf12
    {
        type            cyclic;
    }
    inandouthalf21
    {
        type            cyclic;
    }
    inandouthalf22
    {
        type            cyclic;
    }
    inandouthalf31
    {
        type            cyclic;
    }
    inandouthalf32
    {
        type            cyclic;
    }
    inandouthalf41
    {
        type            cyclic;
    }
    inandouthalf42
    {
        type            cyclic;
    }
    top
    {
        type            symmetryPlane;
    }
    walls
    {
        type            fixedValue;
        value           uniform (0 0 0);
    }
    frontAndBackPlanes
    {
        type            empty;
    }
}


// ************************************************************************* //
