/*--------------------------------*- C++ -*----------------------------------*\
| =========                 |                                                 |
| \\      /  F ield         | OpenFOAM: The Open Source CFD Toolbox           |
|  \\    /   O peration     | Version:  2.4.x                                 |
|   \\  /    A nd           | Web:      www.OpenFOAM.org                      |
|    \\/     M anipulation  |                                                 |
\*---------------------------------------------------------------------------*/
FoamFile
{
    version     2.0;
    format      ascii;
    class       volScalarField;
    location    "4.2";
    object      alpha;
}
// * * * * * * * * * * * * * * * * * * * * * * * * * * * * * * * * * * * * * //

dimensions      [0 0 0 0 0 0 0];

internalField   nonuniform List<scalar> 
360
(
0.610392
0.610937
0.61109
0.61105
0.611
0.610968
0.610941
0.610914
0.610888
0.610862
0.610834
0.610805
0.610776
0.610747
0.610717
0.610688
0.610657
0.610627
0.610596
0.610565
0.610535
0.610504
0.610474
0.610445
0.610415
0.610385
0.610354
0.61032
0.610282
0.610238
0.610187
0.610131
0.610078
0.610034
0.610005
0.609989
0.60998
0.609973
0.609967
0.609961
0.609954
0.609947
0.60994
0.609931
0.609922
0.609912
0.609902
0.609891
0.609879
0.609866
0.609852
0.609837
0.609822
0.609804
0.609787
0.609767
0.609747
0.609725
0.609702
0.609679
0.609653
0.609627
0.6096
0.609573
0.609544
0.609515
0.609485
0.609454
0.609422
0.60939
0.609355
0.609319
0.609282
0.609244
0.609205
0.609164
0.609124
0.609082
0.609039
0.608996
0.608951
0.608905
0.608858
0.60881
0.60876
0.608709
0.608657
0.608604
0.60855
0.608495
0.608438
0.608381
0.608322
0.608261
0.608199
0.608136
0.608071
0.608005
0.607937
0.607868
0.607797
0.607724
0.60765
0.607573
0.607495
0.607415
0.607333
0.607249
0.607162
0.607073
0.606982
0.606888
0.606792
0.606693
0.606591
0.606486
0.606378
0.606267
0.606153
0.606035
0.605913
0.605787
0.605657
0.605523
0.605384
0.605241
0.605092
0.604938
0.604778
0.604612
0.604439
0.604259
0.604071
0.603873
0.603663
0.60344
0.603207
0.602959
0.602685
0.602371
0.60203
0.601706
0.601321
0.600822
0.60021
0.59918
0.59655
0.55173
0.322666
0.234129
0.19163
0.159232
0.131753
0.107839
0.08717
0.0696253
0.0550336
0.0431255
0.033559
0.0259684
0.0200012
0.015343
0.0117258
0.00892899
0.00677435
0.00511951
0.00385076
0.00287712
0.00212895
0.00155885
0.00113637
0.000835503
0.000627618
0.000484814
0.000385073
0.000313402
0.000260258
0.000219655
0.000187775
0.000162112
0.000140965
0.000123144
0.000107784
9.42429e-05
8.20318e-05
7.07905e-05
6.03066e-05
5.05863e-05
4.1904e-05
3.46706e-05
2.90652e-05
2.47825e-05
2.12759e-05
1.82243e-05
1.5626e-05
1.34965e-05
1.17133e-05
1.01648e-05
8.8334e-06
7.71775e-06
6.78438e-06
5.95431e-06
5.1796e-06
4.51062e-06
3.98174e-06
3.50579e-06
3.01834e-06
2.60091e-06
2.301e-06
2.00675e-06
1.70706e-06
1.48315e-06
1.29487e-06
1.10058e-06
9.47872e-07
8.26641e-07
6.94506e-07
5.8373e-07
5.11274e-07
4.32444e-07
3.52798e-07
3.02133e-07
2.52847e-07
2.0697e-07
1.74775e-07
1.40631e-07
1.13874e-07
9.5994e-08
7.3764e-08
5.79377e-08
4.66816e-08
3.6714e-08
3.2667e-08
2.98361e-08
2.53495e-08
1.73535e-08
5.36903e-09
7.61573e-15
1.67788e-16
1.59409e-16
1.47951e-16
1.25825e-16
9.45151e-17
6.08264e-17
4.2276e-17
3.54276e-17
3.2239e-17
3.03414e-17
2.80107e-17
2.39506e-17
1.77017e-17
9.97171e-18
5.10274e-18
3.35117e-18
2.56204e-18
2.12818e-18
1.68106e-18
9.82534e-19
3.36482e-19
1.2612e-19
5.6937e-20
2.95103e-20
1.68357e-20
1.04671e-20
7.02139e-21
4.7181e-21
2.81466e-21
1.33183e-21
6.63833e-22
3.61193e-22
2.0841e-22
1.21938e-22
6.15904e-23
2.93593e-23
1.47556e-23
7.38433e-24
3.62841e-24
1.74477e-24
8.19993e-25
3.76248e-25
1.68369e-25
7.33964e-26
3.11309e-26
1.28308e-26
5.1318e-27
1.98883e-27
7.45672e-28
2.7001e-28
9.42498e-29
3.16496e-29
1.02017e-29
3.14867e-30
9.2799e-31
2.60376e-31
6.93133e-32
1.74385e-32
4.12821e-33
9.1488e-34
1.88686e-34
3.59624e-35
6.28112e-36
9.95045e-37
1.41149e-37
1.76339e-38
1.89764e-39
1.70489e-40
1.21949e-41
6.40419e-43
2.08016e-44
2.15783e-46
3.35009e-49
5.25649e-51
4.09253e-53
6.54686e-64
5.29791e-75
3.25429e-86
1.46157e-97
5.81172e-109
1.92108e-120
7.35686e-132
4.57653e-140
1.15032e-150
1.57643e-158
3.72965e-169
5.42317e-177
1.60004e-187
1.86525e-195
7.21073e-206
6.42056e-214
4.9036e-224
2.23092e-232
3.27058e-242
7.86671e-251
1.64917e-260
2.81396e-269
7.80978e-279
1.02064e-287
3.44304e-297
3.75945e-306
1.47655e-315
3.81913e-321
7.09478e-321
6.08689e-321
8.5424e-321
0
0
0
0
0
0
0
0
0
0
0
0
0
0
0
0
)
;

boundaryField
{
    inandouthalf11
    {
        type            cyclic;
    }
    inandouthalf12
    {
        type            cyclic;
    }
    inandouthalf21
    {
        type            cyclic;
    }
    inandouthalf22
    {
        type            cyclic;
    }
    inandouthalf31
    {
        type            cyclic;
    }
    inandouthalf32
    {
        type            cyclic;
    }
    inandouthalf41
    {
        type            cyclic;
    }
    inandouthalf42
    {
        type            cyclic;
    }
    top
    {
        type            symmetryPlane;
    }
    walls
    {
        type            zeroGradient;
    }
    frontAndBackPlanes
    {
        type            empty;
    }
}


// ************************************************************************* //
