/*--------------------------------*- C++ -*----------------------------------*\
| =========                 |                                                 |
| \\      /  F ield         | OpenFOAM: The Open Source CFD Toolbox           |
|  \\    /   O peration     | Version:  2.4.x                                 |
|   \\  /    A nd           | Web:      www.OpenFOAM.org                      |
|    \\/     M anipulation  |                                                 |
\*---------------------------------------------------------------------------*/
FoamFile
{
    version     2.0;
    format      ascii;
    class       volScalarField;
    location    "4.2";
    object      ddt0(((1.5*(alpha+1e-08))*rho),Theta);
}
// * * * * * * * * * * * * * * * * * * * * * * * * * * * * * * * * * * * * * //

dimensions      [1 -1 -3 0 0 0 0];

internalField   nonuniform List<scalar> 
360
(
-3.23781e-20
-1.54358e-19
-1.51148e-19
-1.16809e-19
-1.08096e-19
-1.11248e-19
-1.17666e-19
-1.22819e-19
-1.2514e-19
-1.26137e-19
-1.27986e-19
-1.3152e-19
-1.36118e-19
-1.40208e-19
-1.41915e-19
-1.39377e-19
-1.30813e-19
-1.1504e-19
-9.2536e-20
-6.63532e-20
-4.24775e-20
-2.8994e-20
-3.42497e-20
-6.59172e-20
-1.32419e-19
-2.4714e-19
-4.34331e-19
-7.28842e-19
-1.1384e-18
-1.49296e-18
-1.19288e-18
4.22453e-19
2.33396e-18
2.36573e-18
1.05517e-18
2.31853e-19
2.81469e-20
2.33133e-21
1.75765e-22
1.30605e-23
-1.93974e-24
-4.02546e-24
-4.58241e-24
-4.9547e-24
-5.367e-24
-5.82438e-24
-6.23517e-24
-6.49552e-24
-6.56912e-24
-6.49613e-24
-6.3587e-24
-6.23248e-24
-6.15881e-24
-6.14899e-24
-6.20072e-24
-6.30531e-24
-6.4528e-24
-6.63436e-24
-6.83801e-24
-7.05491e-24
-7.27391e-24
-7.48007e-24
-7.66142e-24
-7.80982e-24
-7.92606e-24
-8.02152e-24
-8.1136e-24
-8.21938e-24
-8.35452e-24
-8.53555e-24
-8.77503e-24
-9.07046e-24
-9.41378e-24
-9.79682e-24
-1.02037e-23
-1.0612e-23
-1.10014e-23
-1.13641e-23
-1.17033e-23
-1.20272e-23
-1.23498e-23
-1.2689e-23
-1.30579e-23
-1.34619e-23
-1.38988e-23
-1.43592e-23
-1.48285e-23
-1.52896e-23
-1.57294e-23
-1.6141e-23
-1.65228e-23
-1.68789e-23
-1.72168e-23
-1.75434e-23
-1.78632e-23
-1.81776e-23
-1.84853e-23
-1.87827e-23
-1.90659e-23
-2.00107e-23
0
0
0
0
0
0
0
0
0
0
0
0
0
0
0
-2.02082e-23
-2.01757e-23
-2.01731e-23
-2.02066e-23
-2.02798e-23
-2.03902e-23
-2.05283e-23
-2.06745e-23
-2.07988e-23
-2.08621e-23
-2.08191e-23
-2.06244e-23
-2.02359e-23
-1.96198e-23
-1.87564e-23
-1.76566e-23
-1.6387e-23
-5.17432e-22
-9.79682e-17
1.17664e-16
2.21097e-15
2.03375e-14
1.91665e-13
1.983e-12
2.33108e-11
3.20004e-10
5.20599e-09
1.0074e-07
2.36831e-06
0.000110124
0.00813231
0.176226
2.21423
3.78908
1.55304
0.982194
0.808582
0.708946
0.626501
0.554543
0.491965
0.436518
0.385409
0.337375
0.291036
0.246769
0.205212
0.167152
0.133242
0.103891
0.0792183
0.0590676
0.0430577
0.0306908
0.0214682
0.0148949
0.0104182
0.00745245
0.00548895
0.00416181
0.00323703
0.00257188
0.00207936
0.00170516
0.00141428
0.0011834
0.000996511
0.000842295
0.00071255
0.000601239
0.000503954
0.000417813
0.000341725
0.0002765
0.000223807
0.000183792
0.000153675
0.000129489
0.000108947
9.1812e-05
7.79801e-05
6.65785e-05
5.6858e-05
4.86376e-05
4.18379e-05
3.62145e-05
3.12948e-05
2.6798e-05
2.29621e-05
1.99365e-05
1.72576e-05
1.46018e-05
1.23588e-05
1.0732e-05
9.18146e-06
7.65721e-06
6.51658e-06
5.56788e-06
4.62813e-06
3.8938e-06
3.31315e-06
2.71387e-06
2.2212e-06
1.89049e-06
1.55239e-06
1.22873e-06
1.01782e-06
8.22867e-07
6.49963e-07
5.2765e-07
4.08234e-07
3.16949e-07
2.54436e-07
1.87199e-07
1.40001e-07
1.0638e-07
7.85309e-08
6.27495e-08
4.94231e-08
3.47291e-08
1.85373e-08
0
0
0
0
0
0
0
0
0
0
0
0
0
0
0
0
0
0
0
0
0
0
0
0
0
0
0
0
0
0
0
0
0
0
0
0
0
0
0
0
0
0
0
0
0
0
0
0
0
0
0
0
0
0
0
0
0
0
0
0
0
0
0
0
0
0
0
0
0
0
0
0
0
0
0
0
0
0
0
0
0
0
0
0
0
0
0
0
0
0
0
0
0
0
0
0
0
0
0
0
0
0
0
0
0
0
0
0
0
0
0
0
0
0
0
0
0
0
0
0
0
0
0
0
)
;

boundaryField
{
    inandouthalf11
    {
        type            cyclic;
    }
    inandouthalf12
    {
        type            cyclic;
    }
    inandouthalf21
    {
        type            cyclic;
    }
    inandouthalf22
    {
        type            cyclic;
    }
    inandouthalf31
    {
        type            cyclic;
    }
    inandouthalf32
    {
        type            cyclic;
    }
    inandouthalf41
    {
        type            cyclic;
    }
    inandouthalf42
    {
        type            cyclic;
    }
    top
    {
        type            symmetryPlane;
    }
    walls
    {
        type            calculated;
        value           uniform -3.23781e-20;
    }
    frontAndBackPlanes
    {
        type            empty;
    }
}


// ************************************************************************* //
