/*--------------------------------*- C++ -*----------------------------------*\
| =========                 |                                                 |
| \\      /  F ield         | OpenFOAM: The Open Source CFD Toolbox           |
|  \\    /   O peration     | Version:  2.4.x                                 |
|   \\  /    A nd           | Web:      www.OpenFOAM.org                      |
|    \\/     M anipulation  |                                                 |
\*---------------------------------------------------------------------------*/
FoamFile
{
    version     2.0;
    format      ascii;
    class       surfaceScalarField;
    location    "4.2";
    object      ddt0(phia);
}
// * * * * * * * * * * * * * * * * * * * * * * * * * * * * * * * * * * * * * //

dimensions      [0 3 -2 0 0 0 0];

internalField   nonuniform List<scalar> 
359
(
3.27168e-13
1.08631e-12
1.86729e-12
2.55902e-12
3.1993e-12
3.83711e-12
4.49484e-12
5.17084e-12
5.85358e-12
6.53785e-12
7.22667e-12
7.92596e-12
8.63941e-12
9.36305e-12
1.00845e-11
1.07831e-11
1.14306e-11
1.1995e-11
1.24471e-11
1.27724e-11
1.29829e-11
1.31293e-11
1.33048e-11
1.36436e-11
1.4317e-11
1.55299e-11
1.75152e-11
2.04939e-11
2.45043e-11
2.89755e-11
3.21217e-11
3.11235e-11
2.44711e-11
1.46647e-11
6.42635e-12
1.95914e-12
2.75915e-13
-2.12291e-13
-3.3715e-13
-3.68732e-13
-3.76435e-13
-3.76958e-13
-3.74463e-13
-3.70019e-13
-3.64002e-13
-3.56788e-13
-3.48908e-13
-3.40952e-13
-3.33358e-13
-3.26334e-13
-3.19881e-13
-3.13845e-13
-3.08029e-13
-3.02235e-13
-2.96312e-13
-2.9014e-13
-2.83652e-13
-2.76805e-13
-2.69589e-13
-2.62022e-13
-2.54124e-13
-2.4595e-13
-2.3755e-13
-2.28988e-13
-2.20313e-13
-2.11557e-13
-2.02726e-13
-1.93803e-13
-1.84753e-13
-1.75526e-13
-1.66056e-13
-1.56285e-13
-1.46178e-13
-1.35697e-13
-1.24836e-13
-1.13601e-13
-1.02025e-13
-9.01371e-14
-7.79678e-14
-6.55353e-14
-5.28491e-14
-3.99011e-14
-2.66745e-14
-1.31507e-14
6.87728e-16
1.48482e-14
2.93292e-14
4.41157e-14
5.91854e-14
7.45129e-14
9.00731e-14
1.05844e-13
1.21811e-13
1.37964e-13
1.54294e-13
1.70797e-13
1.87464e-13
2.04288e-13
2.21257e-13
2.38358e-13
2.55577e-13
2.72898e-13
2.90305e-13
3.0778e-13
3.25307e-13
3.42866e-13
3.60439e-13
3.78007e-13
3.95552e-13
4.13059e-13
4.30511e-13
4.47899e-13
4.65212e-13
4.82448e-13
4.99605e-13
5.1669e-13
5.33711e-13
5.50685e-13
5.67627e-13
5.84558e-13
6.01492e-13
6.18439e-13
6.35397e-13
6.52344e-13
6.69236e-13
6.86005e-13
7.02556e-13
7.18769e-13
7.34503e-13
7.49602e-13
7.639e-13
7.77253e-13
7.89562e-13
8.00803e-13
8.10999e-13
8.20168e-13
8.28302e-13
8.35393e-13
8.41446e-13
8.46398e-13
8.50015e-13
8.51992e-13
8.52829e-13
8.53074e-13
8.52992e-13
8.52258e-13
2.35987e-11
2.44896e-09
1.88009e-10
-8.38458e-11
1.20878e-10
7.36713e-10
1.56849e-09
2.59736e-09
3.66156e-09
4.6229e-09
5.34687e-09
5.72131e-09
5.67272e-09
5.18453e-09
4.3272e-09
3.25861e-09
2.21104e-09
1.47494e-09
1.38877e-09
2.43416e-09
5.4569e-09
1.16899e-08
2.17379e-08
3.39696e-08
4.50309e-08
5.25597e-08
5.63691e-08
5.74e-08
5.6673e-08
5.4955e-08
5.27491e-08
5.03603e-08
4.79664e-08
4.56705e-08
4.35345e-08
4.16022e-08
3.99082e-08
3.84921e-08
3.73883e-08
3.66346e-08
3.62329e-08
3.61459e-08
3.62484e-08
3.63941e-08
3.64682e-08
3.66405e-08
3.68345e-08
3.6946e-08
3.70751e-08
3.71967e-08
3.73417e-08
3.7511e-08
3.76973e-08
3.78823e-08
3.80745e-08
3.82959e-08
3.85467e-08
3.87794e-08
3.89852e-08
3.92237e-08
3.95038e-08
3.97396e-08
3.99355e-08
4.01772e-08
4.04135e-08
4.05828e-08
4.0747e-08
4.0888e-08
4.09339e-08
4.09318e-08
4.08711e-08
4.07174e-08
4.05178e-08
4.03998e-08
4.03383e-08
4.02447e-08
4.02322e-08
4.02689e-08
4.03242e-08
4.04934e-08
4.0686e-08
4.09271e-08
4.13311e-08
4.17772e-08
4.22827e-08
4.28057e-08
4.32785e-08
4.37637e-08
4.42667e-08
4.5275e-08
6.56922e-08
2.82786e-08
-4.61867e-09
-5.08396e-10
-6.61419e-11
-8.90624e-11
-1.01724e-10
-1.01182e-10
-1.01177e-10
-1.01209e-10
-1.01161e-10
-1.012e-10
-1.01152e-10
-1.01193e-10
-1.01145e-10
-1.01189e-10
-1.0114e-10
-1.01187e-10
-1.01137e-10
-1.01186e-10
-1.01134e-10
-1.01186e-10
-1.01132e-10
-1.01186e-10
-1.01131e-10
-1.01187e-10
-1.01129e-10
-1.01187e-10
-1.01128e-10
-1.01188e-10
-1.01127e-10
-1.01189e-10
-1.01127e-10
-1.01189e-10
-1.01126e-10
-1.01189e-10
-1.01126e-10
-1.0119e-10
-1.01125e-10
-1.01191e-10
-1.01124e-10
-1.01191e-10
-1.01124e-10
-1.01192e-10
-1.01123e-10
-1.01192e-10
-1.01123e-10
-1.01192e-10
-1.01123e-10
-1.01193e-10
-1.01122e-10
-1.01193e-10
-1.01122e-10
-1.01193e-10
-1.01123e-10
-1.01192e-10
-1.01123e-10
-1.01192e-10
-1.01124e-10
-1.01191e-10
-1.01124e-10
-1.0119e-10
-1.01125e-10
-1.01189e-10
-1.01126e-10
-1.01188e-10
-1.01127e-10
-1.01187e-10
-1.01129e-10
-1.01185e-10
-1.0113e-10
-1.01184e-10
-1.01132e-10
-1.01182e-10
-1.01134e-10
-1.01181e-10
-1.01135e-10
-1.01179e-10
-1.01137e-10
-1.01178e-10
-1.01138e-10
-1.01176e-10
-1.01139e-10
-1.01175e-10
-1.01141e-10
-1.01174e-10
-1.01142e-10
-1.01172e-10
-1.01143e-10
-1.01171e-10
-1.01145e-10
-1.0117e-10
-1.01146e-10
-1.01169e-10
-1.01147e-10
-1.01168e-10
-1.01148e-10
-1.01167e-10
-1.01149e-10
-1.01166e-10
-1.0115e-10
-1.01164e-10
-1.01151e-10
-1.01163e-10
-1.01152e-10
-1.01162e-10
-1.01153e-10
-1.01161e-10
-1.01154e-10
-1.0116e-10
-1.01155e-10
-1.01159e-10
-1.01156e-10
-1.01158e-10
-1.01158e-10
-1.01157e-10
-1.01157e-10
-1.01157e-10
-1.01157e-10
-1.0117e-10
-1.02926e-10
-2.61143e-10
4.00005e-09
)
;

boundaryField
{
    inandouthalf11
    {
        type            cyclic;
        value           nonuniform List<scalar> 
100
(
-1.37081e-39
-4.30774e-14
-1.07129e-13
-1.65293e-13
-2.17777e-13
-2.68699e-13
-3.20253e-13
-3.72879e-13
-4.26007e-13
-4.79005e-13
-5.31775e-13
-5.84636e-13
-6.37926e-13
-6.9164e-13
-7.45241e-13
-7.97629e-13
-8.47172e-13
-8.91828e-13
-9.29482e-13
-9.58551e-13
-9.78806e-13
-9.92218e-13
-1.00351e-12
-1.02022e-12
-1.05245e-12
-1.11256e-12
-1.21494e-12
-1.3749e-12
-1.60304e-12
-1.88679e-12
-2.15198e-12
-2.23014e-12
-1.93568e-12
-1.29807e-12
-6.32597e-13
-2.13332e-13
-3.88443e-14
1.47721e-14
2.88812e-14
3.25212e-14
3.34705e-14
3.36371e-14
3.34981e-14
3.31712e-14
3.26814e-14
3.20445e-14
3.12943e-14
3.04832e-14
2.96639e-14
2.88723e-14
2.81217e-14
2.74065e-14
2.67099e-14
2.60115e-14
2.52929e-14
2.45384e-14
2.37366e-14
2.28797e-14
2.19633e-14
2.09862e-14
1.99497e-14
1.88574e-14
1.77152e-14
1.65302e-14
1.53098e-14
1.40595e-14
1.27818e-14
1.1476e-14
1.01382e-14
8.76185e-15
7.33803e-15
5.85705e-15
4.31077e-15
2.69289e-15
9.99212e-16
-7.71283e-16
-2.61638e-15
-4.53178e-15
-6.51316e-15
-8.55723e-15
-1.06623e-14
-1.28288e-14
-1.50594e-14
-1.7358e-14
-1.97286e-14
-2.2174e-14
-2.4696e-14
-2.72939e-14
-2.99654e-14
-3.27071e-14
-3.55153e-14
-3.83865e-14
-4.13182e-14
-4.43086e-14
-4.73568e-14
-5.04625e-14
-5.36252e-14
-5.68442e-14
-6.01186e-14
-6.3447e-14
)
;
    }
    inandouthalf12
    {
        type            cyclic;
        value           nonuniform List<scalar> 
100
(
1.37081e-39
4.30774e-14
1.07129e-13
1.65293e-13
2.17777e-13
2.68699e-13
3.20253e-13
3.72879e-13
4.26007e-13
4.79005e-13
5.31775e-13
5.84636e-13
6.37926e-13
6.9164e-13
7.45241e-13
7.97629e-13
8.47172e-13
8.91828e-13
9.29482e-13
9.58551e-13
9.78806e-13
9.92218e-13
1.00351e-12
1.02022e-12
1.05245e-12
1.11256e-12
1.21494e-12
1.3749e-12
1.60304e-12
1.88679e-12
2.15198e-12
2.23014e-12
1.93568e-12
1.29807e-12
6.32597e-13
2.13332e-13
3.88443e-14
-1.47721e-14
-2.88812e-14
-3.25212e-14
-3.34705e-14
-3.36371e-14
-3.34981e-14
-3.31712e-14
-3.26814e-14
-3.20445e-14
-3.12943e-14
-3.04832e-14
-2.96639e-14
-2.88723e-14
-2.81217e-14
-2.74065e-14
-2.67099e-14
-2.60115e-14
-2.52929e-14
-2.45384e-14
-2.37366e-14
-2.28797e-14
-2.19633e-14
-2.09862e-14
-1.99497e-14
-1.88574e-14
-1.77152e-14
-1.65302e-14
-1.53098e-14
-1.40595e-14
-1.27818e-14
-1.1476e-14
-1.01382e-14
-8.76185e-15
-7.33803e-15
-5.85705e-15
-4.31077e-15
-2.69289e-15
-9.99212e-16
7.71283e-16
2.61638e-15
4.53178e-15
6.51316e-15
8.55723e-15
1.06623e-14
1.28288e-14
1.50594e-14
1.7358e-14
1.97286e-14
2.2174e-14
2.4696e-14
2.72939e-14
2.99654e-14
3.27071e-14
3.55153e-14
3.83865e-14
4.13182e-14
4.43086e-14
4.73568e-14
5.04625e-14
5.36252e-14
5.68442e-14
6.01186e-14
6.3447e-14
)
;
    }
    inandouthalf21
    {
        type            cyclic;
        value           nonuniform List<scalar> 
100
(
-6.68276e-14
-7.02586e-14
-7.37376e-14
-7.72623e-14
-8.08304e-14
-8.44393e-14
-8.80861e-14
-9.17683e-14
-9.54832e-14
-9.92285e-14
-1.03002e-13
-1.06802e-13
-1.10629e-13
-1.14482e-13
-1.18363e-13
-1.22274e-13
-1.26221e-13
-1.30208e-13
-1.34243e-13
-1.38335e-13
-1.42492e-13
-1.46725e-13
-1.51041e-13
-1.55445e-13
-1.59939e-13
-1.64516e-13
-1.69166e-13
-1.7387e-13
-1.78601e-13
-1.83322e-13
-1.87992e-13
-1.92566e-13
-1.97005e-13
-2.01287e-13
-2.05409e-13
-2.09373e-13
-2.13178e-13
-2.16823e-13
-2.20297e-13
-2.23539e-13
-2.26356e-13
-2.28472e-13
-2.29794e-13
-2.30504e-13
-2.30867e-13
-2.31133e-13
-2.31591e-13
8.05845e-11
7.8394e-08
3.63806e-08
6.77556e-09
-9.51151e-09
-1.85417e-08
-2.35588e-08
-2.61921e-08
-2.72569e-08
-2.71275e-08
-2.59235e-08
-2.36157e-08
-2.00843e-08
-1.51652e-08
-8.68833e-09
-5.11307e-10
9.44465e-09
2.11595e-08
3.4482e-08
4.91037e-08
6.45363e-08
8.01097e-08
9.50558e-08
1.08731e-07
1.20843e-07
1.31455e-07
1.40806e-07
1.49148e-07
1.56675e-07
1.63525e-07
1.69794e-07
1.75554e-07
1.80861e-07
1.85758e-07
1.90284e-07
1.94469e-07
1.98338e-07
2.01912e-07
2.05203e-07
2.08223e-07
2.1098e-07
2.13488e-07
2.1576e-07
2.17811e-07
2.19653e-07
2.21411e-07
2.23016e-07
2.24471e-07
2.25803e-07
2.27037e-07
2.28197e-07
2.29301e-07
2.30362e-07
)
;
    }
    inandouthalf22
    {
        type            cyclic;
        value           nonuniform List<scalar> 
100
(
6.68276e-14
7.02586e-14
7.37376e-14
7.72623e-14
8.08304e-14
8.44393e-14
8.80861e-14
9.17683e-14
9.54832e-14
9.92285e-14
1.03002e-13
1.06802e-13
1.10629e-13
1.14482e-13
1.18363e-13
1.22274e-13
1.26221e-13
1.30208e-13
1.34243e-13
1.38335e-13
1.42492e-13
1.46725e-13
1.51041e-13
1.55445e-13
1.59939e-13
1.64516e-13
1.69166e-13
1.7387e-13
1.78601e-13
1.83322e-13
1.87992e-13
1.92566e-13
1.97005e-13
2.01287e-13
2.05409e-13
2.09373e-13
2.13178e-13
2.16823e-13
2.20297e-13
2.23539e-13
2.26356e-13
2.28472e-13
2.29794e-13
2.30504e-13
2.30867e-13
2.31133e-13
2.31591e-13
-8.05845e-11
-7.8394e-08
-3.63806e-08
-6.77556e-09
9.51151e-09
1.85417e-08
2.35588e-08
2.61921e-08
2.72569e-08
2.71275e-08
2.59235e-08
2.36157e-08
2.00843e-08
1.51652e-08
8.68833e-09
5.11307e-10
-9.44465e-09
-2.11595e-08
-3.4482e-08
-4.91037e-08
-6.45363e-08
-8.01097e-08
-9.50558e-08
-1.08731e-07
-1.20843e-07
-1.31455e-07
-1.40806e-07
-1.49148e-07
-1.56675e-07
-1.63525e-07
-1.69794e-07
-1.75554e-07
-1.80861e-07
-1.85758e-07
-1.90284e-07
-1.94469e-07
-1.98338e-07
-2.01912e-07
-2.05203e-07
-2.08223e-07
-2.1098e-07
-2.13488e-07
-2.1576e-07
-2.17811e-07
-2.19653e-07
-2.21411e-07
-2.23016e-07
-2.24471e-07
-2.25803e-07
-2.27037e-07
-2.28197e-07
-2.29301e-07
-2.30362e-07
)
;
    }
    inandouthalf31
    {
        type            cyclic;
        value           nonuniform List<scalar> 
110
(
2.31386e-07
2.37104e-07
2.42952e-07
2.48932e-07
2.55036e-07
2.61267e-07
2.6764e-07
2.74161e-07
2.80813e-07
2.87603e-07
2.94557e-07
3.0167e-07
3.08936e-07
3.16378e-07
3.24003e-07
3.31803e-07
3.39816e-07
3.48069e-07
3.56533e-07
3.65232e-07
3.74227e-07
3.8349e-07
3.93015e-07
4.02853e-07
4.12989e-07
4.23454e-07
4.34286e-07
4.45422e-07
4.5695e-07
4.68937e-07
4.81291e-07
4.93981e-07
5.06818e-07
5.19543e-07
5.32091e-07
5.44469e-07
5.57583e-07
7.54374e-07
7.50171e-07
7.33417e-07
7.42678e-07
7.5759e-07
7.72978e-07
7.88666e-07
8.04674e-07
8.21006e-07
8.3767e-07
8.54673e-07
8.7202e-07
8.8972e-07
9.07779e-07
9.26204e-07
9.45003e-07
9.64184e-07
9.83755e-07
1.00372e-06
1.0241e-06
1.04488e-06
1.06609e-06
1.08773e-06
1.10981e-06
1.13233e-06
1.15532e-06
1.17877e-06
1.20269e-06
1.2271e-06
1.25201e-06
1.27742e-06
1.30335e-06
1.32981e-06
1.3568e-06
1.38434e-06
1.41243e-06
1.4411e-06
1.47035e-06
1.5002e-06
1.53065e-06
1.56172e-06
1.59341e-06
1.62576e-06
1.65876e-06
1.69242e-06
1.72678e-06
1.76182e-06
1.79758e-06
1.83407e-06
1.8713e-06
1.90928e-06
1.94803e-06
1.98757e-06
2.02792e-06
2.06908e-06
2.11107e-06
2.15392e-06
2.19764e-06
2.24225e-06
2.28776e-06
2.3342e-06
2.38157e-06
2.42991e-06
2.47923e-06
2.52956e-06
2.5809e-06
2.63328e-06
2.68673e-06
2.74127e-06
2.79691e-06
2.85368e-06
2.9116e-06
2.9707e-06
)
;
    }
    inandouthalf32
    {
        type            cyclic;
        value           nonuniform List<scalar> 
110
(
-2.31386e-07
-2.37104e-07
-2.42952e-07
-2.48932e-07
-2.55036e-07
-2.61267e-07
-2.6764e-07
-2.74161e-07
-2.80813e-07
-2.87603e-07
-2.94557e-07
-3.0167e-07
-3.08936e-07
-3.16378e-07
-3.24003e-07
-3.31803e-07
-3.39816e-07
-3.48069e-07
-3.56533e-07
-3.65232e-07
-3.74227e-07
-3.8349e-07
-3.93015e-07
-4.02853e-07
-4.12989e-07
-4.23454e-07
-4.34286e-07
-4.45422e-07
-4.5695e-07
-4.68937e-07
-4.81291e-07
-4.93981e-07
-5.06818e-07
-5.19543e-07
-5.32091e-07
-5.44469e-07
-5.57583e-07
-7.54374e-07
-7.50171e-07
-7.33417e-07
-7.42678e-07
-7.5759e-07
-7.72978e-07
-7.88666e-07
-8.04674e-07
-8.21006e-07
-8.3767e-07
-8.54673e-07
-8.7202e-07
-8.8972e-07
-9.07779e-07
-9.26204e-07
-9.45003e-07
-9.64184e-07
-9.83755e-07
-1.00372e-06
-1.0241e-06
-1.04488e-06
-1.06609e-06
-1.08773e-06
-1.10981e-06
-1.13233e-06
-1.15532e-06
-1.17877e-06
-1.20269e-06
-1.2271e-06
-1.25201e-06
-1.27742e-06
-1.30335e-06
-1.32981e-06
-1.3568e-06
-1.38434e-06
-1.41243e-06
-1.4411e-06
-1.47035e-06
-1.5002e-06
-1.53065e-06
-1.56172e-06
-1.59341e-06
-1.62576e-06
-1.65876e-06
-1.69242e-06
-1.72678e-06
-1.76182e-06
-1.79758e-06
-1.83407e-06
-1.8713e-06
-1.90928e-06
-1.94803e-06
-1.98757e-06
-2.02792e-06
-2.06908e-06
-2.11107e-06
-2.15392e-06
-2.19764e-06
-2.24225e-06
-2.28776e-06
-2.3342e-06
-2.38157e-06
-2.42991e-06
-2.47923e-06
-2.52956e-06
-2.5809e-06
-2.63328e-06
-2.68673e-06
-2.74127e-06
-2.79691e-06
-2.85368e-06
-2.9116e-06
-2.9707e-06
)
;
    }
    inandouthalf41
    {
        type            cyclic;
        value           nonuniform List<scalar> 
50
(
2.65908e-06
2.65908e-06
2.65908e-06
2.65908e-06
2.65908e-06
2.65908e-06
2.65908e-06
2.65908e-06
2.65908e-06
2.65908e-06
2.65908e-06
2.65908e-06
2.65908e-06
2.65908e-06
2.65908e-06
2.65908e-06
2.65908e-06
2.65908e-06
2.65908e-06
2.65908e-06
2.65908e-06
2.65908e-06
2.65908e-06
2.65908e-06
2.65908e-06
2.65908e-06
2.65908e-06
2.65908e-06
2.65908e-06
2.65908e-06
2.65908e-06
2.65908e-06
2.65908e-06
2.65908e-06
2.65908e-06
2.65908e-06
2.65908e-06
2.65908e-06
2.65908e-06
2.65908e-06
2.65908e-06
2.65908e-06
2.65908e-06
2.65908e-06
2.65908e-06
2.65908e-06
2.65908e-06
2.65908e-06
2.65927e-06
2.66335e-06
)
;
    }
    inandouthalf42
    {
        type            cyclic;
        value           nonuniform List<scalar> 
50
(
-2.65908e-06
-2.65908e-06
-2.65908e-06
-2.65908e-06
-2.65908e-06
-2.65908e-06
-2.65908e-06
-2.65908e-06
-2.65908e-06
-2.65908e-06
-2.65908e-06
-2.65908e-06
-2.65908e-06
-2.65908e-06
-2.65908e-06
-2.65908e-06
-2.65908e-06
-2.65908e-06
-2.65908e-06
-2.65908e-06
-2.65908e-06
-2.65908e-06
-2.65908e-06
-2.65908e-06
-2.65908e-06
-2.65908e-06
-2.65908e-06
-2.65908e-06
-2.65908e-06
-2.65908e-06
-2.65908e-06
-2.65908e-06
-2.65908e-06
-2.65908e-06
-2.65908e-06
-2.65908e-06
-2.65908e-06
-2.65908e-06
-2.65908e-06
-2.65908e-06
-2.65908e-06
-2.65908e-06
-2.65908e-06
-2.65908e-06
-2.65908e-06
-2.65908e-06
-2.65908e-06
-2.65908e-06
-2.65927e-06
-2.66335e-06
)
;
    }
    top
    {
        type            symmetryPlane;
        value           uniform 0;
    }
    walls
    {
        type            calculated;
        value           uniform 0;
    }
    frontAndBackPlanes
    {
        type            empty;
        value           nonuniform 0();
    }
}


// ************************************************************************* //
