/*--------------------------------*- C++ -*----------------------------------*\
| =========                 |                                                 |
| \\      /  F ield         | OpenFOAM: The Open Source CFD Toolbox           |
|  \\    /   O peration     | Version:  2.4.x                                 |
|   \\  /    A nd           | Web:      www.OpenFOAM.org                      |
|    \\/     M anipulation  |                                                 |
\*---------------------------------------------------------------------------*/
FoamFile
{
    version     2.0;
    format      ascii;
    class       volScalarField;
    location    "4.2";
    object      ddt0(alpha);
}
// * * * * * * * * * * * * * * * * * * * * * * * * * * * * * * * * * * * * * //

dimensions      [0 0 -1 0 0 0 0];

internalField   nonuniform List<scalar> 
360
(
0.000193116
0.000358553
0.000340977
0.000311493
0.000306996
0.000314591
0.000322988
0.000328439
0.00033093
0.000332818
0.000335676
0.000339737
0.000344803
0.000350142
0.000355459
0.000360574
0.000365147
0.000368595
0.000370217
0.000369705
0.000366559
0.000361884
0.00035698
0.000354242
0.000356851
0.000368785
0.000394768
0.000440278
0.000508673
0.000595982
0.00067849
0.000705655
0.000622456
0.000437415
0.000234089
9.50389e-05
3.05162e-05
8.57623e-06
2.42816e-06
7.65895e-07
2.69143e-07
1.1904e-07
5.73703e-08
4.56677e-08
7.2244e-08
1.04964e-07
1.54596e-07
1.8943e-07
1.93473e-07
2.049e-07
2.01888e-07
1.79922e-07
1.54492e-07
1.303e-07
9.98524e-08
7.6431e-08
5.91992e-08
3.97957e-08
3.74973e-08
2.27699e-08
1.6648e-08
1.68718e-08
1.37014e-08
1.51481e-08
1.13201e-08
2.0777e-09
-1.28277e-08
-2.55596e-08
-3.48184e-08
-5.11887e-08
-6.79139e-08
-6.37195e-08
-6.20593e-08
-6.15316e-08
-5.51028e-08
-4.57777e-08
-3.57194e-08
-3.50581e-08
-3.79282e-08
-4.12049e-08
-4.80496e-08
-5.81094e-08
-6.5598e-08
-7.13401e-08
-7.49696e-08
-7.71932e-08
-7.83037e-08
-7.93082e-08
-8.33659e-08
-9.03999e-08
-1.00135e-07
-1.13474e-07
-1.29655e-07
-1.47375e-07
-1.66468e-07
-1.8672e-07
-2.08021e-07
-2.30665e-07
-2.55138e-07
-2.81735e-07
-3.10692e-07
-3.42307e-07
-3.76667e-07
-4.13806e-07
-4.53861e-07
-4.96973e-07
-5.43266e-07
-5.92878e-07
-6.45904e-07
-7.02378e-07
-7.6229e-07
-8.25584e-07
-8.92155e-07
-9.61868e-07
-1.03455e-06
-1.11002e-06
-1.18813e-06
-1.26874e-06
-1.35186e-06
-1.43764e-06
-1.52644e-06
-1.61892e-06
-1.71612e-06
-1.81961e-06
-1.9317e-06
-2.0555e-06
-2.19479e-06
-2.35306e-06
-2.53208e-06
-2.73069e-06
-2.94712e-06
-3.18661e-06
-3.46626e-06
-3.79619e-06
-4.14806e-06
-4.48166e-06
-4.83586e-06
-5.36384e-06
-6.18657e-06
-7.01867e-06
-7.22417e-06
-7.83325e-06
-9.88304e-06
-1.2482e-05
-1.84698e-05
-5.07135e-05
-0.00117906
-0.413497
-0.153724
-0.0124291
0.0170826
0.0301902
0.0386973
0.0443021
0.0471833
0.0475749
0.0459584
0.0429196
0.0390278
0.0347663
0.0304747
0.0263768
0.0225971
0.0191905
0.0161704
0.0135401
0.0113094
0.00946101
0.00787346
0.0063505
0.00482123
0.00342479
0.00232569
0.00155679
0.00105088
0.000723254
0.000509221
0.000366816
0.000270225
0.000203659
0.00015732
0.000125018
0.000102763
8.78829e-05
7.8461e-05
7.28199e-05
6.90024e-05
6.4557e-05
5.73219e-05
4.71994e-05
3.68238e-05
2.91635e-05
2.46103e-05
2.12584e-05
1.78245e-05
1.47494e-05
1.25282e-05
1.07967e-05
9.15058e-06
7.64165e-06
6.51066e-06
5.78643e-06
5.07213e-06
4.1232e-06
3.37026e-06
3.1104e-06
2.83295e-06
2.20952e-06
1.7765e-06
1.69659e-06
1.45631e-06
1.12076e-06
9.94223e-07
8.70456e-07
6.70832e-07
5.88429e-07
5.36881e-07
3.97647e-07
3.13758e-07
3.0527e-07
2.43905e-07
1.80533e-07
1.60958e-07
1.27469e-07
1.01898e-07
8.78443e-08
6.30637e-08
5.1533e-08
4.49057e-08
3.09579e-08
2.25341e-08
1.50534e-08
8.65658e-09
6.61166e-09
6.17868e-09
6.47546e-09
5.40736e-09
-2.49375e-13
-3.70581e-16
-3.6441e-16
-5.90845e-16
-9.23765e-16
-1.10474e-15
-9.62832e-16
-3.4389e-16
-1.52146e-16
-8.02702e-17
-6.49143e-17
-9.58201e-17
-1.51677e-16
-2.02057e-16
-2.00229e-16
-7.5617e-17
-3.20472e-17
-1.64399e-17
-1.15394e-17
-1.46516e-17
-1.98915e-17
-8.69348e-18
-2.6829e-18
-9.99215e-19
-4.40566e-19
-2.15825e-19
-1.10086e-19
-6.30899e-20
-4.5155e-20
-3.74459e-20
-2.12883e-20
-9.12039e-21
-4.49627e-21
-2.32993e-21
-1.39908e-21
-9.0008e-22
-3.97977e-22
-1.96253e-22
-9.85378e-23
-4.87755e-23
-2.36421e-23
-1.12016e-23
-5.18204e-24
-2.3381e-24
-1.0277e-24
-4.39523e-25
-1.82661e-25
-7.36651e-26
-2.87864e-26
-1.08826e-26
-3.97331e-27
-1.39842e-27
-4.73479e-28
-1.53878e-28
-4.78846e-29
-1.4229e-29
-4.02525e-30
-1.08036e-30
-2.74046e-31
-6.54102e-32
-1.4616e-32
-3.0395e-33
-5.84161e-34
-1.02891e-34
-1.64392e-35
-2.35223e-36
-2.96481e-37
-3.21981e-38
-2.92049e-39
-2.11033e-40
-1.12078e-41
-3.69045e-43
-3.92928e-45
-6.49274e-48
-1.03101e-49
-8.12232e-52
-1.27236e-62
-1.00928e-73
-6.10663e-85
-2.69386e-96
-1.05965e-107
-3.46721e-119
-1.35061e-130
-9.08355e-139
-2.25541e-149
-3.12864e-157
-7.33309e-168
-1.0763e-175
-3.15336e-186
-3.70181e-194
-1.42451e-204
-1.27423e-212
-9.71938e-223
-4.4275e-231
-6.4885e-241
-1.56125e-249
-3.27319e-259
-5.5846e-268
-1.54979e-277
-2.02559e-286
-6.83319e-296
-7.46118e-305
-2.94784e-314
8.51275e-321
0
0
0
0
0
0
0
0
0
0
0
0
0
0
0
0
0
0
0
)
;

boundaryField
{
    inandouthalf11
    {
        type            cyclic;
    }
    inandouthalf12
    {
        type            cyclic;
    }
    inandouthalf21
    {
        type            cyclic;
    }
    inandouthalf22
    {
        type            cyclic;
    }
    inandouthalf31
    {
        type            cyclic;
    }
    inandouthalf32
    {
        type            cyclic;
    }
    inandouthalf41
    {
        type            cyclic;
    }
    inandouthalf42
    {
        type            cyclic;
    }
    top
    {
        type            symmetryPlane;
    }
    walls
    {
        type            calculated;
        value           uniform 0.000193116;
    }
    frontAndBackPlanes
    {
        type            empty;
    }
}


// ************************************************************************* //
