/*--------------------------------*- C++ -*----------------------------------*\
| =========                 |                                                 |
| \\      /  F ield         | OpenFOAM: The Open Source CFD Toolbox           |
|  \\    /   O peration     | Version:  2.4.x                                 |
|   \\  /    A nd           | Web:      www.OpenFOAM.org                      |
|    \\/     M anipulation  |                                                 |
\*---------------------------------------------------------------------------*/
FoamFile
{
    version     2.0;
    format      ascii;
    class       volScalarField;
    location    "4.2";
    object      mua;
}
// * * * * * * * * * * * * * * * * * * * * * * * * * * * * * * * * * * * * * //

dimensions      [1 -1 -1 0 0 0 0];

internalField   nonuniform List<scalar> 
360
(
486103
280211
314780
346968
343470
330740
319769
312199
307415
303327
298370
292337
285661
278938
272450
266297
260691
256004
252605
250775
250656
251715
252964
252744
248768
238672
220959
196249
168046
141685
122698
116274
129858
182509
337318
824888
2.55152e+06
8.95116e+06
3.04036e+07
8.56318e+07
1.80455e+08
2.77773e+08
3.2547e+08
3.14225e+08
2.73081e+08
2.29205e+08
1.94368e+08
1.70299e+08
1.54939e+08
1.45986e+08
1.41552e+08
1.39821e+08
1.39388e+08
1.39129e+08
1.38289e+08
1.3637e+08
1.33388e+08
1.29442e+08
1.24906e+08
1.20115e+08
1.15313e+08
1.1087e+08
1.06933e+08
1.03605e+08
1.0081e+08
9.83756e+07
9.60538e+07
9.3647e+07
9.10124e+07
8.80371e+07
8.46659e+07
8.10487e+07
7.73838e+07
7.37674e+07
7.03488e+07
6.72296e+07
6.44774e+07
6.20541e+07
5.98841e+07
5.78923e+07
5.60052e+07
5.41471e+07
5.22805e+07
5.04043e+07
4.85384e+07
4.67176e+07
4.49773e+07
4.33486e+07
4.18436e+07
4.04581e+07
3.91792e+07
3.79874e+07
3.68606e+07
3.57827e+07
3.47434e+07
3.3738e+07
3.27658e+07
3.18287e+07
3.09283e+07
3.00653e+07
2.92397e+07
2.84502e+07
2.76953e+07
2.69733e+07
2.62826e+07
2.56218e+07
2.4989e+07
2.43821e+07
2.37984e+07
2.32347e+07
2.26872e+07
2.21516e+07
2.16232e+07
2.10967e+07
2.05667e+07
2.00277e+07
1.94747e+07
1.89036e+07
1.83122e+07
1.77007e+07
1.70727e+07
1.64357e+07
1.58012e+07
1.51837e+07
1.45995e+07
1.40646e+07
1.35939e+07
1.32011e+07
1.29e+07
1.27052e+07
1.26284e+07
1.26678e+07
1.27943e+07
1.29523e+07
1.30923e+07
1.32066e+07
1.33099e+07
1.33974e+07
1.35288e+07
1.41208e+07
1.63226e+07
2.23833e+07
3.60062e+07
6.26362e+07
9.07486e+07
5.43337e+07
6378.94
0.0329998
0.0128197
0.00977914
0.00840621
0.00747944
0.00682739
0.00637181
0.00605805
0.00584178
0.00568778
0.00556974
0.00546958
0.0053757
0.00528162
0.00518434
0.00508306
0.00497849
0.00487219
0.00476626
0.00466286
0.00456398
0.00447115
0.00438523
0.0043064
0.00423432
0.00416838
0.00410797
0.00405253
0.00400155
0.00395462
0.00391132
0.0038713
0.00383422
0.00379977
0.00376765
0.00373761
0.00370938
0.00368271
0.00365739
0.00363319
0.0036099
0.00358733
0.00356529
0.00354366
0.00352231
0.00350116
0.00348014
0.00345918
0.00343824
0.00341727
0.00339623
0.0033751
0.00335384
0.00333243
0.00331062
0.00328817
0.00326503
0.00324116
0.00321651
0.00319103
0.00316467
0.00313737
0.00310907
0.00307971
0.00304922
0.0030175
0.00298449
0.00295008
0.00291416
0.00287662
0.00283732
0.0027961
0.0027528
0.0027072
0.00265907
0.00260814
0.00255406
0.00249645
0.00243482
0.00236857
0.00229693
0.00221891
0.00213321
0.002038
0.00193066
0.00180716
0.00166074
0.00147842
0.00122828
0
0
0
0
0
0
0
0
0
0
0
0
0
0
0
0
0
0
0
0
0
0
0
0
0
0
0
0
0
0
0
0
0
0
0
0
0
0
0
0
0
0
0
0
0
0
0
0
0
0
0
0
0
0
0
0
0
0
0
0
0
0
0
0
0
0
0
0
0
0
0
0
0
0
0
0
0
0
0
0
0
0
0
0
0
0
0
0
0
0
0
0
0
0
0
0
0
0
0
0
0
0
0
0
0
0
0
0
0
0
0
0
0
0
0
0
0
0
0
0
0
0
0
0
)
;

boundaryField
{
    inandouthalf11
    {
        type            cyclic;
    }
    inandouthalf12
    {
        type            cyclic;
    }
    inandouthalf21
    {
        type            cyclic;
    }
    inandouthalf22
    {
        type            cyclic;
    }
    inandouthalf31
    {
        type            cyclic;
    }
    inandouthalf32
    {
        type            cyclic;
    }
    inandouthalf41
    {
        type            cyclic;
    }
    inandouthalf42
    {
        type            cyclic;
    }
    top
    {
        type            symmetryPlane;
    }
    walls
    {
        type            calculated;
        value           uniform 1e+30;
    }
    frontAndBackPlanes
    {
        type            empty;
    }
}


// ************************************************************************* //
