/*--------------------------------*- C++ -*----------------------------------*\
| =========                 |                                                 |
| \\      /  F ield         | OpenFOAM: The Open Source CFD Toolbox           |
|  \\    /   O peration     | Version:  2.4.x                                 |
|   \\  /    A nd           | Web:      www.OpenFOAM.org                      |
|    \\/     M anipulation  |                                                 |
\*---------------------------------------------------------------------------*/
FoamFile
{
    version     2.0;
    format      ascii;
    class       volScalarField;
    location    "4.2";
    object      nutb;
}
// * * * * * * * * * * * * * * * * * * * * * * * * * * * * * * * * * * * * * //

dimensions      [0 2 -1 0 0 0 0];

internalField   nonuniform List<scalar> 
360
(
9e-22
9e-22
9e-22
9e-22
9e-22
9e-22
9e-22
9e-22
9e-22
9e-22
9e-22
9e-22
9e-22
9e-22
9e-22
9e-22
9e-22
9e-22
9e-22
9e-22
9e-22
9e-22
9e-22
9e-22
9e-22
9e-22
9e-22
9e-22
9e-22
9e-22
9e-22
9e-22
9e-22
9e-22
9e-22
9e-22
9e-22
9e-22
9e-22
9e-22
9e-22
9e-22
9e-22
9e-22
9e-22
9e-22
9e-22
9e-22
9e-22
9e-22
9e-22
9e-22
9e-22
9e-22
9e-22
9e-22
9e-22
9e-22
9e-22
9e-22
9e-22
9e-22
9e-22
9e-22
9e-22
9e-22
9e-22
9e-22
9e-22
9e-22
9e-22
9e-22
9e-22
9e-22
9e-22
9e-22
9e-22
9e-22
9e-22
9e-22
9e-22
9e-22
9e-22
9e-22
9e-22
9e-22
9e-22
9e-22
9e-22
9e-22
9e-22
9e-22
9e-22
9e-22
9e-22
9e-22
9e-22
9e-22
9e-22
9e-22
9e-22
9e-22
9e-22
9e-22
9e-22
9e-22
9e-22
9e-22
9e-22
9e-22
9e-22
9e-22
9e-22
9e-22
9e-22
9e-22
9e-22
9e-22
9e-22
9e-22
9e-22
9e-22
9e-22
9e-22
9e-22
9e-22
9e-22
9e-22
9e-22
9e-22
9e-22
9e-22
9e-22
7.21076e-22
1.15465e-21
6.40914e-21
5.19953e-20
4.56016e-19
4.28714e-18
4.40728e-17
5.06124e-16
6.62376e-15
1.00787e-13
1.81141e-12
3.88541e-11
1.00411e-09
3.10358e-08
8.37601e-07
7.30351e-06
1.59792e-05
2.27e-05
2.82693e-05
3.30726e-05
3.73026e-05
4.10717e-05
4.4441e-05
4.74392e-05
5.00743e-05
5.23445e-05
5.42466e-05
5.57813e-05
5.69571e-05
5.77923e-05
5.83165e-05
5.85715e-05
5.86121e-05
5.85078e-05
5.83438e-05
5.82214e-05
5.82561e-05
5.85722e-05
5.92942e-05
6.05365e-05
6.23899e-05
6.49068e-05
6.80909e-05
7.1893e-05
7.62179e-05
8.09392e-05
8.59172e-05
9.10148e-05
9.61098e-05
0.000101102
0.000105913
0.000110489
0.000114795
0.000118813
0.000122535
0.000125962
0.000129104
0.000131969
0.000134571
0.000136924
0.000139043
0.000140941
0.000142632
0.000144129
0.000145441
0.000146579
0.000147552
0.000148367
0.000149038
0.00014957
0.00014996
0.000150204
0.000150297
0.000150234
0.000150011
0.000149619
0.000149053
0.000148304
0.000147366
0.000146229
0.000144884
0.000143321
0.000141531
0.000139502
0.000137224
0.000134684
0.00013187
0.000128771
0.000125372
0.00012166
0.000117622
0.000113242
0.000108507
0.000103403
9.79127e-05
9.20229e-05
8.5718e-05
7.89836e-05
7.18054e-05
6.417e-05
5.6065e-05
4.74797e-05
3.84062e-05
2.88432e-05
1.88036e-05
8.01071e-06
9.6796e-07
2.13541e-08
2.78845e-10
3.41004e-12
3.95514e-14
4.35298e-16
4.54678e-18
4.41073e-20
1.12189e-21
9e-22
9e-22
9e-22
9e-22
9e-22
9e-22
9e-22
9e-22
9e-22
9e-22
9e-22
9e-22
9e-22
9e-22
9e-22
9e-22
9e-22
9e-22
9e-22
9e-22
9e-22
9e-22
9e-22
9e-22
9e-22
9e-22
9e-22
9e-22
9e-22
9e-22
9e-22
9e-22
9e-22
9e-22
9e-22
9e-22
9e-22
9e-22
9e-22
9e-22
9e-22
9e-22
9e-22
9e-22
9e-22
9e-22
9e-22
9e-22
9e-22
9e-22
9e-22
9e-22
9e-22
9e-22
9e-22
9e-22
9e-22
9e-22
9e-22
9e-22
9e-22
9e-22
9e-22
9e-22
9e-22
9e-22
9e-22
9e-22
9e-22
9e-22
9e-22
9e-22
9e-22
9e-22
9e-22
9e-22
9e-22
9e-22
9e-22
9e-22
9e-22
9e-22
9e-22
9e-22
9e-22
9e-22
9e-22
9e-22
9e-22
9e-22
9e-22
9e-22
9e-22
9e-22
9e-22
9e-22
9e-22
9e-22
9e-22
9e-22
9e-22
9e-22
9e-22
9e-22
9e-22
9e-22
9e-22
9e-22
9e-22
9e-22
9e-22
9e-22
)
;

boundaryField
{
    inandouthalf11
    {
        type            cyclic;
    }
    inandouthalf12
    {
        type            cyclic;
    }
    inandouthalf21
    {
        type            cyclic;
    }
    inandouthalf22
    {
        type            cyclic;
    }
    inandouthalf31
    {
        type            cyclic;
    }
    inandouthalf32
    {
        type            cyclic;
    }
    inandouthalf41
    {
        type            cyclic;
    }
    inandouthalf42
    {
        type            cyclic;
    }
    top
    {
        type            symmetryPlane;
    }
    walls
    {
        type            calculated;
        value           uniform 0;
    }
    frontAndBackPlanes
    {
        type            empty;
    }
}


// ************************************************************************* //
