/*--------------------------------*- C++ -*----------------------------------*\
| =========                 |                                                 |
| \\      /  F ield         | OpenFOAM: The Open Source CFD Toolbox           |
|  \\    /   O peration     | Version:  2.4.x                                 |
|   \\  /    A nd           | Web:      www.OpenFOAM.org                      |
|    \\/     M anipulation  |                                                 |
\*---------------------------------------------------------------------------*/
FoamFile
{
    version     2.0;
    format      ascii;
    class       volScalarField;
    location    "4.2";
    object      pa;
}
// * * * * * * * * * * * * * * * * * * * * * * * * * * * * * * * * * * * * * //

dimensions      [1 -1 -2 0 0 0 0];

internalField   nonuniform List<scalar> 
360
(
2.8948e-16
2.92722e-16
2.92857e-16
2.92366e-16
2.92209e-16
2.92206e-16
2.92211e-16
2.92188e-16
2.92142e-16
2.92086e-16
2.92035e-16
2.91997e-16
2.91969e-16
2.91945e-16
2.91921e-16
2.91895e-16
2.91861e-16
2.91814e-16
2.91746e-16
2.91649e-16
2.91525e-16
2.91382e-16
2.91238e-16
2.91122e-16
2.91067e-16
2.91121e-16
2.91355e-16
2.91873e-16
2.92821e-16
2.94271e-16
2.95855e-16
2.96292e-16
2.94318e-16
2.90992e-16
2.88716e-16
2.87934e-16
2.87778e-16
2.87745e-16
2.87725e-16
2.87709e-16
2.87689e-16
2.87668e-16
2.87648e-16
2.87623e-16
2.87597e-16
2.8757e-16
2.8754e-16
2.8751e-16
2.87476e-16
2.87437e-16
2.87398e-16
2.87355e-16
2.87311e-16
2.87262e-16
2.87212e-16
2.87155e-16
2.87098e-16
2.87035e-16
2.8697e-16
2.86903e-16
2.8683e-16
2.86757e-16
2.8668e-16
2.86601e-16
2.86521e-16
2.86439e-16
2.86354e-16
2.86266e-16
2.86175e-16
2.86081e-16
2.85982e-16
2.8588e-16
2.85776e-16
2.85667e-16
2.85557e-16
2.85443e-16
2.85327e-16
2.8521e-16
2.85089e-16
2.84966e-16
2.8484e-16
2.8471e-16
2.84577e-16
2.8444e-16
2.843e-16
2.84157e-16
2.84011e-16
2.83862e-16
2.83709e-16
2.83554e-16
2.83396e-16
2.83234e-16
2.83068e-16
2.82899e-16
2.82726e-16
2.82548e-16
2.82367e-16
2.82182e-16
2.81993e-16
2.81796e-16
0
0
0
0
0
0
0
0
0
0
0
0
0
0
0
2.77976e-16
2.7768e-16
2.77375e-16
2.77061e-16
2.76738e-16
2.76406e-16
2.76063e-16
2.75709e-16
2.75345e-16
2.74969e-16
2.7458e-16
2.74179e-16
2.73763e-16
2.73332e-16
2.72884e-16
2.72419e-16
2.71937e-16
2.71434e-16
2.85576e-16
7.4163e-16
5.10894e-15
4.76917e-14
4.84763e-13
5.3531e-12
6.54559e-11
9.04388e-10
1.43943e-08
2.68632e-07
6.03806e-06
0.000249608
0.0235771
0.79017
6.80958
5.94417
5.32849
4.34023
3.43387
2.67262
2.05519
1.56551
1.18332
0.88861
0.663478
0.492789
0.364183
0.267843
0.196066
0.142876
0.10367
0.0749251
0.0539555
0.0387116
0.0276372
0.0195868
0.0137742
0.009672
0.00686934
0.00499778
0.00374802
0.00289631
0.00229784
0.00186341
0.00153827
0.00128812
0.00109079
0.000931482
0.000799985
0.000689051
0.000593393
0.000509091
0.000433292
0.000364243
0.000301621
0.000246731
0.000201637
0.000166989
0.000140672
0.00011932
0.000100982
8.55439e-05
7.29936e-05
6.25787e-05
5.36391e-05
4.6035e-05
3.97155e-05
3.4468e-05
2.98562e-05
2.56205e-05
2.19985e-05
1.91362e-05
1.65934e-05
1.40608e-05
1.19169e-05
1.03616e-05
8.8743e-06
7.40709e-06
6.30868e-06
5.39384e-06
4.48475e-06
3.77392e-06
3.21159e-06
2.62916e-06
2.14983e-06
1.82868e-06
1.49918e-06
1.18289e-06
9.77315e-07
7.86855e-07
6.17655e-07
4.98313e-07
3.81411e-07
2.92262e-07
2.31693e-07
1.6615e-07
1.20616e-07
8.87014e-08
6.26065e-08
4.88065e-08
3.7646e-08
2.53477e-08
1.19773e-08
0
0
0
0
0
0
0
0
0
0
0
0
0
0
0
0
0
0
0
0
0
0
0
0
0
0
0
0
0
0
0
0
0
0
0
0
0
0
0
0
0
0
0
0
0
0
0
0
0
0
0
0
0
0
0
0
0
0
0
0
0
0
0
0
0
0
0
0
0
0
0
0
0
0
0
0
0
0
0
0
0
0
0
0
0
0
0
0
0
0
0
0
0
0
0
0
0
0
0
0
0
0
0
0
0
0
0
0
0
0
0
0
0
0
0
0
0
0
0
0
0
0
0
0
)
;

boundaryField
{
    inandouthalf11
    {
        type            cyclic;
    }
    inandouthalf12
    {
        type            cyclic;
    }
    inandouthalf21
    {
        type            cyclic;
    }
    inandouthalf22
    {
        type            cyclic;
    }
    inandouthalf31
    {
        type            cyclic;
    }
    inandouthalf32
    {
        type            cyclic;
    }
    inandouthalf41
    {
        type            cyclic;
    }
    inandouthalf42
    {
        type            cyclic;
    }
    top
    {
        type            symmetryPlane;
    }
    walls
    {
        type            calculated;
        value           uniform 2.8948e-16;
    }
    frontAndBackPlanes
    {
        type            empty;
    }
}


// ************************************************************************* //
