/*--------------------------------*- C++ -*----------------------------------*\
| =========                 |                                                 |
| \\      /  F ield         | OpenFOAM: The Open Source CFD Toolbox           |
|  \\    /   O peration     | Version:  2.4.x                                 |
|   \\  /    A nd           | Web:      www.OpenFOAM.org                      |
|    \\/     M anipulation  |                                                 |
\*---------------------------------------------------------------------------*/
FoamFile
{
    version     2.0;
    format      ascii;
    class       surfaceScalarField;
    location    "4.2";
    object      phia_0;
}
// * * * * * * * * * * * * * * * * * * * * * * * * * * * * * * * * * * * * * //

dimensions      [0 3 -1 0 0 0 0];

internalField   nonuniform List<scalar> 
359
(
-6.31849e-13
-1.80532e-12
-2.92138e-12
-3.94089e-12
-4.94595e-12
-5.97591e-12
-7.03342e-12
-8.10886e-12
-9.19254e-12
-1.02825e-11
-1.1382e-11
-1.24948e-11
-1.36244e-11
-1.47715e-11
-1.59362e-11
-1.71178e-11
-1.83144e-11
-1.95225e-11
-2.07361e-11
-2.19482e-11
-2.315e-11
-2.43367e-11
-2.55074e-11
-2.66692e-11
-2.78396e-11
-2.90492e-11
-3.0344e-11
-3.1788e-11
-3.34565e-11
-3.54116e-11
-3.7638e-11
-3.99548e-11
-4.19999e-11
-4.34384e-11
-4.42091e-11
-4.45224e-11
-4.46234e-11
-4.46521e-11
-4.46605e-11
-4.46635e-11
-4.46649e-11
-4.46658e-11
-4.46666e-11
-4.46674e-11
-4.46683e-11
-4.46694e-11
-4.46706e-11
-4.46721e-11
-4.46736e-11
-4.46753e-11
-4.4677e-11
-4.46787e-11
-4.46804e-11
-4.46821e-11
-4.46838e-11
-4.46855e-11
-4.46873e-11
-4.4689e-11
-4.46909e-11
-4.46927e-11
-4.46947e-11
-4.46967e-11
-4.46987e-11
-4.47008e-11
-4.47029e-11
-4.47051e-11
-4.47073e-11
-4.47095e-11
-4.47118e-11
-4.47141e-11
-4.47165e-11
-4.47189e-11
-4.47215e-11
-4.47241e-11
-4.47269e-11
-4.47297e-11
-4.47326e-11
-4.47356e-11
-4.47386e-11
-4.47417e-11
-4.47449e-11
-4.47481e-11
-4.47514e-11
-4.47548e-11
-4.47582e-11
-4.47617e-11
-4.47653e-11
-4.4769e-11
-4.47727e-11
-4.47766e-11
-4.47804e-11
-4.47843e-11
-4.47883e-11
-4.47923e-11
-4.47964e-11
-4.48005e-11
-4.48046e-11
-4.48088e-11
-4.4813e-11
-4.48173e-11
-4.48215e-11
-4.48258e-11
-4.48301e-11
-4.48345e-11
-4.48388e-11
-4.48432e-11
-4.48475e-11
-4.48519e-11
-4.48562e-11
-4.48606e-11
-4.48649e-11
-4.48692e-11
-4.48734e-11
-4.48777e-11
-4.48819e-11
-4.48861e-11
-4.48903e-11
-4.48945e-11
-4.48987e-11
-4.49028e-11
-4.49069e-11
-4.49111e-11
-4.49152e-11
-4.49193e-11
-4.49234e-11
-4.49274e-11
-4.49314e-11
-4.49352e-11
-4.4939e-11
-4.49426e-11
-4.4946e-11
-4.49491e-11
-4.4952e-11
-4.49546e-11
-4.4957e-11
-4.49591e-11
-4.4961e-11
-4.49626e-11
-4.4964e-11
-4.49652e-11
-4.4966e-11
-4.49665e-11
-4.49667e-11
-4.49667e-11
-4.49667e-11
-4.49665e-11
-4.4748e-11
1.51293e-09
3.97685e-09
5.33068e-09
6.27403e-09
7.15028e-09
8.03826e-09
8.96753e-09
9.9496e-09
1.09881e-08
1.20817e-08
1.32261e-08
1.44153e-08
1.5641e-08
1.68935e-08
1.81594e-08
1.94213e-08
2.06555e-08
2.18316e-08
2.29077e-08
2.38172e-08
2.44476e-08
2.46441e-08
2.42902e-08
2.3413e-08
2.21812e-08
2.08008e-08
1.94326e-08
1.81756e-08
1.70808e-08
1.6168e-08
1.54388e-08
1.48851e-08
1.44932e-08
1.42464e-08
1.41257e-08
1.41099e-08
1.41753e-08
1.42955e-08
1.44412e-08
1.45818e-08
1.46895e-08
1.47463e-08
1.47523e-08
1.47237e-08
1.46791e-08
1.46224e-08
1.45492e-08
1.44613e-08
1.43638e-08
1.42591e-08
1.41459e-08
1.40243e-08
1.38966e-08
1.37655e-08
1.3628e-08
1.34789e-08
1.33181e-08
1.3154e-08
1.29865e-08
1.28029e-08
1.26028e-08
1.24028e-08
1.21953e-08
1.1966e-08
1.17287e-08
1.14874e-08
1.1227e-08
1.09574e-08
1.06888e-08
1.04031e-08
1.01019e-08
9.81005e-09
9.51034e-09
9.17868e-09
8.84632e-09
8.49774e-09
8.11683e-09
7.72896e-09
7.29744e-09
6.82447e-09
6.34487e-09
5.78566e-09
5.16454e-09
4.50336e-09
3.79752e-09
3.1617e-09
2.64926e-09
2.27378e-09
1.96055e-09
-7.114e-08
-1.56259e-07
-1.5838e-07
-1.58181e-07
-1.58177e-07
-1.58178e-07
-1.58179e-07
-1.58179e-07
-1.58179e-07
-1.58179e-07
-1.58179e-07
-1.58179e-07
-1.58179e-07
-1.58179e-07
-1.58179e-07
-1.58179e-07
-1.58179e-07
-1.58179e-07
-1.58179e-07
-1.58179e-07
-1.58179e-07
-1.58179e-07
-1.58179e-07
-1.58179e-07
-1.58179e-07
-1.58179e-07
-1.58179e-07
-1.58179e-07
-1.58179e-07
-1.58179e-07
-1.58179e-07
-1.58179e-07
-1.58179e-07
-1.58179e-07
-1.58179e-07
-1.58179e-07
-1.58179e-07
-1.58179e-07
-1.58179e-07
-1.58179e-07
-1.58179e-07
-1.58179e-07
-1.58179e-07
-1.58179e-07
-1.58179e-07
-1.58179e-07
-1.58179e-07
-1.58179e-07
-1.58179e-07
-1.58179e-07
-1.58179e-07
-1.58179e-07
-1.58179e-07
-1.58179e-07
-1.58179e-07
-1.58179e-07
-1.58179e-07
-1.58179e-07
-1.58179e-07
-1.58179e-07
-1.58179e-07
-1.58179e-07
-1.58179e-07
-1.58179e-07
-1.58179e-07
-1.58179e-07
-1.58179e-07
-1.58179e-07
-1.58179e-07
-1.58179e-07
-1.58179e-07
-1.58179e-07
-1.58179e-07
-1.58179e-07
-1.58179e-07
-1.58179e-07
-1.58179e-07
-1.58179e-07
-1.58179e-07
-1.58179e-07
-1.58179e-07
-1.58179e-07
-1.58179e-07
-1.58179e-07
-1.58179e-07
-1.58179e-07
-1.58179e-07
-1.58179e-07
-1.58179e-07
-1.58179e-07
-1.58179e-07
-1.58179e-07
-1.58179e-07
-1.58179e-07
-1.58179e-07
-1.58179e-07
-1.58179e-07
-1.58179e-07
-1.58179e-07
-1.58179e-07
-1.58179e-07
-1.58179e-07
-1.58179e-07
-1.58179e-07
-1.58179e-07
-1.58179e-07
-1.58179e-07
-1.58179e-07
-1.58179e-07
-1.58179e-07
-1.58179e-07
-1.58179e-07
-1.58179e-07
-1.58179e-07
-1.58179e-07
-1.58179e-07
-1.58179e-07
-1.58179e-07
-1.58179e-07
-1.58178e-07
-1.58161e-07
-1.57455e-07
-1.32356e-07
)
;

boundaryField
{
    inandouthalf11
    {
        type            cyclic;
        value           nonuniform List<scalar> 
100
(
1.08633e-38
5.64875e-14
1.28969e-13
1.93879e-13
2.55837e-13
3.1902e-13
3.84224e-13
4.51048e-13
5.18901e-13
5.87428e-13
6.56662e-13
7.26852e-13
7.98241e-13
8.70968e-13
9.45068e-13
1.02053e-12
1.09727e-12
1.17515e-12
1.25384e-12
1.33294e-12
1.41191e-12
1.49031e-12
1.56793e-12
1.64496e-12
1.72221e-12
1.80124e-12
1.88458e-12
1.97589e-12
2.07985e-12
2.20143e-12
2.34303e-12
2.49876e-12
2.64904e-12
2.76672e-12
2.83699e-12
2.86822e-12
2.87891e-12
2.88203e-12
2.88294e-12
2.88325e-12
2.88338e-12
2.88346e-12
2.88353e-12
2.88359e-12
2.88367e-12
2.88375e-12
2.88386e-12
2.88399e-12
2.88414e-12
2.8843e-12
2.88447e-12
2.88465e-12
2.88483e-12
2.88501e-12
2.8852e-12
2.88539e-12
2.88558e-12
2.88578e-12
2.88599e-12
2.88621e-12
2.88644e-12
2.88668e-12
2.88694e-12
2.8872e-12
2.88747e-12
2.88775e-12
2.88803e-12
2.88832e-12
2.88862e-12
2.88893e-12
2.88926e-12
2.88959e-12
2.88994e-12
2.89031e-12
2.89069e-12
2.89109e-12
2.89151e-12
2.89194e-12
2.89239e-12
2.89285e-12
2.89332e-12
2.89381e-12
2.89431e-12
2.89483e-12
2.89536e-12
2.89591e-12
2.89648e-12
2.89706e-12
2.89767e-12
2.89828e-12
2.89892e-12
2.89956e-12
2.90022e-12
2.9009e-12
2.90159e-12
2.90229e-12
2.903e-12
2.90373e-12
2.90447e-12
2.90522e-12
)
;
    }
    inandouthalf12
    {
        type            cyclic;
        value           nonuniform List<scalar> 
100
(
-1.08633e-38
-5.64875e-14
-1.28969e-13
-1.93879e-13
-2.55837e-13
-3.1902e-13
-3.84224e-13
-4.51048e-13
-5.18901e-13
-5.87428e-13
-6.56662e-13
-7.26852e-13
-7.98241e-13
-8.70968e-13
-9.45068e-13
-1.02053e-12
-1.09727e-12
-1.17515e-12
-1.25384e-12
-1.33294e-12
-1.41191e-12
-1.49031e-12
-1.56793e-12
-1.64496e-12
-1.72221e-12
-1.80124e-12
-1.88458e-12
-1.97589e-12
-2.07985e-12
-2.20143e-12
-2.34303e-12
-2.49876e-12
-2.64904e-12
-2.76672e-12
-2.83699e-12
-2.86822e-12
-2.87891e-12
-2.88203e-12
-2.88294e-12
-2.88325e-12
-2.88338e-12
-2.88346e-12
-2.88353e-12
-2.88359e-12
-2.88367e-12
-2.88375e-12
-2.88386e-12
-2.88399e-12
-2.88414e-12
-2.8843e-12
-2.88447e-12
-2.88465e-12
-2.88483e-12
-2.88501e-12
-2.8852e-12
-2.88539e-12
-2.88558e-12
-2.88578e-12
-2.88599e-12
-2.88621e-12
-2.88644e-12
-2.88668e-12
-2.88694e-12
-2.8872e-12
-2.88747e-12
-2.88775e-12
-2.88803e-12
-2.88832e-12
-2.88862e-12
-2.88893e-12
-2.88926e-12
-2.88959e-12
-2.88994e-12
-2.89031e-12
-2.89069e-12
-2.89109e-12
-2.89151e-12
-2.89194e-12
-2.89239e-12
-2.89285e-12
-2.89332e-12
-2.89381e-12
-2.89431e-12
-2.89483e-12
-2.89536e-12
-2.89591e-12
-2.89648e-12
-2.89706e-12
-2.89767e-12
-2.89828e-12
-2.89892e-12
-2.89956e-12
-2.90022e-12
-2.9009e-12
-2.90159e-12
-2.90229e-12
-2.903e-12
-2.90373e-12
-2.90447e-12
-2.90522e-12
)
;
    }
    inandouthalf21
    {
        type            cyclic;
        value           nonuniform List<scalar> 
100
(
2.90599e-12
2.90677e-12
2.90756e-12
2.90835e-12
2.90916e-12
2.90998e-12
2.91081e-12
2.91165e-12
2.91249e-12
2.91335e-12
2.9142e-12
2.91507e-12
2.91594e-12
2.91682e-12
2.91771e-12
2.9186e-12
2.9195e-12
2.92041e-12
2.92133e-12
2.92226e-12
2.92321e-12
2.92418e-12
2.92516e-12
2.92616e-12
2.92718e-12
2.92821e-12
2.92927e-12
2.93033e-12
2.9314e-12
2.93246e-12
2.93351e-12
2.93454e-12
2.93553e-12
2.93648e-12
2.9374e-12
2.93829e-12
2.93914e-12
2.93995e-12
2.94073e-12
2.94147e-12
2.9421e-12
2.94258e-12
2.94288e-12
2.94303e-12
2.94311e-12
2.94317e-12
2.94328e-12
3.75799e-12
8.3757e-08
1.96422e-07
2.86712e-07
3.60797e-07
4.22994e-07
4.76137e-07
5.22139e-07
5.62369e-07
5.97841e-07
6.2933e-07
6.57428e-07
6.82588e-07
7.05158e-07
7.25401e-07
7.43519e-07
7.59669e-07
7.73979e-07
7.86563e-07
7.97528e-07
8.0699e-07
8.15075e-07
8.21932e-07
8.27723e-07
8.32615e-07
8.36759e-07
8.40279e-07
8.43274e-07
8.45825e-07
8.47993e-07
8.49832e-07
8.51383e-07
8.52685e-07
8.53768e-07
8.54659e-07
8.55384e-07
8.55963e-07
8.56416e-07
8.56762e-07
8.57016e-07
8.57196e-07
8.57315e-07
8.57386e-07
8.57418e-07
8.5742e-07
8.57399e-07
8.57357e-07
8.57299e-07
8.57228e-07
8.57146e-07
8.57055e-07
8.56958e-07
8.56857e-07
)
;
    }
    inandouthalf22
    {
        type            cyclic;
        value           nonuniform List<scalar> 
100
(
-2.90599e-12
-2.90677e-12
-2.90756e-12
-2.90835e-12
-2.90916e-12
-2.90998e-12
-2.91081e-12
-2.91165e-12
-2.91249e-12
-2.91335e-12
-2.9142e-12
-2.91507e-12
-2.91594e-12
-2.91682e-12
-2.91771e-12
-2.9186e-12
-2.9195e-12
-2.92041e-12
-2.92133e-12
-2.92226e-12
-2.92321e-12
-2.92418e-12
-2.92516e-12
-2.92616e-12
-2.92718e-12
-2.92821e-12
-2.92927e-12
-2.93033e-12
-2.9314e-12
-2.93246e-12
-2.93351e-12
-2.93454e-12
-2.93553e-12
-2.93648e-12
-2.9374e-12
-2.93829e-12
-2.93914e-12
-2.93995e-12
-2.94073e-12
-2.94147e-12
-2.9421e-12
-2.94258e-12
-2.94288e-12
-2.94303e-12
-2.94311e-12
-2.94317e-12
-2.94328e-12
-3.75799e-12
-8.3757e-08
-1.96422e-07
-2.86712e-07
-3.60797e-07
-4.22994e-07
-4.76137e-07
-5.22139e-07
-5.62369e-07
-5.97841e-07
-6.2933e-07
-6.57428e-07
-6.82588e-07
-7.05158e-07
-7.25401e-07
-7.43519e-07
-7.59669e-07
-7.73979e-07
-7.86563e-07
-7.97528e-07
-8.0699e-07
-8.15075e-07
-8.21932e-07
-8.27723e-07
-8.32615e-07
-8.36759e-07
-8.40279e-07
-8.43274e-07
-8.45825e-07
-8.47993e-07
-8.49832e-07
-8.51383e-07
-8.52685e-07
-8.53768e-07
-8.54659e-07
-8.55384e-07
-8.55963e-07
-8.56416e-07
-8.56762e-07
-8.57016e-07
-8.57196e-07
-8.57315e-07
-8.57386e-07
-8.57418e-07
-8.5742e-07
-8.57399e-07
-8.57357e-07
-8.57299e-07
-8.57228e-07
-8.57146e-07
-8.57055e-07
-8.56958e-07
-8.56857e-07
)
;
    }
    inandouthalf31
    {
        type            cyclic;
        value           nonuniform List<scalar> 
110
(
8.56754e-07
8.74033e-07
8.91657e-07
9.09631e-07
9.27963e-07
9.46661e-07
9.65732e-07
9.8518e-07
1.00502e-06
1.02525e-06
1.04588e-06
1.06692e-06
1.08837e-06
1.11026e-06
1.13257e-06
1.15532e-06
1.17852e-06
1.20218e-06
1.22629e-06
1.25088e-06
1.27594e-06
1.30148e-06
1.32751e-06
1.35404e-06
1.38106e-06
1.4086e-06
1.43664e-06
1.46521e-06
1.4943e-06
1.52391e-06
1.55406e-06
1.58476e-06
1.61607e-06
1.64809e-06
1.68087e-06
1.71443e-06
1.74848e-06
1.66264e-06
1.69307e-06
1.72587e-06
1.76075e-06
1.79648e-06
1.83293e-06
1.87013e-06
1.90808e-06
1.9468e-06
1.98631e-06
2.02662e-06
2.06776e-06
2.10972e-06
2.15254e-06
2.19623e-06
2.24081e-06
2.28629e-06
2.33269e-06
2.38004e-06
2.42835e-06
2.47763e-06
2.52792e-06
2.57923e-06
2.63158e-06
2.685e-06
2.7395e-06
2.7951e-06
2.85183e-06
2.90972e-06
2.96878e-06
3.02904e-06
3.09052e-06
3.15325e-06
3.21725e-06
3.28255e-06
3.34918e-06
3.41716e-06
3.48652e-06
3.55728e-06
3.62949e-06
3.70315e-06
3.77832e-06
3.85501e-06
3.93325e-06
4.01309e-06
4.09454e-06
4.17765e-06
4.26245e-06
4.34896e-06
4.43724e-06
4.5273e-06
4.61919e-06
4.71295e-06
4.80861e-06
4.90621e-06
5.0058e-06
5.1074e-06
5.21107e-06
5.31684e-06
5.42476e-06
5.53486e-06
5.64721e-06
5.76183e-06
5.87878e-06
5.9981e-06
6.11985e-06
6.24406e-06
6.3708e-06
6.50011e-06
6.63205e-06
6.76666e-06
6.90401e-06
7.04414e-06
)
;
    }
    inandouthalf32
    {
        type            cyclic;
        value           nonuniform List<scalar> 
110
(
-8.56754e-07
-8.74033e-07
-8.91657e-07
-9.09631e-07
-9.27963e-07
-9.46661e-07
-9.65732e-07
-9.8518e-07
-1.00502e-06
-1.02525e-06
-1.04588e-06
-1.06692e-06
-1.08837e-06
-1.11026e-06
-1.13257e-06
-1.15532e-06
-1.17852e-06
-1.20218e-06
-1.22629e-06
-1.25088e-06
-1.27594e-06
-1.30148e-06
-1.32751e-06
-1.35404e-06
-1.38106e-06
-1.4086e-06
-1.43664e-06
-1.46521e-06
-1.4943e-06
-1.52391e-06
-1.55406e-06
-1.58476e-06
-1.61607e-06
-1.64809e-06
-1.68087e-06
-1.71443e-06
-1.74848e-06
-1.66264e-06
-1.69307e-06
-1.72587e-06
-1.76075e-06
-1.79648e-06
-1.83293e-06
-1.87013e-06
-1.90808e-06
-1.9468e-06
-1.98631e-06
-2.02662e-06
-2.06776e-06
-2.10972e-06
-2.15254e-06
-2.19623e-06
-2.24081e-06
-2.28629e-06
-2.33269e-06
-2.38004e-06
-2.42835e-06
-2.47763e-06
-2.52792e-06
-2.57923e-06
-2.63158e-06
-2.685e-06
-2.7395e-06
-2.7951e-06
-2.85183e-06
-2.90972e-06
-2.96878e-06
-3.02904e-06
-3.09052e-06
-3.15325e-06
-3.21725e-06
-3.28255e-06
-3.34918e-06
-3.41716e-06
-3.48652e-06
-3.55728e-06
-3.62949e-06
-3.70315e-06
-3.77832e-06
-3.85501e-06
-3.93325e-06
-4.01309e-06
-4.09454e-06
-4.17765e-06
-4.26245e-06
-4.34896e-06
-4.43724e-06
-4.5273e-06
-4.61919e-06
-4.71295e-06
-4.80861e-06
-4.90621e-06
-5.0058e-06
-5.1074e-06
-5.21107e-06
-5.31684e-06
-5.42476e-06
-5.53486e-06
-5.64721e-06
-5.76183e-06
-5.87878e-06
-5.9981e-06
-6.11985e-06
-6.24406e-06
-6.3708e-06
-6.50011e-06
-6.63205e-06
-6.76666e-06
-6.90401e-06
-7.04414e-06
)
;
    }
    inandouthalf41
    {
        type            cyclic;
        value           nonuniform List<scalar> 
50
(
6.30522e-06
6.30522e-06
6.30522e-06
6.30522e-06
6.30522e-06
6.30522e-06
6.30522e-06
6.30522e-06
6.30522e-06
6.30522e-06
6.30522e-06
6.30522e-06
6.30522e-06
6.30522e-06
6.30522e-06
6.30522e-06
6.30522e-06
6.30522e-06
6.30522e-06
6.30522e-06
6.30522e-06
6.30522e-06
6.30522e-06
6.30522e-06
6.30522e-06
6.30522e-06
6.30522e-06
6.30522e-06
6.30522e-06
6.30522e-06
6.30522e-06
6.30522e-06
6.30522e-06
6.30522e-06
6.30522e-06
6.30522e-06
6.30522e-06
6.30522e-06
6.30522e-06
6.30522e-06
6.30522e-06
6.30522e-06
6.30522e-06
6.30522e-06
6.30522e-06
6.30522e-06
6.30522e-06
6.30522e-06
6.30514e-06
6.30337e-06
)
;
    }
    inandouthalf42
    {
        type            cyclic;
        value           nonuniform List<scalar> 
50
(
-6.30522e-06
-6.30522e-06
-6.30522e-06
-6.30522e-06
-6.30522e-06
-6.30522e-06
-6.30522e-06
-6.30522e-06
-6.30522e-06
-6.30522e-06
-6.30522e-06
-6.30522e-06
-6.30522e-06
-6.30522e-06
-6.30522e-06
-6.30522e-06
-6.30522e-06
-6.30522e-06
-6.30522e-06
-6.30522e-06
-6.30522e-06
-6.30522e-06
-6.30522e-06
-6.30522e-06
-6.30522e-06
-6.30522e-06
-6.30522e-06
-6.30522e-06
-6.30522e-06
-6.30522e-06
-6.30522e-06
-6.30522e-06
-6.30522e-06
-6.30522e-06
-6.30522e-06
-6.30522e-06
-6.30522e-06
-6.30522e-06
-6.30522e-06
-6.30522e-06
-6.30522e-06
-6.30522e-06
-6.30522e-06
-6.30522e-06
-6.30522e-06
-6.30522e-06
-6.30522e-06
-6.30522e-06
-6.30514e-06
-6.30337e-06
)
;
    }
    top
    {
        type            symmetryPlane;
        value           uniform 0;
    }
    walls
    {
        type            fixedValue;
        value           uniform 0;
    }
    frontAndBackPlanes
    {
        type            empty;
        value           nonuniform 0();
    }
}


// ************************************************************************* //
