/*--------------------------------*- C++ -*----------------------------------*\
| =========                 |                                                 |
| \\      /  F ield         | OpenFOAM: The Open Source CFD Toolbox           |
|  \\    /   O peration     | Version:  2.4.x                                 |
|   \\  /    A nd           | Web:      www.OpenFOAM.org                      |
|    \\/     M anipulation  |                                                 |
\*---------------------------------------------------------------------------*/
FoamFile
{
    version     2.0;
    format      ascii;
    class       volVectorField;
    location    "4.2";
    object      susb;
}
// * * * * * * * * * * * * * * * * * * * * * * * * * * * * * * * * * * * * * //

dimensions      [0 1 -2 0 0 0 0];

internalField   nonuniform List<vector> 
360
(
(0 3.77807e-18 0)
(0 4.85461e-18 0)
(0 7.84874e-19 0)
(0 -6.26825e-19 0)
(-3.68132e-31 -5.68526e-19 0)
(-3.68053e-31 -4.13804e-19 0)
(-3.67984e-31 -3.81686e-19 0)
(0 -3.65451e-19 0)
(-3.67853e-31 -3.60785e-19 0)
(0 -3.78601e-19 0)
(-3.67717e-31 -3.94186e-19 0)
(0 -4.02335e-19 0)
(-7.35146e-31 -4.05304e-19 0)
(0 -4.05368e-19 0)
(0 -4.09339e-19 0)
(0 -4.15922e-19 0)
(0 -4.21495e-19 0)
(-3.67203e-31 -4.24511e-19 0)
(0 -4.28125e-19 0)
(0 -4.25563e-19 0)
(0 -4.2095e-19 0)
(-3.66899e-31 -4.18494e-19 0)
(0 -4.12866e-19 0)
(0 -4.10076e-19 0)
(0 -4.12582e-19 0)
(-7.33207e-31 -4.23475e-19 0)
(0 -4.52571e-19 0)
(0 -5.01572e-19 0)
(0 -5.6922e-19 0)
(0 -6.53725e-19 0)
(0 -7.34346e-19 0)
(0 -7.51733e-19 0)
(0 -6.74585e-19 0)
(0 -5.05481e-19 0)
(0 -3.11071e-19 0)
(3.65624e-31 -1.74706e-19 0)
(0 -1.07583e-19 0)
(0 -9.20635e-20 0)
(0 -8.29926e-20 0)
(0 -8.70711e-20 0)
(0 -9.89558e-20 0)
(0 -9.81448e-20 0)
(7.31005e-31 -1.10471e-19 0)
(0 -1.22319e-19 0)
(0 -1.27699e-19 0)
(0 -1.39424e-19 0)
(0 -1.44146e-19 0)
(0 -1.54911e-19 0)
(0 -1.77617e-19 0)
(0 -1.86942e-19 0)
(3.65286e-31 -1.9643e-19 0)
(0 -2.11929e-19 0)
(0 -2.26333e-19 0)
(0 -2.39671e-19 0)
(0 -2.57896e-19 0)
(0 -2.74505e-19 0)
(0 -2.89562e-19 0)
(0 -3.08764e-19 0)
(0 -3.19339e-19 0)
(0 -3.38806e-19 0)
(0 -3.5407e-19 0)
(0 -3.648e-19 0)
(0 -3.76917e-19 0)
(0 -3.84409e-19 0)
(0 -3.93652e-19 0)
(0 -4.05e-19 0)
(0 -4.19639e-19 0)
(0 -4.33491e-19 0)
(0 -4.46573e-19 0)
(0 -4.65959e-19 0)
(0 -4.88301e-19 0)
(0 -5.00146e-19 0)
(0 -5.14898e-19 0)
(0 -5.3182e-19 0)
(0 -5.45133e-19 0)
(0 -5.56239e-19 0)
(0 -5.65219e-19 0)
(0 -5.7841e-19 0)
(0 -5.92375e-19 0)
(0 -6.05701e-19 0)
(0 -6.20798e-19 0)
(0 -6.383e-19 0)
(0 -6.55054e-19 0)
(0 -6.71683e-19 0)
(0 -6.87874e-19 0)
(0 -7.03607e-19 0)
(0 -7.18617e-19 0)
(0 -7.3289e-19 0)
(0 -7.48004e-19 0)
(0 -7.63755e-19 0)
(0 -7.79969e-19 0)
(0 -7.97356e-19 0)
(0 -8.15748e-19 0)
(0 -8.34551e-19 0)
(0 -8.53812e-19 0)
(0 -8.73445e-19 0)
(0 -8.93352e-19 0)
(0 -9.13614e-19 0)
(0 -9.34424e-19 0)
(0 -9.55869e-19 0)
(0 -9.7802e-19 0)
(0 -1.00101e-18 0)
(0 -1.02485e-18 0)
(0 -1.04953e-18 0)
(0 -1.07512e-18 0)
(0 -1.10165e-18 0)
(0 -1.1292e-18 0)
(0 -1.15785e-18 0)
(0 -1.18767e-18 0)
(0 -1.21874e-18 0)
(0 -1.25113e-18 0)
(0 -1.2849e-18 0)
(0 -1.32012e-18 0)
(0 -1.35686e-18 0)
(0 -1.3952e-18 0)
(0 -1.43523e-18 0)
(0 -1.47702e-18 0)
(0 -1.52069e-18 0)
(0 -1.56634e-18 0)
(0 -1.61409e-18 0)
(0 -1.66405e-18 0)
(0 -1.71629e-18 0)
(0 -1.77091e-18 0)
(0 -1.82807e-18 0)
(0 -1.88819e-18 0)
(0 -1.95203e-18 0)
(0 -2.02074e-18 0)
(0 -2.09538e-18 0)
(0 -2.17605e-18 0)
(0 -2.26136e-18 0)
(0 -2.35006e-18 0)
(0 -2.44609e-18 0)
(0 -2.56178e-18 0)
(0 -2.1681e-18 0)
(0 -3.67478e-18 0)
(0 -2.14538e-17 0)
(0 -1.83298e-16 0)
(0 -1.74009e-15 0)
(0 -1.842e-14 0)
(0 -2.10535e-13 0)
(0 -2.44836e-12 0)
(0 -3.40796e-11 0)
(0 -6.45048e-10 0)
(0 -1.45282e-08 0)
(0 -4.58492e-07 0)
(0 -2.62235e-05 0)
(0 -0.0103282 0)
(0 -1.20801 0)
(0 -3.34857 0)
(0 -1.80176 0)
(0 -1.07414 0)
(0 -0.911264 0)
(0 -0.804493 0)
(0 -0.70821 0)
(0 -0.613474 0)
(0 -0.521802 0)
(0 -0.436504 0)
(0 -0.360123 0)
(0 -0.293861 0)
(0 -0.237774 0)
(0 -0.191165 0)
(0 -0.152924 0)
(0 -0.121828 0)
(0 -0.0966993 0)
(0 -0.0764929 0)
(0 -0.0603453 0)
(0 -0.0475671 0)
(0 -0.0375343 0)
(0 -0.0295453 0)
(0 -0.0229009 0)
(0 -0.0172226 0)
(0 -0.012547 0)
(0 -0.00900283 0)
(0 -0.00651875 0)
(0 -0.0048514 0)
(0 -0.00373907 0)
(0 -0.00298335 0)
(0 -0.00245467 0)
(0 -0.00207332 0)
(0 -0.00179098 0)
(0 -0.00157812 0)
(0 -0.0014165 0)
(0 -0.00129465 0)
(0 -0.00120478 0)
(0 -0.00114046 0)
(0 -0.00109319 0)
(0 -0.00104751 0)
(0 -0.000979144 0)
(0 -0.000865839 0)
(0 -0.00071169 0)
(0 -0.00055675 0)
(0 -0.000444196 0)
(0 -0.000377755 0)
(0 -0.000327901 0)
(0 -0.000275835 0)
(0 -0.000228985 0)
(0 -0.000195191 0)
(0 -0.00016858 0)
(0 -0.000142862 0)
(0 -0.000119099 0)
(0 -0.000101392 0)
(0 -9.01834e-05 0)
(-4.40457e-20 -7.87767e-05 0)
(0 -6.33443e-05 0)
(0 -5.13334e-05 0)
(1.98917e-20 -4.74414e-05 0)
(0 -4.29168e-05 0)
(-9.18617e-21 -3.2684e-05 0)
(0 -2.58717e-05 0)
(8.39016e-21 -2.46734e-05 0)
(0 -2.07176e-05 0)
(0 -1.54419e-05 0)
(0 -1.35044e-05 0)
(3.34547e-21 -1.15105e-05 0)
(0 -8.47736e-06 0)
(0 -7.25684e-06 0)
(0 -6.43954e-06 0)
(0 -4.61147e-06 0)
(0 -3.78768e-06 0)
(0 -3.99833e-06 0)
(0 -3.30153e-06 0)
(-1.26996e-21 -2.51455e-06 0)
(0 -2.36692e-06 0)
(-6.16296e-22 -1.90941e-06 0)
(0 -1.57939e-06 0)
(0 -1.40681e-06 0)
(0 -9.92378e-07 0)
(0 -8.48106e-07 0)
(2.52595e-22 -7.62892e-07 0)
(1.18164e-22 -5.07948e-07 0)
(0 -3.6751e-07 0)
(0 -2.2181e-07 0)
(0 -9.71064e-08 0)
(0 -8.98804e-08 0)
(0 -1.29632e-07 0)
(0 -1.67626e-07 0)
(0 -1.09486e-07 0)
(0 -1.93867e-08 0)
(0 -1.15164e-14 0)
(0 -3.58469e-18 0)
(0 -1.30982e-19 0)
(0 -2.67122e-21 0)
(0 -3.89983e-23 0)
(-8.02037e-41 -3.57464e-25 0)
(4.32576e-43 -1.87798e-27 0)
(0 -7.59027e-30 0)
(0 -3.6529e-32 0)
(-1.04966e-48 -7.54342e-34 0)
(0 -8.94936e-34 0)
(0 -1.41575e-33 0)
(-3.96394e-49 -1.88356e-33 0)
(0 -1.66941e-33 0)
(0 -8.619e-34 0)
(0 -3.23884e-34 0)
(0 -1.52667e-34 0)
(0 -1.07457e-34 0)
(0 -1.36678e-34 0)
(0 -1.57629e-34 0)
(0 -9.88669e-35 0)
(0 -3.16283e-35 0)
(0 -1.07053e-35 0)
(0 -4.35245e-36 0)
(0 -2.02502e-36 0)
(0 -1.02253e-36 0)
(0 -5.8648e-37 0)
(0 -4.2017e-37 0)
(7.01681e-53 -3.3159e-37 0)
(0 -2.06951e-37 0)
(0 -9.15341e-38 0)
(0 -4.20733e-38 0)
(0 -2.16521e-38 0)
(0 -1.30096e-38 0)
(0 -8.05033e-39 0)
(0 -3.99448e-39 0)
(0 -1.83606e-39 0)
(0 -9.11168e-40 0)
(0 -4.52651e-40 0)
(0 -2.2095e-40 0)
(0 -1.05536e-40 0)
(0 -4.92566e-41 0)
(0 -2.24398e-41 0)
(0 -9.96744e-42 0)
(0 -4.31181e-42 0)
(0 -1.81434e-42 0)
(0 -7.41647e-43 0)
(0 -2.94102e-43 0)
(2.23859e-59 -1.12974e-43 0)
(0 -4.19705e-44 0)
(0 -1.50539e-44 0)
(0 -5.20334e-45 0)
(0 -1.72963e-45 0)
(0 -5.51686e-46 0)
(0 -1.68432e-46 0)
(0 -4.90864e-47 0)
(0 -1.36138e-47 0)
(0 -3.58084e-48 0)
(1.397e-64 -8.89815e-49 0)
(0 -2.07969e-49 0)
(0 -4.5485e-50 0)
(-1.02756e-66 -9.25394e-51 0)
(0 -1.7391e-51 0)
(0 -2.99369e-52 0)
(0 -4.67199e-53 0)
(0 -6.52549e-54 0)
(0 -8.02299e-55 0)
(0 -8.49228e-56 0)
(0 -7.50041e-57 0)
(0 -5.27084e-58 0)
(0 -2.71767e-59 0)
(0 -8.66405e-61 0)
(0 -9.38712e-63 0)
(0 -1.54248e-65 0)
(0 -2.42054e-67 0)
(0 -1.88455e-69 0)
(0 -3.01474e-80 0)
(0 -2.43961e-91 0)
(0 -1.49855e-102 0)
(0 -6.73032e-114 0)
(0 -2.67622e-125 0)
(0 -8.84629e-137 0)
(0 -3.38773e-148 0)
(0 -2.10742e-156 0)
(0 -5.29705e-167 0)
(0 -7.25924e-175 0)
(0 -1.71745e-185 0)
(0 -2.49729e-193 0)
(0 -7.36796e-204 0)
(0 -8.58921e-212 0)
(0 -3.32044e-222 0)
(0 -2.95657e-230 0)
(0 -2.25804e-240 0)
(0 -1.02731e-248 0)
(0 -1.50606e-258 0)
(0 -3.6225e-267 0)
(0 -7.59418e-277 0)
(0 -1.29579e-285 0)
(0 -3.59629e-295 0)
(0 -4.69991e-304 0)
(0 -1.58547e-313 0)
(0 -1.72923e-322 0)
(0 -0 0)
(0 0 0)
(0 0 0)
(0 0 0)
(0 0 0)
(0 0 0)
(0 0 0)
(0 0 0)
(0 0 0)
(0 0 0)
(0 0 0)
(0 0 0)
(0 0 0)
(0 0 0)
(0 0 0)
(0 0 0)
(0 0 0)
(0 0 0)
(0 0 0)
(0 0 0)
)
;

boundaryField
{
    inandouthalf11
    {
        type            cyclic;
    }
    inandouthalf12
    {
        type            cyclic;
    }
    inandouthalf21
    {
        type            cyclic;
    }
    inandouthalf22
    {
        type            cyclic;
    }
    inandouthalf31
    {
        type            cyclic;
    }
    inandouthalf32
    {
        type            cyclic;
    }
    inandouthalf41
    {
        type            cyclic;
    }
    inandouthalf42
    {
        type            cyclic;
    }
    top
    {
        type            symmetryPlane;
    }
    walls
    {
        type            zeroGradient;
    }
    frontAndBackPlanes
    {
        type            empty;
    }
}


// ************************************************************************* //
