/*--------------------------------*- C++ -*----------------------------------*\
| =========                 |                                                 |
| \\      /  F ield         | OpenFOAM: The Open Source CFD Toolbox           |
|  \\    /   O peration     | Version:  2.4.x                                 |
|   \\  /    A nd           | Web:      www.OpenFOAM.org                      |
|    \\/     M anipulation  |                                                 |
\*---------------------------------------------------------------------------*/
FoamFile
{
    version     2.0;
    format      ascii;
    class       volTensorField;
    location    "4.2";
    object      Taus;
}
// * * * * * * * * * * * * * * * * * * * * * * * * * * * * * * * * * * * * * //

dimensions      [0 2 -2 0 0 0 0];

internalField   nonuniform List<tensor> 
360
(
(0 -0.0169729 0 -0.0169729 -0.181167 0 0 0 0)
(0 -0.0223179 0 -0.0223179 -0.210017 0 0 0 0)
(0 -0.0267015 0 -0.0267015 -0.218028 0 0 0 0)
(0 -0.0271794 0 -0.0271794 -0.215304 0 0 0 0)
(1.07096e-17 -0.0265415 0 -0.0265415 -0.212408 0 0 0 0)
(2.06265e-17 -0.0262223 0 -0.0262223 -0.210564 0 0 0 0)
(9.97159e-18 -0.0260728 0 -0.0260728 -0.208913 0 0 0 0)
(0 -0.0259674 0 -0.0259674 -0.207303 0 0 0 0)
(1.91744e-17 -0.0258938 0 -0.0258938 -0.205792 0 0 0 0)
(0 -0.0258093 0 -0.0258093 -0.204239 0 0 0 0)
(1.86119e-17 -0.0256954 0 -0.0256954 -0.202615 0 0 0 0)
(0 -0.0255661 0 -0.0255661 -0.200972 0 0 0 0)
(3.56416e-17 -0.0254313 0 -0.0254313 -0.199315 0 0 0 0)
(0 -0.0253012 0 -0.0253012 -0.197677 0 0 0 0)
(0 -0.0251737 0 -0.0251737 -0.196046 0 0 0 0)
(0 -0.0250422 0 -0.0250422 -0.194406 0 0 0 0)
(0 -0.0249054 0 -0.0249054 -0.192755 0 0 0 0)
(6.38982e-17 -0.0247673 0 -0.0247673 -0.191104 0 0 0 0)
(0 -0.0246306 0 -0.0246306 -0.189461 0 0 0 0)
(0 -0.024497 0 -0.024497 -0.187811 0 0 0 0)
(0 -0.0243799 0 -0.0243799 -0.186211 0 0 0 0)
(6.28403e-17 -0.024273 0 -0.024273 -0.184614 0 0 0 0)
(0 -0.0241807 0 -0.0241807 -0.183047 0 0 0 0)
(0 -0.0241025 0 -0.0241025 -0.181504 0 0 0 0)
(0 -0.0240311 0 -0.0240311 -0.179968 0 0 0 0)
(5.95956e-17 -0.0239549 0 -0.0239549 -0.178421 0 0 0 0)
(0 -0.0238515 0 -0.0238515 -0.176835 0 0 0 0)
(0 -0.0236846 0 -0.0236846 -0.175135 0 0 0 0)
(0 -0.0234257 0 -0.0234257 -0.173293 0 0 0 0)
(0 -0.023049 0 -0.023049 -0.171252 0 0 0 0)
(0 -0.0225561 0 -0.0225561 -0.168993 0 0 0 0)
(0 -0.0220087 0 -0.0220087 -0.166574 0 0 0 0)
(0 -0.0215369 0 -0.0215369 -0.164323 0 0 0 0)
(0 -0.0212466 0 -0.0212466 -0.162457 0 0 0 0)
(0 -0.0212232 0 -0.0212232 -0.161258 0 0 0 0)
(-2.06106e-16 -0.0214484 0 -0.0214484 -0.160522 0 0 0 0)
(0 -0.02186 0 -0.02186 -0.160024 0 0 0 0)
(0 -0.0223804 0 -0.0223804 -0.159508 0 0 0 0)
(0 -0.0229667 0 -0.0229667 -0.158882 0 0 0 0)
(0 -0.0236347 0 -0.0236347 -0.158204 0 0 0 0)
(0 -0.0243582 0 -0.0243582 -0.157378 0 0 0 0)
(0 -0.0251257 0 -0.0251257 -0.156531 0 0 0 0)
(-1.62657e-13 -0.0258905 0 -0.0258905 -0.155708 0 0 0 0)
(0 -0.0265897 0 -0.0265897 -0.154869 0 0 0 0)
(0 -0.0272369 0 -0.0272369 -0.154093 0 0 0 0)
(0 -0.0278375 0 -0.0278375 -0.153322 0 0 0 0)
(0 -0.0284079 0 -0.0284079 -0.152539 0 0 0 0)
(0 -0.0289657 0 -0.0289657 -0.151769 0 0 0 0)
(0 -0.0294884 0 -0.0294884 -0.150935 0 0 0 0)
(0 -0.0299795 0 -0.0299795 -0.150036 0 0 0 0)
(-3.53761e-14 -0.0304632 0 -0.0304632 -0.149143 0 0 0 0)
(0 -0.0309184 0 -0.0309184 -0.148182 0 0 0 0)
(0 -0.031348 0 -0.031348 -0.147199 0 0 0 0)
(0 -0.0317456 0 -0.0317456 -0.146164 0 0 0 0)
(0 -0.0321158 0 -0.0321158 -0.145119 0 0 0 0)
(0 -0.0324415 0 -0.0324415 -0.144003 0 0 0 0)
(0 -0.0327427 0 -0.0327427 -0.142891 0 0 0 0)
(0 -0.0330034 0 -0.0330034 -0.141721 0 0 0 0)
(0 -0.0332382 0 -0.0332382 -0.140533 0 0 0 0)
(0 -0.0334493 0 -0.0334493 -0.139335 0 0 0 0)
(0 -0.0336207 0 -0.0336207 -0.138074 0 0 0 0)
(0 -0.0337789 0 -0.0337789 -0.136825 0 0 0 0)
(0 -0.0339138 0 -0.0339138 -0.135534 0 0 0 0)
(0 -0.0340392 0 -0.0340392 -0.134243 0 0 0 0)
(0 -0.0341528 0 -0.0341528 -0.132932 0 0 0 0)
(0 -0.0342541 0 -0.0342541 -0.131615 0 0 0 0)
(0 -0.0343335 0 -0.0343335 -0.130273 0 0 0 0)
(0 -0.0343906 0 -0.0343906 -0.128914 0 0 0 0)
(0 -0.0344276 0 -0.0344276 -0.127537 0 0 0 0)
(0 -0.034442 0 -0.034442 -0.12615 0 0 0 0)
(0 -0.034418 0 -0.034418 -0.124726 0 0 0 0)
(0 -0.0343687 0 -0.0343687 -0.123279 0 0 0 0)
(0 -0.03431 0 -0.03431 -0.121837 0 0 0 0)
(0 -0.034226 0 -0.034226 -0.120359 0 0 0 0)
(0 -0.0341284 0 -0.0341284 -0.11888 0 0 0 0)
(0 -0.0340175 0 -0.0340175 -0.117378 0 0 0 0)
(0 -0.0339047 0 -0.0339047 -0.115878 0 0 0 0)
(0 -0.0337837 0 -0.0337837 -0.114367 0 0 0 0)
(0 -0.0336504 0 -0.0336504 -0.112845 0 0 0 0)
(0 -0.0335049 0 -0.0335049 -0.111312 0 0 0 0)
(0 -0.0333482 0 -0.0333482 -0.109773 0 0 0 0)
(0 -0.0331744 0 -0.0331744 -0.108221 0 0 0 0)
(0 -0.0329838 0 -0.0329838 -0.106659 0 0 0 0)
(0 -0.0327785 0 -0.0327785 -0.105089 0 0 0 0)
(0 -0.0325597 0 -0.0325597 -0.103509 0 0 0 0)
(0 -0.0323301 0 -0.0323301 -0.101922 0 0 0 0)
(0 -0.0320909 0 -0.0320909 -0.100328 0 0 0 0)
(0 -0.0318453 0 -0.0318453 -0.0987289 0 0 0 0)
(0 -0.0315938 0 -0.0315938 -0.0971251 0 0 0 0)
(0 -0.0313353 0 -0.0313353 -0.0955157 0 0 0 0)
(0 -0.03107 0 -0.03107 -0.0939015 0 0 0 0)
(0 -0.0307972 0 -0.0307972 -0.0922829 0 0 0 0)
(0 -0.0305154 0 -0.0305154 -0.0906587 0 0 0 0)
(0 -0.0302247 0 -0.0302247 -0.0890299 0 0 0 0)
(0 -0.0299254 0 -0.0299254 -0.0873967 0 0 0 0)
(0 -0.029618 0 -0.029618 -0.0857592 0 0 0 0)
(0 -0.0293031 0 -0.0293031 -0.0841179 0 0 0 0)
(0 -0.0289815 0 -0.0289815 -0.0824731 0 0 0 0)
(0 -0.0286538 0 -0.0286538 -0.0808251 0 0 0 0)
(0 -0.0283201 0 -0.0283201 -0.0791739 0 0 0 0)
(0 -0.0279808 0 -0.0279808 -0.0775197 0 0 0 0)
(0 -0.0276359 0 -0.0276359 -0.0758628 0 0 0 0)
(0 -0.0272855 0 -0.0272855 -0.074203 0 0 0 0)
(0 -0.0269299 0 -0.0269299 -0.0725406 0 0 0 0)
(0 -0.0265691 0 -0.0265691 -0.0708758 0 0 0 0)
(0 -0.0262035 0 -0.0262035 -0.0692086 0 0 0 0)
(0 -0.0258332 0 -0.0258332 -0.0675391 0 0 0 0)
(0 -0.0254585 0 -0.0254585 -0.0658675 0 0 0 0)
(0 -0.0250795 0 -0.0250795 -0.0641937 0 0 0 0)
(0 -0.0246964 0 -0.0246964 -0.0625178 0 0 0 0)
(0 -0.0243096 0 -0.0243096 -0.0608399 0 0 0 0)
(0 -0.0239191 0 -0.0239191 -0.05916 0 0 0 0)
(0 -0.0235254 0 -0.0235254 -0.057478 0 0 0 0)
(0 -0.0231287 0 -0.0231287 -0.0557939 0 0 0 0)
(0 -0.0227295 0 -0.0227295 -0.0541076 0 0 0 0)
(0 -0.0223281 0 -0.0223281 -0.0524191 0 0 0 0)
(0 -0.0219251 0 -0.0219251 -0.0507281 0 0 0 0)
(0 -0.0215209 0 -0.0215209 -0.0490346 0 0 0 0)
(0 -0.021116 0 -0.021116 -0.0473383 0 0 0 0)
(0 -0.020711 0 -0.020711 -0.0456389 0 0 0 0)
(0 -0.0203062 0 -0.0203062 -0.0439363 0 0 0 0)
(0 -0.0199024 0 -0.0199024 -0.0422299 0 0 0 0)
(0 -0.0195001 0 -0.0195001 -0.0405195 0 0 0 0)
(0 -0.0190999 0 -0.0190999 -0.0388046 0 0 0 0)
(0 -0.0187024 0 -0.0187024 -0.0370845 0 0 0 0)
(0 -0.0183076 0 -0.0183076 -0.0353586 0 0 0 0)
(0 -0.017915 0 -0.017915 -0.0336263 0 0 0 0)
(0 -0.0175235 0 -0.0175235 -0.0318869 0 0 0 0)
(0 -0.0171316 0 -0.0171316 -0.0301393 0 0 0 0)
(0 -0.0167393 0 -0.0167393 -0.028382 0 0 0 0)
(0 -0.0163481 0 -0.0163481 -0.0266124 0 0 0 0)
(0 -0.0159596 0 -0.0159596 -0.0248278 0 0 0 0)
(0 -0.0155695 0 -0.0155695 -0.0230272 0 0 0 0)
(0 -0.0151655 0 -0.0151655 -0.0212122 0 0 0 0)
(0 -0.0147378 0 -0.0147378 -0.0193836 0 0 0 0)
(0 -0.0142941 0 -0.0142941 -0.0175367 0 0 0 0)
(0 -0.0138464 0 -0.0138464 -0.0156652 0 0 0 0)
(0 -0.013374 0 -0.013374 -0.0137849 0 0 0 0)
(0 -0.0128121 0 -0.0128121 -0.0119531 0 0 0 0)
(0 -0.012123 0 -0.012123 -0.0101938 0 0 0 0)
(0 -0.0114152 0 -0.0114152 -0.00838977 0 0 0 0)
(0 -0.010842 0 -0.010842 -0.00642958 0 0 0 0)
(0 -0.0101506 0 -0.0101506 -0.00420803 0 0 0 0)
(0 -0.00920526 0 -0.00920526 -0.00154177 0 0 0 0)
(0 -0.00787623 0 -0.00787623 0.00218191 0 0 0 0)
(0 -0.00583139 0 -0.00583139 0.00376725 0 0 0 0)
(0 -0.00335032 0 -0.00335032 0.000627968 0 0 0 0)
(0 -0.00189066 0 -0.00189066 3.4964e-05 0 0 0 0)
(0 -0.00294486 0 -0.00294486 3.66671e-05 0 0 0 0)
(0 -0.00319854 0 -0.00319854 2.27609e-05 0 0 0 0)
(0 -0.0027207 0 -0.0027207 1.56468e-05 0 0 0 0)
(0 -0.00241539 0 -0.00241539 1.46551e-05 0 0 0 0)
(0 -0.0022552 0 -0.0022552 1.72346e-05 0 0 0 0)
(0 -0.00221037 0 -0.00221037 2.07368e-05 0 0 0 0)
(0 -0.00226117 0 -0.00226117 2.57667e-05 0 0 0 0)
(0 -0.00239649 0 -0.00239649 3.28582e-05 0 0 0 0)
(0 -0.00261107 0 -0.00261107 4.26043e-05 0 0 0 0)
(0 -0.0029034 0 -0.0029034 5.57121e-05 0 0 0 0)
(0 -0.00327464 0 -0.00327464 7.30519e-05 0 0 0 0)
(0 -0.00372722 0 -0.00372722 9.56515e-05 0 0 0 0)
(0 -0.00426425 0 -0.00426425 0.000124666 0 0 0 0)
(0 -0.00488847 0 -0.00488847 0.000161218 0 0 0 0)
(0 -0.00560135 0 -0.00560135 0.000206124 0 0 0 0)
(0 -0.00640257 0 -0.00640257 0.000259482 0 0 0 0)
(0 -0.0072896 0 -0.0072896 0.000319666 0 0 0 0)
(0 -0.00825907 0 -0.00825907 0.000379543 0 0 0 0)
(0 -0.00931233 0 -0.00931233 0.000415418 0 0 0 0)
(0 -0.0104707 0 -0.0104707 0.00036878 0 0 0 0)
(0 -0.0117909 0 -0.0117909 0.000139286 0 0 0 0)
(0 -0.0133467 0 -0.0133467 -0.000380239 0 0 0 0)
(0 -0.0151518 0 -0.0151518 -0.00122569 0 0 0 0)
(0 -0.0170841 0 -0.0170841 -0.00229682 0 0 0 0)
(0 -0.0189143 0 -0.0189143 -0.00338428 0 0 0 0)
(0 -0.0204226 0 -0.0204226 -0.0042818 0 0 0 0)
(0 -0.0214797 0 -0.0214797 -0.00487082 0 0 0 0)
(0 -0.0220462 0 -0.0220462 -0.00512037 0 0 0 0)
(0 -0.022139 0 -0.022139 -0.00504887 0 0 0 0)
(0 -0.0218022 0 -0.0218022 -0.00469353 0 0 0 0)
(0 -0.0210904 0 -0.0210904 -0.00409617 0 0 0 0)
(0 -0.0200611 0 -0.0200611 -0.00329955 0 0 0 0)
(0 -0.0187712 0 -0.0187712 -0.00234837 0 0 0 0)
(0 -0.017276 0 -0.017276 -0.00129257 0 0 0 0)
(0 -0.0156286 0 -0.0156286 -0.000192298 0 0 0 0)
(0 -0.0138802 0 -0.0138802 0.000875527 0 0 0 0)
(0 -0.0120796 0 -0.0120796 0.00180906 0 0 0 0)
(0 -0.0102714 0 -0.0102714 0.00247429 0 0 0 0)
(0 -0.00848777 0 -0.00848777 0.00271194 0 0 0 0)
(0 -0.00673339 0 -0.00673339 0.00238418 0 0 0 0)
(0 -0.00497121 0 -0.00497121 0.00148432 0 0 0 0)
(0 -0.00313927 0 -0.00313927 0.000252948 0 0 0 0)
(0 -0.00121286 0 -0.00121286 -0.000905014 0 0 0 0)
(0 0.000697919 0 0.000697919 -0.00171969 0 0 0 0)
(0 0.00262703 0 0.00262703 -0.00246368 0 0 0 0)
(0 0.00462998 0 0.00462998 -0.00341619 0 0 0 0)
(0 0.00658068 0 0.00658068 -0.00442656 0 0 0 0)
(0 0.00844404 0 0.00844404 -0.00536892 0 0 0 0)
(0 0.0102056 0 0.0102056 -0.00625507 0 0 0 0)
(0 0.0118756 0 0.0118756 -0.00720867 0 0 0 0)
(0 0.0134161 0 0.0134161 -0.0082007 0 0 0 0)
(0 0.014758 0 0.014758 -0.00908166 0 0 0 0)
(0 0.0158821 0 0.0158821 -0.00981963 0 0 0 0)
(0 0.0169234 0 0.0169234 -0.0106404 0 0 0 0)
(8.31388e-15 0.0180003 0 0.0180003 -0.0117112 0 0 0 0)
(0 0.0189713 0 0.0189713 -0.0126925 0 0 0 0)
(0 0.0197041 0 0.0197041 -0.0132357 0 0 0 0)
(-1.72117e-14 0.0204415 0 0.0204415 -0.013838 0 0 0 0)
(0 0.0214011 0 0.0214011 -0.0150423 0 0 0 0)
(1.74354e-14 0.022236 0 0.022236 -0.0161511 0 0 0 0)
(0 0.0227067 0 0.0227067 -0.0165456 0 0 0 0)
(-1.72686e-14 0.0233074 0 0.0233074 -0.0171696 0 0 0 0)
(0 0.0241175 0 0.0241175 -0.0183268 0 0 0 0)
(0 0.0246515 0 0.0246515 -0.0190053 0 0 0 0)
(0 0.0250973 0 0.0250973 -0.019411 0 0 0 0)
(-1.65451e-14 0.0257359 0 0.0257359 -0.0201649 0 0 0 0)
(0 0.0261781 0 0.0261781 -0.0205212 0 0 0 0)
(0 0.0265385 0 0.0265385 -0.0204929 0 0 0 0)
(0 0.0273079 0 0.0273079 -0.0210054 0 0 0 0)
(0 0.0279874 0 0.0279874 -0.02128 0 0 0 0)
(0 0.0282638 0 0.0282638 -0.0206631 0 0 0 0)
(1.43937e-14 0.0289897 0 0.0289897 -0.0206694 0 0 0 0)
(0 0.0300753 0 0.0300753 -0.0213771 0 0 0 0)
(1.35249e-14 0.0307765 0 0.0307765 -0.0214688 0 0 0 0)
(0 0.03156 0 0.03156 -0.0216799 0 0 0 0)
(1.25954e-14 0.0324592 0 0.0324592 -0.0222226 0 0 0 0)
(0 0.0332334 0 0.0332334 -0.0226051 0 0 0 0)
(0 0.0342948 0 0.0342948 -0.0235804 0 0 0 0)
(0 0.035027 0 0.035027 -0.0243063 0 0 0 0)
(0 0.0354573 0 0.0354573 -0.024641 0 0 0 0)
(-1.00275e-14 0.0364846 0 0.0364846 -0.0261542 0 0 0 0)
(0 0.0372 0 0.0372 -0.0276387 0 0 0 0)
(0 0.0368923 0 0.0368923 -0.0280812 0 0 0 0)
(0 0.035001 0 0.035001 -0.0270066 0 0 0 0)
(0 0.0303845 0 0.0303845 -0.0227599 0 0 0 0)
(0 0.0238968 0 0.0238968 -0.0165076 0 0 0 0)
(0 0.0172624 0 0.0172624 -0.0104046 0 0 0 0)
(0 0.0146131 0 0.0146131 -0.00912773 0 0 0 0)
(0 0 0 0 -0 0 0 0 0)
(0 0 0 0 -0 0 0 0 0)
(0 0 0 0 -0 0 0 0 0)
(0 0 0 0 0 0 0 0 0)
(0 0 0 0 0 0 0 0 0)
(0 0 0 0 0 0 0 0 0)
(0 0 0 0 -0 0 0 0 0)
(0 0 0 0 0 0 0 0 0)
(-0 0 0 0 -0 0 0 0 0)
(0 0 0 0 -0 0 0 0 0)
(0 0 0 0 -0 0 0 0 0)
(0 0 0 0 -0 0 0 0 0)
(0 0 0 0 -0 0 0 0 0)
(0 0 0 0 -0 0 0 0 0)
(0 0 0 0 -0 0 0 0 0)
(0 0 0 0 -0 0 0 0 0)
(0 0 0 0 -0 0 0 0 0)
(0 0 0 0 -0 0 0 0 0)
(0 0 0 0 -0 0 0 0 0)
(0 0 0 0 -0 0 0 0 0)
(0 0 0 0 -0 0 0 0 0)
(0 0 0 0 0 0 0 0 0)
(0 0 0 0 -0 0 0 0 0)
(0 0 0 0 0 0 0 0 0)
(0 0 0 0 -0 0 0 0 0)
(0 0 0 0 0 0 0 0 0)
(0 0 0 0 -0 0 0 0 0)
(0 0 0 0 0 0 0 0 0)
(0 0 0 0 -0 0 0 0 0)
(0 0 0 0 0 0 0 0 0)
(-0 0 0 0 -0 0 0 0 0)
(0 0 0 0 0 0 0 0 0)
(0 0 0 0 0 0 0 0 0)
(0 0 0 0 -0 0 0 0 0)
(0 0 0 0 0 0 0 0 0)
(0 0 0 0 0 0 0 0 0)
(0 0 0 0 -0 0 0 0 0)
(0 0 0 0 0 0 0 0 0)
(0 0 0 0 -0 0 0 0 0)
(0 0 0 0 0 0 0 0 0)
(0 0 0 0 -0 0 0 0 0)
(0 0 0 0 0 0 0 0 0)
(0 0 0 0 -0 0 0 0 0)
(0 0 0 0 0 0 0 0 0)
(0 0 0 0 -0 0 0 0 0)
(0 0 0 0 0 0 0 0 0)
(0 0 0 0 -0 0 0 0 0)
(0 0 0 0 0 0 0 0 0)
(0 0 0 0 -0 0 0 0 0)
(0 0 0 0 0 0 0 0 0)
(-0 0 0 0 -0 0 0 0 0)
(0 0 0 0 0 0 0 0 0)
(0 0 0 0 -0 0 0 0 0)
(0 0 0 0 0 0 0 0 0)
(0 0 0 0 -0 0 0 0 0)
(0 -0 0 -0 0 0 0 0 0)
(0 0 0 0 -0 0 0 0 0)
(0 -0 0 -0 0 0 0 0 0)
(0 0 0 0 -0 0 0 0 0)
(0 -0 0 -0 0 0 0 0 0)
(-0 0 0 0 -0 0 0 0 0)
(0 -0 0 -0 0 0 0 0 0)
(0 0 0 0 -0 0 0 0 0)
(0 -0 0 -0 0 0 0 0 0)
(0 0 0 0 -0 0 0 0 0)
(0 -0 0 -0 0 0 0 0 0)
(0 0 0 0 -0 0 0 0 0)
(0 -0 0 -0 0 0 0 0 0)
(0 0 0 0 -0 0 0 0 0)
(0 -0 0 -0 0 0 0 0 0)
(0 0 0 0 -0 0 0 0 0)
(0 -0 0 -0 0 0 0 0 0)
(0 0 0 0 -0 0 0 0 0)
(0 -0 0 -0 0 0 0 0 0)
(0 -0 0 -0 0 0 0 0 0)
(0 -0 0 -0 0 0 0 0 0)
(0 0 0 0 -0 0 0 0 0)
(0 -0 0 -0 0 0 0 0 0)
(0 0 0 0 -0 0 0 0 0)
(0 -0 0 -0 0 0 0 0 0)
(0 0 0 0 -0 0 0 0 0)
(0 -0 0 -0 0 0 0 0 0)
(0 0 0 0 -0 0 0 0 0)
(0 -0 0 -0 0 0 0 0 0)
(0 0 0 0 -0 0 0 0 0)
(0 -0 0 -0 0 0 0 0 0)
(0 0 0 0 -0 0 0 0 0)
(0 -0 0 -0 0 0 0 0 0)
(0 0 0 0 -0 0 0 0 0)
(0 -0 0 -0 0 0 0 0 0)
(0 0 0 0 -0 0 0 0 0)
(0 -0 0 -0 0 0 0 0 0)
(0 0 0 0 -0 0 0 0 0)
(0 -0 0 -0 0 0 0 0 0)
(0 0 0 0 -0 0 0 0 0)
(0 -0 0 -0 0 0 0 0 0)
(0 0 0 0 -0 0 0 0 0)
(0 -0 0 -0 0 0 0 0 0)
(0 0 0 0 -0 0 0 0 0)
(0 -0 0 -0 0 0 0 0 0)
(0 0 0 0 -0 0 0 0 0)
(0 -0 0 -0 0 0 0 0 0)
(0 0 0 0 -0 0 0 0 0)
(0 -0 0 -0 0 0 0 0 0)
(0 0 0 0 -0 0 0 0 0)
(0 -0 0 -0 0 0 0 0 0)
(0 0 0 0 -0 0 0 0 0)
(0 -0 0 -0 0 0 0 0 0)
(0 0 0 0 -0 0 0 0 0)
(0 -0 0 -0 0 0 0 0 0)
(0 0 0 0 -0 0 0 0 0)
(0 -0 0 -0 0 0 0 0 0)
(0 0 0 0 -0 0 0 0 0)
(0 -0 0 -0 0 0 0 0 0)
(0 0 0 0 -0 0 0 0 0)
(0 0 0 0 0 0 0 0 0)
(0 0 0 0 0 0 0 0 0)
(0 0 0 0 0 0 0 0 0)
(0 0 0 0 0 0 0 0 0)
(0 0 0 0 0 0 0 0 0)
(0 0 0 0 0 0 0 0 0)
(0 0 0 0 0 0 0 0 0)
(0 0 0 0 0 0 0 0 0)
(0 0 0 0 0 0 0 0 0)
)
;

boundaryField
{
    inandouthalf11
    {
        type            cyclic;
    }
    inandouthalf12
    {
        type            cyclic;
    }
    inandouthalf21
    {
        type            cyclic;
    }
    inandouthalf22
    {
        type            cyclic;
    }
    inandouthalf31
    {
        type            cyclic;
    }
    inandouthalf32
    {
        type            cyclic;
    }
    inandouthalf41
    {
        type            cyclic;
    }
    inandouthalf42
    {
        type            cyclic;
    }
    top
    {
        type            symmetryPlane;
    }
    walls
    {
        type            zeroGradient;
    }
    frontAndBackPlanes
    {
        type            empty;
    }
}


// ************************************************************************* //
