/*--------------------------------*- C++ -*----------------------------------*\
| =========                 |                                                 |
| \\      /  F ield         | OpenFOAM: The Open Source CFD Toolbox           |
|  \\    /   O peration     | Version:  2.4.x                                 |
|   \\  /    A nd           | Web:      www.OpenFOAM.org                      |
|    \\/     M anipulation  |                                                 |
\*---------------------------------------------------------------------------*/
FoamFile
{
    version     2.0;
    format      ascii;
    class       volScalarField;
    location    "4.2";
    object      Theta_0;
}
// * * * * * * * * * * * * * * * * * * * * * * * * * * * * * * * * * * * * * //

dimensions      [0 2 -2 0 0 0 0];

internalField   nonuniform List<scalar> 
360
(
6.67375e-21
6.71199e-21
6.70488e-21
6.69631e-21
6.69604e-21
6.69811e-21
6.70006e-21
6.70133e-21
6.70199e-21
6.70247e-21
6.70317e-21
6.70421e-21
6.7055e-21
6.70689e-21
6.7083e-21
6.70968e-21
6.71092e-21
6.71187e-21
6.71234e-21
6.71218e-21
6.71135e-21
6.71008e-21
6.70878e-21
6.70808e-21
6.70879e-21
6.71205e-21
6.71952e-21
6.73379e-21
6.75826e-21
6.79473e-21
6.8347e-21
6.84846e-21
6.80625e-21
6.73232e-21
6.68166e-21
6.66471e-21
6.6617e-21
6.66138e-21
6.66136e-21
6.66136e-21
6.66136e-21
6.66136e-21
6.66136e-21
6.66135e-21
6.66135e-21
6.66135e-21
6.66135e-21
6.66135e-21
6.66135e-21
6.66135e-21
6.66135e-21
6.66135e-21
6.66135e-21
6.66135e-21
6.66135e-21
6.66135e-21
6.66135e-21
6.66135e-21
6.66135e-21
6.66135e-21
6.66135e-21
6.66135e-21
6.66135e-21
6.66135e-21
6.66135e-21
6.66135e-21
6.66135e-21
6.66134e-21
6.66134e-21
6.66134e-21
6.66134e-21
6.66134e-21
6.66134e-21
6.66134e-21
6.66134e-21
6.66134e-21
6.66134e-21
6.66134e-21
6.66134e-21
6.66133e-21
6.66133e-21
6.66133e-21
6.66133e-21
6.66133e-21
6.66133e-21
6.66133e-21
6.66133e-21
6.66133e-21
6.66132e-21
6.66132e-21
6.66132e-21
6.66132e-21
6.66132e-21
6.66132e-21
6.66132e-21
6.66132e-21
6.66131e-21
6.66131e-21
6.66131e-21
6.66124e-21
0
0
0
0
0
0
0
0
0
0
0
0
0
0
0
6.66128e-21
6.66128e-21
6.66127e-21
6.66127e-21
6.66127e-21
6.66127e-21
6.66126e-21
6.66126e-21
6.66126e-21
6.66125e-21
6.66125e-21
6.66125e-21
6.66124e-21
6.66124e-21
6.66124e-21
6.66123e-21
6.66123e-21
6.66123e-21
7.02964e-21
1.82641e-20
1.25983e-19
1.17878e-18
1.20121e-17
1.33014e-16
1.63155e-15
2.26185e-14
3.61136e-13
6.76484e-12
1.52792e-10
6.35328e-09
6.06365e-07
2.08575e-05
0.000274305
0.00168064
0.00323246
0.0039188
0.00431067
0.0045645
0.00473976
0.00485924
0.00493151
0.00496009
0.00494731
0.00489636
0.00481113
0.00469695
0.00455977
0.00440576
0.00424116
0.00407188
0.00390343
0.00374048
0.00358672
0.00344455
0.00331505
0.00319806
0.00309265
0.00299759
0.00291167
0.00283383
0.00276316
0.00269883
0.00264015
0.00258647
0.00253722
0.00249188
0.00244998
0.0024111
0.00237484
0.00234085
0.0023088
0.00227837
0.00224927
0.00222124
0.00219406
0.00216752
0.00214149
0.00211586
0.00209054
0.00206544
0.00204051
0.0020157
0.00199097
0.00196627
0.00194158
0.00191687
0.00189187
0.0018663
0.00184012
0.00181332
0.00178584
0.00175766
0.00172874
0.00169904
0.00166853
0.00163717
0.00160491
0.0015717
0.00153749
0.00150224
0.00146589
0.00142836
0.0013896
0.00134952
0.00130805
0.00126507
0.00122049
0.00117418
0.001126
0.00107578
0.00102332
0.000968382
0.000910687
0.000849877
0.000785495
0.000716944
0.000643411
0.000563726
0.000476077
0.000377285
0.000260418
0
0
0
0
0
0
0
0
0
0
0
0
0
0
0
0
0
0
0
0
0
0
0
0
0
0
0
0
0
0
0
0
0
0
0
0
0
0
0
0
0
0
0
0
0
0
0
0
0
0
0
0
0
0
0
0
0
0
0
0
0
0
0
0
0
0
0
0
0
0
0
0
0
0
0
0
0
0
0
0
0
0
0
0
0
0
0
0
0
0
0
0
0
0
0
0
0
0
0
0
0
0
0
0
0
0
0
0
0
0
0
0
0
0
0
0
0
0
0
0
0
0
0
0
)
;

boundaryField
{
    inandouthalf11
    {
        type            cyclic;
    }
    inandouthalf12
    {
        type            cyclic;
    }
    inandouthalf21
    {
        type            cyclic;
    }
    inandouthalf22
    {
        type            cyclic;
    }
    inandouthalf31
    {
        type            cyclic;
    }
    inandouthalf32
    {
        type            cyclic;
    }
    inandouthalf41
    {
        type            cyclic;
    }
    inandouthalf42
    {
        type            cyclic;
    }
    top
    {
        type            symmetryPlane;
    }
    walls
    {
        type            zeroGradient;
    }
    frontAndBackPlanes
    {
        type            empty;
    }
}


// ************************************************************************* //
