/*--------------------------------*- C++ -*----------------------------------*\
| =========                 |                                                 |
| \\      /  F ield         | OpenFOAM: The Open Source CFD Toolbox           |
|  \\    /   O peration     | Version:  2.4.x                                 |
|   \\  /    A nd           | Web:      www.OpenFOAM.org                      |
|    \\/     M anipulation  |                                                 |
\*---------------------------------------------------------------------------*/
FoamFile
{
    version     2.0;
    format      ascii;
    class       volScalarField;
    location    "4.2";
    object      Theta;
}
// * * * * * * * * * * * * * * * * * * * * * * * * * * * * * * * * * * * * * //

dimensions      [0 2 -2 0 0 0 0];

internalField   nonuniform List<scalar> 
360
(
6.67375e-21
6.71198e-21
6.70487e-21
6.69631e-21
6.69604e-21
6.6981e-21
6.70005e-21
6.70132e-21
6.70198e-21
6.70246e-21
6.70316e-21
6.7042e-21
6.70549e-21
6.70688e-21
6.70829e-21
6.70967e-21
6.71091e-21
6.71186e-21
6.71234e-21
6.71218e-21
6.71135e-21
6.71008e-21
6.70878e-21
6.70807e-21
6.70878e-21
6.71203e-21
6.71949e-21
6.73373e-21
6.75817e-21
6.79461e-21
6.83461e-21
6.8485e-21
6.80644e-21
6.7325e-21
6.68174e-21
6.66472e-21
6.66171e-21
6.66138e-21
6.66136e-21
6.66136e-21
6.66136e-21
6.66136e-21
6.66136e-21
6.66135e-21
6.66135e-21
6.66135e-21
6.66135e-21
6.66135e-21
6.66135e-21
6.66135e-21
6.66135e-21
6.66135e-21
6.66135e-21
6.66135e-21
6.66135e-21
6.66135e-21
6.66135e-21
6.66135e-21
6.66135e-21
6.66135e-21
6.66135e-21
6.66135e-21
6.66135e-21
6.66135e-21
6.66135e-21
6.66135e-21
6.66135e-21
6.66134e-21
6.66134e-21
6.66134e-21
6.66134e-21
6.66134e-21
6.66134e-21
6.66134e-21
6.66134e-21
6.66134e-21
6.66134e-21
6.66134e-21
6.66134e-21
6.66133e-21
6.66133e-21
6.66133e-21
6.66133e-21
6.66133e-21
6.66133e-21
6.66133e-21
6.66133e-21
6.66133e-21
6.66132e-21
6.66132e-21
6.66132e-21
6.66132e-21
6.66132e-21
6.66132e-21
6.66132e-21
6.66132e-21
6.66131e-21
6.66131e-21
6.66131e-21
6.66124e-21
0
0
0
0
0
0
0
0
0
0
0
0
0
0
0
6.66128e-21
6.66128e-21
6.66127e-21
6.66127e-21
6.66127e-21
6.66127e-21
6.66126e-21
6.66126e-21
6.66126e-21
6.66125e-21
6.66125e-21
6.66125e-21
6.66124e-21
6.66124e-21
6.66124e-21
6.66123e-21
6.66123e-21
6.66123e-21
7.02194e-21
1.82734e-20
1.26158e-19
1.18038e-18
1.20272e-17
1.3317e-16
1.63339e-15
2.26438e-14
3.61548e-13
6.77281e-12
1.52979e-10
6.36201e-09
6.0701e-07
2.08716e-05
0.000274496
0.0016812
0.00323277
0.00391904
0.00431091
0.00456475
0.00474004
0.00485954
0.00493184
0.00496046
0.00494774
0.00489684
0.00481167
0.00469754
0.0045604
0.00440644
0.00424187
0.0040726
0.00390417
0.0037412
0.00358743
0.00344524
0.00331571
0.00319868
0.00309324
0.00299816
0.00291221
0.00283435
0.00276365
0.0026993
0.0026406
0.0025869
0.00253764
0.00249228
0.00245037
0.00241147
0.0023752
0.0023412
0.00230914
0.0022787
0.00224959
0.00222156
0.00219436
0.00216782
0.00214179
0.00211615
0.00209082
0.00206572
0.00204079
0.00201597
0.00199123
0.00196653
0.00194183
0.00191712
0.00189212
0.00186654
0.00184037
0.00181355
0.00178607
0.00175789
0.00172896
0.00169927
0.00166875
0.00163738
0.00160511
0.0015719
0.00153769
0.00150244
0.00146608
0.00142855
0.00138978
0.0013497
0.00130821
0.00126523
0.00122065
0.00117433
0.00112614
0.00107591
0.00102344
0.000968504
0.000910801
0.000849983
0.000785593
0.000717033
0.000643491
0.000563796
0.000476136
0.000377332
0.00026045
0
0
0
0
0
0
0
0
0
0
0
0
0
0
0
0
0
0
0
0
0
0
0
0
0
0
0
0
0
0
0
0
0
0
0
0
0
0
0
0
0
0
0
0
0
0
0
0
0
0
0
0
0
0
0
0
0
0
0
0
0
0
0
0
0
0
0
0
0
0
0
0
0
0
0
0
0
0
0
0
0
0
0
0
0
0
0
0
0
0
0
0
0
0
0
0
0
0
0
0
0
0
0
0
0
0
0
0
0
0
0
0
0
0
0
0
0
0
0
0
0
0
0
0
)
;

boundaryField
{
    inandouthalf11
    {
        type            cyclic;
    }
    inandouthalf12
    {
        type            cyclic;
    }
    inandouthalf21
    {
        type            cyclic;
    }
    inandouthalf22
    {
        type            cyclic;
    }
    inandouthalf31
    {
        type            cyclic;
    }
    inandouthalf32
    {
        type            cyclic;
    }
    inandouthalf41
    {
        type            cyclic;
    }
    inandouthalf42
    {
        type            cyclic;
    }
    top
    {
        type            symmetryPlane;
    }
    walls
    {
        type            zeroGradient;
    }
    frontAndBackPlanes
    {
        type            empty;
    }
}


// ************************************************************************* //
