/*--------------------------------*- C++ -*----------------------------------*\
| =========                 |                                                 |
| \\      /  F ield         | OpenFOAM: The Open Source CFD Toolbox           |
|  \\    /   O peration     | Version:  2.4.x                                 |
|   \\  /    A nd           | Web:      www.OpenFOAM.org                      |
|    \\/     M anipulation  |                                                 |
\*---------------------------------------------------------------------------*/
FoamFile
{
    version     2.0;
    format      ascii;
    class       volVectorField;
    location    "4.2";
    object      U;
}
// * * * * * * * * * * * * * * * * * * * * * * * * * * * * * * * * * * * * * //

dimensions      [0 1 -1 0 0 0 0];

internalField   nonuniform List<vector> 
360
(
(-2.7266e-05 4.55789e-08 0)
(-2.72058e-05 -8.19624e-10 0)
(-2.72327e-05 -9.86664e-09 0)
(-2.73095e-05 -2.81754e-09 0)
(-2.73864e-05 9.78862e-10 0)
(-2.7459e-05 1.29687e-09 0)
(-2.75325e-05 8.60045e-10 0)
(-2.76074e-05 4.50574e-10 0)
(-2.76829e-05 2.12671e-10 0)
(-2.77593e-05 2.35902e-10 0)
(-2.78369e-05 4.08659e-10 0)
(-2.79156e-05 5.63622e-10 0)
(-2.79958e-05 6.46097e-10 0)
(-2.80772e-05 6.58646e-10 0)
(-2.816e-05 6.39902e-10 0)
(-2.82443e-05 5.97099e-10 0)
(-2.83301e-05 4.98178e-10 0)
(-2.84171e-05 3.19942e-10 0)
(-2.8505e-05 5.52855e-11 0)
(-2.85934e-05 -2.4708e-10 0)
(-2.86814e-05 -5.38276e-10 0)
(-2.87689e-05 -6.73748e-10 0)
(-2.88555e-05 -5.73797e-10 0)
(-2.89414e-05 -1.3386e-10 0)
(-2.90275e-05 7.49887e-10 0)
(-2.91155e-05 2.17942e-09 0)
(-2.92082e-05 4.24292e-09 0)
(-2.93097e-05 6.96741e-09 0)
(-2.94251e-05 9.9186e-09 0)
(-2.95599e-05 1.16103e-08 0)
(-2.97166e-05 8.65712e-09 0)
(-2.9889e-05 -2.33946e-09 0)
(-3.00552e-05 -1.83366e-08 0)
(-3.01863e-05 -2.72696e-08 0)
(-3.02653e-05 -2.24767e-08 0)
(-3.03015e-05 -1.16711e-08 0)
(-3.03148e-05 -4.22343e-09 0)
(-3.032e-05 -1.21337e-09 0)
(-3.03229e-05 -2.9238e-10 0)
(-3.03248e-05 -1.25121e-10 0)
(-3.03271e-05 -2.22358e-11 0)
(-3.03294e-05 -3.9712e-12 0)
(-3.03316e-05 -3.54536e-11 0)
(-3.03343e-05 9.82541e-12 0)
(-3.0337e-05 -8.25036e-12 0)
(-3.034e-05 -5.67637e-12 0)
(-3.03433e-05 1.49681e-11 0)
(-3.03466e-05 -2.54948e-11 0)
(-3.03503e-05 -2.49416e-11 0)
(-3.03546e-05 1.25151e-11 0)
(-3.03588e-05 -2.87406e-11 0)
(-3.03636e-05 -8.51891e-12 0)
(-3.03685e-05 -2.65009e-11 0)
(-3.03738e-05 -5.34468e-12 0)
(-3.03793e-05 -4.10903e-11 0)
(-3.03855e-05 6.71293e-13 0)
(-3.03917e-05 -3.51328e-11 0)
(-3.03985e-05 -1.11491e-11 0)
(-3.04056e-05 -7.4543e-12 0)
(-3.04129e-05 -3.81649e-11 0)
(-3.04209e-05 5.9136e-12 0)
(-3.04289e-05 -2.40918e-11 0)
(-3.04374e-05 1.21305e-12 0)
(-3.0446e-05 -1.03044e-11 0)
(-3.04548e-05 -4.85135e-12 0)
(-3.04638e-05 -1.72843e-11 0)
(-3.04732e-05 -1.51917e-11 0)
(-3.04828e-05 -1.45819e-11 0)
(-3.04928e-05 -1.22262e-11 0)
(-3.05031e-05 -3.33541e-11 0)
(-3.0514e-05 -2.04116e-11 0)
(-3.05253e-05 2.97341e-13 0)
(-3.05367e-05 -2.87557e-11 0)
(-3.05487e-05 -6.03985e-12 0)
(-3.05609e-05 -1.7381e-11 0)
(-3.05735e-05 5.68695e-13 0)
(-3.05863e-05 -1.13235e-11 0)
(-3.05994e-05 -1.32392e-11 0)
(-3.06128e-05 -1.43111e-11 0)
(-3.06265e-05 -1.16224e-11 0)
(-3.06405e-05 -1.99662e-11 0)
(-3.0655e-05 -1.90002e-11 0)
(-3.06698e-05 -1.73033e-11 0)
(-3.06851e-05 -1.82161e-11 0)
(-3.07007e-05 -1.56127e-11 0)
(-3.07168e-05 -1.66149e-11 0)
(-3.07332e-05 -1.33956e-11 0)
(-3.07499e-05 -1.45752e-11 0)
(-3.0767e-05 -1.64527e-11 0)
(-3.07845e-05 -1.70639e-11 0)
(-3.08024e-05 -1.83942e-11 0)
(-3.08207e-05 -2.1161e-11 0)
(-3.08394e-05 -2.1858e-11 0)
(-3.08586e-05 -2.26714e-11 0)
(-3.08782e-05 -2.3456e-11 0)
(-3.08983e-05 -2.39848e-11 0)
(-3.09189e-05 -2.44748e-11 0)
(-3.09399e-05 -2.52896e-11 0)
(-3.09615e-05 -2.64285e-11 0)
(-3.09835e-05 -2.75609e-11 0)
(-3.10061e-05 -2.89467e-11 0)
(-3.10293e-05 -3.05055e-11 0)
(-3.1053e-05 -3.19728e-11 0)
(-3.10773e-05 -3.35009e-11 0)
(-3.11022e-05 -3.51509e-11 0)
(-3.11277e-05 -3.68696e-11 0)
(-3.11539e-05 -3.87101e-11 0)
(-3.11808e-05 -4.06906e-11 0)
(-3.12084e-05 -4.27737e-11 0)
(-3.12367e-05 -4.49518e-11 0)
(-3.12658e-05 -4.72212e-11 0)
(-3.12957e-05 -4.95693e-11 0)
(-3.13265e-05 -5.19979e-11 0)
(-3.13581e-05 -5.45098e-11 0)
(-3.13907e-05 -5.71034e-11 0)
(-3.14242e-05 -5.97878e-11 0)
(-3.14587e-05 -6.25863e-11 0)
(-3.14943e-05 -6.55258e-11 0)
(-3.1531e-05 -6.86295e-11 0)
(-3.15689e-05 -7.19158e-11 0)
(-3.1608e-05 -7.53958e-11 0)
(-3.16483e-05 -7.90815e-11 0)
(-3.16901e-05 -8.30562e-11 0)
(-3.17332e-05 -8.75964e-11 0)
(-3.17778e-05 -9.32485e-11 0)
(-3.1824e-05 -1.00725e-10 0)
(-3.18719e-05 -1.10443e-10 0)
(-3.19216e-05 -1.21713e-10 0)
(-3.19732e-05 -1.32163e-10 0)
(-3.2027e-05 -1.39302e-10 0)
(-3.2083e-05 -1.45765e-10 0)
(-3.21413e-05 -1.6508e-10 0)
(-3.22021e-05 -2.09942e-10 0)
(-3.22663e-05 -2.56799e-10 0)
(-3.23344e-05 -2.53982e-10 0)
(-3.24065e-05 -2.24128e-10 0)
(-3.24823e-05 -2.90873e-10 0)
(-3.25628e-05 -5.4866e-10 0)
(-3.26519e-05 -8.41011e-10 0)
(-3.27543e-05 -5.50856e-10 0)
(-3.28656e-05 3.72832e-10 0)
(-3.29716e-05 -1.26399e-09 0)
(-3.30976e-05 -2.36443e-09 0)
(-3.32615e-05 -2.28557e-09 0)
(-3.34636e-05 5.1123e-09 0)
(-3.38068e-05 -6.52686e-07 0)
(-3.51738e-05 4.98883e-06 0)
(-0.000409156 -1.88662e-05 0)
(-0.0909171 -5.62673e-05 0)
(-0.205431 -1.60512e-05 0)
(-0.294795 -2.90024e-06 0)
(-0.367893 -2.65909e-06 0)
(-0.429408 -2.34382e-06 0)
(-0.482126 -1.92071e-06 0)
(-0.527923 -1.55097e-06 0)
(-0.568153 -1.26985e-06 0)
(-0.603835 -1.04647e-06 0)
(-0.635747 -8.56635e-07 0)
(-0.6645 -6.93458e-07 0)
(-0.690567 -5.52874e-07 0)
(-0.714325 -4.34682e-07 0)
(-0.736065 -3.36963e-07 0)
(-0.756019 -2.57252e-07 0)
(-0.774363 -1.92851e-07 0)
(-0.791234 -1.39157e-07 0)
(-0.806733 -9.07126e-08 0)
(-0.820929 -4.53818e-08 0)
(-0.833871 -1.11191e-08 0)
(-0.845587 1.12695e-09 0)
(-0.856094 -2.57566e-09 0)
(-0.865402 -1.58998e-09 0)
(-0.873531 9.10849e-09 0)
(-0.880513 1.72945e-08 0)
(-0.886404 1.68805e-08 0)
(-0.89128 1.19832e-08 0)
(-0.89524 7.35346e-09 0)
(-0.898394 4.3307e-09 0)
(-0.900853 2.55442e-09 0)
(-0.902726 1.50831e-09 0)
(-0.904109 8.73251e-10 0)
(-0.905084 4.81177e-10 0)
(-0.90572 2.40466e-10 0)
(-0.906072 9.56744e-11 0)
(-0.906185 2.26414e-11 0)
(-0.906094 2.03483e-11 0)
(-0.905829 7.84359e-11 0)
(-0.905411 1.27756e-10 0)
(-0.90486 4.77335e-11 0)
(-0.904189 -1.7624e-10 0)
(-0.903411 -3.15884e-10 0)
(-0.902537 -1.62665e-10 0)
(-0.901575 1.12539e-10 0)
(-0.900532 1.92745e-10 0)
(-0.899416 3.73459e-11 0)
(-0.898232 -5.63044e-11 0)
(-0.896985 8.50097e-12 0)
(-0.89568 6.09884e-11 0)
(-0.89432 2.94592e-11 0)
(-0.89291 -5.83083e-12 0)
(-0.891453 -6.37211e-12 0)
(-0.889953 3.10009e-11 0)
(-0.888396 5.22507e-11 0)
(-0.886767 -1.44322e-12 0)
(-0.885067 -3.94329e-11 0)
(-0.883295 2.65443e-11 0)
(-0.881451 6.97768e-11 0)
(-0.879535 -7.63227e-12 0)
(-0.877546 -4.67078e-11 0)
(-0.875486 4.36707e-11 0)
(-0.873353 4.20333e-11 0)
(-0.871149 -2.88394e-11 0)
(-0.868872 5.03032e-12 0)
(-0.866525 3.47665e-11 0)
(-0.864107 -7.2929e-12 0)
(-0.861619 -1.63951e-12 0)
(-0.859061 2.7712e-11 0)
(-0.856435 2.41239e-12 0)
(-0.853742 -9.65155e-12 0)
(-0.850983 1.88477e-11 0)
(-0.84816 1.20953e-11 0)
(-0.845275 -6.94691e-12 0)
(-0.84233 1.03606e-11 0)
(-0.839328 7.82517e-12 0)
(-0.836272 8.40297e-13 0)
(-0.833166 8.82364e-12 0)
(-0.830015 3.56715e-12 0)
(-0.826825 2.58641e-12 0)
(-0.823601 7.98639e-12 0)
(-0.820352 2.98236e-12 0)
(-0.817087 3.55767e-12 0)
(-0.813819 4.17837e-12 0)
(-0.81056 3.72117e-12 0)
(-0.80733 2.0212e-11 0)
(-0.804151 -5.77153e-11 0)
(-0.801053 1.44256e-10 0)
(-0.798077 -2.55646e-10 0)
(-0.795282 4.1827e-10 0)
(-0.792761 -5.20653e-10 0)
(-0.790668 7.44003e-10 0)
(-0.789703 -9.74547e-10 0)
(-0.789596 1.22746e-09 0)
(-0.789588 -1.47683e-09 0)
(-0.789584 1.74291e-09 0)
(-0.78958 -2.00542e-09 0)
(-0.789577 2.28442e-09 0)
(-0.789574 -2.56122e-09 0)
(-0.789572 2.85445e-09 0)
(-0.78957 -3.14683e-09 0)
(-0.789569 3.45554e-09 0)
(-0.789568 -3.76472e-09 0)
(-0.789567 4.09011e-09 0)
(-0.789566 -4.41725e-09 0)
(-0.789565 4.76041e-09 0)
(-0.789565 -5.10655e-09 0)
(-0.789564 5.46851e-09 0)
(-0.789564 -5.83461e-09 0)
(-0.789564 6.21631e-09 0)
(-0.789563 -6.60326e-09 0)
(-0.789563 7.00557e-09 0)
(-0.789563 -7.41419e-09 0)
(-0.789563 7.83794e-09 0)
(-0.789563 -8.26901e-09 0)
(-0.789563 8.71499e-09 0)
(-0.789563 -9.16924e-09 0)
(-0.789563 9.63822e-09 0)
(-0.789563 -1.01163e-08 0)
(-0.789563 1.06091e-08 0)
(-0.789563 -1.11117e-08 0)
(-0.789563 1.16289e-08 0)
(-0.789563 -1.21567e-08 0)
(-0.789563 1.26992e-08 0)
(-0.789563 -1.32528e-08 0)
(-0.789563 1.38211e-08 0)
(-0.789563 -1.44011e-08 0)
(-0.789563 1.4996e-08 0)
(-0.789563 -1.56031e-08 0)
(-0.789563 1.62251e-08 0)
(-0.789563 -1.68599e-08 0)
(-0.789563 1.75098e-08 0)
(-0.789563 -1.81728e-08 0)
(-0.789563 1.88512e-08 0)
(-0.789563 -1.95432e-08 0)
(-0.789563 2.02506e-08 0)
(-0.789563 -2.09721e-08 0)
(-0.789563 2.17092e-08 0)
(-0.789563 -2.24608e-08 0)
(-0.789563 2.32282e-08 0)
(-0.789563 -2.40105e-08 0)
(-0.789563 2.48089e-08 0)
(-0.789563 -2.56225e-08 0)
(-0.789563 2.64523e-08 0)
(-0.789563 -2.72978e-08 0)
(-0.789563 2.81597e-08 0)
(-0.789563 -2.90376e-08 0)
(-0.789563 2.99321e-08 0)
(-0.789563 -3.08429e-08 0)
(-0.789563 3.17706e-08 0)
(-0.789563 -3.27149e-08 0)
(-0.789563 3.36762e-08 0)
(-0.789563 -3.46544e-08 0)
(-0.789563 3.56499e-08 0)
(-0.789563 -3.66624e-08 0)
(-0.789563 3.76924e-08 0)
(-0.789563 -3.87395e-08 0)
(-0.789563 3.98043e-08 0)
(-0.789563 -4.08864e-08 0)
(-0.789563 4.19862e-08 0)
(-0.789563 -4.31034e-08 0)
(-0.789563 4.42383e-08 0)
(-0.789563 -4.53906e-08 0)
(-0.789563 4.08628e-08 0)
(-0.789563 -4.11045e-08 0)
(-0.789563 4.13422e-08 0)
(-0.789563 -4.15753e-08 0)
(-0.789563 4.18043e-08 0)
(-0.789563 -4.20287e-08 0)
(-0.789563 4.22489e-08 0)
(-0.789563 -4.24644e-08 0)
(-0.789563 4.26756e-08 0)
(-0.789563 -4.28821e-08 0)
(-0.789563 4.30842e-08 0)
(-0.789563 -4.32814e-08 0)
(-0.789563 4.34742e-08 0)
(-0.789563 -4.36621e-08 0)
(-0.789563 4.38453e-08 0)
(-0.789563 -4.40236e-08 0)
(-0.789563 4.41972e-08 0)
(-0.789563 -4.43657e-08 0)
(-0.789563 4.45294e-08 0)
(-0.789563 -4.46879e-08 0)
(-0.789563 4.48414e-08 0)
(-0.789563 -4.49898e-08 0)
(-0.789563 4.5133e-08 0)
(-0.789563 -4.52709e-08 0)
(-0.789563 4.54034e-08 0)
(-0.789563 -4.55306e-08 0)
(-0.789563 4.56522e-08 0)
(-0.789563 -4.57683e-08 0)
(-0.789563 4.58786e-08 0)
(-0.789563 -4.59832e-08 0)
(-0.789563 4.60818e-08 0)
(-0.789563 -4.61745e-08 0)
(-0.789563 4.62609e-08 0)
(-0.789563 -4.63412e-08 0)
(-0.789563 4.64148e-08 0)
(-0.789563 -4.64819e-08 0)
(-0.789563 4.65419e-08 0)
(-0.789563 -4.65948e-08 0)
(-0.789563 4.66398e-08 0)
(-0.789563 -4.66769e-08 0)
(-0.789563 4.67045e-08 0)
(-0.789563 -4.67219e-08 0)
(-0.789563 4.67155e-08 0)
(-0.789563 -4.67025e-08 0)
(-0.789563 4.66846e-08 0)
(-0.789563 -4.66669e-08 0)
(-0.789563 4.66454e-08 0)
(-0.789563 -4.66261e-08 0)
(-0.789563 4.66032e-08 0)
(-0.789563 -4.65842e-08 0)
)
;

boundaryField
{
    inandouthalf11
    {
        type            cyclic;
    }
    inandouthalf12
    {
        type            cyclic;
    }
    inandouthalf21
    {
        type            cyclic;
    }
    inandouthalf22
    {
        type            cyclic;
    }
    inandouthalf31
    {
        type            cyclic;
    }
    inandouthalf32
    {
        type            cyclic;
    }
    inandouthalf41
    {
        type            cyclic;
    }
    inandouthalf42
    {
        type            cyclic;
    }
    top
    {
        type            symmetryPlane;
    }
    walls
    {
        type            calculated;
        value           uniform (0 0 0);
    }
    frontAndBackPlanes
    {
        type            empty;
    }
}


// ************************************************************************* //
