/*--------------------------------*- C++ -*----------------------------------*\
| =========                 |                                                 |
| \\      /  F ield         | OpenFOAM: The Open Source CFD Toolbox           |
|  \\    /   O peration     | Version:  2.4.x                                 |
|   \\  /    A nd           | Web:      www.OpenFOAM.org                      |
|    \\/     M anipulation  |                                                 |
\*---------------------------------------------------------------------------*/
FoamFile
{
    version     2.0;
    format      ascii;
    class       volVectorField;
    location    "4.2";
    object      Ua;
}
// * * * * * * * * * * * * * * * * * * * * * * * * * * * * * * * * * * * * * //

dimensions      [0 1 -1 0 0 0 0];

internalField   nonuniform List<vector> 
360
(
(-1.08631e-32 -7.90701e-32 0)
(-5.64793e-08 -3.01428e-07 0)
(-1.28949e-07 -6.06722e-07 0)
(-1.93848e-07 -8.6226e-07 0)
(-2.55796e-07 -1.10914e-06 0)
(-3.18969e-07 -1.36292e-06 0)
(-3.84163e-07 -1.62453e-06 0)
(-4.50978e-07 -1.8918e-06 0)
(-5.18821e-07 -2.16203e-06 0)
(-5.87337e-07 -2.43366e-06 0)
(-6.56561e-07 -2.70703e-06 0)
(-7.26741e-07 -2.98328e-06 0)
(-7.9812e-07 -3.26342e-06 0)
(-8.70837e-07 -3.54795e-06 0)
(-9.44928e-07 -3.83691e-06 0)
(-1.02038e-06 -4.13023e-06 0)
(-1.09711e-06 -4.42764e-06 0)
(-1.17498e-06 -4.7285e-06 0)
(-1.25367e-06 -5.03162e-06 0)
(-1.33275e-06 -5.33532e-06 0)
(-1.41172e-06 -5.63751e-06 0)
(-1.49012e-06 -5.9363e-06 0)
(-1.56774e-06 -6.2308e-06 0)
(-1.64477e-06 -6.52162e-06 0)
(-1.72201e-06 -6.81166e-06 0)
(-1.80103e-06 -7.10675e-06 0)
(-1.88436e-06 -7.41627e-06 0)
(-1.97563e-06 -7.75398e-06 0)
(-2.07955e-06 -8.13795e-06 0)
(-2.20107e-06 -8.58786e-06 0)
(-2.34263e-06 -9.11526e-06 0)
(-2.49834e-06 -9.70143e-06 0)
(-2.64867e-06 -1.02734e-05 0)
(-2.76647e-06 -1.07243e-05 0)
(-2.83687e-06 -1.09929e-05 0)
(-2.86818e-06 -1.11107e-05 0)
(-2.8789e-06 -1.11502e-05 0)
(-2.88203e-06 -1.11614e-05 0)
(-2.88294e-06 -1.11646e-05 0)
(-2.88325e-06 -1.11657e-05 0)
(-2.88339e-06 -1.11661e-05 0)
(-2.88347e-06 -1.11664e-05 0)
(-2.88354e-06 -1.11666e-05 0)
(-2.8836e-06 -1.11668e-05 0)
(-2.88367e-06 -1.1167e-05 0)
(-2.88376e-06 -1.11672e-05 0)
(-2.88387e-06 -1.11675e-05 0)
(-2.884e-06 -1.11678e-05 0)
(-2.88414e-06 -1.11682e-05 0)
(-2.8843e-06 -1.11686e-05 0)
(-2.88447e-06 -1.11691e-05 0)
(-2.88465e-06 -1.11695e-05 0)
(-2.88483e-06 -1.11699e-05 0)
(-2.88502e-06 -1.11703e-05 0)
(-2.8852e-06 -1.11708e-05 0)
(-2.88539e-06 -1.11712e-05 0)
(-2.88559e-06 -1.11716e-05 0)
(-2.88579e-06 -1.1172e-05 0)
(-2.886e-06 -1.11725e-05 0)
(-2.88622e-06 -1.1173e-05 0)
(-2.88645e-06 -1.11734e-05 0)
(-2.88669e-06 -1.11739e-05 0)
(-2.88694e-06 -1.11744e-05 0)
(-2.8872e-06 -1.11749e-05 0)
(-2.88747e-06 -1.11755e-05 0)
(-2.88775e-06 -1.1176e-05 0)
(-2.88803e-06 -1.11766e-05 0)
(-2.88833e-06 -1.11771e-05 0)
(-2.88863e-06 -1.11777e-05 0)
(-2.88894e-06 -1.11782e-05 0)
(-2.88926e-06 -1.11788e-05 0)
(-2.88959e-06 -1.11794e-05 0)
(-2.88994e-06 -1.11801e-05 0)
(-2.89031e-06 -1.11807e-05 0)
(-2.89069e-06 -1.11814e-05 0)
(-2.89109e-06 -1.11821e-05 0)
(-2.89151e-06 -1.11828e-05 0)
(-2.89194e-06 -1.11835e-05 0)
(-2.89239e-06 -1.11843e-05 0)
(-2.89285e-06 -1.1185e-05 0)
(-2.89332e-06 -1.11858e-05 0)
(-2.89381e-06 -1.11866e-05 0)
(-2.89431e-06 -1.11874e-05 0)
(-2.89483e-06 -1.11883e-05 0)
(-2.89536e-06 -1.11891e-05 0)
(-2.89591e-06 -1.119e-05 0)
(-2.89648e-06 -1.11909e-05 0)
(-2.89706e-06 -1.11918e-05 0)
(-2.89766e-06 -1.11927e-05 0)
(-2.89828e-06 -1.11937e-05 0)
(-2.89891e-06 -1.11946e-05 0)
(-2.89956e-06 -1.11956e-05 0)
(-2.90022e-06 -1.11966e-05 0)
(-2.90089e-06 -1.11976e-05 0)
(-2.90158e-06 -1.11986e-05 0)
(-2.90228e-06 -1.11996e-05 0)
(-2.90299e-06 -1.12006e-05 0)
(-2.90372e-06 -1.12017e-05 0)
(-2.90446e-06 -1.12027e-05 0)
(-2.90521e-06 -1.12038e-05 0)
(-2.90598e-06 -1.12048e-05 0)
(-2.90675e-06 -1.12059e-05 0)
(-2.90754e-06 -1.1207e-05 0)
(-2.90834e-06 -1.12081e-05 0)
(-2.90915e-06 -1.12091e-05 0)
(-2.90997e-06 -1.12102e-05 0)
(-2.91079e-06 -1.12113e-05 0)
(-2.91163e-06 -1.12124e-05 0)
(-2.91248e-06 -1.12135e-05 0)
(-2.91333e-06 -1.12146e-05 0)
(-2.91419e-06 -1.12157e-05 0)
(-2.91505e-06 -1.12167e-05 0)
(-2.91592e-06 -1.12178e-05 0)
(-2.9168e-06 -1.12189e-05 0)
(-2.91768e-06 -1.12199e-05 0)
(-2.91858e-06 -1.1221e-05 0)
(-2.91948e-06 -1.1222e-05 0)
(-2.92039e-06 -1.12231e-05 0)
(-2.92131e-06 -1.12241e-05 0)
(-2.92224e-06 -1.12252e-05 0)
(-2.92318e-06 -1.12262e-05 0)
(-2.92415e-06 -1.12272e-05 0)
(-2.92513e-06 -1.12283e-05 0)
(-2.92613e-06 -1.12293e-05 0)
(-2.92715e-06 -1.12303e-05 0)
(-2.92818e-06 -1.12313e-05 0)
(-2.92923e-06 -1.12323e-05 0)
(-2.9303e-06 -1.12333e-05 0)
(-2.93136e-06 -1.12343e-05 0)
(-2.93243e-06 -1.12352e-05 0)
(-2.93347e-06 -1.1236e-05 0)
(-2.9345e-06 -1.12369e-05 0)
(-2.93549e-06 -1.12376e-05 0)
(-2.93645e-06 -1.12383e-05 0)
(-2.93736e-06 -1.12389e-05 0)
(-2.93825e-06 -1.12395e-05 0)
(-2.9391e-06 -1.124e-05 0)
(-2.93991e-06 -1.12404e-05 0)
(-2.94069e-06 -1.12408e-05 0)
(-2.94142e-06 -1.12411e-05 0)
(-2.94206e-06 -1.12414e-05 0)
(-2.94254e-06 -1.12415e-05 0)
(-2.94283e-06 -1.12416e-05 0)
(-2.94299e-06 -1.12416e-05 0)
(-2.94307e-06 -1.12416e-05 0)
(-2.94313e-06 -1.12416e-05 0)
(-2.94324e-06 -1.12416e-05 0)
(-3.77343e-06 -1.11638e-05 0)
(-0.0837718 0.000763328 0)
(-0.196429 0.00121171 0)
(-0.286713 0.0014854 0)
(-0.360795 0.00168434 0)
(-0.422991 0.00189882 0)
(-0.476132 0.00212505 0)
(-0.522134 0.00236388 0)
(-0.562363 0.00261637 0)
(-0.597836 0.00288285 0)
(-0.629325 0.00316267 0)
(-0.657423 0.00345455 0)
(-0.682584 0.00375673 0)
(-0.705155 0.00406702 0)
(-0.725399 0.00438258 0)
(-0.743519 0.00469962 0)
(-0.75967 0.00501315 0)
(-0.773983 0.00531694 0)
(-0.786569 0.00560294 0)
(-0.797537 0.00585817 0)
(-0.807002 0.00605868 0)
(-0.81509 0.00616727 0)
(-0.821949 0.00614697 0)
(-0.827744 0.00598703 0)
(-0.832638 0.00571465 0)
(-0.836784 0.00537935 0)
(-0.840305 0.00502873 0)
(-0.843302 0.00469598 0)
(-0.845854 0.00439956 0)
(-0.848024 0.00414766 0)
(-0.849864 0.00394238 0)
(-0.851416 0.00378251 0)
(-0.852719 0.00366511 0)
(-0.853803 0.00358627 0)
(-0.854695 0.00354148 0)
(-0.855421 0.00352574 0)
(-0.856 0.00353345 0)
(-0.856454 0.00355834 0)
(-0.8568 0.00359336 0)
(-0.857056 0.00363076 0)
(-0.857236 0.00366289 0)
(-0.857355 0.00368378 0)
(-0.857426 0.00369135 0)
(-0.857459 0.00368798 0)
(-0.857462 0.00367813 0)
(-0.857441 0.00366548 0)
(-0.857399 0.00364897 0)
(-0.857341 0.00362877 0)
(-0.85727 0.00360552 0)
(-0.857189 0.00358016 0)
(-0.857098 0.00355286 0)
(-0.857002 0.00352345 0)
(-0.8569 0.00349222 0)
(-0.856795 0.00345988 0)
(-0.856687 0.00342635 0)
(-0.856575 0.00339053 0)
(-0.856458 0.00335175 0)
(-0.856337 0.00331113 0)
(-0.856214 0.00326976 0)
(-0.856086 0.00322598 0)
(-0.855953 0.00317799 0)
(-0.855816 0.00312788 0)
(-0.855675 0.00307703 0)
(-0.85553 0.00302257 0)
(-0.855378 0.00296414 0)
(-0.855223 0.00290426 0)
(-0.855061 0.00284159 0)
(-0.854893 0.00277518 0)
(-0.85472 0.00270789 0)
(-0.85454 0.0026388 0)
(-0.854349 0.00256514 0)
(-0.854151 0.00249078 0)
(-0.853945 0.00241737 0)
(-0.853724 0.00233869 0)
(-0.853489 0.00225543 0)
(-0.853242 0.00217061 0)
(-0.852977 0.00207967 0)
(-0.852696 0.00198375 0)
(-0.852396 0.00188188 0)
(-0.85207 0.00176859 0)
(-0.851727 0.00164994 0)
(-0.85136 0.0015216 0)
(-0.850956 0.00137359 0)
(-0.850527 0.00121223 0)
(-0.850076 0.0010383 0)
(-0.849628 0.000865427 0)
(-0.849226 0.000720111 0)
(-0.848886 0.000609399 0)
(-0.848612 0.000535359 0)
(-0.848247 0.000409595 0)
(-0.790575 -0.0365101 0)
(-0.789028 -0.0396379 0)
(-0.788311 -0.0395637 0)
(-0.788246 -0.0395462 0)
(-0.78824 -0.0395446 0)
(-0.788236 -0.0395446 0)
(-0.788232 -0.0395446 0)
(-0.788229 -0.0395446 0)
(-0.788227 -0.0395446 0)
(-0.788225 -0.0395446 0)
(-0.788223 -0.0395446 0)
(-0.788222 -0.0395446 0)
(-0.78822 -0.0395446 0)
(-0.788219 -0.0395446 0)
(-0.788219 -0.0395446 0)
(-0.788218 -0.0395446 0)
(-0.788218 -0.0395446 0)
(-0.788217 -0.0395446 0)
(-0.788217 -0.0395446 0)
(-0.788217 -0.0395446 0)
(-0.788216 -0.0395446 0)
(-0.788216 -0.0395446 0)
(-0.788216 -0.0395446 0)
(-0.788216 -0.0395446 0)
(-0.788216 -0.0395446 0)
(-0.788216 -0.0395446 0)
(-0.788216 -0.0395446 0)
(-0.788216 -0.0395446 0)
(-0.788216 -0.0395446 0)
(-0.788216 -0.0395446 0)
(-0.788216 -0.0395446 0)
(-0.788216 -0.0395446 0)
(-0.788216 -0.0395446 0)
(-0.788216 -0.0395446 0)
(-0.788216 -0.0395446 0)
(-0.788216 -0.0395446 0)
(-0.788216 -0.0395446 0)
(-0.788216 -0.0395446 0)
(-0.788216 -0.0395446 0)
(-0.788216 -0.0395446 0)
(-0.788216 -0.0395446 0)
(-0.788216 -0.0395446 0)
(-0.788216 -0.0395446 0)
(-0.788216 -0.0395446 0)
(-0.788216 -0.0395446 0)
(-0.788216 -0.0395446 0)
(-0.788216 -0.0395446 0)
(-0.788216 -0.0395446 0)
(-0.788216 -0.0395446 0)
(-0.788216 -0.0395446 0)
(-0.788216 -0.0395446 0)
(-0.788216 -0.0395446 0)
(-0.788216 -0.0395446 0)
(-0.788216 -0.0395446 0)
(-0.788216 -0.0395446 0)
(-0.788216 -0.0395446 0)
(-0.788216 -0.0395446 0)
(-0.788216 -0.0395446 0)
(-0.788216 -0.0395446 0)
(-0.788216 -0.0395446 0)
(-0.788216 -0.0395446 0)
(-0.788216 -0.0395446 0)
(-0.788216 -0.0395446 0)
(-0.788216 -0.0395446 0)
(-0.788216 -0.0395446 0)
(-0.788216 -0.0395446 0)
(-0.788216 -0.0395446 0)
(-0.788216 -0.0395446 0)
(-0.788216 -0.0395446 0)
(-0.788216 -0.0395446 0)
(-0.788216 -0.0395446 0)
(-0.788216 -0.0395446 0)
(-0.788216 -0.0395446 0)
(-0.788216 -0.0395446 0)
(-0.788216 -0.0395446 0)
(-0.788216 -0.0395446 0)
(-0.788216 -0.0395446 0)
(-0.788216 -0.0395446 0)
(-0.788216 -0.0395446 0)
(-0.788216 -0.0395446 0)
(-0.788216 -0.0395446 0)
(-0.788216 -0.0395446 0)
(-0.788216 -0.0395446 0)
(-0.788216 -0.0395446 0)
(-0.788216 -0.0395446 0)
(-0.788216 -0.0395446 0)
(-0.788216 -0.0395446 0)
(-0.788216 -0.0395446 0)
(-0.788216 -0.0395446 0)
(-0.788216 -0.0395446 0)
(-0.788216 -0.0395446 0)
(-0.788216 -0.0395446 0)
(-0.788216 -0.0395446 0)
(-0.788216 -0.0395446 0)
(-0.788216 -0.0395446 0)
(-0.788216 -0.0395446 0)
(-0.788216 -0.0395446 0)
(-0.788216 -0.0395446 0)
(-0.788216 -0.0395446 0)
(-0.788216 -0.0395446 0)
(-0.788216 -0.0395446 0)
(-0.788216 -0.0395446 0)
(-0.788216 -0.0395446 0)
(-0.788216 -0.0395446 0)
(-0.788216 -0.0395446 0)
(-0.788216 -0.0395446 0)
(-0.788216 -0.0395446 0)
(-0.788216 -0.0395446 0)
(-0.788216 -0.0395446 0)
(-0.788216 -0.0395446 0)
(-0.788216 -0.0395446 0)
(-0.788216 -0.0395446 0)
(-0.788216 -0.0395446 0)
(-0.788216 -0.0395446 0)
(-0.788216 -0.0395446 0)
(-0.788216 -0.0395446 0)
(-0.788216 -0.0395446 0)
(-0.788216 -0.0395446 0)
(-0.788216 -0.0395446 0)
(-0.788216 -0.0395444 0)
(-0.788215 -0.039536 0)
(-0.788206 -0.0391914 0)
(-0.787984 -0.0224895 0)
)
;

boundaryField
{
    inandouthalf11
    {
        type            cyclic;
    }
    inandouthalf12
    {
        type            cyclic;
    }
    inandouthalf21
    {
        type            cyclic;
    }
    inandouthalf22
    {
        type            cyclic;
    }
    inandouthalf31
    {
        type            cyclic;
    }
    inandouthalf32
    {
        type            cyclic;
    }
    inandouthalf41
    {
        type            cyclic;
    }
    inandouthalf42
    {
        type            cyclic;
    }
    top
    {
        type            symmetryPlane;
    }
    walls
    {
        type            fixedValue;
        value           uniform (0 0 0);
    }
    frontAndBackPlanes
    {
        type            empty;
    }
}


// ************************************************************************* //
