/*--------------------------------*- C++ -*----------------------------------*\
| =========                 |                                                 |
| \\      /  F ield         | OpenFOAM: The Open Source CFD Toolbox           |
|  \\    /   O peration     | Version:  2.4.x                                 |
|   \\  /    A nd           | Web:      www.OpenFOAM.org                      |
|    \\/     M anipulation  |                                                 |
\*---------------------------------------------------------------------------*/
FoamFile
{
    version     2.0;
    format      ascii;
    class       volVectorField;
    location    "4.2";
    object      Ur;
}
// * * * * * * * * * * * * * * * * * * * * * * * * * * * * * * * * * * * * * //

dimensions      [0 1 -1 0 0 0 0];

internalField   nonuniform List<vector> 
360
(
(-6.9983e-05 1.16986e-07 0)
(-6.97815e-05 7.72647e-07 0)
(-6.96917e-05 1.53469e-06 0)
(-6.97152e-05 2.20965e-06 0)
(-6.97445e-05 2.85377e-06 0)
(-6.97632e-05 3.50671e-06 0)
(-6.97795e-05 4.17774e-06 0)
(-6.97954e-05 4.86331e-06 0)
(-6.98104e-05 5.55686e-06 0)
(-6.98259e-05 6.25457e-06 0)
(-6.98424e-05 6.95701e-06 0)
(-6.98593e-05 7.66669e-06 0)
(-6.98765e-05 8.38607e-06 0)
(-6.98936e-05 9.11643e-06 0)
(-6.99109e-05 9.85801e-06 0)
(-6.99283e-05 1.06106e-05 0)
(-6.99461e-05 1.13734e-05 0)
(-6.99641e-05 1.21447e-05 0)
(-6.99821e-05 1.29215e-05 0)
(-7.00004e-05 1.36995e-05 0)
(-7.00182e-05 1.44736e-05 0)
(-7.00361e-05 1.52393e-05 0)
(-7.00538e-05 1.59944e-05 0)
(-7.00712e-05 1.67409e-05 0)
(-7.00886e-05 1.74863e-05 0)
(-7.01063e-05 1.8246e-05 0)
(-7.01247e-05 1.90442e-05 0)
(-7.01449e-05 1.99162e-05 0)
(-7.01675e-05 2.09071e-05 0)
(-7.01935e-05 2.20634e-05 0)
(-7.02233e-05 2.34059e-05 0)
(-7.02562e-05 2.48779e-05 0)
(-7.02873e-05 2.63004e-05 0)
(-7.03134e-05 2.74308e-05 0)
(-7.03301e-05 2.81297e-05 0)
(-7.03397e-05 2.84583e-05 0)
(-7.03449e-05 2.8578e-05 0)
(-7.03489e-05 2.8614e-05 0)
(-7.03528e-05 2.8624e-05 0)
(-7.0356e-05 2.86267e-05 0)
(-7.03602e-05 2.86276e-05 0)
(-7.03645e-05 2.86278e-05 0)
(-7.03687e-05 2.86277e-05 0)
(-7.03739e-05 2.86276e-05 0)
(-7.03791e-05 2.86275e-05 0)
(-7.03849e-05 2.86274e-05 0)
(-7.03911e-05 2.86275e-05 0)
(-7.03972e-05 2.86275e-05 0)
(-7.04044e-05 2.86275e-05 0)
(-7.04125e-05 2.86277e-05 0)
(-7.04204e-05 2.86277e-05 0)
(-7.04293e-05 2.86277e-05 0)
(-7.04386e-05 2.86276e-05 0)
(-7.04488e-05 2.86275e-05 0)
(-7.04592e-05 2.86272e-05 0)
(-7.04709e-05 2.8627e-05 0)
(-7.04828e-05 2.86265e-05 0)
(-7.04958e-05 2.86261e-05 0)
(-7.05093e-05 2.86255e-05 0)
(-7.05233e-05 2.86249e-05 0)
(-7.05385e-05 2.86244e-05 0)
(-7.05537e-05 2.86237e-05 0)
(-7.05699e-05 2.8623e-05 0)
(-7.05862e-05 2.86223e-05 0)
(-7.0603e-05 2.86216e-05 0)
(-7.06201e-05 2.86208e-05 0)
(-7.06379e-05 2.862e-05 0)
(-7.06563e-05 2.86192e-05 0)
(-7.06753e-05 2.86183e-05 0)
(-7.06949e-05 2.86173e-05 0)
(-7.07156e-05 2.86163e-05 0)
(-7.07371e-05 2.86152e-05 0)
(-7.07588e-05 2.86141e-05 0)
(-7.07816e-05 2.8613e-05 0)
(-7.08049e-05 2.86118e-05 0)
(-7.08288e-05 2.86107e-05 0)
(-7.08531e-05 2.86095e-05 0)
(-7.08778e-05 2.86083e-05 0)
(-7.09032e-05 2.86071e-05 0)
(-7.09293e-05 2.86059e-05 0)
(-7.09559e-05 2.86046e-05 0)
(-7.09832e-05 2.86033e-05 0)
(-7.10114e-05 2.86019e-05 0)
(-7.10402e-05 2.86005e-05 0)
(-7.10699e-05 2.85991e-05 0)
(-7.11002e-05 2.85976e-05 0)
(-7.11313e-05 2.8596e-05 0)
(-7.11629e-05 2.85945e-05 0)
(-7.11953e-05 2.85929e-05 0)
(-7.12283e-05 2.85913e-05 0)
(-7.12621e-05 2.85896e-05 0)
(-7.12966e-05 2.85879e-05 0)
(-7.1332e-05 2.85861e-05 0)
(-7.13682e-05 2.85842e-05 0)
(-7.14052e-05 2.85823e-05 0)
(-7.14432e-05 2.85803e-05 0)
(-7.1482e-05 2.85782e-05 0)
(-7.15218e-05 2.8576e-05 0)
(-7.15625e-05 2.85737e-05 0)
(-7.16042e-05 2.85713e-05 0)
(-7.16469e-05 2.85689e-05 0)
(-7.16906e-05 2.85663e-05 0)
(-7.17354e-05 2.85636e-05 0)
(-7.17814e-05 2.85608e-05 0)
(-7.18285e-05 2.85579e-05 0)
(-7.18768e-05 2.85548e-05 0)
(-7.19264e-05 2.85516e-05 0)
(-7.19772e-05 2.85483e-05 0)
(-7.20295e-05 2.85447e-05 0)
(-7.20831e-05 2.8541e-05 0)
(-7.21383e-05 2.85372e-05 0)
(-7.2195e-05 2.85331e-05 0)
(-7.22533e-05 2.85288e-05 0)
(-7.23133e-05 2.85243e-05 0)
(-7.23751e-05 2.85196e-05 0)
(-7.24387e-05 2.85147e-05 0)
(-7.25043e-05 2.85096e-05 0)
(-7.25719e-05 2.85041e-05 0)
(-7.26416e-05 2.84985e-05 0)
(-7.27136e-05 2.84926e-05 0)
(-7.27879e-05 2.84864e-05 0)
(-7.28646e-05 2.84799e-05 0)
(-7.29439e-05 2.84731e-05 0)
(-7.30259e-05 2.8466e-05 0)
(-7.31108e-05 2.84586e-05 0)
(-7.31986e-05 2.84508e-05 0)
(-7.32897e-05 2.84426e-05 0)
(-7.33842e-05 2.8434e-05 0)
(-7.34825e-05 2.84249e-05 0)
(-7.35849e-05 2.84152e-05 0)
(-7.36916e-05 2.8405e-05 0)
(-7.38027e-05 2.83941e-05 0)
(-7.39189e-05 2.83824e-05 0)
(-7.40414e-05 2.83698e-05 0)
(-7.41717e-05 2.83563e-05 0)
(-7.43098e-05 2.83419e-05 0)
(-7.44549e-05 2.83263e-05 0)
(-7.46091e-05 2.83091e-05 0)
(-7.478e-05 2.82898e-05 0)
(-7.49766e-05 2.8269e-05 0)
(-7.51904e-05 2.82478e-05 0)
(-7.53941e-05 2.82211e-05 0)
(-7.56367e-05 2.81912e-05 0)
(-7.59524e-05 2.81562e-05 0)
(-7.63414e-05 2.81316e-05 0)
(-7.70014e-05 2.64182e-05 0)
(-7.98874e-05 4.02291e-05 0)
(-0.000904328 -1.71826e-05 0)
(-0.0105492 -0.00121003 0)
(-0.0117536 -0.00160309 0)
(-0.00999685 -0.00184111 0)
(-0.00844262 -0.0020065 0)
(-0.00739132 -0.00218966 0)
(-0.00671767 -0.00238407 0)
(-0.00634121 -0.00259132 0)
(-0.00622336 -0.00281353 0)
(-0.00634784 -0.00305185 0)
(-0.00671153 -0.00330611 0)
(-0.00732201 -0.00357522 0)
(-0.00819581 -0.00385746 0)
(-0.00935662 -0.00415047 0)
(-0.010832 -0.00445121 0)
(-0.0126484 -0.00475564 0)
(-0.0148254 -0.00505851 0)
(-0.0173693 -0.00535335 0)
(-0.0202674 -0.00563186 0)
(-0.0234822 -0.00588086 0)
(-0.0269468 -0.00607618 0)
(-0.0305622 -0.00618043 0)
(-0.0341975 -0.00615657 0)
(-0.0377018 -0.00599384 0)
(-0.0409275 -0.00571942 0)
(-0.0437574 -0.00538271 0)
(-0.0461208 -0.00503115 0)
(-0.047996 -0.00469777 0)
(-0.0494013 -0.00440093 0)
(-0.0503827 -0.00414874 0)
(-0.0510009 -0.00394325 0)
(-0.0513197 -0.00378322 0)
(-0.0513985 -0.0036657 0)
(-0.0512885 -0.00358677 0)
(-0.0510307 -0.00354192 0)
(-0.0506565 -0.00352612 0)
(-0.0501891 -0.00353379 0)
(-0.0496442 -0.00355864 0)
(-0.0490322 -0.00359361 0)
(-0.0483588 -0.00363098 0)
(-0.0476265 -0.00366308 0)
(-0.0468359 -0.00368394 0)
(-0.0459866 -0.00369148 0)
(-0.0450789 -0.00368809 0)
(-0.0441142 -0.00367822 0)
(-0.0430923 -0.00366556 0)
(-0.0420175 -0.00364903 0)
(-0.0408912 -0.00362883 0)
(-0.0397152 -0.00360557 0)
(-0.0384915 -0.0035802 0)
(-0.037222 -0.00355289 0)
(-0.0359088 -0.00352348 0)
(-0.0345536 -0.00349225 0)
(-0.033158 -0.0034599 0)
(-0.0317091 -0.00342637 0)
(-0.0301931 -0.00339055 0)
(-0.0286097 -0.00335177 0)
(-0.0269581 -0.00331114 0)
(-0.0252376 -0.00326977 0)
(-0.0234492 -0.00322599 0)
(-0.0215939 -0.00317799 0)
(-0.0196702 -0.00312788 0)
(-0.0176777 -0.00307704 0)
(-0.0156188 -0.00302257 0)
(-0.0134941 -0.00296415 0)
(-0.0113022 -0.00290426 0)
(-0.00904543 -0.00284159 0)
(-0.0067253 -0.00277518 0)
(-0.00434075 -0.0027079 0)
(-0.00189505 -0.0026388 0)
(0.000607152 -0.00256514 0)
(0.00316764 -0.00249079 0)
(0.00578484 -0.00241737 0)
(0.00844932 -0.00233869 0)
(0.0111594 -0.00225543 0)
(0.0139145 -0.00217061 0)
(0.0167056 -0.00207967 0)
(0.01953 -0.00198375 0)
(0.0223805 -0.00188188 0)
(0.0252457 -0.00176859 0)
(0.0281263 -0.00164995 0)
(0.0310076 -0.0015216 0)
(0.0338692 -0.00137359 0)
(0.0367084 -0.00121223 0)
(0.0395156 -0.0010383 0)
(0.0422982 -0.000865427 0)
(0.045075 -0.000720111 0)
(0.0478333 -0.000609399 0)
(0.0505348 -0.00053536 0)
(0.0529652 -0.000409595 0)
(-0.00218565 0.0365101 0)
(-0.00163928 0.0396379 0)
(-0.00139231 0.0395637 0)
(-0.00134944 0.0395462 0)
(-0.0013481 0.0395446 0)
(-0.00134785 0.0395446 0)
(-0.00134769 0.0395446 0)
(-0.00134755 0.0395446 0)
(-0.00134744 0.0395446 0)
(-0.00134735 0.0395446 0)
(-0.00134727 0.0395446 0)
(-0.00134721 0.0395446 0)
(-0.00134716 0.0395446 0)
(-0.00134712 0.0395446 0)
(-0.00134709 0.0395446 0)
(-0.00134706 0.0395446 0)
(-0.00134704 0.0395446 0)
(-0.00134702 0.0395446 0)
(-0.00134701 0.0395446 0)
(-0.001347 0.0395446 0)
(-0.00134699 0.0395446 0)
(-0.00134698 0.0395446 0)
(-0.00134698 0.0395446 0)
(-0.00134697 0.0395446 0)
(-0.00134697 0.0395446 0)
(-0.00134697 0.0395446 0)
(-0.00134697 0.0395446 0)
(-0.00134696 0.0395446 0)
(-0.00134696 0.0395446 0)
(-0.00134696 0.0395446 0)
(-0.00134696 0.0395446 0)
(-0.00134696 0.0395446 0)
(-0.00134696 0.0395446 0)
(-0.00134696 0.0395446 0)
(-0.00134696 0.0395446 0)
(-0.00134696 0.0395446 0)
(-0.00134696 0.0395446 0)
(-0.00134696 0.0395446 0)
(-0.00134696 0.0395446 0)
(-0.00134696 0.0395446 0)
(-0.00134696 0.0395446 0)
(-0.00134696 0.0395446 0)
(-0.00134696 0.0395446 0)
(-0.00134696 0.0395447 0)
(-0.00134696 0.0395446 0)
(-0.00134696 0.0395447 0)
(-0.00134696 0.0395446 0)
(-0.00134696 0.0395447 0)
(-0.00134696 0.0395446 0)
(-0.00134696 0.0395447 0)
(-0.00134696 0.0395446 0)
(-0.00134696 0.0395447 0)
(-0.00134696 0.0395446 0)
(-0.00134696 0.0395447 0)
(-0.00134696 0.0395446 0)
(-0.00134696 0.0395447 0)
(-0.00134696 0.0395446 0)
(-0.00134696 0.0395447 0)
(-0.00134696 0.0395446 0)
(-0.00134696 0.0395447 0)
(-0.00134696 0.0395446 0)
(-0.00134696 0.0395447 0)
(-0.00134696 0.0395446 0)
(-0.00134696 0.0395447 0)
(-0.00134696 0.0395446 0)
(-0.00134696 0.0395447 0)
(-0.00134696 0.0395446 0)
(-0.00134696 0.0395447 0)
(-0.00134696 0.0395446 0)
(-0.00134696 0.0395447 0)
(-0.00134696 0.0395446 0)
(-0.00134696 0.0395447 0)
(-0.00134696 0.0395446 0)
(-0.00134696 0.0395447 0)
(-0.00134696 0.0395446 0)
(-0.00134696 0.0395447 0)
(-0.00134696 0.0395446 0)
(-0.00134696 0.0395447 0)
(-0.00134696 0.0395446 0)
(-0.00134696 0.0395447 0)
(-0.00134696 0.0395446 0)
(-0.00134696 0.0395447 0)
(-0.00134696 0.0395446 0)
(-0.00134696 0.0395447 0)
(-0.00134696 0.0395446 0)
(-0.00134696 0.0395447 0)
(-0.00134696 0.0395446 0)
(-0.00134696 0.0395447 0)
(-0.00134696 0.0395446 0)
(-0.00134696 0.0395447 0)
(-0.00134696 0.0395446 0)
(-0.00134696 0.0395447 0)
(-0.00134696 0.0395446 0)
(-0.00134696 0.0395447 0)
(-0.00134696 0.0395446 0)
(-0.00134696 0.0395447 0)
(-0.00134696 0.0395446 0)
(-0.00134696 0.0395447 0)
(-0.00134696 0.0395446 0)
(-0.00134696 0.0395447 0)
(-0.00134696 0.0395446 0)
(-0.00134696 0.0395447 0)
(-0.00134696 0.0395446 0)
(-0.00134696 0.0395447 0)
(-0.00134696 0.0395446 0)
(-0.00134696 0.0395447 0)
(-0.00134696 0.0395446 0)
(-0.00134696 0.0395447 0)
(-0.00134696 0.0395446 0)
(-0.00134696 0.0395447 0)
(-0.00134696 0.0395446 0)
(-0.00134696 0.0395447 0)
(-0.00134696 0.0395446 0)
(-0.00134696 0.0395447 0)
(-0.00134696 0.0395446 0)
(-0.00134696 0.0395447 0)
(-0.00134696 0.0395446 0)
(-0.00134696 0.0395447 0)
(-0.00134696 0.0395446 0)
(-0.00134698 0.0395445 0)
(-0.00134738 0.0395359 0)
(-0.00135701 0.0391915 0)
(-0.00157851 0.0224895 0)
)
;

boundaryField
{
    inandouthalf11
    {
        type            cyclic;
    }
    inandouthalf12
    {
        type            cyclic;
    }
    inandouthalf21
    {
        type            cyclic;
    }
    inandouthalf22
    {
        type            cyclic;
    }
    inandouthalf31
    {
        type            cyclic;
    }
    inandouthalf32
    {
        type            cyclic;
    }
    inandouthalf41
    {
        type            cyclic;
    }
    inandouthalf42
    {
        type            cyclic;
    }
    top
    {
        type            symmetryPlane;
    }
    walls
    {
        type            calculated;
        value           uniform (0 0 0);
    }
    frontAndBackPlanes
    {
        type            empty;
    }
}


// ************************************************************************* //
