/*--------------------------------*- C++ -*----------------------------------*\
| =========                 |                                                 |
| \\      /  F ield         | OpenFOAM: The Open Source CFD Toolbox           |
|  \\    /   O peration     | Version:  2.4.x                                 |
|   \\  /    A nd           | Web:      www.OpenFOAM.org                      |
|    \\/     M anipulation  |                                                 |
\*---------------------------------------------------------------------------*/
FoamFile
{
    version     2.0;
    format      ascii;
    class       volScalarField;
    location    "1.85";
    object      alpha;
}
// * * * * * * * * * * * * * * * * * * * * * * * * * * * * * * * * * * * * * //

dimensions      [0 0 0 0 0 0 0];

internalField   nonuniform List<scalar> 
360
(
0.609996
0.609996
0.609995
0.609995
0.609995
0.609994
0.609994
0.609993
0.609993
0.609992
0.609991
0.609991
0.60999
0.609989
0.609988
0.609987
0.609986
0.609985
0.609984
0.609982
0.609981
0.609979
0.609977
0.609975
0.609973
0.609971
0.609969
0.609966
0.609963
0.60996
0.609957
0.609953
0.60995
0.609945
0.609941
0.609936
0.609931
0.609925
0.609918
0.609912
0.609904
0.609896
0.609888
0.609878
0.609868
0.609857
0.609845
0.609833
0.609819
0.609803
0.609787
0.609769
0.60975
0.609729
0.609707
0.609682
0.609656
0.609627
0.609596
0.609563
0.609526
0.609487
0.609444
0.609398
0.609348
0.609294
0.609235
0.609171
0.609102
0.609028
0.608947
0.608861
0.608784
0.608742
0.608744
0.608761
0.608762
0.608737
0.608693
0.608637
0.608576
0.608513
0.608453
0.608395
0.60834
0.608288
0.608234
0.60818
0.608123
0.608065
0.608004
0.607942
0.60788
0.607816
0.607751
0.607686
0.607618
0.60755
0.607479
0.607407
0.607334
0.607259
0.607182
0.607103
0.607022
0.606939
0.606855
0.606768
0.606679
0.606587
0.606494
0.606397
0.606299
0.606197
0.606093
0.605986
0.605876
0.605763
0.605647
0.605528
0.605405
0.605279
0.605149
0.605014
0.604876
0.604732
0.604584
0.604431
0.604274
0.604112
0.603947
0.603776
0.603595
0.603401
0.60319
0.602968
0.602743
0.602514
0.602272
0.602007
0.601743
0.601526
0.601234
0.600805
0.60025
0.599538
0.598637
0.597437
0.595418
0.472915
0.195229
0.0926065
0.0663373
0.0507169
0.0365611
0.0230556
0.0122522
0.00544195
0.00206903
0.000771868
0.000378704
0.000243631
0.000183479
0.000140144
0.000116693
9.47455e-05
7.93345e-05
6.90781e-05
5.76332e-05
5.14903e-05
4.36484e-05
3.95397e-05
3.36139e-05
3.07296e-05
2.66232e-05
2.44342e-05
2.10038e-05
1.9435e-05
1.72247e-05
1.53687e-05
1.41167e-05
1.24035e-05
1.15451e-05
1.01107e-05
9.43176e-06
8.33186e-06
7.77184e-06
6.80242e-06
6.37138e-06
5.77019e-06
5.14544e-06
4.79126e-06
4.25987e-06
4.00937e-06
3.57213e-06
3.33584e-06
2.91152e-06
2.72266e-06
2.47725e-06
2.34338e-06
2.08362e-06
1.90759e-06
1.67188e-06
1.54294e-06
1.46488e-06
1.32713e-06
1.18261e-06
1.01402e-06
9.43277e-07
8.85167e-07
7.90029e-07
6.71989e-07
6.16171e-07
5.76712e-07
5.01436e-07
4.20932e-07
3.86477e-07
3.60985e-07
3.14032e-07
2.59805e-07
2.33051e-07
2.13653e-07
1.79879e-07
1.55178e-07
1.42365e-07
1.18764e-07
9.89004e-08
9.01859e-08
7.80855e-08
6.26992e-08
5.55767e-08
4.83404e-08
3.90699e-08
3.43754e-08
2.73139e-08
2.41393e-08
1.92116e-08
1.66823e-08
1.30826e-08
1.17369e-08
1.10871e-08
1.08472e-08
1.06845e-08
1.07942e-08
3.60122e-09
2.65069e-10
1.79653e-10
1.53939e-10
1.21016e-10
1.0642e-10
8.08404e-11
6.0695e-11
5.09235e-11
3.91797e-11
3.39509e-11
2.51774e-11
1.77517e-11
1.49399e-11
1.24406e-11
8.46451e-12
6.3144e-12
5.33237e-12
4.06814e-12
2.66451e-12
2.11337e-12
1.74796e-12
1.17344e-12
8.14418e-13
6.53882e-13
4.6351e-13
3.12162e-13
2.39403e-13
1.57025e-13
1.20494e-13
7.54714e-14
5.56122e-14
3.605e-14
2.7709e-14
1.65166e-14
1.12141e-14
8.19804e-15
4.96879e-15
3.51181e-15
2.0467e-15
1.44403e-15
8.51341e-16
5.72641e-16
3.1146e-16
2.11811e-16
1.25709e-16
7.56911e-17
5.02013e-17
2.60576e-17
1.56391e-17
6.78986e-18
2.99155e-18
1.01097e-18
3.75542e-19
1.33857e-19
4.46379e-20
1.38321e-20
3.94202e-21
1.01969e-21
2.35882e-22
4.78746e-23
8.31422e-24
1.19264e-24
1.33775e-25
1.06109e-26
4.56231e-28
9.8009e-30
3.37206e-31
5.72444e-33
6.14342e-44
3.28457e-55
1.23676e-66
3.49429e-78
8.27334e-90
3.44064e-101
2.55653e-112
6.40542e-120
9.80562e-131
2.20253e-138
3.34509e-149
7.57609e-157
1.39657e-167
2.60508e-175
6.24579e-186
8.96173e-194
4.3496e-204
3.09619e-212
2.93632e-222
1.07678e-230
1.51087e-240
3.77077e-249
7.17426e-259
1.33156e-267
3.17307e-277
4.73948e-286
1.35318e-295
1.70158e-304
5.57658e-314
1.81322e-321
8.5424e-321
0
0
0
0
0
0
0
0
0
0
0
0
0
0
0
0
)
;

boundaryField
{
    inandouthalf11
    {
        type            cyclic;
    }
    inandouthalf12
    {
        type            cyclic;
    }
    inandouthalf21
    {
        type            cyclic;
    }
    inandouthalf22
    {
        type            cyclic;
    }
    inandouthalf31
    {
        type            cyclic;
    }
    inandouthalf32
    {
        type            cyclic;
    }
    inandouthalf41
    {
        type            cyclic;
    }
    inandouthalf42
    {
        type            cyclic;
    }
    top
    {
        type            symmetryPlane;
    }
    walls
    {
        type            zeroGradient;
    }
    frontAndBackPlanes
    {
        type            empty;
    }
}


// ************************************************************************* //
