/*--------------------------------*- C++ -*----------------------------------*\
| =========                 |                                                 |
| \\      /  F ield         | OpenFOAM: The Open Source CFD Toolbox           |
|  \\    /   O peration     | Version:  2.4.x                                 |
|   \\  /    A nd           | Web:      www.OpenFOAM.org                      |
|    \\/     M anipulation  |                                                 |
\*---------------------------------------------------------------------------*/
FoamFile
{
    version     2.0;
    format      ascii;
    class       volVectorField;
    location    "1.85";
    object      gradPs;
}
// * * * * * * * * * * * * * * * * * * * * * * * * * * * * * * * * * * * * * //

dimensions      [0 1 -2 0 0 0 0];

internalField   nonuniform List<vector> 
360
(
(0 4.57296e-26 0)
(0 -1.76838e-21 0)
(0 -1.76843e-21 0)
(0 8.28402e-29 0)
(-2.90872e-32 -1.76841e-21 0)
(-2.90872e-32 -1.76841e-21 0)
(-2.90872e-32 -1.76839e-21 0)
(0 -1.76839e-21 0)
(-2.90873e-32 -1.76837e-21 0)
(0 -3.53673e-21 0)
(-1.45437e-32 -1.76836e-21 0)
(0 -1.76834e-21 0)
(-2.90874e-32 -3.53666e-21 0)
(0 -3.53663e-21 0)
(0 -3.53659e-21 0)
(0 -3.53656e-21 0)
(0 -3.53652e-21 0)
(-1.45438e-32 -3.53649e-21 0)
(0 -5.30465e-21 0)
(0 -5.3046e-21 0)
(0 -5.30449e-21 0)
(-1.4544e-32 -7.07256e-21 0)
(0 -7.07242e-21 0)
(0 -7.07228e-21 0)
(0 -7.07214e-21 0)
(-1.45442e-32 -7.072e-21 0)
(0 -8.83977e-21 0)
(0 -1.06075e-20 0)
(0 -1.06072e-20 0)
(0 -1.06068e-20 0)
(0 -1.23742e-20 0)
(0 -1.23739e-20 0)
(0 -1.41409e-20 0)
(0 -1.5908e-20 0)
(0 -1.59072e-20 0)
(2.909e-32 -1.76739e-20 0)
(0 -1.94402e-20 0)
(0 -2.29734e-20 0)
(0 -2.29721e-20 0)
(0 -2.47373e-20 0)
(0 -2.82692e-20 0)
(0 -2.8267e-20 0)
(1.45461e-32 -3.17975e-20 0)
(0 -3.53275e-20 0)
(0 -3.709e-20 0)
(0 -4.06179e-20 0)
(0 -4.23791e-20 0)
(0 -4.59048e-20 0)
(0 -5.29597e-20 0)
(0 -5.64821e-20 0)
(1.45485e-32 -6.0002e-20 0)
(0 -6.52851e-20 0)
(0 -7.05648e-20 0)
(0 -7.58418e-20 0)
(0 -8.28779e-20 0)
(0 -8.99102e-20 0)
(0 -9.69359e-20 0)
(0 -1.05719e-19 0)
(0 -1.12732e-19 0)
(0 -1.23259e-19 0)
(0 -1.33777e-19 0)
(0 -1.44281e-19 0)
(0 -1.56532e-19 0)
(0 -1.68766e-19 0)
(0 -1.82739e-19 0)
(0 -1.98446e-19 0)
(0 -2.15882e-19 0)
(0 -2.33286e-19 0)
(0 -2.50656e-19 0)
(0 -2.71488e-19 0)
(0 -2.52573e-19 0)
(0 1.43959e-18 0)
(0 1.19273e-17 0)
(0 2.43137e-17 0)
(0 1.13748e-17 0)
(0 -1.28162e-17 0)
(0 -1.66035e-17 0)
(0 -9.06705e-18 0)
(0 -3.71237e-18 0)
(0 -1.15147e-18 0)
(0 1.97064e-19 0)
(0 1.04939e-18 0)
(0 1.53044e-18 0)
(0 1.57875e-18 0)
(0 1.23455e-18 0)
(0 7.17518e-19 0)
(0 2.82843e-19 0)
(0 5.82479e-20 0)
(0 2.20826e-20 0)
(0 7.9916e-20 0)
(0 1.40746e-19 0)
(0 1.53844e-19 0)
(0 1.10359e-19 0)
(0 2.98197e-20 0)
(0 -5.75046e-20 0)
(0 -1.27718e-19 0)
(0 -1.72222e-19 0)
(0 -1.9542e-19 0)
(0 -2.10899e-19 0)
(0 -1.83024e-16 0)
(0 -1.82937e-16 0)
(0 0 0)
(0 0 0)
(0 0 0)
(0 0 0)
(0 0 0)
(0 0 0)
(0 0 0)
(0 0 0)
(0 0 0)
(0 0 0)
(0 0 0)
(0 0 0)
(0 0 0)
(0 1.82543e-16 0)
(0 1.82863e-16 0)
(0 6.56058e-19 0)
(0 8.23253e-19 0)
(0 1.00116e-18 0)
(0 1.18912e-18 0)
(0 1.38586e-18 0)
(0 1.58583e-18 0)
(0 1.77169e-18 0)
(0 1.90308e-18 0)
(0 1.9074e-18 0)
(0 1.68696e-18 0)
(0 1.16495e-18 0)
(0 3.79334e-19 0)
(0 -4.19407e-19 0)
(0 -7.6303e-19 0)
(0 -9.21402e-20 0)
(0 2.09717e-18 0)
(0 6.14899e-18 0)
(0 1.17538e-17 0)
(0 1.63709e-17 0)
(0 1.42952e-17 0)
(0 1.62722e-18 0)
(0 -1.62696e-17 0)
(0 -2.83314e-17 0)
(0 -2.82081e-17 0)
(0 -1.86087e-17 0)
(0 -8.49228e-18 0)
(0 2.2644e-18 0)
(0 1.97941e-13 0)
(0 6.26562e-09 0)
(0 3.14044e-05 0)
(0 0.00993037 0)
(0 0.447015 0)
(0 2.90832 0)
(0 1.79286 0)
(0 -4.88847 0)
(0 -6.05997 0)
(0 -6.31925 0)
(0 -6.69155 0)
(0 -6.93916 0)
(0 -7.13251 0)
(0 -7.34656 0)
(0 -7.7787 0)
(0 -8.35954 0)
(0 -7.7095 0)
(0 -4.79428 0)
(0 -2.71545 0)
(0 -1.89101 0)
(0 -1.57598 0)
(0 -1.27102 0)
(0 -1.26117 0)
(0 -1.01824 0)
(0 -0.967307 0)
(0 -0.914484 0)
(0 -0.796915 0)
(0 -0.77743 0)
(0 -0.70273 0)
(0 -0.697398 0)
(0 -0.590962 0)
(0 -0.588459 0)
(0 -0.554052 0)
(0 -0.544849 0)
(0 -0.434423 0)
(0 -0.497648 0)
(0 -0.409241 0)
(0 -0.406486 0)
(0 -0.378498 0)
(0 -0.348478 0)
(0 -0.342276 0)
(0 -0.297164 0)
(0 -0.29222 0)
(0 -0.27537 0)
(0 -0.265478 0)
(0 -0.202151 0)
(0 -0.243739 0)
(0 -0.203204 0)
(0 -0.186965 0)
(0 -0.170921 0)
(0 -0.152283 0)
(0 -0.152591 0)
(0 -0.150367 0)
(0 -0.143365 0)
(0 -0.104165 0)
(0 -0.092811 0)
(0 -0.0956441 0)
(0 -0.105737 0)
(0 -0.0986436 0)
(-2.50876e-17 -0.0874757 0)
(0 -0.051121 0)
(0 -0.0513832 0)
(2.43388e-17 -0.0643655 0)
(0 -0.0692364 0)
(-2.40447e-17 -0.0532309 0)
(0 -0.029587 0)
(2.3371e-17 -0.03329 0)
(0 -0.0436955 0)
(0 -0.0354862 0)
(0 -0.0200725 0)
(1.10975e-17 -0.0226388 0)
(0 -0.0289353 0)
(0 -0.0213353 0)
(0 -0.0116122 0)
(0 -0.013019 0)
(0 -0.0168363 0)
(-5.07044e-18 -0.0132989 0)
(0 -0.00778982 0)
(-2.44636e-18 -0.00832375 0)
(0 -0.00867648 0)
(-2.36352e-18 -0.00564977 0)
(0 -0.00516905 0)
(0 -0.00572573 0)
(0 -0.00380052 0)
(0 -0.00274048 0)
(1.07698e-18 -0.00322513 0)
(0 -0.00257671 0)
(0 -0.00166482 0)
(0 -0.00171727 0)
(0 -0.00140443 0)
(0 -0.0011114 0)
(0 -0.000928822 0)
(0 -0.000696871 0)
(0 -0.000602002 0)
(0 -0.000460378 0)
(0 -0.000363905 0)
(0 -0.00020947 0)
(0 -0.00016537 0)
(0 -0.000160528 0)
(0 -0.000257765 0)
(0 -0.000174217 0)
(0 0 0)
(0 0 0)
(0 0 0)
(0 0 0)
(0 0 0)
(0 0 0)
(0 0 0)
(0 0 0)
(0 0 0)
(0 0 0)
(0 0 0)
(0 0 0)
(0 0 0)
(0 0 0)
(0 0 0)
(0 0 0)
(0 0 0)
(0 0 0)
(0 0 0)
(0 0 0)
(0 0 0)
(0 0 0)
(0 0 0)
(0 0 0)
(0 0 0)
(0 0 0)
(0 0 0)
(0 0 0)
(0 0 0)
(0 0 0)
(0 0 0)
(0 0 0)
(0 0 0)
(0 0 0)
(0 0 0)
(0 0 0)
(0 0 0)
(0 0 0)
(0 0 0)
(0 0 0)
(0 0 0)
(0 0 0)
(0 0 0)
(0 0 0)
(0 0 0)
(0 0 0)
(0 0 0)
(0 0 0)
(0 0 0)
(0 0 0)
(0 0 0)
(0 0 0)
(0 0 0)
(0 0 0)
(0 0 0)
(0 0 0)
(0 0 0)
(0 0 0)
(0 0 0)
(0 0 0)
(0 0 0)
(0 0 0)
(0 0 0)
(0 0 0)
(0 0 0)
(0 0 0)
(0 0 0)
(0 0 0)
(0 0 0)
(0 0 0)
(0 0 0)
(0 0 0)
(0 0 0)
(0 0 0)
(0 0 0)
(0 0 0)
(0 0 0)
(0 0 0)
(0 0 0)
(0 0 0)
(0 0 0)
(0 0 0)
(0 0 0)
(0 0 0)
(0 0 0)
(0 0 0)
(0 0 0)
(0 0 0)
(0 0 0)
(0 0 0)
(0 0 0)
(0 0 0)
(0 0 0)
(0 0 0)
(0 0 0)
(0 0 0)
(0 0 0)
(0 0 0)
(0 0 0)
(0 0 0)
(0 0 0)
(0 0 0)
(0 0 0)
(0 0 0)
(0 0 0)
(0 0 0)
(0 0 0)
(0 0 0)
(0 0 0)
(0 0 0)
(0 0 0)
(0 0 0)
(0 0 0)
(0 0 0)
(0 0 0)
(0 0 0)
)
;

boundaryField
{
    inandouthalf11
    {
        type            cyclic;
    }
    inandouthalf12
    {
        type            cyclic;
    }
    inandouthalf21
    {
        type            cyclic;
    }
    inandouthalf22
    {
        type            cyclic;
    }
    inandouthalf31
    {
        type            cyclic;
    }
    inandouthalf32
    {
        type            cyclic;
    }
    inandouthalf41
    {
        type            cyclic;
    }
    inandouthalf42
    {
        type            cyclic;
    }
    top
    {
        type            symmetryPlane;
    }
    walls
    {
        type            calculated;
        value           uniform (0 0 0);
    }
    frontAndBackPlanes
    {
        type            empty;
    }
}


// ************************************************************************* //
