/*--------------------------------*- C++ -*----------------------------------*\
| =========                 |                                                 |
| \\      /  F ield         | OpenFOAM: The Open Source CFD Toolbox           |
|  \\    /   O peration     | Version:  2.4.x                                 |
|   \\  /    A nd           | Web:      www.OpenFOAM.org                      |
|    \\/     M anipulation  |                                                 |
\*---------------------------------------------------------------------------*/
FoamFile
{
    version     2.0;
    format      ascii;
    class       volScalarField;
    location    "1.85";
    object      mua;
}
// * * * * * * * * * * * * * * * * * * * * * * * * * * * * * * * * * * * * * //

dimensions      [1 -1 -1 0 0 0 0];

internalField   nonuniform List<scalar> 
360
(
8.45041e+33
6.82597e+36
7.10635e+36
6.78755e+36
6.41272e+36
6.06958e+36
5.75668e+36
5.46832e+36
5.20529e+36
4.96153e+36
4.73787e+36
4.53466e+36
4.3457e+36
4.17095e+36
4.01014e+36
3.86211e+36
3.72575e+36
3.59992e+36
3.48275e+36
3.3726e+36
3.27142e+36
3.17589e+36
3.08642e+36
3.00333e+36
2.92618e+36
2.8543e+36
2.78622e+36
2.72003e+36
2.65712e+36
2.598e+36
2.54167e+36
2.48707e+36
2.43519e+36
2.3832e+36
2.33363e+36
2.28495e+36
2.2368e+36
2.18781e+36
2.13875e+36
2.09136e+36
2.04271e+36
1.99439e+36
1.94619e+36
1.89585e+36
1.84498e+36
1.79327e+36
1.74077e+36
1.68749e+36
1.63079e+36
1.57082e+36
1.50992e+36
1.44679e+36
1.38169e+36
1.31366e+36
1.2433e+36
1.16833e+36
1.09093e+36
1.00709e+36
9.19239e+35
8.17703e+35
7.04529e+35
5.63694e+35
4.04686e+35
2.27273e+35
9.76438e+34
2.67147e+34
3.88517e+33
3.19183e+31
4.3024e+28
2.89951e+22
1.02479e+11
919453
136934
51702.7
35985.2
37975.2
49907.6
67838.8
84752.2
93626.5
92738.3
85523.6
76586.6
68862.1
63328.6
59809.8
57673.4
56249
55020.2
53713.6
52283.8
50813
49405.4
48130.9
47004.3
45996.9
45063.9
44165.8
43279.4
42397
41520.8
40654.3
39797.7
38946.8
38094.6
37232.6
36351.9
35443.5
34499.1
33510.8
32472.2
31378.5
30227.8
29021.5
27764.5
26465
25134.7
23787
22436.2
21096.3
19779.7
18497.3
17259.8
16080.1
14976.1
13970.9
13090.5
12354.7
11761.7
11268.6
10774.3
10128.4
9199.26
7996.45
6730.01
5686.03
5041.71
4839.84
5116.54
6108.6
8586.47
14243.5
24710
40905.7
64836.4
92250.2
84490.8
22108.3
0.129998
0.0193893
0.006951
0.00679726
0.00665961
0.0061772
0.00561467
0.00512142
0.00477451
0.00459078
0.00452499
0.00450957
0.00450492
0.00449972
0.00449208
0.00448249
0.0044712
0.00445892
0.00444586
0.00443228
0.0044185
0.00440452
0.00439056
0.0043766
0.00436277
0.004349
0.00433538
0.00432187
0.00430852
0.00429524
0.00428208
0.00426901
0.004256
0.00424306
0.00423013
0.00421723
0.00420431
0.00419138
0.00417841
0.00416538
0.00415228
0.00413909
0.0041258
0.00411239
0.00409885
0.00408516
0.00407133
0.00405733
0.00404316
0.0040288
0.00401424
0.00399948
0.00398452
0.00396918
0.0039533
0.00393683
0.00391974
0.00390201
0.00388361
0.0038645
0.00384461
0.00382391
0.00380237
0.00377993
0.00375653
0.0037321
0.00370661
0.00367998
0.0036521
0.00362291
0.00359233
0.00356027
0.00352658
0.00349114
0.00345383
0.00341449
0.00337294
0.00332898
0.00328238
0.00323286
0.00318012
0.00312382
0.0030635
0.00299865
0.00292868
0.0028528
0.00277005
0.00267918
0.00257856
0.00246595
0.00233811
0.00219011
0.00201376
0.00179337
0.00149036
0
0
0
0
0
0
0
0
0
0
0
0
0
0
0
0
0
0
0
0
0
0
0
0
0
0
0
0
0
0
0
0
0
0
0
0
0
0
0
0
0
0
0
0
0
0
0
0
0
0
0
0
0
0
0
0
0
0
0
0
0
0
0
0
0
0
0
0
0
0
0
0
0
0
0
0
0
0
0
0
0
0
0
0
0
0
0
0
0
0
0
0
0
0
0
0
0
0
0
0
0
0
0
0
0
0
0
0
0
0
0
0
0
0
0
0
0
)
;

boundaryField
{
    inandouthalf11
    {
        type            cyclic;
    }
    inandouthalf12
    {
        type            cyclic;
    }
    inandouthalf21
    {
        type            cyclic;
    }
    inandouthalf22
    {
        type            cyclic;
    }
    inandouthalf31
    {
        type            cyclic;
    }
    inandouthalf32
    {
        type            cyclic;
    }
    inandouthalf41
    {
        type            cyclic;
    }
    inandouthalf42
    {
        type            cyclic;
    }
    top
    {
        type            symmetryPlane;
    }
    walls
    {
        type            calculated;
        value           uniform 1e+30;
    }
    frontAndBackPlanes
    {
        type            empty;
    }
}


// ************************************************************************* //
