/*--------------------------------*- C++ -*----------------------------------*\
| =========                 |                                                 |
| \\      /  F ield         | OpenFOAM: The Open Source CFD Toolbox           |
|  \\    /   O peration     | Version:  2.4.x                                 |
|   \\  /    A nd           | Web:      www.OpenFOAM.org                      |
|    \\/     M anipulation  |                                                 |
\*---------------------------------------------------------------------------*/
FoamFile
{
    version     2.0;
    format      ascii;
    class       surfaceScalarField;
    location    "1.85";
    object      phia_0;
}
// * * * * * * * * * * * * * * * * * * * * * * * * * * * * * * * * * * * * * //

dimensions      [0 3 -1 0 0 0 0];

internalField   nonuniform List<scalar> 
359
(
-3.11371e-41
-3.1132e-41
-3.11348e-41
-3.11394e-41
-3.11462e-41
-3.11554e-41
-3.1167e-41
-3.1181e-41
-3.11974e-41
-3.12164e-41
-3.12378e-41
-3.12618e-41
-3.12883e-41
-3.13173e-41
-3.13489e-41
-3.1383e-41
-3.14196e-41
-3.14587e-41
-3.15002e-41
-3.15441e-41
-3.15905e-41
-3.16393e-41
-3.16904e-41
-3.17438e-41
-3.17996e-41
-3.18575e-41
-3.19176e-41
-3.198e-41
-3.20446e-41
-3.21114e-41
-3.21803e-41
-3.22514e-41
-3.23246e-41
-3.24001e-41
-3.24777e-41
-3.25576e-41
-3.26398e-41
-3.27244e-41
-3.28115e-41
-3.29012e-41
-3.29935e-41
-3.30887e-41
-3.31867e-41
-3.32879e-41
-3.33924e-41
-3.35006e-41
-3.36125e-41
-3.37286e-41
-3.38493e-41
-3.39753e-41
-3.41069e-41
-3.42451e-41
-3.43903e-41
-3.45439e-41
-3.47068e-41
-3.48811e-41
-3.50685e-41
-3.52725e-41
-3.54972e-41
-3.57513e-41
-3.60486e-41
-3.64243e-41
-3.69547e-41
-3.79134e-41
-4.01602e-41
-4.8343e-41
-1.03932e-40
-6.75858e-39
-4.85477e-36
-7.04595e-30
-1.94231e-18
-2.10504e-13
-1.60011e-12
-5.26645e-12
-1.05249e-11
-1.55118e-11
-1.93085e-11
-2.20864e-11
-2.42835e-11
-2.62422e-11
-2.81867e-11
-3.02599e-11
-3.25373e-11
-3.50309e-11
-3.77023e-11
-4.04902e-11
-4.33398e-11
-4.62185e-11
-4.91165e-11
-5.20381e-11
-5.49908e-11
-5.79784e-11
-6.09995e-11
-6.40474e-11
-6.71142e-11
-7.01927e-11
-7.32782e-11
-7.63685e-11
-7.94626e-11
-8.25602e-11
-8.56609e-11
-8.8764e-11
-9.18685e-11
-9.4974e-11
-9.80805e-11
-1.01189e-10
-1.043e-10
-1.07417e-10
-1.10544e-10
-1.13683e-10
-1.16843e-10
-1.20028e-10
-1.23247e-10
-1.26509e-10
-1.29824e-10
-1.33201e-10
-1.36652e-10
-1.40188e-10
-1.43819e-10
-1.47555e-10
-1.51406e-10
-1.55382e-10
-1.59489e-10
-1.63733e-10
-1.68113e-10
-1.72618e-10
-1.77223e-10
-1.81886e-10
-1.86559e-10
-1.912e-10
-1.95806e-10
-2.00441e-10
-2.05245e-10
-2.10422e-10
-2.16154e-10
-2.22445e-10
-2.28977e-10
-2.35183e-10
-2.40479e-10
-2.44444e-10
-2.46937e-10
-2.48175e-10
-2.48755e-10
-2.49036e-10
-2.49167e-10
-2.49226e-10
-2.4925e-10
-2.49261e-10
-3.08196e-10
-5.71694e-09
-7.46033e-09
-4.60368e-10
8.28832e-09
1.55846e-08
2.03245e-08
2.2646e-08
2.30483e-08
2.19761e-08
1.91479e-08
1.55893e-08
1.23374e-08
9.41149e-09
6.87248e-09
4.61953e-09
2.65682e-09
9.01142e-10
-6.74458e-10
-2.08135e-09
-3.37112e-09
-4.53198e-09
-5.60639e-09
-6.58161e-09
-7.49335e-09
-8.32827e-09
-9.11135e-09
-9.83381e-09
-1.05189e-08
-1.11551e-08
-1.17564e-08
-1.23259e-08
-1.28617e-08
-1.33749e-08
-1.3859e-08
-1.43261e-08
-1.47691e-08
-1.51974e-08
-1.5606e-08
-1.60051e-08
-1.63866e-08
-1.67564e-08
-1.71182e-08
-1.74679e-08
-1.7811e-08
-1.8142e-08
-1.84672e-08
-1.87843e-08
-1.91015e-08
-1.94114e-08
-1.97145e-08
-2.00081e-08
-2.03003e-08
-2.05973e-08
-2.0904e-08
-2.12118e-08
-2.15141e-08
-2.1818e-08
-2.21318e-08
-2.24607e-08
-2.27904e-08
-2.31153e-08
-2.34478e-08
-2.37975e-08
-2.41504e-08
-2.44998e-08
-2.4863e-08
-2.52489e-08
-2.56381e-08
-2.60221e-08
-2.642e-08
-2.68459e-08
-2.72822e-08
-2.77213e-08
-2.81822e-08
-2.86614e-08
-2.91464e-08
-2.96585e-08
-3.02015e-08
-3.07517e-08
-3.13211e-08
-3.193e-08
-3.25574e-08
-3.32028e-08
-3.38813e-08
-3.45849e-08
-3.53194e-08
-3.60728e-08
-3.6847e-08
-3.76339e-08
-3.84286e-08
-3.91924e-08
-3.9881e-08
-4.04577e-08
-4.10293e-08
-9.82392e-08
-1.57192e-07
-1.58169e-07
-1.58169e-07
-1.58168e-07
-1.58169e-07
-1.58168e-07
-1.58169e-07
-1.58169e-07
-1.58169e-07
-1.58169e-07
-1.58169e-07
-1.58169e-07
-1.58169e-07
-1.58169e-07
-1.58169e-07
-1.58169e-07
-1.58169e-07
-1.58169e-07
-1.58169e-07
-1.58169e-07
-1.58169e-07
-1.58169e-07
-1.58169e-07
-1.58169e-07
-1.58169e-07
-1.58169e-07
-1.58169e-07
-1.58169e-07
-1.58169e-07
-1.58169e-07
-1.58169e-07
-1.58169e-07
-1.58169e-07
-1.58169e-07
-1.58169e-07
-1.58169e-07
-1.58169e-07
-1.58169e-07
-1.58169e-07
-1.58169e-07
-1.58169e-07
-1.58169e-07
-1.58169e-07
-1.58169e-07
-1.58169e-07
-1.58169e-07
-1.58169e-07
-1.58169e-07
-1.58169e-07
-1.58169e-07
-1.58169e-07
-1.58169e-07
-1.58169e-07
-1.58169e-07
-1.58169e-07
-1.58169e-07
-1.58169e-07
-1.58169e-07
-1.58169e-07
-1.58169e-07
-1.58169e-07
-1.58169e-07
-1.58169e-07
-1.58169e-07
-1.58169e-07
-1.58169e-07
-1.58169e-07
-1.58169e-07
-1.58169e-07
-1.58169e-07
-1.58169e-07
-1.58169e-07
-1.58169e-07
-1.58169e-07
-1.58169e-07
-1.58169e-07
-1.58169e-07
-1.58169e-07
-1.58169e-07
-1.58169e-07
-1.58169e-07
-1.58169e-07
-1.58169e-07
-1.58169e-07
-1.58169e-07
-1.58169e-07
-1.58169e-07
-1.58169e-07
-1.58169e-07
-1.58169e-07
-1.58169e-07
-1.58169e-07
-1.58169e-07
-1.58169e-07
-1.58169e-07
-1.58169e-07
-1.58169e-07
-1.58169e-07
-1.58169e-07
-1.58169e-07
-1.58169e-07
-1.58169e-07
-1.58169e-07
-1.58169e-07
-1.58169e-07
-1.58169e-07
-1.58169e-07
-1.58169e-07
-1.58169e-07
-1.58169e-07
-1.58169e-07
-1.58168e-07
-1.58151e-07
-1.57445e-07
-1.32558e-07
)
;

boundaryField
{
    inandouthalf11
    {
        type            cyclic;
        value           nonuniform List<scalar> 
100
(
-1.30331e-42
-1.30334e-42
-1.30336e-42
-1.30339e-42
-1.30343e-42
-1.30347e-42
-1.30352e-42
-1.30359e-42
-1.30367e-42
-1.30376e-42
-1.30387e-42
-1.30399e-42
-1.30414e-42
-1.3043e-42
-1.30448e-42
-1.30469e-42
-1.30491e-42
-1.30517e-42
-1.30544e-42
-1.30575e-42
-1.30607e-42
-1.30643e-42
-1.30682e-42
-1.30723e-42
-1.30768e-42
-1.30815e-42
-1.30866e-42
-1.30919e-42
-1.30976e-42
-1.31036e-42
-1.311e-42
-1.31166e-42
-1.31237e-42
-1.3131e-42
-1.31387e-42
-1.31468e-42
-1.31552e-42
-1.3164e-42
-1.31732e-42
-1.31828e-42
-1.31929e-42
-1.32033e-42
-1.32142e-42
-1.32256e-42
-1.32374e-42
-1.32498e-42
-1.32628e-42
-1.32764e-42
-1.32906e-42
-1.33056e-42
-1.33214e-42
-1.3338e-42
-1.33557e-42
-1.33746e-42
-1.33947e-42
-1.34164e-42
-1.344e-42
-1.34656e-42
-1.34943e-42
-1.35262e-42
-1.3564e-42
-1.36092e-42
-1.36717e-42
-1.37653e-42
-1.39658e-42
-1.44798e-42
-1.66665e-42
-3.33499e-42
-2.35797e-40
-1.74095e-37
-2.57558e-31
-7.2273e-20
-7.99584e-15
-5.39459e-14
-1.55277e-13
-2.78269e-13
-3.84061e-13
-4.64608e-13
-5.27884e-13
-5.82892e-13
-6.36339e-13
-6.93033e-13
-7.5629e-13
-8.27832e-13
-9.07706e-13
-9.9469e-13
-1.08713e-12
-1.18373e-12
-1.28388e-12
-1.38758e-12
-1.49516e-12
-1.60695e-12
-1.72312e-12
-1.84364e-12
-1.96833e-12
-2.09698e-12
-2.22944e-12
-2.36565e-12
-2.50562e-12
-2.64941e-12
)
;
    }
    inandouthalf12
    {
        type            cyclic;
        value           nonuniform List<scalar> 
100
(
1.30331e-42
1.30334e-42
1.30336e-42
1.30339e-42
1.30343e-42
1.30347e-42
1.30352e-42
1.30359e-42
1.30367e-42
1.30376e-42
1.30387e-42
1.30399e-42
1.30414e-42
1.3043e-42
1.30448e-42
1.30469e-42
1.30491e-42
1.30517e-42
1.30544e-42
1.30575e-42
1.30607e-42
1.30643e-42
1.30682e-42
1.30723e-42
1.30768e-42
1.30815e-42
1.30866e-42
1.30919e-42
1.30976e-42
1.31036e-42
1.311e-42
1.31166e-42
1.31237e-42
1.3131e-42
1.31387e-42
1.31468e-42
1.31552e-42
1.3164e-42
1.31732e-42
1.31828e-42
1.31929e-42
1.32033e-42
1.32142e-42
1.32256e-42
1.32374e-42
1.32498e-42
1.32628e-42
1.32764e-42
1.32906e-42
1.33056e-42
1.33214e-42
1.3338e-42
1.33557e-42
1.33746e-42
1.33947e-42
1.34164e-42
1.344e-42
1.34656e-42
1.34943e-42
1.35262e-42
1.3564e-42
1.36092e-42
1.36717e-42
1.37653e-42
1.39658e-42
1.44798e-42
1.66665e-42
3.33499e-42
2.35797e-40
1.74095e-37
2.57558e-31
7.2273e-20
7.99584e-15
5.39459e-14
1.55277e-13
2.78269e-13
3.84061e-13
4.64608e-13
5.27884e-13
5.82892e-13
6.36339e-13
6.93033e-13
7.5629e-13
8.27832e-13
9.07706e-13
9.9469e-13
1.08713e-12
1.18373e-12
1.28388e-12
1.38758e-12
1.49516e-12
1.60695e-12
1.72312e-12
1.84364e-12
1.96833e-12
2.09698e-12
2.22944e-12
2.36565e-12
2.50562e-12
2.64941e-12
)
;
    }
    inandouthalf21
    {
        type            cyclic;
        value           nonuniform List<scalar> 
100
(
-2.7971e-12
-2.94874e-12
-3.10441e-12
-3.26416e-12
-3.4281e-12
-3.59636e-12
-3.76914e-12
-3.94671e-12
-4.12941e-12
-4.31769e-12
-4.5121e-12
-4.71333e-12
-4.92219e-12
-5.13967e-12
-5.36691e-12
-5.60522e-12
-5.85609e-12
-6.1212e-12
-6.40239e-12
-6.70172e-12
-7.02141e-12
-7.36392e-12
-7.73191e-12
-8.1282e-12
-8.55552e-12
-9.01619e-12
-9.51148e-12
-1.00411e-11
-1.06029e-11
-1.11946e-11
-1.18163e-11
-1.24755e-11
-1.31927e-11
-1.40036e-11
-1.49566e-11
-1.60946e-11
-1.74207e-11
-1.88697e-11
-2.03155e-11
-2.16024e-11
-2.25857e-11
-2.32146e-11
-2.35758e-11
-2.37807e-11
-2.38971e-11
-2.39636e-11
-2.4009e-11
-2.40653e-11
-2.43022e-11
-3.39404e-08
-1.90682e-07
-4.17706e-07
-6.06663e-07
-7.61663e-07
-8.86084e-07
-9.80708e-07
-1.04692e-06
-1.08896e-06
-1.11459e-06
-1.13179e-06
-1.14521e-06
-1.15656e-06
-1.16645e-06
-1.17518e-06
-1.18297e-06
-1.18994e-06
-1.19626e-06
-1.20199e-06
-1.20722e-06
-1.21202e-06
-1.21643e-06
-1.22052e-06
-1.2243e-06
-1.22783e-06
-1.23112e-06
-1.2342e-06
-1.23709e-06
-1.23982e-06
-1.24239e-06
-1.24482e-06
-1.24713e-06
-1.24933e-06
-1.25142e-06
-1.25342e-06
-1.25534e-06
-1.25718e-06
-1.25894e-06
-1.26064e-06
-1.26229e-06
-1.26387e-06
-1.2654e-06
-1.26689e-06
-1.26834e-06
-1.26974e-06
-1.2711e-06
-1.27242e-06
-1.27372e-06
-1.275e-06
-1.27625e-06
-1.27744e-06
)
;
    }
    inandouthalf22
    {
        type            cyclic;
        value           nonuniform List<scalar> 
100
(
2.7971e-12
2.94874e-12
3.10441e-12
3.26416e-12
3.4281e-12
3.59636e-12
3.76914e-12
3.94671e-12
4.12941e-12
4.31769e-12
4.5121e-12
4.71333e-12
4.92219e-12
5.13967e-12
5.36691e-12
5.60522e-12
5.85609e-12
6.1212e-12
6.40239e-12
6.70172e-12
7.02141e-12
7.36392e-12
7.73191e-12
8.1282e-12
8.55552e-12
9.01619e-12
9.51148e-12
1.00411e-11
1.06029e-11
1.11946e-11
1.18163e-11
1.24755e-11
1.31927e-11
1.40036e-11
1.49566e-11
1.60946e-11
1.74207e-11
1.88697e-11
2.03155e-11
2.16024e-11
2.25857e-11
2.32146e-11
2.35758e-11
2.37807e-11
2.38971e-11
2.39636e-11
2.4009e-11
2.40653e-11
2.43022e-11
3.39404e-08
1.90682e-07
4.17706e-07
6.06663e-07
7.61663e-07
8.86084e-07
9.80708e-07
1.04692e-06
1.08896e-06
1.11459e-06
1.13179e-06
1.14521e-06
1.15656e-06
1.16645e-06
1.17518e-06
1.18297e-06
1.18994e-06
1.19626e-06
1.20199e-06
1.20722e-06
1.21202e-06
1.21643e-06
1.22052e-06
1.2243e-06
1.22783e-06
1.23112e-06
1.2342e-06
1.23709e-06
1.23982e-06
1.24239e-06
1.24482e-06
1.24713e-06
1.24933e-06
1.25142e-06
1.25342e-06
1.25534e-06
1.25718e-06
1.25894e-06
1.26064e-06
1.26229e-06
1.26387e-06
1.2654e-06
1.26689e-06
1.26834e-06
1.26974e-06
1.2711e-06
1.27242e-06
1.27372e-06
1.275e-06
1.27625e-06
1.27744e-06
)
;
    }
    inandouthalf31
    {
        type            cyclic;
        value           nonuniform List<scalar> 
110
(
-1.27861e-06
-1.30575e-06
-1.33348e-06
-1.36182e-06
-1.39072e-06
-1.42022e-06
-1.45035e-06
-1.48116e-06
-1.51265e-06
-1.54477e-06
-1.57756e-06
-1.61109e-06
-1.64536e-06
-1.68033e-06
-1.71603e-06
-1.75257e-06
-1.78994e-06
-1.82804e-06
-1.86694e-06
-1.90676e-06
-1.9475e-06
-1.98908e-06
-2.03157e-06
-2.07505e-06
-2.11947e-06
-2.16485e-06
-2.21134e-06
-2.25887e-06
-2.30739e-06
-2.35707e-06
-2.40793e-06
-2.45987e-06
-2.51303e-06
-2.5674e-06
-2.62302e-06
-2.67989e-06
-2.73802e-06
-2.79742e-06
-2.85809e-06
-2.91998e-06
-2.98284e-06
-3.04654e-06
-3.11094e-06
-3.17709e-06
-3.49647e-06
-3.57238e-06
-3.64489e-06
-3.71888e-06
-3.79436e-06
-3.87138e-06
-3.94996e-06
-4.03014e-06
-4.11194e-06
-4.1954e-06
-4.28056e-06
-4.36744e-06
-4.45609e-06
-4.54654e-06
-4.63882e-06
-4.73298e-06
-4.82905e-06
-4.92706e-06
-5.02707e-06
-5.12911e-06
-5.23321e-06
-5.33943e-06
-5.44781e-06
-5.55839e-06
-5.67121e-06
-5.78632e-06
-5.90376e-06
-6.0236e-06
-6.14586e-06
-6.2706e-06
-6.39788e-06
-6.52774e-06
-6.66023e-06
-6.79542e-06
-6.93335e-06
-7.07408e-06
-7.21766e-06
-7.36416e-06
-7.51363e-06
-7.66614e-06
-7.82174e-06
-7.9805e-06
-8.14249e-06
-8.30776e-06
-8.47638e-06
-8.64843e-06
-8.82397e-06
-9.00307e-06
-9.18581e-06
-9.37226e-06
-9.56249e-06
-9.75659e-06
-9.95462e-06
-1.01567e-05
-1.03628e-05
-1.05732e-05
-1.07878e-05
-1.10067e-05
-1.12301e-05
-1.14581e-05
-1.16906e-05
-1.19279e-05
-1.217e-05
-1.24171e-05
-1.26691e-05
-1.29262e-05
)
;
    }
    inandouthalf32
    {
        type            cyclic;
        value           nonuniform List<scalar> 
110
(
1.27861e-06
1.30575e-06
1.33348e-06
1.36182e-06
1.39072e-06
1.42022e-06
1.45035e-06
1.48116e-06
1.51265e-06
1.54477e-06
1.57756e-06
1.61109e-06
1.64536e-06
1.68033e-06
1.71603e-06
1.75257e-06
1.78994e-06
1.82804e-06
1.86694e-06
1.90676e-06
1.9475e-06
1.98908e-06
2.03157e-06
2.07505e-06
2.11947e-06
2.16485e-06
2.21134e-06
2.25887e-06
2.30739e-06
2.35707e-06
2.40793e-06
2.45987e-06
2.51303e-06
2.5674e-06
2.62302e-06
2.67989e-06
2.73802e-06
2.79742e-06
2.85809e-06
2.91998e-06
2.98284e-06
3.04654e-06
3.11094e-06
3.17709e-06
3.49647e-06
3.57238e-06
3.64489e-06
3.71888e-06
3.79436e-06
3.87138e-06
3.94996e-06
4.03014e-06
4.11194e-06
4.1954e-06
4.28056e-06
4.36744e-06
4.45609e-06
4.54654e-06
4.63882e-06
4.73298e-06
4.82905e-06
4.92706e-06
5.02707e-06
5.12911e-06
5.23321e-06
5.33943e-06
5.44781e-06
5.55839e-06
5.67121e-06
5.78632e-06
5.90376e-06
6.0236e-06
6.14586e-06
6.2706e-06
6.39788e-06
6.52774e-06
6.66023e-06
6.79542e-06
6.93335e-06
7.07408e-06
7.21766e-06
7.36416e-06
7.51363e-06
7.66614e-06
7.82174e-06
7.9805e-06
8.14249e-06
8.30776e-06
8.47638e-06
8.64843e-06
8.82397e-06
9.00307e-06
9.18581e-06
9.37226e-06
9.56249e-06
9.75659e-06
9.95462e-06
1.01567e-05
1.03628e-05
1.05732e-05
1.07878e-05
1.10067e-05
1.12301e-05
1.14581e-05
1.16906e-05
1.19279e-05
1.217e-05
1.24171e-05
1.26691e-05
1.29262e-05
)
;
    }
    inandouthalf41
    {
        type            cyclic;
        value           nonuniform List<scalar> 
50
(
-1.15703e-05
-1.15703e-05
-1.15703e-05
-1.15703e-05
-1.15703e-05
-1.15703e-05
-1.15703e-05
-1.15703e-05
-1.15703e-05
-1.15703e-05
-1.15703e-05
-1.15703e-05
-1.15703e-05
-1.15703e-05
-1.15703e-05
-1.15703e-05
-1.15703e-05
-1.15703e-05
-1.15703e-05
-1.15703e-05
-1.15703e-05
-1.15703e-05
-1.15703e-05
-1.15703e-05
-1.15703e-05
-1.15703e-05
-1.15703e-05
-1.15703e-05
-1.15703e-05
-1.15703e-05
-1.15703e-05
-1.15703e-05
-1.15703e-05
-1.15703e-05
-1.15703e-05
-1.15703e-05
-1.15703e-05
-1.15703e-05
-1.15703e-05
-1.15703e-05
-1.15703e-05
-1.15703e-05
-1.15703e-05
-1.15703e-05
-1.15703e-05
-1.15703e-05
-1.15703e-05
-1.15703e-05
-1.15704e-05
-1.15725e-05
)
;
    }
    inandouthalf42
    {
        type            cyclic;
        value           nonuniform List<scalar> 
50
(
1.15703e-05
1.15703e-05
1.15703e-05
1.15703e-05
1.15703e-05
1.15703e-05
1.15703e-05
1.15703e-05
1.15703e-05
1.15703e-05
1.15703e-05
1.15703e-05
1.15703e-05
1.15703e-05
1.15703e-05
1.15703e-05
1.15703e-05
1.15703e-05
1.15703e-05
1.15703e-05
1.15703e-05
1.15703e-05
1.15703e-05
1.15703e-05
1.15703e-05
1.15703e-05
1.15703e-05
1.15703e-05
1.15703e-05
1.15703e-05
1.15703e-05
1.15703e-05
1.15703e-05
1.15703e-05
1.15703e-05
1.15703e-05
1.15703e-05
1.15703e-05
1.15703e-05
1.15703e-05
1.15703e-05
1.15703e-05
1.15703e-05
1.15703e-05
1.15703e-05
1.15703e-05
1.15703e-05
1.15703e-05
1.15704e-05
1.15725e-05
)
;
    }
    top
    {
        type            symmetryPlane;
        value           uniform 0;
    }
    walls
    {
        type            fixedValue;
        value           uniform 0;
    }
    frontAndBackPlanes
    {
        type            empty;
        value           nonuniform 0();
    }
}


// ************************************************************************* //
