/*--------------------------------*- C++ -*----------------------------------*\
| =========                 |                                                 |
| \\      /  F ield         | OpenFOAM: The Open Source CFD Toolbox           |
|  \\    /   O peration     | Version:  2.4.x                                 |
|   \\  /    A nd           | Web:      www.OpenFOAM.org                      |
|    \\/     M anipulation  |                                                 |
\*---------------------------------------------------------------------------*/
FoamFile
{
    version     2.0;
    format      ascii;
    class       surfaceScalarField;
    location    "1.85";
    object      phib_0;
}
// * * * * * * * * * * * * * * * * * * * * * * * * * * * * * * * * * * * * * //

dimensions      [0 3 -1 0 0 0 0];

internalField   nonuniform List<scalar> 
359
(
4.06739e-19
8.13978e-19
1.22468e-18
1.6327e-18
2.04129e-18
2.45182e-18
2.86365e-18
3.27365e-18
3.68401e-18
4.09544e-18
4.50489e-18
4.91227e-18
5.32179e-18
5.72745e-18
6.13236e-18
6.53912e-18
6.94197e-18
7.34702e-18
7.74831e-18
8.15026e-18
8.55058e-18
8.94871e-18
9.34525e-18
9.74316e-18
1.01373e-17
1.05314e-17
1.09215e-17
1.13139e-17
1.17014e-17
1.2088e-17
1.24705e-17
1.28538e-17
1.32353e-17
1.36166e-17
1.39929e-17
1.43693e-17
1.47415e-17
1.51148e-17
1.54847e-17
1.58558e-17
1.62202e-17
1.6587e-17
1.69467e-17
1.73086e-17
1.76651e-17
1.80239e-17
1.83747e-17
1.87278e-17
1.90729e-17
1.94213e-17
1.97647e-17
2.01074e-17
2.04436e-17
2.07815e-17
2.11131e-17
2.1448e-17
2.17749e-17
2.21044e-17
2.2427e-17
2.27492e-17
2.30666e-17
2.33853e-17
2.3692e-17
2.40046e-17
2.43093e-17
2.46159e-17
2.49136e-17
2.52126e-17
2.55054e-17
2.57972e-17
2.9108e-17
3.27652e-13
2.48979e-12
8.1939e-12
1.6376e-11
2.41361e-11
3.00421e-11
3.43595e-11
3.77696e-11
4.0806e-11
4.38182e-11
4.70289e-11
5.05558e-11
5.44175e-11
5.85541e-11
6.28699e-11
6.72793e-11
7.17314e-11
7.62107e-11
8.07237e-11
8.52822e-11
8.98922e-11
9.4551e-11
9.92487e-11
1.03973e-10
1.08711e-10
1.13458e-10
1.18208e-10
1.22961e-10
1.27715e-10
1.3247e-10
1.37225e-10
1.41978e-10
1.46729e-10
1.51476e-10
1.56221e-10
1.60967e-10
1.65717e-10
1.70475e-10
1.7525e-10
1.80048e-10
1.84881e-10
1.8976e-10
1.94698e-10
1.99711e-10
2.04814e-10
2.10022e-10
2.15353e-10
2.20822e-10
2.26443e-10
2.32233e-10
2.38202e-10
2.44364e-10
2.50723e-10
2.57278e-10
2.64012e-10
2.70884e-10
2.77831e-10
2.84779e-10
2.91664e-10
2.9848e-10
3.05321e-10
3.12395e-10
3.20004e-10
3.28423e-10
3.37664e-10
3.47251e-10
3.56313e-10
3.63951e-10
3.69544e-10
3.72939e-10
3.7441e-10
3.74723e-10
3.74377e-10
3.73586e-10
3.72422e-10
3.70832e-10
3.68375e-10
3.53298e-10
2.8675e-09
1.25499e-09
3.9782e-11
-5.1558e-10
-7.11232e-10
-6.24152e-10
-4.06505e-10
-2.0536e-10
-8.26474e-11
-2.7167e-11
-8.95529e-12
-3.8359e-12
-2.00901e-12
-1.11173e-12
-5.93104e-13
-2.80824e-13
-7.84118e-14
5.00612e-14
1.31875e-13
1.83946e-13
2.15598e-13
2.33211e-13
2.40756e-13
2.41098e-13
2.38851e-13
2.3263e-13
2.23445e-13
2.12714e-13
2.04503e-13
1.91623e-13
1.81747e-13
1.70578e-13
1.60187e-13
1.50095e-13
1.40013e-13
1.31206e-13
1.22397e-13
1.13752e-13
1.0545e-13
9.95068e-14
9.14807e-14
8.50756e-14
7.90775e-14
7.36658e-14
6.87957e-14
6.38102e-14
5.87006e-14
5.38329e-14
5.04897e-14
4.7539e-14
4.43095e-14
4.05513e-14
3.69096e-14
3.36342e-14
3.19268e-14
3.00673e-14
2.74148e-14
2.43459e-14
2.20063e-14
2.08587e-14
1.939e-14
1.71722e-14
1.53505e-14
1.44249e-14
1.32331e-14
1.1493e-14
1.02127e-14
9.59984e-15
8.80409e-15
7.60291e-15
6.63377e-15
6.11039e-15
5.47361e-15
4.73886e-15
4.27954e-15
3.82266e-15
3.24429e-15
2.86976e-15
2.60225e-15
2.22016e-15
1.90211e-15
1.70535e-15
1.46512e-15
1.25728e-15
1.0801e-15
9.21138e-16
7.94583e-16
6.73414e-16
5.72253e-16
4.88414e-16
4.58476e-16
4.48336e-16
4.4635e-16
4.50983e-16
7.21871e-16
3.18895e-16
4.54217e-17
3.63288e-17
3.15008e-17
2.75036e-17
2.41292e-17
2.02791e-17
1.76707e-17
1.5703e-17
1.4097e-17
1.27047e-17
1.11436e-17
1.00245e-17
9.31087e-18
8.48626e-18
7.69864e-18
7.1405e-18
6.67723e-18
6.19048e-18
5.80312e-18
5.5353e-18
5.31099e-18
5.14186e-18
4.99458e-18
4.87556e-18
4.76516e-18
4.66319e-18
4.57219e-18
4.50392e-18
4.43424e-18
4.35654e-18
4.25782e-18
4.16193e-18
4.0382e-18
3.90768e-18
3.76492e-18
3.66565e-18
3.55572e-18
3.44182e-18
3.2895e-18
3.15031e-18
2.96921e-18
2.76812e-18
2.54067e-18
2.34725e-18
2.12703e-18
1.90126e-18
1.64274e-18
1.40085e-18
1.14358e-18
8.98319e-19
6.98442e-19
5.48238e-19
4.86523e-19
4.47037e-19
5.52581e-19
5.32041e-19
5.15027e-19
5.00267e-19
4.89555e-19
4.82129e-19
4.81876e-19
4.83166e-19
4.88663e-19
4.90784e-19
5.01157e-19
5.11839e-19
5.28176e-19
5.39365e-19
5.58654e-19
5.77509e-19
6.074e-19
6.31413e-19
6.66568e-19
7.05058e-19
7.59513e-19
8.07357e-19
8.78741e-19
9.5576e-19
1.0668e-18
1.18458e-18
1.35757e-18
1.59174e-18
2.07118e-18
2.80964e-18
3.80673e-18
4.86626e-18
6.00293e-18
7.14008e-18
8.33207e-18
9.53649e-18
1.07602e-17
1.20573e-17
1.3327e-17
1.46028e-17
1.57928e-17
1.71568e-17
1.82894e-17
1.95084e-17
2.05893e-17
2.29265e-17
2.47668e-17
2.66381e-17
2.74267e-17
2.91834e-17
2.92952e-17
2.94361e-17
2.81317e-17
2.97239e-17
2.892e-17
2.79447e-17
2.36349e-17
2.08804e-17
1.50562e-17
9.73134e-18
)
;

boundaryField
{
    inandouthalf11
    {
        type            cyclic;
        value           nonuniform List<scalar> 
100
(
9.07491e-11
9.09037e-11
9.09046e-11
9.09046e-11
9.09046e-11
9.09054e-11
9.09054e-11
9.09062e-11
9.09062e-11
9.09069e-11
9.09077e-11
9.09077e-11
9.09084e-11
9.09092e-11
9.091e-11
9.09107e-11
9.09115e-11
9.09123e-11
9.0913e-11
9.09146e-11
9.09153e-11
9.09168e-11
9.09184e-11
9.09199e-11
9.09214e-11
9.0923e-11
9.09245e-11
9.09268e-11
9.09291e-11
9.09314e-11
9.09336e-11
9.09367e-11
9.0939e-11
9.09428e-11
9.09459e-11
9.09497e-11
9.09535e-11
9.09581e-11
9.09634e-11
9.0968e-11
9.09741e-11
9.09802e-11
9.09863e-11
9.0994e-11
9.10016e-11
9.101e-11
9.10192e-11
9.10284e-11
9.10391e-11
9.10513e-11
9.10635e-11
9.10773e-11
9.10918e-11
9.11079e-11
9.11247e-11
9.11439e-11
9.11637e-11
9.11859e-11
9.12097e-11
9.12349e-11
9.12633e-11
9.12932e-11
9.13261e-11
9.13614e-11
9.13997e-11
9.14412e-11
9.14865e-11
9.15356e-11
9.15886e-11
9.16455e-11
9.17078e-11
9.1774e-11
9.1825e-11
9.18121e-11
9.17093e-11
9.15731e-11
9.14662e-11
9.14042e-11
9.13746e-11
9.13625e-11
9.13562e-11
9.13477e-11
9.13314e-11
9.13042e-11
9.12663e-11
9.122e-11
9.11684e-11
9.11137e-11
9.10571e-11
9.09986e-11
9.09375e-11
9.08733e-11
9.08054e-11
9.07339e-11
9.0659e-11
9.05811e-11
9.05005e-11
9.04172e-11
9.03315e-11
9.02432e-11
)
;
    }
    inandouthalf12
    {
        type            cyclic;
        value           nonuniform List<scalar> 
100
(
-9.07491e-11
-9.09037e-11
-9.09046e-11
-9.09046e-11
-9.09046e-11
-9.09054e-11
-9.09054e-11
-9.09062e-11
-9.09062e-11
-9.09069e-11
-9.09077e-11
-9.09077e-11
-9.09084e-11
-9.09092e-11
-9.091e-11
-9.09107e-11
-9.09115e-11
-9.09123e-11
-9.0913e-11
-9.09146e-11
-9.09153e-11
-9.09168e-11
-9.09184e-11
-9.09199e-11
-9.09214e-11
-9.0923e-11
-9.09245e-11
-9.09268e-11
-9.09291e-11
-9.09314e-11
-9.09336e-11
-9.09367e-11
-9.0939e-11
-9.09428e-11
-9.09459e-11
-9.09497e-11
-9.09535e-11
-9.09581e-11
-9.09634e-11
-9.0968e-11
-9.09741e-11
-9.09802e-11
-9.09863e-11
-9.0994e-11
-9.10016e-11
-9.101e-11
-9.10192e-11
-9.10284e-11
-9.10391e-11
-9.10513e-11
-9.10635e-11
-9.10773e-11
-9.10918e-11
-9.11079e-11
-9.11247e-11
-9.11439e-11
-9.11637e-11
-9.11859e-11
-9.12097e-11
-9.12349e-11
-9.12633e-11
-9.12932e-11
-9.13261e-11
-9.13614e-11
-9.13997e-11
-9.14412e-11
-9.14865e-11
-9.15356e-11
-9.15886e-11
-9.16455e-11
-9.17078e-11
-9.1774e-11
-9.1825e-11
-9.18121e-11
-9.17093e-11
-9.15731e-11
-9.14662e-11
-9.14042e-11
-9.13746e-11
-9.13625e-11
-9.13562e-11
-9.13477e-11
-9.13314e-11
-9.13042e-11
-9.12663e-11
-9.122e-11
-9.11684e-11
-9.11137e-11
-9.10571e-11
-9.09986e-11
-9.09375e-11
-9.08733e-11
-9.08054e-11
-9.07339e-11
-9.0659e-11
-9.05811e-11
-9.05005e-11
-9.04172e-11
-9.03315e-11
-9.02432e-11
)
;
    }
    inandouthalf21
    {
        type            cyclic;
        value           nonuniform List<scalar> 
100
(
9.01523e-11
9.00588e-11
8.99626e-11
8.98638e-11
8.97624e-11
8.96581e-11
8.9551e-11
8.94408e-11
8.93273e-11
8.921e-11
8.90884e-11
8.89621e-11
8.88301e-11
8.86916e-11
8.85456e-11
8.83907e-11
8.82257e-11
8.80488e-11
8.78584e-11
8.76526e-11
8.74291e-11
8.71856e-11
8.69198e-11
8.66291e-11
8.63109e-11
8.59631e-11
8.55847e-11
8.51757e-11
8.47381e-11
8.42739e-11
8.37831e-11
8.32591e-11
8.26844e-11
8.20269e-11
8.12399e-11
8.02765e-11
7.91271e-11
7.78571e-11
7.66028e-11
7.55272e-11
7.47564e-11
7.43038e-11
7.41802e-11
7.43253e-11
7.46636e-11
7.51831e-11
7.58836e-11
7.67932e-11
4.06944e-11
-3.43314e-08
-1.98301e-07
-4.36862e-07
-6.38178e-07
-8.02888e-07
-9.3614e-07
-1.04231e-06
-1.12571e-06
-1.18956e-06
-1.23637e-06
-1.27022e-06
-1.29581e-06
-1.31638e-06
-1.33321e-06
-1.34711e-06
-1.35851e-06
-1.368e-06
-1.37594e-06
-1.38264e-06
-1.38845e-06
-1.39348e-06
-1.39795e-06
-1.40191e-06
-1.4055e-06
-1.40872e-06
-1.41165e-06
-1.4143e-06
-1.41674e-06
-1.41896e-06
-1.42099e-06
-1.42286e-06
-1.42457e-06
-1.42614e-06
-1.42759e-06
-1.42892e-06
-1.43014e-06
-1.43127e-06
-1.4323e-06
-1.43326e-06
-1.43414e-06
-1.43495e-06
-1.4357e-06
-1.43639e-06
-1.43703e-06
-1.43762e-06
-1.43816e-06
-1.43866e-06
-1.43912e-06
-1.43954e-06
-1.43994e-06
-1.4403e-06
)
;
    }
    inandouthalf22
    {
        type            cyclic;
        value           nonuniform List<scalar> 
100
(
-9.01523e-11
-9.00588e-11
-8.99626e-11
-8.98638e-11
-8.97624e-11
-8.96581e-11
-8.9551e-11
-8.94408e-11
-8.93273e-11
-8.921e-11
-8.90884e-11
-8.89621e-11
-8.88301e-11
-8.86916e-11
-8.85456e-11
-8.83907e-11
-8.82257e-11
-8.80488e-11
-8.78584e-11
-8.76526e-11
-8.74291e-11
-8.71856e-11
-8.69198e-11
-8.66291e-11
-8.63109e-11
-8.59631e-11
-8.55847e-11
-8.51757e-11
-8.47381e-11
-8.42739e-11
-8.37831e-11
-8.32591e-11
-8.26844e-11
-8.20269e-11
-8.12399e-11
-8.02765e-11
-7.91271e-11
-7.78571e-11
-7.66028e-11
-7.55272e-11
-7.47564e-11
-7.43038e-11
-7.41802e-11
-7.43253e-11
-7.46636e-11
-7.51831e-11
-7.58836e-11
-7.67932e-11
-4.06944e-11
3.43314e-08
1.98301e-07
4.36862e-07
6.38178e-07
8.02888e-07
9.3614e-07
1.04231e-06
1.12571e-06
1.18956e-06
1.23637e-06
1.27022e-06
1.29581e-06
1.31638e-06
1.33321e-06
1.34711e-06
1.35851e-06
1.368e-06
1.37594e-06
1.38264e-06
1.38845e-06
1.39348e-06
1.39795e-06
1.40191e-06
1.4055e-06
1.40872e-06
1.41165e-06
1.4143e-06
1.41674e-06
1.41896e-06
1.42099e-06
1.42286e-06
1.42457e-06
1.42614e-06
1.42759e-06
1.42892e-06
1.43014e-06
1.43127e-06
1.4323e-06
1.43326e-06
1.43414e-06
1.43495e-06
1.4357e-06
1.43639e-06
1.43703e-06
1.43762e-06
1.43816e-06
1.43866e-06
1.43912e-06
1.43954e-06
1.43994e-06
1.4403e-06
)
;
    }
    inandouthalf31
    {
        type            cyclic;
        value           nonuniform List<scalar> 
110
(
-1.44064e-06
-1.47019e-06
-1.50034e-06
-1.53109e-06
-1.56244e-06
-1.59442e-06
-1.62703e-06
-1.6603e-06
-1.69423e-06
-1.72883e-06
-1.76413e-06
-1.80013e-06
-1.83685e-06
-1.8743e-06
-1.9125e-06
-1.95147e-06
-1.99122e-06
-2.03177e-06
-2.07313e-06
-2.11532e-06
-2.15836e-06
-2.20226e-06
-2.24705e-06
-2.29274e-06
-2.33935e-06
-2.3869e-06
-2.43541e-06
-2.4849e-06
-2.53539e-06
-2.5869e-06
-2.63944e-06
-2.69306e-06
-2.74775e-06
-2.80355e-06
-2.86048e-06
-2.91857e-06
-2.97783e-06
-3.03829e-06
-3.09997e-06
-3.16291e-06
-3.22712e-06
-3.29263e-06
-3.35947e-06
-3.42767e-06
-3.49725e-06
-3.56824e-06
-3.64067e-06
-3.71457e-06
-3.78997e-06
-3.8669e-06
-3.94539e-06
-4.02547e-06
-4.10718e-06
-4.19055e-06
-4.2756e-06
-4.36239e-06
-4.45093e-06
-4.54128e-06
-4.63345e-06
-4.7275e-06
-4.82346e-06
-4.92136e-06
-5.02125e-06
-5.12317e-06
-5.22715e-06
-5.33325e-06
-5.4415e-06
-5.55195e-06
-5.66464e-06
-5.77962e-06
-5.89693e-06
-6.01662e-06
-6.13874e-06
-6.26334e-06
-6.39047e-06
-6.52018e-06
-6.65252e-06
-6.78755e-06
-6.92532e-06
-7.06589e-06
-7.20931e-06
-7.35563e-06
-7.50493e-06
-7.65726e-06
-7.81269e-06
-7.97126e-06
-8.13306e-06
-8.29814e-06
-8.46657e-06
-8.63842e-06
-8.81375e-06
-8.99265e-06
-9.17518e-06
-9.36141e-06
-9.55142e-06
-9.74529e-06
-9.94309e-06
-1.01449e-05
-1.03508e-05
-1.05609e-05
-1.07753e-05
-1.0994e-05
-1.12171e-05
-1.14448e-05
-1.16771e-05
-1.19141e-05
-1.2156e-05
-1.24027e-05
-1.26544e-05
-1.29113e-05
)
;
    }
    inandouthalf32
    {
        type            cyclic;
        value           nonuniform List<scalar> 
110
(
1.44064e-06
1.47019e-06
1.50034e-06
1.53109e-06
1.56244e-06
1.59442e-06
1.62703e-06
1.6603e-06
1.69423e-06
1.72883e-06
1.76413e-06
1.80013e-06
1.83685e-06
1.8743e-06
1.9125e-06
1.95147e-06
1.99122e-06
2.03177e-06
2.07313e-06
2.11532e-06
2.15836e-06
2.20226e-06
2.24705e-06
2.29274e-06
2.33935e-06
2.3869e-06
2.43541e-06
2.4849e-06
2.53539e-06
2.5869e-06
2.63944e-06
2.69306e-06
2.74775e-06
2.80355e-06
2.86048e-06
2.91857e-06
2.97783e-06
3.03829e-06
3.09997e-06
3.16291e-06
3.22712e-06
3.29263e-06
3.35947e-06
3.42767e-06
3.49725e-06
3.56824e-06
3.64067e-06
3.71457e-06
3.78997e-06
3.8669e-06
3.94539e-06
4.02547e-06
4.10718e-06
4.19055e-06
4.2756e-06
4.36239e-06
4.45093e-06
4.54128e-06
4.63345e-06
4.7275e-06
4.82346e-06
4.92136e-06
5.02125e-06
5.12317e-06
5.22715e-06
5.33325e-06
5.4415e-06
5.55195e-06
5.66464e-06
5.77962e-06
5.89693e-06
6.01662e-06
6.13874e-06
6.26334e-06
6.39047e-06
6.52018e-06
6.65252e-06
6.78755e-06
6.92532e-06
7.06589e-06
7.20931e-06
7.35563e-06
7.50493e-06
7.65726e-06
7.81269e-06
7.97126e-06
8.13306e-06
8.29814e-06
8.46657e-06
8.63842e-06
8.81375e-06
8.99265e-06
9.17518e-06
9.36141e-06
9.55142e-06
9.74529e-06
9.94309e-06
1.01449e-05
1.03508e-05
1.05609e-05
1.07753e-05
1.0994e-05
1.12171e-05
1.14448e-05
1.16771e-05
1.19141e-05
1.2156e-05
1.24027e-05
1.26544e-05
1.29113e-05
)
;
    }
    inandouthalf41
    {
        type            cyclic;
        value           nonuniform List<scalar> 
50
(
-1.15569e-05
-1.15569e-05
-1.15569e-05
-1.15569e-05
-1.15569e-05
-1.15569e-05
-1.15569e-05
-1.15569e-05
-1.15569e-05
-1.15569e-05
-1.15569e-05
-1.15569e-05
-1.15569e-05
-1.15569e-05
-1.15569e-05
-1.15569e-05
-1.15569e-05
-1.15569e-05
-1.15569e-05
-1.15569e-05
-1.15569e-05
-1.15569e-05
-1.15569e-05
-1.15569e-05
-1.15569e-05
-1.15569e-05
-1.15569e-05
-1.15569e-05
-1.15569e-05
-1.15569e-05
-1.15569e-05
-1.15569e-05
-1.15569e-05
-1.15569e-05
-1.15569e-05
-1.15569e-05
-1.15569e-05
-1.15569e-05
-1.15569e-05
-1.15569e-05
-1.15569e-05
-1.15569e-05
-1.15569e-05
-1.15569e-05
-1.15569e-05
-1.15569e-05
-1.15569e-05
-1.15569e-05
-1.15569e-05
-1.15569e-05
)
;
    }
    inandouthalf42
    {
        type            cyclic;
        value           nonuniform List<scalar> 
50
(
1.15569e-05
1.15569e-05
1.15569e-05
1.15569e-05
1.15569e-05
1.15569e-05
1.15569e-05
1.15569e-05
1.15569e-05
1.15569e-05
1.15569e-05
1.15569e-05
1.15569e-05
1.15569e-05
1.15569e-05
1.15569e-05
1.15569e-05
1.15569e-05
1.15569e-05
1.15569e-05
1.15569e-05
1.15569e-05
1.15569e-05
1.15569e-05
1.15569e-05
1.15569e-05
1.15569e-05
1.15569e-05
1.15569e-05
1.15569e-05
1.15569e-05
1.15569e-05
1.15569e-05
1.15569e-05
1.15569e-05
1.15569e-05
1.15569e-05
1.15569e-05
1.15569e-05
1.15569e-05
1.15569e-05
1.15569e-05
1.15569e-05
1.15569e-05
1.15569e-05
1.15569e-05
1.15569e-05
1.15569e-05
1.15569e-05
1.15569e-05
)
;
    }
    top
    {
        type            symmetryPlane;
        value           uniform 0;
    }
    walls
    {
        type            fixedValue;
        value           uniform 0;
    }
    frontAndBackPlanes
    {
        type            empty;
        value           nonuniform 0();
    }
}


// ************************************************************************* //
