/*--------------------------------*- C++ -*----------------------------------*\
| =========                 |                                                 |
| \\      /  F ield         | OpenFOAM: The Open Source CFD Toolbox           |
|  \\    /   O peration     | Version:  2.4.x                                 |
|   \\  /    A nd           | Web:      www.OpenFOAM.org                      |
|    \\/     M anipulation  |                                                 |
\*---------------------------------------------------------------------------*/
FoamFile
{
    version     2.0;
    format      ascii;
    class       surfaceScalarField;
    location    "1.85";
    object      phib;
}
// * * * * * * * * * * * * * * * * * * * * * * * * * * * * * * * * * * * * * //

dimensions      [0 3 -1 0 0 0 0];

internalField   nonuniform List<scalar> 
359
(
3.90495e-19
7.82517e-19
1.17575e-18
1.57099e-18
1.96515e-18
2.36068e-18
2.75351e-18
3.1473e-18
3.54235e-18
3.93438e-18
4.32725e-18
4.72116e-18
5.11335e-18
5.50491e-18
5.89461e-18
6.28779e-18
6.67577e-18
7.06348e-18
7.44999e-18
7.83768e-18
8.22137e-18
8.60581e-18
8.98696e-18
9.36714e-18
9.74442e-18
1.01242e-17
1.04999e-17
1.08781e-17
1.12504e-17
1.16245e-17
1.19924e-17
1.23611e-17
1.27264e-17
1.30932e-17
1.34544e-17
1.38178e-17
1.41752e-17
1.45338e-17
1.48882e-17
1.52414e-17
1.55909e-17
1.59421e-17
1.62867e-17
1.66348e-17
1.69746e-17
1.73185e-17
1.76565e-17
1.79946e-17
1.83273e-17
1.86639e-17
1.89904e-17
1.93204e-17
1.96427e-17
1.99688e-17
2.02858e-17
2.06044e-17
2.09156e-17
2.12322e-17
2.15389e-17
2.18478e-17
2.21489e-17
2.24522e-17
2.27482e-17
2.30474e-17
2.33372e-17
2.36308e-17
2.3915e-17
2.42038e-17
2.44822e-17
2.47621e-17
2.84085e-17
3.28516e-13
2.49405e-12
8.20204e-12
1.63843e-11
2.41424e-11
3.00474e-11
3.43653e-11
3.77769e-11
4.08152e-11
4.38295e-11
4.70421e-11
5.05705e-11
5.44329e-11
5.85697e-11
6.28848e-11
6.72933e-11
7.17442e-11
7.62222e-11
8.0734e-11
8.52913e-11
8.99001e-11
9.45577e-11
9.92541e-11
1.03977e-10
1.08714e-10
1.13458e-10
1.18207e-10
1.22957e-10
1.27709e-10
1.32462e-10
1.37214e-10
1.41965e-10
1.46713e-10
1.51458e-10
1.56201e-10
1.60944e-10
1.65691e-10
1.70447e-10
1.75219e-10
1.80016e-10
1.84847e-10
1.89724e-10
1.94661e-10
1.99672e-10
2.04773e-10
2.09981e-10
2.1531e-10
2.20778e-10
2.26398e-10
2.32187e-10
2.38156e-10
2.44316e-10
2.50674e-10
2.57228e-10
2.6396e-10
2.70831e-10
2.77778e-10
2.84724e-10
2.91607e-10
2.98421e-10
3.05258e-10
3.12326e-10
3.19926e-10
3.28333e-10
3.37557e-10
3.47126e-10
3.56174e-10
3.63804e-10
3.69395e-10
3.72792e-10
3.74265e-10
3.7458e-10
3.74235e-10
3.73445e-10
3.72282e-10
3.70693e-10
3.68236e-10
3.531e-10
2.86868e-09
1.26155e-09
4.48645e-11
-5.11444e-10
-7.08963e-10
-6.23593e-10
-4.06748e-10
-2.0571e-10
-8.28624e-11
-2.72539e-11
-8.98088e-12
-3.84422e-12
-2.01301e-12
-1.1142e-12
-5.94813e-13
-2.82094e-13
-7.93792e-14
4.9287e-14
1.31247e-13
1.83429e-13
2.15164e-13
2.32843e-13
2.40442e-13
2.4083e-13
2.38618e-13
2.32426e-13
2.23267e-13
2.12561e-13
2.04365e-13
1.91502e-13
1.81641e-13
1.70483e-13
1.60102e-13
1.50019e-13
1.39946e-13
1.31145e-13
1.22342e-13
1.13703e-13
1.05408e-13
9.94673e-14
9.14442e-14
8.50433e-14
7.90486e-14
7.36401e-14
6.87719e-14
6.37875e-14
5.86798e-14
5.38155e-14
5.04747e-14
4.75249e-14
4.42954e-14
4.05376e-14
3.68972e-14
3.36245e-14
3.19189e-14
3.0059e-14
2.74054e-14
2.43377e-14
2.20007e-14
2.08538e-14
1.93843e-14
1.71666e-14
1.53465e-14
1.44215e-14
1.32289e-14
1.1489e-14
1.02101e-14
9.59764e-15
8.80143e-15
7.60021e-15
6.63179e-15
6.10875e-15
5.47183e-15
4.73729e-15
4.27826e-15
3.82127e-15
3.24303e-15
2.86885e-15
2.60129e-15
2.2192e-15
1.90134e-15
1.70464e-15
1.46441e-15
1.25663e-15
1.07951e-15
9.20619e-16
7.94093e-16
6.72938e-16
5.71829e-16
4.88076e-16
4.582e-16
4.48095e-16
4.46133e-16
4.50989e-16
7.21236e-16
3.16631e-16
4.51036e-17
3.60773e-17
3.12642e-17
2.72812e-17
2.39143e-17
2.00765e-17
1.74777e-17
1.55203e-17
1.39213e-17
1.25345e-17
1.0979e-17
9.8676e-18
9.15796e-18
8.33778e-18
7.55353e-18
7.001e-18
6.54186e-18
6.06308e-18
5.68229e-18
5.42424e-18
5.21017e-18
5.05545e-18
4.922e-18
4.81648e-18
4.71753e-18
4.62801e-18
4.54951e-18
4.49077e-18
4.43045e-18
4.36082e-18
4.26807e-18
4.17566e-18
4.05395e-18
3.924e-18
3.78389e-18
3.68606e-18
3.57784e-18
3.46657e-18
3.31542e-18
3.17642e-18
2.99186e-18
2.7859e-18
2.55356e-18
2.35534e-18
2.12953e-18
1.89777e-18
1.62991e-18
1.37571e-18
1.10239e-18
8.42395e-19
6.42039e-19
4.60396e-19
3.83184e-19
3.2528e-19
4.02378e-19
3.58586e-19
3.13703e-19
2.69578e-19
2.22198e-19
1.84608e-19
1.47691e-19
1.10852e-19
7.00002e-20
3.09167e-20
-1.13928e-20
-4.97739e-20
-9.02446e-20
-1.28538e-19
-1.70788e-19
-2.13416e-19
-2.60214e-19
-3.06227e-19
-3.56881e-19
-4.10191e-19
-4.76366e-19
-5.47787e-19
-6.31748e-19
-7.21433e-19
-8.30479e-19
-9.5439e-19
-1.11392e-18
-1.33958e-18
-1.91974e-18
-2.6425e-18
-3.72043e-18
-4.86668e-18
-6.04174e-18
-7.25172e-18
-8.44878e-18
-9.65797e-18
-1.08238e-17
-1.21776e-17
-1.34171e-17
-1.46606e-17
-1.56971e-17
-1.69916e-17
-1.79083e-17
-1.89112e-17
-1.97147e-17
-2.18858e-17
-2.34975e-17
-2.51404e-17
-2.55652e-17
-2.70174e-17
-2.67427e-17
-2.6482e-17
-2.47897e-17
-2.57522e-17
-2.4518e-17
-2.31265e-17
-1.87471e-17
-1.55483e-17
-9.95709e-18
-4.89281e-18
)
;

boundaryField
{
    inandouthalf11
    {
        type            cyclic;
        value           nonuniform List<scalar> 
100
(
9.08173e-11
9.09721e-11
9.0973e-11
9.0973e-11
9.0973e-11
9.09738e-11
9.09738e-11
9.09746e-11
9.09746e-11
9.09753e-11
9.09761e-11
9.09761e-11
9.09768e-11
9.09776e-11
9.09784e-11
9.09791e-11
9.09799e-11
9.09807e-11
9.09814e-11
9.0983e-11
9.09837e-11
9.09852e-11
9.09868e-11
9.09883e-11
9.09898e-11
9.09914e-11
9.09929e-11
9.09952e-11
9.09975e-11
9.09998e-11
9.10021e-11
9.10051e-11
9.10074e-11
9.10112e-11
9.10143e-11
9.10181e-11
9.10219e-11
9.10265e-11
9.10319e-11
9.10365e-11
9.10426e-11
9.10487e-11
9.10548e-11
9.10624e-11
9.10701e-11
9.10785e-11
9.10877e-11
9.10969e-11
9.11076e-11
9.11198e-11
9.11321e-11
9.11458e-11
9.11604e-11
9.11764e-11
9.11933e-11
9.12124e-11
9.12323e-11
9.12546e-11
9.12783e-11
9.13036e-11
9.1332e-11
9.13619e-11
9.13948e-11
9.14301e-11
9.14685e-11
9.151e-11
9.15553e-11
9.16045e-11
9.16575e-11
9.17145e-11
9.17768e-11
9.1843e-11
9.1894e-11
9.18811e-11
9.17783e-11
9.16422e-11
9.15356e-11
9.14737e-11
9.14443e-11
9.14323e-11
9.1426e-11
9.14176e-11
9.14013e-11
9.13742e-11
9.13364e-11
9.12902e-11
9.12388e-11
9.11842e-11
9.11278e-11
9.10694e-11
9.10086e-11
9.09445e-11
9.08768e-11
9.08055e-11
9.07308e-11
9.06531e-11
9.05726e-11
9.04896e-11
9.04041e-11
9.03161e-11
)
;
    }
    inandouthalf12
    {
        type            cyclic;
        value           nonuniform List<scalar> 
100
(
-9.08173e-11
-9.09721e-11
-9.0973e-11
-9.0973e-11
-9.0973e-11
-9.09738e-11
-9.09738e-11
-9.09746e-11
-9.09746e-11
-9.09753e-11
-9.09761e-11
-9.09761e-11
-9.09768e-11
-9.09776e-11
-9.09784e-11
-9.09791e-11
-9.09799e-11
-9.09807e-11
-9.09814e-11
-9.0983e-11
-9.09837e-11
-9.09852e-11
-9.09868e-11
-9.09883e-11
-9.09898e-11
-9.09914e-11
-9.09929e-11
-9.09952e-11
-9.09975e-11
-9.09998e-11
-9.10021e-11
-9.10051e-11
-9.10074e-11
-9.10112e-11
-9.10143e-11
-9.10181e-11
-9.10219e-11
-9.10265e-11
-9.10319e-11
-9.10365e-11
-9.10426e-11
-9.10487e-11
-9.10548e-11
-9.10624e-11
-9.10701e-11
-9.10785e-11
-9.10877e-11
-9.10969e-11
-9.11076e-11
-9.11198e-11
-9.11321e-11
-9.11458e-11
-9.11604e-11
-9.11764e-11
-9.11933e-11
-9.12124e-11
-9.12323e-11
-9.12546e-11
-9.12783e-11
-9.13036e-11
-9.1332e-11
-9.13619e-11
-9.13948e-11
-9.14301e-11
-9.14685e-11
-9.151e-11
-9.15553e-11
-9.16045e-11
-9.16575e-11
-9.17145e-11
-9.17768e-11
-9.1843e-11
-9.1894e-11
-9.18811e-11
-9.17783e-11
-9.16422e-11
-9.15356e-11
-9.14737e-11
-9.14443e-11
-9.14323e-11
-9.1426e-11
-9.14176e-11
-9.14013e-11
-9.13742e-11
-9.13364e-11
-9.12902e-11
-9.12388e-11
-9.11842e-11
-9.11278e-11
-9.10694e-11
-9.10086e-11
-9.09445e-11
-9.08768e-11
-9.08055e-11
-9.07308e-11
-9.06531e-11
-9.05726e-11
-9.04896e-11
-9.04041e-11
-9.03161e-11
)
;
    }
    inandouthalf21
    {
        type            cyclic;
        value           nonuniform List<scalar> 
100
(
9.02254e-11
9.01321e-11
9.00362e-11
8.99377e-11
8.98365e-11
8.97326e-11
8.96257e-11
8.95158e-11
8.94026e-11
8.92856e-11
8.91643e-11
8.90382e-11
8.89065e-11
8.87684e-11
8.86226e-11
8.84681e-11
8.83034e-11
8.81268e-11
8.79368e-11
8.77312e-11
8.75081e-11
8.7265e-11
8.69996e-11
8.67092e-11
8.63914e-11
8.60441e-11
8.56661e-11
8.52577e-11
8.48206e-11
8.43569e-11
8.38667e-11
8.33435e-11
8.27699e-11
8.21137e-11
8.13287e-11
8.03679e-11
7.92216e-11
7.79551e-11
7.67037e-11
7.563e-11
7.48599e-11
7.44075e-11
7.42839e-11
7.44289e-11
7.47674e-11
7.52872e-11
7.59883e-11
7.68988e-11
4.08966e-11
-3.42499e-08
-1.98078e-07
-4.36578e-07
-6.3787e-07
-8.02583e-07
-9.35861e-07
-1.04207e-06
-1.12551e-06
-1.1894e-06
-1.23625e-06
-1.27011e-06
-1.29572e-06
-1.31629e-06
-1.33311e-06
-1.34702e-06
-1.35842e-06
-1.36792e-06
-1.37585e-06
-1.38256e-06
-1.38836e-06
-1.39339e-06
-1.39786e-06
-1.40183e-06
-1.40541e-06
-1.40863e-06
-1.41156e-06
-1.41422e-06
-1.41666e-06
-1.41887e-06
-1.42091e-06
-1.42278e-06
-1.42448e-06
-1.42606e-06
-1.4275e-06
-1.42883e-06
-1.43005e-06
-1.43118e-06
-1.43222e-06
-1.43318e-06
-1.43406e-06
-1.43487e-06
-1.43562e-06
-1.43631e-06
-1.43694e-06
-1.43753e-06
-1.43807e-06
-1.43857e-06
-1.43903e-06
-1.43946e-06
-1.43985e-06
-1.44021e-06
)
;
    }
    inandouthalf22
    {
        type            cyclic;
        value           nonuniform List<scalar> 
100
(
-9.02254e-11
-9.01321e-11
-9.00362e-11
-8.99377e-11
-8.98365e-11
-8.97326e-11
-8.96257e-11
-8.95158e-11
-8.94026e-11
-8.92856e-11
-8.91643e-11
-8.90382e-11
-8.89065e-11
-8.87684e-11
-8.86226e-11
-8.84681e-11
-8.83034e-11
-8.81268e-11
-8.79368e-11
-8.77312e-11
-8.75081e-11
-8.7265e-11
-8.69996e-11
-8.67092e-11
-8.63914e-11
-8.60441e-11
-8.56661e-11
-8.52577e-11
-8.48206e-11
-8.43569e-11
-8.38667e-11
-8.33435e-11
-8.27699e-11
-8.21137e-11
-8.13287e-11
-8.03679e-11
-7.92216e-11
-7.79551e-11
-7.67037e-11
-7.563e-11
-7.48599e-11
-7.44075e-11
-7.42839e-11
-7.44289e-11
-7.47674e-11
-7.52872e-11
-7.59883e-11
-7.68988e-11
-4.08966e-11
3.42499e-08
1.98078e-07
4.36578e-07
6.3787e-07
8.02583e-07
9.35861e-07
1.04207e-06
1.12551e-06
1.1894e-06
1.23625e-06
1.27011e-06
1.29572e-06
1.31629e-06
1.33311e-06
1.34702e-06
1.35842e-06
1.36792e-06
1.37585e-06
1.38256e-06
1.38836e-06
1.39339e-06
1.39786e-06
1.40183e-06
1.40541e-06
1.40863e-06
1.41156e-06
1.41422e-06
1.41666e-06
1.41887e-06
1.42091e-06
1.42278e-06
1.42448e-06
1.42606e-06
1.4275e-06
1.42883e-06
1.43005e-06
1.43118e-06
1.43222e-06
1.43318e-06
1.43406e-06
1.43487e-06
1.43562e-06
1.43631e-06
1.43694e-06
1.43753e-06
1.43807e-06
1.43857e-06
1.43903e-06
1.43946e-06
1.43985e-06
1.44021e-06
)
;
    }
    inandouthalf31
    {
        type            cyclic;
        value           nonuniform List<scalar> 
110
(
-1.44055e-06
-1.47011e-06
-1.50025e-06
-1.531e-06
-1.56235e-06
-1.59433e-06
-1.62694e-06
-1.6602e-06
-1.69413e-06
-1.72873e-06
-1.76402e-06
-1.80002e-06
-1.83674e-06
-1.87419e-06
-1.91239e-06
-1.95136e-06
-1.99111e-06
-2.03165e-06
-2.07301e-06
-2.1152e-06
-2.15823e-06
-2.20213e-06
-2.24692e-06
-2.29261e-06
-2.33921e-06
-2.38676e-06
-2.43527e-06
-2.48475e-06
-2.53524e-06
-2.58674e-06
-2.63929e-06
-2.6929e-06
-2.74759e-06
-2.80339e-06
-2.86031e-06
-2.9184e-06
-2.97765e-06
-3.03811e-06
-3.09979e-06
-3.16272e-06
-3.22693e-06
-3.29244e-06
-3.35927e-06
-3.42747e-06
-3.49704e-06
-3.56803e-06
-3.64045e-06
-3.71435e-06
-3.78975e-06
-3.86667e-06
-3.94516e-06
-4.02523e-06
-4.10694e-06
-4.1903e-06
-4.27535e-06
-4.36213e-06
-4.45067e-06
-4.54101e-06
-4.63318e-06
-4.72722e-06
-4.82317e-06
-4.92107e-06
-5.02095e-06
-5.12287e-06
-5.22685e-06
-5.33294e-06
-5.44118e-06
-5.55162e-06
-5.66431e-06
-5.77928e-06
-5.89658e-06
-6.01627e-06
-6.13838e-06
-6.26297e-06
-6.3901e-06
-6.5198e-06
-6.65213e-06
-6.78715e-06
-6.92491e-06
-7.06547e-06
-7.20888e-06
-7.3552e-06
-7.50449e-06
-7.65681e-06
-7.81223e-06
-7.9708e-06
-8.13258e-06
-8.29765e-06
-8.46607e-06
-8.63791e-06
-8.81324e-06
-8.99212e-06
-9.17464e-06
-9.36086e-06
-9.55086e-06
-9.74472e-06
-9.94251e-06
-1.01443e-05
-1.03502e-05
-1.05603e-05
-1.07746e-05
-1.09933e-05
-1.12165e-05
-1.14441e-05
-1.16764e-05
-1.19134e-05
-1.21552e-05
-1.2402e-05
-1.26537e-05
-1.29105e-05
)
;
    }
    inandouthalf32
    {
        type            cyclic;
        value           nonuniform List<scalar> 
110
(
1.44055e-06
1.47011e-06
1.50025e-06
1.531e-06
1.56235e-06
1.59433e-06
1.62694e-06
1.6602e-06
1.69413e-06
1.72873e-06
1.76402e-06
1.80002e-06
1.83674e-06
1.87419e-06
1.91239e-06
1.95136e-06
1.99111e-06
2.03165e-06
2.07301e-06
2.1152e-06
2.15823e-06
2.20213e-06
2.24692e-06
2.29261e-06
2.33921e-06
2.38676e-06
2.43527e-06
2.48475e-06
2.53524e-06
2.58674e-06
2.63929e-06
2.6929e-06
2.74759e-06
2.80339e-06
2.86031e-06
2.9184e-06
2.97765e-06
3.03811e-06
3.09979e-06
3.16272e-06
3.22693e-06
3.29244e-06
3.35927e-06
3.42747e-06
3.49704e-06
3.56803e-06
3.64045e-06
3.71435e-06
3.78975e-06
3.86667e-06
3.94516e-06
4.02523e-06
4.10694e-06
4.1903e-06
4.27535e-06
4.36213e-06
4.45067e-06
4.54101e-06
4.63318e-06
4.72722e-06
4.82317e-06
4.92107e-06
5.02095e-06
5.12287e-06
5.22685e-06
5.33294e-06
5.44118e-06
5.55162e-06
5.66431e-06
5.77928e-06
5.89658e-06
6.01627e-06
6.13838e-06
6.26297e-06
6.3901e-06
6.5198e-06
6.65213e-06
6.78715e-06
6.92491e-06
7.06547e-06
7.20888e-06
7.3552e-06
7.50449e-06
7.65681e-06
7.81223e-06
7.9708e-06
8.13258e-06
8.29765e-06
8.46607e-06
8.63791e-06
8.81324e-06
8.99212e-06
9.17464e-06
9.36086e-06
9.55086e-06
9.74472e-06
9.94251e-06
1.01443e-05
1.03502e-05
1.05603e-05
1.07746e-05
1.09933e-05
1.12165e-05
1.14441e-05
1.16764e-05
1.19134e-05
1.21552e-05
1.2402e-05
1.26537e-05
1.29105e-05
)
;
    }
    inandouthalf41
    {
        type            cyclic;
        value           nonuniform List<scalar> 
50
(
-1.15562e-05
-1.15562e-05
-1.15562e-05
-1.15562e-05
-1.15562e-05
-1.15562e-05
-1.15562e-05
-1.15562e-05
-1.15562e-05
-1.15562e-05
-1.15562e-05
-1.15562e-05
-1.15562e-05
-1.15562e-05
-1.15562e-05
-1.15562e-05
-1.15562e-05
-1.15562e-05
-1.15562e-05
-1.15562e-05
-1.15562e-05
-1.15562e-05
-1.15562e-05
-1.15562e-05
-1.15562e-05
-1.15562e-05
-1.15562e-05
-1.15562e-05
-1.15562e-05
-1.15562e-05
-1.15562e-05
-1.15562e-05
-1.15562e-05
-1.15562e-05
-1.15562e-05
-1.15562e-05
-1.15562e-05
-1.15562e-05
-1.15562e-05
-1.15562e-05
-1.15562e-05
-1.15562e-05
-1.15562e-05
-1.15562e-05
-1.15562e-05
-1.15562e-05
-1.15562e-05
-1.15562e-05
-1.15562e-05
-1.15562e-05
)
;
    }
    inandouthalf42
    {
        type            cyclic;
        value           nonuniform List<scalar> 
50
(
1.15562e-05
1.15562e-05
1.15562e-05
1.15562e-05
1.15562e-05
1.15562e-05
1.15562e-05
1.15562e-05
1.15562e-05
1.15562e-05
1.15562e-05
1.15562e-05
1.15562e-05
1.15562e-05
1.15562e-05
1.15562e-05
1.15562e-05
1.15562e-05
1.15562e-05
1.15562e-05
1.15562e-05
1.15562e-05
1.15562e-05
1.15562e-05
1.15562e-05
1.15562e-05
1.15562e-05
1.15562e-05
1.15562e-05
1.15562e-05
1.15562e-05
1.15562e-05
1.15562e-05
1.15562e-05
1.15562e-05
1.15562e-05
1.15562e-05
1.15562e-05
1.15562e-05
1.15562e-05
1.15562e-05
1.15562e-05
1.15562e-05
1.15562e-05
1.15562e-05
1.15562e-05
1.15562e-05
1.15562e-05
1.15562e-05
1.15562e-05
)
;
    }
    top
    {
        type            symmetryPlane;
        value           uniform 0;
    }
    walls
    {
        type            fixedValue;
        value           uniform 0;
    }
    frontAndBackPlanes
    {
        type            empty;
        value           nonuniform 0();
    }
}


// ************************************************************************* //
