/*--------------------------------*- C++ -*----------------------------------*\
| =========                 |                                                 |
| \\      /  F ield         | OpenFOAM: The Open Source CFD Toolbox           |
|  \\    /   O peration     | Version:  2.4.x                                 |
|   \\  /    A nd           | Web:      www.OpenFOAM.org                      |
|    \\/     M anipulation  |                                                 |
\*---------------------------------------------------------------------------*/
FoamFile
{
    version     2.0;
    format      ascii;
    class       volVectorField;
    location    "1.85";
    object      Ub;
}
// * * * * * * * * * * * * * * * * * * * * * * * * * * * * * * * * * * * * * //

dimensions      [0 1 -1 0 0 0 0];

internalField   nonuniform List<vector> 
360
(
(-9.08173e-05 4.88225e-14 0)
(-9.09721e-05 1.46628e-13 0)
(-9.0973e-05 2.44783e-13 0)
(-9.0973e-05 3.43342e-13 0)
(-9.0973e-05 4.42016e-13 0)
(-9.09738e-05 5.40729e-13 0)
(-9.09738e-05 6.39272e-13 0)
(-9.09746e-05 7.37603e-13 0)
(-9.09746e-05 8.36204e-13 0)
(-9.09753e-05 9.34591e-13 0)
(-9.09761e-05 1.03271e-12 0)
(-9.09761e-05 1.13105e-12 0)
(-9.09768e-05 1.22931e-12 0)
(-9.09776e-05 1.32728e-12 0)
(-9.09784e-05 1.42494e-12 0)
(-9.09791e-05 1.5228e-12 0)
(-9.09799e-05 1.62045e-12 0)
(-9.09807e-05 1.71741e-12 0)
(-9.09814e-05 1.81418e-12 0)
(-9.0983e-05 1.91096e-12 0)
(-9.09837e-05 2.00738e-12 0)
(-9.09852e-05 2.1034e-12 0)
(-9.09868e-05 2.1991e-12 0)
(-9.09883e-05 2.29426e-12 0)
(-9.09898e-05 2.38894e-12 0)
(-9.09914e-05 2.48357e-12 0)
(-9.09929e-05 2.57801e-12 0)
(-9.09952e-05 2.67225e-12 0)
(-9.09975e-05 2.76606e-12 0)
(-9.09998e-05 2.85936e-12 0)
(-9.10021e-05 2.95211e-12 0)
(-9.10051e-05 3.0442e-12 0)
(-9.10074e-05 3.13593e-12 0)
(-9.10112e-05 3.22746e-12 0)
(-9.10143e-05 3.31845e-12 0)
(-9.10181e-05 3.40902e-12 0)
(-9.10219e-05 3.49911e-12 0)
(-9.10265e-05 3.58861e-12 0)
(-9.10319e-05 3.67775e-12 0)
(-9.10365e-05 3.76617e-12 0)
(-9.10426e-05 3.85404e-12 0)
(-9.10487e-05 3.94163e-12 0)
(-9.10548e-05 4.02858e-12 0)
(-9.10624e-05 4.11518e-12 0)
(-9.10701e-05 4.20117e-12 0)
(-9.10785e-05 4.28662e-12 0)
(-9.10877e-05 4.37187e-12 0)
(-9.10969e-05 4.45637e-12 0)
(-9.11076e-05 4.54022e-12 0)
(-9.11198e-05 4.6239e-12 0)
(-9.11321e-05 4.70677e-12 0)
(-9.11458e-05 4.78884e-12 0)
(-9.11604e-05 4.87036e-12 0)
(-9.11764e-05 4.95143e-12 0)
(-9.11933e-05 5.03179e-12 0)
(-9.12124e-05 5.11126e-12 0)
(-9.12323e-05 5.18996e-12 0)
(-9.12546e-05 5.26844e-12 0)
(-9.12783e-05 5.34635e-12 0)
(-9.13036e-05 5.42328e-12 0)
(-9.1332e-05 5.49955e-12 0)
(-9.13619e-05 5.57507e-12 0)
(-9.13948e-05 5.65e-12 0)
(-9.14301e-05 5.72439e-12 0)
(-9.14685e-05 5.798e-12 0)
(-9.151e-05 5.87135e-12 0)
(-9.15553e-05 5.94448e-12 0)
(-9.16045e-05 6.68028e-12 0)
(-9.16575e-05 -2.57146e-11 0)
(-9.17145e-05 2.45325e-10 0)
(-9.17768e-05 -9.34011e-10 0)
(-9.1843e-05 3.84111e-09 0)
(-9.1894e-05 2.8133e-07 0)
(-9.18811e-05 1.29479e-06 0)
(-9.17783e-05 3.06675e-06 0)
(-9.16422e-05 5.06767e-06 0)
(-9.15356e-05 6.77621e-06 0)
(-9.14737e-05 8.05259e-06 0)
(-9.14443e-05 9.01782e-06 0)
(-9.14323e-05 9.82382e-06 0)
(-9.1426e-05 1.05804e-05 0)
(-9.14176e-05 1.13588e-05 0)
(-9.14013e-05 1.22014e-05 0)
(-9.13742e-05 1.31252e-05 0)
(-9.13364e-05 1.41251e-05 0)
(-9.12902e-05 1.51816e-05 0)
(-9.12388e-05 1.6272e-05 0)
(-9.11842e-05 1.73794e-05 0)
(-9.11278e-05 1.84955e-05 0)
(-9.10694e-05 1.96192e-05 0)
(-9.10086e-05 2.07529e-05 0)
(-9.09445e-05 2.18986e-05 0)
(-9.08768e-05 2.30569e-05 0)
(-9.08055e-05 2.42262e-05 0)
(-9.07308e-05 2.54035e-05 0)
(-9.06531e-05 2.65859e-05 0)
(-9.05726e-05 2.77712e-05 0)
(-9.04896e-05 2.89578e-05 0)
(-9.04041e-05 3.01451e-05 0)
(-9.03161e-05 3.13329e-05 0)
(-9.02254e-05 3.2521e-05 0)
(-9.01321e-05 3.37091e-05 0)
(-9.00362e-05 3.4897e-05 0)
(-8.99377e-05 3.60843e-05 0)
(-8.98365e-05 3.72708e-05 0)
(-8.97326e-05 3.84568e-05 0)
(-8.96257e-05 3.96425e-05 0)
(-8.95158e-05 4.08288e-05 0)
(-8.94026e-05 4.20167e-05 0)
(-8.92856e-05 4.32077e-05 0)
(-8.91643e-05 4.44038e-05 0)
(-8.90382e-05 4.56072e-05 0)
(-8.89065e-05 4.68206e-05 0)
(-8.87684e-05 4.80474e-05 0)
(-8.86226e-05 4.92909e-05 0)
(-8.84681e-05 5.05549e-05 0)
(-8.83034e-05 5.18434e-05 0)
(-8.81268e-05 5.31605e-05 0)
(-8.79368e-05 5.451e-05 0)
(-8.77312e-05 5.5896e-05 0)
(-8.75081e-05 5.73221e-05 0)
(-8.7265e-05 5.87916e-05 0)
(-8.69996e-05 6.03077e-05 0)
(-8.67092e-05 6.18725e-05 0)
(-8.63914e-05 6.34864e-05 0)
(-8.60441e-05 6.51471e-05 0)
(-8.56661e-05 6.68474e-05 0)
(-8.52577e-05 6.85746e-05 0)
(-8.48206e-05 7.03112e-05 0)
(-8.43569e-05 7.20398e-05 0)
(-8.38667e-05 7.37517e-05 0)
(-8.33435e-05 7.54575e-05 0)
(-8.27699e-05 7.71946e-05 0)
(-8.21137e-05 7.90274e-05 0)
(-8.13287e-05 8.10287e-05 0)
(-8.03679e-05 8.32339e-05 0)
(-7.92216e-05 8.55832e-05 0)
(-7.79551e-05 8.79084e-05 0)
(-7.67037e-05 8.9992e-05 0)
(-7.563e-05 9.16495e-05 0)
(-7.48599e-05 9.27822e-05 0)
(-7.44075e-05 9.33678e-05 0)
(-7.42839e-05 9.35792e-05 0)
(-7.44289e-05 9.35778e-05 0)
(-7.47674e-05 9.34305e-05 0)
(-7.52872e-05 9.31813e-05 0)
(-7.59883e-05 9.28146e-05 0)
(-7.68988e-05 9.41077e-05 0)
(-4.08966e-05 6.20289e-05 0)
(0.0342499 0.00017162 0)
(0.198078 0.00104391 0)
(0.436578 -0.000240372 0)
(0.63787 0.000236403 0)
(0.802583 -0.000420669 0)
(0.935861 -5.53372e-06 0)
(1.04207 -0.000247558 0)
(1.12551 2.683e-06 0)
(1.1894 -7.92226e-05 0)
(1.23625 2.25681e-05 0)
(1.27011 -2.81913e-05 0)
(1.29572 1.94587e-05 0)
(1.31629 -1.79918e-05 0)
(1.33311 1.41302e-05 0)
(1.34702 -1.22928e-05 0)
(1.35842 9.99529e-06 0)
(1.36792 -8.47202e-06 0)
(1.37585 7.0525e-06 0)
(1.38256 -5.88807e-06 0)
(1.38836 5.01564e-06 0)
(1.39339 -4.15474e-06 0)
(1.39786 3.63386e-06 0)
(1.40183 -3.00569e-06 0)
(1.40541 2.71043e-06 0)
(1.40863 -2.25349e-06 0)
(1.41156 2.10061e-06 0)
(1.41422 -1.76427e-06 0)
(1.41666 1.6976e-06 0)
(1.41887 -1.44633e-06 0)
(1.42091 1.42982e-06 0)
(1.42278 -1.23627e-06 0)
(1.42448 1.2409e-06 0)
(1.42606 -1.07992e-06 0)
(1.4275 1.09361e-06 0)
(1.42883 -9.60535e-07 0)
(1.43005 9.79727e-07 0)
(1.43118 -8.69429e-07 0)
(1.43222 8.90977e-07 0)
(1.43318 -7.98696e-07 0)
(1.43406 8.19341e-07 0)
(1.43487 -7.3994e-07 0)
(1.43562 7.58213e-07 0)
(1.43631 -6.89874e-07 0)
(1.43694 7.04918e-07 0)
(1.43753 -6.44721e-07 0)
(1.43807 6.56665e-07 0)
(1.43857 -6.03244e-07 0)
(1.43903 6.1199e-07 0)
(1.43946 -5.65398e-07 0)
(1.43985 5.71612e-07 0)
(1.44021 -5.29439e-07 0)
(1.44055 5.33872e-07 0)
(1.44086 -5.07159e-07 0)
(1.44115 5.19787e-07 0)
(1.44143 -4.97711e-07 0)
(1.44168 5.08562e-07 0)
(1.44192 -4.88601e-07 0)
(1.44215 4.97382e-07 0)
(1.44236 -4.79832e-07 0)
(1.44255 4.85006e-07 0)
(1.44273 -4.6836e-07 0)
(1.4429 4.71458e-07 0)
(1.44305 -4.55949e-07 0)
(1.4432 4.56366e-07 0)
(1.44333 -4.41599e-07 0)
(1.44345 4.40361e-07 0)
(1.44356 -4.265e-07 0)
(1.44366 4.23223e-07 0)
(1.44375 -4.09805e-07 0)
(1.44384 4.05358e-07 0)
(1.44391 -3.92511e-07 0)
(1.44398 3.86589e-07 0)
(1.44404 -3.74135e-07 0)
(1.4441 3.67325e-07 0)
(1.44415 -3.55295e-07 0)
(1.4442 3.47675e-07 0)
(1.44424 -3.35939e-07 0)
(1.44428 3.27689e-07 0)
(1.44431 -3.16368e-07 0)
(1.44434 3.07789e-07 0)
(1.44436 -2.96839e-07 0)
(1.44438 2.8801e-07 0)
(1.4444 -2.77469e-07 0)
(1.44442 2.68625e-07 0)
(1.44444 -2.58562e-07 0)
(1.44445 2.49829e-07 0)
(1.44446 -2.40283e-07 0)
(1.44447 2.31802e-07 0)
(1.44448 -2.22816e-07 0)
(1.44449 2.14699e-07 0)
(1.4445 -2.06316e-07 0)
(1.4445 1.98686e-07 0)
(1.44451 -1.90894e-07 0)
(1.44451 1.83854e-07 0)
(1.44451 -1.7668e-07 0)
(1.44452 1.70415e-07 0)
(1.44452 -1.63961e-07 0)
(1.44452 1.58021e-07 0)
(1.44452 -1.52377e-07 0)
(1.44452 1.47103e-07 0)
(1.44452 -1.42136e-07 0)
(1.44453 1.37527e-07 0)
(1.44453 -1.33224e-07 0)
(1.44453 1.29262e-07 0)
(1.44453 -1.25597e-07 0)
(1.44453 1.22253e-07 0)
(1.44453 -1.1919e-07 0)
(1.44453 1.16423e-07 0)
(1.44453 -1.13917e-07 0)
(1.44453 1.1168e-07 0)
(1.44453 -1.09678e-07 0)
(1.44453 1.07915e-07 0)
(1.44453 -1.06361e-07 0)
(1.44453 1.05014e-07 0)
(1.44453 -1.03846e-07 0)
(1.44453 1.02854e-07 0)
(1.44453 -1.02011e-07 0)
(1.44453 1.01312e-07 0)
(1.44453 -1.00732e-07 0)
(1.44453 1.00265e-07 0)
(1.44453 -9.98887e-08 0)
(1.44453 9.95972e-08 0)
(1.44453 -9.93678e-08 0)
(1.44453 9.91969e-08 0)
(1.44453 -9.90629e-08 0)
(1.44453 9.89631e-08 0)
(1.44453 -9.88779e-08 0)
(1.44453 9.88056e-08 0)
(1.44453 -9.87283e-08 0)
(1.44453 9.86458e-08 0)
(1.44453 -9.85422e-08 0)
(1.44453 9.84183e-08 0)
(1.44453 -9.82604e-08 0)
(1.44453 9.80704e-08 0)
(1.44453 -9.78368e-08 0)
(1.44453 9.75627e-08 0)
(1.44453 -9.72384e-08 0)
(1.44453 9.68681e-08 0)
(1.44453 -9.64443e-08 0)
(1.44453 9.59717e-08 0)
(1.44453 -9.54451e-08 0)
(1.44453 9.48695e-08 0)
(1.44453 -9.42417e-08 0)
(1.44453 9.35671e-08 0)
(1.44453 -9.28445e-08 0)
(1.44453 9.20792e-08 0)
(1.44453 -9.12719e-08 0)
(1.44453 9.04277e-08 0)
(1.44453 -8.95489e-08 0)
(1.44453 8.86405e-08 0)
(1.44453 -8.77059e-08 0)
(1.44453 8.67502e-08 0)
(1.44453 -8.57774e-08 0)
(1.44453 8.47929e-08 0)
(1.44453 -8.38008e-08 0)
(1.44453 8.28066e-08 0)
(1.44453 -8.18149e-08 0)
(1.44453 8.08309e-08 0)
(1.44453 -7.98593e-08 0)
(1.44453 7.89051e-08 0)
(1.44453 -7.7973e-08 0)
(1.44453 6.74605e-08 0)
(1.44453 -6.50431e-08 0)
(1.44453 6.26741e-08 0)
(1.44453 -6.03564e-08 0)
(1.44453 5.80919e-08 0)
(1.44453 -5.58834e-08 0)
(1.44453 5.3732e-08 0)
(1.44453 -5.16399e-08 0)
(1.44453 4.96078e-08 0)
(1.44453 -4.76374e-08 0)
(1.44453 4.57286e-08 0)
(1.44453 -4.38829e-08 0)
(1.44453 4.20996e-08 0)
(1.44453 -4.038e-08 0)
(1.44453 3.87227e-08 0)
(1.44453 -3.7129e-08 0)
(1.44453 3.55965e-08 0)
(1.44453 -3.41271e-08 0)
(1.44453 3.2717e-08 0)
(1.44453 -3.13695e-08 0)
(1.44453 3.0078e-08 0)
(1.44453 -2.88491e-08 0)
(1.44453 2.76718e-08 0)
(1.44453 -2.65572e-08 0)
(1.44453 2.54896e-08 0)
(1.44453 -2.44845e-08 0)
(1.44453 2.35213e-08 0)
(1.44453 -2.26206e-08 0)
(1.44453 2.17568e-08 0)
(1.44453 -2.09552e-08 0)
(1.44453 2.01856e-08 0)
(1.44453 -1.9478e-08 0)
(1.44453 1.87975e-08 0)
(1.44453 -1.81786e-08 0)
(1.44453 1.75826e-08 0)
(1.44453 -1.70494e-08 0)
(1.44453 1.65299e-08 0)
(1.44453 -1.60545e-08 0)
(1.44453 1.55751e-08 0)
(1.44453 -1.51433e-08 0)
(1.44453 1.47067e-08 0)
(1.44453 -1.43194e-08 0)
(1.44453 1.39303e-08 0)
(1.44453 -1.35916e-08 0)
(1.44453 1.32554e-08 0)
(1.44453 -1.29713e-08 0)
(1.44453 1.26989e-08 0)
(1.44453 -1.2479e-08 0)
(1.44453 1.22893e-08 0)
(1.44453 -1.21605e-08 0)
)
;

boundaryField
{
    inandouthalf11
    {
        type            cyclic;
    }
    inandouthalf12
    {
        type            cyclic;
    }
    inandouthalf21
    {
        type            cyclic;
    }
    inandouthalf22
    {
        type            cyclic;
    }
    inandouthalf31
    {
        type            cyclic;
    }
    inandouthalf32
    {
        type            cyclic;
    }
    inandouthalf41
    {
        type            cyclic;
    }
    inandouthalf42
    {
        type            cyclic;
    }
    top
    {
        type            symmetryPlane;
    }
    walls
    {
        type            fixedValue;
        value           uniform (0 0 0);
    }
    frontAndBackPlanes
    {
        type            empty;
    }
}


// ************************************************************************* //
