/*--------------------------------*- C++ -*----------------------------------*\
| =========                 |                                                 |
| \\      /  F ield         | OpenFOAM: The Open Source CFD Toolbox           |
|  \\    /   O peration     | Version:  2.4.x                                 |
|   \\  /    A nd           | Web:      www.OpenFOAM.org                      |
|    \\/     M anipulation  |                                                 |
\*---------------------------------------------------------------------------*/
FoamFile
{
    version     2.0;
    format      ascii;
    class       volScalarField;
    location    "1.15";
    object      alpha_0;
}
// * * * * * * * * * * * * * * * * * * * * * * * * * * * * * * * * * * * * * //

dimensions      [0 0 0 0 0 0 0];

internalField   nonuniform List<scalar> 
360
(
0.609996
0.609996
0.609995
0.609995
0.609995
0.609994
0.609994
0.609993
0.609993
0.609992
0.609991
0.609991
0.60999
0.609989
0.609988
0.609987
0.609986
0.609985
0.609984
0.609982
0.609981
0.609979
0.609977
0.609975
0.609973
0.609971
0.609969
0.609966
0.609963
0.60996
0.609957
0.609953
0.60995
0.609945
0.609941
0.609936
0.609931
0.609925
0.609918
0.609912
0.609904
0.609896
0.609888
0.609878
0.609868
0.609857
0.609845
0.609833
0.609819
0.609803
0.609787
0.609769
0.60975
0.609729
0.609707
0.609682
0.609656
0.609627
0.609596
0.609563
0.609526
0.609487
0.609444
0.609398
0.609348
0.609294
0.609235
0.609171
0.609102
0.609028
0.608947
0.608859
0.608765
0.608662
0.608551
0.60843
0.6083
0.608159
0.608006
0.607845
0.607715
0.607682
0.60773
0.607767
0.607749
0.607688
0.607604
0.607513
0.607425
0.607344
0.607269
0.607196
0.607121
0.607043
0.60696
0.606875
0.606787
0.606698
0.606607
0.606515
0.60642
0.606323
0.606223
0.606121
0.606016
0.605908
0.605798
0.605684
0.605567
0.605447
0.605323
0.605195
0.605064
0.604928
0.604788
0.604644
0.604495
0.604341
0.604182
0.604019
0.603849
0.603672
0.603485
0.603288
0.603083
0.60288
0.60269
0.602526
0.602385
0.602254
0.602102
0.601877
0.601522
0.60105
0.600465
0.59949
0.597907
0.596112
0.593998
0.590583
0.580632
0.560167
0.551972
0.542238
0.522292
0.503262
0.492509
0.487902
0.481404
0.475841
0.468754
0.489827
0.283551
0.0109021
0.00181402
0.00112606
0.000860391
0.000710294
0.000576092
0.000508403
0.000427903
0.000386462
0.000326071
0.000299781
0.000263453
0.000232534
0.000214211
0.000186008
0.000173015
0.000152402
0.000141851
0.00012363
0.000115622
0.000104406
9.3553e-05
8.73936e-05
7.73487e-05
7.26378e-05
6.46624e-05
6.07082e-05
5.37225e-05
5.05129e-05
4.53325e-05
4.27163e-05
3.76879e-05
3.53552e-05
3.25253e-05
2.91859e-05
2.74824e-05
2.46423e-05
2.32844e-05
2.07684e-05
1.95089e-05
1.74838e-05
1.65602e-05
1.49109e-05
1.39013e-05
1.25013e-05
1.18412e-05
1.0601e-05
9.83459e-06
9.3136e-06
8.24044e-06
7.48063e-06
7.10053e-06
6.46516e-06
5.70933e-06
5.28254e-06
4.81439e-06
4.50299e-06
3.8668e-06
3.50317e-06
3.29445e-06
2.90811e-06
2.54154e-06
2.37306e-06
2.11691e-06
1.8062e-06
1.66763e-06
1.49313e-06
1.28187e-06
1.17152e-06
9.89444e-07
9.05594e-07
7.7372e-07
7.09091e-07
5.8757e-07
5.2632e-07
4.40197e-07
4.02329e-07
3.39383e-07
2.95772e-07
2.39944e-07
2.17785e-07
1.87534e-07
1.48736e-07
1.3149e-07
1.14255e-07
8.89732e-08
7.79e-08
6.64727e-08
5.24854e-08
4.60165e-08
3.62419e-08
3.13202e-08
2.37138e-08
2.06467e-08
1.69787e-08
1.28174e-08
1.10969e-08
9.99204e-09
8.86798e-09
5.01875e-09
3.45068e-09
2.85246e-09
2.3237e-09
1.72134e-09
1.43354e-09
1.02621e-09
8.41089e-10
6.04753e-10
4.99434e-10
3.47664e-10
2.75934e-10
1.91804e-10
1.57701e-10
1.10373e-10
7.86552e-11
6.2041e-11
4.14904e-11
3.23504e-11
2.12282e-11
1.62776e-11
1.05588e-11
8.07272e-12
5.1433e-12
3.80996e-12
2.41609e-12
1.84862e-12
1.14803e-12
7.4721e-13
5.39044e-13
3.24482e-13
2.30477e-13
1.33856e-13
9.24513e-14
5.4867e-14
3.79925e-14
2.06515e-14
1.37796e-14
8.91102e-15
4.7064e-15
3.04948e-15
1.84241e-15
9.9579e-16
6.14492e-16
3.22391e-16
1.96051e-16
1.05029e-16
6.34878e-17
3.2026e-17
1.73863e-17
6.39129e-18
2.25045e-18
6.57478e-19
1.75639e-19
3.98128e-20
7.24338e-21
9.77425e-22
8.2231e-23
4.16722e-24
2.22985e-25
5.8424e-27
3.5885e-38
1.12008e-49
2.5666e-61
4.48804e-73
6.84778e-85
1.96099e-95
1.45569e-106
6.53827e-114
6.35181e-125
2.24751e-132
2.20934e-143
7.73035e-151
9.19957e-162
2.65786e-169
4.12649e-180
9.14128e-188
3.12811e-198
3.152e-206
2.19604e-216
1.09073e-224
1.14389e-234
3.78908e-243
5.38932e-253
1.3218e-261
2.37206e-271
4.63402e-280
1.00068e-289
1.6303e-298
4.04397e-308
5.94642e-317
6.84281e-321
0
0
0
0
0
0
0
0
0
0
0
0
0
0
0
0
)
;

boundaryField
{
    inandouthalf11
    {
        type            cyclic;
    }
    inandouthalf12
    {
        type            cyclic;
    }
    inandouthalf21
    {
        type            cyclic;
    }
    inandouthalf22
    {
        type            cyclic;
    }
    inandouthalf31
    {
        type            cyclic;
    }
    inandouthalf32
    {
        type            cyclic;
    }
    inandouthalf41
    {
        type            cyclic;
    }
    inandouthalf42
    {
        type            cyclic;
    }
    top
    {
        type            symmetryPlane;
    }
    walls
    {
        type            zeroGradient;
    }
    frontAndBackPlanes
    {
        type            empty;
    }
}


// ************************************************************************* //
