/*--------------------------------*- C++ -*----------------------------------*\
| =========                 |                                                 |
| \\      /  F ield         | OpenFOAM: The Open Source CFD Toolbox           |
|  \\    /   O peration     | Version:  2.4.x                                 |
|   \\  /    A nd           | Web:      www.OpenFOAM.org                      |
|    \\/     M anipulation  |                                                 |
\*---------------------------------------------------------------------------*/
FoamFile
{
    version     2.0;
    format      ascii;
    class       volVectorField;
    location    "1.15";
    object      gradPs;
}
// * * * * * * * * * * * * * * * * * * * * * * * * * * * * * * * * * * * * * //

dimensions      [0 1 -2 0 0 0 0];

internalField   nonuniform List<vector> 
360
(
(0 7.71083e-26 0)
(0 -1.76835e-21 0)
(0 -1.76843e-21 0)
(0 4.50269e-29 0)
(-1.45436e-32 -1.76841e-21 0)
(-1.45436e-32 -1.76841e-21 0)
(-1.45436e-32 -1.76839e-21 0)
(0 -1.76839e-21 0)
(-1.45436e-32 -1.76837e-21 0)
(0 -3.53673e-21 0)
(-1.45437e-32 -1.76836e-21 0)
(0 -1.76834e-21 0)
(-2.90874e-32 -3.53666e-21 0)
(0 -3.53663e-21 0)
(0 -3.53659e-21 0)
(0 -3.53656e-21 0)
(0 -3.53652e-21 0)
(-1.45438e-32 -3.53649e-21 0)
(0 -5.30465e-21 0)
(0 -5.3046e-21 0)
(0 -5.30449e-21 0)
(-1.4544e-32 -7.07256e-21 0)
(0 -7.07242e-21 0)
(0 -7.07228e-21 0)
(0 -7.07214e-21 0)
(-1.45442e-32 -7.072e-21 0)
(0 -8.83977e-21 0)
(0 -1.06075e-20 0)
(0 -1.06072e-20 0)
(0 -1.06068e-20 0)
(0 -1.23742e-20 0)
(0 -1.23739e-20 0)
(0 -1.41409e-20 0)
(0 -1.5908e-20 0)
(0 -1.59072e-20 0)
(1.4545e-32 -1.76739e-20 0)
(0 -1.94402e-20 0)
(0 -2.29734e-20 0)
(0 -2.29721e-20 0)
(0 -2.47373e-20 0)
(0 -2.82692e-20 0)
(0 -2.8267e-20 0)
(1.45461e-32 -3.17975e-20 0)
(0 -3.53275e-20 0)
(0 -3.709e-20 0)
(0 -4.06179e-20 0)
(0 -4.23791e-20 0)
(0 -4.59048e-20 0)
(0 -5.29597e-20 0)
(0 -5.64821e-20 0)
(2.90971e-32 -6.0002e-20 0)
(0 -6.52851e-20 0)
(0 -7.05648e-20 0)
(0 -7.58418e-20 0)
(0 -8.28779e-20 0)
(0 -8.99102e-20 0)
(0 -9.69359e-20 0)
(0 -1.05719e-19 0)
(0 -1.12732e-19 0)
(0 -1.23259e-19 0)
(0 -1.33777e-19 0)
(0 -1.44281e-19 0)
(0 -1.56532e-19 0)
(0 -1.68766e-19 0)
(0 -1.82739e-19 0)
(0 -1.98446e-19 0)
(0 -2.15882e-19 0)
(0 -2.33286e-19 0)
(0 -2.50655e-19 0)
(0 -2.71488e-19 0)
(0 -2.95773e-19 0)
(0 -3.18251e-19 0)
(0 -3.44155e-19 0)
(0 -3.73476e-19 0)
(0 -4.04443e-19 0)
(0 -4.37047e-19 0)
(0 -4.71262e-19 0)
(0 -5.10547e-19 0)
(0 -1.16916e-19 0)
(0 1.26617e-17 0)
(0 6.11747e-17 0)
(0 6.33812e-17 0)
(0 -2.12772e-17 0)
(0 -5.79236e-17 0)
(0 -2.9452e-17 0)
(0 -9.3372e-18 0)
(0 -1.02328e-18 0)
(0 3.18034e-18 0)
(0 5.57911e-18 0)
(0 6.24586e-18 0)
(0 5.34561e-18 0)
(0 3.8438e-18 0)
(0 2.77867e-18 0)
(0 2.48536e-18 0)
(0 2.68209e-18 0)
(0 2.94724e-18 0)
(0 3.03401e-18 0)
(0 2.94547e-18 0)
(0 2.84158e-18 0)
(0 -2.06031e-16 0)
(0 -2.07468e-16 0)
(0 0 0)
(0 0 0)
(0 0 0)
(0 0 0)
(0 0 0)
(0 0 0)
(0 0 0)
(0 0 0)
(0 0 0)
(0 0 0)
(0 0 0)
(0 0 0)
(0 0 0)
(0 2.99713e-16 0)
(0 3.14931e-16 0)
(0 3.28394e-17 0)
(0 3.90535e-17 0)
(0 4.87975e-17 0)
(0 6.54115e-17 0)
(0 9.34271e-17 0)
(0 1.35865e-16 0)
(0 1.84788e-16 0)
(0 2.0509e-16 0)
(0 1.44842e-16 0)
(0 1.86897e-17 0)
(0 -3.15154e-17 0)
(0 2.53707e-16 0)
(0 2.65253e-15 0)
(0 1.22598e-13 0)
(0 6.26896e-10 0)
(0 4.53071e-06 0)
(0 0.00248187 0)
(0 0.143009 0)
(0 1.33881 0)
(0 3.2061 0)
(0 2.99387 0)
(0 1.15843 0)
(0 0.0583726 0)
(0 -0.692075 0)
(0 -1.91508 0)
(0 -2.45054 0)
(0 -1.97738 0)
(0 -1.52362 0)
(0 -0.806675 0)
(0 -0.179983 0)
(0 -0.0102472 0)
(0 9.23814e-05 0)
(0 0.00234121 0)
(0 0.0139345 0)
(0 0.0754773 0)
(0 0.0878374 0)
(0 -0.0960747 0)
(0 -4.34659 0)
(0 -4.03306 0)
(0 -0.774191 0)
(0 -0.578289 0)
(0 -0.645758 0)
(0 -0.667229 0)
(0 -0.625804 0)
(0 -0.661791 0)
(0 -0.639162 0)
(0 -0.660376 0)
(0 -0.535881 0)
(0 -0.630133 0)
(0 -0.53229 0)
(0 -0.526177 0)
(0 -0.524916 0)
(0 -0.453561 0)
(0 -0.46131 0)
(0 -0.437067 0)
(0 -0.440901 0)
(0 -0.348062 0)
(0 -0.40506 0)
(0 -0.346399 0)
(0 -0.335508 0)
(0 -0.332165 0)
(0 -0.294933 0)
(0 -0.298053 0)
(0 -0.278629 0)
(0 -0.28054 0)
(0 -0.240189 0)
(0 -0.238448 0)
(0 -0.235227 0)
(0 -0.243192 0)
(0 -0.182882 0)
(0 -0.218334 0)
(0 -0.192994 0)
(0 -0.177948 0)
(0 -0.174874 0)
(0 -0.164066 0)
(0 -0.169005 0)
(0 -0.151017 0)
(0 -0.144017 0)
(0 -0.128536 0)
(0 -0.137761 0)
(0 -0.12792 0)
(0 -0.115777 0)
(0 -0.10828 0)
(0 -0.117879 0)
(0 -0.0806588 0)
(0 -0.0961214 0)
(-6.42463e-17 -0.111415 0)
(0 -0.0729701 0)
(0 -0.0646059 0)
(3.35012e-17 -0.0855447 0)
(0 -0.0745525 0)
(-3.46671e-17 -0.0571222 0)
(0 -0.050437 0)
(1.75462e-17 -0.0585379 0)
(0 -0.0621492 0)
(0 -0.0370958 0)
(0 -0.0373325 0)
(1.81909e-17 -0.0457523 0)
(0 -0.0332769 0)
(0 -0.0262641 0)
(0 -0.0333252 0)
(0 -0.0266824 0)
(0 -0.0186884 0)
(-9.05381e-18 -0.0218745 0)
(0 -0.0182137 0)
(-8.94731e-18 -0.0160159 0)
(0 -0.0144302 0)
(-4.40209e-18 -0.0114319 0)
(0 -0.0102707 0)
(0 -0.00928857 0)
(0 -0.00888514 0)
(0 -0.0069548 0)
(2.07931e-18 -0.00578437 0)
(0 -0.00456266 0)
(0 -0.00458965 0)
(0 -0.00406217 0)
(0 -0.0031514 0)
(0 -0.00211841 0)
(0 -0.00250034 0)
(0 -0.0019802 0)
(0 -0.00123791 0)
(0 -0.00135437 0)
(0 -0.00111586 0)
(0 -0.000699814 0)
(0 -0.000702273 0)
(0 -0.000548132 0)
(0 -0.000410842 0)
(-1.00005e-19 -0.000349603 0)
(9.80639e-20 -0.000271568 0)
(0 -0.00021945 0)
(0 -0.00014264 0)
(-4.62296e-20 -0.000133043 0)
(0 -9.98815e-05 0)
(0 -9.10214e-05 0)
(0 -5.40302e-05 0)
(0 0 0)
(0 0 0)
(0 0 0)
(0 0 0)
(0 0 0)
(0 0 0)
(0 0 0)
(0 0 0)
(0 0 0)
(0 0 0)
(0 0 0)
(0 0 0)
(0 0 0)
(0 0 0)
(0 0 0)
(0 0 0)
(0 0 0)
(0 0 0)
(0 0 0)
(0 0 0)
(0 0 0)
(0 0 0)
(0 0 0)
(0 0 0)
(0 0 0)
(0 0 0)
(0 0 0)
(0 0 0)
(0 0 0)
(0 0 0)
(0 0 0)
(0 0 0)
(0 0 0)
(0 0 0)
(0 0 0)
(0 0 0)
(0 0 0)
(0 0 0)
(0 0 0)
(0 0 0)
(0 0 0)
(0 0 0)
(0 0 0)
(0 0 0)
(0 0 0)
(0 0 0)
(0 0 0)
(0 0 0)
(0 0 0)
(0 0 0)
(0 0 0)
(0 0 0)
(0 0 0)
(0 0 0)
(0 0 0)
(0 0 0)
(0 0 0)
(0 0 0)
(0 0 0)
(0 0 0)
(0 0 0)
(0 0 0)
(0 0 0)
(0 0 0)
(0 0 0)
(0 0 0)
(0 0 0)
(0 0 0)
(0 0 0)
(0 0 0)
(0 0 0)
(0 0 0)
(0 0 0)
(0 0 0)
(0 0 0)
(0 0 0)
(0 0 0)
(0 0 0)
(0 0 0)
(0 0 0)
(0 0 0)
(0 0 0)
(0 0 0)
(0 0 0)
(0 0 0)
(0 0 0)
(0 0 0)
(0 0 0)
(0 0 0)
(0 0 0)
(0 0 0)
(0 0 0)
(0 0 0)
(0 0 0)
(0 0 0)
(0 0 0)
(0 0 0)
(0 0 0)
(0 0 0)
(0 0 0)
(0 0 0)
(0 0 0)
(0 0 0)
(0 0 0)
(0 0 0)
(0 0 0)
(0 0 0)
(0 0 0)
(0 0 0)
)
;

boundaryField
{
    inandouthalf11
    {
        type            cyclic;
    }
    inandouthalf12
    {
        type            cyclic;
    }
    inandouthalf21
    {
        type            cyclic;
    }
    inandouthalf22
    {
        type            cyclic;
    }
    inandouthalf31
    {
        type            cyclic;
    }
    inandouthalf32
    {
        type            cyclic;
    }
    inandouthalf41
    {
        type            cyclic;
    }
    inandouthalf42
    {
        type            cyclic;
    }
    top
    {
        type            symmetryPlane;
    }
    walls
    {
        type            calculated;
        value           uniform (0 0 0);
    }
    frontAndBackPlanes
    {
        type            empty;
    }
}


// ************************************************************************* //
