/*--------------------------------*- C++ -*----------------------------------*\
| =========                 |                                                 |
| \\      /  F ield         | OpenFOAM: The Open Source CFD Toolbox           |
|  \\    /   O peration     | Version:  2.4.x                                 |
|   \\  /    A nd           | Web:      www.OpenFOAM.org                      |
|    \\/     M anipulation  |                                                 |
\*---------------------------------------------------------------------------*/
FoamFile
{
    version     2.0;
    format      ascii;
    class       surfaceScalarField;
    location    "1.15";
    object      phib_0;
}
// * * * * * * * * * * * * * * * * * * * * * * * * * * * * * * * * * * * * * //

dimensions      [0 3 -1 0 0 0 0];

internalField   nonuniform List<scalar> 
359
(
3.75313e-19
7.52949e-19
1.13196e-18
1.50996e-18
1.88966e-18
2.26904e-18
2.64936e-18
3.02692e-18
3.40592e-18
3.78415e-18
4.16139e-18
4.54069e-18
4.91576e-18
5.29413e-18
5.67002e-18
6.04509e-18
6.41912e-18
6.79441e-18
7.16776e-18
7.53958e-18
7.91003e-18
8.28159e-18
8.64928e-18
9.0157e-18
9.38145e-18
9.75e-18
1.01132e-17
1.04785e-17
1.084e-17
1.12024e-17
1.15615e-17
1.19215e-17
1.22764e-17
1.26328e-17
1.29858e-17
1.33396e-17
1.36881e-17
1.404e-17
1.43866e-17
1.47323e-17
1.50746e-17
1.54187e-17
1.57603e-17
1.60988e-17
1.64351e-17
1.67718e-17
1.71042e-17
1.74406e-17
1.77693e-17
1.80994e-17
1.84243e-17
1.87529e-17
1.90743e-17
1.93979e-17
1.97159e-17
2.00334e-17
2.03494e-17
2.06641e-17
2.09745e-17
2.12834e-17
2.15862e-17
2.18898e-17
2.21903e-17
2.24907e-17
2.27878e-17
2.30827e-17
2.33722e-17
2.36644e-17
2.39492e-17
2.42362e-17
2.4516e-17
2.47976e-17
2.50688e-17
2.53445e-17
2.56129e-17
2.58825e-17
2.61442e-17
2.64066e-17
2.66638e-17
1.01797e-12
6.67739e-12
1.83648e-11
3.09244e-11
4.03216e-11
4.68493e-11
5.19399e-11
5.66353e-11
6.15533e-11
6.70206e-11
7.31201e-11
7.97513e-11
8.67448e-11
9.39709e-11
1.01375e-10
1.08958e-10
1.16736e-10
1.24715e-10
1.32882e-10
1.41221e-10
1.4972e-10
1.58383e-10
1.67227e-10
1.7628e-10
1.85571e-10
1.95132e-10
2.04992e-10
2.15175e-10
2.25703e-10
2.36597e-10
2.47873e-10
2.59545e-10
2.7163e-10
2.84142e-10
2.97097e-10
3.10511e-10
3.24396e-10
3.38762e-10
3.53616e-10
3.68982e-10
3.84915e-10
4.01527e-10
4.1898e-10
4.37422e-10
4.56823e-10
4.76754e-10
4.96299e-10
5.14403e-10
5.30594e-10
5.45513e-10
5.61064e-10
5.8104e-10
6.11123e-10
6.53257e-10
7.03786e-10
7.70084e-10
8.89464e-10
1.04264e-09
1.20031e-09
1.39193e-09
1.74125e-09
3.37796e-09
4.30788e-09
4.86126e-09
5.7861e-09
7.6176e-09
8.4193e-09
8.66371e-09
8.84999e-09
9.05772e-09
9.28476e-09
9.32146e-09
1.19363e-08
4.81343e-09
2.14969e-10
6.63471e-11
5.29036e-11
4.68109e-11
4.13714e-11
3.70222e-11
3.3448e-11
3.02437e-11
2.73152e-11
2.46901e-11
2.27732e-11
2.05044e-11
1.88468e-11
1.71902e-11
1.56841e-11
1.44323e-11
1.32379e-11
1.2098e-11
1.10373e-11
1.02643e-11
9.33206e-12
8.61419e-12
7.91439e-12
7.26787e-12
6.70653e-12
6.17047e-12
5.67197e-12
5.20156e-12
4.81311e-12
4.44819e-12
4.08485e-12
3.73091e-12
3.48485e-12
3.18338e-12
2.93674e-12
2.713e-12
2.50491e-12
2.31149e-12
2.12139e-12
1.95536e-12
1.80571e-12
1.67468e-12
1.53801e-12
1.41359e-12
1.30703e-12
1.20827e-12
1.10312e-12
1.03648e-12
9.52801e-13
8.5523e-13
7.94891e-13
7.41344e-13
6.66878e-13
6.03268e-13
5.5537e-13
5.13486e-13
4.62388e-13
4.07868e-13
3.76874e-13
3.44655e-13
3.03415e-13
2.74061e-13
2.50907e-13
2.19687e-13
1.94818e-13
1.77616e-13
1.56259e-13
1.38364e-13
1.22146e-13
1.07274e-13
9.52732e-14
8.42548e-14
7.38537e-14
6.35425e-14
5.52633e-14
4.82499e-14
4.25791e-14
3.65313e-14
3.08887e-14
2.64362e-14
2.34673e-14
1.95222e-14
1.62997e-14
1.43304e-14
1.18879e-14
9.78237e-15
8.48783e-15
7.01655e-15
5.82452e-15
4.88161e-15
4.02047e-15
3.28793e-15
2.65755e-15
2.262e-15
1.7982e-15
1.44701e-15
1.27971e-15
1.31839e-15
1.10589e-15
6.77962e-16
5.05712e-16
4.16324e-16
3.26717e-16
2.55837e-16
2.00719e-16
1.53437e-16
1.19894e-16
9.25133e-17
7.1976e-17
5.4011e-17
4.15026e-17
3.1956e-17
2.5409e-17
1.90203e-17
1.51125e-17
1.21163e-17
9.70448e-18
8.04932e-18
6.72413e-18
5.84445e-18
5.15389e-18
4.67811e-18
4.26967e-18
3.98147e-18
3.72705e-18
3.52039e-18
3.3198e-18
3.19229e-18
3.07227e-18
2.9592e-18
2.81957e-18
2.69447e-18
2.53229e-18
2.48863e-18
2.28716e-18
2.11822e-18
1.92422e-18
1.72559e-18
1.49397e-18
1.27413e-18
1.03777e-18
8.14929e-19
6.59662e-19
5.56262e-19
5.15635e-19
4.96119e-19
3.40693e-19
3.33088e-19
3.25393e-19
3.18173e-19
3.09556e-19
3.10546e-19
3.12818e-19
3.17154e-19
3.21049e-19
3.25944e-19
3.33364e-19
3.41347e-19
3.52743e-19
3.64079e-19
3.81127e-19
3.99015e-19
4.23092e-19
4.44442e-19
4.73223e-19
5.03997e-19
5.5002e-19
5.93957e-19
6.51756e-19
7.14568e-19
7.96654e-19
8.86649e-19
1.00881e-18
1.18826e-18
1.71494e-18
2.26748e-18
3.19521e-18
4.1822e-18
5.25074e-18
6.30127e-18
7.42701e-18
8.56755e-18
9.74027e-18
1.09774e-17
1.21879e-17
1.34049e-17
1.45247e-17
1.58478e-17
1.6864e-17
1.79758e-17
1.89548e-17
2.12733e-17
2.3028e-17
2.48104e-17
2.52936e-17
2.6874e-17
2.6582e-17
2.63006e-17
2.44939e-17
2.54747e-17
2.41426e-17
2.26446e-17
1.80013e-17
1.45731e-17
8.75455e-18
3.44604e-18
)
;

boundaryField
{
    inandouthalf11
    {
        type            cyclic;
        value           nonuniform List<scalar> 
100
(
-1.52613e-10
-1.52873e-10
-1.52875e-10
-1.52875e-10
-1.52875e-10
-1.52876e-10
-1.52876e-10
-1.52877e-10
-1.52877e-10
-1.52879e-10
-1.5288e-10
-1.5288e-10
-1.52881e-10
-1.52883e-10
-1.52884e-10
-1.52885e-10
-1.52886e-10
-1.52888e-10
-1.52889e-10
-1.52892e-10
-1.52893e-10
-1.52895e-10
-1.52898e-10
-1.52901e-10
-1.52903e-10
-1.52906e-10
-1.52908e-10
-1.52912e-10
-1.52916e-10
-1.5292e-10
-1.52924e-10
-1.52929e-10
-1.52933e-10
-1.52939e-10
-1.52944e-10
-1.52951e-10
-1.52957e-10
-1.52965e-10
-1.52974e-10
-1.52982e-10
-1.52992e-10
-1.53002e-10
-1.53012e-10
-1.53025e-10
-1.53038e-10
-1.53052e-10
-1.53068e-10
-1.53083e-10
-1.53101e-10
-1.53122e-10
-1.53142e-10
-1.53166e-10
-1.5319e-10
-1.53217e-10
-1.53245e-10
-1.53278e-10
-1.53311e-10
-1.53348e-10
-1.53388e-10
-1.53431e-10
-1.53479e-10
-1.53529e-10
-1.53584e-10
-1.53644e-10
-1.53708e-10
-1.53778e-10
-1.53854e-10
-1.53937e-10
-1.54026e-10
-1.54122e-10
-1.54227e-10
-1.54341e-10
-1.54463e-10
-1.54597e-10
-1.54741e-10
-1.54898e-10
-1.55067e-10
-1.55251e-10
-1.5545e-10
-1.5566e-10
-1.55993e-10
-1.5676e-10
-1.57845e-10
-1.58815e-10
-1.59567e-10
-1.60193e-10
-1.60775e-10
-1.61365e-10
-1.61995e-10
-1.62683e-10
-1.6343e-10
-1.64228e-10
-1.6507e-10
-1.65947e-10
-1.66858e-10
-1.67803e-10
-1.68783e-10
-1.69798e-10
-1.70848e-10
-1.71932e-10
)
;
    }
    inandouthalf12
    {
        type            cyclic;
        value           nonuniform List<scalar> 
100
(
1.52613e-10
1.52873e-10
1.52875e-10
1.52875e-10
1.52875e-10
1.52876e-10
1.52876e-10
1.52877e-10
1.52877e-10
1.52879e-10
1.5288e-10
1.5288e-10
1.52881e-10
1.52883e-10
1.52884e-10
1.52885e-10
1.52886e-10
1.52888e-10
1.52889e-10
1.52892e-10
1.52893e-10
1.52895e-10
1.52898e-10
1.52901e-10
1.52903e-10
1.52906e-10
1.52908e-10
1.52912e-10
1.52916e-10
1.5292e-10
1.52924e-10
1.52929e-10
1.52933e-10
1.52939e-10
1.52944e-10
1.52951e-10
1.52957e-10
1.52965e-10
1.52974e-10
1.52982e-10
1.52992e-10
1.53002e-10
1.53012e-10
1.53025e-10
1.53038e-10
1.53052e-10
1.53068e-10
1.53083e-10
1.53101e-10
1.53122e-10
1.53142e-10
1.53166e-10
1.5319e-10
1.53217e-10
1.53245e-10
1.53278e-10
1.53311e-10
1.53348e-10
1.53388e-10
1.53431e-10
1.53479e-10
1.53529e-10
1.53584e-10
1.53644e-10
1.53708e-10
1.53778e-10
1.53854e-10
1.53937e-10
1.54026e-10
1.54122e-10
1.54227e-10
1.54341e-10
1.54463e-10
1.54597e-10
1.54741e-10
1.54898e-10
1.55067e-10
1.55251e-10
1.5545e-10
1.5566e-10
1.55993e-10
1.5676e-10
1.57845e-10
1.58815e-10
1.59567e-10
1.60193e-10
1.60775e-10
1.61365e-10
1.61995e-10
1.62683e-10
1.6343e-10
1.64228e-10
1.6507e-10
1.65947e-10
1.66858e-10
1.67803e-10
1.68783e-10
1.69798e-10
1.70848e-10
1.71932e-10
)
;
    }
    inandouthalf21
    {
        type            cyclic;
        value           nonuniform List<scalar> 
100
(
-1.73051e-10
-1.7421e-10
-1.75412e-10
-1.76662e-10
-1.77968e-10
-1.79334e-10
-1.80768e-10
-1.82276e-10
-1.83864e-10
-1.8554e-10
-1.8731e-10
-1.89183e-10
-1.91167e-10
-1.93273e-10
-1.95512e-10
-1.97896e-10
-2.00441e-10
-2.03162e-10
-2.06079e-10
-2.09221e-10
-2.12633e-10
-2.16377e-10
-2.20536e-10
-2.25184e-10
-2.30346e-10
-2.35935e-10
-2.41778e-10
-2.47801e-10
-2.54356e-10
-2.62772e-10
-2.77251e-10
-3.14998e-10
-4.82906e-10
-1.78104e-09
-1.23082e-08
-5.32446e-08
-1.24948e-07
-2.08044e-07
-2.9339e-07
-3.79087e-07
-4.65636e-07
-5.52213e-07
-6.32077e-07
-7.00108e-07
-7.553e-07
-7.85103e-07
-7.96169e-07
-8.04471e-07
-8.13863e-07
-8.26565e-07
-8.48484e-07
-8.80877e-07
-9.23041e-07
-9.70095e-07
-1.01915e-06
-1.06388e-06
-1.10376e-06
-1.13862e-06
-1.16871e-06
-1.19404e-06
-1.21505e-06
-1.23198e-06
-1.24549e-06
-1.25619e-06
-1.26473e-06
-1.27175e-06
-1.27763e-06
-1.28273e-06
-1.28719e-06
-1.2912e-06
-1.29478e-06
-1.29804e-06
-1.30101e-06
-1.30371e-06
-1.30619e-06
-1.30845e-06
-1.31054e-06
-1.31245e-06
-1.31422e-06
-1.31584e-06
-1.31734e-06
-1.31872e-06
-1.31999e-06
-1.32117e-06
-1.32225e-06
-1.32325e-06
-1.32417e-06
-1.32503e-06
-1.32581e-06
-1.32654e-06
-1.32722e-06
-1.32784e-06
-1.32841e-06
-1.32894e-06
-1.32943e-06
-1.32988e-06
-1.3303e-06
-1.33069e-06
-1.33104e-06
-1.33137e-06
)
;
    }
    inandouthalf22
    {
        type            cyclic;
        value           nonuniform List<scalar> 
100
(
1.73051e-10
1.7421e-10
1.75412e-10
1.76662e-10
1.77968e-10
1.79334e-10
1.80768e-10
1.82276e-10
1.83864e-10
1.8554e-10
1.8731e-10
1.89183e-10
1.91167e-10
1.93273e-10
1.95512e-10
1.97896e-10
2.00441e-10
2.03162e-10
2.06079e-10
2.09221e-10
2.12633e-10
2.16377e-10
2.20536e-10
2.25184e-10
2.30346e-10
2.35935e-10
2.41778e-10
2.47801e-10
2.54356e-10
2.62772e-10
2.77251e-10
3.14998e-10
4.82906e-10
1.78104e-09
1.23082e-08
5.32446e-08
1.24948e-07
2.08044e-07
2.9339e-07
3.79087e-07
4.65636e-07
5.52213e-07
6.32077e-07
7.00108e-07
7.553e-07
7.85103e-07
7.96169e-07
8.04471e-07
8.13863e-07
8.26565e-07
8.48484e-07
8.80877e-07
9.23041e-07
9.70095e-07
1.01915e-06
1.06388e-06
1.10376e-06
1.13862e-06
1.16871e-06
1.19404e-06
1.21505e-06
1.23198e-06
1.24549e-06
1.25619e-06
1.26473e-06
1.27175e-06
1.27763e-06
1.28273e-06
1.28719e-06
1.2912e-06
1.29478e-06
1.29804e-06
1.30101e-06
1.30371e-06
1.30619e-06
1.30845e-06
1.31054e-06
1.31245e-06
1.31422e-06
1.31584e-06
1.31734e-06
1.31872e-06
1.31999e-06
1.32117e-06
1.32225e-06
1.32325e-06
1.32417e-06
1.32503e-06
1.32581e-06
1.32654e-06
1.32722e-06
1.32784e-06
1.32841e-06
1.32894e-06
1.32943e-06
1.32988e-06
1.3303e-06
1.33069e-06
1.33104e-06
1.33137e-06
)
;
    }
    inandouthalf31
    {
        type            cyclic;
        value           nonuniform List<scalar> 
110
(
-1.33168e-06
-1.359e-06
-1.38686e-06
-1.41528e-06
-1.44426e-06
-1.47381e-06
-1.50396e-06
-1.53471e-06
-1.56607e-06
-1.59805e-06
-1.63068e-06
-1.66395e-06
-1.6979e-06
-1.73251e-06
-1.76783e-06
-1.80385e-06
-1.84059e-06
-1.87807e-06
-1.9163e-06
-1.9553e-06
-1.99509e-06
-2.03567e-06
-2.07707e-06
-2.1193e-06
-2.16239e-06
-2.20634e-06
-2.25118e-06
-2.29693e-06
-2.3436e-06
-2.39121e-06
-2.43978e-06
-2.48934e-06
-2.5399e-06
-2.59148e-06
-2.6441e-06
-2.69779e-06
-2.75257e-06
-2.80846e-06
-2.86548e-06
-2.92365e-06
-2.98301e-06
-3.04356e-06
-3.10535e-06
-3.16839e-06
-3.2327e-06
-3.29832e-06
-3.36527e-06
-3.43358e-06
-3.50328e-06
-3.57439e-06
-3.64694e-06
-3.72097e-06
-3.7965e-06
-3.87356e-06
-3.95218e-06
-4.0324e-06
-4.11425e-06
-4.19776e-06
-4.28296e-06
-4.36989e-06
-4.45859e-06
-4.54909e-06
-4.64142e-06
-4.73563e-06
-4.83175e-06
-4.92983e-06
-5.02989e-06
-5.13198e-06
-5.23615e-06
-5.34243e-06
-5.45086e-06
-5.5615e-06
-5.67439e-06
-5.78956e-06
-5.90707e-06
-6.02697e-06
-6.1493e-06
-6.27412e-06
-6.40146e-06
-6.5314e-06
-6.66397e-06
-6.79923e-06
-6.93723e-06
-7.07804e-06
-7.22171e-06
-7.36829e-06
-7.51785e-06
-7.67044e-06
-7.82613e-06
-7.98498e-06
-8.14705e-06
-8.31241e-06
-8.48113e-06
-8.65328e-06
-8.82892e-06
-9.00812e-06
-9.19096e-06
-9.37751e-06
-9.56785e-06
-9.76205e-06
-9.9602e-06
-1.01624e-05
-1.03686e-05
-1.05791e-05
-1.07938e-05
-1.10129e-05
-1.12364e-05
-1.14645e-05
-1.16972e-05
-1.19346e-05
)
;
    }
    inandouthalf32
    {
        type            cyclic;
        value           nonuniform List<scalar> 
110
(
1.33168e-06
1.359e-06
1.38686e-06
1.41528e-06
1.44426e-06
1.47381e-06
1.50396e-06
1.53471e-06
1.56607e-06
1.59805e-06
1.63068e-06
1.66395e-06
1.6979e-06
1.73251e-06
1.76783e-06
1.80385e-06
1.84059e-06
1.87807e-06
1.9163e-06
1.9553e-06
1.99509e-06
2.03567e-06
2.07707e-06
2.1193e-06
2.16239e-06
2.20634e-06
2.25118e-06
2.29693e-06
2.3436e-06
2.39121e-06
2.43978e-06
2.48934e-06
2.5399e-06
2.59148e-06
2.6441e-06
2.69779e-06
2.75257e-06
2.80846e-06
2.86548e-06
2.92365e-06
2.98301e-06
3.04356e-06
3.10535e-06
3.16839e-06
3.2327e-06
3.29832e-06
3.36527e-06
3.43358e-06
3.50328e-06
3.57439e-06
3.64694e-06
3.72097e-06
3.7965e-06
3.87356e-06
3.95218e-06
4.0324e-06
4.11425e-06
4.19776e-06
4.28296e-06
4.36989e-06
4.45859e-06
4.54909e-06
4.64142e-06
4.73563e-06
4.83175e-06
4.92983e-06
5.02989e-06
5.13198e-06
5.23615e-06
5.34243e-06
5.45086e-06
5.5615e-06
5.67439e-06
5.78956e-06
5.90707e-06
6.02697e-06
6.1493e-06
6.27412e-06
6.40146e-06
6.5314e-06
6.66397e-06
6.79923e-06
6.93723e-06
7.07804e-06
7.22171e-06
7.36829e-06
7.51785e-06
7.67044e-06
7.82613e-06
7.98498e-06
8.14705e-06
8.31241e-06
8.48113e-06
8.65328e-06
8.82892e-06
9.00812e-06
9.19096e-06
9.37751e-06
9.56785e-06
9.76205e-06
9.9602e-06
1.01624e-05
1.03686e-05
1.05791e-05
1.07938e-05
1.10129e-05
1.12364e-05
1.14645e-05
1.16972e-05
1.19346e-05
)
;
    }
    inandouthalf41
    {
        type            cyclic;
        value           nonuniform List<scalar> 
50
(
-1.06827e-05
-1.06827e-05
-1.06827e-05
-1.06827e-05
-1.06827e-05
-1.06827e-05
-1.06827e-05
-1.06827e-05
-1.06827e-05
-1.06827e-05
-1.06827e-05
-1.06827e-05
-1.06827e-05
-1.06827e-05
-1.06827e-05
-1.06827e-05
-1.06827e-05
-1.06827e-05
-1.06827e-05
-1.06827e-05
-1.06827e-05
-1.06827e-05
-1.06827e-05
-1.06827e-05
-1.06827e-05
-1.06827e-05
-1.06827e-05
-1.06827e-05
-1.06827e-05
-1.06827e-05
-1.06827e-05
-1.06827e-05
-1.06827e-05
-1.06827e-05
-1.06827e-05
-1.06827e-05
-1.06827e-05
-1.06827e-05
-1.06827e-05
-1.06827e-05
-1.06827e-05
-1.06827e-05
-1.06827e-05
-1.06827e-05
-1.06827e-05
-1.06827e-05
-1.06827e-05
-1.06827e-05
-1.06827e-05
-1.06827e-05
)
;
    }
    inandouthalf42
    {
        type            cyclic;
        value           nonuniform List<scalar> 
50
(
1.06827e-05
1.06827e-05
1.06827e-05
1.06827e-05
1.06827e-05
1.06827e-05
1.06827e-05
1.06827e-05
1.06827e-05
1.06827e-05
1.06827e-05
1.06827e-05
1.06827e-05
1.06827e-05
1.06827e-05
1.06827e-05
1.06827e-05
1.06827e-05
1.06827e-05
1.06827e-05
1.06827e-05
1.06827e-05
1.06827e-05
1.06827e-05
1.06827e-05
1.06827e-05
1.06827e-05
1.06827e-05
1.06827e-05
1.06827e-05
1.06827e-05
1.06827e-05
1.06827e-05
1.06827e-05
1.06827e-05
1.06827e-05
1.06827e-05
1.06827e-05
1.06827e-05
1.06827e-05
1.06827e-05
1.06827e-05
1.06827e-05
1.06827e-05
1.06827e-05
1.06827e-05
1.06827e-05
1.06827e-05
1.06827e-05
1.06827e-05
)
;
    }
    top
    {
        type            symmetryPlane;
        value           uniform 0;
    }
    walls
    {
        type            fixedValue;
        value           uniform 0;
    }
    frontAndBackPlanes
    {
        type            empty;
        value           nonuniform 0();
    }
}


// ************************************************************************* //
