/*--------------------------------*- C++ -*----------------------------------*\
| =========                 |                                                 |
| \\      /  F ield         | OpenFOAM: The Open Source CFD Toolbox           |
|  \\    /   O peration     | Version:  2.4.x                                 |
|   \\  /    A nd           | Web:      www.OpenFOAM.org                      |
|    \\/     M anipulation  |                                                 |
\*---------------------------------------------------------------------------*/
FoamFile
{
    version     2.0;
    format      ascii;
    class       volTensorField;
    location    "1.15";
    object      Tauf;
}
// * * * * * * * * * * * * * * * * * * * * * * * * * * * * * * * * * * * * * //

dimensions      [0 2 -2 0 0 0 0];

internalField   nonuniform List<tensor> 
360
(
(0 3.05366e-07 0 3.05366e-07 3.95682e-16 0 0 0 0)
(0 2.61752e-10 0 2.61752e-10 3.9587e-16 0 0 0 0)
(0 1.50569e-12 0 1.50569e-12 3.96828e-16 0 0 0 0)
(0 2.37911e-15 0 2.37911e-15 3.98699e-16 0 0 0 0)
(-5.16988e-23 1.28353e-12 0 1.28353e-12 3.9958e-16 0 0 0 0)
(-5.16988e-23 1.28462e-12 0 1.28462e-12 3.9887e-16 0 0 0 0)
(-2.58494e-23 1.28463e-12 0 1.28463e-12 3.98729e-16 0 0 0 0)
(0 1.28463e-12 0 1.28463e-12 3.99095e-16 0 0 0 0)
(-2.58494e-23 1.28574e-12 0 1.28574e-12 3.98166e-16 0 0 0 0)
(0 2.5671e-12 0 2.5671e-12 3.97273e-16 0 0 0 0)
(-2.58494e-23 1.28575e-12 0 1.28575e-12 3.96961e-16 0 0 0 0)
(0 1.28576e-12 0 1.28576e-12 3.96775e-16 0 0 0 0)
(-5.16988e-23 2.56824e-12 0 2.56824e-12 3.97547e-16 0 0 0 0)
(0 2.56935e-12 0 2.56935e-12 3.97202e-16 0 0 0 0)
(0 2.56937e-12 0 2.56937e-12 3.95607e-16 0 0 0 0)
(0 2.56939e-12 0 2.56939e-12 3.95315e-16 0 0 0 0)
(0 2.56941e-12 0 2.56941e-12 3.94509e-16 0 0 0 0)
(-5.16988e-23 2.57052e-12 0 2.57052e-12 3.9267e-16 0 0 0 0)
(0 3.85309e-12 0 3.85309e-12 3.92051e-16 0 0 0 0)
(0 3.85421e-12 0 3.85421e-12 3.91952e-16 0 0 0 0)
(0 3.85537e-12 0 3.85537e-12 3.91334e-16 0 0 0 0)
(-2.58494e-23 5.13799e-12 0 5.13799e-12 3.90375e-16 0 0 0 0)
(0 5.13916e-12 0 5.13916e-12 3.89317e-16 0 0 0 0)
(0 5.13924e-12 0 5.13924e-12 3.87924e-16 0 0 0 0)
(0 5.13932e-12 0 5.13932e-12 3.8652e-16 0 0 0 0)
(-2.58494e-23 5.14049e-12 0 5.14049e-12 3.85427e-16 0 0 0 0)
(0 6.42436e-12 0 6.42436e-12 3.84035e-16 0 0 0 0)
(0 7.70828e-12 0 7.70828e-12 3.829e-16 0 0 0 0)
(0 7.70955e-12 0 7.70955e-12 3.81831e-16 0 0 0 0)
(0 7.71082e-12 0 7.71082e-12 3.80344e-16 0 0 0 0)
(0 8.99382e-12 0 8.99382e-12 3.79071e-16 0 0 0 0)
(0 8.99621e-12 0 8.99621e-12 3.77549e-16 0 0 0 0)
(0 1.02805e-11 0 1.02805e-11 3.75868e-16 0 0 0 0)
(0 1.15647e-11 0 1.15647e-11 3.74533e-16 0 0 0 0)
(0 1.15674e-11 0 1.15674e-11 3.73357e-16 0 0 0 0)
(5.16988e-23 1.28519e-11 0 1.28519e-11 3.71719e-16 0 0 0 0)
(0 1.41387e-11 0 1.41387e-11 3.70119e-16 0 0 0 0)
(0 1.67066e-11 0 1.67066e-11 3.69414e-16 0 0 0 0)
(0 1.67107e-11 0 1.67107e-11 3.68064e-16 0 0 0 0)
(0 1.7997e-11 0 1.7997e-11 3.66062e-16 0 0 0 0)
(0 2.05657e-11 0 2.05657e-11 3.64454e-16 0 0 0 0)
(0 2.05713e-11 0 2.05713e-11 3.62355e-16 0 0 0 0)
(2.58494e-23 2.31418e-11 0 2.31418e-11 3.60307e-16 0 0 0 0)
(0 2.57138e-11 0 2.57138e-11 3.58837e-16 0 0 0 0)
(0 2.70038e-11 0 2.70038e-11 3.57052e-16 0 0 0 0)
(0 2.95757e-11 0 2.95757e-11 3.55333e-16 0 0 0 0)
(0 3.08665e-11 0 3.08665e-11 3.53658e-16 0 0 0 0)
(0 3.3443e-11 0 3.3443e-11 3.51715e-16 0 0 0 0)
(0 3.85874e-11 0 3.85874e-11 3.49872e-16 0 0 0 0)
(0 4.11668e-11 0 4.11668e-11 3.47775e-16 0 0 0 0)
(5.16988e-23 4.37464e-11 0 4.37464e-11 3.45645e-16 0 0 0 0)
(0 4.76115e-11 0 4.76115e-11 3.44045e-16 0 0 0 0)
(0 5.14793e-11 0 5.14793e-11 3.42666e-16 0 0 0 0)
(0 5.53499e-11 0 5.53499e-11 3.4091e-16 0 0 0 0)
(0 6.05079e-11 0 6.05079e-11 3.38567e-16 0 0 0 0)
(0 6.56693e-11 0 6.56693e-11 3.36309e-16 0 0 0 0)
(0 7.08353e-11 0 7.08353e-11 3.33945e-16 0 0 0 0)
(0 7.7289e-11 0 7.7289e-11 3.30744e-16 0 0 0 0)
(0 8.24641e-11 0 8.24641e-11 3.28093e-16 0 0 0 0)
(0 9.02156e-11 0 9.02156e-11 3.2646e-16 0 0 0 0)
(0 9.79748e-11 0 9.79748e-11 3.24302e-16 0 0 0 0)
(0 1.05742e-10 0 1.05742e-10 3.21359e-16 0 0 0 0)
(0 1.14804e-10 0 1.14804e-10 3.18228e-16 0 0 0 0)
(0 1.23878e-10 0 1.23878e-10 3.16277e-16 0 0 0 0)
(0 1.34251e-10 0 1.34251e-10 3.14786e-16 0 0 0 0)
(0 1.45929e-10 0 1.45929e-10 3.12154e-16 0 0 0 0)
(0 1.58912e-10 0 1.58912e-10 3.09042e-16 0 0 0 0)
(0 1.71914e-10 0 1.71914e-10 3.0632e-16 0 0 0 0)
(0 1.84937e-10 0 1.84937e-10 3.0385e-16 0 0 0 0)
(0 2.00569e-10 0 2.00569e-10 3.00871e-16 0 0 0 0)
(0 2.18814e-10 0 2.18814e-10 2.98583e-16 0 0 0 0)
(0 2.35803e-10 0 2.35803e-10 2.94743e-16 0 0 0 0)
(0 2.5542e-10 0 2.5542e-10 2.91025e-16 0 0 0 0)
(0 2.77673e-10 0 2.77673e-10 -5.12722e-15 0 0 0 0)
(0 3.0128e-10 0 3.0128e-10 1.27819e-13 0 0 0 0)
(0 3.26248e-10 0 3.26248e-10 -7.09768e-13 0 0 0 0)
(0 3.52592e-10 0 3.52592e-10 2.70972e-12 0 0 0 0)
(0 3.82915e-10 0 3.82915e-10 -1.14022e-11 0 0 0 0)
(0 4.09489e-10 0 4.09489e-10 4.7686e-11 0 0 0 0)
(0 5.42767e-10 0 5.42767e-10 1.66765e-09 0 0 0 0)
(0 1.1001e-09 0 1.1001e-09 6.13373e-09 0 0 0 0)
(0 1.85156e-09 0 1.85156e-09 1.06802e-08 0 0 0 0)
(0 2.05399e-09 0 2.05399e-09 1.16431e-08 0 0 0 0)
(0 1.7226e-09 0 1.7226e-09 9.46529e-09 0 0 0 0)
(0 1.37829e-09 0 1.37829e-09 6.87416e-09 0 0 0 0)
(0 1.20753e-09 0 1.20753e-09 5.34713e-09 0 0 0 0)
(0 1.17178e-09 0 1.17178e-09 4.8507e-09 0 0 0 0)
(0 1.21988e-09 0 1.21988e-09 5.00049e-09 0 0 0 0)
(0 1.3172e-09 0 1.3172e-09 5.48733e-09 0 0 0 0)
(0 1.4336e-09 0 1.4336e-09 6.0718e-09 0 0 0 0)
(0 1.54452e-09 0 1.54452e-09 6.58443e-09 0 0 0 0)
(0 1.6384e-09 0 1.6384e-09 6.95554e-09 0 0 0 0)
(0 1.71658e-09 0 1.71658e-09 7.20686e-09 0 0 0 0)
(0 1.78653e-09 0 1.78653e-09 7.39945e-09 0 0 0 0)
(0 1.85499e-09 0 1.85499e-09 7.58312e-09 0 0 0 0)
(0 1.92453e-09 0 1.92453e-09 7.77638e-09 0 0 0 0)
(0 1.99459e-09 0 1.99459e-09 7.97351e-09 0 0 0 0)
(0 2.06399e-09 0 2.06399e-09 8.16187e-09 0 0 0 0)
(0 2.13289e-09 0 2.13289e-09 8.33571e-09 0 0 0 0)
(0 2.20318e-09 0 2.20318e-09 8.50021e-09 0 0 0 0)
(0 2.2778e-09 0 2.2778e-09 8.66758e-09 0 0 0 0)
(0 2.35987e-09 0 2.35987e-09 8.85088e-09 0 0 0 0)
(0 2.45179e-09 0 2.45179e-09 9.05955e-09 0 0 0 0)
(0 2.55512e-09 0 2.55512e-09 9.29795e-09 0 0 0 0)
(0 2.6707e-09 0 2.6707e-09 9.56644e-09 0 0 0 0)
(0 2.79897e-09 0 2.79897e-09 9.86316e-09 0 0 0 0)
(0 2.94016e-09 0 2.94016e-09 1.01853e-08 0 0 0 0)
(0 3.09447e-09 0 3.09447e-09 1.05299e-08 0 0 0 0)
(0 3.26223e-09 0 3.26223e-09 1.0894e-08 0 0 0 0)
(0 3.44408e-09 0 3.44408e-09 1.12753e-08 0 0 0 0)
(0 3.6411e-09 0 3.6411e-09 1.16722e-08 0 0 0 0)
(0 3.85497e-09 0 3.85497e-09 1.20842e-08 0 0 0 0)
(0 4.08792e-09 0 4.08792e-09 1.25118e-08 0 0 0 0)
(0 4.34254e-09 0 4.34254e-09 1.29551e-08 0 0 0 0)
(0 4.62144e-09 0 4.62144e-09 1.34133e-08 0 0 0 0)
(0 4.92721e-09 0 4.92721e-09 1.38838e-08 0 0 0 0)
(0 5.26312e-09 0 5.26312e-09 1.43638e-08 0 0 0 0)
(0 5.6353e-09 0 5.6353e-09 1.48558e-08 0 0 0 0)
(0 6.0565e-09 0 6.0565e-09 1.53749e-08 0 0 0 0)
(0 6.55026e-09 0 6.55026e-09 1.59551e-08 0 0 0 0)
(0 7.15164e-09 0 7.15164e-09 1.66454e-08 0 0 0 0)
(0 7.89807e-09 0 7.89807e-09 1.74823e-08 0 0 0 0)
(0 8.80205e-09 0 8.80205e-09 1.84285e-08 0 0 0 0)
(0 9.80512e-09 0 9.80512e-09 1.92938e-08 0 0 0 0)
(0 1.07454e-08 0 1.07454e-08 1.97112e-08 0 0 0 0)
(0 1.14281e-08 0 1.14281e-08 1.92966e-08 0 0 0 0)
(0 1.18621e-08 0 1.18621e-08 1.79974e-08 0 0 0 0)
(0 1.25702e-08 0 1.25702e-08 1.63471e-08 0 0 0 0)
(0 1.49519e-08 0 1.49519e-08 1.53648e-08 0 0 0 0)
(0 2.2839e-08 0 2.2839e-08 1.64265e-08 0 0 0 0)
(0 5.201e-08 0 5.201e-08 2.12743e-08 0 0 0 0)
(0 2.0437e-07 0 2.0437e-07 3.04576e-08 0 0 0 0)
(0 1.45452e-06 0 1.45452e-06 4.11405e-08 0 0 0 0)
(0 1.17475e-05 0 1.17475e-05 5.19435e-08 0 0 0 0)
(0 5.12651e-05 0 5.12651e-05 7.4714e-08 0 0 0 0)
(0 0.000112439 0 0.000112439 1.14183e-07 0 0 0 0)
(0 0.000154716 0 0.000154716 1.45721e-07 0 0 0 0)
(0 0.000168431 0 0.000168431 1.62857e-07 0 0 0 0)
(0 0.000171054 0 0.000171054 1.93988e-07 0 0 0 0)
(0 0.000172257 0 0.000172257 5.64202e-07 0 0 0 0)
(0 0.000173144 0 0.000173144 1.2007e-06 0 0 0 0)
(0 0.000166503 0 0.000166503 1.06909e-06 0 0 0 0)
(0 0.000147992 0 0.000147992 6.32369e-07 0 0 0 0)
(0 0.000123354 0 0.000123354 1.03918e-06 0 0 0 0)
(0 8.52023e-05 0 8.52023e-05 1.47827e-06 0 0 0 0)
(0 4.10352e-05 0 4.10352e-05 1.00365e-06 0 0 0 0)
(0 1.94108e-05 0 1.94108e-05 2.9724e-07 0 0 0 0)
(0 1.77009e-05 0 1.77009e-05 1.63744e-07 0 0 0 0)
(0 2.21074e-05 0 2.21074e-05 2.02929e-07 0 0 0 0)
(0 3.46513e-05 0 3.46513e-05 4.49721e-07 0 0 0 0)
(0 5.43388e-05 0 5.43388e-05 -7.58425e-07 0 0 0 0)
(0 7.45783e-05 0 7.45783e-05 1.65633e-06 0 0 0 0)
(0 8.92307e-05 0 8.92307e-05 -3.89728e-06 0 0 0 0)
(0 9.61056e-05 0 9.61056e-05 -6.58706e-06 0 0 0 0)
(0 9.3781e-05 0 9.3781e-05 3.91331e-07 0 0 0 0)
(0 8.46086e-05 0 8.46086e-05 -4.38782e-07 0 0 0 0)
(0 7.47424e-05 0 7.47424e-05 3.25205e-07 0 0 0 0)
(0 6.49464e-05 0 6.49464e-05 -2.56467e-07 0 0 0 0)
(0 5.54219e-05 0 5.54219e-05 1.78942e-07 0 0 0 0)
(0 4.63488e-05 0 4.63488e-05 -1.30333e-07 0 0 0 0)
(0 3.7941e-05 0 3.7941e-05 7.77079e-08 0 0 0 0)
(0 3.04415e-05 0 3.04415e-05 -5.1634e-08 0 0 0 0)
(0 2.42055e-05 0 2.42055e-05 7.78902e-09 0 0 0 0)
(0 1.92356e-05 0 1.92356e-05 2.31899e-08 0 0 0 0)
(0 1.55709e-05 0 1.55709e-05 -4.10774e-08 0 0 0 0)
(0 1.29027e-05 0 1.29027e-05 4.82901e-08 0 0 0 0)
(0 1.0978e-05 0 1.0978e-05 -6.30301e-08 0 0 0 0)
(0 9.56675e-06 0 9.56675e-06 6.821e-08 0 0 0 0)
(0 8.46487e-06 0 8.46487e-06 -7.67316e-08 0 0 0 0)
(0 7.58986e-06 0 7.58986e-06 7.79065e-08 0 0 0 0)
(0 6.84795e-06 0 6.84795e-06 -8.20831e-08 0 0 0 0)
(0 6.22521e-06 0 6.22521e-06 8.02956e-08 0 0 0 0)
(0 5.66468e-06 0 5.66468e-06 -8.1395e-08 0 0 0 0)
(0 5.18141e-06 0 5.18141e-06 7.80649e-08 0 0 0 0)
(0 4.74511e-06 0 4.74511e-06 -7.73969e-08 0 0 0 0)
(0 4.35284e-06 0 4.35284e-06 7.31456e-08 0 0 0 0)
(0 4.00093e-06 0 4.00093e-06 -7.12776e-08 0 0 0 0)
(0 3.6784e-06 0 3.6784e-06 6.65997e-08 0 0 0 0)
(0 3.38757e-06 0 3.38757e-06 -6.40621e-08 0 0 0 0)
(0 3.11975e-06 0 3.11975e-06 5.93117e-08 0 0 0 0)
(0 2.87732e-06 0 2.87732e-06 -5.65428e-08 0 0 0 0)
(0 2.6521e-06 0 2.6521e-06 5.19804e-08 0 0 0 0)
(0 2.4479e-06 0 2.4479e-06 -4.91004e-08 0 0 0 0)
(0 2.25753e-06 0 2.25753e-06 4.48437e-08 0 0 0 0)
(0 2.08602e-06 0 2.08602e-06 -4.21583e-08 0 0 0 0)
(0 1.924e-06 0 1.924e-06 3.83023e-08 0 0 0 0)
(0 1.77746e-06 0 1.77746e-06 -3.57497e-08 0 0 0 0)
(0 1.6415e-06 0 1.6415e-06 3.22682e-08 0 0 0 0)
(0 1.51577e-06 0 1.51577e-06 -2.99738e-08 0 0 0 0)
(0 1.40031e-06 0 1.40031e-06 2.69497e-08 0 0 0 0)
(0 1.29304e-06 0 1.29304e-06 -2.4928e-08 0 0 0 0)
(0 1.19473e-06 0 1.19473e-06 2.22893e-08 0 0 0 0)
(0 1.1034e-06 0 1.1034e-06 -2.05523e-08 0 0 0 0)
(0 1.01961e-06 0 1.01961e-06 1.83021e-08 0 0 0 0)
(0 9.41366e-07 0 9.41366e-07 -1.67989e-08 0 0 0 0)
(0 8.6982e-07 0 8.6982e-07 1.48925e-08 0 0 0 0)
(0 8.03356e-07 0 8.03356e-07 -1.3652e-08 0 0 0 0)
(0 7.42403e-07 0 7.42403e-07 1.20502e-08 0 0 0 0)
(0 6.85277e-07 0 6.85277e-07 -1.10069e-08 0 0 0 0)
(0 6.33392e-07 0 6.33392e-07 9.6704e-09 0 0 0 0)
(0 5.8488e-07 0 5.8488e-07 -8.81927e-09 0 0 0 0)
(0 5.39526e-07 0 5.39526e-07 7.59139e-09 0 0 0 0)
(-2.03416e-19 4.97502e-07 0 4.97502e-07 -6.81093e-09 0 0 0 0)
(0 4.57699e-07 0 4.57699e-07 5.81557e-09 0 0 0 0)
(0 4.19792e-07 0 4.19792e-07 -5.17438e-09 0 0 0 0)
(1.91516e-19 3.84947e-07 0 3.84947e-07 4.39685e-09 0 0 0 0)
(0 3.52344e-07 0 3.52344e-07 -3.93589e-09 0 0 0 0)
(-1.83972e-19 3.21661e-07 0 3.21661e-07 3.321e-09 0 0 0 0)
(0 2.93184e-07 0 2.93184e-07 -2.94096e-09 0 0 0 0)
(1.76725e-19 2.66582e-07 0 2.66582e-07 2.45863e-09 0 0 0 0)
(0 2.42301e-07 0 2.42301e-07 -2.18895e-09 0 0 0 0)
(0 2.19527e-07 0 2.19527e-07 1.80482e-09 0 0 0 0)
(0 1.98331e-07 0 1.98331e-07 -1.57757e-09 0 0 0 0)
(3.26153e-19 1.79089e-07 0 1.79089e-07 1.27661e-09 0 0 0 0)
(0 1.61338e-07 0 1.61338e-07 -1.11626e-09 0 0 0 0)
(0 1.44862e-07 0 1.44862e-07 8.89288e-10 0 0 0 0)
(0 1.29896e-07 0 1.29896e-07 -7.64857e-10 0 0 0 0)
(0 1.16328e-07 0 1.16328e-07 5.81469e-10 0 0 0 0)
(0 1.03704e-07 0 1.03704e-07 -4.86664e-10 0 0 0 0)
(-2.89108e-19 9.23822e-08 0 9.23822e-08 3.52434e-10 0 0 0 0)
(0 8.20842e-08 0 8.20842e-08 -2.86379e-10 0 0 0 0)
(0 7.27275e-08 0 7.27275e-08 1.85305e-10 0 0 0 0)
(0 6.43225e-08 0 6.43225e-08 -1.4717e-10 0 0 0 0)
(-2.6678e-19 5.66885e-08 0 5.66885e-08 8.43687e-11 0 0 0 0)
(0 4.98765e-08 0 4.98765e-08 -2.67922e-11 0 0 0 0)
(0 4.37272e-08 0 4.37272e-08 -5.03752e-11 0 0 0 0)
(0 3.82817e-08 0 3.82817e-08 5.94609e-11 0 0 0 0)
(0 3.33845e-08 0 3.33845e-08 -8.59802e-11 0 0 0 0)
(0 2.9072e-08 0 2.9072e-08 9.6088e-11 0 0 0 0)
(2.36479e-19 2.51929e-08 0 2.51929e-08 -1.19119e-10 0 0 0 0)
(0 2.18065e-08 0 2.18065e-08 1.2447e-10 0 0 0 0)
(0 1.88037e-08 0 1.88037e-08 -1.39252e-10 0 0 0 0)
(0 1.61871e-08 0 1.61871e-08 1.39496e-10 0 0 0 0)
(0 1.38598e-08 0 1.38598e-08 -1.46522e-10 0 0 0 0)
(0 1.18463e-08 0 1.18463e-08 1.44095e-10 0 0 0 0)
(0 1.01012e-08 0 1.01012e-08 -1.47034e-10 0 0 0 0)
(0 8.57193e-09 0 8.57193e-09 1.42405e-10 0 0 0 0)
(0 7.25139e-09 0 7.25139e-09 -1.41264e-10 0 0 0 0)
(0 6.12368e-09 0 6.12368e-09 1.34929e-10 0 0 0 0)
(0 5.14254e-09 0 5.14254e-09 -1.31565e-10 0 0 0 0)
(0 4.3064e-09 0 4.3064e-09 1.2482e-10 0 0 0 0)
(0 3.59692e-09 0 3.59692e-09 -1.20092e-10 0 0 0 0)
(0 2.98761e-09 0 2.98761e-09 1.12975e-10 0 0 0 0)
(-1.78492e-19 2.47711e-09 0 2.47711e-09 -1.07384e-10 0 0 0 0)
(1.74941e-19 2.04229e-09 0 2.04229e-09 1.00288e-10 0 0 0 0)
(0 1.68055e-09 0 1.68055e-09 -9.44227e-11 0 0 0 0)
(0 1.37444e-09 0 1.37444e-09 8.76647e-11 0 0 0 0)
(-1.64707e-19 1.12072e-09 0 1.12072e-09 -8.17868e-11 0 0 0 0)
(0 9.10752e-10 0 9.10752e-10 7.54354e-11 0 0 0 0)
(0 7.35342e-10 0 7.35342e-10 -6.98068e-11 0 0 0 0)
(-3.10142e-19 5.93427e-10 0 5.93427e-10 6.41753e-11 0 0 0 0)
(0 4.77503e-10 0 4.77503e-10 -5.89162e-11 0 0 0 0)
(0 3.82036e-10 0 3.82036e-10 5.36441e-11 0 0 0 0)
(0 3.02079e-10 0 3.02079e-10 -4.90939e-11 0 0 0 0)
(0 2.38081e-10 0 2.38081e-10 4.45341e-11 0 0 0 0)
(0 1.86604e-10 0 1.86604e-10 -4.04131e-11 0 0 0 0)
(0 1.45625e-10 0 1.45625e-10 3.64668e-11 0 0 0 0)
(0 1.13265e-10 0 1.13265e-10 -3.28951e-11 0 0 0 0)
(0 8.77935e-11 0 8.77935e-11 2.95244e-11 0 0 0 0)
(0 6.77237e-11 0 6.77237e-11 -2.64748e-11 0 0 0 0)
(0 5.19982e-11 0 5.19982e-11 2.3635e-11 0 0 0 0)
(0 3.9693e-11 0 3.9693e-11 -2.10687e-11 0 0 0 0)
(0 3.01449e-11 0 3.01449e-11 1.87052e-11 0 0 0 0)
(0 2.27615e-11 0 2.27615e-11 -1.65766e-11 0 0 0 0)
(0 1.70897e-11 0 1.70897e-11 1.46346e-11 0 0 0 0)
(0 1.27579e-11 0 1.27579e-11 -1.28912e-11 0 0 0 0)
(0 9.46583e-12 0 9.46583e-12 1.13146e-11 0 0 0 0)
(0 6.98275e-12 0 6.98275e-12 -9.90571e-12 0 0 0 0)
(0 5.11757e-12 0 5.11757e-12 8.64118e-12 0 0 0 0)
(0 3.72859e-12 0 3.72859e-12 -7.51643e-12 0 0 0 0)
(0 2.69773e-12 0 2.69773e-12 6.51419e-12 0 0 0 0)
(0 1.94047e-12 0 1.94047e-12 -5.6275e-12 0 0 0 0)
(0 1.38566e-12 0 1.38566e-12 4.84284e-12 0 0 0 0)
(0 9.83075e-13 0 9.83075e-13 -4.15252e-12 0 0 0 0)
(0 6.92189e-13 0 6.92189e-13 3.54579e-12 0 0 0 0)
(0 4.84292e-13 0 4.84292e-13 -3.01521e-12 0 0 0 0)
(0 3.36466e-13 0 3.36466e-13 2.55204e-12 0 0 0 0)
(0 2.31985e-13 0 2.31985e-13 -2.14961e-12 0 0 0 0)
(0 1.58491e-13 0 1.58491e-13 1.80076e-12 0 0 0 0)
(0 1.07413e-13 0 1.07413e-13 -1.49975e-12 0 0 0 0)
(0 7.24365e-14 0 7.24365e-14 1.24072e-12 0 0 0 0)
(0 4.85305e-14 0 4.85305e-14 -1.01892e-12 0 0 0 0)
(0 3.20749e-14 0 3.20749e-14 8.29671e-13 0 0 0 0)
(0 2.11363e-14 0 2.11363e-14 -6.69261e-13 0 0 0 0)
(0 1.38373e-14 0 1.38373e-14 5.33736e-13 0 0 0 0)
(0 8.87225e-15 0 8.87225e-15 -4.19325e-13 0 0 0 0)
(3.00904e-19 5.69717e-15 0 5.69717e-15 3.40098e-13 0 0 0 0)
(0 3.60434e-15 0 3.60434e-15 -2.87376e-13 0 0 0 0)
(0 2.27122e-15 0 2.27122e-15 2.34325e-13 0 0 0 0)
(0 1.37663e-15 0 1.37663e-15 -1.7838e-13 0 0 0 0)
(0 8.05228e-16 0 8.05228e-16 1.16883e-13 0 0 0 0)
(0 5.53943e-16 0 5.53943e-16 -2.37914e-14 0 0 0 0)
(0 3.76686e-16 0 3.76686e-16 -5.02256e-14 0 0 0 0)
(0 1.93844e-16 0 1.93844e-16 6.87414e-14 0 0 0 0)
(0 4.56713e-17 0 4.56713e-17 -7.49814e-14 0 0 0 0)
(0 -1.58836e-17 0 -1.58836e-17 7.65613e-14 0 0 0 0)
(0 7.86378e-17 0 7.86378e-17 -7.56003e-14 0 0 0 0)
(0 9.94476e-17 0 9.94476e-17 7.28089e-14 0 0 0 0)
(0 3.9366e-17 0 3.9366e-17 -6.87632e-14 0 0 0 0)
(0 -4.32175e-17 0 -4.32175e-17 6.37054e-14 0 0 0 0)
(0 -3.86102e-18 0 -3.86102e-18 -5.79453e-14 0 0 0 0)
(0 9.07098e-18 0 9.07098e-18 5.15527e-14 0 0 0 0)
(0 -1.28176e-17 0 -1.28176e-17 -4.46805e-14 0 0 0 0)
(0 4.39425e-17 0 4.39425e-17 3.73962e-14 0 0 0 0)
(0 -2.31584e-17 0 -2.31584e-17 -2.97832e-14 0 0 0 0)
(0 -7.5796e-17 0 -7.5796e-17 2.18758e-14 0 0 0 0)
(0 6.11518e-17 0 6.11518e-17 -1.37108e-14 0 0 0 0)
(0 8.55373e-17 0 8.55373e-17 5.74254e-15 0 0 0 0)
(0 -7.36342e-17 0 -7.36342e-17 -9.91571e-16 0 0 0 0)
(0 -7.82348e-17 0 -7.82348e-17 1.47391e-17 0 0 0 0)
(0 1.56701e-17 0 1.56701e-17 -3.63352e-18 0 0 0 0)
(0 -4.87044e-18 0 -4.87044e-18 -3.38601e-18 0 0 0 0)
(0 -2.85874e-18 0 -2.85874e-18 -2.37401e-18 0 0 0 0)
(0 1.5776e-17 0 1.5776e-17 -2.32726e-18 0 0 0 0)
(0 7.41154e-19 0 7.41154e-19 -3.4424e-18 0 0 0 0)
(0 -2.06464e-18 0 -2.06464e-18 -4.36432e-18 0 0 0 0)
(0 8.68209e-18 0 8.68209e-18 -4.91232e-18 0 0 0 0)
(0 -3.07049e-18 0 -3.07049e-18 -6.09185e-18 0 0 0 0)
(0 -1.03232e-17 0 -1.03232e-17 -7.765e-18 0 0 0 0)
(0 -7.04096e-18 0 -7.04096e-18 -8.56574e-18 0 0 0 0)
(0 2.64698e-18 0 2.64698e-18 -8.66513e-18 0 0 0 0)
(0 1.82112e-17 0 1.82112e-17 -9.86321e-18 0 0 0 0)
(0 -1.95876e-18 0 -1.95876e-18 -1.23345e-17 0 0 0 0)
(0 -8.09975e-18 0 -8.09975e-18 -1.46942e-17 0 0 0 0)
(0 3.97047e-18 0 3.97047e-18 -1.71432e-17 0 0 0 0)
(0 1.05879e-18 0 1.05879e-18 -2.10983e-17 0 0 0 0)
(0 7.04096e-18 0 7.04096e-18 -2.96342e-17 0 0 0 0)
(0 -2.2764e-18 0 -2.2764e-18 -4.46049e-17 0 0 0 0)
(0 -6.88214e-18 0 -6.88214e-18 -6.42398e-17 0 0 0 0)
(0 2.06464e-18 0 2.06464e-18 -8.3209e-17 0 0 0 0)
(0 -1.05879e-19 0 -1.05879e-19 -9.81613e-17 0 0 0 0)
(0 -1.69407e-18 0 -1.69407e-18 -1.07359e-16 0 0 0 0)
(0 -1.37643e-18 0 -1.37643e-18 -1.14033e-16 0 0 0 0)
(0 -7.94093e-19 0 -7.94093e-19 -1.25979e-16 0 0 0 0)
(0 -1.05879e-18 0 -1.05879e-18 -1.39659e-16 0 0 0 0)
(0 6.03511e-18 0 6.03511e-18 -1.45099e-16 0 0 0 0)
(0 4.60574e-18 0 4.60574e-18 -1.44198e-16 0 0 0 0)
(0 -6.61744e-18 0 -6.61744e-18 -1.49932e-16 0 0 0 0)
(0 -1.97465e-17 0 -1.97465e-17 -1.62393e-16 0 0 0 0)
(0 -4.76456e-18 0 -4.76456e-18 -1.75548e-16 0 0 0 0)
(0 -3.60518e-17 0 -3.60518e-17 -1.83871e-16 0 0 0 0)
(0 -5.45277e-18 0 -5.45277e-18 -1.89419e-16 0 0 0 0)
(0 3.72165e-17 0 3.72165e-17 -1.96824e-16 0 0 0 0)
(0 9.52912e-18 0 9.52912e-18 -2.34892e-16 0 0 0 0)
(0 1.25467e-17 0 1.25467e-17 -2.89923e-16 0 0 0 0)
(0 5.29396e-20 0 5.29396e-20 -2.97996e-16 0 0 0 0)
(0 1.85288e-18 0 1.85288e-18 -2.52751e-16 0 0 0 0)
(0 1.11173e-18 0 1.11173e-18 -2.20303e-16 0 0 0 0)
(0 -2.22346e-18 0 -2.22346e-18 -1.99513e-16 0 0 0 0)
(0 -1.33937e-17 0 -1.33937e-17 -1.24616e-16 0 0 0 0)
(0 4.97632e-18 0 4.97632e-18 -2.20406e-17 0 0 0 0)
(0 3.26637e-17 0 3.26637e-17 -2.84602e-17 0 0 0 0)
(0 1.27584e-17 0 1.27584e-17 -1.02061e-16 0 0 0 0)
(0 -2.06994e-17 0 -2.06994e-17 -2.49311e-17 0 0 0 0)
(0 -1.36055e-17 0 -1.36055e-17 1.99778e-16 0 0 0 0)
(0 1.21761e-18 0 1.21761e-18 3.88708e-16 0 0 0 0)
(0 1.37643e-18 0 1.37643e-18 5.06772e-16 0 0 0 0)
(0 5.82335e-19 0 5.82335e-19 6.78094e-16 0 0 0 0)
(0 -1.23879e-17 0 -1.23879e-17 9.6674e-16 0 0 0 0)
(0 -7.88799e-18 0 -7.88799e-18 1.32842e-15 0 0 0 0)
)
;

boundaryField
{
    inandouthalf11
    {
        type            cyclic;
    }
    inandouthalf12
    {
        type            cyclic;
    }
    inandouthalf21
    {
        type            cyclic;
    }
    inandouthalf22
    {
        type            cyclic;
    }
    inandouthalf31
    {
        type            cyclic;
    }
    inandouthalf32
    {
        type            cyclic;
    }
    inandouthalf41
    {
        type            cyclic;
    }
    inandouthalf42
    {
        type            cyclic;
    }
    top
    {
        type            symmetryPlane;
    }
    walls
    {
        type            zeroGradient;
    }
    frontAndBackPlanes
    {
        type            empty;
    }
}


// ************************************************************************* //
