/*--------------------------------*- C++ -*----------------------------------*\
| =========                 |                                                 |
| \\      /  F ield         | OpenFOAM: The Open Source CFD Toolbox           |
|  \\    /   O peration     | Version:  2.4.x                                 |
|   \\  /    A nd           | Web:      www.OpenFOAM.org                      |
|    \\/     M anipulation  |                                                 |
\*---------------------------------------------------------------------------*/
FoamFile
{
    version     2.0;
    format      ascii;
    class       volVectorField;
    location    "1.15";
    object      Ub_0;
}
// * * * * * * * * * * * * * * * * * * * * * * * * * * * * * * * * * * * * * //

dimensions      [0 1 -1 0 0 0 0];

internalField   nonuniform List<vector> 
360
(
(0.000152613 4.69372e-14 0)
(0.000152873 1.41029e-13 0)
(0.000152875 2.35613e-13 0)
(0.000152875 3.30239e-13 0)
(0.000152875 4.24951e-13 0)
(0.000152876 5.19839e-13 0)
(0.000152876 6.14798e-13 0)
(0.000152877 7.09536e-13 0)
(0.000152877 8.04103e-13 0)
(0.000152879 8.98759e-13 0)
(0.00015288 9.93196e-13 0)
(0.00015288 1.08776e-12 0)
(0.000152881 1.18206e-12 0)
(0.000152883 1.27624e-12 0)
(0.000152884 1.37052e-12 0)
(0.000152885 1.46439e-12 0)
(0.000152886 1.55802e-12 0)
(0.000152888 1.65169e-12 0)
(0.000152889 1.74527e-12 0)
(0.000152892 1.83842e-12 0)
(0.000152893 1.9312e-12 0)
(0.000152895 2.02395e-12 0)
(0.000152898 2.11636e-12 0)
(0.000152901 2.20812e-12 0)
(0.000152903 2.29964e-12 0)
(0.000152906 2.39143e-12 0)
(0.000152908 2.4829e-12 0)
(0.000152912 2.57396e-12 0)
(0.000152916 2.66481e-12 0)
(0.00015292 2.7553e-12 0)
(0.000152924 2.84548e-12 0)
(0.000152929 2.93537e-12 0)
(0.000152933 3.02471e-12 0)
(0.000152939 3.11366e-12 0)
(0.000152944 3.20232e-12 0)
(0.000152951 3.29067e-12 0)
(0.000152957 3.37844e-12 0)
(0.000152965 3.46599e-12 0)
(0.000152974 3.55332e-12 0)
(0.000152982 3.63983e-12 0)
(0.000152992 3.72585e-12 0)
(0.000153002 3.81165e-12 0)
(0.000153012 3.89735e-12 0)
(0.000153025 3.98237e-12 0)
(0.000153038 4.06672e-12 0)
(0.000153052 4.15085e-12 0)
(0.000153068 4.2345e-12 0)
(0.000153083 4.31808e-12 0)
(0.000153101 4.40122e-12 0)
(0.000153122 4.48358e-12 0)
(0.000153142 4.56543e-12 0)
(0.000153166 4.64714e-12 0)
(0.00015319 4.72837e-12 0)
(0.000153217 4.80901e-12 0)
(0.000153245 4.88917e-12 0)
(0.000153278 4.96864e-12 0)
(0.000153311 5.0478e-12 0)
(0.000153348 5.12665e-12 0)
(0.000153388 5.20478e-12 0)
(0.000153431 5.28216e-12 0)
(0.000153479 5.35865e-12 0)
(0.000153529 5.43443e-12 0)
(0.000153584 5.50995e-12 0)
(0.000153644 5.58505e-12 0)
(0.000153708 5.65974e-12 0)
(0.000153778 5.73372e-12 0)
(0.000153854 5.80677e-12 0)
(0.000153937 5.87948e-12 0)
(0.000154026 5.9516e-12 0)
(0.000154122 6.02303e-12 0)
(0.000154227 6.09389e-12 0)
(0.000154341 6.16412e-12 0)
(0.000154463 6.23249e-12 0)
(0.000154597 6.30085e-12 0)
(0.000154741 3.73593e-12 0)
(0.000154898 6.91037e-11 0)
(0.000155067 -3.4911e-10 0)
(0.000155251 1.4146e-09 0)
(0.00015545 -6.00805e-09 0)
(0.00015566 2.50822e-08 0)
(0.000155993 8.26344e-07 0)
(0.00015676 3.08943e-06 0)
(0.000157845 6.16512e-06 0)
(0.000158815 8.91144e-06 0)
(0.000159567 1.08984e-05 0)
(0.000160193 1.23485e-05 0)
(0.000160775 1.35714e-05 0)
(0.000161365 1.47732e-05 0)
(0.000161995 1.60714e-05 0)
(0.000162683 1.75172e-05 0)
(0.00016343 1.91085e-05 0)
(0.000164228 2.08114e-05 0)
(0.00016507 2.25888e-05 0)
(0.000165947 2.44175e-05 0)
(0.000166858 2.6291e-05 0)
(0.000167803 2.82111e-05 0)
(0.000168783 3.01806e-05 0)
(0.000169798 3.21988e-05 0)
(0.000170848 3.4262e-05 0)
(0.000171932 3.63667e-05 0)
(0.000173051 3.8512e-05 0)
(0.00017421 4.07003e-05 0)
(0.000175412 4.29373e-05 0)
(0.000176662 4.52302e-05 0)
(0.000177968 4.75868e-05 0)
(0.000179334 5.00143e-05 0)
(0.000180768 5.25195e-05 0)
(0.000182276 5.51083e-05 0)
(0.000183864 5.7786e-05 0)
(0.00018554 6.05571e-05 0)
(0.00018731 6.34255e-05 0)
(0.000189183 6.6395e-05 0)
(0.000191167 6.94694e-05 0)
(0.000193273 7.26526e-05 0)
(0.000195512 7.59486e-05 0)
(0.000197896 7.93608e-05 0)
(0.000200441 8.2892e-05 0)
(0.000203162 8.65444e-05 0)
(0.000206079 9.03216e-05 0)
(0.000209221 9.42336e-05 0)
(0.000212633 9.83012e-05 0)
(0.000216377 0.000102559 0)
(0.000220536 0.000107045 0)
(0.000225184 0.000111776 0)
(0.000230346 0.000116694 0)
(0.000235935 0.000121632 0)
(0.000241778 0.000126342 0)
(0.000247801 0.000130629 0)
(0.000254356 0.000134514 0)
(0.000262772 0.000138313 0)
(0.000277251 0.000142735 0)
(0.000314998 0.000148967 0)
(0.000482906 0.00015799 0)
(0.00178104 0.000169566 0)
(0.0123082 0.000183998 0)
(0.0532446 0.000206998 0)
(0.124948 0.000241183 0)
(0.208044 0.00027992 0)
(0.29339 0.000322681 0)
(0.379087 0.000376933 0)
(0.465636 0.000605622 0)
(0.552213 0.00097824 0)
(0.632077 0.0011395 0)
(0.700108 0.00129424 0)
(0.7553 0.00166059 0)
(0.785103 0.00203332 0)
(0.796169 0.00216059 0)
(0.804471 0.00218111 0)
(0.813863 0.00224249 0)
(0.826565 0.00228258 0)
(0.848484 0.00246695 0)
(0.880877 0.00190541 0)
(0.923041 0.00329294 0)
(0.970095 -3.24252e-05 0)
(1.01915 -9.28463e-06 0)
(1.06388 0.000160246 0)
(1.10376 -0.00022637 0)
(1.13862 0.000320737 0)
(1.16871 -0.000352696 0)
(1.19404 0.000408428 0)
(1.21505 -0.000416134 0)
(1.23198 0.000445972 0)
(1.24549 -0.00044087 0)
(1.25619 0.000448413 0)
(1.26473 -0.000428134 0)
(1.27175 0.00042712 0)
(1.27763 -0.000403214 0)
(1.28273 0.000394935 0)
(1.28719 -0.000368518 0)
(1.2912 0.000356044 0)
(1.29478 -0.000329107 0)
(1.29804 0.000314605 0)
(1.30101 -0.000288618 0)
(1.30371 0.000273612 0)
(1.30619 -0.000249331 0)
(1.30845 0.000234694 0)
(1.31054 -0.000212571 0)
(1.31245 0.000198894 0)
(1.31422 -0.000179135 0)
(1.31584 0.000166747 0)
(1.31734 -0.000149381 0)
(1.31872 0.000138392 0)
(1.31999 -0.000123321 0)
(1.32117 0.000113784 0)
(1.32225 -0.000100852 0)
(1.32325 9.26647e-05 0)
(1.32417 -8.16688e-05 0)
(1.32503 7.47645e-05 0)
(1.32581 -6.5515e-05 0)
(1.32654 5.97621e-05 0)
(1.32722 -5.2029e-05 0)
(1.32784 4.72901e-05 0)
(1.32841 -4.08792e-05 0)
(1.32894 3.70109e-05 0)
(1.32943 -3.17273e-05 0)
(1.32988 2.8612e-05 0)
(1.3303 -2.4283e-05 0)
(1.33069 2.17888e-05 0)
(1.33104 -1.82616e-05 0)
(1.33137 1.62896e-05 0)
(1.33168 -1.34313e-05 0)
(1.33196 1.21418e-05 0)
(1.33223 -1.00435e-05 0)
(1.33248 9.0163e-06 0)
(1.33271 -7.31609e-06 0)
(1.33293 6.5211e-06 0)
(1.33314 -5.14694e-06 0)
(1.33333 4.52061e-06 0)
(1.33351 -3.41786e-06 0)
(1.33367 2.94249e-06 0)
(1.33383 -2.06406e-06 0)
(1.33397 1.69736e-06 0)
(1.3341 -1.00819e-06 0)
(1.33422 7.42836e-07 0)
(1.33433 -2.10916e-07 0)
(1.33443 1.94356e-08 0)
(1.33453 3.87515e-07 0)
(1.33461 -5.16994e-07 0)
(1.33469 8.15472e-07 0)
(1.33476 -8.93525e-07 0)
(1.33483 1.10763e-06 0)
(1.33489 -1.14708e-06 0)
(1.33494 1.29363e-06 0)
(1.33499 -1.3104e-06 0)
(1.33503 1.41158e-06 0)
(1.33507 -1.38401e-06 0)
(1.3351 1.42333e-06 0)
(1.33513 -1.38891e-06 0)
(1.33516 1.4042e-06 0)
(1.33518 -1.35871e-06 0)
(1.3352 1.35105e-06 0)
(1.33522 -1.29755e-06 0)
(1.33524 1.27251e-06 0)
(1.33525 -1.21464e-06 0)
(1.33526 1.17842e-06 0)
(1.33528 -1.11826e-06 0)
(1.33528 1.07425e-06 0)
(1.33529 -1.01384e-06 0)
(1.3353 9.65998e-07 0)
(1.33531 -9.07293e-07 0)
(1.33531 8.58107e-07 0)
(1.33532 -8.01936e-07 0)
(1.33532 7.53254e-07 0)
(1.33532 -7.00564e-07 0)
(1.33533 6.53879e-07 0)
(1.33533 -6.0528e-07 0)
(1.33533 5.61528e-07 0)
(1.33533 -5.17302e-07 0)
(1.33533 4.77164e-07 0)
(1.33533 -4.37514e-07 0)
(1.33533 4.0136e-07 0)
(1.33534 -3.66044e-07 0)
(1.33534 3.34063e-07 0)
(1.33534 -3.03283e-07 0)
(1.33534 2.75142e-07 0)
(1.33534 -2.48534e-07 0)
(1.33534 2.24223e-07 0)
(1.33534 -2.01477e-07 0)
(1.33534 1.80734e-07 0)
(1.33534 -1.61508e-07 0)
(1.33534 1.44025e-07 0)
(1.33534 -1.27955e-07 0)
(1.33534 1.13397e-07 0)
(1.33534 -1.00117e-07 0)
(1.33534 8.81374e-08 0)
(1.33534 -7.72878e-08 0)
(1.33534 6.75493e-08 0)
(1.33534 -5.87896e-08 0)
(1.33534 5.09693e-08 0)
(1.33534 -4.39827e-08 0)
(1.33534 3.77828e-08 0)
(1.33534 -3.2282e-08 0)
(1.33534 2.74326e-08 0)
(1.33534 -2.3161e-08 0)
(1.33534 1.94227e-08 0)
(1.33534 -1.61552e-08 0)
(1.33534 1.33193e-08 0)
(1.33534 -1.08617e-08 0)
(1.33534 8.74906e-09 0)
(1.33534 -6.93617e-09 0)
(1.33534 5.39554e-09 0)
(1.33534 -4.0891e-09 0)
(1.33534 2.9947e-09 0)
(1.33534 -2.08027e-09 0)
(1.33534 1.3281e-09 0)
(1.33534 -7.10694e-10 0)
(1.33534 2.15899e-10 0)
(1.33534 2.27693e-10 0)
(1.33534 -6.09788e-10 0)
(1.33534 9.27858e-10 0)
(1.33534 -1.16681e-09 0)
(1.33534 1.31053e-09 0)
(1.33534 -1.27076e-09 0)
(1.33534 1.19077e-09 0)
(1.33534 -1.09186e-09 0)
(1.33534 9.84369e-10 0)
(1.33534 -8.71489e-10 0)
(1.33534 7.58001e-10 0)
(1.33534 -6.45432e-10 0)
(1.33534 5.37033e-10 0)
(1.33534 -4.33813e-10 0)
(1.33534 3.38256e-10 0)
(1.33534 -2.51311e-10 0)
(1.33534 1.75159e-10 0)
(1.33534 -1.10644e-10 0)
(1.33534 5.98455e-11 0)
(1.33534 -2.36064e-11 0)
(1.33534 4.08245e-12 0)
(1.33534 1.37743e-14 0)
(1.33534 8.15906e-14 0)
(1.33534 8.35071e-14 0)
(1.33534 8.5751e-14 0)
(1.33534 8.86006e-14 0)
(1.33534 9.23643e-14 0)
(1.33534 9.67858e-14 0)
(1.33534 1.02012e-13 0)
(1.33534 1.07714e-13 0)
(1.33534 1.14065e-13 0)
(1.33534 1.21528e-13 0)
(1.33534 1.31152e-13 0)
(1.33534 1.42433e-13 0)
(1.33534 1.55212e-13 0)
(1.33534 1.70337e-13 0)
(1.33534 1.88524e-13 0)
(1.33534 2.10053e-13 0)
(1.33534 2.36531e-13 0)
(1.33534 2.75627e-13 0)
(1.33534 3.63466e-13 0)
(1.33534 4.98295e-13 0)
(1.33534 6.83669e-13 0)
(1.33534 9.21575e-13 0)
(1.33534 1.17874e-12 0)
(1.33534 1.44359e-12 0)
(1.33534 1.71519e-12 0)
(1.33534 1.9982e-12 0)
(1.33534 2.28891e-12 0)
(1.33534 2.59004e-12 0)
(1.33534 2.89423e-12 0)
(1.33534 3.19733e-12 0)
(1.33534 3.49154e-12 0)
(1.33534 3.79631e-12 0)
(1.33534 4.08722e-12 0)
(1.33534 4.3533e-12 0)
(1.33534 4.61831e-12 0)
(1.33534 5.02953e-12 0)
(1.33534 5.53516e-12 0)
(1.33534 5.97474e-12 0)
(1.33534 6.26503e-12 0)
(1.33534 6.52317e-12 0)
(1.33534 6.67756e-12 0)
(1.33534 6.6053e-12 0)
(1.33534 6.34979e-12 0)
(1.33534 6.24749e-12 0)
(1.33534 6.19832e-12 0)
(1.33534 5.8483e-12 0)
(1.33534 5.08327e-12 0)
(1.33534 4.07382e-12 0)
(1.33534 2.91804e-12 0)
(1.33534 1.54563e-12 0)
(1.33534 4.49005e-13 0)
)
;

boundaryField
{
    inandouthalf11
    {
        type            cyclic;
    }
    inandouthalf12
    {
        type            cyclic;
    }
    inandouthalf21
    {
        type            cyclic;
    }
    inandouthalf22
    {
        type            cyclic;
    }
    inandouthalf31
    {
        type            cyclic;
    }
    inandouthalf32
    {
        type            cyclic;
    }
    inandouthalf41
    {
        type            cyclic;
    }
    inandouthalf42
    {
        type            cyclic;
    }
    top
    {
        type            symmetryPlane;
    }
    walls
    {
        type            fixedValue;
        value           uniform (0 0 0);
    }
    frontAndBackPlanes
    {
        type            empty;
    }
}


// ************************************************************************* //
