/*--------------------------------*- C++ -*----------------------------------*\
| =========                 |                                                 |
| \\      /  F ield         | OpenFOAM: The Open Source CFD Toolbox           |
|  \\    /   O peration     | Version:  2.4.x                                 |
|   \\  /    A nd           | Web:      www.OpenFOAM.org                      |
|    \\/     M anipulation  |                                                 |
\*---------------------------------------------------------------------------*/
FoamFile
{
    version     2.0;
    format      ascii;
    class       volScalarField;
    location    "3.65";
    object      alpha_0;
}
// * * * * * * * * * * * * * * * * * * * * * * * * * * * * * * * * * * * * * //

dimensions      [0 0 0 0 0 0 0];

internalField   nonuniform List<scalar> 
360
(
0.610274
0.610708
0.610868
0.610848
0.610803
0.610768
0.610734
0.610702
0.610675
0.610647
0.610618
0.610587
0.610556
0.610526
0.610496
0.610466
0.610437
0.610407
0.610376
0.610342
0.610305
0.610263
0.610214
0.610161
0.610109
0.610065
0.610035
0.610018
0.610009
0.610004
0.610001
0.609997
0.609995
0.60999
0.609987
0.609982
0.609978
0.609972
0.609966
0.609961
0.609953
0.609946
0.609939
0.60993
0.609921
0.609912
0.609901
0.609891
0.609879
0.609865
0.609852
0.609837
0.609821
0.609804
0.609786
0.609766
0.609746
0.609724
0.609701
0.609678
0.609652
0.609627
0.609599
0.609572
0.609543
0.609515
0.609485
0.609454
0.609422
0.609389
0.609354
0.609318
0.609281
0.609243
0.609204
0.609163
0.609123
0.609081
0.609038
0.608995
0.60895
0.608904
0.608857
0.608808
0.608759
0.608708
0.608656
0.608603
0.608549
0.608493
0.608437
0.608379
0.60832
0.60826
0.608198
0.608135
0.60807
0.608004
0.607936
0.607866
0.607795
0.607723
0.607648
0.607572
0.607494
0.607414
0.607332
0.607247
0.607161
0.607072
0.606981
0.606887
0.606791
0.606692
0.60659
0.606485
0.606378
0.606266
0.606152
0.606034
0.605912
0.605786
0.605656
0.605522
0.605384
0.60524
0.605092
0.604938
0.604778
0.604612
0.604439
0.604259
0.604071
0.603874
0.603664
0.603442
0.603208
0.602961
0.602688
0.602374
0.602034
0.60171
0.601327
0.600829
0.60022
0.599209
0.5963
0.596307
0.586712
0.307034
0.183938
0.132115
0.095741
0.0675083
0.0459833
0.0303098
0.0194204
0.0121678
0.00751495
0.00465786
0.00300653
0.00208673
0.00155333
0.00121703
0.000988903
0.000825008
0.000701839
0.000605925
0.00052909
0.000466116
0.000413534
0.000368949
0.000330656
0.000297406
0.000268252
0.000242463
0.00021945
0.000198727
0.000179879
0.00016254
0.00014638
0.0001311
0.000116437
0.000102186
8.82453e-05
7.46824e-05
6.18e-05
5.01399e-05
4.0334e-05
3.2781e-05
2.73331e-05
2.33273e-05
2.0049e-05
1.71845e-05
1.47701e-05
1.28154e-05
1.11784e-05
9.74685e-06
8.51081e-06
7.47293e-06
6.60664e-06
5.83745e-06
5.10732e-06
4.45984e-06
3.95181e-06
3.51395e-06
3.05314e-06
2.62739e-06
2.32782e-06
2.05895e-06
1.76287e-06
1.52621e-06
1.34502e-06
1.15486e-06
9.90049e-07
8.70865e-07
7.46348e-07
6.2263e-07
5.41711e-07
4.721e-07
3.88513e-07
3.28439e-07
2.80584e-07
2.31034e-07
1.95662e-07
1.62837e-07
1.3036e-07
1.10519e-07
9.06925e-08
7.03648e-08
5.88957e-08
4.55904e-08
3.54228e-08
3.13613e-08
2.92677e-08
2.73292e-08
2.29369e-08
1.33293e-08
2.81251e-09
3.59964e-11
3.28762e-14
4.40854e-15
4.0414e-15
3.28831e-15
2.11386e-15
1.48133e-15
1.23414e-15
1.12004e-15
1.03871e-15
9.16868e-16
7.1217e-16
4.49216e-16
3.01036e-16
2.46169e-16
2.19478e-16
1.98197e-16
1.6378e-16
1.10239e-16
6.64451e-17
5.06021e-17
4.34661e-17
3.87696e-17
3.188e-17
2.08098e-17
1.07333e-17
6.89683e-18
5.13729e-18
3.83927e-18
1.93153e-18
6.36167e-19
2.60116e-19
1.23321e-19
6.23754e-20
3.22551e-20
1.68478e-20
8.7565e-21
4.47102e-21
2.24745e-21
1.11747e-21
5.45039e-22
2.60147e-22
1.21271e-22
5.51151e-23
2.43793e-23
1.04781e-23
4.36834e-24
1.76343e-24
6.88031e-25
2.58951e-25
9.38162e-26
3.26439e-26
1.08822e-26
3.46604e-27
1.05157e-27
3.02876e-28
8.24995e-29
2.11597e-29
5.08478e-30
1.13819e-30
2.35706e-31
4.47899e-32
7.73228e-33
1.19768e-33
1.63807e-34
1.93649e-35
1.92043e-36
1.52718e-37
9.02494e-39
3.38582e-40
4.59665e-42
1.34043e-44
2.40976e-46
2.14872e-48
3.127e-59
2.30149e-70
1.28792e-81
5.20139e-93
1.89845e-104
5.89493e-116
2.49916e-127
2.4037e-135
5.47662e-146
8.27489e-154
1.79647e-164
2.84663e-172
7.70267e-183
9.79003e-191
3.48385e-201
3.36944e-209
2.39291e-219
1.16932e-227
1.60348e-237
4.11166e-246
8.12729e-256
1.46471e-264
3.85233e-274
5.28679e-283
1.70043e-292
1.93562e-301
7.2817e-311
7.59613e-318
6.21041e-321
6.08689e-321
8.5424e-321
0
0
0
0
0
0
0
0
0
0
0
0
0
0
0
0
)
;

boundaryField
{
    inandouthalf11
    {
        type            cyclic;
    }
    inandouthalf12
    {
        type            cyclic;
    }
    inandouthalf21
    {
        type            cyclic;
    }
    inandouthalf22
    {
        type            cyclic;
    }
    inandouthalf31
    {
        type            cyclic;
    }
    inandouthalf32
    {
        type            cyclic;
    }
    inandouthalf41
    {
        type            cyclic;
    }
    inandouthalf42
    {
        type            cyclic;
    }
    top
    {
        type            symmetryPlane;
    }
    walls
    {
        type            zeroGradient;
    }
    frontAndBackPlanes
    {
        type            empty;
    }
}


// ************************************************************************* //
