/*--------------------------------*- C++ -*----------------------------------*\
| =========                 |                                                 |
| \\      /  F ield         | OpenFOAM: The Open Source CFD Toolbox           |
|  \\    /   O peration     | Version:  2.4.x                                 |
|   \\  /    A nd           | Web:      www.OpenFOAM.org                      |
|    \\/     M anipulation  |                                                 |
\*---------------------------------------------------------------------------*/
FoamFile
{
    version     2.0;
    format      ascii;
    class       volScalarField;
    location    "3.65";
    object      ddt0(k);
}
// * * * * * * * * * * * * * * * * * * * * * * * * * * * * * * * * * * * * * //

dimensions      [0 2 -3 0 0 0 0];

internalField   nonuniform List<scalar> 
360
(
0
0
0
0
0
0
0
0
0
0
0
0
0
0
0
0
0
0
0
0
0
0
0
0
0
0
0
0
0
0
0
0
0
0
0
0
0
0
0
0
0
0
0
0
0
0
0
0
0
0
0
0
0
0
0
0
0
0
0
0
0
0
0
0
0
0
0
0
0
0
0
0
0
0
0
0
0
0
0
0
0
0
0
0
0
0
0
0
0
0
0
0
0
0
0
0
0
0
0
0
0
0
0
0
0
0
0
0
0
0
0
0
0
0
0
0
0
0
0
0
0
0
0
0
0
0
0
0
7.40158e-166
-7.02563e-20
-2.56576e-19
-8.11688e-19
-2.32075e-18
-6.0003e-18
-1.39853e-17
-2.91148e-17
-5.31376e-17
-8.20282e-17
-9.41483e-17
3.78536e-17
1.665e-15
2.94836e-14
5.85208e-13
1.33838e-11
3.57936e-10
1.13494e-08
4.3227e-07
1.96449e-05
0.000922993
0.0126645
0.0107076
0.010281
0.0106291
0.0111951
0.0116584
0.0118328
0.0115301
0.010587
0.00897794
0.00691445
0.00477513
0.00288682
0.00138752
0.000260919
-0.000572248
-0.00119477
-0.0016715
-0.00204758
-0.00235295
-0.0026071
-0.00282272
-0.00300813
-0.00316883
-0.00330856
-0.00342988
-0.0035346
-0.00362405
-0.00369923
-0.00376091
-0.00380974
-0.00384625
-0.00387093
-0.0038842
-0.00388647
-0.00387813
-0.00385954
-0.00383108
-0.00379311
-0.00374599
-0.00369006
-0.00362558
-0.00355279
-0.00347194
-0.00338326
-0.00328704
-0.00318354
-0.00307301
-0.00295572
-0.00283192
-0.00270186
-0.00256579
-0.00242254
-0.00227059
-0.00210984
-0.00194017
-0.00176151
-0.0015738
-0.00137704
-0.00117127
-0.000956584
-0.000733146
-0.000501215
-0.000261153
-1.3453e-05
0.000241225
0.000502016
0.000767799
0.00103713
0.00130813
0.00157839
0.00184478
0.00210316
0.00234807
0.00257206
0.00276471
0.00291104
0.00298895
0.00296409
0.00275731
0.00205778
0.000406021
1.09418e-05
1.40894e-07
1.69012e-09
1.92761e-11
2.09049e-13
2.15633e-15
2.11529e-17
1.88115e-19
0
0
0
0
0
0
0
0
0
0
0
0
0
0
0
0
0
0
0
0
0
0
0
0
0
0
0
0
0
0
0
0
0
0
0
0
0
0
0
0
0
0
0
0
0
0
0
0
0
0
0
0
0
0
0
0
0
0
0
0
0
0
0
0
0
0
0
0
0
0
0
0
0
0
0
0
0
0
0
0
0
0
0
0
0
0
0
0
0
0
0
0
0
0
0
0
0
0
0
0
0
0
0
0
0
0
0
0
0
0
0
0
0
0
0
0
0
0
0
0
0
)
;

boundaryField
{
    inandouthalf11
    {
        type            cyclic;
    }
    inandouthalf12
    {
        type            cyclic;
    }
    inandouthalf21
    {
        type            cyclic;
    }
    inandouthalf22
    {
        type            cyclic;
    }
    inandouthalf31
    {
        type            cyclic;
    }
    inandouthalf32
    {
        type            cyclic;
    }
    inandouthalf41
    {
        type            cyclic;
    }
    inandouthalf42
    {
        type            cyclic;
    }
    top
    {
        type            symmetryPlane;
    }
    walls
    {
        type            calculated;
        value           uniform 0;
    }
    frontAndBackPlanes
    {
        type            empty;
    }
}


// ************************************************************************* //
