/*--------------------------------*- C++ -*----------------------------------*\
| =========                 |                                                 |
| \\      /  F ield         | OpenFOAM: The Open Source CFD Toolbox           |
|  \\    /   O peration     | Version:  2.4.x                                 |
|   \\  /    A nd           | Web:      www.OpenFOAM.org                      |
|    \\/     M anipulation  |                                                 |
\*---------------------------------------------------------------------------*/
FoamFile
{
    version     2.0;
    format      ascii;
    class       surfaceScalarField;
    location    "3.65";
    object      ddt0(phia);
}
// * * * * * * * * * * * * * * * * * * * * * * * * * * * * * * * * * * * * * //

dimensions      [0 3 -2 0 0 0 0];

internalField   nonuniform List<scalar> 
359
(
-5.21261e-14
1.71891e-13
6.12591e-13
1.04361e-12
1.42336e-12
1.81372e-12
2.27702e-12
2.82663e-12
3.42517e-12
4.01979e-12
4.57015e-12
5.06079e-12
5.50785e-12
5.96329e-12
6.52375e-12
7.33552e-12
8.59612e-12
1.05539e-11
1.34988e-11
1.77162e-11
2.32879e-11
2.96366e-11
3.48116e-11
3.55101e-11
2.94073e-11
1.84962e-11
8.09489e-12
1.64739e-12
-1.20545e-12
-2.20572e-12
-2.51826e-12
-2.61095e-12
-2.63174e-12
-2.62417e-12
-2.6012e-12
-2.5676e-12
-2.52681e-12
-2.48272e-12
-2.43916e-12
-2.39899e-12
-2.36319e-12
-2.33139e-12
-2.30235e-12
-2.27465e-12
-2.24715e-12
-2.21906e-12
-2.18993e-12
-2.15956e-12
-2.1279e-12
-2.09497e-12
-2.06092e-12
-2.02585e-12
-1.98987e-12
-1.95299e-12
-1.91525e-12
-1.87653e-12
-1.8368e-12
-1.79592e-12
-1.75385e-12
-1.71056e-12
-1.666e-12
-1.62028e-12
-1.57348e-12
-1.52577e-12
-1.47728e-12
-1.4281e-12
-1.3782e-12
-1.32746e-12
-1.27569e-12
-1.22262e-12
-1.16792e-12
-1.11128e-12
-1.05256e-12
-9.91576e-13
-9.2835e-13
-8.62948e-13
-7.95597e-13
-7.26504e-13
-6.55854e-13
-5.83767e-13
-5.10302e-13
-4.35407e-13
-3.58982e-13
-2.80909e-13
-2.0108e-13
-1.19442e-13
-3.5995e-14
4.91833e-14
1.35973e-13
2.24238e-13
3.13843e-13
4.04676e-13
4.96663e-13
5.8976e-13
6.83942e-13
7.79192e-13
8.7549e-13
9.72803e-13
1.07108e-12
1.17027e-12
1.2703e-12
1.37108e-12
1.47253e-12
1.57456e-12
1.67706e-12
1.77993e-12
1.88308e-12
1.9864e-12
2.08981e-12
2.19325e-12
2.29666e-12
2.40005e-12
2.50344e-12
2.6069e-12
2.71057e-12
2.81463e-12
2.91932e-12
3.02492e-12
3.13179e-12
3.24028e-12
3.35076e-12
3.46356e-12
3.57893e-12
3.69698e-12
3.81766e-12
3.94067e-12
4.0655e-12
4.19138e-12
4.31731e-12
4.44206e-12
4.56426e-12
4.68253e-12
4.79583e-12
4.90359e-12
5.00557e-12
5.10138e-12
5.19027e-12
5.27147e-12
5.34429e-12
5.40705e-12
5.45567e-12
5.48527e-12
5.50038e-12
5.50702e-12
5.50984e-12
5.50999e-12
-6.22501e-11
3.04845e-10
1.43659e-08
1.36387e-08
2.72235e-09
-3.18011e-09
-4.93182e-09
-3.20342e-09
2.15688e-09
1.22671e-08
2.96112e-08
5.76804e-08
9.71557e-08
1.35525e-07
1.56692e-07
1.6259e-07
1.63863e-07
1.61949e-07
1.59067e-07
1.55943e-07
1.52846e-07
1.49857e-07
1.46994e-07
1.44258e-07
1.41647e-07
1.39159e-07
1.36795e-07
1.34554e-07
1.32431e-07
1.30419e-07
1.28501e-07
1.26658e-07
1.2486e-07
1.23074e-07
1.21259e-07
1.19372e-07
1.17369e-07
1.15217e-07
1.12903e-07
1.10451e-07
1.07938e-07
1.05491e-07
1.03264e-07
1.01368e-07
9.97774e-08
9.83447e-08
9.6941e-08
9.55703e-08
9.43059e-08
9.31634e-08
9.21053e-08
9.1118e-08
9.02136e-08
8.94008e-08
8.86657e-08
8.79481e-08
8.72324e-08
8.65874e-08
8.60468e-08
8.55056e-08
8.48955e-08
8.43666e-08
8.398e-08
8.3537e-08
8.30502e-08
8.2702e-08
8.23858e-08
8.20044e-08
8.17359e-08
8.15506e-08
8.12439e-08
8.09781e-08
8.09217e-08
8.07805e-08
8.05295e-08
8.04394e-08
8.03206e-08
8.01417e-08
8.00352e-08
7.97748e-08
7.9417e-08
7.90994e-08
7.85102e-08
7.76049e-08
7.65785e-08
7.54021e-08
7.45563e-08
7.4247e-08
7.43121e-08
7.45201e-08
7.45609e-08
7.38605e-08
3.695e-08
-3.03707e-10
-3.03661e-10
-3.03554e-10
-3.03575e-10
-3.03554e-10
-3.03544e-10
-3.03538e-10
-3.03531e-10
-3.03526e-10
-3.03521e-10
-3.03517e-10
-3.03515e-10
-3.03512e-10
-3.03512e-10
-3.03508e-10
-3.03509e-10
-3.03506e-10
-3.03508e-10
-3.03504e-10
-3.03507e-10
-3.03504e-10
-3.03507e-10
-3.03503e-10
-3.03507e-10
-3.03503e-10
-3.03507e-10
-3.03502e-10
-3.03507e-10
-3.03503e-10
-3.03506e-10
-3.03504e-10
-3.03507e-10
-3.03503e-10
-3.03507e-10
-3.03503e-10
-3.03507e-10
-3.03503e-10
-3.03507e-10
-3.03503e-10
-3.03507e-10
-3.03504e-10
-3.03507e-10
-3.03504e-10
-3.03507e-10
-3.03504e-10
-3.03506e-10
-3.03504e-10
-3.03506e-10
-3.03505e-10
-3.03506e-10
-3.03505e-10
-3.03505e-10
-3.03505e-10
-3.03505e-10
-3.03506e-10
-3.03505e-10
-3.03506e-10
-3.03504e-10
-3.03507e-10
-3.03504e-10
-3.03507e-10
-3.03504e-10
-3.03508e-10
-3.03503e-10
-3.03508e-10
-3.03503e-10
-3.03509e-10
-3.03503e-10
-3.03509e-10
-3.03502e-10
-3.0351e-10
-3.03502e-10
-3.0351e-10
-3.03502e-10
-3.03511e-10
-3.03501e-10
-3.03511e-10
-3.03501e-10
-3.03511e-10
-3.03501e-10
-3.03511e-10
-3.03501e-10
-3.03511e-10
-3.03501e-10
-3.03511e-10
-3.03502e-10
-3.03509e-10
-3.03504e-10
-3.03504e-10
-3.03506e-10
-3.03509e-10
-3.03507e-10
-3.0351e-10
-3.03508e-10
-3.03511e-10
-3.03508e-10
-3.03511e-10
-3.03509e-10
-3.03511e-10
-3.03509e-10
-3.0351e-10
-3.03507e-10
-3.03508e-10
-3.03505e-10
-3.03504e-10
-3.03501e-10
-3.03501e-10
-3.03497e-10
-3.03495e-10
-3.03491e-10
-3.03488e-10
-3.03483e-10
-3.03479e-10
-3.0347e-10
-3.03464e-10
-3.03456e-10
-3.03462e-10
-3.03616e-10
-3.07253e-10
-4.71908e-10
)
;

boundaryField
{
    inandouthalf11
    {
        type            cyclic;
        value           nonuniform List<scalar> 
100
(
3.31289e-41
-6.27739e-15
-3.93737e-14
-7.74434e-14
-1.10642e-13
-1.41201e-13
-1.73697e-13
-2.10696e-13
-2.51266e-13
-2.92169e-13
-3.30143e-13
-3.63299e-13
-3.91635e-13
-4.17357e-13
-4.45305e-13
-4.83305e-13
-5.42235e-13
-6.35876e-13
-7.80589e-13
-9.93804e-13
-1.2876e-12
-1.6497e-12
-2.00457e-12
-2.17717e-12
-1.95808e-12
-1.3316e-12
-5.93853e-13
-6.77213e-14
1.87105e-13
2.811e-13
3.11242e-13
3.20449e-13
3.22858e-13
3.22664e-13
3.21064e-13
3.18401e-13
3.14854e-13
3.10676e-13
3.06216e-13
3.01815e-13
2.97688e-13
2.93887e-13
2.90344e-13
2.86926e-13
2.83502e-13
2.79967e-13
2.76246e-13
2.723e-13
2.68105e-13
2.63653e-13
2.58948e-13
2.54001e-13
2.48822e-13
2.43416e-13
2.37783e-13
2.31914e-13
2.25795e-13
2.19411e-13
2.12748e-13
2.05796e-13
1.98548e-13
1.91006e-13
1.83183e-13
1.75101e-13
1.66784e-13
1.5825e-13
1.49504e-13
1.40531e-13
1.31304e-13
1.21779e-13
1.11898e-13
1.01602e-13
9.0844e-14
7.95889e-14
6.78182e-14
5.55349e-14
4.27636e-14
2.95418e-14
1.5906e-14
1.88387e-15
-1.2509e-14
-2.72735e-14
-4.24258e-14
-5.79903e-14
-7.39919e-14
-9.04497e-14
-1.07372e-13
-1.24754e-13
-1.42578e-13
-1.6082e-13
-1.79454e-13
-1.98456e-13
-2.17808e-13
-2.37499e-13
-2.57524e-13
-2.7788e-13
-2.98564e-13
-3.19574e-13
-3.40903e-13
-3.62541e-13
)
;
    }
    inandouthalf12
    {
        type            cyclic;
        value           nonuniform List<scalar> 
100
(
-3.31289e-41
6.27739e-15
3.93737e-14
7.74434e-14
1.10642e-13
1.41201e-13
1.73697e-13
2.10696e-13
2.51266e-13
2.92169e-13
3.30143e-13
3.63299e-13
3.91635e-13
4.17357e-13
4.45305e-13
4.83305e-13
5.42235e-13
6.35876e-13
7.80589e-13
9.93804e-13
1.2876e-12
1.6497e-12
2.00457e-12
2.17717e-12
1.95808e-12
1.3316e-12
5.93853e-13
6.77213e-14
-1.87105e-13
-2.811e-13
-3.11242e-13
-3.20449e-13
-3.22858e-13
-3.22664e-13
-3.21064e-13
-3.18401e-13
-3.14854e-13
-3.10676e-13
-3.06216e-13
-3.01815e-13
-2.97688e-13
-2.93887e-13
-2.90344e-13
-2.86926e-13
-2.83502e-13
-2.79967e-13
-2.76246e-13
-2.723e-13
-2.68105e-13
-2.63653e-13
-2.58948e-13
-2.54001e-13
-2.48822e-13
-2.43416e-13
-2.37783e-13
-2.31914e-13
-2.25795e-13
-2.19411e-13
-2.12748e-13
-2.05796e-13
-1.98548e-13
-1.91006e-13
-1.83183e-13
-1.75101e-13
-1.66784e-13
-1.5825e-13
-1.49504e-13
-1.40531e-13
-1.31304e-13
-1.21779e-13
-1.11898e-13
-1.01602e-13
-9.0844e-14
-7.95889e-14
-6.78182e-14
-5.55349e-14
-4.27636e-14
-2.95418e-14
-1.5906e-14
-1.88387e-15
1.2509e-14
2.72735e-14
4.24258e-14
5.79903e-14
7.39919e-14
9.04497e-14
1.07372e-13
1.24754e-13
1.42578e-13
1.6082e-13
1.79454e-13
1.98456e-13
2.17808e-13
2.37499e-13
2.57524e-13
2.7788e-13
2.98564e-13
3.19574e-13
3.40903e-13
3.62541e-13
)
;
    }
    inandouthalf21
    {
        type            cyclic;
        value           nonuniform List<scalar> 
100
(
-3.84476e-13
-4.06695e-13
-4.2918e-13
-4.51916e-13
-4.74882e-13
-4.9806e-13
-5.21429e-13
-5.44969e-13
-5.68664e-13
-5.92498e-13
-6.16462e-13
-6.40555e-13
-6.64784e-13
-6.89166e-13
-7.13733e-13
-7.38531e-13
-7.63622e-13
-7.89086e-13
-8.15016e-13
-8.41522e-13
-8.68725e-13
-8.96747e-13
-9.25707e-13
-9.55705e-13
-9.86814e-13
-1.01906e-12
-1.05242e-12
-1.08681e-12
-1.12208e-12
-1.15802e-12
-1.19432e-12
-1.23069e-12
-1.26682e-12
-1.30253e-12
-1.33775e-12
-1.3724e-12
-1.40636e-12
-1.43942e-12
-1.47132e-12
-1.50136e-12
-1.52761e-12
-1.54732e-12
-1.55952e-12
-1.56576e-12
-1.56844e-12
-1.56973e-12
-1.57066e-12
4.04125e-11
7.04209e-10
2.90098e-07
2.41505e-07
1.92622e-07
1.76968e-07
1.84205e-07
2.08864e-07
2.47665e-07
2.97076e-07
3.51848e-07
4.05198e-07
4.51202e-07
4.87758e-07
5.16502e-07
5.39824e-07
5.59343e-07
5.7607e-07
5.90673e-07
6.03617e-07
6.15231e-07
6.25757e-07
6.35373e-07
6.44217e-07
6.52393e-07
6.59984e-07
6.67054e-07
6.73657e-07
6.79834e-07
6.85622e-07
6.91049e-07
6.96141e-07
7.00918e-07
7.05399e-07
7.09602e-07
7.13541e-07
7.1723e-07
7.20679e-07
7.239e-07
7.26901e-07
7.29699e-07
7.32321e-07
7.34817e-07
7.37234e-07
7.39585e-07
7.41847e-07
7.44004e-07
7.46073e-07
7.48076e-07
7.50011e-07
7.51865e-07
7.53648e-07
7.55378e-07
)
;
    }
    inandouthalf22
    {
        type            cyclic;
        value           nonuniform List<scalar> 
100
(
3.84476e-13
4.06695e-13
4.2918e-13
4.51916e-13
4.74882e-13
4.9806e-13
5.21429e-13
5.44969e-13
5.68664e-13
5.92498e-13
6.16462e-13
6.40555e-13
6.64784e-13
6.89166e-13
7.13733e-13
7.38531e-13
7.63622e-13
7.89086e-13
8.15016e-13
8.41522e-13
8.68725e-13
8.96747e-13
9.25707e-13
9.55705e-13
9.86814e-13
1.01906e-12
1.05242e-12
1.08681e-12
1.12208e-12
1.15802e-12
1.19432e-12
1.23069e-12
1.26682e-12
1.30253e-12
1.33775e-12
1.3724e-12
1.40636e-12
1.43942e-12
1.47132e-12
1.50136e-12
1.52761e-12
1.54732e-12
1.55952e-12
1.56576e-12
1.56844e-12
1.56973e-12
1.57066e-12
-4.04125e-11
-7.04209e-10
-2.90098e-07
-2.41505e-07
-1.92622e-07
-1.76968e-07
-1.84205e-07
-2.08864e-07
-2.47665e-07
-2.97076e-07
-3.51848e-07
-4.05198e-07
-4.51202e-07
-4.87758e-07
-5.16502e-07
-5.39824e-07
-5.59343e-07
-5.7607e-07
-5.90673e-07
-6.03617e-07
-6.15231e-07
-6.25757e-07
-6.35373e-07
-6.44217e-07
-6.52393e-07
-6.59984e-07
-6.67054e-07
-6.73657e-07
-6.79834e-07
-6.85622e-07
-6.91049e-07
-6.96141e-07
-7.00918e-07
-7.05399e-07
-7.09602e-07
-7.13541e-07
-7.1723e-07
-7.20679e-07
-7.239e-07
-7.26901e-07
-7.29699e-07
-7.32321e-07
-7.34817e-07
-7.37234e-07
-7.39585e-07
-7.41847e-07
-7.44004e-07
-7.46073e-07
-7.48076e-07
-7.50011e-07
-7.51865e-07
-7.53648e-07
-7.55378e-07
)
;
    }
    inandouthalf31
    {
        type            cyclic;
        value           nonuniform List<scalar> 
110
(
7.57061e-07
7.74083e-07
7.91426e-07
8.09134e-07
8.2727e-07
8.45789e-07
8.64615e-07
8.83829e-07
9.03553e-07
9.237e-07
9.44182e-07
9.6514e-07
9.86618e-07
1.0085e-06
1.03088e-06
1.05382e-06
1.07716e-06
1.10093e-06
1.12541e-06
1.15043e-06
1.17574e-06
1.20164e-06
1.22816e-06
1.25513e-06
1.28267e-06
1.31063e-06
1.33895e-06
1.36795e-06
1.39727e-06
1.42667e-06
1.45663e-06
1.48668e-06
1.51773e-06
1.55118e-06
1.58638e-06
1.62253e-06
1.65871e-06
1.69359e-06
1.72762e-06
1.83061e-06
1.86777e-06
1.90567e-06
1.94436e-06
1.98382e-06
2.02409e-06
2.06517e-06
2.10709e-06
2.14986e-06
2.19349e-06
2.23801e-06
2.28344e-06
2.32979e-06
2.37708e-06
2.42532e-06
2.47455e-06
2.52478e-06
2.57602e-06
2.62831e-06
2.68166e-06
2.73609e-06
2.79162e-06
2.84829e-06
2.9061e-06
2.96509e-06
3.02527e-06
3.08667e-06
3.14932e-06
3.21325e-06
3.27847e-06
3.34501e-06
3.41291e-06
3.48218e-06
3.55286e-06
3.62497e-06
3.69855e-06
3.77362e-06
3.85021e-06
3.92836e-06
4.0081e-06
4.08945e-06
4.17246e-06
4.25715e-06
4.34356e-06
4.43172e-06
4.52167e-06
4.61345e-06
4.70709e-06
4.80263e-06
4.90011e-06
4.99957e-06
5.10105e-06
5.20459e-06
5.31023e-06
5.41801e-06
5.52798e-06
5.64018e-06
5.75466e-06
5.87147e-06
5.99064e-06
6.11224e-06
6.2363e-06
6.36288e-06
6.49203e-06
6.6238e-06
6.75825e-06
6.89542e-06
7.03538e-06
7.17818e-06
7.32388e-06
7.47253e-06
)
;
    }
    inandouthalf32
    {
        type            cyclic;
        value           nonuniform List<scalar> 
110
(
-7.57061e-07
-7.74083e-07
-7.91426e-07
-8.09134e-07
-8.2727e-07
-8.45789e-07
-8.64615e-07
-8.83829e-07
-9.03553e-07
-9.237e-07
-9.44182e-07
-9.6514e-07
-9.86618e-07
-1.0085e-06
-1.03088e-06
-1.05382e-06
-1.07716e-06
-1.10093e-06
-1.12541e-06
-1.15043e-06
-1.17574e-06
-1.20164e-06
-1.22816e-06
-1.25513e-06
-1.28267e-06
-1.31063e-06
-1.33895e-06
-1.36795e-06
-1.39727e-06
-1.42667e-06
-1.45663e-06
-1.48668e-06
-1.51773e-06
-1.55118e-06
-1.58638e-06
-1.62253e-06
-1.65871e-06
-1.69359e-06
-1.72762e-06
-1.83061e-06
-1.86777e-06
-1.90567e-06
-1.94436e-06
-1.98382e-06
-2.02409e-06
-2.06517e-06
-2.10709e-06
-2.14986e-06
-2.19349e-06
-2.23801e-06
-2.28344e-06
-2.32979e-06
-2.37708e-06
-2.42532e-06
-2.47455e-06
-2.52478e-06
-2.57602e-06
-2.62831e-06
-2.68166e-06
-2.73609e-06
-2.79162e-06
-2.84829e-06
-2.9061e-06
-2.96509e-06
-3.02527e-06
-3.08667e-06
-3.14932e-06
-3.21325e-06
-3.27847e-06
-3.34501e-06
-3.41291e-06
-3.48218e-06
-3.55286e-06
-3.62497e-06
-3.69855e-06
-3.77362e-06
-3.85021e-06
-3.92836e-06
-4.0081e-06
-4.08945e-06
-4.17246e-06
-4.25715e-06
-4.34356e-06
-4.43172e-06
-4.52167e-06
-4.61345e-06
-4.70709e-06
-4.80263e-06
-4.90011e-06
-4.99957e-06
-5.10105e-06
-5.20459e-06
-5.31023e-06
-5.41801e-06
-5.52798e-06
-5.64018e-06
-5.75466e-06
-5.87147e-06
-5.99064e-06
-6.11224e-06
-6.2363e-06
-6.36288e-06
-6.49203e-06
-6.6238e-06
-6.75825e-06
-6.89542e-06
-7.03538e-06
-7.17818e-06
-7.32388e-06
-7.47253e-06
)
;
    }
    inandouthalf41
    {
        type            cyclic;
        value           nonuniform List<scalar> 
50
(
6.68868e-06
6.68868e-06
6.68868e-06
6.68868e-06
6.68868e-06
6.68868e-06
6.68868e-06
6.68868e-06
6.68868e-06
6.68868e-06
6.68868e-06
6.68868e-06
6.68868e-06
6.68868e-06
6.68868e-06
6.68868e-06
6.68868e-06
6.68868e-06
6.68868e-06
6.68868e-06
6.68868e-06
6.68868e-06
6.68868e-06
6.68868e-06
6.68868e-06
6.68868e-06
6.68868e-06
6.68868e-06
6.68868e-06
6.68868e-06
6.68868e-06
6.68868e-06
6.68868e-06
6.68868e-06
6.68868e-06
6.68868e-06
6.68868e-06
6.68868e-06
6.68868e-06
6.68868e-06
6.68868e-06
6.68868e-06
6.68868e-06
6.68868e-06
6.68868e-06
6.68868e-06
6.68868e-06
6.68869e-06
6.68889e-06
6.69362e-06
)
;
    }
    inandouthalf42
    {
        type            cyclic;
        value           nonuniform List<scalar> 
50
(
-6.68868e-06
-6.68868e-06
-6.68868e-06
-6.68868e-06
-6.68868e-06
-6.68868e-06
-6.68868e-06
-6.68868e-06
-6.68868e-06
-6.68868e-06
-6.68868e-06
-6.68868e-06
-6.68868e-06
-6.68868e-06
-6.68868e-06
-6.68868e-06
-6.68868e-06
-6.68868e-06
-6.68868e-06
-6.68868e-06
-6.68868e-06
-6.68868e-06
-6.68868e-06
-6.68868e-06
-6.68868e-06
-6.68868e-06
-6.68868e-06
-6.68868e-06
-6.68868e-06
-6.68868e-06
-6.68868e-06
-6.68868e-06
-6.68868e-06
-6.68868e-06
-6.68868e-06
-6.68868e-06
-6.68868e-06
-6.68868e-06
-6.68868e-06
-6.68868e-06
-6.68868e-06
-6.68868e-06
-6.68868e-06
-6.68868e-06
-6.68868e-06
-6.68868e-06
-6.68868e-06
-6.68869e-06
-6.68889e-06
-6.69362e-06
)
;
    }
    top
    {
        type            symmetryPlane;
        value           uniform 0;
    }
    walls
    {
        type            calculated;
        value           uniform 0;
    }
    frontAndBackPlanes
    {
        type            empty;
        value           nonuniform 0();
    }
}


// ************************************************************************* //
