/*--------------------------------*- C++ -*----------------------------------*\
| =========                 |                                                 |
| \\      /  F ield         | OpenFOAM: The Open Source CFD Toolbox           |
|  \\    /   O peration     | Version:  2.4.x                                 |
|   \\  /    A nd           | Web:      www.OpenFOAM.org                      |
|    \\/     M anipulation  |                                                 |
\*---------------------------------------------------------------------------*/
FoamFile
{
    version     2.0;
    format      ascii;
    class       volScalarField;
    location    "3.65";
    object      ddt0(epsilon);
}
// * * * * * * * * * * * * * * * * * * * * * * * * * * * * * * * * * * * * * //

dimensions      [0 2 -4 0 0 0 0];

internalField   nonuniform List<scalar> 
360
(
0
0
0
0
0
0
0
0
0
0
0
0
0
0
0
0
0
0
0
0
0
0
0
0
0
0
0
0
0
0
0
0
0
0
0
0
0
0
0
0
0
0
0
0
0
0
0
0
0
0
0
0
0
0
0
0
0
0
0
0
0
0
0
0
0
0
0
0
0
0
0
0
0
0
0
0
0
0
0
0
0
0
0
0
0
0
0
0
0
0
0
0
0
0
0
0
0
0
0
0
0
0
0
0
0
0
0
0
0
0
0
0
0
0
0
0
0
0
0
0
0
0
0
0
0
0
0
0
0
-5.81544e-20
-2.15943e-19
-6.92769e-19
-2.01374e-18
-5.30906e-18
-1.26443e-17
-2.69429e-17
-5.03791e-17
-7.87279e-17
-7.60017e-17
3.76887e-16
1.00506e-14
2.12199e-13
5.098e-12
1.42437e-10
4.69259e-09
1.84597e-07
8.75891e-06
0.000500574
0.0306191
0.568195
0.290272
0.262077
0.269965
0.28003
0.281942
0.27309
0.251747
0.217765
0.174595
0.129406
0.0896492
0.0592038
0.0379171
0.0236755
0.0142222
0.00784989
0.00343106
0.000260729
-0.00209537
-0.00390606
-0.00534019
-0.00650582
-0.00747351
-0.00829023
-0.00898791
-0.00958864
-0.010108
-0.0105572
-0.0109445
-0.011276
-0.0115564
-0.0117895
-0.0119781
-0.0121247
-0.0122314
-0.0122999
-0.0123319
-0.0123287
-0.0122917
-0.012222
-0.0121209
-0.0119895
-0.0118289
-0.0116402
-0.0114244
-0.0111825
-0.0109158
-0.010625
-0.0103115
-0.00997605
-0.00961987
-0.0092402
-0.00883327
-0.008399
-0.00793738
-0.00744858
-0.00693292
-0.00639093
-0.00582335
-0.00523124
-0.00461597
-0.0039793
-0.00332349
-0.00265133
-0.00196629
-0.00127267
-0.000575704
0.00011816
0.000801047
0.0014633
0.00209306
0.0026757
0.00319305
0.00362229
0.00393435
0.00409142
0.00404425
0.00373131
0.00306192
0.00169559
0.000240922
5.70571e-06
7.34829e-08
8.85333e-10
1.01393e-11
1.10412e-13
1.14353e-15
1.12546e-17
8.8188e-20
0
0
0
0
0
0
0
0
0
0
0
0
0
0
0
0
0
0
0
0
0
0
0
0
0
0
0
0
0
0
0
0
0
0
0
0
0
0
0
0
0
0
0
0
0
0
0
0
0
0
0
0
0
0
0
0
0
0
0
0
0
0
0
0
0
0
0
0
0
0
0
0
0
0
0
0
0
0
0
0
0
0
0
0
0
0
0
0
0
0
0
0
0
0
0
0
0
0
0
0
0
0
0
0
0
0
0
0
0
0
0
0
0
0
0
0
0
0
0
0
0
)
;

boundaryField
{
    inandouthalf11
    {
        type            cyclic;
    }
    inandouthalf12
    {
        type            cyclic;
    }
    inandouthalf21
    {
        type            cyclic;
    }
    inandouthalf22
    {
        type            cyclic;
    }
    inandouthalf31
    {
        type            cyclic;
    }
    inandouthalf32
    {
        type            cyclic;
    }
    inandouthalf41
    {
        type            cyclic;
    }
    inandouthalf42
    {
        type            cyclic;
    }
    top
    {
        type            symmetryPlane;
    }
    walls
    {
        type            calculated;
        value           uniform 0;
    }
    frontAndBackPlanes
    {
        type            empty;
    }
}


// ************************************************************************* //
