/*--------------------------------*- C++ -*----------------------------------*\
| =========                 |                                                 |
| \\      /  F ield         | OpenFOAM: The Open Source CFD Toolbox           |
|  \\    /   O peration     | Version:  2.4.x                                 |
|   \\  /    A nd           | Web:      www.OpenFOAM.org                      |
|    \\/     M anipulation  |                                                 |
\*---------------------------------------------------------------------------*/
FoamFile
{
    version     2.0;
    format      ascii;
    class       volScalarField;
    location    "3.65";
    object      ddt0(((1.5*(alpha+1e-08))*rho),Theta);
}
// * * * * * * * * * * * * * * * * * * * * * * * * * * * * * * * * * * * * * //

dimensions      [1 -1 -3 0 0 0 0];

internalField   nonuniform List<scalar> 
360
(
3.7302e-21
-4.77861e-20
-1.17007e-19
-9.93675e-20
-8.38188e-20
-8.79096e-20
-1.07889e-19
-1.31701e-19
-1.45991e-19
-1.45847e-19
-1.34985e-19
-1.20205e-19
-1.09136e-19
-1.10678e-19
-1.35531e-19
-1.96071e-19
-3.07579e-19
-4.92882e-19
-7.89375e-19
-1.24719e-18
-1.88101e-18
-2.48321e-18
-2.28404e-18
-2.81356e-19
2.59446e-18
3.3449e-18
1.84017e-18
5.25906e-19
8.97639e-20
1.12907e-20
1.3597e-21
1.86459e-22
2.11053e-23
-1.34578e-23
-2.8674e-23
-4.23968e-23
-5.6724e-23
-6.89618e-23
-7.54849e-23
-7.51273e-23
-7.00769e-23
-6.36735e-23
-5.84246e-23
-5.53722e-23
-5.44063e-23
-5.50408e-23
-5.6785e-23
-5.92947e-23
-6.2433e-23
-6.60042e-23
-6.97587e-23
-7.36213e-23
-7.76201e-23
-8.18067e-23
-8.63077e-23
-9.12466e-23
-9.66624e-23
-1.0257e-22
-1.08869e-22
-1.15455e-22
-1.22189e-22
-1.28723e-22
-1.34729e-22
-1.39996e-22
-1.44541e-22
-1.48729e-22
-1.53127e-22
-1.58319e-22
-1.64819e-22
-1.73198e-22
-1.83928e-22
-1.96929e-22
-2.11815e-22
-2.28218e-22
-2.45485e-22
-2.62685e-22
-2.78971e-22
-2.93996e-22
-3.07929e-22
-3.21144e-22
-3.34239e-22
-3.47978e-22
-3.62943e-22
-3.79363e-22
-3.97159e-22
-4.15955e-22
-4.35148e-22
-4.54042e-22
-4.72094e-22
-4.89025e-22
-5.04787e-22
-5.1956e-22
-5.33678e-22
-5.47449e-22
-5.61075e-22
-5.74631e-22
-5.88062e-22
-6.01222e-22
-6.13927e-22
-6.21866e-22
0
0
0
0
0
0
0
0
0
0
0
0
0
0
0
-6.99001e-22
-7.06616e-22
-7.17739e-22
-7.33001e-22
-7.52877e-22
-7.77559e-22
-8.06801e-22
-8.39743e-22
-8.74766e-22
-9.09455e-22
-9.40705e-22
-9.64974e-22
-9.78581e-22
-1.57339e-21
-1.12546e-16
-4.10991e-16
-1.30017e-15
-3.71726e-15
-9.61027e-15
-2.23971e-14
-4.66209e-14
-8.50773e-14
-1.31324e-13
-1.50834e-13
5.877e-14
2.63461e-12
4.65924e-11
9.23208e-10
2.10788e-08
5.67739e-07
2.94991e-05
0.00482193
0.207672
2.54408
6.35518
3.58963
2.35693
1.76046
1.33854
0.986584
0.684973
0.440107
0.261529
0.146309
0.0800106
0.0451166
0.0272173
0.0175011
0.011752
0.00810273
0.00566313
0.00396902
0.00276
0.00188043
0.00123241
0.000751499
0.000393807
0.000128431
-6.69388e-05
-0.000208705
-0.000309147
-0.00037755
-0.000420971
-0.00044476
-0.000452961
-0.000448572
-0.000433797
-0.000410246
-0.000379191
-0.00034188
-0.000299953
-0.000255857
-0.000212992
-0.000175147
-0.000145074
-0.000122968
-0.000106449
-9.26163e-05
-8.02222e-05
-6.95705e-05
-6.08167e-05
-5.33739e-05
-4.67666e-05
-4.09902e-05
-3.60902e-05
-3.19631e-05
-2.82666e-05
-2.47325e-05
-2.15815e-05
-1.9093e-05
-1.69356e-05
-1.46668e-05
-1.25715e-05
-1.10835e-05
-9.74573e-06
-8.28918e-06
-7.12265e-06
-6.22299e-06
-5.29256e-06
-4.49e-06
-3.90279e-06
-3.30196e-06
-2.71737e-06
-2.32778e-06
-1.99401e-06
-1.61257e-06
-1.33693e-06
-1.11771e-06
-9.00196e-07
-7.43444e-07
-6.02516e-07
-4.69969e-07
-3.85775e-07
-3.06386e-07
-2.3098e-07
-1.85613e-07
-1.39047e-07
-1.04254e-07
-8.56449e-08
-7.15483e-08
-5.76047e-08
-4.03286e-08
-1.97116e-08
1.79086e-138
-4.51133e-303
0
0
0
0
0
0
0
0
0
0
0
0
0
0
0
0
0
0
0
0
0
0
0
0
0
0
0
0
0
0
0
0
0
0
0
0
0
0
0
0
0
0
0
0
0
0
0
0
0
0
0
0
0
0
0
0
0
0
0
0
0
0
0
0
0
0
0
0
0
0
0
0
0
0
0
0
0
0
0
0
0
0
0
0
0
0
0
0
0
0
0
0
0
0
0
0
0
0
0
0
0
0
0
0
0
0
0
0
0
0
0
0
0
0
0
0
0
0
0
0
)
;

boundaryField
{
    inandouthalf11
    {
        type            cyclic;
    }
    inandouthalf12
    {
        type            cyclic;
    }
    inandouthalf21
    {
        type            cyclic;
    }
    inandouthalf22
    {
        type            cyclic;
    }
    inandouthalf31
    {
        type            cyclic;
    }
    inandouthalf32
    {
        type            cyclic;
    }
    inandouthalf41
    {
        type            cyclic;
    }
    inandouthalf42
    {
        type            cyclic;
    }
    top
    {
        type            symmetryPlane;
    }
    walls
    {
        type            calculated;
        value           uniform 3.7302e-21;
    }
    frontAndBackPlanes
    {
        type            empty;
    }
}


// ************************************************************************* //
