/*--------------------------------*- C++ -*----------------------------------*\
| =========                 |                                                 |
| \\      /  F ield         | OpenFOAM: The Open Source CFD Toolbox           |
|  \\    /   O peration     | Version:  2.4.x                                 |
|   \\  /    A nd           | Web:      www.OpenFOAM.org                      |
|    \\/     M anipulation  |                                                 |
\*---------------------------------------------------------------------------*/
FoamFile
{
    version     2.0;
    format      ascii;
    class       volScalarField;
    location    "3.65";
    object      p;
}
// * * * * * * * * * * * * * * * * * * * * * * * * * * * * * * * * * * * * * //

dimensions      [1 -1 -2 0 0 0 0];

internalField   nonuniform List<scalar> 
360
(
4895.75
4890.84
4885.93
4881.02
4876.11
4871.2
4866.28
4861.36
4856.44
4851.52
4846.59
4841.66
4836.73
4831.8
4826.87
4821.93
4816.99
4812.05
4807.11
4802.17
4797.22
4792.27
4787.31
4782.36
4777.39
4772.43
4767.46
4762.49
4757.52
4752.55
4747.58
4742.61
4737.64
4732.66
4727.69
4722.72
4717.75
4712.78
4707.81
4702.84
4697.87
4692.9
4687.92
4682.95
4677.98
4673.01
4668.04
4663.07
4658.1
4653.13
4648.16
4643.18
4638.21
4633.24
4628.27
4623.3
4618.33
4613.36
4608.39
4603.41
4598.44
4593.47
4588.5
4583.53
4578.56
4573.59
4568.62
4563.65
4558.67
4553.7
4548.73
4543.76
4538.79
4533.82
4528.85
4523.88
4518.9
4513.93
4508.96
4503.99
4499.02
4494.05
4489.08
4484.11
4479.13
4474.16
4469.19
4464.22
4459.25
4454.28
4449.31
4444.34
4439.36
4434.39
4429.42
4424.45
4419.48
4414.51
4409.54
4404.57
4399.6
4394.62
4389.65
4384.68
4379.71
4374.74
4369.77
4364.8
4359.83
4354.86
4349.88
4344.91
4339.94
4334.97
4330
4325.03
4320.06
4315.09
4310.12
4305.15
4300.18
4295.21
4290.23
4285.26
4280.29
4275.32
4270.35
4265.38
4260.41
4255.44
4250.47
4245.5
4240.53
4235.56
4230.59
4225.62
4220.65
4215.68
4210.71
4205.75
4200.78
4195.81
4190.84
4185.87
4180.9
4175.94
4170.97
4166
4160.98
4153.78
4145.74
4139.79
4134.46
4129.43
4124.59
4119.88
4115.23
4110.59
4105.94
4101.24
4096.48
4091.67
4086.81
4081.93
4077.02
4072.1
4067.18
4062.24
4057.3
4052.36
4047.42
4042.47
4037.53
4032.58
4027.64
4022.69
4017.75
4012.81
4007.87
4002.93
3997.99
3993.05
3988.12
3983.19
3978.26
3973.33
3968.41
3963.48
3958.56
3953.65
3948.73
3943.82
3938.91
3934
3929.1
3924.2
3919.3
3914.4
3909.51
3904.62
3899.73
3894.8
3889.77
3884.64
3879.4
3874.07
3868.63
3863.08
3857.42
3851.65
3845.77
3839.77
3833.65
3827.42
3821.06
3814.57
3807.96
3801.21
3794.33
3787.31
3780.16
3772.86
3765.41
3757.82
3750.07
3742.16
3734.08
3725.84
3717.42
3708.81
3699.98
3690.93
3681.69
3672.27
3662.65
3652.84
3642.83
3632.61
3622.19
3611.56
3600.71
3589.64
3578.35
3566.83
3555.07
3543.08
3530.84
3518.35
3505.61
3492.61
3479.35
3465.82
3452.01
3437.92
3423.55
3408.88
3393.92
3378.66
3363.08
3347.19
3330.97
3314.43
3297.55
3280.33
3262.76
3244.83
3226.54
3207.87
3188.83
3169.4
3149.58
3129.35
3108.72
3087.66
3066.18
3044.26
3021.9
2999.08
2975.8
2952.05
2927.81
2903.09
2877.86
2852.12
2825.86
2799.06
2771.72
2743.82
2715.36
2686.32
2656.7
2626.47
2595.62
2564.15
2532.05
2499.29
2465.86
2431.76
2396.96
2361.46
2325.24
2288.28
2250.57
2212.1
2172.85
2132.8
2091.93
2050.24
2007.7
1964.3
1922.76
1883.52
1844.28
1805.04
1765.8
1726.56
1687.32
1648.08
1608.84
1569.6
1530.36
1491.12
1451.88
1412.64
1373.4
1334.16
1294.92
1255.68
1216.44
1177.2
1137.96
1098.72
1059.48
1020.24
981
941.76
902.52
863.28
824.04
784.8
745.56
706.32
667.08
627.84
588.6
549.36
510.12
470.88
431.64
392.4
353.16
313.92
274.68
235.44
196.2
156.96
117.72
78.48
39.24
-1.1321e-07
)
;

boundaryField
{
    inandouthalf11
    {
        type            cyclic;
    }
    inandouthalf12
    {
        type            cyclic;
    }
    inandouthalf21
    {
        type            cyclic;
    }
    inandouthalf22
    {
        type            cyclic;
    }
    inandouthalf31
    {
        type            cyclic;
    }
    inandouthalf32
    {
        type            cyclic;
    }
    inandouthalf41
    {
        type            cyclic;
    }
    inandouthalf42
    {
        type            cyclic;
    }
    top
    {
        type            symmetryPlane;
    }
    walls
    {
        type            slip;
    }
    frontAndBackPlanes
    {
        type            empty;
    }
}


// ************************************************************************* //
