/*--------------------------------*- C++ -*----------------------------------*\
| =========                 |                                                 |
| \\      /  F ield         | OpenFOAM: The Open Source CFD Toolbox           |
|  \\    /   O peration     | Version:  2.4.x                                 |
|   \\  /    A nd           | Web:      www.OpenFOAM.org                      |
|    \\/     M anipulation  |                                                 |
\*---------------------------------------------------------------------------*/
FoamFile
{
    version     2.0;
    format      ascii;
    class       volScalarField;
    location    "3.65";
    object      pa;
}
// * * * * * * * * * * * * * * * * * * * * * * * * * * * * * * * * * * * * * //

dimensions      [1 -1 -2 0 0 0 0];

internalField   nonuniform List<scalar> 
360
(
2.89342e-16
2.93326e-16
2.93752e-16
2.92976e-16
2.92685e-16
2.9269e-16
2.92789e-16
2.92877e-16
2.929e-16
2.92857e-16
2.9278e-16
2.92691e-16
2.92588e-16
2.92466e-16
2.92337e-16
2.92233e-16
2.92204e-16
2.92315e-16
2.9266e-16
2.93367e-16
2.94607e-16
2.96463e-16
2.98516e-16
2.99296e-16
2.97142e-16
2.92929e-16
2.89604e-16
2.88233e-16
2.87901e-16
2.8784e-16
2.87824e-16
2.87813e-16
2.87805e-16
2.87792e-16
2.87782e-16
2.87769e-16
2.87756e-16
2.87741e-16
2.87723e-16
2.87708e-16
2.87687e-16
2.87667e-16
2.87646e-16
2.87621e-16
2.87596e-16
2.87568e-16
2.87538e-16
2.87508e-16
2.87474e-16
2.87435e-16
2.87397e-16
2.87354e-16
2.87309e-16
2.8726e-16
2.8721e-16
2.87154e-16
2.87096e-16
2.87034e-16
2.86969e-16
2.86902e-16
2.86829e-16
2.86755e-16
2.86678e-16
2.866e-16
2.86519e-16
2.86437e-16
2.86352e-16
2.86264e-16
2.86173e-16
2.86079e-16
2.85981e-16
2.85878e-16
2.85774e-16
2.85665e-16
2.85555e-16
2.8544e-16
2.85325e-16
2.85207e-16
2.85087e-16
2.84963e-16
2.84837e-16
2.84708e-16
2.84574e-16
2.84438e-16
2.84298e-16
2.84155e-16
2.84008e-16
2.83859e-16
2.83707e-16
2.83552e-16
2.83393e-16
2.83231e-16
2.83066e-16
2.82896e-16
2.82723e-16
2.82546e-16
2.82365e-16
2.8218e-16
2.8199e-16
2.81794e-16
0
0
0
0
0
0
0
0
0
0
0
0
0
0
0
2.77975e-16
2.77679e-16
2.77374e-16
2.77061e-16
2.76738e-16
2.76406e-16
2.76063e-16
2.7571e-16
2.75345e-16
2.74969e-16
2.74581e-16
2.7418e-16
2.73764e-16
2.73335e-16
5.7851e-16
1.60908e-15
4.25601e-15
1.04406e-14
2.35612e-14
4.84712e-14
8.95072e-14
1.44123e-13
1.91967e-13
1.98064e-13
3.14011e-13
3.56214e-12
6.13203e-11
1.20807e-09
2.74214e-08
7.29059e-07
2.98473e-05
0.00435582
0.266715
4.13403
3.49394
2.78727
1.93516
1.27516
0.806304
0.492031
0.291347
0.168684
0.0963818
0.0549448
0.0318462
0.0194515
0.0129013
0.00925109
0.00702884
0.00556966
0.004553
0.00381058
0.00324753
0.00280711
0.00245364
0.00216376
0.00192162
0.00171615
0.0015394
0.0013855
0.00125002
0.00112949
0.00102113
0.000922649
0.000832067
0.000747652
0.00066787
0.000591405
0.000517265
0.000444999
0.000375015
0.000308894
0.000249365
0.000199531
0.000161257
0.000133662
0.00011336
9.67877e-05
8.23878e-05
7.03055e-05
6.05473e-05
5.2405e-05
4.53279e-05
3.9252e-05
3.41708e-05
2.99431e-05
2.62133e-05
2.27127e-05
1.9632e-05
1.72102e-05
1.51311e-05
1.29911e-05
1.10408e-05
9.65433e-06
8.42139e-06
7.10556e-06
6.0577e-06
5.25232e-06
4.43263e-06
3.73152e-06
3.21954e-06
2.70308e-06
2.20637e-06
1.8756e-06
1.59444e-06
1.27768e-06
1.04976e-06
8.6964e-07
6.92648e-07
5.65828e-07
4.52722e-07
3.47137e-07
2.80643e-07
2.18433e-07
1.59733e-07
1.25035e-07
8.96158e-08
6.36704e-08
5.06612e-08
4.14655e-08
3.27179e-08
2.17642e-08
8.72367e-09
0
0
0
0
0
0
0
0
0
0
0
0
0
0
0
0
0
0
0
0
0
0
0
0
0
0
0
0
0
0
0
0
0
0
0
0
0
0
0
0
0
0
0
0
0
0
0
0
0
0
0
0
0
0
0
0
0
0
0
0
0
0
0
0
0
0
0
0
0
0
0
0
0
0
0
0
0
0
0
0
0
0
0
0
0
0
0
0
0
0
0
0
0
0
0
0
0
0
0
0
0
0
0
0
0
0
0
0
0
0
0
0
0
0
0
0
0
0
0
0
0
0
)
;

boundaryField
{
    inandouthalf11
    {
        type            cyclic;
    }
    inandouthalf12
    {
        type            cyclic;
    }
    inandouthalf21
    {
        type            cyclic;
    }
    inandouthalf22
    {
        type            cyclic;
    }
    inandouthalf31
    {
        type            cyclic;
    }
    inandouthalf32
    {
        type            cyclic;
    }
    inandouthalf41
    {
        type            cyclic;
    }
    inandouthalf42
    {
        type            cyclic;
    }
    top
    {
        type            symmetryPlane;
    }
    walls
    {
        type            calculated;
        value           uniform 2.89342e-16;
    }
    frontAndBackPlanes
    {
        type            empty;
    }
}


// ************************************************************************* //
