/*--------------------------------*- C++ -*----------------------------------*\
| =========                 |                                                 |
| \\      /  F ield         | OpenFOAM: The Open Source CFD Toolbox           |
|  \\    /   O peration     | Version:  2.4.x                                 |
|   \\  /    A nd           | Web:      www.OpenFOAM.org                      |
|    \\/     M anipulation  |                                                 |
\*---------------------------------------------------------------------------*/
FoamFile
{
    version     2.0;
    format      ascii;
    class       surfaceScalarField;
    location    "3.65";
    object      phib;
}
// * * * * * * * * * * * * * * * * * * * * * * * * * * * * * * * * * * * * * //

dimensions      [0 3 -1 0 0 0 0];

internalField   nonuniform List<scalar> 
359
(
1.14591e-12
3.48978e-12
5.83269e-12
7.95949e-12
1.00063e-11
1.20877e-11
1.42454e-11
1.6471e-11
1.87325e-11
2.10067e-11
2.32844e-11
2.55613e-11
2.78338e-11
3.00942e-11
3.23389e-11
3.45764e-11
3.68335e-11
3.91599e-11
4.16312e-11
4.43527e-11
4.74443e-11
5.10109e-11
5.50374e-11
5.92483e-11
6.30711e-11
6.5911e-11
6.75761e-11
6.83484e-11
6.86464e-11
6.87526e-11
6.87927e-11
6.8811e-11
6.88216e-11
6.88297e-11
6.88374e-11
6.88457e-11
6.88553e-11
6.88663e-11
6.88788e-11
6.88923e-11
6.8906e-11
6.892e-11
6.89336e-11
6.89466e-11
6.89593e-11
6.89716e-11
6.89836e-11
6.89955e-11
6.9007e-11
6.90187e-11
6.90305e-11
6.90424e-11
6.90544e-11
6.90667e-11
6.90791e-11
6.90917e-11
6.91046e-11
6.91177e-11
6.91311e-11
6.91448e-11
6.91588e-11
6.91731e-11
6.91876e-11
6.92023e-11
6.92171e-11
6.9232e-11
6.92469e-11
6.92619e-11
6.9277e-11
6.92923e-11
6.93079e-11
6.9324e-11
6.93409e-11
6.93584e-11
6.93767e-11
6.93958e-11
6.94156e-11
6.94359e-11
6.94567e-11
6.94779e-11
6.94994e-11
6.95212e-11
6.95434e-11
6.9566e-11
6.9589e-11
6.96126e-11
6.96367e-11
6.96613e-11
6.96863e-11
6.97116e-11
6.97372e-11
6.9763e-11
6.97889e-11
6.98149e-11
6.9841e-11
6.9867e-11
6.98932e-11
6.99192e-11
6.99453e-11
6.99712e-11
6.9997e-11
7.00226e-11
7.00478e-11
7.00728e-11
7.00973e-11
7.01213e-11
7.01448e-11
7.01677e-11
7.01898e-11
7.02112e-11
7.02317e-11
7.02513e-11
7.02701e-11
7.02878e-11
7.03046e-11
7.03205e-11
7.03355e-11
7.03495e-11
7.03628e-11
7.03752e-11
7.0387e-11
7.0398e-11
7.04082e-11
7.04177e-11
7.04261e-11
7.04333e-11
7.04389e-11
7.04424e-11
7.04433e-11
7.04408e-11
7.04346e-11
7.04238e-11
7.04078e-11
7.03858e-11
7.03575e-11
7.0323e-11
7.02819e-11
7.02317e-11
7.01686e-11
7.00918e-11
7.00089e-11
6.99139e-11
6.97893e-11
6.96299e-11
6.93957e-11
6.88298e-11
6.93148e-11
6.36934e-11
-3.63992e-10
-1.5326e-09
-1.52394e-09
-1.36099e-09
-1.13274e-09
-8.84519e-10
-6.49918e-10
-4.49392e-10
-2.90988e-10
-1.73882e-10
-9.30928e-11
-4.27168e-11
-1.52096e-11
-1.40031e-12
5.54828e-12
9.06887e-12
1.07668e-11
1.14452e-11
1.15328e-11
1.12714e-11
1.08036e-11
1.02169e-11
9.56659e-12
8.88833e-12
8.20539e-12
7.53293e-12
6.88062e-12
6.25437e-12
5.65743e-12
5.09116e-12
4.55562e-12
4.04998e-12
3.57288e-12
3.12282e-12
2.69859e-12
2.29991e-12
1.92825e-12
1.58777e-12
1.28573e-12
1.03116e-12
8.30774e-13
6.83279e-13
5.77009e-13
4.95329e-13
4.2637e-13
3.67032e-13
3.17854e-13
2.77314e-13
2.42548e-13
2.12229e-13
1.86321e-13
1.64577e-13
1.45929e-13
1.28676e-13
1.12783e-13
9.94472e-14
8.8517e-14
7.80779e-14
6.77441e-14
5.93052e-14
5.26916e-14
4.60743e-14
3.98233e-14
3.49315e-14
3.0566e-14
2.63754e-14
2.30306e-14
2.01498e-14
1.7186e-14
1.47468e-14
1.29619e-14
1.11145e-14
9.36789e-15
8.06043e-15
6.86643e-15
5.81619e-15
4.96884e-15
4.13878e-15
3.46849e-15
2.95867e-15
2.42236e-15
1.99047e-15
1.64956e-15
1.31311e-15
1.1108e-15
1.03208e-15
9.82747e-16
8.88478e-16
6.54299e-16
3.05741e-16
1.55482e-16
1.98307e-17
1.65703e-17
1.6183e-17
1.57573e-17
1.53588e-17
1.49167e-17
1.44993e-17
1.40428e-17
1.36012e-17
1.31299e-17
1.26805e-17
1.22015e-17
1.17325e-17
1.12274e-17
1.07366e-17
1.02139e-17
9.70711e-18
9.17918e-18
8.66528e-18
8.13708e-18
7.62442e-18
7.11288e-18
6.62696e-18
6.15964e-18
5.73772e-18
5.36231e-18
5.03486e-18
4.76914e-18
4.50712e-18
4.26938e-18
4.05137e-18
3.847e-18
3.65789e-18
3.4895e-18
3.33254e-18
3.18091e-18
3.02848e-18
2.88309e-18
2.73397e-18
2.58726e-18
2.44337e-18
2.31695e-18
2.19416e-18
2.07434e-18
1.94876e-18
1.82691e-18
1.69788e-18
1.6168e-18
1.47975e-18
1.34895e-18
1.21343e-18
1.07652e-18
9.34564e-19
7.94364e-19
6.55383e-19
5.23659e-19
4.26399e-19
2.575e-19
2.10799e-19
1.75014e-19
1.59055e-19
1.31714e-19
1.07926e-19
8.45643e-20
6.3774e-20
4.16452e-20
2.3367e-20
5.41059e-21
-9.18915e-21
-2.7651e-20
-4.09678e-20
-5.28196e-20
-6.22462e-20
-8.03217e-20
-9.50662e-20
-1.10182e-19
-1.19177e-19
-1.33082e-19
-1.40262e-19
-1.48209e-19
-1.52751e-19
-1.6908e-19
-1.80135e-19
-1.92911e-19
-1.99789e-19
-2.16781e-19
-2.34172e-19
-2.6985e-19
-3.94613e-19
-5.48221e-19
-7.77728e-19
-1.02338e-18
-1.2355e-18
-1.49313e-18
-1.68107e-18
-1.87342e-18
-1.98958e-18
-2.26247e-18
-2.42061e-18
-2.57892e-18
-2.56847e-18
-2.70094e-18
-2.61562e-18
-2.54588e-18
-2.30337e-18
-2.48602e-18
-2.40943e-18
-2.33475e-18
-1.85883e-18
-1.63638e-18
-9.75602e-19
-2.77599e-19
6.35493e-19
1.78223e-18
3.00353e-18
4.28497e-18
5.14098e-18
7.55437e-18
7.67868e-18
6.71127e-18
)
;

boundaryField
{
    inandouthalf11
    {
        type            cyclic;
        value           nonuniform List<scalar> 
100
(
1.77033e-10
1.76762e-10
1.76628e-10
1.76752e-10
1.76905e-10
1.77046e-10
1.77185e-10
1.77325e-10
1.77461e-10
1.77598e-10
1.77737e-10
1.77878e-10
1.7802e-10
1.7816e-10
1.78298e-10
1.78435e-10
1.78572e-10
1.78711e-10
1.78856e-10
1.79012e-10
1.79186e-10
1.79385e-10
1.79612e-10
1.79859e-10
1.80101e-10
1.80299e-10
1.80429e-10
1.80498e-10
1.80528e-10
1.80542e-10
1.80549e-10
1.80556e-10
1.8056e-10
1.80567e-10
1.80573e-10
1.8058e-10
1.80588e-10
1.80596e-10
1.80606e-10
1.80615e-10
1.80627e-10
1.80639e-10
1.8065e-10
1.80665e-10
1.80679e-10
1.80695e-10
1.80712e-10
1.80728e-10
1.80747e-10
1.80769e-10
1.8079e-10
1.80814e-10
1.80839e-10
1.80866e-10
1.80894e-10
1.80925e-10
1.80957e-10
1.80992e-10
1.81028e-10
1.81065e-10
1.81105e-10
1.81146e-10
1.81189e-10
1.81233e-10
1.81278e-10
1.81323e-10
1.81371e-10
1.8142e-10
1.8147e-10
1.81522e-10
1.81577e-10
1.81635e-10
1.81693e-10
1.81753e-10
1.81815e-10
1.8188e-10
1.81944e-10
1.82011e-10
1.82079e-10
1.82149e-10
1.8222e-10
1.82293e-10
1.82369e-10
1.82446e-10
1.82526e-10
1.82607e-10
1.8269e-10
1.82775e-10
1.82862e-10
1.82951e-10
1.83041e-10
1.83134e-10
1.83229e-10
1.83326e-10
1.83426e-10
1.83527e-10
1.83632e-10
1.83738e-10
1.83847e-10
1.83959e-10
)
;
    }
    inandouthalf12
    {
        type            cyclic;
        value           nonuniform List<scalar> 
100
(
-1.77033e-10
-1.76762e-10
-1.76628e-10
-1.76752e-10
-1.76905e-10
-1.77046e-10
-1.77185e-10
-1.77325e-10
-1.77461e-10
-1.77598e-10
-1.77737e-10
-1.77878e-10
-1.7802e-10
-1.7816e-10
-1.78298e-10
-1.78435e-10
-1.78572e-10
-1.78711e-10
-1.78856e-10
-1.79012e-10
-1.79186e-10
-1.79385e-10
-1.79612e-10
-1.79859e-10
-1.80101e-10
-1.80299e-10
-1.80429e-10
-1.80498e-10
-1.80528e-10
-1.80542e-10
-1.80549e-10
-1.80556e-10
-1.8056e-10
-1.80567e-10
-1.80573e-10
-1.8058e-10
-1.80588e-10
-1.80596e-10
-1.80606e-10
-1.80615e-10
-1.80627e-10
-1.80639e-10
-1.8065e-10
-1.80665e-10
-1.80679e-10
-1.80695e-10
-1.80712e-10
-1.80728e-10
-1.80747e-10
-1.80769e-10
-1.8079e-10
-1.80814e-10
-1.80839e-10
-1.80866e-10
-1.80894e-10
-1.80925e-10
-1.80957e-10
-1.80992e-10
-1.81028e-10
-1.81065e-10
-1.81105e-10
-1.81146e-10
-1.81189e-10
-1.81233e-10
-1.81278e-10
-1.81323e-10
-1.81371e-10
-1.8142e-10
-1.8147e-10
-1.81522e-10
-1.81577e-10
-1.81635e-10
-1.81693e-10
-1.81753e-10
-1.81815e-10
-1.8188e-10
-1.81944e-10
-1.82011e-10
-1.82079e-10
-1.82149e-10
-1.8222e-10
-1.82293e-10
-1.82369e-10
-1.82446e-10
-1.82526e-10
-1.82607e-10
-1.8269e-10
-1.82775e-10
-1.82862e-10
-1.82951e-10
-1.83041e-10
-1.83134e-10
-1.83229e-10
-1.83326e-10
-1.83426e-10
-1.83527e-10
-1.83632e-10
-1.83738e-10
-1.83847e-10
-1.83959e-10
)
;
    }
    inandouthalf21
    {
        type            cyclic;
        value           nonuniform List<scalar> 
100
(
1.84073e-10
1.8419e-10
1.8431e-10
1.84432e-10
1.84558e-10
1.84687e-10
1.84819e-10
1.84954e-10
1.85093e-10
1.85235e-10
1.85382e-10
1.85532e-10
1.85686e-10
1.85845e-10
1.86008e-10
1.86176e-10
1.86349e-10
1.86527e-10
1.86711e-10
1.869e-10
1.87096e-10
1.87297e-10
1.87506e-10
1.87721e-10
1.87944e-10
1.88175e-10
1.88414e-10
1.88662e-10
1.8892e-10
1.89188e-10
1.89466e-10
1.89756e-10
1.90058e-10
1.90376e-10
1.90714e-10
1.91071e-10
1.91445e-10
1.91842e-10
1.9228e-10
1.92783e-10
1.93329e-10
1.93847e-10
1.9446e-10
1.95257e-10
1.96234e-10
1.97868e-10
2.02625e-10
2.03358e-10
5.59846e-10
8.6071e-08
2.16939e-07
3.08918e-07
3.80625e-07
4.3849e-07
4.8606e-07
5.25476e-07
5.58054e-07
5.8459e-07
6.05612e-07
6.21632e-07
6.33333e-07
6.41567e-07
6.47202e-07
6.50967e-07
6.53407e-07
6.54898e-07
6.55694e-07
6.55965e-07
6.55827e-07
6.55359e-07
6.54619e-07
6.53648e-07
6.52477e-07
6.51131e-07
6.49629e-07
6.47987e-07
6.46218e-07
6.44334e-07
6.42344e-07
6.40258e-07
6.38082e-07
6.35824e-07
6.3349e-07
6.31086e-07
6.28618e-07
6.26089e-07
6.23505e-07
6.2087e-07
6.18188e-07
6.15463e-07
6.12697e-07
6.09896e-07
6.0706e-07
6.04194e-07
6.01301e-07
5.98382e-07
5.9544e-07
5.92477e-07
5.89497e-07
5.865e-07
)
;
    }
    inandouthalf22
    {
        type            cyclic;
        value           nonuniform List<scalar> 
100
(
-1.84073e-10
-1.8419e-10
-1.8431e-10
-1.84432e-10
-1.84558e-10
-1.84687e-10
-1.84819e-10
-1.84954e-10
-1.85093e-10
-1.85235e-10
-1.85382e-10
-1.85532e-10
-1.85686e-10
-1.85845e-10
-1.86008e-10
-1.86176e-10
-1.86349e-10
-1.86527e-10
-1.86711e-10
-1.869e-10
-1.87096e-10
-1.87297e-10
-1.87506e-10
-1.87721e-10
-1.87944e-10
-1.88175e-10
-1.88414e-10
-1.88662e-10
-1.8892e-10
-1.89188e-10
-1.89466e-10
-1.89756e-10
-1.90058e-10
-1.90376e-10
-1.90714e-10
-1.91071e-10
-1.91445e-10
-1.91842e-10
-1.9228e-10
-1.92783e-10
-1.93329e-10
-1.93847e-10
-1.9446e-10
-1.95257e-10
-1.96234e-10
-1.97868e-10
-2.02625e-10
-2.03358e-10
-5.59846e-10
-8.6071e-08
-2.16939e-07
-3.08918e-07
-3.80625e-07
-4.3849e-07
-4.8606e-07
-5.25476e-07
-5.58054e-07
-5.8459e-07
-6.05612e-07
-6.21632e-07
-6.33333e-07
-6.41567e-07
-6.47202e-07
-6.50967e-07
-6.53407e-07
-6.54898e-07
-6.55694e-07
-6.55965e-07
-6.55827e-07
-6.55359e-07
-6.54619e-07
-6.53648e-07
-6.52477e-07
-6.51131e-07
-6.49629e-07
-6.47987e-07
-6.46218e-07
-6.44334e-07
-6.42344e-07
-6.40258e-07
-6.38082e-07
-6.35824e-07
-6.3349e-07
-6.31086e-07
-6.28618e-07
-6.26089e-07
-6.23505e-07
-6.2087e-07
-6.18188e-07
-6.15463e-07
-6.12697e-07
-6.09896e-07
-6.0706e-07
-6.04194e-07
-6.01301e-07
-5.98382e-07
-5.9544e-07
-5.92477e-07
-5.89497e-07
-5.865e-07
)
;
    }
    inandouthalf31
    {
        type            cyclic;
        value           nonuniform List<scalar> 
110
(
5.83491e-07
5.92218e-07
6.00984e-07
6.09784e-07
6.18616e-07
6.27475e-07
6.36357e-07
6.45261e-07
6.54182e-07
6.63117e-07
6.72064e-07
6.81019e-07
6.89983e-07
6.98953e-07
7.07929e-07
7.16912e-07
7.25905e-07
7.34912e-07
7.43939e-07
7.52997e-07
7.62098e-07
7.71262e-07
7.80514e-07
7.89887e-07
7.99429e-07
8.09204e-07
8.19304e-07
8.29865e-07
8.41108e-07
8.53395e-07
8.68402e-07
8.85734e-07
9.03669e-07
9.21978e-07
9.40662e-07
9.59729e-07
9.79186e-07
9.99041e-07
1.0193e-06
1.03997e-06
1.06107e-06
1.0826e-06
1.10456e-06
1.12697e-06
1.14984e-06
1.17317e-06
1.19698e-06
1.22127e-06
1.24605e-06
1.27134e-06
1.29714e-06
1.32347e-06
1.35033e-06
1.37774e-06
1.4057e-06
1.43423e-06
1.46334e-06
1.49304e-06
1.52334e-06
1.55426e-06
1.58581e-06
1.618e-06
1.65084e-06
1.68435e-06
1.71853e-06
1.75342e-06
1.78901e-06
1.82532e-06
1.86237e-06
1.90017e-06
1.93874e-06
1.97809e-06
2.01824e-06
2.0592e-06
2.101e-06
2.14364e-06
2.18715e-06
2.23155e-06
2.27684e-06
2.32305e-06
2.37021e-06
2.41832e-06
2.4674e-06
2.51748e-06
2.56858e-06
2.62072e-06
2.67391e-06
2.72818e-06
2.78356e-06
2.84006e-06
2.8977e-06
2.95652e-06
3.01653e-06
3.07775e-06
3.14023e-06
3.20396e-06
3.269e-06
3.33535e-06
3.40305e-06
3.47212e-06
3.54259e-06
3.6145e-06
3.68786e-06
3.76272e-06
3.83909e-06
3.91701e-06
3.99652e-06
4.07764e-06
4.1604e-06
4.24485e-06
)
;
    }
    inandouthalf32
    {
        type            cyclic;
        value           nonuniform List<scalar> 
110
(
-5.83491e-07
-5.92218e-07
-6.00984e-07
-6.09784e-07
-6.18616e-07
-6.27475e-07
-6.36357e-07
-6.45261e-07
-6.54182e-07
-6.63117e-07
-6.72064e-07
-6.81019e-07
-6.89983e-07
-6.98953e-07
-7.07929e-07
-7.16912e-07
-7.25905e-07
-7.34912e-07
-7.43939e-07
-7.52997e-07
-7.62098e-07
-7.71262e-07
-7.80514e-07
-7.89887e-07
-7.99429e-07
-8.09204e-07
-8.19304e-07
-8.29865e-07
-8.41108e-07
-8.53395e-07
-8.68402e-07
-8.85734e-07
-9.03669e-07
-9.21978e-07
-9.40662e-07
-9.59729e-07
-9.79186e-07
-9.99041e-07
-1.0193e-06
-1.03997e-06
-1.06107e-06
-1.0826e-06
-1.10456e-06
-1.12697e-06
-1.14984e-06
-1.17317e-06
-1.19698e-06
-1.22127e-06
-1.24605e-06
-1.27134e-06
-1.29714e-06
-1.32347e-06
-1.35033e-06
-1.37774e-06
-1.4057e-06
-1.43423e-06
-1.46334e-06
-1.49304e-06
-1.52334e-06
-1.55426e-06
-1.58581e-06
-1.618e-06
-1.65084e-06
-1.68435e-06
-1.71853e-06
-1.75342e-06
-1.78901e-06
-1.82532e-06
-1.86237e-06
-1.90017e-06
-1.93874e-06
-1.97809e-06
-2.01824e-06
-2.0592e-06
-2.101e-06
-2.14364e-06
-2.18715e-06
-2.23155e-06
-2.27684e-06
-2.32305e-06
-2.37021e-06
-2.41832e-06
-2.4674e-06
-2.51748e-06
-2.56858e-06
-2.62072e-06
-2.67391e-06
-2.72818e-06
-2.78356e-06
-2.84006e-06
-2.8977e-06
-2.95652e-06
-3.01653e-06
-3.07775e-06
-3.14023e-06
-3.20396e-06
-3.269e-06
-3.33535e-06
-3.40305e-06
-3.47212e-06
-3.54259e-06
-3.6145e-06
-3.68786e-06
-3.76272e-06
-3.83909e-06
-3.91701e-06
-3.99652e-06
-4.07764e-06
-4.1604e-06
-4.24485e-06
)
;
    }
    inandouthalf41
    {
        type            cyclic;
        value           nonuniform List<scalar> 
50
(
3.79957e-06
3.79957e-06
3.79957e-06
3.79957e-06
3.79957e-06
3.79957e-06
3.79957e-06
3.79957e-06
3.79957e-06
3.79957e-06
3.79957e-06
3.79957e-06
3.79957e-06
3.79957e-06
3.79957e-06
3.79957e-06
3.79957e-06
3.79957e-06
3.79957e-06
3.79957e-06
3.79957e-06
3.79957e-06
3.79957e-06
3.79957e-06
3.79957e-06
3.79957e-06
3.79957e-06
3.79957e-06
3.79957e-06
3.79957e-06
3.79957e-06
3.79957e-06
3.79957e-06
3.79957e-06
3.79957e-06
3.79957e-06
3.79957e-06
3.79957e-06
3.79957e-06
3.79957e-06
3.79957e-06
3.79957e-06
3.79957e-06
3.79957e-06
3.79957e-06
3.79957e-06
3.79957e-06
3.79957e-06
3.79957e-06
3.79957e-06
)
;
    }
    inandouthalf42
    {
        type            cyclic;
        value           nonuniform List<scalar> 
50
(
-3.79957e-06
-3.79957e-06
-3.79957e-06
-3.79957e-06
-3.79957e-06
-3.79957e-06
-3.79957e-06
-3.79957e-06
-3.79957e-06
-3.79957e-06
-3.79957e-06
-3.79957e-06
-3.79957e-06
-3.79957e-06
-3.79957e-06
-3.79957e-06
-3.79957e-06
-3.79957e-06
-3.79957e-06
-3.79957e-06
-3.79957e-06
-3.79957e-06
-3.79957e-06
-3.79957e-06
-3.79957e-06
-3.79957e-06
-3.79957e-06
-3.79957e-06
-3.79957e-06
-3.79957e-06
-3.79957e-06
-3.79957e-06
-3.79957e-06
-3.79957e-06
-3.79957e-06
-3.79957e-06
-3.79957e-06
-3.79957e-06
-3.79957e-06
-3.79957e-06
-3.79957e-06
-3.79957e-06
-3.79957e-06
-3.79957e-06
-3.79957e-06
-3.79957e-06
-3.79957e-06
-3.79957e-06
-3.79957e-06
-3.79957e-06
)
;
    }
    top
    {
        type            symmetryPlane;
        value           uniform 0;
    }
    walls
    {
        type            fixedValue;
        value           uniform 0;
    }
    frontAndBackPlanes
    {
        type            empty;
        value           nonuniform 0();
    }
}


// ************************************************************************* //
