/*--------------------------------*- C++ -*----------------------------------*\
| =========                 |                                                 |
| \\      /  F ield         | OpenFOAM: The Open Source CFD Toolbox           |
|  \\    /   O peration     | Version:  2.4.x                                 |
|   \\  /    A nd           | Web:      www.OpenFOAM.org                      |
|    \\/     M anipulation  |                                                 |
\*---------------------------------------------------------------------------*/
FoamFile
{
    version     2.0;
    format      ascii;
    class       volTensorField;
    location    "3.65";
    object      Taus;
}
// * * * * * * * * * * * * * * * * * * * * * * * * * * * * * * * * * * * * * //

dimensions      [0 2 -2 0 0 0 0];

internalField   nonuniform List<tensor> 
360
(
(0 -0.0181087 0 -0.0181087 -0.174901 0 0 0 0)
(0 -0.0227575 0 -0.0227575 -0.196452 0 0 0 0)
(0 -0.0267347 0 -0.0267347 -0.204266 0 0 0 0)
(0 -0.0275109 0 -0.0275109 -0.20277 0 0 0 0)
(1.55555e-17 -0.0269567 0 -0.0269567 -0.200358 0 0 0 0)
(1.50878e-17 -0.0264646 0 -0.0264646 -0.198477 0 0 0 0)
(1.44264e-17 -0.0260725 0 -0.0260725 -0.196677 0 0 0 0)
(0 -0.0257534 0 -0.0257534 -0.194988 0 0 0 0)
(1.35381e-17 -0.0255177 0 -0.0255177 -0.193508 0 0 0 0)
(0 -0.0252988 0 -0.0252988 -0.192039 0 0 0 0)
(2.64552e-17 -0.025052 0 -0.025052 -0.190495 0 0 0 0)
(0 -0.0247831 0 -0.0247831 -0.188917 0 0 0 0)
(2.60607e-17 -0.024508 0 -0.024508 -0.187318 0 0 0 0)
(0 -0.0242505 0 -0.0242505 -0.185763 0 0 0 0)
(0 -0.0240155 0 -0.0240155 -0.184252 0 0 0 0)
(0 -0.0237948 0 -0.0237948 -0.182765 0 0 0 0)
(0 -0.0235786 0 -0.0235786 -0.181283 0 0 0 0)
(4.88075e-17 -0.023356 0 -0.023356 -0.179789 0 0 0 0)
(0 -0.0231073 0 -0.0231073 -0.178257 0 0 0 0)
(0 -0.022805 0 -0.022805 -0.176616 0 0 0 0)
(0 -0.0224308 0 -0.0224308 -0.174875 0 0 0 0)
(3.05768e-17 -0.0219498 0 -0.0219498 -0.17292 0 0 0 0)
(0 -0.0213698 0 -0.0213698 -0.170761 0 0 0 0)
(0 -0.0207462 0 -0.0207462 -0.16847 0 0 0 0)
(0 -0.02018 0 -0.02018 -0.166269 0 0 0 0)
(3.64923e-17 -0.0197815 0 -0.0197815 -0.16447 0 0 0 0)
(0 -0.0196159 0 -0.0196159 -0.163266 0 0 0 0)
(0 -0.0196766 0 -0.0196766 -0.162546 0 0 0 0)
(0 -0.019925 0 -0.019925 -0.162108 0 0 0 0)
(0 -0.0203221 0 -0.0203221 -0.161724 0 0 0 0)
(0 -0.0208713 0 -0.0208713 -0.161267 0 0 0 0)
(0 -0.0216237 0 -0.0216237 -0.160646 0 0 0 0)
(0 -0.0226328 0 -0.0226328 -0.159943 0 0 0 0)
(0 -0.0238054 0 -0.0238054 -0.159083 0 0 0 0)
(0 -0.0250166 0 -0.0250166 -0.158266 0 0 0 0)
(-2.0647e-14 -0.0261457 0 -0.0261457 -0.157461 0 0 0 0)
(0 -0.0271657 0 -0.0271657 -0.156724 0 0 0 0)
(0 -0.0280818 0 -0.0280818 -0.155998 0 0 0 0)
(0 -0.0289277 0 -0.0289277 -0.155261 0 0 0 0)
(0 -0.0297459 0 -0.0297459 -0.154569 0 0 0 0)
(0 -0.0305201 0 -0.0305201 -0.153797 0 0 0 0)
(0 -0.0312807 0 -0.0312807 -0.153015 0 0 0 0)
(-1.20991e-14 -0.0320326 0 -0.0320326 -0.152221 0 0 0 0)
(0 -0.0327503 0 -0.0327503 -0.151344 0 0 0 0)
(0 -0.0334549 0 -0.0334549 -0.150463 0 0 0 0)
(0 -0.0341365 0 -0.0341365 -0.149542 0 0 0 0)
(0 -0.034794 0 -0.034794 -0.148585 0 0 0 0)
(0 -0.035437 0 -0.035437 -0.147634 0 0 0 0)
(0 -0.0360311 0 -0.0360311 -0.146629 0 0 0 0)
(0 -0.0365775 0 -0.0365775 -0.145574 0 0 0 0)
(-5.72842e-15 -0.037107 0 -0.037107 -0.144536 0 0 0 0)
(0 -0.0375962 0 -0.0375962 -0.143446 0 0 0 0)
(0 -0.0380516 0 -0.0380516 -0.142346 0 0 0 0)
(0 -0.0384675 0 -0.0384675 -0.141204 0 0 0 0)
(0 -0.0388514 0 -0.0388514 -0.140061 0 0 0 0)
(0 -0.0391833 0 -0.0391833 -0.138856 0 0 0 0)
(0 -0.0394873 0 -0.0394873 -0.137661 0 0 0 0)
(0 -0.0397436 0 -0.0397436 -0.136415 0 0 0 0)
(0 -0.0399688 0 -0.0399688 -0.135157 0 0 0 0)
(0 -0.0401653 0 -0.0401653 -0.133893 0 0 0 0)
(0 -0.0403135 0 -0.0403135 -0.132577 0 0 0 0)
(0 -0.0404445 0 -0.0404445 -0.131277 0 0 0 0)
(0 -0.0405464 0 -0.0405464 -0.12994 0 0 0 0)
(0 -0.0406358 0 -0.0406358 -0.128607 0 0 0 0)
(0 -0.04071 0 -0.04071 -0.127258 0 0 0 0)
(0 -0.0407689 0 -0.0407689 -0.125905 0 0 0 0)
(0 -0.0408018 0 -0.0408018 -0.124535 0 0 0 0)
(0 -0.0408082 0 -0.0408082 -0.123153 0 0 0 0)
(0 -0.0407907 0 -0.0407907 -0.12176 0 0 0 0)
(0 -0.0407468 0 -0.0407468 -0.120363 0 0 0 0)
(0 -0.0406579 0 -0.0406579 -0.118939 0 0 0 0)
(0 -0.0405388 0 -0.0405388 -0.1175 0 0 0 0)
(0 -0.0404081 0 -0.0404081 -0.11607 0 0 0 0)
(0 -0.0402473 0 -0.0402473 -0.114611 0 0 0 0)
(0 -0.04007 0 -0.04007 -0.113156 0 0 0 0)
(0 -0.0398763 0 -0.0398763 -0.111682 0 0 0 0)
(0 -0.0396799 0 -0.0396799 -0.110213 0 0 0 0)
(0 -0.0394736 0 -0.0394736 -0.108735 0 0 0 0)
(0 -0.039253 0 -0.039253 -0.10725 0 0 0 0)
(0 -0.0390182 0 -0.0390182 -0.105758 0 0 0 0)
(0 -0.0387706 0 -0.0387706 -0.104264 0 0 0 0)
(0 -0.0385035 0 -0.0385035 -0.102762 0 0 0 0)
(0 -0.0382173 0 -0.0382173 -0.101254 0 0 0 0)
(0 -0.0379144 0 -0.0379144 -0.0997424 0 0 0 0)
(0 -0.037596 0 -0.037596 -0.0982252 0 0 0 0)
(0 -0.0372651 0 -0.0372651 -0.096705 0 0 0 0)
(0 -0.0369233 0 -0.0369233 -0.0951799 0 0 0 0)
(0 -0.0365743 0 -0.0365743 -0.0936527 0 0 0 0)
(0 -0.0362185 0 -0.0362185 -0.0921225 0 0 0 0)
(0 -0.0358551 0 -0.0358551 -0.0905891 0 0 0 0)
(0 -0.035484 0 -0.035484 -0.0890532 0 0 0 0)
(0 -0.0351048 0 -0.0351048 -0.087515 0 0 0 0)
(0 -0.0347159 0 -0.0347159 -0.085974 0 0 0 0)
(0 -0.0343174 0 -0.0343174 -0.0844307 0 0 0 0)
(0 -0.0339097 0 -0.0339097 -0.0828855 0 0 0 0)
(0 -0.0334933 0 -0.0334933 -0.0813382 0 0 0 0)
(0 -0.033069 0 -0.033069 -0.0797892 0 0 0 0)
(0 -0.0326377 0 -0.0326377 -0.0782386 0 0 0 0)
(0 -0.0321999 0 -0.0321999 -0.0766864 0 0 0 0)
(0 -0.031756 0 -0.031756 -0.0751327 0 0 0 0)
(0 -0.0313064 0 -0.0313064 -0.0735777 0 0 0 0)
(0 -0.0308511 0 -0.0308511 -0.0720213 0 0 0 0)
(0 -0.0303904 0 -0.0303904 -0.0704636 0 0 0 0)
(0 -0.0299244 0 -0.0299244 -0.0689047 0 0 0 0)
(0 -0.0294534 0 -0.0294534 -0.0673447 0 0 0 0)
(0 -0.0289776 0 -0.0289776 -0.0657836 0 0 0 0)
(0 -0.0284974 0 -0.0284974 -0.0642215 0 0 0 0)
(0 -0.028013 0 -0.028013 -0.0626583 0 0 0 0)
(0 -0.0275247 0 -0.0275247 -0.0610942 0 0 0 0)
(0 -0.0270326 0 -0.0270326 -0.059529 0 0 0 0)
(0 -0.0265371 0 -0.0265371 -0.0579628 0 0 0 0)
(0 -0.0260384 0 -0.0260384 -0.0563955 0 0 0 0)
(0 -0.0255369 0 -0.0255369 -0.0548271 0 0 0 0)
(0 -0.0250331 0 -0.0250331 -0.0532575 0 0 0 0)
(0 -0.0245272 0 -0.0245272 -0.0516865 0 0 0 0)
(0 -0.0240199 0 -0.0240199 -0.0501139 0 0 0 0)
(0 -0.0235116 0 -0.0235116 -0.0485397 0 0 0 0)
(0 -0.0230029 0 -0.0230029 -0.0469636 0 0 0 0)
(0 -0.0224944 0 -0.0224944 -0.0453854 0 0 0 0)
(0 -0.0219866 0 -0.0219866 -0.0438048 0 0 0 0)
(0 -0.0214802 0 -0.0214802 -0.0422216 0 0 0 0)
(0 -0.0209758 0 -0.0209758 -0.0406353 0 0 0 0)
(0 -0.0204743 0 -0.0204743 -0.0390457 0 0 0 0)
(0 -0.0199764 0 -0.0199764 -0.0374522 0 0 0 0)
(0 -0.0194828 0 -0.0194828 -0.0358544 0 0 0 0)
(0 -0.018994 0 -0.018994 -0.0342517 0 0 0 0)
(0 -0.0185094 0 -0.0185094 -0.0326436 0 0 0 0)
(0 -0.0180283 0 -0.0180283 -0.0310298 0 0 0 0)
(0 -0.0175494 0 -0.0175494 -0.0294097 0 0 0 0)
(0 -0.0170728 0 -0.0170728 -0.0277819 0 0 0 0)
(0 -0.0166003 0 -0.0166003 -0.0261444 0 0 0 0)
(0 -0.0161334 0 -0.0161334 -0.0244954 0 0 0 0)
(0 -0.0156682 0 -0.0156682 -0.022835 0 0 0 0)
(0 -0.0151927 0 -0.0151927 -0.0211665 0 0 0 0)
(0 -0.0146973 0 -0.0146973 -0.0194915 0 0 0 0)
(0 -0.0141907 0 -0.0141907 -0.0178057 0 0 0 0)
(0 -0.0136863 0 -0.0136863 -0.0161035 0 0 0 0)
(0 -0.0131653 0 -0.0131653 -0.0144008 0 0 0 0)
(0 -0.0125649 0 -0.0125649 -0.0127477 0 0 0 0)
(0 -0.011847 0 -0.011847 -0.0111622 0 0 0 0)
(0 -0.0111216 0 -0.0111216 -0.0095389 0 0 0 0)
(0 -0.010545 0 -0.010545 -0.00781879 0 0 0 0)
(0 -0.00987162 0 -0.00987162 -0.0059399 0 0 0 0)
(0 -0.00898629 0 -0.00898629 -0.00389639 0 0 0 0)
(0 -0.00796852 0 -0.00796852 -0.00117218 0 0 0 0)
(0 -0.00621703 0 -0.00621703 -0.0014092 0 0 0 0)
(0 -0.00304455 0 -0.00304455 -0.00162625 0 0 0 0)
(0 -0.0031897 0 -0.0031897 0.000405168 0 0 0 0)
(0 -0.0017246 0 -0.0017246 1.46e-05 0 0 0 0)
(0 -0.00231077 0 -0.00231077 4.07867e-05 0 0 0 0)
(0 -0.00302907 0 -0.00302907 5.71931e-05 0 0 0 0)
(0 -0.00277667 0 -0.00277667 3.9131e-05 0 0 0 0)
(0 -0.00270426 0 -0.00270426 4.42161e-05 0 0 0 0)
(0 -0.00284441 0 -0.00284441 5.34256e-05 0 0 0 0)
(0 -0.00316747 0 -0.00316747 6.43806e-05 0 0 0 0)
(0 -0.00364932 0 -0.00364932 6.9106e-05 0 0 0 0)
(0 -0.00427201 0 -0.00427201 4.12277e-05 0 0 0 0)
(0 -0.00502467 0 -0.00502467 -9.33001e-05 0 0 0 0)
(0 -0.00591541 0 -0.00591541 -0.00047802 0 0 0 0)
(0 -0.00692784 0 -0.00692784 -0.0012535 0 0 0 0)
(0 -0.00786993 0 -0.00786993 -0.0023445 0 0 0 0)
(0 -0.00842261 0 -0.00842261 -0.00339934 0 0 0 0)
(0 -0.00846725 0 -0.00846725 -0.00415426 0 0 0 0)
(0 -0.00808178 0 -0.00808178 -0.00460746 0 0 0 0)
(0 -0.00736751 0 -0.00736751 -0.00483525 0 0 0 0)
(0 -0.0064067 0 -0.0064067 -0.0048966 0 0 0 0)
(0 -0.00525946 0 -0.00525946 -0.00483103 0 0 0 0)
(0 -0.00396804 0 -0.00396804 -0.00466414 0 0 0 0)
(0 -0.00256194 0 -0.00256194 -0.00441205 0 0 0 0)
(0 -0.00106208 0 -0.00106208 -0.00408454 0 0 0 0)
(0 0.000516223 0 0.000516223 -0.00368709 0 0 0 0)
(0 0.00216114 0 0.00216114 -0.00322213 0 0 0 0)
(0 0.00386305 0 0.00386305 -0.00269008 0 0 0 0)
(0 0.0056137 0 0.0056137 -0.00209014 0 0 0 0)
(0 0.00740592 0 0.00740592 -0.00142133 0 0 0 0)
(0 0.00923369 0 0.00923369 -0.000683594 0 0 0 0)
(0 0.0110929 0 0.0110929 0.000120769 0 0 0 0)
(0 0.0129825 0 0.0129825 0.000985403 0 0 0 0)
(0 0.0149069 0 0.0149069 0.00189779 0 0 0 0)
(0 0.0168792 0 0.0168792 0.00283674 0 0 0 0)
(0 0.0189265 0 0.0189265 0.00376927 0 0 0 0)
(0 0.0210973 0 0.0210973 0.00464708 0 0 0 0)
(0 0.0234724 0 0.0234724 0.00540254 0 0 0 0)
(0 0.0261805 0 0.0261805 0.00594502 0 0 0 0)
(0 0.0294153 0 0.0294153 0.0061598 0 0 0 0)
(0 0.0334466 0 0.0334466 0.00591519 0 0 0 0)
(0 0.0385936 0 0.0385936 0.00509153 0 0 0 0)
(0 0.0450878 0 0.0450878 0.00365435 0 0 0 0)
(0 0.0527586 0 0.0527586 0.00177717 0 0 0 0)
(0 0.0607462 0 0.0607462 -9.16944e-05 0 0 0 0)
(0 0.0679164 0 0.0679164 -0.0014549 0 0 0 0)
(0 0.0739888 0 0.0739888 -0.0022071 0 0 0 0)
(0 0.0797479 0 0.0797479 -0.00266975 0 0 0 0)
(0 0.0857811 0 0.0857811 -0.00311906 0 0 0 0)
(0 0.0916618 0 0.0916618 -0.00351025 0 0 0 0)
(0 0.0967984 0 0.0967984 -0.00372196 0 0 0 0)
(0 0.10138 0 0.10138 -0.00383596 0 0 0 0)
(0 0.10577 0 0.10577 -0.00399874 0 0 0 0)
(0 0.109757 0 0.109757 -0.00419829 0 0 0 0)
(0 0.112877 0 0.112877 -0.00431344 0 0 0 0)
(0 0.114998 0 0.114998 -0.0043094 0 0 0 0)
(0 0.116894 0 0.116894 -0.00437564 0 0 0 0)
(1.58455e-14 0.119371 0 0.119371 -0.00470742 0 0 0 0)
(0 0.121622 0 0.121622 -0.00507354 0 0 0 0)
(0 0.122383 0 0.122383 -0.00509056 0 0 0 0)
(-8.20508e-15 0.122793 0 0.122793 -0.005069 0 0 0 0)
(0 0.124873 0 0.124873 -0.00564801 0 0 0 0)
(8.3329e-15 0.127218 0 0.127218 -0.00644321 0 0 0 0)
(0 0.12733 0 0.12733 -0.00665865 0 0 0 0)
(-8.26933e-15 0.127421 0 0.127421 -0.0069056 0 0 0 0)
(0 0.129348 0 0.129348 -0.00785462 0 0 0 0)
(0 0.130496 0 0.130496 -0.00871291 0 0 0 0)
(0 0.130502 0 0.130502 -0.00926165 0 0 0 0)
(-7.99102e-15 0.131611 0 0.131611 -0.0102778 0 0 0 0)
(0 0.132402 0 0.132402 -0.0113427 0 0 0 0)
(0 0.131773 0 0.131773 -0.0119841 0 0 0 0)
(0 0.132642 0 0.132642 -0.0132492 0 0 0 0)
(0 0.134449 0 0.134449 -0.0150587 0 0 0 0)
(0 0.1336 0 0.1336 -0.0160094 0 0 0 0)
(7.07755e-15 0.132559 0 0.132559 -0.016923 0 0 0 0)
(0 0.133886 0 0.133886 -0.0188968 0 0 0 0)
(6.70589e-15 0.13424 0 0.13424 -0.0206659 0 0 0 0)
(0 0.133583 0 0.133583 -0.0221017 0 0 0 0)
(6.2983e-15 0.133329 0 0.133329 -0.0238464 0 0 0 0)
(0 0.132004 0 0.132004 -0.0252649 0 0 0 0)
(0 0.131168 0 0.131168 -0.0268662 0 0 0 0)
(0 0.130505 0 0.130505 -0.0286658 0 0 0 0)
(0 0.12723 0 0.12723 -0.0294522 0 0 0 0)
(-1.03534e-14 0.124405 0 0.124405 -0.0301734 0 0 0 0)
(-9.87141e-15 0.122156 0 0.122156 -0.0310098 0 0 0 0)
(0 0.117965 0 0.117965 -0.0309066 0 0 0 0)
(0 0.114386 0 0.114386 -0.0308399 0 0 0 0)
(0 0.108344 0 0.108344 -0.0301292 0 0 0 0)
(0 0.0943726 0 0.0943726 -0.0268812 0 0 0 0)
(0 0.0748256 0 0.0748256 -0.021758 0 0 0 0)
(0 0.0545982 0 0.0545982 -0.0162984 0 0 0 0)
(0 0.0371377 0 0.0371377 -0.0112356 0 0 0 0)
(0 0.0302711 0 0.0302711 -0.0107227 0 0 0 0)
(0 0 0 0 -0 0 0 0 0)
(0 0 0 0 -0 0 0 0 0)
(0 0 0 0 0 0 0 0 0)
(0 0 0 0 -0 0 0 0 0)
(0 0 0 0 -0 0 0 0 0)
(0 0 0 0 -0 0 0 0 0)
(-0 0 0 0 -0 0 0 0 0)
(0 0 0 0 -0 0 0 0 0)
(0 0 0 0 -0 0 0 0 0)
(0 0 0 0 -0 0 0 0 0)
(0 0 0 0 -0 0 0 0 0)
(0 0 0 0 -0 0 0 0 0)
(0 0 0 0 -0 0 0 0 0)
(0 0 0 0 -0 0 0 0 0)
(0 0 0 0 -0 0 0 0 0)
(0 0 0 0 -0 0 0 0 0)
(0 0 0 0 -0 0 0 0 0)
(0 0 0 0 -0 0 0 0 0)
(0 0 0 0 -0 0 0 0 0)
(0 0 0 0 -0 0 0 0 0)
(0 0 0 0 -0 0 0 0 0)
(0 0 0 0 -0 0 0 0 0)
(0 0 0 0 -0 0 0 0 0)
(0 0 0 0 0 0 0 0 0)
(0 0 0 0 -0 0 0 0 0)
(0 0 0 0 0 0 0 0 0)
(0 0 0 0 -0 0 0 0 0)
(0 0 0 0 0 0 0 0 0)
(-0 0 0 0 0 0 0 0 0)
(0 0 0 0 -0 0 0 0 0)
(0 0 0 0 0 0 0 0 0)
(0 0 0 0 -0 0 0 0 0)
(0 0 0 0 -0 0 0 0 0)
(0 0 0 0 0 0 0 0 0)
(0 0 0 0 -0 0 0 0 0)
(0 0 0 0 0 0 0 0 0)
(0 0 0 0 -0 0 0 0 0)
(0 0 0 0 0 0 0 0 0)
(0 0 0 0 -0 0 0 0 0)
(0 0 0 0 0 0 0 0 0)
(0 0 0 0 -0 0 0 0 0)
(0 0 0 0 0 0 0 0 0)
(0 0 0 0 -0 0 0 0 0)
(0 0 0 0 0 0 0 0 0)
(0 0 0 0 -0 0 0 0 0)
(0 0 0 0 0 0 0 0 0)
(0 0 0 0 -0 0 0 0 0)
(0 0 0 0 0 0 0 0 0)
(-0 0 0 0 -0 0 0 0 0)
(0 0 0 0 0 0 0 0 0)
(0 0 0 0 -0 0 0 0 0)
(0 -0 0 -0 0 0 0 0 0)
(0 0 0 0 -0 0 0 0 0)
(0 -0 0 -0 0 0 0 0 0)
(0 0 0 0 -0 0 0 0 0)
(0 -0 0 -0 0 0 0 0 0)
(0 0 0 0 -0 0 0 0 0)
(0 -0 0 -0 0 0 0 0 0)
(-0 0 0 0 -0 0 0 0 0)
(0 -0 0 -0 0 0 0 0 0)
(0 0 0 0 -0 0 0 0 0)
(0 -0 0 -0 0 0 0 0 0)
(0 0 0 0 -0 0 0 0 0)
(0 -0 0 -0 0 0 0 0 0)
(0 0 0 0 -0 0 0 0 0)
(0 -0 0 -0 0 0 0 0 0)
(0 0 0 0 -0 0 0 0 0)
(0 -0 0 -0 0 0 0 0 0)
(0 0 0 0 -0 0 0 0 0)
(0 -0 0 -0 0 0 0 0 0)
(0 0 0 0 -0 0 0 0 0)
(0 -0 0 -0 0 0 0 0 0)
(0 -0 0 -0 0 0 0 0 0)
(0 -0 0 -0 0 0 0 0 0)
(0 0 0 0 -0 0 0 0 0)
(0 -0 0 -0 0 0 0 0 0)
(0 0 0 0 -0 0 0 0 0)
(0 -0 0 -0 0 0 0 0 0)
(0 0 0 0 -0 0 0 0 0)
(0 -0 0 -0 0 0 0 0 0)
(0 0 0 0 -0 0 0 0 0)
(0 -0 0 -0 0 0 0 0 0)
(0 0 0 0 -0 0 0 0 0)
(0 -0 0 -0 0 0 0 0 0)
(0 0 0 0 -0 0 0 0 0)
(0 -0 0 -0 0 0 0 0 0)
(0 0 0 0 -0 0 0 0 0)
(0 -0 0 -0 0 0 0 0 0)
(0 0 0 0 -0 0 0 0 0)
(0 -0 0 -0 0 0 0 0 0)
(0 -0 0 -0 0 0 0 0 0)
(0 0 0 0 -0 0 0 0 0)
(0 -0 0 -0 0 0 0 0 0)
(0 0 0 0 -0 0 0 0 0)
(0 -0 0 -0 0 0 0 0 0)
(0 0 0 0 -0 0 0 0 0)
(0 -0 0 -0 0 0 0 0 0)
(0 0 0 0 -0 0 0 0 0)
(0 -0 0 -0 0 0 0 0 0)
(0 0 0 0 -0 0 0 0 0)
(0 -0 0 -0 0 0 0 0 0)
(0 0 0 0 -0 0 0 0 0)
(0 -0 0 -0 0 0 0 0 0)
(0 0 0 0 -0 0 0 0 0)
(0 -0 0 -0 0 0 0 0 0)
(0 0 0 0 -0 0 0 0 0)
(0 -0 0 -0 0 0 0 0 0)
(0 0 0 0 -0 0 0 0 0)
(0 -0 0 -0 0 0 0 0 0)
(0 0 0 0 -0 0 0 0 0)
(0 -0 0 -0 0 0 0 0 0)
(0 0 0 0 -0 0 0 0 0)
(0 -0 0 -0 0 0 0 0 0)
(0 0 0 0 -0 0 0 0 0)
(0 0 0 0 0 0 0 0 0)
(0 0 0 0 0 0 0 0 0)
(0 0 0 0 0 0 0 0 0)
(0 0 0 0 0 0 0 0 0)
(0 0 0 0 0 0 0 0 0)
(0 0 0 0 0 0 0 0 0)
(0 0 0 0 0 0 0 0 0)
(0 0 0 0 0 0 0 0 0)
)
;

boundaryField
{
    inandouthalf11
    {
        type            cyclic;
    }
    inandouthalf12
    {
        type            cyclic;
    }
    inandouthalf21
    {
        type            cyclic;
    }
    inandouthalf22
    {
        type            cyclic;
    }
    inandouthalf31
    {
        type            cyclic;
    }
    inandouthalf32
    {
        type            cyclic;
    }
    inandouthalf41
    {
        type            cyclic;
    }
    inandouthalf42
    {
        type            cyclic;
    }
    top
    {
        type            symmetryPlane;
    }
    walls
    {
        type            zeroGradient;
    }
    frontAndBackPlanes
    {
        type            empty;
    }
}


// ************************************************************************* //
