/*--------------------------------*- C++ -*----------------------------------*\
| =========                 |                                                 |
| \\      /  F ield         | OpenFOAM: The Open Source CFD Toolbox           |
|  \\    /   O peration     | Version:  2.4.x                                 |
|   \\  /    A nd           | Web:      www.OpenFOAM.org                      |
|    \\/     M anipulation  |                                                 |
\*---------------------------------------------------------------------------*/
FoamFile
{
    version     2.0;
    format      ascii;
    class       volVectorField;
    location    "3.65";
    object      U;
}
// * * * * * * * * * * * * * * * * * * * * * * * * * * * * * * * * * * * * * //

dimensions      [0 1 -1 0 0 0 0];

internalField   nonuniform List<vector> 
360
(
(-6.89944e-05 5.15495e-08 0)
(-6.88565e-05 5.62246e-09 0)
(-6.88394e-05 -1.11638e-08 0)
(-6.89484e-05 -5.19234e-09 0)
(-6.90697e-05 1.40224e-10 0)
(-6.91838e-05 1.7712e-09 0)
(-6.92991e-05 1.89849e-09 0)
(-6.94157e-05 1.31653e-09 0)
(-6.95314e-05 5.46164e-10 0)
(-6.96478e-05 1.05868e-10 0)
(-6.97658e-05 -9.53612e-12 0)
(-6.98843e-05 -7.65382e-11 0)
(-7.00031e-05 -2.21009e-10 0)
(-7.01209e-05 -3.91539e-10 0)
(-7.02372e-05 -3.79213e-10 0)
(-7.03526e-05 1.60112e-11 0)
(-7.0468e-05 9.18391e-10 0)
(-7.05852e-05 2.42716e-09 0)
(-7.07074e-05 4.6029e-09 0)
(-7.08393e-05 7.45339e-09 0)
(-7.09858e-05 1.05098e-08 0)
(-7.11535e-05 1.23741e-08 0)
(-7.1345e-05 9.68681e-09 0)
(-7.15536e-05 -1.17971e-09 0)
(-7.17572e-05 -1.7997e-08 0)
(-7.19235e-05 -2.94126e-08 0)
(-7.20316e-05 -2.68281e-08 0)
(-7.20876e-05 -1.59252e-08 0)
(-7.21116e-05 -6.819e-09 0)
(-7.21215e-05 -2.38522e-09 0)
(-7.21265e-05 -8.02435e-10 0)
(-7.21304e-05 -2.46493e-10 0)
(-7.2133e-05 -1.32173e-10 0)
(-7.21369e-05 -3.30921e-12 0)
(-7.214e-05 -9.10181e-12 0)
(-7.21439e-05 3.13362e-11 0)
(-7.21479e-05 2.14315e-11 0)
(-7.21526e-05 2.2714e-11 0)
(-7.21582e-05 5.43065e-11 0)
(-7.21631e-05 -1.75271e-11 0)
(-7.21696e-05 1.15056e-11 0)
(-7.21761e-05 1.97151e-12 0)
(-7.21826e-05 -4.20444e-11 0)
(-7.21904e-05 -2.98114e-12 0)
(-7.21983e-05 -2.22437e-11 0)
(-7.22067e-05 -1.90578e-11 0)
(-7.22158e-05 4.44135e-12 0)
(-7.22249e-05 -3.11151e-11 0)
(-7.22352e-05 -2.62286e-11 0)
(-7.22469e-05 1.52316e-11 0)
(-7.22584e-05 -2.24512e-11 0)
(-7.22711e-05 -5.16784e-13 0)
(-7.22845e-05 -1.70684e-11 0)
(-7.2299e-05 4.69723e-12 0)
(-7.2314e-05 -3.03852e-11 0)
(-7.23307e-05 1.12403e-11 0)
(-7.23477e-05 -2.40181e-11 0)
(-7.23662e-05 -6.19246e-13 0)
(-7.23855e-05 3.09331e-12 0)
(-7.24054e-05 -2.80736e-11 0)
(-7.2427e-05 1.48689e-11 0)
(-7.24488e-05 -1.60792e-11 0)
(-7.24718e-05 7.26784e-12 0)
(-7.24951e-05 -5.7028e-12 0)
(-7.2519e-05 -1.46357e-12 0)
(-7.25435e-05 -1.40094e-11 0)
(-7.25688e-05 -1.11834e-11 0)
(-7.25951e-05 -8.88777e-12 0)
(-7.26221e-05 -3.91211e-12 0)
(-7.265e-05 -2.17668e-11 0)
(-7.26794e-05 -5.88695e-12 0)
(-7.271e-05 1.75862e-11 0)
(-7.27411e-05 -9.62051e-12 0)
(-7.27736e-05 1.38129e-11 0)
(-7.28069e-05 2.28538e-12 0)
(-7.28413e-05 1.87258e-11 0)
(-7.28761e-05 4.87144e-12 0)
(-7.29118e-05 8.40582e-13 0)
(-7.29484e-05 -1.81755e-12 0)
(-7.29859e-05 1.66071e-14 0)
(-7.30243e-05 -8.36532e-12 0)
(-7.30638e-05 -6.73541e-12 0)
(-7.31044e-05 -3.87794e-12 0)
(-7.3146e-05 -3.65231e-12 0)
(-7.31888e-05 -2.08796e-13 0)
(-7.32326e-05 -9.41684e-13 0)
(-7.32775e-05 1.87962e-12 0)
(-7.33234e-05 -2.7021e-13 0)
(-7.33702e-05 -3.49844e-12 0)
(-7.34181e-05 -5.53238e-12 0)
(-7.34671e-05 -8.13565e-12 0)
(-7.35171e-05 -1.19028e-11 0)
(-7.35683e-05 -1.32602e-11 0)
(-7.36207e-05 -1.44706e-11 0)
(-7.36743e-05 -1.5528e-11 0)
(-7.37292e-05 -1.63179e-11 0)
(-7.37854e-05 -1.71513e-11 0)
(-7.38428e-05 -1.84457e-11 0)
(-7.39016e-05 -2.02086e-11 0)
(-7.39617e-05 -2.2086e-11 0)
(-7.40233e-05 -2.43123e-11 0)
(-7.40862e-05 -2.67849e-11 0)
(-7.41507e-05 -2.92213e-11 0)
(-7.42167e-05 -3.17683e-11 0)
(-7.42842e-05 -3.44798e-11 0)
(-7.43535e-05 -3.72827e-11 0)
(-7.44244e-05 -4.01991e-11 0)
(-7.44971e-05 -4.32052e-11 0)
(-7.45715e-05 -4.62122e-11 0)
(-7.46479e-05 -4.91564e-11 0)
(-7.47263e-05 -5.19759e-11 0)
(-7.48068e-05 -5.46007e-11 0)
(-7.48893e-05 -5.69783e-11 0)
(-7.49742e-05 -5.90653e-11 0)
(-7.50614e-05 -6.08279e-11 0)
(-7.51511e-05 -6.22645e-11 0)
(-7.52434e-05 -6.34188e-11 0)
(-7.53384e-05 -6.43827e-11 0)
(-7.54363e-05 -6.53021e-11 0)
(-7.55373e-05 -6.63915e-11 0)
(-7.56415e-05 -6.79422e-11 0)
(-7.57491e-05 -7.03267e-11 0)
(-7.58602e-05 -7.40421e-11 0)
(-7.59751e-05 -7.97741e-11 0)
(-7.6094e-05 -8.8393e-11 0)
(-7.6217e-05 -1.00779e-10 0)
(-7.63443e-05 -1.17349e-10 0)
(-7.64765e-05 -1.37302e-10 0)
(-7.66136e-05 -1.58065e-10 0)
(-7.67562e-05 -1.76655e-10 0)
(-7.69044e-05 -1.94523e-10 0)
(-7.70583e-05 -2.23339e-10 0)
(-7.72186e-05 -2.74432e-10 0)
(-7.7387e-05 -3.24474e-10 0)
(-7.75654e-05 -3.23167e-10 0)
(-7.77538e-05 -2.94892e-10 0)
(-7.79511e-05 -3.64852e-10 0)
(-7.816e-05 -6.30337e-10 0)
(-7.83904e-05 -9.42909e-10 0)
(-7.86539e-05 -6.78882e-10 0)
(-7.89394e-05 2.56698e-10 0)
(-7.921e-05 -1.40324e-09 0)
(-7.95293e-05 -2.5164e-09 0)
(-7.99431e-05 -2.37327e-09 0)
(-8.04513e-05 -8.49592e-09 0)
(-8.13012e-05 -4.04101e-08 0)
(-8.3788e-05 1.10834e-07 0)
(-8.4303e-05 1.24734e-07 0)
(-0.000236707 -4.09538e-06 0)
(-0.082688 -4.38763e-05 0)
(-0.213884 -6.69304e-05 0)
(-0.307072 1.22217e-05 0)
(-0.379397 -5.23976e-06 0)
(-0.437617 -5.31425e-06 0)
(-0.485405 -3.15493e-06 0)
(-0.524971 -1.526e-06 0)
(-0.557664 -4.1938e-07 0)
(-0.584298 1.67883e-07 0)
(-0.605401 2.73953e-07 0)
(-0.621486 2.62029e-07 0)
(-0.633232 3.2138e-07 0)
(-0.641496 2.70474e-07 0)
(-0.647148 1.59557e-07 0)
(-0.650926 9.09057e-08 0)
(-0.653374 5.14669e-08 0)
(-0.654871 3.05915e-08 0)
(-0.655672 1.93133e-08 0)
(-0.655947 1.27272e-08 0)
(-0.655811 8.56917e-09 0)
(-0.655346 5.82049e-09 0)
(-0.654607 3.9553e-09 0)
(-0.653638 2.66344e-09 0)
(-0.652468 1.75235e-09 0)
(-0.651123 1.10058e-09 0)
(-0.649622 6.30116e-10 0)
(-0.647981 2.89076e-10 0)
(-0.646213 4.20367e-11 0)
(-0.64433 -1.35922e-10 0)
(-0.642341 -2.62937e-10 0)
(-0.640255 -3.5274e-10 0)
(-0.638079 -4.16556e-10 0)
(-0.635822 -4.64042e-10 0)
(-0.633488 -5.03442e-10 0)
(-0.631085 -5.37207e-10 0)
(-0.628616 -5.50326e-10 0)
(-0.626088 -4.94214e-10 0)
(-0.623504 -2.97792e-10 0)
(-0.620869 4.90017e-11 0)
(-0.618188 3.77665e-10 0)
(-0.615462 3.95533e-10 0)
(-0.612697 2.87415e-11 0)
(-0.609896 -3.42281e-10 0)
(-0.60706 -2.99841e-10 0)
(-0.604194 1.7859e-11 0)
(-0.601301 1.43994e-10 0)
(-0.598382 8.91914e-12 0)
(-0.59544 -7.30247e-11 0)
(-0.592477 -1.3361e-11 0)
(-0.589497 4.16085e-11 0)
(-0.5865 4.62469e-11 0)
(-0.583489 -1.26492e-11 0)
(-0.580435 -6.658e-11 0)
(-0.577309 1.02159e-11 0)
(-0.574109 1.05296e-10 0)
(-0.570838 1.32692e-11 0)
(-0.567494 -1.09601e-10 0)
(-0.564078 -4.08596e-12 0)
(-0.560592 1.3474e-10 0)
(-0.557036 -1.74062e-11 0)
(-0.553411 -9.13944e-11 0)
(-0.54972 6.06781e-11 0)
(-0.545964 5.0188e-11 0)
(-0.542146 -5.35266e-11 0)
(-0.538268 1.28262e-11 0)
(-0.534335 5.12275e-11 0)
(-0.530351 -3.00365e-11 0)
(-0.526321 -1.46408e-11 0)
(-0.522251 5.50816e-11 0)
(-0.518149 1.77224e-12 0)
(-0.514024 -3.32488e-11 0)
(-0.509888 3.3957e-11 0)
(-0.505753 1.15324e-11 0)
(-0.501638 -1.16904e-11 0)
(-0.497563 1.94041e-11 0)
(-0.493556 -1.19021e-12 0)
(-0.489652 -8.88281e-13 0)
(-0.485902 7.40338e-11 0)
(-0.482374 -2.01025e-10 0)
(-0.479183 4.35165e-10 0)
(-0.476511 -7.0631e-10 0)
(-0.475244 1.03223e-09 0)
(-0.475086 -1.34253e-09 0)
(-0.475064 1.66632e-09 0)
(-0.475046 -1.96417e-09 0)
(-0.475032 2.28503e-09 0)
(-0.475019 -2.59247e-09 0)
(-0.475008 2.92245e-09 0)
(-0.474998 -3.22673e-09 0)
(-0.47499 3.53209e-09 0)
(-0.474983 -3.77255e-09 0)
(-0.474977 4.0684e-09 0)
(-0.474972 -4.35706e-09 0)
(-0.474967 4.67229e-09 0)
(-0.474963 -4.98206e-09 0)
(-0.47496 5.3182e-09 0)
(-0.474958 -5.65028e-09 0)
(-0.474956 6.0084e-09 0)
(-0.474954 -6.36383e-09 0)
(-0.474952 6.74488e-09 0)
(-0.474951 -7.12459e-09 0)
(-0.47495 7.52942e-09 0)
(-0.474949 -7.93425e-09 0)
(-0.474949 8.36365e-09 0)
(-0.474948 -8.79438e-09 0)
(-0.474948 9.24907e-09 0)
(-0.474948 -9.70643e-09 0)
(-0.474947 1.01871e-08 0)
(-0.474947 -1.06718e-08 0)
(-0.474947 1.11791e-08 0)
(-0.474947 -1.16917e-08 0)
(-0.474947 1.22263e-08 0)
(-0.474947 -1.27676e-08 0)
(-0.474947 1.33301e-08 0)
(-0.474946 -1.39007e-08 0)
(-0.474946 1.44918e-08 0)
(-0.474946 -1.50922e-08 0)
(-0.474946 1.57127e-08 0)
(-0.474946 -1.63434e-08 0)
(-0.474946 1.69941e-08 0)
(-0.474946 -1.76557e-08 0)
(-0.474946 1.83372e-08 0)
(-0.474946 -1.90304e-08 0)
(-0.474946 1.97433e-08 0)
(-0.474946 -2.04686e-08 0)
(-0.474946 2.12136e-08 0)
(-0.474946 -2.19717e-08 0)
(-0.474946 2.27495e-08 0)
(-0.474946 -2.35409e-08 0)
(-0.474946 2.4352e-08 0)
(-0.474946 -2.51775e-08 0)
(-0.474946 2.60226e-08 0)
(-0.474946 -2.68826e-08 0)
(-0.474946 2.77623e-08 0)
(-0.474946 -2.86575e-08 0)
(-0.474946 2.95724e-08 0)
(-0.474946 -3.05034e-08 0)
(-0.474946 3.14541e-08 0)
(-0.474946 -3.24214e-08 0)
(-0.474946 3.34085e-08 0)
(-0.474946 -3.44127e-08 0)
(-0.474946 3.54368e-08 0)
(-0.474946 -3.64784e-08 0)
(-0.474946 3.75398e-08 0)
(-0.474946 -3.86193e-08 0)
(-0.474946 3.97186e-08 0)
(-0.474946 -4.08364e-08 0)
(-0.474946 4.1974e-08 0)
(-0.474946 -4.31305e-08 0)
(-0.474946 4.43067e-08 0)
(-0.474946 -4.55021e-08 0)
(-0.474946 4.67172e-08 0)
(-0.474946 -4.79517e-08 0)
(-0.474946 4.92058e-08 0)
(-0.474946 -5.04793e-08 0)
(-0.474946 5.17723e-08 0)
(-0.474946 -5.30845e-08 0)
(-0.474946 5.4416e-08 0)
(-0.474946 -5.57664e-08 0)
(-0.474946 5.71356e-08 0)
(-0.474946 -5.85233e-08 0)
(-0.474946 5.2589e-08 0)
(-0.474946 -5.27971e-08 0)
(-0.474946 5.29973e-08 0)
(-0.474946 -5.31896e-08 0)
(-0.474946 5.33738e-08 0)
(-0.474946 -5.35497e-08 0)
(-0.474946 5.3717e-08 0)
(-0.474946 -5.38757e-08 0)
(-0.474946 5.40252e-08 0)
(-0.474946 -5.41656e-08 0)
(-0.474946 5.42962e-08 0)
(-0.474946 -5.44169e-08 0)
(-0.474946 5.4527e-08 0)
(-0.474946 -5.46262e-08 0)
(-0.474946 5.47134e-08 0)
(-0.474946 -5.4788e-08 0)
(-0.474946 5.48479e-08 0)
(-0.474946 -5.48905e-08 0)
(-0.474946 5.49041e-08 0)
(-0.474946 -5.48779e-08 0)
(-0.474946 5.48399e-08 0)
(-0.474946 -5.47955e-08 0)
(-0.474946 5.47445e-08 0)
(-0.474946 -5.46906e-08 0)
(-0.474946 5.46317e-08 0)
(-0.474946 -5.45719e-08 0)
(-0.474946 5.45079e-08 0)
(-0.474946 -5.44443e-08 0)
(-0.474946 5.43771e-08 0)
(-0.474946 -5.43113e-08 0)
(-0.474946 5.42423e-08 0)
(-0.474946 -5.41755e-08 0)
(-0.474946 5.4106e-08 0)
(-0.474946 -5.40391e-08 0)
(-0.474946 5.39702e-08 0)
(-0.474946 -5.39043e-08 0)
(-0.474946 5.38368e-08 0)
(-0.474946 -5.37726e-08 0)
(-0.474946 5.37077e-08 0)
(-0.474946 -5.3646e-08 0)
(-0.474946 5.35849e-08 0)
(-0.474946 -5.35262e-08 0)
(-0.474946 5.34701e-08 0)
(-0.474946 -5.34152e-08 0)
(-0.474946 5.33655e-08 0)
(-0.474946 -5.33152e-08 0)
(-0.474946 5.32734e-08 0)
(-0.474946 -5.32292e-08 0)
(-0.474946 5.31967e-08 0)
(-0.474946 -5.3166e-08 0)
)
;

boundaryField
{
    inandouthalf11
    {
        type            cyclic;
    }
    inandouthalf12
    {
        type            cyclic;
    }
    inandouthalf21
    {
        type            cyclic;
    }
    inandouthalf22
    {
        type            cyclic;
    }
    inandouthalf31
    {
        type            cyclic;
    }
    inandouthalf32
    {
        type            cyclic;
    }
    inandouthalf41
    {
        type            cyclic;
    }
    inandouthalf42
    {
        type            cyclic;
    }
    top
    {
        type            symmetryPlane;
    }
    walls
    {
        type            calculated;
        value           uniform (0 0 0);
    }
    frontAndBackPlanes
    {
        type            empty;
    }
}


// ************************************************************************* //
