/*--------------------------------*- C++ -*----------------------------------*\
| =========                 |                                                 |
| \\      /  F ield         | OpenFOAM: The Open Source CFD Toolbox           |
|  \\    /   O peration     | Version:  2.4.x                                 |
|   \\  /    A nd           | Web:      www.OpenFOAM.org                      |
|    \\/     M anipulation  |                                                 |
\*---------------------------------------------------------------------------*/
FoamFile
{
    version     2.0;
    format      ascii;
    class       surfaceScalarField;
    location    "9.9";
    object      ddt0(phib);
}
// * * * * * * * * * * * * * * * * * * * * * * * * * * * * * * * * * * * * * //

dimensions      [0 3 -2 0 0 0 0];

internalField   nonuniform List<scalar> 
359
(
-2.78276e-14
-7.07689e-14
-1.11048e-13
-1.50999e-13
-1.94015e-13
-2.40267e-13
-2.89327e-13
-3.41265e-13
-3.96289e-13
-4.54628e-13
-5.16432e-13
-5.8172e-13
-6.50445e-13
-7.22611e-13
-7.98151e-13
-8.77062e-13
-9.59193e-13
-1.04455e-12
-1.13291e-12
-1.22427e-12
-1.31852e-12
-1.41553e-12
-1.51521e-12
-1.61742e-12
-1.7221e-12
-1.8291e-12
-1.93835e-12
-2.04977e-12
-2.16322e-12
-2.2786e-12
-2.3958e-12
-2.51479e-12
-2.63537e-12
-2.75756e-12
-2.88115e-12
-3.00611e-12
-3.13223e-12
-3.2595e-12
-3.38777e-12
-3.51695e-12
-3.64694e-12
-3.77758e-12
-3.90873e-12
-4.04039e-12
-4.17233e-12
-4.30448e-12
-4.43666e-12
-4.56878e-12
-4.70066e-12
-4.8323e-12
-4.96342e-12
-5.09403e-12
-5.22385e-12
-5.35283e-12
-5.48077e-12
-5.6077e-12
-5.73325e-12
-5.85751e-12
-5.98014e-12
-6.10113e-12
-6.22039e-12
-6.33773e-12
-6.45309e-12
-6.56635e-12
-6.67737e-12
-6.78606e-12
-6.89226e-12
-6.996e-12
-7.09707e-12
-7.19544e-12
-7.29102e-12
-7.38384e-12
-7.4737e-12
-7.5607e-12
-7.6447e-12
-7.72576e-12
-7.80376e-12
-7.87875e-12
-7.95067e-12
-8.01955e-12
-8.08531e-12
-8.14811e-12
-8.20784e-12
-8.26463e-12
-8.31846e-12
-8.36944e-12
-8.41748e-12
-8.4628e-12
-8.50529e-12
-8.54516e-12
-8.58229e-12
-8.61692e-12
-8.64899e-12
-8.67865e-12
-8.70592e-12
-8.73091e-12
-8.75361e-12
-8.7742e-12
-8.79266e-12
-8.80912e-12
-8.82358e-12
-8.83617e-12
-8.84687e-12
-8.8558e-12
-8.86296e-12
-8.86849e-12
-8.87238e-12
-8.87472e-12
-8.87551e-12
-8.87488e-12
-8.87276e-12
-8.86927e-12
-8.86437e-12
-8.85812e-12
-8.85036e-12
-8.84118e-12
-8.8304e-12
-8.81801e-12
-8.80379e-12
-8.78771e-12
-8.7696e-12
-8.74958e-12
-8.72759e-12
-8.70383e-12
-8.67853e-12
-8.65217e-12
-8.62514e-12
-8.59794e-12
-8.57079e-12
-8.54393e-12
-8.51705e-12
-8.4894e-12
-8.45939e-12
-8.42465e-12
-8.38161e-12
-8.32654e-12
-8.25817e-12
-8.18316e-12
-8.11752e-12
-8.07603e-12
-8.05626e-12
-7.96955e-12
-8.26482e-11
-3.37438e-10
-7.38089e-10
-1.47987e-08
-2.75298e-08
1.5551e-08
1.3281e-08
6.29517e-09
-2.89348e-10
-4.5327e-09
-6.31868e-09
-6.30827e-09
-5.34577e-09
-4.0962e-09
-2.94114e-09
-2.03046e-09
-1.37859e-09
-9.41008e-10
-6.59003e-10
-4.8026e-10
-3.6542e-10
-2.87793e-10
-2.30693e-10
-1.84406e-10
-1.43759e-10
-1.06294e-10
-7.10938e-11
-3.80108e-11
-7.2378e-12
2.09452e-11
4.62902e-11
6.86322e-11
8.7904e-11
1.04127e-10
1.17397e-10
1.27863e-10
1.35712e-10
1.41156e-10
1.44415e-10
1.45712e-10
1.45261e-10
1.43267e-10
1.39922e-10
1.35397e-10
1.29848e-10
1.23407e-10
1.16184e-10
1.08267e-10
9.97428e-11
9.07351e-11
8.14749e-11
7.23574e-11
6.39351e-11
5.67992e-11
5.1376e-11
4.76613e-11
4.50995e-11
4.30574e-11
4.11999e-11
3.93526e-11
3.74548e-11
3.54835e-11
3.34325e-11
3.13039e-11
2.91015e-11
2.68285e-11
2.44832e-11
2.20575e-11
1.95389e-11
1.69221e-11
1.42291e-11
1.15316e-11
8.95594e-12
6.65555e-12
4.75665e-12
3.31113e-12
2.28778e-12
1.6019e-12
1.15578e-12
8.6619e-13
6.73538e-13
5.39646e-13
4.41593e-13
3.66003e-13
3.05146e-13
2.55115e-13
2.12319e-13
1.76947e-13
1.45584e-13
1.2027e-13
9.70316e-14
7.97282e-14
6.19363e-14
5.17827e-14
3.45593e-14
2.8024e-14
2.04079e-14
1.34392e-14
7.56202e-15
2.48699e-15
-1.40063e-15
-4.89283e-15
-6.98554e-15
-8.55121e-15
-9.85398e-15
-1.01148e-14
-1.10389e-14
-1.09707e-14
-1.15729e-14
-1.10714e-14
-1.11402e-14
-1.07921e-14
-1.05122e-14
-1.01325e-14
-9.80856e-15
-9.38345e-15
-9.03593e-15
-8.60482e-15
-8.25767e-15
-7.82153e-15
-7.49328e-15
-7.07104e-15
-6.65773e-15
-6.1729e-15
-5.79661e-15
-5.4066e-15
-5.02658e-15
-4.6758e-15
-4.37059e-15
-4.10147e-15
-3.74095e-15
-3.41759e-15
-3.11862e-15
-2.90577e-15
-2.61711e-15
-2.41785e-15
-2.22802e-15
-2.13057e-15
-1.76253e-15
-1.49458e-15
-1.23678e-15
-1.10544e-15
-8.6268e-16
-7.43298e-16
-6.27508e-16
-6.43981e-16
-4.23165e-16
-3.36945e-16
-2.57107e-16
-3.30504e-16
-2.35753e-16
-3.41797e-16
-4.54461e-16
-1.03415e-15
-3.68442e-16
-1.79046e-16
3.7301e-17
9.60597e-17
2.79522e-16
3.76611e-16
4.86237e-16
5.03359e-16
6.73032e-16
7.79068e-16
8.75739e-16
9.18972e-16
1.00474e-15
1.06552e-15
1.10679e-15
1.13421e-15
1.25648e-15
1.33763e-15
1.42368e-15
1.46013e-15
1.55175e-15
1.58292e-15
1.61665e-15
1.59183e-15
1.77196e-15
1.86376e-15
1.94602e-15
1.92313e-15
2.17974e-15
2.20925e-15
2.409e-15
1.84236e-15
5.58832e-15
8.35064e-15
1.12764e-14
1.34997e-14
1.64898e-14
1.85735e-14
2.06812e-14
2.18383e-14
2.47663e-14
2.65329e-14
2.83243e-14
2.8717e-14
3.02258e-14
3.03183e-14
3.05197e-14
2.93701e-14
3.18254e-14
3.30355e-14
3.43958e-14
3.46265e-14
3.5753e-14
3.59491e-14
3.63344e-14
3.71848e-14
3.79995e-14
3.93578e-14
4.11744e-14
4.66806e-14
4.49239e-14
5.83475e-14
8.71375e-14
)
;

boundaryField
{
    inandouthalf11
    {
        type            cyclic;
        value           nonuniform List<scalar> 
100
(
1.7867e-10
1.77677e-10
1.7755e-10
1.77691e-10
1.7776e-10
1.77785e-10
1.77816e-10
1.77854e-10
1.77894e-10
1.77933e-10
1.77973e-10
1.78012e-10
1.78052e-10
1.78093e-10
1.78134e-10
1.78175e-10
1.78217e-10
1.7826e-10
1.78302e-10
1.78346e-10
1.7839e-10
1.78435e-10
1.7848e-10
1.78526e-10
1.78573e-10
1.7862e-10
1.78668e-10
1.78716e-10
1.78765e-10
1.78815e-10
1.78865e-10
1.78917e-10
1.78968e-10
1.79021e-10
1.79074e-10
1.79128e-10
1.79182e-10
1.79238e-10
1.79294e-10
1.7935e-10
1.79408e-10
1.79466e-10
1.79525e-10
1.79585e-10
1.79646e-10
1.79707e-10
1.79769e-10
1.79831e-10
1.79895e-10
1.7996e-10
1.80025e-10
1.80091e-10
1.80157e-10
1.80225e-10
1.80293e-10
1.80362e-10
1.80432e-10
1.80503e-10
1.80575e-10
1.80647e-10
1.80721e-10
1.80794e-10
1.8087e-10
1.80945e-10
1.81022e-10
1.811e-10
1.81178e-10
1.81258e-10
1.81338e-10
1.81419e-10
1.81501e-10
1.81585e-10
1.81668e-10
1.81754e-10
1.8184e-10
1.81927e-10
1.82015e-10
1.82104e-10
1.82195e-10
1.82286e-10
1.82379e-10
1.82473e-10
1.82568e-10
1.82664e-10
1.82761e-10
1.8286e-10
1.8296e-10
1.83062e-10
1.83165e-10
1.83269e-10
1.83375e-10
1.83483e-10
1.83592e-10
1.83703e-10
1.83816e-10
1.83931e-10
1.84047e-10
1.84166e-10
1.84286e-10
1.84409e-10
)
;
    }
    inandouthalf12
    {
        type            cyclic;
        value           nonuniform List<scalar> 
100
(
-1.7867e-10
-1.77677e-10
-1.7755e-10
-1.77691e-10
-1.7776e-10
-1.77785e-10
-1.77816e-10
-1.77854e-10
-1.77894e-10
-1.77933e-10
-1.77973e-10
-1.78012e-10
-1.78052e-10
-1.78093e-10
-1.78134e-10
-1.78175e-10
-1.78217e-10
-1.7826e-10
-1.78302e-10
-1.78346e-10
-1.7839e-10
-1.78435e-10
-1.7848e-10
-1.78526e-10
-1.78573e-10
-1.7862e-10
-1.78668e-10
-1.78716e-10
-1.78765e-10
-1.78815e-10
-1.78865e-10
-1.78917e-10
-1.78968e-10
-1.79021e-10
-1.79074e-10
-1.79128e-10
-1.79182e-10
-1.79238e-10
-1.79294e-10
-1.7935e-10
-1.79408e-10
-1.79466e-10
-1.79525e-10
-1.79585e-10
-1.79646e-10
-1.79707e-10
-1.79769e-10
-1.79831e-10
-1.79895e-10
-1.7996e-10
-1.80025e-10
-1.80091e-10
-1.80157e-10
-1.80225e-10
-1.80293e-10
-1.80362e-10
-1.80432e-10
-1.80503e-10
-1.80575e-10
-1.80647e-10
-1.80721e-10
-1.80794e-10
-1.8087e-10
-1.80945e-10
-1.81022e-10
-1.811e-10
-1.81178e-10
-1.81258e-10
-1.81338e-10
-1.81419e-10
-1.81501e-10
-1.81585e-10
-1.81668e-10
-1.81754e-10
-1.8184e-10
-1.81927e-10
-1.82015e-10
-1.82104e-10
-1.82195e-10
-1.82286e-10
-1.82379e-10
-1.82473e-10
-1.82568e-10
-1.82664e-10
-1.82761e-10
-1.8286e-10
-1.8296e-10
-1.83062e-10
-1.83165e-10
-1.83269e-10
-1.83375e-10
-1.83483e-10
-1.83592e-10
-1.83703e-10
-1.83816e-10
-1.83931e-10
-1.84047e-10
-1.84166e-10
-1.84286e-10
-1.84409e-10
)
;
    }
    inandouthalf21
    {
        type            cyclic;
        value           nonuniform List<scalar> 
100
(
1.84534e-10
1.84661e-10
1.84791e-10
1.84923e-10
1.85058e-10
1.85196e-10
1.85337e-10
1.8548e-10
1.85627e-10
1.85777e-10
1.85931e-10
1.86088e-10
1.86249e-10
1.86414e-10
1.86583e-10
1.86757e-10
1.86935e-10
1.87118e-10
1.87306e-10
1.87499e-10
1.87698e-10
1.87903e-10
1.88114e-10
1.88332e-10
1.88557e-10
1.8879e-10
1.89032e-10
1.89282e-10
1.89542e-10
1.89812e-10
1.90094e-10
1.90386e-10
1.90692e-10
1.91014e-10
1.91355e-10
1.91716e-10
1.92095e-10
1.92498e-10
1.92944e-10
1.93458e-10
1.94019e-10
1.94708e-10
2.01501e-10
2.12015e-10
2.48822e-10
1.44111e-09
5.20994e-07
9.46349e-07
8.40592e-07
7.79694e-07
7.49557e-07
7.4274e-07
7.52411e-07
7.72367e-07
7.97718e-07
8.25045e-07
8.52213e-07
8.78055e-07
9.02046e-07
9.24048e-07
9.44135e-07
9.62474e-07
9.79266e-07
9.94706e-07
1.00897e-06
1.02222e-06
1.03457e-06
1.04614e-06
1.05701e-06
1.06727e-06
1.07696e-06
1.08615e-06
1.09488e-06
1.10319e-06
1.1111e-06
1.11866e-06
1.12588e-06
1.13278e-06
1.1394e-06
1.14573e-06
1.15181e-06
1.15765e-06
1.16325e-06
1.16864e-06
1.17382e-06
1.1788e-06
1.1836e-06
1.18821e-06
1.19265e-06
1.19692e-06
1.20104e-06
1.205e-06
1.20881e-06
1.21247e-06
1.21599e-06
1.21937e-06
1.22261e-06
1.22571e-06
1.22869e-06
1.23153e-06
)
;
    }
    inandouthalf22
    {
        type            cyclic;
        value           nonuniform List<scalar> 
100
(
-1.84534e-10
-1.84661e-10
-1.84791e-10
-1.84923e-10
-1.85058e-10
-1.85196e-10
-1.85337e-10
-1.8548e-10
-1.85627e-10
-1.85777e-10
-1.85931e-10
-1.86088e-10
-1.86249e-10
-1.86414e-10
-1.86583e-10
-1.86757e-10
-1.86935e-10
-1.87118e-10
-1.87306e-10
-1.87499e-10
-1.87698e-10
-1.87903e-10
-1.88114e-10
-1.88332e-10
-1.88557e-10
-1.8879e-10
-1.89032e-10
-1.89282e-10
-1.89542e-10
-1.89812e-10
-1.90094e-10
-1.90386e-10
-1.90692e-10
-1.91014e-10
-1.91355e-10
-1.91716e-10
-1.92095e-10
-1.92498e-10
-1.92944e-10
-1.93458e-10
-1.94019e-10
-1.94708e-10
-2.01501e-10
-2.12015e-10
-2.48822e-10
-1.44111e-09
-5.20994e-07
-9.46349e-07
-8.40592e-07
-7.79694e-07
-7.49557e-07
-7.4274e-07
-7.52411e-07
-7.72367e-07
-7.97718e-07
-8.25045e-07
-8.52213e-07
-8.78055e-07
-9.02046e-07
-9.24048e-07
-9.44135e-07
-9.62474e-07
-9.79266e-07
-9.94706e-07
-1.00897e-06
-1.02222e-06
-1.03457e-06
-1.04614e-06
-1.05701e-06
-1.06727e-06
-1.07696e-06
-1.08615e-06
-1.09488e-06
-1.10319e-06
-1.1111e-06
-1.11866e-06
-1.12588e-06
-1.13278e-06
-1.1394e-06
-1.14573e-06
-1.15181e-06
-1.15765e-06
-1.16325e-06
-1.16864e-06
-1.17382e-06
-1.1788e-06
-1.1836e-06
-1.18821e-06
-1.19265e-06
-1.19692e-06
-1.20104e-06
-1.205e-06
-1.20881e-06
-1.21247e-06
-1.21599e-06
-1.21937e-06
-1.22261e-06
-1.22571e-06
-1.22869e-06
-1.23153e-06
)
;
    }
    inandouthalf31
    {
        type            cyclic;
        value           nonuniform List<scalar> 
110
(
1.23425e-06
1.26197e-06
1.29021e-06
1.31899e-06
1.34831e-06
1.37814e-06
1.4085e-06
1.43937e-06
1.47074e-06
1.5026e-06
1.53492e-06
1.56768e-06
1.60085e-06
1.63439e-06
1.66825e-06
1.70238e-06
1.73672e-06
1.7712e-06
1.80573e-06
1.84021e-06
1.87455e-06
1.90864e-06
1.94237e-06
1.97564e-06
2.00836e-06
2.04047e-06
2.07195e-06
2.10287e-06
2.13335e-06
2.16362e-06
2.19398e-06
2.22478e-06
2.2564e-06
2.28916e-06
2.32334e-06
2.35914e-06
2.39665e-06
2.43589e-06
2.47684e-06
2.51943e-06
2.5636e-06
2.60927e-06
2.6564e-06
2.70491e-06
2.75479e-06
2.80601e-06
2.85856e-06
2.91244e-06
2.96765e-06
3.02422e-06
3.08214e-06
3.14146e-06
3.20219e-06
3.26437e-06
3.32804e-06
3.39322e-06
3.45997e-06
3.52834e-06
3.59837e-06
3.67014e-06
3.7437e-06
3.81914e-06
3.89655e-06
3.97601e-06
4.05763e-06
4.14153e-06
4.22781e-06
4.31659e-06
4.40796e-06
4.502e-06
4.59915e-06
4.6985e-06
4.79496e-06
4.89231e-06
4.99161e-06
5.09292e-06
5.1963e-06
5.30177e-06
5.40938e-06
5.51917e-06
5.6312e-06
5.7455e-06
5.86212e-06
5.9811e-06
6.1025e-06
6.22637e-06
6.35274e-06
6.48169e-06
6.61325e-06
6.74748e-06
6.88444e-06
7.02417e-06
7.16674e-06
7.31221e-06
7.46063e-06
7.61206e-06
7.76656e-06
7.92421e-06
8.08505e-06
8.24915e-06
8.41659e-06
8.58742e-06
8.76172e-06
8.93956e-06
9.12101e-06
9.30614e-06
9.49503e-06
9.68776e-06
9.88439e-06
1.0085e-05
)
;
    }
    inandouthalf32
    {
        type            cyclic;
        value           nonuniform List<scalar> 
110
(
-1.23425e-06
-1.26197e-06
-1.29021e-06
-1.31899e-06
-1.34831e-06
-1.37814e-06
-1.4085e-06
-1.43937e-06
-1.47074e-06
-1.5026e-06
-1.53492e-06
-1.56768e-06
-1.60085e-06
-1.63439e-06
-1.66825e-06
-1.70238e-06
-1.73672e-06
-1.7712e-06
-1.80573e-06
-1.84021e-06
-1.87455e-06
-1.90864e-06
-1.94237e-06
-1.97564e-06
-2.00836e-06
-2.04047e-06
-2.07195e-06
-2.10287e-06
-2.13335e-06
-2.16362e-06
-2.19398e-06
-2.22478e-06
-2.2564e-06
-2.28916e-06
-2.32334e-06
-2.35914e-06
-2.39665e-06
-2.43589e-06
-2.47684e-06
-2.51943e-06
-2.5636e-06
-2.60927e-06
-2.6564e-06
-2.70491e-06
-2.75479e-06
-2.80601e-06
-2.85856e-06
-2.91244e-06
-2.96765e-06
-3.02422e-06
-3.08214e-06
-3.14146e-06
-3.20219e-06
-3.26437e-06
-3.32804e-06
-3.39322e-06
-3.45997e-06
-3.52834e-06
-3.59837e-06
-3.67014e-06
-3.7437e-06
-3.81914e-06
-3.89655e-06
-3.97601e-06
-4.05763e-06
-4.14153e-06
-4.22781e-06
-4.31659e-06
-4.40796e-06
-4.502e-06
-4.59915e-06
-4.6985e-06
-4.79496e-06
-4.89231e-06
-4.99161e-06
-5.09292e-06
-5.1963e-06
-5.30177e-06
-5.40938e-06
-5.51917e-06
-5.6312e-06
-5.7455e-06
-5.86212e-06
-5.9811e-06
-6.1025e-06
-6.22637e-06
-6.35274e-06
-6.48169e-06
-6.61325e-06
-6.74748e-06
-6.88444e-06
-7.02417e-06
-7.16674e-06
-7.31221e-06
-7.46063e-06
-7.61206e-06
-7.76656e-06
-7.92421e-06
-8.08505e-06
-8.24915e-06
-8.41659e-06
-8.58742e-06
-8.76172e-06
-8.93956e-06
-9.12101e-06
-9.30614e-06
-9.49503e-06
-9.68776e-06
-9.88439e-06
-1.0085e-05
)
;
    }
    inandouthalf41
    {
        type            cyclic;
        value           nonuniform List<scalar> 
50
(
9.02712e-06
9.02712e-06
9.02712e-06
9.02712e-06
9.02712e-06
9.02712e-06
9.02712e-06
9.02712e-06
9.02712e-06
9.02712e-06
9.02712e-06
9.02712e-06
9.02712e-06
9.02712e-06
9.02712e-06
9.02712e-06
9.02712e-06
9.02712e-06
9.02712e-06
9.02712e-06
9.02712e-06
9.02712e-06
9.02712e-06
9.02712e-06
9.02712e-06
9.02712e-06
9.02712e-06
9.02712e-06
9.02712e-06
9.02712e-06
9.02712e-06
9.02712e-06
9.02712e-06
9.02712e-06
9.02712e-06
9.02712e-06
9.02712e-06
9.02712e-06
9.02712e-06
9.02712e-06
9.02712e-06
9.02712e-06
9.02712e-06
9.02712e-06
9.02712e-06
9.02712e-06
9.02712e-06
9.02712e-06
9.02712e-06
9.02712e-06
)
;
    }
    inandouthalf42
    {
        type            cyclic;
        value           nonuniform List<scalar> 
50
(
-9.02712e-06
-9.02712e-06
-9.02712e-06
-9.02712e-06
-9.02712e-06
-9.02712e-06
-9.02712e-06
-9.02712e-06
-9.02712e-06
-9.02712e-06
-9.02712e-06
-9.02712e-06
-9.02712e-06
-9.02712e-06
-9.02712e-06
-9.02712e-06
-9.02712e-06
-9.02712e-06
-9.02712e-06
-9.02712e-06
-9.02712e-06
-9.02712e-06
-9.02712e-06
-9.02712e-06
-9.02712e-06
-9.02712e-06
-9.02712e-06
-9.02712e-06
-9.02712e-06
-9.02712e-06
-9.02712e-06
-9.02712e-06
-9.02712e-06
-9.02712e-06
-9.02712e-06
-9.02712e-06
-9.02712e-06
-9.02712e-06
-9.02712e-06
-9.02712e-06
-9.02712e-06
-9.02712e-06
-9.02712e-06
-9.02712e-06
-9.02712e-06
-9.02712e-06
-9.02712e-06
-9.02712e-06
-9.02712e-06
-9.02712e-06
)
;
    }
    top
    {
        type            symmetryPlane;
        value           uniform 0;
    }
    walls
    {
        type            calculated;
        value           uniform 0;
    }
    frontAndBackPlanes
    {
        type            empty;
        value           nonuniform 0();
    }
}


// ************************************************************************* //
