/*--------------------------------*- C++ -*----------------------------------*\
| =========                 |                                                 |
| \\      /  F ield         | OpenFOAM: The Open Source CFD Toolbox           |
|  \\    /   O peration     | Version:  2.4.x                                 |
|   \\  /    A nd           | Web:      www.OpenFOAM.org                      |
|    \\/     M anipulation  |                                                 |
\*---------------------------------------------------------------------------*/
FoamFile
{
    version     2.0;
    format      ascii;
    class       volScalarField;
    location    "9.9";
    object      ddt0(((1.5*(alpha+1e-08))*rho),Theta);
}
// * * * * * * * * * * * * * * * * * * * * * * * * * * * * * * * * * * * * * //

dimensions      [1 -1 -3 0 0 0 0];

internalField   nonuniform List<scalar> 
360
(
-8.77293e-23
-2.90576e-22
-1.95059e-22
-1.78769e-22
-2.00231e-22
-2.16992e-22
-2.2679e-22
-2.37062e-22
-2.50013e-22
-2.65292e-22
-2.82297e-22
-3.00475e-22
-3.19528e-22
-3.39353e-22
-3.59944e-22
-3.81301e-22
-4.03307e-22
-4.25798e-22
-4.48716e-22
-4.7198e-22
-4.95472e-22
-5.19218e-22
-5.4319e-22
-5.67282e-22
-5.91436e-22
-6.1555e-22
-6.39618e-22
-6.6368e-22
-6.87574e-22
-7.11158e-22
-7.34506e-22
-7.57495e-22
-7.8005e-22
-8.02254e-22
-8.23861e-22
-8.44707e-22
-8.64892e-22
-8.84535e-22
-9.03294e-22
-9.20977e-22
-9.37938e-22
-9.53755e-22
-9.68283e-22
-9.81931e-22
-9.94432e-22
-1.00564e-21
-1.01526e-21
-1.02311e-21
-1.02999e-21
-1.03572e-21
-1.03951e-21
-1.04168e-21
-1.04243e-21
-1.04149e-21
-1.03894e-21
-1.03485e-21
-1.02902e-21
-1.0215e-21
-1.01205e-21
-1.00092e-21
-9.88657e-22
-9.75032e-22
-9.60034e-22
-9.43605e-22
-9.25613e-22
-9.06288e-22
-8.8587e-22
-8.6425e-22
-8.41197e-22
-8.17206e-22
-7.92958e-22
-7.68061e-22
-7.42274e-22
-7.16205e-22
-6.90053e-22
-6.63556e-22
-6.36543e-22
-6.09249e-22
-5.81999e-22
-5.54827e-22
-5.27817e-22
-5.01224e-22
-4.75188e-22
-4.49722e-22
-4.24847e-22
-4.00575e-22
-3.76894e-22
-3.53788e-22
-3.313e-22
-3.09511e-22
-2.88483e-22
-2.68274e-22
-2.48939e-22
-2.30495e-22
-2.12928e-22
-1.96217e-22
-1.80332e-22
-1.65245e-22
-1.50933e-22
-1.37379e-22
-1.24567e-22
-1.12478e-22
-1.01094e-22
-9.03952e-23
-8.03588e-23
-7.09624e-23
-6.21835e-23
-5.39972e-23
-4.63742e-23
-3.92772e-23
-3.26576e-23
-2.64542e-23
-2.05914e-23
-1.49827e-23
-9.53413e-24
-4.15289e-24
1.24219e-24
6.70841e-24
1.22653e-23
1.78779e-23
2.34401e-23
2.8757e-23
3.35369e-23
3.74065e-23
3.99694e-23
3.72791e-23
2.01734e-17
-7.57714e-17
-1.07269e-15
-7.29202e-15
-3.93174e-14
-1.87198e-13
-8.30803e-13
-3.58962e-12
-1.56439e-11
-7.01936e-11
-3.28702e-10
-1.65657e-09
-9.45787e-09
-6.36703e-08
-5.16265e-07
-5.19697e-06
-7.11712e-05
-0.00173237
-0.0730687
-1.2876
-11.3632
-12.8817
-5.73741
-3.63186
-2.99244
-2.6908
-2.38561
-2.04794
-1.72121
-1.43881
-1.21052
-1.03168
-0.892023
-0.781502
-0.692001
-0.617563
-0.554166
-0.499095
-0.450586
-0.407319
-0.36847
-0.333353
-0.301524
-0.272573
-0.246221
-0.222192
-0.200272
-0.180286
-0.162056
-0.145437
-0.130295
-0.11651
-0.103989
-0.092614
-0.0822972
-0.0729565
-0.0645115
-0.0568912
-0.0500268
-0.0438565
-0.0383212
-0.0333661
-0.0289397
-0.0249939
-0.0214836
-0.0183675
-0.0156077
-0.0131708
-0.0110278
-0.0091534
-0.00752506
-0.00612135
-0.0049216
-0.00390514
-0.00305022
-0.0023286
-0.00171887
-0.00120921
-0.000788597
-0.000446843
-0.000174569
3.68829e-05
0.000195446
0.000308407
0.000382408
0.000423499
0.000437232
0.000428885
0.000403696
0.00036698
0.000323944
0.000279212
0.00023632
0.000197433
0.000163669
0.000134906
0.000110753
9.0581e-05
7.37645e-05
5.9722e-05
4.80156e-05
3.81936e-05
3.01068e-05
2.32464e-05
1.78291e-05
1.31003e-05
9.6623e-06
6.45233e-06
4.41337e-06
2.22784e-06
0
0
0
0
0
0
0
0
0
0
0
0
0
0
0
0
0
0
0
0
0
0
0
0
0
0
0
0
0
0
0
0
0
0
0
0
0
0
0
0
0
0
0
0
0
0
0
0
0
0
0
0
0
0
0
0
0
0
0
0
0
0
0
0
0
0
0
0
0
0
0
0
0
0
0
0
0
0
0
0
0
0
0
0
0
0
0
0
0
0
0
0
0
0
0
0
0
0
0
0
0
0
0
0
0
0
0
0
0
0
0
0
0
0
0
0
0
0
0
0
0
0
0
0
)
;

boundaryField
{
    inandouthalf11
    {
        type            cyclic;
    }
    inandouthalf12
    {
        type            cyclic;
    }
    inandouthalf21
    {
        type            cyclic;
    }
    inandouthalf22
    {
        type            cyclic;
    }
    inandouthalf31
    {
        type            cyclic;
    }
    inandouthalf32
    {
        type            cyclic;
    }
    inandouthalf41
    {
        type            cyclic;
    }
    inandouthalf42
    {
        type            cyclic;
    }
    top
    {
        type            symmetryPlane;
    }
    walls
    {
        type            calculated;
        value           uniform -8.77293e-23;
    }
    frontAndBackPlanes
    {
        type            empty;
    }
}


// ************************************************************************* //
