/*--------------------------------*- C++ -*----------------------------------*\
| =========                 |                                                 |
| \\      /  F ield         | OpenFOAM: The Open Source CFD Toolbox           |
|  \\    /   O peration     | Version:  2.4.x                                 |
|   \\  /    A nd           | Web:      www.OpenFOAM.org                      |
|    \\/     M anipulation  |                                                 |
\*---------------------------------------------------------------------------*/
FoamFile
{
    version     2.0;
    format      ascii;
    class       volVectorField;
    location    "9.9";
    object      gradPs;
}
// * * * * * * * * * * * * * * * * * * * * * * * * * * * * * * * * * * * * * //

dimensions      [0 1 -2 0 0 0 0];

internalField   nonuniform List<vector> 
360
(
(0 1.54802e-18 0)
(0 1.70837e-18 0)
(0 1.5856e-21 0)
(0 -2.36853e-19 0)
(-1.4503e-32 -9.98271e-20 0)
(-2.90065e-32 -5.41991e-20 0)
(-2.90073e-32 -6.94937e-20 0)
(0 -7.94723e-20 0)
(-1.45047e-32 -8.08914e-20 0)
(0 -8.16428e-20 0)
(-1.45058e-32 -8.19512e-20 0)
(0 -8.22795e-20 0)
(-1.45069e-32 -8.29869e-20 0)
(0 -8.37268e-20 0)
(0 -8.4707e-20 0)
(0 -8.57072e-20 0)
(0 -8.65087e-20 0)
(-1.45097e-32 -8.72377e-20 0)
(0 -8.8335e-20 0)
(0 -8.91144e-20 0)
(0 -8.99275e-20 0)
(-1.45121e-32 -9.10835e-20 0)
(0 -9.19303e-20 0)
(0 -9.29112e-20 0)
(0 -9.39163e-20 0)
(-2.90291e-32 -9.47323e-20 0)
(0 -9.58416e-20 0)
(0 -9.69923e-20 0)
(0 -9.78201e-20 0)
(0 -9.87839e-20 0)
(0 -1.00126e-19 0)
(0 -1.00832e-19 0)
(0 -1.02076e-19 0)
(0 -1.03345e-19 0)
(0 -1.04152e-19 0)
(2.90424e-32 -1.05301e-19 0)
(0 -1.06395e-19 0)
(0 -1.0802e-19 0)
(0 -1.08549e-19 0)
(0 -1.09865e-19 0)
(0 -1.1165e-19 0)
(0 -1.12017e-19 0)
(1.45263e-32 -1.13633e-19 0)
(0 -1.15112e-19 0)
(0 -1.1605e-19 0)
(0 -1.17821e-19 0)
(0 -1.18562e-19 0)
(0 -1.19707e-19 0)
(0 -1.22102e-19 0)
(0 -1.22938e-19 0)
(1.45327e-32 -1.24029e-19 0)
(0 -1.25875e-19 0)
(0 -1.27363e-19 0)
(0 -1.28556e-19 0)
(0 -1.30385e-19 0)
(0 -1.31888e-19 0)
(0 -1.33317e-19 0)
(0 -1.35356e-19 0)
(0 -1.36187e-19 0)
(0 -1.3846e-19 0)
(0 -1.40248e-19 0)
(0 -1.41749e-19 0)
(0 -1.43855e-19 0)
(0 -1.45436e-19 0)
(0 -1.47248e-19 0)
(0 -1.49213e-19 0)
(0 -1.51469e-19 0)
(0 -1.53325e-19 0)
(0 -1.54801e-19 0)
(0 -1.57258e-19 0)
(0 -1.60187e-19 0)
(0 -1.61471e-19 0)
(0 -1.63662e-19 0)
(0 -1.66476e-19 0)
(0 -1.68901e-19 0)
(0 -1.71204e-19 0)
(0 -1.73287e-19 0)
(0 -1.76113e-19 0)
(0 -1.78891e-19 0)
(0 -1.81369e-19 0)
(0 -1.84076e-19 0)
(0 -1.87147e-19 0)
(0 -1.9006e-19 0)
(0 -1.9307e-19 0)
(0 -1.96181e-19 0)
(0 -1.99411e-19 0)
(0 -2.02684e-19 0)
(0 -2.05953e-19 0)
(0 -2.09466e-19 0)
(0 -2.13098e-19 0)
(0 -2.16783e-19 0)
(0 -2.20663e-19 0)
(0 -2.24712e-19 0)
(0 -2.28841e-19 0)
(0 -2.33105e-19 0)
(0 -2.3751e-19 0)
(0 -2.42046e-19 0)
(0 -2.46734e-19 0)
(0 -2.51602e-19 0)
(0 -2.56657e-19 0)
(0 -2.61903e-19 0)
(0 -2.67361e-19 0)
(0 -2.73032e-19 0)
(0 -2.78913e-19 0)
(0 -2.85018e-19 0)
(0 -2.91357e-19 0)
(0 -2.97942e-19 0)
(0 -3.04788e-19 0)
(0 -3.11909e-19 0)
(0 -3.19319e-19 0)
(0 -3.27031e-19 0)
(0 -3.35064e-19 0)
(0 -3.43434e-19 0)
(0 -3.52166e-19 0)
(0 -3.61284e-19 0)
(0 -3.70819e-19 0)
(0 -3.80807e-19 0)
(0 -3.9129e-19 0)
(0 -4.02316e-19 0)
(0 -4.13937e-19 0)
(0 -4.26202e-19 0)
(0 -4.39157e-19 0)
(0 -4.52837e-19 0)
(0 -4.67285e-19 0)
(0 -4.82318e-19 0)
(0 3.30465e-16 0)
(0 1.89604e-15 0)
(0 7.96521e-15 0)
(0 3.13859e-14 0)
(0 1.1913e-13 0)
(0 4.39552e-13 0)
(0 1.59651e-12 0)
(0 5.80392e-12 0)
(0 2.14811e-11 0)
(0 8.21801e-11 0)
(0 3.31277e-10 0)
(0 1.45388e-09 0)
(0 7.24461e-09 0)
(0 4.24851e-08 0)
(0 3.0282e-07 0)
(0 2.73799e-06 0)
(0 3.31546e-05 0)
(0 0.000626829 0)
(0 0.0234613 0)
(0 0.546316 0)
(0 2.42162 0)
(0 2.83169 0)
(0 0.175576 0)
(0 -1.50805 0)
(0 -2.13478 0)
(0 -2.19105 0)
(0 -2.06446 0)
(0 -1.90996 0)
(0 -1.77688 0)
(0 -1.66805 0)
(0 -1.5809 0)
(0 -1.51141 0)
(0 -1.45596 0)
(0 -1.41156 0)
(0 -1.37564 0)
(0 -1.34665 0)
(0 -1.32321 0)
(0 -1.30417 0)
(0 -1.28866 0)
(0 -1.27618 0)
(0 -1.26629 0)
(0 -1.25857 0)
(0 -1.25273 0)
(0 -1.24848 0)
(0 -1.24564 0)
(0 -1.244 0)
(0 -1.24346 0)
(0 -1.24379 0)
(0 -1.2449 0)
(0 -1.24676 0)
(0 -1.24923 0)
(0 -1.2522 0)
(0 -1.25566 0)
(0 -1.25956 0)
(0 -1.26385 0)
(0 -1.26853 0)
(0 -1.27358 0)
(0 -1.27901 0)
(0 -1.28483 0)
(0 -1.29108 0)
(0 -1.2978 0)
(0 -1.3051 0)
(0 -1.31311 0)
(0 -1.32201 0)
(0 -1.33202 0)
(0 -1.34331 0)
(0 -1.35579 0)
(0 -1.36882 0)
(0 -1.38092 0)
(0 -1.38979 0)
(0 -1.39276 0)
(0 -1.38778 0)
(0 -1.37453 0)
(0 -1.355 0)
(0 -1.33236 0)
(0 -1.30898 0)
(0 -1.286 0)
(-3.50714e-16 -1.26364 0)
(0 -1.24214 0)
(0 -1.22166 0)
(4.46371e-16 -1.20235 0)
(0 -1.18446 0)
(-5.2897e-16 -1.16848 0)
(0 -1.15529 0)
(3.16701e-16 -1.14625 0)
(0 -1.14311 0)
(0 -1.14757 0)
(0 -1.16028 0)
(0 -1.17963 0)
(0 -1.20086 0)
(0 -1.21627 0)
(0 -1.21715 0)
(0 -1.19675 0)
(0 -1.15293 0)
(-2.86426e-16 -1.08876 0)
(0 -1.01089 0)
(-1.92267e-16 -0.926852 0)
(0 -0.842891 0)
(-2.50564e-16 -0.763033 0)
(0 -0.689227 0)
(0 -0.621537 0)
(0 -0.560399 0)
(0 -0.502616 0)
(1.06829e-16 -0.450549 0)
(1.16985e-16 -0.398639 0)
(0 -0.35123 0)
(0 -0.304125 0)
(0 -0.260241 0)
(0 -0.220734 0)
(0 -0.182207 0)
(0 -0.204371 0)
(0 -0.0990487 0)
(0 0 0)
(0 0 0)
(0 0 0)
(0 0 0)
(0 0 0)
(0 0 0)
(0 0 0)
(0 0 0)
(0 0 0)
(0 0 0)
(0 0 0)
(0 0 0)
(0 0 0)
(0 0 0)
(0 0 0)
(0 0 0)
(0 0 0)
(0 0 0)
(0 0 0)
(0 0 0)
(0 0 0)
(0 0 0)
(0 0 0)
(0 0 0)
(0 0 0)
(0 0 0)
(0 0 0)
(0 0 0)
(0 0 0)
(0 0 0)
(0 0 0)
(0 0 0)
(0 0 0)
(0 0 0)
(0 0 0)
(0 0 0)
(0 0 0)
(0 0 0)
(0 0 0)
(0 0 0)
(0 0 0)
(0 0 0)
(0 0 0)
(0 0 0)
(0 0 0)
(0 0 0)
(0 0 0)
(0 0 0)
(0 0 0)
(0 0 0)
(0 0 0)
(0 0 0)
(0 0 0)
(0 0 0)
(0 0 0)
(0 0 0)
(0 0 0)
(0 0 0)
(0 0 0)
(0 0 0)
(0 0 0)
(0 0 0)
(0 0 0)
(0 0 0)
(0 0 0)
(0 0 0)
(0 0 0)
(0 0 0)
(0 0 0)
(0 0 0)
(0 0 0)
(0 0 0)
(0 0 0)
(0 0 0)
(0 0 0)
(0 0 0)
(0 0 0)
(0 0 0)
(0 0 0)
(0 0 0)
(0 0 0)
(0 0 0)
(0 0 0)
(0 0 0)
(0 0 0)
(0 0 0)
(0 0 0)
(0 0 0)
(0 0 0)
(0 0 0)
(0 0 0)
(0 0 0)
(0 0 0)
(0 0 0)
(0 0 0)
(0 0 0)
(0 0 0)
(0 0 0)
(0 0 0)
(0 0 0)
(0 0 0)
(0 0 0)
(0 0 0)
(0 0 0)
(0 0 0)
(0 0 0)
(0 0 0)
(0 0 0)
(0 0 0)
(0 0 0)
(0 0 0)
(0 0 0)
(0 0 0)
(0 0 0)
(0 0 0)
(0 0 0)
(0 0 0)
(0 0 0)
(0 0 0)
(0 0 0)
(0 0 0)
(0 0 0)
(0 0 0)
)
;

boundaryField
{
    inandouthalf11
    {
        type            cyclic;
    }
    inandouthalf12
    {
        type            cyclic;
    }
    inandouthalf21
    {
        type            cyclic;
    }
    inandouthalf22
    {
        type            cyclic;
    }
    inandouthalf31
    {
        type            cyclic;
    }
    inandouthalf32
    {
        type            cyclic;
    }
    inandouthalf41
    {
        type            cyclic;
    }
    inandouthalf42
    {
        type            cyclic;
    }
    top
    {
        type            symmetryPlane;
    }
    walls
    {
        type            calculated;
        value           uniform (0 0 0);
    }
    frontAndBackPlanes
    {
        type            empty;
    }
}


// ************************************************************************* //
