/*--------------------------------*- C++ -*----------------------------------*\
| =========                 |                                                 |
| \\      /  F ield         | OpenFOAM: The Open Source CFD Toolbox           |
|  \\    /   O peration     | Version:  2.4.x                                 |
|   \\  /    A nd           | Web:      www.OpenFOAM.org                      |
|    \\/     M anipulation  |                                                 |
\*---------------------------------------------------------------------------*/
FoamFile
{
    version     2.0;
    format      ascii;
    class       volScalarField;
    location    "9.9";
    object      k;
}
// * * * * * * * * * * * * * * * * * * * * * * * * * * * * * * * * * * * * * //

dimensions      [0 2 -2 0 0 0 0];

internalField   nonuniform List<scalar> 
360
(
1e-20
1e-20
1e-20
1e-20
1e-20
1e-20
1e-20
1e-20
1e-20
1e-20
1e-20
1e-20
1e-20
1e-20
1e-20
1e-20
1e-20
1e-20
1e-20
1e-20
1e-20
1e-20
1e-20
1e-20
1e-20
1e-20
1e-20
1e-20
1e-20
1e-20
1e-20
1e-20
1e-20
1e-20
1e-20
1e-20
1e-20
1e-20
1e-20
1e-20
1e-20
1e-20
1e-20
1e-20
1e-20
1e-20
1e-20
1e-20
1e-20
1e-20
1e-20
1e-20
1e-20
1e-20
1e-20
1e-20
1e-20
1e-20
1e-20
1e-20
1e-20
1e-20
1e-20
1e-20
1e-20
1e-20
1e-20
1e-20
1e-20
1e-20
1e-20
1e-20
1e-20
1e-20
1e-20
1e-20
1e-20
1e-20
1e-20
1e-20
1e-20
1e-20
1e-20
1e-20
1e-20
1e-20
1e-20
1e-20
1e-20
1e-20
1e-20
1e-20
1e-20
1e-20
1e-20
1e-20
1e-20
1e-20
1e-20
1e-20
1e-20
1e-20
1e-20
1e-20
1e-20
1e-20
1e-20
1e-20
1e-20
1e-20
1e-20
1e-20
1e-20
1e-20
1e-20
1e-20
1e-20
1e-20
1e-20
1e-20
1e-20
1e-20
1e-20
1e-20
1e-20
1e-20
2.9355e-20
1.21029e-19
4.96275e-19
1.9631e-18
7.49718e-18
2.78299e-17
1.01587e-16
3.70418e-16
1.37167e-15
5.23796e-15
2.10302e-14
9.1692e-14
4.52842e-13
2.63097e-12
1.86047e-11
1.67123e-10
2.07021e-09
3.21069e-08
6.30476e-07
1.60363e-05
0.000392185
0.0025364
0.00423907
0.00514632
0.00580291
0.00635156
0.00683995
0.00728355
0.00768838
0.00805776
0.00839438
0.00870076
0.00897926
0.00923205
0.00946107
0.00966804
0.00985445
0.0100216
0.0101707
0.0103028
0.0104187
0.0105195
0.0106057
0.0106781
0.0107374
0.0107842
0.010819
0.0108423
0.0108546
0.0108565
0.0108482
0.0108303
0.010803
0.0107669
0.0107221
0.0106691
0.0106081
0.0105395
0.0104635
0.0103804
0.0102905
0.0101941
0.0100914
0.00998257
0.00986797
0.00974781
0.0096223
0.00949168
0.00935617
0.00921598
0.00907133
0.00892242
0.00876943
0.00861259
0.00845208
0.00828645
0.00811405
0.00793485
0.00774884
0.00755601
0.00735643
0.00715016
0.00693732
0.00671806
0.00649261
0.00626124
0.00602429
0.0057822
0.00553548
0.00528475
0.00503075
0.00477432
0.00451648
0.00425835
0.00400126
0.00374668
0.00349624
0.00325173
0.00301507
0.00278822
0.00257313
0.00237163
0.00218529
0.00201534
0.00186249
0.00172692
0.0016082
0.00150543
0.00141725
0.00134206
0.00127815
0.00122379
0.00117737
0.0011374
0.00110257
0.00107172
0.00104385
0.0010181
0.000993728
0.000970082
0.000946612
0.000922836
0.00089834
0.00087277
0.000845823
0.000817249
0.000786846
0.000754456
0.000719972
0.000683329
0.000644511
0.000603552
0.000560538
0.00051561
0.00046897
0.000420885
0.000371693
0.000321816
0.000271766
0.00022216
0.000173744
0.000127429
8.43621e-05
4.61382e-05
1.50773e-05
1.35156e-06
2.31902e-08
2.45449e-10
2.45099e-12
2.33419e-14
2.12325e-16
1.85349e-18
2.32905e-20
1e-20
1e-20
1e-20
1e-20
1e-20
1e-20
1e-20
1e-20
1e-20
1e-20
1e-20
1e-20
1e-20
1e-20
1e-20
1e-20
1e-20
1e-20
1e-20
1e-20
1e-20
1e-20
1e-20
1e-20
1e-20
1e-20
1e-20
1e-20
1e-20
1e-20
1e-20
1e-20
1e-20
1e-20
1e-20
1e-20
1e-20
1e-20
1e-20
1e-20
1e-20
1e-20
1e-20
1e-20
1e-20
1e-20
1e-20
1e-20
1e-20
1e-20
1e-20
1e-20
1e-20
1e-20
1e-20
1e-20
1e-20
1e-20
1e-20
1e-20
1e-20
1e-20
1e-20
1e-20
1e-20
1e-20
1e-20
1e-20
1e-20
1e-20
1e-20
1e-20
1e-20
1e-20
1e-20
1e-20
1e-20
1e-20
1e-20
1e-20
1e-20
)
;

boundaryField
{
    inandouthalf11
    {
        type            cyclic;
    }
    inandouthalf12
    {
        type            cyclic;
    }
    inandouthalf21
    {
        type            cyclic;
    }
    inandouthalf22
    {
        type            cyclic;
    }
    inandouthalf31
    {
        type            cyclic;
    }
    inandouthalf32
    {
        type            cyclic;
    }
    inandouthalf41
    {
        type            cyclic;
    }
    inandouthalf42
    {
        type            cyclic;
    }
    top
    {
        type            symmetryPlane;
    }
    walls
    {
        type            zeroGradient;
    }
    frontAndBackPlanes
    {
        type            empty;
    }
}


// ************************************************************************* //
