/*--------------------------------*- C++ -*----------------------------------*\
| =========                 |                                                 |
| \\      /  F ield         | OpenFOAM: The Open Source CFD Toolbox           |
|  \\    /   O peration     | Version:  2.4.x                                 |
|   \\  /    A nd           | Web:      www.OpenFOAM.org                      |
|    \\/     M anipulation  |                                                 |
\*---------------------------------------------------------------------------*/
FoamFile
{
    version     2.0;
    format      ascii;
    class       volScalarField;
    location    "9.9";
    object      mua;
}
// * * * * * * * * * * * * * * * * * * * * * * * * * * * * * * * * * * * * * //

dimensions      [1 -1 -1 0 0 0 0];

internalField   nonuniform List<scalar> 
360
(
1.01913e+07
7.39446e+06
9.52784e+06
1.00347e+07
9.718e+06
9.64962e+06
9.73717e+06
9.7925e+06
9.77978e+06
9.71178e+06
9.60475e+06
9.47281e+06
9.32273e+06
9.15849e+06
8.98224e+06
8.79618e+06
8.60381e+06
8.40868e+06
8.21248e+06
8.01649e+06
7.82321e+06
7.63209e+06
7.44418e+06
7.26045e+06
7.08125e+06
6.90729e+06
6.7386e+06
6.57443e+06
6.41581e+06
6.26309e+06
6.1155e+06
5.97301e+06
5.83643e+06
5.70378e+06
5.57689e+06
5.45507e+06
5.33812e+06
5.2249e+06
5.11613e+06
5.01284e+06
4.91224e+06
4.81626e+06
4.72491e+06
4.63595e+06
4.55083e+06
4.46899e+06
4.39086e+06
4.31722e+06
4.24521e+06
4.1752e+06
4.10952e+06
4.04628e+06
3.9855e+06
3.92725e+06
3.87179e+06
3.81798e+06
3.76722e+06
3.71831e+06
3.67234e+06
3.62887e+06
3.58606e+06
3.54549e+06
3.50624e+06
3.4691e+06
3.43403e+06
3.4009e+06
3.36906e+06
3.33899e+06
3.31137e+06
3.28552e+06
3.25963e+06
3.23503e+06
3.21289e+06
3.19118e+06
3.17022e+06
3.15036e+06
3.13272e+06
3.11664e+06
3.10153e+06
3.08761e+06
3.075e+06
3.063e+06
3.05143e+06
3.04043e+06
3.03003e+06
3.02036e+06
3.01158e+06
3.00398e+06
2.99756e+06
2.99208e+06
2.98741e+06
2.98333e+06
2.97952e+06
2.97587e+06
2.97236e+06
2.96904e+06
2.96597e+06
2.96322e+06
2.96077e+06
2.95852e+06
2.95634e+06
2.95404e+06
2.95141e+06
2.94831e+06
2.94458e+06
2.94012e+06
2.93487e+06
2.92876e+06
2.92177e+06
2.91389e+06
2.90512e+06
2.89543e+06
2.88479e+06
2.87307e+06
2.86005e+06
2.84541e+06
2.82876e+06
2.80972e+06
2.78809e+06
2.76409e+06
2.73867e+06
2.7138e+06
2.69269e+06
2.67976e+06
2.68035e+06
2.69998e+06
2.7432e+06
2.81186e+06
2.9027e+06
3.0036e+06
3.08893e+06
3.11632e+06
3.03412e+06
2.81121e+06
2.47854e+06
2.13526e+06
1.90331e+06
1.90813e+06
2.39613e+06
4.34413e+06
1.3649e+07
6.32299e+07
28297.9
8807.79
5351.09
1.88705
0.0172813
0.0103806
0.00860188
0.0075161
0.0067577
0.00627161
0.00598632
0.00583171
0.0057598
0.00573944
0.00575065
0.00578098
0.0058222
0.00586922
0.00591863
0.00596813
0.00601627
0.00606213
0.00610518
0.00614499
0.00618143
0.00621437
0.00624382
0.0062698
0.00629241
0.00631169
0.00632777
0.00634078
0.0063508
0.00635795
0.00636235
0.00636412
0.00636336
0.00636018
0.00635468
0.00634695
0.00633708
0.00632517
0.00631129
0.00629552
0.00627793
0.00625859
0.00623756
0.00621489
0.00619064
0.00616483
0.0061375
0.00610868
0.00607839
0.00604664
0.00601344
0.00597883
0.00594281
0.00590544
0.00586677
0.00582645
0.0057841
0.00573969
0.00569322
0.00564469
0.00559409
0.00554144
0.00548674
0.00543
0.00537123
0.00531043
0.0052476
0.0051827
0.0051157
0.00504648
0.00497493
0.00490084
0.00482398
0.00474404
0.00466068
0.00457347
0.00448193
0.00438548
0.00428342
0.00417493
0.00405895
0.00393416
0.00379888
0.00365081
0.00348685
0.00330248
0.00309077
0.00284015
0.00252833
0.00210063
0
0
0
0
0
0
0
0
0
0
0
0
0
0
0
0
0
0
0
0
0
0
0
0
0
0
0
0
0
0
0
0
0
0
0
0
0
0
0
0
0
0
0
0
0
0
0
0
0
0
0
0
0
0
0
0
0
0
0
0
0
0
0
0
0
0
0
0
0
0
0
0
0
0
0
0
0
0
0
0
0
0
0
0
0
0
0
0
0
0
0
0
0
0
0
0
0
0
0
0
0
0
0
0
0
0
0
0
0
0
0
0
0
0
0
0
0
0
0
0
0
0
0
0
)
;

boundaryField
{
    inandouthalf11
    {
        type            cyclic;
    }
    inandouthalf12
    {
        type            cyclic;
    }
    inandouthalf21
    {
        type            cyclic;
    }
    inandouthalf22
    {
        type            cyclic;
    }
    inandouthalf31
    {
        type            cyclic;
    }
    inandouthalf32
    {
        type            cyclic;
    }
    inandouthalf41
    {
        type            cyclic;
    }
    inandouthalf42
    {
        type            cyclic;
    }
    top
    {
        type            symmetryPlane;
    }
    walls
    {
        type            calculated;
        value           uniform 1e+30;
    }
    frontAndBackPlanes
    {
        type            empty;
    }
}


// ************************************************************************* //
