/*--------------------------------*- C++ -*----------------------------------*\
| =========                 |                                                 |
| \\      /  F ield         | OpenFOAM: The Open Source CFD Toolbox           |
|  \\    /   O peration     | Version:  2.4.x                                 |
|   \\  /    A nd           | Web:      www.OpenFOAM.org                      |
|    \\/     M anipulation  |                                                 |
\*---------------------------------------------------------------------------*/
FoamFile
{
    version     2.0;
    format      ascii;
    class       volTensorField;
    location    "9.9";
    object      Taus;
}
// * * * * * * * * * * * * * * * * * * * * * * * * * * * * * * * * * * * * * //

dimensions      [0 2 -2 0 0 0 0];

internalField   nonuniform List<tensor> 
360
(
(0 0.00236786 0 0.00236786 -0.21022 0 0 0 0)
(0 0.00364789 0 0.00364789 -0.268079 0 0 0 0)
(0 0.00480512 0 0.00480512 -0.275079 0 0 0 0)
(0 0.00502039 0 0.00502039 -0.268137 0 0 0 0)
(-1.18229e-18 0.00520926 0 0.00520926 -0.264911 0 0 0 0)
(-4.69598e-18 0.00553351 0 0.00553351 -0.263886 0 0 0 0)
(-2.36936e-18 0.00586894 0 0.00586894 -0.262599 0 0 0 0)
(0 0.00617665 0 0.00617665 -0.26095 0 0 0 0)
(-4.75979e-18 0.00647001 0 0.00647001 -0.259266 0 0 0 0)
(0 0.0067558 0 0.0067558 -0.257577 0 0 0 0)
(-4.67496e-18 0.00703515 0 0.00703515 -0.255883 0 0 0 0)
(0 0.00730939 0 0.00730939 -0.254202 0 0 0 0)
(-4.53803e-18 0.00757805 0 0.00757805 -0.252516 0 0 0 0)
(0 0.00784126 0 0.00784126 -0.250828 0 0 0 0)
(0 0.00809889 0 0.00809889 -0.249133 0 0 0 0)
(0 0.00835082 0 0.00835082 -0.247429 0 0 0 0)
(0 0.00859751 0 0.00859751 -0.245718 0 0 0 0)
(-1.63756e-17 0.00883964 0 0.00883964 -0.244005 0 0 0 0)
(0 0.00907707 0 0.00907707 -0.242288 0 0 0 0)
(0 0.00930948 0 0.00930948 -0.240557 0 0 0 0)
(0 0.00953827 0 0.00953827 -0.238834 0 0 0 0)
(-7.4328e-18 0.00976223 0 0.00976223 -0.237096 0 0 0 0)
(0 0.00998194 0 0.00998194 -0.235355 0 0 0 0)
(0 0.0101977 0 0.0101977 -0.23361 0 0 0 0)
(0 0.0104093 0 0.0104093 -0.231857 0 0 0 0)
(-1.34562e-17 0.0106173 0 0.0106173 -0.230101 0 0 0 0)
(0 0.0108217 0 0.0108217 -0.228344 0 0 0 0)
(0 0.0110216 0 0.0110216 -0.226574 0 0 0 0)
(0 0.011218 0 0.011218 -0.224803 0 0 0 0)
(0 0.0114113 0 0.0114113 -0.223031 0 0 0 0)
(0 0.0116006 0 0.0116006 -0.221253 0 0 0 0)
(0 0.011786 0 0.011786 -0.219461 0 0 0 0)
(0 0.0119693 0 0.0119693 -0.217687 0 0 0 0)
(0 0.0121471 0 0.0121471 -0.215881 0 0 0 0)
(0 0.0123228 0 0.0123228 -0.214092 0 0 0 0)
(2.12639e-17 0.0124948 0 0.0124948 -0.212288 0 0 0 0)
(0 0.012664 0 0.012664 -0.210489 0 0 0 0)
(0 0.0128287 0 0.0128287 -0.208679 0 0 0 0)
(0 0.0129898 0 0.0129898 -0.206858 0 0 0 0)
(0 0.0131501 0 0.0131501 -0.205061 0 0 0 0)
(0 0.0133039 0 0.0133039 -0.203228 0 0 0 0)
(0 0.0134557 0 0.0134557 -0.201406 0 0 0 0)
(1.84242e-17 0.0136057 0 0.0136057 -0.199593 0 0 0 0)
(0 0.0137499 0 0.0137499 -0.197752 0 0 0 0)
(0 0.0138922 0 0.0138922 -0.195927 0 0 0 0)
(0 0.0140305 0 0.0140305 -0.19409 0 0 0 0)
(0 0.0141651 0 0.0141651 -0.192244 0 0 0 0)
(0 0.0142994 0 0.0142994 -0.190418 0 0 0 0)
(0 0.0144279 0 0.0144279 -0.188572 0 0 0 0)
(0 0.0145513 0 0.0145513 -0.186711 0 0 0 0)
(3.20631e-17 0.014675 0 0.014675 -0.184876 0 0 0 0)
(0 0.0147938 0 0.0147938 -0.183019 0 0 0 0)
(0 0.0149092 0 0.0149092 -0.181167 0 0 0 0)
(0 0.0150212 0 0.0150212 -0.179304 0 0 0 0)
(0 0.0151311 0 0.0151311 -0.177455 0 0 0 0)
(0 0.0152353 0 0.0152353 -0.175579 0 0 0 0)
(0 0.0153386 0 0.0153386 -0.173727 0 0 0 0)
(0 0.0154363 0 0.0154363 -0.171851 0 0 0 0)
(0 0.0155322 0 0.0155322 -0.169983 0 0 0 0)
(0 0.0156261 0 0.0156261 -0.168124 0 0 0 0)
(0 0.015713 0 0.015713 -0.166237 0 0 0 0)
(0 0.0157992 0 0.0157992 -0.164372 0 0 0 0)
(0 0.0158801 0 0.0158801 -0.162487 0 0 0 0)
(0 0.0159585 0 0.0159585 -0.16061 0 0 0 0)
(0 0.0160336 0 0.0160336 -0.158728 0 0 0 0)
(0 0.0161057 0 0.0161057 -0.156848 0 0 0 0)
(0 0.0161731 0 0.0161731 -0.154961 0 0 0 0)
(0 0.0162367 0 0.0162367 -0.153071 0 0 0 0)
(0 0.0162984 0 0.0162984 -0.151184 0 0 0 0)
(0 0.0163579 0 0.0163579 -0.149303 0 0 0 0)
(0 0.0164099 0 0.0164099 -0.147404 0 0 0 0)
(0 0.0164585 0 0.0164585 -0.145504 0 0 0 0)
(0 0.0165076 0 0.0165076 -0.143622 0 0 0 0)
(0 0.0165502 0 0.0165502 -0.141719 0 0 0 0)
(0 0.016589 0 0.016589 -0.139823 0 0 0 0)
(0 0.0166233 0 0.0166233 -0.137917 0 0 0 0)
(0 0.0166563 0 0.0166563 -0.13602 0 0 0 0)
(0 0.0166854 0 0.0166854 -0.13412 0 0 0 0)
(0 0.0167099 0 0.0167099 -0.132215 0 0 0 0)
(0 0.0167306 0 0.0167306 -0.130309 0 0 0 0)
(0 0.0167488 0 0.0167488 -0.128406 0 0 0 0)
(0 0.0167624 0 0.0167624 -0.126498 0 0 0 0)
(0 0.0167719 0 0.0167719 -0.124589 0 0 0 0)
(0 0.0167778 0 0.0167778 -0.12268 0 0 0 0)
(0 0.0167798 0 0.0167798 -0.120768 0 0 0 0)
(0 0.0167782 0 0.0167782 -0.118856 0 0 0 0)
(0 0.0167727 0 0.0167727 -0.116942 0 0 0 0)
(0 0.0167639 0 0.0167639 -0.115028 0 0 0 0)
(0 0.0167517 0 0.0167517 -0.113114 0 0 0 0)
(0 0.0167355 0 0.0167355 -0.111198 0 0 0 0)
(0 0.0167157 0 0.0167157 -0.109281 0 0 0 0)
(0 0.0166922 0 0.0166922 -0.107364 0 0 0 0)
(0 0.0166647 0 0.0166647 -0.105445 0 0 0 0)
(0 0.0166332 0 0.0166332 -0.103524 0 0 0 0)
(0 0.0165981 0 0.0165981 -0.101603 0 0 0 0)
(0 0.0165593 0 0.0165593 -0.0996811 0 0 0 0)
(0 0.0165169 0 0.0165169 -0.0977581 0 0 0 0)
(0 0.0164711 0 0.0164711 -0.0958344 0 0 0 0)
(0 0.016422 0 0.016422 -0.0939099 0 0 0 0)
(0 0.0163696 0 0.0163696 -0.0919847 0 0 0 0)
(0 0.0163138 0 0.0163138 -0.0900586 0 0 0 0)
(0 0.0162547 0 0.0162547 -0.0881316 0 0 0 0)
(0 0.0161925 0 0.0161925 -0.0862036 0 0 0 0)
(0 0.0161271 0 0.0161271 -0.0842746 0 0 0 0)
(0 0.0160589 0 0.0160589 -0.0823448 0 0 0 0)
(0 0.0159879 0 0.0159879 -0.0804139 0 0 0 0)
(0 0.0159143 0 0.0159143 -0.078482 0 0 0 0)
(0 0.0158384 0 0.0158384 -0.0765492 0 0 0 0)
(0 0.0157604 0 0.0157604 -0.0746153 0 0 0 0)
(0 0.0156805 0 0.0156805 -0.0726803 0 0 0 0)
(0 0.0155989 0 0.0155989 -0.0707441 0 0 0 0)
(0 0.0155158 0 0.0155158 -0.0688067 0 0 0 0)
(0 0.0154317 0 0.0154317 -0.0668679 0 0 0 0)
(0 0.0153466 0 0.0153466 -0.0649275 0 0 0 0)
(0 0.015261 0 0.015261 -0.0629854 0 0 0 0)
(0 0.0151751 0 0.0151751 -0.0610413 0 0 0 0)
(0 0.0150891 0 0.0150891 -0.0590948 0 0 0 0)
(0 0.0150032 0 0.0150032 -0.0571456 0 0 0 0)
(0 0.0149178 0 0.0149178 -0.055193 0 0 0 0)
(0 0.0148326 0 0.0148326 -0.0532365 0 0 0 0)
(0 0.0147479 0 0.0147479 -0.0512754 0 0 0 0)
(0 0.0146632 0 0.0146632 -0.0493091 0 0 0 0)
(0 0.0145785 0 0.0145785 -0.047337 0 0 0 0)
(0 0.0144933 0 0.0144933 -0.0453585 0 0 0 0)
(0 0.0144073 0 0.0144073 -0.043373 0 0 0 0)
(0 0.0143198 0 0.0143198 -0.0413797 0 0 0 0)
(0 0.0142302 0 0.0142302 -0.0393771 0 0 0 0)
(0 0.0141372 0 0.0141372 -0.0373634 0 0 0 0)
(0 0.0140402 0 0.0140402 -0.0353356 0 0 0 0)
(0 0.0139398 0 0.0139398 -0.0332897 0 0 0 0)
(0 0.0138385 0 0.0138385 -0.0312211 0 0 0 0)
(0 0.0137382 0 0.0137382 -0.0291242 0 0 0 0)
(0 0.0136332 0 0.0136332 -0.0269958 0 0 0 0)
(0 0.013506 0 0.013506 -0.0248391 0 0 0 0)
(0 0.0133366 0 0.0133366 -0.0226674 0 0 0 0)
(0 0.0131203 0 0.0131203 -0.0204998 0 0 0 0)
(0 0.0128582 0 0.0128582 -0.0183588 0 0 0 0)
(0 0.0125285 0 0.0125285 -0.016269 0 0 0 0)
(0 0.0120834 0 0.0120834 -0.0142475 0 0 0 0)
(0 0.0115283 0 0.0115283 -0.0122089 0 0 0 0)
(0 0.0111213 0 0.0111213 -0.00953722 0 0 0 0)
(0 0.0108069 0 0.0108069 -0.00548718 0 0 0 0)
(0 0.000906055 0 0.000906055 -0.00647698 0 0 0 0)
(0 0.00124013 0 0.00124013 -0.00503451 0 0 0 0)
(0 0.00242965 0 0.00242965 -0.002948 0 0 0 0)
(0 0.00217983 0 0.00217983 -0.000313001 0 0 0 0)
(0 0.00122797 0 0.00122797 -9.81142e-05 0 0 0 0)
(0 0.00219096 0 0.00219096 -0.000108684 0 0 0 0)
(0 0.00197351 0 0.00197351 -4.39591e-05 0 0 0 0)
(0 0.00158755 0 0.00158755 -4.37121e-05 0 0 0 0)
(0 0.00136514 0 0.00136514 -4.36842e-05 0 0 0 0)
(0 0.0012522 0 0.0012522 -4.64212e-05 0 0 0 0)
(0 0.00120412 0 0.00120412 -4.92761e-05 0 0 0 0)
(0 0.00119745 0 0.00119745 -4.82548e-05 0 0 0 0)
(0 0.00121881 0 0.00121881 -4.45258e-05 0 0 0 0)
(0 0.00126017 0 0.00126017 -3.88769e-05 0 0 0 0)
(0 0.0013166 0 0.0013166 -3.19955e-05 0 0 0 0)
(0 0.00138519 0 0.00138519 -2.44065e-05 0 0 0 0)
(0 0.00146407 0 0.00146407 -1.64259e-05 0 0 0 0)
(0 0.00155217 0 0.00155217 -8.17081e-06 0 0 0 0)
(0 0.00164885 0 0.00164885 3.98673e-07 0 0 0 0)
(0 0.0017537 0 0.0017537 9.4094e-06 0 0 0 0)
(0 0.0018666 0 0.0018666 1.90174e-05 0 0 0 0)
(0 0.00198753 0 0.00198753 2.93845e-05 0 0 0 0)
(0 0.00211666 0 0.00211666 4.0669e-05 0 0 0 0)
(0 0.00225416 0 0.00225416 5.30118e-05 0 0 0 0)
(0 0.00240037 0 0.00240037 6.65331e-05 0 0 0 0)
(0 0.00255565 0 0.00255565 8.13348e-05 0 0 0 0)
(0 0.00272046 0 0.00272046 9.75084e-05 0 0 0 0)
(0 0.00289531 0 0.00289531 0.000115135 0 0 0 0)
(0 0.00308081 0 0.00308081 0.000134296 0 0 0 0)
(0 0.00327758 0 0.00327758 0.000155067 0 0 0 0)
(0 0.00348636 0 0.00348636 0.000177522 0 0 0 0)
(0 0.00370796 0 0.00370796 0.000201743 0 0 0 0)
(0 0.00394324 0 0.00394324 0.000227815 0 0 0 0)
(0 0.00419314 0 0.00419314 0.000255823 0 0 0 0)
(0 0.00445871 0 0.00445871 0.000285852 0 0 0 0)
(0 0.00474107 0 0.00474107 0.000317987 0 0 0 0)
(0 0.00504141 0 0.00504141 0.000352309 0 0 0 0)
(0 0.00536106 0 0.00536106 0.000388892 0 0 0 0)
(0 0.0057014 0 0.0057014 0.000427786 0 0 0 0)
(0 0.00606397 0 0.00606397 0.000469009 0 0 0 0)
(0 0.00645037 0 0.00645037 0.000512527 0 0 0 0)
(0 0.00686239 0 0.00686239 0.000558234 0 0 0 0)
(0 0.0073019 0 0.0073019 0.000605913 0 0 0 0)
(0 0.00777099 0 0.00777099 0.000655191 0 0 0 0)
(0 0.00827195 0 0.00827195 0.000705458 0 0 0 0)
(0 0.00880731 0 0.00880731 0.000755739 0 0 0 0)
(0 0.00937998 0 0.00937998 0.000804511 0 0 0 0)
(0 0.0099933 0 0.0099933 0.00084949 0 0 0 0)
(0 0.0106512 0 0.0106512 0.000887564 0 0 0 0)
(0 0.0113583 0 0.0113583 0.000915237 0 0 0 0)
(0 0.0121197 0 0.0121197 0.000930026 0 0 0 0)
(0 0.0129399 0 0.0129399 0.000933037 0 0 0 0)
(0 0.0138221 0 0.0138221 0.000932152 0 0 0 0)
(0 0.0147664 0 0.0147664 0.00094402 0 0 0 0)
(0 0.0157685 0 0.0157685 0.000991867 0 0 0 0)
(0 0.0168197 0 0.0168197 0.0010966 0 0 0 0)
(0 0.017909 0 0.017909 0.00126546 0 0 0 0)
(0 0.0190266 0 0.0190266 0.00149031 0 0 0 0)
(0 0.0201652 0 0.0201652 0.00175791 0 0 0 0)
(0 0.0213375 0 0.0213375 0.00206255 0 0 0 0)
(-5.19312e-16 0.0225585 0 0.0225585 0.00240482 0 0 0 0)
(0 0.02383 0 0.02383 0.00278539 0 0 0 0)
(0 0.0251518 0 0.0251518 0.00320577 0 0 0 0)
(6.45024e-16 0.0265235 0 0.0265235 0.00366766 0 0 0 0)
(0 0.0279448 0 0.0279448 0.0041722 0 0 0 0)
(-7.50401e-16 0.0294166 0 0.0294166 0.00471868 0 0 0 0)
(0 0.0309425 0 0.0309425 0.00530236 0 0 0 0)
(8.80481e-16 0.0325324 0 0.0325324 0.00591079 0 0 0 0)
(0 0.034207 0 0.034207 0.00651912 0 0 0 0)
(0 0.0360046 0 0.0360046 0.00708547 0 0 0 0)
(0 0.0379863 0 0.0379863 0.00754871 0 0 0 0)
(0 0.0402368 0 0.0402368 0.00783198 0 0 0 0)
(0 0.0428553 0 0.0428553 0.00785352 0 0 0 0)
(0 0.0459346 0 0.0459346 0.00754424 0 0 0 0)
(0 0.0495285 0 0.0495285 0.00686756 0 0 0 0)
(0 0.05362 0 0.05362 0.00583517 0 0 0 0)
(0 0.0581013 0 0.0581013 0.00451104 0 0 0 0)
(-2.78286e-15 0.0627814 0 0.0627814 0.00300092 0 0 0 0)
(0 0.0674124 0 0.0674124 0.00142925 0 0 0 0)
(-3.60172e-15 0.0717353 0 0.0717353 -8.6256e-05 0 0 0 0)
(0 0.0755076 0 0.0755076 -0.00145429 0 0 0 0)
(-4.50085e-15 0.0785357 0 0.0785357 -0.00261795 0 0 0 0)
(0 0.0806624 0 0.0806624 -0.00355539 0 0 0 0)
(0 0.0817902 0 0.0817902 -0.00426967 0 0 0 0)
(0 0.0818135 0 0.0818135 -0.00479782 0 0 0 0)
(0 0.0807506 0 0.0807506 -0.00517166 0 0 0 0)
(6.64911e-15 0.0783521 0 0.0783521 -0.00546544 0 0 0 0)
(6.99742e-15 0.0749353 0 0.0749353 -0.00572379 0 0 0 0)
(0 0.069712 0 0.069712 -0.00603198 0 0 0 0)
(0 0.0636593 0 0.0636593 -0.00644665 0 0 0 0)
(0 0.0550618 0 0.0550618 -0.00710773 0 0 0 0)
(0 0.0458886 0 0.0458886 -0.00801334 0 0 0 0)
(0 0.0334843 0 0.0334843 -0.0095509 0 0 0 0)
(0 0.0263505 0 0.0263505 -0.013452 0 0 0 0)
(0 0 0 0 -0 0 0 0 0)
(0 0 0 0 -0 0 0 0 0)
(0 0 0 0 0 0 0 0 0)
(0 -0 0 -0 -0 0 0 0 0)
(0 -0 0 -0 0 0 0 0 0)
(0 -0 0 -0 -0 0 0 0 0)
(0 -0 0 -0 -0 0 0 0 0)
(-0 -0 0 -0 0 0 0 0 0)
(0 -0 0 -0 -0 0 0 0 0)
(0 -0 0 -0 0 0 0 0 0)
(0 -0 0 -0 -0 0 0 0 0)
(-0 -0 0 -0 0 0 0 0 0)
(0 -0 0 -0 -0 0 0 0 0)
(0 -0 0 -0 0 0 0 0 0)
(-0 -0 0 -0 -0 0 0 0 0)
(0 -0 0 -0 -0 0 0 0 0)
(0 -0 0 -0 -0 0 0 0 0)
(0 -0 0 -0 -0 0 0 0 0)
(0 -0 0 -0 0 0 0 0 0)
(0 -0 0 -0 -0 0 0 0 0)
(0 -0 0 -0 -0 0 0 0 0)
(0 -0 0 -0 -0 0 0 0 0)
(0 -0 0 -0 -0 0 0 0 0)
(0 -0 0 -0 -0 0 0 0 0)
(0 -0 0 -0 -0 0 0 0 0)
(0 -0 0 -0 0 0 0 0 0)
(0 -0 0 -0 0 0 0 0 0)
(0 -0 0 -0 0 0 0 0 0)
(0 -0 0 -0 0 0 0 0 0)
(0 -0 0 -0 0 0 0 0 0)
(0 -0 0 -0 0 0 0 0 0)
(0 -0 0 -0 0 0 0 0 0)
(0 -0 0 -0 0 0 0 0 0)
(0 -0 0 -0 0 0 0 0 0)
(0 -0 0 -0 0 0 0 0 0)
(0 -0 0 -0 0 0 0 0 0)
(0 -0 0 -0 0 0 0 0 0)
(0 -0 0 -0 0 0 0 0 0)
(0 0 0 0 0 0 0 0 0)
(0 0 0 0 0 0 0 0 0)
(0 0 0 0 -0 0 0 0 0)
(0 0 0 0 0 0 0 0 0)
(0 0 0 0 -0 0 0 0 0)
(0 0 0 0 0 0 0 0 0)
(0 0 0 0 -0 0 0 0 0)
(0 0 0 0 0 0 0 0 0)
(0 0 0 0 -0 0 0 0 0)
(0 0 0 0 0 0 0 0 0)
(0 0 0 0 -0 0 0 0 0)
(0 0 0 0 0 0 0 0 0)
(0 0 0 0 -0 0 0 0 0)
(0 0 0 0 0 0 0 0 0)
(0 0 0 0 -0 0 0 0 0)
(0 0 0 0 0 0 0 0 0)
(0 0 0 0 -0 0 0 0 0)
(0 0 0 0 0 0 0 0 0)
(0 0 0 0 -0 0 0 0 0)
(0 -0 0 -0 0 0 0 0 0)
(0 0 0 0 -0 0 0 0 0)
(0 -0 0 -0 0 0 0 0 0)
(0 0 0 0 -0 0 0 0 0)
(0 -0 0 -0 0 0 0 0 0)
(0 0 0 0 -0 0 0 0 0)
(-0 -0 0 -0 0 0 0 0 0)
(0 0 0 0 -0 0 0 0 0)
(0 -0 0 -0 0 0 0 0 0)
(0 0 0 0 -0 0 0 0 0)
(0 -0 0 -0 0 0 0 0 0)
(0 0 0 0 -0 0 0 0 0)
(0 -0 0 -0 0 0 0 0 0)
(0 0 0 0 -0 0 0 0 0)
(0 -0 0 -0 0 0 0 0 0)
(0 0 0 0 -0 0 0 0 0)
(0 -0 0 -0 0 0 0 0 0)
(0 0 0 0 -0 0 0 0 0)
(0 -0 0 -0 0 0 0 0 0)
(0 0 0 0 -0 0 0 0 0)
(0 -0 0 -0 0 0 0 0 0)
(0 0 0 0 -0 0 0 0 0)
(0 -0 0 -0 0 0 0 0 0)
(0 0 0 0 -0 0 0 0 0)
(0 -0 0 -0 0 0 0 0 0)
(0 0 0 0 -0 0 0 0 0)
(0 -0 0 -0 0 0 0 0 0)
(0 0 0 0 -0 0 0 0 0)
(0 -0 0 -0 0 0 0 0 0)
(0 0 0 0 -0 0 0 0 0)
(0 -0 0 -0 0 0 0 0 0)
(0 0 0 0 -0 0 0 0 0)
(0 -0 0 -0 0 0 0 0 0)
(0 0 0 0 -0 0 0 0 0)
(0 -0 0 -0 0 0 0 0 0)
(0 0 0 0 -0 0 0 0 0)
(0 -0 0 -0 0 0 0 0 0)
(0 0 0 0 -0 0 0 0 0)
(0 -0 0 -0 0 0 0 0 0)
(0 0 0 0 -0 0 0 0 0)
(0 -0 0 -0 0 0 0 0 0)
(0 0 0 0 -0 0 0 0 0)
(0 -0 0 -0 0 0 0 0 0)
(0 0 0 0 -0 0 0 0 0)
(0 -0 0 -0 0 0 0 0 0)
(0 0 0 0 -0 0 0 0 0)
(0 -0 0 -0 0 0 0 0 0)
(0 -0 0 -0 -0 0 0 0 0)
(0 -0 0 -0 0 0 0 0 0)
(0 0 0 0 -0 0 0 0 0)
(0 -0 0 -0 0 0 0 0 0)
(0 0 0 0 -0 0 0 0 0)
(0 -0 0 -0 0 0 0 0 0)
(0 0 0 0 -0 0 0 0 0)
(0 -0 0 -0 0 0 0 0 0)
(0 0 0 0 -0 0 0 0 0)
(0 -0 0 -0 0 0 0 0 0)
(0 0 0 0 -0 0 0 0 0)
(0 -0 0 -0 0 0 0 0 0)
(0 0 0 0 -0 0 0 0 0)
(0 0 0 0 0 0 0 0 0)
(0 0 0 0 0 0 0 0 0)
(0 0 0 0 0 0 0 0 0)
(0 0 0 0 0 0 0 0 0)
(0 0 0 0 0 0 0 0 0)
(0 0 0 0 0 0 0 0 0)
(0 0 0 0 0 0 0 0 0)
)
;

boundaryField
{
    inandouthalf11
    {
        type            cyclic;
    }
    inandouthalf12
    {
        type            cyclic;
    }
    inandouthalf21
    {
        type            cyclic;
    }
    inandouthalf22
    {
        type            cyclic;
    }
    inandouthalf31
    {
        type            cyclic;
    }
    inandouthalf32
    {
        type            cyclic;
    }
    inandouthalf41
    {
        type            cyclic;
    }
    inandouthalf42
    {
        type            cyclic;
    }
    top
    {
        type            symmetryPlane;
    }
    walls
    {
        type            zeroGradient;
    }
    frontAndBackPlanes
    {
        type            empty;
    }
}


// ************************************************************************* //
