/*--------------------------------*- C++ -*----------------------------------*\
| =========                 |                                                 |
| \\      /  F ield         | OpenFOAM: The Open Source CFD Toolbox           |
|  \\    /   O peration     | Version:  2.4.x                                 |
|   \\  /    A nd           | Web:      www.OpenFOAM.org                      |
|    \\/     M anipulation  |                                                 |
\*---------------------------------------------------------------------------*/
FoamFile
{
    version     2.0;
    format      ascii;
    class       volScalarField;
    location    "9.9";
    object      Theta;
}
// * * * * * * * * * * * * * * * * * * * * * * * * * * * * * * * * * * * * * //

dimensions      [0 2 -2 0 0 0 0];

internalField   nonuniform List<scalar> 
360
(
6.66142e-21
6.66151e-21
6.66147e-21
6.66146e-21
6.66146e-21
6.66146e-21
6.66146e-21
6.66146e-21
6.66146e-21
6.66146e-21
6.66146e-21
6.66146e-21
6.66146e-21
6.66146e-21
6.66146e-21
6.66146e-21
6.66146e-21
6.66147e-21
6.66147e-21
6.66147e-21
6.66147e-21
6.66147e-21
6.66148e-21
6.66148e-21
6.66148e-21
6.66148e-21
6.66149e-21
6.66149e-21
6.66149e-21
6.6615e-21
6.6615e-21
6.6615e-21
6.66151e-21
6.66151e-21
6.66151e-21
6.66151e-21
6.66152e-21
6.66152e-21
6.66152e-21
6.66153e-21
6.66153e-21
6.66153e-21
6.66153e-21
6.66154e-21
6.66154e-21
6.66154e-21
6.66154e-21
6.66154e-21
6.66155e-21
6.66155e-21
6.66155e-21
6.66155e-21
6.66155e-21
6.66155e-21
6.66155e-21
6.66155e-21
6.66155e-21
6.66155e-21
6.66155e-21
6.66155e-21
6.66155e-21
6.66155e-21
6.66155e-21
6.66155e-21
6.66155e-21
6.66155e-21
6.66154e-21
6.66154e-21
6.66154e-21
6.66154e-21
6.66153e-21
6.66153e-21
6.66153e-21
6.66152e-21
6.66152e-21
6.66152e-21
6.66151e-21
6.66151e-21
6.66151e-21
6.6615e-21
6.6615e-21
6.66149e-21
6.66149e-21
6.66148e-21
6.66148e-21
6.66147e-21
6.66147e-21
6.66146e-21
6.66146e-21
6.66145e-21
6.66145e-21
6.66144e-21
6.66144e-21
6.66143e-21
6.66143e-21
6.66142e-21
6.66142e-21
6.66141e-21
6.66141e-21
6.6614e-21
6.6614e-21
6.66139e-21
6.66139e-21
6.66138e-21
6.66138e-21
6.66137e-21
6.66137e-21
6.66136e-21
6.66136e-21
6.66135e-21
6.66135e-21
6.66134e-21
6.66134e-21
6.66133e-21
6.66133e-21
6.66132e-21
6.66132e-21
6.66132e-21
6.66131e-21
6.66131e-21
6.6613e-21
6.6613e-21
6.66129e-21
6.66129e-21
6.66128e-21
6.66129e-21
1.95521e-20
8.06262e-20
3.3067e-19
1.30828e-18
4.9973e-18
1.85531e-17
6.77335e-17
2.47007e-16
9.14779e-16
3.49364e-15
1.40279e-14
6.11627e-14
3.02052e-13
1.75472e-12
1.24074e-11
1.11563e-10
1.39905e-09
2.63384e-08
9.83807e-07
2.31709e-05
0.000329294
0.00145129
0.00224127
0.00266636
0.00299791
0.00332567
0.00364422
0.00394862
0.00423609
0.00450546
0.00475635
0.00498945
0.00520519
0.00540454
0.00558826
0.00575696
0.00591139
0.00605227
0.00618041
0.00629633
0.00640075
0.00649417
0.00657724
0.0066504
0.00671425
0.00676916
0.0068156
0.00685406
0.00688487
0.00690843
0.00692508
0.00693522
0.00693913
0.00693717
0.00692959
0.00691671
0.00689877
0.00687604
0.00684874
0.00681712
0.0067814
0.00674177
0.00669843
0.00665153
0.00660125
0.00654772
0.00649107
0.00643139
0.0063688
0.00630336
0.00623518
0.00616434
0.00609095
0.00601516
0.00593714
0.00585628
0.00577185
0.00568392
0.00559259
0.00549794
0.00540009
0.00529916
0.00519527
0.00508857
0.00497919
0.00486726
0.00475291
0.00463621
0.00451722
0.00439591
0.00427223
0.00414601
0.00401704
0.00388507
0.00374977
0.00361079
0.00346772
0.00332009
0.00316739
0.00300898
0.00284413
0.00267195
0.00249135
0.00230094
0.0020989
0.00188281
0.00164916
0.00139255
0.00110356
0.000761778
0
0
0
0
0
0
0
0
0
0
0
0
0
0
0
0
0
0
0
0
0
0
0
0
0
0
0
0
0
0
0
0
0
0
0
0
0
0
0
0
0
0
0
0
0
0
0
0
0
0
0
0
0
0
0
0
0
0
0
0
0
0
0
0
0
0
0
0
0
0
0
0
0
0
0
0
0
0
0
0
0
0
0
0
0
0
0
0
0
0
0
0
0
0
0
0
0
0
0
0
0
0
0
0
0
0
0
0
0
0
0
0
0
0
0
0
0
0
0
0
0
0
0
0
)
;

boundaryField
{
    inandouthalf11
    {
        type            cyclic;
    }
    inandouthalf12
    {
        type            cyclic;
    }
    inandouthalf21
    {
        type            cyclic;
    }
    inandouthalf22
    {
        type            cyclic;
    }
    inandouthalf31
    {
        type            cyclic;
    }
    inandouthalf32
    {
        type            cyclic;
    }
    inandouthalf41
    {
        type            cyclic;
    }
    inandouthalf42
    {
        type            cyclic;
    }
    top
    {
        type            symmetryPlane;
    }
    walls
    {
        type            zeroGradient;
    }
    frontAndBackPlanes
    {
        type            empty;
    }
}


// ************************************************************************* //
