/*--------------------------------*- C++ -*----------------------------------*\
| =========                 |                                                 |
| \\      /  F ield         | OpenFOAM: The Open Source CFD Toolbox           |
|  \\    /   O peration     | Version:  2.4.x                                 |
|   \\  /    A nd           | Web:      www.OpenFOAM.org                      |
|    \\/     M anipulation  |                                                 |
\*---------------------------------------------------------------------------*/
FoamFile
{
    version     2.0;
    format      ascii;
    class       volVectorField;
    location    "9.9";
    object      Ub_0;
}
// * * * * * * * * * * * * * * * * * * * * * * * * * * * * * * * * * * * * * //

dimensions      [0 1 -1 0 0 0 0];

internalField   nonuniform List<vector> 
360
(
(-0.000238732 7.00768e-09 0)
(-0.00023741 2.47211e-08 0)
(-0.000237228 4.49451e-08 0)
(-0.000237405 6.3127e-08 0)
(-0.000237489 8.05495e-08 0)
(-0.000237515 9.79567e-08 0)
(-0.000237549 1.1526e-07 0)
(-0.000237592 1.32363e-07 0)
(-0.000237636 1.49318e-07 0)
(-0.00023768 1.66226e-07 0)
(-0.000237725 1.83173e-07 0)
(-0.00023777 2.00215e-07 0)
(-0.000237816 2.17395e-07 0)
(-0.000237862 2.34747e-07 0)
(-0.000237908 2.52303e-07 0)
(-0.000237955 2.7009e-07 0)
(-0.000238002 2.88135e-07 0)
(-0.00023805 3.0646e-07 0)
(-0.000238098 3.2508e-07 0)
(-0.000238147 3.4401e-07 0)
(-0.000238196 3.63263e-07 0)
(-0.000238246 3.82847e-07 0)
(-0.000238296 4.02773e-07 0)
(-0.000238346 4.23046e-07 0)
(-0.000238398 4.43672e-07 0)
(-0.000238449 4.64654e-07 0)
(-0.000238501 4.85994e-07 0)
(-0.000238554 5.07694e-07 0)
(-0.000238608 5.29754e-07 0)
(-0.000238662 5.52173e-07 0)
(-0.000238716 5.74947e-07 0)
(-0.000238771 5.98075e-07 0)
(-0.000238826 6.2155e-07 0)
(-0.000238883 6.4537e-07 0)
(-0.000238939 6.69529e-07 0)
(-0.000238997 6.9402e-07 0)
(-0.000239054 7.18833e-07 0)
(-0.000239113 7.43962e-07 0)
(-0.000239172 7.69403e-07 0)
(-0.000239231 7.9514e-07 0)
(-0.000239292 8.21167e-07 0)
(-0.000239353 8.47475e-07 0)
(-0.000239414 8.74047e-07 0)
(-0.000239477 9.00878e-07 0)
(-0.00023954 9.27954e-07 0)
(-0.000239603 9.55265e-07 0)
(-0.000239668 9.828e-07 0)
(-0.000239733 1.01054e-06 0)
(-0.000239799 1.03846e-06 0)
(-0.000239866 1.06657e-06 0)
(-0.000239933 1.09485e-06 0)
(-0.000240001 1.12328e-06 0)
(-0.00024007 1.15184e-06 0)
(-0.00024014 1.18053e-06 0)
(-0.00024021 1.20932e-06 0)
(-0.000240282 1.23821e-06 0)
(-0.000240354 1.26717e-06 0)
(-0.000240427 1.29619e-06 0)
(-0.000240501 1.32526e-06 0)
(-0.000240576 1.35434e-06 0)
(-0.000240652 1.38343e-06 0)
(-0.000240729 1.41251e-06 0)
(-0.000240807 1.44158e-06 0)
(-0.000240886 1.47061e-06 0)
(-0.000240966 1.49959e-06 0)
(-0.000241047 1.52849e-06 0)
(-0.00024113 1.55731e-06 0)
(-0.000241213 1.58603e-06 0)
(-0.000241298 1.61462e-06 0)
(-0.000241383 1.64306e-06 0)
(-0.000241471 1.67136e-06 0)
(-0.000241559 1.69949e-06 0)
(-0.000241648 1.72743e-06 0)
(-0.000241739 1.75519e-06 0)
(-0.000241832 1.78273e-06 0)
(-0.000241926 1.81006e-06 0)
(-0.000242021 1.83715e-06 0)
(-0.000242118 1.86398e-06 0)
(-0.000242216 1.89055e-06 0)
(-0.000242316 1.91684e-06 0)
(-0.000242417 1.94283e-06 0)
(-0.000242521 1.96852e-06 0)
(-0.000242626 1.9939e-06 0)
(-0.000242732 2.01895e-06 0)
(-0.000242841 2.04368e-06 0)
(-0.000242952 2.06807e-06 0)
(-0.000243065 2.09212e-06 0)
(-0.000243179 2.11581e-06 0)
(-0.000243296 2.13914e-06 0)
(-0.000243415 2.16209e-06 0)
(-0.000243536 2.18465e-06 0)
(-0.00024366 2.20682e-06 0)
(-0.000243786 2.22859e-06 0)
(-0.000243915 2.24996e-06 0)
(-0.000244046 2.27092e-06 0)
(-0.00024418 2.29148e-06 0)
(-0.000244317 2.31163e-06 0)
(-0.000244456 2.33136e-06 0)
(-0.000244599 2.35068e-06 0)
(-0.000244745 2.36958e-06 0)
(-0.000244894 2.38806e-06 0)
(-0.000245046 2.40611e-06 0)
(-0.000245203 2.42374e-06 0)
(-0.000245362 2.44096e-06 0)
(-0.000245526 2.45775e-06 0)
(-0.000245693 2.47412e-06 0)
(-0.000245865 2.49007e-06 0)
(-0.000246041 2.50562e-06 0)
(-0.000246221 2.52075e-06 0)
(-0.000246406 2.53548e-06 0)
(-0.000246596 2.54979e-06 0)
(-0.000246791 2.5637e-06 0)
(-0.000246991 2.57721e-06 0)
(-0.000247197 2.59031e-06 0)
(-0.000247409 2.60302e-06 0)
(-0.000247626 2.61532e-06 0)
(-0.00024785 2.62722e-06 0)
(-0.000248081 2.63873e-06 0)
(-0.000248318 2.64985e-06 0)
(-0.000248564 2.66059e-06 0)
(-0.000248816 2.67094e-06 0)
(-0.000249078 2.68089e-06 0)
(-0.000249348 2.69044e-06 0)
(-0.000249627 2.69954e-06 0)
(-0.000249916 2.70814e-06 0)
(-0.000250215 2.71618e-06 0)
(-0.000250526 2.72359e-06 0)
(-0.00025085 2.73029e-06 0)
(-0.000251186 2.73624e-06 0)
(-0.000251538 2.74144e-06 0)
(-0.000251904 2.74591e-06 0)
(-0.000252286 2.74975e-06 0)
(-0.000252687 2.7531e-06 0)
(-0.000253109 2.75617e-06 0)
(-0.000253558 2.75919e-06 0)
(-0.000254035 2.76229e-06 0)
(-0.000254536 2.76535e-06 0)
(-0.000255071 2.76783e-06 0)
(-0.000255666 2.76885e-06 0)
(-0.00025635 2.76791e-06 0)
(-0.000257096 2.76538e-06 0)
(-0.000257953 2.6662e-06 0)
(-0.000267418 3.68299e-06 0)
(-0.000269164 -1.49845e-06 0)
(-0.000269515 2.02179e-05 0)
(-0.000265262 -6.26524e-05 0)
(0.00299624 0.000217542 0)
(0.0929538 0.001855 0)
(0.174348 0.00132102 0)
(0.236377 0.00135385 0)
(0.286366 0.00127487 0)
(0.327965 0.00117858 0)
(0.363409 0.00108349 0)
(0.394212 0.000986863 0)
(0.421433 0.000890376 0)
(0.445828 0.000797254 0)
(0.467946 0.000710126 0)
(0.488198 0.000630492 0)
(0.506895 0.000558871 0)
(0.524281 0.000495122 0)
(0.540549 0.000438716 0)
(0.555853 0.000388949 0)
(0.57032 0.00034507 0)
(0.584052 0.000306357 0)
(0.597136 0.000272155 0)
(0.609644 0.000241882 0)
(0.621636 0.000215036 0)
(0.633164 0.000191182 0)
(0.644272 0.00016995 0)
(0.654999 0.000151023 0)
(0.665376 0.000134129 0)
(0.675432 0.000119032 0)
(0.685192 0.000105531 0)
(0.694678 9.34509e-05 0)
(0.70391 8.26377e-05 0)
(0.712903 7.29581e-05 0)
(0.721674 6.42944e-05 0)
(0.730235 5.65428e-05 0)
(0.7386 4.96115e-05 0)
(0.746778 4.34189e-05 0)
(0.754779 3.78921e-05 0)
(0.762613 3.29662e-05 0)
(0.770287 2.85829e-05 0)
(0.777808 2.469e-05 0)
(0.785183 2.12407e-05 0)
(0.792418 1.81925e-05 0)
(0.799518 1.55075e-05 0)
(0.806488 1.31513e-05 0)
(0.813333 1.10931e-05 0)
(0.820056 9.3053e-06 0)
(0.826662 7.763e-06 0)
(0.833153 6.44376e-06 0)
(0.839533 5.32648e-06 0)
(0.845804 4.39e-06 0)
(0.851969 3.61152e-06 0)
(0.858031 2.96583e-06 0)
(0.86399 2.42605e-06 0)
(0.869849 1.96624e-06 0)
(0.87561 1.56537e-06 0)
(0.881274 1.20988e-06 0)
(0.886842 8.92743e-07 0)
(0.892371 6.07534e-07 0)
(0.897914 3.50585e-07 0)
(0.903468 1.21526e-07 0)
(0.909032 -8.00726e-08 0)
(0.914601 -2.54758e-07 0)
(0.920173 -4.03191e-07 0)
(0.925742 -5.26107e-07 0)
(0.931306 -6.24229e-07 0)
(0.936857 -6.98134e-07 0)
(0.94239 -7.48137e-07 0)
(0.947899 -7.74262e-07 0)
(0.953375 -7.76484e-07 0)
(0.958811 -7.55308e-07 0)
(0.964195 -7.12604e-07 0)
(0.969518 -6.52264e-07 0)
(0.974766 -5.80159e-07 0)
(0.979925 -5.03176e-07 0)
(0.98498 -4.27718e-07 0)
(0.989912 -3.58453e-07 0)
(0.994704 -2.97849e-07 0)
(0.999333 -2.46499e-07 0)
(1.00378 -2.03801e-07 0)
(1.00801 -1.68605e-07 0)
(1.01201 -1.39646e-07 0)
(1.01575 -1.15766e-07 0)
(1.01921 -9.59806e-08 0)
(1.02236 -7.95094e-08 0)
(1.02518 -6.57275e-08 0)
(1.02767 -5.41639e-08 0)
(1.02981 -4.44474e-08 0)
(1.03161 -3.62822e-08 0)
(1.03307 -2.94168e-08 0)
(1.03421 -2.36741e-08 0)
(1.03505 -1.90375e-08 0)
(1.03563 -1.57049e-08 0)
(1.03596 -1.07761e-08 0)
(1.03606 -6.15458e-09 0)
(1.03597 -4.28557e-09 0)
(1.03571 -2.68562e-09 0)
(1.03529 -1.65447e-09 0)
(1.03472 -1.04073e-09 0)
(1.03403 -6.67296e-10 0)
(1.03322 -4.36521e-10 0)
(1.0323 -2.87671e-10 0)
(1.03129 -1.94939e-10 0)
(1.03019 -1.31912e-10 0)
(1.029 -8.78514e-11 0)
(1.02774 -5.86143e-11 0)
(1.02641 -3.32454e-11 0)
(1.02502 -1.78367e-11 0)
(1.02357 -2.10412e-12 0)
(1.02207 2.04628e-12 0)
(1.02053 -1.61466e-12 0)
(1.01896 -2.05161e-12 0)
(1.01736 -1.81366e-12 0)
(1.01575 -1.68722e-12 0)
(1.01412 -1.636e-12 0)
(1.0125 -1.5844e-12 0)
(1.01089 -1.51808e-12 0)
(1.00929 -1.43389e-12 0)
(1.00773 -1.38251e-12 0)
(1.00622 -1.59318e-12 0)
(1.00477 -2.14433e-12 0)
(1.0034 6.7064e-12 0)
(1.00212 -2.56841e-11 0)
(1.00096 5.19757e-11 0)
(0.999928 -9.64109e-11 0)
(0.999058 1.4998e-10 0)
(0.99837 -2.20658e-10 0)
(0.997891 2.97061e-10 0)
(0.997709 -3.84675e-10 0)
(0.997693 4.71859e-10 0)
(0.997692 -5.65526e-10 0)
(0.997692 6.56883e-10 0)
(0.997692 -7.54292e-10 0)
(0.997692 8.4965e-10 0)
(0.997692 -9.51057e-10 0)
(0.997692 1.05076e-09 0)
(0.997692 -1.15642e-09 0)
(0.997692 1.26078e-09 0)
(0.997692 -1.37096e-09 0)
(0.997692 1.48016e-09 0)
(0.997692 -1.59512e-09 0)
(0.997692 1.70941e-09 0)
(0.997692 -1.82928e-09 0)
(0.997692 1.94885e-09 0)
(0.997692 -2.07371e-09 0)
(0.997692 2.19878e-09 0)
(0.997692 -2.32878e-09 0)
(0.997692 2.45942e-09 0)
(0.997692 -2.59463e-09 0)
(0.997692 2.73098e-09 0)
(0.997692 -2.87143e-09 0)
(0.997692 3.01354e-09 0)
(0.997692 -3.15926e-09 0)
(0.997692 3.30717e-09 0)
(0.997692 -3.45836e-09 0)
(0.997692 3.6118e-09 0)
(0.997692 -3.76849e-09 0)
(0.997692 3.92754e-09 0)
(0.997692 -4.08962e-09 0)
(0.997692 4.25413e-09 0)
(0.997692 -4.42158e-09 0)
(0.997692 4.59145e-09 0)
(0.997692 -4.76413e-09 0)
(0.997692 4.93917e-09 0)
(0.997692 -5.1169e-09 0)
(0.997692 5.29691e-09 0)
(0.997692 -5.47943e-09 0)
(0.997692 4.97368e-09 0)
(0.997692 -5.04571e-09 0)
(0.997692 5.1168e-09 0)
(0.997692 -5.18716e-09 0)
(0.997692 5.25659e-09 0)
(0.997692 -5.32525e-09 0)
(0.997692 5.393e-09 0)
(0.997692 -5.45995e-09 0)
(0.997692 5.52599e-09 0)
(0.997692 -5.59121e-09 0)
(0.997692 5.6555e-09 0)
(0.997692 -5.71897e-09 0)
(0.997692 5.78148e-09 0)
(0.997692 -5.84317e-09 0)
(0.997692 5.90387e-09 0)
(0.997692 -5.96375e-09 0)
(0.997692 6.02259e-09 0)
(0.997692 -6.08062e-09 0)
(0.997692 6.13756e-09 0)
(0.997692 -6.19376e-09 0)
(0.997692 6.24864e-09 0)
(0.997692 -6.30304e-09 0)
(0.997692 6.3558e-09 0)
(0.997692 -6.40834e-09 0)
(0.997692 6.4589e-09 0)
(0.997692 -6.50954e-09 0)
(0.997692 6.55779e-09 0)
(0.997692 -6.60647e-09 0)
(0.997692 6.65233e-09 0)
(0.997692 -6.69898e-09 0)
(0.997692 6.74229e-09 0)
(0.997692 -6.78686e-09 0)
(0.997692 6.82748e-09 0)
(0.997692 -6.86989e-09 0)
(0.997692 6.90759e-09 0)
(0.997692 -6.94782e-09 0)
(0.997692 6.98232e-09 0)
(0.997692 -7.02028e-09 0)
(0.997692 7.05129e-09 0)
(0.997692 -7.08685e-09 0)
(0.997692 7.11401e-09 0)
(0.997692 -7.14695e-09 0)
(0.997692 7.16973e-09 0)
(0.997692 -7.19997e-09 0)
(0.997692 7.2175e-09 0)
(0.997692 -7.24446e-09 0)
(0.997692 7.25599e-09 0)
(0.997692 -7.27831e-09 0)
(0.997692 7.28144e-09 0)
(0.997692 -7.29325e-09 0)
)
;

boundaryField
{
    inandouthalf11
    {
        type            cyclic;
    }
    inandouthalf12
    {
        type            cyclic;
    }
    inandouthalf21
    {
        type            cyclic;
    }
    inandouthalf22
    {
        type            cyclic;
    }
    inandouthalf31
    {
        type            cyclic;
    }
    inandouthalf32
    {
        type            cyclic;
    }
    inandouthalf41
    {
        type            cyclic;
    }
    inandouthalf42
    {
        type            cyclic;
    }
    top
    {
        type            symmetryPlane;
    }
    walls
    {
        type            fixedValue;
        value           uniform (0 0 0);
    }
    frontAndBackPlanes
    {
        type            empty;
    }
}


// ************************************************************************* //
