/*--------------------------------*- C++ -*----------------------------------*\
| =========                 |                                                 |
| \\      /  F ield         | OpenFOAM: The Open Source CFD Toolbox           |
|  \\    /   O peration     | Version:  2.4.x                                 |
|   \\  /    A nd           | Web:      www.OpenFOAM.org                      |
|    \\/     M anipulation  |                                                 |
\*---------------------------------------------------------------------------*/
FoamFile
{
    version     2.0;
    format      ascii;
    class       volScalarField;
    location    "9";
    object      alpha_0;
}
// * * * * * * * * * * * * * * * * * * * * * * * * * * * * * * * * * * * * * //

dimensions      [0 0 0 0 0 0 0];

internalField   nonuniform List<scalar> 
360
(
0.610868
0.611723
0.611815
0.611727
0.611684
0.611671
0.611654
0.611632
0.611609
0.611586
0.611563
0.61154
0.611516
0.611493
0.611469
0.611445
0.61142
0.611395
0.61137
0.611345
0.61132
0.611294
0.611268
0.611242
0.611215
0.611189
0.611162
0.611134
0.611107
0.611079
0.611051
0.611022
0.610994
0.610965
0.610935
0.610906
0.610876
0.610846
0.610815
0.610785
0.610753
0.610722
0.61069
0.610658
0.610625
0.610593
0.610559
0.610526
0.610492
0.610457
0.610423
0.610388
0.610352
0.610316
0.61028
0.610243
0.610206
0.610168
0.61013
0.610092
0.610053
0.610013
0.609973
0.609933
0.609891
0.60985
0.609808
0.609765
0.609721
0.609678
0.609633
0.609587
0.609542
0.609495
0.609448
0.6094
0.609351
0.609302
0.609252
0.609201
0.609149
0.609097
0.609043
0.608989
0.608934
0.608878
0.608821
0.608763
0.608704
0.608644
0.608582
0.60852
0.608457
0.608392
0.608326
0.608259
0.60819
0.60812
0.608049
0.607976
0.607902
0.607826
0.607748
0.607668
0.607587
0.607504
0.607419
0.607332
0.607243
0.607152
0.607058
0.606962
0.606863
0.606762
0.606659
0.606552
0.606442
0.60633
0.606214
0.606094
0.605971
0.605844
0.605713
0.605578
0.605438
0.605294
0.605144
0.604988
0.604827
0.604658
0.604483
0.6043
0.60411
0.603908
0.603695
0.603469
0.603231
0.602979
0.602699
0.602378
0.60203
0.601667
0.59898
0.474995
0.348278
0.299884
0.272779
0.252523
0.235352
0.219902
0.205585
0.192125
0.17845
0.165243
0.152618
0.140601
0.129201
0.118426
0.108282
0.0987692
0.0898851
0.0816207
0.0739618
0.0668888
0.0603776
0.0544005
0.0489283
0.0439296
0.0393725
0.0352255
0.031458
0.0280404
0.0249447
0.0221444
0.019615
0.0173335
0.0152789
0.0134317
0.011774
0.0102892
0.00896248
0.0077798
0.00672844
0.00579664
0.00497354
0.00424907
0.00361388
0.0030593
0.00257725
0.0021602
0.001801
0.00149276
0.00122895
0.0010038
0.000812816
0.000652812
0.000521356
0.000415889
0.000333162
0.000269353
0.000220478
0.000182647
0.000152952
0.000129424
0.000110551
9.5211e-05
8.25778e-05
7.20444e-05
6.31602e-05
5.55874e-05
4.90689e-05
4.34085e-05
3.84535e-05
3.40824e-05
3.01999e-05
2.67316e-05
2.36182e-05
2.08112e-05
1.8274e-05
1.59801e-05
1.39074e-05
1.20383e-05
1.03617e-05
8.86605e-06
7.5418e-06
6.37538e-06
5.35928e-06
4.47589e-06
3.72015e-06
3.06929e-06
2.52193e-06
2.05954e-06
1.66966e-06
1.34005e-06
1.10595e-06
8.11777e-07
7.61028e-07
5.89867e-07
4.27739e-07
3.11916e-07
2.23583e-07
1.57761e-07
1.09134e-07
7.35703e-08
4.78347e-08
2.96344e-08
1.5893e-08
8.71704e-09
1.29867e-10
4.11816e-24
1.85069e-36
1.0608e-48
1.72887e-49
9.06602e-50
5.26223e-50
3.34765e-50
1.87579e-50
8.58434e-51
4.35777e-51
2.32635e-51
1.26425e-51
6.35284e-52
3.15997e-52
1.58337e-52
7.81892e-53
3.79857e-53
1.8146e-53
8.51922e-54
3.92774e-54
1.77763e-54
7.89378e-55
3.43716e-55
1.46655e-55
6.12735e-56
2.50497e-56
1.00126e-56
3.90972e-57
1.4901e-57
5.53789e-58
2.00495e-58
7.06358e-59
2.41889e-59
8.04159e-60
2.59198e-60
8.08851e-61
2.43997e-61
7.10325e-62
1.99204e-62
5.37091e-63
1.38919e-63
3.43876e-64
8.12482e-65
1.82691e-65
3.8965e-66
7.85359e-67
1.48955e-67
2.6456e-68
4.37552e-69
6.69429e-70
9.40033e-71
1.20014e-71
1.37689e-72
1.39877e-73
1.23432e-74
9.21757e-76
5.61099e-77
2.62596e-78
8.51078e-80
1.49754e-81
2.98089e-84
1.0017e-89
7.47282e-92
2.7621e-94
1.01413e-104
1.87447e-115
2.5601e-126
2.51703e-137
2.14904e-148
1.39045e-159
7.77128e-171
3.43206e-181
1.54443e-191
1.0667e-199
4.52626e-210
3.66884e-218
1.84033e-228
1.26266e-236
7.79603e-247
4.35012e-255
5.03097e-265
1.53034e-273
3.34892e-283
5.55008e-292
1.66077e-301
2.06507e-310
4.496e-322
2.51973e-321
8.86848e-321
4.57737e-319
2.8055e-319
6.80328e-321
7.09478e-321
6.08689e-321
8.5424e-321
0
0
0
0
0
0
0
0
0
0
0
0
0
0
0
0
)
;

boundaryField
{
    inandouthalf11
    {
        type            cyclic;
    }
    inandouthalf12
    {
        type            cyclic;
    }
    inandouthalf21
    {
        type            cyclic;
    }
    inandouthalf22
    {
        type            cyclic;
    }
    inandouthalf31
    {
        type            cyclic;
    }
    inandouthalf32
    {
        type            cyclic;
    }
    inandouthalf41
    {
        type            cyclic;
    }
    inandouthalf42
    {
        type            cyclic;
    }
    top
    {
        type            symmetryPlane;
    }
    walls
    {
        type            zeroGradient;
    }
    frontAndBackPlanes
    {
        type            empty;
    }
}


// ************************************************************************* //
