/*--------------------------------*- C++ -*----------------------------------*\
| =========                 |                                                 |
| \\      /  F ield         | OpenFOAM: The Open Source CFD Toolbox           |
|  \\    /   O peration     | Version:  2.4.x                                 |
|   \\  /    A nd           | Web:      www.OpenFOAM.org                      |
|    \\/     M anipulation  |                                                 |
\*---------------------------------------------------------------------------*/
FoamFile
{
    version     2.0;
    format      ascii;
    class       volScalarField;
    location    "9";
    object      alpha;
}
// * * * * * * * * * * * * * * * * * * * * * * * * * * * * * * * * * * * * * //

dimensions      [0 0 0 0 0 0 0];

internalField   nonuniform List<scalar> 
360
(
0.610868
0.611723
0.611815
0.611727
0.611684
0.611671
0.611654
0.611632
0.611609
0.611586
0.611563
0.61154
0.611516
0.611493
0.611469
0.611445
0.61142
0.611395
0.611371
0.611345
0.61132
0.611294
0.611268
0.611242
0.611215
0.611189
0.611162
0.611134
0.611107
0.611079
0.611051
0.611022
0.610994
0.610965
0.610935
0.610906
0.610876
0.610846
0.610815
0.610785
0.610753
0.610722
0.61069
0.610658
0.610625
0.610593
0.610559
0.610526
0.610492
0.610457
0.610423
0.610388
0.610352
0.610316
0.61028
0.610243
0.610206
0.610168
0.61013
0.610092
0.610053
0.610013
0.609973
0.609933
0.609891
0.60985
0.609808
0.609765
0.609721
0.609678
0.609633
0.609587
0.609542
0.609495
0.609448
0.6094
0.609351
0.609302
0.609252
0.609201
0.609149
0.609097
0.609043
0.608989
0.608934
0.608878
0.608821
0.608763
0.608704
0.608644
0.608582
0.60852
0.608457
0.608392
0.608326
0.608259
0.60819
0.60812
0.608049
0.607976
0.607902
0.607826
0.607748
0.607668
0.607587
0.607504
0.607419
0.607332
0.607243
0.607152
0.607058
0.606962
0.606863
0.606762
0.606659
0.606552
0.606442
0.60633
0.606214
0.606094
0.605971
0.605844
0.605713
0.605578
0.605438
0.605294
0.605144
0.604988
0.604827
0.604658
0.604483
0.6043
0.60411
0.603908
0.603695
0.603469
0.603231
0.602979
0.602699
0.602378
0.60203
0.601667
0.59894
0.474946
0.348244
0.299866
0.272768
0.252517
0.235347
0.2199
0.205584
0.192126
0.178452
0.165246
0.152622
0.140605
0.129206
0.118431
0.108287
0.0987742
0.0898902
0.0816259
0.073967
0.0668939
0.0603826
0.0544055
0.0489333
0.0439345
0.0393773
0.0352303
0.0314627
0.028045
0.0249492
0.0221488
0.0196193
0.0173377
0.015283
0.0134356
0.0117778
0.0102929
0.00896597
0.00778311
0.00673157
0.00579958
0.00497628
0.00425162
0.00361623
0.00306145
0.0025792
0.00216197
0.00180259
0.00149418
0.00123021
0.00100492
0.000813792
0.000653647
0.000522049
0.000416447
0.000333599
0.000269689
0.000220734
0.000182842
0.000153101
0.000129539
0.000110641
9.52815e-05
8.2634e-05
7.20897e-05
6.31971e-05
5.56178e-05
4.90942e-05
4.34296e-05
3.84714e-05
3.40977e-05
3.0213e-05
2.67429e-05
2.3628e-05
2.08198e-05
1.82815e-05
1.59867e-05
1.39132e-05
1.20434e-05
1.03662e-05
8.8699e-06
7.54512e-06
6.37823e-06
5.36171e-06
4.47794e-06
3.72187e-06
3.07072e-06
2.52312e-06
2.06052e-06
1.67047e-06
1.34068e-06
1.10652e-06
8.12159e-07
7.61425e-07
5.90186e-07
4.27964e-07
3.12081e-07
2.23703e-07
1.57848e-07
1.09197e-07
7.36152e-08
4.78662e-08
2.9659e-08
1.59022e-08
8.73202e-09
1.32621e-10
4.08351e-24
1.8292e-36
1.0514e-48
1.72192e-49
9.03525e-50
5.24711e-50
3.33881e-50
1.86893e-50
8.5523e-51
4.34298e-51
2.31889e-51
1.26025e-51
6.33069e-52
3.14936e-52
1.57806e-52
7.79267e-53
3.7858e-53
1.8085e-53
8.49055e-54
3.91451e-54
1.77164e-54
7.86714e-55
3.42555e-55
1.46159e-55
6.10662e-56
2.49649e-56
9.97867e-57
3.89645e-57
1.48503e-57
5.51905e-58
1.99812e-58
7.0395e-59
2.41063e-59
8.01412e-60
2.58312e-60
8.06081e-61
2.43161e-61
7.07888e-62
1.9852e-62
5.35244e-63
1.38441e-63
3.4269e-64
8.09676e-65
1.82059e-65
3.88301e-66
7.82637e-67
1.48438e-67
2.6364e-68
4.36028e-69
6.67095e-70
9.36751e-71
1.19594e-71
1.37207e-72
1.39386e-73
1.22998e-74
9.1851e-76
5.59118e-77
2.61667e-78
8.48059e-80
1.49221e-81
2.97012e-84
9.97805e-90
7.44362e-92
2.75125e-94
1.01023e-104
1.86742e-115
2.55064e-126
2.50796e-137
2.14142e-148
1.38568e-159
7.74525e-171
3.41882e-181
1.53848e-191
1.06251e-199
4.50884e-210
3.65443e-218
1.83323e-228
1.2577e-236
7.76585e-247
4.33303e-255
5.01149e-265
1.52434e-273
3.33597e-283
5.52833e-292
1.65434e-301
2.05699e-310
4.496e-322
2.51973e-321
8.86848e-321
4.57737e-319
2.8055e-319
6.80328e-321
7.09478e-321
6.08689e-321
8.5424e-321
0
0
0
0
0
0
0
0
0
0
0
0
0
0
0
0
)
;

boundaryField
{
    inandouthalf11
    {
        type            cyclic;
    }
    inandouthalf12
    {
        type            cyclic;
    }
    inandouthalf21
    {
        type            cyclic;
    }
    inandouthalf22
    {
        type            cyclic;
    }
    inandouthalf31
    {
        type            cyclic;
    }
    inandouthalf32
    {
        type            cyclic;
    }
    inandouthalf41
    {
        type            cyclic;
    }
    inandouthalf42
    {
        type            cyclic;
    }
    top
    {
        type            symmetryPlane;
    }
    walls
    {
        type            zeroGradient;
    }
    frontAndBackPlanes
    {
        type            empty;
    }
}


// ************************************************************************* //
