/*--------------------------------*- C++ -*----------------------------------*\
| =========                 |                                                 |
| \\      /  F ield         | OpenFOAM: The Open Source CFD Toolbox           |
|  \\    /   O peration     | Version:  2.4.x                                 |
|   \\  /    A nd           | Web:      www.OpenFOAM.org                      |
|    \\/     M anipulation  |                                                 |
\*---------------------------------------------------------------------------*/
FoamFile
{
    version     2.0;
    format      ascii;
    class       volVectorField;
    location    "9";
    object      ddt0(Ub);
}
// * * * * * * * * * * * * * * * * * * * * * * * * * * * * * * * * * * * * * //

dimensions      [0 1 -2 0 0 0 0];

internalField   nonuniform List<vector> 
360
(
(-0.000357918 -1.51062e-08 0)
(-0.000355976 -5.40992e-08 0)
(-0.000355712 -1.01104e-07 0)
(-0.00035599 -1.47248e-07 0)
(-0.000356134 -1.94894e-07 0)
(-0.000356192 -2.45008e-07 0)
(-0.00035626 -2.96801e-07 0)
(-0.000356342 -3.49505e-07 0)
(-0.000356428 -4.02797e-07 0)
(-0.000356514 -4.56558e-07 0)
(-0.000356601 -5.10684e-07 0)
(-0.000356688 -5.65047e-07 0)
(-0.000356776 -6.19508e-07 0)
(-0.000356865 -6.73927e-07 0)
(-0.000356954 -7.28171e-07 0)
(-0.000357045 -7.82114e-07 0)
(-0.000357136 -8.35654e-07 0)
(-0.000357228 -8.88666e-07 0)
(-0.00035732 -9.41022e-07 0)
(-0.000357413 -9.92613e-07 0)
(-0.000357506 -1.04331e-06 0)
(-0.0003576 -1.093e-06 0)
(-0.000357695 -1.14157e-06 0)
(-0.00035779 -1.18892e-06 0)
(-0.000357885 -1.23494e-06 0)
(-0.000357981 -1.27953e-06 0)
(-0.000358077 -1.3226e-06 0)
(-0.000358174 -1.36407e-06 0)
(-0.000358271 -1.40387e-06 0)
(-0.000358368 -1.44195e-06 0)
(-0.000358466 -1.47824e-06 0)
(-0.000358564 -1.51273e-06 0)
(-0.000358662 -1.54537e-06 0)
(-0.000358761 -1.57617e-06 0)
(-0.000358859 -1.60514e-06 0)
(-0.000358959 -1.6323e-06 0)
(-0.000359058 -1.6577e-06 0)
(-0.000359158 -1.68137e-06 0)
(-0.000359259 -1.70338e-06 0)
(-0.000359359 -1.72383e-06 0)
(-0.000359461 -1.74279e-06 0)
(-0.000359563 -1.76038e-06 0)
(-0.000359665 -1.77669e-06 0)
(-0.000359769 -1.79185e-06 0)
(-0.000359872 -1.80599e-06 0)
(-0.000359977 -1.81922e-06 0)
(-0.000360083 -1.83167e-06 0)
(-0.000360188 -1.84347e-06 0)
(-0.000360295 -1.85474e-06 0)
(-0.000360404 -1.86562e-06 0)
(-0.000360512 -1.87622e-06 0)
(-0.000360622 -1.88666e-06 0)
(-0.000360733 -1.89703e-06 0)
(-0.000360846 -1.90744e-06 0)
(-0.000360959 -1.91798e-06 0)
(-0.000361075 -1.92873e-06 0)
(-0.000361191 -1.93975e-06 0)
(-0.000361309 -1.95113e-06 0)
(-0.000361428 -1.96291e-06 0)
(-0.000361548 -1.97512e-06 0)
(-0.000361671 -1.98783e-06 0)
(-0.000361794 -2.00105e-06 0)
(-0.00036192 -2.01481e-06 0)
(-0.000362048 -2.02914e-06 0)
(-0.000362177 -2.04403e-06 0)
(-0.000362307 -2.05948e-06 0)
(-0.00036244 -2.0755e-06 0)
(-0.000362575 -2.09207e-06 0)
(-0.000362711 -2.10918e-06 0)
(-0.000362849 -2.1268e-06 0)
(-0.00036299 -2.14493e-06 0)
(-0.000363133 -2.16354e-06 0)
(-0.000363277 -2.18261e-06 0)
(-0.000363424 -2.20211e-06 0)
(-0.000363573 -2.22202e-06 0)
(-0.000363725 -2.24232e-06 0)
(-0.000363878 -2.26297e-06 0)
(-0.000364034 -2.28392e-06 0)
(-0.000364192 -2.30515e-06 0)
(-0.000364353 -2.32663e-06 0)
(-0.000364517 -2.34832e-06 0)
(-0.000364683 -2.37019e-06 0)
(-0.000364852 -2.39222e-06 0)
(-0.000365023 -2.41439e-06 0)
(-0.000365198 -2.43667e-06 0)
(-0.000365375 -2.45903e-06 0)
(-0.000365556 -2.48145e-06 0)
(-0.000365739 -2.5039e-06 0)
(-0.000365926 -2.52636e-06 0)
(-0.000366116 -2.54879e-06 0)
(-0.000366309 -2.57116e-06 0)
(-0.000366506 -2.59346e-06 0)
(-0.000366706 -2.61567e-06 0)
(-0.00036691 -2.63779e-06 0)
(-0.000367119 -2.65979e-06 0)
(-0.000367331 -2.68167e-06 0)
(-0.000367547 -2.70341e-06 0)
(-0.000367768 -2.72503e-06 0)
(-0.000367993 -2.74649e-06 0)
(-0.000368222 -2.76779e-06 0)
(-0.000368457 -2.78893e-06 0)
(-0.000368696 -2.8099e-06 0)
(-0.000368941 -2.83069e-06 0)
(-0.000369191 -2.8513e-06 0)
(-0.000369446 -2.87173e-06 0)
(-0.000369708 -2.89196e-06 0)
(-0.000369975 -2.912e-06 0)
(-0.000370249 -2.93185e-06 0)
(-0.000370529 -2.9515e-06 0)
(-0.000370817 -2.97099e-06 0)
(-0.000371111 -2.99033e-06 0)
(-0.000371413 -3.00959e-06 0)
(-0.000371722 -3.02883e-06 0)
(-0.00037204 -3.04813e-06 0)
(-0.000372367 -3.06761e-06 0)
(-0.000372702 -3.08739e-06 0)
(-0.000373047 -3.10761e-06 0)
(-0.000373402 -3.12844e-06 0)
(-0.000373768 -3.15e-06 0)
(-0.000374145 -3.1724e-06 0)
(-0.000374534 -3.19573e-06 0)
(-0.000374936 -3.22e-06 0)
(-0.000375351 -3.24518e-06 0)
(-0.000375781 -3.27122e-06 0)
(-0.000376226 -3.29803e-06 0)
(-0.000376687 -3.32559e-06 0)
(-0.000377165 -3.35393e-06 0)
(-0.000377662 -3.38332e-06 0)
(-0.00037818 -3.41421e-06 0)
(-0.000378719 -3.44737e-06 0)
(-0.000379283 -3.48377e-06 0)
(-0.000379871 -3.52438e-06 0)
(-0.000380489 -3.56921e-06 0)
(-0.000381141 -3.61617e-06 0)
(-0.000381837 -3.65924e-06 0)
(-0.000382568 -3.6904e-06 0)
(-0.000383334 -3.70615e-06 0)
(-0.000384136 -3.71049e-06 0)
(-0.000385033 -4.58363e-06 0)
(-0.00038606 0.000120215 0)
(-0.000387178 -0.000988793 0)
(-0.000387912 0.00283025 0)
(6.56325e-05 -0.0128807 0)
(0.116155 -0.038205 0)
(0.081611 3.16491e-05 0)
(0.0452537 0.00160346 0)
(0.0176165 0.00204795 0)
(-0.00503744 0.00224016 0)
(-0.024035 0.00233049 0)
(-0.0401482 0.00236256 0)
(-0.0539711 0.00235208 0)
(-0.0659435 0.00230695 0)
(-0.0764625 0.0022263 0)
(-0.0859255 0.00213038 0)
(-0.0946192 0.00202517 0)
(-0.102753 0.00191501 0)
(-0.110478 0.00180318 0)
(-0.117896 0.00169181 0)
(-0.125077 0.00158216 0)
(-0.132061 0.0014749 0)
(-0.138869 0.00137038 0)
(-0.145505 0.00126882 0)
(-0.151964 0.00117041 0)
(-0.158232 0.00107529 0)
(-0.164291 0.000983148 0)
(-0.170119 0.000894582 0)
(-0.175693 0.00080978 0)
(-0.180989 0.000728295 0)
(-0.185981 0.000650525 0)
(-0.190647 0.000576591 0)
(-0.194961 0.000506535 0)
(-0.1989 0.000440422 0)
(-0.20244 0.000378311 0)
(-0.205557 0.000320261 0)
(-0.208228 0.000266319 0)
(-0.210427 0.000216513 0)
(-0.212129 0.00017086 0)
(-0.213307 0.000129366 0)
(-0.213931 9.20165e-05 0)
(-0.213971 5.87769e-05 0)
(-0.21339 2.95888e-05 0)
(-0.212152 4.36381e-06 0)
(-0.210213 -1.70192e-05 0)
(-0.207526 -3.47196e-05 0)
(-0.204039 -4.8936e-05 0)
(-0.199694 -5.9903e-05 0)
(-0.194431 -6.78801e-05 0)
(-0.188183 -7.31402e-05 0)
(-0.180886 -7.59771e-05 0)
(-0.172474 -7.67473e-05 0)
(-0.162892 -7.59029e-05 0)
(-0.152097 -7.39265e-05 0)
(-0.140072 -7.11281e-05 0)
(-0.126832 -6.74502e-05 0)
(-0.112444 -6.25243e-05 0)
(-0.0970325 -5.60454e-05 0)
(-0.0807943 -4.81831e-05 0)
(-0.0639941 -3.96583e-05 0)
(-0.0469534 -3.14217e-05 0)
(-0.0300245 -2.42272e-05 0)
(-0.0135574 -1.84161e-05 0)
(0.00229375 -1.39206e-05 0)
(0.0173874 -1.05314e-05 0)
(0.0314781 -8.01988e-06 0)
(0.0443989 -6.1657e-06 0)
(0.056067 -4.79078e-06 0)
(0.0664764 -3.76262e-06 0)
(0.0756819 -2.98613e-06 0)
(0.0837797 -2.39369e-06 0)
(0.0908886 -1.93716e-06 0)
(0.0971354 -1.58197e-06 0)
(0.102644 -1.30314e-06 0)
(0.107527 -1.0825e-06 0)
(0.111887 -9.06638e-07 0)
(0.115812 -7.65322e-07 0)
(0.119374 -6.50819e-07 0)
(0.122635 -5.57299e-07 0)
(0.125646 -4.80175e-07 0)
(0.128448 -4.15719e-07 0)
(0.131074 -3.61088e-07 0)
(0.133552 -3.14162e-07 0)
(0.135902 -2.73244e-07 0)
(0.138142 -2.37064e-07 0)
(0.140287 -2.04854e-07 0)
(0.142346 -1.76137e-07 0)
(0.144328 -1.50566e-07 0)
(0.146242 -1.27886e-07 0)
(0.148092 -1.07917e-07 0)
(0.149882 -9.04889e-08 0)
(0.151617 -7.53477e-08 0)
(0.153299 -6.23268e-08 0)
(0.15493 -5.13602e-08 0)
(0.156512 -4.18311e-08 0)
(0.158046 -3.39473e-08 0)
(0.159533 -2.77057e-08 0)
(0.160975 -2.2307e-08 0)
(0.16237 -1.65162e-08 0)
(0.163718 -1.26146e-08 0)
(0.16502 -1.07665e-08 0)
(0.166273 -7.90494e-09 0)
(0.167477 -5.04075e-09 0)
(0.16863 -2.60262e-09 0)
(0.16973 -7.58227e-10 0)
(0.170773 4.12343e-10 0)
(0.171756 8.40408e-10 0)
(0.172676 1.28291e-09 0)
(0.173526 1.32336e-09 0)
(0.174301 -3.63982e-10 0)
(0.174994 -8.30524e-10 0)
(0.175598 4.16525e-11 0)
(0.176103 -7.03066e-11 0)
(0.176499 -8.83319e-11 0)
(0.176774 -5.34521e-11 0)
(0.176914 -8.60409e-12 0)
(0.176905 3.26484e-11 0)
(0.176729 7.87794e-11 0)
(0.176368 1.2315e-10 0)
(0.175802 1.68595e-10 0)
(0.175012 2.20727e-10 0)
(0.173979 3.10198e-10 0)
(0.17269 2.62829e-10 0)
(0.171138 5.63814e-10 0)
(0.169336 2.54921e-10 0)
(0.167325 8.75892e-10 0)
(0.1652 1.92267e-10 0)
(0.163155 1.06441e-09 0)
(0.161695 5.93384e-11 0)
(0.161828 1.16249e-09 0)
(0.161937 6.46453e-14 0)
(0.161941 1.22386e-09 0)
(0.161941 -3.32053e-11 0)
(0.161941 1.32809e-09 0)
(0.161941 -4.12135e-11 0)
(0.161941 1.39784e-09 0)
(0.161941 -1.05451e-10 0)
(0.161941 1.4776e-09 0)
(0.161941 -1.48049e-10 0)
(0.161941 1.56227e-09 0)
(0.161941 -2.00234e-10 0)
(0.161941 1.67154e-09 0)
(0.161941 -2.4344e-10 0)
(0.161941 1.75096e-09 0)
(0.161941 -3.34617e-10 0)
(0.161941 1.82376e-09 0)
(0.161941 -4.33038e-10 0)
(0.161941 1.88452e-09 0)
(0.161941 -5.62701e-10 0)
(0.161941 1.92044e-09 0)
(0.161941 -7.15215e-10 0)
(0.161941 1.95616e-09 0)
(0.161941 -8.79783e-10 0)
(0.161941 1.97574e-09 0)
(0.161941 -1.07311e-09 0)
(0.161941 1.98498e-09 0)
(0.161941 -1.261e-09 0)
(0.161941 2.06203e-09 0)
(0.161941 -1.37122e-09 0)
(0.161941 2.15962e-09 0)
(0.161941 -1.45396e-09 0)
(0.161941 2.37654e-09 0)
(0.161941 -1.45082e-09 0)
(0.161941 2.63813e-09 0)
(0.161941 -1.41953e-09 0)
(0.161941 2.92503e-09 0)
(0.161941 -1.3742e-09 0)
(0.161941 3.24228e-09 0)
(0.161941 -1.31481e-09 0)
(0.161941 3.57186e-09 0)
(0.161941 -1.25179e-09 0)
(0.161941 3.92218e-09 0)
(0.161941 -8.65984e-10 0)
(0.161941 3.87823e-09 0)
(0.161941 -6.88816e-10 0)
(0.161941 4.20288e-09 0)
(0.161941 -4.22811e-10 0)
(0.161941 4.51298e-09 0)
(0.161941 -2.05291e-10 0)
(0.161941 4.79853e-09 0)
(0.161941 -2.79547e-11 0)
(0.161941 5.00985e-09 0)
(0.161941 1.72283e-10 0)
(0.161941 5.4237e-09 0)
(0.161941 5.46958e-10 0)
(0.161941 5.79161e-09 0)
(0.161941 8.66989e-10 0)
(0.161941 6.33265e-09 0)
(0.161941 1.5622e-09 0)
(0.161941 7.82259e-09 0)
(0.161941 5.13422e-09 0)
(0.161941 1.4462e-08 0)
(0.161941 1.35456e-08 0)
(0.161941 2.31022e-08 0)
(0.161941 2.19599e-08 0)
(0.161941 3.14317e-08 0)
(0.161941 2.93127e-08 0)
(0.161941 3.74061e-08 0)
(0.161941 3.52555e-08 0)
(0.161941 4.4626e-08 0)
(0.161941 4.17884e-08 0)
(0.161941 4.86366e-08 0)
(0.161941 4.39897e-08 0)
(0.161941 5.00763e-08 0)
(0.161941 4.32228e-08 0)
(0.161941 4.64605e-08 0)
(0.161941 4.0266e-08 0)
(0.161941 4.7161e-08 0)
(0.161941 4.08718e-08 0)
(0.161941 4.36999e-08 0)
(0.161941 3.41265e-08 0)
(0.161941 3.53662e-08 0)
(0.161941 2.22933e-08 0)
(0.161941 1.89051e-08 0)
(0.161941 2.5842e-09 0)
(0.161941 -2.10421e-09 0)
(0.161941 -1.95588e-08 0)
(0.161941 -2.47053e-08 0)
(0.161941 -4.45137e-08 0)
(0.161941 -5.07349e-08 0)
(0.161941 -6.31214e-08 0)
(0.161941 -2.85095e-08 0)
)
;

boundaryField
{
    inandouthalf11
    {
        type            cyclic;
    }
    inandouthalf12
    {
        type            cyclic;
    }
    inandouthalf21
    {
        type            cyclic;
    }
    inandouthalf22
    {
        type            cyclic;
    }
    inandouthalf31
    {
        type            cyclic;
    }
    inandouthalf32
    {
        type            cyclic;
    }
    inandouthalf41
    {
        type            cyclic;
    }
    inandouthalf42
    {
        type            cyclic;
    }
    top
    {
        type            symmetryPlane;
    }
    walls
    {
        type            calculated;
        value           uniform (0 0 0);
    }
    frontAndBackPlanes
    {
        type            empty;
    }
}


// ************************************************************************* //
