/*--------------------------------*- C++ -*----------------------------------*\
| =========                 |                                                 |
| \\      /  F ield         | OpenFOAM: The Open Source CFD Toolbox           |
|  \\    /   O peration     | Version:  2.4.x                                 |
|   \\  /    A nd           | Web:      www.OpenFOAM.org                      |
|    \\/     M anipulation  |                                                 |
\*---------------------------------------------------------------------------*/
FoamFile
{
    version     2.0;
    format      ascii;
    class       volScalarField;
    location    "9";
    object      ddt0(alpha);
}
// * * * * * * * * * * * * * * * * * * * * * * * * * * * * * * * * * * * * * //

dimensions      [0 0 -1 0 0 0 0];

internalField   nonuniform List<scalar> 
360
(
2.34518e-05
3.53855e-05
3.31149e-05
3.2272e-05
3.35768e-05
3.47313e-05
3.53778e-05
3.59028e-05
3.64834e-05
3.71484e-05
3.78559e-05
3.85611e-05
3.92579e-05
3.99355e-05
4.05976e-05
4.12447e-05
4.18701e-05
4.24648e-05
4.30238e-05
4.35539e-05
4.4033e-05
4.44807e-05
4.48855e-05
4.52468e-05
4.55648e-05
4.58366e-05
4.60587e-05
4.62435e-05
4.63786e-05
4.64651e-05
4.65035e-05
4.65077e-05
4.64455e-05
4.63676e-05
4.62243e-05
4.60508e-05
4.58284e-05
4.55768e-05
4.52991e-05
4.496e-05
4.46207e-05
4.42411e-05
4.38225e-05
4.3408e-05
4.29583e-05
4.24979e-05
4.2026e-05
4.15196e-05
4.10227e-05
4.05362e-05
4.00173e-05
3.95141e-05
3.90015e-05
3.85025e-05
3.79884e-05
3.7505e-05
3.70004e-05
3.65201e-05
3.60367e-05
3.55483e-05
3.50992e-05
3.46382e-05
3.42068e-05
3.37722e-05
3.33497e-05
3.29284e-05
3.25208e-05
3.21182e-05
3.17178e-05
3.13153e-05
3.09381e-05
3.05727e-05
3.01926e-05
2.98378e-05
2.94815e-05
2.91387e-05
2.87829e-05
2.8428e-05
2.80743e-05
2.77227e-05
2.73674e-05
2.7018e-05
2.66737e-05
2.63321e-05
2.59934e-05
2.56534e-05
2.53123e-05
2.49647e-05
2.4611e-05
2.42527e-05
2.38907e-05
2.35259e-05
2.31614e-05
2.2797e-05
2.24324e-05
2.20665e-05
2.16981e-05
2.13258e-05
2.0949e-05
2.05679e-05
2.0183e-05
1.97953e-05
1.94064e-05
1.90177e-05
1.8631e-05
1.82483e-05
1.78717e-05
1.75035e-05
1.71459e-05
1.68006e-05
1.64683e-05
1.61486e-05
1.58386e-05
1.55334e-05
1.5225e-05
1.49029e-05
1.45544e-05
1.41659e-05
1.37252e-05
1.32243e-05
1.26631e-05
1.20522e-05
1.14152e-05
1.07893e-05
1.02235e-05
9.77504e-06
9.50507e-06
9.47138e-06
9.71809e-06
1.0251e-05
1.09938e-05
1.17151e-05
1.19816e-05
1.1212e-05
9.00471e-06
5.59238e-06
2.06618e-06
-4.48914e-07
-1.72125e-06
-2.33084e-06
-2.93796e-06
-0.000199951
-0.194335
-0.249971
-0.167101
-0.0867822
-0.0534852
-0.0345519
-0.0213495
-0.0111649
-0.00266719
0.00521754
0.0107755
0.0150645
0.0184029
0.0209492
0.0228268
0.0241499
0.0250249
0.0255497
0.0258102
0.0258779
0.0258109
0.0256544
0.0254407
0.0251882
0.024906
0.024608
0.0242895
0.0239489
0.023582
0.0231832
0.0227472
0.0222688
0.0217436
0.0211681
0.0205401
0.0198585
0.0191237
0.0183371
0.0175018
0.0166219
0.0157031
0.0147524
0.0137779
0.0127888
0.0117947
0.010805
0.00982949
0.00888002
0.00797273
0.00712441
0.00634155
0.00561029
0.00490087
0.00418904
0.0034776
0.00279797
0.00219072
0.00168403
0.00128408
0.000977695
0.000747076
0.000575668
0.000448453
0.000353489
0.000281917
0.000227379
0.000185349
0.000152605
0.000126827
0.000106324
8.98818e-05
7.65942e-05
6.57487e-05
5.68061e-05
4.93727e-05
4.313e-05
3.77951e-05
3.31691e-05
2.91195e-05
2.55128e-05
2.22614e-05
1.93215e-05
1.66757e-05
1.42903e-05
1.21666e-05
1.02774e-05
8.63143e-06
7.20125e-06
5.94092e-06
4.90962e-06
4.05612e-06
3.12681e-06
2.82223e-06
1.91786e-06
1.99206e-06
1.60304e-06
1.13053e-06
8.29099e-07
5.99562e-07
4.34121e-07
3.12921e-07
2.25004e-07
1.58142e-07
1.23519e-07
4.64168e-08
7.53656e-08
1.37407e-08
-1.75425e-22
-1.08745e-34
-4.7536e-47
-3.49876e-48
-1.54931e-48
-7.60518e-49
-4.4477e-49
-3.45056e-49
-1.61341e-49
-7.44754e-50
-3.75567e-50
-2.01403e-50
-1.1149e-50
-5.33931e-51
-2.67235e-51
-1.32074e-51
-6.42192e-52
-3.07046e-52
-1.44273e-52
-6.65725e-53
-3.01574e-53
-1.34043e-53
-5.84214e-54
-2.49509e-54
-1.04348e-54
-4.27014e-55
-1.70852e-55
-6.67817e-56
-2.54783e-56
-9.47876e-57
-3.43532e-57
-1.21158e-57
-4.15349e-58
-1.38234e-58
-4.46055e-59
-1.39353e-59
-4.20853e-60
-1.22662e-60
-3.44402e-61
-9.29689e-62
-2.4076e-62
-5.96711e-63
-1.41165e-63
-3.17829e-64
-6.78775e-65
-1.36995e-65
-2.60191e-66
-4.62781e-67
-7.66499e-68
-1.17445e-68
-1.65174e-69
-2.11214e-70
-2.42722e-71
-2.47005e-72
-2.18361e-73
-1.63382e-74
-9.96621e-76
-4.67497e-77
-1.51922e-78
-2.68267e-80
-5.42232e-83
-1.95891e-88
-1.46952e-90
-5.4619e-93
-1.99691e-103
-3.68239e-114
-5.02389e-125
-4.94519e-136
-4.23103e-147
-2.74943e-158
-1.53672e-169
-6.78773e-180
-3.05115e-190
-2.10935e-198
-8.95312e-209
-7.25497e-217
-3.63889e-227
-2.49686e-235
-1.54129e-245
-8.60219e-254
-9.94701e-264
-3.02615e-272
-6.62054e-282
-1.0975e-290
-3.28416e-300
-4.08351e-309
-7.41098e-323
0
0
0
0
0
0
0
0
0
0
0
0
0
0
0
0
0
0
0
0
0
0
0
0
)
;

boundaryField
{
    inandouthalf11
    {
        type            cyclic;
    }
    inandouthalf12
    {
        type            cyclic;
    }
    inandouthalf21
    {
        type            cyclic;
    }
    inandouthalf22
    {
        type            cyclic;
    }
    inandouthalf31
    {
        type            cyclic;
    }
    inandouthalf32
    {
        type            cyclic;
    }
    inandouthalf41
    {
        type            cyclic;
    }
    inandouthalf42
    {
        type            cyclic;
    }
    top
    {
        type            symmetryPlane;
    }
    walls
    {
        type            calculated;
        value           uniform 2.34518e-05;
    }
    frontAndBackPlanes
    {
        type            empty;
    }
}


// ************************************************************************* //
