/*--------------------------------*- C++ -*----------------------------------*\
| =========                 |                                                 |
| \\      /  F ield         | OpenFOAM: The Open Source CFD Toolbox           |
|  \\    /   O peration     | Version:  2.4.x                                 |
|   \\  /    A nd           | Web:      www.OpenFOAM.org                      |
|    \\/     M anipulation  |                                                 |
\*---------------------------------------------------------------------------*/
FoamFile
{
    version     2.0;
    format      ascii;
    class       surfaceScalarField;
    location    "9";
    object      ddt0(phib);
}
// * * * * * * * * * * * * * * * * * * * * * * * * * * * * * * * * * * * * * //

dimensions      [0 3 -2 0 0 0 0];

internalField   nonuniform List<scalar> 
359
(
-1.23205e-13
-3.12662e-13
-4.96482e-13
-6.81501e-13
-8.77624e-13
-1.08249e-12
-1.29198e-12
-1.50411e-12
-1.71831e-12
-1.93419e-12
-2.15132e-12
-2.36909e-12
-2.587e-12
-2.80445e-12
-3.02095e-12
-3.236e-12
-3.44927e-12
-3.6601e-12
-3.86812e-12
-4.07282e-12
-4.27372e-12
-4.47032e-12
-4.66228e-12
-4.84909e-12
-5.03047e-12
-5.20582e-12
-5.37499e-12
-5.53759e-12
-5.69343e-12
-5.84218e-12
-5.98379e-12
-6.11803e-12
-6.24493e-12
-6.36443e-12
-6.47669e-12
-6.58174e-12
-6.67985e-12
-6.77109e-12
-6.85598e-12
-6.93466e-12
-7.00771e-12
-7.07535e-12
-7.1382e-12
-7.19663e-12
-7.25128e-12
-7.30249e-12
-7.35091e-12
-7.39687e-12
-7.44107e-12
-7.48389e-12
-7.52592e-12
-7.56738e-12
-7.6089e-12
-7.65065e-12
-7.6932e-12
-7.73662e-12
-7.78146e-12
-7.82762e-12
-7.87566e-12
-7.92537e-12
-7.97728e-12
-8.03115e-12
-8.08738e-12
-8.14574e-12
-8.2065e-12
-8.2694e-12
-8.33465e-12
-8.40196e-12
-8.47153e-12
-8.54296e-12
-8.61652e-12
-8.69186e-12
-8.76909e-12
-8.84786e-12
-8.92837e-12
-9.01025e-12
-9.09355e-12
-9.17788e-12
-9.26339e-12
-9.3497e-12
-9.43692e-12
-9.52468e-12
-9.61317e-12
-9.702e-12
-9.7914e-12
-9.8809e-12
-9.97076e-12
-1.00605e-11
-1.01504e-11
-1.024e-11
-1.03294e-11
-1.04184e-11
-1.05071e-11
-1.05953e-11
-1.06831e-11
-1.07703e-11
-1.08571e-11
-1.09432e-11
-1.10288e-11
-1.11136e-11
-1.11979e-11
-1.12814e-11
-1.13643e-11
-1.14463e-11
-1.15277e-11
-1.16082e-11
-1.1688e-11
-1.17669e-11
-1.18453e-11
-1.19228e-11
-1.2e-11
-1.20769e-11
-1.21539e-11
-1.22313e-11
-1.23098e-11
-1.23895e-11
-1.24716e-11
-1.25561e-11
-1.26441e-11
-1.27354e-11
-1.28307e-11
-1.29296e-11
-1.30322e-11
-1.31379e-11
-1.32467e-11
-1.33584e-11
-1.34736e-11
-1.35935e-11
-1.37207e-11
-1.38588e-11
-1.40119e-11
-1.41838e-11
-1.43707e-11
-1.45595e-11
-1.47152e-11
-1.48088e-11
-1.4829e-11
-1.48135e-11
-1.47833e-11
-1.47389e-11
-1.44066e-11
4.81525e-10
-1.65811e-07
-9.13731e-09
4.21948e-09
7.18466e-09
8.56552e-09
9.11116e-09
9.35998e-09
9.41713e-09
9.30505e-09
9.05093e-09
8.7053e-09
8.30523e-09
7.87525e-09
7.4319e-09
6.98642e-09
6.54498e-09
6.11177e-09
5.68871e-09
5.27688e-09
4.87714e-09
4.49004e-09
4.11727e-09
3.75311e-09
3.4091e-09
3.07551e-09
2.75714e-09
2.45389e-09
2.16595e-09
1.89366e-09
1.63726e-09
1.39695e-09
1.173e-09
9.65527e-10
7.74632e-10
6.00347e-10
4.42678e-10
3.01505e-10
1.76662e-10
6.78401e-11
-2.53671e-11
-1.03527e-10
-1.67348e-10
-2.17699e-10
-2.55577e-10
-2.82062e-10
-2.98283e-10
-3.05493e-10
-3.05252e-10
-2.99456e-10
-2.89839e-10
-2.77033e-10
-2.60113e-10
-2.37483e-10
-2.08716e-10
-1.75692e-10
-1.41977e-10
-1.11084e-10
-8.51517e-11
-6.47188e-11
-4.8988e-11
-3.71927e-11
-2.84486e-11
-2.19724e-11
-1.71501e-11
-1.35284e-11
-1.07817e-11
-8.67754e-12
-7.04994e-12
-5.7788e-12
-4.77758e-12
-3.98306e-12
-3.3478e-12
-2.83523e-12
-2.4185e-12
-2.07681e-12
-1.79354e-12
-1.5549e-12
-1.35163e-12
-1.17585e-12
-1.0216e-12
-8.84492e-13
-7.62638e-13
-6.53892e-13
-5.57418e-13
-4.71919e-13
-3.97149e-13
-3.32073e-13
-2.75563e-13
-2.27191e-13
-1.87736e-13
-1.50349e-13
-1.24102e-13
-9.93357e-14
-8.05732e-14
-5.44016e-14
-4.97463e-14
-3.72004e-14
-2.57776e-14
-1.50952e-14
-6.76897e-15
-4.81934e-16
2.83295e-15
3.12474e-15
5.55612e-15
2.82939e-15
-3.98358e-15
2.26847e-16
-6.07065e-16
-2.98794e-16
-3.54425e-16
-2.1914e-17
-4.45097e-17
2.9943e-16
3.27121e-16
6.57746e-16
6.97915e-16
1.06499e-15
1.18725e-15
1.56756e-15
1.73301e-15
2.16166e-15
2.31549e-15
2.42052e-15
2.32516e-15
2.37468e-15
2.38406e-15
2.39818e-15
2.40803e-15
2.52836e-15
2.67826e-15
2.65081e-15
2.64114e-15
2.66666e-15
2.75243e-15
2.74738e-15
2.7969e-15
2.85021e-15
2.97751e-15
2.92542e-15
2.92184e-15
2.8993e-15
2.87693e-15
2.82993e-15
2.74409e-15
2.63635e-15
2.48928e-15
2.40432e-15
2.25414e-15
2.11279e-15
1.90457e-15
1.71702e-15
1.53886e-15
1.4039e-15
1.58592e-15
1.35124e-15
1.50937e-15
1.70467e-15
1.96646e-15
2.24135e-15
2.56357e-15
2.87523e-15
3.21895e-15
3.6077e-15
3.98042e-15
4.38523e-15
4.7585e-15
5.21371e-15
5.61011e-15
6.00353e-15
6.31389e-15
7.02289e-15
7.59302e-15
8.18675e-15
8.60668e-15
9.21413e-15
9.56672e-15
9.97134e-15
1.01803e-14
1.12404e-14
1.19518e-14
1.27583e-14
1.30859e-14
1.44261e-14
1.54051e-14
1.76541e-14
2.36041e-14
3.84171e-14
5.56998e-14
7.41416e-14
8.90965e-14
1.08334e-13
1.215e-13
1.35065e-13
1.42025e-13
1.62067e-13
1.7295e-13
1.84021e-13
1.82733e-13
1.91843e-13
1.86477e-13
1.82237e-13
1.66327e-13
1.78477e-13
1.76063e-13
1.74421e-13
1.52171e-13
1.44233e-13
1.1577e-13
8.62258e-14
4.17652e-14
2.4971e-15
-4.29316e-14
-8.99221e-14
-1.31242e-13
-2.01153e-13
-2.29271e-13
-2.52712e-13
)
;

boundaryField
{
    inandouthalf11
    {
        type            cyclic;
        value           nonuniform List<scalar> 
100
(
3.57918e-10
3.55976e-10
3.55712e-10
3.5599e-10
3.56134e-10
3.56192e-10
3.5626e-10
3.56342e-10
3.56428e-10
3.56514e-10
3.56601e-10
3.56688e-10
3.56776e-10
3.56865e-10
3.56954e-10
3.57045e-10
3.57136e-10
3.57228e-10
3.5732e-10
3.57413e-10
3.57506e-10
3.576e-10
3.57695e-10
3.5779e-10
3.57885e-10
3.57981e-10
3.58077e-10
3.58174e-10
3.58271e-10
3.58368e-10
3.58466e-10
3.58564e-10
3.58662e-10
3.58761e-10
3.58859e-10
3.58959e-10
3.59058e-10
3.59158e-10
3.59259e-10
3.59359e-10
3.59461e-10
3.59563e-10
3.59665e-10
3.59769e-10
3.59872e-10
3.59977e-10
3.60083e-10
3.60188e-10
3.60295e-10
3.60404e-10
3.60512e-10
3.60622e-10
3.60733e-10
3.60846e-10
3.60959e-10
3.61075e-10
3.61191e-10
3.61309e-10
3.61428e-10
3.61548e-10
3.61671e-10
3.61794e-10
3.6192e-10
3.62048e-10
3.62177e-10
3.62307e-10
3.6244e-10
3.62575e-10
3.62711e-10
3.62849e-10
3.6299e-10
3.63133e-10
3.63277e-10
3.63424e-10
3.63573e-10
3.63725e-10
3.63878e-10
3.64034e-10
3.64192e-10
3.64353e-10
3.64517e-10
3.64683e-10
3.64852e-10
3.65023e-10
3.65198e-10
3.65375e-10
3.65556e-10
3.65739e-10
3.65926e-10
3.66116e-10
3.66309e-10
3.66506e-10
3.66706e-10
3.6691e-10
3.67119e-10
3.67331e-10
3.67547e-10
3.67768e-10
3.67993e-10
3.68222e-10
)
;
    }
    inandouthalf12
    {
        type            cyclic;
        value           nonuniform List<scalar> 
100
(
-3.57918e-10
-3.55976e-10
-3.55712e-10
-3.5599e-10
-3.56134e-10
-3.56192e-10
-3.5626e-10
-3.56342e-10
-3.56428e-10
-3.56514e-10
-3.56601e-10
-3.56688e-10
-3.56776e-10
-3.56865e-10
-3.56954e-10
-3.57045e-10
-3.57136e-10
-3.57228e-10
-3.5732e-10
-3.57413e-10
-3.57506e-10
-3.576e-10
-3.57695e-10
-3.5779e-10
-3.57885e-10
-3.57981e-10
-3.58077e-10
-3.58174e-10
-3.58271e-10
-3.58368e-10
-3.58466e-10
-3.58564e-10
-3.58662e-10
-3.58761e-10
-3.58859e-10
-3.58959e-10
-3.59058e-10
-3.59158e-10
-3.59259e-10
-3.59359e-10
-3.59461e-10
-3.59563e-10
-3.59665e-10
-3.59769e-10
-3.59872e-10
-3.59977e-10
-3.60083e-10
-3.60188e-10
-3.60295e-10
-3.60404e-10
-3.60512e-10
-3.60622e-10
-3.60733e-10
-3.60846e-10
-3.60959e-10
-3.61075e-10
-3.61191e-10
-3.61309e-10
-3.61428e-10
-3.61548e-10
-3.61671e-10
-3.61794e-10
-3.6192e-10
-3.62048e-10
-3.62177e-10
-3.62307e-10
-3.6244e-10
-3.62575e-10
-3.62711e-10
-3.62849e-10
-3.6299e-10
-3.63133e-10
-3.63277e-10
-3.63424e-10
-3.63573e-10
-3.63725e-10
-3.63878e-10
-3.64034e-10
-3.64192e-10
-3.64353e-10
-3.64517e-10
-3.64683e-10
-3.64852e-10
-3.65023e-10
-3.65198e-10
-3.65375e-10
-3.65556e-10
-3.65739e-10
-3.65926e-10
-3.66116e-10
-3.66309e-10
-3.66506e-10
-3.66706e-10
-3.6691e-10
-3.67119e-10
-3.67331e-10
-3.67547e-10
-3.67768e-10
-3.67993e-10
-3.68222e-10
)
;
    }
    inandouthalf21
    {
        type            cyclic;
        value           nonuniform List<scalar> 
100
(
3.68457e-10
3.68696e-10
3.68941e-10
3.69191e-10
3.69446e-10
3.69708e-10
3.69975e-10
3.70249e-10
3.70529e-10
3.70817e-10
3.71111e-10
3.71413e-10
3.71722e-10
3.7204e-10
3.72367e-10
3.72702e-10
3.73047e-10
3.73402e-10
3.73768e-10
3.74145e-10
3.74534e-10
3.74936e-10
3.75351e-10
3.75781e-10
3.76226e-10
3.76687e-10
3.77165e-10
3.77662e-10
3.7818e-10
3.78719e-10
3.79283e-10
3.79871e-10
3.80489e-10
3.81141e-10
3.81837e-10
3.82568e-10
3.83334e-10
3.84136e-10
3.85033e-10
3.8606e-10
3.87178e-10
3.87912e-10
-6.56325e-11
-1.16155e-07
-8.1611e-08
-4.52537e-08
-1.76165e-08
5.03744e-09
2.4035e-08
4.01482e-08
5.39711e-08
6.59435e-08
7.64625e-08
8.59255e-08
9.46192e-08
1.02753e-07
1.10478e-07
1.17896e-07
1.25077e-07
1.32061e-07
1.38869e-07
1.45505e-07
1.51964e-07
1.58232e-07
1.64291e-07
1.70119e-07
1.75693e-07
1.80989e-07
1.85981e-07
1.90647e-07
1.94961e-07
1.989e-07
2.0244e-07
2.05557e-07
2.08228e-07
2.10427e-07
2.12129e-07
2.13307e-07
2.13931e-07
2.13971e-07
2.1339e-07
2.12152e-07
2.10213e-07
2.07526e-07
2.04039e-07
1.99694e-07
1.94431e-07
1.88183e-07
1.80886e-07
1.72474e-07
1.62892e-07
1.52097e-07
1.40072e-07
1.26832e-07
1.12444e-07
9.70325e-08
8.07943e-08
6.39941e-08
4.69534e-08
3.00245e-08
)
;
    }
    inandouthalf22
    {
        type            cyclic;
        value           nonuniform List<scalar> 
100
(
-3.68457e-10
-3.68696e-10
-3.68941e-10
-3.69191e-10
-3.69446e-10
-3.69708e-10
-3.69975e-10
-3.70249e-10
-3.70529e-10
-3.70817e-10
-3.71111e-10
-3.71413e-10
-3.71722e-10
-3.7204e-10
-3.72367e-10
-3.72702e-10
-3.73047e-10
-3.73402e-10
-3.73768e-10
-3.74145e-10
-3.74534e-10
-3.74936e-10
-3.75351e-10
-3.75781e-10
-3.76226e-10
-3.76687e-10
-3.77165e-10
-3.77662e-10
-3.7818e-10
-3.78719e-10
-3.79283e-10
-3.79871e-10
-3.80489e-10
-3.81141e-10
-3.81837e-10
-3.82568e-10
-3.83334e-10
-3.84136e-10
-3.85033e-10
-3.8606e-10
-3.87178e-10
-3.87912e-10
6.56325e-11
1.16155e-07
8.1611e-08
4.52537e-08
1.76165e-08
-5.03744e-09
-2.4035e-08
-4.01482e-08
-5.39711e-08
-6.59435e-08
-7.64625e-08
-8.59255e-08
-9.46192e-08
-1.02753e-07
-1.10478e-07
-1.17896e-07
-1.25077e-07
-1.32061e-07
-1.38869e-07
-1.45505e-07
-1.51964e-07
-1.58232e-07
-1.64291e-07
-1.70119e-07
-1.75693e-07
-1.80989e-07
-1.85981e-07
-1.90647e-07
-1.94961e-07
-1.989e-07
-2.0244e-07
-2.05557e-07
-2.08228e-07
-2.10427e-07
-2.12129e-07
-2.13307e-07
-2.13931e-07
-2.13971e-07
-2.1339e-07
-2.12152e-07
-2.10213e-07
-2.07526e-07
-2.04039e-07
-1.99694e-07
-1.94431e-07
-1.88183e-07
-1.80886e-07
-1.72474e-07
-1.62892e-07
-1.52097e-07
-1.40072e-07
-1.26832e-07
-1.12444e-07
-9.70325e-08
-8.07943e-08
-6.39941e-08
-4.69534e-08
-3.00245e-08
)
;
    }
    inandouthalf31
    {
        type            cyclic;
        value           nonuniform List<scalar> 
110
(
1.35574e-08
-2.34032e-09
-1.81005e-08
-3.34342e-08
-4.81151e-08
-6.1993e-08
-7.49945e-08
-8.71126e-08
-9.83907e-08
-1.08906e-07
-1.18754e-07
-1.28035e-07
-1.36849e-07
-1.45288e-07
-1.53436e-07
-1.61366e-07
-1.69139e-07
-1.76809e-07
-1.84421e-07
-1.92011e-07
-1.99612e-07
-2.07247e-07
-2.1494e-07
-2.22706e-07
-2.30562e-07
-2.38519e-07
-2.46586e-07
-2.54774e-07
-2.63088e-07
-2.71534e-07
-2.80119e-07
-2.88845e-07
-2.97718e-07
-3.06738e-07
-3.1591e-07
-3.25233e-07
-3.3471e-07
-3.4434e-07
-3.54122e-07
-3.64055e-07
-3.74134e-07
-3.84356e-07
-3.94715e-07
-4.05202e-07
-4.15807e-07
-4.26517e-07
-4.37316e-07
-4.48186e-07
-4.59102e-07
-4.70037e-07
-4.80957e-07
-4.91823e-07
-5.02587e-07
-5.13195e-07
-5.23584e-07
-5.3368e-07
-5.434e-07
-5.52651e-07
-5.61335e-07
-5.69348e-07
-5.76598e-07
-5.83014e-07
-5.88585e-07
-5.93401e-07
-5.97755e-07
-6.0234e-07
-6.09065e-07
-6.21939e-07
-6.34991e-07
-6.47892e-07
-6.61043e-07
-6.74461e-07
-6.8815e-07
-7.02118e-07
-7.16369e-07
-7.30909e-07
-7.45745e-07
-7.60882e-07
-7.76325e-07
-7.92083e-07
-8.0816e-07
-8.24563e-07
-8.413e-07
-8.58376e-07
-8.75799e-07
-8.93575e-07
-9.11712e-07
-9.30218e-07
-9.49099e-07
-9.68363e-07
-9.88018e-07
-1.00807e-06
-1.02853e-06
-1.04941e-06
-1.07071e-06
-1.09244e-06
-1.11462e-06
-1.13724e-06
-1.16032e-06
-1.18387e-06
-1.2079e-06
-1.23242e-06
-1.25744e-06
-1.28296e-06
-1.309e-06
-1.33557e-06
-1.36268e-06
-1.39034e-06
-1.41856e-06
-1.44735e-06
)
;
    }
    inandouthalf32
    {
        type            cyclic;
        value           nonuniform List<scalar> 
110
(
-1.35574e-08
2.34032e-09
1.81005e-08
3.34342e-08
4.81151e-08
6.1993e-08
7.49945e-08
8.71126e-08
9.83907e-08
1.08906e-07
1.18754e-07
1.28035e-07
1.36849e-07
1.45288e-07
1.53436e-07
1.61366e-07
1.69139e-07
1.76809e-07
1.84421e-07
1.92011e-07
1.99612e-07
2.07247e-07
2.1494e-07
2.22706e-07
2.30562e-07
2.38519e-07
2.46586e-07
2.54774e-07
2.63088e-07
2.71534e-07
2.80119e-07
2.88845e-07
2.97718e-07
3.06738e-07
3.1591e-07
3.25233e-07
3.3471e-07
3.4434e-07
3.54122e-07
3.64055e-07
3.74134e-07
3.84356e-07
3.94715e-07
4.05202e-07
4.15807e-07
4.26517e-07
4.37316e-07
4.48186e-07
4.59102e-07
4.70037e-07
4.80957e-07
4.91823e-07
5.02587e-07
5.13195e-07
5.23584e-07
5.3368e-07
5.434e-07
5.52651e-07
5.61335e-07
5.69348e-07
5.76598e-07
5.83014e-07
5.88585e-07
5.93401e-07
5.97755e-07
6.0234e-07
6.09065e-07
6.21939e-07
6.34991e-07
6.47892e-07
6.61043e-07
6.74461e-07
6.8815e-07
7.02118e-07
7.16369e-07
7.30909e-07
7.45745e-07
7.60882e-07
7.76325e-07
7.92083e-07
8.0816e-07
8.24563e-07
8.413e-07
8.58376e-07
8.75799e-07
8.93575e-07
9.11712e-07
9.30218e-07
9.49099e-07
9.68363e-07
9.88018e-07
1.00807e-06
1.02853e-06
1.04941e-06
1.07071e-06
1.09244e-06
1.11462e-06
1.13724e-06
1.16032e-06
1.18387e-06
1.2079e-06
1.23242e-06
1.25744e-06
1.28296e-06
1.309e-06
1.33557e-06
1.36268e-06
1.39034e-06
1.41856e-06
1.44735e-06
)
;
    }
    inandouthalf41
    {
        type            cyclic;
        value           nonuniform List<scalar> 
50
(
-1.29552e-06
-1.29552e-06
-1.29552e-06
-1.29552e-06
-1.29552e-06
-1.29552e-06
-1.29552e-06
-1.29552e-06
-1.29552e-06
-1.29552e-06
-1.29552e-06
-1.29552e-06
-1.29552e-06
-1.29552e-06
-1.29552e-06
-1.29552e-06
-1.29552e-06
-1.29552e-06
-1.29552e-06
-1.29552e-06
-1.29552e-06
-1.29552e-06
-1.29552e-06
-1.29552e-06
-1.29552e-06
-1.29552e-06
-1.29552e-06
-1.29552e-06
-1.29552e-06
-1.29552e-06
-1.29552e-06
-1.29552e-06
-1.29552e-06
-1.29552e-06
-1.29552e-06
-1.29552e-06
-1.29552e-06
-1.29552e-06
-1.29552e-06
-1.29552e-06
-1.29552e-06
-1.29552e-06
-1.29552e-06
-1.29552e-06
-1.29552e-06
-1.29552e-06
-1.29552e-06
-1.29552e-06
-1.29552e-06
-1.29552e-06
)
;
    }
    inandouthalf42
    {
        type            cyclic;
        value           nonuniform List<scalar> 
50
(
1.29552e-06
1.29552e-06
1.29552e-06
1.29552e-06
1.29552e-06
1.29552e-06
1.29552e-06
1.29552e-06
1.29552e-06
1.29552e-06
1.29552e-06
1.29552e-06
1.29552e-06
1.29552e-06
1.29552e-06
1.29552e-06
1.29552e-06
1.29552e-06
1.29552e-06
1.29552e-06
1.29552e-06
1.29552e-06
1.29552e-06
1.29552e-06
1.29552e-06
1.29552e-06
1.29552e-06
1.29552e-06
1.29552e-06
1.29552e-06
1.29552e-06
1.29552e-06
1.29552e-06
1.29552e-06
1.29552e-06
1.29552e-06
1.29552e-06
1.29552e-06
1.29552e-06
1.29552e-06
1.29552e-06
1.29552e-06
1.29552e-06
1.29552e-06
1.29552e-06
1.29552e-06
1.29552e-06
1.29552e-06
1.29552e-06
1.29552e-06
)
;
    }
    top
    {
        type            symmetryPlane;
        value           uniform 0;
    }
    walls
    {
        type            calculated;
        value           uniform 0;
    }
    frontAndBackPlanes
    {
        type            empty;
        value           nonuniform 0();
    }
}


// ************************************************************************* //
