/*--------------------------------*- C++ -*----------------------------------*\
| =========                 |                                                 |
| \\      /  F ield         | OpenFOAM: The Open Source CFD Toolbox           |
|  \\    /   O peration     | Version:  2.4.x                                 |
|   \\  /    A nd           | Web:      www.OpenFOAM.org                      |
|    \\/     M anipulation  |                                                 |
\*---------------------------------------------------------------------------*/
FoamFile
{
    version     2.0;
    format      ascii;
    class       volScalarField;
    location    "9";
    object      ddt0(((1.5*(alpha+1e-08))*rho),Theta);
}
// * * * * * * * * * * * * * * * * * * * * * * * * * * * * * * * * * * * * * //

dimensions      [1 -1 -3 0 0 0 0];

internalField   nonuniform List<scalar> 
360
(
-8.70286e-22
-2.88477e-21
-2.15293e-21
-2.10251e-21
-2.40635e-21
-2.62022e-21
-2.71941e-21
-2.79172e-21
-2.86635e-21
-2.94289e-21
-3.01704e-21
-3.08433e-21
-3.1427e-21
-3.19188e-21
-3.23232e-21
-3.26428e-21
-3.28684e-21
-3.29873e-21
-3.29957e-21
-3.28891e-21
-3.26614e-21
-3.2318e-21
-3.18611e-21
-3.12895e-21
-3.06066e-21
-2.98156e-21
-2.89258e-21
-2.79497e-21
-2.68919e-21
-2.576e-21
-2.45714e-21
-2.33371e-21
-2.207e-21
-2.07886e-21
-1.95016e-21
-1.82213e-21
-1.69655e-21
-1.57506e-21
-1.45827e-21
-1.34704e-21
-1.24294e-21
-1.14619e-21
-1.05731e-21
-9.77277e-22
-9.06033e-22
-8.43531e-22
-7.89507e-22
-7.43721e-22
-7.06551e-22
-6.77432e-22
-6.553e-22
-6.39813e-22
-6.30528e-22
-6.26626e-22
-6.27517e-22
-6.32603e-22
-6.41116e-22
-6.52489e-22
-6.66006e-22
-6.81332e-22
-6.98386e-22
-7.16554e-22
-7.35365e-22
-7.54319e-22
-7.72889e-22
-7.90896e-22
-8.0824e-22
-8.24552e-22
-8.39353e-22
-8.52932e-22
-8.65867e-22
-8.77578e-22
-8.87568e-22
-8.96368e-22
-9.04065e-22
-9.1013e-22
-9.14109e-22
-9.16156e-22
-9.16656e-22
-9.15587e-22
-9.13023e-22
-9.09349e-22
-9.04777e-22
-8.99269e-22
-8.92774e-22
-8.85216e-22
-8.76463e-22
-8.66384e-22
-8.5502e-22
-8.42562e-22
-8.29198e-22
-8.15158e-22
-8.00689e-22
-7.85933e-22
-7.70939e-22
-7.55712e-22
-7.4023e-22
-7.24468e-22
-7.08431e-22
-6.92158e-22
-6.75704e-22
-6.59133e-22
-6.42513e-22
-6.25902e-22
-6.09363e-22
-5.92983e-22
-5.76895e-22
-5.61293e-22
-5.46441e-22
-5.32672e-22
-5.20376e-22
-5.09978e-22
-5.01895e-22
-4.96487e-22
-4.93985e-22
-4.94408e-22
-4.97478e-22
-5.02549e-22
-5.08589e-22
-5.14273e-22
-5.18177e-22
-5.19196e-22
-5.16934e-22
-5.12271e-22
-5.07478e-22
-5.06573e-22
-5.14786e-22
-5.39444e-22
-8.31539e-20
5.99506e-16
5.95623e-15
5.87339e-14
6.03881e-13
6.58566e-12
7.71e-11
9.78612e-10
1.36416e-08
2.1291e-07
3.84855e-06
0.000109335
0.00675983
0.171554
1.66071
5.7128
5.50439
3.56281
2.06123
1.11741
0.493258
0.0626649
-0.261152
-0.587533
-0.760704
-0.853593
-0.891693
-0.887133
-0.848478
-0.783134
-0.69797
-0.599313
-0.492865
-0.383574
-0.275605
-0.172302
-0.0762583
0.0101245
0.0872208
0.152935
0.207549
0.251302
0.284619
0.308233
0.322976
0.329748
0.329567
0.323429
0.312323
0.297186
0.278941
0.258419
0.236404
0.213588
0.190598
0.167973
0.146176
0.125583
0.106488
0.0891048
0.0735651
0.0599239
0.048163
0.0381985
0.0298968
0.0230969
0.0176305
0.0133305
0.0100281
0.00755044
0.00572584
0.00439671
0.00342932
0.00271391
0.00217519
0.0017646
0.0014472
0.00119823
0.00100022
0.000840666
0.000710578
0.000603364
0.00051413
0.000439209
0.00037581
0.000321765
0.000275401
0.000235418
0.00020079
0.000170694
0.000144486
0.000121671
0.000101832
8.46271e-05
6.97888e-05
5.7068e-05
4.6249e-05
3.71067e-05
2.94678e-05
2.31159e-05
1.79158e-05
1.36565e-05
1.02421e-05
7.50968e-06
5.33883e-06
3.62361e-06
2.374e-06
1.20675e-06
0
0
0
0
0
0
0
0
0
0
0
0
0
0
0
0
0
0
0
0
0
0
0
0
0
0
0
0
0
0
0
0
0
0
0
0
0
0
0
0
0
0
0
0
0
0
0
0
0
0
0
0
0
0
0
0
0
0
0
0
0
0
0
0
0
0
0
0
0
0
0
0
0
0
0
0
0
0
0
0
0
0
0
0
0
0
0
0
0
0
0
0
0
0
0
0
0
0
0
0
0
0
0
0
0
0
0
0
0
0
0
0
0
0
0
0
0
0
0
0
0
0
0
0
)
;

boundaryField
{
    inandouthalf11
    {
        type            cyclic;
    }
    inandouthalf12
    {
        type            cyclic;
    }
    inandouthalf21
    {
        type            cyclic;
    }
    inandouthalf22
    {
        type            cyclic;
    }
    inandouthalf31
    {
        type            cyclic;
    }
    inandouthalf32
    {
        type            cyclic;
    }
    inandouthalf41
    {
        type            cyclic;
    }
    inandouthalf42
    {
        type            cyclic;
    }
    top
    {
        type            symmetryPlane;
    }
    walls
    {
        type            calculated;
        value           uniform -8.70286e-22;
    }
    frontAndBackPlanes
    {
        type            empty;
    }
}


// ************************************************************************* //
