/*--------------------------------*- C++ -*----------------------------------*\
| =========                 |                                                 |
| \\      /  F ield         | OpenFOAM: The Open Source CFD Toolbox           |
|  \\    /   O peration     | Version:  2.4.x                                 |
|   \\  /    A nd           | Web:      www.OpenFOAM.org                      |
|    \\/     M anipulation  |                                                 |
\*---------------------------------------------------------------------------*/
FoamFile
{
    version     2.0;
    format      ascii;
    class       surfaceScalarField;
    location    "9";
    object      ddt0(phia);
}
// * * * * * * * * * * * * * * * * * * * * * * * * * * * * * * * * * * * * * //

dimensions      [0 3 -2 0 0 0 0];

internalField   nonuniform List<scalar> 
359
(
7.84575e-14
1.98682e-13
3.1546e-13
4.33128e-13
5.57814e-13
6.88057e-13
8.21244e-13
9.56182e-13
1.09243e-12
1.22978e-12
1.36796e-12
1.50659e-12
1.64531e-12
1.78377e-12
1.92165e-12
2.05867e-12
2.19453e-12
2.32893e-12
2.46154e-12
2.59209e-12
2.72024e-12
2.84572e-12
2.96825e-12
3.08755e-12
3.20337e-12
3.31545e-12
3.42359e-12
3.52759e-12
3.62728e-12
3.72253e-12
3.81321e-12
3.89927e-12
3.98064e-12
4.05738e-12
4.12947e-12
4.19702e-12
4.26012e-12
4.31893e-12
4.37367e-12
4.4245e-12
4.47171e-12
4.51555e-12
4.55629e-12
4.59428e-12
4.62981e-12
4.66322e-12
4.69482e-12
4.72492e-12
4.75387e-12
4.78198e-12
4.80952e-12
4.8368e-12
4.86406e-12
4.89157e-12
4.91951e-12
4.94812e-12
4.97754e-12
5.00794e-12
5.03944e-12
5.07214e-12
5.10616e-12
5.14154e-12
5.17837e-12
5.21666e-12
5.25643e-12
5.29767e-12
5.34036e-12
5.38448e-12
5.42997e-12
5.47679e-12
5.52491e-12
5.57429e-12
5.62482e-12
5.67649e-12
5.72919e-12
5.78289e-12
5.83746e-12
5.89282e-12
5.94889e-12
6.00558e-12
6.06282e-12
6.12054e-12
6.17868e-12
6.23719e-12
6.29599e-12
6.35503e-12
6.41425e-12
6.47355e-12
6.53287e-12
6.59215e-12
6.65132e-12
6.71035e-12
6.76919e-12
6.82782e-12
6.88621e-12
6.94434e-12
7.00219e-12
7.05975e-12
7.11699e-12
7.17388e-12
7.23043e-12
7.28661e-12
7.34242e-12
7.39783e-12
7.45285e-12
7.50746e-12
7.56166e-12
7.61547e-12
7.66892e-12
7.72207e-12
7.77502e-12
7.82794e-12
7.88102e-12
7.93453e-12
7.9888e-12
8.04418e-12
8.10107e-12
8.15985e-12
8.22087e-12
8.2844e-12
8.35057e-12
8.41941e-12
8.49078e-12
8.56451e-12
8.64041e-12
8.71852e-12
8.79918e-12
8.88337e-12
8.97261e-12
9.06944e-12
9.1764e-12
9.29616e-12
9.42623e-12
9.55828e-12
9.66906e-12
9.7398e-12
9.76276e-12
9.76334e-12
9.75549e-12
9.73974e-12
9.52871e-12
-3.25833e-10
1.43556e-07
1.48586e-08
-6.6281e-09
-1.62437e-08
-2.27527e-08
-2.72677e-08
-3.11072e-08
-3.45319e-08
-3.75539e-08
-4.02613e-08
-4.27985e-08
-4.51899e-08
-4.74874e-08
-4.97359e-08
-5.19722e-08
-5.42146e-08
-5.64763e-08
-5.87574e-08
-6.10521e-08
-6.33527e-08
-6.56486e-08
-6.79458e-08
-7.01366e-08
-7.23833e-08
-7.4503e-08
-7.65585e-08
-7.85279e-08
-8.03943e-08
-8.21455e-08
-8.37674e-08
-8.52464e-08
-8.6572e-08
-8.77306e-08
-8.871e-08
-8.94973e-08
-9.00825e-08
-9.04526e-08
-9.0598e-08
-9.05061e-08
-9.01652e-08
-8.95581e-08
-8.86633e-08
-8.74473e-08
-8.58642e-08
-8.38534e-08
-8.13444e-08
-7.82551e-08
-7.44564e-08
-6.96924e-08
-6.35274e-08
-5.54639e-08
-4.52764e-08
-3.33663e-08
-2.0811e-08
-8.99274e-09
9.47693e-10
8.446e-09
1.35212e-08
1.65375e-08
1.80081e-08
1.83444e-08
1.7905e-08
1.69679e-08
1.57332e-08
1.43387e-08
1.28761e-08
1.14051e-08
9.96351e-09
8.57511e-09
7.25363e-09
6.0083e-09
4.84624e-09
3.77181e-09
2.78755e-09
1.89627e-09
1.10122e-09
4.01857e-10
-2.04656e-10
-7.19954e-10
-1.14982e-09
-1.50315e-09
-1.78962e-09
-2.01692e-09
-2.19564e-09
-2.33322e-09
-2.4385e-09
-2.52073e-09
-2.57316e-09
-2.63243e-09
-2.69262e-09
-2.65258e-09
-2.9464e-09
-2.73858e-09
-3.43698e-09
-1.39669e-08
4.61227e-10
4.00229e-09
-2.20666e-09
-2.15159e-08
-5.67055e-08
-1.08697e-07
-1.75152e-07
-2.27568e-07
-4.03125e-07
-4.71148e-07
5.47399e-07
6.13817e-07
-1.17911e-08
-4.03038e-09
1.71061e-10
-3.15895e-11
-3.86549e-11
-5.54272e-11
-7.37796e-11
-9.39375e-11
-1.15711e-10
-1.38762e-10
-1.62554e-10
-1.8656e-10
-2.12875e-10
-2.34934e-10
-2.41321e-10
-2.49752e-10
-3.16709e-10
-3.22234e-10
-1.33602e-10
-1.15238e-10
-1.16594e-10
-1.16637e-10
-1.16641e-10
-1.16641e-10
-1.16641e-10
-1.16641e-10
-1.16641e-10
-1.16641e-10
-1.16641e-10
-1.16641e-10
-1.16641e-10
-1.16641e-10
-1.16641e-10
-1.16641e-10
-1.16641e-10
-1.16641e-10
-1.16641e-10
-1.16641e-10
-1.16641e-10
-1.16641e-10
-1.16641e-10
-1.16641e-10
-1.16641e-10
-1.16642e-10
-1.16641e-10
-1.16642e-10
-1.16641e-10
-1.16642e-10
-1.16641e-10
-1.16642e-10
-1.16641e-10
-1.16641e-10
-1.16641e-10
-1.16641e-10
-1.16641e-10
-1.16641e-10
-1.1664e-10
-1.16641e-10
-1.1664e-10
-1.1664e-10
-1.1664e-10
-1.1664e-10
-1.16639e-10
-1.1664e-10
-1.16639e-10
-1.16639e-10
-1.16639e-10
-1.16639e-10
-1.16638e-10
-1.16638e-10
-1.16638e-10
-1.16638e-10
-1.16637e-10
-1.16637e-10
-1.16637e-10
-1.16637e-10
-1.16636e-10
-1.16635e-10
-1.16633e-10
-1.16627e-10
-1.16621e-10
-1.16614e-10
-1.16608e-10
-1.16601e-10
-1.16595e-10
-1.1659e-10
-1.16587e-10
-1.1658e-10
-1.16575e-10
-1.16572e-10
-1.16571e-10
-1.16568e-10
-1.1657e-10
-1.16572e-10
-1.16577e-10
-1.16573e-10
-1.16573e-10
-1.16574e-10
-1.16582e-10
-1.16585e-10
-1.16596e-10
-1.16607e-10
-1.16624e-10
-1.16639e-10
-1.16656e-10
-1.16673e-10
-1.16692e-10
-1.16791e-10
-1.18361e-10
-1.8648e-10
)
;

boundaryField
{
    inandouthalf11
    {
        type            cyclic;
        value           nonuniform List<scalar> 
100
(
8.97652e-39
1.40691e-14
2.98296e-14
4.44632e-14
5.97189e-14
7.58882e-14
9.25316e-14
1.09405e-13
1.26457e-13
1.43671e-13
1.61029e-13
1.785e-13
1.96048e-13
2.13631e-13
2.31215e-13
2.48765e-13
2.66247e-13
2.83627e-13
3.00867e-13
3.17931e-13
3.34781e-13
3.51379e-13
3.67691e-13
3.83681e-13
3.99316e-13
4.14563e-13
4.2939e-13
4.4377e-13
4.57677e-13
4.71088e-13
4.83983e-13
4.96346e-13
5.08163e-13
5.19429e-13
5.30137e-13
5.40288e-13
5.49886e-13
5.58939e-13
5.67462e-13
5.75469e-13
5.82982e-13
5.90024e-13
5.96622e-13
6.02804e-13
6.08603e-13
6.1405e-13
6.19181e-13
6.24027e-13
6.28625e-13
6.33009e-13
6.37214e-13
6.41272e-13
6.45213e-13
6.49069e-13
6.52866e-13
6.5663e-13
6.60384e-13
6.6415e-13
6.67946e-13
6.71788e-13
6.75692e-13
6.79671e-13
6.83735e-13
6.87894e-13
6.92152e-13
6.96515e-13
7.00984e-13
7.05561e-13
7.10244e-13
7.15032e-13
7.19923e-13
7.24917e-13
7.30008e-13
7.35192e-13
7.40465e-13
7.45821e-13
7.51253e-13
7.56753e-13
7.62313e-13
7.67924e-13
7.7358e-13
7.79274e-13
7.84999e-13
7.90751e-13
7.96523e-13
8.02308e-13
8.08099e-13
8.13888e-13
8.19667e-13
8.25428e-13
8.31163e-13
8.36865e-13
8.42529e-13
8.4815e-13
8.53723e-13
8.59244e-13
8.64709e-13
8.70111e-13
8.75447e-13
8.80711e-13
)
;
    }
    inandouthalf12
    {
        type            cyclic;
        value           nonuniform List<scalar> 
100
(
-8.97652e-39
-1.40691e-14
-2.98296e-14
-4.44632e-14
-5.97189e-14
-7.58882e-14
-9.25316e-14
-1.09405e-13
-1.26457e-13
-1.43671e-13
-1.61029e-13
-1.785e-13
-1.96048e-13
-2.13631e-13
-2.31215e-13
-2.48765e-13
-2.66247e-13
-2.83627e-13
-3.00867e-13
-3.17931e-13
-3.34781e-13
-3.51379e-13
-3.67691e-13
-3.83681e-13
-3.99316e-13
-4.14563e-13
-4.2939e-13
-4.4377e-13
-4.57677e-13
-4.71088e-13
-4.83983e-13
-4.96346e-13
-5.08163e-13
-5.19429e-13
-5.30137e-13
-5.40288e-13
-5.49886e-13
-5.58939e-13
-5.67462e-13
-5.75469e-13
-5.82982e-13
-5.90024e-13
-5.96622e-13
-6.02804e-13
-6.08603e-13
-6.1405e-13
-6.19181e-13
-6.24027e-13
-6.28625e-13
-6.33009e-13
-6.37214e-13
-6.41272e-13
-6.45213e-13
-6.49069e-13
-6.52866e-13
-6.5663e-13
-6.60384e-13
-6.6415e-13
-6.67946e-13
-6.71788e-13
-6.75692e-13
-6.79671e-13
-6.83735e-13
-6.87894e-13
-6.92152e-13
-6.96515e-13
-7.00984e-13
-7.05561e-13
-7.10244e-13
-7.15032e-13
-7.19923e-13
-7.24917e-13
-7.30008e-13
-7.35192e-13
-7.40465e-13
-7.45821e-13
-7.51253e-13
-7.56753e-13
-7.62313e-13
-7.67924e-13
-7.7358e-13
-7.79274e-13
-7.84999e-13
-7.90751e-13
-7.96523e-13
-8.02308e-13
-8.08099e-13
-8.13888e-13
-8.19667e-13
-8.25428e-13
-8.31163e-13
-8.36865e-13
-8.42529e-13
-8.4815e-13
-8.53723e-13
-8.59244e-13
-8.64709e-13
-8.70111e-13
-8.75447e-13
-8.80711e-13
)
;
    }
    inandouthalf21
    {
        type            cyclic;
        value           nonuniform List<scalar> 
100
(
8.85898e-13
8.91e-13
8.96014e-13
9.0093e-13
9.0574e-13
9.10437e-13
9.1501e-13
9.19448e-13
9.23744e-13
9.2789e-13
9.31883e-13
9.35726e-13
9.3943e-13
9.43016e-13
9.46518e-13
9.49982e-13
9.53469e-13
9.57055e-13
9.60825e-13
9.64868e-13
9.69271e-13
9.7411e-13
9.79433e-13
9.85263e-13
9.91577e-13
9.9835e-13
1.0055e-12
1.01304e-12
1.02091e-12
1.02938e-12
1.03856e-12
1.0495e-12
1.06231e-12
1.07869e-12
1.0945e-12
1.10881e-12
1.11085e-12
1.11067e-12
1.10419e-12
1.11016e-12
1.10933e-12
1.17333e-12
1.69393e-10
-1.37961e-07
-8.04701e-08
-5.08651e-08
-2.50299e-08
-3.14739e-09
1.54065e-08
3.1148e-08
4.4625e-08
5.63374e-08
6.6716e-08
7.60531e-08
8.46208e-08
9.26259e-08
1.00218e-07
1.07502e-07
1.14544e-07
1.21384e-07
1.2804e-07
1.34514e-07
1.40795e-07
1.46867e-07
1.52704e-07
1.58278e-07
1.63559e-07
1.68514e-07
1.73108e-07
1.77305e-07
1.81064e-07
1.84346e-07
1.87104e-07
1.8929e-07
1.90849e-07
1.91723e-07
1.91848e-07
1.91155e-07
1.89573e-07
1.87026e-07
1.8344e-07
1.78747e-07
1.72882e-07
1.65797e-07
1.57464e-07
1.47876e-07
1.37064e-07
1.25096e-07
1.12083e-07
9.81852e-08
8.36102e-08
6.86122e-08
5.34899e-08
3.85774e-08
2.42207e-08
1.07348e-08
-1.64789e-09
-1.28125e-08
-2.27627e-08
-3.15893e-08
)
;
    }
    inandouthalf22
    {
        type            cyclic;
        value           nonuniform List<scalar> 
100
(
-8.85898e-13
-8.91e-13
-8.96014e-13
-9.0093e-13
-9.0574e-13
-9.10437e-13
-9.1501e-13
-9.19448e-13
-9.23744e-13
-9.2789e-13
-9.31883e-13
-9.35726e-13
-9.3943e-13
-9.43016e-13
-9.46518e-13
-9.49982e-13
-9.53469e-13
-9.57055e-13
-9.60825e-13
-9.64868e-13
-9.69271e-13
-9.7411e-13
-9.79433e-13
-9.85263e-13
-9.91577e-13
-9.9835e-13
-1.0055e-12
-1.01304e-12
-1.02091e-12
-1.02938e-12
-1.03856e-12
-1.0495e-12
-1.06231e-12
-1.07869e-12
-1.0945e-12
-1.10881e-12
-1.11085e-12
-1.11067e-12
-1.10419e-12
-1.11016e-12
-1.10933e-12
-1.17333e-12
-1.69393e-10
1.37961e-07
8.04701e-08
5.08651e-08
2.50299e-08
3.14739e-09
-1.54065e-08
-3.1148e-08
-4.4625e-08
-5.63374e-08
-6.6716e-08
-7.60531e-08
-8.46208e-08
-9.26259e-08
-1.00218e-07
-1.07502e-07
-1.14544e-07
-1.21384e-07
-1.2804e-07
-1.34514e-07
-1.40795e-07
-1.46867e-07
-1.52704e-07
-1.58278e-07
-1.63559e-07
-1.68514e-07
-1.73108e-07
-1.77305e-07
-1.81064e-07
-1.84346e-07
-1.87104e-07
-1.8929e-07
-1.90849e-07
-1.91723e-07
-1.91848e-07
-1.91155e-07
-1.89573e-07
-1.87026e-07
-1.8344e-07
-1.78747e-07
-1.72882e-07
-1.65797e-07
-1.57464e-07
-1.47876e-07
-1.37064e-07
-1.25096e-07
-1.12083e-07
-9.81852e-08
-8.36102e-08
-6.86122e-08
-5.34899e-08
-3.85774e-08
-2.42207e-08
-1.07348e-08
1.64789e-09
1.28125e-08
2.27627e-08
3.15893e-08
)
;
    }
    inandouthalf31
    {
        type            cyclic;
        value           nonuniform List<scalar> 
110
(
-3.94266e-08
-4.74285e-08
-5.51027e-08
-6.25078e-08
-6.9693e-08
-7.66982e-08
-8.35551e-08
-9.02894e-08
-9.69216e-08
-1.03468e-07
-1.09943e-07
-1.16357e-07
-1.22719e-07
-1.29036e-07
-1.35313e-07
-1.41554e-07
-1.47764e-07
-1.53944e-07
-1.60098e-07
-1.66228e-07
-1.72338e-07
-1.78432e-07
-1.84515e-07
-1.90592e-07
-1.96669e-07
-2.02752e-07
-2.08846e-07
-2.14956e-07
-2.21083e-07
-2.27226e-07
-2.33382e-07
-2.39539e-07
-2.4568e-07
-2.51782e-07
-2.57789e-07
-2.6366e-07
-2.69575e-07
-3.59121e-07
-3.73708e-07
-3.85625e-07
-3.95756e-07
-4.06205e-07
-4.16344e-07
-4.26947e-07
-4.35755e-07
-4.41646e-07
-4.55417e-07
-4.69593e-07
-4.81856e-07
-4.87671e-07
-5.00081e-07
-5.11194e-07
-5.22268e-07
-5.33172e-07
-5.43851e-07
-5.54231e-07
-5.64228e-07
-5.73748e-07
-5.82693e-07
-5.90962e-07
-5.9847e-07
-6.05186e-07
-6.11478e-07
-6.15888e-07
-6.20365e-07
-6.26809e-07
-6.34372e-07
-6.48203e-07
-6.61688e-07
-6.75128e-07
-6.88831e-07
-7.02812e-07
-7.17078e-07
-7.31632e-07
-7.46483e-07
-7.61634e-07
-7.77093e-07
-7.92866e-07
-8.08959e-07
-8.25379e-07
-8.42132e-07
-8.59225e-07
-8.76665e-07
-8.94459e-07
-9.12614e-07
-9.31138e-07
-9.50037e-07
-9.69321e-07
-9.88995e-07
-1.00907e-06
-1.02955e-06
-1.05045e-06
-1.07177e-06
-1.09352e-06
-1.11572e-06
-1.13836e-06
-1.16147e-06
-1.18505e-06
-1.2091e-06
-1.23364e-06
-1.25868e-06
-1.28423e-06
-1.31029e-06
-1.33689e-06
-1.36402e-06
-1.39171e-06
-1.41996e-06
-1.44878e-06
-1.47819e-06
-1.50819e-06
)
;
    }
    inandouthalf32
    {
        type            cyclic;
        value           nonuniform List<scalar> 
110
(
3.94266e-08
4.74285e-08
5.51027e-08
6.25078e-08
6.9693e-08
7.66982e-08
8.35551e-08
9.02894e-08
9.69216e-08
1.03468e-07
1.09943e-07
1.16357e-07
1.22719e-07
1.29036e-07
1.35313e-07
1.41554e-07
1.47764e-07
1.53944e-07
1.60098e-07
1.66228e-07
1.72338e-07
1.78432e-07
1.84515e-07
1.90592e-07
1.96669e-07
2.02752e-07
2.08846e-07
2.14956e-07
2.21083e-07
2.27226e-07
2.33382e-07
2.39539e-07
2.4568e-07
2.51782e-07
2.57789e-07
2.6366e-07
2.69575e-07
3.59121e-07
3.73708e-07
3.85625e-07
3.95756e-07
4.06205e-07
4.16344e-07
4.26947e-07
4.35755e-07
4.41646e-07
4.55417e-07
4.69593e-07
4.81856e-07
4.87671e-07
5.00081e-07
5.11194e-07
5.22268e-07
5.33172e-07
5.43851e-07
5.54231e-07
5.64228e-07
5.73748e-07
5.82693e-07
5.90962e-07
5.9847e-07
6.05186e-07
6.11478e-07
6.15888e-07
6.20365e-07
6.26809e-07
6.34372e-07
6.48203e-07
6.61688e-07
6.75128e-07
6.88831e-07
7.02812e-07
7.17078e-07
7.31632e-07
7.46483e-07
7.61634e-07
7.77093e-07
7.92866e-07
8.08959e-07
8.25379e-07
8.42132e-07
8.59225e-07
8.76665e-07
8.94459e-07
9.12614e-07
9.31138e-07
9.50037e-07
9.69321e-07
9.88995e-07
1.00907e-06
1.02955e-06
1.05045e-06
1.07177e-06
1.09352e-06
1.11572e-06
1.13836e-06
1.16147e-06
1.18505e-06
1.2091e-06
1.23364e-06
1.25868e-06
1.28423e-06
1.31029e-06
1.33689e-06
1.36402e-06
1.39171e-06
1.41996e-06
1.44878e-06
1.47819e-06
1.50819e-06
)
;
    }
    inandouthalf41
    {
        type            cyclic;
        value           nonuniform List<scalar> 
50
(
-1.34998e-06
-1.34998e-06
-1.34998e-06
-1.34998e-06
-1.34998e-06
-1.34998e-06
-1.34998e-06
-1.34998e-06
-1.34998e-06
-1.34998e-06
-1.34998e-06
-1.34998e-06
-1.34998e-06
-1.34998e-06
-1.34998e-06
-1.34998e-06
-1.34998e-06
-1.34998e-06
-1.34998e-06
-1.34998e-06
-1.34998e-06
-1.34998e-06
-1.34998e-06
-1.34998e-06
-1.34998e-06
-1.34998e-06
-1.34998e-06
-1.34998e-06
-1.34998e-06
-1.34998e-06
-1.34998e-06
-1.34998e-06
-1.34998e-06
-1.34998e-06
-1.34998e-06
-1.34998e-06
-1.34998e-06
-1.34998e-06
-1.34998e-06
-1.34998e-06
-1.34998e-06
-1.34998e-06
-1.34998e-06
-1.34998e-06
-1.34998e-06
-1.34998e-06
-1.34998e-06
-1.35e-06
-1.35038e-06
-1.35917e-06
)
;
    }
    inandouthalf42
    {
        type            cyclic;
        value           nonuniform List<scalar> 
50
(
1.34998e-06
1.34998e-06
1.34998e-06
1.34998e-06
1.34998e-06
1.34998e-06
1.34998e-06
1.34998e-06
1.34998e-06
1.34998e-06
1.34998e-06
1.34998e-06
1.34998e-06
1.34998e-06
1.34998e-06
1.34998e-06
1.34998e-06
1.34998e-06
1.34998e-06
1.34998e-06
1.34998e-06
1.34998e-06
1.34998e-06
1.34998e-06
1.34998e-06
1.34998e-06
1.34998e-06
1.34998e-06
1.34998e-06
1.34998e-06
1.34998e-06
1.34998e-06
1.34998e-06
1.34998e-06
1.34998e-06
1.34998e-06
1.34998e-06
1.34998e-06
1.34998e-06
1.34998e-06
1.34998e-06
1.34998e-06
1.34998e-06
1.34998e-06
1.34998e-06
1.34998e-06
1.34998e-06
1.35e-06
1.35038e-06
1.35917e-06
)
;
    }
    top
    {
        type            symmetryPlane;
        value           uniform 0;
    }
    walls
    {
        type            calculated;
        value           uniform 0;
    }
    frontAndBackPlanes
    {
        type            empty;
        value           nonuniform 0();
    }
}


// ************************************************************************* //
