/*--------------------------------*- C++ -*----------------------------------*\
| =========                 |                                                 |
| \\      /  F ield         | OpenFOAM: The Open Source CFD Toolbox           |
|  \\    /   O peration     | Version:  2.4.x                                 |
|   \\  /    A nd           | Web:      www.OpenFOAM.org                      |
|    \\/     M anipulation  |                                                 |
\*---------------------------------------------------------------------------*/
FoamFile
{
    version     2.0;
    format      ascii;
    class       volVectorField;
    location    "9";
    object      ddt0(Ua);
}
// * * * * * * * * * * * * * * * * * * * * * * * * * * * * * * * * * * * * * //

dimensions      [0 1 -2 0 0 0 0];

internalField   nonuniform List<vector> 
360
(
(-8.97652e-33 -4.04137e-33 0)
(-1.40691e-08 3.59415e-08 0)
(-2.98296e-08 6.57156e-08 0)
(-4.44632e-08 9.32237e-08 0)
(-5.97189e-08 1.23265e-07 0)
(-7.58882e-08 1.55463e-07 0)
(-9.25316e-08 1.88553e-07 0)
(-1.09405e-07 2.22094e-07 0)
(-1.26457e-07 2.56e-07 0)
(-1.43671e-07 2.90215e-07 0)
(-1.61029e-07 3.24677e-07 0)
(-1.785e-07 3.59301e-07 0)
(-1.96048e-07 3.93993e-07 0)
(-2.13631e-07 4.28661e-07 0)
(-2.31215e-07 4.63222e-07 0)
(-2.48765e-07 4.97603e-07 0)
(-2.66247e-07 5.31732e-07 0)
(-2.83627e-07 5.65533e-07 0)
(-3.00867e-07 5.98928e-07 0)
(-3.17931e-07 6.31843e-07 0)
(-3.34781e-07 6.642e-07 0)
(-3.51379e-07 6.95922e-07 0)
(-3.67691e-07 7.2694e-07 0)
(-3.83681e-07 7.57185e-07 0)
(-3.99316e-07 7.8659e-07 0)
(-4.14563e-07 8.15093e-07 0)
(-4.2939e-07 8.42633e-07 0)
(-4.4377e-07 8.69161e-07 0)
(-4.57677e-07 8.94633e-07 0)
(-4.71088e-07 9.19009e-07 0)
(-4.83983e-07 9.42254e-07 0)
(-4.96346e-07 9.64351e-07 0)
(-5.08163e-07 9.85281e-07 0)
(-5.19429e-07 1.00504e-06 0)
(-5.30137e-07 1.02364e-06 0)
(-5.40288e-07 1.04109e-06 0)
(-5.49886e-07 1.05741e-06 0)
(-5.58939e-07 1.07264e-06 0)
(-5.67462e-07 1.08683e-06 0)
(-5.75469e-07 1.10001e-06 0)
(-5.82982e-07 1.11224e-06 0)
(-5.90024e-07 1.12361e-06 0)
(-5.96622e-07 1.13416e-06 0)
(-6.02804e-07 1.14399e-06 0)
(-6.08603e-07 1.15315e-06 0)
(-6.1405e-07 1.16175e-06 0)
(-6.19181e-07 1.16986e-06 0)
(-6.24027e-07 1.17755e-06 0)
(-6.28625e-07 1.18491e-06 0)
(-6.33009e-07 1.19202e-06 0)
(-6.37214e-07 1.19896e-06 0)
(-6.41272e-07 1.2058e-06 0)
(-6.45213e-07 1.2126e-06 0)
(-6.49069e-07 1.21943e-06 0)
(-6.52866e-07 1.22635e-06 0)
(-6.5663e-07 1.23341e-06 0)
(-6.60384e-07 1.24065e-06 0)
(-6.6415e-07 1.24812e-06 0)
(-6.67946e-07 1.25585e-06 0)
(-6.71788e-07 1.26387e-06 0)
(-6.75692e-07 1.2722e-06 0)
(-6.79671e-07 1.28087e-06 0)
(-6.83735e-07 1.2899e-06 0)
(-6.87894e-07 1.29929e-06 0)
(-6.92152e-07 1.30904e-06 0)
(-6.96515e-07 1.31917e-06 0)
(-7.00984e-07 1.32966e-06 0)
(-7.05561e-07 1.34052e-06 0)
(-7.10244e-07 1.35172e-06 0)
(-7.15032e-07 1.36326e-06 0)
(-7.19923e-07 1.37513e-06 0)
(-7.24917e-07 1.38732e-06 0)
(-7.30008e-07 1.39982e-06 0)
(-7.35192e-07 1.4126e-06 0)
(-7.40465e-07 1.42565e-06 0)
(-7.45821e-07 1.43895e-06 0)
(-7.51253e-07 1.45249e-06 0)
(-7.56753e-07 1.46624e-06 0)
(-7.62313e-07 1.48017e-06 0)
(-7.67924e-07 1.49427e-06 0)
(-7.7358e-07 1.50852e-06 0)
(-7.79274e-07 1.52289e-06 0)
(-7.84999e-07 1.53738e-06 0)
(-7.90751e-07 1.55196e-06 0)
(-7.96523e-07 1.56663e-06 0)
(-8.02308e-07 1.58137e-06 0)
(-8.08099e-07 1.59615e-06 0)
(-8.13888e-07 1.61097e-06 0)
(-8.19667e-07 1.6258e-06 0)
(-8.25428e-07 1.64063e-06 0)
(-8.31163e-07 1.65544e-06 0)
(-8.36865e-07 1.67022e-06 0)
(-8.42529e-07 1.68495e-06 0)
(-8.4815e-07 1.69964e-06 0)
(-8.53723e-07 1.71427e-06 0)
(-8.59244e-07 1.72884e-06 0)
(-8.64709e-07 1.74333e-06 0)
(-8.70111e-07 1.75776e-06 0)
(-8.75447e-07 1.77211e-06 0)
(-8.80711e-07 1.78638e-06 0)
(-8.85898e-07 1.80056e-06 0)
(-8.91e-07 1.81465e-06 0)
(-8.96014e-07 1.82865e-06 0)
(-9.0093e-07 1.84256e-06 0)
(-9.0574e-07 1.85636e-06 0)
(-9.10437e-07 1.87006e-06 0)
(-9.1501e-07 1.88366e-06 0)
(-9.19448e-07 1.89717e-06 0)
(-9.23744e-07 1.91057e-06 0)
(-9.2789e-07 1.92389e-06 0)
(-9.31883e-07 1.93714e-06 0)
(-9.35726e-07 1.95037e-06 0)
(-9.3943e-07 1.9636e-06 0)
(-9.43016e-07 1.97691e-06 0)
(-9.46518e-07 1.99036e-06 0)
(-9.49982e-07 2.00404e-06 0)
(-9.53469e-07 2.01805e-06 0)
(-9.57055e-07 2.03249e-06 0)
(-9.60825e-07 2.04744e-06 0)
(-9.64868e-07 2.063e-06 0)
(-9.69271e-07 2.0792e-06 0)
(-9.7411e-07 2.09608e-06 0)
(-9.79433e-07 2.11362e-06 0)
(-9.85263e-07 2.13177e-06 0)
(-9.91577e-07 2.15049e-06 0)
(-9.9835e-07 2.16972e-06 0)
(-1.0055e-06 2.18954e-06 0)
(-1.01304e-06 2.21005e-06 0)
(-1.02091e-06 2.23163e-06 0)
(-1.02938e-06 2.25467e-06 0)
(-1.03856e-06 2.28005e-06 0)
(-1.0495e-06 2.30815e-06 0)
(-1.06231e-06 2.33993e-06 0)
(-1.07869e-06 2.37318e-06 0)
(-1.0945e-06 2.40596e-06 0)
(-1.10881e-06 2.42857e-06 0)
(-1.11085e-06 2.44132e-06 0)
(-1.11067e-06 2.44006e-06 0)
(-1.10419e-06 2.44161e-06 0)
(-1.11016e-06 2.43614e-06 0)
(-1.10933e-06 2.43385e-06 0)
(-1.17333e-06 2.35372e-06 0)
(-0.000169393 -0.00021635 0)
(0.137961 0.0442493 0)
(0.0804701 0.00512377 0)
(0.0508651 -0.00517717 0)
(0.0250299 -0.00527044 0)
(0.00314739 -0.00632343 0)
(-0.0154065 -0.00729846 0)
(-0.031148 -0.00821163 0)
(-0.044625 -0.0090134 0)
(-0.0563374 -0.00978251 0)
(-0.066716 -0.0103958 0)
(-0.0760531 -0.0110028 0)
(-0.0846208 -0.0115877 0)
(-0.0926259 -0.0121555 0)
(-0.100218 -0.0127152 0)
(-0.107502 -0.0132743 0)
(-0.114544 -0.013837 0)
(-0.121384 -0.0144049 0)
(-0.12804 -0.0149771 0)
(-0.134514 -0.0155519 0)
(-0.140795 -0.0161273 0)
(-0.146867 -0.0167015 0)
(-0.152704 -0.0172635 0)
(-0.158278 -0.0178191 0)
(-0.163559 -0.0183648 0)
(-0.168514 -0.0188882 0)
(-0.173108 -0.0193916 0)
(-0.177305 -0.0198718 0)
(-0.181064 -0.0203248 0)
(-0.184346 -0.0207472 0)
(-0.187104 -0.0211356 0)
(-0.18929 -0.0214869 0)
(-0.190849 -0.0217982 0)
(-0.191723 -0.0220662 0)
(-0.191848 -0.0222879 0)
(-0.191155 -0.0224602 0)
(-0.189573 -0.0225804 0)
(-0.187026 -0.0226456 0)
(-0.18344 -0.0226531 0)
(-0.178747 -0.0226 0)
(-0.172882 -0.0224828 0)
(-0.165797 -0.0222969 0)
(-0.157464 -0.0220356 0)
(-0.147876 -0.0216889 0)
(-0.137064 -0.0212434 0)
(-0.125096 -0.0206836 0)
(-0.112083 -0.0199929 0)
(-0.0981852 -0.0191482 0)
(-0.0836102 -0.0181016 0)
(-0.0686122 -0.0167596 0)
(-0.0534899 -0.0149911 0)
(-0.0385774 -0.0126914 0)
(-0.0242207 -0.00987978 0)
(-0.0107348 -0.00675409 0)
(0.00164789 -0.00364398 0)
(0.0128125 -0.000882674 0)
(0.0227627 0.00131115 0)
(0.0315893 0.00287422 0)
(0.0394265 0.00386361 0)
(0.0464848 0.00440147 0)
(0.052932 0.0046041 0)
(0.0588509 0.00457138 0)
(0.0643103 0.004384 0)
(0.0693665 0.00410149 0)
(0.0740647 0.00376526 0)
(0.0784419 0.00340312 0)
(0.0825287 0.00303319 0)
(0.0863506 0.00266711 0)
(0.089929 0.00231213 0)
(0.093282 0.00197266 0)
(0.096425 0.00165137 0)
(0.0993713 0.00135018 0)
(0.102132 0.00107045 0)
(0.104718 0.000813022 0)
(0.107137 0.00057856 0)
(0.109397 0.000367829 0)
(0.111507 0.000181173 0)
(0.113474 1.82195e-05 0)
(0.115304 -0.000121599 0)
(0.117007 -0.000239233 0)
(0.118588 -0.00033653 0)
(0.120057 -0.000415851 0)
(0.121421 -0.000479442 0)
(0.122686 -0.000529596 0)
(0.12386 -0.000568573 0)
(0.124947 -0.000598486 0)
(0.125952 -0.000621307 0)
(0.126877 -0.000637839 0)
(0.127721 -0.000651631 0)
(0.128483 -0.000664521 0)
(0.129155 -0.000669178 0)
(0.12973 -0.000694804 0)
(0.130183 -0.000713042 0)
(0.130499 -0.000743896 0)
(0.130772 -0.000871111 0)
(0.170745 -0.00568627 0)
(0.174146 0.00361597 0)
(0.176125 -0.00042482 0)
(0.177156 -0.00277179 0)
(0.178216 -0.00963593 0)
(0.179031 -0.0213586 0)
(0.179937 -0.0324543 0)
(0.179996 -0.0667461 0)
(0.178801 -0.025832 0)
(0.180708 -0.19701 0)
(0.182626 -0.0242446 0)
(0.183667 0.245484 0)
(0.182186 0.0408012 0)
(0.183106 -0.00208609 0)
(0.183451 9.24894e-05 0)
(0.183697 -8.28064e-06 0)
(0.183801 -7.83024e-06 0)
(0.183753 -1.18652e-05 0)
(0.183535 -1.62189e-05 0)
(0.183128 -2.10327e-05 0)
(0.182514 -2.62693e-05 0)
(0.181671 -3.18619e-05 0)
(0.180584 -3.76961e-05 0)
(0.17924 -4.3607e-05 0)
(0.177646 -4.94894e-05 0)
(0.175922 -5.64533e-05 0)
(0.173666 -6.00468e-05 0)
(0.171448 -5.96026e-05 0)
(0.169783 -7.14897e-05 0)
(0.168414 -7.81365e-05 0)
(0.168662 -5.59834e-05 0)
(0.168746 -3.26179e-05 0)
(0.168748 -2.92273e-05 0)
(0.168748 -2.91594e-05 0)
(0.168748 -2.91601e-05 0)
(0.168748 -2.91604e-05 0)
(0.168748 -2.916e-05 0)
(0.168748 -2.91604e-05 0)
(0.168748 -2.91601e-05 0)
(0.168748 -2.91604e-05 0)
(0.168748 -2.916e-05 0)
(0.168748 -2.91604e-05 0)
(0.168748 -2.916e-05 0)
(0.168748 -2.91604e-05 0)
(0.168748 -2.916e-05 0)
(0.168748 -2.91604e-05 0)
(0.168748 -2.916e-05 0)
(0.168748 -2.91604e-05 0)
(0.168748 -2.916e-05 0)
(0.168748 -2.91605e-05 0)
(0.168748 -2.916e-05 0)
(0.168748 -2.91605e-05 0)
(0.168748 -2.916e-05 0)
(0.168748 -2.91606e-05 0)
(0.168748 -2.916e-05 0)
(0.168748 -2.91606e-05 0)
(0.168748 -2.916e-05 0)
(0.168748 -2.91607e-05 0)
(0.168748 -2.916e-05 0)
(0.168748 -2.91607e-05 0)
(0.168748 -2.916e-05 0)
(0.168748 -2.91607e-05 0)
(0.168748 -2.91599e-05 0)
(0.168748 -2.91607e-05 0)
(0.168748 -2.91599e-05 0)
(0.168748 -2.91607e-05 0)
(0.168748 -2.91598e-05 0)
(0.168748 -2.91607e-05 0)
(0.168748 -2.91597e-05 0)
(0.168748 -2.91606e-05 0)
(0.168748 -2.91596e-05 0)
(0.168748 -2.91606e-05 0)
(0.168748 -2.91595e-05 0)
(0.168748 -2.91604e-05 0)
(0.168748 -2.91594e-05 0)
(0.168748 -2.91604e-05 0)
(0.168748 -2.91593e-05 0)
(0.168748 -2.91603e-05 0)
(0.168748 -2.91592e-05 0)
(0.168748 -2.91602e-05 0)
(0.168748 -2.91591e-05 0)
(0.168748 -2.91601e-05 0)
(0.168748 -2.9159e-05 0)
(0.168748 -2.916e-05 0)
(0.168748 -2.91589e-05 0)
(0.168748 -2.91599e-05 0)
(0.168748 -2.91588e-05 0)
(0.168748 -2.91597e-05 0)
(0.168748 -2.91585e-05 0)
(0.168748 -2.91595e-05 0)
(0.168748 -2.9158e-05 0)
(0.168748 -2.91581e-05 0)
(0.168748 -2.91554e-05 0)
(0.168748 -2.91549e-05 0)
(0.168748 -2.91521e-05 0)
(0.168748 -2.91516e-05 0)
(0.168748 -2.91489e-05 0)
(0.168748 -2.91488e-05 0)
(0.168748 -2.91466e-05 0)
(0.168748 -2.91465e-05 0)
(0.168748 -2.91439e-05 0)
(0.168748 -2.9144e-05 0)
(0.168748 -2.91423e-05 0)
(0.168748 -2.91431e-05 0)
(0.168748 -2.91417e-05 0)
(0.168748 -2.91433e-05 0)
(0.168748 -2.9143e-05 0)
(0.168748 -2.91444e-05 0)
(0.168748 -2.91427e-05 0)
(0.168748 -2.91441e-05 0)
(0.168748 -2.91439e-05 0)
(0.168748 -2.91465e-05 0)
(0.168748 -2.91471e-05 0)
(0.168748 -2.9151e-05 0)
(0.168748 -2.91532e-05 0)
(0.168748 -2.91584e-05 0)
(0.168748 -2.91612e-05 0)
(0.168748 -2.91667e-05 0)
(0.168748 -2.91697e-05 0)
(0.168748 -2.91778e-05 0)
(0.16875 -2.92157e-05 0)
(0.168797 -2.99648e-05 0)
(0.169896 -5.94871e-05 0)
)
;

boundaryField
{
    inandouthalf11
    {
        type            cyclic;
    }
    inandouthalf12
    {
        type            cyclic;
    }
    inandouthalf21
    {
        type            cyclic;
    }
    inandouthalf22
    {
        type            cyclic;
    }
    inandouthalf31
    {
        type            cyclic;
    }
    inandouthalf32
    {
        type            cyclic;
    }
    inandouthalf41
    {
        type            cyclic;
    }
    inandouthalf42
    {
        type            cyclic;
    }
    top
    {
        type            symmetryPlane;
    }
    walls
    {
        type            calculated;
        value           uniform (0 0 0);
    }
    frontAndBackPlanes
    {
        type            empty;
    }
}


// ************************************************************************* //
