/*--------------------------------*- C++ -*----------------------------------*\
| =========                 |                                                 |
| \\      /  F ield         | OpenFOAM: The Open Source CFD Toolbox           |
|  \\    /   O peration     | Version:  2.4.x                                 |
|   \\  /    A nd           | Web:      www.OpenFOAM.org                      |
|    \\/     M anipulation  |                                                 |
\*---------------------------------------------------------------------------*/
FoamFile
{
    version     2.0;
    format      ascii;
    class       volScalarField;
    location    "9";
    object      epsilon;
}
// * * * * * * * * * * * * * * * * * * * * * * * * * * * * * * * * * * * * * //

dimensions      [0 2 -3 0 0 0 0];

internalField   nonuniform List<scalar> 
360
(
1e-20
1e-20
1e-20
1e-20
1e-20
1e-20
1e-20
1e-20
1e-20
1e-20
1e-20
1e-20
1e-20
1e-20
1e-20
1e-20
1e-20
1e-20
1e-20
1e-20
1e-20
1e-20
1e-20
1e-20
1e-20
1e-20
1e-20
1e-20
1e-20
1e-20
1e-20
1e-20
1e-20
1e-20
1e-20
1e-20
1e-20
1e-20
1e-20
1e-20
1e-20
1e-20
1e-20
1e-20
1e-20
1e-20
1e-20
1e-20
1e-20
1e-20
1e-20
1e-20
1e-20
1e-20
1e-20
1e-20
1e-20
1e-20
1e-20
1e-20
1e-20
1e-20
1e-20
1e-20
1e-20
1e-20
1e-20
1e-20
1e-20
1e-20
1e-20
1e-20
1e-20
1e-20
1e-20
1e-20
1e-20
1e-20
1e-20
1e-20
1e-20
1e-20
1e-20
1e-20
1e-20
1e-20
1e-20
1e-20
1e-20
1e-20
1e-20
1e-20
1e-20
1e-20
1e-20
1e-20
1e-20
1e-20
1e-20
1e-20
1e-20
1e-20
1e-20
1e-20
1e-20
1e-20
1e-20
1e-20
1e-20
1e-20
1e-20
1e-20
1e-20
1e-20
1e-20
1e-20
1e-20
1e-20
1e-20
1e-20
1e-20
1e-20
1e-20
1e-20
1e-20
1e-20
1e-20
1e-20
1.14852e-20
6.42934e-20
6.93766e-19
8.14216e-18
1.00692e-16
1.3292e-15
1.90158e-14
2.99287e-13
5.26035e-12
1.04889e-10
2.41243e-09
6.50752e-08
2.09038e-06
8.03327e-05
0.00311242
0.0566157
0.2796
0.40459
0.447565
0.457461
0.452155
0.439436
0.423086
0.405023
0.386309
0.367575
0.349177
0.331325
0.314135
0.29766
0.281917
0.266896
0.252576
0.238928
0.225917
0.213509
0.201669
0.190366
0.179566
0.169243
0.159368
0.149918
0.140871
0.132206
0.123905
0.115953
0.108334
0.101036
0.0940476
0.0873588
0.0809608
0.0748464
0.0690091
0.0634437
0.058146
0.0531125
0.0483408
0.0438291
0.0395764
0.0355819
0.0318457
0.0283674
0.025147
0.0221837
0.0194759
0.0170209
0.0148139
0.0128482
0.0111144
0.00960042
0.00829154
0.00717075
0.00621936
0.00540976
0.00472064
0.00413896
0.00365129
0.00324448
0.00290627
0.00262561
0.00239282
0.00219965
0.00203915
0.00190556
0.00179413
0.00170099
0.00162295
0.0015574
0.0015022
0.00145559
0.00141608
0.00138245
0.00135365
0.0013288
0.00130712
0.00128796
0.00127074
0.00125493
0.0012401
0.00122582
0.00121173
0.00119749
0.00118281
0.00116741
0.00115105
0.0011335
0.00111456
0.00109406
0.00107184
0.00104776
0.00102172
0.000993623
0.000963416
0.000931058
0.000896541
0.000859883
0.000821134
0.000780377
0.000737729
0.000693345
0.000647419
0.000600187
0.000551931
0.000502976
0.000453694
0.000404506
0.000355876
0.000308314
0.000262362
0.000218591
0.000177583
0.000139913
0.000106121
7.66733e-05
5.19313e-05
3.21022e-05
1.72082e-05
7.08825e-06
1.5187e-06
8.75206e-08
1.3968e-09
1.75017e-11
2.15448e-13
2.63319e-15
3.21448e-17
4.00708e-19
1.31173e-20
1e-20
1e-20
1e-20
1e-20
1e-20
1e-20
1e-20
1e-20
1e-20
1e-20
1e-20
1e-20
1e-20
1e-20
1e-20
1e-20
1e-20
1e-20
1e-20
1e-20
1e-20
1e-20
1e-20
1e-20
1e-20
1e-20
1e-20
1e-20
1e-20
1e-20
1e-20
1e-20
1e-20
1e-20
1e-20
1e-20
1e-20
1e-20
1e-20
1e-20
1e-20
1e-20
1e-20
1e-20
1e-20
1e-20
1e-20
1e-20
1e-20
1e-20
1e-20
1e-20
1e-20
1e-20
1e-20
1e-20
1e-20
1e-20
1e-20
1e-20
1e-20
1e-20
1e-20
1e-20
1e-20
1e-20
1e-20
1e-20
1e-20
1e-20
1e-20
1e-20
1e-20
1e-20
1e-20
1e-20
1e-20
1e-20
1e-20
1e-20
1e-20
1e-20
1e-20
1e-20
1e-20
)
;

boundaryField
{
    inandouthalf11
    {
        type            cyclic;
    }
    inandouthalf12
    {
        type            cyclic;
    }
    inandouthalf21
    {
        type            cyclic;
    }
    inandouthalf22
    {
        type            cyclic;
    }
    inandouthalf31
    {
        type            cyclic;
    }
    inandouthalf32
    {
        type            cyclic;
    }
    inandouthalf41
    {
        type            cyclic;
    }
    inandouthalf42
    {
        type            cyclic;
    }
    top
    {
        type            symmetryPlane;
    }
    walls
    {
        type            zeroGradient;
    }
    frontAndBackPlanes
    {
        type            empty;
    }
}


// ************************************************************************* //
