/*--------------------------------*- C++ -*----------------------------------*\
| =========                 |                                                 |
| \\      /  F ield         | OpenFOAM: The Open Source CFD Toolbox           |
|  \\    /   O peration     | Version:  2.4.x                                 |
|   \\  /    A nd           | Web:      www.OpenFOAM.org                      |
|    \\/     M anipulation  |                                                 |
\*---------------------------------------------------------------------------*/
FoamFile
{
    version     2.0;
    format      ascii;
    class       volScalarField;
    location    "9";
    object      epsilon_0;
}
// * * * * * * * * * * * * * * * * * * * * * * * * * * * * * * * * * * * * * //

dimensions      [0 2 -3 0 0 0 0];

internalField   nonuniform List<scalar> 
360
(
1.60309e-27
1e-20
1e-20
1e-20
1e-20
1e-20
1e-20
1e-20
1e-20
1e-20
1e-20
1e-20
1e-20
1e-20
1e-20
1e-20
1e-20
1e-20
1e-20
1e-20
1e-20
1e-20
1e-20
1e-20
1e-20
1e-20
1e-20
1e-20
1e-20
1e-20
1e-20
1e-20
1e-20
1e-20
1e-20
1e-20
1e-20
1e-20
1e-20
1e-20
1e-20
1e-20
1e-20
1e-20
1e-20
1e-20
1e-20
1e-20
1e-20
1e-20
1e-20
1e-20
1e-20
1e-20
1e-20
1e-20
1e-20
1e-20
1e-20
1e-20
1e-20
1e-20
1e-20
1e-20
1e-20
1e-20
1e-20
1e-20
1e-20
1e-20
1e-20
1e-20
1e-20
1e-20
1e-20
1e-20
1e-20
1e-20
1e-20
1e-20
1e-20
1e-20
1e-20
1e-20
1e-20
1e-20
1e-20
1e-20
1e-20
1e-20
1e-20
1e-20
1e-20
1e-20
1e-20
1e-20
1e-20
1e-20
1e-20
1e-20
1e-20
1e-20
1e-20
1e-20
1e-20
1e-20
1e-20
1e-20
1e-20
1e-20
1e-20
1e-20
1e-20
1e-20
1e-20
1e-20
1e-20
1e-20
1e-20
1e-20
1e-20
1e-20
1e-20
1e-20
1e-20
1e-20
1e-20
1e-20
1.14724e-20
6.41274e-20
6.91961e-19
8.12215e-18
1.00458e-16
1.32625e-15
1.89758e-14
2.98688e-13
5.25037e-12
1.04701e-10
2.40828e-09
6.49672e-08
2.08698e-06
8.02029e-05
0.00310772
0.0565726
0.279527
0.40455
0.447549
0.457459
0.452162
0.439448
0.423101
0.40504
0.386327
0.367593
0.349195
0.331343
0.314152
0.297677
0.281932
0.26691
0.252589
0.238939
0.225926
0.213516
0.201675
0.19037
0.179569
0.169243
0.159367
0.149915
0.140866
0.132199
0.123897
0.115943
0.108322
0.101023
0.0940333
0.0873434
0.0809444
0.0748291
0.068991
0.063425
0.0581268
0.0530929
0.048321
0.0438093
0.0395566
0.0355625
0.0318266
0.0283489
0.0251292
0.0221667
0.0194599
0.0170059
0.0148002
0.0128357
0.0111032
0.00959046
0.00828282
0.0071632
0.0062129
0.0054043
0.00471608
0.00413519
0.0036482
0.00324198
0.00290426
0.002624
0.00239155
0.00219865
0.00203837
0.00190496
0.00179369
0.00170067
0.00162272
0.00155726
0.00150213
0.00145557
0.00141611
0.00138252
0.00135375
0.00132892
0.00130727
0.00128812
0.00127091
0.00125512
0.00124029
0.00122601
0.00121192
0.00119769
0.00118301
0.00116761
0.00115125
0.00113369
0.00111475
0.00109424
0.00107201
0.00104792
0.00102187
0.000993765
0.000963547
0.000931179
0.000896651
0.000859981
0.000821221
0.000780451
0.000737791
0.000693396
0.000647458
0.000600216
0.000551949
0.000502984
0.000453693
0.000404497
0.00035586
0.000308292
0.000262335
0.000218561
0.000177552
0.000139883
0.000106091
7.66467e-05
5.19087e-05
3.20844e-05
1.71955e-05
7.08037e-06
1.51565e-06
8.72232e-08
1.39127e-09
1.74337e-11
2.14632e-13
2.62354e-15
3.20316e-17
3.99382e-19
1.31027e-20
1e-20
1e-20
1e-20
1e-20
1e-20
1e-20
1e-20
1e-20
1e-20
1e-20
1e-20
1e-20
1e-20
1e-20
1e-20
1e-20
1e-20
1e-20
1e-20
1e-20
1e-20
1e-20
1e-20
1e-20
1e-20
1e-20
1e-20
1e-20
1e-20
1e-20
1e-20
1e-20
1e-20
1e-20
1e-20
1e-20
1e-20
1e-20
1e-20
1e-20
1e-20
1e-20
1e-20
1e-20
1e-20
1e-20
1e-20
1e-20
1e-20
1e-20
1e-20
1e-20
1e-20
1e-20
1e-20
1e-20
1e-20
1e-20
1e-20
1e-20
1e-20
1e-20
1e-20
1e-20
1e-20
1e-20
1e-20
1e-20
1e-20
1e-20
1e-20
1e-20
1e-20
1e-20
1e-20
1e-20
1e-20
1e-20
1e-20
1e-20
1e-20
1e-20
1e-20
1e-20
1e-20
)
;

boundaryField
{
    inandouthalf11
    {
        type            cyclic;
    }
    inandouthalf12
    {
        type            cyclic;
    }
    inandouthalf21
    {
        type            cyclic;
    }
    inandouthalf22
    {
        type            cyclic;
    }
    inandouthalf31
    {
        type            cyclic;
    }
    inandouthalf32
    {
        type            cyclic;
    }
    inandouthalf41
    {
        type            cyclic;
    }
    inandouthalf42
    {
        type            cyclic;
    }
    top
    {
        type            symmetryPlane;
    }
    walls
    {
        type            zeroGradient;
    }
    frontAndBackPlanes
    {
        type            empty;
    }
}


// ************************************************************************* //
