/*--------------------------------*- C++ -*----------------------------------*\
| =========                 |                                                 |
| \\      /  F ield         | OpenFOAM: The Open Source CFD Toolbox           |
|  \\    /   O peration     | Version:  2.4.x                                 |
|   \\  /    A nd           | Web:      www.OpenFOAM.org                      |
|    \\/     M anipulation  |                                                 |
\*---------------------------------------------------------------------------*/
FoamFile
{
    version     2.0;
    format      ascii;
    class       volVectorField;
    location    "9";
    object      gradPs;
}
// * * * * * * * * * * * * * * * * * * * * * * * * * * * * * * * * * * * * * //

dimensions      [0 1 -2 0 0 0 0];

internalField   nonuniform List<vector> 
360
(
(0 1.54342e-18 0)
(0 1.7038e-18 0)
(0 2.99516e-21 0)
(0 -2.35052e-19 0)
(-2.90068e-32 -9.93072e-20 0)
(-2.90075e-32 -5.39405e-20 0)
(-1.45041e-32 -6.92309e-20 0)
(0 -7.93042e-20 0)
(-2.90104e-32 -8.08967e-20 0)
(0 -8.18124e-20 0)
(-2.90126e-32 -8.22255e-20 0)
(0 -8.26295e-20 0)
(-1.45074e-32 -8.34018e-20 0)
(0 -8.41958e-20 0)
(0 -8.52286e-20 0)
(0 -8.62767e-20 0)
(0 -8.71201e-20 0)
(-1.45103e-32 -8.78845e-20 0)
(0 -8.90237e-20 0)
(0 -8.98366e-20 0)
(0 -9.06833e-20 0)
(-1.45127e-32 -9.18799e-20 0)
(0 -9.27588e-20 0)
(0 -9.37753e-20 0)
(0 -9.48158e-20 0)
(-1.45152e-32 -9.56609e-20 0)
(0 -9.6804e-20 0)
(0 -9.79877e-20 0)
(0 -9.884e-20 0)
(0 -9.98255e-20 0)
(0 -1.01198e-19 0)
(0 -1.01912e-19 0)
(0 -1.03174e-19 0)
(0 -1.04457e-19 0)
(0 -1.05259e-19 0)
(1.45219e-32 -1.0641e-19 0)
(0 -1.07491e-19 0)
(0 -1.09118e-19 0)
(0 -1.09609e-19 0)
(0 -1.10901e-19 0)
(0 -1.1267e-19 0)
(0 -1.12972e-19 0)
(1.4527e-32 -1.14557e-19 0)
(0 -1.15992e-19 0)
(0 -1.16863e-19 0)
(0 -1.18587e-19 0)
(0 -1.19246e-19 0)
(0 -1.20315e-19 0)
(0 -1.2267e-19 0)
(0 -1.23419e-19 0)
(2.90668e-32 -1.24426e-19 0)
(0 -1.26204e-19 0)
(0 -1.27618e-19 0)
(0 -1.28725e-19 0)
(0 -1.30488e-19 0)
(0 -1.31916e-19 0)
(0 -1.33261e-19 0)
(0 -1.3524e-19 0)
(0 -1.35972e-19 0)
(0 -1.38198e-19 0)
(0 -1.39929e-19 0)
(0 -1.41366e-19 0)
(0 -1.43424e-19 0)
(0 -1.44938e-19 0)
(0 -1.46695e-19 0)
(0 -1.4861e-19 0)
(0 -1.50823e-19 0)
(0 -1.52629e-19 0)
(0 -1.54048e-19 0)
(0 -1.56477e-19 0)
(0 -1.59399e-19 0)
(0 -1.60632e-19 0)
(0 -1.62794e-19 0)
(0 -1.65598e-19 0)
(0 -1.68003e-19 0)
(0 -1.7028e-19 0)
(0 -1.72324e-19 0)
(0 -1.75132e-19 0)
(0 -1.77895e-19 0)
(0 -1.80355e-19 0)
(0 -1.8305e-19 0)
(0 -1.86121e-19 0)
(0 -1.89031e-19 0)
(0 -1.9204e-19 0)
(0 -1.95147e-19 0)
(0 -1.98371e-19 0)
(0 -2.01635e-19 0)
(0 -2.04892e-19 0)
(0 -2.08395e-19 0)
(0 -2.12022e-19 0)
(0 -2.15703e-19 0)
(0 -2.19585e-19 0)
(0 -2.23639e-19 0)
(0 -2.27774e-19 0)
(0 -2.32042e-19 0)
(0 -2.3645e-19 0)
(0 -2.4099e-19 0)
(0 -2.45678e-19 0)
(0 -2.50548e-19 0)
(0 -2.55606e-19 0)
(0 -2.60855e-19 0)
(0 -2.66318e-19 0)
(0 -2.71995e-19 0)
(0 -2.77882e-19 0)
(0 -2.83993e-19 0)
(0 -2.90338e-19 0)
(0 -2.96928e-19 0)
(0 -3.03778e-19 0)
(0 -3.10902e-19 0)
(0 -3.18315e-19 0)
(0 -3.26031e-19 0)
(0 -3.34068e-19 0)
(0 -3.42446e-19 0)
(0 -3.51187e-19 0)
(0 -3.60318e-19 0)
(0 -3.69867e-19 0)
(0 -3.7987e-19 0)
(0 -3.90364e-19 0)
(0 -4.01391e-19 0)
(0 -4.12993e-19 0)
(0 -4.25213e-19 0)
(0 -4.38085e-19 0)
(0 -4.51645e-19 0)
(0 -4.65941e-19 0)
(0 -4.81071e-19 0)
(0 -4.9722e-19 0)
(0 -5.14662e-19 0)
(0 -5.53561e-19 0)
(0 3.37404e-16 0)
(0 4.60324e-15 0)
(0 4.92942e-14 0)
(0 5.36502e-13 0)
(0 6.15233e-12 0)
(0 7.5552e-11 0)
(0 1.00878e-09 0)
(0 1.48658e-08 0)
(0 2.45765e-07 0)
(0 4.66713e-06 0)
(0 0.000126108 0)
(0 0.00848601 0)
(0 0.318873 0)
(0 3.82811 0)
(0 8.8567 0)
(0 7.53253 0)
(0 0.855444 0)
(0 -1.49038 0)
(0 -2.85642 0)
(0 -3.3977 0)
(0 -3.64952 0)
(0 -3.77903 0)
(0 -3.86926 0)
(0 -3.83739 0)
(0 -3.71996 0)
(0 -3.64321 0)
(0 -3.57862 0)
(0 -3.51616 0)
(0 -3.455 0)
(0 -3.39586 0)
(0 -3.33955 0)
(0 -3.28669 0)
(0 -3.23755 0)
(0 -3.19219 0)
(0 -3.15052 0)
(0 -3.11227 0)
(0 -3.07697 0)
(0 -3.04437 0)
(0 -3.01402 0)
(0 -2.98528 0)
(0 -2.95781 0)
(0 -2.9312 0)
(0 -2.90508 0)
(0 -2.87912 0)
(0 -2.85296 0)
(0 -2.82635 0)
(0 -2.79903 0)
(0 -2.77077 0)
(0 -2.7413 0)
(0 -2.71046 0)
(0 -2.67804 0)
(0 -2.64387 0)
(0 -2.60779 0)
(0 -2.56969 0)
(0 -2.52952 0)
(0 -2.48727 0)
(0 -2.44306 0)
(0 -2.39711 0)
(0 -2.34976 0)
(0 -2.30146 0)
(0 -2.25282 0)
(0 -2.20495 0)
(0 -2.16005 0)
(0 -2.12151 0)
(0 -2.09257 0)
(0 -2.07331 0)
(0 -2.05758 0)
(0 -2.03285 0)
(0 -1.98441 0)
(0 -1.90224 0)
(0 -1.78612 0)
(0 -1.64585 0)
(0 -1.49548 0)
(0 -1.34706 0)
(-2.29801e-16 -1.20853 0)
(0 -1.08438 0)
(0 -0.975698 0)
(1.6759e-16 -0.881542 0)
(0 -0.800192 0)
(-2.0647e-16 -0.729831 0)
(0 -0.66878 0)
(0 -0.615608 0)
(0 -0.569081 0)
(0 -0.528117 0)
(0 -0.491931 0)
(1.70349e-16 -0.459843 0)
(0 -0.431096 0)
(0 -0.40501 0)
(0 -0.381091 0)
(0 -0.358812 0)
(0 -0.33742 0)
(-1.28119e-16 -0.316363 0)
(0 -0.295347 0)
(-7.25442e-17 -0.273882 0)
(0 -0.251689 0)
(0 -0.228836 0)
(0 -0.205637 0)
(0 -0.18232 0)
(0 -0.159419 0)
(0 -0.137295 0)
(2.53117e-17 -0.116522 0)
(2.6044e-17 -0.0974336 0)
(0 -0.0799295 0)
(0 -0.0649304 0)
(0 -0.0521279 0)
(0 -0.0401032 0)
(0 -0.0326354 0)
(0 -0.032131 0)
(0 -0.0161941 0)
(0 0 0)
(0 0 0)
(0 0 0)
(0 0 0)
(0 0 0)
(0 0 0)
(0 0 0)
(0 0 0)
(0 0 0)
(0 0 0)
(0 0 0)
(0 0 0)
(0 0 0)
(0 0 0)
(0 0 0)
(0 0 0)
(0 0 0)
(0 0 0)
(0 0 0)
(0 0 0)
(0 0 0)
(0 0 0)
(0 0 0)
(0 0 0)
(0 0 0)
(0 0 0)
(0 0 0)
(0 0 0)
(0 0 0)
(0 0 0)
(0 0 0)
(0 0 0)
(0 0 0)
(0 0 0)
(0 0 0)
(0 0 0)
(0 0 0)
(0 0 0)
(0 0 0)
(0 0 0)
(0 0 0)
(0 0 0)
(0 0 0)
(0 0 0)
(0 0 0)
(0 0 0)
(0 0 0)
(0 0 0)
(0 0 0)
(0 0 0)
(0 0 0)
(0 0 0)
(0 0 0)
(0 0 0)
(0 0 0)
(0 0 0)
(0 0 0)
(0 0 0)
(0 0 0)
(0 0 0)
(0 0 0)
(0 0 0)
(0 0 0)
(0 0 0)
(0 0 0)
(0 0 0)
(0 0 0)
(0 0 0)
(0 0 0)
(0 0 0)
(0 0 0)
(0 0 0)
(0 0 0)
(0 0 0)
(0 0 0)
(0 0 0)
(0 0 0)
(0 0 0)
(0 0 0)
(0 0 0)
(0 0 0)
(0 0 0)
(0 0 0)
(0 0 0)
(0 0 0)
(0 0 0)
(0 0 0)
(0 0 0)
(0 0 0)
(0 0 0)
(0 0 0)
(0 0 0)
(0 0 0)
(0 0 0)
(0 0 0)
(0 0 0)
(0 0 0)
(0 0 0)
(0 0 0)
(0 0 0)
(0 0 0)
(0 0 0)
(0 0 0)
(0 0 0)
(0 0 0)
(0 0 0)
(0 0 0)
(0 0 0)
(0 0 0)
(0 0 0)
(0 0 0)
(0 0 0)
(0 0 0)
(0 0 0)
(0 0 0)
(0 0 0)
(0 0 0)
(0 0 0)
(0 0 0)
(0 0 0)
(0 0 0)
(0 0 0)
(0 0 0)
)
;

boundaryField
{
    inandouthalf11
    {
        type            cyclic;
    }
    inandouthalf12
    {
        type            cyclic;
    }
    inandouthalf21
    {
        type            cyclic;
    }
    inandouthalf22
    {
        type            cyclic;
    }
    inandouthalf31
    {
        type            cyclic;
    }
    inandouthalf32
    {
        type            cyclic;
    }
    inandouthalf41
    {
        type            cyclic;
    }
    inandouthalf42
    {
        type            cyclic;
    }
    top
    {
        type            symmetryPlane;
    }
    walls
    {
        type            calculated;
        value           uniform (0 0 0);
    }
    frontAndBackPlanes
    {
        type            empty;
    }
}


// ************************************************************************* //
