/*--------------------------------*- C++ -*----------------------------------*\
| =========                 |                                                 |
| \\      /  F ield         | OpenFOAM: The Open Source CFD Toolbox           |
|  \\    /   O peration     | Version:  2.4.x                                 |
|   \\  /    A nd           | Web:      www.OpenFOAM.org                      |
|    \\/     M anipulation  |                                                 |
\*---------------------------------------------------------------------------*/
FoamFile
{
    version     2.0;
    format      ascii;
    class       volVectorField;
    location    "9";
    object      gradPf;
}
// * * * * * * * * * * * * * * * * * * * * * * * * * * * * * * * * * * * * * //

dimensions      [0 1 -2 0 0 0 0];

internalField   nonuniform List<vector> 
360
(
(0 70.6876 0)
(0 79.4306 0)
(0 0.413777 0)
(0 -12.4198 0)
(-3.34426e-14 -5.26528 0)
(-3.34433e-14 -2.8414 0)
(-3.34443e-14 -3.58034 0)
(0 -4.07204 0)
(-3.34467e-14 -4.1322 0)
(0 -4.15498 0)
(-3.34492e-14 -4.1495 0)
(0 -4.14124 0)
(-3.34518e-14 -4.15007 0)
(0 -4.15913 0)
(0 -4.17912 0)
(0 -4.19872 0)
(0 -4.20707 0)
(-3.34584e-14 -4.21051 0)
(0 -4.23058 0)
(0 -4.2343 0)
(0 -4.23858 0)
(-3.34639e-14 -4.25844 0)
(0 -4.26262 0)
(0 -4.2721 0)
(0 -4.28174 0)
(-3.34697e-14 -4.28185 0)
(0 -4.29458 0)
(0 -4.30829 0)
(0 -4.3064 0)
(0 -4.30976 0)
(0 -4.32907 0)
(0 -4.31968 0)
(0 -4.33268 0)
(0 -4.34622 0)
(0 -4.33841 0)
(3.34852e-14 -4.34496 0)
(0 -4.34819 0)
(0 -4.37282 0)
(0 -4.35105 0)
(0 -4.36064 0)
(0 -4.38885 0)
(0 -4.35851 0)
(1.67485e-14 -4.37772 0)
(0 -4.39094 0)
(0 -4.38142 0)
(0 -4.40334 0)
(0 -4.38476 0)
(0 -4.38113 0)
(0 -4.42419 0)
(0 -4.40754 0)
(1.67558e-14 -4.39903 0)
(0 -4.41787 0)
(0 -4.42245 0)
(0 -4.41575 0)
(0 -4.43033 0)
(0 -4.43286 0)
(0 -4.43093 0)
(0 -4.44939 0)
(0 -4.42554 0)
(0 -4.44956 0)
(0 -4.45672 0)
(0 -4.45249 0)
(0 -4.46707 0)
(0 -4.46284 0)
(0 -4.46511 0)
(0 -4.47078 0)
(0 -4.48401 0)
(0 -4.48337 0)
(0 -4.47028 0)
(0 -4.48533 0)
(0 -4.51276 0)
(0 -4.49042 0)
(0 -4.49259 0)
(0 -4.51137 0)
(0 -4.51677 0)
(0 -4.51709 0)
(0 -4.50938 0)
(0 -4.52023 0)
(0 -4.52788 0)
(0 -4.52593 0)
(0 -4.528 0)
(0 -4.53744 0)
(0 -4.54078 0)
(0 -4.54425 0)
(0 -4.54786 0)
(0 -4.55182 0)
(0 -4.55436 0)
(0 -4.55436 0)
(0 -4.55748 0)
(0 -4.5608 0)
(0 -4.56272 0)
(0 -4.56623 0)
(0 -4.57053 0)
(0 -4.57355 0)
(0 -4.57625 0)
(0 -4.57861 0)
(0 -4.58033 0)
(0 -4.58163 0)
(0 -4.58297 0)
(0 -4.58426 0)
(0 -4.5854 0)
(0 -4.58656 0)
(0 -4.58755 0)
(0 -4.58808 0)
(0 -4.58815 0)
(0 -4.58771 0)
(0 -4.58671 0)
(0 -4.58512 0)
(0 -4.5829 0)
(0 -4.57999 0)
(0 -4.57632 0)
(0 -4.57181 0)
(0 -4.56642 0)
(0 -4.56012 0)
(0 -4.55288 0)
(0 -4.54471 0)
(0 -4.53563 0)
(0 -4.5257 0)
(0 -4.51498 0)
(0 -4.5035 0)
(0 -4.49125 0)
(0 -4.4781 0)
(0 -4.46387 0)
(0 -4.44845 0)
(0 -4.4321 0)
(0 -4.41568 0)
(0 -4.40057 0)
(0 -4.38766 0)
(0 -4.37577 0)
(0 -4.36088 0)
(0 -4.33948 0)
(0 -4.31706 0)
(0 -4.31088 0)
(0 -4.32909 0)
(0 -4.34448 0)
(0 -4.32396 0)
(0 -4.29967 0)
(0 -4.37399 0)
(0 -4.58997 0)
(0 -4.72134 0)
(0 -4.61234 0)
(0 -13.9871 0)
(0 -24.3069 0)
(0 -15.7916 0)
(0 0 0)
(0 0 0)
(0 0 0)
(0 0 0)
(0 0 0)
(0 0 0)
(0 0 0)
(0 0 0)
(0 0 0)
(0 0 0)
(0 0 0)
(0 0 0)
(0 0 0)
(0 0 0)
(0 0 0)
(0 0 0)
(0 0 0)
(0 0 0)
(0 0 0)
(0 0 0)
(0 0 0)
(0 0 0)
(0 0 0)
(0 0 0)
(0 0 0)
(0 0 0)
(0 0 0)
(0 0 0)
(0 0 0)
(0 0 0)
(0 0 0)
(0 0 0)
(0 0 0)
(0 0 0)
(0 0 0)
(0 0 0)
(0 0 0)
(0 0 0)
(0 0 0)
(0 0 0)
(0 0 0)
(0 0 0)
(0 0 0)
(0 0 0)
(0 0 0)
(0 0 0)
(0 0 0)
(0 0 0)
(0 0 0)
(0 0 0)
(0 0 0)
(0 0 0)
(0 0 0)
(0 0 0)
(0 0 0)
(0 0 0)
(0 0 0)
(0 0 0)
(0 0 0)
(0 0 0)
(0 0 0)
(0 0 0)
(0 0 0)
(0 0 0)
(0 0 0)
(0 0 0)
(0 0 0)
(0 0 0)
(0 0 0)
(0 0 0)
(0 0 0)
(0 0 0)
(0 0 0)
(0 0 0)
(0 0 0)
(0 0 0)
(0 0 0)
(0 0 0)
(0 0 0)
(0 0 0)
(0 0 0)
(0 0 0)
(0 0 0)
(0 0 0)
(0 0 0)
(0 0 0)
(0 0 0)
(0 0 0)
(0 0 0)
(0 0 0)
(0 0 0)
(0 0 0)
(0 0 0)
(0 0 0)
(0 0 0)
(0 0 0)
(0 0 0)
(0 0 0)
(0 0 0)
(0 0 0)
(0 0 0)
(0 0 0)
(0 0 0)
(0 0 0)
(0 0 0)
(0 0 0)
(0 0 0)
(0 0 0)
(0 0 0)
(0 0 0)
(0 0 0)
(0 0 0)
(0 0 0)
(0 0 0)
(0 0 0)
(0 0 0)
(0 0 0)
(0 0 0)
(0 0 0)
(0 0 0)
(0 0 0)
(0 0 0)
(0 0 0)
(0 0 0)
(0 0 0)
(0 0 0)
(0 0 0)
(0 0 0)
(0 0 0)
(0 0 0)
(0 0 0)
(0 0 0)
(0 0 0)
(0 0 0)
(0 0 0)
(0 0 0)
(0 0 0)
(0 0 0)
(0 0 0)
(0 0 0)
(0 0 0)
(0 0 0)
(0 0 0)
(0 0 0)
(0 0 0)
(0 0 0)
(0 0 0)
(0 0 0)
(0 0 0)
(0 0 0)
(0 0 0)
(0 0 0)
(0 0 0)
(0 0 0)
(0 0 0)
(0 0 0)
(0 0 0)
(0 0 0)
(0 0 0)
(0 0 0)
(0 0 0)
(0 0 0)
(0 0 0)
(0 0 0)
(0 0 0)
(0 0 0)
(0 0 0)
(0 0 0)
(0 0 0)
(0 0 0)
(0 0 0)
(0 0 0)
(0 0 0)
(0 0 0)
(0 0 0)
(0 0 0)
(0 0 0)
(0 0 0)
(0 0 0)
(0 0 0)
(0 0 0)
(0 0 0)
(0 0 0)
(0 0 0)
(0 0 0)
(0 0 0)
(0 0 0)
(0 0 0)
(0 0 0)
(0 0 0)
(0 0 0)
(0 0 0)
(0 0 0)
(0 0 0)
(0 0 0)
(0 0 0)
(0 0 0)
(0 0 0)
(0 0 0)
(0 0 0)
(0 0 0)
(0 0 0)
(0 0 0)
(0 0 0)
(0 0 0)
(0 0 0)
(0 0 0)
(0 0 0)
(0 0 0)
(0 0 0)
(0 0 0)
(0 0 0)
(0 0 0)
(0 0 0)
(0 0 0)
(0 0 0)
)
;

boundaryField
{
    inandouthalf11
    {
        type            cyclic;
    }
    inandouthalf12
    {
        type            cyclic;
    }
    inandouthalf21
    {
        type            cyclic;
    }
    inandouthalf22
    {
        type            cyclic;
    }
    inandouthalf31
    {
        type            cyclic;
    }
    inandouthalf32
    {
        type            cyclic;
    }
    inandouthalf41
    {
        type            cyclic;
    }
    inandouthalf42
    {
        type            cyclic;
    }
    top
    {
        type            symmetryPlane;
    }
    walls
    {
        type            calculated;
        value           uniform (0 0 0);
    }
    frontAndBackPlanes
    {
        type            empty;
    }
}


// ************************************************************************* //
