/*--------------------------------*- C++ -*----------------------------------*\
| =========                 |                                                 |
| \\      /  F ield         | OpenFOAM: The Open Source CFD Toolbox           |
|  \\    /   O peration     | Version:  2.4.x                                 |
|   \\  /    A nd           | Web:      www.OpenFOAM.org                      |
|    \\/     M anipulation  |                                                 |
\*---------------------------------------------------------------------------*/
FoamFile
{
    version     2.0;
    format      ascii;
    class       volScalarField;
    location    "9";
    object      k;
}
// * * * * * * * * * * * * * * * * * * * * * * * * * * * * * * * * * * * * * //

dimensions      [0 2 -2 0 0 0 0];

internalField   nonuniform List<scalar> 
360
(
1e-20
1e-20
1e-20
1e-20
1e-20
1e-20
1e-20
1e-20
1e-20
1e-20
1e-20
1e-20
1e-20
1e-20
1e-20
1e-20
1e-20
1e-20
1e-20
1e-20
1e-20
1e-20
1e-20
1e-20
1e-20
1e-20
1e-20
1e-20
1e-20
1e-20
1e-20
1e-20
1e-20
1e-20
1e-20
1e-20
1e-20
1e-20
1e-20
1e-20
1e-20
1e-20
1e-20
1e-20
1e-20
1e-20
1e-20
1e-20
1e-20
1e-20
1e-20
1e-20
1e-20
1e-20
1e-20
1e-20
1e-20
1e-20
1e-20
1e-20
1e-20
1e-20
1e-20
1e-20
1e-20
1e-20
1e-20
1e-20
1e-20
1e-20
1e-20
1e-20
1e-20
1e-20
1e-20
1e-20
1e-20
1e-20
1e-20
1e-20
1e-20
1e-20
1e-20
1e-20
1e-20
1e-20
1e-20
1e-20
1e-20
1e-20
1e-20
1e-20
1e-20
1e-20
1e-20
1e-20
1e-20
1e-20
1e-20
1e-20
1e-20
1e-20
1e-20
1e-20
1e-20
1e-20
1e-20
1e-20
1e-20
1e-20
1e-20
1e-20
1e-20
1e-20
1e-20
1e-20
1e-20
1e-20
1e-20
1e-20
1e-20
1e-20
1e-20
1e-20
1e-20
1e-20
1e-20
1e-20
1e-20
2.99639e-20
2.81955e-19
2.94608e-18
3.20742e-17
3.68216e-16
4.52715e-15
6.05251e-14
8.93143e-13
1.47788e-11
2.78952e-10
6.1131e-09
1.58116e-07
4.84332e-06
0.000141962
0.00190434
0.00752925
0.0115879
0.0140865
0.0157718
0.0169604
0.0178146
0.0184278
0.0188577
0.0191476
0.0193296
0.019424
0.0194457
0.0194065
0.0193153
0.0191791
0.0190037
0.0187935
0.0185522
0.0182828
0.0179877
0.0176691
0.0173289
0.0169686
0.0165899
0.0161941
0.0157825
0.0153566
0.0149175
0.0144665
0.0140048
0.0135336
0.0130543
0.0125681
0.0120761
0.0115799
0.0110805
0.0105796
0.0100783
0.00957831
0.00908102
0.00858808
0.00810116
0.00762203
0.00715255
0.00669465
0.00625036
0.00582177
0.005411
0.00502016
0.00465128
0.00430624
0.00398661
0.00369362
0.00342798
0.00318983
0.00297871
0.00279358
0.00263127
0.00248929
0.00236654
0.00226155
0.00217259
0.00209786
0.00203556
0.00198397
0.00194151
0.0019068
0.00187859
0.00185584
0.00183762
0.00182315
0.00181177
0.0018029
0.00179603
0.00179073
0.0017866
0.00178331
0.00178052
0.00177796
0.00177536
0.00177246
0.00176902
0.00176483
0.00175967
0.00175332
0.0017456
0.00173631
0.00172527
0.00171231
0.00169725
0.00167994
0.00166022
0.00163796
0.00161301
0.00158526
0.00155459
0.00152092
0.00148416
0.00144424
0.00140111
0.00135477
0.00130519
0.00125242
0.00119651
0.00113756
0.0010757
0.0010111
0.000944005
0.00087469
0.000803507
0.000730876
0.000657291
0.000583333
0.000509669
0.000437058
0.000366352
0.000298485
0.000234466
0.000175353
0.000122224
7.61734e-05
3.84122e-05
1.08245e-05
7.93196e-07
1.35924e-08
1.72592e-10
2.1488e-12
2.6524e-14
3.26243e-16
4.01757e-18
5.60679e-20
1e-20
1e-20
1e-20
1e-20
1e-20
1e-20
1e-20
1e-20
1e-20
1e-20
1e-20
1e-20
1e-20
1e-20
1e-20
1e-20
1e-20
1e-20
1e-20
1e-20
1e-20
1e-20
1e-20
1e-20
1e-20
1e-20
1e-20
1e-20
1e-20
1e-20
1e-20
1e-20
1e-20
1e-20
1e-20
1e-20
1e-20
1e-20
1e-20
1e-20
1e-20
1e-20
1e-20
1e-20
1e-20
1e-20
1e-20
1e-20
1e-20
1e-20
1e-20
1e-20
1e-20
1e-20
1e-20
1e-20
1e-20
1e-20
1e-20
1e-20
1e-20
1e-20
1e-20
1e-20
1e-20
1e-20
1e-20
1e-20
1e-20
1e-20
1e-20
1e-20
1e-20
1e-20
1e-20
1e-20
1e-20
1e-20
1e-20
1e-20
1e-20
1e-20
1e-20
1e-20
1e-20
)
;

boundaryField
{
    inandouthalf11
    {
        type            cyclic;
    }
    inandouthalf12
    {
        type            cyclic;
    }
    inandouthalf21
    {
        type            cyclic;
    }
    inandouthalf22
    {
        type            cyclic;
    }
    inandouthalf31
    {
        type            cyclic;
    }
    inandouthalf32
    {
        type            cyclic;
    }
    inandouthalf41
    {
        type            cyclic;
    }
    inandouthalf42
    {
        type            cyclic;
    }
    top
    {
        type            symmetryPlane;
    }
    walls
    {
        type            zeroGradient;
    }
    frontAndBackPlanes
    {
        type            empty;
    }
}


// ************************************************************************* //
