/*--------------------------------*- C++ -*----------------------------------*\
| =========                 |                                                 |
| \\      /  F ield         | OpenFOAM: The Open Source CFD Toolbox           |
|  \\    /   O peration     | Version:  2.4.x                                 |
|   \\  /    A nd           | Web:      www.OpenFOAM.org                      |
|    \\/     M anipulation  |                                                 |
\*---------------------------------------------------------------------------*/
FoamFile
{
    version     2.0;
    format      ascii;
    class       volScalarField;
    location    "9";
    object      k_0;
}
// * * * * * * * * * * * * * * * * * * * * * * * * * * * * * * * * * * * * * //

dimensions      [0 2 -2 0 0 0 0];

internalField   nonuniform List<scalar> 
360
(
1e-20
1e-20
1e-20
1e-20
1e-20
1e-20
1e-20
1e-20
1e-20
1e-20
1e-20
1e-20
1e-20
1e-20
1e-20
1e-20
1e-20
1e-20
1e-20
1e-20
1e-20
1e-20
1e-20
1e-20
1e-20
1e-20
1e-20
1e-20
1e-20
1e-20
1e-20
1e-20
1e-20
1e-20
1e-20
1e-20
1e-20
1e-20
1e-20
1e-20
1e-20
1e-20
1e-20
1e-20
1e-20
1e-20
1e-20
1e-20
1e-20
1e-20
1e-20
1e-20
1e-20
1e-20
1e-20
1e-20
1e-20
1e-20
1e-20
1e-20
1e-20
1e-20
1e-20
1e-20
1e-20
1e-20
1e-20
1e-20
1e-20
1e-20
1e-20
1e-20
1e-20
1e-20
1e-20
1e-20
1e-20
1e-20
1e-20
1e-20
1e-20
1e-20
1e-20
1e-20
1e-20
1e-20
1e-20
1e-20
1e-20
1e-20
1e-20
1e-20
1e-20
1e-20
1e-20
1e-20
1e-20
1e-20
1e-20
1e-20
1e-20
1e-20
1e-20
1e-20
1e-20
1e-20
1e-20
1e-20
1e-20
1e-20
1e-20
1e-20
1e-20
1e-20
1e-20
1e-20
1e-20
1e-20
1e-20
1e-20
1e-20
1e-20
1e-20
1e-20
1e-20
1e-20
1e-20
1e-20
1e-20
2.98889e-20
2.8121e-19
2.93873e-18
3.19986e-17
3.67391e-16
4.51748e-15
6.04024e-14
8.91432e-13
1.47521e-11
2.78476e-10
6.10312e-09
1.57866e-07
4.8358e-06
0.000141763
0.00190298
0.00752725
0.0115864
0.0140855
0.0157711
0.01696
0.0178144
0.0184277
0.0188578
0.0191478
0.0193298
0.0194242
0.019446
0.0194068
0.0193155
0.0191793
0.0190038
0.0187936
0.0185522
0.0182826
0.0179874
0.0176687
0.0173283
0.016968
0.0165891
0.0161931
0.0157815
0.0153554
0.0149161
0.0144649
0.0140031
0.0135318
0.0130523
0.0125659
0.0120739
0.0115775
0.011078
0.0105769
0.0100756
0.00957549
0.00907813
0.00858512
0.00809816
0.00761899
0.0071495
0.0066916
0.00624734
0.00581881
0.00540811
0.00501737
0.00464861
0.0043037
0.00398424
0.00369143
0.00342598
0.00318803
0.00297712
0.00279219
0.00263007
0.00248827
0.00236569
0.00226085
0.00217203
0.00209743
0.00203523
0.00198372
0.00194135
0.0019067
0.00187855
0.00185583
0.00183765
0.00182322
0.00181187
0.00180302
0.00179617
0.00179088
0.00178677
0.00178348
0.00178071
0.00177816
0.00177556
0.00177266
0.00176923
0.00176503
0.00175987
0.00175352
0.0017458
0.0017365
0.00172546
0.00171249
0.00169743
0.00168011
0.00166038
0.00163811
0.00161315
0.00158539
0.00155472
0.00152103
0.00148426
0.00144433
0.00140119
0.00135483
0.00130525
0.00125247
0.00119655
0.00113758
0.00107571
0.0010111
0.000943992
0.000874667
0.000803475
0.000730834
0.000657242
0.000583277
0.000509608
0.000436993
0.000366285
0.000298419
0.000234403
0.000175294
0.000122172
7.61297e-05
3.83787e-05
1.08057e-05
7.90637e-07
1.35391e-08
1.71926e-10
2.14072e-12
2.64274e-14
3.25097e-16
4.00404e-18
5.59097e-20
1e-20
1e-20
1e-20
1e-20
1e-20
1e-20
1e-20
1e-20
1e-20
1e-20
1e-20
1e-20
1e-20
1e-20
1e-20
1e-20
1e-20
1e-20
1e-20
1e-20
1e-20
1e-20
1e-20
1e-20
1e-20
1e-20
1e-20
1e-20
1e-20
1e-20
1e-20
1e-20
1e-20
1e-20
1e-20
1e-20
1e-20
1e-20
1e-20
1e-20
1e-20
1e-20
1e-20
1e-20
1e-20
1e-20
1e-20
1e-20
1e-20
1e-20
1e-20
1e-20
1e-20
1e-20
1e-20
1e-20
1e-20
1e-20
1e-20
1e-20
1e-20
1e-20
1e-20
1e-20
1e-20
1e-20
1e-20
1e-20
1e-20
1e-20
1e-20
1e-20
1e-20
1e-20
1e-20
1e-20
1e-20
1e-20
1e-20
1e-20
1e-20
1e-20
1e-20
1e-20
1e-20
)
;

boundaryField
{
    inandouthalf11
    {
        type            cyclic;
    }
    inandouthalf12
    {
        type            cyclic;
    }
    inandouthalf21
    {
        type            cyclic;
    }
    inandouthalf22
    {
        type            cyclic;
    }
    inandouthalf31
    {
        type            cyclic;
    }
    inandouthalf32
    {
        type            cyclic;
    }
    inandouthalf41
    {
        type            cyclic;
    }
    inandouthalf42
    {
        type            cyclic;
    }
    top
    {
        type            symmetryPlane;
    }
    walls
    {
        type            zeroGradient;
    }
    frontAndBackPlanes
    {
        type            empty;
    }
}


// ************************************************************************* //
