/*--------------------------------*- C++ -*----------------------------------*\
| =========                 |                                                 |
| \\      /  F ield         | OpenFOAM: The Open Source CFD Toolbox           |
|  \\    /   O peration     | Version:  2.4.x                                 |
|   \\  /    A nd           | Web:      www.OpenFOAM.org                      |
|    \\/     M anipulation  |                                                 |
\*---------------------------------------------------------------------------*/
FoamFile
{
    version     2.0;
    format      ascii;
    class       volScalarField;
    location    "9";
    object      mua;
}
// * * * * * * * * * * * * * * * * * * * * * * * * * * * * * * * * * * * * * //

dimensions      [1 -1 -1 0 0 0 0];

internalField   nonuniform List<scalar> 
360
(
4.70127e+06
3.30754e+06
3.99964e+06
4.00495e+06
3.72946e+06
3.57565e+06
3.49756e+06
3.42576e+06
3.34695e+06
3.26391e+06
3.18057e+06
3.10015e+06
3.02357e+06
2.9509e+06
2.88173e+06
2.81576e+06
2.75322e+06
2.69445e+06
2.63932e+06
2.58763e+06
2.53967e+06
2.49481e+06
2.45301e+06
2.41425e+06
2.37837e+06
2.34538e+06
2.3151e+06
2.28711e+06
2.26163e+06
2.23869e+06
2.21794e+06
2.19927e+06
2.18296e+06
2.16819e+06
2.15563e+06
2.14497e+06
2.13612e+06
2.12858e+06
2.12259e+06
2.11857e+06
2.11531e+06
2.11359e+06
2.11339e+06
2.11366e+06
2.11501e+06
2.11714e+06
2.1202e+06
2.12454e+06
2.12871e+06
2.13278e+06
2.13789e+06
2.14306e+06
2.14824e+06
2.15342e+06
2.15872e+06
2.16346e+06
2.16843e+06
2.17291e+06
2.1775e+06
2.18194e+06
2.18508e+06
2.18789e+06
2.18978e+06
2.19131e+06
2.19248e+06
2.19327e+06
2.1933e+06
2.1929e+06
2.19255e+06
2.19185e+06
2.18961e+06
2.18672e+06
2.18406e+06
2.1803e+06
2.17576e+06
2.17075e+06
2.16612e+06
2.1615e+06
2.15653e+06
2.15138e+06
2.14618e+06
2.14046e+06
2.13413e+06
2.12735e+06
2.12018e+06
2.11282e+06
2.10541e+06
2.09826e+06
2.09139e+06
2.08468e+06
2.07806e+06
2.0714e+06
2.06449e+06
2.05728e+06
2.04983e+06
2.04219e+06
2.0345e+06
2.02685e+06
2.0193e+06
2.01184e+06
2.00441e+06
1.99691e+06
1.98917e+06
1.98102e+06
1.97226e+06
1.96264e+06
1.9519e+06
1.93971e+06
1.92579e+06
1.90985e+06
1.89172e+06
1.8714e+06
1.84909e+06
1.82532e+06
1.80089e+06
1.77697e+06
1.75496e+06
1.73644e+06
1.72294e+06
1.71568e+06
1.71522e+06
1.7209e+06
1.73026e+06
1.7383e+06
1.73702e+06
1.71572e+06
1.66299e+06
1.57082e+06
1.4398e+06
1.28239e+06
1.12087e+06
980830
885830
860246
946302
1.25506e+06
2.14493e+06
4.96339e+06
1.45202e+07
2.8579e+07
9.32487e+06
43175.5
20.2028
0.0347707
0.0225142
0.0192822
0.0174133
0.0159839
0.014791
0.0137609
0.0128558
0.0120455
0.0113509
0.0107585
0.0102532
0.00982325
0.00945861
0.00915011
0.00888951
0.00866924
0.00848246
0.00832305
0.00818555
0.00806518
0.00795779
0.00785991
0.0077685
0.00768114
0.00759585
0.00751103
0.00742543
0.0073381
0.00724832
0.00715563
0.0070597
0.00696037
0.00685763
0.00675159
0.00664242
0.00653043
0.006416
0.00629961
0.00618179
0.00606319
0.00594448
0.00582644
0.00570985
0.00559553
0.0054843
0.00537692
0.00527408
0.00517636
0.00508417
0.00499774
0.00491708
0.00484199
0.00477209
0.00470689
0.00464585
0.00458841
0.00453409
0.00448193
0.00443111
0.00438142
0.00433262
0.00428452
0.00423692
0.00418964
0.00414249
0.00409529
0.00404786
0.00400003
0.0039516
0.00390239
0.00385219
0.0038008
0.00374799
0.00369351
0.00363711
0.00357849
0.00351732
0.00345325
0.00338586
0.00331467
0.00323913
0.00315856
0.00307214
0.00297886
0.00287741
0.00276608
0.00264249
0.00250325
0.00234311
0.00215332
0.001917
0.00159272
0
0
0
0
0
0
0
0
0
0
0
0
0
0
0
0
0
0
0
0
0
0
0
0
0
0
0
0
0
0
0
0
0
0
0
0
0
0
0
0
0
0
0
0
0
0
0
0
0
0
0
0
0
0
0
0
0
0
0
0
0
0
0
0
0
0
0
0
0
0
0
0
0
0
0
0
0
0
0
0
0
0
0
0
0
0
0
0
0
0
0
0
0
0
0
0
0
0
0
0
0
0
0
0
0
0
0
0
0
0
0
0
0
0
0
0
0
0
0
0
0
0
0
0
)
;

boundaryField
{
    inandouthalf11
    {
        type            cyclic;
    }
    inandouthalf12
    {
        type            cyclic;
    }
    inandouthalf21
    {
        type            cyclic;
    }
    inandouthalf22
    {
        type            cyclic;
    }
    inandouthalf31
    {
        type            cyclic;
    }
    inandouthalf32
    {
        type            cyclic;
    }
    inandouthalf41
    {
        type            cyclic;
    }
    inandouthalf42
    {
        type            cyclic;
    }
    top
    {
        type            symmetryPlane;
    }
    walls
    {
        type            calculated;
        value           uniform 1e+30;
    }
    frontAndBackPlanes
    {
        type            empty;
    }
}


// ************************************************************************* //
