/*--------------------------------*- C++ -*----------------------------------*\
| =========                 |                                                 |
| \\      /  F ield         | OpenFOAM: The Open Source CFD Toolbox           |
|  \\    /   O peration     | Version:  2.4.x                                 |
|   \\  /    A nd           | Web:      www.OpenFOAM.org                      |
|    \\/     M anipulation  |                                                 |
\*---------------------------------------------------------------------------*/
FoamFile
{
    version     2.0;
    format      ascii;
    class       volScalarField;
    location    "9";
    object      nutb;
}
// * * * * * * * * * * * * * * * * * * * * * * * * * * * * * * * * * * * * * //

dimensions      [0 2 -1 0 0 0 0];

internalField   nonuniform List<scalar> 
360
(
9e-22
9e-22
9e-22
9e-22
9e-22
9e-22
9e-22
9e-22
9e-22
9e-22
9e-22
9e-22
9e-22
9e-22
9e-22
9e-22
9e-22
9e-22
9e-22
9e-22
9e-22
9e-22
9e-22
9e-22
9e-22
9e-22
9e-22
9e-22
9e-22
9e-22
9e-22
9e-22
9e-22
9e-22
9e-22
9e-22
9e-22
9e-22
9e-22
9e-22
9e-22
9e-22
9e-22
9e-22
9e-22
9e-22
9e-22
9e-22
9e-22
9e-22
9e-22
9e-22
9e-22
9e-22
9e-22
9e-22
9e-22
9e-22
9e-22
9e-22
9e-22
9e-22
9e-22
9e-22
9e-22
9e-22
9e-22
9e-22
9e-22
9e-22
9e-22
9e-22
9e-22
9e-22
9e-22
9e-22
9e-22
9e-22
9e-22
9e-22
9e-22
9e-22
9e-22
9e-22
9e-22
9e-22
9e-22
9e-22
9e-22
9e-22
9e-22
9e-22
9e-22
9e-22
9e-22
9e-22
9e-22
9e-22
9e-22
9e-22
9e-22
9e-22
9e-22
9e-22
9e-22
9e-22
9e-22
9e-22
9e-22
9e-22
9e-22
9e-22
9e-22
9e-22
9e-22
9e-22
9e-22
9e-22
9e-22
9e-22
9e-22
9e-22
9e-22
9e-22
9e-22
9e-22
9e-22
9e-22
7.83615e-22
1.25682e-21
1.03131e-20
9.59381e-20
9.19512e-19
9.18034e-18
9.70009e-17
1.1016e-15
1.3648e-14
1.87409e-13
2.90301e-12
5.16834e-11
1.07639e-09
2.62806e-08
5.8276e-07
5.76495e-06
1.82477e-05
2.98699e-05
3.99019e-05
4.89383e-05
5.72567e-05
6.49976e-05
7.2237e-05
7.90209e-05
8.54154e-05
9.14836e-05
9.72462e-05
0.000102716
0.0001079
0.000112804
0.00011743
0.00012178
0.000125854
0.000129649
0.000133162
0.000136389
0.000139326
0.000141969
0.000144315
0.000146359
0.000148099
0.000149535
0.000150665
0.00015149
0.000152012
0.000152235
0.000152162
0.000151801
0.000151158
0.000150242
0.000149065
0.000147637
0.000145973
0.000144089
0.000142004
0.000139738
0.000137316
0.000134764
0.000132114
0.0001294
0.000126662
0.000123946
0.000121302
0.000118786
0.000116461
0.000114395
0.00011266
0.000111329
0.000110474
0.000110161
0.000110444
0.000111361
0.000112933
0.000115185
0.000118139
0.000121781
0.000126069
0.000130934
0.000136289
0.00014203
0.000148047
0.00015423
0.000160473
0.000166681
0.00017277
0.00017867
0.000184325
0.000189692
0.00019474
0.000199448
0.000203804
0.000207801
0.00021144
0.000214723
0.000217657
0.000220248
0.000222505
0.000224434
0.000226044
0.000227341
0.000228329
0.000229013
0.000229394
0.000229474
0.000229251
0.000228724
0.00022789
0.000226743
0.000225278
0.000223488
0.000221367
0.000218905
0.000216094
0.000212924
0.000209386
0.00020547
0.000201167
0.000196466
0.000191358
0.000185836
0.00017989
0.000173515
0.000166705
0.000159457
0.000151771
0.000143647
0.000135092
0.000126115
0.000116728
0.000106952
9.68098e-05
8.63335e-05
7.55595e-05
6.45297e-05
5.32891e-05
4.18815e-05
3.03468e-05
1.87345e-05
6.9436e-06
6.46984e-07
1.19043e-08
1.53181e-10
1.92883e-12
2.40458e-14
2.97999e-16
3.62528e-18
2.15688e-20
9e-22
9e-22
9e-22
9e-22
9e-22
9e-22
9e-22
9e-22
9e-22
9e-22
9e-22
9e-22
9e-22
9e-22
9e-22
9e-22
9e-22
9e-22
9e-22
9e-22
9e-22
9e-22
9e-22
9e-22
9e-22
9e-22
9e-22
9e-22
9e-22
9e-22
9e-22
9e-22
9e-22
9e-22
9e-22
9e-22
9e-22
9e-22
9e-22
9e-22
9e-22
9e-22
9e-22
9e-22
9e-22
9e-22
9e-22
9e-22
9e-22
9e-22
9e-22
9e-22
9e-22
9e-22
9e-22
9e-22
9e-22
9e-22
9e-22
9e-22
9e-22
9e-22
9e-22
9e-22
9e-22
9e-22
9e-22
9e-22
9e-22
9e-22
9e-22
9e-22
9e-22
9e-22
9e-22
9e-22
9e-22
9e-22
9e-22
9e-22
9e-22
9e-22
9e-22
9e-22
9e-22
)
;

boundaryField
{
    inandouthalf11
    {
        type            cyclic;
    }
    inandouthalf12
    {
        type            cyclic;
    }
    inandouthalf21
    {
        type            cyclic;
    }
    inandouthalf22
    {
        type            cyclic;
    }
    inandouthalf31
    {
        type            cyclic;
    }
    inandouthalf32
    {
        type            cyclic;
    }
    inandouthalf41
    {
        type            cyclic;
    }
    inandouthalf42
    {
        type            cyclic;
    }
    top
    {
        type            symmetryPlane;
    }
    walls
    {
        type            calculated;
        value           uniform 0;
    }
    frontAndBackPlanes
    {
        type            empty;
    }
}


// ************************************************************************* //
