/*--------------------------------*- C++ -*----------------------------------*\
| =========                 |                                                 |
| \\      /  F ield         | OpenFOAM: The Open Source CFD Toolbox           |
|  \\    /   O peration     | Version:  2.4.x                                 |
|   \\  /    A nd           | Web:      www.OpenFOAM.org                      |
|    \\/     M anipulation  |                                                 |
\*---------------------------------------------------------------------------*/
FoamFile
{
    version     2.0;
    format      ascii;
    class       volScalarField;
    location    "9";
    object      p;
}
// * * * * * * * * * * * * * * * * * * * * * * * * * * * * * * * * * * * * * //

dimensions      [1 -1 -2 0 0 0 0];

internalField   nonuniform List<scalar> 
360
(
4906.07
4901.17
4896.26
4891.36
4886.45
4881.55
4876.64
4871.73
4866.83
4861.92
4857.02
4852.11
4847.2
4842.29
4837.39
4832.48
4827.57
4822.66
4817.75
4812.85
4807.94
4803.03
4798.12
4793.21
4788.3
4783.39
4778.48
4773.57
4768.66
4763.75
4758.84
4753.93
4749.02
4744.1
4739.19
4734.28
4729.37
4724.46
4719.54
4714.63
4709.72
4704.8
4699.89
4694.98
4690.06
4685.15
4680.23
4675.32
4670.4
4665.49
4660.57
4655.66
4650.74
4645.83
4640.91
4635.99
4631.08
4626.16
4621.24
4616.33
4611.41
4606.49
4601.57
4596.66
4591.74
4586.82
4581.9
4576.98
4572.07
4567.15
4562.23
4557.31
4552.39
4547.47
4542.55
4537.63
4532.71
4527.79
4522.87
4517.95
4513.03
4508.11
4503.19
4498.27
4493.35
4488.43
4483.51
4478.59
4473.67
4468.75
4463.83
4458.91
4453.98
4449.06
4444.14
4439.22
4434.3
4429.37
4424.45
4419.53
4414.61
4409.69
4404.76
4399.84
4394.92
4390
4385.07
4380.15
4375.23
4370.3
4365.38
4360.46
4355.54
4350.61
4345.69
4340.77
4335.84
4330.92
4326
4321.07
4316.15
4311.23
4306.3
4301.38
4296.45
4291.53
4286.61
4281.68
4276.76
4271.84
4266.91
4261.99
4257.06
4252.14
4247.22
4242.29
4237.37
4232.45
4227.52
4222.6
4217.67
4212.76
4207.67
4200.34
4188.3
4178.94
4171.24
4164.3
4157.79
4151.55
4145.51
4139.64
4133.83
4128.1
4122.46
4116.89
4111.39
4105.97
4100.6
4095.3
4090.06
4084.87
4079.73
4074.65
4069.62
4064.62
4059.68
4054.77
4049.89
4045.05
4040.24
4035.46
4030.71
4025.97
4021.26
4016.57
4011.9
4007.23
4002.59
3997.95
3993.32
3988.7
3984.09
3979.47
3974.87
3970.26
3965.65
3961.03
3956.42
3951.79
3947.16
3942.52
3937.87
3933.2
3928.52
3923.82
3919.1
3914.37
3909.62
3904.86
3900.07
3895.23
3890.26
3885.19
3879.99
3874.68
3869.25
3863.71
3858.04
3852.25
3846.33
3840.29
3834.13
3827.83
3821.41
3814.85
3808.16
3801.33
3794.36
3787.25
3779.99
3772.59
3765.04
3757.33
3749.46
3741.44
3733.26
3724.9
3716.38
3707.69
3698.82
3689.78
3680.55
3671.13
3661.53
3651.73
3641.74
3631.54
3621.14
3610.52
3599.7
3588.65
3577.39
3565.89
3554.17
3542.21
3530
3517.55
3504.85
3491.89
3478.67
3465.19
3451.43
3437.39
3423.06
3408.45
3393.53
3378.32
3362.79
3346.94
3330.77
3314.27
3297.43
3280.25
3262.71
3244.8
3226.53
3207.87
3188.83
3169.4
3149.58
3129.35
3108.72
3087.66
3066.18
3044.26
3021.9
2999.08
2975.8
2952.05
2927.81
2903.09
2877.86
2852.12
2825.86
2799.06
2771.72
2743.82
2715.36
2686.32
2656.7
2626.47
2595.62
2564.15
2532.05
2499.29
2465.86
2431.76
2396.96
2361.46
2325.24
2288.28
2250.57
2212.1
2172.85
2132.8
2091.93
2050.24
2007.7
1964.3
1922.76
1883.52
1844.28
1805.04
1765.8
1726.56
1687.32
1648.08
1608.84
1569.6
1530.36
1491.12
1451.88
1412.64
1373.4
1334.16
1294.92
1255.68
1216.44
1177.2
1137.96
1098.72
1059.48
1020.24
981
941.76
902.52
863.28
824.04
784.8
745.56
706.32
667.08
627.84
588.6
549.36
510.12
470.88
431.64
392.4
353.16
313.92
274.68
235.44
196.2
156.96
117.72
78.48
39.24
-1.0732e-07
)
;

boundaryField
{
    inandouthalf11
    {
        type            cyclic;
    }
    inandouthalf12
    {
        type            cyclic;
    }
    inandouthalf21
    {
        type            cyclic;
    }
    inandouthalf22
    {
        type            cyclic;
    }
    inandouthalf31
    {
        type            cyclic;
    }
    inandouthalf32
    {
        type            cyclic;
    }
    inandouthalf41
    {
        type            cyclic;
    }
    inandouthalf42
    {
        type            cyclic;
    }
    top
    {
        type            symmetryPlane;
    }
    walls
    {
        type            slip;
    }
    frontAndBackPlanes
    {
        type            empty;
    }
}


// ************************************************************************* //
