/*--------------------------------*- C++ -*----------------------------------*\
| =========                 |                                                 |
| \\      /  F ield         | OpenFOAM: The Open Source CFD Toolbox           |
|  \\    /   O peration     | Version:  2.4.x                                 |
|   \\  /    A nd           | Web:      www.OpenFOAM.org                      |
|    \\/     M anipulation  |                                                 |
\*---------------------------------------------------------------------------*/
FoamFile
{
    version     2.0;
    format      ascii;
    class       volScalarField;
    location    "9";
    object      pa;
}
// * * * * * * * * * * * * * * * * * * * * * * * * * * * * * * * * * * * * * //

dimensions      [1 -1 -2 0 0 0 0];

internalField   nonuniform List<scalar> 
360
(
2.90321e-16
2.92819e-16
2.93083e-16
2.92824e-16
2.92702e-16
2.92663e-16
2.92614e-16
2.92551e-16
2.92486e-16
2.9242e-16
2.92353e-16
2.92286e-16
2.92219e-16
2.92151e-16
2.92083e-16
2.92013e-16
2.91943e-16
2.91872e-16
2.918e-16
2.91728e-16
2.91655e-16
2.91581e-16
2.91506e-16
2.91431e-16
2.91354e-16
2.91277e-16
2.91199e-16
2.9112e-16
2.91041e-16
2.9096e-16
2.90879e-16
2.90796e-16
2.90714e-16
2.90629e-16
2.90545e-16
2.90459e-16
2.90373e-16
2.90285e-16
2.90196e-16
2.90107e-16
2.90016e-16
2.89925e-16
2.89834e-16
2.8974e-16
2.89646e-16
2.89551e-16
2.89454e-16
2.89358e-16
2.89259e-16
2.89159e-16
2.8906e-16
2.88958e-16
2.88855e-16
2.88751e-16
2.88647e-16
2.8854e-16
2.88434e-16
2.88325e-16
2.88215e-16
2.88105e-16
2.87992e-16
2.87879e-16
2.87763e-16
2.87647e-16
2.87529e-16
2.8741e-16
2.87289e-16
2.87166e-16
2.87042e-16
2.86917e-16
2.86789e-16
2.8666e-16
2.8653e-16
2.86397e-16
2.86262e-16
2.86125e-16
2.85987e-16
2.85847e-16
2.85705e-16
2.8556e-16
2.85414e-16
2.85264e-16
2.85113e-16
2.84959e-16
2.84803e-16
2.84644e-16
2.84483e-16
2.84319e-16
2.84153e-16
2.83983e-16
2.83811e-16
2.83635e-16
2.83456e-16
2.83275e-16
2.83089e-16
2.829e-16
2.82708e-16
2.82512e-16
2.82312e-16
2.82108e-16
2.819e-16
2.81688e-16
2.81471e-16
2.8125e-16
2.81024e-16
2.80793e-16
2.80556e-16
2.80315e-16
2.80068e-16
2.79814e-16
2.79555e-16
2.7929e-16
2.79018e-16
2.78739e-16
2.78453e-16
2.7816e-16
2.77859e-16
2.7755e-16
2.77232e-16
2.76905e-16
2.76568e-16
2.76222e-16
2.75865e-16
2.75497e-16
2.75117e-16
2.74725e-16
2.7432e-16
2.739e-16
2.73432e-16
8.14696e-16
7.64954e-15
7.97794e-14
8.66817e-13
9.92915e-12
1.21779e-10
1.62379e-09
2.38954e-08
3.94501e-07
7.4816e-06
0.000201812
0.0135539
0.508934
6.11726
14.5664
15.598
15.3559
14.4136
13.2911
12.1399
11.0149
9.9376
8.90684
7.98375
7.14758
6.38828
5.70013
5.07806
4.51706
4.0122
3.55865
3.15182
2.78736
2.46123
2.16973
1.90944
1.67729
1.47044
1.28637
1.1228
0.977649
0.849063
0.735358
0.635013
0.546657
0.469047
0.401058
0.341671
0.289963
0.245095
0.206308
0.17291
0.144278
0.119842
0.0990876
0.0815493
0.0668059
0.0544781
0.0442258
0.0357457
0.0287684
0.0230547
0.0183929
0.0145982
0.0115155
0.00902196
0.00702374
0.00544685
0.00422587
0.00329716
0.00259954
0.0020773
0.00168115
0.00137584
0.00113806
0.000950449
0.000800398
0.000678793
0.000579016
0.000496219
0.000426802
0.000368059
0.000317937
0.000274857
0.000237577
0.000205127
0.000176753
0.000151855
0.000129944
0.000110643
9.36597e-05
7.87489e-05
6.57046e-05
5.43683e-05
4.45848e-05
3.62166e-05
2.91112e-05
2.31508e-05
1.81785e-05
1.40976e-05
1.07485e-05
8.06017e-06
5.90695e-06
4.19568e-06
2.84393e-06
1.86028e-06
9.42528e-07
0
0
0
0
0
0
0
0
0
0
0
0
0
0
0
0
0
0
0
0
0
0
0
0
0
0
0
0
0
0
0
0
0
0
0
0
0
0
0
0
0
0
0
0
0
0
0
0
0
0
0
0
0
0
0
0
0
0
0
0
0
0
0
0
0
0
0
0
0
0
0
0
0
0
0
0
0
0
0
0
0
0
0
0
0
0
0
0
0
0
0
0
0
0
0
0
0
0
0
0
0
0
0
0
0
0
0
0
0
0
0
0
0
0
0
0
0
0
0
0
0
0
0
0
)
;

boundaryField
{
    inandouthalf11
    {
        type            cyclic;
    }
    inandouthalf12
    {
        type            cyclic;
    }
    inandouthalf21
    {
        type            cyclic;
    }
    inandouthalf22
    {
        type            cyclic;
    }
    inandouthalf31
    {
        type            cyclic;
    }
    inandouthalf32
    {
        type            cyclic;
    }
    inandouthalf41
    {
        type            cyclic;
    }
    inandouthalf42
    {
        type            cyclic;
    }
    top
    {
        type            symmetryPlane;
    }
    walls
    {
        type            calculated;
        value           uniform 2.90321e-16;
    }
    frontAndBackPlanes
    {
        type            empty;
    }
}


// ************************************************************************* //
