/*--------------------------------*- C++ -*----------------------------------*\
| =========                 |                                                 |
| \\      /  F ield         | OpenFOAM: The Open Source CFD Toolbox           |
|  \\    /   O peration     | Version:  2.4.x                                 |
|   \\  /    A nd           | Web:      www.OpenFOAM.org                      |
|    \\/     M anipulation  |                                                 |
\*---------------------------------------------------------------------------*/
FoamFile
{
    version     2.0;
    format      ascii;
    class       surfaceScalarField;
    location    "9";
    object      phia_0;
}
// * * * * * * * * * * * * * * * * * * * * * * * * * * * * * * * * * * * * * //

dimensions      [0 3 -1 0 0 0 0];

internalField   nonuniform List<scalar> 
359
(
-7.65864e-14
-1.92297e-13
-3.00582e-13
-4.06076e-13
-5.1585e-13
-6.29401e-13
-7.45076e-13
-8.62478e-13
-9.81789e-13
-1.10328e-12
-1.2271e-12
-1.35323e-12
-1.48166e-12
-1.6123e-12
-1.74513e-12
-1.88008e-12
-2.0171e-12
-2.15606e-12
-2.29687e-12
-2.43943e-12
-2.58357e-12
-2.72919e-12
-2.87614e-12
-3.0243e-12
-3.1735e-12
-3.32362e-12
-3.47447e-12
-3.62595e-12
-3.77788e-12
-3.93011e-12
-4.08249e-12
-4.23489e-12
-4.38712e-12
-4.5391e-12
-4.69063e-12
-4.84161e-12
-4.99188e-12
-5.14135e-12
-5.28992e-12
-5.4374e-12
-5.58379e-12
-5.72896e-12
-5.87277e-12
-6.01525e-12
-6.15627e-12
-6.2958e-12
-6.43381e-12
-6.57017e-12
-6.70493e-12
-6.83811e-12
-6.96961e-12
-7.09949e-12
-7.2277e-12
-7.3543e-12
-7.47923e-12
-7.6026e-12
-7.72434e-12
-7.84452e-12
-7.96314e-12
-8.08018e-12
-8.19576e-12
-8.30986e-12
-8.42257e-12
-8.53387e-12
-8.6438e-12
-8.75238e-12
-8.85965e-12
-8.96562e-12
-9.07029e-12
-9.17367e-12
-9.27584e-12
-9.37683e-12
-9.4766e-12
-9.57524e-12
-9.67273e-12
-9.76912e-12
-9.86437e-12
-9.95848e-12
-1.00515e-11
-1.01433e-11
-1.0234e-11
-1.03236e-11
-1.04121e-11
-1.04995e-11
-1.05858e-11
-1.06711e-11
-1.07552e-11
-1.08383e-11
-1.09202e-11
-1.1001e-11
-1.10806e-11
-1.11591e-11
-1.12364e-11
-1.13125e-11
-1.13875e-11
-1.14613e-11
-1.1534e-11
-1.16054e-11
-1.16757e-11
-1.17448e-11
-1.18126e-11
-1.18792e-11
-1.19446e-11
-1.20088e-11
-1.20717e-11
-1.21335e-11
-1.2194e-11
-1.22534e-11
-1.23117e-11
-1.23689e-11
-1.24251e-11
-1.24803e-11
-1.25346e-11
-1.25879e-11
-1.26402e-11
-1.26916e-11
-1.27419e-11
-1.27911e-11
-1.28388e-11
-1.2885e-11
-1.29295e-11
-1.2972e-11
-1.30125e-11
-1.30511e-11
-1.30879e-11
-1.31234e-11
-1.31581e-11
-1.31929e-11
-1.32286e-11
-1.32662e-11
-1.33065e-11
-1.33494e-11
-1.33934e-11
-1.34351e-11
-1.34698e-11
-1.34935e-11
-1.35058e-11
-1.35103e-11
-1.35113e-11
-1.35111e-11
-1.35094e-11
-1.29772e-11
6.66653e-10
2.08965e-09
3.74799e-09
4.84655e-09
5.68977e-09
6.40899e-09
7.05544e-09
7.65375e-09
8.21501e-09
8.76024e-09
9.32013e-09
9.88819e-09
1.04685e-08
1.10668e-08
1.16896e-08
1.23426e-08
1.30315e-08
1.37612e-08
1.45359e-08
1.53591e-08
1.62334e-08
1.71607e-08
1.81423e-08
1.91786e-08
2.02696e-08
2.14144e-08
2.2612e-08
2.38607e-08
2.51583e-08
2.65025e-08
2.78904e-08
2.93189e-08
3.07844e-08
3.22832e-08
3.38112e-08
3.53637e-08
3.69359e-08
3.85226e-08
4.01179e-08
4.17155e-08
4.33086e-08
4.48894e-08
4.64494e-08
4.7979e-08
4.94668e-08
5.09001e-08
5.22645e-08
5.35432e-08
5.47147e-08
5.57483e-08
5.66003e-08
5.7217e-08
5.75484e-08
5.75669e-08
5.72807e-08
5.6733e-08
5.59884e-08
5.51171e-08
5.41796e-08
5.3205e-08
5.22285e-08
5.12752e-08
5.03621e-08
4.95001e-08
4.86956e-08
4.79518e-08
4.72702e-08
4.66505e-08
4.60918e-08
4.55921e-08
4.51493e-08
4.47606e-08
4.44229e-08
4.41325e-08
4.38856e-08
4.36778e-08
4.35044e-08
4.33606e-08
4.32416e-08
4.31425e-08
4.30587e-08
4.29859e-08
4.29207e-08
4.2859e-08
4.2799e-08
4.27361e-08
4.26707e-08
4.25968e-08
4.25152e-08
4.24222e-08
4.2318e-08
4.21633e-08
4.21083e-08
4.1554e-08
3.44841e-08
3.47972e-08
3.47761e-08
3.44913e-08
3.44019e-08
3.43416e-08
3.42541e-08
3.39857e-08
3.35361e-08
3.02988e-08
3.71542e-08
1.62512e-08
-1.12466e-07
-1.58571e-07
-1.58451e-07
-1.5843e-07
-1.58433e-07
-1.58433e-07
-1.58431e-07
-1.58428e-07
-1.58423e-07
-1.58415e-07
-1.58405e-07
-1.58393e-07
-1.58378e-07
-1.5836e-07
-1.5834e-07
-1.58318e-07
-1.58294e-07
-1.58265e-07
-1.58215e-07
-1.58194e-07
-1.58194e-07
-1.58194e-07
-1.58194e-07
-1.58194e-07
-1.58194e-07
-1.58194e-07
-1.58194e-07
-1.58194e-07
-1.58194e-07
-1.58194e-07
-1.58194e-07
-1.58194e-07
-1.58194e-07
-1.58194e-07
-1.58194e-07
-1.58194e-07
-1.58194e-07
-1.58194e-07
-1.58194e-07
-1.58194e-07
-1.58194e-07
-1.58194e-07
-1.58194e-07
-1.58194e-07
-1.58194e-07
-1.58194e-07
-1.58194e-07
-1.58194e-07
-1.58194e-07
-1.58194e-07
-1.58194e-07
-1.58194e-07
-1.58194e-07
-1.58194e-07
-1.58194e-07
-1.58194e-07
-1.58194e-07
-1.58194e-07
-1.58194e-07
-1.58194e-07
-1.58194e-07
-1.58194e-07
-1.58194e-07
-1.58194e-07
-1.58194e-07
-1.58194e-07
-1.58194e-07
-1.58194e-07
-1.58194e-07
-1.58194e-07
-1.58194e-07
-1.58194e-07
-1.58194e-07
-1.58194e-07
-1.58194e-07
-1.58194e-07
-1.58194e-07
-1.58194e-07
-1.58194e-07
-1.58194e-07
-1.58194e-07
-1.58194e-07
-1.58194e-07
-1.58194e-07
-1.58194e-07
-1.58194e-07
-1.58194e-07
-1.58194e-07
-1.58194e-07
-1.58194e-07
-1.58194e-07
-1.58194e-07
-1.58194e-07
-1.58194e-07
-1.58194e-07
-1.58194e-07
-1.58194e-07
-1.58194e-07
-1.58194e-07
-1.58194e-07
-1.58194e-07
-1.58194e-07
-1.58194e-07
-1.58194e-07
-1.58194e-07
-1.58194e-07
-1.58194e-07
-1.58194e-07
-1.58176e-07
-1.5747e-07
-1.32597e-07
)
;

boundaryField
{
    inandouthalf11
    {
        type            cyclic;
        value           nonuniform List<scalar> 
100
(
-1.82284e-38
-9.09417e-15
-1.90503e-14
-2.81258e-14
-3.7503e-14
-4.74138e-14
-5.76299e-14
-6.80456e-14
-7.86692e-14
-8.95272e-14
-1.00637e-13
-1.12007e-13
-1.23636e-13
-1.35521e-13
-1.47658e-13
-1.60044e-13
-1.72675e-13
-1.85543e-13
-1.98641e-13
-2.11959e-13
-2.25486e-13
-2.3921e-13
-2.53121e-13
-2.67206e-13
-2.81453e-13
-2.95848e-13
-3.10376e-13
-3.25025e-13
-3.39782e-13
-3.5463e-13
-3.69555e-13
-3.84544e-13
-3.99582e-13
-4.14654e-13
-4.29747e-13
-4.44847e-13
-4.5994e-13
-4.75013e-13
-4.90056e-13
-5.05055e-13
-5.2e-13
-5.34881e-13
-5.49688e-13
-5.64412e-13
-5.79048e-13
-5.93587e-13
-6.08025e-13
-6.22354e-13
-6.36568e-13
-6.5067e-13
-6.64656e-13
-6.78521e-13
-6.92267e-13
-7.05892e-13
-7.19397e-13
-7.32783e-13
-7.46051e-13
-7.59201e-13
-7.72235e-13
-7.85153e-13
-7.97959e-13
-8.10658e-13
-8.23253e-13
-8.35747e-13
-8.48142e-13
-8.6044e-13
-8.72643e-13
-8.84755e-13
-8.96776e-13
-9.08706e-13
-9.2055e-13
-9.32313e-13
-9.43996e-13
-9.556e-13
-9.67129e-13
-9.78587e-13
-9.89973e-13
-1.00128e-12
-1.01252e-12
-1.02369e-12
-1.03478e-12
-1.0458e-12
-1.05675e-12
-1.06763e-12
-1.07844e-12
-1.08919e-12
-1.09987e-12
-1.11048e-12
-1.12102e-12
-1.13149e-12
-1.14189e-12
-1.15221e-12
-1.16246e-12
-1.17263e-12
-1.18273e-12
-1.19276e-12
-1.20271e-12
-1.21259e-12
-1.2224e-12
-1.23213e-12
)
;
    }
    inandouthalf12
    {
        type            cyclic;
        value           nonuniform List<scalar> 
100
(
1.82284e-38
9.09417e-15
1.90503e-14
2.81258e-14
3.7503e-14
4.74138e-14
5.76299e-14
6.80456e-14
7.86692e-14
8.95272e-14
1.00637e-13
1.12007e-13
1.23636e-13
1.35521e-13
1.47658e-13
1.60044e-13
1.72675e-13
1.85543e-13
1.98641e-13
2.11959e-13
2.25486e-13
2.3921e-13
2.53121e-13
2.67206e-13
2.81453e-13
2.95848e-13
3.10376e-13
3.25025e-13
3.39782e-13
3.5463e-13
3.69555e-13
3.84544e-13
3.99582e-13
4.14654e-13
4.29747e-13
4.44847e-13
4.5994e-13
4.75013e-13
4.90056e-13
5.05055e-13
5.2e-13
5.34881e-13
5.49688e-13
5.64412e-13
5.79048e-13
5.93587e-13
6.08025e-13
6.22354e-13
6.36568e-13
6.5067e-13
6.64656e-13
6.78521e-13
6.92267e-13
7.05892e-13
7.19397e-13
7.32783e-13
7.46051e-13
7.59201e-13
7.72235e-13
7.85153e-13
7.97959e-13
8.10658e-13
8.23253e-13
8.35747e-13
8.48142e-13
8.6044e-13
8.72643e-13
8.84755e-13
8.96776e-13
9.08706e-13
9.2055e-13
9.32313e-13
9.43996e-13
9.556e-13
9.67129e-13
9.78587e-13
9.89973e-13
1.00128e-12
1.01252e-12
1.02369e-12
1.03478e-12
1.0458e-12
1.05675e-12
1.06763e-12
1.07844e-12
1.08919e-12
1.09987e-12
1.11048e-12
1.12102e-12
1.13149e-12
1.14189e-12
1.15221e-12
1.16246e-12
1.17263e-12
1.18273e-12
1.19276e-12
1.20271e-12
1.21259e-12
1.2224e-12
1.23213e-12
)
;
    }
    inandouthalf21
    {
        type            cyclic;
        value           nonuniform List<scalar> 
100
(
-1.24178e-12
-1.25135e-12
-1.26085e-12
-1.27026e-12
-1.2796e-12
-1.28887e-12
-1.29807e-12
-1.30721e-12
-1.31629e-12
-1.32532e-12
-1.33431e-12
-1.34327e-12
-1.35222e-12
-1.36115e-12
-1.37008e-12
-1.37901e-12
-1.38793e-12
-1.39683e-12
-1.40568e-12
-1.41447e-12
-1.42314e-12
-1.43168e-12
-1.44006e-12
-1.44826e-12
-1.45633e-12
-1.46431e-12
-1.47235e-12
-1.4806e-12
-1.48933e-12
-1.49885e-12
-1.50947e-12
-1.52147e-12
-1.53481e-12
-1.54891e-12
-1.56239e-12
-1.57329e-12
-1.58025e-12
-1.58346e-12
-1.58457e-12
-1.58495e-12
-1.58532e-12
-1.58631e-12
-1.82629e-12
-4.11925e-10
-1.07751e-07
-2.21543e-07
-3.19579e-07
-4.0518e-07
-4.81119e-07
-5.49315e-07
-6.11129e-07
-6.67568e-07
-7.19559e-07
-7.67562e-07
-8.12032e-07
-8.5337e-07
-8.9192e-07
-9.27977e-07
-9.61796e-07
-9.93597e-07
-1.02357e-06
-1.05189e-06
-1.07869e-06
-1.10411e-06
-1.12825e-06
-1.15123e-06
-1.17313e-06
-1.19403e-06
-1.21399e-06
-1.23309e-06
-1.25136e-06
-1.26886e-06
-1.28563e-06
-1.30171e-06
-1.31712e-06
-1.33188e-06
-1.34602e-06
-1.35956e-06
-1.37249e-06
-1.38484e-06
-1.3966e-06
-1.40777e-06
-1.41836e-06
-1.42836e-06
-1.43776e-06
-1.44656e-06
-1.45476e-06
-1.46236e-06
-1.46935e-06
-1.47575e-06
-1.48155e-06
-1.48678e-06
-1.49146e-06
-1.49561e-06
-1.49928e-06
-1.5025e-06
-1.50533e-06
-1.50781e-06
-1.50999e-06
-1.51191e-06
)
;
    }
    inandouthalf22
    {
        type            cyclic;
        value           nonuniform List<scalar> 
100
(
1.24178e-12
1.25135e-12
1.26085e-12
1.27026e-12
1.2796e-12
1.28887e-12
1.29807e-12
1.30721e-12
1.31629e-12
1.32532e-12
1.33431e-12
1.34327e-12
1.35222e-12
1.36115e-12
1.37008e-12
1.37901e-12
1.38793e-12
1.39683e-12
1.40568e-12
1.41447e-12
1.42314e-12
1.43168e-12
1.44006e-12
1.44826e-12
1.45633e-12
1.46431e-12
1.47235e-12
1.4806e-12
1.48933e-12
1.49885e-12
1.50947e-12
1.52147e-12
1.53481e-12
1.54891e-12
1.56239e-12
1.57329e-12
1.58025e-12
1.58346e-12
1.58457e-12
1.58495e-12
1.58532e-12
1.58631e-12
1.82629e-12
4.11925e-10
1.07751e-07
2.21543e-07
3.19579e-07
4.0518e-07
4.81119e-07
5.49315e-07
6.11129e-07
6.67568e-07
7.19559e-07
7.67562e-07
8.12032e-07
8.5337e-07
8.9192e-07
9.27977e-07
9.61796e-07
9.93597e-07
1.02357e-06
1.05189e-06
1.07869e-06
1.10411e-06
1.12825e-06
1.15123e-06
1.17313e-06
1.19403e-06
1.21399e-06
1.23309e-06
1.25136e-06
1.26886e-06
1.28563e-06
1.30171e-06
1.31712e-06
1.33188e-06
1.34602e-06
1.35956e-06
1.37249e-06
1.38484e-06
1.3966e-06
1.40777e-06
1.41836e-06
1.42836e-06
1.43776e-06
1.44656e-06
1.45476e-06
1.46236e-06
1.46935e-06
1.47575e-06
1.48155e-06
1.48678e-06
1.49146e-06
1.49561e-06
1.49928e-06
1.5025e-06
1.50533e-06
1.50781e-06
1.50999e-06
1.51191e-06
)
;
    }
    inandouthalf31
    {
        type            cyclic;
        value           nonuniform List<scalar> 
110
(
-1.51362e-06
-1.5459e-06
-1.57872e-06
-1.61211e-06
-1.64607e-06
-1.68064e-06
-1.71582e-06
-1.75164e-06
-1.78812e-06
-1.82526e-06
-1.86309e-06
-1.90164e-06
-1.9409e-06
-1.98091e-06
-2.02167e-06
-2.06322e-06
-2.10556e-06
-2.14872e-06
-2.19271e-06
-2.23756e-06
-2.28328e-06
-2.3299e-06
-2.37744e-06
-2.42592e-06
-2.47536e-06
-2.52578e-06
-2.5772e-06
-2.62966e-06
-2.68316e-06
-2.73774e-06
-2.79341e-06
-2.85021e-06
-2.90815e-06
-2.96726e-06
-3.02756e-06
-3.08909e-06
-3.15189e-06
-3.2357e-06
-3.29896e-06
-3.36178e-06
-3.42534e-06
-3.49015e-06
-3.5561e-06
-3.62322e-06
-3.69155e-06
-3.76105e-06
-3.83171e-06
-3.90432e-06
-3.97659e-06
-4.05229e-06
-4.12807e-06
-4.20596e-06
-4.28535e-06
-4.36638e-06
-4.44911e-06
-4.53364e-06
-4.62006e-06
-4.70847e-06
-4.79899e-06
-4.89177e-06
-4.98692e-06
-5.08462e-06
-5.18502e-06
-5.28823e-06
-5.39451e-06
-5.50374e-06
-5.61587e-06
-5.73013e-06
-5.84646e-06
-5.96513e-06
-6.08621e-06
-6.20974e-06
-6.33578e-06
-6.46438e-06
-6.59559e-06
-6.72946e-06
-6.86605e-06
-7.00542e-06
-7.14761e-06
-7.29268e-06
-7.44071e-06
-7.59173e-06
-7.74583e-06
-7.90304e-06
-8.06346e-06
-8.22712e-06
-8.39411e-06
-8.56449e-06
-8.73833e-06
-8.91569e-06
-9.09665e-06
-9.28129e-06
-9.46968e-06
-9.66189e-06
-9.858e-06
-1.00581e-05
-1.02622e-05
-1.04705e-05
-1.06831e-05
-1.08999e-05
-1.11211e-05
-1.13469e-05
-1.15772e-05
-1.18122e-05
-1.20519e-05
-1.22965e-05
-1.25461e-05
-1.28008e-05
-1.30606e-05
-1.33257e-05
)
;
    }
    inandouthalf32
    {
        type            cyclic;
        value           nonuniform List<scalar> 
110
(
1.51362e-06
1.5459e-06
1.57872e-06
1.61211e-06
1.64607e-06
1.68064e-06
1.71582e-06
1.75164e-06
1.78812e-06
1.82526e-06
1.86309e-06
1.90164e-06
1.9409e-06
1.98091e-06
2.02167e-06
2.06322e-06
2.10556e-06
2.14872e-06
2.19271e-06
2.23756e-06
2.28328e-06
2.3299e-06
2.37744e-06
2.42592e-06
2.47536e-06
2.52578e-06
2.5772e-06
2.62966e-06
2.68316e-06
2.73774e-06
2.79341e-06
2.85021e-06
2.90815e-06
2.96726e-06
3.02756e-06
3.08909e-06
3.15189e-06
3.2357e-06
3.29896e-06
3.36178e-06
3.42534e-06
3.49015e-06
3.5561e-06
3.62322e-06
3.69155e-06
3.76105e-06
3.83171e-06
3.90432e-06
3.97659e-06
4.05229e-06
4.12807e-06
4.20596e-06
4.28535e-06
4.36638e-06
4.44911e-06
4.53364e-06
4.62006e-06
4.70847e-06
4.79899e-06
4.89177e-06
4.98692e-06
5.08462e-06
5.18502e-06
5.28823e-06
5.39451e-06
5.50374e-06
5.61587e-06
5.73013e-06
5.84646e-06
5.96513e-06
6.08621e-06
6.20974e-06
6.33578e-06
6.46438e-06
6.59559e-06
6.72946e-06
6.86605e-06
7.00542e-06
7.14761e-06
7.29268e-06
7.44071e-06
7.59173e-06
7.74583e-06
7.90304e-06
8.06346e-06
8.22712e-06
8.39411e-06
8.56449e-06
8.73833e-06
8.91569e-06
9.09665e-06
9.28129e-06
9.46968e-06
9.66189e-06
9.858e-06
1.00581e-05
1.02622e-05
1.04705e-05
1.06831e-05
1.08999e-05
1.11211e-05
1.13469e-05
1.15772e-05
1.18122e-05
1.20519e-05
1.22965e-05
1.25461e-05
1.28008e-05
1.30606e-05
1.33257e-05
)
;
    }
    inandouthalf41
    {
        type            cyclic;
        value           nonuniform List<scalar> 
50
(
-1.19279e-05
-1.19279e-05
-1.19279e-05
-1.19279e-05
-1.19279e-05
-1.19279e-05
-1.19279e-05
-1.19279e-05
-1.19279e-05
-1.19279e-05
-1.19279e-05
-1.19279e-05
-1.19279e-05
-1.19279e-05
-1.19279e-05
-1.19279e-05
-1.19279e-05
-1.19279e-05
-1.19279e-05
-1.19279e-05
-1.19279e-05
-1.19279e-05
-1.19279e-05
-1.19279e-05
-1.19279e-05
-1.19279e-05
-1.19279e-05
-1.19279e-05
-1.19279e-05
-1.19279e-05
-1.19279e-05
-1.19279e-05
-1.19279e-05
-1.19279e-05
-1.19279e-05
-1.19279e-05
-1.19279e-05
-1.19279e-05
-1.19279e-05
-1.19279e-05
-1.19279e-05
-1.19279e-05
-1.19279e-05
-1.19279e-05
-1.19279e-05
-1.19279e-05
-1.19279e-05
-1.19279e-05
-1.19278e-05
-1.19268e-05
)
;
    }
    inandouthalf42
    {
        type            cyclic;
        value           nonuniform List<scalar> 
50
(
1.19279e-05
1.19279e-05
1.19279e-05
1.19279e-05
1.19279e-05
1.19279e-05
1.19279e-05
1.19279e-05
1.19279e-05
1.19279e-05
1.19279e-05
1.19279e-05
1.19279e-05
1.19279e-05
1.19279e-05
1.19279e-05
1.19279e-05
1.19279e-05
1.19279e-05
1.19279e-05
1.19279e-05
1.19279e-05
1.19279e-05
1.19279e-05
1.19279e-05
1.19279e-05
1.19279e-05
1.19279e-05
1.19279e-05
1.19279e-05
1.19279e-05
1.19279e-05
1.19279e-05
1.19279e-05
1.19279e-05
1.19279e-05
1.19279e-05
1.19279e-05
1.19279e-05
1.19279e-05
1.19279e-05
1.19279e-05
1.19279e-05
1.19279e-05
1.19279e-05
1.19279e-05
1.19279e-05
1.19279e-05
1.19278e-05
1.19268e-05
)
;
    }
    top
    {
        type            symmetryPlane;
        value           uniform 0;
    }
    walls
    {
        type            fixedValue;
        value           uniform 0;
    }
    frontAndBackPlanes
    {
        type            empty;
        value           nonuniform 0();
    }
}


// ************************************************************************* //
