/*--------------------------------*- C++ -*----------------------------------*\
| =========                 |                                                 |
| \\      /  F ield         | OpenFOAM: The Open Source CFD Toolbox           |
|  \\    /   O peration     | Version:  2.4.x                                 |
|   \\  /    A nd           | Web:      www.OpenFOAM.org                      |
|    \\/     M anipulation  |                                                 |
\*---------------------------------------------------------------------------*/
FoamFile
{
    version     2.0;
    format      ascii;
    class       surfaceScalarField;
    location    "9";
    object      phia;
}
// * * * * * * * * * * * * * * * * * * * * * * * * * * * * * * * * * * * * * //

dimensions      [0 3 -1 0 0 0 0];

internalField   nonuniform List<scalar> 
359
(
-7.65708e-14
-1.92258e-13
-3.00519e-13
-4.05989e-13
-5.15739e-13
-6.29264e-13
-7.44912e-13
-8.62288e-13
-9.81571e-13
-1.10304e-12
-1.22683e-12
-1.35293e-12
-1.48133e-12
-1.61195e-12
-1.74475e-12
-1.87967e-12
-2.01666e-12
-2.1556e-12
-2.29638e-12
-2.43892e-12
-2.58303e-12
-2.72862e-12
-2.87555e-12
-3.02368e-12
-3.17287e-12
-3.32296e-12
-3.47379e-12
-3.62524e-12
-3.77716e-12
-3.92937e-12
-4.08173e-12
-4.23412e-12
-4.38632e-12
-4.53829e-12
-4.68981e-12
-4.84077e-12
-4.99103e-12
-5.14049e-12
-5.28905e-12
-5.43652e-12
-5.5829e-12
-5.72806e-12
-5.87186e-12
-6.01433e-12
-6.15535e-12
-6.29487e-12
-6.43287e-12
-6.56923e-12
-6.70398e-12
-6.83716e-12
-6.96866e-12
-7.09852e-12
-7.22673e-12
-7.35333e-12
-7.47825e-12
-7.60162e-12
-7.72335e-12
-7.84352e-12
-7.96213e-12
-8.07917e-12
-8.19475e-12
-8.30884e-12
-8.42153e-12
-8.53283e-12
-8.64276e-12
-8.75133e-12
-8.85858e-12
-8.96454e-12
-9.06921e-12
-9.17258e-12
-9.27474e-12
-9.37572e-12
-9.47548e-12
-9.57411e-12
-9.67159e-12
-9.76797e-12
-9.8632e-12
-9.9573e-12
-1.00503e-11
-1.01421e-11
-1.02328e-11
-1.03224e-11
-1.04109e-11
-1.04983e-11
-1.05846e-11
-1.06698e-11
-1.0754e-11
-1.0837e-11
-1.09189e-11
-1.09997e-11
-1.10793e-11
-1.11577e-11
-1.1235e-11
-1.13111e-11
-1.13861e-11
-1.14599e-11
-1.15326e-11
-1.1604e-11
-1.16743e-11
-1.17433e-11
-1.18112e-11
-1.18778e-11
-1.19432e-11
-1.20073e-11
-1.20703e-11
-1.2132e-11
-1.21925e-11
-1.22519e-11
-1.23102e-11
-1.23674e-11
-1.24236e-11
-1.24788e-11
-1.2533e-11
-1.25863e-11
-1.26387e-11
-1.269e-11
-1.27403e-11
-1.27894e-11
-1.28372e-11
-1.28834e-11
-1.29278e-11
-1.29703e-11
-1.30108e-11
-1.30494e-11
-1.30862e-11
-1.31217e-11
-1.31564e-11
-1.31911e-11
-1.32268e-11
-1.32644e-11
-1.33047e-11
-1.33475e-11
-1.33915e-11
-1.34332e-11
-1.34679e-11
-1.34916e-11
-1.35039e-11
-1.35084e-11
-1.35094e-11
-1.35092e-11
-1.35075e-11
-1.30385e-11
6.96818e-10
2.09309e-09
3.74668e-09
4.84332e-09
5.68524e-09
6.40357e-09
7.04925e-09
7.64688e-09
8.20754e-09
8.75223e-09
9.31161e-09
9.87919e-09
1.0459e-08
1.10569e-08
1.16792e-08
1.23318e-08
1.30203e-08
1.37495e-08
1.45238e-08
1.53465e-08
1.62203e-08
1.71472e-08
1.81284e-08
1.91642e-08
2.02547e-08
2.13992e-08
2.25964e-08
2.38447e-08
2.5142e-08
2.64858e-08
2.78734e-08
2.93016e-08
3.0767e-08
3.22656e-08
3.37933e-08
3.53457e-08
3.69179e-08
3.85045e-08
4.00998e-08
4.16975e-08
4.32907e-08
4.48717e-08
4.6432e-08
4.79618e-08
4.945e-08
5.08839e-08
5.22489e-08
5.35283e-08
5.47008e-08
5.57357e-08
5.65892e-08
5.7208e-08
5.75417e-08
5.75627e-08
5.72789e-08
5.67332e-08
5.59901e-08
5.51198e-08
5.41828e-08
5.32086e-08
5.22321e-08
5.12787e-08
5.03655e-08
4.95032e-08
4.86984e-08
4.79544e-08
4.72725e-08
4.66525e-08
4.60935e-08
4.55935e-08
4.51505e-08
4.47616e-08
4.44237e-08
4.41331e-08
4.3886e-08
4.3678e-08
4.35044e-08
4.33606e-08
4.32415e-08
4.31423e-08
4.30584e-08
4.29856e-08
4.29203e-08
4.28586e-08
4.27985e-08
4.27356e-08
4.26702e-08
4.25963e-08
4.25147e-08
4.24216e-08
4.23175e-08
4.21627e-08
4.21078e-08
4.15533e-08
3.44813e-08
3.47972e-08
3.47768e-08
3.44908e-08
3.43975e-08
3.43302e-08
3.42323e-08
3.39506e-08
3.34908e-08
3.02184e-08
3.70601e-08
1.63592e-08
-1.12344e-07
-1.58573e-07
-1.58452e-07
-1.5843e-07
-1.58433e-07
-1.58433e-07
-1.58432e-07
-1.58428e-07
-1.58423e-07
-1.58415e-07
-1.58405e-07
-1.58393e-07
-1.58378e-07
-1.5836e-07
-1.5834e-07
-1.58318e-07
-1.58294e-07
-1.58265e-07
-1.58215e-07
-1.58194e-07
-1.58194e-07
-1.58194e-07
-1.58194e-07
-1.58194e-07
-1.58194e-07
-1.58194e-07
-1.58194e-07
-1.58194e-07
-1.58194e-07
-1.58194e-07
-1.58194e-07
-1.58194e-07
-1.58194e-07
-1.58194e-07
-1.58194e-07
-1.58194e-07
-1.58194e-07
-1.58194e-07
-1.58194e-07
-1.58194e-07
-1.58194e-07
-1.58194e-07
-1.58194e-07
-1.58194e-07
-1.58194e-07
-1.58194e-07
-1.58194e-07
-1.58194e-07
-1.58194e-07
-1.58194e-07
-1.58194e-07
-1.58194e-07
-1.58194e-07
-1.58194e-07
-1.58194e-07
-1.58194e-07
-1.58194e-07
-1.58194e-07
-1.58194e-07
-1.58194e-07
-1.58194e-07
-1.58194e-07
-1.58194e-07
-1.58194e-07
-1.58194e-07
-1.58194e-07
-1.58194e-07
-1.58194e-07
-1.58194e-07
-1.58194e-07
-1.58194e-07
-1.58194e-07
-1.58194e-07
-1.58194e-07
-1.58194e-07
-1.58194e-07
-1.58194e-07
-1.58194e-07
-1.58194e-07
-1.58194e-07
-1.58194e-07
-1.58194e-07
-1.58194e-07
-1.58194e-07
-1.58194e-07
-1.58194e-07
-1.58194e-07
-1.58194e-07
-1.58194e-07
-1.58194e-07
-1.58194e-07
-1.58194e-07
-1.58194e-07
-1.58194e-07
-1.58194e-07
-1.58194e-07
-1.58194e-07
-1.58194e-07
-1.58194e-07
-1.58194e-07
-1.58194e-07
-1.58194e-07
-1.58194e-07
-1.58194e-07
-1.58194e-07
-1.58194e-07
-1.58194e-07
-1.58194e-07
-1.58176e-07
-1.5747e-07
-1.32597e-07
)
;

boundaryField
{
    inandouthalf11
    {
        type            cyclic;
        value           nonuniform List<scalar> 
100
(
-1.82266e-38
-9.09137e-15
-1.90443e-14
-2.81169e-14
-3.74911e-14
-4.73987e-14
-5.76115e-14
-6.80238e-14
-7.8644e-14
-8.94985e-14
-1.00605e-13
-1.11972e-13
-1.23597e-13
-1.35479e-13
-1.47612e-13
-1.59995e-13
-1.72622e-13
-1.85487e-13
-1.98581e-13
-2.11896e-13
-2.25419e-13
-2.3914e-13
-2.53048e-13
-2.6713e-13
-2.81373e-13
-2.95765e-13
-3.10291e-13
-3.24937e-13
-3.3969e-13
-3.54536e-13
-3.69459e-13
-3.84445e-13
-3.9948e-13
-4.1455e-13
-4.29642e-13
-4.4474e-13
-4.5983e-13
-4.74902e-13
-4.89943e-13
-5.0494e-13
-5.19884e-13
-5.34764e-13
-5.49569e-13
-5.64292e-13
-5.78926e-13
-5.93465e-13
-6.07902e-13
-6.22229e-13
-6.36443e-13
-6.50544e-13
-6.64529e-13
-6.78394e-13
-6.92138e-13
-7.05763e-13
-7.19267e-13
-7.32652e-13
-7.45919e-13
-7.59069e-13
-7.72102e-13
-7.8502e-13
-7.97825e-13
-8.10523e-13
-8.23117e-13
-8.3561e-13
-8.48004e-13
-8.60301e-13
-8.72504e-13
-8.84615e-13
-8.96634e-13
-9.08563e-13
-9.20406e-13
-9.32168e-13
-9.4385e-13
-9.55453e-13
-9.66982e-13
-9.78439e-13
-9.89823e-13
-1.00113e-12
-1.01237e-12
-1.02353e-12
-1.03463e-12
-1.04564e-12
-1.05659e-12
-1.06747e-12
-1.07828e-12
-1.08903e-12
-1.09971e-12
-1.11032e-12
-1.12086e-12
-1.13133e-12
-1.14172e-12
-1.15204e-12
-1.16229e-12
-1.17246e-12
-1.18256e-12
-1.19259e-12
-1.20254e-12
-1.21242e-12
-1.22222e-12
-1.23195e-12
)
;
    }
    inandouthalf12
    {
        type            cyclic;
        value           nonuniform List<scalar> 
100
(
1.82266e-38
9.09137e-15
1.90443e-14
2.81169e-14
3.74911e-14
4.73987e-14
5.76115e-14
6.80238e-14
7.8644e-14
8.94985e-14
1.00605e-13
1.11972e-13
1.23597e-13
1.35479e-13
1.47612e-13
1.59995e-13
1.72622e-13
1.85487e-13
1.98581e-13
2.11896e-13
2.25419e-13
2.3914e-13
2.53048e-13
2.6713e-13
2.81373e-13
2.95765e-13
3.10291e-13
3.24937e-13
3.3969e-13
3.54536e-13
3.69459e-13
3.84445e-13
3.9948e-13
4.1455e-13
4.29642e-13
4.4474e-13
4.5983e-13
4.74902e-13
4.89943e-13
5.0494e-13
5.19884e-13
5.34764e-13
5.49569e-13
5.64292e-13
5.78926e-13
5.93465e-13
6.07902e-13
6.22229e-13
6.36443e-13
6.50544e-13
6.64529e-13
6.78394e-13
6.92138e-13
7.05763e-13
7.19267e-13
7.32652e-13
7.45919e-13
7.59069e-13
7.72102e-13
7.8502e-13
7.97825e-13
8.10523e-13
8.23117e-13
8.3561e-13
8.48004e-13
8.60301e-13
8.72504e-13
8.84615e-13
8.96634e-13
9.08563e-13
9.20406e-13
9.32168e-13
9.4385e-13
9.55453e-13
9.66982e-13
9.78439e-13
9.89823e-13
1.00113e-12
1.01237e-12
1.02353e-12
1.03463e-12
1.04564e-12
1.05659e-12
1.06747e-12
1.07828e-12
1.08903e-12
1.09971e-12
1.11032e-12
1.12086e-12
1.13133e-12
1.14172e-12
1.15204e-12
1.16229e-12
1.17246e-12
1.18256e-12
1.19259e-12
1.20254e-12
1.21242e-12
1.22222e-12
1.23195e-12
)
;
    }
    inandouthalf21
    {
        type            cyclic;
        value           nonuniform List<scalar> 
100
(
-1.2416e-12
-1.25117e-12
-1.26067e-12
-1.27008e-12
-1.27942e-12
-1.28869e-12
-1.29789e-12
-1.30703e-12
-1.3161e-12
-1.32513e-12
-1.33412e-12
-1.34309e-12
-1.35203e-12
-1.36096e-12
-1.36989e-12
-1.37882e-12
-1.38774e-12
-1.39664e-12
-1.40549e-12
-1.41427e-12
-1.42295e-12
-1.43149e-12
-1.43986e-12
-1.44807e-12
-1.45613e-12
-1.46412e-12
-1.47215e-12
-1.4804e-12
-1.48913e-12
-1.49864e-12
-1.50927e-12
-1.52126e-12
-1.5346e-12
-1.54869e-12
-1.56217e-12
-1.57307e-12
-1.58003e-12
-1.58324e-12
-1.58436e-12
-1.58473e-12
-1.5851e-12
-1.58608e-12
-1.79461e-12
-4.41649e-10
-1.07767e-07
-2.21553e-07
-3.19584e-07
-4.0518e-07
-4.81116e-07
-5.49308e-07
-6.1112e-07
-6.67557e-07
-7.19546e-07
-7.67547e-07
-8.12015e-07
-8.53352e-07
-8.919e-07
-9.27956e-07
-9.61773e-07
-9.93573e-07
-1.02355e-06
-1.05186e-06
-1.07866e-06
-1.10408e-06
-1.12822e-06
-1.1512e-06
-1.1731e-06
-1.194e-06
-1.21396e-06
-1.23305e-06
-1.25132e-06
-1.26883e-06
-1.2856e-06
-1.30167e-06
-1.31708e-06
-1.33184e-06
-1.34598e-06
-1.35952e-06
-1.37245e-06
-1.3848e-06
-1.39656e-06
-1.40773e-06
-1.41832e-06
-1.42832e-06
-1.43773e-06
-1.44653e-06
-1.45474e-06
-1.46234e-06
-1.46933e-06
-1.47573e-06
-1.48153e-06
-1.48677e-06
-1.49145e-06
-1.4956e-06
-1.49927e-06
-1.5025e-06
-1.50533e-06
-1.50781e-06
-1.50999e-06
-1.51192e-06
)
;
    }
    inandouthalf22
    {
        type            cyclic;
        value           nonuniform List<scalar> 
100
(
1.2416e-12
1.25117e-12
1.26067e-12
1.27008e-12
1.27942e-12
1.28869e-12
1.29789e-12
1.30703e-12
1.3161e-12
1.32513e-12
1.33412e-12
1.34309e-12
1.35203e-12
1.36096e-12
1.36989e-12
1.37882e-12
1.38774e-12
1.39664e-12
1.40549e-12
1.41427e-12
1.42295e-12
1.43149e-12
1.43986e-12
1.44807e-12
1.45613e-12
1.46412e-12
1.47215e-12
1.4804e-12
1.48913e-12
1.49864e-12
1.50927e-12
1.52126e-12
1.5346e-12
1.54869e-12
1.56217e-12
1.57307e-12
1.58003e-12
1.58324e-12
1.58436e-12
1.58473e-12
1.5851e-12
1.58608e-12
1.79461e-12
4.41649e-10
1.07767e-07
2.21553e-07
3.19584e-07
4.0518e-07
4.81116e-07
5.49308e-07
6.1112e-07
6.67557e-07
7.19546e-07
7.67547e-07
8.12015e-07
8.53352e-07
8.919e-07
9.27956e-07
9.61773e-07
9.93573e-07
1.02355e-06
1.05186e-06
1.07866e-06
1.10408e-06
1.12822e-06
1.1512e-06
1.1731e-06
1.194e-06
1.21396e-06
1.23305e-06
1.25132e-06
1.26883e-06
1.2856e-06
1.30167e-06
1.31708e-06
1.33184e-06
1.34598e-06
1.35952e-06
1.37245e-06
1.3848e-06
1.39656e-06
1.40773e-06
1.41832e-06
1.42832e-06
1.43773e-06
1.44653e-06
1.45474e-06
1.46234e-06
1.46933e-06
1.47573e-06
1.48153e-06
1.48677e-06
1.49145e-06
1.4956e-06
1.49927e-06
1.5025e-06
1.50533e-06
1.50781e-06
1.50999e-06
1.51192e-06
)
;
    }
    inandouthalf31
    {
        type            cyclic;
        value           nonuniform List<scalar> 
110
(
-1.51363e-06
-1.54591e-06
-1.57873e-06
-1.61212e-06
-1.64609e-06
-1.68065e-06
-1.71584e-06
-1.75166e-06
-1.78813e-06
-1.82528e-06
-1.86312e-06
-1.90166e-06
-1.94092e-06
-1.98093e-06
-2.0217e-06
-2.06325e-06
-2.10559e-06
-2.14875e-06
-2.19274e-06
-2.23759e-06
-2.28332e-06
-2.32994e-06
-2.37748e-06
-2.42596e-06
-2.4754e-06
-2.52582e-06
-2.57725e-06
-2.6297e-06
-2.68321e-06
-2.73779e-06
-2.79346e-06
-2.85026e-06
-2.9082e-06
-2.96731e-06
-3.02762e-06
-3.08914e-06
-3.15195e-06
-3.23577e-06
-3.29903e-06
-3.36186e-06
-3.42542e-06
-3.49023e-06
-3.55619e-06
-3.62331e-06
-3.69164e-06
-3.76114e-06
-3.8318e-06
-3.90441e-06
-3.97669e-06
-4.05239e-06
-4.12817e-06
-4.20606e-06
-4.28546e-06
-4.36648e-06
-4.44922e-06
-4.53375e-06
-4.62017e-06
-4.70858e-06
-4.79911e-06
-4.89188e-06
-4.98704e-06
-5.08474e-06
-5.18514e-06
-5.28836e-06
-5.39464e-06
-5.50387e-06
-5.61599e-06
-5.73026e-06
-5.84659e-06
-5.96526e-06
-6.08634e-06
-6.20988e-06
-6.33592e-06
-6.46453e-06
-6.59574e-06
-6.72961e-06
-6.86621e-06
-7.00557e-06
-7.14777e-06
-7.29285e-06
-7.44087e-06
-7.5919e-06
-7.746e-06
-7.90322e-06
-8.06364e-06
-8.22731e-06
-8.3943e-06
-8.56468e-06
-8.73852e-06
-8.91589e-06
-9.09686e-06
-9.2815e-06
-9.46989e-06
-9.66211e-06
-9.85822e-06
-1.00583e-05
-1.02625e-05
-1.04708e-05
-1.06833e-05
-1.09001e-05
-1.11214e-05
-1.13471e-05
-1.15774e-05
-1.18124e-05
-1.20522e-05
-1.22968e-05
-1.25464e-05
-1.28011e-05
-1.30609e-05
-1.3326e-05
)
;
    }
    inandouthalf32
    {
        type            cyclic;
        value           nonuniform List<scalar> 
110
(
1.51363e-06
1.54591e-06
1.57873e-06
1.61212e-06
1.64609e-06
1.68065e-06
1.71584e-06
1.75166e-06
1.78813e-06
1.82528e-06
1.86312e-06
1.90166e-06
1.94092e-06
1.98093e-06
2.0217e-06
2.06325e-06
2.10559e-06
2.14875e-06
2.19274e-06
2.23759e-06
2.28332e-06
2.32994e-06
2.37748e-06
2.42596e-06
2.4754e-06
2.52582e-06
2.57725e-06
2.6297e-06
2.68321e-06
2.73779e-06
2.79346e-06
2.85026e-06
2.9082e-06
2.96731e-06
3.02762e-06
3.08914e-06
3.15195e-06
3.23577e-06
3.29903e-06
3.36186e-06
3.42542e-06
3.49023e-06
3.55619e-06
3.62331e-06
3.69164e-06
3.76114e-06
3.8318e-06
3.90441e-06
3.97669e-06
4.05239e-06
4.12817e-06
4.20606e-06
4.28546e-06
4.36648e-06
4.44922e-06
4.53375e-06
4.62017e-06
4.70858e-06
4.79911e-06
4.89188e-06
4.98704e-06
5.08474e-06
5.18514e-06
5.28836e-06
5.39464e-06
5.50387e-06
5.61599e-06
5.73026e-06
5.84659e-06
5.96526e-06
6.08634e-06
6.20988e-06
6.33592e-06
6.46453e-06
6.59574e-06
6.72961e-06
6.86621e-06
7.00557e-06
7.14777e-06
7.29285e-06
7.44087e-06
7.5919e-06
7.746e-06
7.90322e-06
8.06364e-06
8.22731e-06
8.3943e-06
8.56468e-06
8.73852e-06
8.91589e-06
9.09686e-06
9.2815e-06
9.46989e-06
9.66211e-06
9.85822e-06
1.00583e-05
1.02625e-05
1.04708e-05
1.06833e-05
1.09001e-05
1.11214e-05
1.13471e-05
1.15774e-05
1.18124e-05
1.20522e-05
1.22968e-05
1.25464e-05
1.28011e-05
1.30609e-05
1.3326e-05
)
;
    }
    inandouthalf41
    {
        type            cyclic;
        value           nonuniform List<scalar> 
50
(
-1.19281e-05
-1.19281e-05
-1.19281e-05
-1.19281e-05
-1.19281e-05
-1.19281e-05
-1.19281e-05
-1.19281e-05
-1.19281e-05
-1.19281e-05
-1.19281e-05
-1.19281e-05
-1.19281e-05
-1.19281e-05
-1.19281e-05
-1.19281e-05
-1.19281e-05
-1.19281e-05
-1.19281e-05
-1.19281e-05
-1.19281e-05
-1.19281e-05
-1.19281e-05
-1.19281e-05
-1.19281e-05
-1.19281e-05
-1.19281e-05
-1.19281e-05
-1.19281e-05
-1.19281e-05
-1.19281e-05
-1.19281e-05
-1.19281e-05
-1.19281e-05
-1.19281e-05
-1.19281e-05
-1.19281e-05
-1.19281e-05
-1.19281e-05
-1.19281e-05
-1.19281e-05
-1.19281e-05
-1.19281e-05
-1.19281e-05
-1.19281e-05
-1.19281e-05
-1.19281e-05
-1.19281e-05
-1.19281e-05
-1.19271e-05
)
;
    }
    inandouthalf42
    {
        type            cyclic;
        value           nonuniform List<scalar> 
50
(
1.19281e-05
1.19281e-05
1.19281e-05
1.19281e-05
1.19281e-05
1.19281e-05
1.19281e-05
1.19281e-05
1.19281e-05
1.19281e-05
1.19281e-05
1.19281e-05
1.19281e-05
1.19281e-05
1.19281e-05
1.19281e-05
1.19281e-05
1.19281e-05
1.19281e-05
1.19281e-05
1.19281e-05
1.19281e-05
1.19281e-05
1.19281e-05
1.19281e-05
1.19281e-05
1.19281e-05
1.19281e-05
1.19281e-05
1.19281e-05
1.19281e-05
1.19281e-05
1.19281e-05
1.19281e-05
1.19281e-05
1.19281e-05
1.19281e-05
1.19281e-05
1.19281e-05
1.19281e-05
1.19281e-05
1.19281e-05
1.19281e-05
1.19281e-05
1.19281e-05
1.19281e-05
1.19281e-05
1.19281e-05
1.19281e-05
1.19271e-05
)
;
    }
    top
    {
        type            symmetryPlane;
        value           uniform 0;
    }
    walls
    {
        type            fixedValue;
        value           uniform 0;
    }
    frontAndBackPlanes
    {
        type            empty;
        value           nonuniform 0();
    }
}


// ************************************************************************* //
