/*--------------------------------*- C++ -*----------------------------------*\
| =========                 |                                                 |
| \\      /  F ield         | OpenFOAM: The Open Source CFD Toolbox           |
|  \\    /   O peration     | Version:  2.4.x                                 |
|   \\  /    A nd           | Web:      www.OpenFOAM.org                      |
|    \\/     M anipulation  |                                                 |
\*---------------------------------------------------------------------------*/
FoamFile
{
    version     2.0;
    format      ascii;
    class       surfaceScalarField;
    location    "9";
    object      phib_0;
}
// * * * * * * * * * * * * * * * * * * * * * * * * * * * * * * * * * * * * * //

dimensions      [0 3 -1 0 0 0 0];

internalField   nonuniform List<scalar> 
359
(
1.20444e-13
3.03021e-13
4.73659e-13
6.3972e-13
8.1256e-13
9.91359e-13
1.17346e-12
1.35824e-12
1.54598e-12
1.73712e-12
1.93188e-12
2.13025e-12
2.33218e-12
2.53757e-12
2.74635e-12
2.95842e-12
3.17369e-12
3.39199e-12
3.61314e-12
3.83698e-12
4.06326e-12
4.29181e-12
4.52241e-12
4.75483e-12
4.98886e-12
5.22425e-12
5.46074e-12
5.69816e-12
5.93623e-12
6.17471e-12
6.41334e-12
6.65197e-12
6.89023e-12
7.12805e-12
7.3651e-12
7.60122e-12
7.83615e-12
8.06974e-12
8.30187e-12
8.53222e-12
8.76077e-12
8.98734e-12
9.21171e-12
9.4339e-12
9.65375e-12
9.87118e-12
1.00861e-11
1.02985e-11
1.05082e-11
1.07153e-11
1.09198e-11
1.11216e-11
1.13208e-11
1.15173e-11
1.17112e-11
1.19025e-11
1.20912e-11
1.22774e-11
1.2461e-11
1.26421e-11
1.28208e-11
1.29971e-11
1.31712e-11
1.33429e-11
1.35125e-11
1.36798e-11
1.3845e-11
1.4008e-11
1.4169e-11
1.43278e-11
1.44847e-11
1.46396e-11
1.47925e-11
1.49435e-11
1.50926e-11
1.52399e-11
1.53853e-11
1.55289e-11
1.56705e-11
1.58103e-11
1.59482e-11
1.60843e-11
1.62185e-11
1.63509e-11
1.64815e-11
1.66102e-11
1.67372e-11
1.68623e-11
1.69855e-11
1.71067e-11
1.72261e-11
1.73435e-11
1.74589e-11
1.75724e-11
1.76839e-11
1.77935e-11
1.79011e-11
1.80067e-11
1.81102e-11
1.82117e-11
1.83112e-11
1.84085e-11
1.85037e-11
1.85969e-11
1.86879e-11
1.87769e-11
1.88638e-11
1.89487e-11
1.90316e-11
1.91126e-11
1.91918e-11
1.92692e-11
1.93449e-11
1.94188e-11
1.9491e-11
1.95614e-11
1.96298e-11
1.9696e-11
1.97598e-11
1.98208e-11
1.98788e-11
1.99334e-11
1.99846e-11
2.00323e-11
2.00768e-11
2.01188e-11
2.01592e-11
2.0199e-11
2.02397e-11
2.02828e-11
2.03291e-11
2.03787e-11
2.04291e-11
2.0475e-11
2.0509e-11
2.05252e-11
2.05229e-11
2.05069e-11
2.04828e-11
2.04538e-11
2.04209e-11
1.9492e-11
-7.73164e-10
-1.46198e-09
-1.79704e-09
-1.94448e-09
-2.02675e-09
-2.06781e-09
-2.07931e-09
-2.0683e-09
-2.03907e-09
-1.99231e-09
-1.93398e-09
-1.8685e-09
-1.79844e-09
-1.72573e-09
-1.65185e-09
-1.57795e-09
-1.50489e-09
-1.43325e-09
-1.36341e-09
-1.29559e-09
-1.22985e-09
-1.1662e-09
-1.10456e-09
-1.04483e-09
-9.86917e-10
-9.30697e-10
-8.76083e-10
-8.22998e-10
-7.71389e-10
-7.21226e-10
-6.725e-10
-6.25223e-10
-5.79423e-10
-5.35144e-10
-4.92439e-10
-4.51371e-10
-4.12007e-10
-3.74417e-10
-3.38667e-10
-3.0482e-10
-2.72931e-10
-2.43042e-10
-2.15185e-10
-1.89373e-10
-1.65603e-10
-1.43856e-10
-1.24094e-10
-1.06258e-10
-9.02572e-11
-7.59687e-11
-6.32577e-11
-5.20179e-11
-4.22032e-11
-3.38165e-11
-2.68556e-11
-2.12559e-11
-1.6872e-11
-1.35024e-11
-1.09331e-11
-8.93724e-12
-7.38127e-12
-6.158e-12
-5.18574e-12
-4.40382e-12
-3.76758e-12
-3.24402e-12
-2.80858e-12
-2.4428e-12
-2.13264e-12
-1.86735e-12
-1.63853e-12
-1.43959e-12
-1.26535e-12
-1.11176e-12
-9.75553e-13
-8.54159e-13
-7.45623e-13
-6.48438e-13
-5.61389e-13
-4.83573e-13
-4.14297e-13
-3.5295e-13
-2.98929e-13
-2.51696e-13
-2.10667e-13
-1.75305e-13
-1.45003e-13
-1.1921e-13
-9.74985e-14
-7.91921e-14
-6.37611e-14
-5.16241e-14
-4.04471e-14
-3.26974e-14
-2.33305e-14
-1.77419e-14
-1.289e-14
-9.25902e-15
-6.57949e-15
-4.59982e-15
-3.14384e-15
-2.07592e-15
-1.31046e-15
-7.0014e-16
-4.66709e-16
-8.06878e-17
-5.4735e-19
-7.80874e-18
-7.60458e-18
-7.45078e-18
-7.2029e-18
-7.00465e-18
-6.71897e-18
-6.4837e-18
-6.17546e-18
-5.91216e-18
-5.57763e-18
-5.28264e-18
-4.9399e-18
-4.63982e-18
-4.3086e-18
-4.04627e-18
-3.81727e-18
-3.65094e-18
-3.46393e-18
-3.31936e-18
-3.18738e-18
-3.06206e-18
-2.92476e-18
-2.78952e-18
-2.69308e-18
-2.59522e-18
-2.49157e-18
-2.36761e-18
-2.2587e-18
-2.13012e-18
-1.99733e-18
-1.85174e-18
-1.75041e-18
-1.64244e-18
-1.53836e-18
-1.42189e-18
-1.3149e-18
-1.20377e-18
-1.13572e-18
-1.02154e-18
-9.07235e-19
-7.97075e-19
-6.85692e-19
-5.8035e-19
-4.73701e-19
-3.72605e-19
-2.73246e-19
-1.72855e-19
3.25487e-20
8.1359e-20
1.27252e-19
3.09963e-19
3.54793e-19
3.91735e-19
4.28925e-19
4.56486e-19
5.02616e-19
5.35101e-19
5.69647e-19
5.84994e-19
6.19214e-19
6.31331e-19
6.44714e-19
6.40492e-19
6.84489e-19
7.10892e-19
7.39221e-19
7.4697e-19
7.73947e-19
7.77971e-19
7.83758e-19
7.59568e-19
8.13475e-19
8.28569e-19
8.47922e-19
8.10053e-19
8.69384e-19
8.38971e-19
8.51275e-19
6.33356e-19
1.61439e-18
2.3167e-18
3.06157e-18
3.5837e-18
4.35517e-18
4.83738e-18
5.33988e-18
5.50072e-18
6.34367e-18
6.74815e-18
7.17126e-18
7.06561e-18
7.45305e-18
7.2201e-18
7.04145e-18
6.20353e-18
6.89267e-18
6.81443e-18
6.78325e-18
5.882e-18
5.67229e-18
4.59463e-18
3.49428e-18
1.58695e-18
4.1461e-19
-1.28993e-18
-3.0695e-18
-5.24683e-18
-7.51237e-18
-1.02082e-17
-1.43474e-17
)
;

boundaryField
{
    inandouthalf11
    {
        type            cyclic;
        value           nonuniform List<scalar> 
100
(
-3.43614e-11
-3.41818e-11
-3.4165e-11
-3.41995e-11
-3.42212e-11
-3.4235e-11
-3.42502e-11
-3.42669e-11
-3.42841e-11
-3.43016e-11
-3.43194e-11
-3.43374e-11
-3.43558e-11
-3.43746e-11
-3.43936e-11
-3.4413e-11
-3.44327e-11
-3.44527e-11
-3.4473e-11
-3.44936e-11
-3.45145e-11
-3.45357e-11
-3.45571e-11
-3.45788e-11
-3.46007e-11
-3.46229e-11
-3.46452e-11
-3.46678e-11
-3.46905e-11
-3.47134e-11
-3.47365e-11
-3.47598e-11
-3.47831e-11
-3.48066e-11
-3.48302e-11
-3.48539e-11
-3.48776e-11
-3.49015e-11
-3.49254e-11
-3.49493e-11
-3.49733e-11
-3.49973e-11
-3.50213e-11
-3.50455e-11
-3.50695e-11
-3.50936e-11
-3.51177e-11
-3.51417e-11
-3.51658e-11
-3.519e-11
-3.5214e-11
-3.52381e-11
-3.52622e-11
-3.52863e-11
-3.53103e-11
-3.53345e-11
-3.53586e-11
-3.53827e-11
-3.54069e-11
-3.5431e-11
-3.54553e-11
-3.54795e-11
-3.55038e-11
-3.55282e-11
-3.55526e-11
-3.5577e-11
-3.56016e-11
-3.56263e-11
-3.5651e-11
-3.56757e-11
-3.57006e-11
-3.57257e-11
-3.57507e-11
-3.5776e-11
-3.58014e-11
-3.5827e-11
-3.58526e-11
-3.58784e-11
-3.59044e-11
-3.59305e-11
-3.59568e-11
-3.59832e-11
-3.60099e-11
-3.60367e-11
-3.60638e-11
-3.60911e-11
-3.61186e-11
-3.61463e-11
-3.61743e-11
-3.62025e-11
-3.62309e-11
-3.62596e-11
-3.62886e-11
-3.63179e-11
-3.63476e-11
-3.63775e-11
-3.64077e-11
-3.64383e-11
-3.64693e-11
-3.65006e-11
)
;
    }
    inandouthalf12
    {
        type            cyclic;
        value           nonuniform List<scalar> 
100
(
3.43614e-11
3.41818e-11
3.4165e-11
3.41995e-11
3.42212e-11
3.4235e-11
3.42502e-11
3.42669e-11
3.42841e-11
3.43016e-11
3.43194e-11
3.43374e-11
3.43558e-11
3.43746e-11
3.43936e-11
3.4413e-11
3.44327e-11
3.44527e-11
3.4473e-11
3.44936e-11
3.45145e-11
3.45357e-11
3.45571e-11
3.45788e-11
3.46007e-11
3.46229e-11
3.46452e-11
3.46678e-11
3.46905e-11
3.47134e-11
3.47365e-11
3.47598e-11
3.47831e-11
3.48066e-11
3.48302e-11
3.48539e-11
3.48776e-11
3.49015e-11
3.49254e-11
3.49493e-11
3.49733e-11
3.49973e-11
3.50213e-11
3.50455e-11
3.50695e-11
3.50936e-11
3.51177e-11
3.51417e-11
3.51658e-11
3.519e-11
3.5214e-11
3.52381e-11
3.52622e-11
3.52863e-11
3.53103e-11
3.53345e-11
3.53586e-11
3.53827e-11
3.54069e-11
3.5431e-11
3.54553e-11
3.54795e-11
3.55038e-11
3.55282e-11
3.55526e-11
3.5577e-11
3.56016e-11
3.56263e-11
3.5651e-11
3.56757e-11
3.57006e-11
3.57257e-11
3.57507e-11
3.5776e-11
3.58014e-11
3.5827e-11
3.58526e-11
3.58784e-11
3.59044e-11
3.59305e-11
3.59568e-11
3.59832e-11
3.60099e-11
3.60367e-11
3.60638e-11
3.60911e-11
3.61186e-11
3.61463e-11
3.61743e-11
3.62025e-11
3.62309e-11
3.62596e-11
3.62886e-11
3.63179e-11
3.63476e-11
3.63775e-11
3.64077e-11
3.64383e-11
3.64693e-11
3.65006e-11
)
;
    }
    inandouthalf21
    {
        type            cyclic;
        value           nonuniform List<scalar> 
100
(
-3.65324e-11
-3.65645e-11
-3.65971e-11
-3.66301e-11
-3.66636e-11
-3.66975e-11
-3.67321e-11
-3.67671e-11
-3.68028e-11
-3.68391e-11
-3.6876e-11
-3.69137e-11
-3.69521e-11
-3.69912e-11
-3.70313e-11
-3.70721e-11
-3.71139e-11
-3.71567e-11
-3.72004e-11
-3.72451e-11
-3.72908e-11
-3.73376e-11
-3.73854e-11
-3.74345e-11
-3.74847e-11
-3.75365e-11
-3.75899e-11
-3.76453e-11
-3.7703e-11
-3.77637e-11
-3.78277e-11
-3.78953e-11
-3.79669e-11
-3.80425e-11
-3.81213e-11
-3.82015e-11
-3.82814e-11
-3.83623e-11
-3.84497e-11
-3.85492e-11
-3.86573e-11
-3.87961e-11
-5.98958e-11
-4.56841e-09
-1.18869e-07
-2.30847e-07
-3.27308e-07
-4.11864e-07
-4.87078e-07
-5.54743e-07
-6.16166e-07
-6.72343e-07
-7.23972e-07
-7.7163e-07
-8.15793e-07
-8.5686e-07
-8.95173e-07
-9.31025e-07
-9.64667e-07
-9.96318e-07
-1.02617e-06
-1.05439e-06
-1.08112e-06
-1.10649e-06
-1.13062e-06
-1.15361e-06
-1.17554e-06
-1.19649e-06
-1.21654e-06
-1.23575e-06
-1.25417e-06
-1.27185e-06
-1.28884e-06
-1.30518e-06
-1.32089e-06
-1.33602e-06
-1.35057e-06
-1.36459e-06
-1.37809e-06
-1.39109e-06
-1.4036e-06
-1.41563e-06
-1.4272e-06
-1.4383e-06
-1.44896e-06
-1.45916e-06
-1.46891e-06
-1.47821e-06
-1.48705e-06
-1.49543e-06
-1.50335e-06
-1.51078e-06
-1.51773e-06
-1.52419e-06
-1.53015e-06
-1.5356e-06
-1.54055e-06
-1.54499e-06
-1.54893e-06
-1.5524e-06
)
;
    }
    inandouthalf22
    {
        type            cyclic;
        value           nonuniform List<scalar> 
100
(
3.65324e-11
3.65645e-11
3.65971e-11
3.66301e-11
3.66636e-11
3.66975e-11
3.67321e-11
3.67671e-11
3.68028e-11
3.68391e-11
3.6876e-11
3.69137e-11
3.69521e-11
3.69912e-11
3.70313e-11
3.70721e-11
3.71139e-11
3.71567e-11
3.72004e-11
3.72451e-11
3.72908e-11
3.73376e-11
3.73854e-11
3.74345e-11
3.74847e-11
3.75365e-11
3.75899e-11
3.76453e-11
3.7703e-11
3.77637e-11
3.78277e-11
3.78953e-11
3.79669e-11
3.80425e-11
3.81213e-11
3.82015e-11
3.82814e-11
3.83623e-11
3.84497e-11
3.85492e-11
3.86573e-11
3.87961e-11
5.98958e-11
4.56841e-09
1.18869e-07
2.30847e-07
3.27308e-07
4.11864e-07
4.87078e-07
5.54743e-07
6.16166e-07
6.72343e-07
7.23972e-07
7.7163e-07
8.15793e-07
8.5686e-07
8.95173e-07
9.31025e-07
9.64667e-07
9.96318e-07
1.02617e-06
1.05439e-06
1.08112e-06
1.10649e-06
1.13062e-06
1.15361e-06
1.17554e-06
1.19649e-06
1.21654e-06
1.23575e-06
1.25417e-06
1.27185e-06
1.28884e-06
1.30518e-06
1.32089e-06
1.33602e-06
1.35057e-06
1.36459e-06
1.37809e-06
1.39109e-06
1.4036e-06
1.41563e-06
1.4272e-06
1.4383e-06
1.44896e-06
1.45916e-06
1.46891e-06
1.47821e-06
1.48705e-06
1.49543e-06
1.50335e-06
1.51078e-06
1.51773e-06
1.52419e-06
1.53015e-06
1.5356e-06
1.54055e-06
1.54499e-06
1.54893e-06
1.5524e-06
)
;
    }
    inandouthalf31
    {
        type            cyclic;
        value           nonuniform List<scalar> 
110
(
-1.55543e-06
-1.58967e-06
-1.6243e-06
-1.65931e-06
-1.69474e-06
-1.7306e-06
-1.76693e-06
-1.80374e-06
-1.84107e-06
-1.87894e-06
-1.91739e-06
-1.95644e-06
-1.99611e-06
-2.03642e-06
-2.0774e-06
-2.11906e-06
-2.16142e-06
-2.2045e-06
-2.24831e-06
-2.29287e-06
-2.33819e-06
-2.38429e-06
-2.43118e-06
-2.47887e-06
-2.52739e-06
-2.57673e-06
-2.62693e-06
-2.67799e-06
-2.72992e-06
-2.78275e-06
-2.83648e-06
-2.89113e-06
-2.94672e-06
-3.00327e-06
-3.06078e-06
-3.11929e-06
-3.17881e-06
-3.23935e-06
-3.30095e-06
-3.36361e-06
-3.42736e-06
-3.49224e-06
-3.55826e-06
-3.62545e-06
-3.69383e-06
-3.76346e-06
-3.83435e-06
-3.90654e-06
-3.98008e-06
-4.05501e-06
-4.13138e-06
-4.20925e-06
-4.28867e-06
-4.36972e-06
-4.45246e-06
-4.53699e-06
-4.62339e-06
-4.71178e-06
-4.80226e-06
-4.89498e-06
-4.99006e-06
-5.08767e-06
-5.18795e-06
-5.29108e-06
-5.39717e-06
-5.50631e-06
-5.61842e-06
-5.7328e-06
-5.84919e-06
-5.96792e-06
-6.08905e-06
-6.21264e-06
-6.33874e-06
-6.4674e-06
-6.59867e-06
-6.73261e-06
-6.86926e-06
-7.00869e-06
-7.15095e-06
-7.29609e-06
-7.44418e-06
-7.59528e-06
-7.74945e-06
-7.90674e-06
-8.06722e-06
-8.23097e-06
-8.39803e-06
-8.56849e-06
-8.74241e-06
-8.91986e-06
-9.10091e-06
-9.28563e-06
-9.4741e-06
-9.6664e-06
-9.86261e-06
-1.00628e-05
-1.0267e-05
-1.04754e-05
-1.06881e-05
-1.0905e-05
-1.11263e-05
-1.13522e-05
-1.15826e-05
-1.18177e-05
-1.20576e-05
-1.23023e-05
-1.2552e-05
-1.28068e-05
-1.30667e-05
-1.33319e-05
)
;
    }
    inandouthalf32
    {
        type            cyclic;
        value           nonuniform List<scalar> 
110
(
1.55543e-06
1.58967e-06
1.6243e-06
1.65931e-06
1.69474e-06
1.7306e-06
1.76693e-06
1.80374e-06
1.84107e-06
1.87894e-06
1.91739e-06
1.95644e-06
1.99611e-06
2.03642e-06
2.0774e-06
2.11906e-06
2.16142e-06
2.2045e-06
2.24831e-06
2.29287e-06
2.33819e-06
2.38429e-06
2.43118e-06
2.47887e-06
2.52739e-06
2.57673e-06
2.62693e-06
2.67799e-06
2.72992e-06
2.78275e-06
2.83648e-06
2.89113e-06
2.94672e-06
3.00327e-06
3.06078e-06
3.11929e-06
3.17881e-06
3.23935e-06
3.30095e-06
3.36361e-06
3.42736e-06
3.49224e-06
3.55826e-06
3.62545e-06
3.69383e-06
3.76346e-06
3.83435e-06
3.90654e-06
3.98008e-06
4.05501e-06
4.13138e-06
4.20925e-06
4.28867e-06
4.36972e-06
4.45246e-06
4.53699e-06
4.62339e-06
4.71178e-06
4.80226e-06
4.89498e-06
4.99006e-06
5.08767e-06
5.18795e-06
5.29108e-06
5.39717e-06
5.50631e-06
5.61842e-06
5.7328e-06
5.84919e-06
5.96792e-06
6.08905e-06
6.21264e-06
6.33874e-06
6.4674e-06
6.59867e-06
6.73261e-06
6.86926e-06
7.00869e-06
7.15095e-06
7.29609e-06
7.44418e-06
7.59528e-06
7.74945e-06
7.90674e-06
8.06722e-06
8.23097e-06
8.39803e-06
8.56849e-06
8.74241e-06
8.91986e-06
9.10091e-06
9.28563e-06
9.4741e-06
9.6664e-06
9.86261e-06
1.00628e-05
1.0267e-05
1.04754e-05
1.06881e-05
1.0905e-05
1.11263e-05
1.13522e-05
1.15826e-05
1.18177e-05
1.20576e-05
1.23023e-05
1.2552e-05
1.28068e-05
1.30667e-05
1.33319e-05
)
;
    }
    inandouthalf41
    {
        type            cyclic;
        value           nonuniform List<scalar> 
50
(
-1.19334e-05
-1.19334e-05
-1.19334e-05
-1.19334e-05
-1.19334e-05
-1.19334e-05
-1.19334e-05
-1.19334e-05
-1.19334e-05
-1.19334e-05
-1.19334e-05
-1.19334e-05
-1.19334e-05
-1.19334e-05
-1.19334e-05
-1.19334e-05
-1.19334e-05
-1.19334e-05
-1.19334e-05
-1.19334e-05
-1.19334e-05
-1.19334e-05
-1.19334e-05
-1.19334e-05
-1.19334e-05
-1.19334e-05
-1.19334e-05
-1.19334e-05
-1.19334e-05
-1.19334e-05
-1.19334e-05
-1.19334e-05
-1.19334e-05
-1.19334e-05
-1.19334e-05
-1.19334e-05
-1.19334e-05
-1.19334e-05
-1.19334e-05
-1.19334e-05
-1.19334e-05
-1.19334e-05
-1.19334e-05
-1.19334e-05
-1.19334e-05
-1.19334e-05
-1.19334e-05
-1.19334e-05
-1.19334e-05
-1.19334e-05
)
;
    }
    inandouthalf42
    {
        type            cyclic;
        value           nonuniform List<scalar> 
50
(
1.19334e-05
1.19334e-05
1.19334e-05
1.19334e-05
1.19334e-05
1.19334e-05
1.19334e-05
1.19334e-05
1.19334e-05
1.19334e-05
1.19334e-05
1.19334e-05
1.19334e-05
1.19334e-05
1.19334e-05
1.19334e-05
1.19334e-05
1.19334e-05
1.19334e-05
1.19334e-05
1.19334e-05
1.19334e-05
1.19334e-05
1.19334e-05
1.19334e-05
1.19334e-05
1.19334e-05
1.19334e-05
1.19334e-05
1.19334e-05
1.19334e-05
1.19334e-05
1.19334e-05
1.19334e-05
1.19334e-05
1.19334e-05
1.19334e-05
1.19334e-05
1.19334e-05
1.19334e-05
1.19334e-05
1.19334e-05
1.19334e-05
1.19334e-05
1.19334e-05
1.19334e-05
1.19334e-05
1.19334e-05
1.19334e-05
1.19334e-05
)
;
    }
    top
    {
        type            symmetryPlane;
        value           uniform 0;
    }
    walls
    {
        type            fixedValue;
        value           uniform 0;
    }
    frontAndBackPlanes
    {
        type            empty;
        value           nonuniform 0();
    }
}


// ************************************************************************* //
