/*--------------------------------*- C++ -*----------------------------------*\
| =========                 |                                                 |
| \\      /  F ield         | OpenFOAM: The Open Source CFD Toolbox           |
|  \\    /   O peration     | Version:  2.4.x                                 |
|   \\  /    A nd           | Web:      www.OpenFOAM.org                      |
|    \\/     M anipulation  |                                                 |
\*---------------------------------------------------------------------------*/
FoamFile
{
    version     2.0;
    format      ascii;
    class       surfaceScalarField;
    location    "9";
    object      phib;
}
// * * * * * * * * * * * * * * * * * * * * * * * * * * * * * * * * * * * * * //

dimensions      [0 3 -1 0 0 0 0];

internalField   nonuniform List<scalar> 
359
(
1.20419e-13
3.02959e-13
4.7356e-13
6.39585e-13
8.12385e-13
9.91144e-13
1.1732e-12
1.35794e-12
1.54564e-12
1.73674e-12
1.93145e-12
2.12978e-12
2.33167e-12
2.53702e-12
2.74575e-12
2.95778e-12
3.173e-12
3.39126e-12
3.61237e-12
3.83617e-12
4.06241e-12
4.29092e-12
4.52148e-12
4.75387e-12
4.98786e-12
5.22321e-12
5.45968e-12
5.69705e-12
5.93509e-12
6.17354e-12
6.41215e-12
6.65075e-12
6.88899e-12
7.12679e-12
7.36381e-12
7.59991e-12
7.83482e-12
8.0684e-12
8.30051e-12
8.53084e-12
8.75938e-12
8.98593e-12
9.21029e-12
9.43247e-12
9.6523e-12
9.86972e-12
1.00847e-11
1.0297e-11
1.05067e-11
1.07139e-11
1.09183e-11
1.11201e-11
1.13193e-11
1.15158e-11
1.17097e-11
1.1901e-11
1.20897e-11
1.22758e-11
1.24595e-11
1.26405e-11
1.28192e-11
1.29955e-11
1.31696e-11
1.33413e-11
1.35108e-11
1.36782e-11
1.38433e-11
1.40064e-11
1.41673e-11
1.43261e-11
1.44829e-11
1.46378e-11
1.47907e-11
1.49417e-11
1.50908e-11
1.52381e-11
1.53835e-11
1.5527e-11
1.56687e-11
1.58085e-11
1.59464e-11
1.60824e-11
1.62166e-11
1.63489e-11
1.64795e-11
1.66083e-11
1.67352e-11
1.68603e-11
1.69834e-11
1.71047e-11
1.7224e-11
1.73414e-11
1.74568e-11
1.75703e-11
1.76818e-11
1.77914e-11
1.78989e-11
1.80045e-11
1.8108e-11
1.82095e-11
1.83089e-11
1.84062e-11
1.85015e-11
1.85946e-11
1.86856e-11
1.87745e-11
1.88614e-11
1.89463e-11
1.90292e-11
1.91102e-11
1.91894e-11
1.92668e-11
1.93424e-11
1.94164e-11
1.94885e-11
1.95589e-11
1.96273e-11
1.96935e-11
1.97573e-11
1.98183e-11
1.98762e-11
1.99308e-11
1.9982e-11
2.00297e-11
2.00742e-11
2.01162e-11
2.01565e-11
2.01963e-11
2.0237e-11
2.028e-11
2.03263e-11
2.03759e-11
2.04262e-11
2.04721e-11
2.05061e-11
2.05222e-11
2.052e-11
2.0504e-11
2.04798e-11
2.04509e-11
2.0418e-11
1.95826e-11
-8.08003e-10
-1.46414e-09
-1.7962e-09
-1.94305e-09
-2.02505e-09
-2.066e-09
-2.07745e-09
-2.06643e-09
-2.03722e-09
-1.99051e-09
-1.93225e-09
-1.86684e-09
-1.79688e-09
-1.72425e-09
-1.65046e-09
-1.57665e-09
-1.50367e-09
-1.43212e-09
-1.36236e-09
-1.29462e-09
-1.22896e-09
-1.16538e-09
-1.10381e-09
-1.04415e-09
-9.86303e-10
-9.30148e-10
-8.75593e-10
-8.22566e-10
-7.71011e-10
-7.20899e-10
-6.72222e-10
-6.24989e-10
-5.79231e-10
-5.34989e-10
-4.92319e-10
-4.51282e-10
-4.11947e-10
-3.74382e-10
-3.38654e-10
-3.04825e-10
-2.72951e-10
-2.43076e-10
-2.15228e-10
-1.89423e-10
-1.65659e-10
-1.43915e-10
-1.24155e-10
-1.06319e-10
-9.03168e-11
-7.60264e-11
-6.33129e-11
-5.20697e-11
-4.22505e-11
-3.38581e-11
-2.68906e-11
-2.12842e-11
-1.68942e-11
-1.35193e-11
-1.0946e-11
-8.94701e-12
-7.38868e-12
-6.16367e-12
-5.19012e-12
-4.40724e-12
-3.77028e-12
-3.24617e-12
-2.81031e-12
-2.4442e-12
-2.13379e-12
-1.8683e-12
-1.63932e-12
-1.44025e-12
-1.26591e-12
-1.11224e-12
-9.75967e-13
-8.54517e-13
-7.45933e-13
-6.48708e-13
-5.61624e-13
-4.83777e-13
-4.14474e-13
-3.53103e-13
-2.9906e-13
-2.51808e-13
-2.10762e-13
-1.75385e-13
-1.4507e-13
-1.19266e-13
-9.75448e-14
-7.92305e-14
-6.37921e-14
-5.16499e-14
-4.04679e-14
-3.27145e-14
-2.33424e-14
-1.77529e-14
-1.28985e-14
-9.26516e-15
-6.58355e-15
-4.60217e-15
-3.14499e-15
-2.07635e-15
-1.3109e-15
-7.00026e-16
-4.67194e-16
-8.24623e-17
-1.53065e-18
-8.88277e-18
-8.66086e-18
-8.45017e-18
-8.18553e-18
-7.93278e-18
-7.63255e-18
-7.34547e-18
-7.01807e-18
-6.70283e-18
-6.35188e-18
-6.0129e-18
-5.65472e-18
-5.3148e-18
-4.9721e-18
-4.66667e-18
-4.38831e-18
-4.14925e-18
-3.9101e-18
-3.70701e-18
-3.51725e-18
-3.33665e-18
-3.15964e-18
-2.98994e-18
-2.83861e-18
-2.69221e-18
-2.54775e-18
-2.39776e-18
-2.25341e-18
-2.10366e-18
-1.95255e-18
-1.80142e-18
-1.66365e-18
-1.53143e-18
-1.40428e-18
-1.2808e-18
-1.15747e-18
-1.04356e-18
-9.74951e-19
-8.70676e-19
-7.56687e-19
-6.55804e-19
-5.56136e-19
-4.75193e-19
-3.8677e-19
-3.1531e-19
-2.47239e-19
-1.96123e-19
1.81608e-20
5.82343e-20
9.5852e-20
2.57476e-19
2.90244e-19
3.07445e-19
3.23842e-19
3.26726e-19
3.50964e-19
3.5796e-19
3.6663e-19
3.53697e-19
3.55655e-19
3.37261e-19
3.22307e-19
2.9856e-19
2.89724e-19
2.75606e-19
2.62337e-19
2.421e-19
2.25062e-19
2.05241e-19
1.84823e-19
1.60583e-19
1.3144e-19
1.01914e-19
7.18704e-20
4.27495e-20
2.45259e-21
-4.01621e-20
-1.07375e-19
-2.71428e-19
-5.20103e-19
-8.39428e-19
-1.18072e-18
-1.46025e-18
-1.81449e-18
-2.05442e-18
-2.30191e-18
-2.42624e-18
-2.78459e-18
-2.9715e-18
-3.15909e-18
-3.10977e-18
-3.24913e-18
-3.1115e-18
-2.99025e-18
-2.64879e-18
-2.792e-18
-2.65717e-18
-2.52893e-18
-2.00947e-18
-1.72889e-18
-1.07478e-18
-3.87344e-19
4.46274e-19
1.59296e-18
2.62991e-18
3.69057e-18
4.0932e-18
5.91539e-18
5.39498e-18
3.90175e-18
)
;

boundaryField
{
    inandouthalf11
    {
        type            cyclic;
        value           nonuniform List<scalar> 
100
(
-3.42901e-11
-3.41109e-11
-3.40941e-11
-3.41285e-11
-3.41502e-11
-3.41641e-11
-3.41792e-11
-3.41959e-11
-3.42131e-11
-3.42305e-11
-3.42483e-11
-3.42664e-11
-3.42848e-11
-3.43035e-11
-3.43225e-11
-3.43419e-11
-3.43616e-11
-3.43815e-11
-3.44018e-11
-3.44224e-11
-3.44433e-11
-3.44644e-11
-3.44859e-11
-3.45075e-11
-3.45294e-11
-3.45515e-11
-3.45739e-11
-3.45964e-11
-3.46192e-11
-3.4642e-11
-3.46651e-11
-3.46883e-11
-3.47116e-11
-3.47352e-11
-3.47587e-11
-3.47824e-11
-3.48061e-11
-3.48299e-11
-3.48538e-11
-3.48777e-11
-3.49017e-11
-3.49257e-11
-3.49497e-11
-3.49738e-11
-3.49978e-11
-3.50219e-11
-3.5046e-11
-3.507e-11
-3.50941e-11
-3.51182e-11
-3.51422e-11
-3.51663e-11
-3.51903e-11
-3.52144e-11
-3.52384e-11
-3.52626e-11
-3.52866e-11
-3.53108e-11
-3.53349e-11
-3.5359e-11
-3.53832e-11
-3.54074e-11
-3.54317e-11
-3.5456e-11
-3.54804e-11
-3.55049e-11
-3.55294e-11
-3.5554e-11
-3.55787e-11
-3.56034e-11
-3.56283e-11
-3.56534e-11
-3.56784e-11
-3.57036e-11
-3.5729e-11
-3.57545e-11
-3.57801e-11
-3.58059e-11
-3.58318e-11
-3.58579e-11
-3.58841e-11
-3.59106e-11
-3.59372e-11
-3.5964e-11
-3.59911e-11
-3.60183e-11
-3.60458e-11
-3.60734e-11
-3.61014e-11
-3.61295e-11
-3.6158e-11
-3.61866e-11
-3.62156e-11
-3.62449e-11
-3.62744e-11
-3.63043e-11
-3.63345e-11
-3.63651e-11
-3.6396e-11
-3.64273e-11
)
;
    }
    inandouthalf12
    {
        type            cyclic;
        value           nonuniform List<scalar> 
100
(
3.42901e-11
3.41109e-11
3.40941e-11
3.41285e-11
3.41502e-11
3.41641e-11
3.41792e-11
3.41959e-11
3.42131e-11
3.42305e-11
3.42483e-11
3.42664e-11
3.42848e-11
3.43035e-11
3.43225e-11
3.43419e-11
3.43616e-11
3.43815e-11
3.44018e-11
3.44224e-11
3.44433e-11
3.44644e-11
3.44859e-11
3.45075e-11
3.45294e-11
3.45515e-11
3.45739e-11
3.45964e-11
3.46192e-11
3.4642e-11
3.46651e-11
3.46883e-11
3.47116e-11
3.47352e-11
3.47587e-11
3.47824e-11
3.48061e-11
3.48299e-11
3.48538e-11
3.48777e-11
3.49017e-11
3.49257e-11
3.49497e-11
3.49738e-11
3.49978e-11
3.50219e-11
3.5046e-11
3.507e-11
3.50941e-11
3.51182e-11
3.51422e-11
3.51663e-11
3.51903e-11
3.52144e-11
3.52384e-11
3.52626e-11
3.52866e-11
3.53108e-11
3.53349e-11
3.5359e-11
3.53832e-11
3.54074e-11
3.54317e-11
3.5456e-11
3.54804e-11
3.55049e-11
3.55294e-11
3.5554e-11
3.55787e-11
3.56034e-11
3.56283e-11
3.56534e-11
3.56784e-11
3.57036e-11
3.5729e-11
3.57545e-11
3.57801e-11
3.58059e-11
3.58318e-11
3.58579e-11
3.58841e-11
3.59106e-11
3.59372e-11
3.5964e-11
3.59911e-11
3.60183e-11
3.60458e-11
3.60734e-11
3.61014e-11
3.61295e-11
3.6158e-11
3.61866e-11
3.62156e-11
3.62449e-11
3.62744e-11
3.63043e-11
3.63345e-11
3.63651e-11
3.6396e-11
3.64273e-11
)
;
    }
    inandouthalf21
    {
        type            cyclic;
        value           nonuniform List<scalar> 
100
(
-3.6459e-11
-3.6491e-11
-3.65236e-11
-3.65565e-11
-3.659e-11
-3.66239e-11
-3.66584e-11
-3.66934e-11
-3.6729e-11
-3.67652e-11
-3.68021e-11
-3.68397e-11
-3.6878e-11
-3.69171e-11
-3.69571e-11
-3.69979e-11
-3.70396e-11
-3.70823e-11
-3.71259e-11
-3.71705e-11
-3.72162e-11
-3.72629e-11
-3.73107e-11
-3.73596e-11
-3.74098e-11
-3.74614e-11
-3.75147e-11
-3.757e-11
-3.76277e-11
-3.76883e-11
-3.77521e-11
-3.78197e-11
-3.78911e-11
-3.79665e-11
-3.80452e-11
-3.81253e-11
-3.8205e-11
-3.82858e-11
-3.8373e-11
-3.84723e-11
-3.85802e-11
-3.87188e-11
-5.9918e-11
-4.59309e-09
-1.18886e-07
-2.30856e-07
-3.27311e-07
-4.11863e-07
-4.87074e-07
-5.54735e-07
-6.16155e-07
-6.72329e-07
-7.23957e-07
-7.71613e-07
-8.15774e-07
-8.56839e-07
-8.95151e-07
-9.31001e-07
-9.64642e-07
-9.96292e-07
-1.02614e-06
-1.05436e-06
-1.08109e-06
-1.10646e-06
-1.13059e-06
-1.15357e-06
-1.1755e-06
-1.19646e-06
-1.2165e-06
-1.23571e-06
-1.25413e-06
-1.27182e-06
-1.2888e-06
-1.30514e-06
-1.32085e-06
-1.33597e-06
-1.35053e-06
-1.36455e-06
-1.37805e-06
-1.39105e-06
-1.40355e-06
-1.41559e-06
-1.42715e-06
-1.43826e-06
-1.44891e-06
-1.45912e-06
-1.46887e-06
-1.47817e-06
-1.48701e-06
-1.4954e-06
-1.50331e-06
-1.51075e-06
-1.51771e-06
-1.52417e-06
-1.53013e-06
-1.53558e-06
-1.54053e-06
-1.54497e-06
-1.54892e-06
-1.5524e-06
)
;
    }
    inandouthalf22
    {
        type            cyclic;
        value           nonuniform List<scalar> 
100
(
3.6459e-11
3.6491e-11
3.65236e-11
3.65565e-11
3.659e-11
3.66239e-11
3.66584e-11
3.66934e-11
3.6729e-11
3.67652e-11
3.68021e-11
3.68397e-11
3.6878e-11
3.69171e-11
3.69571e-11
3.69979e-11
3.70396e-11
3.70823e-11
3.71259e-11
3.71705e-11
3.72162e-11
3.72629e-11
3.73107e-11
3.73596e-11
3.74098e-11
3.74614e-11
3.75147e-11
3.757e-11
3.76277e-11
3.76883e-11
3.77521e-11
3.78197e-11
3.78911e-11
3.79665e-11
3.80452e-11
3.81253e-11
3.8205e-11
3.82858e-11
3.8373e-11
3.84723e-11
3.85802e-11
3.87188e-11
5.9918e-11
4.59309e-09
1.18886e-07
2.30856e-07
3.27311e-07
4.11863e-07
4.87074e-07
5.54735e-07
6.16155e-07
6.72329e-07
7.23957e-07
7.71613e-07
8.15774e-07
8.56839e-07
8.95151e-07
9.31001e-07
9.64642e-07
9.96292e-07
1.02614e-06
1.05436e-06
1.08109e-06
1.10646e-06
1.13059e-06
1.15357e-06
1.1755e-06
1.19646e-06
1.2165e-06
1.23571e-06
1.25413e-06
1.27182e-06
1.2888e-06
1.30514e-06
1.32085e-06
1.33597e-06
1.35053e-06
1.36455e-06
1.37805e-06
1.39105e-06
1.40355e-06
1.41559e-06
1.42715e-06
1.43826e-06
1.44891e-06
1.45912e-06
1.46887e-06
1.47817e-06
1.48701e-06
1.4954e-06
1.50331e-06
1.51075e-06
1.51771e-06
1.52417e-06
1.53013e-06
1.53558e-06
1.54053e-06
1.54497e-06
1.54892e-06
1.5524e-06
)
;
    }
    inandouthalf31
    {
        type            cyclic;
        value           nonuniform List<scalar> 
110
(
-1.55542e-06
-1.58967e-06
-1.6243e-06
-1.65932e-06
-1.69475e-06
-1.73062e-06
-1.76694e-06
-1.80376e-06
-1.84109e-06
-1.87897e-06
-1.91742e-06
-1.95647e-06
-1.99614e-06
-2.03645e-06
-2.07743e-06
-2.11909e-06
-2.16145e-06
-2.20453e-06
-2.24834e-06
-2.2929e-06
-2.33823e-06
-2.38433e-06
-2.43122e-06
-2.47892e-06
-2.52743e-06
-2.57678e-06
-2.62698e-06
-2.67804e-06
-2.72997e-06
-2.7828e-06
-2.83653e-06
-2.89119e-06
-2.94678e-06
-3.00333e-06
-3.06085e-06
-3.11936e-06
-3.17887e-06
-3.23942e-06
-3.30102e-06
-3.36368e-06
-3.42744e-06
-3.49232e-06
-3.55833e-06
-3.62553e-06
-3.69392e-06
-3.76354e-06
-3.83443e-06
-3.90663e-06
-3.98017e-06
-4.0551e-06
-4.13148e-06
-4.20935e-06
-4.28877e-06
-4.36982e-06
-4.45257e-06
-4.5371e-06
-4.6235e-06
-4.71189e-06
-4.80238e-06
-4.89509e-06
-4.99017e-06
-5.08778e-06
-5.18807e-06
-5.2912e-06
-5.39729e-06
-5.50643e-06
-5.61854e-06
-5.73292e-06
-5.84932e-06
-5.96805e-06
-6.08918e-06
-6.21278e-06
-6.33888e-06
-6.46754e-06
-6.59882e-06
-6.73275e-06
-6.86941e-06
-7.00884e-06
-7.1511e-06
-7.29625e-06
-7.44435e-06
-7.59545e-06
-7.74961e-06
-7.90691e-06
-8.0674e-06
-8.23115e-06
-8.39822e-06
-8.56868e-06
-8.7426e-06
-8.92005e-06
-9.1011e-06
-9.28583e-06
-9.47431e-06
-9.66661e-06
-9.86282e-06
-1.0063e-05
-1.02673e-05
-1.04757e-05
-1.06883e-05
-1.09052e-05
-1.11266e-05
-1.13524e-05
-1.15828e-05
-1.18179e-05
-1.20578e-05
-1.23026e-05
-1.25523e-05
-1.2807e-05
-1.3067e-05
-1.33322e-05
)
;
    }
    inandouthalf32
    {
        type            cyclic;
        value           nonuniform List<scalar> 
110
(
1.55542e-06
1.58967e-06
1.6243e-06
1.65932e-06
1.69475e-06
1.73062e-06
1.76694e-06
1.80376e-06
1.84109e-06
1.87897e-06
1.91742e-06
1.95647e-06
1.99614e-06
2.03645e-06
2.07743e-06
2.11909e-06
2.16145e-06
2.20453e-06
2.24834e-06
2.2929e-06
2.33823e-06
2.38433e-06
2.43122e-06
2.47892e-06
2.52743e-06
2.57678e-06
2.62698e-06
2.67804e-06
2.72997e-06
2.7828e-06
2.83653e-06
2.89119e-06
2.94678e-06
3.00333e-06
3.06085e-06
3.11936e-06
3.17887e-06
3.23942e-06
3.30102e-06
3.36368e-06
3.42744e-06
3.49232e-06
3.55833e-06
3.62553e-06
3.69392e-06
3.76354e-06
3.83443e-06
3.90663e-06
3.98017e-06
4.0551e-06
4.13148e-06
4.20935e-06
4.28877e-06
4.36982e-06
4.45257e-06
4.5371e-06
4.6235e-06
4.71189e-06
4.80238e-06
4.89509e-06
4.99017e-06
5.08778e-06
5.18807e-06
5.2912e-06
5.39729e-06
5.50643e-06
5.61854e-06
5.73292e-06
5.84932e-06
5.96805e-06
6.08918e-06
6.21278e-06
6.33888e-06
6.46754e-06
6.59882e-06
6.73275e-06
6.86941e-06
7.00884e-06
7.1511e-06
7.29625e-06
7.44435e-06
7.59545e-06
7.74961e-06
7.90691e-06
8.0674e-06
8.23115e-06
8.39822e-06
8.56868e-06
8.7426e-06
8.92005e-06
9.1011e-06
9.28583e-06
9.47431e-06
9.66661e-06
9.86282e-06
1.0063e-05
1.02673e-05
1.04757e-05
1.06883e-05
1.09052e-05
1.11266e-05
1.13524e-05
1.15828e-05
1.18179e-05
1.20578e-05
1.23026e-05
1.25523e-05
1.2807e-05
1.3067e-05
1.33322e-05
)
;
    }
    inandouthalf41
    {
        type            cyclic;
        value           nonuniform List<scalar> 
50
(
-1.19337e-05
-1.19337e-05
-1.19337e-05
-1.19337e-05
-1.19337e-05
-1.19337e-05
-1.19337e-05
-1.19337e-05
-1.19337e-05
-1.19337e-05
-1.19337e-05
-1.19337e-05
-1.19337e-05
-1.19337e-05
-1.19337e-05
-1.19337e-05
-1.19337e-05
-1.19337e-05
-1.19337e-05
-1.19337e-05
-1.19337e-05
-1.19337e-05
-1.19337e-05
-1.19337e-05
-1.19337e-05
-1.19337e-05
-1.19337e-05
-1.19337e-05
-1.19337e-05
-1.19337e-05
-1.19337e-05
-1.19337e-05
-1.19337e-05
-1.19337e-05
-1.19337e-05
-1.19337e-05
-1.19337e-05
-1.19337e-05
-1.19337e-05
-1.19337e-05
-1.19337e-05
-1.19337e-05
-1.19337e-05
-1.19337e-05
-1.19337e-05
-1.19337e-05
-1.19337e-05
-1.19337e-05
-1.19337e-05
-1.19337e-05
)
;
    }
    inandouthalf42
    {
        type            cyclic;
        value           nonuniform List<scalar> 
50
(
1.19337e-05
1.19337e-05
1.19337e-05
1.19337e-05
1.19337e-05
1.19337e-05
1.19337e-05
1.19337e-05
1.19337e-05
1.19337e-05
1.19337e-05
1.19337e-05
1.19337e-05
1.19337e-05
1.19337e-05
1.19337e-05
1.19337e-05
1.19337e-05
1.19337e-05
1.19337e-05
1.19337e-05
1.19337e-05
1.19337e-05
1.19337e-05
1.19337e-05
1.19337e-05
1.19337e-05
1.19337e-05
1.19337e-05
1.19337e-05
1.19337e-05
1.19337e-05
1.19337e-05
1.19337e-05
1.19337e-05
1.19337e-05
1.19337e-05
1.19337e-05
1.19337e-05
1.19337e-05
1.19337e-05
1.19337e-05
1.19337e-05
1.19337e-05
1.19337e-05
1.19337e-05
1.19337e-05
1.19337e-05
1.19337e-05
1.19337e-05
)
;
    }
    top
    {
        type            symmetryPlane;
        value           uniform 0;
    }
    walls
    {
        type            fixedValue;
        value           uniform 0;
    }
    frontAndBackPlanes
    {
        type            empty;
        value           nonuniform 0();
    }
}


// ************************************************************************* //
