/*--------------------------------*- C++ -*----------------------------------*\
| =========                 |                                                 |
| \\      /  F ield         | OpenFOAM: The Open Source CFD Toolbox           |
|  \\    /   O peration     | Version:  2.4.x                                 |
|   \\  /    A nd           | Web:      www.OpenFOAM.org                      |
|    \\/     M anipulation  |                                                 |
\*---------------------------------------------------------------------------*/
FoamFile
{
    version     2.0;
    format      ascii;
    class       volVectorField;
    location    "9";
    object      susb;
}
// * * * * * * * * * * * * * * * * * * * * * * * * * * * * * * * * * * * * * //

dimensions      [0 1 -2 0 0 0 0];

internalField   nonuniform List<vector> 
360
(
(0 5.94032e-18 0)
(0 6.62273e-18 0)
(0 3.07663e-20 0)
(0 -9.1552e-19 0)
(-3.69817e-31 -3.94257e-19 0)
(-3.69782e-31 -2.14732e-19 0)
(-3.6974e-31 -2.72047e-19 0)
(0 -3.1127e-19 0)
(-3.69628e-31 -3.18025e-19 0)
(0 -3.22008e-19 0)
(-3.69512e-31 -3.23838e-19 0)
(0 -3.25484e-19 0)
(-3.69395e-31 -3.28496e-19 0)
(0 -3.31579e-19 0)
(0 -3.35589e-19 0)
(0 -3.39633e-19 0)
(0 -3.42828e-19 0)
(-3.69092e-31 -3.45671e-19 0)
(0 -3.49942e-19 0)
(0 -3.52907e-19 0)
(0 -3.55986e-19 0)
(-7.37678e-31 -3.60421e-19 0)
(0 -3.636e-19 0)
(0 -3.6729e-19 0)
(0 -3.71053e-19 0)
(-3.68575e-31 -3.74045e-19 0)
(0 -3.78208e-19 0)
(0 -3.82521e-19 0)
(0 -3.85518e-19 0)
(0 -3.89039e-19 0)
(0 -3.94079e-19 0)
(0 -3.96552e-19 0)
(0 -4.01182e-19 0)
(0 -4.05898e-19 0)
(0 -4.08728e-19 0)
(7.35739e-31 -4.12942e-19 0)
(0 -4.16935e-19 0)
(0 -4.23069e-19 0)
(0 -4.24762e-19 0)
(0 -4.29626e-19 0)
(0 -4.3638e-19 0)
(0 -4.37408e-19 0)
(3.67333e-31 -4.43493e-19 0)
(0 -4.49039e-19 0)
(0 -4.52388e-19 0)
(0 -4.59065e-19 0)
(0 -4.61587e-19 0)
(0 -4.65784e-19 0)
(0 -4.75062e-19 0)
(0 -4.78035e-19 0)
(7.33337e-31 -4.8201e-19 0)
(0 -4.89039e-19 0)
(0 -4.94662e-19 0)
(0 -4.99091e-19 0)
(0 -5.06099e-19 0)
(0 -5.11796e-19 0)
(0 -5.17175e-19 0)
(0 -5.25017e-19 0)
(0 -5.28002e-19 0)
(0 -5.36862e-19 0)
(0 -5.43798e-19 0)
(0 -5.49576e-19 0)
(0 -5.57767e-19 0)
(0 -5.6382e-19 0)
(0 -5.70818e-19 0)
(0 -5.78446e-19 0)
(0 -5.8724e-19 0)
(0 -5.94416e-19 0)
(0 -6.00082e-19 0)
(0 -6.0975e-19 0)
(0 -6.21348e-19 0)
(0 -6.26296e-19 0)
(0 -6.34889e-19 0)
(0 -6.46017e-19 0)
(0 -6.55576e-19 0)
(0 -6.64595e-19 0)
(0 -6.72699e-19 0)
(0 -6.83812e-19 0)
(0 -6.9476e-19 0)
(0 -7.04521e-19 0)
(0 -7.15216e-19 0)
(0 -7.27396e-19 0)
(0 -7.38957e-19 0)
(0 -7.50898e-19 0)
(0 -7.63225e-19 0)
(0 -7.76006e-19 0)
(0 -7.88938e-19 0)
(0 -8.01845e-19 0)
(0 -8.15728e-19 0)
(0 -8.30105e-19 0)
(0 -8.44712e-19 0)
(0 -8.60123e-19 0)
(0 -8.76221e-19 0)
(0 -8.92647e-19 0)
(0 -9.09605e-19 0)
(0 -9.27118e-19 0)
(0 -9.45152e-19 0)
(0 -9.63781e-19 0)
(0 -9.83137e-19 0)
(0 -1.00324e-18 0)
(0 -1.02412e-18 0)
(0 -1.04586e-18 0)
(0 -1.06846e-18 0)
(0 -1.09191e-18 0)
(0 -1.11626e-18 0)
(0 -1.14156e-18 0)
(0 -1.16785e-18 0)
(0 -1.19519e-18 0)
(0 -1.22364e-18 0)
(0 -1.25324e-18 0)
(0 -1.28407e-18 0)
(0 -1.31619e-18 0)
(0 -1.34967e-18 0)
(0 -1.38459e-18 0)
(0 -1.42105e-18 0)
(0 -1.45918e-18 0)
(0 -1.4991e-18 0)
(0 -1.54098e-18 0)
(0 -1.58498e-18 0)
(0 -1.63132e-18 0)
(0 -1.68016e-18 0)
(0 -1.73171e-18 0)
(0 -1.78611e-18 0)
(0 -1.84358e-18 0)
(0 -1.90454e-18 0)
(0 -1.96972e-18 0)
(0 -2.04024e-18 0)
(0 -2.11715e-18 0)
(0 -1.91607e-18 0)
(0 -3.19707e-18 0)
(0 -2.72957e-17 0)
(0 -2.64594e-16 0)
(0 -2.65799e-15 0)
(0 -2.80392e-14 0)
(0 -3.13656e-13 0)
(0 -3.75049e-12 0)
(0 -4.90364e-11 0)
(0 -7.30285e-10 0)
(0 -1.27388e-08 0)
(0 -2.51902e-07 0)
(0 -5.5712e-06 0)
(0 -0.000589295 0)
(0 -0.526191 0)
(0 -4.83566 0)
(0 -5.35491 0)
(0 -2.82844 0)
(0 -1.99329 0)
(0 -1.69045 0)
(0 -1.53517 0)
(0 -1.42915 0)
(0 -1.33912 0)
(0 -1.25828 0)
(0 -1.26342 0)
(0 -1.22352 0)
(0 -1.17234 0)
(0 -1.11647 0)
(0 -1.05803 0)
(0 -0.998073 0)
(0 -0.937421 0)
(0 -0.87681 0)
(0 -0.816933 0)
(0 -0.758393 0)
(0 -0.701697 0)
(0 -0.647252 0)
(0 -0.595379 0)
(0 -0.546254 0)
(0 -0.499996 0)
(0 -0.456676 0)
(0 -0.416259 0)
(0 -0.378681 0)
(0 -0.343845 0)
(0 -0.311628 0)
(0 -0.281899 0)
(0 -0.254514 0)
(0 -0.229329 0)
(0 -0.206204 0)
(0 -0.185004 0)
(0 -0.165598 0)
(0 -0.147862 0)
(0 -0.131682 0)
(0 -0.116947 0)
(0 -0.103558 0)
(0 -0.0914187 0)
(0 -0.080439 0)
(0 -0.070535 0)
(0 -0.0616276 0)
(0 -0.0536412 0)
(0 -0.0465042 0)
(0 -0.040151 0)
(0 -0.0345266 0)
(0 -0.0295894 0)
(0 -0.0253003 0)
(0 -0.021599 0)
(0 -0.0183869 0)
(0 -0.0155424 0)
(0 -0.0129652 0)
(0 -0.0106177 0)
(0 -0.0085249 0)
(0 -0.00673436 0)
(0 -0.00527462 0)
(0 -0.0041321 0)
(0 -0.00325675 0)
(-1.25637e-18 -0.00259375 0)
(0 -0.00209546 0)
(0 -0.00171966 0)
(6.60665e-19 -0.001433 0)
(0 -0.0012109 0)
(-3.44103e-19 -0.00103584 0)
(0 -0.000895452 0)
(3.57618e-19 -0.000781025 0)
(0 -0.000686327 0)
(0 -0.000606826 0)
(0 -0.000539383 0)
(1.88328e-19 -0.000481622 0)
(0 -0.000431543 0)
(0 -0.000387607 0)
(0 -0.000348748 0)
(0 -0.000314015 0)
(0 -0.00028239 0)
(-9.3611e-20 -0.00025324 0)
(0 -0.000226244 0)
(-9.14652e-20 -0.000200923 0)
(0 -0.000177061 0)
(-4.42649e-20 -0.00015468 0)
(0 -0.000133964 0)
(0 -0.000114862 0)
(0 -9.76025e-05 0)
(0 -8.20655e-05 0)
(1.96368e-20 -6.84677e-05 0)
(1.9052e-20 -5.65951e-05 0)
(0 -4.61748e-05 0)
(0 -3.76544e-05 0)
(0 -3.06472e-05 0)
(0 -2.31174e-05 0)
(0 -2.07381e-05 0)
(0 -1.30764e-05 0)
(0 -7.93564e-06 0)
(0 -1.00871e-05 0)
(0 -8.53049e-06 0)
(0 -5.9775e-06 0)
(0 -4.37547e-06 0)
(0 -3.13649e-06 0)
(0 -2.22334e-06 0)
(-6.3915e-22 -1.55535e-06 0)
(3.05851e-22 -1.06698e-06 0)
(0 -7.49229e-07 0)
(0 -4.35377e-07 0)
(-3.74218e-23 -3.73697e-07 0)
(0 -1.85334e-07 0)
(0 -3.54712e-09 0)
(-7.96476e-51 -1.03104e-22 0)
(0 -4.32944e-35 0)
(0 -2.11835e-47 0)
(0 -2.43669e-48 0)
(0 -1.06826e-48 0)
(0 -5.7848e-49 0)
(0 -3.86007e-49 0)
(0 -2.00694e-49 0)
(0 -7.7311e-50 0)
(0 -3.34048e-50 0)
(0 -1.56604e-50 0)
(0 -7.35535e-51 0)
(0 -2.99328e-51 0)
(0 -1.14963e-51 0)
(0 -4.13193e-52 0)
(0 -1.24731e-52 0)
(3.3363e-69 -2.22357e-53 0)
(0 -9.79843e-55 0)
(0 -8.37875e-57 0)
(0 -4.9196e-59 0)
(0 -2.77424e-61 0)
(0 -1.5195e-63 0)
(0 -8.11131e-66 0)
(0 -4.16439e-68 0)
(0 -1.02372e-70 0)
(0 -1.72674e-72 0)
(0 -6.82345e-73 0)
(0 -2.63368e-73 0)
(0 -9.9202e-74 0)
(0 -3.64306e-74 0)
(0 -1.30307e-74 0)
(0 -4.53475e-75 0)
(0 -1.53367e-75 0)
(0 -5.03459e-76 0)
(0 -1.60206e-76 0)
(0 -4.93468e-77 0)
(2.15547e-93 -1.46904e-77 0)
(0 -4.21965e-78 0)
(0 -1.16734e-78 0)
(0 -3.10412e-79 0)
(0 -7.91677e-80 0)
(0 -1.93191e-80 0)
(0 -4.49885e-81 0)
(0 -9.96794e-82 0)
(0 -2.0944e-82 0)
(0 -4.1576e-83 0)
(8.40707e-100 -7.76444e-84 0)
(0 -1.35752e-84 0)
(0 -2.20954e-85 0)
(0 -3.32588e-86 0)
(0 -4.59359e-87 0)
(0 -5.76657e-88 0)
(0 -6.50326e-89 0)
(0 -6.49209e-90 0)
(0 -5.6277e-91 0)
(0 -4.12701e-92 0)
(0 -2.46615e-93 0)
(0 -1.13257e-94 0)
(0 -3.60058e-96 0)
(0 -6.21234e-98 0)
(0 -1.29186e-100 0)
(0 -4.59417e-106 0)
(0 -3.42734e-108 0)
(0 -1.26678e-110 0)
(0 -4.65149e-121 0)
(0 -8.59835e-132 0)
(0 -1.17442e-142 0)
(0 -1.15476e-153 0)
(0 -9.85996e-165 0)
(0 -6.38021e-176 0)
(0 -3.56622e-187 0)
(0 -1.57416e-197 0)
(0 -7.08379e-208 0)
(0 -4.89222e-216 0)
(0 -2.07605e-226 0)
(0 -1.68265e-234 0)
(0 -8.44095e-245 0)
(0 -5.79097e-253 0)
(0 -3.57571e-263 0)
(0 -1.9951e-271 0)
(0 -2.30749e-281 0)
(0 -7.01866e-290 0)
(0 -1.53601e-299 0)
(0 -2.54546e-308 0)
(0 -7.61727e-318 0)
(0 -0 0)
(0 0 0)
(0 0 0)
(0 0 0)
(0 0 0)
(0 0 0)
(0 0 0)
(0 0 0)
(0 0 0)
(0 0 0)
(0 0 0)
(0 0 0)
(0 0 0)
(0 0 0)
(0 0 0)
(0 0 0)
(0 0 0)
(0 0 0)
(0 0 0)
(0 0 0)
(0 0 0)
(0 0 0)
(0 0 0)
(0 0 0)
(0 0 0)
)
;

boundaryField
{
    inandouthalf11
    {
        type            cyclic;
    }
    inandouthalf12
    {
        type            cyclic;
    }
    inandouthalf21
    {
        type            cyclic;
    }
    inandouthalf22
    {
        type            cyclic;
    }
    inandouthalf31
    {
        type            cyclic;
    }
    inandouthalf32
    {
        type            cyclic;
    }
    inandouthalf41
    {
        type            cyclic;
    }
    inandouthalf42
    {
        type            cyclic;
    }
    top
    {
        type            symmetryPlane;
    }
    walls
    {
        type            zeroGradient;
    }
    frontAndBackPlanes
    {
        type            empty;
    }
}


// ************************************************************************* //
