/*--------------------------------*- C++ -*----------------------------------*\
| =========                 |                                                 |
| \\      /  F ield         | OpenFOAM: The Open Source CFD Toolbox           |
|  \\    /   O peration     | Version:  2.4.x                                 |
|   \\  /    A nd           | Web:      www.OpenFOAM.org                      |
|    \\/     M anipulation  |                                                 |
\*---------------------------------------------------------------------------*/
FoamFile
{
    version     2.0;
    format      ascii;
    class       volTensorField;
    location    "9";
    object      Tauf;
}
// * * * * * * * * * * * * * * * * * * * * * * * * * * * * * * * * * * * * * //

dimensions      [0 2 -2 0 0 0 0];

internalField   nonuniform List<tensor> 
360
(
(0 6.8401e-08 0 6.8401e-08 1.34746e-10 0 0 0 0)
(0 -1.95964e-10 0 -1.95964e-10 1.64487e-10 0 0 0 0)
(0 1.76189e-11 0 1.76189e-11 1.73133e-10 0 0 0 0)
(0 5.6098e-11 0 5.6098e-11 1.6893e-10 0 0 0 0)
(-6.46235e-24 3.55449e-11 0 3.55449e-11 1.72578e-10 0 0 0 0)
(-1.29247e-23 2.89864e-11 0 2.89864e-11 1.78071e-10 0 0 0 0)
(-6.46235e-24 3.18475e-11 0 3.18475e-11 1.81904e-10 0 0 0 0)
(0 3.38754e-11 0 3.38754e-11 1.84811e-10 0 0 0 0)
(-6.46235e-24 3.46015e-11 0 3.46015e-11 1.87808e-10 0 0 0 0)
(0 3.52568e-11 0 3.52568e-11 1.91154e-10 0 0 0 0)
(-6.46235e-24 3.58486e-11 0 3.58486e-11 1.94715e-10 0 0 0 0)
(0 3.64397e-11 0 3.64397e-11 1.98313e-10 0 0 0 0)
(-6.46235e-24 3.70836e-11 0 3.70836e-11 2.01861e-10 0 0 0 0)
(0 3.77237e-11 0 3.77237e-11 2.05328e-10 0 0 0 0)
(0 3.83952e-11 0 3.83952e-11 2.08711e-10 0 0 0 0)
(0 3.90607e-11 0 3.90607e-11 2.12005e-10 0 0 0 0)
(0 3.96802e-11 0 3.96802e-11 2.15185e-10 0 0 0 0)
(-6.46235e-24 4.027e-11 0 4.027e-11 2.1821e-10 0 0 0 0)
(0 4.0901e-11 0 4.0901e-11 2.21068e-10 0 0 0 0)
(0 4.1458e-11 0 4.1458e-11 2.23736e-10 0 0 0 0)
(0 4.19973e-11 0 4.19973e-11 2.26196e-10 0 0 0 0)
(-6.46235e-24 4.25704e-11 0 4.25704e-11 2.28455e-10 0 0 0 0)
(0 4.30685e-11 0 4.30685e-11 2.30504e-10 0 0 0 0)
(0 4.35629e-11 0 4.35629e-11 2.32331e-10 0 0 0 0)
(0 4.40341e-11 0 4.40341e-11 2.33931e-10 0 0 0 0)
(-6.46235e-24 4.4446e-11 0 4.4446e-11 2.3529e-10 0 0 0 0)
(0 4.48791e-11 0 4.48791e-11 2.36415e-10 0 0 0 0)
(0 4.52919e-11 0 4.52919e-11 2.37316e-10 0 0 0 0)
(0 4.56218e-11 0 4.56218e-11 2.37976e-10 0 0 0 0)
(0 4.59438e-11 0 4.59438e-11 2.38385e-10 0 0 0 0)
(0 4.63003e-11 0 4.63003e-11 2.38568e-10 0 0 0 0)
(0 4.65216e-11 0 4.65216e-11 2.38507e-10 0 0 0 0)
(0 4.68041e-11 0 4.68041e-11 2.38218e-10 0 0 0 0)
(0 4.70634e-11 0 4.70634e-11 2.37717e-10 0 0 0 0)
(0 4.72161e-11 0 4.72161e-11 2.36985e-10 0 0 0 0)
(6.46235e-24 4.73976e-11 0 4.73976e-11 2.36032e-10 0 0 0 0)
(0 4.75447e-11 0 4.75447e-11 2.34871e-10 0 0 0 0)
(0 4.7758e-11 0 4.7758e-11 2.3355e-10 0 0 0 0)
(0 4.77624e-11 0 4.77624e-11 2.32029e-10 0 0 0 0)
(0 4.78749e-11 0 4.78749e-11 2.30325e-10 0 0 0 0)
(0 4.8047e-11 0 4.8047e-11 2.28498e-10 0 0 0 0)
(0 4.79602e-11 0 4.79602e-11 2.26494e-10 0 0 0 0)
(6.46235e-24 4.80652e-11 0 4.80652e-11 2.24363e-10 0 0 0 0)
(0 4.81343e-11 0 4.81343e-11 2.22142e-10 0 0 0 0)
(0 4.80991e-11 0 4.80991e-11 2.19812e-10 0 0 0 0)
(0 4.81896e-11 0 4.81896e-11 2.17413e-10 0 0 0 0)
(0 4.80929e-11 0 4.80929e-11 2.14908e-10 0 0 0 0)
(0 4.80547e-11 0 4.80547e-11 2.12313e-10 0 0 0 0)
(0 4.8226e-11 0 4.8226e-11 2.09732e-10 0 0 0 0)
(0 4.81315e-11 0 4.81315e-11 2.07122e-10 0 0 0 0)
(1.29247e-23 4.80721e-11 0 4.80721e-11 2.04471e-10 0 0 0 0)
(0 4.81372e-11 0 4.81372e-11 2.01814e-10 0 0 0 0)
(0 4.81435e-11 0 4.81435e-11 1.99164e-10 0 0 0 0)
(0 4.80998e-11 0 4.80998e-11 1.96511e-10 0 0 0 0)
(0 4.81656e-11 0 4.81656e-11 1.93888e-10 0 0 0 0)
(0 4.81792e-11 0 4.81792e-11 1.91289e-10 0 0 0 0)
(0 4.81817e-11 0 4.81817e-11 1.88703e-10 0 0 0 0)
(0 4.82898e-11 0 4.82898e-11 1.86166e-10 0 0 0 0)
(0 4.81956e-11 0 4.81956e-11 1.83614e-10 0 0 0 0)
(0 4.83529e-11 0 4.83529e-11 1.81127e-10 0 0 0 0)
(0 4.84387e-11 0 4.84387e-11 1.78702e-10 0 0 0 0)
(0 4.84842e-11 0 4.84842e-11 1.76331e-10 0 0 0 0)
(0 4.86386e-11 0 4.86386e-11 1.74031e-10 0 0 0 0)
(0 4.87086e-11 0 4.87086e-11 1.71763e-10 0 0 0 0)
(0 4.88222e-11 0 4.88222e-11 1.69529e-10 0 0 0 0)
(0 4.89676e-11 0 4.89676e-11 1.67327e-10 0 0 0 0)
(0 4.91685e-11 0 4.91685e-11 1.65174e-10 0 0 0 0)
(0 4.9305e-11 0 4.9305e-11 1.63051e-10 0 0 0 0)
(0 4.93791e-11 0 4.93791e-11 1.60926e-10 0 0 0 0)
(0 4.9628e-11 0 4.9628e-11 1.58842e-10 0 0 0 0)
(0 4.99693e-11 0 4.99693e-11 1.56848e-10 0 0 0 0)
(0 5.00356e-11 0 5.00356e-11 1.54862e-10 0 0 0 0)
(0 5.02591e-11 0 5.02591e-11 1.52908e-10 0 0 0 0)
(0 5.05969e-11 0 5.05969e-11 1.51001e-10 0 0 0 0)
(0 5.08761e-11 0 5.08761e-11 1.49128e-10 0 0 0 0)
(0 5.11352e-11 0 5.11352e-11 1.47277e-10 0 0 0 0)
(0 5.13542e-11 0 5.13542e-11 1.45401e-10 0 0 0 0)
(0 5.17003e-11 0 5.17003e-11 1.43524e-10 0 0 0 0)
(0 5.20412e-11 0 5.20412e-11 1.41649e-10 0 0 0 0)
(0 5.23331e-11 0 5.23331e-11 1.39769e-10 0 0 0 0)
(0 5.26664e-11 0 5.26664e-11 1.37892e-10 0 0 0 0)
(0 5.30669e-11 0 5.30669e-11 1.36036e-10 0 0 0 0)
(0 5.34464e-11 0 5.34464e-11 1.34195e-10 0 0 0 0)
(0 5.38466e-11 0 5.38466e-11 1.32374e-10 0 0 0 0)
(0 5.42667e-11 0 5.42667e-11 1.30561e-10 0 0 0 0)
(0 5.47081e-11 0 5.47081e-11 1.28746e-10 0 0 0 0)
(0 5.51557e-11 0 5.51557e-11 1.26917e-10 0 0 0 0)
(0 5.56003e-11 0 5.56003e-11 1.25058e-10 0 0 0 0)
(0 5.60842e-11 0 5.60842e-11 1.23171e-10 0 0 0 0)
(0 5.65876e-11 0 5.65876e-11 1.21258e-10 0 0 0 0)
(0 5.71002e-11 0 5.71002e-11 1.19322e-10 0 0 0 0)
(0 5.76482e-11 0 5.76482e-11 1.17374e-10 0 0 0 0)
(0 5.82282e-11 0 5.82282e-11 1.15422e-10 0 0 0 0)
(0 5.88254e-11 0 5.88254e-11 1.13467e-10 0 0 0 0)
(0 5.94484e-11 0 5.94484e-11 1.11509e-10 0 0 0 0)
(0 6.00977e-11 0 6.00977e-11 1.09542e-10 0 0 0 0)
(0 6.07709e-11 0 6.07709e-11 1.07561e-10 0 0 0 0)
(0 6.14703e-11 0 6.14703e-11 1.05557e-10 0 0 0 0)
(0 6.22014e-11 0 6.22014e-11 1.0353e-10 0 0 0 0)
(0 6.29655e-11 0 6.29655e-11 1.01479e-10 0 0 0 0)
(0 6.37642e-11 0 6.37642e-11 9.94051e-11 0 0 0 0)
(0 6.46026e-11 0 6.46026e-11 9.73155e-11 0 0 0 0)
(0 6.54826e-11 0 6.54826e-11 9.52163e-11 0 0 0 0)
(0 6.64056e-11 0 6.64056e-11 9.31155e-11 0 0 0 0)
(0 6.73759e-11 0 6.73759e-11 9.1022e-11 0 0 0 0)
(0 6.83983e-11 0 6.83983e-11 8.89454e-11 0 0 0 0)
(0 6.94773e-11 0 6.94773e-11 8.68965e-11 0 0 0 0)
(0 7.0619e-11 0 7.0619e-11 8.48864e-11 0 0 0 0)
(0 7.18292e-11 0 7.18292e-11 8.29254e-11 0 0 0 0)
(0 7.31133e-11 0 7.31133e-11 8.10214e-11 0 0 0 0)
(0 7.44762e-11 0 7.44762e-11 7.91775e-11 0 0 0 0)
(0 7.59218e-11 0 7.59218e-11 7.73893e-11 0 0 0 0)
(0 7.74524e-11 0 7.74524e-11 7.56425e-11 0 0 0 0)
(0 7.90681e-11 0 7.90681e-11 7.39103e-11 0 0 0 0)
(0 8.07664e-11 0 8.07664e-11 7.21525e-11 0 0 0 0)
(0 8.25418e-11 0 8.25418e-11 7.03153e-11 0 0 0 0)
(0 8.43867e-11 0 8.43867e-11 6.83355e-11 0 0 0 0)
(0 8.62925e-11 0 8.62925e-11 6.61465e-11 0 0 0 0)
(0 8.82518e-11 0 8.82518e-11 6.36895e-11 0 0 0 0)
(0 9.02619e-11 0 9.02619e-11 6.09285e-11 0 0 0 0)
(0 9.23284e-11 0 9.23284e-11 5.7866e-11 0 0 0 0)
(0 9.44703e-11 0 9.44703e-11 5.45584e-11 0 0 0 0)
(0 9.67242e-11 0 9.67242e-11 5.11257e-11 0 0 0 0)
(0 9.9151e-11 0 9.9151e-11 4.77529e-11 0 0 0 0)
(0 1.01843e-10 0 1.01843e-10 4.46817e-11 0 0 0 0)
(0 1.04931e-10 0 1.04931e-10 4.21932e-11 0 0 0 0)
(0 1.08581e-10 0 1.08581e-10 4.0584e-11 0 0 0 0)
(0 1.12973e-10 0 1.12973e-10 4.01312e-11 0 0 0 0)
(0 1.18245e-10 0 1.18245e-10 4.10263e-11 0 0 0 0)
(0 1.24422e-10 0 1.24422e-10 4.32398e-11 0 0 0 0)
(0 1.31394e-10 0 1.31394e-10 4.62757e-11 0 0 0 0)
(0 1.38978e-10 0 1.38978e-10 4.88775e-11 0 0 0 0)
(0 1.46879e-10 0 1.46879e-10 4.89295e-11 0 0 0 0)
(0 1.54127e-10 0 1.54127e-10 4.39665e-11 0 0 0 0)
(0 1.5878e-10 0 1.5878e-10 3.25419e-11 0 0 0 0)
(0 1.59812e-10 0 1.59812e-10 1.59797e-11 0 0 0 0)
(0 1.60498e-10 0 1.60498e-10 -1.39955e-12 0 0 0 0)
(0 1.67948e-10 0 1.67948e-10 -1.65771e-11 0 0 0 0)
(0 1.86511e-10 0 1.86511e-10 3.89319e-10 0 0 0 0)
(0 2.07203e-10 0 2.07203e-10 -5.56333e-09 0 0 0 0)
(0 2.4677e-10 0 2.4677e-10 2.34406e-08 0 0 0 0)
(0 2.18986e-08 0 2.18986e-08 -9.72908e-08 0 0 0 0)
(0 7.20848e-06 0 7.20848e-06 -8.97734e-07 0 0 0 0)
(0 0.000803851 0 0.000803851 -5.60285e-06 0 0 0 0)
(0 0.00435505 0 0.00435505 -8.3202e-06 0 0 0 0)
(0 0.00643408 0 0.00643408 -2.67098e-06 0 0 0 0)
(0 0.00740352 0 0.00740352 -2.63967e-06 0 0 0 0)
(0 0.00797826 0 0.00797826 -1.80725e-06 0 0 0 0)
(0 0.00832326 0 0.00832326 -5.80357e-07 0 0 0 0)
(0 0.00851908 0 0.00851908 8.21568e-07 0 0 0 0)
(0 0.00861224 0 0.00861224 2.09309e-06 0 0 0 0)
(0 0.00862638 0 0.00862638 3.65991e-06 0 0 0 0)
(0 0.00857965 0 0.00857965 5.20497e-06 0 0 0 0)
(0 0.00849156 0 0.00849156 6.10204e-06 0 0 0 0)
(0 0.00837314 0 0.00837314 6.88908e-06 0 0 0 0)
(0 0.00823266 0 0.00823266 7.54554e-06 0 0 0 0)
(0 0.0080762 0 0.0080762 8.05076e-06 0 0 0 0)
(0 0.00790831 0 0.00790831 8.41379e-06 0 0 0 0)
(0 0.0077324 0 0.0077324 8.6551e-06 0 0 0 0)
(0 0.00755101 0 0.00755101 8.79632e-06 0 0 0 0)
(0 0.00736598 0 0.00736598 8.85801e-06 0 0 0 0)
(0 0.00717865 0 0.00717865 8.85894e-06 0 0 0 0)
(0 0.00698998 0 0.00698998 8.81545e-06 0 0 0 0)
(0 0.0068006 0 0.0068006 8.74073e-06 0 0 0 0)
(0 0.00661093 0 0.00661093 8.64451e-06 0 0 0 0)
(0 0.00642125 0 0.00642125 8.53296e-06 0 0 0 0)
(0 0.00623168 0 0.00623168 8.40983e-06 0 0 0 0)
(0 0.00604232 0 0.00604232 8.27747e-06 0 0 0 0)
(0 0.00585317 0 0.00585317 8.13602e-06 0 0 0 0)
(0 0.00566425 0 0.00566425 7.98416e-06 0 0 0 0)
(0 0.00547554 0 0.00547554 7.8203e-06 0 0 0 0)
(0 0.00528704 0 0.00528704 7.64256e-06 0 0 0 0)
(0 0.00509875 0 0.00509875 7.4491e-06 0 0 0 0)
(0 0.00491068 0 0.00491068 7.23831e-06 0 0 0 0)
(0 0.00472289 0 0.00472289 7.00903e-06 0 0 0 0)
(0 0.00453543 0 0.00453543 6.7606e-06 0 0 0 0)
(0 0.00434838 0 0.00434838 6.49297e-06 0 0 0 0)
(0 0.00416185 0 0.00416185 6.20673e-06 0 0 0 0)
(0 0.00397597 0 0.00397597 5.90306e-06 0 0 0 0)
(0 0.0037909 0 0.0037909 5.58377e-06 0 0 0 0)
(0 0.00360682 0 0.00360682 5.2512e-06 0 0 0 0)
(0 0.00342392 0 0.00342392 4.90825e-06 0 0 0 0)
(0 0.00324244 0 0.00324244 4.55821e-06 0 0 0 0)
(0 0.00306262 0 0.00306262 4.20477e-06 0 0 0 0)
(0 0.00288475 0 0.00288475 3.85186e-06 0 0 0 0)
(0 0.00270913 0 0.00270913 3.50348e-06 0 0 0 0)
(0 0.0025361 0 0.0025361 3.16348e-06 0 0 0 0)
(0 0.00236604 0 0.00236604 2.83538e-06 0 0 0 0)
(0 0.00219935 0 0.00219935 2.52255e-06 0 0 0 0)
(0 0.00203649 0 0.00203649 2.2286e-06 0 0 0 0)
(0 0.00187793 0 0.00187793 1.95756e-06 0 0 0 0)
(0 0.0017242 0 0.0017242 1.71264e-06 0 0 0 0)
(0 0.00157584 0 0.00157584 1.49398e-06 0 0 0 0)
(0 0.00143339 0 0.00143339 1.29724e-06 0 0 0 0)
(0 0.00129741 0 0.00129741 1.11512e-06 0 0 0 0)
(0 0.00116841 0 0.00116841 9.41709e-07 0 0 0 0)
(0 0.00104685 0 0.00104685 7.76315e-07 0 0 0 0)
(0 0.000933101 0 0.000933101 6.23554e-07 0 0 0 0)
(0 0.000827394 0 0.000827394 4.89903e-07 0 0 0 0)
(0 0.000729801 0 0.000729801 3.79719e-07 0 0 0 0)
(0 0.00064021 0 0.00064021 2.93397e-07 0 0 0 0)
(0 0.000557611 0 0.000557611 2.27674e-07 0 0 0 0)
(-4.84696e-17 0.000481031 0 0.000481031 1.78254e-07 0 0 0 0)
(0 0.000410316 0 0.000410316 1.41479e-07 0 0 0 0)
(0 0.000345174 0 0.000345174 1.14035e-07 0 0 0 0)
(2.52675e-17 0.000285221 0 0.000285221 9.3324e-08 0 0 0 0)
(0 0.000230022 0 0.000230022 7.74515e-08 0 0 0 0)
(-5.2627e-17 0.000179122 0 0.000179122 6.50832e-08 0 0 0 0)
(0 0.000132075 0 0.000132075 5.52869e-08 0 0 0 0)
(2.7433e-17 8.84635e-05 0 8.84635e-05 4.74087e-08 0 0 0 0)
(0 4.79091e-05 0 4.79091e-05 4.0984e-08 0 0 0 0)
(0 1.00791e-05 0 1.00791e-05 3.56803e-08 0 0 0 0)
(0 -2.53134e-05 0 -2.53134e-05 3.12584e-08 0 0 0 0)
(5.85998e-17 -5.85108e-05 0 -5.85108e-05 2.75394e-08 0 0 0 0)
(0 -8.97147e-05 0 -8.97147e-05 2.43824e-08 0 0 0 0)
(0 -0.00011909 0 -0.00011909 2.16772e-08 0 0 0 0)
(0 -0.000146771 0 -0.000146771 1.93393e-08 0 0 0 0)
(0 -0.000172863 0 -0.000172863 1.72971e-08 0 0 0 0)
(0 -0.000197451 0 -0.000197451 1.54865e-08 0 0 0 0)
(0 -0.000220598 0 -0.000220598 1.38582e-08 0 0 0 0)
(0 -0.000242353 0 -0.000242353 1.23761e-08 0 0 0 0)
(-5.99107e-17 -0.000262752 0 -0.000262752 1.10098e-08 0 0 0 0)
(0 -0.000281818 0 -0.000281818 9.73822e-09 0 0 0 0)
(-5.90246e-17 -0.000299569 0 -0.000299569 8.55387e-09 0 0 0 0)
(0 -0.000316013 0 -0.000316013 7.45636e-09 0 0 0 0)
(0 -0.000331153 0 -0.000331153 6.44657e-09 0 0 0 0)
(0 -0.000344988 0 -0.000344988 5.5262e-09 0 0 0 0)
(0 -0.000357514 0 -0.000357514 4.69733e-09 0 0 0 0)
(5.53324e-17 -0.000368723 0 -0.000368723 3.96062e-09 0 0 0 0)
(5.43933e-17 -0.000378606 0 -0.000378606 3.31069e-09 0 0 0 0)
(0 -0.000387152 0 -0.000387152 2.7455e-09 0 0 0 0)
(0 -0.000394349 0 -0.000394349 2.26521e-09 0 0 0 0)
(0 -0.000400184 0 -0.000400184 1.84317e-09 0 0 0 0)
(0 -0.000404645 0 -0.000404645 1.49083e-09 0 0 0 0)
(0 -0.000407719 0 -0.000407719 1.20411e-09 0 0 0 0)
(0 -0.000409394 0 -0.000409394 1.01021e-09 0 0 0 0)
(0 -0.000409658 0 -0.000409658 8.84415e-10 0 0 0 0)
(0 -0.000408501 0 -0.000408501 6.80521e-10 0 0 0 0)
(0 -0.000405915 0 -0.000405915 4.82693e-10 0 0 0 0)
(0 -0.000401892 0 -0.000401892 3.63205e-10 0 0 0 0)
(0 -0.000396428 0 -0.000396428 2.62266e-10 0 0 0 0)
(0 -0.000389523 0 -0.000389523 1.85992e-10 0 0 0 0)
(0 -0.000381181 0 -0.000381181 1.31523e-10 0 0 0 0)
(-7.37066e-17 -0.000371411 0 -0.000371411 9.27107e-11 0 0 0 0)
(3.53673e-17 -0.000360227 0 -0.000360227 6.58414e-11 0 0 0 0)
(0 -0.000347653 0 -0.000347653 4.26867e-11 0 0 0 0)
(0 -0.000333718 0 -0.000333718 2.64848e-11 0 0 0 0)
(-6.15461e-17 -0.000318465 0 -0.000318465 2.03908e-11 0 0 0 0)
(0 -0.000301946 0 -0.000301946 9.25603e-12 0 0 0 0)
(0 -0.000284232 0 -0.000284232 -4.41037e-13 0 0 0 0)
(-5.20124e-17 -0.000265406 0 -0.000265406 -7.75558e-13 0 0 0 0)
(0 -0.000245574 0 -0.000245574 -1.1036e-14 0 0 0 0)
(0 -0.000224865 0 -0.000224865 6.52494e-14 0 0 0 0)
(0 -0.000203435 0 -0.000203435 2.09928e-14 0 0 0 0)
(0 -0.000181471 0 -0.000181471 1.03857e-14 0 0 0 0)
(0 -0.000159198 0 -0.000159198 1.48195e-14 0 0 0 0)
(0 -0.00013688 0 -0.00013688 1.4679e-14 0 0 0 0)
(0 -0.000114829 0 -0.000114829 -1.6712e-14 0 0 0 0)
(0 -9.34061e-05 0 -9.34061e-05 -1.05525e-13 0 0 0 0)
(0 -7.30265e-05 0 -7.30265e-05 6.65502e-13 0 0 0 0)
(0 -5.41574e-05 0 -5.41574e-05 -1.4432e-12 0 0 0 0)
(0 -3.73099e-05 0 -3.73099e-05 2.19993e-12 0 0 0 0)
(0 -2.30197e-05 0 -2.30197e-05 -2.66965e-12 0 0 0 0)
(0 -1.18075e-05 0 -1.18075e-05 2.77768e-12 0 0 0 0)
(0 -4.10543e-06 0 -4.10543e-06 -2.4471e-12 0 0 0 0)
(0 -1.17608e-07 0 -1.17608e-07 1.74215e-12 0 0 0 0)
(1.78628e-18 3.78567e-07 0 3.78567e-07 -7.46492e-13 0 0 0 0)
(0 4.20166e-08 0 4.20166e-08 1.58021e-13 0 0 0 0)
(0 2.5268e-09 0 2.5268e-09 -9.63019e-14 0 0 0 0)
(0 5.69509e-11 0 5.69509e-11 9.36479e-14 0 0 0 0)
(0 4.10289e-12 0 4.10289e-12 -9.1799e-14 0 0 0 0)
(0 2.38895e-12 0 2.38895e-12 9.0217e-14 0 0 0 0)
(0 1.69808e-12 0 1.69808e-12 -8.85598e-14 0 0 0 0)
(0 1.20457e-12 0 1.20457e-12 8.71219e-14 0 0 0 0)
(0 8.48556e-13 0 8.48556e-13 -8.56117e-14 0 0 0 0)
(0 5.93522e-13 0 5.93522e-13 8.42868e-14 0 0 0 0)
(0 4.12348e-13 0 4.12348e-13 -8.28755e-14 0 0 0 0)
(0 2.84324e-13 0 2.84324e-13 8.16286e-14 0 0 0 0)
(0 1.94387e-13 0 1.94387e-13 -8.02849e-14 0 0 0 0)
(0 1.31872e-13 0 1.31872e-13 7.90916e-14 0 0 0 0)
(0 8.89316e-14 0 8.89316e-14 -7.77959e-14 0 0 0 0)
(0 5.95232e-14 0 5.95232e-14 7.6626e-14 0 0 0 0)
(0 3.93608e-14 0 3.93608e-14 -7.53628e-14 0 0 0 0)
(0 2.59294e-14 0 2.59294e-14 7.42041e-14 0 0 0 0)
(0 1.6886e-14 0 1.6886e-14 -7.29542e-14 0 0 0 0)
(0 1.0888e-14 0 1.0888e-14 7.17938e-14 0 0 0 0)
(0 6.99271e-15 0 6.99271e-15 -7.0556e-14 0 0 0 0)
(0 4.39531e-15 0 4.39531e-15 6.9378e-14 0 0 0 0)
(0 2.74541e-15 0 2.74541e-15 -6.81251e-14 0 0 0 0)
(0 1.66942e-15 0 1.66942e-15 6.69387e-14 0 0 0 0)
(0 1.04458e-15 0 1.04458e-15 -6.56748e-14 0 0 0 0)
(0 7.12398e-16 0 7.12398e-16 6.44642e-14 0 0 0 0)
(0 4.35632e-16 0 4.35632e-16 -6.31867e-14 0 0 0 0)
(0 2.10902e-16 0 2.10902e-16 6.19504e-14 0 0 0 0)
(0 1.45918e-16 0 1.45918e-16 -6.06563e-14 0 0 0 0)
(0 4.63323e-17 0 4.63323e-17 5.93904e-14 0 0 0 0)
(2.46128e-19 4.92255e-18 0 4.92255e-18 -5.80531e-14 0 0 0 0)
(0 3.19632e-17 0 3.19632e-17 5.67784e-14 0 0 0 0)
(0 2.09834e-17 0 2.09834e-17 -5.54459e-14 0 0 0 0)
(-2.31729e-19 -2.65909e-17 0 -2.65909e-17 5.41397e-14 0 0 0 0)
(0 6.67162e-17 0 6.67162e-17 -5.27652e-14 0 0 0 0)
(0 3.70074e-17 0 3.70074e-17 5.14073e-14 0 0 0 0)
(0 -5.90157e-17 0 -5.90157e-17 -5.00238e-14 0 0 0 0)
(0 4.2018e-17 0 4.2018e-17 4.86318e-14 0 0 0 0)
(0 -4.50594e-17 0 -4.50594e-17 -4.72176e-14 0 0 0 0)
(0 -6.44471e-17 0 -6.44471e-17 4.57935e-14 0 0 0 0)
(0 7.20736e-17 0 7.20736e-17 -4.43457e-14 0 0 0 0)
(0 9.85109e-17 0 9.85109e-17 4.28804e-14 0 0 0 0)
(0 -1.17486e-17 0 -1.17486e-17 -4.13964e-14 0 0 0 0)
(0 -1.26474e-16 0 -1.26474e-16 3.99222e-14 0 0 0 0)
(0 -1.11702e-16 0 -1.11702e-16 -4.39731e-14 0 0 0 0)
(0 -5.01338e-17 0 -5.01338e-17 4.3459e-14 0 0 0 0)
(0 4.70633e-17 0 4.70633e-17 -4.29836e-14 0 0 0 0)
(0 1.92171e-17 0 1.92171e-17 4.24978e-14 0 0 0 0)
(0 1.74701e-17 0 1.74701e-17 -4.20142e-14 0 0 0 0)
(0 4.73809e-17 0 4.73809e-17 4.1519e-14 0 0 0 0)
(0 -1.20173e-17 0 -1.20173e-17 -4.10283e-14 0 0 0 0)
(0 -1.47172e-17 0 -1.47172e-17 4.0524e-14 0 0 0 0)
(0 9.58206e-18 0 9.58206e-18 -4.00248e-14 0 0 0 0)
(0 -8.71915e-17 0 -8.71915e-17 3.95092e-14 0 0 0 0)
(0 -5.05043e-17 0 -5.05043e-17 -3.90013e-14 0 0 0 0)
(0 7.68682e-17 0 7.68682e-17 3.84746e-14 0 0 0 0)
(0 4.62692e-17 0 4.62692e-17 -3.79563e-14 0 0 0 0)
(0 -1.2229e-17 0 -1.2229e-17 3.74165e-14 0 0 0 0)
(0 3.07049e-18 0 3.07049e-18 -3.68871e-14 0 0 0 0)
(0 -7.57036e-18 0 -7.57036e-18 3.63329e-14 0 0 0 0)
(0 -4.8175e-18 0 -4.8175e-18 -3.57985e-14 0 0 0 0)
(0 3.11285e-17 0 3.11285e-17 3.52033e-14 0 0 0 0)
(0 -1.8423e-17 0 -1.8423e-17 -3.46894e-14 0 0 0 0)
(0 -2.0117e-18 0 -2.0117e-18 3.40546e-14 0 0 0 0)
(0 5.55865e-18 0 5.55865e-18 -3.35524e-14 0 0 0 0)
(0 -3.39343e-17 0 -3.39343e-17 3.28822e-14 0 0 0 0)
(0 -1.82641e-17 0 -1.82641e-17 -3.23602e-14 0 0 0 0)
(0 4.04988e-17 0 4.04988e-17 3.16779e-14 0 0 0 0)
(0 9.47618e-18 0 9.47618e-18 -3.11161e-14 0 0 0 0)
(0 1.45584e-17 0 1.45584e-17 3.04262e-14 0 0 0 0)
(0 1.82641e-17 0 1.82641e-17 -2.98375e-14 0 0 0 0)
(0 -2.31346e-17 0 -2.31346e-17 2.91168e-14 0 0 0 0)
(0 -5.73865e-17 0 -5.73865e-17 -2.84847e-14 0 0 0 0)
(0 -1.50507e-16 0 -1.50507e-16 2.77672e-14 0 0 0 0)
(0 -3.68406e-16 0 -3.68406e-16 -2.70656e-14 0 0 0 0)
(0 -2.56757e-17 0 -2.56757e-17 2.63405e-14 0 0 0 0)
(0 3.66236e-16 0 3.66236e-16 -2.55577e-14 0 0 0 0)
(0 1.72318e-16 0 1.72318e-16 2.48237e-14 0 0 0 0)
(0 3.89635e-17 0 3.89635e-17 -2.39989e-14 0 0 0 0)
(0 1.24408e-17 0 1.24408e-17 2.31904e-14 0 0 0 0)
(0 4.75397e-17 0 4.75397e-17 -2.22978e-14 0 0 0 0)
(0 2.04347e-17 0 2.04347e-17 2.148e-14 0 0 0 0)
(0 -2.65227e-17 0 -2.65227e-17 -2.04515e-14 0 0 0 0)
(0 -9.27501e-17 0 -9.27501e-17 1.96052e-14 0 0 0 0)
(0 1.18585e-17 0 1.18585e-17 -1.84205e-14 0 0 0 0)
(0 1.43307e-16 0 1.43307e-16 1.75338e-14 0 0 0 0)
(0 8.16857e-17 0 8.16857e-17 -1.61407e-14 0 0 0 0)
(0 -3.63695e-17 0 -3.63695e-17 1.51701e-14 0 0 0 0)
(0 -7.41683e-17 0 -7.41683e-17 -1.35724e-14 0 0 0 0)
(0 -7.69212e-17 0 -7.69212e-17 1.2285e-14 0 0 0 0)
(0 -4.84397e-17 0 -4.84397e-17 -1.03153e-14 0 0 0 0)
(0 3.48342e-17 0 3.48342e-17 8.30434e-15 0 0 0 0)
(0 -6.46921e-17 0 -6.46921e-17 -5.9641e-15 0 0 0 0)
(0 -9.545e-17 0 -9.545e-17 1.73467e-15 0 0 0 0)
)
;

boundaryField
{
    inandouthalf11
    {
        type            cyclic;
    }
    inandouthalf12
    {
        type            cyclic;
    }
    inandouthalf21
    {
        type            cyclic;
    }
    inandouthalf22
    {
        type            cyclic;
    }
    inandouthalf31
    {
        type            cyclic;
    }
    inandouthalf32
    {
        type            cyclic;
    }
    inandouthalf41
    {
        type            cyclic;
    }
    inandouthalf42
    {
        type            cyclic;
    }
    top
    {
        type            symmetryPlane;
    }
    walls
    {
        type            zeroGradient;
    }
    frontAndBackPlanes
    {
        type            empty;
    }
}


// ************************************************************************* //
