/*--------------------------------*- C++ -*----------------------------------*\
| =========                 |                                                 |
| \\      /  F ield         | OpenFOAM: The Open Source CFD Toolbox           |
|  \\    /   O peration     | Version:  2.4.x                                 |
|   \\  /    A nd           | Web:      www.OpenFOAM.org                      |
|    \\/     M anipulation  |                                                 |
\*---------------------------------------------------------------------------*/
FoamFile
{
    version     2.0;
    format      ascii;
    class       volTensorField;
    location    "9";
    object      Taus;
}
// * * * * * * * * * * * * * * * * * * * * * * * * * * * * * * * * * * * * * //

dimensions      [0 2 -2 0 0 0 0];

internalField   nonuniform List<tensor> 
360
(
(0 0.0264024 0 0.0264024 -0.204349 0 0 0 0)
(0 0.0388565 0 0.0388565 -0.257859 0 0 0 0)
(0 0.0469336 0 0.0469336 -0.261287 0 0 0 0)
(0 0.045573 0 0.045573 -0.254884 0 0 0 0)
(-2.90393e-17 0.0443622 0 0.0443622 -0.252152 0 0 0 0)
(-1.39211e-17 0.0443833 0 0.0443833 -0.251064 0 0 0 0)
(-2.7235e-17 0.0445044 0 0.0445044 -0.249673 0 0 0 0)
(0 0.0444536 0 0.0444536 -0.247998 0 0 0 0)
(-2.60641e-17 0.0443456 0 0.0443456 -0.246313 0 0 0 0)
(0 0.0442269 0 0.0442269 -0.244623 0 0 0 0)
(-2.47703e-17 0.0441036 0 0.0441036 -0.242926 0 0 0 0)
(0 0.0439823 0 0.0439823 -0.241242 0 0 0 0)
(-9.41974e-17 0.0438584 0 0.0438584 -0.239552 0 0 0 0)
(0 0.0437313 0 0.0437313 -0.237862 0 0 0 0)
(0 0.0435991 0 0.0435991 -0.236169 0 0 0 0)
(0 0.0434604 0 0.0434604 -0.234468 0 0 0 0)
(0 0.0433168 0 0.0433168 -0.232764 0 0 0 0)
(-4.19803e-17 0.0431708 0 0.0431708 -0.23106 0 0 0 0)
(0 0.0430212 0 0.0430212 -0.229355 0 0 0 0)
(0 0.0428658 0 0.0428658 -0.227638 0 0 0 0)
(0 0.0427106 0 0.0427106 -0.225933 0 0 0 0)
(-7.77526e-17 0.0425495 0 0.0425495 -0.224215 0 0 0 0)
(0 0.0423849 0 0.0423849 -0.222498 0 0 0 0)
(0 0.0422178 0 0.0422178 -0.22078 0 0 0 0)
(0 0.0420468 0 0.0420468 -0.219057 0 0 0 0)
(-7.31081e-17 0.0418737 0 0.0418737 -0.217333 0 0 0 0)
(0 0.0416989 0 0.0416989 -0.215612 0 0 0 0)
(0 0.0415185 0 0.0415185 -0.213881 0 0 0 0)
(0 0.0413362 0 0.0413362 -0.212152 0 0 0 0)
(0 0.0411532 0 0.0411532 -0.210424 0 0 0 0)
(0 0.0409665 0 0.0409665 -0.208694 0 0 0 0)
(0 0.0407758 0 0.0407758 -0.206953 0 0 0 0)
(0 0.0405877 0 0.0405877 -0.205231 0 0 0 0)
(0 0.0403905 0 0.0403905 -0.203483 0 0 0 0)
(0 0.0401957 0 0.0401957 -0.201753 0 0 0 0)
(1.33784e-16 0.0399978 0 0.0399978 -0.20001 0 0 0 0)
(0 0.0397997 0 0.0397997 -0.198276 0 0 0 0)
(0 0.0395961 0 0.0395961 -0.196533 0 0 0 0)
(0 0.0393898 0 0.0393898 -0.194782 0 0 0 0)
(0 0.0391891 0 0.0391891 -0.193056 0 0 0 0)
(0 0.0389774 0 0.0389774 -0.191299 0 0 0 0)
(0 0.0387674 0 0.0387674 -0.189553 0 0 0 0)
(1.31861e-16 0.0385604 0 0.0385604 -0.187819 0 0 0 0)
(0 0.0383441 0 0.0383441 -0.18606 0 0 0 0)
(0 0.0381301 0 0.0381301 -0.184318 0 0 0 0)
(0 0.0379124 0 0.0379124 -0.182567 0 0 0 0)
(0 0.0376922 0 0.0376922 -0.180809 0 0 0 0)
(0 0.0374782 0 0.0374782 -0.179071 0 0 0 0)
(0 0.0372557 0 0.0372557 -0.177317 0 0 0 0)
(0 0.037027 0 0.037027 -0.17555 0 0 0 0)
(1.33448e-16 0.0368061 0 0.0368061 -0.173808 0 0 0 0)
(0 0.0365793 0 0.0365793 -0.172047 0 0 0 0)
(0 0.0363509 0 0.0363509 -0.170293 0 0 0 0)
(0 0.0361204 0 0.0361204 -0.16853 0 0 0 0)
(0 0.0358916 0 0.0358916 -0.166781 0 0 0 0)
(0 0.0356553 0 0.0356553 -0.165008 0 0 0 0)
(0 0.0354237 0 0.0354237 -0.163258 0 0 0 0)
(0 0.0351852 0 0.0351852 -0.161487 0 0 0 0)
(0 0.0349487 0 0.0349487 -0.159724 0 0 0 0)
(0 0.0347142 0 0.0347142 -0.15797 0 0 0 0)
(0 0.03447 0 0.03447 -0.15619 0 0 0 0)
(0 0.0342303 0 0.0342303 -0.154433 0 0 0 0)
(0 0.033985 0 0.033985 -0.152657 0 0 0 0)
(0 0.0337403 0 0.0337403 -0.150889 0 0 0 0)
(0 0.0334945 0 0.0334945 -0.149116 0 0 0 0)
(0 0.0332486 0 0.0332486 -0.147347 0 0 0 0)
(0 0.0329989 0 0.0329989 -0.145571 0 0 0 0)
(0 0.0327472 0 0.0327472 -0.143794 0 0 0 0)
(0 0.0324976 0 0.0324976 -0.142017 0 0 0 0)
(0 0.0322495 0 0.0322495 -0.140248 0 0 0 0)
(0 0.0319925 0 0.0319925 -0.138463 0 0 0 0)
(0 0.0317345 0 0.0317345 -0.136675 0 0 0 0)
(0 0.0314832 0 0.0314832 -0.134905 0 0 0 0)
(0 0.0312249 0 0.0312249 -0.133115 0 0 0 0)
(0 0.0309654 0 0.0309654 -0.131333 0 0 0 0)
(0 0.030703 0 0.030703 -0.12954 0 0 0 0)
(0 0.0304439 0 0.0304439 -0.127757 0 0 0 0)
(0 0.0301836 0 0.0301836 -0.125968 0 0 0 0)
(0 0.0299204 0 0.0299204 -0.124177 0 0 0 0)
(0 0.0296563 0 0.0296563 -0.122384 0 0 0 0)
(0 0.0293931 0 0.0293931 -0.120593 0 0 0 0)
(0 0.0291276 0 0.0291276 -0.118798 0 0 0 0)
(0 0.0288602 0 0.0288602 -0.117001 0 0 0 0)
(0 0.0285922 0 0.0285922 -0.115203 0 0 0 0)
(0 0.028323 0 0.028323 -0.113403 0 0 0 0)
(0 0.028053 0 0.028053 -0.111603 0 0 0 0)
(0 0.0277817 0 0.0277817 -0.109799 0 0 0 0)
(0 0.0275105 0 0.0275105 -0.107996 0 0 0 0)
(0 0.0272389 0 0.0272389 -0.106191 0 0 0 0)
(0 0.0269663 0 0.0269663 -0.104384 0 0 0 0)
(0 0.026693 0 0.026693 -0.102576 0 0 0 0)
(0 0.0264191 0 0.0264191 -0.100767 0 0 0 0)
(0 0.0261439 0 0.0261439 -0.0989557 0 0 0 0)
(0 0.0258677 0 0.0258677 -0.0971425 0 0 0 0)
(0 0.0255906 0 0.0255906 -0.0953277 0 0 0 0)
(0 0.0253128 0 0.0253128 -0.0935113 0 0 0 0)
(0 0.0250344 0 0.0250344 -0.0916932 0 0 0 0)
(0 0.0247556 0 0.0247556 -0.0898736 0 0 0 0)
(0 0.0244765 0 0.0244765 -0.0880524 0 0 0 0)
(0 0.0241969 0 0.0241969 -0.0862295 0 0 0 0)
(0 0.0239169 0 0.0239169 -0.0844049 0 0 0 0)
(0 0.0236366 0 0.0236366 -0.0825786 0 0 0 0)
(0 0.0233559 0 0.0233559 -0.0807503 0 0 0 0)
(0 0.023075 0 0.023075 -0.0789201 0 0 0 0)
(0 0.0227938 0 0.0227938 -0.077088 0 0 0 0)
(0 0.0225126 0 0.0225126 -0.075254 0 0 0 0)
(0 0.0222316 0 0.0222316 -0.0734179 0 0 0 0)
(0 0.0219507 0 0.0219507 -0.0715799 0 0 0 0)
(0 0.0216703 0 0.0216703 -0.0697397 0 0 0 0)
(0 0.0213903 0 0.0213903 -0.0678975 0 0 0 0)
(0 0.0211109 0 0.0211109 -0.0660531 0 0 0 0)
(0 0.0208323 0 0.0208323 -0.0642065 0 0 0 0)
(0 0.0205546 0 0.0205546 -0.0623576 0 0 0 0)
(0 0.020278 0 0.020278 -0.0605064 0 0 0 0)
(0 0.0200025 0 0.0200025 -0.0586527 0 0 0 0)
(0 0.0197283 0 0.0197283 -0.0567963 0 0 0 0)
(0 0.0194557 0 0.0194557 -0.0549368 0 0 0 0)
(0 0.0191849 0 0.0191849 -0.0530739 0 0 0 0)
(0 0.0189162 0 0.0189162 -0.051207 0 0 0 0)
(0 0.01865 0 0.01865 -0.049335 0 0 0 0)
(0 0.0183867 0 0.0183867 -0.0474569 0 0 0 0)
(0 0.0181269 0 0.0181269 -0.0455713 0 0 0 0)
(0 0.0178712 0 0.0178712 -0.0436766 0 0 0 0)
(0 0.0176201 0 0.0176201 -0.0417711 0 0 0 0)
(0 0.0173735 0 0.0173735 -0.0398535 0 0 0 0)
(0 0.0171305 0 0.0171305 -0.037923 0 0 0 0)
(0 0.0168883 0 0.0168883 -0.0359806 0 0 0 0)
(0 0.0166423 0 0.0166423 -0.0340286 0 0 0 0)
(0 0.0163858 0 0.0163858 -0.032073 0 0 0 0)
(0 0.0161145 0 0.0161145 -0.0301185 0 0 0 0)
(0 0.015824 0 0.015824 -0.0281733 0 0 0 0)
(0 0.0155156 0 0.0155156 -0.0262378 0 0 0 0)
(0 0.0151818 0 0.0151818 -0.024321 0 0 0 0)
(0 0.0148197 0 0.0148197 -0.0224125 0 0 0 0)
(0 0.0144197 0 0.0144197 -0.0205181 0 0 0 0)
(0 0.0140168 0 0.0140168 -0.0185796 0 0 0 0)
(0 0.0136411 0 0.0136411 -0.0165391 0 0 0 0)
(0 0.0134358 0 0.0134358 -0.0139192 0 0 0 0)
(0 0.0135874 0 0.0135874 -0.00933887 0 0 0 0)
(0 0.0132829 0 0.0132829 0.00401539 0 0 0 0)
(0 0.00786859 0 0.00786859 0.016301 0 0 0 0)
(0 0.00567329 0 0.00567329 0.0139014 0 0 0 0)
(0 0.00560131 0 0.00560131 0.00495533 0 0 0 0)
(0 0.0029771 0 0.0029771 5.85767e-05 0 0 0 0)
(0 0.00539418 0 0.00539418 4.19376e-05 0 0 0 0)
(0 0.00513961 0 0.00513961 1.27498e-05 0 0 0 0)
(0 0.00442346 0 0.00442346 2.22369e-05 0 0 0 0)
(0 0.00385824 0 0.00385824 1.7383e-05 0 0 0 0)
(0 0.00341802 0 0.00341802 1.54056e-05 0 0 0 0)
(0 0.0030698 0 0.0030698 1.38349e-05 0 0 0 0)
(0 0.00279023 0 0.00279023 1.39487e-05 0 0 0 0)
(0 0.0025651 0 0.0025651 1.3373e-05 0 0 0 0)
(0 0.00239991 0 0.00239991 1.27405e-05 0 0 0 0)
(0 0.00227167 0 0.00227167 1.3869e-05 0 0 0 0)
(0 0.00217509 0 0.00217509 1.47356e-05 0 0 0 0)
(0 0.00210592 0 0.00210592 1.57957e-05 0 0 0 0)
(0 0.00206078 0 0.00206078 1.72054e-05 0 0 0 0)
(0 0.00203699 0 0.00203699 1.90354e-05 0 0 0 0)
(0 0.0020325 0 0.0020325 2.13328e-05 0 0 0 0)
(0 0.00204568 0 0.00204568 2.41546e-05 0 0 0 0)
(0 0.00207528 0 0.00207528 2.75682e-05 0 0 0 0)
(0 0.00212038 0 0.00212038 3.16496e-05 0 0 0 0)
(0 0.00218033 0 0.00218033 3.64817e-05 0 0 0 0)
(0 0.0022547 0 0.0022547 4.21562e-05 0 0 0 0)
(0 0.00234327 0 0.00234327 4.87739e-05 0 0 0 0)
(0 0.00244606 0 0.00244606 5.64478e-05 0 0 0 0)
(0 0.00256321 0 0.00256321 6.53015e-05 0 0 0 0)
(0 0.00269508 0 0.00269508 7.54701e-05 0 0 0 0)
(0 0.00284221 0 0.00284221 8.71051e-05 0 0 0 0)
(0 0.00300527 0 0.00300527 0.000100378 0 0 0 0)
(0 0.00318514 0 0.00318514 0.000115478 0 0 0 0)
(0 0.0033828 0 0.0033828 0.000132619 0 0 0 0)
(0 0.00359942 0 0.00359942 0.000152042 0 0 0 0)
(0 0.00383628 0 0.00383628 0.000174016 0 0 0 0)
(0 0.00409478 0 0.00409478 0.000198846 0 0 0 0)
(0 0.00437643 0 0.00437643 0.000226876 0 0 0 0)
(0 0.00468278 0 0.00468278 0.000258496 0 0 0 0)
(0 0.00501544 0 0.00501544 0.00029414 0 0 0 0)
(0 0.00537597 0 0.00537597 0.000334289 0 0 0 0)
(0 0.00576588 0 0.00576588 0.00037948 0 0 0 0)
(0 0.00618648 0 0.00618648 0.000430292 0 0 0 0)
(0 0.00663891 0 0.00663891 0.000487345 0 0 0 0)
(0 0.00712394 0 0.00712394 0.000551265 0 0 0 0)
(0 0.00764195 0 0.00764195 0.000622641 0 0 0 0)
(0 0.00819281 0 0.00819281 0.000701916 0 0 0 0)
(0 0.00877586 0 0.00877586 0.000789236 0 0 0 0)
(0 0.00938988 0 0.00938988 0.000884227 0 0 0 0)
(0 0.0100331 0 0.0100331 0.000985745 0 0 0 0)
(0 0.0107036 0 0.0107036 0.00109142 0 0 0 0)
(0 0.0113994 0 0.0113994 0.00119619 0 0 0 0)
(0 0.0121204 0 0.0121204 0.00128855 0 0 0 0)
(0 0.0128721 0 0.0128721 0.00134388 0 0 0 0)
(0 0.0136704 0 0.0136704 0.00131748 0 0 0 0)
(0 0.0145444 0 0.0145444 0.00114337 0 0 0 0)
(0 0.0155334 0 0.0155334 0.000744442 0 0 0 0)
(0 0.0166735 0 0.0166735 5.4121e-05 0 0 0 0)
(0 0.0179787 0 0.0179787 -0.000957289 0 0 0 0)
(0 0.0194252 0 0.0194252 -0.0022631 0 0 0 0)
(0 0.0209494 0 0.0209494 -0.00377817 0 0 0 0)
(0 0.02246 0 0.02246 -0.0053797 0 0 0 0)
(0 0.0238661 0 0.0238661 -0.00694141 0 0 0 0)
(0 0.0251069 0 0.0251069 -0.00837256 0 0 0 0)
(-4.17085e-15 0.0261338 0 0.0261338 -0.00961709 0 0 0 0)
(0 0.0269173 0 0.0269173 -0.010638 0 0 0 0)
(0 0.0274472 0 0.0274472 -0.0114235 0 0 0 0)
(5.8822e-15 0.0277269 0 0.0277269 -0.0119785 0 0 0 0)
(0 0.0277687 0 0.0277687 -0.0123156 0 0 0 0)
(-3.54318e-15 0.0275895 0 0.0275895 -0.0124511 0 0 0 0)
(0 0.0272088 0 0.0272088 -0.0124022 0 0 0 0)
(4.16212e-15 0.0266472 0 0.0266472 -0.0121864 0 0 0 0)
(0 0.0259261 0 0.0259261 -0.011821 0 0 0 0)
(0 0.0250664 0 0.0250664 -0.0113229 0 0 0 0)
(0 0.0240887 0 0.0240887 -0.0107097 0 0 0 0)
(0 0.0230143 0 0.0230143 -0.0100018 0 0 0 0)
(0 0.0218641 0 0.0218641 -0.00922133 0 0 0 0)
(0 0.0206574 0 0.0206574 -0.00839103 0 0 0 0)
(0 0.0194131 0 0.0194131 -0.0075359 0 0 0 0)
(0 0.0181502 0 0.0181502 -0.00668509 0 0 0 0)
(0 0.0168857 0 0.0168857 -0.00586667 0 0 0 0)
(-1.50232e-14 0.0156329 0 0.0156329 -0.00510478 0 0 0 0)
(0 0.0144049 0 0.0144049 -0.00442427 0 0 0 0)
(0 0.0132128 0 0.0132128 -0.00384663 0 0 0 0)
(0 0.0120632 0 0.0120632 -0.00338336 0 0 0 0)
(-1.76839e-14 0.0109616 0 0.0109616 -0.0030384 0 0 0 0)
(0 0.00991142 0 0.00991142 -0.00281413 0 0 0 0)
(0 0.00891705 0 0.00891705 -0.00270628 0 0 0 0)
(0 0.00797817 0 0.00797817 -0.00270835 0 0 0 0)
(0 0.00709872 0 0.00709872 -0.00280658 0 0 0 0)
(0 0.00627552 0 0.00627552 -0.0029911 0 0 0 0)
(1.88848e-14 0.00551395 0 0.00551395 -0.00325937 0 0 0 0)
(0 0.0048061 0 0.0048061 -0.00356194 0 0 0 0)
(0 0.00415238 0 0.00415238 -0.00389863 0 0 0 0)
(0 0.00355586 0 0.00355586 -0.00441586 0 0 0 0)
(0 0.0029881 0 0.0029881 -0.00450895 0 0 0 0)
(0 0.0024355 0 0.0024355 -0.00521849 0 0 0 0)
(0 0.00236368 0 0.00236368 -0.00773942 0 0 0 0)
(0 0 0 0 -0 0 0 0 0)
(0 0 0 0 -0 0 0 0 0)
(0 -0 0 -0 0 0 0 0 0)
(0 -0 0 -0 -0 0 0 0 0)
(0 -0 0 -0 0 0 0 0 0)
(0 -0 0 -0 -0 0 0 0 0)
(0 -0 0 -0 -0 0 0 0 0)
(-0 -0 0 -0 -0 0 0 0 0)
(0 -0 0 -0 0 0 0 0 0)
(0 -0 0 -0 -0 0 0 0 0)
(0 -0 0 -0 0 0 0 0 0)
(-0 -0 0 -0 -0 0 0 0 0)
(0 -0 0 -0 -0 0 0 0 0)
(0 -0 0 -0 -0 0 0 0 0)
(-0 -0 0 -0 -0 0 0 0 0)
(0 -0 0 -0 0 0 0 0 0)
(0 -0 0 -0 -0 0 0 0 0)
(0 -0 0 -0 -0 0 0 0 0)
(0 -0 0 -0 0 0 0 0 0)
(0 -0 0 -0 0 0 0 0 0)
(0 -0 0 -0 0 0 0 0 0)
(0 -0 0 -0 0 0 0 0 0)
(0 -0 0 -0 0 0 0 0 0)
(0 -0 0 -0 0 0 0 0 0)
(0 -0 0 -0 0 0 0 0 0)
(0 -0 0 -0 0 0 0 0 0)
(0 -0 0 -0 0 0 0 0 0)
(0 -0 0 -0 0 0 0 0 0)
(0 -0 0 -0 0 0 0 0 0)
(0 0 0 0 0 0 0 0 0)
(0 0 0 0 0 0 0 0 0)
(0 0 0 0 0 0 0 0 0)
(0 0 0 0 0 0 0 0 0)
(0 0 0 0 0 0 0 0 0)
(0 0 0 0 0 0 0 0 0)
(0 0 0 0 -0 0 0 0 0)
(0 0 0 0 -0 0 0 0 0)
(0 0 0 0 0 0 0 0 0)
(0 0 0 0 -0 0 0 0 0)
(0 0 0 0 0 0 0 0 0)
(0 0 0 0 -0 0 0 0 0)
(0 0 0 0 0 0 0 0 0)
(0 0 0 0 -0 0 0 0 0)
(0 0 0 0 0 0 0 0 0)
(0 0 0 0 -0 0 0 0 0)
(0 0 0 0 0 0 0 0 0)
(0 0 0 0 -0 0 0 0 0)
(0 0 0 0 0 0 0 0 0)
(0 0 0 0 -0 0 0 0 0)
(0 0 0 0 0 0 0 0 0)
(0 0 0 0 -0 0 0 0 0)
(0 0 0 0 0 0 0 0 0)
(0 0 0 0 -0 0 0 0 0)
(0 0 0 0 0 0 0 0 0)
(0 0 0 0 -0 0 0 0 0)
(0 0 0 0 0 0 0 0 0)
(0 0 0 0 -0 0 0 0 0)
(0 0 0 0 0 0 0 0 0)
(0 0 0 0 -0 0 0 0 0)
(0 0 0 0 0 0 0 0 0)
(0 -0 0 -0 -0 0 0 0 0)
(0 0 0 0 0 0 0 0 0)
(0 -0 0 -0 -0 0 0 0 0)
(-0 0 0 0 0 0 0 0 0)
(0 -0 0 -0 -0 0 0 0 0)
(0 0 0 0 0 0 0 0 0)
(0 -0 0 -0 -0 0 0 0 0)
(0 0 0 0 0 0 0 0 0)
(0 -0 0 -0 -0 0 0 0 0)
(0 0 0 0 0 0 0 0 0)
(0 -0 0 -0 -0 0 0 0 0)
(0 0 0 0 0 0 0 0 0)
(0 -0 0 -0 -0 0 0 0 0)
(0 -0 0 -0 0 0 0 0 0)
(0 -0 0 -0 -0 0 0 0 0)
(0 0 0 0 0 0 0 0 0)
(0 -0 0 -0 -0 0 0 0 0)
(0 0 0 0 0 0 0 0 0)
(0 -0 0 -0 -0 0 0 0 0)
(0 0 0 0 0 0 0 0 0)
(0 -0 0 -0 -0 0 0 0 0)
(0 0 0 0 0 0 0 0 0)
(0 -0 0 -0 -0 0 0 0 0)
(0 -0 0 -0 0 0 0 0 0)
(0 -0 0 -0 -0 0 0 0 0)
(0 0 0 0 0 0 0 0 0)
(0 -0 0 -0 -0 0 0 0 0)
(0 0 0 0 0 0 0 0 0)
(0 -0 0 -0 -0 0 0 0 0)
(0 0 0 0 0 0 0 0 0)
(0 -0 0 -0 -0 0 0 0 0)
(0 0 0 0 0 0 0 0 0)
(0 -0 0 -0 -0 0 0 0 0)
(0 0 0 0 0 0 0 0 0)
(0 -0 0 -0 -0 0 0 0 0)
(0 0 0 0 0 0 0 0 0)
(0 -0 0 -0 -0 0 0 0 0)
(0 0 0 0 0 0 0 0 0)
(0 -0 0 -0 -0 0 0 0 0)
(0 0 0 0 0 0 0 0 0)
(0 -0 0 -0 -0 0 0 0 0)
(0 0 0 0 0 0 0 0 0)
(0 -0 0 -0 -0 0 0 0 0)
(0 -0 0 -0 0 0 0 0 0)
(0 -0 0 -0 -0 0 0 0 0)
(0 0 0 0 0 0 0 0 0)
(0 0 0 0 -0 0 0 0 0)
(0 0 0 0 0 0 0 0 0)
(0 -0 0 -0 -0 0 0 0 0)
(0 0 0 0 0 0 0 0 0)
(0 0 0 0 -0 0 0 0 0)
(0 0 0 0 0 0 0 0 0)
(0 -0 0 -0 -0 0 0 0 0)
(0 -0 0 -0 0 0 0 0 0)
(0 -0 0 -0 -0 0 0 0 0)
(0 0 0 0 0 0 0 0 0)
(0 -0 0 -0 -0 0 0 0 0)
(0 -0 0 -0 0 0 0 0 0)
(0 -0 0 -0 0 0 0 0 0)
(0 -0 0 -0 0 0 0 0 0)
(0 -0 0 -0 0 0 0 0 0)
(0 -0 0 -0 0 0 0 0 0)
(0 -0 0 -0 0 0 0 0 0)
(0 -0 0 -0 0 0 0 0 0)
)
;

boundaryField
{
    inandouthalf11
    {
        type            cyclic;
    }
    inandouthalf12
    {
        type            cyclic;
    }
    inandouthalf21
    {
        type            cyclic;
    }
    inandouthalf22
    {
        type            cyclic;
    }
    inandouthalf31
    {
        type            cyclic;
    }
    inandouthalf32
    {
        type            cyclic;
    }
    inandouthalf41
    {
        type            cyclic;
    }
    inandouthalf42
    {
        type            cyclic;
    }
    top
    {
        type            symmetryPlane;
    }
    walls
    {
        type            zeroGradient;
    }
    frontAndBackPlanes
    {
        type            empty;
    }
}


// ************************************************************************* //
