/*--------------------------------*- C++ -*----------------------------------*\
| =========                 |                                                 |
| \\      /  F ield         | OpenFOAM: The Open Source CFD Toolbox           |
|  \\    /   O peration     | Version:  2.4.x                                 |
|   \\  /    A nd           | Web:      www.OpenFOAM.org                      |
|    \\/     M anipulation  |                                                 |
\*---------------------------------------------------------------------------*/
FoamFile
{
    version     2.0;
    format      ascii;
    class       volScalarField;
    location    "9";
    object      Theta_0;
}
// * * * * * * * * * * * * * * * * * * * * * * * * * * * * * * * * * * * * * //

dimensions      [0 2 -2 0 0 0 0];

internalField   nonuniform List<scalar> 
360
(
6.66155e-21
6.66196e-21
6.6618e-21
6.66177e-21
6.66182e-21
6.66185e-21
6.66187e-21
6.66188e-21
6.6619e-21
6.66192e-21
6.66194e-21
6.66196e-21
6.66198e-21
6.662e-21
6.66202e-21
6.66204e-21
6.66206e-21
6.66208e-21
6.66209e-21
6.66211e-21
6.66213e-21
6.66214e-21
6.66216e-21
6.66217e-21
6.66218e-21
6.66219e-21
6.6622e-21
6.6622e-21
6.66221e-21
6.66221e-21
6.66221e-21
6.66221e-21
6.66221e-21
6.6622e-21
6.6622e-21
6.66219e-21
6.66218e-21
6.66218e-21
6.66217e-21
6.66215e-21
6.66214e-21
6.66213e-21
6.66211e-21
6.6621e-21
6.66208e-21
6.66207e-21
6.66205e-21
6.66204e-21
6.66202e-21
6.662e-21
6.66199e-21
6.66197e-21
6.66196e-21
6.66194e-21
6.66193e-21
6.66191e-21
6.6619e-21
6.66188e-21
6.66187e-21
6.66185e-21
6.66184e-21
6.66183e-21
6.66182e-21
6.6618e-21
6.66179e-21
6.66178e-21
6.66177e-21
6.66176e-21
6.66175e-21
6.66174e-21
6.66173e-21
6.66172e-21
6.66171e-21
6.6617e-21
6.66169e-21
6.66168e-21
6.66167e-21
6.66166e-21
6.66166e-21
6.66165e-21
6.66164e-21
6.66163e-21
6.66162e-21
6.66161e-21
6.66161e-21
6.6616e-21
6.66159e-21
6.66158e-21
6.66157e-21
6.66157e-21
6.66156e-21
6.66155e-21
6.66154e-21
6.66154e-21
6.66153e-21
6.66152e-21
6.66151e-21
6.6615e-21
6.6615e-21
6.66149e-21
6.66148e-21
6.66147e-21
6.66147e-21
6.66146e-21
6.66145e-21
6.66145e-21
6.66144e-21
6.66143e-21
6.66142e-21
6.66142e-21
6.66141e-21
6.66141e-21
6.6614e-21
6.66139e-21
6.66139e-21
6.66138e-21
6.66138e-21
6.66137e-21
6.66136e-21
6.66136e-21
6.66135e-21
6.66134e-21
6.66133e-21
6.66132e-21
6.66131e-21
6.66131e-21
6.6613e-21
6.6613e-21
6.66053e-21
1.98283e-20
1.86472e-19
1.94856e-18
2.12142e-17
2.43512e-16
2.99323e-15
4.00044e-14
5.9014e-13
9.76816e-12
1.85777e-10
5.02659e-09
3.38796e-07
1.27738e-05
0.000157723
0.00115591
0.00356519
0.00525931
0.00622137
0.00684447
0.00728465
0.00760893
0.00784741
0.00800384
0.00821482
0.00842153
0.00861223
0.00878516
0.00894049
0.00907835
0.00919866
0.00930088
0.00938432
0.00944819
0.00949171
0.00951417
0.00951505
0.00949424
0.00945144
0.00938703
0.00930148
0.00919552
0.00907007
0.00892623
0.00876524
0.00858852
0.00839752
0.0081938
0.00797901
0.00775484
0.00752301
0.00728532
0.00704354
0.00679952
0.00655508
0.00631209
0.00607235
0.00583765
0.00560967
0.00539001
0.00518004
0.00498098
0.00479373
0.00461894
0.00445687
0.00430744
0.00417019
0.00404434
0.00392885
0.00382257
0.00372433
0.00363302
0.00354766
0.00346661
0.00338854
0.00331304
0.00323972
0.00316823
0.00309826
0.00302953
0.00296175
0.00289467
0.00282803
0.00276161
0.00269516
0.00262846
0.00256129
0.00249341
0.00242461
0.00235465
0.00228329
0.00221029
0.00213538
0.0020583
0.00197875
0.00189642
0.00181097
0.00172199
0.00162906
0.00153163
0.00142909
0.00132064
0.00120527
0.00108159
0.000947639
0.000800337
0.000634308
0.000437858
0
0
0
0
0
0
0
0
0
0
0
0
0
0
0
0
0
0
0
0
0
0
0
0
0
0
0
0
0
0
0
0
0
0
0
0
0
0
0
0
0
0
0
0
0
0
0
0
0
0
0
0
0
0
0
0
0
0
0
0
0
0
0
0
0
0
0
0
0
0
0
0
0
0
0
0
0
0
0
0
0
0
0
0
0
0
0
0
0
0
0
0
0
0
0
0
0
0
0
0
0
0
0
0
0
0
0
0
0
0
0
0
0
0
0
0
0
0
0
0
0
0
0
0
)
;

boundaryField
{
    inandouthalf11
    {
        type            cyclic;
    }
    inandouthalf12
    {
        type            cyclic;
    }
    inandouthalf21
    {
        type            cyclic;
    }
    inandouthalf22
    {
        type            cyclic;
    }
    inandouthalf31
    {
        type            cyclic;
    }
    inandouthalf32
    {
        type            cyclic;
    }
    inandouthalf41
    {
        type            cyclic;
    }
    inandouthalf42
    {
        type            cyclic;
    }
    top
    {
        type            symmetryPlane;
    }
    walls
    {
        type            zeroGradient;
    }
    frontAndBackPlanes
    {
        type            empty;
    }
}


// ************************************************************************* //
