/*--------------------------------*- C++ -*----------------------------------*\
| =========                 |                                                 |
| \\      /  F ield         | OpenFOAM: The Open Source CFD Toolbox           |
|  \\    /   O peration     | Version:  2.4.x                                 |
|   \\  /    A nd           | Web:      www.OpenFOAM.org                      |
|    \\/     M anipulation  |                                                 |
\*---------------------------------------------------------------------------*/
FoamFile
{
    version     2.0;
    format      ascii;
    class       volScalarField;
    location    "9";
    object      Theta;
}
// * * * * * * * * * * * * * * * * * * * * * * * * * * * * * * * * * * * * * //

dimensions      [0 2 -2 0 0 0 0];

internalField   nonuniform List<scalar> 
360
(
6.66155e-21
6.66195e-21
6.6618e-21
6.66177e-21
6.66182e-21
6.66185e-21
6.66187e-21
6.66188e-21
6.6619e-21
6.66192e-21
6.66194e-21
6.66196e-21
6.66198e-21
6.662e-21
6.66202e-21
6.66204e-21
6.66206e-21
6.66208e-21
6.66209e-21
6.66211e-21
6.66213e-21
6.66214e-21
6.66216e-21
6.66217e-21
6.66218e-21
6.66219e-21
6.6622e-21
6.6622e-21
6.66221e-21
6.66221e-21
6.66221e-21
6.66221e-21
6.66221e-21
6.6622e-21
6.6622e-21
6.66219e-21
6.66218e-21
6.66218e-21
6.66217e-21
6.66215e-21
6.66214e-21
6.66213e-21
6.66211e-21
6.6621e-21
6.66208e-21
6.66207e-21
6.66205e-21
6.66204e-21
6.66202e-21
6.662e-21
6.66199e-21
6.66197e-21
6.66196e-21
6.66194e-21
6.66193e-21
6.66191e-21
6.6619e-21
6.66188e-21
6.66187e-21
6.66185e-21
6.66184e-21
6.66183e-21
6.66182e-21
6.6618e-21
6.66179e-21
6.66178e-21
6.66177e-21
6.66176e-21
6.66175e-21
6.66174e-21
6.66173e-21
6.66172e-21
6.66171e-21
6.6617e-21
6.66169e-21
6.66168e-21
6.66167e-21
6.66166e-21
6.66166e-21
6.66165e-21
6.66164e-21
6.66163e-21
6.66162e-21
6.66161e-21
6.66161e-21
6.6616e-21
6.66159e-21
6.66158e-21
6.66157e-21
6.66157e-21
6.66156e-21
6.66155e-21
6.66154e-21
6.66154e-21
6.66153e-21
6.66152e-21
6.66151e-21
6.6615e-21
6.6615e-21
6.66149e-21
6.66148e-21
6.66147e-21
6.66147e-21
6.66146e-21
6.66145e-21
6.66145e-21
6.66144e-21
6.66143e-21
6.66142e-21
6.66142e-21
6.66141e-21
6.66141e-21
6.6614e-21
6.66139e-21
6.66139e-21
6.66138e-21
6.66138e-21
6.66137e-21
6.66136e-21
6.66136e-21
6.66135e-21
6.66134e-21
6.66133e-21
6.66132e-21
6.66131e-21
6.66131e-21
6.6613e-21
6.6613e-21
6.66052e-21
1.98781e-20
1.86966e-19
1.95344e-18
2.12643e-17
2.44059e-16
2.99963e-15
4.00858e-14
5.91274e-13
9.78586e-12
1.86097e-10
5.03569e-09
3.39359e-07
1.2788e-05
0.000157863
0.00115651
0.00356597
0.0052599
0.00622175
0.0068447
0.00728476
0.00760894
0.00784735
0.00800368
0.00821461
0.00842127
0.00861194
0.00878484
0.00894016
0.00907802
0.00919833
0.00930058
0.00938404
0.00944796
0.00949152
0.00951404
0.00951499
0.00949425
0.00945153
0.0093872
0.00930175
0.00919587
0.00907053
0.00892678
0.00876589
0.00858926
0.00839836
0.00819474
0.00798003
0.00775595
0.0075242
0.00728658
0.00704486
0.00680089
0.0065565
0.00631354
0.00607382
0.00583912
0.00561115
0.00539146
0.00518147
0.00498237
0.00479507
0.00462022
0.00445809
0.00430859
0.00417127
0.00404536
0.00392981
0.00382348
0.00372519
0.00363383
0.00354844
0.00346735
0.00338926
0.00331372
0.00324037
0.00316886
0.00309887
0.00303011
0.00296231
0.00289521
0.00282856
0.00276211
0.00269565
0.00262893
0.00256174
0.00249386
0.00242504
0.00235506
0.00228369
0.00221067
0.00213574
0.00205865
0.00197909
0.00189674
0.00181127
0.00172228
0.00162933
0.00153189
0.00142933
0.00132086
0.00120547
0.00108178
0.000947799
0.000800472
0.000634414
0.000437932
0
0
0
0
0
0
0
0
0
0
0
0
0
0
0
0
0
0
0
0
0
0
0
0
0
0
0
0
0
0
0
0
0
0
0
0
0
0
0
0
0
0
0
0
0
0
0
0
0
0
0
0
0
0
0
0
0
0
0
0
0
0
0
0
0
0
0
0
0
0
0
0
0
0
0
0
0
0
0
0
0
0
0
0
0
0
0
0
0
0
0
0
0
0
0
0
0
0
0
0
0
0
0
0
0
0
0
0
0
0
0
0
0
0
0
0
0
0
0
0
0
0
0
0
)
;

boundaryField
{
    inandouthalf11
    {
        type            cyclic;
    }
    inandouthalf12
    {
        type            cyclic;
    }
    inandouthalf21
    {
        type            cyclic;
    }
    inandouthalf22
    {
        type            cyclic;
    }
    inandouthalf31
    {
        type            cyclic;
    }
    inandouthalf32
    {
        type            cyclic;
    }
    inandouthalf41
    {
        type            cyclic;
    }
    inandouthalf42
    {
        type            cyclic;
    }
    top
    {
        type            symmetryPlane;
    }
    walls
    {
        type            zeroGradient;
    }
    frontAndBackPlanes
    {
        type            empty;
    }
}


// ************************************************************************* //
