/*--------------------------------*- C++ -*----------------------------------*\
| =========                 |                                                 |
| \\      /  F ield         | OpenFOAM: The Open Source CFD Toolbox           |
|  \\    /   O peration     | Version:  2.4.x                                 |
|   \\  /    A nd           | Web:      www.OpenFOAM.org                      |
|    \\/     M anipulation  |                                                 |
\*---------------------------------------------------------------------------*/
FoamFile
{
    version     2.0;
    format      ascii;
    class       volScalarField;
    location    "9";
    object      tmf;
}
// * * * * * * * * * * * * * * * * * * * * * * * * * * * * * * * * * * * * * //

dimensions      [0 0 0 0 0 0 0];

internalField   nonuniform List<scalar> 
360
(
0.999206
0.999209
0.999209
0.999209
0.999209
0.999209
0.999209
0.999209
0.999209
0.999209
0.999209
0.999209
0.999208
0.999208
0.999208
0.999208
0.999208
0.999208
0.999208
0.999208
0.999208
0.999208
0.999208
0.999208
0.999207
0.999207
0.999207
0.999207
0.999207
0.999207
0.999207
0.999207
0.999207
0.999207
0.999207
0.999206
0.999206
0.999206
0.999206
0.999206
0.999206
0.999206
0.999206
0.999206
0.999205
0.999205
0.999205
0.999205
0.999205
0.999205
0.999205
0.999205
0.999205
0.999204
0.999204
0.999204
0.999204
0.999204
0.999204
0.999204
0.999204
0.999203
0.999203
0.999203
0.999203
0.999203
0.999203
0.999203
0.999202
0.999202
0.999202
0.999202
0.999202
0.999202
0.999202
0.999201
0.999201
0.999201
0.999201
0.999201
0.999201
0.9992
0.9992
0.9992
0.9992
0.9992
0.999199
0.999199
0.999199
0.999199
0.999199
0.999198
0.999198
0.999198
0.999198
0.999198
0.999197
0.999197
0.999197
0.999197
0.999196
0.999196
0.999196
0.999196
0.999195
0.999195
0.999195
0.999194
0.999194
0.999194
0.999194
0.999193
0.999193
0.999193
0.999192
0.999192
0.999191
0.999191
0.999191
0.99919
0.99919
0.999189
0.999189
0.999188
0.999188
0.999188
0.999187
0.999186
0.999066
0.998253
0.997995
0.997747
0.997439
0.997053
0.996569
0.995958
0.995183
0.994192
0.992919
0.99128
0.989166
0.986407
0.981871
0.960445
0.922125
0.909551
0.905952
0.904602
0.903792
0.902953
0.901883
0.897592
0.899034
0.900388
0.90175
0.903153
0.90461
0.906135
0.907732
0.909407
0.911158
0.912982
0.914873
0.916823
0.918822
0.920862
0.922932
0.925024
0.927129
0.929241
0.931354
0.933462
0.935563
0.937653
0.939733
0.941801
0.943859
0.945907
0.947948
0.949985
0.952019
0.954053
0.956089
0.958126
0.960164
0.962201
0.964232
0.96625
0.968248
0.970219
0.972152
0.974037
0.975867
0.97763
0.979319
0.980926
0.982444
0.983868
0.985193
0.986416
0.987535
0.988561
0.9895
0.99035
0.991111
0.991786
0.99238
0.992899
0.993349
0.993737
0.99407
0.994354
0.994597
0.994803
0.994976
0.995122
0.995244
0.995344
0.995426
0.995492
0.995544
0.995583
0.995611
0.995629
0.995638
0.995638
0.995632
0.995619
0.995599
0.995574
0.995543
0.995508
0.995468
0.995423
0.995375
0.995323
0.995266
0.994571
0.994835
0.994798
0.994854
0.994903
0.994955
0.995007
0.995056
0.995166
0.994874
0.995798
0.995585
0.996748
0.996826
0.996902
0.996984
0.997072
0.997168
0.997272
0.997384
0.997505
0.997636
0.997778
0.997931
0.998097
0.998276
0.998471
0.998685
0.998926
0.999183
0.999357
0.999401
0.999409
0.999416
0.999422
0.999426
0.999419
0.998635
0.99419
0.99419
0.99419
0.99419
0.99419
0.99419
0.99419
0.99419
0.99419
0.99419
0.99419
0.99419
0.99419
0.99419
0.99419
0.99419
0.99419
0.99419
0.99419
0.99419
0.99419
0.99419
0.99419
0.99419
0.99419
0.99419
0.99419
0.99419
0.99419
0.99419
0.99419
0.99419
0.99419
0.99419
0.99419
0.99419
0.99419
0.99419
0.99419
0.99419
0.99419
0.99419
0.99419
0.99419
0.99419
0.99419
0.99419
0.99419
0.99419
0.99419
0.99419
0.99419
0.99419
0.99419
0.99419
0.99419
0.99419
0.99419
0.99419
0.99419
0.99419
0.99419
0.99419
0.99419
0.99419
0.99419
0.99419
0.99419
0.99419
0.99419
0.99419
0.99419
0.99419
0.99419
0.99419
0.99419
0.99419
0.99419
0.99419
0.99419
0.99419
0.99419
0.994189
0.994174
0.993239
)
;

boundaryField
{
    inandouthalf11
    {
        type            cyclic;
    }
    inandouthalf12
    {
        type            cyclic;
    }
    inandouthalf21
    {
        type            cyclic;
    }
    inandouthalf22
    {
        type            cyclic;
    }
    inandouthalf31
    {
        type            cyclic;
    }
    inandouthalf32
    {
        type            cyclic;
    }
    inandouthalf41
    {
        type            cyclic;
    }
    inandouthalf42
    {
        type            cyclic;
    }
    top
    {
        type            symmetryPlane;
    }
    walls
    {
        type            calculated;
        value           uniform 0;
    }
    frontAndBackPlanes
    {
        type            empty;
    }
}


// ************************************************************************* //
