/*--------------------------------*- C++ -*----------------------------------*\
| =========                 |                                                 |
| \\      /  F ield         | OpenFOAM: The Open Source CFD Toolbox           |
|  \\    /   O peration     | Version:  2.4.x                                 |
|   \\  /    A nd           | Web:      www.OpenFOAM.org                      |
|    \\/     M anipulation  |                                                 |
\*---------------------------------------------------------------------------*/
FoamFile
{
    version     2.0;
    format      ascii;
    class       volVectorField;
    location    "9";
    object      U;
}
// * * * * * * * * * * * * * * * * * * * * * * * * * * * * * * * * * * * * * //

dimensions      [0 1 -1 0 0 0 0];

internalField   nonuniform List<vector> 
360
(
(1.33434e-05 5.75636e-09 0)
(1.32501e-05 -1.10626e-09 0)
(1.32465e-05 -9.93057e-10 0)
(1.32684e-05 1.08276e-10 0)
(1.3284e-05 2.73104e-10 0)
(1.32959e-05 1.11313e-10 0)
(1.33086e-05 5.10943e-11 0)
(1.33222e-05 6.31201e-11 0)
(1.33361e-05 7.81496e-11 0)
(1.33504e-05 8.55287e-11 0)
(1.33648e-05 8.80032e-11 0)
(1.33796e-05 8.68399e-11 0)
(1.33947e-05 8.47514e-11 0)
(1.341e-05 8.26141e-11 0)
(1.34256e-05 8.07112e-11 0)
(1.34415e-05 7.85363e-11 0)
(1.34578e-05 7.53217e-11 0)
(1.34742e-05 7.13315e-11 0)
(1.3491e-05 6.67834e-11 0)
(1.3508e-05 6.23402e-11 0)
(1.35252e-05 5.68464e-11 0)
(1.35427e-05 5.21864e-11 0)
(1.35604e-05 4.70855e-11 0)
(1.35784e-05 4.15106e-11 0)
(1.35965e-05 3.58444e-11 0)
(1.36148e-05 3.01393e-11 0)
(1.36333e-05 2.43333e-11 0)
(1.36519e-05 1.91618e-11 0)
(1.36707e-05 1.30878e-11 0)
(1.36897e-05 7.13453e-12 0)
(1.37087e-05 1.15485e-12 0)
(1.37279e-05 -3.46166e-12 0)
(1.37471e-05 -1.05004e-11 0)
(1.37665e-05 -1.39694e-11 0)
(1.37859e-05 -2.08109e-11 0)
(1.38053e-05 -2.54074e-11 0)
(1.38248e-05 -3.02852e-11 0)
(1.38443e-05 -3.46072e-11 0)
(1.38639e-05 -3.77322e-11 0)
(1.38833e-05 -4.43025e-11 0)
(1.39029e-05 -4.56407e-11 0)
(1.39224e-05 -4.93038e-11 0)
(1.39419e-05 -5.42527e-11 0)
(1.39614e-05 -5.38595e-11 0)
(1.39808e-05 -5.73029e-11 0)
(1.40001e-05 -5.96877e-11 0)
(1.40195e-05 -6.04703e-11 0)
(1.40387e-05 -6.39252e-11 0)
(1.4058e-05 -6.33173e-11 0)
(1.40772e-05 -6.12654e-11 0)
(1.40962e-05 -6.55801e-11 0)
(1.41153e-05 -6.36806e-11 0)
(1.41343e-05 -6.44361e-11 0)
(1.41532e-05 -6.2435e-11 0)
(1.41721e-05 -6.48502e-11 0)
(1.41909e-05 -6.03489e-11 0)
(1.42097e-05 -6.33521e-11 0)
(1.42284e-05 -6.06625e-11 0)
(1.42471e-05 -5.98666e-11 0)
(1.42657e-05 -6.18456e-11 0)
(1.42843e-05 -5.53166e-11 0)
(1.43028e-05 -5.77542e-11 0)
(1.43214e-05 -5.39797e-11 0)
(1.43399e-05 -5.45348e-11 0)
(1.43584e-05 -5.30306e-11 0)
(1.43769e-05 -5.30916e-11 0)
(1.43954e-05 -5.14659e-11 0)
(1.44138e-05 -5.08456e-11 0)
(1.44323e-05 -5.01101e-11 0)
(1.44507e-05 -5.13997e-11 0)
(1.44692e-05 -4.78639e-11 0)
(1.44878e-05 -4.50149e-11 0)
(1.45062e-05 -4.94232e-11 0)
(1.45248e-05 -4.47301e-11 0)
(1.45433e-05 -4.59292e-11 0)
(1.4562e-05 -4.36357e-11 0)
(1.45806e-05 -4.61915e-11 0)
(1.45993e-05 -4.62864e-11 0)
(1.4618e-05 -4.59146e-11 0)
(1.46368e-05 -4.53194e-11 0)
(1.46556e-05 -4.64664e-11 0)
(1.46745e-05 -4.55832e-11 0)
(1.46934e-05 -4.48061e-11 0)
(1.47124e-05 -4.49181e-11 0)
(1.47315e-05 -4.46326e-11 0)
(1.47506e-05 -4.53028e-11 0)
(1.47699e-05 -4.54657e-11 0)
(1.47892e-05 -4.66208e-11 0)
(1.48086e-05 -4.77075e-11 0)
(1.48281e-05 -4.82791e-11 0)
(1.48477e-05 -4.88261e-11 0)
(1.48674e-05 -4.94377e-11 0)
(1.48872e-05 -4.94844e-11 0)
(1.49071e-05 -4.9646e-11 0)
(1.49271e-05 -4.99767e-11 0)
(1.49473e-05 -5.04363e-11 0)
(1.49676e-05 -5.10667e-11 0)
(1.4988e-05 -5.1881e-11 0)
(1.50086e-05 -5.27774e-11 0)
(1.50294e-05 -5.36054e-11 0)
(1.50503e-05 -5.43697e-11 0)
(1.50714e-05 -5.50039e-11 0)
(1.50926e-05 -5.54254e-11 0)
(1.51141e-05 -5.56593e-11 0)
(1.51357e-05 -5.56928e-11 0)
(1.51576e-05 -5.54805e-11 0)
(1.51797e-05 -5.50118e-11 0)
(1.52021e-05 -5.4287e-11 0)
(1.52248e-05 -5.33311e-11 0)
(1.52477e-05 -5.22299e-11 0)
(1.5271e-05 -5.11331e-11 0)
(1.52946e-05 -5.02564e-11 0)
(1.53186e-05 -4.98858e-11 0)
(1.5343e-05 -5.03598e-11 0)
(1.53678e-05 -5.20375e-11 0)
(1.53931e-05 -5.52484e-11 0)
(1.54188e-05 -6.02093e-11 0)
(1.5445e-05 -6.6922e-11 0)
(1.54717e-05 -7.50581e-11 0)
(1.54989e-05 -8.38809e-11 0)
(1.55265e-05 -9.22083e-11 0)
(1.55546e-05 -9.8505e-11 0)
(1.55832e-05 -1.01043e-10 0)
(1.56124e-05 -9.82448e-11 0)
(1.56421e-05 -8.88787e-11 0)
(1.56725e-05 -7.24123e-11 0)
(1.57038e-05 -4.87919e-11 0)
(1.57362e-05 -1.89623e-11 0)
(1.57701e-05 1.52062e-11 0)
(1.58059e-05 4.71767e-11 0)
(1.58439e-05 6.33538e-11 0)
(1.58845e-05 3.52289e-11 0)
(1.59278e-05 -6.53682e-11 0)
(1.59735e-05 -2.46855e-10 0)
(1.60206e-05 -4.38078e-10 0)
(1.60672e-05 -5.39542e-10 0)
(1.61117e-05 -4.74606e-10 0)
(1.61549e-05 -3.6874e-10 0)
(1.62005e-05 -5.90102e-10 0)
(1.6252e-05 8.18306e-08 0)
(1.6308e-05 -1.1018e-06 0)
(1.63773e-05 4.75243e-06 0)
(2.51056e-05 -1.99405e-05 0)
(0.00262138 -4.91143e-05 0)
(0.115014 6.88508e-05 0)
(0.228067 -2.28545e-05 0)
(0.325204 -5.38642e-06 0)
(0.410176 -3.0365e-06 0)
(0.485672 -1.7724e-06 0)
(0.553542 -1.6222e-06 0)
(0.61512 -2.20641e-06 0)
(0.671413 1.24238e-06 0)
(0.72317 -5.6683e-07 0)
(0.770941 -6.79619e-07 0)
(0.8152 -5.80943e-07 0)
(0.856349 -4.9388e-07 0)
(0.894731 -4.44027e-07 0)
(0.93064 -4.11339e-07 0)
(0.964331 -3.89123e-07 0)
(0.996023 -3.73969e-07 0)
(1.02591 -3.63666e-07 0)
(1.05415 -3.56448e-07 0)
(1.08091 -3.50576e-07 0)
(1.1063 -3.44939e-07 0)
(1.13044 -3.38045e-07 0)
(1.15344 -3.31271e-07 0)
(1.17538 -3.21862e-07 0)
(1.19635 -3.11457e-07 0)
(1.2164 -2.99815e-07 0)
(1.23562 -2.86825e-07 0)
(1.25404 -2.72945e-07 0)
(1.27173 -2.58268e-07 0)
(1.28872 -2.42992e-07 0)
(1.30506 -2.27504e-07 0)
(1.32078 -2.11836e-07 0)
(1.3359 -1.96211e-07 0)
(1.35046 -1.80729e-07 0)
(1.36448 -1.65642e-07 0)
(1.37798 -1.50896e-07 0)
(1.39098 -1.36717e-07 0)
(1.40349 -1.23059e-07 0)
(1.41553 -1.10072e-07 0)
(1.42709 -9.77137e-08 0)
(1.4382 -8.60629e-08 0)
(1.44886 -7.50738e-08 0)
(1.45906 -6.47805e-08 0)
(1.46882 -5.52376e-08 0)
(1.47812 -4.65528e-08 0)
(1.48697 -3.87172e-08 0)
(1.49535 -3.13921e-08 0)
(1.50327 -2.40272e-08 0)
(1.51072 -1.64905e-08 0)
(1.51767 -9.62237e-09 0)
(1.52414 -4.79256e-09 0)
(1.5301 -2.58044e-09 0)
(1.53556 -1.95678e-09 0)
(1.54051 -1.26535e-09 0)
(1.54496 3.35592e-10 0)
(1.54891 2.14534e-09 0)
(1.55239 3.53248e-09 0)
(1.55541 3.66751e-09 0)
(1.55804 3.48782e-09 0)
(1.56031 2.93059e-09 0)
(1.56224 2.2759e-09 0)
(1.56385 1.69688e-09 0)
(1.56518 1.24502e-09 0)
(1.56624 9.14211e-10 0)
(1.56707 6.75966e-10 0)
(1.56768 5.0343e-10 0)
(1.56811 3.80515e-10 0)
(1.56836 2.86535e-10 0)
(1.56847 2.16492e-10 0)
(1.56844 1.69595e-10 0)
(1.56828 1.3202e-10 0)
(1.56802 1.00092e-10 0)
(1.56764 7.56891e-11 0)
(1.56717 6.25739e-11 0)
(1.56661 4.87311e-11 0)
(1.56596 3.23587e-11 0)
(1.56522 2.51616e-11 0)
(1.56441 2.1411e-11 0)
(1.56352 9.98769e-12 0)
(1.56255 7.11761e-12 0)
(1.56151 1.38229e-12 0)
(1.5604 6.75513e-12 0)
(1.55922 -4.79634e-12 0)
(1.55797 9.55999e-12 0)
(1.55666 -1.02798e-11 0)
(1.55528 1.78208e-11 0)
(1.55383 -1.27311e-11 0)
(1.55233 5.6469e-12 0)
(1.55076 1.36123e-11 0)
(1.54914 1.03218e-11 0)
(1.54746 -9.7902e-11 0)
(1.54572 2.60825e-10 0)
(1.54393 -5.41572e-10 0)
(1.54209 9.97935e-10 0)
(1.5402 -9.8905e-10 0)
(1.53826 2.985e-10 0)
(1.53628 -4.85749e-11 0)
(1.53426 -1.06522e-12 0)
(1.5322 4.25819e-13 0)
(1.53011 -5.88449e-13 0)
(1.52799 -3.27145e-12 0)
(1.52584 -5.04381e-12 0)
(1.52367 2.75023e-11 0)
(1.52149 -6.06391e-11 0)
(1.5193 8.11607e-11 0)
(1.51711 -1.12139e-13 0)
(1.51492 3.67723e-12 0)
(1.51275 -2.05828e-12 0)
(1.5106 -2.58552e-12 0)
(1.50848 -2.14438e-12 0)
(1.50641 -1.98115e-12 0)
(1.5044 -1.93506e-12 0)
(1.50247 -1.86801e-12 0)
(1.50062 -1.75861e-12 0)
(1.49889 -1.6762e-12 0)
(1.49728 -2.00608e-12 0)
(1.49583 -3.41727e-12 0)
(1.49455 1.06177e-11 0)
(1.49347 -3.5492e-11 0)
(1.49261 6.93179e-11 0)
(1.49199 -1.23949e-10 0)
(1.49163 1.89266e-10 0)
(1.49152 -2.72975e-10 0)
(1.49161 3.63258e-10 0)
(1.4917 -4.64673e-10 0)
(1.49171 5.66303e-10 0)
(1.49171 -6.74082e-10 0)
(1.49171 7.80686e-10 0)
(1.49171 -8.92873e-10 0)
(1.49171 1.00443e-09 0)
(1.49171 -1.12146e-09 0)
(1.49171 1.23836e-09 0)
(1.49171 -1.36063e-09 0)
(1.49171 1.48326e-09 0)
(1.49171 -1.61112e-09 0)
(1.49171 1.73978e-09 0)
(1.49171 -1.87352e-09 0)
(1.49171 2.00851e-09 0)
(1.49171 -2.14841e-09 0)
(1.49171 2.28994e-09 0)
(1.49171 -2.43624e-09 0)
(1.49171 2.58453e-09 0)
(1.49171 -2.73742e-09 0)
(1.49171 2.89264e-09 0)
(1.49171 -3.05233e-09 0)
(1.49171 3.21459e-09 0)
(1.49171 -3.38119e-09 0)
(1.49171 3.55063e-09 0)
(1.49171 -3.72426e-09 0)
(1.49171 3.90097e-09 0)
(1.49171 -4.08173e-09 0)
(1.49171 4.26576e-09 0)
(1.49171 -4.45372e-09 0)
(1.49171 4.6451e-09 0)
(1.49171 -4.84021e-09 0)
(1.49171 5.03902e-09 0)
(1.49171 -5.24139e-09 0)
(1.49171 5.44759e-09 0)
(1.49171 -5.65713e-09 0)
(1.49171 5.87058e-09 0)
(1.49171 -6.0873e-09 0)
(1.49171 6.30789e-09 0)
(1.49171 -6.53166e-09 0)
(1.49171 6.75925e-09 0)
(1.49171 -6.9899e-09 0)
(1.49171 7.22426e-09 0)
(1.49171 -7.46156e-09 0)
(1.49171 6.76286e-09 0)
(1.49171 -6.8501e-09 0)
(1.49171 6.93669e-09 0)
(1.49171 -7.02203e-09 0)
(1.49171 7.10668e-09 0)
(1.49171 -7.19009e-09 0)
(1.49171 7.27276e-09 0)
(1.49171 -7.3542e-09 0)
(1.49171 7.43486e-09 0)
(1.49171 -7.5143e-09 0)
(1.49171 7.59289e-09 0)
(1.49171 -7.67031e-09 0)
(1.49171 7.74679e-09 0)
(1.49171 -7.82213e-09 0)
(1.49171 7.89646e-09 0)
(1.49171 -7.96968e-09 0)
(1.49171 8.04179e-09 0)
(1.49171 -8.11287e-09 0)
(1.49171 8.1826e-09 0)
(1.49171 -8.25163e-09 0)
(1.49171 8.31882e-09 0)
(1.49171 -8.38584e-09 0)
(1.49171 8.45035e-09 0)
(1.49171 -8.51528e-09 0)
(1.49171 8.57706e-09 0)
(1.49171 -8.63975e-09 0)
(1.49171 8.69877e-09 0)
(1.49171 -8.7591e-09 0)
(1.49171 8.81523e-09 0)
(1.49171 -8.87304e-09 0)
(1.49171 8.9263e-09 0)
(1.49171 -8.9813e-09 0)
(1.49171 9.03166e-09 0)
(1.49171 -9.08353e-09 0)
(1.49171 9.13096e-09 0)
(1.49171 -9.17952e-09 0)
(1.49171 9.22372e-09 0)
(1.49171 -9.26872e-09 0)
(1.49171 9.30964e-09 0)
(1.49171 -9.35052e-09 0)
(1.49171 9.38806e-09 0)
(1.49171 -9.4242e-09 0)
(1.49171 9.4582e-09 0)
(1.49171 -9.48877e-09 0)
(1.49171 9.51888e-09 0)
(1.49171 -9.54306e-09 0)
(1.49171 9.56802e-09 0)
(1.49171 -9.58432e-09 0)
(1.49171 9.60124e-09 0)
(1.49171 -9.60817e-09 0)
)
;

boundaryField
{
    inandouthalf11
    {
        type            cyclic;
    }
    inandouthalf12
    {
        type            cyclic;
    }
    inandouthalf21
    {
        type            cyclic;
    }
    inandouthalf22
    {
        type            cyclic;
    }
    inandouthalf31
    {
        type            cyclic;
    }
    inandouthalf32
    {
        type            cyclic;
    }
    inandouthalf41
    {
        type            cyclic;
    }
    inandouthalf42
    {
        type            cyclic;
    }
    top
    {
        type            symmetryPlane;
    }
    walls
    {
        type            calculated;
        value           uniform (0 0 0);
    }
    frontAndBackPlanes
    {
        type            empty;
    }
}


// ************************************************************************* //
