/*--------------------------------*- C++ -*----------------------------------*\
| =========                 |                                                 |
| \\      /  F ield         | OpenFOAM: The Open Source CFD Toolbox           |
|  \\    /   O peration     | Version:  2.4.x                                 |
|   \\  /    A nd           | Web:      www.OpenFOAM.org                      |
|    \\/     M anipulation  |                                                 |
\*---------------------------------------------------------------------------*/
FoamFile
{
    version     2.0;
    format      ascii;
    class       volVectorField;
    location    "9";
    object      Ua;
}
// * * * * * * * * * * * * * * * * * * * * * * * * * * * * * * * * * * * * * //

dimensions      [0 1 -1 0 0 0 0];

internalField   nonuniform List<vector> 
360
(
(1.82266e-32 -1.00968e-31 0)
(9.09137e-09 -3.51827e-08 0)
(1.90443e-08 -6.31908e-08 0)
(2.81169e-08 -8.81418e-08 0)
(3.74911e-08 -1.14776e-07 0)
(4.73987e-08 -1.4294e-07 0)
(5.76115e-08 -1.71684e-07 0)
(6.80238e-08 -2.00794e-07 0)
(7.8644e-08 -2.30352e-07 0)
(8.94985e-08 -2.60434e-07 0)
(1.00605e-07 -2.91087e-07 0)
(1.11972e-07 -3.22325e-07 0)
(1.23597e-07 -3.54141e-07 0)
(1.35479e-07 -3.86522e-07 0)
(1.47612e-07 -4.19452e-07 0)
(1.59995e-07 -4.52922e-07 0)
(1.72622e-07 -4.86916e-07 0)
(1.85487e-07 -5.21413e-07 0)
(1.98581e-07 -5.56386e-07 0)
(2.11896e-07 -5.91808e-07 0)
(2.25419e-07 -6.27647e-07 0)
(2.3914e-07 -6.63868e-07 0)
(2.53048e-07 -7.00442e-07 0)
(2.6713e-07 -7.37334e-07 0)
(2.81373e-07 -7.74507e-07 0)
(2.95765e-07 -8.11926e-07 0)
(3.10291e-07 -8.4955e-07 0)
(3.24937e-07 -8.87345e-07 0)
(3.3969e-07 -9.25276e-07 0)
(3.54536e-07 -9.63302e-07 0)
(3.69459e-07 -1.00138e-06 0)
(3.84445e-07 -1.03949e-06 0)
(3.9948e-07 -1.07757e-06 0)
(4.1455e-07 -1.1156e-06 0)
(4.29642e-07 -1.15354e-06 0)
(4.4474e-07 -1.19136e-06 0)
(4.5983e-07 -1.22902e-06 0)
(4.74902e-07 -1.26649e-06 0)
(4.89943e-07 -1.30375e-06 0)
(5.0494e-07 -1.34076e-06 0)
(5.19884e-07 -1.3775e-06 0)
(5.34764e-07 -1.41395e-06 0)
(5.49569e-07 -1.45007e-06 0)
(5.64292e-07 -1.48586e-06 0)
(5.78926e-07 -1.5213e-06 0)
(5.93465e-07 -1.55637e-06 0)
(6.07902e-07 -1.59107e-06 0)
(6.22229e-07 -1.62536e-06 0)
(6.36443e-07 -1.65925e-06 0)
(6.50544e-07 -1.69274e-06 0)
(6.64529e-07 -1.72583e-06 0)
(6.78394e-07 -1.7585e-06 0)
(6.92138e-07 -1.79076e-06 0)
(7.05763e-07 -1.82261e-06 0)
(7.19267e-07 -1.85405e-06 0)
(7.32652e-07 -1.88508e-06 0)
(7.45919e-07 -1.91572e-06 0)
(7.59069e-07 -1.94596e-06 0)
(7.72102e-07 -1.9758e-06 0)
(7.8502e-07 -2.00526e-06 0)
(7.97825e-07 -2.03433e-06 0)
(8.10523e-07 -2.06304e-06 0)
(8.23117e-07 -2.09138e-06 0)
(8.3561e-07 -2.11938e-06 0)
(8.48004e-07 -2.14703e-06 0)
(8.60301e-07 -2.17434e-06 0)
(8.72504e-07 -2.20132e-06 0)
(8.84615e-07 -2.22797e-06 0)
(8.96634e-07 -2.2543e-06 0)
(9.08563e-07 -2.2803e-06 0)
(9.20406e-07 -2.30599e-06 0)
(9.32168e-07 -2.33138e-06 0)
(9.4385e-07 -2.35647e-06 0)
(9.55453e-07 -2.38127e-06 0)
(9.66982e-07 -2.40578e-06 0)
(9.78439e-07 -2.43001e-06 0)
(9.89823e-07 -2.45397e-06 0)
(1.00113e-06 -2.47763e-06 0)
(1.01237e-06 -2.50102e-06 0)
(1.02353e-06 -2.52412e-06 0)
(1.03463e-06 -2.54694e-06 0)
(1.04564e-06 -2.56947e-06 0)
(1.05659e-06 -2.59173e-06 0)
(1.06747e-06 -2.61371e-06 0)
(1.07828e-06 -2.63543e-06 0)
(1.08903e-06 -2.65687e-06 0)
(1.09971e-06 -2.67804e-06 0)
(1.11032e-06 -2.69894e-06 0)
(1.12086e-06 -2.71956e-06 0)
(1.13133e-06 -2.73989e-06 0)
(1.14172e-06 -2.75994e-06 0)
(1.15204e-06 -2.7797e-06 0)
(1.16229e-06 -2.79916e-06 0)
(1.17246e-06 -2.81834e-06 0)
(1.18256e-06 -2.83723e-06 0)
(1.19259e-06 -2.85583e-06 0)
(1.20254e-06 -2.87413e-06 0)
(1.21242e-06 -2.89215e-06 0)
(1.22222e-06 -2.90986e-06 0)
(1.23195e-06 -2.92728e-06 0)
(1.2416e-06 -2.94439e-06 0)
(1.25117e-06 -2.9612e-06 0)
(1.26067e-06 -2.9777e-06 0)
(1.27008e-06 -2.99389e-06 0)
(1.27942e-06 -3.00977e-06 0)
(1.28869e-06 -3.02535e-06 0)
(1.29789e-06 -3.04064e-06 0)
(1.30703e-06 -3.05563e-06 0)
(1.3161e-06 -3.07033e-06 0)
(1.32513e-06 -3.08476e-06 0)
(1.33412e-06 -3.09893e-06 0)
(1.34309e-06 -3.11285e-06 0)
(1.35203e-06 -3.12653e-06 0)
(1.36096e-06 -3.13997e-06 0)
(1.36989e-06 -3.15318e-06 0)
(1.37882e-06 -3.16615e-06 0)
(1.38774e-06 -3.17887e-06 0)
(1.39664e-06 -3.1913e-06 0)
(1.40549e-06 -3.20342e-06 0)
(1.41427e-06 -3.21518e-06 0)
(1.42295e-06 -3.22651e-06 0)
(1.43149e-06 -3.23739e-06 0)
(1.43986e-06 -3.24777e-06 0)
(1.44807e-06 -3.25765e-06 0)
(1.45613e-06 -3.26705e-06 0)
(1.46412e-06 -3.27606e-06 0)
(1.47215e-06 -3.28478e-06 0)
(1.4804e-06 -3.2934e-06 0)
(1.48913e-06 -3.30215e-06 0)
(1.49864e-06 -3.31126e-06 0)
(1.50927e-06 -3.32096e-06 0)
(1.52126e-06 -3.33139e-06 0)
(1.5346e-06 -3.34238e-06 0)
(1.54869e-06 -3.35337e-06 0)
(1.56217e-06 -3.36323e-06 0)
(1.57307e-06 -3.37071e-06 0)
(1.58003e-06 -3.37507e-06 0)
(1.58324e-06 -3.37687e-06 0)
(1.58436e-06 -3.37731e-06 0)
(1.58473e-06 -3.37739e-06 0)
(1.5851e-06 -3.3772e-06 0)
(1.58608e-06 -3.37599e-06 0)
(1.79461e-06 -3.12051e-06 0)
(0.000441649 0.00019128 0)
(0.107767 0.00105706 0)
(0.221553 0.00105081 0)
(0.319584 0.00131979 0)
(0.40518 0.00151236 0)
(0.481116 0.00168367 0)
(0.549308 0.00183716 0)
(0.61112 0.00197662 0)
(0.667557 0.00213273 0)
(0.719546 0.00225926 0)
(0.767547 0.00239814 0)
(0.812015 0.00254153 0)
(0.853352 0.00268879 0)
(0.8919 0.00284112 0)
(0.927956 0.00300022 0)
(0.961773 0.0031676 0)
(0.993573 0.00334458 0)
(1.02355 0.00353229 0)
(1.05186 0.00373171 0)
(1.07866 0.00394361 0)
(1.10408 0.00416857 0)
(1.12822 0.00440697 0)
(1.1512 0.00465902 0)
(1.1731 0.00492478 0)
(1.194 0.00520414 0)
(1.21396 0.00549687 0)
(1.23305 0.00580261 0)
(1.25132 0.00612089 0)
(1.26883 0.00645114 0)
(1.2856 0.0067927 0)
(1.30167 0.00714484 0)
(1.31708 0.00750671 0)
(1.33184 0.00787741 0)
(1.34598 0.00825594 0)
(1.35952 0.00864123 0)
(1.37245 0.00903209 0)
(1.3848 0.00942726 0)
(1.39656 0.00982536 0)
(1.40773 0.0102249 0)
(1.41832 0.0106242 0)
(1.42832 0.0110214 0)
(1.43773 0.0114147 0)
(1.44653 0.0118016 0)
(1.45474 0.0121796 0)
(1.46234 0.0125456 0)
(1.46933 0.0128965 0)
(1.47573 0.0132284 0)
(1.48153 0.0135367 0)
(1.48677 0.0138151 0)
(1.49145 0.0140542 0)
(1.4956 0.014241 0)
(1.49927 0.0143618 0)
(1.5025 0.0144062 0)
(1.50533 0.0143716 0)
(1.50781 0.0142648 0)
(1.50999 0.0141 0)
(1.51192 0.0138946 0)
(1.51362 0.0136655 0)
(1.51515 0.0134241 0)
(1.51654 0.0131784 0)
(1.5178 0.0129359 0)
(1.51895 0.0127017 0)
(1.52 0.0124792 0)
(1.52095 0.0122706 0)
(1.52181 0.0120769 0)
(1.5226 0.0118987 0)
(1.52331 0.0117361 0)
(1.52395 0.0115888 0)
(1.52453 0.0114567 0)
(1.52506 0.011339 0)
(1.52553 0.0112353 0)
(1.52595 0.0111447 0)
(1.52633 0.0110664 0)
(1.52667 0.0109995 0)
(1.52697 0.010943 0)
(1.52723 0.0108956 0)
(1.52747 0.0108562 0)
(1.52767 0.0108237 0)
(1.52785 0.0107967 0)
(1.52801 0.0107741 0)
(1.52815 0.0107548 0)
(1.52827 0.0107378 0)
(1.52838 0.0107221 0)
(1.52848 0.0107071 0)
(1.52856 0.0106919 0)
(1.52863 0.010676 0)
(1.5287 0.0106587 0)
(1.52876 0.0106394 0)
(1.52881 0.0106178 0)
(1.52886 0.010593 0)
(1.5289 0.0105623 0)
(1.52894 0.0105319 0)
(1.52897 0.0104828 0)
(1.52902 0.0103908 0)
(1.53846 0.00684568 0)
(1.53733 0.00941751 0)
(1.53545 0.00850514 0)
(1.53335 0.00860599 0)
(1.53128 0.00859041 0)
(1.52918 0.00857487 0)
(1.52705 0.00851035 0)
(1.5249 0.00835678 0)
(1.5227 0.0088879 0)
(1.52044 0.0049146 0)
(1.51844 0.0164891 0)
(1.51578 -0.0114365 0)
(1.51391 -0.039294 0)
(1.51154 -0.0396185 0)
(1.50942 -0.039607 0)
(1.50732 -0.0396079 0)
(1.50526 -0.0396082 0)
(1.50327 -0.039608 0)
(1.50136 -0.0396074 0)
(1.49954 -0.0396063 0)
(1.49783 -0.0396047 0)
(1.49626 -0.0396025 0)
(1.49485 -0.0395997 0)
(1.49361 -0.0395963 0)
(1.49257 -0.0395922 0)
(1.49176 -0.0395876 0)
(1.49119 -0.0395821 0)
(1.4909 -0.0395764 0)
(1.49083 -0.0395699 0)
(1.49094 -0.0395596 0)
(1.49101 -0.0395516 0)
(1.49102 -0.0395487 0)
(1.49102 -0.0395485 0)
(1.49102 -0.0395485 0)
(1.49102 -0.0395485 0)
(1.49102 -0.0395485 0)
(1.49102 -0.0395485 0)
(1.49102 -0.0395485 0)
(1.49102 -0.0395485 0)
(1.49102 -0.0395485 0)
(1.49102 -0.0395485 0)
(1.49102 -0.0395485 0)
(1.49102 -0.0395485 0)
(1.49102 -0.0395485 0)
(1.49102 -0.0395485 0)
(1.49102 -0.0395485 0)
(1.49102 -0.0395485 0)
(1.49102 -0.0395485 0)
(1.49102 -0.0395485 0)
(1.49102 -0.0395485 0)
(1.49102 -0.0395485 0)
(1.49102 -0.0395485 0)
(1.49102 -0.0395485 0)
(1.49102 -0.0395485 0)
(1.49102 -0.0395485 0)
(1.49102 -0.0395485 0)
(1.49102 -0.0395485 0)
(1.49102 -0.0395485 0)
(1.49102 -0.0395485 0)
(1.49102 -0.0395485 0)
(1.49102 -0.0395485 0)
(1.49102 -0.0395485 0)
(1.49102 -0.0395485 0)
(1.49102 -0.0395485 0)
(1.49102 -0.0395485 0)
(1.49102 -0.0395485 0)
(1.49102 -0.0395485 0)
(1.49102 -0.0395485 0)
(1.49102 -0.0395485 0)
(1.49102 -0.0395485 0)
(1.49102 -0.0395485 0)
(1.49102 -0.0395485 0)
(1.49102 -0.0395485 0)
(1.49102 -0.0395485 0)
(1.49102 -0.0395485 0)
(1.49102 -0.0395485 0)
(1.49102 -0.0395485 0)
(1.49102 -0.0395485 0)
(1.49102 -0.0395485 0)
(1.49102 -0.0395485 0)
(1.49102 -0.0395485 0)
(1.49102 -0.0395485 0)
(1.49102 -0.0395485 0)
(1.49102 -0.0395485 0)
(1.49102 -0.0395485 0)
(1.49102 -0.0395485 0)
(1.49102 -0.0395485 0)
(1.49102 -0.0395485 0)
(1.49102 -0.0395485 0)
(1.49102 -0.0395485 0)
(1.49102 -0.0395485 0)
(1.49102 -0.0395485 0)
(1.49102 -0.0395485 0)
(1.49102 -0.0395485 0)
(1.49102 -0.0395485 0)
(1.49102 -0.0395485 0)
(1.49102 -0.0395485 0)
(1.49102 -0.0395485 0)
(1.49102 -0.0395485 0)
(1.49102 -0.0395485 0)
(1.49102 -0.0395485 0)
(1.49102 -0.0395485 0)
(1.49102 -0.0395485 0)
(1.49102 -0.0395485 0)
(1.49102 -0.0395485 0)
(1.49102 -0.0395485 0)
(1.49102 -0.0395485 0)
(1.49102 -0.0395485 0)
(1.49102 -0.0395485 0)
(1.49102 -0.0395485 0)
(1.49102 -0.0395485 0)
(1.49102 -0.0395485 0)
(1.49102 -0.0395485 0)
(1.49102 -0.0395485 0)
(1.49102 -0.0395485 0)
(1.49102 -0.0395485 0)
(1.49102 -0.0395485 0)
(1.49102 -0.0395485 0)
(1.49102 -0.0395485 0)
(1.49102 -0.0395483 0)
(1.49102 -0.0395399 0)
(1.49101 -0.0391952 0)
(1.49089 -0.022497 0)
)
;

boundaryField
{
    inandouthalf11
    {
        type            cyclic;
    }
    inandouthalf12
    {
        type            cyclic;
    }
    inandouthalf21
    {
        type            cyclic;
    }
    inandouthalf22
    {
        type            cyclic;
    }
    inandouthalf31
    {
        type            cyclic;
    }
    inandouthalf32
    {
        type            cyclic;
    }
    inandouthalf41
    {
        type            cyclic;
    }
    inandouthalf42
    {
        type            cyclic;
    }
    top
    {
        type            symmetryPlane;
    }
    walls
    {
        type            fixedValue;
        value           uniform (0 0 0);
    }
    frontAndBackPlanes
    {
        type            empty;
    }
}


// ************************************************************************* //
