/*--------------------------------*- C++ -*----------------------------------*\
| =========                 |                                                 |
| \\      /  F ield         | OpenFOAM: The Open Source CFD Toolbox           |
|  \\    /   O peration     | Version:  2.4.x                                 |
|   \\  /    A nd           | Web:      www.OpenFOAM.org                      |
|    \\/     M anipulation  |                                                 |
\*---------------------------------------------------------------------------*/
FoamFile
{
    version     2.0;
    format      ascii;
    class       volVectorField;
    location    "9";
    object      Ua_0;
}
// * * * * * * * * * * * * * * * * * * * * * * * * * * * * * * * * * * * * * //

dimensions      [0 1 -1 0 0 0 0];

internalField   nonuniform List<vector> 
360
(
(1.82284e-32 -1.00967e-31 0)
(9.09417e-09 -3.51898e-08 0)
(1.90503e-08 -6.32039e-08 0)
(2.81258e-08 -8.81603e-08 0)
(3.7503e-08 -1.14801e-07 0)
(4.74138e-08 -1.42971e-07 0)
(5.76299e-08 -1.71721e-07 0)
(6.80456e-08 -2.00838e-07 0)
(7.86692e-08 -2.30403e-07 0)
(8.95272e-08 -2.60491e-07 0)
(1.00637e-07 -2.91152e-07 0)
(1.12007e-07 -3.22397e-07 0)
(1.23636e-07 -3.5422e-07 0)
(1.35521e-07 -3.86607e-07 0)
(1.47658e-07 -4.19545e-07 0)
(1.60044e-07 -4.53021e-07 0)
(1.72675e-07 -4.87022e-07 0)
(1.85543e-07 -5.21526e-07 0)
(1.98641e-07 -5.56505e-07 0)
(2.11959e-07 -5.91934e-07 0)
(2.25486e-07 -6.2778e-07 0)
(2.3921e-07 -6.64007e-07 0)
(2.53121e-07 -7.00587e-07 0)
(2.67206e-07 -7.37484e-07 0)
(2.81453e-07 -7.74664e-07 0)
(2.95848e-07 -8.12088e-07 0)
(3.10376e-07 -8.49718e-07 0)
(3.25025e-07 -8.87518e-07 0)
(3.39782e-07 -9.25455e-07 0)
(3.5463e-07 -9.63485e-07 0)
(3.69555e-07 -1.00157e-06 0)
(3.84544e-07 -1.03968e-06 0)
(3.99582e-07 -1.07776e-06 0)
(4.14654e-07 -1.1158e-06 0)
(4.29747e-07 -1.15375e-06 0)
(4.44847e-07 -1.19157e-06 0)
(4.5994e-07 -1.22923e-06 0)
(4.75013e-07 -1.26671e-06 0)
(4.90056e-07 -1.30397e-06 0)
(5.05055e-07 -1.34098e-06 0)
(5.2e-07 -1.37772e-06 0)
(5.34881e-07 -1.41417e-06 0)
(5.49688e-07 -1.4503e-06 0)
(5.64412e-07 -1.48609e-06 0)
(5.79048e-07 -1.52153e-06 0)
(5.93587e-07 -1.5566e-06 0)
(6.08025e-07 -1.5913e-06 0)
(6.22354e-07 -1.6256e-06 0)
(6.36568e-07 -1.65949e-06 0)
(6.5067e-07 -1.69298e-06 0)
(6.64656e-07 -1.72607e-06 0)
(6.78521e-07 -1.75874e-06 0)
(6.92267e-07 -1.791e-06 0)
(7.05892e-07 -1.82285e-06 0)
(7.19397e-07 -1.85429e-06 0)
(7.32783e-07 -1.88533e-06 0)
(7.46051e-07 -1.91597e-06 0)
(7.59201e-07 -1.94621e-06 0)
(7.72235e-07 -1.97606e-06 0)
(7.85153e-07 -2.00551e-06 0)
(7.97959e-07 -2.03458e-06 0)
(8.10658e-07 -2.06329e-06 0)
(8.23253e-07 -2.09164e-06 0)
(8.35747e-07 -2.11964e-06 0)
(8.48142e-07 -2.14729e-06 0)
(8.6044e-07 -2.17461e-06 0)
(8.72643e-07 -2.20159e-06 0)
(8.84755e-07 -2.22824e-06 0)
(8.96776e-07 -2.25457e-06 0)
(9.08706e-07 -2.28057e-06 0)
(9.2055e-07 -2.30626e-06 0)
(9.32313e-07 -2.33166e-06 0)
(9.43996e-07 -2.35675e-06 0)
(9.556e-07 -2.38155e-06 0)
(9.67129e-07 -2.40606e-06 0)
(9.78587e-07 -2.4303e-06 0)
(9.89973e-07 -2.45426e-06 0)
(1.00128e-06 -2.47793e-06 0)
(1.01252e-06 -2.50131e-06 0)
(1.02369e-06 -2.52442e-06 0)
(1.03478e-06 -2.54724e-06 0)
(1.0458e-06 -2.56977e-06 0)
(1.05675e-06 -2.59204e-06 0)
(1.06763e-06 -2.61402e-06 0)
(1.07844e-06 -2.63574e-06 0)
(1.08919e-06 -2.65719e-06 0)
(1.09987e-06 -2.67836e-06 0)
(1.11048e-06 -2.69926e-06 0)
(1.12102e-06 -2.71988e-06 0)
(1.13149e-06 -2.74022e-06 0)
(1.14189e-06 -2.76027e-06 0)
(1.15221e-06 -2.78003e-06 0)
(1.16246e-06 -2.7995e-06 0)
(1.17263e-06 -2.81868e-06 0)
(1.18273e-06 -2.83757e-06 0)
(1.19276e-06 -2.85617e-06 0)
(1.20271e-06 -2.87448e-06 0)
(1.21259e-06 -2.8925e-06 0)
(1.2224e-06 -2.91022e-06 0)
(1.23213e-06 -2.92763e-06 0)
(1.24178e-06 -2.94475e-06 0)
(1.25135e-06 -2.96156e-06 0)
(1.26085e-06 -2.97806e-06 0)
(1.27026e-06 -2.99425e-06 0)
(1.2796e-06 -3.01014e-06 0)
(1.28887e-06 -3.02573e-06 0)
(1.29807e-06 -3.04101e-06 0)
(1.30721e-06 -3.056e-06 0)
(1.31629e-06 -3.07071e-06 0)
(1.32532e-06 -3.08515e-06 0)
(1.33431e-06 -3.09932e-06 0)
(1.34327e-06 -3.11324e-06 0)
(1.35222e-06 -3.12692e-06 0)
(1.36115e-06 -3.14036e-06 0)
(1.37008e-06 -3.15357e-06 0)
(1.37901e-06 -3.16655e-06 0)
(1.38793e-06 -3.17927e-06 0)
(1.39683e-06 -3.19171e-06 0)
(1.40568e-06 -3.20383e-06 0)
(1.41447e-06 -3.21559e-06 0)
(1.42314e-06 -3.22693e-06 0)
(1.43168e-06 -3.23781e-06 0)
(1.44006e-06 -3.24819e-06 0)
(1.44826e-06 -3.25807e-06 0)
(1.45633e-06 -3.26748e-06 0)
(1.46431e-06 -3.27649e-06 0)
(1.47235e-06 -3.28522e-06 0)
(1.4806e-06 -3.29384e-06 0)
(1.48933e-06 -3.30259e-06 0)
(1.49885e-06 -3.31171e-06 0)
(1.50947e-06 -3.32142e-06 0)
(1.52147e-06 -3.33185e-06 0)
(1.53481e-06 -3.34285e-06 0)
(1.54891e-06 -3.35384e-06 0)
(1.56239e-06 -3.36371e-06 0)
(1.57329e-06 -3.37119e-06 0)
(1.58025e-06 -3.37555e-06 0)
(1.58346e-06 -3.37736e-06 0)
(1.58457e-06 -3.37779e-06 0)
(1.58495e-06 -3.37787e-06 0)
(1.58532e-06 -3.37768e-06 0)
(1.58631e-06 -3.37646e-06 0)
(1.82629e-06 -3.08029e-06 0)
(0.000411925 0.000181911 0)
(0.107751 0.00105603 0)
(0.221543 0.00105185 0)
(0.319579 0.00132084 0)
(0.40518 0.00151362 0)
(0.481119 0.00168513 0)
(0.549315 0.0018388 0)
(0.611129 0.00197842 0)
(0.667568 0.00213468 0)
(0.719559 0.00226133 0)
(0.767562 0.00240033 0)
(0.812032 0.00254384 0)
(0.85337 0.00269121 0)
(0.89192 0.00284366 0)
(0.927977 0.00300287 0)
(0.961796 0.00317036 0)
(0.993597 0.00334745 0)
(1.02357 0.00353527 0)
(1.05189 0.00373481 0)
(1.07869 0.00394683 0)
(1.10411 0.0041719 0)
(1.12825 0.00441041 0)
(1.15123 0.00466257 0)
(1.17313 0.00492843 0)
(1.19403 0.00520791 0)
(1.21399 0.00550074 0)
(1.23309 0.00580657 0)
(1.25136 0.00612494 0)
(1.26886 0.00645527 0)
(1.28563 0.00679691 0)
(1.30171 0.00714912 0)
(1.31712 0.00751105 0)
(1.33188 0.00788181 0)
(1.34602 0.00826038 0)
(1.35956 0.0086457 0)
(1.37249 0.00903659 0)
(1.38484 0.00943178 0)
(1.3966 0.00982988 0)
(1.40777 0.0102294 0)
(1.41836 0.0106287 0)
(1.42836 0.0110259 0)
(1.43776 0.0114191 0)
(1.44656 0.0118059 0)
(1.45476 0.0121838 0)
(1.46236 0.0125498 0)
(1.46935 0.0129005 0)
(1.47575 0.0132322 0)
(1.48155 0.0135403 0)
(1.48678 0.0138185 0)
(1.49146 0.0140571 0)
(1.49561 0.0142435 0)
(1.49928 0.0143638 0)
(1.5025 0.0144076 0)
(1.50533 0.0143724 0)
(1.50781 0.014265 0)
(1.50999 0.0140997 0)
(1.51191 0.013894 0)
(1.51361 0.0136647 0)
(1.51514 0.0134232 0)
(1.51653 0.0131775 0)
(1.51779 0.012935 0)
(1.51894 0.0127008 0)
(1.51998 0.0124784 0)
(1.52093 0.0122699 0)
(1.5218 0.0120762 0)
(1.52258 0.0118981 0)
(1.52329 0.0117355 0)
(1.52393 0.0115884 0)
(1.52451 0.0114563 0)
(1.52504 0.0113387 0)
(1.52551 0.011235 0)
(1.52593 0.0111445 0)
(1.52631 0.0110662 0)
(1.52665 0.0109994 0)
(1.52694 0.0109429 0)
(1.52721 0.0108956 0)
(1.52744 0.0108562 0)
(1.52765 0.0108237 0)
(1.52783 0.0107968 0)
(1.52799 0.0107742 0)
(1.52813 0.0107549 0)
(1.52825 0.0107379 0)
(1.52836 0.0107222 0)
(1.52845 0.0107072 0)
(1.52854 0.010692 0)
(1.52861 0.0106761 0)
(1.52867 0.0106588 0)
(1.52873 0.0106395 0)
(1.52878 0.0106179 0)
(1.52883 0.0105931 0)
(1.52887 0.0105624 0)
(1.52891 0.010532 0)
(1.52895 0.0104829 0)
(1.529 0.010391 0)
(1.53843 0.00684681 0)
(1.5373 0.00941679 0)
(1.53541 0.00850524 0)
(1.53332 0.00860656 0)
(1.53125 0.00859236 0)
(1.52915 0.00857916 0)
(1.52701 0.00851686 0)
(1.52486 0.00837011 0)
(1.52266 0.00889307 0)
(1.52041 0.00495381 0)
(1.5184 0.0164941 0)
(1.51574 -0.0114853 0)
(1.51387 -0.0393022 0)
(1.5115 -0.0396181 0)
(1.50938 -0.039607 0)
(1.50728 -0.0396079 0)
(1.50523 -0.0396082 0)
(1.50324 -0.039608 0)
(1.50132 -0.0396074 0)
(1.4995 -0.0396063 0)
(1.4978 -0.0396047 0)
(1.49623 -0.0396025 0)
(1.49481 -0.0395997 0)
(1.49357 -0.0395963 0)
(1.49254 -0.0395922 0)
(1.49173 -0.0395876 0)
(1.49116 -0.0395821 0)
(1.49087 -0.0395764 0)
(1.49079 -0.0395699 0)
(1.4909 -0.0395596 0)
(1.49098 -0.0395516 0)
(1.49098 -0.0395487 0)
(1.49098 -0.0395485 0)
(1.49098 -0.0395485 0)
(1.49098 -0.0395485 0)
(1.49098 -0.0395485 0)
(1.49098 -0.0395485 0)
(1.49098 -0.0395485 0)
(1.49098 -0.0395485 0)
(1.49098 -0.0395485 0)
(1.49098 -0.0395485 0)
(1.49098 -0.0395485 0)
(1.49098 -0.0395485 0)
(1.49098 -0.0395485 0)
(1.49098 -0.0395485 0)
(1.49098 -0.0395485 0)
(1.49098 -0.0395485 0)
(1.49098 -0.0395485 0)
(1.49098 -0.0395485 0)
(1.49098 -0.0395485 0)
(1.49098 -0.0395485 0)
(1.49098 -0.0395485 0)
(1.49098 -0.0395485 0)
(1.49098 -0.0395485 0)
(1.49098 -0.0395485 0)
(1.49098 -0.0395485 0)
(1.49098 -0.0395485 0)
(1.49098 -0.0395485 0)
(1.49098 -0.0395485 0)
(1.49098 -0.0395485 0)
(1.49098 -0.0395485 0)
(1.49098 -0.0395485 0)
(1.49098 -0.0395485 0)
(1.49098 -0.0395485 0)
(1.49098 -0.0395485 0)
(1.49098 -0.0395485 0)
(1.49098 -0.0395485 0)
(1.49098 -0.0395485 0)
(1.49098 -0.0395485 0)
(1.49098 -0.0395485 0)
(1.49098 -0.0395485 0)
(1.49098 -0.0395485 0)
(1.49098 -0.0395485 0)
(1.49098 -0.0395485 0)
(1.49098 -0.0395485 0)
(1.49098 -0.0395485 0)
(1.49098 -0.0395485 0)
(1.49098 -0.0395485 0)
(1.49098 -0.0395485 0)
(1.49098 -0.0395485 0)
(1.49098 -0.0395485 0)
(1.49098 -0.0395485 0)
(1.49098 -0.0395485 0)
(1.49098 -0.0395485 0)
(1.49098 -0.0395485 0)
(1.49098 -0.0395485 0)
(1.49098 -0.0395485 0)
(1.49098 -0.0395485 0)
(1.49098 -0.0395485 0)
(1.49098 -0.0395485 0)
(1.49098 -0.0395485 0)
(1.49098 -0.0395485 0)
(1.49098 -0.0395485 0)
(1.49098 -0.0395485 0)
(1.49098 -0.0395485 0)
(1.49098 -0.0395485 0)
(1.49098 -0.0395485 0)
(1.49098 -0.0395485 0)
(1.49098 -0.0395485 0)
(1.49098 -0.0395485 0)
(1.49098 -0.0395485 0)
(1.49098 -0.0395485 0)
(1.49098 -0.0395485 0)
(1.49098 -0.0395485 0)
(1.49098 -0.0395485 0)
(1.49098 -0.0395485 0)
(1.49098 -0.0395485 0)
(1.49098 -0.0395485 0)
(1.49098 -0.0395485 0)
(1.49098 -0.0395485 0)
(1.49098 -0.0395485 0)
(1.49098 -0.0395485 0)
(1.49098 -0.0395485 0)
(1.49098 -0.0395485 0)
(1.49098 -0.0395485 0)
(1.49098 -0.0395485 0)
(1.49098 -0.0395485 0)
(1.49098 -0.0395485 0)
(1.49098 -0.0395485 0)
(1.49098 -0.0395483 0)
(1.49098 -0.0395399 0)
(1.49098 -0.0391952 0)
(1.49086 -0.022497 0)
)
;

boundaryField
{
    inandouthalf11
    {
        type            cyclic;
    }
    inandouthalf12
    {
        type            cyclic;
    }
    inandouthalf21
    {
        type            cyclic;
    }
    inandouthalf22
    {
        type            cyclic;
    }
    inandouthalf31
    {
        type            cyclic;
    }
    inandouthalf32
    {
        type            cyclic;
    }
    inandouthalf41
    {
        type            cyclic;
    }
    inandouthalf42
    {
        type            cyclic;
    }
    top
    {
        type            symmetryPlane;
    }
    walls
    {
        type            fixedValue;
        value           uniform (0 0 0);
    }
    frontAndBackPlanes
    {
        type            empty;
    }
}


// ************************************************************************* //
