/*--------------------------------*- C++ -*----------------------------------*\
| =========                 |                                                 |
| \\      /  F ield         | OpenFOAM: The Open Source CFD Toolbox           |
|  \\    /   O peration     | Version:  2.4.x                                 |
|   \\  /    A nd           | Web:      www.OpenFOAM.org                      |
|    \\/     M anipulation  |                                                 |
\*---------------------------------------------------------------------------*/
FoamFile
{
    version     2.0;
    format      ascii;
    class       volVectorField;
    location    "9";
    object      Ub;
}
// * * * * * * * * * * * * * * * * * * * * * * * * * * * * * * * * * * * * * //

dimensions      [0 1 -1 0 0 0 0];

internalField   nonuniform List<vector> 
360
(
(3.42901e-05 1.47928e-08 0)
(3.41109e-05 5.25804e-08 0)
(3.40941e-05 9.70364e-08 0)
(3.41285e-05 1.39147e-07 0)
(3.41502e-05 1.81501e-07 0)
(3.41641e-05 2.25436e-07 0)
(3.41792e-05 2.70537e-07 0)
(3.41959e-05 3.16388e-07 0)
(3.42131e-05 3.62942e-07 0)
(3.42305e-05 4.10292e-07 0)
(3.42483e-05 4.5852e-07 0)
(3.42664e-05 5.0765e-07 0)
(3.42848e-05 5.57676e-07 0)
(3.43035e-05 6.0858e-07 0)
(3.43225e-05 6.6034e-07 0)
(3.43419e-05 7.12936e-07 0)
(3.43616e-05 7.66343e-07 0)
(3.43815e-05 8.20528e-07 0)
(3.44018e-05 8.75448e-07 0)
(3.44224e-05 9.31062e-07 0)
(3.44433e-05 9.87316e-07 0)
(3.44644e-05 1.04416e-06 0)
(3.44859e-05 1.10154e-06 0)
(3.45075e-05 1.15941e-06 0)
(3.45294e-05 1.21771e-06 0)
(3.45515e-05 1.27638e-06 0)
(3.45739e-05 1.33535e-06 0)
(3.45964e-05 1.39459e-06 0)
(3.46192e-05 1.45401e-06 0)
(3.4642e-05 1.51357e-06 0)
(3.46651e-05 1.57321e-06 0)
(3.46883e-05 1.63286e-06 0)
(3.47116e-05 1.69246e-06 0)
(3.47352e-05 1.75197e-06 0)
(3.47587e-05 1.81132e-06 0)
(3.47824e-05 1.87046e-06 0)
(3.48061e-05 1.92933e-06 0)
(3.48299e-05 1.98789e-06 0)
(3.48538e-05 2.04611e-06 0)
(3.48777e-05 2.10391e-06 0)
(3.49017e-05 2.16127e-06 0)
(3.49257e-05 2.21816e-06 0)
(3.49497e-05 2.27452e-06 0)
(3.49738e-05 2.33034e-06 0)
(3.49978e-05 2.38559e-06 0)
(3.50219e-05 2.44025e-06 0)
(3.5046e-05 2.4943e-06 0)
(3.507e-05 2.5477e-06 0)
(3.50941e-05 2.60045e-06 0)
(3.51182e-05 2.65256e-06 0)
(3.51422e-05 2.70401e-06 0)
(3.51663e-05 2.7548e-06 0)
(3.51903e-05 2.80492e-06 0)
(3.52144e-05 2.85438e-06 0)
(3.52384e-05 2.90317e-06 0)
(3.52626e-05 2.95133e-06 0)
(3.52866e-05 2.99882e-06 0)
(3.53108e-05 3.04568e-06 0)
(3.53349e-05 3.0919e-06 0)
(3.5359e-05 3.13748e-06 0)
(3.53832e-05 3.18247e-06 0)
(3.54074e-05 3.22684e-06 0)
(3.54317e-05 3.27063e-06 0)
(3.5456e-05 3.31385e-06 0)
(3.54804e-05 3.35651e-06 0)
(3.55049e-05 3.39862e-06 0)
(3.55294e-05 3.44018e-06 0)
(3.5554e-05 3.4812e-06 0)
(3.55787e-05 3.5217e-06 0)
(3.56034e-05 3.56167e-06 0)
(3.56283e-05 3.60112e-06 0)
(3.56534e-05 3.64009e-06 0)
(3.56784e-05 3.67855e-06 0)
(3.57036e-05 3.71654e-06 0)
(3.5729e-05 3.75405e-06 0)
(3.57545e-05 3.79111e-06 0)
(3.57801e-05 3.82769e-06 0)
(3.58059e-05 3.86381e-06 0)
(3.58318e-05 3.89945e-06 0)
(3.58579e-05 3.93463e-06 0)
(3.58841e-05 3.96934e-06 0)
(3.59106e-05 4.00358e-06 0)
(3.59372e-05 4.03736e-06 0)
(3.5964e-05 4.07068e-06 0)
(3.59911e-05 4.10354e-06 0)
(3.60183e-05 4.13596e-06 0)
(3.60458e-05 4.16792e-06 0)
(3.60734e-05 4.19942e-06 0)
(3.61014e-05 4.23045e-06 0)
(3.61295e-05 4.261e-06 0)
(3.6158e-05 4.29107e-06 0)
(3.61866e-05 4.32066e-06 0)
(3.62156e-05 4.34976e-06 0)
(3.62449e-05 4.37837e-06 0)
(3.62744e-05 4.4065e-06 0)
(3.63043e-05 4.43413e-06 0)
(3.63345e-05 4.46127e-06 0)
(3.63651e-05 4.48791e-06 0)
(3.6396e-05 4.51405e-06 0)
(3.64273e-05 4.53967e-06 0)
(3.6459e-05 4.56478e-06 0)
(3.6491e-05 4.58938e-06 0)
(3.65236e-05 4.61344e-06 0)
(3.65565e-05 4.63698e-06 0)
(3.659e-05 4.66e-06 0)
(3.66239e-05 4.68249e-06 0)
(3.66584e-05 4.70447e-06 0)
(3.66934e-05 4.72594e-06 0)
(3.6729e-05 4.74692e-06 0)
(3.67652e-05 4.76741e-06 0)
(3.68021e-05 4.78743e-06 0)
(3.68397e-05 4.80699e-06 0)
(3.6878e-05 4.82612e-06 0)
(3.69171e-05 4.84482e-06 0)
(3.69571e-05 4.86308e-06 0)
(3.69979e-05 4.88089e-06 0)
(3.70396e-05 4.89823e-06 0)
(3.70823e-05 4.91506e-06 0)
(3.71259e-05 4.93131e-06 0)
(3.71705e-05 4.9469e-06 0)
(3.72162e-05 4.96177e-06 0)
(3.72629e-05 4.97584e-06 0)
(3.73107e-05 4.98905e-06 0)
(3.73596e-05 5.0014e-06 0)
(3.74098e-05 5.01293e-06 0)
(3.74614e-05 5.02374e-06 0)
(3.75147e-05 5.03402e-06 0)
(3.757e-05 5.04403e-06 0)
(3.76277e-05 5.05409e-06 0)
(3.76883e-05 5.06455e-06 0)
(3.77521e-05 5.07571e-06 0)
(3.78197e-05 5.08768e-06 0)
(3.78911e-05 5.10015e-06 0)
(3.79665e-05 5.11215e-06 0)
(3.80452e-05 5.12213e-06 0)
(3.81253e-05 5.12842e-06 0)
(3.8205e-05 5.13012e-06 0)
(3.82858e-05 5.12772e-06 0)
(3.8373e-05 5.12183e-06 0)
(3.84723e-05 5.32238e-06 0)
(3.85802e-05 2.34031e-06 0)
(3.87188e-05 1.70301e-05 0)
(5.9918e-05 -4.50594e-05 0)
(0.00459309 -0.000266567 0)
(0.118886 -0.000459168 0)
(0.230856 -0.000482702 0)
(0.327311 -0.00050243 0)
(0.411863 -0.00051497 0)
(0.487074 -0.000520525 0)
(0.554735 -0.000519951 0)
(0.616155 -0.000514301 0)
(0.672329 -0.000505661 0)
(0.723957 -0.000491432 0)
(0.771613 -0.000475545 0)
(0.815774 -0.000458442 0)
(0.856839 -0.000440485 0)
(0.895151 -0.000422066 0)
(0.931001 -0.000403521 0)
(0.964642 -0.0003851 0)
(0.996292 -0.00036698 0)
(1.02614 -0.000349279 0)
(1.05436 -0.000332066 0)
(1.08109 -0.000315375 0)
(1.10646 -0.000299212 0)
(1.13059 -0.000283565 0)
(1.15357 -0.00026841 0)
(1.1755 -0.000253723 0)
(1.19646 -0.000239474 0)
(1.2165 -0.000225637 0)
(1.23571 -0.00021219 0)
(1.25413 -0.000199117 0)
(1.27182 -0.000186408 0)
(1.2888 -0.000174058 0)
(1.30514 -0.000162067 0)
(1.32085 -0.00015044 0)
(1.33597 -0.000139186 0)
(1.35053 -0.000128317 0)
(1.36455 -0.000117849 0)
(1.37805 -0.000107798 0)
(1.39105 -9.81811e-05 0)
(1.40355 -8.9015e-05 0)
(1.41559 -8.03165e-05 0)
(1.42715 -7.21004e-05 0)
(1.43826 -6.43792e-05 0)
(1.44891 -5.71622e-05 0)
(1.45912 -5.04551e-05 0)
(1.46887 -4.42594e-05 0)
(1.47817 -3.85725e-05 0)
(1.48701 -3.33875e-05 0)
(1.4954 -2.86927e-05 0)
(1.50331 -2.44692e-05 0)
(1.51075 -2.06897e-05 0)
(1.51771 -1.73205e-05 0)
(1.52417 -1.43302e-05 0)
(1.53013 -1.16996e-05 0)
(1.53558 -9.42471e-06 0)
(1.54053 -7.50788e-06 0)
(1.54497 -5.94268e-06 0)
(1.54892 -4.70316e-06 0)
(1.5524 -3.74469e-06 0)
(1.55542 -3.01343e-06 0)
(1.55804 -2.45145e-06 0)
(1.56031 -2.01501e-06 0)
(1.56224 -1.67364e-06 0)
(1.56386 -1.40378e-06 0)
(1.56518 -1.18791e-06 0)
(1.56625 -1.01314e-06 0)
(1.56707 -8.70008e-07 0)
(1.56769 -7.51507e-07 0)
(1.56811 -6.52389e-07 0)
(1.56837 -5.68686e-07 0)
(1.56847 -4.97364e-07 0)
(1.56844 -4.36075e-07 0)
(1.56829 -3.82978e-07 0)
(1.56802 -3.36625e-07 0)
(1.56764 -2.9588e-07 0)
(1.56717 -2.5984e-07 0)
(1.56661 -2.27786e-07 0)
(1.56596 -1.99159e-07 0)
(1.56522 -1.73533e-07 0)
(1.56441 -1.50573e-07 0)
(1.56352 -1.30021e-07 0)
(1.56255 -1.11681e-07 0)
(1.56151 -9.53936e-08 0)
(1.5604 -8.10117e-08 0)
(1.55922 -6.83933e-08 0)
(1.55797 -5.73988e-08 0)
(1.55666 -4.7888e-08 0)
(1.55528 -3.97169e-08 0)
(1.55383 -3.27426e-08 0)
(1.55233 -2.68388e-08 0)
(1.55076 -2.18646e-08 0)
(1.54914 -1.76849e-08 0)
(1.54746 -1.42585e-08 0)
(1.54572 -1.13929e-08 0)
(1.54393 -9.05525e-09 0)
(1.54209 -6.91389e-09 0)
(1.5402 -5.02928e-09 0)
(1.53826 -3.73185e-09 0)
(1.53628 -2.70287e-09 0)
(1.53426 -1.92625e-09 0)
(1.5322 -1.35555e-09 0)
(1.53011 -9.36936e-10 0)
(1.52799 -6.29762e-10 0)
(1.52584 -4.05051e-10 0)
(1.52367 -2.36104e-10 0)
(1.52149 -1.38792e-10 0)
(1.5193 -6.28225e-11 0)
(1.51711 1.40458e-12 0)
(1.51492 3.67723e-12 0)
(1.51275 -2.05828e-12 0)
(1.5106 -2.58552e-12 0)
(1.50848 -2.14438e-12 0)
(1.50641 -1.98115e-12 0)
(1.5044 -1.93506e-12 0)
(1.50247 -1.86801e-12 0)
(1.50062 -1.75861e-12 0)
(1.49889 -1.6762e-12 0)
(1.49728 -2.00608e-12 0)
(1.49583 -3.41727e-12 0)
(1.49455 1.06177e-11 0)
(1.49347 -3.5492e-11 0)
(1.49261 6.93179e-11 0)
(1.49199 -1.23949e-10 0)
(1.49163 1.89266e-10 0)
(1.49152 -2.72975e-10 0)
(1.49161 3.63258e-10 0)
(1.4917 -4.64673e-10 0)
(1.49171 5.66303e-10 0)
(1.49171 -6.74082e-10 0)
(1.49171 7.80686e-10 0)
(1.49171 -8.92873e-10 0)
(1.49171 1.00443e-09 0)
(1.49171 -1.12146e-09 0)
(1.49171 1.23836e-09 0)
(1.49171 -1.36063e-09 0)
(1.49171 1.48326e-09 0)
(1.49171 -1.61112e-09 0)
(1.49171 1.73978e-09 0)
(1.49171 -1.87352e-09 0)
(1.49171 2.00851e-09 0)
(1.49171 -2.14841e-09 0)
(1.49171 2.28994e-09 0)
(1.49171 -2.43624e-09 0)
(1.49171 2.58453e-09 0)
(1.49171 -2.73742e-09 0)
(1.49171 2.89264e-09 0)
(1.49171 -3.05233e-09 0)
(1.49171 3.21459e-09 0)
(1.49171 -3.38119e-09 0)
(1.49171 3.55063e-09 0)
(1.49171 -3.72426e-09 0)
(1.49171 3.90097e-09 0)
(1.49171 -4.08173e-09 0)
(1.49171 4.26576e-09 0)
(1.49171 -4.45372e-09 0)
(1.49171 4.6451e-09 0)
(1.49171 -4.84021e-09 0)
(1.49171 5.03902e-09 0)
(1.49171 -5.24139e-09 0)
(1.49171 5.44759e-09 0)
(1.49171 -5.65713e-09 0)
(1.49171 5.87058e-09 0)
(1.49171 -6.0873e-09 0)
(1.49171 6.30789e-09 0)
(1.49171 -6.53166e-09 0)
(1.49171 6.75925e-09 0)
(1.49171 -6.9899e-09 0)
(1.49171 7.22426e-09 0)
(1.49171 -7.46156e-09 0)
(1.49171 6.76286e-09 0)
(1.49171 -6.8501e-09 0)
(1.49171 6.93669e-09 0)
(1.49171 -7.02203e-09 0)
(1.49171 7.10668e-09 0)
(1.49171 -7.19009e-09 0)
(1.49171 7.27276e-09 0)
(1.49171 -7.3542e-09 0)
(1.49171 7.43486e-09 0)
(1.49171 -7.5143e-09 0)
(1.49171 7.59289e-09 0)
(1.49171 -7.67031e-09 0)
(1.49171 7.74679e-09 0)
(1.49171 -7.82213e-09 0)
(1.49171 7.89646e-09 0)
(1.49171 -7.96968e-09 0)
(1.49171 8.04179e-09 0)
(1.49171 -8.11287e-09 0)
(1.49171 8.1826e-09 0)
(1.49171 -8.25163e-09 0)
(1.49171 8.31882e-09 0)
(1.49171 -8.38584e-09 0)
(1.49171 8.45035e-09 0)
(1.49171 -8.51528e-09 0)
(1.49171 8.57706e-09 0)
(1.49171 -8.63975e-09 0)
(1.49171 8.69877e-09 0)
(1.49171 -8.7591e-09 0)
(1.49171 8.81523e-09 0)
(1.49171 -8.87304e-09 0)
(1.49171 8.9263e-09 0)
(1.49171 -8.9813e-09 0)
(1.49171 9.03166e-09 0)
(1.49171 -9.08353e-09 0)
(1.49171 9.13096e-09 0)
(1.49171 -9.17952e-09 0)
(1.49171 9.22372e-09 0)
(1.49171 -9.26872e-09 0)
(1.49171 9.30964e-09 0)
(1.49171 -9.35052e-09 0)
(1.49171 9.38806e-09 0)
(1.49171 -9.4242e-09 0)
(1.49171 9.4582e-09 0)
(1.49171 -9.48877e-09 0)
(1.49171 9.51888e-09 0)
(1.49171 -9.54306e-09 0)
(1.49171 9.56802e-09 0)
(1.49171 -9.58432e-09 0)
(1.49171 9.60124e-09 0)
(1.49171 -9.60817e-09 0)
)
;

boundaryField
{
    inandouthalf11
    {
        type            cyclic;
    }
    inandouthalf12
    {
        type            cyclic;
    }
    inandouthalf21
    {
        type            cyclic;
    }
    inandouthalf22
    {
        type            cyclic;
    }
    inandouthalf31
    {
        type            cyclic;
    }
    inandouthalf32
    {
        type            cyclic;
    }
    inandouthalf41
    {
        type            cyclic;
    }
    inandouthalf42
    {
        type            cyclic;
    }
    top
    {
        type            symmetryPlane;
    }
    walls
    {
        type            fixedValue;
        value           uniform (0 0 0);
    }
    frontAndBackPlanes
    {
        type            empty;
    }
}


// ************************************************************************* //
