/*--------------------------------*- C++ -*----------------------------------*\
| =========                 |                                                 |
| \\      /  F ield         | OpenFOAM: The Open Source CFD Toolbox           |
|  \\    /   O peration     | Version:  2.4.x                                 |
|   \\  /    A nd           | Web:      www.OpenFOAM.org                      |
|    \\/     M anipulation  |                                                 |
\*---------------------------------------------------------------------------*/
FoamFile
{
    version     2.0;
    format      ascii;
    class       volVectorField;
    location    "9";
    object      Ub_0;
}
// * * * * * * * * * * * * * * * * * * * * * * * * * * * * * * * * * * * * * //

dimensions      [0 1 -1 0 0 0 0];

internalField   nonuniform List<vector> 
360
(
(3.43614e-05 1.47958e-08 0)
(3.41818e-05 5.25911e-08 0)
(3.4165e-05 9.70565e-08 0)
(3.41995e-05 1.39176e-07 0)
(3.42212e-05 1.8154e-07 0)
(3.4235e-05 2.25485e-07 0)
(3.42502e-05 2.70596e-07 0)
(3.42669e-05 3.16458e-07 0)
(3.42841e-05 3.63022e-07 0)
(3.43016e-05 4.10383e-07 0)
(3.43194e-05 4.58621e-07 0)
(3.43374e-05 5.07762e-07 0)
(3.43558e-05 5.57799e-07 0)
(3.43746e-05 6.08714e-07 0)
(3.43936e-05 6.60485e-07 0)
(3.4413e-05 7.13091e-07 0)
(3.44327e-05 7.66509e-07 0)
(3.44527e-05 8.20705e-07 0)
(3.4473e-05 8.75635e-07 0)
(3.44936e-05 9.31259e-07 0)
(3.45145e-05 9.87524e-07 0)
(3.45357e-05 1.04438e-06 0)
(3.45571e-05 1.10177e-06 0)
(3.45788e-05 1.15965e-06 0)
(3.46007e-05 1.21795e-06 0)
(3.46229e-05 1.27663e-06 0)
(3.46452e-05 1.33562e-06 0)
(3.46678e-05 1.39486e-06 0)
(3.46905e-05 1.45429e-06 0)
(3.47134e-05 1.51386e-06 0)
(3.47365e-05 1.5735e-06 0)
(3.47598e-05 1.63316e-06 0)
(3.47831e-05 1.69277e-06 0)
(3.48066e-05 1.75228e-06 0)
(3.48302e-05 1.81164e-06 0)
(3.48539e-05 1.87078e-06 0)
(3.48776e-05 1.92966e-06 0)
(3.49015e-05 1.98823e-06 0)
(3.49254e-05 2.04645e-06 0)
(3.49493e-05 2.10425e-06 0)
(3.49733e-05 2.16162e-06 0)
(3.49973e-05 2.21851e-06 0)
(3.50213e-05 2.27487e-06 0)
(3.50455e-05 2.3307e-06 0)
(3.50695e-05 2.38595e-06 0)
(3.50936e-05 2.44061e-06 0)
(3.51177e-05 2.49466e-06 0)
(3.51417e-05 2.54807e-06 0)
(3.51658e-05 2.60082e-06 0)
(3.519e-05 2.65294e-06 0)
(3.5214e-05 2.70439e-06 0)
(3.52381e-05 2.75518e-06 0)
(3.52622e-05 2.8053e-06 0)
(3.52863e-05 2.85476e-06 0)
(3.53103e-05 2.90356e-06 0)
(3.53345e-05 2.95171e-06 0)
(3.53586e-05 2.9992e-06 0)
(3.53827e-05 3.04607e-06 0)
(3.54069e-05 3.09229e-06 0)
(3.5431e-05 3.13788e-06 0)
(3.54553e-05 3.18286e-06 0)
(3.54795e-05 3.22723e-06 0)
(3.55038e-05 3.27103e-06 0)
(3.55282e-05 3.31425e-06 0)
(3.55526e-05 3.35692e-06 0)
(3.5577e-05 3.39902e-06 0)
(3.56016e-05 3.44059e-06 0)
(3.56263e-05 3.48162e-06 0)
(3.5651e-05 3.52212e-06 0)
(3.56757e-05 3.56209e-06 0)
(3.57006e-05 3.60155e-06 0)
(3.57257e-05 3.64052e-06 0)
(3.57507e-05 3.67899e-06 0)
(3.5776e-05 3.71698e-06 0)
(3.58014e-05 3.7545e-06 0)
(3.5827e-05 3.79155e-06 0)
(3.58526e-05 3.82814e-06 0)
(3.58784e-05 3.86426e-06 0)
(3.59044e-05 3.89991e-06 0)
(3.59305e-05 3.9351e-06 0)
(3.59568e-05 3.96981e-06 0)
(3.59832e-05 4.00405e-06 0)
(3.60099e-05 4.03783e-06 0)
(3.60367e-05 4.07116e-06 0)
(3.60638e-05 4.10403e-06 0)
(3.60911e-05 4.13645e-06 0)
(3.61186e-05 4.16841e-06 0)
(3.61463e-05 4.19991e-06 0)
(3.61743e-05 4.23095e-06 0)
(3.62025e-05 4.26151e-06 0)
(3.62309e-05 4.29159e-06 0)
(3.62596e-05 4.32118e-06 0)
(3.62886e-05 4.35028e-06 0)
(3.63179e-05 4.3789e-06 0)
(3.63476e-05 4.40702e-06 0)
(3.63775e-05 4.43466e-06 0)
(3.64077e-05 4.4618e-06 0)
(3.64383e-05 4.48845e-06 0)
(3.64693e-05 4.51459e-06 0)
(3.65006e-05 4.54022e-06 0)
(3.65324e-05 4.56534e-06 0)
(3.65645e-05 4.58993e-06 0)
(3.65971e-05 4.61401e-06 0)
(3.66301e-05 4.63755e-06 0)
(3.66636e-05 4.66057e-06 0)
(3.66975e-05 4.68307e-06 0)
(3.67321e-05 4.70505e-06 0)
(3.67671e-05 4.72653e-06 0)
(3.68028e-05 4.7475e-06 0)
(3.68391e-05 4.768e-06 0)
(3.6876e-05 4.78802e-06 0)
(3.69137e-05 4.80759e-06 0)
(3.69521e-05 4.82672e-06 0)
(3.69912e-05 4.84542e-06 0)
(3.70313e-05 4.86369e-06 0)
(3.70721e-05 4.88151e-06 0)
(3.71139e-05 4.89885e-06 0)
(3.71567e-05 4.91568e-06 0)
(3.72004e-05 4.93193e-06 0)
(3.72451e-05 4.94754e-06 0)
(3.72908e-05 4.96241e-06 0)
(3.73376e-05 4.97648e-06 0)
(3.73854e-05 4.9897e-06 0)
(3.74345e-05 5.00205e-06 0)
(3.74847e-05 5.01358e-06 0)
(3.75365e-05 5.0244e-06 0)
(3.75899e-05 5.03469e-06 0)
(3.76453e-05 5.04471e-06 0)
(3.7703e-05 5.05477e-06 0)
(3.77637e-05 5.06523e-06 0)
(3.78277e-05 5.0764e-06 0)
(3.78953e-05 5.08839e-06 0)
(3.79669e-05 5.10086e-06 0)
(3.80425e-05 5.11287e-06 0)
(3.81213e-05 5.12286e-06 0)
(3.82015e-05 5.12915e-06 0)
(3.82814e-05 5.13086e-06 0)
(3.83623e-05 5.12846e-06 0)
(3.84497e-05 5.12279e-06 0)
(3.85492e-05 5.29556e-06 0)
(3.86573e-05 2.55028e-06 0)
(3.87961e-05 1.64393e-05 0)
(5.98958e-05 -4.23564e-05 0)
(0.00456841 -0.000258455 0)
(0.118869 -0.000459062 0)
(0.230847 -0.000483027 0)
(0.327308 -0.000502839 0)
(0.411864 -0.000515416 0)
(0.487078 -0.000520989 0)
(0.554743 -0.000520421 0)
(0.616166 -0.000514769 0)
(0.672343 -0.00050612 0)
(0.723972 -0.000491875 0)
(0.77163 -0.00047597 0)
(0.815793 -0.000458846 0)
(0.85686 -0.000440867 0)
(0.895173 -0.000422426 0)
(0.931025 -0.000403858 0)
(0.964667 -0.000385415 0)
(0.996318 -0.000367274 0)
(1.02617 -0.000349552 0)
(1.05439 -0.000332319 0)
(1.08112 -0.000315608 0)
(1.10649 -0.000299426 0)
(1.13062 -0.000283761 0)
(1.15361 -0.000268589 0)
(1.17554 -0.000253884 0)
(1.19649 -0.000239619 0)
(1.21654 -0.000225766 0)
(1.23575 -0.000212305 0)
(1.25417 -0.000199218 0)
(1.27185 -0.000186496 0)
(1.28884 -0.000174134 0)
(1.30518 -0.000162131 0)
(1.32089 -0.000150493 0)
(1.33602 -0.000139229 0)
(1.35057 -0.000128352 0)
(1.36459 -0.000117875 0)
(1.37809 -0.000107817 0)
(1.39109 -9.81929e-05 0)
(1.4036 -8.9021e-05 0)
(1.41563 -8.03175e-05 0)
(1.4272 -7.20971e-05 0)
(1.4383 -6.43723e-05 0)
(1.44896 -5.71525e-05 0)
(1.45916 -5.04432e-05 0)
(1.46891 -4.42459e-05 0)
(1.47821 -3.85579e-05 0)
(1.48705 -3.33724e-05 0)
(1.49543 -2.86774e-05 0)
(1.50335 -2.44541e-05 0)
(1.51078 -2.0675e-05 0)
(1.51773 -1.73063e-05 0)
(1.52419 -1.43168e-05 0)
(1.53015 -1.16872e-05 0)
(1.5356 -9.41354e-06 0)
(1.54055 -7.49828e-06 0)
(1.54499 -5.93477e-06 0)
(1.54893 -4.69689e-06 0)
(1.5524 -3.73986e-06 0)
(1.55542 -3.00976e-06 0)
(1.55804 -2.44868e-06 0)
(1.56031 -2.01291e-06 0)
(1.56224 -1.67204e-06 0)
(1.56385 -1.40255e-06 0)
(1.56517 -1.18695e-06 0)
(1.56623 -1.01239e-06 0)
(1.56706 -8.69412e-07 0)
(1.56767 -7.5103e-07 0)
(1.56809 -6.52003e-07 0)
(1.56835 -5.6837e-07 0)
(1.56845 -4.97104e-07 0)
(1.56842 -4.35859e-07 0)
(1.56826 -3.82797e-07 0)
(1.56799 -3.36472e-07 0)
(1.56762 -2.9575e-07 0)
(1.56715 -2.59729e-07 0)
(1.56658 -2.27691e-07 0)
(1.56593 -1.99076e-07 0)
(1.5652 -1.73461e-07 0)
(1.56438 -1.50511e-07 0)
(1.56349 -1.29966e-07 0)
(1.56252 -1.11633e-07 0)
(1.56148 -9.53526e-08 0)
(1.56037 -8.09764e-08 0)
(1.55919 -6.83631e-08 0)
(1.55794 -5.73731e-08 0)
(1.55663 -4.78662e-08 0)
(1.55525 -3.96986e-08 0)
(1.5538 -3.27274e-08 0)
(1.5523 -2.68262e-08 0)
(1.55073 -2.18541e-08 0)
(1.54911 -1.76763e-08 0)
(1.54743 -1.42515e-08 0)
(1.54569 -1.13871e-08 0)
(1.5439 -9.05054e-09 0)
(1.54205 -6.91034e-09 0)
(1.54016 -5.02651e-09 0)
(1.53823 -3.72945e-09 0)
(1.53625 -2.70104e-09 0)
(1.53422 -1.92499e-09 0)
(1.53217 -1.35478e-09 0)
(1.53007 -9.36528e-10 0)
(1.52795 -6.29589e-10 0)
(1.5258 -4.04962e-10 0)
(1.52364 -2.36103e-10 0)
(1.52146 -1.38801e-10 0)
(1.51926 -6.24967e-11 0)
(1.51707 1.82144e-12 0)
(1.51488 3.91709e-12 0)
(1.51271 -1.80043e-12 0)
(1.51056 -2.32723e-12 0)
(1.50845 -1.89535e-12 0)
(1.50638 -1.74224e-12 0)
(1.50437 -1.705e-12 0)
(1.50243 -1.64618e-12 0)
(1.50059 -1.54556e-12 0)
(1.49885 -1.47186e-12 0)
(1.49725 -1.81054e-12 0)
(1.49579 -3.23485e-12 0)
(1.49451 1.08145e-11 0)
(1.49343 -3.53482e-11 0)
(1.49257 6.95311e-11 0)
(1.49196 -1.23851e-10 0)
(1.4916 1.89494e-10 0)
(1.49149 -2.72935e-10 0)
(1.49158 3.63481e-10 0)
(1.49167 -4.64682e-10 0)
(1.49168 5.66512e-10 0)
(1.49168 -6.7413e-10 0)
(1.49168 7.80879e-10 0)
(1.49168 -8.92954e-10 0)
(1.49168 1.00462e-09 0)
(1.49168 -1.12157e-09 0)
(1.49168 1.23854e-09 0)
(1.49168 -1.36078e-09 0)
(1.49168 1.48343e-09 0)
(1.49168 -1.61129e-09 0)
(1.49168 1.73995e-09 0)
(1.49168 -1.87372e-09 0)
(1.49168 2.00869e-09 0)
(1.49168 -2.14863e-09 0)
(1.49168 2.29012e-09 0)
(1.49168 -2.43649e-09 0)
(1.49168 2.58472e-09 0)
(1.49168 -2.7377e-09 0)
(1.49168 2.89284e-09 0)
(1.49168 -3.05262e-09 0)
(1.49168 3.21481e-09 0)
(1.49168 -3.3815e-09 0)
(1.49168 3.55088e-09 0)
(1.49168 -3.72459e-09 0)
(1.49168 3.90125e-09 0)
(1.49168 -4.08206e-09 0)
(1.49168 4.26608e-09 0)
(1.49168 -4.45406e-09 0)
(1.49168 4.64545e-09 0)
(1.49168 -4.84057e-09 0)
(1.49168 5.03939e-09 0)
(1.49168 -5.24176e-09 0)
(1.49168 5.44799e-09 0)
(1.49168 -5.65752e-09 0)
(1.49168 5.87102e-09 0)
(1.49168 -6.0877e-09 0)
(1.49168 6.30837e-09 0)
(1.49168 -6.53207e-09 0)
(1.49168 6.75977e-09 0)
(1.49168 -6.99033e-09 0)
(1.49168 7.22482e-09 0)
(1.49168 -7.462e-09 0)
(1.49168 6.7634e-09 0)
(1.49168 -6.85048e-09 0)
(1.49168 6.93726e-09 0)
(1.49168 -7.0224e-09 0)
(1.49168 7.10728e-09 0)
(1.49168 -7.19045e-09 0)
(1.49168 7.27338e-09 0)
(1.49168 -7.35455e-09 0)
(1.49168 7.43549e-09 0)
(1.49168 -7.51465e-09 0)
(1.49168 7.59355e-09 0)
(1.49168 -7.67063e-09 0)
(1.49168 7.74749e-09 0)
(1.49168 -7.82245e-09 0)
(1.49168 7.89718e-09 0)
(1.49168 -7.96998e-09 0)
(1.49168 8.04254e-09 0)
(1.49168 -8.11315e-09 0)
(1.49168 8.18352e-09 0)
(1.49168 -8.2515e-09 0)
(1.49168 8.32028e-09 0)
(1.49168 -8.38522e-09 0)
(1.49168 8.45229e-09 0)
(1.49168 -8.5142e-09 0)
(1.49168 8.57942e-09 0)
(1.49168 -8.63835e-09 0)
(1.49168 8.70145e-09 0)
(1.49168 -8.7573e-09 0)
(1.49168 8.81829e-09 0)
(1.49168 -8.87103e-09 0)
(1.49168 8.92947e-09 0)
(1.49168 -8.97924e-09 0)
(1.49168 9.03477e-09 0)
(1.49168 -9.08173e-09 0)
(1.49168 9.13385e-09 0)
(1.49168 -9.17771e-09 0)
(1.49168 9.22664e-09 0)
(1.49168 -9.26714e-09 0)
(1.49168 9.31213e-09 0)
(1.49168 -9.34947e-09 0)
(1.49168 9.38983e-09 0)
(1.49168 -9.42416e-09 0)
(1.49168 9.45878e-09 0)
(1.49168 -9.49e-09 0)
(1.49168 9.51813e-09 0)
(1.49168 -9.54566e-09 0)
(1.49168 9.56576e-09 0)
(1.49168 -9.58854e-09 0)
(1.49168 9.59761e-09 0)
(1.49168 -9.61103e-09 0)
)
;

boundaryField
{
    inandouthalf11
    {
        type            cyclic;
    }
    inandouthalf12
    {
        type            cyclic;
    }
    inandouthalf21
    {
        type            cyclic;
    }
    inandouthalf22
    {
        type            cyclic;
    }
    inandouthalf31
    {
        type            cyclic;
    }
    inandouthalf32
    {
        type            cyclic;
    }
    inandouthalf41
    {
        type            cyclic;
    }
    inandouthalf42
    {
        type            cyclic;
    }
    top
    {
        type            symmetryPlane;
    }
    walls
    {
        type            fixedValue;
        value           uniform (0 0 0);
    }
    frontAndBackPlanes
    {
        type            empty;
    }
}


// ************************************************************************* //
