/*--------------------------------*- C++ -*----------------------------------*\
| =========                 |                                                 |
| \\      /  F ield         | OpenFOAM: The Open Source CFD Toolbox           |
|  \\    /   O peration     | Version:  2.4.x                                 |
|   \\  /    A nd           | Web:      www.OpenFOAM.org                      |
|    \\/     M anipulation  |                                                 |
\*---------------------------------------------------------------------------*/
FoamFile
{
    version     2.0;
    format      ascii;
    class       volVectorField;
    location    "9";
    object      Ur;
}
// * * * * * * * * * * * * * * * * * * * * * * * * * * * * * * * * * * * * * //

dimensions      [0 1 -1 0 0 0 0];

internalField   nonuniform List<vector> 
360
(
(3.42901e-05 1.47928e-08 0)
(3.41018e-05 8.7763e-08 0)
(3.40751e-05 1.60227e-07 0)
(3.41004e-05 2.27289e-07 0)
(3.41127e-05 2.96278e-07 0)
(3.41167e-05 3.68376e-07 0)
(3.41216e-05 4.42221e-07 0)
(3.41279e-05 5.17182e-07 0)
(3.41344e-05 5.93294e-07 0)
(3.4141e-05 6.70726e-07 0)
(3.41477e-05 7.49606e-07 0)
(3.41544e-05 8.29975e-07 0)
(3.41612e-05 9.11817e-07 0)
(3.4168e-05 9.95102e-07 0)
(3.41749e-05 1.07979e-06 0)
(3.41819e-05 1.16586e-06 0)
(3.41889e-05 1.25326e-06 0)
(3.41961e-05 1.34194e-06 0)
(3.42032e-05 1.43183e-06 0)
(3.42106e-05 1.52287e-06 0)
(3.42179e-05 1.61496e-06 0)
(3.42253e-05 1.70803e-06 0)
(3.42328e-05 1.80199e-06 0)
(3.42404e-05 1.89675e-06 0)
(3.4248e-05 1.99222e-06 0)
(3.42558e-05 2.0883e-06 0)
(3.42636e-05 2.1849e-06 0)
(3.42715e-05 2.28193e-06 0)
(3.42795e-05 2.37929e-06 0)
(3.42875e-05 2.47688e-06 0)
(3.42956e-05 2.57459e-06 0)
(3.43039e-05 2.67234e-06 0)
(3.43121e-05 2.77003e-06 0)
(3.43206e-05 2.86756e-06 0)
(3.4329e-05 2.96486e-06 0)
(3.43376e-05 3.06182e-06 0)
(3.43463e-05 3.15836e-06 0)
(3.4355e-05 3.25439e-06 0)
(3.43639e-05 3.34986e-06 0)
(3.43727e-05 3.44467e-06 0)
(3.43818e-05 3.53877e-06 0)
(3.4391e-05 3.63211e-06 0)
(3.44001e-05 3.72459e-06 0)
(3.44095e-05 3.8162e-06 0)
(3.44189e-05 3.90689e-06 0)
(3.44284e-05 3.99662e-06 0)
(3.44381e-05 4.08536e-06 0)
(3.44478e-05 4.17306e-06 0)
(3.44576e-05 4.2597e-06 0)
(3.44677e-05 4.34531e-06 0)
(3.44777e-05 4.42984e-06 0)
(3.44879e-05 4.5133e-06 0)
(3.44982e-05 4.59568e-06 0)
(3.45087e-05 4.67699e-06 0)
(3.45192e-05 4.75722e-06 0)
(3.45299e-05 4.83641e-06 0)
(3.45407e-05 4.91454e-06 0)
(3.45517e-05 4.99163e-06 0)
(3.45628e-05 5.06771e-06 0)
(3.45739e-05 5.14274e-06 0)
(3.45854e-05 5.2168e-06 0)
(3.45969e-05 5.28987e-06 0)
(3.46086e-05 5.36202e-06 0)
(3.46204e-05 5.43323e-06 0)
(3.46324e-05 5.50355e-06 0)
(3.46446e-05 5.57296e-06 0)
(3.46569e-05 5.6415e-06 0)
(3.46694e-05 5.70917e-06 0)
(3.46821e-05 5.776e-06 0)
(3.46948e-05 5.84197e-06 0)
(3.47079e-05 5.90711e-06 0)
(3.47212e-05 5.97147e-06 0)
(3.47345e-05 6.03503e-06 0)
(3.47482e-05 6.09781e-06 0)
(3.4762e-05 6.15983e-06 0)
(3.47761e-05 6.22112e-06 0)
(3.47903e-05 6.28166e-06 0)
(3.48047e-05 6.34144e-06 0)
(3.48194e-05 6.40047e-06 0)
(3.48344e-05 6.45875e-06 0)
(3.48495e-05 6.51627e-06 0)
(3.48649e-05 6.57305e-06 0)
(3.48806e-05 6.62909e-06 0)
(3.48966e-05 6.68439e-06 0)
(3.49128e-05 6.73897e-06 0)
(3.49293e-05 6.79283e-06 0)
(3.49461e-05 6.84596e-06 0)
(3.49631e-05 6.89836e-06 0)
(3.49805e-05 6.95e-06 0)
(3.49982e-05 7.00089e-06 0)
(3.50162e-05 7.05101e-06 0)
(3.50346e-05 7.10036e-06 0)
(3.50533e-05 7.14893e-06 0)
(3.50724e-05 7.19671e-06 0)
(3.50919e-05 7.24372e-06 0)
(3.51117e-05 7.28995e-06 0)
(3.5132e-05 7.3354e-06 0)
(3.51527e-05 7.38005e-06 0)
(3.51738e-05 7.42391e-06 0)
(3.51953e-05 7.46695e-06 0)
(3.52174e-05 7.50918e-06 0)
(3.52399e-05 7.55057e-06 0)
(3.52629e-05 7.59114e-06 0)
(3.52864e-05 7.63087e-06 0)
(3.53105e-05 7.66977e-06 0)
(3.53352e-05 7.70785e-06 0)
(3.53605e-05 7.74511e-06 0)
(3.53864e-05 7.78157e-06 0)
(3.54129e-05 7.81725e-06 0)
(3.54401e-05 7.85217e-06 0)
(3.5468e-05 7.88636e-06 0)
(3.54966e-05 7.91985e-06 0)
(3.5526e-05 7.95265e-06 0)
(3.55562e-05 7.98478e-06 0)
(3.55872e-05 8.01625e-06 0)
(3.56191e-05 8.04704e-06 0)
(3.56519e-05 8.0771e-06 0)
(3.56857e-05 8.10636e-06 0)
(3.57204e-05 8.13473e-06 0)
(3.57563e-05 8.16208e-06 0)
(3.57932e-05 8.18829e-06 0)
(3.58314e-05 8.21323e-06 0)
(3.58708e-05 8.23682e-06 0)
(3.59115e-05 8.25905e-06 0)
(3.59537e-05 8.27998e-06 0)
(3.59973e-05 8.2998e-06 0)
(3.60426e-05 8.3188e-06 0)
(3.60896e-05 8.33744e-06 0)
(3.61386e-05 8.35624e-06 0)
(3.61896e-05 8.3758e-06 0)
(3.62429e-05 8.39667e-06 0)
(3.62984e-05 8.41907e-06 0)
(3.63565e-05 8.44253e-06 0)
(3.64178e-05 8.46551e-06 0)
(3.64831e-05 8.48536e-06 0)
(3.65522e-05 8.49913e-06 0)
(3.6625e-05 8.50519e-06 0)
(3.67026e-05 8.50459e-06 0)
(3.67886e-05 8.49914e-06 0)
(3.68876e-05 8.69977e-06 0)
(3.69951e-05 5.71751e-06 0)
(3.71328e-05 2.04061e-05 0)
(5.81234e-05 -4.19389e-05 0)
(0.00415144 -0.000457848 0)
(0.0111186 -0.00151623 0)
(0.00930357 -0.00153351 0)
(0.0077269 -0.00182222 0)
(0.00668283 -0.00202733 0)
(0.00595734 -0.0022042 0)
(0.00542692 -0.00235711 0)
(0.00503552 -0.00249092 0)
(0.00477221 -0.00263839 0)
(0.00441114 -0.00275069 0)
(0.00406635 -0.00287369 0)
(0.00375863 -0.00299997 0)
(0.00348788 -0.00312927 0)
(0.003251 -0.00326319 0)
(0.00304521 -0.00340375 0)
(0.00286849 -0.0035527 0)
(0.00271938 -0.00371156 0)
(0.00259691 -0.00388157 0)
(0.00250042 -0.00406378 0)
(0.00242954 -0.00425899 0)
(0.00238405 -0.00446778 0)
(0.00236394 -0.00469053 0)
(0.00236947 -0.00492743 0)
(0.00240104 -0.0051785 0)
(0.00245934 -0.00544362 0)
(0.00254543 -0.00572251 0)
(0.00266084 -0.0060148 0)
(0.00280756 -0.00632 0)
(0.00298825 -0.00663755 0)
(0.00320621 -0.00696676 0)
(0.00346563 -0.0073069 0)
(0.00377157 -0.00765715 0)
(0.00413009 -0.0080166 0)
(0.00454828 -0.00838426 0)
(0.00503433 -0.00875907 0)
(0.0055974 -0.00913989 0)
(0.00624761 -0.00952544 0)
(0.00699573 -0.00991438 0)
(0.00785295 -0.0103052 0)
(0.00883046 -0.0106963 0)
(0.00993884 -0.0110858 0)
(0.0111875 -0.0114718 0)
(0.0125838 -0.011852 0)
(0.0141321 -0.0122238 0)
(0.015833 -0.0125842 0)
(0.0176822 -0.0129299 0)
(0.0196696 -0.0132571 0)
(0.0217787 -0.0135612 0)
(0.0239859 -0.0138358 0)
(0.0262605 -0.0140715 0)
(0.0285648 -0.0142553 0)
(0.030855 -0.0143735 0)
(0.0330832 -0.0144157 0)
(0.0352006 -0.0143791 0)
(0.0371623 -0.0142708 0)
(0.0389309 -0.0141047 0)
(0.0404807 -0.0138983 0)
(0.0417981 -0.0136685 0)
(0.0428924 -0.0134266 0)
(0.0437719 -0.0131804 0)
(0.0444398 -0.0129375 0)
(0.0449064 -0.0127031 0)
(0.0451869 -0.0124804 0)
(0.0452988 -0.0122716 0)
(0.0452605 -0.0120778 0)
(0.04509 -0.0118994 0)
(0.0448038 -0.0117367 0)
(0.0444161 -0.0115894 0)
(0.0439394 -0.0114572 0)
(0.0433836 -0.0113394 0)
(0.0427567 -0.0112357 0)
(0.0420651 -0.011145 0)
(0.0413134 -0.0110667 0)
(0.040505 -0.0109998 0)
(0.0396421 -0.0109432 0)
(0.0387261 -0.0108958 0)
(0.0377578 -0.0108564 0)
(0.0367373 -0.0108239 0)
(0.0356643 -0.0107969 0)
(0.0345385 -0.0107742 0)
(0.0333592 -0.0107549 0)
(0.0321259 -0.0107379 0)
(0.0308381 -0.0107222 0)
(0.0294952 -0.0107071 0)
(0.0280972 -0.0106919 0)
(0.0266438 -0.010676 0)
(0.0251352 -0.0106587 0)
(0.0235717 -0.0106394 0)
(0.0219538 -0.0106178 0)
(0.0202823 -0.010593 0)
(0.0185579 -0.0105623 0)
(0.0167823 -0.0105319 0)
(0.0149561 -0.0104828 0)
(0.0130638 -0.0103908 0)
(0.00173393 -0.00684569 0)
(0.000925538 -0.00941751 0)
(0.000830943 -0.00850515 0)
(0.000902871 -0.00860599 0)
(0.000915601 -0.00859041 0)
(0.000924236 -0.00857488 0)
(0.00093523 -0.00851035 0)
(0.000940301 -0.00835678 0)
(0.000972166 -0.0088879 0)
(0.00104464 -0.0049146 0)
(0.00086199 -0.0164891 0)
(0.00132681 0.0114365 0)
(0.00101353 0.039294 0)
(0.00120957 0.0396185 0)
(0.00117867 0.039607 0)
(0.00116661 0.0396079 0)
(0.0011499 0.0396082 0)
(0.00113044 0.039608 0)
(0.00110777 0.0396074 0)
(0.00108163 0.0396063 0)
(0.00105176 0.0396047 0)
(0.00101791 0.0396025 0)
(0.000979909 0.0395997 0)
(0.000937737 0.0395963 0)
(0.000891761 0.0395922 0)
(0.00084372 0.0395876 0)
(0.000800797 0.0395821 0)
(0.000733447 0.0395764 0)
(0.000694677 0.0395699 0)
(0.000677083 0.0395596 0)
(0.000693124 0.0395516 0)
(0.000695516 0.0395487 0)
(0.000695577 0.0395485 0)
(0.000695578 0.0395485 0)
(0.000695578 0.0395485 0)
(0.000695578 0.0395485 0)
(0.000695578 0.0395485 0)
(0.000695578 0.0395485 0)
(0.000695578 0.0395485 0)
(0.000695578 0.0395485 0)
(0.000695578 0.0395485 0)
(0.000695578 0.0395485 0)
(0.000695579 0.0395485 0)
(0.000695579 0.0395485 0)
(0.000695579 0.0395485 0)
(0.000695579 0.0395485 0)
(0.000695579 0.0395485 0)
(0.000695579 0.0395485 0)
(0.000695579 0.0395485 0)
(0.000695579 0.0395485 0)
(0.000695579 0.0395485 0)
(0.000695579 0.0395485 0)
(0.000695579 0.0395485 0)
(0.000695579 0.0395485 0)
(0.000695579 0.0395485 0)
(0.000695579 0.0395485 0)
(0.000695579 0.0395485 0)
(0.000695579 0.0395485 0)
(0.000695579 0.0395485 0)
(0.000695579 0.0395485 0)
(0.000695579 0.0395485 0)
(0.000695579 0.0395485 0)
(0.000695579 0.0395485 0)
(0.000695579 0.0395485 0)
(0.000695579 0.0395485 0)
(0.000695579 0.0395485 0)
(0.000695579 0.0395485 0)
(0.000695579 0.0395485 0)
(0.000695579 0.0395485 0)
(0.000695579 0.0395485 0)
(0.000695579 0.0395485 0)
(0.000695579 0.0395485 0)
(0.000695579 0.0395485 0)
(0.000695579 0.0395485 0)
(0.000695579 0.0395485 0)
(0.000695579 0.0395485 0)
(0.000695579 0.0395485 0)
(0.000695579 0.0395485 0)
(0.000695579 0.0395485 0)
(0.000695579 0.0395485 0)
(0.000695579 0.0395485 0)
(0.000695579 0.0395485 0)
(0.000695579 0.0395485 0)
(0.000695579 0.0395485 0)
(0.000695579 0.0395485 0)
(0.000695579 0.0395485 0)
(0.000695579 0.0395485 0)
(0.000695579 0.0395485 0)
(0.000695579 0.0395485 0)
(0.000695579 0.0395485 0)
(0.000695579 0.0395485 0)
(0.000695579 0.0395485 0)
(0.000695579 0.0395485 0)
(0.000695579 0.0395485 0)
(0.000695579 0.0395485 0)
(0.000695579 0.0395485 0)
(0.000695579 0.0395485 0)
(0.000695579 0.0395485 0)
(0.000695579 0.0395485 0)
(0.000695579 0.0395485 0)
(0.000695579 0.0395485 0)
(0.000695579 0.0395485 0)
(0.000695579 0.0395485 0)
(0.000695579 0.0395485 0)
(0.000695579 0.0395485 0)
(0.000695579 0.0395485 0)
(0.000695579 0.0395485 0)
(0.000695579 0.0395485 0)
(0.000695579 0.0395485 0)
(0.000695579 0.0395485 0)
(0.000695579 0.0395485 0)
(0.000695579 0.0395485 0)
(0.000695579 0.0395485 0)
(0.000695579 0.0395485 0)
(0.000695579 0.0395485 0)
(0.000695579 0.0395485 0)
(0.000695579 0.0395485 0)
(0.000695579 0.0395485 0)
(0.000695579 0.0395485 0)
(0.000695588 0.0395483 0)
(0.000695816 0.0395399 0)
(0.000701205 0.0391952 0)
(0.000822139 0.022497 0)
)
;

boundaryField
{
    inandouthalf11
    {
        type            cyclic;
    }
    inandouthalf12
    {
        type            cyclic;
    }
    inandouthalf21
    {
        type            cyclic;
    }
    inandouthalf22
    {
        type            cyclic;
    }
    inandouthalf31
    {
        type            cyclic;
    }
    inandouthalf32
    {
        type            cyclic;
    }
    inandouthalf41
    {
        type            cyclic;
    }
    inandouthalf42
    {
        type            cyclic;
    }
    top
    {
        type            symmetryPlane;
    }
    walls
    {
        type            calculated;
        value           uniform (0 0 0);
    }
    frontAndBackPlanes
    {
        type            empty;
    }
}


// ************************************************************************* //
