/*--------------------------------*- C++ -*----------------------------------*\
| =========                 |                                                 |
| \\      /  F ield         | OpenFOAM: The Open Source CFD Toolbox           |
|  \\    /   O peration     | Version:  2.4.x                                 |
|   \\  /    A nd           | Web:      www.OpenFOAM.org                      |
|    \\/     M anipulation  |                                                 |
\*---------------------------------------------------------------------------*/
FoamFile
{
    version     2.0;
    format      ascii;
    class       surfaceScalarField;
    location    "4.55";
    object      ddt0(phib);
}
// * * * * * * * * * * * * * * * * * * * * * * * * * * * * * * * * * * * * * //

dimensions      [0 3 -2 0 0 0 0];

internalField   nonuniform List<scalar> 
359
(
-2.71012e-13
-9.02333e-13
-1.54385e-12
-2.11373e-12
-2.65048e-12
-3.19712e-12
-3.76941e-12
-4.36198e-12
-4.96267e-12
-5.56639e-12
-6.17564e-12
-6.79682e-12
-7.43723e-12
-8.10283e-12
-8.79908e-12
-9.53094e-12
-1.03014e-11
-1.11088e-11
-1.19434e-11
-1.27856e-11
-1.3603e-11
-1.43552e-11
-1.49992e-11
-1.55026e-11
-1.58598e-11
-1.61102e-11
-1.63486e-11
-1.67294e-11
-1.74619e-11
-1.88097e-11
-2.10931e-11
-2.46873e-11
-2.99246e-11
-3.67792e-11
-4.40304e-11
-4.83647e-11
-4.52775e-11
-3.35816e-11
-1.86682e-11
-7.60335e-12
-2.30702e-12
-5.5624e-13
-1.13164e-13
-1.36621e-14
9.14127e-15
1.47119e-14
1.59036e-14
1.55705e-14
1.44712e-14
1.26878e-14
1.03638e-14
7.60466e-15
4.70416e-15
1.8397e-15
-7.48402e-16
-3.07417e-15
-5.05875e-15
-6.77304e-15
-8.34486e-15
-9.8282e-15
-1.12953e-14
-1.27757e-14
-1.43315e-14
-1.59548e-14
-1.7648e-14
-1.94024e-14
-2.12273e-14
-2.30988e-14
-2.50285e-14
-2.70719e-14
-2.91987e-14
-3.14447e-14
-3.38241e-14
-3.63097e-14
-3.89625e-14
-4.17254e-14
-4.45953e-14
-4.75686e-14
-5.06335e-14
-5.37856e-14
-5.70416e-14
-6.03415e-14
-6.37909e-14
-6.73229e-14
-7.09864e-14
-7.47984e-14
-7.87533e-14
-8.28347e-14
-8.70534e-14
-9.13498e-14
-9.58004e-14
-1.00348e-13
-1.04957e-13
-1.09664e-13
-1.14463e-13
-1.19349e-13
-1.24302e-13
-1.2932e-13
-1.34449e-13
-1.3963e-13
-1.4486e-13
-1.5016e-13
-1.55521e-13
-1.60879e-13
-1.66273e-13
-1.71712e-13
-1.77162e-13
-1.82641e-13
-1.88125e-13
-1.93568e-13
-1.9903e-13
-2.04443e-13
-2.09829e-13
-2.15212e-13
-2.20581e-13
-2.25859e-13
-2.3116e-13
-2.36431e-13
-2.41667e-13
-2.46896e-13
-2.52082e-13
-2.57259e-13
-2.62448e-13
-2.67653e-13
-2.72764e-13
-2.77829e-13
-2.82785e-13
-2.8761e-13
-2.92187e-13
-2.96508e-13
-3.00517e-13
-3.0413e-13
-3.07308e-13
-3.10098e-13
-3.12427e-13
-3.14382e-13
-3.16019e-13
-3.17306e-13
-3.18256e-13
-3.18714e-13
-3.18708e-13
-3.18302e-13
-3.17717e-13
-3.17358e-13
-3.25328e-13
-3.92109e-13
1.13242e-10
2.68548e-09
2.90473e-09
2.68601e-09
2.44154e-09
2.18125e-09
1.92912e-09
1.6917e-09
1.47381e-09
1.2776e-09
1.10309e-09
9.48938e-10
8.13036e-10
6.93243e-10
5.87502e-10
4.94134e-10
4.11699e-10
3.39058e-10
2.75248e-10
2.19482e-10
1.7105e-10
1.29323e-10
9.37285e-11
6.37268e-11
3.87194e-11
1.79084e-11
3.49652e-13
-1.44986e-11
-2.60655e-11
-3.29049e-11
-3.42032e-11
-3.09604e-11
-2.54193e-11
-1.96249e-11
-1.46708e-11
-1.08404e-11
-8.01971e-12
-5.98626e-12
-4.53325e-12
-3.50172e-12
-2.77934e-12
-2.28705e-12
-1.95784e-12
-1.71618e-12
-1.48701e-12
-1.23691e-12
-9.92339e-13
-7.95409e-13
-6.52678e-13
-5.41784e-13
-4.47732e-13
-3.70451e-13
-3.10153e-13
-2.60563e-13
-2.15138e-13
-1.75503e-13
-1.47506e-13
-1.25539e-13
-1.00332e-13
-7.75091e-14
-6.48538e-14
-5.41498e-14
-3.97578e-14
-2.90278e-14
-2.25798e-14
-1.51261e-14
-8.56068e-15
-4.11855e-15
7.26569e-16
4.62501e-15
6.65636e-15
9.30908e-15
1.20487e-14
1.32796e-14
1.438e-14
1.56397e-14
1.64546e-14
1.70722e-14
1.74587e-14
1.76622e-14
1.78762e-14
1.78489e-14
1.77093e-14
1.75834e-14
1.73746e-14
1.70979e-14
1.675e-14
1.62359e-14
1.56839e-14
1.50119e-14
1.48874e-14
1.43417e-14
1.37848e-14
1.32139e-14
1.26698e-14
1.2111e-14
1.15945e-14
1.10479e-14
1.05593e-14
1.00149e-14
9.53809e-15
9.03499e-15
8.5874e-15
8.11051e-15
7.67595e-15
7.2128e-15
6.81282e-15
6.38901e-15
5.99904e-15
5.58947e-15
5.21594e-15
4.83891e-15
4.50612e-15
4.15915e-15
3.8554e-15
3.55918e-15
3.30814e-15
3.04387e-15
2.796e-15
2.55601e-15
2.35482e-15
2.15535e-15
1.98655e-15
1.83286e-15
1.72491e-15
1.62463e-15
1.51622e-15
1.41627e-15
1.3421e-15
1.28803e-15
1.21724e-15
1.16901e-15
1.13005e-15
1.10356e-15
1.05012e-15
1.00506e-15
9.65775e-16
9.38306e-16
8.98095e-16
8.52116e-16
8.20157e-16
7.65165e-16
7.34878e-16
6.81387e-16
6.26316e-16
5.62581e-16
5.05111e-16
4.34447e-16
3.6805e-16
3.00042e-16
2.78779e-16
2.52992e-16
2.41113e-16
2.24973e-16
2.26535e-16
2.097e-16
1.91905e-16
1.56665e-16
1.61123e-16
1.37883e-16
1.14685e-16
3.63449e-17
-6.65744e-18
-9.03496e-17
-1.63483e-16
-2.65287e-16
-3.08856e-16
-3.86367e-16
-4.67282e-16
-5.69875e-16
-6.58022e-16
-7.71759e-16
-8.9202e-16
-1.03919e-15
-1.19618e-15
-1.38376e-15
-1.58546e-15
-1.80707e-15
-2.08419e-15
-2.39991e-15
-2.83454e-15
-3.65708e-15
-5.20015e-15
-7.11473e-15
-9.16309e-15
-1.11924e-14
-1.33726e-14
-1.54283e-14
-1.75203e-14
-1.93651e-14
-2.19083e-14
-2.39692e-14
-2.60471e-14
-2.73534e-14
-2.95211e-14
-3.0447e-14
-3.15627e-14
-3.13646e-14
-3.50515e-14
-3.64709e-14
-3.79881e-14
-3.61075e-14
-3.67687e-14
-3.33362e-14
-2.98458e-14
-2.43023e-14
-1.82012e-14
-1.0408e-14
-2.42135e-15
1.90529e-15
2.07543e-14
1.24867e-14
-1.21539e-14
)
;

boundaryField
{
    inandouthalf11
    {
        type            cyclic;
        value           nonuniform List<scalar> 
100
(
-9.60554e-11
-9.57877e-11
-9.57005e-11
-9.57667e-11
-9.58362e-11
-9.58897e-11
-9.59408e-11
-9.59926e-11
-9.60439e-11
-9.60961e-11
-9.61497e-11
-9.62039e-11
-9.6259e-11
-9.63148e-11
-9.63717e-11
-9.64302e-11
-9.64906e-11
-9.65528e-11
-9.66167e-11
-9.66818e-11
-9.67464e-11
-9.68094e-11
-9.68686e-11
-9.6922e-11
-9.69685e-11
-9.70085e-11
-9.70447e-11
-9.70832e-11
-9.71322e-11
-9.72029e-11
-9.73094e-11
-9.74693e-11
-9.77004e-11
-9.80167e-11
-9.83957e-11
-9.87351e-11
-9.88207e-11
-9.84635e-11
-9.7771e-11
-9.71242e-11
-9.67656e-11
-9.66374e-11
-9.6607e-11
-9.66059e-11
-9.66111e-11
-9.66185e-11
-9.66269e-11
-9.66354e-11
-9.66452e-11
-9.66564e-11
-9.66675e-11
-9.66799e-11
-9.66929e-11
-9.67071e-11
-9.67217e-11
-9.6738e-11
-9.67545e-11
-9.67726e-11
-9.67914e-11
-9.68108e-11
-9.68319e-11
-9.6853e-11
-9.68754e-11
-9.68981e-11
-9.69214e-11
-9.69452e-11
-9.69699e-11
-9.69955e-11
-9.70219e-11
-9.7049e-11
-9.70778e-11
-9.71076e-11
-9.71379e-11
-9.71695e-11
-9.72018e-11
-9.72352e-11
-9.72688e-11
-9.73033e-11
-9.73386e-11
-9.73748e-11
-9.74118e-11
-9.74499e-11
-9.7489e-11
-9.75292e-11
-9.75704e-11
-9.76126e-11
-9.76558e-11
-9.76999e-11
-9.77449e-11
-9.77909e-11
-9.78379e-11
-9.7886e-11
-9.79352e-11
-9.79855e-11
-9.80371e-11
-9.80899e-11
-9.8144e-11
-9.81994e-11
-9.8256e-11
-9.8314e-11
)
;
    }
    inandouthalf12
    {
        type            cyclic;
        value           nonuniform List<scalar> 
100
(
9.60554e-11
9.57877e-11
9.57005e-11
9.57667e-11
9.58362e-11
9.58897e-11
9.59408e-11
9.59926e-11
9.60439e-11
9.60961e-11
9.61497e-11
9.62039e-11
9.6259e-11
9.63148e-11
9.63717e-11
9.64302e-11
9.64906e-11
9.65528e-11
9.66167e-11
9.66818e-11
9.67464e-11
9.68094e-11
9.68686e-11
9.6922e-11
9.69685e-11
9.70085e-11
9.70447e-11
9.70832e-11
9.71322e-11
9.72029e-11
9.73094e-11
9.74693e-11
9.77004e-11
9.80167e-11
9.83957e-11
9.87351e-11
9.88207e-11
9.84635e-11
9.7771e-11
9.71242e-11
9.67656e-11
9.66374e-11
9.6607e-11
9.66059e-11
9.66111e-11
9.66185e-11
9.66269e-11
9.66354e-11
9.66452e-11
9.66564e-11
9.66675e-11
9.66799e-11
9.66929e-11
9.67071e-11
9.67217e-11
9.6738e-11
9.67545e-11
9.67726e-11
9.67914e-11
9.68108e-11
9.68319e-11
9.6853e-11
9.68754e-11
9.68981e-11
9.69214e-11
9.69452e-11
9.69699e-11
9.69955e-11
9.70219e-11
9.7049e-11
9.70778e-11
9.71076e-11
9.71379e-11
9.71695e-11
9.72018e-11
9.72352e-11
9.72688e-11
9.73033e-11
9.73386e-11
9.73748e-11
9.74118e-11
9.74499e-11
9.7489e-11
9.75292e-11
9.75704e-11
9.76126e-11
9.76558e-11
9.76999e-11
9.77449e-11
9.77909e-11
9.78379e-11
9.7886e-11
9.79352e-11
9.79855e-11
9.80371e-11
9.80899e-11
9.8144e-11
9.81994e-11
9.8256e-11
9.8314e-11
)
;
    }
    inandouthalf21
    {
        type            cyclic;
        value           nonuniform List<scalar> 
100
(
-9.83734e-11
-9.84342e-11
-9.84966e-11
-9.85605e-11
-9.8626e-11
-9.86931e-11
-9.8762e-11
-9.88327e-11
-9.89053e-11
-9.89799e-11
-9.90565e-11
-9.91352e-11
-9.92161e-11
-9.92994e-11
-9.93852e-11
-9.94735e-11
-9.95644e-11
-9.96582e-11
-9.97548e-11
-9.98546e-11
-9.99576e-11
-1.00064e-10
-1.00174e-10
-1.00287e-10
-1.00405e-10
-1.00527e-10
-1.00653e-10
-1.00784e-10
-1.0092e-10
-1.01061e-10
-1.01209e-10
-1.01363e-10
-1.01523e-10
-1.01692e-10
-1.01872e-10
-1.02063e-10
-1.02263e-10
-1.02475e-10
-1.02711e-10
-1.02981e-10
-1.03276e-10
-1.03556e-10
-1.03889e-10
-1.04323e-10
-1.04858e-10
-1.05769e-10
-1.12045e-10
-1.91847e-09
-5.21894e-09
-1.62204e-08
-2.68976e-08
-3.71249e-08
-4.69842e-08
-5.64794e-08
-6.55829e-08
-7.42536e-08
-8.24519e-08
-9.01464e-08
-9.73147e-08
-1.03942e-07
-1.10017e-07
-1.15534e-07
-1.20483e-07
-1.24855e-07
-1.28638e-07
-1.31816e-07
-1.34366e-07
-1.36261e-07
-1.37466e-07
-1.37941e-07
-1.37637e-07
-1.36498e-07
-1.3446e-07
-1.31457e-07
-1.27419e-07
-1.2228e-07
-1.15991e-07
-1.08531e-07
-9.99245e-08
-9.02485e-08
-7.96416e-08
-6.83038e-08
-5.64896e-08
-4.44908e-08
-3.26095e-08
-2.11257e-08
-1.02688e-08
-1.99024e-10
8.99763e-09
1.73017e-08
2.4745e-08
3.13933e-08
3.73302e-08
4.26448e-08
4.74241e-08
5.1748e-08
5.56867e-08
5.93006e-08
6.26403e-08
6.57477e-08
)
;
    }
    inandouthalf22
    {
        type            cyclic;
        value           nonuniform List<scalar> 
100
(
9.83734e-11
9.84342e-11
9.84966e-11
9.85605e-11
9.8626e-11
9.86931e-11
9.8762e-11
9.88327e-11
9.89053e-11
9.89799e-11
9.90565e-11
9.91352e-11
9.92161e-11
9.92994e-11
9.93852e-11
9.94735e-11
9.95644e-11
9.96582e-11
9.97548e-11
9.98546e-11
9.99576e-11
1.00064e-10
1.00174e-10
1.00287e-10
1.00405e-10
1.00527e-10
1.00653e-10
1.00784e-10
1.0092e-10
1.01061e-10
1.01209e-10
1.01363e-10
1.01523e-10
1.01692e-10
1.01872e-10
1.02063e-10
1.02263e-10
1.02475e-10
1.02711e-10
1.02981e-10
1.03276e-10
1.03556e-10
1.03889e-10
1.04323e-10
1.04858e-10
1.05769e-10
1.12045e-10
1.91847e-09
5.21894e-09
1.62204e-08
2.68976e-08
3.71249e-08
4.69842e-08
5.64794e-08
6.55829e-08
7.42536e-08
8.24519e-08
9.01464e-08
9.73147e-08
1.03942e-07
1.10017e-07
1.15534e-07
1.20483e-07
1.24855e-07
1.28638e-07
1.31816e-07
1.34366e-07
1.36261e-07
1.37466e-07
1.37941e-07
1.37637e-07
1.36498e-07
1.3446e-07
1.31457e-07
1.27419e-07
1.2228e-07
1.15991e-07
1.08531e-07
9.99245e-08
9.02485e-08
7.96416e-08
6.83038e-08
5.64896e-08
4.44908e-08
3.26095e-08
2.11257e-08
1.02688e-08
1.99024e-10
-8.99763e-09
-1.73017e-08
-2.4745e-08
-3.13933e-08
-3.73302e-08
-4.26448e-08
-4.74241e-08
-5.1748e-08
-5.56867e-08
-5.93006e-08
-6.26403e-08
-6.57477e-08
)
;
    }
    inandouthalf31
    {
        type            cyclic;
        value           nonuniform List<scalar> 
110
(
6.86576e-08
7.28753e-08
7.71344e-08
8.14463e-08
8.58215e-08
9.02689e-08
9.47968e-08
9.94124e-08
1.04122e-07
1.08932e-07
1.13847e-07
1.18872e-07
1.24011e-07
1.2927e-07
1.34652e-07
1.4016e-07
1.45798e-07
1.51569e-07
1.57476e-07
1.63522e-07
1.69708e-07
1.76037e-07
1.82508e-07
1.89122e-07
1.95876e-07
2.0277e-07
2.09797e-07
2.16951e-07
2.24223e-07
2.31599e-07
2.39062e-07
2.46589e-07
2.54147e-07
2.61696e-07
2.69181e-07
2.76527e-07
2.83633e-07
2.90354e-07
2.96485e-07
3.01717e-07
3.05516e-07
3.06675e-07
3.03272e-07
2.79475e-07
2.7285e-07
2.77835e-07
2.83466e-07
2.89219e-07
2.9509e-07
3.01079e-07
3.0719e-07
3.13425e-07
3.19787e-07
3.26277e-07
3.329e-07
3.39657e-07
3.46551e-07
3.53585e-07
3.60762e-07
3.68084e-07
3.75556e-07
3.83178e-07
3.90956e-07
3.98891e-07
4.06988e-07
4.15248e-07
4.23677e-07
4.32276e-07
4.4105e-07
4.50003e-07
4.59136e-07
4.68456e-07
4.77964e-07
4.87665e-07
4.97564e-07
5.07663e-07
5.17967e-07
5.2848e-07
5.39207e-07
5.50152e-07
5.61318e-07
5.72712e-07
5.84336e-07
5.96197e-07
6.08298e-07
6.20645e-07
6.33242e-07
6.46095e-07
6.59209e-07
6.72589e-07
6.86241e-07
7.0017e-07
7.14382e-07
7.28882e-07
7.43676e-07
7.58771e-07
7.74172e-07
7.89885e-07
8.05918e-07
8.22276e-07
8.38966e-07
8.55995e-07
8.73369e-07
8.91096e-07
9.09183e-07
9.27637e-07
9.46465e-07
9.65676e-07
9.85277e-07
1.00528e-06
)
;
    }
    inandouthalf32
    {
        type            cyclic;
        value           nonuniform List<scalar> 
110
(
-6.86576e-08
-7.28753e-08
-7.71344e-08
-8.14463e-08
-8.58215e-08
-9.02689e-08
-9.47968e-08
-9.94124e-08
-1.04122e-07
-1.08932e-07
-1.13847e-07
-1.18872e-07
-1.24011e-07
-1.2927e-07
-1.34652e-07
-1.4016e-07
-1.45798e-07
-1.51569e-07
-1.57476e-07
-1.63522e-07
-1.69708e-07
-1.76037e-07
-1.82508e-07
-1.89122e-07
-1.95876e-07
-2.0277e-07
-2.09797e-07
-2.16951e-07
-2.24223e-07
-2.31599e-07
-2.39062e-07
-2.46589e-07
-2.54147e-07
-2.61696e-07
-2.69181e-07
-2.76527e-07
-2.83633e-07
-2.90354e-07
-2.96485e-07
-3.01717e-07
-3.05516e-07
-3.06675e-07
-3.03272e-07
-2.79475e-07
-2.7285e-07
-2.77835e-07
-2.83466e-07
-2.89219e-07
-2.9509e-07
-3.01079e-07
-3.0719e-07
-3.13425e-07
-3.19787e-07
-3.26277e-07
-3.329e-07
-3.39657e-07
-3.46551e-07
-3.53585e-07
-3.60762e-07
-3.68084e-07
-3.75556e-07
-3.83178e-07
-3.90956e-07
-3.98891e-07
-4.06988e-07
-4.15248e-07
-4.23677e-07
-4.32276e-07
-4.4105e-07
-4.50003e-07
-4.59136e-07
-4.68456e-07
-4.77964e-07
-4.87665e-07
-4.97564e-07
-5.07663e-07
-5.17967e-07
-5.2848e-07
-5.39207e-07
-5.50152e-07
-5.61318e-07
-5.72712e-07
-5.84336e-07
-5.96197e-07
-6.08298e-07
-6.20645e-07
-6.33242e-07
-6.46095e-07
-6.59209e-07
-6.72589e-07
-6.86241e-07
-7.0017e-07
-7.14382e-07
-7.28882e-07
-7.43676e-07
-7.58771e-07
-7.74172e-07
-7.89885e-07
-8.05918e-07
-8.22276e-07
-8.38966e-07
-8.55995e-07
-8.73369e-07
-8.91096e-07
-9.09183e-07
-9.27637e-07
-9.46465e-07
-9.65676e-07
-9.85277e-07
-1.00528e-06
)
;
    }
    inandouthalf41
    {
        type            cyclic;
        value           nonuniform List<scalar> 
50
(
8.99824e-07
8.99824e-07
8.99824e-07
8.99824e-07
8.99824e-07
8.99824e-07
8.99824e-07
8.99824e-07
8.99824e-07
8.99824e-07
8.99824e-07
8.99824e-07
8.99824e-07
8.99824e-07
8.99824e-07
8.99824e-07
8.99824e-07
8.99824e-07
8.99824e-07
8.99824e-07
8.99824e-07
8.99824e-07
8.99824e-07
8.99824e-07
8.99824e-07
8.99824e-07
8.99824e-07
8.99824e-07
8.99824e-07
8.99824e-07
8.99824e-07
8.99824e-07
8.99824e-07
8.99824e-07
8.99824e-07
8.99824e-07
8.99824e-07
8.99824e-07
8.99824e-07
8.99824e-07
8.99824e-07
8.99824e-07
8.99824e-07
8.99824e-07
8.99824e-07
8.99824e-07
8.99824e-07
8.99824e-07
8.99824e-07
8.99824e-07
)
;
    }
    inandouthalf42
    {
        type            cyclic;
        value           nonuniform List<scalar> 
50
(
-8.99824e-07
-8.99824e-07
-8.99824e-07
-8.99824e-07
-8.99824e-07
-8.99824e-07
-8.99824e-07
-8.99824e-07
-8.99824e-07
-8.99824e-07
-8.99824e-07
-8.99824e-07
-8.99824e-07
-8.99824e-07
-8.99824e-07
-8.99824e-07
-8.99824e-07
-8.99824e-07
-8.99824e-07
-8.99824e-07
-8.99824e-07
-8.99824e-07
-8.99824e-07
-8.99824e-07
-8.99824e-07
-8.99824e-07
-8.99824e-07
-8.99824e-07
-8.99824e-07
-8.99824e-07
-8.99824e-07
-8.99824e-07
-8.99824e-07
-8.99824e-07
-8.99824e-07
-8.99824e-07
-8.99824e-07
-8.99824e-07
-8.99824e-07
-8.99824e-07
-8.99824e-07
-8.99824e-07
-8.99824e-07
-8.99824e-07
-8.99824e-07
-8.99824e-07
-8.99824e-07
-8.99824e-07
-8.99824e-07
-8.99824e-07
)
;
    }
    top
    {
        type            symmetryPlane;
        value           uniform 0;
    }
    walls
    {
        type            calculated;
        value           uniform 0;
    }
    frontAndBackPlanes
    {
        type            empty;
        value           nonuniform 0();
    }
}


// ************************************************************************* //
