/*--------------------------------*- C++ -*----------------------------------*\
| =========                 |                                                 |
| \\      /  F ield         | OpenFOAM: The Open Source CFD Toolbox           |
|  \\    /   O peration     | Version:  2.4.x                                 |
|   \\  /    A nd           | Web:      www.OpenFOAM.org                      |
|    \\/     M anipulation  |                                                 |
\*---------------------------------------------------------------------------*/
FoamFile
{
    version     2.0;
    format      ascii;
    class       volVectorField;
    location    "4.55";
    object      ddt0(Ub);
}
// * * * * * * * * * * * * * * * * * * * * * * * * * * * * * * * * * * * * * //

dimensions      [0 1 -2 0 0 0 0];

internalField   nonuniform List<vector> 
360
(
(9.60554e-05 -3.01072e-08 0)
(9.57877e-05 -1.4295e-07 0)
(9.57005e-05 -3.05729e-07 0)
(9.57667e-05 -4.57176e-07 0)
(9.58362e-05 -5.95508e-07 0)
(9.58897e-05 -7.30935e-07 0)
(9.59408e-05 -8.70804e-07 0)
(9.59926e-05 -1.01642e-06 0)
(9.60439e-05 -1.16556e-06 0)
(9.60961e-05 -1.31611e-06 0)
(9.61497e-05 -1.46773e-06 0)
(9.62039e-05 -1.62153e-06 0)
(9.6259e-05 -1.77923e-06 0)
(9.63148e-05 -1.94248e-06 0)
(9.63717e-05 -2.11271e-06 0)
(9.64302e-05 -2.29122e-06 0)
(9.64906e-05 -2.479e-06 0)
(9.65528e-05 -2.67623e-06 0)
(9.66167e-05 -2.88148e-06 0)
(9.66818e-05 -3.09111e-06 0)
(9.67464e-05 -3.29857e-06 0)
(9.68094e-05 -3.49479e-06 0)
(9.68686e-05 -3.66934e-06 0)
(9.6922e-05 -3.81277e-06 0)
(9.69685e-05 -3.92035e-06 0)
(9.70085e-05 -3.99628e-06 0)
(9.70447e-05 -4.05732e-06 0)
(9.70832e-05 -4.13464e-06 0)
(9.71322e-05 -4.27367e-06 0)
(9.72029e-05 -4.5335e-06 0)
(9.73094e-05 -4.98708e-06 0)
(9.74693e-05 -5.72137e-06 0)
(9.77004e-05 -6.82484e-06 0)
(9.80167e-05 -8.33667e-06 0)
(9.83957e-05 -1.01017e-05 0)
(9.87351e-05 -1.15523e-05 0)
(9.88207e-05 -1.1712e-05 0)
(9.84635e-05 -9.86486e-06 0)
(9.7771e-05 -6.53163e-06 0)
(9.71242e-05 -3.27867e-06 0)
(9.67656e-05 -1.23451e-06 0)
(9.66374e-05 -3.56086e-07 0)
(9.6607e-05 -8.31039e-08 0)
(9.66059e-05 -1.57013e-08 0)
(9.66111e-05 -5.29136e-10 0)
(9.66185e-05 2.99069e-09 0)
(9.66269e-05 3.82895e-09 0)
(9.66354e-05 3.9343e-09 0)
(9.66452e-05 3.75637e-09 0)
(9.66564e-05 3.39521e-09 0)
(9.66675e-05 2.8812e-09 0)
(9.66799e-05 2.24619e-09 0)
(9.66929e-05 1.53857e-09 0)
(9.67071e-05 8.17579e-10 0)
(9.67217e-05 1.36265e-10 0)
(9.6738e-05 -4.77855e-10 0)
(9.67545e-05 -1.01704e-09 0)
(9.67726e-05 -1.47853e-09 0)
(9.67914e-05 -1.89029e-09 0)
(9.68108e-05 -2.27144e-09 0)
(9.68319e-05 -2.6401e-09 0)
(9.6853e-05 -3.00894e-09 0)
(9.68754e-05 -3.38804e-09 0)
(9.68981e-05 -3.78582e-09 0)
(9.69214e-05 -4.20039e-09 0)
(9.69452e-05 -4.63142e-09 0)
(9.69699e-05 -5.07857e-09 0)
(9.69955e-05 -5.54062e-09 0)
(9.70219e-05 -6.01617e-09 0)
(9.7049e-05 -6.51263e-09 0)
(9.70778e-05 -7.03308e-09 0)
(9.71076e-05 -7.58044e-09 0)
(9.71379e-05 -8.15861e-09 0)
(9.71695e-05 -8.76636e-09 0)
(9.72018e-05 -9.40876e-09 0)
(9.72352e-05 -1.00857e-08 0)
(9.72688e-05 -1.07902e-08 0)
(9.73033e-05 -1.15204e-08 0)
(9.73386e-05 -1.22751e-08 0)
(9.73748e-05 -1.30523e-08 0)
(9.74118e-05 -1.38533e-08 0)
(9.74499e-05 -1.46726e-08 0)
(9.7489e-05 -1.55163e-08 0)
(9.75292e-05 -1.63889e-08 0)
(9.75704e-05 -1.72884e-08 0)
(9.76126e-05 -1.82228e-08 0)
(9.76558e-05 -1.91936e-08 0)
(9.76999e-05 -2.01983e-08 0)
(9.77449e-05 -2.12358e-08 0)
(9.77909e-05 -2.23001e-08 0)
(9.78379e-05 -2.33935e-08 0)
(9.7886e-05 -2.45182e-08 0)
(9.79352e-05 -2.56627e-08 0)
(9.79855e-05 -2.68272e-08 0)
(9.80371e-05 -2.80154e-08 0)
(9.80899e-05 -2.92261e-08 0)
(9.8144e-05 -3.04559e-08 0)
(9.81994e-05 -3.17023e-08 0)
(9.8256e-05 -3.29707e-08 0)
(9.8314e-05 -3.42595e-08 0)
(9.83734e-05 -3.55608e-08 0)
(9.84342e-05 -3.68771e-08 0)
(9.84966e-05 -3.82097e-08 0)
(9.85605e-05 -3.95495e-08 0)
(9.8626e-05 -4.08934e-08 0)
(9.86931e-05 -4.22475e-08 0)
(9.8762e-05 -4.36087e-08 0)
(9.88327e-05 -4.49748e-08 0)
(9.89053e-05 -4.63451e-08 0)
(9.89799e-05 -4.7711e-08 0)
(9.90565e-05 -4.9074e-08 0)
(9.91352e-05 -5.04334e-08 0)
(9.92161e-05 -5.17833e-08 0)
(9.92994e-05 -5.31294e-08 0)
(9.93852e-05 -5.44734e-08 0)
(9.94735e-05 -5.58043e-08 0)
(9.95644e-05 -5.71266e-08 0)
(9.96582e-05 -5.8448e-08 0)
(9.97548e-05 -5.97613e-08 0)
(9.98546e-05 -6.10694e-08 0)
(9.99576e-05 -6.23712e-08 0)
(0.000100064 -6.36666e-08 0)
(0.000100174 -6.49623e-08 0)
(0.000100287 -6.62615e-08 0)
(0.000100405 -6.75511e-08 0)
(0.000100527 -6.88231e-08 0)
(0.000100653 -7.00756e-08 0)
(0.000100784 -7.12982e-08 0)
(0.00010092 -7.24734e-08 0)
(0.000101061 -7.35855e-08 0)
(0.000101209 -7.46269e-08 0)
(0.000101363 -7.55803e-08 0)
(0.000101523 -7.64293e-08 0)
(0.000101692 -7.7174e-08 0)
(0.000101872 -7.78125e-08 0)
(0.000102063 -7.83496e-08 0)
(0.000102263 -7.88035e-08 0)
(0.000102475 -7.91711e-08 0)
(0.000102711 -7.94382e-08 0)
(0.000102981 -7.95941e-08 0)
(0.000103276 -7.96943e-08 0)
(0.000103556 -7.96674e-08 0)
(0.000103889 -7.95116e-08 0)
(0.000104323 -7.93691e-08 0)
(0.000104858 -8.40284e-08 0)
(0.000105769 4.55322e-07 0)
(0.000112045 -1.20074e-05 0)
(0.00191847 0.000129692 0)
(0.00521894 0.000832561 0)
(0.0162204 0.000731594 0)
(0.0268976 0.000644281 0)
(0.0371249 0.00058319 0)
(0.0469842 0.000516909 0)
(0.0564794 0.000453865 0)
(0.0655829 0.000395855 0)
(0.0742536 0.000343482 0)
(0.0824519 0.000296837 0)
(0.0901464 0.000255642 0)
(0.0973147 0.000219386 0)
(0.103942 0.000187474 0)
(0.110017 0.00015935 0)
(0.115534 0.00013453 0)
(0.120483 0.000112616 0)
(0.124855 9.32858e-05 0)
(0.128638 7.62769e-05 0)
(0.131816 6.13719e-05 0)
(0.134366 4.8385e-05 0)
(0.136261 3.71502e-05 0)
(0.137466 2.75199e-05 0)
(0.137941 1.93594e-05 0)
(0.137637 1.25288e-05 0)
(0.136498 6.84526e-06 0)
(0.13446 2.07222e-06 0)
(0.131457 -1.98976e-06 0)
(0.127419 -5.32761e-06 0)
(0.12228 -7.65668e-06 0)
(0.115991 -8.6601e-06 0)
(0.108531 -8.34828e-06 0)
(0.0999245 -7.14818e-06 0)
(0.0902485 -5.63828e-06 0)
(0.0796416 -4.2396e-06 0)
(0.0683038 -3.12484e-06 0)
(0.0564896 -2.29938e-06 0)
(0.0444908 -1.70552e-06 0)
(0.0326095 -1.2817e-06 0)
(0.0211257 -9.8019e-07 0)
(0.0102688 -7.67603e-07 0)
(0.000199024 -6.21178e-07 0)
(-0.00899763 -5.23316e-07 0)
(-0.0173017 -4.55848e-07 0)
(-0.024745 -3.99173e-07 0)
(-0.0313933 -3.39651e-07 0)
(-0.0373302 -2.77193e-07 0)
(-0.0426448 -2.21322e-07 0)
(-0.0474241 -1.78715e-07 0)
(-0.051748 -1.4742e-07 0)
(-0.0556867 -1.22377e-07 0)
(-0.0593006 -1.01359e-07 0)
(-0.0626403 -8.43717e-08 0)
(-0.0657477 -7.07451e-08 0)
(-0.0686574 -5.89386e-08 0)
(-0.0714254 -4.84016e-08 0)
(-0.0740957 -4.00339e-08 0)
(-0.0766814 -3.38117e-08 0)
(-0.0791931 -2.79661e-08 0)
(-0.08164 -2.20549e-08 0)
(-0.0840295 -1.76131e-08 0)
(-0.0863678 -1.46661e-08 0)
(-0.0886599 -1.16249e-08 0)
(-0.0909101 -8.5326e-09 0)
(-0.0931218 -6.32429e-09 0)
(-0.0952978 -4.60763e-09 0)
(-0.0974404 -2.91964e-09 0)
(-0.0995517 -1.52599e-09 0)
(-0.101633 -3.54873e-10 0)
(-0.103686 7.0737e-10 0)
(-0.105711 1.44849e-09 0)
(-0.107709 2.03353e-09 0)
(-0.109681 2.68717e-09 0)
(-0.111626 3.18857e-09 0)
(-0.113545 3.48482e-09 0)
(-0.115436 3.76443e-09 0)
(-0.117298 4.02348e-09 0)
(-0.119131 4.20682e-09 0)
(-0.120931 4.32781e-09 0)
(-0.122697 4.40045e-09 0)
(-0.124423 4.45078e-09 0)
(-0.126107 4.47227e-09 0)
(-0.127741 4.45124e-09 0)
(-0.129318 4.41567e-09 0)
(-0.13083 4.37349e-09 0)
(-0.132264 4.31451e-09 0)
(-0.133607 4.23517e-09 0)
(-0.134838 4.13154e-09 0)
(-0.135936 4.06884e-09 0)
(-0.136868 3.71025e-09 0)
(-0.137591 3.84577e-09 0)
(-0.13805 3.70013e-09 0)
(-0.138161 3.36391e-09 0)
(-0.137802 3.77097e-09 0)
(-0.136761 2.52559e-09 0)
(-0.134549 4.1503e-09 0)
(-0.130409 1.589e-09 0)
(-0.117785 4.48319e-09 0)
(-0.112706 8.11097e-10 0)
(-0.112482 4.67977e-09 0)
(-0.112478 1.35601e-10 0)
(-0.112478 4.81334e-09 0)
(-0.112478 -4.43097e-10 0)
(-0.112478 4.86873e-09 0)
(-0.112478 -9.25651e-10 0)
(-0.112478 4.87188e-09 0)
(-0.112478 -1.36271e-09 0)
(-0.112478 4.87622e-09 0)
(-0.112478 -1.7878e-09 0)
(-0.112478 4.90225e-09 0)
(-0.112478 -2.22179e-09 0)
(-0.112478 4.95801e-09 0)
(-0.112478 -2.66125e-09 0)
(-0.112478 5.05088e-09 0)
(-0.112478 -3.1041e-09 0)
(-0.112478 5.18128e-09 0)
(-0.112478 -3.54393e-09 0)
(-0.112478 5.35347e-09 0)
(-0.112478 -3.98791e-09 0)
(-0.112478 5.55448e-09 0)
(-0.112478 -4.43869e-09 0)
(-0.112478 5.79282e-09 0)
(-0.112478 -4.88782e-09 0)
(-0.112478 6.07083e-09 0)
(-0.112478 -5.33404e-09 0)
(-0.112478 6.3927e-09 0)
(-0.112478 -5.77851e-09 0)
(-0.112478 6.74218e-09 0)
(-0.112478 -6.23581e-09 0)
(-0.112478 7.12312e-09 0)
(-0.112478 -6.69728e-09 0)
(-0.112478 7.53175e-09 0)
(-0.112478 -7.17075e-09 0)
(-0.112478 7.96902e-09 0)
(-0.112478 -7.65636e-09 0)
(-0.112478 8.42261e-09 0)
(-0.112478 -8.16411e-09 0)
(-0.112478 8.89878e-09 0)
(-0.112478 -8.68695e-09 0)
(-0.112478 9.39393e-09 0)
(-0.112478 -9.23189e-09 0)
(-0.112478 9.90666e-09 0)
(-0.112478 -9.79621e-09 0)
(-0.112478 1.04377e-08 0)
(-0.112478 -1.03837e-08 0)
(-0.112478 1.09825e-08 0)
(-0.112478 -1.09961e-08 0)
(-0.112478 1.15436e-08 0)
(-0.112478 -1.16297e-08 0)
(-0.112478 1.21255e-08 0)
(-0.112478 -1.22787e-08 0)
(-0.112478 1.2741e-08 0)
(-0.112478 -1.29373e-08 0)
(-0.112478 1.33732e-08 0)
(-0.112478 -1.36099e-08 0)
(-0.112478 1.40516e-08 0)
(-0.112478 -1.42895e-08 0)
(-0.112478 1.47309e-08 0)
(-0.112478 -1.49962e-08 0)
(-0.112478 1.54268e-08 0)
(-0.112478 -1.57139e-08 0)
(-0.112478 1.61199e-08 0)
(-0.112478 -1.64547e-08 0)
(-0.112478 1.6805e-08 0)
(-0.112478 -1.51024e-08 0)
(-0.112478 1.50323e-08 0)
(-0.112478 -1.51681e-08 0)
(-0.112478 1.502e-08 0)
(-0.112478 -1.52214e-08 0)
(-0.112478 1.49925e-08 0)
(-0.112478 -1.52818e-08 0)
(-0.112478 1.49544e-08 0)
(-0.112478 -1.5344e-08 0)
(-0.112478 1.48957e-08 0)
(-0.112478 -1.54133e-08 0)
(-0.112478 1.48074e-08 0)
(-0.112478 -1.54948e-08 0)
(-0.112478 1.46916e-08 0)
(-0.112478 -1.55899e-08 0)
(-0.112478 1.45292e-08 0)
(-0.112478 -1.57286e-08 0)
(-0.112478 1.42575e-08 0)
(-0.112478 -1.61241e-08 0)
(-0.112478 1.34678e-08 0)
(-0.112478 -1.70165e-08 0)
(-0.112478 1.2409e-08 0)
(-0.112478 -1.79911e-08 0)
(-0.112478 1.12867e-08 0)
(-0.112478 -1.89688e-08 0)
(-0.112478 1.02013e-08 0)
(-0.112478 -1.99285e-08 0)
(-0.112478 8.99088e-09 0)
(-0.112478 -2.09292e-08 0)
(-0.112478 7.95235e-09 0)
(-0.112478 -2.16859e-08 0)
(-0.112478 7.02833e-09 0)
(-0.112478 -2.22084e-08 0)
(-0.112478 6.53543e-09 0)
(-0.112478 -2.26453e-08 0)
(-0.112478 5.35057e-09 0)
(-0.112478 -2.35076e-08 0)
(-0.112478 4.88504e-09 0)
(-0.112478 -2.3182e-08 0)
(-0.112478 5.2646e-09 0)
(-0.112478 -2.18207e-08 0)
(-0.112478 7.11881e-09 0)
(-0.112478 -1.90836e-08 0)
(-0.112478 1.01574e-08 0)
(-0.112478 -1.52691e-08 0)
(-0.112478 1.3567e-08 0)
(-0.112478 -1.07153e-08 0)
(-0.112478 1.74705e-08 0)
(-0.112478 -1.3401e-08 0)
(-0.112478 1.17235e-08 0)
)
;

boundaryField
{
    inandouthalf11
    {
        type            cyclic;
    }
    inandouthalf12
    {
        type            cyclic;
    }
    inandouthalf21
    {
        type            cyclic;
    }
    inandouthalf22
    {
        type            cyclic;
    }
    inandouthalf31
    {
        type            cyclic;
    }
    inandouthalf32
    {
        type            cyclic;
    }
    inandouthalf41
    {
        type            cyclic;
    }
    inandouthalf42
    {
        type            cyclic;
    }
    top
    {
        type            symmetryPlane;
    }
    walls
    {
        type            calculated;
        value           uniform (0 0 0);
    }
    frontAndBackPlanes
    {
        type            empty;
    }
}


// ************************************************************************* //
