/*--------------------------------*- C++ -*----------------------------------*\
| =========                 |                                                 |
| \\      /  F ield         | OpenFOAM: The Open Source CFD Toolbox           |
|  \\    /   O peration     | Version:  2.4.x                                 |
|   \\  /    A nd           | Web:      www.OpenFOAM.org                      |
|    \\/     M anipulation  |                                                 |
\*---------------------------------------------------------------------------*/
FoamFile
{
    version     2.0;
    format      ascii;
    class       volScalarField;
    location    "4.55";
    object      ddt0(((1.5*(alpha+1e-08))*rho),Theta);
}
// * * * * * * * * * * * * * * * * * * * * * * * * * * * * * * * * * * * * * //

dimensions      [1 -1 -3 0 0 0 0];

internalField   nonuniform List<scalar> 
360
(
-1.46261e-20
-6.78942e-20
-6.45404e-20
-5.02991e-20
-4.79731e-20
-5.07102e-20
-5.43992e-20
-5.71014e-20
-5.84026e-20
-5.91156e-20
-6.0212e-20
-6.21259e-20
-6.48671e-20
-6.83035e-20
-7.23899e-20
-7.71556e-20
-8.24701e-20
-8.78591e-20
-9.2452e-20
-9.49234e-20
-9.36805e-20
-8.73883e-20
-7.55279e-20
-5.92154e-20
-4.1871e-20
-2.90126e-20
-2.72029e-20
-4.28681e-20
-8.238e-20
-1.54523e-19
-2.7555e-19
-4.74795e-19
-7.91946e-19
-1.22594e-18
-1.54316e-18
-1.03837e-18
7.75167e-19
2.37737e-18
1.93948e-18
6.96223e-19
1.20601e-19
1.12859e-20
7.0996e-22
4.09516e-23
1.79308e-24
-1.23736e-24
-1.62719e-24
-1.72169e-24
-1.77265e-24
-1.82049e-24
-1.87353e-24
-1.92764e-24
-1.97193e-24
-1.99773e-24
-2.00423e-24
-1.99674e-24
-1.98374e-24
-1.97293e-24
-1.96695e-24
-1.96821e-24
-1.97483e-24
-1.98521e-24
-1.99827e-24
-2.01178e-24
-2.02559e-24
-2.03954e-24
-2.05422e-24
-2.06994e-24
-2.08735e-24
-2.10816e-24
-2.13294e-24
-2.16026e-24
-2.19047e-24
-2.2229e-24
-2.25578e-24
-2.28764e-24
-2.31716e-24
-2.34427e-24
-2.36922e-24
-2.39288e-24
-2.4165e-24
-2.44156e-24
-2.46892e-24
-2.49898e-24
-2.53171e-24
-2.56624e-24
-2.6014e-24
-2.6362e-24
-2.66958e-24
-2.70113e-24
-2.7307e-24
-2.75867e-24
-2.78523e-24
-2.81124e-24
-2.83691e-24
-2.86209e-24
-2.8869e-24
-2.911e-24
-2.93424e-24
-3.11971e-23
0
0
0
0
0
0
0
0
0
0
0
0
0
0
0
-3.08081e-24
-3.08097e-24
-3.08382e-24
-3.08894e-24
-3.0965e-24
-3.10639e-24
-3.11812e-24
-3.13043e-24
-3.14156e-24
-3.14921e-24
-3.15039e-24
-3.14245e-24
-3.12252e-24
-3.08822e-24
-3.03808e-24
-2.97261e-24
-3.2818e-24
-3.80047e-20
2.41019e-16
1.75345e-15
1.25025e-14
9.01313e-14
6.68477e-13
5.22177e-12
4.40064e-11
4.08401e-10
4.24561e-09
5.01982e-08
6.80011e-07
6.56711e-06
-0.000375629
-0.0109762
-0.0642458
-0.259133
-0.470333
-0.503693
-0.459625
-0.382611
-0.295872
-0.212152
-0.138314
-0.077252
-0.0293391
0.00643624
0.0317242
0.0483229
0.0580996
0.0625785
0.0631445
0.0609299
0.0568498
0.0516254
0.0458139
0.0398343
0.0339927
0.0285021
0.0234992
0.0190561
0.015194
0.0119032
0.00916445
0.00695538
0.00523924
0.0039528
0.00301202
0.00233031
0.00183377
0.00146673
0.00119
0.000976816
0.000808969
0.000673928
0.000562859
0.000469304
0.000388701
0.000318841
0.000259898
0.000212582
0.000175806
0.000146745
0.000122959
0.000103364
8.73472e-05
7.41653e-05
6.3116e-05
5.37659e-05
4.59485e-05
3.94524e-05
3.37533e-05
2.86143e-05
2.43694e-05
2.09936e-05
1.78498e-05
1.4985e-05
1.27724e-05
1.08785e-05
9.09908e-06
7.66405e-06
6.467e-06
5.35994e-06
4.48114e-06
3.77091e-06
3.07539e-06
2.51317e-06
2.10421e-06
1.70039e-06
1.36396e-06
1.10772e-06
8.75619e-07
6.99232e-07
5.51485e-07
4.19582e-07
3.30536e-07
2.50864e-07
1.83866e-07
1.36323e-07
9.74095e-08
7.2242e-08
5.53149e-08
3.98348e-08
2.3083e-08
0
0
0
0
0
0
0
0
0
0
0
0
0
0
0
0
0
0
0
0
0
0
0
0
0
0
0
0
0
0
0
0
0
0
0
0
0
0
0
0
0
0
0
0
0
0
0
0
0
0
0
0
0
0
0
0
0
0
0
0
0
0
0
0
0
0
0
0
0
0
0
0
0
0
0
0
0
0
0
0
0
0
0
0
0
0
0
0
0
0
0
0
0
0
0
0
0
0
0
0
0
0
0
0
0
0
0
0
0
0
0
0
0
0
0
0
0
0
0
0
0
0
0
0
)
;

boundaryField
{
    inandouthalf11
    {
        type            cyclic;
    }
    inandouthalf12
    {
        type            cyclic;
    }
    inandouthalf21
    {
        type            cyclic;
    }
    inandouthalf22
    {
        type            cyclic;
    }
    inandouthalf31
    {
        type            cyclic;
    }
    inandouthalf32
    {
        type            cyclic;
    }
    inandouthalf41
    {
        type            cyclic;
    }
    inandouthalf42
    {
        type            cyclic;
    }
    top
    {
        type            symmetryPlane;
    }
    walls
    {
        type            calculated;
        value           uniform -1.46261e-20;
    }
    frontAndBackPlanes
    {
        type            empty;
    }
}


// ************************************************************************* //
