/*--------------------------------*- C++ -*----------------------------------*\
| =========                 |                                                 |
| \\      /  F ield         | OpenFOAM: The Open Source CFD Toolbox           |
|  \\    /   O peration     | Version:  2.4.x                                 |
|   \\  /    A nd           | Web:      www.OpenFOAM.org                      |
|    \\/     M anipulation  |                                                 |
\*---------------------------------------------------------------------------*/
FoamFile
{
    version     2.0;
    format      ascii;
    class       volVectorField;
    location    "4.55";
    object      gradPf;
}
// * * * * * * * * * * * * * * * * * * * * * * * * * * * * * * * * * * * * * //

dimensions      [0 1 -2 0 0 0 0];

internalField   nonuniform List<vector> 
360
(
(0 41.7554 0)
(0 53.1632 0)
(0 7.55534 0)
(0 -7.86625 0)
(-3.34747e-14 -6.2193 0)
(-1.67381e-14 -4.17243 0)
(-1.67388e-14 -3.86373 0)
(0 -3.79639 0)
(-3.34804e-14 -3.79008 0)
(0 -3.9401 0)
(-3.34833e-14 -4.03079 0)
(0 -4.04332 0)
(-1.67432e-14 -4.01855 0)
(0 -3.97762 0)
(0 -3.97619 0)
(0 -3.9993 0)
(0 -4.01804 0)
(-1.6747e-14 -4.02761 0)
(0 -4.06196 0)
(0 -4.06453 0)
(0 -4.06554 0)
(-1.67503e-14 -4.08915 0)
(0 -4.07102 0)
(0 -4.03747 0)
(0 -3.97893 0)
(-3.35072e-14 -3.88895 0)
(0 -3.81808 0)
(0 -3.7584 0)
(0 -3.70235 0)
(0 -3.71453 0)
(0 -3.85976 0)
(0 -4.09532 0)
(0 -4.54604 0)
(0 -5.17144 0)
(0 -5.83987 0)
(1.67633e-14 -6.35354 0)
(0 -6.25858 0)
(0 -5.35201 0)
(0 -3.76184 0)
(0 -2.30054 0)
(0 -1.42599 0)
(0 -0.979343 0)
(1.67691e-14 -0.928758 0)
(0 -0.980912 0)
(0 -1.01105 0)
(0 -1.09784 0)
(0 -1.13079 0)
(0 -1.21149 0)
(0 -1.3841 0)
(0 -1.45111 0)
(1.67715e-14 -1.51884 0)
(0 -1.6322 0)
(0 -1.7352 0)
(0 -1.82894 0)
(0 -1.95773 0)
(0 -2.07247 0)
(0 -2.1731 0)
(0 -2.3028 0)
(0 -2.36615 0)
(0 -2.49305 0)
(0 -2.58678 0)
(0 -2.64498 0)
(0 -2.71204 0)
(0 -2.74404 0)
(0 -2.78764 0)
(0 -2.84441 0)
(0 -2.92224 0)
(0 -2.9921 0)
(0 -3.0546 0)
(0 -3.15723 0)
(0 -3.27604 0)
(0 -3.32146 0)
(0 -3.38361 0)
(0 -3.45757 0)
(0 -3.5048 0)
(0 -3.5361 0)
(0 -3.552 0)
(0 -3.59264 0)
(0 -3.6355 0)
(0 -3.67202 0)
(0 -3.71658 0)
(0 -3.7725 0)
(0 -3.82068 0)
(0 -3.86491 0)
(0 -3.90358 0)
(0 -3.93662 0)
(0 -3.96285 0)
(0 -3.98237 0)
(0 -4.00386 0)
(0 -4.02598 0)
(0 -4.04767 0)
(0 -4.07238 0)
(0 -4.09893 0)
(0 -4.12409 0)
(0 -4.14801 0)
(0 -4.17017 0)
(0 -4.19004 0)
(0 -4.20793 0)
(0 -4.22465 0)
(0 -4.24046 0)
(0 -4.2555 0)
(0 -4.27014 0)
(0 -4.28426 0)
(0 -4.29758 0)
(0 -4.31011 0)
(0 -4.32186 0)
(0 -4.33281 0)
(0 -4.34304 0)
(0 -4.35255 0)
(0 -4.36131 0)
(0 -4.36926 0)
(0 -4.3763 0)
(0 -4.38234 0)
(0 -4.38725 0)
(0 -4.39092 0)
(0 -4.39324 0)
(0 -4.39408 0)
(0 -4.39335 0)
(0 -4.39096 0)
(0 -4.38678 0)
(0 -4.38065 0)
(0 -4.37233 0)
(0 -4.36159 0)
(0 -4.34837 0)
(0 -4.3331 0)
(0 -4.3169 0)
(0 -4.30136 0)
(0 -4.28746 0)
(0 -4.27402 0)
(0 -4.25714 0)
(0 -4.23376 0)
(0 -4.21004 0)
(0 -4.20402 0)
(0 -4.22414 0)
(0 -4.24173 0)
(0 -4.22106 0)
(0 -4.19361 0)
(0 -4.26406 0)
(0 -4.48066 0)
(0 -4.61858 0)
(0 -4.32621 0)
(0 -4.21523 0)
(0 -4.75096 0)
(0 -5.2903 0)
(0 -6.55355 0)
(0 -11.8299 0)
(0 -13.2703 0)
(0 -6.5603 0)
(0 0 0)
(0 0 0)
(0 0 0)
(0 0 0)
(0 0 0)
(0 0 0)
(0 0 0)
(0 0 0)
(0 0 0)
(0 0 0)
(0 0 0)
(0 0 0)
(0 0 0)
(0 0 0)
(0 0 0)
(0 0 0)
(0 0 0)
(0 0 0)
(0 0 0)
(0 0 0)
(0 0 0)
(0 0 0)
(0 0 0)
(0 0 0)
(0 0 0)
(0 0 0)
(0 0 0)
(0 0 0)
(0 0 0)
(0 0 0)
(0 0 0)
(0 0 0)
(0 0 0)
(0 0 0)
(0 0 0)
(0 0 0)
(0 0 0)
(0 0 0)
(0 0 0)
(0 0 0)
(0 0 0)
(0 0 0)
(0 0 0)
(0 0 0)
(0 0 0)
(0 0 0)
(0 0 0)
(0 0 0)
(0 0 0)
(0 0 0)
(0 0 0)
(0 0 0)
(0 0 0)
(0 0 0)
(0 0 0)
(0 0 0)
(0 0 0)
(0 0 0)
(0 0 0)
(0 0 0)
(0 0 0)
(0 0 0)
(0 0 0)
(0 0 0)
(0 0 0)
(0 0 0)
(0 0 0)
(0 0 0)
(0 0 0)
(0 0 0)
(0 0 0)
(0 0 0)
(0 0 0)
(0 0 0)
(0 0 0)
(0 0 0)
(0 0 0)
(0 0 0)
(0 0 0)
(0 0 0)
(0 0 0)
(0 0 0)
(0 0 0)
(0 0 0)
(0 0 0)
(0 0 0)
(0 0 0)
(0 0 0)
(0 0 0)
(0 0 0)
(0 0 0)
(0 0 0)
(0 0 0)
(0 0 0)
(0 0 0)
(0 0 0)
(0 0 0)
(0 0 0)
(0 0 0)
(0 0 0)
(0 0 0)
(0 0 0)
(0 0 0)
(0 0 0)
(0 0 0)
(0 0 0)
(0 0 0)
(0 0 0)
(0 0 0)
(0 0 0)
(0 0 0)
(0 0 0)
(0 0 0)
(0 0 0)
(0 0 0)
(0 0 0)
(0 0 0)
(0 0 0)
(0 0 0)
(0 0 0)
(0 0 0)
(0 0 0)
(0 0 0)
(0 0 0)
(0 0 0)
(0 0 0)
(0 0 0)
(0 0 0)
(0 0 0)
(0 0 0)
(0 0 0)
(0 0 0)
(0 0 0)
(0 0 0)
(0 0 0)
(0 0 0)
(0 0 0)
(0 0 0)
(0 0 0)
(0 0 0)
(0 0 0)
(0 0 0)
(0 0 0)
(0 0 0)
(0 0 0)
(0 0 0)
(0 0 0)
(0 0 0)
(0 0 0)
(0 0 0)
(0 0 0)
(0 0 0)
(0 0 0)
(0 0 0)
(0 0 0)
(0 0 0)
(0 0 0)
(0 0 0)
(0 0 0)
(0 0 0)
(0 0 0)
(0 0 0)
(0 0 0)
(0 0 0)
(0 0 0)
(0 0 0)
(0 0 0)
(0 0 0)
(0 0 0)
(0 0 0)
(0 0 0)
(0 0 0)
(0 0 0)
(0 0 0)
(0 0 0)
(0 0 0)
(0 0 0)
(0 0 0)
(0 0 0)
(0 0 0)
(0 0 0)
(0 0 0)
(0 0 0)
(0 0 0)
(0 0 0)
(0 0 0)
(0 0 0)
(0 0 0)
(0 0 0)
(0 0 0)
(0 0 0)
(0 0 0)
(0 0 0)
(0 0 0)
(0 0 0)
(0 0 0)
(0 0 0)
(0 0 0)
(0 0 0)
(0 0 0)
(0 0 0)
(0 0 0)
(0 0 0)
(0 0 0)
(0 0 0)
(0 0 0)
(0 0 0)
(0 0 0)
(0 0 0)
(0 0 0)
(0 0 0)
(0 0 0)
)
;

boundaryField
{
    inandouthalf11
    {
        type            cyclic;
    }
    inandouthalf12
    {
        type            cyclic;
    }
    inandouthalf21
    {
        type            cyclic;
    }
    inandouthalf22
    {
        type            cyclic;
    }
    inandouthalf31
    {
        type            cyclic;
    }
    inandouthalf32
    {
        type            cyclic;
    }
    inandouthalf41
    {
        type            cyclic;
    }
    inandouthalf42
    {
        type            cyclic;
    }
    top
    {
        type            symmetryPlane;
    }
    walls
    {
        type            calculated;
        value           uniform (0 0 0);
    }
    frontAndBackPlanes
    {
        type            empty;
    }
}


// ************************************************************************* //
