/*--------------------------------*- C++ -*----------------------------------*\
| =========                 |                                                 |
| \\      /  F ield         | OpenFOAM: The Open Source CFD Toolbox           |
|  \\    /   O peration     | Version:  2.4.x                                 |
|   \\  /    A nd           | Web:      www.OpenFOAM.org                      |
|    \\/     M anipulation  |                                                 |
\*---------------------------------------------------------------------------*/
FoamFile
{
    version     2.0;
    format      ascii;
    class       volVectorField;
    location    "4.55";
    object      gradPs;
}
// * * * * * * * * * * * * * * * * * * * * * * * * * * * * * * * * * * * * * //

dimensions      [0 1 -2 0 0 0 0];

internalField   nonuniform List<vector> 
360
(
(0 1.78097e-18 0)
(0 1.86512e-18 0)
(0 -1.46358e-19 0)
(0 -3.1207e-19 0)
(-2.90347e-32 -8.7696e-20 0)
(-2.9036e-32 -1.8804e-20 0)
(-1.45186e-32 -3.58829e-20 0)
(0 -5.73246e-20 0)
(-1.45198e-32 -6.80746e-20 0)
(0 -7.00196e-20 0)
(-1.45211e-32 -6.5139e-20 0)
(0 -5.99338e-20 0)
(-1.45224e-32 -5.72606e-20 0)
(0 -5.5742e-20 0)
(0 -5.38622e-20 0)
(0 -5.02387e-20 0)
(0 -4.52339e-20 0)
(-1.45257e-32 -4.0157e-20 0)
(0 -3.77143e-20 0)
(0 -3.89e-20 0)
(0 -4.60862e-20 0)
(-2.90571e-32 -6.12086e-20 0)
(0 -8.37347e-20 0)
(0 -1.12404e-19 0)
(0 -1.41019e-19 0)
(-1.45314e-32 -1.60162e-19 0)
(0 -1.60861e-19 0)
(0 -1.34424e-19 0)
(0 -7.20836e-20 0)
(0 3.87277e-20 0)
(0 2.21524e-19 0)
(0 5.20846e-19 0)
(0 9.82958e-19 0)
(0 1.56018e-18 0)
(0 1.83093e-18 0)
(1.45399e-32 8.86463e-19 0)
(0 -1.49782e-18 0)
(0 -3.40858e-18 0)
(0 -2.99952e-18 0)
(0 -1.38006e-18 0)
(0 -3.612e-19 0)
(0 -7.32605e-20 0)
(1.45449e-32 -3.3334e-20 0)
(0 -3.19464e-20 0)
(0 -3.28167e-20 0)
(0 -3.5718e-20 0)
(0 -3.68943e-20 0)
(0 -3.96542e-20 0)
(0 -4.54594e-20 0)
(0 -4.78334e-20 0)
(1.4547e-32 -5.02709e-20 0)
(0 -5.4247e-20 0)
(0 -5.79347e-20 0)
(0 -6.13541e-20 0)
(0 -6.60197e-20 0)
(0 -7.0264e-20 0)
(0 -7.41135e-20 0)
(0 -7.90155e-20 0)
(0 -8.17141e-20 0)
(0 -8.66896e-20 0)
(0 -9.05781e-20 0)
(0 -9.33108e-20 0)
(0 -9.63991e-20 0)
(0 -9.83043e-20 0)
(0 -1.00664e-19 0)
(0 -1.03561e-19 0)
(0 -1.07295e-19 0)
(0 -1.10823e-19 0)
(0 -1.14159e-19 0)
(0 -1.19108e-19 0)
(0 -1.24794e-19 0)
(0 -1.27798e-19 0)
(0 -1.31554e-19 0)
(0 -1.3586e-19 0)
(0 -1.39238e-19 0)
(0 -1.42055e-19 0)
(0 -1.44333e-19 0)
(0 -1.47689e-19 0)
(0 -1.51236e-19 0)
(0 -1.54619e-19 0)
(0 -1.58454e-19 0)
(0 -1.62898e-19 0)
(0 -1.67147e-19 0)
(0 -1.71362e-19 0)
(0 -1.75464e-19 0)
(0 -1.79447e-19 0)
(0 -1.83244e-19 0)
(0 -1.86854e-19 0)
(0 -1.90678e-19 0)
(0 -1.94661e-19 0)
(0 -1.98761e-19 0)
(0 -2.03158e-19 0)
(0 -2.07808e-19 0)
(0 -2.12559e-19 0)
(0 -2.17423e-19 0)
(0 -2.22379e-19 0)
(0 -2.27403e-19 0)
(0 -2.32513e-19 0)
(0 -2.39543e-19 0)
(0 -1.75055e-16 0)
(0 -1.74953e-16 0)
(0 0 0)
(0 0 0)
(0 0 0)
(0 0 0)
(0 0 0)
(0 0 0)
(0 0 0)
(0 0 0)
(0 0 0)
(0 0 0)
(0 0 0)
(0 0 0)
(0 0 0)
(0 1.72924e-16 0)
(0 1.7277e-16 0)
(0 -3.74053e-19 0)
(0 -3.84981e-19 0)
(0 -3.96399e-19 0)
(0 -4.08336e-19 0)
(0 -4.20817e-19 0)
(0 -4.33863e-19 0)
(0 -4.47494e-19 0)
(0 -4.61752e-19 0)
(0 -4.76739e-19 0)
(0 -4.9265e-19 0)
(0 -5.09771e-19 0)
(0 -5.28362e-19 0)
(0 -5.48445e-19 0)
(0 -5.69666e-19 0)
(0 -5.91707e-19 0)
(0 -6.32796e-19 0)
(0 3.05013e-16 0)
(0 3.24667e-15 0)
(0 2.68931e-14 0)
(0 2.28447e-13 0)
(0 2.07023e-12 0)
(0 2.03891e-11 0)
(0 2.22885e-10 0)
(0 2.76285e-09 0)
(0 3.96515e-08 0)
(0 6.72884e-07 0)
(0 1.41326e-05 0)
(0 0.000605417 0)
(0 0.0408399 0)
(0 0.940913 0)
(0 3.88788 0)
(0 3.5076 0)
(0 -1.27442 0)
(0 -2.62861 0)
(0 -3.40262 0)
(0 -3.54779 0)
(0 -3.52554 0)
(0 -3.452 0)
(0 -3.36012 0)
(0 -3.26473 0)
(0 -3.17212 0)
(0 -3.08435 0)
(0 -3.00148 0)
(0 -2.9228 0)
(0 -2.8474 0)
(0 -2.77449 0)
(0 -2.70336 0)
(0 -2.63345 0)
(0 -2.56441 0)
(0 -2.49601 0)
(0 -2.42822 0)
(0 -2.36116 0)
(0 -2.29511 0)
(0 -2.23054 0)
(0 -2.16841 0)
(0 -2.1111 0)
(0 -2.06347 0)
(0 -2.03167 0)
(0 -2.01759 0)
(0 -2.01144 0)
(0 -1.99088 0)
(0 -1.93206 0)
(0 -1.8252 0)
(0 -1.68064 0)
(0 -1.5202 0)
(0 -1.36413 0)
(0 -1.22469 0)
(0 -1.10686 0)
(0 -1.01148 0)
(0 -0.937873 0)
(0 -0.885539 0)
(0 -0.855392 0)
(0 -0.848835 0)
(0 -0.860537 0)
(0 -0.869427 0)
(0 -0.846171 0)
(0 -0.78231 0)
(0 -0.705041 0)
(0 -0.643832 0)
(0 -0.596576 0)
(0 -0.548308 0)
(0 -0.498612 0)
(0 -0.455016 0)
(0 -0.418362 0)
(0 -0.380302 0)
(0 -0.336505 0)
(-6.53307e-17 -0.300293 0)
(0 -0.278666 0)
(0 -0.251529 0)
(7.28372e-17 -0.211248 0)
(0 -0.185181 0)
(-7.62387e-17 -0.174998 0)
(0 -0.151444 0)
(3.94767e-17 -0.124212 0)
(0 -0.11229 0)
(0 -0.0993828 0)
(0 -0.0818044 0)
(2.02648e-17 -0.0717114 0)
(0 -0.0619228 0)
(0 -0.0493978 0)
(0 -0.0433981 0)
(0 -0.0386504 0)
(0 -0.0296117 0)
(-9.81604e-18 -0.0244549 0)
(0 -0.0220417 0)
(-4.79896e-18 -0.017427 0)
(0 -0.0141332 0)
(-2.33382e-18 -0.0116506 0)
(0 -0.00907894 0)
(0 -0.00769082 0)
(0 -0.00596621 0)
(0 -0.00444694 0)
(1.07445e-18 -0.00378381 0)
(5.27746e-19 -0.00288094 0)
(0 -0.00210513 0)
(0 -0.00150176 0)
(0 -0.000924451 0)
(0 -0.000660246 0)
(0 -0.000624512 0)
(0 -0.000689135 0)
(0 -0.000370794 0)
(0 0 0)
(0 0 0)
(0 0 0)
(0 0 0)
(0 0 0)
(0 0 0)
(0 0 0)
(0 0 0)
(0 0 0)
(0 0 0)
(0 0 0)
(0 0 0)
(0 0 0)
(0 0 0)
(0 0 0)
(0 0 0)
(0 0 0)
(0 0 0)
(0 0 0)
(0 0 0)
(0 0 0)
(0 0 0)
(0 0 0)
(0 0 0)
(0 0 0)
(0 0 0)
(0 0 0)
(0 0 0)
(0 0 0)
(0 0 0)
(0 0 0)
(0 0 0)
(0 0 0)
(0 0 0)
(0 0 0)
(0 0 0)
(0 0 0)
(0 0 0)
(0 0 0)
(0 0 0)
(0 0 0)
(0 0 0)
(0 0 0)
(0 0 0)
(0 0 0)
(0 0 0)
(0 0 0)
(0 0 0)
(0 0 0)
(0 0 0)
(0 0 0)
(0 0 0)
(0 0 0)
(0 0 0)
(0 0 0)
(0 0 0)
(0 0 0)
(0 0 0)
(0 0 0)
(0 0 0)
(0 0 0)
(0 0 0)
(0 0 0)
(0 0 0)
(0 0 0)
(0 0 0)
(0 0 0)
(0 0 0)
(0 0 0)
(0 0 0)
(0 0 0)
(0 0 0)
(0 0 0)
(0 0 0)
(0 0 0)
(0 0 0)
(0 0 0)
(0 0 0)
(0 0 0)
(0 0 0)
(0 0 0)
(0 0 0)
(0 0 0)
(0 0 0)
(0 0 0)
(0 0 0)
(0 0 0)
(0 0 0)
(0 0 0)
(0 0 0)
(0 0 0)
(0 0 0)
(0 0 0)
(0 0 0)
(0 0 0)
(0 0 0)
(0 0 0)
(0 0 0)
(0 0 0)
(0 0 0)
(0 0 0)
(0 0 0)
(0 0 0)
(0 0 0)
(0 0 0)
(0 0 0)
(0 0 0)
(0 0 0)
(0 0 0)
(0 0 0)
(0 0 0)
(0 0 0)
(0 0 0)
(0 0 0)
(0 0 0)
(0 0 0)
(0 0 0)
(0 0 0)
(0 0 0)
(0 0 0)
(0 0 0)
(0 0 0)
(0 0 0)
)
;

boundaryField
{
    inandouthalf11
    {
        type            cyclic;
    }
    inandouthalf12
    {
        type            cyclic;
    }
    inandouthalf21
    {
        type            cyclic;
    }
    inandouthalf22
    {
        type            cyclic;
    }
    inandouthalf31
    {
        type            cyclic;
    }
    inandouthalf32
    {
        type            cyclic;
    }
    inandouthalf41
    {
        type            cyclic;
    }
    inandouthalf42
    {
        type            cyclic;
    }
    top
    {
        type            symmetryPlane;
    }
    walls
    {
        type            calculated;
        value           uniform (0 0 0);
    }
    frontAndBackPlanes
    {
        type            empty;
    }
}


// ************************************************************************* //
