/*--------------------------------*- C++ -*----------------------------------*\
| =========                 |                                                 |
| \\      /  F ield         | OpenFOAM: The Open Source CFD Toolbox           |
|  \\    /   O peration     | Version:  2.4.x                                 |
|   \\  /    A nd           | Web:      www.OpenFOAM.org                      |
|    \\/     M anipulation  |                                                 |
\*---------------------------------------------------------------------------*/
FoamFile
{
    version     2.0;
    format      ascii;
    class       volScalarField;
    location    "4.55";
    object      mua;
}
// * * * * * * * * * * * * * * * * * * * * * * * * * * * * * * * * * * * * * //

dimensions      [1 -1 -1 0 0 0 0];

internalField   nonuniform List<scalar> 
360
(
574071
344665
396749
432618
422716
405740
393274
384982
379255
373881
367607
360553
353221
346030
338953
331724
324188
316384
308440
300611
293371
287008
281989
278738
277458
277991
279544
280526
278762
271550
256416
232558
202056
169563
141379
123097
119987
141212
214193
436232
1.19609e+06
4.21715e+06
1.71279e+07
6.78904e+07
2.23076e+08
5.44364e+08
9.50696e+08
1.22294e+09
1.24513e+09
1.09799e+09
9.09212e+08
7.46858e+08
6.28082e+08
5.47982e+08
4.96944e+08
4.65947e+08
4.48559e+08
4.39475e+08
4.35141e+08
4.32801e+08
4.3038e+08
4.27334e+08
4.23245e+08
4.18259e+08
4.12311e+08
4.05171e+08
3.96431e+08
3.85899e+08
3.7357e+08
3.59467e+08
3.43741e+08
3.27263e+08
3.10974e+08
2.95301e+08
2.80826e+08
2.67905e+08
2.56742e+08
2.47114e+08
2.38655e+08
2.31008e+08
2.23835e+08
2.16792e+08
2.097e+08
2.02538e+08
1.95374e+08
1.88346e+08
1.816e+08
1.75266e+08
1.69399e+08
1.63985e+08
1.58976e+08
1.54296e+08
1.49858e+08
1.45597e+08
1.41475e+08
1.37475e+08
1.33598e+08
1.29853e+08
1.26248e+08
1.22788e+08
1.19475e+08
1.16304e+08
1.13268e+08
1.10363e+08
1.07581e+08
1.04918e+08
1.02366e+08
9.99182e+07
9.75642e+07
9.52923e+07
9.30885e+07
9.09368e+07
8.88195e+07
8.67166e+07
8.46071e+07
8.24689e+07
8.0281e+07
7.80248e+07
7.56879e+07
7.3267e+07
7.0772e+07
6.82289e+07
6.56807e+07
6.3185e+07
6.08089e+07
5.86228e+07
5.66955e+07
5.50951e+07
5.3895e+07
5.31766e+07
5.30126e+07
5.34175e+07
5.42801e+07
5.5355e+07
5.63868e+07
5.72537e+07
5.78767e+07
5.80447e+07
5.78455e+07
5.90069e+07
6.62685e+07
8.84206e+07
1.40515e+08
2.53235e+08
4.16448e+08
3.09856e+08
0.250036
0.0224928
0.0119044
0.00962498
0.00835185
0.00746757
0.00685085
0.00642781
0.00614557
0.00596195
0.00584361
0.00576539
0.00570941
0.00566367
0.00562061
0.00557573
0.00552661
0.00547217
0.00541217
0.00534693
0.00527708
0.00520349
0.00512717
0.00504919
0.00497066
0.00489267
0.00481624
0.00474227
0.00467148
0.00460437
0.00454116
0.00448188
0.00442633
0.00437428
0.00432543
0.00427953
0.00423633
0.00419564
0.00415724
0.00412095
0.00408658
0.00405395
0.00402288
0.00399318
0.00396464
0.00393706
0.00391026
0.00388407
0.00385836
0.00383302
0.00380795
0.00378306
0.00375828
0.00373356
0.00370883
0.0036838
0.00365816
0.00363185
0.00360482
0.003577
0.00354832
0.00351873
0.00348814
0.00345649
0.0034237
0.00338967
0.00335431
0.00331753
0.00327922
0.00323924
0.00319746
0.00315373
0.00310788
0.0030597
0.00300896
0.00295541
0.00289872
0.00283854
0.00277442
0.00270581
0.00263206
0.00255232
0.00246549
0.00237013
0.00226421
0.00214485
0.00200756
0.00184485
0.00164229
0.0013644
0
0
0
0
0
0
0
0
0
0
0
0
0
0
0
0
0
0
0
0
0
0
0
0
0
0
0
0
0
0
0
0
0
0
0
0
0
0
0
0
0
0
0
0
0
0
0
0
0
0
0
0
0
0
0
0
0
0
0
0
0
0
0
0
0
0
0
0
0
0
0
0
0
0
0
0
0
0
0
0
0
0
0
0
0
0
0
0
0
0
0
0
0
0
0
0
0
0
0
0
0
0
0
0
0
0
0
0
0
0
0
0
0
0
0
0
0
0
0
0
0
0
0
0
)
;

boundaryField
{
    inandouthalf11
    {
        type            cyclic;
    }
    inandouthalf12
    {
        type            cyclic;
    }
    inandouthalf21
    {
        type            cyclic;
    }
    inandouthalf22
    {
        type            cyclic;
    }
    inandouthalf31
    {
        type            cyclic;
    }
    inandouthalf32
    {
        type            cyclic;
    }
    inandouthalf41
    {
        type            cyclic;
    }
    inandouthalf42
    {
        type            cyclic;
    }
    top
    {
        type            symmetryPlane;
    }
    walls
    {
        type            calculated;
        value           uniform 1e+30;
    }
    frontAndBackPlanes
    {
        type            empty;
    }
}


// ************************************************************************* //
