/*--------------------------------*- C++ -*----------------------------------*\
| =========                 |                                                 |
| \\      /  F ield         | OpenFOAM: The Open Source CFD Toolbox           |
|  \\    /   O peration     | Version:  2.4.x                                 |
|   \\  /    A nd           | Web:      www.OpenFOAM.org                      |
|    \\/     M anipulation  |                                                 |
\*---------------------------------------------------------------------------*/
FoamFile
{
    version     2.0;
    format      ascii;
    class       volScalarField;
    location    "4.55";
    object      p;
}
// * * * * * * * * * * * * * * * * * * * * * * * * * * * * * * * * * * * * * //

dimensions      [1 -1 -2 0 0 0 0];

internalField   nonuniform List<scalar> 
360
(
4900.29
4895.38
4890.47
4885.57
4880.66
4875.74
4870.83
4865.92
4861
4856.09
4851.17
4846.25
4841.33
4836.41
4831.48
4826.56
4821.63
4816.7
4811.77
4806.84
4801.91
4796.97
4792.04
4787.1
4782.16
4777.22
4772.28
4767.33
4762.39
4757.44
4752.49
4747.54
4742.59
4737.63
4732.68
4727.72
4722.76
4717.79
4712.82
4707.85
4702.88
4697.91
4692.93
4687.96
4682.99
4678.02
4673.05
4668.07
4663.1
4658.13
4653.16
4648.19
4643.21
4638.24
4633.27
4628.3
4623.33
4618.35
4613.38
4608.41
4603.44
4598.47
4593.49
4588.52
4583.55
4578.58
4573.61
4568.64
4563.66
4558.69
4553.72
4548.75
4543.78
4538.81
4533.83
4528.86
4523.89
4518.92
4513.95
4508.98
4504
4499.03
4494.06
4489.09
4484.12
4479.15
4474.18
4469.21
4464.23
4459.26
4454.29
4449.32
4444.35
4439.38
4434.41
4429.44
4424.47
4419.5
4414.53
4409.56
4404.58
4399.61
4394.64
4389.67
4384.7
4379.73
4374.76
4369.79
4364.82
4359.85
4354.88
4349.91
4344.94
4339.97
4335
4330.03
4325.06
4320.09
4315.12
4310.15
4305.19
4300.22
4295.25
4290.28
4285.31
4280.34
4275.37
4270.4
4265.43
4260.47
4255.5
4250.53
4245.56
4240.59
4235.63
4230.66
4225.69
4220.72
4215.76
4210.79
4205.82
4200.86
4195.89
4190.92
4185.96
4180.99
4176.01
4170.19
4161.08
4153.29
4146.75
4140.68
4134.88
4129.28
4123.82
4118.49
4113.26
4108.12
4103.07
4098.07
4093.14
4088.25
4083.39
4078.58
4073.78
4069.01
4064.26
4059.52
4054.79
4050.08
4045.36
4040.66
4035.95
4031.24
4026.54
4021.82
4017.11
4012.38
4007.64
4002.9
3998.14
3993.37
3988.59
3983.79
3978.97
3974.15
3969.31
3964.46
3959.6
3954.74
3949.86
3944.98
3940.1
3935.21
3930.31
3925.42
3920.52
3915.62
3910.72
3905.81
3900.91
3895.96
3890.9
3885.74
3880.48
3875.11
3869.63
3864.04
3858.33
3852.52
3846.58
3840.52
3834.35
3828.04
3821.61
3815.05
3808.36
3801.54
3794.58
3787.48
3780.23
3772.84
3765.31
3757.62
3749.78
3741.78
3733.62
3725.29
3716.8
3708.14
3699.31
3690.3
3681.11
3671.73
3662.17
3652.41
3642.46
3632.3
3621.94
3611.37
3600.58
3589.56
3578.32
3566.82
3555.07
3543.08
3530.84
3518.35
3505.61
3492.61
3479.35
3465.82
3452.01
3437.92
3423.55
3408.88
3393.92
3378.66
3363.08
3347.19
3330.97
3314.43
3297.55
3280.33
3262.76
3244.83
3226.54
3207.87
3188.83
3169.4
3149.58
3129.35
3108.72
3087.66
3066.18
3044.26
3021.9
2999.08
2975.8
2952.05
2927.81
2903.09
2877.86
2852.12
2825.86
2799.06
2771.72
2743.82
2715.36
2686.32
2656.7
2626.47
2595.62
2564.15
2532.05
2499.29
2465.86
2431.76
2396.96
2361.46
2325.24
2288.28
2250.57
2212.1
2172.85
2132.8
2091.93
2050.24
2007.7
1964.3
1922.76
1883.52
1844.28
1805.04
1765.8
1726.56
1687.32
1648.08
1608.84
1569.6
1530.36
1491.12
1451.88
1412.64
1373.4
1334.16
1294.92
1255.68
1216.44
1177.2
1137.96
1098.72
1059.48
1020.24
981
941.76
902.52
863.28
824.04
784.8
745.56
706.32
667.08
627.84
588.6
549.36
510.12
470.88
431.64
392.4
353.16
313.92
274.68
235.44
196.2
156.96
117.72
78.48
39.24
1.55173e-07
)
;

boundaryField
{
    inandouthalf11
    {
        type            cyclic;
    }
    inandouthalf12
    {
        type            cyclic;
    }
    inandouthalf21
    {
        type            cyclic;
    }
    inandouthalf22
    {
        type            cyclic;
    }
    inandouthalf31
    {
        type            cyclic;
    }
    inandouthalf32
    {
        type            cyclic;
    }
    inandouthalf41
    {
        type            cyclic;
    }
    inandouthalf42
    {
        type            cyclic;
    }
    top
    {
        type            symmetryPlane;
    }
    walls
    {
        type            slip;
    }
    frontAndBackPlanes
    {
        type            empty;
    }
}


// ************************************************************************* //
