/*--------------------------------*- C++ -*----------------------------------*\
| =========                 |                                                 |
| \\      /  F ield         | OpenFOAM: The Open Source CFD Toolbox           |
|  \\    /   O peration     | Version:  2.4.x                                 |
|   \\  /    A nd           | Web:      www.OpenFOAM.org                      |
|    \\/     M anipulation  |                                                 |
\*---------------------------------------------------------------------------*/
FoamFile
{
    version     2.0;
    format      ascii;
    class       surfaceScalarField;
    location    "4.55";
    object      phia;
}
// * * * * * * * * * * * * * * * * * * * * * * * * * * * * * * * * * * * * * //

dimensions      [0 3 -1 0 0 0 0];

internalField   nonuniform List<scalar> 
359
(
-5.48468e-13
-1.52808e-12
-2.44621e-12
-3.29033e-12
-4.1319e-12
-4.99754e-12
-5.88472e-12
-6.78488e-12
-7.69171e-12
-8.60472e-12
-9.52619e-12
-1.04581e-11
-1.14019e-11
-1.23576e-11
-1.33254e-11
-1.43063e-11
-1.53017e-11
-1.63133e-11
-1.73422e-11
-1.8389e-11
-1.94523e-11
-2.05299e-11
-2.1617e-11
-2.27071e-11
-2.37927e-11
-2.48668e-11
-2.59256e-11
-2.69717e-11
-2.80153e-11
-2.90775e-11
-3.01922e-11
-3.14102e-11
-3.27974e-11
-3.44326e-11
-3.63682e-11
-3.85608e-11
-4.07782e-11
-4.26376e-11
-4.38502e-11
-4.44404e-11
-4.46547e-11
-4.47153e-11
-4.47301e-11
-4.47339e-11
-4.4735e-11
-4.47355e-11
-4.47357e-11
-4.47359e-11
-4.47361e-11
-4.47364e-11
-4.47366e-11
-4.4737e-11
-4.47373e-11
-4.47378e-11
-4.47383e-11
-4.47388e-11
-4.47393e-11
-4.47398e-11
-4.47403e-11
-4.47409e-11
-4.47414e-11
-4.47419e-11
-4.47425e-11
-4.4743e-11
-4.47435e-11
-4.47441e-11
-4.47446e-11
-4.47452e-11
-4.47457e-11
-4.47463e-11
-4.47469e-11
-4.47475e-11
-4.47482e-11
-4.47488e-11
-4.47496e-11
-4.47503e-11
-4.4751e-11
-4.47518e-11
-4.47526e-11
-4.47534e-11
-4.47542e-11
-4.4755e-11
-4.47559e-11
-4.47567e-11
-4.47576e-11
-4.47585e-11
-4.47594e-11
-4.47604e-11
-4.47613e-11
-4.47623e-11
-4.47633e-11
-4.47643e-11
-4.47653e-11
-4.47663e-11
-4.47673e-11
-4.47684e-11
-4.47694e-11
-4.47705e-11
-4.47716e-11
-4.47726e-11
-4.47737e-11
-4.47748e-11
-4.47759e-11
-4.4777e-11
-4.47781e-11
-4.47792e-11
-4.47803e-11
-4.47814e-11
-4.47825e-11
-4.47836e-11
-4.47847e-11
-4.47858e-11
-4.47869e-11
-4.4788e-11
-4.4789e-11
-4.47901e-11
-4.47912e-11
-4.47922e-11
-4.47933e-11
-4.47943e-11
-4.47953e-11
-4.47964e-11
-4.47974e-11
-4.47985e-11
-4.47995e-11
-4.48005e-11
-4.48015e-11
-4.48025e-11
-4.48034e-11
-4.48043e-11
-4.48052e-11
-4.4806e-11
-4.48067e-11
-4.48073e-11
-4.48079e-11
-4.48084e-11
-4.48089e-11
-4.48093e-11
-4.48097e-11
-4.481e-11
-4.48102e-11
-4.48103e-11
-4.48104e-11
-4.48104e-11
-4.48104e-11
-4.48103e-11
-5.47675e-11
3.33725e-11
1.33526e-10
2.14165e-10
3.04508e-10
4.31595e-10
6.13415e-10
8.65175e-10
1.19933e-09
1.62517e-09
2.14856e-09
2.77219e-09
3.49587e-09
4.3171e-09
5.23141e-09
6.23298e-09
7.31464e-09
8.46818e-09
9.68426e-09
1.09525e-08
1.22612e-08
1.35971e-08
1.49452e-08
1.62887e-08
1.76077e-08
1.88775e-08
2.00614e-08
2.11019e-08
2.1921e-08
2.24424e-08
2.26299e-08
2.251e-08
2.21603e-08
2.16761e-08
2.11429e-08
2.06239e-08
2.01602e-08
1.97747e-08
1.94767e-08
1.92662e-08
1.91356e-08
1.9072e-08
1.90575e-08
1.90695e-08
1.90846e-08
1.90873e-08
1.90755e-08
1.90553e-08
1.90302e-08
1.8999e-08
1.89613e-08
1.89185e-08
1.88716e-08
1.88201e-08
1.87627e-08
1.8699e-08
1.86325e-08
1.85617e-08
1.84808e-08
1.8392e-08
1.83038e-08
1.82089e-08
1.80992e-08
1.79855e-08
1.78681e-08
1.77355e-08
1.75942e-08
1.7447e-08
1.7282e-08
1.7106e-08
1.69266e-08
1.67245e-08
1.65014e-08
1.62775e-08
1.60298e-08
1.5757e-08
1.54714e-08
1.51543e-08
1.48183e-08
1.44601e-08
1.40563e-08
1.3639e-08
1.31885e-08
1.26882e-08
1.21562e-08
1.15806e-08
1.10166e-08
1.05411e-08
1.0202e-08
9.86177e-09
-3.87695e-08
-1.35578e-07
-1.58672e-07
-1.58568e-07
-1.58543e-07
-1.58487e-07
-1.58343e-07
-1.5821e-07
-1.58196e-07
-1.58197e-07
-1.58198e-07
-1.58198e-07
-1.58198e-07
-1.58198e-07
-1.58198e-07
-1.58198e-07
-1.58198e-07
-1.58198e-07
-1.58198e-07
-1.58198e-07
-1.58198e-07
-1.58198e-07
-1.58198e-07
-1.58198e-07
-1.58198e-07
-1.58198e-07
-1.58198e-07
-1.58198e-07
-1.58198e-07
-1.58198e-07
-1.58198e-07
-1.58198e-07
-1.58198e-07
-1.58198e-07
-1.58198e-07
-1.58198e-07
-1.58198e-07
-1.58198e-07
-1.58198e-07
-1.58198e-07
-1.58198e-07
-1.58198e-07
-1.58198e-07
-1.58198e-07
-1.58198e-07
-1.58198e-07
-1.58198e-07
-1.58198e-07
-1.58198e-07
-1.58198e-07
-1.58198e-07
-1.58198e-07
-1.58198e-07
-1.58198e-07
-1.58198e-07
-1.58198e-07
-1.58198e-07
-1.58198e-07
-1.58198e-07
-1.58198e-07
-1.58198e-07
-1.58198e-07
-1.58198e-07
-1.58198e-07
-1.58198e-07
-1.58198e-07
-1.58198e-07
-1.58198e-07
-1.58198e-07
-1.58198e-07
-1.58198e-07
-1.58198e-07
-1.58198e-07
-1.58198e-07
-1.58198e-07
-1.58198e-07
-1.58198e-07
-1.58198e-07
-1.58198e-07
-1.58198e-07
-1.58198e-07
-1.58198e-07
-1.58198e-07
-1.58198e-07
-1.58198e-07
-1.58198e-07
-1.58198e-07
-1.58198e-07
-1.58198e-07
-1.58198e-07
-1.58198e-07
-1.58198e-07
-1.58198e-07
-1.58198e-07
-1.58198e-07
-1.58198e-07
-1.58198e-07
-1.58198e-07
-1.58198e-07
-1.58198e-07
-1.58198e-07
-1.58198e-07
-1.58198e-07
-1.58198e-07
-1.58198e-07
-1.58198e-07
-1.58198e-07
-1.58198e-07
-1.58198e-07
-1.58198e-07
-1.58198e-07
-1.58198e-07
-1.58198e-07
-1.58198e-07
-1.58198e-07
-1.58198e-07
-1.58198e-07
-1.58198e-07
-1.58198e-07
-1.58197e-07
-1.5818e-07
-1.57474e-07
-1.32386e-07
)
;

boundaryField
{
    inandouthalf11
    {
        type            cyclic;
        value           nonuniform List<scalar> 
100
(
1.04079e-38
4.52462e-14
1.01242e-13
1.51226e-13
1.99619e-13
2.49501e-13
3.01136e-13
3.54058e-13
4.07856e-13
4.62349e-13
5.17595e-13
5.73744e-13
6.30913e-13
6.89152e-13
7.48481e-13
8.08949e-13
8.70645e-13
9.33679e-13
9.98158e-13
1.06415e-12
1.13167e-12
1.2006e-12
1.27075e-12
1.34175e-12
1.41316e-12
1.48448e-12
1.55535e-12
1.62573e-12
1.69601e-12
1.76726e-12
1.84131e-12
1.92105e-12
2.01051e-12
2.11484e-12
2.23918e-12
2.38496e-12
2.54314e-12
2.68996e-12
2.79759e-12
2.85626e-12
2.87957e-12
2.88659e-12
2.88836e-12
2.8888e-12
2.88893e-12
2.88898e-12
2.88901e-12
2.88903e-12
2.88904e-12
2.88906e-12
2.88908e-12
2.88911e-12
2.88914e-12
2.88918e-12
2.88923e-12
2.88927e-12
2.88932e-12
2.88938e-12
2.88943e-12
2.88949e-12
2.88954e-12
2.8896e-12
2.88965e-12
2.88971e-12
2.88977e-12
2.88983e-12
2.88989e-12
2.88995e-12
2.89002e-12
2.89008e-12
2.89015e-12
2.89023e-12
2.8903e-12
2.89038e-12
2.89047e-12
2.89056e-12
2.89065e-12
2.89074e-12
2.89084e-12
2.89094e-12
2.89105e-12
2.89116e-12
2.89127e-12
2.89138e-12
2.8915e-12
2.89162e-12
2.89174e-12
2.89187e-12
2.892e-12
2.89214e-12
2.89228e-12
2.89242e-12
2.89256e-12
2.89271e-12
2.89286e-12
2.89302e-12
2.89317e-12
2.89333e-12
2.89349e-12
2.89366e-12
)
;
    }
    inandouthalf12
    {
        type            cyclic;
        value           nonuniform List<scalar> 
100
(
-1.04079e-38
-4.52462e-14
-1.01242e-13
-1.51226e-13
-1.99619e-13
-2.49501e-13
-3.01136e-13
-3.54058e-13
-4.07856e-13
-4.62349e-13
-5.17595e-13
-5.73744e-13
-6.30913e-13
-6.89152e-13
-7.48481e-13
-8.08949e-13
-8.70645e-13
-9.33679e-13
-9.98158e-13
-1.06415e-12
-1.13167e-12
-1.2006e-12
-1.27075e-12
-1.34175e-12
-1.41316e-12
-1.48448e-12
-1.55535e-12
-1.62573e-12
-1.69601e-12
-1.76726e-12
-1.84131e-12
-1.92105e-12
-2.01051e-12
-2.11484e-12
-2.23918e-12
-2.38496e-12
-2.54314e-12
-2.68996e-12
-2.79759e-12
-2.85626e-12
-2.87957e-12
-2.88659e-12
-2.88836e-12
-2.8888e-12
-2.88893e-12
-2.88898e-12
-2.88901e-12
-2.88903e-12
-2.88904e-12
-2.88906e-12
-2.88908e-12
-2.88911e-12
-2.88914e-12
-2.88918e-12
-2.88923e-12
-2.88927e-12
-2.88932e-12
-2.88938e-12
-2.88943e-12
-2.88949e-12
-2.88954e-12
-2.8896e-12
-2.88965e-12
-2.88971e-12
-2.88977e-12
-2.88983e-12
-2.88989e-12
-2.88995e-12
-2.89002e-12
-2.89008e-12
-2.89015e-12
-2.89023e-12
-2.8903e-12
-2.89038e-12
-2.89047e-12
-2.89056e-12
-2.89065e-12
-2.89074e-12
-2.89084e-12
-2.89094e-12
-2.89105e-12
-2.89116e-12
-2.89127e-12
-2.89138e-12
-2.8915e-12
-2.89162e-12
-2.89174e-12
-2.89187e-12
-2.892e-12
-2.89214e-12
-2.89228e-12
-2.89242e-12
-2.89256e-12
-2.89271e-12
-2.89286e-12
-2.89302e-12
-2.89317e-12
-2.89333e-12
-2.89349e-12
-2.89366e-12
)
;
    }
    inandouthalf21
    {
        type            cyclic;
        value           nonuniform List<scalar> 
100
(
2.89383e-12
2.894e-12
2.89417e-12
2.89435e-12
2.89453e-12
2.89471e-12
2.89489e-12
2.89507e-12
2.89526e-12
2.89545e-12
2.89564e-12
2.89583e-12
2.89602e-12
2.89622e-12
2.89641e-12
2.89661e-12
2.89681e-12
2.89702e-12
2.89722e-12
2.89743e-12
2.89764e-12
2.89785e-12
2.89807e-12
2.8983e-12
2.89852e-12
2.89876e-12
2.89899e-12
2.89923e-12
2.89947e-12
2.89971e-12
2.89995e-12
2.90018e-12
2.9004e-12
2.90062e-12
2.90082e-12
2.90102e-12
2.9012e-12
2.90139e-12
2.90156e-12
2.90173e-12
2.90188e-12
2.902e-12
2.90207e-12
2.90211e-12
2.90213e-12
2.90214e-12
2.90216e-12
1.6703e-08
1.12963e-07
2.12554e-07
2.92715e-07
3.59334e-07
4.15783e-07
4.64358e-07
5.06677e-07
5.43925e-07
5.77008e-07
6.06626e-07
6.33332e-07
6.57563e-07
6.79663e-07
6.99904e-07
7.18502e-07
7.35626e-07
7.5141e-07
7.65959e-07
7.79357e-07
7.91671e-07
8.02957e-07
8.13262e-07
8.22628e-07
8.31095e-07
8.38703e-07
8.45496e-07
8.51522e-07
8.56837e-07
8.61507e-07
8.65601e-07
8.6919e-07
8.72342e-07
8.75114e-07
8.77554e-07
8.79703e-07
8.81594e-07
8.83254e-07
8.84709e-07
8.8598e-07
8.87087e-07
8.88047e-07
8.88881e-07
8.89605e-07
8.90236e-07
8.90791e-07
8.91281e-07
8.91716e-07
8.92103e-07
8.9245e-07
8.92762e-07
8.93044e-07
8.933e-07
)
;
    }
    inandouthalf22
    {
        type            cyclic;
        value           nonuniform List<scalar> 
100
(
-2.89383e-12
-2.894e-12
-2.89417e-12
-2.89435e-12
-2.89453e-12
-2.89471e-12
-2.89489e-12
-2.89507e-12
-2.89526e-12
-2.89545e-12
-2.89564e-12
-2.89583e-12
-2.89602e-12
-2.89622e-12
-2.89641e-12
-2.89661e-12
-2.89681e-12
-2.89702e-12
-2.89722e-12
-2.89743e-12
-2.89764e-12
-2.89785e-12
-2.89807e-12
-2.8983e-12
-2.89852e-12
-2.89876e-12
-2.89899e-12
-2.89923e-12
-2.89947e-12
-2.89971e-12
-2.89995e-12
-2.90018e-12
-2.9004e-12
-2.90062e-12
-2.90082e-12
-2.90102e-12
-2.9012e-12
-2.90139e-12
-2.90156e-12
-2.90173e-12
-2.90188e-12
-2.902e-12
-2.90207e-12
-2.90211e-12
-2.90213e-12
-2.90214e-12
-2.90216e-12
-1.6703e-08
-1.12963e-07
-2.12554e-07
-2.92715e-07
-3.59334e-07
-4.15783e-07
-4.64358e-07
-5.06677e-07
-5.43925e-07
-5.77008e-07
-6.06626e-07
-6.33332e-07
-6.57563e-07
-6.79663e-07
-6.99904e-07
-7.18502e-07
-7.35626e-07
-7.5141e-07
-7.65959e-07
-7.79357e-07
-7.91671e-07
-8.02957e-07
-8.13262e-07
-8.22628e-07
-8.31095e-07
-8.38703e-07
-8.45496e-07
-8.51522e-07
-8.56837e-07
-8.61507e-07
-8.65601e-07
-8.6919e-07
-8.72342e-07
-8.75114e-07
-8.77554e-07
-8.79703e-07
-8.81594e-07
-8.83254e-07
-8.84709e-07
-8.8598e-07
-8.87087e-07
-8.88047e-07
-8.88881e-07
-8.89605e-07
-8.90236e-07
-8.90791e-07
-8.91281e-07
-8.91716e-07
-8.92103e-07
-8.9245e-07
-8.92762e-07
-8.93044e-07
-8.933e-07
)
;
    }
    inandouthalf31
    {
        type            cyclic;
        value           nonuniform List<scalar> 
110
(
8.93537e-07
9.11894e-07
9.30613e-07
9.49702e-07
9.69171e-07
9.89027e-07
1.00928e-06
1.02993e-06
1.051e-06
1.07249e-06
1.09441e-06
1.11676e-06
1.13957e-06
1.16283e-06
1.18655e-06
1.21075e-06
1.23543e-06
1.26061e-06
1.28628e-06
1.31247e-06
1.33918e-06
1.36642e-06
1.39421e-06
1.42255e-06
1.45144e-06
1.48092e-06
1.51097e-06
1.54163e-06
1.57289e-06
1.60476e-06
1.63727e-06
1.67041e-06
1.70421e-06
1.73868e-06
1.77386e-06
1.80976e-06
1.84634e-06
1.84067e-06
1.87386e-06
1.9055e-06
1.93881e-06
1.97311e-06
2.00909e-06
2.04802e-06
2.08932e-06
2.13171e-06
2.17497e-06
2.21911e-06
2.26415e-06
2.31011e-06
2.35699e-06
2.40483e-06
2.45364e-06
2.50344e-06
2.55425e-06
2.6061e-06
2.65899e-06
2.71296e-06
2.76803e-06
2.82421e-06
2.88154e-06
2.94002e-06
2.9997e-06
3.06058e-06
3.1227e-06
3.18609e-06
3.25076e-06
3.31674e-06
3.38406e-06
3.45275e-06
3.52283e-06
3.59433e-06
3.66729e-06
3.74172e-06
3.81767e-06
3.89516e-06
3.97422e-06
4.05489e-06
4.13719e-06
4.22116e-06
4.30684e-06
4.39426e-06
4.48345e-06
4.57445e-06
4.6673e-06
4.76204e-06
4.85869e-06
4.95731e-06
5.05793e-06
5.16059e-06
5.26534e-06
5.37221e-06
5.48125e-06
5.59251e-06
5.70602e-06
5.82184e-06
5.94001e-06
6.06057e-06
6.18359e-06
6.3091e-06
6.43715e-06
6.56781e-06
6.70112e-06
6.83713e-06
6.97591e-06
7.1175e-06
7.26197e-06
7.40937e-06
7.55976e-06
7.7132e-06
)
;
    }
    inandouthalf32
    {
        type            cyclic;
        value           nonuniform List<scalar> 
110
(
-8.93537e-07
-9.11894e-07
-9.30613e-07
-9.49702e-07
-9.69171e-07
-9.89027e-07
-1.00928e-06
-1.02993e-06
-1.051e-06
-1.07249e-06
-1.09441e-06
-1.11676e-06
-1.13957e-06
-1.16283e-06
-1.18655e-06
-1.21075e-06
-1.23543e-06
-1.26061e-06
-1.28628e-06
-1.31247e-06
-1.33918e-06
-1.36642e-06
-1.39421e-06
-1.42255e-06
-1.45144e-06
-1.48092e-06
-1.51097e-06
-1.54163e-06
-1.57289e-06
-1.60476e-06
-1.63727e-06
-1.67041e-06
-1.70421e-06
-1.73868e-06
-1.77386e-06
-1.80976e-06
-1.84634e-06
-1.84067e-06
-1.87386e-06
-1.9055e-06
-1.93881e-06
-1.97311e-06
-2.00909e-06
-2.04802e-06
-2.08932e-06
-2.13171e-06
-2.17497e-06
-2.21911e-06
-2.26415e-06
-2.31011e-06
-2.35699e-06
-2.40483e-06
-2.45364e-06
-2.50344e-06
-2.55425e-06
-2.6061e-06
-2.65899e-06
-2.71296e-06
-2.76803e-06
-2.82421e-06
-2.88154e-06
-2.94002e-06
-2.9997e-06
-3.06058e-06
-3.1227e-06
-3.18609e-06
-3.25076e-06
-3.31674e-06
-3.38406e-06
-3.45275e-06
-3.52283e-06
-3.59433e-06
-3.66729e-06
-3.74172e-06
-3.81767e-06
-3.89516e-06
-3.97422e-06
-4.05489e-06
-4.13719e-06
-4.22116e-06
-4.30684e-06
-4.39426e-06
-4.48345e-06
-4.57445e-06
-4.6673e-06
-4.76204e-06
-4.85869e-06
-4.95731e-06
-5.05793e-06
-5.16059e-06
-5.26534e-06
-5.37221e-06
-5.48125e-06
-5.59251e-06
-5.70602e-06
-5.82184e-06
-5.94001e-06
-6.06057e-06
-6.18359e-06
-6.3091e-06
-6.43715e-06
-6.56781e-06
-6.70112e-06
-6.83713e-06
-6.97591e-06
-7.1175e-06
-7.26197e-06
-7.40937e-06
-7.55976e-06
-7.7132e-06
)
;
    }
    inandouthalf41
    {
        type            cyclic;
        value           nonuniform List<scalar> 
50
(
6.9041e-06
6.9041e-06
6.9041e-06
6.9041e-06
6.9041e-06
6.9041e-06
6.9041e-06
6.9041e-06
6.9041e-06
6.9041e-06
6.9041e-06
6.9041e-06
6.9041e-06
6.9041e-06
6.9041e-06
6.9041e-06
6.9041e-06
6.9041e-06
6.9041e-06
6.9041e-06
6.9041e-06
6.9041e-06
6.9041e-06
6.9041e-06
6.9041e-06
6.9041e-06
6.9041e-06
6.9041e-06
6.9041e-06
6.9041e-06
6.9041e-06
6.9041e-06
6.9041e-06
6.9041e-06
6.9041e-06
6.9041e-06
6.9041e-06
6.9041e-06
6.9041e-06
6.9041e-06
6.9041e-06
6.9041e-06
6.9041e-06
6.9041e-06
6.9041e-06
6.9041e-06
6.9041e-06
6.9041e-06
6.90407e-06
6.90345e-06
)
;
    }
    inandouthalf42
    {
        type            cyclic;
        value           nonuniform List<scalar> 
50
(
-6.9041e-06
-6.9041e-06
-6.9041e-06
-6.9041e-06
-6.9041e-06
-6.9041e-06
-6.9041e-06
-6.9041e-06
-6.9041e-06
-6.9041e-06
-6.9041e-06
-6.9041e-06
-6.9041e-06
-6.9041e-06
-6.9041e-06
-6.9041e-06
-6.9041e-06
-6.9041e-06
-6.9041e-06
-6.9041e-06
-6.9041e-06
-6.9041e-06
-6.9041e-06
-6.9041e-06
-6.9041e-06
-6.9041e-06
-6.9041e-06
-6.9041e-06
-6.9041e-06
-6.9041e-06
-6.9041e-06
-6.9041e-06
-6.9041e-06
-6.9041e-06
-6.9041e-06
-6.9041e-06
-6.9041e-06
-6.9041e-06
-6.9041e-06
-6.9041e-06
-6.9041e-06
-6.9041e-06
-6.9041e-06
-6.9041e-06
-6.9041e-06
-6.9041e-06
-6.9041e-06
-6.9041e-06
-6.90407e-06
-6.90345e-06
)
;
    }
    top
    {
        type            symmetryPlane;
        value           uniform 0;
    }
    walls
    {
        type            fixedValue;
        value           uniform 0;
    }
    frontAndBackPlanes
    {
        type            empty;
        value           nonuniform 0();
    }
}


// ************************************************************************* //
