/*--------------------------------*- C++ -*----------------------------------*\
| =========                 |                                                 |
| \\      /  F ield         | OpenFOAM: The Open Source CFD Toolbox           |
|  \\    /   O peration     | Version:  2.4.x                                 |
|   \\  /    A nd           | Web:      www.OpenFOAM.org                      |
|    \\/     M anipulation  |                                                 |
\*---------------------------------------------------------------------------*/
FoamFile
{
    version     2.0;
    format      ascii;
    class       volVectorField;
    location    "4.55";
    object      susb;
}
// * * * * * * * * * * * * * * * * * * * * * * * * * * * * * * * * * * * * * //

dimensions      [0 1 -2 0 0 0 0];

internalField   nonuniform List<vector> 
360
(
(0 4.13521e-18 0)
(0 5.17061e-18 0)
(0 6.78194e-19 0)
(0 -6.95526e-19 0)
(-7.36682e-31 -5.56312e-19 0)
(-7.36537e-31 -3.77516e-19 0)
(-3.68206e-31 -3.52446e-19 0)
(0 -3.48885e-19 0)
(-3.68081e-31 -3.50975e-19 0)
(0 -3.67689e-19 0)
(-3.67949e-31 -3.79137e-19 0)
(0 -3.83425e-19 0)
(-3.67812e-31 -3.84197e-19 0)
(0 -3.83418e-19 0)
(0 -3.86448e-19 0)
(0 -3.91932e-19 0)
(0 -3.97087e-19 0)
(-3.67463e-31 -4.01428e-19 0)
(0 -4.08365e-19 0)
(0 -4.12173e-19 0)
(0 -4.15943e-19 0)
(-7.34336e-31 -4.22079e-19 0)
(0 -4.23991e-19 0)
(0 -4.2429e-19 0)
(0 -4.21891e-19 0)
(-3.66866e-31 -4.16015e-19 0)
(0 -4.12042e-19 0)
(0 -4.09125e-19 0)
(0 -4.06522e-19 0)
(0 -4.11416e-19 0)
(0 -4.31367e-19 0)
(0 -4.62022e-19 0)
(0 -5.18337e-19 0)
(0 -5.96574e-19 0)
(0 -6.82884e-19 0)
(3.65991e-31 -7.54014e-19 0)
(0 -7.54213e-19 0)
(0 -6.54151e-19 0)
(0 -4.65046e-19 0)
(0 -2.86784e-19 0)
(0 -1.78683e-19 0)
(0 -1.23139e-19 0)
(3.65474e-31 -1.17102e-19 0)
(0 -1.23976e-19 0)
(0 -1.28132e-19 0)
(0 -1.39519e-19 0)
(0 -1.44123e-19 0)
(0 -1.54912e-19 0)
(0 -1.77598e-19 0)
(0 -1.86878e-19 0)
(3.65257e-31 -1.96412e-19 0)
(0 -2.11956e-19 0)
(0 -2.26376e-19 0)
(0 -2.39749e-19 0)
(0 -2.57997e-19 0)
(0 -2.74597e-19 0)
(0 -2.89662e-19 0)
(0 -3.0884e-19 0)
(0 -3.1941e-19 0)
(0 -3.38886e-19 0)
(0 -3.54111e-19 0)
(0 -3.64827e-19 0)
(0 -3.76931e-19 0)
(0 -3.84414e-19 0)
(0 -3.93674e-19 0)
(0 -4.05043e-19 0)
(0 -4.19689e-19 0)
(0 -4.33529e-19 0)
(0 -4.46624e-19 0)
(0 -4.66034e-19 0)
(0 -4.88335e-19 0)
(0 -5.00141e-19 0)
(0 -5.14907e-19 0)
(0 -5.31819e-19 0)
(0 -5.4511e-19 0)
(0 -5.56204e-19 0)
(0 -5.65199e-19 0)
(0 -5.78415e-19 0)
(0 -5.92384e-19 0)
(0 -6.05717e-19 0)
(0 -6.20829e-19 0)
(0 -6.38333e-19 0)
(0 -6.55078e-19 0)
(0 -6.71699e-19 0)
(0 -6.87882e-19 0)
(0 -7.03609e-19 0)
(0 -7.18613e-19 0)
(0 -7.32889e-19 0)
(0 -7.48013e-19 0)
(0 -7.63771e-19 0)
(0 -7.79994e-19 0)
(0 -7.97393e-19 0)
(0 -8.15792e-19 0)
(0 -8.34598e-19 0)
(0 -8.53861e-19 0)
(0 -8.73497e-19 0)
(0 -8.93407e-19 0)
(0 -9.13673e-19 0)
(0 -9.34487e-19 0)
(0 -9.55939e-19 0)
(0 -9.78097e-19 0)
(0 -1.00109e-18 0)
(0 -1.02494e-18 0)
(0 -1.04963e-18 0)
(0 -1.07523e-18 0)
(0 -1.10177e-18 0)
(0 -1.12933e-18 0)
(0 -1.15799e-18 0)
(0 -1.18782e-18 0)
(0 -1.2189e-18 0)
(0 -1.2513e-18 0)
(0 -1.28508e-18 0)
(0 -1.32031e-18 0)
(0 -1.35706e-18 0)
(0 -1.39542e-18 0)
(0 -1.43545e-18 0)
(0 -1.47725e-18 0)
(0 -1.52093e-18 0)
(0 -1.56659e-18 0)
(0 -1.61435e-18 0)
(0 -1.66432e-18 0)
(0 -1.71658e-18 0)
(0 -1.77121e-18 0)
(0 -1.8284e-18 0)
(0 -1.88854e-18 0)
(0 -1.95243e-18 0)
(0 -2.0212e-18 0)
(0 -2.0959e-18 0)
(0 -2.17663e-18 0)
(0 -2.26199e-18 0)
(0 -2.35075e-18 0)
(0 -2.4469e-18 0)
(0 -2.25506e-18 0)
(0 -3.91807e-18 0)
(0 -2.59761e-17 0)
(0 -1.93417e-16 0)
(0 -1.50706e-15 0)
(0 -1.27055e-14 0)
(0 -1.19306e-13 0)
(0 -1.21046e-12 0)
(0 -1.25266e-11 0)
(0 -1.55852e-10 0)
(0 -2.65271e-09 0)
(0 -5.43127e-08 0)
(0 -1.59534e-06 0)
(0 -0.000112786 0)
(0 -0.0807872 0)
(0 -1.83473 0)
(0 -2.89499 0)
(0 -1.54014 0)
(0 -1.04611 0)
(0 -0.927443 0)
(0 -0.831271 0)
(0 -0.739897 0)
(0 -0.649223 0)
(0 -0.561235 0)
(0 -0.478941 0)
(0 -0.404599 0)
(0 -0.339306 0)
(0 -0.283158 0)
(0 -0.235588 0)
(0 -0.195684 0)
(0 -0.162422 0)
(0 -0.134797 0)
(0 -0.111893 0)
(0 -0.0929112 0)
(0 -0.0771749 0)
(0 -0.064117 0)
(0 -0.0532684 0)
(0 -0.0442438 0)
(0 -0.0367338 0)
(0 -0.030501 0)
(0 -0.0253648 0)
(0 -0.0211571 0)
(0 -0.0176691 0)
(0 -0.0146564 0)
(0 -0.0119308 0)
(0 -0.00944743 0)
(0 -0.00728041 0)
(0 -0.00551373 0)
(0 -0.00416256 0)
(0 -0.00317415 0)
(0 -0.00246759 0)
(0 -0.00196603 0)
(0 -0.00160939 0)
(0 -0.00135492 0)
(0 -0.00117383 0)
(0 -0.00104769 0)
(0 -0.000963071 0)
(0 -0.000901267 0)
(0 -0.000833308 0)
(0 -0.000736489 0)
(0 -0.00061846 0)
(0 -0.000510424 0)
(0 -0.000430834 0)
(0 -0.000370934 0)
(0 -0.000317822 0)
(0 -0.000270691 0)
(0 -0.00023265 0)
(0 -0.000202364 0)
(0 -0.000174407 0)
(0 -0.000146649 0)
(-4.59898e-20 -0.000125193 0)
(0 -0.000111798 0)
(0 -9.68206e-05 0)
(2.18994e-20 -7.7866e-05 0)
(0 -6.61847e-05 0)
(-2.09913e-20 -6.10939e-05 0)
(0 -5.11171e-05 0)
(9.98209e-21 -4.05972e-05 0)
(0 -3.60672e-05 0)
(0 -3.1235e-05 0)
(0 -2.50429e-05 0)
(8.81207e-21 -2.16351e-05 0)
(0 -1.83447e-05 0)
(0 -1.42484e-05 0)
(0 -1.24175e-05 0)
(0 -1.0963e-05 0)
(0 -8.13426e-06 0)
(-1.70147e-21 -6.61883e-06 0)
(0 -5.95099e-06 0)
(-1.52339e-21 -4.5875e-06 0)
(0 -3.65603e-06 0)
(-6.70988e-22 -2.9579e-06 0)
(0 -2.24043e-06 0)
(0 -1.88302e-06 0)
(0 -1.40966e-06 0)
(0 -1.00871e-06 0)
(2.20584e-22 -8.52933e-07 0)
(0 -6.25322e-07 0)
(0 -4.43356e-07 0)
(0 -3.12772e-07 0)
(0 -1.71729e-07 0)
(0 -1.05503e-07 0)
(0 -1.21691e-07 0)
(0 -1.66911e-07 0)
(0 -2.33885e-07 0)
(0 -1.37747e-07 0)
(0 -4.33482e-16 0)
(0 -6.84088e-17 0)
(0 -5.86733e-17 0)
(0 -3.29826e-17 0)
(0 -6.11737e-18 0)
(-1.11741e-34 -4.5717e-19 0)
(3.45162e-36 -6.61162e-21 0)
(0 -5.66561e-23 0)
(0 -7.8387e-25 0)
(-3.67009e-42 -1.42328e-26 0)
(0 -2.10207e-28 0)
(0 -1.69255e-30 0)
(-5.72869e-49 -6.44999e-33 0)
(0 -2.34431e-35 0)
(0 -4.32385e-36 0)
(0 -1.89176e-36 0)
(0 -9.12327e-37 0)
(0 -4.79983e-37 0)
(0 -3.13054e-37 0)
(0 -2.77794e-37 0)
(0 -2.86865e-37 0)
(0 -2.546e-37 0)
(0 -1.48283e-37 0)
(0 -5.76164e-38 0)
(0 -2.51088e-38 0)
(0 -1.23825e-38 0)
(0 -7.22608e-39 0)
(0 -5.7841e-39 0)
(0 -4.61474e-39 0)
(0 -2.47783e-39 0)
(0 -9.79838e-40 0)
(0 -4.55995e-40 0)
(0 -2.33727e-40 0)
(0 -1.31498e-40 0)
(0 -7.22337e-41 0)
(0 -3.43348e-41 0)
(0 -1.67267e-41 0)
(0 -8.19868e-42 0)
(0 -3.94622e-42 0)
(0 -1.85868e-42 0)
(0 -8.55785e-43 0)
(0 -3.84817e-43 0)
(0 -1.6883e-43 0)
(0 -7.21934e-44 0)
(0 -3.00549e-44 0)
(0 -1.21672e-44 0)
(0 -4.78378e-45 0)
(0 -1.82417e-45 0)
(8.74347e-62 -6.73659e-46 0)
(0 -2.40548e-46 0)
(0 -8.29102e-47 0)
(0 -2.75323e-47 0)
(0 -8.79056e-48 0)
(0 -2.69248e-48 0)
(0 -7.89176e-49 0)
(0 -2.2074e-49 0)
(0 -5.87409e-50 0)
(0 -1.482e-50 0)
(0 -3.53105e-51 0)
(0 -7.90976e-52 0)
(0 -1.65724e-52 0)
(0 -3.22818e-53 0)
(0 -5.80477e-54 0)
(0 -9.55336e-55 0)
(0 -1.42406e-55 0)
(0 -1.8976e-56 0)
(0 -2.2225e-57 0)
(0 -2.23659e-58 0)
(0 -1.8729e-59 0)
(0 -1.24284e-60 0)
(0 -6.00981e-62 0)
(0 -1.77017e-63 0)
(0 -1.6382e-65 0)
(0 -1.78603e-68 0)
(0 -2.59297e-70 0)
(0 -1.86801e-72 0)
(0 -3.3465e-83 0)
(0 -3.03568e-94 0)
(0 -2.05708e-105 0)
(0 -1.03008e-116 0)
(0 -4.47096e-128 0)
(0 -1.59653e-139 0)
(0 -5.80831e-151 0)
(0 -2.08786e-159 0)
(0 -5.72564e-170 0)
(0 -7.19659e-178 0)
(0 -1.83845e-188 0)
(0 -2.47575e-196 0)
(0 -7.82664e-207 0)
(0 -8.5157e-215 0)
(0 -3.50052e-225 0)
(0 -2.93161e-233 0)
(0 -2.34898e-243 0)
(0 -1.0195e-251 0)
(0 -1.55805e-261 0)
(0 -3.60202e-270 0)
(0 -7.83244e-280 0)
(0 -1.29215e-288 0)
(0 -3.71111e-298 0)
(0 -4.70409e-307 0)
(0 -1.63671e-316 0)
(0 -0 0)
(0 -0 0)
(0 0 0)
(0 0 0)
(0 0 0)
(0 0 0)
(0 0 0)
(0 0 0)
(0 0 0)
(0 0 0)
(0 0 0)
(0 0 0)
(0 0 0)
(0 0 0)
(0 0 0)
(0 0 0)
(0 0 0)
(0 0 0)
(0 0 0)
(0 0 0)
(0 0 0)
)
;

boundaryField
{
    inandouthalf11
    {
        type            cyclic;
    }
    inandouthalf12
    {
        type            cyclic;
    }
    inandouthalf21
    {
        type            cyclic;
    }
    inandouthalf22
    {
        type            cyclic;
    }
    inandouthalf31
    {
        type            cyclic;
    }
    inandouthalf32
    {
        type            cyclic;
    }
    inandouthalf41
    {
        type            cyclic;
    }
    inandouthalf42
    {
        type            cyclic;
    }
    top
    {
        type            symmetryPlane;
    }
    walls
    {
        type            zeroGradient;
    }
    frontAndBackPlanes
    {
        type            empty;
    }
}


// ************************************************************************* //
