/*--------------------------------*- C++ -*----------------------------------*\
| =========                 |                                                 |
| \\      /  F ield         | OpenFOAM: The Open Source CFD Toolbox           |
|  \\    /   O peration     | Version:  2.4.x                                 |
|   \\  /    A nd           | Web:      www.OpenFOAM.org                      |
|    \\/     M anipulation  |                                                 |
\*---------------------------------------------------------------------------*/
FoamFile
{
    version     2.0;
    format      ascii;
    class       volTensorField;
    location    "4.55";
    object      Taus;
}
// * * * * * * * * * * * * * * * * * * * * * * * * * * * * * * * * * * * * * //

dimensions      [0 2 -2 0 0 0 0];

internalField   nonuniform List<tensor> 
360
(
(0 -0.0160562 0 -0.0160562 -0.184664 0 0 0 0)
(0 -0.0215491 0 -0.0215491 -0.217297 0 0 0 0)
(0 -0.02596 0 -0.02596 -0.225287 0 0 0 0)
(0 -0.0262781 0 -0.0262781 -0.221967 0 0 0 0)
(6.58925e-18 -0.0256522 0 -0.0256522 -0.21891 0 0 0 0)
(1.26498e-17 -0.0254358 0 -0.0254358 -0.217135 0 0 0 0)
(2.45234e-17 -0.0253936 0 -0.0253936 -0.215559 0 0 0 0)
(0 -0.0253735 0 -0.0253735 -0.213969 0 0 0 0)
(2.36512e-17 -0.025365 0 -0.025365 -0.212436 0 0 0 0)
(0 -0.0253408 0 -0.0253408 -0.210852 0 0 0 0)
(2.29267e-17 -0.0252928 0 -0.0252928 -0.209208 0 0 0 0)
(0 -0.0252369 0 -0.0252369 -0.207561 0 0 0 0)
(4.4063e-17 -0.0251807 0 -0.0251807 -0.205909 0 0 0 0)
(0 -0.0251311 0 -0.0251311 -0.204278 0 0 0 0)
(0 -0.0250849 0 -0.0250849 -0.202656 0 0 0 0)
(0 -0.025036 0 -0.025036 -0.201025 0 0 0 0)
(0 -0.0249825 0 -0.0249825 -0.199385 0 0 0 0)
(3.94768e-17 -0.0249262 0 -0.0249262 -0.197742 0 0 0 0)
(0 -0.0248661 0 -0.0248661 -0.196096 0 0 0 0)
(0 -0.0248 0 -0.0248 -0.194428 0 0 0 0)
(0 -0.0247361 0 -0.0247361 -0.192782 0 0 0 0)
(3.58184e-17 -0.0246672 0 -0.0246672 -0.191115 0 0 0 0)
(0 -0.0245979 0 -0.0245979 -0.189453 0 0 0 0)
(0 -0.0245331 0 -0.0245331 -0.1878 0 0 0 0)
(0 -0.0244763 0 -0.0244763 -0.186161 0 0 0 0)
(6.93999e-17 -0.0244335 0 -0.0244335 -0.184546 0 0 0 0)
(0 -0.0244071 0 -0.0244071 -0.182966 0 0 0 0)
(0 -0.0243919 0 -0.0243919 -0.181392 0 0 0 0)
(0 -0.0243895 0 -0.0243895 -0.179843 0 0 0 0)
(0 -0.0243924 0 -0.0243924 -0.178298 0 0 0 0)
(0 -0.0243811 0 -0.0243811 -0.17673 0 0 0 0)
(0 -0.0243288 0 -0.0243288 -0.175079 0 0 0 0)
(0 -0.0242112 0 -0.0242112 -0.173359 0 0 0 0)
(0 -0.0239758 0 -0.0239758 -0.17142 0 0 0 0)
(0 -0.0236159 0 -0.0236159 -0.16931 0 0 0 0)
(-3.07487e-17 -0.0231402 0 -0.0231402 -0.166964 0 0 0 0)
(0 -0.0226355 0 -0.0226355 -0.164547 0 0 0 0)
(0 -0.0222266 0 -0.0222266 -0.162313 0 0 0 0)
(0 -0.0220346 0 -0.0220346 -0.16057 0 0 0 0)
(0 -0.022124 0 -0.022124 -0.159481 0 0 0 0)
(0 -0.0224422 0 -0.0224422 -0.158739 0 0 0 0)
(0 -0.0229234 0 -0.0229234 -0.158161 0 0 0 0)
(-8.55982e-15 -0.0235044 0 -0.0235044 -0.157563 0 0 0 0)
(0 -0.0241164 0 -0.0241164 -0.156803 0 0 0 0)
(0 -0.0247439 0 -0.0247439 -0.15597 0 0 0 0)
(0 -0.0253417 0 -0.0253417 -0.155068 0 0 0 0)
(0 -0.0258515 0 -0.0258515 -0.154166 0 0 0 0)
(0 -0.0262597 0 -0.0262597 -0.153346 0 0 0 0)
(0 -0.0265719 0 -0.0265719 -0.15254 0 0 0 0)
(0 -0.0268439 0 -0.0268439 -0.151728 0 0 0 0)
(-2.27226e-13 -0.0271329 0 -0.0271329 -0.150952 0 0 0 0)
(0 -0.0274303 0 -0.0274303 -0.15012 0 0 0 0)
(0 -0.0277376 0 -0.0277376 -0.149265 0 0 0 0)
(0 -0.0280435 0 -0.0280435 -0.148348 0 0 0 0)
(0 -0.0283457 0 -0.0283457 -0.147411 0 0 0 0)
(0 -0.028623 0 -0.028623 -0.146387 0 0 0 0)
(0 -0.0288877 0 -0.0288877 -0.145357 0 0 0 0)
(0 -0.0291208 0 -0.0291208 -0.144255 0 0 0 0)
(0 -0.0293319 0 -0.0293319 -0.143129 0 0 0 0)
(0 -0.0295205 0 -0.0295205 -0.141986 0 0 0 0)
(0 -0.0296709 0 -0.0296709 -0.140775 0 0 0 0)
(0 -0.0298065 0 -0.0298065 -0.139575 0 0 0 0)
(0 -0.0299188 0 -0.0299188 -0.138331 0 0 0 0)
(0 -0.0300207 0 -0.0300207 -0.137089 0 0 0 0)
(0 -0.0301111 0 -0.0301111 -0.135827 0 0 0 0)
(0 -0.0301901 0 -0.0301901 -0.134558 0 0 0 0)
(0 -0.0302504 0 -0.0302504 -0.133264 0 0 0 0)
(0 -0.0302919 0 -0.0302919 -0.13195 0 0 0 0)
(0 -0.0303177 0 -0.0303177 -0.130615 0 0 0 0)
(0 -0.0303256 0 -0.0303256 -0.129267 0 0 0 0)
(0 -0.030302 0 -0.030302 -0.127874 0 0 0 0)
(0 -0.0302589 0 -0.0302589 -0.126455 0 0 0 0)
(0 -0.0302103 0 -0.0302103 -0.125038 0 0 0 0)
(0 -0.0301419 0 -0.0301419 -0.123579 0 0 0 0)
(0 -0.0300638 0 -0.0300638 -0.122115 0 0 0 0)
(0 -0.029976 0 -0.029976 -0.120626 0 0 0 0)
(0 -0.0298885 0 -0.0298885 -0.119138 0 0 0 0)
(0 -0.0297951 0 -0.0297951 -0.117636 0 0 0 0)
(0 -0.0296918 0 -0.0296918 -0.11612 0 0 0 0)
(0 -0.0295785 0 -0.0295785 -0.114591 0 0 0 0)
(0 -0.029456 0 -0.029456 -0.113055 0 0 0 0)
(0 -0.0293189 0 -0.0293189 -0.111502 0 0 0 0)
(0 -0.0291672 0 -0.0291672 -0.109935 0 0 0 0)
(0 -0.0290031 0 -0.0290031 -0.108357 0 0 0 0)
(0 -0.0288276 0 -0.0288276 -0.106767 0 0 0 0)
(0 -0.0286429 0 -0.0286429 -0.105169 0 0 0 0)
(0 -0.0284504 0 -0.0284504 -0.103561 0 0 0 0)
(0 -0.0282528 0 -0.0282528 -0.101946 0 0 0 0)
(0 -0.0280505 0 -0.0280505 -0.100326 0 0 0 0)
(0 -0.0278426 0 -0.0278426 -0.098698 0 0 0 0)
(0 -0.0276289 0 -0.0276289 -0.097064 0 0 0 0)
(0 -0.0274089 0 -0.0274089 -0.095424 0 0 0 0)
(0 -0.0271812 0 -0.0271812 -0.0937768 0 0 0 0)
(0 -0.0269457 0 -0.0269457 -0.0921231 0 0 0 0)
(0 -0.0267029 0 -0.0267029 -0.0904633 0 0 0 0)
(0 -0.0264529 0 -0.0264529 -0.0887976 0 0 0 0)
(0 -0.0261966 0 -0.0261966 -0.0871266 0 0 0 0)
(0 -0.0259344 0 -0.0259344 -0.0854508 0 0 0 0)
(0 -0.0256668 0 -0.0256668 -0.0837704 0 0 0 0)
(0 -0.0253942 0 -0.0253942 -0.0820855 0 0 0 0)
(0 -0.0251166 0 -0.0251166 -0.0803966 0 0 0 0)
(0 -0.0248342 0 -0.0248342 -0.0787036 0 0 0 0)
(0 -0.0245469 0 -0.0245469 -0.0770067 0 0 0 0)
(0 -0.024255 0 -0.024255 -0.0753061 0 0 0 0)
(0 -0.0239585 0 -0.0239585 -0.073602 0 0 0 0)
(0 -0.0236577 0 -0.0236577 -0.0718945 0 0 0 0)
(0 -0.0233526 0 -0.0233526 -0.0701837 0 0 0 0)
(0 -0.0230436 0 -0.0230436 -0.0684698 0 0 0 0)
(0 -0.0227307 0 -0.0227307 -0.066753 0 0 0 0)
(0 -0.0224141 0 -0.0224141 -0.0650331 0 0 0 0)
(0 -0.022094 0 -0.022094 -0.0633105 0 0 0 0)
(0 -0.0217707 0 -0.0217707 -0.061585 0 0 0 0)
(0 -0.0214442 0 -0.0214442 -0.0598568 0 0 0 0)
(0 -0.0211151 0 -0.0211151 -0.0581258 0 0 0 0)
(0 -0.0207835 0 -0.0207835 -0.0563921 0 0 0 0)
(0 -0.02045 0 -0.02045 -0.0546556 0 0 0 0)
(0 -0.0201149 0 -0.0201149 -0.0529163 0 0 0 0)
(0 -0.0197787 0 -0.0197787 -0.051174 0 0 0 0)
(0 -0.0194419 0 -0.0194419 -0.0494285 0 0 0 0)
(0 -0.0191049 0 -0.0191049 -0.0476798 0 0 0 0)
(0 -0.0187682 0 -0.0187682 -0.0459277 0 0 0 0)
(0 -0.0184324 0 -0.0184324 -0.0441717 0 0 0 0)
(0 -0.0180979 0 -0.0180979 -0.0424117 0 0 0 0)
(0 -0.0177654 0 -0.0177654 -0.0406472 0 0 0 0)
(0 -0.0174353 0 -0.0174353 -0.0388778 0 0 0 0)
(0 -0.0171076 0 -0.0171076 -0.0371029 0 0 0 0)
(0 -0.0167819 0 -0.0167819 -0.0353217 0 0 0 0)
(0 -0.0164568 0 -0.0164568 -0.0335335 0 0 0 0)
(0 -0.0161311 0 -0.0161311 -0.0317372 0 0 0 0)
(0 -0.0158046 0 -0.0158046 -0.0299311 0 0 0 0)
(0 -0.0154788 0 -0.0154788 -0.0281129 0 0 0 0)
(0 -0.0151554 0 -0.0151554 -0.0262798 0 0 0 0)
(0 -0.0148305 0 -0.0148305 -0.0244299 0 0 0 0)
(0 -0.0144919 0 -0.0144919 -0.0225628 0 0 0 0)
(0 -0.0141302 0 -0.0141302 -0.0206777 0 0 0 0)
(0 -0.0137529 0 -0.0137529 -0.0187704 0 0 0 0)
(0 -0.013372 0 -0.013372 -0.0168354 0 0 0 0)
(0 -0.0129654 0 -0.0129654 -0.0148872 0 0 0 0)
(0 -0.0124658 0 -0.0124658 -0.0129791 0 0 0 0)
(0 -0.0118342 0 -0.0118342 -0.0111367 0 0 0 0)
(0 -0.0111819 0 -0.0111819 -0.00925524 0 0 0 0)
(0 -0.0106608 0 -0.0106608 -0.00724802 0 0 0 0)
(0 -0.010022 0 -0.010022 -0.00499755 0 0 0 0)
(0 -0.00914255 0 -0.00914255 -0.00230439 0 0 0 0)
(0 -0.0078959 0 -0.0078959 0.00179605 0 0 0 0)
(0 -0.00577306 0 -0.00577306 0.00384086 0 0 0 0)
(0 -0.00264684 0 -0.00264684 -3.94188e-07 0 0 0 0)
(0 -0.0020275 0 -0.0020275 1.23759e-06 0 0 0 0)
(0 -0.00294525 0 -0.00294525 1.68791e-06 0 0 0 0)
(0 -0.00280781 0 -0.00280781 1.29274e-06 0 0 0 0)
(0 -0.00238092 0 -0.00238092 1.50402e-06 0 0 0 0)
(0 -0.00212505 0 -0.00212505 2.1784e-06 0 0 0 0)
(0 -0.00198983 0 -0.00198983 3.45446e-06 0 0 0 0)
(0 -0.0019489 0 -0.0019489 5.40838e-06 0 0 0 0)
(0 -0.00198524 0 -0.00198524 8.34421e-06 0 0 0 0)
(0 -0.00208854 0 -0.00208854 1.26468e-05 0 0 0 0)
(0 -0.00225293 0 -0.00225293 1.88007e-05 0 0 0 0)
(0 -0.00247559 0 -0.00247559 2.73952e-05 0 0 0 0)
(0 -0.0027558 0 -0.0027558 3.91289e-05 0 0 0 0)
(0 -0.00309439 0 -0.00309439 5.48152e-05 0 0 0 0)
(0 -0.00349325 0 -0.00349325 7.53936e-05 0 0 0 0)
(0 -0.00395492 0 -0.00395492 0.000101941 0 0 0 0)
(0 -0.00448224 0 -0.00448224 0.000135672 0 0 0 0)
(0 -0.005078 0 -0.005078 0.000177949 0 0 0 0)
(0 -0.00574466 0 -0.00574466 0.00023026 0 0 0 0)
(0 -0.00648398 0 -0.00648398 0.00029419 0 0 0 0)
(0 -0.0072968 0 -0.0072968 0.000371327 0 0 0 0)
(0 -0.00818282 0 -0.00818282 0.000463123 0 0 0 0)
(0 -0.00914053 0 -0.00914053 0.000570702 0 0 0 0)
(0 -0.0101672 0 -0.0101672 0.000694582 0 0 0 0)
(0 -0.0112594 0 -0.0112594 0.000833766 0 0 0 0)
(0 -0.0124147 0 -0.0124147 0.000982446 0 0 0 0)
(0 -0.0136373 0 -0.0136373 0.00112201 0 0 0 0)
(0 -0.0149501 0 -0.0149501 0.00120981 0 0 0 0)
(0 -0.0164052 0 -0.0164052 0.00117472 0 0 0 0)
(0 -0.0180781 0 -0.0180781 0.000933038 0 0 0 0)
(0 -0.0200324 0 -0.0200324 0.000426389 0 0 0 0)
(0 -0.0222668 0 -0.0222668 -0.000336514 0 0 0 0)
(0 -0.024683 0 -0.024683 -0.00126276 0 0 0 0)
(0 -0.0271059 0 -0.0271059 -0.00220078 0 0 0 0)
(0 -0.0293424 0 -0.0293424 -0.00299491 0 0 0 0)
(0 -0.0312368 0 -0.0312368 -0.00353169 0 0 0 0)
(0 -0.032695 0 -0.032695 -0.00375537 0 0 0 0)
(0 -0.0336833 0 -0.0336833 -0.00365999 0 0 0 0)
(0 -0.034216 0 -0.034216 -0.00327512 0 0 0 0)
(0 -0.0343448 0 -0.0343448 -0.00265518 0 0 0 0)
(0 -0.0341519 0 -0.0341519 -0.00187557 0 0 0 0)
(0 -0.0337527 0 -0.0337527 -0.0010379 0 0 0 0)
(0 -0.0333078 0 -0.0333078 -0.000281929 0 0 0 0)
(0 -0.0330195 0 -0.0330195 0.000222404 0 0 0 0)
(0 -0.0330423 0 -0.0330423 0.000342955 0 0 0 0)
(0 -0.033331 0 -0.033331 9.49913e-05 0 0 0 0)
(0 -0.0336143 0 -0.0336143 -0.000328616 0 0 0 0)
(0 -0.0336457 0 -0.0336457 -0.000719275 0 0 0 0)
(0 -0.0334496 0 -0.0334496 -0.00105096 0 0 0 0)
(0 -0.0331728 0 -0.0331728 -0.00142218 0 0 0 0)
(0 -0.0328336 0 -0.0328336 -0.00186184 0 0 0 0)
(0 -0.0323764 0 -0.0323764 -0.00231872 0 0 0 0)
(0 -0.0318107 0 -0.0318107 -0.00278264 0 0 0 0)
(0 -0.0312046 0 -0.0312046 -0.00331133 0 0 0 0)
(0 -0.030583 0 -0.030583 -0.00391643 0 0 0 0)
(0 -0.0298396 0 -0.0298396 -0.00447873 0 0 0 0)
(1.56625e-14 -0.0289103 0 -0.0289103 -0.00494057 0 0 0 0)
(0 -0.0279817 0 -0.0279817 -0.00551928 0 0 0 0)
(0 -0.0271411 0 -0.0271411 -0.0063256 0 0 0 0)
(0 -0.0261183 0 -0.0261183 -0.00698324 0 0 0 0)
(0 -0.0248371 0 -0.0248371 -0.00736602 0 0 0 0)
(1.75809e-14 -0.0236771 0 -0.0236771 -0.00803145 0 0 0 0)
(0 -0.0226144 0 -0.0226144 -0.00897689 0 0 0 0)
(0 -0.0213129 0 -0.0213129 -0.00959831 0 0 0 0)
(0 -0.0199433 0 -0.0199433 -0.0101538 0 0 0 0)
(0 -0.0186837 0 -0.0186837 -0.01103 0 0 0 0)
(0 -0.0173391 0 -0.0173391 -0.0117972 0 0 0 0)
(-1.76238e-14 -0.0159413 0 -0.0159413 -0.0124971 0 0 0 0)
(0 -0.0146068 0 -0.0146068 -0.0134342 0 0 0 0)
(0 -0.0131875 0 -0.0131875 -0.0141034 0 0 0 0)
(0 -0.0117246 0 -0.0117246 -0.0146292 0 0 0 0)
(0 -0.010393 0 -0.010393 -0.0157216 0 0 0 0)
(0 -0.00905253 0 -0.00905253 -0.0166635 0 0 0 0)
(0 -0.00763285 0 -0.00763285 -0.0170521 0 0 0 0)
(0 -0.00630103 0 -0.00630103 -0.0178785 0 0 0 0)
(1.48718e-14 -0.00504022 0 -0.00504022 -0.0189172 0 0 0 0)
(0 -0.00379301 0 -0.00379301 -0.0197093 0 0 0 0)
(1.38929e-14 -0.00260071 0 -0.00260071 -0.0205753 0 0 0 0)
(0 -0.00146271 0 -0.00146271 -0.021225 0 0 0 0)
(0 -0.000381384 0 -0.000381384 -0.022015 0 0 0 0)
(0 0.000618127 0 0.000618127 -0.0229827 0 0 0 0)
(0 0.00153248 0 0.00153248 -0.0232999 0 0 0 0)
(-1.11109e-14 0.00239025 0 0.00239025 -0.0237408 0 0 0 0)
(-1.04927e-14 0.00318314 0 0.00318314 -0.0245485 0 0 0 0)
(0 0.00388594 0 0.00388594 -0.0249981 0 0 0 0)
(0 0.00443171 0 0.00443171 -0.0247291 0 0 0 0)
(0 0.00459576 0 0.00459576 -0.0222328 0 0 0 0)
(0 0.00424358 0 0.00424358 -0.0169559 0 0 0 0)
(0 0.00349799 0 0.00349799 -0.0105639 0 0 0 0)
(0 0.00322563 0 0.00322563 -0.00531656 0 0 0 0)
(0 0 0 0 -0 0 0 0 0)
(0 0 0 0 -0 0 0 0 0)
(0 0 0 0 -0 0 0 0 0)
(0 0 0 0 0 0 0 0 0)
(0 0 0 0 0 0 0 0 0)
(0 0 0 0 0 0 0 0 0)
(0 0 0 0 0 0 0 0 0)
(0 0 0 0 0 0 0 0 0)
(-0 0 0 0 0 0 0 0 0)
(0 0 0 0 0 0 0 0 0)
(0 0 0 0 -0 0 0 0 0)
(0 0 0 0 0 0 0 0 0)
(0 0 0 0 -0 0 0 0 0)
(0 0 0 0 -0 0 0 0 0)
(0 0 0 0 -0 0 0 0 0)
(0 0 0 0 -0 0 0 0 0)
(0 0 0 0 -0 0 0 0 0)
(0 0 0 0 0 0 0 0 0)
(0 0 0 0 -0 0 0 0 0)
(0 0 0 0 0 0 0 0 0)
(0 0 0 0 -0 0 0 0 0)
(0 0 0 0 0 0 0 0 0)
(0 0 0 0 -0 0 0 0 0)
(0 0 0 0 0 0 0 0 0)
(0 0 0 0 -0 0 0 0 0)
(0 0 0 0 0 0 0 0 0)
(0 0 0 0 -0 0 0 0 0)
(0 0 0 0 0 0 0 0 0)
(0 0 0 0 -0 0 0 0 0)
(0 0 0 0 0 0 0 0 0)
(-0 0 0 0 -0 0 0 0 0)
(0 0 0 0 0 0 0 0 0)
(0 0 0 0 0 0 0 0 0)
(0 0 0 0 -0 0 0 0 0)
(0 0 0 0 0 0 0 0 0)
(0 0 0 0 0 0 0 0 0)
(0 0 0 0 -0 0 0 0 0)
(0 0 0 0 0 0 0 0 0)
(0 0 0 0 -0 0 0 0 0)
(0 0 0 0 0 0 0 0 0)
(0 0 0 0 -0 0 0 0 0)
(0 0 0 0 0 0 0 0 0)
(0 0 0 0 -0 0 0 0 0)
(0 0 0 0 0 0 0 0 0)
(0 0 0 0 -0 0 0 0 0)
(0 0 0 0 0 0 0 0 0)
(0 0 0 0 -0 0 0 0 0)
(0 0 0 0 0 0 0 0 0)
(0 0 0 0 -0 0 0 0 0)
(0 0 0 0 0 0 0 0 0)
(-0 0 0 0 -0 0 0 0 0)
(0 0 0 0 0 0 0 0 0)
(0 0 0 0 -0 0 0 0 0)
(0 0 0 0 0 0 0 0 0)
(0 0 0 0 -0 0 0 0 0)
(0 0 0 0 0 0 0 0 0)
(0 0 0 0 -0 0 0 0 0)
(0 -0 0 -0 0 0 0 0 0)
(0 0 0 0 -0 0 0 0 0)
(0 -0 0 -0 0 0 0 0 0)
(0 0 0 0 -0 0 0 0 0)
(0 -0 0 -0 0 0 0 0 0)
(0 0 0 0 -0 0 0 0 0)
(0 -0 0 -0 0 0 0 0 0)
(0 0 0 0 -0 0 0 0 0)
(0 -0 0 -0 0 0 0 0 0)
(0 0 0 0 -0 0 0 0 0)
(0 -0 0 -0 0 0 0 0 0)
(0 0 0 0 -0 0 0 0 0)
(0 -0 0 -0 0 0 0 0 0)
(0 0 0 0 -0 0 0 0 0)
(0 -0 0 -0 0 0 0 0 0)
(0 0 0 0 -0 0 0 0 0)
(0 -0 0 -0 0 0 0 0 0)
(0 -0 0 -0 0 0 0 0 0)
(0 -0 0 -0 0 0 0 0 0)
(0 0 0 0 -0 0 0 0 0)
(0 -0 0 -0 0 0 0 0 0)
(0 0 0 0 -0 0 0 0 0)
(0 -0 0 -0 0 0 0 0 0)
(0 0 0 0 -0 0 0 0 0)
(0 -0 0 -0 0 0 0 0 0)
(0 0 0 0 -0 0 0 0 0)
(0 -0 0 -0 0 0 0 0 0)
(0 0 0 0 -0 0 0 0 0)
(0 -0 0 -0 0 0 0 0 0)
(0 0 0 0 -0 0 0 0 0)
(0 -0 0 -0 0 0 0 0 0)
(0 0 0 0 -0 0 0 0 0)
(0 -0 0 -0 0 0 0 0 0)
(0 0 0 0 -0 0 0 0 0)
(0 -0 0 -0 0 0 0 0 0)
(0 0 0 0 -0 0 0 0 0)
(0 -0 0 -0 0 0 0 0 0)
(0 0 0 0 -0 0 0 0 0)
(0 -0 0 -0 0 0 0 0 0)
(0 0 0 0 -0 0 0 0 0)
(0 -0 0 -0 0 0 0 0 0)
(0 0 0 0 -0 0 0 0 0)
(0 -0 0 -0 0 0 0 0 0)
(0 0 0 0 -0 0 0 0 0)
(0 -0 0 -0 0 0 0 0 0)
(0 0 0 0 -0 0 0 0 0)
(0 -0 0 -0 0 0 0 0 0)
(0 -0 0 -0 -0 0 0 0 0)
(0 -0 0 -0 0 0 0 0 0)
(0 0 0 0 -0 0 0 0 0)
(0 -0 0 -0 0 0 0 0 0)
(0 0 0 0 -0 0 0 0 0)
(0 -0 0 -0 0 0 0 0 0)
(0 0 0 0 -0 0 0 0 0)
(0 -0 0 -0 0 0 0 0 0)
(0 0 0 0 -0 0 0 0 0)
(0 -0 0 -0 0 0 0 0 0)
(0 0 0 0 -0 0 0 0 0)
(0 0 0 0 0 0 0 0 0)
(0 0 0 0 -0 0 0 0 0)
(0 0 0 0 0 0 0 0 0)
(0 0 0 0 0 0 0 0 0)
(0 0 0 0 0 0 0 0 0)
(0 0 0 0 0 0 0 0 0)
(0 0 0 0 0 0 0 0 0)
(0 0 0 0 0 0 0 0 0)
(0 0 0 0 0 0 0 0 0)
)
;

boundaryField
{
    inandouthalf11
    {
        type            cyclic;
    }
    inandouthalf12
    {
        type            cyclic;
    }
    inandouthalf21
    {
        type            cyclic;
    }
    inandouthalf22
    {
        type            cyclic;
    }
    inandouthalf31
    {
        type            cyclic;
    }
    inandouthalf32
    {
        type            cyclic;
    }
    inandouthalf41
    {
        type            cyclic;
    }
    inandouthalf42
    {
        type            cyclic;
    }
    top
    {
        type            symmetryPlane;
    }
    walls
    {
        type            zeroGradient;
    }
    frontAndBackPlanes
    {
        type            empty;
    }
}


// ************************************************************************* //
