/*--------------------------------*- C++ -*----------------------------------*\
| =========                 |                                                 |
| \\      /  F ield         | OpenFOAM: The Open Source CFD Toolbox           |
|  \\    /   O peration     | Version:  2.4.x                                 |
|   \\  /    A nd           | Web:      www.OpenFOAM.org                      |
|    \\/     M anipulation  |                                                 |
\*---------------------------------------------------------------------------*/
FoamFile
{
    version     2.0;
    format      ascii;
    class       volVectorField;
    location    "4.55";
    object      Ua;
}
// * * * * * * * * * * * * * * * * * * * * * * * * * * * * * * * * * * * * * //

dimensions      [0 1 -1 0 0 0 0];

internalField   nonuniform List<vector> 
360
(
(-1.04079e-32 -8.23814e-32 0)
(-4.52462e-08 -2.60191e-07 0)
(-1.01242e-07 -5.10454e-07 0)
(-1.51226e-07 -7.20051e-07 0)
(-1.99619e-07 -9.25938e-07 0)
(-2.49501e-07 -1.13937e-06 0)
(-3.01136e-07 -1.35925e-06 0)
(-3.54058e-07 -1.58315e-06 0)
(-4.07856e-07 -1.80922e-06 0)
(-4.62349e-07 -2.03663e-06 0)
(-5.17595e-07 -2.26577e-06 0)
(-5.73744e-07 -2.49733e-06 0)
(-6.30913e-07 -2.73176e-06 0)
(-6.89152e-07 -2.96919e-06 0)
(-7.48481e-07 -3.20959e-06 0)
(-8.08949e-07 -3.45309e-06 0)
(-8.70645e-07 -3.70004e-06 0)
(-9.33679e-07 -3.95083e-06 0)
(-9.98158e-07 -4.20583e-06 0)
(-1.06415e-06 -4.4653e-06 0)
(-1.13167e-06 -4.72918e-06 0)
(-1.2006e-06 -4.99701e-06 0)
(-1.27075e-06 -5.26794e-06 0)
(-1.34175e-06 -5.54057e-06 0)
(-1.41316e-06 -5.81302e-06 0)
(-1.48448e-06 -6.08335e-06 0)
(-1.55535e-06 -6.35003e-06 0)
(-1.62573e-06 -6.61278e-06 0)
(-1.69601e-06 -6.87305e-06 0)
(-1.76726e-06 -7.13458e-06 0)
(-1.84131e-06 -7.40409e-06 0)
(-1.92105e-06 -7.69199e-06 0)
(-2.01051e-06 -8.0129e-06 0)
(-2.11484e-06 -8.38579e-06 0)
(-2.23918e-06 -8.83035e-06 0)
(-2.38496e-06 -9.35405e-06 0)
(-2.54314e-06 -9.92692e-06 0)
(-2.68996e-06 -1.04627e-05 0)
(-2.79759e-06 -1.0856e-05 0)
(-2.85626e-06 -1.10686e-05 0)
(-2.87957e-06 -1.11515e-05 0)
(-2.88659e-06 -1.11758e-05 0)
(-2.88836e-06 -1.11818e-05 0)
(-2.8888e-06 -1.11833e-05 0)
(-2.88893e-06 -1.11837e-05 0)
(-2.88898e-06 -1.11838e-05 0)
(-2.88901e-06 -1.11839e-05 0)
(-2.88903e-06 -1.1184e-05 0)
(-2.88904e-06 -1.1184e-05 0)
(-2.88906e-06 -1.11841e-05 0)
(-2.88908e-06 -1.11841e-05 0)
(-2.88911e-06 -1.11842e-05 0)
(-2.88914e-06 -1.11843e-05 0)
(-2.88918e-06 -1.11844e-05 0)
(-2.88923e-06 -1.11845e-05 0)
(-2.88927e-06 -1.11846e-05 0)
(-2.88932e-06 -1.11848e-05 0)
(-2.88938e-06 -1.11849e-05 0)
(-2.88943e-06 -1.1185e-05 0)
(-2.88949e-06 -1.11852e-05 0)
(-2.88954e-06 -1.11853e-05 0)
(-2.8896e-06 -1.11854e-05 0)
(-2.88965e-06 -1.11855e-05 0)
(-2.88971e-06 -1.11857e-05 0)
(-2.88977e-06 -1.11858e-05 0)
(-2.88983e-06 -1.11859e-05 0)
(-2.88989e-06 -1.11861e-05 0)
(-2.88995e-06 -1.11862e-05 0)
(-2.89002e-06 -1.11864e-05 0)
(-2.89008e-06 -1.11865e-05 0)
(-2.89015e-06 -1.11866e-05 0)
(-2.89023e-06 -1.11868e-05 0)
(-2.8903e-06 -1.1187e-05 0)
(-2.89038e-06 -1.11871e-05 0)
(-2.89047e-06 -1.11873e-05 0)
(-2.89056e-06 -1.11875e-05 0)
(-2.89065e-06 -1.11877e-05 0)
(-2.89074e-06 -1.11879e-05 0)
(-2.89084e-06 -1.1188e-05 0)
(-2.89094e-06 -1.11882e-05 0)
(-2.89105e-06 -1.11884e-05 0)
(-2.89116e-06 -1.11887e-05 0)
(-2.89127e-06 -1.11889e-05 0)
(-2.89138e-06 -1.11891e-05 0)
(-2.8915e-06 -1.11893e-05 0)
(-2.89162e-06 -1.11895e-05 0)
(-2.89174e-06 -1.11897e-05 0)
(-2.89187e-06 -1.119e-05 0)
(-2.892e-06 -1.11902e-05 0)
(-2.89214e-06 -1.11905e-05 0)
(-2.89228e-06 -1.11907e-05 0)
(-2.89242e-06 -1.11909e-05 0)
(-2.89256e-06 -1.11912e-05 0)
(-2.89271e-06 -1.11914e-05 0)
(-2.89286e-06 -1.11917e-05 0)
(-2.89302e-06 -1.1192e-05 0)
(-2.89317e-06 -1.11922e-05 0)
(-2.89333e-06 -1.11925e-05 0)
(-2.89349e-06 -1.11928e-05 0)
(-2.89366e-06 -1.1193e-05 0)
(-2.89383e-06 -1.11933e-05 0)
(-2.894e-06 -1.11936e-05 0)
(-2.89417e-06 -1.11938e-05 0)
(-2.89435e-06 -1.11941e-05 0)
(-2.89453e-06 -1.11944e-05 0)
(-2.89471e-06 -1.11947e-05 0)
(-2.89489e-06 -1.11949e-05 0)
(-2.89507e-06 -1.11952e-05 0)
(-2.89526e-06 -1.11955e-05 0)
(-2.89545e-06 -1.11958e-05 0)
(-2.89564e-06 -1.1196e-05 0)
(-2.89583e-06 -1.11963e-05 0)
(-2.89602e-06 -1.11966e-05 0)
(-2.89622e-06 -1.11969e-05 0)
(-2.89641e-06 -1.11971e-05 0)
(-2.89661e-06 -1.11974e-05 0)
(-2.89681e-06 -1.11977e-05 0)
(-2.89702e-06 -1.11979e-05 0)
(-2.89722e-06 -1.11982e-05 0)
(-2.89743e-06 -1.11984e-05 0)
(-2.89764e-06 -1.11987e-05 0)
(-2.89785e-06 -1.1199e-05 0)
(-2.89807e-06 -1.11992e-05 0)
(-2.8983e-06 -1.11995e-05 0)
(-2.89852e-06 -1.11997e-05 0)
(-2.89876e-06 -1.12e-05 0)
(-2.89899e-06 -1.12003e-05 0)
(-2.89923e-06 -1.12005e-05 0)
(-2.89947e-06 -1.12007e-05 0)
(-2.89971e-06 -1.1201e-05 0)
(-2.89995e-06 -1.12012e-05 0)
(-2.90018e-06 -1.12014e-05 0)
(-2.9004e-06 -1.12016e-05 0)
(-2.90062e-06 -1.12018e-05 0)
(-2.90082e-06 -1.12019e-05 0)
(-2.90102e-06 -1.1202e-05 0)
(-2.9012e-06 -1.12022e-05 0)
(-2.90139e-06 -1.12023e-05 0)
(-2.90156e-06 -1.12024e-05 0)
(-2.90173e-06 -1.12025e-05 0)
(-2.90188e-06 -1.12025e-05 0)
(-2.902e-06 -1.12026e-05 0)
(-2.90207e-06 -1.12026e-05 0)
(-2.90211e-06 -1.12026e-05 0)
(-2.90213e-06 -1.12026e-05 0)
(-2.90214e-06 -1.12026e-05 0)
(-2.90216e-06 -1.12026e-05 0)
(-0.016703 -1.24461e-05 0)
(-0.112963 2.32731e-05 0)
(-0.212554 4.36748e-05 0)
(-0.292715 6.46524e-05 0)
(-0.359334 9.00349e-05 0)
(-0.415783 0.000127731 0)
(-0.464358 0.000181199 0)
(-0.506677 0.00025385 0)
(-0.543925 0.000348414 0)
(-0.577008 0.00046679 0)
(-0.606626 0.000610032 0)
(-0.633332 0.000778437 0)
(-0.657563 0.000971652 0)
(-0.679663 0.00118879 0)
(-0.699904 0.00142857 0)
(-0.718502 0.00168935 0)
(-0.735626 0.0019692 0)
(-0.75141 0.00226594 0)
(-0.765959 0.00257711 0)
(-0.779357 0.00289994 0)
(-0.791671 0.00323134 0)
(-0.802957 0.0035678 0)
(-0.813262 0.00390538 0)
(-0.822628 0.00423972 0)
(-0.831095 0.00456565 0)
(-0.838703 0.00487578 0)
(-0.845496 0.00515806 0)
(-0.851522 0.00539443 0)
(-0.856837 0.00556411 0)
(-0.861507 0.00565209 0)
(-0.865601 0.00565737 0)
(-0.86919 0.00559403 0)
(-0.872342 0.00548493 0)
(-0.875114 0.00535355 0)
(-0.877554 0.00521893 0)
(-0.879703 0.00509413 0)
(-0.881594 0.00498694 0)
(-0.883254 0.00490119 0)
(-0.884709 0.00483784 0)
(-0.88598 0.00479583 0)
(-0.887087 0.00477256 0)
(-0.888047 0.00476405 0)
(-0.888881 0.00476497 0)
(-0.889605 0.00476929 0)
(-0.890236 0.004772 0)
(-0.890791 0.00477098 0)
(-0.891281 0.0047669 0)
(-0.891716 0.0047611 0)
(-0.892103 0.00475398 0)
(-0.89245 0.00474536 0)
(-0.892762 0.00473529 0)
(-0.893044 0.00472408 0)
(-0.8933 0.00471176 0)
(-0.893534 0.00469811 0)
(-0.89375 0.00468297 0)
(-0.893952 0.00466672 0)
(-0.894141 0.00464956 0)
(-0.894318 0.00463057 0)
(-0.894485 0.00460938 0)
(-0.894642 0.00458726 0)
(-0.894789 0.00456437 0)
(-0.894927 0.00453887 0)
(-0.895057 0.00451097 0)
(-0.895179 0.00448204 0)
(-0.895293 0.00445086 0)
(-0.8954 0.00441673 0)
(-0.8955 0.00438064 0)
(-0.895592 0.00434162 0)
(-0.895677 0.00429903 0)
(-0.895754 0.00425466 0)
(-0.895824 0.00420711 0)
(-0.895887 0.00415395 0)
(-0.895943 0.00409798 0)
(-0.89599 0.00403927 0)
(-0.89603 0.00397438 0)
(-0.896062 0.00390454 0)
(-0.896085 0.00382928 0)
(-0.896101 0.00374767 0)
(-0.896108 0.00366117 0)
(-0.896107 0.00356596 0)
(-0.896098 0.00346301 0)
(-0.89608 0.00335517 0)
(-0.896052 0.00323667 0)
(-0.896015 0.00310735 0)
(-0.895968 0.0029676 0)
(-0.895913 0.00282112 0)
(-0.895852 0.00268753 0)
(-0.895794 0.00258427 0)
(-0.89574 0.00251863 0)
(-0.895667 0.00247998 0)
(-0.875154 -0.023291 0)
(-0.873209 -0.0396927 0)
(-0.870291 -0.0396416 0)
(-0.867888 -0.0396401 0)
(-0.865672 -0.0396277 0)
(-0.863922 -0.0396017 0)
(-0.863141 -0.03957 0)
(-0.863029 -0.0395521 0)
(-0.863024 -0.0395494 0)
(-0.863022 -0.0395494 0)
(-0.86302 -0.0395494 0)
(-0.863019 -0.0395494 0)
(-0.863017 -0.0395494 0)
(-0.863017 -0.0395494 0)
(-0.863016 -0.0395494 0)
(-0.863015 -0.0395494 0)
(-0.863015 -0.0395494 0)
(-0.863014 -0.0395494 0)
(-0.863014 -0.0395494 0)
(-0.863014 -0.0395494 0)
(-0.863013 -0.0395494 0)
(-0.863013 -0.0395494 0)
(-0.863013 -0.0395494 0)
(-0.863013 -0.0395494 0)
(-0.863013 -0.0395494 0)
(-0.863013 -0.0395494 0)
(-0.863013 -0.0395494 0)
(-0.863013 -0.0395494 0)
(-0.863013 -0.0395494 0)
(-0.863013 -0.0395494 0)
(-0.863013 -0.0395494 0)
(-0.863013 -0.0395494 0)
(-0.863013 -0.0395494 0)
(-0.863013 -0.0395494 0)
(-0.863013 -0.0395494 0)
(-0.863013 -0.0395494 0)
(-0.863013 -0.0395494 0)
(-0.863013 -0.0395494 0)
(-0.863013 -0.0395494 0)
(-0.863013 -0.0395494 0)
(-0.863013 -0.0395494 0)
(-0.863013 -0.0395494 0)
(-0.863013 -0.0395494 0)
(-0.863013 -0.0395494 0)
(-0.863013 -0.0395494 0)
(-0.863013 -0.0395494 0)
(-0.863013 -0.0395494 0)
(-0.863013 -0.0395494 0)
(-0.863013 -0.0395494 0)
(-0.863013 -0.0395494 0)
(-0.863013 -0.0395494 0)
(-0.863013 -0.0395494 0)
(-0.863013 -0.0395494 0)
(-0.863013 -0.0395494 0)
(-0.863013 -0.0395494 0)
(-0.863013 -0.0395494 0)
(-0.863013 -0.0395494 0)
(-0.863013 -0.0395494 0)
(-0.863013 -0.0395494 0)
(-0.863013 -0.0395494 0)
(-0.863013 -0.0395494 0)
(-0.863013 -0.0395494 0)
(-0.863013 -0.0395494 0)
(-0.863013 -0.0395494 0)
(-0.863013 -0.0395494 0)
(-0.863013 -0.0395494 0)
(-0.863013 -0.0395494 0)
(-0.863013 -0.0395494 0)
(-0.863013 -0.0395494 0)
(-0.863013 -0.0395494 0)
(-0.863013 -0.0395494 0)
(-0.863013 -0.0395494 0)
(-0.863013 -0.0395494 0)
(-0.863013 -0.0395494 0)
(-0.863013 -0.0395494 0)
(-0.863013 -0.0395494 0)
(-0.863013 -0.0395494 0)
(-0.863013 -0.0395494 0)
(-0.863013 -0.0395494 0)
(-0.863013 -0.0395494 0)
(-0.863013 -0.0395494 0)
(-0.863013 -0.0395494 0)
(-0.863013 -0.0395494 0)
(-0.863013 -0.0395494 0)
(-0.863013 -0.0395494 0)
(-0.863013 -0.0395494 0)
(-0.863013 -0.0395494 0)
(-0.863013 -0.0395494 0)
(-0.863013 -0.0395494 0)
(-0.863013 -0.0395494 0)
(-0.863013 -0.0395494 0)
(-0.863013 -0.0395494 0)
(-0.863013 -0.0395494 0)
(-0.863013 -0.0395494 0)
(-0.863013 -0.0395494 0)
(-0.863013 -0.0395494 0)
(-0.863013 -0.0395494 0)
(-0.863013 -0.0395494 0)
(-0.863013 -0.0395494 0)
(-0.863013 -0.0395494 0)
(-0.863013 -0.0395494 0)
(-0.863013 -0.0395494 0)
(-0.863013 -0.0395494 0)
(-0.863013 -0.0395494 0)
(-0.863013 -0.0395494 0)
(-0.863013 -0.0395494 0)
(-0.863013 -0.0395494 0)
(-0.863013 -0.0395494 0)
(-0.863013 -0.0395494 0)
(-0.863013 -0.0395494 0)
(-0.863013 -0.0395494 0)
(-0.863013 -0.0395494 0)
(-0.863013 -0.0395494 0)
(-0.863013 -0.0395494 0)
(-0.863013 -0.0395494 0)
(-0.863013 -0.0395494 0)
(-0.863013 -0.0395494 0)
(-0.863013 -0.0395494 0)
(-0.863013 -0.0395494 0)
(-0.863013 -0.0395492 0)
(-0.863013 -0.0395408 0)
(-0.863009 -0.0391963 0)
(-0.862932 -0.0224991 0)
)
;

boundaryField
{
    inandouthalf11
    {
        type            cyclic;
    }
    inandouthalf12
    {
        type            cyclic;
    }
    inandouthalf21
    {
        type            cyclic;
    }
    inandouthalf22
    {
        type            cyclic;
    }
    inandouthalf31
    {
        type            cyclic;
    }
    inandouthalf32
    {
        type            cyclic;
    }
    inandouthalf41
    {
        type            cyclic;
    }
    inandouthalf42
    {
        type            cyclic;
    }
    top
    {
        type            symmetryPlane;
    }
    walls
    {
        type            fixedValue;
        value           uniform (0 0 0);
    }
    frontAndBackPlanes
    {
        type            empty;
    }
}


// ************************************************************************* //
