/*--------------------------------*- C++ -*----------------------------------*\
| =========                 |                                                 |
| \\      /  F ield         | OpenFOAM: The Open Source CFD Toolbox           |
|  \\    /   O peration     | Version:  2.4.x                                 |
|   \\  /    A nd           | Web:      www.OpenFOAM.org                      |
|    \\/     M anipulation  |                                                 |
\*---------------------------------------------------------------------------*/
FoamFile
{
    version     2.0;
    format      ascii;
    class       volVectorField;
    location    "4.55";
    object      Ua_0;
}
// * * * * * * * * * * * * * * * * * * * * * * * * * * * * * * * * * * * * * //

dimensions      [0 1 -1 0 0 0 0];

internalField   nonuniform List<vector> 
360
(
(-1.04082e-32 -8.23797e-32 0)
(-4.52507e-08 -2.60207e-07 0)
(-1.01254e-07 -5.10492e-07 0)
(-1.51243e-07 -7.20106e-07 0)
(-1.99641e-07 -9.2601e-07 0)
(-2.49529e-07 -1.13946e-06 0)
(-3.01169e-07 -1.35935e-06 0)
(-3.54097e-07 -1.58327e-06 0)
(-4.07901e-07 -1.80936e-06 0)
(-4.624e-07 -2.03679e-06 0)
(-5.17651e-07 -2.26594e-06 0)
(-5.73807e-07 -2.49752e-06 0)
(-6.30981e-07 -2.73197e-06 0)
(-6.89226e-07 -2.96942e-06 0)
(-7.48562e-07 -3.20984e-06 0)
(-8.09037e-07 -3.45337e-06 0)
(-8.70739e-07 -3.70034e-06 0)
(-9.33781e-07 -3.95115e-06 0)
(-9.98267e-07 -4.20617e-06 0)
(-1.06427e-06 -4.46567e-06 0)
(-1.13179e-06 -4.72958e-06 0)
(-1.20073e-06 -4.99743e-06 0)
(-1.27088e-06 -5.26839e-06 0)
(-1.34189e-06 -5.54102e-06 0)
(-1.4133e-06 -5.81349e-06 0)
(-1.48463e-06 -6.08383e-06 0)
(-1.55551e-06 -6.35052e-06 0)
(-1.62588e-06 -6.61327e-06 0)
(-1.69618e-06 -6.87356e-06 0)
(-1.76743e-06 -7.13512e-06 0)
(-1.8415e-06 -7.40468e-06 0)
(-1.92126e-06 -7.69267e-06 0)
(-2.01076e-06 -8.01371e-06 0)
(-2.11514e-06 -8.38678e-06 0)
(-2.23954e-06 -8.83158e-06 0)
(-2.38537e-06 -9.35549e-06 0)
(-2.54355e-06 -9.92841e-06 0)
(-2.69031e-06 -1.04639e-05 0)
(-2.79781e-06 -1.08568e-05 0)
(-2.85635e-06 -1.10689e-05 0)
(-2.8796e-06 -1.11516e-05 0)
(-2.88659e-06 -1.11759e-05 0)
(-2.88836e-06 -1.11818e-05 0)
(-2.8888e-06 -1.11833e-05 0)
(-2.88893e-06 -1.11837e-05 0)
(-2.88898e-06 -1.11838e-05 0)
(-2.88901e-06 -1.11839e-05 0)
(-2.88903e-06 -1.1184e-05 0)
(-2.88904e-06 -1.1184e-05 0)
(-2.88906e-06 -1.11841e-05 0)
(-2.88908e-06 -1.11841e-05 0)
(-2.88911e-06 -1.11842e-05 0)
(-2.88914e-06 -1.11843e-05 0)
(-2.88918e-06 -1.11844e-05 0)
(-2.88922e-06 -1.11845e-05 0)
(-2.88927e-06 -1.11846e-05 0)
(-2.88932e-06 -1.11848e-05 0)
(-2.88938e-06 -1.11849e-05 0)
(-2.88943e-06 -1.1185e-05 0)
(-2.88949e-06 -1.11851e-05 0)
(-2.88954e-06 -1.11853e-05 0)
(-2.8896e-06 -1.11854e-05 0)
(-2.88965e-06 -1.11855e-05 0)
(-2.88971e-06 -1.11857e-05 0)
(-2.88977e-06 -1.11858e-05 0)
(-2.88983e-06 -1.11859e-05 0)
(-2.88989e-06 -1.11861e-05 0)
(-2.88995e-06 -1.11862e-05 0)
(-2.89002e-06 -1.11864e-05 0)
(-2.89008e-06 -1.11865e-05 0)
(-2.89015e-06 -1.11866e-05 0)
(-2.89023e-06 -1.11868e-05 0)
(-2.8903e-06 -1.1187e-05 0)
(-2.89038e-06 -1.11871e-05 0)
(-2.89047e-06 -1.11873e-05 0)
(-2.89056e-06 -1.11875e-05 0)
(-2.89065e-06 -1.11877e-05 0)
(-2.89074e-06 -1.11879e-05 0)
(-2.89084e-06 -1.1188e-05 0)
(-2.89095e-06 -1.11882e-05 0)
(-2.89105e-06 -1.11884e-05 0)
(-2.89116e-06 -1.11887e-05 0)
(-2.89127e-06 -1.11889e-05 0)
(-2.89138e-06 -1.11891e-05 0)
(-2.8915e-06 -1.11893e-05 0)
(-2.89162e-06 -1.11895e-05 0)
(-2.89175e-06 -1.11897e-05 0)
(-2.89187e-06 -1.119e-05 0)
(-2.89201e-06 -1.11902e-05 0)
(-2.89214e-06 -1.11905e-05 0)
(-2.89228e-06 -1.11907e-05 0)
(-2.89242e-06 -1.11909e-05 0)
(-2.89257e-06 -1.11912e-05 0)
(-2.89271e-06 -1.11915e-05 0)
(-2.89287e-06 -1.11917e-05 0)
(-2.89302e-06 -1.1192e-05 0)
(-2.89318e-06 -1.11922e-05 0)
(-2.89334e-06 -1.11925e-05 0)
(-2.8935e-06 -1.11928e-05 0)
(-2.89366e-06 -1.1193e-05 0)
(-2.89383e-06 -1.11933e-05 0)
(-2.894e-06 -1.11936e-05 0)
(-2.89418e-06 -1.11938e-05 0)
(-2.89435e-06 -1.11941e-05 0)
(-2.89453e-06 -1.11944e-05 0)
(-2.89471e-06 -1.11947e-05 0)
(-2.89489e-06 -1.11949e-05 0)
(-2.89508e-06 -1.11952e-05 0)
(-2.89526e-06 -1.11955e-05 0)
(-2.89545e-06 -1.11958e-05 0)
(-2.89564e-06 -1.1196e-05 0)
(-2.89583e-06 -1.11963e-05 0)
(-2.89603e-06 -1.11966e-05 0)
(-2.89622e-06 -1.11969e-05 0)
(-2.89642e-06 -1.11971e-05 0)
(-2.89662e-06 -1.11974e-05 0)
(-2.89682e-06 -1.11977e-05 0)
(-2.89702e-06 -1.11979e-05 0)
(-2.89723e-06 -1.11982e-05 0)
(-2.89743e-06 -1.11985e-05 0)
(-2.89765e-06 -1.11987e-05 0)
(-2.89786e-06 -1.1199e-05 0)
(-2.89808e-06 -1.11992e-05 0)
(-2.8983e-06 -1.11995e-05 0)
(-2.89853e-06 -1.11998e-05 0)
(-2.89876e-06 -1.12e-05 0)
(-2.899e-06 -1.12003e-05 0)
(-2.89924e-06 -1.12005e-05 0)
(-2.89948e-06 -1.12007e-05 0)
(-2.89972e-06 -1.1201e-05 0)
(-2.89996e-06 -1.12012e-05 0)
(-2.90019e-06 -1.12014e-05 0)
(-2.90041e-06 -1.12016e-05 0)
(-2.90062e-06 -1.12018e-05 0)
(-2.90083e-06 -1.12019e-05 0)
(-2.90103e-06 -1.12021e-05 0)
(-2.90121e-06 -1.12022e-05 0)
(-2.9014e-06 -1.12023e-05 0)
(-2.90157e-06 -1.12024e-05 0)
(-2.90174e-06 -1.12025e-05 0)
(-2.90189e-06 -1.12025e-05 0)
(-2.90201e-06 -1.12026e-05 0)
(-2.90208e-06 -1.12026e-05 0)
(-2.90212e-06 -1.12026e-05 0)
(-2.90214e-06 -1.12026e-05 0)
(-2.90215e-06 -1.12026e-05 0)
(-2.90217e-06 -1.12026e-05 0)
(-0.0167033 -1.24187e-05 0)
(-0.112964 2.35714e-05 0)
(-0.212557 4.41101e-05 0)
(-0.292719 6.51633e-05 0)
(-0.35934 9.05942e-05 0)
(-0.415791 0.000128342 0)
(-0.464368 0.000181864 0)
(-0.506688 0.000254572 0)
(-0.543939 0.000349197 0)
(-0.577023 0.000467637 0)
(-0.606642 0.000610949 0)
(-0.63335 0.000779428 0)
(-0.657582 0.000972721 0)
(-0.679683 0.00118995 0)
(-0.699925 0.0014298 0)
(-0.718524 0.00169067 0)
(-0.735648 0.0019706 0)
(-0.751432 0.00226742 0)
(-0.765981 0.00257866 0)
(-0.779379 0.00290156 0)
(-0.791693 0.00323302 0)
(-0.802979 0.00356952 0)
(-0.813283 0.00390713 0)
(-0.822648 0.00424147 0)
(-0.831114 0.00456738 0)
(-0.838721 0.00487746 0)
(-0.845513 0.00515963 0)
(-0.851537 0.0053958 0)
(-0.856851 0.0055652 0)
(-0.861519 0.00565285 0)
(-0.865612 0.00565779 0)
(-0.8692 0.00559417 0)
(-0.872351 0.00548486 0)
(-0.875122 0.00535336 0)
(-0.877562 0.00521868 0)
(-0.87971 0.00509386 0)
(-0.881599 0.00498669 0)
(-0.883259 0.00490098 0)
(-0.884714 0.00483767 0)
(-0.885984 0.00479571 0)
(-0.88709 0.00477248 0)
(-0.88805 0.004764 0)
(-0.888883 0.00476496 0)
(-0.889607 0.00476929 0)
(-0.890238 0.00477201 0)
(-0.890792 0.00477099 0)
(-0.891282 0.00476691 0)
(-0.891716 0.00476111 0)
(-0.892104 0.004754 0)
(-0.89245 0.00474537 0)
(-0.892762 0.0047353 0)
(-0.893044 0.00472408 0)
(-0.8933 0.00471176 0)
(-0.893533 0.00469811 0)
(-0.893749 0.00468296 0)
(-0.893951 0.00466671 0)
(-0.894139 0.00464954 0)
(-0.894316 0.00463055 0)
(-0.894483 0.00460935 0)
(-0.89464 0.00458722 0)
(-0.894787 0.00456432 0)
(-0.894925 0.00453881 0)
(-0.895055 0.0045109 0)
(-0.895177 0.00448196 0)
(-0.895291 0.00445078 0)
(-0.895398 0.00441662 0)
(-0.895497 0.00438052 0)
(-0.895589 0.00434149 0)
(-0.895674 0.00429889 0)
(-0.895751 0.0042545 0)
(-0.895821 0.00420694 0)
(-0.895884 0.00415376 0)
(-0.895939 0.00409778 0)
(-0.895986 0.00403904 0)
(-0.896026 0.00397414 0)
(-0.896058 0.00390427 0)
(-0.896081 0.003829 0)
(-0.896097 0.00374736 0)
(-0.896104 0.00366084 0)
(-0.896103 0.00356561 0)
(-0.896093 0.00346263 0)
(-0.896075 0.00335478 0)
(-0.896047 0.00323625 0)
(-0.89601 0.00310692 0)
(-0.895963 0.00296715 0)
(-0.895907 0.00282067 0)
(-0.895847 0.00268707 0)
(-0.895788 0.00258382 0)
(-0.895735 0.00251818 0)
(-0.895661 0.00247949 0)
(-0.875127 -0.0233019 0)
(-0.873182 -0.0396927 0)
(-0.870265 -0.0396416 0)
(-0.867862 -0.0396401 0)
(-0.865647 -0.0396277 0)
(-0.863898 -0.0396016 0)
(-0.863119 -0.0395699 0)
(-0.863008 -0.039552 0)
(-0.863002 -0.0395494 0)
(-0.863 -0.0395494 0)
(-0.862999 -0.0395494 0)
(-0.862997 -0.0395494 0)
(-0.862996 -0.0395494 0)
(-0.862995 -0.0395494 0)
(-0.862994 -0.0395494 0)
(-0.862994 -0.0395494 0)
(-0.862993 -0.0395494 0)
(-0.862993 -0.0395494 0)
(-0.862992 -0.0395494 0)
(-0.862992 -0.0395494 0)
(-0.862992 -0.0395494 0)
(-0.862992 -0.0395494 0)
(-0.862992 -0.0395494 0)
(-0.862991 -0.0395494 0)
(-0.862991 -0.0395494 0)
(-0.862991 -0.0395494 0)
(-0.862991 -0.0395494 0)
(-0.862991 -0.0395494 0)
(-0.862991 -0.0395494 0)
(-0.862991 -0.0395494 0)
(-0.862991 -0.0395494 0)
(-0.862991 -0.0395494 0)
(-0.862991 -0.0395494 0)
(-0.862991 -0.0395494 0)
(-0.862991 -0.0395494 0)
(-0.862991 -0.0395494 0)
(-0.862991 -0.0395494 0)
(-0.862991 -0.0395494 0)
(-0.862991 -0.0395494 0)
(-0.862991 -0.0395494 0)
(-0.862991 -0.0395494 0)
(-0.862991 -0.0395494 0)
(-0.862991 -0.0395494 0)
(-0.862991 -0.0395494 0)
(-0.862991 -0.0395494 0)
(-0.862991 -0.0395494 0)
(-0.862991 -0.0395494 0)
(-0.862991 -0.0395494 0)
(-0.862991 -0.0395494 0)
(-0.862991 -0.0395494 0)
(-0.862991 -0.0395494 0)
(-0.862991 -0.0395494 0)
(-0.862991 -0.0395494 0)
(-0.862991 -0.0395494 0)
(-0.862991 -0.0395494 0)
(-0.862991 -0.0395494 0)
(-0.862991 -0.0395494 0)
(-0.862991 -0.0395494 0)
(-0.862991 -0.0395494 0)
(-0.862991 -0.0395494 0)
(-0.862991 -0.0395494 0)
(-0.862991 -0.0395494 0)
(-0.862991 -0.0395494 0)
(-0.862991 -0.0395494 0)
(-0.862991 -0.0395494 0)
(-0.862991 -0.0395494 0)
(-0.862991 -0.0395494 0)
(-0.862991 -0.0395494 0)
(-0.862991 -0.0395494 0)
(-0.862991 -0.0395494 0)
(-0.862991 -0.0395494 0)
(-0.862991 -0.0395494 0)
(-0.862991 -0.0395494 0)
(-0.862991 -0.0395494 0)
(-0.862991 -0.0395494 0)
(-0.862991 -0.0395494 0)
(-0.862991 -0.0395494 0)
(-0.862991 -0.0395494 0)
(-0.862991 -0.0395494 0)
(-0.862991 -0.0395494 0)
(-0.862991 -0.0395494 0)
(-0.862991 -0.0395494 0)
(-0.862991 -0.0395494 0)
(-0.862991 -0.0395494 0)
(-0.862991 -0.0395494 0)
(-0.862991 -0.0395494 0)
(-0.862991 -0.0395494 0)
(-0.862991 -0.0395494 0)
(-0.862991 -0.0395494 0)
(-0.862991 -0.0395494 0)
(-0.862991 -0.0395494 0)
(-0.862991 -0.0395494 0)
(-0.862991 -0.0395494 0)
(-0.862991 -0.0395494 0)
(-0.862991 -0.0395494 0)
(-0.862991 -0.0395494 0)
(-0.862991 -0.0395494 0)
(-0.862991 -0.0395494 0)
(-0.862991 -0.0395494 0)
(-0.862991 -0.0395494 0)
(-0.862991 -0.0395494 0)
(-0.862991 -0.0395494 0)
(-0.862991 -0.0395494 0)
(-0.862991 -0.0395494 0)
(-0.862991 -0.0395494 0)
(-0.862991 -0.0395494 0)
(-0.862991 -0.0395494 0)
(-0.862991 -0.0395494 0)
(-0.862991 -0.0395494 0)
(-0.862991 -0.0395494 0)
(-0.862991 -0.0395494 0)
(-0.862991 -0.0395494 0)
(-0.862991 -0.0395494 0)
(-0.862991 -0.0395494 0)
(-0.862991 -0.0395494 0)
(-0.862991 -0.0395494 0)
(-0.862991 -0.0395494 0)
(-0.862991 -0.0395494 0)
(-0.862991 -0.0395494 0)
(-0.862991 -0.0395492 0)
(-0.862991 -0.0395408 0)
(-0.862988 -0.0391963 0)
(-0.86291 -0.0224991 0)
)
;

boundaryField
{
    inandouthalf11
    {
        type            cyclic;
    }
    inandouthalf12
    {
        type            cyclic;
    }
    inandouthalf21
    {
        type            cyclic;
    }
    inandouthalf22
    {
        type            cyclic;
    }
    inandouthalf31
    {
        type            cyclic;
    }
    inandouthalf32
    {
        type            cyclic;
    }
    inandouthalf41
    {
        type            cyclic;
    }
    inandouthalf42
    {
        type            cyclic;
    }
    top
    {
        type            symmetryPlane;
    }
    walls
    {
        type            fixedValue;
        value           uniform (0 0 0);
    }
    frontAndBackPlanes
    {
        type            empty;
    }
}


// ************************************************************************* //
