/*--------------------------------*- C++ -*----------------------------------*\
| =========                 |                                                 |
| \\      /  F ield         | OpenFOAM: The Open Source CFD Toolbox           |
|  \\    /   O peration     | Version:  2.4.x                                 |
|   \\  /    A nd           | Web:      www.OpenFOAM.org                      |
|    \\/     M anipulation  |                                                 |
\*---------------------------------------------------------------------------*/
FoamFile
{
    version     2.0;
    format      ascii;
    class       volVectorField;
    location    "4.55";
    object      Ub;
}
// * * * * * * * * * * * * * * * * * * * * * * * * * * * * * * * * * * * * * //

dimensions      [0 1 -1 0 0 0 0];

internalField   nonuniform List<vector> 
360
(
(-2.38991e-05 1.02517e-07 0)
(-2.38652e-05 4.02479e-07 0)
(-2.38918e-05 7.80691e-07 0)
(-2.39516e-05 1.12697e-06 0)
(-2.40102e-05 1.4579e-06 0)
(-2.40659e-05 1.79294e-06 0)
(-2.41226e-05 2.13694e-06 0)
(-2.41806e-05 2.48767e-06 0)
(-2.42394e-05 2.84216e-06 0)
(-2.42991e-05 3.1991e-06 0)
(-2.43598e-05 3.55883e-06 0)
(-2.44214e-05 3.92218e-06 0)
(-2.44842e-05 4.28982e-06 0)
(-2.45479e-05 4.66203e-06 0)
(-2.46128e-05 5.03886e-06 0)
(-2.46789e-05 5.42054e-06 0)
(-2.47463e-05 5.80756e-06 0)
(-2.48151e-05 6.2005e-06 0)
(-2.48855e-05 6.59986e-06 0)
(-2.49574e-05 7.00605e-06 0)
(-2.50309e-05 7.41886e-06 0)
(-2.51059e-05 7.83759e-06 0)
(-2.51822e-05 8.26087e-06 0)
(-2.52594e-05 8.68651e-06 0)
(-2.53369e-05 9.11173e-06 0)
(-2.54143e-05 9.53372e-06 0)
(-2.54912e-05 9.95035e-06 0)
(-2.55675e-05 1.03614e-05 0)
(-2.56437e-05 1.07694e-05 0)
(-2.57209e-05 1.11804e-05 0)
(-2.5801e-05 1.16052e-05 0)
(-2.58873e-05 1.20603e-05 0)
(-2.59837e-05 1.25683e-05 0)
(-2.60962e-05 1.31576e-05 0)
(-2.62299e-05 1.38537e-05 0)
(-2.63864e-05 1.46585e-05 0)
(-2.65558e-05 1.5518e-05 0)
(-2.67132e-05 1.63124e-05 0)
(-2.6829e-05 1.69107e-05 0)
(-2.68927e-05 1.72609e-05 0)
(-2.69191e-05 1.74166e-05 0)
(-2.69281e-05 1.74693e-05 0)
(-2.69315e-05 1.74833e-05 0)
(-2.69338e-05 1.74863e-05 0)
(-2.69357e-05 1.74865e-05 0)
(-2.69377e-05 1.74861e-05 0)
(-2.69398e-05 1.74856e-05 0)
(-2.6942e-05 1.74848e-05 0)
(-2.69444e-05 1.7484e-05 0)
(-2.69472e-05 1.74832e-05 0)
(-2.69499e-05 1.74822e-05 0)
(-2.6953e-05 1.74812e-05 0)
(-2.69562e-05 1.74802e-05 0)
(-2.69597e-05 1.74791e-05 0)
(-2.69633e-05 1.74779e-05 0)
(-2.69674e-05 1.74768e-05 0)
(-2.69715e-05 1.74754e-05 0)
(-2.6976e-05 1.74741e-05 0)
(-2.69807e-05 1.74726e-05 0)
(-2.69855e-05 1.7471e-05 0)
(-2.69908e-05 1.74694e-05 0)
(-2.6996e-05 1.74677e-05 0)
(-2.70016e-05 1.7466e-05 0)
(-2.70073e-05 1.74641e-05 0)
(-2.70131e-05 1.74623e-05 0)
(-2.7019e-05 1.74603e-05 0)
(-2.70251e-05 1.74583e-05 0)
(-2.70315e-05 1.74563e-05 0)
(-2.7038e-05 1.74542e-05 0)
(-2.70448e-05 1.74519e-05 0)
(-2.70519e-05 1.74496e-05 0)
(-2.70594e-05 1.74473e-05 0)
(-2.70669e-05 1.74447e-05 0)
(-2.70747e-05 1.74423e-05 0)
(-2.70828e-05 1.74396e-05 0)
(-2.70911e-05 1.7437e-05 0)
(-2.70994e-05 1.74343e-05 0)
(-2.7108e-05 1.74315e-05 0)
(-2.71168e-05 1.74287e-05 0)
(-2.71258e-05 1.74258e-05 0)
(-2.7135e-05 1.74228e-05 0)
(-2.71444e-05 1.74198e-05 0)
(-2.71542e-05 1.74167e-05 0)
(-2.71642e-05 1.74135e-05 0)
(-2.71744e-05 1.74102e-05 0)
(-2.71849e-05 1.74068e-05 0)
(-2.71956e-05 1.74034e-05 0)
(-2.72066e-05 1.73999e-05 0)
(-2.72178e-05 1.73963e-05 0)
(-2.72292e-05 1.73926e-05 0)
(-2.72409e-05 1.73889e-05 0)
(-2.72528e-05 1.73851e-05 0)
(-2.72651e-05 1.73811e-05 0)
(-2.72776e-05 1.73771e-05 0)
(-2.72904e-05 1.7373e-05 0)
(-2.73036e-05 1.73688e-05 0)
(-2.7317e-05 1.73645e-05 0)
(-2.73308e-05 1.73601e-05 0)
(-2.73448e-05 1.73555e-05 0)
(-2.73593e-05 1.73509e-05 0)
(-2.7374e-05 1.73461e-05 0)
(-2.73891e-05 1.73413e-05 0)
(-2.74046e-05 1.73363e-05 0)
(-2.74205e-05 1.73311e-05 0)
(-2.74368e-05 1.73259e-05 0)
(-2.74535e-05 1.73205e-05 0)
(-2.74706e-05 1.73149e-05 0)
(-2.74882e-05 1.73092e-05 0)
(-2.75063e-05 1.73034e-05 0)
(-2.75248e-05 1.72973e-05 0)
(-2.75438e-05 1.72912e-05 0)
(-2.75634e-05 1.72848e-05 0)
(-2.75836e-05 1.72782e-05 0)
(-2.76043e-05 1.72715e-05 0)
(-2.76256e-05 1.72645e-05 0)
(-2.76476e-05 1.72573e-05 0)
(-2.76702e-05 1.72499e-05 0)
(-2.76935e-05 1.72423e-05 0)
(-2.77175e-05 1.72344e-05 0)
(-2.77424e-05 1.72263e-05 0)
(-2.7768e-05 1.72179e-05 0)
(-2.77944e-05 1.72092e-05 0)
(-2.78218e-05 1.72002e-05 0)
(-2.785e-05 1.71909e-05 0)
(-2.78793e-05 1.71813e-05 0)
(-2.79095e-05 1.71714e-05 0)
(-2.79409e-05 1.71611e-05 0)
(-2.79735e-05 1.71504e-05 0)
(-2.80073e-05 1.71393e-05 0)
(-2.80426e-05 1.71277e-05 0)
(-2.80793e-05 1.71156e-05 0)
(-2.81176e-05 1.7103e-05 0)
(-2.81575e-05 1.70897e-05 0)
(-2.81996e-05 1.70757e-05 0)
(-2.82444e-05 1.70609e-05 0)
(-2.82918e-05 1.70453e-05 0)
(-2.83417e-05 1.70287e-05 0)
(-2.83946e-05 1.70106e-05 0)
(-2.84533e-05 1.69906e-05 0)
(-2.85207e-05 1.69692e-05 0)
(-2.85939e-05 1.69474e-05 0)
(-2.86638e-05 1.69204e-05 0)
(-2.87469e-05 1.68905e-05 0)
(-2.88551e-05 1.68555e-05 0)
(-2.89886e-05 1.67964e-05 0)
(-2.92582e-05 1.66774e-05 0)
(-7.0668e-05 1.4364e-05 0)
(-0.0187663 1.13359e-05 0)
(-0.123026 -1.57289e-05 0)
(-0.221603 -1.20827e-05 0)
(-0.300366 -1.57596e-05 0)
(-0.365714 -1.78295e-05 0)
(-0.421238 -2.04346e-05 0)
(-0.469164 -2.33889e-05 0)
(-0.511052 -2.6328e-05 0)
(-0.548057 -2.89079e-05 0)
(-0.58106 -3.08854e-05 0)
(-0.610749 -3.21352e-05 0)
(-0.637666 -3.26376e-05 0)
(-0.662243 -3.24475e-05 0)
(-0.684824 -3.16628e-05 0)
(-0.705687 -3.03996e-05 0)
(-0.725056 -2.87744e-05 0)
(-0.743111 -2.68947e-05 0)
(-0.760002 -2.48537e-05 0)
(-0.775849 -2.27299e-05 0)
(-0.790751 -2.05865e-05 0)
(-0.804789 -1.8473e-05 0)
(-0.818028 -1.64275e-05 0)
(-0.830521 -1.44778e-05 0)
(-0.84231 -1.26437e-05 0)
(-0.853427 -1.09361e-05 0)
(-0.863898 -9.35551e-06 0)
(-0.873738 -7.89297e-06 0)
(-0.88296 -6.53871e-06 0)
(-0.891569 -5.29653e-06 0)
(-0.899565 -4.19017e-06 0)
(-0.906949 -3.2514e-06 0)
(-0.913717 -2.49817e-06 0)
(-0.91987 -1.92252e-06 0)
(-0.925409 -1.496e-06 0)
(-0.930342 -1.18342e-06 0)
(-0.934684 -9.53224e-07 0)
(-0.938456 -7.81241e-07 0)
(-0.94169 -6.50247e-07 0)
(-0.94442 -5.48201e-07 0)
(-0.946691 -4.66608e-07 0)
(-0.948545 -3.99303e-07 0)
(-0.950031 -3.41704e-07 0)
(-0.95119 -2.90692e-07 0)
(-0.952065 -2.44947e-07 0)
(-0.952691 -2.04871e-07 0)
(-0.953102 -1.71383e-07 0)
(-0.953324 -1.44407e-07 0)
(-0.953382 -1.22643e-07 0)
(-0.953295 -1.04609e-07 0)
(-0.95308 -8.94469e-08 0)
(-0.952752 -7.67326e-08 0)
(-0.952322 -6.60512e-08 0)
(-0.9518 -5.69682e-08 0)
(-0.951196 -4.9213e-08 0)
(-0.950509 -4.26105e-08 0)
(-0.949735 -3.69589e-08 0)
(-0.948876 -3.19775e-08 0)
(-0.947933 -2.75397e-08 0)
(-0.946908 -2.37571e-08 0)
(-0.9458 -2.05793e-08 0)
(-0.944611 -1.77371e-08 0)
(-0.943342 -1.51792e-08 0)
(-0.941993 -1.30233e-08 0)
(-0.940565 -1.11872e-08 0)
(-0.939058 -9.54692e-09 0)
(-0.937473 -8.12564e-09 0)
(-0.935811 -6.91061e-09 0)
(-0.934072 -5.84785e-09 0)
(-0.932257 -4.94831e-09 0)
(-0.930367 -4.18418e-09 0)
(-0.928403 -3.49681e-09 0)
(-0.926365 -2.91012e-09 0)
(-0.924256 -2.43517e-09 0)
(-0.922075 -2.01912e-09 0)
(-0.919825 -1.65263e-09 0)
(-0.917507 -1.3491e-09 0)
(-0.915123 -1.09572e-09 0)
(-0.912675 -8.84882e-10 0)
(-0.910165 -7.07617e-10 0)
(-0.907597 -5.57996e-10 0)
(-0.904973 -4.39285e-10 0)
(-0.902297 -3.41876e-10 0)
(-0.899573 -2.58704e-10 0)
(-0.896807 -1.92832e-10 0)
(-0.894005 -1.43852e-10 0)
(-0.891172 -1.11263e-10 0)
(-0.888319 -9.1258e-11 0)
(-0.885455 -7.59557e-11 0)
(-0.882592 -9.65189e-11 0)
(-0.879747 6.03317e-11 0)
(-0.876939 -1.01089e-11 0)
(-0.874192 1.0308e-10 0)
(-0.871543 -2.27604e-10 0)
(-0.869038 3.74044e-10 0)
(-0.866751 -5.5908e-10 0)
(-0.864793 7.63226e-10 0)
(-0.863675 -9.94126e-10 0)
(-0.863497 1.22997e-09 0)
(-0.86349 -1.48034e-09 0)
(-0.863487 1.73025e-09 0)
(-0.863485 -1.99298e-09 0)
(-0.863484 2.25602e-09 0)
(-0.863483 -2.532e-09 0)
(-0.863482 2.80927e-09 0)
(-0.863481 -3.0996e-09 0)
(-0.86348 3.39222e-09 0)
(-0.86348 -3.69797e-09 0)
(-0.863479 4.00699e-09 0)
(-0.863479 -4.32918e-09 0)
(-0.863479 4.65558e-09 0)
(-0.863478 -4.99515e-09 0)
(-0.863478 5.33984e-09 0)
(-0.863478 -5.69767e-09 0)
(-0.863478 6.0615e-09 0)
(-0.863478 -6.4384e-09 0)
(-0.863478 6.82213e-09 0)
(-0.863478 -7.2189e-09 0)
(-0.863478 7.62326e-09 0)
(-0.863478 -8.04065e-09 0)
(-0.863478 8.46631e-09 0)
(-0.863478 -8.905e-09 0)
(-0.863478 9.35265e-09 0)
(-0.863478 -9.81339e-09 0)
(-0.863478 1.02836e-08 0)
(-0.863478 -1.07671e-08 0)
(-0.863478 1.12605e-08 0)
(-0.863478 -1.17673e-08 0)
(-0.863478 1.22846e-08 0)
(-0.863478 -1.28153e-08 0)
(-0.863478 1.3357e-08 0)
(-0.863478 -1.39123e-08 0)
(-0.863478 1.4479e-08 0)
(-0.863478 -1.50594e-08 0)
(-0.863478 1.56517e-08 0)
(-0.863478 -1.62579e-08 0)
(-0.863478 1.68763e-08 0)
(-0.863478 -1.75089e-08 0)
(-0.863478 1.8154e-08 0)
(-0.863478 -1.88134e-08 0)
(-0.863478 1.94859e-08 0)
(-0.863478 -2.01727e-08 0)
(-0.863478 2.0873e-08 0)
(-0.863478 -2.15878e-08 0)
(-0.863478 2.23165e-08 0)
(-0.863478 -2.30599e-08 0)
(-0.863478 2.38175e-08 0)
(-0.863478 -2.45899e-08 0)
(-0.863478 2.53769e-08 0)
(-0.863478 -2.6179e-08 0)
(-0.863478 2.69959e-08 0)
(-0.863478 -2.7828e-08 0)
(-0.863478 2.86753e-08 0)
(-0.863478 -2.9538e-08 0)
(-0.863478 3.04161e-08 0)
(-0.863478 -3.13098e-08 0)
(-0.863478 3.22191e-08 0)
(-0.863478 -3.31442e-08 0)
(-0.863478 3.40851e-08 0)
(-0.863478 -3.50417e-08 0)
(-0.863478 3.60145e-08 0)
(-0.863478 -3.7003e-08 0)
(-0.863478 3.80078e-08 0)
(-0.863478 -3.90284e-08 0)
(-0.863478 3.51641e-08 0)
(-0.863478 -3.54029e-08 0)
(-0.863478 3.56385e-08 0)
(-0.863478 -3.58707e-08 0)
(-0.863478 3.60996e-08 0)
(-0.863478 -3.6325e-08 0)
(-0.863478 3.65472e-08 0)
(-0.863478 -3.67658e-08 0)
(-0.863478 3.69811e-08 0)
(-0.863478 -3.71928e-08 0)
(-0.863478 3.74011e-08 0)
(-0.863478 -3.76057e-08 0)
(-0.863478 3.7807e-08 0)
(-0.863478 -3.80045e-08 0)
(-0.863478 3.81986e-08 0)
(-0.863478 -3.83888e-08 0)
(-0.863478 3.85756e-08 0)
(-0.863478 -3.87584e-08 0)
(-0.863478 3.89379e-08 0)
(-0.863478 -3.91131e-08 0)
(-0.863478 3.92852e-08 0)
(-0.863478 -3.94526e-08 0)
(-0.863478 3.96172e-08 0)
(-0.863478 -3.97767e-08 0)
(-0.863478 3.99337e-08 0)
(-0.863478 -4.0085e-08 0)
(-0.863478 4.02343e-08 0)
(-0.863478 -4.03774e-08 0)
(-0.863478 4.05187e-08 0)
(-0.863478 -4.06534e-08 0)
(-0.863478 4.07865e-08 0)
(-0.863478 -4.09125e-08 0)
(-0.863478 4.10373e-08 0)
(-0.863478 -4.11545e-08 0)
(-0.863478 4.12705e-08 0)
(-0.863478 -4.13786e-08 0)
(-0.863478 4.14856e-08 0)
(-0.863478 -4.15843e-08 0)
(-0.863478 4.16818e-08 0)
(-0.863478 -4.17707e-08 0)
(-0.863478 4.1858e-08 0)
(-0.863478 -4.19368e-08 0)
(-0.863478 4.20129e-08 0)
(-0.863478 -4.20809e-08 0)
(-0.863478 4.21446e-08 0)
(-0.863478 -4.22005e-08 0)
(-0.863478 4.22496e-08 0)
(-0.863478 -4.22907e-08 0)
(-0.863478 4.23211e-08 0)
(-0.863478 -4.23395e-08 0)
)
;

boundaryField
{
    inandouthalf11
    {
        type            cyclic;
    }
    inandouthalf12
    {
        type            cyclic;
    }
    inandouthalf21
    {
        type            cyclic;
    }
    inandouthalf22
    {
        type            cyclic;
    }
    inandouthalf31
    {
        type            cyclic;
    }
    inandouthalf32
    {
        type            cyclic;
    }
    inandouthalf41
    {
        type            cyclic;
    }
    inandouthalf42
    {
        type            cyclic;
    }
    top
    {
        type            symmetryPlane;
    }
    walls
    {
        type            fixedValue;
        value           uniform (0 0 0);
    }
    frontAndBackPlanes
    {
        type            empty;
    }
}


// ************************************************************************* //
