/*--------------------------------*- C++ -*----------------------------------*\
| =========                 |                                                 |
| \\      /  F ield         | OpenFOAM: The Open Source CFD Toolbox           |
|  \\    /   O peration     | Version:  2.4.x                                 |
|   \\  /    A nd           | Web:      www.OpenFOAM.org                      |
|    \\/     M anipulation  |                                                 |
\*---------------------------------------------------------------------------*/
FoamFile
{
    version     2.0;
    format      ascii;
    class       volScalarField;
    location    "10.2";
    object      alpha;
}
// * * * * * * * * * * * * * * * * * * * * * * * * * * * * * * * * * * * * * //

dimensions      [0 0 0 0 0 0 0];

internalField   nonuniform List<scalar> 
360
(
0.610885
0.611749
0.611839
0.611749
0.611707
0.611694
0.611677
0.611655
0.611633
0.61161
0.611587
0.611564
0.611541
0.611518
0.611495
0.611471
0.611447
0.611423
0.611398
0.611374
0.611349
0.611323
0.611298
0.611272
0.611246
0.61122
0.611193
0.611166
0.611139
0.611112
0.611084
0.611056
0.611027
0.610998
0.61097
0.61094
0.610911
0.61088
0.61085
0.61082
0.610788
0.610757
0.610726
0.610693
0.610661
0.610628
0.610595
0.610561
0.610527
0.610493
0.610458
0.610423
0.610387
0.610351
0.610315
0.610278
0.610241
0.610203
0.610164
0.610126
0.610086
0.610046
0.610006
0.609965
0.609924
0.609882
0.609839
0.609796
0.609752
0.609708
0.609663
0.609617
0.609572
0.609525
0.609477
0.609429
0.60938
0.60933
0.609279
0.609228
0.609176
0.609123
0.609069
0.609015
0.608959
0.608903
0.608845
0.608787
0.608727
0.608667
0.608605
0.608542
0.608479
0.608413
0.608347
0.608279
0.60821
0.60814
0.608068
0.607995
0.60792
0.607844
0.607766
0.607686
0.607604
0.607521
0.607435
0.607348
0.607258
0.607167
0.607073
0.606976
0.606877
0.606776
0.606672
0.606565
0.606455
0.606342
0.606225
0.606105
0.605982
0.605855
0.605723
0.605587
0.605447
0.605302
0.605152
0.604995
0.604833
0.604664
0.604489
0.604306
0.604114
0.603913
0.603699
0.603473
0.603235
0.602981
0.602699
0.602377
0.602029
0.601628
0.598144
0.598136
0.597436
0.596174
0.594766
0.592498
0.490806
0.234841
0.128864
0.0855791
0.0632534
0.0497863
0.0408246
0.0344408
0.0296585
0.0259342
0.0229444
0.0204854
0.0184228
0.016665
0.0151471
0.0138217
0.0126537
0.0116164
0.0106889
0.00985496
0.00910133
0.00841736
0.00779427
0.00722475
0.00670269
0.00622288
0.00578092
0.00537297
0.00499576
0.00464639
0.00432237
0.00402146
0.00374171
0.00348137
0.00323889
0.00301286
0.00280202
0.00260524
0.00242148
0.00224979
0.00208931
0.00193926
0.00179889
0.00166754
0.00154458
0.00142942
0.00132153
0.00122042
0.00112567
0.00103689
0.000953812
0.000876197
0.000803891
0.000736095
0.000672288
0.000612628
0.000557212
0.000506034
0.000458968
0.000415784
0.000376188
0.000339861
0.00030648
0.000275724
0.000247285
0.000220871
0.000196222
0.000173146
0.000151538
0.000131408
0.000112866
9.60718e-05
8.11658e-05
6.8201e-05
5.71217e-05
4.77718e-05
3.99433e-05
3.33971e-05
2.79383e-05
2.33255e-05
1.94996e-05
1.61681e-05
1.3493e-05
1.10223e-05
9.21768e-06
7.32163e-06
6.22865e-06
4.67304e-06
5.1631e-06
3.93309e-06
2.6552e-06
1.80978e-06
1.2179e-06
8.12509e-07
5.45465e-07
3.54632e-07
2.39047e-07
1.48933e-07
1.00696e-07
5.74631e-08
3.90447e-08
1.75134e-08
1.20133e-08
7.36718e-10
1.20547e-20
1.31561e-31
3.62909e-40
1.53078e-43
8.0226e-45
6.61642e-49
3.61792e-50
2.80436e-54
1.59976e-55
1.27636e-59
1.15852e-60
2.16329e-61
1.03346e-61
4.9316e-62
2.32126e-62
1.07371e-62
4.87769e-63
2.17494e-63
9.51301e-64
4.07893e-64
1.71333e-64
7.04382e-65
2.83207e-65
1.11301e-65
4.27206e-66
1.60006e-66
5.84225e-67
2.07747e-67
7.18672e-68
2.41585e-68
7.88157e-69
2.49221e-69
7.62714e-70
2.25565e-70
6.43556e-71
1.76811e-71
4.66844e-72
1.18202e-72
2.86294e-73
6.61572e-74
1.4542e-74
3.03039e-75
5.96439e-76
1.10399e-76
1.91232e-77
3.08233e-78
4.59216e-79
6.27376e-80
7.78469e-81
8.66998e-82
8.53806e-83
7.29103e-84
5.25752e-85
3.08135e-86
1.38257e-87
4.26544e-89
7.02634e-91
1.01407e-93
6.53416e-100
4.31268e-102
1.40903e-104
5.63805e-115
1.14942e-125
1.75363e-136
1.95102e-147
1.88991e-158
1.4192e-169
9.16858e-181
2.06853e-191
9.11721e-202
5.44681e-210
2.62982e-220
1.87323e-228
1.07059e-238
6.44891e-247
4.52619e-257
2.22336e-265
2.90958e-275
7.86621e-284
1.93243e-293
2.89099e-302
9.58929e-312
1.40315e-321
7.83094e-321
2.51973e-321
8.86848e-321
4.57737e-319
2.8055e-319
6.80328e-321
7.09478e-321
6.08689e-321
8.5424e-321
0
0
0
0
0
0
0
0
0
0
0
0
0
0
0
0
)
;

boundaryField
{
    inandouthalf11
    {
        type            cyclic;
    }
    inandouthalf12
    {
        type            cyclic;
    }
    inandouthalf21
    {
        type            cyclic;
    }
    inandouthalf22
    {
        type            cyclic;
    }
    inandouthalf31
    {
        type            cyclic;
    }
    inandouthalf32
    {
        type            cyclic;
    }
    inandouthalf41
    {
        type            cyclic;
    }
    inandouthalf42
    {
        type            cyclic;
    }
    top
    {
        type            symmetryPlane;
    }
    walls
    {
        type            zeroGradient;
    }
    frontAndBackPlanes
    {
        type            empty;
    }
}


// ************************************************************************* //
