/*--------------------------------*- C++ -*----------------------------------*\
| =========                 |                                                 |
| \\      /  F ield         | OpenFOAM: The Open Source CFD Toolbox           |
|  \\    /   O peration     | Version:  2.4.x                                 |
|   \\  /    A nd           | Web:      www.OpenFOAM.org                      |
|    \\/     M anipulation  |                                                 |
\*---------------------------------------------------------------------------*/
FoamFile
{
    version     2.0;
    format      ascii;
    class       volScalarField;
    location    "10.2";
    object      ddt0(epsilon);
}
// * * * * * * * * * * * * * * * * * * * * * * * * * * * * * * * * * * * * * //

dimensions      [0 2 -4 0 0 0 0];

internalField   nonuniform List<scalar> 
360
(
0
0
0
0
0
0
0
0
0
0
0
0
0
0
0
0
0
0
0
0
0
0
0
0
0
0
0
0
0
0
0
0
0
0
0
0
0
0
0
0
0
0
0
0
0
0
0
0
0
0
0
0
0
0
0
0
0
0
0
0
0
0
0
0
0
0
0
0
0
0
0
0
0
0
0
0
0
0
0
0
0
0
0
0
0
0
0
0
0
0
0
0
0
0
0
0
0
0
0
0
0
0
0
0
0
0
0
0
0
0
0
0
0
0
0
0
0
0
0
0
0
0
0
0
0
0
-4.25478e-20
-1.97683e-19
-8.14587e-19
-3.14265e-18
-1.15548e-17
-4.10308e-17
-1.4228e-16
-4.86734e-16
-1.6603e-15
-5.71793e-15
-2.02176e-14
-7.52446e-14
-3.04965e-13
-1.40359e-12
-7.77798e-12
-5.58196e-11
-5.34445e-10
-6.09292e-09
-8.87654e-08
-1.7535e-06
-4.42212e-05
-0.00139699
-0.0455557
-0.291243
-0.288125
-0.243259
-0.202814
-0.172639
-0.150996
-0.135455
-0.124024
-0.115209
-0.108132
-0.102173
-0.0969625
-0.0922766
-0.0879814
-0.0839965
-0.0802726
-0.0767781
-0.0734909
-0.0703936
-0.0674712
-0.0647103
-0.0620979
-0.0596218
-0.0572704
-0.0550328
-0.0528989
-0.0508594
-0.0489059
-0.0470306
-0.0452267
-0.0434881
-0.0418094
-0.0401857
-0.0386129
-0.0370871
-0.035605
-0.0341638
-0.0327607
-0.0313935
-0.0300602
-0.0287589
-0.027488
-0.0262461
-0.0250319
-0.0238442
-0.0226821
-0.0215447
-0.0204311
-0.0193408
-0.0182731
-0.0172275
-0.0162036
-0.0151909
-0.0141797
-0.0131709
-0.0121651
-0.0111633
-0.0101665
-0.00917591
-0.00819281
-0.00721874
-0.00625544
-0.00530487
-0.00436926
-0.00345112
-0.0025533
-0.00167899
-0.000831794
-1.57062e-05
0.000764825
0.0015049
0.00219917
0.00284183
0.00342672
0.00394735
0.00439702
0.00476909
0.00505714
0.00525543
0.00535934
0.00536598
0.00527491
0.00508887
0.00481448
0.00446275
0.00404906
0.00359262
0.003115
0.00263815
0.00218204
0.00176255
0.00139016
0.00106979
0.000801501
0.000581929
0.00040568
0.000266588
0.000158567
7.60951e-05
1.44169e-05
-3.04327e-05
-6.17013e-05
-8.20281e-05
-9.35587e-05
-9.80476e-05
-9.69437e-05
-9.14585e-05
-8.26189e-05
-7.13086e-05
-5.82991e-05
-4.42746e-05
-2.9851e-05
-1.55904e-05
-2.01214e-06
1.03994e-05
2.11903e-05
2.99362e-05
3.62444e-05
3.97603e-05
4.01792e-05
3.72381e-05
3.05392e-05
1.95737e-05
4.22383e-06
1.39091e-07
1.59337e-09
1.64194e-11
1.60444e-13
1.48829e-15
1.31109e-17
1.05025e-19
0
0
0
0
0
0
0
0
0
0
0
0
0
0
0
0
0
0
0
0
0
0
0
0
0
0
0
0
0
0
0
0
0
0
0
0
0
0
0
0
0
0
0
0
0
0
0
0
0
0
0
0
0
0
0
0
0
0
0
0
0
0
0
0
0
0
0
0
0
0
0
0
0
0
0
0
0
0
0
0
)
;

boundaryField
{
    inandouthalf11
    {
        type            cyclic;
    }
    inandouthalf12
    {
        type            cyclic;
    }
    inandouthalf21
    {
        type            cyclic;
    }
    inandouthalf22
    {
        type            cyclic;
    }
    inandouthalf31
    {
        type            cyclic;
    }
    inandouthalf32
    {
        type            cyclic;
    }
    inandouthalf41
    {
        type            cyclic;
    }
    inandouthalf42
    {
        type            cyclic;
    }
    top
    {
        type            symmetryPlane;
    }
    walls
    {
        type            calculated;
        value           uniform 0;
    }
    frontAndBackPlanes
    {
        type            empty;
    }
}


// ************************************************************************* //
