/*--------------------------------*- C++ -*----------------------------------*\
| =========                 |                                                 |
| \\      /  F ield         | OpenFOAM: The Open Source CFD Toolbox           |
|  \\    /   O peration     | Version:  2.4.x                                 |
|   \\  /    A nd           | Web:      www.OpenFOAM.org                      |
|    \\/     M anipulation  |                                                 |
\*---------------------------------------------------------------------------*/
FoamFile
{
    version     2.0;
    format      ascii;
    class       volScalarField;
    location    "10.2";
    object      epsilon_0;
}
// * * * * * * * * * * * * * * * * * * * * * * * * * * * * * * * * * * * * * //

dimensions      [0 2 -3 0 0 0 0];

internalField   nonuniform List<scalar> 
360
(
1.60309e-27
1e-20
1e-20
1e-20
1e-20
1e-20
1e-20
1e-20
1e-20
1e-20
1e-20
1e-20
1e-20
1e-20
1e-20
1e-20
1e-20
1e-20
1e-20
1e-20
1e-20
1e-20
1e-20
1e-20
1e-20
1e-20
1e-20
1e-20
1e-20
1e-20
1e-20
1e-20
1e-20
1e-20
1e-20
1e-20
1e-20
1e-20
1e-20
1e-20
1e-20
1e-20
1e-20
1e-20
1e-20
1e-20
1e-20
1e-20
1e-20
1e-20
1e-20
1e-20
1e-20
1e-20
1e-20
1e-20
1e-20
1e-20
1e-20
1e-20
1e-20
1e-20
1e-20
1e-20
1e-20
1e-20
1e-20
1e-20
1e-20
1e-20
1e-20
1e-20
1e-20
1e-20
1e-20
1e-20
1e-20
1e-20
1e-20
1e-20
1e-20
1e-20
1e-20
1e-20
1e-20
1e-20
1e-20
1e-20
1e-20
1e-20
1e-20
1e-20
1e-20
1e-20
1e-20
1e-20
1e-20
1e-20
1e-20
1e-20
1e-20
1e-20
1e-20
1e-20
1e-20
1e-20
1e-20
1e-20
1e-20
1e-20
1e-20
1e-20
1e-20
1e-20
1e-20
1e-20
1e-20
1e-20
1e-20
1e-20
1e-20
1e-20
1e-20
1e-20
1e-20
1e-20
2.01017e-20
6.67063e-20
2.23181e-19
7.26971e-19
2.30932e-18
7.18626e-18
2.20233e-17
6.6899e-17
2.03079e-16
6.22823e-16
1.96169e-15
6.51518e-15
2.37523e-14
1.0034e-13
5.22818e-13
3.53924e-12
3.17087e-11
3.34587e-10
4.38878e-09
7.5786e-08
1.68016e-06
4.79368e-05
0.00157276
0.0176487
0.0341908
0.0386861
0.0404162
0.0411303
0.0414223
0.0415086
0.0414795
0.0413759
0.0412183
0.0410179
0.0407816
0.0405139
0.0402187
0.0398988
0.0395568
0.0391951
0.0388156
0.0384202
0.0380104
0.0375876
0.0371531
0.0367078
0.0362529
0.035789
0.0353171
0.0348376
0.0343514
0.0338588
0.0333604
0.0328567
0.032348
0.0318349
0.0313176
0.0307965
0.030272
0.0297445
0.0292141
0.0286813
0.0281463
0.0276094
0.0270709
0.0265311
0.0259903
0.0254488
0.0249068
0.0243646
0.0238226
0.0232809
0.0227398
0.0221997
0.0216608
0.021118
0.020566
0.020005
0.0194353
0.018857
0.0182704
0.0176758
0.0170735
0.0164639
0.0158474
0.0152245
0.0145958
0.0139619
0.0133236
0.0126817
0.0120373
0.0113914
0.0107453
0.0101006
0.00945869
0.00882156
0.00819119
0.00756982
0.00695992
0.00636414
0.00578535
0.00522656
0.0046909
0.00418155
0.00370161
0.00325402
0.00284133
0.00246558
0.0021281
0.00182934
0.00156875
0.0013448
0.00115502
0.000996243
0.000864822
0.000756936
0.000668839
0.000597059
0.00053851
0.000490538
0.000450914
0.000417797
0.000389682
0.000365346
0.0003438
0.000324248
0.00030605
0.000288698
0.000271794
0.000255035
0.000238198
0.000221134
0.000203756
0.000186041
0.000168015
0.000149759
0.000131399
0.000113109
9.51025e-05
7.76365e-05
6.10048e-05
4.5538e-05
3.16013e-05
1.95974e-05
9.97688e-06
3.21869e-06
3.48434e-07
7.75641e-09
8.53096e-11
8.67049e-13
8.36356e-15
7.66449e-17
6.75412e-19
1.40109e-20
1e-20
1e-20
1e-20
1e-20
1e-20
1e-20
1e-20
1e-20
1e-20
1e-20
1e-20
1e-20
1e-20
1e-20
1e-20
1e-20
1e-20
1e-20
1e-20
1e-20
1e-20
1e-20
1e-20
1e-20
1e-20
1e-20
1e-20
1e-20
1e-20
1e-20
1e-20
1e-20
1e-20
1e-20
1e-20
1e-20
1e-20
1e-20
1e-20
1e-20
1e-20
1e-20
1e-20
1e-20
1e-20
1e-20
1e-20
1e-20
1e-20
1e-20
1e-20
1e-20
1e-20
1e-20
1e-20
1e-20
1e-20
1e-20
1e-20
1e-20
1e-20
1e-20
1e-20
1e-20
1e-20
1e-20
1e-20
1e-20
1e-20
1e-20
1e-20
1e-20
1e-20
1e-20
1e-20
1e-20
1e-20
1e-20
1e-20
1e-20
)
;

boundaryField
{
    inandouthalf11
    {
        type            cyclic;
    }
    inandouthalf12
    {
        type            cyclic;
    }
    inandouthalf21
    {
        type            cyclic;
    }
    inandouthalf22
    {
        type            cyclic;
    }
    inandouthalf31
    {
        type            cyclic;
    }
    inandouthalf32
    {
        type            cyclic;
    }
    inandouthalf41
    {
        type            cyclic;
    }
    inandouthalf42
    {
        type            cyclic;
    }
    top
    {
        type            symmetryPlane;
    }
    walls
    {
        type            zeroGradient;
    }
    frontAndBackPlanes
    {
        type            empty;
    }
}


// ************************************************************************* //
