/*--------------------------------*- C++ -*----------------------------------*\
| =========                 |                                                 |
| \\      /  F ield         | OpenFOAM: The Open Source CFD Toolbox           |
|  \\    /   O peration     | Version:  2.4.x                                 |
|   \\  /    A nd           | Web:      www.OpenFOAM.org                      |
|    \\/     M anipulation  |                                                 |
\*---------------------------------------------------------------------------*/
FoamFile
{
    version     2.0;
    format      ascii;
    class       volVectorField;
    location    "10.2";
    object      gradPf;
}
// * * * * * * * * * * * * * * * * * * * * * * * * * * * * * * * * * * * * * //

dimensions      [0 1 -2 0 0 0 0];

internalField   nonuniform List<vector> 
360
(
(0 71.8815 0)
(0 80.4686 0)
(0 0.0803394 0)
(0 -12.5868 0)
(-3.34413e-14 -5.22255 0)
(-3.34421e-14 -2.8122 0)
(-3.3443e-14 -3.58613 0)
(0 -4.07536 0)
(-3.34454e-14 -4.11877 0)
(0 -4.12719 0)
(-3.34479e-14 -4.11354 0)
(0 -4.10087 0)
(-3.34504e-14 -4.10699 0)
(0 -4.11424 0)
(0 -4.13267 0)
(0 -4.15138 0)
(0 -4.15988 0)
(-3.34569e-14 -4.1644 0)
(0 -4.18576 0)
(0 -4.19159 0)
(0 -4.19824 0)
(-3.34623e-14 -4.22029 0)
(0 -4.22725 0)
(0 -4.23968 0)
(0 -4.2525 0)
(-3.3468e-14 -4.25612 0)
(0 -4.2721 0)
(0 -4.28915 0)
(0 -4.29115 0)
(0 -4.29846 0)
(0 -4.32122 0)
(0 -4.31608 0)
(0 -4.33271 0)
(0 -4.34997 0)
(0 -4.34658 0)
(1.67417e-14 -4.35699 0)
(0 -4.36415 0)
(0 -4.39191 0)
(0 -4.37468 0)
(0 -4.38795 0)
(0 -4.4191 0)
(0 -4.39334 0)
(3.34951e-14 -4.41547 0)
(0 -4.43152 0)
(0 -4.42554 0)
(0 -4.45024 0)
(0 -4.43544 0)
(0 -4.43473 0)
(0 -4.47889 0)
(0 -4.46509 0)
(3.35098e-14 -4.4593 0)
(0 -4.47994 0)
(0 -4.48632 0)
(0 -4.48161 0)
(0 -4.49746 0)
(0 -4.50144 0)
(0 -4.5012 0)
(0 -4.52057 0)
(0 -4.49867 0)
(0 -4.52278 0)
(0 -4.53017 0)
(0 -4.52646 0)
(0 -4.54115 0)
(0 -4.53763 0)
(0 -4.5403 0)
(0 -4.54617 0)
(0 -4.55935 0)
(0 -4.55899 0)
(0 -4.54628 0)
(0 -4.56072 0)
(0 -4.58691 0)
(0 -4.56468 0)
(0 -4.56641 0)
(0 -4.58415 0)
(0 -4.58885 0)
(0 -4.58883 0)
(0 -4.58115 0)
(0 -4.59145 0)
(0 -4.5984 0)
(0 -4.59582 0)
(0 -4.59707 0)
(0 -4.60535 0)
(0 -4.60757 0)
(0 -4.60996 0)
(0 -4.6126 0)
(0 -4.61569 0)
(0 -4.6175 0)
(0 -4.61687 0)
(0 -4.61927 0)
(0 -4.62175 0)
(0 -4.62273 0)
(0 -4.62517 0)
(0 -4.62828 0)
(0 -4.63012 0)
(0 -4.63166 0)
(0 -4.63291 0)
(0 -4.63358 0)
(0 -4.63385 0)
(0 -4.63415 0)
(0 -4.63438 0)
(0 -4.63442 0)
(0 -4.63443 0)
(0 -4.63422 0)
(0 -4.63353 0)
(0 -4.63236 0)
(0 -4.63069 0)
(0 -4.62843 0)
(0 -4.6256 0)
(0 -4.62215 0)
(0 -4.618 0)
(0 -4.6131 0)
(0 -4.60739 0)
(0 -4.60082 0)
(0 -4.59337 0)
(0 -4.58504 0)
(0 -4.57584 0)
(0 -4.56583 0)
(0 -4.55509 0)
(0 -4.54373 0)
(0 -4.53183 0)
(0 -4.51938 0)
(0 -4.50627 0)
(0 -4.49224 0)
(0 -4.47706 0)
(0 -4.4608 0)
(0 -4.44407 0)
(0 -4.42801 0)
(0 -4.41334 0)
(0 -4.39888 0)
(0 -4.38074 0)
(0 -4.35574 0)
(0 -4.32988 0)
(0 -4.32106 0)
(0 -4.33817 0)
(0 -4.35488 0)
(0 -4.33862 0)
(0 -4.3205 0)
(0 -4.39962 0)
(0 -4.61441 0)
(0 -4.7376 0)
(0 -4.83337 0)
(0 -16.1616 0)
(0 -13.7916 0)
(0 -1.63072 0)
(0 -3.91338 0)
(0 -4.17982 0)
(0 -3.84175 0)
(0 -4.58771 0)
(0 -3.15654 0)
(0 0 0)
(0 0 0)
(0 0 0)
(0 0 0)
(0 0 0)
(0 0 0)
(0 0 0)
(0 0 0)
(0 0 0)
(0 0 0)
(0 0 0)
(0 0 0)
(0 0 0)
(0 0 0)
(0 0 0)
(0 0 0)
(0 0 0)
(0 0 0)
(0 0 0)
(0 0 0)
(0 0 0)
(0 0 0)
(0 0 0)
(0 0 0)
(0 0 0)
(0 0 0)
(0 0 0)
(0 0 0)
(0 0 0)
(0 0 0)
(0 0 0)
(0 0 0)
(0 0 0)
(0 0 0)
(0 0 0)
(0 0 0)
(0 0 0)
(0 0 0)
(0 0 0)
(0 0 0)
(0 0 0)
(0 0 0)
(0 0 0)
(0 0 0)
(0 0 0)
(0 0 0)
(0 0 0)
(0 0 0)
(0 0 0)
(0 0 0)
(0 0 0)
(0 0 0)
(0 0 0)
(0 0 0)
(0 0 0)
(0 0 0)
(0 0 0)
(0 0 0)
(0 0 0)
(0 0 0)
(0 0 0)
(0 0 0)
(0 0 0)
(0 0 0)
(0 0 0)
(0 0 0)
(0 0 0)
(0 0 0)
(0 0 0)
(0 0 0)
(0 0 0)
(0 0 0)
(0 0 0)
(0 0 0)
(0 0 0)
(0 0 0)
(0 0 0)
(0 0 0)
(0 0 0)
(0 0 0)
(0 0 0)
(0 0 0)
(0 0 0)
(0 0 0)
(0 0 0)
(0 0 0)
(0 0 0)
(0 0 0)
(0 0 0)
(0 0 0)
(0 0 0)
(0 0 0)
(0 0 0)
(0 0 0)
(0 0 0)
(0 0 0)
(0 0 0)
(0 0 0)
(0 0 0)
(0 0 0)
(0 0 0)
(0 0 0)
(0 0 0)
(0 0 0)
(0 0 0)
(0 0 0)
(0 0 0)
(0 0 0)
(0 0 0)
(0 0 0)
(0 0 0)
(0 0 0)
(0 0 0)
(0 0 0)
(0 0 0)
(0 0 0)
(0 0 0)
(0 0 0)
(0 0 0)
(0 0 0)
(0 0 0)
(0 0 0)
(0 0 0)
(0 0 0)
(0 0 0)
(0 0 0)
(0 0 0)
(0 0 0)
(0 0 0)
(0 0 0)
(0 0 0)
(0 0 0)
(0 0 0)
(0 0 0)
(0 0 0)
(0 0 0)
(0 0 0)
(0 0 0)
(0 0 0)
(0 0 0)
(0 0 0)
(0 0 0)
(0 0 0)
(0 0 0)
(0 0 0)
(0 0 0)
(0 0 0)
(0 0 0)
(0 0 0)
(0 0 0)
(0 0 0)
(0 0 0)
(0 0 0)
(0 0 0)
(0 0 0)
(0 0 0)
(0 0 0)
(0 0 0)
(0 0 0)
(0 0 0)
(0 0 0)
(0 0 0)
(0 0 0)
(0 0 0)
(0 0 0)
(0 0 0)
(0 0 0)
(0 0 0)
(0 0 0)
(0 0 0)
(0 0 0)
(0 0 0)
(0 0 0)
(0 0 0)
(0 0 0)
(0 0 0)
(0 0 0)
(0 0 0)
(0 0 0)
(0 0 0)
(0 0 0)
(0 0 0)
(0 0 0)
(0 0 0)
(0 0 0)
(0 0 0)
(0 0 0)
(0 0 0)
(0 0 0)
(0 0 0)
(0 0 0)
(0 0 0)
(0 0 0)
(0 0 0)
(0 0 0)
(0 0 0)
(0 0 0)
(0 0 0)
(0 0 0)
(0 0 0)
(0 0 0)
(0 0 0)
(0 0 0)
(0 0 0)
(0 0 0)
(0 0 0)
(0 0 0)
(0 0 0)
(0 0 0)
(0 0 0)
(0 0 0)
)
;

boundaryField
{
    inandouthalf11
    {
        type            cyclic;
    }
    inandouthalf12
    {
        type            cyclic;
    }
    inandouthalf21
    {
        type            cyclic;
    }
    inandouthalf22
    {
        type            cyclic;
    }
    inandouthalf31
    {
        type            cyclic;
    }
    inandouthalf32
    {
        type            cyclic;
    }
    inandouthalf41
    {
        type            cyclic;
    }
    inandouthalf42
    {
        type            cyclic;
    }
    top
    {
        type            symmetryPlane;
    }
    walls
    {
        type            calculated;
        value           uniform (0 0 0);
    }
    frontAndBackPlanes
    {
        type            empty;
    }
}


// ************************************************************************* //
