/*--------------------------------*- C++ -*----------------------------------*\
| =========                 |                                                 |
| \\      /  F ield         | OpenFOAM: The Open Source CFD Toolbox           |
|  \\    /   O peration     | Version:  2.4.x                                 |
|   \\  /    A nd           | Web:      www.OpenFOAM.org                      |
|    \\/     M anipulation  |                                                 |
\*---------------------------------------------------------------------------*/
FoamFile
{
    version     2.0;
    format      ascii;
    class       volScalarField;
    location    "10.2";
    object      mua;
}
// * * * * * * * * * * * * * * * * * * * * * * * * * * * * * * * * * * * * * //

dimensions      [1 -1 -1 0 0 0 0];

internalField   nonuniform List<scalar> 
360
(
1.16258e+07
8.43814e+06
1.08786e+07
1.15069e+07
1.1234e+07
1.12742e+07
1.15193e+07
1.17457e+07
1.19035e+07
1.20006e+07
1.20501e+07
1.20638e+07
1.2046e+07
1.19987e+07
1.19222e+07
1.18179e+07
1.16897e+07
1.15422e+07
1.13781e+07
1.11997e+07
1.10115e+07
1.08139e+07
1.06094e+07
1.04005e+07
1.01891e+07
9.97706e+06
9.76558e+06
9.55448e+06
9.34609e+06
9.14166e+06
8.94075e+06
8.74387e+06
8.5527e+06
8.36476e+06
8.18313e+06
8.00707e+06
7.83659e+06
7.6702e+06
7.50917e+06
7.35516e+06
7.2042e+06
7.05923e+06
6.92037e+06
6.78441e+06
6.65352e+06
6.52693e+06
6.40532e+06
6.28984e+06
6.17639e+06
6.06552e+06
5.96062e+06
5.85899e+06
5.76064e+06
5.66568e+06
5.57451e+06
5.48547e+06
5.40058e+06
5.31813e+06
5.23966e+06
5.16455e+06
5.09022e+06
5.0189e+06
4.9493e+06
4.88252e+06
4.81851e+06
4.75705e+06
4.69726e+06
4.63976e+06
4.58556e+06
4.53368e+06
4.48164e+06
4.43129e+06
4.38427e+06
4.33778e+06
4.29225e+06
4.24819e+06
4.20708e+06
4.16802e+06
4.13023e+06
4.09397e+06
4.05946e+06
4.02577e+06
3.99269e+06
3.96042e+06
3.92903e+06
3.8987e+06
3.8696e+06
3.84214e+06
3.81626e+06
3.79165e+06
3.76815e+06
3.74547e+06
3.7232e+06
3.70119e+06
3.67945e+06
3.65801e+06
3.63696e+06
3.61637e+06
3.5962e+06
3.57632e+06
3.55656e+06
3.53669e+06
3.51645e+06
3.49566e+06
3.47415e+06
3.45178e+06
3.42841e+06
3.40391e+06
3.37812e+06
3.35086e+06
3.32191e+06
3.29099e+06
3.25779e+06
3.22195e+06
3.18309e+06
3.14089e+06
3.0952e+06
3.04619e+06
2.99449e+06
2.94146e+06
2.88929e+06
2.8411e+06
2.80081e+06
2.77277e+06
2.76103e+06
2.76822e+06
2.79393e+06
2.83276e+06
2.8723e+06
2.89156e+06
2.86138e+06
2.74927e+06
2.53298e+06
2.22303e+06
1.87697e+06
1.58025e+06
1.41068e+06
1.44721e+06
1.88988e+06
3.63251e+06
1.28118e+07
7.90204e+07
7437.65
3366.48
2461.26
1577.18
974.066
348.305
0.00985133
0.00412308
0.00362993
0.0037769
0.00399886
0.00421118
0.00440147
0.00456985
0.00471885
0.00485126
0.00496945
0.00507543
0.0051708
0.00525687
0.00533472
0.00540524
0.00546918
0.00552716
0.00557973
0.00562733
0.00567037
0.0057092
0.00574411
0.00577537
0.00580323
0.00582789
0.00584955
0.00586837
0.0058845
0.00589809
0.00590926
0.00591812
0.00592478
0.00592933
0.00593184
0.00593239
0.00593106
0.0059279
0.00592296
0.00591631
0.00590798
0.00589801
0.00588645
0.00587331
0.00585865
0.00584248
0.00582484
0.00580575
0.00578523
0.00576331
0.00574002
0.00571537
0.0056894
0.00566184
0.00563237
0.00560094
0.00556745
0.00553184
0.00549404
0.00545397
0.00541156
0.00536675
0.00531946
0.00526961
0.00521712
0.00516189
0.00510382
0.00504278
0.00497862
0.00491116
0.00484018
0.00476544
0.00468661
0.00460331
0.00451508
0.00442139
0.00432154
0.00421473
0.00409992
0.00397582
0.00384071
0.00369235
0.00352761
0.00334194
0.00312839
0.00287523
0.00255993
0.00212713
0
0
0
0
0
0
0
0
0
0
0
0
0
0
0
0
0
0
0
0
0
0
0
0
0
0
0
0
0
0
0
0
0
0
0
0
0
0
0
0
0
0
0
0
0
0
0
0
0
0
0
0
0
0
0
0
0
0
0
0
0
0
0
0
0
0
0
0
0
0
0
0
0
0
0
0
0
0
0
0
0
0
0
0
0
0
0
0
0
0
0
0
0
0
0
0
0
0
0
0
0
0
0
0
0
0
0
0
0
0
0
0
0
0
0
0
0
0
0
0
0
0
0
0
)
;

boundaryField
{
    inandouthalf11
    {
        type            cyclic;
    }
    inandouthalf12
    {
        type            cyclic;
    }
    inandouthalf21
    {
        type            cyclic;
    }
    inandouthalf22
    {
        type            cyclic;
    }
    inandouthalf31
    {
        type            cyclic;
    }
    inandouthalf32
    {
        type            cyclic;
    }
    inandouthalf41
    {
        type            cyclic;
    }
    inandouthalf42
    {
        type            cyclic;
    }
    top
    {
        type            symmetryPlane;
    }
    walls
    {
        type            calculated;
        value           uniform 1e+30;
    }
    frontAndBackPlanes
    {
        type            empty;
    }
}


// ************************************************************************* //
