/*--------------------------------*- C++ -*----------------------------------*\
| =========                 |                                                 |
| \\      /  F ield         | OpenFOAM: The Open Source CFD Toolbox           |
|  \\    /   O peration     | Version:  2.4.x                                 |
|   \\  /    A nd           | Web:      www.OpenFOAM.org                      |
|    \\/     M anipulation  |                                                 |
\*---------------------------------------------------------------------------*/
FoamFile
{
    version     2.0;
    format      ascii;
    class       volScalarField;
    location    "10.2";
    object      nutb;
}
// * * * * * * * * * * * * * * * * * * * * * * * * * * * * * * * * * * * * * //

dimensions      [0 2 -1 0 0 0 0];

internalField   nonuniform List<scalar> 
360
(
9e-22
9e-22
9e-22
9e-22
9e-22
9e-22
9e-22
9e-22
9e-22
9e-22
9e-22
9e-22
9e-22
9e-22
9e-22
9e-22
9e-22
9e-22
9e-22
9e-22
9e-22
9e-22
9e-22
9e-22
9e-22
9e-22
9e-22
9e-22
9e-22
9e-22
9e-22
9e-22
9e-22
9e-22
9e-22
9e-22
9e-22
9e-22
9e-22
9e-22
9e-22
9e-22
9e-22
9e-22
9e-22
9e-22
9e-22
9e-22
9e-22
9e-22
9e-22
9e-22
9e-22
9e-22
9e-22
9e-22
9e-22
9e-22
9e-22
9e-22
9e-22
9e-22
9e-22
9e-22
9e-22
9e-22
9e-22
9e-22
9e-22
9e-22
9e-22
9e-22
9e-22
9e-22
9e-22
9e-22
9e-22
9e-22
9e-22
9e-22
9e-22
9e-22
9e-22
9e-22
9e-22
9e-22
9e-22
9e-22
9e-22
9e-22
9e-22
9e-22
9e-22
9e-22
9e-22
9e-22
9e-22
9e-22
9e-22
9e-22
9e-22
9e-22
9e-22
9e-22
9e-22
9e-22
9e-22
9e-22
9e-22
9e-22
9e-22
9e-22
9e-22
9e-22
9e-22
9e-22
9e-22
9e-22
9e-22
9e-22
9e-22
9e-22
9e-22
9e-22
9e-22
9e-22
2.35204e-21
7.51708e-21
2.35011e-20
7.08491e-20
2.06151e-19
5.80224e-19
1.58354e-18
4.20502e-18
1.09137e-17
2.78084e-17
6.99595e-17
1.76298e-16
4.59779e-16
1.30893e-15
4.35114e-15
1.81129e-14
1.16616e-13
8.20539e-13
6.38818e-12
6.71365e-11
8.95439e-10
1.51085e-08
3.79125e-07
4.2596e-06
1.35613e-05
2.40324e-05
3.48576e-05
4.56704e-05
5.63153e-05
6.67109e-05
7.68165e-05
8.66148e-05
9.61014e-05
0.000105279
0.000114152
0.00012273
0.000131018
0.000139025
0.000146756
0.000154218
0.000161416
0.000168355
0.00017504
0.000181474
0.000187662
0.000193608
0.000199314
0.000204785
0.000210022
0.00021503
0.000219811
0.000224368
0.000228705
0.000232823
0.000236725
0.000240415
0.000243895
0.000247167
0.000250234
0.000253099
0.000255764
0.000258231
0.000260505
0.000262585
0.000264477
0.000266181
0.000267701
0.000269039
0.000270197
0.000271179
0.000271988
0.000272625
0.000273093
0.000273396
0.000273536
0.000273515
0.000273328
0.000272966
0.000272422
0.000271688
0.000270757
0.000269619
0.000268269
0.000266698
0.000264899
0.000262866
0.000260593
0.000258076
0.00025531
0.000252292
0.000249022
0.0002455
0.000241727
0.000237708
0.00023345
0.000228962
0.000224258
0.000219356
0.000214279
0.000209059
0.000203732
0.000198346
0.000192957
0.000187632
0.00018245
0.000177498
0.000172874
0.000168682
0.000165023
0.00016199
0.000159654
0.000158054
0.000157191
0.000157012
0.000157413
0.00015825
0.000159353
0.000160542
0.000161649
0.000162529
0.000163066
0.000163178
0.000162813
0.000161942
0.000160553
0.000158647
0.000156229
0.000153305
0.000149882
0.000145966
0.000141556
0.000136653
0.000131253
0.000125349
0.000118936
0.000112004
0.000104547
9.65583e-05
8.80313e-05
7.89621e-05
6.93485e-05
5.91909e-05
4.84923e-05
3.7258e-05
2.54773e-05
1.29441e-05
2.36862e-06
6.96366e-08
7.75677e-10
7.86851e-12
7.58378e-14
6.95041e-16
6.0038e-18
2.55305e-20
9e-22
9e-22
9e-22
9e-22
9e-22
9e-22
9e-22
9e-22
9e-22
9e-22
9e-22
9e-22
9e-22
9e-22
9e-22
9e-22
9e-22
9e-22
9e-22
9e-22
9e-22
9e-22
9e-22
9e-22
9e-22
9e-22
9e-22
9e-22
9e-22
9e-22
9e-22
9e-22
9e-22
9e-22
9e-22
9e-22
9e-22
9e-22
9e-22
9e-22
9e-22
9e-22
9e-22
9e-22
9e-22
9e-22
9e-22
9e-22
9e-22
9e-22
9e-22
9e-22
9e-22
9e-22
9e-22
9e-22
9e-22
9e-22
9e-22
9e-22
9e-22
9e-22
9e-22
9e-22
9e-22
9e-22
9e-22
9e-22
9e-22
9e-22
9e-22
9e-22
9e-22
9e-22
9e-22
9e-22
9e-22
9e-22
9e-22
9e-22
)
;

boundaryField
{
    inandouthalf11
    {
        type            cyclic;
    }
    inandouthalf12
    {
        type            cyclic;
    }
    inandouthalf21
    {
        type            cyclic;
    }
    inandouthalf22
    {
        type            cyclic;
    }
    inandouthalf31
    {
        type            cyclic;
    }
    inandouthalf32
    {
        type            cyclic;
    }
    inandouthalf41
    {
        type            cyclic;
    }
    inandouthalf42
    {
        type            cyclic;
    }
    top
    {
        type            symmetryPlane;
    }
    walls
    {
        type            calculated;
        value           uniform 0;
    }
    frontAndBackPlanes
    {
        type            empty;
    }
}


// ************************************************************************* //
