/*--------------------------------*- C++ -*----------------------------------*\
| =========                 |                                                 |
| \\      /  F ield         | OpenFOAM: The Open Source CFD Toolbox           |
|  \\    /   O peration     | Version:  2.4.x                                 |
|   \\  /    A nd           | Web:      www.OpenFOAM.org                      |
|    \\/     M anipulation  |                                                 |
\*---------------------------------------------------------------------------*/
FoamFile
{
    version     2.0;
    format      ascii;
    class       volScalarField;
    location    "10.2";
    object      p;
}
// * * * * * * * * * * * * * * * * * * * * * * * * * * * * * * * * * * * * * //

dimensions      [1 -1 -2 0 0 0 0];

internalField   nonuniform List<scalar> 
360
(
4891.99
4887.09
4882.18
4877.28
4872.37
4867.47
4862.56
4857.66
4852.75
4847.85
4842.94
4838.03
4833.13
4828.22
4823.32
4818.41
4813.51
4808.6
4803.69
4798.79
4793.88
4788.98
4784.07
4779.16
4774.26
4769.35
4764.44
4759.54
4754.63
4749.72
4744.82
4739.91
4735
4730.1
4725.19
4720.28
4715.38
4710.47
4705.56
4700.65
4695.75
4690.84
4685.93
4681.03
4676.12
4671.21
4666.3
4661.39
4656.49
4651.58
4646.67
4641.76
4636.85
4631.95
4627.04
4622.13
4617.22
4612.31
4607.4
4602.49
4597.59
4592.68
4587.77
4582.86
4577.95
4573.04
4568.13
4563.22
4558.31
4553.4
4548.49
4543.58
4538.67
4533.76
4528.85
4523.94
4519.03
4514.12
4509.21
4504.3
4499.39
4494.48
4489.57
4484.66
4479.75
4474.84
4469.93
4465.02
4460.11
4455.2
4450.29
4445.37
4440.46
4435.55
4430.64
4425.73
4420.82
4415.91
4410.99
4406.08
4401.17
4396.26
4391.35
4386.44
4381.52
4376.61
4371.7
4366.79
4361.88
4356.96
4352.05
4347.14
4342.23
4337.31
4332.4
4327.49
4322.58
4317.66
4312.75
4307.84
4302.93
4298.01
4293.1
4288.19
4283.28
4278.36
4273.45
4268.54
4263.63
4258.71
4253.8
4248.89
4243.97
4239.06
4234.15
4229.23
4224.32
4219.41
4214.5
4209.58
4204.67
4199.76
4194.84
4189.93
4185.01
4180.08
4175.17
4170.15
4165.38
4157.3
4150.44
4144.18
4138.28
4132.57
4127
4121.52
4116.11
4110.76
4105.46
4100.2
4094.98
4089.78
4084.62
4079.47
4074.35
4069.25
4064.16
4059.09
4054.03
4048.99
4043.96
4038.95
4033.94
4028.95
4023.96
4018.99
4014.02
4009.06
4004.11
3999.17
3994.23
3989.3
3984.38
3979.46
3974.55
3969.64
3964.74
3959.85
3954.96
3950.07
3945.19
3940.31
3935.44
3930.57
3925.71
3920.84
3915.99
3911.13
3906.28
3901.43
3896.58
3891.69
3886.7
3881.62
3876.43
3871.14
3865.74
3860.24
3854.63
3848.91
3843.07
3837.12
3831.05
3824.86
3818.54
3812.1
3805.53
3798.82
3791.98
3785
3777.89
3770.62
3763.21
3755.65
3747.93
3740.06
3732.02
3723.82
3715.44
3706.89
3698.16
3689.24
3680.13
3670.83
3661.33
3651.63
3641.72
3631.59
3621.25
3610.68
3599.89
3588.87
3577.62
3566.14
3554.41
3542.45
3530.23
3517.77
3505.05
3492.07
3478.83
3465.31
3451.52
3437.45
3423.1
3408.46
3393.51
3378.27
3362.72
3346.85
3330.66
3314.14
3297.29
3280.1
3262.55
3244.65
3226.39
3207.76
3188.74
3169.34
3149.54
3129.34
3108.72
3087.66
3066.18
3044.26
3021.9
2999.08
2975.8
2952.05
2927.81
2903.09
2877.86
2852.12
2825.86
2799.06
2771.72
2743.82
2715.36
2686.32
2656.7
2626.47
2595.62
2564.15
2532.05
2499.29
2465.86
2431.76
2396.96
2361.46
2325.24
2288.28
2250.57
2212.1
2172.85
2132.8
2091.93
2050.24
2007.7
1964.3
1922.76
1883.52
1844.28
1805.04
1765.8
1726.56
1687.32
1648.08
1608.84
1569.6
1530.36
1491.12
1451.88
1412.64
1373.4
1334.16
1294.92
1255.68
1216.44
1177.2
1137.96
1098.72
1059.48
1020.24
981
941.76
902.52
863.28
824.04
784.8
745.56
706.32
667.08
627.84
588.6
549.36
510.12
470.88
431.64
392.4
353.16
313.92
274.68
235.44
196.2
156.96
117.72
78.48
39.24
-1.9324e-07
)
;

boundaryField
{
    inandouthalf11
    {
        type            cyclic;
    }
    inandouthalf12
    {
        type            cyclic;
    }
    inandouthalf21
    {
        type            cyclic;
    }
    inandouthalf22
    {
        type            cyclic;
    }
    inandouthalf31
    {
        type            cyclic;
    }
    inandouthalf32
    {
        type            cyclic;
    }
    inandouthalf41
    {
        type            cyclic;
    }
    inandouthalf42
    {
        type            cyclic;
    }
    top
    {
        type            symmetryPlane;
    }
    walls
    {
        type            slip;
    }
    frontAndBackPlanes
    {
        type            empty;
    }
}


// ************************************************************************* //
