/*--------------------------------*- C++ -*----------------------------------*\
| =========                 |                                                 |
| \\      /  F ield         | OpenFOAM: The Open Source CFD Toolbox           |
|  \\    /   O peration     | Version:  2.4.x                                 |
|   \\  /    A nd           | Web:      www.OpenFOAM.org                      |
|    \\/     M anipulation  |                                                 |
\*---------------------------------------------------------------------------*/
FoamFile
{
    version     2.0;
    format      ascii;
    class       volScalarField;
    location    "10.2";
    object      pa;
}
// * * * * * * * * * * * * * * * * * * * * * * * * * * * * * * * * * * * * * //

dimensions      [1 -1 -2 0 0 0 0];

internalField   nonuniform List<scalar> 
360
(
2.90365e-16
2.92874e-16
2.93137e-16
2.92875e-16
2.92752e-16
2.92713e-16
2.92664e-16
2.926e-16
2.92534e-16
2.92468e-16
2.92402e-16
2.92335e-16
2.92268e-16
2.92201e-16
2.92133e-16
2.92064e-16
2.91994e-16
2.91923e-16
2.91852e-16
2.9178e-16
2.91708e-16
2.91635e-16
2.91561e-16
2.91486e-16
2.9141e-16
2.91334e-16
2.91257e-16
2.91179e-16
2.911e-16
2.91021e-16
2.90941e-16
2.90859e-16
2.90777e-16
2.90694e-16
2.9061e-16
2.90525e-16
2.9044e-16
2.90353e-16
2.90265e-16
2.90178e-16
2.90088e-16
2.89997e-16
2.89907e-16
2.89814e-16
2.89721e-16
2.89626e-16
2.8953e-16
2.89434e-16
2.89336e-16
2.89237e-16
2.89138e-16
2.89036e-16
2.88934e-16
2.8883e-16
2.88726e-16
2.8862e-16
2.88513e-16
2.88404e-16
2.88294e-16
2.88184e-16
2.88071e-16
2.87957e-16
2.87842e-16
2.87725e-16
2.87607e-16
2.87487e-16
2.87366e-16
2.87242e-16
2.87118e-16
2.86992e-16
2.86864e-16
2.86733e-16
2.86603e-16
2.86469e-16
2.86334e-16
2.86196e-16
2.86057e-16
2.85916e-16
2.85773e-16
2.85627e-16
2.8548e-16
2.8533e-16
2.85178e-16
2.85023e-16
2.84866e-16
2.84707e-16
2.84544e-16
2.84379e-16
2.84212e-16
2.84041e-16
2.83868e-16
2.83692e-16
2.83512e-16
2.83329e-16
2.83143e-16
2.82953e-16
2.8276e-16
2.82562e-16
2.82362e-16
2.82157e-16
2.81948e-16
2.81735e-16
2.81517e-16
2.81294e-16
2.81067e-16
2.80835e-16
2.80598e-16
2.80355e-16
2.80107e-16
2.79853e-16
2.79593e-16
2.79326e-16
2.79054e-16
2.78774e-16
2.78487e-16
2.78193e-16
2.77891e-16
2.7758e-16
2.77262e-16
2.76934e-16
2.76596e-16
2.76249e-16
2.75891e-16
2.75522e-16
2.7514e-16
2.74747e-16
6.29008e-16
2.04549e-15
6.60542e-15
2.06661e-14
6.2725e-14
1.85309e-13
5.3494e-13
1.51636e-12
4.24747e-12
1.18475e-11
3.32724e-11
9.60155e-11
2.95219e-10
1.02035e-09
4.23037e-09
2.23572e-08
1.64073e-07
1.41347e-06
1.42257e-05
0.000195703
0.00433547
0.122372
1.02661
0.944942
0.74684
0.598751
0.504909
0.439827
0.39142
0.35344
0.322388
0.296185
0.273526
0.253563
0.235718
0.219583
0.204868
0.191354
0.178879
0.167313
0.156554
0.146519
0.137141
0.128361
0.12013
0.112406
0.105152
0.0983357
0.0919267
0.085899
0.0802287
0.0748942
0.0698754
0.0651539
0.0607125
0.0565354
0.0526078
0.0489157
0.0454461
0.0421868
0.0391262
0.0362534
0.0335579
0.0310299
0.02866
0.0264393
0.0243593
0.0224117
0.020589
0.018884
0.0172904
0.0158024
0.0144156
0.0131262
0.0119314
0.0108175
0.0097755
0.00880736
0.00791395
0.00709442
0.00634608
0.00566474
0.00504532
0.00448248
0.0039709
0.00350548
0.00308135
0.00269404
0.00233968
0.0020153
0.0017191
0.00145053
0.00121004
0.00099838
0.000815766
0.000661287
0.000532818
0.00042729
0.000341308
0.000271435
0.000214863
0.000168689
0.000131598
0.000100847
7.68175e-05
5.63197e-05
4.12714e-05
2.76909e-05
1.86739e-05
9.67322e-06
0
0
0
0
0
0
0
0
0
0
0
0
0
0
0
0
0
0
0
0
0
0
0
0
0
0
0
0
0
0
0
0
0
0
0
0
0
0
0
0
0
0
0
0
0
0
0
0
0
0
0
0
0
0
0
0
0
0
0
0
0
0
0
0
0
0
0
0
0
0
0
0
0
0
0
0
0
0
0
0
0
0
0
0
0
0
0
0
0
0
0
0
0
0
0
0
0
0
0
0
0
0
0
0
0
0
0
0
0
0
0
0
0
0
0
0
0
0
0
0
0
0
0
0
)
;

boundaryField
{
    inandouthalf11
    {
        type            cyclic;
    }
    inandouthalf12
    {
        type            cyclic;
    }
    inandouthalf21
    {
        type            cyclic;
    }
    inandouthalf22
    {
        type            cyclic;
    }
    inandouthalf31
    {
        type            cyclic;
    }
    inandouthalf32
    {
        type            cyclic;
    }
    inandouthalf41
    {
        type            cyclic;
    }
    inandouthalf42
    {
        type            cyclic;
    }
    top
    {
        type            symmetryPlane;
    }
    walls
    {
        type            calculated;
        value           uniform 2.90365e-16;
    }
    frontAndBackPlanes
    {
        type            empty;
    }
}


// ************************************************************************* //
