/*--------------------------------*- C++ -*----------------------------------*\
| =========                 |                                                 |
| \\      /  F ield         | OpenFOAM: The Open Source CFD Toolbox           |
|  \\    /   O peration     | Version:  2.4.x                                 |
|   \\  /    A nd           | Web:      www.OpenFOAM.org                      |
|    \\/     M anipulation  |                                                 |
\*---------------------------------------------------------------------------*/
FoamFile
{
    version     2.0;
    format      ascii;
    class       surfaceScalarField;
    location    "10.2";
    object      phib;
}
// * * * * * * * * * * * * * * * * * * * * * * * * * * * * * * * * * * * * * //

dimensions      [0 3 -1 0 0 0 0];

internalField   nonuniform List<scalar> 
359
(
4.98518e-14
1.24198e-13
1.90278e-13
2.50929e-13
3.11047e-13
3.7052e-13
4.28563e-13
4.85171e-13
5.4065e-13
5.95317e-13
6.49406e-13
7.03074e-13
7.56466e-13
8.0971e-13
8.62933e-13
9.16257e-13
9.69795e-13
1.02364e-12
1.07787e-12
1.13258e-12
1.18782e-12
1.24367e-12
1.30017e-12
1.35738e-12
1.41534e-12
1.47409e-12
1.53364e-12
1.59405e-12
1.65532e-12
1.71747e-12
1.7805e-12
1.84445e-12
1.90928e-12
1.97503e-12
2.04168e-12
2.10923e-12
2.17766e-12
2.24697e-12
2.31716e-12
2.38818e-12
2.46006e-12
2.53276e-12
2.60623e-12
2.6805e-12
2.75553e-12
2.83129e-12
2.90777e-12
2.9849e-12
3.06268e-12
3.14112e-12
3.22014e-12
3.29973e-12
3.37985e-12
3.46048e-12
3.54157e-12
3.62312e-12
3.70506e-12
3.78738e-12
3.87002e-12
3.95293e-12
4.03612e-12
4.11952e-12
4.20313e-12
4.28689e-12
4.37077e-12
4.45472e-12
4.5387e-12
4.62268e-12
4.70661e-12
4.79041e-12
4.8741e-12
4.95766e-12
5.04099e-12
5.12409e-12
5.20693e-12
5.28949e-12
5.37168e-12
5.45347e-12
5.53481e-12
5.61568e-12
5.69602e-12
5.77581e-12
5.85503e-12
5.93364e-12
6.01162e-12
6.08894e-12
6.16555e-12
6.24143e-12
6.31651e-12
6.39078e-12
6.46418e-12
6.53669e-12
6.6083e-12
6.67898e-12
6.74871e-12
6.81749e-12
6.88528e-12
6.95207e-12
7.01783e-12
7.08256e-12
7.14622e-12
7.20882e-12
7.27034e-12
7.33078e-12
7.39014e-12
7.44842e-12
7.50562e-12
7.56174e-12
7.61679e-12
7.67078e-12
7.72372e-12
7.77562e-12
7.82649e-12
7.87636e-12
7.92526e-12
7.97321e-12
8.02025e-12
8.0664e-12
8.11168e-12
8.15607e-12
8.19954e-12
8.24197e-12
8.28319e-12
8.32298e-12
8.36104e-12
8.39707e-12
8.43079e-12
8.46207e-12
8.49092e-12
8.51763e-12
8.54274e-12
8.56709e-12
8.59183e-12
8.61835e-12
8.648e-12
8.68107e-12
8.71506e-12
8.74366e-12
8.75935e-12
8.75968e-12
8.7493e-12
8.67857e-12
1.13893e-11
1.66763e-11
2.27428e-11
3.0468e-11
3.90332e-11
4.14175e-11
6.25591e-09
5.60619e-09
4.31911e-09
3.55901e-09
2.99558e-09
2.56737e-09
2.23063e-09
1.95748e-09
1.73036e-09
1.53791e-09
1.3725e-09
1.22878e-09
1.10287e-09
9.91843e-10
8.93428e-10
8.05824e-10
7.27567e-10
6.57451e-10
5.94466e-10
5.37762e-10
4.86613e-10
4.40397e-10
3.98576e-10
3.60685e-10
3.26317e-10
2.95117e-10
2.66771e-10
2.41004e-10
2.17571e-10
1.96254e-10
1.7686e-10
1.59216e-10
1.43165e-10
1.28569e-10
1.153e-10
1.03245e-10
9.23001e-11
8.23719e-11
7.33748e-11
6.52313e-11
5.78704e-11
5.12274e-11
4.52432e-11
3.98638e-11
3.50399e-11
3.07261e-11
2.68811e-11
2.34664e-11
2.04461e-11
1.77858e-11
1.54519e-11
1.34112e-11
1.16304e-11
1.00474e-11
8.64112e-12
7.38949e-12
6.27154e-12
5.26927e-12
4.36894e-12
3.56085e-12
2.83815e-12
2.19571e-12
1.62958e-12
1.13666e-12
7.14692e-13
3.6207e-13
7.7521e-14
-1.4063e-13
-2.95514e-13
-3.92728e-13
-4.40768e-13
-4.50397e-13
-4.33146e-13
-3.99561e-13
-3.5801e-13
-3.14282e-13
-2.71903e-13
-2.32707e-13
-1.97445e-13
-1.66227e-13
-1.38923e-13
-1.1511e-13
-9.46536e-14
-7.69183e-14
-6.20054e-14
-4.89869e-14
-3.86915e-14
-3.01042e-14
-1.86598e-14
-1.49502e-14
-9.19333e-15
-5.29725e-15
-2.69974e-15
-1.11212e-15
-3.27853e-16
1.2897e-16
2.10972e-16
2.86199e-16
1.93151e-16
1.72814e-16
9.12805e-17
5.46103e-17
2.42297e-17
2.74391e-17
-9.59887e-18
-9.36734e-18
-9.05892e-18
-8.78175e-18
-8.43987e-18
-8.12534e-18
-7.75173e-18
-7.40525e-18
-7.02014e-18
-6.67098e-18
-6.30213e-18
-5.99526e-18
-5.72535e-18
-5.51488e-18
-5.31164e-18
-5.1355e-18
-4.97486e-18
-4.82206e-18
-4.66279e-18
-4.50827e-18
-4.38805e-18
-4.2665e-18
-4.13946e-18
-3.99014e-18
-3.85342e-18
-3.69237e-18
-3.52647e-18
-3.34713e-18
-3.22145e-18
-3.08448e-18
-2.94921e-18
-2.7876e-18
-2.64222e-18
-2.46998e-18
-2.23062e-18
-2.03013e-18
-1.86071e-18
-1.67287e-18
-1.48311e-18
-1.27259e-18
-1.08005e-18
-8.73015e-19
-6.78035e-19
-4.87301e-19
-5.70991e-19
-5.3526e-19
-5.16451e-19
-4.3369e-19
-4.29481e-19
-4.22176e-19
-4.17254e-19
-4.09655e-19
-4.16304e-19
-4.2009e-19
-4.25964e-19
-4.28202e-19
-4.34204e-19
-4.37333e-19
-4.41167e-19
-4.42449e-19
-4.60359e-19
-4.74638e-19
-4.89173e-19
-4.99015e-19
-5.14817e-19
-5.24156e-19
-5.34655e-19
-5.38911e-19
-5.73265e-19
-5.97877e-19
-6.25923e-19
-6.40838e-19
-6.99309e-19
-7.41163e-19
-8.25274e-19
-9.07859e-19
-1.54209e-18
-2.13606e-18
-2.76778e-18
-3.28814e-18
-3.94233e-18
-4.4258e-18
-4.91716e-18
-5.22677e-18
-5.87285e-18
-6.29245e-18
-6.71358e-18
-6.85774e-18
-7.22072e-18
-7.29919e-18
-7.40214e-18
-7.28556e-18
-7.78671e-18
-8.07773e-18
-8.39587e-18
-8.44935e-18
-8.72761e-18
-8.7367e-18
-8.77951e-18
-8.70537e-18
-9.02453e-18
-9.11783e-18
-9.24713e-18
-9.16427e-18
-8.95665e-18
-9.03103e-18
-1.01741e-17
)
;

boundaryField
{
    inandouthalf11
    {
        type            cyclic;
        value           nonuniform List<scalar> 
100
(
2.74029e-10
2.7251e-10
2.72304e-10
2.72509e-10
2.72607e-10
2.72639e-10
2.72679e-10
2.7273e-10
2.72782e-10
2.72835e-10
2.72888e-10
2.72941e-10
2.72995e-10
2.73049e-10
2.73103e-10
2.73158e-10
2.73214e-10
2.73271e-10
2.73327e-10
2.73385e-10
2.73443e-10
2.73502e-10
2.73561e-10
2.73621e-10
2.73681e-10
2.73743e-10
2.73804e-10
2.73867e-10
2.7393e-10
2.73994e-10
2.74058e-10
2.74124e-10
2.74189e-10
2.74257e-10
2.74324e-10
2.74392e-10
2.74461e-10
2.7453e-10
2.74601e-10
2.74672e-10
2.74744e-10
2.74817e-10
2.7489e-10
2.74965e-10
2.7504e-10
2.75116e-10
2.75194e-10
2.75271e-10
2.7535e-10
2.7543e-10
2.7551e-10
2.75592e-10
2.75674e-10
2.75758e-10
2.75842e-10
2.75928e-10
2.76015e-10
2.76103e-10
2.76192e-10
2.76281e-10
2.76373e-10
2.76464e-10
2.76558e-10
2.76653e-10
2.76749e-10
2.76846e-10
2.76945e-10
2.77045e-10
2.77146e-10
2.77248e-10
2.77352e-10
2.77459e-10
2.77565e-10
2.77674e-10
2.77784e-10
2.77896e-10
2.7801e-10
2.78125e-10
2.78242e-10
2.78361e-10
2.78482e-10
2.78605e-10
2.7873e-10
2.78857e-10
2.78986e-10
2.79117e-10
2.79251e-10
2.79387e-10
2.79525e-10
2.79666e-10
2.79809e-10
2.79955e-10
2.80104e-10
2.80256e-10
2.80411e-10
2.80569e-10
2.8073e-10
2.80894e-10
2.81062e-10
2.81233e-10
)
;
    }
    inandouthalf12
    {
        type            cyclic;
        value           nonuniform List<scalar> 
100
(
-2.74029e-10
-2.7251e-10
-2.72304e-10
-2.72509e-10
-2.72607e-10
-2.72639e-10
-2.72679e-10
-2.7273e-10
-2.72782e-10
-2.72835e-10
-2.72888e-10
-2.72941e-10
-2.72995e-10
-2.73049e-10
-2.73103e-10
-2.73158e-10
-2.73214e-10
-2.73271e-10
-2.73327e-10
-2.73385e-10
-2.73443e-10
-2.73502e-10
-2.73561e-10
-2.73621e-10
-2.73681e-10
-2.73743e-10
-2.73804e-10
-2.73867e-10
-2.7393e-10
-2.73994e-10
-2.74058e-10
-2.74124e-10
-2.74189e-10
-2.74257e-10
-2.74324e-10
-2.74392e-10
-2.74461e-10
-2.7453e-10
-2.74601e-10
-2.74672e-10
-2.74744e-10
-2.74817e-10
-2.7489e-10
-2.74965e-10
-2.7504e-10
-2.75116e-10
-2.75194e-10
-2.75271e-10
-2.7535e-10
-2.7543e-10
-2.7551e-10
-2.75592e-10
-2.75674e-10
-2.75758e-10
-2.75842e-10
-2.75928e-10
-2.76015e-10
-2.76103e-10
-2.76192e-10
-2.76281e-10
-2.76373e-10
-2.76464e-10
-2.76558e-10
-2.76653e-10
-2.76749e-10
-2.76846e-10
-2.76945e-10
-2.77045e-10
-2.77146e-10
-2.77248e-10
-2.77352e-10
-2.77459e-10
-2.77565e-10
-2.77674e-10
-2.77784e-10
-2.77896e-10
-2.7801e-10
-2.78125e-10
-2.78242e-10
-2.78361e-10
-2.78482e-10
-2.78605e-10
-2.7873e-10
-2.78857e-10
-2.78986e-10
-2.79117e-10
-2.79251e-10
-2.79387e-10
-2.79525e-10
-2.79666e-10
-2.79809e-10
-2.79955e-10
-2.80104e-10
-2.80256e-10
-2.80411e-10
-2.80569e-10
-2.8073e-10
-2.80894e-10
-2.81062e-10
-2.81233e-10
)
;
    }
    inandouthalf21
    {
        type            cyclic;
        value           nonuniform List<scalar> 
100
(
2.81408e-10
2.81587e-10
2.8177e-10
2.81957e-10
2.82149e-10
2.82344e-10
2.82545e-10
2.82751e-10
2.82961e-10
2.83177e-10
2.83399e-10
2.83626e-10
2.83859e-10
2.84099e-10
2.84345e-10
2.84598e-10
2.84858e-10
2.85126e-10
2.85402e-10
2.85687e-10
2.8598e-10
2.86283e-10
2.86596e-10
2.86919e-10
2.87254e-10
2.87601e-10
2.87961e-10
2.88335e-10
2.88724e-10
2.8913e-10
2.89553e-10
2.89994e-10
2.90455e-10
2.90941e-10
2.91458e-10
2.92006e-10
2.92583e-10
2.93198e-10
2.93883e-10
2.94672e-10
2.9553e-10
2.96526e-10
3.05238e-10
3.05554e-10
3.07748e-10
3.11421e-10
3.15503e-10
3.21924e-10
4.0984e-10
-3.51331e-08
-7.51192e-08
-1.02682e-07
-1.24214e-07
-1.42292e-07
-1.58139e-07
-1.72424e-07
-1.85549e-07
-1.97772e-07
-2.09272e-07
-2.20174e-07
-2.30572e-07
-2.40535e-07
-2.50119e-07
-2.59366e-07
-2.68314e-07
-2.7699e-07
-2.8542e-07
-2.93624e-07
-3.0162e-07
-3.09424e-07
-3.17048e-07
-3.24505e-07
-3.31805e-07
-3.38958e-07
-3.45971e-07
-3.52852e-07
-3.59608e-07
-3.66245e-07
-3.72768e-07
-3.79181e-07
-3.85491e-07
-3.917e-07
-3.97812e-07
-4.03832e-07
-4.09761e-07
-4.15603e-07
-4.2136e-07
-4.27035e-07
-4.3263e-07
-4.38148e-07
-4.43589e-07
-4.48956e-07
-4.5425e-07
-4.59473e-07
-4.64627e-07
-4.69711e-07
-4.74728e-07
-4.79678e-07
-4.84563e-07
-4.89383e-07
)
;
    }
    inandouthalf22
    {
        type            cyclic;
        value           nonuniform List<scalar> 
100
(
-2.81408e-10
-2.81587e-10
-2.8177e-10
-2.81957e-10
-2.82149e-10
-2.82344e-10
-2.82545e-10
-2.82751e-10
-2.82961e-10
-2.83177e-10
-2.83399e-10
-2.83626e-10
-2.83859e-10
-2.84099e-10
-2.84345e-10
-2.84598e-10
-2.84858e-10
-2.85126e-10
-2.85402e-10
-2.85687e-10
-2.8598e-10
-2.86283e-10
-2.86596e-10
-2.86919e-10
-2.87254e-10
-2.87601e-10
-2.87961e-10
-2.88335e-10
-2.88724e-10
-2.8913e-10
-2.89553e-10
-2.89994e-10
-2.90455e-10
-2.90941e-10
-2.91458e-10
-2.92006e-10
-2.92583e-10
-2.93198e-10
-2.93883e-10
-2.94672e-10
-2.9553e-10
-2.96526e-10
-3.05238e-10
-3.05554e-10
-3.07748e-10
-3.11421e-10
-3.15503e-10
-3.21924e-10
-4.0984e-10
3.51331e-08
7.51192e-08
1.02682e-07
1.24214e-07
1.42292e-07
1.58139e-07
1.72424e-07
1.85549e-07
1.97772e-07
2.09272e-07
2.20174e-07
2.30572e-07
2.40535e-07
2.50119e-07
2.59366e-07
2.68314e-07
2.7699e-07
2.8542e-07
2.93624e-07
3.0162e-07
3.09424e-07
3.17048e-07
3.24505e-07
3.31805e-07
3.38958e-07
3.45971e-07
3.52852e-07
3.59608e-07
3.66245e-07
3.72768e-07
3.79181e-07
3.85491e-07
3.917e-07
3.97812e-07
4.03832e-07
4.09761e-07
4.15603e-07
4.2136e-07
4.27035e-07
4.3263e-07
4.38148e-07
4.43589e-07
4.48956e-07
4.5425e-07
4.59473e-07
4.64627e-07
4.69711e-07
4.74728e-07
4.79678e-07
4.84563e-07
4.89383e-07
)
;
    }
    inandouthalf31
    {
        type            cyclic;
        value           nonuniform List<scalar> 
110
(
-4.94141e-07
-5.09007e-07
-5.24305e-07
-5.40047e-07
-5.56242e-07
-5.72903e-07
-5.90041e-07
-6.07667e-07
-6.25791e-07
-6.44425e-07
-6.63579e-07
-6.83263e-07
-7.03489e-07
-7.24263e-07
-7.45596e-07
-7.67495e-07
-7.89967e-07
-8.13016e-07
-8.36647e-07
-8.60863e-07
-8.85662e-07
-9.11042e-07
-9.36999e-07
-9.63522e-07
-9.90601e-07
-1.01822e-06
-1.04635e-06
-1.07498e-06
-1.10406e-06
-1.13356e-06
-1.16344e-06
-1.19365e-06
-1.22413e-06
-1.25483e-06
-1.28569e-06
-1.31667e-06
-1.34771e-06
-1.37879e-06
-1.40989e-06
-1.441e-06
-1.47213e-06
-1.50331e-06
-1.53456e-06
-1.56593e-06
-1.59745e-06
-1.62916e-06
-1.66109e-06
-1.69328e-06
-1.72575e-06
-1.75853e-06
-1.79164e-06
-1.82511e-06
-1.85896e-06
-1.89322e-06
-1.9279e-06
-1.96304e-06
-1.99867e-06
-2.0348e-06
-2.07149e-06
-2.10876e-06
-2.14665e-06
-2.18522e-06
-2.22451e-06
-2.26458e-06
-2.30549e-06
-2.34733e-06
-2.39017e-06
-2.43411e-06
-2.47927e-06
-2.52577e-06
-2.57376e-06
-2.62342e-06
-2.67528e-06
-2.72937e-06
-2.78476e-06
-2.84128e-06
-2.89895e-06
-2.9578e-06
-3.01783e-06
-3.07909e-06
-3.14158e-06
-3.20535e-06
-3.27041e-06
-3.33679e-06
-3.40452e-06
-3.47362e-06
-3.54412e-06
-3.61606e-06
-3.68946e-06
-3.76434e-06
-3.84075e-06
-3.91871e-06
-3.99825e-06
-4.0794e-06
-4.1622e-06
-4.24668e-06
-4.33288e-06
-4.42082e-06
-4.51056e-06
-4.60211e-06
-4.69552e-06
-4.79082e-06
-4.88807e-06
-4.98728e-06
-5.08851e-06
-5.19179e-06
-5.29717e-06
-5.40469e-06
-5.51439e-06
-5.62632e-06
)
;
    }
    inandouthalf32
    {
        type            cyclic;
        value           nonuniform List<scalar> 
110
(
4.94141e-07
5.09007e-07
5.24305e-07
5.40047e-07
5.56242e-07
5.72903e-07
5.90041e-07
6.07667e-07
6.25791e-07
6.44425e-07
6.63579e-07
6.83263e-07
7.03489e-07
7.24263e-07
7.45596e-07
7.67495e-07
7.89967e-07
8.13016e-07
8.36647e-07
8.60863e-07
8.85662e-07
9.11042e-07
9.36999e-07
9.63522e-07
9.90601e-07
1.01822e-06
1.04635e-06
1.07498e-06
1.10406e-06
1.13356e-06
1.16344e-06
1.19365e-06
1.22413e-06
1.25483e-06
1.28569e-06
1.31667e-06
1.34771e-06
1.37879e-06
1.40989e-06
1.441e-06
1.47213e-06
1.50331e-06
1.53456e-06
1.56593e-06
1.59745e-06
1.62916e-06
1.66109e-06
1.69328e-06
1.72575e-06
1.75853e-06
1.79164e-06
1.82511e-06
1.85896e-06
1.89322e-06
1.9279e-06
1.96304e-06
1.99867e-06
2.0348e-06
2.07149e-06
2.10876e-06
2.14665e-06
2.18522e-06
2.22451e-06
2.26458e-06
2.30549e-06
2.34733e-06
2.39017e-06
2.43411e-06
2.47927e-06
2.52577e-06
2.57376e-06
2.62342e-06
2.67528e-06
2.72937e-06
2.78476e-06
2.84128e-06
2.89895e-06
2.9578e-06
3.01783e-06
3.07909e-06
3.14158e-06
3.20535e-06
3.27041e-06
3.33679e-06
3.40452e-06
3.47362e-06
3.54412e-06
3.61606e-06
3.68946e-06
3.76434e-06
3.84075e-06
3.91871e-06
3.99825e-06
4.0794e-06
4.1622e-06
4.24668e-06
4.33288e-06
4.42082e-06
4.51056e-06
4.60211e-06
4.69552e-06
4.79082e-06
4.88807e-06
4.98728e-06
5.08851e-06
5.19179e-06
5.29717e-06
5.40469e-06
5.51439e-06
5.62632e-06
)
;
    }
    inandouthalf41
    {
        type            cyclic;
        value           nonuniform List<scalar> 
50
(
-5.03613e-06
-5.03613e-06
-5.03613e-06
-5.03613e-06
-5.03613e-06
-5.03613e-06
-5.03613e-06
-5.03613e-06
-5.03613e-06
-5.03613e-06
-5.03613e-06
-5.03613e-06
-5.03613e-06
-5.03613e-06
-5.03613e-06
-5.03613e-06
-5.03613e-06
-5.03613e-06
-5.03613e-06
-5.03613e-06
-5.03613e-06
-5.03613e-06
-5.03613e-06
-5.03613e-06
-5.03613e-06
-5.03613e-06
-5.03613e-06
-5.03613e-06
-5.03613e-06
-5.03613e-06
-5.03613e-06
-5.03613e-06
-5.03613e-06
-5.03613e-06
-5.03613e-06
-5.03613e-06
-5.03613e-06
-5.03613e-06
-5.03613e-06
-5.03613e-06
-5.03613e-06
-5.03613e-06
-5.03613e-06
-5.03613e-06
-5.03613e-06
-5.03613e-06
-5.03613e-06
-5.03613e-06
-5.03613e-06
-5.03613e-06
)
;
    }
    inandouthalf42
    {
        type            cyclic;
        value           nonuniform List<scalar> 
50
(
5.03613e-06
5.03613e-06
5.03613e-06
5.03613e-06
5.03613e-06
5.03613e-06
5.03613e-06
5.03613e-06
5.03613e-06
5.03613e-06
5.03613e-06
5.03613e-06
5.03613e-06
5.03613e-06
5.03613e-06
5.03613e-06
5.03613e-06
5.03613e-06
5.03613e-06
5.03613e-06
5.03613e-06
5.03613e-06
5.03613e-06
5.03613e-06
5.03613e-06
5.03613e-06
5.03613e-06
5.03613e-06
5.03613e-06
5.03613e-06
5.03613e-06
5.03613e-06
5.03613e-06
5.03613e-06
5.03613e-06
5.03613e-06
5.03613e-06
5.03613e-06
5.03613e-06
5.03613e-06
5.03613e-06
5.03613e-06
5.03613e-06
5.03613e-06
5.03613e-06
5.03613e-06
5.03613e-06
5.03613e-06
5.03613e-06
5.03613e-06
)
;
    }
    top
    {
        type            symmetryPlane;
        value           uniform 0;
    }
    walls
    {
        type            fixedValue;
        value           uniform 0;
    }
    frontAndBackPlanes
    {
        type            empty;
        value           nonuniform 0();
    }
}


// ************************************************************************* //
