/*--------------------------------*- C++ -*----------------------------------*\
| =========                 |                                                 |
| \\      /  F ield         | OpenFOAM: The Open Source CFD Toolbox           |
|  \\    /   O peration     | Version:  2.4.x                                 |
|   \\  /    A nd           | Web:      www.OpenFOAM.org                      |
|    \\/     M anipulation  |                                                 |
\*---------------------------------------------------------------------------*/
FoamFile
{
    version     2.0;
    format      ascii;
    class       volTensorField;
    location    "10.2";
    object      Tauf;
}
// * * * * * * * * * * * * * * * * * * * * * * * * * * * * * * * * * * * * * //

dimensions      [0 2 -2 0 0 0 0];

internalField   nonuniform List<tensor> 
360
(
(0 -5.46539e-07 0 -5.46539e-07 5.55383e-11 0 0 0 0)
(0 1.72534e-09 0 1.72534e-09 6.63353e-11 0 0 0 0)
(0 8.87744e-13 0 8.87744e-13 6.70464e-11 0 0 0 0)
(0 -3.03778e-10 0 -3.03778e-10 6.18908e-11 0 0 0 0)
(5.16988e-23 -1.29513e-10 0 -1.29513e-10 6.00791e-11 0 0 0 0)
(5.16988e-23 -7.12517e-11 0 -7.12517e-11 5.9267e-11 0 0 0 0)
(5.16988e-23 -9.0662e-11 0 -9.0662e-11 5.80421e-11 0 0 0 0)
(0 -1.0333e-10 0 -1.0333e-10 5.6686e-11 0 0 0 0)
(5.16988e-23 -1.05078e-10 0 -1.05078e-10 5.55582e-11 0 0 0 0)
(0 -1.05977e-10 0 -1.05977e-10 5.47255e-11 0 0 0 0)
(5.16988e-23 -1.06333e-10 0 -1.06333e-10 5.4128e-11 0 0 0 0)
(0 -1.06727e-10 0 -1.06727e-10 5.3704e-11 0 0 0 0)
(5.16988e-23 -1.07613e-10 0 -1.07613e-10 5.3424e-11 0 0 0 0)
(0 -1.08549e-10 0 -1.08549e-10 5.32754e-11 0 0 0 0)
(0 -1.09798e-10 0 -1.09798e-10 5.32533e-11 0 0 0 0)
(0 -1.11078e-10 0 -1.11078e-10 5.33524e-11 0 0 0 0)
(0 -1.12112e-10 0 -1.12112e-10 5.35607e-11 0 0 0 0)
(5.16988e-23 -1.13059e-10 0 -1.13059e-10 5.38641e-11 0 0 0 0)
(0 -1.1448e-10 0 -1.1448e-10 5.42549e-11 0 0 0 0)
(0 -1.15501e-10 0 -1.15501e-10 5.47228e-11 0 0 0 0)
(0 -1.16569e-10 0 -1.16569e-10 5.52582e-11 0 0 0 0)
(5.16988e-23 -1.18077e-10 0 -1.18077e-10 5.58581e-11 0 0 0 0)
(0 -1.19195e-10 0 -1.19195e-10 5.65148e-11 0 0 0 0)
(0 -1.20486e-10 0 -1.20486e-10 5.72207e-11 0 0 0 0)
(0 -1.21811e-10 0 -1.21811e-10 5.79693e-11 0 0 0 0)
(5.16988e-23 -1.22897e-10 0 -1.22897e-10 5.87524e-11 0 0 0 0)
(0 -1.2436e-10 0 -1.2436e-10 5.95668e-11 0 0 0 0)
(0 -1.25877e-10 0 -1.25877e-10 6.04101e-11 0 0 0 0)
(0 -1.26983e-10 0 -1.26983e-10 6.12736e-11 0 0 0 0)
(0 -1.28265e-10 0 -1.28265e-10 6.21501e-11 0 0 0 0)
(0 -1.30033e-10 0 -1.30033e-10 6.30414e-11 0 0 0 0)
(0 -1.30987e-10 0 -1.30987e-10 6.39383e-11 0 0 0 0)
(0 -1.32631e-10 0 -1.32631e-10 6.48402e-11 0 0 0 0)
(0 -1.3431e-10 0 -1.3431e-10 6.57469e-11 0 0 0 0)
(0 -1.35395e-10 0 -1.35395e-10 6.66484e-11 0 0 0 0)
(-5.16988e-23 -1.36919e-10 0 -1.36919e-10 6.75426e-11 0 0 0 0)
(0 -1.38378e-10 0 -1.38378e-10 6.84278e-11 0 0 0 0)
(0 -1.40516e-10 0 -1.40516e-10 6.93119e-11 0 0 0 0)
(0 -1.41247e-10 0 -1.41247e-10 7.01786e-11 0 0 0 0)
(0 -1.42993e-10 0 -1.42993e-10 7.10276e-11 0 0 0 0)
(0 -1.4534e-10 0 -1.4534e-10 7.18698e-11 0 0 0 0)
(0 -1.45865e-10 0 -1.45865e-10 7.26845e-11 0 0 0 0)
(-5.16988e-23 -1.47999e-10 0 -1.47999e-10 7.34801e-11 0 0 0 0)
(0 -1.49958e-10 0 -1.49958e-10 7.4262e-11 0 0 0 0)
(0 -1.51222e-10 0 -1.51222e-10 7.50197e-11 0 0 0 0)
(0 -1.53559e-10 0 -1.53559e-10 7.57585e-11 0 0 0 0)
(0 -1.54568e-10 0 -1.54568e-10 7.64618e-11 0 0 0 0)
(0 -1.56103e-10 0 -1.56103e-10 7.71284e-11 0 0 0 0)
(0 -1.59253e-10 0 -1.59253e-10 7.77865e-11 0 0 0 0)
(0 -1.60392e-10 0 -1.60392e-10 7.84187e-11 0 0 0 0)
(-5.16988e-23 -1.61859e-10 0 -1.61859e-10 7.90136e-11 0 0 0 0)
(0 -1.64306e-10 0 -1.64306e-10 7.95789e-11 0 0 0 0)
(0 -1.66295e-10 0 -1.66295e-10 8.01161e-11 0 0 0 0)
(0 -1.679e-10 0 -1.679e-10 8.06176e-11 0 0 0 0)
(0 -1.70336e-10 0 -1.70336e-10 8.10912e-11 0 0 0 0)
(0 -1.7235e-10 0 -1.7235e-10 8.15326e-11 0 0 0 0)
(0 -1.74273e-10 0 -1.74273e-10 8.19347e-11 0 0 0 0)
(0 -1.76987e-10 0 -1.76987e-10 8.23065e-11 0 0 0 0)
(0 -1.78138e-10 0 -1.78138e-10 8.26239e-11 0 0 0 0)
(0 -1.81168e-10 0 -1.81168e-10 8.29117e-11 0 0 0 0)
(0 -1.83572e-10 0 -1.83572e-10 8.3172e-11 0 0 0 0)
(0 -1.85607e-10 0 -1.85607e-10 8.33991e-11 0 0 0 0)
(0 -1.88433e-10 0 -1.88433e-10 8.35976e-11 0 0 0 0)
(0 -1.90579e-10 0 -1.90579e-10 8.37537e-11 0 0 0 0)
(0 -1.93031e-10 0 -1.93031e-10 8.38666e-11 0 0 0 0)
(0 -1.95692e-10 0 -1.95692e-10 8.39379e-11 0 0 0 0)
(0 -1.98737e-10 0 -1.98737e-10 8.39745e-11 0 0 0 0)
(0 -2.01265e-10 0 -2.01265e-10 8.39683e-11 0 0 0 0)
(0 -2.03299e-10 0 -2.03299e-10 8.39057e-11 0 0 0 0)
(0 -2.06632e-10 0 -2.06632e-10 8.3805e-11 0 0 0 0)
(0 -2.10589e-10 0 -2.10589e-10 8.36905e-11 0 0 0 0)
(0 -2.12392e-10 0 -2.12392e-10 8.35297e-11 0 0 0 0)
(0 -2.15394e-10 0 -2.15394e-10 8.33271e-11 0 0 0 0)
(0 -2.19226e-10 0 -2.19226e-10 8.30954e-11 0 0 0 0)
(0 -2.22556e-10 0 -2.22556e-10 8.28342e-11 0 0 0 0)
(0 -2.25731e-10 0 -2.25731e-10 8.25353e-11 0 0 0 0)
(0 -2.28627e-10 0 -2.28627e-10 8.21797e-11 0 0 0 0)
(0 -2.32513e-10 0 -2.32513e-10 8.17787e-11 0 0 0 0)
(0 -2.36348e-10 0 -2.36348e-10 8.13377e-11 0 0 0 0)
(0 -2.39797e-10 0 -2.39797e-10 8.08549e-11 0 0 0 0)
(0 -2.43561e-10 0 -2.43561e-10 8.03335e-11 0 0 0 0)
(0 -2.47818e-10 0 -2.47818e-10 7.9784e-11 0 0 0 0)
(0 -2.51879e-10 0 -2.51879e-10 7.92071e-11 0 0 0 0)
(0 -2.56081e-10 0 -2.56081e-10 7.86043e-11 0 0 0 0)
(0 -2.60431e-10 0 -2.60431e-10 7.79722e-11 0 0 0 0)
(0 -2.64954e-10 0 -2.64954e-10 7.73077e-11 0 0 0 0)
(0 -2.69549e-10 0 -2.69549e-10 7.66063e-11 0 0 0 0)
(0 -2.74157e-10 0 -2.74157e-10 7.58616e-11 0 0 0 0)
(0 -2.79105e-10 0 -2.79105e-10 7.50757e-11 0 0 0 0)
(0 -2.84231e-10 0 -2.84231e-10 7.42517e-11 0 0 0 0)
(0 -2.89445e-10 0 -2.89445e-10 7.33934e-11 0 0 0 0)
(0 -2.9494e-10 0 -2.9494e-10 7.25076e-11 0 0 0 0)
(0 -3.0068e-10 0 -3.0068e-10 7.16004e-11 0 0 0 0)
(0 -3.0655e-10 0 -3.0655e-10 7.06743e-11 0 0 0 0)
(0 -3.12621e-10 0 -3.12621e-10 6.97306e-11 0 0 0 0)
(0 -3.18905e-10 0 -3.18905e-10 6.87685e-11 0 0 0 0)
(0 -3.25391e-10 0 -3.25391e-10 6.77863e-11 0 0 0 0)
(0 -3.32106e-10 0 -3.32106e-10 6.67833e-11 0 0 0 0)
(0 -3.39092e-10 0 -3.39092e-10 6.576e-11 0 0 0 0)
(0 -3.46359e-10 0 -3.46359e-10 6.47185e-11 0 0 0 0)
(0 -3.53913e-10 0 -3.53913e-10 6.36618e-11 0 0 0 0)
(0 -3.61785e-10 0 -3.61785e-10 6.2594e-11 0 0 0 0)
(0 -3.69979e-10 0 -3.69979e-10 6.15188e-11 0 0 0 0)
(0 -3.78493e-10 0 -3.78493e-10 6.04393e-11 0 0 0 0)
(0 -3.87348e-10 0 -3.87348e-10 5.93582e-11 0 0 0 0)
(0 -3.96562e-10 0 -3.96562e-10 5.82774e-11 0 0 0 0)
(0 -4.06151e-10 0 -4.06151e-10 5.71984e-11 0 0 0 0)
(0 -4.1614e-10 0 -4.1614e-10 5.61229e-11 0 0 0 0)
(0 -4.26552e-10 0 -4.26552e-10 5.50527e-11 0 0 0 0)
(0 -4.37407e-10 0 -4.37407e-10 5.399e-11 0 0 0 0)
(0 -4.48731e-10 0 -4.48731e-10 5.29374e-11 0 0 0 0)
(0 -4.60549e-10 0 -4.60549e-10 5.18982e-11 0 0 0 0)
(0 -4.72891e-10 0 -4.72891e-10 5.08765e-11 0 0 0 0)
(0 -4.85791e-10 0 -4.85791e-10 4.98765e-11 0 0 0 0)
(0 -4.99292e-10 0 -4.99292e-10 4.89026e-11 0 0 0 0)
(0 -5.13439e-10 0 -5.13439e-10 4.79579e-11 0 0 0 0)
(0 -5.28289e-10 0 -5.28289e-10 4.70425e-11 0 0 0 0)
(0 -5.43908e-10 0 -5.43908e-10 4.61516e-11 0 0 0 0)
(0 -5.60376e-10 0 -5.60376e-10 4.52717e-11 0 0 0 0)
(0 -5.77775e-10 0 -5.77775e-10 4.43783e-11 0 0 0 0)
(0 -5.96195e-10 0 -5.96195e-10 4.34329e-11 0 0 0 0)
(0 -6.15716e-10 0 -6.15716e-10 4.23826e-11 0 0 0 0)
(0 -6.36412e-10 0 -6.36412e-10 4.11638e-11 0 0 0 0)
(0 -6.58369e-10 0 -6.58369e-10 3.97121e-11 0 0 0 0)
(0 -6.81725e-10 0 -6.81725e-10 3.79789e-11 0 0 0 0)
(0 -7.0673e-10 0 -7.0673e-10 3.59527e-11 0 0 0 0)
(0 -7.33751e-10 0 -7.33751e-10 3.36796e-11 0 0 0 0)
(0 -7.63144e-10 0 -7.63144e-10 3.12743e-11 0 0 0 0)
(0 -7.94956e-10 0 -7.94956e-10 2.89177e-11 0 0 0 0)
(0 -8.28701e-10 0 -8.28701e-10 2.68414e-11 0 0 0 0)
(0 -8.63901e-10 0 -8.63901e-10 2.53094e-11 0 0 0 0)
(0 -9.01926e-10 0 -9.01926e-10 2.46089e-11 0 0 0 0)
(0 -9.47167e-10 0 -9.47167e-10 2.50434e-11 0 0 0 0)
(0 -1.00296e-09 0 -1.00296e-09 2.68301e-11 0 0 0 0)
(0 -1.06465e-09 0 -1.06465e-09 2.97259e-11 0 0 0 0)
(0 -1.12485e-09 0 -1.12485e-09 3.24189e-11 0 0 0 0)
(0 -1.19258e-09 0 -1.19258e-09 3.22697e-11 0 0 0 0)
(0 -1.30099e-09 0 -1.30099e-09 2.65009e-11 0 0 0 0)
(0 -1.47411e-09 0 -1.47411e-09 1.51059e-11 0 0 0 0)
(0 -1.64645e-09 0 -1.64645e-09 1.42905e-12 0 0 0 0)
(0 -1.85373e-09 0 -1.85373e-09 -7.22228e-11 0 0 0 0)
(0 -9.70796e-09 0 -9.70796e-09 6.34732e-10 0 0 0 0)
(0 -9.02849e-09 0 -9.02849e-09 2.6646e-09 0 0 0 0)
(0 -2.51025e-09 0 -2.51025e-09 5.51388e-09 0 0 0 0)
(0 -5.86661e-09 0 -5.86661e-09 -7.93171e-10 0 0 0 0)
(0 -7.75584e-09 0 -7.75584e-09 3.67977e-08 0 0 0 0)
(0 -1.05125e-08 0 -1.05125e-08 -9.81097e-08 0 0 0 0)
(0 -9.57617e-08 0 -9.57617e-08 3.47795e-07 0 0 0 0)
(0 4.88969e-05 0 4.88969e-05 6.5139e-06 0 0 0 0)
(0 0.000397253 0 0.000397253 8.17067e-06 0 0 0 0)
(0 0.000983609 0 0.000983609 -3.77102e-05 0 0 0 0)
(0 0.00122897 0 0.00122897 -7.69592e-06 0 0 0 0)
(0 0.0014203 0 0.0014203 -2.37183e-05 0 0 0 0)
(0 0.00158329 0 0.00158329 -2.07752e-05 0 0 0 0)
(0 0.00172705 0 0.00172705 -1.94407e-05 0 0 0 0)
(0 0.00185591 0 0.00185591 -1.851e-05 0 0 0 0)
(0 0.00197248 0 0.00197248 -1.76995e-05 0 0 0 0)
(0 0.00207852 0 0.00207852 -1.68854e-05 0 0 0 0)
(0 0.00217528 0 0.00217528 -1.60761e-05 0 0 0 0)
(0 0.00226371 0 0.00226371 -1.5282e-05 0 0 0 0)
(0 0.00234458 0 0.00234458 -1.45037e-05 0 0 0 0)
(0 0.00241853 0 0.00241853 -1.37408e-05 0 0 0 0)
(0 0.00248611 0 0.00248611 -1.29949e-05 0 0 0 0)
(0 0.00254781 0 0.00254781 -1.22685e-05 0 0 0 0)
(0 0.00260404 0 0.00260404 -1.15642e-05 0 0 0 0)
(0 0.0026552 0 0.0026552 -1.08842e-05 0 0 0 0)
(0 0.00270161 0 0.00270161 -1.02303e-05 0 0 0 0)
(0 0.00274357 0 0.00274357 -9.60361e-06 0 0 0 0)
(0 0.00278135 0 0.00278135 -9.00464e-06 0 0 0 0)
(0 0.00281518 0 0.00281518 -8.43358e-06 0 0 0 0)
(0 0.00284529 0 0.00284529 -7.89021e-06 0 0 0 0)
(0 0.00287186 0 0.00287186 -7.37408e-06 0 0 0 0)
(0 0.00289507 0 0.00289507 -6.8845e-06 0 0 0 0)
(0 0.00291508 0 0.00291508 -6.42065e-06 0 0 0 0)
(0 0.00293202 0 0.00293202 -5.98165e-06 0 0 0 0)
(0 0.00294602 0 0.00294602 -5.56654e-06 0 0 0 0)
(0 0.00295722 0 0.00295722 -5.17435e-06 0 0 0 0)
(0 0.00296571 0 0.00296571 -4.80411e-06 0 0 0 0)
(0 0.0029716 0 0.0029716 -4.45487e-06 0 0 0 0)
(0 0.00297499 0 0.00297499 -4.12567e-06 0 0 0 0)
(0 0.00297596 0 0.00297596 -3.81563e-06 0 0 0 0)
(0 0.00297459 0 0.00297459 -3.52384e-06 0 0 0 0)
(0 0.00297098 0 0.00297098 -3.24947e-06 0 0 0 0)
(0 0.00296519 0 0.00296519 -2.99168e-06 0 0 0 0)
(0 0.00295729 0 0.00295729 -2.7497e-06 0 0 0 0)
(0 0.00294735 0 0.00294735 -2.52276e-06 0 0 0 0)
(0 0.00293545 0 0.00293545 -2.31011e-06 0 0 0 0)
(0 0.00292164 0 0.00292164 -2.11106e-06 0 0 0 0)
(0 0.00290598 0 0.00290598 -1.92491e-06 0 0 0 0)
(0 0.00288853 0 0.00288853 -1.75099e-06 0 0 0 0)
(0 0.00286936 0 0.00286936 -1.58866e-06 0 0 0 0)
(0 0.00284851 0 0.00284851 -1.43726e-06 0 0 0 0)
(0 0.00282604 0 0.00282604 -1.29619e-06 0 0 0 0)
(0 0.002802 0 0.002802 -1.16486e-06 0 0 0 0)
(0 0.00277644 0 0.00277644 -1.04274e-06 0 0 0 0)
(0 0.00274941 0 0.00274941 -9.29379e-07 0 0 0 0)
(0 0.00272096 0 0.00272096 -8.24483e-07 0 0 0 0)
(0 0.00269114 0 0.00269114 -7.27912e-07 0 0 0 0)
(0 0.00265999 0 0.00265999 -6.39696e-07 0 0 0 0)
(0 0.00262758 0 0.00262758 -5.59982e-07 0 0 0 0)
(0 0.00259399 0 0.00259399 -4.88909e-07 0 0 0 0)
(0 0.00255903 0 0.00255903 -4.25968e-07 0 0 0 0)
(-2.79013e-17 0.00252241 0 0.00252241 -3.70667e-07 0 0 0 0)
(0 0.0024841 0 0.0024841 -3.22913e-07 0 0 0 0)
(0 0.00244407 0 0.00244407 -2.82095e-07 0 0 0 0)
(2.61121e-17 0.00240226 0 0.00240226 -2.47154e-07 0 0 0 0)
(0 0.00235859 0 0.00235859 -2.16819e-07 0 0 0 0)
(-2.48932e-17 0.00231302 0 0.00231302 -1.89937e-07 0 0 0 0)
(0 0.00226548 0 0.00226548 -1.65676e-07 0 0 0 0)
(2.36544e-17 0.00221594 0 0.00221594 -1.43515e-07 0 0 0 0)
(0 0.00216434 0 0.00216434 -1.23126e-07 0 0 0 0)
(0 0.00211064 0 0.00211064 -1.04264e-07 0 0 0 0)
(0 0.00205481 0 0.00205481 -8.67205e-08 0 0 0 0)
(2.11246e-17 0.00199683 0 0.00199683 -7.03318e-08 0 0 0 0)
(0 0.00193667 0 0.00193667 -5.5021e-08 0 0 0 0)
(0 0.00187433 0 0.00187433 -4.08553e-08 0 0 0 0)
(0 0.00180981 0 0.00180981 -2.80762e-08 0 0 0 0)
(0 0.00174312 0 0.00174312 -1.70556e-08 0 0 0 0)
(0 0.0016743 0 0.0016743 -8.16553e-09 0 0 0 0)
(-1.72531e-17 0.00160339 0 0.00160339 -1.61033e-09 0 0 0 0)
(0 0.00153048 0 0.00153048 2.68519e-09 0 0 0 0)
(-1.59663e-17 0.00145567 0 0.00145567 5.06632e-09 0 0 0 0)
(0 0.00137909 0 0.00137909 6.03222e-09 0 0 0 0)
(-2.93933e-17 0.00130091 0 0.00130091 6.08943e-09 0 0 0 0)
(0 0.00122135 0 0.00122135 5.64914e-09 0 0 0 0)
(0 0.00114065 0 0.00114065 4.99311e-09 0 0 0 0)
(0 0.00105912 0 0.00105912 4.28832e-09 0 0 0 0)
(0 0.00097712 0 0.00097712 3.6191e-09 0 0 0 0)
(0 0.000895059 0 0.000895059 3.02139e-09 0 0 0 0)
(2.23038e-17 0.000813407 0 0.000813407 2.50299e-09 0 0 0 0)
(0 0.000732692 0 0.000732692 2.06125e-09 0 0 0 0)
(0 0.000653489 0 0.000653489 1.68934e-09 0 0 0 0)
(0 0.000576414 0 0.000576414 1.37798e-09 0 0 0 0)
(0 0.000502098 0 0.000502098 1.10415e-09 0 0 0 0)
(0 0.000431163 0 0.000431163 8.66899e-10 0 0 0 0)
(0 0.000364177 0 0.000364177 7.99132e-10 0 0 0 0)
(0 0.00030164 0 0.00030164 7.07697e-10 0 0 0 0)
(0 0.000243836 0 0.000243836 4.43392e-10 0 0 0 0)
(0 0.000190961 0 0.000190961 3.35074e-10 0 0 0 0)
(0 0.000143148 0 0.000143148 3.00232e-10 0 0 0 0)
(0 0.000100299 0 0.000100299 1.88852e-10 0 0 0 0)
(0 6.22023e-05 0 6.22023e-05 1.08741e-10 0 0 0 0)
(0 2.85679e-05 0 2.85679e-05 5.71549e-11 0 0 0 0)
(-1.4417e-17 -9.33808e-07 0 -9.33808e-07 2.69203e-11 0 0 0 0)
(1.4227e-17 -2.66413e-05 0 -2.66413e-05 9.48889e-12 0 0 0 0)
(0 -4.88794e-05 0 -4.88794e-05 1.06311e-12 0 0 0 0)
(0 -6.79454e-05 0 -6.79454e-05 -2.81712e-12 0 0 0 0)
(-1.35206e-17 -8.41035e-05 0 -8.41035e-05 -3.80442e-12 0 0 0 0)
(0 -9.75837e-05 0 -9.75837e-05 -3.5732e-12 0 0 0 0)
(0 -0.000108585 0 -0.000108585 -2.91541e-12 0 0 0 0)
(-2.50523e-17 -0.00011728 0 -0.00011728 -1.30136e-12 0 0 0 0)
(0 -0.00012382 0 -0.00012382 -7.58914e-13 0 0 0 0)
(0 -0.00012834 0 -0.00012834 -1.01945e-12 0 0 0 0)
(0 -0.000130962 0 -0.000130962 -5.32544e-13 0 0 0 0)
(0 -0.000131802 0 -0.000131802 7.24369e-14 0 0 0 0)
(0 -0.000130969 0 -0.000130969 6.1511e-14 0 0 0 0)
(0 -0.000128573 0 -0.000128573 1.77671e-14 0 0 0 0)
(0 -0.000124721 0 -0.000124721 1.15066e-14 0 0 0 0)
(0 -0.000119525 0 -0.000119525 1.39142e-14 0 0 0 0)
(0 -0.000113104 0 -0.000113104 1.40719e-14 0 0 0 0)
(0 -0.00010558 0 -0.00010558 1.2452e-14 0 0 0 0)
(0 -9.70903e-05 0 -9.70903e-05 1.3166e-14 0 0 0 0)
(0 -8.77834e-05 0 -8.77834e-05 2.26728e-14 0 0 0 0)
(0 -7.78256e-05 0 -7.78256e-05 2.25842e-14 0 0 0 0)
(0 -6.74034e-05 0 -6.74034e-05 -2.58924e-13 0 0 0 0)
(0 -5.67285e-05 0 -5.67285e-05 7.80311e-13 0 0 0 0)
(7.90967e-18 -4.60412e-05 0 -4.60412e-05 -1.35579e-12 0 0 0 0)
(0 -3.5615e-05 0 -3.5615e-05 1.84159e-12 0 0 0 0)
(0 -2.57594e-05 0 -2.57594e-05 -2.08479e-12 0 0 0 0)
(0 -1.68261e-05 0 -1.68261e-05 2.02827e-12 0 0 0 0)
(0 -9.23731e-06 0 -9.23731e-06 -1.63581e-12 0 0 0 0)
(0 -3.17846e-06 0 -3.17846e-06 9.44944e-13 0 0 0 0)
(0 -2.99487e-07 0 -2.99487e-07 -2.37071e-13 0 0 0 0)
(0 -1.24443e-08 0 -1.24443e-08 7.5513e-14 0 0 0 0)
(0 -2.77987e-10 0 -2.77987e-10 -6.95324e-14 0 0 0 0)
(0 -2.25871e-12 0 -2.25871e-12 6.81835e-14 0 0 0 0)
(0 3.98463e-13 0 3.98463e-13 -6.67841e-14 0 0 0 0)
(0 2.93261e-13 0 2.93261e-13 6.557e-14 0 0 0 0)
(0 2.00565e-13 0 2.00565e-13 -6.42743e-14 0 0 0 0)
(0 1.35854e-13 0 1.35854e-13 6.31632e-14 0 0 0 0)
(0 9.16349e-14 0 9.16349e-14 -6.19567e-14 0 0 0 0)
(0 6.14794e-14 0 6.14794e-14 6.08959e-14 0 0 0 0)
(0 4.06131e-14 0 4.06131e-14 -5.97569e-14 0 0 0 0)
(0 2.6865e-14 0 2.6865e-14 5.87487e-14 0 0 0 0)
(0 1.75119e-14 0 1.75119e-14 -5.76434e-14 0 0 0 0)
(0 1.11887e-14 0 1.11887e-14 5.66668e-14 0 0 0 0)
(1.50452e-19 7.21271e-15 0 7.21271e-15 -5.55674e-14 0 0 0 0)
(0 4.52696e-15 0 4.52696e-15 5.46266e-14 0 0 0 0)
(0 2.84007e-15 0 2.84007e-15 -5.35496e-14 0 0 0 0)
(0 1.72449e-15 0 1.72449e-15 5.25988e-14 0 0 0 0)
(0 1.02271e-15 0 1.02271e-15 -5.15256e-14 0 0 0 0)
(0 7.4366e-16 0 7.4366e-16 5.05781e-14 0 0 0 0)
(0 5.05982e-16 0 5.05982e-16 -4.94981e-14 0 0 0 0)
(0 2.06817e-16 0 2.06817e-16 4.85399e-14 0 0 0 0)
(0 3.65435e-17 0 3.65435e-17 -4.74524e-14 0 0 0 0)
(0 -1.11467e-16 0 -1.11467e-16 4.64784e-14 0 0 0 0)
(1.23064e-19 8.03299e-17 0 8.03299e-17 -4.54254e-14 0 0 0 0)
(0 1.97056e-16 0 1.97056e-16 4.43742e-14 0 0 0 0)
(0 2.08652e-17 0 2.08652e-17 -4.33126e-14 0 0 0 0)
(0 -1.34548e-16 0 -1.34548e-16 4.22622e-14 0 0 0 0)
(0 9.19832e-18 0 9.19832e-18 -4.1175e-14 0 0 0 0)
(0 1.70846e-17 0 1.70846e-17 4.00904e-14 0 0 0 0)
(0 -8.75417e-18 0 -8.75417e-18 -3.89906e-14 0 0 0 0)
(0 1.71199e-16 0 1.71199e-16 3.78811e-14 0 0 0 0)
(0 -1.51656e-16 0 -1.51656e-16 -3.67558e-14 0 0 0 0)
(0 -2.64849e-16 0 -2.64849e-16 3.56146e-14 0 0 0 0)
(0 2.11968e-16 0 2.11968e-16 -3.446e-14 0 0 0 0)
(0 3.03277e-16 0 3.03277e-16 3.32864e-14 0 0 0 0)
(0 -7.78888e-17 0 -7.78888e-17 -3.20961e-14 0 0 0 0)
(0 -2.62757e-16 0 -2.62757e-16 3.09135e-14 0 0 0 0)
(0 -1.52731e-16 0 -1.52731e-16 -3.40101e-14 0 0 0 0)
(0 -4.14517e-17 0 -4.14517e-17 3.3587e-14 0 0 0 0)
(0 5.3416e-17 0 5.3416e-17 -3.31935e-14 0 0 0 0)
(0 9.92617e-18 0 9.92617e-18 3.27921e-14 0 0 0 0)
(0 3.14726e-17 0 3.14726e-17 -3.23955e-14 0 0 0 0)
(0 5.45013e-17 0 5.45013e-17 3.19897e-14 0 0 0 0)
(0 1.01644e-17 0 1.01644e-17 -3.15876e-14 0 0 0 0)
(0 -6.32628e-18 0 -6.32628e-18 3.11767e-14 0 0 0 0)
(0 -3.15255e-17 0 -3.15255e-17 -3.07684e-14 0 0 0 0)
(0 -1.08791e-16 0 -1.08791e-16 3.03515e-14 0 0 0 0)
(0 -5.6063e-17 0 -5.6063e-17 -2.99392e-14 0 0 0 0)
(0 1.1382e-16 0 1.1382e-16 2.95126e-14 0 0 0 0)
(0 6.16216e-17 0 6.16216e-17 -2.90951e-14 0 0 0 0)
(0 -4.49192e-17 0 -4.49192e-17 2.86604e-14 0 0 0 0)
(0 1.18055e-17 0 1.18055e-17 -2.82378e-14 0 0 0 0)
(0 -3.62636e-18 0 -3.62636e-18 2.77892e-14 0 0 0 0)
(0 1.0932e-17 0 1.0932e-17 -2.73658e-14 0 0 0 0)
(0 3.17108e-17 0 3.17108e-17 2.6881e-14 0 0 0 0)
(0 -5.04249e-17 0 -5.04249e-17 -2.65209e-14 0 0 0 0)
(0 1.10908e-17 0 1.10908e-17 2.59346e-14 0 0 0 0)
(0 3.17108e-17 0 3.17108e-17 -2.56268e-14 0 0 0 0)
(0 -5.36013e-17 0 -5.36013e-17 2.50149e-14 0 0 0 0)
(0 -4.2034e-17 0 -4.2034e-17 -2.46882e-14 0 0 0 0)
(0 5.38395e-17 0 5.38395e-17 2.4072e-14 0 0 0 0)
(0 1.14614e-17 0 1.14614e-17 -2.37066e-14 0 0 0 0)
(0 3.15784e-17 0 3.15784e-17 2.30984e-14 0 0 0 0)
(0 4.78044e-17 0 4.78044e-17 -2.27118e-14 0 0 0 0)
(0 -3.98635e-17 0 -3.98635e-17 2.2077e-14 0 0 0 0)
(0 -7.52536e-17 0 -7.52536e-17 -2.1655e-14 0 0 0 0)
(0 -1.41057e-16 0 -1.41057e-16 2.10391e-14 0 0 0 0)
(0 -3.74627e-16 0 -3.74627e-16 -2.05525e-14 0 0 0 0)
(0 -6.09599e-17 0 -6.09599e-17 1.99411e-14 0 0 0 0)
(0 3.57633e-16 0 3.57633e-16 -1.93879e-14 0 0 0 0)
(0 1.94209e-16 0 1.94209e-16 1.87729e-14 0 0 0 0)
(0 5.50836e-17 0 5.50836e-17 -1.8209e-14 0 0 0 0)
(0 1.98788e-17 0 1.98788e-17 1.74995e-14 0 0 0 0)
(0 4.31193e-17 0 4.31193e-17 -1.6918e-14 0 0 0 0)
(0 8.4968e-18 0 8.4968e-18 1.61826e-14 0 0 0 0)
(0 -2.53316e-17 0 -2.53316e-17 -1.55123e-14 0 0 0 0)
(0 -6.92449e-17 0 -6.92449e-17 1.47372e-14 0 0 0 0)
(0 1.60142e-17 0 1.60142e-17 -1.39638e-14 0 0 0 0)
(0 1.15144e-16 0 1.15144e-16 1.31244e-14 0 0 0 0)
(0 7.33742e-17 0 7.33742e-17 -1.22658e-14 0 0 0 0)
(0 -2.96197e-17 0 -2.96197e-17 1.1271e-14 0 0 0 0)
(0 -7.55183e-17 0 -7.55183e-17 -1.02535e-14 0 0 0 0)
(0 -8.68209e-17 0 -8.68209e-17 9.08315e-15 0 0 0 0)
(0 -5.18808e-17 0 -5.18808e-17 -7.70684e-15 0 0 0 0)
(0 4.73544e-17 0 4.73544e-17 5.99963e-15 0 0 0 0)
(0 -6.62274e-17 0 -6.62274e-17 -3.52454e-15 0 0 0 0)
(0 -1.01141e-16 0 -1.01141e-16 2.14632e-15 0 0 0 0)
)
;

boundaryField
{
    inandouthalf11
    {
        type            cyclic;
    }
    inandouthalf12
    {
        type            cyclic;
    }
    inandouthalf21
    {
        type            cyclic;
    }
    inandouthalf22
    {
        type            cyclic;
    }
    inandouthalf31
    {
        type            cyclic;
    }
    inandouthalf32
    {
        type            cyclic;
    }
    inandouthalf41
    {
        type            cyclic;
    }
    inandouthalf42
    {
        type            cyclic;
    }
    top
    {
        type            symmetryPlane;
    }
    walls
    {
        type            zeroGradient;
    }
    frontAndBackPlanes
    {
        type            empty;
    }
}


// ************************************************************************* //
