/*--------------------------------*- C++ -*----------------------------------*\
| =========                 |                                                 |
| \\      /  F ield         | OpenFOAM: The Open Source CFD Toolbox           |
|  \\    /   O peration     | Version:  2.4.x                                 |
|   \\  /    A nd           | Web:      www.OpenFOAM.org                      |
|    \\/     M anipulation  |                                                 |
\*---------------------------------------------------------------------------*/
FoamFile
{
    version     2.0;
    format      ascii;
    class       volScalarField;
    location    "10.2";
    object      Theta;
}
// * * * * * * * * * * * * * * * * * * * * * * * * * * * * * * * * * * * * * //

dimensions      [0 2 -2 0 0 0 0];

internalField   nonuniform List<scalar> 
360
(
6.66141e-21
6.66149e-21
6.66146e-21
6.66145e-21
6.66145e-21
6.66145e-21
6.66144e-21
6.66144e-21
6.66144e-21
6.66144e-21
6.66143e-21
6.66143e-21
6.66143e-21
6.66143e-21
6.66143e-21
6.66143e-21
6.66143e-21
6.66143e-21
6.66143e-21
6.66143e-21
6.66143e-21
6.66143e-21
6.66143e-21
6.66143e-21
6.66143e-21
6.66143e-21
6.66143e-21
6.66144e-21
6.66144e-21
6.66144e-21
6.66144e-21
6.66144e-21
6.66144e-21
6.66144e-21
6.66144e-21
6.66144e-21
6.66144e-21
6.66145e-21
6.66145e-21
6.66145e-21
6.66145e-21
6.66145e-21
6.66145e-21
6.66145e-21
6.66145e-21
6.66145e-21
6.66145e-21
6.66145e-21
6.66146e-21
6.66146e-21
6.66146e-21
6.66146e-21
6.66146e-21
6.66146e-21
6.66146e-21
6.66146e-21
6.66146e-21
6.66146e-21
6.66146e-21
6.66146e-21
6.66146e-21
6.66146e-21
6.66146e-21
6.66146e-21
6.66146e-21
6.66146e-21
6.66145e-21
6.66145e-21
6.66145e-21
6.66145e-21
6.66145e-21
6.66145e-21
6.66145e-21
6.66145e-21
6.66144e-21
6.66144e-21
6.66144e-21
6.66144e-21
6.66144e-21
6.66144e-21
6.66143e-21
6.66143e-21
6.66143e-21
6.66143e-21
6.66142e-21
6.66142e-21
6.66142e-21
6.66142e-21
6.66141e-21
6.66141e-21
6.66141e-21
6.6614e-21
6.6614e-21
6.6614e-21
6.66139e-21
6.66139e-21
6.66139e-21
6.66138e-21
6.66138e-21
6.66138e-21
6.66137e-21
6.66137e-21
6.66137e-21
6.66136e-21
6.66136e-21
6.66136e-21
6.66135e-21
6.66135e-21
6.66135e-21
6.66134e-21
6.66134e-21
6.66133e-21
6.66133e-21
6.66133e-21
6.66132e-21
6.66132e-21
6.66132e-21
6.66131e-21
6.66131e-21
6.66131e-21
6.6613e-21
6.6613e-21
6.66129e-21
6.66129e-21
6.66128e-21
6.66128e-21
1.5273e-20
4.97434e-20
1.60891e-19
5.0421e-19
1.53301e-18
4.53714e-18
1.31223e-17
3.72705e-17
1.04618e-16
2.92463e-16
8.23273e-16
2.38168e-15
7.34322e-15
2.54604e-14
1.0592e-13
5.61985e-13
4.26709e-12
3.67635e-11
3.72532e-10
5.18826e-09
1.16519e-07
3.36185e-06
7.11159e-05
0.000569622
0.00132024
0.00190531
0.00237505
0.00276953
0.00311058
0.00341085
0.00367839
0.00391891
0.00413648
0.00433423
0.00451457
0.00467939
0.00483023
0.00496838
0.00509494
0.0052108
0.00531677
0.00541353
0.00550169
0.00558178
0.0056543
0.00571965
0.00577825
0.00583045
0.00587657
0.00591692
0.00595175
0.00598134
0.00600591
0.00602567
0.00604083
0.00605157
0.00605804
0.00606042
0.00605884
0.00605344
0.00604434
0.00603167
0.00601553
0.00599601
0.00597323
0.00594727
0.00591822
0.00588616
0.00585119
0.00581337
0.0057728
0.00572956
0.00568372
0.00563536
0.00558458
0.00553091
0.00547377
0.00541309
0.00534879
0.0052808
0.00520906
0.00513353
0.00505417
0.00497095
0.00488385
0.00479286
0.00469796
0.00459912
0.0044963
0.00438947
0.00427855
0.00416345
0.00404405
0.00392016
0.00379158
0.00365803
0.00351919
0.00337467
0.00322399
0.00306661
0.00290183
0.00272882
0.00254652
0.00235359
0.00214825
0.00192808
0.00168954
0.00142716
0.00113132
0.00078112
0
0
0
0
0
0
0
0
0
0
0
0
0
0
0
0
0
0
0
0
0
0
0
0
0
0
0
0
0
0
0
0
0
0
0
0
0
0
0
0
0
0
0
0
0
0
0
0
0
0
0
0
0
0
0
0
0
0
0
0
0
0
0
0
0
0
0
0
0
0
0
0
0
0
0
0
0
0
0
0
0
0
0
0
0
0
0
0
0
0
0
0
0
0
0
0
0
0
0
0
0
0
0
0
0
0
0
0
0
0
0
0
0
0
0
0
0
0
0
0
0
0
0
0
)
;

boundaryField
{
    inandouthalf11
    {
        type            cyclic;
    }
    inandouthalf12
    {
        type            cyclic;
    }
    inandouthalf21
    {
        type            cyclic;
    }
    inandouthalf22
    {
        type            cyclic;
    }
    inandouthalf31
    {
        type            cyclic;
    }
    inandouthalf32
    {
        type            cyclic;
    }
    inandouthalf41
    {
        type            cyclic;
    }
    inandouthalf42
    {
        type            cyclic;
    }
    top
    {
        type            symmetryPlane;
    }
    walls
    {
        type            zeroGradient;
    }
    frontAndBackPlanes
    {
        type            empty;
    }
}


// ************************************************************************* //
