/*--------------------------------*- C++ -*----------------------------------*\
| =========                 |                                                 |
| \\      /  F ield         | OpenFOAM: The Open Source CFD Toolbox           |
|  \\    /   O peration     | Version:  2.4.x                                 |
|   \\  /    A nd           | Web:      www.OpenFOAM.org                      |
|    \\/     M anipulation  |                                                 |
\*---------------------------------------------------------------------------*/
FoamFile
{
    version     2.0;
    format      ascii;
    class       volVectorField;
    location    "10.2";
    object      U;
}
// * * * * * * * * * * * * * * * * * * * * * * * * * * * * * * * * * * * * * //

dimensions      [0 1 -1 0 0 0 0];

internalField   nonuniform List<vector> 
360
(
(-0.000106629 2.38805e-09 0)
(-0.000105803 -5.41731e-10 0)
(-0.000105699 -4.72069e-10 0)
(-0.000105804 -3.09211e-11 0)
(-0.000105854 2.85256e-11 0)
(-0.000105871 -2.67854e-11 0)
(-0.000105891 -4.16677e-11 0)
(-0.000105918 -3.21198e-11 0)
(-0.000105945 -2.26375e-11 0)
(-0.000105972 -1.61972e-11 0)
(-0.000105999 -1.14995e-11 0)
(-0.000106026 -7.94401e-12 0)
(-0.000106054 -4.69947e-12 0)
(-0.000106082 -1.55739e-12 0)
(-0.00010611 1.53612e-12 0)
(-0.000106138 4.44297e-12 0)
(-0.000106167 6.97478e-12 0)
(-0.000106196 9.19968e-12 0)
(-0.000106225 1.11742e-11 0)
(-0.000106254 1.30795e-11 0)
(-0.000106284 1.45717e-11 0)
(-0.000106314 1.61714e-11 0)
(-0.000106345 1.75267e-11 0)
(-0.000106375 1.86428e-11 0)
(-0.000106406 1.96225e-11 0)
(-0.000106438 2.04698e-11 0)
(-0.000106469 2.11657e-11 0)
(-0.000106501 2.19239e-11 0)
(-0.000106534 2.23331e-11 0)
(-0.000106566 2.26592e-11 0)
(-0.000106599 2.28715e-11 0)
(-0.000106633 2.33279e-11 0)
(-0.000106666 2.30246e-11 0)
(-0.000106701 2.35717e-11 0)
(-0.000106735 2.3082e-11 0)
(-0.00010677 2.3077e-11 0)
(-0.000106805 2.28799e-11 0)
(-0.000106841 2.27144e-11 0)
(-0.000106877 2.27114e-11 0)
(-0.000106913 2.16682e-11 0)
(-0.00010695 2.19307e-11 0)
(-0.000106987 2.13724e-11 0)
(-0.000107024 2.03638e-11 0)
(-0.000107063 2.07275e-11 0)
(-0.000107101 1.98806e-11 0)
(-0.00010714 1.91707e-11 0)
(-0.000107179 1.87223e-11 0)
(-0.000107219 1.74813e-11 0)
(-0.000107259 1.73722e-11 0)
(-0.0001073 1.74368e-11 0)
(-0.000107341 1.55253e-11 0)
(-0.000107382 1.54025e-11 0)
(-0.000107424 1.44336e-11 0)
(-0.000107467 1.41422e-11 0)
(-0.00010751 1.25456e-11 0)
(-0.000107554 1.28965e-11 0)
(-0.000107597 1.09665e-11 0)
(-0.000107642 1.06086e-11 0)
(-0.000107687 9.62554e-12 0)
(-0.000107733 7.89839e-12 0)
(-0.000107779 8.77063e-12 0)
(-0.000107826 6.82831e-12 0)
(-0.000107874 6.75005e-12 0)
(-0.000107922 5.29201e-12 0)
(-0.000107971 4.46042e-12 0)
(-0.00010802 3.2578e-12 0)
(-0.00010807 2.58613e-12 0)
(-0.000108121 1.42775e-12 0)
(-0.000108172 2.9848e-13 0)
(-0.000108224 -1.16382e-12 0)
(-0.000108277 -1.03862e-12 0)
(-0.000108331 -1.41746e-12 0)
(-0.000108384 -4.09324e-12 0)
(-0.00010844 -3.47722e-12 0)
(-0.000108496 -4.84406e-12 0)
(-0.000108553 -5.26344e-12 0)
(-0.00010861 -7.31011e-12 0)
(-0.000108668 -8.34996e-12 0)
(-0.000108728 -9.1525e-12 0)
(-0.000108788 -9.93942e-12 0)
(-0.000108849 -1.12528e-11 0)
(-0.000108912 -1.17374e-11 0)
(-0.000108975 -1.22313e-11 0)
(-0.000109039 -1.30518e-11 0)
(-0.000109105 -1.37179e-11 0)
(-0.000109171 -1.47197e-11 0)
(-0.000109239 -1.55683e-11 0)
(-0.000109308 -1.67719e-11 0)
(-0.000109378 -1.7892e-11 0)
(-0.000109449 -1.87555e-11 0)
(-0.000109522 -1.95494e-11 0)
(-0.000109596 -2.02859e-11 0)
(-0.000109671 -2.07431e-11 0)
(-0.000109748 -2.12064e-11 0)
(-0.000109827 -2.17109e-11 0)
(-0.000109907 -2.22409e-11 0)
(-0.000109988 -2.28114e-11 0)
(-0.000110072 -2.3416e-11 0)
(-0.000110157 -2.40018e-11 0)
(-0.000110244 -2.45058e-11 0)
(-0.000110332 -2.49333e-11 0)
(-0.000110423 -2.52705e-11 0)
(-0.000110516 -2.5508e-11 0)
(-0.000110611 -2.56843e-11 0)
(-0.000110708 -2.58212e-11 0)
(-0.000110808 -2.59224e-11 0)
(-0.00011091 -2.59964e-11 0)
(-0.000111014 -2.60419e-11 0)
(-0.000111121 -2.60487e-11 0)
(-0.000111231 -2.6007e-11 0)
(-0.000111344 -2.59036e-11 0)
(-0.000111459 -2.57221e-11 0)
(-0.000111578 -2.54474e-11 0)
(-0.0001117 -2.50722e-11 0)
(-0.000111825 -2.46065e-11 0)
(-0.000111954 -2.40944e-11 0)
(-0.000112087 -2.3631e-11 0)
(-0.000112223 -2.33794e-11 0)
(-0.000112364 -2.35839e-11 0)
(-0.000112509 -2.45709e-11 0)
(-0.000112659 -2.67231e-11 0)
(-0.000112813 -3.04069e-11 0)
(-0.000112973 -3.58467e-11 0)
(-0.000113138 -4.29495e-11 0)
(-0.000113309 -5.11265e-11 0)
(-0.000113487 -5.9208e-11 0)
(-0.000113671 -6.55415e-11 0)
(-0.000113862 -6.82685e-11 0)
(-0.000114061 -6.56442e-11 0)
(-0.000114269 -5.63356e-11 0)
(-0.000114486 -3.97878e-11 0)
(-0.000114712 -1.66882e-11 0)
(-0.000114948 1.17037e-11 0)
(-0.000115198 4.44318e-11 0)
(-0.000115463 7.24987e-11 0)
(-0.000115744 5.88181e-11 0)
(-0.000116039 -5.43581e-11 0)
(-0.000116355 -2.77053e-10 0)
(-0.000116707 -4.76458e-10 0)
(-0.000117114 -4.03728e-10 0)
(-0.000117558 -2.51679e-10 0)
(-0.000118073 -1.26957e-08 0)
(-0.000122607 1.413e-07 0)
(-0.000122906 2.12971e-08 0)
(-0.00012425 1.33232e-07 0)
(-0.000126381 -1.41198e-06 0)
(-0.000128733 6.12066e-06 0)
(-0.000132271 -2.30935e-05 0)
(-0.000209312 9.40584e-05 0)
(0.0347938 0.00050608 0)
(0.0751691 -0.000171592 0)
(0.102902 6.43512e-05 0)
(0.124457 1.5792e-05 0)
(0.142521 4.77695e-06 0)
(0.158348 2.0114e-06 0)
(0.172612 1.20619e-06 0)
(0.185717 7.045e-07 0)
(0.197924 3.78131e-07 0)
(0.20941 1.88639e-07 0)
(0.220299 8.28005e-08 0)
(0.230686 2.19656e-08 0)
(0.240639 -1.39985e-08 0)
(0.250214 -3.49188e-08 0)
(0.259454 -4.65776e-08 0)
(0.268395 -5.23266e-08 0)
(0.277065 -5.46253e-08 0)
(0.285489 -5.4634e-08 0)
(0.293688 -5.3395e-08 0)
(0.301679 -5.13219e-08 0)
(0.309478 -4.88833e-08 0)
(0.317098 -4.62045e-08 0)
(0.324552 -4.34982e-08 0)
(0.331848 -4.08299e-08 0)
(0.338998 -3.82204e-08 0)
(0.346008 -3.5741e-08 0)
(0.352886 -3.33883e-08 0)
(0.35964 -3.11716e-08 0)
(0.366274 -2.90779e-08 0)
(0.372795 -2.71246e-08 0)
(0.379207 -2.52866e-08 0)
(0.385514 -2.35716e-08 0)
(0.391722 -2.19594e-08 0)
(0.397832 -2.04548e-08 0)
(0.40385 -1.90387e-08 0)
(0.409778 -1.77124e-08 0)
(0.415618 -1.64642e-08 0)
(0.421374 -1.5289e-08 0)
(0.427048 -1.41805e-08 0)
(0.432642 -1.31325e-08 0)
(0.438159 -1.21392e-08 0)
(0.443599 -1.11956e-08 0)
(0.448965 -1.0297e-08 0)
(0.454258 -9.43967e-09 0)
(0.459481 -8.62045e-09 0)
(0.464633 -7.83721e-09 0)
(0.469717 -7.08896e-09 0)
(0.474733 -6.37632e-09 0)
(0.479682 -5.70208e-09 0)
(0.484567 -5.0722e-09 0)
(0.489386 -4.49541e-09 0)
(0.494141 -3.97966e-09 0)
(0.498881 -3.66082e-09 0)
(0.503652 -3.39552e-09 0)
(0.508452 -3.163e-09 0)
(0.513281 -2.96609e-09 0)
(0.518138 -2.8108e-09 0)
(0.523022 -2.69698e-09 0)
(0.527929 -2.61377e-09 0)
(0.532859 -2.5448e-09 0)
(0.537809 -2.47615e-09 0)
(0.542778 -2.39909e-09 0)
(0.54776 -2.30845e-09 0)
(0.552755 -2.19992e-09 0)
(0.557757 -2.06902e-09 0)
(0.562763 -1.91306e-09 0)
(0.567768 -1.73462e-09 0)
(0.572766 -1.54325e-09 0)
(0.577751 -1.35147e-09 0)
(0.582717 -1.16463e-09 0)
(0.587655 -9.78301e-10 0)
(0.592557 -7.85353e-10 0)
(0.597412 -5.92678e-10 0)
(0.60221 -4.13795e-10 0)
(0.606937 -2.69022e-10 0)
(0.611581 -1.57173e-10 0)
(0.616126 -9.48963e-11 0)
(0.620554 -2.55083e-11 0)
(0.624848 -4.58614e-11 0)
(0.628986 5.12397e-11 0)
(0.632946 -6.77076e-11 0)
(0.636706 1.20463e-10 0)
(0.640242 -1.28595e-10 0)
(0.64353 2.19756e-10 0)
(0.646546 -2.16849e-10 0)
(0.64927 2.59021e-10 0)
(0.651685 -6.26399e-10 0)
(0.653781 2.11345e-09 0)
(0.655553 -2.88192e-09 0)
(0.657002 1.35959e-09 0)
(0.65814 -6.33014e-10 0)
(0.658983 3.74244e-10 0)
(0.659552 -3.20672e-10 0)
(0.659871 3.33796e-10 0)
(0.659964 -2.48458e-10 0)
(0.659855 2.0582e-10 0)
(0.659566 -1.59293e-10 0)
(0.659115 1.49983e-10 0)
(0.65852 -1.15902e-10 0)
(0.657797 1.05246e-10 0)
(0.656956 -6.5727e-11 0)
(0.656012 5.63976e-11 0)
(0.654973 5.96325e-14 0)
(0.65385 2.20728e-12 0)
(0.652651 -2.96557e-12 0)
(0.651387 -2.74423e-12 0)
(0.650065 -2.2524e-12 0)
(0.648695 -2.11586e-12 0)
(0.647286 -2.06122e-12 0)
(0.645847 -1.98425e-12 0)
(0.644387 -1.89235e-12 0)
(0.642917 -1.80203e-12 0)
(0.641448 -1.71909e-12 0)
(0.639991 -1.60324e-12 0)
(0.638557 -1.34433e-12 0)
(0.637162 -1.19384e-12 0)
(0.635819 -6.66232e-12 0)
(0.634543 1.71133e-11 0)
(0.633354 -4.38107e-11 0)
(0.63227 7.77397e-11 0)
(0.631315 -1.29704e-10 0)
(0.630512 1.89079e-10 0)
(0.629892 -2.63551e-10 0)
(0.629566 3.40817e-10 0)
(0.629517 -4.26864e-10 0)
(0.629516 5.10994e-10 0)
(0.629516 -6.01134e-10 0)
(0.629516 6.88999e-10 0)
(0.629516 -7.82653e-10 0)
(0.629516 8.74474e-10 0)
(0.629516 -9.71913e-10 0)
(0.629516 1.06799e-09 0)
(0.629516 -1.16948e-09 0)
(0.629516 1.27001e-09 0)
(0.629516 -1.3758e-09 0)
(0.629516 1.481e-09 0)
(0.629516 -1.59124e-09 0)
(0.629516 1.70128e-09 0)
(0.629516 -1.81607e-09 0)
(0.629516 1.93116e-09 0)
(0.629516 -2.05065e-09 0)
(0.629516 2.17084e-09 0)
(0.629516 -2.29511e-09 0)
(0.629516 2.42051e-09 0)
(0.629516 -2.54961e-09 0)
(0.629516 2.68026e-09 0)
(0.629516 -2.81422e-09 0)
(0.629516 2.95014e-09 0)
(0.629516 -3.08914e-09 0)
(0.629516 3.23012e-09 0)
(0.629516 -3.37415e-09 0)
(0.629516 3.52021e-09 0)
(0.629516 -3.6692e-09 0)
(0.629516 3.82024e-09 0)
(0.629516 -3.97413e-09 0)
(0.629516 4.13002e-09 0)
(0.629516 -4.28868e-09 0)
(0.629516 4.44925e-09 0)
(0.629516 -4.6125e-09 0)
(0.629516 4.77752e-09 0)
(0.629516 -4.94509e-09 0)
(0.629516 4.49103e-09 0)
(0.629516 -4.55882e-09 0)
(0.629516 4.62538e-09 0)
(0.629516 -4.6916e-09 0)
(0.629516 4.75655e-09 0)
(0.629516 -4.82118e-09 0)
(0.629516 4.88451e-09 0)
(0.629516 -4.94753e-09 0)
(0.629516 5.00921e-09 0)
(0.629516 -5.0706e-09 0)
(0.629516 5.13062e-09 0)
(0.629516 -5.19036e-09 0)
(0.629516 5.24867e-09 0)
(0.629516 -5.30674e-09 0)
(0.629516 5.36331e-09 0)
(0.629516 -5.41969e-09 0)
(0.629516 5.47447e-09 0)
(0.629516 -5.52915e-09 0)
(0.629516 5.58199e-09 0)
(0.629516 -5.63524e-09 0)
(0.629516 5.68573e-09 0)
(0.629516 -5.73775e-09 0)
(0.629516 5.78579e-09 0)
(0.629516 -5.8365e-09 0)
(0.629516 5.88208e-09 0)
(0.629516 -5.93132e-09 0)
(0.629516 5.97447e-09 0)
(0.629516 -6.02217e-09 0)
(0.629516 6.06278e-09 0)
(0.629516 -6.10879e-09 0)
(0.629516 6.14694e-09 0)
(0.629516 -6.191e-09 0)
(0.629516 6.2267e-09 0)
(0.629516 -6.26855e-09 0)
(0.629516 6.30179e-09 0)
(0.629516 -6.34139e-09 0)
(0.629516 6.37179e-09 0)
(0.629516 -6.40906e-09 0)
(0.629516 6.43652e-09 0)
(0.629516 -6.47111e-09 0)
(0.629516 6.49547e-09 0)
(0.629516 -6.52697e-09 0)
(0.629516 6.54797e-09 0)
(0.629516 -6.57603e-09 0)
(0.629516 6.59305e-09 0)
(0.629516 -6.61704e-09 0)
(0.629516 6.62939e-09 0)
(0.629516 -6.64787e-09 0)
(0.629516 6.65338e-09 0)
(0.629516 -6.66197e-09 0)
)
;

boundaryField
{
    inandouthalf11
    {
        type            cyclic;
    }
    inandouthalf12
    {
        type            cyclic;
    }
    inandouthalf21
    {
        type            cyclic;
    }
    inandouthalf22
    {
        type            cyclic;
    }
    inandouthalf31
    {
        type            cyclic;
    }
    inandouthalf32
    {
        type            cyclic;
    }
    inandouthalf41
    {
        type            cyclic;
    }
    inandouthalf42
    {
        type            cyclic;
    }
    top
    {
        type            symmetryPlane;
    }
    walls
    {
        type            calculated;
        value           uniform (0 0 0);
    }
    frontAndBackPlanes
    {
        type            empty;
    }
}


// ************************************************************************* //
