/*--------------------------------*- C++ -*----------------------------------*\
| =========                 |                                                 |
| \\      /  F ield         | OpenFOAM: The Open Source CFD Toolbox           |
|  \\    /   O peration     | Version:  2.4.x                                 |
|   \\  /    A nd           | Web:      www.OpenFOAM.org                      |
|    \\/     M anipulation  |                                                 |
\*---------------------------------------------------------------------------*/
FoamFile
{
    version     2.0;
    format      ascii;
    class       volVectorField;
    location    "10.2";
    object      Ua_0;
}
// * * * * * * * * * * * * * * * * * * * * * * * * * * * * * * * * * * * * * //

dimensions      [0 1 -1 0 0 0 0];

internalField   nonuniform List<vector> 
360
(
(-6.23836e-33 -1.04586e-31 0)
(-1.21163e-09 -1.46157e-08 0)
(-2.43724e-09 -2.57093e-08 0)
(-3.46681e-09 -3.50579e-08 0)
(-4.45325e-09 -4.45495e-08 0)
(-5.42298e-09 -5.41301e-08 0)
(-6.35446e-09 -6.34843e-08 0)
(-7.24192e-09 -7.25749e-08 0)
(-8.09072e-09 -8.14636e-08 0)
(-8.90691e-09 -9.02049e-08 0)
(-9.69515e-09 -9.88407e-08 0)
(-1.04588e-08 -1.07401e-07 0)
(-1.12005e-08 -1.15908e-07 0)
(-1.19224e-08 -1.24383e-07 0)
(-1.26265e-08 -1.32847e-07 0)
(-1.33146e-08 -1.41319e-07 0)
(-1.39883e-08 -1.49819e-07 0)
(-1.46488e-08 -1.58363e-07 0)
(-1.52971e-08 -1.66964e-07 0)
(-1.59341e-08 -1.75636e-07 0)
(-1.65604e-08 -1.84391e-07 0)
(-1.71764e-08 -1.93238e-07 0)
(-1.77824e-08 -2.02188e-07 0)
(-1.83787e-08 -2.1125e-07 0)
(-1.89653e-08 -2.20429e-07 0)
(-1.95422e-08 -2.29734e-07 0)
(-2.0109e-08 -2.39168e-07 0)
(-2.06657e-08 -2.48736e-07 0)
(-2.12119e-08 -2.58444e-07 0)
(-2.17472e-08 -2.68293e-07 0)
(-2.2271e-08 -2.78285e-07 0)
(-2.27828e-08 -2.88423e-07 0)
(-2.3282e-08 -2.98707e-07 0)
(-2.37681e-08 -3.09138e-07 0)
(-2.42403e-08 -3.19717e-07 0)
(-2.4698e-08 -3.30441e-07 0)
(-2.51404e-08 -3.41311e-07 0)
(-2.55667e-08 -3.52324e-07 0)
(-2.59763e-08 -3.63481e-07 0)
(-2.63684e-08 -3.74778e-07 0)
(-2.67421e-08 -3.86213e-07 0)
(-2.70968e-08 -3.97785e-07 0)
(-2.74316e-08 -4.09488e-07 0)
(-2.77457e-08 -4.2132e-07 0)
(-2.80384e-08 -4.33279e-07 0)
(-2.83089e-08 -4.45362e-07 0)
(-2.85565e-08 -4.57565e-07 0)
(-2.87803e-08 -4.69881e-07 0)
(-2.89797e-08 -4.82304e-07 0)
(-2.91539e-08 -4.94837e-07 0)
(-2.93023e-08 -5.07474e-07 0)
(-2.94241e-08 -5.20206e-07 0)
(-2.95188e-08 -5.33031e-07 0)
(-2.95855e-08 -5.45944e-07 0)
(-2.96238e-08 -5.58939e-07 0)
(-2.9633e-08 -5.72013e-07 0)
(-2.96126e-08 -5.8516e-07 0)
(-2.95619e-08 -5.98374e-07 0)
(-2.94805e-08 -6.1165e-07 0)
(-2.93679e-08 -6.24977e-07 0)
(-2.92236e-08 -6.38353e-07 0)
(-2.90473e-08 -6.51775e-07 0)
(-2.88384e-08 -6.65237e-07 0)
(-2.85966e-08 -6.78735e-07 0)
(-2.83216e-08 -6.9226e-07 0)
(-2.80131e-08 -7.05805e-07 0)
(-2.76708e-08 -7.19365e-07 0)
(-2.72945e-08 -7.32936e-07 0)
(-2.6884e-08 -7.46508e-07 0)
(-2.64392e-08 -7.60072e-07 0)
(-2.59601e-08 -7.73624e-07 0)
(-2.54464e-08 -7.87165e-07 0)
(-2.48981e-08 -8.00683e-07 0)
(-2.43153e-08 -8.14172e-07 0)
(-2.36977e-08 -8.2763e-07 0)
(-2.30455e-08 -8.41052e-07 0)
(-2.23588e-08 -8.54431e-07 0)
(-2.16378e-08 -8.67756e-07 0)
(-2.08829e-08 -8.81021e-07 0)
(-2.00942e-08 -8.94221e-07 0)
(-1.9272e-08 -9.07349e-07 0)
(-1.84166e-08 -9.20398e-07 0)
(-1.75283e-08 -9.33367e-07 0)
(-1.66073e-08 -9.4625e-07 0)
(-1.56538e-08 -9.59044e-07 0)
(-1.46682e-08 -9.71744e-07 0)
(-1.36509e-08 -9.84344e-07 0)
(-1.26024e-08 -9.96839e-07 0)
(-1.15234e-08 -1.00922e-06 0)
(-1.04145e-08 -1.02148e-06 0)
(-9.27633e-09 -1.03362e-06 0)
(-8.10954e-09 -1.04563e-06 0)
(-6.91464e-09 -1.0575e-06 0)
(-5.69207e-09 -1.06924e-06 0)
(-4.44225e-09 -1.08084e-06 0)
(-3.16565e-09 -1.0923e-06 0)
(-1.86271e-09 -1.10362e-06 0)
(-5.33951e-10 -1.11478e-06 0)
(8.20112e-10 -1.1258e-06 0)
(2.19898e-09 -1.13667e-06 0)
(3.6022e-09 -1.14738e-06 0)
(5.02943e-09 -1.15793e-06 0)
(6.48041e-09 -1.16832e-06 0)
(7.95501e-09 -1.17856e-06 0)
(9.45323e-09 -1.18863e-06 0)
(1.09751e-08 -1.19855e-06 0)
(1.2521e-08 -1.20831e-06 0)
(1.40911e-08 -1.21791e-06 0)
(1.5686e-08 -1.22736e-06 0)
(1.73064e-08 -1.23665e-06 0)
(1.8953e-08 -1.24579e-06 0)
(2.06271e-08 -1.25478e-06 0)
(2.233e-08 -1.26362e-06 0)
(2.40636e-08 -1.27232e-06 0)
(2.58302e-08 -1.28088e-06 0)
(2.76323e-08 -1.2893e-06 0)
(2.94732e-08 -1.2976e-06 0)
(3.13566e-08 -1.30578e-06 0)
(3.32861e-08 -1.31384e-06 0)
(3.52654e-08 -1.32178e-06 0)
(3.72971e-08 -1.32961e-06 0)
(3.93822e-08 -1.33731e-06 0)
(4.15187e-08 -1.34486e-06 0)
(4.37008e-08 -1.35223e-06 0)
(4.59183e-08 -1.35938e-06 0)
(4.81567e-08 -1.36626e-06 0)
(5.03997e-08 -1.37282e-06 0)
(5.26331e-08 -1.37902e-06 0)
(5.48496e-08 -1.38486e-06 0)
(5.70551e-08 -1.39037e-06 0)
(5.92753e-08 -1.3956e-06 0)
(6.15635e-08 -1.40067e-06 0)
(6.40102e-08 -1.40576e-06 0)
(6.67545e-08 -1.41108e-06 0)
(6.99835e-08 -1.4169e-06 0)
(7.38862e-08 -1.42342e-06 0)
(7.8501e-08 -1.43052e-06 0)
(8.34498e-08 -1.43752e-06 0)
(8.77842e-08 -1.44315e-06 0)
(9.04361e-08 -1.44634e-06 0)
(9.12962e-08 -1.4473e-06 0)
(9.13962e-08 -1.44739e-06 0)
(9.13995e-08 -1.44747e-06 0)
(-1.92349e-07 -2.30909e-06 0)
(-6.06798e-07 -3.32806e-06 0)
(-1.04345e-06 -4.46748e-06 0)
(-1.47993e-06 -5.83584e-06 0)
(-1.83139e-06 -7.39571e-06 0)
(-1.26294e-06 -1.06247e-05 0)
(0.0337672 -0.00538983 0)
(0.0756235 -0.00789605 0)
(0.105386 -0.0101498 0)
(0.128215 -0.0118579 0)
(0.147072 -0.0130686 0)
(0.163425 -0.0139344 0)
(0.178058 -0.0145521 0)
(0.191433 -0.0149802 0)
(0.203843 -0.0152591 0)
(0.215486 -0.015419 0)
(0.226498 -0.0154838 0)
(0.236981 -0.0154719 0)
(0.247011 -0.0153984 0)
(0.256647 -0.015275 0)
(0.265935 -0.0151113 0)
(0.274914 -0.0149149 0)
(0.283613 -0.014692 0)
(0.292059 -0.0144474 0)
(0.300273 -0.014185 0)
(0.308275 -0.013908 0)
(0.31608 -0.013619 0)
(0.323702 -0.01332 0)
(0.331154 -0.0130126 0)
(0.338446 -0.0126984 0)
(0.345588 -0.0123783 0)
(0.352588 -0.0120535 0)
(0.359455 -0.0117246 0)
(0.366194 -0.0113925 0)
(0.372811 -0.0110576 0)
(0.379313 -0.0107206 0)
(0.385703 -0.010382 0)
(0.391986 -0.0100421 0)
(0.398164 -0.00970145 0)
(0.404242 -0.00936043 0)
(0.410221 -0.00901946 0)
(0.416104 -0.00867895 0)
(0.421892 -0.00833935 0)
(0.427585 -0.00800112 0)
(0.433185 -0.00766478 0)
(0.438691 -0.00733089 0)
(0.444103 -0.00700012 0)
(0.44942 -0.0066732 0)
(0.454641 -0.00635102 0)
(0.459765 -0.00603458 0)
(0.464789 -0.00572512 0)
(0.469711 -0.00542402 0)
(0.474529 -0.00513286 0)
(0.47924 -0.00485326 0)
(0.48384 -0.00458679 0)
(0.488328 -0.00433464 0)
(0.492699 -0.00409739 0)
(0.496951 -0.00387466 0)
(0.501123 -0.00366282 0)
(0.505252 -0.0034574 0)
(0.509333 -0.00325461 0)
(0.513363 -0.0030495 0)
(0.517337 -0.00283675 0)
(0.52125 -0.00261175 0)
(0.525097 -0.00237133 0)
(0.528874 -0.00211391 0)
(0.532574 -0.00183917 0)
(0.536191 -0.00154776 0)
(0.539718 -0.00124128 0)
(0.54315 -0.000922365 0)
(0.546479 -0.000594921 0)
(0.549699 -0.000264314 0)
(0.552803 6.25882e-05 0)
(0.555785 0.000377742 0)
(0.558641 0.000672706 0)
(0.561368 0.000939806 0)
(0.563965 0.00117335 0)
(0.56643 0.00137048 0)
(0.568766 0.00153129 0)
(0.570973 0.00165833 0)
(0.573054 0.00175567 0)
(0.575011 0.00182794 0)
(0.576846 0.00187959 0)
(0.578559 0.00191464 0)
(0.580153 0.00193589 0)
(0.581628 0.00194609 0)
(0.582985 0.0019458 0)
(0.584221 0.00193691 0)
(0.585338 0.00191734 0)
(0.586327 0.00188903 0)
(0.587185 0.00184504 0)
(0.587895 0.00178842 0)
(0.588442 0.00169721 0)
(0.589013 0.00155649 0)
(0.663088 0.000288846 0)
(0.665056 0.00164008 0)
(0.66617 0.000613444 0)
(0.666968 0.00106112 0)
(0.667507 0.000116295 0)
(0.667786 0.000872893 0)
(0.66785 -0.000693976 0)
(0.667713 0.000633111 0)
(0.667382 -0.00152389 0)
(0.66692 0.000870289 0)
(0.66625 -0.00281471 0)
(0.665538 0.00185911 0)
(0.664552 -0.0047341 0)
(0.663632 0.00395915 0)
(0.661923 -0.00841454 0)
(0.659212 -0.0372622 0)
(0.657952 -0.0395643 0)
(0.656617 -0.0394987 0)
(0.65529 -0.039504 0)
(0.653911 -0.0395047 0)
(0.652495 -0.0395056 0)
(0.651052 -0.0395065 0)
(0.649591 -0.0395074 0)
(0.648122 -0.039508 0)
(0.646656 -0.0395085 0)
(0.645203 -0.0395088 0)
(0.643778 -0.0395087 0)
(0.642393 -0.0395083 0)
(0.641062 -0.0395076 0)
(0.639803 -0.0395064 0)
(0.638632 -0.0395047 0)
(0.637571 -0.0395023 0)
(0.63664 -0.0394992 0)
(0.635863 -0.039495 0)
(0.635281 -0.0394873 0)
(0.635016 -0.0394773 0)
(0.634979 -0.0394721 0)
(0.634978 -0.0394713 0)
(0.634978 -0.0394713 0)
(0.634978 -0.0394713 0)
(0.634978 -0.0394713 0)
(0.634978 -0.0394713 0)
(0.634978 -0.0394713 0)
(0.634978 -0.0394713 0)
(0.634978 -0.0394713 0)
(0.634978 -0.0394713 0)
(0.634978 -0.0394713 0)
(0.634978 -0.0394713 0)
(0.634978 -0.0394713 0)
(0.634978 -0.0394713 0)
(0.634978 -0.0394713 0)
(0.634978 -0.0394713 0)
(0.634978 -0.0394713 0)
(0.634978 -0.0394713 0)
(0.634978 -0.0394713 0)
(0.634978 -0.0394713 0)
(0.634978 -0.0394713 0)
(0.634978 -0.0394713 0)
(0.634978 -0.0394713 0)
(0.634978 -0.0394713 0)
(0.634978 -0.0394713 0)
(0.634978 -0.0394713 0)
(0.634978 -0.0394713 0)
(0.634978 -0.0394713 0)
(0.634978 -0.0394713 0)
(0.634978 -0.0394713 0)
(0.634978 -0.0394713 0)
(0.634978 -0.0394713 0)
(0.634978 -0.0394713 0)
(0.634978 -0.0394713 0)
(0.634978 -0.0394713 0)
(0.634978 -0.0394713 0)
(0.634978 -0.0394713 0)
(0.634978 -0.0394713 0)
(0.634978 -0.0394713 0)
(0.634978 -0.0394713 0)
(0.634978 -0.0394713 0)
(0.634978 -0.0394713 0)
(0.634978 -0.0394713 0)
(0.634978 -0.0394713 0)
(0.634978 -0.0394713 0)
(0.634978 -0.0394713 0)
(0.634978 -0.0394713 0)
(0.634978 -0.0394713 0)
(0.634978 -0.0394713 0)
(0.634978 -0.0394713 0)
(0.634978 -0.0394713 0)
(0.634978 -0.0394713 0)
(0.634978 -0.0394713 0)
(0.634978 -0.0394713 0)
(0.634978 -0.0394713 0)
(0.634978 -0.0394713 0)
(0.634978 -0.0394713 0)
(0.634978 -0.0394713 0)
(0.634978 -0.0394713 0)
(0.634978 -0.0394713 0)
(0.634978 -0.0394713 0)
(0.634978 -0.0394713 0)
(0.634978 -0.0394713 0)
(0.634978 -0.0394713 0)
(0.634978 -0.0394713 0)
(0.634978 -0.0394713 0)
(0.634978 -0.0394713 0)
(0.634978 -0.0394713 0)
(0.634978 -0.0394713 0)
(0.634978 -0.0394713 0)
(0.634978 -0.0394713 0)
(0.634978 -0.0394713 0)
(0.634978 -0.0394713 0)
(0.634978 -0.0394713 0)
(0.634978 -0.0394713 0)
(0.634978 -0.0394713 0)
(0.634978 -0.0394713 0)
(0.634978 -0.0394713 0)
(0.634978 -0.0394713 0)
(0.634978 -0.0394713 0)
(0.634978 -0.0394713 0)
(0.634978 -0.0394713 0)
(0.634978 -0.0394713 0)
(0.634978 -0.0394711 0)
(0.63498 -0.0394626 0)
(0.635015 -0.0391162 0)
(0.635827 -0.0223469 0)
)
;

boundaryField
{
    inandouthalf11
    {
        type            cyclic;
    }
    inandouthalf12
    {
        type            cyclic;
    }
    inandouthalf21
    {
        type            cyclic;
    }
    inandouthalf22
    {
        type            cyclic;
    }
    inandouthalf31
    {
        type            cyclic;
    }
    inandouthalf32
    {
        type            cyclic;
    }
    inandouthalf41
    {
        type            cyclic;
    }
    inandouthalf42
    {
        type            cyclic;
    }
    top
    {
        type            symmetryPlane;
    }
    walls
    {
        type            fixedValue;
        value           uniform (0 0 0);
    }
    frontAndBackPlanes
    {
        type            empty;
    }
}


// ************************************************************************* //
