/*--------------------------------*- C++ -*----------------------------------*\
| =========                 |                                                 |
| \\      /  F ield         | OpenFOAM: The Open Source CFD Toolbox           |
|  \\    /   O peration     | Version:  2.4.x                                 |
|   \\  /    A nd           | Web:      www.OpenFOAM.org                      |
|    \\/     M anipulation  |                                                 |
\*---------------------------------------------------------------------------*/
FoamFile
{
    version     2.0;
    format      ascii;
    class       volVectorField;
    location    "10.2";
    object      Ub_0;
}
// * * * * * * * * * * * * * * * * * * * * * * * * * * * * * * * * * * * * * //

dimensions      [0 1 -1 0 0 0 0];

internalField   nonuniform List<vector> 
360
(
(-0.000274018 6.13766e-09 0)
(-0.000272499 2.16338e-08 0)
(-0.000272293 3.93081e-08 0)
(-0.000272498 5.51597e-08 0)
(-0.000272596 7.02558e-08 0)
(-0.000272628 8.52016e-08 0)
(-0.000272668 9.98917e-08 0)
(-0.000272719 1.14225e-07 0)
(-0.000272771 1.28237e-07 0)
(-0.000272824 1.42007e-07 0)
(-0.000272877 1.55603e-07 0)
(-0.00027293 1.69074e-07 0)
(-0.000272984 1.82459e-07 0)
(-0.000273038 1.9579e-07 0)
(-0.000273092 2.091e-07 0)
(-0.000273147 2.22421e-07 0)
(-0.000273203 2.35781e-07 0)
(-0.000273259 2.49206e-07 0)
(-0.000273316 2.62718e-07 0)
(-0.000273374 2.76339e-07 0)
(-0.000273432 2.90085e-07 0)
(-0.000273491 3.03974e-07 0)
(-0.00027355 3.1802e-07 0)
(-0.00027361 3.32237e-07 0)
(-0.00027367 3.46637e-07 0)
(-0.000273732 3.61228e-07 0)
(-0.000273793 3.7602e-07 0)
(-0.000273856 3.91019e-07 0)
(-0.000273919 4.06232e-07 0)
(-0.000273983 4.21663e-07 0)
(-0.000274047 4.37314e-07 0)
(-0.000274113 4.53191e-07 0)
(-0.000274178 4.69291e-07 0)
(-0.000274246 4.85619e-07 0)
(-0.000274313 5.02173e-07 0)
(-0.000274381 5.18951e-07 0)
(-0.00027445 5.35952e-07 0)
(-0.000274519 5.53174e-07 0)
(-0.00027459 5.70617e-07 0)
(-0.00027466 5.88272e-07 0)
(-0.000274733 6.06139e-07 0)
(-0.000274806 6.24216e-07 0)
(-0.000274879 6.42491e-07 0)
(-0.000274954 6.60965e-07 0)
(-0.000275029 6.79631e-07 0)
(-0.000275105 6.98484e-07 0)
(-0.000275182 7.17519e-07 0)
(-0.00027526 7.36724e-07 0)
(-0.000275338 7.56093e-07 0)
(-0.000275419 7.75627e-07 0)
(-0.000275499 7.95312e-07 0)
(-0.000275581 8.15143e-07 0)
(-0.000275663 8.35111e-07 0)
(-0.000275747 8.55211e-07 0)
(-0.000275831 8.7543e-07 0)
(-0.000275917 8.95766e-07 0)
(-0.000276003 9.16206e-07 0)
(-0.000276092 9.36744e-07 0)
(-0.00027618 9.57369e-07 0)
(-0.00027627 9.78065e-07 0)
(-0.000276362 9.98834e-07 0)
(-0.000276453 1.01966e-06 0)
(-0.000276547 1.04054e-06 0)
(-0.000276642 1.06147e-06 0)
(-0.000276738 1.08243e-06 0)
(-0.000276835 1.10341e-06 0)
(-0.000276933 1.12441e-06 0)
(-0.000277033 1.14541e-06 0)
(-0.000277135 1.1664e-06 0)
(-0.000277237 1.18737e-06 0)
(-0.000277341 1.20831e-06 0)
(-0.000277447 1.22923e-06 0)
(-0.000277554 1.25009e-06 0)
(-0.000277663 1.2709e-06 0)
(-0.000277773 1.29164e-06 0)
(-0.000277885 1.31232e-06 0)
(-0.000277999 1.33292e-06 0)
(-0.000278114 1.35342e-06 0)
(-0.000278231 1.37382e-06 0)
(-0.00027835 1.3941e-06 0)
(-0.000278471 1.41425e-06 0)
(-0.000278594 1.43427e-06 0)
(-0.000278719 1.45415e-06 0)
(-0.000278846 1.47389e-06 0)
(-0.000278975 1.49346e-06 0)
(-0.000279106 1.51288e-06 0)
(-0.00027924 1.53212e-06 0)
(-0.000279376 1.55119e-06 0)
(-0.000279514 1.57006e-06 0)
(-0.000279655 1.58873e-06 0)
(-0.000279798 1.60719e-06 0)
(-0.000279944 1.62544e-06 0)
(-0.000280093 1.64345e-06 0)
(-0.000280245 1.66124e-06 0)
(-0.000280399 1.6788e-06 0)
(-0.000280557 1.69611e-06 0)
(-0.000280718 1.71319e-06 0)
(-0.000280883 1.73001e-06 0)
(-0.00028105 1.74658e-06 0)
(-0.000281222 1.7629e-06 0)
(-0.000281397 1.77895e-06 0)
(-0.000281576 1.79473e-06 0)
(-0.000281759 1.81025e-06 0)
(-0.000281946 1.8255e-06 0)
(-0.000282137 1.84047e-06 0)
(-0.000282333 1.85518e-06 0)
(-0.000282534 1.86961e-06 0)
(-0.000282739 1.88378e-06 0)
(-0.00028295 1.89768e-06 0)
(-0.000283166 1.91131e-06 0)
(-0.000283387 1.92468e-06 0)
(-0.000283614 1.93778e-06 0)
(-0.000283848 1.95063e-06 0)
(-0.000284087 1.96322e-06 0)
(-0.000284333 1.97557e-06 0)
(-0.000284586 1.98767e-06 0)
(-0.000284847 1.99955e-06 0)
(-0.000285115 2.0112e-06 0)
(-0.000285391 2.02262e-06 0)
(-0.000285675 2.03383e-06 0)
(-0.000285968 2.04481e-06 0)
(-0.000286271 2.05555e-06 0)
(-0.000286584 2.06601e-06 0)
(-0.000286908 2.07613e-06 0)
(-0.000287242 2.08586e-06 0)
(-0.000287589 2.09512e-06 0)
(-0.000287949 2.10384e-06 0)
(-0.000288323 2.11196e-06 0)
(-0.000288712 2.11947e-06 0)
(-0.000289118 2.12642e-06 0)
(-0.000289541 2.13289e-06 0)
(-0.000289982 2.13907e-06 0)
(-0.000290443 2.14519e-06 0)
(-0.000290929 2.15159e-06 0)
(-0.000291446 2.1586e-06 0)
(-0.000291994 2.16644e-06 0)
(-0.00029257 2.1748e-06 0)
(-0.000293186 2.18257e-06 0)
(-0.000293871 2.18805e-06 0)
(-0.00029466 2.19012e-06 0)
(-0.000295518 2.18876e-06 0)
(-0.000296514 2.15395e-06 0)
(-0.000305226 2.50699e-06 0)
(-0.000305543 3.48987e-06 0)
(-0.000307737 5.26909e-06 0)
(-0.00031141 3.09976e-06 0)
(-0.000315492 2.36722e-05 0)
(-0.000321909 -4.59242e-05 0)
(-0.000409701 0.000194891 0)
(0.0352195 0.0023133 0)
(0.0752395 0.000972101 0)
(0.102828 0.00102078 0)
(0.124377 0.000818198 0)
(0.142468 0.000690308 0)
(0.158325 0.00059564 0)
(0.172618 0.000520705 0)
(0.185749 0.000458934 0)
(0.197978 0.000406948 0)
(0.209482 0.000362536 0)
(0.220389 0.00032413 0)
(0.23079 0.000290603 0)
(0.240757 0.00026112 0)
(0.250344 0.000235044 0)
(0.259594 0.000211875 0)
(0.268544 0.000191211 0)
(0.277223 0.000172721 0)
(0.285655 0.000156131 0)
(0.293862 0.00014121 0)
(0.30186 0.000127763 0)
(0.309665 0.000115623 0)
(0.317291 0.000104644 0)
(0.32475 9.47025e-05 0)
(0.332051 8.56899e-05 0)
(0.339205 7.75113e-05 0)
(0.34622 7.00834e-05 0)
(0.353102 6.33329e-05 0)
(0.359859 5.7195e-05 0)
(0.366497 5.16122e-05 0)
(0.373021 4.65331e-05 0)
(0.379436 4.19121e-05 0)
(0.385746 3.77082e-05 0)
(0.391957 3.38844e-05 0)
(0.39807 3.04078e-05 0)
(0.40409 2.72482e-05 0)
(0.41002 2.43787e-05 0)
(0.415863 2.17745e-05 0)
(0.421621 1.94134e-05 0)
(0.427297 1.7275e-05 0)
(0.432893 1.53408e-05 0)
(0.438411 1.35939e-05 0)
(0.443853 1.20188e-05 0)
(0.449221 1.06014e-05 0)
(0.454516 9.32875e-06 0)
(0.45974 8.18914e-06 0)
(0.464893 7.17173e-06 0)
(0.469978 6.26656e-06 0)
(0.474996 5.46439e-06 0)
(0.479947 4.75645e-06 0)
(0.484832 4.13431e-06 0)
(0.489653 3.5896e-06 0)
(0.494409 3.11402e-06 0)
(0.49915 2.69508e-06 0)
(0.503922 2.323e-06 0)
(0.508723 1.9923e-06 0)
(0.513554 1.69751e-06 0)
(0.518412 1.43366e-06 0)
(0.523296 1.19677e-06 0)
(0.528204 9.83923e-07 0)
(0.533135 7.93111e-07 0)
(0.538086 6.22893e-07 0)
(0.543055 4.72171e-07 0)
(0.548038 3.40084e-07 0)
(0.553033 2.25973e-07 0)
(0.558036 1.29376e-07 0)
(0.563042 4.99662e-08 0)
(0.568047 -1.25751e-08 0)
(0.573046 -5.87989e-08 0)
(0.578031 -8.97671e-08 0)
(0.582997 -1.07252e-07 0)
(0.587935 -1.13716e-07 0)
(0.592837 -1.12029e-07 0)
(0.597692 -1.05032e-07 0)
(0.602489 -9.51416e-08 0)
(0.607217 -8.41396e-08 0)
(0.61186 -7.31693e-08 0)
(0.616405 -6.28653e-08 0)
(0.620833 -5.35149e-08 0)
(0.625126 -4.5199e-08 0)
(0.629263 -3.78946e-08 0)
(0.633223 -3.15257e-08 0)
(0.636983 -2.60125e-08 0)
(0.640518 -2.12608e-08 0)
(0.643804 -1.71914e-08 0)
(0.646819 -1.37247e-08 0)
(0.649542 -1.08796e-08 0)
(0.651957 -8.55788e-09 0)
(0.654051 -5.92038e-09 0)
(0.655821 -4.01986e-09 0)
(0.65727 -2.99397e-09 0)
(0.658407 -1.74372e-09 0)
(0.659248 -9.17874e-10 0)
(0.659816 -4.15583e-10 0)
(0.660134 -1.42287e-10 0)
(0.660227 -2.71604e-12 0)
(0.660117 5.44202e-11 0)
(0.659827 6.73579e-11 0)
(0.659376 6.22307e-11 0)
(0.658781 4.56028e-11 0)
(0.658056 3.24912e-11 0)
(0.657216 1.69896e-11 0)
(0.656271 8.642e-12 0)
(0.655232 6.0735e-12 0)
(0.654108 2.02843e-12 0)
(0.65291 -3.1433e-12 0)
(0.651645 -2.91841e-12 0)
(0.650323 -2.42223e-12 0)
(0.648953 -2.28127e-12 0)
(0.647544 -2.22224e-12 0)
(0.646104 -2.14072e-12 0)
(0.644644 -2.04408e-12 0)
(0.643174 -1.94924e-12 0)
(0.641705 -1.86182e-12 0)
(0.640247 -1.74184e-12 0)
(0.638814 -1.47921e-12 0)
(0.637419 -1.32484e-12 0)
(0.636075 -6.80033e-12 0)
(0.6348 1.6999e-11 0)
(0.633611 -4.39675e-11 0)
(0.632527 7.76485e-11 0)
(0.631572 -1.29885e-10 0)
(0.63077 1.89011e-10 0)
(0.63015 -2.63754e-10 0)
(0.629824 3.40764e-10 0)
(0.629775 -4.2708e-10 0)
(0.629774 5.1095e-10 0)
(0.629774 -6.0136e-10 0)
(0.629774 6.88964e-10 0)
(0.629774 -7.82887e-10 0)
(0.629774 8.74452e-10 0)
(0.629774 -9.72155e-10 0)
(0.629774 1.06798e-09 0)
(0.629774 -1.16973e-09 0)
(0.629774 1.27002e-09 0)
(0.629774 -1.37605e-09 0)
(0.629774 1.48102e-09 0)
(0.629774 -1.5915e-09 0)
(0.629774 1.70133e-09 0)
(0.629774 -1.81633e-09 0)
(0.629774 1.93123e-09 0)
(0.629774 -2.05091e-09 0)
(0.629774 2.17094e-09 0)
(0.629774 -2.29536e-09 0)
(0.629774 2.42064e-09 0)
(0.629774 -2.54985e-09 0)
(0.629774 2.68043e-09 0)
(0.629774 -2.81446e-09 0)
(0.629774 2.95036e-09 0)
(0.629774 -3.08937e-09 0)
(0.629774 3.23036e-09 0)
(0.629774 -3.37439e-09 0)
(0.629774 3.52048e-09 0)
(0.629774 -3.66945e-09 0)
(0.629774 3.82054e-09 0)
(0.629774 -3.97438e-09 0)
(0.629774 4.13035e-09 0)
(0.629774 -4.28893e-09 0)
(0.629774 4.44961e-09 0)
(0.629774 -4.61275e-09 0)
(0.629774 4.77792e-09 0)
(0.629774 -4.94535e-09 0)
(0.629774 4.49143e-09 0)
(0.629774 -4.55903e-09 0)
(0.629774 4.6258e-09 0)
(0.629774 -4.69178e-09 0)
(0.629774 4.757e-09 0)
(0.629774 -4.82135e-09 0)
(0.629774 4.88499e-09 0)
(0.629774 -4.94768e-09 0)
(0.629774 5.00972e-09 0)
(0.629774 -5.07074e-09 0)
(0.629774 5.13116e-09 0)
(0.629774 -5.19047e-09 0)
(0.629774 5.24925e-09 0)
(0.629774 -5.30682e-09 0)
(0.629774 5.36394e-09 0)
(0.629774 -5.41972e-09 0)
(0.629774 5.47516e-09 0)
(0.629774 -5.5291e-09 0)
(0.629774 5.58291e-09 0)
(0.629774 -5.63475e-09 0)
(0.629774 5.68721e-09 0)
(0.629774 -5.73671e-09 0)
(0.629774 5.78782e-09 0)
(0.629774 -5.83493e-09 0)
(0.629774 5.88461e-09 0)
(0.629774 -5.92933e-09 0)
(0.629774 5.97743e-09 0)
(0.629774 -6.01971e-09 0)
(0.629774 6.06619e-09 0)
(0.629774 -6.10599e-09 0)
(0.629774 6.15062e-09 0)
(0.629774 -6.18796e-09 0)
(0.629774 6.23055e-09 0)
(0.629774 -6.26545e-09 0)
(0.629774 6.30576e-09 0)
(0.629774 -6.338e-09 0)
(0.629774 6.3761e-09 0)
(0.629774 -6.40543e-09 0)
(0.629774 6.44101e-09 0)
(0.629774 -6.46733e-09 0)
(0.629774 6.50003e-09 0)
(0.629774 -6.5232e-09 0)
(0.629774 6.55256e-09 0)
(0.629774 -6.57215e-09 0)
(0.629774 6.59776e-09 0)
(0.629774 -6.61313e-09 0)
(0.629774 6.634e-09 0)
(0.629774 -6.64408e-09 0)
(0.629774 6.65832e-09 0)
(0.629774 -6.65994e-09 0)
)
;

boundaryField
{
    inandouthalf11
    {
        type            cyclic;
    }
    inandouthalf12
    {
        type            cyclic;
    }
    inandouthalf21
    {
        type            cyclic;
    }
    inandouthalf22
    {
        type            cyclic;
    }
    inandouthalf31
    {
        type            cyclic;
    }
    inandouthalf32
    {
        type            cyclic;
    }
    inandouthalf41
    {
        type            cyclic;
    }
    inandouthalf42
    {
        type            cyclic;
    }
    top
    {
        type            symmetryPlane;
    }
    walls
    {
        type            fixedValue;
        value           uniform (0 0 0);
    }
    frontAndBackPlanes
    {
        type            empty;
    }
}


// ************************************************************************* //
