/*--------------------------------*- C++ -*----------------------------------*\
| =========                 |                                                 |
| \\      /  F ield         | OpenFOAM: The Open Source CFD Toolbox           |
|  \\    /   O peration     | Version:  2.4.x                                 |
|   \\  /    A nd           | Web:      www.OpenFOAM.org                      |
|    \\/     M anipulation  |                                                 |
\*---------------------------------------------------------------------------*/
FoamFile
{
    version     2.0;
    format      ascii;
    class       volVectorField;
    location    "10.2";
    object      Ur;
}
// * * * * * * * * * * * * * * * * * * * * * * * * * * * * * * * * * * * * * //

dimensions      [0 1 -1 0 0 0 0];

internalField   nonuniform List<vector> 
360
(
(-0.000274029 6.13714e-09 0)
(-0.000272509 3.62465e-08 0)
(-0.000272301 6.5012e-08 0)
(-0.000272506 9.02103e-08 0)
(-0.000272603 1.14796e-07 0)
(-0.000272634 1.39321e-07 0)
(-0.000272672 1.63363e-07 0)
(-0.000272722 1.86785e-07 0)
(-0.000272774 2.09684e-07 0)
(-0.000272826 2.32192e-07 0)
(-0.000272878 2.54422e-07 0)
(-0.000272931 2.7645e-07 0)
(-0.000272983 2.98338e-07 0)
(-0.000273037 3.20142e-07 0)
(-0.000273091 3.41912e-07 0)
(-0.000273145 3.63702e-07 0)
(-0.0002732 3.85558e-07 0)
(-0.000273256 4.07523e-07 0)
(-0.000273312 4.29632e-07 0)
(-0.000273369 4.51921e-07 0)
(-0.000273426 4.74417e-07 0)
(-0.000273484 4.97148e-07 0)
(-0.000273543 5.2014e-07 0)
(-0.000273602 5.43413e-07 0)
(-0.000273662 5.66987e-07 0)
(-0.000273723 5.90878e-07 0)
(-0.000273784 6.15097e-07 0)
(-0.000273846 6.39659e-07 0)
(-0.000273909 6.64574e-07 0)
(-0.000273972 6.89848e-07 0)
(-0.000274036 7.15486e-07 0)
(-0.000274101 7.41494e-07 0)
(-0.000274166 7.67872e-07 0)
(-0.000274233 7.94624e-07 0)
(-0.000274299 8.2175e-07 0)
(-0.000274367 8.49246e-07 0)
(-0.000274435 8.7711e-07 0)
(-0.000274505 9.05337e-07 0)
(-0.000274575 9.33931e-07 0)
(-0.000274645 9.62875e-07 0)
(-0.000274717 9.9217e-07 0)
(-0.00027479 1.02181e-06 0)
(-0.000274863 1.05178e-06 0)
(-0.000274937 1.08208e-06 0)
(-0.000275012 1.1127e-06 0)
(-0.000275088 1.14363e-06 0)
(-0.000275165 1.17486e-06 0)
(-0.000275242 1.20637e-06 0)
(-0.000275321 1.23815e-06 0)
(-0.000275401 1.27021e-06 0)
(-0.000275481 1.30253e-06 0)
(-0.000275562 1.33508e-06 0)
(-0.000275645 1.36787e-06 0)
(-0.000275729 1.40087e-06 0)
(-0.000275813 1.43408e-06 0)
(-0.000275899 1.46748e-06 0)
(-0.000275985 1.50106e-06 0)
(-0.000276073 1.5348e-06 0)
(-0.000276162 1.5687e-06 0)
(-0.000276251 1.60271e-06 0)
(-0.000276343 1.63685e-06 0)
(-0.000276435 1.67109e-06 0)
(-0.000276529 1.70543e-06 0)
(-0.000276624 1.73984e-06 0)
(-0.000276721 1.77432e-06 0)
(-0.000276818 1.80884e-06 0)
(-0.000276917 1.84339e-06 0)
(-0.000277017 1.87795e-06 0)
(-0.000277119 1.91251e-06 0)
(-0.000277221 1.94703e-06 0)
(-0.000277326 1.98152e-06 0)
(-0.000277433 2.01597e-06 0)
(-0.00027754 2.05034e-06 0)
(-0.00027765 2.08463e-06 0)
(-0.00027776 2.11883e-06 0)
(-0.000277873 2.15292e-06 0)
(-0.000277987 2.18689e-06 0)
(-0.000278103 2.22071e-06 0)
(-0.000278221 2.25437e-06 0)
(-0.000278341 2.28784e-06 0)
(-0.000278463 2.32112e-06 0)
(-0.000278587 2.35418e-06 0)
(-0.000278712 2.38702e-06 0)
(-0.00027884 2.41963e-06 0)
(-0.00027897 2.452e-06 0)
(-0.000279103 2.4841e-06 0)
(-0.000279237 2.51594e-06 0)
(-0.000279374 2.5475e-06 0)
(-0.000279514 2.57875e-06 0)
(-0.000279655 2.60968e-06 0)
(-0.0002798 2.64027e-06 0)
(-0.000279947 2.67051e-06 0)
(-0.000280097 2.7004e-06 0)
(-0.00028025 2.72992e-06 0)
(-0.000280406 2.75907e-06 0)
(-0.000280565 2.78784e-06 0)
(-0.000280728 2.81623e-06 0)
(-0.000280893 2.84422e-06 0)
(-0.000281063 2.8718e-06 0)
(-0.000281235 2.89898e-06 0)
(-0.000281412 2.92573e-06 0)
(-0.000281592 2.95207e-06 0)
(-0.000281776 2.97797e-06 0)
(-0.000281965 3.00345e-06 0)
(-0.000282158 3.0285e-06 0)
(-0.000282355 3.05312e-06 0)
(-0.000282557 3.07731e-06 0)
(-0.000282765 3.10108e-06 0)
(-0.000282977 3.12442e-06 0)
(-0.000283194 3.14734e-06 0)
(-0.000283417 3.16984e-06 0)
(-0.000283646 3.19193e-06 0)
(-0.000283881 3.21362e-06 0)
(-0.000284123 3.23491e-06 0)
(-0.000284371 3.25582e-06 0)
(-0.000284626 3.27635e-06 0)
(-0.000284888 3.29652e-06 0)
(-0.000285158 3.31634e-06 0)
(-0.000285435 3.33583e-06 0)
(-0.000285722 3.35498e-06 0)
(-0.000286017 3.37379e-06 0)
(-0.000286322 3.39223e-06 0)
(-0.000286637 3.41023e-06 0)
(-0.000286963 3.42773e-06 0)
(-0.0002873 3.44461e-06 0)
(-0.000287649 3.46075e-06 0)
(-0.000288011 3.47602e-06 0)
(-0.000288387 3.49035e-06 0)
(-0.000288779 3.50371e-06 0)
(-0.000289187 3.51615e-06 0)
(-0.000289612 3.52786e-06 0)
(-0.000290055 3.53912e-06 0)
(-0.000290519 3.55033e-06 0)
(-0.000291007 3.56205e-06 0)
(-0.000291527 3.57489e-06 0)
(-0.000292079 3.58925e-06 0)
(-0.000292661 3.60473e-06 0)
(-0.000293281 3.6195e-06 0)
(-0.000293971 3.63061e-06 0)
(-0.000294762 3.63587e-06 0)
(-0.000295621 3.63547e-06 0)
(-0.000296617 3.60081e-06 0)
(-0.000305329 3.95301e-06 0)
(-0.000305362 5.79242e-06 0)
(-0.000307142 8.58582e-06 0)
(-0.000310379 7.5504e-06 0)
(-0.000314024 2.94901e-05 0)
(-0.000320091 -3.85286e-05 0)
(-0.00040857 0.000205603 0)
(0.00144461 0.00770565 0)
(-0.000387323 0.00887217 0)
(-0.00256015 0.0111763 0)
(-0.00383938 0.0126823 0)
(-0.00460582 0.0137649 0)
(-0.0051006 0.0145354 0)
(-0.00544059 0.0150775 0)
(-0.00568501 0.0154433 0)
(-0.00586638 0.0156698 0)
(-0.00600388 0.0157851 0)
(-0.00610957 0.0158113 0)
(-0.00619142 0.0157658 0)
(-0.00625491 0.0156627 0)
(-0.00630398 0.0155133 0)
(-0.00634151 0.0153264 0)
(-0.00636963 0.0151094 0)
(-0.00638999 0.014868 0)
(-0.00640385 0.0146067 0)
(-0.00641223 0.0143294 0)
(-0.00641592 0.014039 0)
(-0.00641558 0.0137378 0)
(-0.00641176 0.0134278 0)
(-0.00640489 0.0131104 0)
(-0.00639534 0.0127871 0)
(-0.0063834 0.0124589 0)
(-0.00636928 0.0121266 0)
(-0.00635313 0.0117909 0)
(-0.00633499 0.0114526 0)
(-0.00631482 0.0111121 0)
(-0.00629245 0.01077 0)
(-0.00626762 0.0104267 0)
(-0.00623987 0.0100826 0)
(-0.00620861 0.00973809 0)
(-0.00617307 0.00939356 0)
(-0.00613227 0.0090494 0)
(-0.00608501 0.008706 0)
(-0.00602987 0.00836376 0)
(-0.00596518 0.00802314 0)
(-0.00588902 0.00768464 0)
(-0.0057992 0.00734879 0)
(-0.00569329 0.00701625 0)
(-0.00556858 0.00668773 0)
(-0.00542214 0.00636409 0)
(-0.00525079 0.00604636 0)
(-0.00505112 0.00573572 0)
(-0.00481955 0.00543357 0)
(-0.00455233 0.00514145 0)
(-0.00424559 0.00486101 0)
(-0.00389537 0.00459377 0)
(-0.00349765 0.00434094 0)
(-0.00304845 0.00410309 0)
(-0.00254388 0.00387983 0)
(-0.00197507 0.00366751 0)
(-0.00133255 0.00346167 0)
(-0.000612867 0.00325852 0)
(0.000187343 0.00305309 0)
(0.00107127 0.00284009 0)
(0.00204208 0.00261487 0)
(0.00310298 0.00237428 0)
(0.00425726 0.0021167 0)
(0.0055084 0.00184182 0)
(0.00685995 0.0015503 0)
(0.00831548 0.00124373 0)
(0.00987843 0.000924735 0)
(0.0115519 0.000597221 0)
(0.0133384 0.000266551 0)
(0.0152395 -6.041e-05 0)
(0.0172554 -0.000375622 0)
(0.0193845 -0.000670647 0)
(0.0216229 -0.000937811 0)
(0.0239645 -0.00117143 0)
(0.0264006 -0.00136862 0)
(0.0289202 -0.00152951 0)
(0.0315105 -0.00165663 0)
(0.034157 -0.00175403 0)
(0.0368438 -0.00182637 0)
(0.0395537 -0.00187807 0)
(0.0422681 -0.00191318 0)
(0.0449671 -0.00193448 0)
(0.04763 -0.00194473 0)
(0.0502339 -0.00194447 0)
(0.0527576 -0.00193562 0)
(0.0551768 -0.00191607 0)
(0.0574751 -0.00188779 0)
(0.0596326 -0.00184382 0)
(0.0616474 -0.00178721 0)
(0.0635149 -0.00169602 0)
(0.06504 -0.00155531 0)
(-0.00726694 -0.000289108 0)
(-0.00778687 -0.00163963 0)
(-0.0077635 -0.000613895 0)
(-0.00772064 -0.00106115 0)
(-0.00769148 -0.000116938 0)
(-0.00765224 -0.000872726 0)
(-0.00762371 0.000693335 0)
(-0.00759615 -0.000632468 0)
(-0.00755518 0.00152342 0)
(-0.00754425 -0.000869005 0)
(-0.00746925 0.00281475 0)
(-0.00748223 -0.0018575 0)
(-0.00733668 0.00473534 0)
(-0.00736198 -0.00395832 0)
(-0.00669154 0.00841997 0)
(-0.0051043 0.037263 0)
(-0.00504298 0.0395643 0)
(-0.00497268 0.0394987 0)
(-0.00496683 0.039504 0)
(-0.00495808 0.0395046 0)
(-0.00495212 0.0395056 0)
(-0.00494841 0.0395065 0)
(-0.00494696 0.0395074 0)
(-0.00494776 0.039508 0)
(-0.00495084 0.0395085 0)
(-0.00495624 0.0395087 0)
(-0.00496403 0.0395087 0)
(-0.00497431 0.0395083 0)
(-0.00498722 0.0395076 0)
(-0.00500291 0.0395064 0)
(-0.00502156 0.0395047 0)
(-0.00504341 0.0395023 0)
(-0.00506854 0.0394992 0)
(-0.00509371 0.039495 0)
(-0.00513127 0.0394873 0)
(-0.00519221 0.0394773 0)
(-0.00520387 0.0394721 0)
(-0.00520421 0.0394713 0)
(-0.00520421 0.0394713 0)
(-0.00520421 0.0394713 0)
(-0.00520421 0.0394713 0)
(-0.00520421 0.0394713 0)
(-0.00520421 0.0394713 0)
(-0.00520421 0.0394713 0)
(-0.00520421 0.0394713 0)
(-0.00520421 0.0394713 0)
(-0.00520421 0.0394713 0)
(-0.00520421 0.0394713 0)
(-0.00520421 0.0394713 0)
(-0.00520421 0.0394713 0)
(-0.00520421 0.0394713 0)
(-0.00520421 0.0394713 0)
(-0.00520421 0.0394713 0)
(-0.00520421 0.0394713 0)
(-0.00520421 0.0394713 0)
(-0.00520421 0.0394713 0)
(-0.00520421 0.0394713 0)
(-0.00520421 0.0394713 0)
(-0.00520421 0.0394713 0)
(-0.00520421 0.0394713 0)
(-0.00520421 0.0394713 0)
(-0.00520421 0.0394713 0)
(-0.00520421 0.0394713 0)
(-0.00520421 0.0394713 0)
(-0.00520421 0.0394713 0)
(-0.00520421 0.0394713 0)
(-0.00520421 0.0394713 0)
(-0.00520421 0.0394713 0)
(-0.00520421 0.0394713 0)
(-0.00520421 0.0394713 0)
(-0.00520421 0.0394713 0)
(-0.00520421 0.0394713 0)
(-0.00520421 0.0394713 0)
(-0.00520421 0.0394713 0)
(-0.00520421 0.0394713 0)
(-0.00520421 0.0394713 0)
(-0.00520421 0.0394713 0)
(-0.00520421 0.0394713 0)
(-0.00520421 0.0394713 0)
(-0.00520421 0.0394713 0)
(-0.00520421 0.0394713 0)
(-0.00520421 0.0394713 0)
(-0.00520421 0.0394713 0)
(-0.00520421 0.0394713 0)
(-0.00520421 0.0394713 0)
(-0.00520421 0.0394713 0)
(-0.00520421 0.0394713 0)
(-0.00520421 0.0394713 0)
(-0.00520421 0.0394713 0)
(-0.00520421 0.0394713 0)
(-0.00520421 0.0394713 0)
(-0.00520421 0.0394713 0)
(-0.00520421 0.0394713 0)
(-0.00520421 0.0394713 0)
(-0.00520421 0.0394713 0)
(-0.00520421 0.0394713 0)
(-0.00520421 0.0394713 0)
(-0.00520421 0.0394713 0)
(-0.00520421 0.0394713 0)
(-0.00520421 0.0394713 0)
(-0.00520421 0.0394713 0)
(-0.00520421 0.0394713 0)
(-0.00520421 0.0394713 0)
(-0.00520421 0.0394713 0)
(-0.00520421 0.0394713 0)
(-0.00520421 0.0394713 0)
(-0.00520421 0.0394713 0)
(-0.00520421 0.0394713 0)
(-0.00520421 0.0394713 0)
(-0.00520421 0.0394713 0)
(-0.00520421 0.0394713 0)
(-0.00520421 0.0394713 0)
(-0.00520421 0.0394713 0)
(-0.00520421 0.0394713 0)
(-0.00520421 0.0394713 0)
(-0.00520421 0.0394713 0)
(-0.00520421 0.0394713 0)
(-0.00520421 0.0394713 0)
(-0.00520422 0.0394713 0)
(-0.00520427 0.0394711 0)
(-0.00520571 0.0394625 0)
(-0.00524079 0.0391162 0)
(-0.00605316 0.0223468 0)
)
;

boundaryField
{
    inandouthalf11
    {
        type            cyclic;
    }
    inandouthalf12
    {
        type            cyclic;
    }
    inandouthalf21
    {
        type            cyclic;
    }
    inandouthalf22
    {
        type            cyclic;
    }
    inandouthalf31
    {
        type            cyclic;
    }
    inandouthalf32
    {
        type            cyclic;
    }
    inandouthalf41
    {
        type            cyclic;
    }
    inandouthalf42
    {
        type            cyclic;
    }
    top
    {
        type            symmetryPlane;
    }
    walls
    {
        type            calculated;
        value           uniform (0 0 0);
    }
    frontAndBackPlanes
    {
        type            empty;
    }
}


// ************************************************************************* //
