/*--------------------------------*- C++ -*----------------------------------*\
| =========                 |                                                 |
| \\      /  F ield         | OpenFOAM: The Open Source CFD Toolbox           |
|  \\    /   O peration     | Version:  2.4.x                                 |
|   \\  /    A nd           | Web:      www.OpenFOAM.org                      |
|    \\/     M anipulation  |                                                 |
\*---------------------------------------------------------------------------*/
FoamFile
{
    version     2.0;
    format      ascii;
    class       volScalarField;
    location    "5.7";
    object      alpha_0;
}
// * * * * * * * * * * * * * * * * * * * * * * * * * * * * * * * * * * * * * //

dimensions      [0 0 0 0 0 0 0];

internalField   nonuniform List<scalar> 
360
(
0.610629
0.611349
0.611473
0.611404
0.611354
0.611332
0.611312
0.611289
0.611265
0.611241
0.611216
0.611191
0.611165
0.61114
0.611115
0.611089
0.611063
0.611037
0.61101
0.610983
0.610957
0.610929
0.610902
0.610874
0.610847
0.610818
0.61079
0.610762
0.610733
0.610704
0.610674
0.610644
0.610614
0.610583
0.610552
0.610521
0.610489
0.610458
0.610426
0.610394
0.610363
0.610332
0.610301
0.610269
0.610238
0.610205
0.610171
0.610136
0.610096
0.610052
0.610004
0.609952
0.609899
0.609849
0.609808
0.609775
0.609749
0.609725
0.609702
0.609678
0.609652
0.609627
0.609599
0.609572
0.609543
0.609515
0.609485
0.609454
0.609422
0.609389
0.609354
0.609317
0.609281
0.609243
0.609203
0.609163
0.609122
0.609081
0.609038
0.608994
0.60895
0.608904
0.608857
0.608808
0.608758
0.608708
0.608656
0.608603
0.608548
0.608493
0.608437
0.608379
0.60832
0.608259
0.608198
0.608134
0.608069
0.608003
0.607935
0.607866
0.607795
0.607722
0.607647
0.607571
0.607493
0.607413
0.60733
0.607246
0.607159
0.607071
0.606979
0.606886
0.606789
0.60669
0.606588
0.606483
0.606375
0.606264
0.606149
0.606031
0.605909
0.605783
0.605653
0.605519
0.60538
0.605236
0.605088
0.604933
0.604773
0.604607
0.604433
0.604253
0.604065
0.603866
0.603655
0.603433
0.603199
0.602951
0.602676
0.60236
0.602019
0.601694
0.601306
0.600803
0.600181
0.599065
0.595436
0.586227
0.336822
0.229381
0.180222
0.144077
0.115043
0.0914619
0.0725435
0.0575833
0.0458717
0.0367445
0.0296303
0.0240654
0.0196878
0.0162204
0.0134537
0.0112292
0.00942757
0.0079579
0.00675093
0.00575339
0.00492401
0.00423061
0.00364787
0.00315577
0.00273834
0.00238274
0.00207864
0.00181761
0.00159278
0.0013985
0.00123011
0.00108375
0.000956187
0.000844729
0.000747108
0.000661412
0.000586019
0.000519541
0.00046078
0.000408694
0.000362369
0.00032101
0.000283941
0.000250615
0.000220596
0.000193554
0.00016926
0.000147584
0.000128418
0.000111576
9.67656e-05
8.36519e-05
7.19971e-05
6.1605e-05
5.23236e-05
4.41274e-05
3.7075e-05
3.10778e-05
2.59632e-05
2.16727e-05
1.81042e-05
1.51069e-05
1.26086e-05
1.05284e-05
8.78777e-06
7.35056e-06
6.1407e-06
5.12148e-06
4.28376e-06
3.57337e-06
2.97185e-06
2.47299e-06
2.05353e-06
1.70315e-06
1.40536e-06
1.15797e-06
9.53857e-07
7.79131e-07
6.34647e-07
5.14671e-07
4.14272e-07
3.3118e-07
2.63174e-07
2.06913e-07
1.63962e-07
1.23133e-07
9.53619e-08
6.55735e-08
9.87271e-08
4.49385e-08
2.6169e-08
2.4647e-09
0
7.38162e-25
4.86522e-25
4.27797e-25
3.77577e-25
3.2111e-25
2.47127e-25
1.57464e-25
6.75665e-26
2.872e-26
1.46544e-26
8.65955e-27
5.76755e-27
4.27212e-27
3.31243e-27
2.40525e-27
1.36838e-27
5.64446e-28
2.67748e-28
1.44613e-28
8.50628e-29
5.38911e-29
3.35279e-29
1.66759e-29
7.77219e-30
3.98914e-30
2.11141e-30
1.1174e-30
5.52564e-31
2.74338e-31
1.34849e-31
6.50755e-32
3.08047e-32
1.42938e-32
6.49677e-33
2.89024e-33
1.25749e-33
5.34613e-34
2.21893e-34
8.98242e-35
3.54277e-35
1.35991e-35
5.07438e-36
1.83827e-36
6.45641e-37
2.19528e-37
7.21451e-38
2.28763e-38
6.98559e-39
2.04999e-39
5.76815e-40
1.55224e-40
3.98373e-41
9.71999e-42
2.24669e-42
4.89972e-43
1.00358e-43
1.9203e-44
3.41129e-45
5.58468e-46
8.35115e-47
1.12831e-47
1.35859e-48
1.43224e-49
1.29065e-50
9.60898e-52
5.60867e-53
2.34242e-54
5.71943e-56
3.19849e-58
8.14506e-62
9.49368e-64
5.49175e-66
1.53382e-76
2.12056e-87
2.05379e-98
1.4545e-109
8.49234e-121
3.92672e-132
1.55395e-143
6.16181e-153
2.18421e-163
2.11698e-171
6.68466e-182
7.28232e-190
2.71295e-200
2.5052e-208
1.16342e-218
8.62543e-227
7.4954e-237
3.00434e-245
4.91237e-255
1.06462e-263
2.43971e-273
3.83543e-282
1.15522e-291
1.4027e-300
5.07867e-310
5.24123e-318
2.79177e-319
6.80328e-321
7.09478e-321
6.08689e-321
8.5424e-321
0
0
0
0
0
0
0
0
0
0
0
0
0
0
0
0
)
;

boundaryField
{
    inandouthalf11
    {
        type            cyclic;
    }
    inandouthalf12
    {
        type            cyclic;
    }
    inandouthalf21
    {
        type            cyclic;
    }
    inandouthalf22
    {
        type            cyclic;
    }
    inandouthalf31
    {
        type            cyclic;
    }
    inandouthalf32
    {
        type            cyclic;
    }
    inandouthalf41
    {
        type            cyclic;
    }
    inandouthalf42
    {
        type            cyclic;
    }
    top
    {
        type            symmetryPlane;
    }
    walls
    {
        type            zeroGradient;
    }
    frontAndBackPlanes
    {
        type            empty;
    }
}


// ************************************************************************* //
