/*--------------------------------*- C++ -*----------------------------------*\
| =========                 |                                                 |
| \\      /  F ield         | OpenFOAM: The Open Source CFD Toolbox           |
|  \\    /   O peration     | Version:  2.4.x                                 |
|   \\  /    A nd           | Web:      www.OpenFOAM.org                      |
|    \\/     M anipulation  |                                                 |
\*---------------------------------------------------------------------------*/
FoamFile
{
    version     2.0;
    format      ascii;
    class       volScalarField;
    location    "5.7";
    object      ddt0(alpha);
}
// * * * * * * * * * * * * * * * * * * * * * * * * * * * * * * * * * * * * * //

dimensions      [0 0 -1 0 0 0 0];

internalField   nonuniform List<scalar> 
360
(
0.000134235
0.000219814
0.00020167
0.000188295
0.000190759
0.000195797
0.000198453
0.00019949
0.000200061
0.000200963
0.000202264
0.000203694
0.000205133
0.000206447
0.000207696
0.00020896
0.000210258
0.00021156
0.000212832
0.000214127
0.000215283
0.000216457
0.000217582
0.000218676
0.000219766
0.000220882
0.00022207
0.000223496
0.000225138
0.000227055
0.000229261
0.000231834
0.000234395
0.000237094
0.000239188
0.000240526
0.000240524
0.000238984
0.000235787
0.000230828
0.000225188
0.000219582
0.000215398
0.000214622
0.00021888
0.000230617
0.000252634
0.000287999
0.000340038
0.000408325
0.000481522
0.000532481
0.000520786
0.000425806
0.000277426
0.000140132
5.42238e-05
1.61776e-05
3.64406e-06
3.65636e-07
-3.79038e-07
-5.47703e-07
-6.00448e-07
-6.20797e-07
-6.38388e-07
-6.57884e-07
-6.82154e-07
-7.04842e-07
-7.26369e-07
-7.58175e-07
-7.94283e-07
-8.13281e-07
-8.37325e-07
-8.64718e-07
-8.86143e-07
-9.0407e-07
-9.18777e-07
-9.40504e-07
-9.63442e-07
-9.85445e-07
-1.01048e-06
-1.03941e-06
-1.0671e-06
-1.09463e-06
-1.12147e-06
-1.14758e-06
-1.17253e-06
-1.19634e-06
-1.22159e-06
-1.2479e-06
-1.275e-06
-1.30407e-06
-1.33478e-06
-1.36619e-06
-1.39837e-06
-1.43119e-06
-1.46451e-06
-1.49845e-06
-1.53334e-06
-1.56933e-06
-1.60654e-06
-1.64519e-06
-1.68529e-06
-1.72685e-06
-1.76996e-06
-1.81471e-06
-1.86122e-06
-1.90962e-06
-1.96005e-06
-2.01264e-06
-2.06751e-06
-2.12476e-06
-2.18454e-06
-2.24697e-06
-2.31217e-06
-2.3803e-06
-2.45151e-06
-2.526e-06
-2.60396e-06
-2.6856e-06
-2.7711e-06
-2.86063e-06
-2.95437e-06
-3.05264e-06
-3.15614e-06
-3.26626e-06
-3.38494e-06
-3.51399e-06
-3.65356e-06
-3.80136e-06
-3.95548e-06
-4.12298e-06
-4.32485e-06
-4.57564e-06
-4.84994e-06
-5.10856e-06
-5.39155e-06
-5.85267e-06
-6.60461e-06
-7.34521e-06
-7.45132e-06
-7.9734e-06
-9.96864e-06
-1.25885e-05
-1.94477e-05
-7.62708e-05
-0.000132898
0.0248228
0.0520356
0.00904979
-0.00249223
-0.00762816
-0.0100943
-0.0109623
-0.0107803
-0.00996957
-0.00885466
-0.00765431
-0.00649779
-0.00544827
-0.00452891
-0.00374049
-0.00307296
-0.00251216
-0.00204325
-0.00165228
-0.00132693
-0.00105658
-0.000832134
-0.000646054
-0.000491991
-0.000364638
-0.000259577
-0.000173122
-0.000102197
-4.42363e-05
2.9013e-06
4.10038e-05
7.15665e-05
9.58389e-05
0.000114867
0.000129526
0.000140555
0.000148597
0.000154242
0.00015807
0.000160674
0.00016264
0.000164468
0.000166442
0.000168495
0.000170208
0.000170961
0.000169998
0.000166422
0.000159654
0.000150164
0.00013945
0.000129098
0.000119606
0.000110165
0.000100178
8.97998e-05
7.86936e-05
6.72705e-05
5.69714e-05
4.78285e-05
3.95104e-05
3.25404e-05
2.68088e-05
2.19453e-05
1.79682e-05
1.46524e-05
1.19481e-05
9.84403e-06
8.0239e-06
6.53573e-06
5.41033e-06
4.43394e-06
3.61282e-06
2.95704e-06
2.42893e-06
1.99405e-06
1.61184e-06
1.31816e-06
1.08344e-06
8.7525e-07
7.10775e-07
5.7672e-07
4.62792e-07
3.70507e-07
2.88745e-07
2.35697e-07
1.89059e-07
1.51106e-07
9.42918e-08
1.26845e-07
1.04282e-07
2.96164e-08
1.94061e-08
2.1264e-39
-6.20904e-24
-2.99449e-24
-1.81681e-24
-1.74336e-24
-2.08781e-24
-2.56829e-24
-2.97393e-24
-1.91793e-24
-6.52221e-25
-2.62795e-25
-1.22022e-25
-6.13353e-26
-3.35694e-26
-2.49538e-26
-2.54443e-26
-2.65339e-26
-1.17999e-26
-4.58718e-27
-2.13684e-27
-1.07799e-27
-5.99556e-28
-4.23856e-28
-3.04939e-28
-1.23891e-28
-5.9732e-29
-3.02458e-29
-1.6287e-29
-8.38456e-30
-4.12219e-30
-2.0331e-30
-9.84794e-31
-4.67916e-31
-2.17935e-31
-9.94286e-32
-4.44004e-32
-1.93912e-32
-8.27546e-33
-3.44789e-33
-1.4011e-33
-5.5474e-34
-2.13765e-34
-8.00744e-35
-2.91214e-35
-1.02682e-35
-3.50511e-36
-1.15648e-36
-3.68166e-37
-1.12875e-37
-3.32579e-38
-9.39596e-39
-2.53884e-39
-6.54269e-40
-1.60301e-40
-3.72079e-41
-8.14903e-42
-1.6763e-42
-3.2215e-43
-5.74816e-44
-9.45282e-45
-1.42005e-45
-1.92766e-46
-2.33236e-47
-2.47115e-48
-2.23856e-49
-1.67589e-50
-9.84088e-52
-4.1379e-53
-1.01896e-54
-5.81625e-57
-1.58277e-60
-1.86112e-62
-1.08601e-64
-2.9736e-75
-4.03108e-86
-3.83514e-97
-2.6685e-108
-1.53315e-119
-6.97579e-131
-2.72885e-142
-1.21751e-151
-4.26743e-162
-4.18626e-170
-1.30916e-180
-1.44007e-188
-5.33006e-199
-4.95401e-207
-2.29281e-217
-1.70568e-225
-1.48173e-235
-5.94107e-244
-9.71102e-254
-2.1053e-262
-4.82482e-272
-7.58452e-281
-2.28424e-290
-2.77383e-299
-1.00431e-308
6.53303e-320
0
0
0
0
0
0
0
0
0
0
0
0
0
0
0
0
0
0
0
0
0
)
;

boundaryField
{
    inandouthalf11
    {
        type            cyclic;
    }
    inandouthalf12
    {
        type            cyclic;
    }
    inandouthalf21
    {
        type            cyclic;
    }
    inandouthalf22
    {
        type            cyclic;
    }
    inandouthalf31
    {
        type            cyclic;
    }
    inandouthalf32
    {
        type            cyclic;
    }
    inandouthalf41
    {
        type            cyclic;
    }
    inandouthalf42
    {
        type            cyclic;
    }
    top
    {
        type            symmetryPlane;
    }
    walls
    {
        type            calculated;
        value           uniform 0.000134235;
    }
    frontAndBackPlanes
    {
        type            empty;
    }
}


// ************************************************************************* //
