/*--------------------------------*- C++ -*----------------------------------*\
| =========                 |                                                 |
| \\      /  F ield         | OpenFOAM: The Open Source CFD Toolbox           |
|  \\    /   O peration     | Version:  2.4.x                                 |
|   \\  /    A nd           | Web:      www.OpenFOAM.org                      |
|    \\/     M anipulation  |                                                 |
\*---------------------------------------------------------------------------*/
FoamFile
{
    version     2.0;
    format      ascii;
    class       volVectorField;
    location    "5.7";
    object      ddt0(Ua);
}
// * * * * * * * * * * * * * * * * * * * * * * * * * * * * * * * * * * * * * //

dimensions      [0 1 -2 0 0 0 0];

internalField   nonuniform List<vector> 
360
(
(3.40572e-34 -6.7024e-33 0)
(1.35394e-08 6.70779e-08 0)
(3.08526e-08 1.37339e-07 0)
(4.62517e-08 1.95074e-07 0)
(6.09823e-08 2.5033e-07 0)
(7.61214e-08 3.07484e-07 0)
(9.18014e-08 3.66653e-07 0)
(1.07827e-07 4.2683e-07 0)
(1.24019e-07 4.87164e-07 0)
(1.40314e-07 5.47349e-07 0)
(1.56741e-07 6.07564e-07 0)
(1.73358e-07 6.68077e-07 0)
(1.90201e-07 7.29026e-07 0)
(2.07273e-07 7.90409e-07 0)
(2.24565e-07 8.52145e-07 0)
(2.42067e-07 9.14176e-07 0)
(2.59775e-07 9.76478e-07 0)
(2.77684e-07 1.03901e-06 0)
(2.95782e-07 1.1017e-06 0)
(3.14054e-07 1.16448e-06 0)
(3.32479e-07 1.22723e-06 0)
(3.51045e-07 1.28988e-06 0)
(3.69762e-07 1.35246e-06 0)
(3.88664e-07 1.41511e-06 0)
(4.07819e-07 1.47807e-06 0)
(4.27338e-07 1.54178e-06 0)
(4.47374e-07 1.60684e-06 0)
(4.68121e-07 1.674e-06 0)
(4.89783e-07 1.74405e-06 0)
(5.12532e-07 1.81763e-06 0)
(5.36458e-07 1.89504e-06 0)
(5.61504e-07 1.97604e-06 0)
(5.87378e-07 2.05943e-06 0)
(6.135e-07 2.14295e-06 0)
(6.38955e-07 2.2231e-06 0)
(6.62535e-07 2.29527e-06 0)
(6.8291e-07 2.35449e-06 0)
(6.98921e-07 2.39648e-06 0)
(7.09973e-07 2.4192e-06 0)
(7.16448e-07 2.42421e-06 0)
(7.20042e-07 2.41794e-06 0)
(7.23891e-07 2.41191e-06 0)
(7.32517e-07 2.42234e-06 0)
(7.51748e-07 2.46965e-06 0)
(7.8881e-07 2.57858e-06 0)
(8.52708e-07 2.77942e-06 0)
(9.54841e-07 3.11037e-06 0)
(1.10902e-06 3.61795e-06 0)
(1.32871e-06 4.34917e-06 0)
(1.61618e-06 5.31719e-06 0)
(1.93551e-06 6.41028e-06 0)
(2.17604e-06 7.26053e-06 0)
(2.15944e-06 7.24973e-06 0)
(1.77138e-06 5.95733e-06 0)
(1.13663e-06 3.80239e-06 0)
(5.52443e-07 1.82484e-06 0)
(2.03018e-07 6.58627e-07 0)
(5.82189e-08 1.84952e-07 0)
(1.38958e-08 4.3103e-08 0)
(3.02304e-09 9.07222e-09 0)
(6.59002e-10 1.82882e-09 0)
(1.54367e-10 3.13634e-10 0)
(3.91838e-11 -2.56133e-11 0)
(9.60357e-12 -1.11193e-10 0)
(1.01558e-12 -1.35625e-10 0)
(-1.60065e-12 -1.42934e-10 0)
(-2.15808e-12 -1.4442e-10 0)
(-1.77367e-12 -1.43266e-10 0)
(-7.5696e-13 -1.40349e-10 0)
(8.47895e-13 -1.35802e-10 0)
(3.08196e-12 -1.29531e-10 0)
(5.9877e-12 -1.21451e-10 0)
(9.55649e-12 -1.11635e-10 0)
(1.37049e-11 -1.00359e-10 0)
(1.82787e-11 -8.80868e-11 0)
(2.30772e-11 -7.53883e-11 0)
(2.78922e-11 -6.28324e-11 0)
(3.25476e-11 -5.08795e-11 0)
(3.69263e-11 -3.98136e-11 0)
(4.0975e-11 -2.97405e-11 0)
(4.4695e-11 -2.06236e-11 0)
(4.81264e-11 -1.23303e-11 0)
(5.13305e-11 -4.67961e-12 0)
(5.43761e-11 2.51886e-12 0)
(5.73294e-11 9.44169e-12 0)
(6.02492e-11 1.62406e-11 0)
(6.31847e-11 2.30377e-11 0)
(6.61746e-11 2.9926e-11 0)
(6.92479e-11 3.6972e-11 0)
(7.2426e-11 4.42216e-11 0)
(7.57239e-11 5.17048e-11 0)
(7.91526e-11 5.94404e-11 0)
(8.272e-11 6.74402e-11 0)
(8.64323e-11 7.57114e-11 0)
(9.02942e-11 8.42577e-11 0)
(9.43092e-11 9.30792e-11 0)
(9.84793e-11 1.02173e-10 0)
(1.02805e-10 1.11532e-10 0)
(1.07285e-10 1.21148e-10 0)
(1.11919e-10 1.31006e-10 0)
(1.16701e-10 1.41091e-10 0)
(1.21628e-10 1.51388e-10 0)
(1.26696e-10 1.61879e-10 0)
(1.319e-10 1.72544e-10 0)
(1.37233e-10 1.83365e-10 0)
(1.42691e-10 1.94323e-10 0)
(1.48266e-10 2.05397e-10 0)
(1.53954e-10 2.16568e-10 0)
(1.59747e-10 2.27818e-10 0)
(1.65642e-10 2.39126e-10 0)
(1.71631e-10 2.50478e-10 0)
(1.77713e-10 2.61856e-10 0)
(1.83883e-10 2.73248e-10 0)
(1.90141e-10 2.84644e-10 0)
(1.96488e-10 2.96037e-10 0)
(2.02927e-10 3.07423e-10 0)
(2.09464e-10 3.18804e-10 0)
(2.16111e-10 3.30187e-10 0)
(2.22879e-10 3.41581e-10 0)
(2.29787e-10 3.53e-10 0)
(2.36855e-10 3.64461e-10 0)
(2.44104e-10 3.75979e-10 0)
(2.51555e-10 3.87568e-10 0)
(2.59228e-10 3.99229e-10 0)
(2.67135e-10 4.10953e-10 0)
(2.75276e-10 4.22712e-10 0)
(2.8364e-10 4.34456e-10 0)
(2.92195e-10 4.46111e-10 0)
(3.00891e-10 4.57579e-10 0)
(3.0965e-10 4.68733e-10 0)
(3.18372e-10 4.79428e-10 0)
(3.26946e-10 4.89516e-10 0)
(3.35271e-10 4.98877e-10 0)
(3.43287e-10 5.07456e-10 0)
(3.50985e-10 5.15266e-10 0)
(3.58391e-10 5.2236e-10 0)
(3.65557e-10 5.28791e-10 0)
(3.72571e-10 5.34635e-10 0)
(3.79549e-10 5.40002e-10 0)
(3.86504e-10 5.44952e-10 0)
(3.93061e-10 5.49262e-10 0)
(3.98384e-10 5.52367e-10 0)
(4.01871e-10 5.54081e-10 0)
(4.03655e-10 5.54787e-10 0)
(4.04387e-10 5.54961e-10 0)
(4.04745e-10 5.54934e-10 0)
(4.05162e-10 5.54862e-10 0)
(7.31331e-06 1.09588e-06 0)
(0.0457969 0.00048279 0)
(0.0464339 0.000406299 0)
(0.0448737 0.000493634 0)
(0.0449321 0.000535044 0)
(0.0461852 0.000607342 0)
(0.0482157 0.000703442 0)
(0.0507331 0.000811494 0)
(0.0535307 0.000919105 0)
(0.0564627 0.00101544 0)
(0.0594302 0.00109183 0)
(0.0623675 0.00114164 0)
(0.0652331 0.00116029 0)
(0.0680007 0.00114558 0)
(0.0706549 0.00109749 0)
(0.0731871 0.00101796 0)
(0.0755931 0.000910418 0)
(0.0778715 0.000779159 0)
(0.0800225 0.000628815 0)
(0.0820469 0.000463896 0)
(0.0839457 0.00028839 0)
(0.0857195 0.000105713 0)
(0.0873682 -8.13817e-05 0)
(0.0888908 -0.000270869 0)
(0.0902859 -0.000461274 0)
(0.0915513 -0.000651559 0)
(0.0926844 -0.000841002 0)
(0.0936826 -0.00102909 0)
(0.0945432 -0.00121543 0)
(0.0952636 -0.00139967 0)
(0.0958415 -0.0015815 0)
(0.0962747 -0.00176054 0)
(0.096562 -0.0019364 0)
(0.0967022 -0.00210864 0)
(0.0966949 -0.00227677 0)
(0.0965407 -0.00244023 0)
(0.0962405 -0.00259831 0)
(0.0957965 -0.00274998 0)
(0.0952117 -0.00289347 0)
(0.0944904 -0.00302571 0)
(0.0936386 -0.00314168 0)
(0.092664 -0.0032341 0)
(0.0915768 -0.00329371 0)
(0.0903902 -0.00331054 0)
(0.0891202 -0.00327605 0)
(0.0877856 -0.00318507 0)
(0.0864071 -0.00303739 0)
(0.0850063 -0.00283964 0)
(0.0836031 -0.00260581 0)
(0.0822145 -0.0023534 0)
(0.0808542 -0.00209603 0)
(0.0795344 -0.00183838 0)
(0.0782681 -0.00157837 0)
(0.0770687 -0.00131542 0)
(0.0759361 -0.00105156 0)
(0.0748716 -0.00079029 0)
(0.0738848 -0.000539999 0)
(0.0729785 -0.000311649 0)
(0.0721511 -0.000109755 0)
(0.0714009 6.7115e-05 0)
(0.070722 0.000218264 0)
(0.0701059 0.000344394 0)
(0.0695469 0.000449798 0)
(0.069038 0.000537219 0)
(0.0685714 0.00060873 0)
(0.0681397 0.000666441 0)
(0.0677347 0.000711589 0)
(0.0673531 0.000747328 0)
(0.06699 0.000775388 0)
(0.0666362 0.000795078 0)
(0.0662912 0.000809256 0)
(0.0659546 0.000820288 0)
(0.0656186 0.00082724 0)
(0.0652789 0.000830691 0)
(0.0649358 0.000832389 0)
(0.0645896 0.000833963 0)
(0.0642342 0.00083461 0)
(0.063866 0.000833756 0)
(0.0634912 0.000834543 0)
(0.0631077 0.000836827 0)
(0.0627121 0.000839405 0)
(0.0623087 0.00084411 0)
(0.0618978 0.000850781 0)
(0.0614789 0.000858756 0)
(0.0610469 0.000864216 0)
(0.0606118 0.000867285 0)
(0.0602017 0.000880244 0)
(0.0598321 0.000908942 0)
(0.0594496 0.00090745 0)
(0.0588996 0.000780249 0)
(0.00211232 0.00487094 0)
(-0.000991806 -0.0147534 0)
(-0.00291473 0.0216067 0)
(-0.00263865 0.0297111 0)
(-0.00527986 0.000700215 0)
(-0.0052981 -2.16805e-05 0)
(-0.0062439 4.05052e-05 0)
(-0.00696358 3.49199e-05 0)
(-0.00758515 3.39829e-05 0)
(-0.00807196 3.14722e-05 0)
(-0.00839579 2.74812e-05 0)
(-0.00850795 2.12665e-05 0)
(-0.00832737 1.15871e-05 0)
(-0.00772014 -4.6793e-06 0)
(-0.00644825 -5.48294e-05 0)
(-0.00207021 -8.12171e-05 0)
(0.00099487 -4.61716e-05 0)
(0.00134951 -5.10491e-06 0)
(0.0013575 -1.89925e-08 0)
(0.00135774 3.64535e-09 0)
(0.00135773 6.2051e-09 0)
(0.00135774 5.31221e-09 0)
(0.00135774 6.11938e-09 0)
(0.00135775 5.27462e-09 0)
(0.00135775 6.14798e-09 0)
(0.00135775 5.22159e-09 0)
(0.00135775 6.17156e-09 0)
(0.00135775 5.16443e-09 0)
(0.00135775 6.19676e-09 0)
(0.00135775 5.10294e-09 0)
(0.00135775 6.22221e-09 0)
(0.00135775 5.03202e-09 0)
(0.00135775 6.26005e-09 0)
(0.00135775 5.03482e-09 0)
(0.00135776 6.10805e-09 0)
(0.00135776 5.06735e-09 0)
(0.00135776 6.21069e-09 0)
(0.00135776 4.94581e-09 0)
(0.00135776 6.24889e-09 0)
(0.00135776 4.87712e-09 0)
(0.00135776 6.29264e-09 0)
(0.00135776 4.80757e-09 0)
(0.00135776 6.34184e-09 0)
(0.00135776 4.73553e-09 0)
(0.00135776 6.39364e-09 0)
(0.00135776 4.66029e-09 0)
(0.00135776 6.45149e-09 0)
(0.00135776 4.58654e-09 0)
(0.00135776 6.51802e-09 0)
(0.00135776 4.51506e-09 0)
(0.00135776 6.59355e-09 0)
(0.00135776 4.44345e-09 0)
(0.00135776 6.67433e-09 0)
(0.00135776 4.37033e-09 0)
(0.00135776 6.76193e-09 0)
(0.00135776 4.29837e-09 0)
(0.00135776 6.85778e-09 0)
(0.00135776 4.22617e-09 0)
(0.00135776 6.95756e-09 0)
(0.00135776 4.14243e-09 0)
(0.00135776 7.04777e-09 0)
(0.00135776 4.04023e-09 0)
(0.00135776 7.13174e-09 0)
(0.00135776 3.93046e-09 0)
(0.00135776 7.21736e-09 0)
(0.00135776 3.81656e-09 0)
(0.00135776 7.30724e-09 0)
(0.00135776 3.69872e-09 0)
(0.00135776 7.39761e-09 0)
(0.00135776 3.57804e-09 0)
(0.00135776 7.49323e-09 0)
(0.00135776 3.46203e-09 0)
(0.00135776 7.60573e-09 0)
(0.00135776 3.62962e-09 0)
(0.00135776 7.37391e-09 0)
(0.00135776 3.61106e-09 0)
(0.00135776 7.38203e-09 0)
(0.00135776 3.58628e-09 0)
(0.00135776 7.39219e-09 0)
(0.00135776 3.56765e-09 0)
(0.00135776 7.40821e-09 0)
(0.00135776 3.55474e-09 0)
(0.00135776 7.43313e-09 0)
(0.00135776 3.54627e-09 0)
(0.00135776 7.45089e-09 0)
(0.00135776 3.53325e-09 0)
(0.00135776 7.47628e-09 0)
(0.00135776 3.53089e-09 0)
(0.00135776 7.49936e-09 0)
(0.00135776 3.52424e-09 0)
(0.00135776 7.51703e-09 0)
(0.00135776 3.45965e-09 0)
(0.00135776 7.38224e-09 0)
(0.00135776 3.26081e-09 0)
(0.00135776 7.25237e-09 0)
(0.00135776 3.13265e-09 0)
(0.00135776 7.17038e-09 0)
(0.00135776 3.08907e-09 0)
(0.00135776 7.25203e-09 0)
(0.00135776 3.16129e-09 0)
(0.00135776 7.29348e-09 0)
(0.00135776 3.21884e-09 0)
(0.00135776 7.5165e-09 0)
(0.00135776 3.51965e-09 0)
(0.00135776 7.88776e-09 0)
(0.00135776 3.96274e-09 0)
(0.00135776 8.48335e-09 0)
(0.00135776 4.60251e-09 0)
(0.00135776 9.13204e-09 0)
(0.00135776 5.24861e-09 0)
(0.00135776 9.84016e-09 0)
(0.00135776 5.97925e-09 0)
(0.00135776 1.05849e-08 0)
(0.00135776 6.66226e-09 0)
(0.00135776 1.12095e-08 0)
(0.00135776 7.36705e-09 0)
(0.00135776 1.21052e-08 0)
(0.00135776 8.12568e-09 0)
(0.00135776 1.25171e-08 0)
(0.00135775 2.79905e-09 0)
(0.00135768 -8.35999e-07 0)
(0.00135575 -7.84433e-05 0)
(0.00130961 -8.39278e-05 0)
)
;

boundaryField
{
    inandouthalf11
    {
        type            cyclic;
    }
    inandouthalf12
    {
        type            cyclic;
    }
    inandouthalf21
    {
        type            cyclic;
    }
    inandouthalf22
    {
        type            cyclic;
    }
    inandouthalf31
    {
        type            cyclic;
    }
    inandouthalf32
    {
        type            cyclic;
    }
    inandouthalf41
    {
        type            cyclic;
    }
    inandouthalf42
    {
        type            cyclic;
    }
    top
    {
        type            symmetryPlane;
    }
    walls
    {
        type            calculated;
        value           uniform (0 0 0);
    }
    frontAndBackPlanes
    {
        type            empty;
    }
}


// ************************************************************************* //
