/*--------------------------------*- C++ -*----------------------------------*\
| =========                 |                                                 |
| \\      /  F ield         | OpenFOAM: The Open Source CFD Toolbox           |
|  \\    /   O peration     | Version:  2.4.x                                 |
|   \\  /    A nd           | Web:      www.OpenFOAM.org                      |
|    \\/     M anipulation  |                                                 |
\*---------------------------------------------------------------------------*/
FoamFile
{
    version     2.0;
    format      ascii;
    class       surfaceScalarField;
    location    "5.7";
    object      ddt0(phib);
}
// * * * * * * * * * * * * * * * * * * * * * * * * * * * * * * * * * * * * * //

dimensions      [0 3 -2 0 0 0 0];

internalField   nonuniform List<scalar> 
359
(
-2.18486e-13
-6.41448e-13
-1.03905e-12
-1.39886e-12
-1.75355e-12
-2.11866e-12
-2.49322e-12
-2.87161e-12
-3.24975e-12
-3.6275e-12
-4.00621e-12
-4.38709e-12
-4.77065e-12
-5.1565e-12
-5.54431e-12
-5.93376e-12
-6.32469e-12
-6.71673e-12
-7.10936e-12
-7.50218e-12
-7.89437e-12
-8.28603e-12
-8.67749e-12
-9.07e-12
-9.46576e-12
-9.868e-12
-1.02808e-11
-1.07092e-11
-1.11575e-11
-1.16287e-11
-1.21228e-11
-1.26357e-11
-1.3156e-11
-1.36663e-11
-1.41407e-11
-1.45497e-11
-1.4864e-11
-1.50642e-11
-1.5149e-11
-1.51429e-11
-1.51025e-11
-1.51144e-11
-1.52928e-11
-1.5779e-11
-1.67443e-11
-1.84023e-11
-2.10177e-11
-2.48796e-11
-3.01735e-11
-3.65923e-11
-4.26374e-11
-4.52512e-11
-4.11931e-11
-3.04331e-11
-1.75395e-11
-7.74068e-12
-2.63872e-12
-7.23746e-13
-1.76621e-13
-4.81882e-14
-2.08446e-14
-1.49966e-14
-1.35467e-14
-1.31017e-14
-1.29011e-14
-1.27497e-14
-1.26219e-14
-1.25329e-14
-1.23932e-14
-1.2244e-14
-1.21297e-14
-1.20242e-14
-1.19119e-14
-1.18093e-14
-1.1697e-14
-1.15969e-14
-1.14957e-14
-1.13784e-14
-1.12416e-14
-1.10511e-14
-1.09341e-14
-1.07601e-14
-1.05669e-14
-1.03831e-14
-1.02204e-14
-1.00231e-14
-9.83174e-15
-9.67358e-15
-9.48847e-15
-9.31614e-15
-9.10084e-15
-8.92417e-15
-8.75162e-15
-8.60591e-15
-8.42745e-15
-8.24433e-15
-8.07842e-15
-7.9065e-15
-7.72091e-15
-7.5383e-15
-7.37415e-15
-7.24485e-15
-7.09378e-15
-6.9342e-15
-6.78033e-15
-6.62553e-15
-6.48843e-15
-6.33398e-15
-6.17548e-15
-6.01366e-15
-5.89316e-15
-5.75657e-15
-5.62506e-15
-5.51409e-15
-5.42435e-15
-5.29158e-15
-5.18042e-15
-5.08422e-15
-4.97789e-15
-4.86857e-15
-4.80645e-15
-4.69727e-15
-4.63086e-15
-4.54514e-15
-4.46936e-15
-4.39477e-15
-4.31615e-15
-4.2408e-15
-4.17763e-15
-4.11447e-15
-4.06215e-15
-4.01523e-15
-3.96974e-15
-3.93869e-15
-3.91098e-15
-3.90182e-15
-3.8962e-15
-3.9598e-15
-4.04675e-15
-4.09129e-15
-4.10142e-15
-4.33684e-15
-4.87384e-15
-6.04986e-15
-1.48081e-14
-3.02079e-14
-3.37673e-12
-8.56408e-10
-5.59918e-10
-4.81724e-10
-3.99453e-10
-3.52885e-10
-3.20617e-10
-2.91546e-10
-2.61577e-10
-2.30138e-10
-1.98311e-10
-1.6741e-10
-1.38454e-10
-1.12146e-10
-8.8857e-11
-6.87099e-11
-5.16479e-11
-3.74779e-11
-2.59279e-11
-1.66808e-11
-9.41104e-12
-3.79992e-12
4.40544e-13
3.56844e-12
5.80464e-12
7.33448e-12
8.31059e-12
8.85683e-12
9.07262e-12
9.03725e-12
8.81346e-12
8.45081e-12
7.98826e-12
7.45648e-12
6.8795e-12
6.27602e-12
5.66036e-12
5.04273e-12
4.42912e-12
3.82074e-12
3.2142e-12
2.60272e-12
1.97932e-12
1.34178e-12
6.97302e-13
6.40613e-14
-5.3094e-13
-1.05372e-12
-1.46933e-12
-1.75843e-12
-1.93195e-12
-2.02467e-12
-2.06916e-12
-2.07277e-12
-2.02702e-12
-1.93148e-12
-1.7891e-12
-1.60403e-12
-1.40227e-12
-1.20836e-12
-1.02424e-12
-8.55979e-13
-7.12064e-13
-5.89323e-13
-4.84936e-13
-3.97626e-13
-3.24722e-13
-2.65856e-13
-2.17544e-13
-1.76637e-13
-1.44095e-13
-1.17826e-13
-9.54098e-14
-7.6979e-14
-6.21841e-14
-5.01445e-14
-3.99908e-14
-3.16136e-14
-2.50734e-14
-1.96248e-14
-1.50819e-14
-1.14288e-14
-8.43789e-15
-5.95872e-15
-3.92388e-15
-2.3434e-15
-1.17912e-15
-1.99284e-16
8.21587e-16
1.15899e-15
2.00717e-15
3.32295e-15
2.94735e-15
3.88524e-15
3.10379e-15
3.03227e-15
2.96285e-15
2.88998e-15
2.81053e-15
2.7435e-15
2.66286e-15
2.56842e-15
2.47883e-15
2.39368e-15
2.30216e-15
2.20427e-15
2.10535e-15
2.008e-15
1.8877e-15
1.77522e-15
1.65707e-15
1.53176e-15
1.4088e-15
1.29877e-15
1.17579e-15
1.05739e-15
9.29511e-16
8.22115e-16
7.02232e-16
6.07102e-16
4.89302e-16
3.88834e-16
2.9042e-16
1.93346e-16
9.78421e-17
1.35521e-17
-7.97156e-17
-1.67945e-16
-2.4349e-16
-3.14707e-16
-3.83828e-16
-4.39581e-16
-4.98702e-16
-5.41467e-16
-6.14e-16
-6.68923e-16
-7.16383e-16
-7.394e-16
-7.61679e-16
-7.64371e-16
-7.47539e-16
-7.10816e-16
-7.12667e-16
-6.78195e-16
-6.50793e-16
-5.81242e-16
-5.29405e-16
-4.54003e-16
-3.85464e-16
-3.27041e-16
-3.56071e-16
-4.13038e-16
-4.71726e-16
-5.33005e-16
-6.14057e-16
-6.74421e-16
-7.44679e-16
-7.89818e-16
-9.01689e-16
-9.72272e-16
-1.03944e-15
-1.05232e-15
-1.12156e-15
-1.13239e-15
-1.14358e-15
-1.10657e-15
-1.1893e-15
-1.22725e-15
-1.27168e-15
-1.24888e-15
-1.2805e-15
-1.24074e-15
-1.20486e-15
-1.10956e-15
-1.14753e-15
-1.10533e-15
-1.07445e-15
-9.37596e-16
-9.41342e-16
-8.39317e-16
-8.27768e-16
-8.62716e-16
-1.8484e-15
-2.63946e-15
-3.48985e-15
-3.64995e-15
-4.5027e-15
-4.29269e-15
-4.11646e-15
-2.85067e-15
-3.37678e-15
-2.5916e-15
-1.78989e-15
5.81078e-16
1.94144e-15
4.72898e-15
7.5758e-15
1.14074e-14
1.46692e-14
1.8369e-14
2.20892e-14
2.58183e-14
3.01301e-14
3.33382e-14
3.68118e-14
3.88467e-14
4.55153e-14
4.83483e-14
5.1244e-14
4.86416e-14
4.94593e-14
4.50493e-14
4.39901e-14
)
;

boundaryField
{
    inandouthalf11
    {
        type            cyclic;
        value           nonuniform List<scalar> 
100
(
-1.67391e-11
-1.66798e-11
-1.66797e-11
-1.67048e-11
-1.67265e-11
-1.67447e-11
-1.67632e-11
-1.67824e-11
-1.68019e-11
-1.68216e-11
-1.68415e-11
-1.68616e-11
-1.6882e-11
-1.69026e-11
-1.69234e-11
-1.69445e-11
-1.69658e-11
-1.69874e-11
-1.70092e-11
-1.70312e-11
-1.70534e-11
-1.70757e-11
-1.70983e-11
-1.7121e-11
-1.71441e-11
-1.71675e-11
-1.71915e-11
-1.72163e-11
-1.7242e-11
-1.72688e-11
-1.72969e-11
-1.73261e-11
-1.73562e-11
-1.73867e-11
-1.74165e-11
-1.74445e-11
-1.74692e-11
-1.74897e-11
-1.75053e-11
-1.75161e-11
-1.75242e-11
-1.75325e-11
-1.75454e-11
-1.75691e-11
-1.76106e-11
-1.76791e-11
-1.7786e-11
-1.79453e-11
-1.81706e-11
-1.84644e-11
-1.87903e-11
-1.90375e-11
-1.90272e-11
-1.86451e-11
-1.80163e-11
-1.7438e-11
-1.70933e-11
-1.69526e-11
-1.69118e-11
-1.69043e-11
-1.69056e-11
-1.69088e-11
-1.69125e-11
-1.69164e-11
-1.69204e-11
-1.69245e-11
-1.69288e-11
-1.69332e-11
-1.69377e-11
-1.69424e-11
-1.69474e-11
-1.69525e-11
-1.69577e-11
-1.69632e-11
-1.69688e-11
-1.69745e-11
-1.69803e-11
-1.69862e-11
-1.69923e-11
-1.69986e-11
-1.70049e-11
-1.70115e-11
-1.70182e-11
-1.70251e-11
-1.70322e-11
-1.70395e-11
-1.70469e-11
-1.70545e-11
-1.70623e-11
-1.70702e-11
-1.70783e-11
-1.70865e-11
-1.7095e-11
-1.71037e-11
-1.71125e-11
-1.71216e-11
-1.71309e-11
-1.71404e-11
-1.71502e-11
-1.71602e-11
)
;
    }
    inandouthalf12
    {
        type            cyclic;
        value           nonuniform List<scalar> 
100
(
1.67391e-11
1.66798e-11
1.66797e-11
1.67048e-11
1.67265e-11
1.67447e-11
1.67632e-11
1.67824e-11
1.68019e-11
1.68216e-11
1.68415e-11
1.68616e-11
1.6882e-11
1.69026e-11
1.69234e-11
1.69445e-11
1.69658e-11
1.69874e-11
1.70092e-11
1.70312e-11
1.70534e-11
1.70757e-11
1.70983e-11
1.7121e-11
1.71441e-11
1.71675e-11
1.71915e-11
1.72163e-11
1.7242e-11
1.72688e-11
1.72969e-11
1.73261e-11
1.73562e-11
1.73867e-11
1.74165e-11
1.74445e-11
1.74692e-11
1.74897e-11
1.75053e-11
1.75161e-11
1.75242e-11
1.75325e-11
1.75454e-11
1.75691e-11
1.76106e-11
1.76791e-11
1.7786e-11
1.79453e-11
1.81706e-11
1.84644e-11
1.87903e-11
1.90375e-11
1.90272e-11
1.86451e-11
1.80163e-11
1.7438e-11
1.70933e-11
1.69526e-11
1.69118e-11
1.69043e-11
1.69056e-11
1.69088e-11
1.69125e-11
1.69164e-11
1.69204e-11
1.69245e-11
1.69288e-11
1.69332e-11
1.69377e-11
1.69424e-11
1.69474e-11
1.69525e-11
1.69577e-11
1.69632e-11
1.69688e-11
1.69745e-11
1.69803e-11
1.69862e-11
1.69923e-11
1.69986e-11
1.70049e-11
1.70115e-11
1.70182e-11
1.70251e-11
1.70322e-11
1.70395e-11
1.70469e-11
1.70545e-11
1.70623e-11
1.70702e-11
1.70783e-11
1.70865e-11
1.7095e-11
1.71037e-11
1.71125e-11
1.71216e-11
1.71309e-11
1.71404e-11
1.71502e-11
1.71602e-11
)
;
    }
    inandouthalf21
    {
        type            cyclic;
        value           nonuniform List<scalar> 
100
(
-1.71704e-11
-1.71809e-11
-1.71916e-11
-1.72026e-11
-1.72139e-11
-1.72255e-11
-1.72373e-11
-1.72495e-11
-1.7262e-11
-1.72749e-11
-1.72881e-11
-1.73017e-11
-1.73156e-11
-1.733e-11
-1.73448e-11
-1.736e-11
-1.73757e-11
-1.73919e-11
-1.74086e-11
-1.74259e-11
-1.74437e-11
-1.7462e-11
-1.7481e-11
-1.75007e-11
-1.7521e-11
-1.7542e-11
-1.75638e-11
-1.75865e-11
-1.761e-11
-1.76346e-11
-1.76601e-11
-1.76868e-11
-1.77146e-11
-1.7744e-11
-1.77752e-11
-1.78083e-11
-1.78431e-11
-1.78801e-11
-1.79211e-11
-1.79683e-11
-1.80195e-11
-1.80683e-11
-1.81268e-11
-1.82029e-11
-1.82974e-11
-1.84691e-11
-1.96977e-11
-4.98145e-10
-4.95004e-08
-4.5823e-08
-4.40017e-08
-4.42225e-08
-4.55622e-08
-4.75929e-08
-5.00561e-08
-5.27798e-08
-5.56459e-08
-5.85723e-08
-6.15026e-08
-6.43979e-08
-6.72318e-08
-6.99872e-08
-7.26532e-08
-7.52234e-08
-7.76948e-08
-8.00664e-08
-8.2339e-08
-8.4514e-08
-8.65939e-08
-8.85811e-08
-9.04784e-08
-9.22885e-08
-9.40138e-08
-9.56569e-08
-9.72198e-08
-9.87043e-08
-1.00112e-07
-1.01444e-07
-1.02701e-07
-1.03884e-07
-1.04993e-07
-1.06028e-07
-1.06989e-07
-1.07874e-07
-1.08683e-07
-1.09414e-07
-1.10065e-07
-1.10634e-07
-1.11119e-07
-1.11516e-07
-1.11822e-07
-1.12033e-07
-1.12145e-07
-1.12154e-07
-1.12054e-07
-1.11839e-07
-1.11505e-07
-1.11046e-07
-1.10456e-07
-1.09728e-07
)
;
    }
    inandouthalf22
    {
        type            cyclic;
        value           nonuniform List<scalar> 
100
(
1.71704e-11
1.71809e-11
1.71916e-11
1.72026e-11
1.72139e-11
1.72255e-11
1.72373e-11
1.72495e-11
1.7262e-11
1.72749e-11
1.72881e-11
1.73017e-11
1.73156e-11
1.733e-11
1.73448e-11
1.736e-11
1.73757e-11
1.73919e-11
1.74086e-11
1.74259e-11
1.74437e-11
1.7462e-11
1.7481e-11
1.75007e-11
1.7521e-11
1.7542e-11
1.75638e-11
1.75865e-11
1.761e-11
1.76346e-11
1.76601e-11
1.76868e-11
1.77146e-11
1.7744e-11
1.77752e-11
1.78083e-11
1.78431e-11
1.78801e-11
1.79211e-11
1.79683e-11
1.80195e-11
1.80683e-11
1.81268e-11
1.82029e-11
1.82974e-11
1.84691e-11
1.96977e-11
4.98145e-10
4.95004e-08
4.5823e-08
4.40017e-08
4.42225e-08
4.55622e-08
4.75929e-08
5.00561e-08
5.27798e-08
5.56459e-08
5.85723e-08
6.15026e-08
6.43979e-08
6.72318e-08
6.99872e-08
7.26532e-08
7.52234e-08
7.76948e-08
8.00664e-08
8.2339e-08
8.4514e-08
8.65939e-08
8.85811e-08
9.04784e-08
9.22885e-08
9.40138e-08
9.56569e-08
9.72198e-08
9.87043e-08
1.00112e-07
1.01444e-07
1.02701e-07
1.03884e-07
1.04993e-07
1.06028e-07
1.06989e-07
1.07874e-07
1.08683e-07
1.09414e-07
1.10065e-07
1.10634e-07
1.11119e-07
1.11516e-07
1.11822e-07
1.12033e-07
1.12145e-07
1.12154e-07
1.12054e-07
1.11839e-07
1.11505e-07
1.11046e-07
1.10456e-07
1.09728e-07
)
;
    }
    inandouthalf31
    {
        type            cyclic;
        value           nonuniform List<scalar> 
110
(
-1.08858e-07
-1.10016e-07
-1.10984e-07
-1.11732e-07
-1.12227e-07
-1.12435e-07
-1.12318e-07
-1.11837e-07
-1.10956e-07
-1.09637e-07
-1.07848e-07
-1.05564e-07
-1.02772e-07
-9.94731e-08
-9.5687e-08
-9.1455e-08
-8.68402e-08
-8.1925e-08
-7.68057e-08
-7.15847e-08
-6.63605e-08
-6.12187e-08
-5.62258e-08
-5.1426e-08
-4.68415e-08
-4.24765e-08
-3.8322e-08
-3.43609e-08
-3.05727e-08
-2.69369e-08
-2.3435e-08
-2.00517e-08
-1.67747e-08
-1.35947e-08
-1.0505e-08
-7.50053e-09
-4.57815e-09
-1.73583e-09
1.02657e-09
3.70751e-09
6.30292e-09
8.80528e-09
1.12024e-08
1.34755e-08
1.55971e-08
1.7527e-08
1.92068e-08
2.05495e-08
2.14207e-08
2.16017e-08
2.07445e-08
1.83436e-08
8.45794e-09
-3.27509e-09
-4.87803e-09
-5.01416e-09
-5.1166e-09
-5.22048e-09
-5.32646e-09
-5.43458e-09
-5.5449e-09
-5.65746e-09
-5.77229e-09
-5.88946e-09
-6.009e-09
-6.13097e-09
-6.25542e-09
-6.38239e-09
-6.51194e-09
-6.64411e-09
-6.77897e-09
-6.91657e-09
-7.05696e-09
-7.20019e-09
-7.34634e-09
-7.49545e-09
-7.64759e-09
-7.80282e-09
-7.96119e-09
-8.12278e-09
-8.28766e-09
-8.45587e-09
-8.62751e-09
-8.80262e-09
-8.98129e-09
-9.16359e-09
-9.34959e-09
-9.53936e-09
-9.73298e-09
-9.93054e-09
-1.01321e-08
-1.03378e-08
-1.05476e-08
-1.07617e-08
-1.09801e-08
-1.1203e-08
-1.14304e-08
-1.16624e-08
-1.18991e-08
-1.21406e-08
-1.2387e-08
-1.26385e-08
-1.2895e-08
-1.31567e-08
-1.34238e-08
-1.36962e-08
-1.39742e-08
-1.42579e-08
-1.45473e-08
-1.48425e-08
)
;
    }
    inandouthalf32
    {
        type            cyclic;
        value           nonuniform List<scalar> 
110
(
1.08858e-07
1.10016e-07
1.10984e-07
1.11732e-07
1.12227e-07
1.12435e-07
1.12318e-07
1.11837e-07
1.10956e-07
1.09637e-07
1.07848e-07
1.05564e-07
1.02772e-07
9.94731e-08
9.5687e-08
9.1455e-08
8.68402e-08
8.1925e-08
7.68057e-08
7.15847e-08
6.63605e-08
6.12187e-08
5.62258e-08
5.1426e-08
4.68415e-08
4.24765e-08
3.8322e-08
3.43609e-08
3.05727e-08
2.69369e-08
2.3435e-08
2.00517e-08
1.67747e-08
1.35947e-08
1.0505e-08
7.50053e-09
4.57815e-09
1.73583e-09
-1.02657e-09
-3.70751e-09
-6.30292e-09
-8.80528e-09
-1.12024e-08
-1.34755e-08
-1.55971e-08
-1.7527e-08
-1.92068e-08
-2.05495e-08
-2.14207e-08
-2.16017e-08
-2.07445e-08
-1.83436e-08
-8.45794e-09
3.27509e-09
4.87803e-09
5.01416e-09
5.1166e-09
5.22048e-09
5.32646e-09
5.43458e-09
5.5449e-09
5.65746e-09
5.77229e-09
5.88946e-09
6.009e-09
6.13097e-09
6.25542e-09
6.38239e-09
6.51194e-09
6.64411e-09
6.77897e-09
6.91657e-09
7.05696e-09
7.20019e-09
7.34634e-09
7.49545e-09
7.64759e-09
7.80282e-09
7.96119e-09
8.12278e-09
8.28766e-09
8.45587e-09
8.62751e-09
8.80262e-09
8.98129e-09
9.16359e-09
9.34959e-09
9.53936e-09
9.73298e-09
9.93054e-09
1.01321e-08
1.03378e-08
1.05476e-08
1.07617e-08
1.09801e-08
1.1203e-08
1.14304e-08
1.16624e-08
1.18991e-08
1.21406e-08
1.2387e-08
1.26385e-08
1.2895e-08
1.31567e-08
1.34238e-08
1.36962e-08
1.39742e-08
1.42579e-08
1.45473e-08
1.48425e-08
)
;
    }
    inandouthalf41
    {
        type            cyclic;
        value           nonuniform List<scalar> 
50
(
-1.32856e-08
-1.32856e-08
-1.32856e-08
-1.32856e-08
-1.32856e-08
-1.32856e-08
-1.32856e-08
-1.32856e-08
-1.32856e-08
-1.32856e-08
-1.32856e-08
-1.32856e-08
-1.32856e-08
-1.32856e-08
-1.32856e-08
-1.32856e-08
-1.32856e-08
-1.32856e-08
-1.32856e-08
-1.32856e-08
-1.32856e-08
-1.32856e-08
-1.32856e-08
-1.32856e-08
-1.32856e-08
-1.32856e-08
-1.32856e-08
-1.32856e-08
-1.32856e-08
-1.32856e-08
-1.32856e-08
-1.32856e-08
-1.32856e-08
-1.32856e-08
-1.32856e-08
-1.32856e-08
-1.32856e-08
-1.32856e-08
-1.32856e-08
-1.32856e-08
-1.32856e-08
-1.32856e-08
-1.32856e-08
-1.32856e-08
-1.32856e-08
-1.32856e-08
-1.32856e-08
-1.32856e-08
-1.32856e-08
-1.32856e-08
)
;
    }
    inandouthalf42
    {
        type            cyclic;
        value           nonuniform List<scalar> 
50
(
1.32856e-08
1.32856e-08
1.32856e-08
1.32856e-08
1.32856e-08
1.32856e-08
1.32856e-08
1.32856e-08
1.32856e-08
1.32856e-08
1.32856e-08
1.32856e-08
1.32856e-08
1.32856e-08
1.32856e-08
1.32856e-08
1.32856e-08
1.32856e-08
1.32856e-08
1.32856e-08
1.32856e-08
1.32856e-08
1.32856e-08
1.32856e-08
1.32856e-08
1.32856e-08
1.32856e-08
1.32856e-08
1.32856e-08
1.32856e-08
1.32856e-08
1.32856e-08
1.32856e-08
1.32856e-08
1.32856e-08
1.32856e-08
1.32856e-08
1.32856e-08
1.32856e-08
1.32856e-08
1.32856e-08
1.32856e-08
1.32856e-08
1.32856e-08
1.32856e-08
1.32856e-08
1.32856e-08
1.32856e-08
1.32856e-08
1.32856e-08
)
;
    }
    top
    {
        type            symmetryPlane;
        value           uniform 0;
    }
    walls
    {
        type            calculated;
        value           uniform 0;
    }
    frontAndBackPlanes
    {
        type            empty;
        value           nonuniform 0();
    }
}


// ************************************************************************* //
