/*--------------------------------*- C++ -*----------------------------------*\
| =========                 |                                                 |
| \\      /  F ield         | OpenFOAM: The Open Source CFD Toolbox           |
|  \\    /   O peration     | Version:  2.4.x                                 |
|   \\  /    A nd           | Web:      www.OpenFOAM.org                      |
|    \\/     M anipulation  |                                                 |
\*---------------------------------------------------------------------------*/
FoamFile
{
    version     2.0;
    format      ascii;
    class       volScalarField;
    location    "5.7";
    object      epsilon;
}
// * * * * * * * * * * * * * * * * * * * * * * * * * * * * * * * * * * * * * //

dimensions      [0 2 -3 0 0 0 0];

internalField   nonuniform List<scalar> 
360
(
1e-20
1e-20
1e-20
1e-20
1e-20
1e-20
1e-20
1e-20
1e-20
1e-20
1e-20
1e-20
1e-20
1e-20
1e-20
1e-20
1e-20
1e-20
1e-20
1e-20
1e-20
1e-20
1e-20
1e-20
1e-20
1e-20
1e-20
1e-20
1e-20
1e-20
1e-20
1e-20
1e-20
1e-20
1e-20
1e-20
1e-20
1e-20
1e-20
1e-20
1e-20
1e-20
1e-20
1e-20
1e-20
1e-20
1e-20
1e-20
1e-20
1e-20
1e-20
1e-20
1e-20
1e-20
1e-20
1e-20
1e-20
1e-20
1e-20
1e-20
1e-20
1e-20
1e-20
1e-20
1e-20
1e-20
1e-20
1e-20
1e-20
1e-20
1e-20
1e-20
1e-20
1e-20
1e-20
1e-20
1e-20
1e-20
1e-20
1e-20
1e-20
1e-20
1e-20
1e-20
1e-20
1e-20
1e-20
1e-20
1e-20
1e-20
1e-20
1e-20
1e-20
1e-20
1e-20
1e-20
1e-20
1e-20
1e-20
1e-20
1e-20
1e-20
1e-20
1e-20
1e-20
1e-20
1e-20
1e-20
1e-20
1e-20
1e-20
1e-20
1e-20
1e-20
1e-20
1e-20
1e-20
1e-20
1e-20
1e-20
1e-20
1e-20
1e-20
1e-20
1e-20
1e-20
1e-20
1e-20
1e-20
1e-20
1e-20
1e-20
2.57954e-20
1.3041e-19
7.49542e-19
4.73218e-18
3.32113e-17
2.63178e-16
2.39288e-15
2.53404e-14
3.16783e-13
4.73334e-12
8.55485e-11
1.88813e-09
5.12688e-08
1.72407e-06
7.16659e-05
0.00317302
0.0614562
0.153081
0.162925
0.155511
0.143765
0.131487
0.119965
0.109592
0.100411
0.0923321
0.0852248
0.0789542
0.0733973
0.0684471
0.0640132
0.0600198
0.0564038
0.0531127
0.0501027
0.0473372
0.0447854
0.0424214
0.0402232
0.0381721
0.0362521
0.0344493
0.032752
0.0311498
0.0296338
0.0281962
0.0268302
0.0255298
0.0242897
0.0231053
0.0219725
0.0208876
0.0198475
0.0188493
0.0178905
0.0169688
0.0160823
0.0152292
0.0144081
0.0136174
0.0128562
0.0121233
0.0114178
0.010739
0.0100863
0.00945896
0.00885668
0.00827901
0.00772564
0.00719094
0.00667042
0.0061652
0.00567646
0.00520543
0.0047534
0.00432168
0.00391156
0.00352431
0.0031611
0.00282294
0.00251068
0.00222485
0.00196568
0.00173304
0.00152634
0.00134461
0.00118647
0.00105022
0.000933884
0.000835361
0.000752489
0.000683153
0.00062535
0.000577242
0.000537174
0.000503685
0.000475496
0.000451496
0.000430725
0.000412351
0.000395656
0.00038002
0.000364909
0.000349869
0.000334512
0.00031852
0.000301636
0.000283663
0.000264469
0.000243981
0.000222193
0.000199171
0.000175059
0.000150092
0.000124612
9.90887e-05
7.41558e-05
5.06544e-05
2.97015e-05
1.2807e-05
2.56397e-06
1.35788e-07
2.68021e-09
4.45739e-11
6.96519e-13
1.02584e-14
1.42496e-16
1.87482e-18
3.12498e-20
1e-20
1e-20
1e-20
1e-20
1e-20
1e-20
1e-20
1e-20
1e-20
1e-20
1e-20
1e-20
1e-20
1e-20
1e-20
1e-20
1e-20
1e-20
1e-20
1e-20
1e-20
1e-20
1e-20
1e-20
1e-20
1e-20
1e-20
1e-20
1e-20
1e-20
1e-20
1e-20
1e-20
1e-20
1e-20
1e-20
1e-20
1e-20
1e-20
1e-20
1e-20
1e-20
1e-20
1e-20
1e-20
1e-20
1e-20
1e-20
1e-20
1e-20
1e-20
1e-20
1e-20
1e-20
1e-20
1e-20
1e-20
1e-20
1e-20
1e-20
1e-20
1e-20
1e-20
1e-20
1e-20
1e-20
1e-20
1e-20
1e-20
1e-20
1e-20
1e-20
1e-20
1e-20
1e-20
1e-20
1e-20
1e-20
1e-20
1e-20
1e-20
1e-20
1e-20
1e-20
1e-20
1e-20
1e-20
1e-20
1e-20
1e-20
1e-20
1e-20
1e-20
1e-20
1e-20
1e-20
1e-20
1e-20
1e-20
)
;

boundaryField
{
    inandouthalf11
    {
        type            cyclic;
    }
    inandouthalf12
    {
        type            cyclic;
    }
    inandouthalf21
    {
        type            cyclic;
    }
    inandouthalf22
    {
        type            cyclic;
    }
    inandouthalf31
    {
        type            cyclic;
    }
    inandouthalf32
    {
        type            cyclic;
    }
    inandouthalf41
    {
        type            cyclic;
    }
    inandouthalf42
    {
        type            cyclic;
    }
    top
    {
        type            symmetryPlane;
    }
    walls
    {
        type            zeroGradient;
    }
    frontAndBackPlanes
    {
        type            empty;
    }
}


// ************************************************************************* //
