/*--------------------------------*- C++ -*----------------------------------*\
| =========                 |                                                 |
| \\      /  F ield         | OpenFOAM: The Open Source CFD Toolbox           |
|  \\    /   O peration     | Version:  2.4.x                                 |
|   \\  /    A nd           | Web:      www.OpenFOAM.org                      |
|    \\/     M anipulation  |                                                 |
\*---------------------------------------------------------------------------*/
FoamFile
{
    version     2.0;
    format      ascii;
    class       volVectorField;
    location    "5.7";
    object      gradPs;
}
// * * * * * * * * * * * * * * * * * * * * * * * * * * * * * * * * * * * * * //

dimensions      [0 1 -2 0 0 0 0];

internalField   nonuniform List<vector> 
360
(
(0 1.67395e-18 0)
(0 1.7523e-18 0)
(0 -1.02378e-19 0)
(0 -2.51451e-19 0)
(-2.90225e-32 -8.5569e-20 0)
(-1.45118e-32 -4.36503e-20 0)
(-1.45122e-32 -6.46213e-20 0)
(0 -7.73994e-20 0)
(-1.45134e-32 -7.96952e-20 0)
(0 -7.98852e-20 0)
(-1.45145e-32 -7.88127e-20 0)
(0 -7.83544e-20 0)
(-1.45157e-32 -7.90404e-20 0)
(0 -7.99578e-20 0)
(0 -8.10356e-20 0)
(0 -8.19086e-20 0)
(0 -8.25233e-20 0)
(-1.45188e-32 -8.30781e-20 0)
(0 -8.42769e-20 0)
(0 -8.519e-20 0)
(0 -8.61807e-20 0)
(-1.45213e-32 -8.75603e-20 0)
(0 -8.84175e-20 0)
(0 -8.93655e-20 0)
(0 -9.00844e-20 0)
(-1.4524e-32 -9.00521e-20 0)
(0 -8.97428e-20 0)
(0 -8.8899e-20 0)
(0 -8.72412e-20 0)
(0 -8.53896e-20 0)
(0 -8.41726e-20 0)
(0 -8.27612e-20 0)
(0 -8.36989e-20 0)
(0 -8.73591e-20 0)
(0 -9.40874e-20 0)
(1.45311e-32 -1.0523e-19 0)
(0 -1.19254e-19 0)
(0 -1.3591e-19 0)
(0 -1.49877e-19 0)
(0 -1.59895e-19 0)
(0 -1.62356e-19 0)
(0 -1.52183e-19 0)
(2.90726e-32 -1.31487e-19 0)
(0 -9.62398e-20 0)
(0 -4.13755e-20 0)
(0 4.15773e-20 0)
(0 1.75486e-19 0)
(0 3.8848e-19 0)
(0 6.94823e-19 0)
(0 1.01034e-18 0)
(2.90867e-32 1.00141e-18 0)
(0 2.04939e-19 0)
(0 -1.22061e-18 0)
(0 -2.11637e-18 0)
(0 -1.74931e-18 0)
(0 -8.44607e-19 0)
(0 -2.82461e-19 0)
(0 -1.13444e-19 0)
(0 -8.58257e-20 0)
(0 -8.72603e-20 0)
(0 -9.07298e-20 0)
(0 -9.3397e-20 0)
(0 -9.6465e-20 0)
(0 -9.83594e-20 0)
(0 -1.00731e-19 0)
(0 -1.03646e-19 0)
(0 -1.07388e-19 0)
(0 -1.1091e-19 0)
(0 -1.14264e-19 0)
(0 -1.19241e-19 0)
(0 -1.24901e-19 0)
(0 -1.27879e-19 0)
(0 -1.31652e-19 0)
(0 -1.35952e-19 0)
(0 -1.39311e-19 0)
(0 -1.42114e-19 0)
(0 -1.44401e-19 0)
(0 -1.47773e-19 0)
(0 -1.51321e-19 0)
(0 -1.54708e-19 0)
(0 -1.58557e-19 0)
(0 -1.63006e-19 0)
(0 -1.67252e-19 0)
(0 -1.71465e-19 0)
(0 -1.75563e-19 0)
(0 -1.79542e-19 0)
(0 -1.83335e-19 0)
(0 -1.86945e-19 0)
(0 -1.90774e-19 0)
(0 -1.94762e-19 0)
(0 -1.98868e-19 0)
(0 -2.03272e-19 0)
(0 -2.07926e-19 0)
(0 -2.1268e-19 0)
(0 -2.17547e-19 0)
(0 -2.22506e-19 0)
(0 -2.27531e-19 0)
(0 -2.32645e-19 0)
(0 -2.37896e-19 0)
(0 -2.43306e-19 0)
(0 -2.48893e-19 0)
(0 -2.54689e-19 0)
(0 -2.60699e-19 0)
(0 -2.66919e-19 0)
(0 -2.73363e-19 0)
(0 -2.80045e-19 0)
(0 -2.8698e-19 0)
(0 -2.94189e-19 0)
(0 -3.01691e-19 0)
(0 -3.09503e-19 0)
(0 -3.17643e-19 0)
(0 -3.26128e-19 0)
(0 -3.34973e-19 0)
(0 -3.44196e-19 0)
(0 -3.53817e-19 0)
(0 -3.63854e-19 0)
(0 -3.7433e-19 0)
(0 -3.8527e-19 0)
(0 -3.96701e-19 0)
(0 -4.08652e-19 0)
(0 -4.21147e-19 0)
(0 -4.34207e-19 0)
(0 -4.47854e-19 0)
(0 -4.6213e-19 0)
(0 -4.77139e-19 0)
(0 -4.93079e-19 0)
(0 -5.10236e-19 0)
(0 -5.28867e-19 0)
(0 -5.48987e-19 0)
(0 -5.70235e-19 0)
(0 -5.91534e-19 0)
(0 1.52571e-16 0)
(0 1.24638e-15 0)
(0 6.82138e-15 0)
(0 3.76687e-14 0)
(0 2.27133e-13 0)
(0 1.52411e-12 0)
(0 1.15807e-11 0)
(0 1.01292e-10 0)
(0 1.0345e-09 0)
(0 1.25002e-08 0)
(0 1.81169e-07 0)
(0 3.20091e-06 0)
(0 8.17162e-05 0)
(0 0.00558847 0)
(0 0.234691 0)
(0 3.02533 0)
(0 2.57184 0)
(0 -0.975322 0)
(0 -2.06476 0)
(0 -3.13637 0)
(0 -3.27649 0)
(0 -3.1985 0)
(0 -3.067 0)
(0 -2.92526 0)
(0 -2.78897 0)
(0 -2.66321 0)
(0 -2.54881 0)
(0 -2.44504 0)
(0 -2.35071 0)
(0 -2.2646 0)
(0 -2.18562 0)
(0 -2.11281 0)
(0 -2.04536 0)
(0 -1.9826 0)
(0 -1.92394 0)
(0 -1.86888 0)
(0 -1.81701 0)
(0 -1.76795 0)
(0 -1.7214 0)
(0 -1.67708 0)
(0 -1.63478 0)
(0 -1.59428 0)
(0 -1.55543 0)
(0 -1.51809 0)
(0 -1.48215 0)
(0 -1.44749 0)
(0 -1.41405 0)
(0 -1.38177 0)
(0 -1.35058 0)
(0 -1.32046 0)
(0 -1.29138 0)
(0 -1.26334 0)
(0 -1.23636 0)
(0 -1.21058 0)
(0 -1.18625 0)
(0 -1.16387 0)
(0 -1.1441 0)
(0 -1.12775 0)
(0 -1.11548 0)
(0 -1.10744 0)
(0 -1.10321 0)
(0 -1.10184 0)
(0 -1.10151 0)
(0 -1.09889 0)
(0 -1.09033 0)
(0 -1.07513 0)
(0 -1.05729 0)
(0 -1.04325 0)
(0 -1.03553 0)
(0 -1.02846 0)
(0 -1.01671 0)
(-3.00614e-16 -0.998902 0)
(0 -0.966919 0)
(0 -0.917707 0)
(2.14708e-16 -0.863634 0)
(0 -0.805411 0)
(-2.67503e-16 -0.737681 0)
(0 -0.670189 0)
(1.62088e-16 -0.605664 0)
(0 -0.540515 0)
(0 -0.478918 0)
(0 -0.419634 0)
(1.08224e-16 -0.36462 0)
(0 -0.317424 0)
(0 -0.271676 0)
(0 -0.230496 0)
(0 -0.197047 0)
(0 -0.165843 0)
(-3.33642e-17 -0.137919 0)
(0 -0.11444 0)
(0 -0.0946714 0)
(0 -0.0778357 0)
(-1.72084e-17 -0.0627995 0)
(0 -0.0508875 0)
(0 -0.0411823 0)
(0 -0.0326646 0)
(0 -0.0258674 0)
(4.16879e-18 -0.0203396 0)
(0 -0.015745 0)
(0 -0.0120746 0)
(0 -0.00902031 0)
(0 -0.00686837 0)
(0 -0.00512646 0)
(0 -0.00370439 0)
(0 -0.00315286 0)
(0 -0.00147587 0)
(0 0 0)
(0 0 0)
(0 0 0)
(0 0 0)
(0 0 0)
(0 0 0)
(0 0 0)
(0 0 0)
(0 0 0)
(0 0 0)
(0 0 0)
(0 0 0)
(0 0 0)
(0 0 0)
(0 0 0)
(0 0 0)
(0 0 0)
(0 0 0)
(0 0 0)
(0 0 0)
(0 0 0)
(0 0 0)
(0 0 0)
(0 0 0)
(0 0 0)
(0 0 0)
(0 0 0)
(0 0 0)
(0 0 0)
(0 0 0)
(0 0 0)
(0 0 0)
(0 0 0)
(0 0 0)
(0 0 0)
(0 0 0)
(0 0 0)
(0 0 0)
(0 0 0)
(0 0 0)
(0 0 0)
(0 0 0)
(0 0 0)
(0 0 0)
(0 0 0)
(0 0 0)
(0 0 0)
(0 0 0)
(0 0 0)
(0 0 0)
(0 0 0)
(0 0 0)
(0 0 0)
(0 0 0)
(0 0 0)
(0 0 0)
(0 0 0)
(0 0 0)
(0 0 0)
(0 0 0)
(0 0 0)
(0 0 0)
(0 0 0)
(0 0 0)
(0 0 0)
(0 0 0)
(0 0 0)
(0 0 0)
(0 0 0)
(0 0 0)
(0 0 0)
(0 0 0)
(0 0 0)
(0 0 0)
(0 0 0)
(0 0 0)
(0 0 0)
(0 0 0)
(0 0 0)
(0 0 0)
(0 0 0)
(0 0 0)
(0 0 0)
(0 0 0)
(0 0 0)
(0 0 0)
(0 0 0)
(0 0 0)
(0 0 0)
(0 0 0)
(0 0 0)
(0 0 0)
(0 0 0)
(0 0 0)
(0 0 0)
(0 0 0)
(0 0 0)
(0 0 0)
(0 0 0)
(0 0 0)
(0 0 0)
(0 0 0)
(0 0 0)
(0 0 0)
(0 0 0)
(0 0 0)
(0 0 0)
(0 0 0)
(0 0 0)
(0 0 0)
(0 0 0)
(0 0 0)
(0 0 0)
(0 0 0)
(0 0 0)
(0 0 0)
(0 0 0)
(0 0 0)
(0 0 0)
(0 0 0)
(0 0 0)
(0 0 0)
(0 0 0)
)
;

boundaryField
{
    inandouthalf11
    {
        type            cyclic;
    }
    inandouthalf12
    {
        type            cyclic;
    }
    inandouthalf21
    {
        type            cyclic;
    }
    inandouthalf22
    {
        type            cyclic;
    }
    inandouthalf31
    {
        type            cyclic;
    }
    inandouthalf32
    {
        type            cyclic;
    }
    inandouthalf41
    {
        type            cyclic;
    }
    inandouthalf42
    {
        type            cyclic;
    }
    top
    {
        type            symmetryPlane;
    }
    walls
    {
        type            calculated;
        value           uniform (0 0 0);
    }
    frontAndBackPlanes
    {
        type            empty;
    }
}


// ************************************************************************* //
