/*--------------------------------*- C++ -*----------------------------------*\
| =========                 |                                                 |
| \\      /  F ield         | OpenFOAM: The Open Source CFD Toolbox           |
|  \\    /   O peration     | Version:  2.4.x                                 |
|   \\  /    A nd           | Web:      www.OpenFOAM.org                      |
|    \\/     M anipulation  |                                                 |
\*---------------------------------------------------------------------------*/
FoamFile
{
    version     2.0;
    format      ascii;
    class       volVectorField;
    location    "5.7";
    object      gradPf;
}
// * * * * * * * * * * * * * * * * * * * * * * * * * * * * * * * * * * * * * //

dimensions      [0 1 -2 0 0 0 0];

internalField   nonuniform List<vector> 
360
(
(0 54.1421 0)
(0 64.6856 0)
(0 4.63888 0)
(0 -10.1508 0)
(-3.34607e-14 -6.02249 0)
(-3.34619e-14 -3.52561 0)
(-3.3463e-14 -3.59 0)
(0 -3.82952 0)
(-3.34655e-14 -3.91122 0)
(0 -4.00999 0)
(-1.67341e-14 -4.03379 0)
(0 -4.01385 0)
(-1.67355e-14 -3.9949 0)
(0 -3.97765 0)
(0 -3.98736 0)
(0 -4.00534 0)
(0 -4.01068 0)
(-3.3478e-14 -4.00619 0)
(0 -4.02139 0)
(0 -4.01339 0)
(0 -4.00681 0)
(-3.34839e-14 -4.02316 0)
(0 -4.01853 0)
(0 -4.01948 0)
(0 -4.01976 0)
(-1.6745e-14 -4.00933 0)
(0 -4.01927 0)
(0 -4.03272 0)
(0 -4.02701 0)
(0 -4.02998 0)
(0 -4.06026 0)
(0 -4.05505 0)
(0 -4.08164 0)
(0 -4.10531 0)
(0 -4.09218 0)
(3.35063e-14 -4.09167 0)
(0 -4.07387 0)
(0 -4.07235 0)
(0 -3.98922 0)
(0 -3.93573 0)
(0 -3.90627 0)
(0 -3.80304 0)
(3.35184e-14 -3.78968 0)
(0 -3.80262 0)
(0 -3.82581 0)
(0 -3.94742 0)
(0 -4.09091 0)
(0 -4.35243 0)
(0 -4.78215 0)
(0 -5.19619 0)
(1.67673e-14 -5.58789 0)
(0 -5.79817 0)
(0 -5.56683 0)
(0 -4.84405 0)
(0 -3.91026 0)
(0 -3.08485 0)
(0 -2.58978 0)
(0 -2.43975 0)
(0 -2.40422 0)
(0 -2.50394 0)
(0 -2.59039 0)
(0 -2.64692 0)
(0 -2.71339 0)
(0 -2.74505 0)
(0 -2.78897 0)
(0 -2.84617 0)
(0 -2.92416 0)
(0 -2.99381 0)
(0 -3.05672 0)
(0 -3.16003 0)
(0 -3.27806 0)
(0 -3.32275 0)
(0 -3.38525 0)
(0 -3.459 0)
(0 -3.50569 0)
(0 -3.53661 0)
(0 -3.55266 0)
(0 -3.59366 0)
(0 -3.63648 0)
(0 -3.67303 0)
(0 -3.71785 0)
(0 -3.77381 0)
(0 -3.82183 0)
(0 -3.86594 0)
(0 -3.90446 0)
(0 -3.93734 0)
(0 -3.9634 0)
(0 -3.98288 0)
(0 -4.00441 0)
(0 -4.02655 0)
(0 -4.04828 0)
(0 -4.07306 0)
(0 -4.09962 0)
(0 -4.12476 0)
(0 -4.14864 0)
(0 -4.17075 0)
(0 -4.19057 0)
(0 -4.20843 0)
(0 -4.22513 0)
(0 -4.24092 0)
(0 -4.25595 0)
(0 -4.27059 0)
(0 -4.28469 0)
(0 -4.298 0)
(0 -4.31051 0)
(0 -4.32225 0)
(0 -4.33319 0)
(0 -4.3434 0)
(0 -4.3529 0)
(0 -4.36164 0)
(0 -4.36957 0)
(0 -4.37659 0)
(0 -4.3826 0)
(0 -4.38748 0)
(0 -4.39112 0)
(0 -4.39339 0)
(0 -4.39419 0)
(0 -4.39342 0)
(0 -4.39098 0)
(0 -4.38675 0)
(0 -4.38056 0)
(0 -4.37218 0)
(0 -4.36137 0)
(0 -4.3481 0)
(0 -4.3328 0)
(0 -4.31661 0)
(0 -4.30111 0)
(0 -4.28725 0)
(0 -4.27378 0)
(0 -4.25679 0)
(0 -4.23333 0)
(0 -4.20985 0)
(0 -4.20441 0)
(0 -4.2248 0)
(0 -4.24181 0)
(0 -4.22058 0)
(0 -4.1944 0)
(0 -4.26805 0)
(0 -4.48526 0)
(0 -4.6162 0)
(0 -4.3214 0)
(0 -4.22185 0)
(0 -4.7654 0)
(0 -5.31843 0)
(0 -6.76534 0)
(0 -11.5728 0)
(0 -12.4932 0)
(0 -5.46412 0)
(0 -0.868442 0)
(0 0 0)
(0 0 0)
(0 0 0)
(0 0 0)
(0 0 0)
(0 0 0)
(0 0 0)
(0 0 0)
(0 0 0)
(0 0 0)
(0 0 0)
(0 0 0)
(0 0 0)
(0 0 0)
(0 0 0)
(0 0 0)
(0 0 0)
(0 0 0)
(0 0 0)
(0 0 0)
(0 0 0)
(0 0 0)
(0 0 0)
(0 0 0)
(0 0 0)
(0 0 0)
(0 0 0)
(0 0 0)
(0 0 0)
(0 0 0)
(0 0 0)
(0 0 0)
(0 0 0)
(0 0 0)
(0 0 0)
(0 0 0)
(0 0 0)
(0 0 0)
(0 0 0)
(0 0 0)
(0 0 0)
(0 0 0)
(0 0 0)
(0 0 0)
(0 0 0)
(0 0 0)
(0 0 0)
(0 0 0)
(0 0 0)
(0 0 0)
(0 0 0)
(0 0 0)
(0 0 0)
(0 0 0)
(0 0 0)
(0 0 0)
(0 0 0)
(0 0 0)
(0 0 0)
(0 0 0)
(0 0 0)
(0 0 0)
(0 0 0)
(0 0 0)
(0 0 0)
(0 0 0)
(0 0 0)
(0 0 0)
(0 0 0)
(0 0 0)
(0 0 0)
(0 0 0)
(0 0 0)
(0 0 0)
(0 0 0)
(0 0 0)
(0 0 0)
(0 0 0)
(0 0 0)
(0 0 0)
(0 0 0)
(0 0 0)
(0 0 0)
(0 0 0)
(0 0 0)
(0 0 0)
(0 0 0)
(0 0 0)
(0 0 0)
(0 0 0)
(0 0 0)
(0 0 0)
(0 0 0)
(0 0 0)
(0 0 0)
(0 0 0)
(0 0 0)
(0 0 0)
(0 0 0)
(0 0 0)
(0 0 0)
(0 0 0)
(0 0 0)
(0 0 0)
(0 0 0)
(0 0 0)
(0 0 0)
(0 0 0)
(0 0 0)
(0 0 0)
(0 0 0)
(0 0 0)
(0 0 0)
(0 0 0)
(0 0 0)
(0 0 0)
(0 0 0)
(0 0 0)
(0 0 0)
(0 0 0)
(0 0 0)
(0 0 0)
(0 0 0)
(0 0 0)
(0 0 0)
(0 0 0)
(0 0 0)
(0 0 0)
(0 0 0)
(0 0 0)
(0 0 0)
(0 0 0)
(0 0 0)
(0 0 0)
(0 0 0)
(0 0 0)
(0 0 0)
(0 0 0)
(0 0 0)
(0 0 0)
(0 0 0)
(0 0 0)
(0 0 0)
(0 0 0)
(0 0 0)
(0 0 0)
(0 0 0)
(0 0 0)
(0 0 0)
(0 0 0)
(0 0 0)
(0 0 0)
(0 0 0)
(0 0 0)
(0 0 0)
(0 0 0)
(0 0 0)
(0 0 0)
(0 0 0)
(0 0 0)
(0 0 0)
(0 0 0)
(0 0 0)
(0 0 0)
(0 0 0)
(0 0 0)
(0 0 0)
(0 0 0)
(0 0 0)
(0 0 0)
(0 0 0)
(0 0 0)
(0 0 0)
(0 0 0)
(0 0 0)
(0 0 0)
(0 0 0)
(0 0 0)
(0 0 0)
(0 0 0)
(0 0 0)
(0 0 0)
(0 0 0)
(0 0 0)
(0 0 0)
(0 0 0)
(0 0 0)
(0 0 0)
(0 0 0)
(0 0 0)
(0 0 0)
(0 0 0)
(0 0 0)
(0 0 0)
(0 0 0)
(0 0 0)
(0 0 0)
(0 0 0)
(0 0 0)
(0 0 0)
(0 0 0)
(0 0 0)
(0 0 0)
(0 0 0)
(0 0 0)
(0 0 0)
(0 0 0)
(0 0 0)
(0 0 0)
(0 0 0)
(0 0 0)
)
;

boundaryField
{
    inandouthalf11
    {
        type            cyclic;
    }
    inandouthalf12
    {
        type            cyclic;
    }
    inandouthalf21
    {
        type            cyclic;
    }
    inandouthalf22
    {
        type            cyclic;
    }
    inandouthalf31
    {
        type            cyclic;
    }
    inandouthalf32
    {
        type            cyclic;
    }
    inandouthalf41
    {
        type            cyclic;
    }
    inandouthalf42
    {
        type            cyclic;
    }
    top
    {
        type            symmetryPlane;
    }
    walls
    {
        type            calculated;
        value           uniform (0 0 0);
    }
    frontAndBackPlanes
    {
        type            empty;
    }
}


// ************************************************************************* //
