/*--------------------------------*- C++ -*----------------------------------*\
| =========                 |                                                 |
| \\      /  F ield         | OpenFOAM: The Open Source CFD Toolbox           |
|  \\    /   O peration     | Version:  2.4.x                                 |
|   \\  /    A nd           | Web:      www.OpenFOAM.org                      |
|    \\/     M anipulation  |                                                 |
\*---------------------------------------------------------------------------*/
FoamFile
{
    version     2.0;
    format      ascii;
    class       volScalarField;
    location    "5.7";
    object      k_0;
}
// * * * * * * * * * * * * * * * * * * * * * * * * * * * * * * * * * * * * * //

dimensions      [0 2 -2 0 0 0 0];

internalField   nonuniform List<scalar> 
360
(
1e-20
1e-20
1e-20
1e-20
1e-20
1e-20
1e-20
1e-20
1e-20
1e-20
1e-20
1e-20
1e-20
1e-20
1e-20
1e-20
1e-20
1e-20
1e-20
1e-20
1e-20
1e-20
1e-20
1e-20
1e-20
1e-20
1e-20
1e-20
1e-20
1e-20
1e-20
1e-20
1e-20
1e-20
1e-20
1e-20
1e-20
1e-20
1e-20
1e-20
1e-20
1e-20
1e-20
1e-20
1e-20
1e-20
1e-20
1e-20
1e-20
1e-20
1e-20
1e-20
1e-20
1e-20
1e-20
1e-20
1e-20
1e-20
1e-20
1e-20
1e-20
1e-20
1e-20
1e-20
1e-20
1e-20
1e-20
1e-20
1e-20
1e-20
1e-20
1e-20
1e-20
1e-20
1e-20
1e-20
1e-20
1e-20
1e-20
1e-20
1e-20
1e-20
1e-20
1e-20
1e-20
1e-20
1e-20
1e-20
1e-20
1e-20
1e-20
1e-20
1e-20
1e-20
1e-20
1e-20
1e-20
1e-20
1e-20
1e-20
1e-20
1e-20
1e-20
1e-20
1e-20
1e-20
1e-20
1e-20
1e-20
1e-20
1e-20
1e-20
1e-20
1e-20
1e-20
1e-20
1e-20
1e-20
1e-20
1e-20
1e-20
1e-20
1e-20
1e-20
1e-20
1e-20
1e-20
1e-20
1e-20
1e-20
1e-20
1e-20
1.9042e-20
8.37239e-20
4.23152e-19
2.3198e-18
1.39356e-17
9.3208e-17
7.06421e-16
6.16954e-15
6.29837e-14
7.61261e-13
1.10469e-11
1.94681e-10
4.19968e-09
1.1178e-07
3.67202e-06
0.000123857
0.00189244
0.00486506
0.00620143
0.00694899
0.0074184
0.00773454
0.00795769
0.00811895
0.00823529
0.0083167
0.0083696
0.00839849
0.0084068
0.00839722
0.00837199
0.00833296
0.00828171
0.00821958
0.00814774
0.00806719
0.00797879
0.00788331
0.00778141
0.00767369
0.00756066
0.0074428
0.00732053
0.00719422
0.00706423
0.00693087
0.00679442
0.00665517
0.00651336
0.00636924
0.00622302
0.00607494
0.00592519
0.00577398
0.00562152
0.00546799
0.00531359
0.00515853
0.005003
0.00484719
0.00469132
0.00453559
0.00438022
0.00422542
0.00407141
0.00391843
0.00376672
0.0036165
0.00346805
0.00332014
0.00317163
0.00302294
0.00287449
0.0027268
0.00258041
0.00243593
0.00229402
0.00215537
0.00202073
0.00189084
0.00176647
0.00164834
0.0015371
0.00143333
0.00133745
0.00124973
0.00117027
0.00109895
0.00103547
0.000979384
0.000930105
0.000886959
0.000849226
0.000816165
0.000787048
0.000761176
0.000737886
0.000716561
0.000696627
0.000677555
0.000658858
0.000640089
0.000620842
0.000600746
0.000579468
0.000556714
0.000532229
0.000505796
0.00047724
0.000446432
0.000413292
0.000377798
0.000339994
0.000300008
0.000258073
0.00021456
0.000170039
0.000125368
8.18695e-05
4.17768e-05
1.06217e-05
6.72081e-07
1.35979e-08
2.24903e-10
3.49306e-12
5.11445e-14
7.06399e-16
9.21468e-18
1.21231e-19
1.05119e-20
1e-20
1e-20
1e-20
1e-20
1e-20
1e-20
1e-20
1e-20
1e-20
1e-20
1e-20
1e-20
1e-20
1e-20
1e-20
1e-20
1e-20
1e-20
1e-20
1e-20
1e-20
1e-20
1e-20
1e-20
1e-20
1e-20
1e-20
1e-20
1e-20
1e-20
1e-20
1e-20
1e-20
1e-20
1e-20
1e-20
1e-20
1e-20
1e-20
1e-20
1e-20
1e-20
1e-20
1e-20
1e-20
1e-20
1e-20
1e-20
1e-20
1e-20
1e-20
1e-20
1e-20
1e-20
1e-20
1e-20
1e-20
1e-20
1e-20
1e-20
1e-20
1e-20
1e-20
1e-20
1e-20
1e-20
1e-20
1e-20
1e-20
1e-20
1e-20
1e-20
1e-20
1e-20
1e-20
1e-20
1e-20
1e-20
1e-20
1e-20
1e-20
1e-20
1e-20
1e-20
1e-20
1e-20
1e-20
1e-20
1e-20
1e-20
1e-20
1e-20
1e-20
1e-20
1e-20
1e-20
1e-20
1e-20
)
;

boundaryField
{
    inandouthalf11
    {
        type            cyclic;
    }
    inandouthalf12
    {
        type            cyclic;
    }
    inandouthalf21
    {
        type            cyclic;
    }
    inandouthalf22
    {
        type            cyclic;
    }
    inandouthalf31
    {
        type            cyclic;
    }
    inandouthalf32
    {
        type            cyclic;
    }
    inandouthalf41
    {
        type            cyclic;
    }
    inandouthalf42
    {
        type            cyclic;
    }
    top
    {
        type            symmetryPlane;
    }
    walls
    {
        type            zeroGradient;
    }
    frontAndBackPlanes
    {
        type            empty;
    }
}


// ************************************************************************* //
