/*--------------------------------*- C++ -*----------------------------------*\
| =========                 |                                                 |
| \\      /  F ield         | OpenFOAM: The Open Source CFD Toolbox           |
|  \\    /   O peration     | Version:  2.4.x                                 |
|   \\  /    A nd           | Web:      www.OpenFOAM.org                      |
|    \\/     M anipulation  |                                                 |
\*---------------------------------------------------------------------------*/
FoamFile
{
    version     2.0;
    format      ascii;
    class       volScalarField;
    location    "5.7";
    object      mua;
}
// * * * * * * * * * * * * * * * * * * * * * * * * * * * * * * * * * * * * * //

dimensions      [1 -1 -1 0 0 0 0];

internalField   nonuniform List<scalar> 
360
(
765387
501731
604914
641527
614617
592344
581536
574985
569182
562540
554853
546831
538990
531557
524393
517269
510142
503093
496151
489338
482798
476382
470092
463936
457858
451803
445620
439080
432173
424869
417096
408947
400772
392770
385705
380109
376566
375443
377080
381469
387486
393713
397580
395442
384079
361073
326464
283397
237362
195317
163359
145639
146697
176909
267800
523575
1.33246e+06
4.3341e+06
1.72182e+07
7.75499e+07
3.58777e+08
1.54221e+09
5.64411e+09
1.65378e+10
3.74661e+10
6.50722e+10
8.8164e+10
9.70107e+10
9.14735e+10
7.80585e+10
6.31483e+10
5.0215e+10
4.02268e+10
3.29179e+10
2.77377e+10
2.41443e+10
2.17128e+10
2.01117e+10
1.90994e+10
1.85027e+10
1.81909e+10
1.80576e+10
1.80247e+10
1.8038e+10
1.80608e+10
1.80725e+10
1.80633e+10
1.8031e+10
1.79729e+10
1.7885e+10
1.77629e+10
1.76016e+10
1.73965e+10
1.71466e+10
1.68547e+10
1.65265e+10
1.61697e+10
1.57929e+10
1.54038e+10
1.50091e+10
1.46139e+10
1.42221e+10
1.38365e+10
1.34591e+10
1.30918e+10
1.27356e+10
1.23911e+10
1.20586e+10
1.17376e+10
1.14271e+10
1.11259e+10
1.08322e+10
1.05437e+10
1.02578e+10
9.97168e+09
9.68211e+09
9.38599e+09
9.08048e+09
8.76349e+09
8.43421e+09
8.09366e+09
7.74508e+09
7.39411e+09
7.04839e+09
6.71693e+09
6.40914e+09
6.13421e+09
5.90122e+09
5.71964e+09
5.59966e+09
5.55013e+09
5.57279e+09
5.65444e+09
5.76533e+09
5.8718e+09
5.95022e+09
5.97395e+09
5.89445e+09
5.69996e+09
5.5699e+09
5.96915e+09
7.65962e+09
1.20284e+10
2.33158e+10
5.07379e+10
5.91057e+10
39789.2
0.03832
0.0114839
0.00831491
0.00708971
0.00636228
0.00593026
0.00568934
0.0055693
0.00552131
0.00551318
0.00552493
0.00554482
0.00556628
0.00558581
0.0056017
0.0056132
0.00562013
0.00562256
0.00562071
0.00561487
0.00560532
0.00559236
0.00557626
0.00555727
0.00553564
0.00551159
0.00548533
0.00545705
0.00542694
0.00539517
0.00536193
0.00532736
0.00529164
0.00525491
0.00521733
0.00517903
0.00514017
0.00510087
0.00506127
0.00502149
0.00498166
0.00494188
0.00490225
0.00486287
0.00482381
0.00478515
0.00474692
0.00470916
0.00467189
0.00463512
0.00459884
0.00456303
0.00452767
0.00449272
0.00445779
0.00442249
0.00438675
0.0043505
0.00431367
0.00427615
0.00423787
0.00419872
0.00415858
0.00411735
0.0040749
0.0040311
0.0039858
0.00393886
0.00389011
0.00383937
0.00378642
0.00373105
0.003673
0.00361198
0.00354765
0.00347963
0.00340746
0.00333061
0.0032484
0.00316003
0.00306447
0.0029604
0.00284608
0.00271907
0.00257589
0.00241117
0.00221589
0.00197271
0.00163901
0
0
0
0
0
0
0
0
0
0
0
0
0
0
0
0
0
0
0
0
0
0
0
0
0
0
0
0
0
0
0
0
0
0
0
0
0
0
0
0
0
0
0
0
0
0
0
0
0
0
0
0
0
0
0
0
0
0
0
0
0
0
0
0
0
0
0
0
0
0
0
0
0
0
0
0
0
0
0
0
0
0
0
0
0
0
0
0
0
0
0
0
0
0
0
0
0
0
0
0
0
0
0
0
0
0
0
0
0
0
0
0
0
0
0
0
0
0
0
0
0
0
0
0
)
;

boundaryField
{
    inandouthalf11
    {
        type            cyclic;
    }
    inandouthalf12
    {
        type            cyclic;
    }
    inandouthalf21
    {
        type            cyclic;
    }
    inandouthalf22
    {
        type            cyclic;
    }
    inandouthalf31
    {
        type            cyclic;
    }
    inandouthalf32
    {
        type            cyclic;
    }
    inandouthalf41
    {
        type            cyclic;
    }
    inandouthalf42
    {
        type            cyclic;
    }
    top
    {
        type            symmetryPlane;
    }
    walls
    {
        type            calculated;
        value           uniform 1e+30;
    }
    frontAndBackPlanes
    {
        type            empty;
    }
}


// ************************************************************************* //
