/*--------------------------------*- C++ -*----------------------------------*\
| =========                 |                                                 |
| \\      /  F ield         | OpenFOAM: The Open Source CFD Toolbox           |
|  \\    /   O peration     | Version:  2.4.x                                 |
|   \\  /    A nd           | Web:      www.OpenFOAM.org                      |
|    \\/     M anipulation  |                                                 |
\*---------------------------------------------------------------------------*/
FoamFile
{
    version     2.0;
    format      ascii;
    class       volScalarField;
    location    "5.7";
    object      nutb;
}
// * * * * * * * * * * * * * * * * * * * * * * * * * * * * * * * * * * * * * //

dimensions      [0 2 -1 0 0 0 0];

internalField   nonuniform List<scalar> 
360
(
9e-22
9e-22
9e-22
9e-22
9e-22
9e-22
9e-22
9e-22
9e-22
9e-22
9e-22
9e-22
9e-22
9e-22
9e-22
9e-22
9e-22
9e-22
9e-22
9e-22
9e-22
9e-22
9e-22
9e-22
9e-22
9e-22
9e-22
9e-22
9e-22
9e-22
9e-22
9e-22
9e-22
9e-22
9e-22
9e-22
9e-22
9e-22
9e-22
9e-22
9e-22
9e-22
9e-22
9e-22
9e-22
9e-22
9e-22
9e-22
9e-22
9e-22
9e-22
9e-22
9e-22
9e-22
9e-22
9e-22
9e-22
9e-22
9e-22
9e-22
9e-22
9e-22
9e-22
9e-22
9e-22
9e-22
9e-22
9e-22
9e-22
9e-22
9e-22
9e-22
9e-22
9e-22
9e-22
9e-22
9e-22
9e-22
9e-22
9e-22
9e-22
9e-22
9e-22
9e-22
9e-22
9e-22
9e-22
9e-22
9e-22
9e-22
9e-22
9e-22
9e-22
9e-22
9e-22
9e-22
9e-22
9e-22
9e-22
9e-22
9e-22
9e-22
9e-22
9e-22
9e-22
9e-22
9e-22
9e-22
9e-22
9e-22
9e-22
9e-22
9e-22
9e-22
9e-22
9e-22
9e-22
9e-22
9e-22
9e-22
9e-22
9e-22
9e-22
9e-22
9e-22
9e-22
9e-22
9e-22
9e-22
9e-22
9e-22
9e-22
1.26481e-21
4.83622e-21
2.14931e-20
1.02312e-19
5.26066e-19
2.96977e-18
1.87616e-17
1.35131e-16
1.12659e-15
1.10148e-14
1.28337e-13
1.80588e-12
3.09486e-11
6.51956e-10
1.6925e-08
4.34923e-07
5.24324e-06
1.39142e-05
2.1243e-05
2.7945e-05
3.44502e-05
4.0946e-05
4.75056e-05
5.41312e-05
6.07861e-05
6.74182e-05
7.39727e-05
8.04001e-05
8.66585e-05
9.27144e-05
9.85417e-05
0.000104121
0.000109438
0.000114482
0.000119248
0.000123732
0.000127932
0.000131849
0.000135483
0.000138838
0.000141918
0.000144726
0.000147266
0.000149545
0.000151566
0.000153337
0.000154863
0.000156149
0.000157203
0.00015803
0.000158636
0.000159029
0.000159215
0.000159201
0.000158994
0.0001586
0.000158027
0.000157283
0.000156375
0.000155311
0.000154099
0.000152748
0.000151267
0.000149663
0.000147947
0.000146128
0.000144216
0.000142221
0.000140155
0.000138008
0.000135768
0.000133445
0.000131052
0.000128604
0.00012612
0.000123622
0.000121135
0.000118686
0.000116309
0.000114038
0.000111909
0.00010996
0.000108225
0.000106737
0.000105518
0.000104581
0.000103924
0.000103528
0.000103359
0.000103366
0.000103488
0.000103656
0.000103803
0.000103864
0.000103787
0.000103526
0.000103053
0.000102345
0.000101393
0.00010019
9.87332e-05
9.70218e-05
9.50539e-05
9.28259e-05
9.0332e-05
8.75641e-05
8.45119e-05
8.11628e-05
7.75027e-05
7.35161e-05
6.91868e-05
6.44981e-05
5.94334e-05
5.39765e-05
4.81118e-05
4.18256e-05
3.51059e-05
2.79433e-05
2.03307e-05
1.22887e-05
3.97792e-06
3.01842e-07
6.26821e-09
1.03131e-10
1.5924e-12
2.31835e-14
3.18456e-16
4.11943e-18
4.27556e-20
9.95513e-22
9e-22
9e-22
9e-22
9e-22
9e-22
9e-22
9e-22
9e-22
9e-22
9e-22
9e-22
9e-22
9e-22
9e-22
9e-22
9e-22
9e-22
9e-22
9e-22
9e-22
9e-22
9e-22
9e-22
9e-22
9e-22
9e-22
9e-22
9e-22
9e-22
9e-22
9e-22
9e-22
9e-22
9e-22
9e-22
9e-22
9e-22
9e-22
9e-22
9e-22
9e-22
9e-22
9e-22
9e-22
9e-22
9e-22
9e-22
9e-22
9e-22
9e-22
9e-22
9e-22
9e-22
9e-22
9e-22
9e-22
9e-22
9e-22
9e-22
9e-22
9e-22
9e-22
9e-22
9e-22
9e-22
9e-22
9e-22
9e-22
9e-22
9e-22
9e-22
9e-22
9e-22
9e-22
9e-22
9e-22
9e-22
9e-22
9e-22
9e-22
9e-22
9e-22
9e-22
9e-22
9e-22
9e-22
9e-22
9e-22
9e-22
9e-22
9e-22
9e-22
9e-22
9e-22
9e-22
9e-22
9e-22
9e-22
)
;

boundaryField
{
    inandouthalf11
    {
        type            cyclic;
    }
    inandouthalf12
    {
        type            cyclic;
    }
    inandouthalf21
    {
        type            cyclic;
    }
    inandouthalf22
    {
        type            cyclic;
    }
    inandouthalf31
    {
        type            cyclic;
    }
    inandouthalf32
    {
        type            cyclic;
    }
    inandouthalf41
    {
        type            cyclic;
    }
    inandouthalf42
    {
        type            cyclic;
    }
    top
    {
        type            symmetryPlane;
    }
    walls
    {
        type            calculated;
        value           uniform 0;
    }
    frontAndBackPlanes
    {
        type            empty;
    }
}


// ************************************************************************* //
