/*--------------------------------*- C++ -*----------------------------------*\
| =========                 |                                                 |
| \\      /  F ield         | OpenFOAM: The Open Source CFD Toolbox           |
|  \\    /   O peration     | Version:  2.4.x                                 |
|   \\  /    A nd           | Web:      www.OpenFOAM.org                      |
|    \\/     M anipulation  |                                                 |
\*---------------------------------------------------------------------------*/
FoamFile
{
    version     2.0;
    format      ascii;
    class       volScalarField;
    location    "5.7";
    object      p;
}
// * * * * * * * * * * * * * * * * * * * * * * * * * * * * * * * * * * * * * //

dimensions      [1 -1 -2 0 0 0 0];

internalField   nonuniform List<scalar> 
360
(
4898.95
4894.04
4889.13
4884.23
4879.32
4874.41
4869.5
4864.59
4859.67
4854.76
4849.84
4844.93
4840.01
4835.1
4830.18
4825.26
4820.34
4815.41
4810.49
4805.57
4800.64
4795.72
4790.79
4785.86
4780.93
4776
4771.07
4766.14
4761.2
4756.27
4751.33
4746.4
4741.46
4736.52
4731.58
4726.64
4721.7
4716.75
4711.81
4706.86
4701.91
4696.96
4692.02
4687.06
4682.11
4677.16
4672.21
4667.25
4662.3
4657.34
4652.38
4647.41
4642.45
4637.48
4632.51
4627.54
4622.57
4617.6
4612.63
4607.65
4602.68
4597.71
4592.74
4587.77
4582.79
4577.82
4572.85
4567.88
4562.91
4557.94
4552.96
4547.99
4543.02
4538.05
4533.08
4528.11
4523.13
4518.16
4513.19
4508.22
4503.25
4498.28
4493.31
4488.34
4483.36
4478.39
4473.42
4468.45
4463.48
4458.51
4453.54
4448.57
4443.6
4438.62
4433.65
4428.68
4423.71
4418.74
4413.77
4408.8
4403.83
4398.86
4393.89
4388.92
4383.95
4378.98
4374.01
4369.04
4364.07
4359.1
4354.13
4349.16
4344.19
4339.22
4334.25
4329.28
4324.31
4319.34
4314.37
4309.4
4304.43
4299.46
4294.49
4289.52
4284.55
4279.59
4274.62
4269.65
4264.68
4259.71
4254.74
4249.78
4244.81
4239.84
4234.87
4229.9
4224.94
4219.97
4215
4210.04
4205.07
4200.1
4195.14
4190.17
4185.2
4180.24
4175.27
4170.22
4162.3
4153.98
4147.35
4141.28
4135.48
4129.86
4124.39
4119.03
4113.75
4108.56
4103.42
4098.34
4093.29
4088.28
4083.3
4078.35
4073.41
4068.49
4063.59
4058.69
4053.81
4048.94
4044.08
4039.22
4034.37
4029.53
4024.69
4019.86
4015.03
4010.2
4005.38
4000.56
3995.74
3990.93
3986.11
3981.3
3976.49
3971.68
3966.88
3962.07
3957.27
3952.46
3947.66
3942.86
3938.05
3933.25
3928.45
3923.64
3918.84
3914.04
3909.23
3904.43
3899.62
3894.76
3889.81
3884.75
3879.58
3874.31
3868.93
3863.44
3857.83
3852.1
3846.25
3840.28
3834.18
3827.96
3821.6
3815.1
3808.47
3801.69
3794.77
3787.71
3780.49
3773.12
3765.6
3757.92
3750.08
3742.08
3733.91
3725.57
3717.06
3708.38
3699.52
3690.48
3681.25
3671.84
3662.24
3652.44
3642.44
3632.24
3621.84
3611.22
3600.39
3589.35
3578.07
3566.57
3554.84
3542.88
3530.66
3518.21
3505.5
3492.53
3479.29
3465.79
3452
3437.92
3423.55
3408.88
3393.92
3378.66
3363.08
3347.19
3330.97
3314.43
3297.55
3280.33
3262.76
3244.83
3226.54
3207.87
3188.83
3169.4
3149.58
3129.35
3108.72
3087.66
3066.18
3044.26
3021.9
2999.08
2975.8
2952.05
2927.81
2903.09
2877.86
2852.12
2825.86
2799.06
2771.72
2743.82
2715.36
2686.32
2656.7
2626.47
2595.62
2564.15
2532.05
2499.29
2465.86
2431.76
2396.96
2361.46
2325.24
2288.28
2250.57
2212.1
2172.85
2132.8
2091.93
2050.24
2007.7
1964.3
1922.76
1883.52
1844.28
1805.04
1765.8
1726.56
1687.32
1648.08
1608.84
1569.6
1530.36
1491.12
1451.88
1412.64
1373.4
1334.16
1294.92
1255.68
1216.44
1177.2
1137.96
1098.72
1059.48
1020.24
981
941.76
902.52
863.28
824.04
784.8
745.56
706.32
667.08
627.84
588.6
549.36
510.12
470.88
431.64
392.4
353.16
313.92
274.68
235.44
196.2
156.96
117.72
78.48
39.24
2.44802e-07
)
;

boundaryField
{
    inandouthalf11
    {
        type            cyclic;
    }
    inandouthalf12
    {
        type            cyclic;
    }
    inandouthalf21
    {
        type            cyclic;
    }
    inandouthalf22
    {
        type            cyclic;
    }
    inandouthalf31
    {
        type            cyclic;
    }
    inandouthalf32
    {
        type            cyclic;
    }
    inandouthalf41
    {
        type            cyclic;
    }
    inandouthalf42
    {
        type            cyclic;
    }
    top
    {
        type            symmetryPlane;
    }
    walls
    {
        type            slip;
    }
    frontAndBackPlanes
    {
        type            empty;
    }
}


// ************************************************************************* //
