/*--------------------------------*- C++ -*----------------------------------*\
| =========                 |                                                 |
| \\      /  F ield         | OpenFOAM: The Open Source CFD Toolbox           |
|  \\    /   O peration     | Version:  2.4.x                                 |
|   \\  /    A nd           | Web:      www.OpenFOAM.org                      |
|    \\/     M anipulation  |                                                 |
\*---------------------------------------------------------------------------*/
FoamFile
{
    version     2.0;
    format      ascii;
    class       surfaceScalarField;
    location    "5.7";
    object      phia;
}
// * * * * * * * * * * * * * * * * * * * * * * * * * * * * * * * * * * * * * //

dimensions      [0 3 -1 0 0 0 0];

internalField   nonuniform List<scalar> 
359
(
-4.38775e-13
-1.15787e-12
-1.81766e-12
-2.43356e-12
-3.05767e-12
-3.69826e-12
-4.34759e-12
-5.00036e-12
-5.65506e-12
-6.31277e-12
-6.97479e-12
-7.64155e-12
-8.31307e-12
-8.98895e-12
-9.66897e-12
-1.03532e-11
-1.10417e-11
-1.17346e-11
-1.24317e-11
-1.31331e-11
-1.38383e-11
-1.45475e-11
-1.52604e-11
-1.59769e-11
-1.66971e-11
-1.74211e-11
-1.81489e-11
-1.88816e-11
-1.96197e-11
-2.03641e-11
-2.11158e-11
-2.18761e-11
-2.26448e-11
-2.34224e-11
-2.42071e-11
-2.49962e-11
-2.57854e-11
-2.65696e-11
-2.73436e-11
-2.81013e-11
-2.88407e-11
-2.95617e-11
-3.0269e-11
-3.09739e-11
-3.16926e-11
-3.24499e-11
-3.32792e-11
-3.42244e-11
-3.53402e-11
-3.668e-11
-3.82604e-11
-4.00091e-11
-4.17213e-11
-4.31235e-11
-4.40391e-11
-4.45033e-11
-4.46842e-11
-4.47394e-11
-4.47533e-11
-4.47563e-11
-4.4757e-11
-4.47571e-11
-4.47572e-11
-4.47572e-11
-4.47572e-11
-4.47572e-11
-4.47572e-11
-4.47572e-11
-4.47572e-11
-4.47572e-11
-4.47572e-11
-4.47572e-11
-4.47572e-11
-4.47572e-11
-4.47572e-11
-4.47572e-11
-4.47572e-11
-4.47572e-11
-4.47572e-11
-4.47573e-11
-4.47573e-11
-4.47573e-11
-4.47573e-11
-4.47573e-11
-4.47573e-11
-4.47573e-11
-4.47573e-11
-4.47573e-11
-4.47573e-11
-4.47574e-11
-4.47574e-11
-4.47574e-11
-4.47574e-11
-4.47574e-11
-4.47574e-11
-4.47574e-11
-4.47574e-11
-4.47574e-11
-4.47574e-11
-4.47574e-11
-4.47575e-11
-4.47575e-11
-4.47575e-11
-4.47575e-11
-4.47575e-11
-4.47575e-11
-4.47575e-11
-4.47575e-11
-4.47575e-11
-4.47575e-11
-4.47576e-11
-4.47576e-11
-4.47576e-11
-4.47576e-11
-4.47576e-11
-4.47576e-11
-4.47576e-11
-4.47576e-11
-4.47576e-11
-4.47576e-11
-4.47577e-11
-4.47577e-11
-4.47577e-11
-4.47577e-11
-4.47577e-11
-4.47577e-11
-4.47577e-11
-4.47577e-11
-4.47577e-11
-4.47577e-11
-4.47578e-11
-4.47578e-11
-4.47578e-11
-4.47578e-11
-4.47578e-11
-4.47578e-11
-4.47578e-11
-4.47578e-11
-4.47578e-11
-4.47578e-11
-4.47578e-11
-4.47578e-11
-4.47578e-11
-4.47578e-11
-4.47578e-11
-4.47578e-11
-4.48211e-11
-2.17579e-10
-6.46141e-10
-9.67228e-10
-1.19105e-09
-1.37299e-09
-1.52737e-09
-1.6559e-09
-1.75577e-09
-1.82314e-09
-1.85453e-09
-1.84733e-09
-1.79984e-09
-1.71114e-09
-1.58091e-09
-1.40928e-09
-1.19673e-09
-9.4398e-10
-6.51952e-10
-3.21691e-10
4.56639e-11
4.48927e-10
8.86864e-10
1.35824e-09
1.86182e-09
2.39638e-09
2.9607e-09
3.5536e-09
4.17388e-09
4.82036e-09
5.49186e-09
6.1872e-09
6.90519e-09
7.64461e-09
8.40423e-09
9.18279e-09
9.97898e-09
1.07914e-08
1.16184e-08
1.24581e-08
1.33075e-08
1.41627e-08
1.50178e-08
1.58648e-08
1.66938e-08
1.74939e-08
1.82538e-08
1.89633e-08
1.96146e-08
2.02044e-08
2.07339e-08
2.12075e-08
2.16285e-08
2.19973e-08
2.23123e-08
2.25793e-08
2.27969e-08
2.29641e-08
2.30864e-08
2.31702e-08
2.32183e-08
2.32368e-08
2.32321e-08
2.32068e-08
2.3165e-08
2.31099e-08
2.30429e-08
2.29679e-08
2.28854e-08
2.27952e-08
2.27012e-08
2.26022e-08
2.24974e-08
2.23885e-08
2.22745e-08
2.21564e-08
2.20314e-08
2.18994e-08
2.17623e-08
2.16146e-08
2.14564e-08
2.12856e-08
2.10979e-08
2.08888e-08
2.06551e-08
2.03819e-08
2.00846e-08
1.96853e-08
1.92867e-08
1.79006e-08
6.59459e-09
5.94518e-09
5.89053e-09
-8.91079e-08
-1.55317e-07
-1.58532e-07
-1.58334e-07
-1.58359e-07
-1.58363e-07
-1.58367e-07
-1.5837e-07
-1.5837e-07
-1.58367e-07
-1.58358e-07
-1.5834e-07
-1.58303e-07
-1.58226e-07
-1.582e-07
-1.582e-07
-1.582e-07
-1.582e-07
-1.582e-07
-1.582e-07
-1.582e-07
-1.582e-07
-1.582e-07
-1.582e-07
-1.582e-07
-1.582e-07
-1.582e-07
-1.582e-07
-1.582e-07
-1.582e-07
-1.582e-07
-1.582e-07
-1.582e-07
-1.582e-07
-1.582e-07
-1.582e-07
-1.582e-07
-1.582e-07
-1.582e-07
-1.582e-07
-1.582e-07
-1.582e-07
-1.582e-07
-1.582e-07
-1.582e-07
-1.582e-07
-1.582e-07
-1.582e-07
-1.582e-07
-1.582e-07
-1.582e-07
-1.582e-07
-1.582e-07
-1.582e-07
-1.582e-07
-1.582e-07
-1.582e-07
-1.582e-07
-1.582e-07
-1.582e-07
-1.582e-07
-1.582e-07
-1.582e-07
-1.582e-07
-1.582e-07
-1.582e-07
-1.582e-07
-1.582e-07
-1.582e-07
-1.582e-07
-1.582e-07
-1.582e-07
-1.582e-07
-1.582e-07
-1.582e-07
-1.582e-07
-1.582e-07
-1.582e-07
-1.582e-07
-1.582e-07
-1.582e-07
-1.582e-07
-1.582e-07
-1.582e-07
-1.582e-07
-1.582e-07
-1.582e-07
-1.582e-07
-1.582e-07
-1.582e-07
-1.582e-07
-1.582e-07
-1.582e-07
-1.582e-07
-1.582e-07
-1.582e-07
-1.582e-07
-1.582e-07
-1.582e-07
-1.582e-07
-1.582e-07
-1.582e-07
-1.582e-07
-1.582e-07
-1.582e-07
-1.582e-07
-1.582e-07
-1.582e-07
-1.582e-07
-1.582e-07
-1.582e-07
-1.582e-07
-1.582e-07
-1.582e-07
-1.582e-07
-1.582e-07
-1.582e-07
-1.58183e-07
-1.57477e-07
-1.3239e-07
)
;

boundaryField
{
    inandouthalf11
    {
        type            cyclic;
        value           nonuniform List<scalar> 
100
(
1.0183e-38
3.21413e-14
6.89474e-14
1.01623e-13
1.34042e-13
1.67777e-13
2.02455e-13
2.37645e-13
2.73205e-13
3.09145e-13
3.45532e-13
3.82422e-13
4.19835e-13
4.57763e-13
4.96195e-13
5.35133e-13
5.74587e-13
6.14567e-13
6.5508e-13
6.9613e-13
7.37712e-13
7.79824e-13
8.22466e-13
8.6564e-13
9.09349e-13
9.536e-13
9.98412e-13
1.04383e-12
1.08989e-12
1.13667e-12
1.18424e-12
1.23268e-12
1.28203e-12
1.33233e-12
1.38354e-12
1.43554e-12
1.4881e-12
1.54092e-12
1.59363e-12
1.64586e-12
1.69731e-12
1.74788e-12
1.79773e-12
1.8474e-12
1.89786e-12
1.95056e-12
2.00758e-12
2.07177e-12
2.14681e-12
2.23698e-12
2.34558e-12
2.47145e-12
2.60431e-12
2.72416e-12
2.81127e-12
2.86015e-12
2.88097e-12
2.88777e-12
2.88956e-12
2.88997e-12
2.89005e-12
2.89007e-12
2.89008e-12
2.89008e-12
2.89008e-12
2.89008e-12
2.89008e-12
2.89008e-12
2.89008e-12
2.89008e-12
2.89008e-12
2.89008e-12
2.89008e-12
2.89009e-12
2.89009e-12
2.89009e-12
2.89009e-12
2.89009e-12
2.89009e-12
2.89009e-12
2.89009e-12
2.89009e-12
2.89009e-12
2.89009e-12
2.8901e-12
2.8901e-12
2.8901e-12
2.8901e-12
2.8901e-12
2.8901e-12
2.8901e-12
2.8901e-12
2.8901e-12
2.8901e-12
2.89011e-12
2.89011e-12
2.89011e-12
2.89011e-12
2.89011e-12
2.89011e-12
)
;
    }
    inandouthalf12
    {
        type            cyclic;
        value           nonuniform List<scalar> 
100
(
-1.0183e-38
-3.21413e-14
-6.89474e-14
-1.01623e-13
-1.34042e-13
-1.67777e-13
-2.02455e-13
-2.37645e-13
-2.73205e-13
-3.09145e-13
-3.45532e-13
-3.82422e-13
-4.19835e-13
-4.57763e-13
-4.96195e-13
-5.35133e-13
-5.74587e-13
-6.14567e-13
-6.5508e-13
-6.9613e-13
-7.37712e-13
-7.79824e-13
-8.22466e-13
-8.6564e-13
-9.09349e-13
-9.536e-13
-9.98412e-13
-1.04383e-12
-1.08989e-12
-1.13667e-12
-1.18424e-12
-1.23268e-12
-1.28203e-12
-1.33233e-12
-1.38354e-12
-1.43554e-12
-1.4881e-12
-1.54092e-12
-1.59363e-12
-1.64586e-12
-1.69731e-12
-1.74788e-12
-1.79773e-12
-1.8474e-12
-1.89786e-12
-1.95056e-12
-2.00758e-12
-2.07177e-12
-2.14681e-12
-2.23698e-12
-2.34558e-12
-2.47145e-12
-2.60431e-12
-2.72416e-12
-2.81127e-12
-2.86015e-12
-2.88097e-12
-2.88777e-12
-2.88956e-12
-2.88997e-12
-2.89005e-12
-2.89007e-12
-2.89008e-12
-2.89008e-12
-2.89008e-12
-2.89008e-12
-2.89008e-12
-2.89008e-12
-2.89008e-12
-2.89008e-12
-2.89008e-12
-2.89008e-12
-2.89008e-12
-2.89009e-12
-2.89009e-12
-2.89009e-12
-2.89009e-12
-2.89009e-12
-2.89009e-12
-2.89009e-12
-2.89009e-12
-2.89009e-12
-2.89009e-12
-2.89009e-12
-2.8901e-12
-2.8901e-12
-2.8901e-12
-2.8901e-12
-2.8901e-12
-2.8901e-12
-2.8901e-12
-2.8901e-12
-2.8901e-12
-2.8901e-12
-2.89011e-12
-2.89011e-12
-2.89011e-12
-2.89011e-12
-2.89011e-12
-2.89011e-12
)
;
    }
    inandouthalf21
    {
        type            cyclic;
        value           nonuniform List<scalar> 
100
(
2.89011e-12
2.89011e-12
2.89011e-12
2.89011e-12
2.89012e-12
2.89012e-12
2.89012e-12
2.89012e-12
2.89012e-12
2.89012e-12
2.89012e-12
2.89012e-12
2.89013e-12
2.89013e-12
2.89013e-12
2.89013e-12
2.89013e-12
2.89013e-12
2.89013e-12
2.89014e-12
2.89014e-12
2.89014e-12
2.89014e-12
2.89014e-12
2.89014e-12
2.89015e-12
2.89015e-12
2.89015e-12
2.89015e-12
2.89015e-12
2.89015e-12
2.89016e-12
2.89016e-12
2.89016e-12
2.89016e-12
2.89016e-12
2.89016e-12
2.89017e-12
2.89017e-12
2.89017e-12
2.89017e-12
2.89017e-12
2.89017e-12
2.89017e-12
2.89017e-12
2.89017e-12
2.89017e-12
2.98743e-12
6.17214e-08
1.60288e-07
2.36873e-07
2.97477e-07
3.46812e-07
3.87896e-07
4.2275e-07
4.52796e-07
4.7907e-07
5.02339e-07
5.23178e-07
5.42026e-07
5.59216e-07
5.75009e-07
5.8961e-07
6.0318e-07
6.15851e-07
6.27728e-07
6.38898e-07
6.49432e-07
6.59389e-07
6.68819e-07
6.77765e-07
6.8626e-07
6.94337e-07
7.0202e-07
7.09331e-07
7.16291e-07
7.22916e-07
7.2922e-07
7.35217e-07
7.40917e-07
7.46331e-07
7.51469e-07
7.56338e-07
7.60947e-07
7.65302e-07
7.6941e-07
7.73278e-07
7.76913e-07
7.8032e-07
7.83506e-07
7.86478e-07
7.89244e-07
7.9181e-07
7.94185e-07
7.96379e-07
7.98401e-07
8.00261e-07
8.01969e-07
8.03534e-07
8.04968e-07
)
;
    }
    inandouthalf22
    {
        type            cyclic;
        value           nonuniform List<scalar> 
100
(
-2.89011e-12
-2.89011e-12
-2.89011e-12
-2.89011e-12
-2.89012e-12
-2.89012e-12
-2.89012e-12
-2.89012e-12
-2.89012e-12
-2.89012e-12
-2.89012e-12
-2.89012e-12
-2.89013e-12
-2.89013e-12
-2.89013e-12
-2.89013e-12
-2.89013e-12
-2.89013e-12
-2.89013e-12
-2.89014e-12
-2.89014e-12
-2.89014e-12
-2.89014e-12
-2.89014e-12
-2.89014e-12
-2.89015e-12
-2.89015e-12
-2.89015e-12
-2.89015e-12
-2.89015e-12
-2.89015e-12
-2.89016e-12
-2.89016e-12
-2.89016e-12
-2.89016e-12
-2.89016e-12
-2.89016e-12
-2.89017e-12
-2.89017e-12
-2.89017e-12
-2.89017e-12
-2.89017e-12
-2.89017e-12
-2.89017e-12
-2.89017e-12
-2.89017e-12
-2.89017e-12
-2.98743e-12
-6.17214e-08
-1.60288e-07
-2.36873e-07
-2.97477e-07
-3.46812e-07
-3.87896e-07
-4.2275e-07
-4.52796e-07
-4.7907e-07
-5.02339e-07
-5.23178e-07
-5.42026e-07
-5.59216e-07
-5.75009e-07
-5.8961e-07
-6.0318e-07
-6.15851e-07
-6.27728e-07
-6.38898e-07
-6.49432e-07
-6.59389e-07
-6.68819e-07
-6.77765e-07
-6.8626e-07
-6.94337e-07
-7.0202e-07
-7.09331e-07
-7.16291e-07
-7.22916e-07
-7.2922e-07
-7.35217e-07
-7.40917e-07
-7.46331e-07
-7.51469e-07
-7.56338e-07
-7.60947e-07
-7.65302e-07
-7.6941e-07
-7.73278e-07
-7.76913e-07
-7.8032e-07
-7.83506e-07
-7.86478e-07
-7.89244e-07
-7.9181e-07
-7.94185e-07
-7.96379e-07
-7.98401e-07
-8.00261e-07
-8.01969e-07
-8.03534e-07
-8.04968e-07
)
;
    }
    inandouthalf31
    {
        type            cyclic;
        value           nonuniform List<scalar> 
110
(
8.06283e-07
8.23886e-07
8.41788e-07
8.59997e-07
8.78525e-07
8.97382e-07
9.1658e-07
9.36132e-07
9.5605e-07
9.76346e-07
9.97033e-07
1.01812e-06
1.03963e-06
1.06156e-06
1.08393e-06
1.10676e-06
1.13005e-06
1.15381e-06
1.17807e-06
1.20283e-06
1.2281e-06
1.2539e-06
1.28023e-06
1.30712e-06
1.33457e-06
1.36259e-06
1.3912e-06
1.42042e-06
1.45024e-06
1.48068e-06
1.51176e-06
1.54348e-06
1.57585e-06
1.60888e-06
1.64257e-06
1.67695e-06
1.71235e-06
1.91032e-06
1.94816e-06
1.98324e-06
2.01933e-06
2.0563e-06
2.09332e-06
2.13128e-06
2.16983e-06
2.20906e-06
2.24899e-06
2.28971e-06
2.33128e-06
2.37382e-06
2.4175e-06
2.46249e-06
2.50982e-06
2.56002e-06
2.61193e-06
2.66494e-06
2.71903e-06
2.77422e-06
2.83053e-06
2.88798e-06
2.9466e-06
3.00641e-06
3.06743e-06
3.12969e-06
3.19321e-06
3.25803e-06
3.32416e-06
3.39163e-06
3.46047e-06
3.53071e-06
3.60237e-06
3.67549e-06
3.75009e-06
3.82621e-06
3.90387e-06
3.98311e-06
4.06395e-06
4.14644e-06
4.2306e-06
4.31647e-06
4.40409e-06
4.49348e-06
4.58468e-06
4.67774e-06
4.77269e-06
4.86956e-06
4.9684e-06
5.06924e-06
5.17214e-06
5.27712e-06
5.38423e-06
5.49351e-06
5.60502e-06
5.71878e-06
5.83486e-06
5.95329e-06
6.07413e-06
6.19742e-06
6.32321e-06
6.45155e-06
6.5825e-06
6.71611e-06
6.85243e-06
6.99151e-06
7.13342e-06
7.27821e-06
7.42594e-06
7.57667e-06
7.73045e-06
7.88736e-06
)
;
    }
    inandouthalf32
    {
        type            cyclic;
        value           nonuniform List<scalar> 
110
(
-8.06283e-07
-8.23886e-07
-8.41788e-07
-8.59997e-07
-8.78525e-07
-8.97382e-07
-9.1658e-07
-9.36132e-07
-9.5605e-07
-9.76346e-07
-9.97033e-07
-1.01812e-06
-1.03963e-06
-1.06156e-06
-1.08393e-06
-1.10676e-06
-1.13005e-06
-1.15381e-06
-1.17807e-06
-1.20283e-06
-1.2281e-06
-1.2539e-06
-1.28023e-06
-1.30712e-06
-1.33457e-06
-1.36259e-06
-1.3912e-06
-1.42042e-06
-1.45024e-06
-1.48068e-06
-1.51176e-06
-1.54348e-06
-1.57585e-06
-1.60888e-06
-1.64257e-06
-1.67695e-06
-1.71235e-06
-1.91032e-06
-1.94816e-06
-1.98324e-06
-2.01933e-06
-2.0563e-06
-2.09332e-06
-2.13128e-06
-2.16983e-06
-2.20906e-06
-2.24899e-06
-2.28971e-06
-2.33128e-06
-2.37382e-06
-2.4175e-06
-2.46249e-06
-2.50982e-06
-2.56002e-06
-2.61193e-06
-2.66494e-06
-2.71903e-06
-2.77422e-06
-2.83053e-06
-2.88798e-06
-2.9466e-06
-3.00641e-06
-3.06743e-06
-3.12969e-06
-3.19321e-06
-3.25803e-06
-3.32416e-06
-3.39163e-06
-3.46047e-06
-3.53071e-06
-3.60237e-06
-3.67549e-06
-3.75009e-06
-3.82621e-06
-3.90387e-06
-3.98311e-06
-4.06395e-06
-4.14644e-06
-4.2306e-06
-4.31647e-06
-4.40409e-06
-4.49348e-06
-4.58468e-06
-4.67774e-06
-4.77269e-06
-4.86956e-06
-4.9684e-06
-5.06924e-06
-5.17214e-06
-5.27712e-06
-5.38423e-06
-5.49351e-06
-5.60502e-06
-5.71878e-06
-5.83486e-06
-5.95329e-06
-6.07413e-06
-6.19742e-06
-6.32321e-06
-6.45155e-06
-6.5825e-06
-6.71611e-06
-6.85243e-06
-6.99151e-06
-7.13342e-06
-7.27821e-06
-7.42594e-06
-7.57667e-06
-7.73045e-06
-7.88736e-06
)
;
    }
    inandouthalf41
    {
        type            cyclic;
        value           nonuniform List<scalar> 
50
(
7.05999e-06
7.05999e-06
7.05999e-06
7.05999e-06
7.05999e-06
7.05999e-06
7.05999e-06
7.05999e-06
7.05999e-06
7.05999e-06
7.05999e-06
7.05999e-06
7.05999e-06
7.05999e-06
7.05999e-06
7.05999e-06
7.05999e-06
7.05999e-06
7.05999e-06
7.05999e-06
7.05999e-06
7.05999e-06
7.05999e-06
7.05999e-06
7.05999e-06
7.05999e-06
7.05999e-06
7.05999e-06
7.05999e-06
7.05999e-06
7.05999e-06
7.05999e-06
7.05999e-06
7.05999e-06
7.05999e-06
7.05999e-06
7.05999e-06
7.05999e-06
7.05999e-06
7.05999e-06
7.05999e-06
7.05999e-06
7.05999e-06
7.05999e-06
7.05999e-06
7.05999e-06
7.05999e-06
7.05999e-06
7.05999e-06
7.06e-06
)
;
    }
    inandouthalf42
    {
        type            cyclic;
        value           nonuniform List<scalar> 
50
(
-7.05999e-06
-7.05999e-06
-7.05999e-06
-7.05999e-06
-7.05999e-06
-7.05999e-06
-7.05999e-06
-7.05999e-06
-7.05999e-06
-7.05999e-06
-7.05999e-06
-7.05999e-06
-7.05999e-06
-7.05999e-06
-7.05999e-06
-7.05999e-06
-7.05999e-06
-7.05999e-06
-7.05999e-06
-7.05999e-06
-7.05999e-06
-7.05999e-06
-7.05999e-06
-7.05999e-06
-7.05999e-06
-7.05999e-06
-7.05999e-06
-7.05999e-06
-7.05999e-06
-7.05999e-06
-7.05999e-06
-7.05999e-06
-7.05999e-06
-7.05999e-06
-7.05999e-06
-7.05999e-06
-7.05999e-06
-7.05999e-06
-7.05999e-06
-7.05999e-06
-7.05999e-06
-7.05999e-06
-7.05999e-06
-7.05999e-06
-7.05999e-06
-7.05999e-06
-7.05999e-06
-7.05999e-06
-7.05999e-06
-7.06e-06
)
;
    }
    top
    {
        type            symmetryPlane;
        value           uniform 0;
    }
    walls
    {
        type            fixedValue;
        value           uniform 0;
    }
    frontAndBackPlanes
    {
        type            empty;
        value           nonuniform 0();
    }
}


// ************************************************************************* //
