/*--------------------------------*- C++ -*----------------------------------*\
| =========                 |                                                 |
| \\      /  F ield         | OpenFOAM: The Open Source CFD Toolbox           |
|  \\    /   O peration     | Version:  2.4.x                                 |
|   \\  /    A nd           | Web:      www.OpenFOAM.org                      |
|    \\/     M anipulation  |                                                 |
\*---------------------------------------------------------------------------*/
FoamFile
{
    version     2.0;
    format      ascii;
    class       surfaceScalarField;
    location    "5.7";
    object      phia_0;
}
// * * * * * * * * * * * * * * * * * * * * * * * * * * * * * * * * * * * * * //

dimensions      [0 3 -1 0 0 0 0];

internalField   nonuniform List<scalar> 
359
(
-4.38801e-13
-1.15794e-12
-1.81778e-12
-2.43373e-12
-3.05789e-12
-3.69852e-12
-4.34789e-12
-5.0007e-12
-5.65545e-12
-6.3132e-12
-6.97527e-12
-7.64208e-12
-8.31364e-12
-8.98957e-12
-9.66964e-12
-1.03539e-11
-1.10425e-11
-1.17354e-11
-1.24325e-11
-1.3134e-11
-1.38393e-11
-1.45485e-11
-1.52614e-11
-1.5978e-11
-1.66983e-11
-1.74222e-11
-1.81502e-11
-1.88829e-11
-1.9621e-11
-2.03655e-11
-2.11173e-11
-2.18776e-11
-2.26464e-11
-2.34241e-11
-2.42088e-11
-2.49979e-11
-2.57872e-11
-2.65715e-11
-2.73454e-11
-2.81031e-11
-2.88425e-11
-2.95635e-11
-3.02709e-11
-3.09758e-11
-3.16947e-11
-3.24521e-11
-3.32817e-11
-3.42274e-11
-3.53438e-11
-3.66844e-11
-3.82655e-11
-4.00146e-11
-4.17263e-11
-4.31272e-11
-4.40412e-11
-4.45042e-11
-4.46845e-11
-4.47395e-11
-4.47533e-11
-4.47563e-11
-4.4757e-11
-4.47571e-11
-4.47572e-11
-4.47572e-11
-4.47572e-11
-4.47572e-11
-4.47572e-11
-4.47572e-11
-4.47572e-11
-4.47572e-11
-4.47572e-11
-4.47572e-11
-4.47572e-11
-4.47572e-11
-4.47572e-11
-4.47572e-11
-4.47572e-11
-4.47572e-11
-4.47572e-11
-4.47573e-11
-4.47573e-11
-4.47573e-11
-4.47573e-11
-4.47573e-11
-4.47573e-11
-4.47573e-11
-4.47573e-11
-4.47573e-11
-4.47573e-11
-4.47574e-11
-4.47574e-11
-4.47574e-11
-4.47574e-11
-4.47574e-11
-4.47574e-11
-4.47574e-11
-4.47574e-11
-4.47574e-11
-4.47574e-11
-4.47574e-11
-4.47575e-11
-4.47575e-11
-4.47575e-11
-4.47575e-11
-4.47575e-11
-4.47575e-11
-4.47575e-11
-4.47575e-11
-4.47575e-11
-4.47575e-11
-4.47576e-11
-4.47576e-11
-4.47576e-11
-4.47576e-11
-4.47576e-11
-4.47576e-11
-4.47576e-11
-4.47576e-11
-4.47576e-11
-4.47576e-11
-4.47577e-11
-4.47577e-11
-4.47577e-11
-4.47577e-11
-4.47577e-11
-4.47577e-11
-4.47577e-11
-4.47577e-11
-4.47577e-11
-4.47577e-11
-4.47578e-11
-4.47578e-11
-4.47578e-11
-4.47578e-11
-4.47578e-11
-4.47578e-11
-4.47578e-11
-4.47578e-11
-4.47578e-11
-4.47578e-11
-4.47578e-11
-4.47578e-11
-4.47578e-11
-4.47578e-11
-4.47578e-11
-4.47578e-11
-4.4822e-11
-2.17774e-10
-6.46426e-10
-9.67583e-10
-1.19143e-09
-1.37341e-09
-1.52786e-09
-1.65647e-09
-1.75642e-09
-1.82387e-09
-1.85532e-09
-1.84817e-09
-1.80071e-09
-1.71201e-09
-1.58175e-09
-1.41007e-09
-1.19745e-09
-9.44617e-10
-6.52484e-10
-3.22105e-10
4.53788e-11
4.48777e-10
8.86853e-10
1.35837e-09
1.86209e-09
2.39679e-09
2.96126e-09
3.5543e-09
4.17472e-09
4.82134e-09
5.49298e-09
6.18846e-09
6.90658e-09
7.64613e-09
8.40589e-09
9.18457e-09
9.98088e-09
1.07934e-08
1.16206e-08
1.24603e-08
1.33099e-08
1.41651e-08
1.50202e-08
1.58672e-08
1.66963e-08
1.74963e-08
1.82561e-08
1.89655e-08
1.96167e-08
2.02062e-08
2.07356e-08
2.12089e-08
2.16297e-08
2.19984e-08
2.23131e-08
2.25799e-08
2.27974e-08
2.29645e-08
2.30866e-08
2.31702e-08
2.32182e-08
2.32366e-08
2.32318e-08
2.32065e-08
2.31646e-08
2.31094e-08
2.30423e-08
2.29673e-08
2.28848e-08
2.27946e-08
2.27006e-08
2.26016e-08
2.24968e-08
2.23879e-08
2.22739e-08
2.21558e-08
2.20308e-08
2.18988e-08
2.17617e-08
2.16139e-08
2.14557e-08
2.12849e-08
2.10972e-08
2.08881e-08
2.06544e-08
2.03812e-08
2.0084e-08
1.96846e-08
1.9286e-08
1.78999e-08
6.593e-09
5.94736e-09
5.88858e-09
-8.91337e-08
-1.55326e-07
-1.58532e-07
-1.58334e-07
-1.58359e-07
-1.58363e-07
-1.58367e-07
-1.5837e-07
-1.5837e-07
-1.58367e-07
-1.58358e-07
-1.5834e-07
-1.58303e-07
-1.58226e-07
-1.582e-07
-1.582e-07
-1.582e-07
-1.582e-07
-1.582e-07
-1.582e-07
-1.582e-07
-1.582e-07
-1.582e-07
-1.582e-07
-1.582e-07
-1.582e-07
-1.582e-07
-1.582e-07
-1.582e-07
-1.582e-07
-1.582e-07
-1.582e-07
-1.582e-07
-1.582e-07
-1.582e-07
-1.582e-07
-1.582e-07
-1.582e-07
-1.582e-07
-1.582e-07
-1.582e-07
-1.582e-07
-1.582e-07
-1.582e-07
-1.582e-07
-1.582e-07
-1.582e-07
-1.582e-07
-1.582e-07
-1.582e-07
-1.582e-07
-1.582e-07
-1.582e-07
-1.582e-07
-1.582e-07
-1.582e-07
-1.582e-07
-1.582e-07
-1.582e-07
-1.582e-07
-1.582e-07
-1.582e-07
-1.582e-07
-1.582e-07
-1.582e-07
-1.582e-07
-1.582e-07
-1.582e-07
-1.582e-07
-1.582e-07
-1.582e-07
-1.582e-07
-1.582e-07
-1.582e-07
-1.582e-07
-1.582e-07
-1.582e-07
-1.582e-07
-1.582e-07
-1.582e-07
-1.582e-07
-1.582e-07
-1.582e-07
-1.582e-07
-1.582e-07
-1.582e-07
-1.582e-07
-1.582e-07
-1.582e-07
-1.582e-07
-1.582e-07
-1.582e-07
-1.582e-07
-1.582e-07
-1.582e-07
-1.582e-07
-1.582e-07
-1.582e-07
-1.582e-07
-1.582e-07
-1.582e-07
-1.582e-07
-1.582e-07
-1.582e-07
-1.582e-07
-1.582e-07
-1.582e-07
-1.582e-07
-1.582e-07
-1.582e-07
-1.582e-07
-1.582e-07
-1.582e-07
-1.582e-07
-1.582e-07
-1.582e-07
-1.582e-07
-1.58183e-07
-1.57477e-07
-1.32391e-07
)
;

boundaryField
{
    inandouthalf11
    {
        type            cyclic;
        value           nonuniform List<scalar> 
100
(
1.0183e-38
3.21438e-14
6.89532e-14
1.01632e-13
1.34054e-13
1.67791e-13
2.02472e-13
2.37666e-13
2.73229e-13
3.09171e-13
3.45561e-13
3.82455e-13
4.19871e-13
4.57802e-13
4.96238e-13
5.35178e-13
5.74636e-13
6.1462e-13
6.55136e-13
6.96189e-13
7.37775e-13
7.7989e-13
8.22536e-13
8.65713e-13
9.09426e-13
9.53681e-13
9.98497e-13
1.04391e-12
1.08998e-12
1.13677e-12
1.18434e-12
1.23278e-12
1.28214e-12
1.33245e-12
1.38366e-12
1.43566e-12
1.48823e-12
1.54105e-12
1.59376e-12
1.64599e-12
1.69744e-12
1.74801e-12
1.79787e-12
1.84755e-12
1.89801e-12
1.95072e-12
2.00776e-12
2.07198e-12
2.14706e-12
2.23728e-12
2.34595e-12
2.47186e-12
2.60472e-12
2.7245e-12
2.81148e-12
2.86026e-12
2.881e-12
2.88778e-12
2.88956e-12
2.88997e-12
2.89005e-12
2.89007e-12
2.89008e-12
2.89008e-12
2.89008e-12
2.89008e-12
2.89008e-12
2.89008e-12
2.89008e-12
2.89008e-12
2.89008e-12
2.89008e-12
2.89008e-12
2.89009e-12
2.89009e-12
2.89009e-12
2.89009e-12
2.89009e-12
2.89009e-12
2.89009e-12
2.89009e-12
2.89009e-12
2.89009e-12
2.89009e-12
2.8901e-12
2.8901e-12
2.8901e-12
2.8901e-12
2.8901e-12
2.8901e-12
2.8901e-12
2.8901e-12
2.8901e-12
2.8901e-12
2.89011e-12
2.89011e-12
2.89011e-12
2.89011e-12
2.89011e-12
2.89011e-12
)
;
    }
    inandouthalf12
    {
        type            cyclic;
        value           nonuniform List<scalar> 
100
(
-1.0183e-38
-3.21438e-14
-6.89532e-14
-1.01632e-13
-1.34054e-13
-1.67791e-13
-2.02472e-13
-2.37666e-13
-2.73229e-13
-3.09171e-13
-3.45561e-13
-3.82455e-13
-4.19871e-13
-4.57802e-13
-4.96238e-13
-5.35178e-13
-5.74636e-13
-6.1462e-13
-6.55136e-13
-6.96189e-13
-7.37775e-13
-7.7989e-13
-8.22536e-13
-8.65713e-13
-9.09426e-13
-9.53681e-13
-9.98497e-13
-1.04391e-12
-1.08998e-12
-1.13677e-12
-1.18434e-12
-1.23278e-12
-1.28214e-12
-1.33245e-12
-1.38366e-12
-1.43566e-12
-1.48823e-12
-1.54105e-12
-1.59376e-12
-1.64599e-12
-1.69744e-12
-1.74801e-12
-1.79787e-12
-1.84755e-12
-1.89801e-12
-1.95072e-12
-2.00776e-12
-2.07198e-12
-2.14706e-12
-2.23728e-12
-2.34595e-12
-2.47186e-12
-2.60472e-12
-2.7245e-12
-2.81148e-12
-2.86026e-12
-2.881e-12
-2.88778e-12
-2.88956e-12
-2.88997e-12
-2.89005e-12
-2.89007e-12
-2.89008e-12
-2.89008e-12
-2.89008e-12
-2.89008e-12
-2.89008e-12
-2.89008e-12
-2.89008e-12
-2.89008e-12
-2.89008e-12
-2.89008e-12
-2.89008e-12
-2.89009e-12
-2.89009e-12
-2.89009e-12
-2.89009e-12
-2.89009e-12
-2.89009e-12
-2.89009e-12
-2.89009e-12
-2.89009e-12
-2.89009e-12
-2.89009e-12
-2.8901e-12
-2.8901e-12
-2.8901e-12
-2.8901e-12
-2.8901e-12
-2.8901e-12
-2.8901e-12
-2.8901e-12
-2.8901e-12
-2.8901e-12
-2.89011e-12
-2.89011e-12
-2.89011e-12
-2.89011e-12
-2.89011e-12
-2.89011e-12
)
;
    }
    inandouthalf21
    {
        type            cyclic;
        value           nonuniform List<scalar> 
100
(
2.89011e-12
2.89011e-12
2.89011e-12
2.89012e-12
2.89012e-12
2.89012e-12
2.89012e-12
2.89012e-12
2.89012e-12
2.89012e-12
2.89012e-12
2.89012e-12
2.89013e-12
2.89013e-12
2.89013e-12
2.89013e-12
2.89013e-12
2.89013e-12
2.89013e-12
2.89014e-12
2.89014e-12
2.89014e-12
2.89014e-12
2.89014e-12
2.89014e-12
2.89015e-12
2.89015e-12
2.89015e-12
2.89015e-12
2.89015e-12
2.89015e-12
2.89016e-12
2.89016e-12
2.89016e-12
2.89016e-12
2.89016e-12
2.89016e-12
2.89017e-12
2.89017e-12
2.89017e-12
2.89017e-12
2.89017e-12
2.89017e-12
2.89017e-12
2.89017e-12
2.89017e-12
2.89017e-12
2.9888e-12
6.17301e-08
1.60297e-07
2.36881e-07
2.97485e-07
3.4682e-07
3.87905e-07
4.22759e-07
4.52806e-07
4.7908e-07
5.0235e-07
5.2319e-07
5.42038e-07
5.59229e-07
5.75022e-07
5.89624e-07
6.03195e-07
6.15866e-07
6.27744e-07
6.38914e-07
6.49448e-07
6.59405e-07
6.68836e-07
6.77781e-07
6.86277e-07
6.94354e-07
7.02037e-07
7.09349e-07
7.16309e-07
7.22934e-07
7.29238e-07
7.35235e-07
7.40935e-07
7.4635e-07
7.51487e-07
7.56356e-07
7.60965e-07
7.6532e-07
7.69428e-07
7.73296e-07
7.7693e-07
7.80337e-07
7.83523e-07
7.86495e-07
7.8926e-07
7.91826e-07
7.94201e-07
7.96395e-07
7.98417e-07
8.00276e-07
8.01984e-07
8.03549e-07
8.04983e-07
)
;
    }
    inandouthalf22
    {
        type            cyclic;
        value           nonuniform List<scalar> 
100
(
-2.89011e-12
-2.89011e-12
-2.89011e-12
-2.89012e-12
-2.89012e-12
-2.89012e-12
-2.89012e-12
-2.89012e-12
-2.89012e-12
-2.89012e-12
-2.89012e-12
-2.89012e-12
-2.89013e-12
-2.89013e-12
-2.89013e-12
-2.89013e-12
-2.89013e-12
-2.89013e-12
-2.89013e-12
-2.89014e-12
-2.89014e-12
-2.89014e-12
-2.89014e-12
-2.89014e-12
-2.89014e-12
-2.89015e-12
-2.89015e-12
-2.89015e-12
-2.89015e-12
-2.89015e-12
-2.89015e-12
-2.89016e-12
-2.89016e-12
-2.89016e-12
-2.89016e-12
-2.89016e-12
-2.89016e-12
-2.89017e-12
-2.89017e-12
-2.89017e-12
-2.89017e-12
-2.89017e-12
-2.89017e-12
-2.89017e-12
-2.89017e-12
-2.89017e-12
-2.89017e-12
-2.9888e-12
-6.17301e-08
-1.60297e-07
-2.36881e-07
-2.97485e-07
-3.4682e-07
-3.87905e-07
-4.22759e-07
-4.52806e-07
-4.7908e-07
-5.0235e-07
-5.2319e-07
-5.42038e-07
-5.59229e-07
-5.75022e-07
-5.89624e-07
-6.03195e-07
-6.15866e-07
-6.27744e-07
-6.38914e-07
-6.49448e-07
-6.59405e-07
-6.68836e-07
-6.77781e-07
-6.86277e-07
-6.94354e-07
-7.02037e-07
-7.09349e-07
-7.16309e-07
-7.22934e-07
-7.29238e-07
-7.35235e-07
-7.40935e-07
-7.4635e-07
-7.51487e-07
-7.56356e-07
-7.60965e-07
-7.6532e-07
-7.69428e-07
-7.73296e-07
-7.7693e-07
-7.80337e-07
-7.83523e-07
-7.86495e-07
-7.8926e-07
-7.91826e-07
-7.94201e-07
-7.96395e-07
-7.98417e-07
-8.00276e-07
-8.01984e-07
-8.03549e-07
-8.04983e-07
)
;
    }
    inandouthalf31
    {
        type            cyclic;
        value           nonuniform List<scalar> 
110
(
8.06298e-07
8.23901e-07
8.41802e-07
8.60012e-07
8.78539e-07
8.97397e-07
9.16595e-07
9.36148e-07
9.56066e-07
9.76362e-07
9.97048e-07
1.01814e-06
1.03964e-06
1.06158e-06
1.08395e-06
1.10677e-06
1.13007e-06
1.15383e-06
1.17809e-06
1.20285e-06
1.22812e-06
1.25392e-06
1.28025e-06
1.30714e-06
1.33459e-06
1.36261e-06
1.39122e-06
1.42044e-06
1.45026e-06
1.4807e-06
1.51178e-06
1.5435e-06
1.57587e-06
1.6089e-06
1.64259e-06
1.67697e-06
1.71238e-06
1.91032e-06
1.94816e-06
1.98324e-06
2.01933e-06
2.0563e-06
2.09331e-06
2.13128e-06
2.16983e-06
2.20905e-06
2.24899e-06
2.2897e-06
2.33128e-06
2.37382e-06
2.41749e-06
2.46249e-06
2.50982e-06
2.56002e-06
2.61193e-06
2.66494e-06
2.71903e-06
2.77422e-06
2.83053e-06
2.88798e-06
2.9466e-06
3.00641e-06
3.06743e-06
3.12969e-06
3.19321e-06
3.25803e-06
3.32416e-06
3.39163e-06
3.46047e-06
3.53071e-06
3.60237e-06
3.67549e-06
3.75009e-06
3.82621e-06
3.90387e-06
3.98311e-06
4.06396e-06
4.14644e-06
4.23061e-06
4.31647e-06
4.40409e-06
4.49348e-06
4.58469e-06
4.67774e-06
4.77269e-06
4.86956e-06
4.9684e-06
5.06924e-06
5.17214e-06
5.27712e-06
5.38423e-06
5.49351e-06
5.60502e-06
5.71879e-06
5.83486e-06
5.95329e-06
6.07413e-06
6.19742e-06
6.32321e-06
6.45155e-06
6.5825e-06
6.71611e-06
6.85243e-06
6.99152e-06
7.13342e-06
7.27821e-06
7.42594e-06
7.57667e-06
7.73046e-06
7.88736e-06
)
;
    }
    inandouthalf32
    {
        type            cyclic;
        value           nonuniform List<scalar> 
110
(
-8.06298e-07
-8.23901e-07
-8.41802e-07
-8.60012e-07
-8.78539e-07
-8.97397e-07
-9.16595e-07
-9.36148e-07
-9.56066e-07
-9.76362e-07
-9.97048e-07
-1.01814e-06
-1.03964e-06
-1.06158e-06
-1.08395e-06
-1.10677e-06
-1.13007e-06
-1.15383e-06
-1.17809e-06
-1.20285e-06
-1.22812e-06
-1.25392e-06
-1.28025e-06
-1.30714e-06
-1.33459e-06
-1.36261e-06
-1.39122e-06
-1.42044e-06
-1.45026e-06
-1.4807e-06
-1.51178e-06
-1.5435e-06
-1.57587e-06
-1.6089e-06
-1.64259e-06
-1.67697e-06
-1.71238e-06
-1.91032e-06
-1.94816e-06
-1.98324e-06
-2.01933e-06
-2.0563e-06
-2.09331e-06
-2.13128e-06
-2.16983e-06
-2.20905e-06
-2.24899e-06
-2.2897e-06
-2.33128e-06
-2.37382e-06
-2.41749e-06
-2.46249e-06
-2.50982e-06
-2.56002e-06
-2.61193e-06
-2.66494e-06
-2.71903e-06
-2.77422e-06
-2.83053e-06
-2.88798e-06
-2.9466e-06
-3.00641e-06
-3.06743e-06
-3.12969e-06
-3.19321e-06
-3.25803e-06
-3.32416e-06
-3.39163e-06
-3.46047e-06
-3.53071e-06
-3.60237e-06
-3.67549e-06
-3.75009e-06
-3.82621e-06
-3.90387e-06
-3.98311e-06
-4.06396e-06
-4.14644e-06
-4.23061e-06
-4.31647e-06
-4.40409e-06
-4.49348e-06
-4.58469e-06
-4.67774e-06
-4.77269e-06
-4.86956e-06
-4.9684e-06
-5.06924e-06
-5.17214e-06
-5.27712e-06
-5.38423e-06
-5.49351e-06
-5.60502e-06
-5.71879e-06
-5.83486e-06
-5.95329e-06
-6.07413e-06
-6.19742e-06
-6.32321e-06
-6.45155e-06
-6.5825e-06
-6.71611e-06
-6.85243e-06
-6.99152e-06
-7.13342e-06
-7.27821e-06
-7.42594e-06
-7.57667e-06
-7.73046e-06
-7.88736e-06
)
;
    }
    inandouthalf41
    {
        type            cyclic;
        value           nonuniform List<scalar> 
50
(
7.05999e-06
7.05999e-06
7.05999e-06
7.05999e-06
7.05999e-06
7.05999e-06
7.05999e-06
7.05999e-06
7.05999e-06
7.05999e-06
7.05999e-06
7.05999e-06
7.05999e-06
7.05999e-06
7.05999e-06
7.05999e-06
7.05999e-06
7.05999e-06
7.05999e-06
7.05999e-06
7.05999e-06
7.05999e-06
7.05999e-06
7.05999e-06
7.05999e-06
7.05999e-06
7.05999e-06
7.05999e-06
7.05999e-06
7.05999e-06
7.05999e-06
7.05999e-06
7.05999e-06
7.05999e-06
7.05999e-06
7.05999e-06
7.05999e-06
7.05999e-06
7.05999e-06
7.05999e-06
7.05999e-06
7.05999e-06
7.05999e-06
7.05999e-06
7.05999e-06
7.05999e-06
7.05999e-06
7.05999e-06
7.05999e-06
7.06e-06
)
;
    }
    inandouthalf42
    {
        type            cyclic;
        value           nonuniform List<scalar> 
50
(
-7.05999e-06
-7.05999e-06
-7.05999e-06
-7.05999e-06
-7.05999e-06
-7.05999e-06
-7.05999e-06
-7.05999e-06
-7.05999e-06
-7.05999e-06
-7.05999e-06
-7.05999e-06
-7.05999e-06
-7.05999e-06
-7.05999e-06
-7.05999e-06
-7.05999e-06
-7.05999e-06
-7.05999e-06
-7.05999e-06
-7.05999e-06
-7.05999e-06
-7.05999e-06
-7.05999e-06
-7.05999e-06
-7.05999e-06
-7.05999e-06
-7.05999e-06
-7.05999e-06
-7.05999e-06
-7.05999e-06
-7.05999e-06
-7.05999e-06
-7.05999e-06
-7.05999e-06
-7.05999e-06
-7.05999e-06
-7.05999e-06
-7.05999e-06
-7.05999e-06
-7.05999e-06
-7.05999e-06
-7.05999e-06
-7.05999e-06
-7.05999e-06
-7.05999e-06
-7.05999e-06
-7.05999e-06
-7.05999e-06
-7.06e-06
)
;
    }
    top
    {
        type            symmetryPlane;
        value           uniform 0;
    }
    walls
    {
        type            fixedValue;
        value           uniform 0;
    }
    frontAndBackPlanes
    {
        type            empty;
        value           nonuniform 0();
    }
}


// ************************************************************************* //
