/*--------------------------------*- C++ -*----------------------------------*\
| =========                 |                                                 |
| \\      /  F ield         | OpenFOAM: The Open Source CFD Toolbox           |
|  \\    /   O peration     | Version:  2.4.x                                 |
|   \\  /    A nd           | Web:      www.OpenFOAM.org                      |
|    \\/     M anipulation  |                                                 |
\*---------------------------------------------------------------------------*/
FoamFile
{
    version     2.0;
    format      ascii;
    class       volTensorField;
    location    "5.7";
    object      Tauf;
}
// * * * * * * * * * * * * * * * * * * * * * * * * * * * * * * * * * * * * * //

dimensions      [0 2 -2 0 0 0 0];

internalField   nonuniform List<tensor> 
360
(
(0 6.70195e-10 0 6.70195e-10 7.88864e-10 0 0 0 0)
(0 -7.08018e-11 0 -7.08018e-11 1.00333e-09 0 0 0 0)
(0 -6.96478e-11 0 -6.96478e-11 1.05033e-09 0 0 0 0)
(0 -6.47612e-11 0 -6.47612e-11 9.8927e-10 0 0 0 0)
(-5.04871e-26 -6.59544e-11 0 -6.59544e-11 9.84344e-10 0 0 0 0)
(-2.52435e-26 -6.82973e-11 0 -6.82973e-11 1.00388e-09 0 0 0 0)
(-5.04871e-26 -6.97502e-11 0 -6.97502e-11 1.01855e-09 0 0 0 0)
(0 -7.06231e-11 0 -7.06231e-11 1.02525e-09 0 0 0 0)
(-1.26218e-26 -7.13684e-11 0 -7.13684e-11 1.02905e-09 0 0 0 0)
(0 -7.21906e-11 0 -7.21906e-11 1.03365e-09 0 0 0 0)
(-1.57772e-27 -7.31398e-11 0 -7.31398e-11 1.03985e-09 0 0 0 0)
(0 -7.41654e-11 0 -7.41654e-11 1.04691e-09 0 0 0 0)
(2.52435e-26 -7.52026e-11 0 -7.52026e-11 1.05399e-09 0 0 0 0)
(0 -7.62217e-11 0 -7.62217e-11 1.06068e-09 0 0 0 0)
(0 -7.72297e-11 0 -7.72297e-11 1.06707e-09 0 0 0 0)
(0 -7.82497e-11 0 -7.82497e-11 1.07344e-09 0 0 0 0)
(0 -7.92914e-11 0 -7.92914e-11 1.07992e-09 0 0 0 0)
(5.04871e-26 -8.03495e-11 0 -8.03495e-11 1.08641e-09 0 0 0 0)
(0 -8.14167e-11 0 -8.14167e-11 1.09287e-09 0 0 0 0)
(0 -8.24853e-11 0 -8.24853e-11 1.09915e-09 0 0 0 0)
(0 -8.35462e-11 0 -8.35462e-11 1.10513e-09 0 0 0 0)
(1.00974e-25 -8.4604e-11 0 -8.4604e-11 1.11092e-09 0 0 0 0)
(0 -8.56655e-11 0 -8.56655e-11 1.11655e-09 0 0 0 0)
(0 -8.67306e-11 0 -8.67306e-11 1.12203e-09 0 0 0 0)
(0 -8.78066e-11 0 -8.78066e-11 1.1275e-09 0 0 0 0)
(1.00974e-25 -8.89098e-11 0 -8.89098e-11 1.1331e-09 0 0 0 0)
(0 -9.00696e-11 0 -9.00696e-11 1.13923e-09 0 0 0 0)
(0 -9.13226e-11 0 -9.13226e-11 1.14635e-09 0 0 0 0)
(0 -9.26915e-11 0 -9.26915e-11 1.15465e-09 0 0 0 0)
(0 -9.41924e-11 0 -9.41924e-11 1.1643e-09 0 0 0 0)
(0 -9.58403e-11 0 -9.58403e-11 1.17555e-09 0 0 0 0)
(0 -9.76233e-11 0 -9.76233e-11 1.18802e-09 0 0 0 0)
(0 -9.94888e-11 0 -9.94888e-11 1.20117e-09 0 0 0 0)
(0 -1.01346e-10 0 -1.01346e-10 1.21387e-09 0 0 0 0)
(0 -1.0304e-10 0 -1.0304e-10 1.2242e-09 0 0 0 0)
(-2.01948e-25 -1.04383e-10 0 -1.04383e-10 1.23014e-09 0 0 0 0)
(0 -1.05202e-10 0 -1.05202e-10 1.22968e-09 0 0 0 0)
(0 -1.05352e-10 0 -1.05352e-10 1.22152e-09 0 0 0 0)
(0 -1.04759e-10 0 -1.04759e-10 1.20475e-09 0 0 0 0)
(0 -1.03493e-10 0 -1.03493e-10 1.18054e-09 0 0 0 0)
(0 -1.01839e-10 0 -1.01839e-10 1.15241e-09 0 0 0 0)
(0 -1.0025e-10 0 -1.0025e-10 1.12511e-09 0 0 0 0)
(-4.03897e-25 -9.93541e-11 0 -9.93541e-11 1.10598e-09 0 0 0 0)
(0 -9.99608e-11 0 -9.99608e-11 1.10374e-09 0 0 0 0)
(0 -1.02998e-10 0 -1.02998e-10 1.12818e-09 0 0 0 0)
(0 -1.09577e-10 0 -1.09577e-10 1.19141e-09 0 0 0 0)
(0 -1.21075e-10 0 -1.21075e-10 1.30736e-09 0 0 0 0)
(0 -1.39107e-10 0 -1.39107e-10 1.49184e-09 0 0 0 0)
(0 -1.65103e-10 0 -1.65103e-10 1.75704e-09 0 0 0 0)
(0 -1.98658e-10 0 -1.98658e-10 2.09149e-09 0 0 0 0)
(-4.03897e-25 -2.34308e-10 0 -2.34308e-10 2.43159e-09 0 0 0 0)
(0 -2.58442e-10 0 -2.58442e-10 2.64198e-09 0 0 0 0)
(0 -2.52266e-10 0 -2.52266e-10 2.55779e-09 0 0 0 0)
(0 -2.06408e-10 0 -2.06408e-10 2.11131e-09 0 0 0 0)
(0 -1.35464e-10 0 -1.35464e-10 1.43416e-09 0 0 0 0)
(0 -6.93108e-11 0 -6.93108e-11 7.81575e-10 0 0 0 0)
(0 -2.73712e-11 0 -2.73712e-11 3.3595e-10 0 0 0 0)
(0 -8.41824e-12 0 -8.41824e-12 1.11905e-10 0 0 0 0)
(0 -2.04376e-12 0 -2.04376e-12 2.63091e-11 0 0 0 0)
(0 -3.45402e-13 0 -3.45402e-13 7.80879e-13 0 0 0 0)
(0 4.4563e-14 0 4.4563e-14 -5.74792e-12 0 0 0 0)
(0 1.31381e-13 0 1.31381e-13 -7.42154e-12 0 0 0 0)
(0 1.54946e-13 0 1.54946e-13 -7.8719e-12 0 0 0 0)
(0 1.62802e-13 0 1.62802e-13 -8.20058e-12 0 0 0 0)
(0 1.68211e-13 0 1.68211e-13 -8.42116e-12 0 0 0 0)
(0 1.73653e-13 0 1.73653e-13 -8.68853e-12 0 0 0 0)
(0 1.80201e-13 0 1.80201e-13 -8.93828e-12 0 0 0 0)
(0 1.86271e-13 0 1.86271e-13 -9.23717e-12 0 0 0 0)
(0 1.92005e-13 0 1.92005e-13 -9.63022e-12 0 0 0 0)
(0 2.00433e-13 0 2.00433e-13 -9.98764e-12 0 0 0 0)
(0 2.09979e-13 0 2.09979e-13 -1.02505e-11 0 0 0 0)
(0 2.14987e-13 0 2.14987e-13 -1.07168e-11 0 0 0 0)
(0 2.21312e-13 0 2.21312e-13 -1.10155e-11 0 0 0 0)
(0 2.28515e-13 0 2.28515e-13 -1.12831e-11 0 0 0 0)
(0 2.34139e-13 0 2.34139e-13 -1.15881e-11 0 0 0 0)
(0 2.38846e-13 0 2.38846e-13 -1.18254e-11 0 0 0 0)
(0 2.42718e-13 0 2.42718e-13 -1.21177e-11 0 0 0 0)
(0 2.48473e-13 0 2.48473e-13 -1.2344e-11 0 0 0 0)
(0 2.54576e-13 0 2.54576e-13 -1.26214e-11 0 0 0 0)
(0 2.60458e-13 0 2.60458e-13 -1.29459e-11 0 0 0 0)
(0 2.67167e-13 0 2.67167e-13 -1.32791e-11 0 0 0 0)
(0 2.74931e-13 0 2.74931e-13 -1.36038e-11 0 0 0 0)
(0 2.8238e-13 0 2.8238e-13 -1.39729e-11 0 0 0 0)
(0 2.89798e-13 0 2.89798e-13 -1.43238e-11 0 0 0 0)
(0 2.97041e-13 0 2.97041e-13 -1.46701e-11 0 0 0 0)
(0 3.04099e-13 0 3.04099e-13 -1.50027e-11 0 0 0 0)
(0 3.10855e-13 0 3.10855e-13 -1.53245e-11 0 0 0 0)
(0 3.17316e-13 0 3.17316e-13 -1.56561e-11 0 0 0 0)
(0 3.24165e-13 0 3.24165e-13 -1.59773e-11 0 0 0 0)
(0 3.31303e-13 0 3.31303e-13 -1.63133e-11 0 0 0 0)
(0 3.3866e-13 0 3.3866e-13 -1.66733e-11 0 0 0 0)
(0 3.46547e-13 0 3.46547e-13 -1.70442e-11 0 0 0 0)
(0 3.54881e-13 0 3.54881e-13 -1.74299e-11 0 0 0 0)
(0 3.63407e-13 0 3.63407e-13 -1.78346e-11 0 0 0 0)
(0 3.72149e-13 0 3.72149e-13 -1.82469e-11 0 0 0 0)
(0 3.81072e-13 0 3.81072e-13 -1.8667e-11 0 0 0 0)
(0 3.90135e-13 0 3.90135e-13 -1.9096e-11 0 0 0 0)
(0 3.99378e-13 0 3.99378e-13 -1.95346e-11 0 0 0 0)
(0 4.08886e-13 0 4.08886e-13 -1.99833e-11 0 0 0 0)
(0 4.18701e-13 0 4.18701e-13 -2.04457e-11 0 0 0 0)
(0 4.28855e-13 0 4.28855e-13 -2.09242e-11 0 0 0 0)
(0 4.39408e-13 0 4.39408e-13 -2.14191e-11 0 0 0 0)
(0 4.50371e-13 0 4.50371e-13 -2.1932e-11 0 0 0 0)
(0 4.6174e-13 0 4.6174e-13 -2.24642e-11 0 0 0 0)
(0 4.73544e-13 0 4.73544e-13 -2.30159e-11 0 0 0 0)
(0 4.8581e-13 0 4.8581e-13 -2.35883e-11 0 0 0 0)
(0 4.98569e-13 0 4.98569e-13 -2.41831e-11 0 0 0 0)
(0 5.1186e-13 0 5.1186e-13 -2.48015e-11 0 0 0 0)
(0 5.25723e-13 0 5.25723e-13 -2.54454e-11 0 0 0 0)
(0 5.40193e-13 0 5.40193e-13 -2.61162e-11 0 0 0 0)
(0 5.55304e-13 0 5.55304e-13 -2.68156e-11 0 0 0 0)
(0 5.71091e-13 0 5.71091e-13 -2.75449e-11 0 0 0 0)
(0 5.8759e-13 0 5.8759e-13 -2.83058e-11 0 0 0 0)
(0 6.04836e-13 0 6.04836e-13 -2.90997e-11 0 0 0 0)
(0 6.2287e-13 0 6.2287e-13 -2.99285e-11 0 0 0 0)
(0 6.41733e-13 0 6.41733e-13 -3.07938e-11 0 0 0 0)
(0 6.61471e-13 0 6.61471e-13 -3.16978e-11 0 0 0 0)
(0 6.82138e-13 0 6.82138e-13 -3.26427e-11 0 0 0 0)
(0 7.0379e-13 0 7.0379e-13 -3.36307e-11 0 0 0 0)
(0 7.26487e-13 0 7.26487e-13 -3.46641e-11 0 0 0 0)
(0 7.50285e-13 0 7.50285e-13 -3.57452e-11 0 0 0 0)
(0 7.75234e-13 0 7.75234e-13 -3.68762e-11 0 0 0 0)
(0 8.01388e-13 0 8.01388e-13 -3.80604e-11 0 0 0 0)
(0 8.28842e-13 0 8.28842e-13 -3.93042e-11 0 0 0 0)
(0 8.57802e-13 0 8.57802e-13 -4.06188e-11 0 0 0 0)
(0 8.88655e-13 0 8.88655e-13 -4.20209e-11 0 0 0 0)
(0 9.21949e-13 0 9.21949e-13 -4.35279e-11 0 0 0 0)
(0 9.58197e-13 0 9.58197e-13 -4.51482e-11 0 0 0 0)
(0 9.97471e-13 0 9.97471e-13 -4.68755e-11 0 0 0 0)
(0 1.03917e-12 0 1.03917e-12 -4.87071e-11 0 0 0 0)
(0 1.08279e-12 0 1.08279e-12 -5.07002e-11 0 0 0 0)
(0 1.1303e-12 0 1.1303e-12 -5.29909e-11 0 0 0 0)
(0 1.1875e-12 0 1.1875e-12 -5.56511e-11 0 0 0 0)
(0 1.25843e-12 0 1.25843e-12 -5.85451e-11 0 0 0 0)
(0 1.33616e-12 0 1.33616e-12 -6.15988e-11 0 0 0 0)
(0 1.40992e-12 0 1.40992e-12 -6.51969e-11 0 0 0 0)
(0 1.49081e-12 0 1.49081e-12 -7.01686e-11 0 0 0 0)
(0 1.62157e-12 0 1.62157e-12 -7.69829e-11 0 0 0 0)
(0 1.8339e-12 0 1.8339e-12 -8.35204e-11 0 0 0 0)
(0 2.04433e-12 0 2.04433e-12 -8.68724e-11 0 0 0 0)
(0 2.07931e-12 0 2.07931e-12 -9.79895e-11 0 0 0 0)
(0 2.23192e-12 0 2.23192e-12 -1.14282e-10 0 0 0 0)
(0 2.79973e-12 0 2.79973e-12 -1.30944e-10 0 0 0 0)
(0 3.55006e-12 0 3.55006e-12 -1.96076e-10 0 0 0 0)
(0 5.14211e-12 0 5.14211e-12 -4.81859e-10 0 0 0 0)
(0 -3.8871e-10 0 -3.8871e-10 -1.23191e-09 0 0 0 0)
(0 -3.43769e-07 0 -3.43769e-07 -1.55282e-09 0 0 0 0)
(0 -9.91414e-05 0 -9.91414e-05 1.55841e-07 0 0 0 0)
(0 -0.00105901 0 -0.00105901 6.56362e-07 0 0 0 0)
(0 -0.00261998 0 -0.00261998 -2.62272e-07 0 0 0 0)
(0 -0.00297795 0 -0.00297795 -5.91162e-07 0 0 0 0)
(0 -0.00310908 0 -0.00310908 -7.97509e-07 0 0 0 0)
(0 -0.00314706 0 -0.00314706 -1.02994e-06 0 0 0 0)
(0 -0.00314243 0 -0.00314243 -1.18917e-06 0 0 0 0)
(0 -0.00311988 0 -0.00311988 -1.26137e-06 0 0 0 0)
(0 -0.00309061 0 -0.00309061 -1.26261e-06 0 0 0 0)
(0 -0.0030593 0 -0.0030593 -1.21356e-06 0 0 0 0)
(0 -0.00302768 0 -0.00302768 -1.13254e-06 0 0 0 0)
(0 -0.00299616 0 -0.00299616 -1.03398e-06 0 0 0 0)
(0 -0.00296465 0 -0.00296465 -9.28238e-07 0 0 0 0)
(0 -0.00293293 0 -0.00293293 -8.22206e-07 0 0 0 0)
(0 -0.00290074 0 -0.00290074 -7.20157e-07 0 0 0 0)
(0 -0.00286789 0 -0.00286789 -6.24531e-07 0 0 0 0)
(0 -0.00283424 0 -0.00283424 -5.36565e-07 0 0 0 0)
(0 -0.00279968 0 -0.00279968 -4.56731e-07 0 0 0 0)
(0 -0.00276414 0 -0.00276414 -3.85028e-07 0 0 0 0)
(0 -0.00272761 0 -0.00272761 -3.21175e-07 0 0 0 0)
(0 -0.00269006 0 -0.00269006 -2.64723e-07 0 0 0 0)
(0 -0.0026515 0 -0.0026515 -2.15134e-07 0 0 0 0)
(0 -0.00261194 0 -0.00261194 -1.71832e-07 0 0 0 0)
(0 -0.0025714 0 -0.0025714 -1.3424e-07 0 0 0 0)
(0 -0.00252991 0 -0.00252991 -1.01787e-07 0 0 0 0)
(0 -0.0024875 0 -0.0024875 -7.39303e-08 0 0 0 0)
(0 -0.00244421 0 -0.00244421 -5.01599e-08 0 0 0 0)
(0 -0.00240006 0 -0.00240006 -3.00042e-08 0 0 0 0)
(0 -0.00235509 0 -0.00235509 -1.3031e-08 0 0 0 0)
(0 -0.00230934 0 -0.00230934 1.15149e-09 0 0 0 0)
(0 -0.00226284 0 -0.00226284 1.28966e-08 0 0 0 0)
(0 -0.00221563 0 -0.00221563 2.25209e-08 0 0 0 0)
(0 -0.00216775 0 -0.00216775 3.0306e-08 0 0 0 0)
(0 -0.00211922 0 -0.00211922 3.65019e-08 0 0 0 0)
(0 -0.00207009 0 -0.00207009 4.13292e-08 0 0 0 0)
(0 -0.00202039 0 -0.00202039 4.49846e-08 0 0 0 0)
(0 -0.00197016 0 -0.00197016 4.76482e-08 0 0 0 0)
(0 -0.00191942 0 -0.00191942 4.94946e-08 0 0 0 0)
(0 -0.00186823 0 -0.00186823 5.07034e-08 0 0 0 0)
(0 -0.00181662 0 -0.00181662 5.14627e-08 0 0 0 0)
(0 -0.00176462 0 -0.00176462 5.19596e-08 0 0 0 0)
(0 -0.00171228 0 -0.00171228 5.23511e-08 0 0 0 0)
(0 -0.00165964 0 -0.00165964 5.27221e-08 0 0 0 0)
(0 -0.00160673 0 -0.00160673 5.30526e-08 0 0 0 0)
(0 -0.00155359 0 -0.00155359 5.32216e-08 0 0 0 0)
(0 -0.00150028 0 -0.00150028 5.30356e-08 0 0 0 0)
(0 -0.00144684 0 -0.00144684 5.22511e-08 0 0 0 0)
(0 -0.00139331 0 -0.00139331 5.06253e-08 0 0 0 0)
(0 -0.00133976 0 -0.00133976 4.80566e-08 0 0 0 0)
(0 -0.00128623 0 -0.00128623 4.47319e-08 0 0 0 0)
(0 -0.00123279 0 -0.00123279 4.10886e-08 0 0 0 0)
(0 -0.00117951 0 -0.00117951 3.75493e-08 0 0 0 0)
(0 -0.00112646 0 -0.00112646 3.42528e-08 0 0 0 0)
(0 -0.0010737 0 -0.0010737 3.10768e-08 0 0 0 0)
(0 -0.00102079 0 -0.00102079 2.78607e-08 0 0 0 0)
(2.78208e-17 -0.000967283 0 -0.000967283 2.45396e-08 0 0 0 0)
(0 -0.00091328 0 -0.00091328 2.11393e-08 0 0 0 0)
(0 -0.000858903 0 -0.000858903 1.78146e-08 0 0 0 0)
(-2.48213e-17 -0.000804291 0 -0.000804291 1.47888e-08 0 0 0 0)
(0 -0.000749603 0 -0.000749603 1.21443e-08 0 0 0 0)
(2.2927e-17 -0.000695018 0 -0.000695018 9.86503e-09 0 0 0 0)
(0 -0.000640733 0 -0.000640733 7.9609e-09 0 0 0 0)
(-2.11516e-17 -0.000586968 0 -0.000586968 6.41153e-09 0 0 0 0)
(0 -0.000533955 0 -0.000533955 5.15275e-09 0 0 0 0)
(0 -0.000481944 0 -0.000481944 4.13193e-09 0 0 0 0)
(0 -0.000431193 0 -0.000431193 3.30995e-09 0 0 0 0)
(-1.80949e-17 -0.000381963 0 -0.000381963 2.6577e-09 0 0 0 0)
(0 -0.000334507 0 -0.000334507 2.14342e-09 0 0 0 0)
(0 -0.000289062 0 -0.000289062 1.72919e-09 0 0 0 0)
(0 -0.000245837 0 -0.000245837 1.39783e-09 0 0 0 0)
(0 -0.000205002 0 -0.000205002 1.13869e-09 0 0 0 0)
(0 -0.00016668 0 -0.00016668 9.29457e-10 0 0 0 0)
(1.51099e-17 -0.000130944 0 -0.000130944 7.56693e-10 0 0 0 0)
(0 -9.78188e-05 0 -9.78188e-05 6.17691e-10 0 0 0 0)
(1.44922e-17 -6.7282e-05 0 -6.7282e-05 5.06744e-10 0 0 0 0)
(0 -3.92772e-05 0 -3.92772e-05 4.15323e-10 0 0 0 0)
(1.39601e-17 -1.37221e-05 0 -1.37221e-05 3.38699e-10 0 0 0 0)
(0 9.48044e-06 0 9.48044e-06 2.76563e-10 0 0 0 0)
(0 3.04334e-05 0 3.04334e-05 2.26262e-10 0 0 0 0)
(0 4.92391e-05 0 4.92391e-05 1.83926e-10 0 0 0 0)
(0 6.59936e-05 0 6.59936e-05 1.48708e-10 0 0 0 0)
(-1.25529e-17 8.0785e-05 0 8.0785e-05 1.19836e-10 0 0 0 0)
(-1.22195e-17 9.36922e-05 0 9.36922e-05 9.57389e-11 0 0 0 0)
(0 0.000104785 0 0.000104785 7.54634e-11 0 0 0 0)
(0 0.000114126 0 0.000114126 5.91592e-11 0 0 0 0)
(0 0.000121771 0 0.000121771 4.73185e-11 0 0 0 0)
(0 0.00012777 0 0.00012777 3.82537e-11 0 0 0 0)
(0 0.000132169 0 0.000132169 2.12952e-11 0 0 0 0)
(0 0.000135012 0 0.000135012 1.79125e-11 0 0 0 0)
(0 0.000136339 0 0.000136339 3.081e-11 0 0 0 0)
(0 0.000136191 0 0.000136191 1.8358e-11 0 0 0 0)
(0 0.000134608 0 0.000134608 4.59915e-12 0 0 0 0)
(0 0.000131627 0 0.000131627 4.10432e-12 0 0 0 0)
(0 0.00012729 0 0.00012729 -9.51789e-13 0 0 0 0)
(0 0.000121639 0 0.000121639 -1.547e-12 0 0 0 0)
(0 0.000114723 0 0.000114723 2.40624e-13 0 0 0 0)
(1.16909e-17 0.000106597 0 0.000106597 6.51602e-13 0 0 0 0)
(-1.05723e-17 9.7329e-05 0 9.7329e-05 -1.74028e-12 0 0 0 0)
(0 8.70022e-05 0 8.70022e-05 3.13153e-12 0 0 0 0)
(0 7.57243e-05 0 7.57243e-05 -4.42446e-12 0 0 0 0)
(0 6.36384e-05 0 6.36384e-05 5.37781e-12 0 0 0 0)
(0 5.09411e-05 0 5.09411e-05 -5.79576e-12 0 0 0 0)
(0 3.79133e-05 0 3.79133e-05 5.576e-12 0 0 0 0)
(3.30778e-18 2.49567e-05 0 2.49567e-05 -4.67544e-12 0 0 0 0)
(0 1.25822e-05 0 1.25822e-05 3.1644e-12 0 0 0 0)
(0 2.63015e-06 0 2.63015e-06 -1.23507e-12 0 0 0 0)
(0 1.74278e-07 0 1.74278e-07 3.26313e-13 0 0 0 0)
(0 8.64532e-09 0 8.64532e-09 -2.50193e-13 0 0 0 0)
(0 3.76682e-10 0 3.76682e-10 2.45246e-13 0 0 0 0)
(0 1.67367e-10 0 1.67367e-10 -2.41506e-13 0 0 0 0)
(0 1.27989e-10 0 1.27989e-10 2.38046e-13 0 0 0 0)
(0 9.90078e-11 0 9.90078e-11 -2.34597e-13 0 0 0 0)
(0 7.62863e-11 0 7.62863e-11 2.31408e-13 0 0 0 0)
(0 5.85117e-11 0 5.85117e-11 -2.28217e-13 0 0 0 0)
(0 4.4658e-11 0 4.4658e-11 2.25255e-13 0 0 0 0)
(0 3.39064e-11 0 3.39064e-11 -2.22268e-13 0 0 0 0)
(0 2.56026e-11 0 2.56026e-11 2.19475e-13 0 0 0 0)
(0 1.92234e-11 0 1.92234e-11 -2.16638e-13 0 0 0 0)
(0 1.435e-11 0 1.435e-11 2.13957e-13 0 0 0 0)
(-1.12435e-19 1.06487e-11 0 1.06487e-11 -2.11204e-13 0 0 0 0)
(0 7.85466e-12 0 7.85466e-12 2.08598e-13 0 0 0 0)
(0 5.75777e-12 0 5.75777e-12 -2.05922e-13 0 0 0 0)
(0 4.19422e-12 0 4.19422e-12 2.03349e-13 0 0 0 0)
(0 3.03576e-12 0 3.03576e-12 -2.00709e-13 0 0 0 0)
(0 2.18293e-12 0 2.18293e-12 1.98142e-13 0 0 0 0)
(0 1.55903e-12 0 1.55903e-12 -1.95508e-13 0 0 0 0)
(0 1.10596e-12 0 1.10596e-12 1.92931e-13 0 0 0 0)
(0 7.79364e-13 0 7.79364e-13 -1.90287e-13 0 0 0 0)
(0 5.45054e-13 0 5.45054e-13 1.87679e-13 0 0 0 0)
(0 3.78366e-13 0 3.78366e-13 -1.85012e-13 0 0 0 0)
(0 2.60823e-13 0 2.60823e-13 1.82367e-13 0 0 0 0)
(0 1.78482e-13 0 1.78482e-13 -1.79671e-13 0 0 0 0)
(0 1.21199e-13 0 1.21199e-13 1.76982e-13 0 0 0 0)
(0 8.16445e-14 0 8.16445e-14 -1.74249e-13 0 0 0 0)
(0 5.44715e-14 0 5.44715e-14 1.71525e-13 0 0 0 0)
(0 3.61942e-14 0 3.61942e-14 -1.68754e-13 0 0 0 0)
(0 2.37749e-14 0 2.37749e-14 1.65981e-13 0 0 0 0)
(0 1.54848e-14 0 1.54848e-14 -1.63177e-13 0 0 0 0)
(0 1.00803e-14 0 1.00803e-14 1.60358e-13 0 0 0 0)
(-1.50452e-19 6.39041e-15 0 6.39041e-15 -1.57519e-13 0 0 0 0)
(0 4.04664e-15 0 4.04664e-15 1.54656e-13 0 0 0 0)
(0 2.51131e-15 0 2.51131e-15 -1.51789e-13 0 0 0 0)
(0 1.501e-15 0 1.501e-15 1.48889e-13 0 0 0 0)
(0 9.79984e-16 0 9.79984e-16 -1.45992e-13 0 0 0 0)
(0 6.66984e-16 0 6.66984e-16 1.43049e-13 0 0 0 0)
(0 3.90422e-16 0 3.90422e-16 -1.40126e-13 0 0 0 0)
(0 1.79923e-16 0 1.79923e-16 1.37152e-13 0 0 0 0)
(0 1.10015e-16 0 1.10015e-16 -1.34205e-13 0 0 0 0)
(0 8.83013e-17 0 8.83013e-17 1.31202e-13 0 0 0 0)
(-1.23064e-19 -1.00912e-17 0 -1.00912e-17 -1.28215e-13 0 0 0 0)
(0 -6.00063e-18 0 -6.00063e-18 1.25222e-13 0 0 0 0)
(0 1.68458e-17 0 1.68458e-17 -1.22208e-13 0 0 0 0)
(1.15864e-19 2.71123e-17 0 2.71123e-17 1.1919e-13 0 0 0 0)
(0 5.93916e-17 0 5.93916e-17 -1.1615e-13 0 0 0 0)
(0 1.9895e-17 0 1.9895e-17 1.13106e-13 0 0 0 0)
(0 -4.17528e-17 0 -4.17528e-17 -1.10049e-13 0 0 0 0)
(0 -1.76946e-17 0 -1.76946e-17 1.06979e-13 0 0 0 0)
(0 -1.02431e-17 0 -1.02431e-17 -1.03899e-13 0 0 0 0)
(0 2.12855e-17 0 2.12855e-17 1.00809e-13 0 0 0 0)
(0 2.55428e-17 0 2.55428e-17 -9.77054e-14 0 0 0 0)
(0 2.25682e-17 0 2.25682e-17 9.45884e-14 0 0 0 0)
(0 1.83723e-18 0 1.83723e-18 -9.14601e-14 0 0 0 0)
(0 -1.0053e-16 0 -1.0053e-16 8.83637e-14 0 0 0 0)
(0 -7.80594e-17 0 -7.80594e-17 -9.74419e-14 0 0 0 0)
(0 -1.91112e-17 0 -1.91112e-17 9.63496e-14 0 0 0 0)
(0 2.40346e-17 0 2.40346e-17 -9.53011e-14 0 0 0 0)
(0 2.05935e-17 0 2.05935e-17 9.42408e-14 0 0 0 0)
(0 -2.46169e-18 0 -2.46169e-18 -9.31737e-14 0 0 0 0)
(0 2.23405e-17 0 2.23405e-17 9.20935e-14 0 0 0 0)
(0 -1.41613e-17 0 -1.41613e-17 -9.10065e-14 0 0 0 0)
(0 -7.83505e-18 0 -7.83505e-18 8.99049e-14 0 0 0 0)
(0 3.70312e-17 0 3.70312e-17 -8.87954e-14 0 0 0 0)
(0 -4.15046e-17 0 -4.15046e-17 8.76696e-14 0 0 0 0)
(0 -2.68139e-17 0 -2.68139e-17 -8.65356e-14 0 0 0 0)
(0 2.86403e-17 0 2.86403e-17 8.53846e-14 0 0 0 0)
(0 2.5861e-17 0 2.5861e-17 -8.42237e-14 0 0 0 0)
(0 4.34104e-18 0 4.34104e-18 8.30452e-14 0 0 0 0)
(0 -7.70271e-18 0 -7.70271e-18 -8.18551e-14 0 0 0 0)
(0 -2.67345e-18 0 -2.67345e-18 8.06477e-14 0 0 0 0)
(0 -1.34466e-17 0 -1.34466e-17 -7.94245e-14 0 0 0 0)
(0 1.82906e-17 0 1.82906e-17 7.81869e-14 0 0 0 0)
(0 1.32349e-19 0 1.32349e-19 -7.69302e-14 0 0 0 0)
(0 -4.42045e-18 0 -4.42045e-18 7.56597e-14 0 0 0 0)
(0 -4.02341e-18 0 -4.02341e-18 -7.43647e-14 0 0 0 0)
(0 -1.52731e-17 0 -1.52731e-17 7.30596e-14 0 0 0 0)
(0 5.18808e-18 0 5.18808e-18 -7.17173e-14 0 0 0 0)
(0 1.99053e-17 0 1.99053e-17 7.03698e-14 0 0 0 0)
(0 4.94985e-18 0 4.94985e-18 -6.89734e-14 0 0 0 0)
(0 3.4146e-18 0 3.4146e-18 6.75799e-14 0 0 0 0)
(0 -1.95612e-17 0 -1.95612e-17 -6.61276e-14 0 0 0 0)
(0 -1.35525e-17 0 -1.35525e-17 6.46744e-14 0 0 0 0)
(0 -1.30496e-17 0 -1.30496e-17 -6.31562e-14 0 0 0 0)
(0 -8.04417e-17 0 -8.04417e-17 6.16433e-14 0 0 0 0)
(0 -2.5951e-16 0 -2.5951e-16 -6.00447e-14 0 0 0 0)
(0 -7.94093e-19 0 -7.94093e-19 5.84591e-14 0 0 0 0)
(0 2.56307e-16 0 2.56307e-16 -5.67678e-14 0 0 0 0)
(0 7.27919e-17 0 7.27919e-17 5.50991e-14 0 0 0 0)
(0 7.67624e-18 0 7.67624e-18 -5.33002e-14 0 0 0 0)
(0 7.17331e-18 0 7.17331e-18 5.15304e-14 0 0 0 0)
(0 4.59515e-17 0 4.59515e-17 -4.96048e-14 0 0 0 0)
(0 1.95347e-17 0 1.95347e-17 4.7701e-14 0 0 0 0)
(0 -2.27111e-17 0 -2.27111e-17 -4.56204e-14 0 0 0 0)
(0 -7.64447e-17 0 -7.64447e-17 4.35466e-14 0 0 0 0)
(0 7.46448e-18 0 7.46448e-18 -4.12615e-14 0 0 0 0)
(0 1.16467e-16 0 1.16467e-16 3.89591e-14 0 0 0 0)
(0 5.70688e-17 0 5.70688e-17 -3.63963e-14 0 0 0 0)
(0 -3.5893e-17 0 -3.5893e-17 3.3766e-14 0 0 0 0)
(0 -4.20605e-17 0 -4.20605e-17 -3.07784e-14 0 0 0 0)
(0 -3.14196e-17 0 -3.14196e-17 2.76093e-14 0 0 0 0)
(0 -2.47757e-17 0 -2.47757e-17 -2.38551e-14 0 0 0 0)
(0 1.87141e-17 0 1.87141e-17 1.96962e-14 0 0 0 0)
(0 -3.83812e-17 0 -3.83812e-17 -1.43484e-14 0 0 0 0)
(0 -5.46601e-17 0 -5.46601e-17 5.08194e-15 0 0 0 0)
)
;

boundaryField
{
    inandouthalf11
    {
        type            cyclic;
    }
    inandouthalf12
    {
        type            cyclic;
    }
    inandouthalf21
    {
        type            cyclic;
    }
    inandouthalf22
    {
        type            cyclic;
    }
    inandouthalf31
    {
        type            cyclic;
    }
    inandouthalf32
    {
        type            cyclic;
    }
    inandouthalf41
    {
        type            cyclic;
    }
    inandouthalf42
    {
        type            cyclic;
    }
    top
    {
        type            symmetryPlane;
    }
    walls
    {
        type            zeroGradient;
    }
    frontAndBackPlanes
    {
        type            empty;
    }
}


// ************************************************************************* //
