/*--------------------------------*- C++ -*----------------------------------*\
| =========                 |                                                 |
| \\      /  F ield         | OpenFOAM: The Open Source CFD Toolbox           |
|  \\    /   O peration     | Version:  2.4.x                                 |
|   \\  /    A nd           | Web:      www.OpenFOAM.org                      |
|    \\/     M anipulation  |                                                 |
\*---------------------------------------------------------------------------*/
FoamFile
{
    version     2.0;
    format      ascii;
    class       volTensorField;
    location    "5.7";
    object      Taus;
}
// * * * * * * * * * * * * * * * * * * * * * * * * * * * * * * * * * * * * * //

dimensions      [0 2 -2 0 0 0 0];

internalField   nonuniform List<tensor> 
360
(
(0 -0.0152025 0 -0.0152025 -0.194197 0 0 0 0)
(0 -0.0213524 0 -0.0213524 -0.236842 0 0 0 0)
(0 -0.0259378 0 -0.0259378 -0.244187 0 0 0 0)
(0 -0.0257738 0 -0.0257738 -0.239335 0 0 0 0)
(9.57655e-18 -0.0250966 0 -0.0250966 -0.236113 0 0 0 0)
(9.22983e-18 -0.025014 0 -0.025014 -0.234628 0 0 0 0)
(9.06173e-18 -0.0250809 0 -0.0250809 -0.233219 0 0 0 0)
(0 -0.0251122 0 -0.0251122 -0.231644 0 0 0 0)
(1.77398e-17 -0.025123 0 -0.025123 -0.230055 0 0 0 0)
(0 -0.0251179 0 -0.0251179 -0.228424 0 0 0 0)
(1.72946e-17 -0.0251015 0 -0.0251015 -0.226763 0 0 0 0)
(0 -0.025086 0 -0.025086 -0.225115 0 0 0 0)
(3.36031e-17 -0.0250726 0 -0.0250726 -0.223468 0 0 0 0)
(0 -0.0250625 0 -0.0250625 -0.221833 0 0 0 0)
(0 -0.0250526 0 -0.0250526 -0.220198 0 0 0 0)
(0 -0.0250396 0 -0.0250396 -0.218555 0 0 0 0)
(0 -0.0250242 0 -0.0250242 -0.216907 0 0 0 0)
(6.27435e-17 -0.0250086 0 -0.0250086 -0.21526 0 0 0 0)
(0 -0.0249922 0 -0.0249922 -0.213615 0 0 0 0)
(0 -0.0249732 0 -0.0249732 -0.211956 0 0 0 0)
(0 -0.0249572 0 -0.0249572 -0.210316 0 0 0 0)
(2.97113e-17 -0.0249385 0 -0.0249385 -0.208662 0 0 0 0)
(0 -0.0249188 0 -0.0249188 -0.207009 0 0 0 0)
(0 -0.0248992 0 -0.0248992 -0.205358 0 0 0 0)
(0 -0.0248789 0 -0.0248789 -0.203703 0 0 0 0)
(5.63669e-17 -0.0248591 0 -0.0248591 -0.202051 0 0 0 0)
(0 -0.0248397 0 -0.0248397 -0.200404 0 0 0 0)
(0 -0.0248167 0 -0.0248167 -0.198743 0 0 0 0)
(0 -0.0247932 0 -0.0247932 -0.197085 0 0 0 0)
(0 -0.0247696 0 -0.0247696 -0.195428 0 0 0 0)
(0 -0.0247429 0 -0.0247429 -0.193768 0 0 0 0)
(0 -0.0247116 0 -0.0247116 -0.192088 0 0 0 0)
(0 -0.0246814 0 -0.0246814 -0.190433 0 0 0 0)
(0 -0.0246414 0 -0.0246414 -0.188734 0 0 0 0)
(0 -0.0246037 0 -0.0246037 -0.187063 0 0 0 0)
(-4.74455e-17 -0.0245642 0 -0.0245642 -0.185375 0 0 0 0)
(0 -0.0245278 0 -0.0245278 -0.183705 0 0 0 0)
(0 -0.0244917 0 -0.0244917 -0.182031 0 0 0 0)
(0 -0.0244617 0 -0.0244617 -0.180358 0 0 0 0)
(0 -0.0244493 0 -0.0244493 -0.178741 0 0 0 0)
(0 -0.0244401 0 -0.0244401 -0.177101 0 0 0 0)
(0 -0.0244461 0 -0.0244461 -0.175496 0 0 0 0)
(-9.92883e-17 -0.0244664 0 -0.0244664 -0.173921 0 0 0 0)
(0 -0.024483 0 -0.024483 -0.172312 0 0 0 0)
(0 -0.0244998 0 -0.0244998 -0.170717 0 0 0 0)
(0 -0.0245002 0 -0.0245002 -0.169086 0 0 0 0)
(0 -0.0244714 0 -0.0244714 -0.167401 0 0 0 0)
(0 -0.0244022 0 -0.0244022 -0.165678 0 0 0 0)
(0 -0.0242548 0 -0.0242548 -0.163834 0 0 0 0)
(0 -0.0240146 0 -0.0240146 -0.161847 0 0 0 0)
(-4.08157e-17 -0.0236948 0 -0.0236948 -0.159768 0 0 0 0)
(0 -0.0233116 0 -0.0233116 -0.157567 0 0 0 0)
(0 -0.022937 0 -0.022937 -0.155393 0 0 0 0)
(0 -0.0226546 0 -0.0226546 -0.153395 0 0 0 0)
(0 -0.0225352 0 -0.0225352 -0.151758 0 0 0 0)
(0 -0.022583 0 -0.022583 -0.150422 0 0 0 0)
(0 -0.0227787 0 -0.0227787 -0.149342 0 0 0 0)
(0 -0.0230556 0 -0.0230556 -0.148298 0 0 0 0)
(0 -0.0233693 0 -0.0233693 -0.147238 0 0 0 0)
(0 -0.0236965 0 -0.0236965 -0.146115 0 0 0 0)
(0 -0.0240053 0 -0.0240053 -0.144858 0 0 0 0)
(0 -0.0243068 0 -0.0243068 -0.143549 0 0 0 0)
(0 -0.0245848 0 -0.0245848 -0.142147 0 0 0 0)
(0 -0.0248197 0 -0.0248197 -0.14073 0 0 0 0)
(0 -0.0249601 0 -0.0249601 -0.139321 0 0 0 0)
(0 -0.0249503 0 -0.0249503 -0.137981 0 0 0 0)
(0 -0.0247725 0 -0.0247725 -0.136715 0 0 0 0)
(0 -0.0244829 0 -0.0244829 -0.13551 0 0 0 0)
(0 -0.0241691 0 -0.0241691 -0.134324 0 0 0 0)
(0 -0.0238912 0 -0.0238912 -0.133126 0 0 0 0)
(0 -0.0236618 0 -0.0236618 -0.131865 0 0 0 0)
(0 -0.0234886 0 -0.0234886 -0.130554 0 0 0 0)
(0 -0.0233673 0 -0.0233673 -0.129225 0 0 0 0)
(0 -0.0232714 0 -0.0232714 -0.127836 0 0 0 0)
(0 -0.0231965 0 -0.0231965 -0.126426 0 0 0 0)
(0 -0.0231334 0 -0.0231334 -0.124981 0 0 0 0)
(0 -0.0230828 0 -0.0230828 -0.123529 0 0 0 0)
(0 -0.0230351 0 -0.0230351 -0.122055 0 0 0 0)
(0 -0.0229837 0 -0.0229837 -0.120562 0 0 0 0)
(0 -0.0229262 0 -0.0229262 -0.11905 0 0 0 0)
(0 -0.0228613 0 -0.0228613 -0.117526 0 0 0 0)
(0 -0.0227834 0 -0.0227834 -0.11598 0 0 0 0)
(0 -0.0226918 0 -0.0226918 -0.114417 0 0 0 0)
(0 -0.0225875 0 -0.0225875 -0.11284 0 0 0 0)
(0 -0.022471 0 -0.022471 -0.111248 0 0 0 0)
(0 -0.0223444 0 -0.0223444 -0.109646 0 0 0 0)
(0 -0.0222087 0 -0.0222087 -0.108034 0 0 0 0)
(0 -0.0220666 0 -0.0220666 -0.106416 0 0 0 0)
(0 -0.0219185 0 -0.0219185 -0.104792 0 0 0 0)
(0 -0.0217642 0 -0.0217642 -0.103161 0 0 0 0)
(0 -0.0216039 0 -0.0216039 -0.101523 0 0 0 0)
(0 -0.0214374 0 -0.0214374 -0.0998788 0 0 0 0)
(0 -0.0212642 0 -0.0212642 -0.0982265 0 0 0 0)
(0 -0.0210845 0 -0.0210845 -0.0965667 0 0 0 0)
(0 -0.0208987 0 -0.0208987 -0.0948995 0 0 0 0)
(0 -0.0207076 0 -0.0207076 -0.0932252 0 0 0 0)
(0 -0.0205119 0 -0.0205119 -0.0915444 0 0 0 0)
(0 -0.0203122 0 -0.0203122 -0.0898575 0 0 0 0)
(0 -0.020109 0 -0.020109 -0.0881648 0 0 0 0)
(0 -0.0199027 0 -0.0199027 -0.0864665 0 0 0 0)
(0 -0.0196935 0 -0.0196935 -0.0847627 0 0 0 0)
(0 -0.0194815 0 -0.0194815 -0.0830537 0 0 0 0)
(0 -0.0192667 0 -0.0192667 -0.0813395 0 0 0 0)
(0 -0.0190491 0 -0.0190491 -0.0796202 0 0 0 0)
(0 -0.018829 0 -0.018829 -0.077896 0 0 0 0)
(0 -0.0186065 0 -0.0186065 -0.0761672 0 0 0 0)
(0 -0.0183816 0 -0.0183816 -0.074434 0 0 0 0)
(0 -0.0181545 0 -0.0181545 -0.0726964 0 0 0 0)
(0 -0.0179253 0 -0.0179253 -0.0709548 0 0 0 0)
(0 -0.017694 0 -0.017694 -0.0692092 0 0 0 0)
(0 -0.0174608 0 -0.0174608 -0.0674598 0 0 0 0)
(0 -0.0172258 0 -0.0172258 -0.0657068 0 0 0 0)
(0 -0.0169892 0 -0.0169892 -0.0639502 0 0 0 0)
(0 -0.0167512 0 -0.0167512 -0.0621904 0 0 0 0)
(0 -0.0165122 0 -0.0165122 -0.0604273 0 0 0 0)
(0 -0.0162724 0 -0.0162724 -0.0586611 0 0 0 0)
(0 -0.0160322 0 -0.0160322 -0.0568921 0 0 0 0)
(0 -0.015792 0 -0.015792 -0.0551202 0 0 0 0)
(0 -0.0155523 0 -0.0155523 -0.0533455 0 0 0 0)
(0 -0.0153133 0 -0.0153133 -0.0515682 0 0 0 0)
(0 -0.0150756 0 -0.0150756 -0.0497883 0 0 0 0)
(0 -0.0148396 0 -0.0148396 -0.0480058 0 0 0 0)
(0 -0.0146058 0 -0.0146058 -0.0462208 0 0 0 0)
(0 -0.0143747 0 -0.0143747 -0.0444333 0 0 0 0)
(0 -0.0141468 0 -0.0141468 -0.0426433 0 0 0 0)
(0 -0.013922 0 -0.013922 -0.0408504 0 0 0 0)
(0 -0.0137 0 -0.0137 -0.0390541 0 0 0 0)
(0 -0.0134797 0 -0.0134797 -0.0372536 0 0 0 0)
(0 -0.0132601 0 -0.0132601 -0.0354476 0 0 0 0)
(0 -0.0130413 0 -0.0130413 -0.033635 0 0 0 0)
(0 -0.0128251 0 -0.0128251 -0.0318145 0 0 0 0)
(0 -0.0126135 0 -0.0126135 -0.0299845 0 0 0 0)
(0 -0.0124032 0 -0.0124032 -0.0281421 0 0 0 0)
(0 -0.0121837 0 -0.0121837 -0.0262829 0 0 0 0)
(0 -0.0119469 0 -0.0119469 -0.0244029 0 0 0 0)
(0 -0.0117011 0 -0.0117011 -0.0225015 0 0 0 0)
(0 -0.0114579 0 -0.0114579 -0.0205787 0 0 0 0)
(0 -0.0111949 0 -0.0111949 -0.0186423 0 0 0 0)
(0 -0.0108424 0 -0.0108424 -0.016721 0 0 0 0)
(0 -0.0103613 0 -0.0103613 -0.0148267 0 0 0 0)
(0 -0.00986868 0 -0.00986868 -0.0129091 0 0 0 0)
(0 -0.00950914 0 -0.00950914 -0.0109751 0 0 0 0)
(0 -0.0090498 0 -0.0090498 -0.00887616 0 0 0 0)
(0 -0.00841085 0 -0.00841085 -0.00648584 0 0 0 0)
(0 -0.00775114 0 -0.00775114 -0.00283427 0 0 0 0)
(0 -0.00603766 0 -0.00603766 0.000756797 0 0 0 0)
(0 -0.00245233 0 -0.00245233 -0.000752695 0 0 0 0)
(0 -0.00152236 0 -0.00152236 -4.37408e-06 0 0 0 0)
(0 -0.00206211 0 -0.00206211 -5.07693e-06 0 0 0 0)
(0 -0.00239578 0 -0.00239578 -4.83274e-06 0 0 0 0)
(0 -0.00203643 0 -0.00203643 -3.39913e-06 0 0 0 0)
(0 -0.00183188 0 -0.00183188 -2.92035e-06 0 0 0 0)
(0 -0.00175873 0 -0.00175873 -2.97723e-06 0 0 0 0)
(0 -0.00178237 0 -0.00178237 -3.01105e-06 0 0 0 0)
(0 -0.00187998 0 -0.00187998 -2.88632e-06 0 0 0 0)
(0 -0.00203752 0 -0.00203752 -2.4285e-06 0 0 0 0)
(0 -0.00224653 0 -0.00224653 -1.41692e-06 0 0 0 0)
(0 -0.00250213 0 -0.00250213 4.10254e-07 0 0 0 0)
(0 -0.00280172 0 -0.00280172 3.3496e-06 0 0 0 0)
(0 -0.00314425 0 -0.00314425 7.73231e-06 0 0 0 0)
(0 -0.00352968 0 -0.00352968 1.39269e-05 0 0 0 0)
(0 -0.00395867 0 -0.00395867 2.23418e-05 0 0 0 0)
(0 -0.00443229 0 -0.00443229 3.34277e-05 0 0 0 0)
(0 -0.00495191 0 -0.00495191 4.76794e-05 0 0 0 0)
(0 -0.00551904 0 -0.00551904 6.56395e-05 0 0 0 0)
(0 -0.00613521 0 -0.00613521 8.79011e-05 0 0 0 0)
(0 -0.00680194 0 -0.00680194 0.000115115 0 0 0 0)
(0 -0.00752062 0 -0.00752062 0.00014799 0 0 0 0)
(0 -0.00829247 0 -0.00829247 0.0001873 0 0 0 0)
(0 -0.00911847 0 -0.00911847 0.000233894 0 0 0 0)
(0 -0.00999929 0 -0.00999929 0.000288698 0 0 0 0)
(0 -0.0109353 0 -0.0109353 0.000352719 0 0 0 0)
(0 -0.0119263 0 -0.0119263 0.000427057 0 0 0 0)
(0 -0.0129719 0 -0.0129719 0.000512902 0 0 0 0)
(0 -0.014071 0 -0.014071 0.000611549 0 0 0 0)
(0 -0.015222 0 -0.015222 0.000724398 0 0 0 0)
(0 -0.0164227 0 -0.0164227 0.000852961 0 0 0 0)
(0 -0.0176704 0 -0.0176704 0.000998874 0 0 0 0)
(0 -0.0189614 0 -0.0189614 0.0011639 0 0 0 0)
(0 -0.0202916 0 -0.0202916 0.00134993 0 0 0 0)
(0 -0.0216561 0 -0.0216561 0.001559 0 0 0 0)
(0 -0.0230491 0 -0.0230491 0.00179331 0 0 0 0)
(0 -0.0244643 0 -0.0244643 0.0020552 0 0 0 0)
(0 -0.0258943 0 -0.0258943 0.00234705 0 0 0 0)
(0 -0.0273315 0 -0.0273315 0.00267104 0 0 0 0)
(0 -0.028768 0 -0.028768 0.00302857 0 0 0 0)
(0 -0.0301969 0 -0.0301969 0.00341928 0 0 0 0)
(0 -0.0316136 0 -0.0316136 0.00383969 0 0 0 0)
(0 -0.0330175 0 -0.0330175 0.00428187 0 0 0 0)
(0 -0.0344138 0 -0.0344138 0.00473264 0 0 0 0)
(0 -0.0358137 0 -0.0358137 0.00517425 0 0 0 0)
(0 -0.0372329 0 -0.0372329 0.00558625 0 0 0 0)
(0 -0.0386897 0 -0.0386897 0.00594748 0 0 0 0)
(0 -0.0402033 0 -0.0402033 0.00623954 0 0 0 0)
(0 -0.0417839 0 -0.0417839 0.00645398 0 0 0 0)
(0 -0.0434195 0 -0.0434195 0.00659935 0 0 0 0)
(0 -0.0450754 0 -0.0450754 0.00669741 0 0 0 0)
(0 -0.0467213 0 -0.0467213 0.00676388 0 0 0 0)
(0 -0.0483686 0 -0.0483686 0.00678529 0 0 0 0)
(0 -0.0500858 0 -0.0500858 0.0067169 0 0 0 0)
(0 -0.0519477 0 -0.0519477 0.00651309 0 0 0 0)
(0 -0.0540059 0 -0.0540059 0.00614337 0 0 0 0)
(2.72274e-15 -0.0563254 0 -0.0563254 0.00558076 0 0 0 0)
(0 -0.0589316 0 -0.0589316 0.00483154 0 0 0 0)
(0 -0.0616818 0 -0.0616818 0.00395141 0 0 0 0)
(-7.58725e-15 -0.0645052 0 -0.0645052 0.00298019 0 0 0 0)
(0 -0.0674547 0 -0.0674547 0.00192349 0 0 0 0)
(4.6434e-15 -0.070378 0 -0.070378 0.000831407 0 0 0 0)
(0 -0.0731603 0 -0.0731603 -0.000245597 0 0 0 0)
(-1.10438e-14 -0.0758615 0 -0.0758615 -0.00131135 0 0 0 0)
(0 -0.0783811 0 -0.0783811 -0.00234569 0 0 0 0)
(0 -0.0806672 0 -0.0806672 -0.00332587 0 0 0 0)
(0 -0.0827033 0 -0.0827033 -0.00423111 0 0 0 0)
(-1.41348e-14 -0.0843363 0 -0.0843363 -0.00502514 0 0 0 0)
(0 -0.0857099 0 -0.0857099 -0.00575699 0 0 0 0)
(0 -0.08679 0 -0.08679 -0.00642036 0 0 0 0)
(0 -0.0873637 0 -0.0873637 -0.00694752 0 0 0 0)
(0 -0.0876622 0 -0.0876622 -0.0074247 0 0 0 0)
(0 -0.0877033 0 -0.0877033 -0.00788878 0 0 0 0)
(1.60624e-14 -0.0873265 0 -0.0873265 -0.00827763 0 0 0 0)
(0 -0.0865709 0 -0.0865709 -0.00859863 0 0 0 0)
(0 -0.0854802 0 -0.0854802 -0.00890178 0 0 0 0)
(0 -0.084144 0 -0.084144 -0.00923626 0 0 0 0)
(1.53713e-14 -0.0824085 0 -0.0824085 -0.00953064 0 0 0 0)
(0 -0.0802666 0 -0.0802666 -0.00978757 0 0 0 0)
(0 -0.0779123 0 -0.0779123 -0.0101284 0 0 0 0)
(0 -0.0752427 0 -0.0752427 -0.0105157 0 0 0 0)
(0 -0.0722226 0 -0.0722226 -0.0109369 0 0 0 0)
(-1.29408e-14 -0.0689161 0 -0.0689161 -0.0114723 0 0 0 0)
(-1.22917e-14 -0.0652544 0 -0.0652544 -0.0121141 0 0 0 0)
(0 -0.061158 0 -0.061158 -0.0128906 0 0 0 0)
(0 -0.0563524 0 -0.0563524 -0.0136109 0 0 0 0)
(0 -0.050949 0 -0.050949 -0.0145994 0 0 0 0)
(0 -0.0450759 0 -0.0450759 -0.0160705 0 0 0 0)
(0 -0.0386964 0 -0.0386964 -0.0190149 0 0 0 0)
(0 -0.0357858 0 -0.0357858 -0.0202835 0 0 0 0)
(0 -0 0 -0 -0 0 0 0 0)
(0 -0 0 -0 0 0 0 0 0)
(0 0 0 0 -0 0 0 0 0)
(0 0 0 0 -0 0 0 0 0)
(0 0 0 0 -0 0 0 0 0)
(0 0 0 0 -0 0 0 0 0)
(0 0 0 0 0 0 0 0 0)
(0 0 0 0 -0 0 0 0 0)
(0 0 0 0 -0 0 0 0 0)
(0 0 0 0 -0 0 0 0 0)
(0 0 0 0 -0 0 0 0 0)
(0 0 0 0 0 0 0 0 0)
(0 0 0 0 0 0 0 0 0)
(0 0 0 0 0 0 0 0 0)
(0 0 0 0 0 0 0 0 0)
(0 0 0 0 0 0 0 0 0)
(0 0 0 0 0 0 0 0 0)
(0 0 0 0 0 0 0 0 0)
(0 0 0 0 0 0 0 0 0)
(0 0 0 0 0 0 0 0 0)
(0 0 0 0 -0 0 0 0 0)
(0 0 0 0 0 0 0 0 0)
(0 0 0 0 -0 0 0 0 0)
(0 0 0 0 0 0 0 0 0)
(0 0 0 0 -0 0 0 0 0)
(0 0 0 0 0 0 0 0 0)
(0 0 0 0 -0 0 0 0 0)
(0 0 0 0 0 0 0 0 0)
(0 0 0 0 -0 0 0 0 0)
(0 0 0 0 0 0 0 0 0)
(0 0 0 0 -0 0 0 0 0)
(0 0 0 0 0 0 0 0 0)
(0 0 0 0 -0 0 0 0 0)
(0 0 0 0 0 0 0 0 0)
(0 0 0 0 0 0 0 0 0)
(0 0 0 0 -0 0 0 0 0)
(0 0 0 0 0 0 0 0 0)
(0 0 0 0 0 0 0 0 0)
(0 0 0 0 -0 0 0 0 0)
(0 0 0 0 0 0 0 0 0)
(0 0 0 0 -0 0 0 0 0)
(0 0 0 0 0 0 0 0 0)
(0 0 0 0 -0 0 0 0 0)
(0 0 0 0 0 0 0 0 0)
(0 0 0 0 -0 0 0 0 0)
(0 0 0 0 0 0 0 0 0)
(0 0 0 0 -0 0 0 0 0)
(0 0 0 0 0 0 0 0 0)
(0 0 0 0 -0 0 0 0 0)
(0 0 0 0 0 0 0 0 0)
(-0 0 0 0 -0 0 0 0 0)
(0 0 0 0 0 0 0 0 0)
(0 0 0 0 -0 0 0 0 0)
(0 0 0 0 0 0 0 0 0)
(0 0 0 0 -0 0 0 0 0)
(0 0 0 0 0 0 0 0 0)
(0 0 0 0 -0 0 0 0 0)
(0 0 0 0 0 0 0 0 0)
(0 0 0 0 -0 0 0 0 0)
(0 0 0 0 0 0 0 0 0)
(-0 -0 0 -0 -0 0 0 0 0)
(0 -0 0 -0 0 0 0 0 0)
(0 0 0 0 -0 0 0 0 0)
(0 0 0 0 0 0 0 0 0)
(0 0 0 0 -0 0 0 0 0)
(0 0 0 0 0 0 0 0 0)
(0 -0 0 -0 -0 0 0 0 0)
(0 -0 0 -0 0 0 0 0 0)
(0 -0 0 -0 -0 0 0 0 0)
(0 0 0 0 0 0 0 0 0)
(0 0 0 0 -0 0 0 0 0)
(0 0 0 0 0 0 0 0 0)
(0 -0 0 -0 -0 0 0 0 0)
(0 -0 0 -0 0 0 0 0 0)
(0 -0 0 -0 -0 0 0 0 0)
(0 -0 0 -0 0 0 0 0 0)
(0 0 0 0 -0 0 0 0 0)
(0 0 0 0 0 0 0 0 0)
(0 -0 0 -0 -0 0 0 0 0)
(0 0 0 0 0 0 0 0 0)
(0 -0 0 -0 -0 0 0 0 0)
(0 -0 0 -0 0 0 0 0 0)
(0 0 0 0 -0 0 0 0 0)
(0 -0 0 -0 0 0 0 0 0)
(0 -0 0 -0 -0 0 0 0 0)
(0 0 0 0 0 0 0 0 0)
(0 0 0 0 -0 0 0 0 0)
(0 0 0 0 0 0 0 0 0)
(0 -0 0 -0 -0 0 0 0 0)
(0 -0 0 -0 0 0 0 0 0)
(0 -0 0 -0 -0 0 0 0 0)
(0 0 0 0 0 0 0 0 0)
(0 -0 0 -0 -0 0 0 0 0)
(0 -0 0 -0 0 0 0 0 0)
(0 -0 0 -0 -0 0 0 0 0)
(0 -0 0 -0 0 0 0 0 0)
(0 0 0 0 -0 0 0 0 0)
(0 0 0 0 0 0 0 0 0)
(0 0 0 0 -0 0 0 0 0)
(0 0 0 0 0 0 0 0 0)
(0 -0 0 -0 -0 0 0 0 0)
(0 -0 0 -0 0 0 0 0 0)
(0 -0 0 -0 -0 0 0 0 0)
(0 -0 0 -0 0 0 0 0 0)
(0 -0 0 -0 -0 0 0 0 0)
(0 0 0 0 0 0 0 0 0)
(0 0 0 0 -0 0 0 0 0)
(0 0 0 0 0 0 0 0 0)
(0 0 0 0 -0 0 0 0 0)
(0 0 0 0 0 0 0 0 0)
(0 0 0 0 -0 0 0 0 0)
(0 0 0 0 0 0 0 0 0)
(0 -0 0 -0 -0 0 0 0 0)
(0 -0 0 -0 0 0 0 0 0)
(0 0 0 0 -0 0 0 0 0)
(0 0 0 0 0 0 0 0 0)
(0 0 0 0 -0 0 0 0 0)
(0 -0 0 -0 0 0 0 0 0)
(0 0 0 0 0 0 0 0 0)
(0 0 0 0 0 0 0 0 0)
(0 -0 0 -0 0 0 0 0 0)
(0 -0 0 -0 0 0 0 0 0)
(0 -0 0 -0 0 0 0 0 0)
(0 -0 0 -0 0 0 0 0 0)
)
;

boundaryField
{
    inandouthalf11
    {
        type            cyclic;
    }
    inandouthalf12
    {
        type            cyclic;
    }
    inandouthalf21
    {
        type            cyclic;
    }
    inandouthalf22
    {
        type            cyclic;
    }
    inandouthalf31
    {
        type            cyclic;
    }
    inandouthalf32
    {
        type            cyclic;
    }
    inandouthalf41
    {
        type            cyclic;
    }
    inandouthalf42
    {
        type            cyclic;
    }
    top
    {
        type            symmetryPlane;
    }
    walls
    {
        type            zeroGradient;
    }
    frontAndBackPlanes
    {
        type            empty;
    }
}


// ************************************************************************* //
