/*--------------------------------*- C++ -*----------------------------------*\
| =========                 |                                                 |
| \\      /  F ield         | OpenFOAM: The Open Source CFD Toolbox           |
|  \\    /   O peration     | Version:  2.4.x                                 |
|   \\  /    A nd           | Web:      www.OpenFOAM.org                      |
|    \\/     M anipulation  |                                                 |
\*---------------------------------------------------------------------------*/
FoamFile
{
    version     2.0;
    format      ascii;
    class       volScalarField;
    location    "5.7";
    object      Theta_0;
}
// * * * * * * * * * * * * * * * * * * * * * * * * * * * * * * * * * * * * * //

dimensions      [0 2 -2 0 0 0 0];

internalField   nonuniform List<scalar> 
360
(
6.6671e-21
6.68139e-21
6.67609e-21
6.67395e-21
6.67469e-21
6.67553e-21
6.67589e-21
6.67602e-21
6.67612e-21
6.67626e-21
6.67645e-21
6.67667e-21
6.67689e-21
6.67709e-21
6.67729e-21
6.67749e-21
6.6777e-21
6.6779e-21
6.67811e-21
6.67831e-21
6.67851e-21
6.6787e-21
6.67889e-21
6.67907e-21
6.67925e-21
6.67944e-21
6.67965e-21
6.67989e-21
6.68017e-21
6.6805e-21
6.68088e-21
6.68132e-21
6.68179e-21
6.68226e-21
6.68265e-21
6.68289e-21
6.6829e-21
6.68264e-21
6.68207e-21
6.68123e-21
6.68027e-21
6.67935e-21
6.6787e-21
6.67857e-21
6.67929e-21
6.68128e-21
6.68528e-21
6.69249e-21
6.70482e-21
6.72407e-21
6.74877e-21
6.76821e-21
6.76337e-21
6.72923e-21
6.69012e-21
6.6687e-21
6.66246e-21
6.66145e-21
6.66136e-21
6.66135e-21
6.66135e-21
6.66135e-21
6.66135e-21
6.66135e-21
6.66135e-21
6.66135e-21
6.66134e-21
6.66134e-21
6.66134e-21
6.66134e-21
6.66134e-21
6.66134e-21
6.66134e-21
6.66134e-21
6.66134e-21
6.66134e-21
6.66134e-21
6.66134e-21
6.66133e-21
6.66133e-21
6.66133e-21
6.66133e-21
6.66133e-21
6.66133e-21
6.66133e-21
6.66133e-21
6.66133e-21
6.66132e-21
6.66132e-21
6.66132e-21
6.66132e-21
6.66132e-21
6.66132e-21
6.66132e-21
6.66132e-21
6.66131e-21
6.66131e-21
6.66131e-21
6.66131e-21
6.66131e-21
6.66131e-21
6.6613e-21
6.6613e-21
6.6613e-21
6.6613e-21
6.6613e-21
6.6613e-21
6.66129e-21
6.66129e-21
6.66129e-21
6.66129e-21
6.66129e-21
6.66128e-21
6.66128e-21
6.66128e-21
6.66128e-21
6.66127e-21
6.66127e-21
6.66127e-21
6.66127e-21
6.66126e-21
6.66126e-21
6.66126e-21
6.66126e-21
6.66125e-21
6.66125e-21
6.66125e-21
6.66124e-21
6.66124e-21
6.66123e-21
6.66123e-21
6.66126e-21
1.26829e-20
5.57575e-20
2.81765e-19
1.54438e-18
9.2751e-18
6.20149e-17
4.69797e-16
4.10059e-15
4.18316e-14
5.05185e-13
7.32781e-12
1.29787e-10
3.32529e-09
2.29307e-07
9.95459e-06
0.000139587
0.001098
0.00247776
0.00314664
0.00357722
0.00390725
0.004184
0.00442332
0.00463039
0.00480741
0.00495627
0.00507918
0.00517862
0.00525713
0.00531715
0.0053609
0.00539034
0.00540721
0.00541299
0.00540898
0.00539628
0.00537585
0.00534855
0.00531511
0.00527619
0.0052324
0.00518426
0.00513228
0.00507692
0.00501861
0.00495774
0.00489469
0.00482983
0.0047635
0.00469601
0.00462768
0.00455879
0.00448961
0.00442039
0.00435138
0.00428279
0.00421481
0.00414761
0.00408136
0.00401616
0.00395212
0.0038893
0.00382775
0.00376747
0.00370845
0.00365066
0.00359407
0.00353862
0.00348424
0.0034303
0.0033762
0.00332188
0.00326722
0.00321215
0.00315654
0.00310028
0.00304327
0.00298537
0.00292647
0.00286644
0.00280515
0.00274247
0.00267826
0.00261238
0.00254467
0.00247497
0.00240311
0.00232892
0.00225218
0.00217267
0.00209016
0.00200436
0.00191496
0.00182159
0.00172383
0.00162115
0.00151292
0.00139832
0.00127631
0.00114543
0.00100362
0.000847636
0.000671798
0.000463741
0
0
0
0
0
0
0
0
0
0
0
0
0
0
0
0
0
0
0
0
0
0
0
0
0
0
0
0
0
0
0
0
0
0
0
0
0
0
0
0
0
0
0
0
0
0
0
0
0
0
0
0
0
0
0
0
0
0
0
0
0
0
0
0
0
0
0
0
0
0
0
0
0
0
0
0
0
0
0
0
0
0
0
0
0
0
0
0
0
0
0
0
0
0
0
0
0
0
0
0
0
0
0
0
0
0
0
0
0
0
0
0
0
0
0
0
0
0
0
0
0
0
0
0
)
;

boundaryField
{
    inandouthalf11
    {
        type            cyclic;
    }
    inandouthalf12
    {
        type            cyclic;
    }
    inandouthalf21
    {
        type            cyclic;
    }
    inandouthalf22
    {
        type            cyclic;
    }
    inandouthalf31
    {
        type            cyclic;
    }
    inandouthalf32
    {
        type            cyclic;
    }
    inandouthalf41
    {
        type            cyclic;
    }
    inandouthalf42
    {
        type            cyclic;
    }
    top
    {
        type            symmetryPlane;
    }
    walls
    {
        type            zeroGradient;
    }
    frontAndBackPlanes
    {
        type            empty;
    }
}


// ************************************************************************* //
