/*--------------------------------*- C++ -*----------------------------------*\
| =========                 |                                                 |
| \\      /  F ield         | OpenFOAM: The Open Source CFD Toolbox           |
|  \\    /   O peration     | Version:  2.4.x                                 |
|   \\  /    A nd           | Web:      www.OpenFOAM.org                      |
|    \\/     M anipulation  |                                                 |
\*---------------------------------------------------------------------------*/
FoamFile
{
    version     2.0;
    format      ascii;
    class       volScalarField;
    location    "5.7";
    object      tmf;
}
// * * * * * * * * * * * * * * * * * * * * * * * * * * * * * * * * * * * * * //

dimensions      [0 0 0 0 0 0 0];

internalField   nonuniform List<scalar> 
360
(
0.999205
0.999208
0.999208
0.999208
0.999208
0.999208
0.999208
0.999208
0.999208
0.999207
0.999207
0.999207
0.999207
0.999207
0.999207
0.999207
0.999207
0.999207
0.999207
0.999207
0.999207
0.999206
0.999206
0.999206
0.999206
0.999206
0.999206
0.999206
0.999206
0.999206
0.999206
0.999206
0.999205
0.999205
0.999205
0.999205
0.999205
0.999205
0.999205
0.999205
0.999205
0.999204
0.999204
0.999204
0.999204
0.999204
0.999204
0.999204
0.999204
0.999204
0.999203
0.999203
0.999203
0.999203
0.999203
0.999203
0.999203
0.999202
0.999202
0.999202
0.999202
0.999202
0.999202
0.999202
0.999202
0.999202
0.999202
0.999202
0.999201
0.999201
0.999201
0.999201
0.999201
0.999201
0.999201
0.999201
0.9992
0.9992
0.9992
0.9992
0.9992
0.9992
0.9992
0.999199
0.999199
0.999199
0.999199
0.999199
0.999199
0.999198
0.999198
0.999198
0.999198
0.999198
0.999197
0.999197
0.999197
0.999197
0.999196
0.999196
0.999196
0.999196
0.999195
0.999195
0.999195
0.999195
0.999194
0.999194
0.999194
0.999194
0.999193
0.999193
0.999193
0.999192
0.999192
0.999192
0.999191
0.999191
0.99919
0.99919
0.99919
0.999189
0.999189
0.999188
0.999188
0.999187
0.999187
0.999186
0.999186
0.999185
0.999185
0.999184
0.998894
0.998727
0.998551
0.99833
0.998047
0.997685
0.99722
0.996625
0.995863
0.994882
0.993619
0.991998
0.989912
0.987212
0.983603
0.977724
0.926719
0.887701
0.876778
0.87969
0.88416
0.889597
0.895617
0.901877
0.908086
0.91404
0.91962
0.924774
0.929496
0.933803
0.937729
0.94131
0.944583
0.947583
0.950342
0.952887
0.955245
0.957434
0.959475
0.961383
0.963171
0.964851
0.966433
0.967926
0.969337
0.970674
0.971941
0.973145
0.97429
0.975379
0.976416
0.977405
0.978349
0.979249
0.98011
0.980932
0.981718
0.98247
0.98319
0.983879
0.984538
0.98517
0.985775
0.986355
0.986911
0.987444
0.987955
0.988446
0.988918
0.989376
0.989825
0.990265
0.990697
0.99112
0.991534
0.99194
0.992339
0.992728
0.99311
0.993482
0.993844
0.994196
0.994535
0.994861
0.995171
0.995464
0.995737
0.995988
0.996217
0.996422
0.996603
0.996761
0.996896
0.997009
0.997103
0.997178
0.997238
0.997284
0.997318
0.997342
0.997358
0.997367
0.997371
0.997372
0.997368
0.994702
0.995231
0.995167
0.996673
0.996823
0.996873
0.996933
0.997005
0.99709
0.997191
0.997314
0.997463
0.99765
0.99789
0.998218
0.998598
0.998828
0.998857
0.998851
0.998844
0.998838
0.998831
0.998821
0.998505
0.994472
0.994189
0.994189
0.994189
0.994189
0.994189
0.994189
0.994189
0.994189
0.994189
0.994189
0.994189
0.994189
0.994189
0.994189
0.994189
0.994189
0.994189
0.994189
0.994189
0.994189
0.994189
0.994189
0.994189
0.994189
0.994189
0.994189
0.994189
0.994189
0.994189
0.994189
0.994189
0.994189
0.994189
0.994189
0.994189
0.994189
0.994189
0.994189
0.994189
0.994189
0.994189
0.994189
0.994189
0.994189
0.994189
0.994189
0.994189
0.994189
0.994189
0.994189
0.994189
0.994189
0.994189
0.994189
0.994189
0.994189
0.994189
0.994189
0.994189
0.994189
0.994189
0.994189
0.994189
0.994189
0.994189
0.994189
0.994189
0.994189
0.994189
0.994189
0.994189
0.994189
0.994189
0.994189
0.994189
0.994189
0.994189
0.994189
0.994189
0.994189
0.994189
0.994189
0.994189
0.994189
0.994189
0.994189
0.994189
0.994189
0.994189
0.994189
0.994189
0.994189
0.994189
0.994189
0.994189
0.994189
0.994174
0.993239
)
;

boundaryField
{
    inandouthalf11
    {
        type            cyclic;
    }
    inandouthalf12
    {
        type            cyclic;
    }
    inandouthalf21
    {
        type            cyclic;
    }
    inandouthalf22
    {
        type            cyclic;
    }
    inandouthalf31
    {
        type            cyclic;
    }
    inandouthalf32
    {
        type            cyclic;
    }
    inandouthalf41
    {
        type            cyclic;
    }
    inandouthalf42
    {
        type            cyclic;
    }
    top
    {
        type            symmetryPlane;
    }
    walls
    {
        type            calculated;
        value           uniform 0;
    }
    frontAndBackPlanes
    {
        type            empty;
    }
}


// ************************************************************************* //
