/*--------------------------------*- C++ -*----------------------------------*\
| =========                 |                                                 |
| \\      /  F ield         | OpenFOAM: The Open Source CFD Toolbox           |
|  \\    /   O peration     | Version:  2.4.x                                 |
|   \\  /    A nd           | Web:      www.OpenFOAM.org                      |
|    \\/     M anipulation  |                                                 |
\*---------------------------------------------------------------------------*/
FoamFile
{
    version     2.0;
    format      ascii;
    class       volVectorField;
    location    "5.7";
    object      Ua_0;
}
// * * * * * * * * * * * * * * * * * * * * * * * * * * * * * * * * * * * * * //

dimensions      [0 1 -1 0 0 0 0];

internalField   nonuniform List<vector> 
360
(
(-1.0183e-32 -9.11413e-32 0)
(-3.21438e-08 -2.053e-07 0)
(-6.89532e-08 -3.8241e-07 0)
(-1.01632e-07 -5.32385e-07 0)
(-1.34054e-07 -6.84665e-07 0)
(-1.67791e-07 -8.436e-07 0)
(-2.02472e-07 -1.00554e-06 0)
(-2.37666e-07 -1.16847e-06 0)
(-2.73229e-07 -1.33188e-06 0)
(-3.09171e-07 -1.49585e-06 0)
(-3.45561e-07 -1.66077e-06 0)
(-3.82455e-07 -1.82686e-06 0)
(-4.19871e-07 -1.99418e-06 0)
(-4.57802e-07 -2.16264e-06 0)
(-4.96238e-07 -2.33214e-06 0)
(-5.35178e-07 -2.50268e-06 0)
(-5.74636e-07 -2.67428e-06 0)
(-6.1462e-07 -2.84697e-06 0)
(-6.55136e-07 -3.02073e-06 0)
(-6.96189e-07 -3.19556e-06 0)
(-7.37775e-07 -3.37141e-06 0)
(-7.7989e-07 -3.54823e-06 0)
(-8.22536e-07 -3.726e-06 0)
(-8.65713e-07 -3.90471e-06 0)
(-9.09426e-07 -4.08431e-06 0)
(-9.53681e-07 -4.26483e-06 0)
(-9.98497e-07 -4.44629e-06 0)
(-1.04391e-06 -4.62882e-06 0)
(-1.08998e-06 -4.81262e-06 0)
(-1.13677e-06 -4.99788e-06 0)
(-1.18434e-06 -5.18485e-06 0)
(-1.23278e-06 -5.37382e-06 0)
(-1.28214e-06 -5.56494e-06 0)
(-1.33245e-06 -5.75829e-06 0)
(-1.38366e-06 -5.95373e-06 0)
(-1.43566e-06 -6.15068e-06 0)
(-1.48823e-06 -6.34827e-06 0)
(-1.54105e-06 -6.54532e-06 0)
(-1.59376e-06 -6.74046e-06 0)
(-1.64599e-06 -6.93218e-06 0)
(-1.69744e-06 -7.11942e-06 0)
(-1.74801e-06 -7.30182e-06 0)
(-1.79787e-06 -7.4799e-06 0)
(-1.84755e-06 -7.65558e-06 0)
(-1.89801e-06 -7.83228e-06 0)
(-1.95072e-06 -8.01504e-06 0)
(-2.00776e-06 -8.21101e-06 0)
(-2.07198e-06 -8.42977e-06 0)
(-2.14706e-06 -8.68387e-06 0)
(-2.23728e-06 -8.98806e-06 0)
(-2.34595e-06 -9.35407e-06 0)
(-2.47186e-06 -9.77893e-06 0)
(-2.60472e-06 -1.02286e-05 0)
(-2.7245e-06 -1.06347e-05 0)
(-2.81148e-06 -1.09286e-05 0)
(-2.86026e-06 -1.10918e-05 0)
(-2.881e-06 -1.11602e-05 0)
(-2.88778e-06 -1.11821e-05 0)
(-2.88956e-06 -1.11877e-05 0)
(-2.88997e-06 -1.11889e-05 0)
(-2.89005e-06 -1.11892e-05 0)
(-2.89007e-06 -1.11893e-05 0)
(-2.89008e-06 -1.11893e-05 0)
(-2.89008e-06 -1.11893e-05 0)
(-2.89008e-06 -1.11893e-05 0)
(-2.89008e-06 -1.11893e-05 0)
(-2.89008e-06 -1.11893e-05 0)
(-2.89008e-06 -1.11893e-05 0)
(-2.89008e-06 -1.11893e-05 0)
(-2.89008e-06 -1.11893e-05 0)
(-2.89008e-06 -1.11893e-05 0)
(-2.89008e-06 -1.11893e-05 0)
(-2.89008e-06 -1.11893e-05 0)
(-2.89009e-06 -1.11893e-05 0)
(-2.89009e-06 -1.11893e-05 0)
(-2.89009e-06 -1.11893e-05 0)
(-2.89009e-06 -1.11893e-05 0)
(-2.89009e-06 -1.11893e-05 0)
(-2.89009e-06 -1.11893e-05 0)
(-2.89009e-06 -1.11893e-05 0)
(-2.89009e-06 -1.11893e-05 0)
(-2.89009e-06 -1.11893e-05 0)
(-2.89009e-06 -1.11893e-05 0)
(-2.89009e-06 -1.11893e-05 0)
(-2.8901e-06 -1.11893e-05 0)
(-2.8901e-06 -1.11893e-05 0)
(-2.8901e-06 -1.11893e-05 0)
(-2.8901e-06 -1.11893e-05 0)
(-2.8901e-06 -1.11893e-05 0)
(-2.8901e-06 -1.11893e-05 0)
(-2.8901e-06 -1.11893e-05 0)
(-2.8901e-06 -1.11893e-05 0)
(-2.8901e-06 -1.11893e-05 0)
(-2.8901e-06 -1.11893e-05 0)
(-2.89011e-06 -1.11893e-05 0)
(-2.89011e-06 -1.11894e-05 0)
(-2.89011e-06 -1.11894e-05 0)
(-2.89011e-06 -1.11894e-05 0)
(-2.89011e-06 -1.11894e-05 0)
(-2.89011e-06 -1.11894e-05 0)
(-2.89011e-06 -1.11894e-05 0)
(-2.89011e-06 -1.11894e-05 0)
(-2.89011e-06 -1.11894e-05 0)
(-2.89012e-06 -1.11894e-05 0)
(-2.89012e-06 -1.11894e-05 0)
(-2.89012e-06 -1.11894e-05 0)
(-2.89012e-06 -1.11894e-05 0)
(-2.89012e-06 -1.11894e-05 0)
(-2.89012e-06 -1.11894e-05 0)
(-2.89012e-06 -1.11894e-05 0)
(-2.89012e-06 -1.11894e-05 0)
(-2.89012e-06 -1.11894e-05 0)
(-2.89013e-06 -1.11894e-05 0)
(-2.89013e-06 -1.11894e-05 0)
(-2.89013e-06 -1.11894e-05 0)
(-2.89013e-06 -1.11894e-05 0)
(-2.89013e-06 -1.11894e-05 0)
(-2.89013e-06 -1.11894e-05 0)
(-2.89013e-06 -1.11894e-05 0)
(-2.89014e-06 -1.11894e-05 0)
(-2.89014e-06 -1.11894e-05 0)
(-2.89014e-06 -1.11894e-05 0)
(-2.89014e-06 -1.11894e-05 0)
(-2.89014e-06 -1.11894e-05 0)
(-2.89014e-06 -1.11894e-05 0)
(-2.89015e-06 -1.11894e-05 0)
(-2.89015e-06 -1.11894e-05 0)
(-2.89015e-06 -1.11894e-05 0)
(-2.89015e-06 -1.11894e-05 0)
(-2.89015e-06 -1.11894e-05 0)
(-2.89015e-06 -1.11894e-05 0)
(-2.89016e-06 -1.11894e-05 0)
(-2.89016e-06 -1.11894e-05 0)
(-2.89016e-06 -1.11894e-05 0)
(-2.89016e-06 -1.11894e-05 0)
(-2.89016e-06 -1.11894e-05 0)
(-2.89016e-06 -1.11894e-05 0)
(-2.89017e-06 -1.11894e-05 0)
(-2.89017e-06 -1.11895e-05 0)
(-2.89017e-06 -1.11895e-05 0)
(-2.89017e-06 -1.11895e-05 0)
(-2.89017e-06 -1.11895e-05 0)
(-2.89017e-06 -1.11895e-05 0)
(-2.89017e-06 -1.11895e-05 0)
(-2.89017e-06 -1.11895e-05 0)
(-2.89017e-06 -1.11895e-05 0)
(-2.89017e-06 -1.11895e-05 0)
(-2.9888e-06 -1.12046e-05 0)
(-0.0617301 -9.99457e-05 0)
(-0.160297 -0.000208593 0)
(-0.236881 -0.000276605 0)
(-0.297485 -0.000323112 0)
(-0.34682 -0.000364258 0)
(-0.387905 -0.000399676 0)
(-0.422759 -0.000428439 0)
(-0.452806 -0.000449537 0)
(-0.47908 -0.000462041 0)
(-0.50235 -0.000465193 0)
(-0.52319 -0.000458449 0)
(-0.542038 -0.000441482 0)
(-0.559229 -0.000414139 0)
(-0.575022 -0.0003764 0)
(-0.589624 -0.000328347 0)
(-0.603195 -0.000270133 0)
(-0.615866 -0.000201968 0)
(-0.627744 -0.000124101 0)
(-0.638914 -3.68092e-05 0)
(-0.649448 5.96154e-05 0)
(-0.659405 0.000164867 0)
(-0.668836 0.000278635 0)
(-0.677781 0.00040061 0)
(-0.686277 0.000530483 0)
(-0.694354 0.00066795 0)
(-0.702037 0.000812709 0)
(-0.709349 0.000964462 0)
(-0.716309 0.00112291 0)
(-0.722934 0.00128777 0)
(-0.729238 0.00145873 0)
(-0.735235 0.0016355 0)
(-0.740935 0.00181779 0)
(-0.74635 0.00200528 0)
(-0.751487 0.00219766 0)
(-0.756356 0.00239462 0)
(-0.760965 0.00259583 0)
(-0.76532 0.00280091 0)
(-0.769428 0.00300944 0)
(-0.773296 0.00322083 0)
(-0.77693 0.00343426 0)
(-0.780337 0.0036485 0)
(-0.783523 0.00386182 0)
(-0.786495 0.00407197 0)
(-0.78926 0.00427628 0)
(-0.791826 0.00447189 0)
(-0.794201 0.00465604 0)
(-0.796395 0.0048264 0)
(-0.798417 0.00498154 0)
(-0.800276 0.0051213 0)
(-0.801984 0.0052465 0)
(-0.803549 0.00535818 0)
(-0.804983 0.00545681 0)
(-0.806295 0.00554222 0)
(-0.807508 0.00561499 0)
(-0.80864 0.00567543 0)
(-0.809697 0.00572328 0)
(-0.810686 0.00575915 0)
(-0.811613 0.0057845 0)
(-0.812486 0.00580057 0)
(-0.813309 0.00580854 0)
(-0.81409 0.00580993 0)
(-0.814833 0.00580589 0)
(-0.815544 0.00579728 0)
(-0.816227 0.00578495 0)
(-0.816887 0.00576952 0)
(-0.817527 0.00575165 0)
(-0.81815 0.00573185 0)
(-0.81876 0.0057102 0)
(-0.819358 0.00568712 0)
(-0.819948 0.00566294 0)
(-0.82053 0.00563747 0)
(-0.821108 0.00561075 0)
(-0.821681 0.00558289 0)
(-0.822252 0.00555391 0)
(-0.822821 0.00552354 0)
(-0.823389 0.00549147 0)
(-0.823956 0.00545788 0)
(-0.824522 0.00542237 0)
(-0.825088 0.00538426 0)
(-0.825653 0.00534327 0)
(-0.826218 0.00529868 0)
(-0.826781 0.00524936 0)
(-0.827342 0.00519427 0)
(-0.827898 0.00513148 0)
(-0.828445 0.00506096 0)
(-0.828981 0.00497622 0)
(-0.829503 0.00487195 0)
(-0.83002 0.00472042 0)
(-0.830681 0.0045382 0)
(-0.908269 -0.00223159 0)
(-0.907832 0.00672328 0)
(-0.905796 -0.00552439 0)
(-0.903931 -0.0355798 0)
(-0.90217 -0.0396871 0)
(-0.900139 -0.0395778 0)
(-0.898232 -0.0395893 0)
(-0.896288 -0.03959 0)
(-0.894336 -0.0395913 0)
(-0.892391 -0.0395922 0)
(-0.890472 -0.0395925 0)
(-0.888604 -0.0395921 0)
(-0.88682 -0.0395906 0)
(-0.885168 -0.0395872 0)
(-0.883707 -0.0395796 0)
(-0.882774 -0.0395658 0)
(-0.882518 -0.0395539 0)
(-0.882501 -0.0395503 0)
(-0.8825 -0.0395501 0)
(-0.8825 -0.0395501 0)
(-0.8825 -0.0395501 0)
(-0.8825 -0.0395501 0)
(-0.8825 -0.0395501 0)
(-0.8825 -0.0395501 0)
(-0.882499 -0.0395501 0)
(-0.882499 -0.0395501 0)
(-0.882499 -0.0395501 0)
(-0.882499 -0.0395501 0)
(-0.882499 -0.0395501 0)
(-0.882499 -0.0395501 0)
(-0.882499 -0.0395501 0)
(-0.882499 -0.0395501 0)
(-0.882499 -0.0395501 0)
(-0.882499 -0.0395501 0)
(-0.882499 -0.0395501 0)
(-0.882499 -0.0395501 0)
(-0.882499 -0.0395501 0)
(-0.882499 -0.0395501 0)
(-0.882499 -0.0395501 0)
(-0.882499 -0.0395501 0)
(-0.882499 -0.0395501 0)
(-0.882499 -0.0395501 0)
(-0.882499 -0.0395501 0)
(-0.882499 -0.0395501 0)
(-0.882499 -0.0395501 0)
(-0.882499 -0.0395501 0)
(-0.882499 -0.0395501 0)
(-0.882499 -0.0395501 0)
(-0.882499 -0.0395501 0)
(-0.882499 -0.0395501 0)
(-0.882499 -0.0395501 0)
(-0.882499 -0.0395501 0)
(-0.882499 -0.0395501 0)
(-0.882499 -0.0395501 0)
(-0.882499 -0.0395501 0)
(-0.882499 -0.0395501 0)
(-0.882499 -0.0395501 0)
(-0.882499 -0.0395501 0)
(-0.882499 -0.0395501 0)
(-0.882499 -0.0395501 0)
(-0.882499 -0.0395501 0)
(-0.882499 -0.0395501 0)
(-0.882499 -0.0395501 0)
(-0.882499 -0.0395501 0)
(-0.882499 -0.0395501 0)
(-0.882499 -0.0395501 0)
(-0.882499 -0.0395501 0)
(-0.882499 -0.0395501 0)
(-0.882499 -0.0395501 0)
(-0.882499 -0.0395501 0)
(-0.882499 -0.0395501 0)
(-0.882499 -0.0395501 0)
(-0.882499 -0.0395501 0)
(-0.882499 -0.0395501 0)
(-0.882499 -0.0395501 0)
(-0.882499 -0.0395501 0)
(-0.882499 -0.0395501 0)
(-0.882499 -0.0395501 0)
(-0.882499 -0.0395501 0)
(-0.882499 -0.0395501 0)
(-0.882499 -0.0395501 0)
(-0.882499 -0.0395501 0)
(-0.882499 -0.0395501 0)
(-0.882499 -0.0395501 0)
(-0.882499 -0.0395501 0)
(-0.882499 -0.0395501 0)
(-0.882499 -0.0395501 0)
(-0.882499 -0.0395501 0)
(-0.882499 -0.0395501 0)
(-0.882499 -0.0395501 0)
(-0.882499 -0.0395501 0)
(-0.882499 -0.0395501 0)
(-0.882499 -0.0395501 0)
(-0.882499 -0.0395501 0)
(-0.882499 -0.0395501 0)
(-0.882499 -0.0395501 0)
(-0.882499 -0.0395501 0)
(-0.882499 -0.0395501 0)
(-0.882499 -0.0395501 0)
(-0.882499 -0.0395501 0)
(-0.882499 -0.0395501 0)
(-0.882499 -0.0395501 0)
(-0.882499 -0.0395501 0)
(-0.882499 -0.0395501 0)
(-0.882499 -0.0395501 0)
(-0.882499 -0.0395501 0)
(-0.882499 -0.0395501 0)
(-0.882499 -0.0395501 0)
(-0.882499 -0.0395501 0)
(-0.882499 -0.0395501 0)
(-0.882499 -0.0395501 0)
(-0.882499 -0.0395501 0)
(-0.882499 -0.0395501 0)
(-0.882499 -0.0395501 0)
(-0.882499 -0.0395501 0)
(-0.882499 -0.0395501 0)
(-0.882499 -0.0395501 0)
(-0.882499 -0.0395501 0)
(-0.882499 -0.0395501 0)
(-0.882499 -0.0395499 0)
(-0.882499 -0.0395414 0)
(-0.882499 -0.039197 0)
(-0.8825 -0.0225005 0)
)
;

boundaryField
{
    inandouthalf11
    {
        type            cyclic;
    }
    inandouthalf12
    {
        type            cyclic;
    }
    inandouthalf21
    {
        type            cyclic;
    }
    inandouthalf22
    {
        type            cyclic;
    }
    inandouthalf31
    {
        type            cyclic;
    }
    inandouthalf32
    {
        type            cyclic;
    }
    inandouthalf41
    {
        type            cyclic;
    }
    inandouthalf42
    {
        type            cyclic;
    }
    top
    {
        type            symmetryPlane;
    }
    walls
    {
        type            fixedValue;
        value           uniform (0 0 0);
    }
    frontAndBackPlanes
    {
        type            empty;
    }
}


// ************************************************************************* //
