/*--------------------------------*- C++ -*----------------------------------*\
| =========                 |                                                 |
| \\      /  F ield         | OpenFOAM: The Open Source CFD Toolbox           |
|  \\    /   O peration     | Version:  2.4.x                                 |
|   \\  /    A nd           | Web:      www.OpenFOAM.org                      |
|    \\/     M anipulation  |                                                 |
\*---------------------------------------------------------------------------*/
FoamFile
{
    version     2.0;
    format      ascii;
    class       volVectorField;
    location    "5.7";
    object      Ub_0;
}
// * * * * * * * * * * * * * * * * * * * * * * * * * * * * * * * * * * * * * //

dimensions      [0 1 -1 0 0 0 0];

internalField   nonuniform List<vector> 
360
(
(3.4875e-07 8.34983e-08 0)
(3.15126e-07 3.10958e-07 0)
(2.7796e-07 5.852e-07 0)
(2.45474e-07 8.36162e-07 0)
(2.13189e-07 1.07987e-06 0)
(1.79512e-07 1.32837e-06 0)
(1.44885e-07 1.58184e-06 0)
(1.09754e-07 1.83768e-06 0)
(7.42549e-08 2.0945e-06 0)
(3.83786e-08 2.35224e-06 0)
(2.05685e-09 2.61136e-06 0)
(-3.47688e-08 2.8722e-06 0)
(-7.21162e-08 3.13485e-06 0)
(-1.09979e-07 3.39923e-06 0)
(-1.48346e-07 3.66523e-06 0)
(-1.87217e-07 3.9328e-06 0)
(-2.26603e-07 4.20199e-06 0)
(-2.66516e-07 4.4728e-06 0)
(-3.06961e-07 4.74523e-06 0)
(-3.47941e-07 5.01927e-06 0)
(-3.89455e-07 5.29484e-06 0)
(-4.31496e-07 5.57187e-06 0)
(-4.74067e-07 5.85034e-06 0)
(-5.1717e-07 6.13018e-06 0)
(-5.60807e-07 6.41139e-06 0)
(-6.04985e-07 6.69397e-06 0)
(-6.49725e-07 6.97798e-06 0)
(-6.95064e-07 7.26363e-06 0)
(-7.41057e-07 7.55119e-06 0)
(-7.87766e-07 7.84099e-06 0)
(-8.3526e-07 8.13339e-06 0)
(-8.83617e-07 8.42881e-06 0)
(-9.32895e-07 8.72745e-06 0)
(-9.83117e-07 9.02945e-06 0)
(-1.03425e-06 9.33443e-06 0)
(-1.08617e-06 9.64159e-06 0)
(-1.13864e-06 9.94954e-06 0)
(-1.19138e-06 1.02565e-05 0)
(-1.244e-06 1.05603e-05 0)
(-1.29614e-06 1.08588e-05 0)
(-1.3475e-06 1.11506e-05 0)
(-1.39798e-06 1.1435e-05 0)
(-1.44775e-06 1.17131e-05 0)
(-1.49734e-06 1.19881e-05 0)
(-1.54773e-06 1.22651e-05 0)
(-1.60036e-06 1.25522e-05 0)
(-1.65734e-06 1.28609e-05 0)
(-1.72149e-06 1.32062e-05 0)
(-1.79652e-06 1.36072e-05 0)
(-1.88669e-06 1.40852e-05 0)
(-1.99529e-06 1.46535e-05 0)
(-2.12111e-06 1.53015e-05 0)
(-2.25378e-06 1.59747e-05 0)
(-2.3733e-06 1.658e-05 0)
(-2.46e-06 1.70295e-05 0)
(-2.50853e-06 1.7296e-05 0)
(-2.52913e-06 1.74194e-05 0)
(-2.53581e-06 1.74634e-05 0)
(-2.53752e-06 1.74751e-05 0)
(-2.53785e-06 1.74765e-05 0)
(-2.53786e-06 1.74755e-05 0)
(-2.5378e-06 1.74736e-05 0)
(-2.53773e-06 1.74717e-05 0)
(-2.53765e-06 1.74697e-05 0)
(-2.53757e-06 1.74676e-05 0)
(-2.53748e-06 1.74655e-05 0)
(-2.5374e-06 1.74633e-05 0)
(-2.53731e-06 1.7461e-05 0)
(-2.53721e-06 1.74587e-05 0)
(-2.53712e-06 1.74562e-05 0)
(-2.53701e-06 1.74537e-05 0)
(-2.53691e-06 1.74511e-05 0)
(-2.5368e-06 1.74483e-05 0)
(-2.53669e-06 1.74456e-05 0)
(-2.53657e-06 1.74427e-05 0)
(-2.53646e-06 1.74398e-05 0)
(-2.53634e-06 1.74368e-05 0)
(-2.53622e-06 1.74337e-05 0)
(-2.53609e-06 1.74306e-05 0)
(-2.53596e-06 1.74274e-05 0)
(-2.53583e-06 1.74241e-05 0)
(-2.5357e-06 1.74208e-05 0)
(-2.53556e-06 1.74173e-05 0)
(-2.53542e-06 1.74138e-05 0)
(-2.53527e-06 1.74102e-05 0)
(-2.53512e-06 1.74064e-05 0)
(-2.53497e-06 1.74027e-05 0)
(-2.53482e-06 1.73988e-05 0)
(-2.53466e-06 1.73948e-05 0)
(-2.5345e-06 1.73908e-05 0)
(-2.53433e-06 1.73867e-05 0)
(-2.53416e-06 1.73825e-05 0)
(-2.53399e-06 1.73782e-05 0)
(-2.53381e-06 1.73737e-05 0)
(-2.53363e-06 1.73692e-05 0)
(-2.53344e-06 1.73646e-05 0)
(-2.53325e-06 1.73599e-05 0)
(-2.53305e-06 1.73551e-05 0)
(-2.53285e-06 1.73501e-05 0)
(-2.53265e-06 1.73451e-05 0)
(-2.53244e-06 1.73399e-05 0)
(-2.53222e-06 1.73346e-05 0)
(-2.532e-06 1.73292e-05 0)
(-2.53178e-06 1.73237e-05 0)
(-2.53154e-06 1.7318e-05 0)
(-2.53131e-06 1.73121e-05 0)
(-2.53106e-06 1.73062e-05 0)
(-2.53081e-06 1.73001e-05 0)
(-2.53056e-06 1.72938e-05 0)
(-2.53029e-06 1.72873e-05 0)
(-2.53002e-06 1.72807e-05 0)
(-2.52974e-06 1.72739e-05 0)
(-2.52945e-06 1.72669e-05 0)
(-2.52916e-06 1.72598e-05 0)
(-2.52886e-06 1.72524e-05 0)
(-2.52854e-06 1.72448e-05 0)
(-2.52822e-06 1.7237e-05 0)
(-2.52789e-06 1.7229e-05 0)
(-2.52754e-06 1.72207e-05 0)
(-2.52719e-06 1.72121e-05 0)
(-2.52682e-06 1.72033e-05 0)
(-2.52645e-06 1.71943e-05 0)
(-2.52606e-06 1.71849e-05 0)
(-2.52565e-06 1.71752e-05 0)
(-2.52523e-06 1.71653e-05 0)
(-2.5248e-06 1.71549e-05 0)
(-2.52435e-06 1.71442e-05 0)
(-2.52389e-06 1.71332e-05 0)
(-2.5234e-06 1.71217e-05 0)
(-2.5229e-06 1.71097e-05 0)
(-2.52237e-06 1.70973e-05 0)
(-2.52183e-06 1.70844e-05 0)
(-2.52125e-06 1.70708e-05 0)
(-2.52065e-06 1.70566e-05 0)
(-2.52001e-06 1.70416e-05 0)
(-2.51933e-06 1.70258e-05 0)
(-2.51861e-06 1.7009e-05 0)
(-2.51785e-06 1.69907e-05 0)
(-2.517e-06 1.69705e-05 0)
(-2.51603e-06 1.69489e-05 0)
(-2.51498e-06 1.6927e-05 0)
(-2.51397e-06 1.68999e-05 0)
(-2.51277e-06 1.68699e-05 0)
(-2.5112e-06 1.68344e-05 0)
(-2.50925e-06 1.67718e-05 0)
(-2.50611e-06 1.65935e-05 0)
(-2.89797e-06 1.6156e-05 0)
(-0.000340645 1.58377e-05 0)
(-0.0691041 7.05122e-05 0)
(-0.169975 6.84156e-05 0)
(-0.244773 6.16885e-05 0)
(-0.303857 5.5125e-05 0)
(-0.352187 4.7906e-05 0)
(-0.392632 4.0595e-05 0)
(-0.427103 3.37282e-05 0)
(-0.456953 2.75898e-05 0)
(-0.483164 2.22743e-05 0)
(-0.506468 1.77662e-05 0)
(-0.527417 1.39947e-05 0)
(-0.546433 1.08677e-05 0)
(-0.563839 8.29055e-06 0)
(-0.579892 6.1757e-06 0)
(-0.594793 4.44636e-06 0)
(-0.608704 3.03706e-06 0)
(-0.621756 1.89289e-06 0)
(-0.634056 9.68156e-07 0)
(-0.645692 2.24979e-07 0)
(-0.65674 -3.67995e-07 0)
(-0.66726 -8.36717e-07 0)
(-0.677306 -1.20269e-06 0)
(-0.686922 -1.48374e-06 0)
(-0.696147 -1.69468e-06 0)
(-0.705014 -1.84782e-06 0)
(-0.713552 -1.95342e-06 0)
(-0.721787 -2.01998e-06 0)
(-0.729741 -2.05462e-06 0)
(-0.737432 -2.06326e-06 0)
(-0.744878 -2.05083e-06 0)
(-0.752094 -2.02144e-06 0)
(-0.759093 -1.97854e-06 0)
(-0.765888 -1.92497e-06 0)
(-0.772489 -1.86312e-06 0)
(-0.778906 -1.79497e-06 0)
(-0.785146 -1.72216e-06 0)
(-0.791217 -1.64604e-06 0)
(-0.797127 -1.56764e-06 0)
(-0.802879 -1.48773e-06 0)
(-0.808481 -1.40676e-06 0)
(-0.813936 -1.32489e-06 0)
(-0.819249 -1.2421e-06 0)
(-0.824422 -1.15829e-06 0)
(-0.829458 -1.07349e-06 0)
(-0.834361 -9.87987e-07 0)
(-0.839131 -9.02457e-07 0)
(-0.843771 -8.18013e-07 0)
(-0.848282 -7.36179e-07 0)
(-0.852663 -6.58503e-07 0)
(-0.856917 -5.86001e-07 0)
(-0.861042 -5.18858e-07 0)
(-0.865039 -4.56709e-07 0)
(-0.868907 -3.99277e-07 0)
(-0.872683 -3.46098e-07 0)
(-0.876399 -2.97081e-07 0)
(-0.880045 -2.52767e-07 0)
(-0.883612 -2.13648e-07 0)
(-0.887092 -1.7974e-07 0)
(-0.890472 -1.50631e-07 0)
(-0.893742 -1.25914e-07 0)
(-0.896889 -1.05129e-07 0)
(-0.899901 -8.76866e-08 0)
(-0.902763 -7.30743e-08 0)
(-0.905463 -6.08706e-08 0)
(-0.907986 -5.07014e-08 0)
(-0.91032 -4.22399e-08 0)
(-0.912452 -3.51699e-08 0)
(-0.914373 -2.92566e-08 0)
(-0.916075 -2.43357e-08 0)
(-0.917552 -2.02181e-08 0)
(-0.918803 -1.67564e-08 0)
(-0.919829 -1.38667e-08 0)
(-0.920634 -1.14607e-08 0)
(-0.921226 -9.44871e-09 0)
(-0.921614 -7.76287e-09 0)
(-0.921808 -6.36021e-09 0)
(-0.921819 -5.19723e-09 0)
(-0.921658 -4.22563e-09 0)
(-0.921336 -3.4165e-09 0)
(-0.920863 -2.74766e-09 0)
(-0.920248 -2.19423e-09 0)
(-0.919498 -1.73815e-09 0)
(-0.918622 -1.36575e-09 0)
(-0.917626 -1.06572e-09 0)
(-0.916517 -8.21481e-10 0)
(-0.915302 -6.14972e-10 0)
(-0.913986 -4.43247e-10 0)
(-0.912576 -3.96797e-10 0)
(-0.911077 -2.49406e-10 0)
(-0.909497 -4.86819e-11 0)
(-0.907842 -3.33607e-11 0)
(-0.906118 9.26919e-12 0)
(-0.904333 2.09639e-11 0)
(-0.902495 -4.61789e-12 0)
(-0.900611 -2.39288e-12 0)
(-0.898693 -6.52821e-13 0)
(-0.896749 9.48501e-12 0)
(-0.894793 -3.60544e-11 0)
(-0.89284 8.14505e-11 0)
(-0.890908 -1.53113e-10 0)
(-0.88902 2.49316e-10 0)
(-0.887207 -3.74035e-10 0)
(-0.885515 5.22491e-10 0)
(-0.884014 -6.94665e-10 0)
(-0.882881 8.82414e-10 0)
(-0.882521 -1.08303e-09 0)
(-0.882497 1.28961e-09 0)
(-0.882496 -1.50293e-09 0)
(-0.882495 1.72035e-09 0)
(-0.882495 -1.94422e-09 0)
(-0.882495 2.17271e-09 0)
(-0.882495 -2.40785e-09 0)
(-0.882495 2.64819e-09 0)
(-0.882495 -2.89537e-09 0)
(-0.882495 3.1483e-09 0)
(-0.882495 -3.40826e-09 0)
(-0.882495 3.67451e-09 0)
(-0.882495 -3.94796e-09 0)
(-0.882495 4.2282e-09 0)
(-0.882495 -4.51576e-09 0)
(-0.882495 4.8106e-09 0)
(-0.882494 -5.11291e-09 0)
(-0.882494 5.42295e-09 0)
(-0.882494 -5.74059e-09 0)
(-0.882494 6.06636e-09 0)
(-0.882494 -6.39988e-09 0)
(-0.882494 6.7419e-09 0)
(-0.882494 -7.0918e-09 0)
(-0.882494 7.45054e-09 0)
(-0.882494 -7.81731e-09 0)
(-0.882494 8.19323e-09 0)
(-0.882494 -8.57734e-09 0)
(-0.882494 8.97087e-09 0)
(-0.882494 -9.37275e-09 0)
(-0.882494 9.78433e-09 0)
(-0.882494 -1.02044e-08 0)
(-0.882494 1.06344e-08 0)
(-0.882494 -1.10731e-08 0)
(-0.882494 1.1522e-08 0)
(-0.882494 -1.19797e-08 0)
(-0.882494 1.24477e-08 0)
(-0.882494 -1.29248e-08 0)
(-0.882494 1.34124e-08 0)
(-0.882494 -1.39093e-08 0)
(-0.882494 1.44168e-08 0)
(-0.882494 -1.49338e-08 0)
(-0.882494 1.54614e-08 0)
(-0.882494 -1.59989e-08 0)
(-0.882494 1.6547e-08 0)
(-0.882494 -1.71053e-08 0)
(-0.882494 1.76743e-08 0)
(-0.882494 -1.82535e-08 0)
(-0.882494 1.88436e-08 0)
(-0.882494 -1.94441e-08 0)
(-0.882494 2.00555e-08 0)
(-0.882494 -2.06774e-08 0)
(-0.882494 2.13104e-08 0)
(-0.882494 -2.19538e-08 0)
(-0.882494 2.26085e-08 0)
(-0.882494 -2.32736e-08 0)
(-0.882494 2.39499e-08 0)
(-0.882494 -2.46368e-08 0)
(-0.882494 2.22383e-08 0)
(-0.882494 -2.24319e-08 0)
(-0.882494 2.26237e-08 0)
(-0.882494 -2.28132e-08 0)
(-0.882494 2.30007e-08 0)
(-0.882494 -2.31859e-08 0)
(-0.882494 2.33691e-08 0)
(-0.882494 -2.35499e-08 0)
(-0.882494 2.37287e-08 0)
(-0.882494 -2.39051e-08 0)
(-0.882494 2.40794e-08 0)
(-0.882494 -2.42513e-08 0)
(-0.882494 2.44209e-08 0)
(-0.882494 -2.45882e-08 0)
(-0.882494 2.47531e-08 0)
(-0.882494 -2.49157e-08 0)
(-0.882494 2.50757e-08 0)
(-0.882494 -2.52334e-08 0)
(-0.882494 2.53884e-08 0)
(-0.882494 -2.55412e-08 0)
(-0.882494 2.5691e-08 0)
(-0.882494 -2.58388e-08 0)
(-0.882494 2.59831e-08 0)
(-0.882494 -2.61258e-08 0)
(-0.882494 2.62645e-08 0)
(-0.882494 -2.64018e-08 0)
(-0.882494 2.65347e-08 0)
(-0.882494 -2.66664e-08 0)
(-0.882494 2.67933e-08 0)
(-0.882494 -2.69192e-08 0)
(-0.882494 2.70398e-08 0)
(-0.882494 -2.71594e-08 0)
(-0.882494 2.72736e-08 0)
(-0.882494 -2.73866e-08 0)
(-0.882494 2.74939e-08 0)
(-0.882494 -2.75999e-08 0)
(-0.882494 2.77e-08 0)
(-0.882494 -2.77984e-08 0)
(-0.882494 2.78907e-08 0)
(-0.882494 -2.79809e-08 0)
(-0.882494 2.80649e-08 0)
(-0.882494 -2.8146e-08 0)
(-0.882494 2.82206e-08 0)
(-0.882494 -2.82916e-08 0)
(-0.882494 2.83557e-08 0)
(-0.882494 -2.84149e-08 0)
(-0.882494 2.8466e-08 0)
(-0.882494 -2.85105e-08 0)
(-0.882494 2.85436e-08 0)
(-0.882494 -2.8568e-08 0)
)
;

boundaryField
{
    inandouthalf11
    {
        type            cyclic;
    }
    inandouthalf12
    {
        type            cyclic;
    }
    inandouthalf21
    {
        type            cyclic;
    }
    inandouthalf22
    {
        type            cyclic;
    }
    inandouthalf31
    {
        type            cyclic;
    }
    inandouthalf32
    {
        type            cyclic;
    }
    inandouthalf41
    {
        type            cyclic;
    }
    inandouthalf42
    {
        type            cyclic;
    }
    top
    {
        type            symmetryPlane;
    }
    walls
    {
        type            fixedValue;
        value           uniform (0 0 0);
    }
    frontAndBackPlanes
    {
        type            empty;
    }
}


// ************************************************************************* //
