/*--------------------------------*- C++ -*----------------------------------*\
| =========                 |                                                 |
| \\      /  F ield         | OpenFOAM: The Open Source CFD Toolbox           |
|  \\    /   O peration     | Version:  2.4.x                                 |
|   \\  /    A nd           | Web:      www.OpenFOAM.org                      |
|    \\/     M anipulation  |                                                 |
\*---------------------------------------------------------------------------*/
FoamFile
{
    version     2.0;
    format      ascii;
    class       volScalarField;
    location    "5.85";
    object      ddt0(((1.5*(alpha+1e-08))*rho),Theta);
}
// * * * * * * * * * * * * * * * * * * * * * * * * * * * * * * * * * * * * * //

dimensions      [1 -1 -3 0 0 0 0];

internalField   nonuniform List<scalar> 
360
(
-9.15533e-21
-3.44187e-20
-2.70433e-20
-2.2366e-20
-2.31409e-20
-2.46842e-20
-2.55462e-20
-2.58593e-20
-2.59514e-20
-2.60746e-20
-2.63332e-20
-2.66864e-20
-2.70591e-20
-2.74054e-20
-2.77255e-20
-2.80435e-20
-2.83665e-20
-2.86815e-20
-2.89758e-20
-2.92309e-20
-2.94305e-20
-2.95862e-20
-2.97147e-20
-2.98373e-20
-2.99974e-20
-3.02562e-20
-3.07017e-20
-3.14283e-20
-3.24964e-20
-3.39327e-20
-3.57271e-20
-3.77639e-20
-3.98058e-20
-4.14764e-20
-4.2212e-20
-4.13583e-20
-3.83143e-20
-3.27162e-20
-2.46771e-20
-1.50798e-20
-5.61704e-21
1.55521e-21
4.26758e-21
7.4242e-22
-1.04344e-20
-3.09708e-20
-6.41026e-20
-1.16504e-19
-2.01114e-19
-3.38993e-19
-5.53901e-19
-8.38277e-19
-1.05169e-18
-8.13828e-19
1.95914e-19
1.38843e-18
1.58336e-18
8.65762e-19
2.52995e-19
4.16634e-20
4.16227e-21
2.84484e-22
1.66033e-23
1.31446e-24
2.79053e-25
1.59794e-25
1.37114e-25
1.30819e-25
1.28241e-25
1.26119e-25
1.24029e-25
1.22931e-25
1.21577e-25
1.19992e-25
1.18719e-25
1.17757e-25
1.16908e-25
1.15815e-25
1.14609e-25
1.13735e-25
1.12568e-25
1.11327e-25
1.10151e-25
1.09004e-25
1.07868e-25
1.06805e-25
1.05741e-25
1.04698e-25
1.03632e-25
1.02543e-25
1.01346e-25
9.99918e-26
9.8503e-26
9.70911e-26
9.5538e-26
9.40593e-26
9.25677e-26
9.09449e-26
8.9363e-26
8.76414e-26
8.59058e-26
8.40455e-26
8.22287e-26
8.02734e-26
7.81983e-26
7.61491e-26
7.39771e-26
7.16513e-26
6.9297e-26
6.68076e-26
6.42272e-26
6.15795e-26
5.86326e-26
5.56965e-26
5.2617e-26
4.93722e-26
4.59543e-26
4.23905e-26
3.86077e-26
3.46646e-26
3.05558e-26
2.61899e-26
2.1671e-26
1.69492e-26
1.18971e-26
6.4697e-27
7.23604e-28
-5.6015e-27
-1.25143e-26
-1.9798e-26
-2.79146e-26
-9.91024e-23
-1.95154e-17
-1.04107e-16
-5.48662e-16
-2.97344e-15
-1.67747e-14
-1.01964e-13
-7.13327e-13
-6.16212e-12
-6.7245e-11
-9.06651e-10
-1.48049e-08
-2.94175e-07
-9.63552e-06
-0.000877377
-0.0320669
-0.352896
-0.94491
-0.626813
-0.427631
-0.314621
-0.235515
-0.176845
-0.133402
-0.101417
-0.0777831
-0.0601075
-0.0466986
-0.0363816
-0.0283514
-0.0220458
-0.0170614
-0.0131034
-0.00995052
-0.00743553
-0.0054284
-0.00382822
-0.0025551
-0.00154618
-0.000750883
-0.000129038
0.000351884
0.000718294
0.000991449
0.0011888
0.00132465
0.00141079
0.00145688
0.00147096
0.00145964
0.00142848
0.00138202
0.00132409
0.00125784
0.0011859
0.00111039
0.00103308
0.000955355
0.000878304
0.000802771
0.000729409
0.00065875
0.000591233
0.000527236
0.000467139
0.000411367
0.000360298
0.000314106
0.000272628
0.000235414
0.00020179
0.000171415
0.000144178
0.000120141
9.94541e-05
8.18609e-05
6.70332e-05
5.47512e-05
4.46306e-05
3.63127e-05
2.95237e-05
2.39611e-05
1.94461e-05
1.57849e-05
1.27726e-05
1.03334e-05
8.35482e-06
6.7271e-06
5.40266e-06
4.32453e-06
3.45326e-06
2.7417e-06
2.16227e-06
1.70063e-06
1.32571e-06
1.02385e-06
7.83529e-07
5.92107e-07
4.40383e-07
3.2231e-07
2.29088e-07
1.61297e-07
1.05227e-07
6.65272e-08
3.21892e-08
0
0
0
0
0
0
0
0
0
0
0
0
0
0
0
0
0
0
0
0
0
0
0
0
0
0
0
0
0
0
0
0
0
0
0
0
0
0
0
0
0
0
0
0
0
0
0
0
0
0
0
0
0
0
0
0
0
0
0
0
0
0
0
0
0
0
0
0
0
0
0
0
0
0
0
0
0
0
0
0
0
0
0
0
0
0
0
0
0
0
0
0
0
0
0
0
0
0
0
0
0
0
0
0
0
0
0
0
0
0
0
0
0
0
0
0
0
0
0
0
0
0
0
0
)
;

boundaryField
{
    inandouthalf11
    {
        type            cyclic;
    }
    inandouthalf12
    {
        type            cyclic;
    }
    inandouthalf21
    {
        type            cyclic;
    }
    inandouthalf22
    {
        type            cyclic;
    }
    inandouthalf31
    {
        type            cyclic;
    }
    inandouthalf32
    {
        type            cyclic;
    }
    inandouthalf41
    {
        type            cyclic;
    }
    inandouthalf42
    {
        type            cyclic;
    }
    top
    {
        type            symmetryPlane;
    }
    walls
    {
        type            calculated;
        value           uniform -9.15533e-21;
    }
    frontAndBackPlanes
    {
        type            empty;
    }
}


// ************************************************************************* //
