/*--------------------------------*- C++ -*----------------------------------*\
| =========                 |                                                 |
| \\      /  F ield         | OpenFOAM: The Open Source CFD Toolbox           |
|  \\    /   O peration     | Version:  2.4.x                                 |
|   \\  /    A nd           | Web:      www.OpenFOAM.org                      |
|    \\/     M anipulation  |                                                 |
\*---------------------------------------------------------------------------*/
FoamFile
{
    version     2.0;
    format      ascii;
    class       volVectorField;
    location    "5.85";
    object      ddt0(Ua);
}
// * * * * * * * * * * * * * * * * * * * * * * * * * * * * * * * * * * * * * //

dimensions      [0 1 -2 0 0 0 0];

internalField   nonuniform List<vector> 
360
(
(9.23661e-34 -6.49156e-33 0)
(1.53958e-08 7.08922e-08 0)
(3.44432e-08 1.42367e-07 0)
(5.13593e-08 2.01528e-07 0)
(6.76905e-08 2.58951e-07 0)
(8.45092e-08 3.18551e-07 0)
(1.01851e-07 3.80055e-07 0)
(1.19487e-07 4.42413e-07 0)
(1.37254e-07 5.04882e-07 0)
(1.55102e-07 5.67237e-07 0)
(1.73067e-07 6.29667e-07 0)
(1.91202e-07 6.9241e-07 0)
(2.09536e-07 7.55579e-07 0)
(2.2807e-07 8.19165e-07 0)
(2.46795e-07 8.83102e-07 0)
(2.65707e-07 9.47361e-07 0)
(2.84809e-07 1.01194e-06 0)
(3.04099e-07 1.07684e-06 0)
(3.23573e-07 1.142e-06 0)
(3.43217e-07 1.20737e-06 0)
(3.63011e-07 1.27284e-06 0)
(3.8293e-07 1.3383e-06 0)
(4.02961e-07 1.40367e-06 0)
(4.23098e-07 1.46893e-06 0)
(4.43352e-07 1.5341e-06 0)
(4.63764e-07 1.59935e-06 0)
(4.84411e-07 1.66498e-06 0)
(5.05417e-07 1.73147e-06 0)
(5.26946e-07 1.79948e-06 0)
(5.49183e-07 1.86972e-06 0)
(5.72312e-07 1.94288e-06 0)
(5.96483e-07 2.01954e-06 0)
(6.21745e-07 2.09982e-06 0)
(6.47986e-07 2.18325e-06 0)
(6.74854e-07 2.26846e-06 0)
(7.01696e-07 2.35289e-06 0)
(7.27548e-07 2.43286e-06 0)
(7.512e-07 2.50383e-06 0)
(7.7136e-07 2.56101e-06 0)
(7.8692e-07 2.60037e-06 0)
(7.97362e-07 2.62017e-06 0)
(8.03128e-07 2.62227e-06 0)
(8.05891e-07 2.613e-06 0)
(8.08663e-07 2.60341e-06 0)
(8.15729e-07 2.60885e-06 0)
(8.32553e-07 2.64837e-06 0)
(8.65857e-07 2.7449e-06 0)
(9.23969e-07 2.9263e-06 0)
(1.01745e-06 3.22763e-06 0)
(1.15951e-06 3.69305e-06 0)
(1.36422e-06 4.37052e-06 0)
(1.63898e-06 5.28797e-06 0)
(1.9647e-06 6.38888e-06 0)
(2.26234e-06 7.41662e-06 0)
(2.37529e-06 7.84246e-06 0)
(2.14181e-06 7.09923e-06 0)
(1.56805e-06 5.18797e-06 0)
(8.95249e-07 2.93637e-06 0)
(3.9214e-07 1.26746e-06 0)
(1.33296e-07 4.23035e-07 0)
(3.65436e-08 1.13647e-07 0)
(8.61619e-09 2.61917e-08 0)
(1.89865e-09 5.59055e-09 0)
(4.27572e-10 1.17009e-09 0)
(1.06676e-10 2.24861e-10 0)
(3.14912e-11 7.62051e-12 0)
(1.16566e-11 -4.86504e-11 0)
(5.71989e-12 -6.52011e-11 0)
(3.81257e-12 -7.0415e-11 0)
(3.30446e-12 -7.17437e-11 0)
(3.42433e-12 -7.1342e-11 0)
(3.94831e-12 -6.98269e-11 0)
(4.83707e-12 -6.73073e-11 0)
(6.11593e-12 -6.37212e-11 0)
(7.8216e-12 -5.89847e-11 0)
(9.96769e-12 -5.30867e-11 0)
(1.25243e-11 -4.61414e-11 0)
(1.54133e-11 -3.83929e-11 0)
(1.85218e-11 -3.01706e-11 0)
(2.17228e-11 -2.18269e-11 0)
(2.4898e-11 -1.36779e-11 0)
(2.79543e-11 -5.95909e-12 0)
(3.08318e-11 1.18967e-12 0)
(3.35019e-11 7.71412e-12 0)
(3.59617e-11 1.3627e-11 0)
(3.82262e-11 1.89852e-11 0)
(4.03218e-11 2.38708e-11 0)
(4.22799e-11 2.83754e-11 0)
(4.41331e-11 3.25891e-11 0)
(4.59126e-11 3.65958e-11 0)
(4.76469e-11 4.0469e-11 0)
(4.93607e-11 4.42707e-11 0)
(5.10753e-11 4.80524e-11 0)
(5.28084e-11 5.18552e-11 0)
(5.45746e-11 5.57118e-11 0)
(5.63857e-11 5.96467e-11 0)
(5.82508e-11 6.36783e-11 0)
(6.01771e-11 6.78189e-11 0)
(6.21696e-11 7.2076e-11 0)
(6.42317e-11 7.64536e-11 0)
(6.63657e-11 8.09521e-11 0)
(6.85726e-11 8.557e-11 0)
(7.08528e-11 9.03033e-11 0)
(7.3206e-11 9.51473e-11 0)
(7.56313e-11 1.00096e-10 0)
(7.81274e-11 1.05141e-10 0)
(8.06925e-11 1.10276e-10 0)
(8.33246e-11 1.15491e-10 0)
(8.60217e-11 1.20778e-10 0)
(8.87815e-11 1.26129e-10 0)
(9.16022e-11 1.31534e-10 0)
(9.44821e-11 1.36986e-10 0)
(9.742e-11 1.42478e-10 0)
(1.00415e-10 1.48004e-10 0)
(1.03469e-10 1.5356e-10 0)
(1.06583e-10 1.59144e-10 0)
(1.0976e-10 1.64756e-10 0)
(1.13006e-10 1.70398e-10 0)
(1.16328e-10 1.76075e-10 0)
(1.19735e-10 1.81795e-10 0)
(1.23236e-10 1.87565e-10 0)
(1.26845e-10 1.93394e-10 0)
(1.30573e-10 1.99288e-10 0)
(1.3443e-10 2.0525e-10 0)
(1.38423e-10 2.11275e-10 0)
(1.42554e-10 2.17347e-10 0)
(1.46817e-10 2.23442e-10 0)
(1.51197e-10 2.29519e-10 0)
(1.55667e-10 2.35526e-10 0)
(1.60188e-10 2.41393e-10 0)
(1.64705e-10 2.47041e-10 0)
(1.69159e-10 2.52387e-10 0)
(1.73497e-10 2.57365e-10 0)
(1.77684e-10 2.6194e-10 0)
(1.81713e-10 2.66119e-10 0)
(1.85599e-10 2.69925e-10 0)
(1.89369e-10 2.73388e-10 0)
(1.93069e-10 2.76549e-10 0)
(1.96765e-10 2.79467e-10 0)
(2.00469e-10 2.82179e-10 0)
(2.03985e-10 2.84561e-10 0)
(2.06863e-10 2.86298e-10 0)
(2.08763e-10 2.87271e-10 0)
(2.09742e-10 2.8768e-10 0)
(2.10139e-10 2.87785e-10 0)
(2.10327e-10 2.87778e-10 0)
(2.10537e-10 2.87753e-10 0)
(2.26572e-10 2.90474e-10 0)
(0.0505671 6.27486e-05 0)
(0.0520011 -0.000340352 0)
(0.0513963 -0.000409366 0)
(0.0528231 -0.000557249 0)
(0.0554374 -0.0006816 0)
(0.0586059 -0.000798573 0)
(0.0619652 -0.000907334 0)
(0.0653125 -0.00100758 0)
(0.0685433 -0.0010993 0)
(0.0716117 -0.00118268 0)
(0.0745039 -0.00125831 0)
(0.0772229 -0.00132712 0)
(0.0797784 -0.00138977 0)
(0.0821826 -0.00144692 0)
(0.0844474 -0.0014991 0)
(0.086584 -0.00154678 0)
(0.0886017 -0.00159052 0)
(0.0905084 -0.00163104 0)
(0.0923103 -0.00166928 0)
(0.0940118 -0.00170645 0)
(0.0956158 -0.0017439 0)
(0.0971236 -0.00178315 0)
(0.098535 -0.00182574 0)
(0.0998489 -0.00187309 0)
(0.101063 -0.00192641 0)
(0.102175 -0.00198661 0)
(0.103183 -0.0020543 0)
(0.104081 -0.00212974 0)
(0.104869 -0.00221289 0)
(0.105543 -0.00230341 0)
(0.106099 -0.00240074 0)
(0.106536 -0.00250413 0)
(0.106852 -0.0026127 0)
(0.107045 -0.00272546 0)
(0.107114 -0.00284136 0)
(0.107058 -0.00295931 0)
(0.106878 -0.0030782 0)
(0.106574 -0.00319676 0)
(0.106148 -0.00331345 0)
(0.105602 -0.00342612 0)
(0.10494 -0.0035316 0)
(0.104166 -0.00362533 0)
(0.103287 -0.00370127 0)
(0.10231 -0.00375227 0)
(0.101246 -0.00377091 0)
(0.100108 -0.00375051 0)
(0.0989092 -0.00368624 0)
(0.0976667 -0.00357721 0)
(0.0963968 -0.00342823 0)
(0.0951153 -0.00324904 0)
(0.0938362 -0.00305016 0)
(0.0925728 -0.00283755 0)
(0.0913385 -0.00261168 0)
(0.0901351 -0.00237074 0)
(0.0889668 -0.00211494 0)
(0.0878502 -0.00184814 0)
(0.0867993 -0.00157944 0)
(0.0858226 -0.00132151 0)
(0.0849244 -0.00108154 0)
(0.0841063 -0.000863009 0)
(0.0833653 -0.000669375 0)
(0.0826959 -0.000500743 0)
(0.0820923 -0.00035491 0)
(0.0815477 -0.000229635 0)
(0.0810552 -0.000122321 0)
(0.0806056 -3.17243e-05 0)
(0.0801911 4.42275e-05 0)
(0.0798076 0.000108914 0)
(0.0794467 0.00016276 0)
(0.079101 0.000206511 0)
(0.0787694 0.000243102 0)
(0.0784476 0.000273552 0)
(0.0781288 0.000297747 0)
(0.0778085 0.000316301 0)
(0.0774871 0.000331262 0)
(0.0771624 0.000343649 0)
(0.0768272 0.000352338 0)
(0.0764831 0.000359067 0)
(0.0761326 0.000365734 0)
(0.0757726 0.000371781 0)
(0.0754048 0.000378176 0)
(0.0750316 0.000385738 0)
(0.0746561 0.000395252 0)
(0.0742747 0.00040444 0)
(0.0738874 0.000409513 0)
(0.0735166 0.000416575 0)
(0.0732038 0.000442784 0)
(0.072925 0.000469643 0)
(0.0725264 0.000361592 0)
(0.0236771 0.0060815 0)
(0.0201627 -0.0142734 0)
(0.0176591 0.0221345 0)
(0.0177676 0.0403748 0)
(0.0166115 0.000263774 0)
(0.0155736 6.67547e-06 0)
(0.0146511 3.07634e-05 0)
(0.0138245 2.9496e-05 0)
(0.0131015 2.95617e-05 0)
(0.0124926 2.85772e-05 0)
(0.0120146 2.65582e-05 0)
(0.0116945 2.31525e-05 0)
(0.0115771 1.77074e-05 0)
(0.0117407 9.00619e-06 0)
(0.0123236 -5.55694e-06 0)
(0.0135831 -5.13629e-05 0)
(0.0176787 -6.92929e-05 0)
(0.0201795 -3.49197e-05 0)
(0.0204233 -3.00208e-06 0)
(0.0204286 3.19194e-07 0)
(0.0204287 3.19469e-07 0)
(0.0204287 3.20906e-07 0)
(0.0204287 3.21495e-07 0)
(0.0204287 3.20769e-07 0)
(0.0204288 3.21575e-07 0)
(0.0204288 3.20752e-07 0)
(0.0204288 3.21629e-07 0)
(0.0204288 3.20725e-07 0)
(0.0204288 3.21675e-07 0)
(0.0204288 3.20687e-07 0)
(0.0204288 3.21719e-07 0)
(0.0204288 3.20644e-07 0)
(0.0204288 3.21767e-07 0)
(0.0204288 3.20652e-07 0)
(0.0204288 3.21659e-07 0)
(0.0204288 3.20688e-07 0)
(0.0204288 3.21753e-07 0)
(0.0204288 3.20597e-07 0)
(0.0204288 3.21801e-07 0)
(0.0204288 3.20544e-07 0)
(0.0204288 3.21853e-07 0)
(0.0204288 3.20488e-07 0)
(0.0204288 3.21908e-07 0)
(0.0204288 3.20431e-07 0)
(0.0204288 3.21964e-07 0)
(0.0204288 3.20368e-07 0)
(0.0204288 3.22025e-07 0)
(0.0204288 3.20304e-07 0)
(0.0204288 3.22092e-07 0)
(0.0204288 3.20237e-07 0)
(0.0204288 3.22167e-07 0)
(0.0204288 3.20168e-07 0)
(0.0204288 3.22243e-07 0)
(0.0204288 3.20097e-07 0)
(0.0204288 3.22325e-07 0)
(0.0204288 3.20026e-07 0)
(0.0204288 3.22411e-07 0)
(0.0204288 3.1995e-07 0)
(0.0204288 3.225e-07 0)
(0.0204288 3.1987e-07 0)
(0.0204288 3.22586e-07 0)
(0.0204288 3.19779e-07 0)
(0.0204288 3.22673e-07 0)
(0.0204288 3.19684e-07 0)
(0.0204288 3.22763e-07 0)
(0.0204288 3.19588e-07 0)
(0.0204288 3.22862e-07 0)
(0.0204288 3.19492e-07 0)
(0.0204288 3.22962e-07 0)
(0.0204288 3.19392e-07 0)
(0.0204288 3.23069e-07 0)
(0.0204288 3.19299e-07 0)
(0.0204288 3.23192e-07 0)
(0.0204288 3.19473e-07 0)
(0.0204288 3.22994e-07 0)
(0.0204288 3.19474e-07 0)
(0.0204288 3.23024e-07 0)
(0.0204288 3.19473e-07 0)
(0.0204288 3.23058e-07 0)
(0.0204288 3.19478e-07 0)
(0.0204288 3.23097e-07 0)
(0.0204288 3.19488e-07 0)
(0.0204288 3.23145e-07 0)
(0.0204288 3.19508e-07 0)
(0.0204288 3.23202e-07 0)
(0.0204288 3.19538e-07 0)
(0.0204288 3.23267e-07 0)
(0.0204288 3.1958e-07 0)
(0.0204288 3.23352e-07 0)
(0.0204288 3.1965e-07 0)
(0.0204288 3.23476e-07 0)
(0.0204288 3.19847e-07 0)
(0.0204288 3.2387e-07 0)
(0.0204288 3.2031e-07 0)
(0.0204288 3.24383e-07 0)
(0.0204288 3.2081e-07 0)
(0.0204288 3.24919e-07 0)
(0.0204288 3.21318e-07 0)
(0.0204288 3.25443e-07 0)
(0.0204288 3.21828e-07 0)
(0.0204288 3.26005e-07 0)
(0.0204288 3.2236e-07 0)
(0.0204288 3.26515e-07 0)
(0.0204288 3.22824e-07 0)
(0.0204288 3.26992e-07 0)
(0.0204288 3.2323e-07 0)
(0.0204288 3.27344e-07 0)
(0.0204288 3.23655e-07 0)
(0.0204288 3.28015e-07 0)
(0.0204288 3.24323e-07 0)
(0.0204288 3.2847e-07 0)
(0.0204288 3.24609e-07 0)
(0.0204288 3.28678e-07 0)
(0.0204288 3.24455e-07 0)
(0.0204288 3.27786e-07 0)
(0.0204288 3.23558e-07 0)
(0.0204288 3.27711e-07 0)
(0.0204288 3.23016e-07 0)
(0.0204288 3.25117e-07 0)
(0.0204288 3.13961e-07 0)
(0.0204286 -5.28323e-07 0)
(0.0204238 -7.81391e-05 0)
(0.0203098 -8.3338e-05 0)
)
;

boundaryField
{
    inandouthalf11
    {
        type            cyclic;
    }
    inandouthalf12
    {
        type            cyclic;
    }
    inandouthalf21
    {
        type            cyclic;
    }
    inandouthalf22
    {
        type            cyclic;
    }
    inandouthalf31
    {
        type            cyclic;
    }
    inandouthalf32
    {
        type            cyclic;
    }
    inandouthalf41
    {
        type            cyclic;
    }
    inandouthalf42
    {
        type            cyclic;
    }
    top
    {
        type            symmetryPlane;
    }
    walls
    {
        type            calculated;
        value           uniform (0 0 0);
    }
    frontAndBackPlanes
    {
        type            empty;
    }
}


// ************************************************************************* //
