/*--------------------------------*- C++ -*----------------------------------*\
| =========                 |                                                 |
| \\      /  F ield         | OpenFOAM: The Open Source CFD Toolbox           |
|  \\    /   O peration     | Version:  2.4.x                                 |
|   \\  /    A nd           | Web:      www.OpenFOAM.org                      |
|    \\/     M anipulation  |                                                 |
\*---------------------------------------------------------------------------*/
FoamFile
{
    version     2.0;
    format      ascii;
    class       surfaceScalarField;
    location    "5.85";
    object      ddt0(phia);
}
// * * * * * * * * * * * * * * * * * * * * * * * * * * * * * * * * * * * * * //

dimensions      [0 3 -2 0 0 0 0];

internalField   nonuniform List<scalar> 
359
(
1.48028e-13
4.24692e-13
6.8365e-13
9.20227e-13
1.15531e-12
1.39735e-12
1.64494e-12
1.89463e-12
2.14424e-12
2.39378e-12
2.64415e-12
2.89597e-12
3.1495e-12
3.40454e-12
3.66093e-12
3.9186e-12
4.17756e-12
4.43769e-12
4.69873e-12
4.96046e-12
5.22227e-12
5.48394e-12
5.74519e-12
6.00605e-12
6.2669e-12
6.52867e-12
6.79289e-12
7.06191e-12
7.33841e-12
7.62522e-12
7.9248e-12
8.23875e-12
8.56607e-12
8.90346e-12
9.24267e-12
9.57151e-12
9.87336e-12
1.01296e-11
1.03228e-11
1.04411e-11
1.04849e-11
1.04706e-11
1.04329e-11
1.04246e-11
1.05145e-11
1.07866e-11
1.13427e-11
1.23082e-11
1.38416e-11
1.6128e-11
1.93167e-11
2.33518e-11
2.76054e-11
3.05142e-11
2.98886e-11
2.45828e-11
1.62509e-11
8.40406e-12
3.37868e-12
1.07315e-12
2.796e-13
6.35741e-14
1.35209e-14
2.79016e-15
4.64973e-16
-8.20393e-17
-2.27698e-16
-2.71231e-16
-2.84317e-16
-2.86171e-16
-2.82338e-16
-2.74267e-16
-2.62058e-16
-2.45411e-16
-2.24144e-16
-1.98455e-16
-1.69068e-16
-1.37127e-16
-1.03995e-16
-7.10088e-17
-3.92744e-17
-9.5392e-18
1.78075e-17
4.26818e-17
6.52243e-17
8.57118e-17
1.04492e-16
1.21929e-16
1.3837e-16
1.5413e-16
1.6948e-16
1.84646e-16
1.99815e-16
2.15134e-16
2.30717e-16
2.4665e-16
2.62994e-16
2.7979e-16
2.97059e-16
3.14812e-16
3.33044e-16
3.51747e-16
3.70901e-16
3.90485e-16
4.10473e-16
4.30833e-16
4.51533e-16
4.72538e-16
4.93813e-16
5.15325e-16
5.37039e-16
5.58927e-16
5.80962e-16
6.03127e-16
6.25407e-16
6.47799e-16
6.70307e-16
6.92946e-16
7.1574e-16
7.38719e-16
7.61918e-16
7.85364e-16
8.09076e-16
8.33049e-16
8.57244e-16
8.81579e-16
9.05923e-16
9.3009e-16
9.53837e-16
9.76867e-16
9.98857e-16
1.01951e-15
1.03861e-15
1.05612e-15
1.07208e-15
1.08663e-15
1.09989e-15
1.11204e-15
1.12327e-15
1.13344e-15
1.14178e-15
1.14714e-15
1.14989e-15
1.15095e-15
1.15117e-15
1.15065e-15
1.16287e-15
2.05813e-10
-8.63075e-10
-1.25456e-09
-1.96932e-09
-2.47998e-09
-2.96152e-09
-3.41199e-09
-3.82961e-09
-4.21408e-09
-4.56453e-09
-4.88239e-09
-5.17143e-09
-5.43428e-09
-5.67388e-09
-5.89263e-09
-6.09233e-09
-6.27521e-09
-6.44365e-09
-6.60115e-09
-6.75177e-09
-6.89768e-09
-7.05415e-09
-7.21777e-09
-7.39754e-09
-7.59879e-09
-7.82579e-09
-8.08156e-09
-8.36783e-09
-8.68503e-09
-9.03238e-09
-9.40811e-09
-9.80959e-09
-1.02335e-08
-1.06762e-08
-1.11336e-08
-1.16013e-08
-1.20749e-08
-1.25496e-08
-1.30198e-08
-1.34782e-08
-1.39142e-08
-1.43126e-08
-1.46523e-08
-1.49067e-08
-1.50466e-08
-1.50441e-08
-1.48765e-08
-1.4531e-08
-1.40138e-08
-1.33542e-08
-1.25948e-08
-1.17731e-08
-1.09006e-08
-9.97089e-09
-8.97791e-09
-7.93703e-09
-6.86053e-09
-5.80237e-09
-4.81134e-09
-3.89274e-09
-3.06519e-09
-2.34341e-09
-1.71338e-09
-1.17128e-09
-7.06836e-10
-3.07451e-10
2.27093e-11
3.03282e-10
5.44811e-10
7.3717e-10
8.971e-10
1.03318e-09
1.14245e-09
1.22839e-09
1.29278e-09
1.35001e-09
1.39353e-09
1.42038e-09
1.44969e-09
1.4756e-09
1.49862e-09
1.52839e-09
1.55878e-09
1.60274e-09
1.63089e-09
1.65056e-09
1.68988e-09
1.84605e-09
2.29255e-09
6.5664e-09
-4.14802e-09
3.40998e-09
1.95287e-07
7.25729e-08
5.47072e-10
7.54287e-11
1.21569e-10
1.19187e-10
1.17498e-10
1.11767e-10
1.01436e-10
8.47766e-11
5.83467e-11
1.23832e-11
-4.29831e-11
-3.37291e-10
-2.73622e-10
-1.0233e-11
2.69202e-12
1.47714e-12
1.27177e-12
1.29733e-12
1.27186e-12
1.29753e-12
1.27165e-12
1.29793e-12
1.27137e-12
1.29831e-12
1.27103e-12
1.29869e-12
1.27065e-12
1.29909e-12
1.27037e-12
1.29923e-12
1.27016e-12
1.29928e-12
1.27023e-12
1.29946e-12
1.26984e-12
1.29983e-12
1.26948e-12
1.30017e-12
1.26914e-12
1.30048e-12
1.26881e-12
1.30078e-12
1.26852e-12
1.30105e-12
1.26829e-12
1.30127e-12
1.26814e-12
1.3014e-12
1.26807e-12
1.30148e-12
1.26807e-12
1.30149e-12
1.26814e-12
1.30143e-12
1.26828e-12
1.30128e-12
1.26847e-12
1.30103e-12
1.26875e-12
1.30068e-12
1.26912e-12
1.30025e-12
1.26961e-12
1.29974e-12
1.27016e-12
1.29916e-12
1.27081e-12
1.29858e-12
1.27159e-12
1.29793e-12
1.27224e-12
1.2974e-12
1.27287e-12
1.2969e-12
1.2735e-12
1.29644e-12
1.27414e-12
1.29602e-12
1.27482e-12
1.29564e-12
1.27553e-12
1.29529e-12
1.27627e-12
1.29501e-12
1.27711e-12
1.29485e-12
1.27814e-12
1.29551e-12
1.28053e-12
1.29694e-12
1.28309e-12
1.29848e-12
1.28573e-12
1.30001e-12
1.28828e-12
1.30164e-12
1.29106e-12
1.3032e-12
1.29349e-12
1.30458e-12
1.29584e-12
1.30556e-12
1.29759e-12
1.30729e-12
1.30115e-12
1.30914e-12
1.30287e-12
1.30979e-12
1.30383e-12
1.30765e-12
1.29877e-12
1.30559e-12
1.30019e-12
1.30002e-12
1.27395e-12
-4.21991e-13
-1.57332e-10
4.16476e-09
)
;

boundaryField
{
    inandouthalf11
    {
        type            cyclic;
        value           nonuniform List<scalar> 
100
(
-9.23661e-40
-1.53958e-14
-3.44432e-14
-5.13593e-14
-6.76905e-14
-8.45092e-14
-1.01851e-13
-1.19487e-13
-1.37254e-13
-1.55102e-13
-1.73067e-13
-1.91202e-13
-2.09536e-13
-2.2807e-13
-2.46795e-13
-2.65707e-13
-2.84809e-13
-3.04099e-13
-3.23573e-13
-3.43217e-13
-3.63011e-13
-3.8293e-13
-4.02961e-13
-4.23098e-13
-4.43352e-13
-4.63764e-13
-4.84411e-13
-5.05417e-13
-5.26946e-13
-5.49183e-13
-5.72312e-13
-5.96483e-13
-6.21745e-13
-6.47986e-13
-6.74854e-13
-7.01696e-13
-7.27548e-13
-7.512e-13
-7.7136e-13
-7.8692e-13
-7.97362e-13
-8.03128e-13
-8.05891e-13
-8.08663e-13
-8.15729e-13
-8.32553e-13
-8.65857e-13
-9.23969e-13
-1.01745e-12
-1.15951e-12
-1.36422e-12
-1.63898e-12
-1.9647e-12
-2.26234e-12
-2.37529e-12
-2.14181e-12
-1.56805e-12
-8.95249e-13
-3.9214e-13
-1.33296e-13
-3.65436e-14
-8.61619e-15
-1.89865e-15
-4.27572e-16
-1.06676e-16
-3.14912e-17
-1.16566e-17
-5.71989e-18
-3.81258e-18
-3.30446e-18
-3.42433e-18
-3.94831e-18
-4.83707e-18
-6.11593e-18
-7.8216e-18
-9.96769e-18
-1.25243e-17
-1.54133e-17
-1.85218e-17
-2.17228e-17
-2.4898e-17
-2.79543e-17
-3.08318e-17
-3.35019e-17
-3.59617e-17
-3.82262e-17
-4.03218e-17
-4.22799e-17
-4.41331e-17
-4.59126e-17
-4.76469e-17
-4.93607e-17
-5.10753e-17
-5.28084e-17
-5.45746e-17
-5.63857e-17
-5.82508e-17
-6.01771e-17
-6.21696e-17
-6.42317e-17
)
;
    }
    inandouthalf12
    {
        type            cyclic;
        value           nonuniform List<scalar> 
100
(
9.23661e-40
1.53958e-14
3.44432e-14
5.13593e-14
6.76905e-14
8.45092e-14
1.01851e-13
1.19487e-13
1.37254e-13
1.55102e-13
1.73067e-13
1.91202e-13
2.09536e-13
2.2807e-13
2.46795e-13
2.65707e-13
2.84809e-13
3.04099e-13
3.23573e-13
3.43217e-13
3.63011e-13
3.8293e-13
4.02961e-13
4.23098e-13
4.43352e-13
4.63764e-13
4.84411e-13
5.05417e-13
5.26946e-13
5.49183e-13
5.72312e-13
5.96483e-13
6.21745e-13
6.47986e-13
6.74854e-13
7.01696e-13
7.27548e-13
7.512e-13
7.7136e-13
7.8692e-13
7.97362e-13
8.03128e-13
8.05891e-13
8.08663e-13
8.15729e-13
8.32553e-13
8.65857e-13
9.23969e-13
1.01745e-12
1.15951e-12
1.36422e-12
1.63898e-12
1.9647e-12
2.26234e-12
2.37529e-12
2.14181e-12
1.56805e-12
8.95249e-13
3.9214e-13
1.33296e-13
3.65436e-14
8.61619e-15
1.89865e-15
4.27572e-16
1.06676e-16
3.14912e-17
1.16566e-17
5.71989e-18
3.81258e-18
3.30446e-18
3.42433e-18
3.94831e-18
4.83707e-18
6.11593e-18
7.8216e-18
9.96769e-18
1.25243e-17
1.54133e-17
1.85218e-17
2.17228e-17
2.4898e-17
2.79543e-17
3.08318e-17
3.35019e-17
3.59617e-17
3.82262e-17
4.03218e-17
4.22799e-17
4.41331e-17
4.59126e-17
4.76469e-17
4.93607e-17
5.10753e-17
5.28084e-17
5.45746e-17
5.63857e-17
5.82508e-17
6.01771e-17
6.21696e-17
6.42317e-17
)
;
    }
    inandouthalf21
    {
        type            cyclic;
        value           nonuniform List<scalar> 
100
(
-6.63657e-17
-6.85726e-17
-7.08528e-17
-7.3206e-17
-7.56314e-17
-7.81274e-17
-8.06925e-17
-8.33246e-17
-8.60217e-17
-8.87815e-17
-9.16022e-17
-9.44821e-17
-9.742e-17
-1.00415e-16
-1.03469e-16
-1.06583e-16
-1.0976e-16
-1.13006e-16
-1.16328e-16
-1.19735e-16
-1.23236e-16
-1.26845e-16
-1.30573e-16
-1.3443e-16
-1.38423e-16
-1.42554e-16
-1.46817e-16
-1.51197e-16
-1.55667e-16
-1.60188e-16
-1.64705e-16
-1.69159e-16
-1.73497e-16
-1.77684e-16
-1.81713e-16
-1.85599e-16
-1.89369e-16
-1.93069e-16
-1.96765e-16
-2.00469e-16
-2.03985e-16
-2.06863e-16
-2.08763e-16
-2.09742e-16
-2.10139e-16
-2.10327e-16
-2.10537e-16
-2.26572e-16
-5.05671e-08
-5.20011e-08
-5.13963e-08
-5.28231e-08
-5.54374e-08
-5.86059e-08
-6.19652e-08
-6.53125e-08
-6.85433e-08
-7.16117e-08
-7.45039e-08
-7.72229e-08
-7.97784e-08
-8.21826e-08
-8.44474e-08
-8.6584e-08
-8.86017e-08
-9.05084e-08
-9.23103e-08
-9.40118e-08
-9.56158e-08
-9.71236e-08
-9.8535e-08
-9.98489e-08
-1.01063e-07
-1.02175e-07
-1.03183e-07
-1.04081e-07
-1.04869e-07
-1.05543e-07
-1.06099e-07
-1.06536e-07
-1.06852e-07
-1.07045e-07
-1.07114e-07
-1.07058e-07
-1.06878e-07
-1.06574e-07
-1.06148e-07
-1.05602e-07
-1.0494e-07
-1.04166e-07
-1.03287e-07
-1.0231e-07
-1.01246e-07
-1.00108e-07
-9.89092e-08
-9.76667e-08
-9.63968e-08
-9.51153e-08
-9.38362e-08
-9.25728e-08
)
;
    }
    inandouthalf22
    {
        type            cyclic;
        value           nonuniform List<scalar> 
100
(
6.63657e-17
6.85726e-17
7.08528e-17
7.3206e-17
7.56314e-17
7.81274e-17
8.06925e-17
8.33246e-17
8.60217e-17
8.87815e-17
9.16022e-17
9.44821e-17
9.742e-17
1.00415e-16
1.03469e-16
1.06583e-16
1.0976e-16
1.13006e-16
1.16328e-16
1.19735e-16
1.23236e-16
1.26845e-16
1.30573e-16
1.3443e-16
1.38423e-16
1.42554e-16
1.46817e-16
1.51197e-16
1.55667e-16
1.60188e-16
1.64705e-16
1.69159e-16
1.73497e-16
1.77684e-16
1.81713e-16
1.85599e-16
1.89369e-16
1.93069e-16
1.96765e-16
2.00469e-16
2.03985e-16
2.06863e-16
2.08763e-16
2.09742e-16
2.10139e-16
2.10327e-16
2.10537e-16
2.26572e-16
5.05671e-08
5.20011e-08
5.13963e-08
5.28231e-08
5.54374e-08
5.86059e-08
6.19652e-08
6.53125e-08
6.85433e-08
7.16117e-08
7.45039e-08
7.72229e-08
7.97784e-08
8.21826e-08
8.44474e-08
8.6584e-08
8.86017e-08
9.05084e-08
9.23103e-08
9.40118e-08
9.56158e-08
9.71236e-08
9.8535e-08
9.98489e-08
1.01063e-07
1.02175e-07
1.03183e-07
1.04081e-07
1.04869e-07
1.05543e-07
1.06099e-07
1.06536e-07
1.06852e-07
1.07045e-07
1.07114e-07
1.07058e-07
1.06878e-07
1.06574e-07
1.06148e-07
1.05602e-07
1.0494e-07
1.04166e-07
1.03287e-07
1.0231e-07
1.01246e-07
1.00108e-07
9.89092e-08
9.76667e-08
9.63968e-08
9.51153e-08
9.38362e-08
9.25728e-08
)
;
    }
    inandouthalf31
    {
        type            cyclic;
        value           nonuniform List<scalar> 
110
(
-9.13388e-08
-9.19649e-08
-9.26154e-08
-9.33091e-08
-9.40643e-08
-9.48936e-08
-9.58063e-08
-9.68094e-08
-9.79041e-08
-9.90891e-08
-1.00362e-07
-1.0172e-07
-1.03158e-07
-1.04668e-07
-1.06243e-07
-1.07882e-07
-1.09573e-07
-1.11311e-07
-1.13094e-07
-1.14918e-07
-1.16774e-07
-1.18656e-07
-1.20564e-07
-1.22496e-07
-1.2444e-07
-1.26397e-07
-1.28371e-07
-1.30357e-07
-1.32358e-07
-1.34376e-07
-1.36417e-07
-1.38475e-07
-1.40549e-07
-1.42682e-07
-1.44959e-07
-1.47338e-07
-1.49507e-07
-4.9799e-08
-4.32681e-08
-3.86647e-08
-3.96917e-08
-3.78624e-08
-3.6217e-08
-3.47634e-08
-3.34678e-08
-3.23614e-08
-3.14836e-08
-3.08935e-08
-3.06809e-08
-3.09894e-08
-3.20652e-08
-3.43404e-08
-3.86181e-08
-5.12826e-08
-5.9725e-08
-6.16736e-08
-6.29416e-08
-6.42197e-08
-6.55231e-08
-6.68531e-08
-6.82101e-08
-6.95945e-08
-7.10071e-08
-7.24484e-08
-7.39189e-08
-7.54193e-08
-7.69501e-08
-7.8512e-08
-8.01055e-08
-8.17315e-08
-8.33904e-08
-8.5083e-08
-8.681e-08
-8.8572e-08
-9.03698e-08
-9.2204e-08
-9.40755e-08
-9.5985e-08
-9.79332e-08
-9.9921e-08
-1.01949e-07
-1.04018e-07
-1.0613e-07
-1.08284e-07
-1.10482e-07
-1.12724e-07
-1.15012e-07
-1.17347e-07
-1.19729e-07
-1.22159e-07
-1.24638e-07
-1.27168e-07
-1.29749e-07
-1.32383e-07
-1.3507e-07
-1.37811e-07
-1.40609e-07
-1.43463e-07
-1.46374e-07
-1.49345e-07
-1.52377e-07
-1.5547e-07
-1.58625e-07
-1.61845e-07
-1.6513e-07
-1.68482e-07
-1.71901e-07
-1.7539e-07
-1.7895e-07
-1.82583e-07
)
;
    }
    inandouthalf32
    {
        type            cyclic;
        value           nonuniform List<scalar> 
110
(
9.13388e-08
9.19649e-08
9.26154e-08
9.33091e-08
9.40643e-08
9.48936e-08
9.58063e-08
9.68094e-08
9.79041e-08
9.90891e-08
1.00362e-07
1.0172e-07
1.03158e-07
1.04668e-07
1.06243e-07
1.07882e-07
1.09573e-07
1.11311e-07
1.13094e-07
1.14918e-07
1.16774e-07
1.18656e-07
1.20564e-07
1.22496e-07
1.2444e-07
1.26397e-07
1.28371e-07
1.30357e-07
1.32358e-07
1.34376e-07
1.36417e-07
1.38475e-07
1.40549e-07
1.42682e-07
1.44959e-07
1.47338e-07
1.49507e-07
4.9799e-08
4.32681e-08
3.86647e-08
3.96917e-08
3.78624e-08
3.6217e-08
3.47634e-08
3.34678e-08
3.23614e-08
3.14836e-08
3.08935e-08
3.06809e-08
3.09894e-08
3.20652e-08
3.43404e-08
3.86181e-08
5.12826e-08
5.9725e-08
6.16736e-08
6.29416e-08
6.42197e-08
6.55231e-08
6.68531e-08
6.82101e-08
6.95945e-08
7.10071e-08
7.24484e-08
7.39189e-08
7.54193e-08
7.69501e-08
7.8512e-08
8.01055e-08
8.17315e-08
8.33904e-08
8.5083e-08
8.681e-08
8.8572e-08
9.03698e-08
9.2204e-08
9.40755e-08
9.5985e-08
9.79332e-08
9.9921e-08
1.01949e-07
1.04018e-07
1.0613e-07
1.08284e-07
1.10482e-07
1.12724e-07
1.15012e-07
1.17347e-07
1.19729e-07
1.22159e-07
1.24638e-07
1.27168e-07
1.29749e-07
1.32383e-07
1.3507e-07
1.37811e-07
1.40609e-07
1.43463e-07
1.46374e-07
1.49345e-07
1.52377e-07
1.5547e-07
1.58625e-07
1.61845e-07
1.6513e-07
1.68482e-07
1.71901e-07
1.7539e-07
1.7895e-07
1.82583e-07
)
;
    }
    inandouthalf41
    {
        type            cyclic;
        value           nonuniform List<scalar> 
50
(
-1.6343e-07
-1.6343e-07
-1.6343e-07
-1.6343e-07
-1.6343e-07
-1.6343e-07
-1.6343e-07
-1.6343e-07
-1.6343e-07
-1.6343e-07
-1.6343e-07
-1.6343e-07
-1.6343e-07
-1.6343e-07
-1.6343e-07
-1.6343e-07
-1.6343e-07
-1.6343e-07
-1.6343e-07
-1.6343e-07
-1.6343e-07
-1.6343e-07
-1.6343e-07
-1.6343e-07
-1.6343e-07
-1.6343e-07
-1.6343e-07
-1.6343e-07
-1.6343e-07
-1.6343e-07
-1.6343e-07
-1.6343e-07
-1.6343e-07
-1.6343e-07
-1.6343e-07
-1.6343e-07
-1.6343e-07
-1.6343e-07
-1.6343e-07
-1.6343e-07
-1.6343e-07
-1.6343e-07
-1.6343e-07
-1.6343e-07
-1.6343e-07
-1.6343e-07
-1.6343e-07
-1.63428e-07
-1.6339e-07
-1.62479e-07
)
;
    }
    inandouthalf42
    {
        type            cyclic;
        value           nonuniform List<scalar> 
50
(
1.6343e-07
1.6343e-07
1.6343e-07
1.6343e-07
1.6343e-07
1.6343e-07
1.6343e-07
1.6343e-07
1.6343e-07
1.6343e-07
1.6343e-07
1.6343e-07
1.6343e-07
1.6343e-07
1.6343e-07
1.6343e-07
1.6343e-07
1.6343e-07
1.6343e-07
1.6343e-07
1.6343e-07
1.6343e-07
1.6343e-07
1.6343e-07
1.6343e-07
1.6343e-07
1.6343e-07
1.6343e-07
1.6343e-07
1.6343e-07
1.6343e-07
1.6343e-07
1.6343e-07
1.6343e-07
1.6343e-07
1.6343e-07
1.6343e-07
1.6343e-07
1.6343e-07
1.6343e-07
1.6343e-07
1.6343e-07
1.6343e-07
1.6343e-07
1.6343e-07
1.6343e-07
1.6343e-07
1.63428e-07
1.6339e-07
1.62479e-07
)
;
    }
    top
    {
        type            symmetryPlane;
        value           uniform 0;
    }
    walls
    {
        type            calculated;
        value           uniform 0;
    }
    frontAndBackPlanes
    {
        type            empty;
        value           nonuniform 0();
    }
}


// ************************************************************************* //
