/*--------------------------------*- C++ -*----------------------------------*\
| =========                 |                                                 |
| \\      /  F ield         | OpenFOAM: The Open Source CFD Toolbox           |
|  \\    /   O peration     | Version:  2.4.x                                 |
|   \\  /    A nd           | Web:      www.OpenFOAM.org                      |
|    \\/     M anipulation  |                                                 |
\*---------------------------------------------------------------------------*/
FoamFile
{
    version     2.0;
    format      ascii;
    class       volScalarField;
    location    "5.85";
    object      ddt0(alpha);
}
// * * * * * * * * * * * * * * * * * * * * * * * * * * * * * * * * * * * * * //

dimensions      [0 0 -1 0 0 0 0];

internalField   nonuniform List<scalar> 
360
(
0.000128029
0.000207922
0.000190513
0.000178163
0.000180748
0.000185489
0.000187886
0.000188821
0.000189398
0.000190309
0.000191579
0.000192948
0.000194312
0.00019556
0.000196754
0.000197966
0.000199215
0.000200475
0.000201719
0.000202996
0.000204159
0.000205346
0.000206486
0.000207581
0.000208635
0.000209653
0.000210652
0.00021177
0.00021298
0.000214354
0.000215953
0.000217924
0.000220046
0.000222603
0.000225088
0.000227501
0.000229376
0.000230453
0.000230351
0.000228483
0.000225204
0.000220441
0.000214787
0.000209483
0.000205453
0.000204285
0.000207631
0.000217305
0.000236038
0.000266749
0.000311776
0.000372384
0.000442432
0.000503278
0.000520905
0.000465893
0.000342524
0.000200292
9.13917e-05
3.24603e-05
8.97714e-06
1.73857e-06
-9.64238e-08
-5.12023e-07
-6.13525e-07
-6.516e-07
-6.80461e-07
-7.04496e-07
-7.26559e-07
-7.58681e-07
-7.9501e-07
-8.14228e-07
-8.38528e-07
-8.66147e-07
-8.8775e-07
-9.05806e-07
-9.20584e-07
-9.42322e-07
-9.65197e-07
-9.87099e-07
-1.01202e-06
-1.04083e-06
-1.0684e-06
-1.09583e-06
-1.12259e-06
-1.14864e-06
-1.17355e-06
-1.19734e-06
-1.22259e-06
-1.24891e-06
-1.27603e-06
-1.30512e-06
-1.33586e-06
-1.36729e-06
-1.39951e-06
-1.43237e-06
-1.46571e-06
-1.49969e-06
-1.53462e-06
-1.57065e-06
-1.60789e-06
-1.64656e-06
-1.6867e-06
-1.72829e-06
-1.77142e-06
-1.8162e-06
-1.86273e-06
-1.91115e-06
-1.9616e-06
-2.01421e-06
-2.06909e-06
-2.12636e-06
-2.18615e-06
-2.24859e-06
-2.3138e-06
-2.38195e-06
-2.45317e-06
-2.52768e-06
-2.60565e-06
-2.68731e-06
-2.77283e-06
-2.86239e-06
-2.95616e-06
-3.05444e-06
-3.15798e-06
-3.26813e-06
-3.38684e-06
-3.5159e-06
-3.65547e-06
-3.80325e-06
-3.95733e-06
-4.12483e-06
-4.32675e-06
-4.57755e-06
-4.85177e-06
-5.11032e-06
-5.39357e-06
-5.85541e-06
-6.60775e-06
-7.3472e-06
-7.45283e-06
-7.97791e-06
-9.9765e-06
-1.26045e-05
-1.95545e-05
-7.62313e-05
-9.05043e-05
0.0142014
0.0620223
0.0128364
-0.000624173
-0.00702119
-0.0103374
-0.0116455
-0.0115871
-0.0107164
-0.00946534
-0.00811612
-0.00682782
-0.00567319
-0.0046754
-0.00383152
-0.00312689
-0.00254301
-0.0020613
-0.00166489
-0.00133909
-0.00107151
-0.000851762
-0.000671343
-0.000523188
-0.000401528
-0.000301629
-0.000219617
-0.000152322
-9.71504e-05
-5.19802e-05
-1.50751e-05
1.49887e-05
3.93789e-05
5.90562e-05
7.4811e-05
8.72963e-05
9.70545e-05
0.000104545
0.000110174
0.000114322
0.000117368
0.000119697
0.000121677
0.000123592
0.000125571
0.000127561
0.000129372
0.00013062
0.000130644
0.000128751
0.000124725
0.000119134
0.000113092
0.000107191
0.000100952
9.41733e-05
8.67585e-05
7.802e-05
6.84642e-05
5.92264e-05
5.03866e-05
4.2173e-05
3.50574e-05
2.89389e-05
2.37865e-05
1.94839e-05
1.58377e-05
1.29467e-05
1.05936e-05
8.58507e-06
7.01337e-06
5.75211e-06
4.68859e-06
3.81154e-06
3.10345e-06
2.54433e-06
2.06237e-06
1.6671e-06
1.36237e-06
1.10394e-06
8.91263e-07
7.21334e-07
5.79198e-07
4.66076e-07
3.63425e-07
2.90331e-07
2.31173e-07
1.94247e-07
1.24239e-07
1.42984e-07
1.59752e-07
2.72276e-08
2.94153e-08
-4.48805e-266
-2.34013e-24
-2.77561e-24
-2.58382e-24
-9.54763e-25
-3.8463e-25
-1.62963e-25
-7.85329e-26
-3.9946e-26
-2.3381e-26
-1.95383e-26
-2.16839e-26
-2.52382e-26
-1.58269e-26
-5.51385e-27
-2.34503e-27
-1.1397e-27
-5.88221e-28
-3.6636e-28
-3.06949e-28
-2.46905e-28
-9.36619e-29
-4.29367e-29
-2.15698e-29
-1.15391e-29
-7.14248e-30
-3.5549e-30
-1.72732e-30
-8.67704e-31
-4.32702e-31
-2.11746e-31
-1.01705e-31
-4.79158e-32
-2.21272e-32
-1.00085e-32
-4.43077e-33
-1.91824e-33
-8.11466e-34
-3.35106e-34
-1.34965e-34
-5.29582e-35
-2.02228e-35
-7.50638e-36
-2.70487e-36
-9.4492e-37
-3.19545e-37
-1.04438e-37
-3.29323e-38
-9.99978e-39
-2.91782e-39
-8.16263e-40
-2.18374e-40
-5.57117e-41
-1.35112e-41
-3.10383e-42
-6.72678e-43
-1.36903e-43
-2.60256e-44
-4.59257e-45
-7.46733e-46
-1.10882e-46
-1.48728e-47
-1.7774e-48
-1.85909e-49
-1.66151e-50
-1.22612e-51
-7.08804e-53
-2.9279e-54
-7.04985e-56
-3.80837e-58
-8.59478e-62
-9.85111e-64
-5.6031e-66
-1.63324e-76
-2.35375e-87
-2.36518e-98
-1.73901e-109
-1.04917e-120
-5.02666e-132
-2.04543e-143
-6.30123e-153
-2.29268e-163
-2.16007e-171
-6.99711e-182
-7.43045e-190
-2.82503e-200
-2.55621e-208
-1.20627e-218
-8.80124e-227
-7.72813e-237
-3.06616e-245
-5.05285e-255
-1.08692e-263
-2.50602e-273
-3.91765e-282
-1.18618e-291
-1.43349e-300
-5.21265e-310
9.04239e-320
0
0
0
0
0
0
0
0
0
0
0
0
0
0
0
0
0
0
0
0
0
)
;

boundaryField
{
    inandouthalf11
    {
        type            cyclic;
    }
    inandouthalf12
    {
        type            cyclic;
    }
    inandouthalf21
    {
        type            cyclic;
    }
    inandouthalf22
    {
        type            cyclic;
    }
    inandouthalf31
    {
        type            cyclic;
    }
    inandouthalf32
    {
        type            cyclic;
    }
    inandouthalf41
    {
        type            cyclic;
    }
    inandouthalf42
    {
        type            cyclic;
    }
    top
    {
        type            symmetryPlane;
    }
    walls
    {
        type            calculated;
        value           uniform 0.000128029;
    }
    frontAndBackPlanes
    {
        type            empty;
    }
}


// ************************************************************************* //
