/*--------------------------------*- C++ -*----------------------------------*\
| =========                 |                                                 |
| \\      /  F ield         | OpenFOAM: The Open Source CFD Toolbox           |
|  \\    /   O peration     | Version:  2.4.x                                 |
|   \\  /    A nd           | Web:      www.OpenFOAM.org                      |
|    \\/     M anipulation  |                                                 |
\*---------------------------------------------------------------------------*/
FoamFile
{
    version     2.0;
    format      ascii;
    class       volVectorField;
    location    "5.85";
    object      gradPs;
}
// * * * * * * * * * * * * * * * * * * * * * * * * * * * * * * * * * * * * * //

dimensions      [0 1 -2 0 0 0 0];

internalField   nonuniform List<vector> 
360
(
(0 1.65586e-18 0)
(0 1.74059e-18 0)
(0 -9.15595e-20 0)
(0 -2.47336e-19 0)
(-2.90212e-32 -8.70232e-20 0)
(-1.45111e-32 -4.56011e-20 0)
(-1.45116e-32 -6.57183e-20 0)
(0 -7.76871e-20 0)
(-1.45127e-32 -7.96146e-20 0)
(0 -7.98667e-20 0)
(-1.45138e-32 -7.90585e-20 0)
(0 -7.87797e-20 0)
(-1.4515e-32 -7.94929e-20 0)
(0 -8.03622e-20 0)
(0 -8.13867e-20 0)
(0 -8.22301e-20 0)
(0 -8.28082e-20 0)
(-1.4518e-32 -8.33008e-20 0)
(0 -8.43855e-20 0)
(0 -8.51676e-20 0)
(0 -8.60459e-20 0)
(-2.90412e-32 -8.73757e-20 0)
(0 -8.83059e-20 0)
(0 -8.94732e-20 0)
(0 -9.06153e-20 0)
(-1.45232e-32 -9.12603e-20 0)
(0 -9.18665e-20 0)
(0 -9.20929e-20 0)
(0 -9.15018e-20 0)
(0 -9.05003e-20 0)
(0 -8.95814e-20 0)
(0 -8.75521e-20 0)
(0 -8.6464e-20 0)
(0 -8.63164e-20 0)
(0 -8.73581e-20 0)
(2.90604e-32 -9.14013e-20 0)
(0 -9.82071e-20 0)
(0 -1.09392e-19 0)
(0 -1.22049e-19 0)
(0 -1.36759e-19 0)
(0 -1.50592e-19 0)
(0 -1.579e-19 0)
(1.45355e-32 -1.59565e-19 0)
(0 -1.51865e-19 0)
(0 -1.33399e-19 0)
(0 -1.04755e-19 0)
(0 -5.95861e-20 0)
(0 8.70603e-21 0)
(0 1.14371e-19 0)
(0 2.84283e-19 0)
(1.45419e-32 5.36244e-19 0)
(0 8.36434e-19 0)
(0 9.84995e-19 0)
(0 5.80398e-19 0)
(0 -5.55351e-19 0)
(0 -1.72719e-18 0)
(0 -1.92219e-18 0)
(0 -1.21313e-18 0)
(0 -4.93564e-19 0)
(0 -1.78135e-19 0)
(0 -1.03986e-19 0)
(0 -9.49507e-20 0)
(0 -9.66738e-20 0)
(0 -9.84011e-20 0)
(0 -1.00748e-19 0)
(0 -1.03659e-19 0)
(0 -1.07401e-19 0)
(0 -1.10922e-19 0)
(0 -1.14278e-19 0)
(0 -1.19259e-19 0)
(0 -1.24915e-19 0)
(0 -1.2789e-19 0)
(0 -1.31666e-19 0)
(0 -1.35965e-19 0)
(0 -1.39321e-19 0)
(0 -1.42123e-19 0)
(0 -1.4441e-19 0)
(0 -1.47785e-19 0)
(0 -1.51332e-19 0)
(0 -1.5472e-19 0)
(0 -1.58571e-19 0)
(0 -1.63021e-19 0)
(0 -1.67266e-19 0)
(0 -1.71479e-19 0)
(0 -1.75577e-19 0)
(0 -1.79555e-19 0)
(0 -1.83347e-19 0)
(0 -1.86958e-19 0)
(0 -1.90787e-19 0)
(0 -1.94775e-19 0)
(0 -1.98882e-19 0)
(0 -2.03287e-19 0)
(0 -2.07942e-19 0)
(0 -2.12696e-19 0)
(0 -2.17564e-19 0)
(0 -2.22522e-19 0)
(0 -2.27548e-19 0)
(0 -2.32662e-19 0)
(0 -2.37914e-19 0)
(0 -2.43324e-19 0)
(0 -2.48912e-19 0)
(0 -2.54709e-19 0)
(0 -2.6072e-19 0)
(0 -2.6694e-19 0)
(0 -2.73385e-19 0)
(0 -2.80068e-19 0)
(0 -2.87004e-19 0)
(0 -2.94213e-19 0)
(0 -3.01716e-19 0)
(0 -3.0953e-19 0)
(0 -3.17671e-19 0)
(0 -3.26157e-19 0)
(0 -3.35003e-19 0)
(0 -3.44228e-19 0)
(0 -3.5385e-19 0)
(0 -3.63889e-19 0)
(0 -3.74366e-19 0)
(0 -3.85307e-19 0)
(0 -3.9674e-19 0)
(0 -4.08693e-19 0)
(0 -4.2119e-19 0)
(0 -4.34252e-19 0)
(0 -4.47901e-19 0)
(0 -4.62179e-19 0)
(0 -4.77191e-19 0)
(0 -4.93135e-19 0)
(0 -5.10296e-19 0)
(0 -5.28932e-19 0)
(0 -5.49056e-19 0)
(0 -5.70308e-19 0)
(0 -5.91765e-19 0)
(0 1.22312e-16 0)
(0 1.08079e-15 0)
(0 5.93963e-15 0)
(0 3.25655e-14 0)
(0 1.95868e-13 0)
(0 1.31847e-12 0)
(0 1.00879e-11 0)
(0 8.88483e-11 0)
(0 9.10189e-10 0)
(0 1.09649e-08 0)
(0 1.5749e-07 0)
(0 2.74311e-06 0)
(0 6.64096e-05 0)
(0 0.00419925 0)
(0 0.187646 0)
(0 2.61589 0)
(0 2.54607 0)
(0 -0.337578 0)
(0 -2.02504 0)
(0 -3.11409 0)
(0 -3.2589 0)
(0 -3.17911 0)
(0 -3.04484 0)
(0 -2.9003 0)
(0 -2.76136 0)
(0 -2.63307 0)
(0 -2.51631 0)
(0 -2.41039 0)
(0 -2.31413 0)
(0 -2.22637 0)
(0 -2.14601 0)
(0 -2.0721 0)
(0 -2.00381 0)
(0 -1.94044 0)
(0 -1.8814 0)
(0 -1.82615 0)
(0 -1.77426 0)
(0 -1.72533 0)
(0 -1.67903 0)
(0 -1.63508 0)
(0 -1.59323 0)
(0 -1.55327 0)
(0 -1.51502 0)
(0 -1.47833 0)
(0 -1.44308 0)
(0 -1.40914 0)
(0 -1.37643 0)
(0 -1.34489 0)
(0 -1.31443 0)
(0 -1.28502 0)
(0 -1.25662 0)
(0 -1.22918 0)
(0 -1.2027 0)
(0 -1.17717 0)
(0 -1.15264 0)
(0 -1.12924 0)
(0 -1.10724 0)
(0 -1.08705 0)
(0 -1.06921 0)
(0 -1.05427 0)
(0 -1.0426 0)
(0 -1.03432 0)
(0 -1.02938 0)
(0 -1.02701 0)
(0 -1.02513 0)
(0 -1.02087 0)
(0 -1.01243 0)
(0 -1.0011 0)
(0 -0.991575 0)
(0 -0.986427 0)
(0 -0.982628 0)
(-4.91213e-16 -0.978384 0)
(0 -0.971146 0)
(0 -0.950915 0)
(1.74484e-16 -0.916022 0)
(0 -0.873694 0)
(-2.20461e-16 -0.821804 0)
(0 -0.760551 0)
(1.36838e-16 -0.697055 0)
(0 -0.631792 0)
(0 -0.566897 0)
(0 -0.503684 0)
(9.667e-17 -0.440957 0)
(0 -0.384821 0)
(0 -0.333615 0)
(0 -0.284374 0)
(0 -0.242177 0)
(0 -0.205472 0)
(-3.17845e-17 -0.172105 0)
(0 -0.14282 0)
(-3.29939e-17 -0.117876 0)
(0 -0.0972476 0)
(-1.67953e-17 -0.0789707 0)
(0 -0.0635903 0)
(0 -0.051375 0)
(0 -0.0409666 0)
(0 -0.0323676 0)
(8.26061e-18 -0.025456 0)
(0 -0.0197566 0)
(0 -0.0152312 0)
(0 -0.0114012 0)
(0 -0.00857614 0)
(0 -0.00640562 0)
(0 -0.00477692 0)
(0 -0.00411306 0)
(0 -0.00189118 0)
(0 0 0)
(0 0 0)
(0 0 0)
(0 0 0)
(0 0 0)
(0 0 0)
(0 0 0)
(0 0 0)
(0 0 0)
(0 0 0)
(0 0 0)
(0 0 0)
(0 0 0)
(0 0 0)
(0 0 0)
(0 0 0)
(0 0 0)
(0 0 0)
(0 0 0)
(0 0 0)
(0 0 0)
(0 0 0)
(0 0 0)
(0 0 0)
(0 0 0)
(0 0 0)
(0 0 0)
(0 0 0)
(0 0 0)
(0 0 0)
(0 0 0)
(0 0 0)
(0 0 0)
(0 0 0)
(0 0 0)
(0 0 0)
(0 0 0)
(0 0 0)
(0 0 0)
(0 0 0)
(0 0 0)
(0 0 0)
(0 0 0)
(0 0 0)
(0 0 0)
(0 0 0)
(0 0 0)
(0 0 0)
(0 0 0)
(0 0 0)
(0 0 0)
(0 0 0)
(0 0 0)
(0 0 0)
(0 0 0)
(0 0 0)
(0 0 0)
(0 0 0)
(0 0 0)
(0 0 0)
(0 0 0)
(0 0 0)
(0 0 0)
(0 0 0)
(0 0 0)
(0 0 0)
(0 0 0)
(0 0 0)
(0 0 0)
(0 0 0)
(0 0 0)
(0 0 0)
(0 0 0)
(0 0 0)
(0 0 0)
(0 0 0)
(0 0 0)
(0 0 0)
(0 0 0)
(0 0 0)
(0 0 0)
(0 0 0)
(0 0 0)
(0 0 0)
(0 0 0)
(0 0 0)
(0 0 0)
(0 0 0)
(0 0 0)
(0 0 0)
(0 0 0)
(0 0 0)
(0 0 0)
(0 0 0)
(0 0 0)
(0 0 0)
(0 0 0)
(0 0 0)
(0 0 0)
(0 0 0)
(0 0 0)
(0 0 0)
(0 0 0)
(0 0 0)
(0 0 0)
(0 0 0)
(0 0 0)
(0 0 0)
(0 0 0)
(0 0 0)
(0 0 0)
(0 0 0)
(0 0 0)
(0 0 0)
(0 0 0)
(0 0 0)
(0 0 0)
(0 0 0)
(0 0 0)
(0 0 0)
(0 0 0)
(0 0 0)
(0 0 0)
)
;

boundaryField
{
    inandouthalf11
    {
        type            cyclic;
    }
    inandouthalf12
    {
        type            cyclic;
    }
    inandouthalf21
    {
        type            cyclic;
    }
    inandouthalf22
    {
        type            cyclic;
    }
    inandouthalf31
    {
        type            cyclic;
    }
    inandouthalf32
    {
        type            cyclic;
    }
    inandouthalf41
    {
        type            cyclic;
    }
    inandouthalf42
    {
        type            cyclic;
    }
    top
    {
        type            symmetryPlane;
    }
    walls
    {
        type            calculated;
        value           uniform (0 0 0);
    }
    frontAndBackPlanes
    {
        type            empty;
    }
}


// ************************************************************************* //
