/*--------------------------------*- C++ -*----------------------------------*\
| =========                 |                                                 |
| \\      /  F ield         | OpenFOAM: The Open Source CFD Toolbox           |
|  \\    /   O peration     | Version:  2.4.x                                 |
|   \\  /    A nd           | Web:      www.OpenFOAM.org                      |
|    \\/     M anipulation  |                                                 |
\*---------------------------------------------------------------------------*/
FoamFile
{
    version     2.0;
    format      ascii;
    class       volVectorField;
    location    "5.85";
    object      gradPf;
}
// * * * * * * * * * * * * * * * * * * * * * * * * * * * * * * * * * * * * * //

dimensions      [0 1 -2 0 0 0 0];

internalField   nonuniform List<vector> 
360
(
(0 55.5158 0)
(0 65.9277 0)
(0 4.29011 0)
(0 -10.3743 0)
(-3.34591e-14 -5.98016 0)
(-3.34603e-14 -3.46309 0)
(-3.34614e-14 -3.57805 0)
(0 -3.84451 0)
(-3.34639e-14 -3.92818 0)
(0 -4.01941 0)
(-3.34666e-14 -4.03783 0)
(0 -4.01679 0)
(-3.34693e-14 -3.99956 0)
(0 -3.98474 0)
(0 -3.99547 0)
(0 -4.01343 0)
(0 -4.01874 0)
(-1.67382e-14 -4.01482 0)
(0 -4.03054 0)
(0 -4.02402 0)
(0 -4.01899 0)
(-3.34822e-14 -4.03624 0)
(0 -4.03295 0)
(0 -4.03503 0)
(0 -4.03606 0)
(-1.67441e-14 -4.02574 0)
(0 -4.03404 0)
(0 -4.04455 0)
(0 -4.0353 0)
(0 -4.03375 0)
(0 -4.05825 0)
(0 -4.04884 0)
(0 -4.07243 0)
(0 -4.09713 0)
(0 -4.09166 0)
(3.35044e-14 -4.10484 0)
(0 -4.10799 0)
(0 -4.13227 0)
(0 -4.07979 0)
(0 -4.05357 0)
(0 -4.04149 0)
(0 -3.94233 0)
(1.67583e-14 -3.90981 0)
(0 -3.87811 0)
(0 -3.82887 0)
(0 -3.84422 0)
(0 -3.84424 0)
(0 -3.91788 0)
(0 -4.1191 0)
(0 -4.309 0)
(1.67657e-14 -4.58312 0)
(0 -4.9596 0)
(0 -5.33314 0)
(0 -5.57688 0)
(0 -5.56089 0)
(0 -5.12479 0)
(0 -4.36278 0)
(0 -3.58958 0)
(0 -2.97611 0)
(0 -2.72607 0)
(0 -2.65948 0)
(0 -2.66492 0)
(0 -2.71759 0)
(0 -2.74605 0)
(0 -2.78934 0)
(0 -2.84645 0)
(0 -2.92442 0)
(0 -2.99403 0)
(0 -3.057 0)
(0 -3.1604 0)
(0 -3.27833 0)
(0 -3.32293 0)
(0 -3.38548 0)
(0 -3.4592 0)
(0 -3.50582 0)
(0 -3.53669 0)
(0 -3.55276 0)
(0 -3.5938 0)
(0 -3.63661 0)
(0 -3.67317 0)
(0 -3.71802 0)
(0 -3.77398 0)
(0 -3.82198 0)
(0 -3.86608 0)
(0 -3.90458 0)
(0 -3.93744 0)
(0 -3.96348 0)
(0 -3.98295 0)
(0 -4.00449 0)
(0 -4.02663 0)
(0 -4.04836 0)
(0 -4.07315 0)
(0 -4.09971 0)
(0 -4.12484 0)
(0 -4.14872 0)
(0 -4.17083 0)
(0 -4.19064 0)
(0 -4.20849 0)
(0 -4.22518 0)
(0 -4.24097 0)
(0 -4.256 0)
(0 -4.27063 0)
(0 -4.28474 0)
(0 -4.29804 0)
(0 -4.31055 0)
(0 -4.32229 0)
(0 -4.33322 0)
(0 -4.34343 0)
(0 -4.35293 0)
(0 -4.36167 0)
(0 -4.3696 0)
(0 -4.37661 0)
(0 -4.38261 0)
(0 -4.38749 0)
(0 -4.39113 0)
(0 -4.3934 0)
(0 -4.39419 0)
(0 -4.39341 0)
(0 -4.39097 0)
(0 -4.38673 0)
(0 -4.38053 0)
(0 -4.37215 0)
(0 -4.36133 0)
(0 -4.34805 0)
(0 -4.33275 0)
(0 -4.31656 0)
(0 -4.30106 0)
(0 -4.2872 0)
(0 -4.27373 0)
(0 -4.25672 0)
(0 -4.23325 0)
(0 -4.20981 0)
(0 -4.20444 0)
(0 -4.22486 0)
(0 -4.2418 0)
(0 -4.2205 0)
(0 -4.1945 0)
(0 -4.26856 0)
(0 -4.48584 0)
(0 -4.61587 0)
(0 -4.32077 0)
(0 -4.22272 0)
(0 -4.7673 0)
(0 -5.32233 0)
(0 -6.792 0)
(0 -11.5829 0)
(0 -11.9176 0)
(0 -5.41694 0)
(0 -1.77952 0)
(0 0 0)
(0 0 0)
(0 0 0)
(0 0 0)
(0 0 0)
(0 0 0)
(0 0 0)
(0 0 0)
(0 0 0)
(0 0 0)
(0 0 0)
(0 0 0)
(0 0 0)
(0 0 0)
(0 0 0)
(0 0 0)
(0 0 0)
(0 0 0)
(0 0 0)
(0 0 0)
(0 0 0)
(0 0 0)
(0 0 0)
(0 0 0)
(0 0 0)
(0 0 0)
(0 0 0)
(0 0 0)
(0 0 0)
(0 0 0)
(0 0 0)
(0 0 0)
(0 0 0)
(0 0 0)
(0 0 0)
(0 0 0)
(0 0 0)
(0 0 0)
(0 0 0)
(0 0 0)
(0 0 0)
(0 0 0)
(0 0 0)
(0 0 0)
(0 0 0)
(0 0 0)
(0 0 0)
(0 0 0)
(0 0 0)
(0 0 0)
(0 0 0)
(0 0 0)
(0 0 0)
(0 0 0)
(0 0 0)
(0 0 0)
(0 0 0)
(0 0 0)
(0 0 0)
(0 0 0)
(0 0 0)
(0 0 0)
(0 0 0)
(0 0 0)
(0 0 0)
(0 0 0)
(0 0 0)
(0 0 0)
(0 0 0)
(0 0 0)
(0 0 0)
(0 0 0)
(0 0 0)
(0 0 0)
(0 0 0)
(0 0 0)
(0 0 0)
(0 0 0)
(0 0 0)
(0 0 0)
(0 0 0)
(0 0 0)
(0 0 0)
(0 0 0)
(0 0 0)
(0 0 0)
(0 0 0)
(0 0 0)
(0 0 0)
(0 0 0)
(0 0 0)
(0 0 0)
(0 0 0)
(0 0 0)
(0 0 0)
(0 0 0)
(0 0 0)
(0 0 0)
(0 0 0)
(0 0 0)
(0 0 0)
(0 0 0)
(0 0 0)
(0 0 0)
(0 0 0)
(0 0 0)
(0 0 0)
(0 0 0)
(0 0 0)
(0 0 0)
(0 0 0)
(0 0 0)
(0 0 0)
(0 0 0)
(0 0 0)
(0 0 0)
(0 0 0)
(0 0 0)
(0 0 0)
(0 0 0)
(0 0 0)
(0 0 0)
(0 0 0)
(0 0 0)
(0 0 0)
(0 0 0)
(0 0 0)
(0 0 0)
(0 0 0)
(0 0 0)
(0 0 0)
(0 0 0)
(0 0 0)
(0 0 0)
(0 0 0)
(0 0 0)
(0 0 0)
(0 0 0)
(0 0 0)
(0 0 0)
(0 0 0)
(0 0 0)
(0 0 0)
(0 0 0)
(0 0 0)
(0 0 0)
(0 0 0)
(0 0 0)
(0 0 0)
(0 0 0)
(0 0 0)
(0 0 0)
(0 0 0)
(0 0 0)
(0 0 0)
(0 0 0)
(0 0 0)
(0 0 0)
(0 0 0)
(0 0 0)
(0 0 0)
(0 0 0)
(0 0 0)
(0 0 0)
(0 0 0)
(0 0 0)
(0 0 0)
(0 0 0)
(0 0 0)
(0 0 0)
(0 0 0)
(0 0 0)
(0 0 0)
(0 0 0)
(0 0 0)
(0 0 0)
(0 0 0)
(0 0 0)
(0 0 0)
(0 0 0)
(0 0 0)
(0 0 0)
(0 0 0)
(0 0 0)
(0 0 0)
(0 0 0)
(0 0 0)
(0 0 0)
(0 0 0)
(0 0 0)
(0 0 0)
(0 0 0)
(0 0 0)
(0 0 0)
(0 0 0)
(0 0 0)
(0 0 0)
(0 0 0)
(0 0 0)
(0 0 0)
(0 0 0)
(0 0 0)
(0 0 0)
(0 0 0)
(0 0 0)
(0 0 0)
(0 0 0)
(0 0 0)
(0 0 0)
(0 0 0)
(0 0 0)
)
;

boundaryField
{
    inandouthalf11
    {
        type            cyclic;
    }
    inandouthalf12
    {
        type            cyclic;
    }
    inandouthalf21
    {
        type            cyclic;
    }
    inandouthalf22
    {
        type            cyclic;
    }
    inandouthalf31
    {
        type            cyclic;
    }
    inandouthalf32
    {
        type            cyclic;
    }
    inandouthalf41
    {
        type            cyclic;
    }
    inandouthalf42
    {
        type            cyclic;
    }
    top
    {
        type            symmetryPlane;
    }
    walls
    {
        type            calculated;
        value           uniform (0 0 0);
    }
    frontAndBackPlanes
    {
        type            empty;
    }
}


// ************************************************************************* //
