/*--------------------------------*- C++ -*----------------------------------*\
| =========                 |                                                 |
| \\      /  F ield         | OpenFOAM: The Open Source CFD Toolbox           |
|  \\    /   O peration     | Version:  2.4.x                                 |
|   \\  /    A nd           | Web:      www.OpenFOAM.org                      |
|    \\/     M anipulation  |                                                 |
\*---------------------------------------------------------------------------*/
FoamFile
{
    version     2.0;
    format      ascii;
    class       surfaceScalarField;
    location    "5.85";
    object      phib_0;
}
// * * * * * * * * * * * * * * * * * * * * * * * * * * * * * * * * * * * * * //

dimensions      [0 3 -1 0 0 0 0];

internalField   nonuniform List<scalar> 
359
(
6.57344e-13
1.72892e-12
2.71006e-12
3.62631e-12
4.55607e-12
5.51029e-12
6.47673e-12
7.44784e-12
8.42178e-12
9.40028e-12
1.03852e-11
1.1377e-11
1.23757e-11
1.33807e-11
1.43917e-11
1.54087e-11
1.64321e-11
1.74618e-11
1.84977e-11
1.954e-11
2.05882e-11
2.16423e-11
2.27021e-11
2.37674e-11
2.48379e-11
2.59135e-11
2.69941e-11
2.80802e-11
2.91723e-11
3.02714e-11
3.13784e-11
3.24954e-11
3.36231e-11
3.47636e-11
3.59168e-11
3.70821e-11
3.82568e-11
3.94369e-11
4.06162e-11
4.17858e-11
4.29383e-11
4.40663e-11
4.51651e-11
4.62365e-11
4.7287e-11
4.83312e-11
4.93923e-11
5.05026e-11
5.17084e-11
5.3071e-11
5.46636e-11
5.65659e-11
5.88262e-11
6.13979e-11
6.40602e-11
6.64417e-11
6.81925e-11
6.92152e-11
6.96798e-11
6.9842e-11
6.98835e-11
6.98877e-11
6.98823e-11
6.98747e-11
6.98665e-11
6.98579e-11
6.98489e-11
6.98397e-11
6.98301e-11
6.98202e-11
6.98098e-11
6.97991e-11
6.97881e-11
6.97767e-11
6.97651e-11
6.97533e-11
6.97412e-11
6.97288e-11
6.97162e-11
6.97033e-11
6.969e-11
6.96764e-11
6.96624e-11
6.96481e-11
6.96334e-11
6.96184e-11
6.9603e-11
6.95874e-11
6.95714e-11
6.95551e-11
6.95384e-11
6.95214e-11
6.9504e-11
6.94862e-11
6.94679e-11
6.94492e-11
6.94301e-11
6.94106e-11
6.93906e-11
6.93702e-11
6.93493e-11
6.93278e-11
6.93059e-11
6.92835e-11
6.92605e-11
6.92369e-11
6.92127e-11
6.91879e-11
6.91625e-11
6.91364e-11
6.91096e-11
6.9082e-11
6.90537e-11
6.90247e-11
6.89947e-11
6.8964e-11
6.89323e-11
6.88997e-11
6.88661e-11
6.88314e-11
6.87957e-11
6.87589e-11
6.87208e-11
6.86816e-11
6.8641e-11
6.8599e-11
6.85556e-11
6.85105e-11
6.84637e-11
6.8415e-11
6.83644e-11
6.83118e-11
6.82565e-11
6.81982e-11
6.81364e-11
6.80714e-11
6.80029e-11
6.79286e-11
6.78449e-11
6.7752e-11
6.76579e-11
6.75573e-11
6.74318e-11
6.72736e-11
6.70291e-11
6.63687e-11
6.49869e-11
1.3369e-10
2.56833e-10
2.5761e-10
2.42622e-10
2.17264e-10
1.87812e-10
1.58126e-10
1.30527e-10
1.06141e-10
8.5282e-11
6.78065e-11
5.33529e-11
4.14949e-11
3.18157e-11
2.39413e-11
1.75514e-11
1.23778e-11
8.19884e-12
4.83311e-12
2.13222e-12
-2.48754e-14
-1.73686e-12
-3.08438e-12
-4.13325e-12
-4.93733e-12
-5.54069e-12
-5.97949e-12
-6.2834e-12
-6.47682e-12
-6.57986e-12
-6.60909e-12
-6.57825e-12
-6.49869e-12
-6.37986e-12
-6.2296e-12
-6.05445e-12
-5.85985e-12
-5.65034e-12
-5.42963e-12
-5.20068e-12
-4.96568e-12
-4.72607e-12
-4.48254e-12
-4.23521e-12
-3.98395e-12
-3.72874e-12
-3.46993e-12
-3.20864e-12
-2.94731e-12
-2.68979e-12
-2.44032e-12
-2.20204e-12
-1.97585e-12
-1.76147e-12
-1.55547e-12
-1.3594e-12
-1.1751e-12
-1.006e-12
-8.54605e-13
-7.20975e-13
-6.04983e-13
-5.05928e-13
-4.21915e-13
-3.51156e-13
-2.91815e-13
-2.42221e-13
-2.0109e-13
-1.66784e-13
-1.38144e-13
-1.14462e-13
-9.47237e-14
-7.82063e-14
-6.44695e-14
-5.30756e-14
-4.36102e-14
-3.56925e-14
-2.91444e-14
-2.37438e-14
-1.92408e-14
-1.55179e-14
-1.24512e-14
-9.91886e-15
-7.84422e-15
-6.14086e-15
-4.7857e-15
-3.6811e-15
-2.78372e-15
-2.01435e-15
-1.84751e-15
-7.17084e-16
-2.50585e-16
-1.33693e-16
1.89861e-16
-4.71205e-18
-4.63378e-18
-4.53081e-18
-4.44549e-18
-4.33337e-18
-4.23531e-18
-4.11312e-18
-4.00636e-18
-3.87524e-18
-3.75763e-18
-3.62018e-18
-3.49183e-18
-3.34305e-18
-3.20406e-18
-3.04821e-18
-2.901e-18
-2.74086e-18
-2.58921e-18
-2.42519e-18
-2.26972e-18
-2.10789e-18
-1.95605e-18
-1.80317e-18
-1.66596e-18
-1.53997e-18
-1.43012e-18
-1.30644e-18
-1.21056e-18
-1.12044e-18
-1.03543e-18
-9.53273e-19
-8.75023e-19
-8.03829e-19
-7.35979e-19
-6.70736e-19
-6.07268e-19
-5.45772e-19
-4.87171e-19
-4.29573e-19
-3.74413e-19
-3.18055e-19
-2.68019e-19
-2.18811e-19
-1.79324e-19
-1.35917e-19
-1.03513e-19
-5.95363e-20
-4.13963e-20
-8.4604e-21
1.22605e-20
3.19912e-20
3.51568e-20
4.86151e-20
4.81576e-20
4.83479e-20
4.0464e-20
9.38354e-20
1.07655e-19
1.23443e-19
1.81598e-19
1.97746e-19
2.06077e-19
2.15098e-19
2.1577e-19
2.30156e-19
2.35772e-19
2.42939e-19
2.39862e-19
2.44053e-19
2.38944e-19
2.35788e-19
2.27948e-19
2.30667e-19
2.30052e-19
2.30089e-19
2.27079e-19
2.25722e-19
2.23363e-19
2.21064e-19
2.17623e-19
2.18072e-19
2.17783e-19
2.17534e-19
2.17315e-19
2.20915e-19
2.24967e-19
2.33313e-19
2.43653e-19
3.15517e-19
3.89852e-19
4.68364e-19
5.48389e-19
6.32202e-19
7.15998e-19
8.00237e-19
8.81386e-19
9.77857e-19
1.06529e-18
1.15336e-18
1.22432e-18
1.31788e-18
1.38171e-18
1.45216e-18
1.48586e-18
1.65272e-18
1.75466e-18
1.86042e-18
1.85167e-18
1.96318e-18
1.89315e-18
1.82425e-18
1.3782e-18
1.68491e-18
1.47137e-18
1.22586e-18
2.72118e-20
6.39758e-20
-2.07286e-18
-5.58466e-18
)
;

boundaryField
{
    inandouthalf11
    {
        type            cyclic;
        value           nonuniform List<scalar> 
100
(
-4.47938e-12
-4.42941e-12
-4.39063e-12
-4.36291e-12
-4.33453e-12
-4.30385e-12
-4.27226e-12
-4.24031e-12
-4.20803e-12
-4.17542e-12
-4.1424e-12
-4.1089e-12
-4.07492e-12
-4.04045e-12
-4.00551e-12
-3.97011e-12
-3.93423e-12
-3.89786e-12
-3.86099e-12
-3.82363e-12
-3.78574e-12
-3.74737e-12
-3.70849e-12
-3.66911e-12
-3.62923e-12
-3.58885e-12
-3.54796e-12
-3.50656e-12
-3.46462e-12
-3.42209e-12
-3.37894e-12
-3.3351e-12
-3.29048e-12
-3.24505e-12
-3.19871e-12
-3.1515e-12
-3.10344e-12
-3.05468e-12
-3.00543e-12
-2.95595e-12
-2.90667e-12
-2.85787e-12
-2.80981e-12
-2.76264e-12
-2.71612e-12
-2.66983e-12
-2.62292e-12
-2.57411e-12
-2.52164e-12
-2.463e-12
-2.3949e-12
-2.3136e-12
-2.21548e-12
-2.09974e-12
-1.9722e-12
-1.84815e-12
-1.74749e-12
-1.68264e-12
-1.65052e-12
-1.63862e-12
-1.63567e-12
-1.63564e-12
-1.63645e-12
-1.63745e-12
-1.63851e-12
-1.6396e-12
-1.64074e-12
-1.64192e-12
-1.64314e-12
-1.64439e-12
-1.64572e-12
-1.6471e-12
-1.64849e-12
-1.64995e-12
-1.65144e-12
-1.65297e-12
-1.65452e-12
-1.65611e-12
-1.65774e-12
-1.6594e-12
-1.66111e-12
-1.66286e-12
-1.66466e-12
-1.66651e-12
-1.66841e-12
-1.67035e-12
-1.67234e-12
-1.67436e-12
-1.67643e-12
-1.67855e-12
-1.68071e-12
-1.68292e-12
-1.68519e-12
-1.6875e-12
-1.68988e-12
-1.69231e-12
-1.6948e-12
-1.69734e-12
-1.69995e-12
-1.70262e-12
)
;
    }
    inandouthalf12
    {
        type            cyclic;
        value           nonuniform List<scalar> 
100
(
4.47938e-12
4.42941e-12
4.39063e-12
4.36291e-12
4.33453e-12
4.30385e-12
4.27226e-12
4.24031e-12
4.20803e-12
4.17542e-12
4.1424e-12
4.1089e-12
4.07492e-12
4.04045e-12
4.00551e-12
3.97011e-12
3.93423e-12
3.89786e-12
3.86099e-12
3.82363e-12
3.78574e-12
3.74737e-12
3.70849e-12
3.66911e-12
3.62923e-12
3.58885e-12
3.54796e-12
3.50656e-12
3.46462e-12
3.42209e-12
3.37894e-12
3.3351e-12
3.29048e-12
3.24505e-12
3.19871e-12
3.1515e-12
3.10344e-12
3.05468e-12
3.00543e-12
2.95595e-12
2.90667e-12
2.85787e-12
2.80981e-12
2.76264e-12
2.71612e-12
2.66983e-12
2.62292e-12
2.57411e-12
2.52164e-12
2.463e-12
2.3949e-12
2.3136e-12
2.21548e-12
2.09974e-12
1.9722e-12
1.84815e-12
1.74749e-12
1.68264e-12
1.65052e-12
1.63862e-12
1.63567e-12
1.63564e-12
1.63645e-12
1.63745e-12
1.63851e-12
1.6396e-12
1.64074e-12
1.64192e-12
1.64314e-12
1.64439e-12
1.64572e-12
1.6471e-12
1.64849e-12
1.64995e-12
1.65144e-12
1.65297e-12
1.65452e-12
1.65611e-12
1.65774e-12
1.6594e-12
1.66111e-12
1.66286e-12
1.66466e-12
1.66651e-12
1.66841e-12
1.67035e-12
1.67234e-12
1.67436e-12
1.67643e-12
1.67855e-12
1.68071e-12
1.68292e-12
1.68519e-12
1.6875e-12
1.68988e-12
1.69231e-12
1.6948e-12
1.69734e-12
1.69995e-12
1.70262e-12
)
;
    }
    inandouthalf21
    {
        type            cyclic;
        value           nonuniform List<scalar> 
100
(
-1.70535e-12
-1.70815e-12
-1.71102e-12
-1.71396e-12
-1.71698e-12
-1.72008e-12
-1.72325e-12
-1.72651e-12
-1.72985e-12
-1.73329e-12
-1.73682e-12
-1.74045e-12
-1.74419e-12
-1.74803e-12
-1.75199e-12
-1.75607e-12
-1.76027e-12
-1.7646e-12
-1.76906e-12
-1.77367e-12
-1.77843e-12
-1.78335e-12
-1.78843e-12
-1.79368e-12
-1.79912e-12
-1.80474e-12
-1.81058e-12
-1.81663e-12
-1.82293e-12
-1.82949e-12
-1.83633e-12
-1.84345e-12
-1.8509e-12
-1.85876e-12
-1.86711e-12
-1.87597e-12
-1.88527e-12
-1.89517e-12
-1.90615e-12
-1.91878e-12
-1.93247e-12
-1.94554e-12
-1.9612e-12
-1.98157e-12
-2.0069e-12
-2.05268e-12
-1.88934e-12
2.70094e-10
6.15478e-08
1.62831e-07
2.3776e-07
2.96657e-07
3.44653e-07
3.84692e-07
4.18727e-07
4.48131e-07
4.73901e-07
4.96775e-07
5.17307e-07
5.35919e-07
5.52936e-07
5.68614e-07
5.83154e-07
5.96717e-07
6.09434e-07
6.21411e-07
6.32737e-07
6.43485e-07
6.53717e-07
6.63486e-07
6.72836e-07
6.81805e-07
6.90427e-07
6.98729e-07
7.06739e-07
7.14476e-07
7.21961e-07
7.29211e-07
7.3624e-07
7.43063e-07
7.4969e-07
7.56133e-07
7.62402e-07
7.68504e-07
7.74447e-07
7.80239e-07
7.85884e-07
7.9139e-07
7.96759e-07
8.01998e-07
8.07109e-07
8.12096e-07
8.16961e-07
8.21708e-07
8.26339e-07
8.30854e-07
8.35256e-07
8.39546e-07
8.43725e-07
8.47793e-07
)
;
    }
    inandouthalf22
    {
        type            cyclic;
        value           nonuniform List<scalar> 
100
(
1.70535e-12
1.70815e-12
1.71102e-12
1.71396e-12
1.71698e-12
1.72008e-12
1.72325e-12
1.72651e-12
1.72985e-12
1.73329e-12
1.73682e-12
1.74045e-12
1.74419e-12
1.74803e-12
1.75199e-12
1.75607e-12
1.76027e-12
1.7646e-12
1.76906e-12
1.77367e-12
1.77843e-12
1.78335e-12
1.78843e-12
1.79368e-12
1.79912e-12
1.80474e-12
1.81058e-12
1.81663e-12
1.82293e-12
1.82949e-12
1.83633e-12
1.84345e-12
1.8509e-12
1.85876e-12
1.86711e-12
1.87597e-12
1.88527e-12
1.89517e-12
1.90615e-12
1.91878e-12
1.93247e-12
1.94554e-12
1.9612e-12
1.98157e-12
2.0069e-12
2.05268e-12
1.88934e-12
-2.70094e-10
-6.15478e-08
-1.62831e-07
-2.3776e-07
-2.96657e-07
-3.44653e-07
-3.84692e-07
-4.18727e-07
-4.48131e-07
-4.73901e-07
-4.96775e-07
-5.17307e-07
-5.35919e-07
-5.52936e-07
-5.68614e-07
-5.83154e-07
-5.96717e-07
-6.09434e-07
-6.21411e-07
-6.32737e-07
-6.43485e-07
-6.53717e-07
-6.63486e-07
-6.72836e-07
-6.81805e-07
-6.90427e-07
-6.98729e-07
-7.06739e-07
-7.14476e-07
-7.21961e-07
-7.29211e-07
-7.3624e-07
-7.43063e-07
-7.4969e-07
-7.56133e-07
-7.62402e-07
-7.68504e-07
-7.74447e-07
-7.80239e-07
-7.85884e-07
-7.9139e-07
-7.96759e-07
-8.01998e-07
-8.07109e-07
-8.12096e-07
-8.16961e-07
-8.21708e-07
-8.26339e-07
-8.30854e-07
-8.35256e-07
-8.39546e-07
-8.43725e-07
-8.47793e-07
)
;
    }
    inandouthalf31
    {
        type            cyclic;
        value           nonuniform List<scalar> 
110
(
8.51752e-07
8.73005e-07
8.9473e-07
9.16931e-07
9.39611e-07
9.62768e-07
9.86405e-07
1.01052e-06
1.0351e-06
1.06016e-06
1.08567e-06
1.11164e-06
1.13804e-06
1.16487e-06
1.1921e-06
1.21973e-06
1.24773e-06
1.27608e-06
1.30477e-06
1.33377e-06
1.36307e-06
1.39265e-06
1.42252e-06
1.45267e-06
1.4831e-06
1.51382e-06
1.54484e-06
1.57617e-06
1.60783e-06
1.63982e-06
1.67217e-06
1.70488e-06
1.73798e-06
1.77146e-06
1.80535e-06
1.83966e-06
1.8744e-06
1.90959e-06
1.94524e-06
1.98137e-06
2.018e-06
2.05514e-06
2.09282e-06
2.13107e-06
2.16991e-06
2.20939e-06
2.24953e-06
2.29039e-06
2.33204e-06
2.37454e-06
2.41801e-06
2.4626e-06
2.50854e-06
2.55646e-06
2.60749e-06
2.66036e-06
2.71436e-06
2.76945e-06
2.82567e-06
2.88302e-06
2.94154e-06
3.00124e-06
3.06216e-06
3.12431e-06
3.18773e-06
3.25243e-06
3.31844e-06
3.3858e-06
3.45452e-06
3.52464e-06
3.59618e-06
3.66917e-06
3.74365e-06
3.81963e-06
3.89716e-06
3.97626e-06
4.05697e-06
4.13932e-06
4.22334e-06
4.30906e-06
4.39652e-06
4.48576e-06
4.57681e-06
4.6697e-06
4.76449e-06
4.86119e-06
4.95986e-06
5.06053e-06
5.16325e-06
5.26805e-06
5.37498e-06
5.48407e-06
5.59539e-06
5.70896e-06
5.82483e-06
5.94306e-06
6.06369e-06
6.18677e-06
6.31234e-06
6.44047e-06
6.57119e-06
6.70457e-06
6.84065e-06
6.9795e-06
7.12117e-06
7.26571e-06
7.41318e-06
7.56365e-06
7.71717e-06
7.87381e-06
)
;
    }
    inandouthalf32
    {
        type            cyclic;
        value           nonuniform List<scalar> 
110
(
-8.51752e-07
-8.73005e-07
-8.9473e-07
-9.16931e-07
-9.39611e-07
-9.62768e-07
-9.86405e-07
-1.01052e-06
-1.0351e-06
-1.06016e-06
-1.08567e-06
-1.11164e-06
-1.13804e-06
-1.16487e-06
-1.1921e-06
-1.21973e-06
-1.24773e-06
-1.27608e-06
-1.30477e-06
-1.33377e-06
-1.36307e-06
-1.39265e-06
-1.42252e-06
-1.45267e-06
-1.4831e-06
-1.51382e-06
-1.54484e-06
-1.57617e-06
-1.60783e-06
-1.63982e-06
-1.67217e-06
-1.70488e-06
-1.73798e-06
-1.77146e-06
-1.80535e-06
-1.83966e-06
-1.8744e-06
-1.90959e-06
-1.94524e-06
-1.98137e-06
-2.018e-06
-2.05514e-06
-2.09282e-06
-2.13107e-06
-2.16991e-06
-2.20939e-06
-2.24953e-06
-2.29039e-06
-2.33204e-06
-2.37454e-06
-2.41801e-06
-2.4626e-06
-2.50854e-06
-2.55646e-06
-2.60749e-06
-2.66036e-06
-2.71436e-06
-2.76945e-06
-2.82567e-06
-2.88302e-06
-2.94154e-06
-3.00124e-06
-3.06216e-06
-3.12431e-06
-3.18773e-06
-3.25243e-06
-3.31844e-06
-3.3858e-06
-3.45452e-06
-3.52464e-06
-3.59618e-06
-3.66917e-06
-3.74365e-06
-3.81963e-06
-3.89716e-06
-3.97626e-06
-4.05697e-06
-4.13932e-06
-4.22334e-06
-4.30906e-06
-4.39652e-06
-4.48576e-06
-4.57681e-06
-4.6697e-06
-4.76449e-06
-4.86119e-06
-4.95986e-06
-5.06053e-06
-5.16325e-06
-5.26805e-06
-5.37498e-06
-5.48407e-06
-5.59539e-06
-5.70896e-06
-5.82483e-06
-5.94306e-06
-6.06369e-06
-6.18677e-06
-6.31234e-06
-6.44047e-06
-6.57119e-06
-6.70457e-06
-6.84065e-06
-6.9795e-06
-7.12117e-06
-7.26571e-06
-7.41318e-06
-7.56365e-06
-7.71717e-06
-7.87381e-06
)
;
    }
    inandouthalf41
    {
        type            cyclic;
        value           nonuniform List<scalar> 
50
(
7.04786e-06
7.04786e-06
7.04786e-06
7.04786e-06
7.04786e-06
7.04786e-06
7.04786e-06
7.04786e-06
7.04786e-06
7.04786e-06
7.04786e-06
7.04786e-06
7.04786e-06
7.04786e-06
7.04786e-06
7.04786e-06
7.04786e-06
7.04786e-06
7.04786e-06
7.04786e-06
7.04786e-06
7.04786e-06
7.04786e-06
7.04786e-06
7.04786e-06
7.04786e-06
7.04786e-06
7.04786e-06
7.04786e-06
7.04786e-06
7.04786e-06
7.04786e-06
7.04786e-06
7.04786e-06
7.04786e-06
7.04786e-06
7.04786e-06
7.04786e-06
7.04786e-06
7.04786e-06
7.04786e-06
7.04786e-06
7.04786e-06
7.04786e-06
7.04786e-06
7.04786e-06
7.04786e-06
7.04786e-06
7.04786e-06
7.04786e-06
)
;
    }
    inandouthalf42
    {
        type            cyclic;
        value           nonuniform List<scalar> 
50
(
-7.04786e-06
-7.04786e-06
-7.04786e-06
-7.04786e-06
-7.04786e-06
-7.04786e-06
-7.04786e-06
-7.04786e-06
-7.04786e-06
-7.04786e-06
-7.04786e-06
-7.04786e-06
-7.04786e-06
-7.04786e-06
-7.04786e-06
-7.04786e-06
-7.04786e-06
-7.04786e-06
-7.04786e-06
-7.04786e-06
-7.04786e-06
-7.04786e-06
-7.04786e-06
-7.04786e-06
-7.04786e-06
-7.04786e-06
-7.04786e-06
-7.04786e-06
-7.04786e-06
-7.04786e-06
-7.04786e-06
-7.04786e-06
-7.04786e-06
-7.04786e-06
-7.04786e-06
-7.04786e-06
-7.04786e-06
-7.04786e-06
-7.04786e-06
-7.04786e-06
-7.04786e-06
-7.04786e-06
-7.04786e-06
-7.04786e-06
-7.04786e-06
-7.04786e-06
-7.04786e-06
-7.04786e-06
-7.04786e-06
-7.04786e-06
)
;
    }
    top
    {
        type            symmetryPlane;
        value           uniform 0;
    }
    walls
    {
        type            fixedValue;
        value           uniform 0;
    }
    frontAndBackPlanes
    {
        type            empty;
        value           nonuniform 0();
    }
}


// ************************************************************************* //
