/*--------------------------------*- C++ -*----------------------------------*\
| =========                 |                                                 |
| \\      /  F ield         | OpenFOAM: The Open Source CFD Toolbox           |
|  \\    /   O peration     | Version:  2.4.x                                 |
|   \\  /    A nd           | Web:      www.OpenFOAM.org                      |
|    \\/     M anipulation  |                                                 |
\*---------------------------------------------------------------------------*/
FoamFile
{
    version     2.0;
    format      ascii;
    class       volTensorField;
    location    "5.85";
    object      Taus;
}
// * * * * * * * * * * * * * * * * * * * * * * * * * * * * * * * * * * * * * //

dimensions      [0 2 -2 0 0 0 0];

internalField   nonuniform List<tensor> 
360
(
(0 -0.0150303 0 -0.0150303 -0.195318 0 0 0 0)
(0 -0.0212082 0 -0.0212082 -0.239088 0 0 0 0)
(0 -0.0257815 0 -0.0257815 -0.246347 0 0 0 0)
(0 -0.0255727 0 -0.0255727 -0.24133 0 0 0 0)
(1.01917e-17 -0.0249009 0 -0.0249009 -0.238101 0 0 0 0)
(9.82671e-18 -0.0248345 0 -0.0248345 -0.23665 0 0 0 0)
(9.65538e-18 -0.0249114 0 -0.0249114 -0.235252 0 0 0 0)
(0 -0.0249469 0 -0.0249469 -0.233673 0 0 0 0)
(1.89045e-17 -0.0249599 0 -0.0249599 -0.232076 0 0 0 0)
(0 -0.0249578 0 -0.0249578 -0.230439 0 0 0 0)
(1.84224e-17 -0.0249455 0 -0.0249455 -0.228775 0 0 0 0)
(0 -0.0249345 0 -0.0249345 -0.227125 0 0 0 0)
(3.57956e-17 -0.0249255 0 -0.0249255 -0.225476 0 0 0 0)
(0 -0.0249192 0 -0.0249192 -0.223838 0 0 0 0)
(0 -0.0249128 0 -0.0249128 -0.2222 0 0 0 0)
(0 -0.0249033 0 -0.0249033 -0.220554 0 0 0 0)
(0 -0.0248913 0 -0.0248913 -0.218902 0 0 0 0)
(3.34148e-17 -0.024879 0 -0.024879 -0.217251 0 0 0 0)
(0 -0.0248657 0 -0.0248657 -0.215602 0 0 0 0)
(0 -0.0248498 0 -0.0248498 -0.213939 0 0 0 0)
(0 -0.0248364 0 -0.0248364 -0.212294 0 0 0 0)
(6.32346e-17 -0.0248201 0 -0.0248201 -0.210634 0 0 0 0)
(0 -0.0248026 0 -0.0248026 -0.208976 0 0 0 0)
(0 -0.024785 0 -0.024785 -0.207319 0 0 0 0)
(0 -0.0247664 0 -0.0247664 -0.205659 0 0 0 0)
(5.9963e-17 -0.0247482 0 -0.0247482 -0.204 0 0 0 0)
(0 -0.0247305 0 -0.0247305 -0.202346 0 0 0 0)
(0 -0.0247096 0 -0.0247096 -0.20068 0 0 0 0)
(0 -0.0246888 0 -0.0246888 -0.199018 0 0 0 0)
(0 -0.0246687 0 -0.0246687 -0.197358 0 0 0 0)
(0 -0.0246465 0 -0.0246465 -0.195697 0 0 0 0)
(0 -0.0246206 0 -0.0246206 -0.194018 0 0 0 0)
(0 -0.0245965 0 -0.0245965 -0.192364 0 0 0 0)
(0 -0.0245632 0 -0.0245632 -0.190667 0 0 0 0)
(0 -0.0245311 0 -0.0245311 -0.188996 0 0 0 0)
(-1.01378e-16 -0.0244955 0 -0.0244955 -0.187305 0 0 0 0)
(0 -0.0244596 0 -0.0244596 -0.185624 0 0 0 0)
(0 -0.0244196 0 -0.0244196 -0.183933 0 0 0 0)
(0 -0.0243801 0 -0.0243801 -0.182234 0 0 0 0)
(0 -0.0243521 0 -0.0243521 -0.180581 0 0 0 0)
(0 -0.0243226 0 -0.0243226 -0.178899 0 0 0 0)
(0 -0.0243056 0 -0.0243056 -0.17725 0 0 0 0)
(-1.00556e-16 -0.0243035 0 -0.0243035 -0.175636 0 0 0 0)
(0 -0.0243038 0 -0.0243038 -0.174001 0 0 0 0)
(0 -0.0243156 0 -0.0243156 -0.172399 0 0 0 0)
(0 -0.02433 0 -0.02433 -0.170789 0 0 0 0)
(0 -0.0243418 0 -0.0243418 -0.169164 0 0 0 0)
(0 -0.0243498 0 -0.0243498 -0.167547 0 0 0 0)
(0 -0.0243262 0 -0.0243262 -0.165867 0 0 0 0)
(0 -0.0242584 0 -0.0242584 -0.164111 0 0 0 0)
(-6.40625e-17 -0.0241445 0 -0.0241445 -0.162317 0 0 0 0)
(0 -0.0239556 0 -0.0239556 -0.1604 0 0 0 0)
(0 -0.023689 0 -0.023689 -0.158388 0 0 0 0)
(0 -0.023357 0 -0.023357 -0.156267 0 0 0 0)
(0 -0.0230082 0 -0.0230082 -0.154142 0 0 0 0)
(0 -0.0227019 0 -0.0227019 -0.15208 0 0 0 0)
(0 -0.0225182 0 -0.0225182 -0.150295 0 0 0 0)
(0 -0.022481 0 -0.022481 -0.148785 0 0 0 0)
(0 -0.022587 0 -0.022587 -0.147534 0 0 0 0)
(0 -0.0227983 0 -0.0227983 -0.14642 0 0 0 0)
(0 -0.0230517 0 -0.0230517 -0.14528 0 0 0 0)
(0 -0.0233288 0 -0.0233288 -0.144131 0 0 0 0)
(0 -0.0236057 0 -0.0236057 -0.142885 0 0 0 0)
(0 -0.0238812 0 -0.0238812 -0.14158 0 0 0 0)
(0 -0.0241513 0 -0.0241513 -0.140197 0 0 0 0)
(0 -0.0244056 0 -0.0244056 -0.138762 0 0 0 0)
(0 -0.0246109 0 -0.0246109 -0.137285 0 0 0 0)
(0 -0.0247165 0 -0.0247165 -0.135815 0 0 0 0)
(0 -0.0246709 0 -0.0246709 -0.134398 0 0 0 0)
(0 -0.0244582 0 -0.0244582 -0.133064 0 0 0 0)
(0 -0.0241148 0 -0.0241148 -0.131767 0 0 0 0)
(0 -0.0237335 0 -0.0237335 -0.130485 0 0 0 0)
(0 -0.0233915 0 -0.0233915 -0.129213 0 0 0 0)
(0 -0.0231055 0 -0.0231055 -0.127884 0 0 0 0)
(0 -0.0228841 0 -0.0228841 -0.126529 0 0 0 0)
(0 -0.022715 0 -0.022715 -0.125129 0 0 0 0)
(0 -0.0225911 0 -0.0225911 -0.123715 0 0 0 0)
(0 -0.0224947 0 -0.0224947 -0.122273 0 0 0 0)
(0 -0.0224132 0 -0.0224132 -0.120805 0 0 0 0)
(0 -0.0223396 0 -0.0223396 -0.119314 0 0 0 0)
(0 -0.0222693 0 -0.0222693 -0.117806 0 0 0 0)
(0 -0.0221945 0 -0.0221945 -0.116272 0 0 0 0)
(0 -0.0221124 0 -0.0221124 -0.114716 0 0 0 0)
(0 -0.0220226 0 -0.0220226 -0.113143 0 0 0 0)
(0 -0.0219244 0 -0.0219244 -0.111553 0 0 0 0)
(0 -0.0218184 0 -0.0218184 -0.10995 0 0 0 0)
(0 -0.0217049 0 -0.0217049 -0.108334 0 0 0 0)
(0 -0.0215856 0 -0.0215856 -0.106711 0 0 0 0)
(0 -0.0214604 0 -0.0214604 -0.105081 0 0 0 0)
(0 -0.0213283 0 -0.0213283 -0.103442 0 0 0 0)
(0 -0.0211894 0 -0.0211894 -0.101796 0 0 0 0)
(0 -0.0210432 0 -0.0210432 -0.100144 0 0 0 0)
(0 -0.0208887 0 -0.0208887 -0.0984831 0 0 0 0)
(0 -0.0207261 0 -0.0207261 -0.0968151 0 0 0 0)
(0 -0.0205558 0 -0.0205558 -0.0951401 0 0 0 0)
(0 -0.0203785 0 -0.0203785 -0.0934585 0 0 0 0)
(0 -0.0201949 0 -0.0201949 -0.0917709 0 0 0 0)
(0 -0.0200059 0 -0.0200059 -0.0900779 0 0 0 0)
(0 -0.019812 0 -0.019812 -0.0883799 0 0 0 0)
(0 -0.0196137 0 -0.0196137 -0.0866768 0 0 0 0)
(0 -0.0194114 0 -0.0194114 -0.084969 0 0 0 0)
(0 -0.0192053 0 -0.0192053 -0.0832565 0 0 0 0)
(0 -0.0189955 0 -0.0189955 -0.0815393 0 0 0 0)
(0 -0.0187824 0 -0.0187824 -0.0798176 0 0 0 0)
(0 -0.0185661 0 -0.0185661 -0.0780914 0 0 0 0)
(0 -0.018347 0 -0.018347 -0.076361 0 0 0 0)
(0 -0.0181251 0 -0.0181251 -0.0746265 0 0 0 0)
(0 -0.0179007 0 -0.0179007 -0.072888 0 0 0 0)
(0 -0.017674 0 -0.017674 -0.0711457 0 0 0 0)
(0 -0.0174451 0 -0.0174451 -0.0693996 0 0 0 0)
(0 -0.0172142 0 -0.0172142 -0.0676499 0 0 0 0)
(0 -0.0169816 0 -0.0169816 -0.0658967 0 0 0 0)
(0 -0.0167473 0 -0.0167473 -0.0641401 0 0 0 0)
(0 -0.0165117 0 -0.0165117 -0.0623803 0 0 0 0)
(0 -0.0162752 0 -0.0162752 -0.0606173 0 0 0 0)
(0 -0.016038 0 -0.016038 -0.0588514 0 0 0 0)
(0 -0.0158006 0 -0.0158006 -0.0570825 0 0 0 0)
(0 -0.0155633 0 -0.0155633 -0.0553109 0 0 0 0)
(0 -0.0153266 0 -0.0153266 -0.0535366 0 0 0 0)
(0 -0.0150909 0 -0.0150909 -0.0517595 0 0 0 0)
(0 -0.0148567 0 -0.0148567 -0.0499799 0 0 0 0)
(0 -0.0146245 0 -0.0146245 -0.0481978 0 0 0 0)
(0 -0.0143947 0 -0.0143947 -0.0464131 0 0 0 0)
(0 -0.0141678 0 -0.0141678 -0.044626 0 0 0 0)
(0 -0.0139443 0 -0.0139443 -0.0428363 0 0 0 0)
(0 -0.0137243 0 -0.0137243 -0.0410439 0 0 0 0)
(0 -0.0135072 0 -0.0135072 -0.0392481 0 0 0 0)
(0 -0.013292 0 -0.013292 -0.0374482 0 0 0 0)
(0 -0.0130778 0 -0.0130778 -0.0356429 0 0 0 0)
(0 -0.0128644 0 -0.0128644 -0.0338313 0 0 0 0)
(0 -0.0126538 0 -0.0126538 -0.032012 0 0 0 0)
(0 -0.0124479 0 -0.0124479 -0.0301837 0 0 0 0)
(0 -0.0122433 0 -0.0122433 -0.0283434 0 0 0 0)
(0 -0.0120297 0 -0.0120297 -0.0264866 0 0 0 0)
(0 -0.0117993 0 -0.0117993 -0.0246091 0 0 0 0)
(0 -0.0115601 0 -0.0115601 -0.0227104 0 0 0 0)
(0 -0.0113241 0 -0.0113241 -0.0207908 0 0 0 0)
(0 -0.0110687 0 -0.0110687 -0.0188576 0 0 0 0)
(0 -0.0107245 0 -0.0107245 -0.0169374 0 0 0 0)
(0 -0.0102525 0 -0.0102525 -0.0150411 0 0 0 0)
(0 -0.00976958 0 -0.00976958 -0.0131226 0 0 0 0)
(0 -0.0094188 0 -0.0094188 -0.0111951 0 0 0 0)
(0 -0.00896597 0 -0.00896597 -0.00911389 0 0 0 0)
(0 -0.00833054 0 -0.00833054 -0.00677172 0 0 0 0)
(0 -0.0076842 0 -0.0076842 -0.00329588 0 0 0 0)
(0 -0.00603647 0 -0.00603647 9.73615e-05 0 0 0 0)
(0 -0.00244931 0 -0.00244931 -0.000954009 0 0 0 0)
(0 -0.00156096 0 -0.00156096 -3.45379e-06 0 0 0 0)
(0 -0.00195266 0 -0.00195266 -5.21691e-06 0 0 0 0)
(0 -0.00235728 0 -0.00235728 -5.86205e-06 0 0 0 0)
(0 -0.00201109 0 -0.00201109 -3.78438e-06 0 0 0 0)
(0 -0.00181162 0 -0.00181162 -3.4566e-06 0 0 0 0)
(0 -0.00174413 0 -0.00174413 -3.53464e-06 0 0 0 0)
(0 -0.0017738 0 -0.0017738 -3.55472e-06 0 0 0 0)
(0 -0.00187736 0 -0.00187736 -3.39139e-06 0 0 0 0)
(0 -0.00204048 0 -0.00204048 -2.88337e-06 0 0 0 0)
(0 -0.00225452 0 -0.00225452 -1.82035e-06 0 0 0 0)
(0 -0.00251446 0 -0.00251446 3.88941e-08 0 0 0 0)
(0 -0.0028176 0 -0.0028176 2.95596e-06 0 0 0 0)
(0 -0.0031628 0 -0.0031628 7.21165e-06 0 0 0 0)
(0 -0.00354994 0 -0.00354994 1.31091e-05 0 0 0 0)
(0 -0.00397957 0 -0.00397957 2.09785e-05 0 0 0 0)
(0 -0.00445271 0 -0.00445271 3.1181e-05 0 0 0 0)
(0 -0.00497065 0 -0.00497065 4.4115e-05 0 0 0 0)
(0 -0.00553481 0 -0.00553481 6.02219e-05 0 0 0 0)
(0 -0.00614671 0 -0.00614671 7.99936e-05 0 0 0 0)
(0 -0.00680781 0 -0.00680781 0.000103979 0 0 0 0)
(0 -0.0075195 0 -0.0075195 0.000132794 0 0 0 0)
(0 -0.00828301 0 -0.00828301 0.000167125 0 0 0 0)
(0 -0.00909937 0 -0.00909937 0.000207737 0 0 0 0)
(0 -0.00996935 0 -0.00996935 0.000255482 0 0 0 0)
(0 -0.0108934 0 -0.0108934 0.000311296 0 0 0 0)
(0 -0.0118716 0 -0.0118716 0.000376208 0 0 0 0)
(0 -0.0129037 0 -0.0129037 0.000451337 0 0 0 0)
(0 -0.013989 0 -0.013989 0.000537897 0 0 0 0)
(0 -0.0151262 0 -0.0151262 0.000637198 0 0 0 0)
(0 -0.0163136 0 -0.0163136 0.000750645 0 0 0 0)
(0 -0.0175489 0 -0.0175489 0.000879745 0 0 0 0)
(0 -0.0188293 0 -0.0188293 0.00102611 0 0 0 0)
(0 -0.0201513 0 -0.0201513 0.00119145 0 0 0 0)
(0 -0.0215108 0 -0.0215108 0.0013776 0 0 0 0)
(0 -0.022903 0 -0.022903 0.00158652 0 0 0 0)
(0 -0.0243226 0 -0.0243226 0.00182028 0 0 0 0)
(0 -0.0257634 0 -0.0257634 0.0020811 0 0 0 0)
(0 -0.0272186 0 -0.0272186 0.00237129 0 0 0 0)
(0 -0.0286807 0 -0.0286807 0.00269313 0 0 0 0)
(0 -0.030142 0 -0.030142 0.00304854 0 0 0 0)
(0 -0.0315948 0 -0.0315948 0.00343854 0 0 0 0)
(0 -0.0330327 0 -0.0330327 0.00386236 0 0 0 0)
(0 -0.0344514 0 -0.0344514 0.00431638 0 0 0 0)
(0 -0.0358501 0 -0.0358501 0.00479329 0 0 0 0)
(0 -0.0372327 0 -0.0372327 0.005282 0 0 0 0)
(0 -0.0386069 0 -0.0386069 0.00576798 0 0 0 0)
(0 -0.0399852 0 -0.0399852 0.00623371 0 0 0 0)
(0 -0.0413841 0 -0.0413841 0.00666057 0 0 0 0)
(0 -0.0428176 0 -0.0428176 0.00703423 0 0 0 0)
(0 -0.0442872 0 -0.0442872 0.00735135 0 0 0 0)
(0 -0.0457765 0 -0.0457765 0.00762078 0 0 0 0)
(0 -0.0472625 0 -0.0472625 0.00785348 0 0 0 0)
(0 -0.0487437 0 -0.0487437 0.00804245 0 0 0 0)
(0 -0.0502673 0 -0.0502673 0.00815663 0 0 0 0)
(0 -0.0519117 0 -0.0519117 0.00815905 0 0 0 0)
(4.51395e-15 -0.0537378 0 -0.0537378 0.00800732 0 0 0 0)
(0 -0.0558363 0 -0.0558363 0.00765882 0 0 0 0)
(0 -0.058234 0 -0.058234 0.00710407 0 0 0 0)
(-3.12731e-15 -0.0608366 0 -0.0608366 0.00637271 0 0 0 0)
(0 -0.0636297 0 -0.0636297 0.00548764 0 0 0 0)
(7.76279e-15 -0.0666045 0 -0.0666045 0.0044682 0 0 0 0)
(0 -0.0696232 0 -0.0696232 0.00336198 0 0 0 0)
(-9.45513e-15 -0.0726347 0 -0.0726347 0.00220724 0 0 0 0)
(0 -0.0756029 0 -0.0756029 0.00102577 0 0 0 0)
(0 -0.0784361 0 -0.0784361 -0.00015966 0 0 0 0)
(0 -0.0811397 0 -0.0811397 -0.00133154 0 0 0 0)
(-1.28016e-14 -0.083561 0 -0.083561 -0.00243857 0 0 0 0)
(0 -0.0856517 0 -0.0856517 -0.00346633 0 0 0 0)
(0 -0.0875255 0 -0.0875255 -0.00444681 0 0 0 0)
(0 -0.0889876 0 -0.0889876 -0.00532535 0 0 0 0)
(0 -0.0900208 0 -0.0900208 -0.00608835 0 0 0 0)
(0 -0.09076 0 -0.09076 -0.00679693 0 0 0 0)
(1.55124e-14 -0.0911313 0 -0.0911313 -0.00744645 0 0 0 0)
(0 -0.0910837 0 -0.0910837 -0.00800611 0 0 0 0)
(1.55527e-14 -0.0905776 0 -0.0905776 -0.00847525 0 0 0 0)
(0 -0.0897335 0 -0.0897335 -0.00892374 0 0 0 0)
(1.52082e-14 -0.0885173 0 -0.0885173 -0.00935051 0 0 0 0)
(0 -0.086785 0 -0.086785 -0.00970074 0 0 0 0)
(0 -0.0846684 0 -0.0846684 -0.0100533 0 0 0 0)
(0 -0.0821852 0 -0.0821852 -0.0104523 0 0 0 0)
(0 -0.0792602 0 -0.0792602 -0.0108777 0 0 0 0)
(-1.29976e-14 -0.0759159 0 -0.0759159 -0.0113846 0 0 0 0)
(-1.23675e-14 -0.0721159 0 -0.0721159 -0.0119951 0 0 0 0)
(0 -0.0678326 0 -0.0678326 -0.0127991 0 0 0 0)
(0 -0.0627698 0 -0.0627698 -0.0136322 0 0 0 0)
(0 -0.056786 0 -0.056786 -0.0146176 0 0 0 0)
(0 -0.0499149 0 -0.0499149 -0.0158153 0 0 0 0)
(0 -0.0425829 0 -0.0425829 -0.018793 0 0 0 0)
(0 -0.0396014 0 -0.0396014 -0.0215576 0 0 0 0)
(0 -0 0 -0 -0 0 0 0 0)
(0 -0 0 -0 0 0 0 0 0)
(0 0 0 0 -0 0 0 0 0)
(0 0 0 0 -0 0 0 0 0)
(0 0 0 0 -0 0 0 0 0)
(0 0 0 0 -0 0 0 0 0)
(0 0 0 0 0 0 0 0 0)
(0 0 0 0 -0 0 0 0 0)
(0 0 0 0 -0 0 0 0 0)
(0 0 0 0 -0 0 0 0 0)
(0 0 0 0 -0 0 0 0 0)
(0 0 0 0 -0 0 0 0 0)
(0 0 0 0 0 0 0 0 0)
(0 0 0 0 0 0 0 0 0)
(0 0 0 0 0 0 0 0 0)
(0 0 0 0 0 0 0 0 0)
(0 0 0 0 0 0 0 0 0)
(0 0 0 0 0 0 0 0 0)
(0 0 0 0 0 0 0 0 0)
(0 0 0 0 0 0 0 0 0)
(0 0 0 0 0 0 0 0 0)
(0 0 0 0 -0 0 0 0 0)
(0 0 0 0 0 0 0 0 0)
(0 0 0 0 0 0 0 0 0)
(0 0 0 0 -0 0 0 0 0)
(0 0 0 0 0 0 0 0 0)
(0 0 0 0 -0 0 0 0 0)
(0 0 0 0 0 0 0 0 0)
(0 0 0 0 -0 0 0 0 0)
(0 0 0 0 0 0 0 0 0)
(-0 0 0 0 -0 0 0 0 0)
(0 0 0 0 0 0 0 0 0)
(0 0 0 0 -0 0 0 0 0)
(0 0 0 0 0 0 0 0 0)
(0 0 0 0 -0 0 0 0 0)
(0 0 0 0 -0 0 0 0 0)
(0 0 0 0 0 0 0 0 0)
(0 0 0 0 0 0 0 0 0)
(0 0 0 0 -0 0 0 0 0)
(0 0 0 0 0 0 0 0 0)
(0 0 0 0 -0 0 0 0 0)
(0 0 0 0 0 0 0 0 0)
(0 0 0 0 -0 0 0 0 0)
(0 0 0 0 0 0 0 0 0)
(0 0 0 0 -0 0 0 0 0)
(0 0 0 0 0 0 0 0 0)
(0 0 0 0 -0 0 0 0 0)
(0 0 0 0 0 0 0 0 0)
(0 0 0 0 -0 0 0 0 0)
(0 0 0 0 0 0 0 0 0)
(-0 0 0 0 -0 0 0 0 0)
(0 0 0 0 0 0 0 0 0)
(0 0 0 0 -0 0 0 0 0)
(0 0 0 0 0 0 0 0 0)
(0 0 0 0 -0 0 0 0 0)
(0 0 0 0 0 0 0 0 0)
(0 0 0 0 -0 0 0 0 0)
(0 0 0 0 0 0 0 0 0)
(0 0 0 0 -0 0 0 0 0)
(0 0 0 0 0 0 0 0 0)
(0 -0 0 -0 -0 0 0 0 0)
(0 0 0 0 0 0 0 0 0)
(0 -0 0 -0 -0 0 0 0 0)
(0 0 0 0 0 0 0 0 0)
(0 0 0 0 -0 0 0 0 0)
(0 0 0 0 0 0 0 0 0)
(0 -0 0 -0 -0 0 0 0 0)
(0 0 0 0 0 0 0 0 0)
(0 -0 0 -0 -0 0 0 0 0)
(0 0 0 0 0 0 0 0 0)
(0 -0 0 -0 -0 0 0 0 0)
(0 0 0 0 0 0 0 0 0)
(0 -0 0 -0 -0 0 0 0 0)
(0 -0 0 -0 0 0 0 0 0)
(0 -0 0 -0 -0 0 0 0 0)
(0 0 0 0 0 0 0 0 0)
(0 0 0 0 -0 0 0 0 0)
(0 0 0 0 0 0 0 0 0)
(0 -0 0 -0 -0 0 0 0 0)
(0 0 0 0 0 0 0 0 0)
(0 -0 0 -0 -0 0 0 0 0)
(0 0 0 0 0 0 0 0 0)
(0 0 0 0 -0 0 0 0 0)
(0 -0 0 -0 0 0 0 0 0)
(0 -0 0 -0 -0 0 0 0 0)
(0 0 0 0 0 0 0 0 0)
(0 0 0 0 -0 0 0 0 0)
(0 0 0 0 0 0 0 0 0)
(0 -0 0 -0 -0 0 0 0 0)
(0 0 0 0 0 0 0 0 0)
(0 -0 0 -0 -0 0 0 0 0)
(0 0 0 0 0 0 0 0 0)
(0 -0 0 -0 -0 0 0 0 0)
(0 0 0 0 0 0 0 0 0)
(0 -0 0 -0 -0 0 0 0 0)
(0 -0 0 -0 0 0 0 0 0)
(0 -0 0 -0 -0 0 0 0 0)
(0 0 0 0 0 0 0 0 0)
(0 -0 0 -0 -0 0 0 0 0)
(0 0 0 0 0 0 0 0 0)
(0 -0 0 -0 -0 0 0 0 0)
(0 -0 0 -0 0 0 0 0 0)
(0 -0 0 -0 -0 0 0 0 0)
(0 -0 0 -0 0 0 0 0 0)
(0 -0 0 -0 -0 0 0 0 0)
(0 0 0 0 0 0 0 0 0)
(0 0 0 0 -0 0 0 0 0)
(0 0 0 0 0 0 0 0 0)
(0 -0 0 -0 -0 0 0 0 0)
(0 0 0 0 0 0 0 0 0)
(0 0 0 0 -0 0 0 0 0)
(0 0 0 0 0 0 0 0 0)
(0 -0 0 -0 -0 0 0 0 0)
(0 -0 0 -0 0 0 0 0 0)
(0 0 0 0 -0 0 0 0 0)
(0 0 0 0 0 0 0 0 0)
(0 0 0 0 -0 0 0 0 0)
(0 -0 0 -0 0 0 0 0 0)
(0 -0 0 -0 0 0 0 0 0)
(0 -0 0 -0 0 0 0 0 0)
(0 -0 0 -0 0 0 0 0 0)
(0 -0 0 -0 0 0 0 0 0)
(0 -0 0 -0 0 0 0 0 0)
(0 -0 0 -0 0 0 0 0 0)
)
;

boundaryField
{
    inandouthalf11
    {
        type            cyclic;
    }
    inandouthalf12
    {
        type            cyclic;
    }
    inandouthalf21
    {
        type            cyclic;
    }
    inandouthalf22
    {
        type            cyclic;
    }
    inandouthalf31
    {
        type            cyclic;
    }
    inandouthalf32
    {
        type            cyclic;
    }
    inandouthalf41
    {
        type            cyclic;
    }
    inandouthalf42
    {
        type            cyclic;
    }
    top
    {
        type            symmetryPlane;
    }
    walls
    {
        type            zeroGradient;
    }
    frontAndBackPlanes
    {
        type            empty;
    }
}


// ************************************************************************* //
