/*--------------------------------*- C++ -*----------------------------------*\
| =========                 |                                                 |
| \\      /  F ield         | OpenFOAM: The Open Source CFD Toolbox           |
|  \\    /   O peration     | Version:  2.4.x                                 |
|   \\  /    A nd           | Web:      www.OpenFOAM.org                      |
|    \\/     M anipulation  |                                                 |
\*---------------------------------------------------------------------------*/
FoamFile
{
    version     2.0;
    format      ascii;
    class       volScalarField;
    location    "5.85";
    object      Theta;
}
// * * * * * * * * * * * * * * * * * * * * * * * * * * * * * * * * * * * * * //

dimensions      [0 2 -2 0 0 0 0];

internalField   nonuniform List<scalar> 
360
(
6.66656e-21
6.67935e-21
6.67447e-21
6.67262e-21
6.67333e-21
6.67407e-21
6.67438e-21
6.67449e-21
6.67458e-21
6.67471e-21
6.67489e-21
6.67509e-21
6.67529e-21
6.67547e-21
6.67565e-21
6.67583e-21
6.67602e-21
6.67621e-21
6.6764e-21
6.67659e-21
6.67677e-21
6.67696e-21
6.67713e-21
6.67731e-21
6.67748e-21
6.67764e-21
6.6778e-21
6.67798e-21
6.67818e-21
6.6784e-21
6.67867e-21
6.67898e-21
6.67935e-21
6.67976e-21
6.6802e-21
6.6806e-21
6.68093e-21
6.68113e-21
6.68111e-21
6.68082e-21
6.68026e-21
6.67948e-21
6.67858e-21
6.67774e-21
6.67713e-21
6.67697e-21
6.67748e-21
6.67904e-21
6.68224e-21
6.68803e-21
6.69785e-21
6.71345e-21
6.73504e-21
6.75676e-21
6.76363e-21
6.7429e-21
6.70538e-21
6.67642e-21
6.66451e-21
6.66176e-21
6.66138e-21
6.66135e-21
6.66135e-21
6.66135e-21
6.66135e-21
6.66135e-21
6.66134e-21
6.66134e-21
6.66134e-21
6.66134e-21
6.66134e-21
6.66134e-21
6.66134e-21
6.66134e-21
6.66134e-21
6.66134e-21
6.66134e-21
6.66134e-21
6.66133e-21
6.66133e-21
6.66133e-21
6.66133e-21
6.66133e-21
6.66133e-21
6.66133e-21
6.66133e-21
6.66133e-21
6.66132e-21
6.66132e-21
6.66132e-21
6.66132e-21
6.66132e-21
6.66132e-21
6.66132e-21
6.66132e-21
6.66131e-21
6.66131e-21
6.66131e-21
6.66131e-21
6.66131e-21
6.66131e-21
6.6613e-21
6.6613e-21
6.6613e-21
6.6613e-21
6.6613e-21
6.6613e-21
6.66129e-21
6.66129e-21
6.66129e-21
6.66129e-21
6.66129e-21
6.66128e-21
6.66128e-21
6.66128e-21
6.66128e-21
6.66127e-21
6.66127e-21
6.66127e-21
6.66127e-21
6.66126e-21
6.66126e-21
6.66126e-21
6.66126e-21
6.66125e-21
6.66125e-21
6.66125e-21
6.66124e-21
6.66124e-21
6.66123e-21
6.66123e-21
6.66125e-21
1.14923e-20
4.92314e-20
2.45756e-19
1.33597e-18
7.99971e-18
5.36371e-17
4.09075e-16
3.59537e-15
3.67937e-14
4.43057e-13
6.36935e-12
1.11215e-10
2.70222e-09
1.72279e-07
7.95828e-06
0.000117572
0.00100244
0.002388
0.00307115
0.00350914
0.00384379
0.0041237
0.00436516
0.00457367
0.00475175
0.00490164
0.00502581
0.00512695
0.00520771
0.00527058
0.00531778
0.00535127
0.00537274
0.00538364
0.00538519
0.00537846
0.00536435
0.00534365
0.00531704
0.00528513
0.00524845
0.0052075
0.00516272
0.0051145
0.00506324
0.00500927
0.00495292
0.00489452
0.00483435
0.00477269
0.0047098
0.00464595
0.00458137
0.00451629
0.00445092
0.00438545
0.00432008
0.00425497
0.00419029
0.00412617
0.00406272
0.00400005
0.00393825
0.00387736
0.00381742
0.00375846
0.00370047
0.00364344
0.00358733
0.00353156
0.00347554
0.00341921
0.00336253
0.0033054
0.00324774
0.00318943
0.00313038
0.00307045
0.00300953
0.00294749
0.00288419
0.00281949
0.00275326
0.00268534
0.00261558
0.00254381
0.00246985
0.00239351
0.00231458
0.00223283
0.002148
0.00205982
0.00196795
0.00187201
0.00177157
0.00166607
0.00155487
0.00143712
0.00131175
0.00117727
0.00103154
0.000871232
0.000690511
0.000476668
0
0
0
0
0
0
0
0
0
0
0
0
0
0
0
0
0
0
0
0
0
0
0
0
0
0
0
0
0
0
0
0
0
0
0
0
0
0
0
0
0
0
0
0
0
0
0
0
0
0
0
0
0
0
0
0
0
0
0
0
0
0
0
0
0
0
0
0
0
0
0
0
0
0
0
0
0
0
0
0
0
0
0
0
0
0
0
0
0
0
0
0
0
0
0
0
0
0
0
0
0
0
0
0
0
0
0
0
0
0
0
0
0
0
0
0
0
0
0
0
0
0
0
0
)
;

boundaryField
{
    inandouthalf11
    {
        type            cyclic;
    }
    inandouthalf12
    {
        type            cyclic;
    }
    inandouthalf21
    {
        type            cyclic;
    }
    inandouthalf22
    {
        type            cyclic;
    }
    inandouthalf31
    {
        type            cyclic;
    }
    inandouthalf32
    {
        type            cyclic;
    }
    inandouthalf41
    {
        type            cyclic;
    }
    inandouthalf42
    {
        type            cyclic;
    }
    top
    {
        type            symmetryPlane;
    }
    walls
    {
        type            zeroGradient;
    }
    frontAndBackPlanes
    {
        type            empty;
    }
}


// ************************************************************************* //
