/*--------------------------------*- C++ -*----------------------------------*\
| =========                 |                                                 |
| \\      /  F ield         | OpenFOAM: The Open Source CFD Toolbox           |
|  \\    /   O peration     | Version:  2.4.x                                 |
|   \\  /    A nd           | Web:      www.OpenFOAM.org                      |
|    \\/     M anipulation  |                                                 |
\*---------------------------------------------------------------------------*/
FoamFile
{
    version     2.0;
    format      ascii;
    class       volVectorField;
    location    "5.85";
    object      Ua;
}
// * * * * * * * * * * * * * * * * * * * * * * * * * * * * * * * * * * * * * //

dimensions      [0 1 -1 0 0 0 0];

internalField   nonuniform List<vector> 
360
(
(-1.00991e-32 -9.21303e-32 0)
(-3.00897e-08 -1.95507e-07 0)
(-6.43051e-08 -3.62468e-07 0)
(-9.4679e-08 -5.04088e-07 0)
(-1.2489e-07 -6.4834e-07 0)
(-1.56355e-07 -7.98961e-07 0)
(-1.88687e-07 -9.52301e-07 0)
(-2.21485e-07 -1.10649e-06 0)
(-2.54631e-07 -1.26114e-06 0)
(-2.88144e-07 -1.41638e-06 0)
(-3.22086e-07 -1.57256e-06 0)
(-3.56508e-07 -1.72987e-06 0)
(-3.91421e-07 -1.88834e-06 0)
(-4.26819e-07 -2.04789e-06 0)
(-4.62692e-07 -2.20843e-06 0)
(-4.99042e-07 -2.36997e-06 0)
(-5.3588e-07 -2.53253e-06 0)
(-5.73217e-07 -2.69613e-06 0)
(-6.1106e-07 -2.86077e-06 0)
(-6.49416e-07 -3.02647e-06 0)
(-6.88282e-07 -3.19319e-06 0)
(-7.27659e-07 -3.36087e-06 0)
(-7.67548e-07 -3.52953e-06 0)
(-8.0795e-07 -3.69912e-06 0)
(-8.48862e-07 -3.86961e-06 0)
(-8.90281e-07 -4.04096e-06 0)
(-9.32211e-07 -4.21314e-06 0)
(-9.74667e-07 -4.38619e-06 0)
(-1.01768e-06 -4.5602e-06 0)
(-1.06128e-06 -4.73527e-06 0)
(-1.10552e-06 -4.91156e-06 0)
(-1.15046e-06 -5.08933e-06 0)
(-1.19618e-06 -5.26879e-06 0)
(-1.24275e-06 -5.45021e-06 0)
(-1.29022e-06 -5.63377e-06 0)
(-1.33859e-06 -5.8194e-06 0)
(-1.38781e-06 -6.00688e-06 0)
(-1.43775e-06 -6.19569e-06 0)
(-1.48821e-06 -6.385e-06 0)
(-1.53886e-06 -6.57357e-06 0)
(-1.58936e-06 -6.76006e-06 0)
(-1.63937e-06 -6.94319e-06 0)
(-1.6886e-06 -7.12191e-06 0)
(-1.73699e-06 -7.29592e-06 0)
(-1.78469e-06 -7.46586e-06 0)
(-1.83217e-06 -7.63336e-06 0)
(-1.88028e-06 -7.80139e-06 0)
(-1.93029e-06 -7.97429e-06 0)
(-1.98401e-06 -8.15825e-06 0)
(-2.04397e-06 -8.36184e-06 0)
(-2.11341e-06 -8.59595e-06 0)
(-2.19619e-06 -8.87352e-06 0)
(-2.29589e-06 -9.20689e-06 0)
(-2.41341e-06 -9.5997e-06 0)
(-2.54288e-06 -1.00331e-05 0)
(-2.66899e-06 -1.04558e-05 0)
(-2.77163e-06 -1.07993e-05 0)
(-2.83822e-06 -1.10206e-05 0)
(-2.87173e-06 -1.11305e-05 0)
(-2.88476e-06 -1.11726e-05 0)
(-2.88876e-06 -1.11852e-05 0)
(-2.88978e-06 -1.11884e-05 0)
(-2.89002e-06 -1.11891e-05 0)
(-2.89007e-06 -1.11893e-05 0)
(-2.89008e-06 -1.11893e-05 0)
(-2.89008e-06 -1.11893e-05 0)
(-2.89008e-06 -1.11893e-05 0)
(-2.89008e-06 -1.11893e-05 0)
(-2.89008e-06 -1.11893e-05 0)
(-2.89008e-06 -1.11893e-05 0)
(-2.89008e-06 -1.11893e-05 0)
(-2.89008e-06 -1.11893e-05 0)
(-2.89008e-06 -1.11893e-05 0)
(-2.89008e-06 -1.11893e-05 0)
(-2.89008e-06 -1.11893e-05 0)
(-2.89008e-06 -1.11893e-05 0)
(-2.89008e-06 -1.11893e-05 0)
(-2.89009e-06 -1.11893e-05 0)
(-2.89009e-06 -1.11893e-05 0)
(-2.89009e-06 -1.11893e-05 0)
(-2.89009e-06 -1.11893e-05 0)
(-2.89009e-06 -1.11893e-05 0)
(-2.89009e-06 -1.11893e-05 0)
(-2.89009e-06 -1.11893e-05 0)
(-2.89009e-06 -1.11893e-05 0)
(-2.89009e-06 -1.11893e-05 0)
(-2.89009e-06 -1.11893e-05 0)
(-2.89009e-06 -1.11893e-05 0)
(-2.89009e-06 -1.11893e-05 0)
(-2.89009e-06 -1.11893e-05 0)
(-2.89009e-06 -1.11893e-05 0)
(-2.89009e-06 -1.11893e-05 0)
(-2.89009e-06 -1.11893e-05 0)
(-2.89009e-06 -1.11893e-05 0)
(-2.8901e-06 -1.11893e-05 0)
(-2.8901e-06 -1.11893e-05 0)
(-2.8901e-06 -1.11893e-05 0)
(-2.8901e-06 -1.11893e-05 0)
(-2.8901e-06 -1.11893e-05 0)
(-2.8901e-06 -1.11893e-05 0)
(-2.8901e-06 -1.11893e-05 0)
(-2.8901e-06 -1.11893e-05 0)
(-2.8901e-06 -1.11894e-05 0)
(-2.8901e-06 -1.11894e-05 0)
(-2.8901e-06 -1.11894e-05 0)
(-2.8901e-06 -1.11894e-05 0)
(-2.8901e-06 -1.11894e-05 0)
(-2.8901e-06 -1.11894e-05 0)
(-2.8901e-06 -1.11894e-05 0)
(-2.8901e-06 -1.11894e-05 0)
(-2.89011e-06 -1.11894e-05 0)
(-2.89011e-06 -1.11894e-05 0)
(-2.89011e-06 -1.11894e-05 0)
(-2.89011e-06 -1.11894e-05 0)
(-2.89011e-06 -1.11894e-05 0)
(-2.89011e-06 -1.11894e-05 0)
(-2.89011e-06 -1.11894e-05 0)
(-2.89011e-06 -1.11894e-05 0)
(-2.89011e-06 -1.11894e-05 0)
(-2.89011e-06 -1.11894e-05 0)
(-2.89011e-06 -1.11894e-05 0)
(-2.89011e-06 -1.11894e-05 0)
(-2.89011e-06 -1.11894e-05 0)
(-2.89011e-06 -1.11894e-05 0)
(-2.89012e-06 -1.11894e-05 0)
(-2.89012e-06 -1.11894e-05 0)
(-2.89012e-06 -1.11894e-05 0)
(-2.89012e-06 -1.11894e-05 0)
(-2.89012e-06 -1.11894e-05 0)
(-2.89012e-06 -1.11894e-05 0)
(-2.89012e-06 -1.11894e-05 0)
(-2.89012e-06 -1.11894e-05 0)
(-2.89012e-06 -1.11894e-05 0)
(-2.89012e-06 -1.11894e-05 0)
(-2.89012e-06 -1.11894e-05 0)
(-2.89013e-06 -1.11894e-05 0)
(-2.89013e-06 -1.11894e-05 0)
(-2.89013e-06 -1.11894e-05 0)
(-2.89013e-06 -1.11894e-05 0)
(-2.89013e-06 -1.11894e-05 0)
(-2.89013e-06 -1.11894e-05 0)
(-2.89013e-06 -1.11894e-05 0)
(-2.89013e-06 -1.11894e-05 0)
(-2.89013e-06 -1.11894e-05 0)
(-2.89013e-06 -1.11894e-05 0)
(-2.89013e-06 -1.11894e-05 0)
(-2.89013e-06 -1.11894e-05 0)
(-2.89013e-06 -1.11894e-05 0)
(-0.0547726 -7.17811e-05 0)
(-0.153137 -0.000215753 0)
(-0.229817 -0.00028943 0)
(-0.290261 -0.00034477 0)
(-0.339279 -0.000393858 0)
(-0.379964 -0.000435665 0)
(-0.414379 -0.000469109 0)
(-0.443975 -0.000493482 0)
(-0.469801 -0.000508267 0)
(-0.492634 -0.000513126 0)
(-0.513054 -0.000507932 0)
(-0.531498 -0.00049274 0)
(-0.548303 -0.000467745 0)
(-0.56373 -0.000433228 0)
(-0.577982 -0.000389518 0)
(-0.591223 -0.000336966 0)
(-0.603581 -0.000275921 0)
(-0.615164 -0.000206719 0)
(-0.626057 -0.000129672 0)
(-0.636332 -4.50652e-05 0)
(-0.646048 4.68483e-05 0)
(-0.655255 0.000145843 0)
(-0.663996 0.000251722 0)
(-0.672305 0.000364311 0)
(-0.680214 0.000483452 0)
(-0.687748 0.000609 0)
(-0.69493 0.000740818 0)
(-0.70178 0.000878767 0)
(-0.708313 0.00102271 0)
(-0.714546 0.00117249 0)
(-0.720492 0.00132796 0)
(-0.72616 0.00148895 0)
(-0.731563 0.00165527 0)
(-0.736709 0.00182674 0)
(-0.741607 0.00200314 0)
(-0.746263 0.00218425 0)
(-0.750686 0.00236983 0)
(-0.754881 0.00255961 0)
(-0.758854 0.0027533 0)
(-0.762611 0.00295052 0)
(-0.766157 0.00315074 0)
(-0.769499 0.00335322 0)
(-0.772641 0.00355688 0)
(-0.775588 0.00376029 0)
(-0.778347 0.00396164 0)
(-0.780923 0.00415881 0)
(-0.783323 0.00434951 0)
(-0.785553 0.00453141 0)
(-0.787621 0.0047026 0)
(-0.789535 0.00486193 0)
(-0.791303 0.00500906 0)
(-0.792933 0.00514418 0)
(-0.794432 0.00526721 0)
(-0.795824 0.0053788 0)
(-0.797127 0.00547896 0)
(-0.798345 0.00556649 0)
(-0.799482 0.00564037 0)
(-0.800545 0.00570062 0)
(-0.801541 0.00574812 0)
(-0.802476 0.00578379 0)
(-0.803357 0.00580895 0)
(-0.804191 0.00582512 0)
(-0.804984 0.00583359 0)
(-0.805741 0.00583557 0)
(-0.806467 0.00583203 0)
(-0.807169 0.0058238 0)
(-0.807849 0.00581182 0)
(-0.808513 0.00579658 0)
(-0.809162 0.00577844 0)
(-0.8098 0.00575802 0)
(-0.81043 0.00573554 0)
(-0.811054 0.00571105 0)
(-0.811674 0.00568469 0)
(-0.812292 0.00565665 0)
(-0.812907 0.00562698 0)
(-0.813523 0.00559537 0)
(-0.81414 0.00556186 0)
(-0.814757 0.00552643 0)
(-0.815374 0.00548855 0)
(-0.815993 0.0054478 0)
(-0.816611 0.00540364 0)
(-0.81723 0.00535502 0)
(-0.817846 0.00530089 0)
(-0.81846 0.00523886 0)
(-0.819064 0.00516856 0)
(-0.819655 0.00508494 0)
(-0.820224 0.00498455 0)
(-0.820785 0.0048349 0)
(-0.821512 0.00463388 0)
(-0.906462 -0.00138889 0)
(-0.906588 0.00477828 0)
(-0.904881 -0.00244079 0)
(-0.903 -0.0303283 0)
(-0.90149 -0.0396203 0)
(-0.899566 -0.0395786 0)
(-0.897796 -0.039584 0)
(-0.895968 -0.0395851 0)
(-0.894117 -0.0395865 0)
(-0.892255 -0.0395876 0)
(-0.890396 -0.0395884 0)
(-0.888562 -0.0395887 0)
(-0.886776 -0.0395883 0)
(-0.885073 -0.0395868 0)
(-0.8835 -0.0395836 0)
(-0.882118 -0.0395761 0)
(-0.881281 -0.0395633 0)
(-0.881073 -0.039553 0)
(-0.881061 -0.0395502 0)
(-0.88106 -0.0395501 0)
(-0.88106 -0.0395501 0)
(-0.88106 -0.0395501 0)
(-0.88106 -0.0395501 0)
(-0.88106 -0.0395501 0)
(-0.88106 -0.0395501 0)
(-0.88106 -0.0395501 0)
(-0.88106 -0.0395501 0)
(-0.88106 -0.0395501 0)
(-0.88106 -0.0395501 0)
(-0.88106 -0.0395501 0)
(-0.88106 -0.0395501 0)
(-0.88106 -0.0395501 0)
(-0.88106 -0.0395501 0)
(-0.88106 -0.0395501 0)
(-0.881059 -0.0395501 0)
(-0.881059 -0.0395501 0)
(-0.881059 -0.0395501 0)
(-0.881059 -0.0395501 0)
(-0.881059 -0.0395501 0)
(-0.881059 -0.0395501 0)
(-0.881059 -0.0395501 0)
(-0.881059 -0.0395501 0)
(-0.881059 -0.0395501 0)
(-0.881059 -0.0395501 0)
(-0.881059 -0.0395501 0)
(-0.881059 -0.0395501 0)
(-0.881059 -0.0395501 0)
(-0.881059 -0.0395501 0)
(-0.881059 -0.0395501 0)
(-0.881059 -0.0395501 0)
(-0.881059 -0.0395501 0)
(-0.881059 -0.0395501 0)
(-0.881059 -0.0395501 0)
(-0.881059 -0.0395501 0)
(-0.881059 -0.0395501 0)
(-0.881059 -0.0395501 0)
(-0.881059 -0.0395501 0)
(-0.881059 -0.0395501 0)
(-0.881059 -0.0395501 0)
(-0.881059 -0.0395501 0)
(-0.881059 -0.0395501 0)
(-0.881059 -0.0395501 0)
(-0.881059 -0.0395501 0)
(-0.881059 -0.0395501 0)
(-0.881059 -0.0395501 0)
(-0.881059 -0.0395501 0)
(-0.881059 -0.0395501 0)
(-0.881059 -0.0395501 0)
(-0.881059 -0.0395501 0)
(-0.881059 -0.0395501 0)
(-0.881059 -0.0395501 0)
(-0.881059 -0.0395501 0)
(-0.881059 -0.0395501 0)
(-0.881059 -0.0395501 0)
(-0.881059 -0.0395501 0)
(-0.881059 -0.0395501 0)
(-0.881059 -0.0395501 0)
(-0.881059 -0.0395501 0)
(-0.881059 -0.0395501 0)
(-0.881059 -0.0395501 0)
(-0.881059 -0.0395501 0)
(-0.881059 -0.0395501 0)
(-0.881059 -0.0395501 0)
(-0.881059 -0.0395501 0)
(-0.881059 -0.0395501 0)
(-0.881059 -0.0395501 0)
(-0.881059 -0.0395501 0)
(-0.881059 -0.0395501 0)
(-0.881059 -0.0395501 0)
(-0.881059 -0.0395501 0)
(-0.881059 -0.0395501 0)
(-0.881059 -0.0395501 0)
(-0.881059 -0.0395501 0)
(-0.881059 -0.0395501 0)
(-0.881059 -0.0395501 0)
(-0.881059 -0.0395501 0)
(-0.881059 -0.0395501 0)
(-0.881059 -0.0395501 0)
(-0.881059 -0.0395501 0)
(-0.881059 -0.0395501 0)
(-0.881059 -0.0395501 0)
(-0.881059 -0.0395501 0)
(-0.881059 -0.0395501 0)
(-0.881059 -0.0395501 0)
(-0.881059 -0.0395501 0)
(-0.881059 -0.0395501 0)
(-0.881059 -0.0395501 0)
(-0.881059 -0.0395501 0)
(-0.881059 -0.0395501 0)
(-0.881059 -0.0395501 0)
(-0.881059 -0.0395501 0)
(-0.881059 -0.0395501 0)
(-0.881059 -0.0395501 0)
(-0.881059 -0.0395501 0)
(-0.881059 -0.0395501 0)
(-0.881059 -0.0395501 0)
(-0.881059 -0.0395501 0)
(-0.881059 -0.0395501 0)
(-0.881059 -0.0395501 0)
(-0.881059 -0.0395498 0)
(-0.88106 -0.0395414 0)
(-0.88106 -0.039197 0)
(-0.881072 -0.0225004 0)
)
;

boundaryField
{
    inandouthalf11
    {
        type            cyclic;
    }
    inandouthalf12
    {
        type            cyclic;
    }
    inandouthalf21
    {
        type            cyclic;
    }
    inandouthalf22
    {
        type            cyclic;
    }
    inandouthalf31
    {
        type            cyclic;
    }
    inandouthalf32
    {
        type            cyclic;
    }
    inandouthalf41
    {
        type            cyclic;
    }
    inandouthalf42
    {
        type            cyclic;
    }
    top
    {
        type            symmetryPlane;
    }
    walls
    {
        type            fixedValue;
        value           uniform (0 0 0);
    }
    frontAndBackPlanes
    {
        type            empty;
    }
}


// ************************************************************************* //
