/*--------------------------------*- C++ -*----------------------------------*\
| =========                 |                                                 |
| \\      /  F ield         | OpenFOAM: The Open Source CFD Toolbox           |
|  \\    /   O peration     | Version:  2.4.x                                 |
|   \\  /    A nd           | Web:      www.OpenFOAM.org                      |
|    \\/     M anipulation  |                                                 |
\*---------------------------------------------------------------------------*/
FoamFile
{
    version     2.0;
    format      ascii;
    class       volVectorField;
    location    "5.85";
    object      Ua_0;
}
// * * * * * * * * * * * * * * * * * * * * * * * * * * * * * * * * * * * * * //

dimensions      [0 1 -1 0 0 0 0];

internalField   nonuniform List<vector> 
360
(
(-1.00993e-32 -9.2129e-32 0)
(-3.00926e-08 -1.9552e-07 0)
(-6.43116e-08 -3.62495e-07 0)
(-9.46887e-08 -5.04126e-07 0)
(-1.24903e-07 -6.48389e-07 0)
(-1.56371e-07 -7.99021e-07 0)
(-1.88706e-07 -9.52373e-07 0)
(-2.21507e-07 -1.10657e-06 0)
(-2.54657e-07 -1.26124e-06 0)
(-2.88173e-07 -1.41649e-06 0)
(-3.22119e-07 -1.57268e-06 0)
(-3.56544e-07 -1.73e-06 0)
(-3.9146e-07 -1.88848e-06 0)
(-4.26862e-07 -2.04804e-06 0)
(-4.62738e-07 -2.2086e-06 0)
(-4.99092e-07 -2.37015e-06 0)
(-5.35934e-07 -2.53272e-06 0)
(-5.73275e-07 -2.69633e-06 0)
(-6.11122e-07 -2.86099e-06 0)
(-6.4948e-07 -3.0267e-06 0)
(-6.88351e-07 -3.19343e-06 0)
(-7.27731e-07 -3.36113e-06 0)
(-7.67625e-07 -3.5298e-06 0)
(-8.0803e-07 -3.6994e-06 0)
(-8.48946e-07 -3.8699e-06 0)
(-8.90369e-07 -4.04126e-06 0)
(-9.32302e-07 -4.21345e-06 0)
(-9.74763e-07 -4.38651e-06 0)
(-1.01778e-06 -4.56054e-06 0)
(-1.06138e-06 -4.73562e-06 0)
(-1.10562e-06 -4.91193e-06 0)
(-1.15057e-06 -5.08971e-06 0)
(-1.1963e-06 -5.26919e-06 0)
(-1.24287e-06 -5.45063e-06 0)
(-1.29034e-06 -5.6342e-06 0)
(-1.33872e-06 -5.81985e-06 0)
(-1.38795e-06 -6.00734e-06 0)
(-1.43789e-06 -6.19616e-06 0)
(-1.48835e-06 -6.38549e-06 0)
(-1.53901e-06 -6.57407e-06 0)
(-1.58951e-06 -6.76055e-06 0)
(-1.63952e-06 -6.94368e-06 0)
(-1.68875e-06 -7.1224e-06 0)
(-1.73714e-06 -7.29641e-06 0)
(-1.78484e-06 -7.46635e-06 0)
(-1.83233e-06 -7.63386e-06 0)
(-1.88045e-06 -7.80191e-06 0)
(-1.93046e-06 -7.97484e-06 0)
(-1.9842e-06 -8.15886e-06 0)
(-2.04418e-06 -8.36254e-06 0)
(-2.11367e-06 -8.59678e-06 0)
(-2.1965e-06 -8.87452e-06 0)
(-2.29627e-06 -9.2081e-06 0)
(-2.41384e-06 -9.60111e-06 0)
(-2.54332e-06 -1.00346e-05 0)
(-2.6694e-06 -1.04572e-05 0)
(-2.77192e-06 -1.08003e-05 0)
(-2.83839e-06 -1.10211e-05 0)
(-2.8718e-06 -1.11308e-05 0)
(-2.88478e-06 -1.11726e-05 0)
(-2.88877e-06 -1.11853e-05 0)
(-2.88978e-06 -1.11884e-05 0)
(-2.89002e-06 -1.11891e-05 0)
(-2.89007e-06 -1.11893e-05 0)
(-2.89008e-06 -1.11893e-05 0)
(-2.89008e-06 -1.11893e-05 0)
(-2.89008e-06 -1.11893e-05 0)
(-2.89008e-06 -1.11893e-05 0)
(-2.89008e-06 -1.11893e-05 0)
(-2.89008e-06 -1.11893e-05 0)
(-2.89008e-06 -1.11893e-05 0)
(-2.89008e-06 -1.11893e-05 0)
(-2.89008e-06 -1.11893e-05 0)
(-2.89008e-06 -1.11893e-05 0)
(-2.89008e-06 -1.11893e-05 0)
(-2.89008e-06 -1.11893e-05 0)
(-2.89008e-06 -1.11893e-05 0)
(-2.89009e-06 -1.11893e-05 0)
(-2.89009e-06 -1.11893e-05 0)
(-2.89009e-06 -1.11893e-05 0)
(-2.89009e-06 -1.11893e-05 0)
(-2.89009e-06 -1.11893e-05 0)
(-2.89009e-06 -1.11893e-05 0)
(-2.89009e-06 -1.11893e-05 0)
(-2.89009e-06 -1.11893e-05 0)
(-2.89009e-06 -1.11893e-05 0)
(-2.89009e-06 -1.11893e-05 0)
(-2.89009e-06 -1.11893e-05 0)
(-2.89009e-06 -1.11893e-05 0)
(-2.89009e-06 -1.11893e-05 0)
(-2.89009e-06 -1.11893e-05 0)
(-2.89009e-06 -1.11893e-05 0)
(-2.89009e-06 -1.11893e-05 0)
(-2.89009e-06 -1.11893e-05 0)
(-2.8901e-06 -1.11893e-05 0)
(-2.8901e-06 -1.11893e-05 0)
(-2.8901e-06 -1.11893e-05 0)
(-2.8901e-06 -1.11893e-05 0)
(-2.8901e-06 -1.11893e-05 0)
(-2.8901e-06 -1.11893e-05 0)
(-2.8901e-06 -1.11893e-05 0)
(-2.8901e-06 -1.11893e-05 0)
(-2.8901e-06 -1.11894e-05 0)
(-2.8901e-06 -1.11894e-05 0)
(-2.8901e-06 -1.11894e-05 0)
(-2.8901e-06 -1.11894e-05 0)
(-2.8901e-06 -1.11894e-05 0)
(-2.8901e-06 -1.11894e-05 0)
(-2.8901e-06 -1.11894e-05 0)
(-2.8901e-06 -1.11894e-05 0)
(-2.89011e-06 -1.11894e-05 0)
(-2.89011e-06 -1.11894e-05 0)
(-2.89011e-06 -1.11894e-05 0)
(-2.89011e-06 -1.11894e-05 0)
(-2.89011e-06 -1.11894e-05 0)
(-2.89011e-06 -1.11894e-05 0)
(-2.89011e-06 -1.11894e-05 0)
(-2.89011e-06 -1.11894e-05 0)
(-2.89011e-06 -1.11894e-05 0)
(-2.89011e-06 -1.11894e-05 0)
(-2.89011e-06 -1.11894e-05 0)
(-2.89011e-06 -1.11894e-05 0)
(-2.89011e-06 -1.11894e-05 0)
(-2.89011e-06 -1.11894e-05 0)
(-2.89012e-06 -1.11894e-05 0)
(-2.89012e-06 -1.11894e-05 0)
(-2.89012e-06 -1.11894e-05 0)
(-2.89012e-06 -1.11894e-05 0)
(-2.89012e-06 -1.11894e-05 0)
(-2.89012e-06 -1.11894e-05 0)
(-2.89012e-06 -1.11894e-05 0)
(-2.89012e-06 -1.11894e-05 0)
(-2.89012e-06 -1.11894e-05 0)
(-2.89012e-06 -1.11894e-05 0)
(-2.89012e-06 -1.11894e-05 0)
(-2.89013e-06 -1.11894e-05 0)
(-2.89013e-06 -1.11894e-05 0)
(-2.89013e-06 -1.11894e-05 0)
(-2.89013e-06 -1.11894e-05 0)
(-2.89013e-06 -1.11894e-05 0)
(-2.89013e-06 -1.11894e-05 0)
(-2.89013e-06 -1.11894e-05 0)
(-2.89013e-06 -1.11894e-05 0)
(-2.89013e-06 -1.11894e-05 0)
(-2.89013e-06 -1.11894e-05 0)
(-2.89013e-06 -1.11894e-05 0)
(-2.89013e-06 -1.11894e-05 0)
(-2.89013e-06 -1.11894e-05 0)
(-0.0547822 -7.17927e-05 0)
(-0.153146 -0.000215688 0)
(-0.229826 -0.000289352 0)
(-0.290271 -0.000344664 0)
(-0.33929 -0.000393729 0)
(-0.379975 -0.000435514 0)
(-0.414391 -0.000468937 0)
(-0.443987 -0.000493292 0)
(-0.469814 -0.000508059 0)
(-0.492648 -0.000512903 0)
(-0.513068 -0.000507694 0)
(-0.531513 -0.00049249 0)
(-0.548318 -0.000467482 0)
(-0.563745 -0.000432954 0)
(-0.577998 -0.000389235 0)
(-0.591239 -0.000336674 0)
(-0.603598 -0.000275621 0)
(-0.615181 -0.000206411 0)
(-0.626074 -0.000129357 0)
(-0.636349 -4.47429e-05 0)
(-0.646066 4.71775e-05 0)
(-0.655274 0.00014618 0)
(-0.664014 0.000252067 0)
(-0.672324 0.000364664 0)
(-0.680233 0.000483815 0)
(-0.687767 0.000609375 0)
(-0.69495 0.000741205 0)
(-0.701799 0.000879168 0)
(-0.708333 0.00102312 0)
(-0.714566 0.00117292 0)
(-0.720512 0.00132841 0)
(-0.726181 0.00148942 0)
(-0.731584 0.00165577 0)
(-0.73673 0.00182725 0)
(-0.741627 0.00200368 0)
(-0.746284 0.00218481 0)
(-0.750706 0.00237041 0)
(-0.754901 0.00256021 0)
(-0.758874 0.00275393 0)
(-0.762631 0.00295117 0)
(-0.766177 0.00315141 0)
(-0.769519 0.0033539 0)
(-0.77266 0.00355758 0)
(-0.775607 0.003761 0)
(-0.778366 0.00396235 0)
(-0.780942 0.00415952 0)
(-0.783341 0.0043502 0)
(-0.785571 0.00453209 0)
(-0.78764 0.00470325 0)
(-0.789553 0.00486254 0)
(-0.791321 0.00500964 0)
(-0.79295 0.00514471 0)
(-0.794449 0.0052677 0)
(-0.795842 0.00537925 0)
(-0.797144 0.00547936 0)
(-0.798361 0.00556684 0)
(-0.799498 0.00564066 0)
(-0.800561 0.00570087 0)
(-0.801557 0.00574832 0)
(-0.802492 0.00578396 0)
(-0.803373 0.00580908 0)
(-0.804207 0.00582522 0)
(-0.804999 0.00583366 0)
(-0.805756 0.00583561 0)
(-0.806483 0.00583205 0)
(-0.807184 0.00582381 0)
(-0.807865 0.00581181 0)
(-0.808528 0.00579656 0)
(-0.809177 0.00577841 0)
(-0.809815 0.00575798 0)
(-0.810445 0.00573549 0)
(-0.811069 0.005711 0)
(-0.811689 0.00568464 0)
(-0.812306 0.00565659 0)
(-0.812922 0.00562692 0)
(-0.813538 0.00559531 0)
(-0.814154 0.00556179 0)
(-0.814771 0.00552637 0)
(-0.815389 0.00548848 0)
(-0.816007 0.00544773 0)
(-0.816626 0.00540357 0)
(-0.817244 0.00535494 0)
(-0.81786 0.00530082 0)
(-0.818474 0.00523878 0)
(-0.819078 0.00516848 0)
(-0.819669 0.00508486 0)
(-0.820238 0.00498446 0)
(-0.820799 0.00483481 0)
(-0.821526 0.00463381 0)
(-0.906466 -0.00139004 0)
(-0.906592 0.00478097 0)
(-0.904884 -0.00244497 0)
(-0.903003 -0.030336 0)
(-0.901493 -0.0396203 0)
(-0.899569 -0.0395786 0)
(-0.897799 -0.039584 0)
(-0.89597 -0.0395851 0)
(-0.89412 -0.0395865 0)
(-0.892257 -0.0395876 0)
(-0.890399 -0.0395884 0)
(-0.888564 -0.0395887 0)
(-0.886778 -0.0395883 0)
(-0.885075 -0.0395868 0)
(-0.883502 -0.0395836 0)
(-0.882121 -0.0395761 0)
(-0.881284 -0.0395632 0)
(-0.881077 -0.039553 0)
(-0.881065 -0.0395502 0)
(-0.881064 -0.0395501 0)
(-0.881064 -0.0395501 0)
(-0.881064 -0.0395501 0)
(-0.881064 -0.0395501 0)
(-0.881064 -0.0395501 0)
(-0.881064 -0.0395501 0)
(-0.881064 -0.0395501 0)
(-0.881063 -0.0395501 0)
(-0.881063 -0.0395501 0)
(-0.881063 -0.0395501 0)
(-0.881063 -0.0395501 0)
(-0.881063 -0.0395501 0)
(-0.881063 -0.0395501 0)
(-0.881063 -0.0395501 0)
(-0.881063 -0.0395501 0)
(-0.881063 -0.0395501 0)
(-0.881063 -0.0395501 0)
(-0.881063 -0.0395501 0)
(-0.881063 -0.0395501 0)
(-0.881063 -0.0395501 0)
(-0.881063 -0.0395501 0)
(-0.881063 -0.0395501 0)
(-0.881063 -0.0395501 0)
(-0.881063 -0.0395501 0)
(-0.881063 -0.0395501 0)
(-0.881063 -0.0395501 0)
(-0.881063 -0.0395501 0)
(-0.881063 -0.0395501 0)
(-0.881063 -0.0395501 0)
(-0.881063 -0.0395501 0)
(-0.881063 -0.0395501 0)
(-0.881063 -0.0395501 0)
(-0.881063 -0.0395501 0)
(-0.881063 -0.0395501 0)
(-0.881063 -0.0395501 0)
(-0.881063 -0.0395501 0)
(-0.881063 -0.0395501 0)
(-0.881063 -0.0395501 0)
(-0.881063 -0.0395501 0)
(-0.881063 -0.0395501 0)
(-0.881063 -0.0395501 0)
(-0.881063 -0.0395501 0)
(-0.881063 -0.0395501 0)
(-0.881063 -0.0395501 0)
(-0.881063 -0.0395501 0)
(-0.881063 -0.0395501 0)
(-0.881063 -0.0395501 0)
(-0.881063 -0.0395501 0)
(-0.881063 -0.0395501 0)
(-0.881063 -0.0395501 0)
(-0.881063 -0.0395501 0)
(-0.881063 -0.0395501 0)
(-0.881063 -0.0395501 0)
(-0.881063 -0.0395501 0)
(-0.881063 -0.0395501 0)
(-0.881063 -0.0395501 0)
(-0.881063 -0.0395501 0)
(-0.881063 -0.0395501 0)
(-0.881063 -0.0395501 0)
(-0.881063 -0.0395501 0)
(-0.881063 -0.0395501 0)
(-0.881063 -0.0395501 0)
(-0.881063 -0.0395501 0)
(-0.881063 -0.0395501 0)
(-0.881063 -0.0395501 0)
(-0.881063 -0.0395501 0)
(-0.881063 -0.0395501 0)
(-0.881063 -0.0395501 0)
(-0.881063 -0.0395501 0)
(-0.881063 -0.0395501 0)
(-0.881063 -0.0395501 0)
(-0.881063 -0.0395501 0)
(-0.881063 -0.0395501 0)
(-0.881063 -0.0395501 0)
(-0.881063 -0.0395501 0)
(-0.881063 -0.0395501 0)
(-0.881063 -0.0395501 0)
(-0.881063 -0.0395501 0)
(-0.881063 -0.0395501 0)
(-0.881063 -0.0395501 0)
(-0.881063 -0.0395501 0)
(-0.881063 -0.0395501 0)
(-0.881063 -0.0395501 0)
(-0.881063 -0.0395501 0)
(-0.881063 -0.0395501 0)
(-0.881063 -0.0395501 0)
(-0.881063 -0.0395501 0)
(-0.881063 -0.0395501 0)
(-0.881063 -0.0395501 0)
(-0.881063 -0.0395501 0)
(-0.881063 -0.0395501 0)
(-0.881063 -0.0395501 0)
(-0.881063 -0.0395501 0)
(-0.881063 -0.0395501 0)
(-0.881063 -0.0395501 0)
(-0.881063 -0.0395501 0)
(-0.881063 -0.0395501 0)
(-0.881063 -0.0395501 0)
(-0.881063 -0.0395501 0)
(-0.881063 -0.0395501 0)
(-0.881063 -0.0395498 0)
(-0.881063 -0.0395414 0)
(-0.881064 -0.039197 0)
(-0.881076 -0.0225004 0)
)
;

boundaryField
{
    inandouthalf11
    {
        type            cyclic;
    }
    inandouthalf12
    {
        type            cyclic;
    }
    inandouthalf21
    {
        type            cyclic;
    }
    inandouthalf22
    {
        type            cyclic;
    }
    inandouthalf31
    {
        type            cyclic;
    }
    inandouthalf32
    {
        type            cyclic;
    }
    inandouthalf41
    {
        type            cyclic;
    }
    inandouthalf42
    {
        type            cyclic;
    }
    top
    {
        type            symmetryPlane;
    }
    walls
    {
        type            fixedValue;
        value           uniform (0 0 0);
    }
    frontAndBackPlanes
    {
        type            empty;
    }
}


// ************************************************************************* //
