/*--------------------------------*- C++ -*----------------------------------*\
| =========                 |                                                 |
| \\      /  F ield         | OpenFOAM: The Open Source CFD Toolbox           |
|  \\    /   O peration     | Version:  2.4.x                                 |
|   \\  /    A nd           | Web:      www.OpenFOAM.org                      |
|    \\/     M anipulation  |                                                 |
\*---------------------------------------------------------------------------*/
FoamFile
{
    version     2.0;
    format      ascii;
    class       volVectorField;
    location    "5.85";
    object      Ub;
}
// * * * * * * * * * * * * * * * * * * * * * * * * * * * * * * * * * * * * * //

dimensions      [0 1 -1 0 0 0 0];

internalField   nonuniform List<vector> 
360
(
(4.48681e-06 7.97479e-08 0)
(4.43682e-06 2.95567e-07 0)
(4.39804e-06 5.54737e-07 0)
(4.37032e-06 7.91998e-07 0)
(4.34194e-06 1.02275e-06 0)
(4.31127e-06 1.25818e-06 0)
(4.27968e-06 1.49824e-06 0)
(4.24774e-06 1.74042e-06 0)
(4.21547e-06 1.98353e-06 0)
(4.18286e-06 2.22757e-06 0)
(4.14985e-06 2.47297e-06 0)
(4.11635e-06 2.72004e-06 0)
(4.08237e-06 2.96884e-06 0)
(4.04791e-06 3.21928e-06 0)
(4.01298e-06 3.47125e-06 0)
(3.97758e-06 3.72474e-06 0)
(3.94171e-06 3.97978e-06 0)
(3.90534e-06 4.23639e-06 0)
(3.86848e-06 4.49456e-06 0)
(3.83112e-06 4.75433e-06 0)
(3.79324e-06 5.01562e-06 0)
(3.75487e-06 5.27839e-06 0)
(3.716e-06 5.54261e-06 0)
(3.67662e-06 5.80823e-06 0)
(3.63675e-06 6.07518e-06 0)
(3.59637e-06 6.34343e-06 0)
(3.55549e-06 6.61292e-06 0)
(3.5141e-06 6.88374e-06 0)
(3.47216e-06 7.156e-06 0)
(3.42964e-06 7.42988e-06 0)
(3.38649e-06 7.70561e-06 0)
(3.34266e-06 7.9836e-06 0)
(3.29805e-06 8.26413e-06 0)
(3.25262e-06 8.54766e-06 0)
(3.20629e-06 8.83434e-06 0)
(3.15909e-06 9.12413e-06 0)
(3.11104e-06 9.4166e-06 0)
(3.06228e-06 9.71093e-06 0)
(3.01303e-06 1.00059e-05 0)
(2.96356e-06 1.02994e-05 0)
(2.91428e-06 1.05897e-05 0)
(2.86548e-06 1.08748e-05 0)
(2.81743e-06 1.11531e-05 0)
(2.77026e-06 1.14244e-05 0)
(2.72375e-06 1.16896e-05 0)
(2.67746e-06 1.19514e-05 0)
(2.63056e-06 1.22146e-05 0)
(2.58176e-06 1.24859e-05 0)
(2.52931e-06 1.27753e-05 0)
(2.4707e-06 1.30962e-05 0)
(2.40265e-06 1.34653e-05 0)
(2.32139e-06 1.39018e-05 0)
(2.22334e-06 1.44218e-05 0)
(2.10766e-06 1.50257e-05 0)
(1.98015e-06 1.568e-05 0)
(1.85605e-06 1.6311e-05 0)
(1.75529e-06 1.68282e-05 0)
(1.69031e-06 1.71755e-05 0)
(1.6581e-06 1.73617e-05 0)
(1.64615e-06 1.74401e-05 0)
(1.64318e-06 1.74657e-05 0)
(1.64316e-06 1.74714e-05 0)
(1.64397e-06 1.74712e-05 0)
(1.64496e-06 1.74696e-05 0)
(1.64603e-06 1.74676e-05 0)
(1.64712e-06 1.74655e-05 0)
(1.64827e-06 1.74633e-05 0)
(1.64945e-06 1.7461e-05 0)
(1.65067e-06 1.74587e-05 0)
(1.65192e-06 1.74562e-05 0)
(1.65325e-06 1.74537e-05 0)
(1.65463e-06 1.74511e-05 0)
(1.65602e-06 1.74483e-05 0)
(1.65749e-06 1.74456e-05 0)
(1.65898e-06 1.74427e-05 0)
(1.66052e-06 1.74398e-05 0)
(1.66207e-06 1.74368e-05 0)
(1.66366e-06 1.74337e-05 0)
(1.66529e-06 1.74306e-05 0)
(1.66696e-06 1.74274e-05 0)
(1.66866e-06 1.74241e-05 0)
(1.67042e-06 1.74208e-05 0)
(1.67222e-06 1.74173e-05 0)
(1.67407e-06 1.74138e-05 0)
(1.67598e-06 1.74101e-05 0)
(1.67792e-06 1.74064e-05 0)
(1.67991e-06 1.74026e-05 0)
(1.68194e-06 1.73988e-05 0)
(1.68402e-06 1.73948e-05 0)
(1.68614e-06 1.73908e-05 0)
(1.6883e-06 1.73867e-05 0)
(1.69052e-06 1.73824e-05 0)
(1.69278e-06 1.73781e-05 0)
(1.6951e-06 1.73737e-05 0)
(1.69748e-06 1.73692e-05 0)
(1.69992e-06 1.73646e-05 0)
(1.70241e-06 1.73599e-05 0)
(1.70496e-06 1.7355e-05 0)
(1.70757e-06 1.73501e-05 0)
(1.71024e-06 1.7345e-05 0)
(1.71298e-06 1.73399e-05 0)
(1.71579e-06 1.73346e-05 0)
(1.71866e-06 1.73292e-05 0)
(1.72161e-06 1.73236e-05 0)
(1.72463e-06 1.73179e-05 0)
(1.72773e-06 1.73121e-05 0)
(1.73091e-06 1.73061e-05 0)
(1.73417e-06 1.73e-05 0)
(1.73752e-06 1.72937e-05 0)
(1.74097e-06 1.72873e-05 0)
(1.7445e-06 1.72807e-05 0)
(1.74814e-06 1.72739e-05 0)
(1.75188e-06 1.72669e-05 0)
(1.75573e-06 1.72597e-05 0)
(1.7597e-06 1.72523e-05 0)
(1.76378e-06 1.72447e-05 0)
(1.76799e-06 1.72369e-05 0)
(1.77232e-06 1.72289e-05 0)
(1.7768e-06 1.72206e-05 0)
(1.78142e-06 1.72121e-05 0)
(1.78618e-06 1.72033e-05 0)
(1.79111e-06 1.71942e-05 0)
(1.7962e-06 1.71848e-05 0)
(1.80146e-06 1.71751e-05 0)
(1.8069e-06 1.71652e-05 0)
(1.81254e-06 1.71548e-05 0)
(1.81838e-06 1.71441e-05 0)
(1.82445e-06 1.71331e-05 0)
(1.83076e-06 1.71216e-05 0)
(1.83733e-06 1.71096e-05 0)
(1.84418e-06 1.70972e-05 0)
(1.85131e-06 1.70843e-05 0)
(1.85877e-06 1.70707e-05 0)
(1.86664e-06 1.70564e-05 0)
(1.87501e-06 1.70414e-05 0)
(1.88388e-06 1.70256e-05 0)
(1.8932e-06 1.70088e-05 0)
(1.90311e-06 1.69905e-05 0)
(1.91412e-06 1.69703e-05 0)
(1.92677e-06 1.69488e-05 0)
(1.94048e-06 1.69269e-05 0)
(1.95357e-06 1.68997e-05 0)
(1.96925e-06 1.68697e-05 0)
(1.98966e-06 1.68342e-05 0)
(2.01503e-06 1.67712e-05 0)
(2.06089e-06 1.65912e-05 0)
(1.8979e-06 1.64054e-05 0)
(-0.000270003 1.33864e-05 0)
(-0.0615373 5.51002e-05 0)
(-0.162821 7.27844e-05 0)
(-0.23775 6.3833e-05 0)
(-0.296647 5.83414e-05 0)
(-0.344643 5.1112e-05 0)
(-0.384681 4.34087e-05 0)
(-0.418715 3.60517e-05 0)
(-0.448119 2.9456e-05 0)
(-0.473888 2.37643e-05 0)
(-0.496761 1.89697e-05 0)
(-0.517293 1.49917e-05 0)
(-0.535904 1.17219e-05 0)
(-0.552921 9.05e-06 0)
(-0.568599 6.8746e-06 0)
(-0.583138 5.10804e-06 0)
(-0.596701 3.67659e-06 0)
(-0.609417 2.51918e-06 0)
(-0.621394 1.58573e-06 0)
(-0.632719 8.35315e-07 0)
(-0.643467 2.34549e-07 0)
(-0.653699 -2.43785e-07 0)
(-0.663467 -6.2189e-07 0)
(-0.672817 -9.17893e-07 0)
(-0.681786 -1.14661e-06 0)
(-0.690407 -1.32016e-06 0)
(-0.69871 -1.44849e-06 0)
(-0.706719 -1.53973e-06 0)
(-0.714456 -1.60059e-06 0)
(-0.721941 -1.63656e-06 0)
(-0.72919 -1.65221e-06 0)
(-0.736219 -1.65128e-06 0)
(-0.743041 -1.63688e-06 0)
(-0.749669 -1.61159e-06 0)
(-0.756112 -1.57754e-06 0)
(-0.76238 -1.53653e-06 0)
(-0.768482 -1.49003e-06 0)
(-0.774425 -1.4393e-06 0)
(-0.780216 -1.38535e-06 0)
(-0.785862 -1.32901e-06 0)
(-0.791367 -1.27093e-06 0)
(-0.796737 -1.21157e-06 0)
(-0.801975 -1.15117e-06 0)
(-0.807086 -1.08983e-06 0)
(-0.812073 -1.02753e-06 0)
(-0.816938 -9.64232e-07 0)
(-0.821685 -8.99944e-07 0)
(-0.826315 -8.34833e-07 0)
(-0.830831 -7.69346e-07 0)
(-0.835233 -7.04297e-07 0)
(-0.839523 -6.4075e-07 0)
(-0.843702 -5.79666e-07 0)
(-0.847769 -5.21548e-07 0)
(-0.851726 -4.66454e-07 0)
(-0.855612 -4.13847e-07 0)
(-0.85946 -3.63483e-07 0)
(-0.863264 -3.15812e-07 0)
(-0.867018 -2.71524e-07 0)
(-0.870714 -2.31377e-07 0)
(-0.874344 -1.9573e-07 0)
(-0.877899 -1.64579e-07 0)
(-0.88137 -1.37783e-07 0)
(-0.884745 -1.15009e-07 0)
(-0.888014 -9.57863e-08 0)
(-0.891163 -7.96407e-08 0)
(-0.894181 -6.61337e-08 0)
(-0.897053 -5.48897e-08 0)
(-0.899766 -4.55437e-08 0)
(-0.902304 -3.77516e-08 0)
(-0.904656 -3.12724e-08 0)
(-0.906807 -2.58947e-08 0)
(-0.908746 -2.14068e-08 0)
(-0.910465 -1.76598e-08 0)
(-0.911956 -1.45467e-08 0)
(-0.913217 -1.19633e-08 0)
(-0.914247 -9.8112e-09 0)
(-0.915052 -8.02016e-09 0)
(-0.915636 -6.54003e-09 0)
(-0.916011 -5.31422e-09 0)
(-0.916185 -4.29624e-09 0)
(-0.91617 -3.45532e-09 0)
(-0.915979 -2.76215e-09 0)
(-0.915622 -2.19166e-09 0)
(-0.91511 -1.72423e-09 0)
(-0.914452 -1.34641e-09 0)
(-0.913658 -1.04227e-09 0)
(-0.912736 -7.90058e-10 0)
(-0.911693 -5.76534e-10 0)
(-0.910538 -4.98935e-10 0)
(-0.909277 -3.31118e-10 0)
(-0.907919 -8.4105e-11 0)
(-0.90647 -4.61618e-11 0)
(-0.904938 1.66649e-11 0)
(-0.903331 3.83583e-11 0)
(-0.901657 -1.23626e-11 0)
(-0.899924 -2.24117e-12 0)
(-0.898141 -1.68229e-13 0)
(-0.896319 5.37784e-14 0)
(-0.894469 -1.39036e-11 0)
(-0.892604 3.96172e-11 0)
(-0.890738 -9.01216e-11 0)
(-0.888891 1.60377e-10 0)
(-0.887087 -2.60066e-10 0)
(-0.885356 3.81625e-10 0)
(-0.883744 -5.31031e-10 0)
(-0.882322 6.97737e-10 0)
(-0.881289 -8.83741e-10 0)
(-0.880998 1.07705e-09 0)
(-0.88098 -1.28028e-09 0)
(-0.88098 1.48582e-09 0)
(-0.88098 -1.69927e-09 0)
(-0.880979 1.91533e-09 0)
(-0.880979 -2.13933e-09 0)
(-0.880979 2.3666e-09 0)
(-0.880979 -2.60187e-09 0)
(-0.880979 2.8411e-09 0)
(-0.880979 -3.08836e-09 0)
(-0.880979 3.34024e-09 0)
(-0.880979 -3.60022e-09 0)
(-0.880979 3.86539e-09 0)
(-0.880979 -4.13874e-09 0)
(-0.880979 4.4178e-09 0)
(-0.880979 -4.70513e-09 0)
(-0.880979 4.99864e-09 0)
(-0.880979 -5.30052e-09 0)
(-0.880979 5.609e-09 0)
(-0.880979 -5.92596e-09 0)
(-0.880979 6.24991e-09 0)
(-0.880979 -6.58244e-09 0)
(-0.880979 6.92232e-09 0)
(-0.880979 -7.27089e-09 0)
(-0.880979 7.62716e-09 0)
(-0.880979 -7.99221e-09 0)
(-0.880979 8.36528e-09 0)
(-0.880979 -8.74724e-09 0)
(-0.880979 9.13754e-09 0)
(-0.880979 -9.53681e-09 0)
(-0.880979 9.94472e-09 0)
(-0.880979 -1.03617e-08 0)
(-0.880979 1.07876e-08 0)
(-0.880979 -1.12227e-08 0)
(-0.880979 1.16669e-08 0)
(-0.880979 -1.21204e-08 0)
(-0.880979 1.25833e-08 0)
(-0.880979 -1.30556e-08 0)
(-0.880979 1.35375e-08 0)
(-0.880979 -1.4029e-08 0)
(-0.880979 1.45302e-08 0)
(-0.880979 -1.50411e-08 0)
(-0.880979 1.55618e-08 0)
(-0.880979 -1.60924e-08 0)
(-0.880979 1.6633e-08 0)
(-0.880979 -1.71835e-08 0)
(-0.880979 1.77443e-08 0)
(-0.880979 -1.83149e-08 0)
(-0.880979 1.8896e-08 0)
(-0.880979 -1.9487e-08 0)
(-0.880979 2.00884e-08 0)
(-0.880979 -2.06999e-08 0)
(-0.880979 2.13219e-08 0)
(-0.880979 -2.19539e-08 0)
(-0.880979 2.25965e-08 0)
(-0.880979 -2.32491e-08 0)
(-0.880979 2.09898e-08 0)
(-0.880979 -2.11769e-08 0)
(-0.880979 2.13622e-08 0)
(-0.880979 -2.15452e-08 0)
(-0.880979 2.17265e-08 0)
(-0.880979 -2.19054e-08 0)
(-0.880979 2.20825e-08 0)
(-0.880979 -2.22573e-08 0)
(-0.880979 2.24301e-08 0)
(-0.880979 -2.26006e-08 0)
(-0.880979 2.27692e-08 0)
(-0.880979 -2.29353e-08 0)
(-0.880979 2.30994e-08 0)
(-0.880979 -2.32611e-08 0)
(-0.880979 2.34206e-08 0)
(-0.880979 -2.35778e-08 0)
(-0.880979 2.37327e-08 0)
(-0.880979 -2.38851e-08 0)
(-0.880979 2.40352e-08 0)
(-0.880979 -2.41828e-08 0)
(-0.880979 2.43279e-08 0)
(-0.880979 -2.44706e-08 0)
(-0.880979 2.46106e-08 0)
(-0.880979 -2.47482e-08 0)
(-0.880979 2.48828e-08 0)
(-0.880979 -2.50153e-08 0)
(-0.880979 2.51443e-08 0)
(-0.880979 -2.52713e-08 0)
(-0.880979 2.53946e-08 0)
(-0.880979 -2.55158e-08 0)
(-0.880979 2.56331e-08 0)
(-0.880979 -2.57483e-08 0)
(-0.880979 2.58593e-08 0)
(-0.880979 -2.59682e-08 0)
(-0.880979 2.60725e-08 0)
(-0.880979 -2.61747e-08 0)
(-0.880979 2.62719e-08 0)
(-0.880979 -2.6367e-08 0)
(-0.880979 2.64566e-08 0)
(-0.880979 -2.65438e-08 0)
(-0.880979 2.66252e-08 0)
(-0.880979 -2.67037e-08 0)
(-0.880979 2.67761e-08 0)
(-0.880979 -2.68448e-08 0)
(-0.880979 2.69069e-08 0)
(-0.880979 -2.6964e-08 0)
(-0.880979 2.70142e-08 0)
(-0.880979 -2.70564e-08 0)
(-0.880979 2.7091e-08 0)
(-0.880979 -2.7111e-08 0)
)
;

boundaryField
{
    inandouthalf11
    {
        type            cyclic;
    }
    inandouthalf12
    {
        type            cyclic;
    }
    inandouthalf21
    {
        type            cyclic;
    }
    inandouthalf22
    {
        type            cyclic;
    }
    inandouthalf31
    {
        type            cyclic;
    }
    inandouthalf32
    {
        type            cyclic;
    }
    inandouthalf41
    {
        type            cyclic;
    }
    inandouthalf42
    {
        type            cyclic;
    }
    top
    {
        type            symmetryPlane;
    }
    walls
    {
        type            fixedValue;
        value           uniform (0 0 0);
    }
    frontAndBackPlanes
    {
        type            empty;
    }
}


// ************************************************************************* //
