/*--------------------------------*- C++ -*----------------------------------*\
| =========                 |                                                 |
| \\      /  F ield         | OpenFOAM: The Open Source CFD Toolbox           |
|  \\    /   O peration     | Version:  2.4.x                                 |
|   \\  /    A nd           | Web:      www.OpenFOAM.org                      |
|    \\/     M anipulation  |                                                 |
\*---------------------------------------------------------------------------*/
FoamFile
{
    version     2.0;
    format      ascii;
    class       volVectorField;
    location    "5.85";
    object      Ub_0;
}
// * * * * * * * * * * * * * * * * * * * * * * * * * * * * * * * * * * * * * //

dimensions      [0 1 -1 0 0 0 0];

internalField   nonuniform List<vector> 
360
(
(4.47938e-06 7.97531e-08 0)
(4.42941e-06 2.95588e-07 0)
(4.39063e-06 5.54778e-07 0)
(4.36291e-06 7.92058e-07 0)
(4.33453e-06 1.02283e-06 0)
(4.30385e-06 1.25828e-06 0)
(4.27226e-06 1.49835e-06 0)
(4.24031e-06 1.74055e-06 0)
(4.20803e-06 1.98368e-06 0)
(4.17542e-06 2.22773e-06 0)
(4.1424e-06 2.47316e-06 0)
(4.1089e-06 2.72025e-06 0)
(4.07492e-06 2.96906e-06 0)
(4.04045e-06 3.21952e-06 0)
(4.00551e-06 3.47151e-06 0)
(3.97011e-06 3.72502e-06 0)
(3.93423e-06 3.98007e-06 0)
(3.89786e-06 4.2367e-06 0)
(3.86099e-06 4.4949e-06 0)
(3.82363e-06 4.75469e-06 0)
(3.78574e-06 5.016e-06 0)
(3.74737e-06 5.27879e-06 0)
(3.70849e-06 5.54303e-06 0)
(3.66911e-06 5.80866e-06 0)
(3.62923e-06 6.07564e-06 0)
(3.58885e-06 6.3439e-06 0)
(3.54796e-06 6.61341e-06 0)
(3.50656e-06 6.88425e-06 0)
(3.46462e-06 7.15653e-06 0)
(3.42209e-06 7.43043e-06 0)
(3.37894e-06 7.70618e-06 0)
(3.3351e-06 7.9842e-06 0)
(3.29048e-06 8.26476e-06 0)
(3.24505e-06 8.54831e-06 0)
(3.19871e-06 8.83501e-06 0)
(3.1515e-06 9.12482e-06 0)
(3.10344e-06 9.41732e-06 0)
(3.05468e-06 9.71167e-06 0)
(3.00543e-06 1.00066e-05 0)
(2.95595e-06 1.03002e-05 0)
(2.90667e-06 1.05905e-05 0)
(2.85787e-06 1.08756e-05 0)
(2.80981e-06 1.11539e-05 0)
(2.76264e-06 1.14252e-05 0)
(2.71612e-06 1.16904e-05 0)
(2.66983e-06 1.19522e-05 0)
(2.62292e-06 1.22154e-05 0)
(2.57411e-06 1.24868e-05 0)
(2.52164e-06 1.27763e-05 0)
(2.463e-06 1.30973e-05 0)
(2.3949e-06 1.34666e-05 0)
(2.3136e-06 1.39034e-05 0)
(2.21548e-06 1.44237e-05 0)
(2.09974e-06 1.50278e-05 0)
(1.9722e-06 1.56822e-05 0)
(1.84815e-06 1.6313e-05 0)
(1.74749e-06 1.68297e-05 0)
(1.68264e-06 1.71764e-05 0)
(1.65052e-06 1.73621e-05 0)
(1.63862e-06 1.74403e-05 0)
(1.63567e-06 1.74657e-05 0)
(1.63564e-06 1.74714e-05 0)
(1.63645e-06 1.74713e-05 0)
(1.63745e-06 1.74696e-05 0)
(1.63851e-06 1.74676e-05 0)
(1.6396e-06 1.74655e-05 0)
(1.64074e-06 1.74633e-05 0)
(1.64192e-06 1.7461e-05 0)
(1.64314e-06 1.74587e-05 0)
(1.64439e-06 1.74562e-05 0)
(1.64572e-06 1.74537e-05 0)
(1.6471e-06 1.74511e-05 0)
(1.64849e-06 1.74483e-05 0)
(1.64995e-06 1.74456e-05 0)
(1.65144e-06 1.74427e-05 0)
(1.65297e-06 1.74398e-05 0)
(1.65452e-06 1.74368e-05 0)
(1.65611e-06 1.74337e-05 0)
(1.65774e-06 1.74306e-05 0)
(1.6594e-06 1.74274e-05 0)
(1.66111e-06 1.74241e-05 0)
(1.66286e-06 1.74208e-05 0)
(1.66466e-06 1.74173e-05 0)
(1.66651e-06 1.74138e-05 0)
(1.66841e-06 1.74101e-05 0)
(1.67035e-06 1.74064e-05 0)
(1.67234e-06 1.74026e-05 0)
(1.67436e-06 1.73988e-05 0)
(1.67643e-06 1.73948e-05 0)
(1.67855e-06 1.73908e-05 0)
(1.68071e-06 1.73867e-05 0)
(1.68292e-06 1.73824e-05 0)
(1.68519e-06 1.73781e-05 0)
(1.6875e-06 1.73737e-05 0)
(1.68988e-06 1.73692e-05 0)
(1.69231e-06 1.73646e-05 0)
(1.6948e-06 1.73599e-05 0)
(1.69734e-06 1.7355e-05 0)
(1.69995e-06 1.73501e-05 0)
(1.70262e-06 1.7345e-05 0)
(1.70535e-06 1.73399e-05 0)
(1.70815e-06 1.73346e-05 0)
(1.71102e-06 1.73292e-05 0)
(1.71396e-06 1.73236e-05 0)
(1.71698e-06 1.73179e-05 0)
(1.72008e-06 1.73121e-05 0)
(1.72325e-06 1.73061e-05 0)
(1.72651e-06 1.73e-05 0)
(1.72985e-06 1.72937e-05 0)
(1.73329e-06 1.72873e-05 0)
(1.73682e-06 1.72807e-05 0)
(1.74045e-06 1.72739e-05 0)
(1.74419e-06 1.72669e-05 0)
(1.74803e-06 1.72597e-05 0)
(1.75199e-06 1.72523e-05 0)
(1.75607e-06 1.72447e-05 0)
(1.76027e-06 1.72369e-05 0)
(1.7646e-06 1.72289e-05 0)
(1.76906e-06 1.72206e-05 0)
(1.77367e-06 1.72121e-05 0)
(1.77843e-06 1.72033e-05 0)
(1.78335e-06 1.71942e-05 0)
(1.78843e-06 1.71848e-05 0)
(1.79368e-06 1.71751e-05 0)
(1.79912e-06 1.71652e-05 0)
(1.80474e-06 1.71548e-05 0)
(1.81058e-06 1.71441e-05 0)
(1.81663e-06 1.71331e-05 0)
(1.82293e-06 1.71216e-05 0)
(1.82949e-06 1.71096e-05 0)
(1.83633e-06 1.70972e-05 0)
(1.84345e-06 1.70843e-05 0)
(1.8509e-06 1.70707e-05 0)
(1.85876e-06 1.70564e-05 0)
(1.86711e-06 1.70414e-05 0)
(1.87597e-06 1.70256e-05 0)
(1.88527e-06 1.70088e-05 0)
(1.89517e-06 1.69905e-05 0)
(1.90615e-06 1.69703e-05 0)
(1.91878e-06 1.69488e-05 0)
(1.93247e-06 1.69269e-05 0)
(1.94554e-06 1.68997e-05 0)
(1.9612e-06 1.68697e-05 0)
(1.98157e-06 1.68342e-05 0)
(2.0069e-06 1.67712e-05 0)
(2.05268e-06 1.65912e-05 0)
(1.88934e-06 1.64052e-05 0)
(-0.000270094 1.3388e-05 0)
(-0.0615478 5.51059e-05 0)
(-0.162831 7.27662e-05 0)
(-0.23776 6.38162e-05 0)
(-0.296657 5.8324e-05 0)
(-0.344653 5.10962e-05 0)
(-0.384692 4.33948e-05 0)
(-0.418727 3.60397e-05 0)
(-0.448131 2.94458e-05 0)
(-0.473901 2.37556e-05 0)
(-0.496775 1.89623e-05 0)
(-0.517307 1.49853e-05 0)
(-0.535919 1.17165e-05 0)
(-0.552936 9.04532e-06 0)
(-0.568614 6.87056e-06 0)
(-0.583154 5.10454e-06 0)
(-0.596717 3.67353e-06 0)
(-0.609434 2.51651e-06 0)
(-0.621411 1.58339e-06 0)
(-0.632737 8.33262e-07 0)
(-0.643485 2.3274e-07 0)
(-0.653717 -2.45385e-07 0)
(-0.663486 -6.2331e-07 0)
(-0.672836 -9.19157e-07 0)
(-0.681805 -1.14774e-06 0)
(-0.690427 -1.32118e-06 0)
(-0.698729 -1.4494e-06 0)
(-0.706739 -1.54055e-06 0)
(-0.714476 -1.60133e-06 0)
(-0.721961 -1.63724e-06 0)
(-0.729211 -1.65283e-06 0)
(-0.73624 -1.65184e-06 0)
(-0.743063 -1.63739e-06 0)
(-0.74969 -1.61205e-06 0)
(-0.756133 -1.57796e-06 0)
(-0.762402 -1.53691e-06 0)
(-0.768504 -1.49037e-06 0)
(-0.774447 -1.4396e-06 0)
(-0.780239 -1.38562e-06 0)
(-0.785884 -1.32925e-06 0)
(-0.79139 -1.27115e-06 0)
(-0.796759 -1.21175e-06 0)
(-0.801998 -1.15133e-06 0)
(-0.807109 -1.08996e-06 0)
(-0.812096 -1.02764e-06 0)
(-0.816961 -9.64309e-07 0)
(-0.821708 -8.99995e-07 0)
(-0.826339 -8.34859e-07 0)
(-0.830854 -7.69348e-07 0)
(-0.835256 -7.0428e-07 0)
(-0.839546 -6.40716e-07 0)
(-0.843725 -5.79619e-07 0)
(-0.847793 -5.21492e-07 0)
(-0.85175 -4.66391e-07 0)
(-0.855635 -4.13779e-07 0)
(-0.859483 -3.63412e-07 0)
(-0.863287 -3.15741e-07 0)
(-0.867041 -2.71456e-07 0)
(-0.870736 -2.31313e-07 0)
(-0.874366 -1.95672e-07 0)
(-0.877921 -1.64528e-07 0)
(-0.881391 -1.37739e-07 0)
(-0.884766 -1.14973e-07 0)
(-0.888034 -9.57555e-08 0)
(-0.891184 -7.96151e-08 0)
(-0.894201 -6.61125e-08 0)
(-0.897072 -5.48723e-08 0)
(-0.899784 -4.55294e-08 0)
(-0.902322 -3.77399e-08 0)
(-0.904673 -3.12629e-08 0)
(-0.906823 -2.5887e-08 0)
(-0.908762 -2.14004e-08 0)
(-0.910479 -1.76546e-08 0)
(-0.91197 -1.45424e-08 0)
(-0.91323 -1.19599e-08 0)
(-0.91426 -9.8084e-09 0)
(-0.915063 -8.01789e-09 0)
(-0.915647 -6.5382e-09 0)
(-0.91602 -5.31274e-09 0)
(-0.916194 -4.29505e-09 0)
(-0.916179 -3.45436e-09 0)
(-0.915987 -2.76138e-09 0)
(-0.915629 -2.19105e-09 0)
(-0.915117 -1.72375e-09 0)
(-0.914458 -1.34603e-09 0)
(-0.913664 -1.04198e-09 0)
(-0.912741 -7.89826e-10 0)
(-0.911698 -5.76374e-10 0)
(-0.910543 -4.98792e-10 0)
(-0.909282 -3.31004e-10 0)
(-0.907923 -8.40821e-11 0)
(-0.906474 -4.6142e-11 0)
(-0.904942 1.66512e-11 0)
(-0.903335 3.83372e-11 0)
(-0.90166 -1.23532e-11 0)
(-0.899927 -2.25147e-12 0)
(-0.898144 -1.72948e-13 0)
(-0.896322 4.94079e-14 0)
(-0.894472 -1.38992e-11 0)
(-0.892606 3.95944e-11 0)
(-0.890741 -9.00996e-11 0)
(-0.888894 1.60353e-10 0)
(-0.887089 -2.60065e-10 0)
(-0.885358 3.81646e-10 0)
(-0.883746 -5.31093e-10 0)
(-0.882324 6.97833e-10 0)
(-0.881293 -8.83881e-10 0)
(-0.881002 1.07723e-09 0)
(-0.880984 -1.28048e-09 0)
(-0.880984 1.48605e-09 0)
(-0.880984 -1.69954e-09 0)
(-0.880983 1.91561e-09 0)
(-0.880983 -2.13963e-09 0)
(-0.880983 2.36692e-09 0)
(-0.880983 -2.6022e-09 0)
(-0.880983 2.84145e-09 0)
(-0.880983 -3.08873e-09 0)
(-0.880983 3.34062e-09 0)
(-0.880983 -3.60062e-09 0)
(-0.880983 3.8658e-09 0)
(-0.880983 -4.13917e-09 0)
(-0.880983 4.41825e-09 0)
(-0.880983 -4.7056e-09 0)
(-0.880983 4.99913e-09 0)
(-0.880983 -5.30103e-09 0)
(-0.880983 5.60954e-09 0)
(-0.880983 -5.92652e-09 0)
(-0.880983 6.25048e-09 0)
(-0.880983 -6.58304e-09 0)
(-0.880983 6.92294e-09 0)
(-0.880983 -7.27153e-09 0)
(-0.880983 7.62783e-09 0)
(-0.880983 -7.9929e-09 0)
(-0.880983 8.366e-09 0)
(-0.880983 -8.74798e-09 0)
(-0.880983 9.1383e-09 0)
(-0.880983 -9.53761e-09 0)
(-0.880983 9.94554e-09 0)
(-0.880983 -1.03626e-08 0)
(-0.880983 1.07885e-08 0)
(-0.880983 -1.12236e-08 0)
(-0.880983 1.16678e-08 0)
(-0.880983 -1.21214e-08 0)
(-0.880983 1.25843e-08 0)
(-0.880983 -1.30567e-08 0)
(-0.880983 1.35386e-08 0)
(-0.880983 -1.40301e-08 0)
(-0.880983 1.45313e-08 0)
(-0.880983 -1.50422e-08 0)
(-0.880983 1.5563e-08 0)
(-0.880983 -1.60936e-08 0)
(-0.880983 1.66343e-08 0)
(-0.880983 -1.71848e-08 0)
(-0.880983 1.77456e-08 0)
(-0.880983 -1.83163e-08 0)
(-0.880983 1.88974e-08 0)
(-0.880983 -1.94884e-08 0)
(-0.880983 2.00899e-08 0)
(-0.880983 -2.07015e-08 0)
(-0.880983 2.13235e-08 0)
(-0.880983 -2.19556e-08 0)
(-0.880983 2.25982e-08 0)
(-0.880983 -2.32508e-08 0)
(-0.880983 2.09914e-08 0)
(-0.880983 -2.11785e-08 0)
(-0.880983 2.13638e-08 0)
(-0.880983 -2.15468e-08 0)
(-0.880983 2.17281e-08 0)
(-0.880983 -2.1907e-08 0)
(-0.880983 2.20841e-08 0)
(-0.880983 -2.22589e-08 0)
(-0.880983 2.24317e-08 0)
(-0.880983 -2.26022e-08 0)
(-0.880983 2.27708e-08 0)
(-0.880983 -2.29369e-08 0)
(-0.880983 2.31011e-08 0)
(-0.880983 -2.32627e-08 0)
(-0.880983 2.34223e-08 0)
(-0.880983 -2.35794e-08 0)
(-0.880983 2.37344e-08 0)
(-0.880983 -2.38867e-08 0)
(-0.880983 2.40369e-08 0)
(-0.880983 -2.41844e-08 0)
(-0.880983 2.43297e-08 0)
(-0.880983 -2.44722e-08 0)
(-0.880983 2.46125e-08 0)
(-0.880983 -2.47497e-08 0)
(-0.880983 2.48849e-08 0)
(-0.880983 -2.50166e-08 0)
(-0.880983 2.51465e-08 0)
(-0.880983 -2.52726e-08 0)
(-0.880983 2.53968e-08 0)
(-0.880983 -2.5517e-08 0)
(-0.880983 2.56354e-08 0)
(-0.880983 -2.57495e-08 0)
(-0.880983 2.58617e-08 0)
(-0.880983 -2.59693e-08 0)
(-0.880983 2.6075e-08 0)
(-0.880983 -2.61757e-08 0)
(-0.880983 2.62745e-08 0)
(-0.880983 -2.63679e-08 0)
(-0.880983 2.64592e-08 0)
(-0.880983 -2.65447e-08 0)
(-0.880983 2.66278e-08 0)
(-0.880983 -2.67047e-08 0)
(-0.880983 2.67786e-08 0)
(-0.880983 -2.68459e-08 0)
(-0.880983 2.69093e-08 0)
(-0.880983 -2.69656e-08 0)
(-0.880983 2.70159e-08 0)
(-0.880983 -2.70588e-08 0)
(-0.880983 2.70909e-08 0)
(-0.880983 -2.71142e-08 0)
)
;

boundaryField
{
    inandouthalf11
    {
        type            cyclic;
    }
    inandouthalf12
    {
        type            cyclic;
    }
    inandouthalf21
    {
        type            cyclic;
    }
    inandouthalf22
    {
        type            cyclic;
    }
    inandouthalf31
    {
        type            cyclic;
    }
    inandouthalf32
    {
        type            cyclic;
    }
    inandouthalf41
    {
        type            cyclic;
    }
    inandouthalf42
    {
        type            cyclic;
    }
    top
    {
        type            symmetryPlane;
    }
    walls
    {
        type            fixedValue;
        value           uniform (0 0 0);
    }
    frontAndBackPlanes
    {
        type            empty;
    }
}


// ************************************************************************* //
