/*--------------------------------*- C++ -*----------------------------------*\
| =========                 |                                                 |
| \\      /  F ield         | OpenFOAM: The Open Source CFD Toolbox           |
|  \\    /   O peration     | Version:  2.4.x                                 |
|   \\  /    A nd           | Web:      www.OpenFOAM.org                      |
|    \\/     M anipulation  |                                                 |
\*---------------------------------------------------------------------------*/
FoamFile
{
    version     2.0;
    format      ascii;
    class       volScalarField;
    location    "7.2";
    object      alpha;
}
// * * * * * * * * * * * * * * * * * * * * * * * * * * * * * * * * * * * * * //

dimensions      [0 0 0 0 0 0 0];

internalField   nonuniform List<scalar> 
360
(
0.610781
0.61159
0.611693
0.61161
0.611564
0.611547
0.611529
0.611507
0.611484
0.611461
0.611437
0.611414
0.61139
0.611367
0.611343
0.611318
0.611294
0.611269
0.611244
0.611219
0.611193
0.611168
0.611142
0.611115
0.611089
0.611062
0.611035
0.611008
0.610981
0.610953
0.610925
0.610897
0.610868
0.610839
0.61081
0.610781
0.610751
0.610721
0.610691
0.610661
0.610629
0.610598
0.610567
0.610535
0.610502
0.61047
0.610437
0.610404
0.61037
0.610336
0.610301
0.610267
0.610231
0.610196
0.61016
0.610123
0.610086
0.610049
0.610011
0.609973
0.609934
0.609895
0.609855
0.609815
0.609774
0.609733
0.609691
0.609649
0.609606
0.609563
0.609519
0.609474
0.609429
0.609383
0.609337
0.609289
0.609242
0.609193
0.609144
0.609094
0.609044
0.608993
0.608941
0.608887
0.608833
0.608779
0.608723
0.608666
0.608608
0.60855
0.60849
0.608429
0.608367
0.608304
0.608239
0.608173
0.608106
0.608037
0.607967
0.607895
0.607822
0.607747
0.607671
0.607593
0.607513
0.607431
0.607347
0.607261
0.607172
0.607082
0.606989
0.606894
0.606797
0.606696
0.606593
0.606487
0.606378
0.606266
0.60615
0.606031
0.605909
0.605782
0.605651
0.605517
0.605377
0.605233
0.605084
0.60493
0.604769
0.604602
0.604428
0.604247
0.604059
0.60386
0.603649
0.603425
0.603191
0.602942
0.602666
0.602349
0.602008
0.601682
0.601291
0.600784
0.600151
0.598947
0.595677
0.594764
0.592921
0.587781
0.150737
0.0428509
0.0204541
0.0124076
0.00860111
0.00647317
0.00511766
0.00418025
0.0034954
0.00297349
0.00256274
0.00223135
0.00195865
0.00173065
0.00153753
0.00137219
0.00122935
0.00110501
0.000996091
0.00090015
0.000815247
0.000739813
0.000672561
0.000612426
0.000558515
0.000510075
0.000466465
0.000427134
0.000391603
0.000359458
0.000330335
0.000303915
0.000279915
0.000258087
0.000238207
0.000220079
0.000203526
0.000188392
0.000174536
0.000161831
0.000150165
0.000139436
0.000129552
0.000120432
0.000112
0.000104191
9.69444e-05
9.02092e-05
8.39382e-05
7.80892e-05
7.26233e-05
6.74543e-05
6.25148e-05
5.77878e-05
5.3256e-05
4.89027e-05
4.47183e-05
4.06969e-05
3.68358e-05
3.31393e-05
2.96157e-05
2.6279e-05
2.315e-05
2.02422e-05
1.75654e-05
1.51344e-05
1.29534e-05
1.10172e-05
9.31637e-06
7.83883e-06
6.56817e-06
5.47881e-06
4.55126e-06
3.76767e-06
3.10719e-06
2.55215e-06
2.089e-06
1.70232e-06
1.3832e-06
1.11588e-06
8.99646e-07
7.15908e-07
5.73863e-07
4.41455e-07
3.56211e-07
2.85684e-07
2.41154e-07
1.86261e-07
1.03755e-07
6.99757e-08
2.9059e-08
1.96082e-08
1.43415e-09
2.53325e-20
2.71387e-31
3.30874e-35
2.71111e-35
2.12156e-35
1.39879e-35
6.21689e-36
2.71289e-36
1.42899e-36
8.54321e-37
5.65736e-37
3.95849e-37
2.48575e-37
1.12051e-37
5.28572e-38
2.81724e-38
1.60209e-38
9.42119e-39
4.92142e-39
2.35301e-39
1.2007e-39
6.18134e-40
3.09707e-40
1.53289e-40
7.47503e-41
3.58231e-41
1.68623e-41
7.79145e-42
3.53179e-42
1.56951e-42
6.83318e-43
2.91243e-43
1.2143e-43
4.94853e-44
1.96939e-44
7.64698e-45
2.89416e-45
1.06654e-45
3.82259e-46
1.33091e-46
4.49554e-47
1.47114e-47
4.65705e-48
1.42377e-48
4.1963e-49
1.19001e-49
3.24012e-50
8.45051e-51
2.10565e-51
4.99822e-52
1.12659e-52
2.40243e-53
4.82693e-54
9.09425e-55
1.5979e-55
2.60152e-56
3.89477e-57
5.31269e-58
6.52837e-59
7.12444e-60
6.77781e-61
5.48164e-62
3.63584e-63
1.87049e-64
6.76331e-66
1.37351e-67
4.62621e-70
1.72613e-74
1.60145e-76
7.36971e-79
2.48817e-89
4.18817e-100
5.04158e-111
4.36706e-122
3.21155e-133
1.7938e-144
8.61898e-156
8.52588e-166
3.53514e-176
2.84328e-184
1.05204e-194
9.77992e-203
4.21457e-213
3.36488e-221
1.77613e-231
1.15875e-239
1.11853e-249
4.04681e-258
7.29558e-268
1.4419e-276
3.58592e-286
5.23443e-295
1.69655e-304
1.93034e-313
3.94264e-321
4.57737e-319
2.8055e-319
6.80328e-321
7.09478e-321
6.08689e-321
8.5424e-321
0
0
0
0
0
0
0
0
0
0
0
0
0
0
0
0
)
;

boundaryField
{
    inandouthalf11
    {
        type            cyclic;
    }
    inandouthalf12
    {
        type            cyclic;
    }
    inandouthalf21
    {
        type            cyclic;
    }
    inandouthalf22
    {
        type            cyclic;
    }
    inandouthalf31
    {
        type            cyclic;
    }
    inandouthalf32
    {
        type            cyclic;
    }
    inandouthalf41
    {
        type            cyclic;
    }
    inandouthalf42
    {
        type            cyclic;
    }
    top
    {
        type            symmetryPlane;
    }
    walls
    {
        type            zeroGradient;
    }
    frontAndBackPlanes
    {
        type            empty;
    }
}


// ************************************************************************* //
