/*--------------------------------*- C++ -*----------------------------------*\
| =========                 |                                                 |
| \\      /  F ield         | OpenFOAM: The Open Source CFD Toolbox           |
|  \\    /   O peration     | Version:  2.4.x                                 |
|   \\  /    A nd           | Web:      www.OpenFOAM.org                      |
|    \\/     M anipulation  |                                                 |
\*---------------------------------------------------------------------------*/
FoamFile
{
    version     2.0;
    format      ascii;
    class       volScalarField;
    location    "7.2";
    object      alpha_0;
}
// * * * * * * * * * * * * * * * * * * * * * * * * * * * * * * * * * * * * * //

dimensions      [0 0 0 0 0 0 0];

internalField   nonuniform List<scalar> 
360
(
0.610781
0.61159
0.611693
0.61161
0.611564
0.611547
0.611529
0.611507
0.611484
0.611461
0.611437
0.611414
0.61139
0.611367
0.611342
0.611318
0.611294
0.611269
0.611244
0.611219
0.611193
0.611168
0.611142
0.611115
0.611089
0.611062
0.611035
0.611008
0.610981
0.610953
0.610925
0.610897
0.610868
0.610839
0.61081
0.610781
0.610751
0.610721
0.610691
0.610661
0.610629
0.610598
0.610567
0.610535
0.610502
0.61047
0.610437
0.610404
0.61037
0.610336
0.610301
0.610266
0.610231
0.610196
0.61016
0.610123
0.610086
0.610049
0.610011
0.609973
0.609934
0.609895
0.609855
0.609815
0.609774
0.609733
0.609691
0.609649
0.609606
0.609563
0.609519
0.609474
0.609429
0.609383
0.609337
0.609289
0.609242
0.609193
0.609144
0.609094
0.609044
0.608993
0.60894
0.608887
0.608833
0.608779
0.608723
0.608666
0.608608
0.60855
0.60849
0.608429
0.608367
0.608304
0.608239
0.608173
0.608106
0.608037
0.607967
0.607895
0.607822
0.607747
0.607671
0.607593
0.607513
0.607431
0.607347
0.607261
0.607172
0.607082
0.606989
0.606894
0.606797
0.606696
0.606593
0.606487
0.606378
0.606266
0.60615
0.606031
0.605909
0.605782
0.605651
0.605517
0.605377
0.605233
0.605084
0.60493
0.604769
0.604602
0.604428
0.604247
0.604059
0.60386
0.603649
0.603425
0.603191
0.602942
0.602666
0.602349
0.602008
0.601682
0.601291
0.600784
0.600151
0.598947
0.595677
0.594764
0.592921
0.587776
0.150713
0.0428528
0.020457
0.0124103
0.00860383
0.00647572
0.00511992
0.00418222
0.00349711
0.00297498
0.00256403
0.00223247
0.00195963
0.0017315
0.00153828
0.00137284
0.00122992
0.00110552
0.000996539
0.000900545
0.000815598
0.000740124
0.000672838
0.000612672
0.000558735
0.000510272
0.000466642
0.000427292
0.000391745
0.000359586
0.000330451
0.00030402
0.000280011
0.000258173
0.000238286
0.000220151
0.000203592
0.000188452
0.000174591
0.000161881
0.000150211
0.000139478
0.000129591
0.000120467
0.000112033
0.000104221
9.69724e-05
9.02349e-05
8.3962e-05
7.81111e-05
7.26435e-05
6.74729e-05
6.25319e-05
5.78035e-05
5.32705e-05
4.89159e-05
4.47303e-05
4.07078e-05
3.68457e-05
3.31482e-05
2.96237e-05
2.6286e-05
2.31562e-05
2.02476e-05
1.757e-05
1.51383e-05
1.29566e-05
1.102e-05
9.31861e-06
7.84066e-06
6.56966e-06
5.48002e-06
4.55223e-06
3.76845e-06
3.10782e-06
2.55265e-06
2.0894e-06
1.70264e-06
1.38345e-06
1.11608e-06
8.99803e-07
7.1603e-07
5.73962e-07
4.41529e-07
3.56262e-07
2.8572e-07
2.41241e-07
1.86309e-07
1.03779e-07
6.99798e-08
2.90602e-08
1.96065e-08
1.43206e-09
2.52826e-20
2.70695e-31
3.31415e-35
2.71464e-35
2.12537e-35
1.40331e-35
6.24887e-36
2.72376e-36
1.4336e-36
8.56575e-37
5.6692e-37
3.9665e-37
2.49328e-37
1.12505e-37
5.30336e-38
2.82565e-38
1.60638e-38
9.44608e-39
4.93764e-39
2.36039e-39
1.20435e-39
6.19982e-40
3.10652e-40
1.53756e-40
7.49784e-41
3.59326e-41
1.6914e-41
7.81536e-42
3.54265e-42
1.57434e-42
6.85427e-43
2.92144e-43
1.21806e-43
4.9639e-44
1.97552e-44
7.67082e-45
2.9032e-45
1.06987e-45
3.83458e-46
1.33509e-46
4.5097e-47
1.47579e-47
4.67178e-48
1.42828e-48
4.20963e-49
1.19379e-49
3.25046e-50
8.47754e-51
2.1124e-51
5.01428e-52
1.13022e-52
2.41018e-53
4.84256e-54
9.12375e-55
1.6031e-55
2.61e-56
3.90751e-57
5.33012e-58
6.54984e-59
7.14793e-60
6.80023e-61
5.49983e-62
3.64795e-63
1.87674e-64
6.78602e-66
1.37815e-67
4.64211e-70
1.73248e-74
1.6074e-76
7.39724e-79
2.49746e-89
4.20377e-100
5.0603e-111
4.38324e-122
3.2234e-133
1.80039e-144
8.65052e-156
8.5577e-166
3.54829e-176
2.8539e-184
1.05595e-194
9.81646e-203
4.23024e-213
3.37745e-221
1.78273e-231
1.16308e-239
1.12268e-249
4.06192e-258
7.32268e-268
1.44728e-276
3.59924e-286
5.25397e-295
1.70285e-304
1.93753e-313
3.94264e-321
4.57737e-319
2.8055e-319
6.80328e-321
7.09478e-321
6.08689e-321
8.5424e-321
0
0
0
0
0
0
0
0
0
0
0
0
0
0
0
0
)
;

boundaryField
{
    inandouthalf11
    {
        type            cyclic;
    }
    inandouthalf12
    {
        type            cyclic;
    }
    inandouthalf21
    {
        type            cyclic;
    }
    inandouthalf22
    {
        type            cyclic;
    }
    inandouthalf31
    {
        type            cyclic;
    }
    inandouthalf32
    {
        type            cyclic;
    }
    inandouthalf41
    {
        type            cyclic;
    }
    inandouthalf42
    {
        type            cyclic;
    }
    top
    {
        type            symmetryPlane;
    }
    walls
    {
        type            zeroGradient;
    }
    frontAndBackPlanes
    {
        type            empty;
    }
}


// ************************************************************************* //
