/*--------------------------------*- C++ -*----------------------------------*\
| =========                 |                                                 |
| \\      /  F ield         | OpenFOAM: The Open Source CFD Toolbox           |
|  \\    /   O peration     | Version:  2.4.x                                 |
|   \\  /    A nd           | Web:      www.OpenFOAM.org                      |
|    \\/     M anipulation  |                                                 |
\*---------------------------------------------------------------------------*/
FoamFile
{
    version     2.0;
    format      ascii;
    class       volVectorField;
    location    "7.2";
    object      ddt0(Ua);
}
// * * * * * * * * * * * * * * * * * * * * * * * * * * * * * * * * * * * * * //

dimensions      [0 1 -2 0 0 0 0];

internalField   nonuniform List<vector> 
360
(
(1.70837e-32 -3.89367e-33 0)
(2.69666e-08 4.66858e-08 0)
(5.60249e-08 8.67964e-08 0)
(8.15087e-08 1.20852e-07 0)
(1.06983e-07 1.55796e-07 0)
(1.33434e-07 1.92779e-07 0)
(1.60375e-07 2.31015e-07 0)
(1.87503e-07 2.70096e-07 0)
(2.14807e-07 3.09978e-07 0)
(2.42344e-07 3.50734e-07 0)
(2.70172e-07 3.92463e-07 0)
(2.98322e-07 4.35205e-07 0)
(3.26804e-07 4.78938e-07 0)
(3.5562e-07 5.23615e-07 0)
(3.84776e-07 5.69184e-07 0)
(4.14284e-07 6.15615e-07 0)
(4.44161e-07 6.6289e-07 0)
(4.74422e-07 7.10988e-07 0)
(5.05079e-07 7.59886e-07 0)
(5.36145e-07 8.0957e-07 0)
(5.6763e-07 8.60017e-07 0)
(5.99545e-07 9.11213e-07 0)
(6.31904e-07 9.63159e-07 0)
(6.64721e-07 1.01585e-06 0)
(6.98008e-07 1.0693e-06 0)
(7.31778e-07 1.1235e-06 0)
(7.66043e-07 1.17846e-06 0)
(8.00818e-07 1.23419e-06 0)
(8.36119e-07 1.29072e-06 0)
(8.71957e-07 1.34804e-06 0)
(9.08344e-07 1.40614e-06 0)
(9.45295e-07 1.46505e-06 0)
(9.82819e-07 1.52474e-06 0)
(1.02093e-06 1.5852e-06 0)
(1.05963e-06 1.6464e-06 0)
(1.09893e-06 1.70828e-06 0)
(1.13883e-06 1.77081e-06 0)
(1.17934e-06 1.83391e-06 0)
(1.22045e-06 1.89753e-06 0)
(1.26217e-06 1.96159e-06 0)
(1.30449e-06 2.02601e-06 0)
(1.3474e-06 2.09074e-06 0)
(1.39091e-06 2.1557e-06 0)
(1.43502e-06 2.22088e-06 0)
(1.47974e-06 2.2863e-06 0)
(1.52509e-06 2.35197e-06 0)
(1.57107e-06 2.41799e-06 0)
(1.61772e-06 2.48444e-06 0)
(1.66508e-06 2.55149e-06 0)
(1.71322e-06 2.61941e-06 0)
(1.76221e-06 2.68843e-06 0)
(1.81212e-06 2.7588e-06 0)
(1.86303e-06 2.83077e-06 0)
(1.91503e-06 2.90458e-06 0)
(1.96818e-06 2.98042e-06 0)
(2.02257e-06 3.05841e-06 0)
(2.07824e-06 3.1386e-06 0)
(2.13524e-06 3.22091e-06 0)
(2.19357e-06 3.30517e-06 0)
(2.25323e-06 3.39105e-06 0)
(2.31419e-06 3.47813e-06 0)
(2.37638e-06 3.56585e-06 0)
(2.43969e-06 3.65342e-06 0)
(2.50394e-06 3.73985e-06 0)
(2.56885e-06 3.82393e-06 0)
(2.6341e-06 3.90432e-06 0)
(2.69933e-06 3.97959e-06 0)
(2.76411e-06 4.04831e-06 0)
(2.82803e-06 4.10916e-06 0)
(2.89069e-06 4.16099e-06 0)
(2.95177e-06 4.20302e-06 0)
(3.01102e-06 4.23482e-06 0)
(3.06825e-06 4.25627e-06 0)
(3.12338e-06 4.26774e-06 0)
(3.17643e-06 4.27e-06 0)
(3.22756e-06 4.26422e-06 0)
(3.27699e-06 4.25197e-06 0)
(3.32511e-06 4.2352e-06 0)
(3.3724e-06 4.21614e-06 0)
(3.41951e-06 4.19729e-06 0)
(3.46717e-06 4.1813e-06 0)
(3.51626e-06 4.17093e-06 0)
(3.56773e-06 4.16898e-06 0)
(3.62262e-06 4.17828e-06 0)
(3.68204e-06 4.20161e-06 0)
(3.74716e-06 4.24174e-06 0)
(3.81918e-06 4.30134e-06 0)
(3.89933e-06 4.38303e-06 0)
(3.98889e-06 4.48929e-06 0)
(4.08916e-06 4.62253e-06 0)
(4.20154e-06 4.7851e-06 0)
(4.32748e-06 4.97929e-06 0)
(4.46853e-06 5.20738e-06 0)
(4.62634e-06 5.47163e-06 0)
(4.80263e-06 5.7742e-06 0)
(4.99918e-06 6.1171e-06 0)
(5.21775e-06 6.50203e-06 0)
(5.46e-06 6.93015e-06 0)
(5.72743e-06 7.40193e-06 0)
(6.02123e-06 7.91687e-06 0)
(6.34214e-06 8.47325e-06 0)
(6.69034e-06 9.06789e-06 0)
(7.06525e-06 9.69587e-06 0)
(7.46534e-06 1.03503e-05 0)
(7.88801e-06 1.10222e-05 0)
(8.32936e-06 1.17003e-05 0)
(8.78417e-06 1.23713e-05 0)
(9.24581e-06 1.30199e-05 0)
(9.70633e-06 1.36296e-05 0)
(1.01567e-05 1.41828e-05 0)
(1.05869e-05 1.46622e-05 0)
(1.09865e-05 1.50512e-05 0)
(1.13452e-05 1.53354e-05 0)
(1.16531e-05 1.55028e-05 0)
(1.19013e-05 1.55453e-05 0)
(1.20827e-05 1.54587e-05 0)
(1.21918e-05 1.52433e-05 0)
(1.22255e-05 1.49036e-05 0)
(1.21828e-05 1.44483e-05 0)
(1.20652e-05 1.38892e-05 0)
(1.1876e-05 1.32411e-05 0)
(1.16205e-05 1.25204e-05 0)
(1.13054e-05 1.17447e-05 0)
(1.09387e-05 1.0932e-05 0)
(1.05291e-05 1.00997e-05 0)
(1.00856e-05 9.26436e-06 0)
(9.61778e-06 8.44116e-06 0)
(9.1347e-06 7.64348e-06 0)
(8.64555e-06 6.88304e-06 0)
(8.15948e-06 6.17025e-06 0)
(7.68578e-06 5.51441e-06 0)
(7.23357e-06 4.92331e-06 0)
(6.81068e-06 4.40186e-06 0)
(6.42247e-06 3.95072e-06 0)
(6.07127e-06 3.56634e-06 0)
(5.75668e-06 3.2426e-06 0)
(5.47536e-06 2.9716e-06 0)
(5.21973e-06 2.74258e-06 0)
(4.97763e-06 2.54158e-06 0)
(4.73568e-06 2.35483e-06 0)
(4.48896e-06 2.1778e-06 0)
(4.25223e-06 2.02476e-06 0)
(4.05543e-06 1.91278e-06 0)
(3.92764e-06 1.84715e-06 0)
(3.87551e-06 1.82217e-06 0)
(3.86431e-06 1.81677e-06 0)
(3.86398e-06 1.80911e-06 0)
(1.72907e-06 7.00414e-06 0)
(-2.2179e-06 1.38131e-05 0)
(-8.4951e-06 2.17665e-05 0)
(0.144468 0.00386679 0)
(0.412177 0.0144175 0)
(0.507856 0.0232738 0)
(0.58082 0.030849 0)
(0.632188 0.0337031 0)
(0.671503 0.0323405 0)
(0.703214 0.0291064 0)
(0.729729 0.0254194 0)
(0.75248 0.02174 0)
(0.772381 0.0182852 0)
(0.790049 0.0151506 0)
(0.805914 0.0123594 0)
(0.820291 0.00990224 0)
(0.833413 0.00775544 0)
(0.845461 0.00588919 0)
(0.856577 0.00427241 0)
(0.866873 0.00287488 0)
(0.876441 0.00166837 0)
(0.885355 0.000626976 0)
(0.893679 -0.000272776 0)
(0.901466 -0.00105201 0)
(0.908761 -0.00172965 0)
(0.915603 -0.0023226 0)
(0.922026 -0.00284592 0)
(0.928061 -0.00331293 0)
(0.933733 -0.00373537 0)
(0.939066 -0.00412354 0)
(0.944084 -0.00448633 0)
(0.948806 -0.00483139 0)
(0.95325 -0.00516513 0)
(0.957434 -0.00549289 0)
(0.961374 -0.00581894 0)
(0.965086 -0.0061466 0)
(0.968582 -0.00647831 0)
(0.971878 -0.00681571 0)
(0.974985 -0.00715969 0)
(0.977916 -0.00751054 0)
(0.980681 -0.00786792 0)
(0.983292 -0.00823107 0)
(0.985758 -0.00859878 0)
(0.988088 -0.00896955 0)
(0.99029 -0.00934165 0)
(0.992373 -0.00971323 0)
(0.994344 -0.0100824 0)
(0.996209 -0.0104471 0)
(0.997974 -0.0108055 0)
(0.999645 -0.0111557 0)
(1.00123 -0.0114959 0)
(1.00272 -0.0118243 0)
(1.00414 -0.0121394 0)
(1.00547 -0.0124401 0)
(1.00675 -0.0127282 0)
(1.00798 -0.013006 0)
(1.00916 -0.0132736 0)
(1.01029 -0.013531 0)
(1.01137 -0.0137786 0)
(1.0124 -0.0140163 0)
(1.01337 -0.0142437 0)
(1.01429 -0.0144601 0)
(1.01515 -0.0146647 0)
(1.01595 -0.0148562 0)
(1.01669 -0.015033 0)
(1.01737 -0.0151933 0)
(1.01798 -0.0153358 0)
(1.01853 -0.0154595 0)
(1.01902 -0.0155636 0)
(1.01945 -0.0156475 0)
(1.01982 -0.0157115 0)
(1.02014 -0.0157562 0)
(1.02041 -0.0157821 0)
(1.02064 -0.01579 0)
(1.02083 -0.0157813 0)
(1.02099 -0.0157568 0)
(1.02111 -0.0157171 0)
(1.02121 -0.0156629 0)
(1.02128 -0.0155945 0)
(1.02133 -0.015512 0)
(1.02136 -0.0154149 0)
(1.02137 -0.015303 0)
(1.02138 -0.0151752 0)
(1.02137 -0.0150305 0)
(1.02135 -0.0148662 0)
(1.02133 -0.0146817 0)
(1.02131 -0.0144742 0)
(1.02134 -0.0142139 0)
(1.02151 -0.013848 0)
(1.02167 -0.0134237 0)
(1.01579 -0.0136287 0)
(1.01436 -0.0158043 0)
(1.00989 -0.0167302 0)
(1.00762 0.00382055 0)
(1.00156 -0.0426441 0)
(0.998814 0.0324826 0)
(0.997834 0.024111 0)
(0.995455 -5.54914e-05 0)
(0.991374 1.97959e-05 0)
(0.988861 4.81069e-06 0)
(0.985614 2.39789e-05 0)
(0.98299 3.40652e-05 0)
(0.980626 4.53831e-05 0)
(0.978565 5.54097e-05 0)
(0.976802 6.38689e-05 0)
(0.975333 7.04977e-05 0)
(0.974152 7.52397e-05 0)
(0.973252 7.81364e-05 0)
(0.972627 7.92407e-05 0)
(0.972278 7.84918e-05 0)
(0.972218 7.5208e-05 0)
(0.972454 6.49228e-05 0)
(0.973994 4.65147e-05 0)
(0.975677 6.17643e-05 0)
(0.976033 7.81156e-05 0)
(0.976046 8.12972e-05 0)
(0.976047 8.14207e-05 0)
(0.976047 8.14172e-05 0)
(0.976047 8.14179e-05 0)
(0.976047 8.14175e-05 0)
(0.976047 8.1418e-05 0)
(0.976047 8.14175e-05 0)
(0.976047 8.14181e-05 0)
(0.976047 8.14175e-05 0)
(0.976047 8.14182e-05 0)
(0.976047 8.14176e-05 0)
(0.976047 8.14182e-05 0)
(0.976047 8.14176e-05 0)
(0.976047 8.14182e-05 0)
(0.976047 8.14176e-05 0)
(0.976047 8.14183e-05 0)
(0.976047 8.14176e-05 0)
(0.976047 8.14184e-05 0)
(0.976047 8.14176e-05 0)
(0.976047 8.14184e-05 0)
(0.976047 8.14176e-05 0)
(0.976047 8.14185e-05 0)
(0.976047 8.14176e-05 0)
(0.976047 8.14185e-05 0)
(0.976047 8.14175e-05 0)
(0.976047 8.14186e-05 0)
(0.976047 8.14175e-05 0)
(0.976047 8.14186e-05 0)
(0.976047 8.14175e-05 0)
(0.976047 8.14187e-05 0)
(0.976047 8.14174e-05 0)
(0.976047 8.14187e-05 0)
(0.976047 8.14174e-05 0)
(0.976047 8.14188e-05 0)
(0.976047 8.14173e-05 0)
(0.976047 8.14188e-05 0)
(0.976047 8.14172e-05 0)
(0.976047 8.14189e-05 0)
(0.976047 8.14172e-05 0)
(0.976047 8.14189e-05 0)
(0.976047 8.14171e-05 0)
(0.976047 8.1419e-05 0)
(0.976047 8.1417e-05 0)
(0.976047 8.1419e-05 0)
(0.976047 8.14169e-05 0)
(0.976047 8.1419e-05 0)
(0.976047 8.14168e-05 0)
(0.976047 8.1419e-05 0)
(0.976047 8.14168e-05 0)
(0.976047 8.14188e-05 0)
(0.976047 8.14167e-05 0)
(0.976047 8.14188e-05 0)
(0.976047 8.14166e-05 0)
(0.976047 8.14187e-05 0)
(0.976047 8.14165e-05 0)
(0.976047 8.14186e-05 0)
(0.976047 8.14164e-05 0)
(0.976047 8.14185e-05 0)
(0.976047 8.14162e-05 0)
(0.976047 8.14183e-05 0)
(0.976047 8.1416e-05 0)
(0.976047 8.14181e-05 0)
(0.976047 8.14157e-05 0)
(0.976047 8.14177e-05 0)
(0.976047 8.14152e-05 0)
(0.976047 8.14172e-05 0)
(0.976047 8.1414e-05 0)
(0.976047 8.1415e-05 0)
(0.976047 8.14113e-05 0)
(0.976047 8.14121e-05 0)
(0.976047 8.14082e-05 0)
(0.976047 8.1409e-05 0)
(0.976047 8.1405e-05 0)
(0.976047 8.14057e-05 0)
(0.976047 8.14016e-05 0)
(0.976047 8.14022e-05 0)
(0.976047 8.13981e-05 0)
(0.976047 8.13987e-05 0)
(0.976047 8.13945e-05 0)
(0.976047 8.13951e-05 0)
(0.976047 8.13909e-05 0)
(0.976047 8.13915e-05 0)
(0.976047 8.13865e-05 0)
(0.976047 8.13858e-05 0)
(0.976047 8.13804e-05 0)
(0.976047 8.13804e-05 0)
(0.976047 8.13754e-05 0)
(0.976047 8.13757e-05 0)
(0.976047 8.13718e-05 0)
(0.976047 8.13736e-05 0)
(0.976047 8.13692e-05 0)
(0.976047 8.13693e-05 0)
(0.976047 8.13659e-05 0)
(0.976047 8.13695e-05 0)
(0.976047 8.13675e-05 0)
(0.976046 8.06119e-05 0)
(0.976026 4.69233e-06 0)
(0.97548 7.39179e-05 0)
)
;

boundaryField
{
    inandouthalf11
    {
        type            cyclic;
    }
    inandouthalf12
    {
        type            cyclic;
    }
    inandouthalf21
    {
        type            cyclic;
    }
    inandouthalf22
    {
        type            cyclic;
    }
    inandouthalf31
    {
        type            cyclic;
    }
    inandouthalf32
    {
        type            cyclic;
    }
    inandouthalf41
    {
        type            cyclic;
    }
    inandouthalf42
    {
        type            cyclic;
    }
    top
    {
        type            symmetryPlane;
    }
    walls
    {
        type            calculated;
        value           uniform (0 0 0);
    }
    frontAndBackPlanes
    {
        type            empty;
    }
}


// ************************************************************************* //
