/*--------------------------------*- C++ -*----------------------------------*\
| =========                 |                                                 |
| \\      /  F ield         | OpenFOAM: The Open Source CFD Toolbox           |
|  \\    /   O peration     | Version:  2.4.x                                 |
|   \\  /    A nd           | Web:      www.OpenFOAM.org                      |
|    \\/     M anipulation  |                                                 |
\*---------------------------------------------------------------------------*/
FoamFile
{
    version     2.0;
    format      ascii;
    class       volVectorField;
    location    "7.2";
    object      ddt0(Ub);
}
// * * * * * * * * * * * * * * * * * * * * * * * * * * * * * * * * * * * * * //

dimensions      [0 1 -2 0 0 0 0];

internalField   nonuniform List<vector> 
360
(
(0.00018675 -1.91009e-08 0)
(0.000185759 -7.0963e-08 0)
(0.000185645 -1.33358e-07 0)
(0.000185811 -1.90642e-07 0)
(0.000185906 -2.46829e-07 0)
(0.000185955 -3.04883e-07 0)
(0.000186009 -3.64965e-07 0)
(0.000186071 -4.26569e-07 0)
(0.000186134 -4.89477e-07 0)
(0.000186197 -5.5375e-07 0)
(0.000186261 -6.19523e-07 0)
(0.000186325 -6.86846e-07 0)
(0.00018639 -7.55705e-07 0)
(0.000186455 -8.26039e-07 0)
(0.000186521 -8.97763e-07 0)
(0.000186587 -9.70825e-07 0)
(0.000186655 -1.0452e-06 0)
(0.000186723 -1.12085e-06 0)
(0.000186791 -1.19773e-06 0)
(0.000186861 -1.27584e-06 0)
(0.000186931 -1.35513e-06 0)
(0.000187003 -1.43557e-06 0)
(0.000187075 -1.51718e-06 0)
(0.000187147 -1.59995e-06 0)
(0.000187221 -1.68388e-06 0)
(0.000187296 -1.76896e-06 0)
(0.000187371 -1.85522e-06 0)
(0.000187447 -1.94268e-06 0)
(0.000187525 -2.03135e-06 0)
(0.000187603 -2.12124e-06 0)
(0.000187682 -2.21235e-06 0)
(0.000187763 -2.30468e-06 0)
(0.000187844 -2.39821e-06 0)
(0.000187926 -2.49292e-06 0)
(0.00018801 -2.58875e-06 0)
(0.000188094 -2.68563e-06 0)
(0.00018818 -2.78348e-06 0)
(0.000188267 -2.8822e-06 0)
(0.000188355 -2.98171e-06 0)
(0.000188444 -3.08186e-06 0)
(0.000188535 -3.18256e-06 0)
(0.000188626 -3.28373e-06 0)
(0.000188719 -3.38523e-06 0)
(0.000188813 -3.48706e-06 0)
(0.000188908 -3.58922e-06 0)
(0.000189004 -3.69178e-06 0)
(0.000189102 -3.79486e-06 0)
(0.000189201 -3.8986e-06 0)
(0.000189301 -4.00327e-06 0)
(0.000189403 -4.10929e-06 0)
(0.000189506 -4.21697e-06 0)
(0.00018961 -4.32673e-06 0)
(0.000189716 -4.43893e-06 0)
(0.000189824 -4.55398e-06 0)
(0.000189934 -4.6721e-06 0)
(0.000190046 -4.79354e-06 0)
(0.000190159 -4.9183e-06 0)
(0.000190274 -5.04631e-06 0)
(0.000190392 -5.17726e-06 0)
(0.000190511 -5.31062e-06 0)
(0.000190633 -5.44579e-06 0)
(0.000190756 -5.58178e-06 0)
(0.000190882 -5.71741e-06 0)
(0.00019101 -5.85112e-06 0)
(0.000191139 -5.98106e-06 0)
(0.00019127 -6.10514e-06 0)
(0.000191402 -6.22117e-06 0)
(0.000191535 -6.32697e-06 0)
(0.000191668 -6.42051e-06 0)
(0.000191801 -6.50006e-06 0)
(0.000191934 -6.56442e-06 0)
(0.000192067 -6.61292e-06 0)
(0.000192198 -6.64541e-06 0)
(0.00019233 -6.66249e-06 0)
(0.00019246 -6.66532e-06 0)
(0.00019259 -6.65577e-06 0)
(0.000192719 -6.63626e-06 0)
(0.000192848 -6.60983e-06 0)
(0.000192978 -6.57992e-06 0)
(0.000193109 -6.55039e-06 0)
(0.000193241 -6.52534e-06 0)
(0.000193376 -6.50905e-06 0)
(0.000193514 -6.50585e-06 0)
(0.000193656 -6.52011e-06 0)
(0.000193804 -6.55616e-06 0)
(0.000193959 -6.61825e-06 0)
(0.000194121 -6.71055e-06 0)
(0.000194293 -6.83706e-06 0)
(0.000194476 -7.00164e-06 0)
(0.00019467 -7.20802e-06 0)
(0.000194878 -7.45981e-06 0)
(0.0001951 -7.76055e-06 0)
(0.000195339 -8.11371e-06 0)
(0.000195597 -8.52274e-06 0)
(0.000195874 -8.99092e-06 0)
(0.000196173 -9.52125e-06 0)
(0.000196496 -1.01162e-05 0)
(0.000196845 -1.07775e-05 0)
(0.000197221 -1.15056e-05 0)
(0.000197625 -1.22997e-05 0)
(0.000198059 -1.31568e-05 0)
(0.000198523 -1.40719e-05 0)
(0.000199016 -1.50372e-05 0)
(0.000199538 -1.60419e-05 0)
(0.000200085 -1.7072e-05 0)
(0.000200654 -1.811e-05 0)
(0.000201241 -1.91355e-05 0)
(0.000201839 -2.0125e-05 0)
(0.000202439 -2.10531e-05 0)
(0.000203034 -2.18932e-05 0)
(0.000203614 -2.26187e-05 0)
(0.000204168 -2.32048e-05 0)
(0.000204687 -2.36294e-05 0)
(0.00020516 -2.38748e-05 0)
(0.000205579 -2.39287e-05 0)
(0.000205936 -2.37851e-05 0)
(0.000206228 -2.34445e-05 0)
(0.00020645 -2.29143e-05 0)
(0.000206601 -2.22075e-05 0)
(0.000206684 -2.13426e-05 0)
(0.000206703 -2.0342e-05 0)
(0.000206661 -1.9231e-05 0)
(0.000206567 -1.80366e-05 0)
(0.000206429 -1.67861e-05 0)
(0.000206256 -1.55064e-05 0)
(0.000206057 -1.42226e-05 0)
(0.000205842 -1.2958e-05 0)
(0.000205621 -1.17331e-05 0)
(0.000205405 -1.0566e-05 0)
(0.000205202 -9.47261e-06 0)
(0.000205023 -8.46688e-06 0)
(0.000204877 -7.56006e-06 0)
(0.000204774 -6.75902e-06 0)
(0.000204722 -6.06464e-06 0)
(0.000204728 -5.47185e-06 0)
(0.00020479 -4.97124e-06 0)
(0.000204903 -4.55022e-06 0)
(0.000205067 -4.19234e-06 0)
(0.00020529 -3.87791e-06 0)
(0.000205581 -3.5892e-06 0)
(0.000205909 -3.32095e-06 0)
(0.000206224 -3.0903e-06 0)
(0.000206694 -2.91944e-06 0)
(0.000207432 -2.81255e-06 0)
(0.000208472 -2.758e-06 0)
(0.000210639 -2.69399e-06 0)
(0.000215867 -4.69002e-06 0)
(0.000214704 -1.12611e-05 0)
(0.000212955 -2.93248e-06 0)
(0.000481038 -0.000125174 0)
(0.222075 -0.00234128 0)
(0.465565 -0.00010855 0)
(0.565982 -0.000825839 0)
(0.627921 -0.000515645 0)
(0.673247 -0.000388773 0)
(0.709049 -0.00031576 0)
(0.73859 -0.000256778 0)
(0.76366 -0.000207765 0)
(0.785359 -0.000168457 0)
(0.804413 -0.000137339 0)
(0.821331 -0.000112588 0)
(0.836483 -9.27473e-05 0)
(0.850149 -7.67436e-05 0)
(0.862546 -6.37698e-05 0)
(0.873845 -5.32037e-05 0)
(0.884185 -4.45608e-05 0)
(0.893681 -3.74618e-05 0)
(0.902427 -3.16081e-05 0)
(0.910505 -2.67627e-05 0)
(0.917983 -2.27371e-05 0)
(0.924922 -1.93801e-05 0)
(0.931372 -1.65701e-05 0)
(0.937379 -1.4209e-05 0)
(0.942983 -1.22174e-05 0)
(0.948219 -1.05308e-05 0)
(0.953119 -9.09652e-06 0)
(0.957711 -7.87184e-06 0)
(0.962021 -6.82175e-06 0)
(0.96607 -5.91761e-06 0)
(0.96988 -5.13595e-06 0)
(0.973469 -4.45751e-06 0)
(0.976854 -3.86645e-06 0)
(0.980049 -3.34971e-06 0)
(0.983069 -2.89652e-06 0)
(0.985927 -2.49796e-06 0)
(0.988633 -2.14663e-06 0)
(0.991198 -1.83636e-06 0)
(0.993631 -1.56199e-06 0)
(0.995942 -1.3192e-06 0)
(0.998138 -1.10434e-06 0)
(1.00023 -9.14314e-07 0)
(1.00221 -7.46468e-07 0)
(1.00411 -5.9853e-07 0)
(1.00591 -4.68504e-07 0)
(1.00763 -3.54604e-07 0)
(1.00927 -2.55217e-07 0)
(1.01083 -1.68873e-07 0)
(1.01231 -9.43038e-08 0)
(1.01373 -3.04308e-08 0)
(1.01508 2.36961e-08 0)
(1.01635 6.89737e-08 0)
(1.01758 1.06559e-07 0)
(1.01876 1.37183e-07 0)
(1.01991 1.61095e-07 0)
(1.02102 1.78745e-07 0)
(1.02209 1.90795e-07 0)
(1.02313 1.97913e-07 0)
(1.02414 2.00657e-07 0)
(1.02511 1.99537e-07 0)
(1.02604 1.9509e-07 0)
(1.02693 1.87885e-07 0)
(1.02778 1.78475e-07 0)
(1.02859 1.67289e-07 0)
(1.02936 1.54725e-07 0)
(1.03007 1.41302e-07 0)
(1.03073 1.27528e-07 0)
(1.03134 1.1377e-07 0)
(1.0319 1.00343e-07 0)
(1.03239 8.75592e-08 0)
(1.03281 7.5647e-08 0)
(1.03317 6.47016e-08 0)
(1.03346 5.47673e-08 0)
(1.03366 4.58988e-08 0)
(1.03378 3.80866e-08 0)
(1.03381 3.12605e-08 0)
(1.03373 2.53579e-08 0)
(1.03355 2.03078e-08 0)
(1.03325 1.60179e-08 0)
(1.03283 1.23925e-08 0)
(1.03227 9.35646e-09 0)
(1.03155 6.83505e-09 0)
(1.03067 4.74376e-09 0)
(1.02961 3.01063e-09 0)
(1.02835 1.6631e-09 0)
(1.02688 7.1355e-10 0)
(1.02519 -3.97795e-10 0)
(1.02325 -8.5236e-10 0)
(1.02106 -1.1011e-09 0)
(1.0186 -1.61069e-09 0)
(1.01589 -1.95912e-09 0)
(1.01294 -2.51113e-09 0)
(1.00977 -2.6984e-09 0)
(1.00644 -2.66435e-09 0)
(1.00301 -2.60818e-09 0)
(0.999555 -2.61602e-09 0)
(0.996172 -2.50393e-09 0)
(0.992942 -2.41056e-09 0)
(0.989933 -2.32247e-09 0)
(0.987191 -2.23521e-09 0)
(0.984743 -2.1521e-09 0)
(0.982598 -2.06572e-09 0)
(0.980754 -1.9925e-09 0)
(0.97921 -1.84768e-09 0)
(0.977958 -1.88325e-09 0)
(0.976992 -1.64235e-09 0)
(0.976305 -1.6981e-09 0)
(0.975896 -1.58098e-09 0)
(0.975776 -1.35925e-09 0)
(0.97601 -1.65966e-09 0)
(0.977048 -9.37256e-10 0)
(0.97911 -1.77499e-09 0)
(0.979591 -5.44247e-10 0)
(0.979609 -1.85498e-09 0)
(0.979609 -2.2107e-10 0)
(0.979609 -1.87842e-09 0)
(0.979609 4.86269e-11 0)
(0.979609 -1.8629e-09 0)
(0.979609 2.90713e-10 0)
(0.979609 -1.85537e-09 0)
(0.979609 5.18333e-10 0)
(0.979609 -1.8672e-09 0)
(0.979609 7.37876e-10 0)
(0.979609 -1.89824e-09 0)
(0.979609 9.63583e-10 0)
(0.979609 -1.94103e-09 0)
(0.979609 1.18375e-09 0)
(0.979609 -2.00888e-09 0)
(0.979609 1.40106e-09 0)
(0.979609 -2.09473e-09 0)
(0.979609 1.61486e-09 0)
(0.979609 -2.19606e-09 0)
(0.979609 1.83817e-09 0)
(0.979609 -2.30672e-09 0)
(0.979609 2.05982e-09 0)
(0.979609 -2.43729e-09 0)
(0.979609 2.28164e-09 0)
(0.979609 -2.58538e-09 0)
(0.979609 2.49719e-09 0)
(0.979609 -2.75568e-09 0)
(0.979609 2.71444e-09 0)
(0.979609 -2.93794e-09 0)
(0.979609 2.92948e-09 0)
(0.979609 -3.13972e-09 0)
(0.979609 3.14551e-09 0)
(0.979609 -3.35953e-09 0)
(0.979609 3.34842e-09 0)
(0.979609 -3.6039e-09 0)
(0.979609 3.56921e-09 0)
(0.979609 -3.85214e-09 0)
(0.979609 3.77392e-09 0)
(0.979609 -4.13663e-09 0)
(0.979609 3.9741e-09 0)
(0.979609 -4.4501e-09 0)
(0.979609 4.15259e-09 0)
(0.979609 -4.79135e-09 0)
(0.979609 4.34463e-09 0)
(0.979609 -5.14354e-09 0)
(0.979609 4.50056e-09 0)
(0.979609 -5.5513e-09 0)
(0.979609 4.61997e-09 0)
(0.979609 -5.34964e-09 0)
(0.979609 3.93178e-09 0)
(0.979609 -5.6156e-09 0)
(0.979609 3.79732e-09 0)
(0.979609 -5.88233e-09 0)
(0.979609 3.61939e-09 0)
(0.979609 -6.21205e-09 0)
(0.979609 3.39731e-09 0)
(0.979609 -6.59226e-09 0)
(0.979609 3.09356e-09 0)
(0.979609 -7.07743e-09 0)
(0.979609 2.65693e-09 0)
(0.979609 -7.70184e-09 0)
(0.979609 2.08199e-09 0)
(0.979609 -8.519e-09 0)
(0.979609 1.19354e-09 0)
(0.979609 -9.76357e-09 0)
(0.979609 -2.97929e-10 0)
(0.979609 -1.29041e-08 0)
(0.979609 -5.9835e-09 0)
(0.979609 -2.02801e-08 0)
(0.979609 -1.36878e-08 0)
(0.979609 -2.83915e-08 0)
(0.979609 -2.1935e-08 0)
(0.979609 -3.69556e-08 0)
(0.979609 -3.05875e-08 0)
(0.979609 -4.58848e-08 0)
(0.979609 -3.96094e-08 0)
(0.979609 -5.51165e-08 0)
(0.979609 -4.88059e-08 0)
(0.979609 -6.45645e-08 0)
(0.979609 -5.83503e-08 0)
(0.979609 -7.4147e-08 0)
(0.979609 -6.77587e-08 0)
(0.979609 -8.56153e-08 0)
(0.979609 -8.27944e-08 0)
(0.979609 -1.0173e-07 0)
(0.979609 -9.69998e-08 0)
(0.979609 -1.14822e-07 0)
(0.979609 -1.0929e-07 0)
(0.979609 -1.24283e-07 0)
(0.979609 -1.14844e-07 0)
(0.979609 -1.31298e-07 0)
(0.979609 -1.2623e-07 0)
(0.979609 -1.40029e-07 0)
(0.979609 -1.2601e-07 0)
(0.979609 -1.31791e-07 0)
(0.979609 -1.14131e-07 0)
(0.979609 -1.21849e-07 0)
(0.979609 -5.24845e-08 0)
)
;

boundaryField
{
    inandouthalf11
    {
        type            cyclic;
    }
    inandouthalf12
    {
        type            cyclic;
    }
    inandouthalf21
    {
        type            cyclic;
    }
    inandouthalf22
    {
        type            cyclic;
    }
    inandouthalf31
    {
        type            cyclic;
    }
    inandouthalf32
    {
        type            cyclic;
    }
    inandouthalf41
    {
        type            cyclic;
    }
    inandouthalf42
    {
        type            cyclic;
    }
    top
    {
        type            symmetryPlane;
    }
    walls
    {
        type            calculated;
        value           uniform (0 0 0);
    }
    frontAndBackPlanes
    {
        type            empty;
    }
}


// ************************************************************************* //
