/*--------------------------------*- C++ -*----------------------------------*\
| =========                 |                                                 |
| \\      /  F ield         | OpenFOAM: The Open Source CFD Toolbox           |
|  \\    /   O peration     | Version:  2.4.x                                 |
|   \\  /    A nd           | Web:      www.OpenFOAM.org                      |
|    \\/     M anipulation  |                                                 |
\*---------------------------------------------------------------------------*/
FoamFile
{
    version     2.0;
    format      ascii;
    class       volScalarField;
    location    "7.2";
    object      epsilon_0;
}
// * * * * * * * * * * * * * * * * * * * * * * * * * * * * * * * * * * * * * //

dimensions      [0 2 -3 0 0 0 0];

internalField   nonuniform List<scalar> 
360
(
1.60309e-27
1e-20
1e-20
1e-20
1e-20
1e-20
1e-20
1e-20
1e-20
1e-20
1e-20
1e-20
1e-20
1e-20
1e-20
1e-20
1e-20
1e-20
1e-20
1e-20
1e-20
1e-20
1e-20
1e-20
1e-20
1e-20
1e-20
1e-20
1e-20
1e-20
1e-20
1e-20
1e-20
1e-20
1e-20
1e-20
1e-20
1e-20
1e-20
1e-20
1e-20
1e-20
1e-20
1e-20
1e-20
1e-20
1e-20
1e-20
1e-20
1e-20
1e-20
1e-20
1e-20
1e-20
1e-20
1e-20
1e-20
1e-20
1e-20
1e-20
1e-20
1e-20
1e-20
1e-20
1e-20
1e-20
1e-20
1e-20
1e-20
1e-20
1e-20
1e-20
1e-20
1e-20
1e-20
1e-20
1e-20
1e-20
1e-20
1e-20
1e-20
1e-20
1e-20
1e-20
1e-20
1e-20
1e-20
1e-20
1e-20
1e-20
1e-20
1e-20
1e-20
1e-20
1e-20
1e-20
1e-20
1e-20
1e-20
1e-20
1e-20
1e-20
1e-20
1e-20
1e-20
1e-20
1e-20
1e-20
1e-20
1e-20
1e-20
1e-20
1e-20
1e-20
1e-20
1e-20
1e-20
1e-20
1e-20
1e-20
1e-20
1e-20
1e-20
1e-20
1e-20
1e-20
1e-20
1e-20
1e-20
1e-20
1e-20
1e-20
1e-20
2.60286e-20
1.12051e-19
5.25143e-19
2.61429e-18
1.38534e-17
7.86962e-17
4.88015e-16
3.40831e-15
2.77591e-14
2.69173e-13
3.09193e-12
4.13788e-11
6.3944e-10
1.13919e-08
2.31886e-07
5.61948e-06
0.000164465
0.00330675
0.00691646
0.00905588
0.0105352
0.011673
0.0125869
0.0133351
0.0139523
0.0144615
0.0148794
0.0152189
0.01549
0.0157014
0.01586
0.015972
0.0160427
0.0160767
0.0160779
0.0160501
0.0159964
0.0159196
0.0158223
0.0157066
0.0155748
0.0154285
0.0152694
0.0150989
0.0149185
0.0147292
0.0145322
0.0143284
0.0141186
0.0139038
0.0136845
0.0134614
0.0132351
0.0130062
0.0127751
0.0125422
0.012308
0.0120728
0.0118369
0.0116007
0.0113644
0.0111282
0.0108924
0.0106573
0.010423
0.0101896
0.00995745
0.00972659
0.00949488
0.00926015
0.00902254
0.0087822
0.00853927
0.00829391
0.00804627
0.00779651
0.00754481
0.00729136
0.00703633
0.00677993
0.00652239
0.00626393
0.0060048
0.00574527
0.00548563
0.00522618
0.00496727
0.00470925
0.00445251
0.00419747
0.00394458
0.00369434
0.00344727
0.00320394
0.00296496
0.00273098
0.00250269
0.00228083
0.00206617
0.00185953
0.00166175
0.00147368
0.00129617
0.00113005
0.000976078
0.000834936
0.000707154
0.000593066
0.00049276
0.000406026
0.000332329
0.000270805
0.000220298
0.000179432
0.000146712
0.00012063
9.97651e-05
8.28499e-05
6.88137e-05
5.67985e-05
4.61622e-05
3.64739e-05
2.75079e-05
1.92376e-05
1.18353e-05
5.69434e-06
1.50318e-06
1.25309e-07
3.58086e-09
7.85144e-11
1.60763e-12
3.09553e-14
5.60738e-16
9.56446e-18
1.60669e-19
1.08154e-20
1e-20
1e-20
1e-20
1e-20
1e-20
1e-20
1e-20
1e-20
1e-20
1e-20
1e-20
1e-20
1e-20
1e-20
1e-20
1e-20
1e-20
1e-20
1e-20
1e-20
1e-20
1e-20
1e-20
1e-20
1e-20
1e-20
1e-20
1e-20
1e-20
1e-20
1e-20
1e-20
1e-20
1e-20
1e-20
1e-20
1e-20
1e-20
1e-20
1e-20
1e-20
1e-20
1e-20
1e-20
1e-20
1e-20
1e-20
1e-20
1e-20
1e-20
1e-20
1e-20
1e-20
1e-20
1e-20
1e-20
1e-20
1e-20
1e-20
1e-20
1e-20
1e-20
1e-20
1e-20
1e-20
1e-20
1e-20
1e-20
1e-20
1e-20
1e-20
1e-20
1e-20
1e-20
1e-20
1e-20
1e-20
1e-20
1e-20
1e-20
1e-20
1e-20
1e-20
1e-20
1e-20
1e-20
1e-20
1e-20
1e-20
1e-20
1e-20
)
;

boundaryField
{
    inandouthalf11
    {
        type            cyclic;
    }
    inandouthalf12
    {
        type            cyclic;
    }
    inandouthalf21
    {
        type            cyclic;
    }
    inandouthalf22
    {
        type            cyclic;
    }
    inandouthalf31
    {
        type            cyclic;
    }
    inandouthalf32
    {
        type            cyclic;
    }
    inandouthalf41
    {
        type            cyclic;
    }
    inandouthalf42
    {
        type            cyclic;
    }
    top
    {
        type            symmetryPlane;
    }
    walls
    {
        type            zeroGradient;
    }
    frontAndBackPlanes
    {
        type            empty;
    }
}


// ************************************************************************* //
