/*--------------------------------*- C++ -*----------------------------------*\
| =========                 |                                                 |
| \\      /  F ield         | OpenFOAM: The Open Source CFD Toolbox           |
|  \\    /   O peration     | Version:  2.4.x                                 |
|   \\  /    A nd           | Web:      www.OpenFOAM.org                      |
|    \\/     M anipulation  |                                                 |
\*---------------------------------------------------------------------------*/
FoamFile
{
    version     2.0;
    format      ascii;
    class       volVectorField;
    location    "7.2";
    object      gradPs;
}
// * * * * * * * * * * * * * * * * * * * * * * * * * * * * * * * * * * * * * //

dimensions      [0 1 -2 0 0 0 0];

internalField   nonuniform List<vector> 
360
(
(0 1.54512e-18 0)
(0 1.68356e-18 0)
(0 -2.10625e-20 0)
(0 -2.38327e-19 0)
(-1.45063e-32 -1.02502e-19 0)
(-1.45067e-32 -5.71962e-20 0)
(-1.45071e-32 -7.12735e-20 0)
(0 -8.0423e-20 0)
(-1.45082e-32 -8.16696e-20 0)
(0 -8.24275e-20 0)
(-2.90185e-32 -8.25447e-20 0)
(0 -8.26674e-20 0)
(-1.45104e-32 -8.32251e-20 0)
(0 -8.38157e-20 0)
(0 -8.4678e-20 0)
(0 -8.55508e-20 0)
(0 -8.62019e-20 0)
(-2.90265e-32 -8.6753e-20 0)
(0 -8.77269e-20 0)
(0 -8.8339e-20 0)
(0 -8.89908e-20 0)
(-1.45157e-32 -9.00363e-20 0)
(0 -9.07249e-20 0)
(0 -9.15804e-20 0)
(0 -9.24714e-20 0)
(-1.45182e-32 -9.31474e-20 0)
(0 -9.41556e-20 0)
(0 -9.52189e-20 0)
(0 -9.5937e-20 0)
(0 -9.68004e-20 0)
(0 -9.8121e-20 0)
(0 -9.87106e-20 0)
(0 -9.99293e-20 0)
(0 -1.01189e-19 0)
(0 -1.01943e-19 0)
(2.90497e-32 -1.03121e-19 0)
(0 -1.04183e-19 0)
(0 -1.0592e-19 0)
(0 -1.06414e-19 0)
(0 -1.07792e-19 0)
(0 -1.09736e-19 0)
(0 -1.10051e-19 0)
(2.90599e-32 -1.11793e-19 0)
(0 -1.13339e-19 0)
(0 -1.14246e-19 0)
(0 -1.16129e-19 0)
(0 -1.16804e-19 0)
(0 -1.17828e-19 0)
(0 -1.20218e-19 0)
(0 -1.20827e-19 0)
(1.45363e-32 -1.21731e-19 0)
(0 -1.23417e-19 0)
(0 -1.24696e-19 0)
(0 -1.25637e-19 0)
(0 -1.27298e-19 0)
(0 -1.28604e-19 0)
(0 -1.29818e-19 0)
(0 -1.31806e-19 0)
(0 -1.32385e-19 0)
(0 -1.3463e-19 0)
(0 -1.36357e-19 0)
(0 -1.37892e-19 0)
(0 -1.40286e-19 0)
(0 -1.42263e-19 0)
(0 -1.447e-19 0)
(0 -1.47411e-19 0)
(0 -1.50561e-19 0)
(0 -1.53368e-19 0)
(0 -1.55718e-19 0)
(0 -1.59001e-19 0)
(0 -1.62767e-19 0)
(0 -1.64638e-19 0)
(0 -1.6741e-19 0)
(0 -1.70703e-19 0)
(0 -1.73449e-19 0)
(0 -1.75961e-19 0)
(0 -1.78001e-19 0)
(0 -1.80624e-19 0)
(0 -1.82952e-19 0)
(0 -1.84743e-19 0)
(0 -1.8659e-19 0)
(0 -1.887e-19 0)
(0 -1.90548e-19 0)
(0 -1.92459e-19 0)
(0 -1.94453e-19 0)
(0 -1.96569e-19 0)
(0 -1.98737e-19 0)
(0 -2.00902e-19 0)
(0 -2.03336e-19 0)
(0 -2.05898e-19 0)
(0 -2.08503e-19 0)
(0 -2.11291e-19 0)
(0 -2.14219e-19 0)
(0 -2.17182e-19 0)
(0 -2.20235e-19 0)
(0 -2.23396e-19 0)
(0 -2.26677e-19 0)
(0 -2.3013e-19 0)
(0 -2.33831e-19 0)
(0 -2.37838e-19 0)
(0 -2.42218e-19 0)
(0 -2.47069e-19 0)
(0 -2.52477e-19 0)
(0 -2.58535e-19 0)
(0 -2.65347e-19 0)
(0 -2.73007e-19 0)
(0 -2.81575e-19 0)
(0 -2.91079e-19 0)
(0 -3.01493e-19 0)
(0 -3.12733e-19 0)
(0 -3.24665e-19 0)
(0 -3.37107e-19 0)
(0 -3.49854e-19 0)
(0 -3.62694e-19 0)
(0 -3.75436e-19 0)
(0 -3.87931e-19 0)
(0 -4.00091e-19 0)
(0 -4.119e-19 0)
(0 -4.23408e-19 0)
(0 -4.34728e-19 0)
(0 -4.46007e-19 0)
(0 -4.57408e-19 0)
(0 -4.69095e-19 0)
(0 -4.81241e-19 0)
(0 -4.94061e-19 0)
(0 -5.07851e-19 0)
(0 -5.22983e-19 0)
(0 -5.3978e-19 0)
(0 -5.58289e-19 0)
(0 -5.78142e-19 0)
(0 -5.99015e-19 0)
(0 -6.20929e-19 0)
(0 2.01373e-16 0)
(0 1.28232e-15 0)
(0 5.83299e-15 0)
(0 2.64928e-14 0)
(0 1.2636e-13 0)
(0 6.36738e-13 0)
(0 3.44313e-12 0)
(0 2.0601e-11 0)
(0 1.41745e-10 0)
(0 1.15594e-09 0)
(0 1.11637e-08 0)
(0 1.24945e-07 0)
(0 1.59963e-06 0)
(0 2.34767e-05 0)
(0 0.000421031 0)
(0 0.0105344 0)
(0 0.209249 0)
(0 0.0740853 0)
(0 -0.596434 0)
(0 -0.597524 0)
(0 -0.771721 0)
(0 -0.723874 0)
(0 -0.654829 0)
(0 -0.601927 0)
(0 -0.576103 0)
(0 -0.562363 0)
(0 -0.555251 0)
(0 -0.553465 0)
(0 -0.555268 0)
(0 -0.559387 0)
(0 -0.565041 0)
(0 -0.571669 0)
(0 -0.578858 0)
(0 -0.586304 0)
(0 -0.593774 0)
(0 -0.601082 0)
(0 -0.608076 0)
(0 -0.614628 0)
(0 -0.620628 0)
(0 -0.625982 0)
(0 -0.630609 0)
(0 -0.634444 0)
(0 -0.637439 0)
(0 -0.639559 0)
(0 -0.640787 0)
(0 -0.641123 0)
(0 -0.640581 0)
(0 -0.63919 0)
(0 -0.636988 0)
(0 -0.634026 0)
(0 -0.63036 0)
(0 -0.626055 0)
(0 -0.621179 0)
(0 -0.615804 0)
(0 -0.610003 0)
(0 -0.603852 0)
(0 -0.597431 0)
(0 -0.590819 0)
(0 -0.584099 0)
(0 -0.577358 0)
(0 -0.570684 0)
(0 -0.564161 0)
(0 -0.557858 0)
(0 -0.551815 0)
(0 -0.546037 0)
(0 -0.540522 0)
(0 -0.535306 0)
(0 -0.530471 0)
(0 -0.526047 0)
(0 -0.522028 0)
(-2.58436e-16 -0.51861 0)
(0 -0.516153 0)
(0 -0.514848 0)
(2.99546e-16 -0.514553 0)
(0 -0.514867 0)
(-3.34322e-16 -0.515528 0)
(0 -0.516013 0)
(1.88708e-16 -0.515574 0)
(0 -0.513344 0)
(0 -0.508015 0)
(0 -0.498797 0)
(2.48394e-16 -0.485656 0)
(0 -0.467681 0)
(0 -0.444299 0)
(0 -0.416411 0)
(0 -0.384917 0)
(0 -0.350474 0)
(-9.33187e-17 -0.314029 0)
(0 -0.277542 0)
(-5.16552e-17 -0.242325 0)
(0 -0.208491 0)
(-5.57876e-17 -0.176996 0)
(0 -0.14861 0)
(0 -0.123196 0)
(0 -0.100913 0)
(0 -0.0816424 0)
(1.5256e-17 -0.0654502 0)
(0 -0.0517688 0)
(0 -0.0405805 0)
(0 -0.0312984 0)
(0 -0.0242174 0)
(0 -0.0181754 0)
(0 -0.0128889 0)
(0 -0.012567 0)
(0 -0.00692535 0)
(0 0 0)
(0 0 0)
(0 0 0)
(0 0 0)
(0 0 0)
(0 0 0)
(0 0 0)
(0 0 0)
(0 0 0)
(0 0 0)
(0 0 0)
(0 0 0)
(0 0 0)
(0 0 0)
(0 0 0)
(0 0 0)
(0 0 0)
(0 0 0)
(0 0 0)
(0 0 0)
(0 0 0)
(0 0 0)
(0 0 0)
(0 0 0)
(0 0 0)
(0 0 0)
(0 0 0)
(0 0 0)
(0 0 0)
(0 0 0)
(0 0 0)
(0 0 0)
(0 0 0)
(0 0 0)
(0 0 0)
(0 0 0)
(0 0 0)
(0 0 0)
(0 0 0)
(0 0 0)
(0 0 0)
(0 0 0)
(0 0 0)
(0 0 0)
(0 0 0)
(0 0 0)
(0 0 0)
(0 0 0)
(0 0 0)
(0 0 0)
(0 0 0)
(0 0 0)
(0 0 0)
(0 0 0)
(0 0 0)
(0 0 0)
(0 0 0)
(0 0 0)
(0 0 0)
(0 0 0)
(0 0 0)
(0 0 0)
(0 0 0)
(0 0 0)
(0 0 0)
(0 0 0)
(0 0 0)
(0 0 0)
(0 0 0)
(0 0 0)
(0 0 0)
(0 0 0)
(0 0 0)
(0 0 0)
(0 0 0)
(0 0 0)
(0 0 0)
(0 0 0)
(0 0 0)
(0 0 0)
(0 0 0)
(0 0 0)
(0 0 0)
(0 0 0)
(0 0 0)
(0 0 0)
(0 0 0)
(0 0 0)
(0 0 0)
(0 0 0)
(0 0 0)
(0 0 0)
(0 0 0)
(0 0 0)
(0 0 0)
(0 0 0)
(0 0 0)
(0 0 0)
(0 0 0)
(0 0 0)
(0 0 0)
(0 0 0)
(0 0 0)
(0 0 0)
(0 0 0)
(0 0 0)
(0 0 0)
(0 0 0)
(0 0 0)
(0 0 0)
(0 0 0)
(0 0 0)
(0 0 0)
(0 0 0)
(0 0 0)
(0 0 0)
(0 0 0)
(0 0 0)
(0 0 0)
(0 0 0)
(0 0 0)
(0 0 0)
(0 0 0)
)
;

boundaryField
{
    inandouthalf11
    {
        type            cyclic;
    }
    inandouthalf12
    {
        type            cyclic;
    }
    inandouthalf21
    {
        type            cyclic;
    }
    inandouthalf22
    {
        type            cyclic;
    }
    inandouthalf31
    {
        type            cyclic;
    }
    inandouthalf32
    {
        type            cyclic;
    }
    inandouthalf41
    {
        type            cyclic;
    }
    inandouthalf42
    {
        type            cyclic;
    }
    top
    {
        type            symmetryPlane;
    }
    walls
    {
        type            calculated;
        value           uniform (0 0 0);
    }
    frontAndBackPlanes
    {
        type            empty;
    }
}


// ************************************************************************* //
