/*--------------------------------*- C++ -*----------------------------------*\
| =========                 |                                                 |
| \\      /  F ield         | OpenFOAM: The Open Source CFD Toolbox           |
|  \\    /   O peration     | Version:  2.4.x                                 |
|   \\  /    A nd           | Web:      www.OpenFOAM.org                      |
|    \\/     M anipulation  |                                                 |
\*---------------------------------------------------------------------------*/
FoamFile
{
    version     2.0;
    format      ascii;
    class       volScalarField;
    location    "7.2";
    object      p;
}
// * * * * * * * * * * * * * * * * * * * * * * * * * * * * * * * * * * * * * //

dimensions      [1 -1 -2 0 0 0 0];

internalField   nonuniform List<scalar> 
360
(
4890.19
4885.29
4880.38
4875.48
4870.57
4865.66
4860.75
4855.84
4850.94
4846.03
4841.12
4836.21
4831.3
4826.38
4821.47
4816.56
4811.65
4806.73
4801.82
4796.91
4791.99
4787.08
4782.16
4777.24
4772.33
4767.41
4762.49
4757.57
4752.66
4747.74
4742.82
4737.9
4732.97
4728.05
4723.13
4718.21
4713.28
4708.36
4703.44
4698.51
4693.59
4688.66
4683.73
4678.81
4673.88
4668.95
4664.02
4659.09
4654.16
4649.23
4644.3
4639.37
4634.44
4629.5
4624.57
4619.64
4614.7
4609.77
4604.83
4599.9
4594.96
4590.02
4585.08
4580.14
4575.21
4570.27
4565.33
4560.38
4555.44
4550.5
4545.56
4540.62
4535.67
4530.73
4525.78
4520.84
4515.89
4510.95
4506
4501.05
4496.11
4491.16
4486.21
4481.26
4476.31
4471.36
4466.41
4461.46
4456.51
4451.56
4446.61
4441.66
4436.7
4431.75
4426.8
4421.84
4416.89
4411.94
4406.98
4402.03
4397.07
4392.11
4387.16
4382.2
4377.24
4372.29
4367.33
4362.37
4357.41
4352.45
4347.49
4342.53
4337.56
4332.6
4327.64
4322.67
4317.71
4312.75
4307.78
4302.82
4297.85
4292.88
4287.92
4282.95
4277.98
4273.02
4268.05
4263.08
4258.12
4253.15
4248.18
4243.21
4238.25
4233.28
4228.31
4223.35
4218.38
4213.41
4208.45
4203.48
4198.51
4193.55
4188.58
4183.61
4178.65
4173.68
4168.72
4163.76
4158.79
4153.82
4148.16
4142.32
4136.76
4131.38
4126.11
4120.9
4115.74
4110.6
4105.5
4100.42
4095.35
4090.31
4085.28
4080.26
4075.25
4070.25
4065.26
4060.28
4055.31
4050.35
4045.39
4040.44
4035.49
4030.56
4025.62
4020.69
4015.77
4010.85
4005.93
4001.02
3996.11
3991.21
3986.31
3981.41
3976.51
3971.62
3966.73
3961.84
3956.95
3952.07
3947.19
3942.31
3937.43
3932.55
3927.68
3922.81
3917.93
3913.06
3908.2
3903.33
3898.46
3893.55
3888.53
3883.42
3878.2
3872.88
3867.46
3861.92
3856.27
3850.51
3844.63
3838.63
3832.51
3826.27
3819.9
3813.41
3806.78
3800.02
3793.12
3786.09
3778.91
3771.58
3764.11
3756.48
3748.7
3740.76
3732.66
3724.4
3715.96
3707.36
3698.57
3689.61
3680.46
3671.13
3661.6
3651.87
3641.95
3631.82
3621.47
3610.92
3600.14
3589.13
3577.9
3566.43
3554.72
3542.77
3530.57
3518.12
3505.41
3492.43
3479.19
3465.68
3451.89
3437.82
3423.47
3408.82
3393.87
3378.62
3363.06
3347.18
3330.97
3314.43
3297.55
3280.33
3262.76
3244.83
3226.54
3207.87
3188.83
3169.4
3149.58
3129.35
3108.72
3087.66
3066.18
3044.26
3021.9
2999.08
2975.8
2952.05
2927.81
2903.09
2877.86
2852.12
2825.86
2799.06
2771.72
2743.82
2715.36
2686.32
2656.7
2626.47
2595.62
2564.15
2532.05
2499.29
2465.86
2431.76
2396.96
2361.46
2325.24
2288.28
2250.57
2212.1
2172.85
2132.8
2091.93
2050.24
2007.7
1964.3
1922.76
1883.52
1844.28
1805.04
1765.8
1726.56
1687.32
1648.08
1608.84
1569.6
1530.36
1491.12
1451.88
1412.64
1373.4
1334.16
1294.92
1255.68
1216.44
1177.2
1137.96
1098.72
1059.48
1020.24
981
941.76
902.52
863.28
824.04
784.8
745.56
706.32
667.08
627.84
588.6
549.36
510.12
470.88
431.64
392.4
353.16
313.92
274.68
235.44
196.2
156.96
117.72
78.48
39.24
2.82923e-07
)
;

boundaryField
{
    inandouthalf11
    {
        type            cyclic;
    }
    inandouthalf12
    {
        type            cyclic;
    }
    inandouthalf21
    {
        type            cyclic;
    }
    inandouthalf22
    {
        type            cyclic;
    }
    inandouthalf31
    {
        type            cyclic;
    }
    inandouthalf32
    {
        type            cyclic;
    }
    inandouthalf41
    {
        type            cyclic;
    }
    inandouthalf42
    {
        type            cyclic;
    }
    top
    {
        type            symmetryPlane;
    }
    walls
    {
        type            slip;
    }
    frontAndBackPlanes
    {
        type            empty;
    }
}


// ************************************************************************* //
