/*--------------------------------*- C++ -*----------------------------------*\
| =========                 |                                                 |
| \\      /  F ield         | OpenFOAM: The Open Source CFD Toolbox           |
|  \\    /   O peration     | Version:  2.4.x                                 |
|   \\  /    A nd           | Web:      www.OpenFOAM.org                      |
|    \\/     M anipulation  |                                                 |
\*---------------------------------------------------------------------------*/
FoamFile
{
    version     2.0;
    format      ascii;
    class       surfaceScalarField;
    location    "7.2";
    object      phib;
}
// * * * * * * * * * * * * * * * * * * * * * * * * * * * * * * * * * * * * * //

dimensions      [0 3 -1 0 0 0 0];

internalField   nonuniform List<scalar> 
359
(
3.65712e-13
9.32005e-13
1.44322e-12
1.92131e-12
2.40769e-12
2.90428e-12
3.40381e-12
3.90369e-12
4.4042e-12
4.9065e-12
5.41128e-12
5.91863e-12
6.42851e-12
6.94079e-12
7.45552e-12
7.97284e-12
8.4929e-12
9.01576e-12
9.54145e-12
1.00701e-11
1.06016e-11
1.11361e-11
1.16736e-11
1.22141e-11
1.27576e-11
1.33041e-11
1.38536e-11
1.44061e-11
1.49616e-11
1.552e-11
1.60812e-11
1.66454e-11
1.72122e-11
1.77819e-11
1.83541e-11
1.89287e-11
1.95057e-11
2.00848e-11
2.06662e-11
2.12492e-11
2.1834e-11
2.24203e-11
2.30076e-11
2.35962e-11
2.41856e-11
2.47758e-11
2.53667e-11
2.59579e-11
2.65496e-11
2.71421e-11
2.77352e-11
2.83292e-11
2.89241e-11
2.95202e-11
3.01173e-11
3.0716e-11
3.13159e-11
3.19173e-11
3.25203e-11
3.31244e-11
3.37304e-11
3.43378e-11
3.49467e-11
3.55564e-11
3.61663e-11
3.67753e-11
3.73823e-11
3.79861e-11
3.85854e-11
3.91788e-11
3.97653e-11
4.03443e-11
4.09143e-11
4.14746e-11
4.20244e-11
4.2563e-11
4.30895e-11
4.36032e-11
4.4104e-11
4.4592e-11
4.50676e-11
4.55318e-11
4.59858e-11
4.64308e-11
4.68685e-11
4.73002e-11
4.77274e-11
4.81514e-11
4.85735e-11
4.89953e-11
4.94182e-11
4.98437e-11
5.02736e-11
5.07096e-11
5.11534e-11
5.16069e-11
5.20716e-11
5.25489e-11
5.30401e-11
5.35462e-11
5.40679e-11
5.46057e-11
5.51596e-11
5.57291e-11
5.63134e-11
5.6911e-11
5.75201e-11
5.81379e-11
5.87614e-11
5.93872e-11
6.00112e-11
6.06292e-11
6.1237e-11
6.18301e-11
6.24046e-11
6.29564e-11
6.34822e-11
6.39791e-11
6.44447e-11
6.48774e-11
6.5276e-11
6.56402e-11
6.59697e-11
6.62652e-11
6.65274e-11
6.67575e-11
6.69568e-11
6.71269e-11
6.72694e-11
6.73856e-11
6.74769e-11
6.75447e-11
6.75903e-11
6.76152e-11
6.76215e-11
6.7612e-11
6.75886e-11
6.75518e-11
6.75008e-11
6.74379e-11
6.73708e-11
6.72909e-11
6.71787e-11
6.70264e-11
6.67726e-11
6.6154e-11
6.64001e-11
6.79898e-11
7.11837e-11
2.90137e-10
5.45706e-10
3.57448e-10
2.89394e-10
2.54479e-10
2.24702e-10
1.97227e-10
1.73035e-10
1.51986e-10
1.33732e-10
1.17914e-10
1.04193e-10
9.22699e-11
8.18859e-11
7.28223e-11
6.48933e-11
5.79416e-11
5.18334e-11
4.64553e-11
4.17103e-11
3.75155e-11
3.37998e-11
3.05021e-11
2.75697e-11
2.4957e-11
2.26246e-11
2.05385e-11
1.86688e-11
1.69899e-11
1.54792e-11
1.41174e-11
1.28873e-11
1.17742e-11
1.07649e-11
9.84828e-12
9.01431e-12
8.25434e-12
7.56072e-12
6.92676e-12
6.34655e-12
5.81487e-12
5.32711e-12
4.87919e-12
4.46745e-12
4.08865e-12
3.7399e-12
3.41863e-12
3.12254e-12
2.8496e-12
2.59797e-12
2.36596e-12
2.15202e-12
1.95093e-12
1.76221e-12
1.58533e-12
1.41977e-12
1.26513e-12
1.12115e-12
9.87596e-13
8.64326e-13
7.51244e-13
6.48273e-13
5.55372e-13
4.72376e-13
3.98916e-13
3.34593e-13
2.78911e-13
2.31185e-13
1.9064e-13
1.56499e-13
1.28e-13
1.04329e-13
8.47407e-14
6.86231e-14
5.54131e-14
4.46053e-14
3.57981e-14
2.86403e-14
2.28496e-14
1.81586e-14
1.43906e-14
1.13473e-14
8.93741e-15
6.94839e-15
5.42865e-15
4.35052e-15
3.57792e-15
1.67324e-15
6.38379e-16
4.12754e-17
-5.61403e-17
-8.50334e-17
-4.34487e-17
7.52904e-17
7.4846e-18
7.24621e-18
7.03281e-18
6.79109e-18
6.57283e-18
6.32879e-18
6.10677e-18
5.85874e-18
5.62952e-18
5.37544e-18
5.13738e-18
4.87602e-18
4.63143e-18
4.3698e-18
4.1237e-18
3.86144e-18
3.61542e-18
3.36244e-18
3.12841e-18
2.89527e-18
2.69235e-18
2.5114e-18
2.36103e-18
2.22738e-18
2.10292e-18
1.98973e-18
1.88578e-18
1.78579e-18
1.69155e-18
1.61262e-18
1.53846e-18
1.46653e-18
1.39191e-18
1.3225e-18
1.25006e-18
1.17853e-18
1.10574e-18
1.04716e-18
9.88553e-19
9.31627e-19
8.70579e-19
8.13252e-19
7.52488e-19
6.56735e-19
5.93213e-19
5.34225e-19
4.7384e-19
4.12662e-19
3.49184e-19
2.89526e-19
2.28466e-19
1.70287e-19
1.10271e-19
1.21428e-19
1.12125e-19
1.07975e-19
4.80253e-20
4.86027e-20
4.93835e-20
5.03588e-20
5.22265e-20
5.50116e-20
5.96108e-20
6.43298e-20
7.21732e-20
7.75374e-20
8.72874e-20
9.63095e-20
1.07716e-19
1.15878e-19
1.27209e-19
1.38875e-19
1.54957e-19
1.68703e-19
1.87649e-19
2.07492e-19
2.31315e-19
2.59938e-19
2.9438e-19
3.3129e-19
3.7437e-19
4.3822e-19
5.07228e-19
6.03827e-19
6.72336e-19
1.19867e-18
1.71213e-18
2.25488e-18
2.83777e-18
3.41125e-18
4.04568e-18
4.6837e-18
5.37969e-18
6.01461e-18
6.71356e-18
7.41795e-18
8.18691e-18
8.96898e-18
9.76648e-18
1.06135e-17
1.14197e-17
1.29265e-17
1.42515e-17
1.56161e-17
1.66154e-17
1.80875e-17
1.8871e-17
1.97539e-17
1.99086e-17
2.21796e-17
2.29693e-17
2.37947e-17
2.26492e-17
2.28124e-17
2.12636e-17
2.09521e-17
)
;

boundaryField
{
    inandouthalf11
    {
        type            cyclic;
        value           nonuniform List<scalar> 
100
(
-2.07472e-10
-2.06414e-10
-2.06233e-10
-2.06375e-10
-2.06452e-10
-2.06479e-10
-2.06507e-10
-2.06543e-10
-2.06579e-10
-2.06616e-10
-2.06653e-10
-2.0669e-10
-2.06727e-10
-2.06764e-10
-2.06801e-10
-2.06839e-10
-2.06877e-10
-2.06915e-10
-2.06952e-10
-2.06991e-10
-2.07029e-10
-2.07068e-10
-2.07106e-10
-2.07145e-10
-2.07184e-10
-2.07224e-10
-2.07263e-10
-2.07303e-10
-2.07342e-10
-2.07382e-10
-2.07423e-10
-2.07463e-10
-2.07503e-10
-2.07545e-10
-2.07586e-10
-2.07627e-10
-2.07668e-10
-2.0771e-10
-2.07753e-10
-2.07794e-10
-2.07837e-10
-2.0788e-10
-2.07923e-10
-2.07967e-10
-2.0801e-10
-2.08055e-10
-2.08099e-10
-2.08143e-10
-2.08189e-10
-2.08235e-10
-2.0828e-10
-2.08326e-10
-2.08373e-10
-2.0842e-10
-2.08467e-10
-2.08516e-10
-2.08563e-10
-2.08612e-10
-2.08661e-10
-2.0871e-10
-2.08761e-10
-2.08811e-10
-2.08862e-10
-2.08914e-10
-2.08966e-10
-2.09018e-10
-2.09072e-10
-2.09126e-10
-2.0918e-10
-2.09235e-10
-2.09292e-10
-2.09349e-10
-2.09407e-10
-2.09466e-10
-2.09527e-10
-2.09589e-10
-2.09651e-10
-2.09715e-10
-2.09781e-10
-2.09848e-10
-2.09917e-10
-2.09987e-10
-2.10059e-10
-2.10132e-10
-2.10207e-10
-2.10284e-10
-2.10362e-10
-2.10442e-10
-2.10524e-10
-2.10607e-10
-2.10691e-10
-2.10777e-10
-2.10865e-10
-2.10954e-10
-2.11045e-10
-2.11137e-10
-2.11231e-10
-2.11326e-10
-2.11422e-10
-2.1152e-10
)
;
    }
    inandouthalf12
    {
        type            cyclic;
        value           nonuniform List<scalar> 
100
(
2.07472e-10
2.06414e-10
2.06233e-10
2.06375e-10
2.06452e-10
2.06479e-10
2.06507e-10
2.06543e-10
2.06579e-10
2.06616e-10
2.06653e-10
2.0669e-10
2.06727e-10
2.06764e-10
2.06801e-10
2.06839e-10
2.06877e-10
2.06915e-10
2.06952e-10
2.06991e-10
2.07029e-10
2.07068e-10
2.07106e-10
2.07145e-10
2.07184e-10
2.07224e-10
2.07263e-10
2.07303e-10
2.07342e-10
2.07382e-10
2.07423e-10
2.07463e-10
2.07503e-10
2.07545e-10
2.07586e-10
2.07627e-10
2.07668e-10
2.0771e-10
2.07753e-10
2.07794e-10
2.07837e-10
2.0788e-10
2.07923e-10
2.07967e-10
2.0801e-10
2.08055e-10
2.08099e-10
2.08143e-10
2.08189e-10
2.08235e-10
2.0828e-10
2.08326e-10
2.08373e-10
2.0842e-10
2.08467e-10
2.08516e-10
2.08563e-10
2.08612e-10
2.08661e-10
2.0871e-10
2.08761e-10
2.08811e-10
2.08862e-10
2.08914e-10
2.08966e-10
2.09018e-10
2.09072e-10
2.09126e-10
2.0918e-10
2.09235e-10
2.09292e-10
2.09349e-10
2.09407e-10
2.09466e-10
2.09527e-10
2.09589e-10
2.09651e-10
2.09715e-10
2.09781e-10
2.09848e-10
2.09917e-10
2.09987e-10
2.10059e-10
2.10132e-10
2.10207e-10
2.10284e-10
2.10362e-10
2.10442e-10
2.10524e-10
2.10607e-10
2.10691e-10
2.10777e-10
2.10865e-10
2.10954e-10
2.11045e-10
2.11137e-10
2.11231e-10
2.11326e-10
2.11422e-10
2.1152e-10
)
;
    }
    inandouthalf21
    {
        type            cyclic;
        value           nonuniform List<scalar> 
100
(
-2.11619e-10
-2.11719e-10
-2.1182e-10
-2.11923e-10
-2.12028e-10
-2.12134e-10
-2.12242e-10
-2.12352e-10
-2.12464e-10
-2.12578e-10
-2.12696e-10
-2.12817e-10
-2.12943e-10
-2.13072e-10
-2.13207e-10
-2.13347e-10
-2.13494e-10
-2.13648e-10
-2.13809e-10
-2.13978e-10
-2.14155e-10
-2.14342e-10
-2.14539e-10
-2.14745e-10
-2.14963e-10
-2.15191e-10
-2.15432e-10
-2.15685e-10
-2.15952e-10
-2.16233e-10
-2.16529e-10
-2.16841e-10
-2.1717e-10
-2.1752e-10
-2.17896e-10
-2.18296e-10
-2.18719e-10
-2.19172e-10
-2.19676e-10
-2.20256e-10
-2.20884e-10
-2.21485e-10
-2.22211e-10
-2.2316e-10
-2.24354e-10
-2.26645e-10
-2.32954e-10
-2.3488e-10
-2.38905e-10
-2.94738e-10
-1.24365e-08
-1.29674e-08
-8.71581e-09
-3.70151e-09
1.58585e-09
7.00007e-09
1.2473e-08
1.79654e-08
2.34523e-08
2.89164e-08
3.43458e-08
3.97318e-08
4.50681e-08
5.03502e-08
5.55749e-08
6.07397e-08
6.58432e-08
7.08843e-08
7.58626e-08
8.07778e-08
8.56301e-08
9.04196e-08
9.51469e-08
9.98126e-08
1.04417e-07
1.08962e-07
1.13447e-07
1.17874e-07
1.22243e-07
1.26555e-07
1.30812e-07
1.35014e-07
1.39162e-07
1.43257e-07
1.47299e-07
1.5129e-07
1.55231e-07
1.59122e-07
1.62963e-07
1.66757e-07
1.70503e-07
1.74203e-07
1.77856e-07
1.81464e-07
1.85027e-07
1.88545e-07
1.9202e-07
1.95452e-07
1.98841e-07
2.02187e-07
)
;
    }
    inandouthalf22
    {
        type            cyclic;
        value           nonuniform List<scalar> 
100
(
2.11619e-10
2.11719e-10
2.1182e-10
2.11923e-10
2.12028e-10
2.12134e-10
2.12242e-10
2.12352e-10
2.12464e-10
2.12578e-10
2.12696e-10
2.12817e-10
2.12943e-10
2.13072e-10
2.13207e-10
2.13347e-10
2.13494e-10
2.13648e-10
2.13809e-10
2.13978e-10
2.14155e-10
2.14342e-10
2.14539e-10
2.14745e-10
2.14963e-10
2.15191e-10
2.15432e-10
2.15685e-10
2.15952e-10
2.16233e-10
2.16529e-10
2.16841e-10
2.1717e-10
2.1752e-10
2.17896e-10
2.18296e-10
2.18719e-10
2.19172e-10
2.19676e-10
2.20256e-10
2.20884e-10
2.21485e-10
2.22211e-10
2.2316e-10
2.24354e-10
2.26645e-10
2.32954e-10
2.3488e-10
2.38905e-10
2.94738e-10
1.24365e-08
1.29674e-08
8.71581e-09
3.70151e-09
-1.58585e-09
-7.00007e-09
-1.2473e-08
-1.79654e-08
-2.34523e-08
-2.89164e-08
-3.43458e-08
-3.97318e-08
-4.50681e-08
-5.03502e-08
-5.55749e-08
-6.07397e-08
-6.58432e-08
-7.08843e-08
-7.58626e-08
-8.07778e-08
-8.56301e-08
-9.04196e-08
-9.51469e-08
-9.98126e-08
-1.04417e-07
-1.08962e-07
-1.13447e-07
-1.17874e-07
-1.22243e-07
-1.26555e-07
-1.30812e-07
-1.35014e-07
-1.39162e-07
-1.43257e-07
-1.47299e-07
-1.5129e-07
-1.55231e-07
-1.59122e-07
-1.62963e-07
-1.66757e-07
-1.70503e-07
-1.74203e-07
-1.77856e-07
-1.81464e-07
-1.85027e-07
-1.88545e-07
-1.9202e-07
-1.95452e-07
-1.98841e-07
-2.02187e-07
)
;
    }
    inandouthalf31
    {
        type            cyclic;
        value           nonuniform List<scalar> 
110
(
2.05493e-07
2.13028e-07
2.20809e-07
2.28844e-07
2.37139e-07
2.45702e-07
2.54539e-07
2.63658e-07
2.73065e-07
2.82769e-07
2.92777e-07
3.03094e-07
3.1373e-07
3.24689e-07
3.3598e-07
3.47608e-07
3.5958e-07
3.71902e-07
3.84579e-07
3.97617e-07
4.11018e-07
4.24789e-07
4.3893e-07
4.53444e-07
4.68332e-07
4.83593e-07
4.99225e-07
5.15223e-07
5.31582e-07
5.48293e-07
5.65345e-07
5.82722e-07
6.00406e-07
6.18376e-07
6.36603e-07
6.55055e-07
6.73696e-07
6.92482e-07
7.11364e-07
7.30289e-07
7.49201e-07
7.68042e-07
7.86753e-07
8.05283e-07
8.23589e-07
8.41639e-07
8.59417e-07
8.7692e-07
8.9416e-07
9.11161e-07
9.27956e-07
9.44586e-07
9.61101e-07
9.77563e-07
9.94046e-07
1.01064e-06
1.02746e-06
1.04464e-06
1.06238e-06
1.08104e-06
1.10169e-06
1.1239e-06
1.14671e-06
1.16999e-06
1.19373e-06
1.21796e-06
1.24269e-06
1.26791e-06
1.29364e-06
1.3199e-06
1.34669e-06
1.37403e-06
1.40192e-06
1.43037e-06
1.4594e-06
1.48902e-06
1.51925e-06
1.55008e-06
1.58155e-06
1.61365e-06
1.6464e-06
1.67982e-06
1.71391e-06
1.7487e-06
1.7842e-06
1.82041e-06
1.85736e-06
1.89506e-06
1.93352e-06
1.97277e-06
2.01281e-06
2.05367e-06
2.09535e-06
2.13788e-06
2.18127e-06
2.22555e-06
2.27072e-06
2.31681e-06
2.36384e-06
2.41182e-06
2.46077e-06
2.51072e-06
2.56168e-06
2.61367e-06
2.66672e-06
2.72085e-06
2.77608e-06
2.83242e-06
2.88991e-06
2.94857e-06
)
;
    }
    inandouthalf32
    {
        type            cyclic;
        value           nonuniform List<scalar> 
110
(
-2.05493e-07
-2.13028e-07
-2.20809e-07
-2.28844e-07
-2.37139e-07
-2.45702e-07
-2.54539e-07
-2.63658e-07
-2.73065e-07
-2.82769e-07
-2.92777e-07
-3.03094e-07
-3.1373e-07
-3.24689e-07
-3.3598e-07
-3.47608e-07
-3.5958e-07
-3.71902e-07
-3.84579e-07
-3.97617e-07
-4.11018e-07
-4.24789e-07
-4.3893e-07
-4.53444e-07
-4.68332e-07
-4.83593e-07
-4.99225e-07
-5.15223e-07
-5.31582e-07
-5.48293e-07
-5.65345e-07
-5.82722e-07
-6.00406e-07
-6.18376e-07
-6.36603e-07
-6.55055e-07
-6.73696e-07
-6.92482e-07
-7.11364e-07
-7.30289e-07
-7.49201e-07
-7.68042e-07
-7.86753e-07
-8.05283e-07
-8.23589e-07
-8.41639e-07
-8.59417e-07
-8.7692e-07
-8.9416e-07
-9.11161e-07
-9.27956e-07
-9.44586e-07
-9.61101e-07
-9.77563e-07
-9.94046e-07
-1.01064e-06
-1.02746e-06
-1.04464e-06
-1.06238e-06
-1.08104e-06
-1.10169e-06
-1.1239e-06
-1.14671e-06
-1.16999e-06
-1.19373e-06
-1.21796e-06
-1.24269e-06
-1.26791e-06
-1.29364e-06
-1.3199e-06
-1.34669e-06
-1.37403e-06
-1.40192e-06
-1.43037e-06
-1.4594e-06
-1.48902e-06
-1.51925e-06
-1.55008e-06
-1.58155e-06
-1.61365e-06
-1.6464e-06
-1.67982e-06
-1.71391e-06
-1.7487e-06
-1.7842e-06
-1.82041e-06
-1.85736e-06
-1.89506e-06
-1.93352e-06
-1.97277e-06
-2.01281e-06
-2.05367e-06
-2.09535e-06
-2.13788e-06
-2.18127e-06
-2.22555e-06
-2.27072e-06
-2.31681e-06
-2.36384e-06
-2.41182e-06
-2.46077e-06
-2.51072e-06
-2.56168e-06
-2.61367e-06
-2.66672e-06
-2.72085e-06
-2.77608e-06
-2.83242e-06
-2.88991e-06
-2.94857e-06
)
;
    }
    inandouthalf41
    {
        type            cyclic;
        value           nonuniform List<scalar> 
50
(
2.63927e-06
2.63927e-06
2.63927e-06
2.63927e-06
2.63927e-06
2.63927e-06
2.63927e-06
2.63927e-06
2.63927e-06
2.63927e-06
2.63927e-06
2.63927e-06
2.63927e-06
2.63927e-06
2.63927e-06
2.63927e-06
2.63927e-06
2.63927e-06
2.63927e-06
2.63927e-06
2.63927e-06
2.63927e-06
2.63927e-06
2.63927e-06
2.63927e-06
2.63927e-06
2.63927e-06
2.63927e-06
2.63927e-06
2.63927e-06
2.63927e-06
2.63927e-06
2.63927e-06
2.63927e-06
2.63927e-06
2.63927e-06
2.63927e-06
2.63927e-06
2.63927e-06
2.63927e-06
2.63927e-06
2.63927e-06
2.63927e-06
2.63927e-06
2.63927e-06
2.63927e-06
2.63927e-06
2.63927e-06
2.63927e-06
2.63927e-06
)
;
    }
    inandouthalf42
    {
        type            cyclic;
        value           nonuniform List<scalar> 
50
(
-2.63927e-06
-2.63927e-06
-2.63927e-06
-2.63927e-06
-2.63927e-06
-2.63927e-06
-2.63927e-06
-2.63927e-06
-2.63927e-06
-2.63927e-06
-2.63927e-06
-2.63927e-06
-2.63927e-06
-2.63927e-06
-2.63927e-06
-2.63927e-06
-2.63927e-06
-2.63927e-06
-2.63927e-06
-2.63927e-06
-2.63927e-06
-2.63927e-06
-2.63927e-06
-2.63927e-06
-2.63927e-06
-2.63927e-06
-2.63927e-06
-2.63927e-06
-2.63927e-06
-2.63927e-06
-2.63927e-06
-2.63927e-06
-2.63927e-06
-2.63927e-06
-2.63927e-06
-2.63927e-06
-2.63927e-06
-2.63927e-06
-2.63927e-06
-2.63927e-06
-2.63927e-06
-2.63927e-06
-2.63927e-06
-2.63927e-06
-2.63927e-06
-2.63927e-06
-2.63927e-06
-2.63927e-06
-2.63927e-06
-2.63927e-06
)
;
    }
    top
    {
        type            symmetryPlane;
        value           uniform 0;
    }
    walls
    {
        type            fixedValue;
        value           uniform 0;
    }
    frontAndBackPlanes
    {
        type            empty;
        value           nonuniform 0();
    }
}


// ************************************************************************* //
