/*--------------------------------*- C++ -*----------------------------------*\
| =========                 |                                                 |
| \\      /  F ield         | OpenFOAM: The Open Source CFD Toolbox           |
|  \\    /   O peration     | Version:  2.4.x                                 |
|   \\  /    A nd           | Web:      www.OpenFOAM.org                      |
|    \\/     M anipulation  |                                                 |
\*---------------------------------------------------------------------------*/
FoamFile
{
    version     2.0;
    format      ascii;
    class       surfaceScalarField;
    location    "7.2";
    object      phib_0;
}
// * * * * * * * * * * * * * * * * * * * * * * * * * * * * * * * * * * * * * //

dimensions      [0 3 -1 0 0 0 0];

internalField   nonuniform List<scalar> 
359
(
3.65742e-13
9.32083e-13
1.44334e-12
1.92147e-12
2.4079e-12
2.90453e-12
3.4041e-12
3.90403e-12
4.4046e-12
4.90694e-12
5.41177e-12
5.91917e-12
6.4291e-12
6.94144e-12
7.45623e-12
7.9736e-12
8.49371e-12
9.01663e-12
9.54239e-12
1.00711e-11
1.06027e-11
1.11372e-11
1.16748e-11
1.22153e-11
1.27589e-11
1.33055e-11
1.3855e-11
1.44076e-11
1.49631e-11
1.55216e-11
1.60829e-11
1.66472e-11
1.7214e-11
1.77838e-11
1.8356e-11
1.89308e-11
1.95078e-11
2.0087e-11
2.06685e-11
2.12515e-11
2.18364e-11
2.24228e-11
2.30102e-11
2.35988e-11
2.41883e-11
2.47786e-11
2.53696e-11
2.59609e-11
2.65526e-11
2.71453e-11
2.77384e-11
2.83325e-11
2.89275e-11
2.95237e-11
3.01208e-11
3.07196e-11
3.13196e-11
3.19212e-11
3.25242e-11
3.31285e-11
3.37346e-11
3.4342e-11
3.4951e-11
3.55609e-11
3.61708e-11
3.67799e-11
3.7387e-11
3.79909e-11
3.85903e-11
3.91837e-11
3.97703e-11
4.03493e-11
4.09193e-11
4.14797e-11
4.20294e-11
4.25681e-11
4.30945e-11
4.36082e-11
4.41089e-11
4.45969e-11
4.50725e-11
4.55367e-11
4.59907e-11
4.64358e-11
4.68735e-11
4.73052e-11
4.77325e-11
4.81566e-11
4.85789e-11
4.90008e-11
4.94239e-11
4.98497e-11
5.02798e-11
5.07162e-11
5.11604e-11
5.16143e-11
5.20794e-11
5.25573e-11
5.3049e-11
5.35558e-11
5.40782e-11
5.46167e-11
5.51713e-11
5.57416e-11
5.63267e-11
5.69251e-11
5.75349e-11
5.81534e-11
5.87777e-11
5.9404e-11
6.00285e-11
6.06469e-11
6.12549e-11
6.18482e-11
6.24226e-11
6.29743e-11
6.34997e-11
6.39961e-11
6.44612e-11
6.48932e-11
6.5291e-11
6.56543e-11
6.59829e-11
6.62774e-11
6.65386e-11
6.67677e-11
6.69661e-11
6.71353e-11
6.72769e-11
6.73924e-11
6.7483e-11
6.75501e-11
6.75951e-11
6.76195e-11
6.76255e-11
6.76155e-11
6.75919e-11
6.75549e-11
6.75036e-11
6.74405e-11
6.73732e-11
6.72931e-11
6.71808e-11
6.70285e-11
6.67747e-11
6.6156e-11
6.6405e-11
6.80012e-11
7.12021e-11
2.91207e-10
5.46163e-10
3.57934e-10
2.89781e-10
2.54811e-10
2.24973e-10
1.97444e-10
1.7321e-10
1.52128e-10
1.33847e-10
1.18009e-10
1.04271e-10
9.23339e-11
8.1939e-11
7.28665e-11
6.49302e-11
5.79725e-11
5.18595e-11
4.64773e-11
4.1729e-11
3.75314e-11
3.38134e-11
3.05137e-11
2.75796e-11
2.49656e-11
2.2632e-11
2.05449e-11
1.86743e-11
1.69947e-11
1.54834e-11
1.4121e-11
1.28905e-11
1.17769e-11
1.07673e-11
9.85031e-12
9.01607e-12
8.25584e-12
7.562e-12
6.92785e-12
6.34746e-12
5.81563e-12
5.32774e-12
4.8797e-12
4.46785e-12
4.08896e-12
3.74013e-12
3.41879e-12
3.12264e-12
2.84965e-12
2.59797e-12
2.36592e-12
2.15195e-12
1.95084e-12
1.7621e-12
1.5852e-12
1.41963e-12
1.26498e-12
1.121e-12
9.87443e-13
8.64175e-13
7.51098e-13
6.48132e-13
5.55239e-13
4.72252e-13
3.98802e-13
3.34488e-13
2.78817e-13
2.31101e-13
1.90566e-13
1.56435e-13
1.27944e-13
1.04281e-13
8.47e-14
6.85886e-14
5.53842e-14
4.45813e-14
3.57782e-14
2.86239e-14
2.28363e-14
1.81478e-14
1.4382e-14
1.13404e-14
8.93207e-15
6.9443e-15
5.42549e-15
4.348e-15
3.57641e-15
1.67165e-15
6.37544e-16
4.04307e-17
-5.63353e-17
-8.50566e-17
-4.32648e-17
7.54476e-17
7.71237e-18
7.46545e-18
7.24341e-18
6.99536e-18
6.77021e-18
6.51839e-18
6.28835e-18
6.03268e-18
5.79575e-18
5.53353e-18
5.28764e-18
5.01938e-18
4.76753e-18
4.49883e-18
4.24518e-18
3.9771e-18
3.72449e-18
3.46456e-18
3.22367e-18
2.98526e-18
2.77672e-18
2.59033e-18
2.43412e-18
2.29669e-18
2.16806e-18
2.05143e-18
1.94386e-18
1.84015e-18
1.74292e-18
1.66131e-18
1.58393e-18
1.50893e-18
1.43195e-18
1.35993e-18
1.28506e-18
1.21139e-18
1.13697e-18
1.07568e-18
1.01479e-18
9.55999e-19
8.9429e-19
8.3561e-19
7.74048e-19
6.7674e-19
6.12727e-19
5.51322e-19
4.88892e-19
4.25497e-19
3.61455e-19
2.99755e-19
2.3745e-19
1.7897e-19
1.22792e-19
1.23079e-19
1.07345e-19
9.61167e-20
2.96867e-20
2.34415e-20
1.47288e-20
6.30477e-21
-5.24515e-21
-8.23458e-21
-1.59547e-20
-2.37045e-20
-3.86451e-20
-4.78855e-20
-6.58742e-20
-8.18545e-20
-1.03599e-19
-1.13866e-19
-1.30513e-19
-1.46723e-19
-1.7012e-19
-1.88688e-19
-2.1504e-19
-2.42741e-19
-2.76561e-19
-3.12915e-19
-3.56222e-19
-4.0212e-19
-4.56199e-19
-5.29812e-19
-6.10176e-19
-7.18582e-19
-8.0656e-19
-1.34077e-18
-1.86716e-18
-2.42338e-18
-3.01565e-18
-3.60279e-18
-4.24379e-18
-4.88856e-18
-5.5832e-18
-6.23213e-18
-6.93442e-18
-7.64225e-18
-8.40206e-18
-9.18348e-18
-9.96854e-18
-1.08029e-17
-1.15898e-17
-1.30832e-17
-1.43897e-17
-1.57358e-17
-1.67122e-17
-1.81591e-17
-1.89196e-17
-1.97763e-17
-1.99207e-17
-2.21208e-17
-2.28726e-17
-2.36577e-17
-2.25285e-17
-2.26238e-17
-2.11173e-17
-2.08718e-17
)
;

boundaryField
{
    inandouthalf11
    {
        type            cyclic;
        value           nonuniform List<scalar> 
100
(
-2.07437e-10
-2.06379e-10
-2.06198e-10
-2.0634e-10
-2.06417e-10
-2.06444e-10
-2.06472e-10
-2.06507e-10
-2.06544e-10
-2.06581e-10
-2.06618e-10
-2.06655e-10
-2.06692e-10
-2.06729e-10
-2.06766e-10
-2.06804e-10
-2.06841e-10
-2.06879e-10
-2.06917e-10
-2.06956e-10
-2.06994e-10
-2.07032e-10
-2.07071e-10
-2.0711e-10
-2.07149e-10
-2.07188e-10
-2.07227e-10
-2.07267e-10
-2.07307e-10
-2.07347e-10
-2.07387e-10
-2.07428e-10
-2.07468e-10
-2.07509e-10
-2.0755e-10
-2.07592e-10
-2.07633e-10
-2.07675e-10
-2.07717e-10
-2.07759e-10
-2.07802e-10
-2.07845e-10
-2.07887e-10
-2.07931e-10
-2.07975e-10
-2.08019e-10
-2.08064e-10
-2.08108e-10
-2.08153e-10
-2.08199e-10
-2.08244e-10
-2.08291e-10
-2.08337e-10
-2.08384e-10
-2.08431e-10
-2.0848e-10
-2.08527e-10
-2.08576e-10
-2.08625e-10
-2.08674e-10
-2.08725e-10
-2.08775e-10
-2.08826e-10
-2.08878e-10
-2.0893e-10
-2.08982e-10
-2.09036e-10
-2.0909e-10
-2.09144e-10
-2.09199e-10
-2.09255e-10
-2.09313e-10
-2.0937e-10
-2.0943e-10
-2.0949e-10
-2.09552e-10
-2.09615e-10
-2.09679e-10
-2.09745e-10
-2.09812e-10
-2.0988e-10
-2.0995e-10
-2.10022e-10
-2.10095e-10
-2.10171e-10
-2.10247e-10
-2.10326e-10
-2.10406e-10
-2.10487e-10
-2.1057e-10
-2.10654e-10
-2.1074e-10
-2.10828e-10
-2.10917e-10
-2.11008e-10
-2.111e-10
-2.11194e-10
-2.11289e-10
-2.11385e-10
-2.11482e-10
)
;
    }
    inandouthalf12
    {
        type            cyclic;
        value           nonuniform List<scalar> 
100
(
2.07437e-10
2.06379e-10
2.06198e-10
2.0634e-10
2.06417e-10
2.06444e-10
2.06472e-10
2.06507e-10
2.06544e-10
2.06581e-10
2.06618e-10
2.06655e-10
2.06692e-10
2.06729e-10
2.06766e-10
2.06804e-10
2.06841e-10
2.06879e-10
2.06917e-10
2.06956e-10
2.06994e-10
2.07032e-10
2.07071e-10
2.0711e-10
2.07149e-10
2.07188e-10
2.07227e-10
2.07267e-10
2.07307e-10
2.07347e-10
2.07387e-10
2.07428e-10
2.07468e-10
2.07509e-10
2.0755e-10
2.07592e-10
2.07633e-10
2.07675e-10
2.07717e-10
2.07759e-10
2.07802e-10
2.07845e-10
2.07887e-10
2.07931e-10
2.07975e-10
2.08019e-10
2.08064e-10
2.08108e-10
2.08153e-10
2.08199e-10
2.08244e-10
2.08291e-10
2.08337e-10
2.08384e-10
2.08431e-10
2.0848e-10
2.08527e-10
2.08576e-10
2.08625e-10
2.08674e-10
2.08725e-10
2.08775e-10
2.08826e-10
2.08878e-10
2.0893e-10
2.08982e-10
2.09036e-10
2.0909e-10
2.09144e-10
2.09199e-10
2.09255e-10
2.09313e-10
2.0937e-10
2.0943e-10
2.0949e-10
2.09552e-10
2.09615e-10
2.09679e-10
2.09745e-10
2.09812e-10
2.0988e-10
2.0995e-10
2.10022e-10
2.10095e-10
2.10171e-10
2.10247e-10
2.10326e-10
2.10406e-10
2.10487e-10
2.1057e-10
2.10654e-10
2.1074e-10
2.10828e-10
2.10917e-10
2.11008e-10
2.111e-10
2.11194e-10
2.11289e-10
2.11385e-10
2.11482e-10
)
;
    }
    inandouthalf21
    {
        type            cyclic;
        value           nonuniform List<scalar> 
100
(
-2.11581e-10
-2.11681e-10
-2.11783e-10
-2.11886e-10
-2.1199e-10
-2.12096e-10
-2.12204e-10
-2.12313e-10
-2.12426e-10
-2.1254e-10
-2.12658e-10
-2.12779e-10
-2.12904e-10
-2.13033e-10
-2.13168e-10
-2.13308e-10
-2.13455e-10
-2.13609e-10
-2.13769e-10
-2.13939e-10
-2.14116e-10
-2.14303e-10
-2.145e-10
-2.14706e-10
-2.14924e-10
-2.15152e-10
-2.15393e-10
-2.15646e-10
-2.15913e-10
-2.16194e-10
-2.1649e-10
-2.16802e-10
-2.17131e-10
-2.17482e-10
-2.17857e-10
-2.18258e-10
-2.18681e-10
-2.19133e-10
-2.19637e-10
-2.20217e-10
-2.20845e-10
-2.21447e-10
-2.22172e-10
-2.23121e-10
-2.24314e-10
-2.26605e-10
-2.32913e-10
-2.34839e-10
-2.38865e-10
-2.94647e-10
-1.23944e-08
-1.28795e-08
-8.60889e-09
-3.5829e-09
1.71303e-09
7.13401e-09
1.26125e-08
1.81097e-08
2.36006e-08
2.90684e-08
3.4501e-08
3.98898e-08
4.52287e-08
5.05132e-08
5.57399e-08
6.09067e-08
6.6012e-08
7.10548e-08
7.60346e-08
8.09513e-08
8.58048e-08
9.05955e-08
9.5324e-08
9.99907e-08
1.04596e-07
1.09142e-07
1.13628e-07
1.18056e-07
1.22426e-07
1.26739e-07
1.30996e-07
1.35198e-07
1.39347e-07
1.43442e-07
1.47485e-07
1.51477e-07
1.55418e-07
1.59309e-07
1.63152e-07
1.66946e-07
1.70692e-07
1.74392e-07
1.78046e-07
1.81654e-07
1.85217e-07
1.88736e-07
1.92211e-07
1.95643e-07
1.99032e-07
2.02379e-07
)
;
    }
    inandouthalf22
    {
        type            cyclic;
        value           nonuniform List<scalar> 
100
(
2.11581e-10
2.11681e-10
2.11783e-10
2.11886e-10
2.1199e-10
2.12096e-10
2.12204e-10
2.12313e-10
2.12426e-10
2.1254e-10
2.12658e-10
2.12779e-10
2.12904e-10
2.13033e-10
2.13168e-10
2.13308e-10
2.13455e-10
2.13609e-10
2.13769e-10
2.13939e-10
2.14116e-10
2.14303e-10
2.145e-10
2.14706e-10
2.14924e-10
2.15152e-10
2.15393e-10
2.15646e-10
2.15913e-10
2.16194e-10
2.1649e-10
2.16802e-10
2.17131e-10
2.17482e-10
2.17857e-10
2.18258e-10
2.18681e-10
2.19133e-10
2.19637e-10
2.20217e-10
2.20845e-10
2.21447e-10
2.22172e-10
2.23121e-10
2.24314e-10
2.26605e-10
2.32913e-10
2.34839e-10
2.38865e-10
2.94647e-10
1.23944e-08
1.28795e-08
8.60889e-09
3.5829e-09
-1.71303e-09
-7.13401e-09
-1.26125e-08
-1.81097e-08
-2.36006e-08
-2.90684e-08
-3.4501e-08
-3.98898e-08
-4.52287e-08
-5.05132e-08
-5.57399e-08
-6.09067e-08
-6.6012e-08
-7.10548e-08
-7.60346e-08
-8.09513e-08
-8.58048e-08
-9.05955e-08
-9.5324e-08
-9.99907e-08
-1.04596e-07
-1.09142e-07
-1.13628e-07
-1.18056e-07
-1.22426e-07
-1.26739e-07
-1.30996e-07
-1.35198e-07
-1.39347e-07
-1.43442e-07
-1.47485e-07
-1.51477e-07
-1.55418e-07
-1.59309e-07
-1.63152e-07
-1.66946e-07
-1.70692e-07
-1.74392e-07
-1.78046e-07
-1.81654e-07
-1.85217e-07
-1.88736e-07
-1.92211e-07
-1.95643e-07
-1.99032e-07
-2.02379e-07
)
;
    }
    inandouthalf31
    {
        type            cyclic;
        value           nonuniform List<scalar> 
110
(
2.05685e-07
2.13224e-07
2.2101e-07
2.29049e-07
2.37348e-07
2.45915e-07
2.54757e-07
2.6388e-07
2.73293e-07
2.83002e-07
2.93014e-07
3.03337e-07
3.13977e-07
3.24942e-07
3.36238e-07
3.47871e-07
3.59849e-07
3.72177e-07
3.84859e-07
3.97902e-07
4.1131e-07
4.25086e-07
4.39234e-07
4.53754e-07
4.68648e-07
4.83916e-07
4.99554e-07
5.15559e-07
5.31925e-07
5.48643e-07
5.65701e-07
5.83085e-07
6.00776e-07
6.18753e-07
6.36987e-07
6.55447e-07
6.74094e-07
6.92887e-07
7.11777e-07
7.3071e-07
7.49629e-07
7.68476e-07
7.87195e-07
8.05733e-07
8.24046e-07
8.42104e-07
8.59889e-07
8.77401e-07
8.94649e-07
9.11659e-07
9.28463e-07
9.45102e-07
9.61627e-07
9.78099e-07
9.94593e-07
1.0112e-06
1.02802e-06
1.04522e-06
1.06298e-06
1.08165e-06
1.10231e-06
1.12454e-06
1.14736e-06
1.17064e-06
1.1944e-06
1.21865e-06
1.24338e-06
1.26862e-06
1.29437e-06
1.32064e-06
1.34745e-06
1.3748e-06
1.4027e-06
1.43117e-06
1.46022e-06
1.48986e-06
1.5201e-06
1.55095e-06
1.58243e-06
1.61455e-06
1.64733e-06
1.68076e-06
1.71488e-06
1.74968e-06
1.7852e-06
1.82143e-06
1.8584e-06
1.89612e-06
1.93461e-06
1.97388e-06
2.01394e-06
2.05482e-06
2.09653e-06
2.13908e-06
2.1825e-06
2.2268e-06
2.27199e-06
2.31811e-06
2.36516e-06
2.41317e-06
2.46215e-06
2.51212e-06
2.56311e-06
2.61514e-06
2.66822e-06
2.72238e-06
2.77763e-06
2.83401e-06
2.89153e-06
2.95022e-06
)
;
    }
    inandouthalf32
    {
        type            cyclic;
        value           nonuniform List<scalar> 
110
(
-2.05685e-07
-2.13224e-07
-2.2101e-07
-2.29049e-07
-2.37348e-07
-2.45915e-07
-2.54757e-07
-2.6388e-07
-2.73293e-07
-2.83002e-07
-2.93014e-07
-3.03337e-07
-3.13977e-07
-3.24942e-07
-3.36238e-07
-3.47871e-07
-3.59849e-07
-3.72177e-07
-3.84859e-07
-3.97902e-07
-4.1131e-07
-4.25086e-07
-4.39234e-07
-4.53754e-07
-4.68648e-07
-4.83916e-07
-4.99554e-07
-5.15559e-07
-5.31925e-07
-5.48643e-07
-5.65701e-07
-5.83085e-07
-6.00776e-07
-6.18753e-07
-6.36987e-07
-6.55447e-07
-6.74094e-07
-6.92887e-07
-7.11777e-07
-7.3071e-07
-7.49629e-07
-7.68476e-07
-7.87195e-07
-8.05733e-07
-8.24046e-07
-8.42104e-07
-8.59889e-07
-8.77401e-07
-8.94649e-07
-9.11659e-07
-9.28463e-07
-9.45102e-07
-9.61627e-07
-9.78099e-07
-9.94593e-07
-1.0112e-06
-1.02802e-06
-1.04522e-06
-1.06298e-06
-1.08165e-06
-1.10231e-06
-1.12454e-06
-1.14736e-06
-1.17064e-06
-1.1944e-06
-1.21865e-06
-1.24338e-06
-1.26862e-06
-1.29437e-06
-1.32064e-06
-1.34745e-06
-1.3748e-06
-1.4027e-06
-1.43117e-06
-1.46022e-06
-1.48986e-06
-1.5201e-06
-1.55095e-06
-1.58243e-06
-1.61455e-06
-1.64733e-06
-1.68076e-06
-1.71488e-06
-1.74968e-06
-1.7852e-06
-1.82143e-06
-1.8584e-06
-1.89612e-06
-1.93461e-06
-1.97388e-06
-2.01394e-06
-2.05482e-06
-2.09653e-06
-2.13908e-06
-2.1825e-06
-2.2268e-06
-2.27199e-06
-2.31811e-06
-2.36516e-06
-2.41317e-06
-2.46215e-06
-2.51212e-06
-2.56311e-06
-2.61514e-06
-2.66822e-06
-2.72238e-06
-2.77763e-06
-2.83401e-06
-2.89153e-06
-2.95022e-06
)
;
    }
    inandouthalf41
    {
        type            cyclic;
        value           nonuniform List<scalar> 
50
(
2.64075e-06
2.64075e-06
2.64075e-06
2.64075e-06
2.64075e-06
2.64075e-06
2.64075e-06
2.64075e-06
2.64075e-06
2.64075e-06
2.64075e-06
2.64075e-06
2.64075e-06
2.64075e-06
2.64075e-06
2.64075e-06
2.64075e-06
2.64075e-06
2.64075e-06
2.64075e-06
2.64075e-06
2.64075e-06
2.64075e-06
2.64075e-06
2.64075e-06
2.64075e-06
2.64075e-06
2.64075e-06
2.64075e-06
2.64075e-06
2.64075e-06
2.64075e-06
2.64075e-06
2.64075e-06
2.64075e-06
2.64075e-06
2.64075e-06
2.64075e-06
2.64075e-06
2.64075e-06
2.64075e-06
2.64075e-06
2.64075e-06
2.64075e-06
2.64075e-06
2.64075e-06
2.64075e-06
2.64075e-06
2.64075e-06
2.64075e-06
)
;
    }
    inandouthalf42
    {
        type            cyclic;
        value           nonuniform List<scalar> 
50
(
-2.64075e-06
-2.64075e-06
-2.64075e-06
-2.64075e-06
-2.64075e-06
-2.64075e-06
-2.64075e-06
-2.64075e-06
-2.64075e-06
-2.64075e-06
-2.64075e-06
-2.64075e-06
-2.64075e-06
-2.64075e-06
-2.64075e-06
-2.64075e-06
-2.64075e-06
-2.64075e-06
-2.64075e-06
-2.64075e-06
-2.64075e-06
-2.64075e-06
-2.64075e-06
-2.64075e-06
-2.64075e-06
-2.64075e-06
-2.64075e-06
-2.64075e-06
-2.64075e-06
-2.64075e-06
-2.64075e-06
-2.64075e-06
-2.64075e-06
-2.64075e-06
-2.64075e-06
-2.64075e-06
-2.64075e-06
-2.64075e-06
-2.64075e-06
-2.64075e-06
-2.64075e-06
-2.64075e-06
-2.64075e-06
-2.64075e-06
-2.64075e-06
-2.64075e-06
-2.64075e-06
-2.64075e-06
-2.64075e-06
-2.64075e-06
)
;
    }
    top
    {
        type            symmetryPlane;
        value           uniform 0;
    }
    walls
    {
        type            fixedValue;
        value           uniform 0;
    }
    frontAndBackPlanes
    {
        type            empty;
        value           nonuniform 0();
    }
}


// ************************************************************************* //
