/*--------------------------------*- C++ -*----------------------------------*\
| =========                 |                                                 |
| \\      /  F ield         | OpenFOAM: The Open Source CFD Toolbox           |
|  \\    /   O peration     | Version:  2.4.x                                 |
|   \\  /    A nd           | Web:      www.OpenFOAM.org                      |
|    \\/     M anipulation  |                                                 |
\*---------------------------------------------------------------------------*/
FoamFile
{
    version     2.0;
    format      ascii;
    class       volTensorField;
    location    "7.2";
    object      Tauf;
}
// * * * * * * * * * * * * * * * * * * * * * * * * * * * * * * * * * * * * * //

dimensions      [0 2 -2 0 0 0 0];

internalField   nonuniform List<tensor> 
360
(
(0 4.13887e-07 0 4.13887e-07 4.11552e-10 0 0 0 0)
(0 -1.23973e-09 0 -1.23973e-09 5.04245e-10 0 0 0 0)
(0 -3.95941e-11 0 -3.95941e-11 5.19083e-10 0 0 0 0)
(0 2.1952e-10 0 2.1952e-10 4.88576e-10 0 0 0 0)
(-5.16988e-23 1.04159e-10 0 1.04159e-10 4.86806e-10 0 0 0 0)
(-5.16988e-23 5.4882e-11 0 5.4882e-11 4.947e-10 0 0 0 0)
(-5.16988e-23 6.37946e-11 0 6.37946e-11 4.98879e-10 0 0 0 0)
(0 7.17947e-11 0 7.17947e-11 4.99962e-10 0 0 0 0)
(-5.16988e-23 7.32932e-11 0 7.32932e-11 5.00803e-10 0 0 0 0)
(0 7.4248e-11 0 7.4248e-11 5.02474e-10 0 0 0 0)
(-5.16988e-23 7.42675e-11 0 7.42675e-11 5.04801e-10 0 0 0 0)
(0 7.40214e-11 0 7.40214e-11 5.07336e-10 0 0 0 0)
(-5.16988e-23 7.41016e-11 0 7.41016e-11 5.09847e-10 0 0 0 0)
(0 7.42531e-11 0 7.42531e-11 5.12294e-10 0 0 0 0)
(0 7.47516e-11 0 7.47516e-11 5.14765e-10 0 0 0 0)
(0 7.52974e-11 0 7.52974e-11 5.17356e-10 0 0 0 0)
(0 7.5596e-11 0 7.5596e-11 5.20073e-10 0 0 0 0)
(-5.16988e-23 7.57653e-11 0 7.57653e-11 5.22866e-10 0 0 0 0)
(0 7.6327e-11 0 7.6327e-11 5.25731e-10 0 0 0 0)
(0 7.65053e-11 0 7.65053e-11 5.28633e-10 0 0 0 0)
(0 7.67187e-11 0 7.67187e-11 5.31538e-10 0 0 0 0)
(-2.58494e-23 7.73316e-11 0 7.73316e-11 5.34492e-10 0 0 0 0)
(0 7.75808e-11 0 7.75808e-11 5.37483e-10 0 0 0 0)
(0 7.79652e-11 0 7.79652e-11 5.40491e-10 0 0 0 0)
(0 7.83611e-11 0 7.83611e-11 5.43505e-10 0 0 0 0)
(-5.16988e-23 7.85402e-11 0 7.85402e-11 5.46493e-10 0 0 0 0)
(0 7.90633e-11 0 7.90633e-11 5.49479e-10 0 0 0 0)
(0 7.96251e-11 0 7.96251e-11 5.52488e-10 0 0 0 0)
(0 7.97989e-11 0 7.97989e-11 5.55469e-10 0 0 0 0)
(0 8.011e-11 0 8.011e-11 5.58382e-10 0 0 0 0)
(0 8.0869e-11 0 8.0869e-11 5.61281e-10 0 0 0 0)
(0 8.08896e-11 0 8.08896e-11 5.64101e-10 0 0 0 0)
(0 8.15313e-11 0 8.15313e-11 5.66865e-10 0 0 0 0)
(0 8.21852e-11 0 8.21852e-11 5.69587e-10 0 0 0 0)
(0 8.22792e-11 0 8.22792e-11 5.72174e-10 0 0 0 0)
(2.58494e-23 8.27861e-11 0 8.27861e-11 5.74621e-10 0 0 0 0)
(0 8.32276e-11 0 8.32276e-11 5.76923e-10 0 0 0 0)
(0 8.42965e-11 0 8.42965e-11 5.79171e-10 0 0 0 0)
(0 8.40648e-11 0 8.40648e-11 5.81204e-10 0 0 0 0)
(0 8.47323e-11 0 8.47323e-11 5.83021e-10 0 0 0 0)
(0 8.59556e-11 0 8.59556e-11 5.84734e-10 0 0 0 0)
(0 8.55182e-11 0 8.55182e-11 5.86149e-10 0 0 0 0)
(2.58494e-23 8.65532e-11 0 8.65532e-11 5.87376e-10 0 0 0 0)
(0 8.74459e-11 0 8.74459e-11 5.88488e-10 0 0 0 0)
(0 8.7675e-11 0 8.7675e-11 5.89405e-10 0 0 0 0)
(0 8.88311e-11 0 8.88311e-11 5.90212e-10 0 0 0 0)
(0 8.87942e-11 0 8.87942e-11 5.90789e-10 0 0 0 0)
(0 8.92746e-11 0 8.92746e-11 5.91201e-10 0 0 0 0)
(0 9.12527e-11 0 9.12527e-11 5.91798e-10 0 0 0 0)
(0 9.13751e-11 0 9.13751e-11 5.92473e-10 0 0 0 0)
(5.16988e-23 9.17385e-11 0 9.17385e-11 5.93173e-10 0 0 0 0)
(0 9.29615e-11 0 9.29615e-11 5.93992e-10 0 0 0 0)
(0 9.37825e-11 0 9.37825e-11 5.9496e-10 0 0 0 0)
(0 9.42298e-11 0 9.42298e-11 5.96024e-10 0 0 0 0)
(0 9.53909e-11 0 9.53909e-11 5.97256e-10 0 0 0 0)
(0 9.61487e-11 0 9.61487e-11 5.98601e-10 0 0 0 0)
(0 9.67605e-11 0 9.67605e-11 5.99978e-10 0 0 0 0)
(0 9.80804e-11 0 9.80804e-11 6.01464e-10 0 0 0 0)
(0 9.79926e-11 0 9.79926e-11 6.02827e-10 0 0 0 0)
(0 9.96469e-11 0 9.96469e-11 6.04308e-10 0 0 0 0)
(0 1.00756e-10 0 1.00756e-10 6.05878e-10 0 0 0 0)
(0 1.01488e-10 0 1.01488e-10 6.07395e-10 0 0 0 0)
(0 1.02857e-10 0 1.02857e-10 6.08738e-10 0 0 0 0)
(0 1.03559e-10 0 1.03559e-10 6.09555e-10 0 0 0 0)
(0 1.04538e-10 0 1.04538e-10 6.09613e-10 0 0 0 0)
(0 1.05723e-10 0 1.05723e-10 6.08707e-10 0 0 0 0)
(0 1.07284e-10 0 1.07284e-10 6.06732e-10 0 0 0 0)
(0 1.08439e-10 0 1.08439e-10 6.03514e-10 0 0 0 0)
(0 1.09273e-10 0 1.09273e-10 5.98909e-10 0 0 0 0)
(0 1.11398e-10 0 1.11398e-10 5.93117e-10 0 0 0 0)
(0 1.14203e-10 0 1.14203e-10 5.86422e-10 0 0 0 0)
(0 1.15127e-10 0 1.15127e-10 5.78605e-10 0 0 0 0)
(0 1.17161e-10 0 1.17161e-10 5.69789e-10 0 0 0 0)
(0 1.20002e-10 0 1.20002e-10 5.60121e-10 0 0 0 0)
(0 1.2242e-10 0 1.2242e-10 5.49645e-10 0 0 0 0)
(0 1.24678e-10 0 1.24678e-10 5.38377e-10 0 0 0 0)
(0 1.26694e-10 0 1.26694e-10 5.26281e-10 0 0 0 0)
(0 1.29671e-10 0 1.29671e-10 5.13658e-10 0 0 0 0)
(0 1.327e-10 0 1.327e-10 5.00822e-10 0 0 0 0)
(0 1.35463e-10 0 1.35463e-10 4.88096e-10 0 0 0 0)
(0 1.38539e-10 0 1.38539e-10 4.75857e-10 0 0 0 0)
(0 1.42065e-10 0 1.42065e-10 4.64503e-10 0 0 0 0)
(0 1.45373e-10 0 1.45373e-10 4.54297e-10 0 0 0 0)
(0 1.48684e-10 0 1.48684e-10 4.45442e-10 0 0 0 0)
(0 1.51957e-10 0 1.51957e-10 4.38018e-10 0 0 0 0)
(0 1.55191e-10 0 1.55191e-10 4.32048e-10 0 0 0 0)
(0 1.58295e-10 0 1.58295e-10 4.27501e-10 0 0 0 0)
(0 1.61233e-10 0 1.61233e-10 4.24322e-10 0 0 0 0)
(0 1.64319e-10 0 1.64319e-10 4.22523e-10 0 0 0 0)
(0 1.67435e-10 0 1.67435e-10 4.22142e-10 0 0 0 0)
(0 1.70504e-10 0 1.70504e-10 4.23245e-10 0 0 0 0)
(0 1.73673e-10 0 1.73673e-10 4.25936e-10 0 0 0 0)
(0 1.76879e-10 0 1.76879e-10 4.30311e-10 0 0 0 0)
(0 1.79981e-10 0 1.79981e-10 4.36425e-10 0 0 0 0)
(0 1.82996e-10 0 1.82996e-10 4.44289e-10 0 0 0 0)
(0 1.85906e-10 0 1.85906e-10 4.53854e-10 0 0 0 0)
(0 1.88688e-10 0 1.88688e-10 4.65011e-10 0 0 0 0)
(0 1.91365e-10 0 1.91365e-10 4.77605e-10 0 0 0 0)
(0 1.93985e-10 0 1.93985e-10 4.91438e-10 0 0 0 0)
(0 1.96576e-10 0 1.96576e-10 5.06272e-10 0 0 0 0)
(0 1.99167e-10 0 1.99167e-10 5.21825e-10 0 0 0 0)
(0 2.01814e-10 0 2.01814e-10 5.37773e-10 0 0 0 0)
(0 2.04555e-10 0 2.04555e-10 5.5374e-10 0 0 0 0)
(0 2.07433e-10 0 2.07433e-10 5.69289e-10 0 0 0 0)
(0 2.1052e-10 0 2.1052e-10 5.83933e-10 0 0 0 0)
(0 2.13903e-10 0 2.13903e-10 5.97141e-10 0 0 0 0)
(0 2.17678e-10 0 2.17678e-10 6.08359e-10 0 0 0 0)
(0 2.21955e-10 0 2.21955e-10 6.17035e-10 0 0 0 0)
(0 2.26851e-10 0 2.26851e-10 6.22647e-10 0 0 0 0)
(0 2.32479e-10 0 2.32479e-10 6.24733e-10 0 0 0 0)
(0 2.38951e-10 0 2.38951e-10 6.22918e-10 0 0 0 0)
(0 2.46368e-10 0 2.46368e-10 6.16941e-10 0 0 0 0)
(0 2.54822e-10 0 2.54822e-10 6.0667e-10 0 0 0 0)
(0 2.64385e-10 0 2.64385e-10 5.9212e-10 0 0 0 0)
(0 2.75112e-10 0 2.75112e-10 5.73448e-10 0 0 0 0)
(0 2.87036e-10 0 2.87036e-10 5.50954e-10 0 0 0 0)
(0 3.0017e-10 0 3.0017e-10 5.25059e-10 0 0 0 0)
(0 3.14511e-10 0 3.14511e-10 4.96277e-10 0 0 0 0)
(0 3.30038e-10 0 3.30038e-10 4.65189e-10 0 0 0 0)
(0 3.46719e-10 0 3.46719e-10 4.32402e-10 0 0 0 0)
(0 3.6451e-10 0 3.6451e-10 3.98517e-10 0 0 0 0)
(0 3.83363e-10 0 3.83363e-10 3.641e-10 0 0 0 0)
(0 4.03227e-10 0 4.03227e-10 3.2966e-10 0 0 0 0)
(0 4.24083e-10 0 4.24083e-10 2.95647e-10 0 0 0 0)
(0 4.45978e-10 0 4.45978e-10 2.62445e-10 0 0 0 0)
(0 4.69072e-10 0 4.69072e-10 2.30372e-10 0 0 0 0)
(0 4.93633e-10 0 4.93633e-10 1.99664e-10 0 0 0 0)
(0 5.19917e-10 0 5.19917e-10 1.70457e-10 0 0 0 0)
(0 5.47945e-10 0 5.47945e-10 1.42773e-10 0 0 0 0)
(0 5.77369e-10 0 5.77369e-10 1.16533e-10 0 0 0 0)
(0 6.07932e-10 0 6.07932e-10 9.16041e-11 0 0 0 0)
(0 6.40848e-10 0 6.40848e-10 6.79151e-11 0 0 0 0)
(0 6.79507e-10 0 6.79507e-10 4.56548e-11 0 0 0 0)
(0 7.26085e-10 0 7.26085e-10 2.52945e-11 0 0 0 0)
(0 7.76196e-10 0 7.76196e-10 7.11896e-12 0 0 0 0)
(0 8.23505e-10 0 8.23505e-10 -9.19924e-12 0 0 0 0)
(0 8.75018e-10 0 8.75018e-10 -2.4402e-11 0 0 0 0)
(0 9.56221e-10 0 9.56221e-10 -3.87647e-11 0 0 0 0)
(0 1.08463e-09 0 1.08463e-09 -5.02339e-11 0 0 0 0)
(0 1.20866e-09 0 1.20866e-09 -5.70195e-11 0 0 0 0)
(0 1.22932e-09 0 1.22932e-09 -7.20252e-11 0 0 0 0)
(0 1.3271e-09 0 1.3271e-09 -9.39061e-11 0 0 0 0)
(0 1.67491e-09 0 1.67491e-09 -1.181e-10 0 0 0 0)
(0 2.14237e-09 0 2.14237e-09 -1.98075e-10 0 0 0 0)
(0 3.48455e-09 0 3.48455e-09 -4.49747e-10 0 0 0 0)
(0 8.60002e-09 0 8.60002e-09 -1.11826e-10 0 0 0 0)
(0 8.23527e-09 0 8.23527e-09 4.25823e-10 0 0 0 0)
(0 5.95239e-09 0 5.95239e-09 2.12987e-09 0 0 0 0)
(0 6.00761e-08 0 6.00761e-08 -1.04682e-08 0 0 0 0)
(0 1.30082e-05 0 1.30082e-05 2.71466e-07 0 0 0 0)
(0 4.10763e-05 0 4.10763e-05 6.63079e-07 0 0 0 0)
(0 -5.90487e-05 0 -5.90487e-05 -2.15942e-06 0 0 0 0)
(0 -0.000296063 0 -0.000296063 -3.00682e-06 0 0 0 0)
(0 -0.000476239 0 -0.000476239 -1.6155e-06 0 0 0 0)
(0 -0.000631028 0 -0.000631028 -1.6759e-06 0 0 0 0)
(0 -0.000767615 0 -0.000767615 -1.88356e-06 0 0 0 0)
(0 -0.000889373 0 -0.000889373 -1.9642e-06 0 0 0 0)
(0 -0.000998581 0 -0.000998581 -1.9231e-06 0 0 0 0)
(0 -0.00109692 0 -0.00109692 -1.83141e-06 0 0 0 0)
(0 -0.00118569 0 -0.00118569 -1.72218e-06 0 0 0 0)
(0 -0.00126596 0 -0.00126596 -1.60621e-06 0 0 0 0)
(0 -0.0013386 0 -0.0013386 -1.48874e-06 0 0 0 0)
(0 -0.00140436 0 -0.00140436 -1.37348e-06 0 0 0 0)
(0 -0.00146385 0 -0.00146385 -1.26285e-06 0 0 0 0)
(0 -0.00151763 0 -0.00151763 -1.15825e-06 0 0 0 0)
(0 -0.00156618 0 -0.00156618 -1.06033e-06 0 0 0 0)
(0 -0.00160991 0 -0.00160991 -9.69327e-07 0 0 0 0)
(0 -0.00164919 0 -0.00164919 -8.85224e-07 0 0 0 0)
(0 -0.00168436 0 -0.00168436 -8.07824e-07 0 0 0 0)
(0 -0.00171572 0 -0.00171572 -7.36834e-07 0 0 0 0)
(0 -0.00174353 0 -0.00174353 -6.719e-07 0 0 0 0)
(0 -0.00176805 0 -0.00176805 -6.12639e-07 0 0 0 0)
(0 -0.00178949 0 -0.00178949 -5.58656e-07 0 0 0 0)
(0 -0.00180805 0 -0.00180805 -5.09554e-07 0 0 0 0)
(0 -0.00182392 0 -0.00182392 -4.64946e-07 0 0 0 0)
(0 -0.00183727 0 -0.00183727 -4.2446e-07 0 0 0 0)
(0 -0.00184825 0 -0.00184825 -3.8774e-07 0 0 0 0)
(0 -0.001857 0 -0.001857 -3.5445e-07 0 0 0 0)
(0 -0.00186366 0 -0.00186366 -3.24273e-07 0 0 0 0)
(0 -0.00186835 0 -0.00186835 -2.96918e-07 0 0 0 0)
(0 -0.00187118 0 -0.00187118 -2.72111e-07 0 0 0 0)
(0 -0.00187225 0 -0.00187225 -2.49603e-07 0 0 0 0)
(0 -0.00187166 0 -0.00187166 -2.29166e-07 0 0 0 0)
(0 -0.00186949 0 -0.00186949 -2.1059e-07 0 0 0 0)
(0 -0.00186585 0 -0.00186585 -1.93687e-07 0 0 0 0)
(0 -0.00186079 0 -0.00186079 -1.78287e-07 0 0 0 0)
(0 -0.00185439 0 -0.00185439 -1.64237e-07 0 0 0 0)
(0 -0.00184673 0 -0.00184673 -1.514e-07 0 0 0 0)
(0 -0.00183786 0 -0.00183786 -1.39653e-07 0 0 0 0)
(0 -0.00182785 0 -0.00182785 -1.28889e-07 0 0 0 0)
(0 -0.00181674 0 -0.00181674 -1.19012e-07 0 0 0 0)
(0 -0.0018046 0 -0.0018046 -1.09936e-07 0 0 0 0)
(0 -0.00179148 0 -0.00179148 -1.01585e-07 0 0 0 0)
(0 -0.00177742 0 -0.00177742 -9.38932e-08 0 0 0 0)
(0 -0.00176247 0 -0.00176247 -8.67972e-08 0 0 0 0)
(0 -0.00174667 0 -0.00174667 -8.02394e-08 0 0 0 0)
(0 -0.00173005 0 -0.00173005 -7.41667e-08 0 0 0 0)
(0 -0.00171267 0 -0.00171267 -6.8534e-08 0 0 0 0)
(0 -0.00169457 0 -0.00169457 -6.33056e-08 0 0 0 0)
(0 -0.00167577 0 -0.00167577 -5.84516e-08 0 0 0 0)
(0 -0.00165636 0 -0.00165636 -5.3943e-08 0 0 0 0)
(0 -0.00163621 0 -0.00163621 -4.9717e-08 0 0 0 0)
(1.28272e-17 -0.00161517 0 -0.00161517 -4.57293e-08 0 0 0 0)
(0 -0.00159323 0 -0.00159323 -4.19833e-08 0 0 0 0)
(0 -0.00157039 0 -0.00157039 -3.8467e-08 0 0 0 0)
(-1.20349e-17 -0.00154662 0 -0.00154662 -3.51514e-08 0 0 0 0)
(0 -0.00152191 0 -0.00152191 -3.20068e-08 0 0 0 0)
(1.15004e-17 -0.00149622 0 -0.00149622 -2.90119e-08 0 0 0 0)
(0 -0.00146953 0 -0.00146953 -2.61512e-08 0 0 0 0)
(-1.0961e-17 -0.00144183 0 -0.00144183 -2.34126e-08 0 0 0 0)
(0 -0.00141309 0 -0.00141309 -2.07879e-08 0 0 0 0)
(0 -0.00138331 0 -0.00138331 -1.82791e-08 0 0 0 0)
(0 -0.00135245 0 -0.00135245 -1.59061e-08 0 0 0 0)
(-9.8687e-18 -0.00132052 0 -0.00132052 -1.36934e-08 0 0 0 0)
(0 -0.00128749 0 -0.00128749 -1.16543e-08 0 0 0 0)
(0 -0.00125338 0 -0.00125338 -9.80153e-09 0 0 0 0)
(0 -0.00121817 0 -0.00121817 -8.15141e-09 0 0 0 0)
(0 -0.00118186 0 -0.00118186 -6.70995e-09 0 0 0 0)
(0 -0.00114447 0 -0.00114447 -5.4692e-09 0 0 0 0)
(8.20258e-18 -0.001106 0 -0.001106 -4.41772e-09 0 0 0 0)
(0 -0.00106647 0 -0.00106647 -3.54345e-09 0 0 0 0)
(7.6425e-18 -0.0010259 0 -0.0010259 -2.82627e-09 0 0 0 0)
(0 -0.000984335 0 -0.000984335 -2.24112e-09 0 0 0 0)
(7.08183e-18 -0.0009418 0 -0.0009418 -1.76747e-09 0 0 0 0)
(0 -0.000898347 0 -0.000898347 -1.38781e-09 0 0 0 0)
(0 -0.000854032 0 -0.000854032 -1.08477e-09 0 0 0 0)
(0 -0.000808922 0 -0.000808922 -8.43574e-10 0 0 0 0)
(0 -0.0007631 0 -0.0007631 -6.52921e-10 0 0 0 0)
(0 -0.000716659 0 -0.000716659 -5.03169e-10 0 0 0 0)
(-1.08289e-17 -0.000669712 0 -0.000669712 -3.85871e-10 0 0 0 0)
(0 -0.000622387 0 -0.000622387 -2.94382e-10 0 0 0 0)
(0 -0.000574835 0 -0.000574835 -2.24552e-10 0 0 0 0)
(0 -0.000527229 0 -0.000527229 -1.70435e-10 0 0 0 0)
(0 -0.000479768 0 -0.000479768 -1.21825e-10 0 0 0 0)
(0 -0.000432677 0 -0.000432677 -7.86231e-11 0 0 0 0)
(0 -0.000386214 0 -0.000386214 -7.93498e-11 0 0 0 0)
(0 -0.000340665 0 -0.000340665 -1.03221e-10 0 0 0 0)
(0 -0.000296342 0 -0.000296342 -7.75745e-11 0 0 0 0)
(0 -0.00025359 0 -0.00025359 -3.18626e-11 0 0 0 0)
(0 -0.000212782 0 -0.000212782 -8.29673e-12 0 0 0 0)
(0 -0.000174294 0 -0.000174294 1.90394e-13 0 0 0 0)
(0 -0.000138497 0 -0.000138497 2.87885e-12 0 0 0 0)
(0 -0.000105733 0 -0.000105733 2.8936e-12 0 0 0 0)
(8.53848e-18 -7.62924e-05 0 -7.62924e-05 -4.97197e-13 0 0 0 0)
(-7.88926e-18 -5.03871e-05 0 -5.03871e-05 -1.04853e-12 0 0 0 0)
(0 -2.81334e-05 0 -2.81334e-05 7.41372e-14 0 0 0 0)
(0 -9.54435e-06 0 -9.54435e-06 6.44602e-14 0 0 0 0)
(6.16827e-18 5.46324e-06 0 5.46324e-06 3.00462e-15 0 0 0 0)
(0 1.70523e-05 0 1.70523e-05 9.88213e-15 0 0 0 0)
(0 2.54449e-05 0 2.54449e-05 2.01024e-14 0 0 0 0)
(2.31734e-18 3.09042e-05 0 3.09042e-05 -3.88788e-13 0 0 0 0)
(0 3.3722e-05 0 3.3722e-05 1.03826e-12 0 0 0 0)
(0 3.42115e-05 0 3.42115e-05 -1.79144e-12 0 0 0 0)
(0 3.27028e-05 0 3.27028e-05 2.45193e-12 0 0 0 0)
(0 2.9539e-05 0 2.9539e-05 -2.93334e-12 0 0 0 0)
(0 2.50752e-05 0 2.50752e-05 3.12838e-12 0 0 0 0)
(0 1.96798e-05 0 1.96798e-05 -3.01724e-12 0 0 0 0)
(0 1.37449e-05 0 1.37449e-05 2.5731e-12 0 0 0 0)
(0 7.75445e-06 0 7.75445e-06 -1.84271e-12 0 0 0 0)
(0 2.25337e-06 0 2.25337e-06 8.763e-13 0 0 0 0)
(0 2.0619e-07 0 2.0619e-07 -2.44826e-13 0 0 0 0)
(0 1.32545e-08 0 1.32545e-08 1.56348e-13 0 0 0 0)
(0 4.16351e-10 0 4.16351e-10 -1.51695e-13 0 0 0 0)
(0 3.4745e-11 0 3.4745e-11 1.49269e-13 0 0 0 0)
(0 2.01438e-11 0 2.01438e-11 -1.47192e-13 0 0 0 0)
(0 1.49193e-11 0 1.49193e-11 1.45004e-13 0 0 0 0)
(0 1.10691e-11 0 1.10691e-11 -1.43064e-13 0 0 0 0)
(0 8.16481e-12 0 8.16481e-12 1.41052e-13 0 0 0 0)
(0 5.98526e-12 0 5.98526e-12 -1.39232e-13 0 0 0 0)
(0 4.36003e-12 0 4.36003e-12 1.37347e-13 0 0 0 0)
(0 3.15585e-12 0 3.15585e-12 -1.35609e-13 0 0 0 0)
(0 2.26922e-12 0 2.26922e-12 1.33807e-13 0 0 0 0)
(0 1.62061e-12 0 1.62061e-12 -1.32117e-13 0 0 0 0)
(0 1.14973e-12 0 1.14973e-12 1.30369e-13 0 0 0 0)
(0 8.10373e-13 0 8.10373e-13 -1.28701e-13 0 0 0 0)
(0 5.66697e-13 0 5.66697e-13 1.26972e-13 0 0 0 0)
(0 3.93124e-13 0 3.93124e-13 -1.25309e-13 0 0 0 0)
(0 2.70924e-13 0 2.70924e-13 1.23582e-13 0 0 0 0)
(0 1.85584e-13 0 1.85584e-13 -1.21909e-13 0 0 0 0)
(0 1.26208e-13 0 1.26208e-13 1.20167e-13 0 0 0 0)
(0 8.50078e-14 0 8.50078e-14 -1.18471e-13 0 0 0 0)
(0 5.65994e-14 0 5.65994e-14 1.16712e-13 0 0 0 0)
(0 3.76037e-14 0 3.76037e-14 -1.14985e-13 0 0 0 0)
(0 2.46492e-14 0 2.46492e-14 1.13197e-13 0 0 0 0)
(0 1.60148e-14 0 1.60148e-14 -1.11438e-13 0 0 0 0)
(0 1.04517e-14 0 1.04517e-14 1.09617e-13 0 0 0 0)
(-3.7613e-20 6.61679e-15 0 6.61679e-15 -1.07827e-13 0 0 0 0)
(0 4.20424e-15 0 4.20424e-15 1.05963e-13 0 0 0 0)
(0 2.61636e-15 0 2.61636e-15 -1.04132e-13 0 0 0 0)
(0 1.58376e-15 0 1.58376e-15 1.0224e-13 0 0 0 0)
(0 1.08114e-15 0 1.08114e-15 -1.00372e-13 0 0 0 0)
(0 6.80574e-16 0 6.80574e-16 9.84455e-14 0 0 0 0)
(0 3.47012e-16 0 3.47012e-16 -9.65414e-14 0 0 0 0)
(0 1.9502e-16 0 1.9502e-16 9.45818e-14 0 0 0 0)
(0 2.36524e-16 0 2.36524e-16 -9.26428e-14 0 0 0 0)
(0 2.1719e-16 0 2.1719e-16 9.06522e-14 0 0 0 0)
(0 -8.38219e-17 0 -8.38219e-17 -8.8671e-14 0 0 0 0)
(0 -1.25169e-16 0 -1.25169e-16 8.6667e-14 0 0 0 0)
(0 9.38341e-18 0 9.38341e-18 -8.4649e-14 0 0 0 0)
(5.79322e-20 8.95632e-17 0 8.95632e-17 8.26039e-14 0 0 0 0)
(0 1.05028e-16 0 1.05028e-16 -8.05601e-14 0 0 0 0)
(0 2.71156e-17 0 2.71156e-17 7.84937e-14 0 0 0 0)
(0 -7.67286e-17 0 -7.67286e-17 -7.6411e-14 0 0 0 0)
(0 -7.4868e-17 0 -7.4868e-17 7.4313e-14 0 0 0 0)
(0 3.39255e-17 0 3.39255e-17 -7.21978e-14 0 0 0 0)
(0 1.40538e-16 0 1.40538e-16 7.00677e-14 0 0 0 0)
(0 -5.26711e-17 0 -5.26711e-17 -6.79183e-14 0 0 0 0)
(0 -1.12483e-16 0 -1.12483e-16 6.57542e-14 0 0 0 0)
(0 8.62289e-17 0 8.62289e-17 -6.35693e-14 0 0 0 0)
(0 -3.21042e-18 0 -3.21042e-18 6.14095e-14 0 0 0 0)
(0 -1.01895e-16 0 -1.01895e-16 -6.7715e-14 0 0 0 0)
(0 -2.52389e-17 0 -2.52389e-17 6.69773e-14 0 0 0 0)
(0 5.09808e-17 0 5.09808e-17 -6.62672e-14 0 0 0 0)
(0 2.18376e-18 0 2.18376e-18 6.55561e-14 0 0 0 0)
(0 3.97047e-20 0 3.97047e-20 -6.48325e-14 0 0 0 0)
(0 5.2344e-17 0 5.2344e-17 6.41079e-14 0 0 0 0)
(0 -4.02473e-17 0 -4.02473e-17 -6.33682e-14 0 0 0 0)
(0 -1.48495e-17 0 -1.48495e-17 6.2628e-14 0 0 0 0)
(0 5.06896e-17 0 5.06896e-17 -6.187e-14 0 0 0 0)
(0 -7.54124e-17 0 -7.54124e-17 6.11132e-14 0 0 0 0)
(0 -4.80691e-17 0 -4.80691e-17 -6.03347e-14 0 0 0 0)
(0 3.48475e-17 0 3.48475e-17 5.95609e-14 0 0 0 0)
(0 4.91279e-17 0 4.91279e-17 -5.876e-14 0 0 0 0)
(0 1.29173e-17 0 1.29173e-17 5.7968e-14 0 0 0 0)
(0 -1.07335e-17 0 -1.07335e-17 -5.7141e-14 0 0 0 0)
(0 -1.0535e-17 0 -1.0535e-17 5.63323e-14 0 0 0 0)
(0 -3.09299e-17 0 -3.09299e-17 -5.54742e-14 0 0 0 0)
(0 4.61368e-17 0 4.61368e-17 5.46607e-14 0 0 0 0)
(0 6.77626e-18 0 6.77626e-18 -5.37254e-14 0 0 0 0)
(0 -9.72764e-18 0 -9.72764e-18 5.29683e-14 0 0 0 0)
(0 -4.46016e-18 0 -4.46016e-18 -5.19495e-14 0 0 0 0)
(0 -3.66209e-17 0 -3.66209e-17 5.11874e-14 0 0 0 0)
(0 2.44845e-18 0 2.44845e-18 -5.01238e-14 0 0 0 0)
(0 4.13061e-17 0 4.13061e-17 4.93402e-14 0 0 0 0)
(0 6.92185e-18 0 6.92185e-18 -4.82278e-14 0 0 0 0)
(0 -6.41892e-18 0 -6.41892e-18 4.74188e-14 0 0 0 0)
(0 -1.84627e-17 0 -1.84627e-17 -4.62588e-14 0 0 0 0)
(0 -4.16899e-18 0 -4.16899e-18 4.54136e-14 0 0 0 0)
(0 -5.3469e-18 0 -5.3469e-18 -4.41995e-14 0 0 0 0)
(0 -1.26658e-16 0 -1.26658e-16 4.33201e-14 0 0 0 0)
(0 -3.6924e-16 0 -3.6924e-16 -4.20382e-14 0 0 0 0)
(0 -1.72054e-19 0 -1.72054e-19 4.11186e-14 0 0 0 0)
(0 3.7415e-16 0 3.7415e-16 -3.97635e-14 0 0 0 0)
(0 1.19352e-16 0 1.19352e-16 3.88075e-14 0 0 0 0)
(0 -4.07635e-18 0 -4.07635e-18 -3.7305e-14 0 0 0 0)
(0 7.68947e-18 0 7.68947e-18 3.63784e-14 0 0 0 0)
(0 6.57906e-17 0 6.57906e-17 -3.4744e-14 0 0 0 0)
(0 2.90241e-17 0 2.90241e-17 3.3694e-14 0 0 0 0)
(0 -2.63507e-17 0 -2.63507e-17 -3.19789e-14 0 0 0 0)
(0 -9.53177e-17 0 -9.53177e-17 3.07627e-14 0 0 0 0)
(0 7.91446e-18 0 7.91446e-18 -2.89881e-14 0 0 0 0)
(0 1.29173e-16 0 1.29173e-16 2.75292e-14 0 0 0 0)
(0 6.83847e-17 0 6.83847e-17 -2.54895e-14 0 0 0 0)
(0 -2.73433e-17 0 -2.73433e-17 2.39026e-14 0 0 0 0)
(0 -5.17352e-17 0 -5.17352e-17 -2.1648e-14 0 0 0 0)
(0 -6.64656e-17 0 -6.64656e-17 1.93493e-14 0 0 0 0)
(0 -5.3244e-17 0 -5.3244e-17 -1.68285e-14 0 0 0 0)
(0 3.8937e-17 0 3.8937e-17 1.34797e-14 0 0 0 0)
(0 -4.5356e-17 0 -4.5356e-17 -1.0386e-14 0 0 0 0)
(0 -8.13019e-17 0 -8.13019e-17 1.77967e-15 0 0 0 0)
)
;

boundaryField
{
    inandouthalf11
    {
        type            cyclic;
    }
    inandouthalf12
    {
        type            cyclic;
    }
    inandouthalf21
    {
        type            cyclic;
    }
    inandouthalf22
    {
        type            cyclic;
    }
    inandouthalf31
    {
        type            cyclic;
    }
    inandouthalf32
    {
        type            cyclic;
    }
    inandouthalf41
    {
        type            cyclic;
    }
    inandouthalf42
    {
        type            cyclic;
    }
    top
    {
        type            symmetryPlane;
    }
    walls
    {
        type            zeroGradient;
    }
    frontAndBackPlanes
    {
        type            empty;
    }
}


// ************************************************************************* //
