/*--------------------------------*- C++ -*----------------------------------*\
| =========                 |                                                 |
| \\      /  F ield         | OpenFOAM: The Open Source CFD Toolbox           |
|  \\    /   O peration     | Version:  2.4.x                                 |
|   \\  /    A nd           | Web:      www.OpenFOAM.org                      |
|    \\/     M anipulation  |                                                 |
\*---------------------------------------------------------------------------*/
FoamFile
{
    version     2.0;
    format      ascii;
    class       volScalarField;
    location    "7.2";
    object      Theta;
}
// * * * * * * * * * * * * * * * * * * * * * * * * * * * * * * * * * * * * * //

dimensions      [0 2 -2 0 0 0 0];

internalField   nonuniform List<scalar> 
360
(
6.66294e-21
6.66648e-21
6.66483e-21
6.66439e-21
6.66461e-21
6.66477e-21
6.6648e-21
6.6648e-21
6.66481e-21
6.66484e-21
6.66487e-21
6.66491e-21
6.66495e-21
6.66498e-21
6.66502e-21
6.66505e-21
6.66509e-21
6.66514e-21
6.66518e-21
6.66522e-21
6.66526e-21
6.66531e-21
6.66535e-21
6.6654e-21
6.66545e-21
6.66549e-21
6.66554e-21
6.66559e-21
6.66564e-21
6.66568e-21
6.66573e-21
6.66577e-21
6.66582e-21
6.66586e-21
6.66591e-21
6.66595e-21
6.66599e-21
6.66603e-21
6.66606e-21
6.66609e-21
6.66612e-21
6.66615e-21
6.66617e-21
6.66619e-21
6.66621e-21
6.66623e-21
6.66624e-21
6.66625e-21
6.66626e-21
6.66628e-21
6.6663e-21
6.66631e-21
6.66633e-21
6.66635e-21
6.66638e-21
6.66641e-21
6.66643e-21
6.66646e-21
6.66649e-21
6.66652e-21
6.66655e-21
6.66659e-21
6.66662e-21
6.66664e-21
6.66665e-21
6.66664e-21
6.66661e-21
6.66656e-21
6.66649e-21
6.6664e-21
6.66629e-21
6.66617e-21
6.66603e-21
6.66588e-21
6.66572e-21
6.66555e-21
6.66537e-21
6.66519e-21
6.66501e-21
6.66483e-21
6.66467e-21
6.66452e-21
6.66439e-21
6.66428e-21
6.66419e-21
6.66412e-21
6.66407e-21
6.66404e-21
6.66402e-21
6.66402e-21
6.66404e-21
6.66409e-21
6.66415e-21
6.66424e-21
6.66435e-21
6.66449e-21
6.66465e-21
6.66485e-21
6.66506e-21
6.6653e-21
6.66556e-21
6.66584e-21
6.66612e-21
6.66641e-21
6.6667e-21
6.66697e-21
6.66721e-21
6.6674e-21
6.66755e-21
6.66763e-21
6.66763e-21
6.66755e-21
6.66739e-21
6.66715e-21
6.66684e-21
6.66647e-21
6.66606e-21
6.66561e-21
6.66515e-21
6.66469e-21
6.66424e-21
6.66382e-21
6.66342e-21
6.66307e-21
6.66275e-21
6.66247e-21
6.66223e-21
6.66203e-21
6.66186e-21
6.66171e-21
6.66159e-21
6.6615e-21
6.66146e-21
1.46142e-20
5.72566e-20
2.45126e-19
1.10621e-18
5.25844e-18
2.64268e-17
1.42541e-16
8.50127e-16
5.82464e-15
4.7339e-14
4.56734e-13
5.121e-12
6.61142e-11
9.98006e-10
1.79316e-08
4.55312e-07
9.47171e-06
0.000181708
0.000685114
0.00109872
0.00143453
0.00171609
0.00195887
0.00217236
0.00236259
0.00253362
0.00268835
0.00282894
0.00295702
0.00307392
0.00318068
0.00327818
0.00336716
0.00344826
0.003522
0.00358889
0.00364932
0.00370369
0.00375234
0.00379556
0.00383365
0.00386685
0.00389543
0.00391958
0.00393954
0.00395549
0.00396763
0.00397612
0.00398114
0.00398285
0.0039814
0.00397694
0.00396961
0.00395955
0.00394689
0.00393176
0.00391428
0.00389456
0.00387273
0.00384889
0.00382315
0.00379562
0.00376639
0.00373556
0.00370323
0.00366949
0.00363441
0.0035981
0.00356024
0.00352047
0.00347878
0.00343515
0.00338958
0.00334204
0.00329252
0.00324098
0.00318739
0.00313173
0.00307392
0.00301393
0.00295169
0.00288711
0.00282011
0.00275058
0.00267841
0.00260345
0.00252556
0.00244453
0.00236018
0.00227226
0.0021805
0.00208457
0.00198409
0.00187861
0.00176757
0.00165028
0.00152588
0.00139321
0.00125071
0.00109613
0.000925935
0.000733943
0.000506672
0
0
0
0
0
0
0
0
0
0
0
0
0
0
0
0
0
0
0
0
0
0
0
0
0
0
0
0
0
0
0
0
0
0
0
0
0
0
0
0
0
0
0
0
0
0
0
0
0
0
0
0
0
0
0
0
0
0
0
0
0
0
0
0
0
0
0
0
0
0
0
0
0
0
0
0
0
0
0
0
0
0
0
0
0
0
0
0
0
0
0
0
0
0
0
0
0
0
0
0
0
0
0
0
0
0
0
0
0
0
0
0
0
0
0
0
0
0
0
0
0
0
0
0
)
;

boundaryField
{
    inandouthalf11
    {
        type            cyclic;
    }
    inandouthalf12
    {
        type            cyclic;
    }
    inandouthalf21
    {
        type            cyclic;
    }
    inandouthalf22
    {
        type            cyclic;
    }
    inandouthalf31
    {
        type            cyclic;
    }
    inandouthalf32
    {
        type            cyclic;
    }
    inandouthalf41
    {
        type            cyclic;
    }
    inandouthalf42
    {
        type            cyclic;
    }
    top
    {
        type            symmetryPlane;
    }
    walls
    {
        type            zeroGradient;
    }
    frontAndBackPlanes
    {
        type            empty;
    }
}


// ************************************************************************* //
