/*--------------------------------*- C++ -*----------------------------------*\
| =========                 |                                                 |
| \\      /  F ield         | OpenFOAM: The Open Source CFD Toolbox           |
|  \\    /   O peration     | Version:  2.4.x                                 |
|   \\  /    A nd           | Web:      www.OpenFOAM.org                      |
|    \\/     M anipulation  |                                                 |
\*---------------------------------------------------------------------------*/
FoamFile
{
    version     2.0;
    format      ascii;
    class       volVectorField;
    location    "7.2";
    object      Ub;
}
// * * * * * * * * * * * * * * * * * * * * * * * * * * * * * * * * * * * * * //

dimensions      [0 1 -1 0 0 0 0];

internalField   nonuniform List<vector> 
360
(
(0.000207472 4.47345e-08 0)
(0.000206414 1.61042e-07 0)
(0.000206233 2.96857e-07 0)
(0.000206375 4.20583e-07 0)
(0.000206452 5.41145e-07 0)
(0.000206479 6.63986e-07 0)
(0.000206507 7.88495e-07 0)
(0.000206543 9.13426e-07 0)
(0.000206579 1.03848e-06 0)
(0.000206616 1.16383e-06 0)
(0.000206653 1.28971e-06 0)
(0.00020669 1.41623e-06 0)
(0.000206727 1.54338e-06 0)
(0.000206764 1.67115e-06 0)
(0.000206801 1.79953e-06 0)
(0.000206839 1.92853e-06 0)
(0.000206877 2.05821e-06 0)
(0.000206915 2.18857e-06 0)
(0.000206952 2.31964e-06 0)
(0.000206991 2.45144e-06 0)
(0.000207029 2.58395e-06 0)
(0.000207068 2.7172e-06 0)
(0.000207106 2.8512e-06 0)
(0.000207145 2.98595e-06 0)
(0.000207184 3.12145e-06 0)
(0.000207224 3.2577e-06 0)
(0.000207263 3.39469e-06 0)
(0.000207303 3.53244e-06 0)
(0.000207342 3.67094e-06 0)
(0.000207382 3.81017e-06 0)
(0.000207423 3.95013e-06 0)
(0.000207463 4.09081e-06 0)
(0.000207503 4.23218e-06 0)
(0.000207545 4.37425e-06 0)
(0.000207586 4.51697e-06 0)
(0.000207627 4.66033e-06 0)
(0.000207668 4.80428e-06 0)
(0.00020771 4.94879e-06 0)
(0.000207753 5.09387e-06 0)
(0.000207794 5.2394e-06 0)
(0.000207837 5.38538e-06 0)
(0.00020788 5.53176e-06 0)
(0.000207923 5.67845e-06 0)
(0.000207967 5.82545e-06 0)
(0.00020801 5.9727e-06 0)
(0.000208055 6.12015e-06 0)
(0.000208099 6.2678e-06 0)
(0.000208143 6.41555e-06 0)
(0.000208189 6.5634e-06 0)
(0.000208235 6.71145e-06 0)
(0.00020828 6.85964e-06 0)
(0.000208326 7.00803e-06 0)
(0.000208373 7.15664e-06 0)
(0.00020842 7.30551e-06 0)
(0.000208467 7.45465e-06 0)
(0.000208516 7.60414e-06 0)
(0.000208563 7.75395e-06 0)
(0.000208612 7.90413e-06 0)
(0.000208661 8.05468e-06 0)
(0.00020871 8.20554e-06 0)
(0.000208761 8.35683e-06 0)
(0.000208811 8.50848e-06 0)
(0.000208862 8.66053e-06 0)
(0.000208914 8.81285e-06 0)
(0.000208966 8.96531e-06 0)
(0.000209018 9.11766e-06 0)
(0.000209072 9.26966e-06 0)
(0.000209126 9.42102e-06 0)
(0.00020918 9.57142e-06 0)
(0.000209235 9.72048e-06 0)
(0.000209292 9.86798e-06 0)
(0.000209349 1.00137e-05 0)
(0.000209407 1.01573e-05 0)
(0.000209466 1.02986e-05 0)
(0.000209527 1.04373e-05 0)
(0.000209589 1.05734e-05 0)
(0.000209651 1.07065e-05 0)
(0.000209715 1.08365e-05 0)
(0.000209781 1.09634e-05 0)
(0.000209848 1.1087e-05 0)
(0.000209917 1.12074e-05 0)
(0.000209987 1.13249e-05 0)
(0.000210059 1.14397e-05 0)
(0.000210132 1.1552e-05 0)
(0.000210207 1.16624e-05 0)
(0.000210284 1.1771e-05 0)
(0.000210362 1.18784e-05 0)
(0.000210442 1.19848e-05 0)
(0.000210524 1.20906e-05 0)
(0.000210607 1.21961e-05 0)
(0.000210691 1.23016e-05 0)
(0.000210777 1.24077e-05 0)
(0.000210865 1.25146e-05 0)
(0.000210954 1.26228e-05 0)
(0.000211045 1.27328e-05 0)
(0.000211137 1.2845e-05 0)
(0.000211231 1.29597e-05 0)
(0.000211326 1.30775e-05 0)
(0.000211422 1.31985e-05 0)
(0.00021152 1.33232e-05 0)
(0.000211619 1.34517e-05 0)
(0.000211719 1.35841e-05 0)
(0.00021182 1.37206e-05 0)
(0.000211923 1.3861e-05 0)
(0.000212028 1.40052e-05 0)
(0.000212134 1.4153e-05 0)
(0.000212242 1.43038e-05 0)
(0.000212352 1.44571e-05 0)
(0.000212464 1.46123e-05 0)
(0.000212578 1.47685e-05 0)
(0.000212696 1.49247e-05 0)
(0.000212817 1.50799e-05 0)
(0.000212943 1.52331e-05 0)
(0.000213072 1.53833e-05 0)
(0.000213207 1.55292e-05 0)
(0.000213347 1.567e-05 0)
(0.000213494 1.58047e-05 0)
(0.000213648 1.59325e-05 0)
(0.000213809 1.60528e-05 0)
(0.000213978 1.61651e-05 0)
(0.000214155 1.6269e-05 0)
(0.000214342 1.63644e-05 0)
(0.000214539 1.64511e-05 0)
(0.000214745 1.65292e-05 0)
(0.000214963 1.65989e-05 0)
(0.000215191 1.66604e-05 0)
(0.000215432 1.67141e-05 0)
(0.000215685 1.67602e-05 0)
(0.000215952 1.67993e-05 0)
(0.000216233 1.68316e-05 0)
(0.000216529 1.68576e-05 0)
(0.000216841 1.68774e-05 0)
(0.00021717 1.68915e-05 0)
(0.00021752 1.69003e-05 0)
(0.000217896 1.69042e-05 0)
(0.000218296 1.69038e-05 0)
(0.000218719 1.68996e-05 0)
(0.000219172 1.68916e-05 0)
(0.000219676 1.68802e-05 0)
(0.000220256 1.68665e-05 0)
(0.000220884 1.68517e-05 0)
(0.000221485 1.68305e-05 0)
(0.000222211 1.68047e-05 0)
(0.00022316 1.67714e-05 0)
(0.000224354 1.67057e-05 0)
(0.000226645 1.65466e-05 0)
(0.000232954 1.66498e-05 0)
(0.00023488 1.67595e-05 0)
(0.000238905 1.77145e-05 0)
(0.000294738 1.15444e-05 0)
(0.0124365 0.000144989 0)
(0.0129674 0.000113829 0)
(0.00871581 7.69565e-05 0)
(0.00370151 6.6777e-05 0)
(-0.00158585 5.94839e-05 0)
(-0.00700007 5.25662e-05 0)
(-0.012473 4.61266e-05 0)
(-0.0179654 4.04576e-05 0)
(-0.0234523 3.55545e-05 0)
(-0.0289164 3.13157e-05 0)
(-0.0343458 2.76432e-05 0)
(-0.0397318 2.44546e-05 0)
(-0.0450681 2.16807e-05 0)
(-0.0503502 1.92622e-05 0)
(-0.0555749 1.71487e-05 0)
(-0.0607397 1.52976e-05 0)
(-0.0658432 1.36728e-05 0)
(-0.0708843 1.22435e-05 0)
(-0.0758626 1.09837e-05 0)
(-0.0807778 9.87104e-06 0)
(-0.0856301 8.88636e-06 0)
(-0.0904196 8.01323e-06 0)
(-0.0951469 7.23754e-06 0)
(-0.0998126 6.54705e-06 0)
(-0.104417 5.93122e-06 0)
(-0.108962 5.3809e-06 0)
(-0.113447 4.88815e-06 0)
(-0.117874 4.44608e-06 0)
(-0.122243 4.0487e-06 0)
(-0.126555 3.69079e-06 0)
(-0.130812 3.3678e-06 0)
(-0.135014 3.07577e-06 0)
(-0.139162 2.81122e-06 0)
(-0.143257 2.57115e-06 0)
(-0.147299 2.35291e-06 0)
(-0.15129 2.15418e-06 0)
(-0.155231 1.97293e-06 0)
(-0.159122 1.80738e-06 0)
(-0.162963 1.65596e-06 0)
(-0.166757 1.51728e-06 0)
(-0.170503 1.39012e-06 0)
(-0.174203 1.2734e-06 0)
(-0.177856 1.16616e-06 0)
(-0.181464 1.06754e-06 0)
(-0.185027 9.76766e-07 0)
(-0.188545 8.93165e-07 0)
(-0.19202 8.16131e-07 0)
(-0.195452 7.45125e-07 0)
(-0.198841 6.79665e-07 0)
(-0.202187 6.1931e-07 0)
(-0.205492 5.63658e-07 0)
(-0.208789 5.11825e-07 0)
(-0.212111 4.63146e-07 0)
(-0.215456 4.17491e-07 0)
(-0.218824 3.74727e-07 0)
(-0.222215 3.34739e-07 0)
(-0.225627 2.97442e-07 0)
(-0.229061 2.62774e-07 0)
(-0.232515 2.30693e-07 0)
(-0.235988 2.01167e-07 0)
(-0.239479 1.74179e-07 0)
(-0.242987 1.49717e-07 0)
(-0.246509 1.27757e-07 0)
(-0.250045 1.08233e-07 0)
(-0.253593 9.1052e-08 0)
(-0.25715 7.60986e-08 0)
(-0.260715 6.3225e-08 0)
(-0.264285 5.22472e-08 0)
(-0.267857 4.29689e-08 0)
(-0.271428 3.51947e-08 0)
(-0.274995 2.8726e-08 0)
(-0.278554 2.33671e-08 0)
(-0.282101 1.89466e-08 0)
(-0.285632 1.53174e-08 0)
(-0.289141 1.2347e-08 0)
(-0.292624 9.92204e-09 0)
(-0.296073 7.94902e-09 0)
(-0.299483 6.34927e-09 0)
(-0.302845 5.05497e-09 0)
(-0.306151 4.01066e-09 0)
(-0.309392 3.1706e-09 0)
(-0.312558 2.49695e-09 0)
(-0.315637 1.95202e-09 0)
(-0.318616 1.51866e-09 0)
(-0.321483 1.21095e-09 0)
(-0.32422 1.01047e-09 0)
(-0.326813 6.61726e-10 0)
(-0.329243 2.48583e-10 0)
(-0.331493 5.11709e-11 0)
(-0.333542 -2.03159e-11 0)
(-0.335372 -2.38252e-11 0)
(-0.336966 -1.8354e-11 0)
(-0.338309 6.92092e-12 0)
(-0.339388 1.46475e-11 0)
(-0.340198 5.36175e-13 0)
(-0.340738 7.19046e-13 0)
(-0.341014 1.62129e-12 0)
(-0.341037 1.72799e-12 0)
(-0.340824 1.67122e-12 0)
(-0.340395 1.91636e-12 0)
(-0.339773 2.08491e-12 0)
(-0.338981 -7.05903e-12 0)
(-0.338046 2.9089e-11 0)
(-0.336997 -6.02468e-11 0)
(-0.335862 1.13601e-10 0)
(-0.334675 -1.8017e-10 0)
(-0.333475 2.69938e-10 0)
(-0.332306 -3.72787e-10 0)
(-0.331229 4.95426e-10 0)
(-0.330342 -6.26445e-10 0)
(-0.329953 7.69853e-10 0)
(-0.329911 -9.15377e-10 0)
(-0.329909 1.06823e-09 0)
(-0.329909 -1.22184e-09 0)
(-0.329909 1.38208e-09 0)
(-0.329909 -1.5437e-09 0)
(-0.329909 1.71185e-09 0)
(-0.329909 -1.88195e-09 0)
(-0.329909 2.05859e-09 0)
(-0.329909 -2.23768e-09 0)
(-0.329909 2.42333e-09 0)
(-0.329909 -2.61188e-09 0)
(-0.329909 2.80701e-09 0)
(-0.329909 -3.00543e-09 0)
(-0.329909 3.21047e-09 0)
(-0.329909 -3.41915e-09 0)
(-0.329909 3.63448e-09 0)
(-0.329909 -3.85377e-09 0)
(-0.329909 4.07974e-09 0)
(-0.329909 -4.30998e-09 0)
(-0.329909 4.5469e-09 0)
(-0.329909 -4.78836e-09 0)
(-0.329909 5.03653e-09 0)
(-0.329909 -5.28949e-09 0)
(-0.329909 5.54917e-09 0)
(-0.329909 -5.81388e-09 0)
(-0.329909 6.08531e-09 0)
(-0.329909 -6.36201e-09 0)
(-0.329909 6.64538e-09 0)
(-0.329909 -6.93427e-09 0)
(-0.329909 7.2298e-09 0)
(-0.329909 -7.53106e-09 0)
(-0.329909 7.83892e-09 0)
(-0.329909 -8.15272e-09 0)
(-0.329909 8.47308e-09 0)
(-0.329909 -8.79956e-09 0)
(-0.329909 9.13254e-09 0)
(-0.329909 -9.47178e-09 0)
(-0.329909 9.81755e-09 0)
(-0.329909 -1.01696e-08 0)
(-0.329909 1.05282e-08 0)
(-0.329909 -1.08933e-08 0)
(-0.329909 1.12648e-08 0)
(-0.329909 -1.16427e-08 0)
(-0.329909 1.20271e-08 0)
(-0.329909 -1.24179e-08 0)
(-0.329909 1.28151e-08 0)
(-0.329909 -1.32187e-08 0)
(-0.329909 1.36287e-08 0)
(-0.329909 -1.40449e-08 0)
(-0.329909 1.27007e-08 0)
(-0.329909 -1.28353e-08 0)
(-0.329909 1.29686e-08 0)
(-0.329909 -1.31004e-08 0)
(-0.329909 1.32308e-08 0)
(-0.329909 -1.33597e-08 0)
(-0.329909 1.34872e-08 0)
(-0.329909 -1.36132e-08 0)
(-0.329909 1.37378e-08 0)
(-0.329909 -1.38606e-08 0)
(-0.329909 1.39822e-08 0)
(-0.329909 -1.4102e-08 0)
(-0.329909 1.42205e-08 0)
(-0.329909 -1.4337e-08 0)
(-0.329909 1.44523e-08 0)
(-0.329909 -1.45656e-08 0)
(-0.329909 1.46777e-08 0)
(-0.329909 -1.47875e-08 0)
(-0.329909 1.48963e-08 0)
(-0.329909 -1.50024e-08 0)
(-0.329909 1.51082e-08 0)
(-0.329909 -1.52102e-08 0)
(-0.329909 1.53129e-08 0)
(-0.329909 -1.54107e-08 0)
(-0.329909 1.55103e-08 0)
(-0.329909 -1.56036e-08 0)
(-0.329909 1.57e-08 0)
(-0.329909 -1.57886e-08 0)
(-0.329909 1.58816e-08 0)
(-0.329909 -1.59654e-08 0)
(-0.329909 1.60549e-08 0)
(-0.329909 -1.61336e-08 0)
(-0.329909 1.62194e-08 0)
(-0.329909 -1.62926e-08 0)
(-0.329909 1.63746e-08 0)
(-0.329909 -1.64418e-08 0)
(-0.329909 1.65201e-08 0)
(-0.329909 -1.65808e-08 0)
(-0.329909 1.66549e-08 0)
(-0.329909 -1.67087e-08 0)
(-0.329909 1.67779e-08 0)
(-0.329909 -1.68247e-08 0)
(-0.329909 1.68881e-08 0)
(-0.329909 -1.69266e-08 0)
(-0.329909 1.69837e-08 0)
(-0.329909 -1.70132e-08 0)
(-0.329909 1.70611e-08 0)
(-0.329909 -1.70806e-08 0)
(-0.329909 1.7115e-08 0)
(-0.329909 -1.71221e-08 0)
)
;

boundaryField
{
    inandouthalf11
    {
        type            cyclic;
    }
    inandouthalf12
    {
        type            cyclic;
    }
    inandouthalf21
    {
        type            cyclic;
    }
    inandouthalf22
    {
        type            cyclic;
    }
    inandouthalf31
    {
        type            cyclic;
    }
    inandouthalf32
    {
        type            cyclic;
    }
    inandouthalf41
    {
        type            cyclic;
    }
    inandouthalf42
    {
        type            cyclic;
    }
    top
    {
        type            symmetryPlane;
    }
    walls
    {
        type            fixedValue;
        value           uniform (0 0 0);
    }
    frontAndBackPlanes
    {
        type            empty;
    }
}


// ************************************************************************* //
