/*--------------------------------*- C++ -*----------------------------------*\
| =========                 |                                                 |
| \\      /  F ield         | OpenFOAM: The Open Source CFD Toolbox           |
|  \\    /   O peration     | Version:  2.4.x                                 |
|   \\  /    A nd           | Web:      www.OpenFOAM.org                      |
|    \\/     M anipulation  |                                                 |
\*---------------------------------------------------------------------------*/
FoamFile
{
    version     2.0;
    format      ascii;
    class       volVectorField;
    location    "7.2";
    object      Ub_0;
}
// * * * * * * * * * * * * * * * * * * * * * * * * * * * * * * * * * * * * * //

dimensions      [0 1 -1 0 0 0 0];

internalField   nonuniform List<vector> 
360
(
(0.000207437 4.47381e-08 0)
(0.000206379 1.61055e-07 0)
(0.000206198 2.96882e-07 0)
(0.00020634 4.20619e-07 0)
(0.000206417 5.41191e-07 0)
(0.000206444 6.64044e-07 0)
(0.000206472 7.88563e-07 0)
(0.000206507 9.13506e-07 0)
(0.000206544 1.03857e-06 0)
(0.000206581 1.16393e-06 0)
(0.000206618 1.28983e-06 0)
(0.000206655 1.41636e-06 0)
(0.000206692 1.54352e-06 0)
(0.000206729 1.67131e-06 0)
(0.000206766 1.7997e-06 0)
(0.000206804 1.92872e-06 0)
(0.000206841 2.0584e-06 0)
(0.000206879 2.18878e-06 0)
(0.000206917 2.31986e-06 0)
(0.000206956 2.45168e-06 0)
(0.000206994 2.58421e-06 0)
(0.000207032 2.71748e-06 0)
(0.000207071 2.85149e-06 0)
(0.00020711 2.98625e-06 0)
(0.000207149 3.12176e-06 0)
(0.000207188 3.25803e-06 0)
(0.000207227 3.39504e-06 0)
(0.000207267 3.5328e-06 0)
(0.000207307 3.67132e-06 0)
(0.000207347 3.81057e-06 0)
(0.000207387 3.95054e-06 0)
(0.000207428 4.09125e-06 0)
(0.000207468 4.23263e-06 0)
(0.000207509 4.37472e-06 0)
(0.00020755 4.51746e-06 0)
(0.000207592 4.66084e-06 0)
(0.000207633 4.80481e-06 0)
(0.000207675 4.94934e-06 0)
(0.000207717 5.09443e-06 0)
(0.000207759 5.23998e-06 0)
(0.000207802 5.38598e-06 0)
(0.000207845 5.53238e-06 0)
(0.000207887 5.67909e-06 0)
(0.000207931 5.82611e-06 0)
(0.000207975 5.97337e-06 0)
(0.000208019 6.12085e-06 0)
(0.000208064 6.26852e-06 0)
(0.000208108 6.41628e-06 0)
(0.000208153 6.56416e-06 0)
(0.000208199 6.71222e-06 0)
(0.000208244 6.86043e-06 0)
(0.000208291 7.00885e-06 0)
(0.000208337 7.15747e-06 0)
(0.000208384 7.30637e-06 0)
(0.000208431 7.45553e-06 0)
(0.00020848 7.60505e-06 0)
(0.000208527 7.75487e-06 0)
(0.000208576 7.90508e-06 0)
(0.000208625 8.05566e-06 0)
(0.000208674 8.20655e-06 0)
(0.000208725 8.35786e-06 0)
(0.000208775 8.50954e-06 0)
(0.000208826 8.66161e-06 0)
(0.000208878 8.81396e-06 0)
(0.00020893 8.96644e-06 0)
(0.000208982 9.11881e-06 0)
(0.000209036 9.27084e-06 0)
(0.00020909 9.42222e-06 0)
(0.000209144 9.57263e-06 0)
(0.000209199 9.72171e-06 0)
(0.000209255 9.86922e-06 0)
(0.000209313 1.00149e-05 0)
(0.00020937 1.01585e-05 0)
(0.00020943 1.02998e-05 0)
(0.00020949 1.04386e-05 0)
(0.000209552 1.05747e-05 0)
(0.000209615 1.07078e-05 0)
(0.000209679 1.08378e-05 0)
(0.000209745 1.09646e-05 0)
(0.000209812 1.10882e-05 0)
(0.00020988 1.12086e-05 0)
(0.00020995 1.13261e-05 0)
(0.000210022 1.14409e-05 0)
(0.000210095 1.15533e-05 0)
(0.000210171 1.16636e-05 0)
(0.000210247 1.17723e-05 0)
(0.000210326 1.18797e-05 0)
(0.000210406 1.19861e-05 0)
(0.000210487 1.20919e-05 0)
(0.00021057 1.21974e-05 0)
(0.000210654 1.2303e-05 0)
(0.00021074 1.24091e-05 0)
(0.000210828 1.25161e-05 0)
(0.000210917 1.26244e-05 0)
(0.000211008 1.27345e-05 0)
(0.0002111 1.28468e-05 0)
(0.000211194 1.29616e-05 0)
(0.000211289 1.30795e-05 0)
(0.000211385 1.32007e-05 0)
(0.000211482 1.33255e-05 0)
(0.000211581 1.34542e-05 0)
(0.000211681 1.35868e-05 0)
(0.000211783 1.37234e-05 0)
(0.000211886 1.3864e-05 0)
(0.00021199 1.40084e-05 0)
(0.000212096 1.41564e-05 0)
(0.000212204 1.43074e-05 0)
(0.000212313 1.44609e-05 0)
(0.000212426 1.46163e-05 0)
(0.00021254 1.47726e-05 0)
(0.000212658 1.49289e-05 0)
(0.000212779 1.50843e-05 0)
(0.000212904 1.52376e-05 0)
(0.000213033 1.53878e-05 0)
(0.000213168 1.55337e-05 0)
(0.000213308 1.56745e-05 0)
(0.000213455 1.58091e-05 0)
(0.000213609 1.59368e-05 0)
(0.000213769 1.6057e-05 0)
(0.000213939 1.61691e-05 0)
(0.000214116 1.62729e-05 0)
(0.000214303 1.6368e-05 0)
(0.0002145 1.64545e-05 0)
(0.000214706 1.65324e-05 0)
(0.000214924 1.66018e-05 0)
(0.000215152 1.66631e-05 0)
(0.000215393 1.67165e-05 0)
(0.000215646 1.67625e-05 0)
(0.000215913 1.68013e-05 0)
(0.000216194 1.68334e-05 0)
(0.00021649 1.68592e-05 0)
(0.000216802 1.68789e-05 0)
(0.000217131 1.68928e-05 0)
(0.000217482 1.69014e-05 0)
(0.000217857 1.69052e-05 0)
(0.000218258 1.69048e-05 0)
(0.000218681 1.69004e-05 0)
(0.000219133 1.68924e-05 0)
(0.000219637 1.68809e-05 0)
(0.000220217 1.68672e-05 0)
(0.000220845 1.68523e-05 0)
(0.000221447 1.68311e-05 0)
(0.000222172 1.68053e-05 0)
(0.000223121 1.6772e-05 0)
(0.000224314 1.67062e-05 0)
(0.000226605 1.65471e-05 0)
(0.000232913 1.66506e-05 0)
(0.000234839 1.67615e-05 0)
(0.000238865 1.77148e-05 0)
(0.000294647 1.1568e-05 0)
(0.0123944 0.000145429 0)
(0.0128795 0.00011385 0)
(0.00860889 7.71121e-05 0)
(0.0035829 6.68741e-05 0)
(-0.00171303 5.95573e-05 0)
(-0.00713401 5.26258e-05 0)
(-0.0126125 4.61751e-05 0)
(-0.0181097 4.04968e-05 0)
(-0.0236006 3.55862e-05 0)
(-0.0290684 3.13417e-05 0)
(-0.034501 2.76644e-05 0)
(-0.0398898 2.44721e-05 0)
(-0.0452287 2.16952e-05 0)
(-0.0505132 1.92742e-05 0)
(-0.0557399 1.71587e-05 0)
(-0.0609067 1.5306e-05 0)
(-0.066012 1.36798e-05 0)
(-0.0710548 1.22495e-05 0)
(-0.0760346 1.09888e-05 0)
(-0.0809513 9.87533e-06 0)
(-0.0858048 8.89001e-06 0)
(-0.0905955 8.01636e-06 0)
(-0.095324 7.24022e-06 0)
(-0.0999907 6.54935e-06 0)
(-0.104596 5.9332e-06 0)
(-0.109142 5.38261e-06 0)
(-0.113628 4.88963e-06 0)
(-0.118056 4.44737e-06 0)
(-0.122426 4.04982e-06 0)
(-0.126739 3.69176e-06 0)
(-0.130996 3.36864e-06 0)
(-0.135198 3.07649e-06 0)
(-0.139347 2.81186e-06 0)
(-0.143442 2.5717e-06 0)
(-0.147485 2.35338e-06 0)
(-0.151477 2.15459e-06 0)
(-0.155418 1.97328e-06 0)
(-0.159309 1.80767e-06 0)
(-0.163152 1.65621e-06 0)
(-0.166946 1.51749e-06 0)
(-0.170692 1.3903e-06 0)
(-0.174392 1.27355e-06 0)
(-0.178046 1.16628e-06 0)
(-0.181654 1.06763e-06 0)
(-0.185217 9.76833e-07 0)
(-0.188736 8.93213e-07 0)
(-0.192211 8.16163e-07 0)
(-0.195643 7.45143e-07 0)
(-0.199032 6.79671e-07 0)
(-0.202379 6.19305e-07 0)
(-0.205684 5.63645e-07 0)
(-0.208982 5.11805e-07 0)
(-0.212303 4.63119e-07 0)
(-0.215648 4.1746e-07 0)
(-0.219017 3.74693e-07 0)
(-0.222408 3.34703e-07 0)
(-0.225821 2.97404e-07 0)
(-0.229255 2.62736e-07 0)
(-0.232709 2.30655e-07 0)
(-0.236182 2.0113e-07 0)
(-0.239673 1.74143e-07 0)
(-0.243181 1.49683e-07 0)
(-0.246704 1.27725e-07 0)
(-0.25024 1.08204e-07 0)
(-0.253788 9.10247e-08 0)
(-0.257345 7.60739e-08 0)
(-0.26091 6.32029e-08 0)
(-0.26448 5.22276e-08 0)
(-0.268052 4.29517e-08 0)
(-0.271623 3.51797e-08 0)
(-0.27519 2.87131e-08 0)
(-0.278749 2.33561e-08 0)
(-0.282297 1.89373e-08 0)
(-0.285827 1.53095e-08 0)
(-0.289337 1.23404e-08 0)
(-0.292819 9.91659e-09 0)
(-0.296268 7.94454e-09 0)
(-0.299678 6.3456e-09 0)
(-0.30304 5.052e-09 0)
(-0.306346 4.00827e-09 0)
(-0.309587 3.1687e-09 0)
(-0.312753 2.49545e-09 0)
(-0.315831 1.95086e-09 0)
(-0.318811 1.51777e-09 0)
(-0.321677 1.21025e-09 0)
(-0.324414 1.00999e-09 0)
(-0.327006 6.61347e-10 0)
(-0.329436 2.48262e-10 0)
(-0.331685 5.09603e-11 0)
(-0.333734 -2.04476e-11 0)
(-0.335564 -2.38421e-11 0)
(-0.337157 -1.8322e-11 0)
(-0.338499 6.96415e-12 0)
(-0.339578 1.46941e-11 0)
(-0.340387 5.98085e-13 0)
(-0.340926 7.73842e-13 0)
(-0.341201 1.6729e-12 0)
(-0.341224 1.77801e-12 0)
(-0.34101 1.71955e-12 0)
(-0.340581 1.96311e-12 0)
(-0.339958 2.12952e-12 0)
(-0.339166 -7.01375e-12 0)
(-0.338231 2.91209e-11 0)
(-0.337181 -6.0194e-11 0)
(-0.336046 1.13622e-10 0)
(-0.33486 -1.80125e-10 0)
(-0.33366 2.69975e-10 0)
(-0.332491 -3.72779e-10 0)
(-0.331414 4.95504e-10 0)
(-0.330526 -6.26491e-10 0)
(-0.330138 7.69978e-10 0)
(-0.330096 -9.15473e-10 0)
(-0.330094 1.0684e-09 0)
(-0.330094 -1.22198e-09 0)
(-0.330094 1.38227e-09 0)
(-0.330094 -1.54386e-09 0)
(-0.330094 1.71206e-09 0)
(-0.330094 -1.88214e-09 0)
(-0.330094 2.05882e-09 0)
(-0.330094 -2.23789e-09 0)
(-0.330094 2.42358e-09 0)
(-0.330094 -2.61211e-09 0)
(-0.330094 2.80728e-09 0)
(-0.330094 -3.00569e-09 0)
(-0.330094 3.21076e-09 0)
(-0.330094 -3.41943e-09 0)
(-0.330094 3.6348e-09 0)
(-0.330094 -3.85409e-09 0)
(-0.330094 4.08009e-09 0)
(-0.330094 -4.31032e-09 0)
(-0.330094 4.54727e-09 0)
(-0.330094 -4.78874e-09 0)
(-0.330094 5.03694e-09 0)
(-0.330094 -5.2899e-09 0)
(-0.330094 5.54961e-09 0)
(-0.330094 -5.81433e-09 0)
(-0.330094 6.08578e-09 0)
(-0.330094 -6.36249e-09 0)
(-0.330094 6.64589e-09 0)
(-0.330094 -6.93479e-09 0)
(-0.330094 7.23035e-09 0)
(-0.330094 -7.53162e-09 0)
(-0.330094 7.83951e-09 0)
(-0.330094 -8.15332e-09 0)
(-0.330094 8.4737e-09 0)
(-0.330094 -8.8002e-09 0)
(-0.330094 9.1332e-09 0)
(-0.330094 -9.47247e-09 0)
(-0.330094 9.81826e-09 0)
(-0.330094 -1.01704e-08 0)
(-0.330094 1.0529e-08 0)
(-0.330094 -1.0894e-08 0)
(-0.330094 1.12656e-08 0)
(-0.330094 -1.16435e-08 0)
(-0.330094 1.20279e-08 0)
(-0.330094 -1.24188e-08 0)
(-0.330094 1.2816e-08 0)
(-0.330094 -1.32196e-08 0)
(-0.330094 1.36296e-08 0)
(-0.330094 -1.40459e-08 0)
(-0.330094 1.27015e-08 0)
(-0.330094 -1.28362e-08 0)
(-0.330094 1.29694e-08 0)
(-0.330094 -1.31013e-08 0)
(-0.330094 1.32317e-08 0)
(-0.330094 -1.33607e-08 0)
(-0.330094 1.34881e-08 0)
(-0.330094 -1.36142e-08 0)
(-0.330094 1.37386e-08 0)
(-0.330094 -1.38617e-08 0)
(-0.330094 1.3983e-08 0)
(-0.330094 -1.41031e-08 0)
(-0.330094 1.42212e-08 0)
(-0.330094 -1.43382e-08 0)
(-0.330094 1.44531e-08 0)
(-0.330094 -1.45668e-08 0)
(-0.330094 1.46783e-08 0)
(-0.330094 -1.47888e-08 0)
(-0.330094 1.48968e-08 0)
(-0.330094 -1.50041e-08 0)
(-0.330094 1.51081e-08 0)
(-0.330094 -1.52125e-08 0)
(-0.330094 1.53123e-08 0)
(-0.330094 -1.54136e-08 0)
(-0.330094 1.55091e-08 0)
(-0.330094 -1.56072e-08 0)
(-0.330094 1.56981e-08 0)
(-0.330094 -1.57929e-08 0)
(-0.330094 1.58791e-08 0)
(-0.330094 -1.59704e-08 0)
(-0.330094 1.60516e-08 0)
(-0.330094 -1.61394e-08 0)
(-0.330094 1.62153e-08 0)
(-0.330094 -1.62992e-08 0)
(-0.330094 1.63695e-08 0)
(-0.330094 -1.64497e-08 0)
(-0.330094 1.65137e-08 0)
(-0.330094 -1.659e-08 0)
(-0.330094 1.66473e-08 0)
(-0.330094 -1.67191e-08 0)
(-0.330094 1.67693e-08 0)
(-0.330094 -1.68357e-08 0)
(-0.330094 1.68786e-08 0)
(-0.330094 -1.6939e-08 0)
(-0.330094 1.69731e-08 0)
(-0.330094 -1.70259e-08 0)
(-0.330094 1.70508e-08 0)
(-0.330094 -1.70926e-08 0)
(-0.330094 1.71056e-08 0)
(-0.330094 -1.71284e-08 0)
)
;

boundaryField
{
    inandouthalf11
    {
        type            cyclic;
    }
    inandouthalf12
    {
        type            cyclic;
    }
    inandouthalf21
    {
        type            cyclic;
    }
    inandouthalf22
    {
        type            cyclic;
    }
    inandouthalf31
    {
        type            cyclic;
    }
    inandouthalf32
    {
        type            cyclic;
    }
    inandouthalf41
    {
        type            cyclic;
    }
    inandouthalf42
    {
        type            cyclic;
    }
    top
    {
        type            symmetryPlane;
    }
    walls
    {
        type            fixedValue;
        value           uniform (0 0 0);
    }
    frontAndBackPlanes
    {
        type            empty;
    }
}


// ************************************************************************* //
