/*--------------------------------*- C++ -*----------------------------------*\
| =========                 |                                                 |
| \\      /  F ield         | OpenFOAM: The Open Source CFD Toolbox           |
|  \\    /   O peration     | Version:  2.4.x                                 |
|   \\  /    A nd           | Web:      www.OpenFOAM.org                      |
|    \\/     M anipulation  |                                                 |
\*---------------------------------------------------------------------------*/
FoamFile
{
    version     2.0;
    format      ascii;
    class       volScalarField;
    location    "7.75";
    object      alpha;
}
// * * * * * * * * * * * * * * * * * * * * * * * * * * * * * * * * * * * * * //

dimensions      [0 0 0 0 0 0 0];

internalField   nonuniform List<scalar> 
360
(
0.610816
0.611645
0.611743
0.611656
0.611611
0.611595
0.611578
0.611555
0.611532
0.611509
0.611486
0.611462
0.611439
0.611415
0.611391
0.611367
0.611342
0.611318
0.611293
0.611268
0.611242
0.611217
0.611191
0.611165
0.611139
0.611112
0.611086
0.611059
0.611031
0.611004
0.610976
0.610948
0.61092
0.610891
0.610862
0.610833
0.610803
0.610774
0.610743
0.610713
0.610682
0.610651
0.61062
0.610588
0.610556
0.610523
0.61049
0.610457
0.610423
0.610389
0.610355
0.61032
0.610285
0.610249
0.610213
0.610176
0.61014
0.610102
0.610064
0.610027
0.609987
0.609948
0.609908
0.609868
0.609827
0.609786
0.609744
0.609702
0.609659
0.609616
0.609571
0.609526
0.609481
0.609435
0.609388
0.60934
0.609292
0.609244
0.609194
0.609143
0.609092
0.60904
0.608988
0.608934
0.608879
0.608824
0.608767
0.60871
0.608651
0.608592
0.608531
0.60847
0.608407
0.608343
0.608278
0.608211
0.608143
0.608074
0.608003
0.607931
0.607857
0.607782
0.607705
0.607627
0.607546
0.607464
0.60738
0.607293
0.607205
0.607114
0.607021
0.606926
0.606828
0.606727
0.606624
0.606517
0.606408
0.606296
0.60618
0.606061
0.605938
0.605811
0.60568
0.605545
0.605406
0.605262
0.605112
0.604957
0.604796
0.604628
0.604453
0.60427
0.60408
0.603879
0.603665
0.60344
0.603205
0.602955
0.602678
0.602361
0.602018
0.601689
0.601293
0.600781
0.600143
0.598912
0.596435
0.596324
0.59354
0.413474
0.185444
0.106124
0.0629158
0.0358494
0.0197539
0.0108813
0.00624325
0.00386866
0.00262733
0.00192894
0.00149692
0.00120769
0.00100225
0.000849532
0.000731919
0.000638752
0.000563243
0.000500879
0.000448551
0.00040405
0.000365766
0.000332502
0.000303347
0.0002776
0.00025471
0.000234242
0.000215846
0.000199237
0.000184181
0.000170487
0.000157992
0.00014656
0.000136075
0.000126439
0.000117563
0.000109375
0.000101807
9.48012e-05
8.83063e-05
8.22763e-05
7.66703e-05
7.14517e-05
6.65872e-05
6.20465e-05
5.78017e-05
5.38273e-05
5.00996e-05
4.65967e-05
4.32987e-05
4.01875e-05
3.72486e-05
3.44421e-05
3.17374e-05
2.91333e-05
2.66303e-05
2.42307e-05
2.19397e-05
1.9763e-05
1.77071e-05
1.57777e-05
1.39801e-05
1.23177e-05
1.07944e-05
9.41231e-06
8.16738e-06
7.05275e-06
6.06456e-06
5.19541e-06
4.43336e-06
3.768e-06
3.18989e-06
2.69173e-06
2.26355e-06
1.89478e-06
1.58043e-06
1.31349e-06
1.08661e-06
8.94635e-07
7.32974e-07
5.96793e-07
4.83551e-07
3.87595e-07
3.12182e-07
2.50692e-07
2.02495e-07
1.35493e-07
9.29232e-08
7.22925e-08
4.84458e-08
3.37207e-08
1.85375e-08
1.1828e-08
2.3366e-09
5.78394e-20
7.14229e-31
5.14191e-39
3.97963e-39
3.13889e-39
2.16526e-39
9.98342e-40
4.32089e-40
2.25441e-40
1.33262e-40
8.68897e-41
5.92077e-41
3.49237e-41
1.54081e-41
7.59879e-42
4.11239e-42
2.3487e-42
1.32773e-42
6.44043e-43
3.2153e-43
1.64427e-43
8.31214e-44
4.11685e-44
2.01262e-44
9.67326e-45
4.5684e-45
2.1188e-45
9.64481e-46
4.30628e-46
1.88464e-46
8.07929e-47
3.39012e-47
1.39129e-47
5.57983e-48
2.18499e-48
8.34635e-49
3.10695e-49
1.12591e-49
3.96745e-50
1.35779e-50
4.50717e-51
1.44915e-51
4.50609e-52
1.35285e-52
3.9146e-53
1.08958e-53
2.91095e-54
7.44712e-55
1.81963e-55
4.23402e-56
9.35153e-57
1.95333e-57
3.84253e-58
7.0848e-59
1.21759e-59
1.93784e-60
2.83418e-61
3.77394e-62
4.52318e-63
4.80953e-64
4.45258e-65
3.49876e-66
2.24993e-67
1.11877e-68
3.88985e-70
7.50753e-72
2.13773e-74
3.86273e-79
3.33516e-81
1.42791e-83
4.92885e-94
8.5014e-105
1.06076e-115
9.5146e-127
7.30741e-138
4.24625e-149
2.13475e-160
1.67502e-170
7.15922e-181
5.51055e-189
2.12209e-199
1.89542e-207
8.56262e-218
6.52192e-226
3.61458e-236
2.2459e-244
2.29761e-254
7.8613e-263
1.51216e-272
2.81651e-281
7.47064e-291
1.03074e-299
3.56393e-309
8.73624e-318
7.95446e-321
4.57737e-319
2.8055e-319
6.80328e-321
7.09478e-321
6.08689e-321
8.5424e-321
0
0
0
0
0
0
0
0
0
0
0
0
0
0
0
0
)
;

boundaryField
{
    inandouthalf11
    {
        type            cyclic;
    }
    inandouthalf12
    {
        type            cyclic;
    }
    inandouthalf21
    {
        type            cyclic;
    }
    inandouthalf22
    {
        type            cyclic;
    }
    inandouthalf31
    {
        type            cyclic;
    }
    inandouthalf32
    {
        type            cyclic;
    }
    inandouthalf41
    {
        type            cyclic;
    }
    inandouthalf42
    {
        type            cyclic;
    }
    top
    {
        type            symmetryPlane;
    }
    walls
    {
        type            zeroGradient;
    }
    frontAndBackPlanes
    {
        type            empty;
    }
}


// ************************************************************************* //
