/*--------------------------------*- C++ -*----------------------------------*\
| =========                 |                                                 |
| \\      /  F ield         | OpenFOAM: The Open Source CFD Toolbox           |
|  \\    /   O peration     | Version:  2.4.x                                 |
|   \\  /    A nd           | Web:      www.OpenFOAM.org                      |
|    \\/     M anipulation  |                                                 |
\*---------------------------------------------------------------------------*/
FoamFile
{
    version     2.0;
    format      ascii;
    class       volVectorField;
    location    "7.75";
    object      ddt0(Ub);
}
// * * * * * * * * * * * * * * * * * * * * * * * * * * * * * * * * * * * * * //

dimensions      [0 1 -2 0 0 0 0];

internalField   nonuniform List<vector> 
360
(
(4.01035e-05 -1.55728e-08 0)
(3.9843e-05 -5.63662e-08 0)
(3.98514e-05 -1.01594e-07 0)
(3.99119e-05 -1.37655e-07 0)
(3.9946e-05 -1.6882e-07 0)
(3.99718e-05 -1.98469e-07 0)
(4.0002e-05 -2.27405e-07 0)
(4.0035e-05 -2.55823e-07 0)
(4.00683e-05 -2.84052e-07 0)
(4.01015e-05 -3.12521e-07 0)
(4.01347e-05 -3.41636e-07 0)
(4.01678e-05 -3.71723e-07 0)
(4.0201e-05 -4.0301e-07 0)
(4.02341e-05 -4.35679e-07 0)
(4.02671e-05 -4.69895e-07 0)
(4.03e-05 -5.0579e-07 0)
(4.03327e-05 -5.43478e-07 0)
(4.03653e-05 -5.83052e-07 0)
(4.03977e-05 -6.24572e-07 0)
(4.043e-05 -6.68076e-07 0)
(4.04622e-05 -7.1357e-07 0)
(4.04944e-05 -7.61043e-07 0)
(4.05264e-05 -8.10471e-07 0)
(4.05584e-05 -8.61813e-07 0)
(4.05904e-05 -9.15012e-07 0)
(4.06224e-05 -9.70001e-07 0)
(4.06544e-05 -1.02669e-06 0)
(4.06864e-05 -1.08502e-06 0)
(4.07186e-05 -1.14489e-06 0)
(4.07508e-05 -1.20622e-06 0)
(4.07831e-05 -1.26891e-06 0)
(4.08156e-05 -1.33289e-06 0)
(4.08482e-05 -1.39805e-06 0)
(4.0881e-05 -1.46435e-06 0)
(4.09139e-05 -1.53168e-06 0)
(4.09471e-05 -1.59998e-06 0)
(4.09804e-05 -1.66917e-06 0)
(4.1014e-05 -1.73921e-06 0)
(4.10478e-05 -1.81004e-06 0)
(4.10818e-05 -1.88159e-06 0)
(4.11162e-05 -1.95383e-06 0)
(4.11507e-05 -2.02672e-06 0)
(4.11855e-05 -2.10018e-06 0)
(4.12206e-05 -2.17421e-06 0)
(4.1256e-05 -2.24875e-06 0)
(4.12916e-05 -2.32377e-06 0)
(4.13276e-05 -2.39924e-06 0)
(4.13638e-05 -2.4751e-06 0)
(4.14003e-05 -2.5513e-06 0)
(4.14372e-05 -2.62787e-06 0)
(4.14743e-05 -2.70475e-06 0)
(4.15117e-05 -2.78192e-06 0)
(4.15495e-05 -2.85933e-06 0)
(4.15875e-05 -2.93696e-06 0)
(4.16259e-05 -3.01475e-06 0)
(4.16647e-05 -3.0927e-06 0)
(4.17037e-05 -3.17072e-06 0)
(4.17431e-05 -3.24878e-06 0)
(4.17828e-05 -3.32685e-06 0)
(4.18228e-05 -3.40488e-06 0)
(4.18632e-05 -3.4829e-06 0)
(4.19037e-05 -3.56091e-06 0)
(4.19446e-05 -3.63895e-06 0)
(4.19858e-05 -3.71704e-06 0)
(4.20273e-05 -3.79517e-06 0)
(4.20691e-05 -3.87332e-06 0)
(4.21113e-05 -3.9515e-06 0)
(4.21537e-05 -4.02971e-06 0)
(4.21964e-05 -4.10796e-06 0)
(4.22393e-05 -4.18626e-06 0)
(4.22825e-05 -4.2647e-06 0)
(4.23259e-05 -4.34337e-06 0)
(4.23694e-05 -4.42231e-06 0)
(4.24133e-05 -4.50163e-06 0)
(4.24573e-05 -4.58138e-06 0)
(4.25017e-05 -4.66161e-06 0)
(4.25463e-05 -4.74229e-06 0)
(4.25912e-05 -4.82337e-06 0)
(4.26364e-05 -4.9048e-06 0)
(4.26819e-05 -4.98651e-06 0)
(4.27276e-05 -5.06845e-06 0)
(4.27736e-05 -5.15056e-06 0)
(4.28199e-05 -5.23281e-06 0)
(4.28664e-05 -5.31514e-06 0)
(4.29132e-05 -5.39748e-06 0)
(4.29604e-05 -5.47969e-06 0)
(4.30079e-05 -5.56163e-06 0)
(4.30559e-05 -5.64305e-06 0)
(4.31044e-05 -5.72371e-06 0)
(4.31532e-05 -5.80331e-06 0)
(4.32025e-05 -5.88157e-06 0)
(4.32522e-05 -5.95823e-06 0)
(4.33024e-05 -6.03304e-06 0)
(4.33529e-05 -6.10577e-06 0)
(4.34038e-05 -6.17624e-06 0)
(4.34552e-05 -6.24425e-06 0)
(4.35069e-05 -6.30962e-06 0)
(4.35592e-05 -6.37218e-06 0)
(4.36119e-05 -6.43178e-06 0)
(4.3665e-05 -6.48828e-06 0)
(4.37186e-05 -6.54155e-06 0)
(4.37726e-05 -6.59148e-06 0)
(4.38271e-05 -6.638e-06 0)
(4.3882e-05 -6.68106e-06 0)
(4.39373e-05 -6.72061e-06 0)
(4.39931e-05 -6.75667e-06 0)
(4.40492e-05 -6.78924e-06 0)
(4.41058e-05 -6.81833e-06 0)
(4.41627e-05 -6.844e-06 0)
(4.42201e-05 -6.86628e-06 0)
(4.42778e-05 -6.88525e-06 0)
(4.4336e-05 -6.90096e-06 0)
(4.43946e-05 -6.91349e-06 0)
(4.44536e-05 -6.9229e-06 0)
(4.45131e-05 -6.92928e-06 0)
(4.45731e-05 -6.93271e-06 0)
(4.46336e-05 -6.93328e-06 0)
(4.46948e-05 -6.93109e-06 0)
(4.47567e-05 -6.92626e-06 0)
(4.48193e-05 -6.91895e-06 0)
(4.48829e-05 -6.90931e-06 0)
(4.49475e-05 -6.89757e-06 0)
(4.50133e-05 -6.88396e-06 0)
(4.50805e-05 -6.86876e-06 0)
(4.51493e-05 -6.85228e-06 0)
(4.52198e-05 -6.83483e-06 0)
(4.52924e-05 -6.81671e-06 0)
(4.53672e-05 -6.79819e-06 0)
(4.54445e-05 -6.77945e-06 0)
(4.55245e-05 -6.7606e-06 0)
(4.56073e-05 -6.74168e-06 0)
(4.56926e-05 -6.72266e-06 0)
(4.57805e-05 -6.70347e-06 0)
(4.58712e-05 -6.68403e-06 0)
(4.5965e-05 -6.66434e-06 0)
(4.60617e-05 -6.64451e-06 0)
(4.61608e-05 -6.62471e-06 0)
(4.62636e-05 -6.60513e-06 0)
(4.63753e-05 -6.58597e-06 0)
(4.65022e-05 -6.568e-06 0)
(4.66425e-05 -6.55234e-06 0)
(4.67854e-05 -6.53741e-06 0)
(4.69537e-05 -6.52349e-06 0)
(4.71591e-05 -6.50886e-06 0)
(4.74135e-05 -6.48086e-06 0)
(4.79448e-05 -7.6446e-06 0)
(4.42395e-05 1.53231e-05 0)
(0.000102878 -2.27135e-05 0)
(0.00147474 5.43153e-05 0)
(0.291785 -0.000126926 0)
(0.3937 -0.00062811 0)
(0.362002 -0.00173503 0)
(0.432856 -0.00167634 0)
(0.537389 -0.00155206 0)
(0.663837 -0.00106213 0)
(0.794335 -0.000680834 0)
(0.906019 -0.000396004 0)
(0.987814 -0.000222638 0)
(1.04293 -0.00012926 0)
(1.07948 -8.19171e-05 0)
(1.10437 -5.77522e-05 0)
(1.12211 -4.30748e-05 0)
(1.13543 -3.28806e-05 0)
(1.14595 -2.62565e-05 0)
(1.15462 -2.15627e-05 0)
(1.16207 -1.80442e-05 0)
(1.16866 -1.53207e-05 0)
(1.17463 -1.31633e-05 0)
(1.18016 -1.14203e-05 0)
(1.18535 -9.98872e-06 0)
(1.19028 -8.79683e-06 0)
(1.195 -7.79328e-06 0)
(1.19955 -6.94031e-06 0)
(1.20395 -6.20952e-06 0)
(1.20823 -5.57909e-06 0)
(1.21239 -5.03198e-06 0)
(1.21644 -4.55466e-06 0)
(1.2204 -4.13626e-06 0)
(1.22427 -3.7679e-06 0)
(1.22805 -3.44231e-06 0)
(1.23174 -3.15343e-06 0)
(1.23535 -2.89618e-06 0)
(1.23888 -2.66629e-06 0)
(1.24234 -2.46014e-06 0)
(1.24571 -2.27463e-06 0)
(1.24901 -2.10711e-06 0)
(1.25223 -1.95531e-06 0)
(1.25538 -1.81726e-06 0)
(1.25846 -1.69128e-06 0)
(1.26146 -1.5759e-06 0)
(1.26439 -1.46986e-06 0)
(1.26725 -1.37207e-06 0)
(1.27004 -1.2816e-06 0)
(1.27276 -1.19762e-06 0)
(1.27541 -1.1194e-06 0)
(1.278 -1.0463e-06 0)
(1.28051 -9.77758e-07 0)
(1.28296 -9.13263e-07 0)
(1.28534 -8.52357e-07 0)
(1.28765 -7.94632e-07 0)
(1.28989 -7.39764e-07 0)
(1.29208 -6.86965e-07 0)
(1.29424 -6.35682e-07 0)
(1.29638 -5.85919e-07 0)
(1.2985 -5.37705e-07 0)
(1.30059 -4.91107e-07 0)
(1.30266 -4.46242e-07 0)
(1.30471 -4.03275e-07 0)
(1.30674 -3.62385e-07 0)
(1.30874 -3.23744e-07 0)
(1.31071 -2.875e-07 0)
(1.31265 -2.53772e-07 0)
(1.31455 -2.22675e-07 0)
(1.31643 -1.94295e-07 0)
(1.31826 -1.68622e-07 0)
(1.32005 -1.45574e-07 0)
(1.3218 -1.25058e-07 0)
(1.32351 -1.06966e-07 0)
(1.32516 -9.11372e-08 0)
(1.32677 -7.73803e-08 0)
(1.32832 -6.54985e-08 0)
(1.32981 -5.53076e-08 0)
(1.33124 -4.66068e-08 0)
(1.3326 -3.91917e-08 0)
(1.3339 -3.28981e-08 0)
(1.33512 -2.75887e-08 0)
(1.33627 -2.31227e-08 0)
(1.33733 -1.93739e-08 0)
(1.33831 -1.62396e-08 0)
(1.3392 -1.36244e-08 0)
(1.33999 -1.1444e-08 0)
(1.34068 -9.64054e-09 0)
(1.34125 -8.18978e-09 0)
(1.34171 -7.05936e-09 0)
(1.34203 -6.06789e-09 0)
(1.34222 -5.0473e-09 0)
(1.34226 -4.14194e-09 0)
(1.34214 -3.43301e-09 0)
(1.34185 -2.90703e-09 0)
(1.34137 -2.59469e-09 0)
(1.34068 -2.39579e-09 0)
(1.33978 -2.27102e-09 0)
(1.33863 -2.16045e-09 0)
(1.33723 -2.07594e-09 0)
(1.33557 -2.02238e-09 0)
(1.33362 -1.95565e-09 0)
(1.33139 -1.89602e-09 0)
(1.32888 -1.83721e-09 0)
(1.32612 -1.77468e-09 0)
(1.32314 -1.70915e-09 0)
(1.32001 -1.64381e-09 0)
(1.31682 -1.57835e-09 0)
(1.31369 -1.51097e-09 0)
(1.31071 -1.43722e-09 0)
(1.30798 -1.36757e-09 0)
(1.30559 -1.31344e-09 0)
(1.30358 -1.22291e-09 0)
(1.30199 -1.12671e-09 0)
(1.30085 -1.17774e-09 0)
(1.30019 -8.28012e-10 0)
(1.30005 -1.22331e-09 0)
(1.30076 -4.73128e-10 0)
(1.30248 -1.28923e-09 0)
(1.3029 -1.52103e-10 0)
(1.30292 -1.34107e-09 0)
(1.30292 9.15086e-11 0)
(1.30292 -1.38299e-09 0)
(1.30292 2.7125e-10 0)
(1.30292 -1.41606e-09 0)
(1.30292 4.24581e-10 0)
(1.30292 -1.45512e-09 0)
(1.30292 5.7182e-10 0)
(1.30292 -1.50696e-09 0)
(1.30292 7.13979e-10 0)
(1.30292 -1.57602e-09 0)
(1.30292 8.60903e-10 0)
(1.30292 -1.65096e-09 0)
(1.30292 1.0136e-09 0)
(1.30292 -1.73488e-09 0)
(1.30292 1.17458e-09 0)
(1.30292 -1.82466e-09 0)
(1.30292 1.33787e-09 0)
(1.30292 -1.92623e-09 0)
(1.30292 1.50768e-09 0)
(1.30292 -2.0349e-09 0)
(1.30292 1.68241e-09 0)
(1.30292 -2.15155e-09 0)
(1.30292 1.86312e-09 0)
(1.30292 -2.27689e-09 0)
(1.30292 2.05036e-09 0)
(1.30292 -2.40817e-09 0)
(1.30292 2.2451e-09 0)
(1.30292 -2.54713e-09 0)
(1.30292 2.44592e-09 0)
(1.30292 -2.69373e-09 0)
(1.30292 2.65295e-09 0)
(1.30292 -2.85496e-09 0)
(1.30292 2.85113e-09 0)
(1.30292 -3.03777e-09 0)
(1.30292 3.05376e-09 0)
(1.30292 -3.22689e-09 0)
(1.30292 3.26197e-09 0)
(1.30292 -3.42342e-09 0)
(1.30292 3.48253e-09 0)
(1.30292 -3.62335e-09 0)
(1.30292 3.70677e-09 0)
(1.30292 -3.83367e-09 0)
(1.30292 3.93907e-09 0)
(1.30292 -4.03861e-09 0)
(1.30292 4.1772e-09 0)
(1.30292 -3.71868e-09 0)
(1.30292 3.81911e-09 0)
(1.30292 -3.74736e-09 0)
(1.30292 3.88469e-09 0)
(1.30292 -3.78912e-09 0)
(1.30292 3.95917e-09 0)
(1.30292 -3.81746e-09 0)
(1.30292 4.04147e-09 0)
(1.30292 -3.83602e-09 0)
(1.30292 4.13832e-09 0)
(1.30292 -3.84175e-09 0)
(1.30292 4.24034e-09 0)
(1.30292 -3.83723e-09 0)
(1.30292 4.34879e-09 0)
(1.30292 -3.81486e-09 0)
(1.30292 4.48692e-09 0)
(1.30292 -3.76764e-09 0)
(1.30292 4.49372e-09 0)
(1.30292 -3.66039e-09 0)
(1.30292 5.44207e-09 0)
(1.30292 -2.53991e-09 0)
(1.30292 6.63394e-09 0)
(1.30292 -1.35851e-09 0)
(1.30292 7.94113e-09 0)
(1.30292 6.10259e-11 0)
(1.30292 9.7516e-09 0)
(1.30292 1.78085e-09 0)
(1.30292 1.12344e-08 0)
(1.30292 3.28334e-09 0)
(1.30292 1.32915e-08 0)
(1.30292 5.59536e-09 0)
(1.30292 1.57868e-08 0)
(1.30292 8.32252e-09 0)
(1.30292 1.89089e-08 0)
(1.30292 1.19751e-08 0)
(1.30292 2.36245e-08 0)
(1.30292 1.7084e-08 0)
(1.30292 2.87457e-08 0)
(1.30292 2.24004e-08 0)
(1.30292 3.42989e-08 0)
(1.30292 2.75197e-08 0)
(1.30292 3.83049e-08 0)
(1.30292 3.36303e-08 0)
(1.30292 4.93415e-08 0)
(1.30292 4.44953e-08 0)
(1.30292 5.53696e-08 0)
(1.30292 4.88276e-08 0)
(1.30292 6.10411e-08 0)
(1.30292 5.2403e-08 0)
(1.30292 3.40152e-08 0)
)
;

boundaryField
{
    inandouthalf11
    {
        type            cyclic;
    }
    inandouthalf12
    {
        type            cyclic;
    }
    inandouthalf21
    {
        type            cyclic;
    }
    inandouthalf22
    {
        type            cyclic;
    }
    inandouthalf31
    {
        type            cyclic;
    }
    inandouthalf32
    {
        type            cyclic;
    }
    inandouthalf41
    {
        type            cyclic;
    }
    inandouthalf42
    {
        type            cyclic;
    }
    top
    {
        type            symmetryPlane;
    }
    walls
    {
        type            calculated;
        value           uniform (0 0 0);
    }
    frontAndBackPlanes
    {
        type            empty;
    }
}


// ************************************************************************* //
