/*--------------------------------*- C++ -*----------------------------------*\
| =========                 |                                                 |
| \\      /  F ield         | OpenFOAM: The Open Source CFD Toolbox           |
|  \\    /   O peration     | Version:  2.4.x                                 |
|   \\  /    A nd           | Web:      www.OpenFOAM.org                      |
|    \\/     M anipulation  |                                                 |
\*---------------------------------------------------------------------------*/
FoamFile
{
    version     2.0;
    format      ascii;
    class       surfaceScalarField;
    location    "7.75";
    object      ddt0(phib);
}
// * * * * * * * * * * * * * * * * * * * * * * * * * * * * * * * * * * * * * //

dimensions      [0 3 -2 0 0 0 0];

internalField   nonuniform List<scalar> 
359
(
-1.27511e-13
-3.2655e-13
-4.85984e-13
-6.15126e-13
-7.35348e-13
-8.52409e-13
-9.66859e-13
-1.07974e-12
-1.1927e-12
-1.30749e-12
-1.42562e-12
-1.54819e-12
-1.67592e-12
-1.80955e-12
-1.94964e-12
-2.09671e-12
-2.25114e-12
-2.41331e-12
-2.58331e-12
-2.76133e-12
-2.94728e-12
-3.14112e-12
-3.3427e-12
-3.55185e-12
-3.76829e-12
-3.99176e-12
-4.22185e-12
-4.45834e-12
-4.70084e-12
-4.94896e-12
-5.20237e-12
-5.46078e-12
-5.72372e-12
-5.9911e-12
-6.2624e-12
-6.53748e-12
-6.81598e-12
-7.09775e-12
-7.38261e-12
-7.67018e-12
-7.9605e-12
-8.25329e-12
-8.54825e-12
-8.84547e-12
-9.14463e-12
-9.44565e-12
-9.74836e-12
-1.00525e-11
-1.0358e-11
-1.0665e-11
-1.09731e-11
-1.12823e-11
-1.15924e-11
-1.19034e-11
-1.22148e-11
-1.25269e-11
-1.2839e-11
-1.31513e-11
-1.34636e-11
-1.37756e-11
-1.40877e-11
-1.43997e-11
-1.4712e-11
-1.50244e-11
-1.5337e-11
-1.56497e-11
-1.59624e-11
-1.62754e-11
-1.65884e-11
-1.69018e-11
-1.72159e-11
-1.75311e-11
-1.78475e-11
-1.81657e-11
-1.84856e-11
-1.88075e-11
-1.9131e-11
-1.94561e-11
-1.97824e-11
-2.01098e-11
-2.0438e-11
-2.07667e-11
-2.10959e-11
-2.14254e-11
-2.17546e-11
-2.20831e-11
-2.24101e-11
-2.27345e-11
-2.30553e-11
-2.33714e-11
-2.36814e-11
-2.39846e-11
-2.42799e-11
-2.45665e-11
-2.48437e-11
-2.51106e-11
-2.53666e-11
-2.56111e-11
-2.58434e-11
-2.60631e-11
-2.62696e-11
-2.64626e-11
-2.66417e-11
-2.6807e-11
-2.69582e-11
-2.70955e-11
-2.72187e-11
-2.73282e-11
-2.7424e-11
-2.75065e-11
-2.75758e-11
-2.76322e-11
-2.7676e-11
-2.77075e-11
-2.77271e-11
-2.7735e-11
-2.77316e-11
-2.77175e-11
-2.7693e-11
-2.7659e-11
-2.76159e-11
-2.7565e-11
-2.75071e-11
-2.74435e-11
-2.73753e-11
-2.73039e-11
-2.72304e-11
-2.71557e-11
-2.70805e-11
-2.7005e-11
-2.69291e-11
-2.68529e-11
-2.67758e-11
-2.66976e-11
-2.66183e-11
-2.65388e-11
-2.64604e-11
-2.63835e-11
-2.63084e-11
-2.62379e-11
-2.61785e-11
-2.61275e-11
-2.6073e-11
-2.60091e-11
-2.59116e-11
-2.55452e-11
9.07641e-11
-4.17467e-11
6.77421e-11
-2.24388e-09
-4.62477e-09
-6.79469e-09
-6.51701e-09
-5.13136e-09
-3.47923e-09
-2.13466e-09
-1.23027e-09
-6.99815e-10
-4.22457e-10
-2.79631e-10
-1.99877e-10
-1.50668e-10
-1.18336e-10
-9.5763e-11
-7.92592e-11
-6.67449e-11
-5.69768e-11
-4.91738e-11
-4.28229e-11
-3.75747e-11
-3.31829e-11
-2.94692e-11
-2.63013e-11
-2.35786e-11
-2.12233e-11
-1.91743e-11
-1.73827e-11
-1.58091e-11
-1.44211e-11
-1.31921e-11
-1.20998e-11
-1.11255e-11
-1.02533e-11
-9.46995e-12
-8.76386e-12
-8.12518e-12
-7.54547e-12
-7.01738e-12
-6.53462e-12
-6.09176e-12
-5.68407e-12
-5.30755e-12
-4.9586e-12
-4.63417e-12
-4.33151e-12
-4.04823e-12
-3.78213e-12
-3.53134e-12
-3.29408e-12
-3.06887e-12
-2.85457e-12
-2.64638e-12
-2.44426e-12
-2.24829e-12
-2.05862e-12
-1.87565e-12
-1.69992e-12
-1.53217e-12
-1.37304e-12
-1.22325e-12
-1.08326e-12
-9.53535e-13
-8.34487e-13
-7.26403e-13
-6.28914e-13
-5.4172e-13
-4.64442e-13
-3.96593e-13
-3.37375e-13
-2.86074e-13
-2.41847e-13
-2.04088e-13
-1.71807e-13
-1.4436e-13
-1.21099e-13
-1.01571e-13
-8.50807e-14
-7.13275e-14
-5.97855e-14
-5.02261e-14
-4.22032e-14
-3.56784e-14
-3.04142e-14
-2.64408e-14
-2.23621e-14
-1.82296e-14
-1.52752e-14
-1.25989e-14
-1.10205e-14
-9.99408e-15
-9.33236e-15
-8.90179e-15
-8.46415e-15
-8.20213e-15
-7.93091e-15
-7.71919e-15
-7.45529e-15
-7.24323e-15
-6.95496e-15
-6.72018e-15
-6.43072e-15
-6.1842e-15
-5.89001e-15
-5.64129e-15
-5.3395e-15
-5.06314e-15
-4.76205e-15
-4.48833e-15
-4.18319e-15
-3.90175e-15
-3.59622e-15
-3.32535e-15
-3.04995e-15
-2.82036e-15
-2.62189e-15
-2.46288e-15
-2.32064e-15
-2.19076e-15
-2.07459e-15
-1.96036e-15
-1.86525e-15
-1.76054e-15
-1.69025e-15
-1.61651e-15
-1.54175e-15
-1.46293e-15
-1.39124e-15
-1.32312e-15
-1.24644e-15
-1.16722e-15
-1.10702e-15
-1.04106e-15
-9.74832e-16
-9.10243e-16
-8.51076e-16
-7.87378e-16
-7.27668e-16
-6.74426e-16
-6.11174e-16
-5.5347e-16
-4.89614e-16
-4.35178e-16
-3.74974e-16
-3.16738e-16
-2.63753e-16
-2.05959e-16
-1.98737e-16
-1.79432e-16
-1.65251e-16
-1.42015e-16
-1.38298e-16
-1.1411e-16
-9.85512e-17
-5.77308e-17
-5.42009e-17
-3.45731e-17
-1.81462e-17
3.02938e-17
4.56584e-17
9.77985e-17
1.39053e-16
2.192e-16
2.1235e-16
2.45403e-16
2.74768e-16
3.46688e-16
3.81284e-16
4.6504e-16
5.41826e-16
6.59185e-16
7.35478e-16
8.53989e-16
9.72059e-16
1.09719e-15
1.31884e-15
1.44825e-15
1.62317e-15
1.04235e-15
3.67029e-15
5.80973e-15
7.99236e-15
1.07821e-14
1.28209e-14
1.60711e-14
1.92122e-14
2.38582e-14
2.55113e-14
2.91027e-14
3.25742e-14
3.82082e-14
4.22518e-14
4.82087e-14
5.42876e-14
6.10685e-14
7.11794e-14
8.13661e-14
9.1756e-14
1.01646e-13
1.14274e-13
1.23216e-13
1.33655e-13
1.36238e-13
1.70281e-13
1.86895e-13
2.06006e-13
1.99675e-13
2.28493e-13
2.22336e-13
2.33553e-13
)
;

boundaryField
{
    inandouthalf11
    {
        type            cyclic;
        value           nonuniform List<scalar> 
100
(
-4.01035e-11
-3.9843e-11
-3.98514e-11
-3.99119e-11
-3.9946e-11
-3.99718e-11
-4.0002e-11
-4.0035e-11
-4.00683e-11
-4.01015e-11
-4.01347e-11
-4.01678e-11
-4.0201e-11
-4.02341e-11
-4.02671e-11
-4.03e-11
-4.03327e-11
-4.03653e-11
-4.03977e-11
-4.043e-11
-4.04622e-11
-4.04944e-11
-4.05264e-11
-4.05584e-11
-4.05904e-11
-4.06224e-11
-4.06544e-11
-4.06864e-11
-4.07186e-11
-4.07508e-11
-4.07831e-11
-4.08156e-11
-4.08482e-11
-4.0881e-11
-4.09139e-11
-4.09471e-11
-4.09804e-11
-4.1014e-11
-4.10478e-11
-4.10818e-11
-4.11162e-11
-4.11507e-11
-4.11855e-11
-4.12206e-11
-4.1256e-11
-4.12916e-11
-4.13276e-11
-4.13638e-11
-4.14003e-11
-4.14372e-11
-4.14743e-11
-4.15117e-11
-4.15495e-11
-4.15875e-11
-4.16259e-11
-4.16647e-11
-4.17037e-11
-4.17431e-11
-4.17828e-11
-4.18228e-11
-4.18632e-11
-4.19037e-11
-4.19446e-11
-4.19858e-11
-4.20273e-11
-4.20691e-11
-4.21113e-11
-4.21537e-11
-4.21964e-11
-4.22393e-11
-4.22825e-11
-4.23259e-11
-4.23694e-11
-4.24133e-11
-4.24573e-11
-4.25017e-11
-4.25463e-11
-4.25912e-11
-4.26364e-11
-4.26819e-11
-4.27276e-11
-4.27736e-11
-4.28199e-11
-4.28664e-11
-4.29132e-11
-4.29604e-11
-4.30079e-11
-4.30559e-11
-4.31044e-11
-4.31532e-11
-4.32025e-11
-4.32522e-11
-4.33024e-11
-4.33529e-11
-4.34038e-11
-4.34552e-11
-4.35069e-11
-4.35592e-11
-4.36119e-11
-4.3665e-11
)
;
    }
    inandouthalf12
    {
        type            cyclic;
        value           nonuniform List<scalar> 
100
(
4.01035e-11
3.9843e-11
3.98514e-11
3.99119e-11
3.9946e-11
3.99718e-11
4.0002e-11
4.0035e-11
4.00683e-11
4.01015e-11
4.01347e-11
4.01678e-11
4.0201e-11
4.02341e-11
4.02671e-11
4.03e-11
4.03327e-11
4.03653e-11
4.03977e-11
4.043e-11
4.04622e-11
4.04944e-11
4.05264e-11
4.05584e-11
4.05904e-11
4.06224e-11
4.06544e-11
4.06864e-11
4.07186e-11
4.07508e-11
4.07831e-11
4.08156e-11
4.08482e-11
4.0881e-11
4.09139e-11
4.09471e-11
4.09804e-11
4.1014e-11
4.10478e-11
4.10818e-11
4.11162e-11
4.11507e-11
4.11855e-11
4.12206e-11
4.1256e-11
4.12916e-11
4.13276e-11
4.13638e-11
4.14003e-11
4.14372e-11
4.14743e-11
4.15117e-11
4.15495e-11
4.15875e-11
4.16259e-11
4.16647e-11
4.17037e-11
4.17431e-11
4.17828e-11
4.18228e-11
4.18632e-11
4.19037e-11
4.19446e-11
4.19858e-11
4.20273e-11
4.20691e-11
4.21113e-11
4.21537e-11
4.21964e-11
4.22393e-11
4.22825e-11
4.23259e-11
4.23694e-11
4.24133e-11
4.24573e-11
4.25017e-11
4.25463e-11
4.25912e-11
4.26364e-11
4.26819e-11
4.27276e-11
4.27736e-11
4.28199e-11
4.28664e-11
4.29132e-11
4.29604e-11
4.30079e-11
4.30559e-11
4.31044e-11
4.31532e-11
4.32025e-11
4.32522e-11
4.33024e-11
4.33529e-11
4.34038e-11
4.34552e-11
4.35069e-11
4.35592e-11
4.36119e-11
4.3665e-11
)
;
    }
    inandouthalf21
    {
        type            cyclic;
        value           nonuniform List<scalar> 
100
(
-4.37186e-11
-4.37726e-11
-4.38271e-11
-4.3882e-11
-4.39373e-11
-4.39931e-11
-4.40492e-11
-4.41058e-11
-4.41627e-11
-4.42201e-11
-4.42778e-11
-4.4336e-11
-4.43946e-11
-4.44536e-11
-4.45131e-11
-4.45731e-11
-4.46336e-11
-4.46948e-11
-4.47567e-11
-4.48193e-11
-4.48829e-11
-4.49475e-11
-4.50133e-11
-4.50805e-11
-4.51493e-11
-4.52198e-11
-4.52924e-11
-4.53672e-11
-4.54445e-11
-4.55245e-11
-4.56073e-11
-4.56926e-11
-4.57805e-11
-4.58712e-11
-4.5965e-11
-4.60617e-11
-4.61608e-11
-4.62636e-11
-4.63753e-11
-4.65022e-11
-4.66425e-11
-4.67854e-11
-4.69537e-11
-4.71591e-11
-4.74135e-11
-4.79448e-11
-4.42395e-11
-1.02878e-10
-1.47474e-09
-2.91785e-07
-3.937e-07
-3.62002e-07
-4.32856e-07
-5.37389e-07
-6.63837e-07
-7.94335e-07
-9.06019e-07
-9.87814e-07
-1.04293e-06
-1.07948e-06
-1.10437e-06
-1.12211e-06
-1.13543e-06
-1.14595e-06
-1.15462e-06
-1.16207e-06
-1.16866e-06
-1.17463e-06
-1.18016e-06
-1.18535e-06
-1.19028e-06
-1.195e-06
-1.19955e-06
-1.20395e-06
-1.20823e-06
-1.21239e-06
-1.21644e-06
-1.2204e-06
-1.22427e-06
-1.22805e-06
-1.23174e-06
-1.23535e-06
-1.23888e-06
-1.24234e-06
-1.24571e-06
-1.24901e-06
-1.25223e-06
-1.25538e-06
-1.25846e-06
-1.26146e-06
-1.26439e-06
-1.26725e-06
-1.27004e-06
-1.27276e-06
-1.27541e-06
-1.278e-06
-1.28051e-06
-1.28296e-06
-1.28534e-06
-1.28765e-06
)
;
    }
    inandouthalf22
    {
        type            cyclic;
        value           nonuniform List<scalar> 
100
(
4.37186e-11
4.37726e-11
4.38271e-11
4.3882e-11
4.39373e-11
4.39931e-11
4.40492e-11
4.41058e-11
4.41627e-11
4.42201e-11
4.42778e-11
4.4336e-11
4.43946e-11
4.44536e-11
4.45131e-11
4.45731e-11
4.46336e-11
4.46948e-11
4.47567e-11
4.48193e-11
4.48829e-11
4.49475e-11
4.50133e-11
4.50805e-11
4.51493e-11
4.52198e-11
4.52924e-11
4.53672e-11
4.54445e-11
4.55245e-11
4.56073e-11
4.56926e-11
4.57805e-11
4.58712e-11
4.5965e-11
4.60617e-11
4.61608e-11
4.62636e-11
4.63753e-11
4.65022e-11
4.66425e-11
4.67854e-11
4.69537e-11
4.71591e-11
4.74135e-11
4.79448e-11
4.42395e-11
1.02878e-10
1.47474e-09
2.91785e-07
3.937e-07
3.62002e-07
4.32856e-07
5.37389e-07
6.63837e-07
7.94335e-07
9.06019e-07
9.87814e-07
1.04293e-06
1.07948e-06
1.10437e-06
1.12211e-06
1.13543e-06
1.14595e-06
1.15462e-06
1.16207e-06
1.16866e-06
1.17463e-06
1.18016e-06
1.18535e-06
1.19028e-06
1.195e-06
1.19955e-06
1.20395e-06
1.20823e-06
1.21239e-06
1.21644e-06
1.2204e-06
1.22427e-06
1.22805e-06
1.23174e-06
1.23535e-06
1.23888e-06
1.24234e-06
1.24571e-06
1.24901e-06
1.25223e-06
1.25538e-06
1.25846e-06
1.26146e-06
1.26439e-06
1.26725e-06
1.27004e-06
1.27276e-06
1.27541e-06
1.278e-06
1.28051e-06
1.28296e-06
1.28534e-06
1.28765e-06
)
;
    }
    inandouthalf31
    {
        type            cyclic;
        value           nonuniform List<scalar> 
110
(
-1.28989e-06
-1.31831e-06
-1.34732e-06
-1.37694e-06
-1.40718e-06
-1.43806e-06
-1.46958e-06
-1.50177e-06
-1.53463e-06
-1.56817e-06
-1.60241e-06
-1.63736e-06
-1.67302e-06
-1.70941e-06
-1.74653e-06
-1.78441e-06
-1.82304e-06
-1.86244e-06
-1.90262e-06
-1.94359e-06
-1.98535e-06
-2.02792e-06
-2.07131e-06
-2.11552e-06
-2.16056e-06
-2.20643e-06
-2.25315e-06
-2.30072e-06
-2.34914e-06
-2.39841e-06
-2.44853e-06
-2.49951e-06
-2.55134e-06
-2.60401e-06
-2.65751e-06
-2.71183e-06
-2.76696e-06
-2.82287e-06
-2.87953e-06
-2.93692e-06
-2.995e-06
-3.05373e-06
-3.11305e-06
-3.17292e-06
-3.23329e-06
-3.29411e-06
-3.35535e-06
-3.417e-06
-3.4791e-06
-3.54174e-06
-3.60509e-06
-3.66939e-06
-3.73495e-06
-3.80211e-06
-3.87122e-06
-3.94257e-06
-4.01641e-06
-4.09294e-06
-4.17236e-06
-4.25487e-06
-4.34076e-06
-4.4313e-06
-4.52723e-06
-4.62059e-06
-4.71444e-06
-4.81013e-06
-4.90776e-06
-5.00738e-06
-5.10901e-06
-5.21271e-06
-5.31852e-06
-5.42647e-06
-5.53661e-06
-5.64899e-06
-5.76365e-06
-5.88064e-06
-6e-06
-6.12178e-06
-6.24604e-06
-6.37282e-06
-6.50217e-06
-6.63414e-06
-6.7688e-06
-6.90619e-06
-7.04637e-06
-7.18939e-06
-7.33531e-06
-7.4842e-06
-7.63611e-06
-7.7911e-06
-7.94924e-06
-8.11059e-06
-8.27521e-06
-8.44318e-06
-8.61455e-06
-8.78941e-06
-8.96781e-06
-9.14983e-06
-9.33555e-06
-9.52503e-06
-9.71837e-06
-9.91562e-06
-1.01169e-05
-1.03222e-05
-1.05317e-05
-1.07455e-05
-1.09636e-05
-1.11861e-05
-1.14132e-05
-1.16449e-05
)
;
    }
    inandouthalf32
    {
        type            cyclic;
        value           nonuniform List<scalar> 
110
(
1.28989e-06
1.31831e-06
1.34732e-06
1.37694e-06
1.40718e-06
1.43806e-06
1.46958e-06
1.50177e-06
1.53463e-06
1.56817e-06
1.60241e-06
1.63736e-06
1.67302e-06
1.70941e-06
1.74653e-06
1.78441e-06
1.82304e-06
1.86244e-06
1.90262e-06
1.94359e-06
1.98535e-06
2.02792e-06
2.07131e-06
2.11552e-06
2.16056e-06
2.20643e-06
2.25315e-06
2.30072e-06
2.34914e-06
2.39841e-06
2.44853e-06
2.49951e-06
2.55134e-06
2.60401e-06
2.65751e-06
2.71183e-06
2.76696e-06
2.82287e-06
2.87953e-06
2.93692e-06
2.995e-06
3.05373e-06
3.11305e-06
3.17292e-06
3.23329e-06
3.29411e-06
3.35535e-06
3.417e-06
3.4791e-06
3.54174e-06
3.60509e-06
3.66939e-06
3.73495e-06
3.80211e-06
3.87122e-06
3.94257e-06
4.01641e-06
4.09294e-06
4.17236e-06
4.25487e-06
4.34076e-06
4.4313e-06
4.52723e-06
4.62059e-06
4.71444e-06
4.81013e-06
4.90776e-06
5.00738e-06
5.10901e-06
5.21271e-06
5.31852e-06
5.42647e-06
5.53661e-06
5.64899e-06
5.76365e-06
5.88064e-06
6e-06
6.12178e-06
6.24604e-06
6.37282e-06
6.50217e-06
6.63414e-06
6.7688e-06
6.90619e-06
7.04637e-06
7.18939e-06
7.33531e-06
7.4842e-06
7.63611e-06
7.7911e-06
7.94924e-06
8.11059e-06
8.27521e-06
8.44318e-06
8.61455e-06
8.78941e-06
8.96781e-06
9.14983e-06
9.33555e-06
9.52503e-06
9.71837e-06
9.91562e-06
1.01169e-05
1.03222e-05
1.05317e-05
1.07455e-05
1.09636e-05
1.11861e-05
1.14132e-05
1.16449e-05
)
;
    }
    inandouthalf41
    {
        type            cyclic;
        value           nonuniform List<scalar> 
50
(
-1.04233e-05
-1.04233e-05
-1.04233e-05
-1.04233e-05
-1.04233e-05
-1.04233e-05
-1.04233e-05
-1.04233e-05
-1.04233e-05
-1.04233e-05
-1.04233e-05
-1.04233e-05
-1.04233e-05
-1.04233e-05
-1.04233e-05
-1.04233e-05
-1.04233e-05
-1.04233e-05
-1.04233e-05
-1.04233e-05
-1.04233e-05
-1.04233e-05
-1.04233e-05
-1.04233e-05
-1.04233e-05
-1.04233e-05
-1.04233e-05
-1.04233e-05
-1.04233e-05
-1.04233e-05
-1.04233e-05
-1.04233e-05
-1.04233e-05
-1.04233e-05
-1.04233e-05
-1.04233e-05
-1.04233e-05
-1.04233e-05
-1.04233e-05
-1.04233e-05
-1.04233e-05
-1.04233e-05
-1.04233e-05
-1.04233e-05
-1.04233e-05
-1.04233e-05
-1.04233e-05
-1.04233e-05
-1.04233e-05
-1.04233e-05
)
;
    }
    inandouthalf42
    {
        type            cyclic;
        value           nonuniform List<scalar> 
50
(
1.04233e-05
1.04233e-05
1.04233e-05
1.04233e-05
1.04233e-05
1.04233e-05
1.04233e-05
1.04233e-05
1.04233e-05
1.04233e-05
1.04233e-05
1.04233e-05
1.04233e-05
1.04233e-05
1.04233e-05
1.04233e-05
1.04233e-05
1.04233e-05
1.04233e-05
1.04233e-05
1.04233e-05
1.04233e-05
1.04233e-05
1.04233e-05
1.04233e-05
1.04233e-05
1.04233e-05
1.04233e-05
1.04233e-05
1.04233e-05
1.04233e-05
1.04233e-05
1.04233e-05
1.04233e-05
1.04233e-05
1.04233e-05
1.04233e-05
1.04233e-05
1.04233e-05
1.04233e-05
1.04233e-05
1.04233e-05
1.04233e-05
1.04233e-05
1.04233e-05
1.04233e-05
1.04233e-05
1.04233e-05
1.04233e-05
1.04233e-05
)
;
    }
    top
    {
        type            symmetryPlane;
        value           uniform 0;
    }
    walls
    {
        type            calculated;
        value           uniform 0;
    }
    frontAndBackPlanes
    {
        type            empty;
        value           nonuniform 0();
    }
}


// ************************************************************************* //
