/*--------------------------------*- C++ -*----------------------------------*\
| =========                 |                                                 |
| \\      /  F ield         | OpenFOAM: The Open Source CFD Toolbox           |
|  \\    /   O peration     | Version:  2.4.x                                 |
|   \\  /    A nd           | Web:      www.OpenFOAM.org                      |
|    \\/     M anipulation  |                                                 |
\*---------------------------------------------------------------------------*/
FoamFile
{
    version     2.0;
    format      ascii;
    class       surfaceScalarField;
    location    "7.75";
    object      ddt0(phia);
}
// * * * * * * * * * * * * * * * * * * * * * * * * * * * * * * * * * * * * * //

dimensions      [0 3 -2 0 0 0 0];

internalField   nonuniform List<scalar> 
359
(
8.07606e-14
2.06643e-13
3.07524e-13
3.89301e-13
4.65398e-13
5.39453e-13
6.11863e-13
6.83297e-13
7.54801e-13
8.27494e-13
9.02308e-13
9.79929e-13
1.06089e-12
1.1456e-12
1.23444e-12
1.32773e-12
1.42575e-12
1.52868e-12
1.63664e-12
1.7497e-12
1.86784e-12
1.99103e-12
2.11918e-12
2.25217e-12
2.38984e-12
2.532e-12
2.67844e-12
2.82898e-12
2.98338e-12
3.14141e-12
3.30284e-12
3.4675e-12
3.6351e-12
3.80556e-12
3.97858e-12
4.15405e-12
4.33175e-12
4.51159e-12
4.69346e-12
4.87712e-12
5.06257e-12
5.24966e-12
5.4382e-12
5.62822e-12
5.81957e-12
6.01217e-12
6.20592e-12
6.40061e-12
6.59629e-12
6.79296e-12
6.9904e-12
7.18863e-12
7.3875e-12
7.58698e-12
7.78686e-12
7.98718e-12
8.18768e-12
8.38835e-12
8.58905e-12
8.78969e-12
8.99047e-12
9.19131e-12
9.39238e-12
9.59362e-12
9.79505e-12
9.99661e-12
1.01984e-11
1.04003e-11
1.06024e-11
1.08048e-11
1.10078e-11
1.12117e-11
1.14164e-11
1.16223e-11
1.18294e-11
1.2038e-11
1.22477e-11
1.24585e-11
1.26703e-11
1.28829e-11
1.3096e-11
1.33098e-11
1.35239e-11
1.37384e-11
1.39529e-11
1.41671e-11
1.43804e-11
1.45922e-11
1.48019e-11
1.50086e-11
1.52118e-11
1.54106e-11
1.56046e-11
1.57931e-11
1.59758e-11
1.6152e-11
1.63214e-11
1.64836e-11
1.66381e-11
1.67846e-11
1.69229e-11
1.70526e-11
1.71736e-11
1.72858e-11
1.73892e-11
1.74837e-11
1.75694e-11
1.76464e-11
1.77148e-11
1.77748e-11
1.78264e-11
1.78699e-11
1.79056e-11
1.79334e-11
1.79538e-11
1.79668e-11
1.79728e-11
1.79721e-11
1.79649e-11
1.79517e-11
1.7933e-11
1.79094e-11
1.78815e-11
1.78502e-11
1.78162e-11
1.77805e-11
1.77437e-11
1.77065e-11
1.76693e-11
1.76323e-11
1.75956e-11
1.75591e-11
1.75226e-11
1.74862e-11
1.74498e-11
1.74141e-11
1.738e-11
1.73484e-11
1.73203e-11
1.72974e-11
1.7282e-11
1.72736e-11
1.72694e-11
1.72675e-11
1.72674e-11
1.72672e-11
-6.13251e-11
2.74056e-11
-5.32723e-11
1.90511e-08
1.60856e-08
1.99272e-08
3.12725e-08
5.05444e-08
7.81164e-08
1.13165e-07
1.44762e-07
1.59808e-07
1.60583e-07
1.55372e-07
1.48134e-07
1.40007e-07
1.32113e-07
1.24638e-07
1.17681e-07
1.11266e-07
1.05385e-07
1.00017e-07
9.51384e-08
9.07222e-08
8.67423e-08
8.31724e-08
7.99872e-08
7.71622e-08
7.46734e-08
7.24978e-08
7.06131e-08
6.89977e-08
6.76311e-08
6.64934e-08
6.55654e-08
6.48289e-08
6.42664e-08
6.38613e-08
6.35977e-08
6.34605e-08
6.34356e-08
6.35096e-08
6.36699e-08
6.39047e-08
6.42031e-08
6.45546e-08
6.49495e-08
6.53782e-08
6.58318e-08
6.63017e-08
6.67795e-08
6.72573e-08
6.77273e-08
6.81828e-08
6.86177e-08
6.90364e-08
6.94354e-08
6.98113e-08
7.01603e-08
7.04792e-08
7.07642e-08
7.10117e-08
7.12174e-08
7.13764e-08
7.14832e-08
7.15315e-08
7.15155e-08
7.14279e-08
7.12593e-08
7.1002e-08
7.06537e-08
7.02201e-08
6.97379e-08
6.92473e-08
6.87601e-08
6.82782e-08
6.77996e-08
6.73239e-08
6.68553e-08
6.63952e-08
6.59466e-08
6.55166e-08
6.51102e-08
6.47411e-08
6.44143e-08
6.41559e-08
6.39875e-08
6.40082e-08
6.4123e-08
6.35921e-08
5.99876e-08
4.4148e-08
3.72426e-08
2.96477e-08
2.79456e-08
2.99533e-08
4.8142e-08
1.27099e-08
-9.56775e-11
-4.60432e-12
-5.96703e-11
-9.39767e-11
-1.23291e-10
-1.56905e-10
-1.4664e-10
-9.17697e-11
-9.14996e-11
-8.05146e-11
-2.81922e-11
6.1484e-12
3.66875e-11
5.74798e-11
6.66105e-11
6.23644e-11
9.74538e-12
-3.10095e-11
8.02168e-11
1.02731e-10
1.02384e-10
1.02336e-10
1.02338e-10
1.02329e-10
1.02338e-10
1.02329e-10
1.02338e-10
1.02329e-10
1.02339e-10
1.02329e-10
1.02339e-10
1.02329e-10
1.02339e-10
1.02329e-10
1.02339e-10
1.02329e-10
1.02339e-10
1.02329e-10
1.02339e-10
1.02329e-10
1.02339e-10
1.02329e-10
1.0234e-10
1.02329e-10
1.0234e-10
1.02329e-10
1.0234e-10
1.02329e-10
1.0234e-10
1.02329e-10
1.0234e-10
1.02329e-10
1.0234e-10
1.02329e-10
1.0234e-10
1.02329e-10
1.0234e-10
1.02329e-10
1.0234e-10
1.0233e-10
1.02339e-10
1.0233e-10
1.02339e-10
1.0233e-10
1.02339e-10
1.0233e-10
1.02339e-10
1.02331e-10
1.02339e-10
1.02331e-10
1.02339e-10
1.02331e-10
1.02338e-10
1.02331e-10
1.02338e-10
1.02331e-10
1.02338e-10
1.02332e-10
1.02338e-10
1.02332e-10
1.02338e-10
1.02332e-10
1.02338e-10
1.02332e-10
1.02339e-10
1.02334e-10
1.0234e-10
1.02336e-10
1.02342e-10
1.02339e-10
1.02344e-10
1.02342e-10
1.02346e-10
1.02344e-10
1.02349e-10
1.02348e-10
1.02353e-10
1.02352e-10
1.02357e-10
1.02357e-10
1.02363e-10
1.02365e-10
1.02371e-10
1.02373e-10
1.0238e-10
1.02382e-10
1.02387e-10
1.02387e-10
1.02402e-10
1.02407e-10
1.02416e-10
1.02403e-10
1.00808e-10
-3.03004e-11
2.21148e-09
)
;

boundaryField
{
    inandouthalf11
    {
        type            cyclic;
        value           nonuniform List<scalar> 
100
(
-2.171e-38
-2.14806e-14
-4.54236e-14
-6.74905e-14
-9.0353e-14
-1.14445e-13
-1.39071e-13
-1.63835e-13
-1.88635e-13
-2.13439e-13
-2.38217e-13
-2.62934e-13
-2.87552e-13
-3.12042e-13
-3.36385e-13
-3.60576e-13
-3.84616e-13
-4.08507e-13
-4.32255e-13
-4.5587e-13
-4.79362e-13
-5.02744e-13
-5.26033e-13
-5.49246e-13
-5.72398e-13
-5.95508e-13
-6.18592e-13
-6.41667e-13
-6.64752e-13
-6.87862e-13
-7.11009e-13
-7.34209e-13
-7.57474e-13
-7.80817e-13
-8.04249e-13
-8.27778e-13
-8.5141e-13
-8.75156e-13
-8.99023e-13
-9.23015e-13
-9.47136e-13
-9.71393e-13
-9.95784e-13
-1.02032e-12
-1.04499e-12
-1.06981e-12
-1.09478e-12
-1.11988e-12
-1.14513e-12
-1.17052e-12
-1.19606e-12
-1.22173e-12
-1.24755e-12
-1.2735e-12
-1.29959e-12
-1.3258e-12
-1.35214e-12
-1.37859e-12
-1.40515e-12
-1.4318e-12
-1.45854e-12
-1.48537e-12
-1.51229e-12
-1.53928e-12
-1.56633e-12
-1.59343e-12
-1.62057e-12
-1.64774e-12
-1.67492e-12
-1.70209e-12
-1.72926e-12
-1.75643e-12
-1.78358e-12
-1.81071e-12
-1.83783e-12
-1.86493e-12
-1.89199e-12
-1.91902e-12
-1.94601e-12
-1.97294e-12
-1.99982e-12
-2.02665e-12
-2.05344e-12
-2.0802e-12
-2.10693e-12
-2.13364e-12
-2.16034e-12
-2.18701e-12
-2.21365e-12
-2.24026e-12
-2.26682e-12
-2.29333e-12
-2.31979e-12
-2.34618e-12
-2.3725e-12
-2.39875e-12
-2.42492e-12
-2.451e-12
-2.47696e-12
-2.50278e-12
)
;
    }
    inandouthalf12
    {
        type            cyclic;
        value           nonuniform List<scalar> 
100
(
2.171e-38
2.14806e-14
4.54236e-14
6.74905e-14
9.0353e-14
1.14445e-13
1.39071e-13
1.63835e-13
1.88635e-13
2.13439e-13
2.38217e-13
2.62934e-13
2.87552e-13
3.12042e-13
3.36385e-13
3.60576e-13
3.84616e-13
4.08507e-13
4.32255e-13
4.5587e-13
4.79362e-13
5.02744e-13
5.26033e-13
5.49246e-13
5.72398e-13
5.95508e-13
6.18592e-13
6.41667e-13
6.64752e-13
6.87862e-13
7.11009e-13
7.34209e-13
7.57474e-13
7.80817e-13
8.04249e-13
8.27778e-13
8.5141e-13
8.75156e-13
8.99023e-13
9.23015e-13
9.47136e-13
9.71393e-13
9.95784e-13
1.02032e-12
1.04499e-12
1.06981e-12
1.09478e-12
1.11988e-12
1.14513e-12
1.17052e-12
1.19606e-12
1.22173e-12
1.24755e-12
1.2735e-12
1.29959e-12
1.3258e-12
1.35214e-12
1.37859e-12
1.40515e-12
1.4318e-12
1.45854e-12
1.48537e-12
1.51229e-12
1.53928e-12
1.56633e-12
1.59343e-12
1.62057e-12
1.64774e-12
1.67492e-12
1.70209e-12
1.72926e-12
1.75643e-12
1.78358e-12
1.81071e-12
1.83783e-12
1.86493e-12
1.89199e-12
1.91902e-12
1.94601e-12
1.97294e-12
1.99982e-12
2.02665e-12
2.05344e-12
2.0802e-12
2.10693e-12
2.13364e-12
2.16034e-12
2.18701e-12
2.21365e-12
2.24026e-12
2.26682e-12
2.29333e-12
2.31979e-12
2.34618e-12
2.3725e-12
2.39875e-12
2.42492e-12
2.451e-12
2.47696e-12
2.50278e-12
)
;
    }
    inandouthalf21
    {
        type            cyclic;
        value           nonuniform List<scalar> 
100
(
-2.52845e-12
-2.55393e-12
-2.57921e-12
-2.60425e-12
-2.62904e-12
-2.65354e-12
-2.67773e-12
-2.70159e-12
-2.72511e-12
-2.74826e-12
-2.77104e-12
-2.79343e-12
-2.81544e-12
-2.83706e-12
-2.85831e-12
-2.87921e-12
-2.89977e-12
-2.92002e-12
-2.93999e-12
-2.9597e-12
-2.9792e-12
-2.99851e-12
-3.01763e-12
-3.03659e-12
-3.05538e-12
-3.07397e-12
-3.0923e-12
-3.11033e-12
-3.12796e-12
-3.14507e-12
-3.1615e-12
-3.17708e-12
-3.19167e-12
-3.20519e-12
-3.21766e-12
-3.22917e-12
-3.23992e-12
-3.25022e-12
-3.26054e-12
-3.27134e-12
-3.28234e-12
-3.29204e-12
-3.29865e-12
-3.30176e-12
-3.30264e-12
-3.30294e-12
-3.3029e-12
-5.66861e-11
-6.30781e-10
-2.5335e-07
-4.06334e-07
-3.91925e-07
-4.76734e-07
-5.98077e-07
-7.24188e-07
-8.3142e-07
-9.10522e-07
-9.65605e-07
-1.00489e-06
-1.0346e-06
-1.05829e-06
-1.07794e-06
-1.09473e-06
-1.1094e-06
-1.12243e-06
-1.13417e-06
-1.14484e-06
-1.15463e-06
-1.16365e-06
-1.17202e-06
-1.1798e-06
-1.18707e-06
-1.19387e-06
-1.20024e-06
-1.20623e-06
-1.21186e-06
-1.21717e-06
-1.22216e-06
-1.22687e-06
-1.23131e-06
-1.2355e-06
-1.23946e-06
-1.2432e-06
-1.24672e-06
-1.25005e-06
-1.2532e-06
-1.25617e-06
-1.25897e-06
-1.26161e-06
-1.2641e-06
-1.26645e-06
-1.26867e-06
-1.27075e-06
-1.27271e-06
-1.27455e-06
-1.27628e-06
-1.27791e-06
-1.27943e-06
-1.28085e-06
-1.28217e-06
)
;
    }
    inandouthalf22
    {
        type            cyclic;
        value           nonuniform List<scalar> 
100
(
2.52845e-12
2.55393e-12
2.57921e-12
2.60425e-12
2.62904e-12
2.65354e-12
2.67773e-12
2.70159e-12
2.72511e-12
2.74826e-12
2.77104e-12
2.79343e-12
2.81544e-12
2.83706e-12
2.85831e-12
2.87921e-12
2.89977e-12
2.92002e-12
2.93999e-12
2.9597e-12
2.9792e-12
2.99851e-12
3.01763e-12
3.03659e-12
3.05538e-12
3.07397e-12
3.0923e-12
3.11033e-12
3.12796e-12
3.14507e-12
3.1615e-12
3.17708e-12
3.19167e-12
3.20519e-12
3.21766e-12
3.22917e-12
3.23992e-12
3.25022e-12
3.26054e-12
3.27134e-12
3.28234e-12
3.29204e-12
3.29865e-12
3.30176e-12
3.30264e-12
3.30294e-12
3.3029e-12
5.66861e-11
6.30781e-10
2.5335e-07
4.06334e-07
3.91925e-07
4.76734e-07
5.98077e-07
7.24188e-07
8.3142e-07
9.10522e-07
9.65605e-07
1.00489e-06
1.0346e-06
1.05829e-06
1.07794e-06
1.09473e-06
1.1094e-06
1.12243e-06
1.13417e-06
1.14484e-06
1.15463e-06
1.16365e-06
1.17202e-06
1.1798e-06
1.18707e-06
1.19387e-06
1.20024e-06
1.20623e-06
1.21186e-06
1.21717e-06
1.22216e-06
1.22687e-06
1.23131e-06
1.2355e-06
1.23946e-06
1.2432e-06
1.24672e-06
1.25005e-06
1.2532e-06
1.25617e-06
1.25897e-06
1.26161e-06
1.2641e-06
1.26645e-06
1.26867e-06
1.27075e-06
1.27271e-06
1.27455e-06
1.27628e-06
1.27791e-06
1.27943e-06
1.28085e-06
1.28217e-06
)
;
    }
    inandouthalf31
    {
        type            cyclic;
        value           nonuniform List<scalar> 
110
(
-1.28341e-06
-1.31064e-06
-1.33839e-06
-1.36666e-06
-1.39546e-06
-1.4248e-06
-1.45471e-06
-1.48517e-06
-1.51622e-06
-1.54786e-06
-1.5801e-06
-1.61296e-06
-1.64645e-06
-1.68059e-06
-1.71538e-06
-1.75086e-06
-1.78703e-06
-1.82391e-06
-1.86153e-06
-1.89989e-06
-1.93903e-06
-1.97895e-06
-2.01968e-06
-2.06123e-06
-2.10363e-06
-2.14689e-06
-2.19103e-06
-2.23608e-06
-2.28204e-06
-2.32895e-06
-2.3768e-06
-2.42564e-06
-2.47548e-06
-2.52634e-06
-2.57817e-06
-2.63089e-06
-2.68475e-06
-2.82127e-06
-2.87778e-06
-2.93548e-06
-2.99236e-06
-3.05162e-06
-3.10905e-06
-3.16976e-06
-3.23065e-06
-3.29082e-06
-3.35184e-06
-3.41325e-06
-3.47513e-06
-3.53764e-06
-3.60147e-06
-3.66459e-06
-3.72977e-06
-3.79858e-06
-3.86712e-06
-3.93873e-06
-4.01278e-06
-4.08956e-06
-4.16923e-06
-4.25199e-06
-4.33793e-06
-4.42995e-06
-4.5248e-06
-4.61775e-06
-4.71152e-06
-4.80716e-06
-4.90473e-06
-5.00428e-06
-5.10585e-06
-5.20949e-06
-5.31523e-06
-5.42311e-06
-5.53319e-06
-5.6455e-06
-5.76009e-06
-5.877e-06
-5.99629e-06
-6.118e-06
-6.24218e-06
-6.36888e-06
-6.49815e-06
-6.63004e-06
-6.76461e-06
-6.90192e-06
-7.04201e-06
-7.18494e-06
-7.33078e-06
-7.47957e-06
-7.63139e-06
-7.78628e-06
-7.94433e-06
-8.10557e-06
-8.2701e-06
-8.43796e-06
-8.60922e-06
-8.78397e-06
-8.96226e-06
-9.14417e-06
-9.32977e-06
-9.51914e-06
-9.71235e-06
-9.90949e-06
-1.01106e-05
-1.03158e-05
-1.05252e-05
-1.07389e-05
-1.09568e-05
-1.11792e-05
-1.14061e-05
-1.16377e-05
)
;
    }
    inandouthalf32
    {
        type            cyclic;
        value           nonuniform List<scalar> 
110
(
1.28341e-06
1.31064e-06
1.33839e-06
1.36666e-06
1.39546e-06
1.4248e-06
1.45471e-06
1.48517e-06
1.51622e-06
1.54786e-06
1.5801e-06
1.61296e-06
1.64645e-06
1.68059e-06
1.71538e-06
1.75086e-06
1.78703e-06
1.82391e-06
1.86153e-06
1.89989e-06
1.93903e-06
1.97895e-06
2.01968e-06
2.06123e-06
2.10363e-06
2.14689e-06
2.19103e-06
2.23608e-06
2.28204e-06
2.32895e-06
2.3768e-06
2.42564e-06
2.47548e-06
2.52634e-06
2.57817e-06
2.63089e-06
2.68475e-06
2.82127e-06
2.87778e-06
2.93548e-06
2.99236e-06
3.05162e-06
3.10905e-06
3.16976e-06
3.23065e-06
3.29082e-06
3.35184e-06
3.41325e-06
3.47513e-06
3.53764e-06
3.60147e-06
3.66459e-06
3.72977e-06
3.79858e-06
3.86712e-06
3.93873e-06
4.01278e-06
4.08956e-06
4.16923e-06
4.25199e-06
4.33793e-06
4.42995e-06
4.5248e-06
4.61775e-06
4.71152e-06
4.80716e-06
4.90473e-06
5.00428e-06
5.10585e-06
5.20949e-06
5.31523e-06
5.42311e-06
5.53319e-06
5.6455e-06
5.76009e-06
5.877e-06
5.99629e-06
6.118e-06
6.24218e-06
6.36888e-06
6.49815e-06
6.63004e-06
6.76461e-06
6.90192e-06
7.04201e-06
7.18494e-06
7.33078e-06
7.47957e-06
7.63139e-06
7.78628e-06
7.94433e-06
8.10557e-06
8.2701e-06
8.43796e-06
8.60922e-06
8.78397e-06
8.96226e-06
9.14417e-06
9.32977e-06
9.51914e-06
9.71235e-06
9.90949e-06
1.01106e-05
1.03158e-05
1.05252e-05
1.07389e-05
1.09568e-05
1.11792e-05
1.14061e-05
1.16377e-05
)
;
    }
    inandouthalf41
    {
        type            cyclic;
        value           nonuniform List<scalar> 
50
(
-1.04169e-05
-1.04169e-05
-1.04169e-05
-1.04169e-05
-1.04169e-05
-1.04169e-05
-1.04169e-05
-1.04169e-05
-1.04169e-05
-1.04169e-05
-1.04169e-05
-1.04169e-05
-1.04169e-05
-1.04169e-05
-1.04169e-05
-1.04169e-05
-1.04169e-05
-1.04169e-05
-1.04169e-05
-1.04169e-05
-1.04169e-05
-1.04169e-05
-1.04169e-05
-1.04169e-05
-1.04169e-05
-1.04169e-05
-1.04169e-05
-1.04169e-05
-1.04169e-05
-1.04169e-05
-1.04169e-05
-1.04169e-05
-1.04169e-05
-1.04169e-05
-1.04169e-05
-1.04169e-05
-1.04169e-05
-1.04169e-05
-1.04169e-05
-1.04169e-05
-1.04169e-05
-1.04169e-05
-1.04169e-05
-1.04169e-05
-1.04169e-05
-1.04169e-05
-1.04169e-05
-1.04169e-05
-1.04169e-05
-1.04159e-05
)
;
    }
    inandouthalf42
    {
        type            cyclic;
        value           nonuniform List<scalar> 
50
(
1.04169e-05
1.04169e-05
1.04169e-05
1.04169e-05
1.04169e-05
1.04169e-05
1.04169e-05
1.04169e-05
1.04169e-05
1.04169e-05
1.04169e-05
1.04169e-05
1.04169e-05
1.04169e-05
1.04169e-05
1.04169e-05
1.04169e-05
1.04169e-05
1.04169e-05
1.04169e-05
1.04169e-05
1.04169e-05
1.04169e-05
1.04169e-05
1.04169e-05
1.04169e-05
1.04169e-05
1.04169e-05
1.04169e-05
1.04169e-05
1.04169e-05
1.04169e-05
1.04169e-05
1.04169e-05
1.04169e-05
1.04169e-05
1.04169e-05
1.04169e-05
1.04169e-05
1.04169e-05
1.04169e-05
1.04169e-05
1.04169e-05
1.04169e-05
1.04169e-05
1.04169e-05
1.04169e-05
1.04169e-05
1.04169e-05
1.04159e-05
)
;
    }
    top
    {
        type            symmetryPlane;
        value           uniform 0;
    }
    walls
    {
        type            calculated;
        value           uniform 0;
    }
    frontAndBackPlanes
    {
        type            empty;
        value           nonuniform 0();
    }
}


// ************************************************************************* //
