/*--------------------------------*- C++ -*----------------------------------*\
| =========                 |                                                 |
| \\      /  F ield         | OpenFOAM: The Open Source CFD Toolbox           |
|  \\    /   O peration     | Version:  2.4.x                                 |
|   \\  /    A nd           | Web:      www.OpenFOAM.org                      |
|    \\/     M anipulation  |                                                 |
\*---------------------------------------------------------------------------*/
FoamFile
{
    version     2.0;
    format      ascii;
    class       volScalarField;
    location    "7.75";
    object      ddt0(((1.5*(alpha+1e-08))*rho),Theta);
}
// * * * * * * * * * * * * * * * * * * * * * * * * * * * * * * * * * * * * * //

dimensions      [1 -1 -3 0 0 0 0];

internalField   nonuniform List<scalar> 
360
(
-2.11316e-21
-6.59003e-21
-3.9306e-21
-2.96785e-21
-2.90261e-21
-2.887e-21
-2.81217e-21
-2.75612e-21
-2.75101e-21
-2.7964e-21
-2.88285e-21
-2.99835e-21
-3.13447e-21
-3.28701e-21
-3.45454e-21
-3.63629e-21
-3.82975e-21
-4.0314e-21
-4.23872e-21
-4.44903e-21
-4.65946e-21
-4.86915e-21
-5.0768e-21
-5.28029e-21
-5.47822e-21
-5.66905e-21
-5.85268e-21
-6.02968e-21
-6.19846e-21
-6.3578e-21
-6.50918e-21
-6.65219e-21
-6.78702e-21
-6.91549e-21
-7.03594e-21
-7.14784e-21
-7.2536e-21
-7.35568e-21
-7.45164e-21
-7.5404e-21
-7.62632e-21
-7.70619e-21
-7.77959e-21
-7.85133e-21
-7.9193e-21
-7.98214e-21
-8.03742e-21
-8.08467e-21
-8.13279e-21
-8.1807e-21
-8.2208e-21
-8.25535e-21
-8.28628e-21
-8.31062e-21
-8.32862e-21
-8.34063e-21
-8.34445e-21
-8.34088e-21
-8.32896e-21
-8.31318e-21
-8.30083e-21
-8.29043e-21
-8.2809e-21
-8.2697e-21
-8.25357e-21
-8.23356e-21
-8.21165e-21
-8.18685e-21
-8.15761e-21
-8.13136e-21
-8.11782e-21
-8.11258e-21
-8.11079e-21
-8.11721e-21
-8.13059e-21
-8.14209e-21
-8.14345e-21
-8.13366e-21
-8.11534e-21
-8.0879e-21
-8.05211e-21
-8.01175e-21
-7.96808e-21
-7.91843e-21
-7.85861e-21
-7.78311e-21
-7.6857e-21
-7.56072e-21
-7.40566e-21
-7.22124e-21
-7.0098e-21
-6.77521e-21
-6.52205e-21
-6.25387e-21
-5.973e-21
-5.68102e-21
-5.37907e-21
-5.0683e-21
-4.75033e-21
-4.42738e-21
-4.10201e-21
-3.77705e-21
-3.45528e-21
-3.13921e-21
-2.83105e-21
-2.53268e-21
-2.24565e-21
-1.9712e-21
-1.71022e-21
-1.46329e-21
-1.23065e-21
-1.01227e-21
-8.0783e-22
-6.16863e-22
-4.38782e-22
-2.72984e-22
-1.18937e-22
2.37248e-23
1.55101e-22
2.74927e-22
3.8248e-22
4.76534e-22
5.55412e-22
6.1722e-22
6.60319e-22
6.83978e-22
6.88965e-22
6.77718e-22
6.53861e-22
6.21254e-22
5.83243e-22
5.42687e-22
3.94157e-22
-3.20906e-17
-1.78358e-16
-9.08488e-16
-4.1532e-15
-1.63504e-14
-5.28893e-14
-1.27357e-13
-1.14084e-13
2.069e-12
5.53565e-11
1.47841e-09
4.47467e-08
1.64759e-06
0.000201948
0.025408
0.6551
6.06493
5.71833
2.63397
1.61944
0.926304
0.464547
0.215276
0.100276
0.0499961
0.0271742
0.0157677
0.00944841
0.0056609
0.00326196
0.00168313
0.00061725
-0.000113128
-0.000616371
-0.000961593
-0.00119455
-0.00134642
-0.00143905
-0.00148803
-0.00150471
-0.00149749
-0.00147265
-0.00143496
-0.00138806
-0.00133475
-0.00127719
-0.00121708
-0.0011557
-0.00109408
-0.00103298
-0.000973004
-0.000914588
-0.000858054
-0.00080363
-0.000751466
-0.000701653
-0.000654235
-0.000609216
-0.000566575
-0.000526264
-0.000488215
-0.000452345
-0.000418561
-0.000386763
-0.000356843
-0.000328694
-0.000302215
-0.000277317
-0.000253692
-0.000231104
-0.000209562
-0.000189084
-0.000169695
-0.000151432
-0.000134331
-0.000118429
-0.000103746
-9.02962e-05
-7.80765e-05
-6.708e-05
-5.72851e-05
-4.8628e-05
-4.10289e-05
-3.44252e-05
-2.87341e-05
-2.38499e-05
-1.96794e-05
-1.61402e-05
-1.31628e-05
-1.06686e-05
-8.58092e-06
-6.85256e-06
-5.42995e-06
-4.26179e-06
-3.30932e-06
-2.53863e-06
-1.91777e-06
-1.42475e-06
-1.03068e-06
-7.32155e-07
-5.00537e-07
-3.23441e-07
-1.52893e-07
0
0
0
0
0
0
0
0
0
0
0
0
0
0
0
0
0
0
0
0
0
0
0
0
0
0
0
0
0
0
0
0
0
0
0
0
0
0
0
0
0
0
0
0
0
0
0
0
0
0
0
0
0
0
0
0
0
0
0
0
0
0
0
0
0
0
0
0
0
0
0
0
0
0
0
0
0
0
0
0
0
0
0
0
0
0
0
0
0
0
0
0
0
0
0
0
0
0
0
0
0
0
0
0
0
0
0
0
0
0
0
0
0
0
0
0
0
0
0
0
0
0
0
0
)
;

boundaryField
{
    inandouthalf11
    {
        type            cyclic;
    }
    inandouthalf12
    {
        type            cyclic;
    }
    inandouthalf21
    {
        type            cyclic;
    }
    inandouthalf22
    {
        type            cyclic;
    }
    inandouthalf31
    {
        type            cyclic;
    }
    inandouthalf32
    {
        type            cyclic;
    }
    inandouthalf41
    {
        type            cyclic;
    }
    inandouthalf42
    {
        type            cyclic;
    }
    top
    {
        type            symmetryPlane;
    }
    walls
    {
        type            calculated;
        value           uniform -2.11316e-21;
    }
    frontAndBackPlanes
    {
        type            empty;
    }
}


// ************************************************************************* //
