/*--------------------------------*- C++ -*----------------------------------*\
| =========                 |                                                 |
| \\      /  F ield         | OpenFOAM: The Open Source CFD Toolbox           |
|  \\    /   O peration     | Version:  2.4.x                                 |
|   \\  /    A nd           | Web:      www.OpenFOAM.org                      |
|    \\/     M anipulation  |                                                 |
\*---------------------------------------------------------------------------*/
FoamFile
{
    version     2.0;
    format      ascii;
    class       volVectorField;
    location    "7.75";
    object      gradPf;
}
// * * * * * * * * * * * * * * * * * * * * * * * * * * * * * * * * * * * * * //

dimensions      [0 1 -2 0 0 0 0];

internalField   nonuniform List<vector> 
360
(
(0 67.1232 0)
(0 76.1482 0)
(0 1.07496 0)
(0 -12.1765 0)
(-3.34466e-14 -5.57228 0)
(-3.34475e-14 -3.04051 0)
(-3.34484e-14 -3.59784 0)
(0 -4.02831 0)
(-3.34509e-14 -4.08599 0)
(0 -4.11191 0)
(-3.34535e-14 -4.09887 0)
(0 -4.0777 0)
(-3.3456e-14 -4.07381 0)
(0 -4.07229 0)
(0 -4.08518 0)
(0 -4.09911 0)
(0 -4.10146 0)
(-3.34627e-14 -4.09836 0)
(0 -4.11314 0)
(0 -4.11092 0)
(0 -4.10997 0)
(-1.67341e-14 -4.12653 0)
(0 -4.12692 0)
(0 -4.1333 0)
(0 -4.14018 0)
(-3.34739e-14 -4.13759 0)
(0 -4.14915 0)
(0 -4.16218 0)
(0 -4.15887 0)
(0 -4.16127 0)
(0 -4.1813 0)
(0 -4.17123 0)
(0 -4.18532 0)
(0 -4.20006 0)
(0 -4.19201 0)
(3.34892e-14 -4.1998 0)
(0 -4.2042 0)
(0 -4.23181 0)
(0 -4.2099 0)
(0 -4.22106 0)
(0 -4.25233 0)
(0 -4.22134 0)
(1.67505e-14 -4.24319 0)
(0 -4.259 0)
(0 -4.25014 0)
(0 -4.27396 0)
(0 -4.25492 0)
(0 -4.25223 0)
(0 -4.29964 0)
(0 -4.28339 0)
(1.67577e-14 -4.27499 0)
(0 -4.2953 0)
(0 -4.3009 0)
(0 -4.29434 0)
(0 -4.31001 0)
(0 -4.31282 0)
(0 -4.31022 0)
(0 -4.32929 0)
(0 -4.30372 0)
(0 -4.32954 0)
(0 -4.33807 0)
(0 -4.33424 0)
(0 -4.34954 0)
(0 -4.34436 0)
(0 -4.34592 0)
(0 -4.35098 0)
(0 -4.3639 0)
(0 -4.36217 0)
(0 -4.34779 0)
(0 -4.36371 0)
(0 -4.39337 0)
(0 -4.3703 0)
(0 -4.3727 0)
(0 -4.39278 0)
(0 -4.39848 0)
(0 -4.39802 0)
(0 -4.38851 0)
(0 -4.39879 0)
(0 -4.40633 0)
(0 -4.40431 0)
(0 -4.40692 0)
(0 -4.41782 0)
(0 -4.42258 0)
(0 -4.42732 0)
(0 -4.4318 0)
(0 -4.43619 0)
(0 -4.43871 0)
(0 -4.43837 0)
(0 -4.44139 0)
(0 -4.445 0)
(0 -4.44764 0)
(0 -4.4524 0)
(0 -4.45834 0)
(0 -4.46312 0)
(0 -4.46753 0)
(0 -4.47146 0)
(0 -4.47456 0)
(0 -4.4771 0)
(0 -4.47964 0)
(0 -4.48219 0)
(0 -4.48472 0)
(0 -4.48746 0)
(0 -4.49021 0)
(0 -4.49269 0)
(0 -4.49492 0)
(0 -4.49687 0)
(0 -4.49848 0)
(0 -4.49976 0)
(0 -4.50068 0)
(0 -4.50116 0)
(0 -4.50109 0)
(0 -4.50036 0)
(0 -4.49883 0)
(0 -4.49637 0)
(0 -4.49285 0)
(0 -4.48815 0)
(0 -4.48216 0)
(0 -4.47483 0)
(0 -4.46612 0)
(0 -4.45602 0)
(0 -4.4445 0)
(0 -4.4315 0)
(0 -4.41698 0)
(0 -4.40105 0)
(0 -4.38429 0)
(0 -4.36791 0)
(0 -4.35349 0)
(0 -4.342 0)
(0 -4.33204 0)
(0 -4.31925 0)
(0 -4.29981 0)
(0 -4.27893 0)
(0 -4.27326 0)
(0 -4.28944 0)
(0 -4.29849 0)
(0 -4.26779 0)
(0 -4.23353 0)
(0 -4.3016 0)
(0 -4.51316 0)
(0 -4.63793 0)
(0 -4.35741 0)
(0 -4.28891 0)
(0 -4.83878 0)
(0 -5.40378 0)
(0 -7.1297 0)
(0 -9.94486 0)
(0 -5.82331 0)
(0 -3.48287 0)
(0 -6.70054 0)
(0 -4.85833 0)
(0 0 0)
(0 0 0)
(0 0 0)
(0 0 0)
(0 0 0)
(0 0 0)
(0 0 0)
(0 0 0)
(0 0 0)
(0 0 0)
(0 0 0)
(0 0 0)
(0 0 0)
(0 0 0)
(0 0 0)
(0 0 0)
(0 0 0)
(0 0 0)
(0 0 0)
(0 0 0)
(0 0 0)
(0 0 0)
(0 0 0)
(0 0 0)
(0 0 0)
(0 0 0)
(0 0 0)
(0 0 0)
(0 0 0)
(0 0 0)
(0 0 0)
(0 0 0)
(0 0 0)
(0 0 0)
(0 0 0)
(0 0 0)
(0 0 0)
(0 0 0)
(0 0 0)
(0 0 0)
(0 0 0)
(0 0 0)
(0 0 0)
(0 0 0)
(0 0 0)
(0 0 0)
(0 0 0)
(0 0 0)
(0 0 0)
(0 0 0)
(0 0 0)
(0 0 0)
(0 0 0)
(0 0 0)
(0 0 0)
(0 0 0)
(0 0 0)
(0 0 0)
(0 0 0)
(0 0 0)
(0 0 0)
(0 0 0)
(0 0 0)
(0 0 0)
(0 0 0)
(0 0 0)
(0 0 0)
(0 0 0)
(0 0 0)
(0 0 0)
(0 0 0)
(0 0 0)
(0 0 0)
(0 0 0)
(0 0 0)
(0 0 0)
(0 0 0)
(0 0 0)
(0 0 0)
(0 0 0)
(0 0 0)
(0 0 0)
(0 0 0)
(0 0 0)
(0 0 0)
(0 0 0)
(0 0 0)
(0 0 0)
(0 0 0)
(0 0 0)
(0 0 0)
(0 0 0)
(0 0 0)
(0 0 0)
(0 0 0)
(0 0 0)
(0 0 0)
(0 0 0)
(0 0 0)
(0 0 0)
(0 0 0)
(0 0 0)
(0 0 0)
(0 0 0)
(0 0 0)
(0 0 0)
(0 0 0)
(0 0 0)
(0 0 0)
(0 0 0)
(0 0 0)
(0 0 0)
(0 0 0)
(0 0 0)
(0 0 0)
(0 0 0)
(0 0 0)
(0 0 0)
(0 0 0)
(0 0 0)
(0 0 0)
(0 0 0)
(0 0 0)
(0 0 0)
(0 0 0)
(0 0 0)
(0 0 0)
(0 0 0)
(0 0 0)
(0 0 0)
(0 0 0)
(0 0 0)
(0 0 0)
(0 0 0)
(0 0 0)
(0 0 0)
(0 0 0)
(0 0 0)
(0 0 0)
(0 0 0)
(0 0 0)
(0 0 0)
(0 0 0)
(0 0 0)
(0 0 0)
(0 0 0)
(0 0 0)
(0 0 0)
(0 0 0)
(0 0 0)
(0 0 0)
(0 0 0)
(0 0 0)
(0 0 0)
(0 0 0)
(0 0 0)
(0 0 0)
(0 0 0)
(0 0 0)
(0 0 0)
(0 0 0)
(0 0 0)
(0 0 0)
(0 0 0)
(0 0 0)
(0 0 0)
(0 0 0)
(0 0 0)
(0 0 0)
(0 0 0)
(0 0 0)
(0 0 0)
(0 0 0)
(0 0 0)
(0 0 0)
(0 0 0)
(0 0 0)
(0 0 0)
(0 0 0)
(0 0 0)
(0 0 0)
(0 0 0)
(0 0 0)
(0 0 0)
(0 0 0)
(0 0 0)
(0 0 0)
(0 0 0)
(0 0 0)
(0 0 0)
(0 0 0)
(0 0 0)
(0 0 0)
(0 0 0)
(0 0 0)
(0 0 0)
(0 0 0)
(0 0 0)
(0 0 0)
(0 0 0)
(0 0 0)
(0 0 0)
(0 0 0)
(0 0 0)
(0 0 0)
(0 0 0)
(0 0 0)
(0 0 0)
(0 0 0)
(0 0 0)
)
;

boundaryField
{
    inandouthalf11
    {
        type            cyclic;
    }
    inandouthalf12
    {
        type            cyclic;
    }
    inandouthalf21
    {
        type            cyclic;
    }
    inandouthalf22
    {
        type            cyclic;
    }
    inandouthalf31
    {
        type            cyclic;
    }
    inandouthalf32
    {
        type            cyclic;
    }
    inandouthalf41
    {
        type            cyclic;
    }
    inandouthalf42
    {
        type            cyclic;
    }
    top
    {
        type            symmetryPlane;
    }
    walls
    {
        type            calculated;
        value           uniform (0 0 0);
    }
    frontAndBackPlanes
    {
        type            empty;
    }
}


// ************************************************************************* //
