/*--------------------------------*- C++ -*----------------------------------*\
| =========                 |                                                 |
| \\      /  F ield         | OpenFOAM: The Open Source CFD Toolbox           |
|  \\    /   O peration     | Version:  2.4.x                                 |
|   \\  /    A nd           | Web:      www.OpenFOAM.org                      |
|    \\/     M anipulation  |                                                 |
\*---------------------------------------------------------------------------*/
FoamFile
{
    version     2.0;
    format      ascii;
    class       volVectorField;
    location    "7.75";
    object      gradPs;
}
// * * * * * * * * * * * * * * * * * * * * * * * * * * * * * * * * * * * * * //

dimensions      [0 1 -2 0 0 0 0];

internalField   nonuniform List<vector> 
360
(
(0 1.54827e-18 0)
(0 1.69331e-18 0)
(0 -1.44061e-20 0)
(0 -2.37987e-19 0)
(-1.45051e-32 -1.01974e-19 0)
(-2.9011e-32 -5.7458e-20 0)
(-1.45059e-32 -7.25626e-20 0)
(0 -8.22883e-20 0)
(-1.4507e-32 -8.37944e-20 0)
(0 -8.47079e-20 0)
(-2.90162e-32 -8.49894e-20 0)
(0 -8.52139e-20 0)
(-1.45092e-32 -8.57951e-20 0)
(0 -8.63686e-20 0)
(0 -8.71811e-20 0)
(0 -8.79946e-20 0)
(0 -8.85829e-20 0)
(-2.90242e-32 -8.90731e-20 0)
(0 -8.99648e-20 0)
(0 -9.05073e-20 0)
(0 -9.10916e-20 0)
(-1.45145e-32 -9.20613e-20 0)
(0 -9.26957e-20 0)
(0 -9.3491e-20 0)
(0 -9.43231e-20 0)
(-1.4517e-32 -9.49565e-20 0)
(0 -9.59208e-20 0)
(0 -9.69414e-20 0)
(0 -9.76223e-20 0)
(0 -9.84505e-20 0)
(0 -9.97136e-20 0)
(0 -1.00277e-19 0)
(0 -1.01442e-19 0)
(0 -1.02638e-19 0)
(0 -1.0333e-19 0)
(1.45236e-32 -1.04417e-19 0)
(0 -1.05416e-19 0)
(0 -1.07032e-19 0)
(0 -1.07438e-19 0)
(0 -1.08699e-19 0)
(0 -1.10493e-19 0)
(0 -1.10721e-19 0)
(2.90574e-32 -1.12334e-19 0)
(0 -1.13789e-19 0)
(0 -1.14644e-19 0)
(0 -1.16432e-19 0)
(0 -1.17091e-19 0)
(0 -1.18174e-19 0)
(0 -1.20632e-19 0)
(0 -1.21393e-19 0)
(2.907e-32 -1.22443e-19 0)
(0 -1.24298e-19 0)
(0 -1.25778e-19 0)
(0 -1.26937e-19 0)
(0 -1.28792e-19 0)
(0 -1.30295e-19 0)
(0 -1.31698e-19 0)
(0 -1.33795e-19 0)
(0 -1.34542e-19 0)
(0 -1.36868e-19 0)
(0 -1.38654e-19 0)
(0 -1.4013e-19 0)
(0 -1.42269e-19 0)
(0 -1.43828e-19 0)
(0 -1.4565e-19 0)
(0 -1.47617e-19 0)
(0 -1.49894e-19 0)
(0 -1.51748e-19 0)
(0 -1.53175e-19 0)
(0 -1.5562e-19 0)
(0 -1.5859e-19 0)
(0 -1.59782e-19 0)
(0 -1.61944e-19 0)
(0 -1.6476e-19 0)
(0 -1.67165e-19 0)
(0 -1.69459e-19 0)
(0 -1.71498e-19 0)
(0 -1.74327e-19 0)
(0 -1.771e-19 0)
(0 -1.79552e-19 0)
(0 -1.82234e-19 0)
(0 -1.85298e-19 0)
(0 -1.88191e-19 0)
(0 -1.91191e-19 0)
(0 -1.94297e-19 0)
(0 -1.9753e-19 0)
(0 -2.00813e-19 0)
(0 -2.0409e-19 0)
(0 -2.07621e-19 0)
(0 -2.11273e-19 0)
(0 -2.14973e-19 0)
(0 -2.1887e-19 0)
(0 -2.22936e-19 0)
(0 -2.27076e-19 0)
(0 -2.31346e-19 0)
(0 -2.35754e-19 0)
(0 -2.40288e-19 0)
(0 -2.4497e-19 0)
(0 -2.49831e-19 0)
(0 -2.54879e-19 0)
(0 -2.60118e-19 0)
(0 -2.65571e-19 0)
(0 -2.7124e-19 0)
(0 -2.77123e-19 0)
(0 -2.83234e-19 0)
(0 -2.89585e-19 0)
(0 -2.9619e-19 0)
(0 -3.03064e-19 0)
(0 -3.10223e-19 0)
(0 -3.17683e-19 0)
(0 -3.25456e-19 0)
(0 -3.33557e-19 0)
(0 -3.42001e-19 0)
(0 -3.50806e-19 0)
(0 -3.59989e-19 0)
(0 -3.69572e-19 0)
(0 -3.79579e-19 0)
(0 -3.90042e-19 0)
(0 -4.01e-19 0)
(0 -4.12498e-19 0)
(0 -4.24587e-19 0)
(0 -4.37321e-19 0)
(0 -4.50758e-19 0)
(0 -4.6498e-19 0)
(0 -4.80123e-19 0)
(0 -4.96411e-19 0)
(0 -5.14148e-19 0)
(0 -5.33615e-19 0)
(0 -5.54835e-19 0)
(0 -5.77401e-19 0)
(0 -6.00859e-19 0)
(0 -6.25971e-19 0)
(0 2.76701e-18 0)
(0 3.5847e-16 0)
(0 1.65868e-15 0)
(0 5.38972e-15 0)
(0 1.50569e-14 0)
(0 3.49492e-14 0)
(0 7.14345e-14 0)
(0 2.83321e-13 0)
(0 3.51732e-12 0)
(0 6.20902e-11 0)
(0 1.34053e-09 0)
(0 3.50765e-08 0)
(0 1.1284e-06 0)
(0 9.0135e-05 0)
(0 0.0134832 0)
(0 0.496431 0)
(0 1.88851 0)
(0 0.963337 0)
(0 -3.93753 0)
(0 -4.58582 0)
(0 -4.70458 0)
(0 -4.39724 0)
(0 -3.9269 0)
(0 -3.35535 0)
(0 -2.73365 0)
(0 -2.11537 0)
(0 -1.58827 0)
(0 -1.21277 0)
(0 -0.965384 0)
(0 -0.798267 0)
(0 -0.68022 0)
(0 -0.593949 0)
(0 -0.529167 0)
(0 -0.479511 0)
(0 -0.440871 0)
(0 -0.41048 0)
(0 -0.386411 0)
(0 -0.367285 0)
(0 -0.352079 0)
(0 -0.340018 0)
(0 -0.330498 0)
(0 -0.323041 0)
(0 -0.317261 0)
(0 -0.312841 0)
(0 -0.309516 0)
(0 -0.307064 0)
(0 -0.305299 0)
(0 -0.304063 0)
(0 -0.303222 0)
(0 -0.302665 0)
(0 -0.302303 0)
(0 -0.302061 0)
(0 -0.301884 0)
(0 -0.301729 0)
(0 -0.301563 0)
(0 -0.301363 0)
(0 -0.301108 0)
(0 -0.300783 0)
(0 -0.300377 0)
(0 -0.299894 0)
(0 -0.299353 0)
(0 -0.298785 0)
(0 -0.298235 0)
(0 -0.297747 0)
(0 -0.297378 0)
(0 -0.297185 0)
(0 -0.297194 0)
(0 -0.297353 0)
(0 -0.297521 0)
(0 -0.297583 0)
(-2.24504e-16 -0.297473 0)
(0 -0.297073 0)
(0 -0.296161 0)
(1.28861e-16 -0.294419 0)
(0 -0.291508 0)
(-1.42367e-16 -0.287151 0)
(0 -0.28114 0)
(1.57902e-16 -0.273311 0)
(0 -0.263547 0)
(0 -0.251742 0)
(0 -0.237771 0)
(0 -0.222066 0)
(0 -0.205318 0)
(0 -0.187653 0)
(0 -0.169266 0)
(0 -0.151036 0)
(0 -0.133542 0)
(-3.02276e-17 -0.116892 0)
(0 -0.101118 0)
(-3.14993e-17 -0.086493 0)
(0 -0.0734717 0)
(-1.61429e-17 -0.061834 0)
(0 -0.0513911 0)
(0 -0.0423759 0)
(0 -0.0346736 0)
(0 -0.0280795 0)
(4.04505e-18 -0.0225354 0)
(4.01553e-18 -0.0178819 0)
(0 -0.01408 0)
(0 -0.0108461 0)
(0 -0.00816112 0)
(0 -0.00616628 0)
(0 -0.00512233 0)
(0 -0.00459697 0)
(0 -0.00210933 0)
(0 0 0)
(0 0 0)
(0 0 0)
(0 0 0)
(0 0 0)
(0 0 0)
(0 0 0)
(0 0 0)
(0 0 0)
(0 0 0)
(0 0 0)
(0 0 0)
(0 0 0)
(0 0 0)
(0 0 0)
(0 0 0)
(0 0 0)
(0 0 0)
(0 0 0)
(0 0 0)
(0 0 0)
(0 0 0)
(0 0 0)
(0 0 0)
(0 0 0)
(0 0 0)
(0 0 0)
(0 0 0)
(0 0 0)
(0 0 0)
(0 0 0)
(0 0 0)
(0 0 0)
(0 0 0)
(0 0 0)
(0 0 0)
(0 0 0)
(0 0 0)
(0 0 0)
(0 0 0)
(0 0 0)
(0 0 0)
(0 0 0)
(0 0 0)
(0 0 0)
(0 0 0)
(0 0 0)
(0 0 0)
(0 0 0)
(0 0 0)
(0 0 0)
(0 0 0)
(0 0 0)
(0 0 0)
(0 0 0)
(0 0 0)
(0 0 0)
(0 0 0)
(0 0 0)
(0 0 0)
(0 0 0)
(0 0 0)
(0 0 0)
(0 0 0)
(0 0 0)
(0 0 0)
(0 0 0)
(0 0 0)
(0 0 0)
(0 0 0)
(0 0 0)
(0 0 0)
(0 0 0)
(0 0 0)
(0 0 0)
(0 0 0)
(0 0 0)
(0 0 0)
(0 0 0)
(0 0 0)
(0 0 0)
(0 0 0)
(0 0 0)
(0 0 0)
(0 0 0)
(0 0 0)
(0 0 0)
(0 0 0)
(0 0 0)
(0 0 0)
(0 0 0)
(0 0 0)
(0 0 0)
(0 0 0)
(0 0 0)
(0 0 0)
(0 0 0)
(0 0 0)
(0 0 0)
(0 0 0)
(0 0 0)
(0 0 0)
(0 0 0)
(0 0 0)
(0 0 0)
(0 0 0)
(0 0 0)
(0 0 0)
(0 0 0)
(0 0 0)
(0 0 0)
(0 0 0)
(0 0 0)
(0 0 0)
(0 0 0)
(0 0 0)
(0 0 0)
(0 0 0)
(0 0 0)
(0 0 0)
(0 0 0)
(0 0 0)
(0 0 0)
)
;

boundaryField
{
    inandouthalf11
    {
        type            cyclic;
    }
    inandouthalf12
    {
        type            cyclic;
    }
    inandouthalf21
    {
        type            cyclic;
    }
    inandouthalf22
    {
        type            cyclic;
    }
    inandouthalf31
    {
        type            cyclic;
    }
    inandouthalf32
    {
        type            cyclic;
    }
    inandouthalf41
    {
        type            cyclic;
    }
    inandouthalf42
    {
        type            cyclic;
    }
    top
    {
        type            symmetryPlane;
    }
    walls
    {
        type            calculated;
        value           uniform (0 0 0);
    }
    frontAndBackPlanes
    {
        type            empty;
    }
}


// ************************************************************************* //
