/*--------------------------------*- C++ -*----------------------------------*\
| =========                 |                                                 |
| \\      /  F ield         | OpenFOAM: The Open Source CFD Toolbox           |
|  \\    /   O peration     | Version:  2.4.x                                 |
|   \\  /    A nd           | Web:      www.OpenFOAM.org                      |
|    \\/     M anipulation  |                                                 |
\*---------------------------------------------------------------------------*/
FoamFile
{
    version     2.0;
    format      ascii;
    class       volScalarField;
    location    "7.75";
    object      mua;
}
// * * * * * * * * * * * * * * * * * * * * * * * * * * * * * * * * * * * * * //

dimensions      [1 -1 -1 0 0 0 0];

internalField   nonuniform List<scalar> 
360
(
1.88358e+06
1.32223e+06
1.63779e+06
1.68683e+06
1.59835e+06
1.5543e+06
1.54556e+06
1.54333e+06
1.53989e+06
1.53476e+06
1.52883e+06
1.52325e+06
1.5182e+06
1.51341e+06
1.50833e+06
1.50253e+06
1.496e+06
1.48891e+06
1.48122e+06
1.47291e+06
1.46426e+06
1.45497e+06
1.44512e+06
1.43484e+06
1.42416e+06
1.4132e+06
1.40196e+06
1.39028e+06
1.37841e+06
1.36648e+06
1.35435e+06
1.34205e+06
1.32982e+06
1.31723e+06
1.30479e+06
1.29239e+06
1.28003e+06
1.26744e+06
1.25486e+06
1.24267e+06
1.23013e+06
1.21784e+06
1.20585e+06
1.19357e+06
1.18147e+06
1.16947e+06
1.15773e+06
1.14653e+06
1.13501e+06
1.12331e+06
1.1122e+06
1.10118e+06
1.0903e+06
1.07963e+06
1.06931e+06
1.05904e+06
1.0493e+06
1.03974e+06
1.03069e+06
1.02198e+06
1.013e+06
1.00424e+06
995473
987022
978948
971252
963752
956584
949923
943477
936591
929652
923055
916188
909220
902364
896066
890160
884445
878929
873591
868146
862507
856741
850930
845230
839804
834853
830431
826487
822954
819714
816619
813592
810624
807744
805014
802510
800285
798362
796745
795410
794322
793443
792734
792143
791606
791038
790324
789321
787858
785737
782735
778611
773119
766022
757113
746244
733356
718517
701945
684032
665333
646531
628366
611561
596786
584701
576087
571940
573312
580632
592740
606618
618807
626688
626062
608238
568928
529533
541799
677677
1.08114e+06
2.3522e+06
7.24278e+06
1.13614e+07
1249.01
152.467
0.0805466
0.0124013
0.0054584
0.00459568
0.00418626
0.00392705
0.00373979
0.00360298
0.00350673
0.00344114
0.00339786
0.00337098
0.00335649
0.00335148
0.00335375
0.00336159
0.00337366
0.00338885
0.0034063
0.00342529
0.00344524
0.00346568
0.00348622
0.00350653
0.00352636
0.0035455
0.00356377
0.00358103
0.00359716
0.00361209
0.00362573
0.00363804
0.00364898
0.00365851
0.00366663
0.00367332
0.00367859
0.00368243
0.00368487
0.00368591
0.00368559
0.00368391
0.00368091
0.00367662
0.00367106
0.00366428
0.0036563
0.00364717
0.00363691
0.00362557
0.00361319
0.00359979
0.00358543
0.00356999
0.00355329
0.00353531
0.00351602
0.0034954
0.0034734
0.00345
0.00342516
0.00339882
0.00337094
0.00334147
0.00331034
0.00327746
0.00324277
0.00320615
0.0031675
0.00312668
0.00308353
0.00303788
0.0029895
0.00293813
0.00288348
0.00282517
0.00276276
0.00269573
0.0026234
0.00254494
0.00245926
0.00236491
0.00225987
0.00214126
0.00200462
0.00184245
0.00164036
0.00136292
0
0
0
0
0
0
0
0
0
0
0
0
0
0
0
0
0
0
0
0
0
0
0
0
0
0
0
0
0
0
0
0
0
0
0
0
0
0
0
0
0
0
0
0
0
0
0
0
0
0
0
0
0
0
0
0
0
0
0
0
0
0
0
0
0
0
0
0
0
0
0
0
0
0
0
0
0
0
0
0
0
0
0
0
0
0
0
0
0
0
0
0
0
0
0
0
0
0
0
0
0
0
0
0
0
0
0
0
0
0
0
0
0
0
0
0
0
0
0
0
0
0
0
0
)
;

boundaryField
{
    inandouthalf11
    {
        type            cyclic;
    }
    inandouthalf12
    {
        type            cyclic;
    }
    inandouthalf21
    {
        type            cyclic;
    }
    inandouthalf22
    {
        type            cyclic;
    }
    inandouthalf31
    {
        type            cyclic;
    }
    inandouthalf32
    {
        type            cyclic;
    }
    inandouthalf41
    {
        type            cyclic;
    }
    inandouthalf42
    {
        type            cyclic;
    }
    top
    {
        type            symmetryPlane;
    }
    walls
    {
        type            calculated;
        value           uniform 1e+30;
    }
    frontAndBackPlanes
    {
        type            empty;
    }
}


// ************************************************************************* //
