/*--------------------------------*- C++ -*----------------------------------*\
| =========                 |                                                 |
| \\      /  F ield         | OpenFOAM: The Open Source CFD Toolbox           |
|  \\    /   O peration     | Version:  2.4.x                                 |
|   \\  /    A nd           | Web:      www.OpenFOAM.org                      |
|    \\/     M anipulation  |                                                 |
\*---------------------------------------------------------------------------*/
FoamFile
{
    version     2.0;
    format      ascii;
    class       volScalarField;
    location    "7.75";
    object      nutb;
}
// * * * * * * * * * * * * * * * * * * * * * * * * * * * * * * * * * * * * * //

dimensions      [0 2 -1 0 0 0 0];

internalField   nonuniform List<scalar> 
360
(
9e-22
9e-22
9e-22
9e-22
9e-22
9e-22
9e-22
9e-22
9e-22
9e-22
9e-22
9e-22
9e-22
9e-22
9e-22
9e-22
9e-22
9e-22
9e-22
9e-22
9e-22
9e-22
9e-22
9e-22
9e-22
9e-22
9e-22
9e-22
9e-22
9e-22
9e-22
9e-22
9e-22
9e-22
9e-22
9e-22
9e-22
9e-22
9e-22
9e-22
9e-22
9e-22
9e-22
9e-22
9e-22
9e-22
9e-22
9e-22
9e-22
9e-22
9e-22
9e-22
9e-22
9e-22
9e-22
9e-22
9e-22
9e-22
9e-22
9e-22
9e-22
9e-22
9e-22
9e-22
9e-22
9e-22
9e-22
9e-22
9e-22
9e-22
9e-22
9e-22
9e-22
9e-22
9e-22
9e-22
9e-22
9e-22
9e-22
9e-22
9e-22
9e-22
9e-22
9e-22
9e-22
9e-22
9e-22
9e-22
9e-22
9e-22
9e-22
9e-22
9e-22
9e-22
9e-22
9e-22
9e-22
9e-22
9e-22
9e-22
9e-22
9e-22
9e-22
9e-22
9e-22
9e-22
9e-22
9e-22
9e-22
9e-22
9e-22
9e-22
9e-22
9e-22
9e-22
9e-22
9e-22
9e-22
9e-22
9e-22
9e-22
9e-22
9e-22
9e-22
9e-22
9e-22
9e-22
9e-22
9e-22
9e-22
9e-22
9e-22
9e-22
8.73206e-22
2.49317e-21
8.14331e-21
2.44458e-20
6.24411e-20
1.22965e-19
1.70993e-19
3.51728e-19
2.89798e-18
4.03739e-17
7.05969e-16
1.49936e-14
3.84642e-13
1.18931e-11
4.37919e-10
1.93713e-08
7.99667e-07
5.85906e-06
9.95669e-06
1.25553e-05
1.47116e-05
1.73011e-05
2.12177e-05
2.71713e-05
3.5353e-05
4.53948e-05
5.66505e-05
6.84861e-05
8.04118e-05
9.20957e-05
0.000103335
0.000114019
0.000124102
0.000133576
0.000142456
0.000150774
0.000158566
0.000165871
0.000172728
0.000179173
0.00018524
0.00019096
0.000196361
0.000201467
0.000206299
0.000210878
0.000215219
0.000219338
0.000223247
0.000226957
0.000230479
0.00023382
0.000236989
0.000239992
0.000242836
0.000245526
0.000248066
0.00025046
0.000252713
0.000254829
0.000256809
0.000258658
0.000260378
0.000261971
0.00026344
0.000264787
0.000266014
0.000267123
0.000268126
0.000269029
0.000269828
0.000270516
0.000271088
0.000271539
0.000271862
0.000272052
0.000272102
0.000272006
0.000271755
0.000271345
0.000270767
0.000270013
0.000269077
0.00026795
0.000266625
0.000265094
0.000263348
0.000261379
0.000259179
0.000256741
0.000254055
0.000251115
0.000247911
0.000244437
0.000240686
0.00023665
0.000232324
0.000227702
0.000222779
0.000217552
0.000212019
0.00020618
0.000200034
0.000193587
0.000186845
0.000179817
0.000172516
0.000164962
0.000157176
0.000149188
0.000141035
0.000132759
0.00012441
0.000116046
0.000107728
9.95194e-05
9.14783e-05
8.36491e-05
7.60532e-05
6.86804e-05
6.14879e-05
5.44091e-05
4.73744e-05
4.03335e-05
3.32673e-05
2.61821e-05
1.90924e-05
1.20167e-05
4.8787e-06
6.05181e-07
1.92166e-08
4.23246e-10
8.77302e-12
1.72691e-13
3.22301e-15
5.69234e-17
9.18832e-19
6.43128e-21
9e-22
9e-22
9e-22
9e-22
9e-22
9e-22
9e-22
9e-22
9e-22
9e-22
9e-22
9e-22
9e-22
9e-22
9e-22
9e-22
9e-22
9e-22
9e-22
9e-22
9e-22
9e-22
9e-22
9e-22
9e-22
9e-22
9e-22
9e-22
9e-22
9e-22
9e-22
9e-22
9e-22
9e-22
9e-22
9e-22
9e-22
9e-22
9e-22
9e-22
9e-22
9e-22
9e-22
9e-22
9e-22
9e-22
9e-22
9e-22
9e-22
9e-22
9e-22
9e-22
9e-22
9e-22
9e-22
9e-22
9e-22
9e-22
9e-22
9e-22
9e-22
9e-22
9e-22
9e-22
9e-22
9e-22
9e-22
9e-22
9e-22
9e-22
9e-22
9e-22
9e-22
9e-22
9e-22
9e-22
9e-22
9e-22
9e-22
9e-22
9e-22
9e-22
9e-22
9e-22
9e-22
9e-22
9e-22
9e-22
9e-22
)
;

boundaryField
{
    inandouthalf11
    {
        type            cyclic;
    }
    inandouthalf12
    {
        type            cyclic;
    }
    inandouthalf21
    {
        type            cyclic;
    }
    inandouthalf22
    {
        type            cyclic;
    }
    inandouthalf31
    {
        type            cyclic;
    }
    inandouthalf32
    {
        type            cyclic;
    }
    inandouthalf41
    {
        type            cyclic;
    }
    inandouthalf42
    {
        type            cyclic;
    }
    top
    {
        type            symmetryPlane;
    }
    walls
    {
        type            calculated;
        value           uniform 0;
    }
    frontAndBackPlanes
    {
        type            empty;
    }
}


// ************************************************************************* //
