/*--------------------------------*- C++ -*----------------------------------*\
| =========                 |                                                 |
| \\      /  F ield         | OpenFOAM: The Open Source CFD Toolbox           |
|  \\    /   O peration     | Version:  2.4.x                                 |
|   \\  /    A nd           | Web:      www.OpenFOAM.org                      |
|    \\/     M anipulation  |                                                 |
\*---------------------------------------------------------------------------*/
FoamFile
{
    version     2.0;
    format      ascii;
    class       volScalarField;
    location    "7.75";
    object      pa;
}
// * * * * * * * * * * * * * * * * * * * * * * * * * * * * * * * * * * * * * //

dimensions      [1 -1 -2 0 0 0 0];

internalField   nonuniform List<scalar> 
360
(
2.90211e-16
2.92717e-16
2.92956e-16
2.92694e-16
2.9257e-16
2.92529e-16
2.92477e-16
2.92411e-16
2.92344e-16
2.92275e-16
2.92206e-16
2.92138e-16
2.92068e-16
2.91999e-16
2.91928e-16
2.91857e-16
2.91786e-16
2.91714e-16
2.91641e-16
2.91568e-16
2.91495e-16
2.91421e-16
2.91346e-16
2.9127e-16
2.91194e-16
2.91118e-16
2.91041e-16
2.90962e-16
2.90884e-16
2.90804e-16
2.90724e-16
2.90643e-16
2.90562e-16
2.90479e-16
2.90396e-16
2.90311e-16
2.90227e-16
2.90141e-16
2.90053e-16
2.89967e-16
2.89877e-16
2.89788e-16
2.89698e-16
2.89606e-16
2.89514e-16
2.89421e-16
2.89326e-16
2.89231e-16
2.89135e-16
2.89036e-16
2.88938e-16
2.88838e-16
2.88737e-16
2.88635e-16
2.88532e-16
2.88426e-16
2.88321e-16
2.88213e-16
2.88105e-16
2.87996e-16
2.87884e-16
2.87772e-16
2.87657e-16
2.87542e-16
2.87425e-16
2.87306e-16
2.87186e-16
2.87064e-16
2.86941e-16
2.86817e-16
2.8669e-16
2.86561e-16
2.86431e-16
2.86299e-16
2.86165e-16
2.86029e-16
2.85892e-16
2.85752e-16
2.8561e-16
2.85466e-16
2.8532e-16
2.85172e-16
2.85021e-16
2.84868e-16
2.84713e-16
2.84555e-16
2.84394e-16
2.84231e-16
2.84065e-16
2.83896e-16
2.83724e-16
2.83549e-16
2.83371e-16
2.8319e-16
2.83005e-16
2.82817e-16
2.82625e-16
2.8243e-16
2.8223e-16
2.82027e-16
2.8182e-16
2.81608e-16
2.81392e-16
2.81171e-16
2.80946e-16
2.80715e-16
2.8048e-16
2.80239e-16
2.79992e-16
2.79739e-16
2.79481e-16
2.79216e-16
2.78944e-16
2.78666e-16
2.7838e-16
2.78087e-16
2.77786e-16
2.77477e-16
2.7716e-16
2.76833e-16
2.76497e-16
2.76151e-16
2.75795e-16
2.75428e-16
2.75049e-16
2.74657e-16
2.74253e-16
2.73833e-16
2.73397e-16
2.72944e-16
2.72472e-16
2.71981e-16
2.7147e-16
2.76411e-16
8.45131e-16
2.92987e-15
9.46407e-15
2.69986e-14
6.53079e-14
1.41088e-13
5.17568e-13
5.75253e-12
9.95206e-11
2.14182e-09
5.59447e-08
1.79675e-06
0.000143113
0.0213131
0.784646
2.99177
1.84021
1.05665
0.550422
0.272151
0.132563
0.0664822
0.0357218
0.0211825
0.0139791
0.0100822
0.00774769
0.00622704
0.00517177
0.00440238
0.0038189
0.00336199
0.00299453
0.00269227
0.00243881
0.00222272
0.00203581
0.00187212
0.0017272
0.00159769
0.001481
0.00137513
0.00127851
0.00118989
0.00110825
0.00103279
0.000962825
0.000897802
0.000837254
0.000780781
0.00072804
0.000678731
0.00063259
0.000589382
0.000548895
0.000510939
0.000475344
0.00044195
0.000410612
0.000381194
0.000353567
0.000327609
0.000303206
0.000280248
0.000258633
0.000238271
0.000219086
0.000200836
0.000183336
0.000166592
0.000150621
0.000135446
0.0001211
0.000107619
9.50401e-05
8.33863e-05
7.26783e-05
6.29209e-05
5.41165e-05
4.6255e-05
3.92916e-05
3.31674e-05
2.78366e-05
2.32364e-05
1.92847e-05
1.59086e-05
1.30422e-05
1.06305e-05
8.60998e-06
6.91871e-06
5.51872e-06
4.36673e-06
3.42122e-06
2.65081e-06
2.02803e-06
1.52696e-06
1.12976e-06
8.13006e-07
5.73913e-07
3.89322e-07
2.49269e-07
1.15141e-07
0
0
0
0
0
0
0
0
0
0
0
0
0
0
0
0
0
0
0
0
0
0
0
0
0
0
0
0
0
0
0
0
0
0
0
0
0
0
0
0
0
0
0
0
0
0
0
0
0
0
0
0
0
0
0
0
0
0
0
0
0
0
0
0
0
0
0
0
0
0
0
0
0
0
0
0
0
0
0
0
0
0
0
0
0
0
0
0
0
0
0
0
0
0
0
0
0
0
0
0
0
0
0
0
0
0
0
0
0
0
0
0
0
0
0
0
0
0
0
0
0
0
0
0
)
;

boundaryField
{
    inandouthalf11
    {
        type            cyclic;
    }
    inandouthalf12
    {
        type            cyclic;
    }
    inandouthalf21
    {
        type            cyclic;
    }
    inandouthalf22
    {
        type            cyclic;
    }
    inandouthalf31
    {
        type            cyclic;
    }
    inandouthalf32
    {
        type            cyclic;
    }
    inandouthalf41
    {
        type            cyclic;
    }
    inandouthalf42
    {
        type            cyclic;
    }
    top
    {
        type            symmetryPlane;
    }
    walls
    {
        type            calculated;
        value           uniform 2.90211e-16;
    }
    frontAndBackPlanes
    {
        type            empty;
    }
}


// ************************************************************************* //
