/*--------------------------------*- C++ -*----------------------------------*\
| =========                 |                                                 |
| \\      /  F ield         | OpenFOAM: The Open Source CFD Toolbox           |
|  \\    /   O peration     | Version:  2.4.x                                 |
|   \\  /    A nd           | Web:      www.OpenFOAM.org                      |
|    \\/     M anipulation  |                                                 |
\*---------------------------------------------------------------------------*/
FoamFile
{
    version     2.0;
    format      ascii;
    class       surfaceScalarField;
    location    "7.75";
    object      phia_0;
}
// * * * * * * * * * * * * * * * * * * * * * * * * * * * * * * * * * * * * * //

dimensions      [0 3 -1 0 0 0 0];

internalField   nonuniform List<scalar> 
359
(
-1.90322e-13
-4.81387e-13
-7.47732e-13
-1.00049e-12
-1.25892e-12
-1.5225e-12
-1.78674e-12
-2.04997e-12
-2.31206e-12
-2.57334e-12
-2.83396e-12
-3.09384e-12
-3.35291e-12
-3.6111e-12
-3.86845e-12
-4.12508e-12
-4.38111e-12
-4.63661e-12
-4.89168e-12
-5.14644e-12
-5.40091e-12
-5.65522e-12
-5.90946e-12
-6.16368e-12
-6.41796e-12
-6.67236e-12
-6.9269e-12
-7.1817e-12
-7.43675e-12
-7.6921e-12
-7.94775e-12
-8.2038e-12
-8.46014e-12
-8.71695e-12
-8.97411e-12
-9.23168e-12
-9.48963e-12
-9.748e-12
-1.00068e-11
-1.0266e-11
-1.05256e-11
-1.07856e-11
-1.10459e-11
-1.13067e-11
-1.15677e-11
-1.18291e-11
-1.20909e-11
-1.23527e-11
-1.26148e-11
-1.28772e-11
-1.31397e-11
-1.34023e-11
-1.3665e-11
-1.39278e-11
-1.41904e-11
-1.44531e-11
-1.47154e-11
-1.49775e-11
-1.52393e-11
-1.55005e-11
-1.57613e-11
-1.60215e-11
-1.62812e-11
-1.65403e-11
-1.67987e-11
-1.70562e-11
-1.73128e-11
-1.75684e-11
-1.78228e-11
-1.80759e-11
-1.83279e-11
-1.85787e-11
-1.88282e-11
-1.90765e-11
-1.93235e-11
-1.95693e-11
-1.98136e-11
-2.00564e-11
-2.02975e-11
-2.05368e-11
-2.07743e-11
-2.10101e-11
-2.1244e-11
-2.14761e-11
-2.17065e-11
-2.1935e-11
-2.21615e-11
-2.2386e-11
-2.26081e-11
-2.28278e-11
-2.3045e-11
-2.32594e-11
-2.34712e-11
-2.36801e-11
-2.38863e-11
-2.40895e-11
-2.42899e-11
-2.44872e-11
-2.46814e-11
-2.48725e-11
-2.50603e-11
-2.52447e-11
-2.54257e-11
-2.56032e-11
-2.57771e-11
-2.59475e-11
-2.61143e-11
-2.62775e-11
-2.64371e-11
-2.65933e-11
-2.67459e-11
-2.68953e-11
-2.70415e-11
-2.71847e-11
-2.73251e-11
-2.74629e-11
-2.75986e-11
-2.77322e-11
-2.78643e-11
-2.7995e-11
-2.81247e-11
-2.82535e-11
-2.83815e-11
-2.85089e-11
-2.86353e-11
-2.87605e-11
-2.8884e-11
-2.90051e-11
-2.91231e-11
-2.92369e-11
-2.93454e-11
-2.94477e-11
-2.9543e-11
-2.96315e-11
-2.97135e-11
-2.97899e-11
-2.98618e-11
-2.9931e-11
-2.99995e-11
-3.00672e-11
-3.01281e-11
-3.01718e-11
-3.01965e-11
-3.02067e-11
-3.02094e-11
-3.02099e-11
-3.61916e-11
-3.66708e-11
7.09485e-12
6.00724e-09
1.3265e-08
1.74525e-08
1.98874e-08
2.10498e-08
2.08344e-08
1.90149e-08
1.56348e-08
1.13851e-08
7.10057e-09
3.17836e-09
-2.87406e-10
-3.3009e-09
-5.89971e-09
-8.13235e-09
-1.00448e-08
-1.16777e-08
-1.30664e-08
-1.42416e-08
-1.52298e-08
-1.60541e-08
-1.67349e-08
-1.72901e-08
-1.77357e-08
-1.80857e-08
-1.83526e-08
-1.85475e-08
-1.86801e-08
-1.8759e-08
-1.87918e-08
-1.8785e-08
-1.87445e-08
-1.86751e-08
-1.85811e-08
-1.8466e-08
-1.8333e-08
-1.81847e-08
-1.80233e-08
-1.78507e-08
-1.76684e-08
-1.74779e-08
-1.72802e-08
-1.70763e-08
-1.68672e-08
-1.66535e-08
-1.64362e-08
-1.62159e-08
-1.59936e-08
-1.57703e-08
-1.5547e-08
-1.53249e-08
-1.51055e-08
-1.48859e-08
-1.46677e-08
-1.4453e-08
-1.42437e-08
-1.4042e-08
-1.38496e-08
-1.36684e-08
-1.34995e-08
-1.33439e-08
-1.32017e-08
-1.30729e-08
-1.29564e-08
-1.28502e-08
-1.27514e-08
-1.26569e-08
-1.25619e-08
-1.24609e-08
-1.23491e-08
-1.2224e-08
-1.20858e-08
-1.19346e-08
-1.17706e-08
-1.1595e-08
-1.14078e-08
-1.12084e-08
-1.09972e-08
-1.07739e-08
-1.05376e-08
-1.02895e-08
-1.00235e-08
-9.74863e-09
-9.44139e-09
-9.12791e-09
-8.66118e-09
-8.23318e-09
-7.33501e-09
-6.00051e-09
-4.23095e-09
-3.22829e-09
-1.37061e-09
1.18639e-10
-7.62435e-08
-1.50829e-07
-1.58391e-07
-1.5822e-07
-1.5821e-07
-1.58184e-07
-1.58157e-07
-1.58129e-07
-1.58101e-07
-1.58076e-07
-1.58054e-07
-1.58033e-07
-1.58015e-07
-1.58001e-07
-1.5799e-07
-1.5798e-07
-1.57971e-07
-1.5796e-07
-1.57942e-07
-1.57904e-07
-1.57882e-07
-1.57881e-07
-1.57881e-07
-1.57881e-07
-1.57881e-07
-1.57881e-07
-1.57881e-07
-1.57881e-07
-1.57881e-07
-1.57881e-07
-1.57881e-07
-1.57881e-07
-1.57881e-07
-1.57881e-07
-1.57881e-07
-1.57881e-07
-1.57881e-07
-1.57881e-07
-1.57881e-07
-1.57881e-07
-1.57881e-07
-1.57881e-07
-1.57881e-07
-1.57881e-07
-1.57881e-07
-1.57881e-07
-1.57881e-07
-1.57881e-07
-1.57881e-07
-1.57881e-07
-1.57881e-07
-1.57881e-07
-1.57881e-07
-1.57881e-07
-1.57881e-07
-1.57881e-07
-1.57881e-07
-1.57881e-07
-1.57881e-07
-1.57881e-07
-1.57881e-07
-1.57881e-07
-1.57881e-07
-1.57881e-07
-1.57881e-07
-1.57881e-07
-1.57881e-07
-1.57881e-07
-1.57881e-07
-1.57881e-07
-1.57881e-07
-1.57881e-07
-1.57881e-07
-1.57881e-07
-1.57881e-07
-1.57881e-07
-1.57881e-07
-1.57881e-07
-1.57881e-07
-1.57881e-07
-1.57881e-07
-1.57881e-07
-1.57881e-07
-1.57881e-07
-1.57881e-07
-1.57881e-07
-1.57881e-07
-1.57881e-07
-1.57881e-07
-1.57881e-07
-1.57881e-07
-1.57881e-07
-1.57881e-07
-1.57881e-07
-1.57881e-07
-1.57881e-07
-1.57881e-07
-1.57881e-07
-1.57881e-07
-1.57881e-07
-1.57881e-07
-1.57881e-07
-1.57881e-07
-1.57881e-07
-1.57881e-07
-1.57881e-07
-1.57881e-07
-1.57881e-07
-1.57881e-07
-1.57881e-07
-1.57881e-07
-1.57881e-07
-1.57881e-07
-1.57881e-07
-1.57863e-07
-1.57154e-07
-1.31919e-07
)
;

boundaryField
{
    inandouthalf11
    {
        type            cyclic;
        value           nonuniform List<scalar> 
100
(
-1.10967e-38
-1.36431e-14
-2.82031e-14
-4.09745e-14
-5.37077e-14
-6.67789e-14
-7.98741e-14
-9.2819e-14
-1.05593e-13
-1.1821e-13
-1.30681e-13
-1.4301e-13
-1.55194e-13
-1.67232e-13
-1.79126e-13
-1.9088e-13
-2.02501e-13
-2.13997e-13
-2.25371e-13
-2.3663e-13
-2.47779e-13
-2.58822e-13
-2.69763e-13
-2.80609e-13
-2.91361e-13
-3.02024e-13
-3.126e-13
-3.23093e-13
-3.33504e-13
-3.43835e-13
-3.54088e-13
-3.64265e-13
-3.74365e-13
-3.84391e-13
-3.94344e-13
-4.04222e-13
-4.14026e-13
-4.23757e-13
-4.33415e-13
-4.42999e-13
-4.5251e-13
-4.61946e-13
-4.71307e-13
-4.80593e-13
-4.89802e-13
-4.98935e-13
-5.0799e-13
-5.16963e-13
-5.25854e-13
-5.34664e-13
-5.4339e-13
-5.52032e-13
-5.60586e-13
-5.69051e-13
-5.77425e-13
-5.85706e-13
-5.9389e-13
-6.01976e-13
-6.09959e-13
-6.17837e-13
-6.25608e-13
-6.33272e-13
-6.40828e-13
-6.48274e-13
-6.55608e-13
-6.62825e-13
-6.69924e-13
-6.76902e-13
-6.83756e-13
-6.90483e-13
-6.97084e-13
-7.03559e-13
-7.09908e-13
-7.1613e-13
-7.22226e-13
-7.28194e-13
-7.34033e-13
-7.39739e-13
-7.45309e-13
-7.50743e-13
-7.56038e-13
-7.61194e-13
-7.66212e-13
-7.71092e-13
-7.75834e-13
-7.80438e-13
-7.84902e-13
-7.89223e-13
-7.93398e-13
-7.97425e-13
-8.01303e-13
-8.05028e-13
-8.08602e-13
-8.12025e-13
-8.15296e-13
-8.18416e-13
-8.21385e-13
-8.24204e-13
-8.26873e-13
-8.29391e-13
)
;
    }
    inandouthalf12
    {
        type            cyclic;
        value           nonuniform List<scalar> 
100
(
1.10967e-38
1.36431e-14
2.82031e-14
4.09745e-14
5.37077e-14
6.67789e-14
7.98741e-14
9.2819e-14
1.05593e-13
1.1821e-13
1.30681e-13
1.4301e-13
1.55194e-13
1.67232e-13
1.79126e-13
1.9088e-13
2.02501e-13
2.13997e-13
2.25371e-13
2.3663e-13
2.47779e-13
2.58822e-13
2.69763e-13
2.80609e-13
2.91361e-13
3.02024e-13
3.126e-13
3.23093e-13
3.33504e-13
3.43835e-13
3.54088e-13
3.64265e-13
3.74365e-13
3.84391e-13
3.94344e-13
4.04222e-13
4.14026e-13
4.23757e-13
4.33415e-13
4.42999e-13
4.5251e-13
4.61946e-13
4.71307e-13
4.80593e-13
4.89802e-13
4.98935e-13
5.0799e-13
5.16963e-13
5.25854e-13
5.34664e-13
5.4339e-13
5.52032e-13
5.60586e-13
5.69051e-13
5.77425e-13
5.85706e-13
5.9389e-13
6.01976e-13
6.09959e-13
6.17837e-13
6.25608e-13
6.33272e-13
6.40828e-13
6.48274e-13
6.55608e-13
6.62825e-13
6.69924e-13
6.76902e-13
6.83756e-13
6.90483e-13
6.97084e-13
7.03559e-13
7.09908e-13
7.1613e-13
7.22226e-13
7.28194e-13
7.34033e-13
7.39739e-13
7.45309e-13
7.50743e-13
7.56038e-13
7.61194e-13
7.66212e-13
7.71092e-13
7.75834e-13
7.80438e-13
7.84902e-13
7.89223e-13
7.93398e-13
7.97425e-13
8.01303e-13
8.05028e-13
8.08602e-13
8.12025e-13
8.15296e-13
8.18416e-13
8.21385e-13
8.24204e-13
8.26873e-13
8.29391e-13
)
;
    }
    inandouthalf21
    {
        type            cyclic;
        value           nonuniform List<scalar> 
100
(
-8.31759e-13
-8.33978e-13
-8.36049e-13
-8.37972e-13
-8.39749e-13
-8.41382e-13
-8.42873e-13
-8.44224e-13
-8.45436e-13
-8.46512e-13
-8.47455e-13
-8.48266e-13
-8.48946e-13
-8.49498e-13
-8.4992e-13
-8.50211e-13
-8.50371e-13
-8.50393e-13
-8.50273e-13
-8.50001e-13
-8.49567e-13
-8.48957e-13
-8.48153e-13
-8.47139e-13
-8.45896e-13
-8.44405e-13
-8.4265e-13
-8.40619e-13
-8.38308e-13
-8.35721e-13
-8.32877e-13
-8.29807e-13
-8.26551e-13
-8.23141e-13
-8.19592e-13
-8.15899e-13
-8.12033e-13
-8.0791e-13
-8.03371e-13
-7.98254e-13
-7.92733e-13
-7.87659e-13
-7.8405e-13
-7.82261e-13
-7.81776e-13
-7.81743e-13
-7.82087e-13
-4.36001e-12
-3.29668e-11
-3.73343e-08
-1.59647e-07
-2.63977e-07
-3.34564e-07
-3.83233e-07
-4.16287e-07
-4.38287e-07
-4.52904e-07
-4.62804e-07
-4.69668e-07
-4.74484e-07
-4.77842e-07
-4.80118e-07
-4.81565e-07
-4.82358e-07
-4.82628e-07
-4.82471e-07
-4.81963e-07
-4.81163e-07
-4.80117e-07
-4.78864e-07
-4.77437e-07
-4.75862e-07
-4.74162e-07
-4.72357e-07
-4.70463e-07
-4.68495e-07
-4.66467e-07
-4.64391e-07
-4.62276e-07
-4.60132e-07
-4.57967e-07
-4.55791e-07
-4.53608e-07
-4.51427e-07
-4.49253e-07
-4.47092e-07
-4.44949e-07
-4.42828e-07
-4.40736e-07
-4.38674e-07
-4.36649e-07
-4.34663e-07
-4.3272e-07
-4.30824e-07
-4.28978e-07
-4.27184e-07
-4.25446e-07
-4.23766e-07
-4.22147e-07
-4.20592e-07
)
;
    }
    inandouthalf22
    {
        type            cyclic;
        value           nonuniform List<scalar> 
100
(
8.31759e-13
8.33978e-13
8.36049e-13
8.37972e-13
8.39749e-13
8.41382e-13
8.42873e-13
8.44224e-13
8.45436e-13
8.46512e-13
8.47455e-13
8.48266e-13
8.48946e-13
8.49498e-13
8.4992e-13
8.50211e-13
8.50371e-13
8.50393e-13
8.50273e-13
8.50001e-13
8.49567e-13
8.48957e-13
8.48153e-13
8.47139e-13
8.45896e-13
8.44405e-13
8.4265e-13
8.40619e-13
8.38308e-13
8.35721e-13
8.32877e-13
8.29807e-13
8.26551e-13
8.23141e-13
8.19592e-13
8.15899e-13
8.12033e-13
8.0791e-13
8.03371e-13
7.98254e-13
7.92733e-13
7.87659e-13
7.8405e-13
7.82261e-13
7.81776e-13
7.81743e-13
7.82087e-13
4.36001e-12
3.29668e-11
3.73343e-08
1.59647e-07
2.63977e-07
3.34564e-07
3.83233e-07
4.16287e-07
4.38287e-07
4.52904e-07
4.62804e-07
4.69668e-07
4.74484e-07
4.77842e-07
4.80118e-07
4.81565e-07
4.82358e-07
4.82628e-07
4.82471e-07
4.81963e-07
4.81163e-07
4.80117e-07
4.78864e-07
4.77437e-07
4.75862e-07
4.74162e-07
4.72357e-07
4.70463e-07
4.68495e-07
4.66467e-07
4.64391e-07
4.62276e-07
4.60132e-07
4.57967e-07
4.55791e-07
4.53608e-07
4.51427e-07
4.49253e-07
4.47092e-07
4.44949e-07
4.42828e-07
4.40736e-07
4.38674e-07
4.36649e-07
4.34663e-07
4.3272e-07
4.30824e-07
4.28978e-07
4.27184e-07
4.25446e-07
4.23766e-07
4.22147e-07
4.20592e-07
)
;
    }
    inandouthalf31
    {
        type            cyclic;
        value           nonuniform List<scalar> 
110
(
-4.19104e-07
-4.26144e-07
-4.33339e-07
-4.40693e-07
-4.48212e-07
-4.55899e-07
-4.6376e-07
-4.71799e-07
-4.80021e-07
-4.88431e-07
-4.97031e-07
-5.05826e-07
-5.14819e-07
-5.24012e-07
-5.3341e-07
-5.43014e-07
-5.52826e-07
-5.62849e-07
-5.73085e-07
-5.83537e-07
-5.94205e-07
-6.05092e-07
-6.16201e-07
-6.27536e-07
-6.39098e-07
-6.50893e-07
-6.62927e-07
-6.75206e-07
-6.87738e-07
-7.00533e-07
-7.13607e-07
-7.26975e-07
-7.40668e-07
-7.54733e-07
-7.69236e-07
-7.84209e-07
-7.99415e-07
-6.96572e-07
-7.0442e-07
-7.12315e-07
-7.2067e-07
-7.29102e-07
-7.37731e-07
-7.50585e-07
-7.61292e-07
-7.71048e-07
-7.81987e-07
-7.93558e-07
-8.05919e-07
-8.19151e-07
-8.33329e-07
-8.48528e-07
-8.64896e-07
-8.8227e-07
-9.00775e-07
-9.20373e-07
-9.41002e-07
-9.62578e-07
-9.84984e-07
-1.00805e-06
-1.03157e-06
-1.05498e-06
-1.07736e-06
-1.09933e-06
-1.12165e-06
-1.14442e-06
-1.16765e-06
-1.19135e-06
-1.21553e-06
-1.2402e-06
-1.26537e-06
-1.29106e-06
-1.31726e-06
-1.344e-06
-1.37128e-06
-1.39911e-06
-1.42751e-06
-1.45648e-06
-1.48605e-06
-1.51621e-06
-1.54698e-06
-1.57838e-06
-1.61042e-06
-1.64311e-06
-1.67646e-06
-1.71049e-06
-1.7452e-06
-1.78063e-06
-1.81677e-06
-1.85364e-06
-1.89127e-06
-1.92966e-06
-1.96882e-06
-2.00878e-06
-2.04956e-06
-2.09116e-06
-2.1336e-06
-2.17691e-06
-2.22109e-06
-2.26618e-06
-2.31217e-06
-2.35911e-06
-2.40699e-06
-2.45584e-06
-2.50569e-06
-2.55655e-06
-2.60844e-06
-2.66139e-06
-2.71541e-06
-2.77052e-06
)
;
    }
    inandouthalf32
    {
        type            cyclic;
        value           nonuniform List<scalar> 
110
(
4.19104e-07
4.26144e-07
4.33339e-07
4.40693e-07
4.48212e-07
4.55899e-07
4.6376e-07
4.71799e-07
4.80021e-07
4.88431e-07
4.97031e-07
5.05826e-07
5.14819e-07
5.24012e-07
5.3341e-07
5.43014e-07
5.52826e-07
5.62849e-07
5.73085e-07
5.83537e-07
5.94205e-07
6.05092e-07
6.16201e-07
6.27536e-07
6.39098e-07
6.50893e-07
6.62927e-07
6.75206e-07
6.87738e-07
7.00533e-07
7.13607e-07
7.26975e-07
7.40668e-07
7.54733e-07
7.69236e-07
7.84209e-07
7.99415e-07
6.96572e-07
7.0442e-07
7.12315e-07
7.2067e-07
7.29102e-07
7.37731e-07
7.50585e-07
7.61292e-07
7.71048e-07
7.81987e-07
7.93558e-07
8.05919e-07
8.19151e-07
8.33329e-07
8.48528e-07
8.64896e-07
8.8227e-07
9.00775e-07
9.20373e-07
9.41002e-07
9.62578e-07
9.84984e-07
1.00805e-06
1.03157e-06
1.05498e-06
1.07736e-06
1.09933e-06
1.12165e-06
1.14442e-06
1.16765e-06
1.19135e-06
1.21553e-06
1.2402e-06
1.26537e-06
1.29106e-06
1.31726e-06
1.344e-06
1.37128e-06
1.39911e-06
1.42751e-06
1.45648e-06
1.48605e-06
1.51621e-06
1.54698e-06
1.57838e-06
1.61042e-06
1.64311e-06
1.67646e-06
1.71049e-06
1.7452e-06
1.78063e-06
1.81677e-06
1.85364e-06
1.89127e-06
1.92966e-06
1.96882e-06
2.00878e-06
2.04956e-06
2.09116e-06
2.1336e-06
2.17691e-06
2.22109e-06
2.26618e-06
2.31217e-06
2.35911e-06
2.40699e-06
2.45584e-06
2.50569e-06
2.55655e-06
2.60844e-06
2.66139e-06
2.71541e-06
2.77052e-06
)
;
    }
    inandouthalf41
    {
        type            cyclic;
        value           nonuniform List<scalar> 
50
(
-2.4799e-06
-2.4799e-06
-2.4799e-06
-2.4799e-06
-2.4799e-06
-2.4799e-06
-2.4799e-06
-2.4799e-06
-2.4799e-06
-2.4799e-06
-2.4799e-06
-2.4799e-06
-2.4799e-06
-2.4799e-06
-2.4799e-06
-2.4799e-06
-2.4799e-06
-2.4799e-06
-2.4799e-06
-2.4799e-06
-2.4799e-06
-2.4799e-06
-2.4799e-06
-2.4799e-06
-2.4799e-06
-2.4799e-06
-2.4799e-06
-2.4799e-06
-2.4799e-06
-2.4799e-06
-2.4799e-06
-2.4799e-06
-2.4799e-06
-2.4799e-06
-2.4799e-06
-2.4799e-06
-2.4799e-06
-2.4799e-06
-2.4799e-06
-2.4799e-06
-2.4799e-06
-2.4799e-06
-2.4799e-06
-2.4799e-06
-2.4799e-06
-2.4799e-06
-2.4799e-06
-2.47989e-06
-2.4796e-06
-2.47306e-06
)
;
    }
    inandouthalf42
    {
        type            cyclic;
        value           nonuniform List<scalar> 
50
(
2.4799e-06
2.4799e-06
2.4799e-06
2.4799e-06
2.4799e-06
2.4799e-06
2.4799e-06
2.4799e-06
2.4799e-06
2.4799e-06
2.4799e-06
2.4799e-06
2.4799e-06
2.4799e-06
2.4799e-06
2.4799e-06
2.4799e-06
2.4799e-06
2.4799e-06
2.4799e-06
2.4799e-06
2.4799e-06
2.4799e-06
2.4799e-06
2.4799e-06
2.4799e-06
2.4799e-06
2.4799e-06
2.4799e-06
2.4799e-06
2.4799e-06
2.4799e-06
2.4799e-06
2.4799e-06
2.4799e-06
2.4799e-06
2.4799e-06
2.4799e-06
2.4799e-06
2.4799e-06
2.4799e-06
2.4799e-06
2.4799e-06
2.4799e-06
2.4799e-06
2.4799e-06
2.4799e-06
2.47989e-06
2.4796e-06
2.47306e-06
)
;
    }
    top
    {
        type            symmetryPlane;
        value           uniform 0;
    }
    walls
    {
        type            fixedValue;
        value           uniform 0;
    }
    frontAndBackPlanes
    {
        type            empty;
        value           nonuniform 0();
    }
}


// ************************************************************************* //
