/*--------------------------------*- C++ -*----------------------------------*\
| =========                 |                                                 |
| \\      /  F ield         | OpenFOAM: The Open Source CFD Toolbox           |
|  \\    /   O peration     | Version:  2.4.x                                 |
|   \\  /    A nd           | Web:      www.OpenFOAM.org                      |
|    \\/     M anipulation  |                                                 |
\*---------------------------------------------------------------------------*/
FoamFile
{
    version     2.0;
    format      ascii;
    class       surfaceScalarField;
    location    "7.75";
    object      phib;
}
// * * * * * * * * * * * * * * * * * * * * * * * * * * * * * * * * * * * * * //

dimensions      [0 3 -1 0 0 0 0];

internalField   nonuniform List<scalar> 
359
(
2.99204e-13
7.58261e-13
1.17783e-12
1.57554e-12
1.98227e-12
2.39713e-12
2.81294e-12
3.22705e-12
3.63928e-12
4.05015e-12
4.45991e-12
4.86841e-12
5.27554e-12
5.68121e-12
6.08548e-12
6.48852e-12
6.89052e-12
7.29161e-12
7.69192e-12
8.09166e-12
8.49083e-12
8.88967e-12
9.28828e-12
9.68678e-12
1.00853e-11
1.04839e-11
1.08826e-11
1.12816e-11
1.16809e-11
1.20805e-11
1.24805e-11
1.28811e-11
1.32819e-11
1.36834e-11
1.40854e-11
1.44878e-11
1.48908e-11
1.52942e-11
1.56983e-11
1.61028e-11
1.65078e-11
1.69134e-11
1.73193e-11
1.77257e-11
1.81325e-11
1.85397e-11
1.89472e-11
1.93548e-11
1.97626e-11
2.01708e-11
2.05789e-11
2.09872e-11
2.13953e-11
2.18034e-11
2.22112e-11
2.26188e-11
2.30257e-11
2.34322e-11
2.38378e-11
2.42424e-11
2.46463e-11
2.5049e-11
2.54508e-11
2.58514e-11
2.62507e-11
2.66484e-11
2.70445e-11
2.74388e-11
2.78311e-11
2.82211e-11
2.86091e-11
2.89951e-11
2.93789e-11
2.97605e-11
3.01399e-11
3.05171e-11
3.08918e-11
3.12638e-11
3.16329e-11
3.19991e-11
3.23621e-11
3.27221e-11
3.3079e-11
3.34329e-11
3.37837e-11
3.41312e-11
3.44755e-11
3.48161e-11
3.51529e-11
3.54856e-11
3.58139e-11
3.61378e-11
3.6457e-11
3.67716e-11
3.70814e-11
3.73864e-11
3.76865e-11
3.79815e-11
3.82713e-11
3.85557e-11
3.88347e-11
3.9108e-11
3.93755e-11
3.96371e-11
3.98928e-11
4.01425e-11
4.03861e-11
4.06236e-11
4.08551e-11
4.10805e-11
4.13001e-11
4.15139e-11
4.17222e-11
4.19252e-11
4.21232e-11
4.23167e-11
4.25059e-11
4.26914e-11
4.28736e-11
4.3053e-11
4.32298e-11
4.34044e-11
4.35769e-11
4.37473e-11
4.39152e-11
4.40802e-11
4.42413e-11
4.43974e-11
4.45473e-11
4.46894e-11
4.48218e-11
4.4943e-11
4.50516e-11
4.51474e-11
4.5231e-11
4.53037e-11
4.53669e-11
4.54221e-11
4.54697e-11
4.55096e-11
4.55378e-11
4.55351e-11
4.54862e-11
4.53925e-11
4.52202e-11
4.48734e-11
5.34931e-11
5.38517e-11
-7.19611e-12
-2.56945e-09
-2.26439e-09
-1.61162e-09
-1.03342e-09
-6.02229e-10
-3.24328e-10
-1.64402e-10
-7.95904e-11
-3.71981e-11
-1.62826e-11
-5.50427e-12
3.51107e-13
3.62204e-12
5.44431e-12
6.41684e-12
6.87346e-12
7.00979e-12
6.94521e-12
6.75491e-12
6.48753e-12
6.1751e-12
5.83902e-12
5.4937e-12
5.14885e-12
4.811e-12
4.48443e-12
4.17186e-12
3.87492e-12
3.59446e-12
3.33075e-12
3.08369e-12
2.85289e-12
2.63777e-12
2.43763e-12
2.25168e-12
2.07912e-12
1.91909e-12
1.77077e-12
1.63336e-12
1.50608e-12
1.38819e-12
1.27899e-12
1.17785e-12
1.08413e-12
9.97278e-13
9.16745e-13
8.42039e-13
7.72701e-13
7.08309e-13
6.48481e-13
5.92886e-13
5.41241e-13
4.92367e-13
4.46233e-13
4.02809e-13
3.62078e-13
3.24034e-13
2.88672e-13
2.55983e-13
2.25934e-13
1.98474e-13
1.73533e-13
1.51026e-13
1.30867e-13
1.12924e-13
9.70187e-14
8.29974e-14
7.07132e-14
5.99855e-14
5.06366e-14
4.25262e-14
3.55436e-14
2.95729e-14
2.44775e-14
2.0153e-14
1.65127e-14
1.34574e-14
1.09012e-14
8.77531e-15
7.01393e-15
5.56587e-15
4.37386e-15
3.41865e-15
2.66477e-15
2.0758e-15
1.47239e-15
9.48432e-16
6.13331e-16
3.69942e-16
1.81154e-16
9.16595e-17
2.78026e-17
6.03283e-18
9.66913e-17
6.61707e-18
6.41975e-18
6.29512e-18
6.09157e-18
5.95864e-18
5.7464e-18
5.60037e-18
5.37913e-18
5.21597e-18
4.97707e-18
4.78961e-18
4.53347e-18
4.32708e-18
4.0647e-18
3.84628e-18
3.57381e-18
3.34007e-18
3.06967e-18
2.83939e-18
2.58631e-18
2.39505e-18
2.23393e-18
2.12977e-18
2.03309e-18
1.95177e-18
1.88092e-18
1.8172e-18
1.74386e-18
1.67298e-18
1.63584e-18
1.59708e-18
1.55303e-18
1.49143e-18
1.44371e-18
1.37625e-18
1.30521e-18
1.2199e-18
1.18494e-18
1.13859e-18
1.09303e-18
1.02663e-18
9.77219e-19
9.08621e-19
8.08931e-19
7.21895e-19
6.60721e-19
5.85787e-19
5.09541e-19
4.18998e-19
3.41285e-19
2.49343e-19
1.60891e-19
5.12513e-20
9.55005e-20
8.9108e-20
8.82312e-20
3.0767e-20
3.16388e-20
2.64177e-20
2.13611e-20
1.10288e-20
1.28031e-20
9.01213e-21
5.58761e-21
-3.99859e-21
-7.23039e-21
-1.87927e-20
-2.79289e-20
-4.41226e-20
-4.28422e-20
-4.93546e-20
-5.50389e-20
-6.93335e-20
-7.54232e-20
-9.01784e-20
-1.05023e-19
-1.2558e-19
-1.40493e-19
-1.60929e-19
-1.804e-19
-2.01902e-19
-2.3522e-19
-2.56811e-19
-2.84087e-19
-2.22163e-19
-5.29106e-19
-7.90265e-19
-1.05609e-18
-1.42163e-18
-1.66537e-18
-2.10054e-18
-2.51734e-18
-3.171e-18
-3.35263e-18
-3.83696e-18
-4.30342e-18
-5.10957e-18
-5.65553e-18
-6.5106e-18
-7.37833e-18
-8.38598e-18
-9.75741e-18
-1.11866e-17
-1.2639e-17
-1.40727e-17
-1.58451e-17
-1.71525e-17
-1.86697e-17
-1.91219e-17
-2.39608e-17
-2.63869e-17
-2.91726e-17
-2.84144e-17
-3.26516e-17
-3.19833e-17
-3.38793e-17
)
;

boundaryField
{
    inandouthalf11
    {
        type            cyclic;
        value           nonuniform List<scalar> 
100
(
-2.75829e-10
-2.74395e-10
-2.74183e-10
-2.74394e-10
-2.74511e-10
-2.74561e-10
-2.74615e-10
-2.7468e-10
-2.74745e-10
-2.74812e-10
-2.74878e-10
-2.74945e-10
-2.75012e-10
-2.75078e-10
-2.75146e-10
-2.75213e-10
-2.75282e-10
-2.7535e-10
-2.75419e-10
-2.75488e-10
-2.75558e-10
-2.75628e-10
-2.75699e-10
-2.7577e-10
-2.75841e-10
-2.75913e-10
-2.75986e-10
-2.76059e-10
-2.76133e-10
-2.76207e-10
-2.76281e-10
-2.76357e-10
-2.76432e-10
-2.76509e-10
-2.76586e-10
-2.76664e-10
-2.76742e-10
-2.76821e-10
-2.76901e-10
-2.76981e-10
-2.77063e-10
-2.77145e-10
-2.77227e-10
-2.7731e-10
-2.77394e-10
-2.77479e-10
-2.77565e-10
-2.77651e-10
-2.77738e-10
-2.77827e-10
-2.77915e-10
-2.78005e-10
-2.78096e-10
-2.78187e-10
-2.78279e-10
-2.78373e-10
-2.78467e-10
-2.78563e-10
-2.78659e-10
-2.78756e-10
-2.78855e-10
-2.78954e-10
-2.79055e-10
-2.79156e-10
-2.79259e-10
-2.79363e-10
-2.79468e-10
-2.79574e-10
-2.79682e-10
-2.7979e-10
-2.799e-10
-2.80012e-10
-2.80125e-10
-2.80239e-10
-2.80355e-10
-2.80473e-10
-2.80592e-10
-2.80712e-10
-2.80834e-10
-2.80958e-10
-2.81084e-10
-2.81211e-10
-2.81341e-10
-2.81472e-10
-2.81605e-10
-2.81741e-10
-2.81879e-10
-2.82018e-10
-2.8216e-10
-2.82305e-10
-2.82452e-10
-2.82601e-10
-2.82753e-10
-2.82908e-10
-2.83066e-10
-2.83226e-10
-2.8339e-10
-2.83557e-10
-2.83727e-10
-2.83901e-10
)
;
    }
    inandouthalf12
    {
        type            cyclic;
        value           nonuniform List<scalar> 
100
(
2.75829e-10
2.74395e-10
2.74183e-10
2.74394e-10
2.74511e-10
2.74561e-10
2.74615e-10
2.7468e-10
2.74745e-10
2.74812e-10
2.74878e-10
2.74945e-10
2.75012e-10
2.75078e-10
2.75146e-10
2.75213e-10
2.75282e-10
2.7535e-10
2.75419e-10
2.75488e-10
2.75558e-10
2.75628e-10
2.75699e-10
2.7577e-10
2.75841e-10
2.75913e-10
2.75986e-10
2.76059e-10
2.76133e-10
2.76207e-10
2.76281e-10
2.76357e-10
2.76432e-10
2.76509e-10
2.76586e-10
2.76664e-10
2.76742e-10
2.76821e-10
2.76901e-10
2.76981e-10
2.77063e-10
2.77145e-10
2.77227e-10
2.7731e-10
2.77394e-10
2.77479e-10
2.77565e-10
2.77651e-10
2.77738e-10
2.77827e-10
2.77915e-10
2.78005e-10
2.78096e-10
2.78187e-10
2.78279e-10
2.78373e-10
2.78467e-10
2.78563e-10
2.78659e-10
2.78756e-10
2.78855e-10
2.78954e-10
2.79055e-10
2.79156e-10
2.79259e-10
2.79363e-10
2.79468e-10
2.79574e-10
2.79682e-10
2.7979e-10
2.799e-10
2.80012e-10
2.80125e-10
2.80239e-10
2.80355e-10
2.80473e-10
2.80592e-10
2.80712e-10
2.80834e-10
2.80958e-10
2.81084e-10
2.81211e-10
2.81341e-10
2.81472e-10
2.81605e-10
2.81741e-10
2.81879e-10
2.82018e-10
2.8216e-10
2.82305e-10
2.82452e-10
2.82601e-10
2.82753e-10
2.82908e-10
2.83066e-10
2.83226e-10
2.8339e-10
2.83557e-10
2.83727e-10
2.83901e-10
)
;
    }
    inandouthalf21
    {
        type            cyclic;
        value           nonuniform List<scalar> 
100
(
-2.84078e-10
-2.84259e-10
-2.84444e-10
-2.84633e-10
-2.84826e-10
-2.85024e-10
-2.85226e-10
-2.85433e-10
-2.85645e-10
-2.85863e-10
-2.86086e-10
-2.86315e-10
-2.8655e-10
-2.86791e-10
-2.87039e-10
-2.87294e-10
-2.87557e-10
-2.87827e-10
-2.88105e-10
-2.88391e-10
-2.88687e-10
-2.88992e-10
-2.89306e-10
-2.89631e-10
-2.89967e-10
-2.90314e-10
-2.90675e-10
-2.91049e-10
-2.91438e-10
-2.91844e-10
-2.92267e-10
-2.92709e-10
-2.93171e-10
-2.93658e-10
-2.94176e-10
-2.94725e-10
-2.953e-10
-2.95911e-10
-2.96589e-10
-2.97367e-10
-2.9821e-10
-2.99023e-10
-3.00005e-10
-3.01282e-10
-3.02884e-10
-3.05995e-10
-3.12339e-10
-3.16297e-10
-4.18322e-10
-4.12443e-08
-1.81543e-07
-2.84415e-07
-3.55425e-07
-4.06867e-07
-4.43682e-07
-4.68867e-07
-4.85212e-07
-4.95462e-07
-5.01833e-07
-5.05801e-07
-5.08259e-07
-5.09728e-07
-5.10519e-07
-5.10821e-07
-5.10756e-07
-5.10404e-07
-5.09821e-07
-5.09046e-07
-5.08109e-07
-5.07032e-07
-5.05833e-07
-5.04525e-07
-5.0312e-07
-5.01628e-07
-5.00058e-07
-4.98417e-07
-4.96711e-07
-4.94947e-07
-4.93129e-07
-4.91262e-07
-4.8935e-07
-4.87398e-07
-4.85409e-07
-4.83386e-07
-4.81333e-07
-4.79253e-07
-4.77147e-07
-4.7502e-07
-4.72874e-07
-4.70709e-07
-4.6853e-07
-4.66337e-07
-4.64133e-07
-4.61919e-07
-4.59697e-07
-4.57469e-07
-4.55236e-07
-4.53e-07
-4.50761e-07
-4.48522e-07
)
;
    }
    inandouthalf22
    {
        type            cyclic;
        value           nonuniform List<scalar> 
100
(
2.84078e-10
2.84259e-10
2.84444e-10
2.84633e-10
2.84826e-10
2.85024e-10
2.85226e-10
2.85433e-10
2.85645e-10
2.85863e-10
2.86086e-10
2.86315e-10
2.8655e-10
2.86791e-10
2.87039e-10
2.87294e-10
2.87557e-10
2.87827e-10
2.88105e-10
2.88391e-10
2.88687e-10
2.88992e-10
2.89306e-10
2.89631e-10
2.89967e-10
2.90314e-10
2.90675e-10
2.91049e-10
2.91438e-10
2.91844e-10
2.92267e-10
2.92709e-10
2.93171e-10
2.93658e-10
2.94176e-10
2.94725e-10
2.953e-10
2.95911e-10
2.96589e-10
2.97367e-10
2.9821e-10
2.99023e-10
3.00005e-10
3.01282e-10
3.02884e-10
3.05995e-10
3.12339e-10
3.16297e-10
4.18322e-10
4.12443e-08
1.81543e-07
2.84415e-07
3.55425e-07
4.06867e-07
4.43682e-07
4.68867e-07
4.85212e-07
4.95462e-07
5.01833e-07
5.05801e-07
5.08259e-07
5.09728e-07
5.10519e-07
5.10821e-07
5.10756e-07
5.10404e-07
5.09821e-07
5.09046e-07
5.08109e-07
5.07032e-07
5.05833e-07
5.04525e-07
5.0312e-07
5.01628e-07
5.00058e-07
4.98417e-07
4.96711e-07
4.94947e-07
4.93129e-07
4.91262e-07
4.8935e-07
4.87398e-07
4.85409e-07
4.83386e-07
4.81333e-07
4.79253e-07
4.77147e-07
4.7502e-07
4.72874e-07
4.70709e-07
4.6853e-07
4.66337e-07
4.64133e-07
4.61919e-07
4.59697e-07
4.57469e-07
4.55236e-07
4.53e-07
4.50761e-07
4.48522e-07
)
;
    }
    inandouthalf31
    {
        type            cyclic;
        value           nonuniform List<scalar> 
110
(
-4.46284e-07
-4.53036e-07
-4.59833e-07
-4.66673e-07
-4.73553e-07
-4.80471e-07
-4.87426e-07
-4.94414e-07
-5.01434e-07
-5.08484e-07
-5.1556e-07
-5.22661e-07
-5.29785e-07
-5.36929e-07
-5.44091e-07
-5.51269e-07
-5.58462e-07
-5.65666e-07
-5.72882e-07
-5.80108e-07
-5.87342e-07
-5.94584e-07
-6.01834e-07
-6.09091e-07
-6.16357e-07
-6.23632e-07
-6.30919e-07
-6.38221e-07
-6.45541e-07
-6.52885e-07
-6.60258e-07
-6.67669e-07
-6.75127e-07
-6.82644e-07
-6.90233e-07
-6.97912e-07
-7.05699e-07
-7.13619e-07
-7.21698e-07
-7.29968e-07
-7.38467e-07
-7.47238e-07
-7.5633e-07
-7.658e-07
-7.75713e-07
-7.86141e-07
-7.97165e-07
-8.08871e-07
-8.21351e-07
-8.34695e-07
-8.48992e-07
-8.64318e-07
-8.80731e-07
-8.98266e-07
-9.16931e-07
-9.36706e-07
-9.57543e-07
-9.79365e-07
-1.00206e-06
-1.02547e-06
-1.04936e-06
-1.07335e-06
-1.09639e-06
-1.11878e-06
-1.1415e-06
-1.16466e-06
-1.1883e-06
-1.21242e-06
-1.23703e-06
-1.26214e-06
-1.28776e-06
-1.3139e-06
-1.34057e-06
-1.36778e-06
-1.39554e-06
-1.42386e-06
-1.45276e-06
-1.48225e-06
-1.51234e-06
-1.54303e-06
-1.57435e-06
-1.60631e-06
-1.63891e-06
-1.67218e-06
-1.70612e-06
-1.74075e-06
-1.77608e-06
-1.81213e-06
-1.84891e-06
-1.88644e-06
-1.92473e-06
-1.9638e-06
-2.00366e-06
-2.04433e-06
-2.08582e-06
-2.12816e-06
-2.17135e-06
-2.21543e-06
-2.26039e-06
-2.30627e-06
-2.35308e-06
-2.40084e-06
-2.44958e-06
-2.4993e-06
-2.55002e-06
-2.60178e-06
-2.65459e-06
-2.70847e-06
-2.76345e-06
-2.81954e-06
)
;
    }
    inandouthalf32
    {
        type            cyclic;
        value           nonuniform List<scalar> 
110
(
4.46284e-07
4.53036e-07
4.59833e-07
4.66673e-07
4.73553e-07
4.80471e-07
4.87426e-07
4.94414e-07
5.01434e-07
5.08484e-07
5.1556e-07
5.22661e-07
5.29785e-07
5.36929e-07
5.44091e-07
5.51269e-07
5.58462e-07
5.65666e-07
5.72882e-07
5.80108e-07
5.87342e-07
5.94584e-07
6.01834e-07
6.09091e-07
6.16357e-07
6.23632e-07
6.30919e-07
6.38221e-07
6.45541e-07
6.52885e-07
6.60258e-07
6.67669e-07
6.75127e-07
6.82644e-07
6.90233e-07
6.97912e-07
7.05699e-07
7.13619e-07
7.21698e-07
7.29968e-07
7.38467e-07
7.47238e-07
7.5633e-07
7.658e-07
7.75713e-07
7.86141e-07
7.97165e-07
8.08871e-07
8.21351e-07
8.34695e-07
8.48992e-07
8.64318e-07
8.80731e-07
8.98266e-07
9.16931e-07
9.36706e-07
9.57543e-07
9.79365e-07
1.00206e-06
1.02547e-06
1.04936e-06
1.07335e-06
1.09639e-06
1.11878e-06
1.1415e-06
1.16466e-06
1.1883e-06
1.21242e-06
1.23703e-06
1.26214e-06
1.28776e-06
1.3139e-06
1.34057e-06
1.36778e-06
1.39554e-06
1.42386e-06
1.45276e-06
1.48225e-06
1.51234e-06
1.54303e-06
1.57435e-06
1.60631e-06
1.63891e-06
1.67218e-06
1.70612e-06
1.74075e-06
1.77608e-06
1.81213e-06
1.84891e-06
1.88644e-06
1.92473e-06
1.9638e-06
2.00366e-06
2.04433e-06
2.08582e-06
2.12816e-06
2.17135e-06
2.21543e-06
2.26039e-06
2.30627e-06
2.35308e-06
2.40084e-06
2.44958e-06
2.4993e-06
2.55002e-06
2.60178e-06
2.65459e-06
2.70847e-06
2.76345e-06
2.81954e-06
)
;
    }
    inandouthalf41
    {
        type            cyclic;
        value           nonuniform List<scalar> 
50
(
-2.52377e-06
-2.52377e-06
-2.52377e-06
-2.52377e-06
-2.52377e-06
-2.52377e-06
-2.52377e-06
-2.52377e-06
-2.52377e-06
-2.52377e-06
-2.52377e-06
-2.52377e-06
-2.52377e-06
-2.52377e-06
-2.52377e-06
-2.52377e-06
-2.52377e-06
-2.52377e-06
-2.52377e-06
-2.52377e-06
-2.52377e-06
-2.52377e-06
-2.52377e-06
-2.52377e-06
-2.52377e-06
-2.52377e-06
-2.52377e-06
-2.52377e-06
-2.52377e-06
-2.52377e-06
-2.52377e-06
-2.52377e-06
-2.52377e-06
-2.52377e-06
-2.52377e-06
-2.52377e-06
-2.52377e-06
-2.52377e-06
-2.52377e-06
-2.52377e-06
-2.52377e-06
-2.52377e-06
-2.52377e-06
-2.52377e-06
-2.52377e-06
-2.52377e-06
-2.52377e-06
-2.52377e-06
-2.52377e-06
-2.52377e-06
)
;
    }
    inandouthalf42
    {
        type            cyclic;
        value           nonuniform List<scalar> 
50
(
2.52377e-06
2.52377e-06
2.52377e-06
2.52377e-06
2.52377e-06
2.52377e-06
2.52377e-06
2.52377e-06
2.52377e-06
2.52377e-06
2.52377e-06
2.52377e-06
2.52377e-06
2.52377e-06
2.52377e-06
2.52377e-06
2.52377e-06
2.52377e-06
2.52377e-06
2.52377e-06
2.52377e-06
2.52377e-06
2.52377e-06
2.52377e-06
2.52377e-06
2.52377e-06
2.52377e-06
2.52377e-06
2.52377e-06
2.52377e-06
2.52377e-06
2.52377e-06
2.52377e-06
2.52377e-06
2.52377e-06
2.52377e-06
2.52377e-06
2.52377e-06
2.52377e-06
2.52377e-06
2.52377e-06
2.52377e-06
2.52377e-06
2.52377e-06
2.52377e-06
2.52377e-06
2.52377e-06
2.52377e-06
2.52377e-06
2.52377e-06
)
;
    }
    top
    {
        type            symmetryPlane;
        value           uniform 0;
    }
    walls
    {
        type            fixedValue;
        value           uniform 0;
    }
    frontAndBackPlanes
    {
        type            empty;
        value           nonuniform 0();
    }
}


// ************************************************************************* //
