/*--------------------------------*- C++ -*----------------------------------*\
| =========                 |                                                 |
| \\      /  F ield         | OpenFOAM: The Open Source CFD Toolbox           |
|  \\    /   O peration     | Version:  2.4.x                                 |
|   \\  /    A nd           | Web:      www.OpenFOAM.org                      |
|    \\/     M anipulation  |                                                 |
\*---------------------------------------------------------------------------*/
FoamFile
{
    version     2.0;
    format      ascii;
    class       surfaceScalarField;
    location    "7.75";
    object      phib_0;
}
// * * * * * * * * * * * * * * * * * * * * * * * * * * * * * * * * * * * * * //

dimensions      [0 3 -1 0 0 0 0];

internalField   nonuniform List<scalar> 
359
(
2.99228e-13
7.58323e-13
1.17792e-12
1.57566e-12
1.98241e-12
2.39729e-12
2.81313e-12
3.22726e-12
3.63951e-12
4.0504e-12
4.46018e-12
4.8687e-12
5.27586e-12
5.68156e-12
6.08585e-12
6.48892e-12
6.89095e-12
7.29207e-12
7.69241e-12
8.09218e-12
8.49139e-12
8.89027e-12
9.28892e-12
9.68746e-12
1.0086e-11
1.04846e-11
1.08834e-11
1.12824e-11
1.16817e-11
1.20814e-11
1.24815e-11
1.28821e-11
1.3283e-11
1.36846e-11
1.40866e-11
1.44891e-11
1.48921e-11
1.52956e-11
1.56997e-11
1.61042e-11
1.65094e-11
1.6915e-11
1.73209e-11
1.77274e-11
1.81342e-11
1.85415e-11
1.8949e-11
1.93567e-11
1.97646e-11
2.01728e-11
2.0581e-11
2.09893e-11
2.13975e-11
2.18057e-11
2.22135e-11
2.26211e-11
2.30282e-11
2.34347e-11
2.38404e-11
2.4245e-11
2.46489e-11
2.50517e-11
2.54536e-11
2.58543e-11
2.62536e-11
2.66514e-11
2.70475e-11
2.74419e-11
2.78342e-11
2.82243e-11
2.86124e-11
2.89985e-11
2.93822e-11
2.97639e-11
3.01434e-11
3.05207e-11
3.08954e-11
3.12675e-11
3.16366e-11
3.20029e-11
3.2366e-11
3.27261e-11
3.3083e-11
3.34369e-11
3.37878e-11
3.41354e-11
3.44797e-11
3.48204e-11
3.51573e-11
3.549e-11
3.58184e-11
3.61423e-11
3.64616e-11
3.67762e-11
3.70861e-11
3.73912e-11
3.76913e-11
3.79863e-11
3.82762e-11
3.85607e-11
3.88396e-11
3.9113e-11
3.93805e-11
3.96422e-11
3.98979e-11
4.01476e-11
4.03912e-11
4.06288e-11
4.08603e-11
4.10857e-11
4.13053e-11
4.15191e-11
4.17274e-11
4.19304e-11
4.21285e-11
4.23219e-11
4.25112e-11
4.26967e-11
4.28789e-11
4.30582e-11
4.3235e-11
4.34096e-11
4.35821e-11
4.37525e-11
4.39204e-11
4.40853e-11
4.42464e-11
4.44026e-11
4.45525e-11
4.46945e-11
4.48269e-11
4.4948e-11
4.50567e-11
4.51525e-11
4.5236e-11
4.53087e-11
4.5372e-11
4.54271e-11
4.54747e-11
4.55146e-11
4.55428e-11
4.554e-11
4.54911e-11
4.53974e-11
4.52251e-11
4.48782e-11
5.34758e-11
5.38595e-11
-7.19765e-12
-2.56903e-09
-2.26351e-09
-1.61033e-09
-1.03218e-09
-6.01254e-10
-3.23666e-10
-1.63996e-10
-7.93564e-11
-3.7065e-11
-1.62023e-11
-5.45114e-12
3.89078e-13
3.65065e-12
5.46678e-12
6.43501e-12
6.8885e-12
7.02245e-12
6.95601e-12
6.76424e-12
6.49565e-12
6.18222e-12
5.8453e-12
5.49928e-12
5.15383e-12
4.81547e-12
4.48845e-12
4.17549e-12
3.87821e-12
3.59745e-12
3.33348e-12
3.08619e-12
2.85518e-12
2.63988e-12
2.43957e-12
2.25347e-12
2.08077e-12
1.92062e-12
1.7722e-12
1.63469e-12
1.50731e-12
1.38934e-12
1.28007e-12
1.17885e-12
1.08507e-12
9.98153e-13
9.17563e-13
8.42803e-13
7.73415e-13
7.08975e-13
6.49103e-13
5.93465e-13
5.41779e-13
4.92866e-13
4.46693e-13
4.03233e-13
3.62465e-13
3.24386e-13
2.88992e-13
2.56271e-13
2.26192e-13
1.98704e-13
1.73735e-13
1.51204e-13
1.31023e-13
1.13059e-13
9.71353e-14
8.30974e-14
7.07987e-14
6.00581e-14
5.06981e-14
4.2578e-14
3.5587e-14
2.96092e-14
2.45077e-14
2.0178e-14
1.65333e-14
1.34743e-14
1.09151e-14
8.78664e-15
7.02311e-15
5.57327e-15
4.37978e-15
3.42337e-15
2.66853e-15
2.07884e-15
1.47471e-15
9.49991e-16
6.1438e-16
3.70511e-16
1.81474e-16
9.1815e-17
2.78828e-17
6.06433e-18
9.66933e-17
6.60437e-18
6.40749e-18
6.27724e-18
6.07403e-18
5.93569e-18
5.72562e-18
5.57537e-18
5.35525e-18
5.18934e-18
4.95327e-18
4.76352e-18
4.51012e-18
4.3036e-18
4.0444e-18
3.82607e-18
3.55706e-18
3.32422e-18
3.05869e-18
2.83097e-18
2.58147e-18
2.39078e-18
2.22996e-18
2.12253e-18
2.0236e-18
1.93805e-18
1.86429e-18
1.79721e-18
1.72213e-18
1.6507e-18
1.6101e-18
1.56845e-18
1.52187e-18
1.45958e-18
1.41076e-18
1.34389e-18
1.27403e-18
1.19153e-18
1.1551e-18
1.10791e-18
1.06253e-18
9.97854e-19
9.48146e-19
8.81688e-19
7.83831e-19
7.00341e-19
6.40359e-19
5.67468e-19
4.94331e-19
4.07457e-19
3.33353e-19
2.4569e-19
1.61337e-19
5.60589e-20
1.04791e-19
1.02452e-19
1.06472e-19
5.49397e-20
6.06828e-20
6.2108e-20
6.32628e-20
6.24248e-20
6.85046e-20
7.25768e-20
7.64654e-20
8.01844e-20
8.40217e-20
8.83834e-20
9.19155e-20
9.64261e-20
9.9222e-20
1.03746e-19
1.08611e-19
1.15396e-19
1.20126e-19
1.27643e-19
1.34538e-19
1.40439e-19
1.55625e-19
1.68907e-19
1.82216e-19
1.85672e-19
2.22307e-19
2.2501e-19
2.41455e-19
7.72016e-20
6.98304e-19
1.16163e-18
1.63908e-18
2.1423e-18
2.60866e-18
3.16667e-18
3.71633e-18
4.38343e-18
4.82859e-18
5.4262e-18
6.01663e-18
6.77467e-18
7.43875e-18
8.22753e-18
9.04994e-18
9.83817e-18
1.1419e-17
1.28761e-17
1.43762e-17
1.56706e-17
1.74512e-17
1.86176e-17
1.99925e-17
2.02567e-17
2.47953e-17
2.69901e-17
2.95152e-17
2.86667e-17
3.23887e-17
3.15585e-17
3.30961e-17
)
;

boundaryField
{
    inandouthalf11
    {
        type            cyclic;
        value           nonuniform List<scalar> 
100
(
-2.75822e-10
-2.74387e-10
-2.74175e-10
-2.74387e-10
-2.74504e-10
-2.74553e-10
-2.74608e-10
-2.74672e-10
-2.74738e-10
-2.74804e-10
-2.74871e-10
-2.74937e-10
-2.75004e-10
-2.75071e-10
-2.75138e-10
-2.75206e-10
-2.75274e-10
-2.75342e-10
-2.75411e-10
-2.75481e-10
-2.7555e-10
-2.7562e-10
-2.75691e-10
-2.75762e-10
-2.75834e-10
-2.75906e-10
-2.75978e-10
-2.76051e-10
-2.76125e-10
-2.76199e-10
-2.76273e-10
-2.76349e-10
-2.76424e-10
-2.76502e-10
-2.76578e-10
-2.76656e-10
-2.76734e-10
-2.76814e-10
-2.76894e-10
-2.76973e-10
-2.77055e-10
-2.77137e-10
-2.77219e-10
-2.77303e-10
-2.77386e-10
-2.77471e-10
-2.77557e-10
-2.77643e-10
-2.7773e-10
-2.77819e-10
-2.77907e-10
-2.77997e-10
-2.78088e-10
-2.7818e-10
-2.78271e-10
-2.78366e-10
-2.78459e-10
-2.78555e-10
-2.78651e-10
-2.78748e-10
-2.78847e-10
-2.78946e-10
-2.79047e-10
-2.79148e-10
-2.79251e-10
-2.79355e-10
-2.7946e-10
-2.79566e-10
-2.79674e-10
-2.79782e-10
-2.79892e-10
-2.80004e-10
-2.80116e-10
-2.80231e-10
-2.80347e-10
-2.80465e-10
-2.80584e-10
-2.80704e-10
-2.80826e-10
-2.8095e-10
-2.81076e-10
-2.81203e-10
-2.81332e-10
-2.81464e-10
-2.81597e-10
-2.81733e-10
-2.81871e-10
-2.8201e-10
-2.82152e-10
-2.82297e-10
-2.82443e-10
-2.82593e-10
-2.82745e-10
-2.829e-10
-2.83057e-10
-2.83218e-10
-2.83382e-10
-2.83549e-10
-2.83719e-10
-2.83893e-10
)
;
    }
    inandouthalf12
    {
        type            cyclic;
        value           nonuniform List<scalar> 
100
(
2.75822e-10
2.74387e-10
2.74175e-10
2.74387e-10
2.74504e-10
2.74553e-10
2.74608e-10
2.74672e-10
2.74738e-10
2.74804e-10
2.74871e-10
2.74937e-10
2.75004e-10
2.75071e-10
2.75138e-10
2.75206e-10
2.75274e-10
2.75342e-10
2.75411e-10
2.75481e-10
2.7555e-10
2.7562e-10
2.75691e-10
2.75762e-10
2.75834e-10
2.75906e-10
2.75978e-10
2.76051e-10
2.76125e-10
2.76199e-10
2.76273e-10
2.76349e-10
2.76424e-10
2.76502e-10
2.76578e-10
2.76656e-10
2.76734e-10
2.76814e-10
2.76894e-10
2.76973e-10
2.77055e-10
2.77137e-10
2.77219e-10
2.77303e-10
2.77386e-10
2.77471e-10
2.77557e-10
2.77643e-10
2.7773e-10
2.77819e-10
2.77907e-10
2.77997e-10
2.78088e-10
2.7818e-10
2.78271e-10
2.78366e-10
2.78459e-10
2.78555e-10
2.78651e-10
2.78748e-10
2.78847e-10
2.78946e-10
2.79047e-10
2.79148e-10
2.79251e-10
2.79355e-10
2.7946e-10
2.79566e-10
2.79674e-10
2.79782e-10
2.79892e-10
2.80004e-10
2.80116e-10
2.80231e-10
2.80347e-10
2.80465e-10
2.80584e-10
2.80704e-10
2.80826e-10
2.8095e-10
2.81076e-10
2.81203e-10
2.81332e-10
2.81464e-10
2.81597e-10
2.81733e-10
2.81871e-10
2.8201e-10
2.82152e-10
2.82297e-10
2.82443e-10
2.82593e-10
2.82745e-10
2.829e-10
2.83057e-10
2.83218e-10
2.83382e-10
2.83549e-10
2.83719e-10
2.83893e-10
)
;
    }
    inandouthalf21
    {
        type            cyclic;
        value           nonuniform List<scalar> 
100
(
-2.8407e-10
-2.84251e-10
-2.84436e-10
-2.84625e-10
-2.84818e-10
-2.85015e-10
-2.85218e-10
-2.85425e-10
-2.85637e-10
-2.85854e-10
-2.86077e-10
-2.86306e-10
-2.86541e-10
-2.86783e-10
-2.87031e-10
-2.87286e-10
-2.87548e-10
-2.87818e-10
-2.88096e-10
-2.88383e-10
-2.88678e-10
-2.88983e-10
-2.89298e-10
-2.89622e-10
-2.89958e-10
-2.90306e-10
-2.90666e-10
-2.9104e-10
-2.91429e-10
-2.91835e-10
-2.92258e-10
-2.927e-10
-2.93162e-10
-2.9365e-10
-2.94168e-10
-2.94716e-10
-2.95291e-10
-2.95902e-10
-2.9658e-10
-2.97358e-10
-2.98201e-10
-2.99014e-10
-2.99996e-10
-3.01273e-10
-3.02875e-10
-3.05986e-10
-3.12331e-10
-3.16277e-10
-4.18041e-10
-4.11888e-08
-1.81469e-07
-2.84346e-07
-3.55342e-07
-4.06765e-07
-4.43556e-07
-4.68717e-07
-4.8504e-07
-4.95275e-07
-5.01635e-07
-5.05596e-07
-5.08049e-07
-5.09515e-07
-5.10303e-07
-5.10603e-07
-5.10536e-07
-5.10183e-07
-5.09599e-07
-5.08823e-07
-5.07885e-07
-5.06807e-07
-5.05606e-07
-5.04297e-07
-5.02892e-07
-5.01399e-07
-4.99829e-07
-4.98187e-07
-4.9648e-07
-4.94715e-07
-4.92896e-07
-4.91028e-07
-4.89116e-07
-4.87163e-07
-4.85173e-07
-4.8315e-07
-4.81096e-07
-4.79015e-07
-4.7691e-07
-4.74782e-07
-4.72634e-07
-4.7047e-07
-4.68289e-07
-4.66096e-07
-4.63891e-07
-4.61677e-07
-4.59455e-07
-4.57226e-07
-4.54993e-07
-4.52756e-07
-4.50517e-07
-4.48277e-07
)
;
    }
    inandouthalf22
    {
        type            cyclic;
        value           nonuniform List<scalar> 
100
(
2.8407e-10
2.84251e-10
2.84436e-10
2.84625e-10
2.84818e-10
2.85015e-10
2.85218e-10
2.85425e-10
2.85637e-10
2.85854e-10
2.86077e-10
2.86306e-10
2.86541e-10
2.86783e-10
2.87031e-10
2.87286e-10
2.87548e-10
2.87818e-10
2.88096e-10
2.88383e-10
2.88678e-10
2.88983e-10
2.89298e-10
2.89622e-10
2.89958e-10
2.90306e-10
2.90666e-10
2.9104e-10
2.91429e-10
2.91835e-10
2.92258e-10
2.927e-10
2.93162e-10
2.9365e-10
2.94168e-10
2.94716e-10
2.95291e-10
2.95902e-10
2.9658e-10
2.97358e-10
2.98201e-10
2.99014e-10
2.99996e-10
3.01273e-10
3.02875e-10
3.05986e-10
3.12331e-10
3.16277e-10
4.18041e-10
4.11888e-08
1.81469e-07
2.84346e-07
3.55342e-07
4.06765e-07
4.43556e-07
4.68717e-07
4.8504e-07
4.95275e-07
5.01635e-07
5.05596e-07
5.08049e-07
5.09515e-07
5.10303e-07
5.10603e-07
5.10536e-07
5.10183e-07
5.09599e-07
5.08823e-07
5.07885e-07
5.06807e-07
5.05606e-07
5.04297e-07
5.02892e-07
5.01399e-07
4.99829e-07
4.98187e-07
4.9648e-07
4.94715e-07
4.92896e-07
4.91028e-07
4.89116e-07
4.87163e-07
4.85173e-07
4.8315e-07
4.81096e-07
4.79015e-07
4.7691e-07
4.74782e-07
4.72634e-07
4.7047e-07
4.68289e-07
4.66096e-07
4.63891e-07
4.61677e-07
4.59455e-07
4.57226e-07
4.54993e-07
4.52756e-07
4.50517e-07
4.48277e-07
)
;
    }
    inandouthalf31
    {
        type            cyclic;
        value           nonuniform List<scalar> 
110
(
-4.46039e-07
-4.52786e-07
-4.59577e-07
-4.66411e-07
-4.73285e-07
-4.80198e-07
-4.87147e-07
-4.94129e-07
-5.01143e-07
-5.08186e-07
-5.15256e-07
-5.2235e-07
-5.29467e-07
-5.36604e-07
-5.43759e-07
-5.5093e-07
-5.58115e-07
-5.65313e-07
-5.72521e-07
-5.79739e-07
-5.86965e-07
-5.94199e-07
-6.0144e-07
-6.08689e-07
-6.15946e-07
-6.23213e-07
-6.30491e-07
-6.37784e-07
-6.45095e-07
-6.52429e-07
-6.59793e-07
-6.67194e-07
-6.74642e-07
-6.82149e-07
-6.89728e-07
-6.97396e-07
-7.05174e-07
-7.13083e-07
-7.21151e-07
-7.2941e-07
-7.37898e-07
-7.46658e-07
-7.55738e-07
-7.65197e-07
-7.75099e-07
-7.85515e-07
-7.96528e-07
-8.08222e-07
-8.2069e-07
-8.34023e-07
-8.48307e-07
-8.63621e-07
-8.80021e-07
-8.97543e-07
-9.16195e-07
-9.35957e-07
-9.5678e-07
-9.78587e-07
-1.00127e-06
-1.02466e-06
-1.04853e-06
-1.07251e-06
-1.09553e-06
-1.1179e-06
-1.1406e-06
-1.16375e-06
-1.18737e-06
-1.21147e-06
-1.23606e-06
-1.26115e-06
-1.28675e-06
-1.31287e-06
-1.33951e-06
-1.3667e-06
-1.39444e-06
-1.42275e-06
-1.45162e-06
-1.48109e-06
-1.51115e-06
-1.54182e-06
-1.57312e-06
-1.60505e-06
-1.63763e-06
-1.67087e-06
-1.70478e-06
-1.73938e-06
-1.77469e-06
-1.81071e-06
-1.84746e-06
-1.88496e-06
-1.92322e-06
-1.96226e-06
-2.00208e-06
-2.04272e-06
-2.08418e-06
-2.12649e-06
-2.16965e-06
-2.21369e-06
-2.25862e-06
-2.30446e-06
-2.35124e-06
-2.39896e-06
-2.44765e-06
-2.49733e-06
-2.54802e-06
-2.59974e-06
-2.65251e-06
-2.70635e-06
-2.76128e-06
-2.81733e-06
)
;
    }
    inandouthalf32
    {
        type            cyclic;
        value           nonuniform List<scalar> 
110
(
4.46039e-07
4.52786e-07
4.59577e-07
4.66411e-07
4.73285e-07
4.80198e-07
4.87147e-07
4.94129e-07
5.01143e-07
5.08186e-07
5.15256e-07
5.2235e-07
5.29467e-07
5.36604e-07
5.43759e-07
5.5093e-07
5.58115e-07
5.65313e-07
5.72521e-07
5.79739e-07
5.86965e-07
5.94199e-07
6.0144e-07
6.08689e-07
6.15946e-07
6.23213e-07
6.30491e-07
6.37784e-07
6.45095e-07
6.52429e-07
6.59793e-07
6.67194e-07
6.74642e-07
6.82149e-07
6.89728e-07
6.97396e-07
7.05174e-07
7.13083e-07
7.21151e-07
7.2941e-07
7.37898e-07
7.46658e-07
7.55738e-07
7.65197e-07
7.75099e-07
7.85515e-07
7.96528e-07
8.08222e-07
8.2069e-07
8.34023e-07
8.48307e-07
8.63621e-07
8.80021e-07
8.97543e-07
9.16195e-07
9.35957e-07
9.5678e-07
9.78587e-07
1.00127e-06
1.02466e-06
1.04853e-06
1.07251e-06
1.09553e-06
1.1179e-06
1.1406e-06
1.16375e-06
1.18737e-06
1.21147e-06
1.23606e-06
1.26115e-06
1.28675e-06
1.31287e-06
1.33951e-06
1.3667e-06
1.39444e-06
1.42275e-06
1.45162e-06
1.48109e-06
1.51115e-06
1.54182e-06
1.57312e-06
1.60505e-06
1.63763e-06
1.67087e-06
1.70478e-06
1.73938e-06
1.77469e-06
1.81071e-06
1.84746e-06
1.88496e-06
1.92322e-06
1.96226e-06
2.00208e-06
2.04272e-06
2.08418e-06
2.12649e-06
2.16965e-06
2.21369e-06
2.25862e-06
2.30446e-06
2.35124e-06
2.39896e-06
2.44765e-06
2.49733e-06
2.54802e-06
2.59974e-06
2.65251e-06
2.70635e-06
2.76128e-06
2.81733e-06
)
;
    }
    inandouthalf41
    {
        type            cyclic;
        value           nonuniform List<scalar> 
50
(
-2.52179e-06
-2.52179e-06
-2.52179e-06
-2.52179e-06
-2.52179e-06
-2.52179e-06
-2.52179e-06
-2.52179e-06
-2.52179e-06
-2.52179e-06
-2.52179e-06
-2.52179e-06
-2.52179e-06
-2.52179e-06
-2.52179e-06
-2.52179e-06
-2.52179e-06
-2.52179e-06
-2.52179e-06
-2.52179e-06
-2.52179e-06
-2.52179e-06
-2.52179e-06
-2.52179e-06
-2.52179e-06
-2.52179e-06
-2.52179e-06
-2.52179e-06
-2.52179e-06
-2.52179e-06
-2.52179e-06
-2.52179e-06
-2.52179e-06
-2.52179e-06
-2.52179e-06
-2.52179e-06
-2.52179e-06
-2.52179e-06
-2.52179e-06
-2.52179e-06
-2.52179e-06
-2.52179e-06
-2.52179e-06
-2.52179e-06
-2.52179e-06
-2.52179e-06
-2.52179e-06
-2.52179e-06
-2.52179e-06
-2.52179e-06
)
;
    }
    inandouthalf42
    {
        type            cyclic;
        value           nonuniform List<scalar> 
50
(
2.52179e-06
2.52179e-06
2.52179e-06
2.52179e-06
2.52179e-06
2.52179e-06
2.52179e-06
2.52179e-06
2.52179e-06
2.52179e-06
2.52179e-06
2.52179e-06
2.52179e-06
2.52179e-06
2.52179e-06
2.52179e-06
2.52179e-06
2.52179e-06
2.52179e-06
2.52179e-06
2.52179e-06
2.52179e-06
2.52179e-06
2.52179e-06
2.52179e-06
2.52179e-06
2.52179e-06
2.52179e-06
2.52179e-06
2.52179e-06
2.52179e-06
2.52179e-06
2.52179e-06
2.52179e-06
2.52179e-06
2.52179e-06
2.52179e-06
2.52179e-06
2.52179e-06
2.52179e-06
2.52179e-06
2.52179e-06
2.52179e-06
2.52179e-06
2.52179e-06
2.52179e-06
2.52179e-06
2.52179e-06
2.52179e-06
2.52179e-06
)
;
    }
    top
    {
        type            symmetryPlane;
        value           uniform 0;
    }
    walls
    {
        type            fixedValue;
        value           uniform 0;
    }
    frontAndBackPlanes
    {
        type            empty;
        value           nonuniform 0();
    }
}


// ************************************************************************* //
