/*--------------------------------*- C++ -*----------------------------------*\
| =========                 |                                                 |
| \\      /  F ield         | OpenFOAM: The Open Source CFD Toolbox           |
|  \\    /   O peration     | Version:  2.4.x                                 |
|   \\  /    A nd           | Web:      www.OpenFOAM.org                      |
|    \\/     M anipulation  |                                                 |
\*---------------------------------------------------------------------------*/
FoamFile
{
    version     2.0;
    format      ascii;
    class       volTensorField;
    location    "7.75";
    object      Taus;
}
// * * * * * * * * * * * * * * * * * * * * * * * * * * * * * * * * * * * * * //

dimensions      [0 2 -2 0 0 0 0];

internalField   nonuniform List<tensor> 
360
(
(0 0.0158805 0 0.0158805 -0.204621 0 0 0 0)
(0 0.0230136 0 0.0230136 -0.257621 0 0 0 0)
(0 0.0276208 0 0.0276208 -0.263755 0 0 0 0)
(0 0.0265507 0 0.0265507 -0.257487 0 0 0 0)
(-6.2235e-18 0.0254559 0 0.0254559 -0.254426 0 0 0 0)
(-2.42085e-17 0.0251024 0 0.0251024 -0.253354 0 0 0 0)
(-2.40732e-17 0.0248417 0 0.0248417 -0.252116 0 0 0 0)
(0 0.0245008 0 0.0245008 -0.250582 0 0 0 0)
(-2.39865e-17 0.0241353 0 0.0241353 -0.24902 0 0 0 0)
(0 0.0237692 0 0.0237692 -0.247445 0 0 0 0)
(-2.3816e-17 0.0234066 0 0.0234066 -0.24586 0 0 0 0)
(0 0.0230525 0 0.0230525 -0.24429 0 0 0 0)
(-2.36523e-17 0.0227044 0 0.0227044 -0.242717 0 0 0 0)
(0 0.0223618 0 0.0223618 -0.241146 0 0 0 0)
(0 0.0220231 0 0.0220231 -0.23957 0 0 0 0)
(0 0.0216871 0 0.0216871 -0.237986 0 0 0 0)
(0 0.0213547 0 0.0213547 -0.236396 0 0 0 0)
(-4.64011e-17 0.0210272 0 0.0210272 -0.234807 0 0 0 0)
(0 0.0207037 0 0.0207037 -0.233217 0 0 0 0)
(0 0.020383 0 0.020383 -0.231613 0 0 0 0)
(0 0.0200682 0 0.0200682 -0.230021 0 0 0 0)
(-4.53508e-17 0.0197557 0 0.0197557 -0.228415 0 0 0 0)
(0 0.0194468 0 0.0194468 -0.226807 0 0 0 0)
(0 0.0191417 0 0.0191417 -0.225198 0 0 0 0)
(0 0.0188396 0 0.0188396 -0.223583 0 0 0 0)
(-8.81129e-17 0.0185414 0 0.0185414 -0.221966 0 0 0 0)
(0 0.0182469 0 0.0182469 -0.220351 0 0 0 0)
(0 0.0179541 0 0.0179541 -0.218723 0 0 0 0)
(0 0.0176648 0 0.0176648 -0.217095 0 0 0 0)
(0 0.0173794 0 0.0173794 -0.215467 0 0 0 0)
(0 0.0170963 0 0.0170963 -0.213835 0 0 0 0)
(0 0.0168153 0 0.0168153 -0.212189 0 0 0 0)
(0 0.0165392 0 0.0165392 -0.210563 0 0 0 0)
(0 0.0162628 0 0.0162628 -0.208904 0 0 0 0)
(0 0.015991 0 0.015991 -0.207265 0 0 0 0)
(4.03088e-17 0.0157214 0 0.0157214 -0.20561 0 0 0 0)
(0 0.0154551 0 0.0154551 -0.203962 0 0 0 0)
(0 0.0151897 0 0.0151897 -0.202303 0 0 0 0)
(0 0.0149264 0 0.0149264 -0.200632 0 0 0 0)
(0 0.0146685 0 0.0146685 -0.198988 0 0 0 0)
(0 0.0144091 0 0.0144091 -0.197306 0 0 0 0)
(0 0.0141535 0 0.0141535 -0.195636 0 0 0 0)
(7.52455e-17 0.013902 0 0.013902 -0.193977 0 0 0 0)
(0 0.0136496 0 0.0136496 -0.192288 0 0 0 0)
(0 0.0134008 0 0.0134008 -0.190615 0 0 0 0)
(0 0.0131534 0 0.0131534 -0.188931 0 0 0 0)
(0 0.0129078 0 0.0129078 -0.187238 0 0 0 0)
(0 0.0126673 0 0.0126673 -0.185568 0 0 0 0)
(0 0.012426 0 0.012426 -0.183876 0 0 0 0)
(0 0.012185 0 0.012185 -0.182167 0 0 0 0)
(6.94319e-17 0.0119492 0 0.0119492 -0.180486 0 0 0 0)
(0 0.0117139 0 0.0117139 -0.178782 0 0 0 0)
(0 0.0114804 0 0.0114804 -0.177084 0 0 0 0)
(0 0.0112485 0 0.0112485 -0.175375 0 0 0 0)
(0 0.0110196 0 0.0110196 -0.173681 0 0 0 0)
(0 0.0107905 0 0.0107905 -0.171957 0 0 0 0)
(0 0.0105653 0 0.0105653 -0.17026 0 0 0 0)
(0 0.0103402 0 0.0103402 -0.168537 0 0 0 0)
(0 0.0101182 0 0.0101182 -0.166823 0 0 0 0)
(0 0.00989901 0 0.00989901 -0.16512 0 0 0 0)
(0 0.00967898 0 0.00967898 -0.163384 0 0 0 0)
(0 0.00946246 0 0.00946246 -0.161673 0 0 0 0)
(0 0.00924635 0 0.00924635 -0.159939 0 0 0 0)
(0 0.00903259 0 0.00903259 -0.158215 0 0 0 0)
(0 0.00882069 0 0.00882069 -0.156484 0 0 0 0)
(0 0.00861094 0 0.00861094 -0.154757 0 0 0 0)
(0 0.00840224 0 0.00840224 -0.153021 0 0 0 0)
(0 0.00819524 0 0.00819524 -0.151283 0 0 0 0)
(0 0.00799104 0 0.00799104 -0.149547 0 0 0 0)
(0 0.00778935 0 0.00778935 -0.147819 0 0 0 0)
(0 0.00758727 0 0.00758727 -0.146069 0 0 0 0)
(0 0.00738689 0 0.00738689 -0.144316 0 0 0 0)
(0 0.00719014 0 0.00719014 -0.142584 0 0 0 0)
(0 0.00699344 0 0.00699344 -0.140828 0 0 0 0)
(0 0.00679821 0 0.00679821 -0.139079 0 0 0 0)
(0 0.00660406 0 0.00660406 -0.137318 0 0 0 0)
(0 0.00641256 0 0.00641256 -0.135568 0 0 0 0)
(0 0.00622265 0 0.00622265 -0.133813 0 0 0 0)
(0 0.00603396 0 0.00603396 -0.132054 0 0 0 0)
(0 0.0058469 0 0.0058469 -0.130292 0 0 0 0)
(0 0.00566185 0 0.00566185 -0.128534 0 0 0 0)
(0 0.00547801 0 0.00547801 -0.126769 0 0 0 0)
(0 0.00529541 0 0.00529541 -0.125001 0 0 0 0)
(0 0.0051142 0 0.0051142 -0.123231 0 0 0 0)
(0 0.00493423 0 0.00493423 -0.121459 0 0 0 0)
(0 0.00475559 0 0.00475559 -0.119685 0 0 0 0)
(0 0.00457824 0 0.00457824 -0.117908 0 0 0 0)
(0 0.00440249 0 0.00440249 -0.116131 0 0 0 0)
(0 0.00422837 0 0.00422837 -0.114354 0 0 0 0)
(0 0.00405584 0 0.00405584 -0.112574 0 0 0 0)
(0 0.00388503 0 0.00388503 -0.110792 0 0 0 0)
(0 0.00371598 0 0.00371598 -0.109009 0 0 0 0)
(0 0.0035486 0 0.0035486 -0.107223 0 0 0 0)
(0 0.00338292 0 0.00338292 -0.105435 0 0 0 0)
(0 0.00321899 0 0.00321899 -0.103644 0 0 0 0)
(0 0.0030568 0 0.0030568 -0.101851 0 0 0 0)
(0 0.00289639 0 0.00289639 -0.100056 0 0 0 0)
(0 0.00273782 0 0.00273782 -0.0982594 0 0 0 0)
(0 0.00258115 0 0.00258115 -0.0964615 0 0 0 0)
(0 0.00242642 0 0.00242642 -0.0946621 0 0 0 0)
(0 0.00227369 0 0.00227369 -0.0928612 0 0 0 0)
(0 0.00212302 0 0.00212302 -0.0910587 0 0 0 0)
(0 0.00197445 0 0.00197445 -0.0892546 0 0 0 0)
(0 0.00182803 0 0.00182803 -0.0874489 0 0 0 0)
(0 0.00168379 0 0.00168379 -0.0856418 0 0 0 0)
(0 0.00154174 0 0.00154174 -0.0838333 0 0 0 0)
(0 0.00140189 0 0.00140189 -0.0820235 0 0 0 0)
(0 0.00126419 0 0.00126419 -0.0802126 0 0 0 0)
(0 0.00112857 0 0.00112857 -0.0784008 0 0 0 0)
(0 0.000994904 0 0.000994904 -0.0765881 0 0 0 0)
(0 0.000863024 0 0.000863024 -0.0747748 0 0 0 0)
(0 0.000732677 0 0.000732677 -0.0729611 0 0 0 0)
(0 0.000603536 0 0.000603536 -0.0711473 0 0 0 0)
(0 0.000475187 0 0.000475187 -0.0693337 0 0 0 0)
(0 0.000347123 0 0.000347123 -0.0675208 0 0 0 0)
(0 0.000218744 0 0.000218744 -0.0657088 0 0 0 0)
(0 8.93649e-05 0 8.93649e-05 -0.0638984 0 0 0 0)
(0 -4.17677e-05 0 -4.17677e-05 -0.0620898 0 0 0 0)
(0 -0.000175446 0 -0.000175446 -0.0602836 0 0 0 0)
(0 -0.000312462 0 -0.000312462 -0.0584801 0 0 0 0)
(0 -0.000453549 0 -0.000453549 -0.0566797 0 0 0 0)
(0 -0.000599328 0 -0.000599328 -0.0548828 0 0 0 0)
(0 -0.000750251 0 -0.000750251 -0.0530897 0 0 0 0)
(0 -0.000906553 0 -0.000906553 -0.0513007 0 0 0 0)
(0 -0.00106822 0 -0.00106822 -0.0495159 0 0 0 0)
(0 -0.00123498 0 -0.00123498 -0.0477351 0 0 0 0)
(0 -0.00140625 0 -0.00140625 -0.0459574 0 0 0 0)
(0 -0.0015811 0 -0.0015811 -0.0441812 0 0 0 0)
(0 -0.0017583 0 -0.0017583 -0.042405 0 0 0 0)
(0 -0.00193648 0 -0.00193648 -0.0406282 0 0 0 0)
(0 -0.00211452 0 -0.00211452 -0.0388528 0 0 0 0)
(0 -0.00229157 0 -0.00229157 -0.0370812 0 0 0 0)
(0 -0.00246627 0 -0.00246627 -0.0353112 0 0 0 0)
(0 -0.00263607 0 -0.00263607 -0.0335319 0 0 0 0)
(0 -0.00279947 0 -0.00279947 -0.0317356 0 0 0 0)
(0 -0.00296065 0 -0.00296065 -0.0299332 0 0 0 0)
(0 -0.00312719 0 -0.00312719 -0.0281399 0 0 0 0)
(0 -0.00329577 0 -0.00329577 -0.0263378 0 0 0 0)
(0 -0.00343853 0 -0.00343853 -0.0244669 0 0 0 0)
(0 -0.00352758 0 -0.00352758 -0.0224879 0 0 0 0)
(0 -0.00359681 0 -0.00359681 -0.0205092 0 0 0 0)
(0 -0.0036889 0 -0.0036889 -0.018723 0 0 0 0)
(0 -0.00366089 0 -0.00366089 -0.0168141 0 0 0 0)
(0 -0.00335904 0 -0.00335904 -0.0147704 0 0 0 0)
(0 -0.00235625 0 -0.00235625 -0.0129791 0 0 0 0)
(0 0.00222949 0 0.00222949 -0.00934705 0 0 0 0)
(0 0.00283568 0 0.00283568 -0.00265923 0 0 0 0)
(0 0.00311675 0 0.00311675 -0.000697282 0 0 0 0)
(0 0.00191409 0 0.00191409 1.08076e-05 0 0 0 0)
(0 0.00180736 0 0.00180736 5.70872e-05 0 0 0 0)
(0 0.00251753 0 0.00251753 8.66973e-05 0 0 0 0)
(0 0.00285835 0 0.00285835 7.41154e-05 0 0 0 0)
(0 0.00299484 0 0.00299484 6.10317e-05 0 0 0 0)
(0 0.00337917 0 0.00337917 4.58597e-05 0 0 0 0)
(0 0.00393429 0 0.00393429 -2.13968e-05 0 0 0 0)
(0 0.00457548 0 0.00457548 -0.00023735 0 0 0 0)
(0 0.0051936 0 0.0051936 -0.00070474 0 0 0 0)
(0 0.00561838 0 0.00561838 -0.00138664 0 0 0 0)
(0 0.00568488 0 0.00568488 -0.00206888 0 0 0 0)
(0 0.00536959 0 0.00536959 -0.00258403 0 0 0 0)
(0 0.00474307 0 0.00474307 -0.00292424 0 0 0 0)
(0 0.00387345 0 0.00387345 -0.00313616 0 0 0 0)
(0 0.00280768 0 0.00280768 -0.00325395 0 0 0 0)
(0 0.00157716 0 0.00157716 -0.00329884 0 0 0 0)
(0 0.000202711 0 0.000202711 -0.00328492 0 0 0 0)
(0 -0.00130157 0 -0.00130157 -0.0032219 0 0 0 0)
(0 -0.00292585 0 -0.00292585 -0.00311706 0 0 0 0)
(0 -0.00466293 0 -0.00466293 -0.00297627 0 0 0 0)
(0 -0.00650732 0 -0.00650732 -0.00280457 0 0 0 0)
(0 -0.00845454 0 -0.00845454 -0.00260653 0 0 0 0)
(0 -0.0105007 0 -0.0105007 -0.00238636 0 0 0 0)
(0 -0.0126424 0 -0.0126424 -0.00214799 0 0 0 0)
(0 -0.0148761 0 -0.0148761 -0.00189506 0 0 0 0)
(0 -0.0171984 0 -0.0171984 -0.00163091 0 0 0 0)
(0 -0.0196057 0 -0.0196057 -0.00135853 0 0 0 0)
(0 -0.0220938 0 -0.0220938 -0.00108055 0 0 0 0)
(0 -0.0246585 0 -0.0246585 -0.000799184 0 0 0 0)
(0 -0.0272945 0 -0.0272945 -0.000516222 0 0 0 0)
(0 -0.0299963 0 -0.0299963 -0.000233022 0 0 0 0)
(0 -0.0327573 0 -0.0327573 4.9492e-05 0 0 0 0)
(0 -0.0355702 0 -0.0355702 0.000330815 0 0 0 0)
(0 -0.0384269 0 -0.0384269 0.000610827 0 0 0 0)
(0 -0.041318 0 -0.041318 0.00088975 0 0 0 0)
(0 -0.0442335 0 -0.0442335 0.00116809 0 0 0 0)
(0 -0.0471623 0 -0.0471623 0.00144654 0 0 0 0)
(0 -0.0500922 0 -0.0500922 0.00172596 0 0 0 0)
(0 -0.0530103 0 -0.0530103 0.00200724 0 0 0 0)
(0 -0.0559028 0 -0.0559028 0.00229131 0 0 0 0)
(0 -0.0587546 0 -0.0587546 0.0025791 0 0 0 0)
(0 -0.0615501 0 -0.0615501 0.00287152 0 0 0 0)
(0 -0.0642725 0 -0.0642725 0.00316946 0 0 0 0)
(0 -0.0669039 0 -0.0669039 0.00347364 0 0 0 0)
(0 -0.0694259 0 -0.0694259 0.0037845 0 0 0 0)
(0 -0.0718196 0 -0.0718196 0.00410186 0 0 0 0)
(0 -0.0740657 0 -0.0740657 0.00442479 0 0 0 0)
(0 -0.0761447 0 -0.0761447 0.00475138 0 0 0 0)
(0 -0.0780374 0 -0.0780374 0.00507853 0 0 0 0)
(0 -0.0797245 0 -0.0797245 0.00540173 0 0 0 0)
(0 -0.081187 0 -0.081187 0.00571501 0 0 0 0)
(0 -0.0824048 0 -0.0824048 0.00601164 0 0 0 0)
(0 -0.0833722 0 -0.0833722 0.00628492 0 0 0 0)
(0 -0.0841965 0 -0.0841965 0.00652872 0 0 0 0)
(-3.26749e-15 -0.0850007 0 -0.0850007 0.0067351 0 0 0 0)
(0 -0.0858113 0 -0.0858113 0.00689414 0 0 0 0)
(0 -0.0866336 0 -0.0866336 0.00699584 0 0 0 0)
(1.84493e-15 -0.0874716 0 -0.0874716 0.00703181 0 0 0 0)
(0 -0.0883214 0 -0.0883214 0.0069966 0 0 0 0)
(-4.02364e-15 -0.089176 0 -0.089176 0.00688849 0 0 0 0)
(0 -0.0900219 0 -0.0900219 0.00670925 0 0 0 0)
(0 -0.0908441 0 -0.0908441 0.00646502 0 0 0 0)
(0 -0.0916198 0 -0.0916198 0.00616707 0 0 0 0)
(0 -0.092323 0 -0.092323 0.00583494 0 0 0 0)
(0 -0.0929089 0 -0.0929089 0.00550186 0 0 0 0)
(5.19488e-15 -0.0933226 0 -0.0933226 0.00521276 0 0 0 0)
(0 -0.0935342 0 -0.0935342 0.00501486 0 0 0 0)
(0 -0.0935217 0 -0.0935217 0.0049645 0 0 0 0)
(0 -0.0932301 0 -0.0932301 0.00513524 0 0 0 0)
(0 -0.0926256 0 -0.0926256 0.00558076 0 0 0 0)
(0 -0.0917248 0 -0.0917248 0.00627098 0 0 0 0)
(-6.01803e-15 -0.0905421 0 -0.0905421 0.00708521 0 0 0 0)
(0 -0.0890637 0 -0.0890637 0.00790018 0 0 0 0)
(-6.06529e-15 -0.0872476 0 -0.0872476 0.00865856 0 0 0 0)
(0 -0.0851075 0 -0.0851075 0.00933432 0 0 0 0)
(-5.97771e-15 -0.0826722 0 -0.0826722 0.00991327 0 0 0 0)
(0 -0.0798906 0 -0.0798906 0.0104103 0 0 0 0)
(0 -0.0767373 0 -0.0767373 0.0108363 0 0 0 0)
(0 -0.0732169 0 -0.0732169 0.0111807 0 0 0 0)
(0 -0.0692955 0 -0.0692955 0.0114427 0 0 0 0)
(5.21553e-15 -0.0649266 0 -0.0649266 0.0116179 0 0 0 0)
(4.97882e-15 -0.0600383 0 -0.0600383 0.0117134 0 0 0 0)
(0 -0.0545652 0 -0.0545652 0.0116893 0 0 0 0)
(0 -0.0482988 0 -0.0482988 0.0116223 0 0 0 0)
(0 -0.0408078 0 -0.0408078 0.0117345 0 0 0 0)
(0 -0.0318621 0 -0.0318621 0.0124095 0 0 0 0)
(0 -0.0223623 0 -0.0223623 0.0115276 0 0 0 0)
(0 -0.0166248 0 -0.0166248 0.00784268 0 0 0 0)
(0 -0 0 -0 0 0 0 0 0)
(0 -0 0 -0 -0 0 0 0 0)
(0 -0 0 -0 0 0 0 0 0)
(0 -0 0 -0 -0 0 0 0 0)
(0 -0 0 -0 0 0 0 0 0)
(0 -0 0 -0 -0 0 0 0 0)
(0 -0 0 -0 -0 0 0 0 0)
(-0 -0 0 -0 -0 0 0 0 0)
(0 -0 0 -0 -0 0 0 0 0)
(0 -0 0 -0 0 0 0 0 0)
(0 -0 0 -0 0 0 0 0 0)
(-0 -0 0 -0 0 0 0 0 0)
(0 -0 0 -0 0 0 0 0 0)
(0 -0 0 -0 0 0 0 0 0)
(-0 -0 0 -0 0 0 0 0 0)
(0 -0 0 -0 0 0 0 0 0)
(0 -0 0 -0 0 0 0 0 0)
(0 0 0 0 0 0 0 0 0)
(0 0 0 0 0 0 0 0 0)
(0 0 0 0 0 0 0 0 0)
(0 0 0 0 0 0 0 0 0)
(0 0 0 0 0 0 0 0 0)
(0 0 0 0 0 0 0 0 0)
(0 0 0 0 0 0 0 0 0)
(0 0 0 0 0 0 0 0 0)
(0 0 0 0 0 0 0 0 0)
(0 0 0 0 0 0 0 0 0)
(0 0 0 0 0 0 0 0 0)
(0 0 0 0 0 0 0 0 0)
(0 0 0 0 0 0 0 0 0)
(0 0 0 0 -0 0 0 0 0)
(0 0 0 0 0 0 0 0 0)
(0 0 0 0 -0 0 0 0 0)
(0 0 0 0 0 0 0 0 0)
(0 0 0 0 -0 0 0 0 0)
(0 0 0 0 0 0 0 0 0)
(0 0 0 0 -0 0 0 0 0)
(0 0 0 0 0 0 0 0 0)
(0 0 0 0 0 0 0 0 0)
(0 0 0 0 0 0 0 0 0)
(0 0 0 0 -0 0 0 0 0)
(0 0 0 0 0 0 0 0 0)
(0 0 0 0 -0 0 0 0 0)
(0 0 0 0 0 0 0 0 0)
(0 0 0 0 -0 0 0 0 0)
(0 0 0 0 0 0 0 0 0)
(0 0 0 0 -0 0 0 0 0)
(0 0 0 0 0 0 0 0 0)
(0 0 0 0 -0 0 0 0 0)
(0 0 0 0 0 0 0 0 0)
(0 0 0 0 -0 0 0 0 0)
(0 0 0 0 0 0 0 0 0)
(0 0 0 0 -0 0 0 0 0)
(0 0 0 0 0 0 0 0 0)
(0 -0 0 -0 -0 0 0 0 0)
(0 0 0 0 0 0 0 0 0)
(0 -0 0 -0 -0 0 0 0 0)
(0 0 0 0 0 0 0 0 0)
(0 -0 0 -0 -0 0 0 0 0)
(0 0 0 0 0 0 0 0 0)
(0 -0 0 -0 -0 0 0 0 0)
(0 0 0 0 0 0 0 0 0)
(0 -0 0 -0 -0 0 0 0 0)
(-0 0 0 0 0 0 0 0 0)
(0 -0 0 -0 -0 0 0 0 0)
(0 0 0 0 0 0 0 0 0)
(0 -0 0 -0 -0 0 0 0 0)
(0 0 0 0 0 0 0 0 0)
(0 -0 0 -0 -0 0 0 0 0)
(0 0 0 0 0 0 0 0 0)
(0 -0 0 -0 -0 0 0 0 0)
(0 0 0 0 0 0 0 0 0)
(0 -0 0 -0 -0 0 0 0 0)
(0 0 0 0 0 0 0 0 0)
(0 -0 0 -0 -0 0 0 0 0)
(0 0 0 0 0 0 0 0 0)
(0 -0 0 -0 -0 0 0 0 0)
(0 0 0 0 0 0 0 0 0)
(0 -0 0 -0 -0 0 0 0 0)
(0 0 0 0 0 0 0 0 0)
(0 -0 0 -0 -0 0 0 0 0)
(0 0 0 0 0 0 0 0 0)
(0 -0 0 -0 -0 0 0 0 0)
(0 0 0 0 0 0 0 0 0)
(0 -0 0 -0 -0 0 0 0 0)
(0 0 0 0 0 0 0 0 0)
(0 -0 0 -0 -0 0 0 0 0)
(0 0 0 0 0 0 0 0 0)
(0 -0 0 -0 -0 0 0 0 0)
(0 0 0 0 0 0 0 0 0)
(0 -0 0 -0 -0 0 0 0 0)
(0 0 0 0 0 0 0 0 0)
(0 -0 0 -0 -0 0 0 0 0)
(0 0 0 0 0 0 0 0 0)
(0 -0 0 -0 -0 0 0 0 0)
(0 0 0 0 0 0 0 0 0)
(0 -0 0 -0 -0 0 0 0 0)
(0 0 0 0 0 0 0 0 0)
(0 -0 0 -0 -0 0 0 0 0)
(0 0 0 0 0 0 0 0 0)
(0 -0 0 -0 -0 0 0 0 0)
(0 0 0 0 0 0 0 0 0)
(0 -0 0 -0 -0 0 0 0 0)
(0 0 0 0 0 0 0 0 0)
(0 -0 0 -0 -0 0 0 0 0)
(0 0 0 0 0 0 0 0 0)
(0 -0 0 -0 -0 0 0 0 0)
(0 0 0 0 0 0 0 0 0)
(0 -0 0 -0 -0 0 0 0 0)
(0 0 0 0 0 0 0 0 0)
(0 -0 0 -0 -0 0 0 0 0)
(0 0 0 0 0 0 0 0 0)
(0 -0 0 -0 -0 0 0 0 0)
(0 0 0 0 0 0 0 0 0)
(0 -0 0 -0 -0 0 0 0 0)
(0 0 0 0 0 0 0 0 0)
(0 -0 0 -0 -0 0 0 0 0)
(0 -0 0 -0 0 0 0 0 0)
(0 -0 0 -0 0 0 0 0 0)
(0 -0 0 -0 0 0 0 0 0)
(0 -0 0 -0 0 0 0 0 0)
(0 -0 0 -0 0 0 0 0 0)
(0 -0 0 -0 0 0 0 0 0)
(0 -0 0 -0 0 0 0 0 0)
)
;

boundaryField
{
    inandouthalf11
    {
        type            cyclic;
    }
    inandouthalf12
    {
        type            cyclic;
    }
    inandouthalf21
    {
        type            cyclic;
    }
    inandouthalf22
    {
        type            cyclic;
    }
    inandouthalf31
    {
        type            cyclic;
    }
    inandouthalf32
    {
        type            cyclic;
    }
    inandouthalf41
    {
        type            cyclic;
    }
    inandouthalf42
    {
        type            cyclic;
    }
    top
    {
        type            symmetryPlane;
    }
    walls
    {
        type            zeroGradient;
    }
    frontAndBackPlanes
    {
        type            empty;
    }
}


// ************************************************************************* //
