/*--------------------------------*- C++ -*----------------------------------*\
| =========                 |                                                 |
| \\      /  F ield         | OpenFOAM: The Open Source CFD Toolbox           |
|  \\    /   O peration     | Version:  2.4.x                                 |
|   \\  /    A nd           | Web:      www.OpenFOAM.org                      |
|    \\/     M anipulation  |                                                 |
\*---------------------------------------------------------------------------*/
FoamFile
{
    version     2.0;
    format      ascii;
    class       volVectorField;
    location    "7.75";
    object      Ub_0;
}
// * * * * * * * * * * * * * * * * * * * * * * * * * * * * * * * * * * * * * //

dimensions      [0 1 -1 0 0 0 0];

internalField   nonuniform List<vector> 
360
(
(0.000275822 3.66576e-08 0)
(0.000274387 1.31271e-07 0)
(0.000274175 2.4198e-07 0)
(0.000274387 3.44211e-07 0)
(0.000274504 4.44775e-07 0)
(0.000274553 5.47453e-07 0)
(0.000274608 6.51288e-07 0)
(0.000274672 7.55039e-07 0)
(0.000274738 8.58337e-07 0)
(0.000274804 9.6123e-07 0)
(0.000274871 1.06382e-06 0)
(0.000274937 1.1661e-06 0)
(0.000275004 1.26806e-06 0)
(0.000275071 1.36967e-06 0)
(0.000275138 1.47092e-06 0)
(0.000275206 1.57184e-06 0)
(0.000275274 1.67247e-06 0)
(0.000275342 1.77287e-06 0)
(0.000275411 1.87305e-06 0)
(0.000275481 1.97306e-06 0)
(0.00027555 2.07294e-06 0)
(0.00027562 2.1727e-06 0)
(0.000275691 2.27239e-06 0)
(0.000275762 2.37204e-06 0)
(0.000275834 2.47167e-06 0)
(0.000275906 2.57132e-06 0)
(0.000275978 2.67099e-06 0)
(0.000276051 2.77071e-06 0)
(0.000276125 2.87051e-06 0)
(0.000276199 2.97039e-06 0)
(0.000276273 3.07036e-06 0)
(0.000276349 3.17044e-06 0)
(0.000276424 3.27062e-06 0)
(0.000276502 3.37094e-06 0)
(0.000276578 3.47138e-06 0)
(0.000276656 3.57194e-06 0)
(0.000276734 3.67263e-06 0)
(0.000276814 3.77344e-06 0)
(0.000276894 3.87441e-06 0)
(0.000276973 3.97548e-06 0)
(0.000277055 4.07669e-06 0)
(0.000277137 4.17803e-06 0)
(0.000277219 4.27946e-06 0)
(0.000277303 4.38102e-06 0)
(0.000277386 4.48268e-06 0)
(0.000277471 4.58444e-06 0)
(0.000277557 4.6863e-06 0)
(0.000277643 4.7882e-06 0)
(0.00027773 4.89014e-06 0)
(0.000277819 4.99216e-06 0)
(0.000277907 5.0942e-06 0)
(0.000277997 5.19627e-06 0)
(0.000278088 5.29833e-06 0)
(0.00027818 5.40038e-06 0)
(0.000278271 5.50237e-06 0)
(0.000278366 5.60432e-06 0)
(0.000278459 5.70614e-06 0)
(0.000278555 5.80784e-06 0)
(0.000278651 5.90936e-06 0)
(0.000278748 6.01065e-06 0)
(0.000278847 6.11174e-06 0)
(0.000278946 6.21256e-06 0)
(0.000279047 6.31315e-06 0)
(0.000279148 6.41346e-06 0)
(0.000279251 6.51346e-06 0)
(0.000279355 6.6131e-06 0)
(0.00027946 6.71234e-06 0)
(0.000279566 6.81116e-06 0)
(0.000279674 6.90949e-06 0)
(0.000279782 7.00729e-06 0)
(0.000279892 7.10456e-06 0)
(0.000280004 7.20134e-06 0)
(0.000280116 7.29756e-06 0)
(0.000280231 7.39325e-06 0)
(0.000280347 7.48839e-06 0)
(0.000280465 7.58299e-06 0)
(0.000280584 7.67698e-06 0)
(0.000280704 7.77033e-06 0)
(0.000280826 7.86299e-06 0)
(0.00028095 7.95492e-06 0)
(0.000281076 8.04608e-06 0)
(0.000281203 8.13648e-06 0)
(0.000281332 8.22611e-06 0)
(0.000281464 8.31497e-06 0)
(0.000281597 8.40306e-06 0)
(0.000281733 8.49037e-06 0)
(0.000281871 8.57686e-06 0)
(0.00028201 8.66248e-06 0)
(0.000282152 8.74718e-06 0)
(0.000282297 8.83087e-06 0)
(0.000282443 8.91351e-06 0)
(0.000282593 8.99505e-06 0)
(0.000282745 9.07545e-06 0)
(0.0002829 9.15469e-06 0)
(0.000283057 9.23275e-06 0)
(0.000283218 9.30962e-06 0)
(0.000283382 9.38526e-06 0)
(0.000283549 9.45966e-06 0)
(0.000283719 9.53277e-06 0)
(0.000283893 9.60456e-06 0)
(0.00028407 9.67499e-06 0)
(0.000284251 9.74403e-06 0)
(0.000284436 9.81163e-06 0)
(0.000284625 9.87779e-06 0)
(0.000284818 9.94246e-06 0)
(0.000285015 1.00056e-05 0)
(0.000285218 1.00673e-05 0)
(0.000285425 1.01274e-05 0)
(0.000285637 1.01861e-05 0)
(0.000285854 1.02432e-05 0)
(0.000286077 1.02988e-05 0)
(0.000286306 1.0353e-05 0)
(0.000286541 1.04057e-05 0)
(0.000286783 1.04572e-05 0)
(0.000287031 1.05073e-05 0)
(0.000287286 1.05562e-05 0)
(0.000287548 1.06041e-05 0)
(0.000287818 1.06509e-05 0)
(0.000288096 1.06969e-05 0)
(0.000288383 1.0742e-05 0)
(0.000288678 1.07865e-05 0)
(0.000288983 1.08305e-05 0)
(0.000289298 1.08739e-05 0)
(0.000289622 1.09167e-05 0)
(0.000289958 1.0959e-05 0)
(0.000290306 1.10006e-05 0)
(0.000290666 1.10413e-05 0)
(0.00029104 1.1081e-05 0)
(0.000291429 1.11192e-05 0)
(0.000291835 1.11557e-05 0)
(0.000292258 1.119e-05 0)
(0.0002927 1.12217e-05 0)
(0.000293162 1.12503e-05 0)
(0.00029365 1.12758e-05 0)
(0.000294168 1.12983e-05 0)
(0.000294716 1.13178e-05 0)
(0.000295291 1.13347e-05 0)
(0.000295902 1.13492e-05 0)
(0.00029658 1.13618e-05 0)
(0.000297358 1.13731e-05 0)
(0.000298201 1.13825e-05 0)
(0.000299014 1.13838e-05 0)
(0.000299996 1.13762e-05 0)
(0.000301273 1.13582e-05 0)
(0.000302875 1.13142e-05 0)
(0.000305986 1.11924e-05 0)
(0.000312331 1.26625e-05 0)
(0.000316277 9.52728e-06 0)
(0.000418041 3.29494e-05 0)
(0.0411888 -8.12744e-05 0)
(0.181469 -0.000956383 0)
(0.284346 -0.000355355 0)
(0.355342 -0.000370236 0)
(0.406765 -0.000184428 0)
(0.443556 -0.000108042 0)
(0.468717 -5.58284e-05 0)
(0.48504 -2.7107e-05 0)
(0.495275 -1.2732e-05 0)
(0.501635 -5.74958e-06 0)
(0.505596 -2.2643e-06 0)
(0.508049 -4.12447e-07 0)
(0.509515 6.23142e-07 0)
(0.510303 1.20879e-06 0)
(0.510603 1.52947e-06 0)
(0.510536 1.69118e-06 0)
(0.510183 1.75498e-06 0)
(0.509599 1.75744e-06 0)
(0.508823 1.72135e-06 0)
(0.507885 1.66131e-06 0)
(0.506807 1.58689e-06 0)
(0.505606 1.50448e-06 0)
(0.504297 1.41836e-06 0)
(0.502892 1.33142e-06 0)
(0.501399 1.2456e-06 0)
(0.499829 1.16221e-06 0)
(0.498187 1.08207e-06 0)
(0.49648 1.00571e-06 0)
(0.494715 9.33424e-07 0)
(0.492896 8.65326e-07 0)
(0.491028 8.01433e-07 0)
(0.489116 7.41674e-07 0)
(0.487163 6.85925e-07 0)
(0.485173 6.34019e-07 0)
(0.48315 5.85768e-07 0)
(0.481096 5.4097e-07 0)
(0.479015 4.99416e-07 0)
(0.47691 4.60895e-07 0)
(0.474782 4.25202e-07 0)
(0.472634 3.92138e-07 0)
(0.47047 3.61515e-07 0)
(0.468289 3.33151e-07 0)
(0.466096 3.0688e-07 0)
(0.463891 2.82543e-07 0)
(0.461677 2.5999e-07 0)
(0.459455 2.39084e-07 0)
(0.457226 2.19695e-07 0)
(0.454993 2.01704e-07 0)
(0.452756 1.85e-07 0)
(0.450517 1.69483e-07 0)
(0.448277 1.55064e-07 0)
(0.446038 1.41666e-07 0)
(0.443777 1.29096e-07 0)
(0.441472 1.17216e-07 0)
(0.439124 1.06016e-07 0)
(0.436732 9.5492e-08 0)
(0.434295 8.56402e-08 0)
(0.431815 7.64601e-08 0)
(0.429291 6.79504e-08 0)
(0.426723 6.01061e-08 0)
(0.424112 5.29169e-08 0)
(0.421458 4.63675e-08 0)
(0.418761 4.0439e-08 0)
(0.416022 3.51102e-08 0)
(0.413242 3.03532e-08 0)
(0.410422 2.61295e-08 0)
(0.407562 2.23971e-08 0)
(0.404664 1.91175e-08 0)
(0.401728 1.62497e-08 0)
(0.398757 1.37486e-08 0)
(0.395751 1.15738e-08 0)
(0.392713 9.69425e-09 0)
(0.389644 8.08172e-09 0)
(0.386547 6.70499e-09 0)
(0.383423 5.53381e-09 0)
(0.380276 4.54384e-09 0)
(0.377108 3.71204e-09 0)
(0.373923 3.01544e-09 0)
(0.370723 2.4344e-09 0)
(0.367513 1.95219e-09 0)
(0.364297 1.55399e-09 0)
(0.36108 1.22645e-09 0)
(0.357867 9.60518e-10 0)
(0.354663 7.50565e-10 0)
(0.351475 5.85891e-10 0)
(0.348311 4.38251e-10 0)
(0.345177 2.96647e-10 0)
(0.342083 1.87585e-10 0)
(0.339038 1.16009e-10 0)
(0.336053 6.41888e-11 0)
(0.33314 3.02104e-11 0)
(0.330313 1.11091e-11 0)
(0.327584 1.36907e-12 0)
(0.324972 1.40019e-11 0)
(0.322494 1.59009e-11 0)
(0.320168 7.11056e-14 0)
(0.318016 2.57762e-13 0)
(0.316059 1.42813e-12 0)
(0.31432 1.61263e-12 0)
(0.312819 1.48777e-12 0)
(0.311577 1.40445e-12 0)
(0.310609 1.40802e-12 0)
(0.309925 1.44092e-12 0)
(0.309528 9.64249e-13 0)
(0.309411 -2.78854e-12 0)
(0.309558 1.88697e-11 0)
(0.309944 -4.32236e-11 0)
(0.310536 8.73113e-11 0)
(0.311296 -1.43886e-10 0)
(0.312174 2.21306e-10 0)
(0.313112 -3.11116e-10 0)
(0.314033 4.18516e-10 0)
(0.314825 -5.33915e-10 0)
(0.315183 6.60009e-10 0)
(0.315223 -7.88349e-10 0)
(0.315224 9.22729e-10 0)
(0.315224 -1.05806e-09 0)
(0.315224 1.19889e-09 0)
(0.315224 -1.3411e-09 0)
(0.315224 1.48886e-09 0)
(0.315224 -1.63842e-09 0)
(0.315224 1.79361e-09 0)
(0.315224 -1.95097e-09 0)
(0.315224 2.11404e-09 0)
(0.315224 -2.2796e-09 0)
(0.315224 2.45098e-09 0)
(0.315224 -2.62513e-09 0)
(0.315224 2.80516e-09 0)
(0.315224 -2.98824e-09 0)
(0.315224 3.17724e-09 0)
(0.315224 -3.36956e-09 0)
(0.315224 3.5678e-09 0)
(0.315224 -3.76963e-09 0)
(0.315224 3.97741e-09 0)
(0.315224 -4.18898e-09 0)
(0.315224 4.40651e-09 0)
(0.315224 -4.62806e-09 0)
(0.315224 4.85555e-09 0)
(0.315224 -5.08728e-09 0)
(0.315224 5.32488e-09 0)
(0.315224 -5.56696e-09 0)
(0.315224 5.81485e-09 0)
(0.315224 -6.06744e-09 0)
(0.315224 6.32575e-09 0)
(0.315224 -6.58897e-09 0)
(0.315224 6.85781e-09 0)
(0.315224 -7.13179e-09 0)
(0.315224 7.41123e-09 0)
(0.315224 -7.69597e-09 0)
(0.315224 7.98621e-09 0)
(0.315224 -8.28176e-09 0)
(0.315224 8.58278e-09 0)
(0.315224 -8.88915e-09 0)
(0.315224 9.20097e-09 0)
(0.315224 -9.51813e-09 0)
(0.315224 9.84071e-09 0)
(0.315224 -1.01686e-08 0)
(0.315224 1.05018e-08 0)
(0.315224 -1.08402e-08 0)
(0.315224 1.1184e-08 0)
(0.315224 -1.15328e-08 0)
(0.315224 1.04357e-08 0)
(0.315224 -1.05532e-08 0)
(0.315224 1.06695e-08 0)
(0.315224 -1.07844e-08 0)
(0.315224 1.08983e-08 0)
(0.315224 -1.10107e-08 0)
(0.315224 1.1122e-08 0)
(0.315224 -1.12319e-08 0)
(0.315224 1.13406e-08 0)
(0.315224 -1.14478e-08 0)
(0.315224 1.15538e-08 0)
(0.315224 -1.16584e-08 0)
(0.315224 1.17617e-08 0)
(0.315224 -1.18634e-08 0)
(0.315224 1.1964e-08 0)
(0.315224 -1.20629e-08 0)
(0.315224 1.21606e-08 0)
(0.315224 -1.22566e-08 0)
(0.315224 1.23513e-08 0)
(0.315224 -1.2444e-08 0)
(0.315224 1.25362e-08 0)
(0.315224 -1.26253e-08 0)
(0.315224 1.27148e-08 0)
(0.315224 -1.28003e-08 0)
(0.315224 1.2887e-08 0)
(0.315224 -1.29686e-08 0)
(0.315224 1.30526e-08 0)
(0.315224 -1.31302e-08 0)
(0.315224 1.32111e-08 0)
(0.315224 -1.32845e-08 0)
(0.315224 1.33624e-08 0)
(0.315224 -1.34313e-08 0)
(0.315224 1.35061e-08 0)
(0.315224 -1.35702e-08 0)
(0.315224 1.36417e-08 0)
(0.315224 -1.37004e-08 0)
(0.315224 1.3769e-08 0)
(0.315224 -1.38217e-08 0)
(0.315224 1.3887e-08 0)
(0.315224 -1.39333e-08 0)
(0.315224 1.39949e-08 0)
(0.315224 -1.40345e-08 0)
(0.315224 1.40915e-08 0)
(0.315224 -1.41227e-08 0)
(0.315224 1.41761e-08 0)
(0.315224 -1.41978e-08 0)
(0.315224 1.42443e-08 0)
(0.315224 -1.42554e-08 0)
(0.315224 1.42922e-08 0)
(0.315224 -1.4292e-08 0)
)
;

boundaryField
{
    inandouthalf11
    {
        type            cyclic;
    }
    inandouthalf12
    {
        type            cyclic;
    }
    inandouthalf21
    {
        type            cyclic;
    }
    inandouthalf22
    {
        type            cyclic;
    }
    inandouthalf31
    {
        type            cyclic;
    }
    inandouthalf32
    {
        type            cyclic;
    }
    inandouthalf41
    {
        type            cyclic;
    }
    inandouthalf42
    {
        type            cyclic;
    }
    top
    {
        type            symmetryPlane;
    }
    walls
    {
        type            fixedValue;
        value           uniform (0 0 0);
    }
    frontAndBackPlanes
    {
        type            empty;
    }
}


// ************************************************************************* //
