/*--------------------------------*- C++ -*----------------------------------*\
| =========                 |                                                 |
| \\      /  F ield         | OpenFOAM: The Open Source CFD Toolbox           |
|  \\    /   O peration     | Version:  2.4.x                                 |
|   \\  /    A nd           | Web:      www.OpenFOAM.org                      |
|    \\/     M anipulation  |                                                 |
\*---------------------------------------------------------------------------*/
FoamFile
{
    version     2.0;
    format      ascii;
    class       volVectorField;
    location    "7.75";
    object      Ur;
}
// * * * * * * * * * * * * * * * * * * * * * * * * * * * * * * * * * * * * * //

dimensions      [0 1 -1 0 0 0 0];

internalField   nonuniform List<vector> 
360
(
(0.000275829 3.66547e-08 0)
(0.000274381 2.19183e-07 0)
(0.000274155 3.99865e-07 0)
(0.000274353 5.62644e-07 0)
(0.000274458 7.2636e-07 0)
(0.000274494 8.94875e-07 0)
(0.000274535 1.06496e-06 0)
(0.000274587 1.23464e-06 0)
(0.00027464 1.40356e-06 0)
(0.000274693 1.57185e-06 0)
(0.000274748 1.73966e-06 0)
(0.000274802 1.90701e-06 0)
(0.000274856 2.07383e-06 0)
(0.000274911 2.24009e-06 0)
(0.000274967 2.40576e-06 0)
(0.000275023 2.57091e-06 0)
(0.000275079 2.73562e-06 0)
(0.000275136 2.89993e-06 0)
(0.000275193 3.06392e-06 0)
(0.000275252 3.22764e-06 0)
(0.00027531 3.39115e-06 0)
(0.000275369 3.55449e-06 0)
(0.000275429 3.71772e-06 0)
(0.000275489 3.88091e-06 0)
(0.00027555 4.04409e-06 0)
(0.000275611 4.2073e-06 0)
(0.000275673 4.37056e-06 0)
(0.000275736 4.53393e-06 0)
(0.000275799 4.69744e-06 0)
(0.000275863 4.8611e-06 0)
(0.000275927 5.02492e-06 0)
(0.000275992 5.18895e-06 0)
(0.000276058 5.35316e-06 0)
(0.000276125 5.51759e-06 0)
(0.000276192 5.68226e-06 0)
(0.00027626 5.84715e-06 0)
(0.000276328 6.01225e-06 0)
(0.000276397 6.17758e-06 0)
(0.000276468 6.34318e-06 0)
(0.000276538 6.50897e-06 0)
(0.00027661 6.67501e-06 0)
(0.000276683 6.84128e-06 0)
(0.000276755 7.00773e-06 0)
(0.00027683 7.1744e-06 0)
(0.000276904 7.34126e-06 0)
(0.00027698 7.50831e-06 0)
(0.000277057 7.67554e-06 0)
(0.000277134 7.84287e-06 0)
(0.000277212 8.01027e-06 0)
(0.000277292 8.17783e-06 0)
(0.000277371 8.34546e-06 0)
(0.000277453 8.51315e-06 0)
(0.000277535 8.68086e-06 0)
(0.000277618 8.84857e-06 0)
(0.000277702 9.01622e-06 0)
(0.000277788 9.1838e-06 0)
(0.000277873 9.35123e-06 0)
(0.000277961 9.51847e-06 0)
(0.000278049 9.68546e-06 0)
(0.000278138 9.85209e-06 0)
(0.000278229 1.00184e-05 0)
(0.00027832 1.01843e-05 0)
(0.000278413 1.03499e-05 0)
(0.000278507 1.0515e-05 0)
(0.000278603 1.06797e-05 0)
(0.000278699 1.08438e-05 0)
(0.000278798 1.10073e-05 0)
(0.000278897 1.11701e-05 0)
(0.000278998 1.13322e-05 0)
(0.000279099 1.14934e-05 0)
(0.000279203 1.16538e-05 0)
(0.000279309 1.18134e-05 0)
(0.000279414 1.19721e-05 0)
(0.000279523 1.213e-05 0)
(0.000279633 1.2287e-05 0)
(0.000279744 1.24432e-05 0)
(0.000279857 1.25985e-05 0)
(0.000279972 1.27527e-05 0)
(0.000280089 1.29058e-05 0)
(0.000280207 1.30578e-05 0)
(0.000280327 1.32085e-05 0)
(0.00028045 1.3358e-05 0)
(0.000280574 1.35063e-05 0)
(0.0002807 1.36534e-05 0)
(0.000280829 1.37993e-05 0)
(0.00028096 1.3944e-05 0)
(0.000281093 1.40873e-05 0)
(0.000281229 1.42293e-05 0)
(0.000281367 1.43698e-05 0)
(0.000281507 1.45087e-05 0)
(0.00028165 1.46459e-05 0)
(0.000281796 1.47814e-05 0)
(0.000281944 1.49151e-05 0)
(0.000282095 1.50469e-05 0)
(0.00028225 1.51768e-05 0)
(0.000282407 1.53048e-05 0)
(0.000282568 1.54309e-05 0)
(0.000282732 1.5555e-05 0)
(0.0002829 1.5677e-05 0)
(0.000283071 1.5797e-05 0)
(0.000283246 1.59148e-05 0)
(0.000283425 1.60303e-05 0)
(0.000283607 1.61436e-05 0)
(0.000283794 1.62545e-05 0)
(0.000283986 1.63631e-05 0)
(0.000284182 1.64693e-05 0)
(0.000284383 1.65731e-05 0)
(0.000284588 1.66745e-05 0)
(0.000284799 1.67735e-05 0)
(0.000285016 1.68701e-05 0)
(0.000285238 1.69643e-05 0)
(0.000285466 1.70562e-05 0)
(0.0002857 1.71459e-05 0)
(0.000285941 1.72334e-05 0)
(0.000286189 1.7319e-05 0)
(0.000286444 1.74027e-05 0)
(0.000286706 1.74847e-05 0)
(0.000286976 1.75652e-05 0)
(0.000287254 1.76443e-05 0)
(0.000287541 1.77224e-05 0)
(0.000287837 1.77994e-05 0)
(0.000288142 1.78756e-05 0)
(0.000288457 1.79511e-05 0)
(0.000288783 1.80259e-05 0)
(0.00028912 1.80999e-05 0)
(0.000289469 1.8173e-05 0)
(0.000289831 1.82449e-05 0)
(0.000290207 1.83151e-05 0)
(0.000290599 1.83833e-05 0)
(0.000291007 1.84489e-05 0)
(0.000291434 1.8511e-05 0)
(0.000291878 1.85691e-05 0)
(0.000292343 1.86225e-05 0)
(0.000292834 1.8671e-05 0)
(0.000293356 1.87147e-05 0)
(0.000293908 1.8754e-05 0)
(0.000294487 1.87894e-05 0)
(0.000295102 1.88213e-05 0)
(0.000295785 1.8851e-05 0)
(0.000296568 1.88795e-05 0)
(0.000297416 1.89056e-05 0)
(0.000298234 1.89205e-05 0)
(0.00029922 1.89214e-05 0)
(0.000300499 1.89072e-05 0)
(0.000302102 1.88643e-05 0)
(0.000305213 1.87427e-05 0)
(0.000311557 2.02174e-05 0)
(0.000311926 1.87576e-05 0)
(0.000385235 4.41246e-05 0)
(0.00386182 -0.000177593 0)
(0.0218189 -0.00346734 0)
(0.0203635 -0.00435492 0)
(0.0207696 -0.00514932 0)
(0.0235205 -0.00539952 0)
(0.0272573 -0.00544187 0)
(0.0304228 -0.00512092 0)
(0.032135 -0.00441016 0)
(0.0324753 -0.00341261 0)
(0.0319742 -0.00231785 0)
(0.031121 -0.00127442 0)
(0.0302157 -0.000343151 0)
(0.0294048 0.000468021 0)
(0.028746 0.00116826 0)
(0.028252 0.00177025 0)
(0.0279147 0.00228637 0)
(0.0277172 0.00272766 0)
(0.0276403 0.00310368 0)
(0.0276643 0.00342268 0)
(0.0277714 0.00369177 0)
(0.0279452 0.00391714 0)
(0.0281713 0.00410422 0)
(0.0284369 0.00425779 0)
(0.028731 0.00438204 0)
(0.0290436 0.00448073 0)
(0.0293663 0.00455717 0)
(0.0296916 0.00461428 0)
(0.0300128 0.00465466 0)
(0.030324 0.00468061 0)
(0.0306199 0.00469414 0)
(0.0308959 0.00469701 0)
(0.0311478 0.00469076 0)
(0.0313717 0.00467672 0)
(0.0315641 0.00465602 0)
(0.031722 0.00462965 0)
(0.0318424 0.00459844 0)
(0.0319226 0.0045631 0)
(0.0319601 0.00452423 0)
(0.0319527 0.00448233 0)
(0.0318983 0.00443784 0)
(0.0317947 0.00439111 0)
(0.0316401 0.00434247 0)
(0.0314327 0.00429218 0)
(0.0311709 0.00424046 0)
(0.0308529 0.00418752 0)
(0.0304773 0.00413355 0)
(0.0300427 0.00407876 0)
(0.0295476 0.00402334 0)
(0.0289907 0.00396753 0)
(0.0283707 0.00391158 0)
(0.0276866 0.0038558 0)
(0.026937 0.0038005 0)
(0.0261131 0.00374548 0)
(0.025206 0.0036906 0)
(0.0242149 0.00363634 0)
(0.0231392 0.00358319 0)
(0.0219785 0.00353168 0)
(0.0207328 0.00348231 0)
(0.0194024 0.00343552 0)
(0.0179878 0.00339169 0)
(0.01649 0.00335108 0)
(0.0149105 0.00331386 0)
(0.013251 0.00328004 0)
(0.0115138 0.00324947 0)
(0.00970114 0.00322178 0)
(0.00781591 0.00319636 0)
(0.00586113 0.00317246 0)
(0.00384005 0.00314907 0)
(0.00175596 0.00312486 0)
(-0.000387644 0.00309847 0)
(-0.00258695 0.00306898 0)
(-0.00483801 0.0030361 0)
(-0.00713712 0.00299991 0)
(-0.00948078 0.00296049 0)
(-0.0118652 0.00291804 0)
(-0.0142869 0.00287267 0)
(-0.0167427 0.00282435 0)
(-0.0192297 0.00277306 0)
(-0.0217451 0.00271876 0)
(-0.0242867 0.00266136 0)
(-0.0268527 0.0026008 0)
(-0.029443 0.00253678 0)
(-0.0320576 0.00246948 0)
(-0.0347025 0.00239745 0)
(-0.0373911 0.00231725 0)
(-0.0401438 0.00221973 0)
(-0.0429604 0.0021292 0)
(-0.0457093 0.00206385 0)
(0.00785029 0.00126884 0)
(0.00779694 0.00239767 0)
(0.00780804 -0.000984425 0)
(0.00771216 0.00335402 0)
(0.00770253 -0.00330598 0)
(0.00774373 0.00393307 0)
(0.00615872 0.0325396 0)
(0.00570322 0.0396403 0)
(0.00585757 0.039554 0)
(0.00576999 0.0395557 0)
(0.00570312 0.039549 0)
(0.00563037 0.0395426 0)
(0.00555603 0.0395358 0)
(0.00548473 0.0395288 0)
(0.00541661 0.039522 0)
(0.0053204 0.0395166 0)
(0.00526556 0.0395111 0)
(0.00521024 0.039506 0)
(0.00516061 0.0395021 0)
(0.00512114 0.039499 0)
(0.00509276 0.0394964 0)
(0.00507673 0.0394941 0)
(0.0050743 0.0394916 0)
(0.00507924 0.0394881 0)
(0.00514729 0.0394805 0)
(0.00522642 0.039473 0)
(0.00523682 0.0394705 0)
(0.00523716 0.0394702 0)
(0.00523716 0.0394702 0)
(0.00523717 0.0394702 0)
(0.00523717 0.0394702 0)
(0.00523717 0.0394702 0)
(0.00523717 0.0394702 0)
(0.00523717 0.0394702 0)
(0.00523717 0.0394702 0)
(0.00523717 0.0394702 0)
(0.00523717 0.0394702 0)
(0.00523717 0.0394702 0)
(0.00523717 0.0394702 0)
(0.00523717 0.0394702 0)
(0.00523717 0.0394702 0)
(0.00523717 0.0394702 0)
(0.00523717 0.0394702 0)
(0.00523717 0.0394702 0)
(0.00523717 0.0394702 0)
(0.00523717 0.0394702 0)
(0.00523717 0.0394702 0)
(0.00523717 0.0394702 0)
(0.00523717 0.0394702 0)
(0.00523717 0.0394702 0)
(0.00523717 0.0394702 0)
(0.00523717 0.0394702 0)
(0.00523717 0.0394702 0)
(0.00523717 0.0394702 0)
(0.00523717 0.0394702 0)
(0.00523717 0.0394702 0)
(0.00523717 0.0394702 0)
(0.00523717 0.0394702 0)
(0.00523717 0.0394702 0)
(0.00523717 0.0394702 0)
(0.00523717 0.0394702 0)
(0.00523717 0.0394702 0)
(0.00523717 0.0394702 0)
(0.00523717 0.0394702 0)
(0.00523717 0.0394702 0)
(0.00523717 0.0394702 0)
(0.00523717 0.0394702 0)
(0.00523717 0.0394702 0)
(0.00523717 0.0394702 0)
(0.00523717 0.0394702 0)
(0.00523717 0.0394702 0)
(0.00523717 0.0394702 0)
(0.00523717 0.0394702 0)
(0.00523717 0.0394702 0)
(0.00523717 0.0394702 0)
(0.00523717 0.0394702 0)
(0.00523717 0.0394702 0)
(0.00523717 0.0394702 0)
(0.00523717 0.0394702 0)
(0.00523717 0.0394702 0)
(0.00523717 0.0394702 0)
(0.00523717 0.0394702 0)
(0.00523717 0.0394702 0)
(0.00523717 0.0394702 0)
(0.00523717 0.0394702 0)
(0.00523717 0.0394702 0)
(0.00523717 0.0394702 0)
(0.00523717 0.0394702 0)
(0.00523717 0.0394702 0)
(0.00523717 0.0394702 0)
(0.00523717 0.0394702 0)
(0.00523717 0.0394702 0)
(0.00523717 0.0394702 0)
(0.00523717 0.0394702 0)
(0.00523717 0.0394702 0)
(0.00523717 0.0394702 0)
(0.00523717 0.0394702 0)
(0.00523717 0.0394702 0)
(0.00523717 0.0394702 0)
(0.00523717 0.0394702 0)
(0.00523717 0.0394702 0)
(0.00523717 0.0394702 0)
(0.00523717 0.0394702 0)
(0.00523717 0.0394702 0)
(0.00523717 0.0394702 0)
(0.00523717 0.0394702 0)
(0.00523717 0.0394702 0)
(0.00523717 0.0394702 0)
(0.00523717 0.0394702 0)
(0.00523717 0.0394702 0)
(0.00523717 0.0394702 0)
(0.00523717 0.0394702 0)
(0.00523717 0.0394702 0)
(0.00523717 0.0394702 0)
(0.00523717 0.0394702 0)
(0.00523717 0.0394702 0)
(0.00523717 0.0394702 0)
(0.00523717 0.0394702 0)
(0.00523717 0.0394702 0)
(0.00523722 0.03947 0)
(0.00523867 0.0394615 0)
(0.00527397 0.0391153 0)
(0.00609147 0.022345 0)
)
;

boundaryField
{
    inandouthalf11
    {
        type            cyclic;
    }
    inandouthalf12
    {
        type            cyclic;
    }
    inandouthalf21
    {
        type            cyclic;
    }
    inandouthalf22
    {
        type            cyclic;
    }
    inandouthalf31
    {
        type            cyclic;
    }
    inandouthalf32
    {
        type            cyclic;
    }
    inandouthalf41
    {
        type            cyclic;
    }
    inandouthalf42
    {
        type            cyclic;
    }
    top
    {
        type            symmetryPlane;
    }
    walls
    {
        type            calculated;
        value           uniform (0 0 0);
    }
    frontAndBackPlanes
    {
        type            empty;
    }
}


// ************************************************************************* //
