/*--------------------------------*- C++ -*----------------------------------*\
| =========                 |                                                 |
| \\      /  F ield         | OpenFOAM: The Open Source CFD Toolbox           |
|  \\    /   O peration     | Version:  2.4.x                                 |
|   \\  /    A nd           | Web:      www.OpenFOAM.org                      |
|    \\/     M anipulation  |                                                 |
\*---------------------------------------------------------------------------*/
FoamFile
{
    version     2.0;
    format      ascii;
    class       volScalarField;
    location    "9.5";
    object      alpha_0;
}
// * * * * * * * * * * * * * * * * * * * * * * * * * * * * * * * * * * * * * //

dimensions      [0 0 0 0 0 0 0];

internalField   nonuniform List<scalar> 
360
(
0.610877
0.611737
0.611828
0.611739
0.611697
0.611684
0.611667
0.611645
0.611623
0.6116
0.611577
0.611554
0.611531
0.611508
0.611484
0.61146
0.611436
0.611412
0.611387
0.611362
0.611337
0.611312
0.611286
0.61126
0.611234
0.611207
0.61118
0.611153
0.611126
0.611098
0.61107
0.611042
0.611013
0.610984
0.610955
0.610925
0.610896
0.610865
0.610835
0.610804
0.610773
0.610741
0.61071
0.610677
0.610645
0.610612
0.610578
0.610545
0.610511
0.610476
0.610442
0.610406
0.610371
0.610334
0.610298
0.610261
0.610224
0.610186
0.610147
0.610109
0.610069
0.61003
0.609989
0.609949
0.609907
0.609865
0.609823
0.60978
0.609736
0.609692
0.609647
0.609602
0.609556
0.609509
0.609462
0.609413
0.609365
0.609315
0.609265
0.609214
0.609162
0.609109
0.609055
0.609001
0.608946
0.608889
0.608832
0.608774
0.608714
0.608654
0.608593
0.60853
0.608467
0.608402
0.608336
0.608268
0.608199
0.608129
0.608058
0.607985
0.60791
0.607834
0.607756
0.607676
0.607595
0.607512
0.607427
0.607339
0.60725
0.607158
0.607065
0.606968
0.60687
0.606769
0.606665
0.606558
0.606448
0.606335
0.606219
0.606099
0.605976
0.605849
0.605718
0.605582
0.605442
0.605297
0.605147
0.604991
0.60483
0.604661
0.604486
0.604303
0.604112
0.603911
0.603697
0.60347
0.603232
0.602979
0.602698
0.602377
0.602029
0.601644
0.596942
0.583451
0.397009
0.315739
0.2794
0.254977
0.234975
0.217125
0.20052
0.184659
0.168866
0.153934
0.139995
0.127072
0.115155
0.104221
0.0942323
0.0851407
0.0768912
0.0694237
0.0626762
0.0565869
0.0510961
0.0461468
0.0416859
0.0376644
0.0340377
0.0307652
0.0278105
0.0251408
0.0227269
0.0205426
0.0185646
0.016772
0.0151464
0.0136711
0.0123314
0.011114
0.0100069
0.00899953
0.00808256
0.00724869
0.00649313
0.00581457
0.00520977
0.00467102
0.00419015
0.00376018
0.00337502
0.00302945
0.00271895
0.00243963
0.00218808
0.00196135
0.00175682
0.00157223
0.00140554
0.00125496
0.00111892
0.00099472
0.000880427
0.000775409
0.000678976
0.000590366
0.000508823
0.000433779
0.000365085
0.0003031
0.000248502
0.00020186
0.000163249
0.000132117
0.000107448
8.8045e-05
7.27682e-05
6.06506e-05
5.09328e-05
4.30394e-05
3.6544e-05
3.11272e-05
2.656e-05
2.26651e-05
1.932e-05
1.64243e-05
1.39141e-05
1.17315e-05
9.84673e-06
8.19846e-06
6.83206e-06
5.5686e-06
4.65853e-06
3.64939e-06
3.15645e-06
2.24583e-06
2.3466e-06
1.85346e-06
1.29526e-06
9.33633e-07
6.59709e-07
4.6322e-07
3.21421e-07
2.20086e-07
1.4773e-07
9.77963e-08
6.09197e-08
3.89787e-08
1.89937e-08
1.17642e-08
8.42636e-10
3.38872e-37
5.44312e-47
1.32568e-51
1.31698e-53
6.46751e-54
3.57691e-54
1.9787e-54
9.67253e-55
5.12374e-55
2.60098e-55
1.35763e-55
6.65232e-56
3.31433e-56
1.62583e-56
7.84588e-57
3.7228e-57
1.73591e-57
7.9501e-58
3.57404e-58
1.57592e-58
6.81135e-59
2.88445e-59
1.19598e-59
4.85172e-60
1.92413e-60
7.45376e-61
2.81797e-61
1.03874e-61
3.72954e-62
1.3029e-62
4.42362e-63
1.45788e-63
4.65766e-64
1.44045e-64
4.30567e-65
1.24186e-65
3.44984e-66
9.21213e-67
2.35942e-67
5.7822e-68
1.35227e-68
3.00907e-69
6.34971e-70
1.26591e-70
2.37425e-71
4.16873e-72
6.81361e-73
1.02983e-73
1.42803e-74
1.79954e-75
2.03673e-76
2.03989e-77
1.7733e-78
1.30329e-79
7.79771e-81
3.58009e-82
1.13466e-83
1.93792e-85
3.3662e-88
5.70331e-94
4.03541e-96
1.41415e-98
5.38753e-109
1.03976e-119
1.49182e-130
1.54884e-141
1.39794e-152
9.65899e-164
5.73669e-175
1.85694e-185
8.39131e-196
5.4634e-204
2.44417e-214
1.87902e-222
9.92375e-233
6.46744e-241
4.18837e-251
2.22847e-259
2.68336e-269
7.85234e-278
1.77991e-287
2.85742e-296
8.80506e-306
1.06796e-314
4.05628e-321
2.51973e-321
8.86848e-321
4.57737e-319
2.8055e-319
6.80328e-321
7.09478e-321
6.08689e-321
8.5424e-321
0
0
0
0
0
0
0
0
0
0
0
0
0
0
0
0
)
;

boundaryField
{
    inandouthalf11
    {
        type            cyclic;
    }
    inandouthalf12
    {
        type            cyclic;
    }
    inandouthalf21
    {
        type            cyclic;
    }
    inandouthalf22
    {
        type            cyclic;
    }
    inandouthalf31
    {
        type            cyclic;
    }
    inandouthalf32
    {
        type            cyclic;
    }
    inandouthalf41
    {
        type            cyclic;
    }
    inandouthalf42
    {
        type            cyclic;
    }
    top
    {
        type            symmetryPlane;
    }
    walls
    {
        type            zeroGradient;
    }
    frontAndBackPlanes
    {
        type            empty;
    }
}


// ************************************************************************* //
