/*--------------------------------*- C++ -*----------------------------------*\
| =========                 |                                                 |
| \\      /  F ield         | OpenFOAM: The Open Source CFD Toolbox           |
|  \\    /   O peration     | Version:  2.4.x                                 |
|   \\  /    A nd           | Web:      www.OpenFOAM.org                      |
|    \\/     M anipulation  |                                                 |
\*---------------------------------------------------------------------------*/
FoamFile
{
    version     2.0;
    format      ascii;
    class       volScalarField;
    location    "9.5";
    object      epsilon;
}
// * * * * * * * * * * * * * * * * * * * * * * * * * * * * * * * * * * * * * //

dimensions      [0 2 -3 0 0 0 0];

internalField   nonuniform List<scalar> 
360
(
1e-20
1e-20
1e-20
1e-20
1e-20
1e-20
1e-20
1e-20
1e-20
1e-20
1e-20
1e-20
1e-20
1e-20
1e-20
1e-20
1e-20
1e-20
1e-20
1e-20
1e-20
1e-20
1e-20
1e-20
1e-20
1e-20
1e-20
1e-20
1e-20
1e-20
1e-20
1e-20
1e-20
1e-20
1e-20
1e-20
1e-20
1e-20
1e-20
1e-20
1e-20
1e-20
1e-20
1e-20
1e-20
1e-20
1e-20
1e-20
1e-20
1e-20
1e-20
1e-20
1e-20
1e-20
1e-20
1e-20
1e-20
1e-20
1e-20
1e-20
1e-20
1e-20
1e-20
1e-20
1e-20
1e-20
1e-20
1e-20
1e-20
1e-20
1e-20
1e-20
1e-20
1e-20
1e-20
1e-20
1e-20
1e-20
1e-20
1e-20
1e-20
1e-20
1e-20
1e-20
1e-20
1e-20
1e-20
1e-20
1e-20
1e-20
1e-20
1e-20
1e-20
1e-20
1e-20
1e-20
1e-20
1e-20
1e-20
1e-20
1e-20
1e-20
1e-20
1e-20
1e-20
1e-20
1e-20
1e-20
1e-20
1e-20
1e-20
1e-20
1e-20
1e-20
1e-20
1e-20
1e-20
1e-20
1e-20
1e-20
1e-20
1e-20
1e-20
1e-20
1e-20
1e-20
1.34181e-20
7.1423e-20
4.76994e-19
3.22099e-18
2.17456e-17
1.47582e-16
1.01666e-15
7.21259e-15
5.37976e-14
4.33896e-13
3.92118e-12
4.13532e-11
5.29613e-10
8.50625e-09
1.74969e-07
4.65991e-06
0.000159063
0.00538974
0.0763268
0.18438
0.223316
0.235483
0.236446
0.23238
0.225937
0.218399
0.210389
0.20225
0.194204
0.186383
0.178862
0.171677
0.164838
0.158343
0.152176
0.146322
0.140759
0.135466
0.130422
0.125609
0.121007
0.116599
0.11237
0.108305
0.104393
0.10062
0.0969775
0.0934552
0.090045
0.0867394
0.0835315
0.0804155
0.0773859
0.0744379
0.0715672
0.06877
0.0660428
0.0633828
0.0607873
0.0582538
0.0557804
0.0533652
0.0510068
0.0487036
0.0464547
0.0442592
0.0421162
0.0400252
0.0379858
0.0359979
0.0340614
0.0321764
0.0303432
0.0285622
0.0268339
0.0251421
0.023473
0.0218304
0.0202185
0.0186418
0.0171055
0.0156149
0.0141758
0.0127942
0.0114766
0.0102291
0.00905813
0.00796927
0.00696752
0.00605663
0.00523879
0.0045143
0.00388133
0.0033359
0.00287205
0.00248231
0.0021582
0.00189089
0.00167175
0.00149278
0.00134686
0.00122787
0.00113067
0.00105101
0.000985425
0.000931105
0.00088577
0.000847568
0.000814991
0.0007868
0.000761972
0.000739656
0.00071914
0.000699822
0.000681196
0.000662832
0.000644367
0.000625497
0.00060597
0.000585581
0.000564168
0.000541613
0.000517834
0.000492792
0.000466485
0.000438948
0.000410257
0.000380527
0.000349913
0.000318609
0.000286854
0.000254926
0.000223143
0.000191863
0.000161481
0.000132422
0.000105134
8.0076e-05
5.77061e-05
3.8461e-05
2.27392e-05
1.08931e-05
3.18697e-06
2.97257e-07
5.87092e-09
6.46616e-11
6.72562e-13
6.73681e-15
6.51616e-17
6.18002e-19
1.40258e-20
1e-20
1e-20
1e-20
1e-20
1e-20
1e-20
1e-20
1e-20
1e-20
1e-20
1e-20
1e-20
1e-20
1e-20
1e-20
1e-20
1e-20
1e-20
1e-20
1e-20
1e-20
1e-20
1e-20
1e-20
1e-20
1e-20
1e-20
1e-20
1e-20
1e-20
1e-20
1e-20
1e-20
1e-20
1e-20
1e-20
1e-20
1e-20
1e-20
1e-20
1e-20
1e-20
1e-20
1e-20
1e-20
1e-20
1e-20
1e-20
1e-20
1e-20
1e-20
1e-20
1e-20
1e-20
1e-20
1e-20
1e-20
1e-20
1e-20
1e-20
1e-20
1e-20
1e-20
1e-20
1e-20
1e-20
1e-20
1e-20
1e-20
1e-20
1e-20
1e-20
1e-20
1e-20
1e-20
1e-20
1e-20
1e-20
1e-20
1e-20
1e-20
1e-20
1e-20
)
;

boundaryField
{
    inandouthalf11
    {
        type            cyclic;
    }
    inandouthalf12
    {
        type            cyclic;
    }
    inandouthalf21
    {
        type            cyclic;
    }
    inandouthalf22
    {
        type            cyclic;
    }
    inandouthalf31
    {
        type            cyclic;
    }
    inandouthalf32
    {
        type            cyclic;
    }
    inandouthalf41
    {
        type            cyclic;
    }
    inandouthalf42
    {
        type            cyclic;
    }
    top
    {
        type            symmetryPlane;
    }
    walls
    {
        type            zeroGradient;
    }
    frontAndBackPlanes
    {
        type            empty;
    }
}


// ************************************************************************* //
