/*--------------------------------*- C++ -*----------------------------------*\
| =========                 |                                                 |
| \\      /  F ield         | OpenFOAM: The Open Source CFD Toolbox           |
|  \\    /   O peration     | Version:  2.4.x                                 |
|   \\  /    A nd           | Web:      www.OpenFOAM.org                      |
|    \\/     M anipulation  |                                                 |
\*---------------------------------------------------------------------------*/
FoamFile
{
    version     2.0;
    format      ascii;
    class       volScalarField;
    location    "9.5";
    object      mua;
}
// * * * * * * * * * * * * * * * * * * * * * * * * * * * * * * * * * * * * * //

dimensions      [1 -1 -1 0 0 0 0];

internalField   nonuniform List<scalar> 
360
(
7.75434e+06
5.55955e+06
6.97847e+06
7.17826e+06
6.8088e+06
6.6248e+06
6.55432e+06
6.47074e+06
6.35294e+06
6.21083e+06
6.05561e+06
5.89635e+06
5.73697e+06
5.57935e+06
5.42409e+06
5.27169e+06
5.1234e+06
4.98046e+06
4.84304e+06
4.71109e+06
4.58536e+06
4.46487e+06
4.34964e+06
4.23973e+06
4.13488e+06
4.03513e+06
3.94015e+06
3.84924e+06
3.76275e+06
3.6807e+06
3.60248e+06
3.52793e+06
3.45744e+06
3.38973e+06
3.32585e+06
3.26533e+06
3.20801e+06
3.15319e+06
3.10127e+06
3.05287e+06
3.0063e+06
2.96273e+06
2.92217e+06
2.88324e+06
2.84686e+06
2.81267e+06
2.78096e+06
2.75223e+06
2.72469e+06
2.69854e+06
2.6753e+06
2.65376e+06
2.63392e+06
2.61584e+06
2.59969e+06
2.5847e+06
2.57182e+06
2.56022e+06
2.55063e+06
2.54275e+06
2.53526e+06
2.52925e+06
2.52404e+06
2.52018e+06
2.51764e+06
2.51629e+06
2.51568e+06
2.51608e+06
2.51801e+06
2.52094e+06
2.52345e+06
2.52648e+06
2.53093e+06
2.53522e+06
2.53955e+06
2.54419e+06
2.55003e+06
2.55653e+06
2.56322e+06
2.57024e+06
2.57767e+06
2.58492e+06
2.59181e+06
2.59844e+06
2.60483e+06
2.61112e+06
2.61742e+06
2.62403e+06
2.63096e+06
2.63802e+06
2.64511e+06
2.65206e+06
2.65858e+06
2.6646e+06
2.67012e+06
2.67518e+06
2.67989e+06
2.68433e+06
2.68852e+06
2.69243e+06
2.69598e+06
2.69905e+06
2.70152e+06
2.70327e+06
2.70425e+06
2.70439e+06
2.70365e+06
2.70198e+06
2.69934e+06
2.69569e+06
2.69095e+06
2.68505e+06
2.67789e+06
2.66937e+06
2.65938e+06
2.64785e+06
2.63484e+06
2.62061e+06
2.60575e+06
2.59135e+06
2.57911e+06
2.57139e+06
2.57119e+06
2.58187e+06
2.60652e+06
2.64706e+06
2.70292e+06
2.76955e+06
2.8371e+06
2.89015e+06
2.90915e+06
2.87522e+06
2.77962e+06
2.63864e+06
2.50646e+06
2.47826e+06
2.69971e+06
3.45924e+06
5.55158e+06
1.15463e+07
2.66863e+07
3.22232e+07
239.975
0.0431633
0.0204513
0.0159974
0.0141657
0.0128965
0.0118671
0.010991
0.0102327
0.00956976
0.00902369
0.00858476
0.00823477
0.00795858
0.00774324
0.0075775
0.0074517
0.00735755
0.00728813
0.00723769
0.00720153
0.00717582
0.00715748
0.00714409
0.00713371
0.00712485
0.00711633
0.00710727
0.00709698
0.00708495
0.00707082
0.00705432
0.00703529
0.0070136
0.00698921
0.0069621
0.00693228
0.00689979
0.00686467
0.006827
0.00678681
0.00674418
0.00669916
0.00665185
0.0066023
0.00655057
0.00649674
0.00644091
0.00638322
0.0063238
0.00626281
0.00620042
0.00613681
0.00607217
0.00600669
0.00594058
0.00587404
0.00580728
0.00574051
0.00567327
0.00560509
0.00553621
0.00546683
0.00539719
0.00532749
0.00525792
0.00518858
0.00511953
0.00505074
0.00498206
0.00491333
0.00484428
0.00477467
0.00470419
0.00463255
0.00455943
0.00448451
0.00440742
0.00432776
0.00424507
0.00415883
0.00406844
0.0039732
0.00387225
0.00376455
0.00364884
0.00352346
0.00338627
0.00323434
0.00306346
0.00286719
0.00263476
0.00234552
0.00194873
0
0
0
0
0
0
0
0
0
0
0
0
0
0
0
0
0
0
0
0
0
0
0
0
0
0
0
0
0
0
0
0
0
0
0
0
0
0
0
0
0
0
0
0
0
0
0
0
0
0
0
0
0
0
0
0
0
0
0
0
0
0
0
0
0
0
0
0
0
0
0
0
0
0
0
0
0
0
0
0
0
0
0
0
0
0
0
0
0
0
0
0
0
0
0
0
0
0
0
0
0
0
0
0
0
0
0
0
0
0
0
0
0
0
0
0
0
0
0
0
0
0
0
0
)
;

boundaryField
{
    inandouthalf11
    {
        type            cyclic;
    }
    inandouthalf12
    {
        type            cyclic;
    }
    inandouthalf21
    {
        type            cyclic;
    }
    inandouthalf22
    {
        type            cyclic;
    }
    inandouthalf31
    {
        type            cyclic;
    }
    inandouthalf32
    {
        type            cyclic;
    }
    inandouthalf41
    {
        type            cyclic;
    }
    inandouthalf42
    {
        type            cyclic;
    }
    top
    {
        type            symmetryPlane;
    }
    walls
    {
        type            calculated;
        value           uniform 1e+30;
    }
    frontAndBackPlanes
    {
        type            empty;
    }
}


// ************************************************************************* //
