/*--------------------------------*- C++ -*----------------------------------*\
| =========                 |                                                 |
| \\      /  F ield         | OpenFOAM: The Open Source CFD Toolbox           |
|  \\    /   O peration     | Version:  2.4.x                                 |
|   \\  /    A nd           | Web:      www.OpenFOAM.org                      |
|    \\/     M anipulation  |                                                 |
\*---------------------------------------------------------------------------*/
FoamFile
{
    version     2.0;
    format      ascii;
    class       volScalarField;
    location    "9.5";
    object      nutb;
}
// * * * * * * * * * * * * * * * * * * * * * * * * * * * * * * * * * * * * * //

dimensions      [0 2 -1 0 0 0 0];

internalField   nonuniform List<scalar> 
360
(
9e-22
9e-22
9e-22
9e-22
9e-22
9e-22
9e-22
9e-22
9e-22
9e-22
9e-22
9e-22
9e-22
9e-22
9e-22
9e-22
9e-22
9e-22
9e-22
9e-22
9e-22
9e-22
9e-22
9e-22
9e-22
9e-22
9e-22
9e-22
9e-22
9e-22
9e-22
9e-22
9e-22
9e-22
9e-22
9e-22
9e-22
9e-22
9e-22
9e-22
9e-22
9e-22
9e-22
9e-22
9e-22
9e-22
9e-22
9e-22
9e-22
9e-22
9e-22
9e-22
9e-22
9e-22
9e-22
9e-22
9e-22
9e-22
9e-22
9e-22
9e-22
9e-22
9e-22
9e-22
9e-22
9e-22
9e-22
9e-22
9e-22
9e-22
9e-22
9e-22
9e-22
9e-22
9e-22
9e-22
9e-22
9e-22
9e-22
9e-22
9e-22
9e-22
9e-22
9e-22
9e-22
9e-22
9e-22
9e-22
9e-22
9e-22
9e-22
9e-22
9e-22
9e-22
9e-22
9e-22
9e-22
9e-22
9e-22
9e-22
9e-22
9e-22
9e-22
9e-22
9e-22
9e-22
9e-22
9e-22
9e-22
9e-22
9e-22
9e-22
9e-22
9e-22
9e-22
9e-22
9e-22
9e-22
9e-22
9e-22
9e-22
9e-22
9e-22
9e-22
9e-22
9e-22
8.28125e-22
3.24358e-21
1.86553e-20
1.08315e-19
6.17238e-19
3.45319e-18
1.90478e-17
1.04484e-16
5.78353e-16
3.30521e-15
2.0162e-14
1.37195e-13
1.09404e-12
1.0685e-11
1.31809e-10
2.0892e-09
4.27828e-08
7.9023e-07
6.61587e-06
1.60311e-05
2.4473e-05
3.21388e-05
3.93114e-05
4.6145e-05
5.27479e-05
5.91906e-05
6.55623e-05
7.19291e-05
7.8304e-05
8.46866e-05
9.10698e-05
9.74412e-05
0.000103785
0.000110082
0.000116312
0.000122454
0.000128487
0.000134391
0.000140146
0.000145734
0.00015114
0.000156348
0.000161347
0.000166123
0.000170669
0.000174974
0.000179034
0.000182841
0.000186392
0.000189683
0.000192712
0.000195476
0.000197976
0.000200211
0.000202181
0.000203889
0.000205337
0.000206526
0.00020746
0.00020814
0.000208566
0.000208741
0.000208667
0.000208347
0.000207786
0.00020699
0.000205965
0.000204718
0.000203257
0.000201592
0.000199731
0.000197686
0.000195466
0.000193085
0.000190555
0.000187864
0.000184993
0.000181951
0.000178751
0.000175411
0.000171954
0.000168407
0.000164807
0.000161196
0.000157628
0.000154161
0.000150869
0.000147832
0.000145141
0.000142897
0.000141201
0.000140155
0.000139846
0.000140343
0.000141678
0.000143844
0.000146786
0.000150409
0.000154577
0.000159134
0.000163914
0.000168752
0.000173503
0.000178041
0.000182266
0.000186104
0.000189505
0.000192438
0.000194888
0.000196852
0.000198334
0.000199343
0.000199891
0.000199992
0.000199656
0.000198892
0.000197708
0.000196107
0.000194093
0.000191664
0.000188819
0.000185554
0.000181862
0.000177739
0.000173175
0.000168164
0.000162698
0.000156767
0.000150366
0.000143489
0.000136129
0.000128286
0.000119956
0.000111143
0.000101851
9.20895e-05
8.18695e-05
7.12075e-05
6.01236e-05
4.86406e-05
3.67839e-05
2.45647e-05
1.1737e-05
1.8603e-06
4.73381e-08
5.32421e-10
5.60842e-12
5.70136e-14
5.6067e-16
5.29459e-18
2.51697e-20
9e-22
9e-22
9e-22
9e-22
9e-22
9e-22
9e-22
9e-22
9e-22
9e-22
9e-22
9e-22
9e-22
9e-22
9e-22
9e-22
9e-22
9e-22
9e-22
9e-22
9e-22
9e-22
9e-22
9e-22
9e-22
9e-22
9e-22
9e-22
9e-22
9e-22
9e-22
9e-22
9e-22
9e-22
9e-22
9e-22
9e-22
9e-22
9e-22
9e-22
9e-22
9e-22
9e-22
9e-22
9e-22
9e-22
9e-22
9e-22
9e-22
9e-22
9e-22
9e-22
9e-22
9e-22
9e-22
9e-22
9e-22
9e-22
9e-22
9e-22
9e-22
9e-22
9e-22
9e-22
9e-22
9e-22
9e-22
9e-22
9e-22
9e-22
9e-22
9e-22
9e-22
9e-22
9e-22
9e-22
9e-22
9e-22
9e-22
9e-22
9e-22
9e-22
9e-22
)
;

boundaryField
{
    inandouthalf11
    {
        type            cyclic;
    }
    inandouthalf12
    {
        type            cyclic;
    }
    inandouthalf21
    {
        type            cyclic;
    }
    inandouthalf22
    {
        type            cyclic;
    }
    inandouthalf31
    {
        type            cyclic;
    }
    inandouthalf32
    {
        type            cyclic;
    }
    inandouthalf41
    {
        type            cyclic;
    }
    inandouthalf42
    {
        type            cyclic;
    }
    top
    {
        type            symmetryPlane;
    }
    walls
    {
        type            calculated;
        value           uniform 0;
    }
    frontAndBackPlanes
    {
        type            empty;
    }
}


// ************************************************************************* //
