/*--------------------------------*- C++ -*----------------------------------*\
| =========                 |                                                 |
| \\      /  F ield         | OpenFOAM: The Open Source CFD Toolbox           |
|  \\    /   O peration     | Version:  2.4.x                                 |
|   \\  /    A nd           | Web:      www.OpenFOAM.org                      |
|    \\/     M anipulation  |                                                 |
\*---------------------------------------------------------------------------*/
FoamFile
{
    version     2.0;
    format      ascii;
    class       volScalarField;
    location    "9.5";
    object      pa;
}
// * * * * * * * * * * * * * * * * * * * * * * * * * * * * * * * * * * * * * //

dimensions      [1 -1 -2 0 0 0 0];

internalField   nonuniform List<scalar> 
360
(
2.90343e-16
2.92844e-16
2.93109e-16
2.92849e-16
2.92726e-16
2.92687e-16
2.92638e-16
2.92575e-16
2.9251e-16
2.92444e-16
2.92377e-16
2.92311e-16
2.92244e-16
2.92176e-16
2.92108e-16
2.92039e-16
2.91969e-16
2.91898e-16
2.91827e-16
2.91755e-16
2.91683e-16
2.91609e-16
2.91535e-16
2.9146e-16
2.91384e-16
2.91307e-16
2.9123e-16
2.91152e-16
2.91073e-16
2.90993e-16
2.90912e-16
2.90831e-16
2.90749e-16
2.90665e-16
2.90581e-16
2.90496e-16
2.9041e-16
2.90323e-16
2.90235e-16
2.90147e-16
2.90057e-16
2.89966e-16
2.89875e-16
2.89782e-16
2.89688e-16
2.89594e-16
2.89497e-16
2.89401e-16
2.89303e-16
2.89203e-16
2.89104e-16
2.89002e-16
2.889e-16
2.88796e-16
2.88692e-16
2.88585e-16
2.88478e-16
2.88369e-16
2.88259e-16
2.88148e-16
2.88035e-16
2.87921e-16
2.87805e-16
2.87688e-16
2.8757e-16
2.8745e-16
2.87329e-16
2.87205e-16
2.87081e-16
2.86955e-16
2.86827e-16
2.86696e-16
2.86566e-16
2.86432e-16
2.86297e-16
2.8616e-16
2.86021e-16
2.8588e-16
2.85737e-16
2.85592e-16
2.85445e-16
2.85295e-16
2.85143e-16
2.84989e-16
2.84832e-16
2.84673e-16
2.84511e-16
2.84346e-16
2.84179e-16
2.84009e-16
2.83836e-16
2.8366e-16
2.83481e-16
2.83298e-16
2.83113e-16
2.82923e-16
2.82731e-16
2.82534e-16
2.82334e-16
2.82129e-16
2.81921e-16
2.81708e-16
2.81491e-16
2.81269e-16
2.81043e-16
2.80811e-16
2.80574e-16
2.80332e-16
2.80084e-16
2.79831e-16
2.79571e-16
2.79306e-16
2.79033e-16
2.78754e-16
2.78468e-16
2.78174e-16
2.77872e-16
2.77563e-16
2.77244e-16
2.76917e-16
2.7658e-16
2.76233e-16
2.75876e-16
2.75507e-16
2.75127e-16
2.74734e-16
3.04546e-16
1.38741e-15
8.58604e-15
5.36835e-14
3.32474e-13
2.04543e-12
1.25876e-11
7.8383e-11
5.02664e-10
3.40525e-09
2.52228e-08
2.13119e-07
2.1491e-06
2.7091e-05
0.000546651
0.0280928
0.804594
7.81194
9.17715
9.64733
9.23369
8.56472
7.8246
7.0783
6.35332
5.65943
5.0396
4.48859
3.99828
3.56266
3.17627
2.83386
2.53048
2.26156
2.02297
1.81102
1.62247
1.45447
1.30453
1.17052
1.05054
0.942992
0.846459
0.759718
0.681698
0.611466
0.548201
0.491181
0.439771
0.393405
0.351583
0.313857
0.279828
0.249136
0.221459
0.196505
0.174019
0.15379
0.135666
0.119569
0.105375
0.0928718
0.081843
0.0721051
0.0634995
0.0558896
0.0491573
0.0432003
0.0379293
0.0332662
0.0291421
0.0254964
0.0222755
0.0194318
0.0169231
0.0146895
0.0126874
0.0108981
0.00930293
0.00788243
0.00661815
0.00549482
0.0045029
0.00363915
0.00290367
0.00229475
0.00180479
0.00141972
0.00112158
0.000892035
0.000714917
0.000577166
0.000468864
0.000382677
0.000313271
0.000256728
0.000210244
0.000171695
0.00013958
0.000112704
9.02415e-05
7.148e-05
5.59437e-05
4.30224e-05
3.27071e-05
2.39159e-05
1.75259e-05
1.15937e-05
7.94684e-06
3.90302e-06
0
0
0
0
0
0
0
0
0
0
0
0
0
0
0
0
0
0
0
0
0
0
0
0
0
0
0
0
0
0
0
0
0
0
0
0
0
0
0
0
0
0
0
0
0
0
0
0
0
0
0
0
0
0
0
0
0
0
0
0
0
0
0
0
0
0
0
0
0
0
0
0
0
0
0
0
0
0
0
0
0
0
0
0
0
0
0
0
0
0
0
0
0
0
0
0
0
0
0
0
0
0
0
0
0
0
0
0
0
0
0
0
0
0
0
0
0
0
0
0
0
0
0
0
)
;

boundaryField
{
    inandouthalf11
    {
        type            cyclic;
    }
    inandouthalf12
    {
        type            cyclic;
    }
    inandouthalf21
    {
        type            cyclic;
    }
    inandouthalf22
    {
        type            cyclic;
    }
    inandouthalf31
    {
        type            cyclic;
    }
    inandouthalf32
    {
        type            cyclic;
    }
    inandouthalf41
    {
        type            cyclic;
    }
    inandouthalf42
    {
        type            cyclic;
    }
    top
    {
        type            symmetryPlane;
    }
    walls
    {
        type            calculated;
        value           uniform 2.90343e-16;
    }
    frontAndBackPlanes
    {
        type            empty;
    }
}


// ************************************************************************* //
