/*--------------------------------*- C++ -*----------------------------------*\
| =========                 |                                                 |
| \\      /  F ield         | OpenFOAM: The Open Source CFD Toolbox           |
|  \\    /   O peration     | Version:  2.4.x                                 |
|   \\  /    A nd           | Web:      www.OpenFOAM.org                      |
|    \\/     M anipulation  |                                                 |
\*---------------------------------------------------------------------------*/
FoamFile
{
    version     2.0;
    format      ascii;
    class       surfaceScalarField;
    location    "9.5";
    object      phib;
}
// * * * * * * * * * * * * * * * * * * * * * * * * * * * * * * * * * * * * * //

dimensions      [0 3 -1 0 0 0 0];

internalField   nonuniform List<scalar> 
359
(
7.42026e-14
1.85729e-13
2.87017e-13
3.82729e-13
4.80416e-13
5.80023e-13
6.80345e-13
7.81345e-13
8.83467e-13
9.87182e-13
1.09281e-12
1.2005e-12
1.3104e-12
1.42259e-12
1.53713e-12
1.65412e-12
1.7736e-12
1.89558e-12
2.02005e-12
2.14705e-12
2.27649e-12
2.4084e-12
2.54273e-12
2.67943e-12
2.81846e-12
2.95978e-12
3.1033e-12
3.24899e-12
3.39677e-12
3.54657e-12
3.69829e-12
3.85189e-12
4.00723e-12
4.16429e-12
4.32291e-12
4.48303e-12
4.64451e-12
4.80727e-12
4.97124e-12
5.1362e-12
5.30214e-12
5.4689e-12
5.63631e-12
5.80433e-12
5.97278e-12
6.14156e-12
6.31055e-12
6.47953e-12
6.64843e-12
6.81719e-12
6.98558e-12
7.15352e-12
7.32086e-12
7.48752e-12
7.6533e-12
7.8182e-12
7.98199e-12
8.14462e-12
8.30596e-12
8.46584e-12
8.62429e-12
8.78114e-12
8.9364e-12
9.08992e-12
9.24165e-12
9.3915e-12
9.53942e-12
9.68536e-12
9.82923e-12
9.97096e-12
1.01106e-11
1.02481e-11
1.03834e-11
1.05165e-11
1.06474e-11
1.07761e-11
1.09026e-11
1.10268e-11
1.11487e-11
1.12683e-11
1.13857e-11
1.15008e-11
1.16136e-11
1.17242e-11
1.18326e-11
1.19389e-11
1.20429e-11
1.21448e-11
1.22444e-11
1.23419e-11
1.24372e-11
1.25304e-11
1.26213e-11
1.27102e-11
1.2797e-11
1.28817e-11
1.29643e-11
1.30449e-11
1.31235e-11
1.32e-11
1.32746e-11
1.33471e-11
1.34176e-11
1.34862e-11
1.35528e-11
1.36175e-11
1.36802e-11
1.37411e-11
1.38001e-11
1.38572e-11
1.39124e-11
1.39658e-11
1.40173e-11
1.40671e-11
1.4115e-11
1.4161e-11
1.42053e-11
1.42478e-11
1.42884e-11
1.43271e-11
1.43639e-11
1.43986e-11
1.44311e-11
1.44612e-11
1.44887e-11
1.45134e-11
1.45351e-11
1.45539e-11
1.45697e-11
1.45827e-11
1.45934e-11
1.46019e-11
1.46085e-11
1.46133e-11
1.4616e-11
1.4616e-11
1.4612e-11
1.46027e-11
1.45876e-11
1.45681e-11
1.45458e-11
1.43899e-11
1.29971e-11
3.66646e-09
4.07568e-09
4.08195e-09
4.00372e-09
3.85682e-09
3.67501e-09
3.47177e-09
3.2509e-09
3.01059e-09
2.76668e-09
2.52691e-09
2.29499e-09
2.07335e-09
1.8637e-09
1.66718e-09
1.48446e-09
1.31581e-09
1.16115e-09
1.02015e-09
8.92263e-10
7.76829e-10
6.73089e-10
5.80241e-10
4.97465e-10
4.23949e-10
3.58907e-10
3.01586e-10
2.51274e-10
2.07306e-10
1.69066e-10
1.35983e-10
1.07534e-10
8.32418e-11
6.26694e-11
4.54219e-11
3.11423e-11
1.95095e-11
1.02331e-11
3.03506e-12
-2.37255e-12
-6.37876e-12
-9.53235e-12
-1.24031e-11
-1.51248e-11
-1.76013e-11
-1.97797e-11
-2.16299e-11
-2.31391e-11
-2.43089e-11
-2.51505e-11
-2.56816e-11
-2.59238e-11
-2.59014e-11
-2.56396e-11
-2.51644e-11
-2.45015e-11
-2.36758e-11
-2.27113e-11
-2.16075e-11
-2.03786e-11
-1.90375e-11
-1.75927e-11
-1.60495e-11
-1.44141e-11
-1.2705e-11
-1.09635e-11
-9.25646e-12
-7.66189e-12
-6.24653e-12
-5.04722e-12
-4.0672e-12
-3.28522e-12
-2.66867e-12
-2.18373e-12
-1.80067e-12
-1.4956e-12
-1.25008e-12
-1.05021e-12
-8.85598e-13
-7.485e-13
-6.33144e-13
-5.35235e-13
-4.5157e-13
-3.79789e-13
-3.18158e-13
-2.65063e-13
-2.19952e-13
-1.80913e-13
-1.48509e-13
-1.20329e-13
-9.77284e-14
-7.75595e-14
-6.3931e-14
-4.0955e-14
-3.23966e-14
-2.31333e-14
-1.6458e-14
-1.1684e-14
-8.2468e-15
-5.77011e-15
-3.9926e-15
-2.69365e-15
-1.79211e-15
-1.13521e-15
-6.85544e-16
-3.07953e-16
-1.21971e-16
2.51615e-17
-1.49758e-17
-1.44876e-17
-1.40273e-17
-1.34836e-17
-1.29686e-17
-1.23862e-17
-1.18301e-17
-1.1214e-17
-1.06241e-17
-1.00015e-17
-9.41551e-18
-8.82541e-18
-8.30266e-18
-7.832e-18
-7.43227e-18
-7.06987e-18
-6.7328e-18
-6.4213e-18
-6.12684e-18
-5.83651e-18
-5.56017e-18
-5.31852e-18
-5.08574e-18
-4.85429e-18
-4.61183e-18
-4.37931e-18
-4.13357e-18
-3.88748e-18
-3.63839e-18
-3.42273e-18
-3.21128e-18
-3.00486e-18
-2.79286e-18
-2.58651e-18
-2.3784e-18
-2.09751e-18
-1.88994e-18
-1.68074e-18
-1.47584e-18
-1.27283e-18
-1.07842e-18
-8.80443e-19
-6.95994e-19
-5.2079e-19
-3.78371e-19
-2.45984e-19
-1.64419e-19
-9.22133e-20
-3.59178e-20
2.59048e-20
7.14436e-20
1.15864e-19
1.45115e-19
1.96584e-19
2.29687e-19
2.64217e-19
2.74978e-19
3.05169e-19
3.10228e-19
3.16457e-19
3.1006e-19
3.33428e-19
3.44637e-19
3.57995e-19
3.53959e-19
3.6415e-19
3.56942e-19
3.50433e-19
3.30251e-19
3.34657e-19
3.26051e-19
3.17748e-19
2.96758e-19
2.90731e-19
2.76e-19
2.75512e-19
3.17134e-19
4.32071e-19
5.6713e-19
7.15573e-19
8.04852e-19
9.59692e-19
1.01306e-18
1.07038e-18
1.01947e-18
1.16585e-18
1.16508e-18
1.16605e-18
9.73324e-19
9.25612e-19
6.62647e-19
4.03217e-19
-3.47358e-20
-1.94592e-19
-5.50768e-19
-9.06703e-19
-1.4872e-18
-1.98271e-18
-2.60844e-18
-3.27702e-18
-3.84289e-18
-5.2098e-18
-6.05322e-18
-6.90782e-18
-6.51641e-18
-7.86511e-18
-6.26422e-18
-3.71794e-18
)
;

boundaryField
{
    inandouthalf11
    {
        type            cyclic;
        value           nonuniform List<scalar> 
100
(
1.39064e-10
1.38294e-10
1.38183e-10
1.38283e-10
1.38329e-10
1.38342e-10
1.38358e-10
1.3838e-10
1.38402e-10
1.38425e-10
1.38448e-10
1.38471e-10
1.38494e-10
1.38517e-10
1.3854e-10
1.38563e-10
1.38587e-10
1.38611e-10
1.38635e-10
1.38659e-10
1.38683e-10
1.38707e-10
1.38732e-10
1.38757e-10
1.38782e-10
1.38807e-10
1.38832e-10
1.38858e-10
1.38883e-10
1.38909e-10
1.38935e-10
1.38962e-10
1.38988e-10
1.39015e-10
1.39042e-10
1.39069e-10
1.39096e-10
1.39124e-10
1.39152e-10
1.3918e-10
1.39209e-10
1.39238e-10
1.39266e-10
1.39296e-10
1.39326e-10
1.39356e-10
1.39386e-10
1.39417e-10
1.39448e-10
1.3948e-10
1.39512e-10
1.39544e-10
1.39577e-10
1.3961e-10
1.39644e-10
1.39678e-10
1.39713e-10
1.39748e-10
1.39784e-10
1.3982e-10
1.39858e-10
1.39895e-10
1.39933e-10
1.39972e-10
1.40012e-10
1.40052e-10
1.40093e-10
1.40134e-10
1.40177e-10
1.40219e-10
1.40264e-10
1.40309e-10
1.40354e-10
1.404e-10
1.40447e-10
1.40496e-10
1.40545e-10
1.40595e-10
1.40646e-10
1.40698e-10
1.40751e-10
1.40805e-10
1.4086e-10
1.40917e-10
1.40974e-10
1.41033e-10
1.41093e-10
1.41154e-10
1.41217e-10
1.41281e-10
1.41346e-10
1.41413e-10
1.41481e-10
1.41551e-10
1.41623e-10
1.41696e-10
1.4177e-10
1.41847e-10
1.41925e-10
1.42006e-10
)
;
    }
    inandouthalf12
    {
        type            cyclic;
        value           nonuniform List<scalar> 
100
(
-1.39064e-10
-1.38294e-10
-1.38183e-10
-1.38283e-10
-1.38329e-10
-1.38342e-10
-1.38358e-10
-1.3838e-10
-1.38402e-10
-1.38425e-10
-1.38448e-10
-1.38471e-10
-1.38494e-10
-1.38517e-10
-1.3854e-10
-1.38563e-10
-1.38587e-10
-1.38611e-10
-1.38635e-10
-1.38659e-10
-1.38683e-10
-1.38707e-10
-1.38732e-10
-1.38757e-10
-1.38782e-10
-1.38807e-10
-1.38832e-10
-1.38858e-10
-1.38883e-10
-1.38909e-10
-1.38935e-10
-1.38962e-10
-1.38988e-10
-1.39015e-10
-1.39042e-10
-1.39069e-10
-1.39096e-10
-1.39124e-10
-1.39152e-10
-1.3918e-10
-1.39209e-10
-1.39238e-10
-1.39266e-10
-1.39296e-10
-1.39326e-10
-1.39356e-10
-1.39386e-10
-1.39417e-10
-1.39448e-10
-1.3948e-10
-1.39512e-10
-1.39544e-10
-1.39577e-10
-1.3961e-10
-1.39644e-10
-1.39678e-10
-1.39713e-10
-1.39748e-10
-1.39784e-10
-1.3982e-10
-1.39858e-10
-1.39895e-10
-1.39933e-10
-1.39972e-10
-1.40012e-10
-1.40052e-10
-1.40093e-10
-1.40134e-10
-1.40177e-10
-1.40219e-10
-1.40264e-10
-1.40309e-10
-1.40354e-10
-1.404e-10
-1.40447e-10
-1.40496e-10
-1.40545e-10
-1.40595e-10
-1.40646e-10
-1.40698e-10
-1.40751e-10
-1.40805e-10
-1.4086e-10
-1.40917e-10
-1.40974e-10
-1.41033e-10
-1.41093e-10
-1.41154e-10
-1.41217e-10
-1.41281e-10
-1.41346e-10
-1.41413e-10
-1.41481e-10
-1.41551e-10
-1.41623e-10
-1.41696e-10
-1.4177e-10
-1.41847e-10
-1.41925e-10
-1.42006e-10
)
;
    }
    inandouthalf21
    {
        type            cyclic;
        value           nonuniform List<scalar> 
100
(
1.42088e-10
1.42172e-10
1.42258e-10
1.42347e-10
1.42438e-10
1.42531e-10
1.42627e-10
1.42725e-10
1.42826e-10
1.42929e-10
1.43036e-10
1.43145e-10
1.43258e-10
1.43374e-10
1.43493e-10
1.43616e-10
1.43743e-10
1.43873e-10
1.44008e-10
1.44147e-10
1.4429e-10
1.44439e-10
1.44592e-10
1.44751e-10
1.44916e-10
1.45088e-10
1.45265e-10
1.4545e-10
1.45644e-10
1.45845e-10
1.46056e-10
1.46276e-10
1.46506e-10
1.46749e-10
1.47008e-10
1.47283e-10
1.47573e-10
1.47883e-10
1.48229e-10
1.48628e-10
1.49063e-10
1.49549e-10
1.54899e-10
-3.11248e-10
-7.8041e-08
-1.82513e-07
-2.705e-07
-3.45589e-07
-4.11007e-07
-4.68903e-07
-5.20751e-07
-5.67601e-07
-6.10201e-07
-6.4912e-07
-6.84836e-07
-7.17756e-07
-7.48223e-07
-7.76532e-07
-8.02938e-07
-8.27656e-07
-8.50875e-07
-8.72757e-07
-8.93442e-07
-9.13051e-07
-9.31691e-07
-9.49454e-07
-9.6642e-07
-9.82661e-07
-9.98238e-07
-1.01321e-06
-1.02762e-06
-1.04151e-06
-1.05492e-06
-1.06789e-06
-1.08044e-06
-1.0926e-06
-1.1044e-06
-1.11585e-06
-1.12699e-06
-1.13781e-06
-1.14835e-06
-1.15861e-06
-1.16861e-06
-1.17835e-06
-1.18786e-06
-1.19713e-06
-1.20618e-06
-1.21502e-06
-1.22364e-06
-1.23206e-06
-1.24029e-06
-1.24832e-06
-1.25617e-06
-1.26383e-06
-1.27131e-06
-1.27862e-06
-1.28574e-06
-1.29269e-06
-1.29947e-06
-1.30607e-06
)
;
    }
    inandouthalf22
    {
        type            cyclic;
        value           nonuniform List<scalar> 
100
(
-1.42088e-10
-1.42172e-10
-1.42258e-10
-1.42347e-10
-1.42438e-10
-1.42531e-10
-1.42627e-10
-1.42725e-10
-1.42826e-10
-1.42929e-10
-1.43036e-10
-1.43145e-10
-1.43258e-10
-1.43374e-10
-1.43493e-10
-1.43616e-10
-1.43743e-10
-1.43873e-10
-1.44008e-10
-1.44147e-10
-1.4429e-10
-1.44439e-10
-1.44592e-10
-1.44751e-10
-1.44916e-10
-1.45088e-10
-1.45265e-10
-1.4545e-10
-1.45644e-10
-1.45845e-10
-1.46056e-10
-1.46276e-10
-1.46506e-10
-1.46749e-10
-1.47008e-10
-1.47283e-10
-1.47573e-10
-1.47883e-10
-1.48229e-10
-1.48628e-10
-1.49063e-10
-1.49549e-10
-1.54899e-10
3.11248e-10
7.8041e-08
1.82513e-07
2.705e-07
3.45589e-07
4.11007e-07
4.68903e-07
5.20751e-07
5.67601e-07
6.10201e-07
6.4912e-07
6.84836e-07
7.17756e-07
7.48223e-07
7.76532e-07
8.02938e-07
8.27656e-07
8.50875e-07
8.72757e-07
8.93442e-07
9.13051e-07
9.31691e-07
9.49454e-07
9.6642e-07
9.82661e-07
9.98238e-07
1.01321e-06
1.02762e-06
1.04151e-06
1.05492e-06
1.06789e-06
1.08044e-06
1.0926e-06
1.1044e-06
1.11585e-06
1.12699e-06
1.13781e-06
1.14835e-06
1.15861e-06
1.16861e-06
1.17835e-06
1.18786e-06
1.19713e-06
1.20618e-06
1.21502e-06
1.22364e-06
1.23206e-06
1.24029e-06
1.24832e-06
1.25617e-06
1.26383e-06
1.27131e-06
1.27862e-06
1.28574e-06
1.29269e-06
1.29947e-06
1.30607e-06
)
;
    }
    inandouthalf31
    {
        type            cyclic;
        value           nonuniform List<scalar> 
110
(
-1.3125e-06
-1.34559e-06
-1.37942e-06
-1.414e-06
-1.44932e-06
-1.4854e-06
-1.52222e-06
-1.55978e-06
-1.59808e-06
-1.63708e-06
-1.67679e-06
-1.71717e-06
-1.7582e-06
-1.79984e-06
-1.84207e-06
-1.88484e-06
-1.92812e-06
-1.97187e-06
-2.01608e-06
-2.06072e-06
-2.10578e-06
-2.15128e-06
-2.19722e-06
-2.24364e-06
-2.29057e-06
-2.33805e-06
-2.38613e-06
-2.43483e-06
-2.48421e-06
-2.53429e-06
-2.58512e-06
-2.63671e-06
-2.6891e-06
-2.74231e-06
-2.79637e-06
-2.85129e-06
-2.9071e-06
-2.96382e-06
-3.02146e-06
-3.08006e-06
-3.13962e-06
-3.20018e-06
-3.26175e-06
-3.32435e-06
-3.38801e-06
-3.45276e-06
-3.51862e-06
-3.58561e-06
-3.65378e-06
-3.72315e-06
-3.79375e-06
-3.86563e-06
-3.93883e-06
-4.01338e-06
-4.08935e-06
-4.16678e-06
-4.24573e-06
-4.32627e-06
-4.40847e-06
-4.49242e-06
-4.5782e-06
-4.66592e-06
-4.75569e-06
-4.84763e-06
-4.94189e-06
-5.03862e-06
-5.13796e-06
-5.24007e-06
-5.34508e-06
-5.45309e-06
-5.56372e-06
-5.67665e-06
-5.79187e-06
-5.90943e-06
-6.02938e-06
-6.15176e-06
-6.27662e-06
-6.40402e-06
-6.53401e-06
-6.66663e-06
-6.80194e-06
-6.94001e-06
-7.08087e-06
-7.22459e-06
-7.37123e-06
-7.52085e-06
-7.6735e-06
-7.82925e-06
-7.98817e-06
-8.1503e-06
-8.31573e-06
-8.48452e-06
-8.65673e-06
-8.83244e-06
-9.01172e-06
-9.19463e-06
-9.38126e-06
-9.57167e-06
-9.76595e-06
-9.96418e-06
-1.01664e-05
-1.03728e-05
-1.05833e-05
-1.07981e-05
-1.10173e-05
-1.12409e-05
-1.14691e-05
-1.17019e-05
-1.19394e-05
-1.21817e-05
)
;
    }
    inandouthalf32
    {
        type            cyclic;
        value           nonuniform List<scalar> 
110
(
1.3125e-06
1.34559e-06
1.37942e-06
1.414e-06
1.44932e-06
1.4854e-06
1.52222e-06
1.55978e-06
1.59808e-06
1.63708e-06
1.67679e-06
1.71717e-06
1.7582e-06
1.79984e-06
1.84207e-06
1.88484e-06
1.92812e-06
1.97187e-06
2.01608e-06
2.06072e-06
2.10578e-06
2.15128e-06
2.19722e-06
2.24364e-06
2.29057e-06
2.33805e-06
2.38613e-06
2.43483e-06
2.48421e-06
2.53429e-06
2.58512e-06
2.63671e-06
2.6891e-06
2.74231e-06
2.79637e-06
2.85129e-06
2.9071e-06
2.96382e-06
3.02146e-06
3.08006e-06
3.13962e-06
3.20018e-06
3.26175e-06
3.32435e-06
3.38801e-06
3.45276e-06
3.51862e-06
3.58561e-06
3.65378e-06
3.72315e-06
3.79375e-06
3.86563e-06
3.93883e-06
4.01338e-06
4.08935e-06
4.16678e-06
4.24573e-06
4.32627e-06
4.40847e-06
4.49242e-06
4.5782e-06
4.66592e-06
4.75569e-06
4.84763e-06
4.94189e-06
5.03862e-06
5.13796e-06
5.24007e-06
5.34508e-06
5.45309e-06
5.56372e-06
5.67665e-06
5.79187e-06
5.90943e-06
6.02938e-06
6.15176e-06
6.27662e-06
6.40402e-06
6.53401e-06
6.66663e-06
6.80194e-06
6.94001e-06
7.08087e-06
7.22459e-06
7.37123e-06
7.52085e-06
7.6735e-06
7.82925e-06
7.98817e-06
8.1503e-06
8.31573e-06
8.48452e-06
8.65673e-06
8.83244e-06
9.01172e-06
9.19463e-06
9.38126e-06
9.57167e-06
9.76595e-06
9.96418e-06
1.01664e-05
1.03728e-05
1.05833e-05
1.07981e-05
1.10173e-05
1.12409e-05
1.14691e-05
1.17019e-05
1.19394e-05
1.21817e-05
)
;
    }
    inandouthalf41
    {
        type            cyclic;
        value           nonuniform List<scalar> 
50
(
-1.09039e-05
-1.09039e-05
-1.09039e-05
-1.09039e-05
-1.09039e-05
-1.09039e-05
-1.09039e-05
-1.09039e-05
-1.09039e-05
-1.09039e-05
-1.09039e-05
-1.09039e-05
-1.09039e-05
-1.09039e-05
-1.09039e-05
-1.09039e-05
-1.09039e-05
-1.09039e-05
-1.09039e-05
-1.09039e-05
-1.09039e-05
-1.09039e-05
-1.09039e-05
-1.09039e-05
-1.09039e-05
-1.09039e-05
-1.09039e-05
-1.09039e-05
-1.09039e-05
-1.09039e-05
-1.09039e-05
-1.09039e-05
-1.09039e-05
-1.09039e-05
-1.09039e-05
-1.09039e-05
-1.09039e-05
-1.09039e-05
-1.09039e-05
-1.09039e-05
-1.09039e-05
-1.09039e-05
-1.09039e-05
-1.09039e-05
-1.09039e-05
-1.09039e-05
-1.09039e-05
-1.09039e-05
-1.09039e-05
-1.09039e-05
)
;
    }
    inandouthalf42
    {
        type            cyclic;
        value           nonuniform List<scalar> 
50
(
1.09039e-05
1.09039e-05
1.09039e-05
1.09039e-05
1.09039e-05
1.09039e-05
1.09039e-05
1.09039e-05
1.09039e-05
1.09039e-05
1.09039e-05
1.09039e-05
1.09039e-05
1.09039e-05
1.09039e-05
1.09039e-05
1.09039e-05
1.09039e-05
1.09039e-05
1.09039e-05
1.09039e-05
1.09039e-05
1.09039e-05
1.09039e-05
1.09039e-05
1.09039e-05
1.09039e-05
1.09039e-05
1.09039e-05
1.09039e-05
1.09039e-05
1.09039e-05
1.09039e-05
1.09039e-05
1.09039e-05
1.09039e-05
1.09039e-05
1.09039e-05
1.09039e-05
1.09039e-05
1.09039e-05
1.09039e-05
1.09039e-05
1.09039e-05
1.09039e-05
1.09039e-05
1.09039e-05
1.09039e-05
1.09039e-05
1.09039e-05
)
;
    }
    top
    {
        type            symmetryPlane;
        value           uniform 0;
    }
    walls
    {
        type            fixedValue;
        value           uniform 0;
    }
    frontAndBackPlanes
    {
        type            empty;
        value           nonuniform 0();
    }
}


// ************************************************************************* //
