/*--------------------------------*- C++ -*----------------------------------*\
| =========                 |                                                 |
| \\      /  F ield         | OpenFOAM: The Open Source CFD Toolbox           |
|  \\    /   O peration     | Version:  2.4.x                                 |
|   \\  /    A nd           | Web:      www.OpenFOAM.org                      |
|    \\/     M anipulation  |                                                 |
\*---------------------------------------------------------------------------*/
FoamFile
{
    version     2.0;
    format      ascii;
    class       volVectorField;
    location    "9.5";
    object      susb;
}
// * * * * * * * * * * * * * * * * * * * * * * * * * * * * * * * * * * * * * //

dimensions      [0 1 -2 0 0 0 0];

internalField   nonuniform List<vector> 
360
(
(0 5.97422e-18 0)
(0 6.64991e-18 0)
(0 2.01678e-20 0)
(0 -9.16278e-19 0)
(-3.69929e-31 -3.88954e-19 0)
(-3.69895e-31 -2.10815e-19 0)
(-3.69853e-31 -2.69551e-19 0)
(0 -3.08706e-19 0)
(-3.69742e-31 -3.14877e-19 0)
(0 -3.18349e-19 0)
(-3.69628e-31 -3.19922e-19 0)
(0 -3.21465e-19 0)
(-3.69512e-31 -3.24432e-19 0)
(0 -3.27502e-19 0)
(0 -3.31498e-19 0)
(0 -3.35552e-19 0)
(0 -3.38802e-19 0)
(-3.69213e-31 -3.41743e-19 0)
(0 -3.46111e-19 0)
(0 -3.49216e-19 0)
(0 -3.52444e-19 0)
(-3.68963e-31 -3.57011e-19 0)
(0 -3.60355e-19 0)
(0 -3.64214e-19 0)
(0 -3.68157e-19 0)
(-3.68701e-31 -3.71351e-19 0)
(0 -3.75696e-19 0)
(0 -3.80196e-19 0)
(0 -3.83415e-19 0)
(0 -3.87161e-19 0)
(0 -3.92394e-19 0)
(0 -3.95117e-19 0)
(0 -3.99954e-19 0)
(0 -4.04884e-19 0)
(0 -4.07978e-19 0)
(3.67999e-31 -4.1242e-19 0)
(0 -4.16649e-19 0)
(0 -4.22964e-19 0)
(0 -4.24944e-19 0)
(0 -4.30029e-19 0)
(0 -4.36955e-19 0)
(0 -4.38279e-19 0)
(3.67461e-31 -4.44539e-19 0)
(0 -4.50259e-19 0)
(0 -4.53836e-19 0)
(0 -4.60677e-19 0)
(0 -4.63444e-19 0)
(0 -4.67827e-19 0)
(0 -4.77159e-19 0)
(0 -4.80318e-19 0)
(3.66795e-31 -4.84465e-19 0)
(0 -4.91597e-19 0)
(0 -4.97329e-19 0)
(0 -5.01883e-19 0)
(0 -5.08959e-19 0)
(0 -5.14742e-19 0)
(0 -5.20221e-19 0)
(0 -5.28104e-19 0)
(0 -5.31216e-19 0)
(0 -5.40062e-19 0)
(0 -5.47001e-19 0)
(0 -5.52804e-19 0)
(0 -5.60985e-19 0)
(0 -5.67078e-19 0)
(0 -5.74092e-19 0)
(0 -5.81724e-19 0)
(0 -5.90503e-19 0)
(0 -5.97695e-19 0)
(0 -6.03392e-19 0)
(0 -6.13013e-19 0)
(0 -6.24516e-19 0)
(0 -6.29487e-19 0)
(0 -6.38057e-19 0)
(0 -6.49115e-19 0)
(0 -6.58637e-19 0)
(0 -6.67649e-19 0)
(0 -6.75782e-19 0)
(0 -6.86877e-19 0)
(0 -6.97801e-19 0)
(0 -7.07551e-19 0)
(0 -7.18222e-19 0)
(0 -7.30352e-19 0)
(0 -7.4187e-19 0)
(0 -7.53775e-19 0)
(0 -7.66077e-19 0)
(0 -7.78845e-19 0)
(0 -7.91777e-19 0)
(0 -8.04698e-19 0)
(0 -8.1859e-19 0)
(0 -8.32971e-19 0)
(0 -8.47576e-19 0)
(0 -8.62974e-19 0)
(0 -8.79053e-19 0)
(0 -8.95461e-19 0)
(0 -9.12404e-19 0)
(0 -9.29911e-19 0)
(0 -9.47944e-19 0)
(0 -9.66579e-19 0)
(0 -9.85942e-19 0)
(0 -1.00606e-18 0)
(0 -1.02694e-18 0)
(0 -1.04867e-18 0)
(0 -1.07127e-18 0)
(0 -1.09471e-18 0)
(0 -1.11905e-18 0)
(0 -1.14434e-18 0)
(0 -1.17061e-18 0)
(0 -1.19792e-18 0)
(0 -1.22635e-18 0)
(0 -1.25593e-18 0)
(0 -1.28672e-18 0)
(0 -1.31881e-18 0)
(0 -1.35225e-18 0)
(0 -1.38716e-18 0)
(0 -1.42362e-18 0)
(0 -1.46177e-18 0)
(0 -1.50174e-18 0)
(0 -1.54371e-18 0)
(0 -1.58786e-18 0)
(0 -1.63439e-18 0)
(0 -1.68348e-18 0)
(0 -1.73531e-18 0)
(0 -1.79001e-18 0)
(0 -1.84775e-18 0)
(0 -1.90889e-18 0)
(0 -1.97412e-18 0)
(0 -1.88122e-18 0)
(0 -7.6443e-18 0)
(0 -4.56862e-17 0)
(0 -2.75866e-16 0)
(0 -1.63518e-15 0)
(0 -9.53109e-15 0)
(0 -5.51052e-14 0)
(0 -3.19485e-13 0)
(0 -1.87347e-12 0)
(0 -1.12817e-11 0)
(0 -7.26623e-11 0)
(0 -5.36125e-10 0)
(0 -4.81021e-09 0)
(0 -5.21353e-08 0)
(0 -7.02885e-07 0)
(0 -7.71288e-05 0)
(0 -0.00542796 0)
(0 -1.01772 0)
(0 -3.80294 0)
(0 -2.54534 0)
(0 -1.60141 0)
(0 -1.31246 0)
(0 -1.19759 0)
(0 -1.13276 0)
(0 -1.08519 0)
(0 -1.04026 0)
(0 -1.04435 0)
(0 -1.01129 0)
(0 -0.967573 0)
(0 -0.918825 0)
(0 -0.867191 0)
(0 -0.81411 0)
(0 -0.760755 0)
(0 -0.708077 0)
(0 -0.65685 0)
(0 -0.607632 0)
(0 -0.5608 0)
(0 -0.516589 0)
(0 -0.475122 0)
(0 -0.436428 0)
(0 -0.40046 0)
(0 -0.367131 0)
(0 -0.336318 0)
(0 -0.307881 0)
(0 -0.281669 0)
(0 -0.257532 0)
(0 -0.235317 0)
(0 -0.214879 0)
(0 -0.196078 0)
(0 -0.178784 0)
(0 -0.162874 0)
(0 -0.148235 0)
(0 -0.134762 0)
(0 -0.122361 0)
(0 -0.110938 0)
(0 -0.100393 0)
(0 -0.0905775 0)
(0 -0.0812965 0)
(0 -0.0724524 0)
(0 -0.0650176 0)
(0 -0.0590234 0)
(0 -0.0536594 0)
(0 -0.048804 0)
(0 -0.0444012 0)
(0 -0.0404097 0)
(0 -0.0367879 0)
(0 -0.0334974 0)
(0 -0.0305043 0)
(0 -0.0277784 0)
(0 -0.0252931 0)
(0 -0.023025 0)
(0 -0.0209535 0)
(0 -0.0190601 0)
(0 -0.0173286 0)
(0 -0.0157452 0)
(0 -0.0142843 0)
(-6.09239e-18 -0.0129266 0)
(0 -0.0116756 0)
(0 -0.0105363 0)
(2.88834e-18 -0.00950955 0)
(0 -0.00858158 0)
(-2.77448e-18 -0.00771713 0)
(0 -0.00686686 0)
(1.32723e-18 -0.00599068 0)
(0 -0.00508308 0)
(0 -0.00417949 0)
(0 -0.00333714 0)
(6.02504e-19 -0.00260591 0)
(0 -0.00200974 0)
(0 -0.00154605 0)
(0 -0.00119628 0)
(0 -0.000936565 0)
(0 -0.000744503 0)
(0 -0.000601905 0)
(0 -0.000495145 0)
(-1.33826e-19 -0.000414047 0)
(0 -0.000351372 0)
(-1.34551e-19 -0.000301828 0)
(0 -0.000261659 0)
(0 -0.000228091 0)
(0 -0.000199162 0)
(0 -0.000173404 0)
(6.89725e-20 -0.000150979 0)
(6.89568e-20 -0.000128831 0)
(0 -0.000111966 0)
(0 -9.20625e-05 0)
(0 -8.034e-05 0)
(0 -6.23257e-05 0)
(0 -5.69541e-05 0)
(0 -3.27526e-05 0)
(0 -1.50941e-05 0)
(0 -2.63286e-05 0)
(0 -2.46086e-05 0)
(0 -1.62414e-05 0)
(0 -1.18801e-05 0)
(0 -8.32387e-06 0)
(0 -5.83319e-06 0)
(0 -4.06188e-06 0)
(5.68571e-22 -2.76032e-06 0)
(0 -1.92947e-06 0)
(0 -1.22054e-06 0)
(-1.35025e-22 -8.97706e-07 0)
(0 -5.06589e-07 0)
(0 -3.70644e-07 0)
(-3.5446e-24 -2.13385e-07 0)
(0 -2.07222e-08 0)
(0 -8.00121e-36 0)
(0 -1.20348e-45 0)
(0 -2.74269e-50 0)
(0 -1.8657e-52 0)
(0 -8.11806e-53 0)
(0 -4.35786e-53 0)
(0 -2.24676e-53 0)
(0 -9.83076e-54 0)
(0 -4.70536e-54 0)
(0 -2.14211e-54 0)
(0 -9.9009e-55 0)
(0 -4.13316e-55 0)
(0 -1.72152e-55 0)
(0 -6.76443e-56 0)
(4.31743e-72 -2.4439e-56 0)
(0 -7.6653e-57 0)
(0 -1.69018e-57 0)
(0 -1.21409e-58 0)
(0 -1.37431e-60 0)
(0 -6.74279e-63 0)
(0 -3.0365e-65 0)
(0 -1.29278e-67 0)
(0 -5.21233e-70 0)
(0 -1.97414e-72 0)
(0 -3.6791e-75 0)
(0 -5.03683e-77 0)
(0 -1.88173e-77 0)
(0 -6.85324e-78 0)
(0 -2.43071e-78 0)
(0 -8.38698e-79 0)
(0 -2.81197e-79 0)
(0 -9.14984e-80 0)
(0 -2.88561e-80 0)
(0 -8.80773e-81 0)
(2.63244e-97 -2.59788e-81 0)
(0 -7.39222e-82 0)
(0 -2.02553e-82 0)
(0 -5.33392e-83 0)
(0 -1.34693e-83 0)
(0 -3.2538e-84 0)
(0 -7.49933e-85 0)
(0 -1.64419e-85 0)
(0 -3.41767e-86 0)
(0 -6.71012e-87 0)
(1.02674e-103 -1.23907e-87 0)
(0 -2.14144e-88 0)
(0 -3.44426e-89 0)
(-3.77607e-106 -5.1213e-90 0)
(0 -6.98441e-91 0)
(0 -8.65369e-92 0)
(0 -9.62699e-93 0)
(0 -9.4743e-94 0)
(0 -8.09027e-95 0)
(0 -5.83872e-96 0)
(0 -3.42914e-97 0)
(0 -1.54488e-98 0)
(0 -4.80265e-100 0)
(0 -8.04291e-102 0)
(0 -1.45954e-104 0)
(0 -2.617e-110 0)
(0 -1.85168e-112 0)
(0 -6.48883e-115 0)
(0 -2.47206e-125 0)
(0 -4.77091e-136 0)
(0 -6.84519e-147 0)
(0 -7.10684e-158 0)
(0 -6.41447e-169 0)
(0 -4.43202e-180 0)
(0 -2.63228e-191 0)
(0 -8.52054e-202 0)
(0 -3.85036e-212 0)
(0 -2.50688e-220 0)
(0 -1.1215e-230 0)
(0 -8.62185e-239 0)
(0 -4.5535e-249 0)
(0 -2.96758e-257 0)
(0 -1.92183e-267 0)
(0 -1.02253e-275 0)
(0 -1.23126e-285 0)
(0 -3.60304e-294 0)
(0 -8.16713e-304 0)
(0 -1.31113e-312 0)
(0 -4.05134e-322 0)
(0 -0 0)
(0 0 0)
(0 0 0)
(0 0 0)
(0 0 0)
(0 0 0)
(0 0 0)
(0 0 0)
(0 0 0)
(0 0 0)
(0 0 0)
(0 0 0)
(0 0 0)
(0 0 0)
(0 0 0)
(0 0 0)
(0 0 0)
(0 0 0)
(0 0 0)
(0 0 0)
(0 0 0)
(0 0 0)
(0 0 0)
(0 0 0)
(0 0 0)
)
;

boundaryField
{
    inandouthalf11
    {
        type            cyclic;
    }
    inandouthalf12
    {
        type            cyclic;
    }
    inandouthalf21
    {
        type            cyclic;
    }
    inandouthalf22
    {
        type            cyclic;
    }
    inandouthalf31
    {
        type            cyclic;
    }
    inandouthalf32
    {
        type            cyclic;
    }
    inandouthalf41
    {
        type            cyclic;
    }
    inandouthalf42
    {
        type            cyclic;
    }
    top
    {
        type            symmetryPlane;
    }
    walls
    {
        type            zeroGradient;
    }
    frontAndBackPlanes
    {
        type            empty;
    }
}


// ************************************************************************* //
