/*--------------------------------*- C++ -*----------------------------------*\
| =========                 |                                                 |
| \\      /  F ield         | OpenFOAM: The Open Source CFD Toolbox           |
|  \\    /   O peration     | Version:  2.4.x                                 |
|   \\  /    A nd           | Web:      www.OpenFOAM.org                      |
|    \\/     M anipulation  |                                                 |
\*---------------------------------------------------------------------------*/
FoamFile
{
    version     2.0;
    format      ascii;
    class       volScalarField;
    location    "9.5";
    object      Theta_0;
}
// * * * * * * * * * * * * * * * * * * * * * * * * * * * * * * * * * * * * * //

dimensions      [0 2 -2 0 0 0 0];

internalField   nonuniform List<scalar> 
360
(
6.66144e-21
6.6616e-21
6.66153e-21
6.66152e-21
6.66153e-21
6.66153e-21
6.66154e-21
6.66154e-21
6.66154e-21
6.66154e-21
6.66155e-21
6.66155e-21
6.66156e-21
6.66157e-21
6.66157e-21
6.66158e-21
6.66159e-21
6.6616e-21
6.66161e-21
6.66161e-21
6.66162e-21
6.66163e-21
6.66164e-21
6.66165e-21
6.66166e-21
6.66167e-21
6.66168e-21
6.66168e-21
6.66169e-21
6.6617e-21
6.66171e-21
6.66172e-21
6.66172e-21
6.66173e-21
6.66174e-21
6.66174e-21
6.66175e-21
6.66176e-21
6.66176e-21
6.66177e-21
6.66177e-21
6.66177e-21
6.66178e-21
6.66178e-21
6.66178e-21
6.66178e-21
6.66178e-21
6.66178e-21
6.66178e-21
6.66178e-21
6.66178e-21
6.66178e-21
6.66177e-21
6.66177e-21
6.66176e-21
6.66176e-21
6.66175e-21
6.66175e-21
6.66174e-21
6.66174e-21
6.66173e-21
6.66172e-21
6.66171e-21
6.66171e-21
6.6617e-21
6.66169e-21
6.66168e-21
6.66167e-21
6.66166e-21
6.66165e-21
6.66164e-21
6.66163e-21
6.66162e-21
6.66161e-21
6.66161e-21
6.6616e-21
6.66159e-21
6.66158e-21
6.66157e-21
6.66156e-21
6.66155e-21
6.66154e-21
6.66153e-21
6.66153e-21
6.66152e-21
6.66151e-21
6.6615e-21
6.6615e-21
6.66149e-21
6.66148e-21
6.66147e-21
6.66147e-21
6.66146e-21
6.66145e-21
6.66144e-21
6.66144e-21
6.66143e-21
6.66143e-21
6.66142e-21
6.66141e-21
6.66141e-21
6.6614e-21
6.6614e-21
6.66139e-21
6.66138e-21
6.66138e-21
6.66137e-21
6.66137e-21
6.66136e-21
6.66136e-21
6.66135e-21
6.66135e-21
6.66134e-21
6.66134e-21
6.66133e-21
6.66133e-21
6.66132e-21
6.66132e-21
6.66131e-21
6.66131e-21
6.6613e-21
6.6613e-21
6.66129e-21
6.66129e-21
6.66128e-21
6.66127e-21
7.3908e-21
3.37066e-20
2.08962e-19
1.309e-18
8.12305e-18
5.00785e-17
3.08859e-16
1.92772e-15
1.23928e-14
8.41727e-14
6.25168e-13
5.29744e-12
5.35856e-11
6.77854e-10
1.37366e-08
7.08746e-07
2.12292e-05
0.000234328
0.00140194
0.00289238
0.003766
0.00431765
0.00471262
0.00501833
0.00526646
0.00547463
0.0057202
0.00596734
0.00620717
0.00643753
0.00665763
0.00686671
0.00706408
0.00724894
0.00742061
0.00757854
0.00772231
0.00785161
0.00796627
0.00806634
0.00815188
0.00822318
0.00828049
0.00832425
0.00835484
0.00837278
0.0083786
0.00837281
0.00835598
0.00832868
0.00829148
0.00824493
0.00818961
0.00812606
0.0080548
0.00797633
0.00789111
0.00779954
0.00770203
0.00759899
0.00749078
0.00737776
0.00726033
0.00713895
0.00701408
0.00688622
0.00675586
0.00662351
0.00648968
0.00635488
0.0062196
0.00608433
0.00594957
0.00581578
0.00568342
0.00555158
0.00541943
0.00528746
0.00515614
0.00502595
0.00489728
0.00477047
0.00464572
0.00452311
0.00440254
0.00428379
0.00416652
0.00405034
0.00393484
0.00381959
0.00370418
0.00358821
0.00347128
0.00335298
0.00323289
0.00311054
0.00298546
0.00285711
0.00272491
0.0025882
0.00244625
0.00229817
0.00214296
0.00197933
0.00180571
0.00161995
0.00141902
0.00119829
0.000949629
0.000655511
0
0
0
0
0
0
0
0
0
0
0
0
0
0
0
0
0
0
0
0
0
0
0
0
0
0
0
0
0
0
0
0
0
0
0
0
0
0
0
0
0
0
0
0
0
0
0
0
0
0
0
0
0
0
0
0
0
0
0
0
0
0
0
0
0
0
0
0
0
0
0
0
0
0
0
0
0
0
0
0
0
0
0
0
0
0
0
0
0
0
0
0
0
0
0
0
0
0
0
0
0
0
0
0
0
0
0
0
0
0
0
0
0
0
0
0
0
0
0
0
0
0
0
0
)
;

boundaryField
{
    inandouthalf11
    {
        type            cyclic;
    }
    inandouthalf12
    {
        type            cyclic;
    }
    inandouthalf21
    {
        type            cyclic;
    }
    inandouthalf22
    {
        type            cyclic;
    }
    inandouthalf31
    {
        type            cyclic;
    }
    inandouthalf32
    {
        type            cyclic;
    }
    inandouthalf41
    {
        type            cyclic;
    }
    inandouthalf42
    {
        type            cyclic;
    }
    top
    {
        type            symmetryPlane;
    }
    walls
    {
        type            zeroGradient;
    }
    frontAndBackPlanes
    {
        type            empty;
    }
}


// ************************************************************************* //
