/*--------------------------------*- C++ -*----------------------------------*\
| =========                 |                                                 |
| \\      /  F ield         | OpenFOAM: The Open Source CFD Toolbox           |
|  \\    /   O peration     | Version:  2.4.x                                 |
|   \\  /    A nd           | Web:      www.OpenFOAM.org                      |
|    \\/     M anipulation  |                                                 |
\*---------------------------------------------------------------------------*/
FoamFile
{
    version     2.0;
    format      ascii;
    class       volScalarField;
    location    "9.5";
    object      tmf;
}
// * * * * * * * * * * * * * * * * * * * * * * * * * * * * * * * * * * * * * //

dimensions      [0 0 0 0 0 0 0];

internalField   nonuniform List<scalar> 
360
(
0.999206
0.999209
0.99921
0.999209
0.999209
0.999209
0.999209
0.999209
0.999209
0.999209
0.999209
0.999209
0.999209
0.999209
0.999209
0.999208
0.999208
0.999208
0.999208
0.999208
0.999208
0.999208
0.999208
0.999208
0.999208
0.999208
0.999208
0.999207
0.999207
0.999207
0.999207
0.999207
0.999207
0.999207
0.999207
0.999207
0.999207
0.999206
0.999206
0.999206
0.999206
0.999206
0.999206
0.999206
0.999206
0.999206
0.999206
0.999205
0.999205
0.999205
0.999205
0.999205
0.999205
0.999205
0.999205
0.999204
0.999204
0.999204
0.999204
0.999204
0.999204
0.999204
0.999204
0.999203
0.999203
0.999203
0.999203
0.999203
0.999203
0.999203
0.999202
0.999202
0.999202
0.999202
0.999202
0.999202
0.999201
0.999201
0.999201
0.999201
0.999201
0.999201
0.9992
0.9992
0.9992
0.9992
0.9992
0.999199
0.999199
0.999199
0.999199
0.999199
0.999198
0.999198
0.999198
0.999198
0.999198
0.999197
0.999197
0.999197
0.999197
0.999196
0.999196
0.999196
0.999195
0.999195
0.999195
0.999195
0.999194
0.999194
0.999194
0.999193
0.999193
0.999193
0.999192
0.999192
0.999192
0.999191
0.999191
0.99919
0.99919
0.99919
0.999189
0.999189
0.999188
0.999188
0.999019
0.998855
0.998765
0.998668
0.998549
0.998401
0.998211
0.997964
0.997635
0.997189
0.996576
0.995734
0.994591
0.99306
0.991034
0.988375
0.984722
0.978217
0.942323
0.920223
0.915652
0.914425
0.913798
0.912971
0.911693
0.908437
0.91021
0.912016
0.913857
0.91572
0.917591
0.91946
0.921315
0.923143
0.924936
0.926685
0.928384
0.930029
0.931615
0.93314
0.934605
0.936008
0.93735
0.938632
0.939856
0.941022
0.942132
0.943186
0.944186
0.94513
0.946018
0.946849
0.947618
0.948321
0.948951
0.949498
0.949949
0.950294
0.950635
0.951742
0.953586
0.955439
0.9572
0.958875
0.960474
0.962007
0.963483
0.964906
0.966281
0.967613
0.968905
0.970159
0.971377
0.972561
0.973713
0.974845
0.975967
0.977079
0.978178
0.979264
0.980334
0.981387
0.982422
0.983435
0.984427
0.985395
0.986338
0.987254
0.988141
0.988997
0.989819
0.990601
0.991341
0.992033
0.992672
0.993256
0.99378
0.994246
0.994654
0.995007
0.995309
0.995565
0.99578
0.99596
0.996107
0.996228
0.996326
0.996405
0.996467
0.996516
0.99655
0.994799
0.995274
0.995219
0.995325
0.99537
0.995424
0.995485
0.99551
0.995636
0.995532
0.995886
0.995491
0.996138
0.995867
0.997126
0.997232
0.997282
0.997338
0.9974
0.997467
0.99754
0.99762
0.997707
0.997803
0.997907
0.998022
0.998149
0.99829
0.998448
0.998627
0.998837
0.99909
0.999302
0.999385
0.999391
0.999395
0.9994
0.999404
0.999403
0.998694
0.994192
0.994192
0.994192
0.994192
0.994192
0.994192
0.994192
0.994192
0.994192
0.994192
0.994192
0.994192
0.994192
0.994192
0.994192
0.994192
0.994192
0.994192
0.994192
0.994192
0.994192
0.994192
0.994192
0.994192
0.994192
0.994192
0.994192
0.994192
0.994192
0.994192
0.994192
0.994192
0.994192
0.994192
0.994192
0.994192
0.994192
0.994192
0.994192
0.994192
0.994192
0.994192
0.994192
0.994192
0.994192
0.994192
0.994192
0.994192
0.994192
0.994192
0.994192
0.994192
0.994192
0.994192
0.994192
0.994192
0.994192
0.994192
0.994192
0.994192
0.994192
0.994192
0.994192
0.994192
0.994192
0.994192
0.994192
0.994192
0.994192
0.994192
0.994192
0.994192
0.994192
0.994192
0.994192
0.994192
0.994192
0.994192
0.994192
0.994192
0.994192
0.994177
0.99325
)
;

boundaryField
{
    inandouthalf11
    {
        type            cyclic;
    }
    inandouthalf12
    {
        type            cyclic;
    }
    inandouthalf21
    {
        type            cyclic;
    }
    inandouthalf22
    {
        type            cyclic;
    }
    inandouthalf31
    {
        type            cyclic;
    }
    inandouthalf32
    {
        type            cyclic;
    }
    inandouthalf41
    {
        type            cyclic;
    }
    inandouthalf42
    {
        type            cyclic;
    }
    top
    {
        type            symmetryPlane;
    }
    walls
    {
        type            calculated;
        value           uniform 0;
    }
    frontAndBackPlanes
    {
        type            empty;
    }
}


// ************************************************************************* //
