/*--------------------------------*- C++ -*----------------------------------*\
| =========                 |                                                 |
| \\      /  F ield         | OpenFOAM: The Open Source CFD Toolbox           |
|  \\    /   O peration     | Version:  2.4.x                                 |
|   \\  /    A nd           | Web:      www.OpenFOAM.org                      |
|    \\/     M anipulation  |                                                 |
\*---------------------------------------------------------------------------*/
FoamFile
{
    version     2.0;
    format      ascii;
    class       volVectorField;
    location    "9.5";
    object      U;
}
// * * * * * * * * * * * * * * * * * * * * * * * * * * * * * * * * * * * * * //

dimensions      [0 1 -1 0 0 0 0];

internalField   nonuniform List<vector> 
360
(
(-5.41129e-05 3.55096e-09 0)
(-5.36924e-05 -7.54805e-10 0)
(-5.36347e-05 -6.61296e-10 0)
(-5.36839e-05 1.31957e-11 0)
(-5.37056e-05 1.15841e-10 0)
(-5.37102e-05 3.0701e-11 0)
(-5.37167e-05 5.20378e-12 0)
(-5.37261e-05 1.94514e-11 0)
(-5.37358e-05 3.39193e-11 0)
(-5.37455e-05 4.30706e-11 0)
(-5.37553e-05 4.8806e-11 0)
(-5.3765e-05 5.20575e-11 0)
(-5.37747e-05 5.44258e-11 0)
(-5.37843e-05 5.64479e-11 0)
(-5.3794e-05 5.83389e-11 0)
(-5.38038e-05 5.98762e-11 0)
(-5.38136e-05 6.06831e-11 0)
(-5.38233e-05 6.09365e-11 0)
(-5.38331e-05 6.07856e-11 0)
(-5.38429e-05 6.05981e-11 0)
(-5.38526e-05 5.97435e-11 0)
(-5.38625e-05 5.92836e-11 0)
(-5.38723e-05 5.85017e-11 0)
(-5.38821e-05 5.73799e-11 0)
(-5.38919e-05 5.61261e-11 0)
(-5.39018e-05 5.47629e-11 0)
(-5.39116e-05 5.32703e-11 0)
(-5.39216e-05 5.20408e-11 0)
(-5.39315e-05 5.01666e-11 0)
(-5.39414e-05 4.82461e-11 0)
(-5.39514e-05 4.61862e-11 0)
(-5.39614e-05 4.47366e-11 0)
(-5.39714e-05 4.17561e-11 0)
(-5.39816e-05 4.06507e-11 0)
(-5.39916e-05 3.7343e-11 0)
(-5.40019e-05 3.51206e-11 0)
(-5.40121e-05 3.25893e-11 0)
(-5.40224e-05 3.01166e-11 0)
(-5.40329e-05 2.80137e-11 0)
(-5.40431e-05 2.36821e-11 0)
(-5.40538e-05 2.22092e-11 0)
(-5.40645e-05 1.89766e-11 0)
(-5.4075e-05 1.47733e-11 0)
(-5.4086e-05 1.36217e-11 0)
(-5.40969e-05 9.83699e-12 0)
(-5.4108e-05 6.34956e-12 0)
(-5.41193e-05 3.51044e-12 0)
(-5.41305e-05 -1.00819e-12 0)
(-5.41421e-05 -3.01731e-12 0)
(-5.41539e-05 -4.52797e-12 0)
(-5.41656e-05 -1.03038e-11 0)
(-5.41777e-05 -1.21021e-11 0)
(-5.41899e-05 -1.56663e-11 0)
(-5.42024e-05 -1.76134e-11 0)
(-5.4215e-05 -2.23539e-11 0)
(-5.42281e-05 -2.2697e-11 0)
(-5.42411e-05 -2.78897e-11 0)
(-5.42546e-05 -2.94762e-11 0)
(-5.42683e-05 -3.22222e-11 0)
(-5.42821e-05 -3.65386e-11 0)
(-5.42965e-05 -3.50833e-11 0)
(-5.4311e-05 -3.95151e-11 0)
(-5.4326e-05 -3.97512e-11 0)
(-5.43411e-05 -4.27601e-11 0)
(-5.43567e-05 -4.42557e-11 0)
(-5.43726e-05 -4.64997e-11 0)
(-5.43889e-05 -4.74542e-11 0)
(-5.44057e-05 -4.90973e-11 0)
(-5.44227e-05 -5.04862e-11 0)
(-5.44401e-05 -5.27743e-11 0)
(-5.44581e-05 -5.16042e-11 0)
(-5.44766e-05 -5.09969e-11 0)
(-5.44952e-05 -5.51523e-11 0)
(-5.45146e-05 -5.26566e-11 0)
(-5.45343e-05 -5.41269e-11 0)
(-5.45546e-05 -5.32264e-11 0)
(-5.45753e-05 -5.55523e-11 0)
(-5.45966e-05 -5.59314e-11 0)
(-5.46184e-05 -5.58329e-11 0)
(-5.46408e-05 -5.55313e-11 0)
(-5.46636e-05 -5.6326e-11 0)
(-5.46871e-05 -5.55577e-11 0)
(-5.47113e-05 -5.47911e-11 0)
(-5.4736e-05 -5.46045e-11 0)
(-5.47614e-05 -5.40759e-11 0)
(-5.47874e-05 -5.41702e-11 0)
(-5.48141e-05 -5.38721e-11 0)
(-5.48414e-05 -5.42387e-11 0)
(-5.48695e-05 -5.4509e-11 0)
(-5.48983e-05 -5.43761e-11 0)
(-5.49278e-05 -5.42044e-11 0)
(-5.49581e-05 -5.40578e-11 0)
(-5.49893e-05 -5.34933e-11 0)
(-5.50212e-05 -5.3002e-11 0)
(-5.50541e-05 -5.262e-11 0)
(-5.50878e-05 -5.23125e-11 0)
(-5.51224e-05 -5.21074e-11 0)
(-5.5158e-05 -5.20148e-11 0)
(-5.51945e-05 -5.19689e-11 0)
(-5.5232e-05 -5.18776e-11 0)
(-5.52706e-05 -5.17667e-11 0)
(-5.53102e-05 -5.16176e-11 0)
(-5.5351e-05 -5.14054e-11 0)
(-5.5393e-05 -5.11857e-11 0)
(-5.54361e-05 -5.09876e-11 0)
(-5.54805e-05 -5.08128e-11 0)
(-5.55262e-05 -5.06776e-11 0)
(-5.55733e-05 -5.05871e-11 0)
(-5.56217e-05 -5.05352e-11 0)
(-5.56716e-05 -5.05218e-11 0)
(-5.5723e-05 -5.05459e-11 0)
(-5.5776e-05 -5.06039e-11 0)
(-5.58306e-05 -5.06959e-11 0)
(-5.58869e-05 -5.08283e-11 0)
(-5.59451e-05 -5.10214e-11 0)
(-5.6005e-05 -5.13212e-11 0)
(-5.60669e-05 -5.18107e-11 0)
(-5.61309e-05 -5.26158e-11 0)
(-5.6197e-05 -5.39067e-11 0)
(-5.62654e-05 -5.58865e-11 0)
(-5.63362e-05 -5.87566e-11 0)
(-5.64095e-05 -6.26532e-11 0)
(-5.64855e-05 -6.75646e-11 0)
(-5.65644e-05 -7.32465e-11 0)
(-5.66463e-05 -7.917e-11 0)
(-5.67316e-05 -8.455e-11 0)
(-5.68204e-05 -8.84572e-11 0)
(-5.69131e-05 -8.99636e-11 0)
(-5.701e-05 -8.82803e-11 0)
(-5.71114e-05 -8.31468e-11 0)
(-5.72176e-05 -7.58445e-11 0)
(-5.73286e-05 -7.04923e-11 0)
(-5.7445e-05 -7.21344e-11 0)
(-5.7568e-05 -8.05027e-11 0)
(-5.76991e-05 -9.14792e-11 0)
(-5.78385e-05 -1.12528e-10 0)
(-5.7986e-05 -1.60423e-10 0)
(-5.81443e-05 -2.28497e-10 0)
(-5.8322e-05 -3.34985e-09 0)
(-5.85277e-05 1.5047e-07 0)
(-5.87523e-05 -1.16702e-06 0)
(-5.90037e-05 4.23257e-06 0)
(-6.18674e-05 -1.72445e-05 0)
(0.000143482 6.60052e-05 0)
(0.0762866 3.92189e-05 0)
(0.180766 3.24465e-05 0)
(0.269385 1.62879e-05 0)
(0.344873 8.07262e-06 0)
(0.410543 4.63731e-06 0)
(0.46861 3.56742e-06 0)
(0.520583 3.29096e-06 0)
(0.56753 -1.74126e-06 0)
(0.610209 1.08162e-06 0)
(0.649188 1.01017e-06 0)
(0.684949 7.26018e-07 0)
(0.717898 5.04165e-07 0)
(0.748384 3.48639e-07 0)
(0.776704 2.26186e-07 0)
(0.803114 1.28927e-07 0)
(0.827832 5.18155e-08 0)
(0.851047 -8.32069e-09 0)
(0.872922 -5.39534e-08 0)
(0.893599 -8.77654e-08 0)
(0.913199 -1.1173e-07 0)
(0.931829 -1.27958e-07 0)
(0.949581 -1.37642e-07 0)
(0.966537 -1.42454e-07 0)
(0.982768 -1.4328e-07 0)
(0.998336 -1.41245e-07 0)
(1.0133 -1.36959e-07 0)
(1.0277 -1.31135e-07 0)
(1.04158 -1.24204e-07 0)
(1.05498 -1.1654e-07 0)
(1.06794 -1.08447e-07 0)
(1.08049 -1.00119e-07 0)
(1.09264 -9.17208e-08 0)
(1.10443 -8.33532e-08 0)
(1.11588 -7.50645e-08 0)
(1.12701 -6.68282e-08 0)
(1.13783 -5.86445e-08 0)
(1.14837 -5.07982e-08 0)
(1.15862 -4.42881e-08 0)
(1.16862 -4.05426e-08 0)
(1.17836 -3.91644e-08 0)
(1.18786 -3.63602e-08 0)
(1.19713 -3.08076e-08 0)
(1.20618 -2.70631e-08 0)
(1.21501 -2.65622e-08 0)
(1.22363 -2.69276e-08 0)
(1.23206 -2.66757e-08 0)
(1.24028 -2.58356e-08 0)
(1.24831 -2.47053e-08 0)
(1.25616 -2.34303e-08 0)
(1.26382 -2.20681e-08 0)
(1.2713 -2.06552e-08 0)
(1.2786 -1.9222e-08 0)
(1.28573 -1.77918e-08 0)
(1.29268 -1.63819e-08 0)
(1.29945 -1.50086e-08 0)
(1.30606 -1.3678e-08 0)
(1.31249 -1.2368e-08 0)
(1.3188 -1.15985e-08 0)
(1.32506 -1.07787e-08 0)
(1.33126 -9.84553e-09 0)
(1.33737 -8.71359e-09 0)
(1.34339 -7.35158e-09 0)
(1.34931 -5.89131e-09 0)
(1.3551 -4.63546e-09 0)
(1.36075 -3.84302e-09 0)
(1.36624 -3.43027e-09 0)
(1.37154 -2.97739e-09 0)
(1.37663 -2.14765e-09 0)
(1.38148 -1.02751e-09 0)
(1.38607 7.56275e-12 0)
(1.39036 6.5855e-10 0)
(1.39435 8.92416e-10 0)
(1.39799 8.61449e-10 0)
(1.40127 7.12618e-10 0)
(1.40418 5.49396e-10 0)
(1.40672 4.05527e-10 0)
(1.40889 3.01729e-10 0)
(1.41069 2.1067e-10 0)
(1.41216 1.58732e-10 0)
(1.41331 1.04476e-10 0)
(1.41416 8.36868e-11 0)
(1.41476 4.84477e-11 0)
(1.41513 4.0629e-11 0)
(1.41529 1.1584e-11 0)
(1.41526 5.10312e-11 0)
(1.41508 -8.2695e-11 0)
(1.41474 1.88587e-10 0)
(1.41427 -3.02259e-10 0)
(1.41367 4.79919e-10 0)
(1.41297 -6.53615e-10 0)
(1.41216 8.76067e-10 0)
(1.41125 -1.71326e-09 0)
(1.41025 3.4654e-09 0)
(1.40916 -3.68035e-09 0)
(1.40799 1.50796e-09 0)
(1.40674 -5.03878e-10 0)
(1.40542 8.44201e-11 0)
(1.40403 -3.08531e-12 0)
(1.40257 -5.76514e-12 0)
(1.40105 1.75421e-11 0)
(1.39948 -5.24599e-11 0)
(1.39785 7.59288e-11 0)
(1.39618 -1.09509e-10 0)
(1.39446 1.21123e-10 0)
(1.3927 -1.01476e-10 0)
(1.39091 8.71552e-11 0)
(1.38909 -1.02174e-11 0)
(1.38725 5.57854e-12 0)
(1.3854 -3.67519e-12 0)
(1.38354 -4.19493e-12 0)
(1.38168 -3.54922e-12 0)
(1.37984 -3.27072e-12 0)
(1.37801 -3.15399e-12 0)
(1.37622 -3.0228e-12 0)
(1.37447 -2.86646e-12 0)
(1.37278 -2.7495e-12 0)
(1.37116 -2.79597e-12 0)
(1.36963 -2.6502e-12 0)
(1.36821 3.69368e-12 0)
(1.36692 -2.34225e-11 0)
(1.36578 4.71519e-11 0)
(1.36481 -9.32617e-11 0)
(1.36403 1.46522e-10 0)
(1.36346 -2.20871e-10 0)
(1.36312 2.99766e-10 0)
(1.363 -3.93223e-10 0)
(1.36299 4.85024e-10 0)
(1.36299 -5.85419e-10 0)
(1.36299 6.82156e-10 0)
(1.36299 -7.86386e-10 0)
(1.36299 8.87564e-10 0)
(1.36299 -9.95955e-10 0)
(1.36299 1.10194e-09 0)
(1.36299 -1.21484e-09 0)
(1.36299 1.32596e-09 0)
(1.36299 -1.44365e-09 0)
(1.36299 1.5602e-09 0)
(1.36299 -1.68296e-09 0)
(1.36299 1.80515e-09 0)
(1.36299 -1.93323e-09 0)
(1.36299 2.06126e-09 0)
(1.36299 -2.19486e-09 0)
(1.36299 2.32891e-09 0)
(1.36299 -2.46814e-09 0)
(1.36299 2.60838e-09 0)
(1.36299 -2.75342e-09 0)
(1.36299 2.89992e-09 0)
(1.36299 -3.05087e-09 0)
(1.36299 3.20373e-09 0)
(1.36299 -3.36068e-09 0)
(1.36299 3.51994e-09 0)
(1.36299 -3.68294e-09 0)
(1.36299 3.84862e-09 0)
(1.36299 -4.01773e-09 0)
(1.36299 4.18977e-09 0)
(1.36299 -4.36506e-09 0)
(1.36299 4.54339e-09 0)
(1.36299 -4.72483e-09 0)
(1.36299 4.90938e-09 0)
(1.36299 -5.09689e-09 0)
(1.36299 5.28754e-09 0)
(1.36299 -5.48099e-09 0)
(1.36299 5.67758e-09 0)
(1.36299 -5.87681e-09 0)
(1.36299 6.07911e-09 0)
(1.36299 -6.28385e-09 0)
(1.36299 5.70002e-09 0)
(1.36299 -5.77821e-09 0)
(1.36299 5.85583e-09 0)
(1.36299 -5.93224e-09 0)
(1.36299 6.0081e-09 0)
(1.36299 -6.0827e-09 0)
(1.36299 6.15675e-09 0)
(1.36299 -6.22953e-09 0)
(1.36299 6.30175e-09 0)
(1.36299 -6.37269e-09 0)
(1.36299 6.44303e-09 0)
(1.36299 -6.51209e-09 0)
(1.36299 6.58053e-09 0)
(1.36299 -6.64768e-09 0)
(1.36299 6.71417e-09 0)
(1.36299 -6.77937e-09 0)
(1.36299 6.84387e-09 0)
(1.36299 -6.90706e-09 0)
(1.36299 6.96957e-09 0)
(1.36299 -7.03064e-09 0)
(1.36299 7.09117e-09 0)
(1.36299 -7.15002e-09 0)
(1.36299 7.20854e-09 0)
(1.36299 -7.2651e-09 0)
(1.36299 7.32151e-09 0)
(1.36299 -7.37576e-09 0)
(1.36299 7.42991e-09 0)
(1.36299 -7.48179e-09 0)
(1.36299 7.53359e-09 0)
(1.36299 -7.58304e-09 0)
(1.36299 7.63227e-09 0)
(1.36299 -7.67929e-09 0)
(1.36299 7.72571e-09 0)
(1.36299 -7.77026e-09 0)
(1.36299 7.81362e-09 0)
(1.36299 -7.85561e-09 0)
(1.36299 7.89568e-09 0)
(1.36299 -7.93497e-09 0)
(1.36299 7.97141e-09 0)
(1.36299 -8.00791e-09 0)
(1.36299 8.0403e-09 0)
(1.36299 -8.07377e-09 0)
(1.36299 8.10159e-09 0)
(1.36299 -8.13187e-09 0)
(1.36299 8.1543e-09 0)
(1.36299 -8.1805e-09 0)
(1.36299 8.19704e-09 0)
(1.36299 -8.2172e-09 0)
(1.36299 8.2266e-09 0)
(1.36299 -8.23541e-09 0)
)
;

boundaryField
{
    inandouthalf11
    {
        type            cyclic;
    }
    inandouthalf12
    {
        type            cyclic;
    }
    inandouthalf21
    {
        type            cyclic;
    }
    inandouthalf22
    {
        type            cyclic;
    }
    inandouthalf31
    {
        type            cyclic;
    }
    inandouthalf32
    {
        type            cyclic;
    }
    inandouthalf41
    {
        type            cyclic;
    }
    inandouthalf42
    {
        type            cyclic;
    }
    top
    {
        type            symmetryPlane;
    }
    walls
    {
        type            calculated;
        value           uniform (0 0 0);
    }
    frontAndBackPlanes
    {
        type            empty;
    }
}


// ************************************************************************* //
