/*--------------------------------*- C++ -*----------------------------------*\
| =========                 |                                                 |
| \\      /  F ield         | OpenFOAM: The Open Source CFD Toolbox           |
|  \\    /   O peration     | Version:  2.4.x                                 |
|   \\  /    A nd           | Web:      www.OpenFOAM.org                      |
|    \\/     M anipulation  |                                                 |
\*---------------------------------------------------------------------------*/
FoamFile
{
    version     2.0;
    format      ascii;
    class       volVectorField;
    location    "9.5";
    object      Ua;
}
// * * * * * * * * * * * * * * * * * * * * * * * * * * * * * * * * * * * * * //

dimensions      [0 1 -1 0 0 0 0];

internalField   nonuniform List<vector> 
360
(
(1.08307e-32 -1.03337e-31 0)
(3.27778e-09 -2.17308e-08 0)
(6.78406e-09 -3.85646e-08 0)
(9.91073e-09 -5.31157e-08 0)
(1.30959e-08 -6.83033e-08 0)
(1.64328e-08 -8.40982e-08 0)
(1.98542e-08 -1.00012e-07 0)
(2.33354e-08 -1.15976e-07 0)
(2.68899e-08 -1.32086e-07 0)
(3.05359e-08 -1.48424e-07 0)
(3.42879e-08 -1.65048e-07 0)
(3.81556e-08 -1.81996e-07 0)
(4.21459e-08 -1.99288e-07 0)
(4.62642e-08 -2.1694e-07 0)
(5.05154e-08 -2.34966e-07 0)
(5.49041e-08 -2.53377e-07 0)
(5.94346e-08 -2.72186e-07 0)
(6.41102e-08 -2.91396e-07 0)
(6.89331e-08 -3.11008e-07 0)
(7.39054e-08 -3.31023e-07 0)
(7.90285e-08 -3.51438e-07 0)
(8.43034e-08 -3.72249e-07 0)
(8.97312e-08 -3.93452e-07 0)
(9.53125e-08 -4.15042e-07 0)
(1.01048e-07 -4.37013e-07 0)
(1.06936e-07 -4.59356e-07 0)
(1.12978e-07 -4.8206e-07 0)
(1.19173e-07 -5.05119e-07 0)
(1.25521e-07 -5.28523e-07 0)
(1.32019e-07 -5.5226e-07 0)
(1.38667e-07 -5.76316e-07 0)
(1.45463e-07 -6.00683e-07 0)
(1.52405e-07 -6.25343e-07 0)
(1.59492e-07 -6.50285e-07 0)
(1.66721e-07 -6.75497e-07 0)
(1.74089e-07 -7.00959e-07 0)
(1.81592e-07 -7.26655e-07 0)
(1.89228e-07 -7.5257e-07 0)
(1.96995e-07 -7.78692e-07 0)
(2.04887e-07 -8.04996e-07 0)
(2.12901e-07 -8.31465e-07 0)
(2.21032e-07 -8.58087e-07 0)
(2.29276e-07 -8.84833e-07 0)
(2.37627e-07 -9.11688e-07 0)
(2.46082e-07 -9.38635e-07 0)
(2.54636e-07 -9.65653e-07 0)
(2.63281e-07 -9.92723e-07 0)
(2.72012e-07 -1.01982e-06 0)
(2.80823e-07 -1.04691e-06 0)
(2.89708e-07 -1.074e-06 0)
(2.98663e-07 -1.10106e-06 0)
(3.0768e-07 -1.12806e-06 0)
(3.16752e-07 -1.15498e-06 0)
(3.25873e-07 -1.18182e-06 0)
(3.35037e-07 -1.20854e-06 0)
(3.44238e-07 -1.23513e-06 0)
(3.5347e-07 -1.26157e-06 0)
(3.62725e-07 -1.28785e-06 0)
(3.71996e-07 -1.31393e-06 0)
(3.81277e-07 -1.33981e-06 0)
(3.90561e-07 -1.36547e-06 0)
(3.99846e-07 -1.39089e-06 0)
(4.09124e-07 -1.41608e-06 0)
(4.18392e-07 -1.441e-06 0)
(4.27644e-07 -1.46566e-06 0)
(4.36873e-07 -1.49004e-06 0)
(4.46075e-07 -1.51412e-06 0)
(4.55246e-07 -1.53791e-06 0)
(4.6438e-07 -1.56138e-06 0)
(4.73471e-07 -1.58452e-06 0)
(4.82518e-07 -1.60734e-06 0)
(4.9152e-07 -1.62983e-06 0)
(5.00471e-07 -1.65199e-06 0)
(5.09369e-07 -1.6738e-06 0)
(5.18213e-07 -1.69529e-06 0)
(5.27002e-07 -1.71643e-06 0)
(5.35732e-07 -1.73723e-06 0)
(5.444e-07 -1.75769e-06 0)
(5.53004e-07 -1.77779e-06 0)
(5.61541e-07 -1.79754e-06 0)
(5.7001e-07 -1.81694e-06 0)
(5.7841e-07 -1.83598e-06 0)
(5.86741e-07 -1.85468e-06 0)
(5.95004e-07 -1.87304e-06 0)
(6.03199e-07 -1.89106e-06 0)
(6.11326e-07 -1.90874e-06 0)
(6.19385e-07 -1.92609e-06 0)
(6.27374e-07 -1.9431e-06 0)
(6.35293e-07 -1.95977e-06 0)
(6.43139e-07 -1.97611e-06 0)
(6.50912e-07 -1.99212e-06 0)
(6.58613e-07 -2.0078e-06 0)
(6.66241e-07 -2.02314e-06 0)
(6.73797e-07 -2.03816e-06 0)
(6.81282e-07 -2.05287e-06 0)
(6.88697e-07 -2.06725e-06 0)
(6.96043e-07 -2.08132e-06 0)
(7.03321e-07 -2.09508e-06 0)
(7.10529e-07 -2.10854e-06 0)
(7.17669e-07 -2.12168e-06 0)
(7.24742e-07 -2.13452e-06 0)
(7.31747e-07 -2.14706e-06 0)
(7.38685e-07 -2.1593e-06 0)
(7.45559e-07 -2.17125e-06 0)
(7.52368e-07 -2.1829e-06 0)
(7.59116e-07 -2.19427e-06 0)
(7.65803e-07 -2.20535e-06 0)
(7.72431e-07 -2.21614e-06 0)
(7.79003e-07 -2.22666e-06 0)
(7.8552e-07 -2.2369e-06 0)
(7.91984e-07 -2.24687e-06 0)
(7.98397e-07 -2.25657e-06 0)
(8.04763e-07 -2.266e-06 0)
(8.11083e-07 -2.27517e-06 0)
(8.17361e-07 -2.28407e-06 0)
(8.23601e-07 -2.29271e-06 0)
(8.29804e-07 -2.3011e-06 0)
(8.35975e-07 -2.30923e-06 0)
(8.42116e-07 -2.3171e-06 0)
(8.48226e-07 -2.32471e-06 0)
(8.54302e-07 -2.33205e-06 0)
(8.60337e-07 -2.33911e-06 0)
(8.66316e-07 -2.34587e-06 0)
(8.72217e-07 -2.35231e-06 0)
(8.78011e-07 -2.35838e-06 0)
(8.83667e-07 -2.36407e-06 0)
(8.89153e-07 -2.36935e-06 0)
(8.94446e-07 -2.3742e-06 0)
(8.99541e-07 -2.37863e-06 0)
(9.04456e-07 -2.38265e-06 0)
(9.09235e-07 -2.38633e-06 0)
(9.1395e-07 -2.3897e-06 0)
(9.18697e-07 -2.39284e-06 0)
(9.23575e-07 -2.39579e-06 0)
(9.28637e-07 -2.39857e-06 0)
(9.33792e-07 -2.40111e-06 0)
(9.38684e-07 -2.40323e-06 0)
(9.42727e-07 -2.40473e-06 0)
(9.45412e-07 -2.40552e-06 0)
(9.46747e-07 -2.4058e-06 0)
(9.47253e-07 -2.4058e-06 0)
(9.47479e-07 -2.40569e-06 0)
(9.477e-07 -2.40551e-06 0)
(2.37831e-05 -4.80982e-06 0)
(0.0736233 -0.00181461 0)
(0.176979 -0.00217038 0)
(0.266508 -0.00261048 0)
(0.342784 -0.00287308 0)
(0.409034 -0.00306787 0)
(0.467557 -0.00322146 0)
(0.519913 -0.00334715 0)
(0.567214 -0.00348309 0)
(0.610248 -0.00355607 0)
(0.649565 -0.00363408 0)
(0.685637 -0.00369905 0)
(0.718874 -0.00374686 0)
(0.749623 -0.00377645 0)
(0.778183 -0.00378758 0)
(0.804808 -0.00378009 0)
(0.82972 -0.00375393 0)
(0.853108 -0.0037093 0)
(0.875135 -0.0036466 0)
(0.895944 -0.00356642 0)
(0.915658 -0.00346952 0)
(0.934385 -0.00335676 0)
(0.952217 -0.00322913 0)
(0.969237 -0.0030877 0)
(0.985515 -0.00293356 0)
(1.00111 -0.00276789 0)
(1.01609 -0.00259188 0)
(1.03049 -0.00240674 0)
(1.04435 -0.00221372 0)
(1.05772 -0.00201412 0)
(1.07063 -0.00180926 0)
(1.0831 -0.00160052 0)
(1.09516 -0.00138938 0)
(1.10684 -0.00117741 0)
(1.11815 -0.000966331 0)
(1.1291 -0.000758069 0)
(1.13972 -0.00055484 0)
(1.15002 -0.000359295 0)
(1.16 -0.000174553 0)
(1.16969 -3.62908e-06 0)
(1.17908 0.000153483 0)
(1.18818 0.000304983 0)
(1.19702 0.000467496 0)
(1.20558 0.000654686 0)
(1.21389 0.000869266 0)
(1.22194 0.00110851 0)
(1.22975 0.00136982 0)
(1.23731 0.00165113 0)
(1.24462 0.00195057 0)
(1.25169 0.00226637 0)
(1.25852 0.00259678 0)
(1.26511 0.00294011 0)
(1.27145 0.00329463 0)
(1.27754 0.00365861 0)
(1.28339 0.00403025 0)
(1.28899 0.00440769 0)
(1.29434 0.00478897 0)
(1.29944 0.00517202 0)
(1.30433 0.00555847 0)
(1.30905 0.00594961 0)
(1.3136 0.00634219 0)
(1.31794 0.0067317 0)
(1.32209 0.00711146 0)
(1.32602 0.00747176 0)
(1.32973 0.00779966 0)
(1.33321 0.00808031 0)
(1.33647 0.00830006 0)
(1.33951 0.00845027 0)
(1.34235 0.00853001 0)
(1.34499 0.00854603 0)
(1.34744 0.00851039 0)
(1.34973 0.00843716 0)
(1.35186 0.00833967 0)
(1.35384 0.0082291 0)
(1.35569 0.00811404 0)
(1.35741 0.00800068 0)
(1.359 0.00789324 0)
(1.36049 0.00779437 0)
(1.36186 0.00770558 0)
(1.36313 0.00762745 0)
(1.3643 0.00755989 0)
(1.36537 0.0075023 0)
(1.36636 0.00745367 0)
(1.36726 0.00741272 0)
(1.36809 0.00737796 0)
(1.36884 0.00734795 0)
(1.36952 0.00732066 0)
(1.37013 0.00729538 0)
(1.37068 0.00726826 0)
(1.37116 0.00724074 0)
(1.37157 0.00720393 0)
(1.3719 0.00716462 0)
(1.37215 0.00709688 0)
(1.37241 0.00696438 0)
(1.41149 0.00275599 0)
(1.41177 0.00638227 0)
(1.41067 0.00465144 0)
(1.40932 0.00530271 0)
(1.4079 0.00519156 0)
(1.40643 0.00525158 0)
(1.40489 0.00543717 0)
(1.40332 0.00510124 0)
(1.40158 0.0062875 0)
(1.40006 0.00395679 0)
(1.39809 0.00865863 0)
(1.39669 0.000723322 0)
(1.3944 0.0112962 0)
(1.39237 -0.00601033 0)
(1.3896 -0.0370466 0)
(1.38766 -0.0396845 0)
(1.38576 -0.0395705 0)
(1.38391 -0.0395796 0)
(1.38207 -0.0395799 0)
(1.38026 -0.0395806 0)
(1.37848 -0.0395808 0)
(1.37674 -0.0395807 0)
(1.37507 -0.0395803 0)
(1.37347 -0.0395793 0)
(1.37196 -0.0395779 0)
(1.37057 -0.0395759 0)
(1.36931 -0.0395734 0)
(1.3682 -0.0395702 0)
(1.36726 -0.0395662 0)
(1.36652 -0.0395615 0)
(1.36599 -0.0395555 0)
(1.3657 -0.0395463 0)
(1.3656 -0.0395363 0)
(1.3656 -0.0395312 0)
(1.3656 -0.0395306 0)
(1.3656 -0.0395306 0)
(1.3656 -0.0395306 0)
(1.3656 -0.0395306 0)
(1.3656 -0.0395306 0)
(1.3656 -0.0395306 0)
(1.3656 -0.0395306 0)
(1.3656 -0.0395306 0)
(1.3656 -0.0395306 0)
(1.3656 -0.0395306 0)
(1.3656 -0.0395306 0)
(1.3656 -0.0395306 0)
(1.3656 -0.0395306 0)
(1.3656 -0.0395306 0)
(1.3656 -0.0395306 0)
(1.3656 -0.0395306 0)
(1.3656 -0.0395306 0)
(1.3656 -0.0395306 0)
(1.3656 -0.0395306 0)
(1.3656 -0.0395306 0)
(1.3656 -0.0395306 0)
(1.3656 -0.0395306 0)
(1.3656 -0.0395306 0)
(1.3656 -0.0395306 0)
(1.3656 -0.0395306 0)
(1.3656 -0.0395306 0)
(1.3656 -0.0395306 0)
(1.3656 -0.0395306 0)
(1.3656 -0.0395306 0)
(1.3656 -0.0395306 0)
(1.3656 -0.0395306 0)
(1.3656 -0.0395306 0)
(1.3656 -0.0395306 0)
(1.3656 -0.0395306 0)
(1.3656 -0.0395306 0)
(1.3656 -0.0395306 0)
(1.3656 -0.0395306 0)
(1.3656 -0.0395306 0)
(1.3656 -0.0395306 0)
(1.3656 -0.0395306 0)
(1.3656 -0.0395306 0)
(1.3656 -0.0395306 0)
(1.3656 -0.0395306 0)
(1.3656 -0.0395306 0)
(1.3656 -0.0395306 0)
(1.3656 -0.0395306 0)
(1.3656 -0.0395306 0)
(1.3656 -0.0395306 0)
(1.3656 -0.0395306 0)
(1.3656 -0.0395306 0)
(1.3656 -0.0395306 0)
(1.3656 -0.0395306 0)
(1.3656 -0.0395306 0)
(1.3656 -0.0395306 0)
(1.3656 -0.0395306 0)
(1.3656 -0.0395306 0)
(1.3656 -0.0395306 0)
(1.3656 -0.0395306 0)
(1.3656 -0.0395306 0)
(1.3656 -0.0395306 0)
(1.3656 -0.0395306 0)
(1.3656 -0.0395306 0)
(1.3656 -0.0395306 0)
(1.3656 -0.0395306 0)
(1.3656 -0.0395306 0)
(1.3656 -0.0395306 0)
(1.3656 -0.0395306 0)
(1.3656 -0.0395306 0)
(1.3656 -0.0395306 0)
(1.3656 -0.0395306 0)
(1.3656 -0.0395306 0)
(1.3656 -0.0395306 0)
(1.3656 -0.0395306 0)
(1.3656 -0.0395306 0)
(1.3656 -0.0395306 0)
(1.3656 -0.0395306 0)
(1.3656 -0.0395306 0)
(1.3656 -0.0395306 0)
(1.3656 -0.0395306 0)
(1.3656 -0.0395306 0)
(1.3656 -0.0395306 0)
(1.3656 -0.0395306 0)
(1.3656 -0.0395306 0)
(1.3656 -0.0395306 0)
(1.3656 -0.0395306 0)
(1.3656 -0.0395304 0)
(1.3656 -0.0395219 0)
(1.36561 -0.0391769 0)
(1.36603 -0.022462 0)
)
;

boundaryField
{
    inandouthalf11
    {
        type            cyclic;
    }
    inandouthalf12
    {
        type            cyclic;
    }
    inandouthalf21
    {
        type            cyclic;
    }
    inandouthalf22
    {
        type            cyclic;
    }
    inandouthalf31
    {
        type            cyclic;
    }
    inandouthalf32
    {
        type            cyclic;
    }
    inandouthalf41
    {
        type            cyclic;
    }
    inandouthalf42
    {
        type            cyclic;
    }
    top
    {
        type            symmetryPlane;
    }
    walls
    {
        type            fixedValue;
        value           uniform (0 0 0);
    }
    frontAndBackPlanes
    {
        type            empty;
    }
}


// ************************************************************************* //
