/*--------------------------------*- C++ -*----------------------------------*\
| =========                 |                                                 |
| \\      /  F ield         | OpenFOAM: The Open Source CFD Toolbox           |
|  \\    /   O peration     | Version:  2.4.x                                 |
|   \\  /    A nd           | Web:      www.OpenFOAM.org                      |
|    \\/     M anipulation  |                                                 |
\*---------------------------------------------------------------------------*/
FoamFile
{
    version     2.0;
    format      ascii;
    class       volVectorField;
    location    "9.5";
    object      Ub_0;
}
// * * * * * * * * * * * * * * * * * * * * * * * * * * * * * * * * * * * * * //

dimensions      [0 1 -1 0 0 0 0];

internalField   nonuniform List<vector> 
360
(
(-0.000139002 9.12706e-09 0)
(-0.000138232 3.22998e-08 0)
(-0.000138122 5.90912e-08 0)
(-0.000138222 8.37374e-08 0)
(-0.000138268 1.07917e-07 0)
(-0.00013828 1.32577e-07 0)
(-0.000138296 1.57573e-07 0)
(-0.000138318 1.82745e-07 0)
(-0.000138341 2.08141e-07 0)
(-0.000138363 2.33877e-07 0)
(-0.000138386 2.60051e-07 0)
(-0.000138409 2.86723e-07 0)
(-0.000138432 3.13929e-07 0)
(-0.000138455 3.41696e-07 0)
(-0.000138478 3.70045e-07 0)
(-0.000138502 3.98994e-07 0)
(-0.000138525 4.2856e-07 0)
(-0.000138549 4.58749e-07 0)
(-0.000138573 4.89564e-07 0)
(-0.000138597 5.21006e-07 0)
(-0.000138621 5.53068e-07 0)
(-0.000138646 5.85746e-07 0)
(-0.00013867 6.19033e-07 0)
(-0.000138695 6.5292e-07 0)
(-0.00013872 6.87396e-07 0)
(-0.000138745 7.22448e-07 0)
(-0.00013877 7.58061e-07 0)
(-0.000138796 7.94221e-07 0)
(-0.000138822 8.30914e-07 0)
(-0.000138847 8.6812e-07 0)
(-0.000138873 9.05818e-07 0)
(-0.0001389 9.43993e-07 0)
(-0.000138926 9.82618e-07 0)
(-0.000138953 1.02168e-06 0)
(-0.00013898 1.06115e-06 0)
(-0.000139007 1.101e-06 0)
(-0.000139034 1.1412e-06 0)
(-0.000139062 1.18174e-06 0)
(-0.00013909 1.22259e-06 0)
(-0.000139118 1.26372e-06 0)
(-0.000139147 1.30509e-06 0)
(-0.000139176 1.34669e-06 0)
(-0.000139204 1.38846e-06 0)
(-0.000139234 1.4304e-06 0)
(-0.000139264 1.47247e-06 0)
(-0.000139294 1.51463e-06 0)
(-0.000139324 1.55686e-06 0)
(-0.000139355 1.59911e-06 0)
(-0.000139386 1.64135e-06 0)
(-0.000139418 1.68357e-06 0)
(-0.000139449 1.72571e-06 0)
(-0.000139482 1.76776e-06 0)
(-0.000139515 1.80968e-06 0)
(-0.000139548 1.85143e-06 0)
(-0.000139582 1.89299e-06 0)
(-0.000139616 1.93434e-06 0)
(-0.000139651 1.97542e-06 0)
(-0.000139686 2.01623e-06 0)
(-0.000139722 2.05673e-06 0)
(-0.000139758 2.09688e-06 0)
(-0.000139795 2.13668e-06 0)
(-0.000139833 2.1761e-06 0)
(-0.000139871 2.21512e-06 0)
(-0.00013991 2.25371e-06 0)
(-0.000139949 2.29187e-06 0)
(-0.000139989 2.32957e-06 0)
(-0.00014003 2.3668e-06 0)
(-0.000140072 2.40353e-06 0)
(-0.000140114 2.43976e-06 0)
(-0.000140157 2.47546e-06 0)
(-0.000140201 2.51063e-06 0)
(-0.000140246 2.54527e-06 0)
(-0.000140291 2.57937e-06 0)
(-0.000140337 2.61292e-06 0)
(-0.000140385 2.64592e-06 0)
(-0.000140433 2.67838e-06 0)
(-0.000140482 2.71028e-06 0)
(-0.000140532 2.74161e-06 0)
(-0.000140583 2.77238e-06 0)
(-0.000140635 2.80257e-06 0)
(-0.000140688 2.8322e-06 0)
(-0.000140742 2.86125e-06 0)
(-0.000140797 2.88974e-06 0)
(-0.000140854 2.91768e-06 0)
(-0.000140911 2.94506e-06 0)
(-0.00014097 2.97189e-06 0)
(-0.00014103 2.99817e-06 0)
(-0.000141091 3.02391e-06 0)
(-0.000141154 3.0491e-06 0)
(-0.000141218 3.07374e-06 0)
(-0.000141283 3.09784e-06 0)
(-0.00014135 3.1214e-06 0)
(-0.000141418 3.14441e-06 0)
(-0.000141488 3.1669e-06 0)
(-0.000141559 3.18885e-06 0)
(-0.000141632 3.21029e-06 0)
(-0.000141707 3.23121e-06 0)
(-0.000141783 3.25161e-06 0)
(-0.000141862 3.27151e-06 0)
(-0.000141942 3.29089e-06 0)
(-0.000142024 3.30977e-06 0)
(-0.000142108 3.32815e-06 0)
(-0.000142195 3.34603e-06 0)
(-0.000142283 3.36342e-06 0)
(-0.000142374 3.38032e-06 0)
(-0.000142467 3.39673e-06 0)
(-0.000142563 3.41266e-06 0)
(-0.000142661 3.42811e-06 0)
(-0.000142762 3.44309e-06 0)
(-0.000142865 3.4576e-06 0)
(-0.000142972 3.47164e-06 0)
(-0.000143081 3.48522e-06 0)
(-0.000143194 3.49834e-06 0)
(-0.00014331 3.511e-06 0)
(-0.000143429 3.5232e-06 0)
(-0.000143552 3.53495e-06 0)
(-0.000143678 3.54624e-06 0)
(-0.000143809 3.55709e-06 0)
(-0.000143943 3.56747e-06 0)
(-0.000144082 3.57739e-06 0)
(-0.000144226 3.58683e-06 0)
(-0.000144374 3.59576e-06 0)
(-0.000144528 3.60416e-06 0)
(-0.000144687 3.61198e-06 0)
(-0.000144851 3.61918e-06 0)
(-0.000145022 3.6257e-06 0)
(-0.0001452 3.6315e-06 0)
(-0.000145385 3.63655e-06 0)
(-0.000145578 3.64087e-06 0)
(-0.00014578 3.64448e-06 0)
(-0.00014599 3.64744e-06 0)
(-0.00014621 3.64982e-06 0)
(-0.00014644 3.6517e-06 0)
(-0.000146683 3.65311e-06 0)
(-0.000146942 3.65405e-06 0)
(-0.000147217 3.6544e-06 0)
(-0.000147507 3.65387e-06 0)
(-0.000147817 3.6521e-06 0)
(-0.000148163 3.64108e-06 0)
(-0.000148562 4.02639e-06 0)
(-0.000148996 6.9391e-07 0)
(-0.000149482 1.43137e-05 0)
(-0.000154825 -3.94527e-05 0)
(0.000313704 0.000166017 0)
(0.0781185 0.00126332 0)
(0.182585 0.00104822 0)
(0.270572 0.00103437 0)
(0.345662 0.000993471 0)
(0.411083 0.000947626 0)
(0.468983 0.000897301 0)
(0.520834 0.000842967 0)
(0.567688 0.000786119 0)
(0.610291 0.000723269 0)
(0.649214 0.000661898 0)
(0.684934 0.000602559 0)
(0.717857 0.000545621 0)
(0.748327 0.000491521 0)
(0.77664 0.000440616 0)
(0.803049 0.000393128 0)
(0.82777 0.000349163 0)
(0.850993 0.000308736 0)
(0.872877 0.000271787 0)
(0.893565 0.000238201 0)
(0.913177 0.000207824 0)
(0.931819 0.000180472 0)
(0.949585 0.000155948 0)
(0.966553 0.000134046 0)
(0.982796 0.00011456 0)
(0.998376 9.72909e-05 0)
(1.01335 8.20439e-05 0)
(1.02776 6.86357e-05 0)
(1.04165 5.68941e-05 0)
(1.05506 4.66586e-05 0)
(1.06803 3.77809e-05 0)
(1.08059 3.01243e-05 0)
(1.09275 2.35637e-05 0)
(1.10455 1.79849e-05 0)
(1.11601 1.32842e-05 0)
(1.12714 9.36768e-06 0)
(1.13797 6.15088e-06 0)
(1.14851 3.55839e-06 0)
(1.15877 1.5216e-06 0)
(1.16877 -2.73769e-08 0)
(1.17852 -1.17406e-06 0)
(1.18802 -2.04264e-06 0)
(1.1973 -2.77772e-06 0)
(1.20635 -3.4683e-06 0)
(1.21518 -4.11828e-06 0)
(1.22381 -4.70312e-06 0)
(1.23223 -5.20815e-06 0)
(1.24046 -5.62797e-06 0)
(1.24849 -5.96185e-06 0)
(1.25634 -6.21176e-06 0)
(1.264 -6.38148e-06 0)
(1.27148 -6.47606e-06 0)
(1.27879 -6.50131e-06 0)
(1.28591 -6.46351e-06 0)
(1.29286 -6.36912e-06 0)
(1.29964 -6.22462e-06 0)
(1.30624 -6.03639e-06 0)
(1.31267 -5.81058e-06 0)
(1.31899 -5.55041e-06 0)
(1.32525 -5.2573e-06 0)
(1.33144 -4.93472e-06 0)
(1.33756 -4.58532e-06 0)
(1.34358 -4.21062e-06 0)
(1.34949 -3.81165e-06 0)
(1.35528 -3.39107e-06 0)
(1.36093 -2.95621e-06 0)
(1.36641 -2.52092e-06 0)
(1.37171 -2.10412e-06 0)
(1.3768 -1.72487e-06 0)
(1.38165 -1.39675e-06 0)
(1.38624 -1.12477e-06 0)
(1.39053 -9.06186e-07 0)
(1.39451 -7.33588e-07 0)
(1.39815 -5.98117e-07 0)
(1.40143 -4.91534e-07 0)
(1.40434 -4.07048e-07 0)
(1.40688 -3.39396e-07 0)
(1.40904 -2.84603e-07 0)
(1.41084 -2.39699e-07 0)
(1.41231 -2.02474e-07 0)
(1.41345 -1.71282e-07 0)
(1.41431 -1.44895e-07 0)
(1.41491 -1.22402e-07 0)
(1.41527 -1.03125e-07 0)
(1.41543 -8.65636e-08 0)
(1.4154 -7.23197e-08 0)
(1.41521 -6.01152e-08 0)
(1.41488 -4.9666e-08 0)
(1.4144 -4.07859e-08 0)
(1.41381 -3.32596e-08 0)
(1.4131 -2.695e-08 0)
(1.41229 -2.17443e-08 0)
(1.41138 -1.76554e-08 0)
(1.41038 -1.28819e-08 0)
(1.40929 -8.79018e-09 0)
(1.40812 -6.76199e-09 0)
(1.40687 -4.84897e-09 0)
(1.40555 -3.41625e-09 0)
(1.40416 -2.41014e-09 0)
(1.4027 -1.69569e-09 0)
(1.40119 -1.18073e-09 0)
(1.39961 -8.07291e-10 0)
(1.39798 -5.39879e-10 0)
(1.39631 -3.51044e-10 0)
(1.39459 -2.16533e-10 0)
(1.39283 -1.15014e-10 0)
(1.39104 -4.56346e-11 0)
(1.38922 -5.10286e-12 0)
(1.38738 5.54177e-12 0)
(1.38553 -3.6645e-12 0)
(1.38367 -4.18065e-12 0)
(1.38181 -3.53348e-12 0)
(1.37996 -3.25135e-12 0)
(1.37814 -3.13063e-12 0)
(1.37635 -2.99533e-12 0)
(1.3746 -2.83464e-12 0)
(1.37291 -2.7127e-12 0)
(1.37129 -2.75455e-12 0)
(1.36976 -2.60501e-12 0)
(1.36834 3.75634e-12 0)
(1.36705 -2.33838e-11 0)
(1.36591 4.72467e-11 0)
(1.36494 -9.325e-11 0)
(1.36416 1.46646e-10 0)
(1.36359 -2.2089e-10 0)
(1.36325 2.99914e-10 0)
(1.36313 -3.93264e-10 0)
(1.36312 4.85187e-10 0)
(1.36312 -5.8547e-10 0)
(1.36312 6.82331e-10 0)
(1.36312 -7.86448e-10 0)
(1.36312 8.87746e-10 0)
(1.36312 -9.9603e-10 0)
(1.36312 1.10214e-09 0)
(1.36312 -1.21492e-09 0)
(1.36312 1.32616e-09 0)
(1.36312 -1.44375e-09 0)
(1.36312 1.56042e-09 0)
(1.36312 -1.68308e-09 0)
(1.36312 1.80537e-09 0)
(1.36312 -1.93337e-09 0)
(1.36312 2.0615e-09 0)
(1.36312 -2.19501e-09 0)
(1.36312 2.32915e-09 0)
(1.36312 -2.46831e-09 0)
(1.36312 2.60863e-09 0)
(1.36312 -2.75361e-09 0)
(1.36312 2.90019e-09 0)
(1.36312 -3.05109e-09 0)
(1.36312 3.20401e-09 0)
(1.36312 -3.36092e-09 0)
(1.36312 3.52023e-09 0)
(1.36312 -3.6832e-09 0)
(1.36312 3.84891e-09 0)
(1.36312 -4.01803e-09 0)
(1.36312 4.19007e-09 0)
(1.36312 -4.3654e-09 0)
(1.36312 4.5437e-09 0)
(1.36312 -4.7252e-09 0)
(1.36312 4.90969e-09 0)
(1.36312 -5.09729e-09 0)
(1.36312 5.28786e-09 0)
(1.36312 -5.48143e-09 0)
(1.36312 5.67791e-09 0)
(1.36312 -5.87728e-09 0)
(1.36312 6.07945e-09 0)
(1.36312 -6.28436e-09 0)
(1.36312 5.70033e-09 0)
(1.36312 -5.77869e-09 0)
(1.36312 5.85614e-09 0)
(1.36312 -5.93273e-09 0)
(1.36312 6.0084e-09 0)
(1.36312 -6.0832e-09 0)
(1.36312 6.15706e-09 0)
(1.36312 -6.23005e-09 0)
(1.36312 6.30206e-09 0)
(1.36312 -6.3732e-09 0)
(1.36312 6.44335e-09 0)
(1.36312 -6.51262e-09 0)
(1.36312 6.58085e-09 0)
(1.36312 -6.64821e-09 0)
(1.36312 6.7145e-09 0)
(1.36312 -6.7799e-09 0)
(1.36312 6.84421e-09 0)
(1.36312 -6.9076e-09 0)
(1.36312 6.96986e-09 0)
(1.36312 -7.03133e-09 0)
(1.36312 7.09128e-09 0)
(1.36312 -7.15088e-09 0)
(1.36312 7.20851e-09 0)
(1.36312 -7.26612e-09 0)
(1.36312 7.32137e-09 0)
(1.36312 -7.37682e-09 0)
(1.36312 7.42974e-09 0)
(1.36312 -7.48294e-09 0)
(1.36312 7.53337e-09 0)
(1.36312 -7.58415e-09 0)
(1.36312 7.63217e-09 0)
(1.36312 -7.68026e-09 0)
(1.36312 7.72583e-09 0)
(1.36312 -7.77091e-09 0)
(1.36312 7.81409e-09 0)
(1.36312 -7.85596e-09 0)
(1.36312 7.89648e-09 0)
(1.36312 -7.93489e-09 0)
(1.36312 7.97275e-09 0)
(1.36312 -8.00725e-09 0)
(1.36312 8.04229e-09 0)
(1.36312 -8.0724e-09 0)
(1.36312 8.10447e-09 0)
(1.36312 -8.12944e-09 0)
(1.36312 8.15819e-09 0)
(1.36312 -8.17733e-09 0)
(1.36312 8.20153e-09 0)
(1.36312 -8.21352e-09 0)
(1.36312 8.23106e-09 0)
(1.36312 -8.23398e-09 0)
)
;

boundaryField
{
    inandouthalf11
    {
        type            cyclic;
    }
    inandouthalf12
    {
        type            cyclic;
    }
    inandouthalf21
    {
        type            cyclic;
    }
    inandouthalf22
    {
        type            cyclic;
    }
    inandouthalf31
    {
        type            cyclic;
    }
    inandouthalf32
    {
        type            cyclic;
    }
    inandouthalf41
    {
        type            cyclic;
    }
    inandouthalf42
    {
        type            cyclic;
    }
    top
    {
        type            symmetryPlane;
    }
    walls
    {
        type            fixedValue;
        value           uniform (0 0 0);
    }
    frontAndBackPlanes
    {
        type            empty;
    }
}


// ************************************************************************* //
