/*--------------------------------*- C++ -*----------------------------------*\
| =========                 |                                                 |
| \\      /  F ield         | OpenFOAM: The Open Source CFD Toolbox           |
|  \\    /   O peration     | Version:  2.4.x                                 |
|   \\  /    A nd           | Web:      www.OpenFOAM.org                      |
|    \\/     M anipulation  |                                                 |
\*---------------------------------------------------------------------------*/
FoamFile
{
    version     2.0;
    format      ascii;
    class       volScalarField;
    location    "7.15";
    object      alpha;
}
// * * * * * * * * * * * * * * * * * * * * * * * * * * * * * * * * * * * * * //

dimensions      [0 0 0 0 0 0 0];

internalField   nonuniform List<scalar> 
360
(
0.610777
0.611585
0.611688
0.611605
0.611559
0.611542
0.611524
0.611502
0.611479
0.611456
0.611433
0.611409
0.611385
0.611361
0.611337
0.611313
0.611288
0.611264
0.611239
0.611213
0.611188
0.611162
0.611136
0.61111
0.611084
0.611057
0.61103
0.611003
0.610975
0.610948
0.61092
0.610891
0.610863
0.610834
0.610805
0.610775
0.610746
0.610716
0.610685
0.610655
0.610624
0.610592
0.610561
0.610529
0.610497
0.610464
0.610431
0.610398
0.610364
0.61033
0.610296
0.610261
0.610225
0.61019
0.610154
0.610117
0.61008
0.610043
0.610005
0.609967
0.609928
0.609889
0.609849
0.609809
0.609768
0.609727
0.609685
0.609643
0.6096
0.609557
0.609513
0.609468
0.609423
0.609377
0.609331
0.609284
0.609236
0.609188
0.609139
0.60909
0.609039
0.608988
0.608936
0.608883
0.608829
0.608774
0.608718
0.608662
0.608604
0.608545
0.608485
0.608424
0.608362
0.608299
0.608234
0.608168
0.608101
0.608032
0.607961
0.607889
0.607816
0.607741
0.607664
0.607586
0.607506
0.607424
0.60734
0.607254
0.607166
0.607075
0.606983
0.606888
0.606791
0.606691
0.606588
0.606482
0.606374
0.606262
0.606147
0.606028
0.605906
0.605779
0.605649
0.605515
0.605376
0.605232
0.605083
0.604929
0.604768
0.604601
0.604428
0.604247
0.604058
0.60386
0.603648
0.603425
0.603191
0.602942
0.602666
0.60235
0.602008
0.601683
0.601292
0.600785
0.600152
0.598951
0.595577
0.594504
0.592459
0.585627
0.145166
0.0423268
0.0213991
0.0134987
0.00965895
0.0073921
0.00589475
0.00483658
0.00405086
0.00344534
0.00296532
0.00257632
0.00225548
0.00198704
0.00175977
0.00156546
0.00139794
0.00125251
0.00112548
0.00101394
0.000915577
0.000828487
0.000751118
0.000682181
0.000620596
0.000565451
0.00051597
0.000471487
0.000431426
0.00039529
0.000362642
0.000333102
0.000306334
0.000282043
0.000259969
0.000239879
0.00022157
0.000204857
0.00018958
0.000175594
0.000162768
0.000150989
0.000140152
0.000130164
0.000120943
0.000112412
0.000104506
9.71654e-05
9.03379e-05
8.39771e-05
7.80404e-05
7.2433e-05
6.70826e-05
6.19724e-05
5.7084e-05
5.23971e-05
4.78981e-05
4.35792e-05
3.94355e-05
3.54695e-05
3.16888e-05
2.81063e-05
2.47444e-05
2.16202e-05
1.87437e-05
1.61302e-05
1.37865e-05
1.17081e-05
9.88421e-06
8.30152e-06
6.9432e-06
5.78175e-06
4.79462e-06
3.9624e-06
3.26276e-06
2.67597e-06
2.1873e-06
1.78e-06
1.44469e-06
1.16413e-06
9.37745e-07
7.45357e-07
5.97641e-07
4.59271e-07
3.68973e-07
2.93256e-07
2.64286e-07
1.97613e-07
1.10256e-07
7.01698e-08
2.90682e-08
1.88295e-08
7.60666e-10
4.01078e-22
4.59144e-34
5.87685e-35
4.06477e-35
3.14863e-35
2.4904e-35
1.77037e-35
9.17404e-36
3.7791e-36
1.88927e-36
1.08168e-36
6.84345e-37
4.65037e-37
2.94991e-37
1.37748e-37
6.45528e-38
3.40461e-38
1.89982e-38
1.08478e-38
5.52031e-39
2.69254e-39
1.36813e-39
6.91372e-40
3.42692e-40
1.67358e-40
8.0324e-41
3.78663e-41
1.75233e-41
7.95535e-42
3.54081e-42
1.54399e-42
6.5912e-43
2.75252e-43
1.12353e-43
4.47871e-44
1.74193e-44
6.60376e-45
2.4377e-45
8.752e-46
3.05247e-46
1.03288e-46
3.38605e-47
1.07382e-47
3.28892e-48
9.71148e-49
2.7592e-49
7.52702e-50
1.96691e-50
4.91068e-51
1.16799e-51
2.63799e-52
5.63713e-53
1.135e-53
2.14304e-54
3.77376e-55
6.15794e-56
9.24063e-57
1.26351e-57
1.55649e-58
1.703e-59
1.62453e-60
1.31762e-61
8.76632e-63
4.52512e-64
1.64253e-65
3.35243e-67
1.14698e-69
4.56901e-74
4.26796e-76
1.97753e-78
6.6532e-89
1.11572e-99
1.3369e-110
1.15335e-121
8.43903e-133
4.69433e-144
2.24662e-155
2.28471e-165
9.44213e-176
7.62923e-184
2.81033e-194
2.6242e-202
1.12471e-212
9.02872e-221
4.73512e-231
3.10909e-239
2.98407e-249
1.08565e-257
1.94544e-267
3.86651e-276
9.55951e-286
1.40275e-294
4.5217e-304
5.16819e-313
3.59186e-321
4.57737e-319
2.8055e-319
6.80328e-321
7.09478e-321
6.08689e-321
8.5424e-321
0
0
0
0
0
0
0
0
0
0
0
0
0
0
0
0
)
;

boundaryField
{
    inandouthalf11
    {
        type            cyclic;
    }
    inandouthalf12
    {
        type            cyclic;
    }
    inandouthalf21
    {
        type            cyclic;
    }
    inandouthalf22
    {
        type            cyclic;
    }
    inandouthalf31
    {
        type            cyclic;
    }
    inandouthalf32
    {
        type            cyclic;
    }
    inandouthalf41
    {
        type            cyclic;
    }
    inandouthalf42
    {
        type            cyclic;
    }
    top
    {
        type            symmetryPlane;
    }
    walls
    {
        type            zeroGradient;
    }
    frontAndBackPlanes
    {
        type            empty;
    }
}


// ************************************************************************* //
