/*--------------------------------*- C++ -*----------------------------------*\
| =========                 |                                                 |
| \\      /  F ield         | OpenFOAM: The Open Source CFD Toolbox           |
|  \\    /   O peration     | Version:  2.4.x                                 |
|   \\  /    A nd           | Web:      www.OpenFOAM.org                      |
|    \\/     M anipulation  |                                                 |
\*---------------------------------------------------------------------------*/
FoamFile
{
    version     2.0;
    format      ascii;
    class       surfaceScalarField;
    location    "7.15";
    object      ddt0(phia);
}
// * * * * * * * * * * * * * * * * * * * * * * * * * * * * * * * * * * * * * //

dimensions      [0 3 -2 0 0 0 0];

internalField   nonuniform List<scalar> 
359
(
1.05049e-13
2.77178e-13
4.35546e-13
5.84827e-13
7.38007e-13
8.97291e-13
1.06094e-12
1.22788e-12
1.39792e-12
1.57144e-12
1.74874e-12
1.92981e-12
2.11455e-12
2.30272e-12
2.49419e-12
2.68884e-12
2.88663e-12
3.08746e-12
3.29125e-12
3.49799e-12
3.70755e-12
3.91996e-12
4.13522e-12
4.35335e-12
4.57438e-12
4.79836e-12
5.0253e-12
5.25533e-12
5.48848e-12
5.72476e-12
5.96417e-12
6.20676e-12
6.45232e-12
6.70095e-12
6.95234e-12
7.20637e-12
7.46275e-12
7.7213e-12
7.98186e-12
8.24395e-12
8.50764e-12
8.77272e-12
9.03908e-12
9.3071e-12
9.57696e-12
9.84922e-12
1.01246e-11
1.04037e-11
1.06878e-11
1.09782e-11
1.12759e-11
1.1582e-11
1.18974e-11
1.22227e-11
1.25579e-11
1.29028e-11
1.32562e-11
1.36165e-11
1.39813e-11
1.43473e-11
1.4711e-11
1.50676e-11
1.5412e-11
1.5738e-11
1.60394e-11
1.63097e-11
1.65436e-11
1.67363e-11
1.68851e-11
1.69889e-11
1.70493e-11
1.70698e-11
1.70562e-11
1.70165e-11
1.69601e-11
1.68981e-11
1.68427e-11
1.68071e-11
1.68047e-11
1.68495e-11
1.69559e-11
1.71384e-11
1.74117e-11
1.77914e-11
1.82932e-11
1.89333e-11
1.97285e-11
2.06953e-11
2.18501e-11
2.32093e-11
2.4788e-11
2.66002e-11
2.86576e-11
3.09678e-11
3.35327e-11
3.63452e-11
3.93866e-11
4.2623e-11
4.60025e-11
4.94533e-11
5.28825e-11
5.61774e-11
5.921e-11
6.18426e-11
6.39378e-11
6.53701e-11
6.60374e-11
6.58728e-11
6.48525e-11
6.3e-11
6.03842e-11
5.71132e-11
5.33233e-11
4.91665e-11
4.47974e-11
4.03616e-11
3.59865e-11
3.17767e-11
2.78111e-11
2.41435e-11
2.08054e-11
1.78096e-11
1.51539e-11
1.28252e-11
1.0803e-11
9.06215e-12
7.57499e-12
6.31362e-12
5.25143e-12
4.36426e-12
3.63061e-12
3.03098e-12
2.54668e-12
2.15942e-12
1.85197e-12
1.60907e-12
1.41684e-12
1.26163e-12
1.13054e-12
1.01426e-12
9.11746e-13
8.34381e-13
7.83456e-13
7.56735e-13
7.48174e-13
7.48236e-13
-1.74767e-09
-5.87912e-09
-9.68722e-09
2.08765e-07
3.36415e-07
3.81681e-07
2.50748e-07
1.83878e-07
1.18351e-07
7.95598e-08
5.03679e-08
2.90876e-08
1.32013e-08
1.0598e-09
-8.34251e-09
-1.56928e-08
-2.14721e-08
-2.60286e-08
-2.96219e-08
-3.24512e-08
-3.46724e-08
-3.64102e-08
-3.77657e-08
-3.88222e-08
-3.96488e-08
-4.03036e-08
-4.08353e-08
-4.12851e-08
-4.16875e-08
-4.20714e-08
-4.24605e-08
-4.28738e-08
-4.33264e-08
-4.38293e-08
-4.43901e-08
-4.50134e-08
-4.57008e-08
-4.64514e-08
-4.7262e-08
-4.81277e-08
-4.90418e-08
-4.99968e-08
-5.09841e-08
-5.19948e-08
-5.30198e-08
-5.40503e-08
-5.5078e-08
-5.60951e-08
-5.70946e-08
-5.807e-08
-5.90156e-08
-5.99256e-08
-6.0795e-08
-6.16199e-08
-6.23972e-08
-6.31403e-08
-6.38482e-08
-6.45214e-08
-6.51624e-08
-6.57727e-08
-6.63519e-08
-6.68988e-08
-6.74109e-08
-6.78841e-08
-6.83139e-08
-6.86937e-08
-6.9016e-08
-6.92784e-08
-6.94778e-08
-6.96104e-08
-6.96764e-08
-6.96779e-08
-6.96179e-08
-6.94973e-08
-6.93198e-08
-6.90912e-08
-6.88126e-08
-6.84851e-08
-6.8112e-08
-6.76924e-08
-6.72264e-08
-6.67106e-08
-6.61452e-08
-6.55237e-08
-6.48446e-08
-6.40907e-08
-6.32621e-08
-6.23044e-08
-6.15172e-08
-5.77471e-08
-5.48681e-08
-4.12237e-08
-6.64308e-08
-5.68116e-08
-1.03579e-07
-4.21325e-08
1.85791e-07
2.8335e-08
5.68159e-11
7.03967e-11
7.19732e-11
1.33779e-10
1.772e-10
2.18288e-10
2.52403e-10
2.79146e-10
2.98416e-10
3.10493e-10
3.15681e-10
3.13831e-10
3.03187e-10
2.81962e-10
1.93624e-10
1.84782e-10
3.0738e-10
3.21041e-10
3.20532e-10
3.20489e-10
3.20495e-10
3.20484e-10
3.20496e-10
3.20484e-10
3.20497e-10
3.20485e-10
3.20497e-10
3.20485e-10
3.20498e-10
3.20485e-10
3.20498e-10
3.20486e-10
3.20499e-10
3.20486e-10
3.20499e-10
3.20486e-10
3.20499e-10
3.20486e-10
3.205e-10
3.20486e-10
3.205e-10
3.20486e-10
3.205e-10
3.20486e-10
3.20501e-10
3.20486e-10
3.20501e-10
3.20486e-10
3.20501e-10
3.20486e-10
3.205e-10
3.20485e-10
3.205e-10
3.20486e-10
3.205e-10
3.20486e-10
3.205e-10
3.20487e-10
3.205e-10
3.20487e-10
3.205e-10
3.20487e-10
3.205e-10
3.20488e-10
3.205e-10
3.20488e-10
3.205e-10
3.20489e-10
3.205e-10
3.20489e-10
3.20499e-10
3.20489e-10
3.20499e-10
3.2049e-10
3.20499e-10
3.2049e-10
3.20499e-10
3.2049e-10
3.20499e-10
3.20491e-10
3.20499e-10
3.20491e-10
3.20499e-10
3.20492e-10
3.20501e-10
3.20497e-10
3.20506e-10
3.20502e-10
3.20511e-10
3.20507e-10
3.20516e-10
3.20513e-10
3.20521e-10
3.20518e-10
3.20526e-10
3.20523e-10
3.2053e-10
3.20527e-10
3.20533e-10
3.20531e-10
3.20539e-10
3.2054e-10
3.20547e-10
3.20546e-10
3.20552e-10
3.20551e-10
3.20554e-10
3.2055e-10
3.20557e-10
3.20557e-10
3.20559e-10
3.20549e-10
3.19057e-10
1.90716e-10
2.56226e-09
)
;

boundaryField
{
    inandouthalf11
    {
        type            cyclic;
        value           nonuniform List<scalar> 
100
(
-1.56427e-38
-2.59346e-14
-5.39517e-14
-7.8532e-14
-1.03093e-13
-1.28597e-13
-1.54587e-13
-1.80768e-13
-2.07125e-13
-2.33711e-13
-2.60579e-13
-2.87761e-13
-3.15262e-13
-3.43083e-13
-3.71227e-13
-3.99702e-13
-4.28523e-13
-4.57701e-13
-4.87247e-13
-5.1717e-13
-5.47478e-13
-5.7818e-13
-6.09288e-13
-6.40814e-13
-6.72769e-13
-7.05162e-13
-7.38006e-13
-7.71313e-13
-8.05099e-13
-8.39372e-13
-8.74144e-13
-9.09425e-13
-9.45223e-13
-9.81547e-13
-1.0184e-12
-1.05579e-12
-1.09371e-12
-1.13216e-12
-1.17115e-12
-1.21065e-12
-1.25068e-12
-1.29123e-12
-1.3323e-12
-1.3739e-12
-1.41604e-12
-1.45876e-12
-1.50208e-12
-1.54604e-12
-1.59071e-12
-1.63617e-12
-1.68252e-12
-1.72983e-12
-1.77819e-12
-1.82768e-12
-1.87837e-12
-1.9303e-12
-1.98349e-12
-2.03791e-12
-2.09349e-12
-2.15011e-12
-2.20763e-12
-2.26585e-12
-2.32449e-12
-2.38321e-12
-2.4416e-12
-2.49917e-12
-2.55547e-12
-2.61001e-12
-2.66241e-12
-2.71233e-12
-2.75964e-12
-2.80433e-12
-2.84653e-12
-2.88658e-12
-2.92494e-12
-2.96225e-12
-2.99929e-12
-3.03694e-12
-3.07624e-12
-3.11834e-12
-3.16451e-12
-3.21612e-12
-3.27471e-12
-3.34192e-12
-3.41955e-12
-3.50954e-12
-3.61396e-12
-3.73501e-12
-3.87502e-12
-4.03644e-12
-4.2218e-12
-4.43372e-12
-4.67479e-12
-4.94753e-12
-5.25409e-12
-5.59605e-12
-5.97403e-12
-6.38721e-12
-6.83289e-12
-7.30599e-12
)
;
    }
    inandouthalf12
    {
        type            cyclic;
        value           nonuniform List<scalar> 
100
(
1.56427e-38
2.59346e-14
5.39517e-14
7.8532e-14
1.03093e-13
1.28597e-13
1.54587e-13
1.80768e-13
2.07125e-13
2.33711e-13
2.60579e-13
2.87761e-13
3.15262e-13
3.43083e-13
3.71227e-13
3.99702e-13
4.28523e-13
4.57701e-13
4.87247e-13
5.1717e-13
5.47478e-13
5.7818e-13
6.09288e-13
6.40814e-13
6.72769e-13
7.05162e-13
7.38006e-13
7.71313e-13
8.05099e-13
8.39372e-13
8.74144e-13
9.09425e-13
9.45223e-13
9.81547e-13
1.0184e-12
1.05579e-12
1.09371e-12
1.13216e-12
1.17115e-12
1.21065e-12
1.25068e-12
1.29123e-12
1.3323e-12
1.3739e-12
1.41604e-12
1.45876e-12
1.50208e-12
1.54604e-12
1.59071e-12
1.63617e-12
1.68252e-12
1.72983e-12
1.77819e-12
1.82768e-12
1.87837e-12
1.9303e-12
1.98349e-12
2.03791e-12
2.09349e-12
2.15011e-12
2.20763e-12
2.26585e-12
2.32449e-12
2.38321e-12
2.4416e-12
2.49917e-12
2.55547e-12
2.61001e-12
2.66241e-12
2.71233e-12
2.75964e-12
2.80433e-12
2.84653e-12
2.88658e-12
2.92494e-12
2.96225e-12
2.99929e-12
3.03694e-12
3.07624e-12
3.11834e-12
3.16451e-12
3.21612e-12
3.27471e-12
3.34192e-12
3.41955e-12
3.50954e-12
3.61396e-12
3.73501e-12
3.87502e-12
4.03644e-12
4.2218e-12
4.43372e-12
4.67479e-12
4.94753e-12
5.25409e-12
5.59605e-12
5.97403e-12
6.38721e-12
6.83289e-12
7.30599e-12
)
;
    }
    inandouthalf21
    {
        type            cyclic;
        value           nonuniform List<scalar> 
100
(
-7.79862e-12
-8.29985e-12
-8.79563e-12
-9.26912e-12
-9.70144e-12
-1.00727e-11
-1.03637e-11
-1.05572e-11
-1.06403e-11
-1.06051e-11
-1.045e-11
-1.01799e-11
-9.80541e-12
-9.34188e-12
-8.8079e-12
-8.22356e-12
-7.60884e-12
-6.98229e-12
-6.36012e-12
-5.75559e-12
-5.17891e-12
-4.63733e-12
-4.13546e-12
-3.67571e-12
-3.25865e-12
-2.8835e-12
-2.54847e-12
-2.25109e-12
-1.98862e-12
-1.75835e-12
-1.55775e-12
-1.38452e-12
-1.23634e-12
-1.11065e-12
-1.00472e-12
-9.1575e-13
-8.40871e-13
-7.76748e-13
-7.19513e-13
-6.65495e-13
-6.12918e-13
-5.63725e-13
-5.22756e-13
-4.95545e-13
-4.8407e-13
-4.81769e-13
-4.81556e-13
-3.41298e-10
-1.14466e-09
-2.98579e-09
-9.62133e-08
-4.80427e-07
-5.65372e-07
-6.08544e-07
-6.41477e-07
-6.69301e-07
-6.93579e-07
-7.15057e-07
-7.34229e-07
-7.51466e-07
-7.67058e-07
-7.81236e-07
-7.94191e-07
-8.06077e-07
-8.17024e-07
-8.2714e-07
-8.36515e-07
-8.45226e-07
-8.5334e-07
-8.60914e-07
-8.67994e-07
-8.74624e-07
-8.80841e-07
-8.86676e-07
-8.92157e-07
-8.97311e-07
-9.02159e-07
-9.06722e-07
-9.11018e-07
-9.15064e-07
-9.18875e-07
-9.22467e-07
-9.25852e-07
-9.29043e-07
-9.32051e-07
-9.34888e-07
-9.37564e-07
-9.40088e-07
-9.4247e-07
-9.44718e-07
-9.46839e-07
-9.48841e-07
-9.50731e-07
-9.52516e-07
-9.54199e-07
-9.55788e-07
-9.57287e-07
-9.58701e-07
-9.60033e-07
-9.61288e-07
)
;
    }
    inandouthalf22
    {
        type            cyclic;
        value           nonuniform List<scalar> 
100
(
7.79862e-12
8.29985e-12
8.79563e-12
9.26912e-12
9.70144e-12
1.00727e-11
1.03637e-11
1.05572e-11
1.06403e-11
1.06051e-11
1.045e-11
1.01799e-11
9.80541e-12
9.34188e-12
8.8079e-12
8.22356e-12
7.60884e-12
6.98229e-12
6.36012e-12
5.75559e-12
5.17891e-12
4.63733e-12
4.13546e-12
3.67571e-12
3.25865e-12
2.8835e-12
2.54847e-12
2.25109e-12
1.98862e-12
1.75835e-12
1.55775e-12
1.38452e-12
1.23634e-12
1.11065e-12
1.00472e-12
9.1575e-13
8.40871e-13
7.76748e-13
7.19513e-13
6.65495e-13
6.12918e-13
5.63725e-13
5.22756e-13
4.95545e-13
4.8407e-13
4.81769e-13
4.81556e-13
3.41298e-10
1.14466e-09
2.98579e-09
9.62133e-08
4.80427e-07
5.65372e-07
6.08544e-07
6.41477e-07
6.69301e-07
6.93579e-07
7.15057e-07
7.34229e-07
7.51466e-07
7.67058e-07
7.81236e-07
7.94191e-07
8.06077e-07
8.17024e-07
8.2714e-07
8.36515e-07
8.45226e-07
8.5334e-07
8.60914e-07
8.67994e-07
8.74624e-07
8.80841e-07
8.86676e-07
8.92157e-07
8.97311e-07
9.02159e-07
9.06722e-07
9.11018e-07
9.15064e-07
9.18875e-07
9.22467e-07
9.25852e-07
9.29043e-07
9.32051e-07
9.34888e-07
9.37564e-07
9.40088e-07
9.4247e-07
9.44718e-07
9.46839e-07
9.48841e-07
9.50731e-07
9.52516e-07
9.54199e-07
9.55788e-07
9.57287e-07
9.58701e-07
9.60033e-07
9.61288e-07
)
;
    }
    inandouthalf31
    {
        type            cyclic;
        value           nonuniform List<scalar> 
110
(
-9.62473e-07
-9.83153e-07
-1.00423e-06
-1.0257e-06
-1.04758e-06
-1.06987e-06
-1.09258e-06
-1.1157e-06
-1.13926e-06
-1.16324e-06
-1.18765e-06
-1.21251e-06
-1.23781e-06
-1.26356e-06
-1.28978e-06
-1.31646e-06
-1.34362e-06
-1.37127e-06
-1.39942e-06
-1.42809e-06
-1.4573e-06
-1.48705e-06
-1.51737e-06
-1.54826e-06
-1.57975e-06
-1.61185e-06
-1.64457e-06
-1.67794e-06
-1.71196e-06
-1.74667e-06
-1.78207e-06
-1.81819e-06
-1.85505e-06
-1.89267e-06
-1.93112e-06
-1.97067e-06
-2.01122e-06
-2.03983e-06
-2.0777e-06
-2.10978e-06
-2.14818e-06
-2.17472e-06
-2.21158e-06
-2.25626e-06
-2.29719e-06
-2.33362e-06
-2.37489e-06
-2.4152e-06
-2.45777e-06
-2.50177e-06
-2.54736e-06
-2.59456e-06
-2.64343e-06
-2.69401e-06
-2.74635e-06
-2.80049e-06
-2.85652e-06
-2.9146e-06
-2.97498e-06
-3.04125e-06
-3.10793e-06
-3.17175e-06
-3.23615e-06
-3.30183e-06
-3.36885e-06
-3.43723e-06
-3.507e-06
-3.57818e-06
-3.65081e-06
-3.72491e-06
-3.80051e-06
-3.87765e-06
-3.95636e-06
-4.03666e-06
-4.1186e-06
-4.20219e-06
-4.28749e-06
-4.37451e-06
-4.4633e-06
-4.5539e-06
-4.64633e-06
-4.74064e-06
-4.83686e-06
-4.93503e-06
-5.0352e-06
-5.1374e-06
-5.24168e-06
-5.34807e-06
-5.45662e-06
-5.56738e-06
-5.68038e-06
-5.79568e-06
-5.91331e-06
-6.03334e-06
-6.1558e-06
-6.28074e-06
-6.40823e-06
-6.5383e-06
-6.67101e-06
-6.80641e-06
-6.94456e-06
-7.08552e-06
-7.22934e-06
-7.37607e-06
-7.52579e-06
-7.67854e-06
-7.83439e-06
-7.99341e-06
-8.15566e-06
-8.32119e-06
)
;
    }
    inandouthalf32
    {
        type            cyclic;
        value           nonuniform List<scalar> 
110
(
9.62473e-07
9.83153e-07
1.00423e-06
1.0257e-06
1.04758e-06
1.06987e-06
1.09258e-06
1.1157e-06
1.13926e-06
1.16324e-06
1.18765e-06
1.21251e-06
1.23781e-06
1.26356e-06
1.28978e-06
1.31646e-06
1.34362e-06
1.37127e-06
1.39942e-06
1.42809e-06
1.4573e-06
1.48705e-06
1.51737e-06
1.54826e-06
1.57975e-06
1.61185e-06
1.64457e-06
1.67794e-06
1.71196e-06
1.74667e-06
1.78207e-06
1.81819e-06
1.85505e-06
1.89267e-06
1.93112e-06
1.97067e-06
2.01122e-06
2.03983e-06
2.0777e-06
2.10978e-06
2.14818e-06
2.17472e-06
2.21158e-06
2.25626e-06
2.29719e-06
2.33362e-06
2.37489e-06
2.4152e-06
2.45777e-06
2.50177e-06
2.54736e-06
2.59456e-06
2.64343e-06
2.69401e-06
2.74635e-06
2.80049e-06
2.85652e-06
2.9146e-06
2.97498e-06
3.04125e-06
3.10793e-06
3.17175e-06
3.23615e-06
3.30183e-06
3.36885e-06
3.43723e-06
3.507e-06
3.57818e-06
3.65081e-06
3.72491e-06
3.80051e-06
3.87765e-06
3.95636e-06
4.03666e-06
4.1186e-06
4.20219e-06
4.28749e-06
4.37451e-06
4.4633e-06
4.5539e-06
4.64633e-06
4.74064e-06
4.83686e-06
4.93503e-06
5.0352e-06
5.1374e-06
5.24168e-06
5.34807e-06
5.45662e-06
5.56738e-06
5.68038e-06
5.79568e-06
5.91331e-06
6.03334e-06
6.1558e-06
6.28074e-06
6.40823e-06
6.5383e-06
6.67101e-06
6.80641e-06
6.94456e-06
7.08552e-06
7.22934e-06
7.37607e-06
7.52579e-06
7.67854e-06
7.83439e-06
7.99341e-06
8.15566e-06
8.32119e-06
)
;
    }
    inandouthalf41
    {
        type            cyclic;
        value           nonuniform List<scalar> 
50
(
-7.44832e-06
-7.44832e-06
-7.44832e-06
-7.44832e-06
-7.44832e-06
-7.44832e-06
-7.44832e-06
-7.44832e-06
-7.44832e-06
-7.44832e-06
-7.44832e-06
-7.44832e-06
-7.44832e-06
-7.44832e-06
-7.44832e-06
-7.44832e-06
-7.44832e-06
-7.44832e-06
-7.44832e-06
-7.44832e-06
-7.44832e-06
-7.44832e-06
-7.44832e-06
-7.44832e-06
-7.44832e-06
-7.44832e-06
-7.44832e-06
-7.44832e-06
-7.44832e-06
-7.44832e-06
-7.44832e-06
-7.44832e-06
-7.44832e-06
-7.44832e-06
-7.44832e-06
-7.44832e-06
-7.44832e-06
-7.44832e-06
-7.44832e-06
-7.44832e-06
-7.44832e-06
-7.44832e-06
-7.44832e-06
-7.44832e-06
-7.44832e-06
-7.44832e-06
-7.44832e-06
-7.44831e-06
-7.44814e-06
-7.44361e-06
)
;
    }
    inandouthalf42
    {
        type            cyclic;
        value           nonuniform List<scalar> 
50
(
7.44832e-06
7.44832e-06
7.44832e-06
7.44832e-06
7.44832e-06
7.44832e-06
7.44832e-06
7.44832e-06
7.44832e-06
7.44832e-06
7.44832e-06
7.44832e-06
7.44832e-06
7.44832e-06
7.44832e-06
7.44832e-06
7.44832e-06
7.44832e-06
7.44832e-06
7.44832e-06
7.44832e-06
7.44832e-06
7.44832e-06
7.44832e-06
7.44832e-06
7.44832e-06
7.44832e-06
7.44832e-06
7.44832e-06
7.44832e-06
7.44832e-06
7.44832e-06
7.44832e-06
7.44832e-06
7.44832e-06
7.44832e-06
7.44832e-06
7.44832e-06
7.44832e-06
7.44832e-06
7.44832e-06
7.44832e-06
7.44832e-06
7.44832e-06
7.44832e-06
7.44832e-06
7.44832e-06
7.44831e-06
7.44814e-06
7.44361e-06
)
;
    }
    top
    {
        type            symmetryPlane;
        value           uniform 0;
    }
    walls
    {
        type            calculated;
        value           uniform 0;
    }
    frontAndBackPlanes
    {
        type            empty;
        value           nonuniform 0();
    }
}


// ************************************************************************* //
