/*--------------------------------*- C++ -*----------------------------------*\
| =========                 |                                                 |
| \\      /  F ield         | OpenFOAM: The Open Source CFD Toolbox           |
|  \\    /   O peration     | Version:  2.4.x                                 |
|   \\  /    A nd           | Web:      www.OpenFOAM.org                      |
|    \\/     M anipulation  |                                                 |
\*---------------------------------------------------------------------------*/
FoamFile
{
    version     2.0;
    format      ascii;
    class       volScalarField;
    location    "7.15";
    object      ddt0(((1.5*(alpha+1e-08))*rho),Theta);
}
// * * * * * * * * * * * * * * * * * * * * * * * * * * * * * * * * * * * * * //

dimensions      [1 -1 -3 0 0 0 0];

internalField   nonuniform List<scalar> 
360
(
-3.55193e-21
-1.20045e-20
-8.49964e-21
-7.40316e-21
-8.00059e-21
-8.57426e-21
-8.84632e-21
-9.02469e-21
-9.21809e-21
-9.44911e-21
-9.70976e-21
-9.97812e-21
-1.02392e-20
-1.04893e-20
-1.07328e-20
-1.09764e-20
-1.12212e-20
-1.14652e-20
-1.17092e-20
-1.19526e-20
-1.21945e-20
-1.24388e-20
-1.26877e-20
-1.29404e-20
-1.31974e-20
-1.3458e-20
-1.37244e-20
-1.39995e-20
-1.42796e-20
-1.4561e-20
-1.48456e-20
-1.513e-20
-1.54111e-20
-1.56893e-20
-1.5956e-20
-1.62055e-20
-1.64399e-20
-1.66618e-20
-1.68636e-20
-1.70419e-20
-1.72089e-20
-1.73615e-20
-1.75056e-20
-1.76626e-20
-1.78385e-20
-1.80429e-20
-1.82841e-20
-1.85753e-20
-1.89513e-20
-1.9419e-20
-1.99627e-20
-2.05844e-20
-2.12789e-20
-2.202e-20
-2.27821e-20
-2.3531e-20
-2.42173e-20
-2.4794e-20
-2.52029e-20
-2.53994e-20
-2.53446e-20
-2.49694e-20
-2.42086e-20
-2.3005e-20
-2.13243e-20
-1.91808e-20
-1.66322e-20
-1.37723e-20
-1.07337e-20
-7.68703e-21
-4.80474e-21
-2.23475e-21
-1.10962e-22
1.45521e-21
2.38588e-21
2.63107e-21
2.1675e-21
9.97102e-22
-8.63487e-22
-3.39529e-21
-6.58828e-21
-1.04563e-20
-1.50438e-20
-2.04246e-20
-2.67007e-20
-3.39976e-20
-4.24559e-20
-5.22261e-20
-6.34767e-20
-7.63972e-20
-9.11844e-20
-1.08031e-19
-1.27092e-19
-1.48413e-19
-1.71831e-19
-1.96875e-19
-2.22641e-19
-2.4769e-19
-2.69999e-19
-2.86996e-19
-2.95717e-19
-2.93132e-19
-2.76621e-19
-2.44571e-19
-1.96973e-19
-1.35843e-19
-6.52999e-20
8.85184e-21
7.99832e-20
1.41776e-19
1.89326e-19
2.19911e-19
2.33235e-19
2.31136e-19
2.16915e-19
1.94517e-19
1.6779e-19
1.39966e-19
1.13416e-19
8.96137e-20
6.9274e-20
5.25413e-20
3.91951e-20
2.88193e-20
2.09257e-20
1.50313e-20
1.06984e-20
7.55306e-21
5.28902e-21
3.66704e-21
2.5095e-21
1.69059e-21
7.92691e-22
-6.35341e-17
-2.98937e-16
-1.35093e-15
-6.55888e-15
-3.64218e-14
-2.28821e-13
-1.51554e-12
-9.92649e-12
-6.25718e-11
-3.91631e-10
-2.74624e-09
-2.65683e-08
-3.99936e-07
-8.63632e-06
-0.000280696
-0.0120151
-0.237266
-0.567863
-0.393815
-0.237447
-0.170038
-0.133353
-0.109076
-0.0910741
-0.0770646
-0.0658216
-0.0566118
-0.0489586
-0.0425305
-0.0370863
-0.032444
-0.0284634
-0.0250335
-0.022066
-0.0194892
-0.0172445
-0.0152836
-0.0135663
-0.012059
-0.0107334
-0.00956554
-0.00853492
-0.00762409
-0.00681806
-0.00610386
-0.00547026
-0.00490753
-0.00440716
-0.0039618
-0.00356492
-0.00321085
-0.00289465
-0.00261193
-0.00235886
-0.00213207
-0.0019286
-0.00174584
-0.00158147
-0.00143346
-0.00130002
-0.00117956
-0.00107067
-0.000972099
-0.000882761
-0.000801686
-0.000728026
-0.000661029
-0.00060002
-0.000543843
-0.000491635
-0.000443132
-0.000398069
-0.000356177
-0.000317248
-0.000281114
-0.000247634
-0.000216714
-0.000188289
-0.00016232
-0.000138814
-0.000117737
-9.90101e-05
-8.25786e-05
-6.83375e-05
-5.61282e-05
-4.5768e-05
-3.70722e-05
-2.9851e-05
-2.38825e-05
-1.89829e-05
-1.49948e-05
-1.17626e-05
-9.1544e-06
-7.06695e-06
-5.4003e-06
-4.08634e-06
-3.04227e-06
-2.23747e-06
-1.59803e-06
-1.12499e-06
-7.33083e-07
-4.68904e-07
-2.58919e-07
0
0
0
0
0
0
0
0
0
0
0
0
0
0
0
0
0
0
0
0
0
0
0
0
0
0
0
0
0
0
0
0
0
0
0
0
0
0
0
0
0
0
0
0
0
0
0
0
0
0
0
0
0
0
0
0
0
0
0
0
0
0
0
0
0
0
0
0
0
0
0
0
0
0
0
0
0
0
0
0
0
0
0
0
0
0
0
0
0
0
0
0
0
0
0
0
0
0
0
0
0
0
0
0
0
0
0
0
0
0
0
0
0
0
0
0
0
0
0
0
0
0
0
0
)
;

boundaryField
{
    inandouthalf11
    {
        type            cyclic;
    }
    inandouthalf12
    {
        type            cyclic;
    }
    inandouthalf21
    {
        type            cyclic;
    }
    inandouthalf22
    {
        type            cyclic;
    }
    inandouthalf31
    {
        type            cyclic;
    }
    inandouthalf32
    {
        type            cyclic;
    }
    inandouthalf41
    {
        type            cyclic;
    }
    inandouthalf42
    {
        type            cyclic;
    }
    top
    {
        type            symmetryPlane;
    }
    walls
    {
        type            calculated;
        value           uniform -3.55193e-21;
    }
    frontAndBackPlanes
    {
        type            empty;
    }
}


// ************************************************************************* //
