/*--------------------------------*- C++ -*----------------------------------*\
| =========                 |                                                 |
| \\      /  F ield         | OpenFOAM: The Open Source CFD Toolbox           |
|  \\    /   O peration     | Version:  2.4.x                                 |
|   \\  /    A nd           | Web:      www.OpenFOAM.org                      |
|    \\/     M anipulation  |                                                 |
\*---------------------------------------------------------------------------*/
FoamFile
{
    version     2.0;
    format      ascii;
    class       volVectorField;
    location    "7.15";
    object      ddt0(Ub);
}
// * * * * * * * * * * * * * * * * * * * * * * * * * * * * * * * * * * * * * //

dimensions      [0 1 -2 0 0 0 0];

internalField   nonuniform List<vector> 
360
(
(0.000192997 -2.00935e-08 0)
(0.000191978 -7.47223e-08 0)
(0.000191856 -1.40616e-07 0)
(0.000192025 -2.01319e-07 0)
(0.000192121 -2.60942e-07 0)
(0.000192171 -3.22517e-07 0)
(0.000192225 -3.86165e-07 0)
(0.000192287 -4.51313e-07 0)
(0.000192349 -5.17696e-07 0)
(0.000192413 -5.85359e-07 0)
(0.000192477 -6.54432e-07 0)
(0.000192541 -7.24975e-07 0)
(0.000192606 -7.96967e-07 0)
(0.000192672 -8.70334e-07 0)
(0.000192738 -9.45008e-07 0)
(0.000192805 -1.02094e-06 0)
(0.000192872 -1.09811e-06 0)
(0.000192941 -1.17646e-06 0)
(0.00019301 -1.25598e-06 0)
(0.00019308 -1.33664e-06 0)
(0.00019315 -1.41841e-06 0)
(0.000193221 -1.50128e-06 0)
(0.000193293 -1.58525e-06 0)
(0.000193366 -1.67031e-06 0)
(0.00019344 -1.75649e-06 0)
(0.000193515 -1.8438e-06 0)
(0.00019359 -1.93224e-06 0)
(0.000193666 -2.02184e-06 0)
(0.000193744 -2.11264e-06 0)
(0.000193822 -2.20465e-06 0)
(0.000193901 -2.29785e-06 0)
(0.000193981 -2.39228e-06 0)
(0.000194062 -2.48787e-06 0)
(0.000194145 -2.58464e-06 0)
(0.000194228 -2.68251e-06 0)
(0.000194312 -2.78142e-06 0)
(0.000194397 -2.88128e-06 0)
(0.000194484 -2.98199e-06 0)
(0.000194572 -3.0835e-06 0)
(0.00019466 -3.18565e-06 0)
(0.00019475 -3.28841e-06 0)
(0.000194841 -3.39171e-06 0)
(0.000194932 -3.4955e-06 0)
(0.000195026 -3.59984e-06 0)
(0.00019512 -3.70482e-06 0)
(0.000195216 -3.81061e-06 0)
(0.000195312 -3.91744e-06 0)
(0.00019541 -4.02556e-06 0)
(0.000195509 -4.13537e-06 0)
(0.00019561 -4.24736e-06 0)
(0.000195712 -4.36195e-06 0)
(0.000195816 -4.47958e-06 0)
(0.000195921 -4.60062e-06 0)
(0.000196028 -4.72537e-06 0)
(0.000196137 -4.85394e-06 0)
(0.000196248 -4.98633e-06 0)
(0.00019636 -5.1222e-06 0)
(0.000196475 -5.26105e-06 0)
(0.000196592 -5.40207e-06 0)
(0.00019671 -5.54411e-06 0)
(0.000196831 -5.68592e-06 0)
(0.000196952 -5.82581e-06 0)
(0.000197076 -5.96189e-06 0)
(0.0001972 -6.09193e-06 0)
(0.000197326 -6.21352e-06 0)
(0.000197452 -6.32421e-06 0)
(0.000197578 -6.42167e-06 0)
(0.000197703 -6.50394e-06 0)
(0.000197828 -6.56957e-06 0)
(0.000197951 -6.6178e-06 0)
(0.000198074 -6.64878e-06 0)
(0.000198195 -6.66351e-06 0)
(0.000198315 -6.66378e-06 0)
(0.000198434 -6.65232e-06 0)
(0.000198552 -6.63246e-06 0)
(0.000198671 -6.60829e-06 0)
(0.00019879 -6.58431e-06 0)
(0.000198911 -6.56545e-06 0)
(0.000199035 -6.55689e-06 0)
(0.000199162 -6.564e-06 0)
(0.000199294 -6.59224e-06 0)
(0.000199433 -6.64722e-06 0)
(0.000199579 -6.73463e-06 0)
(0.000199735 -6.86032e-06 0)
(0.000199902 -7.03035e-06 0)
(0.000200081 -7.25091e-06 0)
(0.000200277 -7.52837e-06 0)
(0.00020049 -7.86913e-06 0)
(0.000200722 -8.27959e-06 0)
(0.000200978 -8.76603e-06 0)
(0.000201258 -9.33449e-06 0)
(0.000201566 -9.99059e-06 0)
(0.000201904 -1.07392e-05 0)
(0.000202276 -1.1584e-05 0)
(0.000202683 -1.25267e-05 0)
(0.000203127 -1.35663e-05 0)
(0.000203609 -1.46976e-05 0)
(0.000204128 -1.59103e-05 0)
(0.000204682 -1.71878e-05 0)
(0.000205267 -1.8506e-05 0)
(0.000205874 -1.98329e-05 0)
(0.000206493 -2.11287e-05 0)
(0.000207111 -2.23468e-05 0)
(0.000207711 -2.34359e-05 0)
(0.000208274 -2.43428e-05 0)
(0.000208782 -2.50168e-05 0)
(0.000209215 -2.54143e-05 0)
(0.000209556 -2.55027e-05 0)
(0.000209792 -2.52649e-05 0)
(0.000209916 -2.47012e-05 0)
(0.000209926 -2.38298e-05 0)
(0.000209826 -2.26851e-05 0)
(0.000209628 -2.13146e-05 0)
(0.000209346 -1.97743e-05 0)
(0.000208999 -1.81234e-05 0)
(0.000208606 -1.64199e-05 0)
(0.000208189 -1.47166e-05 0)
(0.000207764 -1.3058e-05 0)
(0.000207349 -1.14796e-05 0)
(0.000206957 -1.00068e-05 0)
(0.000206599 -8.65579e-06 0)
(0.000206281 -7.43505e-06 0)
(0.000206009 -6.34642e-06 0)
(0.000205786 -5.38684e-06 0)
(0.000205612 -4.54971e-06 0)
(0.000205488 -3.82609e-06 0)
(0.000205412 -3.2057e-06 0)
(0.000205382 -2.67777e-06 0)
(0.000205398 -2.23173e-06 0)
(0.000205456 -1.85775e-06 0)
(0.000205555 -1.54697e-06 0)
(0.000205693 -1.29148e-06 0)
(0.00020587 -1.08388e-06 0)
(0.000206088 -9.17031e-07 0)
(0.000206346 -7.84082e-07 0)
(0.000206642 -6.78788e-07 0)
(0.000206972 -5.95553e-07 0)
(0.000207338 -5.29086e-07 0)
(0.000207759 -4.74296e-07 0)
(0.000208255 -4.26949e-07 0)
(0.000208795 -3.85154e-07 0)
(0.000209313 -3.50727e-07 0)
(0.000209958 -3.25649e-07 0)
(0.000210822 -3.12759e-07 0)
(0.000211937 -2.23174e-07 0)
(0.000214165 -2.26334e-05 0)
(0.000210503 0.000270731 0)
(0.000548621 0.00130341 0)
(0.00136277 0.00352156 0)
(0.00474454 0.000143869 0)
(0.343032 -0.045203 0)
(0.501845 0.014903 0)
(0.568755 -0.0119144 0)
(0.616016 0.00333296 0)
(0.65382 -0.00166315 0)
(0.685349 -0.000607174 0)
(0.712276 -0.000253819 0)
(0.735648 -0.000193757 0)
(0.756177 -0.000168075 0)
(0.774373 -0.000132873 0)
(0.790618 -0.000102695 0)
(0.805205 -8.09915e-05 0)
(0.81837 -6.5035e-05 0)
(0.830301 -5.26729e-05 0)
(0.841154 -4.29024e-05 0)
(0.851059 -3.51443e-05 0)
(0.860125 -2.89516e-05 0)
(0.868448 -2.39731e-05 0)
(0.876107 -1.9943e-05 0)
(0.883173 -1.66607e-05 0)
(0.889706 -1.39721e-05 0)
(0.89576 -1.17576e-05 0)
(0.901381 -9.92354e-06 0)
(0.906612 -8.39613e-06 0)
(0.911488 -7.11711e-06 0)
(0.916042 -6.04019e-06 0)
(0.920303 -5.12849e-06 0)
(0.924296 -4.35254e-06 0)
(0.928045 -3.6887e-06 0)
(0.93157 -3.118e-06 0)
(0.934889 -2.62516e-06 0)
(0.938018 -2.19782e-06 0)
(0.940973 -1.82597e-06 0)
(0.943766 -1.5015e-06 0)
(0.946411 -1.21775e-06 0)
(0.948916 -9.69274e-07 0)
(0.951293 -7.51595e-07 0)
(0.953549 -5.60977e-07 0)
(0.955693 -3.94293e-07 0)
(0.957732 -2.48902e-07 0)
(0.959673 -1.22554e-07 0)
(0.961521 -1.33117e-08 0)
(0.963282 8.05224e-08 0)
(0.964961 1.60454e-07 0)
(0.966562 2.27848e-07 0)
(0.968088 2.83961e-07 0)
(0.969544 3.29973e-07 0)
(0.970931 3.66962e-07 0)
(0.97225 3.95851e-07 0)
(0.973506 4.1742e-07 0)
(0.974698 4.32409e-07 0)
(0.975841 4.41527e-07 0)
(0.976947 4.45276e-07 0)
(0.978017 4.43828e-07 0)
(0.979052 4.37465e-07 0)
(0.980052 4.2668e-07 0)
(0.981017 4.12047e-07 0)
(0.981947 3.94092e-07 0)
(0.982841 3.73288e-07 0)
(0.983697 3.50114e-07 0)
(0.984513 3.25109e-07 0)
(0.985288 2.98864e-07 0)
(0.986018 2.71915e-07 0)
(0.986701 2.44749e-07 0)
(0.987335 2.17911e-07 0)
(0.987917 1.91972e-07 0)
(0.988444 1.6737e-07 0)
(0.988912 1.44425e-07 0)
(0.989317 1.2339e-07 0)
(0.989655 1.04427e-07 0)
(0.989921 8.75448e-08 0)
(0.990111 7.26669e-08 0)
(0.990218 5.96956e-08 0)
(0.990235 4.85065e-08 0)
(0.990157 3.89249e-08 0)
(0.989974 3.07803e-08 0)
(0.989678 2.39077e-08 0)
(0.989258 1.81505e-08 0)
(0.988703 1.33507e-08 0)
(0.988001 9.37669e-09 0)
(0.987139 6.10168e-09 0)
(0.986101 3.41831e-09 0)
(0.984872 1.20678e-09 0)
(0.983436 -5.65249e-10 0)
(0.981777 -1.78259e-09 0)
(0.97988 -3.03525e-09 0)
(0.977732 -3.64084e-09 0)
(0.975326 -4.45208e-09 0)
(0.972661 -5.1924e-09 0)
(0.969748 -5.26357e-09 0)
(0.966613 -5.71546e-09 0)
(0.963297 -5.86936e-09 0)
(0.959862 -5.94542e-09 0)
(0.956383 -5.87433e-09 0)
(0.952947 -5.88013e-09 0)
(0.949637 -5.72895e-09 0)
(0.946527 -5.58516e-09 0)
(0.943668 -5.44629e-09 0)
(0.941093 -5.30169e-09 0)
(0.938813 -5.15473e-09 0)
(0.936829 -5.004e-09 0)
(0.935138 -4.84514e-09 0)
(0.933733 -4.65067e-09 0)
(0.932607 -4.5573e-09 0)
(0.931752 -4.31668e-09 0)
(0.931163 -4.16995e-09 0)
(0.930842 -4.10041e-09 0)
(0.930808 -3.6157e-09 0)
(0.931118 -3.98443e-09 0)
(0.93254 -3.00492e-09 0)
(0.934417 -3.90168e-09 0)
(0.934709 -2.44733e-09 0)
(0.934718 -3.80399e-09 0)
(0.934719 -2.00694e-09 0)
(0.934719 -3.64173e-09 0)
(0.934719 -1.48596e-09 0)
(0.934719 -3.34121e-09 0)
(0.934719 -1.00338e-09 0)
(0.934719 -3.12054e-09 0)
(0.934719 -5.60271e-10 0)
(0.934719 -2.95147e-09 0)
(0.934719 -2.15877e-10 0)
(0.934719 -2.8577e-09 0)
(0.934719 2.08552e-10 0)
(0.934719 -2.69589e-09 0)
(0.934719 5.84003e-10 0)
(0.934719 -2.63629e-09 0)
(0.934719 9.41007e-10 0)
(0.934719 -2.61387e-09 0)
(0.934719 1.19297e-09 0)
(0.934719 -2.64561e-09 0)
(0.934719 1.62618e-09 0)
(0.934719 -2.51828e-09 0)
(0.934719 1.99898e-09 0)
(0.934719 -2.5393e-09 0)
(0.934719 2.33246e-09 0)
(0.934719 -2.60875e-09 0)
(0.934719 2.54261e-09 0)
(0.934719 -2.78607e-09 0)
(0.934719 2.83328e-09 0)
(0.934719 -2.89732e-09 0)
(0.934719 3.03735e-09 0)
(0.934719 -3.14979e-09 0)
(0.934719 3.21005e-09 0)
(0.934719 -3.49392e-09 0)
(0.934719 3.06105e-09 0)
(0.934719 -4.00066e-09 0)
(0.934719 3.57299e-09 0)
(0.934719 -3.8598e-09 0)
(0.934719 3.96793e-09 0)
(0.934719 -4.01632e-09 0)
(0.934719 4.33144e-09 0)
(0.934719 -4.16817e-09 0)
(0.934719 4.65878e-09 0)
(0.934719 -4.37098e-09 0)
(0.934719 5.02355e-09 0)
(0.934719 -4.54682e-09 0)
(0.934719 5.3723e-09 0)
(0.934719 -4.75456e-09 0)
(0.934719 5.71314e-09 0)
(0.934719 -4.31194e-09 0)
(0.934719 5.27206e-09 0)
(0.934719 -4.31488e-09 0)
(0.934719 5.39985e-09 0)
(0.934719 -4.30616e-09 0)
(0.934719 5.53282e-09 0)
(0.934719 -4.30495e-09 0)
(0.934719 5.65528e-09 0)
(0.934719 -4.32083e-09 0)
(0.934719 5.76279e-09 0)
(0.934719 -4.32134e-09 0)
(0.934719 5.90334e-09 0)
(0.934719 -4.29889e-09 0)
(0.934719 6.03191e-09 0)
(0.934719 -4.28619e-09 0)
(0.934719 6.18342e-09 0)
(0.934719 -4.22474e-09 0)
(0.934719 6.64255e-09 0)
(0.934719 -3.08066e-09 0)
(0.934719 8.90632e-09 0)
(0.934719 -1.42162e-10 0)
(0.934719 1.22168e-08 0)
(0.934719 3.04846e-09 0)
(0.934719 1.55066e-08 0)
(0.934719 6.16115e-09 0)
(0.934719 1.86616e-08 0)
(0.934719 9.25219e-09 0)
(0.934719 2.19063e-08 0)
(0.934719 1.23518e-08 0)
(0.934719 2.48928e-08 0)
(0.934719 1.50883e-08 0)
(0.934719 2.76483e-08 0)
(0.934719 1.74618e-08 0)
(0.934719 2.97268e-08 0)
(0.934719 2.0333e-08 0)
(0.934719 3.45134e-08 0)
(0.934719 2.55224e-08 0)
(0.934719 3.87205e-08 0)
(0.934719 2.89656e-08 0)
(0.934719 4.18635e-08 0)
(0.934719 3.0787e-08 0)
(0.934719 4.1861e-08 0)
(0.934719 3.13489e-08 0)
(0.934719 4.49257e-08 0)
(0.934719 3.37374e-08 0)
(0.934719 4.40792e-08 0)
(0.934719 3.01434e-08 0)
(0.934719 3.99978e-08 0)
(0.934719 2.83917e-08 0)
(0.934719 2.34101e-08 0)
)
;

boundaryField
{
    inandouthalf11
    {
        type            cyclic;
    }
    inandouthalf12
    {
        type            cyclic;
    }
    inandouthalf21
    {
        type            cyclic;
    }
    inandouthalf22
    {
        type            cyclic;
    }
    inandouthalf31
    {
        type            cyclic;
    }
    inandouthalf32
    {
        type            cyclic;
    }
    inandouthalf41
    {
        type            cyclic;
    }
    inandouthalf42
    {
        type            cyclic;
    }
    top
    {
        type            symmetryPlane;
    }
    walls
    {
        type            calculated;
        value           uniform (0 0 0);
    }
    frontAndBackPlanes
    {
        type            empty;
    }
}


// ************************************************************************* //
