/*--------------------------------*- C++ -*----------------------------------*\
| =========                 |                                                 |
| \\      /  F ield         | OpenFOAM: The Open Source CFD Toolbox           |
|  \\    /   O peration     | Version:  2.4.x                                 |
|   \\  /    A nd           | Web:      www.OpenFOAM.org                      |
|    \\/     M anipulation  |                                                 |
\*---------------------------------------------------------------------------*/
FoamFile
{
    version     2.0;
    format      ascii;
    class       volVectorField;
    location    "7.15";
    object      ddt0(Ua);
}
// * * * * * * * * * * * * * * * * * * * * * * * * * * * * * * * * * * * * * //

dimensions      [0 1 -2 0 0 0 0];

internalField   nonuniform List<vector> 
360
(
(1.56427e-32 -4.13916e-33 0)
(2.59346e-08 4.9132e-08 0)
(5.39517e-08 9.15412e-08 0)
(7.8532e-08 1.27675e-07 0)
(1.03093e-07 1.64789e-07 0)
(1.28597e-07 2.04042e-07 0)
(1.54587e-07 2.44571e-07 0)
(1.80768e-07 2.85918e-07 0)
(2.07125e-07 3.28021e-07 0)
(2.33711e-07 3.70943e-07 0)
(2.60579e-07 4.14783e-07 0)
(2.87761e-07 4.59584e-07 0)
(3.15262e-07 5.05322e-07 0)
(3.43083e-07 5.51949e-07 0)
(3.71227e-07 5.99412e-07 0)
(3.99702e-07 6.47681e-07 0)
(4.28523e-07 6.96741e-07 0)
(4.57701e-07 7.46572e-07 0)
(4.87247e-07 7.97154e-07 0)
(5.1717e-07 8.48475e-07 0)
(5.47478e-07 9.00515e-07 0)
(5.7818e-07 9.53261e-07 0)
(6.09288e-07 1.00672e-06 0)
(6.40814e-07 1.06089e-06 0)
(6.72769e-07 1.11579e-06 0)
(7.05162e-07 1.17141e-06 0)
(7.38006e-07 1.22777e-06 0)
(7.71313e-07 1.28489e-06 0)
(8.05099e-07 1.34278e-06 0)
(8.39372e-07 1.40146e-06 0)
(8.74144e-07 1.46092e-06 0)
(9.09425e-07 1.52117e-06 0)
(9.45223e-07 1.58219e-06 0)
(9.81547e-07 1.64398e-06 0)
(1.0184e-06 1.70649e-06 0)
(1.05579e-06 1.76968e-06 0)
(1.09371e-06 1.8335e-06 0)
(1.13216e-06 1.89788e-06 0)
(1.17115e-06 1.96278e-06 0)
(1.21065e-06 2.02813e-06 0)
(1.25068e-06 2.09386e-06 0)
(1.29123e-06 2.15996e-06 0)
(1.3323e-06 2.22639e-06 0)
(1.3739e-06 2.29317e-06 0)
(1.41604e-06 2.36038e-06 0)
(1.45876e-06 2.42811e-06 0)
(1.50208e-06 2.49651e-06 0)
(1.54604e-06 2.56576e-06 0)
(1.59071e-06 2.63608e-06 0)
(1.63617e-06 2.70782e-06 0)
(1.68252e-06 2.78127e-06 0)
(1.72983e-06 2.85668e-06 0)
(1.77819e-06 2.93432e-06 0)
(1.82768e-06 3.01438e-06 0)
(1.87837e-06 3.09695e-06 0)
(1.9303e-06 3.18201e-06 0)
(1.98349e-06 3.26938e-06 0)
(2.03791e-06 3.35873e-06 0)
(2.09349e-06 3.44955e-06 0)
(2.15011e-06 3.5411e-06 0)
(2.20763e-06 3.63257e-06 0)
(2.26585e-06 3.72292e-06 0)
(2.32449e-06 3.8109e-06 0)
(2.38321e-06 3.89509e-06 0)
(2.4416e-06 3.97391e-06 0)
(2.49917e-06 4.04576e-06 0)
(2.55547e-06 4.10912e-06 0)
(2.61001e-06 4.16268e-06 0)
(2.66241e-06 4.20549e-06 0)
(2.71233e-06 4.23704e-06 0)
(2.75964e-06 4.25741e-06 0)
(2.80433e-06 4.26722e-06 0)
(2.84653e-06 4.26766e-06 0)
(2.88658e-06 4.26045e-06 0)
(2.92494e-06 4.24778e-06 0)
(2.96225e-06 4.23225e-06 0)
(2.99929e-06 4.21679e-06 0)
(3.03694e-06 4.20458e-06 0)
(3.07624e-06 4.19895e-06 0)
(3.11834e-06 4.20338e-06 0)
(3.16451e-06 4.22139e-06 0)
(3.21612e-06 4.25657e-06 0)
(3.27471e-06 4.31261e-06 0)
(3.34192e-06 4.39326e-06 0)
(3.41955e-06 4.50244e-06 0)
(3.50954e-06 4.64415e-06 0)
(3.61396e-06 4.82252e-06 0)
(3.73501e-06 5.04172e-06 0)
(3.87502e-06 5.3059e-06 0)
(4.03644e-06 5.61917e-06 0)
(4.2218e-06 5.98547e-06 0)
(4.43372e-06 6.40852e-06 0)
(4.67479e-06 6.89159e-06 0)
(4.94753e-06 7.4372e-06 0)
(5.25409e-06 8.04671e-06 0)
(5.59605e-06 8.71963e-06 0)
(5.97403e-06 9.45296e-06 0)
(6.38721e-06 1.02403e-05 0)
(6.83289e-06 1.10712e-05 0)
(7.30599e-06 1.19301e-05 0)
(7.79862e-06 1.27966e-05 0)
(8.29985e-06 1.36447e-05 0)
(8.79563e-06 1.4444e-05 0)
(9.26912e-06 1.51609e-05 0)
(9.70144e-06 1.57603e-05 0)
(1.00727e-05 1.62086e-05 0)
(1.03637e-05 1.64765e-05 0)
(1.05572e-05 1.65422e-05 0)
(1.06403e-05 1.63942e-05 0)
(1.06051e-05 1.60321e-05 0)
(1.045e-05 1.54679e-05 0)
(1.01799e-05 1.47242e-05 0)
(9.80541e-06 1.38324e-05 0)
(9.34188e-06 1.28293e-05 0)
(8.8079e-06 1.1754e-05 0)
(8.22356e-06 1.06447e-05 0)
(7.60884e-06 9.53605e-06 0)
(6.98229e-06 8.45721e-06 0)
(6.36012e-06 7.43115e-06 0)
(5.75559e-06 6.47438e-06 0)
(5.17891e-06 5.59736e-06 0)
(4.63733e-06 4.80536e-06 0)
(4.13546e-06 4.09944e-06 0)
(3.67571e-06 3.47749e-06 0)
(3.25865e-06 2.9351e-06 0)
(2.8835e-06 2.46641e-06 0)
(2.54847e-06 2.06467e-06 0)
(2.25109e-06 1.72283e-06 0)
(1.98862e-06 1.43398e-06 0)
(1.75835e-06 1.19173e-06 0)
(1.55775e-06 9.90395e-07 0)
(1.38452e-06 8.24925e-07 0)
(1.23634e-06 6.90598e-07 0)
(1.11065e-06 5.82761e-07 0)
(1.00472e-06 4.9692e-07 0)
(9.1575e-07 4.2903e-07 0)
(8.40871e-07 3.75534e-07 0)
(7.76748e-07 3.32981e-07 0)
(7.19513e-07 2.97894e-07 0)
(6.65495e-07 2.67207e-07 0)
(6.12918e-07 2.39633e-07 0)
(5.63725e-07 2.16741e-07 0)
(5.22756e-07 2.00527e-07 0)
(4.95545e-07 1.9102e-07 0)
(4.8407e-07 1.87483e-07 0)
(4.81769e-07 1.86667e-07 0)
(4.81556e-07 1.85546e-07 0)
(0.000341298 -0.000817672 0)
(0.00114466 -0.00197601 0)
(0.00298579 -0.0033502 0)
(0.0962133 0.106646 0)
(0.480427 0.089971 0)
(0.565372 0.0756961 0)
(0.608544 0.0535816 0)
(0.641477 0.036634 0)
(0.669301 0.0240704 0)
(0.693579 0.0156504 0)
(0.715057 0.00955448 0)
(0.734229 0.00502336 0)
(0.751466 0.00159129 0)
(0.767058 -0.00105247 0)
(0.781236 -0.00311252 0)
(0.794191 -0.00472941 0)
(0.806077 -0.00600343 0)
(0.817024 -0.00700851 0)
(0.82714 -0.00780072 0)
(0.836515 -0.0084236 0)
(0.845226 -0.00891166 0)
(0.85334 -0.00929273 0)
(0.860914 -0.0095896 0)
(0.867994 -0.00982111 0)
(0.874624 -0.010003 0)
(0.880841 -0.0101486 0)
(0.886676 -0.0102689 0)
(0.892157 -0.0103735 0)
(0.897311 -0.0104702 0)
(0.902159 -0.0105655 0)
(0.906722 -0.0106648 0)
(0.911018 -0.0107722 0)
(0.915064 -0.0108911 0)
(0.918875 -0.0110237 0)
(0.922467 -0.0111715 0)
(0.925852 -0.0113353 0)
(0.929043 -0.0115152 0)
(0.932051 -0.0117106 0)
(0.934888 -0.0119205 0)
(0.937564 -0.0121434 0)
(0.940088 -0.0123776 0)
(0.94247 -0.0126209 0)
(0.944718 -0.0128712 0)
(0.946839 -0.0131262 0)
(0.948841 -0.0133837 0)
(0.950731 -0.0136415 0)
(0.952516 -0.0138975 0)
(0.954199 -0.01415 0)
(0.955788 -0.0143973 0)
(0.957287 -0.0146378 0)
(0.958701 -0.01487 0)
(0.960033 -0.0150927 0)
(0.961288 -0.0153048 0)
(0.962469 -0.0155052 0)
(0.963592 -0.0156953 0)
(0.964666 -0.0158766 0)
(0.965693 -0.0160491 0)
(0.966672 -0.0162133 0)
(0.967601 -0.0163696 0)
(0.968479 -0.0165183 0)
(0.969305 -0.0166592 0)
(0.970077 -0.0167917 0)
(0.970793 -0.0169151 0)
(0.971452 -0.0170283 0)
(0.972052 -0.0171297 0)
(0.972594 -0.0172177 0)
(0.973078 -0.017291 0)
(0.973505 -0.0173488 0)
(0.973876 -0.0173902 0)
(0.974194 -0.017415 0)
(0.974464 -0.0174232 0)
(0.974687 -0.0174157 0)
(0.97487 -0.0173928 0)
(0.975016 -0.0173553 0)
(0.97513 -0.0173043 0)
(0.975214 -0.0172406 0)
(0.975275 -0.0171647 0)
(0.975313 -0.0170771 0)
(0.975333 -0.0169779 0)
(0.975338 -0.0168672 0)
(0.97533 -0.0167446 0)
(0.975313 -0.0166096 0)
(0.975289 -0.0164614 0)
(0.975261 -0.0162991 0)
(0.975235 -0.0161202 0)
(0.975211 -0.0159241 0)
(0.975195 -0.0157075 0)
(0.975209 -0.0154647 0)
(0.975386 -0.015105 0)
(0.975653 -0.0146634 0)
(0.969844 -0.00894647 0)
(0.968201 -0.0192408 0)
(0.963588 -0.0194088 0)
(0.961611 -0.003713 0)
(0.954125 -0.0591894 0)
(0.950993 0.0462051 0)
(0.950907 0.0313574 0)
(0.948893 2.62576e-06 0)
(0.944767 2.71189e-05 0)
(0.942349 8.46033e-06 0)
(0.939279 2.80449e-05 0)
(0.936817 3.83365e-05 0)
(0.93462 4.92517e-05 0)
(0.932718 5.85775e-05 0)
(0.931104 6.61805e-05 0)
(0.92977 7.19376e-05 0)
(0.928711 7.58708e-05 0)
(0.927918 7.80497e-05 0)
(0.927387 7.84974e-05 0)
(0.927124 7.70694e-05 0)
(0.927155 7.29274e-05 0)
(0.927536 5.84998e-05 0)
(0.929335 4.61533e-05 0)
(0.930819 6.40378e-05 0)
(0.931033 7.81438e-05 0)
(0.931039 8.00639e-05 0)
(0.93104 8.01238e-05 0)
(0.93104 8.0122e-05 0)
(0.93104 8.01226e-05 0)
(0.93104 8.01222e-05 0)
(0.93104 8.01228e-05 0)
(0.93104 8.01224e-05 0)
(0.93104 8.0123e-05 0)
(0.93104 8.01224e-05 0)
(0.93104 8.01231e-05 0)
(0.93104 8.01225e-05 0)
(0.93104 8.01232e-05 0)
(0.93104 8.01227e-05 0)
(0.93104 8.01233e-05 0)
(0.93104 8.01227e-05 0)
(0.93104 8.01234e-05 0)
(0.93104 8.01227e-05 0)
(0.93104 8.01235e-05 0)
(0.93104 8.01227e-05 0)
(0.93104 8.01236e-05 0)
(0.93104 8.01228e-05 0)
(0.93104 8.01237e-05 0)
(0.93104 8.01228e-05 0)
(0.93104 8.01238e-05 0)
(0.93104 8.01228e-05 0)
(0.93104 8.01239e-05 0)
(0.93104 8.01228e-05 0)
(0.93104 8.0124e-05 0)
(0.93104 8.01227e-05 0)
(0.93104 8.0124e-05 0)
(0.93104 8.01227e-05 0)
(0.93104 8.0124e-05 0)
(0.93104 8.01226e-05 0)
(0.93104 8.01239e-05 0)
(0.93104 8.01224e-05 0)
(0.93104 8.01241e-05 0)
(0.93104 8.01225e-05 0)
(0.93104 8.01242e-05 0)
(0.93104 8.01225e-05 0)
(0.93104 8.01243e-05 0)
(0.93104 8.01224e-05 0)
(0.93104 8.01244e-05 0)
(0.93104 8.01224e-05 0)
(0.93104 8.01245e-05 0)
(0.93104 8.01224e-05 0)
(0.93104 8.01246e-05 0)
(0.93104 8.01223e-05 0)
(0.93104 8.01247e-05 0)
(0.93104 8.01225e-05 0)
(0.93104 8.01246e-05 0)
(0.93104 8.01225e-05 0)
(0.93104 8.01246e-05 0)
(0.93104 8.01225e-05 0)
(0.93104 8.01246e-05 0)
(0.93104 8.01225e-05 0)
(0.93104 8.01247e-05 0)
(0.93104 8.01225e-05 0)
(0.93104 8.01247e-05 0)
(0.93104 8.01225e-05 0)
(0.93104 8.01248e-05 0)
(0.93104 8.01225e-05 0)
(0.93104 8.01248e-05 0)
(0.93104 8.01225e-05 0)
(0.93104 8.01249e-05 0)
(0.93104 8.01226e-05 0)
(0.93104 8.0125e-05 0)
(0.93104 8.01231e-05 0)
(0.93104 8.01259e-05 0)
(0.93104 8.01242e-05 0)
(0.93104 8.01272e-05 0)
(0.93104 8.01255e-05 0)
(0.93104 8.01285e-05 0)
(0.93104 8.01267e-05 0)
(0.93104 8.01298e-05 0)
(0.93104 8.0128e-05 0)
(0.93104 8.0131e-05 0)
(0.93104 8.01292e-05 0)
(0.93104 8.01322e-05 0)
(0.93104 8.01303e-05 0)
(0.93104 8.01334e-05 0)
(0.93104 8.01313e-05 0)
(0.93104 8.01342e-05 0)
(0.93104 8.01325e-05 0)
(0.93104 8.01362e-05 0)
(0.93104 8.01346e-05 0)
(0.93104 8.01379e-05 0)
(0.93104 8.01361e-05 0)
(0.93104 8.01392e-05 0)
(0.93104 8.01369e-05 0)
(0.93104 8.01393e-05 0)
(0.93104 8.01372e-05 0)
(0.93104 8.01406e-05 0)
(0.93104 8.01382e-05 0)
(0.93104 8.01404e-05 0)
(0.93104 8.01346e-05 0)
(0.931039 7.93937e-05 0)
(0.931017 1.5965e-05 0)
(0.930451 8.43491e-05 0)
)
;

boundaryField
{
    inandouthalf11
    {
        type            cyclic;
    }
    inandouthalf12
    {
        type            cyclic;
    }
    inandouthalf21
    {
        type            cyclic;
    }
    inandouthalf22
    {
        type            cyclic;
    }
    inandouthalf31
    {
        type            cyclic;
    }
    inandouthalf32
    {
        type            cyclic;
    }
    inandouthalf41
    {
        type            cyclic;
    }
    inandouthalf42
    {
        type            cyclic;
    }
    top
    {
        type            symmetryPlane;
    }
    walls
    {
        type            calculated;
        value           uniform (0 0 0);
    }
    frontAndBackPlanes
    {
        type            empty;
    }
}


// ************************************************************************* //
