/*--------------------------------*- C++ -*----------------------------------*\
| =========                 |                                                 |
| \\      /  F ield         | OpenFOAM: The Open Source CFD Toolbox           |
|  \\    /   O peration     | Version:  2.4.x                                 |
|   \\  /    A nd           | Web:      www.OpenFOAM.org                      |
|    \\/     M anipulation  |                                                 |
\*---------------------------------------------------------------------------*/
FoamFile
{
    version     2.0;
    format      ascii;
    class       volScalarField;
    location    "7.15";
    object      epsilon;
}
// * * * * * * * * * * * * * * * * * * * * * * * * * * * * * * * * * * * * * //

dimensions      [0 2 -3 0 0 0 0];

internalField   nonuniform List<scalar> 
360
(
1e-20
1e-20
1e-20
1e-20
1e-20
1e-20
1e-20
1e-20
1e-20
1e-20
1e-20
1e-20
1e-20
1e-20
1e-20
1e-20
1e-20
1e-20
1e-20
1e-20
1e-20
1e-20
1e-20
1e-20
1e-20
1e-20
1e-20
1e-20
1e-20
1e-20
1e-20
1e-20
1e-20
1e-20
1e-20
1e-20
1e-20
1e-20
1e-20
1e-20
1e-20
1e-20
1e-20
1e-20
1e-20
1e-20
1e-20
1e-20
1e-20
1e-20
1e-20
1e-20
1e-20
1e-20
1e-20
1e-20
1e-20
1e-20
1e-20
1e-20
1e-20
1e-20
1e-20
1e-20
1e-20
1e-20
1e-20
1e-20
1e-20
1e-20
1e-20
1e-20
1e-20
1e-20
1e-20
1e-20
1e-20
1e-20
1e-20
1e-20
1e-20
1e-20
1e-20
1e-20
1e-20
1e-20
1e-20
1e-20
1e-20
1e-20
1e-20
1e-20
1e-20
1e-20
1e-20
1e-20
1e-20
1e-20
1e-20
1e-20
1e-20
1e-20
1e-20
1e-20
1e-20
1e-20
1e-20
1e-20
1e-20
1e-20
1e-20
1e-20
1e-20
1e-20
1e-20
1e-20
1e-20
1e-20
1e-20
1e-20
1e-20
1e-20
1e-20
1e-20
1e-20
1e-20
1e-20
1e-20
1e-20
1e-20
1e-20
1e-20
1e-20
2.86627e-20
1.2541e-19
5.93512e-19
2.99763e-18
1.62369e-17
9.45775e-17
5.96221e-16
4.14216e-15
3.27733e-14
3.0673e-13
3.46151e-12
4.69031e-11
7.55754e-10
1.43503e-08
3.14683e-07
8.16955e-06
0.000249227
0.00471037
0.00983498
0.0122566
0.0138099
0.0149333
0.0157911
0.0164563
0.016973
0.0173706
0.0176701
0.0178875
0.0180354
0.018124
0.0181617
0.0181556
0.0181117
0.018035
0.0179299
0.0178003
0.0176494
0.01748
0.0172946
0.0170954
0.0168843
0.016663
0.0164329
0.0161953
0.0159513
0.0157019
0.0154481
0.0151906
0.0149301
0.0146672
0.0144025
0.0141364
0.0138694
0.0136019
0.0133343
0.0130668
0.0127997
0.0125332
0.0122677
0.0120033
0.0117402
0.0114786
0.0112186
0.0109604
0.0107042
0.0104499
0.0101978
0.00994795
0.00969794
0.00944542
0.00919054
0.00893343
0.00867425
0.00841315
0.00815028
0.00788581
0.00761992
0.0073528
0.00708463
0.00681562
0.00654601
0.00627602
0.00600592
0.00573598
0.00546651
0.00519781
0.00493024
0.00466418
0.00440003
0.00413823
0.00387924
0.00362359
0.00337182
0.00312452
0.00288233
0.00264593
0.00241603
0.0021934
0.00197884
0.00177318
0.00157727
0.00139195
0.00121808
0.00105643
0.000907711
0.000772494
0.000651175
0.000543916
0.000450592
0.000370758
0.000303639
0.000248151
0.000202963
0.000166595
0.000137517
0.000114258
9.54778e-05
8.00188e-05
6.69293e-05
5.54683e-05
4.51026e-05
3.54996e-05
2.65213e-05
1.82193e-05
1.08371e-05
4.83402e-06
1.06313e-06
6.87769e-08
1.76872e-09
3.79639e-11
7.63502e-13
1.44387e-14
2.56847e-16
4.30554e-18
7.52247e-20
1.00266e-20
1e-20
1e-20
1e-20
1e-20
1e-20
1e-20
1e-20
1e-20
1e-20
1e-20
1e-20
1e-20
1e-20
1e-20
1e-20
1e-20
1e-20
1e-20
1e-20
1e-20
1e-20
1e-20
1e-20
1e-20
1e-20
1e-20
1e-20
1e-20
1e-20
1e-20
1e-20
1e-20
1e-20
1e-20
1e-20
1e-20
1e-20
1e-20
1e-20
1e-20
1e-20
1e-20
1e-20
1e-20
1e-20
1e-20
1e-20
1e-20
1e-20
1e-20
1e-20
1e-20
1e-20
1e-20
1e-20
1e-20
1e-20
1e-20
1e-20
1e-20
1e-20
1e-20
1e-20
1e-20
1e-20
1e-20
1e-20
1e-20
1e-20
1e-20
1e-20
1e-20
1e-20
1e-20
1e-20
1e-20
1e-20
1e-20
1e-20
1e-20
1e-20
1e-20
1e-20
1e-20
1e-20
1e-20
1e-20
1e-20
1e-20
1e-20
1e-20
)
;

boundaryField
{
    inandouthalf11
    {
        type            cyclic;
    }
    inandouthalf12
    {
        type            cyclic;
    }
    inandouthalf21
    {
        type            cyclic;
    }
    inandouthalf22
    {
        type            cyclic;
    }
    inandouthalf31
    {
        type            cyclic;
    }
    inandouthalf32
    {
        type            cyclic;
    }
    inandouthalf41
    {
        type            cyclic;
    }
    inandouthalf42
    {
        type            cyclic;
    }
    top
    {
        type            symmetryPlane;
    }
    walls
    {
        type            zeroGradient;
    }
    frontAndBackPlanes
    {
        type            empty;
    }
}


// ************************************************************************* //
