/*--------------------------------*- C++ -*----------------------------------*\
| =========                 |                                                 |
| \\      /  F ield         | OpenFOAM: The Open Source CFD Toolbox           |
|  \\    /   O peration     | Version:  2.4.x                                 |
|   \\  /    A nd           | Web:      www.OpenFOAM.org                      |
|    \\/     M anipulation  |                                                 |
\*---------------------------------------------------------------------------*/
FoamFile
{
    version     2.0;
    format      ascii;
    class       volScalarField;
    location    "7.15";
    object      mua;
}
// * * * * * * * * * * * * * * * * * * * * * * * * * * * * * * * * * * * * * //

dimensions      [1 -1 -1 0 0 0 0];

internalField   nonuniform List<scalar> 
360
(
1.50005e+06
1.04737e+06
1.31164e+06
1.37139e+06
1.30549e+06
1.26683e+06
1.25398e+06
1.2452e+06
1.23429e+06
1.22086e+06
1.2059e+06
1.19083e+06
1.17614e+06
1.16187e+06
1.14769e+06
1.13332e+06
1.11879e+06
1.10429e+06
1.08983e+06
1.0754e+06
1.06123e+06
1.04706e+06
1.03295e+06
1.01898e+06
1.00514e+06
991497
978029
964581
951331
938360
925554
912916
900630
888368
876529
865024
853852
842827
832130
822016
811970
802383
793262
784141
775302
766629
758176
750024
741490
732586
723798
714752
705473
696010
686491
676747
667170
657591
648292
639237
630121
621427
613193
605852
599649
594760
591202
589136
588689
589625
591419
594199
598103
602566
607519
612894
618753
624636
629957
634203
636809
637022
634308
628387
619157
606738
591403
573558
553574
531791
508574
484282
459282
434001
408900
384436
361038
339079
318858
300597
284458
270548
258942
249699
242875
238536
236766
237681
241440
248256
258409
272257
290250
312947
341024
375298
416736
466478
525858
596428
679993
778652
894844
1.03138e+06
1.19144e+06
1.37853e+06
1.59652e+06
1.84988e+06
2.14466e+06
2.49004e+06
2.89996e+06
3.39267e+06
3.98668e+06
4.69578e+06
5.52922e+06
6.48829e+06
7.52262e+06
8.444e+06
8.95116e+06
8.96956e+06
8.98761e+06
9.78199e+06
1.22168e+07
1.94724e+07
4.61886e+07
1.29854e+08
391.412
97.857
31.9572
0.525705
0.00161207
0.00227198
0.00275333
0.00309104
0.00334814
0.0035545
0.00372592
0.00387163
0.00399749
0.00410745
0.00420434
0.00429024
0.00436673
0.00443505
0.0044962
0.00455097
0.00460002
0.00464391
0.00468311
0.004718
0.00474893
0.00477619
0.00480004
0.00482072
0.00483841
0.00485331
0.00486558
0.00487535
0.00488278
0.00488797
0.00489104
0.00489209
0.00489122
0.00488852
0.00488407
0.00487796
0.00487025
0.00486101
0.00485031
0.00483822
0.00482479
0.00481008
0.00479415
0.00477704
0.00475881
0.0047395
0.00471917
0.00469785
0.00467558
0.00465241
0.00462838
0.00460327
0.00457681
0.00454898
0.00451974
0.00448905
0.00445689
0.00442319
0.00438792
0.004351
0.00431237
0.00427195
0.00422966
0.00418537
0.00413898
0.00409035
0.00403932
0.0039857
0.00392929
0.00386983
0.00380705
0.00374061
0.00367011
0.0035951
0.003515
0.00342912
0.00333663
0.00323643
0.00312714
0.0030069
0.00287316
0.00272223
0.00254843
0.00234223
0.0020853
0.0017326
0
0
0
0
0
0
0
0
0
0
0
0
0
0
0
0
0
0
0
0
0
0
0
0
0
0
0
0
0
0
0
0
0
0
0
0
0
0
0
0
0
0
0
0
0
0
0
0
0
0
0
0
0
0
0
0
0
0
0
0
0
0
0
0
0
0
0
0
0
0
0
0
0
0
0
0
0
0
0
0
0
0
0
0
0
0
0
0
0
0
0
0
0
0
0
0
0
0
0
0
0
0
0
0
0
0
0
0
0
0
0
0
0
0
0
0
0
0
0
0
0
0
0
0
)
;

boundaryField
{
    inandouthalf11
    {
        type            cyclic;
    }
    inandouthalf12
    {
        type            cyclic;
    }
    inandouthalf21
    {
        type            cyclic;
    }
    inandouthalf22
    {
        type            cyclic;
    }
    inandouthalf31
    {
        type            cyclic;
    }
    inandouthalf32
    {
        type            cyclic;
    }
    inandouthalf41
    {
        type            cyclic;
    }
    inandouthalf42
    {
        type            cyclic;
    }
    top
    {
        type            symmetryPlane;
    }
    walls
    {
        type            calculated;
        value           uniform 1e+30;
    }
    frontAndBackPlanes
    {
        type            empty;
    }
}


// ************************************************************************* //
