/*--------------------------------*- C++ -*----------------------------------*\
| =========                 |                                                 |
| \\      /  F ield         | OpenFOAM: The Open Source CFD Toolbox           |
|  \\    /   O peration     | Version:  2.4.x                                 |
|   \\  /    A nd           | Web:      www.OpenFOAM.org                      |
|    \\/     M anipulation  |                                                 |
\*---------------------------------------------------------------------------*/
FoamFile
{
    version     2.0;
    format      ascii;
    class       surfaceScalarField;
    location    "7.15";
    object      phia;
}
// * * * * * * * * * * * * * * * * * * * * * * * * * * * * * * * * * * * * * //

dimensions      [0 3 -1 0 0 0 0];

internalField   nonuniform List<scalar> 
359
(
-2.37515e-13
-6.04615e-13
-9.36498e-13
-1.24727e-12
-1.56344e-12
-1.88634e-12
-2.2114e-12
-2.53692e-12
-2.86306e-12
-3.19057e-12
-3.51991e-12
-3.85113e-12
-4.18421e-12
-4.51905e-12
-4.85568e-12
-5.19418e-12
-5.53466e-12
-5.87713e-12
-6.22164e-12
-6.56825e-12
-6.91689e-12
-7.26764e-12
-7.62052e-12
-7.97554e-12
-8.3327e-12
-8.692e-12
-9.05341e-12
-9.417e-12
-9.78273e-12
-1.01506e-11
-1.05204e-11
-1.08925e-11
-1.12664e-11
-1.16424e-11
-1.20202e-11
-1.23998e-11
-1.27811e-11
-1.31641e-11
-1.35486e-11
-1.39344e-11
-1.43215e-11
-1.47097e-11
-1.50988e-11
-1.54889e-11
-1.58797e-11
-1.62712e-11
-1.66633e-11
-1.70559e-11
-1.74492e-11
-1.78434e-11
-1.82383e-11
-1.86343e-11
-1.90314e-11
-1.94299e-11
-1.98296e-11
-2.02309e-11
-2.06335e-11
-2.10377e-11
-2.14432e-11
-2.18499e-11
-2.22579e-11
-2.26669e-11
-2.30768e-11
-2.34867e-11
-2.38961e-11
-2.43039e-11
-2.47093e-11
-2.51111e-11
-2.55084e-11
-2.59e-11
-2.62855e-11
-2.66644e-11
-2.70358e-11
-2.73997e-11
-2.77558e-11
-2.8104e-11
-2.84441e-11
-2.87764e-11
-2.91013e-11
-2.94193e-11
-2.97314e-11
-3.00388e-11
-3.03429e-11
-3.06451e-11
-3.09471e-11
-3.12504e-11
-3.15564e-11
-3.18668e-11
-3.2183e-11
-3.25066e-11
-3.2839e-11
-3.31818e-11
-3.35368e-11
-3.39054e-11
-3.42892e-11
-3.46895e-11
-3.51073e-11
-3.55431e-11
-3.59969e-11
-3.64681e-11
-3.69552e-11
-3.74559e-11
-3.79671e-11
-3.84849e-11
-3.90045e-11
-3.95206e-11
-4.00275e-11
-4.05194e-11
-4.09909e-11
-4.14369e-11
-4.18534e-11
-4.22373e-11
-4.25867e-11
-4.29008e-11
-4.318e-11
-4.34254e-11
-4.36389e-11
-4.3823e-11
-4.39803e-11
-4.41139e-11
-4.42264e-11
-4.43207e-11
-4.43992e-11
-4.44644e-11
-4.45182e-11
-4.45624e-11
-4.45987e-11
-4.46284e-11
-4.46525e-11
-4.46721e-11
-4.46878e-11
-4.47003e-11
-4.47103e-11
-4.4718e-11
-4.47241e-11
-4.47288e-11
-4.47325e-11
-4.47354e-11
-4.47378e-11
-4.47399e-11
-4.47418e-11
-4.47431e-11
-4.4744e-11
-4.47444e-11
-4.47445e-11
-4.47445e-11
-6.37669e-11
-1.18508e-10
-2.36675e-10
-1.27873e-09
-7.0649e-09
-1.81543e-08
-2.59893e-08
-3.26035e-08
-3.69057e-08
-3.9867e-08
-4.19108e-08
-4.32852e-08
-4.41752e-08
-4.47106e-08
-4.49843e-08
-4.50643e-08
-4.50015e-08
-4.48346e-08
-4.4593e-08
-4.42992e-08
-4.39705e-08
-4.36202e-08
-4.32582e-08
-4.28916e-08
-4.25256e-08
-4.21634e-08
-4.18067e-08
-4.14559e-08
-4.11106e-08
-4.07693e-08
-4.04301e-08
-4.00905e-08
-3.97479e-08
-3.93992e-08
-3.90416e-08
-3.86723e-08
-3.82886e-08
-3.7888e-08
-3.74684e-08
-3.70281e-08
-3.65656e-08
-3.60799e-08
-3.55703e-08
-3.50367e-08
-3.44791e-08
-3.38981e-08
-3.32944e-08
-3.26692e-08
-3.20239e-08
-3.13601e-08
-3.06797e-08
-2.99848e-08
-2.92774e-08
-2.85599e-08
-2.78345e-08
-2.70889e-08
-2.63249e-08
-2.5545e-08
-2.47522e-08
-2.39503e-08
-2.31438e-08
-2.2338e-08
-2.15384e-08
-2.07511e-08
-1.99819e-08
-1.92367e-08
-1.85203e-08
-1.78362e-08
-1.71876e-08
-1.65761e-08
-1.60017e-08
-1.54638e-08
-1.4961e-08
-1.44913e-08
-1.40518e-08
-1.36403e-08
-1.32551e-08
-1.28938e-08
-1.25549e-08
-1.22382e-08
-1.19423e-08
-1.16692e-08
-1.14165e-08
-1.11928e-08
-1.09906e-08
-1.08365e-08
-1.06988e-08
-1.0667e-08
-1.06515e-08
-1.08503e-08
-4.82057e-09
-1.98308e-09
2.91597e-09
3.99179e-09
7.69273e-09
7.17037e-09
-1.01187e-07
-1.57914e-07
-1.58287e-07
-1.58234e-07
-1.5821e-07
-1.5819e-07
-1.58175e-07
-1.58164e-07
-1.58156e-07
-1.5815e-07
-1.58146e-07
-1.58144e-07
-1.58141e-07
-1.58137e-07
-1.58131e-07
-1.58121e-07
-1.58099e-07
-1.58056e-07
-1.58039e-07
-1.58038e-07
-1.58038e-07
-1.58038e-07
-1.58038e-07
-1.58038e-07
-1.58038e-07
-1.58038e-07
-1.58038e-07
-1.58038e-07
-1.58038e-07
-1.58038e-07
-1.58038e-07
-1.58038e-07
-1.58038e-07
-1.58038e-07
-1.58038e-07
-1.58038e-07
-1.58038e-07
-1.58038e-07
-1.58038e-07
-1.58038e-07
-1.58038e-07
-1.58038e-07
-1.58038e-07
-1.58038e-07
-1.58038e-07
-1.58038e-07
-1.58038e-07
-1.58038e-07
-1.58038e-07
-1.58038e-07
-1.58038e-07
-1.58038e-07
-1.58038e-07
-1.58038e-07
-1.58038e-07
-1.58038e-07
-1.58038e-07
-1.58038e-07
-1.58038e-07
-1.58038e-07
-1.58038e-07
-1.58038e-07
-1.58038e-07
-1.58038e-07
-1.58038e-07
-1.58038e-07
-1.58038e-07
-1.58038e-07
-1.58038e-07
-1.58038e-07
-1.58038e-07
-1.58038e-07
-1.58038e-07
-1.58038e-07
-1.58038e-07
-1.58038e-07
-1.58038e-07
-1.58038e-07
-1.58038e-07
-1.58038e-07
-1.58038e-07
-1.58038e-07
-1.58038e-07
-1.58038e-07
-1.58038e-07
-1.58038e-07
-1.58038e-07
-1.58038e-07
-1.58038e-07
-1.58038e-07
-1.58038e-07
-1.58038e-07
-1.58038e-07
-1.58038e-07
-1.58038e-07
-1.58038e-07
-1.58038e-07
-1.58038e-07
-1.58038e-07
-1.58038e-07
-1.58038e-07
-1.58038e-07
-1.58038e-07
-1.58038e-07
-1.58038e-07
-1.58038e-07
-1.58038e-07
-1.58038e-07
-1.58038e-07
-1.58038e-07
-1.58038e-07
-1.58038e-07
-1.58038e-07
-1.58038e-07
-1.58021e-07
-1.57313e-07
-1.32161e-07
)
;

boundaryField
{
    inandouthalf11
    {
        type            cyclic;
        value           nonuniform List<scalar> 
100
(
1.92355e-39
3.20214e-15
6.85592e-15
1.02375e-14
1.37935e-14
1.76652e-14
2.17883e-14
2.61184e-14
3.06531e-14
3.54022e-14
4.03757e-14
4.558e-14
5.1018e-14
5.66913e-14
6.26021e-14
6.8754e-14
7.51517e-14
8.17998e-14
8.87021e-14
9.58628e-14
1.03286e-13
1.10974e-13
1.18933e-13
1.27167e-13
1.3568e-13
1.44476e-13
1.53559e-13
1.62932e-13
1.72603e-13
1.82572e-13
1.92845e-13
2.03426e-13
2.14318e-13
2.25524e-13
2.37048e-13
2.48891e-13
2.61056e-13
2.73544e-13
2.86357e-13
2.99496e-13
3.1296e-13
3.2675e-13
3.40864e-13
3.55302e-13
3.70066e-13
3.85158e-13
4.00577e-13
4.16323e-13
4.32403e-13
4.48828e-13
4.65607e-13
4.82748e-13
5.00263e-13
5.18166e-13
5.36467e-13
5.55178e-13
5.7431e-13
5.93869e-13
6.13862e-13
6.3429e-13
6.5516e-13
6.76476e-13
6.98232e-13
7.20414e-13
7.42991e-13
7.65922e-13
7.89157e-13
8.1264e-13
8.36307e-13
8.60093e-13
8.83946e-13
9.07823e-13
9.31677e-13
9.55467e-13
9.79168e-13
1.00276e-12
1.02621e-12
1.04952e-12
1.07269e-12
1.09575e-12
1.11873e-12
1.14171e-12
1.16477e-12
1.18803e-12
1.21161e-12
1.23563e-12
1.26025e-12
1.28559e-12
1.31181e-12
1.33907e-12
1.36754e-12
1.39741e-12
1.42887e-12
1.46214e-12
1.49744e-12
1.53498e-12
1.57497e-12
1.6176e-12
1.66301e-12
1.71128e-12
)
;
    }
    inandouthalf12
    {
        type            cyclic;
        value           nonuniform List<scalar> 
100
(
-1.92355e-39
-3.20214e-15
-6.85592e-15
-1.02375e-14
-1.37935e-14
-1.76652e-14
-2.17883e-14
-2.61184e-14
-3.06531e-14
-3.54022e-14
-4.03757e-14
-4.558e-14
-5.1018e-14
-5.66913e-14
-6.26021e-14
-6.8754e-14
-7.51517e-14
-8.17998e-14
-8.87021e-14
-9.58628e-14
-1.03286e-13
-1.10974e-13
-1.18933e-13
-1.27167e-13
-1.3568e-13
-1.44476e-13
-1.53559e-13
-1.62932e-13
-1.72603e-13
-1.82572e-13
-1.92845e-13
-2.03426e-13
-2.14318e-13
-2.25524e-13
-2.37048e-13
-2.48891e-13
-2.61056e-13
-2.73544e-13
-2.86357e-13
-2.99496e-13
-3.1296e-13
-3.2675e-13
-3.40864e-13
-3.55302e-13
-3.70066e-13
-3.85158e-13
-4.00577e-13
-4.16323e-13
-4.32403e-13
-4.48828e-13
-4.65607e-13
-4.82748e-13
-5.00263e-13
-5.18166e-13
-5.36467e-13
-5.55178e-13
-5.7431e-13
-5.93869e-13
-6.13862e-13
-6.3429e-13
-6.5516e-13
-6.76476e-13
-6.98232e-13
-7.20414e-13
-7.42991e-13
-7.65922e-13
-7.89157e-13
-8.1264e-13
-8.36307e-13
-8.60093e-13
-8.83946e-13
-9.07823e-13
-9.31677e-13
-9.55467e-13
-9.79168e-13
-1.00276e-12
-1.02621e-12
-1.04952e-12
-1.07269e-12
-1.09575e-12
-1.11873e-12
-1.14171e-12
-1.16477e-12
-1.18803e-12
-1.21161e-12
-1.23563e-12
-1.26025e-12
-1.28559e-12
-1.31181e-12
-1.33907e-12
-1.36754e-12
-1.39741e-12
-1.42887e-12
-1.46214e-12
-1.49744e-12
-1.53498e-12
-1.57497e-12
-1.6176e-12
-1.66301e-12
-1.71128e-12
)
;
    }
    inandouthalf21
    {
        type            cyclic;
        value           nonuniform List<scalar> 
100
(
1.76243e-12
1.81639e-12
1.87297e-12
1.9319e-12
1.99275e-12
2.055e-12
2.11802e-12
2.18111e-12
2.24351e-12
2.30446e-12
2.36326e-12
2.41927e-12
2.47194e-12
2.5209e-12
2.56588e-12
2.60675e-12
2.64352e-12
2.67631e-12
2.7053e-12
2.73075e-12
2.75295e-12
2.77222e-12
2.78885e-12
2.80315e-12
2.81541e-12
2.82589e-12
2.83483e-12
2.84244e-12
2.84891e-12
2.85441e-12
2.85905e-12
2.86295e-12
2.86622e-12
2.86893e-12
2.87117e-12
2.87303e-12
2.87456e-12
2.87586e-12
2.877e-12
2.87806e-12
2.87908e-12
2.88002e-12
2.88079e-12
2.88129e-12
2.8815e-12
2.88155e-12
2.88156e-12
1.15401e-13
-6.74633e-12
-1.9976e-11
5.8829e-11
1.10747e-08
2.16711e-08
3.05258e-08
3.85159e-08
4.59788e-08
5.30754e-08
5.98923e-08
6.64811e-08
7.28751e-08
7.90972e-08
8.51638e-08
9.10872e-08
9.68769e-08
1.0254e-07
1.08083e-07
1.13509e-07
1.18824e-07
1.24029e-07
1.29128e-07
1.34122e-07
1.39014e-07
1.43804e-07
1.48495e-07
1.53086e-07
1.57579e-07
1.61975e-07
1.66274e-07
1.70477e-07
1.74584e-07
1.78596e-07
1.82513e-07
1.86336e-07
1.90064e-07
1.93699e-07
1.9724e-07
2.00687e-07
2.04041e-07
2.07302e-07
2.1047e-07
2.13544e-07
2.16526e-07
2.19414e-07
2.22209e-07
2.24911e-07
2.27519e-07
2.30033e-07
2.32453e-07
2.34778e-07
2.37009e-07
)
;
    }
    inandouthalf22
    {
        type            cyclic;
        value           nonuniform List<scalar> 
100
(
-1.76243e-12
-1.81639e-12
-1.87297e-12
-1.9319e-12
-1.99275e-12
-2.055e-12
-2.11802e-12
-2.18111e-12
-2.24351e-12
-2.30446e-12
-2.36326e-12
-2.41927e-12
-2.47194e-12
-2.5209e-12
-2.56588e-12
-2.60675e-12
-2.64352e-12
-2.67631e-12
-2.7053e-12
-2.73075e-12
-2.75295e-12
-2.77222e-12
-2.78885e-12
-2.80315e-12
-2.81541e-12
-2.82589e-12
-2.83483e-12
-2.84244e-12
-2.84891e-12
-2.85441e-12
-2.85905e-12
-2.86295e-12
-2.86622e-12
-2.86893e-12
-2.87117e-12
-2.87303e-12
-2.87456e-12
-2.87586e-12
-2.877e-12
-2.87806e-12
-2.87908e-12
-2.88002e-12
-2.88079e-12
-2.88129e-12
-2.8815e-12
-2.88155e-12
-2.88156e-12
-1.15401e-13
6.74633e-12
1.9976e-11
-5.8829e-11
-1.10747e-08
-2.16711e-08
-3.05258e-08
-3.85159e-08
-4.59788e-08
-5.30754e-08
-5.98923e-08
-6.64811e-08
-7.28751e-08
-7.90972e-08
-8.51638e-08
-9.10872e-08
-9.68769e-08
-1.0254e-07
-1.08083e-07
-1.13509e-07
-1.18824e-07
-1.24029e-07
-1.29128e-07
-1.34122e-07
-1.39014e-07
-1.43804e-07
-1.48495e-07
-1.53086e-07
-1.57579e-07
-1.61975e-07
-1.66274e-07
-1.70477e-07
-1.74584e-07
-1.78596e-07
-1.82513e-07
-1.86336e-07
-1.90064e-07
-1.93699e-07
-1.9724e-07
-2.00687e-07
-2.04041e-07
-2.07302e-07
-2.1047e-07
-2.13544e-07
-2.16526e-07
-2.19414e-07
-2.22209e-07
-2.24911e-07
-2.27519e-07
-2.30033e-07
-2.32453e-07
-2.34778e-07
-2.37009e-07
)
;
    }
    inandouthalf31
    {
        type            cyclic;
        value           nonuniform List<scalar> 
110
(
2.39145e-07
2.46102e-07
2.53185e-07
2.60393e-07
2.67726e-07
2.75183e-07
2.82762e-07
2.90463e-07
2.98286e-07
3.0623e-07
3.14295e-07
3.22483e-07
3.30795e-07
3.39235e-07
3.47806e-07
3.56513e-07
3.65362e-07
3.7436e-07
3.83514e-07
3.92833e-07
4.02326e-07
4.12001e-07
4.21867e-07
4.31934e-07
4.42209e-07
4.52703e-07
4.63421e-07
4.74371e-07
4.85556e-07
4.9698e-07
5.0864e-07
5.20531e-07
5.32635e-07
5.44943e-07
5.57406e-07
5.6992e-07
5.82892e-07
8.09913e-07
8.30745e-07
8.51442e-07
8.72538e-07
8.92512e-07
9.13375e-07
9.31082e-07
9.51276e-07
9.71352e-07
9.91216e-07
1.01087e-06
1.03033e-06
1.04966e-06
1.06887e-06
1.08803e-06
1.10718e-06
1.12638e-06
1.14572e-06
1.1653e-06
1.18522e-06
1.20564e-06
1.22676e-06
1.24932e-06
1.27394e-06
1.29974e-06
1.32612e-06
1.35304e-06
1.3805e-06
1.40852e-06
1.43711e-06
1.46628e-06
1.49604e-06
1.52641e-06
1.55739e-06
1.589e-06
1.62125e-06
1.65416e-06
1.68773e-06
1.72199e-06
1.75694e-06
1.7926e-06
1.82899e-06
1.86611e-06
1.90399e-06
1.94263e-06
1.98206e-06
2.0223e-06
2.06334e-06
2.10522e-06
2.14795e-06
2.19155e-06
2.23603e-06
2.28142e-06
2.32773e-06
2.37497e-06
2.42318e-06
2.47236e-06
2.52254e-06
2.57375e-06
2.62599e-06
2.67929e-06
2.73367e-06
2.78915e-06
2.84577e-06
2.90353e-06
2.96246e-06
3.02259e-06
3.08394e-06
3.14654e-06
3.21041e-06
3.27557e-06
3.34205e-06
3.40989e-06
)
;
    }
    inandouthalf32
    {
        type            cyclic;
        value           nonuniform List<scalar> 
110
(
-2.39145e-07
-2.46102e-07
-2.53185e-07
-2.60393e-07
-2.67726e-07
-2.75183e-07
-2.82762e-07
-2.90463e-07
-2.98286e-07
-3.0623e-07
-3.14295e-07
-3.22483e-07
-3.30795e-07
-3.39235e-07
-3.47806e-07
-3.56513e-07
-3.65362e-07
-3.7436e-07
-3.83514e-07
-3.92833e-07
-4.02326e-07
-4.12001e-07
-4.21867e-07
-4.31934e-07
-4.42209e-07
-4.52703e-07
-4.63421e-07
-4.74371e-07
-4.85556e-07
-4.9698e-07
-5.0864e-07
-5.20531e-07
-5.32635e-07
-5.44943e-07
-5.57406e-07
-5.6992e-07
-5.82892e-07
-8.09913e-07
-8.30745e-07
-8.51442e-07
-8.72538e-07
-8.92512e-07
-9.13375e-07
-9.31082e-07
-9.51276e-07
-9.71352e-07
-9.91216e-07
-1.01087e-06
-1.03033e-06
-1.04966e-06
-1.06887e-06
-1.08803e-06
-1.10718e-06
-1.12638e-06
-1.14572e-06
-1.1653e-06
-1.18522e-06
-1.20564e-06
-1.22676e-06
-1.24932e-06
-1.27394e-06
-1.29974e-06
-1.32612e-06
-1.35304e-06
-1.3805e-06
-1.40852e-06
-1.43711e-06
-1.46628e-06
-1.49604e-06
-1.52641e-06
-1.55739e-06
-1.589e-06
-1.62125e-06
-1.65416e-06
-1.68773e-06
-1.72199e-06
-1.75694e-06
-1.7926e-06
-1.82899e-06
-1.86611e-06
-1.90399e-06
-1.94263e-06
-1.98206e-06
-2.0223e-06
-2.06334e-06
-2.10522e-06
-2.14795e-06
-2.19155e-06
-2.23603e-06
-2.28142e-06
-2.32773e-06
-2.37497e-06
-2.42318e-06
-2.47236e-06
-2.52254e-06
-2.57375e-06
-2.62599e-06
-2.67929e-06
-2.73367e-06
-2.78915e-06
-2.84577e-06
-2.90353e-06
-2.96246e-06
-3.02259e-06
-3.08394e-06
-3.14654e-06
-3.21041e-06
-3.27557e-06
-3.34205e-06
-3.40989e-06
)
;
    }
    inandouthalf41
    {
        type            cyclic;
        value           nonuniform List<scalar> 
50
(
3.0522e-06
3.0522e-06
3.0522e-06
3.0522e-06
3.0522e-06
3.0522e-06
3.0522e-06
3.0522e-06
3.0522e-06
3.0522e-06
3.0522e-06
3.0522e-06
3.0522e-06
3.0522e-06
3.0522e-06
3.0522e-06
3.0522e-06
3.0522e-06
3.0522e-06
3.0522e-06
3.0522e-06
3.0522e-06
3.0522e-06
3.0522e-06
3.0522e-06
3.0522e-06
3.0522e-06
3.0522e-06
3.0522e-06
3.0522e-06
3.0522e-06
3.0522e-06
3.0522e-06
3.0522e-06
3.0522e-06
3.0522e-06
3.0522e-06
3.0522e-06
3.0522e-06
3.0522e-06
3.0522e-06
3.0522e-06
3.0522e-06
3.0522e-06
3.0522e-06
3.0522e-06
3.0522e-06
3.05221e-06
3.05241e-06
3.05713e-06
)
;
    }
    inandouthalf42
    {
        type            cyclic;
        value           nonuniform List<scalar> 
50
(
-3.0522e-06
-3.0522e-06
-3.0522e-06
-3.0522e-06
-3.0522e-06
-3.0522e-06
-3.0522e-06
-3.0522e-06
-3.0522e-06
-3.0522e-06
-3.0522e-06
-3.0522e-06
-3.0522e-06
-3.0522e-06
-3.0522e-06
-3.0522e-06
-3.0522e-06
-3.0522e-06
-3.0522e-06
-3.0522e-06
-3.0522e-06
-3.0522e-06
-3.0522e-06
-3.0522e-06
-3.0522e-06
-3.0522e-06
-3.0522e-06
-3.0522e-06
-3.0522e-06
-3.0522e-06
-3.0522e-06
-3.0522e-06
-3.0522e-06
-3.0522e-06
-3.0522e-06
-3.0522e-06
-3.0522e-06
-3.0522e-06
-3.0522e-06
-3.0522e-06
-3.0522e-06
-3.0522e-06
-3.0522e-06
-3.0522e-06
-3.0522e-06
-3.0522e-06
-3.0522e-06
-3.05221e-06
-3.05241e-06
-3.05713e-06
)
;
    }
    top
    {
        type            symmetryPlane;
        value           uniform 0;
    }
    walls
    {
        type            fixedValue;
        value           uniform 0;
    }
    frontAndBackPlanes
    {
        type            empty;
        value           nonuniform 0();
    }
}


// ************************************************************************* //
