/*--------------------------------*- C++ -*----------------------------------*\
| =========                 |                                                 |
| \\      /  F ield         | OpenFOAM: The Open Source CFD Toolbox           |
|  \\    /   O peration     | Version:  2.4.x                                 |
|   \\  /    A nd           | Web:      www.OpenFOAM.org                      |
|    \\/     M anipulation  |                                                 |
\*---------------------------------------------------------------------------*/
FoamFile
{
    version     2.0;
    format      ascii;
    class       volVectorField;
    location    "7.15";
    object      susb;
}
// * * * * * * * * * * * * * * * * * * * * * * * * * * * * * * * * * * * * * //

dimensions      [0 1 -2 0 0 0 0];

internalField   nonuniform List<vector> 
360
(
(0 5.60838e-18 0)
(0 6.36183e-18 0)
(0 1.43965e-19 0)
(0 -9.01204e-19 0)
(-3.69628e-31 -4.39986e-19 0)
(-3.69585e-31 -2.4347e-19 0)
(-7.39081e-31 -2.80469e-19 0)
(0 -3.13965e-19 0)
(-3.69428e-31 -3.21564e-19 0)
(0 -3.27082e-19 0)
(-3.6931e-31 -3.28816e-19 0)
(0 -3.29463e-19 0)
(-3.69192e-31 -3.31421e-19 0)
(0 -3.33679e-19 0)
(0 -3.37368e-19 0)
(0 -3.41278e-19 0)
(0 -3.44218e-19 0)
(-3.68888e-31 -3.46657e-19 0)
(0 -3.50702e-19 0)
(0 -3.53221e-19 0)
(0 -3.55904e-19 0)
(-7.37269e-31 -3.60224e-19 0)
(0 -3.63104e-19 0)
(0 -3.66553e-19 0)
(0 -3.70069e-19 0)
(-3.68372e-31 -3.72735e-19 0)
(0 -3.76812e-19 0)
(0 -3.8107e-19 0)
(0 -3.83789e-19 0)
(0 -3.87077e-19 0)
(0 -3.92188e-19 0)
(0 -3.94351e-19 0)
(0 -3.99027e-19 0)
(0 -4.03768e-19 0)
(0 -4.06269e-19 0)
(3.6767e-31 -4.10435e-19 0)
(0 -4.14343e-19 0)
(0 -4.20781e-19 0)
(0 -4.22001e-19 0)
(0 -4.26814e-19 0)
(0 -4.33851e-19 0)
(0 -4.34228e-19 0)
(3.67137e-31 -4.40488e-19 0)
(0 -4.46181e-19 0)
(0 -4.49217e-19 0)
(0 -4.55948e-19 0)
(0 -4.57906e-19 0)
(0 -4.61938e-19 0)
(0 -4.72e-19 0)
(0 -4.7471e-19 0)
(3.66478e-31 -4.78411e-19 0)
(0 -4.85578e-19 0)
(0 -4.91206e-19 0)
(0 -4.95401e-19 0)
(0 -5.02491e-19 0)
(0 -5.08032e-19 0)
(0 -5.1303e-19 0)
(0 -5.20884e-19 0)
(0 -5.23177e-19 0)
(0 -5.32437e-19 0)
(0 -5.39591e-19 0)
(0 -5.45272e-19 0)
(0 -5.53429e-19 0)
(0 -5.58827e-19 0)
(0 -5.65132e-19 0)
(0 -5.7201e-19 0)
(0 -5.80086e-19 0)
(0 -5.86225e-19 0)
(0 -5.90731e-19 0)
(0 -5.99994e-19 0)
(0 -6.11641e-19 0)
(0 -6.15557e-19 0)
(0 -6.23482e-19 0)
(0 -6.34268e-19 0)
(0 -6.43073e-19 0)
(0 -6.50916e-19 0)
(0 -6.57466e-19 0)
(0 -6.67517e-19 0)
(0 -6.77619e-19 0)
(0 -6.86632e-19 0)
(0 -6.96943e-19 0)
(0 -7.09215e-19 0)
(0 -7.20942e-19 0)
(0 -7.33065e-19 0)
(0 -7.45463e-19 0)
(0 -7.58156e-19 0)
(0 -7.70812e-19 0)
(0 -7.83299e-19 0)
(0 -7.96874e-19 0)
(0 -8.11128e-19 0)
(0 -8.25829e-19 0)
(0 -8.41624e-19 0)
(0 -8.58348e-19 0)
(0 -8.75507e-19 0)
(0 -8.93223e-19 0)
(0 -9.11443e-19 0)
(0 -9.30078e-19 0)
(0 -9.4919e-19 0)
(0 -9.68926e-19 0)
(0 -9.89322e-19 0)
(0 -1.01041e-18 0)
(0 -1.03227e-18 0)
(0 -1.05491e-18 0)
(0 -1.0783e-18 0)
(0 -1.10248e-18 0)
(0 -1.12752e-18 0)
(0 -1.15347e-18 0)
(0 -1.18045e-18 0)
(0 -1.20855e-18 0)
(0 -1.23788e-18 0)
(0 -1.26855e-18 0)
(0 -1.30065e-18 0)
(0 -1.33428e-18 0)
(0 -1.36956e-18 0)
(0 -1.40658e-18 0)
(0 -1.44542e-18 0)
(0 -1.48619e-18 0)
(0 -1.52899e-18 0)
(0 -1.57392e-18 0)
(0 -1.62109e-18 0)
(0 -1.67059e-18 0)
(0 -1.72249e-18 0)
(0 -1.77688e-18 0)
(0 -1.8339e-18 0)
(0 -1.89399e-18 0)
(0 -1.95793e-18 0)
(0 -2.02687e-18 0)
(0 -2.10181e-18 0)
(0 -2.18278e-18 0)
(0 -2.26833e-18 0)
(0 -2.35738e-18 0)
(0 -2.45433e-18 0)
(0 -2.57162e-18 0)
(0 -5.37754e-18 0)
(0 -2.05414e-17 0)
(0 -8.4555e-17 0)
(0 -3.66277e-16 0)
(0 -1.72127e-15 0)
(0 -8.85702e-15 0)
(0 -4.72191e-14 0)
(0 -2.4395e-13 0)
(0 -1.45461e-12 0)
(0 -1.16632e-11 0)
(0 -1.13935e-10 0)
(0 -1.69612e-09 0)
(0 -4.65634e-08 0)
(0 -5.93341e-07 0)
(0 -6.18367e-06 0)
(0 -0.000293834 0)
(0 -0.276656 0)
(0 -0.656986 0)
(0 -0.600705 0)
(0 -0.269197 0)
(0 -0.158424 0)
(0 -0.106041 0)
(0 -0.0787693 0)
(0 -0.0618995 0)
(0 -0.0503205 0)
(0 -0.0419576 0)
(0 -0.0356571 0)
(0 -0.0307418 0)
(0 -0.0268017 0)
(0 -0.0235746 0)
(0 -0.0208846 0)
(0 -0.0186091 0)
(0 -0.0166608 0)
(0 -0.0149753 0)
(0 -0.0135046 0)
(0 -0.0122115 0)
(0 -0.0110673 0)
(0 -0.0100491 0)
(0 -0.00913886 0)
(0 -0.00832174 0)
(0 -0.00758576 0)
(0 -0.00692103 0)
(0 -0.00631935 0)
(0 -0.00577383 0)
(0 -0.00527865 0)
(0 -0.00482883 0)
(0 -0.00442006 0)
(0 -0.00404855 0)
(0 -0.00371099 0)
(0 -0.00340438 0)
(0 -0.00312604 0)
(0 -0.00287354 0)
(0 -0.00264463 0)
(0 -0.00243728 0)
(0 -0.00224958 0)
(0 -0.00207977 0)
(0 -0.00192621 0)
(0 -0.00178739 0)
(0 -0.0016619 0)
(0 -0.00154846 0)
(0 -0.00144589 0)
(0 -0.0013531 0)
(0 -0.00126905 0)
(0 -0.00119274 0)
(0 -0.00112321 0)
(0 -0.00105964 0)
(0 -0.00100149 0)
(0 -0.000948261 0)
(0 -0.000898847 0)
(-5.26599e-19 -0.0008526 0)
(0 -0.000809797 0)
(0 -0.000770564 0)
(5.1656e-19 -0.000734409 0)
(0 -0.000700252 0)
(-2.54741e-19 -0.000667324 0)
(0 -0.000634755 0)
(2.50852e-19 -0.000601553 0)
(0 -0.000566946 0)
(0 -0.00052984 0)
(0 -0.000489995 0)
(1.20694e-19 -0.000448479 0)
(0 -0.000405531 0)
(0 -0.000361525 0)
(0 -0.000318039 0)
(0 -0.000276412 0)
(0 -0.000237326 0)
(-5.52258e-20 -0.00020122 0)
(0 -0.000169036 0)
(-5.29998e-20 -0.000141085 0)
(0 -0.000116728 0)
(-2.5249e-20 -9.58448e-05 0)
(0 -7.83339e-05 0)
(0 -6.35993e-05 0)
(0 -5.1339e-05 0)
(0 -4.11357e-05 0)
(1.07764e-20 -3.28935e-05 0)
(0 -2.60454e-05 0)
(0 -2.06323e-05 0)
(0 -1.60357e-05 0)
(0 -1.28529e-05 0)
(0 -9.78764e-06 0)
(0 -6.73023e-06 0)
(0 -4.02818e-06 0)
(0 -3.43894e-06 0)
(0 -2.59558e-06 0)
(0 -2.01923e-06 0)
(0 -1.21224e-06 0)
(0 -7.09475e-07 0)
(0 -3.84467e-07 0)
(0 -2.3521e-07 0)
(-1.40783e-36 -1.20608e-08 0)
(1.19776e-48 -5.94879e-21 0)
(0 -5.73143e-33 0)
(0 -3.42634e-34 0)
(-5.86635e-50 -1.81466e-34 0)
(0 -1.45013e-34 0)
(0 -1.50304e-34 0)
(-2.19544e-50 -1.20206e-34 0)
(0 -5.61678e-35 0)
(0 -1.82632e-35 0)
(0 -7.04121e-36 0)
(0 -3.03862e-36 0)
(0 -1.56352e-36 0)
(0 -1.01911e-36 0)
(0 -5.12755e-37 0)
(0 -1.37975e-37 0)
(0 -2.05023e-38 0)
(0 -9.30775e-40 0)
(0 -1.43197e-41 0)
(0 -1.79778e-43 0)
(0 -1.77666e-45 0)
(0 -1.56271e-47 0)
(0 -1.37629e-49 0)
(1.68229e-67 -1.13703e-51 0)
(0 -8.02675e-54 0)
(0 -2.79445e-56 0)
(0 -5.80831e-57 0)
(0 -2.71159e-57 0)
(0 -1.24247e-57 0)
(0 -5.58424e-58 0)
(0 -2.46021e-58 0)
(0 -1.06171e-58 0)
(0 -4.4849e-59 0)
(0 -1.85298e-59 0)
(0 -7.48174e-60 0)
(0 -2.94966e-60 0)
(0 -1.13442e-60 0)
(0 -4.25188e-61 0)
(0 -1.55144e-61 0)
(0 -5.50486e-62 0)
(0 -1.8971e-62 0)
(0 -6.34164e-63 0)
(0 -2.0534e-63 0)
(7.5915e-80 -6.43054e-64 0)
(0 -1.94452e-64 0)
(0 -5.66753e-65 0)
(0 -1.58908e-65 0)
(0 -4.27699e-66 0)
(0 -1.10243e-66 0)
(0 -2.71428e-67 0)
(0 -6.3649e-68 0)
(0 -1.41695e-68 0)
(0 -2.98369e-69 0)
(5.92189e-86 -5.91821e-70 0)
(0 -1.10053e-70 0)
(0 -1.90807e-71 0)
(-2.17791e-88 -3.06463e-72 0)
(0 -4.52515e-73 0)
(0 -6.08638e-74 0)
(0 -7.37285e-75 0)
(0 -7.92977e-76 0)
(0 -7.43322e-77 0)
(0 -5.92216e-78 0)
(0 -3.86879e-79 0)
(0 -1.9601e-80 0)
(0 -6.98003e-82 0)
(0 -1.39717e-83 0)
(0 -4.99386e-86 0)
(0 -2.10578e-90 0)
(0 -1.96711e-92 0)
(0 -9.11449e-95 0)
(0 -3.06648e-105 0)
(0 -5.14236e-116 0)
(0 -6.16179e-127 0)
(0 -5.31582e-138 0)
(0 -3.88957e-149 0)
(0 -2.16363e-160 0)
(0 -1.03547e-171 0)
(0 -1.05303e-181 0)
(0 -4.3519e-192 0)
(0 -3.51633e-200 0)
(0 -1.29529e-210 0)
(0 -1.2095e-218 0)
(0 -5.18379e-229 0)
(0 -4.16136e-237 0)
(0 -2.18243e-247 0)
(0 -1.43299e-255 0)
(0 -1.37536e-265 0)
(0 -5.00377e-274 0)
(0 -8.96659e-284 0)
(0 -1.78208e-292 0)
(0 -4.406e-302 0)
(0 -6.46529e-311 0)
(0 -2.08397e-320 0)
(0 -0 0)
(0 0 0)
(0 0 0)
(0 0 0)
(0 0 0)
(0 0 0)
(0 0 0)
(0 0 0)
(0 0 0)
(0 0 0)
(0 0 0)
(0 0 0)
(0 0 0)
(0 0 0)
(0 0 0)
(0 0 0)
(0 0 0)
(0 0 0)
(0 0 0)
(0 0 0)
(0 0 0)
(0 0 0)
(0 0 0)
)
;

boundaryField
{
    inandouthalf11
    {
        type            cyclic;
    }
    inandouthalf12
    {
        type            cyclic;
    }
    inandouthalf21
    {
        type            cyclic;
    }
    inandouthalf22
    {
        type            cyclic;
    }
    inandouthalf31
    {
        type            cyclic;
    }
    inandouthalf32
    {
        type            cyclic;
    }
    inandouthalf41
    {
        type            cyclic;
    }
    inandouthalf42
    {
        type            cyclic;
    }
    top
    {
        type            symmetryPlane;
    }
    walls
    {
        type            zeroGradient;
    }
    frontAndBackPlanes
    {
        type            empty;
    }
}


// ************************************************************************* //
