/*--------------------------------*- C++ -*----------------------------------*\
| =========                 |                                                 |
| \\      /  F ield         | OpenFOAM: The Open Source CFD Toolbox           |
|  \\    /   O peration     | Version:  2.4.x                                 |
|   \\  /    A nd           | Web:      www.OpenFOAM.org                      |
|    \\/     M anipulation  |                                                 |
\*---------------------------------------------------------------------------*/
FoamFile
{
    version     2.0;
    format      ascii;
    class       volScalarField;
    location    "7.15";
    object      Theta;
}
// * * * * * * * * * * * * * * * * * * * * * * * * * * * * * * * * * * * * * //

dimensions      [0 2 -2 0 0 0 0];

internalField   nonuniform List<scalar> 
360
(
6.66301e-21
6.6667e-21
6.66499e-21
6.66453e-21
6.66476e-21
6.66493e-21
6.66497e-21
6.66497e-21
6.66499e-21
6.66502e-21
6.66506e-21
6.6651e-21
6.66514e-21
6.66518e-21
6.66522e-21
6.66526e-21
6.66531e-21
6.66535e-21
6.6654e-21
6.66545e-21
6.6655e-21
6.66555e-21
6.6656e-21
6.66565e-21
6.6657e-21
6.66575e-21
6.6658e-21
6.66585e-21
6.66591e-21
6.66596e-21
6.66601e-21
6.66606e-21
6.66611e-21
6.66616e-21
6.66621e-21
6.66626e-21
6.6663e-21
6.66634e-21
6.66638e-21
6.66642e-21
6.66645e-21
6.66648e-21
6.66651e-21
6.66653e-21
6.66655e-21
6.66657e-21
6.66659e-21
6.6666e-21
6.66662e-21
6.66664e-21
6.66667e-21
6.66669e-21
6.66673e-21
6.66676e-21
6.6668e-21
6.66684e-21
6.66688e-21
6.66692e-21
6.66696e-21
6.667e-21
6.66703e-21
6.66706e-21
6.66709e-21
6.66709e-21
6.66708e-21
6.66704e-21
6.66697e-21
6.66687e-21
6.66675e-21
6.6666e-21
6.66644e-21
6.66627e-21
6.66608e-21
6.66589e-21
6.6657e-21
6.66551e-21
6.66532e-21
6.66514e-21
6.66498e-21
6.66483e-21
6.6647e-21
6.6646e-21
6.66454e-21
6.6645e-21
6.6645e-21
6.66453e-21
6.66459e-21
6.66469e-21
6.66482e-21
6.66499e-21
6.6652e-21
6.66545e-21
6.66575e-21
6.66611e-21
6.66652e-21
6.66699e-21
6.66751e-21
6.66807e-21
6.66866e-21
6.66925e-21
6.66981e-21
6.67031e-21
6.67072e-21
6.67098e-21
6.67107e-21
6.67096e-21
6.67064e-21
6.67012e-21
6.66942e-21
6.66859e-21
6.66767e-21
6.66673e-21
6.66581e-21
6.66496e-21
6.66419e-21
6.66354e-21
6.663e-21
6.66256e-21
6.66222e-21
6.66196e-21
6.66176e-21
6.66161e-21
6.66151e-21
6.66143e-21
6.66137e-21
6.66133e-21
6.6613e-21
6.66128e-21
6.66127e-21
6.66125e-21
6.66124e-21
6.66124e-21
6.66128e-21
1.5869e-20
6.30625e-20
2.714e-19
1.23626e-18
5.98782e-18
3.08826e-17
1.70092e-16
1.01292e-15
6.71733e-15
5.20114e-14
4.85155e-13
5.44007e-12
7.28244e-11
1.17612e-09
2.37467e-08
6.79644e-07
1.37367e-05
0.000227492
0.000825224
0.00127343
0.00162552
0.00191684
0.00216613
0.00238394
0.00257681
0.00274916
0.00290414
0.00304409
0.00317084
0.00328583
0.00339024
0.00348504
0.00357105
0.00364895
0.00371937
0.0037828
0.00383973
0.00389054
0.00393561
0.00397527
0.00400981
0.0040395
0.00406459
0.00408532
0.00410189
0.00411452
0.00412339
0.00412867
0.00413054
0.00412916
0.00412469
0.00411725
0.00410701
0.0040941
0.00407863
0.00406075
0.00404057
0.00401821
0.00399378
0.0039674
0.00393917
0.00390919
0.00387756
0.00384438
0.00380974
0.00377373
0.00373645
0.00369796
0.00365796
0.00361604
0.00357221
0.00352644
0.00347874
0.00342908
0.00337744
0.00332379
0.00326811
0.00321034
0.00315046
0.00308839
0.00302406
0.00295741
0.00288833
0.00281671
0.00274243
0.00266535
0.0025853
0.0025021
0.00241553
0.00232534
0.00223126
0.00213294
0.00203
0.00192196
0.00180826
0.0016882
0.00156088
0.00142512
0.00127932
0.00112118
0.000947081
0.000750698
0.000518237
0
0
0
0
0
0
0
0
0
0
0
0
0
0
0
0
0
0
0
0
0
0
0
0
0
0
0
0
0
0
0
0
0
0
0
0
0
0
0
0
0
0
0
0
0
0
0
0
0
0
0
0
0
0
0
0
0
0
0
0
0
0
0
0
0
0
0
0
0
0
0
0
0
0
0
0
0
0
0
0
0
0
0
0
0
0
0
0
0
0
0
0
0
0
0
0
0
0
0
0
0
0
0
0
0
0
0
0
0
0
0
0
0
0
0
0
0
0
0
0
0
0
0
0
)
;

boundaryField
{
    inandouthalf11
    {
        type            cyclic;
    }
    inandouthalf12
    {
        type            cyclic;
    }
    inandouthalf21
    {
        type            cyclic;
    }
    inandouthalf22
    {
        type            cyclic;
    }
    inandouthalf31
    {
        type            cyclic;
    }
    inandouthalf32
    {
        type            cyclic;
    }
    inandouthalf41
    {
        type            cyclic;
    }
    inandouthalf42
    {
        type            cyclic;
    }
    top
    {
        type            symmetryPlane;
    }
    walls
    {
        type            zeroGradient;
    }
    frontAndBackPlanes
    {
        type            empty;
    }
}


// ************************************************************************* //
