/*--------------------------------*- C++ -*----------------------------------*\
| =========                 |                                                 |
| \\      /  F ield         | OpenFOAM: The Open Source CFD Toolbox           |
|  \\    /   O peration     | Version:  2.4.x                                 |
|   \\  /    A nd           | Web:      www.OpenFOAM.org                      |
|    \\/     M anipulation  |                                                 |
\*---------------------------------------------------------------------------*/
FoamFile
{
    version     2.0;
    format      ascii;
    class       volScalarField;
    location    "7.15";
    object      tmf;
}
// * * * * * * * * * * * * * * * * * * * * * * * * * * * * * * * * * * * * * //

dimensions      [0 0 0 0 0 0 0];

internalField   nonuniform List<scalar> 
360
(
0.999206
0.999209
0.999209
0.999209
0.999209
0.999209
0.999209
0.999209
0.999209
0.999209
0.999208
0.999208
0.999208
0.999208
0.999208
0.999208
0.999208
0.999208
0.999208
0.999208
0.999208
0.999208
0.999207
0.999207
0.999207
0.999207
0.999207
0.999207
0.999207
0.999207
0.999207
0.999207
0.999207
0.999206
0.999206
0.999206
0.999206
0.999206
0.999206
0.999206
0.999206
0.999206
0.999206
0.999205
0.999205
0.999205
0.999205
0.999205
0.999205
0.999205
0.999205
0.999205
0.999204
0.999204
0.999204
0.999204
0.999204
0.999204
0.999204
0.999204
0.999203
0.999203
0.999203
0.999203
0.999203
0.999203
0.999203
0.999202
0.999202
0.999202
0.999202
0.999202
0.999202
0.999202
0.999201
0.999201
0.999201
0.999201
0.999201
0.999201
0.9992
0.9992
0.9992
0.9992
0.9992
0.9992
0.999199
0.999199
0.999199
0.999199
0.999199
0.999198
0.999198
0.999198
0.999198
0.999198
0.999197
0.999197
0.999197
0.999197
0.999196
0.999196
0.999196
0.999196
0.999195
0.999195
0.999195
0.999194
0.999194
0.999194
0.999194
0.999193
0.999193
0.999193
0.999192
0.999192
0.999191
0.999191
0.999191
0.99919
0.99919
0.999189
0.999189
0.999189
0.999188
0.999188
0.999187
0.999187
0.999186
0.999185
0.999185
0.999184
0.999184
0.999017
0.998917
0.998808
0.998677
0.998519
0.998326
0.998081
0.997759
0.997325
0.996764
0.996081
0.995256
0.994256
0.993072
0.991583
0.989497
0.986524
0.923922
0.941073
0.952925
0.958791
0.962503
0.965037
0.966919
0.968402
0.969616
0.970643
0.971531
0.972314
0.973015
0.973651
0.974234
0.974773
0.975274
0.975744
0.976186
0.976605
0.977002
0.97738
0.977741
0.978086
0.978418
0.978738
0.979046
0.979345
0.979636
0.979919
0.980198
0.980472
0.980744
0.981015
0.981288
0.981564
0.981846
0.982133
0.982428
0.982732
0.983044
0.983365
0.983695
0.984031
0.984374
0.984721
0.985071
0.985423
0.985774
0.986124
0.986472
0.98682
0.98717
0.98752
0.98787
0.988218
0.988564
0.988906
0.989244
0.989577
0.989905
0.990227
0.990543
0.990852
0.991154
0.99145
0.991738
0.992019
0.992294
0.992561
0.992822
0.993076
0.993324
0.993566
0.993803
0.994035
0.994262
0.994486
0.994705
0.994922
0.995136
0.995348
0.995558
0.995767
0.995976
0.996184
0.99639
0.993165
0.993561
0.994034
0.994346
0.995052
0.995293
0.996798
0.997052
0.997254
0.997435
0.997594
0.997729
0.997844
0.997941
0.998024
0.9981
0.998175
0.998255
0.998347
0.99846
0.998607
0.998809
0.999049
0.999198
0.999218
0.999212
0.999206
0.9992
0.999194
0.999188
0.999104
0.996148
0.994195
0.994195
0.994195
0.994195
0.994195
0.994195
0.994195
0.994195
0.994195
0.994195
0.994195
0.994195
0.994195
0.994195
0.994195
0.994195
0.994195
0.994195
0.994195
0.994195
0.994195
0.994195
0.994195
0.994195
0.994195
0.994195
0.994195
0.994195
0.994195
0.994195
0.994195
0.994195
0.994195
0.994195
0.994195
0.994195
0.994195
0.994195
0.994195
0.994195
0.994195
0.994195
0.994195
0.994195
0.994195
0.994195
0.994195
0.994195
0.994195
0.994195
0.994195
0.994195
0.994195
0.994195
0.994195
0.994195
0.994195
0.994195
0.994195
0.994195
0.994195
0.994195
0.994195
0.994195
0.994195
0.994195
0.994195
0.994195
0.994195
0.994195
0.994195
0.994195
0.994195
0.994195
0.994195
0.994195
0.994195
0.994195
0.994195
0.994195
0.994195
0.994195
0.994195
0.994195
0.994195
0.994195
0.994195
0.994195
0.994195
0.99418
0.993263
)
;

boundaryField
{
    inandouthalf11
    {
        type            cyclic;
    }
    inandouthalf12
    {
        type            cyclic;
    }
    inandouthalf21
    {
        type            cyclic;
    }
    inandouthalf22
    {
        type            cyclic;
    }
    inandouthalf31
    {
        type            cyclic;
    }
    inandouthalf32
    {
        type            cyclic;
    }
    inandouthalf41
    {
        type            cyclic;
    }
    inandouthalf42
    {
        type            cyclic;
    }
    top
    {
        type            symmetryPlane;
    }
    walls
    {
        type            calculated;
        value           uniform 0;
    }
    frontAndBackPlanes
    {
        type            empty;
    }
}


// ************************************************************************* //
