/*--------------------------------*- C++ -*----------------------------------*\
| =========                 |                                                 |
| \\      /  F ield         | OpenFOAM: The Open Source CFD Toolbox           |
|  \\    /   O peration     | Version:  2.4.x                                 |
|   \\  /    A nd           | Web:      www.OpenFOAM.org                      |
|    \\/     M anipulation  |                                                 |
\*---------------------------------------------------------------------------*/
FoamFile
{
    version     2.0;
    format      ascii;
    class       volVectorField;
    location    "7.15";
    object      U;
}
// * * * * * * * * * * * * * * * * * * * * * * * * * * * * * * * * * * * * * //

dimensions      [0 1 -1 0 0 0 0];

internalField   nonuniform List<vector> 
360
(
(7.70563e-05 1.77741e-08 0)
(7.65029e-05 -3.47126e-09 0)
(7.64122e-05 -3.43975e-09 0)
(7.64783e-05 -8.30832e-11 0)
(7.65135e-05 5.83014e-10 0)
(7.65239e-05 1.83272e-10 0)
(7.65349e-05 -8.82927e-12 0)
(7.65492e-05 -1.29046e-13 0)
(7.65638e-05 3.40577e-11 0)
(7.65787e-05 5.69703e-11 0)
(7.65936e-05 6.74483e-11 0)
(7.66082e-05 6.62408e-11 0)
(7.66227e-05 6.2561e-11 0)
(7.66371e-05 6.07078e-11 0)
(7.66514e-05 6.25754e-11 0)
(7.66658e-05 6.6394e-11 0)
(7.66801e-05 6.89946e-11 0)
(7.66944e-05 7.03723e-11 0)
(7.67085e-05 7.07509e-11 0)
(7.67228e-05 7.21141e-11 0)
(7.67367e-05 7.08364e-11 0)
(7.67508e-05 7.27333e-11 0)
(7.67647e-05 7.36415e-11 0)
(7.67786e-05 7.34062e-11 0)
(7.67924e-05 7.30412e-11 0)
(7.68062e-05 7.27234e-11 0)
(7.68198e-05 7.21855e-11 0)
(7.68335e-05 7.35526e-11 0)
(7.6847e-05 7.19247e-11 0)
(7.68605e-05 7.02987e-11 0)
(7.68739e-05 6.81308e-11 0)
(7.68874e-05 6.9644e-11 0)
(7.69004e-05 6.30639e-11 0)
(7.69139e-05 6.63687e-11 0)
(7.69269e-05 5.82917e-11 0)
(7.694e-05 5.60365e-11 0)
(7.69529e-05 5.18577e-11 0)
(7.69659e-05 4.82501e-11 0)
(7.6979e-05 4.67465e-11 0)
(7.69915e-05 3.3545e-11 0)
(7.70045e-05 3.49864e-11 0)
(7.70173e-05 2.83647e-11 0)
(7.70297e-05 1.7469e-11 0)
(7.70426e-05 2.22849e-11 0)
(7.70552e-05 1.49586e-11 0)
(7.70678e-05 1.0339e-11 0)
(7.70806e-05 1.05487e-11 0)
(7.70928e-05 4.36454e-12 0)
(7.71054e-05 1.21765e-11 0)
(7.71183e-05 2.4328e-11 0)
(7.71305e-05 1.6196e-11 0)
(7.71432e-05 2.70457e-11 0)
(7.71556e-05 2.88437e-11 0)
(7.71682e-05 3.82973e-11 0)
(7.71804e-05 3.24288e-11 0)
(7.71931e-05 4.62978e-11 0)
(7.72052e-05 3.46799e-11 0)
(7.72177e-05 3.86142e-11 0)
(7.72299e-05 3.52668e-11 0)
(7.72419e-05 2.22897e-11 0)
(7.72544e-05 3.40081e-11 0)
(7.72664e-05 1.21525e-11 0)
(7.72788e-05 3.37532e-12 0)
(7.7291e-05 -2.70081e-11 0)
(7.73033e-05 -5.72964e-11 0)
(7.73155e-05 -9.69016e-11 0)
(7.73281e-05 -1.33646e-10 0)
(7.73408e-05 -1.74931e-10 0)
(7.73538e-05 -2.13026e-10 0)
(7.73668e-05 -2.50809e-10 0)
(7.73808e-05 -2.67349e-10 0)
(7.73953e-05 -2.82003e-10 0)
(7.74097e-05 -3.15226e-10 0)
(7.74254e-05 -3.12523e-10 0)
(7.74414e-05 -3.2466e-10 0)
(7.74584e-05 -3.21324e-10 0)
(7.74757e-05 -3.28039e-10 0)
(7.74938e-05 -3.18087e-10 0)
(7.75128e-05 -2.97106e-10 0)
(7.75325e-05 -2.65733e-10 0)
(7.75528e-05 -2.3077e-10 0)
(7.7574e-05 -1.80876e-10 0)
(7.75959e-05 -1.25061e-10 0)
(7.76183e-05 -6.82275e-11 0)
(7.76412e-05 -8.07148e-12 0)
(7.76645e-05 4.93803e-11 0)
(7.76881e-05 1.0802e-10 0)
(7.77118e-05 1.62668e-10 0)
(7.77355e-05 2.1736e-10 0)
(7.7759e-05 2.74261e-10 0)
(7.77823e-05 3.32195e-10 0)
(7.78052e-05 3.9083e-10 0)
(7.78276e-05 4.51371e-10 0)
(7.78494e-05 5.09397e-10 0)
(7.78702e-05 5.61551e-10 0)
(7.789e-05 6.04015e-10 0)
(7.79086e-05 6.32106e-10 0)
(7.79259e-05 6.41031e-10 0)
(7.79416e-05 6.26538e-10 0)
(7.79559e-05 5.84947e-10 0)
(7.79686e-05 5.12799e-10 0)
(7.798e-05 4.08107e-10 0)
(7.79903e-05 2.70647e-10 0)
(7.79998e-05 1.02095e-10 0)
(7.8009e-05 -9.29071e-11 0)
(7.80185e-05 -3.06585e-10 0)
(7.8029e-05 -5.28645e-10 0)
(7.80412e-05 -7.47035e-10 0)
(7.8056e-05 -9.49234e-10 0)
(7.80742e-05 -1.12382e-09 0)
(7.80967e-05 -1.26176e-09 0)
(7.81241e-05 -1.35739e-09 0)
(7.81571e-05 -1.40882e-09 0)
(7.81963e-05 -1.41777e-09 0)
(7.82419e-05 -1.389e-09 0)
(7.82943e-05 -1.3293e-09 0)
(7.83536e-05 -1.24655e-09 0)
(7.84197e-05 -1.1487e-09 0)
(7.84927e-05 -1.04307e-09 0)
(7.85725e-05 -9.35825e-10 0)
(7.86589e-05 -8.31764e-10 0)
(7.87519e-05 -7.34241e-10 0)
(7.88512e-05 -6.4536e-10 0)
(7.89568e-05 -5.66324e-10 0)
(7.90685e-05 -4.97825e-10 0)
(7.91865e-05 -4.4028e-10 0)
(7.93107e-05 -3.93654e-10 0)
(7.94414e-05 -3.56771e-10 0)
(7.95789e-05 -3.26734e-10 0)
(7.97233e-05 -3.00405e-10 0)
(7.98749e-05 -2.79621e-10 0)
(8.00338e-05 -2.76648e-10 0)
(8.02009e-05 -3.01883e-10 0)
(8.03781e-05 -3.29643e-10 0)
(8.05672e-05 -3.10035e-10 0)
(8.07682e-05 -2.70455e-10 0)
(8.09799e-05 -3.3498e-10 0)
(8.12057e-05 -5.87827e-10 0)
(8.14571e-05 -8.51111e-10 0)
(8.17464e-05 -5.18506e-10 0)
(8.20594e-05 3.35218e-10 0)
(8.23592e-05 -1.36274e-09 0)
(8.27204e-05 -2.41765e-09 0)
(8.31916e-05 -2.58165e-09 0)
(8.37835e-05 -1.16997e-08 0)
(8.49187e-05 -9.44854e-08 0)
(8.81722e-05 1.30599e-06 0)
(9.19607e-05 9.87174e-07 0)
(0.000100788 4.81793e-06 0)
(0.000122278 -1.74849e-05 0)
(0.000953379 0.000220873 0)
(-0.0106237 -6.40271e-05 0)
(-0.0196602 4.53754e-05 0)
(-0.0275452 -1.09623e-05 0)
(-0.034928 1.95476e-06 0)
(-0.0420087 1.25808e-06 0)
(-0.0488693 2.51744e-07 0)
(-0.0555499 -4.36278e-09 0)
(-0.0620729 1.23793e-08 0)
(-0.0684525 2.07257e-08 0)
(-0.0746984 9.57642e-09 0)
(-0.080818 7.08123e-10 0)
(-0.0868175 -2.73372e-09 0)
(-0.0927018 -3.77506e-09 0)
(-0.0984756 -4.09087e-09 0)
(-0.104143 -4.08692e-09 0)
(-0.109707 -3.87122e-09 0)
(-0.115173 -3.54247e-09 0)
(-0.120543 -3.1731e-09 0)
(-0.12582 -2.80694e-09 0)
(-0.131007 -2.46364e-09 0)
(-0.136108 -2.15379e-09 0)
(-0.141125 -1.88039e-09 0)
(-0.14606 -1.64374e-09 0)
(-0.150917 -1.44202e-09 0)
(-0.155696 -1.27179e-09 0)
(-0.160402 -1.12962e-09 0)
(-0.165035 -1.01158e-09 0)
(-0.169598 -9.1414e-10 0)
(-0.174093 -8.33713e-10 0)
(-0.178522 -7.67375e-10 0)
(-0.182885 -7.12254e-10 0)
(-0.187186 -6.66153e-10 0)
(-0.191425 -6.26997e-10 0)
(-0.195604 -5.93256e-10 0)
(-0.199725 -5.63559e-10 0)
(-0.203788 -5.36937e-10 0)
(-0.207796 -5.12558e-10 0)
(-0.211748 -4.8983e-10 0)
(-0.215647 -4.68288e-10 0)
(-0.219493 -4.47627e-10 0)
(-0.223288 -4.27686e-10 0)
(-0.227032 -4.0843e-10 0)
(-0.230726 -3.89902e-10 0)
(-0.234372 -3.72095e-10 0)
(-0.237969 -3.54674e-10 0)
(-0.241519 -3.36888e-10 0)
(-0.245023 -3.1848e-10 0)
(-0.24848 -3.00931e-10 0)
(-0.251892 -2.85745e-10 0)
(-0.25526 -2.70401e-10 0)
(-0.258617 -2.6039e-10 0)
(-0.261997 -2.55685e-10 0)
(-0.2654 -2.51441e-10 0)
(-0.268823 -2.50462e-10 0)
(-0.272268 -2.41923e-10 0)
(-0.275732 -2.3105e-10 0)
(-0.279216 -2.22699e-10 0)
(-0.282718 -2.10627e-10 0)
(-0.286237 -1.98569e-10 0)
(-0.289772 -1.85372e-10 0)
(-0.293321 -1.62626e-10 0)
(-0.296884 -1.47529e-10 0)
(-0.300457 -1.37574e-10 0)
(-0.304039 -1.1607e-10 0)
(-0.307628 -9.93521e-11 0)
(-0.311222 -8.81603e-11 0)
(-0.314818 -7.71984e-11 0)
(-0.318413 -6.40511e-11 0)
(-0.322003 -5.18268e-11 0)
(-0.325586 -4.82641e-11 0)
(-0.329158 -4.01114e-11 0)
(-0.332713 -3.11597e-11 0)
(-0.336247 -2.74073e-11 0)
(-0.339756 -2.36625e-11 0)
(-0.343232 -1.83223e-11 0)
(-0.34667 -1.68419e-11 0)
(-0.350061 -1.19298e-11 0)
(-0.353399 -1.42458e-11 0)
(-0.356674 -6.26548e-12 0)
(-0.359876 -1.27834e-11 0)
(-0.362994 -5.75984e-14 0)
(-0.366015 -2.11458e-11 0)
(-0.368928 6.07746e-12 0)
(-0.371716 -3.59966e-12 0)
(-0.374364 6.32081e-11 0)
(-0.376855 -1.97317e-10 0)
(-0.37917 2.22001e-10 0)
(-0.381291 -2.45616e-10 0)
(-0.3832 2.15441e-10 0)
(-0.384878 -1.50414e-10 0)
(-0.38631 1.34854e-10 0)
(-0.387483 -1.03717e-11 0)
(-0.38839 4.8957e-12 0)
(-0.389027 -3.85535e-12 0)
(-0.3894 -4.34265e-12 0)
(-0.389517 -3.78361e-12 0)
(-0.389393 -3.58458e-12 0)
(-0.389047 -3.48885e-12 0)
(-0.3885 -2.96411e-12 0)
(-0.387774 -1.82383e-12 0)
(-0.386894 -1.47356e-11 0)
(-0.385886 3.04342e-11 0)
(-0.384777 -7.40733e-11 0)
(-0.383596 1.22958e-10 0)
(-0.382378 -2.02187e-10 0)
(-0.38116 2.88698e-10 0)
(-0.379987 -4.03566e-10 0)
(-0.378924 5.23299e-10 0)
(-0.378097 -6.64692e-10 0)
(-0.377808 8.04822e-10 0)
(-0.377784 -9.58964e-10 0)
(-0.377783 1.10882e-09 0)
(-0.377783 -1.27022e-09 0)
(-0.377783 1.4282e-09 0)
(-0.377783 -1.59719e-09 0)
(-0.377783 1.76364e-09 0)
(-0.377783 -1.94093e-09 0)
(-0.377783 2.11631e-09 0)
(-0.377783 -2.3025e-09 0)
(-0.377783 2.48728e-09 0)
(-0.377783 -2.68286e-09 0)
(-0.377783 2.87752e-09 0)
(-0.377783 -3.08296e-09 0)
(-0.377783 3.28785e-09 0)
(-0.377783 -3.50355e-09 0)
(-0.377783 3.71911e-09 0)
(-0.377783 -3.94538e-09 0)
(-0.377783 4.17197e-09 0)
(-0.377783 -4.40906e-09 0)
(-0.377783 4.64707e-09 0)
(-0.377783 -4.89532e-09 0)
(-0.377783 5.14494e-09 0)
(-0.377783 -5.40467e-09 0)
(-0.377783 5.66622e-09 0)
(-0.377783 -5.93763e-09 0)
(-0.377783 6.21138e-09 0)
(-0.377783 -6.49465e-09 0)
(-0.377783 6.78088e-09 0)
(-0.377783 -7.07617e-09 0)
(-0.377783 7.37507e-09 0)
(-0.377783 -7.68258e-09 0)
(-0.377783 7.99437e-09 0)
(-0.377783 -8.31421e-09 0)
(-0.377783 8.63905e-09 0)
(-0.377783 -8.97135e-09 0)
(-0.377783 9.30941e-09 0)
(-0.377783 -9.65444e-09 0)
(-0.377783 1.00055e-08 0)
(-0.377783 -1.03636e-08 0)
(-0.377783 1.07278e-08 0)
(-0.377783 -1.1099e-08 0)
(-0.377783 1.14763e-08 0)
(-0.377783 -1.18606e-08 0)
(-0.377783 1.22511e-08 0)
(-0.377783 -1.26484e-08 0)
(-0.377783 1.3052e-08 0)
(-0.377783 -1.34624e-08 0)
(-0.377783 1.38788e-08 0)
(-0.377783 -1.43021e-08 0)
(-0.377783 1.29323e-08 0)
(-0.377783 -1.30689e-08 0)
(-0.377783 1.32036e-08 0)
(-0.377783 -1.33373e-08 0)
(-0.377783 1.34691e-08 0)
(-0.377783 -1.35998e-08 0)
(-0.377783 1.37288e-08 0)
(-0.377783 -1.38565e-08 0)
(-0.377783 1.39824e-08 0)
(-0.377783 -1.41071e-08 0)
(-0.377783 1.42299e-08 0)
(-0.377783 -1.43515e-08 0)
(-0.377783 1.44711e-08 0)
(-0.377783 -1.45895e-08 0)
(-0.377783 1.47059e-08 0)
(-0.377783 -1.48209e-08 0)
(-0.377783 1.4934e-08 0)
(-0.377783 -1.50456e-08 0)
(-0.377783 1.51553e-08 0)
(-0.377783 -1.52635e-08 0)
(-0.377783 1.53693e-08 0)
(-0.377783 -1.54744e-08 0)
(-0.377783 1.55762e-08 0)
(-0.377783 -1.56779e-08 0)
(-0.377783 1.57757e-08 0)
(-0.377783 -1.58736e-08 0)
(-0.377783 1.59674e-08 0)
(-0.377783 -1.60613e-08 0)
(-0.377783 1.6151e-08 0)
(-0.377783 -1.62407e-08 0)
(-0.377783 1.63261e-08 0)
(-0.377783 -1.64111e-08 0)
(-0.377783 1.64924e-08 0)
(-0.377783 -1.65721e-08 0)
(-0.377783 1.66494e-08 0)
(-0.377783 -1.67234e-08 0)
(-0.377783 1.67962e-08 0)
(-0.377783 -1.68642e-08 0)
(-0.377783 1.69324e-08 0)
(-0.377783 -1.69936e-08 0)
(-0.377783 1.70569e-08 0)
(-0.377783 -1.71106e-08 0)
(-0.377783 1.71685e-08 0)
(-0.377783 -1.72134e-08 0)
(-0.377783 1.72656e-08 0)
(-0.377783 -1.73003e-08 0)
(-0.377783 1.73449e-08 0)
(-0.377783 -1.73673e-08 0)
(-0.377783 1.74013e-08 0)
(-0.377783 -1.74082e-08 0)
)
;

boundaryField
{
    inandouthalf11
    {
        type            cyclic;
    }
    inandouthalf12
    {
        type            cyclic;
    }
    inandouthalf21
    {
        type            cyclic;
    }
    inandouthalf22
    {
        type            cyclic;
    }
    inandouthalf31
    {
        type            cyclic;
    }
    inandouthalf32
    {
        type            cyclic;
    }
    inandouthalf41
    {
        type            cyclic;
    }
    inandouthalf42
    {
        type            cyclic;
    }
    top
    {
        type            symmetryPlane;
    }
    walls
    {
        type            calculated;
        value           uniform (0 0 0);
    }
    frontAndBackPlanes
    {
        type            empty;
    }
}


// ************************************************************************* //
