/*--------------------------------*- C++ -*----------------------------------*\
| =========                 |                                                 |
| \\      /  F ield         | OpenFOAM: The Open Source CFD Toolbox           |
|  \\    /   O peration     | Version:  2.4.x                                 |
|   \\  /    A nd           | Web:      www.OpenFOAM.org                      |
|    \\/     M anipulation  |                                                 |
\*---------------------------------------------------------------------------*/
FoamFile
{
    version     2.0;
    format      ascii;
    class       volVectorField;
    location    "7.15";
    object      Ua;
}
// * * * * * * * * * * * * * * * * * * * * * * * * * * * * * * * * * * * * * //

dimensions      [0 1 -1 0 0 0 0];

internalField   nonuniform List<vector> 
360
(
(-1.92355e-33 -9.93357e-32 0)
(-3.20214e-09 -1.10146e-07 0)
(-6.85592e-09 -1.98195e-07 0)
(-1.02375e-08 -2.73123e-07 0)
(-1.37935e-08 -3.50406e-07 0)
(-1.76652e-08 -4.30914e-07 0)
(-2.17883e-08 -5.12217e-07 0)
(-2.61184e-08 -5.9353e-07 0)
(-3.06531e-08 -6.74932e-07 0)
(-3.54022e-08 -7.56601e-07 0)
(-4.03757e-08 -8.38691e-07 0)
(-4.558e-08 -9.21262e-07 0)
(-5.1018e-08 -1.0043e-06 0)
(-5.66913e-08 -1.0878e-06 0)
(-6.26021e-08 -1.17173e-06 0)
(-6.8754e-08 -1.25611e-06 0)
(-7.51517e-08 -1.34098e-06 0)
(-8.17998e-08 -1.42635e-06 0)
(-8.87021e-08 -1.51222e-06 0)
(-9.58628e-08 -1.59861e-06 0)
(-1.03286e-07 -1.68551e-06 0)
(-1.10974e-07 -1.77293e-06 0)
(-1.18933e-07 -1.86089e-06 0)
(-1.27167e-07 -1.94937e-06 0)
(-1.3568e-07 -2.0384e-06 0)
(-1.44476e-07 -2.12796e-06 0)
(-1.53559e-07 -2.21804e-06 0)
(-1.62932e-07 -2.30867e-06 0)
(-1.72603e-07 -2.39983e-06 0)
(-1.82572e-07 -2.49153e-06 0)
(-1.92845e-07 -2.58375e-06 0)
(-2.03426e-07 -2.67649e-06 0)
(-2.14318e-07 -2.76973e-06 0)
(-2.25524e-07 -2.86347e-06 0)
(-2.37048e-07 -2.9577e-06 0)
(-2.48891e-07 -3.0524e-06 0)
(-2.61056e-07 -3.14752e-06 0)
(-2.73544e-07 -3.24306e-06 0)
(-2.86357e-07 -3.339e-06 0)
(-2.99496e-07 -3.4353e-06 0)
(-3.1296e-07 -3.53192e-06 0)
(-3.2675e-07 -3.62884e-06 0)
(-3.40864e-07 -3.72601e-06 0)
(-3.55302e-07 -3.82341e-06 0)
(-3.70066e-07 -3.92102e-06 0)
(-3.85158e-07 -4.01881e-06 0)
(-4.00577e-07 -4.11678e-06 0)
(-4.16323e-07 -4.21487e-06 0)
(-4.32403e-07 -4.31309e-06 0)
(-4.48828e-07 -4.41151e-06 0)
(-4.65607e-07 -4.51015e-06 0)
(-4.82748e-07 -4.60902e-06 0)
(-5.00263e-07 -4.70815e-06 0)
(-5.18166e-07 -4.80758e-06 0)
(-5.36467e-07 -4.90734e-06 0)
(-5.55178e-07 -5.00746e-06 0)
(-5.7431e-07 -5.10795e-06 0)
(-5.93869e-07 -5.20881e-06 0)
(-6.13862e-07 -5.31003e-06 0)
(-6.3429e-07 -5.41155e-06 0)
(-6.5516e-07 -5.5134e-06 0)
(-6.76476e-07 -5.61555e-06 0)
(-6.98232e-07 -5.71793e-06 0)
(-7.20414e-07 -5.82045e-06 0)
(-7.42991e-07 -5.92292e-06 0)
(-7.65922e-07 -6.02512e-06 0)
(-7.89157e-07 -6.12684e-06 0)
(-8.1264e-07 -6.22781e-06 0)
(-8.36307e-07 -6.32776e-06 0)
(-8.60093e-07 -6.42641e-06 0)
(-8.83946e-07 -6.52359e-06 0)
(-9.07823e-07 -6.61918e-06 0)
(-9.31677e-07 -6.71299e-06 0)
(-9.55467e-07 -6.80492e-06 0)
(-9.79168e-07 -6.89492e-06 0)
(-1.00276e-06 -6.98297e-06 0)
(-1.02621e-06 -7.06902e-06 0)
(-1.04952e-06 -7.15305e-06 0)
(-1.07269e-06 -7.23516e-06 0)
(-1.09575e-06 -7.31547e-06 0)
(-1.11873e-06 -7.39417e-06 0)
(-1.14171e-06 -7.47153e-06 0)
(-1.16477e-06 -7.54788e-06 0)
(-1.18803e-06 -7.62357e-06 0)
(-1.21161e-06 -7.699e-06 0)
(-1.23563e-06 -7.77455e-06 0)
(-1.26025e-06 -7.85063e-06 0)
(-1.28559e-06 -7.92759e-06 0)
(-1.31181e-06 -8.00583e-06 0)
(-1.33907e-06 -8.0857e-06 0)
(-1.36754e-06 -8.16759e-06 0)
(-1.39741e-06 -8.2519e-06 0)
(-1.42887e-06 -8.33902e-06 0)
(-1.46214e-06 -8.42936e-06 0)
(-1.49744e-06 -8.52333e-06 0)
(-1.53498e-06 -8.62127e-06 0)
(-1.57497e-06 -8.72348e-06 0)
(-1.6176e-06 -8.83017e-06 0)
(-1.66301e-06 -8.94139e-06 0)
(-1.71128e-06 -9.05708e-06 0)
(-1.76243e-06 -9.17697e-06 0)
(-1.81639e-06 -9.30061e-06 0)
(-1.87297e-06 -9.42733e-06 0)
(-1.9319e-06 -9.55623e-06 0)
(-1.99275e-06 -9.68622e-06 0)
(-2.055e-06 -9.81604e-06 0)
(-2.11802e-06 -9.94427e-06 0)
(-2.18111e-06 -1.00695e-05 0)
(-2.24351e-06 -1.01902e-05 0)
(-2.30446e-06 -1.03052e-05 0)
(-2.36326e-06 -1.04132e-05 0)
(-2.41927e-06 -1.05134e-05 0)
(-2.47194e-06 -1.06052e-05 0)
(-2.5209e-06 -1.06882e-05 0)
(-2.56588e-06 -1.07623e-05 0)
(-2.60675e-06 -1.08277e-05 0)
(-2.64352e-06 -1.0885e-05 0)
(-2.67631e-06 -1.09345e-05 0)
(-2.7053e-06 -1.0977e-05 0)
(-2.73075e-06 -1.10132e-05 0)
(-2.75295e-06 -1.10438e-05 0)
(-2.77222e-06 -1.10694e-05 0)
(-2.78885e-06 -1.10909e-05 0)
(-2.80315e-06 -1.11087e-05 0)
(-2.81541e-06 -1.11235e-05 0)
(-2.82589e-06 -1.11356e-05 0)
(-2.83483e-06 -1.11456e-05 0)
(-2.84244e-06 -1.11538e-05 0)
(-2.84891e-06 -1.11604e-05 0)
(-2.85441e-06 -1.11658e-05 0)
(-2.85905e-06 -1.11702e-05 0)
(-2.86295e-06 -1.11737e-05 0)
(-2.86622e-06 -1.11765e-05 0)
(-2.86893e-06 -1.11787e-05 0)
(-2.87117e-06 -1.11804e-05 0)
(-2.87303e-06 -1.11817e-05 0)
(-2.87456e-06 -1.11827e-05 0)
(-2.87586e-06 -1.11835e-05 0)
(-2.877e-06 -1.11842e-05 0)
(-2.87806e-06 -1.11847e-05 0)
(-2.87908e-06 -1.11852e-05 0)
(-2.88002e-06 -1.11856e-05 0)
(-2.88079e-06 -1.11859e-05 0)
(-2.88129e-06 -1.11861e-05 0)
(-2.8815e-06 -1.11861e-05 0)
(-2.88155e-06 -1.11861e-05 0)
(-2.88156e-06 -1.11862e-05 0)
(-1.15401e-07 -2.01561e-05 0)
(6.74633e-06 -3.83933e-05 0)
(1.9976e-05 -6.94414e-05 0)
(-5.8829e-05 -0.000526429 0)
(-0.0110747 -0.00330524 0)
(-0.0216711 -0.00565604 0)
(-0.0305258 -0.00743852 0)
(-0.0385159 -0.008763 0)
(-0.0459788 -0.00965862 0)
(-0.0530754 -0.0102677 0)
(-0.0598923 -0.0106823 0)
(-0.0664811 -0.0109568 0)
(-0.0728751 -0.0111288 0)
(-0.0790972 -0.0112254 0)
(-0.0851638 -0.0112661 0)
(-0.0910872 -0.0112657 0)
(-0.0968769 -0.0112349 0)
(-0.10254 -0.0111823 0)
(-0.108083 -0.0111142 0)
(-0.113509 -0.0110355 0)
(-0.118824 -0.0109499 0)
(-0.124029 -0.0108603 0)
(-0.129128 -0.0107689 0)
(-0.134122 -0.0106771 0)
(-0.139014 -0.0105859 0)
(-0.143804 -0.0104959 0)
(-0.148495 -0.0104075 0)
(-0.153086 -0.0103205 0)
(-0.157579 -0.0102348 0)
(-0.161975 -0.0101499 0)
(-0.166274 -0.0100652 0)
(-0.170477 -0.0099801 0)
(-0.174584 -0.00989386 0)
(-0.178596 -0.00980576 0)
(-0.182513 -0.00971507 0)
(-0.186336 -0.0096211 0)
(-0.190064 -0.0095232 0)
(-0.193699 -0.0094208 0)
(-0.19724 -0.00931341 0)
(-0.200687 -0.00920062 0)
(-0.204041 -0.00908214 0)
(-0.207302 -0.00895776 0)
(-0.21047 -0.00882737 0)
(-0.213544 -0.00869095 0)
(-0.216526 -0.00854859 0)
(-0.219414 -0.00840044 0)
(-0.222209 -0.00824675 0)
(-0.224911 -0.00808784 0)
(-0.227519 -0.00792409 0)
(-0.230033 -0.00775594 0)
(-0.232453 -0.00758389 0)
(-0.234778 -0.00740847 0)
(-0.237009 -0.00723021 0)
(-0.239144 -0.0070497 0)
(-0.241205 -0.00686569 0)
(-0.243211 -0.00667683 0)
(-0.245159 -0.00648365 0)
(-0.247048 -0.00628682 0)
(-0.248878 -0.0060872 0)
(-0.250645 -0.00588585 0)
(-0.252349 -0.00568398 0)
(-0.25399 -0.00548295 0)
(-0.255567 -0.00528423 0)
(-0.25708 -0.00508934 0)
(-0.25853 -0.00489976 0)
(-0.259918 -0.00471683 0)
(-0.261247 -0.0045416 0)
(-0.262519 -0.00437494 0)
(-0.263738 -0.00421742 0)
(-0.264907 -0.00406924 0)
(-0.266031 -0.00393033 0)
(-0.267115 -0.00380039 0)
(-0.268163 -0.003679 0)
(-0.269179 -0.00356553 0)
(-0.270168 -0.00345934 0)
(-0.271135 -0.0033599 0)
(-0.272082 -0.00326671 0)
(-0.273014 -0.0031793 0)
(-0.273932 -0.00309742 0)
(-0.274839 -0.00302088 0)
(-0.275737 -0.00294971 0)
(-0.276624 -0.00288396 0)
(-0.277499 -0.0028242 0)
(-0.27836 -0.00277085 0)
(-0.2792 -0.00272554 0)
(-0.280009 -0.00268886 0)
(-0.28078 -0.00266674 0)
(-0.281488 -0.00266257 0)
(-0.282083 -0.00267621 0)
(-0.282763 -0.00270621 0)
(-0.385076 0.000496892 0)
(-0.387124 -0.00199768 0)
(-0.388875 0.00423713 0)
(-0.390583 -0.00335263 0)
(-0.391576 0.00907917 0)
(-0.392757 -0.00766421 0)
(-0.392406 -0.0381529 0)
(-0.392942 -0.0395821 0)
(-0.393252 -0.0395619 0)
(-0.393311 -0.039556 0)
(-0.393129 -0.0395501 0)
(-0.392728 -0.0395458 0)
(-0.392134 -0.0395425 0)
(-0.391369 -0.03954 0)
(-0.390458 -0.0395383 0)
(-0.389425 -0.0395372 0)
(-0.388299 -0.0395363 0)
(-0.387109 -0.0395356 0)
(-0.38589 -0.0395348 0)
(-0.384679 -0.0395336 0)
(-0.383524 -0.0395315 0)
(-0.382478 -0.0395276 0)
(-0.381762 -0.0395188 0)
(-0.381542 -0.0395118 0)
(-0.381525 -0.0395097 0)
(-0.381525 -0.0395096 0)
(-0.381525 -0.0395096 0)
(-0.381525 -0.0395096 0)
(-0.381525 -0.0395096 0)
(-0.381525 -0.0395096 0)
(-0.381525 -0.0395096 0)
(-0.381525 -0.0395096 0)
(-0.381525 -0.0395096 0)
(-0.381525 -0.0395096 0)
(-0.381525 -0.0395096 0)
(-0.381525 -0.0395096 0)
(-0.381525 -0.0395096 0)
(-0.381525 -0.0395096 0)
(-0.381525 -0.0395096 0)
(-0.381525 -0.0395096 0)
(-0.381525 -0.0395096 0)
(-0.381525 -0.0395096 0)
(-0.381525 -0.0395096 0)
(-0.381525 -0.0395096 0)
(-0.381525 -0.0395096 0)
(-0.381525 -0.0395096 0)
(-0.381525 -0.0395096 0)
(-0.381525 -0.0395096 0)
(-0.381525 -0.0395096 0)
(-0.381525 -0.0395096 0)
(-0.381525 -0.0395096 0)
(-0.381525 -0.0395096 0)
(-0.381525 -0.0395096 0)
(-0.381525 -0.0395096 0)
(-0.381525 -0.0395096 0)
(-0.381525 -0.0395096 0)
(-0.381525 -0.0395096 0)
(-0.381525 -0.0395096 0)
(-0.381525 -0.0395096 0)
(-0.381525 -0.0395096 0)
(-0.381525 -0.0395096 0)
(-0.381525 -0.0395096 0)
(-0.381525 -0.0395096 0)
(-0.381525 -0.0395096 0)
(-0.381525 -0.0395096 0)
(-0.381525 -0.0395096 0)
(-0.381525 -0.0395096 0)
(-0.381525 -0.0395096 0)
(-0.381525 -0.0395096 0)
(-0.381525 -0.0395096 0)
(-0.381525 -0.0395096 0)
(-0.381525 -0.0395096 0)
(-0.381525 -0.0395096 0)
(-0.381525 -0.0395096 0)
(-0.381525 -0.0395096 0)
(-0.381525 -0.0395096 0)
(-0.381525 -0.0395096 0)
(-0.381525 -0.0395096 0)
(-0.381525 -0.0395096 0)
(-0.381525 -0.0395096 0)
(-0.381525 -0.0395096 0)
(-0.381525 -0.0395096 0)
(-0.381525 -0.0395096 0)
(-0.381525 -0.0395096 0)
(-0.381525 -0.0395096 0)
(-0.381525 -0.0395096 0)
(-0.381525 -0.0395096 0)
(-0.381525 -0.0395096 0)
(-0.381525 -0.0395096 0)
(-0.381525 -0.0395096 0)
(-0.381525 -0.0395096 0)
(-0.381525 -0.0395096 0)
(-0.381525 -0.0395096 0)
(-0.381525 -0.0395096 0)
(-0.381525 -0.0395096 0)
(-0.381525 -0.0395096 0)
(-0.381525 -0.0395096 0)
(-0.381525 -0.0395096 0)
(-0.381525 -0.0395096 0)
(-0.381525 -0.0395096 0)
(-0.381525 -0.0395096 0)
(-0.381525 -0.0395096 0)
(-0.381525 -0.0395096 0)
(-0.381525 -0.0395096 0)
(-0.381525 -0.0395096 0)
(-0.381525 -0.0395096 0)
(-0.381525 -0.0395096 0)
(-0.381525 -0.0395096 0)
(-0.381525 -0.0395096 0)
(-0.381525 -0.0395096 0)
(-0.381525 -0.0395096 0)
(-0.381525 -0.0395096 0)
(-0.381525 -0.0395096 0)
(-0.381525 -0.0395096 0)
(-0.381525 -0.0395096 0)
(-0.381525 -0.0395096 0)
(-0.381525 -0.0395096 0)
(-0.381525 -0.0395096 0)
(-0.381525 -0.0395096 0)
(-0.381525 -0.0395094 0)
(-0.381526 -0.0395009 0)
(-0.381551 -0.0391555 0)
(-0.382142 -0.0224209 0)
)
;

boundaryField
{
    inandouthalf11
    {
        type            cyclic;
    }
    inandouthalf12
    {
        type            cyclic;
    }
    inandouthalf21
    {
        type            cyclic;
    }
    inandouthalf22
    {
        type            cyclic;
    }
    inandouthalf31
    {
        type            cyclic;
    }
    inandouthalf32
    {
        type            cyclic;
    }
    inandouthalf41
    {
        type            cyclic;
    }
    inandouthalf42
    {
        type            cyclic;
    }
    top
    {
        type            symmetryPlane;
    }
    walls
    {
        type            fixedValue;
        value           uniform (0 0 0);
    }
    frontAndBackPlanes
    {
        type            empty;
    }
}


// ************************************************************************* //
