/*--------------------------------*- C++ -*----------------------------------*\
| =========                 |                                                 |
| \\      /  F ield         | OpenFOAM: The Open Source CFD Toolbox           |
|  \\    /   O peration     | Version:  2.4.x                                 |
|   \\  /    A nd           | Web:      www.OpenFOAM.org                      |
|    \\/     M anipulation  |                                                 |
\*---------------------------------------------------------------------------*/
FoamFile
{
    version     2.0;
    format      ascii;
    class       volVectorField;
    location    "7.15";
    object      Ua_0;
}
// * * * * * * * * * * * * * * * * * * * * * * * * * * * * * * * * * * * * * //

dimensions      [0 1 -1 0 0 0 0];

internalField   nonuniform List<vector> 
360
(
(-1.92652e-33 -9.93349e-32 0)
(-3.20707e-09 -1.10156e-07 0)
(-6.86617e-09 -1.98213e-07 0)
(-1.02524e-08 -2.73147e-07 0)
(-1.38131e-08 -3.50437e-07 0)
(-1.76896e-08 -4.30953e-07 0)
(-2.18177e-08 -5.12264e-07 0)
(-2.61528e-08 -5.93584e-07 0)
(-3.06925e-08 -6.74994e-07 0)
(-3.54466e-08 -7.56671e-07 0)
(-4.04252e-08 -8.3877e-07 0)
(-4.56347e-08 -9.21349e-07 0)
(-5.10779e-08 -1.0044e-06 0)
(-5.67565e-08 -1.0879e-06 0)
(-6.26726e-08 -1.17184e-06 0)
(-6.88299e-08 -1.25624e-06 0)
(-7.52332e-08 -1.34111e-06 0)
(-8.18867e-08 -1.42649e-06 0)
(-8.87946e-08 -1.51237e-06 0)
(-9.59611e-08 -1.59877e-06 0)
(-1.0339e-07 -1.68568e-06 0)
(-1.11084e-07 -1.77312e-06 0)
(-1.19049e-07 -1.86108e-06 0)
(-1.27289e-07 -1.94957e-06 0)
(-1.35808e-07 -2.03861e-06 0)
(-1.4461e-07 -2.12818e-06 0)
(-1.53699e-07 -2.21828e-06 0)
(-1.63079e-07 -2.30891e-06 0)
(-1.72756e-07 -2.40009e-06 0)
(-1.82732e-07 -2.4918e-06 0)
(-1.93012e-07 -2.58402e-06 0)
(-2.03599e-07 -2.67677e-06 0)
(-2.14497e-07 -2.77003e-06 0)
(-2.2571e-07 -2.86378e-06 0)
(-2.37241e-07 -2.95803e-06 0)
(-2.49092e-07 -3.05273e-06 0)
(-2.61263e-07 -3.14787e-06 0)
(-2.73759e-07 -3.24342e-06 0)
(-2.8658e-07 -3.33937e-06 0)
(-2.99726e-07 -3.43568e-06 0)
(-3.13198e-07 -3.53231e-06 0)
(-3.26995e-07 -3.62926e-06 0)
(-3.41117e-07 -3.72644e-06 0)
(-3.55563e-07 -3.82384e-06 0)
(-3.70335e-07 -3.92147e-06 0)
(-3.85435e-07 -4.01927e-06 0)
(-4.00862e-07 -4.11725e-06 0)
(-4.16617e-07 -4.21536e-06 0)
(-4.32705e-07 -4.31359e-06 0)
(-4.49138e-07 -4.41203e-06 0)
(-4.65926e-07 -4.51068e-06 0)
(-4.83077e-07 -4.60956e-06 0)
(-5.00601e-07 -4.7087e-06 0)
(-5.18513e-07 -4.80816e-06 0)
(-5.36824e-07 -4.90793e-06 0)
(-5.55545e-07 -5.00807e-06 0)
(-5.74686e-07 -5.10857e-06 0)
(-5.94256e-07 -5.20945e-06 0)
(-6.14259e-07 -5.31068e-06 0)
(-6.34698e-07 -5.41223e-06 0)
(-6.55579e-07 -5.51409e-06 0)
(-6.76906e-07 -5.61626e-06 0)
(-6.98674e-07 -5.71866e-06 0)
(-7.20867e-07 -5.82119e-06 0)
(-7.43455e-07 -5.92367e-06 0)
(-7.66397e-07 -6.02589e-06 0)
(-7.89643e-07 -6.12762e-06 0)
(-8.13136e-07 -6.2286e-06 0)
(-8.36813e-07 -6.32856e-06 0)
(-8.60608e-07 -6.42721e-06 0)
(-8.8447e-07 -6.5244e-06 0)
(-9.08356e-07 -6.61999e-06 0)
(-9.32217e-07 -6.7138e-06 0)
(-9.56015e-07 -6.80573e-06 0)
(-9.79724e-07 -6.89573e-06 0)
(-1.00332e-06 -6.98377e-06 0)
(-1.02678e-06 -7.06982e-06 0)
(-1.0501e-06 -7.15385e-06 0)
(-1.07328e-06 -7.23596e-06 0)
(-1.09634e-06 -7.31627e-06 0)
(-1.11933e-06 -7.39498e-06 0)
(-1.14232e-06 -7.47234e-06 0)
(-1.16539e-06 -7.5487e-06 0)
(-1.18867e-06 -7.62441e-06 0)
(-1.21226e-06 -7.69986e-06 0)
(-1.2363e-06 -7.77544e-06 0)
(-1.26093e-06 -7.85154e-06 0)
(-1.2863e-06 -7.92855e-06 0)
(-1.31255e-06 -8.00683e-06 0)
(-1.33984e-06 -8.08677e-06 0)
(-1.36835e-06 -8.16873e-06 0)
(-1.39825e-06 -8.25311e-06 0)
(-1.42976e-06 -8.34032e-06 0)
(-1.46308e-06 -8.43077e-06 0)
(-1.49843e-06 -8.52486e-06 0)
(-1.53604e-06 -8.62293e-06 0)
(-1.5761e-06 -8.72528e-06 0)
(-1.61881e-06 -8.83211e-06 0)
(-1.6643e-06 -8.94349e-06 0)
(-1.71266e-06 -9.05934e-06 0)
(-1.76391e-06 -9.1794e-06 0)
(-1.81796e-06 -9.3032e-06 0)
(-1.87464e-06 -9.43007e-06 0)
(-1.93366e-06 -9.55911e-06 0)
(-1.99459e-06 -9.68922e-06 0)
(-2.05691e-06 -9.81911e-06 0)
(-2.11999e-06 -9.9474e-06 0)
(-2.18311e-06 -1.00726e-05 0)
(-2.24553e-06 -1.01933e-05 0)
(-2.30648e-06 -1.03082e-05 0)
(-2.36525e-06 -1.04162e-05 0)
(-2.4212e-06 -1.05162e-05 0)
(-2.47381e-06 -1.06078e-05 0)
(-2.52268e-06 -1.06906e-05 0)
(-2.56755e-06 -1.07645e-05 0)
(-2.60832e-06 -1.08298e-05 0)
(-2.64497e-06 -1.08868e-05 0)
(-2.67764e-06 -1.09361e-05 0)
(-2.70651e-06 -1.09784e-05 0)
(-2.73185e-06 -1.10144e-05 0)
(-2.75394e-06 -1.10448e-05 0)
(-2.7731e-06 -1.10704e-05 0)
(-2.78964e-06 -1.10917e-05 0)
(-2.80385e-06 -1.11094e-05 0)
(-2.81603e-06 -1.1124e-05 0)
(-2.82644e-06 -1.11361e-05 0)
(-2.83532e-06 -1.1146e-05 0)
(-2.84287e-06 -1.11541e-05 0)
(-2.84929e-06 -1.11607e-05 0)
(-2.85474e-06 -1.11661e-05 0)
(-2.85935e-06 -1.11704e-05 0)
(-2.86322e-06 -1.11739e-05 0)
(-2.86645e-06 -1.11766e-05 0)
(-2.86914e-06 -1.11788e-05 0)
(-2.87137e-06 -1.11805e-05 0)
(-2.8732e-06 -1.11818e-05 0)
(-2.87472e-06 -1.11828e-05 0)
(-2.87601e-06 -1.11836e-05 0)
(-2.87714e-06 -1.11842e-05 0)
(-2.87819e-06 -1.11848e-05 0)
(-2.8792e-06 -1.11853e-05 0)
(-2.88013e-06 -1.11857e-05 0)
(-2.88089e-06 -1.1186e-05 0)
(-2.88139e-06 -1.11861e-05 0)
(-2.8816e-06 -1.11862e-05 0)
(-2.88165e-06 -1.11862e-05 0)
(-2.88165e-06 -1.11862e-05 0)
(-1.78595e-07 -2.00071e-05 0)
(6.53583e-06 -3.8041e-05 0)
(1.94281e-05 -6.88624e-05 0)
(-7.60153e-05 -0.000545827 0)
(-0.0111655 -0.00332217 0)
(-0.0217784 -0.00567044 0)
(-0.0306414 -0.00744874 0)
(-0.0386378 -0.00877001 0)
(-0.046106 -0.00966323 0)
(-0.0532072 -0.0102707 0)
(-0.0600282 -0.0106841 0)
(-0.0666206 -0.0109578 0)
(-0.0730179 -0.0111291 0)
(-0.0792429 -0.0112252 0)
(-0.0853123 -0.0112655 0)
(-0.0912381 -0.0112648 0)
(-0.09703 -0.0112338 0)
(-0.102695 -0.011181 0)
(-0.10824 -0.0111127 0)
(-0.113668 -0.0110339 0)
(-0.118984 -0.0109482 0)
(-0.124191 -0.0108586 0)
(-0.129291 -0.0107671 0)
(-0.134287 -0.0106752 0)
(-0.13918 -0.010584 0)
(-0.143972 -0.010494 0)
(-0.148663 -0.0104055 0)
(-0.153255 -0.0103186 0)
(-0.15775 -0.0102328 0)
(-0.162146 -0.0101479 0)
(-0.166446 -0.0100632 0)
(-0.17065 -0.00997806 0)
(-0.174758 -0.0098918 0)
(-0.178771 -0.00980367 0)
(-0.182688 -0.00971295 0)
(-0.186512 -0.00961895 0)
(-0.190241 -0.00952101 0)
(-0.193876 -0.00941858 0)
(-0.197417 -0.00931115 0)
(-0.200865 -0.00919832 0)
(-0.20422 -0.0090798 0)
(-0.207481 -0.00895537 0)
(-0.210649 -0.00882493 0)
(-0.213724 -0.00868846 0)
(-0.216706 -0.00854605 0)
(-0.219595 -0.00839785 0)
(-0.22239 -0.00824412 0)
(-0.225092 -0.00808516 0)
(-0.227701 -0.00792136 0)
(-0.230215 -0.00775317 0)
(-0.232635 -0.00758108 0)
(-0.234961 -0.00740561 0)
(-0.237191 -0.00722731 0)
(-0.239327 -0.00704676 0)
(-0.241388 -0.00686271 0)
(-0.243394 -0.00667382 0)
(-0.245342 -0.0064806 0)
(-0.247232 -0.00628375 0)
(-0.249061 -0.0060841 0)
(-0.250829 -0.00588272 0)
(-0.252534 -0.00568082 0)
(-0.254175 -0.00547977 0)
(-0.255752 -0.00528103 0)
(-0.257265 -0.00508611 0)
(-0.258715 -0.00489652 0)
(-0.260103 -0.00471356 0)
(-0.261432 -0.00453832 0)
(-0.262704 -0.00437165 0)
(-0.263923 -0.00421412 0)
(-0.265092 -0.00406594 0)
(-0.266217 -0.00392702 0)
(-0.2673 -0.00379709 0)
(-0.268348 -0.0036757 0)
(-0.269364 -0.00356224 0)
(-0.270354 -0.00345605 0)
(-0.27132 -0.00335663 0)
(-0.272268 -0.00326345 0)
(-0.273199 -0.00317606 0)
(-0.274117 -0.0030942 0)
(-0.275025 -0.00301768 0)
(-0.275922 -0.00294653 0)
(-0.276809 -0.00288081 0)
(-0.277685 -0.00282107 0)
(-0.278545 -0.00276776 0)
(-0.279385 -0.00272249 0)
(-0.280195 -0.00268584 0)
(-0.280966 -0.00266376 0)
(-0.281674 -0.00265964 0)
(-0.282268 -0.00267335 0)
(-0.282949 -0.00270343 0)
(-0.385261 0.000498592 0)
(-0.387308 -0.00199403 0)
(-0.389059 0.00424082 0)
(-0.390765 -0.00335194 0)
(-0.391757 0.00909041 0)
(-0.392938 -0.00767298 0)
(-0.392587 -0.0381588 0)
(-0.393122 -0.0395821 0)
(-0.393432 -0.0395619 0)
(-0.39349 -0.039556 0)
(-0.393307 -0.0395501 0)
(-0.392906 -0.0395458 0)
(-0.392312 -0.0395425 0)
(-0.391546 -0.03954 0)
(-0.390635 -0.0395383 0)
(-0.389602 -0.0395372 0)
(-0.388475 -0.0395363 0)
(-0.387286 -0.0395356 0)
(-0.386066 -0.0395348 0)
(-0.384856 -0.0395336 0)
(-0.3837 -0.0395315 0)
(-0.382655 -0.0395276 0)
(-0.381938 -0.0395189 0)
(-0.381719 -0.0395118 0)
(-0.381702 -0.0395098 0)
(-0.381702 -0.0395096 0)
(-0.381702 -0.0395096 0)
(-0.381702 -0.0395096 0)
(-0.381702 -0.0395096 0)
(-0.381702 -0.0395096 0)
(-0.381702 -0.0395096 0)
(-0.381702 -0.0395096 0)
(-0.381702 -0.0395096 0)
(-0.381702 -0.0395096 0)
(-0.381702 -0.0395096 0)
(-0.381702 -0.0395096 0)
(-0.381702 -0.0395096 0)
(-0.381702 -0.0395096 0)
(-0.381702 -0.0395096 0)
(-0.381702 -0.0395096 0)
(-0.381702 -0.0395096 0)
(-0.381702 -0.0395096 0)
(-0.381702 -0.0395096 0)
(-0.381702 -0.0395096 0)
(-0.381702 -0.0395096 0)
(-0.381702 -0.0395096 0)
(-0.381702 -0.0395096 0)
(-0.381702 -0.0395096 0)
(-0.381702 -0.0395096 0)
(-0.381702 -0.0395096 0)
(-0.381702 -0.0395096 0)
(-0.381702 -0.0395096 0)
(-0.381702 -0.0395096 0)
(-0.381702 -0.0395096 0)
(-0.381702 -0.0395096 0)
(-0.381702 -0.0395096 0)
(-0.381702 -0.0395096 0)
(-0.381702 -0.0395096 0)
(-0.381702 -0.0395096 0)
(-0.381702 -0.0395096 0)
(-0.381702 -0.0395096 0)
(-0.381702 -0.0395096 0)
(-0.381702 -0.0395096 0)
(-0.381702 -0.0395096 0)
(-0.381702 -0.0395096 0)
(-0.381702 -0.0395096 0)
(-0.381702 -0.0395096 0)
(-0.381702 -0.0395096 0)
(-0.381702 -0.0395096 0)
(-0.381702 -0.0395096 0)
(-0.381702 -0.0395096 0)
(-0.381702 -0.0395096 0)
(-0.381702 -0.0395096 0)
(-0.381702 -0.0395096 0)
(-0.381702 -0.0395096 0)
(-0.381702 -0.0395096 0)
(-0.381702 -0.0395096 0)
(-0.381702 -0.0395096 0)
(-0.381702 -0.0395096 0)
(-0.381702 -0.0395096 0)
(-0.381702 -0.0395096 0)
(-0.381702 -0.0395096 0)
(-0.381702 -0.0395096 0)
(-0.381702 -0.0395096 0)
(-0.381702 -0.0395096 0)
(-0.381702 -0.0395096 0)
(-0.381702 -0.0395096 0)
(-0.381702 -0.0395096 0)
(-0.381702 -0.0395096 0)
(-0.381702 -0.0395096 0)
(-0.381702 -0.0395096 0)
(-0.381702 -0.0395096 0)
(-0.381702 -0.0395096 0)
(-0.381702 -0.0395096 0)
(-0.381702 -0.0395096 0)
(-0.381702 -0.0395096 0)
(-0.381702 -0.0395096 0)
(-0.381702 -0.0395096 0)
(-0.381702 -0.0395096 0)
(-0.381702 -0.0395096 0)
(-0.381702 -0.0395096 0)
(-0.381702 -0.0395096 0)
(-0.381702 -0.0395096 0)
(-0.381702 -0.0395096 0)
(-0.381702 -0.0395096 0)
(-0.381702 -0.0395096 0)
(-0.381702 -0.0395096 0)
(-0.381702 -0.0395096 0)
(-0.381702 -0.0395096 0)
(-0.381702 -0.0395096 0)
(-0.381702 -0.0395096 0)
(-0.381702 -0.0395096 0)
(-0.381702 -0.0395096 0)
(-0.381702 -0.0395096 0)
(-0.381702 -0.0395096 0)
(-0.381702 -0.0395096 0)
(-0.381702 -0.0395096 0)
(-0.381702 -0.0395096 0)
(-0.381702 -0.0395096 0)
(-0.381702 -0.0395094 0)
(-0.381703 -0.0395009 0)
(-0.381728 -0.0391556 0)
(-0.382319 -0.0224209 0)
)
;

boundaryField
{
    inandouthalf11
    {
        type            cyclic;
    }
    inandouthalf12
    {
        type            cyclic;
    }
    inandouthalf21
    {
        type            cyclic;
    }
    inandouthalf22
    {
        type            cyclic;
    }
    inandouthalf31
    {
        type            cyclic;
    }
    inandouthalf32
    {
        type            cyclic;
    }
    inandouthalf41
    {
        type            cyclic;
    }
    inandouthalf42
    {
        type            cyclic;
    }
    top
    {
        type            symmetryPlane;
    }
    walls
    {
        type            fixedValue;
        value           uniform (0 0 0);
    }
    frontAndBackPlanes
    {
        type            empty;
    }
}


// ************************************************************************* //
