/*--------------------------------*- C++ -*----------------------------------*\
| =========                 |                                                 |
| \\      /  F ield         | OpenFOAM: The Open Source CFD Toolbox           |
|  \\    /   O peration     | Version:  2.4.x                                 |
|   \\  /    A nd           | Web:      www.OpenFOAM.org                      |
|    \\/     M anipulation  |                                                 |
\*---------------------------------------------------------------------------*/
FoamFile
{
    version     2.0;
    format      ascii;
    class       volVectorField;
    location    "7.15";
    object      Ub;
}
// * * * * * * * * * * * * * * * * * * * * * * * * * * * * * * * * * * * * * //

dimensions      [0 1 -1 0 0 0 0];

internalField   nonuniform List<vector> 
360
(
(0.000197975 4.56657e-08 0)
(0.000196967 1.64495e-07 0)
(0.000196791 3.03349e-07 0)
(0.000196925 4.29873e-07 0)
(0.000196998 5.53178e-07 0)
(0.000197022 6.78852e-07 0)
(0.000197048 8.06292e-07 0)
(0.00019708 9.34226e-07 0)
(0.000197113 1.06234e-06 0)
(0.000197147 1.19082e-06 0)
(0.000197181 1.3199e-06 0)
(0.000197215 1.44968e-06 0)
(0.000197249 1.58018e-06 0)
(0.000197283 1.71135e-06 0)
(0.000197317 1.8432e-06 0)
(0.000197351 1.97574e-06 0)
(0.000197386 2.10901e-06 0)
(0.00019742 2.24302e-06 0)
(0.000197455 2.3778e-06 0)
(0.00019749 2.51336e-06 0)
(0.000197524 2.6497e-06 0)
(0.000197559 2.78683e-06 0)
(0.000197595 2.92475e-06 0)
(0.00019763 3.06348e-06 0)
(0.000197665 3.20301e-06 0)
(0.000197701 3.34335e-06 0)
(0.000197737 3.48449e-06 0)
(0.000197773 3.62644e-06 0)
(0.000197809 3.7692e-06 0)
(0.000197845 3.91275e-06 0)
(0.000197881 4.05708e-06 0)
(0.000197918 4.20219e-06 0)
(0.000197954 4.34805e-06 0)
(0.000197992 4.49466e-06 0)
(0.000198028 4.64198e-06 0)
(0.000198066 4.78999e-06 0)
(0.000198103 4.93863e-06 0)
(0.00019814 5.08788e-06 0)
(0.000198179 5.23773e-06 0)
(0.000198216 5.38806e-06 0)
(0.000198255 5.53887e-06 0)
(0.000198293 5.69011e-06 0)
(0.000198331 5.84167e-06 0)
(0.00019837 5.99357e-06 0)
(0.000198409 6.14573e-06 0)
(0.000198449 6.29813e-06 0)
(0.000198489 6.45076e-06 0)
(0.000198528 6.60353e-06 0)
(0.000198568 6.75648e-06 0)
(0.000198609 6.90969e-06 0)
(0.00019865 7.06316e-06 0)
(0.000198691 7.21694e-06 0)
(0.000198732 7.37108e-06 0)
(0.000198774 7.52565e-06 0)
(0.000198816 7.68063e-06 0)
(0.000198859 7.83615e-06 0)
(0.000198901 7.99215e-06 0)
(0.000198945 8.14867e-06 0)
(0.000198988 8.30569e-06 0)
(0.000199031 8.46311e-06 0)
(0.000199076 8.621e-06 0)
(0.00019912 8.77923e-06 0)
(0.000199165 8.93776e-06 0)
(0.000199211 9.09639e-06 0)
(0.000199257 9.25487e-06 0)
(0.000199303 9.41285e-06 0)
(0.00019935 9.56998e-06 0)
(0.000199397 9.72586e-06 0)
(0.000199446 9.88009e-06 0)
(0.000199494 1.00322e-05 0)
(0.000199544 1.0182e-05 0)
(0.000199596 1.03292e-05 0)
(0.000199647 1.04736e-05 0)
(0.000199701 1.0615e-05 0)
(0.000199755 1.07533e-05 0)
(0.000199811 1.08884e-05 0)
(0.000199867 1.10204e-05 0)
(0.000199925 1.11492e-05 0)
(0.000199985 1.12749e-05 0)
(0.000200046 1.13978e-05 0)
(0.000200108 1.15181e-05 0)
(0.000200171 1.16362e-05 0)
(0.000200236 1.17527e-05 0)
(0.000200302 1.1868e-05 0)
(0.00020037 1.19829e-05 0)
(0.000200439 1.20979e-05 0)
(0.000200508 1.22135e-05 0)
(0.000200579 1.23305e-05 0)
(0.000200651 1.24493e-05 0)
(0.000200723 1.25705e-05 0)
(0.000200796 1.26948e-05 0)
(0.000200869 1.28227e-05 0)
(0.000200943 1.29548e-05 0)
(0.000201018 1.30918e-05 0)
(0.000201092 1.32343e-05 0)
(0.000201167 1.33827e-05 0)
(0.000201241 1.35376e-05 0)
(0.000201316 1.36992e-05 0)
(0.00020139 1.38676e-05 0)
(0.000201464 1.40427e-05 0)
(0.000201538 1.4224e-05 0)
(0.000201611 1.44108e-05 0)
(0.000201686 1.46021e-05 0)
(0.00020176 1.47964e-05 0)
(0.000201836 1.49922e-05 0)
(0.000201914 1.51873e-05 0)
(0.000201995 1.53798e-05 0)
(0.000202079 1.55673e-05 0)
(0.000202167 1.57476e-05 0)
(0.000202261 1.59189e-05 0)
(0.00020236 1.60792e-05 0)
(0.000202467 1.62272e-05 0)
(0.000202582 1.63621e-05 0)
(0.000202705 1.64832e-05 0)
(0.000202837 1.65904e-05 0)
(0.000202978 1.66841e-05 0)
(0.000203128 1.67649e-05 0)
(0.000203288 1.68336e-05 0)
(0.000203458 1.68911e-05 0)
(0.000203637 1.69387e-05 0)
(0.000203827 1.69773e-05 0)
(0.000204026 1.7008e-05 0)
(0.000204235 1.70319e-05 0)
(0.000204454 1.70499e-05 0)
(0.000204683 1.70628e-05 0)
(0.000204922 1.70713e-05 0)
(0.000205172 1.7076e-05 0)
(0.000205433 1.70776e-05 0)
(0.000205707 1.70764e-05 0)
(0.000205992 1.70728e-05 0)
(0.000206291 1.70672e-05 0)
(0.000206603 1.70596e-05 0)
(0.00020693 1.70503e-05 0)
(0.000207276 1.70394e-05 0)
(0.000207645 1.70271e-05 0)
(0.000208036 1.70133e-05 0)
(0.000208447 1.6998e-05 0)
(0.000208886 1.6981e-05 0)
(0.000209373 1.69617e-05 0)
(0.000209933 1.6941e-05 0)
(0.000210539 1.69198e-05 0)
(0.000211118 1.68932e-05 0)
(0.000211816 1.68634e-05 0)
(0.000212724 1.68276e-05 0)
(0.000213864 1.67606e-05 0)
(0.000216045 1.64705e-05 0)
(0.000222263 1.97027e-05 0)
(0.000226955 3.19856e-05 0)
(0.0002375 6.76358e-05 0)
(0.000266861 5.59443e-05 0)
(0.00112527 0.000347779 0)
(-0.0106037 7.92263e-05 0)
(-0.0196163 0.000170048 0)
(-0.0275044 9.06717e-05 0)
(-0.034893 8.74408e-05 0)
(-0.0419791 7.31967e-05 0)
(-0.0488443 6.11378e-05 0)
(-0.0555288 5.19124e-05 0)
(-0.062055 4.45774e-05 0)
(-0.0684372 3.84959e-05 0)
(-0.0746853 3.33955e-05 0)
(-0.0808068 2.91009e-05 0)
(-0.0868078 2.54642e-05 0)
(-0.0926935 2.23649e-05 0)
(-0.0984684 1.97089e-05 0)
(-0.104137 1.7422e-05 0)
(-0.109702 1.54447e-05 0)
(-0.115168 1.37285e-05 0)
(-0.120539 1.22336e-05 0)
(-0.125816 1.09273e-05 0)
(-0.131004 9.78216e-06 0)
(-0.136106 8.77538e-06 0)
(-0.141123 7.88773e-06 0)
(-0.146059 7.103e-06 0)
(-0.150915 6.40742e-06 0)
(-0.155695 5.78929e-06 0)
(-0.160401 5.23862e-06 0)
(-0.165035 4.74684e-06 0)
(-0.169598 4.30662e-06 0)
(-0.174093 3.91166e-06 0)
(-0.178522 3.5565e-06 0)
(-0.182885 3.23647e-06 0)
(-0.187186 2.94751e-06 0)
(-0.191426 2.68609e-06 0)
(-0.195605 2.44916e-06 0)
(-0.199726 2.23407e-06 0)
(-0.203789 2.03849e-06 0)
(-0.207796 1.86041e-06 0)
(-0.211749 1.69805e-06 0)
(-0.215648 1.54983e-06 0)
(-0.219494 1.41439e-06 0)
(-0.223289 1.29051e-06 0)
(-0.227033 1.17709e-06 0)
(-0.230727 1.07318e-06 0)
(-0.234373 9.77913e-07 0)
(-0.23797 8.90512e-07 0)
(-0.24152 8.10293e-07 0)
(-0.245024 7.36645e-07 0)
(-0.248481 6.69025e-07 0)
(-0.251894 6.06937e-07 0)
(-0.255261 5.49934e-07 0)
(-0.258619 4.97078e-07 0)
(-0.261999 4.47673e-07 0)
(-0.265401 4.0158e-07 0)
(-0.268825 3.58647e-07 0)
(-0.272269 3.18726e-07 0)
(-0.275734 2.81704e-07 0)
(-0.279217 2.47491e-07 0)
(-0.282719 2.16021e-07 0)
(-0.286238 1.87237e-07 0)
(-0.289773 1.61095e-07 0)
(-0.293322 1.37556e-07 0)
(-0.296884 1.16571e-07 0)
(-0.300458 9.8055e-08 0)
(-0.30404 8.18879e-08 0)
(-0.307629 6.79298e-08 0)
(-0.311223 5.60133e-08 0)
(-0.314818 4.594e-08 0)
(-0.318413 3.75002e-08 0)
(-0.322004 3.04897e-08 0)
(-0.325587 2.47081e-08 0)
(-0.329158 1.9961e-08 0)
(-0.332713 1.60784e-08 0)
(-0.336248 1.29167e-08 0)
(-0.339756 1.03497e-08 0)
(-0.343232 8.2703e-09 0)
(-0.34667 6.59075e-09 0)
(-0.350061 5.23858e-09 0)
(-0.353399 4.15218e-09 0)
(-0.356674 3.28148e-09 0)
(-0.359876 2.58557e-09 0)
(-0.362994 2.03145e-09 0)
(-0.366016 1.58583e-09 0)
(-0.368928 1.23084e-09 0)
(-0.371716 9.7882e-10 0)
(-0.374364 8.48025e-10 0)
(-0.376855 5.17897e-10 0)
(-0.37917 1.23809e-10 0)
(-0.381291 -2.53595e-11 0)
(-0.3832 -8.1877e-11 0)
(-0.384878 -5.29588e-11 0)
(-0.38631 -3.61028e-11 0)
(-0.387483 -4.54179e-12 0)
(-0.38839 4.8957e-12 0)
(-0.389027 -3.85535e-12 0)
(-0.3894 -4.34265e-12 0)
(-0.389517 -3.78361e-12 0)
(-0.389393 -3.58458e-12 0)
(-0.389047 -3.48885e-12 0)
(-0.3885 -2.96411e-12 0)
(-0.387774 -1.82383e-12 0)
(-0.386894 -1.47356e-11 0)
(-0.385886 3.04342e-11 0)
(-0.384777 -7.40733e-11 0)
(-0.383596 1.22958e-10 0)
(-0.382378 -2.02187e-10 0)
(-0.38116 2.88698e-10 0)
(-0.379987 -4.03566e-10 0)
(-0.378924 5.23299e-10 0)
(-0.378097 -6.64692e-10 0)
(-0.377808 8.04822e-10 0)
(-0.377784 -9.58964e-10 0)
(-0.377783 1.10882e-09 0)
(-0.377783 -1.27022e-09 0)
(-0.377783 1.4282e-09 0)
(-0.377783 -1.59719e-09 0)
(-0.377783 1.76364e-09 0)
(-0.377783 -1.94093e-09 0)
(-0.377783 2.11631e-09 0)
(-0.377783 -2.3025e-09 0)
(-0.377783 2.48728e-09 0)
(-0.377783 -2.68286e-09 0)
(-0.377783 2.87752e-09 0)
(-0.377783 -3.08296e-09 0)
(-0.377783 3.28785e-09 0)
(-0.377783 -3.50355e-09 0)
(-0.377783 3.71911e-09 0)
(-0.377783 -3.94538e-09 0)
(-0.377783 4.17197e-09 0)
(-0.377783 -4.40906e-09 0)
(-0.377783 4.64707e-09 0)
(-0.377783 -4.89532e-09 0)
(-0.377783 5.14494e-09 0)
(-0.377783 -5.40467e-09 0)
(-0.377783 5.66622e-09 0)
(-0.377783 -5.93763e-09 0)
(-0.377783 6.21138e-09 0)
(-0.377783 -6.49465e-09 0)
(-0.377783 6.78088e-09 0)
(-0.377783 -7.07617e-09 0)
(-0.377783 7.37507e-09 0)
(-0.377783 -7.68258e-09 0)
(-0.377783 7.99437e-09 0)
(-0.377783 -8.31421e-09 0)
(-0.377783 8.63905e-09 0)
(-0.377783 -8.97135e-09 0)
(-0.377783 9.30941e-09 0)
(-0.377783 -9.65444e-09 0)
(-0.377783 1.00055e-08 0)
(-0.377783 -1.03636e-08 0)
(-0.377783 1.07278e-08 0)
(-0.377783 -1.1099e-08 0)
(-0.377783 1.14763e-08 0)
(-0.377783 -1.18606e-08 0)
(-0.377783 1.22511e-08 0)
(-0.377783 -1.26484e-08 0)
(-0.377783 1.3052e-08 0)
(-0.377783 -1.34624e-08 0)
(-0.377783 1.38788e-08 0)
(-0.377783 -1.43021e-08 0)
(-0.377783 1.29323e-08 0)
(-0.377783 -1.30689e-08 0)
(-0.377783 1.32036e-08 0)
(-0.377783 -1.33373e-08 0)
(-0.377783 1.34691e-08 0)
(-0.377783 -1.35998e-08 0)
(-0.377783 1.37288e-08 0)
(-0.377783 -1.38565e-08 0)
(-0.377783 1.39824e-08 0)
(-0.377783 -1.41071e-08 0)
(-0.377783 1.42299e-08 0)
(-0.377783 -1.43515e-08 0)
(-0.377783 1.44711e-08 0)
(-0.377783 -1.45895e-08 0)
(-0.377783 1.47059e-08 0)
(-0.377783 -1.48209e-08 0)
(-0.377783 1.4934e-08 0)
(-0.377783 -1.50456e-08 0)
(-0.377783 1.51553e-08 0)
(-0.377783 -1.52635e-08 0)
(-0.377783 1.53693e-08 0)
(-0.377783 -1.54744e-08 0)
(-0.377783 1.55762e-08 0)
(-0.377783 -1.56779e-08 0)
(-0.377783 1.57757e-08 0)
(-0.377783 -1.58736e-08 0)
(-0.377783 1.59674e-08 0)
(-0.377783 -1.60613e-08 0)
(-0.377783 1.6151e-08 0)
(-0.377783 -1.62407e-08 0)
(-0.377783 1.63261e-08 0)
(-0.377783 -1.64111e-08 0)
(-0.377783 1.64924e-08 0)
(-0.377783 -1.65721e-08 0)
(-0.377783 1.66494e-08 0)
(-0.377783 -1.67234e-08 0)
(-0.377783 1.67962e-08 0)
(-0.377783 -1.68642e-08 0)
(-0.377783 1.69324e-08 0)
(-0.377783 -1.69936e-08 0)
(-0.377783 1.70569e-08 0)
(-0.377783 -1.71106e-08 0)
(-0.377783 1.71685e-08 0)
(-0.377783 -1.72134e-08 0)
(-0.377783 1.72656e-08 0)
(-0.377783 -1.73003e-08 0)
(-0.377783 1.73449e-08 0)
(-0.377783 -1.73673e-08 0)
(-0.377783 1.74013e-08 0)
(-0.377783 -1.74082e-08 0)
)
;

boundaryField
{
    inandouthalf11
    {
        type            cyclic;
    }
    inandouthalf12
    {
        type            cyclic;
    }
    inandouthalf21
    {
        type            cyclic;
    }
    inandouthalf22
    {
        type            cyclic;
    }
    inandouthalf31
    {
        type            cyclic;
    }
    inandouthalf32
    {
        type            cyclic;
    }
    inandouthalf41
    {
        type            cyclic;
    }
    inandouthalf42
    {
        type            cyclic;
    }
    top
    {
        type            symmetryPlane;
    }
    walls
    {
        type            fixedValue;
        value           uniform (0 0 0);
    }
    frontAndBackPlanes
    {
        type            empty;
    }
}


// ************************************************************************* //
