/*--------------------------------*- C++ -*----------------------------------*\
| =========                 |                                                 |
| \\      /  F ield         | OpenFOAM: The Open Source CFD Toolbox           |
|  \\    /   O peration     | Version:  2.4.x                                 |
|   \\  /    A nd           | Web:      www.OpenFOAM.org                      |
|    \\/     M anipulation  |                                                 |
\*---------------------------------------------------------------------------*/
FoamFile
{
    version     2.0;
    format      ascii;
    class       volScalarField;
    location    "1.2";
    object      alpha;
}
// * * * * * * * * * * * * * * * * * * * * * * * * * * * * * * * * * * * * * //

dimensions      [0 0 0 0 0 0 0];

internalField   nonuniform List<scalar> 
360
(
0.609996
0.609996
0.609995
0.609995
0.609995
0.609994
0.609994
0.609993
0.609993
0.609992
0.609991
0.609991
0.60999
0.609989
0.609988
0.609987
0.609986
0.609985
0.609984
0.609982
0.609981
0.609979
0.609977
0.609975
0.609973
0.609971
0.609969
0.609966
0.609963
0.60996
0.609957
0.609953
0.60995
0.609945
0.609941
0.609936
0.609931
0.609925
0.609918
0.609912
0.609904
0.609896
0.609888
0.609878
0.609868
0.609857
0.609845
0.609833
0.609819
0.609803
0.609787
0.609769
0.60975
0.609729
0.609707
0.609682
0.609656
0.609627
0.609596
0.609563
0.609526
0.609487
0.609444
0.609398
0.609348
0.609294
0.609235
0.609171
0.609102
0.609028
0.608947
0.608859
0.608765
0.608662
0.608551
0.60843
0.6083
0.608159
0.608006
0.607857
0.607775
0.607794
0.607846
0.607855
0.607814
0.607741
0.607654
0.607566
0.607482
0.607405
0.607333
0.607262
0.607189
0.607112
0.607031
0.606947
0.606862
0.606775
0.606687
0.606597
0.606504
0.60641
0.606312
0.606212
0.60611
0.606005
0.605897
0.605786
0.605673
0.605556
0.605436
0.605312
0.605185
0.605053
0.604918
0.604778
0.604634
0.604485
0.604332
0.604174
0.604011
0.603841
0.603664
0.603477
0.60328
0.603076
0.602876
0.602692
0.602534
0.602399
0.602271
0.602119
0.601889
0.601528
0.601051
0.600451
0.599405
0.597759
0.595924
0.593724
0.590025
0.57807
0.559152
0.551813
0.541484
0.523884
0.501322
0.491908
0.485618
0.479178
0.474173
0.503335
0.151493
0.00498685
0.00143839
0.000945114
0.000739252
0.000593287
0.000489125
0.000430397
0.000357839
0.000323424
0.000276773
0.000253028
0.000215307
0.000198577
0.000176239
0.000156049
0.000144255
0.000125773
0.00011728
0.000103545
9.6501e-05
8.43473e-05
7.90263e-05
7.13401e-05
6.40921e-05
5.98451e-05
5.3043e-05
4.98532e-05
4.43985e-05
4.16868e-05
3.69483e-05
3.47745e-05
3.11628e-05
2.92862e-05
2.58839e-05
2.43998e-05
2.23846e-05
2.00733e-05
1.88851e-05
1.69356e-05
1.60075e-05
1.42969e-05
1.34424e-05
1.20166e-05
1.13533e-05
1.01681e-05
9.59195e-06
8.66076e-06
8.16827e-06
7.17832e-06
6.72332e-06
6.36368e-06
5.64732e-06
5.02546e-06
4.73729e-06
4.38189e-06
3.86255e-06
3.4852e-06
3.15746e-06
2.973e-06
2.58759e-06
2.2843e-06
2.13876e-06
1.90626e-06
1.62802e-06
1.50657e-06
1.37175e-06
1.15685e-06
1.03823e-06
9.34566e-07
8.04227e-07
7.38978e-07
6.19771e-07
5.6046e-07
4.67173e-07
4.25817e-07
3.60498e-07
3.26787e-07
2.62614e-07
2.32938e-07
1.98152e-07
1.78891e-07
1.4078e-07
1.21203e-07
1.08624e-07
8.6219e-08
7.20237e-08
6.44112e-08
5.11911e-08
4.21625e-08
3.67899e-08
2.83253e-08
2.44134e-08
1.92539e-08
1.68506e-08
1.26833e-08
1.09318e-08
1.02311e-08
9.7516e-09
5.10099e-09
3.0917e-09
2.57284e-09
2.18541e-09
1.63408e-09
1.24811e-09
1.03043e-09
7.4198e-10
6.13947e-10
4.40782e-10
3.58857e-10
2.47033e-10
1.99394e-10
1.43218e-10
1.16058e-10
7.5357e-11
5.86834e-11
4.45375e-11
2.99637e-11
2.33136e-11
1.52771e-11
1.17439e-11
7.65779e-12
5.83055e-12
3.67799e-12
2.75234e-12
1.79505e-12
1.35292e-12
7.8214e-13
5.51725e-13
3.8672e-13
2.33001e-13
1.6444e-13
9.60157e-14
6.71224e-14
3.94423e-14
2.67412e-14
1.4994e-14
1.03881e-14
6.0737e-15
3.408e-15
2.27592e-15
1.27007e-15
7.07556e-16
4.35912e-16
2.30992e-16
1.41578e-16
7.58458e-17
4.57296e-17
2.19602e-17
1.09742e-17
3.70109e-18
1.2324e-18
3.53239e-19
9.09828e-20
1.97891e-20
3.44577e-21
4.43479e-22
3.52555e-23
1.67026e-24
8.59502e-26
2.16756e-27
1.37462e-38
4.418e-50
1.04041e-61
1.87429e-73
2.9472e-85
7.34218e-96
5.60887e-107
2.42575e-114
2.4577e-125
8.33842e-133
8.6006e-144
2.868e-151
3.61043e-162
9.86074e-170
1.63004e-180
3.3915e-188
1.2182e-198
1.16966e-206
8.49279e-217
4.04971e-225
4.42187e-235
1.40808e-243
2.08857e-253
4.91914e-262
9.21087e-272
1.72773e-280
3.89565e-290
6.09399e-299
1.58122e-308
2.19154e-317
7.22324e-321
0
0
0
0
0
0
0
0
0
0
0
0
0
0
0
0
)
;

boundaryField
{
    inandouthalf11
    {
        type            cyclic;
    }
    inandouthalf12
    {
        type            cyclic;
    }
    inandouthalf21
    {
        type            cyclic;
    }
    inandouthalf22
    {
        type            cyclic;
    }
    inandouthalf31
    {
        type            cyclic;
    }
    inandouthalf32
    {
        type            cyclic;
    }
    inandouthalf41
    {
        type            cyclic;
    }
    inandouthalf42
    {
        type            cyclic;
    }
    top
    {
        type            symmetryPlane;
    }
    walls
    {
        type            zeroGradient;
    }
    frontAndBackPlanes
    {
        type            empty;
    }
}


// ************************************************************************* //
