/*--------------------------------*- C++ -*----------------------------------*\
| =========                 |                                                 |
| \\      /  F ield         | OpenFOAM: The Open Source CFD Toolbox           |
|  \\    /   O peration     | Version:  2.4.x                                 |
|   \\  /    A nd           | Web:      www.OpenFOAM.org                      |
|    \\/     M anipulation  |                                                 |
\*---------------------------------------------------------------------------*/
FoamFile
{
    version     2.0;
    format      ascii;
    class       volVectorField;
    location    "1.2";
    object      gradPs;
}
// * * * * * * * * * * * * * * * * * * * * * * * * * * * * * * * * * * * * * //

dimensions      [0 1 -2 0 0 0 0];

internalField   nonuniform List<vector> 
360
(
(0 6.93296e-26 0)
(0 -1.76836e-21 0)
(0 -1.76843e-21 0)
(0 4.81683e-29 0)
(-1.45436e-32 -1.76841e-21 0)
(-2.90872e-32 -1.76841e-21 0)
(-2.90872e-32 -1.76839e-21 0)
(0 -1.76839e-21 0)
(-1.45436e-32 -1.76837e-21 0)
(0 -3.53673e-21 0)
(-2.90873e-32 -1.76836e-21 0)
(0 -1.76834e-21 0)
(-2.90874e-32 -3.53666e-21 0)
(0 -3.53663e-21 0)
(0 -3.53659e-21 0)
(0 -3.53656e-21 0)
(0 -3.53652e-21 0)
(-1.45438e-32 -3.53649e-21 0)
(0 -5.30465e-21 0)
(0 -5.3046e-21 0)
(0 -5.30449e-21 0)
(-1.4544e-32 -7.07256e-21 0)
(0 -7.07242e-21 0)
(0 -7.07228e-21 0)
(0 -7.07214e-21 0)
(-2.90883e-32 -7.072e-21 0)
(0 -8.83977e-21 0)
(0 -1.06075e-20 0)
(0 -1.06072e-20 0)
(0 -1.06068e-20 0)
(0 -1.23742e-20 0)
(0 -1.23739e-20 0)
(0 -1.41409e-20 0)
(0 -1.5908e-20 0)
(0 -1.59072e-20 0)
(2.909e-32 -1.76739e-20 0)
(0 -1.94402e-20 0)
(0 -2.29734e-20 0)
(0 -2.29721e-20 0)
(0 -2.47373e-20 0)
(0 -2.82692e-20 0)
(0 -2.8267e-20 0)
(1.45461e-32 -3.17975e-20 0)
(0 -3.53275e-20 0)
(0 -3.709e-20 0)
(0 -4.06179e-20 0)
(0 -4.23791e-20 0)
(0 -4.59048e-20 0)
(0 -5.29597e-20 0)
(0 -5.64821e-20 0)
(1.45485e-32 -6.0002e-20 0)
(0 -6.52851e-20 0)
(0 -7.05648e-20 0)
(0 -7.58418e-20 0)
(0 -8.28779e-20 0)
(0 -8.99102e-20 0)
(0 -9.69359e-20 0)
(0 -1.05719e-19 0)
(0 -1.12732e-19 0)
(0 -1.23259e-19 0)
(0 -1.33777e-19 0)
(0 -1.44281e-19 0)
(0 -1.56532e-19 0)
(0 -1.68766e-19 0)
(0 -1.82739e-19 0)
(0 -1.98446e-19 0)
(0 -2.15882e-19 0)
(0 -2.33286e-19 0)
(0 -2.50655e-19 0)
(0 -2.71488e-19 0)
(0 -2.95773e-19 0)
(0 -3.18251e-19 0)
(0 -3.44155e-19 0)
(0 -3.73476e-19 0)
(0 -4.04443e-19 0)
(0 -4.37047e-19 0)
(0 -4.71262e-19 0)
(0 -5.10543e-19 0)
(0 2.21653e-19 0)
(0 1.43456e-17 0)
(0 4.92292e-17 0)
(0 3.84814e-17 0)
(0 -1.85124e-17 0)
(0 -3.46996e-17 0)
(0 -1.78984e-17 0)
(0 -5.62137e-18 0)
(0 4.54318e-19 0)
(0 3.35447e-18 0)
(0 3.96035e-18 0)
(0 2.78957e-18 0)
(0 1.01652e-18 0)
(0 -1.20621e-19 0)
(0 -1.84223e-19 0)
(0 5.22236e-19 0)
(0 1.50685e-18 0)
(0 2.41577e-18 0)
(0 3.08961e-18 0)
(0 3.52726e-18 0)
(0 3.81346e-18 0)
(0 -2.00571e-16 0)
(0 -2.02568e-16 0)
(0 0 0)
(0 0 0)
(0 0 0)
(0 0 0)
(0 0 0)
(0 0 0)
(0 0 0)
(0 0 0)
(0 0 0)
(0 0 0)
(0 0 0)
(0 0 0)
(0 0 0)
(0 2.75523e-16 0)
(0 2.87587e-16 0)
(0 2.59451e-17 0)
(0 3.0285e-17 0)
(0 3.61624e-17 0)
(0 4.54464e-17 0)
(0 6.12847e-17 0)
(0 8.75182e-17 0)
(0 1.25306e-16 0)
(0 1.63037e-16 0)
(0 1.63401e-16 0)
(0 8.55254e-17 0)
(0 -3.41254e-17 0)
(0 -6.28294e-17 0)
(0 1.96403e-16 0)
(0 2.36699e-15 0)
(0 2.14744e-13 0)
(0 1.83936e-09 0)
(0 1.07257e-05 0)
(0 0.00443911 0)
(0 0.206132 0)
(0 1.62909 0)
(0 3.48662 0)
(0 2.98355 0)
(0 1.06668 0)
(0 0.0101757 0)
(0 -0.850981 0)
(0 -2.06991 0)
(0 -2.46974 0)
(0 -2.0104 0)
(0 -1.57101 0)
(0 -0.871305 0)
(0 -0.230102 0)
(0 -0.0152511 0)
(0 0.00517388 0)
(0 0.0219336 0)
(0 0.130126 0)
(0 0.0586866 0)
(0 -0.390062 0)
(0 -7.63086 0)
(0 -2.48173 0)
(0 -0.769555 0)
(0 -0.656482 0)
(0 -0.747273 0)
(0 -0.671945 0)
(0 -0.692683 0)
(0 -0.727148 0)
(0 -0.639702 0)
(0 -0.665272 0)
(0 -0.637799 0)
(0 -0.661611 0)
(0 -0.524074 0)
(0 -0.610954 0)
(0 -0.52214 0)
(0 -0.514092 0)
(0 -0.512212 0)
(0 -0.44448 0)
(0 -0.453855 0)
(0 -0.431722 0)
(0 -0.434239 0)
(0 -0.34489 0)
(0 -0.405739 0)
(0 -0.344474 0)
(0 -0.338181 0)
(0 -0.332595 0)
(0 -0.297239 0)
(0 -0.301585 0)
(0 -0.281998 0)
(0 -0.282429 0)
(0 -0.244993 0)
(0 -0.247377 0)
(0 -0.241893 0)
(0 -0.24115 0)
(0 -0.182674 0)
(0 -0.226644 0)
(0 -0.197431 0)
(0 -0.181365 0)
(0 -0.176226 0)
(0 -0.164409 0)
(0 -0.168069 0)
(0 -0.152842 0)
(0 -0.147592 0)
(0 -0.133113 0)
(0 -0.132519 0)
(0 -0.11597 0)
(0 -0.113662 0)
(0 -0.117673 0)
(0 -0.118578 0)
(-3.50193e-17 -0.0702166 0)
(0 -0.0878443 0)
(0 -0.108509 0)
(3.66963e-17 -0.0768295 0)
(0 -0.0551566 0)
(-3.68281e-17 -0.071464 0)
(0 -0.0733455 0)
(3.77298e-17 -0.0582124 0)
(0 -0.0432851 0)
(0 -0.0460577 0)
(0 -0.0545844 0)
(1.91097e-17 -0.0365676 0)
(0 -0.030309 0)
(0 -0.0389771 0)
(0 -0.0308594 0)
(0 -0.020062 0)
(0 -0.0255747 0)
(0 -0.024107 0)
(0 -0.0161738 0)
(-9.14028e-18 -0.0163069 0)
(0 -0.0135564 0)
(-4.47007e-18 -0.0122474 0)
(0 -0.0115951 0)
(0 -0.0095759 0)
(0 -0.00832038 0)
(0 -0.00641659 0)
(2.09524e-18 -0.00580676 0)
(2.06026e-18 -0.00539997 0)
(0 -0.00501219 0)
(0 -0.00340285 0)
(0 -0.00279931 0)
(0 -0.00273578 0)
(0 -0.00261684 0)
(0 -0.00150537 0)
(0 -0.00148734 0)
(0 -0.00145032 0)
(0 -0.000886359 0)
(0 -0.000778127 0)
(0 -0.000758786 0)
(0 -0.000495895 0)
(0 -0.00042917 0)
(-1.00084e-19 -0.000361435 0)
(9.81312e-20 -0.000253641 0)
(0 -0.000203051 0)
(0 -0.000157802 0)
(-4.62493e-20 -0.000131791 0)
(0 -8.11081e-05 0)
(0 -9.70374e-05 0)
(0 -6.23013e-05 0)
(0 0 0)
(0 0 0)
(0 0 0)
(0 0 0)
(0 0 0)
(0 0 0)
(0 0 0)
(0 0 0)
(0 0 0)
(0 0 0)
(0 0 0)
(0 0 0)
(0 0 0)
(0 0 0)
(0 0 0)
(0 0 0)
(0 0 0)
(0 0 0)
(0 0 0)
(0 0 0)
(0 0 0)
(0 0 0)
(0 0 0)
(0 0 0)
(0 0 0)
(0 0 0)
(0 0 0)
(0 0 0)
(0 0 0)
(0 0 0)
(0 0 0)
(0 0 0)
(0 0 0)
(0 0 0)
(0 0 0)
(0 0 0)
(0 0 0)
(0 0 0)
(0 0 0)
(0 0 0)
(0 0 0)
(0 0 0)
(0 0 0)
(0 0 0)
(0 0 0)
(0 0 0)
(0 0 0)
(0 0 0)
(0 0 0)
(0 0 0)
(0 0 0)
(0 0 0)
(0 0 0)
(0 0 0)
(0 0 0)
(0 0 0)
(0 0 0)
(0 0 0)
(0 0 0)
(0 0 0)
(0 0 0)
(0 0 0)
(0 0 0)
(0 0 0)
(0 0 0)
(0 0 0)
(0 0 0)
(0 0 0)
(0 0 0)
(0 0 0)
(0 0 0)
(0 0 0)
(0 0 0)
(0 0 0)
(0 0 0)
(0 0 0)
(0 0 0)
(0 0 0)
(0 0 0)
(0 0 0)
(0 0 0)
(0 0 0)
(0 0 0)
(0 0 0)
(0 0 0)
(0 0 0)
(0 0 0)
(0 0 0)
(0 0 0)
(0 0 0)
(0 0 0)
(0 0 0)
(0 0 0)
(0 0 0)
(0 0 0)
(0 0 0)
(0 0 0)
(0 0 0)
(0 0 0)
(0 0 0)
(0 0 0)
(0 0 0)
(0 0 0)
(0 0 0)
(0 0 0)
(0 0 0)
(0 0 0)
(0 0 0)
(0 0 0)
)
;

boundaryField
{
    inandouthalf11
    {
        type            cyclic;
    }
    inandouthalf12
    {
        type            cyclic;
    }
    inandouthalf21
    {
        type            cyclic;
    }
    inandouthalf22
    {
        type            cyclic;
    }
    inandouthalf31
    {
        type            cyclic;
    }
    inandouthalf32
    {
        type            cyclic;
    }
    inandouthalf41
    {
        type            cyclic;
    }
    inandouthalf42
    {
        type            cyclic;
    }
    top
    {
        type            symmetryPlane;
    }
    walls
    {
        type            calculated;
        value           uniform (0 0 0);
    }
    frontAndBackPlanes
    {
        type            empty;
    }
}


// ************************************************************************* //
