/*--------------------------------*- C++ -*----------------------------------*\
| =========                 |                                                 |
| \\      /  F ield         | OpenFOAM: The Open Source CFD Toolbox           |
|  \\    /   O peration     | Version:  2.4.x                                 |
|   \\  /    A nd           | Web:      www.OpenFOAM.org                      |
|    \\/     M anipulation  |                                                 |
\*---------------------------------------------------------------------------*/
FoamFile
{
    version     2.0;
    format      ascii;
    class       volVectorField;
    location    "1.2";
    object      gradPf;
}
// * * * * * * * * * * * * * * * * * * * * * * * * * * * * * * * * * * * * * //

dimensions      [0 1 -2 0 0 0 0];

internalField   nonuniform List<vector> 
360
(
(0 -1.44033e-09 0)
(0 -0.0556701 0)
(0 -0.0556702 0)
(0 1.49547e-09 0)
(-1.67676e-14 -0.0556536 0)
(-1.67676e-14 -0.0556537 0)
(-1.67676e-14 -0.0556372 0)
(0 -0.0556373 0)
(-1.67677e-14 -0.0556207 0)
(0 -0.111225 0)
(-1.67677e-14 -0.0556044 0)
(0 -0.0555879 0)
(-1.67677e-14 -0.111159 0)
(0 -0.111127 0)
(0 -0.111094 0)
(0 -0.111061 0)
(0 -0.111028 0)
(-1.67679e-14 -0.110995 0)
(0 -0.166419 0)
(0 -0.16637 0)
(0 -0.166271 0)
(-1.6768e-14 -0.221597 0)
(0 -0.221466 0)
(0 -0.221336 0)
(0 -0.221205 0)
(-1.67683e-14 -0.221074 0)
(0 -0.276138 0)
(0 -0.331122 0)
(0 -0.330829 0)
(0 -0.330536 0)
(0 -0.385226 0)
(0 -0.384886 0)
(0 -0.439284 0)
(0 -0.493686 0)
(0 -0.492957 0)
(3.35385e-14 -0.547004 0)
(0 -0.600728 0)
(0 -0.708696 0)
(0 -0.707444 0)
(0 -0.760177 0)
(0 -0.866984 0)
(0 -0.864942 0)
(1.67705e-14 -0.97048 0)
(0 -1.07546 0)
(0 -1.12574 0)
(0 -1.22897 0)
(0 -1.27807 0)
(0 -1.37929 0)
(0 -1.58494 0)
(0 -1.68317 0)
(1.67733e-14 -1.77945 0)
(0 -1.92653 0)
(0 -2.07085 0)
(0 -2.21281 0)
(0 -2.40239 0)
(0 -2.58858 0)
(0 -2.76962 0)
(0 -2.99631 0)
(0 -3.16723 0)
(0 -3.42991 0)
(0 -3.68499 0)
(0 -3.92981 0)
(0 -4.21283 0)
(0 -4.48313 0)
(0 -4.7867 0)
(0 -5.11936 0)
(0 -5.47801 0)
(0 -5.81478 0)
(0 -6.12872 0)
(0 -6.50104 0)
(0 -6.92512 0)
(0 -7.27301 0)
(0 -7.66024 0)
(0 -8.08143 0)
(0 -8.48635 0)
(0 -8.87279 0)
(0 -9.23136 0)
(0 -9.62331 0)
(0 -9.49003 0)
(0 -7.03519 0)
(0 -1.87369 0)
(0 2.11884 0)
(0 1.82175 0)
(0 -0.953914 0)
(0 -3.37753 0)
(0 -4.64181 0)
(0 -4.99327 0)
(0 -4.78893 0)
(0 -4.35857 0)
(0 -3.95372 0)
(0 -3.72114 0)
(0 -3.68499 0)
(0 -3.76778 0)
(0 -3.86985 0)
(0 -3.93491 0)
(0 -3.95093 0)
(0 -3.93451 0)
(0 -3.90977 0)
(0 -3.89331 0)
(0 -3.88791 0)
(0 -3.8882 0)
(0 -3.88868 0)
(0 -3.88575 0)
(0 -3.87874 0)
(0 -3.86932 0)
(0 -3.85903 0)
(0 -3.84835 0)
(0 -3.83716 0)
(0 -3.82512 0)
(0 -3.81206 0)
(0 -3.79815 0)
(0 -3.78371 0)
(0 -3.76894 0)
(0 -3.75377 0)
(0 -3.73752 0)
(0 -3.71875 0)
(0 -3.69546 0)
(0 -3.66601 0)
(0 -3.63084 0)
(0 -3.59455 0)
(0 -3.56652 0)
(0 -3.55777 0)
(0 -3.57198 0)
(0 -3.59124 0)
(0 -3.56402 0)
(0 -3.41425 0)
(0 -3.08995 0)
(0 -2.62798 0)
(0 -2.16411 0)
(0 -1.87072 0)
(0 -1.9213 0)
(0 -2.51062 0)
(0 -3.64597 0)
(0 -4.73309 0)
(0 -5.40736 0)
(0 -6.88007 0)
(0 -8.65492 0)
(0 -8.0083 0)
(0 -5.92638 0)
(0 -4.69089 0)
(0 -3.53542 0)
(0 -1.42421 0)
(0 -0.029662 0)
(0 0 0)
(0 0 0)
(0 0 0)
(0 0 0)
(0 0 0)
(0 0 0)
(0 0 0)
(0 0 0)
(0 0 0)
(0 0 0)
(0 0 0)
(0 0 0)
(0 0 0)
(0 0 0)
(0 0 0)
(0 0 0)
(0 0 0)
(0 0 0)
(0 0 0)
(0 0 0)
(0 0 0)
(0 0 0)
(0 0 0)
(0 0 0)
(0 0 0)
(0 0 0)
(0 0 0)
(0 0 0)
(0 0 0)
(0 0 0)
(0 0 0)
(0 0 0)
(0 0 0)
(0 0 0)
(0 0 0)
(0 0 0)
(0 0 0)
(0 0 0)
(0 0 0)
(0 0 0)
(0 0 0)
(0 0 0)
(0 0 0)
(0 0 0)
(0 0 0)
(0 0 0)
(0 0 0)
(0 0 0)
(0 0 0)
(0 0 0)
(0 0 0)
(0 0 0)
(0 0 0)
(0 0 0)
(0 0 0)
(0 0 0)
(0 0 0)
(0 0 0)
(0 0 0)
(0 0 0)
(0 0 0)
(0 0 0)
(0 0 0)
(0 0 0)
(0 0 0)
(0 0 0)
(0 0 0)
(0 0 0)
(0 0 0)
(0 0 0)
(0 0 0)
(0 0 0)
(0 0 0)
(0 0 0)
(0 0 0)
(0 0 0)
(0 0 0)
(0 0 0)
(0 0 0)
(0 0 0)
(0 0 0)
(0 0 0)
(0 0 0)
(0 0 0)
(0 0 0)
(0 0 0)
(0 0 0)
(0 0 0)
(0 0 0)
(0 0 0)
(0 0 0)
(0 0 0)
(0 0 0)
(0 0 0)
(0 0 0)
(0 0 0)
(0 0 0)
(0 0 0)
(0 0 0)
(0 0 0)
(0 0 0)
(0 0 0)
(0 0 0)
(0 0 0)
(0 0 0)
(0 0 0)
(0 0 0)
(0 0 0)
(0 0 0)
(0 0 0)
(0 0 0)
(0 0 0)
(0 0 0)
(0 0 0)
(0 0 0)
(0 0 0)
(0 0 0)
(0 0 0)
(0 0 0)
(0 0 0)
(0 0 0)
(0 0 0)
(0 0 0)
(0 0 0)
(0 0 0)
(0 0 0)
(0 0 0)
(0 0 0)
(0 0 0)
(0 0 0)
(0 0 0)
(0 0 0)
(0 0 0)
(0 0 0)
(0 0 0)
(0 0 0)
(0 0 0)
(0 0 0)
(0 0 0)
(0 0 0)
(0 0 0)
(0 0 0)
(0 0 0)
(0 0 0)
(0 0 0)
(0 0 0)
(0 0 0)
(0 0 0)
(0 0 0)
(0 0 0)
(0 0 0)
(0 0 0)
(0 0 0)
(0 0 0)
(0 0 0)
(0 0 0)
(0 0 0)
(0 0 0)
(0 0 0)
(0 0 0)
(0 0 0)
(0 0 0)
(0 0 0)
(0 0 0)
(0 0 0)
(0 0 0)
(0 0 0)
(0 0 0)
(0 0 0)
(0 0 0)
(0 0 0)
(0 0 0)
(0 0 0)
(0 0 0)
(0 0 0)
(0 0 0)
(0 0 0)
(0 0 0)
(0 0 0)
(0 0 0)
(0 0 0)
(0 0 0)
(0 0 0)
(0 0 0)
(0 0 0)
(0 0 0)
(0 0 0)
(0 0 0)
(0 0 0)
(0 0 0)
(0 0 0)
(0 0 0)
(0 0 0)
(0 0 0)
(0 0 0)
(0 0 0)
(0 0 0)
(0 0 0)
(0 0 0)
(0 0 0)
(0 0 0)
(0 0 0)
(0 0 0)
(0 0 0)
(0 0 0)
(0 0 0)
(0 0 0)
(0 0 0)
(0 0 0)
(0 0 0)
(0 0 0)
(0 0 0)
(0 0 0)
(0 0 0)
(0 0 0)
(0 0 0)
(0 0 0)
)
;

boundaryField
{
    inandouthalf11
    {
        type            cyclic;
    }
    inandouthalf12
    {
        type            cyclic;
    }
    inandouthalf21
    {
        type            cyclic;
    }
    inandouthalf22
    {
        type            cyclic;
    }
    inandouthalf31
    {
        type            cyclic;
    }
    inandouthalf32
    {
        type            cyclic;
    }
    inandouthalf41
    {
        type            cyclic;
    }
    inandouthalf42
    {
        type            cyclic;
    }
    top
    {
        type            symmetryPlane;
    }
    walls
    {
        type            calculated;
        value           uniform (0 0 0);
    }
    frontAndBackPlanes
    {
        type            empty;
    }
}


// ************************************************************************* //
