/*--------------------------------*- C++ -*----------------------------------*\
| =========                 |                                                 |
| \\      /  F ield         | OpenFOAM: The Open Source CFD Toolbox           |
|  \\    /   O peration     | Version:  2.4.x                                 |
|   \\  /    A nd           | Web:      www.OpenFOAM.org                      |
|    \\/     M anipulation  |                                                 |
\*---------------------------------------------------------------------------*/
FoamFile
{
    version     2.0;
    format      ascii;
    class       volScalarField;
    location    "1.2";
    object      pa;
}
// * * * * * * * * * * * * * * * * * * * * * * * * * * * * * * * * * * * * * //

dimensions      [1 -1 -2 0 0 0 0];

internalField   nonuniform List<scalar> 
360
(
2.87809e-16
2.87809e-16
2.87806e-16
2.87806e-16
2.87806e-16
2.87803e-16
2.87803e-16
2.878e-16
2.878e-16
2.87798e-16
2.87795e-16
2.87795e-16
2.87792e-16
2.87789e-16
2.87786e-16
2.87783e-16
2.8778e-16
2.87777e-16
2.87775e-16
2.87769e-16
2.87766e-16
2.8776e-16
2.87755e-16
2.87749e-16
2.87743e-16
2.87737e-16
2.87732e-16
2.87723e-16
2.87715e-16
2.87706e-16
2.87697e-16
2.87686e-16
2.87677e-16
2.87663e-16
2.87652e-16
2.87637e-16
2.87623e-16
2.87606e-16
2.87586e-16
2.87569e-16
2.87546e-16
2.87523e-16
2.875e-16
2.87472e-16
2.87443e-16
2.87412e-16
2.87378e-16
2.87343e-16
2.87303e-16
2.87258e-16
2.87212e-16
2.87161e-16
2.87107e-16
2.87047e-16
2.86984e-16
2.86913e-16
2.86839e-16
2.86756e-16
2.86668e-16
2.86574e-16
2.86469e-16
2.86358e-16
2.86236e-16
2.86105e-16
2.85963e-16
2.8581e-16
2.85643e-16
2.85462e-16
2.85266e-16
2.85057e-16
2.84828e-16
2.8458e-16
2.84315e-16
2.84025e-16
2.83712e-16
2.83372e-16
2.83008e-16
2.82613e-16
2.82185e-16
2.8297e-16
3.05293e-16
3.6226e-16
3.67275e-16
3.3244e-16
3.11379e-16
3.0361e-16
3.02326e-16
3.04342e-16
3.07727e-16
3.10717e-16
3.12217e-16
3.12353e-16
3.12023e-16
3.12057e-16
3.12863e-16
3.14481e-16
3.16748e-16
3.1945e-16
3.2242e-16
3.25581e-16
0
0
0
0
0
0
0
0
0
0
0
0
0
0
0
4.41679e-16
4.60912e-16
4.83251e-16
5.09426e-16
5.41165e-16
5.8219e-16
6.39261e-16
7.22237e-16
8.39718e-16
9.82973e-16
1.10095e-15
1.11966e-15
1.04643e-15
1.01931e-15
1.36003e-15
4.79793e-15
3.44102e-13
2.93497e-09
1.71079e-05
0.00707628
0.328347
2.59932
5.86668
7.32552
7.55121
7.34153
6.22062
4.17061
2.56101
1.23075
0.306668
0.021099
0.000971097
0.00121796
0.00762944
0.0290703
0.171145
0.10735
0.0145418
0.0063052
0.00501642
0.00435741
0.00371296
0.00316274
0.00282419
0.00235434
0.00211539
0.00178912
0.00160981
0.00134456
0.00121479
0.00105489
0.000913261
0.000825132
0.000703113
0.000640839
0.000553193
0.000504276
0.000431349
0.000395708
0.000349983
0.00030825
0.000282347
0.000245657
0.000226783
0.000198511
0.000183307
0.000159886
0.00014817
0.000130817
0.000121185
0.000105634
9.82538e-05
8.89814e-05
7.88033e-05
7.32473e-05
6.49207e-05
6.06684e-05
5.35897e-05
4.98469e-05
4.40948e-05
4.12358e-05
3.65624e-05
3.41532e-05
3.05414e-05
2.85325e-05
2.48388e-05
2.3044e-05
2.1603e-05
1.89863e-05
1.67307e-05
1.56152e-05
1.42986e-05
1.24751e-05
1.11391e-05
9.98429e-06
9.29874e-06
8.00308e-06
6.98424e-06
6.46232e-06
5.69e-06
4.79873e-06
4.38328e-06
3.93758e-06
3.27456e-06
2.89635e-06
2.56794e-06
2.17512e-06
1.96587e-06
1.62044e-06
1.43897e-06
1.17676e-06
1.0512e-06
8.71221e-07
7.72171e-07
6.0589e-07
5.2394e-07
4.33771e-07
3.80405e-07
2.90179e-07
2.4157e-07
2.08762e-07
1.5927e-07
1.27407e-07
1.08634e-07
8.18881e-08
6.35685e-08
5.18758e-08
3.69907e-08
2.9156e-08
2.06724e-08
1.58765e-08
1.0106e-08
6.91071e-09
4.46852e-09
0
0
0
0
0
0
0
0
0
0
0
0
0
0
0
0
0
0
0
0
0
0
0
0
0
0
0
0
0
0
0
0
0
0
0
0
0
0
0
0
0
0
0
0
0
0
0
0
0
0
0
0
0
0
0
0
0
0
0
0
0
0
0
0
0
0
0
0
0
0
0
0
0
0
0
0
0
0
0
0
0
0
0
0
0
0
0
0
0
0
0
0
0
0
0
0
0
0
0
0
0
0
0
0
0
0
0
0
0
0
)
;

boundaryField
{
    inandouthalf11
    {
        type            cyclic;
    }
    inandouthalf12
    {
        type            cyclic;
    }
    inandouthalf21
    {
        type            cyclic;
    }
    inandouthalf22
    {
        type            cyclic;
    }
    inandouthalf31
    {
        type            cyclic;
    }
    inandouthalf32
    {
        type            cyclic;
    }
    inandouthalf41
    {
        type            cyclic;
    }
    inandouthalf42
    {
        type            cyclic;
    }
    top
    {
        type            symmetryPlane;
    }
    walls
    {
        type            calculated;
        value           uniform 2.87809e-16;
    }
    frontAndBackPlanes
    {
        type            empty;
    }
}


// ************************************************************************* //
