/*--------------------------------*- C++ -*----------------------------------*\
| =========                 |                                                 |
| \\      /  F ield         | OpenFOAM: The Open Source CFD Toolbox           |
|  \\    /   O peration     | Version:  2.4.x                                 |
|   \\  /    A nd           | Web:      www.OpenFOAM.org                      |
|    \\/     M anipulation  |                                                 |
\*---------------------------------------------------------------------------*/
FoamFile
{
    version     2.0;
    format      ascii;
    class       volVectorField;
    location    "1.2";
    object      U;
}
// * * * * * * * * * * * * * * * * * * * * * * * * * * * * * * * * * * * * * //

dimensions      [0 1 -1 0 0 0 0];

internalField   nonuniform List<vector> 
360
(
(5.34847e-05 1.70022e-14 0)
(5.3576e-05 5.11432e-14 0)
(5.35767e-05 8.53718e-14 0)
(5.35767e-05 1.19614e-13 0)
(5.35767e-05 1.53998e-13 0)
(5.35773e-05 1.88503e-13 0)
(5.35773e-05 2.22942e-13 0)
(5.35778e-05 2.57345e-13 0)
(5.35778e-05 2.91805e-13 0)
(5.35784e-05 3.26227e-13 0)
(5.3579e-05 3.60614e-13 0)
(5.3579e-05 3.94857e-13 0)
(5.35796e-05 4.28956e-13 0)
(5.35802e-05 4.63004e-13 0)
(5.35808e-05 4.97137e-13 0)
(5.35814e-05 5.31363e-13 0)
(5.3582e-05 5.65552e-13 0)
(5.35825e-05 5.9958e-13 0)
(5.35831e-05 6.33486e-13 0)
(5.35843e-05 6.67306e-13 0)
(5.35849e-05 7.00902e-13 0)
(5.35861e-05 7.34455e-13 0)
(5.35872e-05 7.67981e-13 0)
(5.35884e-05 8.01419e-13 0)
(5.35896e-05 8.34712e-13 0)
(5.35908e-05 8.67859e-13 0)
(5.3592e-05 9.00956e-13 0)
(5.35937e-05 9.34026e-13 0)
(5.35955e-05 9.66993e-13 0)
(5.35972e-05 9.99868e-13 0)
(5.3599e-05 1.03257e-12 0)
(5.36014e-05 1.06524e-12 0)
(5.36031e-05 1.09782e-12 0)
(5.36061e-05 1.1302e-12 0)
(5.36084e-05 1.16246e-12 0)
(5.36114e-05 1.19463e-12 0)
(5.36143e-05 1.22671e-12 0)
(5.36178e-05 1.2586e-12 0)
(5.36219e-05 1.29024e-12 0)
(5.36255e-05 1.32187e-12 0)
(5.36302e-05 1.35347e-12 0)
(5.36349e-05 1.38471e-12 0)
(5.36396e-05 1.41581e-12 0)
(5.36455e-05 1.44694e-12 0)
(5.36514e-05 1.47793e-12 0)
(5.36578e-05 1.5087e-12 0)
(5.36649e-05 1.53921e-12 0)
(5.3672e-05 1.56958e-12 0)
(5.36802e-05 1.59987e-12 0)
(5.36896e-05 1.62995e-12 0)
(5.36991e-05 1.65996e-12 0)
(5.37097e-05 1.68997e-12 0)
(5.37209e-05 1.7197e-12 0)
(5.37332e-05 1.7493e-12 0)
(5.37462e-05 1.77877e-12 0)
(5.37609e-05 1.80801e-12 0)
(5.37763e-05 1.83698e-12 0)
(5.37934e-05 1.86592e-12 0)
(5.38117e-05 1.89472e-12 0)
(5.38311e-05 1.92334e-12 0)
(5.3853e-05 1.95174e-12 0)
(5.3876e-05 1.9799e-12 0)
(5.39014e-05 2.00792e-12 0)
(5.39286e-05 2.03575e-12 0)
(5.39582e-05 2.06344e-12 0)
(5.39901e-05 2.09102e-12 0)
(5.4025e-05 2.1184e-12 0)
(5.4063e-05 2.14546e-12 0)
(5.41039e-05 2.17235e-12 0)
(5.41477e-05 2.19907e-12 0)
(5.41958e-05 2.22557e-12 0)
(5.42481e-05 2.25201e-12 0)
(5.4304e-05 2.27839e-12 0)
(5.43653e-05 2.52538e-12 0)
(5.44314e-05 -8.70478e-12 0)
(5.45036e-05 8.83491e-11 0)
(5.45812e-05 -3.2426e-10 0)
(5.46655e-05 1.37675e-09 0)
(5.47571e-05 -5.83283e-09 0)
(5.4847e-05 2.48711e-08 0)
(5.50976e-05 1.16263e-07 0)
(5.57803e-05 5.82197e-08 0)
(5.67074e-05 -4.97569e-08 0)
(5.75474e-05 -6.02296e-08 0)
(5.8234e-05 -3.35919e-08 0)
(5.88285e-05 -1.09627e-08 0)
(5.93946e-05 3.10789e-09 0)
(5.99745e-05 9.86228e-09 0)
(6.05899e-05 1.02361e-08 0)
(6.12436e-05 6.37612e-09 0)
(6.19255e-05 1.77955e-09 0)
(6.2623e-05 -8.09967e-10 0)
(6.33295e-05 -8.04623e-10 0)
(6.40457e-05 8.39868e-10 0)
(6.4778e-05 2.91054e-09 0)
(6.55339e-05 4.59318e-09 0)
(6.63203e-05 5.58817e-09 0)
(6.71423e-05 5.99072e-09 0)
(6.80029e-05 6.07217e-09 0)
(6.89043e-05 6.07218e-09 0)
(6.98482e-05 6.09499e-09 0)
(7.08363e-05 6.13999e-09 0)
(7.18705e-05 6.17182e-09 0)
(7.29529e-05 6.17176e-09 0)
(7.40855e-05 6.16208e-09 0)
(7.52705e-05 6.18908e-09 0)
(7.65108e-05 6.29222e-09 0)
(7.78097e-05 6.49141e-09 0)
(7.91715e-05 6.78982e-09 0)
(8.06014e-05 7.18265e-09 0)
(8.21057e-05 7.66516e-09 0)
(8.36917e-05 8.23243e-09 0)
(8.53682e-05 8.87018e-09 0)
(8.71452e-05 9.54266e-09 0)
(8.90343e-05 1.01843e-08 0)
(9.1048e-05 1.07076e-08 0)
(9.32002e-05 1.1046e-08 0)
(9.55054e-05 1.12388e-08 0)
(9.79801e-05 1.15363e-08 0)
(0.000100645 1.24415e-08 0)
(0.000103528 1.45572e-08 0)
(0.000106674 1.81054e-08 0)
(0.000110145 2.20626e-08 0)
(0.000114018 2.30892e-08 0)
(0.000118356 1.54304e-08 0)
(0.000123161 -5.27381e-09 0)
(0.000128321 -3.33647e-08 0)
(0.000133657 -5.08477e-08 0)
(0.000139116 -4.25487e-08 0)
(0.000145086 -6.64996e-09 0)
(0.000152916 6.78302e-08 0)
(0.000166915 2.55821e-07 0)
(0.000205571 7.02009e-07 0)
(0.000391392 1.10235e-06 0)
(0.00194339 -2.83256e-08 0)
(0.0144299 -2.07189e-06 0)
(0.0595443 -6.19437e-07 0)
(0.134222 4.38436e-08 0)
(0.219058 6.8063e-07 0)
(0.305893 1.33909e-06 0)
(0.393068 2.7598e-06 0)
(0.481329 -3.90381e-06 0)
(0.569392 7.44241e-06 0)
(0.650281 -5.29497e-06 0)
(0.719757 -8.27613e-06 0)
(0.777186 -1.02356e-05 0)
(0.810972 2.08126e-05 0)
(0.824045 4.21553e-06 0)
(0.834757 -3.86831e-07 0)
(0.850438 -3.11037e-06 0)
(0.877567 0.000171079 0)
(0.910109 -0.000706948 0)
(0.955263 0.00191216 0)
(1.00296 -0.00200869 0)
(1.05149 0.0017817 0)
(1.09593 -0.00156474 0)
(1.13561 0.00136878 0)
(1.17042 -0.00119162 0)
(1.20053 0.0010323 0)
(1.22594 -0.00088928 0)
(1.24711 0.000761483 0)
(1.26424 -0.000647583 0)
(1.27801 0.000546535 0)
(1.28892 -0.000457191 0)
(1.29772 0.000378578 0)
(1.30491 -0.000309681 0)
(1.31094 0.000249615 0)
(1.31616 -0.000197501 0)
(1.32071 0.000152547 0)
(1.32479 -0.000113998 0)
(1.32844 8.11661e-05 0)
(1.33175 -5.34056e-05 0)
(1.33475 3.01338e-05 0)
(1.3375 -1.08082e-05 0)
(1.34001 -5.0557e-06 0)
(1.3423 1.79039e-05 0)
(1.34442 -2.8132e-05 0)
(1.34635 3.61005e-05 0)
(1.34814 -4.21283e-05 0)
(1.34977 4.6508e-05 0)
(1.35129 -4.95058e-05 0)
(1.35268 5.14099e-05 0)
(1.35397 -5.2645e-05 0)
(1.35515 5.24013e-05 0)
(1.35625 -5.14496e-05 0)
(1.35726 5.02233e-05 0)
(1.35819 -4.87097e-05 0)
(1.35905 4.68726e-05 0)
(1.35984 -4.47972e-05 0)
(1.36058 4.25555e-05 0)
(1.36126 -4.0206e-05 0)
(1.36188 3.77979e-05 0)
(1.36246 -3.53711e-05 0)
(1.363 3.29588e-05 0)
(1.36349 -3.05869e-05 0)
(1.36394 2.82767e-05 0)
(1.36436 -2.60437e-05 0)
(1.36475 2.39001e-05 0)
(1.36511 -2.18541e-05 0)
(1.36544 1.99114e-05 0)
(1.36575 -1.80753e-05 0)
(1.36604 1.66948e-05 0)
(1.36631 -1.53916e-05 0)
(1.36656 1.41631e-05 0)
(1.3668 -1.3007e-05 0)
(1.36702 1.19205e-05 0)
(1.36722 -1.0901e-05 0)
(1.36742 9.94552e-06 0)
(1.3676 -9.05138e-06 0)
(1.36776 8.21592e-06 0)
(1.36792 -7.43635e-06 0)
(1.36806 6.71009e-06 0)
(1.36819 -6.03452e-06 0)
(1.36832 5.40721e-06 0)
(1.36843 -4.82563e-06 0)
(1.36853 4.28744e-06 0)
(1.36863 -3.79029e-06 0)
(1.36871 3.33202e-06 0)
(1.36879 -2.91046e-06 0)
(1.36886 2.52359e-06 0)
(1.36893 -2.16935e-06 0)
(1.36898 1.84584e-06 0)
(1.36904 -1.5512e-06 0)
(1.36909 1.28368e-06 0)
(1.36913 -1.04153e-06 0)
(1.36917 8.23141e-07 0)
(1.3692 -6.26907e-07 0)
(1.36923 4.51343e-07 0)
(1.36926 -2.94979e-07 0)
(1.36928 1.56456e-07 0)
(1.3693 -3.44279e-08 0)
(1.36932 -7.23382e-08 0)
(1.36934 1.65063e-07 0)
(1.36935 -2.44864e-07 0)
(1.36937 3.12844e-07 0)
(1.36938 -3.70004e-07 0)
(1.36939 4.17342e-07 0)
(1.3694 -4.55766e-07 0)
(1.3694 4.8617e-07 0)
(1.36941 -5.09343e-07 0)
(1.36941 5.26004e-07 0)
(1.36942 -5.36349e-07 0)
(1.36942 5.42058e-07 0)
(1.36943 -5.43254e-07 0)
(1.36943 5.40472e-07 0)
(1.36943 -5.34228e-07 0)
(1.36943 5.25033e-07 0)
(1.36943 -5.13327e-07 0)
(1.36944 4.99534e-07 0)
(1.36944 -4.8401e-07 0)
(1.36944 4.67104e-07 0)
(1.36944 -4.49078e-07 0)
(1.36944 4.30272e-07 0)
(1.36944 -4.10889e-07 0)
(1.36944 3.91159e-07 0)
(1.36944 -3.71261e-07 0)
(1.36944 3.51376e-07 0)
(1.36944 -3.31639e-07 0)
(1.36944 3.12188e-07 0)
(1.36944 -2.93119e-07 0)
(1.36944 2.74533e-07 0)
(1.36944 -2.56497e-07 0)
(1.36944 2.3908e-07 0)
(1.36944 -2.22324e-07 0)
(1.36944 2.06271e-07 0)
(1.36944 -1.90942e-07 0)
(1.36944 1.76362e-07 0)
(1.36944 -1.62531e-07 0)
(1.36944 1.4946e-07 0)
(1.36944 -1.37138e-07 0)
(1.36944 1.25561e-07 0)
(1.36944 -1.14708e-07 0)
(1.36944 1.04569e-07 0)
(1.36944 -9.51162e-08 0)
(1.36944 8.63311e-08 0)
(1.36944 -7.81824e-08 0)
(1.36944 7.06483e-08 0)
(1.36944 -6.36947e-08 0)
(1.36944 5.72978e-08 0)
(1.36944 -5.14226e-08 0)
(1.36944 4.60443e-08 0)
(1.36944 -4.11287e-08 0)
(1.36944 3.66511e-08 0)
(1.36944 -3.25785e-08 0)
(1.36944 2.88873e-08 0)
(1.36944 -2.55465e-08 0)
(1.36944 2.2534e-08 0)
(1.36944 -1.98213e-08 0)
(1.36944 1.73882e-08 0)
(1.36944 -1.52086e-08 0)
(1.36944 1.32645e-08 0)
(1.36944 -1.15328e-08 0)
(1.36944 9.99703e-09 0)
(1.36944 -8.63735e-09 0)
(1.36944 7.43907e-09 0)
(1.36944 -6.38523e-09 0)
(1.36944 5.46279e-09 0)
(1.36944 -4.65754e-09 0)
(1.36944 3.95801e-09 0)
(1.36944 -3.35206e-09 0)
(1.36944 2.82953e-09 0)
(1.36944 -2.38038e-09 0)
(1.36944 1.9632e-09 0)
(1.36944 -1.57934e-09 0)
(1.36944 1.23072e-09 0)
(1.36944 -9.19076e-10 0)
(1.36944 6.46726e-10 0)
(1.36944 -4.16019e-10 0)
(1.36944 2.30074e-10 0)
(1.36944 -9.27259e-11 0)
(1.36944 4.48959e-12 0)
(1.36944 8.98732e-12 0)
(1.36944 -1.77473e-12 0)
(1.36944 6.03348e-14 0)
(1.36944 2.84705e-14 0)
(1.36944 3.40959e-14 0)
(1.36944 4.0627e-14 0)
(1.36944 4.8701e-14 0)
(1.36944 6.05182e-14 0)
(1.36944 7.59217e-14 0)
(1.36944 9.07926e-14 0)
(1.36944 1.05975e-13 0)
(1.36944 1.2583e-13 0)
(1.36944 1.51868e-13 0)
(1.36944 1.81501e-13 0)
(1.36944 2.1743e-13 0)
(1.36944 2.66839e-13 0)
(1.36944 3.30336e-13 0)
(1.36944 4.26524e-13 0)
(1.36944 5.66764e-13 0)
(1.36944 7.34431e-13 0)
(1.36944 9.42619e-13 0)
(1.36944 1.16248e-12 0)
(1.36944 1.40518e-12 0)
(1.36944 1.69448e-12 0)
(1.36944 2.02576e-12 0)
(1.36944 2.34014e-12 0)
(1.36944 2.64361e-12 0)
(1.36944 2.99634e-12 0)
(1.36944 3.40933e-12 0)
(1.36944 3.85507e-12 0)
(1.36944 4.31841e-12 0)
(1.36944 4.83512e-12 0)
(1.36944 5.39746e-12 0)
(1.36944 6.09866e-12 0)
(1.36944 6.87592e-12 0)
(1.36944 7.62146e-12 0)
(1.36944 8.26482e-12 0)
(1.36944 8.91512e-12 0)
(1.36944 9.45966e-12 0)
(1.36944 9.79492e-12 0)
(1.36944 9.92685e-12 0)
(1.36944 1.03812e-11 0)
(1.36944 1.09195e-11 0)
(1.36944 1.09767e-11 0)
(1.36944 1.0315e-11 0)
(1.36944 9.3736e-12 0)
(1.36944 8.0735e-12 0)
(1.36944 6.06082e-12 0)
(1.36944 2.54082e-12 0)
)
;

boundaryField
{
    inandouthalf11
    {
        type            cyclic;
    }
    inandouthalf12
    {
        type            cyclic;
    }
    inandouthalf21
    {
        type            cyclic;
    }
    inandouthalf22
    {
        type            cyclic;
    }
    inandouthalf31
    {
        type            cyclic;
    }
    inandouthalf32
    {
        type            cyclic;
    }
    inandouthalf41
    {
        type            cyclic;
    }
    inandouthalf42
    {
        type            cyclic;
    }
    top
    {
        type            symmetryPlane;
    }
    walls
    {
        type            calculated;
        value           uniform (0 0 0);
    }
    frontAndBackPlanes
    {
        type            empty;
    }
}


// ************************************************************************* //
