/*--------------------------------*- C++ -*----------------------------------*\
| =========                 |                                                 |
| \\      /  F ield         | OpenFOAM: The Open Source CFD Toolbox           |
|  \\    /   O peration     | Version:  2.4.x                                 |
|   \\  /    A nd           | Web:      www.OpenFOAM.org                      |
|    \\/     M anipulation  |                                                 |
\*---------------------------------------------------------------------------*/
FoamFile
{
    version     2.0;
    format      ascii;
    class       volVectorField;
    location    "1.2";
    object      Ua;
}
// * * * * * * * * * * * * * * * * * * * * * * * * * * * * * * * * * * * * * //

dimensions      [0 1 -1 0 0 0 0];

internalField   nonuniform List<vector> 
360
(
(1.00291e-36 -3.72509e-36 0)
(1.0029e-36 -3.72215e-36 0)
(1.00294e-36 -3.72228e-36 0)
(1.00303e-36 -3.7223e-36 0)
(1.00319e-36 -3.72243e-36 0)
(1.0034e-36 -3.72266e-36 0)
(1.00369e-36 -3.72299e-36 0)
(1.00403e-36 -3.7234e-36 0)
(1.00445e-36 -3.72391e-36 0)
(1.00493e-36 -3.72452e-36 0)
(1.00547e-36 -3.72521e-36 0)
(1.00608e-36 -3.72599e-36 0)
(1.00676e-36 -3.72685e-36 0)
(1.0075e-36 -3.7278e-36 0)
(1.00832e-36 -3.72883e-36 0)
(1.0092e-36 -3.72994e-36 0)
(1.01014e-36 -3.73113e-36 0)
(1.01116e-36 -3.7324e-36 0)
(1.01224e-36 -3.73375e-36 0)
(1.0134e-36 -3.73517e-36 0)
(1.01462e-36 -3.73667e-36 0)
(1.01591e-36 -3.73824e-36 0)
(1.01728e-36 -3.73988e-36 0)
(1.01871e-36 -3.7416e-36 0)
(1.02021e-36 -3.74339e-36 0)
(1.02178e-36 -3.74525e-36 0)
(1.02343e-36 -3.74717e-36 0)
(1.02514e-36 -3.74916e-36 0)
(1.02693e-36 -3.75122e-36 0)
(1.02879e-36 -3.75336e-36 0)
(1.03073e-36 -3.75555e-36 0)
(1.03273e-36 -3.75782e-36 0)
(1.03481e-36 -3.76015e-36 0)
(1.03696e-36 -3.76255e-36 0)
(1.03919e-36 -3.76502e-36 0)
(1.0415e-36 -3.76756e-36 0)
(1.04388e-36 -3.77017e-36 0)
(1.04634e-36 -3.77286e-36 0)
(1.04888e-36 -3.77562e-36 0)
(1.0515e-36 -3.77846e-36 0)
(1.0542e-36 -3.78138e-36 0)
(1.05698e-36 -3.78438e-36 0)
(1.05985e-36 -3.78747e-36 0)
(1.0628e-36 -3.79064e-36 0)
(1.06584e-36 -3.79392e-36 0)
(1.06898e-36 -3.79729e-36 0)
(1.0722e-36 -3.80076e-36 0)
(1.07552e-36 -3.80435e-36 0)
(1.07895e-36 -3.80805e-36 0)
(1.08247e-36 -3.81188e-36 0)
(1.08611e-36 -3.81585e-36 0)
(1.08986e-36 -3.81997e-36 0)
(1.09372e-36 -3.82425e-36 0)
(1.09772e-36 -3.82871e-36 0)
(1.10184e-36 -3.83336e-36 0)
(1.10611e-36 -3.83822e-36 0)
(1.11054e-36 -3.84331e-36 0)
(1.11512e-36 -3.84866e-36 0)
(1.11989e-36 -3.8543e-36 0)
(1.12485e-36 -3.86026e-36 0)
(1.13002e-36 -3.86659e-36 0)
(1.13543e-36 -3.87333e-36 0)
(1.14112e-36 -3.88055e-36 0)
(1.1471e-36 -3.8883e-36 0)
(1.15343e-36 -3.8967e-36 0)
(1.16015e-36 -3.90582e-36 0)
(1.16736e-36 -3.91586e-36 0)
(1.1751e-36 -3.92691e-36 0)
(1.18359e-36 -3.93941e-36 0)
(1.19284e-36 -3.95335e-36 0)
(1.20335e-36 -3.96979e-36 0)
(1.21519e-36 -3.98862e-36 0)
(1.23033e-36 -4.01376e-36 0)
(1.25009e-36 -4.04685e-36 0)
(1.28575e-36 -4.10862e-36 0)
(1.37869e-36 -4.2691e-36 0)
(2.38326e-36 -6.12657e-36 0)
(4.94419e-35 -9.74393e-35 0)
(2.06553e-29 -4.23205e-29 0)
(4.59477e-10 -9.91264e-10 0)
(2.01498e-07 -4.45934e-07 0)
(8.95729e-07 -1.9391e-06 0)
(1.85343e-06 -3.84917e-06 0)
(2.6987e-06 -5.40786e-06 0)
(3.3603e-06 -6.5706e-06 0)
(3.91111e-06 -7.52142e-06 0)
(4.42512e-06 -8.40754e-06 0)
(4.95187e-06 -9.31882e-06 0)
(5.51707e-06 -1.02975e-05 0)
(6.12467e-06 -1.13443e-05 0)
(6.76336e-06 -1.24329e-05 0)
(7.4182e-06 -1.35331e-05 0)
(8.0804e-06 -1.4629e-05 0)
(8.75005e-06 -1.57215e-05 0)
(9.43339e-06 -1.6822e-05 0)
(1.01387e-05 -1.79443e-05 0)
(1.08735e-05 -1.90993e-05 0)
(1.16428e-05 -2.02934e-05 0)
(1.24497e-05 -2.15292e-05 0)
(1.32961e-05 -2.28076e-05 0)
(1.41836e-05 -2.41287e-05 0)
(1.51139e-05 -2.54931e-05 0)
(1.60887e-05 -2.69012e-05 0)
(1.71101e-05 -2.83534e-05 0)
(1.81801e-05 -2.985e-05 0)
(1.9301e-05 -3.1391e-05 0)
(2.04753e-05 -3.2977e-05 0)
(2.17065e-05 -3.46089e-05 0)
(2.29986e-05 -3.62883e-05 0)
(2.43569e-05 -3.80174e-05 0)
(2.57874e-05 -3.97993e-05 0)
(2.72974e-05 -4.16376e-05 0)
(2.88955e-05 -4.35363e-05 0)
(3.05916e-05 -4.55003e-05 0)
(3.23971e-05 -4.75344e-05 0)
(3.43244e-05 -4.96437e-05 0)
(3.63872e-05 -5.18321e-05 0)
(3.86001e-05 -5.41026e-05 0)
(4.09794e-05 -5.6457e-05 0)
(4.35454e-05 -5.88978e-05 0)
(4.63269e-05 -6.14315e-05 0)
(4.93668e-05 -6.4073e-05 0)
(5.27269e-05 -6.68477e-05 0)
(5.6482e-05 -6.97854e-05 0)
(6.06961e-05 -7.28986e-05 0)
(6.53721e-05 -7.61415e-05 0)
(7.04063e-05 -7.93744e-05 0)
(7.56261e-05 -8.23943e-05 0)
(8.09856e-05 -8.50609e-05 0)
(8.68668e-05 -8.74116e-05 0)
(9.46093e-05 -8.96654e-05 0)
(0.000108476 -9.2199e-05 0)
(0.00014683 -9.5631e-05 0)
(0.000331324 -0.000101147 0)
(0.00187344 -0.000110997 0)
(0.0143158 -0.000124601 0)
(0.0593695 -0.000139073 0)
(0.134022 -0.000162945 0)
(0.218853 -0.00019026 0)
(0.305685 -0.000221945 0)
(0.392856 -0.000262861 0)
(0.481096 -0.000468602 0)
(0.569132 -0.000768616 0)
(0.65004 -0.000924828 0)
(0.719531 -0.00110767 0)
(0.776995 -0.00148953 0)
(0.810879 -0.00198695 0)
(0.823982 -0.00222099 0)
(0.834697 -0.0023376 0)
(0.850399 -0.00245793 0)
(0.877581 -0.00243232 0)
(0.910108 -0.0028729 0)
(0.955478 -0.00576683 0)
(0.992536 -0.00536941 0)
(1.02214 -0.00818834 0)
(1.04766 -0.010478 0)
(1.07012 -0.012121 0)
(1.09011 -0.0133767 0)
(1.10802 -0.0143883 0)
(1.12407 -0.0152302 0)
(1.13842 -0.0159462 0)
(1.15127 -0.0165763 0)
(1.16274 -0.017133 0)
(1.17302 -0.0176357 0)
(1.1822 -0.0180919 0)
(1.19047 -0.0185134 0)
(1.1979 -0.0188991 0)
(1.2046 -0.0192584 0)
(1.21067 -0.019592 0)
(1.21616 -0.019903 0)
(1.22115 -0.0201948 0)
(1.22568 -0.0204676 0)
(1.22982 -0.0207241 0)
(1.23358 -0.0209654 0)
(1.23703 -0.0211938 0)
(1.24017 -0.0214082 0)
(1.24305 -0.0216117 0)
(1.2457 -0.0218043 0)
(1.24812 -0.0219867 0)
(1.25034 -0.0221602 0)
(1.25238 -0.0223247 0)
(1.25426 -0.0224813 0)
(1.25599 -0.0226304 0)
(1.25759 -0.0227728 0)
(1.25906 -0.0229084 0)
(1.26043 -0.0230379 0)
(1.26169 -0.0231618 0)
(1.26286 -0.0232808 0)
(1.26394 -0.0233939 0)
(1.26495 -0.0235028 0)
(1.26589 -0.0236073 0)
(1.26677 -0.0237075 0)
(1.2676 -0.0238036 0)
(1.26837 -0.0238958 0)
(1.2691 -0.0239846 0)
(1.26979 -0.02407 0)
(1.27044 -0.0241522 0)
(1.27106 -0.0242312 0)
(1.27166 -0.0243072 0)
(1.27223 -0.0243801 0)
(1.27277 -0.0244499 0)
(1.27331 -0.0245181 0)
(1.27385 -0.0245858 0)
(1.27438 -0.0246508 0)
(1.27489 -0.0247144 0)
(1.27542 -0.0247785 0)
(1.27594 -0.0248416 0)
(1.27646 -0.0249022 0)
(1.27697 -0.0249623 0)
(1.27749 -0.0250227 0)
(1.27802 -0.0250826 0)
(1.27854 -0.0251406 0)
(1.27906 -0.0251978 0)
(1.2796 -0.0252563 0)
(1.28013 -0.0253138 0)
(1.28067 -0.0253697 0)
(1.28122 -0.0254271 0)
(1.28178 -0.0254849 0)
(1.28234 -0.0255406 0)
(1.28291 -0.0255973 0)
(1.28351 -0.0256557 0)
(1.28411 -0.0257132 0)
(1.28472 -0.0257715 0)
(1.28534 -0.0258297 0)
(1.28598 -0.0258885 0)
(1.28663 -0.0259485 0)
(1.28731 -0.0260098 0)
(1.288 -0.0260723 0)
(1.28871 -0.0261352 0)
(1.28943 -0.0261985 0)
(1.29018 -0.026264 0)
(1.29096 -0.026333 0)
(1.29176 -0.0264029 0)
(1.29257 -0.026473 0)
(1.29342 -0.0265459 0)
(1.29432 -0.0266246 0)
(1.29523 -0.0267027 0)
(1.29616 -0.0267834 0)
(1.29716 -0.0268705 0)
(1.29818 -0.0269581 0)
(1.29921 -0.0270475 0)
(1.3003 -0.027143 0)
(1.30141 -0.0272391 0)
(1.30254 -0.0273379 0)
(1.30371 -0.0274397 0)
(1.30488 -0.0275412 0)
(1.30603 -0.0276406 0)
(1.30715 -0.0277362 0)
(1.30822 -0.0278274 0)
(1.30914 -0.0279014 0)
(1.3103 -0.0280014 0)
(1.36681 -0.0395295 0)
(1.36681 -0.0395293 0)
(1.36681 -0.0395295 0)
(1.36681 -0.0395293 0)
(1.36681 -0.0395295 0)
(1.36681 -0.0395293 0)
(1.36681 -0.0395295 0)
(1.36681 -0.0395293 0)
(1.36681 -0.0395294 0)
(1.36681 -0.0395293 0)
(1.36681 -0.0395294 0)
(1.36681 -0.0395293 0)
(1.36681 -0.0395294 0)
(1.36681 -0.0395294 0)
(1.36681 -0.0395294 0)
(1.36681 -0.0395294 0)
(1.36681 -0.0395294 0)
(1.36681 -0.0395294 0)
(1.36681 -0.0395294 0)
(1.36681 -0.0395294 0)
(1.36681 -0.0395294 0)
(1.36681 -0.0395294 0)
(1.36681 -0.0395294 0)
(1.36681 -0.0395294 0)
(1.36681 -0.0395294 0)
(1.36681 -0.0395294 0)
(1.36681 -0.0395294 0)
(1.36681 -0.0395294 0)
(1.36681 -0.0395294 0)
(1.36681 -0.0395294 0)
(1.36681 -0.0395294 0)
(1.36681 -0.0395294 0)
(1.36681 -0.0395294 0)
(1.36681 -0.0395294 0)
(1.36681 -0.0395294 0)
(1.36681 -0.0395294 0)
(1.36681 -0.0395294 0)
(1.36681 -0.0395294 0)
(1.36681 -0.0395294 0)
(1.36681 -0.0395294 0)
(1.36681 -0.0395294 0)
(1.36681 -0.0395294 0)
(1.36681 -0.0395294 0)
(1.36681 -0.0395294 0)
(1.36681 -0.0395294 0)
(1.36681 -0.0395294 0)
(1.36681 -0.0395294 0)
(1.36681 -0.0395294 0)
(1.36681 -0.0395294 0)
(1.36681 -0.0395294 0)
(1.36681 -0.0395294 0)
(1.36681 -0.0395294 0)
(1.36681 -0.0395294 0)
(1.36681 -0.0395294 0)
(1.36681 -0.0395294 0)
(1.36681 -0.0395294 0)
(1.36681 -0.0395294 0)
(1.36681 -0.0395294 0)
(1.36681 -0.0395294 0)
(1.36681 -0.0395294 0)
(1.36681 -0.0395294 0)
(1.36681 -0.0395294 0)
(1.36681 -0.0395294 0)
(1.36681 -0.0395294 0)
(1.36681 -0.0395294 0)
(1.36681 -0.0395294 0)
(1.36681 -0.0395294 0)
(1.36681 -0.0395294 0)
(1.36681 -0.0395294 0)
(1.36681 -0.0395294 0)
(1.36681 -0.0395294 0)
(1.36681 -0.0395294 0)
(1.36681 -0.0395294 0)
(1.36681 -0.0395294 0)
(1.36681 -0.0395294 0)
(1.36681 -0.0395294 0)
(1.36681 -0.0395294 0)
(1.36681 -0.0395294 0)
(1.36681 -0.0395294 0)
(1.36681 -0.0395294 0)
(1.36681 -0.0395294 0)
(1.36681 -0.0395294 0)
(1.36681 -0.0395294 0)
(1.36681 -0.0395294 0)
(1.36681 -0.0395294 0)
(1.36681 -0.0395294 0)
(1.36681 -0.0395294 0)
(1.36681 -0.0395294 0)
(1.36681 -0.0395294 0)
(1.36681 -0.0395294 0)
(1.36681 -0.0395294 0)
(1.36681 -0.0395294 0)
(1.36681 -0.0395294 0)
(1.36681 -0.0395294 0)
(1.36681 -0.0395294 0)
(1.36681 -0.0395294 0)
(1.36681 -0.0395294 0)
(1.36681 -0.0395294 0)
(1.36681 -0.0395294 0)
(1.36681 -0.0395294 0)
(1.36681 -0.0395294 0)
(1.36681 -0.0395294 0)
(1.36681 -0.0395294 0)
(1.36681 -0.0395294 0)
(1.36681 -0.0395294 0)
(1.36681 -0.0395292 0)
(1.36681 -0.0395207 0)
(1.36679 -0.0391756 0)
(1.36636 -0.0224588 0)
)
;

boundaryField
{
    inandouthalf11
    {
        type            cyclic;
    }
    inandouthalf12
    {
        type            cyclic;
    }
    inandouthalf21
    {
        type            cyclic;
    }
    inandouthalf22
    {
        type            cyclic;
    }
    inandouthalf31
    {
        type            cyclic;
    }
    inandouthalf32
    {
        type            cyclic;
    }
    inandouthalf41
    {
        type            cyclic;
    }
    inandouthalf42
    {
        type            cyclic;
    }
    top
    {
        type            symmetryPlane;
    }
    walls
    {
        type            fixedValue;
        value           uniform (0 0 0);
    }
    frontAndBackPlanes
    {
        type            empty;
    }
}


// ************************************************************************* //
