/*--------------------------------*- C++ -*----------------------------------*\
| =========                 |                                                 |
| \\      /  F ield         | OpenFOAM: The Open Source CFD Toolbox           |
|  \\    /   O peration     | Version:  2.4.x                                 |
|   \\  /    A nd           | Web:      www.OpenFOAM.org                      |
|    \\/     M anipulation  |                                                 |
\*---------------------------------------------------------------------------*/
FoamFile
{
    version     2.0;
    format      ascii;
    class       volVectorField;
    location    "1.2";
    object      Ub_0;
}
// * * * * * * * * * * * * * * * * * * * * * * * * * * * * * * * * * * * * * //

dimensions      [0 1 -1 0 0 0 0];

internalField   nonuniform List<vector> 
360
(
(0.000137202 4.43958e-14 0)
(0.000137436 1.3372e-13 0)
(0.000137437 2.23229e-13 0)
(0.000137437 3.12666e-13 0)
(0.000137437 4.02486e-13 0)
(0.000137438 4.92301e-13 0)
(0.000137438 5.81948e-13 0)
(0.000137439 6.71425e-13 0)
(0.000137439 7.6081e-13 0)
(0.000137441 8.50391e-13 0)
(0.000137442 9.40031e-13 0)
(0.000137442 1.02942e-12 0)
(0.000137443 1.11855e-12 0)
(0.000137444 1.20769e-12 0)
(0.000137445 1.29651e-12 0)
(0.000137446 1.38515e-12 0)
(0.000137447 1.47399e-12 0)
(0.000137449 1.56258e-12 0)
(0.00013745 1.651e-12 0)
(0.000137452 1.73906e-12 0)
(0.000137453 1.82687e-12 0)
(0.000137456 1.91471e-12 0)
(0.000137458 2.00197e-12 0)
(0.00013746 2.08905e-12 0)
(0.000137462 2.17629e-12 0)
(0.000137465 2.26316e-12 0)
(0.000137467 2.34959e-12 0)
(0.000137471 2.43583e-12 0)
(0.000137474 2.52171e-12 0)
(0.000137478 2.60722e-12 0)
(0.000137481 2.69255e-12 0)
(0.000137486 2.77765e-12 0)
(0.000137489 2.86232e-12 0)
(0.000137495 2.94679e-12 0)
(0.000137499 3.03086e-12 0)
(0.000137505 3.1149e-12 0)
(0.000137511 3.19857e-12 0)
(0.000137518 3.28165e-12 0)
(0.000137526 3.3644e-12 0)
(0.000137533 3.4469e-12 0)
(0.000137542 3.52925e-12 0)
(0.000137551 3.61098e-12 0)
(0.000137561 3.69207e-12 0)
(0.000137572 3.77293e-12 0)
(0.000137584 3.85341e-12 0)
(0.000137597 3.9337e-12 0)
(0.00013761 4.01367e-12 0)
(0.000137624 4.0929e-12 0)
(0.000137641 4.17198e-12 0)
(0.000137659 4.25063e-12 0)
(0.000137678 4.32853e-12 0)
(0.000137698 4.40625e-12 0)
(0.00013772 4.48385e-12 0)
(0.000137745 4.56095e-12 0)
(0.00013777 4.6371e-12 0)
(0.000137799 4.71291e-12 0)
(0.000137829 4.78853e-12 0)
(0.000137863 4.8637e-12 0)
(0.000137899 4.93835e-12 0)
(0.000137937 5.01237e-12 0)
(0.00013798 5.08582e-12 0)
(0.000138025 5.15899e-12 0)
(0.000138075 5.23149e-12 0)
(0.000138128 5.30321e-12 0)
(0.000138186 5.37453e-12 0)
(0.000138249 5.44552e-12 0)
(0.000138318 5.51591e-12 0)
(0.000138392 5.58536e-12 0)
(0.000138472 5.65415e-12 0)
(0.000138558 5.72262e-12 0)
(0.000138653 5.79079e-12 0)
(0.000138755 5.85842e-12 0)
(0.000138865 5.92541e-12 0)
(0.000138985 6.55375e-12 0)
(0.000139115 -2.20826e-11 0)
(0.000139256 2.25506e-10 0)
(0.000139408 -8.26921e-10 0)
(0.000139573 3.51073e-09 0)
(0.000139752 -1.48695e-08 0)
(0.000139928 6.45623e-08 0)
(0.000140226 9.86717e-07 0)
(0.000140899 3.15401e-06 0)
(0.000141798 5.84254e-06 0)
(0.000142634 8.23438e-06 0)
(0.000143345 1.01039e-05 0)
(0.000143981 1.16317e-05 0)
(0.000144597 1.30352e-05 0)
(0.000145227 1.44574e-05 0)
(0.00014589 1.59669e-05 0)
(0.000146588 1.75704e-05 0)
(0.00014731 1.92363e-05 0)
(0.000148048 2.09245e-05 0)
(0.000148797 2.26116e-05 0)
(0.000149558 2.42965e-05 0)
(0.000150337 2.59936e-05 0)
(0.000151141 2.7722e-05 0)
(0.000151977 2.9498e-05 0)
(0.00015285 3.13314e-05 0)
(0.000153762 3.3227e-05 0)
(0.000154717 3.51863e-05 0)
(0.000155715 3.72098e-05 0)
(0.000156759 3.92979e-05 0)
(0.00015785 4.14513e-05 0)
(0.000158991 4.36702e-05 0)
(0.000160183 4.5955e-05 0)
(0.00016143 4.83056e-05 0)
(0.000162733 5.07228e-05 0)
(0.000164097 5.32079e-05 0)
(0.000165525 5.57632e-05 0)
(0.000167023 5.83919e-05 0)
(0.000168598 6.10984e-05 0)
(0.000170257 6.38879e-05 0)
(0.000172008 6.67665e-05 0)
(0.000173862 6.97408e-05 0)
(0.000175831 7.28182e-05 0)
(0.000177928 7.60053e-05 0)
(0.000180165 7.93079e-05 0)
(0.000182559 8.27301e-05 0)
(0.000185125 8.62749e-05 0)
(0.000187884 8.99467e-05 0)
(0.000190865 9.37566e-05 0)
(0.000194112 9.77267e-05 0)
(0.000197691 0.000101892 0)
(0.000201677 0.000106287 0)
(0.000206135 0.000110916 0)
(0.000211062 0.000115697 0)
(0.000216342 0.000120438 0)
(0.000221788 0.000124881 0)
(0.000227343 0.000128861 0)
(0.000233401 0.000132439 0)
(0.000241332 0.00013597 0)
(0.000255517 0.000140195 0)
(0.000294729 0.000146381 0)
(0.000483718 0.000155507 0)
(0.00206335 0.00016722 0)
(0.0146942 0.000182154 0)
(0.0600313 0.000206693 0)
(0.134807 0.00024245 0)
(0.219661 0.000282493 0)
(0.306494 0.000327938 0)
(0.393665 0.000385464 0)
(0.481938 0.000633854 0)
(0.569993 0.00099261 0)
(0.650804 0.0011273 0)
(0.720199 0.001291 0)
(0.777502 0.00161929 0)
(0.811044 0.00204042 0)
(0.824035 0.00215863 0)
(0.834734 0.00220629 0)
(0.85038 0.0022555 0)
(0.877443 0.00251888 0)
(0.91 0.00148827 0)
(0.955104 0.00328493 0)
(1.00289 -0.00198941 0)
(1.05141 0.00179356 0)
(1.09586 -0.00155365 0)
(1.13554 0.00137603 0)
(1.17035 -0.00118158 0)
(1.20045 0.00103703 0)
(1.22586 -0.000880285 0)
(1.24703 0.00076469 0)
(1.26416 -0.000639703 0)
(1.27792 0.000548792 0)
(1.28883 -0.000450293 0)
(1.29762 0.000380125 0)
(1.30481 -0.000303749 0)
(1.31084 0.000250811 0)
(1.31605 -0.000192475 0)
(1.3206 0.000153488 0)
(1.32468 -0.000109732 0)
(1.32832 8.19076e-05 0)
(1.33164 -4.97817e-05 0)
(1.33464 3.07588e-05 0)
(1.33738 -7.77986e-06 0)
(1.33989 -4.52291e-06 0)
(1.34218 2.04696e-05 0)
(1.34429 -2.76812e-05 0)
(1.34623 3.8249e-05 0)
(1.34801 -4.17139e-05 0)
(1.34965 4.82818e-05 0)
(1.35117 -4.9097e-05 0)
(1.35256 5.28918e-05 0)
(1.35384 -5.23009e-05 0)
(1.35503 5.35771e-05 0)
(1.35612 -5.10807e-05 0)
(1.35713 5.1218e-05 0)
(1.35806 -4.83858e-05 0)
(1.35892 4.76795e-05 0)
(1.35972 -4.44778e-05 0)
(1.36045 4.32036e-05 0)
(1.36113 -3.99096e-05 0)
(1.36176 3.83271e-05 0)
(1.36233 -3.50968e-05 0)
(1.36287 3.33904e-05 0)
(1.36336 -3.03384e-05 0)
(1.36382 2.86272e-05 0)
(1.36424 -2.58186e-05 0)
(1.36463 2.41862e-05 0)
(1.36499 -2.16515e-05 0)
(1.36532 2.01463e-05 0)
(1.36562 -1.78924e-05 0)
(1.36591 1.68831e-05 0)
(1.36618 -1.52338e-05 0)
(1.36643 1.43241e-05 0)
(1.36667 -1.28679e-05 0)
(1.36689 1.20433e-05 0)
(1.3671 -1.0779e-05 0)
(1.36729 1.00487e-05 0)
(1.36747 -8.94724e-06 0)
(1.36764 8.2944e-06 0)
(1.36779 -7.34727e-06 0)
(1.36793 6.77437e-06 0)
(1.36807 -5.95812e-06 0)
(1.36819 5.45347e-06 0)
(1.3683 -4.7597e-06 0)
(1.3684 4.32404e-06 0)
(1.3685 -3.73702e-06 0)
(1.36858 3.35873e-06 0)
(1.36866 -2.86385e-06 0)
(1.36873 2.54196e-06 0)
(1.3688 -2.1317e-06 0)
(1.36886 1.85928e-06 0)
(1.36891 -1.52022e-06 0)
(1.36896 1.29298e-06 0)
(1.369 -1.0161e-06 0)
(1.36904 8.28796e-07 0)
(1.36907 -6.06306e-07 0)
(1.3691 4.54498e-07 0)
(1.36913 -2.78065e-07 0)
(1.36915 1.58022e-07 0)
(1.36918 -2.09844e-08 0)
(1.3692 -7.22739e-08 0)
(1.36921 1.75928e-07 0)
(1.36923 -2.45314e-07 0)
(1.36924 3.21354e-07 0)
(1.36925 -3.71133e-07 0)
(1.36926 4.24212e-07 0)
(1.36927 -4.57041e-07 0)
(1.36927 4.91339e-07 0)
(1.36928 -5.10512e-07 0)
(1.36929 5.30037e-07 0)
(1.36929 -5.37472e-07 0)
(1.36929 5.45104e-07 0)
(1.3693 -5.4427e-07 0)
(1.3693 5.4269e-07 0)
(1.3693 -5.35017e-07 0)
(1.3693 5.26614e-07 0)
(1.36931 -5.13903e-07 0)
(1.36931 5.00598e-07 0)
(1.36931 -4.84332e-07 0)
(1.36931 4.67847e-07 0)
(1.36931 -4.49221e-07 0)
(1.36931 4.30628e-07 0)
(1.36931 -4.10923e-07 0)
(1.36931 3.91294e-07 0)
(1.36931 -3.7117e-07 0)
(1.36931 3.51333e-07 0)
(1.36931 -3.3145e-07 0)
(1.36931 3.1202e-07 0)
(1.36931 -2.92857e-07 0)
(1.36931 2.74281e-07 0)
(1.36931 -2.56187e-07 0)
(1.36931 2.38774e-07 0)
(1.36931 -2.21984e-07 0)
(1.36931 2.05935e-07 0)
(1.36931 -1.90589e-07 0)
(1.36931 1.76013e-07 0)
(1.36931 -1.62178e-07 0)
(1.36931 1.49115e-07 0)
(1.36931 -1.36795e-07 0)
(1.36931 1.25227e-07 0)
(1.36931 -1.14383e-07 0)
(1.36931 1.04256e-07 0)
(1.36931 -9.48137e-08 0)
(1.36931 8.60417e-08 0)
(1.36931 -7.79059e-08 0)
(1.36931 7.03857e-08 0)
(1.36931 -6.34459e-08 0)
(1.36931 5.7063e-08 0)
(1.36931 -5.12017e-08 0)
(1.36931 4.58373e-08 0)
(1.36931 -4.09352e-08 0)
(1.36931 3.64708e-08 0)
(1.36931 -3.24109e-08 0)
(1.36931 2.87321e-08 0)
(1.36931 -2.54031e-08 0)
(1.36931 2.2402e-08 0)
(1.36931 -1.97e-08 0)
(1.36931 1.7277e-08 0)
(1.36931 -1.5107e-08 0)
(1.36931 1.31719e-08 0)
(1.36931 -1.14486e-08 0)
(1.36931 9.92077e-09 0)
(1.36931 -8.56842e-09 0)
(1.36931 7.37694e-09 0)
(1.36931 -6.32938e-09 0)
(1.36931 5.41276e-09 0)
(1.36931 -4.61284e-09 0)
(1.36931 3.91829e-09 0)
(1.36931 -3.31693e-09 0)
(1.36931 2.79878e-09 0)
(1.36931 -2.35136e-09 0)
(1.36931 1.93608e-09 0)
(1.36931 -1.55414e-09 0)
(1.36931 1.20766e-09 0)
(1.36931 -8.9823e-10 0)
(1.36931 6.28375e-10 0)
(1.36931 -4.00289e-10 0)
(1.36931 2.1735e-10 0)
(1.36931 -8.33498e-11 0)
(1.36931 -3.07338e-14 0)
(1.36931 9.07322e-12 0)
(1.36931 -1.75399e-12 0)
(1.36931 3.61295e-14 0)
(1.36931 -1.61527e-15 0)
(1.36931 -9.94999e-15 0)
(1.36931 -1.90885e-14 0)
(1.36931 -2.97215e-14 0)
(1.36931 -4.43442e-14 0)
(1.36931 -6.25849e-14 0)
(1.36931 -8.04148e-14 0)
(1.36931 -9.83872e-14 0)
(1.36931 -1.21169e-13 0)
(1.36931 -1.50647e-13 0)
(1.36931 -1.84133e-13 0)
(1.36931 -2.24605e-13 0)
(1.36931 -2.76736e-13 0)
(1.36931 -3.49e-13 0)
(1.36931 -4.54981e-13 0)
(1.36931 -6.06002e-13 0)
(1.36931 -7.90409e-13 0)
(1.36931 -1.01265e-12 0)
(1.36931 -1.24759e-12 0)
(1.36931 -1.50607e-12 0)
(1.36931 -1.81055e-12 0)
(1.36931 -2.15266e-12 0)
(1.36931 -2.48212e-12 0)
(1.36931 -2.80444e-12 0)
(1.36931 -3.17199e-12 0)
(1.36931 -3.59325e-12 0)
(1.36931 -4.05245e-12 0)
(1.36931 -4.53022e-12 0)
(1.36931 -5.05648e-12 0)
(1.36931 -5.62113e-12 0)
(1.36931 -6.33883e-12 0)
(1.36931 -7.14117e-12 0)
(1.36931 -7.90702e-12 0)
(1.36931 -8.54668e-12 0)
(1.36931 -9.20428e-12 0)
(1.36931 -9.76493e-12 0)
(1.36931 -1.00947e-11 0)
(1.36931 -1.02065e-11 0)
(1.36931 -1.06494e-11 0)
(1.36931 -1.11873e-11 0)
(1.36931 -1.12171e-11 0)
(1.36931 -1.05153e-11 0)
(1.36931 -9.52579e-12 0)
(1.36931 -8.16773e-12 0)
(1.36931 -6.05181e-12 0)
(1.36931 -2.50112e-12 0)
)
;

boundaryField
{
    inandouthalf11
    {
        type            cyclic;
    }
    inandouthalf12
    {
        type            cyclic;
    }
    inandouthalf21
    {
        type            cyclic;
    }
    inandouthalf22
    {
        type            cyclic;
    }
    inandouthalf31
    {
        type            cyclic;
    }
    inandouthalf32
    {
        type            cyclic;
    }
    inandouthalf41
    {
        type            cyclic;
    }
    inandouthalf42
    {
        type            cyclic;
    }
    top
    {
        type            symmetryPlane;
    }
    walls
    {
        type            fixedValue;
        value           uniform (0 0 0);
    }
    frontAndBackPlanes
    {
        type            empty;
    }
}


// ************************************************************************* //
