/*--------------------------------*- C++ -*----------------------------------*\
| =========                 |                                                 |
| \\      /  F ield         | OpenFOAM: The Open Source CFD Toolbox           |
|  \\    /   O peration     | Version:  2.4.x                                 |
|   \\  /    A nd           | Web:      www.OpenFOAM.org                      |
|    \\/     M anipulation  |                                                 |
\*---------------------------------------------------------------------------*/
FoamFile
{
    version     2.0;
    format      ascii;
    class       volVectorField;
    location    "1.2";
    object      Ur;
}
// * * * * * * * * * * * * * * * * * * * * * * * * * * * * * * * * * * * * * //

dimensions      [0 1 -1 0 0 0 0];

internalField   nonuniform List<vector> 
360
(
(0.000137139 4.3595e-14 0)
(0.000137373 1.31135e-13 0)
(0.000137374 2.18899e-13 0)
(0.000137374 3.06698e-13 0)
(0.000137374 3.94861e-13 0)
(0.000137375 4.83334e-13 0)
(0.000137375 5.71637e-13 0)
(0.000137377 6.59847e-13 0)
(0.000137377 7.48203e-13 0)
(0.000137378 8.36463e-13 0)
(0.000137379 9.24629e-13 0)
(0.000137379 1.01243e-12 0)
(0.00013738 1.09986e-12 0)
(0.000137381 1.18716e-12 0)
(0.000137382 1.27467e-12 0)
(0.000137384 1.36242e-12 0)
(0.000137385 1.45008e-12 0)
(0.000137386 1.53733e-12 0)
(0.000137387 1.62426e-12 0)
(0.000137389 1.71096e-12 0)
(0.00013739 1.7971e-12 0)
(0.000137393 1.88312e-12 0)
(0.000137395 1.96906e-12 0)
(0.000137397 2.05479e-12 0)
(0.0001374 2.14014e-12 0)
(0.000137402 2.22511e-12 0)
(0.000137404 2.30996e-12 0)
(0.000137408 2.39473e-12 0)
(0.000137411 2.47923e-12 0)
(0.000137415 2.5635e-12 0)
(0.000137418 2.64732e-12 0)
(0.000137423 2.73107e-12 0)
(0.000137426 2.81456e-12 0)
(0.000137432 2.89755e-12 0)
(0.000137437 2.98021e-12 0)
(0.000137442 3.06264e-12 0)
(0.000137448 3.14486e-12 0)
(0.000137455 3.22655e-12 0)
(0.000137463 3.3076e-12 0)
(0.00013747 3.38863e-12 0)
(0.000137479 3.46957e-12 0)
(0.000137489 3.54959e-12 0)
(0.000137498 3.62923e-12 0)
(0.000137509 3.70895e-12 0)
(0.000137521 3.78828e-12 0)
(0.000137534 3.86704e-12 0)
(0.000137548 3.94512e-12 0)
(0.000137562 4.02285e-12 0)
(0.000137578 4.10034e-12 0)
(0.000137596 4.17725e-12 0)
(0.000137615 4.25399e-12 0)
(0.000137636 4.33069e-12 0)
(0.000137658 4.40666e-12 0)
(0.000137682 4.48227e-12 0)
(0.000137707 4.55751e-12 0)
(0.000137736 4.63214e-12 0)
(0.000137766 4.70606e-12 0)
(0.0001378 4.77984e-12 0)
(0.000137836 4.85324e-12 0)
(0.000137874 4.92611e-12 0)
(0.000137917 4.99839e-12 0)
(0.000137962 5.07e-12 0)
(0.000138012 5.14118e-12 0)
(0.000138065 5.21183e-12 0)
(0.000138123 5.28204e-12 0)
(0.000138186 5.3519e-12 0)
(0.000138255 5.42115e-12 0)
(0.000138329 5.4895e-12 0)
(0.000138409 5.55732e-12 0)
(0.000138495 5.62463e-12 0)
(0.000138589 5.69121e-12 0)
(0.000138692 5.75755e-12 0)
(0.000138801 5.82357e-12 0)
(0.000138922 6.45319e-12 0)
(0.000139051 -2.22373e-11 0)
(0.000139192 2.25628e-10 0)
(0.000139344 -8.27828e-10 0)
(0.000139509 3.51353e-09 0)
(0.000139689 -1.48799e-08 0)
(0.000139864 6.59515e-08 0)
(0.000139961 1.43335e-06 0)
(0.000139938 5.09253e-06 0)
(0.000139879 9.68858e-06 0)
(0.000139869 1.36369e-05 0)
(0.000139918 1.66681e-05 0)
(0.000140003 1.91467e-05 0)
(0.000140105 2.14368e-05 0)
(0.000140209 2.37713e-05 0)
(0.000140307 2.62605e-05 0)
(0.000140397 2.8912e-05 0)
(0.000140481 3.16673e-05 0)
(0.000140564 3.44564e-05 0)
(0.00014065 3.72397e-05 0)
(0.000140742 4.00173e-05 0)
(0.000140837 4.28149e-05 0)
(0.000140936 4.56655e-05 0)
(0.000141037 4.85959e-05 0)
(0.00014114 5.16229e-05 0)
(0.000141244 5.47537e-05 0)
(0.000141352 5.79906e-05 0)
(0.000141462 6.13344e-05 0)
(0.000141575 6.47862e-05 0)
(0.00014169 6.83469e-05 0)
(0.000141809 7.20174e-05 0)
(0.000141931 7.57981e-05 0)
(0.000142056 7.96894e-05 0)
(0.000142185 8.36921e-05 0)
(0.000142317 8.78087e-05 0)
(0.000142452 9.20429e-05 0)
(0.000142592 9.64004e-05 0)
(0.000142735 0.000100888 0)
(0.000142883 0.000105516 0)
(0.000143036 0.000110292 0)
(0.000143193 0.00011523 0)
(0.000143356 0.000120341 0)
(0.000143523 0.000125637 0)
(0.000143697 0.000131127 0)
(0.000143877 0.000136819 0)
(0.000144062 0.000142717 0)
(0.000144253 0.000148829 0)
(0.000144451 0.000155171 0)
(0.000144657 0.000161781 0)
(0.000144873 0.00016872 0)
(0.000145101 0.000176052 0)
(0.000145342 0.000183792 0)
(0.000145591 0.000191816 0)
(0.000145835 0.000199789 0)
(0.00014606 0.000207254 0)
(0.000146254 0.000213901 0)
(0.000146425 0.000219831 0)
(0.0001466 0.000225614 0)
(0.000146876 0.000232368 0)
(0.000147549 0.000241975 0)
(0.000150746 0.000256602 0)
(0.000175348 0.000278154 0)
(0.000285659 0.000306669 0)
(0.000436309 0.00034562 0)
(0.000496556 0.000405202 0)
(0.000507869 0.000472537 0)
(0.000511188 0.000549587 0)
(0.000517344 0.000647896 0)
(0.000552894 0.00110136 0)
(0.000589677 0.00176038 0)
(0.000538025 0.00205167 0)
(0.000492037 0.00239773 0)
(0.000401777 0.003107 0)
(0.000186553 0.00402617 0)
(0.000124116 0.00437952 0)
(0.000116972 0.00454373 0)
(7.41617e-05 0.00471337 0)
(-2.55533e-05 0.00495106 0)
(1.1416e-06 0.004361 0)
(-0.000252731 0.00905 0)
(0.0104784 0.00337756 0)
(0.0293915 0.0099844 0)
(0.04832 0.00892169 0)
(0.065538 0.0134998 0)
(0.0803566 0.0121923 0)
(0.0925525 0.0154282 0)
(0.101911 0.0143471 0)
(0.108737 0.0167137 0)
(0.113009 0.0159339 0)
(0.115299 0.0176844 0)
(0.115935 0.0171829 0)
(0.11554 0.0184745 0)
(0.114465 0.0182074 0)
(0.113063 0.019152 0)
(0.111576 0.0190638 0)
(0.110059 0.0197474 0)
(0.108647 0.0197915 0)
(0.107298 0.0202784 0)
(0.106078 0.0204163 0)
(0.104946 0.0207562 0)
(0.103925 0.0209563 0)
(0.102986 0.0211904 0)
(0.102134 0.0214276 0)
(0.101367 0.021585 0)
(0.100658 0.0218417 0)
(0.100025 0.0219458 0)
(0.099436 0.0222078 0)
(0.0989094 0.0222761 0)
(0.0984193 0.0225336 0)
(0.0979771 0.0225786 0)
(0.0975625 0.022826 0)
(0.0971855 0.0228577 0)
(0.0968328 0.0230888 0)
(0.0965053 0.0231137 0)
(0.0961951 0.0233283 0)
(0.0959056 0.0233496 0)
(0.0956312 0.0235459 0)
(0.095365 0.0235675 0)
(0.0951128 0.0237457 0)
(0.0948658 0.0237686 0)
(0.0946283 0.0239291 0)
(0.0943916 0.0239543 0)
(0.0941592 0.0240986 0)
(0.0939253 0.0241264 0)
(0.0936928 0.0242553 0)
(0.0934564 0.0242856 0)
(0.0932191 0.0244002 0)
(0.0929771 0.024432 0)
(0.0927249 0.024535 0)
(0.0924566 0.0245706 0)
(0.092184 0.0246651 0)
(0.0919015 0.0247015 0)
(0.0915976 0.0247906 0)
(0.091281 0.0248308 0)
(0.0909601 0.0249123 0)
(0.0906253 0.0249534 0)
(0.0902701 0.025031 0)
(0.0898999 0.0250752 0)
(0.0895232 0.0251474 0)
(0.0891351 0.0251918 0)
(0.0887213 0.0252618 0)
(0.0882961 0.025309 0)
(0.0878646 0.0253741 0)
(0.0874069 0.0254234 0)
(0.0869294 0.0254882 0)
(0.08645 0.0255377 0)
(0.0859481 0.0255999 0)
(0.0854183 0.0256535 0)
(0.0848777 0.0257151 0)
(0.0843178 0.02577 0)
(0.0837433 0.025831 0)
(0.0831508 0.0258875 0)
(0.082534 0.0259494 0)
(0.0818931 0.0260092 0)
(0.0812288 0.0260728 0)
(0.0805499 0.0261349 0)
(0.0798546 0.0261987 0)
(0.0791293 0.026264 0)
(0.0783625 0.0263329 0)
(0.0775764 0.0264031 0)
(0.0767792 0.0264728 0)
(0.0759468 0.0265463 0)
(0.0750556 0.0266242 0)
(0.0741589 0.0267031 0)
(0.0732308 0.0267829 0)
(0.0722383 0.026871 0)
(0.0712332 0.0269576 0)
(0.0702046 0.027048 0)
(0.0691166 0.0271424 0)
(0.068014 0.0272397 0)
(0.0668821 0.0273374 0)
(0.0657182 0.0274402 0)
(0.0645526 0.0275406 0)
(0.0634027 0.0276411 0)
(0.0622867 0.0277357 0)
(0.0612163 0.0278279 0)
(0.0602913 0.0279009 0)
(0.05914 0.0280018 0)
(0.00262852 0.039529 0)
(0.00262851 0.0395297 0)
(0.00262855 0.0395291 0)
(0.00262855 0.0395297 0)
(0.00262858 0.0395291 0)
(0.00262858 0.0395297 0)
(0.0026286 0.0395291 0)
(0.0026286 0.0395296 0)
(0.00262861 0.0395292 0)
(0.00262861 0.0395296 0)
(0.00262861 0.0395292 0)
(0.00262861 0.0395296 0)
(0.00262862 0.0395292 0)
(0.00262861 0.0395296 0)
(0.00262862 0.0395292 0)
(0.00262862 0.0395295 0)
(0.00262862 0.0395293 0)
(0.00262862 0.0395295 0)
(0.00262862 0.0395293 0)
(0.00262862 0.0395295 0)
(0.00262862 0.0395293 0)
(0.00262862 0.0395295 0)
(0.00262862 0.0395293 0)
(0.00262862 0.0395295 0)
(0.00262862 0.0395293 0)
(0.00262862 0.0395294 0)
(0.00262862 0.0395293 0)
(0.00262862 0.0395294 0)
(0.00262862 0.0395294 0)
(0.00262862 0.0395294 0)
(0.00262862 0.0395294 0)
(0.00262862 0.0395294 0)
(0.00262862 0.0395294 0)
(0.00262862 0.0395294 0)
(0.00262862 0.0395294 0)
(0.00262862 0.0395294 0)
(0.00262862 0.0395294 0)
(0.00262862 0.0395294 0)
(0.00262862 0.0395294 0)
(0.00262862 0.0395294 0)
(0.00262862 0.0395294 0)
(0.00262862 0.0395294 0)
(0.00262862 0.0395294 0)
(0.00262862 0.0395294 0)
(0.00262862 0.0395294 0)
(0.00262862 0.0395294 0)
(0.00262862 0.0395294 0)
(0.00262862 0.0395294 0)
(0.00262862 0.0395294 0)
(0.00262862 0.0395294 0)
(0.00262862 0.0395294 0)
(0.00262862 0.0395294 0)
(0.00262862 0.0395294 0)
(0.00262862 0.0395294 0)
(0.00262862 0.0395294 0)
(0.00262862 0.0395294 0)
(0.00262862 0.0395294 0)
(0.00262862 0.0395294 0)
(0.00262862 0.0395294 0)
(0.00262862 0.0395294 0)
(0.00262862 0.0395294 0)
(0.00262862 0.0395294 0)
(0.00262862 0.0395294 0)
(0.00262862 0.0395294 0)
(0.00262862 0.0395294 0)
(0.00262862 0.0395294 0)
(0.00262862 0.0395294 0)
(0.00262862 0.0395294 0)
(0.00262862 0.0395294 0)
(0.00262862 0.0395294 0)
(0.00262862 0.0395294 0)
(0.00262862 0.0395294 0)
(0.00262862 0.0395294 0)
(0.00262862 0.0395294 0)
(0.00262862 0.0395294 0)
(0.00262862 0.0395294 0)
(0.00262862 0.0395294 0)
(0.00262862 0.0395294 0)
(0.00262862 0.0395294 0)
(0.00262862 0.0395294 0)
(0.00262862 0.0395294 0)
(0.00262862 0.0395294 0)
(0.00262862 0.0395294 0)
(0.00262862 0.0395294 0)
(0.00262862 0.0395294 0)
(0.00262862 0.0395294 0)
(0.00262862 0.0395294 0)
(0.00262862 0.0395294 0)
(0.00262862 0.0395294 0)
(0.00262862 0.0395294 0)
(0.00262862 0.0395294 0)
(0.00262862 0.0395294 0)
(0.00262862 0.0395294 0)
(0.00262862 0.0395294 0)
(0.00262862 0.0395294 0)
(0.00262862 0.0395294 0)
(0.00262862 0.0395294 0)
(0.00262862 0.0395294 0)
(0.00262862 0.0395294 0)
(0.00262862 0.0395294 0)
(0.00262862 0.0395294 0)
(0.00262862 0.0395294 0)
(0.00262862 0.0395294 0)
(0.00262862 0.0395294 0)
(0.00262862 0.0395294 0)
(0.00262865 0.0395292 0)
(0.00262942 0.0395207 0)
(0.00264808 0.0391756 0)
(0.00307694 0.0224588 0)
)
;

boundaryField
{
    inandouthalf11
    {
        type            cyclic;
    }
    inandouthalf12
    {
        type            cyclic;
    }
    inandouthalf21
    {
        type            cyclic;
    }
    inandouthalf22
    {
        type            cyclic;
    }
    inandouthalf31
    {
        type            cyclic;
    }
    inandouthalf32
    {
        type            cyclic;
    }
    inandouthalf41
    {
        type            cyclic;
    }
    inandouthalf42
    {
        type            cyclic;
    }
    top
    {
        type            symmetryPlane;
    }
    walls
    {
        type            calculated;
        value           uniform (0 0 0);
    }
    frontAndBackPlanes
    {
        type            empty;
    }
}


// ************************************************************************* //
