/*--------------------------------*- C++ -*----------------------------------*\
| =========                 |                                                 |
| \\      /  F ield         | OpenFOAM: The Open Source CFD Toolbox           |
|  \\    /   O peration     | Version:  2.4.x                                 |
|   \\  /    A nd           | Web:      www.OpenFOAM.org                      |
|    \\/     M anipulation  |                                                 |
\*---------------------------------------------------------------------------*/
FoamFile
{
    version     2.0;
    format      ascii;
    class       volScalarField;
    location    "3.4";
    object      alpha_0;
}
// * * * * * * * * * * * * * * * * * * * * * * * * * * * * * * * * * * * * * //

dimensions      [0 0 0 0 0 0 0];

internalField   nonuniform List<scalar> 
360
(
0.610217
0.61059
0.610746
0.610737
0.610698
0.610661
0.610623
0.610587
0.610557
0.610529
0.6105
0.61047
0.610439
0.610407
0.610375
0.61034
0.610302
0.610259
0.61021
0.610158
0.610109
0.610068
0.61004
0.610025
0.610017
0.610013
0.610011
0.610008
0.610005
0.610003
0.61
0.609996
0.609994
0.609989
0.609986
0.609981
0.609977
0.609971
0.609965
0.609959
0.609952
0.609945
0.609938
0.609929
0.60992
0.609911
0.6099
0.60989
0.609878
0.609864
0.60985
0.609835
0.60982
0.609803
0.609785
0.609765
0.609745
0.609723
0.6097
0.609677
0.609651
0.609625
0.609598
0.60957
0.609542
0.609513
0.609483
0.609452
0.60942
0.609387
0.609352
0.609316
0.609279
0.609241
0.609202
0.609161
0.60912
0.609079
0.609036
0.608992
0.608948
0.608902
0.608854
0.608806
0.608756
0.608705
0.608653
0.6086
0.608546
0.608491
0.608434
0.608376
0.608317
0.608257
0.608195
0.608132
0.608067
0.608001
0.607933
0.607863
0.607792
0.60772
0.607645
0.607569
0.607491
0.607411
0.607328
0.607244
0.607158
0.607069
0.606978
0.606884
0.606788
0.606689
0.606587
0.606482
0.606375
0.606263
0.606149
0.606031
0.605909
0.605783
0.605653
0.605519
0.60538
0.605237
0.605089
0.604935
0.604775
0.604609
0.604436
0.604257
0.604069
0.603872
0.603662
0.60344
0.603207
0.60296
0.602688
0.602375
0.602034
0.601711
0.601329
0.600832
0.600225
0.599234
0.596286
0.596344
0.594151
0.465127
0.195473
0.103849
0.0593675
0.0328241
0.0177346
0.00980049
0.00595626
0.00408462
0.00307081
0.0024436
0.00202002
0.0017151
0.00148444
0.00130319
0.00115638
0.00103453
0.000931354
0.000842517
0.000764961
0.000696466
0.000635391
0.000580505
0.000530874
0.000485778
0.000444658
0.000407065
0.000372629
0.000341036
0.000311997
0.000285241
0.000260499
0.000237493
0.000215932
0.000195511
0.000175913
0.000156826
0.000137986
0.000119247
0.000100702
8.28002e-05
6.63717e-05
5.24086e-05
4.15621e-05
3.36921e-05
2.79756e-05
2.3552e-05
1.99739e-05
1.70692e-05
1.47016e-05
1.27306e-05
1.10388e-05
9.57394e-06
8.35536e-06
7.32958e-06
6.375e-06
5.4951e-06
4.80901e-06
4.24072e-06
3.65838e-06
3.14852e-06
2.75996e-06
2.39438e-06
2.05303e-06
1.78351e-06
1.5396e-06
1.30805e-06
1.13264e-06
9.83504e-07
8.24573e-07
7.01376e-07
6.06357e-07
5.10223e-07
4.30718e-07
3.63182e-07
3.00765e-07
2.54555e-07
2.12537e-07
1.72276e-07
1.4462e-07
1.1886e-07
9.51655e-08
7.89987e-08
6.28547e-08
4.98312e-08
3.77712e-08
3.17278e-08
2.96744e-08
2.8726e-08
2.6476e-08
1.76391e-08
3.77183e-09
8.58055e-11
1.82543e-14
1.5575e-14
1.20612e-14
8.04699e-15
6.63861e-15
5.90281e-15
5.47899e-15
4.82884e-15
3.76223e-15
2.37833e-15
1.67903e-15
1.40526e-15
1.26367e-15
1.11586e-15
8.63901e-16
5.2758e-16
3.56263e-16
2.90166e-16
2.5525e-16
2.16203e-16
1.50771e-16
8.75267e-17
6.40411e-17
5.35632e-17
4.62014e-17
3.50036e-17
1.96772e-17
1.18239e-17
8.60435e-18
6.43811e-18
3.25015e-18
1.10586e-18
4.69996e-19
2.21783e-19
1.07745e-19
5.2707e-20
2.58348e-20
1.26319e-20
6.12099e-21
2.92073e-21
1.36586e-21
6.23883e-22
2.77608e-22
1.20052e-22
5.03445e-23
2.04279e-23
8.00256e-24
3.01978e-24
1.09502e-24
3.80588e-25
1.26434e-25
4.0024e-26
1.20323e-26
3.42208e-27
9.16777e-28
2.30205e-28
5.38693e-29
1.16682e-29
2.32053e-30
4.19582e-31
6.81347e-32
9.78172e-33
1.21585e-33
1.27076e-34
1.06882e-35
6.72087e-37
2.71789e-38
4.21106e-40
1.6262e-42
3.13091e-44
2.98891e-46
4.27587e-57
3.09092e-68
1.68265e-79
6.63082e-91
2.34965e-102
7.25772e-114
3.1716e-125
3.34361e-133
7.39414e-144
1.15092e-151
2.44454e-162
3.95919e-170
1.04584e-180
1.36161e-188
4.73059e-199
4.68608e-207
3.24108e-217
1.6255e-225
2.16832e-235
5.70952e-244
1.10085e-253
2.03059e-262
5.22096e-272
7.31645e-281
2.30621e-290
2.67228e-299
9.87908e-309
1.32141e-317
6.01772e-321
6.08689e-321
8.5424e-321
0
0
0
0
0
0
0
0
0
0
0
0
0
0
0
0
)
;

boundaryField
{
    inandouthalf11
    {
        type            cyclic;
    }
    inandouthalf12
    {
        type            cyclic;
    }
    inandouthalf21
    {
        type            cyclic;
    }
    inandouthalf22
    {
        type            cyclic;
    }
    inandouthalf31
    {
        type            cyclic;
    }
    inandouthalf32
    {
        type            cyclic;
    }
    inandouthalf41
    {
        type            cyclic;
    }
    inandouthalf42
    {
        type            cyclic;
    }
    top
    {
        type            symmetryPlane;
    }
    walls
    {
        type            zeroGradient;
    }
    frontAndBackPlanes
    {
        type            empty;
    }
}


// ************************************************************************* //
