/*--------------------------------*- C++ -*----------------------------------*\
| =========                 |                                                 |
| \\      /  F ield         | OpenFOAM: The Open Source CFD Toolbox           |
|  \\    /   O peration     | Version:  2.4.x                                 |
|   \\  /    A nd           | Web:      www.OpenFOAM.org                      |
|    \\/     M anipulation  |                                                 |
\*---------------------------------------------------------------------------*/
FoamFile
{
    version     2.0;
    format      ascii;
    class       surfaceScalarField;
    location    "3.4";
    object      ddt0(phia);
}
// * * * * * * * * * * * * * * * * * * * * * * * * * * * * * * * * * * * * * //

dimensions      [0 3 -2 0 0 0 0];

internalField   nonuniform List<scalar> 
359
(
6.69737e-13
2.60014e-12
4.93758e-12
7.03741e-12
8.81572e-12
1.03915e-11
1.1867e-11
1.32641e-11
1.45486e-11
1.57125e-11
1.68279e-11
1.80584e-11
1.96472e-11
2.18882e-11
2.50889e-11
2.94728e-11
3.49168e-11
4.04125e-11
4.34926e-11
4.08007e-11
3.09714e-11
1.73398e-11
5.6021e-12
-1.37306e-12
-4.47759e-12
-5.62052e-12
-6.00225e-12
-6.11594e-12
-6.12843e-12
-6.09331e-12
-6.02922e-12
-5.94587e-12
-5.85245e-12
-5.75795e-12
-5.66979e-12
-5.59147e-12
-5.52288e-12
-5.4615e-12
-5.4041e-12
-5.34802e-12
-5.2912e-12
-5.23259e-12
-5.17181e-12
-5.10875e-12
-5.04374e-12
-4.97714e-12
-4.90929e-12
-4.8405e-12
-4.77077e-12
-4.7e-12
-4.62814e-12
-4.55498e-12
-4.4803e-12
-4.4038e-12
-4.32525e-12
-4.24426e-12
-4.16066e-12
-4.07421e-12
-3.98482e-12
-3.89253e-12
-3.79732e-12
-3.69948e-12
-3.59927e-12
-3.49712e-12
-3.39331e-12
-3.28803e-12
-3.18119e-12
-3.07247e-12
-2.96138e-12
-2.84731e-12
-2.72945e-12
-2.60712e-12
-2.47997e-12
-2.34762e-12
-2.21017e-12
-2.06783e-12
-1.92118e-12
-1.77076e-12
-1.61707e-12
-1.46043e-12
-1.301e-12
-1.13868e-12
-9.73231e-13
-8.0438e-13
-6.31864e-13
-4.55549e-13
-2.75429e-13
-9.16779e-14
9.54278e-14
2.85571e-13
4.78443e-13
6.7379e-13
8.71462e-13
1.07138e-12
1.27352e-12
1.4779e-12
1.68453e-12
1.89339e-12
2.10444e-12
2.31761e-12
2.53279e-12
2.74985e-12
2.96864e-12
3.18897e-12
3.41063e-12
3.63336e-12
3.85691e-12
4.081e-12
4.30534e-12
4.52968e-12
4.75378e-12
4.97748e-12
5.20072e-12
5.42353e-12
5.64611e-12
5.8688e-12
6.09217e-12
6.317e-12
6.54427e-12
6.77522e-12
7.01129e-12
7.25408e-12
7.50532e-12
7.76675e-12
8.04001e-12
8.32655e-12
8.62744e-12
8.94327e-12
9.27391e-12
9.61825e-12
9.97411e-12
1.03383e-11
1.07074e-11
1.10779e-11
1.14464e-11
1.18071e-11
1.21513e-11
1.24696e-11
1.27528e-11
1.29892e-11
1.31622e-11
1.32604e-11
1.33062e-11
1.33247e-11
1.3332e-11
1.33237e-11
2.09673e-11
2.87731e-11
2.10158e-10
1.86557e-08
1.80618e-08
2.50391e-08
4.60588e-08
8.62598e-08
1.48488e-07
2.02911e-07
2.26472e-07
2.25227e-07
2.17621e-07
2.07407e-07
1.95997e-07
1.84404e-07
1.72963e-07
1.61857e-07
1.51188e-07
1.41014e-07
1.3136e-07
1.22238e-07
1.13644e-07
1.05571e-07
9.80099e-08
9.09491e-08
8.43777e-08
7.82823e-08
7.26453e-08
6.74425e-08
6.26405e-08
5.81946e-08
5.40476e-08
5.01297e-08
4.63587e-08
4.26413e-08
3.88754e-08
3.49549e-08
3.07777e-08
2.62604e-08
2.13619e-08
1.61171e-08
1.06717e-08
5.29857e-09
3.67426e-10
-3.7547e-09
-6.87012e-09
-9.08126e-09
-1.06921e-08
-1.19504e-08
-1.29518e-08
-1.37374e-08
-1.43546e-08
-1.48571e-08
-1.5285e-08
-1.56252e-08
-1.58424e-08
-1.5997e-08
-1.61764e-08
-1.62974e-08
-1.62568e-08
-1.62077e-08
-1.62257e-08
-1.61367e-08
-1.59548e-08
-1.58243e-08
-1.56587e-08
-1.54094e-08
-1.52057e-08
-1.49968e-08
-1.46768e-08
-1.44126e-08
-1.42516e-08
-1.40185e-08
-1.38133e-08
-1.37441e-08
-1.37506e-08
-1.39149e-08
-1.42296e-08
-1.4568e-08
-1.49561e-08
-1.53604e-08
-1.57386e-08
-1.61548e-08
-1.658e-08
-1.69949e-08
-1.74826e-08
-1.80826e-08
-1.85472e-08
-1.8384e-08
-1.77005e-08
-1.68601e-08
-1.62219e-08
-1.63475e-08
-8.38401e-09
-2.91337e-10
-3.26273e-10
-3.22201e-10
-3.22373e-10
-3.2237e-10
-3.22369e-10
-3.22358e-10
-3.22362e-10
-3.22351e-10
-3.22357e-10
-3.22347e-10
-3.22353e-10
-3.22345e-10
-3.22351e-10
-3.22343e-10
-3.2235e-10
-3.22343e-10
-3.22349e-10
-3.22343e-10
-3.22349e-10
-3.22343e-10
-3.22349e-10
-3.22343e-10
-3.22349e-10
-3.22343e-10
-3.22349e-10
-3.22345e-10
-3.22347e-10
-3.22345e-10
-3.22348e-10
-3.22345e-10
-3.22347e-10
-3.22346e-10
-3.22347e-10
-3.22346e-10
-3.22347e-10
-3.22347e-10
-3.22346e-10
-3.22347e-10
-3.22346e-10
-3.22348e-10
-3.22346e-10
-3.22349e-10
-3.22345e-10
-3.22349e-10
-3.22344e-10
-3.2235e-10
-3.22344e-10
-3.22351e-10
-3.22343e-10
-3.22351e-10
-3.22342e-10
-3.22352e-10
-3.22342e-10
-3.22353e-10
-3.22341e-10
-3.22354e-10
-3.22341e-10
-3.22354e-10
-3.2234e-10
-3.22355e-10
-3.2234e-10
-3.22356e-10
-3.22339e-10
-3.22356e-10
-3.22339e-10
-3.22357e-10
-3.22338e-10
-3.22357e-10
-3.22339e-10
-3.22356e-10
-3.2234e-10
-3.22355e-10
-3.22342e-10
-3.22349e-10
-3.22345e-10
-3.22352e-10
-3.22344e-10
-3.22352e-10
-3.22344e-10
-3.22352e-10
-3.22344e-10
-3.22352e-10
-3.22344e-10
-3.22352e-10
-3.22345e-10
-3.22353e-10
-3.22346e-10
-3.22355e-10
-3.2235e-10
-3.22358e-10
-3.22353e-10
-3.22361e-10
-3.22355e-10
-3.22362e-10
-3.22358e-10
-3.22365e-10
-3.2236e-10
-3.22365e-10
-3.2236e-10
-3.22365e-10
-3.22359e-10
-3.22362e-10
-3.22358e-10
-3.22362e-10
-3.22358e-10
-3.22358e-10
-3.22354e-10
-3.22353e-10
-3.22346e-10
-3.22342e-10
-3.22334e-10
-3.22329e-10
-3.22321e-10
-3.22322e-10
-3.2248e-10
-3.26178e-10
-4.95922e-10
)
;

boundaryField
{
    inandouthalf11
    {
        type            cyclic;
        value           nonuniform List<scalar> 
100
(
1.65487e-39
-7.1518e-14
-2.15415e-13
-3.59291e-13
-4.8068e-13
-5.83362e-13
-6.74237e-13
-7.57047e-13
-8.31304e-13
-8.956e-13
-9.52077e-13
-1.00837e-12
-1.07714e-12
-1.17462e-12
-1.31847e-12
-1.52402e-12
-1.7945e-12
-2.09797e-12
-2.3299e-12
-2.30022e-12
-1.84131e-12
-1.03026e-12
-2.10255e-13
3.35738e-13
5.97029e-13
6.97163e-13
7.31498e-13
7.42353e-13
7.44479e-13
7.42579e-13
7.38119e-13
7.3168e-13
7.23807e-13
7.15221e-13
7.06677e-13
6.98719e-13
6.91541e-13
6.85035e-13
6.78932e-13
6.72943e-13
6.6683e-13
6.60432e-13
6.53664e-13
6.46496e-13
6.38935e-13
6.31014e-13
6.22775e-13
6.14254e-13
6.05468e-13
5.96412e-13
5.87073e-13
5.77432e-13
5.6746e-13
5.57119e-13
5.46367e-13
5.35159e-13
5.23451e-13
5.11209e-13
4.98404e-13
4.85027e-13
4.71076e-13
4.56566e-13
4.41535e-13
4.26033e-13
4.10112e-13
3.93808e-13
3.77125e-13
3.60031e-13
3.42459e-13
3.24315e-13
3.05481e-13
2.85832e-13
2.65273e-13
2.43739e-13
2.21199e-13
1.97669e-13
1.73214e-13
1.47923e-13
1.21883e-13
9.51614e-14
6.77967e-14
3.97912e-14
1.11133e-14
-1.8287e-14
-4.8462e-14
-7.94523e-14
-1.11276e-13
-1.43924e-13
-1.77362e-13
-2.1154e-13
-2.46406e-13
-2.81913e-13
-3.18028e-13
-3.54736e-13
-3.92033e-13
-4.29923e-13
-4.68415e-13
-5.07515e-13
-5.47226e-13
-5.87545e-13
)
;
    }
    inandouthalf12
    {
        type            cyclic;
        value           nonuniform List<scalar> 
100
(
-1.65487e-39
7.1518e-14
2.15415e-13
3.59291e-13
4.8068e-13
5.83362e-13
6.74237e-13
7.57047e-13
8.31304e-13
8.956e-13
9.52077e-13
1.00837e-12
1.07714e-12
1.17462e-12
1.31847e-12
1.52402e-12
1.7945e-12
2.09797e-12
2.3299e-12
2.30022e-12
1.84131e-12
1.03026e-12
2.10255e-13
-3.35738e-13
-5.97029e-13
-6.97163e-13
-7.31498e-13
-7.42353e-13
-7.44479e-13
-7.42579e-13
-7.38119e-13
-7.3168e-13
-7.23807e-13
-7.15221e-13
-7.06677e-13
-6.98719e-13
-6.91541e-13
-6.85035e-13
-6.78932e-13
-6.72943e-13
-6.6683e-13
-6.60432e-13
-6.53664e-13
-6.46496e-13
-6.38935e-13
-6.31014e-13
-6.22775e-13
-6.14254e-13
-6.05468e-13
-5.96412e-13
-5.87073e-13
-5.77432e-13
-5.6746e-13
-5.57119e-13
-5.46367e-13
-5.35159e-13
-5.23451e-13
-5.11209e-13
-4.98404e-13
-4.85027e-13
-4.71076e-13
-4.56566e-13
-4.41535e-13
-4.26033e-13
-4.10112e-13
-3.93808e-13
-3.77125e-13
-3.60031e-13
-3.42459e-13
-3.24315e-13
-3.05481e-13
-2.85832e-13
-2.65273e-13
-2.43739e-13
-2.21199e-13
-1.97669e-13
-1.73214e-13
-1.47923e-13
-1.21883e-13
-9.51614e-14
-6.77967e-14
-3.97912e-14
-1.11133e-14
1.8287e-14
4.8462e-14
7.94523e-14
1.11276e-13
1.43924e-13
1.77362e-13
2.1154e-13
2.46406e-13
2.81913e-13
3.18028e-13
3.54736e-13
3.92033e-13
4.29923e-13
4.68415e-13
5.07515e-13
5.47226e-13
5.87545e-13
)
;
    }
    inandouthalf21
    {
        type            cyclic;
        value           nonuniform List<scalar> 
100
(
-6.28463e-13
-6.69968e-13
-7.12039e-13
-7.54652e-13
-7.97779e-13
-8.41381e-13
-8.85419e-13
-9.29847e-13
-9.74615e-13
-1.01968e-12
-1.06499e-12
-1.11053e-12
-1.15627e-12
-1.20223e-12
-1.24843e-12
-1.29494e-12
-1.34189e-12
-1.38944e-12
-1.4378e-12
-1.48727e-12
-1.53819e-12
-1.59097e-12
-1.64609e-12
-1.70406e-12
-1.76544e-12
-1.83079e-12
-1.90067e-12
-1.97557e-12
-2.05591e-12
-2.14194e-12
-2.23368e-12
-2.3309e-12
-2.43318e-12
-2.54008e-12
-2.65107e-12
-2.76518e-12
-2.88055e-12
-2.99447e-12
-3.1036e-12
-3.203e-12
-3.28449e-12
-3.34e-12
-3.37041e-12
-3.38425e-12
-3.39021e-12
-3.39411e-12
-3.40081e-12
-7.26389e-12
-2.90345e-11
1.21205e-07
2.26179e-07
2.1984e-07
2.94132e-07
3.97564e-07
5.00524e-07
5.82525e-07
6.40732e-07
6.8317e-07
7.16128e-07
7.42892e-07
7.65331e-07
7.84618e-07
8.01529e-07
8.16597e-07
8.30207e-07
8.42641e-07
8.54114e-07
8.6479e-07
8.74798e-07
8.84238e-07
8.93189e-07
9.01713e-07
9.09858e-07
9.17663e-07
9.25156e-07
9.32361e-07
9.39293e-07
9.45967e-07
9.52391e-07
9.58572e-07
9.64515e-07
9.70223e-07
9.75699e-07
9.80942e-07
9.8595e-07
9.90718e-07
9.95235e-07
9.99487e-07
1.00345e-06
1.00709e-06
1.01039e-06
1.01336e-06
1.01606e-06
1.01859e-06
1.02102e-06
1.02334e-06
1.02553e-06
1.0276e-06
1.02957e-06
1.03143e-06
)
;
    }
    inandouthalf22
    {
        type            cyclic;
        value           nonuniform List<scalar> 
100
(
6.28463e-13
6.69968e-13
7.12039e-13
7.54652e-13
7.97779e-13
8.41381e-13
8.85419e-13
9.29847e-13
9.74615e-13
1.01968e-12
1.06499e-12
1.11053e-12
1.15627e-12
1.20223e-12
1.24843e-12
1.29494e-12
1.34189e-12
1.38944e-12
1.4378e-12
1.48727e-12
1.53819e-12
1.59097e-12
1.64609e-12
1.70406e-12
1.76544e-12
1.83079e-12
1.90067e-12
1.97557e-12
2.05591e-12
2.14194e-12
2.23368e-12
2.3309e-12
2.43318e-12
2.54008e-12
2.65107e-12
2.76518e-12
2.88055e-12
2.99447e-12
3.1036e-12
3.203e-12
3.28449e-12
3.34e-12
3.37041e-12
3.38425e-12
3.39021e-12
3.39411e-12
3.40081e-12
7.26389e-12
2.90345e-11
-1.21205e-07
-2.26179e-07
-2.1984e-07
-2.94132e-07
-3.97564e-07
-5.00524e-07
-5.82525e-07
-6.40732e-07
-6.8317e-07
-7.16128e-07
-7.42892e-07
-7.65331e-07
-7.84618e-07
-8.01529e-07
-8.16597e-07
-8.30207e-07
-8.42641e-07
-8.54114e-07
-8.6479e-07
-8.74798e-07
-8.84238e-07
-8.93189e-07
-9.01713e-07
-9.09858e-07
-9.17663e-07
-9.25156e-07
-9.32361e-07
-9.39293e-07
-9.45967e-07
-9.52391e-07
-9.58572e-07
-9.64515e-07
-9.70223e-07
-9.75699e-07
-9.80942e-07
-9.8595e-07
-9.90718e-07
-9.95235e-07
-9.99487e-07
-1.00345e-06
-1.00709e-06
-1.01039e-06
-1.01336e-06
-1.01606e-06
-1.01859e-06
-1.02102e-06
-1.02334e-06
-1.02553e-06
-1.0276e-06
-1.02957e-06
-1.03143e-06
)
;
    }
    inandouthalf31
    {
        type            cyclic;
        value           nonuniform List<scalar> 
110
(
1.03318e-06
1.05584e-06
1.07896e-06
1.10256e-06
1.12654e-06
1.15095e-06
1.17592e-06
1.20143e-06
1.22731e-06
1.25367e-06
1.28065e-06
1.30813e-06
1.33607e-06
1.36462e-06
1.39368e-06
1.42323e-06
1.45347e-06
1.4843e-06
1.51546e-06
1.54722e-06
1.5797e-06
1.6126e-06
1.64594e-06
1.67975e-06
1.71399e-06
1.74893e-06
1.78446e-06
1.82046e-06
1.85731e-06
1.89482e-06
1.93281e-06
1.97162e-06
2.01099e-06
2.05053e-06
2.09036e-06
2.13279e-06
2.17896e-06
2.22716e-06
2.27611e-06
2.32362e-06
2.36966e-06
2.41533e-06
2.4646e-06
2.51459e-06
2.56563e-06
2.61771e-06
2.67084e-06
2.72505e-06
2.78036e-06
2.8368e-06
2.89438e-06
2.95313e-06
3.01307e-06
3.07422e-06
3.13662e-06
3.20029e-06
3.26524e-06
3.33152e-06
3.39914e-06
3.46813e-06
3.53853e-06
3.61035e-06
3.68363e-06
3.7584e-06
3.83468e-06
3.91252e-06
3.99193e-06
4.07296e-06
4.15563e-06
4.23998e-06
4.32604e-06
4.41384e-06
4.50343e-06
4.59484e-06
4.6881e-06
4.78326e-06
4.88035e-06
4.9794e-06
5.08047e-06
5.18359e-06
5.28881e-06
5.39616e-06
5.50568e-06
5.61743e-06
5.73145e-06
5.84779e-06
5.96648e-06
6.08758e-06
6.21115e-06
6.33722e-06
6.46584e-06
6.59708e-06
6.73099e-06
6.86761e-06
7.007e-06
7.14922e-06
7.29434e-06
7.44239e-06
7.59345e-06
7.74758e-06
7.90483e-06
8.06528e-06
8.22898e-06
8.39601e-06
8.56643e-06
8.7403e-06
8.91771e-06
9.09871e-06
9.28339e-06
9.47182e-06
)
;
    }
    inandouthalf32
    {
        type            cyclic;
        value           nonuniform List<scalar> 
110
(
-1.03318e-06
-1.05584e-06
-1.07896e-06
-1.10256e-06
-1.12654e-06
-1.15095e-06
-1.17592e-06
-1.20143e-06
-1.22731e-06
-1.25367e-06
-1.28065e-06
-1.30813e-06
-1.33607e-06
-1.36462e-06
-1.39368e-06
-1.42323e-06
-1.45347e-06
-1.4843e-06
-1.51546e-06
-1.54722e-06
-1.5797e-06
-1.6126e-06
-1.64594e-06
-1.67975e-06
-1.71399e-06
-1.74893e-06
-1.78446e-06
-1.82046e-06
-1.85731e-06
-1.89482e-06
-1.93281e-06
-1.97162e-06
-2.01099e-06
-2.05053e-06
-2.09036e-06
-2.13279e-06
-2.17896e-06
-2.22716e-06
-2.27611e-06
-2.32362e-06
-2.36966e-06
-2.41533e-06
-2.4646e-06
-2.51459e-06
-2.56563e-06
-2.61771e-06
-2.67084e-06
-2.72505e-06
-2.78036e-06
-2.8368e-06
-2.89438e-06
-2.95313e-06
-3.01307e-06
-3.07422e-06
-3.13662e-06
-3.20029e-06
-3.26524e-06
-3.33152e-06
-3.39914e-06
-3.46813e-06
-3.53853e-06
-3.61035e-06
-3.68363e-06
-3.7584e-06
-3.83468e-06
-3.91252e-06
-3.99193e-06
-4.07296e-06
-4.15563e-06
-4.23998e-06
-4.32604e-06
-4.41384e-06
-4.50343e-06
-4.59484e-06
-4.6881e-06
-4.78326e-06
-4.88035e-06
-4.9794e-06
-5.08047e-06
-5.18359e-06
-5.28881e-06
-5.39616e-06
-5.50568e-06
-5.61743e-06
-5.73145e-06
-5.84779e-06
-5.96648e-06
-6.08758e-06
-6.21115e-06
-6.33722e-06
-6.46584e-06
-6.59708e-06
-6.73099e-06
-6.86761e-06
-7.007e-06
-7.14922e-06
-7.29434e-06
-7.44239e-06
-7.59345e-06
-7.74758e-06
-7.90483e-06
-8.06528e-06
-8.22898e-06
-8.39601e-06
-8.56643e-06
-8.7403e-06
-8.91771e-06
-9.09871e-06
-9.28339e-06
-9.47182e-06
)
;
    }
    inandouthalf41
    {
        type            cyclic;
        value           nonuniform List<scalar> 
50
(
8.47825e-06
8.47825e-06
8.47825e-06
8.47825e-06
8.47825e-06
8.47825e-06
8.47825e-06
8.47825e-06
8.47825e-06
8.47825e-06
8.47825e-06
8.47825e-06
8.47825e-06
8.47825e-06
8.47825e-06
8.47825e-06
8.47825e-06
8.47825e-06
8.47825e-06
8.47825e-06
8.47825e-06
8.47825e-06
8.47825e-06
8.47825e-06
8.47825e-06
8.47825e-06
8.47825e-06
8.47825e-06
8.47825e-06
8.47825e-06
8.47825e-06
8.47825e-06
8.47825e-06
8.47825e-06
8.47825e-06
8.47825e-06
8.47825e-06
8.47825e-06
8.47825e-06
8.47825e-06
8.47825e-06
8.47825e-06
8.47825e-06
8.47825e-06
8.47825e-06
8.47825e-06
8.47825e-06
8.47825e-06
8.47842e-06
8.48229e-06
)
;
    }
    inandouthalf42
    {
        type            cyclic;
        value           nonuniform List<scalar> 
50
(
-8.47825e-06
-8.47825e-06
-8.47825e-06
-8.47825e-06
-8.47825e-06
-8.47825e-06
-8.47825e-06
-8.47825e-06
-8.47825e-06
-8.47825e-06
-8.47825e-06
-8.47825e-06
-8.47825e-06
-8.47825e-06
-8.47825e-06
-8.47825e-06
-8.47825e-06
-8.47825e-06
-8.47825e-06
-8.47825e-06
-8.47825e-06
-8.47825e-06
-8.47825e-06
-8.47825e-06
-8.47825e-06
-8.47825e-06
-8.47825e-06
-8.47825e-06
-8.47825e-06
-8.47825e-06
-8.47825e-06
-8.47825e-06
-8.47825e-06
-8.47825e-06
-8.47825e-06
-8.47825e-06
-8.47825e-06
-8.47825e-06
-8.47825e-06
-8.47825e-06
-8.47825e-06
-8.47825e-06
-8.47825e-06
-8.47825e-06
-8.47825e-06
-8.47825e-06
-8.47825e-06
-8.47825e-06
-8.47842e-06
-8.48229e-06
)
;
    }
    top
    {
        type            symmetryPlane;
        value           uniform 0;
    }
    walls
    {
        type            calculated;
        value           uniform 0;
    }
    frontAndBackPlanes
    {
        type            empty;
        value           nonuniform 0();
    }
}


// ************************************************************************* //
