/*--------------------------------*- C++ -*----------------------------------*\
| =========                 |                                                 |
| \\      /  F ield         | OpenFOAM: The Open Source CFD Toolbox           |
|  \\    /   O peration     | Version:  2.4.x                                 |
|   \\  /    A nd           | Web:      www.OpenFOAM.org                      |
|    \\/     M anipulation  |                                                 |
\*---------------------------------------------------------------------------*/
FoamFile
{
    version     2.0;
    format      ascii;
    class       volScalarField;
    location    "3.4";
    object      ddt0(k);
}
// * * * * * * * * * * * * * * * * * * * * * * * * * * * * * * * * * * * * * //

dimensions      [0 2 -3 0 0 0 0];

internalField   nonuniform List<scalar> 
360
(
0
0
0
0
0
0
0
0
0
0
0
0
0
0
0
0
0
0
0
0
0
0
0
0
0
0
0
0
0
0
0
0
0
0
0
0
0
0
0
0
0
0
0
0
0
0
0
0
0
0
0
0
0
0
0
0
0
0
0
0
0
0
0
0
0
0
0
0
0
0
0
0
0
0
0
0
0
0
0
0
0
0
0
0
0
0
0
0
0
0
0
0
0
0
0
0
0
0
0
0
0
0
0
0
0
0
0
0
0
0
0
0
0
0
0
0
0
0
0
0
0
0
0
0
0
0
0
0
-2.7393e-21
-4.49222e-20
-2.97617e-19
-1.4633e-18
-6.02069e-18
-2.15723e-17
-6.83249e-17
-1.9181e-16
-4.74272e-16
-1.0188e-15
-1.86586e-15
-2.82152e-15
-3.14941e-15
-9.75246e-16
1.65137e-14
4.24789e-13
1.17264e-11
3.74374e-10
1.4168e-08
6.36142e-07
3.44356e-05
0.00171564
0.0093335
0.00804537
0.00930817
0.00890071
0.00693542
0.00425703
0.00186744
0.000140025
-0.00103448
-0.00185369
-0.00245978
-0.00293704
-0.00333258
-0.00367235
-0.00397077
-0.00423592
-0.00447242
-0.00468296
-0.00486917
-0.0050321
-0.00517253
-0.00529107
-0.00538829
-0.00546473
-0.00552094
-0.0055575
-0.00557499
-0.005574
-0.00555513
-0.00551898
-0.00546615
-0.00539722
-0.00531277
-0.00521337
-0.00509958
-0.00497195
-0.00483101
-0.00467731
-0.00451141
-0.00433389
-0.00414536
-0.00394639
-0.00373752
-0.0035192
-0.00329179
-0.00305567
-0.00281125
-0.00255898
-0.00229932
-0.00203276
-0.00175978
-0.00147805
-0.00118495
-0.000880623
-0.000565314
-0.000239378
9.6687e-05
0.000442223
0.000796367
0.00115799
0.00152562
0.00189739
0.00227089
0.00264302
0.00300974
0.0033658
0.00370424
0.00401572
0.00428739
0.00450107
0.00462932
0.00462583
0.00440569
0.00390089
0.0016523
0.00010843
1.6342e-06
2.03828e-08
2.41524e-10
2.72625e-12
2.93158e-14
3.00276e-16
2.92083e-18
1.7167e-20
0
0
0
0
0
0
0
0
0
0
0
0
0
0
0
0
0
0
0
0
0
0
0
0
0
0
0
0
0
0
0
0
0
0
0
0
0
0
0
0
0
0
0
0
0
0
0
0
0
0
0
0
0
0
0
0
0
0
0
0
0
0
0
0
0
0
0
0
0
0
0
0
0
0
0
0
0
0
0
0
0
0
0
0
0
0
0
0
0
0
0
0
0
0
0
0
0
0
0
0
0
0
0
0
0
0
0
0
0
0
0
0
0
0
0
0
0
0
0
0
0
0
0
0
0
0
)
;

boundaryField
{
    inandouthalf11
    {
        type            cyclic;
    }
    inandouthalf12
    {
        type            cyclic;
    }
    inandouthalf21
    {
        type            cyclic;
    }
    inandouthalf22
    {
        type            cyclic;
    }
    inandouthalf31
    {
        type            cyclic;
    }
    inandouthalf32
    {
        type            cyclic;
    }
    inandouthalf41
    {
        type            cyclic;
    }
    inandouthalf42
    {
        type            cyclic;
    }
    top
    {
        type            symmetryPlane;
    }
    walls
    {
        type            calculated;
        value           uniform 0;
    }
    frontAndBackPlanes
    {
        type            empty;
    }
}


// ************************************************************************* //
