/*--------------------------------*- C++ -*----------------------------------*\
| =========                 |                                                 |
| \\      /  F ield         | OpenFOAM: The Open Source CFD Toolbox           |
|  \\    /   O peration     | Version:  2.4.x                                 |
|   \\  /    A nd           | Web:      www.OpenFOAM.org                      |
|    \\/     M anipulation  |                                                 |
\*---------------------------------------------------------------------------*/
FoamFile
{
    version     2.0;
    format      ascii;
    class       volVectorField;
    location    "3.4";
    object      ddt0(Ua);
}
// * * * * * * * * * * * * * * * * * * * * * * * * * * * * * * * * * * * * * //

dimensions      [0 1 -2 0 0 0 0];

internalField   nonuniform List<vector> 
360
(
(-1.65487e-33 -1.39473e-32 0)
(7.1518e-08 3.36574e-07 0)
(2.15415e-07 9.5201e-07 0)
(3.59291e-07 1.52244e-06 0)
(4.8068e-07 1.9988e-06 0)
(5.83362e-07 2.40974e-06 0)
(6.74237e-07 2.78715e-06 0)
(7.57047e-07 3.14712e-06 0)
(8.31304e-07 3.48458e-06 0)
(8.956e-07 3.78919e-06 0)
(9.52077e-07 4.06668e-06 0)
(1.00837e-06 4.34693e-06 0)
(1.07714e-06 4.68211e-06 0)
(1.17462e-06 5.14112e-06 0)
(1.31847e-06 5.80237e-06 0)
(1.52402e-06 6.74146e-06 0)
(1.7945e-06 7.99517e-06 0)
(2.09797e-06 9.46619e-06 0)
(2.3299e-06 1.07468e-05 0)
(2.30022e-06 1.10047e-05 0)
(1.84131e-06 9.38881e-06 0)
(1.03026e-06 6.08447e-06 0)
(2.10255e-07 2.58416e-06 0)
(-3.35738e-07 2.21478e-07 0)
(-5.97029e-07 -9.05532e-07 0)
(-6.97163e-07 -1.33265e-06 0)
(-7.31498e-07 -1.47749e-06 0)
(-7.42353e-07 -1.52362e-06 0)
(-7.44479e-07 -1.53434e-06 0)
(-7.42579e-07 -1.52987e-06 0)
(-7.38119e-07 -1.51679e-06 0)
(-7.3168e-07 -1.49782e-06 0)
(-7.23807e-07 -1.47513e-06 0)
(-7.15221e-07 -1.45108e-06 0)
(-7.06677e-07 -1.4279e-06 0)
(-6.98719e-07 -1.407e-06 0)
(-6.91541e-07 -1.38874e-06 0)
(-6.85035e-07 -1.3727e-06 0)
(-6.78932e-07 -1.35805e-06 0)
(-6.72943e-07 -1.34401e-06 0)
(-6.6683e-07 -1.32999e-06 0)
(-6.60432e-07 -1.31561e-06 0)
(-6.53664e-07 -1.30069e-06 0)
(-6.46496e-07 -1.2852e-06 0)
(-6.38935e-07 -1.26917e-06 0)
(-6.31014e-07 -1.2527e-06 0)
(-6.22775e-07 -1.23587e-06 0)
(-6.14254e-07 -1.21878e-06 0)
(-6.05468e-07 -1.20147e-06 0)
(-5.96412e-07 -1.18391e-06 0)
(-5.87073e-07 -1.16609e-06 0)
(-5.77432e-07 -1.14798e-06 0)
(-5.6746e-07 -1.12951e-06 0)
(-5.57119e-07 -1.11063e-06 0)
(-5.46367e-07 -1.09127e-06 0)
(-5.35159e-07 -1.07135e-06 0)
(-5.23451e-07 -1.05079e-06 0)
(-5.11209e-07 -1.02954e-06 0)
(-4.98404e-07 -1.00756e-06 0)
(-4.85027e-07 -9.84853e-07 0)
(-4.71076e-07 -9.61406e-07 0)
(-4.56566e-07 -9.37257e-07 0)
(-4.41535e-07 -9.12479e-07 0)
(-4.26033e-07 -8.87159e-07 0)
(-4.10112e-07 -8.61397e-07 0)
(-3.93808e-07 -8.35259e-07 0)
(-3.77125e-07 -8.08757e-07 0)
(-3.60031e-07 -7.81836e-07 0)
(-3.42459e-07 -7.54397e-07 0)
(-3.24315e-07 -7.26299e-07 0)
(-3.05481e-07 -6.97354e-07 0)
(-2.85832e-07 -6.67366e-07 0)
(-2.65273e-07 -6.36202e-07 0)
(-2.43739e-07 -6.03774e-07 0)
(-2.21199e-07 -5.70041e-07 0)
(-1.97669e-07 -5.3504e-07 0)
(-1.73214e-07 -4.98878e-07 0)
(-1.47923e-07 -4.6171e-07 0)
(-1.21883e-07 -4.23671e-07 0)
(-9.51614e-08 -3.84864e-07 0)
(-6.77967e-08 -3.45354e-07 0)
(-3.97912e-08 -3.05146e-07 0)
(-1.11133e-08 -2.64192e-07 0)
(1.8287e-08 -2.22423e-07 0)
(4.8462e-08 -1.79766e-07 0)
(7.94523e-08 -1.36166e-07 0)
(1.11276e-07 -9.16065e-08 0)
(1.43924e-07 -4.6108e-08 0)
(1.77362e-07 2.68687e-10 0)
(2.1154e-07 4.74453e-08 0)
(2.46406e-07 9.53402e-08 0)
(2.81913e-07 1.4388e-07 0)
(3.18028e-07 1.93015e-07 0)
(3.54736e-07 2.42716e-07 0)
(3.92033e-07 2.92974e-07 0)
(4.29923e-07 3.43788e-07 0)
(4.68415e-07 3.95164e-07 0)
(5.07515e-07 4.47101e-07 0)
(5.47226e-07 4.99594e-07 0)
(5.87545e-07 5.52626e-07 0)
(6.28463e-07 6.06177e-07 0)
(6.69968e-07 6.60216e-07 0)
(7.12039e-07 7.14709e-07 0)
(7.54652e-07 7.69611e-07 0)
(7.97779e-07 8.24874e-07 0)
(8.41381e-07 8.80439e-07 0)
(8.85419e-07 9.36242e-07 0)
(9.29847e-07 9.92215e-07 0)
(9.74615e-07 1.04829e-06 0)
(1.01968e-06 1.10439e-06 0)
(1.06499e-06 1.16045e-06 0)
(1.11053e-06 1.21644e-06 0)
(1.15627e-06 1.27231e-06 0)
(1.20223e-06 1.32805e-06 0)
(1.24843e-06 1.38371e-06 0)
(1.29494e-06 1.43934e-06 0)
(1.34189e-06 1.49506e-06 0)
(1.38944e-06 1.55103e-06 0)
(1.4378e-06 1.60747e-06 0)
(1.48727e-06 1.66466e-06 0)
(1.53819e-06 1.72295e-06 0)
(1.59097e-06 1.7827e-06 0)
(1.64609e-06 1.84434e-06 0)
(1.70406e-06 1.90832e-06 0)
(1.76544e-06 1.97506e-06 0)
(1.83079e-06 2.04495e-06 0)
(1.90067e-06 2.11832e-06 0)
(1.97557e-06 2.1954e-06 0)
(2.05591e-06 2.27624e-06 0)
(2.14194e-06 2.36072e-06 0)
(2.23368e-06 2.44842e-06 0)
(2.3309e-06 2.53863e-06 0)
(2.43318e-06 2.6305e-06 0)
(2.54008e-06 2.72316e-06 0)
(2.65107e-06 2.81583e-06 0)
(2.76518e-06 2.90742e-06 0)
(2.88055e-06 2.99607e-06 0)
(2.99447e-06 3.07939e-06 0)
(3.1036e-06 3.15525e-06 0)
(3.203e-06 3.22142e-06 0)
(3.28449e-06 3.27363e-06 0)
(3.34e-06 3.30687e-06 0)
(3.37041e-06 3.32329e-06 0)
(3.38425e-06 3.32997e-06 0)
(3.39021e-06 3.33226e-06 0)
(3.39411e-06 3.33304e-06 0)
(3.40081e-06 3.33645e-06 0)
(7.26389e-06 5.76748e-06 0)
(2.90345e-05 7.91433e-06 0)
(-0.121205 0.000494748 0)
(-0.226179 0.00631592 0)
(-0.21984 0.00446125 0)
(-0.294132 0.00778067 0)
(-0.397564 0.0157488 0)
(-0.500524 0.029345 0)
(-0.582525 0.0450181 0)
(-0.640732 0.0548769 0)
(-0.68317 0.0572025 0)
(-0.716128 0.0557883 0)
(-0.742892 0.0532843 0)
(-0.765331 0.050469 0)
(-0.784618 0.0475562 0)
(-0.801529 0.0446577 0)
(-0.816597 0.0418292 0)
(-0.830207 0.039102 0)
(-0.842641 0.0364938 0)
(-0.854114 0.0340141 0)
(-0.86479 0.0316669 0)
(-0.874798 0.0294526 0)
(-0.884238 0.0273698 0)
(-0.893189 0.0254162 0)
(-0.901713 0.0235892 0)
(-0.909858 0.021886 0)
(-0.917663 0.0203037 0)
(-0.925156 0.0188385 0)
(-0.932361 0.0174855 0)
(-0.939293 0.0162374 0)
(-0.945967 0.0150846 0)
(-0.952391 0.0140145 0)
(-0.958572 0.0130112 0)
(-0.964515 0.0120555 0)
(-0.970223 0.0111255 0)
(-0.975699 0.0101966 0)
(-0.980942 0.00924215 0)
(-0.98595 0.00823544 0)
(-0.990718 0.0071519 0)
(-0.995235 0.00597397 0)
(-0.999487 0.00469854 0)
(-1.00345 0.00334677 0)
(-1.00709 0.00197315 0)
(-1.01039 0.000665603 0)
(-1.01336 -0.000474938 0)
(-1.01606 -0.00137689 0)
(-1.01859 -0.0020346 0)
(-1.02102 -0.00250286 0)
(-1.02334 -0.00285224 0)
(-1.02553 -0.00312781 0)
(-1.0276 -0.00334713 0)
(-1.02957 -0.00352003 0)
(-1.03143 -0.00365864 0)
(-1.03318 -0.00377414 0)
(-1.03483 -0.00386896 0)
(-1.03646 -0.00393752 0)
(-1.03805 -0.00398412 0)
(-1.03953 -0.00402578 0)
(-1.04093 -0.00406199 0)
(-1.04235 -0.00407206 0)
(-1.04378 -0.00406148 0)
(-1.04505 -0.00405609 0)
(-1.04626 -0.00404664 0)
(-1.04751 -0.00401414 0)
(-1.04871 -0.00397437 0)
(-1.0498 -0.00393599 0)
(-1.0509 -0.00388454 0)
(-1.05193 -0.0038281 0)
(-1.05286 -0.0037763 0)
(-1.05385 -0.00370922 0)
(-1.05479 -0.00363415 0)
(-1.05551 -0.00358136 0)
(-1.05619 -0.0035329 0)
(-1.05691 -0.00347496 0)
(-1.05746 -0.00343822 0)
(-1.05785 -0.00342951 0)
(-1.0581 -0.00345059 0)
(-1.05819 -0.00351373 0)
(-1.05828 -0.00359587 0)
(-1.0583 -0.00368654 0)
(-1.05818 -0.00379195 0)
(-1.05812 -0.00388806 0)
(-1.05801 -0.00398365 0)
(-1.05775 -0.0040943 0)
(-1.05753 -0.00419605 0)
(-1.05719 -0.0043033 0)
(-1.05653 -0.00443949 0)
(-1.05563 -0.00460558 0)
(-1.05562 -0.00466375 0)
(-1.05702 -0.00452832 0)
(-1.05891 -0.00431926 0)
(-1.06066 -0.00410725 0)
(-1.06126 -0.00401838 0)
(-1.06075 -0.00412479 0)
(-1.05969 -6.32985e-05 0)
(-1.05979 -8.26042e-05 0)
(-1.05978 -8.05113e-05 0)
(-1.05978 -8.05916e-05 0)
(-1.05978 -8.05929e-05 0)
(-1.05978 -8.05939e-05 0)
(-1.05978 -8.05887e-05 0)
(-1.05978 -8.05921e-05 0)
(-1.05978 -8.05868e-05 0)
(-1.05978 -8.05908e-05 0)
(-1.05978 -8.05855e-05 0)
(-1.05978 -8.05901e-05 0)
(-1.05978 -8.05847e-05 0)
(-1.05978 -8.05897e-05 0)
(-1.05978 -8.05841e-05 0)
(-1.05978 -8.05895e-05 0)
(-1.05978 -8.05837e-05 0)
(-1.05978 -8.05895e-05 0)
(-1.05978 -8.05834e-05 0)
(-1.05978 -8.05896e-05 0)
(-1.05978 -8.05832e-05 0)
(-1.05978 -8.05898e-05 0)
(-1.05978 -8.05831e-05 0)
(-1.05978 -8.059e-05 0)
(-1.05978 -8.05829e-05 0)
(-1.05978 -8.05897e-05 0)
(-1.05978 -8.05839e-05 0)
(-1.05978 -8.05894e-05 0)
(-1.05978 -8.05833e-05 0)
(-1.05978 -8.05899e-05 0)
(-1.05978 -8.05831e-05 0)
(-1.05978 -8.05901e-05 0)
(-1.05978 -8.0583e-05 0)
(-1.05978 -8.05903e-05 0)
(-1.05978 -8.05829e-05 0)
(-1.05978 -8.05905e-05 0)
(-1.05978 -8.05827e-05 0)
(-1.05978 -8.05907e-05 0)
(-1.05978 -8.05826e-05 0)
(-1.05978 -8.0591e-05 0)
(-1.05978 -8.05824e-05 0)
(-1.05978 -8.05912e-05 0)
(-1.05978 -8.05822e-05 0)
(-1.05978 -8.05914e-05 0)
(-1.05978 -8.0582e-05 0)
(-1.05978 -8.05916e-05 0)
(-1.05978 -8.05819e-05 0)
(-1.05978 -8.05918e-05 0)
(-1.05978 -8.05817e-05 0)
(-1.05978 -8.0592e-05 0)
(-1.05978 -8.05815e-05 0)
(-1.05978 -8.05922e-05 0)
(-1.05978 -8.05813e-05 0)
(-1.05978 -8.05924e-05 0)
(-1.05978 -8.05811e-05 0)
(-1.05978 -8.05926e-05 0)
(-1.05978 -8.05809e-05 0)
(-1.05978 -8.05928e-05 0)
(-1.05978 -8.05808e-05 0)
(-1.05978 -8.0593e-05 0)
(-1.05978 -8.05806e-05 0)
(-1.05978 -8.05932e-05 0)
(-1.05978 -8.05804e-05 0)
(-1.05978 -8.05934e-05 0)
(-1.05978 -8.05803e-05 0)
(-1.05978 -8.05936e-05 0)
(-1.05978 -8.05802e-05 0)
(-1.05978 -8.05937e-05 0)
(-1.05978 -8.058e-05 0)
(-1.05978 -8.0593e-05 0)
(-1.05978 -8.0581e-05 0)
(-1.05978 -8.05928e-05 0)
(-1.05978 -8.05813e-05 0)
(-1.05978 -8.05925e-05 0)
(-1.05978 -8.05814e-05 0)
(-1.05978 -8.05913e-05 0)
(-1.05978 -8.05828e-05 0)
(-1.05978 -8.0591e-05 0)
(-1.05978 -8.05831e-05 0)
(-1.05978 -8.05908e-05 0)
(-1.05978 -8.05833e-05 0)
(-1.05978 -8.05907e-05 0)
(-1.05978 -8.05835e-05 0)
(-1.05978 -8.05905e-05 0)
(-1.05978 -8.05836e-05 0)
(-1.05978 -8.05904e-05 0)
(-1.05978 -8.05839e-05 0)
(-1.05978 -8.05906e-05 0)
(-1.05978 -8.05846e-05 0)
(-1.05978 -8.05912e-05 0)
(-1.05978 -8.05854e-05 0)
(-1.05978 -8.05919e-05 0)
(-1.05978 -8.05863e-05 0)
(-1.05978 -8.05924e-05 0)
(-1.05978 -8.05869e-05 0)
(-1.05978 -8.05928e-05 0)
(-1.05978 -8.05876e-05 0)
(-1.05978 -8.05933e-05 0)
(-1.05978 -8.0588e-05 0)
(-1.05978 -8.05933e-05 0)
(-1.05978 -8.05881e-05 0)
(-1.05978 -8.05931e-05 0)
(-1.05978 -8.05876e-05 0)
(-1.05978 -8.05925e-05 0)
(-1.05978 -8.05877e-05 0)
(-1.05978 -8.05924e-05 0)
(-1.05978 -8.05872e-05 0)
(-1.05978 -8.05913e-05 0)
(-1.05978 -8.0586e-05 0)
(-1.05978 -8.05896e-05 0)
(-1.05978 -8.05838e-05 0)
(-1.05978 -8.05867e-05 0)
(-1.05978 -8.05808e-05 0)
(-1.05978 -8.05834e-05 0)
(-1.05978 -8.05773e-05 0)
(-1.05978 -8.05831e-05 0)
(-1.05978 -8.06573e-05 0)
(-1.0598 -8.24314e-05 0)
(-1.06029 -0.000155396 0)
)
;

boundaryField
{
    inandouthalf11
    {
        type            cyclic;
    }
    inandouthalf12
    {
        type            cyclic;
    }
    inandouthalf21
    {
        type            cyclic;
    }
    inandouthalf22
    {
        type            cyclic;
    }
    inandouthalf31
    {
        type            cyclic;
    }
    inandouthalf32
    {
        type            cyclic;
    }
    inandouthalf41
    {
        type            cyclic;
    }
    inandouthalf42
    {
        type            cyclic;
    }
    top
    {
        type            symmetryPlane;
    }
    walls
    {
        type            calculated;
        value           uniform (0 0 0);
    }
    frontAndBackPlanes
    {
        type            empty;
    }
}


// ************************************************************************* //
