/*--------------------------------*- C++ -*----------------------------------*\
| =========                 |                                                 |
| \\      /  F ield         | OpenFOAM: The Open Source CFD Toolbox           |
|  \\    /   O peration     | Version:  2.4.x                                 |
|   \\  /    A nd           | Web:      www.OpenFOAM.org                      |
|    \\/     M anipulation  |                                                 |
\*---------------------------------------------------------------------------*/
FoamFile
{
    version     2.0;
    format      ascii;
    class       surfaceScalarField;
    location    "3.4";
    object      ddt0(phib);
}
// * * * * * * * * * * * * * * * * * * * * * * * * * * * * * * * * * * * * * //

dimensions      [0 3 -2 0 0 0 0];

internalField   nonuniform List<scalar> 
359
(
-1.04686e-12
-4.06866e-12
-7.73104e-12
-1.10199e-11
-1.38028e-11
-1.6266e-11
-1.85706e-11
-2.07518e-11
-2.27567e-11
-2.45725e-11
-2.63118e-11
-2.82303e-11
-3.07082e-11
-3.42046e-11
-3.91993e-11
-4.60397e-11
-5.45304e-11
-6.30935e-11
-6.78755e-11
-6.3643e-11
-4.82781e-11
-2.69968e-11
-8.68497e-12
2.19118e-12
7.02989e-12
8.81077e-12
9.40559e-12
9.58287e-12
9.60247e-12
9.54792e-12
9.44815e-12
9.3184e-12
9.17284e-12
9.0256e-12
8.88823e-12
8.76623e-12
8.65934e-12
8.56369e-12
8.47423e-12
8.38686e-12
8.29827e-12
8.20698e-12
8.11221e-12
8.0139e-12
7.91254e-12
7.8087e-12
7.70285e-12
7.5956e-12
7.48678e-12
7.37639e-12
7.26423e-12
7.15008e-12
7.03352e-12
6.91413e-12
6.79146e-12
6.66505e-12
6.53449e-12
6.39955e-12
6.25994e-12
6.1159e-12
5.96716e-12
5.81444e-12
5.65798e-12
5.49854e-12
5.33648e-12
5.17225e-12
5.0055e-12
4.83592e-12
4.6626e-12
4.48475e-12
4.30094e-12
4.11031e-12
3.91213e-12
3.70599e-12
3.49184e-12
3.27019e-12
3.04183e-12
2.80775e-12
2.56852e-12
2.32488e-12
2.0769e-12
1.82459e-12
1.56741e-12
1.30513e-12
1.03715e-12
7.63511e-13
4.83918e-13
1.98926e-13
-9.12566e-14
-3.85939e-13
-6.84883e-13
-9.87322e-13
-1.29342e-12
-1.60267e-12
-1.91535e-12
-2.23122e-12
-2.55049e-12
-2.87295e-12
-3.19869e-12
-3.5274e-12
-3.85915e-12
-4.19346e-12
-4.53033e-12
-4.86923e-12
-5.21007e-12
-5.55217e-12
-5.89539e-12
-6.23899e-12
-6.58287e-12
-6.92624e-12
-7.26908e-12
-7.61085e-12
-7.95165e-12
-8.2913e-12
-8.63034e-12
-8.96902e-12
-9.30845e-12
-9.64947e-12
-9.99394e-12
-1.03434e-11
-1.07003e-11
-1.10669e-11
-1.1446e-11
-1.18399e-11
-1.22515e-11
-1.26825e-11
-1.31349e-11
-1.36091e-11
-1.41053e-11
-1.46212e-11
-1.51538e-11
-1.56978e-11
-1.62479e-11
-1.67987e-11
-1.73446e-11
-1.78767e-11
-1.83822e-11
-1.88458e-11
-1.92527e-11
-1.95852e-11
-1.98207e-11
-1.99409e-11
-1.99748e-11
-1.99581e-11
-1.99161e-11
-1.97176e-11
-3.08727e-11
-4.29162e-11
-2.97772e-10
-6.80925e-09
-4.10417e-09
-4.55956e-09
-4.24276e-09
-3.40323e-09
-2.41859e-09
-1.50986e-09
-9.81387e-10
-7.2123e-10
-5.85734e-10
-4.99363e-10
-4.36988e-10
-3.88031e-10
-3.47347e-10
-3.12314e-10
-2.81463e-10
-2.53906e-10
-2.29066e-10
-2.06545e-10
-1.86054e-10
-1.67369e-10
-1.50317e-10
-1.34755e-10
-1.20566e-10
-1.07651e-10
-9.59223e-11
-8.53028e-11
-7.57193e-11
-6.71013e-11
-5.93793e-11
-5.24841e-11
-4.63468e-11
-4.08986e-11
-3.60716e-11
-3.17962e-11
-2.79999e-11
-2.46009e-11
-2.15023e-11
-1.85884e-11
-1.57368e-11
-1.28606e-11
-9.98443e-12
-7.29789e-12
-5.08885e-12
-3.539e-12
-2.57573e-12
-1.96759e-12
-1.53334e-12
-1.20638e-12
-9.70082e-13
-8.00661e-13
-6.59984e-13
-5.27746e-13
-4.28109e-13
-3.72318e-13
-3.19276e-13
-2.46901e-13
-1.96997e-13
-1.80027e-13
-1.53379e-13
-1.16544e-13
-9.75082e-14
-8.45317e-14
-6.60378e-14
-5.3842e-14
-4.52656e-14
-3.1584e-14
-2.34111e-14
-2.12282e-14
-1.41741e-14
-6.43263e-15
-3.93251e-15
-9.77742e-16
2.10244e-15
4.75219e-15
7.65149e-15
9.37672e-15
1.01494e-14
1.22566e-14
1.30656e-14
1.36868e-14
1.44266e-14
1.49061e-14
1.46494e-14
1.50216e-14
1.6145e-14
1.76092e-14
1.71782e-14
1.58635e-14
1.21762e-14
1.12564e-14
1.14257e-14
1.45101e-14
1.4115e-14
1.37932e-14
1.30904e-14
1.27453e-14
1.20465e-14
1.17253e-14
1.10547e-14
1.07196e-14
1.00529e-14
9.71522e-15
9.07016e-15
8.706e-15
8.05281e-15
7.67773e-15
7.0614e-15
6.69191e-15
6.06721e-15
5.66334e-15
5.06062e-15
4.64004e-15
4.02205e-15
3.64622e-15
3.32388e-15
3.18499e-15
2.92575e-15
2.71827e-15
2.53347e-15
2.34326e-15
2.08576e-15
1.82398e-15
1.70618e-15
1.58099e-15
1.43705e-15
1.25638e-15
1.14126e-15
9.86433e-16
8.34901e-16
6.21289e-16
6.06651e-16
5.2348e-16
4.51635e-16
3.4185e-16
2.94482e-16
2.26463e-16
1.65268e-16
7.99679e-17
7.79889e-17
4.412e-17
5.73875e-18
-6.958e-17
-6.11628e-17
-1.44545e-16
-2.42861e-16
-7.85662e-16
-3.71192e-16
-4.16377e-16
-4.73123e-16
-6.46083e-16
-7.4263e-16
-8.61155e-16
-9.8751e-16
-1.13727e-15
-1.26522e-15
-1.39314e-15
-1.53012e-15
-1.62349e-15
-1.75205e-15
-1.83217e-15
-1.90869e-15
-1.97162e-15
-2.13746e-15
-2.27403e-15
-2.41333e-15
-2.47118e-15
-2.60968e-15
-2.63304e-15
-2.67171e-15
-2.62937e-15
-2.84078e-15
-2.90921e-15
-2.99582e-15
-2.89737e-15
-3.05006e-15
-3.04676e-15
-3.36432e-15
-5.1238e-15
-8.05262e-15
-1.2114e-14
-1.6464e-14
-1.98859e-14
-2.44143e-14
-2.72871e-14
-3.02738e-14
-3.14835e-14
-3.63709e-14
-3.87036e-14
-4.10918e-14
-3.98628e-14
-4.17858e-14
-3.92474e-14
-3.70604e-14
-3.12339e-14
-3.41216e-14
-3.21574e-14
-3.04127e-14
-2.1623e-14
-1.77351e-14
-6.751e-15
4.78265e-15
2.21481e-14
3.8424e-14
5.73923e-14
7.74405e-14
9.69934e-14
1.26778e-13
1.46988e-13
1.72529e-13
)
;

boundaryField
{
    inandouthalf11
    {
        type            cyclic;
        value           nonuniform List<scalar> 
100
(
-1.73473e-10
-1.73825e-10
-1.73782e-10
-1.73849e-10
-1.73981e-10
-1.74143e-10
-1.74321e-10
-1.74486e-10
-1.74615e-10
-1.74717e-10
-1.74809e-10
-1.74909e-10
-1.75038e-10
-1.75217e-10
-1.75474e-10
-1.75835e-10
-1.76308e-10
-1.7685e-10
-1.773e-10
-1.77365e-10
-1.76771e-10
-1.75616e-10
-1.74396e-10
-1.73552e-10
-1.73133e-10
-1.72967e-10
-1.72909e-10
-1.72893e-10
-1.72891e-10
-1.72896e-10
-1.72904e-10
-1.72916e-10
-1.72929e-10
-1.72946e-10
-1.7296e-10
-1.72976e-10
-1.7299e-10
-1.73004e-10
-1.73019e-10
-1.73033e-10
-1.73049e-10
-1.73066e-10
-1.73083e-10
-1.73103e-10
-1.73123e-10
-1.73145e-10
-1.73169e-10
-1.73193e-10
-1.7322e-10
-1.73249e-10
-1.73278e-10
-1.7331e-10
-1.73343e-10
-1.73379e-10
-1.73416e-10
-1.73456e-10
-1.73498e-10
-1.73543e-10
-1.73589e-10
-1.73637e-10
-1.73689e-10
-1.73742e-10
-1.73797e-10
-1.73853e-10
-1.73911e-10
-1.7397e-10
-1.74031e-10
-1.74093e-10
-1.74158e-10
-1.74225e-10
-1.74296e-10
-1.74369e-10
-1.74444e-10
-1.74523e-10
-1.74604e-10
-1.74687e-10
-1.74772e-10
-1.7486e-10
-1.74949e-10
-1.7504e-10
-1.75134e-10
-1.7523e-10
-1.75329e-10
-1.7543e-10
-1.75534e-10
-1.7564e-10
-1.75749e-10
-1.75861e-10
-1.75975e-10
-1.76091e-10
-1.7621e-10
-1.76331e-10
-1.76454e-10
-1.76581e-10
-1.7671e-10
-1.76841e-10
-1.76976e-10
-1.77114e-10
-1.77254e-10
-1.77397e-10
)
;
    }
    inandouthalf12
    {
        type            cyclic;
        value           nonuniform List<scalar> 
100
(
1.73473e-10
1.73825e-10
1.73782e-10
1.73849e-10
1.73981e-10
1.74143e-10
1.74321e-10
1.74486e-10
1.74615e-10
1.74717e-10
1.74809e-10
1.74909e-10
1.75038e-10
1.75217e-10
1.75474e-10
1.75835e-10
1.76308e-10
1.7685e-10
1.773e-10
1.77365e-10
1.76771e-10
1.75616e-10
1.74396e-10
1.73552e-10
1.73133e-10
1.72967e-10
1.72909e-10
1.72893e-10
1.72891e-10
1.72896e-10
1.72904e-10
1.72916e-10
1.72929e-10
1.72946e-10
1.7296e-10
1.72976e-10
1.7299e-10
1.73004e-10
1.73019e-10
1.73033e-10
1.73049e-10
1.73066e-10
1.73083e-10
1.73103e-10
1.73123e-10
1.73145e-10
1.73169e-10
1.73193e-10
1.7322e-10
1.73249e-10
1.73278e-10
1.7331e-10
1.73343e-10
1.73379e-10
1.73416e-10
1.73456e-10
1.73498e-10
1.73543e-10
1.73589e-10
1.73637e-10
1.73689e-10
1.73742e-10
1.73797e-10
1.73853e-10
1.73911e-10
1.7397e-10
1.74031e-10
1.74093e-10
1.74158e-10
1.74225e-10
1.74296e-10
1.74369e-10
1.74444e-10
1.74523e-10
1.74604e-10
1.74687e-10
1.74772e-10
1.7486e-10
1.74949e-10
1.7504e-10
1.75134e-10
1.7523e-10
1.75329e-10
1.7543e-10
1.75534e-10
1.7564e-10
1.75749e-10
1.75861e-10
1.75975e-10
1.76091e-10
1.7621e-10
1.76331e-10
1.76454e-10
1.76581e-10
1.7671e-10
1.76841e-10
1.76976e-10
1.77114e-10
1.77254e-10
1.77397e-10
)
;
    }
    inandouthalf21
    {
        type            cyclic;
        value           nonuniform List<scalar> 
100
(
-1.77544e-10
-1.77693e-10
-1.77846e-10
-1.78002e-10
-1.78161e-10
-1.78324e-10
-1.7849e-10
-1.7866e-10
-1.78833e-10
-1.7901e-10
-1.79191e-10
-1.79376e-10
-1.79565e-10
-1.79759e-10
-1.79957e-10
-1.8016e-10
-1.80369e-10
-1.80583e-10
-1.80803e-10
-1.8103e-10
-1.81265e-10
-1.81507e-10
-1.81758e-10
-1.82019e-10
-1.8229e-10
-1.82573e-10
-1.82867e-10
-1.83175e-10
-1.83498e-10
-1.83835e-10
-1.84188e-10
-1.84558e-10
-1.84944e-10
-1.85349e-10
-1.85778e-10
-1.86229e-10
-1.86698e-10
-1.87186e-10
-1.87709e-10
-1.88285e-10
-1.88885e-10
-1.89431e-10
-1.90046e-10
-1.90825e-10
-1.91767e-10
-1.93164e-10
-1.98366e-10
-2.01668e-10
3.95968e-11
1.35206e-07
2.24392e-07
1.95832e-07
2.57942e-07
3.5336e-07
4.70621e-07
5.85583e-07
6.7619e-07
7.38524e-07
7.79833e-07
8.08005e-07
8.28382e-07
8.44126e-07
8.57061e-07
8.68235e-07
8.78265e-07
8.87522e-07
8.96236e-07
9.0455e-07
9.12556e-07
9.20313e-07
9.27859e-07
9.35223e-07
9.4242e-07
9.49465e-07
9.56366e-07
9.63131e-07
9.69766e-07
9.76274e-07
9.82662e-07
9.88931e-07
9.95086e-07
1.00113e-06
1.00706e-06
1.01289e-06
1.01862e-06
1.02425e-06
1.02977e-06
1.0352e-06
1.04054e-06
1.04579e-06
1.05094e-06
1.056e-06
1.06097e-06
1.06584e-06
1.07063e-06
1.07533e-06
1.07993e-06
1.08444e-06
1.08886e-06
1.09318e-06
)
;
    }
    inandouthalf22
    {
        type            cyclic;
        value           nonuniform List<scalar> 
100
(
1.77544e-10
1.77693e-10
1.77846e-10
1.78002e-10
1.78161e-10
1.78324e-10
1.7849e-10
1.7866e-10
1.78833e-10
1.7901e-10
1.79191e-10
1.79376e-10
1.79565e-10
1.79759e-10
1.79957e-10
1.8016e-10
1.80369e-10
1.80583e-10
1.80803e-10
1.8103e-10
1.81265e-10
1.81507e-10
1.81758e-10
1.82019e-10
1.8229e-10
1.82573e-10
1.82867e-10
1.83175e-10
1.83498e-10
1.83835e-10
1.84188e-10
1.84558e-10
1.84944e-10
1.85349e-10
1.85778e-10
1.86229e-10
1.86698e-10
1.87186e-10
1.87709e-10
1.88285e-10
1.88885e-10
1.89431e-10
1.90046e-10
1.90825e-10
1.91767e-10
1.93164e-10
1.98366e-10
2.01668e-10
-3.95968e-11
-1.35206e-07
-2.24392e-07
-1.95832e-07
-2.57942e-07
-3.5336e-07
-4.70621e-07
-5.85583e-07
-6.7619e-07
-7.38524e-07
-7.79833e-07
-8.08005e-07
-8.28382e-07
-8.44126e-07
-8.57061e-07
-8.68235e-07
-8.78265e-07
-8.87522e-07
-8.96236e-07
-9.0455e-07
-9.12556e-07
-9.20313e-07
-9.27859e-07
-9.35223e-07
-9.4242e-07
-9.49465e-07
-9.56366e-07
-9.63131e-07
-9.69766e-07
-9.76274e-07
-9.82662e-07
-9.88931e-07
-9.95086e-07
-1.00113e-06
-1.00706e-06
-1.01289e-06
-1.01862e-06
-1.02425e-06
-1.02977e-06
-1.0352e-06
-1.04054e-06
-1.04579e-06
-1.05094e-06
-1.056e-06
-1.06097e-06
-1.06584e-06
-1.07063e-06
-1.07533e-06
-1.07993e-06
-1.08444e-06
-1.08886e-06
-1.09318e-06
)
;
    }
    inandouthalf31
    {
        type            cyclic;
        value           nonuniform List<scalar> 
110
(
1.09741e-06
1.12394e-06
1.15107e-06
1.17881e-06
1.20716e-06
1.23612e-06
1.26569e-06
1.29587e-06
1.32664e-06
1.35799e-06
1.3899e-06
1.42234e-06
1.45525e-06
1.4886e-06
1.52229e-06
1.55622e-06
1.59024e-06
1.62416e-06
1.6577e-06
1.69044e-06
1.72174e-06
1.7505e-06
1.77465e-06
1.79271e-06
1.76261e-06
1.74981e-06
1.78158e-06
1.81767e-06
1.85456e-06
1.8922e-06
1.9306e-06
1.96978e-06
2.00976e-06
2.05055e-06
2.09217e-06
2.13464e-06
2.17796e-06
2.22217e-06
2.26727e-06
2.31329e-06
2.36024e-06
2.40815e-06
2.45703e-06
2.5069e-06
2.55778e-06
2.6097e-06
2.66267e-06
2.71671e-06
2.77185e-06
2.82811e-06
2.88552e-06
2.94409e-06
3.00384e-06
3.06481e-06
3.12702e-06
3.19049e-06
3.25525e-06
3.32132e-06
3.38874e-06
3.45752e-06
3.5277e-06
3.5993e-06
3.67235e-06
3.74689e-06
3.82295e-06
3.90054e-06
3.97971e-06
4.06049e-06
4.14291e-06
4.227e-06
4.31279e-06
4.40033e-06
4.48965e-06
4.58077e-06
4.67375e-06
4.76862e-06
4.86541e-06
4.96416e-06
5.06492e-06
5.16773e-06
5.27262e-06
5.37964e-06
5.48883e-06
5.60024e-06
5.71391e-06
5.82988e-06
5.94822e-06
6.06895e-06
6.19213e-06
6.31782e-06
6.44605e-06
6.57689e-06
6.71038e-06
6.84658e-06
6.98555e-06
7.12734e-06
7.27201e-06
7.41961e-06
7.57021e-06
7.72386e-06
7.88064e-06
8.04059e-06
8.20379e-06
8.37031e-06
8.5402e-06
8.71355e-06
8.89041e-06
9.07086e-06
9.25498e-06
9.44283e-06
)
;
    }
    inandouthalf32
    {
        type            cyclic;
        value           nonuniform List<scalar> 
110
(
-1.09741e-06
-1.12394e-06
-1.15107e-06
-1.17881e-06
-1.20716e-06
-1.23612e-06
-1.26569e-06
-1.29587e-06
-1.32664e-06
-1.35799e-06
-1.3899e-06
-1.42234e-06
-1.45525e-06
-1.4886e-06
-1.52229e-06
-1.55622e-06
-1.59024e-06
-1.62416e-06
-1.6577e-06
-1.69044e-06
-1.72174e-06
-1.7505e-06
-1.77465e-06
-1.79271e-06
-1.76261e-06
-1.74981e-06
-1.78158e-06
-1.81767e-06
-1.85456e-06
-1.8922e-06
-1.9306e-06
-1.96978e-06
-2.00976e-06
-2.05055e-06
-2.09217e-06
-2.13464e-06
-2.17796e-06
-2.22217e-06
-2.26727e-06
-2.31329e-06
-2.36024e-06
-2.40815e-06
-2.45703e-06
-2.5069e-06
-2.55778e-06
-2.6097e-06
-2.66267e-06
-2.71671e-06
-2.77185e-06
-2.82811e-06
-2.88552e-06
-2.94409e-06
-3.00384e-06
-3.06481e-06
-3.12702e-06
-3.19049e-06
-3.25525e-06
-3.32132e-06
-3.38874e-06
-3.45752e-06
-3.5277e-06
-3.5993e-06
-3.67235e-06
-3.74689e-06
-3.82295e-06
-3.90054e-06
-3.97971e-06
-4.06049e-06
-4.14291e-06
-4.227e-06
-4.31279e-06
-4.40033e-06
-4.48965e-06
-4.58077e-06
-4.67375e-06
-4.76862e-06
-4.86541e-06
-4.96416e-06
-5.06492e-06
-5.16773e-06
-5.27262e-06
-5.37964e-06
-5.48883e-06
-5.60024e-06
-5.71391e-06
-5.82988e-06
-5.94822e-06
-6.06895e-06
-6.19213e-06
-6.31782e-06
-6.44605e-06
-6.57689e-06
-6.71038e-06
-6.84658e-06
-6.98555e-06
-7.12734e-06
-7.27201e-06
-7.41961e-06
-7.57021e-06
-7.72386e-06
-7.88064e-06
-8.04059e-06
-8.20379e-06
-8.37031e-06
-8.5402e-06
-8.71355e-06
-8.89041e-06
-9.07086e-06
-9.25498e-06
-9.44283e-06
)
;
    }
    inandouthalf41
    {
        type            cyclic;
        value           nonuniform List<scalar> 
50
(
8.45229e-06
8.45229e-06
8.45229e-06
8.45229e-06
8.45229e-06
8.45229e-06
8.45229e-06
8.45229e-06
8.45229e-06
8.45229e-06
8.45229e-06
8.45229e-06
8.45229e-06
8.45229e-06
8.45229e-06
8.45229e-06
8.45229e-06
8.45229e-06
8.45229e-06
8.45229e-06
8.45229e-06
8.45229e-06
8.45229e-06
8.45229e-06
8.45229e-06
8.45229e-06
8.45229e-06
8.45229e-06
8.45229e-06
8.45229e-06
8.45229e-06
8.45229e-06
8.45229e-06
8.45229e-06
8.45229e-06
8.45229e-06
8.45229e-06
8.45229e-06
8.45229e-06
8.45229e-06
8.45229e-06
8.45229e-06
8.45229e-06
8.45229e-06
8.45229e-06
8.45229e-06
8.45229e-06
8.45229e-06
8.45229e-06
8.45229e-06
)
;
    }
    inandouthalf42
    {
        type            cyclic;
        value           nonuniform List<scalar> 
50
(
-8.45229e-06
-8.45229e-06
-8.45229e-06
-8.45229e-06
-8.45229e-06
-8.45229e-06
-8.45229e-06
-8.45229e-06
-8.45229e-06
-8.45229e-06
-8.45229e-06
-8.45229e-06
-8.45229e-06
-8.45229e-06
-8.45229e-06
-8.45229e-06
-8.45229e-06
-8.45229e-06
-8.45229e-06
-8.45229e-06
-8.45229e-06
-8.45229e-06
-8.45229e-06
-8.45229e-06
-8.45229e-06
-8.45229e-06
-8.45229e-06
-8.45229e-06
-8.45229e-06
-8.45229e-06
-8.45229e-06
-8.45229e-06
-8.45229e-06
-8.45229e-06
-8.45229e-06
-8.45229e-06
-8.45229e-06
-8.45229e-06
-8.45229e-06
-8.45229e-06
-8.45229e-06
-8.45229e-06
-8.45229e-06
-8.45229e-06
-8.45229e-06
-8.45229e-06
-8.45229e-06
-8.45229e-06
-8.45229e-06
-8.45229e-06
)
;
    }
    top
    {
        type            symmetryPlane;
        value           uniform 0;
    }
    walls
    {
        type            calculated;
        value           uniform 0;
    }
    frontAndBackPlanes
    {
        type            empty;
        value           nonuniform 0();
    }
}


// ************************************************************************* //
