/*--------------------------------*- C++ -*----------------------------------*\
| =========                 |                                                 |
| \\      /  F ield         | OpenFOAM: The Open Source CFD Toolbox           |
|  \\    /   O peration     | Version:  2.4.x                                 |
|   \\  /    A nd           | Web:      www.OpenFOAM.org                      |
|    \\/     M anipulation  |                                                 |
\*---------------------------------------------------------------------------*/
FoamFile
{
    version     2.0;
    format      ascii;
    class       volVectorField;
    location    "3.4";
    object      gradPf;
}
// * * * * * * * * * * * * * * * * * * * * * * * * * * * * * * * * * * * * * //

dimensions      [0 1 -2 0 0 0 0];

internalField   nonuniform List<vector> 
360
(
(0 23.4109 0)
(0 34.0784 0)
(0 10.051 0)
(0 -3.37771 0)
(-1.67483e-14 -5.27901 0)
(-3.34987e-14 -5.09296 0)
(-3.35007e-14 -4.93861 0)
(0 -4.33405 0)
(-1.67522e-14 -3.79263 0)
(0 -3.72363 0)
(-3.35074e-14 -3.83217 0)
(0 -3.9454 0)
(-3.35108e-14 -3.99696 0)
(0 -4.01545 0)
(0 -4.15911 0)
(0 -4.48277 0)
(0 -4.96816 0)
(-3.35207e-14 -5.52614 0)
(0 -5.99336 0)
(0 -5.95207 0)
(0 -5.20356 0)
(-3.35312e-14 -3.90241 0)
(0 -2.42943 0)
(0 -1.30085 0)
(0 -0.65438 0)
(-1.67671e-14 -0.358773 0)
(0 -0.294512 0)
(0 -0.30353 0)
(0 -0.288718 0)
(0 -0.287197 0)
(0 -0.342628 0)
(0 -0.345762 0)
(0 -0.401461 0)
(0 -0.455281 0)
(0 -0.454531 0)
(3.3536e-14 -0.504087 0)
(0 -0.551393 0)
(0 -0.64931 0)
(0 -0.643076 0)
(0 -0.690877 0)
(0 -0.788891 0)
(0 -0.781353 0)
(3.35383e-14 -0.876275 0)
(0 -0.968239 0)
(0 -1.00779 0)
(0 -1.09715 0)
(0 -1.13108 0)
(0 -1.21062 0)
(0 -1.3841 0)
(0 -1.45287 0)
(3.35432e-14 -1.52032 0)
(0 -1.63356 0)
(0 -1.73716 0)
(0 -1.83096 0)
(0 -1.95997 0)
(0 -2.07553 0)
(0 -2.17629 0)
(0 -2.30671 0)
(0 -2.36997 0)
(0 -2.4963 0)
(0 -2.59034 0)
(0 -2.64795 0)
(0 -2.71426 0)
(0 -2.74541 0)
(0 -2.78787 0)
(0 -2.84387 0)
(0 -2.92183 0)
(0 -2.99268 0)
(0 -3.05596 0)
(0 -3.15939 0)
(0 -3.2805 0)
(0 -3.3277 0)
(0 -3.39013 0)
(0 -3.46443 0)
(0 -3.5117 0)
(0 -3.54238 0)
(0 -3.55678 0)
(0 -3.5958 0)
(0 -3.63769 0)
(0 -3.67351 0)
(0 -3.71755 0)
(0 -3.77353 0)
(0 -3.82211 0)
(0 -3.86673 0)
(0 -3.90563 0)
(0 -3.93866 0)
(0 -3.9646 0)
(0 -3.98346 0)
(0 -4.00408 0)
(0 -4.02536 0)
(0 -4.04624 0)
(0 -4.07026 0)
(0 -4.09633 0)
(0 -4.12117 0)
(0 -4.14482 0)
(0 -4.16675 0)
(0 -4.18637 0)
(0 -4.20397 0)
(0 -4.22034 0)
(0 -4.23576 0)
(0 -4.2504 0)
(0 -4.26462 0)
(0 -4.27833 0)
(0 -4.29126 0)
(0 -4.3034 0)
(0 -4.31478 0)
(0 -4.32539 0)
(0 -4.33531 0)
(0 -4.34457 0)
(0 -4.35314 0)
(0 -4.36098 0)
(0 -4.36801 0)
(0 -4.37412 0)
(0 -4.3792 0)
(0 -4.38315 0)
(0 -4.38583 0)
(0 -4.38712 0)
(0 -4.38688 0)
(0 -4.385 0)
(0 -4.3813 0)
(0 -4.37556 0)
(0 -4.3675 0)
(0 -4.3568 0)
(0 -4.34336 0)
(0 -4.32758 0)
(0 -4.31058 0)
(0 -4.29397 0)
(0 -4.27885 0)
(0 -4.26416 0)
(0 -4.24615 0)
(0 -4.22177 0)
(0 -4.19718 0)
(0 -4.19055 0)
(0 -4.21083 0)
(0 -4.22957 0)
(0 -4.20991 0)
(0 -4.18151 0)
(0 -4.249 0)
(0 -4.46495 0)
(0 -4.60945 0)
(0 -4.31925 0)
(0 -4.19872 0)
(0 -4.73063 0)
(0 -5.26193 0)
(0 -6.3666 0)
(0 -10.5187 0)
(0 -6.80395 0)
(0 -2.68939 0)
(0 -6.72608 0)
(0 -5.0242 0)
(0 0 0)
(0 0 0)
(0 0 0)
(0 0 0)
(0 0 0)
(0 0 0)
(0 0 0)
(0 0 0)
(0 0 0)
(0 0 0)
(0 0 0)
(0 0 0)
(0 0 0)
(0 0 0)
(0 0 0)
(0 0 0)
(0 0 0)
(0 0 0)
(0 0 0)
(0 0 0)
(0 0 0)
(0 0 0)
(0 0 0)
(0 0 0)
(0 0 0)
(0 0 0)
(0 0 0)
(0 0 0)
(0 0 0)
(0 0 0)
(0 0 0)
(0 0 0)
(0 0 0)
(0 0 0)
(0 0 0)
(0 0 0)
(0 0 0)
(0 0 0)
(0 0 0)
(0 0 0)
(0 0 0)
(0 0 0)
(0 0 0)
(0 0 0)
(0 0 0)
(0 0 0)
(0 0 0)
(0 0 0)
(0 0 0)
(0 0 0)
(0 0 0)
(0 0 0)
(0 0 0)
(0 0 0)
(0 0 0)
(0 0 0)
(0 0 0)
(0 0 0)
(0 0 0)
(0 0 0)
(0 0 0)
(0 0 0)
(0 0 0)
(0 0 0)
(0 0 0)
(0 0 0)
(0 0 0)
(0 0 0)
(0 0 0)
(0 0 0)
(0 0 0)
(0 0 0)
(0 0 0)
(0 0 0)
(0 0 0)
(0 0 0)
(0 0 0)
(0 0 0)
(0 0 0)
(0 0 0)
(0 0 0)
(0 0 0)
(0 0 0)
(0 0 0)
(0 0 0)
(0 0 0)
(0 0 0)
(0 0 0)
(0 0 0)
(0 0 0)
(0 0 0)
(0 0 0)
(0 0 0)
(0 0 0)
(0 0 0)
(0 0 0)
(0 0 0)
(0 0 0)
(0 0 0)
(0 0 0)
(0 0 0)
(0 0 0)
(0 0 0)
(0 0 0)
(0 0 0)
(0 0 0)
(0 0 0)
(0 0 0)
(0 0 0)
(0 0 0)
(0 0 0)
(0 0 0)
(0 0 0)
(0 0 0)
(0 0 0)
(0 0 0)
(0 0 0)
(0 0 0)
(0 0 0)
(0 0 0)
(0 0 0)
(0 0 0)
(0 0 0)
(0 0 0)
(0 0 0)
(0 0 0)
(0 0 0)
(0 0 0)
(0 0 0)
(0 0 0)
(0 0 0)
(0 0 0)
(0 0 0)
(0 0 0)
(0 0 0)
(0 0 0)
(0 0 0)
(0 0 0)
(0 0 0)
(0 0 0)
(0 0 0)
(0 0 0)
(0 0 0)
(0 0 0)
(0 0 0)
(0 0 0)
(0 0 0)
(0 0 0)
(0 0 0)
(0 0 0)
(0 0 0)
(0 0 0)
(0 0 0)
(0 0 0)
(0 0 0)
(0 0 0)
(0 0 0)
(0 0 0)
(0 0 0)
(0 0 0)
(0 0 0)
(0 0 0)
(0 0 0)
(0 0 0)
(0 0 0)
(0 0 0)
(0 0 0)
(0 0 0)
(0 0 0)
(0 0 0)
(0 0 0)
(0 0 0)
(0 0 0)
(0 0 0)
(0 0 0)
(0 0 0)
(0 0 0)
(0 0 0)
(0 0 0)
(0 0 0)
(0 0 0)
(0 0 0)
(0 0 0)
(0 0 0)
(0 0 0)
(0 0 0)
(0 0 0)
(0 0 0)
(0 0 0)
(0 0 0)
(0 0 0)
(0 0 0)
(0 0 0)
(0 0 0)
(0 0 0)
(0 0 0)
(0 0 0)
(0 0 0)
(0 0 0)
(0 0 0)
(0 0 0)
(0 0 0)
(0 0 0)
(0 0 0)
(0 0 0)
(0 0 0)
(0 0 0)
(0 0 0)
(0 0 0)
(0 0 0)
)
;

boundaryField
{
    inandouthalf11
    {
        type            cyclic;
    }
    inandouthalf12
    {
        type            cyclic;
    }
    inandouthalf21
    {
        type            cyclic;
    }
    inandouthalf22
    {
        type            cyclic;
    }
    inandouthalf31
    {
        type            cyclic;
    }
    inandouthalf32
    {
        type            cyclic;
    }
    inandouthalf41
    {
        type            cyclic;
    }
    inandouthalf42
    {
        type            cyclic;
    }
    top
    {
        type            symmetryPlane;
    }
    walls
    {
        type            calculated;
        value           uniform (0 0 0);
    }
    frontAndBackPlanes
    {
        type            empty;
    }
}


// ************************************************************************* //
