/*--------------------------------*- C++ -*----------------------------------*\
| =========                 |                                                 |
| \\      /  F ield         | OpenFOAM: The Open Source CFD Toolbox           |
|  \\    /   O peration     | Version:  2.4.x                                 |
|   \\  /    A nd           | Web:      www.OpenFOAM.org                      |
|    \\/     M anipulation  |                                                 |
\*---------------------------------------------------------------------------*/
FoamFile
{
    version     2.0;
    format      ascii;
    class       volScalarField;
    location    "3.4";
    object      pa;
}
// * * * * * * * * * * * * * * * * * * * * * * * * * * * * * * * * * * * * * //

dimensions      [1 -1 -2 0 0 0 0];

internalField   nonuniform List<scalar> 
360
(
2.89292e-16
2.93914e-16
2.94785e-16
2.93782e-16
2.93316e-16
2.93277e-16
2.93421e-16
2.93568e-16
2.93593e-16
2.93486e-16
2.93338e-16
2.93245e-16
2.93276e-16
2.93503e-16
2.94024e-16
2.94987e-16
2.96552e-16
2.98693e-16
3.00703e-16
3.00829e-16
2.97726e-16
2.92993e-16
2.89614e-16
2.8827e-16
2.87934e-16
2.87868e-16
2.87853e-16
2.87843e-16
2.87836e-16
2.87828e-16
2.87821e-16
2.87811e-16
2.87803e-16
2.8779e-16
2.8778e-16
2.87767e-16
2.87754e-16
2.87739e-16
2.87721e-16
2.87705e-16
2.87685e-16
2.87664e-16
2.87644e-16
2.87618e-16
2.87593e-16
2.87566e-16
2.87536e-16
2.87506e-16
2.87472e-16
2.87433e-16
2.87394e-16
2.87351e-16
2.87307e-16
2.87258e-16
2.87207e-16
2.87151e-16
2.87094e-16
2.87031e-16
2.86966e-16
2.86899e-16
2.86826e-16
2.86752e-16
2.86675e-16
2.86597e-16
2.86516e-16
2.86434e-16
2.86349e-16
2.86261e-16
2.8617e-16
2.86076e-16
2.85978e-16
2.85875e-16
2.85771e-16
2.85662e-16
2.85552e-16
2.85437e-16
2.85322e-16
2.85204e-16
2.85084e-16
2.8496e-16
2.84834e-16
2.84704e-16
2.84571e-16
2.84435e-16
2.84295e-16
2.84152e-16
2.84005e-16
2.83856e-16
2.83704e-16
2.83549e-16
2.8339e-16
2.83229e-16
2.83063e-16
2.82894e-16
2.82721e-16
2.82544e-16
2.82362e-16
2.82177e-16
2.81988e-16
2.81792e-16
0
0
0
0
0
0
0
0
0
0
0
0
0
0
0
2.77974e-16
2.77678e-16
2.77374e-16
2.7706e-16
2.76738e-16
2.76405e-16
2.76063e-16
2.7571e-16
2.75346e-16
2.7497e-16
2.74583e-16
2.74182e-16
2.73767e-16
3.25881e-16
1.05304e-15
3.71652e-15
1.23952e-14
3.84416e-14
1.10115e-13
2.89333e-13
6.90379e-13
1.4722e-12
2.74267e-12
4.33622e-12
5.54364e-12
5.20501e-12
7.09709e-12
8.50208e-11
1.63228e-09
3.83629e-08
1.10205e-06
5.82155e-05
0.0089309
0.429253
2.88811
1.62889
0.927117
0.468525
0.225925
0.109137
0.0557485
0.0322069
0.0214205
0.0158447
0.0125385
0.0103906
0.00889664
0.00779848
0.00695407
0.00627967
0.00572322
0.00525108
0.00484077
0.00447692
0.00414883
0.00384898
0.00357207
0.00331438
0.00307333
0.0028471
0.00263443
0.00243441
0.00224627
0.00206932
0.00190277
0.00174575
0.00159718
0.00145578
0.00132007
0.00118842
0.00105917
0.000930897
0.000803003
0.000676424
0.000554447
0.00044283
0.000348251
0.000274953
0.000221817
0.000183221
0.000153382
0.0001293
0.000109796
9.39356e-05
8.07723e-05
6.95256e-05
5.98359e-05
5.17947e-05
4.50431e-05
3.88176e-05
3.31367e-05
2.87044e-05
2.50391e-05
2.1354e-05
1.81575e-05
1.5715e-05
1.34504e-05
1.13695e-05
9.72919e-06
8.26527e-06
6.90426e-06
5.87212e-06
5.0023e-06
4.10944e-06
3.42068e-06
2.8896e-06
2.37192e-06
1.94984e-06
1.59777e-06
1.28302e-06
1.0503e-06
8.45699e-07
6.58936e-07
5.29717e-07
4.15026e-07
3.15117e-07
2.46494e-07
1.83355e-07
1.34576e-07
9.32429e-08
7.04016e-08
5.77493e-08
4.72401e-08
3.45081e-08
1.58535e-08
0
0
0
0
0
0
0
0
0
0
0
0
0
0
0
0
0
0
0
0
0
0
0
0
0
0
0
0
0
0
0
0
0
0
0
0
0
0
0
0
0
0
0
0
0
0
0
0
0
0
0
0
0
0
0
0
0
0
0
0
0
0
0
0
0
0
0
0
0
0
0
0
0
0
0
0
0
0
0
0
0
0
0
0
0
0
0
0
0
0
0
0
0
0
0
0
0
0
0
0
0
0
0
0
0
0
0
0
0
0
0
0
0
0
0
0
0
0
0
0
)
;

boundaryField
{
    inandouthalf11
    {
        type            cyclic;
    }
    inandouthalf12
    {
        type            cyclic;
    }
    inandouthalf21
    {
        type            cyclic;
    }
    inandouthalf22
    {
        type            cyclic;
    }
    inandouthalf31
    {
        type            cyclic;
    }
    inandouthalf32
    {
        type            cyclic;
    }
    inandouthalf41
    {
        type            cyclic;
    }
    inandouthalf42
    {
        type            cyclic;
    }
    top
    {
        type            symmetryPlane;
    }
    walls
    {
        type            calculated;
        value           uniform 2.89292e-16;
    }
    frontAndBackPlanes
    {
        type            empty;
    }
}


// ************************************************************************* //
