/*--------------------------------*- C++ -*----------------------------------*\
| =========                 |                                                 |
| \\      /  F ield         | OpenFOAM: The Open Source CFD Toolbox           |
|  \\    /   O peration     | Version:  2.4.x                                 |
|   \\  /    A nd           | Web:      www.OpenFOAM.org                      |
|    \\/     M anipulation  |                                                 |
\*---------------------------------------------------------------------------*/
FoamFile
{
    version     2.0;
    format      ascii;
    class       volVectorField;
    location    "3.4";
    object      Ua_0;
}
// * * * * * * * * * * * * * * * * * * * * * * * * * * * * * * * * * * * * * //

dimensions      [0 1 -1 0 0 0 0];

internalField   nonuniform List<vector> 
360
(
(-1.10753e-32 -6.93362e-32 0)
(-8.00383e-08 -3.78765e-07 0)
(-2.0061e-07 -8.5605e-07 0)
(-3.13347e-07 -1.27094e-06 0)
(-4.1699e-07 -1.6527e-06 0)
(-5.18453e-07 -2.03086e-06 0)
(-6.21836e-07 -2.42036e-06 0)
(-7.28317e-07 -2.82562e-06 0)
(-8.36716e-07 -3.24097e-06 0)
(-9.45023e-07 -3.65748e-06 0)
(-1.05207e-06 -4.07052e-06 0)
(-1.15798e-06 -4.48087e-06 0)
(-1.26394e-06 -4.89345e-06 0)
(-1.37192e-06 -5.31612e-06 0)
(-1.48461e-06 -5.75973e-06 0)
(-1.6056e-06 -6.23921e-06 0)
(-1.73919e-06 -6.77333e-06 0)
(-1.88924e-06 -7.38065e-06 0)
(-2.05615e-06 -8.06721e-06 0)
(-2.23183e-06 -8.80401e-06 0)
(-2.39646e-06 -9.50796e-06 0)
(-2.52558e-06 -1.00683e-05 0)
(-2.60686e-06 -1.04234e-05 0)
(-2.64786e-06 -1.0602e-05 0)
(-2.66537e-06 -1.06773e-05 0)
(-2.67243e-06 -1.07071e-05 0)
(-2.67552e-06 -1.07198e-05 0)
(-2.67715e-06 -1.07263e-05 0)
(-2.67825e-06 -1.07304e-05 0)
(-2.6792e-06 -1.07338e-05 0)
(-2.68016e-06 -1.0737e-05 0)
(-2.68125e-06 -1.07406e-05 0)
(-2.68255e-06 -1.07445e-05 0)
(-2.68408e-06 -1.07491e-05 0)
(-2.68583e-06 -1.07541e-05 0)
(-2.68776e-06 -1.07594e-05 0)
(-2.68982e-06 -1.07649e-05 0)
(-2.69194e-06 -1.07704e-05 0)
(-2.69411e-06 -1.07758e-05 0)
(-2.6963e-06 -1.07812e-05 0)
(-2.6985e-06 -1.07864e-05 0)
(-2.70073e-06 -1.07916e-05 0)
(-2.70301e-06 -1.07967e-05 0)
(-2.70534e-06 -1.08018e-05 0)
(-2.70774e-06 -1.08069e-05 0)
(-2.71023e-06 -1.08121e-05 0)
(-2.71281e-06 -1.08174e-05 0)
(-2.71549e-06 -1.08227e-05 0)
(-2.71828e-06 -1.08282e-05 0)
(-2.72118e-06 -1.08337e-05 0)
(-2.7242e-06 -1.08394e-05 0)
(-2.72735e-06 -1.08452e-05 0)
(-2.73064e-06 -1.08511e-05 0)
(-2.73406e-06 -1.08572e-05 0)
(-2.73763e-06 -1.08634e-05 0)
(-2.74136e-06 -1.08698e-05 0)
(-2.74527e-06 -1.08764e-05 0)
(-2.74935e-06 -1.08833e-05 0)
(-2.75363e-06 -1.08903e-05 0)
(-2.7581e-06 -1.08975e-05 0)
(-2.76277e-06 -1.0905e-05 0)
(-2.76762e-06 -1.09127e-05 0)
(-2.77266e-06 -1.09206e-05 0)
(-2.77786e-06 -1.09286e-05 0)
(-2.78321e-06 -1.09368e-05 0)
(-2.7887e-06 -1.09451e-05 0)
(-2.79431e-06 -1.09535e-05 0)
(-2.80007e-06 -1.09621e-05 0)
(-2.80599e-06 -1.09707e-05 0)
(-2.81211e-06 -1.09796e-05 0)
(-2.81845e-06 -1.09887e-05 0)
(-2.82505e-06 -1.09981e-05 0)
(-2.83196e-06 -1.10079e-05 0)
(-2.83919e-06 -1.10181e-05 0)
(-2.84676e-06 -1.10286e-05 0)
(-2.85466e-06 -1.10395e-05 0)
(-2.86288e-06 -1.10508e-05 0)
(-2.87138e-06 -1.10624e-05 0)
(-2.88016e-06 -1.10743e-05 0)
(-2.88919e-06 -1.10864e-05 0)
(-2.89845e-06 -1.10987e-05 0)
(-2.90796e-06 -1.11113e-05 0)
(-2.91771e-06 -1.11241e-05 0)
(-2.92773e-06 -1.11372e-05 0)
(-2.93804e-06 -1.11506e-05 0)
(-2.94863e-06 -1.11643e-05 0)
(-2.95954e-06 -1.11783e-05 0)
(-2.97073e-06 -1.11926e-05 0)
(-2.98222e-06 -1.12071e-05 0)
(-2.99398e-06 -1.1222e-05 0)
(-3.006e-06 -1.1237e-05 0)
(-3.01825e-06 -1.12523e-05 0)
(-3.03073e-06 -1.12678e-05 0)
(-3.04344e-06 -1.12834e-05 0)
(-3.05637e-06 -1.12993e-05 0)
(-3.06951e-06 -1.13153e-05 0)
(-3.08287e-06 -1.13315e-05 0)
(-3.09645e-06 -1.13478e-05 0)
(-3.11024e-06 -1.13643e-05 0)
(-3.12424e-06 -1.1381e-05 0)
(-3.13845e-06 -1.13978e-05 0)
(-3.15284e-06 -1.14148e-05 0)
(-3.16742e-06 -1.14318e-05 0)
(-3.18218e-06 -1.1449e-05 0)
(-3.1971e-06 -1.14663e-05 0)
(-3.21217e-06 -1.14836e-05 0)
(-3.22737e-06 -1.1501e-05 0)
(-3.2427e-06 -1.15184e-05 0)
(-3.25814e-06 -1.15358e-05 0)
(-3.27369e-06 -1.15532e-05 0)
(-3.28932e-06 -1.15706e-05 0)
(-3.30505e-06 -1.1588e-05 0)
(-3.32086e-06 -1.16054e-05 0)
(-3.33678e-06 -1.16227e-05 0)
(-3.35281e-06 -1.164e-05 0)
(-3.36898e-06 -1.16574e-05 0)
(-3.38532e-06 -1.16747e-05 0)
(-3.40189e-06 -1.16922e-05 0)
(-3.41873e-06 -1.17097e-05 0)
(-3.43593e-06 -1.17275e-05 0)
(-3.45355e-06 -1.17455e-05 0)
(-3.47167e-06 -1.17638e-05 0)
(-3.49038e-06 -1.17824e-05 0)
(-3.50976e-06 -1.18015e-05 0)
(-3.52985e-06 -1.18209e-05 0)
(-3.55071e-06 -1.18408e-05 0)
(-3.57234e-06 -1.18611e-05 0)
(-3.59473e-06 -1.18816e-05 0)
(-3.61781e-06 -1.19024e-05 0)
(-3.64149e-06 -1.19232e-05 0)
(-3.66564e-06 -1.19438e-05 0)
(-3.69007e-06 -1.19641e-05 0)
(-3.71463e-06 -1.19839e-05 0)
(-3.73921e-06 -1.20029e-05 0)
(-3.76375e-06 -1.20212e-05 0)
(-3.78815e-06 -1.20387e-05 0)
(-3.81221e-06 -1.2055e-05 0)
(-3.83564e-06 -1.20701e-05 0)
(-3.85803e-06 -1.20837e-05 0)
(-3.87866e-06 -1.20955e-05 0)
(-3.89604e-06 -1.21049e-05 0)
(-3.90843e-06 -1.2111e-05 0)
(-3.91565e-06 -1.21141e-05 0)
(-3.91918e-06 -1.21154e-05 0)
(-3.92079e-06 -1.21158e-05 0)
(-3.92182e-06 -1.21159e-05 0)
(-3.92347e-06 -1.21166e-05 0)
(-4.11758e-06 -1.22336e-05 0)
(-5.25505e-06 -1.23368e-05 0)
(-0.023558 3.60894e-05 0)
(-0.135807 0.0014609 0)
(-0.242292 0.00255835 0)
(-0.311265 0.00293846 0)
(-0.357146 0.00281588 0)
(-0.387237 0.00200811 0)
(-0.406781 0.000328551 0)
(-0.419705 -0.00192162 0)
(-0.428468 -0.00422304 0)
(-0.434461 -0.006268 0)
(-0.438504 -0.00798963 0)
(-0.441115 -0.00941539 0)
(-0.442644 -0.0105833 0)
(-0.443333 -0.0115297 0)
(-0.443359 -0.012287 0)
(-0.442854 -0.0128826 0)
(-0.441918 -0.0133402 0)
(-0.440631 -0.0136797 0)
(-0.439057 -0.0139182 0)
(-0.437248 -0.0140704 0)
(-0.435247 -0.0141489 0)
(-0.433092 -0.0141648 0)
(-0.430813 -0.0141271 0)
(-0.428438 -0.014044 0)
(-0.425992 -0.0139219 0)
(-0.423495 -0.0137663 0)
(-0.420966 -0.0135815 0)
(-0.418424 -0.0133708 0)
(-0.415882 -0.0131368 0)
(-0.413356 -0.0128813 0)
(-0.410858 -0.0126058 0)
(-0.408399 -0.0123118 0)
(-0.405989 -0.012001 0)
(-0.403637 -0.0116754 0)
(-0.401353 -0.0113382 0)
(-0.399141 -0.010994 0)
(-0.397008 -0.0106486 0)
(-0.394958 -0.0103102 0)
(-0.392993 -0.00998835 0)
(-0.391111 -0.00969391 0)
(-0.38931 -0.00943705 0)
(-0.387581 -0.00922474 0)
(-0.385915 -0.00905798 0)
(-0.384304 -0.00893086 0)
(-0.382742 -0.00883324 0)
(-0.381229 -0.00875544 0)
(-0.379764 -0.00869136 0)
(-0.378346 -0.00863794 0)
(-0.376973 -0.00859323 0)
(-0.375644 -0.00855552 0)
(-0.374358 -0.00852354 0)
(-0.373115 -0.0084967 0)
(-0.3719 -0.00847454 0)
(-0.370699 -0.00845635 0)
(-0.369514 -0.00844124 0)
(-0.368342 -0.00842931 0)
(-0.367173 -0.00842173 0)
(-0.366009 -0.00841819 0)
(-0.364856 -0.00841713 0)
(-0.363707 -0.00841943 0)
(-0.362551 -0.00842676 0)
(-0.361394 -0.0084382 0)
(-0.360236 -0.0084532 0)
(-0.35907 -0.00847333 0)
(-0.357894 -0.00849864 0)
(-0.356712 -0.00852864 0)
(-0.355512 -0.00856496 0)
(-0.354298 -0.00860767 0)
(-0.353083 -0.00865507 0)
(-0.351852 -0.00870911 0)
(-0.350594 -0.00877145 0)
(-0.349332 -0.00883967 0)
(-0.348063 -0.00891381 0)
(-0.34678 -0.00899494 0)
(-0.345489 -0.00908176 0)
(-0.344184 -0.00917411 0)
(-0.342875 -0.0092707 0)
(-0.341571 -0.00936993 0)
(-0.340248 -0.00947412 0)
(-0.338914 -0.00958317 0)
(-0.337581 -0.00969558 0)
(-0.336227 -0.00981426 0)
(-0.334861 -0.00993852 0)
(-0.333489 -0.0100678 0)
(-0.33209 -0.0102048 0)
(-0.330642 -0.0103527 0)
(-0.329183 -0.0105086 0)
(-0.327846 -0.0106564 0)
(-0.326737 -0.010783 0)
(-0.325891 -0.0108837 0)
(-0.325282 -0.0109566 0)
(-0.324532 -0.0110819 0)
(-0.233703 -0.0394965 0)
(-0.233698 -0.0394962 0)
(-0.233694 -0.0394963 0)
(-0.233691 -0.0394963 0)
(-0.233689 -0.0394963 0)
(-0.233687 -0.0394963 0)
(-0.233685 -0.0394963 0)
(-0.233684 -0.0394963 0)
(-0.233683 -0.0394963 0)
(-0.233682 -0.0394963 0)
(-0.233681 -0.0394963 0)
(-0.233681 -0.0394963 0)
(-0.23368 -0.0394963 0)
(-0.23368 -0.0394963 0)
(-0.233679 -0.0394963 0)
(-0.233679 -0.0394963 0)
(-0.233679 -0.0394963 0)
(-0.233679 -0.0394963 0)
(-0.233679 -0.0394963 0)
(-0.233678 -0.0394963 0)
(-0.233678 -0.0394963 0)
(-0.233678 -0.0394963 0)
(-0.233678 -0.0394963 0)
(-0.233678 -0.0394963 0)
(-0.233678 -0.0394963 0)
(-0.233678 -0.0394963 0)
(-0.233678 -0.0394963 0)
(-0.233678 -0.0394963 0)
(-0.233678 -0.0394963 0)
(-0.233678 -0.0394963 0)
(-0.233678 -0.0394963 0)
(-0.233678 -0.0394963 0)
(-0.233678 -0.0394963 0)
(-0.233678 -0.0394963 0)
(-0.233678 -0.0394963 0)
(-0.233678 -0.0394963 0)
(-0.233678 -0.0394963 0)
(-0.233678 -0.0394963 0)
(-0.233678 -0.0394963 0)
(-0.233678 -0.0394963 0)
(-0.233678 -0.0394963 0)
(-0.233678 -0.0394963 0)
(-0.233678 -0.0394963 0)
(-0.233678 -0.0394963 0)
(-0.233678 -0.0394963 0)
(-0.233678 -0.0394963 0)
(-0.233678 -0.0394963 0)
(-0.233678 -0.0394963 0)
(-0.233678 -0.0394963 0)
(-0.233678 -0.0394963 0)
(-0.233678 -0.0394963 0)
(-0.233678 -0.0394963 0)
(-0.233678 -0.0394963 0)
(-0.233678 -0.0394963 0)
(-0.233678 -0.0394963 0)
(-0.233678 -0.0394963 0)
(-0.233678 -0.0394963 0)
(-0.233678 -0.0394963 0)
(-0.233678 -0.0394963 0)
(-0.233678 -0.0394963 0)
(-0.233678 -0.0394963 0)
(-0.233678 -0.0394963 0)
(-0.233678 -0.0394963 0)
(-0.233678 -0.0394963 0)
(-0.233678 -0.0394963 0)
(-0.233678 -0.0394963 0)
(-0.233678 -0.0394963 0)
(-0.233678 -0.0394963 0)
(-0.233678 -0.0394963 0)
(-0.233678 -0.0394963 0)
(-0.233678 -0.0394963 0)
(-0.233678 -0.0394963 0)
(-0.233678 -0.0394963 0)
(-0.233678 -0.0394963 0)
(-0.233678 -0.0394963 0)
(-0.233678 -0.0394963 0)
(-0.233678 -0.0394963 0)
(-0.233678 -0.0394963 0)
(-0.233678 -0.0394963 0)
(-0.233678 -0.0394963 0)
(-0.233678 -0.0394963 0)
(-0.233678 -0.0394963 0)
(-0.233678 -0.0394963 0)
(-0.233678 -0.0394963 0)
(-0.233678 -0.0394963 0)
(-0.233678 -0.0394963 0)
(-0.233678 -0.0394963 0)
(-0.233678 -0.0394963 0)
(-0.233678 -0.0394963 0)
(-0.233678 -0.0394963 0)
(-0.233678 -0.0394963 0)
(-0.233678 -0.0394963 0)
(-0.233678 -0.0394963 0)
(-0.233678 -0.0394963 0)
(-0.233678 -0.0394963 0)
(-0.233678 -0.0394963 0)
(-0.233678 -0.0394963 0)
(-0.233678 -0.0394963 0)
(-0.233678 -0.0394963 0)
(-0.233678 -0.0394963 0)
(-0.233678 -0.0394963 0)
(-0.233678 -0.0394963 0)
(-0.233678 -0.0394963 0)
(-0.233678 -0.0394963 0)
(-0.233678 -0.0394963 0)
(-0.233678 -0.0394963 0)
(-0.233678 -0.0394963 0)
(-0.233678 -0.0394963 0)
(-0.233678 -0.0394963 0)
(-0.233678 -0.0394963 0)
(-0.233678 -0.0394963 0)
(-0.233678 -0.0394963 0)
(-0.233678 -0.0394963 0)
(-0.233678 -0.0394963 0)
(-0.233678 -0.0394963 0)
(-0.233678 -0.0394961 0)
(-0.233677 -0.0394876 0)
(-0.233647 -0.0391417 0)
(-0.232968 -0.0223943 0)
)
;

boundaryField
{
    inandouthalf11
    {
        type            cyclic;
    }
    inandouthalf12
    {
        type            cyclic;
    }
    inandouthalf21
    {
        type            cyclic;
    }
    inandouthalf22
    {
        type            cyclic;
    }
    inandouthalf31
    {
        type            cyclic;
    }
    inandouthalf32
    {
        type            cyclic;
    }
    inandouthalf41
    {
        type            cyclic;
    }
    inandouthalf42
    {
        type            cyclic;
    }
    top
    {
        type            symmetryPlane;
    }
    walls
    {
        type            fixedValue;
        value           uniform (0 0 0);
    }
    frontAndBackPlanes
    {
        type            empty;
    }
}


// ************************************************************************* //
