/*--------------------------------*- C++ -*----------------------------------*\
| =========                 |                                                 |
| \\      /  F ield         | OpenFOAM: The Open Source CFD Toolbox           |
|  \\    /   O peration     | Version:  2.4.x                                 |
|   \\  /    A nd           | Web:      www.OpenFOAM.org                      |
|    \\/     M anipulation  |                                                 |
\*---------------------------------------------------------------------------*/
FoamFile
{
    version     2.0;
    format      ascii;
    class       volVectorField;
    location    "3.4";
    object      Ub;
}
// * * * * * * * * * * * * * * * * * * * * * * * * * * * * * * * * * * * * * //

dimensions      [0 1 -1 0 0 0 0];

internalField   nonuniform List<vector> 
360
(
(-0.000224825 1.38136e-07 0)
(-0.000224586 6.22471e-07 0)
(-0.00022441 1.31457e-06 0)
(-0.00022454 1.97581e-06 0)
(-0.000224719 2.58972e-06 0)
(-0.00022489 3.1889e-06 0)
(-0.000225065 3.80066e-06 0)
(-0.000225239 4.43346e-06 0)
(-0.000225403 5.0806e-06 0)
(-0.000225564 5.73086e-06 0)
(-0.000225726 6.3777e-06 0)
(-0.000225889 7.02178e-06 0)
(-0.000226054 7.67036e-06 0)
(-0.000226222 8.33571e-06 0)
(-0.000226395 9.03511e-06 0)
(-0.000226582 9.79177e-06 0)
(-0.000226787 1.06334e-05 0)
(-0.000227019 1.15842e-05 0)
(-0.000227278 1.26447e-05 0)
(-0.000227553 1.37629e-05 0)
(-0.000227811 1.48196e-05 0)
(-0.000228017 1.56715e-05 0)
(-0.000228151 1.62375e-05 0)
(-0.000228221 1.65446e-05 0)
(-0.000228253 1.66844e-05 0)
(-0.000228268 1.67418e-05 0)
(-0.000228275 1.67656e-05 0)
(-0.000228282 1.67771e-05 0)
(-0.000228288 1.6784e-05 0)
(-0.000228294 1.67894e-05 0)
(-0.0002283 1.67944e-05 0)
(-0.000228308 1.67998e-05 0)
(-0.000228314 1.68057e-05 0)
(-0.000228324 1.68126e-05 0)
(-0.000228333 1.682e-05 0)
(-0.000228344 1.6828e-05 0)
(-0.000228354 1.68361e-05 0)
(-0.000228367 1.68443e-05 0)
(-0.000228381 1.68525e-05 0)
(-0.000228393 1.68603e-05 0)
(-0.000228409 1.68681e-05 0)
(-0.000228425 1.68756e-05 0)
(-0.00022844 1.68831e-05 0)
(-0.00022846 1.68905e-05 0)
(-0.000228479 1.68979e-05 0)
(-0.0002285 1.69053e-05 0)
(-0.000228522 1.69128e-05 0)
(-0.000228545 1.69204e-05 0)
(-0.00022857 1.6928e-05 0)
(-0.000228599 1.69358e-05 0)
(-0.000228628 1.69436e-05 0)
(-0.000228659 1.69516e-05 0)
(-0.000228693 1.69597e-05 0)
(-0.000228729 1.69681e-05 0)
(-0.000228766 1.69765e-05 0)
(-0.000228807 1.69852e-05 0)
(-0.000228849 1.6994e-05 0)
(-0.000228895 1.70031e-05 0)
(-0.000228943 1.70124e-05 0)
(-0.000228992 1.7022e-05 0)
(-0.000229045 1.70319e-05 0)
(-0.000229099 1.7042e-05 0)
(-0.000229156 1.70524e-05 0)
(-0.000229214 1.7063e-05 0)
(-0.000229273 1.70737e-05 0)
(-0.000229333 1.70845e-05 0)
(-0.000229396 1.70955e-05 0)
(-0.000229461 1.71066e-05 0)
(-0.000229528 1.71178e-05 0)
(-0.000229597 1.71293e-05 0)
(-0.00022967 1.7141e-05 0)
(-0.000229745 1.71532e-05 0)
(-0.000229822 1.71657e-05 0)
(-0.000229903 1.71788e-05 0)
(-0.000229985 1.71924e-05 0)
(-0.00023007 1.72065e-05 0)
(-0.000230156 1.72211e-05 0)
(-0.000230244 1.72361e-05 0)
(-0.000230334 1.72514e-05 0)
(-0.000230427 1.72671e-05 0)
(-0.000230521 1.72831e-05 0)
(-0.000230619 1.72993e-05 0)
(-0.000230719 1.73159e-05 0)
(-0.000230822 1.73327e-05 0)
(-0.000230927 1.73499e-05 0)
(-0.000231035 1.73675e-05 0)
(-0.000231146 1.73854e-05 0)
(-0.000231258 1.74038e-05 0)
(-0.000231374 1.74224e-05 0)
(-0.000231492 1.74414e-05 0)
(-0.000231612 1.74606e-05 0)
(-0.000231735 1.74801e-05 0)
(-0.000231861 1.74998e-05 0)
(-0.00023199 1.75196e-05 0)
(-0.000232121 1.75396e-05 0)
(-0.000232256 1.75598e-05 0)
(-0.000232394 1.75801e-05 0)
(-0.000232535 1.76006e-05 0)
(-0.00023268 1.76212e-05 0)
(-0.000232827 1.76418e-05 0)
(-0.000232978 1.76626e-05 0)
(-0.000233133 1.76835e-05 0)
(-0.000233291 1.77044e-05 0)
(-0.000233453 1.77253e-05 0)
(-0.000233619 1.77461e-05 0)
(-0.000233789 1.7767e-05 0)
(-0.000233963 1.77877e-05 0)
(-0.000234141 1.78083e-05 0)
(-0.000234324 1.78287e-05 0)
(-0.000234511 1.7849e-05 0)
(-0.000234704 1.7869e-05 0)
(-0.000234901 1.78888e-05 0)
(-0.000235104 1.79084e-05 0)
(-0.000235312 1.79277e-05 0)
(-0.000235526 1.79467e-05 0)
(-0.000235746 1.79655e-05 0)
(-0.000235972 1.79841e-05 0)
(-0.000236205 1.80026e-05 0)
(-0.000236445 1.8021e-05 0)
(-0.000236693 1.80394e-05 0)
(-0.000236949 1.80579e-05 0)
(-0.000237213 1.80765e-05 0)
(-0.000237486 1.80953e-05 0)
(-0.000237768 1.81143e-05 0)
(-0.00023806 1.81336e-05 0)
(-0.000238362 1.81532e-05 0)
(-0.000238676 1.81729e-05 0)
(-0.000239001 1.81926e-05 0)
(-0.000239338 1.82121e-05 0)
(-0.00023969 1.82311e-05 0)
(-0.000240055 1.82493e-05 0)
(-0.000240435 1.82665e-05 0)
(-0.000240831 1.82821e-05 0)
(-0.000241247 1.82959e-05 0)
(-0.000241688 1.83076e-05 0)
(-0.000242154 1.83172e-05 0)
(-0.000242642 1.8324e-05 0)
(-0.000243158 1.83272e-05 0)
(-0.000243726 1.8326e-05 0)
(-0.000244374 1.83204e-05 0)
(-0.000245076 1.83109e-05 0)
(-0.000245738 1.82912e-05 0)
(-0.000246519 1.8264e-05 0)
(-0.000247529 1.82288e-05 0)
(-0.000248767 1.81685e-05 0)
(-0.0002508 1.80061e-05 0)
(-0.000256917 1.81494e-05 0)
(-0.000257033 1.67068e-05 0)
(-0.000297123 2.96544e-05 0)
(-0.0257045 -3.46492e-05 0)
(-0.156405 -0.000639637 0)
(-0.261808 -0.000217063 0)
(-0.331031 -0.000215795 0)
(-0.379681 -8.5e-05 0)
(-0.413008 -3.50019e-05 0)
(-0.434513 -1.66217e-06 0)
(-0.447632 1.30234e-05 0)
(-0.455397 1.82633e-05 0)
(-0.459916 1.97406e-05 0)
(-0.462445 1.97666e-05 0)
(-0.463695 1.91566e-05 0)
(-0.46407 1.82359e-05 0)
(-0.463812 1.71689e-05 0)
(-0.463068 1.60463e-05 0)
(-0.461938 1.49187e-05 0)
(-0.460487 1.3814e-05 0)
(-0.458765 1.2748e-05 0)
(-0.456807 1.17299e-05 0)
(-0.454643 1.07642e-05 0)
(-0.452295 9.8533e-06 0)
(-0.449783 8.99795e-06 0)
(-0.447123 8.19783e-06 0)
(-0.44433 7.45202e-06 0)
(-0.441415 6.7591e-06 0)
(-0.43839 6.1173e-06 0)
(-0.435264 5.52453e-06 0)
(-0.432047 4.97841e-06 0)
(-0.428747 4.47626e-06 0)
(-0.42537 4.01521e-06 0)
(-0.421924 3.59216e-06 0)
(-0.418415 3.20384e-06 0)
(-0.414848 2.84692e-06 0)
(-0.411229 2.51802e-06 0)
(-0.407563 2.21381e-06 0)
(-0.403853 1.93114e-06 0)
(-0.400105 1.6672e-06 0)
(-0.396322 1.4199e-06 0)
(-0.392507 1.1884e-06 0)
(-0.388665 9.73795e-07 0)
(-0.384799 7.79649e-07 0)
(-0.380912 6.11536e-07 0)
(-0.377007 4.74852e-07 0)
(-0.373086 3.71388e-07 0)
(-0.369153 2.97171e-07 0)
(-0.36521 2.44063e-07 0)
(-0.36126 2.04071e-07 0)
(-0.357305 1.72314e-07 0)
(-0.353348 1.46602e-07 0)
(-0.34939 1.25672e-07 0)
(-0.345434 1.08344e-07 0)
(-0.341482 9.36918e-08 0)
(-0.337497 8.11997e-08 0)
(-0.333439 7.06782e-08 0)
(-0.32931 6.16924e-08 0)
(-0.325112 5.3624e-08 0)
(-0.320846 4.64591e-08 0)
(-0.316515 4.05137e-08 0)
(-0.312123 3.5477e-08 0)
(-0.307672 3.08219e-08 0)
(-0.303166 2.66669e-08 0)
(-0.298612 2.32062e-08 0)
(-0.294014 2.01884e-08 0)
(-0.289381 1.74723e-08 0)
(-0.284722 1.51328e-08 0)
(-0.280048 1.30859e-08 0)
(-0.275372 1.12684e-08 0)
(-0.27071 9.75124e-09 0)
(-0.266084 8.44615e-09 0)
(-0.261521 7.22833e-09 0)
(-0.257053 6.17559e-09 0)
(-0.252729 5.31931e-09 0)
(-0.248613 4.56898e-09 0)
(-0.244799 3.93229e-09 0)
(-0.24144 3.07089e-09 0)
(-0.239098 3.27666e-09 0)
(-0.23851 1.5233e-09 0)
(-0.238445 3.16686e-09 0)
(-0.238407 1.44116e-10 0)
(-0.238375 3.19931e-09 0)
(-0.238346 -9.69473e-10 0)
(-0.238321 3.38245e-09 0)
(-0.238299 -1.97518e-09 0)
(-0.238279 3.72482e-09 0)
(-0.238262 -2.90045e-09 0)
(-0.238248 4.13365e-09 0)
(-0.238235 -3.73007e-09 0)
(-0.238224 4.72671e-09 0)
(-0.238214 -4.44977e-09 0)
(-0.238206 5.42667e-09 0)
(-0.2382 -5.31457e-09 0)
(-0.238194 5.91389e-09 0)
(-0.238189 -6.15795e-09 0)
(-0.238184 6.51048e-09 0)
(-0.23818 -6.86034e-09 0)
(-0.238177 7.23653e-09 0)
(-0.238175 -7.6148e-09 0)
(-0.238173 8.01888e-09 0)
(-0.238171 -8.42584e-09 0)
(-0.238169 8.8581e-09 0)
(-0.238168 -9.29407e-09 0)
(-0.238167 9.75483e-09 0)
(-0.238166 -1.02202e-08 0)
(-0.238166 1.07098e-08 0)
(-0.238165 -1.12049e-08 0)
(-0.238165 1.17237e-08 0)
(-0.238165 -1.2249e-08 0)
(-0.238164 1.27974e-08 0)
(-0.238164 -1.33534e-08 0)
(-0.238164 1.39318e-08 0)
(-0.238164 -1.45189e-08 0)
(-0.238164 1.51279e-08 0)
(-0.238164 -1.57465e-08 0)
(-0.238164 1.63864e-08 0)
(-0.238164 -1.70371e-08 0)
(-0.238163 1.77086e-08 0)
(-0.238163 -1.83918e-08 0)
(-0.238163 1.90954e-08 0)
(-0.238163 -1.98115e-08 0)
(-0.238163 2.0548e-08 0)
(-0.238163 -2.12975e-08 0)
(-0.238163 2.20673e-08 0)
(-0.238163 -2.28508e-08 0)
(-0.238163 2.36545e-08 0)
(-0.238163 -2.44725e-08 0)
(-0.238163 2.53107e-08 0)
(-0.238163 -2.61636e-08 0)
(-0.238163 2.70368e-08 0)
(-0.238163 -2.79252e-08 0)
(-0.238163 2.88339e-08 0)
(-0.238163 -2.97583e-08 0)
(-0.238163 3.07031e-08 0)
(-0.238163 -3.1664e-08 0)
(-0.238163 3.26454e-08 0)
(-0.238163 -3.36433e-08 0)
(-0.238163 3.46617e-08 0)
(-0.238163 -3.56971e-08 0)
(-0.238163 3.6753e-08 0)
(-0.238163 -3.78263e-08 0)
(-0.238163 3.892e-08 0)
(-0.238163 -4.00317e-08 0)
(-0.238163 4.11636e-08 0)
(-0.238163 -4.23139e-08 0)
(-0.238163 4.34844e-08 0)
(-0.238163 -4.46735e-08 0)
(-0.238163 4.58827e-08 0)
(-0.238163 -4.71108e-08 0)
(-0.238163 4.83588e-08 0)
(-0.238163 -4.96259e-08 0)
(-0.238163 5.09126e-08 0)
(-0.238163 -5.22185e-08 0)
(-0.238163 5.35438e-08 0)
(-0.238163 -5.4888e-08 0)
(-0.238163 5.62511e-08 0)
(-0.238163 -5.76327e-08 0)
(-0.238163 5.90327e-08 0)
(-0.238163 -6.04504e-08 0)
(-0.238163 6.18855e-08 0)
(-0.238163 -6.3337e-08 0)
(-0.238163 6.48041e-08 0)
(-0.238163 -6.62856e-08 0)
(-0.238163 5.94726e-08 0)
(-0.238163 -5.96059e-08 0)
(-0.238163 5.97244e-08 0)
(-0.238163 -5.98264e-08 0)
(-0.238163 5.99103e-08 0)
(-0.238163 -5.99723e-08 0)
(-0.238163 6.00046e-08 0)
(-0.238163 -5.9972e-08 0)
(-0.238163 5.99203e-08 0)
(-0.238163 -5.98564e-08 0)
(-0.238163 5.97836e-08 0)
(-0.238163 -5.97034e-08 0)
(-0.238163 5.96173e-08 0)
(-0.238163 -5.9526e-08 0)
(-0.238163 5.94305e-08 0)
(-0.238163 -5.93312e-08 0)
(-0.238163 5.92289e-08 0)
(-0.238163 -5.91237e-08 0)
(-0.238163 5.90165e-08 0)
(-0.238163 -5.89069e-08 0)
(-0.238163 5.87965e-08 0)
(-0.238163 -5.86836e-08 0)
(-0.238163 5.85713e-08 0)
(-0.238163 -5.84564e-08 0)
(-0.238163 5.83432e-08 0)
(-0.238163 -5.82275e-08 0)
(-0.238163 5.81144e-08 0)
(-0.238163 -5.79986e-08 0)
(-0.238163 5.78865e-08 0)
(-0.238163 -5.77718e-08 0)
(-0.238163 5.76615e-08 0)
(-0.238163 -5.75488e-08 0)
(-0.238163 5.74411e-08 0)
(-0.238163 -5.73315e-08 0)
(-0.238163 5.7227e-08 0)
(-0.238163 -5.71215e-08 0)
(-0.238163 5.70213e-08 0)
(-0.238163 -5.69207e-08 0)
(-0.238163 5.68255e-08 0)
(-0.238163 -5.67313e-08 0)
(-0.238163 5.66418e-08 0)
(-0.238163 -5.65555e-08 0)
(-0.238163 5.64724e-08 0)
(-0.238163 -5.63957e-08 0)
(-0.238163 5.63201e-08 0)
(-0.238163 -5.62549e-08 0)
(-0.238163 5.6189e-08 0)
(-0.238163 -5.61382e-08 0)
(-0.238163 5.60854e-08 0)
(-0.238163 -5.60527e-08 0)
)
;

boundaryField
{
    inandouthalf11
    {
        type            cyclic;
    }
    inandouthalf12
    {
        type            cyclic;
    }
    inandouthalf21
    {
        type            cyclic;
    }
    inandouthalf22
    {
        type            cyclic;
    }
    inandouthalf31
    {
        type            cyclic;
    }
    inandouthalf32
    {
        type            cyclic;
    }
    inandouthalf41
    {
        type            cyclic;
    }
    inandouthalf42
    {
        type            cyclic;
    }
    top
    {
        type            symmetryPlane;
    }
    walls
    {
        type            fixedValue;
        value           uniform (0 0 0);
    }
    frontAndBackPlanes
    {
        type            empty;
    }
}


// ************************************************************************* //
