/*--------------------------------*- C++ -*----------------------------------*\
| =========                 |                                                 |
| \\      /  F ield         | OpenFOAM: The Open Source CFD Toolbox           |
|  \\    /   O peration     | Version:  2.4.x                                 |
|   \\  /    A nd           | Web:      www.OpenFOAM.org                      |
|    \\/     M anipulation  |                                                 |
\*---------------------------------------------------------------------------*/
FoamFile
{
    version     2.0;
    format      ascii;
    class       volVectorField;
    location    "3.4";
    object      Ur;
}
// * * * * * * * * * * * * * * * * * * * * * * * * * * * * * * * * * * * * * //

dimensions      [0 1 -1 0 0 0 0];

internalField   nonuniform List<vector> 
360
(
(-0.000224825 1.38136e-07 0)
(-0.000224506 1.00117e-06 0)
(-0.00022421 2.17043e-06 0)
(-0.000224227 3.24645e-06 0)
(-0.000224302 4.24202e-06 0)
(-0.000224372 5.21927e-06 0)
(-0.000224443 6.22046e-06 0)
(-0.00022451 7.25845e-06 0)
(-0.000224566 8.32088e-06 0)
(-0.000224619 9.38759e-06 0)
(-0.000224674 1.04474e-05 0)
(-0.000224731 1.15018e-05 0)
(-0.00022479 1.25629e-05 0)
(-0.00022485 1.36508e-05 0)
(-0.000224911 1.47937e-05 0)
(-0.000224976 1.60296e-05 0)
(-0.000225049 1.74051e-05 0)
(-0.000225131 1.8963e-05 0)
(-0.000225223 2.07098e-05 0)
(-0.000225322 2.25647e-05 0)
(-0.000225415 2.43257e-05 0)
(-0.000225492 2.57386e-05 0)
(-0.000225544 2.66604e-05 0)
(-0.000225573 2.71465e-05 0)
(-0.000225588 2.73619e-05 0)
(-0.000225595 2.74492e-05 0)
(-0.0002256 2.74857e-05 0)
(-0.000225605 2.75037e-05 0)
(-0.00022561 2.75148e-05 0)
(-0.000225615 2.75235e-05 0)
(-0.00022562 2.75317e-05 0)
(-0.000225626 2.75406e-05 0)
(-0.000225631 2.75505e-05 0)
(-0.00022564 2.75619e-05 0)
(-0.000225647 2.75743e-05 0)
(-0.000225656 2.75876e-05 0)
(-0.000225664 2.76013e-05 0)
(-0.000225675 2.7615e-05 0)
(-0.000225686 2.76286e-05 0)
(-0.000225697 2.76417e-05 0)
(-0.00022571 2.76548e-05 0)
(-0.000225724 2.76675e-05 0)
(-0.000225737 2.768e-05 0)
(-0.000225754 2.76926e-05 0)
(-0.000225771 2.77051e-05 0)
(-0.000225789 2.77177e-05 0)
(-0.000225809 2.77305e-05 0)
(-0.000225829 2.77434e-05 0)
(-0.000225852 2.77564e-05 0)
(-0.000225878 2.77698e-05 0)
(-0.000225903 2.77832e-05 0)
(-0.000225932 2.77971e-05 0)
(-0.000225962 2.78111e-05 0)
(-0.000225994 2.78255e-05 0)
(-0.000226028 2.78401e-05 0)
(-0.000226066 2.78552e-05 0)
(-0.000226104 2.78706e-05 0)
(-0.000226145 2.78865e-05 0)
(-0.000226189 2.79029e-05 0)
(-0.000226234 2.79197e-05 0)
(-0.000226283 2.79371e-05 0)
(-0.000226332 2.79549e-05 0)
(-0.000226383 2.79732e-05 0)
(-0.000226436 2.79918e-05 0)
(-0.00022649 2.80107e-05 0)
(-0.000226545 2.80298e-05 0)
(-0.000226602 2.80492e-05 0)
(-0.000226661 2.80688e-05 0)
(-0.000226722 2.80887e-05 0)
(-0.000226785 2.8109e-05 0)
(-0.000226851 2.81299e-05 0)
(-0.00022692 2.81515e-05 0)
(-0.00022699 2.81737e-05 0)
(-0.000227063 2.8197e-05 0)
(-0.000227138 2.82211e-05 0)
(-0.000227215 2.82461e-05 0)
(-0.000227293 2.8272e-05 0)
(-0.000227373 2.82986e-05 0)
(-0.000227454 2.83258e-05 0)
(-0.000227538 2.83536e-05 0)
(-0.000227623 2.83819e-05 0)
(-0.000227711 2.84107e-05 0)
(-0.000227801 2.84401e-05 0)
(-0.000227894 2.847e-05 0)
(-0.000227989 2.85006e-05 0)
(-0.000228086 2.85318e-05 0)
(-0.000228186 2.85637e-05 0)
(-0.000228288 2.85963e-05 0)
(-0.000228392 2.86296e-05 0)
(-0.000228498 2.86634e-05 0)
(-0.000228606 2.86977e-05 0)
(-0.000228717 2.87324e-05 0)
(-0.00022883 2.87675e-05 0)
(-0.000228946 2.8803e-05 0)
(-0.000229065 2.88388e-05 0)
(-0.000229187 2.8875e-05 0)
(-0.000229311 2.89115e-05 0)
(-0.000229439 2.89483e-05 0)
(-0.000229569 2.89854e-05 0)
(-0.000229703 2.90227e-05 0)
(-0.00022984 2.90603e-05 0)
(-0.00022998 2.90981e-05 0)
(-0.000230124 2.91361e-05 0)
(-0.000230271 2.91741e-05 0)
(-0.000230422 2.92122e-05 0)
(-0.000230577 2.92504e-05 0)
(-0.000230736 2.92885e-05 0)
(-0.000230899 2.93265e-05 0)
(-0.000231066 2.93643e-05 0)
(-0.000231238 2.9402e-05 0)
(-0.000231415 2.94394e-05 0)
(-0.000231596 2.94766e-05 0)
(-0.000231783 2.95135e-05 0)
(-0.000231975 2.95501e-05 0)
(-0.000232173 2.95865e-05 0)
(-0.000232377 2.96226e-05 0)
(-0.000232587 2.96586e-05 0)
(-0.000232804 2.96945e-05 0)
(-0.000233027 2.97304e-05 0)
(-0.000233258 2.97666e-05 0)
(-0.000233496 2.9803e-05 0)
(-0.000233742 2.98399e-05 0)
(-0.000233996 2.98773e-05 0)
(-0.000234259 2.99154e-05 0)
(-0.000234531 2.99542e-05 0)
(-0.000234812 2.99936e-05 0)
(-0.000235104 3.00335e-05 0)
(-0.000235406 3.00738e-05 0)
(-0.000235721 3.0114e-05 0)
(-0.000236049 3.01538e-05 0)
(-0.00023639 3.01927e-05 0)
(-0.000236745 3.02301e-05 0)
(-0.000237117 3.02654e-05 0)
(-0.000237509 3.02982e-05 0)
(-0.000237925 3.03283e-05 0)
(-0.000238367 3.03553e-05 0)
(-0.000238831 3.03784e-05 0)
(-0.000239323 3.03967e-05 0)
(-0.000239869 3.0409e-05 0)
(-0.000240496 3.04152e-05 0)
(-0.00024118 3.04151e-05 0)
(-0.000241831 3.04016e-05 0)
(-0.000242604 3.03775e-05 0)
(-0.00024361 3.03435e-05 0)
(-0.000244847 3.02837e-05 0)
(-0.000246879 3.01213e-05 0)
(-0.000252994 3.02654e-05 0)
(-0.000252917 2.89393e-05 0)
(-0.000291874 4.19896e-05 0)
(-0.00212227 -7.08373e-05 0)
(-0.0205525 -0.0021018 0)
(-0.0194713 -0.0027763 0)
(-0.0197079 -0.0031558 0)
(-0.0224556 -0.00290401 0)
(-0.0256708 -0.00204895 0)
(-0.0276168 -0.000339173 0)
(-0.0277993 0.00192372 0)
(-0.0267932 0.00422991 0)
(-0.0253121 0.00627662 0)
(-0.0237934 0.00799878 0)
(-0.0224269 0.00942449 0)
(-0.0212698 0.010592 0)
(-0.0203188 0.011538 0)
(-0.0195466 0.0122947 0)
(-0.0189189 0.0128898 0)
(-0.0184017 0.0133467 0)
(-0.0179638 0.0136856 0)
(-0.0175782 0.0139236 0)
(-0.017221 0.0140753 0)
(-0.016872 0.0141533 0)
(-0.0165137 0.0141687 0)
(-0.016131 0.0141306 0)
(-0.0157104 0.014047 0)
(-0.0152405 0.0139246 0)
(-0.0147108 0.0137686 0)
(-0.0141121 0.0135835 0)
(-0.0134362 0.0133725 0)
(-0.0126758 0.0131382 0)
(-0.0118241 0.0128825 0)
(-0.0108754 0.0126068 0)
(-0.00982427 0.0123126 0)
(-0.00866626 0.0120016 0)
(-0.00739744 0.0116759 0)
(-0.00601466 0.0113386 0)
(-0.00451561 0.0109942 0)
(-0.002899 0.0106489 0)
(-0.00116493 0.0103104 0)
(0.000684767 0.0099886 0)
(0.00264587 0.00969421 0)
(0.00471118 0.00943743 0)
(0.0068703 0.00922522 0)
(0.00911056 0.00905855 0)
(0.0114202 0.0089315 0)
(0.0137916 0.00883394 0)
(0.0162216 0.00875618 0)
(0.0187073 0.00869213 0)
(0.0212445 0.00863873 0)
(0.0238293 0.00859404 0)
(0.0264585 0.00855634 0)
(0.0291295 0.00852438 0)
(0.0318386 0.00849754 0)
(0.0346092 0.00847539 0)
(0.0374667 0.00845721 0)
(0.040411 0.00844209 0)
(0.0434372 0.00843016 0)
(0.0465347 0.00842258 0)
(0.0497014 0.00841903 0)
(0.0529415 0.00841798 0)
(0.056244 0.00842027 0)
(0.0595936 0.00842759 0)
(0.0629906 0.00843902 0)
(0.0664312 0.00845401 0)
(0.0698975 0.00847413 0)
(0.0733808 0.00849943 0)
(0.0768734 0.00852941 0)
(0.0803505 0.00856572 0)
(0.0837981 0.00860842 0)
(0.0872089 0.0086558 0)
(0.0905412 0.00870983 0)
(0.0937513 0.00877216 0)
(0.0968134 0.00884036 0)
(0.0996612 0.0089145 0)
(0.102191 0.00899562 0)
(0.104259 0.00908245 0)
(0.105297 0.00917481 0)
(0.104576 0.00927141 0)
(0.103337 0.00937066 0)
(0.102052 0.00947487 0)
(0.10075 0.00958395 0)
(0.099446 0.00969637 0)
(0.0981167 0.00981507 0)
(0.0967735 0.00993935 0)
(0.0954206 0.0100687 0)
(0.0940385 0.0102057 0)
(0.0926045 0.0103536 0)
(0.0911579 0.0105096 0)
(0.0898331 0.0106573 0)
(0.088733 0.0107839 0)
(0.087896 0.0108845 0)
(0.0872937 0.0109574 0)
(0.0865497 0.0110827 0)
(-0.00427477 0.0394965 0)
(-0.00427515 0.0394963 0)
(-0.00427482 0.0394963 0)
(-0.0042747 0.0394963 0)
(-0.0042746 0.0394963 0)
(-0.00427451 0.0394963 0)
(-0.00427444 0.0394963 0)
(-0.00427438 0.0394963 0)
(-0.00427434 0.0394963 0)
(-0.0042743 0.0394963 0)
(-0.00427426 0.0394963 0)
(-0.00427424 0.0394963 0)
(-0.00427422 0.0394963 0)
(-0.0042742 0.0394963 0)
(-0.00427419 0.0394963 0)
(-0.00427417 0.0394963 0)
(-0.00427417 0.0394963 0)
(-0.00427416 0.0394963 0)
(-0.00427416 0.0394963 0)
(-0.00427415 0.0394963 0)
(-0.00427415 0.0394963 0)
(-0.00427414 0.0394963 0)
(-0.00427414 0.0394963 0)
(-0.00427414 0.0394963 0)
(-0.00427414 0.0394963 0)
(-0.00427414 0.0394963 0)
(-0.00427414 0.0394963 0)
(-0.00427414 0.0394963 0)
(-0.00427414 0.0394963 0)
(-0.00427414 0.0394963 0)
(-0.00427414 0.0394963 0)
(-0.00427414 0.0394963 0)
(-0.00427414 0.0394963 0)
(-0.00427414 0.0394963 0)
(-0.00427414 0.0394963 0)
(-0.00427414 0.0394963 0)
(-0.00427414 0.0394963 0)
(-0.00427414 0.0394963 0)
(-0.00427414 0.0394963 0)
(-0.00427414 0.0394963 0)
(-0.00427414 0.0394963 0)
(-0.00427414 0.0394963 0)
(-0.00427414 0.0394963 0)
(-0.00427414 0.0394963 0)
(-0.00427414 0.0394963 0)
(-0.00427414 0.0394963 0)
(-0.00427414 0.0394963 0)
(-0.00427414 0.0394963 0)
(-0.00427414 0.0394963 0)
(-0.00427414 0.0394963 0)
(-0.00427414 0.0394963 0)
(-0.00427414 0.0394964 0)
(-0.00427414 0.0394963 0)
(-0.00427414 0.0394964 0)
(-0.00427414 0.0394963 0)
(-0.00427414 0.0394964 0)
(-0.00427414 0.0394963 0)
(-0.00427414 0.0394964 0)
(-0.00427414 0.0394963 0)
(-0.00427414 0.0394964 0)
(-0.00427414 0.0394963 0)
(-0.00427414 0.0394964 0)
(-0.00427414 0.0394963 0)
(-0.00427414 0.0394964 0)
(-0.00427414 0.0394963 0)
(-0.00427414 0.0394964 0)
(-0.00427414 0.0394963 0)
(-0.00427414 0.0394964 0)
(-0.00427414 0.0394963 0)
(-0.00427414 0.0394964 0)
(-0.00427414 0.0394963 0)
(-0.00427414 0.0394964 0)
(-0.00427414 0.0394963 0)
(-0.00427414 0.0394964 0)
(-0.00427414 0.0394963 0)
(-0.00427414 0.0394964 0)
(-0.00427414 0.0394963 0)
(-0.00427414 0.0394964 0)
(-0.00427414 0.0394963 0)
(-0.00427414 0.0394964 0)
(-0.00427414 0.0394963 0)
(-0.00427414 0.0394964 0)
(-0.00427414 0.0394963 0)
(-0.00427414 0.0394964 0)
(-0.00427414 0.0394963 0)
(-0.00427414 0.0394964 0)
(-0.00427414 0.0394963 0)
(-0.00427414 0.0394964 0)
(-0.00427414 0.0394963 0)
(-0.00427414 0.0394964 0)
(-0.00427414 0.0394963 0)
(-0.00427414 0.0394964 0)
(-0.00427414 0.0394963 0)
(-0.00427414 0.0394964 0)
(-0.00427414 0.0394963 0)
(-0.00427414 0.0394964 0)
(-0.00427414 0.0394963 0)
(-0.00427414 0.0394964 0)
(-0.00427414 0.0394963 0)
(-0.00427414 0.0394964 0)
(-0.00427414 0.0394963 0)
(-0.00427414 0.0394964 0)
(-0.00427414 0.0394963 0)
(-0.00427414 0.0394964 0)
(-0.00427414 0.0394963 0)
(-0.00427414 0.0394964 0)
(-0.00427414 0.0394963 0)
(-0.00427414 0.0394964 0)
(-0.00427414 0.0394963 0)
(-0.00427414 0.0394964 0)
(-0.00427414 0.0394963 0)
(-0.00427414 0.0394964 0)
(-0.00427414 0.0394963 0)
(-0.00427414 0.0394964 0)
(-0.00427414 0.0394963 0)
(-0.00427418 0.0394961 0)
(-0.00427539 0.0394876 0)
(-0.00430482 0.0391418 0)
(-0.00498432 0.0223942 0)
)
;

boundaryField
{
    inandouthalf11
    {
        type            cyclic;
    }
    inandouthalf12
    {
        type            cyclic;
    }
    inandouthalf21
    {
        type            cyclic;
    }
    inandouthalf22
    {
        type            cyclic;
    }
    inandouthalf31
    {
        type            cyclic;
    }
    inandouthalf32
    {
        type            cyclic;
    }
    inandouthalf41
    {
        type            cyclic;
    }
    inandouthalf42
    {
        type            cyclic;
    }
    top
    {
        type            symmetryPlane;
    }
    walls
    {
        type            calculated;
        value           uniform (0 0 0);
    }
    frontAndBackPlanes
    {
        type            empty;
    }
}


// ************************************************************************* //
