/*--------------------------------*- C++ -*----------------------------------*\
| =========                 |                                                 |
| \\      /  F ield         | OpenFOAM: The Open Source CFD Toolbox           |
|  \\    /   O peration     | Version:  2.4.x                                 |
|   \\  /    A nd           | Web:      www.OpenFOAM.org                      |
|    \\/     M anipulation  |                                                 |
\*---------------------------------------------------------------------------*/
FoamFile
{
    version     2.0;
    format      ascii;
    class       volScalarField;
    location    "1.9";
    object      alpha;
}
// * * * * * * * * * * * * * * * * * * * * * * * * * * * * * * * * * * * * * //

dimensions      [0 0 0 0 0 0 0];

internalField   nonuniform List<scalar> 
360
(
0.609996
0.609996
0.609995
0.609995
0.609995
0.609994
0.609994
0.609993
0.609993
0.609992
0.609991
0.609991
0.60999
0.609989
0.609988
0.609987
0.609986
0.609985
0.609984
0.609982
0.609981
0.609979
0.609977
0.609975
0.609973
0.609971
0.609969
0.609966
0.609963
0.60996
0.609957
0.609953
0.60995
0.609945
0.609941
0.609936
0.609931
0.609925
0.609918
0.609912
0.609904
0.609896
0.609888
0.609878
0.609868
0.609857
0.609845
0.609833
0.609819
0.609803
0.609787
0.609769
0.60975
0.609729
0.609707
0.609682
0.609656
0.609627
0.609596
0.609563
0.609526
0.609487
0.609444
0.609398
0.609348
0.609294
0.609235
0.609171
0.609102
0.609028
0.608948
0.60887
0.608819
0.608808
0.608823
0.608829
0.608813
0.608776
0.608725
0.608667
0.608607
0.608547
0.608489
0.608434
0.608382
0.60833
0.608277
0.608223
0.608166
0.608107
0.608047
0.607986
0.607923
0.60786
0.607796
0.60773
0.607663
0.607594
0.607524
0.607452
0.607378
0.607303
0.607226
0.607147
0.607066
0.606984
0.606899
0.606812
0.606723
0.606632
0.606539
0.606443
0.606345
0.606245
0.606141
0.606035
0.605927
0.605815
0.605701
0.605583
0.605462
0.605337
0.605209
0.605076
0.60494
0.604798
0.604651
0.604499
0.604341
0.604179
0.604012
0.60384
0.60366
0.603468
0.603262
0.603044
0.60282
0.602588
0.602337
0.602058
0.601777
0.601543
0.601241
0.600807
0.600249
0.599535
0.598632
0.597427
0.595356
0.506195
0.185579
0.0757465
0.0535865
0.0431253
0.0345399
0.0254066
0.016172
0.00858422
0.00378682
0.00144051
0.000577265
0.000306863
0.000211259
0.00015551
0.000125803
0.000100669
8.30849e-05
7.15256e-05
5.92374e-05
5.25088e-05
4.42745e-05
3.98696e-05
3.37646e-05
3.07762e-05
2.65556e-05
2.42544e-05
2.08448e-05
1.92806e-05
1.69594e-05
1.51693e-05
1.38785e-05
1.21807e-05
1.13136e-05
9.90341e-06
9.23673e-06
8.13228e-06
7.5589e-06
6.64058e-06
6.23419e-06
5.58401e-06
5.00187e-06
4.65007e-06
4.14193e-06
3.89583e-06
3.4534e-06
3.20565e-06
2.81485e-06
2.64735e-06
2.40742e-06
2.26434e-06
1.99321e-06
1.82208e-06
1.60528e-06
1.50804e-06
1.42101e-06
1.2661e-06
1.11275e-06
9.77494e-07
9.20658e-07
8.52785e-07
7.43059e-07
6.4314e-07
5.99379e-07
5.52406e-07
4.67163e-07
4.03463e-07
3.76114e-07
3.45968e-07
2.92608e-07
2.46056e-07
2.2494e-07
2.03076e-07
1.68696e-07
1.48555e-07
1.35204e-07
1.10089e-07
9.43008e-08
8.62417e-08
7.23579e-08
5.90135e-08
5.29851e-08
4.51393e-08
3.6465e-08
3.20414e-08
2.55802e-08
2.26147e-08
1.7773e-08
1.53419e-08
1.24306e-08
1.14638e-08
1.10257e-08
1.08458e-08
1.07354e-08
9.52513e-09
6.97639e-10
1.56669e-10
1.33849e-10
1.15432e-10
9.01325e-11
7.58785e-11
5.37e-11
4.53014e-11
3.81128e-11
2.92162e-11
2.40946e-11
1.64568e-11
1.36791e-11
1.16666e-11
8.22378e-12
5.89679e-12
4.94594e-12
3.99775e-12
2.61085e-12
1.98921e-12
1.67285e-12
1.22139e-12
7.88128e-13
6.18099e-13
4.90504e-13
3.11929e-13
2.25823e-13
1.73035e-13
1.13103e-13
8.56589e-14
5.37626e-14
4.05068e-14
2.64627e-14
1.96777e-14
1.15428e-14
8.45415e-15
5.87102e-15
3.53544e-15
2.48971e-15
1.48078e-15
1.04829e-15
5.97402e-16
3.96708e-16
2.2646e-16
1.5678e-16
8.70967e-17
5.5302e-17
3.54571e-17
1.77974e-17
1.01803e-17
3.97989e-18
1.58707e-18
5.63898e-19
2.07664e-19
7.2743e-20
2.38273e-20
7.24306e-21
2.0221e-21
5.1192e-22
1.15793e-22
2.29618e-23
3.89307e-24
5.44667e-25
5.94901e-26
4.57931e-27
1.89056e-28
3.83639e-30
1.28716e-31
2.13151e-33
2.37636e-44
1.32278e-55
5.18577e-67
1.5321e-78
3.78651e-90
1.45553e-101
1.02475e-112
2.3849e-120
3.8052e-131
8.20116e-139
1.30199e-149
2.82096e-157
5.44037e-168
9.70018e-176
2.43486e-186
3.33713e-194
1.68666e-204
1.15329e-212
1.13425e-222
4.0141e-231
5.83042e-241
1.40743e-249
2.76676e-259
4.97853e-268
1.22362e-277
1.77591e-286
5.21906e-296
6.39168e-305
2.15162e-314
2.15907e-321
8.5424e-321
0
0
0
0
0
0
0
0
0
0
0
0
0
0
0
0
)
;

boundaryField
{
    inandouthalf11
    {
        type            cyclic;
    }
    inandouthalf12
    {
        type            cyclic;
    }
    inandouthalf21
    {
        type            cyclic;
    }
    inandouthalf22
    {
        type            cyclic;
    }
    inandouthalf31
    {
        type            cyclic;
    }
    inandouthalf32
    {
        type            cyclic;
    }
    inandouthalf41
    {
        type            cyclic;
    }
    inandouthalf42
    {
        type            cyclic;
    }
    top
    {
        type            symmetryPlane;
    }
    walls
    {
        type            zeroGradient;
    }
    frontAndBackPlanes
    {
        type            empty;
    }
}


// ************************************************************************* //
