/*--------------------------------*- C++ -*----------------------------------*\
| =========                 |                                                 |
| \\      /  F ield         | OpenFOAM: The Open Source CFD Toolbox           |
|  \\    /   O peration     | Version:  2.4.x                                 |
|   \\  /    A nd           | Web:      www.OpenFOAM.org                      |
|    \\/     M anipulation  |                                                 |
\*---------------------------------------------------------------------------*/
FoamFile
{
    version     2.0;
    format      ascii;
    class       volScalarField;
    location    "1.9";
    object      ddt0(alpha);
}
// * * * * * * * * * * * * * * * * * * * * * * * * * * * * * * * * * * * * * //

dimensions      [0 0 -1 0 0 0 0];

internalField   nonuniform List<scalar> 
360
(
2.03142e-13
5.07738e-13
1.27987e-12
-9.02375e-14
-7.76399e-13
-1.35223e-14
-1.15098e-12
-1.10621e-13
-4.03202e-13
-1.1181e-12
-2.7978e-13
-7.57642e-13
1.02596e-12
-6.28211e-14
-2.4915e-20
8.7693e-13
8.32732e-14
1.86857e-13
7.83748e-14
-1.96001e-14
6.52645e-15
-6.28427e-13
-2.57179e-14
-1.06133e-13
-2.62327e-14
-1.05244e-12
-1.96962e-14
6.51051e-15
3.13499e-13
-1.96958e-14
-1.96962e-14
-1.97021e-14
7.83748e-14
-2.77581e-14
-1.94917e-14
3.11866e-13
7.99068e-14
2.60293e-14
-1.95746e-14
4.95997e-13
1.65832e-15
1.01631e-12
-1.2034e-12
6.25579e-13
-2.07272e-17
-2.45926e-14
-1.95937e-14
-2.6125e-14
-1.97021e-14
3.91895e-13
-9.15996e-13
-1.04394e-12
6.13828e-13
-2.73411e-13
3.93406e-13
-1.06133e-13
4.17903e-13
3.13493e-13
-1.34711e-13
4.17978e-13
-1.634e-15
6.68786e-13
6.37972e-18
3.90241e-13
-2.58176e-14
-2.80522e-13
8.37798e-13
-4.78518e-18
-1.02449e-16
2.02175e-12
4.57083e-05
0.000339068
0.000996919
0.00157649
0.00159876
0.00124912
0.000900798
0.000686829
0.000588826
0.00056809
0.000596965
0.000655126
0.000722848
0.00078201
0.000821313
0.000839039
0.000841304
0.00083629
0.000830662
0.000827775
0.000828028
0.000830215
0.000832854
0.000834775
0.000835531
0.000835258
0.000834356
0.000833199
0.000832013
0.000830885
0.000829834
0.000828931
0.000828342
0.000828308
0.00082912
0.000831074
0.00083445
0.000839505
0.000846473
0.000855569
0.000866979
0.000880854
0.000897291
0.000916322
0.000937893
0.000961856
0.00098796
0.00101586
0.00104515
0.0010754
0.00110626
0.00113744
0.00116876
0.00119992
0.00123017
0.00125777
0.00127952
0.00129079
0.00128684
0.00126554
0.00123071
0.00119345
0.00116921
0.00117043
0.00119642
0.00122594
0.00122487
0.00116764
0.0010433
0.000844809
0.000584242
0.000312182
0.000137157
3.87197e-05
-2.36646e-05
-6.82394e-05
-0.000108773
-0.000184005
-0.000672416
0.584956
-0.0859088
-0.256633
-0.220403
-0.168348
-0.0913854
-0.00583808
0.0510825
0.0595431
0.0395917
0.0179877
0.00578192
0.00173693
0.000689862
0.000363561
0.000211916
0.000137844
8.71029e-05
5.79053e-05
3.87941e-05
2.54049e-05
1.6635e-05
1.00112e-05
5.84361e-06
3.18564e-06
6.15693e-07
-1.68514e-06
-1.6284e-06
-1.94567e-06
-4.02927e-06
-2.95742e-06
-3.84146e-06
-3.62853e-06
-3.85749e-06
-3.46246e-06
-3.33791e-06
-3.50304e-06
-3.68123e-06
-2.74477e-06
-2.47386e-06
-3.3643e-06
-2.50128e-06
-2.48538e-06
-2.11827e-06
-2.07545e-06
-2.21308e-06
-2.36373e-06
-1.65745e-06
-1.33646e-06
-1.30375e-06
-1.51792e-06
-1.70569e-06
-1.61247e-06
-1.06323e-06
-6.07391e-07
-8.86686e-07
-1.20721e-06
-1.24429e-06
-6.07721e-07
-4.22096e-07
-6.69089e-07
-8.88081e-07
-4.78748e-07
-3.13253e-07
-5.02428e-07
-6.30017e-07
-2.93267e-07
-1.95174e-07
-3.12797e-07
-4.12327e-07
-2.32397e-07
-1.50887e-07
-2.10987e-07
-2.07668e-07
-1.20033e-07
-1.43167e-07
-1.56779e-07
-8.59069e-08
-7.92161e-08
-1.1049e-07
-6.56587e-08
-4.97933e-08
-6.25013e-08
-4.92619e-08
-4.35062e-08
-3.28028e-08
-2.96242e-08
-2.76382e-08
-2.4698e-08
-1.05541e-08
-3.99125e-09
-5.97353e-10
1.15307e-10
-4.32647e-09
-6.05651e-08
-1.95449e-08
-1.08689e-09
-6.48951e-10
-6.7132e-10
-5.97922e-10
-6.22641e-10
-3.62541e-10
-2.21741e-10
-2.23536e-10
-1.91657e-10
-1.99852e-10
-1.08444e-10
-6.16726e-11
-6.83959e-11
-7.71925e-11
-3.41743e-11
-2.25007e-11
-2.89637e-11
-2.11521e-11
-1.04741e-11
-8.37514e-12
-1.05661e-11
-5.31514e-12
-3.07075e-12
-3.17586e-12
-2.53761e-12
-1.35131e-12
-1.12949e-12
-7.59238e-13
-5.95985e-13
-3.52451e-13
-2.46024e-13
-1.73145e-13
-1.43286e-13
-7.58155e-14
-4.59461e-14
-4.13166e-14
-2.41483e-14
-1.69055e-14
-9.59181e-15
-6.88816e-15
-4.27769e-15
-2.85122e-15
-1.4258e-15
-9.90806e-16
-6.25811e-16
-3.35911e-16
-2.56143e-16
-1.40994e-16
-9.38011e-17
-4.49322e-17
-1.97916e-17
-6.6241e-18
-2.48377e-18
-8.95262e-19
-3.01824e-19
-9.45399e-20
-2.72242e-20
-7.11156e-21
-1.6602e-21
-3.39796e-22
-5.94646e-23
-8.58941e-24
-9.69581e-25
-7.7365e-26
-3.34747e-27
-7.2325e-29
-2.49109e-30
-4.23069e-32
-4.34633e-43
-2.20278e-54
-7.83955e-66
-2.05501e-77
-4.48699e-89
-2.12847e-100
-1.73256e-111
-4.73463e-119
-6.99019e-130
-1.62787e-137
-2.37835e-148
-5.59948e-156
-9.97649e-167
-1.92539e-174
-4.48125e-185
-6.62335e-193
-3.13588e-203
-2.28788e-211
-2.12394e-221
-7.95304e-230
-1.09423e-239
-2.78326e-248
-5.20626e-258
-9.82106e-267
-2.30506e-276
-3.49216e-285
-9.83997e-295
-1.25275e-303
-4.06269e-313
2.86558e-322
0
0
0
0
0
0
0
0
0
0
0
0
0
0
0
0
0
)
;

boundaryField
{
    inandouthalf11
    {
        type            cyclic;
    }
    inandouthalf12
    {
        type            cyclic;
    }
    inandouthalf21
    {
        type            cyclic;
    }
    inandouthalf22
    {
        type            cyclic;
    }
    inandouthalf31
    {
        type            cyclic;
    }
    inandouthalf32
    {
        type            cyclic;
    }
    inandouthalf41
    {
        type            cyclic;
    }
    inandouthalf42
    {
        type            cyclic;
    }
    top
    {
        type            symmetryPlane;
    }
    walls
    {
        type            calculated;
        value           uniform 2.03142e-13;
    }
    frontAndBackPlanes
    {
        type            empty;
    }
}


// ************************************************************************* //
