/*--------------------------------*- C++ -*----------------------------------*\
| =========                 |                                                 |
| \\      /  F ield         | OpenFOAM: The Open Source CFD Toolbox           |
|  \\    /   O peration     | Version:  2.4.x                                 |
|   \\  /    A nd           | Web:      www.OpenFOAM.org                      |
|    \\/     M anipulation  |                                                 |
\*---------------------------------------------------------------------------*/
FoamFile
{
    version     2.0;
    format      ascii;
    class       surfaceScalarField;
    location    "1.9";
    object      ddt0(phib);
}
// * * * * * * * * * * * * * * * * * * * * * * * * * * * * * * * * * * * * * //

dimensions      [0 3 -2 0 0 0 0];

internalField   nonuniform List<scalar> 
359
(
-4.13851e-15
-8.30708e-15
-1.2516e-14
-1.66866e-14
-2.08663e-14
-2.50503e-14
-2.9265e-14
-3.34722e-14
-3.7648e-14
-4.18485e-14
-4.60165e-14
-5.01917e-14
-5.43439e-14
-5.85194e-14
-6.26574e-14
-6.68136e-14
-7.09623e-14
-7.50829e-14
-7.91813e-14
-8.33095e-14
-8.73738e-14
-9.14916e-14
-9.55724e-14
-9.96298e-14
-1.0366e-13
-1.07694e-13
-1.11699e-13
-1.15698e-13
-1.19651e-13
-1.2363e-13
-1.27547e-13
-1.31505e-13
-1.35417e-13
-1.39357e-13
-1.43198e-13
-1.4707e-13
-1.50927e-13
-1.54786e-13
-1.58592e-13
-1.62399e-13
-1.66147e-13
-1.69895e-13
-1.73605e-13
-1.7735e-13
-1.81e-13
-1.84675e-13
-1.88305e-13
-1.91957e-13
-1.95498e-13
-1.99116e-13
-2.02668e-13
-2.06208e-13
-2.09674e-13
-2.13185e-13
-2.16594e-13
-2.20047e-13
-2.2342e-13
-2.26839e-13
-2.3015e-13
-2.33501e-13
-2.36759e-13
-2.4005e-13
-2.43218e-13
-2.4648e-13
-2.49607e-13
-2.52811e-13
-2.55854e-13
-2.58967e-13
-2.61962e-13
-2.65032e-13
4.59915e-12
2.83993e-11
6.78108e-11
9.15239e-11
9.07176e-11
8.29355e-11
7.86231e-11
7.80342e-11
7.92233e-11
8.06987e-11
8.137e-11
8.03549e-11
7.71265e-11
7.17772e-11
6.5024e-11
5.78461e-11
5.10211e-11
4.48758e-11
3.92991e-11
3.39031e-11
2.82105e-11
2.18021e-11
1.44092e-11
5.94628e-12
-3.50851e-12
-1.37653e-11
-2.45811e-11
-3.57092e-11
-4.6931e-11
-5.8073e-11
-6.90094e-11
-7.96589e-11
-8.99751e-11
-9.99351e-11
-1.09526e-10
-1.18736e-10
-1.27547e-10
-1.35931e-10
-1.43854e-10
-1.51277e-10
-1.58169e-10
-1.64512e-10
-1.70309e-10
-1.75592e-10
-1.80431e-10
-1.84934e-10
-1.8925e-10
-1.9357e-10
-1.98118e-10
-2.03154e-10
-2.08955e-10
-2.15803e-10
-2.23964e-10
-2.33648e-10
-2.44965e-10
-2.57879e-10
-2.72169e-10
-2.87472e-10
-3.03421e-10
-3.19905e-10
-3.37345e-10
-3.56862e-10
-3.80232e-10
-4.09632e-10
-4.46975e-10
-4.92547e-10
-5.43598e-10
-5.94602e-10
-6.3921e-10
-6.7236e-10
-6.92217e-10
-7.0077e-10
-7.03479e-10
-7.03503e-10
-7.02152e-10
-6.99997e-10
-6.9706e-10
-6.92666e-10
-6.73441e-10
-3.34619e-09
1.50163e-09
4.70096e-09
7.86048e-09
8.54816e-09
6.26614e-09
2.52925e-09
-1.47728e-10
-8.96698e-10
-6.4094e-10
-2.59868e-10
-7.90693e-11
-2.88496e-11
-1.53269e-11
-1.00945e-11
-7.43025e-12
-5.72947e-12
-4.67109e-12
-3.89595e-12
-3.31607e-12
-2.88158e-12
-2.52599e-12
-2.23688e-12
-1.98707e-12
-1.79207e-12
-1.61885e-12
-1.46223e-12
-1.31996e-12
-1.21852e-12
-1.10498e-12
-1.01579e-12
-9.33551e-13
-8.6023e-13
-7.94041e-13
-7.3159e-13
-6.81241e-13
-6.35573e-13
-5.88068e-13
-5.42126e-13
-5.16387e-13
-4.81807e-13
-4.48747e-13
-4.21493e-13
-3.96892e-13
-3.78243e-13
-3.61204e-13
-3.38732e-13
-3.14303e-13
-2.99735e-13
-2.90526e-13
-2.82641e-13
-2.71383e-13
-2.54695e-13
-2.36267e-13
-2.2906e-13
-2.28089e-13
-2.23201e-13
-2.09117e-13
-1.95035e-13
-1.91701e-13
-1.91557e-13
-1.83566e-13
-1.72887e-13
-1.70005e-13
-1.69641e-13
-1.62757e-13
-1.54547e-13
-1.52397e-13
-1.52191e-13
-1.47826e-13
-1.42011e-13
-1.39587e-13
-1.38068e-13
-1.34446e-13
-1.31779e-13
-1.30196e-13
-1.27412e-13
-1.24449e-13
-1.23217e-13
-1.21062e-13
-1.18572e-13
-1.168e-13
-1.15286e-13
-1.13243e-13
-1.11532e-13
-1.09569e-13
-1.08059e-13
-1.06209e-13
-1.04461e-13
-1.02307e-13
-1.00669e-13
-9.87784e-14
-9.7341e-14
-9.66283e-14
-9.73997e-14
-9.29221e-14
-8.96381e-14
-8.74481e-14
-8.55418e-14
-8.32306e-14
-8.11532e-14
-7.86625e-14
-7.64223e-14
-7.37792e-14
-7.13284e-14
-6.84724e-14
-6.58407e-14
-6.28893e-14
-6.01557e-14
-5.7121e-14
-5.42967e-14
-5.12967e-14
-4.85622e-14
-4.57709e-14
-4.34052e-14
-4.13053e-14
-3.96208e-14
-3.80047e-14
-3.65877e-14
-3.53012e-14
-3.40852e-14
-3.28374e-14
-3.16353e-14
-3.06594e-14
-2.96653e-14
-2.86461e-14
-2.74787e-14
-2.64107e-14
-2.51717e-14
-2.39022e-14
-2.25048e-14
-2.14914e-14
-2.03837e-14
-1.92897e-14
-1.80479e-14
-1.69544e-14
-1.57312e-14
-1.45128e-14
-1.3144e-14
-1.1984e-14
-1.07288e-14
-9.49877e-15
-8.24328e-15
-7.06635e-15
-5.90205e-15
-4.83753e-15
-3.79445e-15
-3.57684e-15
-3.39106e-15
-3.32524e-15
-3.27297e-15
-3.31951e-15
-3.36199e-15
-3.41849e-15
-3.48919e-15
-3.59828e-15
-3.76202e-15
-3.91737e-15
-4.13719e-15
-4.32771e-15
-4.5789e-15
-4.81346e-15
-5.09909e-15
-5.4492e-15
-5.81621e-15
-6.19218e-15
-6.57298e-15
-6.97702e-15
-7.38895e-15
-7.82424e-15
-8.30304e-15
-9.0486e-15
-9.77057e-15
-1.05548e-14
-1.13008e-14
-1.24344e-14
-1.36145e-14
-1.55758e-14
-2.10534e-14
-2.91941e-14
-4.05481e-14
-5.26527e-14
-6.40238e-14
-7.66192e-14
-8.76812e-14
-9.88754e-14
-1.08343e-13
-1.21789e-13
-1.32553e-13
-1.43322e-13
-1.50028e-13
-1.60554e-13
-1.65462e-13
-1.71127e-13
-1.72959e-13
-1.89638e-13
-1.99776e-13
-2.10286e-13
-2.08844e-13
-2.16788e-13
-2.09604e-13
-2.0243e-13
-1.84789e-13
-1.82041e-13
-1.65444e-13
-1.48002e-13
-1.17249e-13
-7.85313e-14
-4.96118e-14
-3.96343e-14
)
;

boundaryField
{
    inandouthalf11
    {
        type            cyclic;
        value           nonuniform List<scalar> 
100
(
3.34017e-10
3.34587e-10
3.3459e-10
3.3459e-10
3.3459e-10
3.34593e-10
3.34593e-10
3.34596e-10
3.34596e-10
3.34599e-10
3.34601e-10
3.34601e-10
3.34604e-10
3.34607e-10
3.3461e-10
3.34613e-10
3.34616e-10
3.34618e-10
3.34621e-10
3.34627e-10
3.3463e-10
3.34635e-10
3.34641e-10
3.34646e-10
3.34652e-10
3.34658e-10
3.34663e-10
3.34672e-10
3.3468e-10
3.34689e-10
3.34697e-10
3.34708e-10
3.34717e-10
3.34731e-10
3.34742e-10
3.34756e-10
3.3477e-10
3.34787e-10
3.34807e-10
3.34824e-10
3.34846e-10
3.34869e-10
3.34891e-10
3.34919e-10
3.34947e-10
3.34978e-10
3.35012e-10
3.35046e-10
3.35085e-10
3.3513e-10
3.35175e-10
3.35226e-10
3.3528e-10
3.35339e-10
3.35401e-10
3.35471e-10
3.35544e-10
3.35626e-10
3.35714e-10
3.35807e-10
3.35911e-10
3.36021e-10
3.36142e-10
3.36272e-10
3.36414e-10
3.36566e-10
3.36733e-10
3.36914e-10
3.37109e-10
3.37319e-10
3.37504e-10
3.37431e-10
3.36973e-10
3.36797e-10
3.37485e-10
3.38601e-10
3.3959e-10
3.40333e-10
3.40906e-10
3.41392e-10
3.41848e-10
3.42317e-10
3.42835e-10
3.43421e-10
3.44078e-10
3.44787e-10
3.45525e-10
3.46271e-10
3.47017e-10
3.47763e-10
3.48519e-10
3.49295e-10
3.501e-10
3.5094e-10
3.51817e-10
3.52729e-10
3.53672e-10
3.54641e-10
3.55633e-10
3.56641e-10
)
;
    }
    inandouthalf12
    {
        type            cyclic;
        value           nonuniform List<scalar> 
100
(
-3.34017e-10
-3.34587e-10
-3.3459e-10
-3.3459e-10
-3.3459e-10
-3.34593e-10
-3.34593e-10
-3.34596e-10
-3.34596e-10
-3.34599e-10
-3.34601e-10
-3.34601e-10
-3.34604e-10
-3.34607e-10
-3.3461e-10
-3.34613e-10
-3.34616e-10
-3.34618e-10
-3.34621e-10
-3.34627e-10
-3.3463e-10
-3.34635e-10
-3.34641e-10
-3.34646e-10
-3.34652e-10
-3.34658e-10
-3.34663e-10
-3.34672e-10
-3.3468e-10
-3.34689e-10
-3.34697e-10
-3.34708e-10
-3.34717e-10
-3.34731e-10
-3.34742e-10
-3.34756e-10
-3.3477e-10
-3.34787e-10
-3.34807e-10
-3.34824e-10
-3.34846e-10
-3.34869e-10
-3.34891e-10
-3.34919e-10
-3.34947e-10
-3.34978e-10
-3.35012e-10
-3.35046e-10
-3.35085e-10
-3.3513e-10
-3.35175e-10
-3.35226e-10
-3.3528e-10
-3.35339e-10
-3.35401e-10
-3.35471e-10
-3.35544e-10
-3.35626e-10
-3.35714e-10
-3.35807e-10
-3.35911e-10
-3.36021e-10
-3.36142e-10
-3.36272e-10
-3.36414e-10
-3.36566e-10
-3.36733e-10
-3.36914e-10
-3.37109e-10
-3.37319e-10
-3.37504e-10
-3.37431e-10
-3.36973e-10
-3.36797e-10
-3.37485e-10
-3.38601e-10
-3.3959e-10
-3.40333e-10
-3.40906e-10
-3.41392e-10
-3.41848e-10
-3.42317e-10
-3.42835e-10
-3.43421e-10
-3.44078e-10
-3.44787e-10
-3.45525e-10
-3.46271e-10
-3.47017e-10
-3.47763e-10
-3.48519e-10
-3.49295e-10
-3.501e-10
-3.5094e-10
-3.51817e-10
-3.52729e-10
-3.53672e-10
-3.54641e-10
-3.55633e-10
-3.56641e-10
)
;
    }
    inandouthalf21
    {
        type            cyclic;
        value           nonuniform List<scalar> 
100
(
3.57664e-10
3.58698e-10
3.59743e-10
3.60796e-10
3.61859e-10
3.6293e-10
3.64011e-10
3.65099e-10
3.66196e-10
3.673e-10
3.68412e-10
3.6953e-10
3.70657e-10
3.71793e-10
3.72942e-10
3.74109e-10
3.753e-10
3.76525e-10
3.77796e-10
3.79127e-10
3.80537e-10
3.82045e-10
3.83674e-10
3.85449e-10
3.87394e-10
3.89528e-10
3.91863e-10
3.94397e-10
3.97116e-10
4.00007e-10
4.03084e-10
4.06419e-10
4.10179e-10
4.14637e-10
4.20154e-10
4.27065e-10
4.35477e-10
4.45082e-10
4.55145e-10
4.64594e-10
4.72205e-10
4.77307e-10
4.80704e-10
4.8337e-10
4.85796e-10
4.88387e-10
4.91473e-10
4.95889e-10
7.40749e-10
2.12554e-07
6.68978e-07
1.06753e-06
1.28909e-06
1.38723e-06
1.38688e-06
1.30656e-06
1.17217e-06
1.00373e-06
8.21843e-07
6.72255e-07
5.89127e-07
5.55745e-07
5.41995e-07
5.34343e-07
5.28759e-07
5.24484e-07
5.21056e-07
5.18323e-07
5.16197e-07
5.14498e-07
5.13166e-07
5.1207e-07
5.11196e-07
5.10467e-07
5.09855e-07
5.09313e-07
5.08874e-07
5.08492e-07
5.08132e-07
5.07846e-07
5.07575e-07
5.07348e-07
5.07137e-07
5.06957e-07
5.06793e-07
5.06648e-07
5.06511e-07
5.06398e-07
5.06299e-07
5.06194e-07
5.06111e-07
5.06032e-07
5.05967e-07
5.05905e-07
5.05847e-07
5.0579e-07
5.05744e-07
5.05705e-07
5.05671e-07
5.05635e-07
)
;
    }
    inandouthalf22
    {
        type            cyclic;
        value           nonuniform List<scalar> 
100
(
-3.57664e-10
-3.58698e-10
-3.59743e-10
-3.60796e-10
-3.61859e-10
-3.6293e-10
-3.64011e-10
-3.65099e-10
-3.66196e-10
-3.673e-10
-3.68412e-10
-3.6953e-10
-3.70657e-10
-3.71793e-10
-3.72942e-10
-3.74109e-10
-3.753e-10
-3.76525e-10
-3.77796e-10
-3.79127e-10
-3.80537e-10
-3.82045e-10
-3.83674e-10
-3.85449e-10
-3.87394e-10
-3.89528e-10
-3.91863e-10
-3.94397e-10
-3.97116e-10
-4.00007e-10
-4.03084e-10
-4.06419e-10
-4.10179e-10
-4.14637e-10
-4.20154e-10
-4.27065e-10
-4.35477e-10
-4.45082e-10
-4.55145e-10
-4.64594e-10
-4.72205e-10
-4.77307e-10
-4.80704e-10
-4.8337e-10
-4.85796e-10
-4.88387e-10
-4.91473e-10
-4.95889e-10
-7.40749e-10
-2.12554e-07
-6.68978e-07
-1.06753e-06
-1.28909e-06
-1.38723e-06
-1.38688e-06
-1.30656e-06
-1.17217e-06
-1.00373e-06
-8.21843e-07
-6.72255e-07
-5.89127e-07
-5.55745e-07
-5.41995e-07
-5.34343e-07
-5.28759e-07
-5.24484e-07
-5.21056e-07
-5.18323e-07
-5.16197e-07
-5.14498e-07
-5.13166e-07
-5.1207e-07
-5.11196e-07
-5.10467e-07
-5.09855e-07
-5.09313e-07
-5.08874e-07
-5.08492e-07
-5.08132e-07
-5.07846e-07
-5.07575e-07
-5.07348e-07
-5.07137e-07
-5.06957e-07
-5.06793e-07
-5.06648e-07
-5.06511e-07
-5.06398e-07
-5.06299e-07
-5.06194e-07
-5.06111e-07
-5.06032e-07
-5.05967e-07
-5.05905e-07
-5.05847e-07
-5.0579e-07
-5.05744e-07
-5.05705e-07
-5.05671e-07
-5.05635e-07
)
;
    }
    inandouthalf31
    {
        type            cyclic;
        value           nonuniform List<scalar> 
110
(
5.05601e-07
5.15831e-07
5.26272e-07
5.36935e-07
5.4781e-07
5.58903e-07
5.7022e-07
5.81775e-07
5.93569e-07
6.056e-07
6.17871e-07
6.30397e-07
6.43181e-07
6.56223e-07
6.69527e-07
6.83105e-07
6.96963e-07
7.111e-07
7.25523e-07
7.40241e-07
7.5526e-07
7.70583e-07
7.86217e-07
8.0217e-07
8.18447e-07
8.35054e-07
8.52e-07
8.6929e-07
8.86931e-07
9.0493e-07
9.23296e-07
9.42034e-07
9.61153e-07
9.8066e-07
1.00056e-06
1.02087e-06
1.04159e-06
1.06273e-06
1.0843e-06
1.10631e-06
1.12876e-06
1.15167e-06
1.17505e-06
1.1989e-06
1.22323e-06
1.24806e-06
1.27339e-06
1.29924e-06
1.32561e-06
1.35252e-06
1.37997e-06
1.40798e-06
1.43656e-06
1.46572e-06
1.49547e-06
1.52582e-06
1.55679e-06
1.58839e-06
1.62063e-06
1.65352e-06
1.68708e-06
1.72133e-06
1.75627e-06
1.79191e-06
1.82829e-06
1.86539e-06
1.90326e-06
1.94189e-06
1.9813e-06
2.02152e-06
2.06255e-06
2.10441e-06
2.14713e-06
2.19071e-06
2.23517e-06
2.28054e-06
2.32683e-06
2.37406e-06
2.42225e-06
2.47141e-06
2.52158e-06
2.57276e-06
2.62498e-06
2.67826e-06
2.73262e-06
2.78808e-06
2.84467e-06
2.90241e-06
2.96132e-06
3.02143e-06
3.08276e-06
3.14533e-06
3.20917e-06
3.27431e-06
3.34077e-06
3.40858e-06
3.47776e-06
3.54835e-06
3.62037e-06
3.69386e-06
3.76883e-06
3.84533e-06
3.92338e-06
4.00302e-06
4.08427e-06
4.16717e-06
4.25175e-06
4.33805e-06
4.4261e-06
4.51594e-06
)
;
    }
    inandouthalf32
    {
        type            cyclic;
        value           nonuniform List<scalar> 
110
(
-5.05601e-07
-5.15831e-07
-5.26272e-07
-5.36935e-07
-5.4781e-07
-5.58903e-07
-5.7022e-07
-5.81775e-07
-5.93569e-07
-6.056e-07
-6.17871e-07
-6.30397e-07
-6.43181e-07
-6.56223e-07
-6.69527e-07
-6.83105e-07
-6.96963e-07
-7.111e-07
-7.25523e-07
-7.40241e-07
-7.5526e-07
-7.70583e-07
-7.86217e-07
-8.0217e-07
-8.18447e-07
-8.35054e-07
-8.52e-07
-8.6929e-07
-8.86931e-07
-9.0493e-07
-9.23296e-07
-9.42034e-07
-9.61153e-07
-9.8066e-07
-1.00056e-06
-1.02087e-06
-1.04159e-06
-1.06273e-06
-1.0843e-06
-1.10631e-06
-1.12876e-06
-1.15167e-06
-1.17505e-06
-1.1989e-06
-1.22323e-06
-1.24806e-06
-1.27339e-06
-1.29924e-06
-1.32561e-06
-1.35252e-06
-1.37997e-06
-1.40798e-06
-1.43656e-06
-1.46572e-06
-1.49547e-06
-1.52582e-06
-1.55679e-06
-1.58839e-06
-1.62063e-06
-1.65352e-06
-1.68708e-06
-1.72133e-06
-1.75627e-06
-1.79191e-06
-1.82829e-06
-1.86539e-06
-1.90326e-06
-1.94189e-06
-1.9813e-06
-2.02152e-06
-2.06255e-06
-2.10441e-06
-2.14713e-06
-2.19071e-06
-2.23517e-06
-2.28054e-06
-2.32683e-06
-2.37406e-06
-2.42225e-06
-2.47141e-06
-2.52158e-06
-2.57276e-06
-2.62498e-06
-2.67826e-06
-2.73262e-06
-2.78808e-06
-2.84467e-06
-2.90241e-06
-2.96132e-06
-3.02143e-06
-3.08276e-06
-3.14533e-06
-3.20917e-06
-3.27431e-06
-3.34077e-06
-3.40858e-06
-3.47776e-06
-3.54835e-06
-3.62037e-06
-3.69386e-06
-3.76883e-06
-3.84533e-06
-3.92338e-06
-4.00302e-06
-4.08427e-06
-4.16717e-06
-4.25175e-06
-4.33805e-06
-4.4261e-06
-4.51594e-06
)
;
    }
    inandouthalf41
    {
        type            cyclic;
        value           nonuniform List<scalar> 
50
(
4.04222e-06
4.04222e-06
4.04222e-06
4.04222e-06
4.04222e-06
4.04222e-06
4.04222e-06
4.04222e-06
4.04222e-06
4.04222e-06
4.04222e-06
4.04222e-06
4.04222e-06
4.04222e-06
4.04222e-06
4.04222e-06
4.04222e-06
4.04222e-06
4.04222e-06
4.04222e-06
4.04222e-06
4.04222e-06
4.04222e-06
4.04222e-06
4.04222e-06
4.04222e-06
4.04222e-06
4.04222e-06
4.04222e-06
4.04222e-06
4.04222e-06
4.04222e-06
4.04222e-06
4.04222e-06
4.04222e-06
4.04222e-06
4.04222e-06
4.04222e-06
4.04222e-06
4.04222e-06
4.04222e-06
4.04222e-06
4.04222e-06
4.04222e-06
4.04222e-06
4.04222e-06
4.04222e-06
4.04222e-06
4.04222e-06
4.04222e-06
)
;
    }
    inandouthalf42
    {
        type            cyclic;
        value           nonuniform List<scalar> 
50
(
-4.04222e-06
-4.04222e-06
-4.04222e-06
-4.04222e-06
-4.04222e-06
-4.04222e-06
-4.04222e-06
-4.04222e-06
-4.04222e-06
-4.04222e-06
-4.04222e-06
-4.04222e-06
-4.04222e-06
-4.04222e-06
-4.04222e-06
-4.04222e-06
-4.04222e-06
-4.04222e-06
-4.04222e-06
-4.04222e-06
-4.04222e-06
-4.04222e-06
-4.04222e-06
-4.04222e-06
-4.04222e-06
-4.04222e-06
-4.04222e-06
-4.04222e-06
-4.04222e-06
-4.04222e-06
-4.04222e-06
-4.04222e-06
-4.04222e-06
-4.04222e-06
-4.04222e-06
-4.04222e-06
-4.04222e-06
-4.04222e-06
-4.04222e-06
-4.04222e-06
-4.04222e-06
-4.04222e-06
-4.04222e-06
-4.04222e-06
-4.04222e-06
-4.04222e-06
-4.04222e-06
-4.04222e-06
-4.04222e-06
-4.04222e-06
)
;
    }
    top
    {
        type            symmetryPlane;
        value           uniform 0;
    }
    walls
    {
        type            calculated;
        value           uniform 0;
    }
    frontAndBackPlanes
    {
        type            empty;
        value           nonuniform 0();
    }
}


// ************************************************************************* //
