/*--------------------------------*- C++ -*----------------------------------*\
| =========                 |                                                 |
| \\      /  F ield         | OpenFOAM: The Open Source CFD Toolbox           |
|  \\    /   O peration     | Version:  2.4.x                                 |
|   \\  /    A nd           | Web:      www.OpenFOAM.org                      |
|    \\/     M anipulation  |                                                 |
\*---------------------------------------------------------------------------*/
FoamFile
{
    version     2.0;
    format      ascii;
    class       volVectorField;
    location    "1.9";
    object      ddt0(Ub);
}
// * * * * * * * * * * * * * * * * * * * * * * * * * * * * * * * * * * * * * //

dimensions      [0 1 -2 0 0 0 0];

internalField   nonuniform List<vector> 
360
(
(-0.000334017 -5.17303e-10 0)
(-0.000334587 -1.55576e-09 0)
(-0.00033459 -2.60288e-09 0)
(-0.00033459 -3.65032e-09 0)
(-0.00033459 -4.6941e-09 0)
(-0.000334593 -5.73957e-09 0)
(-0.000334593 -6.78942e-09 0)
(-0.000334596 -7.84215e-09 0)
(-0.000334596 -8.89001e-09 0)
(-0.000334599 -9.93706e-09 0)
(-0.000334601 -1.09831e-08 0)
(-0.000334601 -1.2026e-08 0)
(-0.000334604 -1.3067e-08 0)
(-0.000334607 -1.41079e-08 0)
(-0.00033461 -1.51471e-08 0)
(-0.000334613 -1.61839e-08 0)
(-0.000334616 -1.7222e-08 0)
(-0.000334618 -1.82557e-08 0)
(-0.000334621 -1.9283e-08 0)
(-0.000334627 -2.03114e-08 0)
(-0.00033463 -2.13354e-08 0)
(-0.000334635 -2.23582e-08 0)
(-0.000334641 -2.3383e-08 0)
(-0.000334646 -2.44003e-08 0)
(-0.000334652 -2.54113e-08 0)
(-0.000334658 -2.64192e-08 0)
(-0.000334663 -2.74241e-08 0)
(-0.000334672 -2.84247e-08 0)
(-0.00033468 -2.94187e-08 0)
(-0.000334689 -3.04101e-08 0)
(-0.000334697 -3.13971e-08 0)
(-0.000334708 -3.23815e-08 0)
(-0.000334717 -3.33652e-08 0)
(-0.000334731 -3.43468e-08 0)
(-0.000334742 -3.53194e-08 0)
(-0.000334756 -3.62836e-08 0)
(-0.00033477 -3.72496e-08 0)
(-0.000334787 -3.82142e-08 0)
(-0.000334807 -3.91723e-08 0)
(-0.000334824 -4.01239e-08 0)
(-0.000334846 -4.10682e-08 0)
(-0.000334869 -4.20052e-08 0)
(-0.000334891 -4.29375e-08 0)
(-0.000334919 -4.38694e-08 0)
(-0.000334947 -4.47938e-08 0)
(-0.000334978 -4.57094e-08 0)
(-0.000335012 -4.66225e-08 0)
(-0.000335046 -4.75327e-08 0)
(-0.000335085 -4.84318e-08 0)
(-0.00033513 -4.93268e-08 0)
(-0.000335175 -5.0223e-08 0)
(-0.000335226 -5.11095e-08 0)
(-0.00033528 -5.19853e-08 0)
(-0.000335339 -5.28574e-08 0)
(-0.000335401 -5.37224e-08 0)
(-0.000335471 -5.45801e-08 0)
(-0.000335544 -5.54333e-08 0)
(-0.000335626 -5.62823e-08 0)
(-0.000335714 -5.71236e-08 0)
(-0.000335807 -5.79563e-08 0)
(-0.000335911 -5.87825e-08 0)
(-0.000336021 -5.9601e-08 0)
(-0.000336142 -6.04084e-08 0)
(-0.000336272 -6.12121e-08 0)
(-0.000336414 -6.20108e-08 0)
(-0.000336566 -6.28022e-08 0)
(-0.000336733 -6.35829e-08 0)
(-0.000336914 -6.43505e-08 0)
(-0.000337109 -6.215e-08 0)
(-0.000337319 -1.00381e-07 0)
(-0.000337504 1.06116e-07 0)
(-0.000337431 3.80248e-06 0)
(-0.000336973 1.23162e-05 0)
(-0.000336797 2.01305e-05 0)
(-0.000337485 2.27851e-05 0)
(-0.000338601 2.17031e-05 0)
(-0.00033959 2.01828e-05 0)
(-0.000340333 1.95785e-05 0)
(-0.000340906 1.96573e-05 0)
(-0.000341392 1.99913e-05 0)
(-0.000341848 2.02599e-05 0)
(-0.000342317 2.02171e-05 0)
(-0.000342835 1.96864e-05 0)
(-0.000343421 1.86135e-05 0)
(-0.000344078 1.71001e-05 0)
(-0.000344787 1.53586e-05 0)
(-0.000345525 1.36083e-05 0)
(-0.000346271 1.19872e-05 0)
(-0.000347017 1.05221e-05 0)
(-0.000347763 9.15065e-06 0)
(-0.000348519 7.76462e-06 0)
(-0.000349295 6.25201e-06 0)
(-0.0003501 4.52687e-06 0)
(-0.00035094 2.54494e-06 0)
(-0.000351817 3.05281e-07 0)
(-0.000352729 -2.15861e-06 0)
(-0.000353672 -4.79264e-06 0)
(-0.000354641 -7.53559e-06 0)
(-0.000355633 -1.03293e-05 0)
(-0.000356641 -1.31248e-05 0)
(-0.000357664 -1.58846e-05 0)
(-0.000358698 -1.85828e-05 0)
(-0.000359743 -2.12035e-05 0)
(-0.000360796 -2.3738e-05 0)
(-0.000361859 -2.61818e-05 0)
(-0.00036293 -2.8532e-05 0)
(-0.000364011 -3.07846e-05 0)
(-0.000365099 -3.2934e-05 0)
(-0.000366196 -3.49722e-05 0)
(-0.0003673 -3.68904e-05 0)
(-0.000368412 -3.86799e-05 0)
(-0.00036953 -4.03342e-05 0)
(-0.000370657 -4.18516e-05 0)
(-0.000371793 -4.32367e-05 0)
(-0.000372942 -4.4502e-05 0)
(-0.000374109 -4.56698e-05 0)
(-0.0003753 -4.67722e-05 0)
(-0.000376525 -4.78515e-05 0)
(-0.000377796 -4.896e-05 0)
(-0.000379127 -5.01579e-05 0)
(-0.000380537 -5.15124e-05 0)
(-0.000382045 -5.30933e-05 0)
(-0.000383674 -5.49693e-05 0)
(-0.000385449 -5.71996e-05 0)
(-0.000387394 -5.98247e-05 0)
(-0.000389528 -6.28537e-05 0)
(-0.000391863 -6.62546e-05 0)
(-0.000394397 -6.99544e-05 0)
(-0.000397116 -7.38613e-05 0)
(-0.000400007 -7.79147e-05 0)
(-0.000403084 -8.21531e-05 0)
(-0.000406419 -8.67694e-05 0)
(-0.000410179 -9.21264e-05 0)
(-0.000414637 -9.87204e-05 0)
(-0.000420154 -0.000107065 0)
(-0.000427065 -0.000117435 0)
(-0.000435477 -0.000129516 0)
(-0.000445082 -0.000142271 0)
(-0.000455145 -0.000154223 0)
(-0.000464594 -0.000163952 0)
(-0.000472205 -0.00017059 0)
(-0.000477307 -0.000174082 0)
(-0.000480704 -0.00017547 0)
(-0.00048337 -0.000175822 0)
(-0.000485796 -0.000175648 0)
(-0.000488387 -0.000175203 0)
(-0.000491473 -0.000174534 0)
(-0.000495889 -0.000183651 0)
(-0.000740749 -2.7088e-05 0)
(-0.212554 -0.000568604 0)
(-0.668978 -0.000548052 0)
(-1.06753 0.00123094 0)
(-1.28909 0.00094561 0)
(-1.38723 0.00359578 0)
(-1.38688 0.0012973 0)
(-1.30656 0.0015413 0)
(-1.17217 -0.000126024 0)
(-1.00373 -2.11934e-05 0)
(-0.821843 -0.000395317 0)
(-0.672255 6.81679e-05 0)
(-0.589127 -0.000197503 0)
(-0.555745 0.000153914 0)
(-0.541995 -0.00013967 0)
(-0.534343 0.000105397 0)
(-0.528759 -8.6223e-05 0)
(-0.524484 6.08291e-05 0)
(-0.521056 -4.45992e-05 0)
(-0.518323 2.57059e-05 0)
(-0.516197 -1.35209e-05 0)
(-0.514498 -1.42032e-09 0)
(-0.513166 8.33928e-06 0)
(-0.51207 -1.74913e-05 0)
(-0.511196 2.25712e-05 0)
(-0.510467 -2.82674e-05 0)
(-0.509855 3.07645e-05 0)
(-0.509313 -3.38326e-05 0)
(-0.508874 3.43879e-05 0)
(-0.508492 -3.55113e-05 0)
(-0.508132 3.46788e-05 0)
(-0.507846 -3.44451e-05 0)
(-0.507575 3.26997e-05 0)
(-0.507348 -3.15779e-05 0)
(-0.507137 2.92971e-05 0)
(-0.506957 -2.76599e-05 0)
(-0.506793 2.51448e-05 0)
(-0.506648 -2.32795e-05 0)
(-0.506511 2.07491e-05 0)
(-0.506398 -1.88648e-05 0)
(-0.506299 1.64829e-05 0)
(-0.506194 -1.47236e-05 0)
(-0.506111 1.2578e-05 0)
(-0.506032 -1.10241e-05 0)
(-0.505967 9.17002e-06 0)
(-0.505905 -7.86417e-06 0)
(-0.505847 6.31031e-06 0)
(-0.50579 -5.26316e-06 0)
(-0.505744 3.99809e-06 0)
(-0.505705 -3.18483e-06 0)
(-0.505671 2.18175e-06 0)
(-0.505635 -1.58179e-06 0)
(-0.505599 7.93422e-07 0)
(-0.505567 -3.80841e-07 0)
(-0.50554 -2.18696e-07 0)
(-0.505522 5.071e-07 0)
(-0.505501 -9.50534e-07 0)
(-0.505477 1.06815e-06 0)
(-0.505453 -1.37085e-06 0)
(-0.505436 1.3997e-06 0)
(-0.505424 -1.60985e-06 0)
(-0.50541 1.59496e-06 0)
(-0.505393 -1.76823e-06 0)
(-0.50538 1.76947e-06 0)
(-0.505372 -1.94183e-06 0)
(-0.505362 1.93971e-06 0)
(-0.50535 -2.08953e-06 0)
(-0.505342 2.05841e-06 0)
(-0.505336 -2.16726e-06 0)
(-0.50533 2.10375e-06 0)
(-0.505322 -2.17401e-06 0)
(-0.505316 2.07798e-06 0)
(-0.505312 -2.11228e-06 0)
(-0.505308 1.99321e-06 0)
(-0.505303 -2.00219e-06 0)
(-0.5053 1.86587e-06 0)
(-0.505298 -1.85525e-06 0)
(-0.505294 1.70772e-06 0)
(-0.505292 -1.68444e-06 0)
(-0.50529 1.53192e-06 0)
(-0.505288 -1.50101e-06 0)
(-0.505287 1.34674e-06 0)
(-0.505286 -1.31192e-06 0)
(-0.505284 1.15979e-06 0)
(-0.505283 -1.12475e-06 0)
(-0.505282 9.77058e-07 0)
(-0.505282 -9.43836e-07 0)
(-0.505281 8.02577e-07 0)
(-0.505281 -7.72969e-07 0)
(-0.50528 6.39377e-07 0)
(-0.50528 -6.14484e-07 0)
(-0.505279 4.89793e-07 0)
(-0.505279 -4.70288e-07 0)
(-0.505279 3.54911e-07 0)
(-0.505279 -3.41487e-07 0)
(-0.505279 2.35064e-07 0)
(-0.505278 -2.29625e-07 0)
(-0.505278 1.33059e-07 0)
(-0.505278 -1.31712e-07 0)
(-0.505278 4.5786e-08 0)
(-0.505278 -5.01927e-08 0)
(-0.505278 -2.59576e-08 0)
(-0.505278 1.62566e-08 0)
(-0.505278 -8.28358e-08 0)
(-0.505278 6.84554e-08 0)
(-0.505278 -1.25795e-07 0)
(-0.505278 1.0745e-07 0)
(-0.505278 -1.55942e-07 0)
(-0.505278 1.34431e-07 0)
(-0.505278 -1.74579e-07 0)
(-0.505278 1.5069e-07 0)
(-0.505278 -1.83103e-07 0)
(-0.505278 1.57613e-07 0)
(-0.505278 -1.83008e-07 0)
(-0.505278 1.56568e-07 0)
(-0.505278 -1.7586e-07 0)
(-0.505278 1.48881e-07 0)
(-0.505278 -1.63258e-07 0)
(-0.505278 1.35893e-07 0)
(-0.505278 -1.46565e-07 0)
(-0.505278 1.19073e-07 0)
(-0.505278 -1.27011e-07 0)
(-0.505278 9.97756e-08 0)
(-0.505278 -1.05733e-07 0)
(-0.505278 7.92052e-08 0)
(-0.505278 -8.38439e-08 0)
(-0.505278 5.83917e-08 0)
(-0.505278 -6.22336e-08 0)
(-0.505278 3.83148e-08 0)
(-0.505278 -4.16716e-08 0)
(-0.505278 1.97274e-08 0)
(-0.505278 -2.28123e-08 0)
(-0.505278 3.19044e-09 0)
(-0.505278 -6.27059e-09 0)
(-0.505278 -1.09296e-08 0)
(-0.505278 7.62147e-09 0)
(-0.505278 -2.22545e-08 0)
(-0.505278 1.86546e-08 0)
(-0.505278 -3.0617e-08 0)
(-0.505278 2.67347e-08 0)
(-0.505278 -3.59527e-08 0)
(-0.505278 3.18392e-08 0)
(-0.505278 -3.83576e-08 0)
(-0.505278 3.40592e-08 0)
(-0.505278 -3.79745e-08 0)
(-0.505278 3.3559e-08 0)
(-0.505278 -3.50688e-08 0)
(-0.505278 3.05222e-08 0)
(-0.505278 -3.00118e-08 0)
(-0.505278 2.50558e-08 0)
(-0.505278 -2.32465e-08 0)
(-0.505278 1.76113e-08 0)
(-0.505278 -1.49374e-08 0)
(-0.505278 8.62765e-09 0)
(-0.505278 -5.38155e-09 0)
(-0.505278 -1.4925e-09 0)
(-0.505278 5.08379e-09 0)
(-0.505278 -1.23905e-08 0)
(-0.505278 1.61091e-08 0)
(-0.505278 -2.37405e-08 0)
(-0.505278 2.73678e-08 0)
(-0.505278 -3.52204e-08 0)
(-0.505278 3.39968e-08 0)
(-0.505278 -4.11474e-08 0)
(-0.505278 4.31295e-08 0)
(-0.505278 -5.01951e-08 0)
(-0.505278 5.14071e-08 0)
(-0.505278 -5.83738e-08 0)
(-0.505278 5.87193e-08 0)
(-0.505278 -6.55671e-08 0)
(-0.505278 6.49962e-08 0)
(-0.505278 -7.17501e-08 0)
(-0.505278 7.01455e-08 0)
(-0.505278 -7.69528e-08 0)
(-0.505278 7.41656e-08 0)
(-0.505278 -8.11734e-08 0)
(-0.505278 7.70881e-08 0)
(-0.505278 -8.44976e-08 0)
(-0.505278 7.88487e-08 0)
(-0.505278 -8.76682e-08 0)
(-0.505278 7.77465e-08 0)
(-0.505278 -9.28904e-08 0)
(-0.505278 7.3019e-08 0)
(-0.505278 -9.91625e-08 0)
(-0.505278 6.70346e-08 0)
(-0.505278 -1.04781e-07 0)
(-0.505278 6.07314e-08 0)
(-0.505278 -1.09402e-07 0)
(-0.505278 5.41603e-08 0)
(-0.505278 -1.14006e-07 0)
(-0.505278 4.71507e-08 0)
(-0.505278 -1.174e-07 0)
(-0.505278 4.11862e-08 0)
(-0.505278 -1.19811e-07 0)
(-0.505278 3.63963e-08 0)
(-0.505278 -1.19853e-07 0)
(-0.505278 3.08697e-08 0)
(-0.505278 -1.2355e-07 0)
(-0.505278 3.00664e-08 0)
(-0.505278 -1.08894e-07 0)
(-0.505278 3.05595e-08 0)
(-0.505278 -1.28219e-07 0)
(-0.505278 1.87301e-08 0)
(-0.505278 -1.20622e-07 0)
(-0.505278 2.59858e-08 0)
(-0.505278 -1.17777e-07 0)
(-0.505278 3.03166e-08 0)
(-0.505278 -1.06854e-07 0)
(-0.505278 4.57481e-08 0)
(-0.505278 -8.98138e-08 0)
(-0.505278 5.91437e-08 0)
(-0.505278 -7.59548e-08 0)
)
;

boundaryField
{
    inandouthalf11
    {
        type            cyclic;
    }
    inandouthalf12
    {
        type            cyclic;
    }
    inandouthalf21
    {
        type            cyclic;
    }
    inandouthalf22
    {
        type            cyclic;
    }
    inandouthalf31
    {
        type            cyclic;
    }
    inandouthalf32
    {
        type            cyclic;
    }
    inandouthalf41
    {
        type            cyclic;
    }
    inandouthalf42
    {
        type            cyclic;
    }
    top
    {
        type            symmetryPlane;
    }
    walls
    {
        type            calculated;
        value           uniform (0 0 0);
    }
    frontAndBackPlanes
    {
        type            empty;
    }
}


// ************************************************************************* //
