/*--------------------------------*- C++ -*----------------------------------*\
| =========                 |                                                 |
| \\      /  F ield         | OpenFOAM: The Open Source CFD Toolbox           |
|  \\    /   O peration     | Version:  2.4.x                                 |
|   \\  /    A nd           | Web:      www.OpenFOAM.org                      |
|    \\/     M anipulation  |                                                 |
\*---------------------------------------------------------------------------*/
FoamFile
{
    version     2.0;
    format      ascii;
    class       volVectorField;
    location    "1.9";
    object      ddt0(Ua);
}
// * * * * * * * * * * * * * * * * * * * * * * * * * * * * * * * * * * * * * //

dimensions      [0 1 -2 0 0 0 0];

internalField   nonuniform List<vector> 
360
(
(-2.52463e-37 -1.07973e-35 0)
(-2.52533e-37 -1.07986e-35 0)
(-2.52795e-37 -1.08006e-35 0)
(-2.53377e-37 -1.08051e-35 0)
(-2.54312e-37 -1.08121e-35 0)
(-2.5562e-37 -1.08219e-35 0)
(-2.57316e-37 -1.08347e-35 0)
(-2.59411e-37 -1.08508e-35 0)
(-2.61917e-37 -1.08702e-35 0)
(-2.64843e-37 -1.08932e-35 0)
(-2.68199e-37 -1.09199e-35 0)
(-2.71989e-37 -1.09504e-35 0)
(-2.76218e-37 -1.09847e-35 0)
(-2.80891e-37 -1.1023e-35 0)
(-2.8601e-37 -1.10652e-35 0)
(-2.91576e-37 -1.11113e-35 0)
(-2.97588e-37 -1.11614e-35 0)
(-3.04045e-37 -1.12153e-35 0)
(-3.10945e-37 -1.12729e-35 0)
(-3.1829e-37 -1.13343e-35 0)
(-3.26077e-37 -1.13993e-35 0)
(-3.34305e-37 -1.14678e-35 0)
(-3.42974e-37 -1.15397e-35 0)
(-3.52084e-37 -1.16149e-35 0)
(-3.61631e-37 -1.16934e-35 0)
(-3.71613e-37 -1.17748e-35 0)
(-3.8203e-37 -1.18592e-35 0)
(-3.92888e-37 -1.19466e-35 0)
(-4.04194e-37 -1.20368e-35 0)
(-4.15951e-37 -1.213e-35 0)
(-4.28161e-37 -1.22259e-35 0)
(-4.40832e-37 -1.23248e-35 0)
(-4.53969e-37 -1.24266e-35 0)
(-4.67586e-37 -1.25316e-35 0)
(-4.81694e-37 -1.26398e-35 0)
(-4.96303e-37 -1.27515e-35 0)
(-5.11427e-37 -1.28669e-35 0)
(-5.27086e-37 -1.29866e-35 0)
(-5.43305e-37 -1.3111e-35 0)
(-5.60096e-37 -1.32406e-35 0)
(-5.77479e-37 -1.33759e-35 0)
(-5.95476e-37 -1.35178e-35 0)
(-6.14105e-37 -1.36669e-35 0)
(-6.33397e-37 -1.38243e-35 0)
(-6.53386e-37 -1.39912e-35 0)
(-6.74101e-37 -1.41687e-35 0)
(-6.95574e-37 -1.43584e-35 0)
(-7.17839e-37 -1.45618e-35 0)
(-7.40952e-37 -1.4781e-35 0)
(-7.64988e-37 -1.50189e-35 0)
(-7.90027e-37 -1.52781e-35 0)
(-8.16127e-37 -1.55624e-35 0)
(-8.43401e-37 -1.58752e-35 0)
(-8.7193e-37 -1.6223e-35 0)
(-9.01913e-37 -1.66105e-35 0)
(-9.33434e-37 -1.70523e-35 0)
(-9.66884e-37 -1.75572e-35 0)
(-1.00224e-36 -1.81649e-35 0)
(-1.0403e-36 -1.89077e-35 0)
(-1.08038e-36 -1.99359e-35 0)
(-1.12413e-36 -2.1425e-35 0)
(-1.16656e-36 -2.41288e-35 0)
(-1.20245e-36 -2.9671e-35 0)
(-1.12409e-36 -4.63457e-35 0)
(-5.07048e-37 -1.04556e-34 0)
(4.88287e-36 -4.30367e-34 0)
(7.62141e-35 -3.75733e-33 0)
(2.53122e-32 -7.94703e-31 0)
(1.92986e-29 -5.38808e-28 0)
(1.11286e-23 -2.86361e-22 0)
(5.75875e-14 -1.39436e-12 0)
(2.48396e-08 -1.57874e-06 0)
(2.72342e-08 -7.64439e-06 0)
(-3.02428e-07 -1.41048e-05 0)
(-1.05776e-06 -1.53647e-05 0)
(-1.8728e-06 -1.38991e-05 0)
(-2.49613e-06 -1.28066e-05 0)
(-2.93716e-06 -1.25029e-05 0)
(-3.27556e-06 -1.26289e-05 0)
(-3.57622e-06 -1.2895e-05 0)
(-3.88483e-06 -1.31089e-05 0)
(-4.23502e-06 -1.3113e-05 0)
(-4.64901e-06 -1.27825e-05 0)
(-5.13323e-06 -1.20738e-05 0)
(-5.67628e-06 -1.10607e-05 0)
(-6.25497e-06 -9.90001e-06 0)
(-6.84561e-06 -8.74954e-06 0)
(-7.43301e-06 -7.70213e-06 0)
(-8.01318e-06 -6.77002e-06 0)
(-8.59108e-06 -5.90503e-06 0)
(-9.17637e-06 -5.03034e-06 0)
(-9.7795e-06 -4.06872e-06 0)
(-1.04088e-05 -2.96222e-06 0)
(-1.10692e-05 -1.68206e-06 0)
(-1.17617e-05 -2.29189e-07 0)
(-1.24843e-05 1.37247e-06 0)
(-1.32333e-05 3.08582e-06 0)
(-1.40038e-05 4.8698e-06 0)
(-1.47914e-05 6.68602e-06 0)
(-1.55917e-05 8.50252e-06 0)
(-1.64015e-05 1.02952e-05 0)
(-1.72182e-05 1.20476e-05 0)
(-1.80402e-05 1.37499e-05 0)
(-1.88666e-05 1.5397e-05 0)
(-1.9697e-05 1.69866e-05 0)
(-2.05315e-05 1.8517e-05 0)
(-2.13699e-05 1.9986e-05 0)
(-2.22121e-05 2.13899e-05 0)
(-2.30578e-05 2.27235e-05 0)
(-2.39067e-05 2.39807e-05 0)
(-2.47582e-05 2.51556e-05 0)
(-2.56124e-05 2.62436e-05 0)
(-2.64698e-05 2.72433e-05 0)
(-2.7332e-05 2.81572e-05 0)
(-2.82016e-05 2.89934e-05 0)
(-2.90833e-05 2.97661e-05 0)
(-2.99835e-05 3.04962e-05 0)
(-3.09107e-05 3.12112e-05 0)
(-3.18762e-05 3.19454e-05 0)
(-3.2894e-05 3.27383e-05 0)
(-3.39806e-05 3.36343e-05 0)
(-3.51558e-05 3.468e-05 0)
(-3.64413e-05 3.59216e-05 0)
(-3.78603e-05 3.73997e-05 0)
(-3.94349e-05 3.91434e-05 0)
(-4.11819e-05 4.11607e-05 0)
(-4.31086e-05 4.34313e-05 0)
(-4.52086e-05 4.59037e-05 0)
(-4.74645e-05 4.85088e-05 0)
(-4.98618e-05 5.11946e-05 0)
(-5.24167e-05 5.39772e-05 0)
(-5.52093e-05 5.69829e-05 0)
(-5.84114e-05 6.04602e-05 0)
(-6.22955e-05 6.47563e-05 0)
(-6.72104e-05 7.02511e-05 0)
(-7.34788e-05 7.71887e-05 0)
(-8.11904e-05 8.53977e-05 0)
(-9.001e-05 9.41481e-05 0)
(-9.91636e-05 0.000102384 0)
(-0.000107557 0.000109071 0)
(-0.000114055 0.000113483 0)
(-0.000118184 0.00011567 0)
(-0.000120501 0.000116545 0)
(-0.000121765 0.000116875 0)
(-0.000122445 0.000116987 0)
(-0.000122824 0.000117019 0)
(-0.000123112 0.000117033 0)
(-0.000123514 0.000117035 0)
(-0.000125137 0.000116986 0)
(-0.209978 0.00067111 0)
(-0.625668 0.00184002 0)
(-0.954353 -0.0163262 0)
(-1.20122 -0.0356257 0)
(-1.34074 -0.0473294 0)
(-1.36458 -0.049207 0)
(-1.27189 -0.0414356 0)
(-1.08196 -0.0277886 0)
(-0.850393 -0.0131992 0)
(-0.660558 -0.000166127 0)
(-0.55838 0.00826487 0)
(-0.520702 0.0120572 0)
(-0.507833 0.0135004 0)
(-0.502258 0.0138199 0)
(-0.499176 0.0139195 0)
(-0.497264 0.0139929 0)
(-0.4959 0.0140581 0)
(-0.494851 0.0141246 0)
(-0.493906 0.0141824 0)
(-0.492985 0.0142341 0)
(-0.492049 0.0142782 0)
(-0.491048 0.0143136 0)
(-0.489985 0.0143404 0)
(-0.488833 0.0143581 0)
(-0.487623 0.0143684 0)
(-0.486335 0.0143713 0)
(-0.484966 0.0143646 0)
(-0.483526 0.0143505 0)
(-0.482072 0.0143336 0)
(-0.480537 0.0143082 0)
(-0.478947 0.0142755 0)
(-0.477344 0.0142401 0)
(-0.475684 0.0141978 0)
(-0.474004 0.0141512 0)
(-0.472298 0.0141004 0)
(-0.4706 0.0140475 0)
(-0.468872 0.0139902 0)
(-0.467099 0.0139261 0)
(-0.465346 0.0138609 0)
(-0.463673 0.0137996 0)
(-0.461937 0.0137307 0)
(-0.460162 0.0136554 0)
(-0.458459 0.0135833 0)
(-0.456789 0.0135102 0)
(-0.455176 0.0134384 0)
(-0.453541 0.0133624 0)
(-0.451842 0.0132776 0)
(-0.450203 0.0131939 0)
(-0.448743 0.0131205 0)
(-0.447398 0.013052 0)
(-0.446069 0.0129807 0)
(-0.444647 0.0128988 0)
(-0.443155 0.0128066 0)
(-0.441782 0.0127192 0)
(-0.440723 0.0126532 0)
(-0.439804 0.012595 0)
(-0.438674 0.0125162 0)
(-0.437293 0.0124115 0)
(-0.436095 0.0123162 0)
(-0.435333 0.0122552 0)
(-0.434599 0.0121931 0)
(-0.433512 0.0120954 0)
(-0.432457 0.0119929 0)
(-0.431852 0.0119281 0)
(-0.431267 0.0118625 0)
(-0.43024 0.0117505 0)
(-0.429325 0.0116386 0)
(-0.428984 0.0115786 0)
(-0.428664 0.0115174 0)
(-0.427867 0.0114049 0)
(-0.427049 0.0112784 0)
(-0.426747 0.0111996 0)
(-0.426495 0.0111218 0)
(-0.425945 0.0110037 0)
(-0.425598 0.0108973 0)
(-0.425459 0.0108115 0)
(-0.424972 0.0106778 0)
(-0.424628 0.0105439 0)
(-0.424718 0.010457 0)
(-0.424486 0.0103254 0)
(-0.424178 0.0101654 0)
(-0.424356 0.0100566 0)
(-0.424466 0.00993195 0)
(-0.424396 0.00976924 0)
(-0.424438 0.00960957 0)
(-0.424632 0.0094555 0)
(-0.42499 0.00931122 0)
(-0.425325 0.00915443 0)
(-0.425629 0.00897762 0)
(-0.426421 0.00885567 0)
(-0.428011 0.00884013 0)
(-0.430087 0.00890074 0)
(-0.43245 0.00902197 0)
(-0.434933 0.00919572 0)
(-0.437846 0.00932942 0)
(-0.498929 7.51319e-05 0)
(-0.49895 7.25981e-05 0)
(-0.498945 7.29318e-05 0)
(-0.498945 7.29542e-05 0)
(-0.498945 7.2916e-05 0)
(-0.498945 7.29337e-05 0)
(-0.498945 7.29297e-05 0)
(-0.498945 7.29173e-05 0)
(-0.498945 7.29408e-05 0)
(-0.498945 7.2905e-05 0)
(-0.498945 7.29495e-05 0)
(-0.498945 7.28963e-05 0)
(-0.498945 7.29559e-05 0)
(-0.498945 7.28906e-05 0)
(-0.498945 7.29562e-05 0)
(-0.498945 7.28972e-05 0)
(-0.498945 7.29506e-05 0)
(-0.498945 7.29021e-05 0)
(-0.498945 7.29509e-05 0)
(-0.498945 7.28957e-05 0)
(-0.498945 7.29545e-05 0)
(-0.498945 7.28975e-05 0)
(-0.498945 7.29528e-05 0)
(-0.498945 7.29001e-05 0)
(-0.498945 7.29503e-05 0)
(-0.498945 7.29034e-05 0)
(-0.498945 7.29472e-05 0)
(-0.498945 7.29071e-05 0)
(-0.498945 7.29437e-05 0)
(-0.498945 7.29111e-05 0)
(-0.498945 7.294e-05 0)
(-0.498945 7.29152e-05 0)
(-0.498945 7.29364e-05 0)
(-0.498945 7.29191e-05 0)
(-0.498945 7.2933e-05 0)
(-0.498945 7.29229e-05 0)
(-0.498945 7.29299e-05 0)
(-0.498945 7.29262e-05 0)
(-0.498945 7.29272e-05 0)
(-0.498945 7.29291e-05 0)
(-0.498945 7.2925e-05 0)
(-0.498945 7.29315e-05 0)
(-0.498945 7.29233e-05 0)
(-0.498945 7.29334e-05 0)
(-0.498945 7.29222e-05 0)
(-0.498945 7.29347e-05 0)
(-0.498945 7.29217e-05 0)
(-0.498945 7.29354e-05 0)
(-0.498945 7.29217e-05 0)
(-0.498945 7.29355e-05 0)
(-0.498945 7.29222e-05 0)
(-0.498945 7.29352e-05 0)
(-0.498945 7.29232e-05 0)
(-0.498945 7.29342e-05 0)
(-0.498945 7.29244e-05 0)
(-0.498945 7.29328e-05 0)
(-0.498945 7.2926e-05 0)
(-0.498945 7.29311e-05 0)
(-0.498945 7.29279e-05 0)
(-0.498945 7.29291e-05 0)
(-0.498945 7.293e-05 0)
(-0.498945 7.29269e-05 0)
(-0.498945 7.29322e-05 0)
(-0.498945 7.29245e-05 0)
(-0.498945 7.29345e-05 0)
(-0.498945 7.29221e-05 0)
(-0.498945 7.29358e-05 0)
(-0.498945 7.29209e-05 0)
(-0.498945 7.29377e-05 0)
(-0.498945 7.2919e-05 0)
(-0.498945 7.29394e-05 0)
(-0.498945 7.29173e-05 0)
(-0.498945 7.29409e-05 0)
(-0.498945 7.29157e-05 0)
(-0.498945 7.29422e-05 0)
(-0.498945 7.29144e-05 0)
(-0.498945 7.29432e-05 0)
(-0.498945 7.29132e-05 0)
(-0.498945 7.29441e-05 0)
(-0.498945 7.29122e-05 0)
(-0.498945 7.29446e-05 0)
(-0.498945 7.29114e-05 0)
(-0.498945 7.29449e-05 0)
(-0.498945 7.29104e-05 0)
(-0.498945 7.29443e-05 0)
(-0.498945 7.29086e-05 0)
(-0.498945 7.29424e-05 0)
(-0.498945 7.29062e-05 0)
(-0.498945 7.29402e-05 0)
(-0.498945 7.29039e-05 0)
(-0.498945 7.29379e-05 0)
(-0.498945 7.2902e-05 0)
(-0.498945 7.29356e-05 0)
(-0.498945 7.28999e-05 0)
(-0.498945 7.29331e-05 0)
(-0.498945 7.28983e-05 0)
(-0.498945 7.29311e-05 0)
(-0.498945 7.2897e-05 0)
(-0.498945 7.29295e-05 0)
(-0.498945 7.28965e-05 0)
(-0.498945 7.29277e-05 0)
(-0.498945 7.28947e-05 0)
(-0.498945 7.29276e-05 0)
(-0.498945 7.28999e-05 0)
(-0.498945 7.29278e-05 0)
(-0.498945 7.28923e-05 0)
(-0.498945 7.29234e-05 0)
(-0.498945 7.28949e-05 0)
(-0.498945 7.29261e-05 0)
(-0.498945 7.28958e-05 0)
(-0.498945 7.29278e-05 0)
(-0.498945 7.28993e-05 0)
(-0.498945 7.29386e-05 0)
(-0.498943 7.29847e-05 0)
(-0.498899 7.47087e-05 0)
(-0.497885 0.000143906 0)
)
;

boundaryField
{
    inandouthalf11
    {
        type            cyclic;
    }
    inandouthalf12
    {
        type            cyclic;
    }
    inandouthalf21
    {
        type            cyclic;
    }
    inandouthalf22
    {
        type            cyclic;
    }
    inandouthalf31
    {
        type            cyclic;
    }
    inandouthalf32
    {
        type            cyclic;
    }
    inandouthalf41
    {
        type            cyclic;
    }
    inandouthalf42
    {
        type            cyclic;
    }
    top
    {
        type            symmetryPlane;
    }
    walls
    {
        type            calculated;
        value           uniform (0 0 0);
    }
    frontAndBackPlanes
    {
        type            empty;
    }
}


// ************************************************************************* //
