/*--------------------------------*- C++ -*----------------------------------*\
| =========                 |                                                 |
| \\      /  F ield         | OpenFOAM: The Open Source CFD Toolbox           |
|  \\    /   O peration     | Version:  2.4.x                                 |
|   \\  /    A nd           | Web:      www.OpenFOAM.org                      |
|    \\/     M anipulation  |                                                 |
\*---------------------------------------------------------------------------*/
FoamFile
{
    version     2.0;
    format      ascii;
    class       volScalarField;
    location    "1.9";
    object      mua;
}
// * * * * * * * * * * * * * * * * * * * * * * * * * * * * * * * * * * * * * //

dimensions      [1 -1 -1 0 0 0 0];

internalField   nonuniform List<scalar> 
360
(
7.94207e+33
6.87784e+36
6.99977e+36
6.61964e+36
6.19521e+36
5.81013e+36
5.46236e+36
5.14535e+36
4.85888e+36
4.59636e+36
4.35788e+36
4.14303e+36
3.94543e+36
3.76448e+36
3.5995e+36
3.44902e+36
3.31165e+36
3.18598e+36
3.06999e+36
2.96194e+36
2.86336e+36
2.7711e+36
2.68534e+36
2.60628e+36
2.53338e+36
2.46589e+36
2.40235e+36
2.34095e+36
2.28288e+36
2.22857e+36
2.17708e+36
2.1274e+36
2.08031e+36
2.03333e+36
1.98861e+36
1.94479e+36
1.90148e+36
1.85746e+36
1.81342e+36
1.77084e+36
1.72719e+36
1.68379e+36
1.6404e+36
1.59504e+36
1.54906e+36
1.50222e+36
1.45445e+36
1.40576e+36
1.35367e+36
1.29852e+36
1.24197e+36
1.18338e+36
1.12219e+36
1.0585e+36
9.90982e+35
9.19722e+35
8.42096e+35
7.5843e+35
6.60387e+35
5.49832e+35
4.15707e+35
2.73985e+35
1.36932e+35
5.1294e+34
1.22829e+34
1.59798e+33
1.84541e+31
4.30624e+28
1.22413e+23
3.5221e+13
1.31803e+06
174489
58986.3
37266.1
36749.9
47116.2
65113.6
84525
97166.3
99104
92761.3
83177
74230.7
67609.3
63462.9
61243.4
60201.5
59660
59136.8
58398.6
57429.8
56328.4
55205.7
54137.5
53148
52222.1
51330.4
50447.8
49560.4
48664
47758.1
46839.4
45899.6
44926.5
43907.1
42829.6
41684.9
40467.9
39176.4
37811.8
36378.9
34886
33344.7
31769.8
30178.1
28588
27017.7
25484.3
24002
22581
21226.9
19940.6
18720.5
17565.5
16479.4
15475.8
14579.2
13821.8
13231
12809.3
12508.2
12210.3
11750.9
11016.3
10068.9
9138.82
8449.85
8105.27
8188.01
9028.58
11546.4
17473.5
28049.6
43574.1
66558.1
99231.9
114877
49242.7
0.2024
0.0214565
0.00638868
0.00693765
0.00712868
0.00680769
0.00627875
0.00571848
0.00524317
0.00491986
0.00475323
0.00468816
0.00466302
0.00464771
0.0046337
0.00461958
0.0046049
0.00458997
0.00457481
0.00455951
0.00454425
0.00452898
0.00451385
0.00449881
0.00448394
0.00446916
0.00445454
0.00444002
0.00442564
0.00441132
0.0043971
0.00438293
0.0043688
0.00435469
0.00434058
0.00432645
0.00431228
0.00429807
0.00428379
0.00426943
0.00425496
0.00424039
0.00422569
0.00421086
0.00419587
0.00418073
0.00416542
0.00414994
0.00413427
0.0041184
0.00410232
0.00408604
0.00406956
0.0040527
0.00403524
0.00401717
0.00399845
0.00397908
0.00395901
0.0039382
0.00391659
0.00389416
0.00387087
0.00384667
0.00382149
0.00379529
0.00376801
0.00373957
0.00370989
0.00367889
0.00364652
0.00361265
0.00357717
0.00353994
0.00350086
0.00345975
0.00341645
0.00337076
0.00332244
0.00327122
0.00321681
0.00315885
0.0030969
0.00303044
0.00295888
0.00288143
0.00279711
0.00270468
0.00260249
0.00248828
0.00235878
0.00220904
0.00203082
0.00180833
0.00150265
0
0
0
0
0
0
0
0
0
0
0
0
0
0
0
0
0
0
0
0
0
0
0
0
0
0
0
0
0
0
0
0
0
0
0
0
0
0
0
0
0
0
0
0
0
0
0
0
0
0
0
0
0
0
0
0
0
0
0
0
0
0
0
0
0
0
0
0
0
0
0
0
0
0
0
0
0
0
0
0
0
0
0
0
0
0
0
0
0
0
0
0
0
0
0
0
0
0
0
0
0
0
0
0
0
0
0
0
0
0
0
0
0
0
0
0
0
)
;

boundaryField
{
    inandouthalf11
    {
        type            cyclic;
    }
    inandouthalf12
    {
        type            cyclic;
    }
    inandouthalf21
    {
        type            cyclic;
    }
    inandouthalf22
    {
        type            cyclic;
    }
    inandouthalf31
    {
        type            cyclic;
    }
    inandouthalf32
    {
        type            cyclic;
    }
    inandouthalf41
    {
        type            cyclic;
    }
    inandouthalf42
    {
        type            cyclic;
    }
    top
    {
        type            symmetryPlane;
    }
    walls
    {
        type            calculated;
        value           uniform 1e+30;
    }
    frontAndBackPlanes
    {
        type            empty;
    }
}


// ************************************************************************* //
