/*--------------------------------*- C++ -*----------------------------------*\
| =========                 |                                                 |
| \\      /  F ield         | OpenFOAM: The Open Source CFD Toolbox           |
|  \\    /   O peration     | Version:  2.4.x                                 |
|   \\  /    A nd           | Web:      www.OpenFOAM.org                      |
|    \\/     M anipulation  |                                                 |
\*---------------------------------------------------------------------------*/
FoamFile
{
    version     2.0;
    format      ascii;
    class       volScalarField;
    location    "1.9";
    object      pa;
}
// * * * * * * * * * * * * * * * * * * * * * * * * * * * * * * * * * * * * * //

dimensions      [1 -1 -2 0 0 0 0];

internalField   nonuniform List<scalar> 
360
(
2.87809e-16
2.87809e-16
2.87806e-16
2.87806e-16
2.87806e-16
2.87803e-16
2.87803e-16
2.878e-16
2.878e-16
2.87797e-16
2.87795e-16
2.87795e-16
2.87792e-16
2.87789e-16
2.87786e-16
2.87783e-16
2.8778e-16
2.87777e-16
2.87775e-16
2.87769e-16
2.87766e-16
2.8776e-16
2.87755e-16
2.87749e-16
2.87743e-16
2.87737e-16
2.87732e-16
2.87723e-16
2.87715e-16
2.87706e-16
2.87697e-16
2.87686e-16
2.87677e-16
2.87663e-16
2.87652e-16
2.87637e-16
2.87623e-16
2.87606e-16
2.87586e-16
2.87569e-16
2.87546e-16
2.87523e-16
2.875e-16
2.87472e-16
2.87443e-16
2.87412e-16
2.87378e-16
2.87343e-16
2.87303e-16
2.87258e-16
2.87212e-16
2.87161e-16
2.87107e-16
2.87047e-16
2.86984e-16
2.86913e-16
2.86839e-16
2.86756e-16
2.86668e-16
2.86574e-16
2.86469e-16
2.86358e-16
2.86236e-16
2.86105e-16
2.85963e-16
2.8581e-16
2.85643e-16
2.85462e-16
2.85266e-16
2.85057e-16
2.84864e-16
2.86402e-16
3.00098e-16
3.25044e-16
3.26734e-16
3.09613e-16
2.97216e-16
2.91697e-16
2.89593e-16
2.89055e-16
2.89412e-16
2.90384e-16
2.9169e-16
2.92945e-16
2.93798e-16
2.94122e-16
2.94033e-16
2.93746e-16
2.93438e-16
2.93196e-16
2.93034e-16
2.9292e-16
2.92815e-16
2.9269e-16
2.9253e-16
2.9234e-16
2.9213e-16
2.91909e-16
2.91682e-16
2.91448e-16
0
0
0
0
0
0
0
0
0
0
0
0
0
0
0
2.91408e-16
2.91954e-16
2.92581e-16
2.93281e-16
2.94047e-16
2.94869e-16
2.95742e-16
2.96661e-16
2.9762e-16
2.98588e-16
2.99491e-16
3.00182e-16
3.00438e-16
3.00031e-16
2.98867e-16
2.9715e-16
2.95399e-16
2.9427e-16
2.94254e-16
2.95336e-16
2.96688e-16
2.96843e-16
2.94594e-16
2.89473e-16
2.81642e-16
2.73218e-16
2.67636e-16
2.64891e-16
2.64401e-16
6.26725e-14
2.27353e-09
1.78426e-05
0.00798022
0.451989
4.28134
2.52067
1.80792
1.35863
0.991186
0.669208
0.40281
0.211756
0.0972506
0.0395519
0.014543
0.00575168
0.00303513
0.00207638
0.0015189
0.00122085
0.000970541
0.000795696
0.000680395
0.000559717
0.000492803
0.000412742
0.0003692
0.000310598
0.000281242
0.000241085
0.000218759
0.000186789
0.000171656
0.000150017
0.000133318
0.000121188
0.000105676
9.75183e-05
8.4808e-05
7.85815e-05
6.87299e-05
6.346e-05
5.5377e-05
5.16362e-05
4.59346e-05
4.08611e-05
3.77209e-05
3.33602e-05
3.11519e-05
2.74122e-05
2.52568e-05
2.20106e-05
2.05422e-05
1.85349e-05
1.72952e-05
1.51017e-05
1.3691e-05
1.19583e-05
1.11335e-05
1.03934e-05
9.17083e-06
7.97897e-06
6.93564e-06
6.46088e-06
5.91621e-06
5.09352e-06
4.35363e-06
4.00445e-06
3.64019e-06
3.03437e-06
2.58121e-06
2.36819e-06
2.14213e-06
1.78e-06
1.46914e-06
1.3168e-06
1.1642e-06
9.4587e-07
8.13493e-07
7.21961e-07
5.72236e-07
4.76218e-07
4.22194e-07
3.42541e-07
2.69393e-07
2.32478e-07
1.89646e-07
1.46052e-07
1.21703e-07
9.15587e-08
7.56831e-08
5.507e-08
4.34562e-08
3.16404e-08
2.55923e-08
2.08029e-08
1.62253e-08
1.10895e-08
0
0
0
0
0
0
0
0
0
0
0
0
0
0
0
0
0
0
0
0
0
0
0
0
0
0
0
0
0
0
0
0
0
0
0
0
0
0
0
0
0
0
0
0
0
0
0
0
0
0
0
0
0
0
0
0
0
0
0
0
0
0
0
0
0
0
0
0
0
0
0
0
0
0
0
0
0
0
0
0
0
0
0
0
0
0
0
0
0
0
0
0
0
0
0
0
0
0
0
0
0
0
0
0
0
0
0
0
0
0
0
0
0
0
0
0
0
)
;

boundaryField
{
    inandouthalf11
    {
        type            cyclic;
    }
    inandouthalf12
    {
        type            cyclic;
    }
    inandouthalf21
    {
        type            cyclic;
    }
    inandouthalf22
    {
        type            cyclic;
    }
    inandouthalf31
    {
        type            cyclic;
    }
    inandouthalf32
    {
        type            cyclic;
    }
    inandouthalf41
    {
        type            cyclic;
    }
    inandouthalf42
    {
        type            cyclic;
    }
    top
    {
        type            symmetryPlane;
    }
    walls
    {
        type            calculated;
        value           uniform 2.87809e-16;
    }
    frontAndBackPlanes
    {
        type            empty;
    }
}


// ************************************************************************* //
