/*--------------------------------*- C++ -*----------------------------------*\
| =========                 |                                                 |
| \\      /  F ield         | OpenFOAM: The Open Source CFD Toolbox           |
|  \\    /   O peration     | Version:  2.4.x                                 |
|   \\  /    A nd           | Web:      www.OpenFOAM.org                      |
|    \\/     M anipulation  |                                                 |
\*---------------------------------------------------------------------------*/
FoamFile
{
    version     2.0;
    format      ascii;
    class       volTensorField;
    location    "1.9";
    object      Taus;
}
// * * * * * * * * * * * * * * * * * * * * * * * * * * * * * * * * * * * * * //

dimensions      [0 2 -2 0 0 0 0];

internalField   nonuniform List<tensor> 
360
(
(0 0.0127231 0 0.0127231 -0.163039 0 0 0 0)
(0 0.000148498 0 0.000148498 0.0172543 0 0 0 0)
(0 5.10612e-05 0 5.10612e-05 -0.0146149 0 0 0 0)
(0 -1.8455e-05 0 -1.8455e-05 -0.0227685 0 0 0 0)
(-1.22109e-15 -7.55188e-05 0 -7.55188e-05 -0.0318705 0 0 0 0)
(-1.14519e-15 -0.000120254 0 -0.000120254 -0.0400839 0 0 0 0)
(-1.07664e-15 -0.000153853 0 -0.000153853 -0.0475428 0 0 0 0)
(0 -0.000177531 0 -0.000177531 -0.0542968 0 0 0 0)
(-9.577e-16 -0.000192534 0 -0.000192534 -0.0604415 0 0 0 0)
(0 -0.000199757 0 -0.000199757 -0.0660276 0 0 0 0)
(-4.29476e-16 -0.000200176 0 -0.000200176 -0.0710984 0 0 0 0)
(0 -0.000194715 0 -0.000194715 -0.0757072 0 0 0 0)
(-7.77659e-16 -0.000183985 0 -0.000183985 -0.0799013 0 0 0 0)
(0 -0.000168701 0 -0.000168701 -0.0837381 0 0 0 0)
(0 -0.000149465 0 -0.000149465 -0.0872324 0 0 0 0)
(0 -0.000126825 0 -0.000126825 -0.0904155 0 0 0 0)
(0 -0.000101289 0 -0.000101289 -0.0933176 0 0 0 0)
(-6.27975e-16 -7.33149e-05 0 -7.33149e-05 -0.0959685 0 0 0 0)
(0 -4.32879e-05 0 -4.32879e-05 -0.0984118 0 0 0 0)
(0 -1.15521e-05 0 -1.15521e-05 -0.10064 0 0 0 0)
(0 2.15619e-05 0 2.15619e-05 -0.102709 0 0 0 0)
(-5.46205e-16 5.57671e-05 0 5.57671e-05 -0.104598 0 0 0 0)
(0 9.07961e-05 0 9.07961e-05 -0.106348 0 0 0 0)
(0 0.000126405 0 0.000126405 -0.107954 0 0 0 0)
(0 0.000162346 0 0.000162346 -0.109427 0 0 0 0)
(-4.86052e-16 0.000198405 0 0.000198405 -0.110785 0 0 0 0)
(0 0.000234403 0 0.000234403 -0.112058 0 0 0 0)
(0 0.000270114 0 0.000270114 -0.11324 0 0 0 0)
(0 0.0003055 0 0.0003055 -0.114351 0 0 0 0)
(0 0.000340461 0 0.000340461 -0.115381 0 0 0 0)
(0 0.000374834 0 0.000374834 -0.116351 0 0 0 0)
(0 0.000408422 0 0.000408422 -0.117238 0 0 0 0)
(0 0.000441388 0 0.000441388 -0.118114 0 0 0 0)
(0 0.000473267 0 0.000473267 -0.118899 0 0 0 0)
(0 0.00050445 0 0.00050445 -0.119681 0 0 0 0)
(3.83359e-16 0.000534657 0 0.000534657 -0.120399 0 0 0 0)
(0 0.000563995 0 0.000563995 -0.121107 0 0 0 0)
(0 0.000592296 0 0.000592296 -0.121787 0 0 0 0)
(0 0.000619663 0 0.000619663 -0.122423 0 0 0 0)
(0 0.000646558 0 0.000646558 -0.123074 0 0 0 0)
(0 0.000672331 0 0.000672331 -0.12366 0 0 0 0)
(0 0.000697531 0 0.000697531 -0.124242 0 0 0 0)
(3.23383e-16 0.000722315 0 0.000722315 -0.124825 0 0 0 0)
(0 0.000746248 0 0.000746248 -0.125365 0 0 0 0)
(0 0.000770062 0 0.000770062 -0.125919 0 0 0 0)
(0 0.00079369 0 0.00079369 -0.126451 0 0 0 0)
(0 0.000817406 0 0.000817406 -0.126961 0 0 0 0)
(0 0.000841713 0 0.000841713 -0.127494 0 0 0 0)
(0 0.000866387 0 0.000866387 -0.128016 0 0 0 0)
(0 0.000891665 0 0.000891665 -0.128522 0 0 0 0)
(2.44879e-16 0.000919091 0 0.000919091 -0.129061 0 0 0 0)
(0 0.000947918 0 0.000947918 -0.129564 0 0 0 0)
(0 0.000979762 0 0.000979762 -0.130086 0 0 0 0)
(0 0.00101364 0 0.00101364 -0.130582 0 0 0 0)
(0 0.00105288 0 0.00105288 -0.131126 0 0 0 0)
(0 0.00109435 0 0.00109435 -0.131635 0 0 0 0)
(0 0.00114572 0 0.00114572 -0.132251 0 0 0 0)
(0 0.00120001 0 0.00120001 -0.132888 0 0 0 0)
(0 0.00127573 0 0.00127573 -0.133778 0 0 0 0)
(0 0.00135837 0 0.00135837 -0.134885 0 0 0 0)
(0 0.00148026 0 0.00148026 -0.136387 0 0 0 0)
(0 0.00160756 0 0.00160756 -0.13803 0 0 0 0)
(0 0.00180872 0 0.00180872 -0.1395 0 0 0 0)
(0 0.00197679 0 0.00197679 -0.139779 0 0 0 0)
(0 0.00214887 0 0.00214887 -0.138951 0 0 0 0)
(0 0.00227888 0 0.00227888 -0.137458 0 0 0 0)
(0 0.00250312 0 0.00250312 -0.137581 0 0 0 0)
(0 0.00264979 0 0.00264979 -0.137513 0 0 0 0)
(0 0.00280292 0 0.00280292 -0.138254 0 0 0 0)
(0 0.00296014 0 0.00296014 -0.139603 0 0 0 0)
(0 0.0027524 0 0.0027524 -0.124459 0 0 0 0)
(0 0.00281052 0 0.00281052 -0.121721 0 0 0 0)
(0 0.00292796 0 0.00292796 -0.119908 0 0 0 0)
(0 0.0031308 0 0.0031308 -0.119446 0 0 0 0)
(0 0.00341375 0 0.00341375 -0.119819 0 0 0 0)
(0 0.00372397 0 0.00372397 -0.119958 0 0 0 0)
(0 0.00399465 0 0.00399465 -0.119417 0 0 0 0)
(0 0.00419074 0 0.00419074 -0.11824 0 0 0 0)
(0 0.00431826 0 0.00431826 -0.116653 0 0 0 0)
(0 0.00440248 0 0.00440248 -0.114854 0 0 0 0)
(0 0.00446982 0 0.00446982 -0.113001 0 0 0 0)
(0 0.00453881 0 0.00453881 -0.111182 0 0 0 0)
(0 0.00462062 0 0.00462062 -0.109461 0 0 0 0)
(0 0.00471886 0 0.00471886 -0.107857 0 0 0 0)
(0 0.0048304 0 0.0048304 -0.10634 0 0 0 0)
(0 0.00494856 0 0.00494856 -0.104867 0 0 0 0)
(0 0.00506569 0 0.00506569 -0.103391 0 0 0 0)
(0 0.00517669 0 0.00517669 -0.101891 0 0 0 0)
(0 0.00527913 0 0.00527913 -0.100356 0 0 0 0)
(0 0.0053732 0 0.0053732 -0.0987921 0 0 0 0)
(0 0.00546109 0 0.00546109 -0.0972114 0 0 0 0)
(0 0.00554511 0 0.00554511 -0.0956261 0 0 0 0)
(0 0.00562655 0 0.00562655 -0.0940406 0 0 0 0)
(0 0.00570596 0 0.00570596 -0.0924573 0 0 0 0)
(0 0.00578311 0 0.00578311 -0.0908748 0 0 0 0)
(0 0.00585731 0 0.00585731 -0.08929 0 0 0 0)
(0 0.00592799 0 0.00592799 -0.0877005 0 0 0 0)
(0 0.0059949 0 0.0059949 -0.0861058 0 0 0 0)
(0 0.0060581 0 0.0060581 -0.0845058 0 0 0 0)
(0 0.00611783 0 0.00611783 -0.0829012 0 0 0 0)
(0 0.0061744 0 0.0061744 -0.0812929 0 0 0 0)
(0 0.00622809 0 0.00622809 -0.0796814 0 0 0 0)
(0 0.00627905 0 0.00627905 -0.0780666 0 0 0 0)
(0 0.00632745 0 0.00632745 -0.0764484 0 0 0 0)
(0 0.00637351 0 0.00637351 -0.074827 0 0 0 0)
(0 0.00641749 0 0.00641749 -0.0732027 0 0 0 0)
(0 0.00645977 0 0.00645977 -0.0715757 0 0 0 0)
(0 0.00650075 0 0.00650075 -0.0699465 0 0 0 0)
(0 0.0065409 0 0.0065409 -0.0683156 0 0 0 0)
(0 0.00658068 0 0.00658068 -0.0666833 0 0 0 0)
(0 0.00662058 0 0.00662058 -0.0650499 0 0 0 0)
(0 0.00666108 0 0.00666108 -0.0634158 0 0 0 0)
(0 0.00670265 0 0.00670265 -0.0617813 0 0 0 0)
(0 0.00674575 0 0.00674575 -0.0601465 0 0 0 0)
(0 0.00679077 0 0.00679077 -0.0585117 0 0 0 0)
(0 0.00683809 0 0.00683809 -0.0568769 0 0 0 0)
(0 0.00688801 0 0.00688801 -0.0552424 0 0 0 0)
(0 0.00694077 0 0.00694077 -0.0536081 0 0 0 0)
(0 0.00699657 0 0.00699657 -0.0519741 0 0 0 0)
(0 0.00705552 0 0.00705552 -0.0503402 0 0 0 0)
(0 0.0071176 0 0.0071176 -0.0487061 0 0 0 0)
(0 0.00718264 0 0.00718264 -0.0470712 0 0 0 0)
(0 0.00725021 0 0.00725021 -0.0454347 0 0 0 0)
(0 0.00731958 0 0.00731958 -0.0437954 0 0 0 0)
(0 0.00738979 0 0.00738979 -0.0421519 0 0 0 0)
(0 0.00745987 0 0.00745987 -0.0405032 0 0 0 0)
(0 0.00752941 0 0.00752941 -0.038849 0 0 0 0)
(0 0.00759933 0 0.00759933 -0.0371905 0 0 0 0)
(0 0.00767244 0 0.00767244 -0.0355297 0 0 0 0)
(0 0.00775303 0 0.00775303 -0.0338687 0 0 0 0)
(0 0.00784438 0 0.00784438 -0.0322068 0 0 0 0)
(0 0.00794391 0 0.00794391 -0.0305373 0 0 0 0)
(0 0.0080383 0 0.0080383 -0.0288474 0 0 0 0)
(0 0.00810663 0 0.00810663 -0.0271241 0 0 0 0)
(0 0.00813973 0 0.00813973 -0.0253667 0 0 0 0)
(0 0.00815788 0 0.00815788 -0.0235935 0 0 0 0)
(0 0.00818912 0 0.00818912 -0.0218218 0 0 0 0)
(0 0.00822249 0 0.00822249 -0.0200442 0 0 0 0)
(0 0.00820383 0 0.00820383 -0.0182419 0 0 0 0)
(0 0.00811745 0 0.00811745 -0.0164038 0 0 0 0)
(0 0.00808812 0 0.00808812 -0.014525 0 0 0 0)
(0 0.00825183 0 0.00825183 -0.0126215 0 0 0 0)
(0 0.00823723 0 0.00823723 -0.0105148 0 0 0 0)
(0 0.00779674 0 0.00779674 -0.00850027 0 0 0 0)
(0 0.00708238 0 0.00708238 -0.00663081 0 0 0 0)
(0 0.00622548 0 0.00622548 -0.00463517 0 0 0 0)
(0 0.00529733 0 0.00529733 -0.00221143 0 0 0 0)
(0 0.00407151 0 0.00407151 -0.000167005 0 0 0 0)
(0 0.0026055 0 0.0026055 -2.00939e-05 0 0 0 0)
(0 0.00242663 0 0.00242663 -7.07062e-05 0 0 0 0)
(0 0.00445143 0 0.00445143 -7.57009e-05 0 0 0 0)
(0 0.0134396 0 0.0134396 3.25802e-05 0 0 0 0)
(0 0.0164659 0 0.0164659 0.00030842 0 0 0 0)
(0 0.0165085 0 0.0165085 0.000449472 0 0 0 0)
(0 0.0157564 0 0.0157564 0.000498441 0 0 0 0)
(0 0.015402 0 0.015402 0.000483656 0 0 0 0)
(0 0.0162196 0 0.0162196 0.000426933 0 0 0 0)
(0 0.0190722 0 0.0190722 0.000241963 0 0 0 0)
(0 0.0260244 0 0.0260244 -0.000506388 0 0 0 0)
(0 0.0436246 0 0.0436246 -0.00304756 0 0 0 0)
(0 0.0794514 0 0.0794514 -0.00891674 0 0 0 0)
(0 0.121165 0 0.121165 -0.0160218 0 0 0 0)
(0 0.149585 0 0.149585 -0.0204338 0 0 0 0)
(0 0.175751 0 0.175751 -0.0238925 0 0 0 0)
(0 0.190336 0 0.190336 -0.0255751 0 0 0 0)
(0 0.209293 0 0.209293 -0.0277757 0 0 0 0)
(0 0.224671 0 0.224671 -0.0295254 0 0 0 0)
(0 0.232848 0 0.232848 -0.0302498 0 0 0 0)
(0 0.250305 0 0.250305 -0.0322212 0 0 0 0)
(0 0.254292 0 0.254292 -0.0324505 0 0 0 0)
(0 0.269706 0 0.269706 -0.0341264 0 0 0 0)
(0 0.271476 0 0.271476 -0.0340947 0 0 0 0)
(0 0.287245 0 0.287245 -0.0358385 0 0 0 0)
(0 0.287092 0 0.287092 -0.0356005 0 0 0 0)
(0 0.298987 0 0.298987 -0.0368387 0 0 0 0)
(0 0.299132 0 0.299132 -0.0366722 0 0 0 0)
(0 0.312457 0 0.312457 -0.0381534 0 0 0 0)
(0 0.309768 0 0.309768 -0.0376528 0 0 0 0)
(0 0.31795 0 0.31795 -0.0385002 0 0 0 0)
(0 0.322732 0 0.322732 -0.0389968 0 0 0 0)
(0 0.322787 0 0.322787 -0.0388785 0 0 0 0)
(0 0.330778 0 0.330778 -0.0397805 0 0 0 0)
(0 0.328175 0 0.328175 -0.0394029 0 0 0 0)
(0 0.335847 0 0.335847 -0.0402938 0 0 0 0)
(0 0.3325 0 0.3325 -0.0398743 0 0 0 0)
(0 0.338232 0 0.338232 -0.040558 0 0 0 0)
(0 0.335968 0 0.335968 -0.0403287 0 0 0 0)
(0 0.341411 0 0.341411 -0.0410544 0 0 0 0)
(0 0.336103 0 0.336103 -0.0404399 0 0 0 0)
(0 0.338363 0 0.338363 -0.0408017 0 0 0 0)
(0 0.340849 0 0.340849 -0.0412837 0 0 0 0)
(0 0.337397 0 0.337397 -0.0409817 0 0 0 0)
(0 0.337907 0 0.337907 -0.0412014 0 0 0 0)
(0 0.332371 0 0.332371 -0.0406767 0 0 0 0)
(0 0.333192 0 0.333192 -0.040983 0 0 0 0)
(0 0.331345 0 0.331345 -0.0410369 0 0 0 0)
(0 0.333625 0 0.333625 -0.0416581 0 0 0 0)
(0 0.327466 0 0.327466 -0.0411826 0 0 0 0)
(0 0.321045 0 0.321045 -0.040603 0 0 0 0)
(0 0.314212 0 0.314212 -0.0400384 0 0 0 0)
(0 0.314785 0 0.314785 -0.0405606 0 0 0 0)
(0 0.315001 0 0.315001 -0.0411225 0 0 0 0)
(-5.33806e-14 0.315021 0 0.315021 -0.0416714 0 0 0 0)
(0 0.305369 0 0.305369 -0.0407532 0 0 0 0)
(0 0.293884 0 0.293884 -0.0394613 0 0 0 0)
(2.55252e-14 0.291684 0 0.291684 -0.0396429 0 0 0 0)
(0 0.295193 0 0.295193 -0.0407943 0 0 0 0)
(-2.49058e-14 0.295073 0 0.295073 -0.0414032 0 0 0 0)
(0 0.284594 0 0.284594 -0.040271 0 0 0 0)
(2.3929e-14 0.275249 0 0.275249 -0.0392558 0 0 0 0)
(0 0.275948 0 0.275948 -0.0400098 0 0 0 0)
(0 0.276624 0 0.276624 -0.0408314 0 0 0 0)
(0 0.2674 0 0.2674 -0.0398518 0 0 0 0)
(2.21329e-14 0.259627 0 0.259627 -0.0390443 0 0 0 0)
(0 0.262528 0 0.262528 -0.0402561 0 0 0 0)
(0 0.263177 0 0.263177 -0.0411451 0 0 0 0)
(0 0.252837 0 0.252837 -0.0399192 0 0 0 0)
(0 0.243564 0 0.243564 -0.0388172 0 0 0 0)
(0 0.24529 0 0.24529 -0.0398746 0 0 0 0)
(-3.84666e-14 0.247763 0 0.247763 -0.0411656 0 0 0 0)
(0 0.240906 0 0.240906 -0.040544 0 0 0 0)
(0 0.23463 0 0.23463 -0.0399958 0 0 0 0)
(0 0.234835 0 0.234835 -0.0409054 0 0 0 0)
(0 0.230841 0 0.230841 -0.0409111 0 0 0 0)
(0 0.225246 0 0.225246 -0.04045 0 0 0 0)
(0 0.226602 0 0.226602 -0.041628 0 0 0 0)
(0 0.224736 0 0.224736 -0.0421565 0 0 0 0)
(0 0.217074 0 0.217074 -0.0412595 0 0 0 0)
(2.90783e-14 0.215057 0 0.215057 -0.0417054 0 0 0 0)
(0 0.214767 0 0.214767 -0.0426484 0 0 0 0)
(0 0.208373 0 0.208373 -0.0420682 0 0 0 0)
(0 0.203321 0 0.203321 -0.0418187 0 0 0 0)
(0 0.200391 0 0.200391 -0.0421487 0 0 0 0)
(0 0.195189 0 0.195189 -0.0418713 0 0 0 0)
(0 0.188737 0 0.188737 -0.0413139 0 0 0 0)
(0 0.180659 0 0.180659 -0.0403292 0 0 0 0)
(0 0.171825 0 0.171825 -0.0391576 0 0 0 0)
(0 0.160694 0 0.160694 -0.0374063 0 0 0 0)
(0 0.145257 0 0.145257 -0.0345189 0 0 0 0)
(0 0.123661 0 0.123661 -0.029952 0 0 0 0)
(0 0.0970921 0 0.0970921 -0.0239676 0 0 0 0)
(0 0.0691767 0 0.0691767 -0.0172348 0 0 0 0)
(0 0.0527391 0 0.0527391 -0.014058 0 0 0 0)
(-0 0 0 0 -0 0 0 0 0)
(0 0 0 0 -0 0 0 0 0)
(0 0 0 0 0 0 0 0 0)
(0 0 0 0 -0 0 0 0 0)
(-0 0 0 0 -0 0 0 0 0)
(0 0 0 0 0 0 0 0 0)
(0 0 0 0 -0 0 0 0 0)
(-0 0 0 0 0 0 0 0 0)
(0 0 0 0 -0 0 0 0 0)
(0 0 0 0 0 0 0 0 0)
(0 0 0 0 -0 0 0 0 0)
(0 0 0 0 0 0 0 0 0)
(0 0 0 0 -0 0 0 0 0)
(0 0 0 0 0 0 0 0 0)
(0 0 0 0 -0 0 0 0 0)
(0 0 0 0 0 0 0 0 0)
(0 0 0 0 -0 0 0 0 0)
(0 0 0 0 0 0 0 0 0)
(0 0 0 0 -0 0 0 0 0)
(0 0 0 0 0 0 0 0 0)
(0 0 0 0 -0 0 0 0 0)
(0 0 0 0 0 0 0 0 0)
(0 0 0 0 -0 0 0 0 0)
(0 0 0 0 0 0 0 0 0)
(0 0 0 0 -0 0 0 0 0)
(0 0 0 0 0 0 0 0 0)
(0 0 0 0 -0 0 0 0 0)
(0 0 0 0 0 0 0 0 0)
(0 0 0 0 -0 0 0 0 0)
(0 0 0 0 0 0 0 0 0)
(0 0 0 0 -0 0 0 0 0)
(0 0 0 0 0 0 0 0 0)
(0 0 0 0 -0 0 0 0 0)
(0 0 0 0 0 0 0 0 0)
(0 0 0 0 -0 0 0 0 0)
(0 0 0 0 0 0 0 0 0)
(0 0 0 0 -0 0 0 0 0)
(0 0 0 0 0 0 0 0 0)
(0 0 0 0 -0 0 0 0 0)
(0 0 0 0 0 0 0 0 0)
(0 0 0 0 -0 0 0 0 0)
(0 0 0 0 0 0 0 0 0)
(0 0 0 0 -0 0 0 0 0)
(0 -0 0 -0 0 0 0 0 0)
(0 0 0 0 -0 0 0 0 0)
(0 -0 0 -0 0 0 0 0 0)
(0 0 0 0 -0 0 0 0 0)
(0 -0 0 -0 0 0 0 0 0)
(0 0 0 0 -0 0 0 0 0)
(0 -0 0 -0 0 0 0 0 0)
(0 0 0 0 -0 0 0 0 0)
(0 -0 0 -0 0 0 0 0 0)
(0 0 0 0 -0 0 0 0 0)
(0 -0 0 -0 0 0 0 0 0)
(0 0 0 0 -0 0 0 0 0)
(0 -0 0 -0 0 0 0 0 0)
(-0 0 0 0 -0 0 0 0 0)
(0 -0 0 -0 0 0 0 0 0)
(0 0 0 0 -0 0 0 0 0)
(0 -0 0 -0 0 0 0 0 0)
(0 0 0 0 -0 0 0 0 0)
(0 -0 0 -0 0 0 0 0 0)
(0 0 0 0 -0 0 0 0 0)
(0 -0 0 -0 0 0 0 0 0)
(0 0 0 0 -0 0 0 0 0)
(0 -0 0 -0 0 0 0 0 0)
(0 0 0 0 -0 0 0 0 0)
(0 -0 0 -0 0 0 0 0 0)
(0 0 0 0 -0 0 0 0 0)
(0 -0 0 -0 0 0 0 0 0)
(0 0 0 0 -0 0 0 0 0)
(0 -0 0 -0 0 0 0 0 0)
(0 0 0 0 -0 0 0 0 0)
(0 -0 0 -0 0 0 0 0 0)
(0 0 0 0 -0 0 0 0 0)
(0 -0 0 -0 0 0 0 0 0)
(0 0 0 0 -0 0 0 0 0)
(0 -0 0 -0 0 0 0 0 0)
(0 0 0 0 -0 0 0 0 0)
(0 -0 0 -0 0 0 0 0 0)
(0 0 0 0 -0 0 0 0 0)
(0 -0 0 -0 0 0 0 0 0)
(0 0 0 0 -0 0 0 0 0)
(0 -0 0 -0 0 0 0 0 0)
(0 0 0 0 -0 0 0 0 0)
(0 -0 0 -0 0 0 0 0 0)
(0 0 0 0 -0 0 0 0 0)
(0 -0 0 -0 0 0 0 0 0)
(0 0 0 0 -0 0 0 0 0)
(0 -0 0 -0 0 0 0 0 0)
(0 0 0 0 -0 0 0 0 0)
(0 -0 0 -0 0 0 0 0 0)
(0 0 0 0 -0 0 0 0 0)
(0 -0 0 -0 0 0 0 0 0)
(0 0 0 0 -0 0 0 0 0)
(0 -0 0 -0 0 0 0 0 0)
(0 0 0 0 -0 0 0 0 0)
(0 -0 0 -0 0 0 0 0 0)
(0 0 0 0 -0 0 0 0 0)
(0 -0 0 -0 0 0 0 0 0)
(0 0 0 0 -0 0 0 0 0)
(0 -0 0 -0 0 0 0 0 0)
(0 0 0 0 -0 0 0 0 0)
(0 -0 0 -0 0 0 0 0 0)
(0 0 0 0 -0 0 0 0 0)
(0 -0 0 -0 0 0 0 0 0)
(0 0 0 0 -0 0 0 0 0)
(0 -0 0 -0 0 0 0 0 0)
(0 0 0 0 -0 0 0 0 0)
(0 -0 0 -0 0 0 0 0 0)
(0 0 0 0 0 0 0 0 0)
(0 0 0 0 0 0 0 0 0)
(0 0 0 0 0 0 0 0 0)
(0 0 0 0 0 0 0 0 0)
(0 0 0 0 0 0 0 0 0)
(0 0 0 0 0 0 0 0 0)
(0 0 0 0 0 0 0 0 0)
)
;

boundaryField
{
    inandouthalf11
    {
        type            cyclic;
    }
    inandouthalf12
    {
        type            cyclic;
    }
    inandouthalf21
    {
        type            cyclic;
    }
    inandouthalf22
    {
        type            cyclic;
    }
    inandouthalf31
    {
        type            cyclic;
    }
    inandouthalf32
    {
        type            cyclic;
    }
    inandouthalf41
    {
        type            cyclic;
    }
    inandouthalf42
    {
        type            cyclic;
    }
    top
    {
        type            symmetryPlane;
    }
    walls
    {
        type            zeroGradient;
    }
    frontAndBackPlanes
    {
        type            empty;
    }
}


// ************************************************************************* //
