/*--------------------------------*- C++ -*----------------------------------*\
| =========                 |                                                 |
| \\      /  F ield         | OpenFOAM: The Open Source CFD Toolbox           |
|  \\    /   O peration     | Version:  2.4.x                                 |
|   \\  /    A nd           | Web:      www.OpenFOAM.org                      |
|    \\/     M anipulation  |                                                 |
\*---------------------------------------------------------------------------*/
FoamFile
{
    version     2.0;
    format      ascii;
    class       volScalarField;
    location    "11.35";
    object      alpha;
}
// * * * * * * * * * * * * * * * * * * * * * * * * * * * * * * * * * * * * * //

dimensions      [0 0 0 0 0 0 0];

internalField   nonuniform List<scalar> 
360
(
0.610893
0.611761
0.61185
0.61176
0.611718
0.611705
0.611687
0.611665
0.611643
0.61162
0.611597
0.611574
0.611551
0.611527
0.611504
0.61148
0.611456
0.611431
0.611407
0.611382
0.611357
0.611332
0.611306
0.61128
0.611254
0.611228
0.611201
0.611174
0.611147
0.61112
0.611092
0.611064
0.611036
0.611007
0.610978
0.610949
0.610919
0.610889
0.610859
0.610829
0.610797
0.610766
0.610735
0.610702
0.61067
0.610637
0.610604
0.610571
0.610537
0.610502
0.610468
0.610433
0.610397
0.610361
0.610325
0.610288
0.610251
0.610213
0.610174
0.610136
0.610096
0.610057
0.610016
0.609976
0.609934
0.609892
0.60985
0.609807
0.609763
0.609719
0.609674
0.609628
0.609582
0.609535
0.609488
0.609439
0.60939
0.60934
0.60929
0.609238
0.609186
0.609133
0.60908
0.609025
0.608969
0.608913
0.608855
0.608797
0.608737
0.608677
0.608615
0.608552
0.608488
0.608423
0.608356
0.608289
0.60822
0.608149
0.608077
0.608004
0.607929
0.607853
0.607774
0.607694
0.607613
0.607529
0.607444
0.607356
0.607267
0.607175
0.607081
0.606984
0.606885
0.606784
0.606679
0.606572
0.606462
0.606349
0.606233
0.606113
0.605989
0.605862
0.60573
0.605594
0.605454
0.605309
0.605158
0.605003
0.604841
0.604673
0.604497
0.604315
0.604125
0.603925
0.603711
0.603484
0.603243
0.602987
0.602702
0.602378
0.602028
0.601618
0.598781
0.599204
0.598689
0.597838
0.597034
0.593105
0.390778
0.244898
0.187471
0.148976
0.117916
0.0918002
0.0700618
0.0524362
0.0385632
0.0279397
0.0199962
0.0141755
0.00997877
0.00699267
0.00490433
0.0034894
0.00256644
0.00197161
0.0015778
0.00130522
0.00110813
0.000960068
0.000845154
0.000753503
0.000678708
0.000616477
0.00056384
0.000518685
0.000479472
0.000445056
0.000414565
0.000387329
0.000362821
0.000340621
0.000320393
0.000301864
0.000284808
0.000269038
0.000254398
0.000240757
0.000228003
0.000216042
0.000204792
0.000194183
0.000184156
0.000174658
0.000165645
0.000157079
0.000148925
0.000141156
0.000133745
0.000126672
0.000119918
0.000113399
0.00010705
0.000100871
9.48627e-05
8.90265e-05
8.33645e-05
7.78785e-05
7.25711e-05
6.74453e-05
6.25051e-05
5.77549e-05
5.32006e-05
4.88486e-05
4.47056e-05
4.07785e-05
3.70727e-05
3.35919e-05
3.03372e-05
2.73067e-05
2.44957e-05
2.18972e-05
1.95023e-05
1.73011e-05
1.52834e-05
1.34392e-05
1.17596e-05
1.02357e-05
8.85992e-06
7.62617e-06
6.52529e-06
5.5459e-06
4.68537e-06
3.86715e-06
3.08709e-06
2.25881e-06
1.81881e-06
1.55566e-06
1.27079e-06
1.02525e-06
8.16034e-07
6.39919e-07
4.9365e-07
3.74132e-07
2.76968e-07
2.02604e-07
1.40531e-07
9.99529e-08
6.17151e-08
4.28179e-08
2.08629e-08
1.37188e-08
1.92358e-09
5.69526e-20
9.14871e-31
1.33201e-41
1.79692e-52
2.2165e-63
1.56663e-68
8.33861e-69
4.09144e-69
2.07384e-69
1.02282e-69
5.01065e-70
2.41529e-70
1.14504e-70
5.33622e-71
2.44333e-71
1.09857e-71
4.84753e-72
2.09796e-72
8.89983e-73
3.69809e-73
1.50409e-73
5.98336e-74
2.32615e-74
8.83054e-75
3.27006e-75
1.17999e-75
4.14577e-76
1.41673e-76
4.70347e-77
1.51516e-77
4.72966e-78
1.42857e-78
4.16871e-79
1.17325e-79
3.17887e-80
8.27504e-81
2.06503e-81
4.92813e-82
1.12168e-82
2.42761e-83
4.97912e-84
9.6414e-85
1.75495e-85
2.98795e-86
4.73119e-87
6.92038e-88
9.2762e-89
1.12845e-89
1.23103e-90
1.18622e-91
9.89907e-93
6.96431e-94
3.9736e-95
1.7302e-96
5.15243e-98
8.08963e-100
8.70384e-103
1.12443e-109
6.68529e-112
1.96573e-114
8.40898e-125
1.84256e-135
3.04894e-146
3.682e-157
3.89472e-168
3.18483e-179
2.24351e-190
3.52229e-201
1.4303e-211
7.6051e-220
3.98119e-230
2.6153e-238
1.62321e-248
9.00581e-257
6.86447e-267
3.10663e-275
4.43055e-285
1.1048e-293
2.95166e-303
4.1088e-312
9.48606e-322
7.96928e-321
7.83094e-321
2.51973e-321
8.86848e-321
4.57737e-319
2.8055e-319
6.80328e-321
7.09478e-321
6.08689e-321
8.5424e-321
0
0
0
0
0
0
0
0
0
0
0
0
0
0
0
0
)
;

boundaryField
{
    inandouthalf11
    {
        type            cyclic;
    }
    inandouthalf12
    {
        type            cyclic;
    }
    inandouthalf21
    {
        type            cyclic;
    }
    inandouthalf22
    {
        type            cyclic;
    }
    inandouthalf31
    {
        type            cyclic;
    }
    inandouthalf32
    {
        type            cyclic;
    }
    inandouthalf41
    {
        type            cyclic;
    }
    inandouthalf42
    {
        type            cyclic;
    }
    top
    {
        type            symmetryPlane;
    }
    walls
    {
        type            zeroGradient;
    }
    frontAndBackPlanes
    {
        type            empty;
    }
}


// ************************************************************************* //
