/*--------------------------------*- C++ -*----------------------------------*\
| =========                 |                                                 |
| \\      /  F ield         | OpenFOAM: The Open Source CFD Toolbox           |
|  \\    /   O peration     | Version:  2.4.x                                 |
|   \\  /    A nd           | Web:      www.OpenFOAM.org                      |
|    \\/     M anipulation  |                                                 |
\*---------------------------------------------------------------------------*/
FoamFile
{
    version     2.0;
    format      ascii;
    class       volScalarField;
    location    "11.35";
    object      ddt0(k);
}
// * * * * * * * * * * * * * * * * * * * * * * * * * * * * * * * * * * * * * //

dimensions      [0 2 -3 0 0 0 0];

internalField   nonuniform List<scalar> 
360
(
0
0
0
0
0
0
0
0
0
0
0
0
0
0
0
0
0
0
0
0
0
0
0
0
0
0
0
0
0
0
0
0
0
0
0
0
0
0
0
0
0
0
0
0
0
0
0
0
0
0
0
0
0
0
0
0
0
0
0
0
0
0
0
0
0
0
0
0
0
0
0
0
0
0
0
0
0
0
0
0
0
0
0
0
0
0
0
0
0
0
0
0
0
0
0
0
0
0
0
0
0
0
0
0
0
0
0
0
0
0
0
0
0
0
0
0
0
0
0
0
0
0
0
0
0
0
0
0
0
0
-5.52365e-320
-1.34441e-198
4.8859e-102
-4.58677e-33
-1.10779e-19
-3.68769e-20
1.14907e-18
1.4609e-17
1.8398e-16
2.52035e-15
3.8408e-14
6.64317e-13
1.34469e-11
3.09994e-10
8.36466e-09
2.72444e-07
1.07279e-05
0.000455758
0.00758036
0.00902203
0.00535733
0.00485635
0.00522178
0.00591371
0.00671954
0.00752796
0.00826125
0.00884757
0.00921145
0.00927669
0.00898149
0.0083045
0.00729005
0.0060503
0.00473177
0.0034661
0.00233843
0.00138367
0.000599932
-3.40218e-05
-0.000545492
-0.000960513
-0.00130098
-0.00158411
-0.00182304
-0.00202756
-0.00220497
-0.00236069
-0.00249872
-0.00262207
-0.002733
-0.00283322
-0.00292405
-0.00300649
-0.00308133
-0.0031492
-0.00321058
-0.0032659
-0.00331549
-0.00335962
-0.00339855
-0.00343248
-0.00346161
-0.00348612
-0.00350616
-0.00352188
-0.00353343
-0.00354095
-0.00354457
-0.00354441
-0.00354061
-0.00353322
-0.00352209
-0.00350715
-0.0034883
-0.00346545
-0.0034385
-0.00340737
-0.00337198
-0.00333224
-0.00328807
-0.00323939
-0.00318614
-0.00312825
-0.00306565
-0.00299831
-0.00292617
-0.00284922
-0.00276741
-0.00268075
-0.00258925
-0.00249291
-0.00239179
-0.00228595
-0.00217546
-0.00206044
-0.00194103
-0.0018174
-0.00168976
-0.00155837
-0.00142351
-0.00128554
-0.00114487
-0.00100195
-0.00085734
-0.000711659
-0.000565635
-0.000420071
-0.000275882
-0.00013411
4.08032e-06
0.000137385
0.000264364
0.000383434
0.000492882
0.000590883
0.000675535
0.000744924
0.00079722
0.000830805
0.00084446
0.000837582
0.000810426
0.00076433
0.000701847
0.000626719
0.000543619
0.000457659
0.000373777
0.000296136
0.000227727
0.000170246
0.000124218
8.92641e-05
6.44093e-05
4.83377e-05
3.95864e-05
3.66713e-05
3.81608e-05
4.27116e-05
4.90723e-05
5.60571e-05
6.24731e-05
6.69425e-05
6.75418e-05
6.27369e-05
2.65028e-05
1.64559e-06
2.35782e-08
2.79022e-10
3.09858e-12
3.23905e-14
3.1893e-16
2.9519e-18
1.58599e-20
0
0
0
0
0
0
0
0
0
0
0
0
0
0
0
0
0
0
0
0
0
0
0
0
0
0
0
0
0
0
0
0
0
0
0
0
0
0
0
0
0
0
0
0
0
0
0
0
0
0
0
0
0
0
0
0
0
0
0
0
0
0
0
0
0
0
0
0
0
0
0
0
0
0
0
)
;

boundaryField
{
    inandouthalf11
    {
        type            cyclic;
    }
    inandouthalf12
    {
        type            cyclic;
    }
    inandouthalf21
    {
        type            cyclic;
    }
    inandouthalf22
    {
        type            cyclic;
    }
    inandouthalf31
    {
        type            cyclic;
    }
    inandouthalf32
    {
        type            cyclic;
    }
    inandouthalf41
    {
        type            cyclic;
    }
    inandouthalf42
    {
        type            cyclic;
    }
    top
    {
        type            symmetryPlane;
    }
    walls
    {
        type            calculated;
        value           uniform 0;
    }
    frontAndBackPlanes
    {
        type            empty;
    }
}


// ************************************************************************* //
