/*--------------------------------*- C++ -*----------------------------------*\
| =========                 |                                                 |
| \\      /  F ield         | OpenFOAM: The Open Source CFD Toolbox           |
|  \\    /   O peration     | Version:  2.4.x                                 |
|   \\  /    A nd           | Web:      www.OpenFOAM.org                      |
|    \\/     M anipulation  |                                                 |
\*---------------------------------------------------------------------------*/
FoamFile
{
    version     2.0;
    format      ascii;
    class       surfaceScalarField;
    location    "11.35";
    object      ddt0(phia);
}
// * * * * * * * * * * * * * * * * * * * * * * * * * * * * * * * * * * * * * //

dimensions      [0 3 -2 0 0 0 0];

internalField   nonuniform List<scalar> 
359
(
1.48426e-14
3.70441e-14
5.77039e-14
7.74318e-14
9.72269e-14
1.16707e-13
1.3535e-13
1.52906e-13
1.69262e-13
1.84354e-13
1.98136e-13
2.10587e-13
2.21728e-13
2.31611e-13
2.40318e-13
2.47956e-13
2.54646e-13
2.6052e-13
2.65713e-13
2.70361e-13
2.74595e-13
2.78541e-13
2.82316e-13
2.86025e-13
2.89765e-13
2.9362e-13
2.97661e-13
3.01953e-13
3.06547e-13
3.11488e-13
3.16809e-13
3.2254e-13
3.287e-13
3.35308e-13
3.4237e-13
3.49895e-13
3.57882e-13
3.66332e-13
3.75242e-13
3.84601e-13
3.94405e-13
4.04642e-13
4.15296e-13
4.2636e-13
4.37818e-13
4.49655e-13
4.61856e-13
4.744e-13
4.87276e-13
5.00472e-13
5.13962e-13
5.27738e-13
5.41778e-13
5.56072e-13
5.70598e-13
5.85349e-13
6.00302e-13
6.1545e-13
6.30773e-13
6.46254e-13
6.61893e-13
6.77667e-13
6.93574e-13
7.09597e-13
7.25727e-13
7.4195e-13
7.58259e-13
7.74644e-13
7.91092e-13
8.07591e-13
8.24142e-13
8.40737e-13
8.57359e-13
8.74011e-13
8.90681e-13
9.07367e-13
9.24056e-13
9.40738e-13
9.5741e-13
9.74063e-13
9.9069e-13
1.00729e-12
1.02385e-12
1.04038e-12
1.05686e-12
1.0733e-12
1.08968e-12
1.10599e-12
1.12224e-12
1.13841e-12
1.15449e-12
1.17049e-12
1.18639e-12
1.20218e-12
1.21788e-12
1.23346e-12
1.24893e-12
1.26429e-12
1.27952e-12
1.29463e-12
1.30962e-12
1.3245e-12
1.33927e-12
1.35395e-12
1.36855e-12
1.3831e-12
1.3976e-12
1.41209e-12
1.42657e-12
1.44107e-12
1.45559e-12
1.47012e-12
1.48466e-12
1.49918e-12
1.51362e-12
1.52796e-12
1.54212e-12
1.55607e-12
1.56977e-12
1.58325e-12
1.59656e-12
1.60983e-12
1.62328e-12
1.6372e-12
1.65202e-12
1.66825e-12
1.68657e-12
1.70774e-12
1.73267e-12
1.76224e-12
1.79717e-12
1.83762e-12
1.88279e-12
1.93047e-12
1.97682e-12
2.01681e-12
2.04611e-12
2.06348e-12
2.0714e-12
2.07403e-12
2.07478e-12
2.07477e-12
2.07989e-12
2.08496e-12
2.08951e-12
2.0945e-12
2.11019e-12
7.91093e-10
-7.32447e-09
-1.87348e-08
-2.39231e-08
-2.64674e-08
-2.79919e-08
-2.88987e-08
-2.9137e-08
-2.83971e-08
-2.616e-08
-2.16616e-08
-1.38208e-08
-1.08804e-09
1.85624e-08
4.6154e-08
7.75474e-08
1.03197e-07
1.16868e-07
1.23835e-07
1.2487e-07
1.23178e-07
1.20078e-07
1.16323e-07
1.123e-07
1.082e-07
1.04116e-07
1.0009e-07
9.61412e-08
9.22754e-08
8.84954e-08
8.48015e-08
8.11938e-08
7.76722e-08
7.42367e-08
7.08874e-08
6.76242e-08
6.44471e-08
6.13559e-08
5.83499e-08
5.54287e-08
5.25916e-08
4.98376e-08
4.71661e-08
4.45763e-08
4.20675e-08
3.96393e-08
3.72914e-08
3.50235e-08
3.28356e-08
3.07277e-08
2.86997e-08
2.67513e-08
2.48822e-08
2.30912e-08
2.13429e-08
1.96388e-08
1.798e-08
1.63663e-08
1.4797e-08
1.32704e-08
1.17842e-08
1.03358e-08
8.92246e-09
7.54169e-09
6.19183e-09
4.87234e-09
3.58402e-09
2.32922e-09
1.11188e-09
-6.26399e-11
-1.18785e-09
-2.2567e-09
-3.2622e-09
-4.19809e-09
-5.05927e-09
-5.84193e-09
-6.54344e-09
-7.16181e-09
-7.69497e-09
-8.14066e-09
-8.49664e-09
-8.75757e-09
-8.91556e-09
-8.98637e-09
-8.93809e-09
-8.88683e-09
-8.82126e-09
-9.44863e-09
-1.11408e-08
-9.99693e-09
-1.32863e-08
-1.62918e-08
-1.90635e-08
-2.15929e-08
-2.38701e-08
-2.58684e-08
-2.76652e-08
-2.97122e-08
-2.98042e-08
-3.29648e-08
5.02099e-07
-4.53751e-08
-2.69952e-08
-2.87093e-08
-2.92973e-08
9.37931e-08
2.89483e-08
-5.0375e-10
-4.9779e-10
-5.00574e-10
-4.70525e-10
-4.42775e-10
-4.19639e-10
-3.76639e-10
-3.4113e-10
-3.07878e-10
-2.79117e-10
-2.55311e-10
-2.36513e-10
-2.22466e-10
-2.1276e-10
-2.06944e-10
-2.04604e-10
-2.05444e-10
-2.09392e-10
-2.16849e-10
-2.29992e-10
-2.45392e-10
-3.27504e-10
-2.90075e-10
-2.37566e-10
-2.37192e-10
-2.37347e-10
-2.3735e-10
-2.3735e-10
-2.3735e-10
-2.3735e-10
-2.3735e-10
-2.3735e-10
-2.3735e-10
-2.3735e-10
-2.3735e-10
-2.3735e-10
-2.3735e-10
-2.3735e-10
-2.3735e-10
-2.3735e-10
-2.3735e-10
-2.3735e-10
-2.3735e-10
-2.3735e-10
-2.3735e-10
-2.3735e-10
-2.3735e-10
-2.3735e-10
-2.3735e-10
-2.37349e-10
-2.3735e-10
-2.37349e-10
-2.37349e-10
-2.37349e-10
-2.37349e-10
-2.37349e-10
-2.37349e-10
-2.37349e-10
-2.37349e-10
-2.37349e-10
-2.37349e-10
-2.37349e-10
-2.37349e-10
-2.37349e-10
-2.37349e-10
-2.37349e-10
-2.37349e-10
-2.37349e-10
-2.37349e-10
-2.37349e-10
-2.37349e-10
-2.37348e-10
-2.37348e-10
-2.37347e-10
-2.37346e-10
-2.37345e-10
-2.37343e-10
-2.37341e-10
-2.3734e-10
-2.37338e-10
-2.37337e-10
-2.37336e-10
-2.37334e-10
-2.37333e-10
-2.37332e-10
-2.37332e-10
-2.37331e-10
-2.37332e-10
-2.37333e-10
-2.37334e-10
-2.37333e-10
-2.37333e-10
-2.37334e-10
-2.37336e-10
-2.37338e-10
-2.37341e-10
-2.37345e-10
-2.37351e-10
-2.37357e-10
-2.37364e-10
-2.37372e-10
-2.37384e-10
-2.3753e-10
-2.40454e-10
-3.71874e-10
)
;

boundaryField
{
    inandouthalf11
    {
        type            cyclic;
        value           nonuniform List<scalar> 
100
(
-1.00168e-40
-2.0524e-15
-4.26705e-15
-6.24464e-15
-8.21633e-15
-1.01934e-14
-1.20997e-14
-1.38934e-14
-1.55596e-14
-1.70893e-14
-1.84763e-14
-1.9717e-14
-2.08116e-14
-2.1764e-14
-2.25818e-14
-2.32754e-14
-2.38571e-14
-2.43408e-14
-2.4741e-14
-2.50724e-14
-2.53497e-14
-2.55869e-14
-2.57972e-14
-2.59928e-14
-2.61848e-14
-2.63828e-14
-2.65956e-14
-2.68305e-14
-2.70939e-14
-2.7391e-14
-2.77262e-14
-2.81028e-14
-2.85237e-14
-2.89908e-14
-2.95055e-14
-3.00687e-14
-3.06807e-14
-3.13417e-14
-3.20512e-14
-3.28087e-14
-3.36132e-14
-3.44638e-14
-3.5359e-14
-3.62975e-14
-3.72777e-14
-3.82982e-14
-3.93571e-14
-4.04524e-14
-4.15824e-14
-4.27455e-14
-4.39398e-14
-4.51633e-14
-4.64142e-14
-4.76908e-14
-4.89913e-14
-5.03139e-14
-5.16572e-14
-5.30192e-14
-5.43985e-14
-5.57932e-14
-5.72022e-14
-5.86241e-14
-6.00577e-14
-6.15018e-14
-6.2955e-14
-6.4416e-14
-6.58839e-14
-6.73576e-14
-6.88358e-14
-7.03174e-14
-7.18018e-14
-7.32883e-14
-7.4776e-14
-7.62639e-14
-7.77516e-14
-7.92386e-14
-8.07238e-14
-8.22064e-14
-8.36856e-14
-8.51609e-14
-8.66316e-14
-8.8097e-14
-8.9557e-14
-9.10111e-14
-9.24588e-14
-9.38999e-14
-9.53336e-14
-9.67594e-14
-9.81766e-14
-9.95844e-14
-1.00982e-13
-1.0237e-13
-1.03746e-13
-1.05111e-13
-1.06464e-13
-1.07805e-13
-1.09134e-13
-1.10449e-13
-1.11751e-13
-1.1304e-13
)
;
    }
    inandouthalf12
    {
        type            cyclic;
        value           nonuniform List<scalar> 
100
(
1.00168e-40
2.0524e-15
4.26705e-15
6.24464e-15
8.21633e-15
1.01934e-14
1.20997e-14
1.38934e-14
1.55596e-14
1.70893e-14
1.84763e-14
1.9717e-14
2.08116e-14
2.1764e-14
2.25818e-14
2.32754e-14
2.38571e-14
2.43408e-14
2.4741e-14
2.50724e-14
2.53497e-14
2.55869e-14
2.57972e-14
2.59928e-14
2.61848e-14
2.63828e-14
2.65956e-14
2.68305e-14
2.70939e-14
2.7391e-14
2.77262e-14
2.81028e-14
2.85237e-14
2.89908e-14
2.95055e-14
3.00687e-14
3.06807e-14
3.13417e-14
3.20512e-14
3.28087e-14
3.36132e-14
3.44638e-14
3.5359e-14
3.62975e-14
3.72777e-14
3.82982e-14
3.93571e-14
4.04524e-14
4.15824e-14
4.27455e-14
4.39398e-14
4.51633e-14
4.64142e-14
4.76908e-14
4.89913e-14
5.03139e-14
5.16572e-14
5.30192e-14
5.43985e-14
5.57932e-14
5.72022e-14
5.86241e-14
6.00577e-14
6.15018e-14
6.2955e-14
6.4416e-14
6.58839e-14
6.73576e-14
6.88358e-14
7.03174e-14
7.18018e-14
7.32883e-14
7.4776e-14
7.62639e-14
7.77516e-14
7.92386e-14
8.07238e-14
8.22064e-14
8.36856e-14
8.51609e-14
8.66316e-14
8.8097e-14
8.9557e-14
9.10111e-14
9.24588e-14
9.38999e-14
9.53336e-14
9.67594e-14
9.81766e-14
9.95844e-14
1.00982e-13
1.0237e-13
1.03746e-13
1.05111e-13
1.06464e-13
1.07805e-13
1.09134e-13
1.10449e-13
1.11751e-13
1.1304e-13
)
;
    }
    inandouthalf21
    {
        type            cyclic;
        value           nonuniform List<scalar> 
100
(
-1.14316e-13
-1.15579e-13
-1.16831e-13
-1.18072e-13
-1.19305e-13
-1.20531e-13
-1.21752e-13
-1.22971e-13
-1.2419e-13
-1.25411e-13
-1.26634e-13
-1.27859e-13
-1.29086e-13
-1.30311e-13
-1.3153e-13
-1.32736e-13
-1.33923e-13
-1.35085e-13
-1.36217e-13
-1.37317e-13
-1.38393e-13
-1.39455e-13
-1.40528e-13
-1.41645e-13
-1.42857e-13
-1.44227e-13
-1.45838e-13
-1.4779e-13
-1.50206e-13
-1.53224e-13
-1.56978e-13
-1.61565e-13
-1.66978e-13
-1.73035e-13
-1.79308e-13
-1.85111e-13
-1.89682e-13
-1.92571e-13
-1.93928e-13
-1.94344e-13
-1.9441e-13
-1.94432e-13
-1.94491e-13
-1.9553e-13
-1.96778e-13
-1.98212e-13
-2.00933e-13
-2.11446e-13
2.11265e-07
2.63611e-07
1.986e-07
1.60641e-07
1.4e-07
1.30549e-07
1.29295e-07
1.34788e-07
1.46329e-07
1.63519e-07
1.85863e-07
2.12441e-07
2.41751e-07
2.71771e-07
3.00378e-07
3.26056e-07
3.484e-07
3.67812e-07
3.84858e-07
3.99994e-07
4.13555e-07
4.25798e-07
4.36926e-07
4.47103e-07
4.56461e-07
4.65113e-07
4.73149e-07
4.80646e-07
4.87668e-07
4.9427e-07
5.00498e-07
5.06393e-07
5.11986e-07
5.1731e-07
5.22388e-07
5.27242e-07
5.31893e-07
5.36357e-07
5.40649e-07
5.44781e-07
5.48765e-07
5.52611e-07
5.56326e-07
5.59919e-07
5.63396e-07
5.66761e-07
5.7002e-07
5.73177e-07
5.76233e-07
5.79193e-07
5.82057e-07
5.84828e-07
)
;
    }
    inandouthalf22
    {
        type            cyclic;
        value           nonuniform List<scalar> 
100
(
1.14316e-13
1.15579e-13
1.16831e-13
1.18072e-13
1.19305e-13
1.20531e-13
1.21752e-13
1.22971e-13
1.2419e-13
1.25411e-13
1.26634e-13
1.27859e-13
1.29086e-13
1.30311e-13
1.3153e-13
1.32736e-13
1.33923e-13
1.35085e-13
1.36217e-13
1.37317e-13
1.38393e-13
1.39455e-13
1.40528e-13
1.41645e-13
1.42857e-13
1.44227e-13
1.45838e-13
1.4779e-13
1.50206e-13
1.53224e-13
1.56978e-13
1.61565e-13
1.66978e-13
1.73035e-13
1.79308e-13
1.85111e-13
1.89682e-13
1.92571e-13
1.93928e-13
1.94344e-13
1.9441e-13
1.94432e-13
1.94491e-13
1.9553e-13
1.96778e-13
1.98212e-13
2.00933e-13
2.11446e-13
-2.11265e-07
-2.63611e-07
-1.986e-07
-1.60641e-07
-1.4e-07
-1.30549e-07
-1.29295e-07
-1.34788e-07
-1.46329e-07
-1.63519e-07
-1.85863e-07
-2.12441e-07
-2.41751e-07
-2.71771e-07
-3.00378e-07
-3.26056e-07
-3.484e-07
-3.67812e-07
-3.84858e-07
-3.99994e-07
-4.13555e-07
-4.25798e-07
-4.36926e-07
-4.47103e-07
-4.56461e-07
-4.65113e-07
-4.73149e-07
-4.80646e-07
-4.87668e-07
-4.9427e-07
-5.00498e-07
-5.06393e-07
-5.11986e-07
-5.1731e-07
-5.22388e-07
-5.27242e-07
-5.31893e-07
-5.36357e-07
-5.40649e-07
-5.44781e-07
-5.48765e-07
-5.52611e-07
-5.56326e-07
-5.59919e-07
-5.63396e-07
-5.66761e-07
-5.7002e-07
-5.73177e-07
-5.76233e-07
-5.79193e-07
-5.82057e-07
-5.84828e-07
)
;
    }
    inandouthalf31
    {
        type            cyclic;
        value           nonuniform List<scalar> 
110
(
5.87508e-07
6.02099e-07
6.16999e-07
6.32213e-07
6.47746e-07
6.63603e-07
6.79788e-07
6.96306e-07
7.13159e-07
7.3035e-07
7.47884e-07
7.65762e-07
7.83987e-07
8.02562e-07
8.21488e-07
8.40768e-07
8.60404e-07
8.80398e-07
9.00752e-07
9.21469e-07
9.4255e-07
9.63998e-07
9.85814e-07
1.008e-06
1.03056e-06
1.05348e-06
1.07679e-06
1.10046e-06
1.12452e-06
1.14895e-06
1.17377e-06
1.19898e-06
1.22455e-06
1.25046e-06
1.2766e-06
1.30295e-06
1.32979e-06
1.42511e-06
1.45686e-06
1.48897e-06
1.52143e-06
1.55421e-06
1.5872e-06
1.62042e-06
1.65381e-06
1.68666e-06
1.72091e-06
1.7533e-06
1.7883e-06
1.8184e-06
1.85238e-06
1.88096e-06
1.91403e-06
1.94255e-06
1.97579e-06
2.00659e-06
2.03854e-06
2.07121e-06
2.10356e-06
2.13941e-06
2.17452e-06
2.21174e-06
2.25039e-06
2.29056e-06
2.33225e-06
2.37546e-06
2.4202e-06
2.46646e-06
2.51425e-06
2.56357e-06
2.61444e-06
2.66688e-06
2.72094e-06
2.7767e-06
2.83433e-06
2.89408e-06
2.95846e-06
3.02123e-06
3.08272e-06
3.14529e-06
3.20913e-06
3.27427e-06
3.34073e-06
3.40854e-06
3.47772e-06
3.54831e-06
3.62033e-06
3.69382e-06
3.76879e-06
3.84529e-06
3.92334e-06
4.00297e-06
4.08422e-06
4.16712e-06
4.2517e-06
4.338e-06
4.42605e-06
4.51588e-06
4.60754e-06
4.70106e-06
4.79648e-06
4.89384e-06
4.99317e-06
5.09452e-06
5.19792e-06
5.30343e-06
5.41107e-06
5.5209e-06
5.63296e-06
5.7473e-06
)
;
    }
    inandouthalf32
    {
        type            cyclic;
        value           nonuniform List<scalar> 
110
(
-5.87508e-07
-6.02099e-07
-6.16999e-07
-6.32213e-07
-6.47746e-07
-6.63603e-07
-6.79788e-07
-6.96306e-07
-7.13159e-07
-7.3035e-07
-7.47884e-07
-7.65762e-07
-7.83987e-07
-8.02562e-07
-8.21488e-07
-8.40768e-07
-8.60404e-07
-8.80398e-07
-9.00752e-07
-9.21469e-07
-9.4255e-07
-9.63998e-07
-9.85814e-07
-1.008e-06
-1.03056e-06
-1.05348e-06
-1.07679e-06
-1.10046e-06
-1.12452e-06
-1.14895e-06
-1.17377e-06
-1.19898e-06
-1.22455e-06
-1.25046e-06
-1.2766e-06
-1.30295e-06
-1.32979e-06
-1.42511e-06
-1.45686e-06
-1.48897e-06
-1.52143e-06
-1.55421e-06
-1.5872e-06
-1.62042e-06
-1.65381e-06
-1.68666e-06
-1.72091e-06
-1.7533e-06
-1.7883e-06
-1.8184e-06
-1.85238e-06
-1.88096e-06
-1.91403e-06
-1.94255e-06
-1.97579e-06
-2.00659e-06
-2.03854e-06
-2.07121e-06
-2.10356e-06
-2.13941e-06
-2.17452e-06
-2.21174e-06
-2.25039e-06
-2.29056e-06
-2.33225e-06
-2.37546e-06
-2.4202e-06
-2.46646e-06
-2.51425e-06
-2.56357e-06
-2.61444e-06
-2.66688e-06
-2.72094e-06
-2.7767e-06
-2.83433e-06
-2.89408e-06
-2.95846e-06
-3.02123e-06
-3.08272e-06
-3.14529e-06
-3.20913e-06
-3.27427e-06
-3.34073e-06
-3.40854e-06
-3.47772e-06
-3.54831e-06
-3.62033e-06
-3.69382e-06
-3.76879e-06
-3.84529e-06
-3.92334e-06
-4.00297e-06
-4.08422e-06
-4.16712e-06
-4.2517e-06
-4.338e-06
-4.42605e-06
-4.51588e-06
-4.60754e-06
-4.70106e-06
-4.79648e-06
-4.89384e-06
-4.99317e-06
-5.09452e-06
-5.19792e-06
-5.30343e-06
-5.41107e-06
-5.5209e-06
-5.63296e-06
-5.7473e-06
)
;
    }
    inandouthalf41
    {
        type            cyclic;
        value           nonuniform List<scalar> 
50
(
5.14442e-06
5.14442e-06
5.14442e-06
5.14442e-06
5.14442e-06
5.14442e-06
5.14442e-06
5.14442e-06
5.14442e-06
5.14442e-06
5.14442e-06
5.14442e-06
5.14442e-06
5.14442e-06
5.14442e-06
5.14442e-06
5.14442e-06
5.14442e-06
5.14442e-06
5.14442e-06
5.14442e-06
5.14442e-06
5.14442e-06
5.14442e-06
5.14442e-06
5.14442e-06
5.14442e-06
5.14442e-06
5.14442e-06
5.14442e-06
5.14442e-06
5.14442e-06
5.14442e-06
5.14442e-06
5.14442e-06
5.14442e-06
5.14442e-06
5.14442e-06
5.14442e-06
5.14442e-06
5.14442e-06
5.14442e-06
5.14442e-06
5.14442e-06
5.14442e-06
5.14442e-06
5.14442e-06
5.14443e-06
5.14464e-06
5.14952e-06
)
;
    }
    inandouthalf42
    {
        type            cyclic;
        value           nonuniform List<scalar> 
50
(
-5.14442e-06
-5.14442e-06
-5.14442e-06
-5.14442e-06
-5.14442e-06
-5.14442e-06
-5.14442e-06
-5.14442e-06
-5.14442e-06
-5.14442e-06
-5.14442e-06
-5.14442e-06
-5.14442e-06
-5.14442e-06
-5.14442e-06
-5.14442e-06
-5.14442e-06
-5.14442e-06
-5.14442e-06
-5.14442e-06
-5.14442e-06
-5.14442e-06
-5.14442e-06
-5.14442e-06
-5.14442e-06
-5.14442e-06
-5.14442e-06
-5.14442e-06
-5.14442e-06
-5.14442e-06
-5.14442e-06
-5.14442e-06
-5.14442e-06
-5.14442e-06
-5.14442e-06
-5.14442e-06
-5.14442e-06
-5.14442e-06
-5.14442e-06
-5.14442e-06
-5.14442e-06
-5.14442e-06
-5.14442e-06
-5.14442e-06
-5.14442e-06
-5.14442e-06
-5.14442e-06
-5.14443e-06
-5.14464e-06
-5.14952e-06
)
;
    }
    top
    {
        type            symmetryPlane;
        value           uniform 0;
    }
    walls
    {
        type            calculated;
        value           uniform 0;
    }
    frontAndBackPlanes
    {
        type            empty;
        value           nonuniform 0();
    }
}


// ************************************************************************* //
