/*--------------------------------*- C++ -*----------------------------------*\
| =========                 |                                                 |
| \\      /  F ield         | OpenFOAM: The Open Source CFD Toolbox           |
|  \\    /   O peration     | Version:  2.4.x                                 |
|   \\  /    A nd           | Web:      www.OpenFOAM.org                      |
|    \\/     M anipulation  |                                                 |
\*---------------------------------------------------------------------------*/
FoamFile
{
    version     2.0;
    format      ascii;
    class       surfaceScalarField;
    location    "11.35";
    object      ddt0(phib);
}
// * * * * * * * * * * * * * * * * * * * * * * * * * * * * * * * * * * * * * //

dimensions      [0 3 -2 0 0 0 0];

internalField   nonuniform List<scalar> 
359
(
-2.30732e-14
-5.78116e-14
-9.00562e-14
-1.20797e-13
-1.51706e-13
-1.82097e-13
-2.11143e-13
-2.38471e-13
-2.63926e-13
-2.87378e-13
-3.08774e-13
-3.28027e-13
-3.45205e-13
-3.60426e-13
-3.73795e-13
-3.85451e-13
-3.95663e-13
-4.0454e-13
-4.12372e-13
-4.19332e-13
-4.25644e-13
-4.31488e-13
-4.37086e-13
-4.42572e-13
-4.48116e-13
-4.53839e-13
-4.59853e-13
-4.66264e-13
-4.73122e-13
-4.80525e-13
-4.8852e-13
-4.97167e-13
-5.06466e-13
-5.16452e-13
-5.27157e-13
-5.38607e-13
-5.50773e-13
-5.63635e-13
-5.77251e-13
-5.91537e-13
-6.06527e-13
-6.22166e-13
-6.38493e-13
-6.55453e-13
-6.72988e-13
-6.91115e-13
-7.09799e-13
-7.29044e-13
-7.48789e-13
-7.69062e-13
-7.89751e-13
-8.10878e-13
-8.32428e-13
-8.54334e-13
-8.7663e-13
-8.9926e-13
-9.2216e-13
-9.4537e-13
-9.68873e-13
-9.9258e-13
-1.01654e-12
-1.04068e-12
-1.06506e-12
-1.08956e-12
-1.11423e-12
-1.13905e-12
-1.164e-12
-1.189e-12
-1.2141e-12
-1.23925e-12
-1.2645e-12
-1.2898e-12
-1.31514e-12
-1.3405e-12
-1.36588e-12
-1.39126e-12
-1.41661e-12
-1.44196e-12
-1.46726e-12
-1.4925e-12
-1.51769e-12
-1.5428e-12
-1.56789e-12
-1.59288e-12
-1.61777e-12
-1.64253e-12
-1.66723e-12
-1.69182e-12
-1.71628e-12
-1.74057e-12
-1.76474e-12
-1.78874e-12
-1.81257e-12
-1.83621e-12
-1.85967e-12
-1.88293e-12
-1.90599e-12
-1.92884e-12
-1.95148e-12
-1.97392e-12
-1.99614e-12
-2.01813e-12
-2.03996e-12
-2.06159e-12
-2.08308e-12
-2.10446e-12
-2.12575e-12
-2.14695e-12
-2.16812e-12
-2.18928e-12
-2.21043e-12
-2.23156e-12
-2.25266e-12
-2.27366e-12
-2.29454e-12
-2.3152e-12
-2.33556e-12
-2.3555e-12
-2.37506e-12
-2.39418e-12
-2.41301e-12
-2.43169e-12
-2.45061e-12
-2.47018e-12
-2.49106e-12
-2.51405e-12
-2.54012e-12
-2.5705e-12
-2.60655e-12
-2.64951e-12
-2.70056e-12
-2.75985e-12
-2.82615e-12
-2.89603e-12
-2.9636e-12
-3.02122e-12
-3.06232e-12
-3.08491e-12
-3.09269e-12
-3.09201e-12
-3.08796e-12
-3.06668e-12
-3.05854e-12
-3.06525e-12
-3.06297e-12
-3.05958e-12
-3.1996e-12
-6.80599e-10
5.77684e-09
5.73874e-09
4.56357e-09
3.40248e-09
2.35572e-09
1.46328e-09
7.42107e-10
1.92498e-10
-1.98048e-10
-4.50884e-10
-5.9191e-10
-6.49382e-10
-6.47021e-10
-5.94493e-10
-4.94535e-10
-3.72426e-10
-2.66787e-10
-1.99538e-10
-1.5606e-10
-1.28209e-10
-1.09534e-10
-9.63548e-11
-8.65591e-11
-7.8919e-11
-7.27022e-11
-6.74601e-11
-6.29104e-11
-5.88709e-11
-5.5221e-11
-5.18791e-11
-4.87885e-11
-4.59092e-11
-4.32118e-11
-4.06747e-11
-3.82813e-11
-3.60186e-11
-3.38762e-11
-3.18456e-11
-2.99197e-11
-2.80921e-11
-2.63575e-11
-2.47112e-11
-2.31488e-11
-2.16664e-11
-2.02605e-11
-1.89278e-11
-1.76654e-11
-1.64705e-11
-1.53406e-11
-1.42734e-11
-1.32666e-11
-1.23181e-11
-1.14258e-11
-1.05713e-11
-9.75529e-12
-8.97833e-12
-8.24079e-12
-7.54262e-12
-6.88357e-12
-6.26294e-12
-5.67984e-12
-5.13306e-12
-4.62133e-12
-4.14322e-12
-3.6976e-12
-3.28338e-12
-2.89978e-12
-2.54627e-12
-2.22253e-12
-1.9282e-12
-1.66281e-12
-1.42557e-12
-1.21539e-12
-1.03062e-12
-8.69465e-13
-7.29699e-13
-6.09155e-13
-5.0556e-13
-4.16939e-13
-3.41257e-13
-2.77015e-13
-2.23149e-13
-1.78034e-13
-1.4351e-13
-1.20157e-13
-1.07234e-13
-8.38607e-14
-4.66013e-14
-2.52153e-14
-8.11496e-15
4.06803e-15
1.22879e-14
1.72434e-14
1.98045e-14
2.05265e-14
2.01717e-14
1.9134e-14
1.74333e-14
1.61286e-14
-2.88584e-14
1.37236e-14
1.17219e-14
1.08265e-14
1.00674e-14
9.52412e-15
8.86315e-15
8.35679e-15
7.885e-15
7.39686e-15
6.94344e-15
6.48658e-15
6.04516e-15
5.60778e-15
5.19808e-15
4.77746e-15
4.39622e-15
4.02001e-15
3.67144e-15
3.32633e-15
2.99541e-15
2.68919e-15
2.40617e-15
2.12848e-15
1.85667e-15
1.61638e-15
1.39317e-15
1.17223e-15
9.80333e-16
8.0452e-16
6.52148e-16
5.05504e-16
3.84053e-16
2.52684e-16
1.28277e-16
1.16696e-17
-6.6208e-17
-1.49899e-16
-1.8904e-16
-2.24397e-16
-2.11219e-16
-2.42144e-16
-2.46547e-16
-2.32855e-16
-1.7597e-16
-1.37175e-16
-6.61097e-17
8.47926e-18
9.81836e-17
2.03858e-16
2.99463e-16
3.93896e-16
5.13012e-16
6.16285e-16
7.35093e-16
8.50881e-16
9.72805e-16
1.10405e-15
1.2353e-15
1.36719e-15
1.47858e-15
1.62843e-15
1.74067e-15
1.8504e-15
1.95214e-15
2.13433e-15
2.29653e-15
2.46946e-15
2.56745e-15
2.73642e-15
2.80053e-15
2.88652e-15
2.92778e-15
3.15754e-15
3.28203e-15
3.42873e-15
3.46758e-15
3.6354e-15
3.84026e-15
4.39612e-15
7.29064e-15
9.53814e-15
1.38235e-14
1.84285e-14
2.23311e-14
2.71153e-14
3.04309e-14
3.38464e-14
3.57893e-14
4.07285e-14
4.34795e-14
4.62417e-14
4.57572e-14
4.79343e-14
4.61092e-14
4.45925e-14
4.03813e-14
4.3087e-14
4.18884e-14
4.08e-14
3.313e-14
2.9692e-14
1.92138e-14
8.16614e-15
-7.32591e-15
-2.41375e-14
-4.31172e-14
-6.30803e-14
-7.92921e-14
-1.14222e-13
-1.22112e-13
-1.19471e-13
)
;

boundaryField
{
    inandouthalf11
    {
        type            cyclic;
        value           nonuniform List<scalar> 
100
(
-2.03164e-10
-2.02035e-10
-2.01885e-10
-2.02039e-10
-2.02113e-10
-2.02138e-10
-2.02169e-10
-2.02209e-10
-2.02249e-10
-2.02289e-10
-2.0233e-10
-2.0237e-10
-2.02411e-10
-2.02451e-10
-2.02492e-10
-2.02533e-10
-2.02575e-10
-2.02617e-10
-2.02659e-10
-2.02701e-10
-2.02744e-10
-2.02787e-10
-2.02831e-10
-2.02875e-10
-2.0292e-10
-2.02965e-10
-2.0301e-10
-2.03056e-10
-2.03103e-10
-2.0315e-10
-2.03198e-10
-2.03246e-10
-2.03294e-10
-2.03344e-10
-2.03394e-10
-2.03445e-10
-2.03496e-10
-2.03548e-10
-2.036e-10
-2.03653e-10
-2.03707e-10
-2.03761e-10
-2.03816e-10
-2.03872e-10
-2.03929e-10
-2.03986e-10
-2.04044e-10
-2.04102e-10
-2.04161e-10
-2.04222e-10
-2.04282e-10
-2.04344e-10
-2.04406e-10
-2.04469e-10
-2.04533e-10
-2.04598e-10
-2.04663e-10
-2.0473e-10
-2.04797e-10
-2.04865e-10
-2.04934e-10
-2.05004e-10
-2.05075e-10
-2.05147e-10
-2.05219e-10
-2.05293e-10
-2.05368e-10
-2.05444e-10
-2.05521e-10
-2.05598e-10
-2.05677e-10
-2.05758e-10
-2.05839e-10
-2.05921e-10
-2.06005e-10
-2.0609e-10
-2.06176e-10
-2.06264e-10
-2.06353e-10
-2.06443e-10
-2.06535e-10
-2.06628e-10
-2.06723e-10
-2.06819e-10
-2.06917e-10
-2.07017e-10
-2.07118e-10
-2.07221e-10
-2.07326e-10
-2.07433e-10
-2.07542e-10
-2.07652e-10
-2.07765e-10
-2.0788e-10
-2.07997e-10
-2.08117e-10
-2.08238e-10
-2.08363e-10
-2.0849e-10
-2.08619e-10
)
;
    }
    inandouthalf12
    {
        type            cyclic;
        value           nonuniform List<scalar> 
100
(
2.03164e-10
2.02035e-10
2.01885e-10
2.02039e-10
2.02113e-10
2.02138e-10
2.02169e-10
2.02209e-10
2.02249e-10
2.02289e-10
2.0233e-10
2.0237e-10
2.02411e-10
2.02451e-10
2.02492e-10
2.02533e-10
2.02575e-10
2.02617e-10
2.02659e-10
2.02701e-10
2.02744e-10
2.02787e-10
2.02831e-10
2.02875e-10
2.0292e-10
2.02965e-10
2.0301e-10
2.03056e-10
2.03103e-10
2.0315e-10
2.03198e-10
2.03246e-10
2.03294e-10
2.03344e-10
2.03394e-10
2.03445e-10
2.03496e-10
2.03548e-10
2.036e-10
2.03653e-10
2.03707e-10
2.03761e-10
2.03816e-10
2.03872e-10
2.03929e-10
2.03986e-10
2.04044e-10
2.04102e-10
2.04161e-10
2.04222e-10
2.04282e-10
2.04344e-10
2.04406e-10
2.04469e-10
2.04533e-10
2.04598e-10
2.04663e-10
2.0473e-10
2.04797e-10
2.04865e-10
2.04934e-10
2.05004e-10
2.05075e-10
2.05147e-10
2.05219e-10
2.05293e-10
2.05368e-10
2.05444e-10
2.05521e-10
2.05598e-10
2.05677e-10
2.05758e-10
2.05839e-10
2.05921e-10
2.06005e-10
2.0609e-10
2.06176e-10
2.06264e-10
2.06353e-10
2.06443e-10
2.06535e-10
2.06628e-10
2.06723e-10
2.06819e-10
2.06917e-10
2.07017e-10
2.07118e-10
2.07221e-10
2.07326e-10
2.07433e-10
2.07542e-10
2.07652e-10
2.07765e-10
2.0788e-10
2.07997e-10
2.08117e-10
2.08238e-10
2.08363e-10
2.0849e-10
2.08619e-10
)
;
    }
    inandouthalf21
    {
        type            cyclic;
        value           nonuniform List<scalar> 
100
(
-2.08751e-10
-2.08886e-10
-2.09024e-10
-2.09166e-10
-2.0931e-10
-2.09458e-10
-2.09609e-10
-2.09764e-10
-2.09923e-10
-2.10085e-10
-2.10252e-10
-2.10423e-10
-2.10599e-10
-2.10779e-10
-2.10964e-10
-2.11154e-10
-2.1135e-10
-2.11551e-10
-2.11759e-10
-2.11972e-10
-2.12192e-10
-2.1242e-10
-2.12654e-10
-2.12897e-10
-2.13148e-10
-2.13409e-10
-2.13679e-10
-2.13959e-10
-2.14251e-10
-2.14556e-10
-2.14874e-10
-2.15206e-10
-2.15554e-10
-2.15921e-10
-2.16313e-10
-2.16728e-10
-2.17167e-10
-2.17634e-10
-2.18151e-10
-2.18741e-10
-2.19379e-10
-2.2013e-10
-2.25385e-10
-2.24599e-10
-2.25564e-10
-2.27162e-10
-2.2713e-10
1.16923e-09
2.41388e-07
2.5124e-07
1.83047e-07
1.47505e-07
1.27626e-07
1.175e-07
1.14132e-07
1.15983e-07
1.22393e-07
1.33306e-07
1.4905e-07
1.70095e-07
1.96724e-07
2.28621e-07
2.64525e-07
3.02222e-07
3.39078e-07
3.72851e-07
4.02242e-07
4.26917e-07
4.47208e-07
4.6376e-07
4.77287e-07
4.88436e-07
4.97747e-07
5.05643e-07
5.12451e-07
5.18417e-07
5.23729e-07
5.28529e-07
5.32921e-07
5.36989e-07
5.40794e-07
5.44384e-07
5.47797e-07
5.5106e-07
5.54196e-07
5.57224e-07
5.60157e-07
5.63006e-07
5.65781e-07
5.68488e-07
5.71134e-07
5.73723e-07
5.76259e-07
5.78745e-07
5.81183e-07
5.83577e-07
5.85927e-07
5.88236e-07
5.90504e-07
5.92732e-07
)
;
    }
    inandouthalf22
    {
        type            cyclic;
        value           nonuniform List<scalar> 
100
(
2.08751e-10
2.08886e-10
2.09024e-10
2.09166e-10
2.0931e-10
2.09458e-10
2.09609e-10
2.09764e-10
2.09923e-10
2.10085e-10
2.10252e-10
2.10423e-10
2.10599e-10
2.10779e-10
2.10964e-10
2.11154e-10
2.1135e-10
2.11551e-10
2.11759e-10
2.11972e-10
2.12192e-10
2.1242e-10
2.12654e-10
2.12897e-10
2.13148e-10
2.13409e-10
2.13679e-10
2.13959e-10
2.14251e-10
2.14556e-10
2.14874e-10
2.15206e-10
2.15554e-10
2.15921e-10
2.16313e-10
2.16728e-10
2.17167e-10
2.17634e-10
2.18151e-10
2.18741e-10
2.19379e-10
2.2013e-10
2.25385e-10
2.24599e-10
2.25564e-10
2.27162e-10
2.2713e-10
-1.16923e-09
-2.41388e-07
-2.5124e-07
-1.83047e-07
-1.47505e-07
-1.27626e-07
-1.175e-07
-1.14132e-07
-1.15983e-07
-1.22393e-07
-1.33306e-07
-1.4905e-07
-1.70095e-07
-1.96724e-07
-2.28621e-07
-2.64525e-07
-3.02222e-07
-3.39078e-07
-3.72851e-07
-4.02242e-07
-4.26917e-07
-4.47208e-07
-4.6376e-07
-4.77287e-07
-4.88436e-07
-4.97747e-07
-5.05643e-07
-5.12451e-07
-5.18417e-07
-5.23729e-07
-5.28529e-07
-5.32921e-07
-5.36989e-07
-5.40794e-07
-5.44384e-07
-5.47797e-07
-5.5106e-07
-5.54196e-07
-5.57224e-07
-5.60157e-07
-5.63006e-07
-5.65781e-07
-5.68488e-07
-5.71134e-07
-5.73723e-07
-5.76259e-07
-5.78745e-07
-5.81183e-07
-5.83577e-07
-5.85927e-07
-5.88236e-07
-5.90504e-07
-5.92732e-07
)
;
    }
    inandouthalf31
    {
        type            cyclic;
        value           nonuniform List<scalar> 
110
(
5.94925e-07
6.09219e-07
6.23856e-07
6.38842e-07
6.54186e-07
6.69897e-07
6.85982e-07
7.0245e-07
7.1931e-07
7.3657e-07
7.54238e-07
7.72324e-07
7.90837e-07
8.09783e-07
8.29173e-07
8.49016e-07
8.69318e-07
8.90089e-07
9.11336e-07
9.33069e-07
9.55293e-07
9.78017e-07
1.00125e-06
1.02499e-06
1.04925e-06
1.07404e-06
1.09936e-06
1.1252e-06
1.15158e-06
1.1785e-06
1.20595e-06
1.23393e-06
1.26244e-06
1.29148e-06
1.32102e-06
1.35107e-06
1.3816e-06
1.41259e-06
1.44403e-06
1.47587e-06
1.50809e-06
1.54065e-06
1.57348e-06
1.60654e-06
1.63977e-06
1.67309e-06
1.70642e-06
1.73967e-06
1.77278e-06
1.80564e-06
1.83821e-06
1.87044e-06
1.90233e-06
1.93393e-06
1.96535e-06
1.99678e-06
2.02846e-06
2.06068e-06
2.0937e-06
2.12779e-06
2.16314e-06
2.19989e-06
2.23811e-06
2.27784e-06
2.31911e-06
2.3619e-06
2.40622e-06
2.45207e-06
2.49945e-06
2.54837e-06
2.59883e-06
2.65086e-06
2.7045e-06
2.75983e-06
2.817e-06
2.87608e-06
2.93997e-06
3.003e-06
3.06417e-06
3.12636e-06
3.18982e-06
3.25457e-06
3.32062e-06
3.38802e-06
3.45679e-06
3.52696e-06
3.59854e-06
3.67158e-06
3.74611e-06
3.82214e-06
3.89972e-06
3.97888e-06
4.05964e-06
4.14204e-06
4.22611e-06
4.31189e-06
4.39941e-06
4.4887e-06
4.57981e-06
4.67277e-06
4.76762e-06
4.86439e-06
4.96312e-06
5.06386e-06
5.16664e-06
5.27151e-06
5.37851e-06
5.48768e-06
5.59906e-06
5.71271e-06
)
;
    }
    inandouthalf32
    {
        type            cyclic;
        value           nonuniform List<scalar> 
110
(
-5.94925e-07
-6.09219e-07
-6.23856e-07
-6.38842e-07
-6.54186e-07
-6.69897e-07
-6.85982e-07
-7.0245e-07
-7.1931e-07
-7.3657e-07
-7.54238e-07
-7.72324e-07
-7.90837e-07
-8.09783e-07
-8.29173e-07
-8.49016e-07
-8.69318e-07
-8.90089e-07
-9.11336e-07
-9.33069e-07
-9.55293e-07
-9.78017e-07
-1.00125e-06
-1.02499e-06
-1.04925e-06
-1.07404e-06
-1.09936e-06
-1.1252e-06
-1.15158e-06
-1.1785e-06
-1.20595e-06
-1.23393e-06
-1.26244e-06
-1.29148e-06
-1.32102e-06
-1.35107e-06
-1.3816e-06
-1.41259e-06
-1.44403e-06
-1.47587e-06
-1.50809e-06
-1.54065e-06
-1.57348e-06
-1.60654e-06
-1.63977e-06
-1.67309e-06
-1.70642e-06
-1.73967e-06
-1.77278e-06
-1.80564e-06
-1.83821e-06
-1.87044e-06
-1.90233e-06
-1.93393e-06
-1.96535e-06
-1.99678e-06
-2.02846e-06
-2.06068e-06
-2.0937e-06
-2.12779e-06
-2.16314e-06
-2.19989e-06
-2.23811e-06
-2.27784e-06
-2.31911e-06
-2.3619e-06
-2.40622e-06
-2.45207e-06
-2.49945e-06
-2.54837e-06
-2.59883e-06
-2.65086e-06
-2.7045e-06
-2.75983e-06
-2.817e-06
-2.87608e-06
-2.93997e-06
-3.003e-06
-3.06417e-06
-3.12636e-06
-3.18982e-06
-3.25457e-06
-3.32062e-06
-3.38802e-06
-3.45679e-06
-3.52696e-06
-3.59854e-06
-3.67158e-06
-3.74611e-06
-3.82214e-06
-3.89972e-06
-3.97888e-06
-4.05964e-06
-4.14204e-06
-4.22611e-06
-4.31189e-06
-4.39941e-06
-4.4887e-06
-4.57981e-06
-4.67277e-06
-4.76762e-06
-4.86439e-06
-4.96312e-06
-5.06386e-06
-5.16664e-06
-5.27151e-06
-5.37851e-06
-5.48768e-06
-5.59906e-06
-5.71271e-06
)
;
    }
    inandouthalf41
    {
        type            cyclic;
        value           nonuniform List<scalar> 
50
(
5.11346e-06
5.11346e-06
5.11346e-06
5.11346e-06
5.11346e-06
5.11346e-06
5.11346e-06
5.11346e-06
5.11346e-06
5.11346e-06
5.11346e-06
5.11346e-06
5.11346e-06
5.11346e-06
5.11346e-06
5.11346e-06
5.11346e-06
5.11346e-06
5.11346e-06
5.11346e-06
5.11346e-06
5.11346e-06
5.11346e-06
5.11346e-06
5.11346e-06
5.11346e-06
5.11346e-06
5.11346e-06
5.11346e-06
5.11346e-06
5.11346e-06
5.11346e-06
5.11346e-06
5.11346e-06
5.11346e-06
5.11346e-06
5.11346e-06
5.11346e-06
5.11346e-06
5.11346e-06
5.11346e-06
5.11346e-06
5.11346e-06
5.11346e-06
5.11346e-06
5.11346e-06
5.11346e-06
5.11346e-06
5.11346e-06
5.11346e-06
)
;
    }
    inandouthalf42
    {
        type            cyclic;
        value           nonuniform List<scalar> 
50
(
-5.11346e-06
-5.11346e-06
-5.11346e-06
-5.11346e-06
-5.11346e-06
-5.11346e-06
-5.11346e-06
-5.11346e-06
-5.11346e-06
-5.11346e-06
-5.11346e-06
-5.11346e-06
-5.11346e-06
-5.11346e-06
-5.11346e-06
-5.11346e-06
-5.11346e-06
-5.11346e-06
-5.11346e-06
-5.11346e-06
-5.11346e-06
-5.11346e-06
-5.11346e-06
-5.11346e-06
-5.11346e-06
-5.11346e-06
-5.11346e-06
-5.11346e-06
-5.11346e-06
-5.11346e-06
-5.11346e-06
-5.11346e-06
-5.11346e-06
-5.11346e-06
-5.11346e-06
-5.11346e-06
-5.11346e-06
-5.11346e-06
-5.11346e-06
-5.11346e-06
-5.11346e-06
-5.11346e-06
-5.11346e-06
-5.11346e-06
-5.11346e-06
-5.11346e-06
-5.11346e-06
-5.11346e-06
-5.11346e-06
-5.11346e-06
)
;
    }
    top
    {
        type            symmetryPlane;
        value           uniform 0;
    }
    walls
    {
        type            calculated;
        value           uniform 0;
    }
    frontAndBackPlanes
    {
        type            empty;
        value           nonuniform 0();
    }
}


// ************************************************************************* //
