/*--------------------------------*- C++ -*----------------------------------*\
| =========                 |                                                 |
| \\      /  F ield         | OpenFOAM: The Open Source CFD Toolbox           |
|  \\    /   O peration     | Version:  2.4.x                                 |
|   \\  /    A nd           | Web:      www.OpenFOAM.org                      |
|    \\/     M anipulation  |                                                 |
\*---------------------------------------------------------------------------*/
FoamFile
{
    version     2.0;
    format      ascii;
    class       volScalarField;
    location    "11.35";
    object      ddt0(((1.5*(alpha+1e-08))*rho),Theta);
}
// * * * * * * * * * * * * * * * * * * * * * * * * * * * * * * * * * * * * * //

dimensions      [1 -1 -3 0 0 0 0];

internalField   nonuniform List<scalar> 
360
(
-3.48556e-23
-1.00904e-22
-7.35652e-23
-6.95087e-23
-7.53337e-23
-7.7025e-23
-7.45852e-23
-7.08369e-23
-6.66006e-23
-6.19362e-23
-5.69115e-23
-5.16591e-23
-4.63706e-23
-4.12446e-23
-3.64475e-23
-3.2099e-23
-2.82682e-23
-2.49879e-23
-2.22671e-23
-2.00888e-23
-1.84171e-23
-1.72082e-23
-1.64098e-23
-1.59663e-23
-1.58247e-23
-1.59347e-23
-1.62525e-23
-1.67403e-23
-1.73631e-23
-1.80907e-23
-1.89023e-23
-1.97771e-23
-2.06997e-23
-2.16598e-23
-2.26446e-23
-2.36434e-23
-2.46533e-23
-2.56727e-23
-2.66917e-23
-2.77036e-23
-2.87149e-23
-2.97144e-23
-3.06975e-23
-3.16734e-23
-3.26352e-23
-3.35789e-23
-3.44959e-23
-3.53808e-23
-3.62547e-23
-3.71128e-23
-3.79321e-23
-3.8721e-23
-3.94862e-23
-4.02183e-23
-4.09197e-23
-4.15924e-23
-4.22295e-23
-4.28318e-23
-4.33895e-23
-4.39095e-23
-4.44091e-23
-4.48789e-23
-4.5317e-23
-4.57197e-23
-4.60794e-23
-4.64031e-23
-4.66981e-23
-4.69564e-23
-4.71622e-23
-4.73326e-23
-4.74961e-23
-4.76287e-23
-4.77119e-23
-4.77731e-23
-4.78198e-23
-4.78331e-23
-4.77969e-23
-4.77191e-23
-4.76145e-23
-4.74779e-23
-4.7308e-23
-4.71165e-23
-4.69085e-23
-4.66803e-23
-4.64292e-23
-4.61526e-23
-4.58456e-23
-4.55021e-23
-4.51223e-23
-4.47107e-23
-4.42704e-23
-4.3806e-23
-4.33231e-23
-4.28239e-23
-4.23083e-23
-4.17756e-23
-4.12257e-23
-4.06602e-23
-4.00832e-23
-3.95018e-23
-3.89253e-23
-3.83644e-23
-3.78306e-23
-3.73351e-23
-3.68872e-23
-3.64948e-23
-3.61626e-23
-3.58917e-23
-3.56776e-23
-3.55094e-23
-3.53691e-23
-3.52309e-23
-3.50627e-23
-3.48278e-23
-3.44913e-23
-3.4025e-23
-3.34175e-23
-3.26829e-23
-3.18687e-23
-3.10598e-23
-3.03791e-23
-2.99839e-23
-3.0064e-23
-3.08455e-23
-3.26087e-23
-3.57221e-23
-4.06926e-23
-4.82116e-23
-5.91396e-23
-7.43008e-23
-9.38991e-23
-1.16456e-22
-1.37497e-22
-1.89225e-22
-1.77775e-16
-6.05161e-17
1.82524e-15
2.32072e-14
2.92025e-13
3.99608e-12
6.08136e-11
1.05012e-09
2.11402e-08
4.89532e-07
1.63395e-05
0.00189038
0.0996796
1.33612
6.01765
4.02026
1.67383
1.0443
0.850026
0.766678
0.702332
0.626867
0.536989
0.43605
0.335114
0.24412
0.16945
0.113118
0.0737268
0.0480013
0.0319767
0.022046
0.0156825
0.0114102
0.00841741
0.00624608
0.00462555
0.00338879
0.00242818
0.00167178
0.00107
0.000587594
0.000198904
-0.000115167
-0.000369062
-0.000573945
-0.000738581
-0.00086973
-0.000973098
-0.00105314
-0.00111351
-0.00115728
-0.00118696
-0.00120467
-0.00121219
-0.00121105
-0.00120253
-0.00118774
-0.00116765
-0.0011431
-0.00111482
-0.00108346
-0.00104958
-0.00101371
-0.000976285
-0.00093772
-0.000898376
-0.000858168
-0.000816974
-0.000775045
-0.000732633
-0.000689981
-0.000647326
-0.000604895
-0.000562912
-0.000521588
-0.000481133
-0.000441747
-0.000403626
-0.000366955
-0.000331904
-0.000298627
-0.000267249
-0.000237861
-0.000210519
-0.000185241
-0.000162009
-0.000140778
-0.00012148
-0.000104034
-8.8347e-05
-7.43265e-05
-6.18779e-05
-5.0905e-05
-4.1313e-05
-3.30099e-05
-2.58855e-05
-1.98208e-05
-1.47269e-05
-1.03038e-05
-6.54317e-06
-3.31677e-06
0
0
0
0
0
0
0
0
0
0
0
0
0
0
0
0
0
0
0
0
0
0
0
0
0
0
0
0
0
0
0
0
0
0
0
0
0
0
0
0
0
0
0
0
0
0
0
0
0
0
0
0
0
0
0
0
0
0
0
0
0
0
0
0
0
0
0
0
0
0
0
0
0
0
0
0
0
0
0
0
0
0
0
0
0
0
0
0
0
0
0
0
0
0
0
0
0
0
0
0
0
0
0
0
0
0
0
0
0
0
0
0
0
0
0
0
0
0
0
0
0
0
0
0
)
;

boundaryField
{
    inandouthalf11
    {
        type            cyclic;
    }
    inandouthalf12
    {
        type            cyclic;
    }
    inandouthalf21
    {
        type            cyclic;
    }
    inandouthalf22
    {
        type            cyclic;
    }
    inandouthalf31
    {
        type            cyclic;
    }
    inandouthalf32
    {
        type            cyclic;
    }
    inandouthalf41
    {
        type            cyclic;
    }
    inandouthalf42
    {
        type            cyclic;
    }
    top
    {
        type            symmetryPlane;
    }
    walls
    {
        type            calculated;
        value           uniform -3.48556e-23;
    }
    frontAndBackPlanes
    {
        type            empty;
    }
}


// ************************************************************************* //
