/*--------------------------------*- C++ -*----------------------------------*\
| =========                 |                                                 |
| \\      /  F ield         | OpenFOAM: The Open Source CFD Toolbox           |
|  \\    /   O peration     | Version:  2.4.x                                 |
|   \\  /    A nd           | Web:      www.OpenFOAM.org                      |
|    \\/     M anipulation  |                                                 |
\*---------------------------------------------------------------------------*/
FoamFile
{
    version     2.0;
    format      ascii;
    class       volScalarField;
    location    "11.35";
    object      ddt0(epsilon);
}
// * * * * * * * * * * * * * * * * * * * * * * * * * * * * * * * * * * * * * //

dimensions      [0 2 -4 0 0 0 0];

internalField   nonuniform List<scalar> 
360
(
0
0
0
0
0
0
0
0
0
0
0
0
0
0
0
0
0
0
0
0
0
0
0
0
0
0
0
0
0
0
0
0
0
0
0
0
0
0
0
0
0
0
0
0
0
0
0
0
0
0
0
0
0
0
0
0
0
0
0
0
0
0
0
0
0
0
0
0
0
0
0
0
0
0
0
0
0
0
0
0
0
0
0
0
0
0
0
0
0
0
0
0
0
0
0
0
0
0
0
0
0
0
0
0
0
0
0
0
0
0
0
0
0
0
0
0
0
0
0
0
0
0
0
0
0
0
0
0
0
0
0
9.47293e-238
7.48344e-133
-1.20897e-49
-7.65408e-20
1.53425e-19
3.93975e-18
5.58204e-17
8.19562e-16
1.32777e-14
2.42327e-13
5.07336e-12
1.23692e-10
3.49106e-09
1.17317e-07
4.77734e-06
0.000236723
0.0130506
0.292832
0.29866
0.0751211
0.056709
0.0752459
0.0997193
0.122135
0.140181
0.153114
0.160525
0.162019
0.157299
0.146477
0.130433
0.110943
0.0903612
0.0709184
0.0541026
0.0404741
0.0298933
0.0218744
0.015854
0.0113291
0.00790032
0.00526952
0.00322074
0.00159962
0.000296082
-0.000768585
-0.00165109
-0.00239264
-0.00302349
-0.00356608
-0.00403724
-0.00444971
-0.00481325
-0.0051354
-0.00542206
-0.00567786
-0.00590652
-0.00611101
-0.00629376
-0.00645677
-0.00660168
-0.00672989
-0.00684259
-0.00694079
-0.0070254
-0.00709718
-0.00715685
-0.00720502
-0.00724229
-0.00726918
-0.00728635
-0.00729395
-0.00729186
-0.00727996
-0.00725812
-0.00722619
-0.00718406
-0.00713159
-0.00706867
-0.00699519
-0.00691103
-0.00681613
-0.00671041
-0.00659381
-0.00646633
-0.00632795
-0.00617871
-0.00601868
-0.00584797
-0.00566671
-0.00547512
-0.00527342
-0.00506194
-0.00484103
-0.00461114
-0.00437278
-0.00412653
-0.00387309
-0.00361321
-0.0033478
-0.00307782
-0.0028044
-0.00252875
-0.00225224
-0.00197638
-0.00170279
-0.00143328
-0.00116979
-0.000914393
-0.000669323
-0.000436916
-0.000219603
-1.98639e-05
0.000159827
0.000317086
0.00044972
0.000555874
0.000634189
0.000684009
0.00070558
0.000700258
0.000670638
0.000620584
0.000555071
0.000479817
0.000400725
0.000323226
0.000251692
0.000189076
0.000136853
9.5237e-05
6.35393e-05
4.05461e-05
2.48228e-05
1.49177e-05
9.47627e-06
7.29306e-06
7.32713e-06
8.6965e-06
1.06613e-05
1.26002e-05
1.39812e-05
1.43146e-05
1.30629e-05
9.81011e-06
2.9037e-06
1.42813e-07
1.99864e-09
2.37676e-11
2.65315e-13
2.78675e-15
2.75581e-17
2.53774e-19
0
0
0
0
0
0
0
0
0
0
0
0
0
0
0
0
0
0
0
0
0
0
0
0
0
0
0
0
0
0
0
0
0
0
0
0
0
0
0
0
0
0
0
0
0
0
0
0
0
0
0
0
0
0
0
0
0
0
0
0
0
0
0
0
0
0
0
0
0
0
0
0
0
0
0
0
)
;

boundaryField
{
    inandouthalf11
    {
        type            cyclic;
    }
    inandouthalf12
    {
        type            cyclic;
    }
    inandouthalf21
    {
        type            cyclic;
    }
    inandouthalf22
    {
        type            cyclic;
    }
    inandouthalf31
    {
        type            cyclic;
    }
    inandouthalf32
    {
        type            cyclic;
    }
    inandouthalf41
    {
        type            cyclic;
    }
    inandouthalf42
    {
        type            cyclic;
    }
    top
    {
        type            symmetryPlane;
    }
    walls
    {
        type            calculated;
        value           uniform 0;
    }
    frontAndBackPlanes
    {
        type            empty;
    }
}


// ************************************************************************* //
