/*--------------------------------*- C++ -*----------------------------------*\
| =========                 |                                                 |
| \\      /  F ield         | OpenFOAM: The Open Source CFD Toolbox           |
|  \\    /   O peration     | Version:  2.4.x                                 |
|   \\  /    A nd           | Web:      www.OpenFOAM.org                      |
|    \\/     M anipulation  |                                                 |
\*---------------------------------------------------------------------------*/
FoamFile
{
    version     2.0;
    format      ascii;
    class       volScalarField;
    location    "11.35";
    object      epsilon;
}
// * * * * * * * * * * * * * * * * * * * * * * * * * * * * * * * * * * * * * //

dimensions      [0 2 -3 0 0 0 0];

internalField   nonuniform List<scalar> 
360
(
1e-20
1e-20
1e-20
1e-20
1e-20
1e-20
1e-20
1e-20
1e-20
1e-20
1e-20
1e-20
1e-20
1e-20
1e-20
1e-20
1e-20
1e-20
1e-20
1e-20
1e-20
1e-20
1e-20
1e-20
1e-20
1e-20
1e-20
1e-20
1e-20
1e-20
1e-20
1e-20
1e-20
1e-20
1e-20
1e-20
1e-20
1e-20
1e-20
1e-20
1e-20
1e-20
1e-20
1e-20
1e-20
1e-20
1e-20
1e-20
1e-20
1e-20
1e-20
1e-20
1e-20
1e-20
1e-20
1e-20
1e-20
1e-20
1e-20
1e-20
1e-20
1e-20
1e-20
1e-20
1e-20
1e-20
1e-20
1e-20
1e-20
1e-20
1e-20
1e-20
1e-20
1e-20
1e-20
1e-20
1e-20
1e-20
1e-20
1e-20
1e-20
1e-20
1e-20
1e-20
1e-20
1e-20
1e-20
1e-20
1e-20
1e-20
1e-20
1e-20
1e-20
1e-20
1e-20
1e-20
1e-20
1e-20
1e-20
1e-20
1e-20
1e-20
1e-20
1e-20
1e-20
1e-20
1e-20
1e-20
1e-20
1e-20
1e-20
1e-20
1e-20
1e-20
1e-20
1e-20
1e-20
1e-20
1e-20
1e-20
1e-20
1e-20
1e-20
1e-20
1e-20
1e-20
1e-20
1e-20
1e-20
1e-20
1e-20
1e-20
1e-20
1e-20
1.40756e-20
4.30063e-20
3.61263e-19
4.79768e-18
7.20295e-17
1.19812e-15
2.2355e-14
4.75088e-13
1.16779e-11
3.30636e-10
1.10921e-08
4.4859e-07
2.1995e-05
0.00125267
0.0416381
0.199254
0.233176
0.22306
0.200907
0.175812
0.151074
0.127988
0.10704
0.0883801
0.072024
0.0579353
0.0460533
0.0362835
0.0284768
0.0224169
0.0178311
0.0144246
0.0119191
0.0100797
0.00872323
0.00771435
0.00695631
0.00638081
0.00593981
0.00559931
0.00533503
0.00512938
0.00496944
0.00484558
0.00475051
0.00467861
0.00462553
0.00458782
0.00456271
0.00454796
0.00454175
0.00454256
0.00454911
0.00456033
0.00457531
0.00459328
0.00461355
0.00463555
0.00465877
0.00468275
0.00470711
0.00473151
0.00475564
0.00477923
0.00480205
0.00482389
0.00484456
0.0048641
0.00488249
0.00489949
0.00491487
0.0049284
0.00493982
0.0049489
0.00495538
0.00495901
0.00495953
0.00495669
0.00495022
0.00493988
0.00492539
0.00490651
0.00488297
0.00485454
0.00482096
0.004782
0.00473744
0.00468705
0.00463064
0.00456802
0.00449901
0.00442348
0.00434129
0.00425236
0.00415663
0.00405406
0.00394466
0.00382851
0.0037057
0.0035764
0.00344084
0.00329931
0.00315217
0.00299988
0.00284297
0.00268207
0.00251791
0.00235131
0.00218321
0.00201466
0.00184679
0.00168086
0.00151819
0.00136016
0.00120819
0.00106369
0.000928005
0.00080234
0.0006877
0.000584802
0.000494011
0.000415297
0.000348218
0.000291963
0.000245423
0.000207308
0.000176257
0.000150948
0.00013017
0.000112869
9.81678e-05
8.53616e-05
7.39082e-05
6.34116e-05
5.36043e-05
4.43317e-05
3.55376e-05
2.72522e-05
1.95854e-05
1.27234e-05
6.93383e-06
2.56714e-06
3.63232e-07
1.12354e-08
1.46022e-10
1.69547e-12
1.85128e-14
1.90353e-16
1.85149e-18
2.49265e-20
1e-20
1e-20
1e-20
1e-20
1e-20
1e-20
1e-20
1e-20
1e-20
1e-20
1e-20
1e-20
1e-20
1e-20
1e-20
1e-20
1e-20
1e-20
1e-20
1e-20
1e-20
1e-20
1e-20
1e-20
1e-20
1e-20
1e-20
1e-20
1e-20
1e-20
1e-20
1e-20
1e-20
1e-20
1e-20
1e-20
1e-20
1e-20
1e-20
1e-20
1e-20
1e-20
1e-20
1e-20
1e-20
1e-20
1e-20
1e-20
1e-20
1e-20
1e-20
1e-20
1e-20
1e-20
1e-20
1e-20
1e-20
1e-20
1e-20
1e-20
1e-20
1e-20
1e-20
1e-20
1e-20
1e-20
1e-20
1e-20
1e-20
1e-20
1e-20
1e-20
1e-20
1e-20
1e-20
1e-20
)
;

boundaryField
{
    inandouthalf11
    {
        type            cyclic;
    }
    inandouthalf12
    {
        type            cyclic;
    }
    inandouthalf21
    {
        type            cyclic;
    }
    inandouthalf22
    {
        type            cyclic;
    }
    inandouthalf31
    {
        type            cyclic;
    }
    inandouthalf32
    {
        type            cyclic;
    }
    inandouthalf41
    {
        type            cyclic;
    }
    inandouthalf42
    {
        type            cyclic;
    }
    top
    {
        type            symmetryPlane;
    }
    walls
    {
        type            zeroGradient;
    }
    frontAndBackPlanes
    {
        type            empty;
    }
}


// ************************************************************************* //
