/*--------------------------------*- C++ -*----------------------------------*\
| =========                 |                                                 |
| \\      /  F ield         | OpenFOAM: The Open Source CFD Toolbox           |
|  \\    /   O peration     | Version:  2.4.x                                 |
|   \\  /    A nd           | Web:      www.OpenFOAM.org                      |
|    \\/     M anipulation  |                                                 |
\*---------------------------------------------------------------------------*/
FoamFile
{
    version     2.0;
    format      ascii;
    class       volVectorField;
    location    "11.35";
    object      gradPs;
}
// * * * * * * * * * * * * * * * * * * * * * * * * * * * * * * * * * * * * * //

dimensions      [0 1 -2 0 0 0 0];

internalField   nonuniform List<vector> 
360
(
(0 1.55626e-18 0)
(0 1.71487e-18 0)
(0 -1.50606e-21 0)
(0 -2.38129e-19 0)
(-2.90052e-32 -9.97063e-20 0)
(-2.90059e-32 -5.45539e-20 0)
(-1.45033e-32 -7.0319e-20 0)
(0 -8.03693e-20 0)
(-1.45044e-32 -8.17126e-20 0)
(0 -8.23896e-20 0)
(-1.45055e-32 -8.2665e-20 0)
(0 -8.29732e-20 0)
(-1.45066e-32 -8.36536e-20 0)
(0 -8.43565e-20 0)
(0 -8.52866e-20 0)
(0 -8.62308e-20 0)
(0 -8.69764e-20 0)
(-2.90188e-32 -8.76504e-20 0)
(0 -8.86876e-20 0)
(0 -8.94112e-20 0)
(0 -9.01688e-20 0)
(-2.90236e-32 -9.12657e-20 0)
(0 -9.206e-20 0)
(0 -9.299e-20 0)
(0 -9.39476e-20 0)
(-2.90285e-32 -9.47216e-20 0)
(0 -9.57886e-20 0)
(0 -9.69003e-20 0)
(0 -9.76969e-20 0)
(0 -9.86325e-20 0)
(0 -9.99439e-20 0)
(0 -1.00631e-19 0)
(0 -1.01852e-19 0)
(0 -1.03102e-19 0)
(0 -1.03898e-19 0)
(2.90418e-32 -1.05034e-19 0)
(0 -1.0612e-19 0)
(0 -1.07729e-19 0)
(0 -1.08261e-19 0)
(0 -1.09573e-19 0)
(0 -1.11346e-19 0)
(0 -1.11725e-19 0)
(2.90519e-32 -1.13336e-19 0)
(0 -1.14812e-19 0)
(0 -1.15759e-19 0)
(0 -1.17527e-19 0)
(0 -1.18283e-19 0)
(0 -1.19437e-19 0)
(0 -1.2182e-19 0)
(0 -1.22671e-19 0)
(1.45323e-32 -1.23774e-19 0)
(0 -1.25624e-19 0)
(0 -1.2712e-19 0)
(0 -1.28325e-19 0)
(0 -1.30159e-19 0)
(0 -1.31673e-19 0)
(0 -1.33117e-19 0)
(0 -1.3516e-19 0)
(0 -1.36017e-19 0)
(0 -1.3829e-19 0)
(0 -1.40086e-19 0)
(0 -1.41601e-19 0)
(0 -1.43714e-19 0)
(0 -1.45313e-19 0)
(0 -1.47139e-19 0)
(0 -1.49119e-19 0)
(0 -1.51385e-19 0)
(0 -1.53259e-19 0)
(0 -1.54758e-19 0)
(0 -1.57225e-19 0)
(0 -1.60153e-19 0)
(0 -1.61465e-19 0)
(0 -1.63671e-19 0)
(0 -1.66492e-19 0)
(0 -1.68931e-19 0)
(0 -1.71254e-19 0)
(0 -1.73365e-19 0)
(0 -1.76208e-19 0)
(0 -1.79003e-19 0)
(0 -1.81502e-19 0)
(0 -1.84228e-19 0)
(0 -1.8731e-19 0)
(0 -1.90237e-19 0)
(0 -1.93262e-19 0)
(0 -1.96391e-19 0)
(0 -1.99639e-19 0)
(0 -2.02934e-19 0)
(0 -2.06228e-19 0)
(0 -2.09764e-19 0)
(0 -2.13417e-19 0)
(0 -2.17121e-19 0)
(0 -2.21018e-19 0)
(0 -2.2508e-19 0)
(0 -2.29223e-19 0)
(0 -2.33501e-19 0)
(0 -2.3792e-19 0)
(0 -2.42473e-19 0)
(0 -2.47176e-19 0)
(0 -2.52059e-19 0)
(0 -2.57127e-19 0)
(0 -2.62382e-19 0)
(0 -2.67846e-19 0)
(0 -2.7352e-19 0)
(0 -2.794e-19 0)
(0 -2.855e-19 0)
(0 -2.91832e-19 0)
(0 -2.98407e-19 0)
(0 -3.0524e-19 0)
(0 -3.12346e-19 0)
(0 -3.19741e-19 0)
(0 -3.27439e-19 0)
(0 -3.35461e-19 0)
(0 -3.43825e-19 0)
(0 -3.52556e-19 0)
(0 -3.61682e-19 0)
(0 -3.71232e-19 0)
(0 -3.81243e-19 0)
(0 -3.91755e-19 0)
(0 -4.02813e-19 0)
(0 -4.14464e-19 0)
(0 -4.26753e-19 0)
(0 -4.39716e-19 0)
(0 -4.53377e-19 0)
(0 -4.67765e-19 0)
(0 -4.82941e-19 0)
(0 -4.9904e-19 0)
(0 -5.16283e-19 0)
(0 -5.34897e-19 0)
(0 -5.54924e-19 0)
(0 -5.7609e-19 0)
(0 -5.98207e-19 0)
(0 -6.22457e-19 0)
(0 -6.5218e-19 0)
(0 3.34066e-17 0)
(0 1.60601e-16 0)
(0 1.65006e-15 0)
(0 2.05531e-14 0)
(0 2.6624e-13 0)
(0 3.75155e-12 0)
(0 5.85787e-11 0)
(0 1.02961e-09 0)
(0 2.05241e-08 0)
(0 4.81609e-07 0)
(0 1.44046e-05 0)
(0 0.0013205 0)
(0 0.0925375 0)
(0 1.74018 0)
(0 3.26363 0)
(0 1.81915 0)
(0 -2.47702 0)
(0 -3.76844 0)
(0 -4.15096 0)
(0 -4.19403 0)
(0 -4.13046 0)
(0 -4.02525 0)
(0 -3.89972 0)
(0 -3.75905 0)
(0 -3.60245 0)
(0 -3.42945 0)
(0 -3.2431 0)
(0 -3.04985 0)
(0 -2.85027 0)
(0 -2.62062 0)
(0 -2.32131 0)
(0 -1.95797 0)
(0 -1.601 0)
(0 -1.30727 0)
(0 -1.08237 0)
(0 -0.911563 0)
(0 -0.78046 0)
(0 -0.678324 0)
(0 -0.597506 0)
(0 -0.53265 0)
(0 -0.479962 0)
(0 -0.436722 0)
(0 -0.400947 0)
(0 -0.37116 0)
(0 -0.346244 0)
(0 -0.325341 0)
(0 -0.307781 0)
(0 -0.293034 0)
(0 -0.280677 0)
(0 -0.270364 0)
(0 -0.261815 0)
(0 -0.254799 0)
(0 -0.249121 0)
(0 -0.244618 0)
(0 -0.241152 0)
(0 -0.238604 0)
(0 -0.236868 0)
(0 -0.235852 0)
(0 -0.235471 0)
(0 -0.235648 0)
(0 -0.236308 0)
(0 -0.237382 0)
(0 -0.238804 0)
(0 -0.240509 0)
(0 -0.242435 0)
(0 -0.244525 0)
(0 -0.246723 0)
(0 -0.248976 0)
(0 -0.251268 0)
(-3.20211e-16 -0.253592 0)
(0 -0.25591 0)
(0 -0.258182 0)
(1.78175e-16 -0.260375 0)
(0 -0.262447 0)
(-1.92869e-16 -0.264353 0)
(0 -0.266032 0)
(2.10231e-16 -0.267408 0)
(0 -0.268385 0)
(0 -0.268846 0)
(0 -0.268654 0)
(1.2765e-16 -0.267669 0)
(0 -0.265753 0)
(0 -0.262794 0)
(0 -0.258722 0)
(0 -0.253522 0)
(0 -0.247231 0)
(-8.92438e-17 -0.239925 0)
(0 -0.2317 0)
(-1.00267e-16 -0.222657 0)
(0 -0.212881 0)
(-5.62661e-17 -0.202438 0)
(0 -0.191358 0)
(0 -0.179646 0)
(0 -0.167326 0)
(0 -0.154435 0)
(3.68319e-17 -0.141 0)
(0 -0.127225 0)
(0 -0.113504 0)
(0 -0.0998984 0)
(0 -0.0882485 0)
(0 -0.0786338 0)
(0 -0.0695526 0)
(0 -0.0678324 0)
(0 -0.0352334 0)
(0 0 0)
(0 0 0)
(0 0 0)
(0 0 0)
(0 0 0)
(0 0 0)
(0 0 0)
(0 0 0)
(0 0 0)
(0 0 0)
(0 0 0)
(0 0 0)
(0 0 0)
(0 0 0)
(0 0 0)
(0 0 0)
(0 0 0)
(0 0 0)
(0 0 0)
(0 0 0)
(0 0 0)
(0 0 0)
(0 0 0)
(0 0 0)
(0 0 0)
(0 0 0)
(0 0 0)
(0 0 0)
(0 0 0)
(0 0 0)
(0 0 0)
(0 0 0)
(0 0 0)
(0 0 0)
(0 0 0)
(0 0 0)
(0 0 0)
(0 0 0)
(0 0 0)
(0 0 0)
(0 0 0)
(0 0 0)
(0 0 0)
(0 0 0)
(0 0 0)
(0 0 0)
(0 0 0)
(0 0 0)
(0 0 0)
(0 0 0)
(0 0 0)
(0 0 0)
(0 0 0)
(0 0 0)
(0 0 0)
(0 0 0)
(0 0 0)
(0 0 0)
(0 0 0)
(0 0 0)
(0 0 0)
(0 0 0)
(0 0 0)
(0 0 0)
(0 0 0)
(0 0 0)
(0 0 0)
(0 0 0)
(0 0 0)
(0 0 0)
(0 0 0)
(0 0 0)
(0 0 0)
(0 0 0)
(0 0 0)
(0 0 0)
(0 0 0)
(0 0 0)
(0 0 0)
(0 0 0)
(0 0 0)
(0 0 0)
(0 0 0)
(0 0 0)
(0 0 0)
(0 0 0)
(0 0 0)
(0 0 0)
(0 0 0)
(0 0 0)
(0 0 0)
(0 0 0)
(0 0 0)
(0 0 0)
(0 0 0)
(0 0 0)
(0 0 0)
(0 0 0)
(0 0 0)
(0 0 0)
(0 0 0)
(0 0 0)
(0 0 0)
(0 0 0)
(0 0 0)
(0 0 0)
(0 0 0)
(0 0 0)
(0 0 0)
(0 0 0)
(0 0 0)
(0 0 0)
(0 0 0)
(0 0 0)
(0 0 0)
(0 0 0)
(0 0 0)
(0 0 0)
(0 0 0)
(0 0 0)
(0 0 0)
(0 0 0)
(0 0 0)
)
;

boundaryField
{
    inandouthalf11
    {
        type            cyclic;
    }
    inandouthalf12
    {
        type            cyclic;
    }
    inandouthalf21
    {
        type            cyclic;
    }
    inandouthalf22
    {
        type            cyclic;
    }
    inandouthalf31
    {
        type            cyclic;
    }
    inandouthalf32
    {
        type            cyclic;
    }
    inandouthalf41
    {
        type            cyclic;
    }
    inandouthalf42
    {
        type            cyclic;
    }
    top
    {
        type            symmetryPlane;
    }
    walls
    {
        type            calculated;
        value           uniform (0 0 0);
    }
    frontAndBackPlanes
    {
        type            empty;
    }
}


// ************************************************************************* //
