/*--------------------------------*- C++ -*----------------------------------*\
| =========                 |                                                 |
| \\      /  F ield         | OpenFOAM: The Open Source CFD Toolbox           |
|  \\    /   O peration     | Version:  2.4.x                                 |
|   \\  /    A nd           | Web:      www.OpenFOAM.org                      |
|    \\/     M anipulation  |                                                 |
\*---------------------------------------------------------------------------*/
FoamFile
{
    version     2.0;
    format      ascii;
    class       volVectorField;
    location    "11.35";
    object      gradPf;
}
// * * * * * * * * * * * * * * * * * * * * * * * * * * * * * * * * * * * * * //

dimensions      [0 1 -2 0 0 0 0];

internalField   nonuniform List<vector> 
360
(
(0 72.4396 0)
(0 80.9588 0)
(0 -0.0718224 0)
(0 -12.6756 0)
(-3.34408e-14 -5.22814 0)
(-3.34415e-14 -2.83504 0)
(-3.34424e-14 -3.63301 0)
(0 -4.12709 0)
(-3.34449e-14 -4.16769 0)
(0 -4.17325 0)
(-3.34474e-14 -4.1582 0)
(0 -4.14455 0)
(-3.34499e-14 -4.14932 0)
(0 -4.15472 0)
(0 -4.17077 0)
(0 -4.18683 0)
(0 -4.19264 0)
(-3.34564e-14 -4.19449 0)
(0 -4.21308 0)
(0 -4.21627 0)
(0 -4.22033 0)
(-1.67309e-14 -4.23976 0)
(0 -4.24434 0)
(0 -4.25452 0)
(0 -4.26527 0)
(-1.67338e-14 -4.26705 0)
(0 -4.28126 0)
(0 -4.29671 0)
(0 -4.2974 0)
(0 -4.30356 0)
(0 -4.3252 0)
(0 -4.31927 0)
(0 -4.3351 0)
(0 -4.35171 0)
(0 -4.34796 0)
(3.34829e-14 -4.358 0)
(0 -4.36493 0)
(0 -4.39235 0)
(0 -4.37524 0)
(0 -4.38852 0)
(0 -4.41958 0)
(0 -4.39423 0)
(3.34946e-14 -4.41645 0)
(0 -4.43263 0)
(0 -4.42704 0)
(0 -4.45202 0)
(0 -4.43781 0)
(0 -4.43756 0)
(0 -4.48178 0)
(0 -4.46855 0)
(1.67546e-14 -4.46336 0)
(0 -4.48441 0)
(0 -4.49126 0)
(0 -4.48712 0)
(0 -4.50339 0)
(0 -4.50788 0)
(0 -4.50827 0)
(0 -4.5281 0)
(0 -4.507 0)
(0 -4.53142 0)
(0 -4.5392 0)
(0 -4.53598 0)
(0 -4.55108 0)
(0 -4.54818 0)
(0 -4.55137 0)
(0 -4.55772 0)
(0 -4.57133 0)
(0 -4.57154 0)
(0 -4.55944 0)
(0 -4.57418 0)
(0 -4.60049 0)
(0 -4.57885 0)
(0 -4.58096 0)
(0 -4.5989 0)
(0 -4.6039 0)
(0 -4.60429 0)
(0 -4.59716 0)
(0 -4.60779 0)
(0 -4.61503 0)
(0 -4.61276 0)
(0 -4.61425 0)
(0 -4.62264 0)
(0 -4.62499 0)
(0 -4.62751 0)
(0 -4.63029 0)
(0 -4.63356 0)
(0 -4.63557 0)
(0 -4.63518 0)
(0 -4.63776 0)
(0 -4.64036 0)
(0 -4.64142 0)
(0 -4.64385 0)
(0 -4.64692 0)
(0 -4.64868 0)
(0 -4.65014 0)
(0 -4.65133 0)
(0 -4.65192 0)
(0 -4.65212 0)
(0 -4.65231 0)
(0 -4.65239 0)
(0 -4.65222 0)
(0 -4.65197 0)
(0 -4.65144 0)
(0 -4.65039 0)
(0 -4.64881 0)
(0 -4.64668 0)
(0 -4.64395 0)
(0 -4.64062 0)
(0 -4.63666 0)
(0 -4.63203 0)
(0 -4.62668 0)
(0 -4.62057 0)
(0 -4.61368 0)
(0 -4.606 0)
(0 -4.59754 0)
(0 -4.58832 0)
(0 -4.57836 0)
(0 -4.56772 0)
(0 -4.55644 0)
(0 -4.54454 0)
(0 -4.53195 0)
(0 -4.51845 0)
(0 -4.50371 0)
(0 -4.48738 0)
(0 -4.46943 0)
(0 -4.45037 0)
(0 -4.43129 0)
(0 -4.41299 0)
(0 -4.39457 0)
(0 -4.37275 0)
(0 -4.34529 0)
(0 -4.31948 0)
(0 -4.31481 0)
(0 -4.3418 0)
(0 -4.3747 0)
(0 -4.37788 0)
(0 -4.37456 0)
(0 -4.45553 0)
(0 -4.65758 0)
(0 -4.76125 0)
(0 -4.89712 0)
(0 -14.4432 0)
(0 -10.6709 0)
(0 -0.267661 0)
(0 -3.763 0)
(0 -3.89898 0)
(0 -6.59953 0)
(0 -7.96877 0)
(0 -4.61357 0)
(0 0 0)
(0 0 0)
(0 0 0)
(0 0 0)
(0 0 0)
(0 0 0)
(0 0 0)
(0 0 0)
(0 0 0)
(0 0 0)
(0 0 0)
(0 0 0)
(0 0 0)
(0 0 0)
(0 0 0)
(0 0 0)
(0 0 0)
(0 0 0)
(0 0 0)
(0 0 0)
(0 0 0)
(0 0 0)
(0 0 0)
(0 0 0)
(0 0 0)
(0 0 0)
(0 0 0)
(0 0 0)
(0 0 0)
(0 0 0)
(0 0 0)
(0 0 0)
(0 0 0)
(0 0 0)
(0 0 0)
(0 0 0)
(0 0 0)
(0 0 0)
(0 0 0)
(0 0 0)
(0 0 0)
(0 0 0)
(0 0 0)
(0 0 0)
(0 0 0)
(0 0 0)
(0 0 0)
(0 0 0)
(0 0 0)
(0 0 0)
(0 0 0)
(0 0 0)
(0 0 0)
(0 0 0)
(0 0 0)
(0 0 0)
(0 0 0)
(0 0 0)
(0 0 0)
(0 0 0)
(0 0 0)
(0 0 0)
(0 0 0)
(0 0 0)
(0 0 0)
(0 0 0)
(0 0 0)
(0 0 0)
(0 0 0)
(0 0 0)
(0 0 0)
(0 0 0)
(0 0 0)
(0 0 0)
(0 0 0)
(0 0 0)
(0 0 0)
(0 0 0)
(0 0 0)
(0 0 0)
(0 0 0)
(0 0 0)
(0 0 0)
(0 0 0)
(0 0 0)
(0 0 0)
(0 0 0)
(0 0 0)
(0 0 0)
(0 0 0)
(0 0 0)
(0 0 0)
(0 0 0)
(0 0 0)
(0 0 0)
(0 0 0)
(0 0 0)
(0 0 0)
(0 0 0)
(0 0 0)
(0 0 0)
(0 0 0)
(0 0 0)
(0 0 0)
(0 0 0)
(0 0 0)
(0 0 0)
(0 0 0)
(0 0 0)
(0 0 0)
(0 0 0)
(0 0 0)
(0 0 0)
(0 0 0)
(0 0 0)
(0 0 0)
(0 0 0)
(0 0 0)
(0 0 0)
(0 0 0)
(0 0 0)
(0 0 0)
(0 0 0)
(0 0 0)
(0 0 0)
(0 0 0)
(0 0 0)
(0 0 0)
(0 0 0)
(0 0 0)
(0 0 0)
(0 0 0)
(0 0 0)
(0 0 0)
(0 0 0)
(0 0 0)
(0 0 0)
(0 0 0)
(0 0 0)
(0 0 0)
(0 0 0)
(0 0 0)
(0 0 0)
(0 0 0)
(0 0 0)
(0 0 0)
(0 0 0)
(0 0 0)
(0 0 0)
(0 0 0)
(0 0 0)
(0 0 0)
(0 0 0)
(0 0 0)
(0 0 0)
(0 0 0)
(0 0 0)
(0 0 0)
(0 0 0)
(0 0 0)
(0 0 0)
(0 0 0)
(0 0 0)
(0 0 0)
(0 0 0)
(0 0 0)
(0 0 0)
(0 0 0)
(0 0 0)
(0 0 0)
(0 0 0)
(0 0 0)
(0 0 0)
(0 0 0)
(0 0 0)
(0 0 0)
(0 0 0)
(0 0 0)
(0 0 0)
(0 0 0)
(0 0 0)
(0 0 0)
(0 0 0)
(0 0 0)
(0 0 0)
(0 0 0)
(0 0 0)
(0 0 0)
(0 0 0)
(0 0 0)
(0 0 0)
(0 0 0)
(0 0 0)
(0 0 0)
(0 0 0)
(0 0 0)
(0 0 0)
(0 0 0)
(0 0 0)
(0 0 0)
(0 0 0)
(0 0 0)
(0 0 0)
(0 0 0)
(0 0 0)
(0 0 0)
(0 0 0)
(0 0 0)
(0 0 0)
(0 0 0)
(0 0 0)
)
;

boundaryField
{
    inandouthalf11
    {
        type            cyclic;
    }
    inandouthalf12
    {
        type            cyclic;
    }
    inandouthalf21
    {
        type            cyclic;
    }
    inandouthalf22
    {
        type            cyclic;
    }
    inandouthalf31
    {
        type            cyclic;
    }
    inandouthalf32
    {
        type            cyclic;
    }
    inandouthalf41
    {
        type            cyclic;
    }
    inandouthalf42
    {
        type            cyclic;
    }
    top
    {
        type            symmetryPlane;
    }
    walls
    {
        type            calculated;
        value           uniform (0 0 0);
    }
    frontAndBackPlanes
    {
        type            empty;
    }
}


// ************************************************************************* //
