/*--------------------------------*- C++ -*----------------------------------*\
| =========                 |                                                 |
| \\      /  F ield         | OpenFOAM: The Open Source CFD Toolbox           |
|  \\    /   O peration     | Version:  2.4.x                                 |
|   \\  /    A nd           | Web:      www.OpenFOAM.org                      |
|    \\/     M anipulation  |                                                 |
\*---------------------------------------------------------------------------*/
FoamFile
{
    version     2.0;
    format      ascii;
    class       volScalarField;
    location    "11.35";
    object      nutb;
}
// * * * * * * * * * * * * * * * * * * * * * * * * * * * * * * * * * * * * * //

dimensions      [0 2 -1 0 0 0 0];

internalField   nonuniform List<scalar> 
360
(
9e-22
9e-22
9e-22
9e-22
9e-22
9e-22
9e-22
9e-22
9e-22
9e-22
9e-22
9e-22
9e-22
9e-22
9e-22
9e-22
9e-22
9e-22
9e-22
9e-22
9e-22
9e-22
9e-22
9e-22
9e-22
9e-22
9e-22
9e-22
9e-22
9e-22
9e-22
9e-22
9e-22
9e-22
9e-22
9e-22
9e-22
9e-22
9e-22
9e-22
9e-22
9e-22
9e-22
9e-22
9e-22
9e-22
9e-22
9e-22
9e-22
9e-22
9e-22
9e-22
9e-22
9e-22
9e-22
9e-22
9e-22
9e-22
9e-22
9e-22
9e-22
9e-22
9e-22
9e-22
9e-22
9e-22
9e-22
9e-22
9e-22
9e-22
9e-22
9e-22
9e-22
9e-22
9e-22
9e-22
9e-22
9e-22
9e-22
9e-22
9e-22
9e-22
9e-22
9e-22
9e-22
9e-22
9e-22
9e-22
9e-22
9e-22
9e-22
9e-22
9e-22
9e-22
9e-22
9e-22
9e-22
9e-22
9e-22
9e-22
9e-22
9e-22
9e-22
9e-22
9e-22
9e-22
9e-22
9e-22
9e-22
9e-22
9e-22
9e-22
9e-22
9e-22
9e-22
9e-22
9e-22
9e-22
9e-22
9e-22
9e-22
9e-22
9e-22
9e-22
9e-22
9e-22
9e-22
9e-22
9e-22
9e-22
9e-22
9e-22
9e-22
9e-22
9.19363e-22
8.01802e-22
3.04655e-21
2.92993e-20
3.23458e-19
3.87574e-18
5.09155e-17
7.45319e-16
1.27218e-14
2.41966e-13
5.26831e-12
1.37152e-10
4.27134e-09
1.48929e-07
2.91901e-06
1.08001e-05
1.72756e-05
2.22363e-05
2.61981e-05
2.94155e-05
3.20482e-05
3.42154e-05
3.60179e-05
3.75603e-05
3.89699e-05
4.04105e-05
4.20903e-05
4.42573e-05
4.71785e-05
5.10975e-05
5.61844e-05
6.24997e-05
6.99873e-05
7.84942e-05
8.78057e-05
9.76843e-05
0.000107901
0.000118252
0.000128573
0.000138734
0.000148639
0.000158221
0.000167437
0.000176262
0.000184685
0.000192704
0.000200328
0.000207567
0.000214435
0.00022095
0.000227129
0.00023299
0.000238551
0.000243827
0.000248835
0.000253591
0.000258107
0.000262397
0.000266473
0.000270345
0.000274024
0.000277518
0.000280836
0.000283985
0.000286973
0.000289804
0.000292485
0.000295046
0.000297512
0.000299878
0.000302141
0.000304298
0.000306343
0.000308273
0.000310082
0.000311766
0.000313318
0.000314732
0.000316003
0.000317124
0.000318087
0.000318885
0.000319511
0.000319957
0.000320213
0.000320273
0.000320126
0.000319763
0.000319175
0.000318353
0.000317287
0.000315967
0.000314383
0.000312525
0.000310383
0.000307949
0.000305212
0.000302164
0.000298796
0.000295101
0.000291072
0.000286705
0.000281996
0.000276941
0.000271541
0.000265799
0.000259721
0.000253317
0.000246602
0.000239597
0.000232327
0.000224828
0.000217142
0.00020932
0.000201423
0.000193524
0.000185703
0.000178047
0.000170643
0.000163577
0.000156917
0.000150707
0.000144951
0.00013961
0.000134598
0.000129793
0.000125053
0.000120236
0.000115223
0.000109922
0.000104276
9.82495e-05
9.18255e-05
8.49918e-05
7.77366e-05
7.00444e-05
6.18964e-05
5.3271e-05
4.41464e-05
3.45007e-05
2.43001e-05
1.3459e-05
3.17623e-06
1.3504e-07
1.78985e-09
2.05809e-11
2.22628e-13
2.26949e-15
2.17379e-17
1.42437e-19
9.74659e-22
9e-22
9e-22
9e-22
9e-22
9e-22
9e-22
9e-22
9e-22
9e-22
9e-22
9e-22
9e-22
9e-22
9e-22
9e-22
9e-22
9e-22
9e-22
9e-22
9e-22
9e-22
9e-22
9e-22
9e-22
9e-22
9e-22
9e-22
9e-22
9e-22
9e-22
9e-22
9e-22
9e-22
9e-22
9e-22
9e-22
9e-22
9e-22
9e-22
9e-22
9e-22
9e-22
9e-22
9e-22
9e-22
9e-22
9e-22
9e-22
9e-22
9e-22
9e-22
9e-22
9e-22
9e-22
9e-22
9e-22
9e-22
9e-22
9e-22
9e-22
9e-22
9e-22
9e-22
9e-22
9e-22
9e-22
9e-22
9e-22
9e-22
9e-22
9e-22
9e-22
9e-22
9e-22
9e-22
)
;

boundaryField
{
    inandouthalf11
    {
        type            cyclic;
    }
    inandouthalf12
    {
        type            cyclic;
    }
    inandouthalf21
    {
        type            cyclic;
    }
    inandouthalf22
    {
        type            cyclic;
    }
    inandouthalf31
    {
        type            cyclic;
    }
    inandouthalf32
    {
        type            cyclic;
    }
    inandouthalf41
    {
        type            cyclic;
    }
    inandouthalf42
    {
        type            cyclic;
    }
    top
    {
        type            symmetryPlane;
    }
    walls
    {
        type            calculated;
        value           uniform 0;
    }
    frontAndBackPlanes
    {
        type            empty;
    }
}


// ************************************************************************* //
