/*--------------------------------*- C++ -*----------------------------------*\
| =========                 |                                                 |
| \\      /  F ield         | OpenFOAM: The Open Source CFD Toolbox           |
|  \\    /   O peration     | Version:  2.4.x                                 |
|   \\  /    A nd           | Web:      www.OpenFOAM.org                      |
|    \\/     M anipulation  |                                                 |
\*---------------------------------------------------------------------------*/
FoamFile
{
    version     2.0;
    format      ascii;
    class       surfaceScalarField;
    location    "11.35";
    object      phia;
}
// * * * * * * * * * * * * * * * * * * * * * * * * * * * * * * * * * * * * * //

dimensions      [0 3 -1 0 0 0 0];

internalField   nonuniform List<scalar> 
359
(
-1.37438e-14
-3.43796e-14
-5.39215e-14
-7.31819e-14
-9.33109e-14
-1.14114e-13
-1.35213e-13
-1.5646e-13
-1.77799e-13
-1.99189e-13
-2.20566e-13
-2.41849e-13
-2.62963e-13
-2.8384e-13
-3.04425e-13
-3.24675e-13
-3.44556e-13
-3.6404e-13
-3.83108e-13
-4.01755e-13
-4.19973e-13
-4.37771e-13
-4.55156e-13
-4.72145e-13
-4.88755e-13
-5.05005e-13
-5.20918e-13
-5.3652e-13
-5.51833e-13
-5.66883e-13
-5.81693e-13
-5.9629e-13
-6.10693e-13
-6.24931e-13
-6.39019e-13
-6.52983e-13
-6.66837e-13
-6.80603e-13
-6.943e-13
-7.07936e-13
-7.21533e-13
-7.35101e-13
-7.48648e-13
-7.62192e-13
-7.75739e-13
-7.89299e-13
-8.0288e-13
-8.16482e-13
-8.30116e-13
-8.43792e-13
-8.57504e-13
-8.71261e-13
-8.85064e-13
-8.98917e-13
-9.12815e-13
-9.26769e-13
-9.40768e-13
-9.5482e-13
-9.68918e-13
-9.83057e-13
-9.97247e-13
-1.01148e-12
-1.02575e-12
-1.04006e-12
-1.05441e-12
-1.06879e-12
-1.0832e-12
-1.09764e-12
-1.11209e-12
-1.12656e-12
-1.14104e-12
-1.15553e-12
-1.17003e-12
-1.18453e-12
-1.19902e-12
-1.21351e-12
-1.22799e-12
-1.24245e-12
-1.25688e-12
-1.27128e-12
-1.28565e-12
-1.29998e-12
-1.31427e-12
-1.32852e-12
-1.34272e-12
-1.35686e-12
-1.37094e-12
-1.38496e-12
-1.39891e-12
-1.41278e-12
-1.42657e-12
-1.44027e-12
-1.45388e-12
-1.46739e-12
-1.48081e-12
-1.49412e-12
-1.50733e-12
-1.52043e-12
-1.53341e-12
-1.54628e-12
-1.55903e-12
-1.57166e-12
-1.58417e-12
-1.59656e-12
-1.60885e-12
-1.62102e-12
-1.63309e-12
-1.64506e-12
-1.65695e-12
-1.66875e-12
-1.68048e-12
-1.69214e-12
-1.70372e-12
-1.71523e-12
-1.72665e-12
-1.73798e-12
-1.7492e-12
-1.76028e-12
-1.77122e-12
-1.782e-12
-1.79262e-12
-1.80308e-12
-1.81342e-12
-1.8237e-12
-1.83399e-12
-1.84443e-12
-1.85516e-12
-1.86637e-12
-1.87828e-12
-1.89111e-12
-1.90502e-12
-1.92003e-12
-1.93595e-12
-1.95224e-12
-1.96792e-12
-1.9816e-12
-1.99198e-12
-1.9985e-12
-2.00176e-12
-2.00303e-12
-2.0035e-12
-2.00345e-12
-2.00546e-12
-2.00669e-12
-2.00759e-12
-2.00852e-12
-2.00762e-12
7.99478e-11
3.39861e-09
6.19131e-09
7.91174e-09
9.31352e-09
1.06294e-08
1.19278e-08
1.32096e-08
1.44355e-08
1.55349e-08
1.64011e-08
1.68884e-08
1.67996e-08
1.58671e-08
1.37656e-08
1.02702e-08
5.56159e-09
2.11817e-10
-5.23329e-09
-1.04584e-08
-1.53193e-08
-1.97632e-08
-2.3786e-08
-2.74069e-08
-3.06538e-08
-3.35571e-08
-3.61463e-08
-3.84491e-08
-4.04905e-08
-4.22935e-08
-4.38785e-08
-4.52641e-08
-4.6467e-08
-4.75024e-08
-4.83841e-08
-4.91248e-08
-4.97359e-08
-5.02282e-08
-5.06114e-08
-5.08947e-08
-5.10866e-08
-5.1195e-08
-5.12274e-08
-5.11907e-08
-5.10917e-08
-5.09365e-08
-5.07309e-08
-5.04806e-08
-5.01905e-08
-4.98656e-08
-4.95102e-08
-4.91284e-08
-4.8724e-08
-4.83004e-08
-4.78514e-08
-4.7379e-08
-4.68848e-08
-4.63705e-08
-4.58376e-08
-4.52876e-08
-4.47217e-08
-4.41412e-08
-4.3547e-08
-4.29399e-08
-4.23205e-08
-4.16891e-08
-4.10457e-08
-4.039e-08
-3.97217e-08
-3.90401e-08
-3.8345e-08
-3.76362e-08
-3.69142e-08
-3.61796e-08
-3.54335e-08
-3.46774e-08
-3.39128e-08
-3.31414e-08
-3.23648e-08
-3.15844e-08
-3.08014e-08
-3.00169e-08
-2.92308e-08
-2.8442e-08
-2.76559e-08
-2.6863e-08
-2.61141e-08
-2.5385e-08
-2.49232e-08
-2.34118e-08
-2.10375e-08
-1.90397e-08
-1.69942e-08
-1.49157e-08
-1.2822e-08
-1.07323e-08
-8.64276e-09
-6.65138e-09
-4.56573e-09
-2.81299e-09
-7.91667e-10
6.39331e-10
1.96064e-09
2.37117e-09
4.79348e-09
-8.15487e-08
-1.53221e-07
-1.58464e-07
-1.58372e-07
-1.58345e-07
-1.58316e-07
-1.58293e-07
-1.58271e-07
-1.58252e-07
-1.58238e-07
-1.58227e-07
-1.58219e-07
-1.58213e-07
-1.58209e-07
-1.58206e-07
-1.58204e-07
-1.58203e-07
-1.58201e-07
-1.582e-07
-1.58197e-07
-1.58193e-07
-1.58187e-07
-1.58178e-07
-1.58156e-07
-1.58126e-07
-1.5812e-07
-1.5812e-07
-1.5812e-07
-1.5812e-07
-1.5812e-07
-1.5812e-07
-1.5812e-07
-1.5812e-07
-1.5812e-07
-1.5812e-07
-1.5812e-07
-1.5812e-07
-1.5812e-07
-1.5812e-07
-1.5812e-07
-1.5812e-07
-1.5812e-07
-1.5812e-07
-1.5812e-07
-1.5812e-07
-1.5812e-07
-1.5812e-07
-1.5812e-07
-1.5812e-07
-1.5812e-07
-1.5812e-07
-1.5812e-07
-1.5812e-07
-1.5812e-07
-1.5812e-07
-1.5812e-07
-1.5812e-07
-1.5812e-07
-1.5812e-07
-1.5812e-07
-1.5812e-07
-1.5812e-07
-1.5812e-07
-1.5812e-07
-1.5812e-07
-1.5812e-07
-1.5812e-07
-1.5812e-07
-1.5812e-07
-1.5812e-07
-1.5812e-07
-1.5812e-07
-1.5812e-07
-1.5812e-07
-1.5812e-07
-1.5812e-07
-1.5812e-07
-1.5812e-07
-1.5812e-07
-1.5812e-07
-1.5812e-07
-1.5812e-07
-1.5812e-07
-1.5812e-07
-1.5812e-07
-1.5812e-07
-1.5812e-07
-1.5812e-07
-1.5812e-07
-1.5812e-07
-1.5812e-07
-1.5812e-07
-1.5812e-07
-1.5812e-07
-1.5812e-07
-1.5812e-07
-1.5812e-07
-1.5812e-07
-1.5812e-07
-1.5812e-07
-1.5812e-07
-1.5812e-07
-1.5812e-07
-1.5812e-07
-1.58102e-07
-1.57395e-07
-1.32481e-07
)
;

boundaryField
{
    inandouthalf11
    {
        type            cyclic;
        value           nonuniform List<scalar> 
100
(
2.13376e-38
1.90237e-15
3.9933e-15
5.91672e-15
7.91501e-15
1.0025e-14
1.21886e-14
1.43755e-14
1.65789e-14
1.87948e-14
2.10173e-14
2.32386e-14
2.54506e-14
2.76455e-14
2.98169e-14
3.19595e-14
3.40691e-14
3.61423e-14
3.81765e-14
4.01703e-14
4.21227e-14
4.40337e-14
4.59041e-14
4.77348e-14
4.95277e-14
5.12844e-14
5.30071e-14
5.46983e-14
5.63605e-14
5.79961e-14
5.96077e-14
6.11979e-14
6.2769e-14
6.43237e-14
6.58643e-14
6.73928e-14
6.89115e-14
7.04224e-14
7.19274e-14
7.34282e-14
7.49265e-14
7.64237e-14
7.79212e-14
7.94201e-14
8.09219e-14
8.24275e-14
8.39378e-14
8.54532e-14
8.69746e-14
8.85029e-14
9.00385e-14
9.15817e-14
9.31328e-14
9.46923e-14
9.62602e-14
9.78367e-14
9.9422e-14
1.01016e-13
1.02618e-13
1.04229e-13
1.05848e-13
1.07475e-13
1.09111e-13
1.10754e-13
1.12405e-13
1.14063e-13
1.15728e-13
1.17399e-13
1.19076e-13
1.20759e-13
1.22447e-13
1.24139e-13
1.25836e-13
1.27537e-13
1.29242e-13
1.3095e-13
1.32661e-13
1.34374e-13
1.36088e-13
1.37803e-13
1.39518e-13
1.41233e-13
1.42948e-13
1.44662e-13
1.46374e-13
1.48085e-13
1.49794e-13
1.515e-13
1.53202e-13
1.549e-13
1.56594e-13
1.58282e-13
1.59964e-13
1.6164e-13
1.6331e-13
1.64973e-13
1.6663e-13
1.68278e-13
1.69919e-13
1.71552e-13
)
;
    }
    inandouthalf12
    {
        type            cyclic;
        value           nonuniform List<scalar> 
100
(
-2.13376e-38
-1.90237e-15
-3.9933e-15
-5.91672e-15
-7.91501e-15
-1.0025e-14
-1.21886e-14
-1.43755e-14
-1.65789e-14
-1.87948e-14
-2.10173e-14
-2.32386e-14
-2.54506e-14
-2.76455e-14
-2.98169e-14
-3.19595e-14
-3.40691e-14
-3.61423e-14
-3.81765e-14
-4.01703e-14
-4.21227e-14
-4.40337e-14
-4.59041e-14
-4.77348e-14
-4.95277e-14
-5.12844e-14
-5.30071e-14
-5.46983e-14
-5.63605e-14
-5.79961e-14
-5.96077e-14
-6.11979e-14
-6.2769e-14
-6.43237e-14
-6.58643e-14
-6.73928e-14
-6.89115e-14
-7.04224e-14
-7.19274e-14
-7.34282e-14
-7.49265e-14
-7.64237e-14
-7.79212e-14
-7.94201e-14
-8.09219e-14
-8.24275e-14
-8.39378e-14
-8.54532e-14
-8.69746e-14
-8.85029e-14
-9.00385e-14
-9.15817e-14
-9.31328e-14
-9.46923e-14
-9.62602e-14
-9.78367e-14
-9.9422e-14
-1.01016e-13
-1.02618e-13
-1.04229e-13
-1.05848e-13
-1.07475e-13
-1.09111e-13
-1.10754e-13
-1.12405e-13
-1.14063e-13
-1.15728e-13
-1.17399e-13
-1.19076e-13
-1.20759e-13
-1.22447e-13
-1.24139e-13
-1.25836e-13
-1.27537e-13
-1.29242e-13
-1.3095e-13
-1.32661e-13
-1.34374e-13
-1.36088e-13
-1.37803e-13
-1.39518e-13
-1.41233e-13
-1.42948e-13
-1.44662e-13
-1.46374e-13
-1.48085e-13
-1.49794e-13
-1.515e-13
-1.53202e-13
-1.549e-13
-1.56594e-13
-1.58282e-13
-1.59964e-13
-1.6164e-13
-1.6331e-13
-1.64973e-13
-1.6663e-13
-1.68278e-13
-1.69919e-13
-1.71552e-13
)
;
    }
    inandouthalf21
    {
        type            cyclic;
        value           nonuniform List<scalar> 
100
(
1.73176e-13
1.74792e-13
1.76399e-13
1.77999e-13
1.79592e-13
1.81178e-13
1.82758e-13
1.84334e-13
1.85907e-13
1.87478e-13
1.89049e-13
1.9062e-13
1.92192e-13
1.93766e-13
1.95341e-13
1.96917e-13
1.98493e-13
2.00066e-13
2.01635e-13
2.03199e-13
2.04757e-13
2.0631e-13
2.07863e-13
2.09423e-13
2.11002e-13
2.12619e-13
2.14298e-13
2.16072e-13
2.1798e-13
2.20067e-13
2.22379e-13
2.24951e-13
2.27789e-13
2.30849e-13
2.34002e-13
2.37006e-13
2.39545e-13
2.41356e-13
2.42394e-13
2.42854e-13
2.43021e-13
2.43111e-13
2.43226e-13
2.43647e-13
2.44017e-13
2.4438e-13
2.45069e-13
2.48843e-13
4.65712e-08
1.6366e-07
2.65079e-07
3.46315e-07
4.13018e-07
4.68849e-07
5.16142e-07
5.56473e-07
5.90954e-07
6.2039e-07
6.45385e-07
6.66427e-07
6.83955e-07
6.98405e-07
7.10228e-07
7.19885e-07
7.27796e-07
7.34307e-07
7.39685e-07
7.4413e-07
7.47802e-07
7.50822e-07
7.5329e-07
7.55286e-07
7.56876e-07
7.58115e-07
7.59048e-07
7.59713e-07
7.60143e-07
7.60367e-07
7.60409e-07
7.60289e-07
7.60026e-07
7.59637e-07
7.59135e-07
7.58535e-07
7.57847e-07
7.57081e-07
7.56248e-07
7.55355e-07
7.54411e-07
7.53423e-07
7.52398e-07
7.51342e-07
7.5026e-07
7.49159e-07
7.48042e-07
7.46916e-07
7.45784e-07
7.44652e-07
7.43522e-07
7.42399e-07
)
;
    }
    inandouthalf22
    {
        type            cyclic;
        value           nonuniform List<scalar> 
100
(
-1.73176e-13
-1.74792e-13
-1.76399e-13
-1.77999e-13
-1.79592e-13
-1.81178e-13
-1.82758e-13
-1.84334e-13
-1.85907e-13
-1.87478e-13
-1.89049e-13
-1.9062e-13
-1.92192e-13
-1.93766e-13
-1.95341e-13
-1.96917e-13
-1.98493e-13
-2.00066e-13
-2.01635e-13
-2.03199e-13
-2.04757e-13
-2.0631e-13
-2.07863e-13
-2.09423e-13
-2.11002e-13
-2.12619e-13
-2.14298e-13
-2.16072e-13
-2.1798e-13
-2.20067e-13
-2.22379e-13
-2.24951e-13
-2.27789e-13
-2.30849e-13
-2.34002e-13
-2.37006e-13
-2.39545e-13
-2.41356e-13
-2.42394e-13
-2.42854e-13
-2.43021e-13
-2.43111e-13
-2.43226e-13
-2.43647e-13
-2.44017e-13
-2.4438e-13
-2.45069e-13
-2.48843e-13
-4.65712e-08
-1.6366e-07
-2.65079e-07
-3.46315e-07
-4.13018e-07
-4.68849e-07
-5.16142e-07
-5.56473e-07
-5.90954e-07
-6.2039e-07
-6.45385e-07
-6.66427e-07
-6.83955e-07
-6.98405e-07
-7.10228e-07
-7.19885e-07
-7.27796e-07
-7.34307e-07
-7.39685e-07
-7.4413e-07
-7.47802e-07
-7.50822e-07
-7.5329e-07
-7.55286e-07
-7.56876e-07
-7.58115e-07
-7.59048e-07
-7.59713e-07
-7.60143e-07
-7.60367e-07
-7.60409e-07
-7.60289e-07
-7.60026e-07
-7.59637e-07
-7.59135e-07
-7.58535e-07
-7.57847e-07
-7.57081e-07
-7.56248e-07
-7.55355e-07
-7.54411e-07
-7.53423e-07
-7.52398e-07
-7.51342e-07
-7.5026e-07
-7.49159e-07
-7.48042e-07
-7.46916e-07
-7.45784e-07
-7.44652e-07
-7.43522e-07
-7.42399e-07
)
;
    }
    inandouthalf31
    {
        type            cyclic;
        value           nonuniform List<scalar> 
110
(
7.41289e-07
7.55203e-07
7.69369e-07
7.83794e-07
7.98485e-07
8.13448e-07
8.2869e-07
8.44219e-07
8.60042e-07
8.76168e-07
8.92605e-07
9.09362e-07
9.26448e-07
9.43872e-07
9.61643e-07
9.79772e-07
9.98267e-07
1.01714e-06
1.0364e-06
1.05605e-06
1.07611e-06
1.09659e-06
1.1175e-06
1.13885e-06
1.16065e-06
1.18292e-06
1.20566e-06
1.22889e-06
1.25263e-06
1.27689e-06
1.3017e-06
1.32706e-06
1.35302e-06
1.3796e-06
1.40684e-06
1.43476e-06
1.46312e-06
1.37928e-06
1.40024e-06
1.42129e-06
1.44267e-06
1.4644e-06
1.48651e-06
1.50902e-06
1.53207e-06
1.5555e-06
1.57974e-06
1.60445e-06
1.62995e-06
1.6563e-06
1.68339e-06
1.71184e-06
1.74068e-06
1.77407e-06
1.80639e-06
1.8392e-06
1.87379e-06
1.90979e-06
1.94733e-06
1.98638e-06
2.02686e-06
2.06886e-06
2.11231e-06
2.1572e-06
2.20349e-06
2.25116e-06
2.30017e-06
2.35049e-06
2.40208e-06
2.45489e-06
2.50888e-06
2.56399e-06
2.62014e-06
2.67725e-06
2.73519e-06
2.79381e-06
2.85229e-06
2.91054e-06
2.96963e-06
3.02991e-06
3.0914e-06
3.15415e-06
3.21817e-06
3.28349e-06
3.35014e-06
3.41814e-06
3.48752e-06
3.5583e-06
3.63053e-06
3.70422e-06
3.7794e-06
3.85612e-06
3.93439e-06
4.01424e-06
4.09572e-06
4.17885e-06
4.26367e-06
4.35021e-06
4.43851e-06
4.5286e-06
4.62052e-06
4.7143e-06
4.80999e-06
4.90762e-06
5.00723e-06
5.10887e-06
5.21256e-06
5.31837e-06
5.42631e-06
5.53645e-06
)
;
    }
    inandouthalf32
    {
        type            cyclic;
        value           nonuniform List<scalar> 
110
(
-7.41289e-07
-7.55203e-07
-7.69369e-07
-7.83794e-07
-7.98485e-07
-8.13448e-07
-8.2869e-07
-8.44219e-07
-8.60042e-07
-8.76168e-07
-8.92605e-07
-9.09362e-07
-9.26448e-07
-9.43872e-07
-9.61643e-07
-9.79772e-07
-9.98267e-07
-1.01714e-06
-1.0364e-06
-1.05605e-06
-1.07611e-06
-1.09659e-06
-1.1175e-06
-1.13885e-06
-1.16065e-06
-1.18292e-06
-1.20566e-06
-1.22889e-06
-1.25263e-06
-1.27689e-06
-1.3017e-06
-1.32706e-06
-1.35302e-06
-1.3796e-06
-1.40684e-06
-1.43476e-06
-1.46312e-06
-1.37928e-06
-1.40024e-06
-1.42129e-06
-1.44267e-06
-1.4644e-06
-1.48651e-06
-1.50902e-06
-1.53207e-06
-1.5555e-06
-1.57974e-06
-1.60445e-06
-1.62995e-06
-1.6563e-06
-1.68339e-06
-1.71184e-06
-1.74068e-06
-1.77407e-06
-1.80639e-06
-1.8392e-06
-1.87379e-06
-1.90979e-06
-1.94733e-06
-1.98638e-06
-2.02686e-06
-2.06886e-06
-2.11231e-06
-2.1572e-06
-2.20349e-06
-2.25116e-06
-2.30017e-06
-2.35049e-06
-2.40208e-06
-2.45489e-06
-2.50888e-06
-2.56399e-06
-2.62014e-06
-2.67725e-06
-2.73519e-06
-2.79381e-06
-2.85229e-06
-2.91054e-06
-2.96963e-06
-3.02991e-06
-3.0914e-06
-3.15415e-06
-3.21817e-06
-3.28349e-06
-3.35014e-06
-3.41814e-06
-3.48752e-06
-3.5583e-06
-3.63053e-06
-3.70422e-06
-3.7794e-06
-3.85612e-06
-3.93439e-06
-4.01424e-06
-4.09572e-06
-4.17885e-06
-4.26367e-06
-4.35021e-06
-4.43851e-06
-4.5286e-06
-4.62052e-06
-4.7143e-06
-4.80999e-06
-4.90762e-06
-5.00723e-06
-5.10887e-06
-5.21256e-06
-5.31837e-06
-5.42631e-06
-5.53645e-06
)
;
    }
    inandouthalf41
    {
        type            cyclic;
        value           nonuniform List<scalar> 
50
(
4.95569e-06
4.95569e-06
4.95569e-06
4.95569e-06
4.95569e-06
4.95569e-06
4.95569e-06
4.95569e-06
4.95569e-06
4.95569e-06
4.95569e-06
4.95569e-06
4.95569e-06
4.95569e-06
4.95569e-06
4.95569e-06
4.95569e-06
4.95569e-06
4.95569e-06
4.95569e-06
4.95569e-06
4.95569e-06
4.95569e-06
4.95569e-06
4.95569e-06
4.95569e-06
4.95569e-06
4.95569e-06
4.95569e-06
4.95569e-06
4.95569e-06
4.95569e-06
4.95569e-06
4.95569e-06
4.95569e-06
4.95569e-06
4.95569e-06
4.95569e-06
4.95569e-06
4.95569e-06
4.95569e-06
4.95569e-06
4.95569e-06
4.95569e-06
4.95569e-06
4.95569e-06
4.95569e-06
4.95568e-06
4.95554e-06
4.95216e-06
)
;
    }
    inandouthalf42
    {
        type            cyclic;
        value           nonuniform List<scalar> 
50
(
-4.95569e-06
-4.95569e-06
-4.95569e-06
-4.95569e-06
-4.95569e-06
-4.95569e-06
-4.95569e-06
-4.95569e-06
-4.95569e-06
-4.95569e-06
-4.95569e-06
-4.95569e-06
-4.95569e-06
-4.95569e-06
-4.95569e-06
-4.95569e-06
-4.95569e-06
-4.95569e-06
-4.95569e-06
-4.95569e-06
-4.95569e-06
-4.95569e-06
-4.95569e-06
-4.95569e-06
-4.95569e-06
-4.95569e-06
-4.95569e-06
-4.95569e-06
-4.95569e-06
-4.95569e-06
-4.95569e-06
-4.95569e-06
-4.95569e-06
-4.95569e-06
-4.95569e-06
-4.95569e-06
-4.95569e-06
-4.95569e-06
-4.95569e-06
-4.95569e-06
-4.95569e-06
-4.95569e-06
-4.95569e-06
-4.95569e-06
-4.95569e-06
-4.95569e-06
-4.95569e-06
-4.95568e-06
-4.95554e-06
-4.95216e-06
)
;
    }
    top
    {
        type            symmetryPlane;
        value           uniform 0;
    }
    walls
    {
        type            fixedValue;
        value           uniform 0;
    }
    frontAndBackPlanes
    {
        type            empty;
        value           nonuniform 0();
    }
}


// ************************************************************************* //
