/*--------------------------------*- C++ -*----------------------------------*\
| =========                 |                                                 |
| \\      /  F ield         | OpenFOAM: The Open Source CFD Toolbox           |
|  \\    /   O peration     | Version:  2.4.x                                 |
|   \\  /    A nd           | Web:      www.OpenFOAM.org                      |
|    \\/     M anipulation  |                                                 |
\*---------------------------------------------------------------------------*/
FoamFile
{
    version     2.0;
    format      ascii;
    class       surfaceScalarField;
    location    "11.35";
    object      phia_0;
}
// * * * * * * * * * * * * * * * * * * * * * * * * * * * * * * * * * * * * * //

dimensions      [0 3 -1 0 0 0 0];

internalField   nonuniform List<scalar> 
359
(
-1.37468e-14
-3.4387e-14
-5.3933e-14
-7.31974e-14
-9.33302e-14
-1.14137e-13
-1.3524e-13
-1.5649e-13
-1.77832e-13
-1.99225e-13
-2.20606e-13
-2.41891e-13
-2.63007e-13
-2.83886e-13
-3.04473e-13
-3.24725e-13
-3.44606e-13
-3.64092e-13
-3.83161e-13
-4.01809e-13
-4.20028e-13
-4.37826e-13
-4.55213e-13
-4.72202e-13
-4.88812e-13
-5.05064e-13
-5.20977e-13
-5.3658e-13
-5.51894e-13
-5.66945e-13
-5.81756e-13
-5.96355e-13
-6.10758e-13
-6.24997e-13
-6.39088e-13
-6.53053e-13
-6.66908e-13
-6.80676e-13
-6.94375e-13
-7.08012e-13
-7.21611e-13
-7.35181e-13
-7.48731e-13
-7.62277e-13
-7.75827e-13
-7.89389e-13
-8.02972e-13
-8.16576e-13
-8.30213e-13
-8.43891e-13
-8.57606e-13
-8.71367e-13
-8.85172e-13
-8.99028e-13
-9.12929e-13
-9.26885e-13
-9.40888e-13
-9.54942e-13
-9.69044e-13
-9.83186e-13
-9.97379e-13
-1.01161e-12
-1.02589e-12
-1.04021e-12
-1.05456e-12
-1.06894e-12
-1.08335e-12
-1.09779e-12
-1.11225e-12
-1.12672e-12
-1.1412e-12
-1.1557e-12
-1.1702e-12
-1.1847e-12
-1.1992e-12
-1.21369e-12
-1.22817e-12
-1.24263e-12
-1.25707e-12
-1.27148e-12
-1.28585e-12
-1.30018e-12
-1.31448e-12
-1.32873e-12
-1.34293e-12
-1.35707e-12
-1.37116e-12
-1.38518e-12
-1.39914e-12
-1.41301e-12
-1.4268e-12
-1.4405e-12
-1.45411e-12
-1.46763e-12
-1.48105e-12
-1.49437e-12
-1.50758e-12
-1.52068e-12
-1.53367e-12
-1.54654e-12
-1.55929e-12
-1.57192e-12
-1.58444e-12
-1.59683e-12
-1.60912e-12
-1.62129e-12
-1.63337e-12
-1.64534e-12
-1.65723e-12
-1.66904e-12
-1.68077e-12
-1.69243e-12
-1.70401e-12
-1.71553e-12
-1.72695e-12
-1.73828e-12
-1.7495e-12
-1.76059e-12
-1.77154e-12
-1.78232e-12
-1.79294e-12
-1.8034e-12
-1.81375e-12
-1.82402e-12
-1.83432e-12
-1.84476e-12
-1.85549e-12
-1.86671e-12
-1.87863e-12
-1.89146e-12
-1.90538e-12
-1.92039e-12
-1.93632e-12
-1.95262e-12
-1.96831e-12
-1.98201e-12
-1.99238e-12
-1.99891e-12
-2.00217e-12
-2.00344e-12
-2.00391e-12
-2.00387e-12
-2.00588e-12
-2.00711e-12
-2.008e-12
-2.00894e-12
-2.00804e-12
7.979e-11
3.40007e-09
6.19504e-09
7.9165e-09
9.31879e-09
1.0635e-08
1.19336e-08
1.32155e-08
1.44412e-08
1.55401e-08
1.64054e-08
1.68912e-08
1.67998e-08
1.58635e-08
1.37564e-08
1.02548e-08
5.54104e-09
1.8852e-10
-5.25795e-09
-1.04832e-08
-1.53438e-08
-1.97871e-08
-2.38092e-08
-2.74293e-08
-3.06754e-08
-3.35778e-08
-3.61663e-08
-3.84682e-08
-4.05089e-08
-4.23111e-08
-4.38954e-08
-4.52803e-08
-4.64825e-08
-4.75172e-08
-4.83983e-08
-4.91383e-08
-4.97488e-08
-5.02404e-08
-5.0623e-08
-5.09058e-08
-5.10971e-08
-5.12049e-08
-5.12368e-08
-5.11996e-08
-5.11001e-08
-5.09444e-08
-5.07384e-08
-5.04875e-08
-5.01971e-08
-4.98717e-08
-4.95159e-08
-4.91337e-08
-4.8729e-08
-4.8305e-08
-4.78557e-08
-4.73829e-08
-4.68884e-08
-4.63737e-08
-4.58406e-08
-4.52902e-08
-4.47241e-08
-4.41433e-08
-4.35488e-08
-4.29414e-08
-4.23218e-08
-4.16901e-08
-4.10464e-08
-4.03905e-08
-3.97219e-08
-3.90401e-08
-3.83447e-08
-3.76358e-08
-3.69135e-08
-3.61787e-08
-3.54325e-08
-3.46763e-08
-3.39115e-08
-3.314e-08
-3.23632e-08
-3.15827e-08
-3.07997e-08
-3.00152e-08
-2.9229e-08
-2.84402e-08
-2.76542e-08
-2.68612e-08
-2.61123e-08
-2.53832e-08
-2.4921e-08
-2.34098e-08
-2.10348e-08
-1.90364e-08
-1.69904e-08
-1.49114e-08
-1.28172e-08
-1.07271e-08
-8.63725e-09
-6.64547e-09
-4.55979e-09
-2.80643e-09
-7.64728e-10
6.48301e-10
1.96602e-09
2.37688e-09
4.79931e-09
-8.15674e-08
-1.53227e-07
-1.58464e-07
-1.58372e-07
-1.58345e-07
-1.58316e-07
-1.58293e-07
-1.58271e-07
-1.58252e-07
-1.58238e-07
-1.58227e-07
-1.58219e-07
-1.58213e-07
-1.58209e-07
-1.58206e-07
-1.58204e-07
-1.58203e-07
-1.58201e-07
-1.582e-07
-1.58197e-07
-1.58193e-07
-1.58187e-07
-1.58178e-07
-1.58156e-07
-1.58126e-07
-1.5812e-07
-1.5812e-07
-1.5812e-07
-1.5812e-07
-1.5812e-07
-1.5812e-07
-1.5812e-07
-1.5812e-07
-1.5812e-07
-1.5812e-07
-1.5812e-07
-1.5812e-07
-1.5812e-07
-1.5812e-07
-1.5812e-07
-1.5812e-07
-1.5812e-07
-1.5812e-07
-1.5812e-07
-1.5812e-07
-1.5812e-07
-1.5812e-07
-1.5812e-07
-1.5812e-07
-1.5812e-07
-1.5812e-07
-1.5812e-07
-1.5812e-07
-1.5812e-07
-1.5812e-07
-1.5812e-07
-1.5812e-07
-1.5812e-07
-1.5812e-07
-1.5812e-07
-1.5812e-07
-1.5812e-07
-1.5812e-07
-1.5812e-07
-1.5812e-07
-1.5812e-07
-1.5812e-07
-1.5812e-07
-1.5812e-07
-1.5812e-07
-1.5812e-07
-1.5812e-07
-1.5812e-07
-1.5812e-07
-1.5812e-07
-1.5812e-07
-1.5812e-07
-1.5812e-07
-1.5812e-07
-1.5812e-07
-1.5812e-07
-1.5812e-07
-1.5812e-07
-1.5812e-07
-1.5812e-07
-1.5812e-07
-1.5812e-07
-1.5812e-07
-1.5812e-07
-1.5812e-07
-1.5812e-07
-1.5812e-07
-1.5812e-07
-1.5812e-07
-1.5812e-07
-1.5812e-07
-1.5812e-07
-1.5812e-07
-1.5812e-07
-1.5812e-07
-1.5812e-07
-1.5812e-07
-1.5812e-07
-1.58119e-07
-1.58102e-07
-1.57395e-07
-1.32481e-07
)
;

boundaryField
{
    inandouthalf11
    {
        type            cyclic;
        value           nonuniform List<scalar> 
100
(
2.13376e-38
1.90278e-15
3.99415e-15
5.91796e-15
7.91665e-15
1.0027e-14
1.2191e-14
1.43783e-14
1.6582e-14
1.87982e-14
2.1021e-14
2.32426e-14
2.54547e-14
2.76499e-14
2.98214e-14
3.19642e-14
3.40739e-14
3.61471e-14
3.81815e-14
4.01753e-14
4.21278e-14
4.40388e-14
4.59092e-14
4.774e-14
4.95329e-14
5.12897e-14
5.30124e-14
5.47037e-14
5.63659e-14
5.80016e-14
5.96132e-14
6.12035e-14
6.27747e-14
6.43295e-14
6.58701e-14
6.73988e-14
6.89176e-14
7.04286e-14
7.19338e-14
7.34348e-14
7.49332e-14
7.64306e-14
7.79282e-14
7.94274e-14
8.09293e-14
8.24351e-14
8.39456e-14
8.54613e-14
8.69829e-14
8.85114e-14
9.00473e-14
9.15907e-14
9.31421e-14
9.47018e-14
9.62699e-14
9.78467e-14
9.94322e-14
1.01026e-13
1.02629e-13
1.0424e-13
1.05859e-13
1.07487e-13
1.09123e-13
1.10766e-13
1.12417e-13
1.14076e-13
1.15741e-13
1.17412e-13
1.1909e-13
1.20773e-13
1.22461e-13
1.24154e-13
1.25851e-13
1.27553e-13
1.29258e-13
1.30966e-13
1.32677e-13
1.3439e-13
1.36105e-13
1.3782e-13
1.39535e-13
1.41251e-13
1.42966e-13
1.4468e-13
1.46392e-13
1.48104e-13
1.49813e-13
1.51519e-13
1.53222e-13
1.5492e-13
1.56614e-13
1.58302e-13
1.59985e-13
1.61661e-13
1.63331e-13
1.64995e-13
1.66651e-13
1.683e-13
1.69941e-13
1.71574e-13
)
;
    }
    inandouthalf12
    {
        type            cyclic;
        value           nonuniform List<scalar> 
100
(
-2.13376e-38
-1.90278e-15
-3.99415e-15
-5.91796e-15
-7.91665e-15
-1.0027e-14
-1.2191e-14
-1.43783e-14
-1.6582e-14
-1.87982e-14
-2.1021e-14
-2.32426e-14
-2.54547e-14
-2.76499e-14
-2.98214e-14
-3.19642e-14
-3.40739e-14
-3.61471e-14
-3.81815e-14
-4.01753e-14
-4.21278e-14
-4.40388e-14
-4.59092e-14
-4.774e-14
-4.95329e-14
-5.12897e-14
-5.30124e-14
-5.47037e-14
-5.63659e-14
-5.80016e-14
-5.96132e-14
-6.12035e-14
-6.27747e-14
-6.43295e-14
-6.58701e-14
-6.73988e-14
-6.89176e-14
-7.04286e-14
-7.19338e-14
-7.34348e-14
-7.49332e-14
-7.64306e-14
-7.79282e-14
-7.94274e-14
-8.09293e-14
-8.24351e-14
-8.39456e-14
-8.54613e-14
-8.69829e-14
-8.85114e-14
-9.00473e-14
-9.15907e-14
-9.31421e-14
-9.47018e-14
-9.62699e-14
-9.78467e-14
-9.94322e-14
-1.01026e-13
-1.02629e-13
-1.0424e-13
-1.05859e-13
-1.07487e-13
-1.09123e-13
-1.10766e-13
-1.12417e-13
-1.14076e-13
-1.15741e-13
-1.17412e-13
-1.1909e-13
-1.20773e-13
-1.22461e-13
-1.24154e-13
-1.25851e-13
-1.27553e-13
-1.29258e-13
-1.30966e-13
-1.32677e-13
-1.3439e-13
-1.36105e-13
-1.3782e-13
-1.39535e-13
-1.41251e-13
-1.42966e-13
-1.4468e-13
-1.46392e-13
-1.48104e-13
-1.49813e-13
-1.51519e-13
-1.53222e-13
-1.5492e-13
-1.56614e-13
-1.58302e-13
-1.59985e-13
-1.61661e-13
-1.63331e-13
-1.64995e-13
-1.66651e-13
-1.683e-13
-1.69941e-13
-1.71574e-13
)
;
    }
    inandouthalf21
    {
        type            cyclic;
        value           nonuniform List<scalar> 
100
(
1.73199e-13
1.74815e-13
1.76423e-13
1.78023e-13
1.79616e-13
1.81202e-13
1.82783e-13
1.84359e-13
1.85932e-13
1.87503e-13
1.89074e-13
1.90645e-13
1.92217e-13
1.93792e-13
1.95367e-13
1.96943e-13
1.98519e-13
2.00093e-13
2.01662e-13
2.03226e-13
2.04784e-13
2.06338e-13
2.07891e-13
2.09451e-13
2.11031e-13
2.12648e-13
2.14327e-13
2.16101e-13
2.1801e-13
2.20097e-13
2.2241e-13
2.24983e-13
2.27822e-13
2.30884e-13
2.34038e-13
2.37043e-13
2.39583e-13
2.41394e-13
2.42432e-13
2.42892e-13
2.4306e-13
2.43149e-13
2.43265e-13
2.43686e-13
2.44057e-13
2.4442e-13
2.45109e-13
2.48885e-13
4.65291e-08
1.63607e-07
2.65039e-07
3.46283e-07
4.1299e-07
4.68823e-07
5.16116e-07
5.56446e-07
5.90925e-07
6.20357e-07
6.45348e-07
6.66385e-07
6.83907e-07
6.98351e-07
7.10169e-07
7.1982e-07
7.27727e-07
7.34234e-07
7.39608e-07
7.44051e-07
7.47719e-07
7.50737e-07
7.53203e-07
7.55197e-07
7.56786e-07
7.58022e-07
7.58953e-07
7.59617e-07
7.60046e-07
7.60269e-07
7.60309e-07
7.60188e-07
7.59924e-07
7.59534e-07
7.59031e-07
7.5843e-07
7.57741e-07
7.56974e-07
7.5614e-07
7.55247e-07
7.54302e-07
7.53313e-07
7.52287e-07
7.5123e-07
7.50148e-07
7.49046e-07
7.47929e-07
7.46802e-07
7.4567e-07
7.44536e-07
7.43406e-07
7.42282e-07
)
;
    }
    inandouthalf22
    {
        type            cyclic;
        value           nonuniform List<scalar> 
100
(
-1.73199e-13
-1.74815e-13
-1.76423e-13
-1.78023e-13
-1.79616e-13
-1.81202e-13
-1.82783e-13
-1.84359e-13
-1.85932e-13
-1.87503e-13
-1.89074e-13
-1.90645e-13
-1.92217e-13
-1.93792e-13
-1.95367e-13
-1.96943e-13
-1.98519e-13
-2.00093e-13
-2.01662e-13
-2.03226e-13
-2.04784e-13
-2.06338e-13
-2.07891e-13
-2.09451e-13
-2.11031e-13
-2.12648e-13
-2.14327e-13
-2.16101e-13
-2.1801e-13
-2.20097e-13
-2.2241e-13
-2.24983e-13
-2.27822e-13
-2.30884e-13
-2.34038e-13
-2.37043e-13
-2.39583e-13
-2.41394e-13
-2.42432e-13
-2.42892e-13
-2.4306e-13
-2.43149e-13
-2.43265e-13
-2.43686e-13
-2.44057e-13
-2.4442e-13
-2.45109e-13
-2.48885e-13
-4.65291e-08
-1.63607e-07
-2.65039e-07
-3.46283e-07
-4.1299e-07
-4.68823e-07
-5.16116e-07
-5.56446e-07
-5.90925e-07
-6.20357e-07
-6.45348e-07
-6.66385e-07
-6.83907e-07
-6.98351e-07
-7.10169e-07
-7.1982e-07
-7.27727e-07
-7.34234e-07
-7.39608e-07
-7.44051e-07
-7.47719e-07
-7.50737e-07
-7.53203e-07
-7.55197e-07
-7.56786e-07
-7.58022e-07
-7.58953e-07
-7.59617e-07
-7.60046e-07
-7.60269e-07
-7.60309e-07
-7.60188e-07
-7.59924e-07
-7.59534e-07
-7.59031e-07
-7.5843e-07
-7.57741e-07
-7.56974e-07
-7.5614e-07
-7.55247e-07
-7.54302e-07
-7.53313e-07
-7.52287e-07
-7.5123e-07
-7.50148e-07
-7.49046e-07
-7.47929e-07
-7.46802e-07
-7.4567e-07
-7.44536e-07
-7.43406e-07
-7.42282e-07
)
;
    }
    inandouthalf31
    {
        type            cyclic;
        value           nonuniform List<scalar> 
110
(
7.41172e-07
7.55083e-07
7.69246e-07
7.83669e-07
7.98356e-07
8.13316e-07
8.28554e-07
8.4408e-07
8.599e-07
8.76023e-07
8.92456e-07
9.0921e-07
9.26292e-07
9.43712e-07
9.6148e-07
9.79604e-07
9.98095e-07
1.01696e-06
1.03622e-06
1.05587e-06
1.07592e-06
1.0964e-06
1.1173e-06
1.13865e-06
1.16044e-06
1.18271e-06
1.20544e-06
1.22867e-06
1.25241e-06
1.27667e-06
1.30146e-06
1.32683e-06
1.35278e-06
1.37935e-06
1.40659e-06
1.4345e-06
1.46286e-06
1.379e-06
1.39995e-06
1.421e-06
1.44237e-06
1.46409e-06
1.4862e-06
1.50869e-06
1.53174e-06
1.55517e-06
1.5794e-06
1.6041e-06
1.62959e-06
1.65594e-06
1.68303e-06
1.71147e-06
1.7403e-06
1.77369e-06
1.80599e-06
1.8388e-06
1.87338e-06
1.90938e-06
1.94691e-06
1.98596e-06
2.02643e-06
2.06842e-06
2.11187e-06
2.15675e-06
2.20303e-06
2.25069e-06
2.29969e-06
2.35e-06
2.40158e-06
2.45438e-06
2.50836e-06
2.56346e-06
2.6196e-06
2.6767e-06
2.73462e-06
2.79323e-06
2.8517e-06
2.90994e-06
2.96902e-06
3.02928e-06
3.09077e-06
3.1535e-06
3.21751e-06
3.28281e-06
3.34945e-06
3.41743e-06
3.4868e-06
3.55757e-06
3.62978e-06
3.70345e-06
3.77862e-06
3.85532e-06
3.93357e-06
4.01341e-06
4.09487e-06
4.17799e-06
4.26279e-06
4.34931e-06
4.43759e-06
4.52767e-06
4.61956e-06
4.71333e-06
4.809e-06
4.90661e-06
5.0062e-06
5.10781e-06
5.21149e-06
5.31727e-06
5.42519e-06
5.53531e-06
)
;
    }
    inandouthalf32
    {
        type            cyclic;
        value           nonuniform List<scalar> 
110
(
-7.41172e-07
-7.55083e-07
-7.69246e-07
-7.83669e-07
-7.98356e-07
-8.13316e-07
-8.28554e-07
-8.4408e-07
-8.599e-07
-8.76023e-07
-8.92456e-07
-9.0921e-07
-9.26292e-07
-9.43712e-07
-9.6148e-07
-9.79604e-07
-9.98095e-07
-1.01696e-06
-1.03622e-06
-1.05587e-06
-1.07592e-06
-1.0964e-06
-1.1173e-06
-1.13865e-06
-1.16044e-06
-1.18271e-06
-1.20544e-06
-1.22867e-06
-1.25241e-06
-1.27667e-06
-1.30146e-06
-1.32683e-06
-1.35278e-06
-1.37935e-06
-1.40659e-06
-1.4345e-06
-1.46286e-06
-1.379e-06
-1.39995e-06
-1.421e-06
-1.44237e-06
-1.46409e-06
-1.4862e-06
-1.50869e-06
-1.53174e-06
-1.55517e-06
-1.5794e-06
-1.6041e-06
-1.62959e-06
-1.65594e-06
-1.68303e-06
-1.71147e-06
-1.7403e-06
-1.77369e-06
-1.80599e-06
-1.8388e-06
-1.87338e-06
-1.90938e-06
-1.94691e-06
-1.98596e-06
-2.02643e-06
-2.06842e-06
-2.11187e-06
-2.15675e-06
-2.20303e-06
-2.25069e-06
-2.29969e-06
-2.35e-06
-2.40158e-06
-2.45438e-06
-2.50836e-06
-2.56346e-06
-2.6196e-06
-2.6767e-06
-2.73462e-06
-2.79323e-06
-2.8517e-06
-2.90994e-06
-2.96902e-06
-3.02928e-06
-3.09077e-06
-3.1535e-06
-3.21751e-06
-3.28281e-06
-3.34945e-06
-3.41743e-06
-3.4868e-06
-3.55757e-06
-3.62978e-06
-3.70345e-06
-3.77862e-06
-3.85532e-06
-3.93357e-06
-4.01341e-06
-4.09487e-06
-4.17799e-06
-4.26279e-06
-4.34931e-06
-4.43759e-06
-4.52767e-06
-4.61956e-06
-4.71333e-06
-4.809e-06
-4.90661e-06
-5.0062e-06
-5.10781e-06
-5.21149e-06
-5.31727e-06
-5.42519e-06
-5.53531e-06
)
;
    }
    inandouthalf41
    {
        type            cyclic;
        value           nonuniform List<scalar> 
50
(
4.95467e-06
4.95467e-06
4.95467e-06
4.95467e-06
4.95467e-06
4.95467e-06
4.95467e-06
4.95467e-06
4.95467e-06
4.95467e-06
4.95467e-06
4.95467e-06
4.95467e-06
4.95467e-06
4.95467e-06
4.95467e-06
4.95467e-06
4.95467e-06
4.95467e-06
4.95467e-06
4.95467e-06
4.95467e-06
4.95467e-06
4.95467e-06
4.95467e-06
4.95467e-06
4.95467e-06
4.95467e-06
4.95467e-06
4.95467e-06
4.95467e-06
4.95467e-06
4.95467e-06
4.95467e-06
4.95467e-06
4.95467e-06
4.95467e-06
4.95467e-06
4.95467e-06
4.95467e-06
4.95467e-06
4.95467e-06
4.95467e-06
4.95467e-06
4.95467e-06
4.95467e-06
4.95467e-06
4.95466e-06
4.95451e-06
4.95114e-06
)
;
    }
    inandouthalf42
    {
        type            cyclic;
        value           nonuniform List<scalar> 
50
(
-4.95467e-06
-4.95467e-06
-4.95467e-06
-4.95467e-06
-4.95467e-06
-4.95467e-06
-4.95467e-06
-4.95467e-06
-4.95467e-06
-4.95467e-06
-4.95467e-06
-4.95467e-06
-4.95467e-06
-4.95467e-06
-4.95467e-06
-4.95467e-06
-4.95467e-06
-4.95467e-06
-4.95467e-06
-4.95467e-06
-4.95467e-06
-4.95467e-06
-4.95467e-06
-4.95467e-06
-4.95467e-06
-4.95467e-06
-4.95467e-06
-4.95467e-06
-4.95467e-06
-4.95467e-06
-4.95467e-06
-4.95467e-06
-4.95467e-06
-4.95467e-06
-4.95467e-06
-4.95467e-06
-4.95467e-06
-4.95467e-06
-4.95467e-06
-4.95467e-06
-4.95467e-06
-4.95467e-06
-4.95467e-06
-4.95467e-06
-4.95467e-06
-4.95467e-06
-4.95467e-06
-4.95466e-06
-4.95451e-06
-4.95114e-06
)
;
    }
    top
    {
        type            symmetryPlane;
        value           uniform 0;
    }
    walls
    {
        type            fixedValue;
        value           uniform 0;
    }
    frontAndBackPlanes
    {
        type            empty;
        value           nonuniform 0();
    }
}


// ************************************************************************* //
