/*--------------------------------*- C++ -*----------------------------------*\
| =========                 |                                                 |
| \\      /  F ield         | OpenFOAM: The Open Source CFD Toolbox           |
|  \\    /   O peration     | Version:  2.4.x                                 |
|   \\  /    A nd           | Web:      www.OpenFOAM.org                      |
|    \\/     M anipulation  |                                                 |
\*---------------------------------------------------------------------------*/
FoamFile
{
    version     2.0;
    format      ascii;
    class       surfaceScalarField;
    location    "11.35";
    object      phib_0;
}
// * * * * * * * * * * * * * * * * * * * * * * * * * * * * * * * * * * * * * //

dimensions      [0 3 -1 0 0 0 0];

internalField   nonuniform List<scalar> 
359
(
2.16221e-14
5.41955e-14
8.50008e-14
1.1533e-13
1.47034e-13
1.79803e-13
2.13029e-13
2.46478e-13
2.80066e-13
3.13728e-13
3.47362e-13
3.80841e-13
4.14047e-13
4.46872e-13
4.7923e-13
5.11053e-13
5.42288e-13
5.72892e-13
6.02835e-13
6.32108e-13
6.60699e-13
6.88622e-13
7.1589e-13
7.42528e-13
7.68562e-13
7.94026e-13
8.18952e-13
8.43382e-13
8.67354e-13
8.90904e-13
9.14071e-13
9.36897e-13
9.59411e-13
9.8166e-13
1.00367e-12
1.02547e-12
1.0471e-12
1.06858e-12
1.08995e-12
1.11121e-12
1.1324e-12
1.15355e-12
1.17465e-12
1.19574e-12
1.21683e-12
1.23793e-12
1.25905e-12
1.2802e-12
1.3014e-12
1.32264e-12
1.34394e-12
1.3653e-12
1.38673e-12
1.40822e-12
1.42977e-12
1.4514e-12
1.4731e-12
1.49486e-12
1.51669e-12
1.53857e-12
1.56053e-12
1.58253e-12
1.60459e-12
1.6267e-12
1.64886e-12
1.67105e-12
1.69328e-12
1.71553e-12
1.7378e-12
1.76008e-12
1.78237e-12
1.80466e-12
1.82694e-12
1.84922e-12
1.87147e-12
1.8937e-12
1.9159e-12
1.93805e-12
1.96014e-12
1.98218e-12
2.00414e-12
2.02603e-12
2.04784e-12
2.06955e-12
2.09118e-12
2.1127e-12
2.13412e-12
2.15541e-12
2.17657e-12
2.19759e-12
2.21845e-12
2.23916e-12
2.25971e-12
2.28009e-12
2.30029e-12
2.3203e-12
2.34013e-12
2.35976e-12
2.37919e-12
2.39841e-12
2.41742e-12
2.43621e-12
2.45479e-12
2.47316e-12
2.49132e-12
2.50928e-12
2.52705e-12
2.54464e-12
2.56205e-12
2.5793e-12
2.59639e-12
2.61333e-12
2.63011e-12
2.64674e-12
2.66319e-12
2.67944e-12
2.69548e-12
2.71126e-12
2.72676e-12
2.74196e-12
2.75684e-12
2.77143e-12
2.78577e-12
2.79994e-12
2.81406e-12
2.82832e-12
2.84296e-12
2.85824e-12
2.87451e-12
2.89207e-12
2.91117e-12
2.93183e-12
2.95373e-12
2.97602e-12
2.99717e-12
3.01507e-12
3.02772e-12
3.0342e-12
3.03529e-12
3.03294e-12
3.02885e-12
3.00835e-12
2.99626e-12
2.99753e-12
2.99035e-12
2.98147e-12
2.95101e-12
-7.72758e-11
-1.58466e-09
-1.70877e-09
-1.60103e-09
-1.43492e-09
-1.24561e-09
-1.05063e-09
-8.62014e-10
-6.88159e-10
-5.34286e-10
-4.02665e-10
-2.93451e-10
-2.05242e-10
-1.35668e-10
-8.2256e-11
-4.31858e-11
-1.68169e-11
-4.28462e-13
9.34385e-12
1.51287e-11
1.85334e-11
2.04801e-11
2.15082e-11
2.19419e-11
2.19828e-11
2.17599e-11
2.13581e-11
2.08349e-11
2.02298e-11
1.95708e-11
1.88779e-11
1.81655e-11
1.74443e-11
1.67221e-11
1.60047e-11
1.52965e-11
1.46008e-11
1.392e-11
1.32557e-11
1.26095e-11
1.19821e-11
1.13742e-11
1.07863e-11
1.02186e-11
9.67116e-12
9.14406e-12
8.63723e-12
8.15051e-12
7.68373e-12
7.23666e-12
6.809e-12
6.40046e-12
6.01065e-12
5.6392e-12
5.27866e-12
4.92951e-12
4.59215e-12
4.26694e-12
3.95417e-12
3.6541e-12
3.36691e-12
3.09276e-12
2.83179e-12
2.58411e-12
2.3498e-12
2.12896e-12
1.92163e-12
1.72783e-12
1.54753e-12
1.38058e-12
1.22676e-12
1.08571e-12
9.56979e-13
8.39999e-13
7.3414e-13
6.3872e-13
5.53042e-13
4.76416e-13
4.08182e-13
3.47708e-13
2.94395e-13
2.47699e-13
2.07061e-13
1.71865e-13
1.4165e-13
1.15031e-13
9.09488e-14
6.7998e-14
5.09004e-14
3.95589e-14
2.97838e-14
2.19014e-14
1.56814e-14
1.0888e-14
7.29225e-15
4.67794e-15
2.83231e-15
1.6115e-15
7.98691e-16
3.5245e-16
7.59238e-17
-2.04654e-17
-4.9789e-17
-2.86516e-17
-2.57678e-17
9.0713e-17
1.10182e-17
1.04736e-17
9.94098e-18
9.38275e-18
8.83686e-18
8.27304e-18
7.72256e-18
7.17124e-18
6.64308e-18
6.13458e-18
5.67013e-18
5.25233e-18
4.88354e-18
4.55091e-18
4.25121e-18
3.97773e-18
3.72371e-18
3.4853e-18
3.26318e-18
3.0599e-18
2.87184e-18
2.69157e-18
2.51545e-18
2.34478e-18
2.17692e-18
2.01213e-18
1.85349e-18
1.70124e-18
1.55921e-18
1.42267e-18
1.29588e-18
1.16745e-18
1.05239e-18
9.60488e-19
8.59038e-19
7.44673e-19
6.43e-19
5.43741e-19
4.63603e-19
3.74106e-19
3.03234e-19
2.36163e-19
1.93359e-19
1.27758e-19
9.72955e-20
6.9623e-20
6.44001e-20
4.23698e-20
3.07761e-20
2.02767e-20
1.76562e-20
3.21277e-21
-2.35002e-21
-7.3131e-21
-2.24497e-21
-4.15245e-21
3.74878e-21
1.07236e-20
2.19062e-20
2.57245e-20
3.14329e-20
3.71479e-20
4.58117e-20
5.33308e-20
6.16291e-20
7.09804e-20
8.20935e-20
9.6704e-20
1.08963e-19
1.22701e-19
1.33974e-19
1.50077e-19
1.68833e-19
2.04153e-19
3.37152e-19
4.53244e-19
6.53587e-19
8.68043e-19
1.05134e-18
1.27675e-18
1.43253e-18
1.59331e-18
1.67979e-18
1.92408e-18
2.05048e-18
2.1773e-18
2.12628e-18
2.22667e-18
2.09335e-18
1.9772e-18
1.68295e-18
1.81274e-18
1.67001e-18
1.52852e-18
9.54596e-19
6.48055e-19
-1.26061e-19
-9.47788e-19
-2.04026e-18
-3.39513e-18
-4.83446e-18
-6.35265e-18
-7.41622e-18
-1.01389e-17
-1.04254e-17
-9.77155e-18
)
;

boundaryField
{
    inandouthalf11
    {
        type            cyclic;
        value           nonuniform List<scalar> 
100
(
1.35312e-10
1.34558e-10
1.34458e-10
1.34562e-10
1.34612e-10
1.34629e-10
1.34651e-10
1.34678e-10
1.34706e-10
1.34734e-10
1.34762e-10
1.3479e-10
1.34819e-10
1.34848e-10
1.34877e-10
1.34906e-10
1.34935e-10
1.34965e-10
1.34995e-10
1.35025e-10
1.35056e-10
1.35086e-10
1.35117e-10
1.35148e-10
1.3518e-10
1.35212e-10
1.35244e-10
1.35276e-10
1.35309e-10
1.35341e-10
1.35375e-10
1.35408e-10
1.35442e-10
1.35476e-10
1.35511e-10
1.35546e-10
1.35581e-10
1.35616e-10
1.35653e-10
1.35689e-10
1.35726e-10
1.35763e-10
1.358e-10
1.35839e-10
1.35877e-10
1.35916e-10
1.35955e-10
1.35995e-10
1.36035e-10
1.36076e-10
1.36117e-10
1.36159e-10
1.36201e-10
1.36244e-10
1.36287e-10
1.36331e-10
1.36375e-10
1.3642e-10
1.36466e-10
1.36512e-10
1.36559e-10
1.36606e-10
1.36654e-10
1.36702e-10
1.36752e-10
1.36801e-10
1.36852e-10
1.36903e-10
1.36955e-10
1.37007e-10
1.37061e-10
1.37115e-10
1.3717e-10
1.37226e-10
1.37282e-10
1.3734e-10
1.37398e-10
1.37457e-10
1.37517e-10
1.37578e-10
1.3764e-10
1.37703e-10
1.37767e-10
1.37832e-10
1.37898e-10
1.37965e-10
1.38033e-10
1.38103e-10
1.38173e-10
1.38245e-10
1.38318e-10
1.38393e-10
1.38469e-10
1.38546e-10
1.38625e-10
1.38705e-10
1.38787e-10
1.38871e-10
1.38956e-10
1.39044e-10
)
;
    }
    inandouthalf12
    {
        type            cyclic;
        value           nonuniform List<scalar> 
100
(
-1.35312e-10
-1.34558e-10
-1.34458e-10
-1.34562e-10
-1.34612e-10
-1.34629e-10
-1.34651e-10
-1.34678e-10
-1.34706e-10
-1.34734e-10
-1.34762e-10
-1.3479e-10
-1.34819e-10
-1.34848e-10
-1.34877e-10
-1.34906e-10
-1.34935e-10
-1.34965e-10
-1.34995e-10
-1.35025e-10
-1.35056e-10
-1.35086e-10
-1.35117e-10
-1.35148e-10
-1.3518e-10
-1.35212e-10
-1.35244e-10
-1.35276e-10
-1.35309e-10
-1.35341e-10
-1.35375e-10
-1.35408e-10
-1.35442e-10
-1.35476e-10
-1.35511e-10
-1.35546e-10
-1.35581e-10
-1.35616e-10
-1.35653e-10
-1.35689e-10
-1.35726e-10
-1.35763e-10
-1.358e-10
-1.35839e-10
-1.35877e-10
-1.35916e-10
-1.35955e-10
-1.35995e-10
-1.36035e-10
-1.36076e-10
-1.36117e-10
-1.36159e-10
-1.36201e-10
-1.36244e-10
-1.36287e-10
-1.36331e-10
-1.36375e-10
-1.3642e-10
-1.36466e-10
-1.36512e-10
-1.36559e-10
-1.36606e-10
-1.36654e-10
-1.36702e-10
-1.36752e-10
-1.36801e-10
-1.36852e-10
-1.36903e-10
-1.36955e-10
-1.37007e-10
-1.37061e-10
-1.37115e-10
-1.3717e-10
-1.37226e-10
-1.37282e-10
-1.3734e-10
-1.37398e-10
-1.37457e-10
-1.37517e-10
-1.37578e-10
-1.3764e-10
-1.37703e-10
-1.37767e-10
-1.37832e-10
-1.37898e-10
-1.37965e-10
-1.38033e-10
-1.38103e-10
-1.38173e-10
-1.38245e-10
-1.38318e-10
-1.38393e-10
-1.38469e-10
-1.38546e-10
-1.38625e-10
-1.38705e-10
-1.38787e-10
-1.38871e-10
-1.38956e-10
-1.39044e-10
)
;
    }
    inandouthalf21
    {
        type            cyclic;
        value           nonuniform List<scalar> 
100
(
1.39132e-10
1.39223e-10
1.39316e-10
1.39411e-10
1.39508e-10
1.39607e-10
1.39709e-10
1.39813e-10
1.3992e-10
1.40029e-10
1.40141e-10
1.40255e-10
1.40373e-10
1.40494e-10
1.40618e-10
1.40746e-10
1.40877e-10
1.41012e-10
1.41151e-10
1.41295e-10
1.41442e-10
1.41595e-10
1.41752e-10
1.41915e-10
1.42083e-10
1.42257e-10
1.42437e-10
1.42625e-10
1.4282e-10
1.43023e-10
1.43234e-10
1.43455e-10
1.43686e-10
1.43929e-10
1.44189e-10
1.44466e-10
1.44759e-10
1.45071e-10
1.45416e-10
1.45811e-10
1.46236e-10
1.4674e-10
1.50237e-10
1.49716e-10
1.50358e-10
1.51424e-10
1.526e-10
3.11338e-10
5.19584e-08
1.77486e-07
2.77425e-07
3.56875e-07
4.22497e-07
4.77821e-07
5.25118e-07
5.65956e-07
6.01455e-07
6.32419e-07
6.5942e-07
6.82854e-07
7.02999e-07
7.20066e-07
7.34252e-07
7.45791e-07
7.54977e-07
7.62153e-07
7.67676e-07
7.71878e-07
7.75044e-07
7.77404e-07
7.79136e-07
7.80376e-07
7.81223e-07
7.81755e-07
7.8203e-07
7.8209e-07
7.81969e-07
7.81694e-07
7.81285e-07
7.80759e-07
7.80129e-07
7.79407e-07
7.786e-07
7.77718e-07
7.76767e-07
7.75752e-07
7.74679e-07
7.73551e-07
7.72374e-07
7.71149e-07
7.69882e-07
7.68574e-07
7.67229e-07
7.65848e-07
7.64434e-07
7.6299e-07
7.61517e-07
7.60017e-07
7.58492e-07
7.56944e-07
)
;
    }
    inandouthalf22
    {
        type            cyclic;
        value           nonuniform List<scalar> 
100
(
-1.39132e-10
-1.39223e-10
-1.39316e-10
-1.39411e-10
-1.39508e-10
-1.39607e-10
-1.39709e-10
-1.39813e-10
-1.3992e-10
-1.40029e-10
-1.40141e-10
-1.40255e-10
-1.40373e-10
-1.40494e-10
-1.40618e-10
-1.40746e-10
-1.40877e-10
-1.41012e-10
-1.41151e-10
-1.41295e-10
-1.41442e-10
-1.41595e-10
-1.41752e-10
-1.41915e-10
-1.42083e-10
-1.42257e-10
-1.42437e-10
-1.42625e-10
-1.4282e-10
-1.43023e-10
-1.43234e-10
-1.43455e-10
-1.43686e-10
-1.43929e-10
-1.44189e-10
-1.44466e-10
-1.44759e-10
-1.45071e-10
-1.45416e-10
-1.45811e-10
-1.46236e-10
-1.4674e-10
-1.50237e-10
-1.49716e-10
-1.50358e-10
-1.51424e-10
-1.526e-10
-3.11338e-10
-5.19584e-08
-1.77486e-07
-2.77425e-07
-3.56875e-07
-4.22497e-07
-4.77821e-07
-5.25118e-07
-5.65956e-07
-6.01455e-07
-6.32419e-07
-6.5942e-07
-6.82854e-07
-7.02999e-07
-7.20066e-07
-7.34252e-07
-7.45791e-07
-7.54977e-07
-7.62153e-07
-7.67676e-07
-7.71878e-07
-7.75044e-07
-7.77404e-07
-7.79136e-07
-7.80376e-07
-7.81223e-07
-7.81755e-07
-7.8203e-07
-7.8209e-07
-7.81969e-07
-7.81694e-07
-7.81285e-07
-7.80759e-07
-7.80129e-07
-7.79407e-07
-7.786e-07
-7.77718e-07
-7.76767e-07
-7.75752e-07
-7.74679e-07
-7.73551e-07
-7.72374e-07
-7.71149e-07
-7.69882e-07
-7.68574e-07
-7.67229e-07
-7.65848e-07
-7.64434e-07
-7.6299e-07
-7.61517e-07
-7.60017e-07
-7.58492e-07
-7.56944e-07
)
;
    }
    inandouthalf31
    {
        type            cyclic;
        value           nonuniform List<scalar> 
110
(
7.55377e-07
7.69069e-07
7.82952e-07
7.97025e-07
8.11288e-07
8.25741e-07
8.40384e-07
8.55218e-07
8.70241e-07
8.85454e-07
9.00856e-07
9.16447e-07
9.32226e-07
9.48193e-07
9.64348e-07
9.80689e-07
9.97217e-07
1.01393e-06
1.03083e-06
1.04791e-06
1.06518e-06
1.08263e-06
1.10027e-06
1.11808e-06
1.13609e-06
1.15428e-06
1.17265e-06
1.19122e-06
1.20997e-06
1.22892e-06
1.24806e-06
1.2674e-06
1.28695e-06
1.30671e-06
1.3267e-06
1.34691e-06
1.36737e-06
1.38809e-06
1.40909e-06
1.43038e-06
1.45199e-06
1.47395e-06
1.49629e-06
1.51904e-06
1.54226e-06
1.56599e-06
1.59029e-06
1.61522e-06
1.64086e-06
1.66729e-06
1.6946e-06
1.72287e-06
1.75222e-06
1.78273e-06
1.8145e-06
1.84762e-06
1.88216e-06
1.91816e-06
1.95566e-06
1.99468e-06
2.03521e-06
2.07724e-06
2.12075e-06
2.16571e-06
2.21209e-06
2.25987e-06
2.30901e-06
2.35947e-06
2.41121e-06
2.46421e-06
2.51839e-06
2.57371e-06
2.6301e-06
2.68746e-06
2.74568e-06
2.80458e-06
2.86359e-06
2.92215e-06
2.98148e-06
3.042e-06
3.10374e-06
3.16674e-06
3.23102e-06
3.2966e-06
3.36351e-06
3.43178e-06
3.50144e-06
3.57251e-06
3.64502e-06
3.719e-06
3.79449e-06
3.87151e-06
3.95009e-06
4.03027e-06
4.11207e-06
4.19553e-06
4.28069e-06
4.36758e-06
4.45623e-06
4.54668e-06
4.63896e-06
4.73312e-06
4.82919e-06
4.92721e-06
5.02722e-06
5.12926e-06
5.23337e-06
5.33959e-06
5.44797e-06
5.55855e-06
)
;
    }
    inandouthalf32
    {
        type            cyclic;
        value           nonuniform List<scalar> 
110
(
-7.55377e-07
-7.69069e-07
-7.82952e-07
-7.97025e-07
-8.11288e-07
-8.25741e-07
-8.40384e-07
-8.55218e-07
-8.70241e-07
-8.85454e-07
-9.00856e-07
-9.16447e-07
-9.32226e-07
-9.48193e-07
-9.64348e-07
-9.80689e-07
-9.97217e-07
-1.01393e-06
-1.03083e-06
-1.04791e-06
-1.06518e-06
-1.08263e-06
-1.10027e-06
-1.11808e-06
-1.13609e-06
-1.15428e-06
-1.17265e-06
-1.19122e-06
-1.20997e-06
-1.22892e-06
-1.24806e-06
-1.2674e-06
-1.28695e-06
-1.30671e-06
-1.3267e-06
-1.34691e-06
-1.36737e-06
-1.38809e-06
-1.40909e-06
-1.43038e-06
-1.45199e-06
-1.47395e-06
-1.49629e-06
-1.51904e-06
-1.54226e-06
-1.56599e-06
-1.59029e-06
-1.61522e-06
-1.64086e-06
-1.66729e-06
-1.6946e-06
-1.72287e-06
-1.75222e-06
-1.78273e-06
-1.8145e-06
-1.84762e-06
-1.88216e-06
-1.91816e-06
-1.95566e-06
-1.99468e-06
-2.03521e-06
-2.07724e-06
-2.12075e-06
-2.16571e-06
-2.21209e-06
-2.25987e-06
-2.30901e-06
-2.35947e-06
-2.41121e-06
-2.46421e-06
-2.51839e-06
-2.57371e-06
-2.6301e-06
-2.68746e-06
-2.74568e-06
-2.80458e-06
-2.86359e-06
-2.92215e-06
-2.98148e-06
-3.042e-06
-3.10374e-06
-3.16674e-06
-3.23102e-06
-3.2966e-06
-3.36351e-06
-3.43178e-06
-3.50144e-06
-3.57251e-06
-3.64502e-06
-3.719e-06
-3.79449e-06
-3.87151e-06
-3.95009e-06
-4.03027e-06
-4.11207e-06
-4.19553e-06
-4.28069e-06
-4.36758e-06
-4.45623e-06
-4.54668e-06
-4.63896e-06
-4.73312e-06
-4.82919e-06
-4.92721e-06
-5.02722e-06
-5.12926e-06
-5.23337e-06
-5.33959e-06
-5.44797e-06
-5.55855e-06
)
;
    }
    inandouthalf41
    {
        type            cyclic;
        value           nonuniform List<scalar> 
50
(
4.97547e-06
4.97547e-06
4.97547e-06
4.97547e-06
4.97547e-06
4.97547e-06
4.97547e-06
4.97547e-06
4.97547e-06
4.97547e-06
4.97547e-06
4.97547e-06
4.97547e-06
4.97547e-06
4.97547e-06
4.97547e-06
4.97547e-06
4.97547e-06
4.97547e-06
4.97547e-06
4.97547e-06
4.97547e-06
4.97547e-06
4.97547e-06
4.97547e-06
4.97547e-06
4.97547e-06
4.97547e-06
4.97547e-06
4.97547e-06
4.97547e-06
4.97547e-06
4.97547e-06
4.97547e-06
4.97547e-06
4.97547e-06
4.97547e-06
4.97547e-06
4.97547e-06
4.97547e-06
4.97547e-06
4.97547e-06
4.97547e-06
4.97547e-06
4.97547e-06
4.97547e-06
4.97547e-06
4.97547e-06
4.97547e-06
4.97547e-06
)
;
    }
    inandouthalf42
    {
        type            cyclic;
        value           nonuniform List<scalar> 
50
(
-4.97547e-06
-4.97547e-06
-4.97547e-06
-4.97547e-06
-4.97547e-06
-4.97547e-06
-4.97547e-06
-4.97547e-06
-4.97547e-06
-4.97547e-06
-4.97547e-06
-4.97547e-06
-4.97547e-06
-4.97547e-06
-4.97547e-06
-4.97547e-06
-4.97547e-06
-4.97547e-06
-4.97547e-06
-4.97547e-06
-4.97547e-06
-4.97547e-06
-4.97547e-06
-4.97547e-06
-4.97547e-06
-4.97547e-06
-4.97547e-06
-4.97547e-06
-4.97547e-06
-4.97547e-06
-4.97547e-06
-4.97547e-06
-4.97547e-06
-4.97547e-06
-4.97547e-06
-4.97547e-06
-4.97547e-06
-4.97547e-06
-4.97547e-06
-4.97547e-06
-4.97547e-06
-4.97547e-06
-4.97547e-06
-4.97547e-06
-4.97547e-06
-4.97547e-06
-4.97547e-06
-4.97547e-06
-4.97547e-06
-4.97547e-06
)
;
    }
    top
    {
        type            symmetryPlane;
        value           uniform 0;
    }
    walls
    {
        type            fixedValue;
        value           uniform 0;
    }
    frontAndBackPlanes
    {
        type            empty;
        value           nonuniform 0();
    }
}


// ************************************************************************* //
