/*--------------------------------*- C++ -*----------------------------------*\
| =========                 |                                                 |
| \\      /  F ield         | OpenFOAM: The Open Source CFD Toolbox           |
|  \\    /   O peration     | Version:  2.4.x                                 |
|   \\  /    A nd           | Web:      www.OpenFOAM.org                      |
|    \\/     M anipulation  |                                                 |
\*---------------------------------------------------------------------------*/
FoamFile
{
    version     2.0;
    format      ascii;
    class       volVectorField;
    location    "11.35";
    object      susb;
}
// * * * * * * * * * * * * * * * * * * * * * * * * * * * * * * * * * * * * * //

dimensions      [0 1 -2 0 0 0 0];

internalField   nonuniform List<vector> 
360
(
(0 6.03009e-18 0)
(0 6.69058e-18 0)
(0 -5.28401e-21 0)
(0 -9.24895e-19 0)
(-7.39955e-31 -3.876e-19 0)
(-3.69944e-31 -2.12116e-19 0)
(-3.69901e-31 -2.73286e-19 0)
(0 -3.12325e-19 0)
(-7.39579e-31 -3.17554e-19 0)
(0 -3.20189e-19 0)
(-3.69674e-31 -3.21258e-19 0)
(0 -3.22455e-19 0)
(-7.39117e-31 -3.251e-19 0)
(0 -3.27838e-19 0)
(0 -3.31464e-19 0)
(0 -3.35149e-19 0)
(0 -3.38066e-19 0)
(-3.6926e-31 -3.40709e-19 0)
(0 -3.44768e-19 0)
(0 -3.47609e-19 0)
(0 -3.50587e-19 0)
(-3.6901e-31 -3.54886e-19 0)
(0 -3.5801e-19 0)
(0 -3.61664e-19 0)
(0 -3.65427e-19 0)
(-7.37501e-31 -3.68476e-19 0)
(0 -3.72667e-19 0)
(0 -3.77031e-19 0)
(0 -3.80171e-19 0)
(0 -3.83853e-19 0)
(0 -3.88998e-19 0)
(0 -3.91713e-19 0)
(0 -3.96507e-19 0)
(0 -4.01415e-19 0)
(0 -4.04558e-19 0)
(3.68054e-31 -4.09023e-19 0)
(0 -4.13296e-19 0)
(0 -4.19606e-19 0)
(0 -4.21719e-19 0)
(0 -4.26875e-19 0)
(0 -4.3383e-19 0)
(0 -4.35349e-19 0)
(3.67521e-31 -4.41674e-19 0)
(0 -4.47473e-19 0)
(0 -4.51211e-19 0)
(0 -4.58154e-19 0)
(0 -4.61146e-19 0)
(0 -4.65698e-19 0)
(0 -4.75042e-19 0)
(0 -4.78411e-19 0)
(7.33715e-31 -4.82768e-19 0)
(0 -4.90035e-19 0)
(0 -4.95927e-19 0)
(0 -5.00686e-19 0)
(0 -5.079e-19 0)
(0 -5.13865e-19 0)
(0 -5.19563e-19 0)
(0 -5.27597e-19 0)
(0 -5.31005e-19 0)
(0 -5.39949e-19 0)
(0 -5.47026e-19 0)
(0 -5.53012e-19 0)
(0 -5.61333e-19 0)
(0 -5.67648e-19 0)
(0 -5.74856e-19 0)
(0 -5.82666e-19 0)
(0 -5.91598e-19 0)
(0 -5.99002e-19 0)
(0 -6.04943e-19 0)
(0 -6.14672e-19 0)
(0 -6.26207e-19 0)
(0 -6.31423e-19 0)
(0 -6.40145e-19 0)
(0 -6.5127e-19 0)
(0 -6.60911e-19 0)
(0 -6.70095e-19 0)
(0 -6.78458e-19 0)
(0 -6.89691e-19 0)
(0 -7.00738e-19 0)
(0 -7.10635e-19 0)
(0 -7.21423e-19 0)
(0 -7.33612e-19 0)
(0 -7.45203e-19 0)
(0 -7.57182e-19 0)
(0 -7.6957e-19 0)
(0 -7.82437e-19 0)
(0 -7.9549e-19 0)
(0 -8.0855e-19 0)
(0 -8.22563e-19 0)
(0 -8.37045e-19 0)
(0 -8.51735e-19 0)
(0 -8.67191e-19 0)
(0 -8.83306e-19 0)
(0 -8.99747e-19 0)
(0 -9.16726e-19 0)
(0 -9.34273e-19 0)
(0 -9.52354e-19 0)
(0 -9.71038e-19 0)
(0 -9.90444e-19 0)
(0 -1.01059e-18 0)
(0 -1.03148e-18 0)
(0 -1.05321e-18 0)
(0 -1.07578e-18 0)
(0 -1.09918e-18 0)
(0 -1.12347e-18 0)
(0 -1.14868e-18 0)
(0 -1.17487e-18 0)
(0 -1.2021e-18 0)
(0 -1.23043e-18 0)
(0 -1.25992e-18 0)
(0 -1.29063e-18 0)
(0 -1.32264e-18 0)
(0 -1.35604e-18 0)
(0 -1.39091e-18 0)
(0 -1.42737e-18 0)
(0 -1.46554e-18 0)
(0 -1.50557e-18 0)
(0 -1.54762e-18 0)
(0 -1.59187e-18 0)
(0 -1.63852e-18 0)
(0 -1.68774e-18 0)
(0 -1.73969e-18 0)
(0 -1.79447e-18 0)
(0 -1.85221e-18 0)
(0 -1.91314e-18 0)
(0 -1.97782e-18 0)
(0 -2.04713e-18 0)
(0 -2.12198e-18 0)
(0 -2.20257e-18 0)
(0 -2.2878e-18 0)
(0 -2.37694e-18 0)
(0 -2.47466e-18 0)
(0 -2.5943e-18 0)
(0 -2.7465e-18 0)
(0 -2.98248e-18 0)
(0 -2.7547e-18 0)
(0 -1.11075e-17 0)
(0 -1.16102e-16 0)
(0 -1.43923e-15 0)
(0 -1.90513e-14 0)
(0 -2.81544e-13 0)
(0 -1.75554e-11 0)
(0 -2.18605e-10 0)
(0 -1.60222e-10 0)
(0 -5.11974e-08 0)
(0 -1.60506e-06 0)
(0 -0.000142277 0)
(0 -0.210684 0)
(0 -2.10423 0)
(0 -2.05886 0)
(0 -1.06245 0)
(0 -0.824656 0)
(0 -0.694581 0)
(0 -0.585746 0)
(0 -0.483968 0)
(0 -0.39064 0)
(0 -0.30884 0)
(0 -0.240155 0)
(0 -0.184417 0)
(0 -0.140425 0)
(0 -0.106472 0)
(0 -0.0804675 0)
(0 -0.0601798 0)
(0 -0.0440562 0)
(0 -0.0317186 0)
(0 -0.0230816 0)
(0 -0.0174336 0)
(0 -0.0137524 0)
(0 -0.0112624 0)
(0 -0.00950057 0)
(0 -0.00820008 0)
(0 -0.00720375 0)
(0 -0.00641615 0)
(0 -0.00577731 0)
(0 -0.0052481 0)
(0 -0.0048021 0)
(0 -0.00442086 0)
(0 -0.00409112 0)
(0 -0.00380308 0)
(0 -0.00354931 0)
(0 -0.00332411 0)
(0 -0.00312296 0)
(0 -0.00294228 0)
(0 -0.00277914 0)
(0 -0.00263117 0)
(0 -0.00249637 0)
(0 -0.00237307 0)
(0 -0.00225985 0)
(0 -0.0021555 0)
(0 -0.00205894 0)
(0 -0.00196924 0)
(0 -0.00188556 0)
(0 -0.00180716 0)
(0 -0.00173335 0)
(0 -0.00166354 0)
(0 -0.00159716 0)
(0 -0.00153374 0)
(0 -0.00147285 0)
(0 -0.00141412 0)
(0 -0.00135726 0)
(0 -0.00130202 0)
(0 -0.00124769 0)
(-1.23129e-18 -0.00119369 0)
(0 -0.00114 0)
(0 -0.00108663 0)
(5.80845e-19 -0.00103363 0)
(0 -0.000981056 0)
(-5.56112e-19 -0.000928968 0)
(0 -0.000877421 0)
(5.30496e-19 -0.000826476 0)
(0 -0.000776188 0)
(0 -0.000726644 0)
(0 -0.000677972 0)
(0 -0.000630393 0)
(0 -0.000584216 0)
(0 -0.000539842 0)
(0 -0.0004977 0)
(0 -0.00045815 0)
(0 -0.000421382 0)
(0 -0.000387376 0)
(0 -0.000355943 0)
(0 -0.000326811 0)
(0 -0.000299703 0)
(-1.05019e-19 -0.000274367 0)
(0 -0.000250565 0)
(0 -0.000228081 0)
(0 -0.000206768 0)
(0 -0.0001865 0)
(1.03398e-19 -0.000167102 0)
(5.14165e-20 -0.000148685 0)
(0 -0.000131609 0)
(0 -0.000115491 0)
(0 -0.000104362 0)
(0 -9.83049e-05 0)
(0 -9.76799e-05 0)
(0 -7.62425e-05 0)
(0 -4.15704e-05 0)
(0 -2.04422e-05 0)
(0 -1.89499e-05 0)
(0 -1.54689e-05 0)
(0 -1.24667e-05 0)
(0 -9.90314e-06 0)
(0 -7.74817e-06 0)
(-2.77637e-21 -5.96404e-06 0)
(1.32143e-21 -4.49552e-06 0)
(0 -3.34899e-06 0)
(0 -2.41183e-06 0)
(-5.5504e-22 -1.73348e-06 0)
(0 -1.19536e-06 0)
(0 -8.0712e-07 0)
(-1.1704e-22 -5.42424e-07 0)
(0 -3.38259e-07 0)
(0 -2.297e-07 0)
(0 -4.29944e-08 0)
(0 -1.25001e-18 0)
(0 -1.88962e-29 0)
(0 -2.59327e-40 0)
(0 -3.30217e-51 0)
(0 -3.84853e-62 0)
(0 -1.88546e-67 0)
(0 -9.64466e-68 0)
(0 -4.44981e-68 0)
(0 -2.14248e-68 0)
(0 -9.95092e-69 0)
(0 -4.57785e-69 0)
(0 -2.05793e-69 0)
(1.53149e-85 -9.02412e-70 0)
(0 -3.85179e-70 0)
(0 -1.59599e-70 0)
(0 -6.3964e-71 0)
(0 -2.46701e-71 0)
(0 -9.08789e-72 0)
(0 -3.15919e-72 0)
(0 -1.0143e-72 0)
(0 -2.87235e-73 0)
(0 -6.25509e-74 0)
(0 -5.67137e-75 0)
(0 -9.04465e-77 0)
(0 -4.3858e-79 0)
(0 -1.79748e-81 0)
(0 -6.74651e-84 0)
(0 -2.32062e-86 0)
(0 -7.28525e-89 0)
(0 -1.51786e-91 0)
(0 -3.19959e-94 0)
(0 -8.80517e-95 0)
(3.74088e-111 -2.53474e-95 0)
(0 -7.03617e-96 0)
(0 -1.87994e-96 0)
(0 -4.82479e-97 0)
(0 -1.18681e-97 0)
(0 -2.79119e-98 0)
(0 -6.25941e-99 0)
(0 -1.33446e-99 0)
(0 -2.69549e-100 0)
(0 -5.13904e-101 0)
(7.29535e-118 -9.20783e-102 0)
(0 -1.5428e-102 0)
(0 -2.40346e-103 0)
(-2.68303e-120 -3.45789e-104 0)
(0 -4.55772e-105 0)
(0 -5.45045e-106 0)
(0 -5.84345e-107 0)
(0 -5.53201e-108 0)
(0 -4.53413e-109 0)
(0 -3.13199e-110 0)
(0 -1.75398e-111 0)
(0 -7.49347e-113 0)
(0 -2.18869e-114 0)
(0 -3.36929e-116 0)
(0 -3.78752e-119 0)
(0 -5.17963e-126 0)
(0 -3.0796e-128 0)
(0 -9.0552e-131 0)
(0 -3.87363e-141 0)
(0 -8.48784e-152 0)
(0 -1.4045e-162 0)
(0 -1.69613e-173 0)
(0 -1.79412e-184 0)
(0 -1.4671e-195 0)
(0 -1.03348e-206 0)
(0 -1.62256e-217 0)
(0 -6.58873e-228 0)
(0 -3.50332e-236 0)
(0 -1.83395e-246 0)
(0 -1.20475e-254 0)
(0 -7.47736e-265 0)
(0 -4.14856e-273 0)
(0 -3.16214e-283 0)
(0 -1.43108e-291 0)
(0 -2.04095e-301 0)
(0 -5.0893e-310 0)
(0 -1.35972e-319 0)
(0 -0 0)
(0 0 0)
(0 0 0)
(0 0 0)
(0 0 0)
(0 0 0)
(0 0 0)
(0 0 0)
(0 0 0)
(0 0 0)
(0 0 0)
(0 0 0)
(0 0 0)
(0 0 0)
(0 0 0)
(0 0 0)
(0 0 0)
(0 0 0)
(0 0 0)
(0 0 0)
(0 0 0)
(0 0 0)
(0 0 0)
(0 0 0)
(0 0 0)
(0 0 0)
(0 0 0)
)
;

boundaryField
{
    inandouthalf11
    {
        type            cyclic;
    }
    inandouthalf12
    {
        type            cyclic;
    }
    inandouthalf21
    {
        type            cyclic;
    }
    inandouthalf22
    {
        type            cyclic;
    }
    inandouthalf31
    {
        type            cyclic;
    }
    inandouthalf32
    {
        type            cyclic;
    }
    inandouthalf41
    {
        type            cyclic;
    }
    inandouthalf42
    {
        type            cyclic;
    }
    top
    {
        type            symmetryPlane;
    }
    walls
    {
        type            zeroGradient;
    }
    frontAndBackPlanes
    {
        type            empty;
    }
}


// ************************************************************************* //
