/*--------------------------------*- C++ -*----------------------------------*\
| =========                 |                                                 |
| \\      /  F ield         | OpenFOAM: The Open Source CFD Toolbox           |
|  \\    /   O peration     | Version:  2.4.x                                 |
|   \\  /    A nd           | Web:      www.OpenFOAM.org                      |
|    \\/     M anipulation  |                                                 |
\*---------------------------------------------------------------------------*/
FoamFile
{
    version     2.0;
    format      ascii;
    class       volTensorField;
    location    "11.35";
    object      Tauf;
}
// * * * * * * * * * * * * * * * * * * * * * * * * * * * * * * * * * * * * * //

dimensions      [0 2 -2 0 0 0 0];

internalField   nonuniform List<tensor> 
360
(
(0 -2.69789e-07 0 -2.69789e-07 2.4153e-11 0 0 0 0)
(0 8.52913e-10 0 8.52913e-10 2.94611e-11 0 0 0 0)
(0 -4.27356e-12 0 -4.27356e-12 3.12395e-11 0 0 0 0)
(0 -1.53546e-10 0 -1.53546e-10 3.07988e-11 0 0 0 0)
(2.58494e-23 -6.6987e-11 0 -6.6987e-11 3.16172e-11 0 0 0 0)
(5.16988e-23 -3.87008e-11 0 -3.87008e-11 3.26067e-11 0 0 0 0)
(2.58494e-23 -4.86719e-11 0 -4.86719e-11 3.31622e-11 0 0 0 0)
(0 -5.50567e-11 0 -5.50567e-11 3.34235e-11 0 0 0 0)
(2.58494e-23 -5.59548e-11 0 -5.59548e-11 3.35666e-11 0 0 0 0)
(0 -5.64185e-11 0 -5.64185e-11 3.36317e-11 0 0 0 0)
(2.58494e-23 -5.66147e-11 0 -5.66147e-11 3.3598e-11 0 0 0 0)
(0 -5.68159e-11 0 -5.68159e-11 3.34455e-11 0 0 0 0)
(2.58494e-23 -5.72363e-11 0 -5.72363e-11 3.31754e-11 0 0 0 0)
(0 -5.76585e-11 0 -5.76585e-11 3.28004e-11 0 0 0 0)
(0 -5.82135e-11 0 -5.82135e-11 3.23384e-11 0 0 0 0)
(0 -5.87694e-11 0 -5.87694e-11 3.18076e-11 0 0 0 0)
(0 -5.91934e-11 0 -5.91934e-11 3.12223e-11 0 0 0 0)
(5.16988e-23 -5.95674e-11 0 -5.95674e-11 3.05945e-11 0 0 0 0)
(0 -6.01679e-11 0 -6.01679e-11 2.99392e-11 0 0 0 0)
(0 -6.0569e-11 0 -6.0569e-11 2.92684e-11 0 0 0 0)
(0 -6.09918e-11 0 -6.09918e-11 2.85929e-11 0 0 0 0)
(2.58494e-23 -6.16307e-11 0 -6.16307e-11 2.79251e-11 0 0 0 0)
(0 -6.20813e-11 0 -6.20813e-11 2.72731e-11 0 0 0 0)
(0 -6.26213e-11 0 -6.26213e-11 2.66433e-11 0 0 0 0)
(0 -6.31831e-11 0 -6.31831e-11 2.60415e-11 0 0 0 0)
(2.58494e-23 -6.36334e-11 0 -6.36334e-11 2.54707e-11 0 0 0 0)
(0 -6.4275e-11 0 -6.4275e-11 2.49353e-11 0 0 0 0)
(0 -6.49507e-11 0 -6.49507e-11 2.44383e-11 0 0 0 0)
(0 -6.54324e-11 0 -6.54324e-11 2.39792e-11 0 0 0 0)
(0 -6.60082e-11 0 -6.60082e-11 2.35578e-11 0 0 0 0)
(0 -6.68287e-11 0 -6.68287e-11 2.31762e-11 0 0 0 0)
(0 -6.72587e-11 0 -6.72587e-11 2.28313e-11 0 0 0 0)
(0 -6.80335e-11 0 -6.80335e-11 2.25237e-11 0 0 0 0)
(0 -6.8833e-11 0 -6.8833e-11 2.2253e-11 0 0 0 0)
(0 -6.93494e-11 0 -6.93494e-11 2.2015e-11 0 0 0 0)
(-2.58494e-23 -7.00868e-11 0 -7.00868e-11 2.18086e-11 0 0 0 0)
(0 -7.07983e-11 0 -7.07983e-11 2.16319e-11 0 0 0 0)
(0 -7.18479e-11 0 -7.18479e-11 2.14867e-11 0 0 0 0)
(0 -7.22154e-11 0 -7.22154e-11 2.13657e-11 0 0 0 0)
(0 -7.30851e-11 0 -7.30851e-11 2.12683e-11 0 0 0 0)
(0 -7.42538e-11 0 -7.42538e-11 2.11966e-11 0 0 0 0)
(0 -7.4536e-11 0 -7.4536e-11 2.11418e-11 0 0 0 0)
(-2.58494e-23 -7.5609e-11 0 -7.5609e-11 2.11064e-11 0 0 0 0)
(0 -7.66e-11 0 -7.66e-11 2.10897e-11 0 0 0 0)
(0 -7.72564e-11 0 -7.72564e-11 2.10871e-11 0 0 0 0)
(0 -7.84417e-11 0 -7.84417e-11 2.11e-11 0 0 0 0)
(0 -7.89807e-11 0 -7.89807e-11 2.11213e-11 0 0 0 0)
(0 -7.97786e-11 0 -7.97786e-11 2.11497e-11 0 0 0 0)
(0 -8.13675e-11 0 -8.13675e-11 2.11928e-11 0 0 0 0)
(0 -8.19769e-11 0 -8.19769e-11 2.12429e-11 0 0 0 0)
(-2.58494e-23 -8.27501e-11 0 -8.27501e-11 2.12971e-11 0 0 0 0)
(0 -8.40047e-11 0 -8.40047e-11 2.13566e-11 0 0 0 0)
(0 -8.50354e-11 0 -8.50354e-11 2.14203e-11 0 0 0 0)
(0 -8.58811e-11 0 -8.58811e-11 2.14854e-11 0 0 0 0)
(0 -8.71337e-11 0 -8.71337e-11 2.15538e-11 0 0 0 0)
(0 -8.81822e-11 0 -8.81822e-11 2.1623e-11 0 0 0 0)
(0 -8.91885e-11 0 -8.91885e-11 2.16906e-11 0 0 0 0)
(0 -9.05817e-11 0 -9.05817e-11 2.17593e-11 0 0 0 0)
(0 -9.12125e-11 0 -9.12125e-11 2.18204e-11 0 0 0 0)
(0 -9.27595e-11 0 -9.27595e-11 2.18818e-11 0 0 0 0)
(0 -9.40004e-11 0 -9.40004e-11 2.1942e-11 0 0 0 0)
(0 -9.50624e-11 0 -9.50624e-11 2.19992e-11 0 0 0 0)
(0 -9.65126e-11 0 -9.65126e-11 2.20551e-11 0 0 0 0)
(0 -9.76323e-11 0 -9.76323e-11 2.21048e-11 0 0 0 0)
(0 -9.89011e-11 0 -9.89011e-11 2.21487e-11 0 0 0 0)
(0 -1.00272e-10 0 -1.00272e-10 2.21864e-11 0 0 0 0)
(0 -1.01831e-10 0 -1.01831e-10 2.222e-11 0 0 0 0)
(0 -1.03137e-10 0 -1.03137e-10 2.22469e-11 0 0 0 0)
(0 -1.04201e-10 0 -1.04201e-10 2.22628e-11 0 0 0 0)
(0 -1.05898e-10 0 -1.05898e-10 2.22728e-11 0 0 0 0)
(0 -1.07898e-10 0 -1.07898e-10 2.22831e-11 0 0 0 0)
(0 -1.08847e-10 0 -1.08847e-10 2.22834e-11 0 0 0 0)
(0 -1.10383e-10 0 -1.10383e-10 2.22764e-11 0 0 0 0)
(0 -1.12321e-10 0 -1.12321e-10 2.22646e-11 0 0 0 0)
(0 -1.14016e-10 0 -1.14016e-10 2.22476e-11 0 0 0 0)
(0 -1.15636e-10 0 -1.15636e-10 2.22237e-11 0 0 0 0)
(0 -1.17121e-10 0 -1.17121e-10 2.21874e-11 0 0 0 0)
(0 -1.19088e-10 0 -1.19088e-10 2.21424e-11 0 0 0 0)
(0 -1.21028e-10 0 -1.21028e-10 2.20893e-11 0 0 0 0)
(0 -1.22777e-10 0 -1.22777e-10 2.20274e-11 0 0 0 0)
(0 -1.24679e-10 0 -1.24679e-10 2.19573e-11 0 0 0 0)
(0 -1.2682e-10 0 -1.2682e-10 2.18815e-11 0 0 0 0)
(0 -1.28864e-10 0 -1.28864e-10 2.17995e-11 0 0 0 0)
(0 -1.30978e-10 0 -1.30978e-10 2.1712e-11 0 0 0 0)
(0 -1.33164e-10 0 -1.33164e-10 2.16176e-11 0 0 0 0)
(0 -1.35436e-10 0 -1.35436e-10 2.15157e-11 0 0 0 0)
(0 -1.37743e-10 0 -1.37743e-10 2.14049e-11 0 0 0 0)
(0 -1.40056e-10 0 -1.40056e-10 2.12836e-11 0 0 0 0)
(0 -1.42534e-10 0 -1.42534e-10 2.11522e-11 0 0 0 0)
(0 -1.45097e-10 0 -1.45097e-10 2.10111e-11 0 0 0 0)
(0 -1.47701e-10 0 -1.47701e-10 2.0861e-11 0 0 0 0)
(0 -1.5044e-10 0 -1.5044e-10 2.07034e-11 0 0 0 0)
(0 -1.53297e-10 0 -1.53297e-10 2.05394e-11 0 0 0 0)
(0 -1.56218e-10 0 -1.56218e-10 2.03693e-11 0 0 0 0)
(0 -1.59237e-10 0 -1.59237e-10 2.01932e-11 0 0 0 0)
(0 -1.6236e-10 0 -1.6236e-10 2.00108e-11 0 0 0 0)
(0 -1.65583e-10 0 -1.65583e-10 1.98215e-11 0 0 0 0)
(0 -1.68917e-10 0 -1.68917e-10 1.96253e-11 0 0 0 0)
(0 -1.72384e-10 0 -1.72384e-10 1.94227e-11 0 0 0 0)
(0 -1.75987e-10 0 -1.75987e-10 1.92146e-11 0 0 0 0)
(0 -1.7973e-10 0 -1.7973e-10 1.90026e-11 0 0 0 0)
(0 -1.83628e-10 0 -1.83628e-10 1.87888e-11 0 0 0 0)
(0 -1.87682e-10 0 -1.87682e-10 1.85752e-11 0 0 0 0)
(0 -1.91894e-10 0 -1.91894e-10 1.83641e-11 0 0 0 0)
(0 -1.96274e-10 0 -1.96274e-10 1.81576e-11 0 0 0 0)
(0 -2.00831e-10 0 -2.00831e-10 1.79575e-11 0 0 0 0)
(0 -2.05574e-10 0 -2.05574e-10 1.77656e-11 0 0 0 0)
(0 -2.10515e-10 0 -2.10515e-10 1.75828e-11 0 0 0 0)
(0 -2.15668e-10 0 -2.15668e-10 1.74095e-11 0 0 0 0)
(0 -2.21043e-10 0 -2.21043e-10 1.72451e-11 0 0 0 0)
(0 -2.26653e-10 0 -2.26653e-10 1.70876e-11 0 0 0 0)
(0 -2.32513e-10 0 -2.32513e-10 1.69337e-11 0 0 0 0)
(0 -2.38638e-10 0 -2.38638e-10 1.67788e-11 0 0 0 0)
(0 -2.45046e-10 0 -2.45046e-10 1.66166e-11 0 0 0 0)
(0 -2.51757e-10 0 -2.51757e-10 1.64405e-11 0 0 0 0)
(0 -2.58795e-10 0 -2.58795e-10 1.62438e-11 0 0 0 0)
(0 -2.66186e-10 0 -2.66186e-10 1.60209e-11 0 0 0 0)
(0 -2.73961e-10 0 -2.73961e-10 1.57689e-11 0 0 0 0)
(0 -2.82157e-10 0 -2.82157e-10 1.54894e-11 0 0 0 0)
(0 -2.90812e-10 0 -2.90812e-10 1.51897e-11 0 0 0 0)
(0 -2.99965e-10 0 -2.99965e-10 1.48842e-11 0 0 0 0)
(0 -3.09652e-10 0 -3.09652e-10 1.4595e-11 0 0 0 0)
(0 -3.19903e-10 0 -3.19903e-10 1.43522e-11 0 0 0 0)
(0 -3.30754e-10 0 -3.30754e-10 1.41936e-11 0 0 0 0)
(0 -3.42264e-10 0 -3.42264e-10 1.41639e-11 0 0 0 0)
(0 -3.54551e-10 0 -3.54551e-10 1.43134e-11 0 0 0 0)
(0 -3.67795e-10 0 -3.67795e-10 1.46953e-11 0 0 0 0)
(0 -3.82184e-10 0 -3.82184e-10 1.53586e-11 0 0 0 0)
(0 -3.97776e-10 0 -3.97776e-10 1.63342e-11 0 0 0 0)
(0 -4.14398e-10 0 -4.14398e-10 1.76086e-11 0 0 0 0)
(0 -4.31917e-10 0 -4.31917e-10 1.90874e-11 0 0 0 0)
(0 -4.51156e-10 0 -4.51156e-10 2.05572e-11 0 0 0 0)
(0 -4.74463e-10 0 -4.74463e-10 2.16594e-11 0 0 0 0)
(0 -5.03682e-10 0 -5.03682e-10 2.18818e-11 0 0 0 0)
(0 -5.36594e-10 0 -5.36594e-10 2.06103e-11 0 0 0 0)
(0 -5.69117e-10 0 -5.69117e-10 1.7385e-11 0 0 0 0)
(0 -6.04481e-10 0 -6.04481e-10 1.23688e-11 0 0 0 0)
(0 -6.57528e-10 0 -6.57528e-10 6.60106e-12 0 0 0 0)
(0 -7.39587e-10 0 -7.39587e-10 1.59221e-12 0 0 0 0)
(0 -8.19763e-10 0 -8.19763e-10 -1.96947e-12 0 0 0 0)
(0 -9.29137e-10 0 -9.29137e-10 -1.51769e-11 0 0 0 0)
(0 -3.99983e-09 0 -3.99983e-09 -3.95689e-12 0 0 0 0)
(0 -2.97506e-09 0 -2.97506e-09 6.89875e-12 0 0 0 0)
(0 -1.20774e-10 0 -1.20774e-10 -3.24619e-10 0 0 0 0)
(0 -1.70798e-09 0 -1.70798e-09 1.77168e-09 0 0 0 0)
(0 -2.24223e-09 0 -2.24223e-09 -6.23198e-09 0 0 0 0)
(0 -1.60876e-07 0 -1.60876e-07 2.44334e-08 0 0 0 0)
(0 -5.95765e-05 0 -5.95765e-05 -1.94802e-07 0 0 0 0)
(0 -0.000694546 0 -0.000694546 -4.43639e-06 0 0 0 0)
(0 -0.00266038 0 -0.00266038 -7.30818e-06 0 0 0 0)
(0 -0.00327806 0 -0.00327806 6.12432e-06 0 0 0 0)
(0 -0.00337068 0 -0.00337068 2.66593e-06 0 0 0 0)
(0 -0.00328934 0 -0.00328934 5.19744e-06 0 0 0 0)
(0 -0.00312119 0 -0.00312119 6.08267e-06 0 0 0 0)
(0 -0.00291268 0 -0.00291268 6.32198e-06 0 0 0 0)
(0 -0.0026883 0 -0.0026883 6.17028e-06 0 0 0 0)
(0 -0.00246048 0 -0.00246048 5.73001e-06 0 0 0 0)
(0 -0.00223535 0 -0.00223535 5.09942e-06 0 0 0 0)
(0 -0.00201616 0 -0.00201616 4.38303e-06 0 0 0 0)
(0 -0.00180504 0 -0.00180504 3.66798e-06 0 0 0 0)
(0 -0.00160396 0 -0.00160396 3.00904e-06 0 0 0 0)
(0 -0.00141501 0 -0.00141501 2.41797e-06 0 0 0 0)
(0 -0.0012401 0 -0.0012401 1.87589e-06 0 0 0 0)
(0 -0.0010805 0 -0.0010805 1.37538e-06 0 0 0 0)
(0 -0.000936455 0 -0.000936455 9.46838e-07 0 0 0 0)
(0 -0.000807157 0 -0.000807157 6.25833e-07 0 0 0 0)
(0 -0.000691095 0 -0.000691095 4.10207e-07 0 0 0 0)
(0 -0.000586455 0 -0.000586455 2.68859e-07 0 0 0 0)
(0 -0.00049144 0 -0.00049144 1.71867e-07 0 0 0 0)
(0 -0.000404447 0 -0.000404447 1.01102e-07 0 0 0 0)
(0 -0.000324119 0 -0.000324119 4.71542e-08 0 0 0 0)
(0 -0.000249346 0 -0.000249346 4.89004e-09 0 0 0 0)
(0 -0.000179244 0 -0.000179244 -2.88312e-08 0 0 0 0)
(0 -0.000113114 0 -0.000113114 -5.60649e-08 0 0 0 0)
(0 -5.04153e-05 0 -5.04153e-05 -7.82059e-08 0 0 0 0)
(0 9.27641e-06 0 9.27641e-06 -9.624e-08 0 0 0 0)
(0 6.62925e-05 0 6.62925e-05 -1.10894e-07 0 0 0 0)
(0 0.000120891 0 0.000120891 -1.22724e-07 0 0 0 0)
(0 0.000173276 0 0.000173276 -1.32174e-07 0 0 0 0)
(0 0.000223609 0 0.000223609 -1.39601e-07 0 0 0 0)
(0 0.000272019 0 0.000272019 -1.45301e-07 0 0 0 0)
(0 0.000318614 0 0.000318614 -1.4952e-07 0 0 0 0)
(0 0.000363479 0 0.000363479 -1.52468e-07 0 0 0 0)
(0 0.000406687 0 0.000406687 -1.54321e-07 0 0 0 0)
(0 0.000448299 0 0.000448299 -1.55231e-07 0 0 0 0)
(0 0.000488368 0 0.000488368 -1.55328e-07 0 0 0 0)
(0 0.00052694 0 0.00052694 -1.54724e-07 0 0 0 0)
(0 0.000564054 0 0.000564054 -1.53514e-07 0 0 0 0)
(0 0.000599748 0 0.000599748 -1.51781e-07 0 0 0 0)
(0 0.000634052 0 0.000634052 -1.49597e-07 0 0 0 0)
(0 0.000666998 0 0.000666998 -1.47023e-07 0 0 0 0)
(0 0.000698613 0 0.000698613 -1.44112e-07 0 0 0 0)
(0 0.000728924 0 0.000728924 -1.40909e-07 0 0 0 0)
(0 0.000757954 0 0.000757954 -1.37456e-07 0 0 0 0)
(0 0.000785729 0 0.000785729 -1.33789e-07 0 0 0 0)
(0 0.000812269 0 0.000812269 -1.2994e-07 0 0 0 0)
(0 0.000837597 0 0.000837597 -1.25939e-07 0 0 0 0)
(0 0.000861735 0 0.000861735 -1.21814e-07 0 0 0 0)
(0 0.000884704 0 0.000884704 -1.17593e-07 0 0 0 0)
(0 0.000906534 0 0.000906534 -1.13301e-07 0 0 0 0)
(0 0.000927271 0 0.000927271 -1.08964e-07 0 0 0 0)
(0 0.000947184 0 0.000947184 -1.04562e-07 0 0 0 0)
(3.0361e-17 0.000966503 0 0.000966503 -1.00074e-07 0 0 0 0)
(0 0.000985213 0 0.000985213 -9.55219e-08 0 0 0 0)
(0 0.00100328 0 0.00100328 -9.09304e-08 0 0 0 0)
(-2.92347e-17 0.00102065 0 0.00102065 -8.63214e-08 0 0 0 0)
(0 0.00103729 0 0.00103729 -8.1716e-08 0 0 0 0)
(2.84488e-17 0.00105313 0 0.00105313 -7.71326e-08 0 0 0 0)
(0 0.00106814 0 0.00106814 -7.25867e-08 0 0 0 0)
(-5.52735e-17 0.00108225 0 0.00108225 -6.80904e-08 0 0 0 0)
(0 0.00109542 0 0.00109542 -6.36532e-08 0 0 0 0)
(0 0.00110758 0 0.00110758 -5.92826e-08 0 0 0 0)
(0 0.00111869 0 0.00111869 -5.4986e-08 0 0 0 0)
(-5.18784e-17 0.00112868 0 0.00112868 -5.07727e-08 0 0 0 0)
(0 0.0011375 0 0.0011375 -4.66553e-08 0 0 0 0)
(0 0.00114508 0 0.00114508 -4.2651e-08 0 0 0 0)
(0 0.00115137 0 0.00115137 -3.87814e-08 0 0 0 0)
(0 0.00115631 0 0.00115631 -3.5071e-08 0 0 0 0)
(0 0.00115983 0 0.00115983 -3.15443e-08 0 0 0 0)
(0 0.00116188 0 0.00116188 -2.82235e-08 0 0 0 0)
(0 0.00116239 0 0.00116239 -2.51253e-08 0 0 0 0)
(4.45411e-17 0.00116131 0 0.00116131 -2.22596e-08 0 0 0 0)
(0 0.00115857 0 0.00115857 -1.96294e-08 0 0 0 0)
(4.25986e-17 0.00115411 0 0.00115411 -1.72303e-08 0 0 0 0)
(0 0.00114788 0 0.00114788 -1.50526e-08 0 0 0 0)
(0 0.00113982 0 0.00113982 -1.30832e-08 0 0 0 0)
(0 0.00112987 0 0.00112987 -1.13079e-08 0 0 0 0)
(0 0.00111798 0 0.00111798 -9.71185e-09 0 0 0 0)
(-3.75652e-17 0.0011041 0 0.0011041 -8.28153e-09 0 0 0 0)
(0 0.00108819 0 0.00108819 -7.00731e-09 0 0 0 0)
(0 0.0010702 0 0.0010702 -5.88096e-09 0 0 0 0)
(0 0.0010501 0 0.0010501 -4.9291e-09 0 0 0 0)
(0 0.00102786 0 0.00102786 -4.21409e-09 0 0 0 0)
(0 0.00100346 0 0.00100346 -3.73401e-09 0 0 0 0)
(0 0.000976877 0 0.000976877 -3.22864e-09 0 0 0 0)
(0 0.000948117 0 0.000948117 -2.44476e-09 0 0 0 0)
(0 0.000917187 0 0.000917187 -1.67606e-09 0 0 0 0)
(0 0.000884096 0 0.000884096 -1.24275e-09 0 0 0 0)
(0 0.000848889 0 0.000848889 -9.89605e-10 0 0 0 0)
(0 0.000811646 0 0.000811646 -7.59798e-10 0 0 0 0)
(0 0.000772449 0 0.000772449 -5.60752e-10 0 0 0 0)
(0 0.000731406 0 0.000731406 -4.01213e-10 0 0 0 0)
(0 0.000688653 0 0.000688653 -2.78483e-10 0 0 0 0)
(2.14723e-17 0.000644359 0 0.000644359 -1.86164e-10 0 0 0 0)
(-4.08185e-17 0.00059873 0 0.00059873 -1.19087e-10 0 0 0 0)
(0 0.000552011 0 0.000552011 -7.22256e-11 0 0 0 0)
(0 0.000504493 0 0.000504493 -4.05797e-11 0 0 0 0)
(1.73205e-17 0.000456515 0 0.000456515 -2.07404e-11 0 0 0 0)
(0 0.000408463 0 0.000408463 -8.49843e-12 0 0 0 0)
(0 0.000360773 0 0.000360773 -1.70646e-12 0 0 0 0)
(1.44761e-17 0.000313925 0 0.000313925 5.49289e-13 0 0 0 0)
(0 0.000268432 0 0.000268432 2.86743e-12 0 0 0 0)
(0 0.000224825 0 0.000224825 3.12863e-12 0 0 0 0)
(0 0.000183627 0 0.000183627 -1.04149e-12 0 0 0 0)
(0 0.000145325 0 0.000145325 -1.65674e-12 0 0 0 0)
(0 0.000110333 0 0.000110333 1.40868e-13 0 0 0 0)
(0 7.89655e-05 0 7.89655e-05 8.77709e-14 0 0 0 0)
(0 5.141e-05 0 5.141e-05 -1.79465e-14 0 0 0 0)
(0 2.77241e-05 0 2.77241e-05 -3.0209e-14 0 0 0 0)
(0 7.84395e-06 0 7.84395e-06 -2.25191e-14 0 0 0 0)
(0 -8.39354e-06 0 -8.39354e-06 -1.91566e-14 0 0 0 0)
(0 -2.12221e-05 0 -2.12221e-05 -1.77167e-14 0 0 0 0)
(0 -3.09189e-05 0 -3.09189e-05 -1.59326e-14 0 0 0 0)
(0 -3.77824e-05 0 -3.77824e-05 -1.38313e-14 0 0 0 0)
(0 -4.21171e-05 0 -4.21171e-05 -1.19895e-14 0 0 0 0)
(0 -4.42243e-05 0 -4.42243e-05 -9.12666e-15 0 0 0 0)
(-1.04369e-17 -4.43976e-05 0 -4.43976e-05 -3.25823e-16 0 0 0 0)
(0 -4.29208e-05 0 -4.29208e-05 7.73512e-15 0 0 0 0)
(0 -4.00675e-05 0 -4.00675e-05 -1.79896e-13 0 0 0 0)
(0 -3.61026e-05 0 -3.61026e-05 4.91023e-13 0 0 0 0)
(0 -3.12846e-05 0 -3.12846e-05 -8.6979e-13 0 0 0 0)
(0 -2.58696e-05 0 -2.58696e-05 1.17771e-12 0 0 0 0)
(0 -2.01187e-05 0 -2.01187e-05 -1.35925e-12 0 0 0 0)
(0 -1.43119e-05 0 -1.43119e-05 1.34417e-12 0 0 0 0)
(0 -8.77414e-06 0 -8.77414e-06 -1.12575e-12 0 0 0 0)
(0 -3.7105e-06 0 -3.7105e-06 7.08232e-13 0 0 0 0)
(0 -4.99456e-07 0 -4.99456e-07 -2.14252e-13 0 0 0 0)
(0 -2.39296e-08 0 -2.39296e-08 5.85314e-14 0 0 0 0)
(0 -7.37862e-10 0 -7.37862e-10 -5.10309e-14 0 0 0 0)
(0 -9.1668e-12 0 -9.1668e-12 4.98925e-14 0 0 0 0)
(0 -9.02968e-15 0 -9.02968e-15 -4.89607e-14 0 0 0 0)
(0 6.22403e-14 0 6.22403e-14 4.79548e-14 0 0 0 0)
(0 4.18921e-14 0 4.18921e-14 -4.709e-14 0 0 0 0)
(0 2.76013e-14 0 2.76013e-14 4.6156e-14 0 0 0 0)
(0 1.7997e-14 0 1.7997e-14 -4.53396e-14 0 0 0 0)
(0 1.15989e-14 0 1.15989e-14 4.44551e-14 0 0 0 0)
(-7.5226e-20 7.45024e-15 0 7.45024e-15 -4.36655e-14 0 0 0 0)
(0 4.68857e-15 0 4.68857e-15 4.28194e-14 0 0 0 0)
(0 2.91992e-15 0 2.91992e-15 -4.20518e-14 0 0 0 0)
(0 1.76107e-15 0 1.76107e-15 4.12185e-14 0 0 0 0)
(0 1.07689e-15 0 1.07689e-15 -4.04578e-14 0 0 0 0)
(0 7.56349e-16 0 7.56349e-16 3.9637e-14 0 0 0 0)
(0 4.95846e-16 0 4.95846e-16 -3.88722e-14 0 0 0 0)
(0 2.18842e-16 0 2.18842e-16 3.80535e-14 0 0 0 0)
(0 4.68243e-17 0 4.68243e-17 -3.72776e-14 0 0 0 0)
(0 -5.97674e-17 0 -5.97674e-17 3.646e-14 0 0 0 0)
(0 6.75005e-17 0 6.75005e-17 -3.56674e-14 0 0 0 0)
(0 1.54599e-16 0 1.54599e-16 3.48408e-14 0 0 0 0)
(0 2.14562e-17 0 2.14562e-17 -3.40249e-14 0 0 0 0)
(1.15864e-19 -1.06277e-16 0 -1.06277e-16 3.31916e-14 0 0 0 0)
(0 4.22725e-17 0 4.22725e-17 -3.23526e-14 0 0 0 0)
(0 5.20886e-17 0 5.20886e-17 3.14993e-14 0 0 0 0)
(0 -3.22077e-17 0 -3.22077e-17 -3.06378e-14 0 0 0 0)
(0 9.29369e-17 0 9.29369e-17 2.97633e-14 0 0 0 0)
(0 -1.35283e-16 0 -1.35283e-16 -2.88755e-14 0 0 0 0)
(0 -2.1188e-16 0 -2.1188e-16 2.79732e-14 0 0 0 0)
(0 1.79731e-16 0 1.79731e-16 -2.70556e-14 0 0 0 0)
(0 2.64455e-16 0 2.64455e-16 2.61238e-14 0 0 0 0)
(0 -6.21032e-17 0 -6.21032e-17 -2.51709e-14 0 0 0 0)
(0 -2.42026e-16 0 -2.42026e-16 2.42284e-14 0 0 0 0)
(0 -1.49104e-16 0 -1.49104e-16 -2.66365e-14 0 0 0 0)
(0 -7.34272e-17 0 -7.34272e-17 2.63009e-14 0 0 0 0)
(0 4.32516e-17 0 4.32516e-17 -2.59815e-14 0 0 0 0)
(0 4.79103e-17 0 4.79103e-17 2.56672e-14 0 0 0 0)
(0 3.1552e-17 0 3.1552e-17 -2.53444e-14 0 0 0 0)
(0 4.86779e-17 0 4.86779e-17 2.50265e-14 0 0 0 0)
(0 1.15408e-17 0 1.15408e-17 -2.47e-14 0 0 0 0)
(0 -7.83505e-18 0 -7.83505e-18 2.43774e-14 0 0 0 0)
(0 -3.53107e-17 0 -3.53107e-17 -2.40472e-14 0 0 0 0)
(0 -1.30231e-16 0 -1.30231e-16 2.37201e-14 0 0 0 0)
(0 -4.74603e-17 0 -4.74603e-17 -2.33839e-14 0 0 0 0)
(0 1.27558e-16 0 1.27558e-16 2.3053e-14 0 0 0 0)
(0 5.80747e-17 0 5.80747e-17 -2.27112e-14 0 0 0 0)
(0 -3.25843e-17 0 -3.25843e-17 2.2374e-14 0 0 0 0)
(0 6.88214e-18 0 6.88214e-18 -2.2026e-14 0 0 0 0)
(0 -1.03232e-18 0 -1.03232e-18 2.16853e-14 0 0 0 0)
(0 1.02967e-17 0 1.02967e-17 -2.13166e-14 0 0 0 0)
(0 2.51463e-17 0 2.51463e-17 2.1002e-14 0 0 0 0)
(0 -3.91753e-17 0 -3.91753e-17 -2.05839e-14 0 0 0 0)
(0 7.46448e-18 0 7.46448e-18 2.03048e-14 0 0 0 0)
(0 2.44051e-17 0 2.44051e-17 -1.9843e-14 0 0 0 0)
(0 -4.73544e-17 0 -4.73544e-17 1.95766e-14 0 0 0 0)
(0 -3.43313e-17 0 -3.43313e-17 -1.91003e-14 0 0 0 0)
(0 4.59251e-17 0 4.59251e-17 1.88134e-14 0 0 0 0)
(0 1.4876e-17 0 1.4876e-17 -1.83459e-14 0 0 0 0)
(0 2.88521e-17 0 2.88521e-17 1.8025e-14 0 0 0 0)
(0 3.86459e-17 0 3.86459e-17 -1.7545e-14 0 0 0 0)
(0 -3.63695e-17 0 -3.63695e-17 1.72183e-14 0 0 0 0)
(0 -1.094e-16 0 -1.094e-16 -1.67392e-14 0 0 0 0)
(0 -1.84441e-16 0 -1.84441e-16 1.63491e-14 0 0 0 0)
(0 -3.82674e-16 0 -3.82674e-16 -1.58943e-14 0 0 0 0)
(0 -5.3866e-17 0 -5.3866e-17 1.5445e-14 0 0 0 0)
(0 3.64409e-16 0 3.64409e-16 -1.50179e-14 0 0 0 0)
(0 2.28434e-16 0 2.28434e-16 1.45028e-14 0 0 0 0)
(0 9.25119e-17 0 9.25119e-17 -1.40359e-14 0 0 0 0)
(0 2.44581e-17 0 2.44581e-17 1.35343e-14 0 0 0 0)
(0 3.89635e-17 0 3.89635e-17 -1.30451e-14 0 0 0 0)
(0 9.02619e-18 0 9.02619e-18 1.24259e-14 0 0 0 0)
(0 -2.48551e-17 0 -2.48551e-17 -1.1983e-14 0 0 0 0)
(0 -9.20619e-17 0 -9.20619e-17 1.12312e-14 0 0 0 0)
(0 1.91641e-17 0 1.91641e-17 -1.08377e-14 0 0 0 0)
(0 1.72027e-16 0 1.72027e-16 9.89892e-15 0 0 0 0)
(0 1.00691e-16 0 1.00691e-16 -9.54686e-15 0 0 0 0)
(0 -5.9107e-17 0 -5.9107e-17 8.42047e-15 0 0 0 0)
(0 -1.04026e-16 0 -1.04026e-16 -8.00531e-15 0 0 0 0)
(0 -8.44386e-17 0 -8.44386e-17 6.65031e-15 0 0 0 0)
(0 -4.7778e-17 0 -4.7778e-17 -6.07328e-15 0 0 0 0)
(0 3.12343e-17 0 3.12343e-17 4.35981e-15 0 0 0 0)
(0 -9.52118e-17 0 -9.52118e-17 -2.47879e-15 0 0 0 0)
(0 -1.16838e-16 0 -1.16838e-16 1.83426e-15 0 0 0 0)
)
;

boundaryField
{
    inandouthalf11
    {
        type            cyclic;
    }
    inandouthalf12
    {
        type            cyclic;
    }
    inandouthalf21
    {
        type            cyclic;
    }
    inandouthalf22
    {
        type            cyclic;
    }
    inandouthalf31
    {
        type            cyclic;
    }
    inandouthalf32
    {
        type            cyclic;
    }
    inandouthalf41
    {
        type            cyclic;
    }
    inandouthalf42
    {
        type            cyclic;
    }
    top
    {
        type            symmetryPlane;
    }
    walls
    {
        type            zeroGradient;
    }
    frontAndBackPlanes
    {
        type            empty;
    }
}


// ************************************************************************* //
