/*--------------------------------*- C++ -*----------------------------------*\
| =========                 |                                                 |
| \\      /  F ield         | OpenFOAM: The Open Source CFD Toolbox           |
|  \\    /   O peration     | Version:  2.4.x                                 |
|   \\  /    A nd           | Web:      www.OpenFOAM.org                      |
|    \\/     M anipulation  |                                                 |
\*---------------------------------------------------------------------------*/
FoamFile
{
    version     2.0;
    format      ascii;
    class       volTensorField;
    location    "11.35";
    object      Taus;
}
// * * * * * * * * * * * * * * * * * * * * * * * * * * * * * * * * * * * * * //

dimensions      [0 2 -2 0 0 0 0];

internalField   nonuniform List<tensor> 
360
(
(0 -0.0308219 0 -0.0308219 -0.204026 0 0 0 0)
(0 -0.0454716 0 -0.0454716 -0.257635 0 0 0 0)
(0 -0.0545847 0 -0.0545847 -0.2597 0 0 0 0)
(0 -0.0527639 0 -0.0527639 -0.253371 0 0 0 0)
(1.9689e-17 -0.051269 0 -0.051269 -0.25088 0 0 0 0)
(3.77985e-17 -0.0511926 0 -0.0511926 -0.249861 0 0 0 0)
(3.71431e-17 -0.0512101 0 -0.0512101 -0.24849 0 0 0 0)
(0 -0.0510275 0 -0.0510275 -0.246852 0 0 0 0)
(3.62621e-17 -0.0507864 0 -0.0507864 -0.245216 0 0 0 0)
(0 -0.050541 0 -0.050541 -0.243581 0 0 0 0)
(7.14281e-17 -0.050296 0 -0.050296 -0.241943 0 0 0 0)
(0 -0.0500572 0 -0.0500572 -0.240317 0 0 0 0)
(7.13423e-17 -0.0498185 0 -0.0498185 -0.238686 0 0 0 0)
(0 -0.0495792 0 -0.0495792 -0.237056 0 0 0 0)
(0 -0.049337 0 -0.049337 -0.235421 0 0 0 0)
(0 -0.0490903 0 -0.0490903 -0.233781 0 0 0 0)
(0 -0.0488408 0 -0.0488408 -0.232137 0 0 0 0)
(7.46578e-17 -0.0485909 0 -0.0485909 -0.230493 0 0 0 0)
(0 -0.0483389 0 -0.0483389 -0.228848 0 0 0 0)
(0 -0.0480826 0 -0.0480826 -0.227191 0 0 0 0)
(0 -0.0478281 0 -0.0478281 -0.225544 0 0 0 0)
(7.93903e-17 -0.0475689 0 -0.0475689 -0.223884 0 0 0 0)
(0 -0.0473074 0 -0.0473074 -0.222224 0 0 0 0)
(0 -0.0470446 0 -0.0470446 -0.220563 0 0 0 0)
(0 -0.0467789 0 -0.0467789 -0.218896 0 0 0 0)
(8.43611e-17 -0.046512 0 -0.046512 -0.217226 0 0 0 0)
(0 -0.0462443 0 -0.0462443 -0.215558 0 0 0 0)
(0 -0.0459717 0 -0.0459717 -0.21388 0 0 0 0)
(0 -0.045698 0 -0.045698 -0.212202 0 0 0 0)
(0 -0.0454241 0 -0.0454241 -0.210524 0 0 0 0)
(0 -0.0451471 0 -0.0451471 -0.208842 0 0 0 0)
(0 -0.0448664 0 -0.0448664 -0.207149 0 0 0 0)
(0 -0.044589 0 -0.044589 -0.205472 0 0 0 0)
(0 -0.0443026 0 -0.0443026 -0.203769 0 0 0 0)
(0 -0.044019 0 -0.044019 -0.202082 0 0 0 0)
(-1.8114e-16 -0.0437324 0 -0.0437324 -0.200382 0 0 0 0)
(0 -0.0434459 0 -0.0434459 -0.198688 0 0 0 0)
(0 -0.0431539 0 -0.0431539 -0.196985 0 0 0 0)
(0 -0.0428593 0 -0.0428593 -0.195273 0 0 0 0)
(0 -0.0425706 0 -0.0425706 -0.193582 0 0 0 0)
(0 -0.0422705 0 -0.0422705 -0.191862 0 0 0 0)
(0 -0.0419723 0 -0.0419723 -0.190151 0 0 0 0)
(-1.75556e-16 -0.0416772 0 -0.0416772 -0.18845 0 0 0 0)
(0 -0.0413725 0 -0.0413725 -0.186724 0 0 0 0)
(0 -0.0410704 0 -0.0410704 -0.185013 0 0 0 0)
(0 -0.0407643 0 -0.0407643 -0.183293 0 0 0 0)
(0 -0.0404555 0 -0.0404555 -0.181565 0 0 0 0)
(0 -0.040153 0 -0.040153 -0.179855 0 0 0 0)
(0 -0.0398419 0 -0.0398419 -0.178129 0 0 0 0)
(0 -0.0395246 0 -0.0395246 -0.176391 0 0 0 0)
(-1.60765e-16 -0.0392151 0 -0.0392151 -0.174675 0 0 0 0)
(0 -0.0388996 0 -0.0388996 -0.17294 0 0 0 0)
(0 -0.0385824 0 -0.0385824 -0.171211 0 0 0 0)
(0 -0.0382631 0 -0.0382631 -0.169472 0 0 0 0)
(0 -0.0379456 0 -0.0379456 -0.167747 0 0 0 0)
(0 -0.0376205 0 -0.0376205 -0.165999 0 0 0 0)
(0 -0.0373 0 -0.0373 -0.164272 0 0 0 0)
(0 -0.0369726 0 -0.0369726 -0.162524 0 0 0 0)
(0 -0.0366472 0 -0.0366472 -0.160783 0 0 0 0)
(0 -0.0363238 0 -0.0363238 -0.159051 0 0 0 0)
(0 -0.0359908 0 -0.0359908 -0.157294 0 0 0 0)
(0 -0.0356625 0 -0.0356625 -0.155559 0 0 0 0)
(0 -0.0353288 0 -0.0353288 -0.153805 0 0 0 0)
(0 -0.0349957 0 -0.0349957 -0.15206 0 0 0 0)
(0 -0.0346616 0 -0.0346616 -0.150309 0 0 0 0)
(0 -0.0343274 0 -0.0343274 -0.148561 0 0 0 0)
(0 -0.0339893 0 -0.0339893 -0.146807 0 0 0 0)
(0 -0.0336495 0 -0.0336495 -0.145052 0 0 0 0)
(0 -0.0333117 0 -0.0333117 -0.143297 0 0 0 0)
(0 -0.0329754 0 -0.0329754 -0.14155 0 0 0 0)
(0 -0.0326306 0 -0.0326306 -0.139787 0 0 0 0)
(0 -0.0322851 0 -0.0322851 -0.138023 0 0 0 0)
(0 -0.0319462 0 -0.0319462 -0.136275 0 0 0 0)
(0 -0.0316007 0 -0.0316007 -0.134509 0 0 0 0)
(0 -0.0312544 0 -0.0312544 -0.132751 0 0 0 0)
(0 -0.0309053 0 -0.0309053 -0.130983 0 0 0 0)
(0 -0.0305593 0 -0.0305593 -0.129223 0 0 0 0)
(0 -0.0302122 0 -0.0302122 -0.12746 0 0 0 0)
(0 -0.0298625 0 -0.0298625 -0.125694 0 0 0 0)
(0 -0.029512 0 -0.029512 -0.123927 0 0 0 0)
(0 -0.0291626 0 -0.0291626 -0.122162 0 0 0 0)
(0 -0.0288112 0 -0.0288112 -0.120394 0 0 0 0)
(0 -0.0284583 0 -0.0284583 -0.118624 0 0 0 0)
(0 -0.0281051 0 -0.0281051 -0.116855 0 0 0 0)
(0 -0.0277511 0 -0.0277511 -0.115084 0 0 0 0)
(0 -0.0273965 0 -0.0273965 -0.113313 0 0 0 0)
(0 -0.0270409 0 -0.0270409 -0.11154 0 0 0 0)
(0 -0.0266854 0 -0.0266854 -0.109768 0 0 0 0)
(0 -0.0263298 0 -0.0263298 -0.107995 0 0 0 0)
(0 -0.0259734 0 -0.0259734 -0.106221 0 0 0 0)
(0 -0.0256166 0 -0.0256166 -0.104447 0 0 0 0)
(0 -0.0252595 0 -0.0252595 -0.102672 0 0 0 0)
(0 -0.0249016 0 -0.0249016 -0.100896 0 0 0 0)
(0 -0.024543 0 -0.024543 -0.0991193 0 0 0 0)
(0 -0.0241841 0 -0.0241841 -0.0973421 0 0 0 0)
(0 -0.0238249 0 -0.0238249 -0.0955644 0 0 0 0)
(0 -0.0234654 0 -0.0234654 -0.0937863 0 0 0 0)
(0 -0.0231059 0 -0.0231059 -0.0920079 0 0 0 0)
(0 -0.0227464 0 -0.0227464 -0.0902293 0 0 0 0)
(0 -0.0223869 0 -0.0223869 -0.0884503 0 0 0 0)
(0 -0.0220275 0 -0.0220275 -0.0866712 0 0 0 0)
(0 -0.0216681 0 -0.0216681 -0.0848918 0 0 0 0)
(0 -0.0213088 0 -0.0213088 -0.0831123 0 0 0 0)
(0 -0.0209497 0 -0.0209497 -0.0813326 0 0 0 0)
(0 -0.0205908 0 -0.0205908 -0.0795531 0 0 0 0)
(0 -0.0202324 0 -0.0202324 -0.0777737 0 0 0 0)
(0 -0.0198745 0 -0.0198745 -0.0759946 0 0 0 0)
(0 -0.0195172 0 -0.0195172 -0.0742161 0 0 0 0)
(0 -0.0191606 0 -0.0191606 -0.0724381 0 0 0 0)
(0 -0.0188049 0 -0.0188049 -0.070661 0 0 0 0)
(0 -0.0184503 0 -0.0184503 -0.0688848 0 0 0 0)
(0 -0.0180968 0 -0.0180968 -0.0671097 0 0 0 0)
(0 -0.0177446 0 -0.0177446 -0.0653358 0 0 0 0)
(0 -0.017394 0 -0.017394 -0.0635634 0 0 0 0)
(0 -0.0170453 0 -0.0170453 -0.0617925 0 0 0 0)
(0 -0.0166985 0 -0.0166985 -0.0600231 0 0 0 0)
(0 -0.0163541 0 -0.0163541 -0.0582553 0 0 0 0)
(0 -0.0160122 0 -0.0160122 -0.056489 0 0 0 0)
(0 -0.0156732 0 -0.0156732 -0.0547242 0 0 0 0)
(0 -0.0153373 0 -0.0153373 -0.0529607 0 0 0 0)
(0 -0.0150048 0 -0.0150048 -0.0511984 0 0 0 0)
(0 -0.0146756 0 -0.0146756 -0.0494372 0 0 0 0)
(0 -0.0143502 0 -0.0143502 -0.0476771 0 0 0 0)
(0 -0.0140285 0 -0.0140285 -0.0459183 0 0 0 0)
(0 -0.0137105 0 -0.0137105 -0.0441613 0 0 0 0)
(0 -0.0133959 0 -0.0133959 -0.0424067 0 0 0 0)
(0 -0.0130838 0 -0.0130838 -0.0406553 0 0 0 0)
(0 -0.0127728 0 -0.0127728 -0.0389078 0 0 0 0)
(0 -0.0124614 0 -0.0124614 -0.037165 0 0 0 0)
(0 -0.012149 0 -0.012149 -0.0354276 0 0 0 0)
(0 -0.0118369 0 -0.0118369 -0.0336969 0 0 0 0)
(0 -0.0115259 0 -0.0115259 -0.031974 0 0 0 0)
(0 -0.0112121 0 -0.0112121 -0.0302584 0 0 0 0)
(0 -0.0108847 0 -0.0108847 -0.0285459 0 0 0 0)
(0 -0.0105357 0 -0.0105357 -0.026831 0 0 0 0)
(0 -0.0101728 0 -0.0101728 -0.0251137 0 0 0 0)
(0 -0.00981147 0 -0.00981147 -0.0233946 0 0 0 0)
(0 -0.00945369 0 -0.00945369 -0.0216547 0 0 0 0)
(0 -0.009093 0 -0.009093 -0.0198268 0 0 0 0)
(0 -0.00881483 0 -0.00881483 -0.0177219 0 0 0 0)
(0 -0.00919473 0 -0.00919473 -0.0144157 0 0 0 0)
(0 -0.00832532 0 -0.00832532 -0.0130379 0 0 0 0)
(0 -0.00317897 0 -0.00317897 -0.00810267 0 0 0 0)
(0 -0.00396696 0 -0.00396696 -0.00838892 0 0 0 0)
(0 -0.00458151 0 -0.00458151 -0.0053625 0 0 0 0)
(0 -0.00430522 0 -0.00430522 -0.0023038 0 0 0 0)
(0 -0.00371268 0 -0.00371268 -0.000188326 0 0 0 0)
(0 -0.00218182 0 -0.00218182 9.31856e-06 0 0 0 0)
(0 -0.00239527 0 -0.00239527 3.85319e-05 0 0 0 0)
(0 -0.00313191 0 -0.00313191 4.95882e-05 0 0 0 0)
(0 -0.00283564 0 -0.00283564 2.66021e-05 0 0 0 0)
(0 -0.00253759 0 -0.00253759 2.29788e-05 0 0 0 0)
(0 -0.00240841 0 -0.00240841 2.5599e-05 0 0 0 0)
(0 -0.00242224 0 -0.00242224 3.05118e-05 0 0 0 0)
(0 -0.00255773 0 -0.00255773 3.74211e-05 0 0 0 0)
(0 -0.00280257 0 -0.00280257 4.58873e-05 0 0 0 0)
(0 -0.00314882 0 -0.00314882 5.4111e-05 0 0 0 0)
(0 -0.00359016 0 -0.00359016 5.73335e-05 0 0 0 0)
(0 -0.00411972 0 -0.00411972 4.43597e-05 0 0 0 0)
(0 -0.0047294 0 -0.0047294 -1.06874e-05 0 0 0 0)
(0 -0.00541443 0 -0.00541443 -0.000163393 0 0 0 0)
(0 -0.00617932 0 -0.00617932 -0.000509116 0 0 0 0)
(0 -0.00702485 0 -0.00702485 -0.00114957 0 0 0 0)
(0 -0.0078913 0 -0.0078913 -0.00209186 0 0 0 0)
(0 -0.00862613 0 -0.00862613 -0.00317082 0 0 0 0)
(0 -0.00908351 0 -0.00908351 -0.00415245 0 0 0 0)
(0 -0.00922229 0 -0.00922229 -0.00491118 0 0 0 0)
(0 -0.00907527 0 -0.00907527 -0.00544137 0 0 0 0)
(0 -0.00869638 0 -0.00869638 -0.00578038 0 0 0 0)
(0 -0.00813813 0 -0.00813813 -0.00596871 0 0 0 0)
(0 -0.00744452 0 -0.00744452 -0.00604047 0 0 0 0)
(0 -0.00664977 0 -0.00664977 -0.00602204 0 0 0 0)
(0 -0.00577956 0 -0.00577956 -0.00593301 0 0 0 0)
(0 -0.00485281 0 -0.00485281 -0.0057878 0 0 0 0)
(0 -0.00388333 0 -0.00388333 -0.0055971 0 0 0 0)
(0 -0.00288124 0 -0.00288124 -0.00536886 0 0 0 0)
(0 -0.00185395 0 -0.00185395 -0.00510913 0 0 0 0)
(0 -0.000806973 0 -0.000806973 -0.0048226 0 0 0 0)
(0 0.000255555 0 0.000255555 -0.00451296 0 0 0 0)
(0 0.00133044 0 0.00133044 -0.00418319 0 0 0 0)
(0 0.00241513 0 0.00241513 -0.00383575 0 0 0 0)
(0 0.00350755 0 0.00350755 -0.00347272 0 0 0 0)
(0 0.00460589 0 0.00460589 -0.00309591 0 0 0 0)
(0 0.00570853 0 0.00570853 -0.00270695 0 0 0 0)
(0 0.00681393 0 0.00681393 -0.00230734 0 0 0 0)
(0 0.00792061 0 0.00792061 -0.00189851 0 0 0 0)
(0 0.00902707 0 0.00902707 -0.00148182 0 0 0 0)
(0 0.0101318 0 0.0101318 -0.00105866 0 0 0 0)
(0 0.0112331 0 0.0112331 -0.000630386 0 0 0 0)
(0 0.0123293 0 0.0123293 -0.000198364 0 0 0 0)
(0 0.0134186 0 0.0134186 0.000236048 0 0 0 0)
(0 0.0144989 0 0.0144989 0.000671519 0 0 0 0)
(0 0.0155682 0 0.0155682 0.00110677 0 0 0 0)
(0 0.016624 0 0.016624 0.00154063 0 0 0 0)
(0 0.0176636 0 0.0176636 0.00197204 0 0 0 0)
(0 0.0186842 0 0.0186842 0.00240015 0 0 0 0)
(0 0.0196823 0 0.0196823 0.0028243 0 0 0 0)
(0 0.0206543 0 0.0206543 0.00324414 0 0 0 0)
(0 0.0215959 0 0.0215959 0.00365958 0 0 0 0)
(0 0.0225027 0 0.0225027 0.00407084 0 0 0 0)
(0 0.0233731 0 0.0233731 0.00447841 0 0 0 0)
(0 0.0242315 0 0.0242315 0.00488674 0 0 0 0)
(2.37593e-15 0.0251052 0 0.0251052 0.00530074 0 0 0 0)
(0 0.0259975 0 0.0259975 0.00572175 0 0 0 0)
(0 0.0269077 0 0.0269077 0.00615145 0 0 0 0)
(-1.30976e-15 0.0278351 0 0.0278351 0.00659188 0 0 0 0)
(0 0.0287786 0 0.0287786 0.00704541 0 0 0 0)
(1.40614e-15 0.0297375 0 0.0297375 0.00751482 0 0 0 0)
(0 0.0307107 0 0.0307107 0.00800337 0 0 0 0)
(-3.03455e-15 0.0316973 0 0.0316973 0.00851497 0 0 0 0)
(0 0.0326961 0 0.0326961 0.0090543 0 0 0 0)
(0 0.0337052 0 0.0337052 0.00962696 0 0 0 0)
(0 0.0347219 0 0.0347219 0.0102394 0 0 0 0)
(-3.58693e-15 0.0357422 0 0.0357422 0.0108989 0 0 0 0)
(0 0.03676 0 0.03676 0.0116122 0 0 0 0)
(0 0.0377667 0 0.0377667 0.0123851 0 0 0 0)
(0 0.0387508 0 0.0387508 0.01322 0 0 0 0)
(0 0.0396976 0 0.0396976 0.0141153 0 0 0 0)
(0 0.0405889 0 0.0405889 0.0150637 0 0 0 0)
(0 0.0414036 0 0.0414036 0.0160534 0 0 0 0)
(0 0.0421173 0 0.0421173 0.0170684 0 0 0 0)
(5.13498e-15 0.0427032 0 0.0427032 0.0180908 0 0 0 0)
(0 0.043132 0 0.043132 0.0191008 0 0 0 0)
(5.56074e-15 0.0433718 0 0.0433718 0.0200777 0 0 0 0)
(0 0.0433873 0 0.0433873 0.0209993 0 0 0 0)
(0 0.0431377 0 0.0431377 0.0218427 0 0 0 0)
(0 0.0425749 0 0.0425749 0.0225834 0 0 0 0)
(0 0.0416413 0 0.0416413 0.0231957 0 0 0 0)
(-6.38446e-15 0.0402637 0 0.0402637 0.0236556 0 0 0 0)
(-6.44672e-15 0.0383493 0 0.0383493 0.0239378 0 0 0 0)
(0 0.0357979 0 0.0357979 0.0240017 0 0 0 0)
(0 0.0324912 0 0.0324912 0.0238273 0 0 0 0)
(0 0.0283434 0 0.0283434 0.0231424 0 0 0 0)
(0 0.0235206 0 0.0235206 0.0213952 0 0 0 0)
(0 0.0181323 0 0.0181323 0.0163278 0 0 0 0)
(0 0.0153292 0 0.0153292 0.00950443 0 0 0 0)
(0 0 0 0 0 0 0 0 0)
(0 0 0 0 0 0 0 0 0)
(0 0 0 0 0 0 0 0 0)
(0 0 0 0 0 0 0 0 0)
(0 0 0 0 0 0 0 0 0)
(0 0 0 0 0 0 0 0 0)
(0 0 0 0 0 0 0 0 0)
(0 0 0 0 0 0 0 0 0)
(-0 0 0 0 0 0 0 0 0)
(0 0 0 0 0 0 0 0 0)
(0 0 0 0 0 0 0 0 0)
(0 0 0 0 0 0 0 0 0)
(0 0 0 0 0 0 0 0 0)
(0 0 0 0 -0 0 0 0 0)
(0 0 0 0 0 0 0 0 0)
(0 0 0 0 -0 0 0 0 0)
(0 0 0 0 -0 0 0 0 0)
(0 0 0 0 -0 0 0 0 0)
(0 0 0 0 -0 0 0 0 0)
(0 0 0 0 0 0 0 0 0)
(0 0 0 0 0 0 0 0 0)
(0 0 0 0 0 0 0 0 0)
(0 0 0 0 0 0 0 0 0)
(0 0 0 0 0 0 0 0 0)
(0 -0 0 -0 0 0 0 0 0)
(0 -0 0 -0 0 0 0 0 0)
(0 -0 0 -0 0 0 0 0 0)
(0 -0 0 -0 0 0 0 0 0)
(0 -0 0 -0 0 0 0 0 0)
(0 -0 0 -0 0 0 0 0 0)
(-0 -0 0 -0 0 0 0 0 0)
(0 -0 0 -0 0 0 0 0 0)
(0 -0 0 -0 0 0 0 0 0)
(0 -0 0 -0 0 0 0 0 0)
(0 -0 0 -0 0 0 0 0 0)
(0 -0 0 -0 0 0 0 0 0)
(0 -0 0 -0 0 0 0 0 0)
(0 -0 0 -0 0 0 0 0 0)
(0 -0 0 -0 0 0 0 0 0)
(0 -0 0 -0 0 0 0 0 0)
(0 -0 0 -0 0 0 0 0 0)
(0 -0 0 -0 0 0 0 0 0)
(0 -0 0 -0 0 0 0 0 0)
(0 -0 0 -0 0 0 0 0 0)
(0 0 0 0 0 0 0 0 0)
(0 0 0 0 0 0 0 0 0)
(0 0 0 0 -0 0 0 0 0)
(0 0 0 0 0 0 0 0 0)
(0 0 0 0 -0 0 0 0 0)
(0 0 0 0 0 0 0 0 0)
(-0 0 0 0 -0 0 0 0 0)
(0 0 0 0 0 0 0 0 0)
(0 0 0 0 -0 0 0 0 0)
(0 0 0 0 0 0 0 0 0)
(0 0 0 0 -0 0 0 0 0)
(0 0 0 0 0 0 0 0 0)
(0 0 0 0 -0 0 0 0 0)
(0 -0 0 -0 0 0 0 0 0)
(0 0 0 0 -0 0 0 0 0)
(0 -0 0 -0 0 0 0 0 0)
(-0 0 0 0 -0 0 0 0 0)
(0 -0 0 -0 0 0 0 0 0)
(0 0 0 0 -0 0 0 0 0)
(0 -0 0 -0 0 0 0 0 0)
(0 0 0 0 -0 0 0 0 0)
(0 -0 0 -0 0 0 0 0 0)
(0 0 0 0 -0 0 0 0 0)
(0 -0 0 -0 0 0 0 0 0)
(0 0 0 0 -0 0 0 0 0)
(0 -0 0 -0 0 0 0 0 0)
(0 0 0 0 -0 0 0 0 0)
(0 0 0 0 0 0 0 0 0)
(0 0 0 0 -0 0 0 0 0)
(0 -0 0 -0 0 0 0 0 0)
(0 -0 0 -0 -0 0 0 0 0)
(0 -0 0 -0 0 0 0 0 0)
(0 0 0 0 -0 0 0 0 0)
(0 -0 0 -0 0 0 0 0 0)
(0 0 0 0 -0 0 0 0 0)
(0 -0 0 -0 0 0 0 0 0)
(0 0 0 0 -0 0 0 0 0)
(0 -0 0 -0 0 0 0 0 0)
(0 0 0 0 -0 0 0 0 0)
(0 -0 0 -0 0 0 0 0 0)
(0 0 0 0 -0 0 0 0 0)
(0 -0 0 -0 0 0 0 0 0)
(0 0 0 0 -0 0 0 0 0)
(0 -0 0 -0 0 0 0 0 0)
(0 0 0 0 -0 0 0 0 0)
(0 -0 0 -0 0 0 0 0 0)
(0 0 0 0 -0 0 0 0 0)
(0 -0 0 -0 0 0 0 0 0)
(0 0 0 0 -0 0 0 0 0)
(0 -0 0 -0 0 0 0 0 0)
(0 0 0 0 -0 0 0 0 0)
(0 -0 0 -0 0 0 0 0 0)
(0 0 0 0 -0 0 0 0 0)
(0 -0 0 -0 0 0 0 0 0)
(0 0 0 0 -0 0 0 0 0)
(0 -0 0 -0 0 0 0 0 0)
(0 0 0 0 -0 0 0 0 0)
(0 -0 0 -0 0 0 0 0 0)
(0 0 0 0 -0 0 0 0 0)
(0 -0 0 -0 0 0 0 0 0)
(0 -0 0 -0 -0 0 0 0 0)
(0 -0 0 -0 0 0 0 0 0)
(0 0 0 0 -0 0 0 0 0)
(0 0 0 0 0 0 0 0 0)
(0 0 0 0 -0 0 0 0 0)
(0 -0 0 -0 0 0 0 0 0)
(0 0 0 0 -0 0 0 0 0)
(0 -0 0 -0 0 0 0 0 0)
(0 0 0 0 -0 0 0 0 0)
(0 -0 0 -0 0 0 0 0 0)
(0 0 0 0 -0 0 0 0 0)
(0 0 0 0 0 0 0 0 0)
(0 0 0 0 -0 0 0 0 0)
(0 0 0 0 0 0 0 0 0)
(0 0 0 0 0 0 0 0 0)
(0 0 0 0 0 0 0 0 0)
(0 0 0 0 0 0 0 0 0)
(0 0 0 0 0 0 0 0 0)
(0 0 0 0 0 0 0 0 0)
(0 0 0 0 0 0 0 0 0)
)
;

boundaryField
{
    inandouthalf11
    {
        type            cyclic;
    }
    inandouthalf12
    {
        type            cyclic;
    }
    inandouthalf21
    {
        type            cyclic;
    }
    inandouthalf22
    {
        type            cyclic;
    }
    inandouthalf31
    {
        type            cyclic;
    }
    inandouthalf32
    {
        type            cyclic;
    }
    inandouthalf41
    {
        type            cyclic;
    }
    inandouthalf42
    {
        type            cyclic;
    }
    top
    {
        type            symmetryPlane;
    }
    walls
    {
        type            zeroGradient;
    }
    frontAndBackPlanes
    {
        type            empty;
    }
}


// ************************************************************************* //
