/*--------------------------------*- C++ -*----------------------------------*\
| =========                 |                                                 |
| \\      /  F ield         | OpenFOAM: The Open Source CFD Toolbox           |
|  \\    /   O peration     | Version:  2.4.x                                 |
|   \\  /    A nd           | Web:      www.OpenFOAM.org                      |
|    \\/     M anipulation  |                                                 |
\*---------------------------------------------------------------------------*/
FoamFile
{
    version     2.0;
    format      ascii;
    class       volVectorField;
    location    "11.35";
    object      U;
}
// * * * * * * * * * * * * * * * * * * * * * * * * * * * * * * * * * * * * * //

dimensions      [0 1 -1 0 0 0 0];

internalField   nonuniform List<vector> 
360
(
(-5.26349e-05 1.03486e-09 0)
(-5.22262e-05 -1.95884e-10 0)
(-5.21768e-05 -1.71693e-10 0)
(-5.22304e-05 2.62596e-11 0)
(-5.22566e-05 5.15012e-11 0)
(-5.22664e-05 1.8208e-11 0)
(-5.22784e-05 4.45838e-12 0)
(-5.22932e-05 3.65377e-12 0)
(-5.23084e-05 2.9691e-12 0)
(-5.23238e-05 8.08665e-13 0)
(-5.23392e-05 -2.00567e-12 0)
(-5.23547e-05 -5.0629e-12 0)
(-5.23702e-05 -7.83359e-12 0)
(-5.23859e-05 -1.01551e-11 0)
(-5.24016e-05 -1.19879e-11 0)
(-5.24175e-05 -1.34137e-11 0)
(-5.24335e-05 -1.45476e-11 0)
(-5.24496e-05 -1.53681e-11 0)
(-5.24658e-05 -1.58775e-11 0)
(-5.24821e-05 -1.60151e-11 0)
(-5.24985e-05 -1.60075e-11 0)
(-5.2515e-05 -1.56311e-11 0)
(-5.25316e-05 -1.51079e-11 0)
(-5.25483e-05 -1.44745e-11 0)
(-5.25652e-05 -1.37122e-11 0)
(-5.25821e-05 -1.28566e-11 0)
(-5.25992e-05 -1.19635e-11 0)
(-5.26165e-05 -1.09397e-11 0)
(-5.26338e-05 -9.99801e-12 0)
(-5.26513e-05 -9.04767e-12 0)
(-5.26689e-05 -8.1217e-12 0)
(-5.26868e-05 -7.04516e-12 0)
(-5.27046e-05 -6.34389e-12 0)
(-5.27229e-05 -5.22689e-12 0)
(-5.27411e-05 -4.58609e-12 0)
(-5.27596e-05 -3.72819e-12 0)
(-5.27782e-05 -3.02583e-12 0)
(-5.27971e-05 -2.3152e-12 0)
(-5.28162e-05 -1.51374e-12 0)
(-5.28352e-05 -1.24944e-12 0)
(-5.28548e-05 -4.22816e-13 0)
(-5.28744e-05 4.76178e-14 0)
(-5.28941e-05 2.55808e-13 0)
(-5.29143e-05 1.00905e-12 0)
(-5.29345e-05 1.22805e-12 0)
(-5.29551e-05 1.52023e-12 0)
(-5.29759e-05 1.93573e-12 0)
(-5.29967e-05 1.91529e-12 0)
(-5.30179e-05 2.28164e-12 0)
(-5.30396e-05 2.77995e-12 0)
(-5.30611e-05 2.48323e-12 0)
(-5.30832e-05 2.84122e-12 0)
(-5.31054e-05 2.83731e-12 0)
(-5.31279e-05 3.1077e-12 0)
(-5.31506e-05 2.82195e-12 0)
(-5.31738e-05 3.30624e-12 0)
(-5.3197e-05 2.88559e-12 0)
(-5.32207e-05 3.09973e-12 0)
(-5.32446e-05 3.05584e-12 0)
(-5.32687e-05 2.65577e-12 0)
(-5.32934e-05 3.21899e-12 0)
(-5.33181e-05 2.72733e-12 0)
(-5.33434e-05 2.9519e-12 0)
(-5.33689e-05 2.67379e-12 0)
(-5.33947e-05 2.63134e-12 0)
(-5.34208e-05 2.41096e-12 0)
(-5.34474e-05 2.38403e-12 0)
(-5.34743e-05 2.227e-12 0)
(-5.35015e-05 2.07349e-12 0)
(-5.3529e-05 1.69514e-12 0)
(-5.35571e-05 1.88213e-12 0)
(-5.35856e-05 1.96478e-12 0)
(-5.36142e-05 1.20304e-12 0)
(-5.36435e-05 1.55082e-12 0)
(-5.36731e-05 1.21056e-12 0)
(-5.37033e-05 1.27306e-12 0)
(-5.37337e-05 7.71603e-13 0)
(-5.37647e-05 5.84744e-13 0)
(-5.37961e-05 4.61357e-13 0)
(-5.3828e-05 3.5043e-13 0)
(-5.38604e-05 3.26007e-14 0)
(-5.38933e-05 -3.00492e-14 0)
(-5.39267e-05 -1.04128e-13 0)
(-5.39607e-05 -2.85967e-13 0)
(-5.39952e-05 -4.10427e-13 0)
(-5.40303e-05 -6.42024e-13 0)
(-5.4066e-05 -8.07792e-13 0)
(-5.41023e-05 -1.09042e-12 0)
(-5.41391e-05 -1.3558e-12 0)
(-5.41767e-05 -1.55113e-12 0)
(-5.42149e-05 -1.74194e-12 0)
(-5.42537e-05 -1.93652e-12 0)
(-5.42933e-05 -2.05633e-12 0)
(-5.43336e-05 -2.18875e-12 0)
(-5.43747e-05 -2.33901e-12 0)
(-5.44166e-05 -2.49745e-12 0)
(-5.44593e-05 -2.66536e-12 0)
(-5.45028e-05 -2.83887e-12 0)
(-5.45472e-05 -2.99897e-12 0)
(-5.45925e-05 -3.12189e-12 0)
(-5.46388e-05 -3.20523e-12 0)
(-5.4686e-05 -3.23891e-12 0)
(-5.47343e-05 -3.21369e-12 0)
(-5.47836e-05 -3.13717e-12 0)
(-5.4834e-05 -3.01428e-12 0)
(-5.48855e-05 -2.84835e-12 0)
(-5.49383e-05 -2.65026e-12 0)
(-5.49923e-05 -2.4354e-12 0)
(-5.50476e-05 -2.22385e-12 0)
(-5.51042e-05 -2.04382e-12 0)
(-5.51623e-05 -1.93024e-12 0)
(-5.52219e-05 -1.92072e-12 0)
(-5.5283e-05 -2.05191e-12 0)
(-5.53457e-05 -2.35327e-12 0)
(-5.54101e-05 -2.83858e-12 0)
(-5.54763e-05 -3.49708e-12 0)
(-5.55443e-05 -4.285e-12 0)
(-5.56143e-05 -5.11839e-12 0)
(-5.56864e-05 -5.87115e-12 0)
(-5.57606e-05 -6.37996e-12 0)
(-5.58372e-05 -6.45507e-12 0)
(-5.59162e-05 -5.89445e-12 0)
(-5.59977e-05 -4.49917e-12 0)
(-5.6082e-05 -2.08662e-12 0)
(-5.61692e-05 1.49911e-12 0)
(-5.62595e-05 6.36956e-12 0)
(-5.63531e-05 1.25496e-11 0)
(-5.64503e-05 1.98766e-11 0)
(-5.65515e-05 2.77908e-11 0)
(-5.6657e-05 3.49822e-11 0)
(-5.6767e-05 3.89819e-11 0)
(-5.68818e-05 3.59571e-11 0)
(-5.70021e-05 2.11831e-11 0)
(-5.71293e-05 -9.51468e-12 0)
(-5.72649e-05 -5.70657e-11 0)
(-5.74091e-05 -1.13618e-10 0)
(-5.75613e-05 -1.57384e-10 0)
(-5.77234e-05 -1.65798e-10 0)
(-5.79025e-05 -1.34908e-10 0)
(-5.81065e-05 -6.79798e-11 0)
(-5.83269e-05 -5.80508e-11 0)
(-5.85874e-05 -2.25536e-09 0)
(-6.04057e-05 3.13749e-09 0)
(-6.01336e-05 1.73895e-09 0)
(-6.04685e-05 -6.23836e-08 0)
(-6.10251e-05 3.59446e-07 0)
(-6.16208e-05 -1.3162e-06 0)
(-0.000126925 5.31929e-06 0)
(-0.0498825 -1.45161e-05 0)
(-0.174138 -9.47174e-05 0)
(-0.27514 2.03004e-05 0)
(-0.355327 -3.67401e-06 0)
(-0.421401 -4.92898e-06 0)
(-0.477019 -3.33206e-06 0)
(-0.52451 -2.25632e-06 0)
(-0.56548 -1.62651e-06 0)
(-0.601073 -1.11678e-06 0)
(-0.632109 -6.6497e-07 0)
(-0.659168 -2.70406e-07 0)
(-0.682655 5.33591e-08 0)
(-0.702848 2.5548e-07 0)
(-0.71996 2.98511e-07 0)
(-0.734186 2.51891e-07 0)
(-0.74576 2.33433e-07 0)
(-0.754975 2.31829e-07 0)
(-0.762172 1.90793e-07 0)
(-0.767711 1.30319e-07 0)
(-0.771926 8.23284e-08 0)
(-0.775103 5.27101e-08 0)
(-0.777471 3.53056e-08 0)
(-0.779209 2.45793e-08 0)
(-0.780454 1.75839e-08 0)
(-0.781306 1.28501e-08 0)
(-0.781842 9.56019e-09 0)
(-0.782119 7.21842e-09 0)
(-0.782181 5.5143e-09 0)
(-0.782063 4.24861e-09 0)
(-0.78179 3.2937e-09 0)
(-0.781383 2.5633e-09 0)
(-0.780858 1.99786e-09 0)
(-0.78023 1.55551e-09 0)
(-0.779508 1.20655e-09 0)
(-0.778703 9.29111e-10 0)
(-0.777822 7.07304e-10 0)
(-0.776872 5.28953e-10 0)
(-0.775858 3.8512e-10 0)
(-0.774785 2.68698e-10 0)
(-0.773659 1.74411e-10 0)
(-0.772482 9.79789e-11 0)
(-0.771259 3.61522e-11 0)
(-0.769992 -1.37233e-11 0)
(-0.768685 -5.37123e-11 0)
(-0.76734 -8.55127e-11 0)
(-0.76596 -1.1048e-10 0)
(-0.764547 -1.2974e-10 0)
(-0.763104 -1.44217e-10 0)
(-0.761631 -1.54689e-10 0)
(-0.760132 -1.6182e-10 0)
(-0.758608 -1.66178e-10 0)
(-0.75706 -1.68221e-10 0)
(-0.755491 -1.68047e-10 0)
(-0.753885 -1.72754e-10 0)
(-0.752226 -1.78417e-10 0)
(-0.750514 -1.81052e-10 0)
(-0.748748 -1.84222e-10 0)
(-0.746927 -1.85149e-10 0)
(-0.745051 -1.86342e-10 0)
(-0.743119 -1.85746e-10 0)
(-0.741131 -1.85099e-10 0)
(-0.739087 -1.82918e-10 0)
(-0.736985 -1.8033e-10 0)
(-0.734826 -1.76364e-10 0)
(-0.732609 -1.71697e-10 0)
(-0.730334 -1.66002e-10 0)
(-0.728001 -1.59709e-10 0)
(-0.72561 -1.53019e-10 0)
(-0.723162 -1.46303e-10 0)
(-0.720655 -1.3979e-10 0)
(-0.718092 -1.33536e-10 0)
(-0.715471 -1.27402e-10 0)
(-0.712793 -1.21191e-10 0)
(-0.71006 -1.1478e-10 0)
(-0.707272 -1.08174e-10 0)
(-0.704429 -1.01303e-10 0)
(-0.701534 -9.38188e-11 0)
(-0.698587 -8.59975e-11 0)
(-0.695591 -7.91222e-11 0)
(-0.692546 -7.15564e-11 0)
(-0.689456 -6.20914e-11 0)
(-0.686322 -5.78647e-11 0)
(-0.683147 -4.54588e-11 0)
(-0.679935 -9.38827e-13 0)
(-0.676689 -7.31109e-11 0)
(-0.673413 -6.40511e-11 0)
(-0.670111 -2.36519e-10 0)
(-0.66679 3.5191e-10 0)
(-0.663453 -2.67757e-10 0)
(-0.660108 2.45134e-10 0)
(-0.656763 -7.30217e-11 0)
(-0.653424 -1.98316e-11 0)
(-0.650102 -2.54189e-11 0)
(-0.646806 -1.61036e-11 0)
(-0.643547 -4.9725e-11 0)
(-0.640339 6.91805e-11 0)
(-0.637193 -1.42663e-10 0)
(-0.634127 1.66356e-10 0)
(-0.631157 -1.85565e-10 0)
(-0.6283 1.73587e-10 0)
(-0.625577 -1.27902e-10 0)
(-0.623008 1.06835e-10 0)
(-0.620614 -6.60581e-11 0)
(-0.618417 5.5831e-11 0)
(-0.616439 2.86342e-12 0)
(-0.614696 1.66876e-11 0)
(-0.613205 8.36964e-13 0)
(-0.611975 1.32644e-12 0)
(-0.611011 2.24326e-12 0)
(-0.61031 2.24366e-12 0)
(-0.609864 2.0406e-12 0)
(-0.609657 1.88688e-12 0)
(-0.60967 1.75914e-12 0)
(-0.609881 1.63318e-12 0)
(-0.610268 1.51026e-12 0)
(-0.610808 1.39501e-12 0)
(-0.611477 1.28925e-12 0)
(-0.612256 1.18903e-12 0)
(-0.613123 1.11982e-12 0)
(-0.614059 1.18376e-12 0)
(-0.615042 1.29312e-12 0)
(-0.616054 -3.34349e-12 0)
(-0.617075 1.53533e-11 0)
(-0.618085 -3.22343e-11 0)
(-0.61906 6.19675e-11 0)
(-0.619978 -9.87653e-11 0)
(-0.620807 1.48144e-10 0)
(-0.621511 -2.03193e-10 0)
(-0.621963 2.66936e-10 0)
(-0.622058 -3.3206e-10 0)
(-0.622061 4.01469e-10 0)
(-0.622061 -4.70287e-10 0)
(-0.622061 5.42416e-10 0)
(-0.622061 -6.14251e-10 0)
(-0.622061 6.8922e-10 0)
(-0.622061 -7.64268e-10 0)
(-0.622061 8.4229e-10 0)
(-0.622061 -9.20723e-10 0)
(-0.622061 1.00197e-09 0)
(-0.622061 -1.08391e-09 0)
(-0.622061 1.16854e-09 0)
(-0.622061 -1.25411e-09 0)
(-0.622061 1.3422e-09 0)
(-0.622061 -1.43148e-09 0)
(-0.622061 1.52312e-09 0)
(-0.622061 -1.61615e-09 0)
(-0.622061 1.71138e-09 0)
(-0.622061 -1.80817e-09 0)
(-0.622061 1.90705e-09 0)
(-0.622061 -2.00758e-09 0)
(-0.622061 2.11008e-09 0)
(-0.622061 -2.21429e-09 0)
(-0.622061 2.32041e-09 0)
(-0.622061 -2.42821e-09 0)
(-0.622061 2.53787e-09 0)
(-0.622061 -2.64916e-09 0)
(-0.622061 2.76225e-09 0)
(-0.622061 -2.87689e-09 0)
(-0.622061 2.99323e-09 0)
(-0.622061 -3.11102e-09 0)
(-0.622061 3.23041e-09 0)
(-0.622061 -3.3511e-09 0)
(-0.622061 3.05047e-09 0)
(-0.622061 -3.10331e-09 0)
(-0.622061 3.15567e-09 0)
(-0.622061 -3.20723e-09 0)
(-0.622061 3.25834e-09 0)
(-0.622061 -3.30861e-09 0)
(-0.622061 3.35844e-09 0)
(-0.622061 -3.40741e-09 0)
(-0.622061 3.45595e-09 0)
(-0.622061 -3.5036e-09 0)
(-0.622061 3.55083e-09 0)
(-0.622061 -3.59714e-09 0)
(-0.622061 3.64305e-09 0)
(-0.622061 -3.68798e-09 0)
(-0.622061 3.73254e-09 0)
(-0.622061 -3.77608e-09 0)
(-0.622061 3.81928e-09 0)
(-0.622061 -3.86135e-09 0)
(-0.622061 3.90329e-09 0)
(-0.622061 -3.94369e-09 0)
(-0.622061 3.98451e-09 0)
(-0.622061 -4.02306e-09 0)
(-0.622061 4.06282e-09 0)
(-0.622061 -4.09946e-09 0)
(-0.622061 4.13807e-09 0)
(-0.622061 -4.17284e-09 0)
(-0.622061 4.21017e-09 0)
(-0.622061 -4.24302e-09 0)
(-0.622061 4.27904e-09 0)
(-0.622061 -4.30998e-09 0)
(-0.622061 4.34444e-09 0)
(-0.622061 -4.37356e-09 0)
(-0.622061 4.40622e-09 0)
(-0.622061 -4.43363e-09 0)
(-0.622061 4.46423e-09 0)
(-0.622061 -4.48977e-09 0)
(-0.622061 4.51837e-09 0)
(-0.622061 -4.54195e-09 0)
(-0.622061 4.56807e-09 0)
(-0.622061 -4.58988e-09 0)
(-0.622061 4.613e-09 0)
(-0.622061 -4.63324e-09 0)
(-0.622061 4.65259e-09 0)
(-0.622061 -4.67142e-09 0)
(-0.622061 4.68627e-09 0)
(-0.622061 -4.70344e-09 0)
(-0.622061 4.71288e-09 0)
(-0.622061 -4.72774e-09 0)
(-0.622061 4.73032e-09 0)
(-0.622061 -4.73765e-09 0)
)
;

boundaryField
{
    inandouthalf11
    {
        type            cyclic;
    }
    inandouthalf12
    {
        type            cyclic;
    }
    inandouthalf21
    {
        type            cyclic;
    }
    inandouthalf22
    {
        type            cyclic;
    }
    inandouthalf31
    {
        type            cyclic;
    }
    inandouthalf32
    {
        type            cyclic;
    }
    inandouthalf41
    {
        type            cyclic;
    }
    inandouthalf42
    {
        type            cyclic;
    }
    top
    {
        type            symmetryPlane;
    }
    walls
    {
        type            calculated;
        value           uniform (0 0 0);
    }
    frontAndBackPlanes
    {
        type            empty;
    }
}


// ************************************************************************* //
