/*--------------------------------*- C++ -*----------------------------------*\
| =========                 |                                                 |
| \\      /  F ield         | OpenFOAM: The Open Source CFD Toolbox           |
|  \\    /   O peration     | Version:  2.4.x                                 |
|   \\  /    A nd           | Web:      www.OpenFOAM.org                      |
|    \\/     M anipulation  |                                                 |
\*---------------------------------------------------------------------------*/
FoamFile
{
    version     2.0;
    format      ascii;
    class       volVectorField;
    location    "11.35";
    object      Ub;
}
// * * * * * * * * * * * * * * * * * * * * * * * * * * * * * * * * * * * * * //

dimensions      [0 1 -1 0 0 0 0];

internalField   nonuniform List<vector> 
360
(
(-0.000135271 2.65959e-09 0)
(-0.000134518 9.41692e-09 0)
(-0.000134418 1.73901e-08 0)
(-0.000134522 2.50367e-08 0)
(-0.000134572 3.27896e-08 0)
(-0.000134589 4.08453e-08 0)
(-0.00013461 4.90929e-08 0)
(-0.000134638 5.74264e-08 0)
(-0.000134665 6.58047e-08 0)
(-0.000134694 7.42096e-08 0)
(-0.000134722 8.26206e-08 0)
(-0.00013475 9.10086e-08 0)
(-0.000134779 9.93433e-08 0)
(-0.000134807 1.07596e-07 0)
(-0.000134836 1.15743e-07 0)
(-0.000134866 1.23766e-07 0)
(-0.000134895 1.31647e-07 0)
(-0.000134925 1.39377e-07 0)
(-0.000134955 1.46945e-07 0)
(-0.000134985 1.54346e-07 0)
(-0.000135015 1.61579e-07 0)
(-0.000135046 1.68643e-07 0)
(-0.000135077 1.75541e-07 0)
(-0.000135108 1.82279e-07 0)
(-0.000135139 1.88863e-07 0)
(-0.000135171 1.953e-07 0)
(-0.000135203 2.01598e-07 0)
(-0.000135235 2.07768e-07 0)
(-0.000135268 2.13817e-07 0)
(-0.000135301 2.19757e-07 0)
(-0.000135334 2.25596e-07 0)
(-0.000135368 2.31345e-07 0)
(-0.000135401 2.37012e-07 0)
(-0.000135436 2.42607e-07 0)
(-0.00013547 2.48139e-07 0)
(-0.000135505 2.53615e-07 0)
(-0.00013554 2.59043e-07 0)
(-0.000135576 2.64431e-07 0)
(-0.000135612 2.69786e-07 0)
(-0.000135648 2.75113e-07 0)
(-0.000135685 2.8042e-07 0)
(-0.000135722 2.85712e-07 0)
(-0.00013576 2.90991e-07 0)
(-0.000135798 2.96265e-07 0)
(-0.000135836 3.01536e-07 0)
(-0.000135875 3.06809e-07 0)
(-0.000135915 3.12086e-07 0)
(-0.000135954 3.17369e-07 0)
(-0.000135995 3.22661e-07 0)
(-0.000136036 3.27966e-07 0)
(-0.000136077 3.33282e-07 0)
(-0.000136118 3.38614e-07 0)
(-0.000136161 3.43961e-07 0)
(-0.000136203 3.49324e-07 0)
(-0.000136246 3.54703e-07 0)
(-0.000136291 3.60101e-07 0)
(-0.000136335 3.65515e-07 0)
(-0.00013638 3.70947e-07 0)
(-0.000136425 3.76395e-07 0)
(-0.000136471 3.81857e-07 0)
(-0.000136518 3.87336e-07 0)
(-0.000136565 3.92828e-07 0)
(-0.000136613 3.98335e-07 0)
(-0.000136661 4.03855e-07 0)
(-0.000136711 4.09388e-07 0)
(-0.00013676 4.1493e-07 0)
(-0.000136811 4.20481e-07 0)
(-0.000136862 4.2604e-07 0)
(-0.000136914 4.31604e-07 0)
(-0.000136966 4.37171e-07 0)
(-0.00013702 4.42741e-07 0)
(-0.000137074 4.48313e-07 0)
(-0.000137129 4.53882e-07 0)
(-0.000137185 4.59451e-07 0)
(-0.000137241 4.65015e-07 0)
(-0.000137299 4.70574e-07 0)
(-0.000137357 4.76126e-07 0)
(-0.000137416 4.81668e-07 0)
(-0.000137476 4.87198e-07 0)
(-0.000137537 4.92713e-07 0)
(-0.000137599 4.98211e-07 0)
(-0.000137661 5.03691e-07 0)
(-0.000137725 5.09152e-07 0)
(-0.00013779 5.14591e-07 0)
(-0.000137856 5.20008e-07 0)
(-0.000137924 5.254e-07 0)
(-0.000137992 5.30766e-07 0)
(-0.000138061 5.36103e-07 0)
(-0.000138132 5.41408e-07 0)
(-0.000138204 5.46679e-07 0)
(-0.000138277 5.51913e-07 0)
(-0.000138351 5.57109e-07 0)
(-0.000138427 5.62265e-07 0)
(-0.000138505 5.67379e-07 0)
(-0.000138584 5.7245e-07 0)
(-0.000138664 5.77475e-07 0)
(-0.000138746 5.82455e-07 0)
(-0.00013883 5.87386e-07 0)
(-0.000138915 5.92268e-07 0)
(-0.000139002 5.97098e-07 0)
(-0.000139091 6.01875e-07 0)
(-0.000139182 6.06599e-07 0)
(-0.000139275 6.11269e-07 0)
(-0.000139369 6.15886e-07 0)
(-0.000139466 6.20451e-07 0)
(-0.000139566 6.24965e-07 0)
(-0.000139667 6.2943e-07 0)
(-0.000139771 6.33848e-07 0)
(-0.000139878 6.38221e-07 0)
(-0.000139987 6.42553e-07 0)
(-0.000140099 6.46844e-07 0)
(-0.000140214 6.51097e-07 0)
(-0.000140331 6.55311e-07 0)
(-0.000140452 6.59486e-07 0)
(-0.000140576 6.63619e-07 0)
(-0.000140704 6.67706e-07 0)
(-0.000140835 6.71741e-07 0)
(-0.00014097 6.75717e-07 0)
(-0.000141109 6.79626e-07 0)
(-0.000141252 6.83461e-07 0)
(-0.0001414 6.8722e-07 0)
(-0.000141552 6.90903e-07 0)
(-0.00014171 6.94518e-07 0)
(-0.000141872 6.9808e-07 0)
(-0.00014204 7.01615e-07 0)
(-0.000142214 7.05162e-07 0)
(-0.000142395 7.08771e-07 0)
(-0.000142582 7.12509e-07 0)
(-0.000142777 7.16451e-07 0)
(-0.00014298 7.20676e-07 0)
(-0.000143191 7.25255e-07 0)
(-0.000143412 7.3022e-07 0)
(-0.000143643 7.35534e-07 0)
(-0.000143886 7.4105e-07 0)
(-0.000144146 7.46475e-07 0)
(-0.000144423 7.51355e-07 0)
(-0.000144715 7.55167e-07 0)
(-0.000145027 7.57539e-07 0)
(-0.000145373 7.58468e-07 0)
(-0.000145767 7.58335e-07 0)
(-0.000146193 7.57483e-07 0)
(-0.000146696 7.50747e-07 0)
(-0.000150193 7.55504e-07 0)
(-0.000149671 7.54196e-07 0)
(-0.000150313 5.93195e-07 0)
(-0.000151379 1.64003e-06 0)
(-0.000152555 -2.52237e-06 0)
(-0.000311571 1.38048e-05 0)
(-0.0520065 -8.72977e-05 0)
(-0.177536 -0.000552204 0)
(-0.277461 -0.000396964 0)
(-0.356904 -0.000384649 0)
(-0.422522 -0.000339599 0)
(-0.477845 -0.000289101 0)
(-0.52514 -0.000239606 0)
(-0.565979 -0.000193453 0)
(-0.601479 -0.000151998 0)
(-0.632446 -0.000116058 0)
(-0.65945 -8.58755e-05 0)
(-0.682888 -6.12291e-05 0)
(-0.703039 -4.15875e-05 0)
(-0.720111 -2.63135e-05 0)
(-0.734304 -1.48739e-05 0)
(-0.745851 -6.84542e-06 0)
(-0.755044 -1.67383e-06 0)
(-0.762227 1.4334e-06 0)
(-0.767756 3.25401e-06 0)
(-0.771963 4.3227e-06 0)
(-0.775133 4.94507e-06 0)
(-0.777497 5.29036e-06 0)
(-0.779231 5.45732e-06 0)
(-0.780473 5.50686e-06 0)
(-0.781322 5.47782e-06 0)
(-0.781856 5.3956e-06 0)
(-0.782132 5.27721e-06 0)
(-0.782193 5.13429e-06 0)
(-0.782074 4.97499e-06 0)
(-0.781799 4.8051e-06 0)
(-0.781392 4.62882e-06 0)
(-0.780866 4.44919e-06 0)
(-0.780237 4.26848e-06 0)
(-0.779515 4.08834e-06 0)
(-0.77871 3.91003e-06 0)
(-0.777828 3.73448e-06 0)
(-0.776877 3.56238e-06 0)
(-0.775863 3.39425e-06 0)
(-0.77479 3.23047e-06 0)
(-0.773663 3.07131e-06 0)
(-0.772486 2.91696e-06 0)
(-0.771263 2.76754e-06 0)
(-0.769996 2.62316e-06 0)
(-0.768688 2.48383e-06 0)
(-0.767343 2.34959e-06 0)
(-0.765963 2.22042e-06 0)
(-0.76455 2.09631e-06 0)
(-0.763106 1.97719e-06 0)
(-0.761634 1.86303e-06 0)
(-0.760134 1.75377e-06 0)
(-0.75861 1.64931e-06 0)
(-0.757062 1.54959e-06 0)
(-0.755493 1.45451e-06 0)
(-0.753886 1.36304e-06 0)
(-0.752228 1.27435e-06 0)
(-0.750515 1.18857e-06 0)
(-0.748749 1.10578e-06 0)
(-0.746928 1.02607e-06 0)
(-0.745052 9.49497e-07 0)
(-0.74312 8.76125e-07 0)
(-0.741132 8.05995e-07 0)
(-0.739087 7.39143e-07 0)
(-0.736985 6.75598e-07 0)
(-0.734826 6.15385e-07 0)
(-0.732609 5.58527e-07 0)
(-0.730334 5.05041e-07 0)
(-0.728001 4.54939e-07 0)
(-0.72561 4.08217e-07 0)
(-0.723162 3.64855e-07 0)
(-0.720655 3.24809e-07 0)
(-0.718091 2.88005e-07 0)
(-0.715471 2.54342e-07 0)
(-0.712793 2.2369e-07 0)
(-0.71006 1.95899e-07 0)
(-0.707271 1.70804e-07 0)
(-0.704429 1.48229e-07 0)
(-0.701534 1.28001e-07 0)
(-0.698587 1.0995e-07 0)
(-0.69559 9.39146e-08 0)
(-0.692546 7.97408e-08 0)
(-0.689455 6.72864e-08 0)
(-0.686322 5.64149e-08 0)
(-0.683147 4.69908e-08 0)
(-0.679935 3.88812e-08 0)
(-0.676689 3.18454e-08 0)
(-0.673413 2.55191e-08 0)
(-0.670111 1.96122e-08 0)
(-0.66679 1.45831e-08 0)
(-0.663453 1.1043e-08 0)
(-0.660108 8.48857e-09 0)
(-0.656763 6.34501e-09 0)
(-0.653425 4.59654e-09 0)
(-0.650102 3.23119e-09 0)
(-0.646806 2.19752e-09 0)
(-0.643547 1.43602e-09 0)
(-0.640339 8.91907e-10 0)
(-0.637193 5.19774e-10 0)
(-0.634127 2.75389e-10 0)
(-0.631157 1.25734e-10 0)
(-0.6283 4.1639e-11 0)
(-0.625577 -6.30016e-13 0)
(-0.623008 -1.31344e-11 0)
(-0.620614 -1.22363e-11 0)
(-0.618417 -9.0943e-12 0)
(-0.616439 1.02396e-11 0)
(-0.614696 1.66876e-11 0)
(-0.613205 8.36964e-13 0)
(-0.611975 1.32644e-12 0)
(-0.611011 2.24326e-12 0)
(-0.61031 2.24366e-12 0)
(-0.609864 2.0406e-12 0)
(-0.609657 1.88688e-12 0)
(-0.60967 1.75914e-12 0)
(-0.609881 1.63318e-12 0)
(-0.610268 1.51026e-12 0)
(-0.610808 1.39501e-12 0)
(-0.611477 1.28925e-12 0)
(-0.612256 1.18903e-12 0)
(-0.613123 1.11982e-12 0)
(-0.614059 1.18376e-12 0)
(-0.615042 1.29312e-12 0)
(-0.616054 -3.34349e-12 0)
(-0.617075 1.53533e-11 0)
(-0.618085 -3.22343e-11 0)
(-0.61906 6.19675e-11 0)
(-0.619978 -9.87653e-11 0)
(-0.620807 1.48144e-10 0)
(-0.621511 -2.03193e-10 0)
(-0.621963 2.66936e-10 0)
(-0.622058 -3.3206e-10 0)
(-0.622061 4.01469e-10 0)
(-0.622061 -4.70287e-10 0)
(-0.622061 5.42416e-10 0)
(-0.622061 -6.14251e-10 0)
(-0.622061 6.8922e-10 0)
(-0.622061 -7.64268e-10 0)
(-0.622061 8.4229e-10 0)
(-0.622061 -9.20723e-10 0)
(-0.622061 1.00197e-09 0)
(-0.622061 -1.08391e-09 0)
(-0.622061 1.16854e-09 0)
(-0.622061 -1.25411e-09 0)
(-0.622061 1.3422e-09 0)
(-0.622061 -1.43148e-09 0)
(-0.622061 1.52312e-09 0)
(-0.622061 -1.61615e-09 0)
(-0.622061 1.71138e-09 0)
(-0.622061 -1.80817e-09 0)
(-0.622061 1.90705e-09 0)
(-0.622061 -2.00758e-09 0)
(-0.622061 2.11008e-09 0)
(-0.622061 -2.21429e-09 0)
(-0.622061 2.32041e-09 0)
(-0.622061 -2.42821e-09 0)
(-0.622061 2.53787e-09 0)
(-0.622061 -2.64916e-09 0)
(-0.622061 2.76225e-09 0)
(-0.622061 -2.87689e-09 0)
(-0.622061 2.99323e-09 0)
(-0.622061 -3.11102e-09 0)
(-0.622061 3.23041e-09 0)
(-0.622061 -3.3511e-09 0)
(-0.622061 3.05047e-09 0)
(-0.622061 -3.10331e-09 0)
(-0.622061 3.15567e-09 0)
(-0.622061 -3.20723e-09 0)
(-0.622061 3.25834e-09 0)
(-0.622061 -3.30861e-09 0)
(-0.622061 3.35844e-09 0)
(-0.622061 -3.40741e-09 0)
(-0.622061 3.45595e-09 0)
(-0.622061 -3.5036e-09 0)
(-0.622061 3.55083e-09 0)
(-0.622061 -3.59714e-09 0)
(-0.622061 3.64305e-09 0)
(-0.622061 -3.68798e-09 0)
(-0.622061 3.73254e-09 0)
(-0.622061 -3.77608e-09 0)
(-0.622061 3.81928e-09 0)
(-0.622061 -3.86135e-09 0)
(-0.622061 3.90329e-09 0)
(-0.622061 -3.94369e-09 0)
(-0.622061 3.98451e-09 0)
(-0.622061 -4.02306e-09 0)
(-0.622061 4.06282e-09 0)
(-0.622061 -4.09946e-09 0)
(-0.622061 4.13807e-09 0)
(-0.622061 -4.17284e-09 0)
(-0.622061 4.21017e-09 0)
(-0.622061 -4.24302e-09 0)
(-0.622061 4.27904e-09 0)
(-0.622061 -4.30998e-09 0)
(-0.622061 4.34444e-09 0)
(-0.622061 -4.37356e-09 0)
(-0.622061 4.40622e-09 0)
(-0.622061 -4.43363e-09 0)
(-0.622061 4.46423e-09 0)
(-0.622061 -4.48977e-09 0)
(-0.622061 4.51837e-09 0)
(-0.622061 -4.54195e-09 0)
(-0.622061 4.56807e-09 0)
(-0.622061 -4.58988e-09 0)
(-0.622061 4.613e-09 0)
(-0.622061 -4.63324e-09 0)
(-0.622061 4.65259e-09 0)
(-0.622061 -4.67142e-09 0)
(-0.622061 4.68627e-09 0)
(-0.622061 -4.70344e-09 0)
(-0.622061 4.71288e-09 0)
(-0.622061 -4.72774e-09 0)
(-0.622061 4.73032e-09 0)
(-0.622061 -4.73765e-09 0)
)
;

boundaryField
{
    inandouthalf11
    {
        type            cyclic;
    }
    inandouthalf12
    {
        type            cyclic;
    }
    inandouthalf21
    {
        type            cyclic;
    }
    inandouthalf22
    {
        type            cyclic;
    }
    inandouthalf31
    {
        type            cyclic;
    }
    inandouthalf32
    {
        type            cyclic;
    }
    inandouthalf41
    {
        type            cyclic;
    }
    inandouthalf42
    {
        type            cyclic;
    }
    top
    {
        type            symmetryPlane;
    }
    walls
    {
        type            fixedValue;
        value           uniform (0 0 0);
    }
    frontAndBackPlanes
    {
        type            empty;
    }
}


// ************************************************************************* //
