/*--------------------------------*- C++ -*----------------------------------*\
| =========                 |                                                 |
| \\      /  F ield         | OpenFOAM: The Open Source CFD Toolbox           |
|  \\    /   O peration     | Version:  2.4.x                                 |
|   \\  /    A nd           | Web:      www.OpenFOAM.org                      |
|    \\/     M anipulation  |                                                 |
\*---------------------------------------------------------------------------*/
FoamFile
{
    version     2.0;
    format      ascii;
    class       volVectorField;
    location    "11.35";
    object      Ur;
}
// * * * * * * * * * * * * * * * * * * * * * * * * * * * * * * * * * * * * * //

dimensions      [0 1 -1 0 0 0 0];

internalField   nonuniform List<vector> 
360
(
(-0.000135271 2.65959e-09 0)
(-0.000134516 1.57133e-08 0)
(-0.000134414 2.87029e-08 0)
(-0.000134516 4.08827e-08 0)
(-0.000134564 5.35183e-08 0)
(-0.000134579 6.67431e-08 0)
(-0.000134598 8.02509e-08 0)
(-0.000134623 9.38793e-08 0)
(-0.000134649 1.07582e-07 0)
(-0.000134675 1.21332e-07 0)
(-0.000134701 1.35093e-07 0)
(-0.000134727 1.48819e-07 0)
(-0.000134753 1.62458e-07 0)
(-0.00013478 1.75964e-07 0)
(-0.000134807 1.89296e-07 0)
(-0.000134834 2.02425e-07 0)
(-0.000134861 2.15325e-07 0)
(-0.000134889 2.27977e-07 0)
(-0.000134916 2.40364e-07 0)
(-0.000134945 2.52481e-07 0)
(-0.000134973 2.64321e-07 0)
(-0.000135002 2.75887e-07 0)
(-0.000135031 2.87182e-07 0)
(-0.00013506 2.98216e-07 0)
(-0.00013509 3.08999e-07 0)
(-0.00013512 3.19542e-07 0)
(-0.00013515 3.29859e-07 0)
(-0.000135181 3.39966e-07 0)
(-0.000135212 3.49879e-07 0)
(-0.000135243 3.59613e-07 0)
(-0.000135274 3.69183e-07 0)
(-0.000135307 3.78606e-07 0)
(-0.000135339 3.87896e-07 0)
(-0.000135371 3.9707e-07 0)
(-0.000135404 4.06141e-07 0)
(-0.000135438 4.15122e-07 0)
(-0.000135471 4.24026e-07 0)
(-0.000135505 4.32866e-07 0)
(-0.00013554 4.41653e-07 0)
(-0.000135575 4.50396e-07 0)
(-0.00013561 4.59106e-07 0)
(-0.000135646 4.67792e-07 0)
(-0.000135682 4.76461e-07 0)
(-0.000135719 4.8512e-07 0)
(-0.000135755 4.93777e-07 0)
(-0.000135793 5.02437e-07 0)
(-0.000135831 5.11107e-07 0)
(-0.000135869 5.19788e-07 0)
(-0.000135908 5.28484e-07 0)
(-0.000135947 5.37202e-07 0)
(-0.000135986 5.45942e-07 0)
(-0.000136027 5.54707e-07 0)
(-0.000136067 5.63498e-07 0)
(-0.000136109 5.72319e-07 0)
(-0.00013615 5.81167e-07 0)
(-0.000136193 5.90046e-07 0)
(-0.000136235 5.98954e-07 0)
(-0.000136279 6.07892e-07 0)
(-0.000136323 6.16859e-07 0)
(-0.000136367 6.25851e-07 0)
(-0.000136412 6.34871e-07 0)
(-0.000136457 6.43915e-07 0)
(-0.000136504 6.52986e-07 0)
(-0.000136551 6.6208e-07 0)
(-0.000136598 6.71195e-07 0)
(-0.000136646 6.80329e-07 0)
(-0.000136695 6.89479e-07 0)
(-0.000136745 6.98643e-07 0)
(-0.000136795 7.0782e-07 0)
(-0.000136846 7.17001e-07 0)
(-0.000136897 7.2619e-07 0)
(-0.00013695 7.35384e-07 0)
(-0.000137003 7.44577e-07 0)
(-0.000137057 7.5377e-07 0)
(-0.000137112 7.62958e-07 0)
(-0.000137168 7.72142e-07 0)
(-0.000137224 7.81315e-07 0)
(-0.000137281 7.90474e-07 0)
(-0.00013734 7.99615e-07 0)
(-0.000137399 8.08735e-07 0)
(-0.000137459 8.1783e-07 0)
(-0.00013752 8.26898e-07 0)
(-0.000137582 8.35937e-07 0)
(-0.000137646 8.44943e-07 0)
(-0.00013771 8.53916e-07 0)
(-0.000137775 8.62851e-07 0)
(-0.000137842 8.71745e-07 0)
(-0.00013791 8.80596e-07 0)
(-0.000137979 8.89397e-07 0)
(-0.000138049 8.98146e-07 0)
(-0.00013812 9.06838e-07 0)
(-0.000138193 9.1547e-07 0)
(-0.000138267 9.24039e-07 0)
(-0.000138343 9.32544e-07 0)
(-0.00013842 9.40981e-07 0)
(-0.000138499 9.49348e-07 0)
(-0.000138579 9.57643e-07 0)
(-0.000138661 9.65863e-07 0)
(-0.000138745 9.74005e-07 0)
(-0.00013883 9.82067e-07 0)
(-0.000138918 9.90047e-07 0)
(-0.000139007 9.97943e-07 0)
(-0.000139098 1.00576e-06 0)
(-0.000139191 1.01349e-06 0)
(-0.000139287 1.02113e-06 0)
(-0.000139385 1.0287e-06 0)
(-0.000139485 1.0362e-06 0)
(-0.000139587 1.04362e-06 0)
(-0.000139692 1.05098e-06 0)
(-0.000139799 1.05827e-06 0)
(-0.00013991 1.0655e-06 0)
(-0.000140023 1.07268e-06 0)
(-0.000140139 1.0798e-06 0)
(-0.000140258 1.08686e-06 0)
(-0.000140381 1.09386e-06 0)
(-0.000140507 1.10079e-06 0)
(-0.000140637 1.10765e-06 0)
(-0.00014077 1.11441e-06 0)
(-0.000140907 1.12107e-06 0)
(-0.000141049 1.12762e-06 0)
(-0.000141195 1.13406e-06 0)
(-0.000141346 1.14037e-06 0)
(-0.000141502 1.14659e-06 0)
(-0.000141663 1.15272e-06 0)
(-0.000141829 1.15882e-06 0)
(-0.000142002 1.16495e-06 0)
(-0.000142181 1.1712e-06 0)
(-0.000142366 1.17766e-06 0)
(-0.000142559 1.18448e-06 0)
(-0.00014276 1.19179e-06 0)
(-0.000142969 1.1997e-06 0)
(-0.000143187 1.20828e-06 0)
(-0.000143415 1.21748e-06 0)
(-0.000143656 1.22707e-06 0)
(-0.000143912 1.23657e-06 0)
(-0.000144186 1.24522e-06 0)
(-0.000144476 1.25211e-06 0)
(-0.000144786 1.25659e-06 0)
(-0.000145131 1.25867e-06 0)
(-0.000145524 1.25902e-06 0)
(-0.00014595 1.25831e-06 0)
(-0.000146453 1.25163e-06 0)
(-0.000149949 1.2565e-06 0)
(-0.000149428 1.25576e-06 0)
(-0.000150069 1.09502e-06 0)
(-0.000151135 2.14203e-06 0)
(-0.00015231 -2.02026e-06 0)
(-0.000311322 1.43069e-05 0)
(-0.0054353 -0.000186248 0)
(-0.0138767 -0.00186807 0)
(-0.0123822 -0.00222576 0)
(-0.0105896 -0.00255729 0)
(-0.00950382 -0.00283821 0)
(-0.00899541 -0.00311295 0)
(-0.00899886 -0.00338772 0)
(-0.00950606 -0.00365829 0)
(-0.0105255 -0.00391257 0)
(-0.0120564 -0.00413009 0)
(-0.014065 -0.00428107 0)
(-0.0164609 -0.00432312 0)
(-0.0190832 -0.0041932 0)
(-0.0217067 -0.0038057 0)
(-0.024076 -0.00308416 0)
(-0.025966 -0.00202867 0)
(-0.0272485 -0.000742532 0)
(-0.02792 0.00063025 0)
(-0.0280712 0.00197978 0)
(-0.0278322 0.00324877 0)
(-0.0273312 0.00441495 0)
(-0.0266745 0.00547363 0)
(-0.0259413 0.0064281 0)
(-0.0251865 0.00728501 0)
(-0.0244458 0.00805202 0)
(-0.0237411 0.00873681 0)
(-0.0230841 0.00934661 0)
(-0.0224802 0.00988804 0)
(-0.0219302 0.0103671 0)
(-0.0214323 0.0107892 0)
(-0.020983 0.0111593 0)
(-0.0205776 0.0114817 0)
(-0.0202112 0.0117604 0)
(-0.0198784 0.0119991 0)
(-0.0195741 0.0122009 0)
(-0.0192932 0.012369 0)
(-0.0190306 0.0125062 0)
(-0.0187818 0.0126148 0)
(-0.0185424 0.0126974 0)
(-0.018308 0.0127562 0)
(-0.0180748 0.0127931 0)
(-0.0178391 0.0128101 0)
(-0.0175974 0.012809 0)
(-0.0173465 0.0127915 0)
(-0.0170831 0.0127592 0)
(-0.0168044 0.0127136 0)
(-0.0165076 0.0126562 0)
(-0.01619 0.0125882 0)
(-0.0158492 0.0125109 0)
(-0.0154826 0.0124255 0)
(-0.015088 0.012333 0)
(-0.0146632 0.0122344 0)
(-0.014206 0.0121306 0)
(-0.0137098 0.0120213 0)
(-0.0131673 0.0119059 0)
(-0.0125763 0.0117849 0)
(-0.0119343 0.0116586 0)
(-0.0112389 0.0115275 0)
(-0.0104874 0.0113919 0)
(-0.00967747 0.0112523 0)
(-0.00880648 0.0111088 0)
(-0.00787197 0.0109619 0)
(-0.00687152 0.0108116 0)
(-0.00580279 0.0106582 0)
(-0.0046636 0.0105017 0)
(-0.00345191 0.0103423 0)
(-0.00216587 0.0101799 0)
(-0.000803845 0.0100143 0)
(0.000635574 0.00984556 0)
(0.00215356 0.00967342 0)
(0.00375108 0.00949787 0)
(0.00542886 0.00931894 0)
(0.00718745 0.00913675 0)
(0.00902722 0.00895155 0)
(0.0109484 0.00876365 0)
(0.0129509 0.00857344 0)
(0.0150346 0.0083813 0)
(0.0171993 0.00818768 0)
(0.0194445 0.00799294 0)
(0.0217696 0.00779745 0)
(0.0241744 0.00760148 0)
(0.0266589 0.00740513 0)
(0.0292236 0.00720831 0)
(0.0318703 0.00701097 0)
(0.0346025 0.00681237 0)
(0.0374243 0.00661551 0)
(0.0403389 0.00642958 0)
(0.043347 0.00630031 0)
(0.0463151 0.00621877 0)
(-0.0043239 0.00529898 0)
(-0.00425555 0.00505043 0)
(-0.00428322 0.00450269 0)
(-0.00430441 0.00399078 0)
(-0.00432411 0.00345922 0)
(-0.00433657 0.0030097 0)
(-0.00436107 0.00219903 0)
(-0.00434298 0.00239175 0)
(-0.00438182 0.000538159 0)
(-0.00432061 0.00221516 0)
(-0.00432619 -0.00132011 0)
(-0.00429649 0.00206225 0)
(-0.00424105 -0.00280185 0)
(-0.0042367 0.00257978 0)
(-0.0040929 -0.00473257 0)
(-0.00419073 0.00383461 0)
(-0.00311707 0.0341295 0)
(-0.00287423 0.0396362 0)
(-0.00292088 0.0395958 0)
(-0.00284653 0.0395903 0)
(-0.00279296 0.0395826 0)
(-0.00272742 0.0395761 0)
(-0.00266456 0.0395709 0)
(-0.00262949 0.0395654 0)
(-0.00258894 0.0395615 0)
(-0.00255516 0.0395583 0)
(-0.00252697 0.0395558 0)
(-0.00250401 0.0395541 0)
(-0.00248588 0.0395528 0)
(-0.0024722 0.0395519 0)
(-0.00246263 0.0395514 0)
(-0.0024569 0.0395509 0)
(-0.00245479 0.0395505 0)
(-0.00245613 0.0395501 0)
(-0.00246089 0.0395496 0)
(-0.00246916 0.0395487 0)
(-0.0024813 0.0395474 0)
(-0.00249775 0.0395455 0)
(-0.00251316 0.0395416 0)
(-0.00257956 0.0395351 0)
(-0.00259911 0.0395309 0)
(-0.00259991 0.03953 0)
(-0.00259992 0.03953 0)
(-0.00259992 0.03953 0)
(-0.00259992 0.03953 0)
(-0.00259992 0.03953 0)
(-0.00259992 0.03953 0)
(-0.00259992 0.03953 0)
(-0.00259992 0.03953 0)
(-0.00259992 0.03953 0)
(-0.00259992 0.03953 0)
(-0.00259992 0.03953 0)
(-0.00259992 0.03953 0)
(-0.00259992 0.03953 0)
(-0.00259992 0.03953 0)
(-0.00259992 0.03953 0)
(-0.00259992 0.03953 0)
(-0.00259992 0.03953 0)
(-0.00259992 0.03953 0)
(-0.00259992 0.03953 0)
(-0.00259992 0.03953 0)
(-0.00259992 0.03953 0)
(-0.00259992 0.03953 0)
(-0.00259992 0.03953 0)
(-0.00259992 0.03953 0)
(-0.00259992 0.03953 0)
(-0.00259992 0.03953 0)
(-0.00259992 0.03953 0)
(-0.00259992 0.03953 0)
(-0.00259992 0.03953 0)
(-0.00259992 0.03953 0)
(-0.00259992 0.03953 0)
(-0.00259992 0.03953 0)
(-0.00259992 0.03953 0)
(-0.00259992 0.03953 0)
(-0.00259992 0.03953 0)
(-0.00259992 0.03953 0)
(-0.00259992 0.03953 0)
(-0.00259992 0.03953 0)
(-0.00259992 0.03953 0)
(-0.00259992 0.03953 0)
(-0.00259992 0.03953 0)
(-0.00259992 0.03953 0)
(-0.00259992 0.03953 0)
(-0.00259992 0.03953 0)
(-0.00259992 0.03953 0)
(-0.00259992 0.03953 0)
(-0.00259992 0.03953 0)
(-0.00259992 0.03953 0)
(-0.00259992 0.03953 0)
(-0.00259992 0.03953 0)
(-0.00259992 0.03953 0)
(-0.00259992 0.03953 0)
(-0.00259992 0.03953 0)
(-0.00259992 0.03953 0)
(-0.00259992 0.03953 0)
(-0.00259992 0.03953 0)
(-0.00259992 0.03953 0)
(-0.00259992 0.03953 0)
(-0.00259992 0.03953 0)
(-0.00259992 0.03953 0)
(-0.00259992 0.03953 0)
(-0.00259992 0.03953 0)
(-0.00259992 0.03953 0)
(-0.00259992 0.03953 0)
(-0.00259992 0.03953 0)
(-0.00259992 0.03953 0)
(-0.00259992 0.03953 0)
(-0.00259992 0.03953 0)
(-0.00259992 0.03953 0)
(-0.00259992 0.03953 0)
(-0.00259992 0.03953 0)
(-0.00259992 0.03953 0)
(-0.00259992 0.03953 0)
(-0.00259992 0.03953 0)
(-0.00259992 0.03953 0)
(-0.00259992 0.03953 0)
(-0.00259992 0.03953 0)
(-0.00259992 0.03953 0)
(-0.00259995 0.0395298 0)
(-0.00260071 0.0395213 0)
(-0.00261902 0.0391762 0)
(-0.00304098 0.0224601 0)
)
;

boundaryField
{
    inandouthalf11
    {
        type            cyclic;
    }
    inandouthalf12
    {
        type            cyclic;
    }
    inandouthalf21
    {
        type            cyclic;
    }
    inandouthalf22
    {
        type            cyclic;
    }
    inandouthalf31
    {
        type            cyclic;
    }
    inandouthalf32
    {
        type            cyclic;
    }
    inandouthalf41
    {
        type            cyclic;
    }
    inandouthalf42
    {
        type            cyclic;
    }
    top
    {
        type            symmetryPlane;
    }
    walls
    {
        type            calculated;
        value           uniform (0 0 0);
    }
    frontAndBackPlanes
    {
        type            empty;
    }
}


// ************************************************************************* //
