/*--------------------------------*- C++ -*----------------------------------*\
| =========                 |                                                 |
| \\      /  F ield         | OpenFOAM: The Open Source CFD Toolbox           |
|  \\    /   O peration     | Version:  2.4.x                                 |
|   \\  /    A nd           | Web:      www.OpenFOAM.org                      |
|    \\/     M anipulation  |                                                 |
\*---------------------------------------------------------------------------*/
FoamFile
{
    version     2.0;
    format      ascii;
    class       volScalarField;
    location    "8";
    object      alpha;
}
// * * * * * * * * * * * * * * * * * * * * * * * * * * * * * * * * * * * * * //

dimensions      [0 0 0 0 0 0 0];

internalField   nonuniform List<scalar> 
360
(
0.61083
0.611666
0.611762
0.611675
0.61163
0.611615
0.611597
0.611575
0.611552
0.611528
0.611505
0.611481
0.611458
0.611434
0.61141
0.611386
0.611361
0.611336
0.611311
0.611286
0.611261
0.611235
0.61121
0.611184
0.611157
0.611131
0.611104
0.611077
0.61105
0.611022
0.610994
0.610966
0.610938
0.610909
0.61088
0.610851
0.610822
0.610792
0.610761
0.610731
0.6107
0.610669
0.610638
0.610606
0.610574
0.610541
0.610508
0.610475
0.610442
0.610407
0.610373
0.610338
0.610303
0.610267
0.610232
0.610195
0.610158
0.61012
0.610083
0.610045
0.610006
0.609966
0.609926
0.609886
0.609845
0.609804
0.609762
0.609719
0.609676
0.609633
0.609589
0.609543
0.609498
0.609452
0.609405
0.609357
0.609309
0.60926
0.60921
0.60916
0.609109
0.609057
0.609003
0.60895
0.608895
0.608839
0.608782
0.608725
0.608666
0.608607
0.608546
0.608484
0.608421
0.608357
0.608291
0.608225
0.608157
0.608087
0.608016
0.607944
0.60787
0.607795
0.607718
0.607639
0.607558
0.607475
0.607391
0.607304
0.607216
0.607125
0.607032
0.606936
0.606838
0.606737
0.606633
0.606527
0.606418
0.606305
0.606189
0.60607
0.605947
0.60582
0.605689
0.605554
0.605415
0.605271
0.605121
0.604966
0.604804
0.604636
0.60446
0.604278
0.604086
0.603885
0.603671
0.603446
0.60321
0.602959
0.602682
0.602365
0.602022
0.601691
0.601293
0.60078
0.60014
0.598905
0.597112
0.59452
0.440373
0.258695
0.188851
0.147097
0.114726
0.0877889
0.0653676
0.0472252
0.0330703
0.0224727
0.0148711
0.00964504
0.00619155
0.00399006
0.00263293
0.00181552
0.00132085
0.00101
0.000803746
0.000659433
0.000553807
0.000473605
0.00041086
0.000360553
0.000319392
0.000285135
0.00025621
0.000231482
0.000210116
0.000191483
0.000175101
0.000160595
0.000147669
0.000136085
0.000125654
0.000116218
0.000107648
9.98361e-05
9.26916e-05
8.61377e-05
8.0109e-05
7.45493e-05
6.941e-05
6.46487e-05
6.02281e-05
5.61153e-05
5.22806e-05
4.86977e-05
4.53428e-05
4.21942e-05
3.9233e-05
3.64427e-05
3.38097e-05
3.12978e-05
2.88786e-05
2.65501e-05
2.43119e-05
2.21658e-05
2.0115e-05
1.81637e-05
1.63168e-05
1.45787e-05
1.29539e-05
1.14462e-05
1.00596e-05
8.79594e-06
7.65194e-06
6.62334e-06
5.70782e-06
4.89871e-06
4.18601e-06
3.56146e-06
3.01755e-06
2.54783e-06
2.14292e-06
1.79391e-06
1.49645e-06
1.24367e-06
1.02886e-06
8.47306e-07
6.94496e-07
5.65913e-07
4.58798e-07
3.68459e-07
2.97333e-07
2.39455e-07
1.91419e-07
1.28052e-07
8.98463e-08
6.78035e-08
4.71609e-08
3.21089e-08
1.98676e-08
1.1242e-08
4.4669e-09
2.30657e-19
4.04594e-30
1.47127e-40
6.00645e-41
4.67814e-41
3.51813e-41
2.05806e-41
8.56115e-42
4.10346e-42
2.28809e-42
1.41105e-42
9.39974e-43
5.92531e-43
2.78332e-43
1.31745e-43
6.97358e-44
3.88922e-44
2.1904e-44
1.08348e-44
5.37928e-45
2.73473e-45
1.37189e-45
6.7806e-46
3.29634e-46
1.57537e-46
7.39755e-47
3.41114e-47
1.54368e-47
6.8516e-48
2.98067e-48
1.27006e-48
5.2966e-49
2.16023e-49
8.60936e-50
3.3499e-50
1.27139e-50
4.70195e-51
1.69267e-51
5.92472e-52
2.0139e-52
6.63921e-53
2.11978e-53
6.54484e-54
1.95085e-54
5.60388e-55
1.54824e-55
4.10524e-56
1.04222e-56
2.52676e-57
5.83286e-58
1.27788e-58
2.64722e-59
5.16368e-60
9.43872e-61
1.60781e-61
2.53567e-62
3.67392e-63
4.84492e-64
5.7487e-65
6.04893e-66
5.53875e-67
4.30181e-68
2.73188e-69
1.33979e-70
4.58456e-72
8.66569e-74
2.2916e-76
2.96891e-81
2.48517e-83
1.03136e-85
3.62829e-96
6.38175e-107
8.14033e-118
7.47049e-129
5.87387e-140
3.50576e-151
1.80566e-162
1.22296e-172
5.30208e-183
3.98078e-191
1.56859e-201
1.36922e-209
6.33903e-220
4.71154e-228
2.67729e-238
1.62258e-246
1.70567e-256
5.68536e-265
1.12545e-274
2.04209e-283
5.56739e-293
7.50007e-302
2.66139e-311
1.76798e-318
8.52757e-321
4.57737e-319
2.8055e-319
6.80328e-321
7.09478e-321
6.08689e-321
8.5424e-321
0
0
0
0
0
0
0
0
0
0
0
0
0
0
0
0
)
;

boundaryField
{
    inandouthalf11
    {
        type            cyclic;
    }
    inandouthalf12
    {
        type            cyclic;
    }
    inandouthalf21
    {
        type            cyclic;
    }
    inandouthalf22
    {
        type            cyclic;
    }
    inandouthalf31
    {
        type            cyclic;
    }
    inandouthalf32
    {
        type            cyclic;
    }
    inandouthalf41
    {
        type            cyclic;
    }
    inandouthalf42
    {
        type            cyclic;
    }
    top
    {
        type            symmetryPlane;
    }
    walls
    {
        type            zeroGradient;
    }
    frontAndBackPlanes
    {
        type            empty;
    }
}


// ************************************************************************* //
