/*--------------------------------*- C++ -*----------------------------------*\
| =========                 |                                                 |
| \\      /  F ield         | OpenFOAM: The Open Source CFD Toolbox           |
|  \\    /   O peration     | Version:  2.4.x                                 |
|   \\  /    A nd           | Web:      www.OpenFOAM.org                      |
|    \\/     M anipulation  |                                                 |
\*---------------------------------------------------------------------------*/
FoamFile
{
    version     2.0;
    format      ascii;
    class       volScalarField;
    location    "8";
    object      alpha_0;
}
// * * * * * * * * * * * * * * * * * * * * * * * * * * * * * * * * * * * * * //

dimensions      [0 0 0 0 0 0 0];

internalField   nonuniform List<scalar> 
360
(
0.61083
0.611666
0.611762
0.611675
0.61163
0.611615
0.611597
0.611575
0.611552
0.611528
0.611505
0.611481
0.611458
0.611434
0.61141
0.611386
0.611361
0.611336
0.611311
0.611286
0.611261
0.611235
0.61121
0.611183
0.611157
0.611131
0.611104
0.611077
0.61105
0.611022
0.610994
0.610966
0.610938
0.610909
0.61088
0.610851
0.610822
0.610792
0.610761
0.610731
0.6107
0.610669
0.610638
0.610606
0.610574
0.610541
0.610508
0.610475
0.610442
0.610407
0.610373
0.610338
0.610303
0.610267
0.610232
0.610195
0.610158
0.61012
0.610083
0.610045
0.610005
0.609966
0.609926
0.609886
0.609845
0.609804
0.609762
0.609719
0.609676
0.609633
0.609589
0.609543
0.609498
0.609452
0.609405
0.609357
0.609309
0.60926
0.60921
0.60916
0.609109
0.609056
0.609003
0.60895
0.608895
0.608839
0.608782
0.608725
0.608666
0.608607
0.608546
0.608484
0.608421
0.608357
0.608291
0.608225
0.608157
0.608087
0.608016
0.607944
0.60787
0.607795
0.607718
0.607639
0.607558
0.607475
0.607391
0.607304
0.607216
0.607125
0.607032
0.606936
0.606838
0.606737
0.606633
0.606527
0.606418
0.606305
0.606189
0.60607
0.605947
0.60582
0.605689
0.605554
0.605415
0.605271
0.605121
0.604966
0.604804
0.604636
0.60446
0.604278
0.604086
0.603885
0.603671
0.603446
0.60321
0.602959
0.602682
0.602365
0.602022
0.601691
0.601293
0.60078
0.60014
0.598905
0.597112
0.594526
0.440635
0.258756
0.18884
0.147067
0.114688
0.0877472
0.0653258
0.0471863
0.0330365
0.0224451
0.0148499
0.00962973
0.00618106
0.00398325
0.00262874
0.00181304
0.00131938
0.00100909
0.000803166
0.000659045
0.000553539
0.000473415
0.000410721
0.000360451
0.000319316
0.000285077
0.000256166
0.000231448
0.00021009
0.000191463
0.000175086
0.000160583
0.00014766
0.000136079
0.000125649
0.000116215
0.000107646
9.98344e-05
9.26905e-05
8.61372e-05
8.01088e-05
7.45494e-05
6.94103e-05
6.46491e-05
6.02286e-05
5.61158e-05
5.22812e-05
4.86983e-05
4.53433e-05
4.21948e-05
3.92335e-05
3.64431e-05
3.38101e-05
3.12981e-05
2.88788e-05
2.65502e-05
2.4312e-05
2.21657e-05
2.01149e-05
1.81636e-05
1.63166e-05
1.45784e-05
1.29536e-05
1.14458e-05
1.00592e-05
8.79563e-06
7.65164e-06
6.62306e-06
5.70756e-06
4.89848e-06
4.1858e-06
3.56127e-06
3.01739e-06
2.54769e-06
2.1428e-06
1.79381e-06
1.49637e-06
1.2436e-06
1.0288e-06
8.47259e-07
6.94458e-07
5.65882e-07
4.58773e-07
3.68438e-07
2.97318e-07
2.39443e-07
1.91406e-07
1.28038e-07
8.98345e-08
6.78006e-08
4.71547e-08
3.21074e-08
1.98631e-08
1.12415e-08
4.46339e-09
2.30304e-19
4.0385e-30
1.4725e-40
6.01825e-41
4.68542e-41
3.52563e-41
2.06647e-41
8.6002e-42
4.11828e-42
2.29498e-42
1.41456e-42
9.42056e-43
5.94243e-43
2.79459e-43
1.32189e-43
6.99504e-44
3.90024e-44
2.19681e-44
1.08712e-44
5.39625e-45
2.74325e-45
1.37618e-45
6.80187e-46
3.30669e-46
1.58033e-46
7.42085e-47
3.42189e-47
1.54856e-47
6.87327e-48
2.99011e-48
1.27408e-48
5.31342e-49
2.16709e-49
8.63678e-50
3.36058e-50
1.27545e-50
4.71699e-51
1.69809e-51
5.94373e-52
2.02038e-52
6.66058e-53
2.12661e-53
6.56597e-54
1.95716e-54
5.62203e-55
1.55326e-55
4.11859e-56
1.04562e-56
2.535e-57
5.85192e-58
1.28206e-58
2.6559e-59
5.18065e-60
9.46979e-61
1.61311e-61
2.54405e-62
3.68608e-63
4.861e-64
5.76783e-65
6.0691e-66
5.55726e-67
4.31623e-68
2.74105e-69
1.3443e-70
4.60006e-72
8.69513e-74
2.29951e-76
2.97992e-81
2.49444e-83
1.03523e-85
3.64184e-96
6.40542e-107
8.17031e-118
7.49778e-129
5.89516e-140
3.51832e-151
1.81208e-162
1.22753e-172
5.32183e-183
3.99573e-191
1.57443e-201
1.37436e-209
6.36263e-220
4.72923e-228
2.68726e-238
1.62867e-246
1.71201e-256
5.70669e-265
1.12963e-274
2.04975e-283
5.58808e-293
7.52816e-302
2.67128e-311
1.76798e-318
8.52757e-321
4.57737e-319
2.8055e-319
6.80328e-321
7.09478e-321
6.08689e-321
8.5424e-321
0
0
0
0
0
0
0
0
0
0
0
0
0
0
0
0
)
;

boundaryField
{
    inandouthalf11
    {
        type            cyclic;
    }
    inandouthalf12
    {
        type            cyclic;
    }
    inandouthalf21
    {
        type            cyclic;
    }
    inandouthalf22
    {
        type            cyclic;
    }
    inandouthalf31
    {
        type            cyclic;
    }
    inandouthalf32
    {
        type            cyclic;
    }
    inandouthalf41
    {
        type            cyclic;
    }
    inandouthalf42
    {
        type            cyclic;
    }
    top
    {
        type            symmetryPlane;
    }
    walls
    {
        type            zeroGradient;
    }
    frontAndBackPlanes
    {
        type            empty;
    }
}


// ************************************************************************* //
