/*--------------------------------*- C++ -*----------------------------------*\
| =========                 |                                                 |
| \\      /  F ield         | OpenFOAM: The Open Source CFD Toolbox           |
|  \\    /   O peration     | Version:  2.4.x                                 |
|   \\  /    A nd           | Web:      www.OpenFOAM.org                      |
|    \\/     M anipulation  |                                                 |
\*---------------------------------------------------------------------------*/
FoamFile
{
    version     2.0;
    format      ascii;
    class       volVectorField;
    location    "8";
    object      ddt0(Ua);
}
// * * * * * * * * * * * * * * * * * * * * * * * * * * * * * * * * * * * * * //

dimensions      [0 1 -2 0 0 0 0];

internalField   nonuniform List<vector> 
360
(
(1.58762e-32 1.74757e-33 0)
(8.73428e-09 4.33978e-08 0)
(1.93003e-08 7.64396e-08 0)
(2.9924e-08 1.01987e-07 0)
(4.16171e-08 1.26314e-07 0)
(5.44259e-08 1.5032e-07 0)
(6.79268e-08 1.73449e-07 0)
(8.18846e-08 1.95526e-07 0)
(9.62213e-08 2.16658e-07 0)
(1.1089e-07 2.37002e-07 0)
(1.25841e-07 2.56721e-07 0)
(1.41021e-07 2.75948e-07 0)
(1.56372e-07 2.94801e-07 0)
(1.7184e-07 3.13395e-07 0)
(1.87376e-07 3.31856e-07 0)
(2.02936e-07 3.50321e-07 0)
(2.1848e-07 3.68927e-07 0)
(2.3397e-07 3.87809e-07 0)
(2.4937e-07 4.07088e-07 0)
(2.64652e-07 4.26879e-07 0)
(2.79788e-07 4.47281e-07 0)
(2.94759e-07 4.6838e-07 0)
(3.09548e-07 4.90257e-07 0)
(3.24146e-07 5.12974e-07 0)
(3.38546e-07 5.36579e-07 0)
(3.52744e-07 5.61108e-07 0)
(3.66743e-07 5.86581e-07 0)
(3.80547e-07 6.13013e-07 0)
(3.94165e-07 6.40408e-07 0)
(4.07606e-07 6.68756e-07 0)
(4.20882e-07 6.98039e-07 0)
(4.34007e-07 7.28238e-07 0)
(4.46997e-07 7.5932e-07 0)
(4.59867e-07 7.91257e-07 0)
(4.72635e-07 8.24016e-07 0)
(4.85315e-07 8.57553e-07 0)
(4.97923e-07 8.91827e-07 0)
(5.10476e-07 9.26802e-07 0)
(5.2299e-07 9.62448e-07 0)
(5.35477e-07 9.98714e-07 0)
(5.47952e-07 1.03557e-06 0)
(5.60428e-07 1.07298e-06 0)
(5.72915e-07 1.1109e-06 0)
(5.85424e-07 1.1493e-06 0)
(5.97967e-07 1.18816e-06 0)
(6.1055e-07 1.22745e-06 0)
(6.23182e-07 1.26715e-06 0)
(6.35867e-07 1.3072e-06 0)
(6.48611e-07 1.34759e-06 0)
(6.61423e-07 1.38831e-06 0)
(6.74305e-07 1.42936e-06 0)
(6.87261e-07 1.47068e-06 0)
(7.00294e-07 1.51227e-06 0)
(7.13408e-07 1.5541e-06 0)
(7.26605e-07 1.59615e-06 0)
(7.39889e-07 1.6384e-06 0)
(7.53262e-07 1.68081e-06 0)
(7.66724e-07 1.72336e-06 0)
(7.80278e-07 1.76601e-06 0)
(7.93922e-07 1.80873e-06 0)
(8.07658e-07 1.8515e-06 0)
(8.21489e-07 1.89432e-06 0)
(8.35414e-07 1.93717e-06 0)
(8.49435e-07 1.98003e-06 0)
(8.6355e-07 2.02287e-06 0)
(8.77756e-07 2.06565e-06 0)
(8.92055e-07 2.10834e-06 0)
(9.06443e-07 2.15091e-06 0)
(9.20916e-07 2.19332e-06 0)
(9.35468e-07 2.23555e-06 0)
(9.50098e-07 2.27758e-06 0)
(9.64804e-07 2.31945e-06 0)
(9.79579e-07 2.36113e-06 0)
(9.94416e-07 2.40262e-06 0)
(1.00931e-06 2.44395e-06 0)
(1.02427e-06 2.4851e-06 0)
(1.03926e-06 2.52606e-06 0)
(1.0543e-06 2.5668e-06 0)
(1.06936e-06 2.6073e-06 0)
(1.08445e-06 2.64755e-06 0)
(1.09955e-06 2.68755e-06 0)
(1.11466e-06 2.7273e-06 0)
(1.12976e-06 2.76683e-06 0)
(1.14487e-06 2.80616e-06 0)
(1.15996e-06 2.84531e-06 0)
(1.17505e-06 2.88427e-06 0)
(1.19012e-06 2.92307e-06 0)
(1.20516e-06 2.96166e-06 0)
(1.22018e-06 3.00003e-06 0)
(1.23516e-06 3.03815e-06 0)
(1.25011e-06 3.07597e-06 0)
(1.26502e-06 3.1135e-06 0)
(1.27989e-06 3.1507e-06 0)
(1.29472e-06 3.18757e-06 0)
(1.30951e-06 3.22411e-06 0)
(1.32427e-06 3.26032e-06 0)
(1.339e-06 3.29619e-06 0)
(1.3537e-06 3.3317e-06 0)
(1.36837e-06 3.36682e-06 0)
(1.383e-06 3.40154e-06 0)
(1.39761e-06 3.43582e-06 0)
(1.41219e-06 3.46964e-06 0)
(1.42674e-06 3.50295e-06 0)
(1.44127e-06 3.53573e-06 0)
(1.45579e-06 3.56793e-06 0)
(1.47029e-06 3.59953e-06 0)
(1.48479e-06 3.63047e-06 0)
(1.4993e-06 3.66072e-06 0)
(1.51382e-06 3.69023e-06 0)
(1.52838e-06 3.71896e-06 0)
(1.543e-06 3.74686e-06 0)
(1.55769e-06 3.77389e-06 0)
(1.57249e-06 3.80001e-06 0)
(1.58743e-06 3.82519e-06 0)
(1.60256e-06 3.84939e-06 0)
(1.6179e-06 3.8726e-06 0)
(1.63352e-06 3.89481e-06 0)
(1.64946e-06 3.91601e-06 0)
(1.66577e-06 3.93622e-06 0)
(1.68251e-06 3.95545e-06 0)
(1.69973e-06 3.97374e-06 0)
(1.71748e-06 3.99109e-06 0)
(1.73579e-06 4.00752e-06 0)
(1.7547e-06 4.02303e-06 0)
(1.7742e-06 4.03756e-06 0)
(1.79428e-06 4.05102e-06 0)
(1.81491e-06 4.06329e-06 0)
(1.83602e-06 4.07416e-06 0)
(1.85753e-06 4.0834e-06 0)
(1.8793e-06 4.09075e-06 0)
(1.90116e-06 4.09595e-06 0)
(1.92287e-06 4.09882e-06 0)
(1.94423e-06 4.09935e-06 0)
(1.96507e-06 4.09772e-06 0)
(1.98531e-06 4.09432e-06 0)
(2.00494e-06 4.08974e-06 0)
(2.02402e-06 4.08477e-06 0)
(2.04276e-06 4.0802e-06 0)
(2.06163e-06 4.07672e-06 0)
(2.0809e-06 4.07464e-06 0)
(2.09962e-06 4.07358e-06 0)
(2.11494e-06 4.07212e-06 0)
(2.12456e-06 4.06919e-06 0)
(2.12863e-06 4.06587e-06 0)
(2.12967e-06 4.06425e-06 0)
(2.12976e-06 4.06444e-06 0)
(2.12915e-06 4.06528e-06 0)
(-1.98735e-05 6.69711e-06 0)
(0.401397 0.000466926 0)
(0.648421 0.001998 0)
(0.50236 -0.00705969 0)
(0.433245 -0.00732345 0)
(0.414851 -0.00693439 0)
(0.426782 -0.00638101 0)
(0.459459 -0.0055951 0)
(0.508366 -0.00433187 0)
(0.571011 -0.00233215 0)
(0.644777 0.000680718 0)
(0.7253 0.00503286 0)
(0.806132 0.0110718 0)
(0.880212 0.0187982 0)
(0.942468 0.0271607 0)
(0.991551 0.0342067 0)
(1.0293 0.0385512 0)
(1.05869 0.040244 0)
(1.08228 0.0401836 0)
(1.10183 0.0392404 0)
(1.11847 0.0379394 0)
(1.13295 0.0365368 0)
(1.14575 0.0351472 0)
(1.15721 0.0338187 0)
(1.16758 0.0325687 0)
(1.17702 0.0314013 0)
(1.18568 0.0303147 0)
(1.19364 0.0293047 0)
(1.20098 0.0283665 0)
(1.20778 0.0274954 0)
(1.21409 0.0266869 0)
(1.21995 0.0259369 0)
(1.2254 0.0252417 0)
(1.23047 0.0245978 0)
(1.23521 0.0240021 0)
(1.23963 0.0234515 0)
(1.24376 0.0229434 0)
(1.24762 0.0224751 0)
(1.25124 0.0220443 0)
(1.25463 0.0216487 0)
(1.25781 0.0212862 0)
(1.26079 0.0209547 0)
(1.26359 0.0206524 0)
(1.26621 0.0203774 0)
(1.26868 0.0201279 0)
(1.27099 0.0199024 0)
(1.27316 0.0196993 0)
(1.27519 0.0195172 0)
(1.27709 0.0193546 0)
(1.27887 0.0192103 0)
(1.28053 0.0190831 0)
(1.28208 0.0189719 0)
(1.28352 0.0188757 0)
(1.28486 0.0187933 0)
(1.28611 0.0187231 0)
(1.28729 0.0186646 0)
(1.2884 0.0186182 0)
(1.28945 0.0185843 0)
(1.29043 0.0185628 0)
(1.29136 0.0185536 0)
(1.29224 0.0185564 0)
(1.29307 0.0185707 0)
(1.29384 0.0185956 0)
(1.29458 0.0186302 0)
(1.29528 0.0186734 0)
(1.29593 0.0187241 0)
(1.29656 0.0187808 0)
(1.29716 0.0188425 0)
(1.29772 0.018908 0)
(1.29827 0.0189763 0)
(1.29879 0.0190461 0)
(1.29928 0.0191169 0)
(1.29976 0.0191877 0)
(1.30022 0.0192578 0)
(1.30067 0.0193262 0)
(1.30109 0.0193917 0)
(1.30151 0.0194531 0)
(1.3019 0.019508 0)
(1.30228 0.0195528 0)
(1.30264 0.0195793 0)
(1.30298 0.0195803 0)
(1.30331 0.0195603 0)
(1.30362 0.0195287 0)
(1.30391 0.0194895 0)
(1.30417 0.0194433 0)
(1.3044 0.0193882 0)
(1.30459 0.0193232 0)
(1.30473 0.0192606 0)
(1.30485 0.0192251 0)
(1.30497 0.0193162 0)
(1.33067 0.018635 0)
(1.32719 0.0191072 0)
(1.32717 0.00578331 0)
(1.32768 0.0265443 0)
(1.32678 -0.00824594 0)
(1.32867 0.0449324 0)
(1.3228 0.0701811 0)
(1.32524 0.000230957 0)
(1.32418 -3.08891e-05 0)
(1.32302 -2.19333e-05 0)
(1.32157 -3.42774e-05 0)
(1.31984 -4.49041e-05 0)
(1.31781 -5.51729e-05 0)
(1.31549 -6.44786e-05 0)
(1.31291 -7.22747e-05 0)
(1.31011 -7.82295e-05 0)
(1.30723 -8.39266e-05 0)
(1.30382 -7.00761e-05 0)
(1.30142 -8.29692e-05 0)
(1.29843 -6.9019e-05 0)
(1.29601 -6.24343e-05 0)
(1.29398 -5.47138e-05 0)
(1.29244 -4.87907e-05 0)
(1.29145 -4.61353e-05 0)
(1.29108 -5.12823e-05 0)
(1.29217 -6.34062e-05 0)
(1.29343 -4.62861e-05 0)
(1.29365 -3.32859e-05 0)
(1.29365 -3.13755e-05 0)
(1.29365 -3.13165e-05 0)
(1.29365 -3.13167e-05 0)
(1.29365 -3.13171e-05 0)
(1.29365 -3.13167e-05 0)
(1.29365 -3.13172e-05 0)
(1.29365 -3.13168e-05 0)
(1.29365 -3.13172e-05 0)
(1.29365 -3.13169e-05 0)
(1.29365 -3.13173e-05 0)
(1.29365 -3.13169e-05 0)
(1.29365 -3.13174e-05 0)
(1.29365 -3.13169e-05 0)
(1.29365 -3.13174e-05 0)
(1.29365 -3.13169e-05 0)
(1.29365 -3.13175e-05 0)
(1.29365 -3.1317e-05 0)
(1.29365 -3.13176e-05 0)
(1.29365 -3.1317e-05 0)
(1.29365 -3.13176e-05 0)
(1.29365 -3.1317e-05 0)
(1.29365 -3.13177e-05 0)
(1.29365 -3.1317e-05 0)
(1.29365 -3.13177e-05 0)
(1.29365 -3.13169e-05 0)
(1.29365 -3.13177e-05 0)
(1.29365 -3.13169e-05 0)
(1.29365 -3.13178e-05 0)
(1.29365 -3.13169e-05 0)
(1.29365 -3.13178e-05 0)
(1.29365 -3.13168e-05 0)
(1.29365 -3.13179e-05 0)
(1.29365 -3.13168e-05 0)
(1.29365 -3.13179e-05 0)
(1.29365 -3.13168e-05 0)
(1.29365 -3.1318e-05 0)
(1.29365 -3.13168e-05 0)
(1.29365 -3.1318e-05 0)
(1.29365 -3.13168e-05 0)
(1.29365 -3.13181e-05 0)
(1.29365 -3.13167e-05 0)
(1.29365 -3.13181e-05 0)
(1.29365 -3.13167e-05 0)
(1.29365 -3.13182e-05 0)
(1.29365 -3.13167e-05 0)
(1.29365 -3.13182e-05 0)
(1.29365 -3.13168e-05 0)
(1.29365 -3.13182e-05 0)
(1.29365 -3.13168e-05 0)
(1.29365 -3.13182e-05 0)
(1.29365 -3.13168e-05 0)
(1.29365 -3.13182e-05 0)
(1.29365 -3.13168e-05 0)
(1.29365 -3.13183e-05 0)
(1.29365 -3.13168e-05 0)
(1.29365 -3.13183e-05 0)
(1.29365 -3.13168e-05 0)
(1.29365 -3.13183e-05 0)
(1.29365 -3.13168e-05 0)
(1.29365 -3.13184e-05 0)
(1.29365 -3.13168e-05 0)
(1.29365 -3.13184e-05 0)
(1.29365 -3.13168e-05 0)
(1.29365 -3.13186e-05 0)
(1.29365 -3.13175e-05 0)
(1.29365 -3.13195e-05 0)
(1.29365 -3.13183e-05 0)
(1.29365 -3.13204e-05 0)
(1.29365 -3.13192e-05 0)
(1.29365 -3.13213e-05 0)
(1.29365 -3.13202e-05 0)
(1.29365 -3.13223e-05 0)
(1.29365 -3.13212e-05 0)
(1.29365 -3.13233e-05 0)
(1.29365 -3.13223e-05 0)
(1.29365 -3.13246e-05 0)
(1.29365 -3.13235e-05 0)
(1.29365 -3.1326e-05 0)
(1.29365 -3.1325e-05 0)
(1.29365 -3.13278e-05 0)
(1.29365 -3.13273e-05 0)
(1.29365 -3.13303e-05 0)
(1.29365 -3.133e-05 0)
(1.29365 -3.13332e-05 0)
(1.29365 -3.13329e-05 0)
(1.29365 -3.13361e-05 0)
(1.29365 -3.13359e-05 0)
(1.29365 -3.134e-05 0)
(1.29365 -3.1341e-05 0)
(1.29365 -3.13453e-05 0)
(1.29365 -3.13456e-05 0)
(1.29365 -3.13565e-05 0)
(1.29365 -3.22115e-05 0)
(1.29367 -9.81722e-05 0)
(1.29381 -0.00013024 0)
)
;

boundaryField
{
    inandouthalf11
    {
        type            cyclic;
    }
    inandouthalf12
    {
        type            cyclic;
    }
    inandouthalf21
    {
        type            cyclic;
    }
    inandouthalf22
    {
        type            cyclic;
    }
    inandouthalf31
    {
        type            cyclic;
    }
    inandouthalf32
    {
        type            cyclic;
    }
    inandouthalf41
    {
        type            cyclic;
    }
    inandouthalf42
    {
        type            cyclic;
    }
    top
    {
        type            symmetryPlane;
    }
    walls
    {
        type            calculated;
        value           uniform (0 0 0);
    }
    frontAndBackPlanes
    {
        type            empty;
    }
}


// ************************************************************************* //
