/*--------------------------------*- C++ -*----------------------------------*\
| =========                 |                                                 |
| \\      /  F ield         | OpenFOAM: The Open Source CFD Toolbox           |
|  \\    /   O peration     | Version:  2.4.x                                 |
|   \\  /    A nd           | Web:      www.OpenFOAM.org                      |
|    \\/     M anipulation  |                                                 |
\*---------------------------------------------------------------------------*/
FoamFile
{
    version     2.0;
    format      ascii;
    class       volScalarField;
    location    "8";
    object      ddt0(((1.5*(alpha+1e-08))*rho),Theta);
}
// * * * * * * * * * * * * * * * * * * * * * * * * * * * * * * * * * * * * * //

dimensions      [1 -1 -3 0 0 0 0];

internalField   nonuniform List<scalar> 
360
(
-2.18002e-21
-6.89101e-21
-4.3379e-21
-3.51123e-21
-3.55496e-21
-3.54413e-21
-3.39155e-21
-3.21588e-21
-3.06338e-21
-2.93882e-21
-2.83855e-21
-2.75745e-21
-2.69381e-21
-2.64875e-21
-2.62442e-21
-2.6223e-21
-2.64178e-21
-2.68102e-21
-2.73847e-21
-2.81208e-21
-2.89942e-21
-2.9991e-21
-3.10925e-21
-3.22742e-21
-3.35153e-21
-3.47942e-21
-3.60981e-21
-3.74187e-21
-3.87351e-21
-4.00293e-21
-4.13007e-21
-4.25379e-21
-4.37342e-21
-4.48941e-21
-4.60014e-21
-4.70475e-21
-4.80436e-21
-4.90026e-21
-4.99066e-21
-5.07473e-21
-5.15531e-21
-5.23029e-21
-5.29943e-21
-5.36602e-21
-5.42882e-21
-5.48713e-21
-5.53945e-21
-5.58552e-21
-5.63129e-21
-5.6761e-21
-5.71497e-21
-5.74958e-21
-5.78136e-21
-5.80834e-21
-5.83069e-21
-5.84857e-21
-5.86023e-21
-5.86582e-21
-5.86402e-21
-5.85711e-21
-5.8493e-21
-5.839e-21
-5.82521e-21
-5.80612e-21
-5.77951e-21
-5.74606e-21
-5.70694e-21
-5.6612e-21
-5.60736e-21
-5.55001e-21
-5.49526e-21
-5.44018e-21
-5.38204e-21
-5.32483e-21
-5.26892e-21
-5.21011e-21
-5.14488e-21
-5.07414e-21
-5.00071e-21
-4.92517e-21
-4.84877e-21
-4.77448e-21
-4.70382e-21
-4.63619e-21
-4.57034e-21
-4.50446e-21
-4.4363e-21
-4.36376e-21
-4.28613e-21
-4.20406e-21
-4.1186e-21
-4.03127e-21
-3.94369e-21
-3.85677e-21
-3.7706e-21
-3.68477e-21
-3.59852e-21
-3.51101e-21
-3.42159e-21
-3.32991e-21
-3.23587e-21
-3.13955e-21
-3.04113e-21
-2.94077e-21
-2.83862e-21
-2.73485e-21
-2.62966e-21
-2.52335e-21
-2.41634e-21
-2.30912e-21
-2.20229e-21
-2.09653e-21
-1.99253e-21
-1.89106e-21
-1.79284e-21
-1.69859e-21
-1.6089e-21
-1.52423e-21
-1.44477e-21
-1.3703e-21
-1.30005e-21
-1.2325e-21
-1.16526e-21
-1.09505e-21
-1.01791e-21
-9.29601e-22
-8.26248e-22
-7.04942e-22
-5.64627e-22
-4.07561e-22
-2.41245e-22
-7.89968e-23
6.32768e-23
1.72628e-22
-4.77849e-22
-2.40391e-16
-3.73596e-16
2.20945e-15
4.60818e-14
8.2297e-13
1.63487e-11
3.65461e-10
9.23883e-09
2.6684e-07
1.04452e-05
0.00158662
0.118032
1.9588
13.6839
12.554
5.16344
3.44341
2.85408
2.44735
2.03209
1.60166
1.17853
0.80229
0.504709
0.296341
0.166053
0.0916939
0.0517049
0.0306241
0.0192526
0.0127717
0.0088308
0.00629094
0.00457526
0.00337291
0.00250583
0.00186653
0.00138702
0.00102263
0.000743023
0.000526992
0.000359359
0.000229025
0.00012773
4.92299e-05
-1.12609e-05
-5.7451e-05
-9.22446e-05
-0.000117935
-0.000136346
-0.000148937
-0.000156883
-0.000161132
-0.000162455
-0.000161474
-0.000158701
-0.000154549
-0.000149355
-0.000143394
-0.000136887
-0.000130013
-0.000122915
-0.000115708
-0.000108484
-0.000101315
-9.42652e-05
-8.7315e-05
-8.04454e-05
-7.37008e-05
-6.71246e-05
-6.07588e-05
-5.46454e-05
-4.88219e-05
-4.33227e-05
-3.8175e-05
-3.34017e-05
-2.90181e-05
-2.50361e-05
-2.14576e-05
-1.82685e-05
-1.54505e-05
-1.29879e-05
-1.08539e-05
-9.01407e-06
-7.43836e-06
-6.0993e-06
-4.97167e-06
-4.02538e-06
-3.23383e-06
-2.57955e-06
-2.04151e-06
-1.60048e-06
-1.24184e-06
-9.52155e-07
-7.19235e-07
-5.34225e-07
-3.86931e-07
-2.75216e-07
-1.88599e-07
-1.20649e-07
-5.70642e-08
0
0
0
0
0
0
0
0
0
0
0
0
0
0
0
0
0
0
0
0
0
0
0
0
0
0
0
0
0
0
0
0
0
0
0
0
0
0
0
0
0
0
0
0
0
0
0
0
0
0
0
0
0
0
0
0
0
0
0
0
0
0
0
0
0
0
0
0
0
0
0
0
0
0
0
0
0
0
0
0
0
0
0
0
0
0
0
0
0
0
0
0
0
0
0
0
0
0
0
0
0
0
0
0
0
0
0
0
0
0
0
0
0
0
0
0
0
0
0
0
0
0
0
0
)
;

boundaryField
{
    inandouthalf11
    {
        type            cyclic;
    }
    inandouthalf12
    {
        type            cyclic;
    }
    inandouthalf21
    {
        type            cyclic;
    }
    inandouthalf22
    {
        type            cyclic;
    }
    inandouthalf31
    {
        type            cyclic;
    }
    inandouthalf32
    {
        type            cyclic;
    }
    inandouthalf41
    {
        type            cyclic;
    }
    inandouthalf42
    {
        type            cyclic;
    }
    top
    {
        type            symmetryPlane;
    }
    walls
    {
        type            calculated;
        value           uniform -2.18002e-21;
    }
    frontAndBackPlanes
    {
        type            empty;
    }
}


// ************************************************************************* //
