/*--------------------------------*- C++ -*----------------------------------*\
| =========                 |                                                 |
| \\      /  F ield         | OpenFOAM: The Open Source CFD Toolbox           |
|  \\    /   O peration     | Version:  2.4.x                                 |
|   \\  /    A nd           | Web:      www.OpenFOAM.org                      |
|    \\/     M anipulation  |                                                 |
\*---------------------------------------------------------------------------*/
FoamFile
{
    version     2.0;
    format      ascii;
    class       volScalarField;
    location    "8";
    object      ddt0(k);
}
// * * * * * * * * * * * * * * * * * * * * * * * * * * * * * * * * * * * * * //

dimensions      [0 2 -3 0 0 0 0];

internalField   nonuniform List<scalar> 
360
(
0
0
0
0
0
0
0
0
0
0
0
0
0
0
0
0
0
0
0
0
0
0
0
0
0
0
0
0
0
0
0
0
0
0
0
0
0
0
0
0
0
0
0
0
0
0
0
0
0
0
0
0
0
0
0
0
0
0
0
0
0
0
0
0
0
0
0
0
0
0
0
0
0
0
0
0
0
0
0
0
0
0
0
0
0
0
0
0
0
0
0
0
0
0
0
0
0
0
0
0
0
0
0
0
0
0
0
0
0
0
0
0
0
0
0
0
0
0
0
0
0
0
0
0
0
0
0
0
0
0
0
0
0
0
-4.63055e-60
-1.5e-19
-2.31875e-19
1.40038e-18
2.91337e-17
5.21073e-16
1.03695e-14
2.32215e-13
5.88065e-12
1.69706e-10
5.63007e-09
2.17376e-07
9.89449e-06
0.000506792
0.0127003
0.0266335
0.015617
0.0155591
0.0169709
0.0185053
0.019691
0.0203611
0.0204163
0.019752
0.0182682
0.0159553
0.0130108
0.00985061
0.0069347
0.00454911
0.00274748
0.00144118
0.00050367
-0.000175791
-0.000678777
-0.00106108
-0.0013598
-0.0015994
-0.00179617
-0.00196101
-0.00210138
-0.00222243
-0.0023278
-0.00242009
-0.00250122
-0.0025726
-0.00263529
-0.00269014
-0.00273779
-0.00277879
-0.00281356
-0.00284249
-0.00286589
-0.00288405
-0.00289722
-0.00290565
-0.00290954
-0.00290909
-0.0029045
-0.00289596
-0.00288363
-0.00286769
-0.00284828
-0.00282557
-0.00279971
-0.00277086
-0.00273918
-0.00270449
-0.00266644
-0.00262504
-0.00258025
-0.00253207
-0.00248048
-0.00242546
-0.00236701
-0.00230515
-0.00223989
-0.00217127
-0.00209932
-0.00202411
-0.0019457
-0.00186417
-0.0017796
-0.00169211
-0.00160183
-0.00150888
-0.00141343
-0.00131565
-0.00121574
-0.00111391
-0.0010104
-0.000905472
-0.000799412
-0.000692531
-0.000585171
-0.000477701
-0.000370523
-0.000264073
-0.000158822
-5.52812e-05
4.59964e-05
0.000144413
0.000239324
0.000330033
0.000415787
0.000495779
0.00056914
0.000634945
0.000692212
0.000739916
0.000776994
0.000802383
0.000815069
0.000814147
0.000798919
0.000769054
0.000724773
0.000667054
0.000597877
0.000520361
0.000438718
0.000357912
0.000282947
0.000217943
0.000165302
0.000125237
9.5785e-05
7.28329e-05
4.22634e-05
6.42135e-06
2.02675e-07
4.31857e-09
8.7972e-11
1.72481e-12
3.24101e-14
5.81471e-16
9.92408e-18
1.52394e-19
0
0
0
0
0
0
0
0
0
0
0
0
0
0
0
0
0
0
0
0
0
0
0
0
0
0
0
0
0
0
0
0
0
0
0
0
0
0
0
0
0
0
0
0
0
0
0
0
0
0
0
0
0
0
0
0
0
0
0
0
0
0
0
0
0
0
0
0
0
0
0
0
0
0
0
0
0
0
0
0
0
0
0
0
0
0
0
0
)
;

boundaryField
{
    inandouthalf11
    {
        type            cyclic;
    }
    inandouthalf12
    {
        type            cyclic;
    }
    inandouthalf21
    {
        type            cyclic;
    }
    inandouthalf22
    {
        type            cyclic;
    }
    inandouthalf31
    {
        type            cyclic;
    }
    inandouthalf32
    {
        type            cyclic;
    }
    inandouthalf41
    {
        type            cyclic;
    }
    inandouthalf42
    {
        type            cyclic;
    }
    top
    {
        type            symmetryPlane;
    }
    walls
    {
        type            calculated;
        value           uniform 0;
    }
    frontAndBackPlanes
    {
        type            empty;
    }
}


// ************************************************************************* //
