/*--------------------------------*- C++ -*----------------------------------*\
| =========                 |                                                 |
| \\      /  F ield         | OpenFOAM: The Open Source CFD Toolbox           |
|  \\    /   O peration     | Version:  2.4.x                                 |
|   \\  /    A nd           | Web:      www.OpenFOAM.org                      |
|    \\/     M anipulation  |                                                 |
\*---------------------------------------------------------------------------*/
FoamFile
{
    version     2.0;
    format      ascii;
    class       volScalarField;
    location    "8";
    object      ddt0(alpha);
}
// * * * * * * * * * * * * * * * * * * * * * * * * * * * * * * * * * * * * * //

dimensions      [0 0 -1 0 0 0 0];

internalField   nonuniform List<scalar> 
360
(
5.1962e-05
7.92185e-05
7.34595e-05
7.06988e-05
7.28311e-05
7.45949e-05
7.50053e-05
7.48794e-05
7.46611e-05
7.44769e-05
7.42808e-05
7.40105e-05
7.36805e-05
7.32952e-05
7.28871e-05
7.24782e-05
7.20729e-05
7.16674e-05
7.12629e-05
7.08798e-05
7.04871e-05
7.01247e-05
6.97782e-05
6.94508e-05
6.91455e-05
6.88599e-05
6.85905e-05
6.83578e-05
6.81424e-05
6.79452e-05
6.77663e-05
6.76253e-05
6.74715e-05
6.73784e-05
6.72678e-05
6.71886e-05
6.71091e-05
6.70549e-05
6.70261e-05
6.69623e-05
6.69522e-05
6.69291e-05
6.68878e-05
6.68914e-05
6.68718e-05
6.68604e-05
6.68502e-05
6.67986e-05
6.67736e-05
6.67737e-05
6.67195e-05
6.66873e-05
6.66295e-05
6.65819e-05
6.64894e-05
6.64298e-05
6.63063e-05
6.61979e-05
6.60537e-05
6.58701e-05
6.57316e-05
6.55408e-05
6.53747e-05
6.51671e-05
6.49448e-05
6.46858e-05
6.44146e-05
6.41146e-05
6.37818e-05
6.34124e-05
6.30666e-05
6.27188e-05
6.23146e-05
6.19381e-05
6.15331e-05
6.11283e-05
6.06659e-05
6.01756e-05
5.96616e-05
5.91293e-05
5.85716e-05
5.80136e-05
5.74573e-05
5.68989e-05
5.63385e-05
5.57649e-05
5.51758e-05
5.45582e-05
5.39128e-05
5.32449e-05
5.25594e-05
5.18632e-05
5.11663e-05
5.04721e-05
4.97812e-05
4.90918e-05
4.84005e-05
4.77032e-05
4.69973e-05
4.62818e-05
4.5557e-05
4.48242e-05
4.40857e-05
4.33436e-05
4.26004e-05
4.18588e-05
4.11226e-05
4.03966e-05
3.96866e-05
3.89998e-05
3.83444e-05
3.77295e-05
3.71645e-05
3.66589e-05
3.62221e-05
3.58622e-05
3.55853e-05
3.53947e-05
3.52898e-05
3.52639e-05
3.53036e-05
3.53867e-05
3.54822e-05
3.55508e-05
3.55488e-05
3.54318e-05
3.51592e-05
3.46936e-05
3.39965e-05
3.30262e-05
3.17504e-05
3.01792e-05
2.83971e-05
2.65508e-05
2.4773e-05
2.31137e-05
2.16072e-05
2.03622e-05
1.93797e-05
1.80997e-05
1.51145e-05
8.90689e-06
1.64479e-06
-4.42449e-06
-1.14445e-05
-1.96089e-05
-1.8762e-05
-0.0290836
-1.37881
-0.321739
0.0562412
0.15721
0.200689
0.219621
0.21994
0.204538
0.177851
0.14508
0.11128
0.0805068
0.055139
0.035771
0.0219969
0.0130484
0.0077456
0.00475206
0.00304799
0.00203746
0.00140925
0.00100169
0.0007275
0.000537337
0.000402081
0.000303846
0.000231256
0.000176847
0.000135588
0.000104003
7.96413e-05
6.0742e-05
4.60177e-05
3.45143e-05
2.55152e-05
1.84761e-05
1.29797e-05
8.70313e-06
5.39461e-06
2.85661e-06
9.33118e-07
-4.99698e-07
-1.54047e-06
-2.26783e-06
-2.7444e-06
-3.02004e-06
-3.13439e-06
-3.11904e-06
-2.99916e-06
-2.79501e-06
-2.5237e-06
-2.20092e-06
-1.84155e-06
-1.45444e-06
-1.04613e-06
-6.2778e-07
-2.13125e-07
1.84006e-07
5.49628e-07
8.72557e-07
1.14361e-06
1.35721e-06
1.50975e-06
1.60094e-06
1.63255e-06
1.61411e-06
1.55778e-06
1.46969e-06
1.35702e-06
1.2334e-06
1.10727e-06
9.81018e-07
8.57127e-07
7.39635e-07
6.33566e-07
5.37061e-07
4.48552e-07
3.71302e-07
3.04081e-07
2.4633e-07
1.99455e-07
1.61793e-07
1.31491e-07
1.05379e-07
8.11441e-08
6.57357e-08
6.72707e-08
7.04525e-08
6.21071e-08
1.53768e-08
3.27067e-08
7.93475e-09
2.33149e-08
2.63988e-09
1.84804e-08
1.16606e-18
5.68475e-30
-1.2143e-39
-6.22257e-40
-3.83861e-40
-3.94486e-40
-4.42977e-40
-2.06306e-40
-7.82023e-41
-3.63537e-41
-1.8496e-41
-1.09731e-41
-9.01056e-42
-5.94855e-42
-2.34183e-42
-1.1318e-42
-5.80859e-43
-3.37703e-43
-1.91876e-43
-8.95055e-44
-4.49274e-44
-2.26684e-44
-1.12179e-44
-5.46061e-45
-2.61315e-45
-1.2287e-45
-5.67334e-46
-2.57091e-46
-1.14266e-46
-4.97782e-47
-2.12401e-47
-8.87042e-48
-3.62299e-48
-1.446e-48
-5.6346e-49
-2.14166e-49
-7.93234e-50
-2.85991e-50
-1.00257e-50
-3.41317e-51
-1.12698e-51
-3.60397e-52
-1.11452e-52
-3.32755e-53
-9.5743e-54
-2.64963e-54
-7.03762e-55
-1.78978e-55
-4.34677e-56
-1.00522e-56
-2.20628e-57
-4.57895e-58
-8.94865e-59
-1.63889e-59
-2.79725e-60
-4.42051e-61
-6.41822e-62
-8.48216e-63
-1.00869e-63
-1.06383e-64
-9.76473e-66
-7.60354e-67
-4.84197e-68
-2.38185e-69
-8.17885e-71
-1.55302e-72
-4.1746e-75
-5.80799e-80
-4.89229e-82
-2.0431e-84
-7.15618e-95
-1.25214e-105
-1.58756e-116
-1.4462e-127
-1.12878e-138
-6.66876e-150
-3.40298e-161
-2.41362e-171
-1.04222e-181
-7.88546e-190
-3.08114e-200
-2.71228e-208
-1.24427e-218
-9.33286e-227
-5.25567e-237
-3.21409e-245
-3.33916e-255
-1.12561e-263
-2.19985e-273
-4.03814e-282
-1.08699e-291
-1.48061e-300
-5.19214e-310
4.87198e-320
0
0
0
0
0
0
0
0
0
0
0
0
0
0
0
0
0
0
0
0
0
0
0
)
;

boundaryField
{
    inandouthalf11
    {
        type            cyclic;
    }
    inandouthalf12
    {
        type            cyclic;
    }
    inandouthalf21
    {
        type            cyclic;
    }
    inandouthalf22
    {
        type            cyclic;
    }
    inandouthalf31
    {
        type            cyclic;
    }
    inandouthalf32
    {
        type            cyclic;
    }
    inandouthalf41
    {
        type            cyclic;
    }
    inandouthalf42
    {
        type            cyclic;
    }
    top
    {
        type            symmetryPlane;
    }
    walls
    {
        type            calculated;
        value           uniform 5.1962e-05;
    }
    frontAndBackPlanes
    {
        type            empty;
    }
}


// ************************************************************************* //
