/*--------------------------------*- C++ -*----------------------------------*\
| =========                 |                                                 |
| \\      /  F ield         | OpenFOAM: The Open Source CFD Toolbox           |
|  \\    /   O peration     | Version:  2.4.x                                 |
|   \\  /    A nd           | Web:      www.OpenFOAM.org                      |
|    \\/     M anipulation  |                                                 |
\*---------------------------------------------------------------------------*/
FoamFile
{
    version     2.0;
    format      ascii;
    class       surfaceScalarField;
    location    "8";
    object      ddt0(phib);
}
// * * * * * * * * * * * * * * * * * * * * * * * * * * * * * * * * * * * * * //

dimensions      [0 3 -2 0 0 0 0];

internalField   nonuniform List<scalar> 
359
(
-1.44466e-13
-3.68817e-13
-5.55781e-13
-7.1461e-13
-8.6586e-13
-1.01282e-12
-1.15387e-12
-1.28868e-12
-1.41799e-12
-1.54281e-12
-1.6641e-12
-1.78265e-12
-1.89917e-12
-2.01444e-12
-2.12931e-12
-2.24457e-12
-2.3611e-12
-2.47975e-12
-2.60127e-12
-2.72628e-12
-2.85534e-12
-2.98906e-12
-3.1278e-12
-3.27196e-12
-3.42177e-12
-3.57746e-12
-3.73905e-12
-3.9067e-12
-4.08026e-12
-4.25971e-12
-4.44494e-12
-4.63585e-12
-4.83204e-12
-5.03356e-12
-5.23994e-12
-5.45112e-12
-5.66669e-12
-5.88652e-12
-6.11038e-12
-6.33792e-12
-6.56899e-12
-6.80341e-12
-7.04077e-12
-7.28112e-12
-7.52409e-12
-7.76965e-12
-8.0175e-12
-8.26746e-12
-8.51942e-12
-8.77348e-12
-9.02912e-12
-9.28656e-12
-9.5454e-12
-9.80573e-12
-1.00671e-11
-1.03297e-11
-1.0593e-11
-1.0857e-11
-1.11215e-11
-1.13862e-11
-1.16511e-11
-1.19162e-11
-1.21813e-11
-1.24463e-11
-1.27108e-11
-1.29748e-11
-1.3238e-11
-1.35004e-11
-1.37614e-11
-1.40212e-11
-1.42797e-11
-1.45371e-11
-1.4793e-11
-1.50478e-11
-1.53013e-11
-1.55537e-11
-1.58044e-11
-1.60538e-11
-1.63014e-11
-1.65473e-11
-1.67915e-11
-1.70341e-11
-1.72752e-11
-1.7515e-11
-1.77534e-11
-1.79907e-11
-1.82265e-11
-1.84609e-11
-1.86935e-11
-1.89244e-11
-1.91532e-11
-1.93799e-11
-1.96043e-11
-1.98265e-11
-2.00463e-11
-2.0264e-11
-2.04791e-11
-2.06918e-11
-2.09017e-11
-2.11088e-11
-2.13128e-11
-2.15136e-11
-2.17108e-11
-2.19045e-11
-2.20941e-11
-2.22795e-11
-2.24604e-11
-2.26367e-11
-2.28078e-11
-2.29737e-11
-2.31339e-11
-2.32883e-11
-2.34365e-11
-2.35786e-11
-2.3714e-11
-2.38431e-11
-2.39653e-11
-2.40811e-11
-2.41902e-11
-2.42931e-11
-2.43896e-11
-2.448e-11
-2.45641e-11
-2.4642e-11
-2.47129e-11
-2.47765e-11
-2.48313e-11
-2.48764e-11
-2.49098e-11
-2.49304e-11
-2.49363e-11
-2.49274e-11
-2.49037e-11
-2.48669e-11
-2.48199e-11
-2.47671e-11
-2.4713e-11
-2.46616e-11
-2.46142e-11
-2.45712e-11
-2.45297e-11
-2.44803e-11
-2.44161e-11
-2.43439e-11
-2.42458e-11
-2.40942e-11
-3.32366e-11
-4.92153e-10
1.10479e-08
9.66284e-09
2.35839e-09
-1.32544e-09
-3.78038e-09
-5.36474e-09
-6.17937e-09
-6.31101e-09
-5.88766e-09
-5.07946e-09
-4.07812e-09
-3.06277e-09
-2.1587e-09
-1.42807e-09
-8.9648e-10
-5.53403e-10
-3.50779e-10
-2.33784e-10
-1.64169e-10
-1.20636e-10
-9.20291e-11
-7.23827e-11
-5.83652e-11
-4.80311e-11
-4.01961e-11
-3.41117e-11
-2.9288e-11
-2.53953e-11
-2.22051e-11
-1.95555e-11
-1.73289e-11
-1.54388e-11
-1.38198e-11
-1.24221e-11
-1.12067e-11
-1.01435e-11
-9.20797e-12
-8.38069e-12
-7.64563e-12
-6.98983e-12
-6.40234e-12
-5.8742e-12
-5.39765e-12
-4.96634e-12
-4.57463e-12
-4.21786e-12
-3.8918e-12
-3.59296e-12
-3.31809e-12
-3.06457e-12
-2.82996e-12
-2.61232e-12
-2.40988e-12
-2.21769e-12
-2.0351e-12
-1.86175e-12
-1.69721e-12
-1.54135e-12
-1.39392e-12
-1.25499e-12
-1.12438e-12
-1.00226e-12
-8.88516e-13
-7.83356e-13
-6.86745e-13
-5.98736e-13
-5.18828e-13
-4.47085e-13
-3.82959e-13
-3.26172e-13
-2.75846e-13
-2.31765e-13
-1.93187e-13
-1.59867e-13
-1.30874e-13
-1.06074e-13
-8.47289e-14
-6.67107e-14
-5.12143e-14
-3.82876e-14
-2.73035e-14
-1.83614e-14
-1.07714e-14
-4.82914e-15
3.59735e-17
3.65351e-15
7.58762e-15
1.09256e-14
1.27521e-14
1.50301e-14
1.57355e-14
1.64694e-14
1.63534e-14
1.65986e-14
1.61535e-14
1.57023e-14
1.53217e-14
1.46842e-14
1.42968e-14
1.36517e-14
1.32679e-14
1.26338e-14
1.22573e-14
1.16523e-14
1.12874e-14
1.07421e-14
1.04205e-14
9.90819e-15
9.59218e-15
9.12207e-15
8.84755e-15
8.43511e-15
8.19909e-15
7.84355e-15
7.63095e-15
7.26532e-15
6.87821e-15
6.36541e-15
5.95296e-15
5.51926e-15
5.09009e-15
4.6768e-15
4.34628e-15
4.04938e-15
3.65487e-15
3.30115e-15
2.99038e-15
2.74415e-15
2.46588e-15
2.26407e-15
2.08463e-15
1.97918e-15
1.72191e-15
1.52019e-15
1.33151e-15
1.20973e-15
1.04556e-15
9.42608e-16
8.42899e-16
7.93467e-16
6.80544e-16
6.14185e-16
5.56176e-16
5.33212e-16
4.70794e-16
4.80882e-16
4.85709e-16
6.54303e-16
3.41197e-16
2.08851e-16
6.88814e-17
-1.06005e-17
-1.33308e-16
-2.20948e-16
-3.03821e-16
-3.68087e-16
-4.68256e-16
-5.60626e-16
-6.45083e-16
-7.10852e-16
-8.00315e-16
-8.70116e-16
-9.37876e-16
-9.85691e-16
-1.09289e-15
-1.1848e-15
-1.27019e-15
-1.34144e-15
-1.4307e-15
-1.51084e-15
-1.58362e-15
-1.60437e-15
-1.81771e-15
-1.9755e-15
-2.13754e-15
-2.17367e-15
-2.59909e-15
-2.70831e-15
-2.98973e-15
-1.49318e-15
-7.85472e-15
-1.25115e-14
-1.73576e-14
-2.2113e-14
-2.70059e-14
-3.22383e-14
-3.74606e-14
-4.32017e-14
-4.8111e-14
-5.38505e-14
-5.9622e-14
-6.65123e-14
-7.28641e-14
-8.03766e-14
-8.8221e-14
-9.6454e-14
-1.09805e-13
-1.23475e-13
-1.37577e-13
-1.52029e-13
-1.68424e-13
-1.82962e-13
-1.99222e-13
-2.13649e-13
-2.47939e-13
-2.72467e-13
-2.9971e-13
-3.16166e-13
-3.44045e-13
-3.74823e-13
-4.46771e-13
)
;

boundaryField
{
    inandouthalf11
    {
        type            cyclic;
        value           nonuniform List<scalar> 
100
(
5.94247e-11
5.91637e-11
5.90921e-11
5.91182e-11
5.91336e-11
5.91325e-11
5.91288e-11
5.91256e-11
5.91221e-11
5.91186e-11
5.91149e-11
5.91108e-11
5.91064e-11
5.91019e-11
5.90974e-11
5.9093e-11
5.90887e-11
5.90846e-11
5.90806e-11
5.9077e-11
5.90735e-11
5.90705e-11
5.90677e-11
5.90653e-11
5.90633e-11
5.90617e-11
5.90603e-11
5.90595e-11
5.9059e-11
5.90588e-11
5.90589e-11
5.90595e-11
5.90602e-11
5.90615e-11
5.90629e-11
5.90646e-11
5.90665e-11
5.90688e-11
5.90713e-11
5.90737e-11
5.90767e-11
5.90798e-11
5.90828e-11
5.90863e-11
5.90897e-11
5.90934e-11
5.90973e-11
5.91009e-11
5.9105e-11
5.91093e-11
5.91134e-11
5.91178e-11
5.91223e-11
5.9127e-11
5.91315e-11
5.91365e-11
5.91413e-11
5.91464e-11
5.91515e-11
5.91565e-11
5.91621e-11
5.91674e-11
5.91732e-11
5.91789e-11
5.91848e-11
5.91907e-11
5.91969e-11
5.92033e-11
5.92097e-11
5.92161e-11
5.9223e-11
5.92303e-11
5.92373e-11
5.9245e-11
5.92527e-11
5.92609e-11
5.92692e-11
5.92777e-11
5.92865e-11
5.92957e-11
5.93052e-11
5.93152e-11
5.93256e-11
5.93364e-11
5.93477e-11
5.93595e-11
5.93717e-11
5.93844e-11
5.93976e-11
5.94113e-11
5.94255e-11
5.94403e-11
5.94558e-11
5.9472e-11
5.94888e-11
5.95064e-11
5.95246e-11
5.95437e-11
5.95634e-11
5.95839e-11
)
;
    }
    inandouthalf12
    {
        type            cyclic;
        value           nonuniform List<scalar> 
100
(
-5.94247e-11
-5.91637e-11
-5.90921e-11
-5.91182e-11
-5.91336e-11
-5.91325e-11
-5.91288e-11
-5.91256e-11
-5.91221e-11
-5.91186e-11
-5.91149e-11
-5.91108e-11
-5.91064e-11
-5.91019e-11
-5.90974e-11
-5.9093e-11
-5.90887e-11
-5.90846e-11
-5.90806e-11
-5.9077e-11
-5.90735e-11
-5.90705e-11
-5.90677e-11
-5.90653e-11
-5.90633e-11
-5.90617e-11
-5.90603e-11
-5.90595e-11
-5.9059e-11
-5.90588e-11
-5.90589e-11
-5.90595e-11
-5.90602e-11
-5.90615e-11
-5.90629e-11
-5.90646e-11
-5.90665e-11
-5.90688e-11
-5.90713e-11
-5.90737e-11
-5.90767e-11
-5.90798e-11
-5.90828e-11
-5.90863e-11
-5.90897e-11
-5.90934e-11
-5.90973e-11
-5.91009e-11
-5.9105e-11
-5.91093e-11
-5.91134e-11
-5.91178e-11
-5.91223e-11
-5.9127e-11
-5.91315e-11
-5.91365e-11
-5.91413e-11
-5.91464e-11
-5.91515e-11
-5.91565e-11
-5.91621e-11
-5.91674e-11
-5.91732e-11
-5.91789e-11
-5.91848e-11
-5.91907e-11
-5.91969e-11
-5.92033e-11
-5.92097e-11
-5.92161e-11
-5.9223e-11
-5.92303e-11
-5.92373e-11
-5.9245e-11
-5.92527e-11
-5.92609e-11
-5.92692e-11
-5.92777e-11
-5.92865e-11
-5.92957e-11
-5.93052e-11
-5.93152e-11
-5.93256e-11
-5.93364e-11
-5.93477e-11
-5.93595e-11
-5.93717e-11
-5.93844e-11
-5.93976e-11
-5.94113e-11
-5.94255e-11
-5.94403e-11
-5.94558e-11
-5.9472e-11
-5.94888e-11
-5.95064e-11
-5.95246e-11
-5.95437e-11
-5.95634e-11
-5.95839e-11
)
;
    }
    inandouthalf21
    {
        type            cyclic;
        value           nonuniform List<scalar> 
100
(
5.96053e-11
5.96275e-11
5.96505e-11
5.96745e-11
5.96995e-11
5.97254e-11
5.97524e-11
5.97805e-11
5.98097e-11
5.98401e-11
5.98717e-11
5.99046e-11
5.99389e-11
5.99745e-11
6.00116e-11
6.00502e-11
6.00903e-11
6.01319e-11
6.01751e-11
6.02199e-11
6.02663e-11
6.03143e-11
6.03639e-11
6.04152e-11
6.04681e-11
6.05227e-11
6.05791e-11
6.06377e-11
6.06987e-11
6.07624e-11
6.08292e-11
6.08994e-11
6.09738e-11
6.10542e-11
6.11419e-11
6.12369e-11
6.13387e-11
6.14491e-11
6.15744e-11
6.17201e-11
6.18765e-11
6.20222e-11
6.22071e-11
6.24629e-11
6.27892e-11
6.34354e-11
6.24899e-11
-1.82806e-09
-4.58769e-07
-6.47491e-07
-4.69294e-07
-4.07693e-07
-3.9134e-07
-4.00541e-07
-4.2576e-07
-4.62436e-07
-5.08859e-07
-5.65144e-07
-6.32014e-07
-7.08955e-07
-7.92219e-07
-8.74554e-07
-9.48064e-07
-1.008e-06
-1.05389e-06
-1.08794e-06
-1.11308e-06
-1.13186e-06
-1.14621e-06
-1.15749e-06
-1.16661e-06
-1.1742e-06
-1.18069e-06
-1.18636e-06
-1.19143e-06
-1.19603e-06
-1.20027e-06
-1.20422e-06
-1.20795e-06
-1.21148e-06
-1.21486e-06
-1.2181e-06
-1.22123e-06
-1.22425e-06
-1.22718e-06
-1.23003e-06
-1.23281e-06
-1.23551e-06
-1.23815e-06
-1.24073e-06
-1.24324e-06
-1.24571e-06
-1.24812e-06
-1.25047e-06
-1.25278e-06
-1.25504e-06
-1.25725e-06
-1.25941e-06
-1.26151e-06
-1.26357e-06
)
;
    }
    inandouthalf22
    {
        type            cyclic;
        value           nonuniform List<scalar> 
100
(
-5.96053e-11
-5.96275e-11
-5.96505e-11
-5.96745e-11
-5.96995e-11
-5.97254e-11
-5.97524e-11
-5.97805e-11
-5.98097e-11
-5.98401e-11
-5.98717e-11
-5.99046e-11
-5.99389e-11
-5.99745e-11
-6.00116e-11
-6.00502e-11
-6.00903e-11
-6.01319e-11
-6.01751e-11
-6.02199e-11
-6.02663e-11
-6.03143e-11
-6.03639e-11
-6.04152e-11
-6.04681e-11
-6.05227e-11
-6.05791e-11
-6.06377e-11
-6.06987e-11
-6.07624e-11
-6.08292e-11
-6.08994e-11
-6.09738e-11
-6.10542e-11
-6.11419e-11
-6.12369e-11
-6.13387e-11
-6.14491e-11
-6.15744e-11
-6.17201e-11
-6.18765e-11
-6.20222e-11
-6.22071e-11
-6.24629e-11
-6.27892e-11
-6.34354e-11
-6.24899e-11
1.82806e-09
4.58769e-07
6.47491e-07
4.69294e-07
4.07693e-07
3.9134e-07
4.00541e-07
4.2576e-07
4.62436e-07
5.08859e-07
5.65144e-07
6.32014e-07
7.08955e-07
7.92219e-07
8.74554e-07
9.48064e-07
1.008e-06
1.05389e-06
1.08794e-06
1.11308e-06
1.13186e-06
1.14621e-06
1.15749e-06
1.16661e-06
1.1742e-06
1.18069e-06
1.18636e-06
1.19143e-06
1.19603e-06
1.20027e-06
1.20422e-06
1.20795e-06
1.21148e-06
1.21486e-06
1.2181e-06
1.22123e-06
1.22425e-06
1.22718e-06
1.23003e-06
1.23281e-06
1.23551e-06
1.23815e-06
1.24073e-06
1.24324e-06
1.24571e-06
1.24812e-06
1.25047e-06
1.25278e-06
1.25504e-06
1.25725e-06
1.25941e-06
1.26151e-06
1.26357e-06
)
;
    }
    inandouthalf31
    {
        type            cyclic;
        value           nonuniform List<scalar> 
110
(
-1.26558e-06
-1.29328e-06
-1.32157e-06
-1.35048e-06
-1.38e-06
-1.41015e-06
-1.44096e-06
-1.47243e-06
-1.50458e-06
-1.53742e-06
-1.57097e-06
-1.60523e-06
-1.64022e-06
-1.67595e-06
-1.71243e-06
-1.74969e-06
-1.78772e-06
-1.82655e-06
-1.86618e-06
-1.90663e-06
-1.9479e-06
-1.99002e-06
-2.03299e-06
-2.07682e-06
-2.12153e-06
-2.16712e-06
-2.2136e-06
-2.26099e-06
-2.30928e-06
-2.3585e-06
-2.40863e-06
-2.4597e-06
-2.51169e-06
-2.56462e-06
-2.61847e-06
-2.67325e-06
-2.72896e-06
-2.78557e-06
-2.84308e-06
-2.90147e-06
-2.96071e-06
-3.02079e-06
-3.08166e-06
-3.14328e-06
-3.20561e-06
-3.26859e-06
-3.33217e-06
-3.39628e-06
-3.46087e-06
-3.52589e-06
-3.59131e-06
-3.65717e-06
-3.72355e-06
-3.79061e-06
-3.85862e-06
-3.92795e-06
-3.99901e-06
-4.07225e-06
-4.14806e-06
-4.22683e-06
-4.30894e-06
-4.39484e-06
-4.48637e-06
-4.58291e-06
-4.677e-06
-4.77197e-06
-4.86883e-06
-4.96765e-06
-5.06848e-06
-5.17136e-06
-5.27632e-06
-5.38342e-06
-5.49269e-06
-5.60418e-06
-5.71793e-06
-5.83398e-06
-5.9524e-06
-6.07322e-06
-6.19649e-06
-6.32226e-06
-6.45058e-06
-6.58151e-06
-6.7151e-06
-6.8514e-06
-6.99047e-06
-7.13235e-06
-7.27712e-06
-7.42483e-06
-7.57553e-06
-7.72929e-06
-7.88618e-06
-8.04625e-06
-8.20956e-06
-8.3762e-06
-8.54621e-06
-8.71968e-06
-8.89666e-06
-9.07724e-06
-9.26148e-06
-9.44947e-06
-9.64127e-06
-9.83696e-06
-1.00366e-05
-1.02403e-05
-1.04482e-05
-1.06603e-05
-1.08766e-05
-1.10974e-05
-1.13227e-05
-1.15525e-05
)
;
    }
    inandouthalf32
    {
        type            cyclic;
        value           nonuniform List<scalar> 
110
(
1.26558e-06
1.29328e-06
1.32157e-06
1.35048e-06
1.38e-06
1.41015e-06
1.44096e-06
1.47243e-06
1.50458e-06
1.53742e-06
1.57097e-06
1.60523e-06
1.64022e-06
1.67595e-06
1.71243e-06
1.74969e-06
1.78772e-06
1.82655e-06
1.86618e-06
1.90663e-06
1.9479e-06
1.99002e-06
2.03299e-06
2.07682e-06
2.12153e-06
2.16712e-06
2.2136e-06
2.26099e-06
2.30928e-06
2.3585e-06
2.40863e-06
2.4597e-06
2.51169e-06
2.56462e-06
2.61847e-06
2.67325e-06
2.72896e-06
2.78557e-06
2.84308e-06
2.90147e-06
2.96071e-06
3.02079e-06
3.08166e-06
3.14328e-06
3.20561e-06
3.26859e-06
3.33217e-06
3.39628e-06
3.46087e-06
3.52589e-06
3.59131e-06
3.65717e-06
3.72355e-06
3.79061e-06
3.85862e-06
3.92795e-06
3.99901e-06
4.07225e-06
4.14806e-06
4.22683e-06
4.30894e-06
4.39484e-06
4.48637e-06
4.58291e-06
4.677e-06
4.77197e-06
4.86883e-06
4.96765e-06
5.06848e-06
5.17136e-06
5.27632e-06
5.38342e-06
5.49269e-06
5.60418e-06
5.71793e-06
5.83398e-06
5.9524e-06
6.07322e-06
6.19649e-06
6.32226e-06
6.45058e-06
6.58151e-06
6.7151e-06
6.8514e-06
6.99047e-06
7.13235e-06
7.27712e-06
7.42483e-06
7.57553e-06
7.72929e-06
7.88618e-06
8.04625e-06
8.20956e-06
8.3762e-06
8.54621e-06
8.71968e-06
8.89666e-06
9.07724e-06
9.26148e-06
9.44947e-06
9.64127e-06
9.83696e-06
1.00366e-05
1.02403e-05
1.04482e-05
1.06603e-05
1.08766e-05
1.10974e-05
1.13227e-05
1.15525e-05
)
;
    }
    inandouthalf41
    {
        type            cyclic;
        value           nonuniform List<scalar> 
50
(
-1.03406e-05
-1.03406e-05
-1.03406e-05
-1.03406e-05
-1.03406e-05
-1.03406e-05
-1.03406e-05
-1.03406e-05
-1.03406e-05
-1.03406e-05
-1.03406e-05
-1.03406e-05
-1.03406e-05
-1.03406e-05
-1.03406e-05
-1.03406e-05
-1.03406e-05
-1.03406e-05
-1.03406e-05
-1.03406e-05
-1.03406e-05
-1.03406e-05
-1.03406e-05
-1.03406e-05
-1.03406e-05
-1.03406e-05
-1.03406e-05
-1.03406e-05
-1.03406e-05
-1.03406e-05
-1.03406e-05
-1.03406e-05
-1.03406e-05
-1.03406e-05
-1.03406e-05
-1.03406e-05
-1.03406e-05
-1.03406e-05
-1.03406e-05
-1.03406e-05
-1.03406e-05
-1.03406e-05
-1.03406e-05
-1.03406e-05
-1.03406e-05
-1.03406e-05
-1.03406e-05
-1.03406e-05
-1.03406e-05
-1.03406e-05
)
;
    }
    inandouthalf42
    {
        type            cyclic;
        value           nonuniform List<scalar> 
50
(
1.03406e-05
1.03406e-05
1.03406e-05
1.03406e-05
1.03406e-05
1.03406e-05
1.03406e-05
1.03406e-05
1.03406e-05
1.03406e-05
1.03406e-05
1.03406e-05
1.03406e-05
1.03406e-05
1.03406e-05
1.03406e-05
1.03406e-05
1.03406e-05
1.03406e-05
1.03406e-05
1.03406e-05
1.03406e-05
1.03406e-05
1.03406e-05
1.03406e-05
1.03406e-05
1.03406e-05
1.03406e-05
1.03406e-05
1.03406e-05
1.03406e-05
1.03406e-05
1.03406e-05
1.03406e-05
1.03406e-05
1.03406e-05
1.03406e-05
1.03406e-05
1.03406e-05
1.03406e-05
1.03406e-05
1.03406e-05
1.03406e-05
1.03406e-05
1.03406e-05
1.03406e-05
1.03406e-05
1.03406e-05
1.03406e-05
1.03406e-05
)
;
    }
    top
    {
        type            symmetryPlane;
        value           uniform 0;
    }
    walls
    {
        type            calculated;
        value           uniform 0;
    }
    frontAndBackPlanes
    {
        type            empty;
        value           nonuniform 0();
    }
}


// ************************************************************************* //
