/*--------------------------------*- C++ -*----------------------------------*\
| =========                 |                                                 |
| \\      /  F ield         | OpenFOAM: The Open Source CFD Toolbox           |
|  \\    /   O peration     | Version:  2.4.x                                 |
|   \\  /    A nd           | Web:      www.OpenFOAM.org                      |
|    \\/     M anipulation  |                                                 |
\*---------------------------------------------------------------------------*/
FoamFile
{
    version     2.0;
    format      ascii;
    class       surfaceScalarField;
    location    "8";
    object      ddt0(phia);
}
// * * * * * * * * * * * * * * * * * * * * * * * * * * * * * * * * * * * * * //

dimensions      [0 3 -2 0 0 0 0];

internalField   nonuniform List<scalar> 
359
(
9.25856e-14
2.3556e-13
3.54949e-13
4.56617e-13
5.53466e-13
6.47567e-13
7.37934e-13
8.24368e-13
9.07319e-13
9.87444e-13
1.06534e-12
1.1415e-12
1.21639e-12
1.2905e-12
1.36435e-12
1.4385e-12
1.51347e-12
1.5898e-12
1.66793e-12
1.74832e-12
1.83132e-12
1.91728e-12
2.00646e-12
2.09911e-12
2.19537e-12
2.29538e-12
2.39919e-12
2.50684e-12
2.61833e-12
2.73359e-12
2.85255e-12
2.97512e-12
3.10114e-12
3.23055e-12
3.36313e-12
3.49876e-12
3.63726e-12
3.77849e-12
3.92234e-12
4.06855e-12
4.21708e-12
4.36775e-12
4.52038e-12
4.67493e-12
4.83123e-12
4.98919e-12
5.1487e-12
5.30957e-12
5.47179e-12
5.63535e-12
5.80006e-12
5.96589e-12
6.13272e-12
6.30051e-12
6.46907e-12
6.63842e-12
6.80832e-12
6.97873e-12
7.14949e-12
7.32043e-12
7.49165e-12
7.66297e-12
7.8344e-12
8.0058e-12
8.17704e-12
8.34797e-12
8.51849e-12
8.68846e-12
8.85774e-12
9.02624e-12
9.19405e-12
9.36116e-12
9.52749e-12
9.69314e-12
9.85808e-12
1.00223e-11
1.01857e-11
1.03482e-11
1.05097e-11
1.06702e-11
1.08297e-11
1.09883e-11
1.1146e-11
1.13029e-11
1.14592e-11
1.16147e-11
1.17695e-11
1.19234e-11
1.20764e-11
1.22282e-11
1.23789e-11
1.25284e-11
1.26765e-11
1.28234e-11
1.29689e-11
1.3113e-11
1.32558e-11
1.3397e-11
1.35367e-11
1.36747e-11
1.38109e-11
1.39452e-11
1.40774e-11
1.42073e-11
1.43349e-11
1.446e-11
1.45824e-11
1.47019e-11
1.48184e-11
1.49316e-11
1.50415e-11
1.51478e-11
1.52504e-11
1.53492e-11
1.5444e-11
1.55348e-11
1.56216e-11
1.57045e-11
1.57834e-11
1.58584e-11
1.59296e-11
1.59972e-11
1.60611e-11
1.61212e-11
1.61772e-11
1.62286e-11
1.62749e-11
1.63151e-11
1.63483e-11
1.63734e-11
1.63895e-11
1.63964e-11
1.63942e-11
1.63841e-11
1.63681e-11
1.6349e-11
1.63299e-11
1.63138e-11
1.63027e-11
1.62964e-11
1.62914e-11
1.62826e-11
1.62701e-11
1.62603e-11
1.62574e-11
1.62575e-11
2.1026e-11
6.61641e-10
8.46192e-09
-2.17568e-08
-2.6828e-08
-2.74544e-08
-2.6113e-08
-2.36725e-08
-1.97028e-08
-1.32652e-08
-3.28884e-09
1.13948e-08
3.18071e-08
5.86245e-08
9.09315e-08
1.23085e-07
1.46585e-07
1.58181e-07
1.609e-07
1.58735e-07
1.54267e-07
1.48898e-07
1.43338e-07
1.37915e-07
1.32765e-07
1.27934e-07
1.23428e-07
1.19236e-07
1.15341e-07
1.11722e-07
1.08364e-07
1.05247e-07
1.02357e-07
9.96786e-08
9.71994e-08
9.49068e-08
9.27894e-08
9.08367e-08
8.90386e-08
8.73859e-08
8.58697e-08
8.44817e-08
8.32141e-08
8.20594e-08
8.10104e-08
8.00606e-08
7.92034e-08
7.84329e-08
7.77435e-08
7.71298e-08
7.65869e-08
7.61101e-08
7.56952e-08
7.53379e-08
7.50341e-08
7.47764e-08
7.45665e-08
7.44056e-08
7.42944e-08
7.42328e-08
7.42199e-08
7.42538e-08
7.43318e-08
7.44507e-08
7.46062e-08
7.47939e-08
7.50087e-08
7.52453e-08
7.54997e-08
7.57674e-08
7.60435e-08
7.63246e-08
7.66077e-08
7.68898e-08
7.71668e-08
7.74341e-08
7.76878e-08
7.79206e-08
7.81185e-08
7.82702e-08
7.83254e-08
7.82774e-08
7.81752e-08
7.80359e-08
7.7865e-08
7.76678e-08
7.7434e-08
7.71703e-08
7.6941e-08
7.66544e-08
8.09366e-08
6.16977e-08
6.33001e-08
4.3988e-08
5.95919e-08
2.11708e-09
2.41951e-07
1.26926e-07
4.05794e-10
-1.0572e-10
-1.12403e-10
-1.58865e-10
-2.0133e-10
-2.41351e-10
-2.76611e-10
-3.0521e-10
-3.294e-10
-3.13381e-10
-3.10243e-10
-3.07747e-10
-2.6462e-10
-2.33697e-10
-2.04303e-10
-1.85309e-10
-1.80863e-10
-2.33994e-10
-2.4652e-10
-1.39559e-10
-1.24818e-10
-1.25239e-10
-1.25259e-10
-1.25272e-10
-1.25264e-10
-1.25272e-10
-1.25264e-10
-1.25272e-10
-1.25264e-10
-1.25272e-10
-1.25264e-10
-1.25273e-10
-1.25264e-10
-1.25273e-10
-1.25265e-10
-1.25273e-10
-1.25265e-10
-1.25273e-10
-1.25265e-10
-1.25274e-10
-1.25265e-10
-1.25274e-10
-1.25265e-10
-1.25274e-10
-1.25265e-10
-1.25274e-10
-1.25265e-10
-1.25274e-10
-1.25265e-10
-1.25274e-10
-1.25265e-10
-1.25274e-10
-1.25265e-10
-1.25274e-10
-1.25265e-10
-1.25274e-10
-1.25265e-10
-1.25274e-10
-1.25265e-10
-1.25274e-10
-1.25265e-10
-1.25274e-10
-1.25266e-10
-1.25274e-10
-1.25266e-10
-1.25274e-10
-1.25266e-10
-1.25274e-10
-1.25266e-10
-1.25273e-10
-1.25267e-10
-1.25273e-10
-1.25267e-10
-1.25273e-10
-1.25267e-10
-1.25273e-10
-1.25267e-10
-1.25273e-10
-1.25267e-10
-1.25273e-10
-1.25268e-10
-1.25273e-10
-1.25268e-10
-1.25273e-10
-1.2527e-10
-1.25276e-10
-1.25274e-10
-1.25279e-10
-1.25277e-10
-1.25283e-10
-1.25281e-10
-1.25287e-10
-1.25285e-10
-1.25291e-10
-1.2529e-10
-1.25295e-10
-1.25295e-10
-1.253e-10
-1.25301e-10
-1.25306e-10
-1.25309e-10
-1.25316e-10
-1.2532e-10
-1.25327e-10
-1.25332e-10
-1.25339e-10
-1.25344e-10
-1.25351e-10
-1.25362e-10
-1.25373e-10
-1.25382e-10
-1.25403e-10
-1.27135e-10
-2.60764e-10
1.8653e-09
)
;

boundaryField
{
    inandouthalf11
    {
        type            cyclic;
        value           nonuniform List<scalar> 
100
(
-1.58762e-38
-8.73428e-15
-1.93003e-14
-2.9924e-14
-4.16171e-14
-5.44259e-14
-6.79268e-14
-8.18846e-14
-9.62213e-14
-1.1089e-13
-1.25841e-13
-1.41021e-13
-1.56372e-13
-1.7184e-13
-1.87376e-13
-2.02936e-13
-2.1848e-13
-2.3397e-13
-2.4937e-13
-2.64652e-13
-2.79788e-13
-2.94759e-13
-3.09548e-13
-3.24146e-13
-3.38546e-13
-3.52744e-13
-3.66743e-13
-3.80547e-13
-3.94165e-13
-4.07606e-13
-4.20882e-13
-4.34007e-13
-4.46997e-13
-4.59867e-13
-4.72635e-13
-4.85315e-13
-4.97923e-13
-5.10476e-13
-5.2299e-13
-5.35477e-13
-5.47952e-13
-5.60428e-13
-5.72915e-13
-5.85424e-13
-5.97967e-13
-6.1055e-13
-6.23182e-13
-6.35867e-13
-6.48611e-13
-6.61423e-13
-6.74305e-13
-6.87261e-13
-7.00294e-13
-7.13408e-13
-7.26605e-13
-7.39889e-13
-7.53262e-13
-7.66724e-13
-7.80278e-13
-7.93922e-13
-8.07658e-13
-8.21489e-13
-8.35414e-13
-8.49435e-13
-8.6355e-13
-8.77756e-13
-8.92055e-13
-9.06443e-13
-9.20916e-13
-9.35468e-13
-9.50098e-13
-9.64804e-13
-9.79579e-13
-9.94416e-13
-1.00931e-12
-1.02427e-12
-1.03926e-12
-1.0543e-12
-1.06936e-12
-1.08445e-12
-1.09955e-12
-1.11466e-12
-1.12976e-12
-1.14487e-12
-1.15996e-12
-1.17505e-12
-1.19012e-12
-1.20516e-12
-1.22018e-12
-1.23516e-12
-1.25011e-12
-1.26502e-12
-1.27989e-12
-1.29472e-12
-1.30951e-12
-1.32427e-12
-1.339e-12
-1.3537e-12
-1.36837e-12
-1.383e-12
)
;
    }
    inandouthalf12
    {
        type            cyclic;
        value           nonuniform List<scalar> 
100
(
1.58762e-38
8.73428e-15
1.93003e-14
2.9924e-14
4.16171e-14
5.44259e-14
6.79268e-14
8.18846e-14
9.62213e-14
1.1089e-13
1.25841e-13
1.41021e-13
1.56372e-13
1.7184e-13
1.87376e-13
2.02936e-13
2.1848e-13
2.3397e-13
2.4937e-13
2.64652e-13
2.79788e-13
2.94759e-13
3.09548e-13
3.24146e-13
3.38546e-13
3.52744e-13
3.66743e-13
3.80547e-13
3.94165e-13
4.07606e-13
4.20882e-13
4.34007e-13
4.46997e-13
4.59867e-13
4.72635e-13
4.85315e-13
4.97923e-13
5.10476e-13
5.2299e-13
5.35477e-13
5.47952e-13
5.60428e-13
5.72915e-13
5.85424e-13
5.97967e-13
6.1055e-13
6.23182e-13
6.35867e-13
6.48611e-13
6.61423e-13
6.74305e-13
6.87261e-13
7.00294e-13
7.13408e-13
7.26605e-13
7.39889e-13
7.53262e-13
7.66724e-13
7.80278e-13
7.93922e-13
8.07658e-13
8.21489e-13
8.35414e-13
8.49435e-13
8.6355e-13
8.77756e-13
8.92055e-13
9.06443e-13
9.20916e-13
9.35468e-13
9.50098e-13
9.64804e-13
9.79579e-13
9.94416e-13
1.00931e-12
1.02427e-12
1.03926e-12
1.0543e-12
1.06936e-12
1.08445e-12
1.09955e-12
1.11466e-12
1.12976e-12
1.14487e-12
1.15996e-12
1.17505e-12
1.19012e-12
1.20516e-12
1.22018e-12
1.23516e-12
1.25011e-12
1.26502e-12
1.27989e-12
1.29472e-12
1.30951e-12
1.32427e-12
1.339e-12
1.3537e-12
1.36837e-12
1.383e-12
)
;
    }
    inandouthalf21
    {
        type            cyclic;
        value           nonuniform List<scalar> 
100
(
-1.39761e-12
-1.41219e-12
-1.42674e-12
-1.44127e-12
-1.45579e-12
-1.47029e-12
-1.48479e-12
-1.4993e-12
-1.51382e-12
-1.52838e-12
-1.543e-12
-1.55769e-12
-1.57249e-12
-1.58743e-12
-1.60256e-12
-1.6179e-12
-1.63352e-12
-1.64946e-12
-1.66577e-12
-1.68251e-12
-1.69973e-12
-1.71748e-12
-1.73579e-12
-1.7547e-12
-1.7742e-12
-1.79428e-12
-1.81491e-12
-1.83602e-12
-1.85753e-12
-1.8793e-12
-1.90116e-12
-1.92287e-12
-1.94423e-12
-1.96507e-12
-1.98531e-12
-2.00494e-12
-2.02402e-12
-2.04276e-12
-2.06163e-12
-2.0809e-12
-2.09962e-12
-2.11494e-12
-2.12456e-12
-2.12863e-12
-2.12967e-12
-2.12976e-12
-2.12915e-12
1.98735e-11
-4.01397e-07
-6.48421e-07
-5.0236e-07
-4.33245e-07
-4.14851e-07
-4.26782e-07
-4.59459e-07
-5.08366e-07
-5.71011e-07
-6.44777e-07
-7.253e-07
-8.06132e-07
-8.80212e-07
-9.42468e-07
-9.91551e-07
-1.0293e-06
-1.05869e-06
-1.08228e-06
-1.10183e-06
-1.11847e-06
-1.13295e-06
-1.14575e-06
-1.15721e-06
-1.16758e-06
-1.17702e-06
-1.18568e-06
-1.19364e-06
-1.20098e-06
-1.20778e-06
-1.21409e-06
-1.21995e-06
-1.2254e-06
-1.23047e-06
-1.23521e-06
-1.23963e-06
-1.24376e-06
-1.24762e-06
-1.25124e-06
-1.25463e-06
-1.25781e-06
-1.26079e-06
-1.26359e-06
-1.26621e-06
-1.26868e-06
-1.27099e-06
-1.27316e-06
-1.27519e-06
-1.27709e-06
-1.27887e-06
-1.28053e-06
-1.28208e-06
-1.28352e-06
)
;
    }
    inandouthalf22
    {
        type            cyclic;
        value           nonuniform List<scalar> 
100
(
1.39761e-12
1.41219e-12
1.42674e-12
1.44127e-12
1.45579e-12
1.47029e-12
1.48479e-12
1.4993e-12
1.51382e-12
1.52838e-12
1.543e-12
1.55769e-12
1.57249e-12
1.58743e-12
1.60256e-12
1.6179e-12
1.63352e-12
1.64946e-12
1.66577e-12
1.68251e-12
1.69973e-12
1.71748e-12
1.73579e-12
1.7547e-12
1.7742e-12
1.79428e-12
1.81491e-12
1.83602e-12
1.85753e-12
1.8793e-12
1.90116e-12
1.92287e-12
1.94423e-12
1.96507e-12
1.98531e-12
2.00494e-12
2.02402e-12
2.04276e-12
2.06163e-12
2.0809e-12
2.09962e-12
2.11494e-12
2.12456e-12
2.12863e-12
2.12967e-12
2.12976e-12
2.12915e-12
-1.98735e-11
4.01397e-07
6.48421e-07
5.0236e-07
4.33245e-07
4.14851e-07
4.26782e-07
4.59459e-07
5.08366e-07
5.71011e-07
6.44777e-07
7.253e-07
8.06132e-07
8.80212e-07
9.42468e-07
9.91551e-07
1.0293e-06
1.05869e-06
1.08228e-06
1.10183e-06
1.11847e-06
1.13295e-06
1.14575e-06
1.15721e-06
1.16758e-06
1.17702e-06
1.18568e-06
1.19364e-06
1.20098e-06
1.20778e-06
1.21409e-06
1.21995e-06
1.2254e-06
1.23047e-06
1.23521e-06
1.23963e-06
1.24376e-06
1.24762e-06
1.25124e-06
1.25463e-06
1.25781e-06
1.26079e-06
1.26359e-06
1.26621e-06
1.26868e-06
1.27099e-06
1.27316e-06
1.27519e-06
1.27709e-06
1.27887e-06
1.28053e-06
1.28208e-06
1.28352e-06
)
;
    }
    inandouthalf31
    {
        type            cyclic;
        value           nonuniform List<scalar> 
110
(
-1.28486e-06
-1.31222e-06
-1.34008e-06
-1.36846e-06
-1.39737e-06
-1.42682e-06
-1.45683e-06
-1.48741e-06
-1.51857e-06
-1.55033e-06
-1.5827e-06
-1.61569e-06
-1.64932e-06
-1.68361e-06
-1.71857e-06
-1.75422e-06
-1.79058e-06
-1.82765e-06
-1.86546e-06
-1.90403e-06
-1.94337e-06
-1.98349e-06
-2.02441e-06
-2.06616e-06
-2.10873e-06
-2.15216e-06
-2.19645e-06
-2.24162e-06
-2.2877e-06
-2.33468e-06
-2.38259e-06
-2.43145e-06
-2.48124e-06
-2.53196e-06
-2.58364e-06
-2.63631e-06
-2.69009e-06
-2.79874e-06
-2.84808e-06
-2.90584e-06
-2.96597e-06
-3.02412e-06
-3.08988e-06
-3.13867e-06
-3.20829e-06
-3.2708e-06
-3.33426e-06
-3.39821e-06
-3.46263e-06
-3.52748e-06
-3.59275e-06
-3.65847e-06
-3.72476e-06
-3.79202e-06
-3.85891e-06
-3.92999e-06
-4.00053e-06
-4.07413e-06
-4.15031e-06
-4.2295e-06
-4.31207e-06
-4.39832e-06
-4.49138e-06
-4.587e-06
-4.6809e-06
-4.77594e-06
-4.87288e-06
-4.97178e-06
-5.0727e-06
-5.17566e-06
-5.28071e-06
-5.3879e-06
-5.49726e-06
-5.60884e-06
-5.72268e-06
-5.83883e-06
-5.95735e-06
-6.07827e-06
-6.20164e-06
-6.32751e-06
-6.45595e-06
-6.58699e-06
-6.72068e-06
-6.8571e-06
-6.99628e-06
-7.13828e-06
-7.28317e-06
-7.431e-06
-7.58183e-06
-7.73572e-06
-7.89273e-06
-8.05294e-06
-8.21639e-06
-8.38316e-06
-8.55332e-06
-8.72692e-06
-8.90406e-06
-9.08479e-06
-9.26918e-06
-9.45732e-06
-9.64928e-06
-9.84514e-06
-1.0045e-05
-1.02489e-05
-1.04569e-05
-1.06691e-05
-1.08857e-05
-1.11066e-05
-1.13321e-05
-1.15621e-05
)
;
    }
    inandouthalf32
    {
        type            cyclic;
        value           nonuniform List<scalar> 
110
(
1.28486e-06
1.31222e-06
1.34008e-06
1.36846e-06
1.39737e-06
1.42682e-06
1.45683e-06
1.48741e-06
1.51857e-06
1.55033e-06
1.5827e-06
1.61569e-06
1.64932e-06
1.68361e-06
1.71857e-06
1.75422e-06
1.79058e-06
1.82765e-06
1.86546e-06
1.90403e-06
1.94337e-06
1.98349e-06
2.02441e-06
2.06616e-06
2.10873e-06
2.15216e-06
2.19645e-06
2.24162e-06
2.2877e-06
2.33468e-06
2.38259e-06
2.43145e-06
2.48124e-06
2.53196e-06
2.58364e-06
2.63631e-06
2.69009e-06
2.79874e-06
2.84808e-06
2.90584e-06
2.96597e-06
3.02412e-06
3.08988e-06
3.13867e-06
3.20829e-06
3.2708e-06
3.33426e-06
3.39821e-06
3.46263e-06
3.52748e-06
3.59275e-06
3.65847e-06
3.72476e-06
3.79202e-06
3.85891e-06
3.92999e-06
4.00053e-06
4.07413e-06
4.15031e-06
4.2295e-06
4.31207e-06
4.39832e-06
4.49138e-06
4.587e-06
4.6809e-06
4.77594e-06
4.87288e-06
4.97178e-06
5.0727e-06
5.17566e-06
5.28071e-06
5.3879e-06
5.49726e-06
5.60884e-06
5.72268e-06
5.83883e-06
5.95735e-06
6.07827e-06
6.20164e-06
6.32751e-06
6.45595e-06
6.58699e-06
6.72068e-06
6.8571e-06
6.99628e-06
7.13828e-06
7.28317e-06
7.431e-06
7.58183e-06
7.73572e-06
7.89273e-06
8.05294e-06
8.21639e-06
8.38316e-06
8.55332e-06
8.72692e-06
8.90406e-06
9.08479e-06
9.26918e-06
9.45732e-06
9.64928e-06
9.84514e-06
1.0045e-05
1.02489e-05
1.04569e-05
1.06691e-05
1.08857e-05
1.11066e-05
1.13321e-05
1.15621e-05
)
;
    }
    inandouthalf41
    {
        type            cyclic;
        value           nonuniform List<scalar> 
50
(
-1.03492e-05
-1.03492e-05
-1.03492e-05
-1.03492e-05
-1.03492e-05
-1.03492e-05
-1.03492e-05
-1.03492e-05
-1.03492e-05
-1.03492e-05
-1.03492e-05
-1.03492e-05
-1.03492e-05
-1.03492e-05
-1.03492e-05
-1.03492e-05
-1.03492e-05
-1.03492e-05
-1.03492e-05
-1.03492e-05
-1.03492e-05
-1.03492e-05
-1.03492e-05
-1.03492e-05
-1.03492e-05
-1.03492e-05
-1.03492e-05
-1.03492e-05
-1.03492e-05
-1.03492e-05
-1.03492e-05
-1.03492e-05
-1.03492e-05
-1.03492e-05
-1.03492e-05
-1.03492e-05
-1.03492e-05
-1.03492e-05
-1.03492e-05
-1.03492e-05
-1.03492e-05
-1.03492e-05
-1.03492e-05
-1.03492e-05
-1.03492e-05
-1.03492e-05
-1.03492e-05
-1.03492e-05
-1.03493e-05
-1.03505e-05
)
;
    }
    inandouthalf42
    {
        type            cyclic;
        value           nonuniform List<scalar> 
50
(
1.03492e-05
1.03492e-05
1.03492e-05
1.03492e-05
1.03492e-05
1.03492e-05
1.03492e-05
1.03492e-05
1.03492e-05
1.03492e-05
1.03492e-05
1.03492e-05
1.03492e-05
1.03492e-05
1.03492e-05
1.03492e-05
1.03492e-05
1.03492e-05
1.03492e-05
1.03492e-05
1.03492e-05
1.03492e-05
1.03492e-05
1.03492e-05
1.03492e-05
1.03492e-05
1.03492e-05
1.03492e-05
1.03492e-05
1.03492e-05
1.03492e-05
1.03492e-05
1.03492e-05
1.03492e-05
1.03492e-05
1.03492e-05
1.03492e-05
1.03492e-05
1.03492e-05
1.03492e-05
1.03492e-05
1.03492e-05
1.03492e-05
1.03492e-05
1.03492e-05
1.03492e-05
1.03492e-05
1.03492e-05
1.03493e-05
1.03505e-05
)
;
    }
    top
    {
        type            symmetryPlane;
        value           uniform 0;
    }
    walls
    {
        type            calculated;
        value           uniform 0;
    }
    frontAndBackPlanes
    {
        type            empty;
        value           nonuniform 0();
    }
}


// ************************************************************************* //
