/*--------------------------------*- C++ -*----------------------------------*\
| =========                 |                                                 |
| \\      /  F ield         | OpenFOAM: The Open Source CFD Toolbox           |
|  \\    /   O peration     | Version:  2.4.x                                 |
|   \\  /    A nd           | Web:      www.OpenFOAM.org                      |
|    \\/     M anipulation  |                                                 |
\*---------------------------------------------------------------------------*/
FoamFile
{
    version     2.0;
    format      ascii;
    class       volScalarField;
    location    "8";
    object      ddt0(epsilon);
}
// * * * * * * * * * * * * * * * * * * * * * * * * * * * * * * * * * * * * * //

dimensions      [0 2 -4 0 0 0 0];

internalField   nonuniform List<scalar> 
360
(
0
0
0
0
0
0
0
0
0
0
0
0
0
0
0
0
0
0
0
0
0
0
0
0
0
0
0
0
0
0
0
0
0
0
0
0
0
0
0
0
0
0
0
0
0
0
0
0
0
0
0
0
0
0
0
0
0
0
0
0
0
0
0
0
0
0
0
0
0
0
0
0
0
0
0
0
0
0
0
0
0
0
0
0
0
0
0
0
0
0
0
0
0
0
0
0
0
0
0
0
0
0
0
0
0
0
0
0
0
0
0
0
0
0
0
0
0
0
0
0
0
0
0
0
0
0
0
0
0
0
0
0
0
0
-3.02007e-47
-1.32457e-19
5.7771e-20
7.17861e-18
1.51451e-16
3.17525e-15
7.47299e-14
1.99279e-12
6.05744e-11
2.11594e-09
8.57476e-08
4.08019e-06
0.000230646
0.0149467
0.505362
1.1428
0.353181
0.369812
0.441145
0.490901
0.510589
0.504279
0.476773
0.431545
0.371659
0.301943
0.23024
0.165529
0.113922
0.076599
0.0512156
0.0344071
0.0232848
0.0158112
0.0106685
0.00703269
0.0043903
0.00241845
0.000910424
-0.000268838
-0.00120949
-0.00197297
-0.00260201
-0.00312689
-0.00356946
-0.00394572
-0.00426763
-0.0045442
-0.00478238
-0.00498754
-0.00516394
-0.00531499
-0.00544344
-0.00555156
-0.00564122
-0.00571404
-0.00577136
-0.00581437
-0.0058441
-0.00586148
-0.00586732
-0.00586238
-0.00584732
-0.00582279
-0.00578937
-0.00574762
-0.0056981
-0.00564077
-0.0055752
-0.00550146
-0.0054196
-0.00532968
-0.00523176
-0.00512595
-0.00501235
-0.00489109
-0.00476236
-0.00462634
-0.00448325
-0.00433336
-0.00417694
-0.00401431
-0.00384582
-0.00367187
-0.00349289
-0.00330932
-0.00312169
-0.00293053
-0.00273643
-0.00254001
-0.00234196
-0.00214297
-0.00194381
-0.00174525
-0.00154815
-0.00135337
-0.00116182
-0.000974445
-0.000792233
-0.000616192
-0.00044736
-0.000286795
-0.000135576
5.21368e-06
0.000134489
0.000251181
0.000354251
0.000442716
0.000515674
0.000572346
0.000612126
0.000634642
0.000639837
0.000628066
0.000600205
0.000557765
0.000502997
0.000438936
0.000369361
0.000298577
0.000231014
0.000170633
0.0001203
8.13313e-05
5.33921e-05
3.47691e-05
2.28672e-05
1.47618e-05
6.40482e-06
7.45841e-07
2.20308e-08
4.73533e-10
9.75736e-12
1.93471e-13
3.6747e-15
6.6597e-17
1.14518e-18
8.62512e-21
0
0
0
0
0
0
0
0
0
0
0
0
0
0
0
0
0
0
0
0
0
0
0
0
0
0
0
0
0
0
0
0
0
0
0
0
0
0
0
0
0
0
0
0
0
0
0
0
0
0
0
0
0
0
0
0
0
0
0
0
0
0
0
0
0
0
0
0
0
0
0
0
0
0
0
0
0
0
0
0
0
0
0
0
0
0
0
0
)
;

boundaryField
{
    inandouthalf11
    {
        type            cyclic;
    }
    inandouthalf12
    {
        type            cyclic;
    }
    inandouthalf21
    {
        type            cyclic;
    }
    inandouthalf22
    {
        type            cyclic;
    }
    inandouthalf31
    {
        type            cyclic;
    }
    inandouthalf32
    {
        type            cyclic;
    }
    inandouthalf41
    {
        type            cyclic;
    }
    inandouthalf42
    {
        type            cyclic;
    }
    top
    {
        type            symmetryPlane;
    }
    walls
    {
        type            calculated;
        value           uniform 0;
    }
    frontAndBackPlanes
    {
        type            empty;
    }
}


// ************************************************************************* //
