/*--------------------------------*- C++ -*----------------------------------*\
| =========                 |                                                 |
| \\      /  F ield         | OpenFOAM: The Open Source CFD Toolbox           |
|  \\    /   O peration     | Version:  2.4.x                                 |
|   \\  /    A nd           | Web:      www.OpenFOAM.org                      |
|    \\/     M anipulation  |                                                 |
\*---------------------------------------------------------------------------*/
FoamFile
{
    version     2.0;
    format      ascii;
    class       volVectorField;
    location    "8";
    object      ddt0(Ub);
}
// * * * * * * * * * * * * * * * * * * * * * * * * * * * * * * * * * * * * * //

dimensions      [0 1 -2 0 0 0 0];

internalField   nonuniform List<vector> 
360
(
(-5.94247e-05 -1.76654e-08 0)
(-5.91637e-05 -6.3716e-08 0)
(-5.90921e-05 -1.15584e-07 0)
(-5.91182e-05 -1.58814e-07 0)
(-5.91336e-05 -1.97571e-07 0)
(-5.91325e-05 -2.34834e-07 0)
(-5.91288e-05 -2.70833e-07 0)
(-5.91256e-05 -3.05317e-07 0)
(-5.91221e-05 -3.38332e-07 0)
(-5.91186e-05 -3.70098e-07 0)
(-5.91149e-05 -4.00862e-07 0)
(-5.91108e-05 -4.30841e-07 0)
(-5.91064e-05 -4.60224e-07 0)
(-5.91019e-05 -4.89198e-07 0)
(-5.90974e-05 -5.17966e-07 0)
(-5.9093e-05 -5.46732e-07 0)
(-5.90887e-05 -5.75706e-07 0)
(-5.90846e-05 -6.05104e-07 0)
(-5.90806e-05 -6.35125e-07 0)
(-5.9077e-05 -6.65941e-07 0)
(-5.90735e-05 -6.97698e-07 0)
(-5.90705e-05 -7.30546e-07 0)
(-5.90677e-05 -7.64603e-07 0)
(-5.90653e-05 -7.99967e-07 0)
(-5.90633e-05 -8.36712e-07 0)
(-5.90617e-05 -8.74899e-07 0)
(-5.90603e-05 -9.14559e-07 0)
(-5.90595e-05 -9.55713e-07 0)
(-5.9059e-05 -9.98364e-07 0)
(-5.90588e-05 -1.04249e-06 0)
(-5.90589e-05 -1.08807e-06 0)
(-5.90595e-05 -1.13509e-06 0)
(-5.90602e-05 -1.18348e-06 0)
(-5.90615e-05 -1.23319e-06 0)
(-5.90629e-05 -1.28418e-06 0)
(-5.90646e-05 -1.33638e-06 0)
(-5.90665e-05 -1.38972e-06 0)
(-5.90688e-05 -1.44414e-06 0)
(-5.90713e-05 -1.49961e-06 0)
(-5.90737e-05 -1.55603e-06 0)
(-5.90767e-05 -1.61336e-06 0)
(-5.90798e-05 -1.67154e-06 0)
(-5.90828e-05 -1.73051e-06 0)
(-5.90863e-05 -1.79023e-06 0)
(-5.90897e-05 -1.85064e-06 0)
(-5.90934e-05 -1.91171e-06 0)
(-5.90973e-05 -1.97339e-06 0)
(-5.91009e-05 -2.03561e-06 0)
(-5.9105e-05 -2.09835e-06 0)
(-5.91093e-05 -2.16161e-06 0)
(-5.91134e-05 -2.22531e-06 0)
(-5.91178e-05 -2.28945e-06 0)
(-5.91223e-05 -2.35398e-06 0)
(-5.9127e-05 -2.41888e-06 0)
(-5.91315e-05 -2.48409e-06 0)
(-5.91365e-05 -2.54959e-06 0)
(-5.91413e-05 -2.61531e-06 0)
(-5.91464e-05 -2.68124e-06 0)
(-5.91515e-05 -2.7473e-06 0)
(-5.91565e-05 -2.81344e-06 0)
(-5.91621e-05 -2.87966e-06 0)
(-5.91674e-05 -2.9459e-06 0)
(-5.91732e-05 -3.01217e-06 0)
(-5.91789e-05 -3.07843e-06 0)
(-5.91848e-05 -3.14462e-06 0)
(-5.91907e-05 -3.21069e-06 0)
(-5.91969e-05 -3.2766e-06 0)
(-5.92033e-05 -3.34229e-06 0)
(-5.92097e-05 -3.40771e-06 0)
(-5.92161e-05 -3.47281e-06 0)
(-5.9223e-05 -3.5376e-06 0)
(-5.92303e-05 -3.60208e-06 0)
(-5.92373e-05 -3.66624e-06 0)
(-5.9245e-05 -3.73009e-06 0)
(-5.92527e-05 -3.79362e-06 0)
(-5.92609e-05 -3.85685e-06 0)
(-5.92692e-05 -3.91974e-06 0)
(-5.92777e-05 -3.98226e-06 0)
(-5.92865e-05 -4.04438e-06 0)
(-5.92957e-05 -4.10607e-06 0)
(-5.93052e-05 -4.16734e-06 0)
(-5.93152e-05 -4.22819e-06 0)
(-5.93256e-05 -4.28865e-06 0)
(-5.93364e-05 -4.34875e-06 0)
(-5.93477e-05 -4.40853e-06 0)
(-5.93595e-05 -4.46799e-06 0)
(-5.93717e-05 -4.52713e-06 0)
(-5.93844e-05 -4.5859e-06 0)
(-5.93976e-05 -4.64428e-06 0)
(-5.94113e-05 -4.70222e-06 0)
(-5.94255e-05 -4.75968e-06 0)
(-5.94403e-05 -4.81661e-06 0)
(-5.94558e-05 -4.87299e-06 0)
(-5.9472e-05 -4.92882e-06 0)
(-5.94888e-05 -4.98408e-06 0)
(-5.95064e-05 -5.03876e-06 0)
(-5.95246e-05 -5.09285e-06 0)
(-5.95437e-05 -5.14633e-06 0)
(-5.95634e-05 -5.19915e-06 0)
(-5.95839e-05 -5.25128e-06 0)
(-5.96053e-05 -5.30268e-06 0)
(-5.96275e-05 -5.35328e-06 0)
(-5.96505e-05 -5.40303e-06 0)
(-5.96745e-05 -5.45189e-06 0)
(-5.96995e-05 -5.49979e-06 0)
(-5.97254e-05 -5.54667e-06 0)
(-5.97524e-05 -5.59246e-06 0)
(-5.97805e-05 -5.6371e-06 0)
(-5.98097e-05 -5.68051e-06 0)
(-5.98401e-05 -5.72264e-06 0)
(-5.98717e-05 -5.7634e-06 0)
(-5.99046e-05 -5.80273e-06 0)
(-5.99389e-05 -5.84056e-06 0)
(-5.99745e-05 -5.87685e-06 0)
(-6.00116e-05 -5.91153e-06 0)
(-6.00502e-05 -5.94459e-06 0)
(-6.00903e-05 -5.976e-06 0)
(-6.01319e-05 -6.00575e-06 0)
(-6.01751e-05 -6.03386e-06 0)
(-6.02199e-05 -6.06036e-06 0)
(-6.02663e-05 -6.08528e-06 0)
(-6.03143e-05 -6.10864e-06 0)
(-6.03639e-05 -6.13046e-06 0)
(-6.04152e-05 -6.15071e-06 0)
(-6.04681e-05 -6.1693e-06 0)
(-6.05227e-05 -6.18611e-06 0)
(-6.05791e-05 -6.2009e-06 0)
(-6.06377e-05 -6.21338e-06 0)
(-6.06987e-05 -6.22319e-06 0)
(-6.07624e-05 -6.22994e-06 0)
(-6.08292e-05 -6.23325e-06 0)
(-6.08994e-05 -6.23287e-06 0)
(-6.09738e-05 -6.22876e-06 0)
(-6.10542e-05 -6.22117e-06 0)
(-6.11419e-05 -6.21071e-06 0)
(-6.12369e-05 -6.19826e-06 0)
(-6.13387e-05 -6.18485e-06 0)
(-6.14491e-05 -6.17149e-06 0)
(-6.15744e-05 -6.15899e-06 0)
(-6.17201e-05 -6.1479e-06 0)
(-6.18765e-05 -6.13786e-06 0)
(-6.20222e-05 -6.12544e-06 0)
(-6.22071e-05 -6.11061e-06 0)
(-6.24629e-05 -6.09091e-06 0)
(-6.27892e-05 -6.47813e-06 0)
(-6.34354e-05 -3.97017e-06 0)
(-6.24899e-05 -4.61697e-06 0)
(0.00182806 -3.24634e-05 0)
(0.458769 -1.27057e-05 0)
(0.647491 0.00462047 0)
(0.469294 0.0012592 0)
(0.407693 0.000126205 0)
(0.39134 -0.000657912 0)
(0.400541 -0.00117296 0)
(0.42576 -0.00147941 0)
(0.462436 -0.00159783 0)
(0.508859 -0.00155579 0)
(0.565144 -0.00139235 0)
(0.632014 -0.00115506 0)
(0.708955 -0.000892547 0)
(0.792219 -0.000644608 0)
(0.874554 -0.000436015 0)
(0.948064 -0.000278101 0)
(1.008 -0.000171303 0)
(1.05389 -0.000106278 0)
(1.08794 -6.89848e-05 0)
(1.11308 -4.74405e-05 0)
(1.13186 -3.43218e-05 0)
(1.14621 -2.5848e-05 0)
(1.15749 -2.01043e-05 0)
(1.16661 -1.6057e-05 0)
(1.1742 -1.31088e-05 0)
(1.18069 -1.0897e-05 0)
(1.18636 -9.19515e-06 0)
(1.19143 -7.8569e-06 0)
(1.19603 -6.7846e-06 0)
(1.20027 -5.91131e-06 0)
(1.20422 -5.18998e-06 0)
(1.20795 -4.58679e-06 0)
(1.21148 -4.07693e-06 0)
(1.21486 -3.64187e-06 0)
(1.2181 -3.26755e-06 0)
(1.22123 -2.94307e-06 0)
(1.22425 -2.65996e-06 0)
(1.22718 -2.41148e-06 0)
(1.23003 -2.19221e-06 0)
(1.23281 -1.99778e-06 0)
(1.23551 -1.82469e-06 0)
(1.23815 -1.67007e-06 0)
(1.24073 -1.53119e-06 0)
(1.24324 -1.40593e-06 0)
(1.24571 -1.29279e-06 0)
(1.24812 -1.19025e-06 0)
(1.25047 -1.09698e-06 0)
(1.25278 -1.01187e-06 0)
(1.25504 -9.33973e-07 0)
(1.25725 -8.62443e-07 0)
(1.25941 -7.96555e-07 0)
(1.26151 -7.35678e-07 0)
(1.26357 -6.79267e-07 0)
(1.26557 -6.26869e-07 0)
(1.26755 -5.77576e-07 0)
(1.26951 -5.30766e-07 0)
(1.27147 -4.86311e-07 0)
(1.27341 -4.44105e-07 0)
(1.27536 -4.04078e-07 0)
(1.27729 -3.66185e-07 0)
(1.27922 -3.30404e-07 0)
(1.28115 -2.96723e-07 0)
(1.28307 -2.65141e-07 0)
(1.28498 -2.35665e-07 0)
(1.28689 -2.08311e-07 0)
(1.28878 -1.83103e-07 0)
(1.29066 -1.60044e-07 0)
(1.29252 -1.39078e-07 0)
(1.29437 -1.20152e-07 0)
(1.2962 -1.03203e-07 0)
(1.298 -8.8128e-08 0)
(1.29978 -7.47806e-08 0)
(1.30153 -6.30212e-08 0)
(1.30326 -5.27293e-08 0)
(1.30495 -4.37809e-08 0)
(1.30661 -3.60299e-08 0)
(1.30822 -2.93422e-08 0)
(1.3098 -2.3607e-08 0)
(1.31133 -1.8716e-08 0)
(1.31281 -1.4554e-08 0)
(1.31424 -1.10246e-08 0)
(1.31561 -8.05618e-09 0)
(1.31692 -5.58275e-09 0)
(1.31816 -3.53157e-09 0)
(1.31932 -1.85662e-09 0)
(1.32041 -5.30084e-10 0)
(1.32141 5.09853e-10 0)
(1.32232 1.4456e-09 0)
(1.32313 2.34533e-09 0)
(1.32383 2.99015e-09 0)
(1.32441 3.51697e-09 0)
(1.32486 3.8971e-09 0)
(1.32517 4.05028e-09 0)
(1.32533 4.11683e-09 0)
(1.32532 4.12993e-09 0)
(1.32513 4.11561e-09 0)
(1.32474 3.98711e-09 0)
(1.32413 3.87247e-09 0)
(1.32329 3.75131e-09 0)
(1.32219 3.62367e-09 0)
(1.32082 3.49369e-09 0)
(1.31917 3.365e-09 0)
(1.31721 3.23782e-09 0)
(1.31497 3.11141e-09 0)
(1.31244 2.98894e-09 0)
(1.30968 2.86862e-09 0)
(1.30674 2.75405e-09 0)
(1.30373 2.63958e-09 0)
(1.30075 2.54207e-09 0)
(1.29794 2.44186e-09 0)
(1.29541 2.34579e-09 0)
(1.29328 2.20341e-09 0)
(1.29162 2.26816e-09 0)
(1.29052 1.88414e-09 0)
(1.29006 2.30059e-09 0)
(1.29073 1.53836e-09 0)
(1.29227 2.35216e-09 0)
(1.29257 1.19465e-09 0)
(1.29258 2.30003e-09 0)
(1.29258 8.35067e-10 0)
(1.29258 2.18997e-09 0)
(1.29258 5.24969e-10 0)
(1.29258 2.06466e-09 0)
(1.29258 2.42056e-10 0)
(1.29258 1.97842e-09 0)
(1.29258 -1.07599e-11 0)
(1.29258 1.88951e-09 0)
(1.29258 -2.81157e-10 0)
(1.29258 1.8339e-09 0)
(1.29258 -5.16881e-10 0)
(1.29258 1.81231e-09 0)
(1.29258 -7.3193e-10 0)
(1.29258 1.83967e-09 0)
(1.29258 -9.27317e-10 0)
(1.29258 1.85457e-09 0)
(1.29258 -1.15388e-09 0)
(1.29258 1.89097e-09 0)
(1.29258 -1.35567e-09 0)
(1.29258 1.95214e-09 0)
(1.29258 -1.54814e-09 0)
(1.29258 2.04508e-09 0)
(1.29258 -1.72726e-09 0)
(1.29258 2.14597e-09 0)
(1.29258 -1.91192e-09 0)
(1.29258 2.26997e-09 0)
(1.29258 -2.08587e-09 0)
(1.29258 2.40911e-09 0)
(1.29258 -2.24989e-09 0)
(1.29258 2.59219e-09 0)
(1.29258 -2.41693e-09 0)
(1.29258 2.6931e-09 0)
(1.29258 -2.67717e-09 0)
(1.29258 2.80501e-09 0)
(1.29258 -2.90866e-09 0)
(1.29258 2.93895e-09 0)
(1.29258 -3.14221e-09 0)
(1.29258 3.08881e-09 0)
(1.29258 -3.37549e-09 0)
(1.29258 3.24226e-09 0)
(1.29258 -3.61986e-09 0)
(1.29258 3.40219e-09 0)
(1.29258 -3.86057e-09 0)
(1.29258 3.56645e-09 0)
(1.29258 -3.62703e-09 0)
(1.29258 3.184e-09 0)
(1.29258 -3.71188e-09 0)
(1.29258 3.1912e-09 0)
(1.29258 -3.80563e-09 0)
(1.29258 3.19936e-09 0)
(1.29258 -3.89704e-09 0)
(1.29258 3.20977e-09 0)
(1.29258 -3.9865e-09 0)
(1.29258 3.22432e-09 0)
(1.29258 -4.08061e-09 0)
(1.29258 3.20112e-09 0)
(1.29258 -4.20984e-09 0)
(1.29258 3.1782e-09 0)
(1.29258 -4.34202e-09 0)
(1.29258 3.10484e-09 0)
(1.29258 -4.49541e-09 0)
(1.29258 3.16758e-09 0)
(1.29258 -5.09104e-09 0)
(1.29258 1.3212e-09 0)
(1.29258 -7.61312e-09 0)
(1.29258 -1.03316e-09 0)
(1.29258 -1.00648e-08 0)
(1.29258 -3.46292e-09 0)
(1.29258 -1.26725e-08 0)
(1.29258 -6.10505e-09 0)
(1.29258 -1.54156e-08 0)
(1.29258 -8.73123e-09 0)
(1.29258 -1.82224e-08 0)
(1.29258 -1.17183e-08 0)
(1.29258 -2.14952e-08 0)
(1.29258 -1.50766e-08 0)
(1.29258 -2.51829e-08 0)
(1.29258 -1.90118e-08 0)
(1.29258 -2.9964e-08 0)
(1.29258 -2.50146e-08 0)
(1.29258 -3.67997e-08 0)
(1.29258 -3.20348e-08 0)
(1.29258 -4.42491e-08 0)
(1.29258 -3.97109e-08 0)
(1.29258 -5.19809e-08 0)
(1.29258 -4.74785e-08 0)
(1.29258 -6.20031e-08 0)
(1.29258 -6.07526e-08 0)
(1.29258 -7.5722e-08 0)
(1.29258 -7.2726e-08 0)
(1.29258 -8.68288e-08 0)
(1.29258 -8.55772e-08 0)
(1.29258 -1.0646e-07 0)
(1.29258 -5.10249e-08 0)
)
;

boundaryField
{
    inandouthalf11
    {
        type            cyclic;
    }
    inandouthalf12
    {
        type            cyclic;
    }
    inandouthalf21
    {
        type            cyclic;
    }
    inandouthalf22
    {
        type            cyclic;
    }
    inandouthalf31
    {
        type            cyclic;
    }
    inandouthalf32
    {
        type            cyclic;
    }
    inandouthalf41
    {
        type            cyclic;
    }
    inandouthalf42
    {
        type            cyclic;
    }
    top
    {
        type            symmetryPlane;
    }
    walls
    {
        type            calculated;
        value           uniform (0 0 0);
    }
    frontAndBackPlanes
    {
        type            empty;
    }
}


// ************************************************************************* //
