/*--------------------------------*- C++ -*----------------------------------*\
| =========                 |                                                 |
| \\      /  F ield         | OpenFOAM: The Open Source CFD Toolbox           |
|  \\    /   O peration     | Version:  2.4.x                                 |
|   \\  /    A nd           | Web:      www.OpenFOAM.org                      |
|    \\/     M anipulation  |                                                 |
\*---------------------------------------------------------------------------*/
FoamFile
{
    version     2.0;
    format      ascii;
    class       volScalarField;
    location    "8";
    object      epsilon_0;
}
// * * * * * * * * * * * * * * * * * * * * * * * * * * * * * * * * * * * * * //

dimensions      [0 2 -3 0 0 0 0];

internalField   nonuniform List<scalar> 
360
(
1.60309e-27
1e-20
1e-20
1e-20
1e-20
1e-20
1e-20
1e-20
1e-20
1e-20
1e-20
1e-20
1e-20
1e-20
1e-20
1e-20
1e-20
1e-20
1e-20
1e-20
1e-20
1e-20
1e-20
1e-20
1e-20
1e-20
1e-20
1e-20
1e-20
1e-20
1e-20
1e-20
1e-20
1e-20
1e-20
1e-20
1e-20
1e-20
1e-20
1e-20
1e-20
1e-20
1e-20
1e-20
1e-20
1e-20
1e-20
1e-20
1e-20
1e-20
1e-20
1e-20
1e-20
1e-20
1e-20
1e-20
1e-20
1e-20
1e-20
1e-20
1e-20
1e-20
1e-20
1e-20
1e-20
1e-20
1e-20
1e-20
1e-20
1e-20
1e-20
1e-20
1e-20
1e-20
1e-20
1e-20
1e-20
1e-20
1e-20
1e-20
1e-20
1e-20
1e-20
1e-20
1e-20
1e-20
1e-20
1e-20
1e-20
1e-20
1e-20
1e-20
1e-20
1e-20
1e-20
1e-20
1e-20
1e-20
1e-20
1e-20
1e-20
1e-20
1e-20
1e-20
1e-20
1e-20
1e-20
1e-20
1e-20
1e-20
1e-20
1e-20
1e-20
1e-20
1e-20
1e-20
1e-20
1e-20
1e-20
1e-20
1e-20
1e-20
1e-20
1e-20
1e-20
1e-20
1e-20
1e-20
1e-20
1e-20
1e-20
1e-20
1e-20
1e-20
1e-20
2.00993e-20
6.64094e-20
5.16099e-19
8.20919e-18
1.61404e-16
3.60908e-15
9.20956e-14
2.70169e-12
9.18016e-11
3.64246e-09
1.70289e-07
9.44836e-06
0.000612189
0.0279357
0.212669
0.285191
0.272755
0.239399
0.201487
0.164739
0.131335
0.102109
0.0773509
0.0571165
0.0412868
0.0295176
0.0212056
0.0155736
0.0118447
0.00938352
0.00773927
0.00661809
0.00583592
0.0052784
0.00487373
0.00457588
0.00435461
0.00418951
0.00406644
0.00397538
0.00390903
0.00386198
0.00383013
0.00381031
0.00380005
0.00379737
0.00380068
0.00380867
0.00382027
0.00383457
0.00385083
0.00386841
0.00388676
0.00390541
0.00392398
0.00394211
0.00395952
0.00397595
0.00399118
0.00400503
0.00401733
0.00402796
0.00403681
0.00404379
0.00404881
0.00405182
0.00405279
0.00405159
0.00404805
0.00404202
0.00403333
0.00402182
0.00400733
0.0039897
0.00396878
0.00394441
0.00391646
0.00388477
0.0038492
0.00380964
0.00376597
0.00371806
0.00366583
0.00360918
0.00354806
0.00348239
0.00341215
0.00333731
0.00325788
0.00317387
0.00308536
0.00299239
0.0028951
0.00279361
0.00268809
0.00257875
0.00246584
0.00234964
0.00223049
0.00210876
0.00198488
0.00185932
0.0017326
0.00160532
0.00147809
0.00135162
0.00122665
0.00110397
0.000984422
0.000868877
0.000758233
0.000653396
0.000555247
0.000464619
0.000382247
0.000308723
0.000244436
0.000189514
0.000143778
0.00010671
7.74777e-05
5.49936e-05
3.80338e-05
2.53795e-05
1.59586e-05
8.9636e-06
3.94329e-06
9.16647e-07
6.4705e-08
1.68683e-09
3.63e-11
7.48113e-13
1.47654e-14
2.78059e-16
4.98767e-18
9.19982e-20
1.01227e-20
1e-20
1e-20
1e-20
1e-20
1e-20
1e-20
1e-20
1e-20
1e-20
1e-20
1e-20
1e-20
1e-20
1e-20
1e-20
1e-20
1e-20
1e-20
1e-20
1e-20
1e-20
1e-20
1e-20
1e-20
1e-20
1e-20
1e-20
1e-20
1e-20
1e-20
1e-20
1e-20
1e-20
1e-20
1e-20
1e-20
1e-20
1e-20
1e-20
1e-20
1e-20
1e-20
1e-20
1e-20
1e-20
1e-20
1e-20
1e-20
1e-20
1e-20
1e-20
1e-20
1e-20
1e-20
1e-20
1e-20
1e-20
1e-20
1e-20
1e-20
1e-20
1e-20
1e-20
1e-20
1e-20
1e-20
1e-20
1e-20
1e-20
1e-20
1e-20
1e-20
1e-20
1e-20
1e-20
1e-20
1e-20
1e-20
1e-20
1e-20
1e-20
1e-20
1e-20
1e-20
1e-20
1e-20
1e-20
1e-20
)
;

boundaryField
{
    inandouthalf11
    {
        type            cyclic;
    }
    inandouthalf12
    {
        type            cyclic;
    }
    inandouthalf21
    {
        type            cyclic;
    }
    inandouthalf22
    {
        type            cyclic;
    }
    inandouthalf31
    {
        type            cyclic;
    }
    inandouthalf32
    {
        type            cyclic;
    }
    inandouthalf41
    {
        type            cyclic;
    }
    inandouthalf42
    {
        type            cyclic;
    }
    top
    {
        type            symmetryPlane;
    }
    walls
    {
        type            zeroGradient;
    }
    frontAndBackPlanes
    {
        type            empty;
    }
}


// ************************************************************************* //
