/*--------------------------------*- C++ -*----------------------------------*\
| =========                 |                                                 |
| \\      /  F ield         | OpenFOAM: The Open Source CFD Toolbox           |
|  \\    /   O peration     | Version:  2.4.x                                 |
|   \\  /    A nd           | Web:      www.OpenFOAM.org                      |
|    \\/     M anipulation  |                                                 |
\*---------------------------------------------------------------------------*/
FoamFile
{
    version     2.0;
    format      ascii;
    class       volScalarField;
    location    "8";
    object      epsilon;
}
// * * * * * * * * * * * * * * * * * * * * * * * * * * * * * * * * * * * * * //

dimensions      [0 2 -3 0 0 0 0];

internalField   nonuniform List<scalar> 
360
(
1e-20
1e-20
1e-20
1e-20
1e-20
1e-20
1e-20
1e-20
1e-20
1e-20
1e-20
1e-20
1e-20
1e-20
1e-20
1e-20
1e-20
1e-20
1e-20
1e-20
1e-20
1e-20
1e-20
1e-20
1e-20
1e-20
1e-20
1e-20
1e-20
1e-20
1e-20
1e-20
1e-20
1e-20
1e-20
1e-20
1e-20
1e-20
1e-20
1e-20
1e-20
1e-20
1e-20
1e-20
1e-20
1e-20
1e-20
1e-20
1e-20
1e-20
1e-20
1e-20
1e-20
1e-20
1e-20
1e-20
1e-20
1e-20
1e-20
1e-20
1e-20
1e-20
1e-20
1e-20
1e-20
1e-20
1e-20
1e-20
1e-20
1e-20
1e-20
1e-20
1e-20
1e-20
1e-20
1e-20
1e-20
1e-20
1e-20
1e-20
1e-20
1e-20
1e-20
1e-20
1e-20
1e-20
1e-20
1e-20
1e-20
1e-20
1e-20
1e-20
1e-20
1e-20
1e-20
1e-20
1e-20
1e-20
1e-20
1e-20
1e-20
1e-20
1e-20
1e-20
1e-20
1e-20
1e-20
1e-20
1e-20
1e-20
1e-20
1e-20
1e-20
1e-20
1e-20
1e-20
1e-20
1e-20
1e-20
1e-20
1e-20
1e-20
1e-20
1e-20
1e-20
1e-20
1e-20
1e-20
1e-20
1e-20
1e-20
1e-20
1e-20
1e-20
1e-20
2.00742e-20
6.64207e-20
5.17467e-19
8.23805e-18
1.62009e-16
3.62332e-15
9.24753e-14
2.71324e-12
9.22048e-11
3.6588e-09
1.71066e-07
9.49232e-06
0.000615037
0.028032
0.212886
0.285258
0.272826
0.239483
0.20158
0.164836
0.131431
0.102199
0.077433
0.0571872
0.0413442
0.0295613
0.0212371
0.0155953
0.0118593
0.00939327
0.00774581
0.00662252
0.00583893
0.00528043
0.00487507
0.00457672
0.00435507
0.00418968
0.00406639
0.00397515
0.00390866
0.00386149
0.00382953
0.00380964
0.0037993
0.00379656
0.00379982
0.00380776
0.00381932
0.00383359
0.00384982
0.00386737
0.0038857
0.00390434
0.0039229
0.00394102
0.00395842
0.00397484
0.00399007
0.00400391
0.00401622
0.00402685
0.00403571
0.00404269
0.00404772
0.00405074
0.00405172
0.00405053
0.00404701
0.00404099
0.00403232
0.00402082
0.00400635
0.00398875
0.00396785
0.00394351
0.00391558
0.00388391
0.00384838
0.00380885
0.0037652
0.00371733
0.00366513
0.00360852
0.00354743
0.0034818
0.00341159
0.00333679
0.00325739
0.00317343
0.00308495
0.00299203
0.00289477
0.00279331
0.00268783
0.00257853
0.00246565
0.00234949
0.00223038
0.00210868
0.00198483
0.00185929
0.0017326
0.00160534
0.00147814
0.00135169
0.00122674
0.00110407
0.000984531
0.000868993
0.000758354
0.000653517
0.000555366
0.000464733
0.000382353
0.000308818
0.000244519
0.000189585
0.000143834
0.000106754
7.75101e-05
5.50165e-05
3.80493e-05
2.53896e-05
1.59652e-05
8.96794e-06
3.94609e-06
9.17865e-07
6.48469e-08
1.69102e-09
3.63901e-11
7.4997e-13
1.48022e-14
2.78759e-16
5.00035e-18
9.22162e-20
1.01243e-20
1e-20
1e-20
1e-20
1e-20
1e-20
1e-20
1e-20
1e-20
1e-20
1e-20
1e-20
1e-20
1e-20
1e-20
1e-20
1e-20
1e-20
1e-20
1e-20
1e-20
1e-20
1e-20
1e-20
1e-20
1e-20
1e-20
1e-20
1e-20
1e-20
1e-20
1e-20
1e-20
1e-20
1e-20
1e-20
1e-20
1e-20
1e-20
1e-20
1e-20
1e-20
1e-20
1e-20
1e-20
1e-20
1e-20
1e-20
1e-20
1e-20
1e-20
1e-20
1e-20
1e-20
1e-20
1e-20
1e-20
1e-20
1e-20
1e-20
1e-20
1e-20
1e-20
1e-20
1e-20
1e-20
1e-20
1e-20
1e-20
1e-20
1e-20
1e-20
1e-20
1e-20
1e-20
1e-20
1e-20
1e-20
1e-20
1e-20
1e-20
1e-20
1e-20
1e-20
1e-20
1e-20
1e-20
1e-20
1e-20
)
;

boundaryField
{
    inandouthalf11
    {
        type            cyclic;
    }
    inandouthalf12
    {
        type            cyclic;
    }
    inandouthalf21
    {
        type            cyclic;
    }
    inandouthalf22
    {
        type            cyclic;
    }
    inandouthalf31
    {
        type            cyclic;
    }
    inandouthalf32
    {
        type            cyclic;
    }
    inandouthalf41
    {
        type            cyclic;
    }
    inandouthalf42
    {
        type            cyclic;
    }
    top
    {
        type            symmetryPlane;
    }
    walls
    {
        type            zeroGradient;
    }
    frontAndBackPlanes
    {
        type            empty;
    }
}


// ************************************************************************* //
