/*--------------------------------*- C++ -*----------------------------------*\
| =========                 |                                                 |
| \\      /  F ield         | OpenFOAM: The Open Source CFD Toolbox           |
|  \\    /   O peration     | Version:  2.4.x                                 |
|   \\  /    A nd           | Web:      www.OpenFOAM.org                      |
|    \\/     M anipulation  |                                                 |
\*---------------------------------------------------------------------------*/
FoamFile
{
    version     2.0;
    format      ascii;
    class       volVectorField;
    location    "8";
    object      gradPs;
}
// * * * * * * * * * * * * * * * * * * * * * * * * * * * * * * * * * * * * * //

dimensions      [0 1 -2 0 0 0 0];

internalField   nonuniform List<vector> 
360
(
(0 1.5493e-18 0)
(0 1.69832e-18 0)
(0 -9.55511e-21 0)
(0 -2.36196e-19 0)
(-1.45047e-32 -1.00221e-19 0)
(-1.45051e-32 -5.61826e-20 0)
(-1.45055e-32 -7.18839e-20 0)
(0 -8.19795e-20 0)
(-1.45066e-32 -8.36965e-20 0)
(0 -8.47735e-20 0)
(-2.90153e-32 -8.5232e-20 0)
(0 -8.56221e-20 0)
(-1.45088e-32 -8.63441e-20 0)
(0 -8.70382e-20 0)
(0 -8.79474e-20 0)
(0 -8.88419e-20 0)
(0 -8.95001e-20 0)
(-2.90233e-32 -9.00497e-20 0)
(0 -9.098e-20 0)
(0 -9.15537e-20 0)
(0 -9.21558e-20 0)
(-2.90281e-32 -9.31252e-20 0)
(0 -9.37555e-20 0)
(0 -9.45341e-20 0)
(0 -9.53409e-20 0)
(-1.45166e-32 -9.59458e-20 0)
(0 -9.68722e-20 0)
(0 -9.78499e-20 0)
(0 -9.84886e-20 0)
(0 -9.92726e-20 0)
(0 -1.00482e-19 0)
(0 -1.01005e-19 0)
(0 -1.02121e-19 0)
(0 -1.0327e-19 0)
(0 -1.03922e-19 0)
(2.90464e-32 -1.04964e-19 0)
(0 -1.05931e-19 0)
(0 -1.07501e-19 0)
(0 -1.07883e-19 0)
(0 -1.09114e-19 0)
(0 -1.10869e-19 0)
(0 -1.11086e-19 0)
(2.90565e-32 -1.12669e-19 0)
(0 -1.14103e-19 0)
(0 -1.14947e-19 0)
(0 -1.16705e-19 0)
(0 -1.17352e-19 0)
(0 -1.18428e-19 0)
(0 -1.20864e-19 0)
(0 -1.21623e-19 0)
(1.45346e-32 -1.22661e-19 0)
(0 -1.245e-19 0)
(0 -1.25966e-19 0)
(0 -1.27115e-19 0)
(0 -1.2895e-19 0)
(0 -1.30437e-19 0)
(0 -1.31829e-19 0)
(0 -1.33897e-19 0)
(0 -1.34646e-19 0)
(0 -1.36958e-19 0)
(0 -1.38746e-19 0)
(0 -1.40226e-19 0)
(0 -1.42356e-19 0)
(0 -1.43912e-19 0)
(0 -1.45725e-19 0)
(0 -1.47688e-19 0)
(0 -1.49958e-19 0)
(0 -1.51809e-19 0)
(0 -1.53248e-19 0)
(0 -1.55712e-19 0)
(0 -1.58696e-19 0)
(0 -1.59922e-19 0)
(0 -1.62107e-19 0)
(0 -1.64943e-19 0)
(0 -1.67366e-19 0)
(0 -1.69664e-19 0)
(0 -1.71707e-19 0)
(0 -1.74534e-19 0)
(0 -1.77308e-19 0)
(0 -1.79765e-19 0)
(0 -1.82454e-19 0)
(0 -1.85526e-19 0)
(0 -1.88427e-19 0)
(0 -1.91428e-19 0)
(0 -1.94526e-19 0)
(0 -1.9774e-19 0)
(0 -2.00993e-19 0)
(0 -2.04232e-19 0)
(0 -2.07721e-19 0)
(0 -2.11331e-19 0)
(0 -2.14993e-19 0)
(0 -2.18857e-19 0)
(0 -2.22892e-19 0)
(0 -2.27007e-19 0)
(0 -2.31253e-19 0)
(0 -2.35639e-19 0)
(0 -2.40154e-19 0)
(0 -2.44817e-19 0)
(0 -2.49663e-19 0)
(0 -2.54699e-19 0)
(0 -2.59929e-19 0)
(0 -2.65378e-19 0)
(0 -2.71046e-19 0)
(0 -2.76931e-19 0)
(0 -2.83046e-19 0)
(0 -2.89404e-19 0)
(0 -2.96015e-19 0)
(0 -3.02896e-19 0)
(0 -3.1006e-19 0)
(0 -3.17521e-19 0)
(0 -3.25291e-19 0)
(0 -3.33383e-19 0)
(0 -3.41813e-19 0)
(0 -3.50597e-19 0)
(0 -3.59752e-19 0)
(0 -3.69301e-19 0)
(0 -3.7927e-19 0)
(0 -3.89694e-19 0)
(0 -4.00615e-19 0)
(0 -4.12083e-19 0)
(0 -4.24156e-19 0)
(0 -4.36896e-19 0)
(0 -4.50368e-19 0)
(0 -4.64659e-19 0)
(0 -4.79906e-19 0)
(0 -4.96329e-19 0)
(0 -5.1423e-19 0)
(0 -5.33887e-19 0)
(0 -5.5533e-19 0)
(0 -5.78159e-19 0)
(0 -6.01908e-19 0)
(0 -6.27306e-19 0)
(0 -6.57083e-19 0)
(0 -6.92836e-19 0)
(0 9.20596e-17 0)
(0 3.36833e-16 0)
(0 1.90723e-15 0)
(0 2.71449e-14 0)
(0 4.55654e-13 0)
(0 8.55182e-12 0)
(0 1.81789e-10 0)
(0 4.40922e-09 0)
(0 1.23087e-07 0)
(0 4.31779e-06 0)
(0 0.000504528 0)
(0 0.0500105 0)
(0 1.20182 0)
(0 3.90394 0)
(0 2.74695 0)
(0 -3.25123 0)
(0 -4.30512 0)
(0 -4.87334 0)
(0 -4.95787 0)
(0 -4.88967 0)
(0 -4.7586 0)
(0 -4.59074 0)
(0 -4.39025 0)
(0 -4.15661 0)
(0 -3.8893 0)
(0 -3.59229 0)
(0 -3.26901 0)
(0 -2.91069 0)
(0 -2.50351 0)
(0 -2.06896 0)
(0 -1.66953 0)
(0 -1.35074 0)
(0 -1.11388 0)
(0 -0.939655 0)
(0 -0.809335 0)
(0 -0.709674 0)
(0 -0.631867 0)
(0 -0.570024 0)
(0 -0.52013 0)
(0 -0.479371 0)
(0 -0.445731 0)
(0 -0.417725 0)
(0 -0.394239 0)
(0 -0.374418 0)
(0 -0.357595 0)
(0 -0.343242 0)
(0 -0.330936 0)
(0 -0.320334 0)
(0 -0.311157 0)
(0 -0.303174 0)
(0 -0.296197 0)
(0 -0.290069 0)
(0 -0.284658 0)
(0 -0.279853 0)
(0 -0.275559 0)
(0 -0.271697 0)
(0 -0.268205 0)
(0 -0.265038 0)
(0 -0.262169 0)
(0 -0.259581 0)
(0 -0.25727 0)
(0 -0.255239 0)
(0 -0.253499 0)
(0 -0.252052 0)
(0 -0.250864 0)
(0 -0.249851 0)
(0 -0.248896 0)
(0 -0.247921 0)
(-1.20506e-16 -0.24688 0)
(0 -0.245671 0)
(0 -0.244095 0)
(1.37134e-16 -0.241909 0)
(0 -0.238881 0)
(-7.52256e-17 -0.234812 0)
(0 -0.229536 0)
(8.28025e-17 -0.2229 0)
(0 -0.214778 0)
(0 -0.20504 0)
(0 -0.193644 0)
(4.99576e-17 -0.180981 0)
(0 -0.167475 0)
(0 -0.153149 0)
(0 -0.138273 0)
(0 -0.123568 0)
(0 -0.109393 0)
(-3.0688e-17 -0.0957954 0)
(0 -0.0828615 0)
(-1.59303e-17 -0.0708929 0)
(0 -0.0602129 0)
(-1.6281e-17 -0.0506073 0)
(0 -0.0420034 0)
(0 -0.0345958 0)
(0 -0.0282574 0)
(0 -0.0228418 0)
(4.0596e-18 -0.0183043 0)
(0 -0.0145152 0)
(0 -0.0114158 0)
(0 -0.00878199 0)
(0 -0.00661342 0)
(0 -0.00505391 0)
(0 -0.00420518 0)
(0 -0.00371602 0)
(0 -0.00170386 0)
(0 0 0)
(0 0 0)
(0 0 0)
(0 0 0)
(0 0 0)
(0 0 0)
(0 0 0)
(0 0 0)
(0 0 0)
(0 0 0)
(0 0 0)
(0 0 0)
(0 0 0)
(0 0 0)
(0 0 0)
(0 0 0)
(0 0 0)
(0 0 0)
(0 0 0)
(0 0 0)
(0 0 0)
(0 0 0)
(0 0 0)
(0 0 0)
(0 0 0)
(0 0 0)
(0 0 0)
(0 0 0)
(0 0 0)
(0 0 0)
(0 0 0)
(0 0 0)
(0 0 0)
(0 0 0)
(0 0 0)
(0 0 0)
(0 0 0)
(0 0 0)
(0 0 0)
(0 0 0)
(0 0 0)
(0 0 0)
(0 0 0)
(0 0 0)
(0 0 0)
(0 0 0)
(0 0 0)
(0 0 0)
(0 0 0)
(0 0 0)
(0 0 0)
(0 0 0)
(0 0 0)
(0 0 0)
(0 0 0)
(0 0 0)
(0 0 0)
(0 0 0)
(0 0 0)
(0 0 0)
(0 0 0)
(0 0 0)
(0 0 0)
(0 0 0)
(0 0 0)
(0 0 0)
(0 0 0)
(0 0 0)
(0 0 0)
(0 0 0)
(0 0 0)
(0 0 0)
(0 0 0)
(0 0 0)
(0 0 0)
(0 0 0)
(0 0 0)
(0 0 0)
(0 0 0)
(0 0 0)
(0 0 0)
(0 0 0)
(0 0 0)
(0 0 0)
(0 0 0)
(0 0 0)
(0 0 0)
(0 0 0)
(0 0 0)
(0 0 0)
(0 0 0)
(0 0 0)
(0 0 0)
(0 0 0)
(0 0 0)
(0 0 0)
(0 0 0)
(0 0 0)
(0 0 0)
(0 0 0)
(0 0 0)
(0 0 0)
(0 0 0)
(0 0 0)
(0 0 0)
(0 0 0)
(0 0 0)
(0 0 0)
(0 0 0)
(0 0 0)
(0 0 0)
(0 0 0)
(0 0 0)
(0 0 0)
(0 0 0)
(0 0 0)
(0 0 0)
(0 0 0)
(0 0 0)
(0 0 0)
(0 0 0)
(0 0 0)
(0 0 0)
)
;

boundaryField
{
    inandouthalf11
    {
        type            cyclic;
    }
    inandouthalf12
    {
        type            cyclic;
    }
    inandouthalf21
    {
        type            cyclic;
    }
    inandouthalf22
    {
        type            cyclic;
    }
    inandouthalf31
    {
        type            cyclic;
    }
    inandouthalf32
    {
        type            cyclic;
    }
    inandouthalf41
    {
        type            cyclic;
    }
    inandouthalf42
    {
        type            cyclic;
    }
    top
    {
        type            symmetryPlane;
    }
    walls
    {
        type            calculated;
        value           uniform (0 0 0);
    }
    frontAndBackPlanes
    {
        type            empty;
    }
}


// ************************************************************************* //
