/*--------------------------------*- C++ -*----------------------------------*\
| =========                 |                                                 |
| \\      /  F ield         | OpenFOAM: The Open Source CFD Toolbox           |
|  \\    /   O peration     | Version:  2.4.x                                 |
|   \\  /    A nd           | Web:      www.OpenFOAM.org                      |
|    \\/     M anipulation  |                                                 |
\*---------------------------------------------------------------------------*/
FoamFile
{
    version     2.0;
    format      ascii;
    class       volVectorField;
    location    "8";
    object      gradPf;
}
// * * * * * * * * * * * * * * * * * * * * * * * * * * * * * * * * * * * * * //

dimensions      [0 1 -2 0 0 0 0];

internalField   nonuniform List<vector> 
360
(
(0 68.078 0)
(0 77.0026 0)
(0 0.848459 0)
(0 -12.2845 0)
(-3.34456e-14 -5.5227 0)
(-3.34464e-14 -3.01431 0)
(-3.34474e-14 -3.61842 0)
(0 -4.06494 0)
(-3.34498e-14 -4.12286 0)
(0 -4.14696 0)
(-3.34524e-14 -4.13448 0)
(0 -4.11501 0)
(-3.3455e-14 -4.11256 0)
(0 -4.11169 0)
(0 -4.12411 0)
(0 -4.13706 0)
(0 -4.13843 0)
(-1.67308e-14 -4.13446 0)
(0 -4.14813 0)
(0 -4.14503 0)
(0 -4.14314 0)
(-1.67336e-14 -4.15841 0)
(0 -4.15777 0)
(0 -4.16311 0)
(0 -4.16905 0)
(-3.34729e-14 -4.16567 0)
(0 -4.17624 0)
(0 -4.18833 0)
(0 -4.18443 0)
(0 -4.1863 0)
(0 -4.20553 0)
(0 -4.19515 0)
(0 -4.20862 0)
(0 -4.22285 0)
(0 -4.21475 0)
(1.67441e-14 -4.22224 0)
(0 -4.22644 0)
(0 -4.25347 0)
(0 -4.23185 0)
(0 -4.24293 0)
(0 -4.2738 0)
(0 -4.24341 0)
(1.675e-14 -4.26505 0)
(0 -4.28069 0)
(0 -4.27219 0)
(0 -4.2961 0)
(0 -4.27776 0)
(0 -4.2754 0)
(0 -4.32222 0)
(0 -4.30643 0)
(1.67572e-14 -4.29859 0)
(0 -4.31911 0)
(0 -4.32503 0)
(0 -4.31904 0)
(0 -4.33502 0)
(0 -4.33837 0)
(0 -4.33655 0)
(0 -4.35603 0)
(0 -4.33145 0)
(0 -4.35724 0)
(0 -4.36581 0)
(0 -4.36227 0)
(0 -4.37779 0)
(0 -4.37331 0)
(0 -4.3755 0)
(0 -4.38115 0)
(0 -4.39455 0)
(0 -4.39347 0)
(0 -4.37972 0)
(0 -4.39559 0)
(0 -4.42476 0)
(0 -4.402 0)
(0 -4.40443 0)
(0 -4.42425 0)
(0 -4.42998 0)
(0 -4.42991 0)
(0 -4.42109 0)
(0 -4.4317 0)
(0 -4.4394 0)
(0 -4.43747 0)
(0 -4.43995 0)
(0 -4.45043 0)
(0 -4.45477 0)
(0 -4.45914 0)
(0 -4.46341 0)
(0 -4.46776 0)
(0 -4.47042 0)
(0 -4.47033 0)
(0 -4.47355 0)
(0 -4.47724 0)
(0 -4.4798 0)
(0 -4.4843 0)
(0 -4.48984 0)
(0 -4.49416 0)
(0 -4.49812 0)
(0 -4.50165 0)
(0 -4.50441 0)
(0 -4.50667 0)
(0 -4.50894 0)
(0 -4.51123 0)
(0 -4.51347 0)
(0 -4.51587 0)
(0 -4.51823 0)
(0 -4.52029 0)
(0 -4.52204 0)
(0 -4.52345 0)
(0 -4.52447 0)
(0 -4.52509 0)
(0 -4.52527 0)
(0 -4.52493 0)
(0 -4.52395 0)
(0 -4.52222 0)
(0 -4.51962 0)
(0 -4.51602 0)
(0 -4.51132 0)
(0 -4.50541 0)
(0 -4.49823 0)
(0 -4.48974 0)
(0 -4.47997 0)
(0 -4.46896 0)
(0 -4.45674 0)
(0 -4.44331 0)
(0 -4.42867 0)
(0 -4.41296 0)
(0 -4.39673 0)
(0 -4.38114 0)
(0 -4.36774 0)
(0 -4.35742 0)
(0 -4.34875 0)
(0 -4.33725 0)
(0 -4.31889 0)
(0 -4.29851 0)
(0 -4.29243 0)
(0 -4.30731 0)
(0 -4.3145 0)
(0 -4.28167 0)
(0 -4.24512 0)
(0 -4.31102 0)
(0 -4.52174 0)
(0 -4.64879 0)
(0 -4.37436 0)
(0 -4.31018 0)
(0 -4.85712 0)
(0 -5.41793 0)
(0 -7.14473 0)
(0 -8.71312 0)
(0 -8.17002 0)
(0 -8.10059 0)
(0 -5.81163 0)
(0 0 0)
(0 0 0)
(0 0 0)
(0 0 0)
(0 0 0)
(0 0 0)
(0 0 0)
(0 0 0)
(0 0 0)
(0 0 0)
(0 0 0)
(0 0 0)
(0 0 0)
(0 0 0)
(0 0 0)
(0 0 0)
(0 0 0)
(0 0 0)
(0 0 0)
(0 0 0)
(0 0 0)
(0 0 0)
(0 0 0)
(0 0 0)
(0 0 0)
(0 0 0)
(0 0 0)
(0 0 0)
(0 0 0)
(0 0 0)
(0 0 0)
(0 0 0)
(0 0 0)
(0 0 0)
(0 0 0)
(0 0 0)
(0 0 0)
(0 0 0)
(0 0 0)
(0 0 0)
(0 0 0)
(0 0 0)
(0 0 0)
(0 0 0)
(0 0 0)
(0 0 0)
(0 0 0)
(0 0 0)
(0 0 0)
(0 0 0)
(0 0 0)
(0 0 0)
(0 0 0)
(0 0 0)
(0 0 0)
(0 0 0)
(0 0 0)
(0 0 0)
(0 0 0)
(0 0 0)
(0 0 0)
(0 0 0)
(0 0 0)
(0 0 0)
(0 0 0)
(0 0 0)
(0 0 0)
(0 0 0)
(0 0 0)
(0 0 0)
(0 0 0)
(0 0 0)
(0 0 0)
(0 0 0)
(0 0 0)
(0 0 0)
(0 0 0)
(0 0 0)
(0 0 0)
(0 0 0)
(0 0 0)
(0 0 0)
(0 0 0)
(0 0 0)
(0 0 0)
(0 0 0)
(0 0 0)
(0 0 0)
(0 0 0)
(0 0 0)
(0 0 0)
(0 0 0)
(0 0 0)
(0 0 0)
(0 0 0)
(0 0 0)
(0 0 0)
(0 0 0)
(0 0 0)
(0 0 0)
(0 0 0)
(0 0 0)
(0 0 0)
(0 0 0)
(0 0 0)
(0 0 0)
(0 0 0)
(0 0 0)
(0 0 0)
(0 0 0)
(0 0 0)
(0 0 0)
(0 0 0)
(0 0 0)
(0 0 0)
(0 0 0)
(0 0 0)
(0 0 0)
(0 0 0)
(0 0 0)
(0 0 0)
(0 0 0)
(0 0 0)
(0 0 0)
(0 0 0)
(0 0 0)
(0 0 0)
(0 0 0)
(0 0 0)
(0 0 0)
(0 0 0)
(0 0 0)
(0 0 0)
(0 0 0)
(0 0 0)
(0 0 0)
(0 0 0)
(0 0 0)
(0 0 0)
(0 0 0)
(0 0 0)
(0 0 0)
(0 0 0)
(0 0 0)
(0 0 0)
(0 0 0)
(0 0 0)
(0 0 0)
(0 0 0)
(0 0 0)
(0 0 0)
(0 0 0)
(0 0 0)
(0 0 0)
(0 0 0)
(0 0 0)
(0 0 0)
(0 0 0)
(0 0 0)
(0 0 0)
(0 0 0)
(0 0 0)
(0 0 0)
(0 0 0)
(0 0 0)
(0 0 0)
(0 0 0)
(0 0 0)
(0 0 0)
(0 0 0)
(0 0 0)
(0 0 0)
(0 0 0)
(0 0 0)
(0 0 0)
(0 0 0)
(0 0 0)
(0 0 0)
(0 0 0)
(0 0 0)
(0 0 0)
(0 0 0)
(0 0 0)
(0 0 0)
(0 0 0)
(0 0 0)
(0 0 0)
(0 0 0)
(0 0 0)
(0 0 0)
(0 0 0)
(0 0 0)
(0 0 0)
(0 0 0)
(0 0 0)
(0 0 0)
(0 0 0)
(0 0 0)
(0 0 0)
(0 0 0)
(0 0 0)
(0 0 0)
(0 0 0)
(0 0 0)
(0 0 0)
(0 0 0)
(0 0 0)
(0 0 0)
(0 0 0)
(0 0 0)
(0 0 0)
)
;

boundaryField
{
    inandouthalf11
    {
        type            cyclic;
    }
    inandouthalf12
    {
        type            cyclic;
    }
    inandouthalf21
    {
        type            cyclic;
    }
    inandouthalf22
    {
        type            cyclic;
    }
    inandouthalf31
    {
        type            cyclic;
    }
    inandouthalf32
    {
        type            cyclic;
    }
    inandouthalf41
    {
        type            cyclic;
    }
    inandouthalf42
    {
        type            cyclic;
    }
    top
    {
        type            symmetryPlane;
    }
    walls
    {
        type            calculated;
        value           uniform (0 0 0);
    }
    frontAndBackPlanes
    {
        type            empty;
    }
}


// ************************************************************************* //
