/*--------------------------------*- C++ -*----------------------------------*\
| =========                 |                                                 |
| \\      /  F ield         | OpenFOAM: The Open Source CFD Toolbox           |
|  \\    /   O peration     | Version:  2.4.x                                 |
|   \\  /    A nd           | Web:      www.OpenFOAM.org                      |
|    \\/     M anipulation  |                                                 |
\*---------------------------------------------------------------------------*/
FoamFile
{
    version     2.0;
    format      ascii;
    class       volScalarField;
    location    "8";
    object      k;
}
// * * * * * * * * * * * * * * * * * * * * * * * * * * * * * * * * * * * * * //

dimensions      [0 2 -2 0 0 0 0];

internalField   nonuniform List<scalar> 
360
(
1e-20
1e-20
1e-20
1e-20
1e-20
1e-20
1e-20
1e-20
1e-20
1e-20
1e-20
1e-20
1e-20
1e-20
1e-20
1e-20
1e-20
1e-20
1e-20
1e-20
1e-20
1e-20
1e-20
1e-20
1e-20
1e-20
1e-20
1e-20
1e-20
1e-20
1e-20
1e-20
1e-20
1e-20
1e-20
1e-20
1e-20
1e-20
1e-20
1e-20
1e-20
1e-20
1e-20
1e-20
1e-20
1e-20
1e-20
1e-20
1e-20
1e-20
1e-20
1e-20
1e-20
1e-20
1e-20
1e-20
1e-20
1e-20
1e-20
1e-20
1e-20
1e-20
1e-20
1e-20
1e-20
1e-20
1e-20
1e-20
1e-20
1e-20
1e-20
1e-20
1e-20
1e-20
1e-20
1e-20
1e-20
1e-20
1e-20
1e-20
1e-20
1e-20
1e-20
1e-20
1e-20
1e-20
1e-20
1e-20
1e-20
1e-20
1e-20
1e-20
1e-20
1e-20
1e-20
1e-20
1e-20
1e-20
1e-20
1e-20
1e-20
1e-20
1e-20
1e-20
1e-20
1e-20
1e-20
1e-20
1e-20
1e-20
1e-20
1e-20
1e-20
1e-20
1e-20
1e-20
1e-20
1e-20
1e-20
1e-20
1e-20
1e-20
1e-20
1e-20
1e-20
1e-20
1e-20
1e-20
1e-20
1e-20
1e-20
1e-20
1e-20
1e-20
1e-20
1.54665e-20
3.00265e-20
1.29815e-19
1.66316e-18
2.76412e-17
5.20088e-16
1.10925e-14
2.70166e-13
7.57073e-12
2.45978e-10
9.35457e-09
4.19379e-07
2.1651e-05
0.000757653
0.00472789
0.00717537
0.00797724
0.00806494
0.00776019
0.007231
0.00657776
0.00586812
0.00515382
0.0044789
0.00388146
0.00338974
0.00301582
0.00275326
0.00258249
0.00247999
0.00242505
0.00240219
0.00240076
0.00241369
0.00243635
0.00246564
0.0024995
0.0025365
0.00257563
0.00261615
0.00265751
0.0026993
0.00274118
0.00278288
0.0028242
0.00286493
0.00290492
0.00294405
0.00298218
0.00301922
0.00305507
0.00308965
0.0031229
0.00315474
0.00318513
0.003214
0.00324133
0.00326708
0.0032912
0.00331369
0.00333452
0.00335366
0.00337112
0.00338688
0.00340095
0.00341331
0.00342408
0.00343329
0.00344084
0.00344663
0.00345056
0.00345253
0.00345242
0.00345014
0.00344557
0.00343859
0.0034291
0.00341698
0.00340212
0.00338441
0.00336374
0.00333998
0.00331304
0.00328281
0.00324919
0.00321207
0.00317137
0.00312699
0.00307886
0.00302691
0.00297107
0.0029113
0.00284755
0.0027798
0.00270804
0.00263229
0.00255258
0.00246896
0.00238151
0.00229034
0.00219559
0.00209745
0.00199613
0.0018919
0.00178507
0.00167602
0.00156517
0.00145304
0.00134018
0.00122725
0.00111498
0.00100418
0.000895737
0.00079061
0.000689806
0.000594346
0.000505219
0.000423311
0.000349322
0.000283672
0.000226421
0.000177227
0.000135383
9.99248e-05
6.98256e-05
4.42415e-05
2.28657e-05
6.67079e-06
5.66717e-07
1.52712e-08
3.25324e-10
6.62981e-12
1.29458e-13
2.41355e-15
4.28386e-17
7.27352e-19
1.89422e-20
1e-20
1e-20
1e-20
1e-20
1e-20
1e-20
1e-20
1e-20
1e-20
1e-20
1e-20
1e-20
1e-20
1e-20
1e-20
1e-20
1e-20
1e-20
1e-20
1e-20
1e-20
1e-20
1e-20
1e-20
1e-20
1e-20
1e-20
1e-20
1e-20
1e-20
1e-20
1e-20
1e-20
1e-20
1e-20
1e-20
1e-20
1e-20
1e-20
1e-20
1e-20
1e-20
1e-20
1e-20
1e-20
1e-20
1e-20
1e-20
1e-20
1e-20
1e-20
1e-20
1e-20
1e-20
1e-20
1e-20
1e-20
1e-20
1e-20
1e-20
1e-20
1e-20
1e-20
1e-20
1e-20
1e-20
1e-20
1e-20
1e-20
1e-20
1e-20
1e-20
1e-20
1e-20
1e-20
1e-20
1e-20
1e-20
1e-20
1e-20
1e-20
1e-20
1e-20
1e-20
1e-20
1e-20
1e-20
1e-20
)
;

boundaryField
{
    inandouthalf11
    {
        type            cyclic;
    }
    inandouthalf12
    {
        type            cyclic;
    }
    inandouthalf21
    {
        type            cyclic;
    }
    inandouthalf22
    {
        type            cyclic;
    }
    inandouthalf31
    {
        type            cyclic;
    }
    inandouthalf32
    {
        type            cyclic;
    }
    inandouthalf41
    {
        type            cyclic;
    }
    inandouthalf42
    {
        type            cyclic;
    }
    top
    {
        type            symmetryPlane;
    }
    walls
    {
        type            zeroGradient;
    }
    frontAndBackPlanes
    {
        type            empty;
    }
}


// ************************************************************************* //
