/*--------------------------------*- C++ -*----------------------------------*\
| =========                 |                                                 |
| \\      /  F ield         | OpenFOAM: The Open Source CFD Toolbox           |
|  \\    /   O peration     | Version:  2.4.x                                 |
|   \\  /    A nd           | Web:      www.OpenFOAM.org                      |
|    \\/     M anipulation  |                                                 |
\*---------------------------------------------------------------------------*/
FoamFile
{
    version     2.0;
    format      ascii;
    class       volScalarField;
    location    "8";
    object      k_0;
}
// * * * * * * * * * * * * * * * * * * * * * * * * * * * * * * * * * * * * * //

dimensions      [0 2 -2 0 0 0 0];

internalField   nonuniform List<scalar> 
360
(
1e-20
1e-20
1e-20
1e-20
1e-20
1e-20
1e-20
1e-20
1e-20
1e-20
1e-20
1e-20
1e-20
1e-20
1e-20
1e-20
1e-20
1e-20
1e-20
1e-20
1e-20
1e-20
1e-20
1e-20
1e-20
1e-20
1e-20
1e-20
1e-20
1e-20
1e-20
1e-20
1e-20
1e-20
1e-20
1e-20
1e-20
1e-20
1e-20
1e-20
1e-20
1e-20
1e-20
1e-20
1e-20
1e-20
1e-20
1e-20
1e-20
1e-20
1e-20
1e-20
1e-20
1e-20
1e-20
1e-20
1e-20
1e-20
1e-20
1e-20
1e-20
1e-20
1e-20
1e-20
1e-20
1e-20
1e-20
1e-20
1e-20
1e-20
1e-20
1e-20
1e-20
1e-20
1e-20
1e-20
1e-20
1e-20
1e-20
1e-20
1e-20
1e-20
1e-20
1e-20
1e-20
1e-20
1e-20
1e-20
1e-20
1e-20
1e-20
1e-20
1e-20
1e-20
1e-20
1e-20
1e-20
1e-20
1e-20
1e-20
1e-20
1e-20
1e-20
1e-20
1e-20
1e-20
1e-20
1e-20
1e-20
1e-20
1e-20
1e-20
1e-20
1e-20
1e-20
1e-20
1e-20
1e-20
1e-20
1e-20
1e-20
1e-20
1e-20
1e-20
1e-20
1e-20
1e-20
1e-20
1e-20
1e-20
1e-20
1e-20
1e-20
1e-20
1e-20
1.54949e-20
3.00704e-20
1.29548e-19
1.65761e-18
2.75419e-17
5.18113e-16
1.10483e-14
2.69046e-13
7.5384e-12
2.44905e-10
9.31316e-09
4.17494e-07
2.15544e-05
0.000755236
0.00472283
0.0071724
0.00797428
0.00806172
0.00775668
0.00722726
0.0065739
0.00586424
0.00515007
0.00447543
0.00387843
0.00338727
0.00301395
0.00275194
0.00258162
0.00247946
0.00242477
0.00240209
0.00240079
0.00241382
0.00243655
0.0024659
0.00249981
0.00253685
0.002576
0.00261655
0.00265794
0.00269974
0.00274164
0.00278336
0.00282468
0.00286543
0.00290543
0.00294457
0.00298271
0.00301975
0.00305561
0.0030902
0.00312345
0.00315529
0.00318568
0.00321456
0.00324188
0.00326763
0.00329175
0.00331424
0.00333506
0.0033542
0.00337166
0.00338742
0.00340147
0.00341383
0.00342459
0.00343379
0.00344134
0.00344712
0.00345104
0.003453
0.00345289
0.00345059
0.003446
0.00343902
0.00342951
0.00341738
0.00340251
0.00338478
0.00336409
0.00334032
0.00331337
0.00328312
0.00324947
0.00321234
0.00317162
0.00312722
0.00307907
0.0030271
0.00297124
0.00291145
0.00284768
0.00277991
0.00270813
0.00263236
0.00255263
0.00246899
0.00238152
0.00229033
0.00219556
0.0020974
0.00199607
0.00189182
0.00178498
0.00167591
0.00156505
0.00145291
0.00134004
0.0012271
0.00111483
0.00100402
0.000895582
0.000790459
0.00068966
0.000594208
0.000505092
0.000423197
0.000349223
0.000283589
0.000226353
0.000177173
0.000135341
9.98934e-05
6.98018e-05
4.42233e-05
2.28518e-05
6.66276e-06
5.65495e-07
1.52326e-08
3.24502e-10
6.61306e-12
1.2913e-13
2.40738e-15
4.2728e-17
7.25463e-19
1.89132e-20
1e-20
1e-20
1e-20
1e-20
1e-20
1e-20
1e-20
1e-20
1e-20
1e-20
1e-20
1e-20
1e-20
1e-20
1e-20
1e-20
1e-20
1e-20
1e-20
1e-20
1e-20
1e-20
1e-20
1e-20
1e-20
1e-20
1e-20
1e-20
1e-20
1e-20
1e-20
1e-20
1e-20
1e-20
1e-20
1e-20
1e-20
1e-20
1e-20
1e-20
1e-20
1e-20
1e-20
1e-20
1e-20
1e-20
1e-20
1e-20
1e-20
1e-20
1e-20
1e-20
1e-20
1e-20
1e-20
1e-20
1e-20
1e-20
1e-20
1e-20
1e-20
1e-20
1e-20
1e-20
1e-20
1e-20
1e-20
1e-20
1e-20
1e-20
1e-20
1e-20
1e-20
1e-20
1e-20
1e-20
1e-20
1e-20
1e-20
1e-20
1e-20
1e-20
1e-20
1e-20
1e-20
1e-20
1e-20
1e-20
)
;

boundaryField
{
    inandouthalf11
    {
        type            cyclic;
    }
    inandouthalf12
    {
        type            cyclic;
    }
    inandouthalf21
    {
        type            cyclic;
    }
    inandouthalf22
    {
        type            cyclic;
    }
    inandouthalf31
    {
        type            cyclic;
    }
    inandouthalf32
    {
        type            cyclic;
    }
    inandouthalf41
    {
        type            cyclic;
    }
    inandouthalf42
    {
        type            cyclic;
    }
    top
    {
        type            symmetryPlane;
    }
    walls
    {
        type            zeroGradient;
    }
    frontAndBackPlanes
    {
        type            empty;
    }
}


// ************************************************************************* //
