/*--------------------------------*- C++ -*----------------------------------*\
| =========                 |                                                 |
| \\      /  F ield         | OpenFOAM: The Open Source CFD Toolbox           |
|  \\    /   O peration     | Version:  2.4.x                                 |
|   \\  /    A nd           | Web:      www.OpenFOAM.org                      |
|    \\/     M anipulation  |                                                 |
\*---------------------------------------------------------------------------*/
FoamFile
{
    version     2.0;
    format      ascii;
    class       volScalarField;
    location    "8";
    object      mua;
}
// * * * * * * * * * * * * * * * * * * * * * * * * * * * * * * * * * * * * * //

dimensions      [1 -1 -1 0 0 0 0];

internalField   nonuniform List<scalar> 
360
(
2.10626e+06
1.47317e+06
1.79627e+06
1.8248e+06
1.71669e+06
1.66247e+06
1.64809e+06
1.64191e+06
1.63575e+06
1.62914e+06
1.62291e+06
1.61811e+06
1.61475e+06
1.61249e+06
1.6107e+06
1.60887e+06
1.60693e+06
1.60495e+06
1.60282e+06
1.60038e+06
1.59784e+06
1.59478e+06
1.5912e+06
1.58713e+06
1.58251e+06
1.57742e+06
1.57178e+06
1.56536e+06
1.5584e+06
1.55101e+06
1.543e+06
1.5344e+06
1.52549e+06
1.51576e+06
1.50584e+06
1.49558e+06
1.48501e+06
1.47386e+06
1.46242e+06
1.45114e+06
1.43921e+06
1.42732e+06
1.41557e+06
1.4033e+06
1.39107e+06
1.37879e+06
1.36667e+06
1.35503e+06
1.34293e+06
1.33054e+06
1.31873e+06
1.30693e+06
1.29521e+06
1.28364e+06
1.27239e+06
1.26109e+06
1.25031e+06
1.23966e+06
1.22954e+06
1.21976e+06
1.20965e+06
1.1998e+06
1.18993e+06
1.18041e+06
1.17131e+06
1.16262e+06
1.15415e+06
1.14606e+06
1.13859e+06
1.13145e+06
1.12391e+06
1.11644e+06
1.10951e+06
1.1024e+06
1.09529e+06
1.0884e+06
1.08221e+06
1.07652e+06
1.07108e+06
1.06592e+06
1.06103e+06
1.05608e+06
1.05096e+06
1.04574e+06
1.04046e+06
1.03527e+06
1.03028e+06
1.02567e+06
1.02147e+06
1.01758e+06
1.01391e+06
1.01031e+06
1.00661e+06
1.00272e+06
998631
994377
990023
985645
981295
976992
972730
968475
964180
959793
955258
950505
945441
939945
933864
927011
919173
910113
899586
887353
873198
856960
838550
817986
795413
771122
745554
719291
693020
667473
643344
621212
601518
584615
570916
561015
555557
554663
557144
560524
562621
562763
559327
546469
520605
499173
529498
685682
1.11784e+06
2.42891e+06
7.52787e+06
1.59201e+07
29706.6
0.101834
0.0198235
0.010039
0.00805978
0.00701149
0.00630563
0.00580471
0.00543587
0.00514467
0.00489708
0.00467508
0.0044739
0.00429583
0.00414393
0.00401838
0.00391625
0.00383335
0.00376573
0.00371034
0.00366485
0.00362748
0.00359684
0.00357179
0.0035514
0.00353487
0.00352153
0.00351083
0.00350226
0.0034954
0.00348989
0.0034854
0.00348165
0.00347841
0.00347548
0.00347266
0.0034698
0.00346678
0.00346347
0.00345978
0.00345562
0.00345092
0.00344563
0.0034397
0.00343309
0.00342577
0.00341772
0.00340891
0.00339934
0.003389
0.0033779
0.00336602
0.00335338
0.00333999
0.00332585
0.00331084
0.00329476
0.0032776
0.0032593
0.00323983
0.00321915
0.00319721
0.00317396
0.00314935
0.00312334
0.00309584
0.00306681
0.00303617
0.00300382
0.00296968
0.00293364
0.00289556
0.00285531
0.00281272
0.00276758
0.00271968
0.00266873
0.0026144
0.0025563
0.00249394
0.00242671
0.00235384
0.00227433
0.00218685
0.00208953
0.00197969
0.00185323
0.00170322
0.00151634
0.00125984
0
0
0
0
0
0
0
0
0
0
0
0
0
0
0
0
0
0
0
0
0
0
0
0
0
0
0
0
0
0
0
0
0
0
0
0
0
0
0
0
0
0
0
0
0
0
0
0
0
0
0
0
0
0
0
0
0
0
0
0
0
0
0
0
0
0
0
0
0
0
0
0
0
0
0
0
0
0
0
0
0
0
0
0
0
0
0
0
0
0
0
0
0
0
0
0
0
0
0
0
0
0
0
0
0
0
0
0
0
0
0
0
0
0
0
0
0
0
0
0
0
0
0
0
)
;

boundaryField
{
    inandouthalf11
    {
        type            cyclic;
    }
    inandouthalf12
    {
        type            cyclic;
    }
    inandouthalf21
    {
        type            cyclic;
    }
    inandouthalf22
    {
        type            cyclic;
    }
    inandouthalf31
    {
        type            cyclic;
    }
    inandouthalf32
    {
        type            cyclic;
    }
    inandouthalf41
    {
        type            cyclic;
    }
    inandouthalf42
    {
        type            cyclic;
    }
    top
    {
        type            symmetryPlane;
    }
    walls
    {
        type            calculated;
        value           uniform 1e+30;
    }
    frontAndBackPlanes
    {
        type            empty;
    }
}


// ************************************************************************* //
