/*--------------------------------*- C++ -*----------------------------------*\
| =========                 |                                                 |
| \\      /  F ield         | OpenFOAM: The Open Source CFD Toolbox           |
|  \\    /   O peration     | Version:  2.4.x                                 |
|   \\  /    A nd           | Web:      www.OpenFOAM.org                      |
|    \\/     M anipulation  |                                                 |
\*---------------------------------------------------------------------------*/
FoamFile
{
    version     2.0;
    format      ascii;
    class       volScalarField;
    location    "8";
    object      nutb;
}
// * * * * * * * * * * * * * * * * * * * * * * * * * * * * * * * * * * * * * //

dimensions      [0 2 -1 0 0 0 0];

internalField   nonuniform List<scalar> 
360
(
9e-22
9e-22
9e-22
9e-22
9e-22
9e-22
9e-22
9e-22
9e-22
9e-22
9e-22
9e-22
9e-22
9e-22
9e-22
9e-22
9e-22
9e-22
9e-22
9e-22
9e-22
9e-22
9e-22
9e-22
9e-22
9e-22
9e-22
9e-22
9e-22
9e-22
9e-22
9e-22
9e-22
9e-22
9e-22
9e-22
9e-22
9e-22
9e-22
9e-22
9e-22
9e-22
9e-22
9e-22
9e-22
9e-22
9e-22
9e-22
9e-22
9e-22
9e-22
9e-22
9e-22
9e-22
9e-22
9e-22
9e-22
9e-22
9e-22
9e-22
9e-22
9e-22
9e-22
9e-22
9e-22
9e-22
9e-22
9e-22
9e-22
9e-22
9e-22
9e-22
9e-22
9e-22
9e-22
9e-22
9e-22
9e-22
9e-22
9e-22
9e-22
9e-22
9e-22
9e-22
9e-22
9e-22
9e-22
9e-22
9e-22
9e-22
9e-22
9e-22
9e-22
9e-22
9e-22
9e-22
9e-22
9e-22
9e-22
9e-22
9e-22
9e-22
9e-22
9e-22
9e-22
9e-22
9e-22
9e-22
9e-22
9e-22
9e-22
9e-22
9e-22
9e-22
9e-22
9e-22
9e-22
9e-22
9e-22
9e-22
9e-22
9e-22
9e-22
9e-22
9e-22
9e-22
9e-22
9e-22
9e-22
9e-22
9e-22
9e-22
9e-22
9e-22
9e-22
1.07247e-21
1.22166e-21
2.93095e-21
3.02196e-20
4.2444e-19
6.71878e-18
1.1975e-16
2.42112e-15
5.59455e-14
1.48832e-12
4.6039e-11
1.66757e-09
6.85958e-08
1.84302e-06
9.44997e-06
1.6244e-05
2.09924e-05
2.44439e-05
2.68868e-05
2.85488e-05
2.9628e-05
3.03245e-05
3.08727e-05
3.15709e-05
3.27958e-05
3.49826e-05
3.85442e-05
4.37465e-05
5.0613e-05
5.89283e-05
6.83307e-05
7.84212e-05
8.88396e-05
9.92973e-05
0.000109582
0.00011955
0.000129109
0.000138208
0.000146825
0.000154958
0.000162617
0.000169821
0.000176592
0.000182957
0.000188942
0.000194572
0.000199871
0.000204862
0.000209568
0.000214006
0.000218195
0.00022215
0.000225886
0.000229415
0.000232749
0.000235899
0.000238873
0.00024168
0.000244327
0.000246821
0.000249167
0.000251371
0.000253438
0.000255372
0.000257177
0.000258856
0.000260429
0.000261909
0.000263291
0.000264572
0.000265747
0.00026681
0.000267758
0.000268584
0.000269283
0.000269849
0.000270276
0.000270557
0.000270685
0.000270655
0.000270457
0.000270085
0.00026953
0.000268785
0.000267842
0.000266692
0.000265325
0.000263735
0.000261911
0.000259844
0.000257526
0.000254947
0.000252099
0.000248972
0.000245557
0.000241846
0.000237831
0.000233505
0.000228859
0.000223888
0.000218586
0.00021295
0.000206976
0.000200665
0.000194016
0.000187035
0.000179728
0.000172107
0.000164187
0.000155989
0.000147538
0.00013887
0.000130024
0.00012105
0.000112004
0.000102948
9.39481e-05
8.50664e-05
7.6354e-05
6.7841e-05
5.95273e-05
5.13818e-05
4.33533e-05
3.53943e-05
2.74851e-05
1.96431e-05
1.19246e-05
4.36334e-06
4.45744e-07
1.24119e-08
2.61752e-10
5.27473e-12
1.01901e-13
1.88073e-15
3.30304e-17
5.16326e-19
3.18962e-21
9e-22
9e-22
9e-22
9e-22
9e-22
9e-22
9e-22
9e-22
9e-22
9e-22
9e-22
9e-22
9e-22
9e-22
9e-22
9e-22
9e-22
9e-22
9e-22
9e-22
9e-22
9e-22
9e-22
9e-22
9e-22
9e-22
9e-22
9e-22
9e-22
9e-22
9e-22
9e-22
9e-22
9e-22
9e-22
9e-22
9e-22
9e-22
9e-22
9e-22
9e-22
9e-22
9e-22
9e-22
9e-22
9e-22
9e-22
9e-22
9e-22
9e-22
9e-22
9e-22
9e-22
9e-22
9e-22
9e-22
9e-22
9e-22
9e-22
9e-22
9e-22
9e-22
9e-22
9e-22
9e-22
9e-22
9e-22
9e-22
9e-22
9e-22
9e-22
9e-22
9e-22
9e-22
9e-22
9e-22
9e-22
9e-22
9e-22
9e-22
9e-22
9e-22
9e-22
9e-22
9e-22
9e-22
9e-22
9e-22
)
;

boundaryField
{
    inandouthalf11
    {
        type            cyclic;
    }
    inandouthalf12
    {
        type            cyclic;
    }
    inandouthalf21
    {
        type            cyclic;
    }
    inandouthalf22
    {
        type            cyclic;
    }
    inandouthalf31
    {
        type            cyclic;
    }
    inandouthalf32
    {
        type            cyclic;
    }
    inandouthalf41
    {
        type            cyclic;
    }
    inandouthalf42
    {
        type            cyclic;
    }
    top
    {
        type            symmetryPlane;
    }
    walls
    {
        type            calculated;
        value           uniform 0;
    }
    frontAndBackPlanes
    {
        type            empty;
    }
}


// ************************************************************************* //
