/*--------------------------------*- C++ -*----------------------------------*\
| =========                 |                                                 |
| \\      /  F ield         | OpenFOAM: The Open Source CFD Toolbox           |
|  \\    /   O peration     | Version:  2.4.x                                 |
|   \\  /    A nd           | Web:      www.OpenFOAM.org                      |
|    \\/     M anipulation  |                                                 |
\*---------------------------------------------------------------------------*/
FoamFile
{
    version     2.0;
    format      ascii;
    class       volScalarField;
    location    "8";
    object      p;
}
// * * * * * * * * * * * * * * * * * * * * * * * * * * * * * * * * * * * * * //

dimensions      [1 -1 -2 0 0 0 0];

internalField   nonuniform List<scalar> 
360
(
4890.57
4885.67
4880.76
4875.85
4870.95
4866.04
4861.13
4856.23
4851.32
4846.41
4841.5
4836.59
4831.68
4826.77
4821.86
4816.95
4812.04
4807.13
4802.22
4797.31
4792.4
4787.48
4782.57
4777.66
4772.74
4767.83
4762.92
4758
4753.09
4748.17
4743.26
4738.34
4733.42
4728.51
4723.59
4718.67
4713.75
4708.84
4703.92
4699
4694.08
4689.16
4684.24
4679.32
4674.4
4669.48
4664.56
4659.64
4654.72
4649.8
4644.87
4639.95
4635.03
4630.1
4625.18
4620.26
4615.33
4610.41
4605.48
4600.56
4595.63
4590.71
4585.78
4580.86
4575.93
4571
4566.07
4561.15
4556.22
4551.29
4546.36
4541.43
4536.5
4531.58
4526.65
4521.72
4516.79
4511.85
4506.92
4501.99
4497.06
4492.13
4487.2
4482.27
4477.33
4472.4
4467.47
4462.53
4457.6
4452.67
4447.73
4442.8
4437.86
4432.93
4428
4423.06
4418.12
4413.19
4408.25
4403.32
4398.38
4393.45
4388.51
4383.57
4378.63
4373.7
4368.76
4363.82
4358.89
4353.95
4349.01
4344.07
4339.13
4334.19
4329.26
4324.32
4319.38
4314.44
4309.5
4304.56
4299.62
4294.68
4289.74
4284.8
4279.86
4274.92
4269.98
4265.04
4260.1
4255.16
4250.22
4245.28
4240.34
4235.4
4230.46
4225.52
4220.58
4215.64
4210.7
4205.75
4200.81
4195.87
4190.93
4185.99
4181.05
4176.11
4171.16
4166.26
4160.22
4151.72
4144.52
4138.67
4133.36
4128.34
4123.53
4118.85
4114.26
4109.72
4105.18
4100.61
4096
4091.31
4086.56
4081.76
4076.91
4072.04
4067.14
4062.23
4057.31
4052.39
4047.46
4042.53
4037.6
4032.67
4027.74
4022.8
4017.87
4012.93
4008
4003.06
3998.13
3993.2
3988.27
3983.34
3978.41
3973.48
3968.55
3963.62
3958.69
3953.77
3948.84
3943.92
3939
3934.07
3929.15
3924.23
3919.32
3914.4
3909.48
3904.57
3899.66
3894.69
3889.63
3884.47
3879.2
3873.83
3868.35
3862.76
3857.06
3851.24
3845.31
3839.26
3833.09
3826.79
3820.37
3813.82
3807.13
3800.32
3793.37
3786.27
3779.04
3771.66
3764.14
3756.46
3748.63
3740.64
3732.49
3724.18
3715.7
3707.05
3698.23
3689.23
3680.05
3670.68
3661.12
3651.37
3641.43
3631.28
3620.93
3610.37
3599.59
3588.6
3577.38
3565.93
3554.25
3542.33
3530.17
3517.75
3505.08
3492.15
3478.95
3465.48
3451.73
3437.69
3423.36
3408.73
3393.8
3378.57
3363.01
3347.14
3330.94
3314.41
3297.55
3280.33
3262.76
3244.83
3226.54
3207.87
3188.83
3169.4
3149.58
3129.35
3108.72
3087.66
3066.18
3044.26
3021.9
2999.08
2975.8
2952.05
2927.81
2903.09
2877.86
2852.12
2825.86
2799.06
2771.72
2743.82
2715.36
2686.32
2656.7
2626.47
2595.62
2564.15
2532.05
2499.29
2465.86
2431.76
2396.96
2361.46
2325.24
2288.28
2250.57
2212.1
2172.85
2132.8
2091.93
2050.24
2007.7
1964.3
1922.76
1883.52
1844.28
1805.04
1765.8
1726.56
1687.32
1648.08
1608.84
1569.6
1530.36
1491.12
1451.88
1412.64
1373.4
1334.16
1294.92
1255.68
1216.44
1177.2
1137.96
1098.72
1059.48
1020.24
981
941.76
902.52
863.28
824.04
784.8
745.56
706.32
667.08
627.84
588.6
549.36
510.12
470.88
431.64
392.4
353.16
313.92
274.68
235.44
196.2
156.96
117.72
78.48
39.24
-2.40214e-07
)
;

boundaryField
{
    inandouthalf11
    {
        type            cyclic;
    }
    inandouthalf12
    {
        type            cyclic;
    }
    inandouthalf21
    {
        type            cyclic;
    }
    inandouthalf22
    {
        type            cyclic;
    }
    inandouthalf31
    {
        type            cyclic;
    }
    inandouthalf32
    {
        type            cyclic;
    }
    inandouthalf41
    {
        type            cyclic;
    }
    inandouthalf42
    {
        type            cyclic;
    }
    top
    {
        type            symmetryPlane;
    }
    walls
    {
        type            slip;
    }
    frontAndBackPlanes
    {
        type            empty;
    }
}


// ************************************************************************* //
