/*--------------------------------*- C++ -*----------------------------------*\
| =========                 |                                                 |
| \\      /  F ield         | OpenFOAM: The Open Source CFD Toolbox           |
|  \\    /   O peration     | Version:  2.4.x                                 |
|   \\  /    A nd           | Web:      www.OpenFOAM.org                      |
|    \\/     M anipulation  |                                                 |
\*---------------------------------------------------------------------------*/
FoamFile
{
    version     2.0;
    format      ascii;
    class       volScalarField;
    location    "8";
    object      pa;
}
// * * * * * * * * * * * * * * * * * * * * * * * * * * * * * * * * * * * * * //

dimensions      [1 -1 -2 0 0 0 0];

internalField   nonuniform List<scalar> 
360
(
2.90242e-16
2.9275e-16
2.92995e-16
2.92734e-16
2.92612e-16
2.92572e-16
2.92521e-16
2.92455e-16
2.92388e-16
2.9232e-16
2.9225e-16
2.92181e-16
2.92112e-16
2.92042e-16
2.91971e-16
2.91899e-16
2.91827e-16
2.91754e-16
2.91681e-16
2.91607e-16
2.91533e-16
2.91457e-16
2.91382e-16
2.91306e-16
2.91229e-16
2.91151e-16
2.91073e-16
2.90994e-16
2.90915e-16
2.90835e-16
2.90754e-16
2.90672e-16
2.9059e-16
2.90507e-16
2.90423e-16
2.90338e-16
2.90253e-16
2.90167e-16
2.90079e-16
2.89992e-16
2.89903e-16
2.89813e-16
2.89723e-16
2.89631e-16
2.89538e-16
2.89445e-16
2.8935e-16
2.89255e-16
2.89158e-16
2.89059e-16
2.88961e-16
2.88861e-16
2.8876e-16
2.88657e-16
2.88554e-16
2.88449e-16
2.88343e-16
2.88235e-16
2.88127e-16
2.88018e-16
2.87905e-16
2.87793e-16
2.87679e-16
2.87563e-16
2.87446e-16
2.87328e-16
2.87208e-16
2.87086e-16
2.86962e-16
2.86838e-16
2.86711e-16
2.86582e-16
2.86452e-16
2.8632e-16
2.86186e-16
2.86049e-16
2.85912e-16
2.85772e-16
2.8563e-16
2.85486e-16
2.8534e-16
2.85191e-16
2.85041e-16
2.84887e-16
2.84732e-16
2.84573e-16
2.84413e-16
2.84249e-16
2.84083e-16
2.83914e-16
2.83742e-16
2.83567e-16
2.83389e-16
2.83208e-16
2.83023e-16
2.82835e-16
2.82644e-16
2.82448e-16
2.82249e-16
2.82046e-16
2.81839e-16
2.81627e-16
2.81411e-16
2.81191e-16
2.80965e-16
2.80735e-16
2.80499e-16
2.80259e-16
2.80012e-16
2.7976e-16
2.79501e-16
2.79236e-16
2.78965e-16
2.78687e-16
2.78401e-16
2.78108e-16
2.77808e-16
2.77499e-16
2.77181e-16
2.76855e-16
2.7652e-16
2.76174e-16
2.75818e-16
2.75451e-16
2.75073e-16
2.74681e-16
2.74276e-16
2.73857e-16
2.73421e-16
2.72967e-16
2.72494e-16
2.72002e-16
2.7149e-16
2.70951e-16
2.70381e-16
4.18223e-16
8.0903e-16
3.467e-15
4.41829e-14
7.31208e-13
1.36954e-11
2.90754e-10
7.04423e-09
1.96424e-07
6.88138e-06
0.000802597
0.0793798
1.90253
6.23005
5.10826
4.00111
2.95363
2.10133
1.44619
0.96366
0.621759
0.389022
0.236898
0.141375
0.0835243
0.0494635
0.0298011
0.0186097
0.0122671
0.00860087
0.00637909
0.00494984
0.00397709
0.00328289
0.00276788
0.00237341
0.00206317
0.00181366
0.00160915
0.00143874
0.00129471
0.00117143
0.00106475
0.000971518
0.00088934
0.000816346
0.000751067
0.000692336
0.000639212
0.000590931
0.000546867
0.000506502
0.000469403
0.000435205
0.000403602
0.00037433
0.000347162
0.0003219
0.000298371
0.00027642
0.000255911
0.000236718
0.000218733
0.000201856
0.000186003
0.000171106
0.000156965
0.000143429
0.000130493
0.000118161
0.000106446
9.53679e-05
8.49463e-05
7.52029e-05
6.61538e-05
5.78137e-05
5.01889e-05
4.32854e-05
3.70954e-05
3.15867e-05
2.67227e-05
2.24732e-05
1.87901e-05
1.5613e-05
1.28902e-05
1.05739e-05
8.62153e-06
6.98221e-06
5.60948e-06
4.47367e-06
3.53879e-06
2.77183e-06
2.14769e-06
1.64344e-06
1.23812e-06
9.16416e-07
6.60634e-07
4.67175e-07
3.17792e-07
2.01351e-07
9.29798e-08
0
0
0
0
0
0
0
0
0
0
0
0
0
0
0
0
0
0
0
0
0
0
0
0
0
0
0
0
0
0
0
0
0
0
0
0
0
0
0
0
0
0
0
0
0
0
0
0
0
0
0
0
0
0
0
0
0
0
0
0
0
0
0
0
0
0
0
0
0
0
0
0
0
0
0
0
0
0
0
0
0
0
0
0
0
0
0
0
0
0
0
0
0
0
0
0
0
0
0
0
0
0
0
0
0
0
0
0
0
0
0
0
0
0
0
0
0
0
0
0
0
0
0
0
)
;

boundaryField
{
    inandouthalf11
    {
        type            cyclic;
    }
    inandouthalf12
    {
        type            cyclic;
    }
    inandouthalf21
    {
        type            cyclic;
    }
    inandouthalf22
    {
        type            cyclic;
    }
    inandouthalf31
    {
        type            cyclic;
    }
    inandouthalf32
    {
        type            cyclic;
    }
    inandouthalf41
    {
        type            cyclic;
    }
    inandouthalf42
    {
        type            cyclic;
    }
    top
    {
        type            symmetryPlane;
    }
    walls
    {
        type            calculated;
        value           uniform 2.90242e-16;
    }
    frontAndBackPlanes
    {
        type            empty;
    }
}


// ************************************************************************* //
