/*--------------------------------*- C++ -*----------------------------------*\
| =========                 |                                                 |
| \\      /  F ield         | OpenFOAM: The Open Source CFD Toolbox           |
|  \\    /   O peration     | Version:  2.4.x                                 |
|   \\  /    A nd           | Web:      www.OpenFOAM.org                      |
|    \\/     M anipulation  |                                                 |
\*---------------------------------------------------------------------------*/
FoamFile
{
    version     2.0;
    format      ascii;
    class       surfaceScalarField;
    location    "8";
    object      phia;
}
// * * * * * * * * * * * * * * * * * * * * * * * * * * * * * * * * * * * * * //

dimensions      [0 3 -1 0 0 0 0];

internalField   nonuniform List<scalar> 
359
(
-1.69712e-13
-4.28772e-13
-6.69006e-13
-9.00148e-13
-1.1383e-12
-1.38223e-12
-1.62752e-12
-1.87243e-12
-2.11664e-12
-2.36027e-12
-2.60328e-12
-2.84543e-12
-3.08651e-12
-3.32636e-12
-3.56489e-12
-3.80211e-12
-4.03801e-12
-4.27261e-12
-4.50591e-12
-4.73798e-12
-4.96877e-12
-5.19841e-12
-5.42693e-12
-5.6544e-12
-5.88089e-12
-6.10646e-12
-6.33118e-12
-6.55515e-12
-6.77844e-12
-7.00111e-12
-7.22321e-12
-7.44488e-12
-7.66606e-12
-7.88696e-12
-8.10752e-12
-8.32785e-12
-8.54794e-12
-8.76788e-12
-8.98775e-12
-9.20744e-12
-9.42712e-12
-9.64675e-12
-9.86627e-12
-1.00858e-11
-1.03054e-11
-1.05249e-11
-1.07444e-11
-1.09638e-11
-1.11831e-11
-1.14024e-11
-1.16217e-11
-1.18408e-11
-1.20598e-11
-1.22786e-11
-1.24972e-11
-1.27156e-11
-1.29337e-11
-1.31514e-11
-1.33687e-11
-1.35855e-11
-1.38018e-11
-1.40175e-11
-1.42328e-11
-1.44474e-11
-1.46613e-11
-1.48744e-11
-1.50866e-11
-1.52979e-11
-1.55082e-11
-1.57173e-11
-1.59253e-11
-1.61322e-11
-1.63378e-11
-1.65423e-11
-1.67455e-11
-1.69474e-11
-1.71478e-11
-1.73467e-11
-1.75439e-11
-1.77395e-11
-1.79332e-11
-1.81252e-11
-1.83155e-11
-1.85039e-11
-1.86906e-11
-1.88755e-11
-1.90584e-11
-1.92395e-11
-1.94184e-11
-1.95953e-11
-1.97699e-11
-1.99424e-11
-2.01126e-11
-2.02806e-11
-2.04465e-11
-2.06101e-11
-2.07716e-11
-2.09308e-11
-2.10878e-11
-2.12426e-11
-2.13951e-11
-2.15452e-11
-2.1693e-11
-2.18385e-11
-2.19816e-11
-2.21224e-11
-2.22609e-11
-2.23971e-11
-2.25311e-11
-2.2663e-11
-2.27928e-11
-2.29207e-11
-2.30469e-11
-2.31716e-11
-2.3295e-11
-2.34174e-11
-2.35391e-11
-2.36602e-11
-2.37812e-11
-2.39023e-11
-2.40238e-11
-2.41457e-11
-2.42681e-11
-2.4391e-11
-2.45142e-11
-2.46372e-11
-2.47596e-11
-2.48808e-11
-2.5e-11
-2.51164e-11
-2.52289e-11
-2.53366e-11
-2.54389e-11
-2.55356e-11
-2.5627e-11
-2.57134e-11
-2.57954e-11
-2.58743e-11
-2.59514e-11
-2.60257e-11
-2.60905e-11
-2.6136e-11
-2.61612e-11
-2.61716e-11
-2.61744e-11
-2.61751e-11
-2.62065e-11
7.21391e-11
7.75949e-09
1.5379e-08
1.98236e-08
2.30397e-08
2.58291e-08
2.84234e-08
3.08557e-08
3.30819e-08
3.5018e-08
3.65401e-08
3.74914e-08
3.76835e-08
3.69182e-08
3.51063e-08
3.2436e-08
2.93131e-08
2.61083e-08
2.30382e-08
2.01993e-08
1.76224e-08
1.53065e-08
1.32363e-08
1.1392e-08
9.75336e-09
8.30087e-09
7.01677e-09
5.88499e-09
4.89105e-09
4.02195e-09
3.26598e-09
2.61261e-09
2.05236e-09
1.57666e-09
1.1778e-09
8.48787e-10
5.83336e-10
3.75747e-10
2.20859e-10
1.13991e-10
5.0891e-11
2.7685e-11
4.08397e-11
8.71196e-11
1.63544e-10
2.67338e-10
3.95884e-10
5.46674e-10
7.17259e-10
9.05209e-10
1.10807e-09
1.32332e-09
1.54844e-09
1.78088e-09
2.02295e-09
2.27224e-09
2.52602e-09
2.78142e-09
3.03539e-09
3.28495e-09
3.52718e-09
3.75934e-09
3.97889e-09
4.18363e-09
4.37164e-09
4.54159e-09
4.6928e-09
4.82474e-09
4.93688e-09
5.02962e-09
5.10367e-09
5.1594e-09
5.19748e-09
5.21876e-09
5.22532e-09
5.21955e-09
5.20365e-09
5.18293e-09
5.16408e-09
5.15653e-09
5.16976e-09
5.20708e-09
5.26777e-09
5.35712e-09
5.47006e-09
5.62839e-09
5.82124e-09
6.16954e-09
6.4254e-09
5.63027e-09
6.57551e-09
5.99038e-09
7.77799e-09
6.3057e-09
1.08996e-08
-3.68919e-08
-1.37719e-07
-1.58331e-07
-1.58234e-07
-1.58231e-07
-1.58215e-07
-1.58198e-07
-1.58178e-07
-1.58156e-07
-1.58132e-07
-1.58107e-07
-1.58082e-07
-1.5806e-07
-1.58039e-07
-1.58018e-07
-1.58001e-07
-1.57987e-07
-1.57974e-07
-1.57961e-07
-1.5794e-07
-1.57902e-07
-1.57884e-07
-1.57883e-07
-1.57883e-07
-1.57883e-07
-1.57883e-07
-1.57883e-07
-1.57883e-07
-1.57883e-07
-1.57883e-07
-1.57883e-07
-1.57883e-07
-1.57883e-07
-1.57883e-07
-1.57883e-07
-1.57883e-07
-1.57883e-07
-1.57883e-07
-1.57883e-07
-1.57883e-07
-1.57883e-07
-1.57883e-07
-1.57883e-07
-1.57883e-07
-1.57883e-07
-1.57883e-07
-1.57883e-07
-1.57883e-07
-1.57883e-07
-1.57883e-07
-1.57883e-07
-1.57883e-07
-1.57883e-07
-1.57883e-07
-1.57883e-07
-1.57883e-07
-1.57883e-07
-1.57883e-07
-1.57883e-07
-1.57883e-07
-1.57883e-07
-1.57883e-07
-1.57883e-07
-1.57883e-07
-1.57883e-07
-1.57883e-07
-1.57883e-07
-1.57883e-07
-1.57883e-07
-1.57883e-07
-1.57883e-07
-1.57883e-07
-1.57883e-07
-1.57883e-07
-1.57883e-07
-1.57883e-07
-1.57883e-07
-1.57883e-07
-1.57883e-07
-1.57883e-07
-1.57883e-07
-1.57883e-07
-1.57883e-07
-1.57883e-07
-1.57883e-07
-1.57883e-07
-1.57883e-07
-1.57883e-07
-1.57883e-07
-1.57883e-07
-1.57883e-07
-1.57883e-07
-1.57883e-07
-1.57883e-07
-1.57883e-07
-1.57883e-07
-1.57883e-07
-1.57883e-07
-1.57883e-07
-1.57883e-07
-1.57883e-07
-1.57883e-07
-1.57883e-07
-1.57883e-07
-1.57883e-07
-1.57883e-07
-1.57883e-07
-1.57883e-07
-1.57883e-07
-1.57883e-07
-1.57883e-07
-1.57883e-07
-1.57883e-07
-1.57883e-07
-1.57865e-07
-1.57156e-07
-1.31922e-07
)
;

boundaryField
{
    inandouthalf11
    {
        type            cyclic;
        value           nonuniform List<scalar> 
100
(
-1.55836e-38
-1.72326e-14
-3.59049e-14
-5.25872e-14
-6.94652e-14
-8.69671e-14
-1.04642e-13
-1.22238e-13
-1.39711e-13
-1.57064e-13
-1.74299e-13
-1.91405e-13
-2.08369e-13
-2.25178e-13
-2.41825e-13
-2.58309e-13
-2.74631e-13
-2.90795e-13
-3.06801e-13
-3.22653e-13
-3.38355e-13
-3.5391e-13
-3.69325e-13
-3.84604e-13
-3.99755e-13
-4.14781e-13
-4.29689e-13
-4.44485e-13
-4.59176e-13
-4.73767e-13
-4.88263e-13
-5.0267e-13
-5.16992e-13
-5.31234e-13
-5.45402e-13
-5.59498e-13
-5.73524e-13
-5.87485e-13
-6.01385e-13
-6.15225e-13
-6.29006e-13
-6.42732e-13
-6.56402e-13
-6.70017e-13
-6.83579e-13
-6.97089e-13
-7.10545e-13
-7.23944e-13
-7.37286e-13
-7.50574e-13
-7.63807e-13
-7.76981e-13
-7.90095e-13
-8.03148e-13
-8.16137e-13
-8.2906e-13
-8.41915e-13
-8.54697e-13
-8.67402e-13
-8.80026e-13
-8.92567e-13
-9.05026e-13
-9.17401e-13
-9.29688e-13
-9.41885e-13
-9.53985e-13
-9.65984e-13
-9.77879e-13
-9.89664e-13
-1.00133e-12
-1.01289e-12
-1.02433e-12
-1.03565e-12
-1.04684e-12
-1.05792e-12
-1.06888e-12
-1.0797e-12
-1.0904e-12
-1.10095e-12
-1.11136e-12
-1.12163e-12
-1.13175e-12
-1.14172e-12
-1.15155e-12
-1.16124e-12
-1.17078e-12
-1.18017e-12
-1.18941e-12
-1.1985e-12
-1.20743e-12
-1.2162e-12
-1.22481e-12
-1.23326e-12
-1.24155e-12
-1.24968e-12
-1.25765e-12
-1.26546e-12
-1.27312e-12
-1.28062e-12
-1.28796e-12
)
;
    }
    inandouthalf12
    {
        type            cyclic;
        value           nonuniform List<scalar> 
100
(
1.55836e-38
1.72326e-14
3.59049e-14
5.25872e-14
6.94652e-14
8.69671e-14
1.04642e-13
1.22238e-13
1.39711e-13
1.57064e-13
1.74299e-13
1.91405e-13
2.08369e-13
2.25178e-13
2.41825e-13
2.58309e-13
2.74631e-13
2.90795e-13
3.06801e-13
3.22653e-13
3.38355e-13
3.5391e-13
3.69325e-13
3.84604e-13
3.99755e-13
4.14781e-13
4.29689e-13
4.44485e-13
4.59176e-13
4.73767e-13
4.88263e-13
5.0267e-13
5.16992e-13
5.31234e-13
5.45402e-13
5.59498e-13
5.73524e-13
5.87485e-13
6.01385e-13
6.15225e-13
6.29006e-13
6.42732e-13
6.56402e-13
6.70017e-13
6.83579e-13
6.97089e-13
7.10545e-13
7.23944e-13
7.37286e-13
7.50574e-13
7.63807e-13
7.76981e-13
7.90095e-13
8.03148e-13
8.16137e-13
8.2906e-13
8.41915e-13
8.54697e-13
8.67402e-13
8.80026e-13
8.92567e-13
9.05026e-13
9.17401e-13
9.29688e-13
9.41885e-13
9.53985e-13
9.65984e-13
9.77879e-13
9.89664e-13
1.00133e-12
1.01289e-12
1.02433e-12
1.03565e-12
1.04684e-12
1.05792e-12
1.06888e-12
1.0797e-12
1.0904e-12
1.10095e-12
1.11136e-12
1.12163e-12
1.13175e-12
1.14172e-12
1.15155e-12
1.16124e-12
1.17078e-12
1.18017e-12
1.18941e-12
1.1985e-12
1.20743e-12
1.2162e-12
1.22481e-12
1.23326e-12
1.24155e-12
1.24968e-12
1.25765e-12
1.26546e-12
1.27312e-12
1.28062e-12
1.28796e-12
)
;
    }
    inandouthalf21
    {
        type            cyclic;
        value           nonuniform List<scalar> 
100
(
-1.29514e-12
-1.30216e-12
-1.30902e-12
-1.31572e-12
-1.32226e-12
-1.32864e-12
-1.33486e-12
-1.34092e-12
-1.34683e-12
-1.35258e-12
-1.35819e-12
-1.36364e-12
-1.36896e-12
-1.37415e-12
-1.3792e-12
-1.38414e-12
-1.38896e-12
-1.39367e-12
-1.39827e-12
-1.40277e-12
-1.40717e-12
-1.41145e-12
-1.41561e-12
-1.41963e-12
-1.42349e-12
-1.42717e-12
-1.43063e-12
-1.43383e-12
-1.43675e-12
-1.43934e-12
-1.44159e-12
-1.44345e-12
-1.44493e-12
-1.44602e-12
-1.44672e-12
-1.44705e-12
-1.447e-12
-1.44658e-12
-1.44574e-12
-1.44445e-12
-1.44275e-12
-1.44097e-12
-1.43959e-12
-1.43887e-12
-1.43868e-12
-1.43874e-12
-1.43904e-12
-1.63478e-12
-3.96014e-08
-1.58352e-07
-2.74516e-07
-3.67605e-07
-4.43511e-07
-5.06449e-07
-5.59073e-07
-6.03107e-07
-6.39703e-07
-6.69675e-07
-6.93697e-07
-7.12465e-07
-7.26778e-07
-7.3751e-07
-7.45511e-07
-7.51489e-07
-7.55972e-07
-7.59329e-07
-7.61814e-07
-7.63608e-07
-7.64843e-07
-7.65619e-07
-7.66013e-07
-7.66087e-07
-7.65889e-07
-7.6546e-07
-7.64835e-07
-7.64041e-07
-7.63102e-07
-7.62039e-07
-7.60872e-07
-7.59614e-07
-7.58282e-07
-7.56886e-07
-7.55439e-07
-7.5395e-07
-7.52429e-07
-7.50884e-07
-7.49322e-07
-7.47751e-07
-7.46176e-07
-7.44605e-07
-7.43042e-07
-7.41492e-07
-7.39961e-07
-7.38454e-07
-7.36973e-07
-7.35524e-07
-7.3411e-07
-7.32735e-07
-7.31403e-07
-7.30116e-07
)
;
    }
    inandouthalf22
    {
        type            cyclic;
        value           nonuniform List<scalar> 
100
(
1.29514e-12
1.30216e-12
1.30902e-12
1.31572e-12
1.32226e-12
1.32864e-12
1.33486e-12
1.34092e-12
1.34683e-12
1.35258e-12
1.35819e-12
1.36364e-12
1.36896e-12
1.37415e-12
1.3792e-12
1.38414e-12
1.38896e-12
1.39367e-12
1.39827e-12
1.40277e-12
1.40717e-12
1.41145e-12
1.41561e-12
1.41963e-12
1.42349e-12
1.42717e-12
1.43063e-12
1.43383e-12
1.43675e-12
1.43934e-12
1.44159e-12
1.44345e-12
1.44493e-12
1.44602e-12
1.44672e-12
1.44705e-12
1.447e-12
1.44658e-12
1.44574e-12
1.44445e-12
1.44275e-12
1.44097e-12
1.43959e-12
1.43887e-12
1.43868e-12
1.43874e-12
1.43904e-12
1.63478e-12
3.96014e-08
1.58352e-07
2.74516e-07
3.67605e-07
4.43511e-07
5.06449e-07
5.59073e-07
6.03107e-07
6.39703e-07
6.69675e-07
6.93697e-07
7.12465e-07
7.26778e-07
7.3751e-07
7.45511e-07
7.51489e-07
7.55972e-07
7.59329e-07
7.61814e-07
7.63608e-07
7.64843e-07
7.65619e-07
7.66013e-07
7.66087e-07
7.65889e-07
7.6546e-07
7.64835e-07
7.64041e-07
7.63102e-07
7.62039e-07
7.60872e-07
7.59614e-07
7.58282e-07
7.56886e-07
7.55439e-07
7.5395e-07
7.52429e-07
7.50884e-07
7.49322e-07
7.47751e-07
7.46176e-07
7.44605e-07
7.43042e-07
7.41492e-07
7.39961e-07
7.38454e-07
7.36973e-07
7.35524e-07
7.3411e-07
7.32735e-07
7.31403e-07
7.30116e-07
)
;
    }
    inandouthalf31
    {
        type            cyclic;
        value           nonuniform List<scalar> 
110
(
-7.2888e-07
-7.42451e-07
-7.56302e-07
-7.70441e-07
-7.84873e-07
-7.99608e-07
-8.14651e-07
-8.30011e-07
-8.45694e-07
-8.61709e-07
-8.78062e-07
-8.9476e-07
-9.11811e-07
-9.2922e-07
-9.46994e-07
-9.65141e-07
-9.83667e-07
-1.00258e-06
-1.02188e-06
-1.04159e-06
-1.0617e-06
-1.08222e-06
-1.10317e-06
-1.12455e-06
-1.14636e-06
-1.16863e-06
-1.19136e-06
-1.21456e-06
-1.23825e-06
-1.26244e-06
-1.28715e-06
-1.3124e-06
-1.33821e-06
-1.36465e-06
-1.39175e-06
-1.41956e-06
-1.44794e-06
-1.4045e-06
-1.42596e-06
-1.44852e-06
-1.47144e-06
-1.49489e-06
-1.51871e-06
-1.54589e-06
-1.57296e-06
-1.59816e-06
-1.62481e-06
-1.65219e-06
-1.68047e-06
-1.70974e-06
-1.7401e-06
-1.77166e-06
-1.80453e-06
-1.83879e-06
-1.87458e-06
-1.91198e-06
-1.95086e-06
-1.99139e-06
-2.03345e-06
-2.07696e-06
-2.12174e-06
-2.16758e-06
-2.2138e-06
-2.25953e-06
-2.30546e-06
-2.35226e-06
-2.40001e-06
-2.44872e-06
-2.49842e-06
-2.54913e-06
-2.60087e-06
-2.65367e-06
-2.70753e-06
-2.76248e-06
-2.81855e-06
-2.87576e-06
-2.93413e-06
-2.99369e-06
-3.05445e-06
-3.11645e-06
-3.17971e-06
-3.24425e-06
-3.3101e-06
-3.37728e-06
-3.44583e-06
-3.51577e-06
-3.58713e-06
-3.65994e-06
-3.73423e-06
-3.81002e-06
-3.88736e-06
-3.96626e-06
-4.04677e-06
-4.1289e-06
-4.21271e-06
-4.29822e-06
-4.38546e-06
-4.47447e-06
-4.56529e-06
-4.65796e-06
-4.7525e-06
-4.84896e-06
-4.94738e-06
-5.0478e-06
-5.15026e-06
-5.2548e-06
-5.36145e-06
-5.47028e-06
-5.58131e-06
-5.69459e-06
)
;
    }
    inandouthalf32
    {
        type            cyclic;
        value           nonuniform List<scalar> 
110
(
7.2888e-07
7.42451e-07
7.56302e-07
7.70441e-07
7.84873e-07
7.99608e-07
8.14651e-07
8.30011e-07
8.45694e-07
8.61709e-07
8.78062e-07
8.9476e-07
9.11811e-07
9.2922e-07
9.46994e-07
9.65141e-07
9.83667e-07
1.00258e-06
1.02188e-06
1.04159e-06
1.0617e-06
1.08222e-06
1.10317e-06
1.12455e-06
1.14636e-06
1.16863e-06
1.19136e-06
1.21456e-06
1.23825e-06
1.26244e-06
1.28715e-06
1.3124e-06
1.33821e-06
1.36465e-06
1.39175e-06
1.41956e-06
1.44794e-06
1.4045e-06
1.42596e-06
1.44852e-06
1.47144e-06
1.49489e-06
1.51871e-06
1.54589e-06
1.57296e-06
1.59816e-06
1.62481e-06
1.65219e-06
1.68047e-06
1.70974e-06
1.7401e-06
1.77166e-06
1.80453e-06
1.83879e-06
1.87458e-06
1.91198e-06
1.95086e-06
1.99139e-06
2.03345e-06
2.07696e-06
2.12174e-06
2.16758e-06
2.2138e-06
2.25953e-06
2.30546e-06
2.35226e-06
2.40001e-06
2.44872e-06
2.49842e-06
2.54913e-06
2.60087e-06
2.65367e-06
2.70753e-06
2.76248e-06
2.81855e-06
2.87576e-06
2.93413e-06
2.99369e-06
3.05445e-06
3.11645e-06
3.17971e-06
3.24425e-06
3.3101e-06
3.37728e-06
3.44583e-06
3.51577e-06
3.58713e-06
3.65994e-06
3.73423e-06
3.81002e-06
3.88736e-06
3.96626e-06
4.04677e-06
4.1289e-06
4.21271e-06
4.29822e-06
4.38546e-06
4.47447e-06
4.56529e-06
4.65796e-06
4.7525e-06
4.84896e-06
4.94738e-06
5.0478e-06
5.15026e-06
5.2548e-06
5.36145e-06
5.47028e-06
5.58131e-06
5.69459e-06
)
;
    }
    inandouthalf41
    {
        type            cyclic;
        value           nonuniform List<scalar> 
50
(
-5.09724e-06
-5.09724e-06
-5.09724e-06
-5.09724e-06
-5.09724e-06
-5.09724e-06
-5.09724e-06
-5.09724e-06
-5.09724e-06
-5.09724e-06
-5.09724e-06
-5.09724e-06
-5.09724e-06
-5.09724e-06
-5.09724e-06
-5.09724e-06
-5.09724e-06
-5.09724e-06
-5.09724e-06
-5.09724e-06
-5.09724e-06
-5.09724e-06
-5.09724e-06
-5.09724e-06
-5.09724e-06
-5.09724e-06
-5.09724e-06
-5.09724e-06
-5.09724e-06
-5.09724e-06
-5.09724e-06
-5.09724e-06
-5.09724e-06
-5.09724e-06
-5.09724e-06
-5.09724e-06
-5.09724e-06
-5.09724e-06
-5.09724e-06
-5.09724e-06
-5.09724e-06
-5.09724e-06
-5.09724e-06
-5.09724e-06
-5.09724e-06
-5.09724e-06
-5.09724e-06
-5.09723e-06
-5.09695e-06
-5.09043e-06
)
;
    }
    inandouthalf42
    {
        type            cyclic;
        value           nonuniform List<scalar> 
50
(
5.09724e-06
5.09724e-06
5.09724e-06
5.09724e-06
5.09724e-06
5.09724e-06
5.09724e-06
5.09724e-06
5.09724e-06
5.09724e-06
5.09724e-06
5.09724e-06
5.09724e-06
5.09724e-06
5.09724e-06
5.09724e-06
5.09724e-06
5.09724e-06
5.09724e-06
5.09724e-06
5.09724e-06
5.09724e-06
5.09724e-06
5.09724e-06
5.09724e-06
5.09724e-06
5.09724e-06
5.09724e-06
5.09724e-06
5.09724e-06
5.09724e-06
5.09724e-06
5.09724e-06
5.09724e-06
5.09724e-06
5.09724e-06
5.09724e-06
5.09724e-06
5.09724e-06
5.09724e-06
5.09724e-06
5.09724e-06
5.09724e-06
5.09724e-06
5.09724e-06
5.09724e-06
5.09724e-06
5.09723e-06
5.09695e-06
5.09043e-06
)
;
    }
    top
    {
        type            symmetryPlane;
        value           uniform 0;
    }
    walls
    {
        type            fixedValue;
        value           uniform 0;
    }
    frontAndBackPlanes
    {
        type            empty;
        value           nonuniform 0();
    }
}


// ************************************************************************* //
