/*--------------------------------*- C++ -*----------------------------------*\
| =========                 |                                                 |
| \\      /  F ield         | OpenFOAM: The Open Source CFD Toolbox           |
|  \\    /   O peration     | Version:  2.4.x                                 |
|   \\  /    A nd           | Web:      www.OpenFOAM.org                      |
|    \\/     M anipulation  |                                                 |
\*---------------------------------------------------------------------------*/
FoamFile
{
    version     2.0;
    format      ascii;
    class       surfaceScalarField;
    location    "8";
    object      phia_0;
}
// * * * * * * * * * * * * * * * * * * * * * * * * * * * * * * * * * * * * * //

dimensions      [0 3 -1 0 0 0 0];

internalField   nonuniform List<scalar> 
359
(
-1.6973e-13
-4.28816e-13
-6.69074e-13
-9.00235e-13
-1.13841e-12
-1.38235e-12
-1.62766e-12
-1.87258e-12
-2.11681e-12
-2.36046e-12
-2.60348e-12
-2.84564e-12
-3.08675e-12
-3.32661e-12
-3.56515e-12
-3.80238e-12
-4.0383e-12
-4.27292e-12
-4.50623e-12
-4.73831e-12
-4.96912e-12
-5.19877e-12
-5.42731e-12
-5.6548e-12
-5.8813e-12
-6.1069e-12
-6.33163e-12
-6.55563e-12
-6.77894e-12
-7.00163e-12
-7.22375e-12
-7.44544e-12
-7.66665e-12
-7.88757e-12
-8.10816e-12
-8.32851e-12
-8.54863e-12
-8.7686e-12
-8.98849e-12
-9.20821e-12
-9.42792e-12
-9.64758e-12
-9.86713e-12
-1.00867e-11
-1.03063e-11
-1.05258e-11
-1.07454e-11
-1.09648e-11
-1.11841e-11
-1.14035e-11
-1.16228e-11
-1.18419e-11
-1.20609e-11
-1.22798e-11
-1.24984e-11
-1.27169e-11
-1.2935e-11
-1.31528e-11
-1.33701e-11
-1.35869e-11
-1.38032e-11
-1.4019e-11
-1.42343e-11
-1.44489e-11
-1.46628e-11
-1.48759e-11
-1.50882e-11
-1.52996e-11
-1.55099e-11
-1.5719e-11
-1.5927e-11
-1.6134e-11
-1.63397e-11
-1.65441e-11
-1.67473e-11
-1.69493e-11
-1.71497e-11
-1.73486e-11
-1.75459e-11
-1.77415e-11
-1.79353e-11
-1.81273e-11
-1.83176e-11
-1.85061e-11
-1.86928e-11
-1.88777e-11
-1.90607e-11
-1.92417e-11
-1.94207e-11
-1.95976e-11
-1.97723e-11
-1.99448e-11
-2.0115e-11
-2.02831e-11
-2.04489e-11
-2.06126e-11
-2.07741e-11
-2.09334e-11
-2.10904e-11
-2.12452e-11
-2.13977e-11
-2.15478e-11
-2.16957e-11
-2.18412e-11
-2.19843e-11
-2.21252e-11
-2.22637e-11
-2.23999e-11
-2.25339e-11
-2.26658e-11
-2.27957e-11
-2.29236e-11
-2.30498e-11
-2.31746e-11
-2.3298e-11
-2.34204e-11
-2.3542e-11
-2.36632e-11
-2.37842e-11
-2.39053e-11
-2.40268e-11
-2.41487e-11
-2.42712e-11
-2.43941e-11
-2.45173e-11
-2.46403e-11
-2.47627e-11
-2.48839e-11
-2.50031e-11
-2.51195e-11
-2.5232e-11
-2.53397e-11
-2.5442e-11
-2.55387e-11
-2.56301e-11
-2.57165e-11
-2.57985e-11
-2.58774e-11
-2.59545e-11
-2.60288e-11
-2.60936e-11
-2.6139e-11
-2.61643e-11
-2.61747e-11
-2.61775e-11
-2.61782e-11
-2.62105e-11
7.19941e-11
7.75788e-09
1.53831e-08
1.98287e-08
2.30449e-08
2.58341e-08
2.84279e-08
3.08594e-08
3.30844e-08
3.50186e-08
3.65379e-08
3.74854e-08
3.76724e-08
3.6901e-08
3.5083e-08
3.24082e-08
2.9283e-08
2.60778e-08
2.30081e-08
2.017e-08
1.75942e-08
1.52792e-08
1.32101e-08
1.13668e-08
9.72909e-09
8.27745e-09
6.99415e-09
5.86311e-09
4.86986e-09
4.0014e-09
3.24602e-09
2.5932e-09
2.03346e-09
1.55823e-09
1.1598e-09
8.31195e-10
5.66115e-10
3.58867e-10
2.04292e-10
9.77119e-11
3.48745e-11
1.19086e-11
2.52818e-11
7.17603e-11
1.48364e-10
2.5232e-10
3.81012e-10
5.31932e-10
7.02634e-10
8.90686e-10
1.09363e-09
1.30897e-09
1.53415e-09
1.76665e-09
2.00877e-09
2.2581e-09
2.51191e-09
2.76733e-09
3.02131e-09
3.27088e-09
3.5131e-09
3.74525e-09
3.96477e-09
4.16948e-09
4.35745e-09
4.52736e-09
4.67853e-09
4.81042e-09
4.92252e-09
5.0152e-09
5.08919e-09
5.14487e-09
5.1829e-09
5.20413e-09
5.21063e-09
5.20481e-09
5.18887e-09
5.16811e-09
5.14924e-09
5.14167e-09
5.15491e-09
5.19224e-09
5.25296e-09
5.34234e-09
5.45532e-09
5.61369e-09
5.80659e-09
6.15493e-09
6.41085e-09
5.61486e-09
6.56375e-09
5.97834e-09
7.76964e-09
6.29436e-09
1.08993e-08
-3.69379e-08
-1.37743e-07
-1.58331e-07
-1.58234e-07
-1.58231e-07
-1.58215e-07
-1.58198e-07
-1.58178e-07
-1.58156e-07
-1.58132e-07
-1.58107e-07
-1.58082e-07
-1.5806e-07
-1.58039e-07
-1.58018e-07
-1.58001e-07
-1.57987e-07
-1.57974e-07
-1.57961e-07
-1.5794e-07
-1.57902e-07
-1.57884e-07
-1.57883e-07
-1.57883e-07
-1.57883e-07
-1.57883e-07
-1.57883e-07
-1.57883e-07
-1.57883e-07
-1.57883e-07
-1.57883e-07
-1.57883e-07
-1.57883e-07
-1.57883e-07
-1.57883e-07
-1.57883e-07
-1.57883e-07
-1.57883e-07
-1.57883e-07
-1.57883e-07
-1.57883e-07
-1.57883e-07
-1.57883e-07
-1.57883e-07
-1.57883e-07
-1.57883e-07
-1.57883e-07
-1.57883e-07
-1.57883e-07
-1.57883e-07
-1.57883e-07
-1.57883e-07
-1.57883e-07
-1.57883e-07
-1.57883e-07
-1.57883e-07
-1.57883e-07
-1.57883e-07
-1.57883e-07
-1.57883e-07
-1.57883e-07
-1.57883e-07
-1.57883e-07
-1.57883e-07
-1.57883e-07
-1.57883e-07
-1.57883e-07
-1.57883e-07
-1.57883e-07
-1.57883e-07
-1.57883e-07
-1.57883e-07
-1.57883e-07
-1.57883e-07
-1.57883e-07
-1.57883e-07
-1.57883e-07
-1.57883e-07
-1.57883e-07
-1.57883e-07
-1.57883e-07
-1.57883e-07
-1.57883e-07
-1.57883e-07
-1.57883e-07
-1.57883e-07
-1.57883e-07
-1.57883e-07
-1.57883e-07
-1.57883e-07
-1.57883e-07
-1.57883e-07
-1.57883e-07
-1.57883e-07
-1.57883e-07
-1.57883e-07
-1.57883e-07
-1.57883e-07
-1.57883e-07
-1.57883e-07
-1.57883e-07
-1.57883e-07
-1.57883e-07
-1.57883e-07
-1.57883e-07
-1.57883e-07
-1.57883e-07
-1.57883e-07
-1.57883e-07
-1.57883e-07
-1.57883e-07
-1.57883e-07
-1.57883e-07
-1.57883e-07
-1.57865e-07
-1.57156e-07
-1.31922e-07
)
;

boundaryField
{
    inandouthalf11
    {
        type            cyclic;
        value           nonuniform List<scalar> 
100
(
-1.55806e-38
-1.7231e-14
-3.59012e-14
-5.25816e-14
-6.94573e-14
-8.69567e-14
-1.04629e-13
-1.22222e-13
-1.39693e-13
-1.57043e-13
-1.74275e-13
-1.91378e-13
-2.08339e-13
-2.25145e-13
-2.41789e-13
-2.5827e-13
-2.7459e-13
-2.9075e-13
-3.06754e-13
-3.22603e-13
-3.38302e-13
-3.53854e-13
-3.69266e-13
-3.84543e-13
-3.9969e-13
-4.14714e-13
-4.29619e-13
-4.44413e-13
-4.59101e-13
-4.7369e-13
-4.88184e-13
-5.02588e-13
-5.16907e-13
-5.31147e-13
-5.45312e-13
-5.59405e-13
-5.73429e-13
-5.87388e-13
-6.01286e-13
-6.15123e-13
-6.28902e-13
-6.42626e-13
-6.56293e-13
-6.69906e-13
-6.83466e-13
-6.96973e-13
-7.10426e-13
-7.23823e-13
-7.37163e-13
-7.50449e-13
-7.63679e-13
-7.7685e-13
-7.89962e-13
-8.03013e-13
-8.15999e-13
-8.2892e-13
-8.41772e-13
-8.54551e-13
-8.67254e-13
-8.79875e-13
-8.92414e-13
-9.0487e-13
-9.17242e-13
-9.29527e-13
-9.41721e-13
-9.53818e-13
-9.65814e-13
-9.77707e-13
-9.89489e-13
-1.00116e-12
-1.01271e-12
-1.02414e-12
-1.03546e-12
-1.04666e-12
-1.05773e-12
-1.06868e-12
-1.07951e-12
-1.0902e-12
-1.10075e-12
-1.11115e-12
-1.12142e-12
-1.13154e-12
-1.14151e-12
-1.15133e-12
-1.16102e-12
-1.17055e-12
-1.17994e-12
-1.18918e-12
-1.19827e-12
-1.2072e-12
-1.21597e-12
-1.22457e-12
-1.23302e-12
-1.2413e-12
-1.24943e-12
-1.2574e-12
-1.26521e-12
-1.27286e-12
-1.28036e-12
-1.2877e-12
)
;
    }
    inandouthalf12
    {
        type            cyclic;
        value           nonuniform List<scalar> 
100
(
1.55806e-38
1.7231e-14
3.59012e-14
5.25816e-14
6.94573e-14
8.69567e-14
1.04629e-13
1.22222e-13
1.39693e-13
1.57043e-13
1.74275e-13
1.91378e-13
2.08339e-13
2.25145e-13
2.41789e-13
2.5827e-13
2.7459e-13
2.9075e-13
3.06754e-13
3.22603e-13
3.38302e-13
3.53854e-13
3.69266e-13
3.84543e-13
3.9969e-13
4.14714e-13
4.29619e-13
4.44413e-13
4.59101e-13
4.7369e-13
4.88184e-13
5.02588e-13
5.16907e-13
5.31147e-13
5.45312e-13
5.59405e-13
5.73429e-13
5.87388e-13
6.01286e-13
6.15123e-13
6.28902e-13
6.42626e-13
6.56293e-13
6.69906e-13
6.83466e-13
6.96973e-13
7.10426e-13
7.23823e-13
7.37163e-13
7.50449e-13
7.63679e-13
7.7685e-13
7.89962e-13
8.03013e-13
8.15999e-13
8.2892e-13
8.41772e-13
8.54551e-13
8.67254e-13
8.79875e-13
8.92414e-13
9.0487e-13
9.17242e-13
9.29527e-13
9.41721e-13
9.53818e-13
9.65814e-13
9.77707e-13
9.89489e-13
1.00116e-12
1.01271e-12
1.02414e-12
1.03546e-12
1.04666e-12
1.05773e-12
1.06868e-12
1.07951e-12
1.0902e-12
1.10075e-12
1.11115e-12
1.12142e-12
1.13154e-12
1.14151e-12
1.15133e-12
1.16102e-12
1.17055e-12
1.17994e-12
1.18918e-12
1.19827e-12
1.2072e-12
1.21597e-12
1.22457e-12
1.23302e-12
1.2413e-12
1.24943e-12
1.2574e-12
1.26521e-12
1.27286e-12
1.28036e-12
1.2877e-12
)
;
    }
    inandouthalf21
    {
        type            cyclic;
        value           nonuniform List<scalar> 
100
(
-1.29487e-12
-1.30189e-12
-1.30875e-12
-1.31545e-12
-1.32198e-12
-1.32836e-12
-1.33458e-12
-1.34064e-12
-1.34654e-12
-1.35229e-12
-1.35789e-12
-1.36335e-12
-1.36866e-12
-1.37385e-12
-1.3789e-12
-1.38383e-12
-1.38865e-12
-1.39336e-12
-1.39796e-12
-1.40245e-12
-1.40684e-12
-1.41112e-12
-1.41528e-12
-1.4193e-12
-1.42316e-12
-1.42683e-12
-1.43028e-12
-1.43348e-12
-1.43639e-12
-1.43899e-12
-1.44123e-12
-1.44309e-12
-1.44456e-12
-1.44564e-12
-1.44634e-12
-1.44667e-12
-1.44662e-12
-1.44619e-12
-1.44535e-12
-1.44405e-12
-1.44235e-12
-1.44057e-12
-1.43918e-12
-1.43846e-12
-1.43828e-12
-1.43833e-12
-1.43863e-12
-1.63849e-12
-3.9525e-08
-1.58229e-07
-2.74421e-07
-3.67522e-07
-4.43432e-07
-5.06368e-07
-5.58985e-07
-6.03011e-07
-6.39595e-07
-6.69552e-07
-6.93559e-07
-7.12312e-07
-7.2661e-07
-7.37331e-07
-7.45322e-07
-7.51293e-07
-7.55771e-07
-7.59124e-07
-7.61605e-07
-7.63395e-07
-7.64628e-07
-7.65401e-07
-7.65793e-07
-7.65865e-07
-7.65665e-07
-7.65235e-07
-7.64608e-07
-7.63812e-07
-7.62872e-07
-7.61809e-07
-7.6064e-07
-7.59382e-07
-7.58048e-07
-7.56652e-07
-7.55204e-07
-7.53714e-07
-7.52192e-07
-7.50646e-07
-7.49084e-07
-7.47512e-07
-7.45937e-07
-7.44365e-07
-7.42801e-07
-7.41251e-07
-7.3972e-07
-7.38212e-07
-7.36731e-07
-7.35281e-07
-7.33867e-07
-7.32492e-07
-7.31159e-07
-7.29872e-07
)
;
    }
    inandouthalf22
    {
        type            cyclic;
        value           nonuniform List<scalar> 
100
(
1.29487e-12
1.30189e-12
1.30875e-12
1.31545e-12
1.32198e-12
1.32836e-12
1.33458e-12
1.34064e-12
1.34654e-12
1.35229e-12
1.35789e-12
1.36335e-12
1.36866e-12
1.37385e-12
1.3789e-12
1.38383e-12
1.38865e-12
1.39336e-12
1.39796e-12
1.40245e-12
1.40684e-12
1.41112e-12
1.41528e-12
1.4193e-12
1.42316e-12
1.42683e-12
1.43028e-12
1.43348e-12
1.43639e-12
1.43899e-12
1.44123e-12
1.44309e-12
1.44456e-12
1.44564e-12
1.44634e-12
1.44667e-12
1.44662e-12
1.44619e-12
1.44535e-12
1.44405e-12
1.44235e-12
1.44057e-12
1.43918e-12
1.43846e-12
1.43828e-12
1.43833e-12
1.43863e-12
1.63849e-12
3.9525e-08
1.58229e-07
2.74421e-07
3.67522e-07
4.43432e-07
5.06368e-07
5.58985e-07
6.03011e-07
6.39595e-07
6.69552e-07
6.93559e-07
7.12312e-07
7.2661e-07
7.37331e-07
7.45322e-07
7.51293e-07
7.55771e-07
7.59124e-07
7.61605e-07
7.63395e-07
7.64628e-07
7.65401e-07
7.65793e-07
7.65865e-07
7.65665e-07
7.65235e-07
7.64608e-07
7.63812e-07
7.62872e-07
7.61809e-07
7.6064e-07
7.59382e-07
7.58048e-07
7.56652e-07
7.55204e-07
7.53714e-07
7.52192e-07
7.50646e-07
7.49084e-07
7.47512e-07
7.45937e-07
7.44365e-07
7.42801e-07
7.41251e-07
7.3972e-07
7.38212e-07
7.36731e-07
7.35281e-07
7.33867e-07
7.32492e-07
7.31159e-07
7.29872e-07
)
;
    }
    inandouthalf31
    {
        type            cyclic;
        value           nonuniform List<scalar> 
110
(
-7.28636e-07
-7.42202e-07
-7.56048e-07
-7.70181e-07
-7.84608e-07
-7.99337e-07
-8.14374e-07
-8.29728e-07
-8.45406e-07
-8.61415e-07
-8.77761e-07
-8.94453e-07
-9.11497e-07
-9.289e-07
-9.46668e-07
-9.64808e-07
-9.83327e-07
-1.00223e-06
-1.02153e-06
-1.04122e-06
-1.06133e-06
-1.08184e-06
-1.10278e-06
-1.12415e-06
-1.14596e-06
-1.16822e-06
-1.19095e-06
-1.21414e-06
-1.23782e-06
-1.262e-06
-1.2867e-06
-1.31193e-06
-1.33774e-06
-1.36417e-06
-1.39126e-06
-1.41906e-06
-1.44743e-06
-1.40397e-06
-1.42542e-06
-1.44796e-06
-1.47088e-06
-1.49432e-06
-1.51813e-06
-1.54529e-06
-1.57235e-06
-1.59754e-06
-1.62418e-06
-1.65154e-06
-1.67981e-06
-1.70907e-06
-1.73942e-06
-1.77097e-06
-1.80382e-06
-1.83806e-06
-1.87384e-06
-1.91124e-06
-1.9501e-06
-1.99061e-06
-2.03266e-06
-2.07615e-06
-2.12092e-06
-2.16675e-06
-2.21295e-06
-2.25866e-06
-2.30458e-06
-2.35135e-06
-2.39908e-06
-2.44778e-06
-2.49746e-06
-2.54815e-06
-2.59987e-06
-2.65264e-06
-2.70648e-06
-2.76142e-06
-2.81747e-06
-2.87465e-06
-2.933e-06
-2.99253e-06
-3.05328e-06
-3.11525e-06
-3.17848e-06
-3.24299e-06
-3.30882e-06
-3.37598e-06
-3.4445e-06
-3.51442e-06
-3.58575e-06
-3.65853e-06
-3.73279e-06
-3.80855e-06
-3.88586e-06
-3.96473e-06
-4.0452e-06
-4.12731e-06
-4.21108e-06
-4.29656e-06
-4.38377e-06
-4.47275e-06
-4.56353e-06
-4.65616e-06
-4.75067e-06
-4.84709e-06
-4.94548e-06
-5.04585e-06
-5.14827e-06
-5.25277e-06
-5.35939e-06
-5.46817e-06
-5.57916e-06
-5.6924e-06
)
;
    }
    inandouthalf32
    {
        type            cyclic;
        value           nonuniform List<scalar> 
110
(
7.28636e-07
7.42202e-07
7.56048e-07
7.70181e-07
7.84608e-07
7.99337e-07
8.14374e-07
8.29728e-07
8.45406e-07
8.61415e-07
8.77761e-07
8.94453e-07
9.11497e-07
9.289e-07
9.46668e-07
9.64808e-07
9.83327e-07
1.00223e-06
1.02153e-06
1.04122e-06
1.06133e-06
1.08184e-06
1.10278e-06
1.12415e-06
1.14596e-06
1.16822e-06
1.19095e-06
1.21414e-06
1.23782e-06
1.262e-06
1.2867e-06
1.31193e-06
1.33774e-06
1.36417e-06
1.39126e-06
1.41906e-06
1.44743e-06
1.40397e-06
1.42542e-06
1.44796e-06
1.47088e-06
1.49432e-06
1.51813e-06
1.54529e-06
1.57235e-06
1.59754e-06
1.62418e-06
1.65154e-06
1.67981e-06
1.70907e-06
1.73942e-06
1.77097e-06
1.80382e-06
1.83806e-06
1.87384e-06
1.91124e-06
1.9501e-06
1.99061e-06
2.03266e-06
2.07615e-06
2.12092e-06
2.16675e-06
2.21295e-06
2.25866e-06
2.30458e-06
2.35135e-06
2.39908e-06
2.44778e-06
2.49746e-06
2.54815e-06
2.59987e-06
2.65264e-06
2.70648e-06
2.76142e-06
2.81747e-06
2.87465e-06
2.933e-06
2.99253e-06
3.05328e-06
3.11525e-06
3.17848e-06
3.24299e-06
3.30882e-06
3.37598e-06
3.4445e-06
3.51442e-06
3.58575e-06
3.65853e-06
3.73279e-06
3.80855e-06
3.88586e-06
3.96473e-06
4.0452e-06
4.12731e-06
4.21108e-06
4.29656e-06
4.38377e-06
4.47275e-06
4.56353e-06
4.65616e-06
4.75067e-06
4.84709e-06
4.94548e-06
5.04585e-06
5.14827e-06
5.25277e-06
5.35939e-06
5.46817e-06
5.57916e-06
5.6924e-06
)
;
    }
    inandouthalf41
    {
        type            cyclic;
        value           nonuniform List<scalar> 
50
(
-5.09528e-06
-5.09528e-06
-5.09528e-06
-5.09528e-06
-5.09528e-06
-5.09528e-06
-5.09528e-06
-5.09528e-06
-5.09528e-06
-5.09528e-06
-5.09528e-06
-5.09528e-06
-5.09528e-06
-5.09528e-06
-5.09528e-06
-5.09528e-06
-5.09528e-06
-5.09528e-06
-5.09528e-06
-5.09528e-06
-5.09528e-06
-5.09528e-06
-5.09528e-06
-5.09528e-06
-5.09528e-06
-5.09528e-06
-5.09528e-06
-5.09528e-06
-5.09528e-06
-5.09528e-06
-5.09528e-06
-5.09528e-06
-5.09528e-06
-5.09528e-06
-5.09528e-06
-5.09528e-06
-5.09528e-06
-5.09528e-06
-5.09528e-06
-5.09528e-06
-5.09528e-06
-5.09528e-06
-5.09528e-06
-5.09528e-06
-5.09528e-06
-5.09528e-06
-5.09528e-06
-5.09526e-06
-5.09498e-06
-5.08846e-06
)
;
    }
    inandouthalf42
    {
        type            cyclic;
        value           nonuniform List<scalar> 
50
(
5.09528e-06
5.09528e-06
5.09528e-06
5.09528e-06
5.09528e-06
5.09528e-06
5.09528e-06
5.09528e-06
5.09528e-06
5.09528e-06
5.09528e-06
5.09528e-06
5.09528e-06
5.09528e-06
5.09528e-06
5.09528e-06
5.09528e-06
5.09528e-06
5.09528e-06
5.09528e-06
5.09528e-06
5.09528e-06
5.09528e-06
5.09528e-06
5.09528e-06
5.09528e-06
5.09528e-06
5.09528e-06
5.09528e-06
5.09528e-06
5.09528e-06
5.09528e-06
5.09528e-06
5.09528e-06
5.09528e-06
5.09528e-06
5.09528e-06
5.09528e-06
5.09528e-06
5.09528e-06
5.09528e-06
5.09528e-06
5.09528e-06
5.09528e-06
5.09528e-06
5.09528e-06
5.09528e-06
5.09526e-06
5.09498e-06
5.08846e-06
)
;
    }
    top
    {
        type            symmetryPlane;
        value           uniform 0;
    }
    walls
    {
        type            fixedValue;
        value           uniform 0;
    }
    frontAndBackPlanes
    {
        type            empty;
        value           nonuniform 0();
    }
}


// ************************************************************************* //
