/*--------------------------------*- C++ -*----------------------------------*\
| =========                 |                                                 |
| \\      /  F ield         | OpenFOAM: The Open Source CFD Toolbox           |
|  \\    /   O peration     | Version:  2.4.x                                 |
|   \\  /    A nd           | Web:      www.OpenFOAM.org                      |
|    \\/     M anipulation  |                                                 |
\*---------------------------------------------------------------------------*/
FoamFile
{
    version     2.0;
    format      ascii;
    class       surfaceScalarField;
    location    "8";
    object      phib;
}
// * * * * * * * * * * * * * * * * * * * * * * * * * * * * * * * * * * * * * //

dimensions      [0 3 -1 0 0 0 0];

internalField   nonuniform List<scalar> 
359
(
2.66845e-13
6.75497e-13
1.05399e-12
1.41775e-12
1.79262e-12
2.17661e-12
2.56265e-12
2.948e-12
3.33217e-12
3.71534e-12
4.09746e-12
4.47815e-12
4.85708e-12
5.23399e-12
5.60874e-12
5.98134e-12
6.35181e-12
6.72013e-12
7.08633e-12
7.4505e-12
7.81259e-12
8.17277e-12
8.53111e-12
8.88771e-12
9.24269e-12
9.59614e-12
9.94815e-12
1.02989e-11
1.06485e-11
1.0997e-11
1.13445e-11
1.16913e-11
1.20372e-11
1.23825e-11
1.27273e-11
1.30715e-11
1.34153e-11
1.37587e-11
1.4102e-11
1.44448e-11
1.47875e-11
1.513e-11
1.54723e-11
1.58145e-11
1.61565e-11
1.64984e-11
1.68401e-11
1.71816e-11
1.75228e-11
1.78639e-11
1.82047e-11
1.85452e-11
1.88854e-11
1.92252e-11
1.95645e-11
1.99034e-11
2.02415e-11
2.0579e-11
2.09157e-11
2.12514e-11
2.15862e-11
2.192e-11
2.22528e-11
2.25844e-11
2.29149e-11
2.32439e-11
2.35714e-11
2.38972e-11
2.42213e-11
2.45433e-11
2.48634e-11
2.51817e-11
2.54978e-11
2.58118e-11
2.61237e-11
2.64333e-11
2.67405e-11
2.7045e-11
2.73467e-11
2.76456e-11
2.79415e-11
2.82345e-11
2.85244e-11
2.88113e-11
2.90952e-11
2.93761e-11
2.96537e-11
2.99281e-11
3.0199e-11
3.04663e-11
3.073e-11
3.09899e-11
3.12461e-11
3.14986e-11
3.17473e-11
3.19924e-11
3.22337e-11
3.24713e-11
3.2705e-11
3.29349e-11
3.31609e-11
3.33829e-11
3.36009e-11
3.3815e-11
3.40249e-11
3.42309e-11
3.44328e-11
3.46308e-11
3.48248e-11
3.50151e-11
3.52018e-11
3.5385e-11
3.5565e-11
3.57421e-11
3.59167e-11
3.6089e-11
3.62596e-11
3.64288e-11
3.65971e-11
3.67648e-11
3.69323e-11
3.70997e-11
3.72671e-11
3.74344e-11
3.7601e-11
3.77665e-11
3.79299e-11
3.80903e-11
3.82464e-11
3.83968e-11
3.85399e-11
3.86742e-11
3.87984e-11
3.89121e-11
3.90156e-11
3.91094e-11
3.91943e-11
3.92709e-11
3.93391e-11
3.93974e-11
3.944e-11
3.94487e-11
3.94119e-11
3.93328e-11
3.91836e-11
3.89385e-11
3.86317e-11
-7.73555e-11
-4.16964e-09
-4.4335e-09
-4.00209e-09
-3.47048e-09
-2.91005e-09
-2.35712e-09
-1.84069e-09
-1.38372e-09
-1.00028e-09
-6.95253e-10
-4.65275e-10
-3.0077e-10
-1.88905e-10
-1.16641e-10
-7.23057e-11
-4.60406e-11
-3.04628e-11
-2.09116e-11
-1.47884e-11
-1.06966e-11
-7.86704e-12
-5.85607e-12
-4.39565e-12
-3.31698e-12
-2.50979e-12
-1.89974e-12
-1.43536e-12
-1.08016e-12
-8.07746e-13
-5.98717e-13
-4.38574e-13
-3.16361e-13
-2.23703e-13
-1.54137e-13
-1.0264e-13
-6.52811e-14
-3.89641e-14
-2.12421e-14
-1.01729e-14
-4.21015e-15
-2.12069e-15
-2.91959e-15
-5.81982e-15
-1.0192e-14
-1.55325e-14
-2.14374e-14
-2.75827e-14
-3.37076e-14
-3.96018e-14
-4.50958e-14
-5.00542e-14
-5.43734e-14
-5.79797e-14
-6.08745e-14
-6.29831e-14
-6.42506e-14
-6.46497e-14
-6.41833e-14
-6.28869e-14
-6.08251e-14
-5.80891e-14
-5.47899e-14
-5.10549e-14
-4.70209e-14
-4.28287e-14
-3.86033e-14
-3.44452e-14
-3.04446e-14
-2.66772e-14
-2.31844e-14
-1.99859e-14
-1.70951e-14
-1.45185e-14
-1.22501e-14
-1.02677e-14
-8.55326e-15
-7.09227e-15
-5.85828e-15
-4.82712e-15
-3.97472e-15
-3.27049e-15
-2.68762e-15
-2.20434e-15
-1.80918e-15
-1.49878e-15
-1.24225e-15
-9.74445e-16
-6.88481e-16
-4.31895e-16
-3.66351e-16
-2.25841e-16
-1.90808e-16
-8.68254e-17
-7.46923e-17
9.42289e-17
1.07527e-17
1.04588e-17
1.01936e-17
9.88845e-18
9.61292e-18
9.29588e-18
9.00712e-18
8.67681e-18
8.37132e-18
8.02639e-18
7.70199e-18
7.34087e-18
7.00218e-18
6.63414e-18
6.28704e-18
5.91437e-18
5.56133e-18
5.19638e-18
4.85665e-18
4.51633e-18
4.21839e-18
3.95141e-18
3.72739e-18
3.52848e-18
3.34029e-18
3.1676e-18
3.00749e-18
2.85033e-18
2.7013e-18
2.57422e-18
2.45211e-18
2.33249e-18
2.20788e-18
2.09113e-18
1.96847e-18
1.84645e-18
1.72319e-18
1.61819e-18
1.51565e-18
1.41541e-18
1.31309e-18
1.21398e-18
1.11525e-18
9.99068e-19
9.00567e-19
8.01471e-19
7.04643e-19
6.08424e-19
5.15463e-19
4.2312e-19
3.34352e-19
2.4883e-19
1.70804e-19
1.25626e-19
8.48753e-20
4.88053e-20
-1.53326e-20
-4.74223e-20
-7.34354e-20
-1.00285e-19
-1.20064e-19
-1.49814e-19
-1.71781e-19
-1.93598e-19
-2.05661e-19
-2.26681e-19
-2.3538e-19
-2.44032e-19
-2.46007e-19
-2.67825e-19
-2.81769e-19
-2.9664e-19
-3.02382e-19
-3.15609e-19
-3.19827e-19
-3.24728e-19
-3.21631e-19
-3.39209e-19
-3.48375e-19
-3.59643e-19
-3.61947e-19
-3.84825e-19
-3.99994e-19
-4.34793e-19
-4.72227e-19
-7.53756e-19
-1.02813e-18
-1.32023e-18
-1.57932e-18
-1.88242e-18
-2.13666e-18
-2.39289e-18
-2.59913e-18
-2.90112e-18
-3.14643e-18
-3.39264e-18
-3.57037e-18
-3.81037e-18
-3.97924e-18
-4.16361e-18
-4.29195e-18
-4.69286e-18
-5.02794e-18
-5.37904e-18
-5.62919e-18
-5.99248e-18
-6.20577e-18
-6.44956e-18
-6.68739e-18
-7.09186e-18
-7.34593e-18
-7.62949e-18
-7.9169e-18
-7.68178e-18
-8.46025e-18
-1.05285e-17
)
;

boundaryField
{
    inandouthalf11
    {
        type            cyclic;
        value           nonuniform List<scalar> 
100
(
-2.73613e-10
-2.72177e-10
-2.71975e-10
-2.7219e-10
-2.72309e-10
-2.72362e-10
-2.72421e-10
-2.72489e-10
-2.72559e-10
-2.7263e-10
-2.72701e-10
-2.72772e-10
-2.72844e-10
-2.72915e-10
-2.72987e-10
-2.73059e-10
-2.73132e-10
-2.73205e-10
-2.73278e-10
-2.73352e-10
-2.73425e-10
-2.735e-10
-2.73574e-10
-2.73649e-10
-2.73725e-10
-2.73801e-10
-2.73877e-10
-2.73954e-10
-2.74032e-10
-2.7411e-10
-2.74188e-10
-2.74267e-10
-2.74346e-10
-2.74427e-10
-2.74508e-10
-2.74589e-10
-2.74671e-10
-2.74754e-10
-2.74838e-10
-2.74921e-10
-2.75006e-10
-2.75092e-10
-2.75177e-10
-2.75265e-10
-2.75353e-10
-2.75441e-10
-2.75531e-10
-2.7562e-10
-2.75712e-10
-2.75804e-10
-2.75896e-10
-2.7599e-10
-2.76085e-10
-2.7618e-10
-2.76276e-10
-2.76374e-10
-2.76472e-10
-2.76572e-10
-2.76672e-10
-2.76773e-10
-2.76876e-10
-2.76979e-10
-2.77084e-10
-2.7719e-10
-2.77297e-10
-2.77405e-10
-2.77514e-10
-2.77625e-10
-2.77737e-10
-2.77849e-10
-2.77964e-10
-2.78081e-10
-2.78197e-10
-2.78316e-10
-2.78436e-10
-2.78559e-10
-2.78682e-10
-2.78807e-10
-2.78933e-10
-2.79061e-10
-2.79191e-10
-2.79323e-10
-2.79457e-10
-2.79592e-10
-2.7973e-10
-2.7987e-10
-2.80012e-10
-2.80156e-10
-2.80302e-10
-2.80451e-10
-2.80602e-10
-2.80755e-10
-2.80911e-10
-2.8107e-10
-2.81232e-10
-2.81397e-10
-2.81565e-10
-2.81736e-10
-2.8191e-10
-2.82087e-10
)
;
    }
    inandouthalf12
    {
        type            cyclic;
        value           nonuniform List<scalar> 
100
(
2.73613e-10
2.72177e-10
2.71975e-10
2.7219e-10
2.72309e-10
2.72362e-10
2.72421e-10
2.72489e-10
2.72559e-10
2.7263e-10
2.72701e-10
2.72772e-10
2.72844e-10
2.72915e-10
2.72987e-10
2.73059e-10
2.73132e-10
2.73205e-10
2.73278e-10
2.73352e-10
2.73425e-10
2.735e-10
2.73574e-10
2.73649e-10
2.73725e-10
2.73801e-10
2.73877e-10
2.73954e-10
2.74032e-10
2.7411e-10
2.74188e-10
2.74267e-10
2.74346e-10
2.74427e-10
2.74508e-10
2.74589e-10
2.74671e-10
2.74754e-10
2.74838e-10
2.74921e-10
2.75006e-10
2.75092e-10
2.75177e-10
2.75265e-10
2.75353e-10
2.75441e-10
2.75531e-10
2.7562e-10
2.75712e-10
2.75804e-10
2.75896e-10
2.7599e-10
2.76085e-10
2.7618e-10
2.76276e-10
2.76374e-10
2.76472e-10
2.76572e-10
2.76672e-10
2.76773e-10
2.76876e-10
2.76979e-10
2.77084e-10
2.7719e-10
2.77297e-10
2.77405e-10
2.77514e-10
2.77625e-10
2.77737e-10
2.77849e-10
2.77964e-10
2.78081e-10
2.78197e-10
2.78316e-10
2.78436e-10
2.78559e-10
2.78682e-10
2.78807e-10
2.78933e-10
2.79061e-10
2.79191e-10
2.79323e-10
2.79457e-10
2.79592e-10
2.7973e-10
2.7987e-10
2.80012e-10
2.80156e-10
2.80302e-10
2.80451e-10
2.80602e-10
2.80755e-10
2.80911e-10
2.8107e-10
2.81232e-10
2.81397e-10
2.81565e-10
2.81736e-10
2.8191e-10
2.82087e-10
)
;
    }
    inandouthalf21
    {
        type            cyclic;
        value           nonuniform List<scalar> 
100
(
-2.82268e-10
-2.82453e-10
-2.82642e-10
-2.82835e-10
-2.83032e-10
-2.83233e-10
-2.83439e-10
-2.8365e-10
-2.83866e-10
-2.84087e-10
-2.84313e-10
-2.84545e-10
-2.84783e-10
-2.85028e-10
-2.85279e-10
-2.85537e-10
-2.85802e-10
-2.86075e-10
-2.86356e-10
-2.86645e-10
-2.86943e-10
-2.8725e-10
-2.87568e-10
-2.87895e-10
-2.88233e-10
-2.88584e-10
-2.88946e-10
-2.89323e-10
-2.89715e-10
-2.90124e-10
-2.90549e-10
-2.90994e-10
-2.91458e-10
-2.91948e-10
-2.92467e-10
-2.93016e-10
-2.93592e-10
-2.94202e-10
-2.94879e-10
-2.95655e-10
-2.96497e-10
-2.9731e-10
-2.98291e-10
-2.99563e-10
-3.01158e-10
-3.04253e-10
-3.08895e-10
-4.1019e-10
-4.34926e-08
-1.75396e-07
-2.9172e-07
-3.83032e-07
-4.57921e-07
-5.20566e-07
-5.73615e-07
-6.18839e-07
-6.57446e-07
-6.90242e-07
-7.17739e-07
-7.40273e-07
-7.58152e-07
-7.71807e-07
-7.81861e-07
-7.89057e-07
-7.94117e-07
-7.97637e-07
-8.0006e-07
-8.01696e-07
-8.02756e-07
-8.03385e-07
-8.03683e-07
-8.0372e-07
-8.03545e-07
-8.03195e-07
-8.02698e-07
-8.02075e-07
-8.01341e-07
-8.00511e-07
-7.99595e-07
-7.98601e-07
-7.97537e-07
-7.96409e-07
-7.95224e-07
-7.93985e-07
-7.92698e-07
-7.91365e-07
-7.89991e-07
-7.88579e-07
-7.87131e-07
-7.8565e-07
-7.8414e-07
-7.82602e-07
-7.81038e-07
-7.7945e-07
-7.77842e-07
-7.76213e-07
-7.74566e-07
-7.72903e-07
-7.71226e-07
-7.69535e-07
)
;
    }
    inandouthalf22
    {
        type            cyclic;
        value           nonuniform List<scalar> 
100
(
2.82268e-10
2.82453e-10
2.82642e-10
2.82835e-10
2.83032e-10
2.83233e-10
2.83439e-10
2.8365e-10
2.83866e-10
2.84087e-10
2.84313e-10
2.84545e-10
2.84783e-10
2.85028e-10
2.85279e-10
2.85537e-10
2.85802e-10
2.86075e-10
2.86356e-10
2.86645e-10
2.86943e-10
2.8725e-10
2.87568e-10
2.87895e-10
2.88233e-10
2.88584e-10
2.88946e-10
2.89323e-10
2.89715e-10
2.90124e-10
2.90549e-10
2.90994e-10
2.91458e-10
2.91948e-10
2.92467e-10
2.93016e-10
2.93592e-10
2.94202e-10
2.94879e-10
2.95655e-10
2.96497e-10
2.9731e-10
2.98291e-10
2.99563e-10
3.01158e-10
3.04253e-10
3.08895e-10
4.1019e-10
4.34926e-08
1.75396e-07
2.9172e-07
3.83032e-07
4.57921e-07
5.20566e-07
5.73615e-07
6.18839e-07
6.57446e-07
6.90242e-07
7.17739e-07
7.40273e-07
7.58152e-07
7.71807e-07
7.81861e-07
7.89057e-07
7.94117e-07
7.97637e-07
8.0006e-07
8.01696e-07
8.02756e-07
8.03385e-07
8.03683e-07
8.0372e-07
8.03545e-07
8.03195e-07
8.02698e-07
8.02075e-07
8.01341e-07
8.00511e-07
7.99595e-07
7.98601e-07
7.97537e-07
7.96409e-07
7.95224e-07
7.93985e-07
7.92698e-07
7.91365e-07
7.89991e-07
7.88579e-07
7.87131e-07
7.8565e-07
7.8414e-07
7.82602e-07
7.81038e-07
7.7945e-07
7.77842e-07
7.76213e-07
7.74566e-07
7.72903e-07
7.71226e-07
7.69535e-07
)
;
    }
    inandouthalf31
    {
        type            cyclic;
        value           nonuniform List<scalar> 
110
(
-7.67834e-07
-7.81652e-07
-7.95668e-07
-8.09882e-07
-8.24294e-07
-8.38906e-07
-8.53719e-07
-8.68732e-07
-8.83947e-07
-8.99365e-07
-9.14985e-07
-9.3081e-07
-9.46839e-07
-9.63073e-07
-9.79513e-07
-9.9616e-07
-1.01301e-06
-1.03008e-06
-1.04735e-06
-1.06484e-06
-1.08254e-06
-1.10046e-06
-1.11859e-06
-1.13694e-06
-1.15552e-06
-1.17432e-06
-1.19335e-06
-1.21262e-06
-1.23213e-06
-1.25189e-06
-1.2719e-06
-1.29217e-06
-1.31271e-06
-1.33353e-06
-1.35465e-06
-1.37608e-06
-1.39784e-06
-1.41994e-06
-1.44242e-06
-1.46528e-06
-1.48857e-06
-1.51232e-06
-1.53657e-06
-1.56136e-06
-1.58674e-06
-1.61278e-06
-1.63954e-06
-1.66709e-06
-1.69553e-06
-1.72495e-06
-1.75545e-06
-1.78713e-06
-1.82012e-06
-1.8545e-06
-1.89039e-06
-1.92785e-06
-1.96692e-06
-2.0076e-06
-2.04985e-06
-2.0936e-06
-2.13867e-06
-2.18484e-06
-2.23165e-06
-2.27797e-06
-2.32431e-06
-2.37149e-06
-2.41962e-06
-2.46873e-06
-2.51884e-06
-2.56997e-06
-2.62213e-06
-2.67535e-06
-2.72966e-06
-2.78506e-06
-2.84159e-06
-2.89927e-06
-2.95812e-06
-3.01816e-06
-3.07942e-06
-3.14192e-06
-3.20569e-06
-3.27076e-06
-3.33715e-06
-3.40488e-06
-3.47399e-06
-3.54451e-06
-3.61645e-06
-3.68986e-06
-3.76475e-06
-3.84116e-06
-3.91913e-06
-3.99868e-06
-4.07984e-06
-4.16265e-06
-4.24714e-06
-4.33335e-06
-4.4213e-06
-4.51104e-06
-4.6026e-06
-4.69602e-06
-4.79134e-06
-4.88859e-06
-4.98782e-06
-5.08906e-06
-5.19235e-06
-5.29774e-06
-5.40527e-06
-5.51499e-06
-5.62693e-06
-5.74114e-06
)
;
    }
    inandouthalf32
    {
        type            cyclic;
        value           nonuniform List<scalar> 
110
(
7.67834e-07
7.81652e-07
7.95668e-07
8.09882e-07
8.24294e-07
8.38906e-07
8.53719e-07
8.68732e-07
8.83947e-07
8.99365e-07
9.14985e-07
9.3081e-07
9.46839e-07
9.63073e-07
9.79513e-07
9.9616e-07
1.01301e-06
1.03008e-06
1.04735e-06
1.06484e-06
1.08254e-06
1.10046e-06
1.11859e-06
1.13694e-06
1.15552e-06
1.17432e-06
1.19335e-06
1.21262e-06
1.23213e-06
1.25189e-06
1.2719e-06
1.29217e-06
1.31271e-06
1.33353e-06
1.35465e-06
1.37608e-06
1.39784e-06
1.41994e-06
1.44242e-06
1.46528e-06
1.48857e-06
1.51232e-06
1.53657e-06
1.56136e-06
1.58674e-06
1.61278e-06
1.63954e-06
1.66709e-06
1.69553e-06
1.72495e-06
1.75545e-06
1.78713e-06
1.82012e-06
1.8545e-06
1.89039e-06
1.92785e-06
1.96692e-06
2.0076e-06
2.04985e-06
2.0936e-06
2.13867e-06
2.18484e-06
2.23165e-06
2.27797e-06
2.32431e-06
2.37149e-06
2.41962e-06
2.46873e-06
2.51884e-06
2.56997e-06
2.62213e-06
2.67535e-06
2.72966e-06
2.78506e-06
2.84159e-06
2.89927e-06
2.95812e-06
3.01816e-06
3.07942e-06
3.14192e-06
3.20569e-06
3.27076e-06
3.33715e-06
3.40488e-06
3.47399e-06
3.54451e-06
3.61645e-06
3.68986e-06
3.76475e-06
3.84116e-06
3.91913e-06
3.99868e-06
4.07984e-06
4.16265e-06
4.24714e-06
4.33335e-06
4.4213e-06
4.51104e-06
4.6026e-06
4.69602e-06
4.79134e-06
4.88859e-06
4.98782e-06
5.08906e-06
5.19235e-06
5.29774e-06
5.40527e-06
5.51499e-06
5.62693e-06
5.74114e-06
)
;
    }
    inandouthalf41
    {
        type            cyclic;
        value           nonuniform List<scalar> 
50
(
-5.1389e-06
-5.1389e-06
-5.1389e-06
-5.1389e-06
-5.1389e-06
-5.1389e-06
-5.1389e-06
-5.1389e-06
-5.1389e-06
-5.1389e-06
-5.1389e-06
-5.1389e-06
-5.1389e-06
-5.1389e-06
-5.1389e-06
-5.1389e-06
-5.1389e-06
-5.1389e-06
-5.1389e-06
-5.1389e-06
-5.1389e-06
-5.1389e-06
-5.1389e-06
-5.1389e-06
-5.1389e-06
-5.1389e-06
-5.1389e-06
-5.1389e-06
-5.1389e-06
-5.1389e-06
-5.1389e-06
-5.1389e-06
-5.1389e-06
-5.1389e-06
-5.1389e-06
-5.1389e-06
-5.1389e-06
-5.1389e-06
-5.1389e-06
-5.1389e-06
-5.1389e-06
-5.1389e-06
-5.1389e-06
-5.1389e-06
-5.1389e-06
-5.1389e-06
-5.1389e-06
-5.1389e-06
-5.1389e-06
-5.1389e-06
)
;
    }
    inandouthalf42
    {
        type            cyclic;
        value           nonuniform List<scalar> 
50
(
5.1389e-06
5.1389e-06
5.1389e-06
5.1389e-06
5.1389e-06
5.1389e-06
5.1389e-06
5.1389e-06
5.1389e-06
5.1389e-06
5.1389e-06
5.1389e-06
5.1389e-06
5.1389e-06
5.1389e-06
5.1389e-06
5.1389e-06
5.1389e-06
5.1389e-06
5.1389e-06
5.1389e-06
5.1389e-06
5.1389e-06
5.1389e-06
5.1389e-06
5.1389e-06
5.1389e-06
5.1389e-06
5.1389e-06
5.1389e-06
5.1389e-06
5.1389e-06
5.1389e-06
5.1389e-06
5.1389e-06
5.1389e-06
5.1389e-06
5.1389e-06
5.1389e-06
5.1389e-06
5.1389e-06
5.1389e-06
5.1389e-06
5.1389e-06
5.1389e-06
5.1389e-06
5.1389e-06
5.1389e-06
5.1389e-06
5.1389e-06
)
;
    }
    top
    {
        type            symmetryPlane;
        value           uniform 0;
    }
    walls
    {
        type            fixedValue;
        value           uniform 0;
    }
    frontAndBackPlanes
    {
        type            empty;
        value           nonuniform 0();
    }
}


// ************************************************************************* //
