/*--------------------------------*- C++ -*----------------------------------*\
| =========                 |                                                 |
| \\      /  F ield         | OpenFOAM: The Open Source CFD Toolbox           |
|  \\    /   O peration     | Version:  2.4.x                                 |
|   \\  /    A nd           | Web:      www.OpenFOAM.org                      |
|    \\/     M anipulation  |                                                 |
\*---------------------------------------------------------------------------*/
FoamFile
{
    version     2.0;
    format      ascii;
    class       surfaceScalarField;
    location    "8";
    object      phib_0;
}
// * * * * * * * * * * * * * * * * * * * * * * * * * * * * * * * * * * * * * //

dimensions      [0 3 -1 0 0 0 0];

internalField   nonuniform List<scalar> 
359
(
2.66873e-13
6.75568e-13
1.05409e-12
1.41789e-12
1.79278e-12
2.1768e-12
2.56287e-12
2.94824e-12
3.33244e-12
3.71564e-12
4.09778e-12
4.47849e-12
4.85745e-12
5.23437e-12
5.60915e-12
5.98177e-12
6.35226e-12
6.72061e-12
7.08683e-12
7.45102e-12
7.81314e-12
8.17334e-12
8.53171e-12
8.88834e-12
9.24334e-12
9.59682e-12
9.94886e-12
1.02996e-11
1.06493e-11
1.09978e-11
1.13454e-11
1.16922e-11
1.20381e-11
1.23835e-11
1.27283e-11
1.30726e-11
1.34164e-11
1.37599e-11
1.41031e-11
1.4446e-11
1.47888e-11
1.51313e-11
1.54736e-11
1.58159e-11
1.61579e-11
1.64999e-11
1.68417e-11
1.71831e-11
1.75244e-11
1.78656e-11
1.82064e-11
1.8547e-11
1.88872e-11
1.92271e-11
1.95664e-11
1.99053e-11
2.02435e-11
2.05811e-11
2.09178e-11
2.12535e-11
2.15884e-11
2.19222e-11
2.22551e-11
2.25868e-11
2.29173e-11
2.32463e-11
2.35739e-11
2.38998e-11
2.42239e-11
2.4546e-11
2.48662e-11
2.51845e-11
2.55006e-11
2.58147e-11
2.61266e-11
2.64363e-11
2.67435e-11
2.7048e-11
2.73498e-11
2.76488e-11
2.79447e-11
2.82377e-11
2.85277e-11
2.88147e-11
2.90986e-11
2.93795e-11
2.96572e-11
2.99316e-11
3.02026e-11
3.04699e-11
3.07336e-11
3.09936e-11
3.12499e-11
3.15024e-11
3.17512e-11
3.19962e-11
3.22376e-11
3.24752e-11
3.2709e-11
3.29389e-11
3.3165e-11
3.3387e-11
3.36051e-11
3.38191e-11
3.40292e-11
3.42351e-11
3.44371e-11
3.46351e-11
3.48292e-11
3.50195e-11
3.52062e-11
3.53895e-11
3.55695e-11
3.57466e-11
3.59212e-11
3.60936e-11
3.62642e-11
3.64334e-11
3.66017e-11
3.67695e-11
3.6937e-11
3.71044e-11
3.72718e-11
3.74391e-11
3.76057e-11
3.77712e-11
3.79347e-11
3.80951e-11
3.82512e-11
3.84016e-11
3.85447e-11
3.8679e-11
3.88032e-11
3.89169e-11
3.90203e-11
3.91142e-11
3.91991e-11
3.92756e-11
3.93438e-11
3.94021e-11
3.94447e-11
3.94533e-11
3.94165e-11
3.93375e-11
3.91883e-11
3.89431e-11
3.8638e-11
-7.72413e-11
-4.17173e-09
-4.43534e-09
-4.00255e-09
-3.47023e-09
-2.90934e-09
-2.3561e-09
-1.83951e-09
-1.38252e-09
-9.99161e-10
-6.94288e-10
-4.645e-10
-3.00188e-10
-1.88495e-10
-1.16369e-10
-7.21352e-11
-4.59353e-11
-3.0396e-11
-2.08672e-11
-1.47572e-11
-1.06737e-11
-7.84955e-12
-5.84231e-12
-4.38456e-12
-3.30785e-12
-2.50215e-12
-1.89326e-12
-1.42979e-12
-1.07533e-12
-8.03525e-13
-5.94998e-13
-4.35278e-13
-3.13424e-13
-2.21073e-13
-1.51772e-13
-1.00506e-13
-6.33487e-14
-3.72091e-14
-1.96441e-14
-8.71427e-15
-2.87592e-15
-8.9787e-16
-1.79695e-15
-4.78755e-15
-9.24154e-15
-1.46563e-14
-2.06289e-14
-2.68361e-14
-3.30177e-14
-3.89641e-14
-4.45061e-14
-4.95091e-14
-5.38696e-14
-5.75143e-14
-6.04456e-14
-6.25889e-14
-6.38893e-14
-6.43197e-14
-6.38829e-14
-6.26145e-14
-6.05791e-14
-5.7868e-14
-5.4592e-14
-5.08787e-14
-4.68647e-14
-4.26908e-14
-3.84822e-14
-3.43394e-14
-3.03525e-14
-2.65973e-14
-2.31154e-14
-1.99266e-14
-1.70442e-14
-1.4475e-14
-1.2213e-14
-1.02362e-14
-8.52656e-15
-7.06971e-15
-5.83927e-15
-4.81113e-15
-3.96131e-15
-3.25927e-15
-2.67823e-15
-2.19649e-15
-1.8026e-15
-1.49322e-15
-1.23752e-15
-9.70572e-16
-6.85397e-16
-4.29264e-16
-3.64309e-16
-2.24044e-16
-1.89312e-16
-8.54181e-17
-7.34937e-17
9.54025e-17
1.1848e-17
1.15124e-17
1.12081e-17
1.08617e-17
1.05461e-17
1.01897e-17
9.86136e-18
9.49057e-18
9.14608e-18
8.7605e-18
8.39707e-18
7.9976e-18
7.62024e-18
7.21499e-18
6.82916e-18
6.41957e-18
6.02939e-18
5.62892e-18
5.25441e-18
4.88183e-18
4.55229e-18
4.2567e-18
4.00446e-18
3.78117e-18
3.57045e-18
3.37649e-18
3.19563e-18
3.02053e-18
2.85538e-18
2.71149e-18
2.57489e-18
2.44201e-18
2.30663e-18
2.17841e-18
2.04708e-18
1.91772e-18
1.78865e-18
1.6753e-18
1.56535e-18
1.45945e-18
1.35369e-18
1.24974e-18
1.14853e-18
1.03041e-18
9.324e-19
8.31613e-19
7.34961e-19
6.40059e-19
5.50118e-19
4.59128e-19
3.75245e-19
2.96222e-19
2.27554e-19
2.00998e-19
1.81359e-19
1.67775e-19
1.25621e-19
1.18638e-19
1.14804e-19
1.12567e-19
1.12754e-19
1.12822e-19
1.14515e-19
1.16759e-19
1.21275e-19
1.25406e-19
1.30001e-19
1.33825e-19
1.37638e-19
1.47803e-19
1.56181e-19
1.65067e-19
1.69261e-19
1.77599e-19
1.80358e-19
1.84138e-19
1.82757e-19
1.96261e-19
2.03647e-19
2.12608e-19
2.15058e-19
2.33525e-19
2.45027e-19
2.72423e-19
3.13943e-19
5.24632e-19
7.34498e-19
9.5863e-19
1.14224e-18
1.374e-18
1.54358e-18
1.7151e-18
1.82258e-18
2.04524e-18
2.19169e-18
2.33936e-18
2.39561e-18
2.52442e-18
2.56081e-18
2.60632e-18
2.58039e-18
2.77065e-18
2.88665e-18
3.01192e-18
3.0152e-18
3.15333e-18
3.10666e-18
3.06782e-18
2.60057e-18
3.08895e-18
2.97278e-18
2.83272e-18
1.50368e-18
1.88228e-18
-6.09609e-19
-4.59843e-18
)
;

boundaryField
{
    inandouthalf11
    {
        type            cyclic;
        value           nonuniform List<scalar> 
100
(
-2.73624e-10
-2.72188e-10
-2.71986e-10
-2.72201e-10
-2.72321e-10
-2.72374e-10
-2.72432e-10
-2.72501e-10
-2.72571e-10
-2.72641e-10
-2.72713e-10
-2.72784e-10
-2.72855e-10
-2.72926e-10
-2.72998e-10
-2.7307e-10
-2.73143e-10
-2.73216e-10
-2.73289e-10
-2.73363e-10
-2.73436e-10
-2.73511e-10
-2.73586e-10
-2.73661e-10
-2.73736e-10
-2.73812e-10
-2.73888e-10
-2.73965e-10
-2.74043e-10
-2.74121e-10
-2.74199e-10
-2.74279e-10
-2.74358e-10
-2.74438e-10
-2.74519e-10
-2.746e-10
-2.74682e-10
-2.74765e-10
-2.74849e-10
-2.74932e-10
-2.75018e-10
-2.75103e-10
-2.75189e-10
-2.75276e-10
-2.75364e-10
-2.75452e-10
-2.75542e-10
-2.75632e-10
-2.75723e-10
-2.75815e-10
-2.75907e-10
-2.76001e-10
-2.76096e-10
-2.76192e-10
-2.76287e-10
-2.76386e-10
-2.76483e-10
-2.76583e-10
-2.76683e-10
-2.76784e-10
-2.76887e-10
-2.7699e-10
-2.77095e-10
-2.77201e-10
-2.77308e-10
-2.77416e-10
-2.77526e-10
-2.77636e-10
-2.77748e-10
-2.77861e-10
-2.77976e-10
-2.78092e-10
-2.78208e-10
-2.78328e-10
-2.78448e-10
-2.7857e-10
-2.78693e-10
-2.78818e-10
-2.78944e-10
-2.79073e-10
-2.79202e-10
-2.79334e-10
-2.79468e-10
-2.79604e-10
-2.79741e-10
-2.79881e-10
-2.80023e-10
-2.80167e-10
-2.80313e-10
-2.80462e-10
-2.80613e-10
-2.80766e-10
-2.80923e-10
-2.81082e-10
-2.81243e-10
-2.81408e-10
-2.81576e-10
-2.81747e-10
-2.81921e-10
-2.82099e-10
)
;
    }
    inandouthalf12
    {
        type            cyclic;
        value           nonuniform List<scalar> 
100
(
2.73624e-10
2.72188e-10
2.71986e-10
2.72201e-10
2.72321e-10
2.72374e-10
2.72432e-10
2.72501e-10
2.72571e-10
2.72641e-10
2.72713e-10
2.72784e-10
2.72855e-10
2.72926e-10
2.72998e-10
2.7307e-10
2.73143e-10
2.73216e-10
2.73289e-10
2.73363e-10
2.73436e-10
2.73511e-10
2.73586e-10
2.73661e-10
2.73736e-10
2.73812e-10
2.73888e-10
2.73965e-10
2.74043e-10
2.74121e-10
2.74199e-10
2.74279e-10
2.74358e-10
2.74438e-10
2.74519e-10
2.746e-10
2.74682e-10
2.74765e-10
2.74849e-10
2.74932e-10
2.75018e-10
2.75103e-10
2.75189e-10
2.75276e-10
2.75364e-10
2.75452e-10
2.75542e-10
2.75632e-10
2.75723e-10
2.75815e-10
2.75907e-10
2.76001e-10
2.76096e-10
2.76192e-10
2.76287e-10
2.76386e-10
2.76483e-10
2.76583e-10
2.76683e-10
2.76784e-10
2.76887e-10
2.7699e-10
2.77095e-10
2.77201e-10
2.77308e-10
2.77416e-10
2.77526e-10
2.77636e-10
2.77748e-10
2.77861e-10
2.77976e-10
2.78092e-10
2.78208e-10
2.78328e-10
2.78448e-10
2.7857e-10
2.78693e-10
2.78818e-10
2.78944e-10
2.79073e-10
2.79202e-10
2.79334e-10
2.79468e-10
2.79604e-10
2.79741e-10
2.79881e-10
2.80023e-10
2.80167e-10
2.80313e-10
2.80462e-10
2.80613e-10
2.80766e-10
2.80923e-10
2.81082e-10
2.81243e-10
2.81408e-10
2.81576e-10
2.81747e-10
2.81921e-10
2.82099e-10
)
;
    }
    inandouthalf21
    {
        type            cyclic;
        value           nonuniform List<scalar> 
100
(
-2.8228e-10
-2.82465e-10
-2.82653e-10
-2.82846e-10
-2.83043e-10
-2.83244e-10
-2.8345e-10
-2.83661e-10
-2.83877e-10
-2.84098e-10
-2.84324e-10
-2.84557e-10
-2.84795e-10
-2.85039e-10
-2.8529e-10
-2.85549e-10
-2.85814e-10
-2.86087e-10
-2.86367e-10
-2.86657e-10
-2.86955e-10
-2.87262e-10
-2.87579e-10
-2.87907e-10
-2.88245e-10
-2.88595e-10
-2.88958e-10
-2.89335e-10
-2.89727e-10
-2.90135e-10
-2.90561e-10
-2.91005e-10
-2.9147e-10
-2.91959e-10
-2.92479e-10
-2.93028e-10
-2.93603e-10
-2.94214e-10
-2.94891e-10
-2.95667e-10
-2.96509e-10
-2.97322e-10
-2.98303e-10
-2.99575e-10
-3.0117e-10
-3.04265e-10
-3.08907e-10
-4.09842e-10
-4.34053e-08
-1.75273e-07
-2.91631e-07
-3.82954e-07
-4.57846e-07
-5.2049e-07
-5.73534e-07
-6.18751e-07
-6.5735e-07
-6.90135e-07
-7.17619e-07
-7.40138e-07
-7.58002e-07
-7.71641e-07
-7.81681e-07
-7.88866e-07
-7.93917e-07
-7.97431e-07
-7.99849e-07
-8.01481e-07
-8.02538e-07
-8.03165e-07
-8.03461e-07
-8.03496e-07
-8.0332e-07
-8.0297e-07
-8.02472e-07
-8.01847e-07
-8.01113e-07
-8.00282e-07
-7.99365e-07
-7.98371e-07
-7.97306e-07
-7.96178e-07
-7.94992e-07
-7.93753e-07
-7.92465e-07
-7.91131e-07
-7.89757e-07
-7.88344e-07
-7.86896e-07
-7.85415e-07
-7.83904e-07
-7.82365e-07
-7.80801e-07
-7.79213e-07
-7.77604e-07
-7.75975e-07
-7.74328e-07
-7.72664e-07
-7.70986e-07
-7.69295e-07
)
;
    }
    inandouthalf22
    {
        type            cyclic;
        value           nonuniform List<scalar> 
100
(
2.8228e-10
2.82465e-10
2.82653e-10
2.82846e-10
2.83043e-10
2.83244e-10
2.8345e-10
2.83661e-10
2.83877e-10
2.84098e-10
2.84324e-10
2.84557e-10
2.84795e-10
2.85039e-10
2.8529e-10
2.85549e-10
2.85814e-10
2.86087e-10
2.86367e-10
2.86657e-10
2.86955e-10
2.87262e-10
2.87579e-10
2.87907e-10
2.88245e-10
2.88595e-10
2.88958e-10
2.89335e-10
2.89727e-10
2.90135e-10
2.90561e-10
2.91005e-10
2.9147e-10
2.91959e-10
2.92479e-10
2.93028e-10
2.93603e-10
2.94214e-10
2.94891e-10
2.95667e-10
2.96509e-10
2.97322e-10
2.98303e-10
2.99575e-10
3.0117e-10
3.04265e-10
3.08907e-10
4.09842e-10
4.34053e-08
1.75273e-07
2.91631e-07
3.82954e-07
4.57846e-07
5.2049e-07
5.73534e-07
6.18751e-07
6.5735e-07
6.90135e-07
7.17619e-07
7.40138e-07
7.58002e-07
7.71641e-07
7.81681e-07
7.88866e-07
7.93917e-07
7.97431e-07
7.99849e-07
8.01481e-07
8.02538e-07
8.03165e-07
8.03461e-07
8.03496e-07
8.0332e-07
8.0297e-07
8.02472e-07
8.01847e-07
8.01113e-07
8.00282e-07
7.99365e-07
7.98371e-07
7.97306e-07
7.96178e-07
7.94992e-07
7.93753e-07
7.92465e-07
7.91131e-07
7.89757e-07
7.88344e-07
7.86896e-07
7.85415e-07
7.83904e-07
7.82365e-07
7.80801e-07
7.79213e-07
7.77604e-07
7.75975e-07
7.74328e-07
7.72664e-07
7.70986e-07
7.69295e-07
)
;
    }
    inandouthalf31
    {
        type            cyclic;
        value           nonuniform List<scalar> 
110
(
-7.67594e-07
-7.81407e-07
-7.95417e-07
-8.09625e-07
-8.24032e-07
-8.38638e-07
-8.53445e-07
-8.68453e-07
-8.83662e-07
-8.99073e-07
-9.14687e-07
-9.30505e-07
-9.46527e-07
-9.62754e-07
-9.79187e-07
-9.95827e-07
-1.01268e-06
-1.02973e-06
-1.047e-06
-1.06448e-06
-1.08217e-06
-1.10008e-06
-1.1182e-06
-1.13655e-06
-1.15511e-06
-1.17391e-06
-1.19293e-06
-1.21219e-06
-1.23169e-06
-1.25144e-06
-1.27144e-06
-1.2917e-06
-1.31223e-06
-1.33305e-06
-1.35416e-06
-1.37558e-06
-1.39732e-06
-1.41942e-06
-1.44188e-06
-1.46473e-06
-1.48801e-06
-1.51175e-06
-1.53598e-06
-1.56076e-06
-1.58613e-06
-1.61216e-06
-1.6389e-06
-1.66645e-06
-1.69488e-06
-1.72428e-06
-1.75476e-06
-1.78644e-06
-1.81941e-06
-1.85378e-06
-1.88966e-06
-1.9271e-06
-1.96616e-06
-2.00682e-06
-2.04906e-06
-2.09279e-06
-2.13785e-06
-2.18401e-06
-2.2308e-06
-2.2771e-06
-2.32342e-06
-2.37058e-06
-2.4187e-06
-2.46779e-06
-2.51788e-06
-2.56899e-06
-2.62113e-06
-2.67433e-06
-2.72861e-06
-2.784e-06
-2.8405e-06
-2.89816e-06
-2.95698e-06
-3.017e-06
-3.07824e-06
-3.14072e-06
-3.20447e-06
-3.26951e-06
-3.33587e-06
-3.40358e-06
-3.47267e-06
-3.54315e-06
-3.61507e-06
-3.68844e-06
-3.76331e-06
-3.8397e-06
-3.91763e-06
-3.99715e-06
-4.07828e-06
-4.16106e-06
-4.24552e-06
-4.33169e-06
-4.41961e-06
-4.50932e-06
-4.60084e-06
-4.69423e-06
-4.78951e-06
-4.88672e-06
-4.98591e-06
-5.08711e-06
-5.19037e-06
-5.29572e-06
-5.40321e-06
-5.51288e-06
-5.62477e-06
-5.73894e-06
)
;
    }
    inandouthalf32
    {
        type            cyclic;
        value           nonuniform List<scalar> 
110
(
7.67594e-07
7.81407e-07
7.95417e-07
8.09625e-07
8.24032e-07
8.38638e-07
8.53445e-07
8.68453e-07
8.83662e-07
8.99073e-07
9.14687e-07
9.30505e-07
9.46527e-07
9.62754e-07
9.79187e-07
9.95827e-07
1.01268e-06
1.02973e-06
1.047e-06
1.06448e-06
1.08217e-06
1.10008e-06
1.1182e-06
1.13655e-06
1.15511e-06
1.17391e-06
1.19293e-06
1.21219e-06
1.23169e-06
1.25144e-06
1.27144e-06
1.2917e-06
1.31223e-06
1.33305e-06
1.35416e-06
1.37558e-06
1.39732e-06
1.41942e-06
1.44188e-06
1.46473e-06
1.48801e-06
1.51175e-06
1.53598e-06
1.56076e-06
1.58613e-06
1.61216e-06
1.6389e-06
1.66645e-06
1.69488e-06
1.72428e-06
1.75476e-06
1.78644e-06
1.81941e-06
1.85378e-06
1.88966e-06
1.9271e-06
1.96616e-06
2.00682e-06
2.04906e-06
2.09279e-06
2.13785e-06
2.18401e-06
2.2308e-06
2.2771e-06
2.32342e-06
2.37058e-06
2.4187e-06
2.46779e-06
2.51788e-06
2.56899e-06
2.62113e-06
2.67433e-06
2.72861e-06
2.784e-06
2.8405e-06
2.89816e-06
2.95698e-06
3.017e-06
3.07824e-06
3.14072e-06
3.20447e-06
3.26951e-06
3.33587e-06
3.40358e-06
3.47267e-06
3.54315e-06
3.61507e-06
3.68844e-06
3.76331e-06
3.8397e-06
3.91763e-06
3.99715e-06
4.07828e-06
4.16106e-06
4.24552e-06
4.33169e-06
4.41961e-06
4.50932e-06
4.60084e-06
4.69423e-06
4.78951e-06
4.88672e-06
4.98591e-06
5.08711e-06
5.19037e-06
5.29572e-06
5.40321e-06
5.51288e-06
5.62477e-06
5.73894e-06
)
;
    }
    inandouthalf41
    {
        type            cyclic;
        value           nonuniform List<scalar> 
50
(
-5.13694e-06
-5.13694e-06
-5.13694e-06
-5.13694e-06
-5.13694e-06
-5.13694e-06
-5.13694e-06
-5.13694e-06
-5.13694e-06
-5.13694e-06
-5.13694e-06
-5.13694e-06
-5.13694e-06
-5.13694e-06
-5.13694e-06
-5.13694e-06
-5.13694e-06
-5.13694e-06
-5.13694e-06
-5.13694e-06
-5.13694e-06
-5.13694e-06
-5.13694e-06
-5.13694e-06
-5.13694e-06
-5.13694e-06
-5.13694e-06
-5.13694e-06
-5.13694e-06
-5.13694e-06
-5.13694e-06
-5.13694e-06
-5.13694e-06
-5.13694e-06
-5.13694e-06
-5.13694e-06
-5.13694e-06
-5.13694e-06
-5.13694e-06
-5.13694e-06
-5.13694e-06
-5.13694e-06
-5.13694e-06
-5.13694e-06
-5.13694e-06
-5.13694e-06
-5.13694e-06
-5.13694e-06
-5.13694e-06
-5.13694e-06
)
;
    }
    inandouthalf42
    {
        type            cyclic;
        value           nonuniform List<scalar> 
50
(
5.13694e-06
5.13694e-06
5.13694e-06
5.13694e-06
5.13694e-06
5.13694e-06
5.13694e-06
5.13694e-06
5.13694e-06
5.13694e-06
5.13694e-06
5.13694e-06
5.13694e-06
5.13694e-06
5.13694e-06
5.13694e-06
5.13694e-06
5.13694e-06
5.13694e-06
5.13694e-06
5.13694e-06
5.13694e-06
5.13694e-06
5.13694e-06
5.13694e-06
5.13694e-06
5.13694e-06
5.13694e-06
5.13694e-06
5.13694e-06
5.13694e-06
5.13694e-06
5.13694e-06
5.13694e-06
5.13694e-06
5.13694e-06
5.13694e-06
5.13694e-06
5.13694e-06
5.13694e-06
5.13694e-06
5.13694e-06
5.13694e-06
5.13694e-06
5.13694e-06
5.13694e-06
5.13694e-06
5.13694e-06
5.13694e-06
5.13694e-06
)
;
    }
    top
    {
        type            symmetryPlane;
        value           uniform 0;
    }
    walls
    {
        type            fixedValue;
        value           uniform 0;
    }
    frontAndBackPlanes
    {
        type            empty;
        value           nonuniform 0();
    }
}


// ************************************************************************* //
