/*--------------------------------*- C++ -*----------------------------------*\
| =========                 |                                                 |
| \\      /  F ield         | OpenFOAM: The Open Source CFD Toolbox           |
|  \\    /   O peration     | Version:  2.4.x                                 |
|   \\  /    A nd           | Web:      www.OpenFOAM.org                      |
|    \\/     M anipulation  |                                                 |
\*---------------------------------------------------------------------------*/
FoamFile
{
    version     2.0;
    format      ascii;
    class       volVectorField;
    location    "8";
    object      susb;
}
// * * * * * * * * * * * * * * * * * * * * * * * * * * * * * * * * * * * * * //

dimensions      [0 1 -2 0 0 0 0];

internalField   nonuniform List<vector> 
360
(
(0 5.8068e-18 0)
(0 6.51203e-18 0)
(0 6.41734e-20 0)
(0 -9.20954e-19 0)
(-3.69863e-31 -4.20578e-19 0)
(-3.69825e-31 -2.31774e-19 0)
(-7.3956e-31 -2.79825e-19 0)
(0 -3.16295e-19 0)
(-3.69667e-31 -3.23025e-19 0)
(0 -3.2721e-19 0)
(-3.69549e-31 -3.28541e-19 0)
(0 -3.29338e-19 0)
(-3.69431e-31 -3.31502e-19 0)
(0 -3.33827e-19 0)
(0 -3.37274e-19 0)
(0 -3.40818e-19 0)
(0 -3.43456e-19 0)
(-3.69127e-31 -3.45687e-19 0)
(0 -3.49444e-19 0)
(0 -3.51819e-19 0)
(0 -3.54354e-19 0)
(-3.68875e-31 -3.58392e-19 0)
(0 -3.6112e-19 0)
(0 -3.64416e-19 0)
(0 -3.67816e-19 0)
(-3.68614e-31 -3.70439e-19 0)
(0 -3.74364e-19 0)
(0 -3.78483e-19 0)
(0 -3.8122e-19 0)
(0 -3.84531e-19 0)
(0 -3.89515e-19 0)
(0 -3.91794e-19 0)
(0 -3.96404e-19 0)
(0 -4.01116e-19 0)
(0 -4.03819e-19 0)
(3.67916e-31 -4.0804e-19 0)
(0 -4.12041e-19 0)
(0 -4.18358e-19 0)
(0 -4.19937e-19 0)
(0 -4.24873e-19 0)
(0 -4.31848e-19 0)
(0 -4.32729e-19 0)
(7.34772e-31 -4.39003e-19 0)
(0 -4.44729e-19 0)
(0 -4.48081e-19 0)
(0 -4.54915e-19 0)
(0 -4.57343e-19 0)
(0 -4.61582e-19 0)
(0 -4.71251e-19 0)
(0 -4.74205e-19 0)
(3.66729e-31 -4.78156e-19 0)
(0 -4.85319e-19 0)
(0 -4.91018e-19 0)
(0 -4.95431e-19 0)
(0 -5.02542e-19 0)
(0 -5.08253e-19 0)
(0 -5.13557e-19 0)
(0 -5.21465e-19 0)
(0 -5.24231e-19 0)
(0 -5.3326e-19 0)
(0 -5.40289e-19 0)
(0 -5.46058e-19 0)
(0 -5.54302e-19 0)
(0 -5.60223e-19 0)
(0 -5.67118e-19 0)
(0 -5.74654e-19 0)
(0 -5.8339e-19 0)
(0 -5.904e-19 0)
(0 -5.95841e-19 0)
(0 -6.05533e-19 0)
(0 -6.17305e-19 0)
(0 -6.22034e-19 0)
(0 -6.30548e-19 0)
(0 -6.41731e-19 0)
(0 -6.51222e-19 0)
(0 -6.60049e-19 0)
(0 -6.67831e-19 0)
(0 -6.78779e-19 0)
(0 -6.89591e-19 0)
(0 -6.99188e-19 0)
(0 -7.09783e-19 0)
(0 -7.21974e-19 0)
(0 -7.33528e-19 0)
(0 -7.45445e-19 0)
(0 -7.57706e-19 0)
(0 -7.70373e-19 0)
(0 -7.83132e-19 0)
(0 -7.95817e-19 0)
(0 -8.09507e-19 0)
(0 -8.23732e-19 0)
(0 -8.38227e-19 0)
(0 -8.53589e-19 0)
(0 -8.69688e-19 0)
(0 -8.86123e-19 0)
(0 -9.03082e-19 0)
(0 -9.20576e-19 0)
(0 -9.38561e-19 0)
(0 -9.5712e-19 0)
(0 -9.76399e-19 0)
(0 -9.96436e-19 0)
(0 -1.01726e-18 0)
(0 -1.03898e-18 0)
(0 -1.06159e-18 0)
(0 -1.08508e-18 0)
(0 -1.10952e-18 0)
(0 -1.13495e-18 0)
(0 -1.16143e-18 0)
(0 -1.18902e-18 0)
(0 -1.21778e-18 0)
(0 -1.24778e-18 0)
(0 -1.27906e-18 0)
(0 -1.31169e-18 0)
(0 -1.34572e-18 0)
(0 -1.38122e-18 0)
(0 -1.41825e-18 0)
(0 -1.4569e-18 0)
(0 -1.49726e-18 0)
(0 -1.53946e-18 0)
(0 -1.58364e-18 0)
(0 -1.62998e-18 0)
(0 -1.67867e-18 0)
(0 -1.72992e-18 0)
(0 -1.78393e-18 0)
(0 -1.84103e-18 0)
(0 -1.90174e-18 0)
(0 -1.96699e-18 0)
(0 -2.03799e-18 0)
(0 -2.11589e-18 0)
(0 -2.20084e-18 0)
(0 -2.29131e-18 0)
(0 -2.38567e-18 0)
(0 -2.48719e-18 0)
(0 -2.60704e-18 0)
(0 -2.75261e-18 0)
(0 -2.90859e-18 0)
(0 -3.63808e-18 0)
(0 -4.35905e-18 0)
(0 -1.13167e-17 0)
(0 -1.31236e-16 0)
(0 -2.04437e-15 0)
(0 -3.29539e-14 0)
(0 -6.3336e-13 0)
(0 -1.59715e-11 0)
(0 -4.65776e-10 0)
(0 -2.00507e-08 0)
(0 -9.93556e-07 0)
(0 -5.14997e-05 0)
(0 -0.074452 0)
(0 -1.69212 0)
(0 -2.49431 0)
(0 -1.2473 0)
(0 -0.886251 0)
(0 -0.71996 0)
(0 -0.593989 0)
(0 -0.480161 0)
(0 -0.37697 0)
(0 -0.287537 0)
(0 -0.213512 0)
(0 -0.154973 0)
(0 -0.11064 0)
(0 -0.0782734 0)
(0 -0.0551004 0)
(0 -0.0386078 0)
(0 -0.027095 0)
(0 -0.019397 0)
(0 -0.0144266 0)
(0 -0.0112018 0)
(0 -0.00902589 0)
(0 -0.00748376 0)
(0 -0.00634147 0)
(0 -0.00546433 0)
(0 -0.00477112 0)
(0 -0.00421055 0)
(0 -0.00374871 0)
(0 -0.00336235 0)
(0 -0.00303491 0)
(0 -0.00275434 0)
(0 -0.00251157 0)
(0 -0.00229969 0)
(0 -0.00211336 0)
(0 -0.00194833 0)
(0 -0.00180126 0)
(0 -0.00166943 0)
(0 -0.00155067 0)
(0 -0.00144319 0)
(0 -0.00134551 0)
(0 -0.0012564 0)
(0 -0.00117484 0)
(0 -0.00109994 0)
(0 -0.00103096 0)
(0 -0.000967303 0)
(0 -0.00090845 0)
(0 -0.000853994 0)
(0 -0.000803583 0)
(0 -0.000756915 0)
(0 -0.000713724 0)
(0 -0.000673772 0)
(0 -0.000636798 0)
(0 -0.000602459 0)
(0 -0.000570325 0)
(0 -0.000539976 0)
(0 -0.000510832 0)
(-3.28315e-19 -0.000482505 0)
(0 -0.000454825 0)
(0 -0.000427474 0)
(1.53999e-19 -0.000400151 0)
(0 -0.000372684 0)
(-1.46729e-19 -0.000345044 0)
(0 -0.000317312 0)
(1.39087e-19 -0.000289614 0)
(0 -0.000262119 0)
(0 -0.000234972 0)
(0 -0.000208411 0)
(6.14005e-20 -0.000183095 0)
(0 -0.000159495 0)
(0 -0.000137516 0)
(0 -0.000117299 0)
(0 -9.93005e-05 0)
(0 -8.35109e-05 0)
(-2.40582e-20 -6.96474e-05 0)
(0 -5.74937e-05 0)
(0 -4.70423e-05 0)
(0 -3.8294e-05 0)
(-9.63188e-21 -3.0858e-05 0)
(0 -2.45271e-05 0)
(0 -1.93048e-05 0)
(0 -1.50358e-05 0)
(0 -1.22789e-05 0)
(3.79559e-21 -1.05866e-05 0)
(3.86252e-21 -9.02431e-06 0)
(0 -7.6333e-06 0)
(0 -6.26663e-06 0)
(0 -4.99917e-06 0)
(0 -4.08128e-06 0)
(0 -4.24346e-06 0)
(0 -3.83461e-06 0)
(0 -2.23642e-06 0)
(0 -1.20502e-06 0)
(0 -9.6471e-07 0)
(0 -6.99406e-07 0)
(0 -5.05221e-07 0)
(0 -3.51316e-07 0)
(0 -2.42792e-07 0)
(-1.15158e-33 -1.13152e-07 0)
(1.76829e-44 -6.16537e-18 0)
(0 -1.0024e-28 0)
(0 -2.28729e-39 0)
(-2.01885e-55 -5.16992e-40 0)
(0 -4.9576e-40 0)
(0 -4.5771e-40 0)
(-3.76123e-56 -2.56123e-40 0)
(0 -8.71717e-41 0)
(0 -3.31752e-41 0)
(0 -1.46047e-41 0)
(0 -7.70939e-42 0)
(0 -5.35325e-42 0)
(0 -3.16363e-42 0)
(0 -1.18474e-42 0)
(0 -4.21662e-43 0)
(0 -1.65234e-43 0)
(0 -6.78352e-44 0)
(0 -2.38009e-44 0)
(0 -4.18441e-45 0)
(0 -2.07221e-46 0)
(0 -2.90256e-48 0)
(0 -3.04047e-50 0)
(4.26008e-68 -2.99932e-52 0)
(0 -2.78949e-54 0)
(0 -2.43628e-56 0)
(0 -1.98912e-58 0)
(0 -1.41925e-60 0)
(0 -3.92685e-63 0)
(0 -4.86664e-64 0)
(0 -2.09475e-64 0)
(0 -8.82984e-65 0)
(0 -3.64226e-65 0)
(0 -1.46908e-65 0)
(0 -5.7892e-66 0)
(0 -2.22694e-66 0)
(0 -8.35424e-67 0)
(0 -3.0534e-67 0)
(0 -1.08612e-67 0)
(0 -3.75571e-68 0)
(0 -1.26096e-68 0)
(0 -4.10519e-69 0)
(0 -1.29413e-69 0)
(0 -3.94428e-70 0)
(0 -1.16035e-70 0)
(0 -3.28892e-71 0)
(0 -8.96421e-72 0)
(0 -2.34436e-72 0)
(0 -5.86896e-73 0)
(0 -1.40274e-73 0)
(0 -3.19156e-74 0)
(0 -6.88994e-75 0)
(0 -1.40607e-75 0)
(2.82649e-92 -2.7012e-76 0)
(0 -4.86152e-77 0)
(0 -8.15147e-78 0)
(-1.03951e-94 -1.26507e-78 0)
(0 -1.80318e-79 0)
(0 -2.33859e-80 0)
(0 -2.72809e-81 0)
(0 -2.82127e-82 0)
(0 -2.53809e-83 0)
(0 -1.93607e-84 0)
(0 -1.2071e-85 0)
(0 -5.80976e-87 0)
(0 -1.9502e-88 0)
(0 -3.61489e-90 0)
(0 -9.98701e-93 0)
(0 -1.36965e-97 0)
(0 -1.14652e-99 0)
(0 -4.75814e-102 0)
(0 -1.6739e-112 0)
(0 -2.94419e-123 0)
(0 -3.75551e-134 0)
(0 -3.44648e-145 0)
(0 -2.70989e-156 0)
(0 -1.61737e-167 0)
(0 -8.33036e-179 0)
(0 -5.64207e-189 0)
(0 -2.44609e-199 0)
(0 -1.83652e-207 0)
(0 -7.23662e-218 0)
(0 -6.31686e-226 0)
(0 -2.92448e-236 0)
(0 -2.17365e-244 0)
(0 -1.23516e-254 0)
(0 -7.4857e-263 0)
(0 -7.86902e-273 0)
(0 -2.62292e-281 0)
(0 -5.19221e-291 0)
(0 -9.42112e-300 0)
(0 -2.56849e-309 0)
(0 -3.46012e-318 0)
(0 -0 0)
(0 -0 0)
(0 0 0)
(0 0 0)
(0 0 0)
(0 0 0)
(0 0 0)
(0 0 0)
(0 0 0)
(0 0 0)
(0 0 0)
(0 0 0)
(0 0 0)
(0 0 0)
(0 0 0)
(0 0 0)
(0 0 0)
(0 0 0)
(0 0 0)
(0 0 0)
(0 0 0)
(0 0 0)
(0 0 0)
(0 0 0)
)
;

boundaryField
{
    inandouthalf11
    {
        type            cyclic;
    }
    inandouthalf12
    {
        type            cyclic;
    }
    inandouthalf21
    {
        type            cyclic;
    }
    inandouthalf22
    {
        type            cyclic;
    }
    inandouthalf31
    {
        type            cyclic;
    }
    inandouthalf32
    {
        type            cyclic;
    }
    inandouthalf41
    {
        type            cyclic;
    }
    inandouthalf42
    {
        type            cyclic;
    }
    top
    {
        type            symmetryPlane;
    }
    walls
    {
        type            zeroGradient;
    }
    frontAndBackPlanes
    {
        type            empty;
    }
}


// ************************************************************************* //
