/*--------------------------------*- C++ -*----------------------------------*\
| =========                 |                                                 |
| \\      /  F ield         | OpenFOAM: The Open Source CFD Toolbox           |
|  \\    /   O peration     | Version:  2.4.x                                 |
|   \\  /    A nd           | Web:      www.OpenFOAM.org                      |
|    \\/     M anipulation  |                                                 |
\*---------------------------------------------------------------------------*/
FoamFile
{
    version     2.0;
    format      ascii;
    class       volTensorField;
    location    "8";
    object      Tauf;
}
// * * * * * * * * * * * * * * * * * * * * * * * * * * * * * * * * * * * * * //

dimensions      [0 2 -2 0 0 0 0];

internalField   nonuniform List<tensor> 
360
(
(0 5.4579e-07 0 5.4579e-07 2.99341e-10 0 0 0 0)
(0 -1.63824e-09 0 -1.63824e-09 3.66859e-10 0 0 0 0)
(0 1.32104e-11 0 1.32104e-11 3.84013e-10 0 0 0 0)
(0 3.34816e-10 0 3.34816e-10 3.70358e-10 0 0 0 0)
(-5.16988e-23 1.7232e-10 0 1.7232e-10 3.74336e-10 0 0 0 0)
(-5.16988e-23 1.11233e-10 0 1.11233e-10 3.82171e-10 0 0 0 0)
(-5.16988e-23 1.27037e-10 0 1.27037e-10 3.85357e-10 0 0 0 0)
(0 1.38823e-10 0 1.38823e-10 3.85235e-10 0 0 0 0)
(-1.03398e-22 1.40831e-10 0 1.40831e-10 3.84215e-10 0 0 0 0)
(0 1.42001e-10 0 1.42001e-10 3.83162e-10 0 0 0 0)
(-5.16988e-23 1.42227e-10 0 1.42227e-10 3.82025e-10 0 0 0 0)
(0 1.42255e-10 0 1.42255e-10 3.80605e-10 0 0 0 0)
(-5.16988e-23 1.42704e-10 0 1.42704e-10 3.78866e-10 0 0 0 0)
(0 1.43189e-10 0 1.43189e-10 3.76875e-10 0 0 0 0)
(0 1.44034e-10 0 1.44034e-10 3.74754e-10 0 0 0 0)
(0 1.44914e-10 0 1.44914e-10 3.72605e-10 0 0 0 0)
(0 1.45501e-10 0 1.45501e-10 3.70464e-10 0 0 0 0)
(-5.16988e-23 1.45959e-10 0 1.45959e-10 3.68326e-10 0 0 0 0)
(0 1.46925e-10 0 1.46925e-10 3.66222e-10 0 0 0 0)
(0 1.47445e-10 0 1.47445e-10 3.64156e-10 0 0 0 0)
(0 1.48025e-10 0 1.48025e-10 3.62133e-10 0 0 0 0)
(-5.16988e-23 1.49111e-10 0 1.49111e-10 3.60199e-10 0 0 0 0)
(0 1.49779e-10 0 1.49779e-10 3.58364e-10 0 0 0 0)
(0 1.50646e-10 0 1.50646e-10 3.56629e-10 0 0 0 0)
(0 1.5156e-10 0 1.5156e-10 3.55001e-10 0 0 0 0)
(-5.16988e-23 1.5223e-10 0 1.5223e-10 3.53469e-10 0 0 0 0)
(0 1.53343e-10 0 1.53343e-10 3.52054e-10 0 0 0 0)
(0 1.54534e-10 0 1.54534e-10 3.50776e-10 0 0 0 0)
(0 1.55283e-10 0 1.55283e-10 3.49609e-10 0 0 0 0)
(0 1.56232e-10 0 1.56232e-10 3.48535e-10 0 0 0 0)
(0 1.57746e-10 0 1.57746e-10 3.47588e-10 0 0 0 0)
(0 1.58379e-10 0 1.58379e-10 3.46729e-10 0 0 0 0)
(0 1.59792e-10 0 1.59792e-10 3.45975e-10 0 0 0 0)
(0 1.61252e-10 0 1.61252e-10 3.45337e-10 0 0 0 0)
(0 1.62056e-10 0 1.62056e-10 3.44764e-10 0 0 0 0)
(5.16988e-23 1.63369e-10 0 1.63369e-10 3.44256e-10 0 0 0 0)
(0 1.64619e-10 0 1.64619e-10 3.4381e-10 0 0 0 0)
(0 1.66644e-10 0 1.66644e-10 3.43481e-10 0 0 0 0)
(0 1.67109e-10 0 1.67109e-10 3.43174e-10 0 0 0 0)
(0 1.68689e-10 0 1.68689e-10 3.42896e-10 0 0 0 0)
(0 1.70952e-10 0 1.70952e-10 3.42707e-10 0 0 0 0)
(0 1.712e-10 0 1.712e-10 3.42489e-10 0 0 0 0)
(5.16988e-23 1.73237e-10 0 1.73237e-10 3.42301e-10 0 0 0 0)
(0 1.751e-10 0 1.751e-10 3.42164e-10 0 0 0 0)
(0 1.7618e-10 0 1.7618e-10 3.42018e-10 0 0 0 0)
(0 1.78415e-10 0 1.78415e-10 3.41897e-10 0 0 0 0)
(0 1.79186e-10 0 1.79186e-10 3.41703e-10 0 0 0 0)
(0 1.80558e-10 0 1.80558e-10 3.4144e-10 0 0 0 0)
(0 1.83741e-10 0 1.83741e-10 3.41261e-10 0 0 0 0)
(0 1.84695e-10 0 1.84695e-10 3.41062e-10 0 0 0 0)
(5.16988e-23 1.85977e-10 0 1.85977e-10 3.408e-10 0 0 0 0)
(0 1.88328e-10 0 1.88328e-10 3.40504e-10 0 0 0 0)
(0 1.90192e-10 0 1.90192e-10 3.40171e-10 0 0 0 0)
(0 1.91626e-10 0 1.91626e-10 3.39762e-10 0 0 0 0)
(0 1.93958e-10 0 1.93958e-10 3.39314e-10 0 0 0 0)
(0 1.95822e-10 0 1.95822e-10 3.38795e-10 0 0 0 0)
(0 1.97546e-10 0 1.97546e-10 3.38167e-10 0 0 0 0)
(0 2.00135e-10 0 2.00135e-10 3.37481e-10 0 0 0 0)
(0 2.01001e-10 0 2.01001e-10 3.36613e-10 0 0 0 0)
(0 2.03957e-10 0 2.03957e-10 3.35713e-10 0 0 0 0)
(0 2.0625e-10 0 2.0625e-10 3.34779e-10 0 0 0 0)
(0 2.08122e-10 0 2.08122e-10 3.33793e-10 0 0 0 0)
(0 2.10822e-10 0 2.10822e-10 3.32774e-10 0 0 0 0)
(0 2.12741e-10 0 2.12741e-10 3.31636e-10 0 0 0 0)
(0 2.14981e-10 0 2.14981e-10 3.30371e-10 0 0 0 0)
(0 2.17431e-10 0 2.17431e-10 3.2897e-10 0 0 0 0)
(0 2.20282e-10 0 2.20282e-10 3.27463e-10 0 0 0 0)
(0 2.22548e-10 0 2.22548e-10 3.25818e-10 0 0 0 0)
(0 2.2428e-10 0 2.2428e-10 3.23984e-10 0 0 0 0)
(0 2.27441e-10 0 2.27441e-10 3.22062e-10 0 0 0 0)
(0 2.31309e-10 0 2.31309e-10 3.20176e-10 0 0 0 0)
(0 2.32808e-10 0 2.32808e-10 3.18175e-10 0 0 0 0)
(0 2.35581e-10 0 2.35581e-10 3.16104e-10 0 0 0 0)
(0 2.39259e-10 0 2.39259e-10 3.13997e-10 0 0 0 0)
(0 2.42372e-10 0 2.42372e-10 3.11834e-10 0 0 0 0)
(0 2.45259e-10 0 2.45259e-10 3.0957e-10 0 0 0 0)
(0 2.47788e-10 0 2.47788e-10 3.07104e-10 0 0 0 0)
(0 2.51383e-10 0 2.51383e-10 3.04485e-10 0 0 0 0)
(0 2.54933e-10 0 2.54933e-10 3.01735e-10 0 0 0 0)
(0 2.58074e-10 0 2.58074e-10 2.98863e-10 0 0 0 0)
(0 2.61556e-10 0 2.61556e-10 2.95904e-10 0 0 0 0)
(0 2.65588e-10 0 2.65588e-10 2.92922e-10 0 0 0 0)
(0 2.69414e-10 0 2.69414e-10 2.89925e-10 0 0 0 0)
(0 2.73375e-10 0 2.73375e-10 2.86925e-10 0 0 0 0)
(0 2.77462e-10 0 2.77462e-10 2.83898e-10 0 0 0 0)
(0 2.81695e-10 0 2.81695e-10 2.80813e-10 0 0 0 0)
(0 2.85965e-10 0 2.85965e-10 2.77634e-10 0 0 0 0)
(0 2.90214e-10 0 2.90214e-10 2.74319e-10 0 0 0 0)
(0 2.9481e-10 0 2.9481e-10 2.7087e-10 0 0 0 0)
(0 2.99595e-10 0 2.99595e-10 2.67302e-10 0 0 0 0)
(0 3.04482e-10 0 3.04482e-10 2.63638e-10 0 0 0 0)
(0 3.09678e-10 0 3.09678e-10 2.59923e-10 0 0 0 0)
(0 3.15143e-10 0 3.15143e-10 2.56192e-10 0 0 0 0)
(0 3.20741e-10 0 3.20741e-10 2.52466e-10 0 0 0 0)
(0 3.26537e-10 0 3.26537e-10 2.4875e-10 0 0 0 0)
(0 3.32536e-10 0 3.32536e-10 2.45037e-10 0 0 0 0)
(0 3.38723e-10 0 3.38723e-10 2.41309e-10 0 0 0 0)
(0 3.45126e-10 0 3.45126e-10 2.37547e-10 0 0 0 0)
(0 3.51796e-10 0 3.51796e-10 2.33739e-10 0 0 0 0)
(0 3.58746e-10 0 3.58746e-10 2.29879e-10 0 0 0 0)
(0 3.65991e-10 0 3.65991e-10 2.25967e-10 0 0 0 0)
(0 3.73565e-10 0 3.73565e-10 2.22009e-10 0 0 0 0)
(0 3.81475e-10 0 3.81475e-10 2.18016e-10 0 0 0 0)
(0 3.89719e-10 0 3.89719e-10 2.13999e-10 0 0 0 0)
(0 3.98319e-10 0 3.98319e-10 2.0997e-10 0 0 0 0)
(0 4.07297e-10 0 4.07297e-10 2.05943e-10 0 0 0 0)
(0 4.16673e-10 0 4.16673e-10 2.01937e-10 0 0 0 0)
(0 4.26476e-10 0 4.26476e-10 1.97977e-10 0 0 0 0)
(0 4.3673e-10 0 4.3673e-10 1.94092e-10 0 0 0 0)
(0 4.47461e-10 0 4.47461e-10 1.90317e-10 0 0 0 0)
(0 4.58693e-10 0 4.58693e-10 1.86693e-10 0 0 0 0)
(0 4.70451e-10 0 4.70451e-10 1.83266e-10 0 0 0 0)
(0 4.8276e-10 0 4.8276e-10 1.80082e-10 0 0 0 0)
(0 4.95649e-10 0 4.95649e-10 1.77189e-10 0 0 0 0)
(0 5.09148e-10 0 5.09148e-10 1.74632e-10 0 0 0 0)
(0 5.23289e-10 0 5.23289e-10 1.72449e-10 0 0 0 0)
(0 5.38111e-10 0 5.38111e-10 1.7067e-10 0 0 0 0)
(0 5.53663e-10 0 5.53663e-10 1.69308e-10 0 0 0 0)
(0 5.69998e-10 0 5.69998e-10 1.68356e-10 0 0 0 0)
(0 5.8718e-10 0 5.8718e-10 1.67778e-10 0 0 0 0)
(0 6.05278e-10 0 6.05278e-10 1.675e-10 0 0 0 0)
(0 6.24363e-10 0 6.24363e-10 1.67407e-10 0 0 0 0)
(0 6.44514e-10 0 6.44514e-10 1.67341e-10 0 0 0 0)
(0 6.65843e-10 0 6.65843e-10 1.67103e-10 0 0 0 0)
(0 6.88542e-10 0 6.88542e-10 1.66472e-10 0 0 0 0)
(0 7.12944e-10 0 7.12944e-10 1.65222e-10 0 0 0 0)
(0 7.39505e-10 0 7.39505e-10 1.63142e-10 0 0 0 0)
(0 7.68658e-10 0 7.68658e-10 1.60035e-10 0 0 0 0)
(0 8.00484e-10 0 8.00484e-10 1.55711e-10 0 0 0 0)
(0 8.34469e-10 0 8.34469e-10 1.49974e-10 0 0 0 0)
(0 8.7006e-10 0 8.7006e-10 1.42678e-10 0 0 0 0)
(0 9.08493e-10 0 9.08493e-10 1.33866e-10 0 0 0 0)
(0 9.53912e-10 0 9.53912e-10 1.23963e-10 0 0 0 0)
(0 1.00914e-09 0 1.00914e-09 1.13709e-10 0 0 0 0)
(0 1.06868e-09 0 1.06868e-09 1.03674e-10 0 0 0 0)
(0 1.12454e-09 0 1.12454e-09 9.39256e-11 0 0 0 0)
(0 1.1861e-09 0 1.1861e-09 8.44029e-11 0 0 0 0)
(0 1.28736e-09 0 1.28736e-09 7.54806e-11 0 0 0 0)
(0 1.45295e-09 0 1.45295e-09 6.78454e-11 0 0 0 0)
(0 1.61792e-09 0 1.61792e-09 5.90422e-11 0 0 0 0)
(0 1.6551e-09 0 1.6551e-09 3.64201e-11 0 0 0 0)
(0 1.79449e-09 0 1.79449e-09 5.82795e-13 0 0 0 0)
(0 2.25287e-09 0 2.25287e-09 -3.81987e-11 0 0 0 0)
(0 2.86686e-09 0 2.86686e-09 -2.42928e-10 0 0 0 0)
(0 4.69005e-09 0 4.69005e-09 3.4983e-09 0 0 0 0)
(0 7.73736e-09 0 7.73736e-09 -2.16268e-08 0 0 0 0)
(0 1.06114e-07 0 1.06114e-07 7.25233e-08 0 0 0 0)
(0 4.61459e-05 0 4.61459e-05 -3.79717e-07 0 0 0 0)
(0 0.000497489 0 0.000497489 -8.74755e-06 0 0 0 0)
(0 0.00259396 0 0.00259396 -1.71402e-05 0 0 0 0)
(0 0.00358047 0 0.00358047 1.86265e-05 0 0 0 0)
(0 0.00365516 0 0.00365516 8.34524e-06 0 0 0 0)
(0 0.00349942 0 0.00349942 1.46329e-05 0 0 0 0)
(0 0.00322636 0 0.00322636 1.58322e-05 0 0 0 0)
(0 0.00290384 0 0.00290384 1.54696e-05 0 0 0 0)
(0 0.00256758 0 0.00256758 1.41198e-05 0 0 0 0)
(0 0.00223667 0 0.00223667 1.21034e-05 0 0 0 0)
(0 0.0019217 0 0.0019217 9.79258e-06 0 0 0 0)
(0 0.00162955 0 0.00162955 7.54273e-06 0 0 0 0)
(0 0.00136579 0 0.00136579 5.59388e-06 0 0 0 0)
(0 0.00113468 0 0.00113468 4.03985e-06 0 0 0 0)
(0 0.000937563 0 0.000937563 2.8594e-06 0 0 0 0)
(0 0.000771874 0 0.000771874 1.9856e-06 0 0 0 0)
(0 0.000632563 0 0.000632563 1.35956e-06 0 0 0 0)
(0 0.000514188 0 0.000514188 9.34557e-07 0 0 0 0)
(0 0.000412036 0 0.000412036 6.5999e-07 0 0 0 0)
(0 0.000322336 0 0.000322336 4.83808e-07 0 0 0 0)
(0 0.00024219 0 0.00024219 3.66104e-07 0 0 0 0)
(0 0.000169442 0 0.000169442 2.83091e-07 0 0 0 0)
(0 0.000102524 0 0.000102524 2.22036e-07 0 0 0 0)
(0 4.03082e-05 0 4.03082e-05 1.75858e-07 0 0 0 0)
(0 -1.80142e-05 0 -1.80142e-05 1.40224e-07 0 0 0 0)
(0 -7.30303e-05 0 -7.30303e-05 1.12292e-07 0 0 0 0)
(0 -0.000125166 0 -0.000125166 9.01306e-08 0 0 0 0)
(0 -0.000174739 0 -0.000174739 7.23902e-08 0 0 0 0)
(0 -0.000221986 0 -0.000221986 5.80936e-08 0 0 0 0)
(0 -0.00026709 0 -0.00026709 4.65163e-08 0 0 0 0)
(0 -0.000310194 0 -0.000310194 3.71096e-08 0 0 0 0)
(0 -0.000351411 0 -0.000351411 2.945e-08 0 0 0 0)
(0 -0.000390834 0 -0.000390834 2.32062e-08 0 0 0 0)
(0 -0.000428539 0 -0.000428539 1.81159e-08 0 0 0 0)
(0 -0.000464591 0 -0.000464591 1.39694e-08 0 0 0 0)
(0 -0.000499046 0 -0.000499046 1.05978e-08 0 0 0 0)
(0 -0.000531954 0 -0.000531954 7.86397e-09 0 0 0 0)
(0 -0.000563359 0 -0.000563359 5.65615e-09 0 0 0 0)
(0 -0.000593299 0 -0.000593299 3.8828e-09 0 0 0 0)
(0 -0.000621813 0 -0.000621813 2.46867e-09 0 0 0 0)
(0 -0.000648935 0 -0.000648935 1.35171e-09 0 0 0 0)
(0 -0.000674695 0 -0.000674695 4.80543e-10 0 0 0 0)
(0 -0.000699126 0 -0.000699126 -1.87473e-10 0 0 0 0)
(0 -0.000722256 0 -0.000722256 -6.8767e-10 0 0 0 0)
(0 -0.000744113 0 -0.000744113 -1.04928e-09 0 0 0 0)
(0 -0.000764724 0 -0.000764724 -1.29644e-09 0 0 0 0)
(0 -0.000784115 0 -0.000784115 -1.44899e-09 0 0 0 0)
(0 -0.000802314 0 -0.000802314 -1.52322e-09 0 0 0 0)
(0 -0.000819344 0 -0.000819344 -1.53245e-09 0 0 0 0)
(0 -0.000835231 0 -0.000835231 -1.48762e-09 0 0 0 0)
(0 -0.000850001 0 -0.000850001 -1.39785e-09 0 0 0 0)
(0 -0.000863684 0 -0.000863684 -1.27114e-09 0 0 0 0)
(0 -0.000876317 0 -0.000876317 -1.1151e-09 0 0 0 0)
(0 -0.000887962 0 -0.000887962 -9.37177e-10 0 0 0 0)
(0 -0.000898821 0 -0.000898821 -7.41744e-10 0 0 0 0)
(-2.674e-17 -0.000909057 0 -0.000909057 -5.32373e-10 0 0 0 0)
(0 -0.000918668 0 -0.000918668 -3.15355e-10 0 0 0 0)
(0 -0.000927625 0 -0.000927625 -9.787e-11 0 0 0 0)
(2.55431e-17 -0.000935889 0 -0.000935889 1.12294e-10 0 0 0 0)
(0 -0.000943414 0 -0.000943414 3.07514e-10 0 0 0 0)
(-2.47219e-17 -0.000950155 0 -0.000950155 4.81114e-10 0 0 0 0)
(0 -0.000956065 0 -0.000956065 6.2783e-10 0 0 0 0)
(4.77657e-17 -0.000961098 0 -0.000961098 7.4393e-10 0 0 0 0)
(0 -0.000965207 0 -0.000965207 8.27142e-10 0 0 0 0)
(0 -0.000968344 0 -0.000968344 8.76743e-10 0 0 0 0)
(0 -0.000970463 0 -0.000970463 8.94353e-10 0 0 0 0)
(4.43055e-17 -0.000971518 0 -0.000971518 8.84455e-10 0 0 0 0)
(0 -0.000971464 0 -0.000971464 8.52513e-10 0 0 0 0)
(0 -0.000970254 0 -0.000970254 8.0303e-10 0 0 0 0)
(0 -0.000967846 0 -0.000967846 7.40862e-10 0 0 0 0)
(0 -0.000964197 0 -0.000964197 6.71985e-10 0 0 0 0)
(0 -0.000959266 0 -0.000959266 6.01078e-10 0 0 0 0)
(-3.88622e-17 -0.000953012 0 -0.000953012 5.30397e-10 0 0 0 0)
(0 -0.000945399 0 -0.000945399 4.61518e-10 0 0 0 0)
(0 -0.000936389 0 -0.000936389 3.96599e-10 0 0 0 0)
(0 -0.00092595 0 -0.00092595 3.37317e-10 0 0 0 0)
(-3.50697e-17 -0.000914052 0 -0.000914052 2.83705e-10 0 0 0 0)
(0 -0.000900666 0 -0.000900666 2.35492e-10 0 0 0 0)
(0 -0.000885768 0 -0.000885768 1.93051e-10 0 0 0 0)
(0 -0.000869338 0 -0.000869338 1.5645e-10 0 0 0 0)
(0 -0.000851359 0 -0.000851359 1.25564e-10 0 0 0 0)
(3.01565e-17 -0.000831821 0 -0.000831821 1.00379e-10 0 0 0 0)
(2.91528e-17 -0.000810718 0 -0.000810718 8.03222e-11 0 0 0 0)
(0 -0.000788051 0 -0.000788051 6.40631e-11 0 0 0 0)
(0 -0.000763827 0 -0.000763827 5.0073e-11 0 0 0 0)
(0 -0.000738061 0 -0.000738061 3.8394e-11 0 0 0 0)
(0 -0.000710779 0 -0.000710779 3.16201e-11 0 0 0 0)
(0 -0.000682014 0 -0.000682014 3.06604e-11 0 0 0 0)
(0 -0.000651813 0 -0.000651813 3.04764e-11 0 0 0 0)
(0 -0.000620235 0 -0.000620235 2.29293e-11 0 0 0 0)
(0 -0.000587352 0 -0.000587352 1.26339e-11 0 0 0 0)
(0 -0.000553255 0 -0.000553255 8.34782e-12 0 0 0 0)
(0 -0.000518054 0 -0.000518054 6.73139e-12 0 0 0 0)
(0 -0.00048188 0 -0.00048188 4.98423e-12 0 0 0 0)
(0 -0.000444887 0 -0.000444887 6.24537e-12 0 0 0 0)
(0 -0.000407258 0 -0.000407258 5.96914e-12 0 0 0 0)
(-1.47423e-17 -0.000369207 0 -0.000369207 -4.01792e-13 0 0 0 0)
(2.74638e-17 -0.00033098 0 -0.00033098 -2.26343e-12 0 0 0 0)
(0 -0.000292865 0 -0.000292865 5.97621e-14 0 0 0 0)
(0 -0.000255188 0 -0.000255188 1.44256e-13 0 0 0 0)
(-2.15805e-17 -0.000218321 0 -0.000218321 8.81328e-15 0 0 0 0)
(0 -0.000182676 0 -0.000182676 -2.2943e-14 0 0 0 0)
(0 -0.000148709 0 -0.000148709 -1.67395e-14 0 0 0 0)
(-8.05968e-18 -0.000116905 0 -0.000116905 -1.50718e-14 0 0 0 0)
(0 -8.77643e-05 0 -8.77643e-05 -1.42049e-14 0 0 0 0)
(0 -6.17745e-05 0 -6.17745e-05 1.73726e-14 0 0 0 0)
(0 -3.93711e-05 0 -3.93711e-05 1.30138e-13 0 0 0 0)
(0 -2.08912e-05 0 -2.08912e-05 -6.8119e-13 0 0 0 0)
(0 -6.52685e-06 0 -6.52685e-06 1.39817e-12 0 0 0 0)
(0 3.70982e-06 0 3.70982e-06 -2.09399e-12 0 0 0 0)
(0 1.00007e-05 0 1.00007e-05 2.56485e-12 0 0 0 0)
(0 1.27169e-05 0 1.27169e-05 -2.76592e-12 0 0 0 0)
(0 1.24072e-05 0 1.24072e-05 2.62555e-12 0 0 0 0)
(0 9.78981e-06 0 9.78981e-06 -2.18764e-12 0 0 0 0)
(0 5.76639e-06 0 5.76639e-06 1.49242e-12 0 0 0 0)
(0 1.54548e-06 0 1.54548e-06 -6.48904e-13 0 0 0 0)
(0 1.29644e-07 0 1.29644e-07 1.7679e-13 0 0 0 0)
(0 7.86611e-09 0 7.86611e-09 -1.2307e-13 0 0 0 0)
(0 2.25043e-10 0 2.25043e-10 1.197e-13 0 0 0 0)
(1.12436e-19 1.57612e-11 0 1.57612e-11 -1.17903e-13 0 0 0 0)
(0 8.42548e-12 0 8.42548e-12 1.15984e-13 0 0 0 0)
(0 6.11197e-12 0 6.11197e-12 -1.14338e-13 0 0 0 0)
(0 4.45117e-12 0 4.45117e-12 1.12588e-13 0 0 0 0)
(0 3.22175e-12 0 3.22175e-12 -1.11064e-13 0 0 0 0)
(0 2.31659e-12 0 2.31659e-12 1.09441e-13 0 0 0 0)
(0 1.65456e-12 0 1.65456e-12 -1.08003e-13 0 0 0 0)
(0 1.1738e-12 0 1.1738e-12 1.06479e-13 0 0 0 0)
(0 8.27147e-13 0 8.27147e-13 -1.05097e-13 0 0 0 0)
(0 5.78526e-13 0 5.78526e-13 1.03625e-13 0 0 0 0)
(0 4.01506e-13 0 4.01506e-13 -1.02275e-13 0 0 0 0)
(0 2.76673e-13 0 2.76673e-13 1.00832e-13 0 0 0 0)
(0 1.89447e-13 0 1.89447e-13 -9.94959e-14 0 0 0 0)
(0 1.28752e-13 0 1.28752e-13 9.80581e-14 0 0 0 0)
(0 8.67475e-14 0 8.67475e-14 -9.6716e-14 0 0 0 0)
(0 5.78737e-14 0 5.78737e-14 9.52823e-14 0 0 0 0)
(0 3.83792e-14 0 3.83792e-14 -9.39212e-14 0 0 0 0)
(0 2.51517e-14 0 2.51517e-14 9.24721e-14 0 0 0 0)
(0 1.63551e-14 0 1.63551e-14 -9.10879e-14 0 0 0 0)
(0 1.06785e-14 0 1.06785e-14 8.96172e-14 0 0 0 0)
(7.5226e-20 6.79968e-15 0 6.79968e-15 -8.82069e-14 0 0 0 0)
(0 4.30175e-15 0 4.30175e-15 8.67053e-14 0 0 0 0)
(0 2.67318e-15 0 2.67318e-15 -8.52607e-14 0 0 0 0)
(0 1.61722e-15 0 1.61722e-15 8.37332e-14 0 0 0 0)
(0 1.08151e-15 0 1.08151e-15 -8.22545e-14 0 0 0 0)
(0 6.83959e-16 0 6.83959e-16 8.06966e-14 0 0 0 0)
(0 3.70484e-16 0 3.70484e-16 -7.91824e-14 0 0 0 0)
(0 2.10248e-16 0 2.10248e-16 7.75938e-14 0 0 0 0)
(0 2.19421e-16 0 2.19421e-16 -7.60434e-14 0 0 0 0)
(0 1.94903e-16 0 1.94903e-16 7.44243e-14 0 0 0 0)
(1.23064e-19 -5.58095e-17 0 -5.58095e-17 -7.28336e-14 0 0 0 0)
(0 -1.10002e-16 0 -1.10002e-16 7.11978e-14 0 0 0 0)
(0 4.07846e-18 0 4.07846e-18 -6.95678e-14 0 0 0 0)
(-1.15864e-19 7.68471e-17 0 7.68471e-17 6.78961e-14 0 0 0 0)
(0 1.24348e-16 0 1.24348e-16 -6.6235e-14 0 0 0 0)
(0 5.38416e-17 0 5.38416e-17 6.45369e-14 0 0 0 0)
(0 -9.24233e-17 0 -9.24233e-17 -6.28364e-14 0 0 0 0)
(0 -9.03441e-17 0 -9.03441e-17 6.11057e-14 0 0 0 0)
(0 2.57781e-17 0 2.57781e-17 -5.93697e-14 0 0 0 0)
(0 1.15414e-16 0 1.15414e-16 5.76035e-14 0 0 0 0)
(0 -3.33693e-17 0 -3.33693e-17 -5.58301e-14 0 0 0 0)
(0 -8.66225e-17 0 -8.66225e-17 5.40285e-14 0 0 0 0)
(0 6.3747e-17 0 6.3747e-17 -5.22153e-14 0 0 0 0)
(0 -1.54005e-17 0 -1.54005e-17 5.04119e-14 0 0 0 0)
(0 -9.3703e-17 0 -9.3703e-17 -5.55733e-14 0 0 0 0)
(0 -4.96308e-17 0 -4.96308e-17 5.49571e-14 0 0 0 0)
(0 3.80635e-17 0 3.80635e-17 -5.43765e-14 0 0 0 0)
(0 3.13667e-17 0 3.13667e-17 5.37843e-14 0 0 0 0)
(0 6.11452e-18 0 6.11452e-18 -5.31942e-14 0 0 0 0)
(0 4.21134e-17 0 4.21134e-17 5.25921e-14 0 0 0 0)
(0 -3.25843e-17 0 -3.25843e-17 -5.19888e-14 0 0 0 0)
(0 -1.19643e-17 0 -1.19643e-17 5.13743e-14 0 0 0 0)
(0 3.84077e-17 0 3.84077e-17 -5.07561e-14 0 0 0 0)
(0 -8.79326e-17 0 -8.79326e-17 5.01285e-14 0 0 0 0)
(0 -4.26428e-17 0 -4.26428e-17 -4.94961e-14 0 0 0 0)
(0 5.31778e-17 0 5.31778e-17 4.88514e-14 0 0 0 0)
(0 4.45486e-17 0 4.45486e-17 -4.82038e-14 0 0 0 0)
(0 1.54848e-17 0 1.54848e-17 4.75428e-14 0 0 0 0)
(0 -7.86152e-18 0 -7.86152e-18 -4.68789e-14 0 0 0 0)
(0 -1.28643e-17 0 -1.28643e-17 4.61976e-14 0 0 0 0)
(0 -2.44316e-17 0 -2.44316e-17 -4.55188e-14 0 0 0 0)
(0 3.8143e-17 0 3.8143e-17 4.48032e-14 0 0 0 0)
(0 7.75565e-18 0 7.75565e-18 -4.41376e-14 0 0 0 0)
(0 -8.12622e-18 0 -8.12622e-18 4.33639e-14 0 0 0 0)
(0 -7.38507e-18 0 -7.38507e-18 -4.27066e-14 0 0 0 0)
(0 -3.00961e-17 0 -3.00961e-17 4.1898e-14 0 0 0 0)
(0 4.76456e-18 0 4.76456e-18 -4.12154e-14 0 0 0 0)
(0 3.33784e-17 0 3.33784e-17 4.03812e-14 0 0 0 0)
(0 5.50571e-18 0 5.50571e-18 -3.96644e-14 0 0 0 0)
(0 -4.57927e-18 0 -4.57927e-18 3.8807e-14 0 0 0 0)
(0 -1.63848e-17 0 -1.63848e-17 -3.80567e-14 0 0 0 0)
(0 -5.84982e-18 0 -5.84982e-18 3.71598e-14 0 0 0 0)
(0 -3.83018e-17 0 -3.83018e-17 -3.63697e-14 0 0 0 0)
(0 -1.55113e-16 0 -1.55113e-16 3.54433e-14 0 0 0 0)
(0 -3.65601e-16 0 -3.65601e-16 -3.4602e-14 0 0 0 0)
(0 -5.29396e-20 0 -5.29396e-20 3.36351e-14 0 0 0 0)
(0 3.69121e-16 0 3.69121e-16 -3.27367e-14 0 0 0 0)
(0 1.48575e-16 0 1.48575e-16 3.17151e-14 0 0 0 0)
(0 2.86932e-17 0 2.86932e-17 -3.07789e-14 0 0 0 0)
(0 1.01909e-17 0 1.01909e-17 2.96621e-14 0 0 0 0)
(0 6.04305e-17 0 6.04305e-17 -2.86714e-14 0 0 0 0)
(0 2.79256e-17 0 2.79256e-17 2.74733e-14 0 0 0 0)
(0 -2.81109e-17 0 -2.81109e-17 -2.63802e-14 0 0 0 0)
(0 -1.08129e-16 0 -1.08129e-16 2.50881e-14 0 0 0 0)
(0 9.68794e-18 0 9.68794e-18 -2.38594e-14 0 0 0 0)
(0 1.66468e-16 0 1.66468e-16 2.24185e-14 0 0 0 0)
(0 9.18501e-17 0 9.18501e-17 -2.10376e-14 0 0 0 0)
(0 -4.84397e-17 0 -4.84397e-17 1.94035e-14 0 0 0 0)
(0 -7.68947e-17 0 -7.68947e-17 -1.77609e-14 0 0 0 0)
(0 -6.25216e-17 0 -6.25216e-17 1.57931e-14 0 0 0 0)
(0 -4.52633e-17 0 -4.52633e-17 -1.36411e-14 0 0 0 0)
(0 2.71315e-17 0 2.71315e-17 1.08844e-14 0 0 0 0)
(0 -6.81862e-17 0 -6.81862e-17 -7.45216e-15 0 0 0 0)
(0 -9.30677e-17 0 -9.30677e-17 3.7809e-15 0 0 0 0)
)
;

boundaryField
{
    inandouthalf11
    {
        type            cyclic;
    }
    inandouthalf12
    {
        type            cyclic;
    }
    inandouthalf21
    {
        type            cyclic;
    }
    inandouthalf22
    {
        type            cyclic;
    }
    inandouthalf31
    {
        type            cyclic;
    }
    inandouthalf32
    {
        type            cyclic;
    }
    inandouthalf41
    {
        type            cyclic;
    }
    inandouthalf42
    {
        type            cyclic;
    }
    top
    {
        type            symmetryPlane;
    }
    walls
    {
        type            zeroGradient;
    }
    frontAndBackPlanes
    {
        type            empty;
    }
}


// ************************************************************************* //
