/*--------------------------------*- C++ -*----------------------------------*\
| =========                 |                                                 |
| \\      /  F ield         | OpenFOAM: The Open Source CFD Toolbox           |
|  \\    /   O peration     | Version:  2.4.x                                 |
|   \\  /    A nd           | Web:      www.OpenFOAM.org                      |
|    \\/     M anipulation  |                                                 |
\*---------------------------------------------------------------------------*/
FoamFile
{
    version     2.0;
    format      ascii;
    class       volTensorField;
    location    "8";
    object      Taus;
}
// * * * * * * * * * * * * * * * * * * * * * * * * * * * * * * * * * * * * * //

dimensions      [0 2 -2 0 0 0 0];

internalField   nonuniform List<tensor> 
360
(
(0 0.0224228 0 0.0224228 -0.203581 0 0 0 0)
(0 0.0326316 0 0.0326316 -0.256084 0 0 0 0)
(0 0.0391727 0 0.0391727 -0.26086 0 0 0 0)
(0 0.0377805 0 0.0377805 -0.254666 0 0 0 0)
(-1.33681e-17 0.0364127 0 0.0364127 -0.251836 0 0 0 0)
(-1.29462e-17 0.036081 0 0.036081 -0.250808 0 0 0 0)
(-1.28347e-17 0.0358655 0 0.0358655 -0.249562 0 0 0 0)
(0 0.035528 0 0.035528 -0.248033 0 0 0 0)
(-2.54789e-17 0.0351513 0 0.0351513 -0.246485 0 0 0 0)
(0 0.0347705 0 0.0347705 -0.244925 0 0 0 0)
(-2.52809e-17 0.0343915 0 0.0343915 -0.243357 0 0 0 0)
(0 0.0340209 0 0.0340209 -0.241803 0 0 0 0)
(-5.03114e-17 0.0336553 0 0.0336553 -0.240244 0 0 0 0)
(0 0.0332941 0 0.0332941 -0.238687 0 0 0 0)
(0 0.0329352 0 0.0329352 -0.237126 0 0 0 0)
(0 0.0325772 0 0.0325772 -0.235556 0 0 0 0)
(0 0.0322213 0 0.0322213 -0.233982 0 0 0 0)
(-5.0016e-17 0.0318695 0 0.0318695 -0.232409 0 0 0 0)
(0 0.0315208 0 0.0315208 -0.230834 0 0 0 0)
(0 0.0311734 0 0.0311734 -0.229247 0 0 0 0)
(0 0.0308319 0 0.0308319 -0.227672 0 0 0 0)
(-9.94145e-17 0.0304913 0 0.0304913 -0.226083 0 0 0 0)
(0 0.0301532 0 0.0301532 -0.224493 0 0 0 0)
(0 0.0298184 0 0.0298184 -0.222901 0 0 0 0)
(0 0.0294857 0 0.0294857 -0.221305 0 0 0 0)
(-9.83493e-17 0.0291561 0 0.0291561 -0.219706 0 0 0 0)
(0 0.0288299 0 0.0288299 -0.218109 0 0 0 0)
(0 0.0285039 0 0.0285039 -0.216499 0 0 0 0)
(0 0.0281809 0 0.0281809 -0.214891 0 0 0 0)
(0 0.0278614 0 0.0278614 -0.213282 0 0 0 0)
(0 0.0275433 0 0.0275433 -0.21167 0 0 0 0)
(0 0.027226 0 0.027226 -0.210044 0 0 0 0)
(0 0.0269143 0 0.0269143 -0.208437 0 0 0 0)
(0 0.0265995 0 0.0265995 -0.206799 0 0 0 0)
(0 0.0262899 0 0.0262899 -0.20518 0 0 0 0)
(9.3289e-17 0.0259813 0 0.0259813 -0.203546 0 0 0 0)
(0 0.0256758 0 0.0256758 -0.201919 0 0 0 0)
(0 0.0253695 0 0.0253695 -0.20028 0 0 0 0)
(0 0.0250641 0 0.0250641 -0.19863 0 0 0 0)
(0 0.0247655 0 0.0247655 -0.197006 0 0 0 0)
(0 0.0244621 0 0.0244621 -0.195346 0 0 0 0)
(0 0.0241626 0 0.0241626 -0.193697 0 0 0 0)
(8.83296e-17 0.0238677 0 0.0238677 -0.192059 0 0 0 0)
(0 0.023569 0 0.023569 -0.190391 0 0 0 0)
(0 0.0232742 0 0.0232742 -0.18874 0 0 0 0)
(0 0.0229795 0 0.0229795 -0.187078 0 0 0 0)
(0 0.0226855 0 0.0226855 -0.185407 0 0 0 0)
(0 0.022398 0 0.022398 -0.183757 0 0 0 0)
(0 0.0221071 0 0.0221071 -0.182086 0 0 0 0)
(0 0.0218144 0 0.0218144 -0.180399 0 0 0 0)
(1.64645e-16 0.0215288 0 0.0215288 -0.178739 0 0 0 0)
(0 0.0212417 0 0.0212417 -0.177056 0 0 0 0)
(0 0.0209556 0 0.0209556 -0.175379 0 0 0 0)
(0 0.0206703 0 0.0206703 -0.173691 0 0 0 0)
(0 0.0203881 0 0.0203881 -0.172018 0 0 0 0)
(0 0.0201033 0 0.0201033 -0.170316 0 0 0 0)
(0 0.0198234 0 0.0198234 -0.168638 0 0 0 0)
(0 0.0195414 0 0.0195414 -0.166937 0 0 0 0)
(0 0.0192628 0 0.0192628 -0.165243 0 0 0 0)
(0 0.0189872 0 0.0189872 -0.163559 0 0 0 0)
(0 0.0187077 0 0.0187077 -0.161844 0 0 0 0)
(0 0.0184327 0 0.0184327 -0.160153 0 0 0 0)
(0 0.0181562 0 0.0181562 -0.158439 0 0 0 0)
(0 0.017882 0 0.017882 -0.156735 0 0 0 0)
(0 0.017609 0 0.017609 -0.155024 0 0 0 0)
(0 0.0173379 0 0.0173379 -0.153316 0 0 0 0)
(0 0.0170666 0 0.0170666 -0.1516 0 0 0 0)
(0 0.0167961 0 0.0167961 -0.149881 0 0 0 0)
(0 0.0165287 0 0.0165287 -0.148164 0 0 0 0)
(0 0.0162641 0 0.0162641 -0.146454 0 0 0 0)
(0 0.0159963 0 0.0159963 -0.144724 0 0 0 0)
(0 0.0157297 0 0.0157297 -0.14299 0 0 0 0)
(0 0.0154685 0 0.0154685 -0.141276 0 0 0 0)
(0 0.0152052 0 0.0152052 -0.13954 0 0 0 0)
(0 0.014943 0 0.014943 -0.13781 0 0 0 0)
(0 0.0146811 0 0.0146811 -0.136068 0 0 0 0)
(0 0.0144227 0 0.0144227 -0.134336 0 0 0 0)
(0 0.0141656 0 0.0141656 -0.1326 0 0 0 0)
(0 0.0139089 0 0.0139089 -0.130859 0 0 0 0)
(0 0.0136536 0 0.0136536 -0.129115 0 0 0 0)
(0 0.0134006 0 0.0134006 -0.127374 0 0 0 0)
(0 0.0131481 0 0.0131481 -0.125627 0 0 0 0)
(0 0.0128964 0 0.0128964 -0.123877 0 0 0 0)
(0 0.012646 0 0.012646 -0.122126 0 0 0 0)
(0 0.0123965 0 0.0123965 -0.120372 0 0 0 0)
(0 0.0121483 0 0.0121483 -0.118616 0 0 0 0)
(0 0.0119011 0 0.0119011 -0.116857 0 0 0 0)
(0 0.0116555 0 0.0116555 -0.115098 0 0 0 0)
(0 0.0114116 0 0.0114116 -0.113338 0 0 0 0)
(0 0.0111688 0 0.0111688 -0.111576 0 0 0 0)
(0 0.0109275 0 0.0109275 -0.109812 0 0 0 0)
(0 0.0106876 0 0.0106876 -0.108046 0 0 0 0)
(0 0.0104486 0 0.0104486 -0.106278 0 0 0 0)
(0 0.0102107 0 0.0102107 -0.104507 0 0 0 0)
(0 0.00997391 0 0.00997391 -0.102734 0 0 0 0)
(0 0.00973814 0 0.00973814 -0.100959 0 0 0 0)
(0 0.00950344 0 0.00950344 -0.0991821 0 0 0 0)
(0 0.00926988 0 0.00926988 -0.097404 0 0 0 0)
(0 0.00903744 0 0.00903744 -0.0956247 0 0 0 0)
(0 0.00880608 0 0.00880608 -0.0938439 0 0 0 0)
(0 0.0085758 0 0.0085758 -0.0920619 0 0 0 0)
(0 0.00834654 0 0.00834654 -0.0902785 0 0 0 0)
(0 0.00811825 0 0.00811825 -0.0884937 0 0 0 0)
(0 0.00789092 0 0.00789092 -0.0867077 0 0 0 0)
(0 0.0076645 0 0.0076645 -0.0849205 0 0 0 0)
(0 0.00743897 0 0.00743897 -0.0831323 0 0 0 0)
(0 0.00721426 0 0.00721426 -0.0813433 0 0 0 0)
(0 0.00699028 0 0.00699028 -0.0795537 0 0 0 0)
(0 0.00676692 0 0.00676692 -0.0777636 0 0 0 0)
(0 0.00654401 0 0.00654401 -0.0759732 0 0 0 0)
(0 0.00632134 0 0.00632134 -0.074183 0 0 0 0)
(0 0.00609866 0 0.00609866 -0.0723931 0 0 0 0)
(0 0.00587567 0 0.00587567 -0.070604 0 0 0 0)
(0 0.00565199 0 0.00565199 -0.0688162 0 0 0 0)
(0 0.0054272 0 0.0054272 -0.0670301 0 0 0 0)
(0 0.00520084 0 0.00520084 -0.0652463 0 0 0 0)
(0 0.00497241 0 0.00497241 -0.0634653 0 0 0 0)
(0 0.00474141 0 0.00474141 -0.0616878 0 0 0 0)
(0 0.00450734 0 0.00450734 -0.0599143 0 0 0 0)
(0 0.00426977 0 0.00426977 -0.0581453 0 0 0 0)
(0 0.00402834 0 0.00402834 -0.0563812 0 0 0 0)
(0 0.00378285 0 0.00378285 -0.0546226 0 0 0 0)
(0 0.00353325 0 0.00353325 -0.0528696 0 0 0 0)
(0 0.00327968 0 0.00327968 -0.0511226 0 0 0 0)
(0 0.00302241 0 0.00302241 -0.0493817 0 0 0 0)
(0 0.00276178 0 0.00276178 -0.0476467 0 0 0 0)
(0 0.00249819 0 0.00249819 -0.0459166 0 0 0 0)
(0 0.00223202 0 0.00223202 -0.0441899 0 0 0 0)
(0 0.00196387 0 0.00196387 -0.042465 0 0 0 0)
(0 0.0016947 0 0.0016947 -0.0407412 0 0 0 0)
(0 0.0014258 0 0.0014258 -0.0390204 0 0 0 0)
(0 0.00115822 0 0.00115822 -0.0373053 0 0 0 0)
(0 0.000892129 0 0.000892129 -0.0355938 0 0 0 0)
(0 0.000626948 0 0.000626948 -0.0338755 0 0 0 0)
(0 0.000362737 0 0.000362737 -0.0321428 0 0 0 0)
(0 9.96736e-05 0 9.96736e-05 -0.0304079 0 0 0 0)
(0 -0.000163931 0 -0.000163931 -0.0286892 0 0 0 0)
(0 -0.000430689 0 -0.000430689 -0.0269689 0 0 0 0)
(0 -0.000694253 0 -0.000694253 -0.0251791 0 0 0 0)
(0 -0.000937682 0 -0.000937682 -0.0232696 0 0 0 0)
(0 -0.00115551 0 -0.00115551 -0.0213591 0 0 0 0)
(0 -0.00135835 0 -0.00135835 -0.0196533 0 0 0 0)
(0 -0.00147421 0 -0.00147421 -0.0177904 0 0 0 0)
(0 -0.00137847 0 -0.00137847 -0.0156922 0 0 0 0)
(0 -0.000621088 0 -0.000621088 -0.0135556 0 0 0 0)
(0 0.00353282 0 0.00353282 -0.00802823 0 0 0 0)
(0 0.00368041 0 0.00368041 -0.000789193 0 0 0 0)
(0 0.00255957 0 0.00255957 2.45633e-05 0 0 0 0)
(0 0.00268981 0 0.00268981 0.000104057 0 0 0 0)
(0 0.00343992 0 0.00343992 0.000129057 0 0 0 0)
(0 0.00336982 0 0.00336982 7.64412e-05 0 0 0 0)
(0 0.00303952 0 0.00303952 5.5619e-05 0 0 0 0)
(0 0.00287946 0 0.00287946 5.68156e-05 0 0 0 0)
(0 0.0028831 0 0.0028831 6.45026e-05 0 0 0 0)
(0 0.00303273 0 0.00303273 7.62947e-05 0 0 0 0)
(0 0.00331394 0 0.00331394 9.14209e-05 0 0 0 0)
(0 0.00371864 0 0.00371864 0.000107941 0 0 0 0)
(0 0.00423678 0 0.00423678 0.000119278 0 0 0 0)
(0 0.00485459 0 0.00485459 0.000107176 0 0 0 0)
(0 0.00555423 0 0.00555423 2.75043e-05 0 0 0 0)
(0 0.00631526 0 0.00631526 -0.000203589 0 0 0 0)
(0 0.00710145 0 0.00710145 -0.000690267 0 0 0 0)
(0 0.00781636 0 0.00781636 -0.00147415 0 0 0 0)
(0 0.00828999 0 0.00828999 -0.00244905 0 0 0 0)
(0 0.00837177 0 0.00837177 -0.00341261 0 0 0 0)
(0 0.00801886 0 0.00801886 -0.00421886 0 0 0 0)
(0 0.00727145 0 0.00727145 -0.00483217 0 0 0 0)
(0 0.00619289 0 0.00619289 -0.00527483 0 0 0 0)
(0 0.00484082 0 0.00484082 -0.00557918 0 0 0 0)
(0 0.00326124 0 0.00326124 -0.0057722 0 0 0 0)
(0 0.00148966 0 0.00148966 -0.00587414 0 0 0 0)
(0 -0.000446573 0 -0.000446573 -0.00589989 0 0 0 0)
(0 -0.00252607 0 -0.00252607 -0.00586058 0 0 0 0)
(0 -0.00473166 0 -0.00473166 -0.00576475 0 0 0 0)
(0 -0.00704916 0 -0.00704916 -0.00561917 0 0 0 0)
(0 -0.00946641 0 -0.00946641 -0.00542939 0 0 0 0)
(0 -0.0119726 0 -0.0119726 -0.00520004 0 0 0 0)
(0 -0.0145578 0 -0.0145578 -0.00493503 0 0 0 0)
(0 -0.0172125 0 -0.0172125 -0.0046377 0 0 0 0)
(0 -0.0199275 0 -0.0199275 -0.0043109 0 0 0 0)
(0 -0.0226933 0 -0.0226933 -0.00395703 0 0 0 0)
(0 -0.0255003 0 -0.0255003 -0.00357808 0 0 0 0)
(0 -0.0283385 0 -0.0283385 -0.00317574 0 0 0 0)
(0 -0.0311975 0 -0.0311975 -0.00275139 0 0 0 0)
(0 -0.0340662 0 -0.0340662 -0.0023062 0 0 0 0)
(0 -0.036933 0 -0.036933 -0.00184113 0 0 0 0)
(0 -0.0397854 0 -0.0397854 -0.00135707 0 0 0 0)
(0 -0.0426102 0 -0.0426102 -0.000854757 0 0 0 0)
(0 -0.0453937 0 -0.0453937 -0.00033487 0 0 0 0)
(0 -0.048121 0 -0.048121 0.000201959 0 0 0 0)
(0 -0.0507764 0 -0.0507764 0.000755054 0 0 0 0)
(0 -0.0533434 0 -0.0533434 0.00132355 0 0 0 0)
(0 -0.055805 0 -0.055805 0.0019062 0 0 0 0)
(0 -0.0581431 0 -0.0581431 0.00250117 0 0 0 0)
(0 -0.0603397 0 -0.0603397 0.00310587 0 0 0 0)
(0 -0.0623758 0 -0.0623758 0.00371673 0 0 0 0)
(0 -0.0642325 0 -0.0642325 0.00432899 0 0 0 0)
(0 -0.0658901 0 -0.0658901 0.00493659 0 0 0 0)
(0 -0.067328 0 -0.067328 0.00553242 0 0 0 0)
(0 -0.0685235 0 -0.0685235 0.00610911 0 0 0 0)
(0 -0.0694683 0 -0.0694683 0.00665927 0 0 0 0)
(0 -0.0702674 0 -0.0702674 0.00717792 0 0 0 0)
(-3.25254e-15 -0.0710419 0 -0.0710419 0.00765748 0 0 0 0)
(0 -0.0718149 0 -0.0718149 0.00808495 0 0 0 0)
(0 -0.0725883 0 -0.0725883 0.00844674 0 0 0 0)
(3.63964e-15 -0.0733616 0 -0.0733616 0.00872993 0 0 0 0)
(0 -0.0741294 0 -0.0741294 0.00892276 0 0 0 0)
(-3.94055e-15 -0.0748843 0 -0.0748843 0.00901469 0 0 0 0)
(0 -0.0756148 0 -0.0756148 0.00899607 0 0 0 0)
(4.27253e-15 -0.0763074 0 -0.0763074 0.00885878 0 0 0 0)
(0 -0.0769422 0 -0.0769422 0.00859697 0 0 0 0)
(0 -0.0774943 0 -0.0774943 0.00821024 0 0 0 0)
(0 -0.0779235 0 -0.0779235 0.00770685 0 0 0 0)
(4.97023e-15 -0.0781879 0 -0.0781879 0.00709813 0 0 0 0)
(0 -0.0782641 0 -0.0782641 0.00639043 0 0 0 0)
(0 -0.0781234 0 -0.0781234 0.00559625 0 0 0 0)
(0 -0.0777137 0 -0.0777137 0.00474351 0 0 0 0)
(0 -0.0770074 0 -0.0770074 0.00385659 0 0 0 0)
(0 -0.07601 0 -0.07601 0.00294687 0 0 0 0)
(-1.13137e-14 -0.0747202 0 -0.0747202 0.00203141 0 0 0 0)
(0 -0.0731196 0 -0.0731196 0.00114962 0 0 0 0)
(-1.13574e-14 -0.0711846 0 -0.0711846 0.000353579 0 0 0 0)
(0 -0.0689412 0 -0.0689412 -0.000321918 0 0 0 0)
(-1.11581e-14 -0.0664129 0 -0.0664129 -0.000829701 0 0 0 0)
(0 -0.0635685 0 -0.0635685 -0.00107002 0 0 0 0)
(0 -0.0604127 0 -0.0604127 -0.000928392 0 0 0 0)
(0 -0.0569725 0 -0.0569725 -0.000339799 0 0 0 0)
(0 -0.0532507 0 -0.0532507 0.000605754 0 0 0 0)
(9.6814e-15 -0.0492344 0 -0.0492344 0.00166655 0 0 0 0)
(9.23482e-15 -0.0448817 0 -0.0448817 0.00267558 0 0 0 0)
(0 -0.0401482 0 -0.0401482 0.00357757 0 0 0 0)
(0 -0.0348793 0 -0.0348793 0.00448261 0 0 0 0)
(0 -0.0287903 0 -0.0287903 0.00564817 0 0 0 0)
(0 -0.0218444 0 -0.0218444 0.00731473 0 0 0 0)
(0 -0.0147358 0 -0.0147358 0.0074332 0 0 0 0)
(0 -0.0100004 0 -0.0100004 0.00484217 0 0 0 0)
(0 -0 0 -0 -0 0 0 0 0)
(0 -0 0 -0 -0 0 0 0 0)
(0 -0 0 -0 0 0 0 0 0)
(0 -0 0 -0 0 0 0 0 0)
(0 -0 0 -0 0 0 0 0 0)
(0 -0 0 -0 0 0 0 0 0)
(0 -0 0 -0 -0 0 0 0 0)
(-0 -0 0 -0 -0 0 0 0 0)
(0 -0 0 -0 -0 0 0 0 0)
(0 -0 0 -0 0 0 0 0 0)
(0 -0 0 -0 0 0 0 0 0)
(-0 -0 0 -0 0 0 0 0 0)
(0 -0 0 -0 0 0 0 0 0)
(0 -0 0 -0 0 0 0 0 0)
(-0 -0 0 -0 0 0 0 0 0)
(0 -0 0 -0 0 0 0 0 0)
(0 -0 0 -0 0 0 0 0 0)
(0 -0 0 -0 0 0 0 0 0)
(0 -0 0 -0 0 0 0 0 0)
(0 -0 0 -0 0 0 0 0 0)
(0 0 0 0 0 0 0 0 0)
(0 0 0 0 0 0 0 0 0)
(0 0 0 0 0 0 0 0 0)
(0 0 0 0 0 0 0 0 0)
(0 0 0 0 0 0 0 0 0)
(0 0 0 0 0 0 0 0 0)
(0 0 0 0 0 0 0 0 0)
(0 0 0 0 0 0 0 0 0)
(0 0 0 0 0 0 0 0 0)
(0 0 0 0 0 0 0 0 0)
(0 0 0 0 0 0 0 0 0)
(0 0 0 0 0 0 0 0 0)
(0 0 0 0 -0 0 0 0 0)
(0 0 0 0 0 0 0 0 0)
(0 0 0 0 -0 0 0 0 0)
(0 0 0 0 0 0 0 0 0)
(0 0 0 0 -0 0 0 0 0)
(0 0 0 0 0 0 0 0 0)
(0 0 0 0 0 0 0 0 0)
(0 0 0 0 0 0 0 0 0)
(0 0 0 0 -0 0 0 0 0)
(0 0 0 0 0 0 0 0 0)
(0 0 0 0 -0 0 0 0 0)
(0 0 0 0 0 0 0 0 0)
(0 0 0 0 -0 0 0 0 0)
(0 0 0 0 0 0 0 0 0)
(0 0 0 0 -0 0 0 0 0)
(0 0 0 0 0 0 0 0 0)
(0 0 0 0 -0 0 0 0 0)
(0 0 0 0 0 0 0 0 0)
(0 0 0 0 -0 0 0 0 0)
(0 0 0 0 0 0 0 0 0)
(0 0 0 0 -0 0 0 0 0)
(0 0 0 0 0 0 0 0 0)
(0 -0 0 -0 -0 0 0 0 0)
(0 0 0 0 0 0 0 0 0)
(0 -0 0 -0 -0 0 0 0 0)
(0 0 0 0 0 0 0 0 0)
(0 -0 0 -0 -0 0 0 0 0)
(0 0 0 0 0 0 0 0 0)
(0 -0 0 -0 -0 0 0 0 0)
(0 0 0 0 0 0 0 0 0)
(0 -0 0 -0 -0 0 0 0 0)
(0 0 0 0 0 0 0 0 0)
(0 -0 0 -0 -0 0 0 0 0)
(0 0 0 0 0 0 0 0 0)
(0 -0 0 -0 -0 0 0 0 0)
(0 0 0 0 0 0 0 0 0)
(0 -0 0 -0 -0 0 0 0 0)
(0 0 0 0 0 0 0 0 0)
(0 -0 0 -0 -0 0 0 0 0)
(0 0 0 0 0 0 0 0 0)
(0 -0 0 -0 -0 0 0 0 0)
(0 0 0 0 0 0 0 0 0)
(0 -0 0 -0 -0 0 0 0 0)
(0 0 0 0 0 0 0 0 0)
(0 -0 0 -0 -0 0 0 0 0)
(0 0 0 0 0 0 0 0 0)
(0 -0 0 -0 -0 0 0 0 0)
(0 0 0 0 0 0 0 0 0)
(0 -0 0 -0 -0 0 0 0 0)
(0 0 0 0 0 0 0 0 0)
(0 -0 0 -0 -0 0 0 0 0)
(0 0 0 0 0 0 0 0 0)
(0 -0 0 -0 -0 0 0 0 0)
(0 0 0 0 0 0 0 0 0)
(0 -0 0 -0 -0 0 0 0 0)
(0 0 0 0 0 0 0 0 0)
(0 -0 0 -0 -0 0 0 0 0)
(0 0 0 0 0 0 0 0 0)
(0 -0 0 -0 -0 0 0 0 0)
(0 0 0 0 0 0 0 0 0)
(0 -0 0 -0 -0 0 0 0 0)
(0 0 0 0 0 0 0 0 0)
(0 -0 0 -0 -0 0 0 0 0)
(0 0 0 0 0 0 0 0 0)
(0 -0 0 -0 -0 0 0 0 0)
(0 0 0 0 0 0 0 0 0)
(0 -0 0 -0 -0 0 0 0 0)
(0 0 0 0 0 0 0 0 0)
(0 -0 0 -0 -0 0 0 0 0)
(0 0 0 0 0 0 0 0 0)
(0 -0 0 -0 -0 0 0 0 0)
(0 0 0 0 0 0 0 0 0)
(0 -0 0 -0 -0 0 0 0 0)
(0 0 0 0 0 0 0 0 0)
(0 -0 0 -0 -0 0 0 0 0)
(0 0 0 0 0 0 0 0 0)
(0 -0 0 -0 -0 0 0 0 0)
(0 0 0 0 0 0 0 0 0)
(0 -0 0 -0 -0 0 0 0 0)
(0 0 0 0 0 0 0 0 0)
(0 -0 0 -0 -0 0 0 0 0)
(0 0 0 0 0 0 0 0 0)
(0 -0 0 -0 -0 0 0 0 0)
(0 0 0 0 0 0 0 0 0)
(0 -0 0 -0 -0 0 0 0 0)
(0 -0 0 -0 0 0 0 0 0)
(0 -0 0 -0 0 0 0 0 0)
(0 -0 0 -0 0 0 0 0 0)
(0 -0 0 -0 0 0 0 0 0)
(0 -0 0 -0 0 0 0 0 0)
(0 -0 0 -0 0 0 0 0 0)
(0 -0 0 -0 0 0 0 0 0)
)
;

boundaryField
{
    inandouthalf11
    {
        type            cyclic;
    }
    inandouthalf12
    {
        type            cyclic;
    }
    inandouthalf21
    {
        type            cyclic;
    }
    inandouthalf22
    {
        type            cyclic;
    }
    inandouthalf31
    {
        type            cyclic;
    }
    inandouthalf32
    {
        type            cyclic;
    }
    inandouthalf41
    {
        type            cyclic;
    }
    inandouthalf42
    {
        type            cyclic;
    }
    top
    {
        type            symmetryPlane;
    }
    walls
    {
        type            zeroGradient;
    }
    frontAndBackPlanes
    {
        type            empty;
    }
}


// ************************************************************************* //
