/*--------------------------------*- C++ -*----------------------------------*\
| =========                 |                                                 |
| \\      /  F ield         | OpenFOAM: The Open Source CFD Toolbox           |
|  \\    /   O peration     | Version:  2.4.x                                 |
|   \\  /    A nd           | Web:      www.OpenFOAM.org                      |
|    \\/     M anipulation  |                                                 |
\*---------------------------------------------------------------------------*/
FoamFile
{
    version     2.0;
    format      ascii;
    class       volScalarField;
    location    "8";
    object      Theta_0;
}
// * * * * * * * * * * * * * * * * * * * * * * * * * * * * * * * * * * * * * //

dimensions      [0 2 -2 0 0 0 0];

internalField   nonuniform List<scalar> 
360
(
6.66222e-21
6.66415e-21
6.66334e-21
6.66319e-21
6.66337e-21
6.66348e-21
6.66349e-21
6.66348e-21
6.66347e-21
6.66346e-21
6.66345e-21
6.66343e-21
6.66341e-21
6.66339e-21
6.66337e-21
6.66335e-21
6.66332e-21
6.6633e-21
6.66328e-21
6.66326e-21
6.66324e-21
6.66322e-21
6.6632e-21
6.66318e-21
6.66316e-21
6.66315e-21
6.66313e-21
6.66312e-21
6.66311e-21
6.6631e-21
6.66309e-21
6.66308e-21
6.66307e-21
6.66307e-21
6.66306e-21
6.66305e-21
6.66305e-21
6.66305e-21
6.66304e-21
6.66304e-21
6.66304e-21
6.66304e-21
6.66304e-21
6.66303e-21
6.66303e-21
6.66303e-21
6.66303e-21
6.66303e-21
6.66302e-21
6.66302e-21
6.66302e-21
6.66302e-21
6.66301e-21
6.66301e-21
6.66301e-21
6.663e-21
6.663e-21
6.66299e-21
6.66298e-21
6.66297e-21
6.66296e-21
6.66295e-21
6.66294e-21
6.66293e-21
6.66292e-21
6.66291e-21
6.6629e-21
6.66288e-21
6.66286e-21
6.66285e-21
6.66283e-21
6.66281e-21
6.66279e-21
6.66277e-21
6.66275e-21
6.66273e-21
6.66271e-21
6.66269e-21
6.66267e-21
6.66264e-21
6.66262e-21
6.66259e-21
6.66257e-21
6.66254e-21
6.66252e-21
6.66249e-21
6.66247e-21
6.66244e-21
6.66242e-21
6.66239e-21
6.66236e-21
6.66233e-21
6.66231e-21
6.66228e-21
6.66225e-21
6.66223e-21
6.6622e-21
6.66217e-21
6.66215e-21
6.66212e-21
6.6621e-21
6.66207e-21
6.66205e-21
6.66202e-21
6.66199e-21
6.66197e-21
6.66195e-21
6.66192e-21
6.6619e-21
6.66188e-21
6.66186e-21
6.66184e-21
6.66182e-21
6.66181e-21
6.66179e-21
6.66178e-21
6.66177e-21
6.66177e-21
6.66176e-21
6.66176e-21
6.66176e-21
6.66176e-21
6.66176e-21
6.66176e-21
6.66176e-21
6.66175e-21
6.66175e-21
6.66173e-21
6.66171e-21
6.66168e-21
6.66165e-21
6.66161e-21
6.66157e-21
6.66153e-21
6.6615e-21
1.03459e-20
2.00526e-20
8.58419e-20
1.09552e-18
1.81822e-17
3.41627e-16
7.27493e-15
1.76913e-13
4.95732e-12
1.74678e-10
2.05918e-08
2.07584e-06
5.1096e-05
0.000661382
0.00248944
0.00371111
0.00423021
0.00442614
0.00444508
0.00434871
0.00416663
0.00392836
0.00366247
0.00339693
0.00315413
0.00294665
0.00277702
0.00264105
0.0025323
0.00244484
0.00237412
0.00231671
0.00227002
0.00223208
0.00220128
0.00217637
0.00215628
0.00214015
0.00212725
0.00211696
0.00210875
0.00210216
0.00209681
0.00209235
0.00208851
0.00208502
0.00208167
0.00207829
0.00207469
0.00207076
0.00206637
0.00206142
0.00205585
0.00204957
0.00204253
0.00203471
0.00202605
0.00201654
0.00200618
0.00199494
0.00198283
0.00196986
0.00195604
0.00194139
0.00192592
0.00190965
0.00189245
0.00187413
0.00185466
0.00183401
0.00181217
0.00178911
0.00176481
0.00173924
0.00171238
0.0016842
0.00165469
0.0016238
0.00159151
0.00155778
0.00152258
0.00148584
0.00144752
0.00140756
0.00136588
0.0013224
0.00127701
0.00122961
0.00118006
0.00112819
0.00107382
0.00101671
0.000956567
0.000893038
0.000825653
0.0007538
0.000676639
0.000592954
0.000500845
0.000396966
0.000274024
0
0
0
0
0
0
0
0
0
0
0
0
0
0
0
0
0
0
0
0
0
0
0
0
0
0
0
0
0
0
0
0
0
0
0
0
0
0
0
0
0
0
0
0
0
0
0
0
0
0
0
0
0
0
0
0
0
0
0
0
0
0
0
0
0
0
0
0
0
0
0
0
0
0
0
0
0
0
0
0
0
0
0
0
0
0
0
0
0
0
0
0
0
0
0
0
0
0
0
0
0
0
0
0
0
0
0
0
0
0
0
0
0
0
0
0
0
0
0
0
0
0
0
0
)
;

boundaryField
{
    inandouthalf11
    {
        type            cyclic;
    }
    inandouthalf12
    {
        type            cyclic;
    }
    inandouthalf21
    {
        type            cyclic;
    }
    inandouthalf22
    {
        type            cyclic;
    }
    inandouthalf31
    {
        type            cyclic;
    }
    inandouthalf32
    {
        type            cyclic;
    }
    inandouthalf41
    {
        type            cyclic;
    }
    inandouthalf42
    {
        type            cyclic;
    }
    top
    {
        type            symmetryPlane;
    }
    walls
    {
        type            zeroGradient;
    }
    frontAndBackPlanes
    {
        type            empty;
    }
}


// ************************************************************************* //
