/*--------------------------------*- C++ -*----------------------------------*\
| =========                 |                                                 |
| \\      /  F ield         | OpenFOAM: The Open Source CFD Toolbox           |
|  \\    /   O peration     | Version:  2.4.x                                 |
|   \\  /    A nd           | Web:      www.OpenFOAM.org                      |
|    \\/     M anipulation  |                                                 |
\*---------------------------------------------------------------------------*/
FoamFile
{
    version     2.0;
    format      ascii;
    class       volScalarField;
    location    "8";
    object      Theta;
}
// * * * * * * * * * * * * * * * * * * * * * * * * * * * * * * * * * * * * * //

dimensions      [0 2 -2 0 0 0 0];

internalField   nonuniform List<scalar> 
360
(
6.66222e-21
6.66415e-21
6.66334e-21
6.66318e-21
6.66337e-21
6.66348e-21
6.66349e-21
6.66348e-21
6.66347e-21
6.66346e-21
6.66345e-21
6.66343e-21
6.66341e-21
6.66339e-21
6.66337e-21
6.66335e-21
6.66332e-21
6.6633e-21
6.66328e-21
6.66326e-21
6.66324e-21
6.66322e-21
6.6632e-21
6.66318e-21
6.66316e-21
6.66315e-21
6.66313e-21
6.66312e-21
6.66311e-21
6.6631e-21
6.66309e-21
6.66308e-21
6.66307e-21
6.66307e-21
6.66306e-21
6.66305e-21
6.66305e-21
6.66305e-21
6.66304e-21
6.66304e-21
6.66304e-21
6.66304e-21
6.66303e-21
6.66303e-21
6.66303e-21
6.66303e-21
6.66303e-21
6.66303e-21
6.66302e-21
6.66302e-21
6.66302e-21
6.66302e-21
6.66301e-21
6.66301e-21
6.66301e-21
6.663e-21
6.66299e-21
6.66299e-21
6.66298e-21
6.66297e-21
6.66296e-21
6.66295e-21
6.66294e-21
6.66293e-21
6.66292e-21
6.66291e-21
6.66289e-21
6.66288e-21
6.66286e-21
6.66284e-21
6.66283e-21
6.66281e-21
6.66279e-21
6.66277e-21
6.66275e-21
6.66273e-21
6.66271e-21
6.66269e-21
6.66267e-21
6.66264e-21
6.66262e-21
6.66259e-21
6.66257e-21
6.66254e-21
6.66252e-21
6.66249e-21
6.66247e-21
6.66244e-21
6.66242e-21
6.66239e-21
6.66236e-21
6.66233e-21
6.66231e-21
6.66228e-21
6.66225e-21
6.66223e-21
6.6622e-21
6.66217e-21
6.66215e-21
6.66212e-21
6.6621e-21
6.66207e-21
6.66204e-21
6.66202e-21
6.66199e-21
6.66197e-21
6.66195e-21
6.66192e-21
6.6619e-21
6.66188e-21
6.66186e-21
6.66184e-21
6.66182e-21
6.66181e-21
6.66179e-21
6.66178e-21
6.66177e-21
6.66177e-21
6.66176e-21
6.66176e-21
6.66176e-21
6.66176e-21
6.66176e-21
6.66176e-21
6.66176e-21
6.66175e-21
6.66175e-21
6.66173e-21
6.66171e-21
6.66168e-21
6.66165e-21
6.66161e-21
6.66157e-21
6.66153e-21
6.6615e-21
1.03268e-20
2.00231e-20
8.60177e-20
1.09918e-18
1.82477e-17
3.42929e-16
7.30405e-15
1.77649e-13
4.97861e-12
1.75513e-10
2.07189e-08
2.08531e-06
5.12539e-05
0.00066287
0.00249177
0.00371242
0.00423133
0.00442733
0.00444641
0.0043502
0.00416825
0.00393007
0.00366418
0.00339856
0.0031556
0.00294794
0.00277812
0.00264199
0.0025331
0.00244554
0.00237472
0.00231723
0.00227048
0.00223247
0.00220163
0.00217666
0.00215653
0.00214036
0.00212743
0.0021171
0.00210886
0.00210224
0.00209686
0.00209239
0.00208852
0.00208502
0.00208165
0.00207825
0.00207464
0.0020707
0.0020663
0.00206134
0.00205576
0.00204947
0.00204243
0.0020346
0.00202594
0.00201643
0.00200605
0.00199481
0.0019827
0.00196973
0.00195591
0.00194125
0.00192578
0.00190952
0.00189232
0.001874
0.00185452
0.00183388
0.00181204
0.00178898
0.00176468
0.00173911
0.00171225
0.00168408
0.00165457
0.00162368
0.0015914
0.00155767
0.00152246
0.00148573
0.00144742
0.00140746
0.00136578
0.0013223
0.00127692
0.00122952
0.00117998
0.00112811
0.00107374
0.00101663
0.000956498
0.000892973
0.000825593
0.000753746
0.00067659
0.000592911
0.000500809
0.000396938
0.000274004
0
0
0
0
0
0
0
0
0
0
0
0
0
0
0
0
0
0
0
0
0
0
0
0
0
0
0
0
0
0
0
0
0
0
0
0
0
0
0
0
0
0
0
0
0
0
0
0
0
0
0
0
0
0
0
0
0
0
0
0
0
0
0
0
0
0
0
0
0
0
0
0
0
0
0
0
0
0
0
0
0
0
0
0
0
0
0
0
0
0
0
0
0
0
0
0
0
0
0
0
0
0
0
0
0
0
0
0
0
0
0
0
0
0
0
0
0
0
0
0
0
0
0
0
)
;

boundaryField
{
    inandouthalf11
    {
        type            cyclic;
    }
    inandouthalf12
    {
        type            cyclic;
    }
    inandouthalf21
    {
        type            cyclic;
    }
    inandouthalf22
    {
        type            cyclic;
    }
    inandouthalf31
    {
        type            cyclic;
    }
    inandouthalf32
    {
        type            cyclic;
    }
    inandouthalf41
    {
        type            cyclic;
    }
    inandouthalf42
    {
        type            cyclic;
    }
    top
    {
        type            symmetryPlane;
    }
    walls
    {
        type            zeroGradient;
    }
    frontAndBackPlanes
    {
        type            empty;
    }
}


// ************************************************************************* //
