/*--------------------------------*- C++ -*----------------------------------*\
| =========                 |                                                 |
| \\      /  F ield         | OpenFOAM: The Open Source CFD Toolbox           |
|  \\    /   O peration     | Version:  2.4.x                                 |
|   \\  /    A nd           | Web:      www.OpenFOAM.org                      |
|    \\/     M anipulation  |                                                 |
\*---------------------------------------------------------------------------*/
FoamFile
{
    version     2.0;
    format      ascii;
    class       volScalarField;
    location    "8";
    object      tmf;
}
// * * * * * * * * * * * * * * * * * * * * * * * * * * * * * * * * * * * * * //

dimensions      [0 0 0 0 0 0 0];

internalField   nonuniform List<scalar> 
360
(
0.999207
0.999209
0.99921
0.999209
0.999209
0.999209
0.999209
0.999209
0.999209
0.999209
0.999209
0.999209
0.999209
0.999209
0.999208
0.999208
0.999208
0.999208
0.999208
0.999208
0.999208
0.999208
0.999208
0.999208
0.999208
0.999208
0.999207
0.999207
0.999207
0.999207
0.999207
0.999207
0.999207
0.999207
0.999207
0.999207
0.999207
0.999206
0.999206
0.999206
0.999206
0.999206
0.999206
0.999206
0.999206
0.999206
0.999205
0.999205
0.999205
0.999205
0.999205
0.999205
0.999205
0.999205
0.999205
0.999204
0.999204
0.999204
0.999204
0.999204
0.999204
0.999204
0.999204
0.999203
0.999203
0.999203
0.999203
0.999203
0.999203
0.999203
0.999202
0.999202
0.999202
0.999202
0.999202
0.999202
0.999201
0.999201
0.999201
0.999201
0.999201
0.999201
0.9992
0.9992
0.9992
0.9992
0.9992
0.9992
0.999199
0.999199
0.999199
0.999199
0.999199
0.999198
0.999198
0.999198
0.999198
0.999197
0.999197
0.999197
0.999197
0.999196
0.999196
0.999196
0.999196
0.999195
0.999195
0.999195
0.999194
0.999194
0.999194
0.999194
0.999193
0.999193
0.999192
0.999192
0.999192
0.999191
0.999191
0.999191
0.99919
0.99919
0.999189
0.999189
0.999188
0.999188
0.999187
0.999187
0.999186
0.999186
0.999185
0.999185
0.999184
0.999183
0.999182
0.998939
0.998192
0.996737
0.995941
0.995192
0.99428
0.993149
0.991739
0.98997
0.987731
0.984861
0.981158
0.976164
0.943968
0.871052
0.843744
0.845417
0.851219
0.859223
0.86912
0.880792
0.893953
0.908085
0.922443
0.936182
0.948524
0.958931
0.967207
0.97349
0.978125
0.981509
0.98399
0.985829
0.987216
0.988279
0.989108
0.989766
0.990294
0.990724
0.991078
0.991372
0.99162
0.991829
0.992008
0.992161
0.992293
0.992407
0.992507
0.992593
0.992669
0.992736
0.992794
0.992845
0.99289
0.992929
0.992963
0.992992
0.993016
0.993036
0.993053
0.993066
0.993075
0.99308
0.993083
0.993081
0.993077
0.993068
0.993056
0.99304
0.99302
0.992996
0.992968
0.992935
0.992898
0.992855
0.992807
0.992754
0.992694
0.992628
0.992554
0.992472
0.992381
0.992279
0.992166
0.992038
0.991893
0.991728
0.991536
0.991309
0.991033
0.990687
0.990267
0.990363
0.990997
0.991551
0.992026
0.992447
0.992829
0.993182
0.993512
0.993825
0.994118
0.992807
0.993011
0.993187
0.993359
0.993552
0.993796
0.995178
0.995897
0.996058
0.996227
0.996405
0.996591
0.996785
0.996986
0.997192
0.997401
0.99761
0.997815
0.998012
0.998197
0.998367
0.998524
0.998671
0.998822
0.998997
0.9992
0.999335
0.999356
0.99935
0.999342
0.999335
0.999328
0.999321
0.999263
0.996892
0.994201
0.994201
0.994201
0.994201
0.994201
0.994201
0.994201
0.994201
0.994201
0.994201
0.994201
0.994201
0.994201
0.994201
0.994201
0.994201
0.994201
0.994201
0.994201
0.994201
0.994201
0.994201
0.994201
0.994201
0.994201
0.994201
0.994201
0.994201
0.994201
0.994201
0.994201
0.994201
0.994201
0.994201
0.994201
0.994201
0.994201
0.994201
0.994201
0.994201
0.994201
0.994201
0.994201
0.994201
0.994201
0.994201
0.994201
0.994201
0.994201
0.994201
0.994201
0.994201
0.994201
0.994201
0.994201
0.994201
0.994201
0.994201
0.994201
0.994201
0.994201
0.994201
0.994201
0.994201
0.994201
0.994201
0.994201
0.994201
0.994201
0.994201
0.994201
0.994201
0.994201
0.994201
0.994201
0.994201
0.994201
0.994201
0.994201
0.994201
0.994201
0.994201
0.994201
0.994201
0.994201
0.994201
0.994186
0.993285
)
;

boundaryField
{
    inandouthalf11
    {
        type            cyclic;
    }
    inandouthalf12
    {
        type            cyclic;
    }
    inandouthalf21
    {
        type            cyclic;
    }
    inandouthalf22
    {
        type            cyclic;
    }
    inandouthalf31
    {
        type            cyclic;
    }
    inandouthalf32
    {
        type            cyclic;
    }
    inandouthalf41
    {
        type            cyclic;
    }
    inandouthalf42
    {
        type            cyclic;
    }
    top
    {
        type            symmetryPlane;
    }
    walls
    {
        type            calculated;
        value           uniform 0;
    }
    frontAndBackPlanes
    {
        type            empty;
    }
}


// ************************************************************************* //
