/*--------------------------------*- C++ -*----------------------------------*\
| =========                 |                                                 |
| \\      /  F ield         | OpenFOAM: The Open Source CFD Toolbox           |
|  \\    /   O peration     | Version:  2.4.x                                 |
|   \\  /    A nd           | Web:      www.OpenFOAM.org                      |
|    \\/     M anipulation  |                                                 |
\*---------------------------------------------------------------------------*/
FoamFile
{
    version     2.0;
    format      ascii;
    class       volVectorField;
    location    "8";
    object      U;
}
// * * * * * * * * * * * * * * * * * * * * * * * * * * * * * * * * * * * * * //

dimensions      [0 1 -1 0 0 0 0];

internalField   nonuniform List<vector> 
360
(
(0.000106482 1.27261e-08 0)
(0.000105706 -2.42673e-09 0)
(0.000105613 -2.2785e-09 0)
(0.00010573 1.27541e-10 0)
(0.000105799 5.05305e-10 0)
(0.000105835 1.37526e-10 0)
(0.000105873 -2.92102e-11 0)
(0.000105916 -3.60024e-11 0)
(0.000105961 -2.63767e-11 0)
(0.000106005 -2.55946e-11 0)
(0.00010605 -3.07227e-11 0)
(0.000106094 -4.00493e-11 0)
(0.000106139 -4.79527e-11 0)
(0.000106183 -5.27201e-11 0)
(0.000106228 -5.40781e-11 0)
(0.000106273 -5.35529e-11 0)
(0.000106318 -5.31454e-11 0)
(0.000106362 -5.27622e-11 0)
(0.000106407 -5.22729e-11 0)
(0.000106453 -5.04628e-11 0)
(0.000106498 -4.98759e-11 0)
(0.000106543 -4.69119e-11 0)
(0.000106589 -4.42354e-11 0)
(0.000106634 -4.19489e-11 0)
(0.00010668 -3.94327e-11 0)
(0.000106726 -3.67161e-11 0)
(0.000106772 -3.41208e-11 0)
(0.000106819 -3.02098e-11 0)
(0.000106865 -2.7919e-11 0)
(0.000106912 -2.55556e-11 0)
(0.000106959 -2.34582e-11 0)
(0.000107006 -1.90157e-11 0)
(0.000107054 -1.95423e-11 0)
(0.000107102 -1.38118e-11 0)
(0.000107149 -1.47502e-11 0)
(0.000107198 -1.20501e-11 0)
(0.000107246 -1.07397e-11 0)
(0.000107295 -8.91973e-12 0)
(0.000107345 -5.55506e-12 0)
(0.000107394 -9.36609e-12 0)
(0.000107444 -4.45734e-12 0)
(0.000107494 -4.50446e-12 0)
(0.000107545 -7.68471e-12 0)
(0.000107596 -2.17081e-12 0)
(0.000107647 -4.35972e-12 0)
(0.000107699 -5.40865e-12 0)
(0.000107751 -4.43026e-12 0)
(0.000107803 -8.89526e-12 0)
(0.000107856 -6.6607e-12 0)
(0.000107909 -2.51805e-12 0)
(0.000107963 -1.04858e-11 0)
(0.000108017 -8.02093e-12 0)
(0.000108072 -1.0925e-11 0)
(0.000108127 -9.39971e-12 0)
(0.000108182 -1.62903e-11 0)
(0.000108238 -1.13074e-11 0)
(0.000108294 -2.01323e-11 0)
(0.000108351 -1.912e-11 0)
(0.000108408 -2.1581e-11 0)
(0.000108466 -2.872e-11 0)
(0.000108525 -2.04967e-11 0)
(0.000108583 -2.85672e-11 0)
(0.000108643 -2.58412e-11 0)
(0.000108703 -3.14027e-11 0)
(0.000108763 -3.35132e-11 0)
(0.000108824 -3.83865e-11 0)
(0.000108886 -4.01479e-11 0)
(0.000108948 -4.38755e-11 0)
(0.000109011 -4.70198e-11 0)
(0.000109074 -5.27132e-11 0)
(0.000109138 -4.92205e-11 0)
(0.000109203 -4.72674e-11 0)
(0.000109268 -5.8406e-11 0)
(0.000109334 -5.25555e-11 0)
(0.000109401 -5.77585e-11 0)
(0.000109468 -5.73243e-11 0)
(0.000109536 -6.60447e-11 0)
(0.000109605 -6.98051e-11 0)
(0.000109675 -7.21794e-11 0)
(0.000109745 -7.36804e-11 0)
(0.000109817 -7.76829e-11 0)
(0.000109889 -7.72263e-11 0)
(0.000109962 -7.66218e-11 0)
(0.000110036 -7.76896e-11 0)
(0.000110111 -7.82538e-11 0)
(0.000110187 -8.09689e-11 0)
(0.000110264 -8.31672e-11 0)
(0.000110342 -8.74311e-11 0)
(0.000110421 -9.1438e-11 0)
(0.000110501 -9.4098e-11 0)
(0.000110583 -9.61681e-11 0)
(0.000110665 -9.77346e-11 0)
(0.000110749 -9.77083e-11 0)
(0.000110835 -9.7577e-11 0)
(0.000110921 -9.76622e-11 0)
(0.000111009 -9.80597e-11 0)
(0.000111099 -9.89576e-11 0)
(0.00011119 -1.00408e-10 0)
(0.000111283 -1.02189e-10 0)
(0.000111377 -1.03971e-10 0)
(0.000111473 -1.05722e-10 0)
(0.000111571 -1.073e-10 0)
(0.000111671 -1.08559e-10 0)
(0.000111773 -1.09572e-10 0)
(0.000111877 -1.10325e-10 0)
(0.000111983 -1.10709e-10 0)
(0.000112092 -1.10627e-10 0)
(0.000112202 -1.09942e-10 0)
(0.000112316 -1.08484e-10 0)
(0.000112432 -1.06115e-10 0)
(0.00011255 -1.02724e-10 0)
(0.000112672 -9.82243e-11 0)
(0.000112797 -9.25835e-11 0)
(0.000112925 -8.58234e-11 0)
(0.000113056 -7.80384e-11 0)
(0.000113191 -6.94211e-11 0)
(0.000113329 -6.02855e-11 0)
(0.000113471 -5.10872e-11 0)
(0.000113618 -4.24508e-11 0)
(0.000113768 -3.51928e-11 0)
(0.000113924 -3.0317e-11 0)
(0.000114083 -2.89564e-11 0)
(0.000114248 -3.22517e-11 0)
(0.000114419 -4.11596e-11 0)
(0.000114594 -5.62325e-11 0)
(0.000114776 -7.75089e-11 0)
(0.000114965 -1.04634e-10 0)
(0.00011516 -1.37128e-10 0)
(0.000115363 -1.74395e-10 0)
(0.000115575 -2.15259e-10 0)
(0.000115795 -2.57601e-10 0)
(0.000116025 -2.99433e-10 0)
(0.000116265 -3.37191e-10 0)
(0.000116518 -3.57123e-10 0)
(0.000116786 -3.42187e-10 0)
(0.00011707 -3.11242e-10 0)
(0.000117367 -3.17823e-10 0)
(0.000117683 -4.02024e-10 0)
(0.000118032 -5.2975e-10 0)
(0.000118433 -5.13401e-10 0)
(0.000118868 -4.13445e-10 0)
(0.000119288 -1.6084e-09 0)
(0.000119796 -2.11284e-09 0)
(0.000120456 -1.92117e-09 0)
(0.000121285 -3.48559e-08 0)
(0.000122896 7.29509e-07 0)
(0.00012531 -4.34221e-06 0)
(0.000167296 1.54754e-05 0)
(0.041779 -1.92385e-05 0)
(0.170987 -0.00031435 0)
(0.288471 5.66323e-05 0)
(0.380762 -1.20352e-05 0)
(0.456267 -1.23022e-05 0)
(0.519327 -7.87339e-06 0)
(0.572665 -5.30908e-06 0)
(0.618096 -3.7606e-06 0)
(0.65686 -2.55102e-06 0)
(0.68978 -1.52806e-06 0)
(0.717382 -7.20586e-07 0)
(0.740005 -1.78939e-07 0)
(0.757958 7.86709e-08 0)
(0.77167 1.3966e-07 0)
(0.781766 1.41994e-07 0)
(0.788989 1.35133e-07 0)
(0.794067 1.08144e-07 0)
(0.797599 7.10541e-08 0)
(0.800029 4.20133e-08 0)
(0.801671 2.49302e-08 0)
(0.802735 1.57098e-08 0)
(0.803367 1.04805e-08 0)
(0.803668 7.24918e-09 0)
(0.803706 5.14131e-09 0)
(0.803533 3.72305e-09 0)
(0.803184 2.73984e-09 0)
(0.802688 2.04271e-09 0)
(0.802066 1.53803e-09 0)
(0.801333 1.16629e-09 0)
(0.800504 8.88569e-10 0)
(0.799588 6.78656e-10 0)
(0.798594 5.18431e-10 0)
(0.797531 3.9513e-10 0)
(0.796404 2.99602e-10 0)
(0.795219 2.25189e-10 0)
(0.793981 1.66977e-10 0)
(0.792693 1.21293e-10 0)
(0.791361 8.53621e-11 0)
(0.789987 5.70718e-11 0)
(0.788575 3.4819e-11 0)
(0.787128 1.7396e-11 0)
(0.785647 3.82039e-12 0)
(0.784137 -6.71574e-12 0)
(0.782599 -1.4824e-11 0)
(0.781035 -2.09788e-11 0)
(0.779448 -2.55523e-11 0)
(0.777839 -2.88392e-11 0)
(0.776211 -3.10703e-11 0)
(0.774565 -3.24175e-11 0)
(0.772902 -3.30319e-11 0)
(0.771224 -3.30526e-11 0)
(0.769533 -3.26017e-11 0)
(0.76783 -3.16683e-11 0)
(0.766099 -3.18109e-11 0)
(0.764322 -3.14334e-11 0)
(0.762499 -3.07285e-11 0)
(0.76063 -2.96416e-11 0)
(0.758714 -2.82895e-11 0)
(0.75675 -2.65102e-11 0)
(0.754739 -2.44609e-11 0)
(0.75268 -2.2008e-11 0)
(0.750574 -1.94552e-11 0)
(0.748419 -1.6651e-11 0)
(0.746217 -1.43481e-11 0)
(0.743966 -1.19556e-11 0)
(0.741668 -8.70155e-12 0)
(0.739323 -5.9579e-12 0)
(0.73693 -4.62991e-12 0)
(0.734491 -2.64244e-12 0)
(0.732005 -2.0253e-13 0)
(0.729475 1.14736e-12 0)
(0.7269 1.97286e-12 0)
(0.724281 2.27415e-12 0)
(0.721621 3.42697e-12 0)
(0.718919 4.30145e-12 0)
(0.716178 3.60949e-12 0)
(0.7134 3.88952e-12 0)
(0.710585 4.16597e-12 0)
(0.707737 3.84155e-12 0)
(0.704858 3.63492e-12 0)
(0.70195 3.56253e-12 0)
(0.699017 3.198e-12 0)
(0.696061 3.72493e-12 0)
(0.693087 1.73287e-12 0)
(0.690098 2.04391e-12 0)
(0.6871 1.92509e-12 0)
(0.684097 1.0541e-11 0)
(0.681094 -5.61086e-12 0)
(0.678099 7.94414e-12 0)
(0.675119 -1.34307e-12 0)
(0.67216 -5.15082e-13 0)
(0.669232 8.18981e-12 0)
(0.666344 -2.48351e-12 0)
(0.663507 3.43538e-13 0)
(0.660734 1.9457e-11 0)
(0.658037 1.85332e-11 0)
(0.655431 1.80626e-12 0)
(0.652934 1.24352e-12 0)
(0.650563 2.31961e-12 0)
(0.648337 2.53447e-12 0)
(0.64628 2.40261e-12 0)
(0.644413 2.28806e-12 0)
(0.642759 2.20467e-12 0)
(0.641343 2.08974e-12 0)
(0.640186 1.99644e-12 0)
(0.639306 2.38149e-12 0)
(0.638713 4.4535e-12 0)
(0.63841 -1.24524e-11 0)
(0.63839 4.00286e-11 0)
(0.638631 -7.5726e-11 0)
(0.639101 1.34194e-10 0)
(0.639754 -2.03103e-10 0)
(0.640528 2.93388e-10 0)
(0.641338 -3.91896e-10 0)
(0.642047 5.05982e-10 0)
(0.642335 -6.22524e-10 0)
(0.642362 7.47921e-10 0)
(0.642363 -8.72498e-10 0)
(0.642363 1.00395e-09 0)
(0.642363 -1.13489e-09 0)
(0.642363 1.2725e-09 0)
(0.642363 -1.4102e-09 0)
(0.642363 1.55446e-09 0)
(0.642363 -1.69936e-09 0)
(0.642363 1.85072e-09 0)
(0.642363 -2.00322e-09 0)
(0.642363 2.16212e-09 0)
(0.642363 -2.32258e-09 0)
(0.642363 2.48937e-09 0)
(0.642363 -2.65813e-09 0)
(0.642363 2.83313e-09 0)
(0.642363 -3.0105e-09 0)
(0.642363 3.19399e-09 0)
(0.642363 -3.38021e-09 0)
(0.642363 3.57247e-09 0)
(0.642363 -3.76777e-09 0)
(0.642363 3.96902e-09 0)
(0.642363 -4.17362e-09 0)
(0.642363 4.38405e-09 0)
(0.642363 -4.59814e-09 0)
(0.642363 4.81792e-09 0)
(0.642363 -5.04164e-09 0)
(0.642363 5.27093e-09 0)
(0.642363 -5.50443e-09 0)
(0.642363 5.74336e-09 0)
(0.642363 -5.98673e-09 0)
(0.642363 6.23541e-09 0)
(0.642363 -6.48875e-09 0)
(0.642363 6.74726e-09 0)
(0.642363 -7.0106e-09 0)
(0.642363 7.27904e-09 0)
(0.642363 -7.5524e-09 0)
(0.642363 7.83078e-09 0)
(0.642363 -8.11417e-09 0)
(0.642363 8.40248e-09 0)
(0.642363 -8.69585e-09 0)
(0.642363 8.99404e-09 0)
(0.642363 -9.29729e-09 0)
(0.642363 9.60525e-09 0)
(0.642363 -9.91824e-09 0)
(0.642363 1.02358e-08 0)
(0.642363 -1.05583e-08 0)
(0.642363 9.5566e-09 0)
(0.642363 -9.66722e-09 0)
(0.642363 9.77643e-09 0)
(0.642363 -9.88472e-09 0)
(0.642363 9.99156e-09 0)
(0.642363 -1.00975e-08 0)
(0.642363 1.02019e-08 0)
(0.642363 -1.03055e-08 0)
(0.642363 1.04074e-08 0)
(0.642363 -1.05085e-08 0)
(0.642363 1.06079e-08 0)
(0.642363 -1.07065e-08 0)
(0.642363 1.08033e-08 0)
(0.642363 -1.08993e-08 0)
(0.642363 1.09935e-08 0)
(0.642363 -1.10868e-08 0)
(0.642363 1.11783e-08 0)
(0.642363 -1.12689e-08 0)
(0.642363 1.13575e-08 0)
(0.642363 -1.14454e-08 0)
(0.642363 1.1531e-08 0)
(0.642363 -1.16162e-08 0)
(0.642363 1.16986e-08 0)
(0.642363 -1.17811e-08 0)
(0.642363 1.18601e-08 0)
(0.642363 -1.19398e-08 0)
(0.642363 1.20153e-08 0)
(0.642363 -1.2092e-08 0)
(0.642363 1.2164e-08 0)
(0.642363 -1.22375e-08 0)
(0.642363 1.23057e-08 0)
(0.642363 -1.23759e-08 0)
(0.642363 1.24403e-08 0)
(0.642363 -1.25068e-08 0)
(0.642363 1.25671e-08 0)
(0.642363 -1.26299e-08 0)
(0.642363 1.26858e-08 0)
(0.642363 -1.27446e-08 0)
(0.642363 1.27957e-08 0)
(0.642363 -1.28501e-08 0)
(0.642363 1.2896e-08 0)
(0.642363 -1.29456e-08 0)
(0.642363 1.29857e-08 0)
(0.642363 -1.30297e-08 0)
(0.642363 1.30633e-08 0)
(0.642363 -1.31008e-08 0)
(0.642363 1.31265e-08 0)
(0.642363 -1.31553e-08 0)
(0.642363 1.317e-08 0)
(0.642363 -1.31852e-08 0)
)
;

boundaryField
{
    inandouthalf11
    {
        type            cyclic;
    }
    inandouthalf12
    {
        type            cyclic;
    }
    inandouthalf21
    {
        type            cyclic;
    }
    inandouthalf22
    {
        type            cyclic;
    }
    inandouthalf31
    {
        type            cyclic;
    }
    inandouthalf32
    {
        type            cyclic;
    }
    inandouthalf41
    {
        type            cyclic;
    }
    inandouthalf42
    {
        type            cyclic;
    }
    top
    {
        type            symmetryPlane;
    }
    walls
    {
        type            calculated;
        value           uniform (0 0 0);
    }
    frontAndBackPlanes
    {
        type            empty;
    }
}


// ************************************************************************* //
