/*--------------------------------*- C++ -*----------------------------------*\
| =========                 |                                                 |
| \\      /  F ield         | OpenFOAM: The Open Source CFD Toolbox           |
|  \\    /   O peration     | Version:  2.4.x                                 |
|   \\  /    A nd           | Web:      www.OpenFOAM.org                      |
|    \\/     M anipulation  |                                                 |
\*---------------------------------------------------------------------------*/
FoamFile
{
    version     2.0;
    format      ascii;
    class       volVectorField;
    location    "8";
    object      Ua;
}
// * * * * * * * * * * * * * * * * * * * * * * * * * * * * * * * * * * * * * //

dimensions      [0 1 -1 0 0 0 0];

internalField   nonuniform List<vector> 
360
(
(1.55836e-32 -9.99099e-32 0)
(1.72326e-08 -7.82291e-08 0)
(3.59049e-08 -1.40886e-07 0)
(5.25872e-08 -1.95947e-07 0)
(6.94652e-08 -2.53995e-07 0)
(8.69671e-08 -3.14835e-07 0)
(1.04642e-07 -3.76256e-07 0)
(1.22238e-07 -4.37546e-07 0)
(1.39711e-07 -4.98671e-07 0)
(1.57064e-07 -5.5965e-07 0)
(1.74299e-07 -6.20489e-07 0)
(1.91405e-07 -6.81149e-07 0)
(2.08369e-07 -7.41566e-07 0)
(2.25178e-07 -8.0169e-07 0)
(2.41825e-07 -8.61489e-07 0)
(2.58309e-07 -9.20957e-07 0)
(2.74631e-07 -9.80097e-07 0)
(2.90795e-07 -1.03891e-06 0)
(3.06801e-07 -1.0974e-06 0)
(3.22653e-07 -1.15556e-06 0)
(3.38355e-07 -1.21342e-06 0)
(3.5391e-07 -1.27097e-06 0)
(3.69325e-07 -1.32823e-06 0)
(3.84604e-07 -1.38523e-06 0)
(3.99755e-07 -1.44197e-06 0)
(4.14781e-07 -1.49847e-06 0)
(4.29689e-07 -1.55475e-06 0)
(4.44485e-07 -1.61084e-06 0)
(4.59176e-07 -1.66674e-06 0)
(4.73767e-07 -1.72248e-06 0)
(4.88263e-07 -1.77807e-06 0)
(5.0267e-07 -1.83354e-06 0)
(5.16992e-07 -1.88889e-06 0)
(5.31234e-07 -1.94415e-06 0)
(5.45402e-07 -1.99933e-06 0)
(5.59498e-07 -2.05444e-06 0)
(5.73524e-07 -2.10948e-06 0)
(5.87485e-07 -2.16449e-06 0)
(6.01385e-07 -2.21946e-06 0)
(6.15225e-07 -2.2744e-06 0)
(6.29006e-07 -2.32932e-06 0)
(6.42732e-07 -2.38424e-06 0)
(6.56402e-07 -2.43913e-06 0)
(6.70017e-07 -2.49401e-06 0)
(6.83579e-07 -2.5489e-06 0)
(6.97089e-07 -2.60378e-06 0)
(7.10545e-07 -2.65866e-06 0)
(7.23944e-07 -2.71352e-06 0)
(7.37286e-07 -2.76836e-06 0)
(7.50574e-07 -2.82319e-06 0)
(7.63807e-07 -2.87802e-06 0)
(7.76981e-07 -2.93281e-06 0)
(7.90095e-07 -2.98758e-06 0)
(8.03148e-07 -3.04231e-06 0)
(8.16137e-07 -3.09699e-06 0)
(8.2906e-07 -3.15162e-06 0)
(8.41915e-07 -3.20619e-06 0)
(8.54697e-07 -3.26067e-06 0)
(8.67402e-07 -3.31505e-06 0)
(8.80026e-07 -3.36931e-06 0)
(8.92567e-07 -3.42344e-06 0)
(9.05026e-07 -3.47745e-06 0)
(9.17401e-07 -3.53132e-06 0)
(9.29688e-07 -3.58506e-06 0)
(9.41885e-07 -3.63863e-06 0)
(9.53985e-07 -3.692e-06 0)
(9.65984e-07 -3.74518e-06 0)
(9.77879e-07 -3.79813e-06 0)
(9.89664e-07 -3.85083e-06 0)
(1.00133e-06 -3.90325e-06 0)
(1.01289e-06 -3.95539e-06 0)
(1.02433e-06 -4.00726e-06 0)
(1.03565e-06 -4.05883e-06 0)
(1.04684e-06 -4.11009e-06 0)
(1.05792e-06 -4.16105e-06 0)
(1.06888e-06 -4.21169e-06 0)
(1.0797e-06 -4.26199e-06 0)
(1.0904e-06 -4.31191e-06 0)
(1.10095e-06 -4.36143e-06 0)
(1.11136e-06 -4.41053e-06 0)
(1.12163e-06 -4.4592e-06 0)
(1.13175e-06 -4.50742e-06 0)
(1.14172e-06 -4.5552e-06 0)
(1.15155e-06 -4.60253e-06 0)
(1.16124e-06 -4.64943e-06 0)
(1.17078e-06 -4.69587e-06 0)
(1.18017e-06 -4.74186e-06 0)
(1.18941e-06 -4.78736e-06 0)
(1.1985e-06 -4.83237e-06 0)
(1.20743e-06 -4.87685e-06 0)
(1.2162e-06 -4.92079e-06 0)
(1.22481e-06 -4.96418e-06 0)
(1.23326e-06 -5.00701e-06 0)
(1.24155e-06 -5.0493e-06 0)
(1.24968e-06 -5.09103e-06 0)
(1.25765e-06 -5.13221e-06 0)
(1.26546e-06 -5.17285e-06 0)
(1.27312e-06 -5.21294e-06 0)
(1.28062e-06 -5.25248e-06 0)
(1.28796e-06 -5.29145e-06 0)
(1.29514e-06 -5.32985e-06 0)
(1.30216e-06 -5.36768e-06 0)
(1.30902e-06 -5.40492e-06 0)
(1.31572e-06 -5.44158e-06 0)
(1.32226e-06 -5.47766e-06 0)
(1.32864e-06 -5.51315e-06 0)
(1.33486e-06 -5.54806e-06 0)
(1.34092e-06 -5.58239e-06 0)
(1.34683e-06 -5.61616e-06 0)
(1.35258e-06 -5.64939e-06 0)
(1.35819e-06 -5.68209e-06 0)
(1.36364e-06 -5.7143e-06 0)
(1.36896e-06 -5.74606e-06 0)
(1.37415e-06 -5.77741e-06 0)
(1.3792e-06 -5.80841e-06 0)
(1.38414e-06 -5.83911e-06 0)
(1.38896e-06 -5.8696e-06 0)
(1.39367e-06 -5.89993e-06 0)
(1.39827e-06 -5.93018e-06 0)
(1.40277e-06 -5.96043e-06 0)
(1.40717e-06 -5.99074e-06 0)
(1.41145e-06 -6.02115e-06 0)
(1.41561e-06 -6.05169e-06 0)
(1.41963e-06 -6.08237e-06 0)
(1.42349e-06 -6.11315e-06 0)
(1.42717e-06 -6.14395e-06 0)
(1.43063e-06 -6.17466e-06 0)
(1.43383e-06 -6.20515e-06 0)
(1.43675e-06 -6.23525e-06 0)
(1.43934e-06 -6.26476e-06 0)
(1.44159e-06 -6.29343e-06 0)
(1.44345e-06 -6.32101e-06 0)
(1.44493e-06 -6.34728e-06 0)
(1.44602e-06 -6.37215e-06 0)
(1.44672e-06 -6.39564e-06 0)
(1.44705e-06 -6.41785e-06 0)
(1.447e-06 -6.43885e-06 0)
(1.44658e-06 -6.45884e-06 0)
(1.44574e-06 -6.47828e-06 0)
(1.44445e-06 -6.49747e-06 0)
(1.44275e-06 -6.51548e-06 0)
(1.44097e-06 -6.52964e-06 0)
(1.43959e-06 -6.53833e-06 0)
(1.43887e-06 -6.54232e-06 0)
(1.43868e-06 -6.54348e-06 0)
(1.43874e-06 -6.54376e-06 0)
(1.43904e-06 -6.54388e-06 0)
(1.63478e-06 -6.56477e-06 0)
(0.0396014 0.000183469 0)
(0.158352 0.00305636 0)
(0.274516 0.00459016 0)
(0.367605 0.00542971 0)
(0.443511 0.00613634 0)
(0.506449 0.0067995 0)
(0.559073 0.00742905 0)
(0.603107 0.00801533 0)
(0.639703 0.00854122 0)
(0.669675 0.00898145 0)
(0.693697 0.00930126 0)
(0.712465 0.0094538 0)
(0.726778 0.00938317 0)
(0.73751 0.0090501 0)
(0.745511 0.00847273 0)
(0.751489 0.00773193 0)
(0.755972 0.0069274 0)
(0.759329 0.0061339 0)
(0.761814 0.00539067 0)
(0.763608 0.00471226 0)
(0.764843 0.00410086 0)
(0.765619 0.00355349 0)
(0.766013 0.00306533 0)
(0.766087 0.00263114 0)
(0.765889 0.00224585 0)
(0.76546 0.0019048 0)
(0.764835 0.00160375 0)
(0.764041 0.00133887 0)
(0.763102 0.00110675 0)
(0.762039 0.000904298 0)
(0.760872 0.000728748 0)
(0.759614 0.000577603 0)
(0.758282 0.000448612 0)
(0.756886 0.000339746 0)
(0.755439 0.000249172 0)
(0.75395 0.000175237 0)
(0.752429 0.000116444 0)
(0.750884 7.14398e-05 0)
(0.749322 3.89979e-05 0)
(0.747751 1.80046e-05 0)
(0.746176 7.44664e-06 0)
(0.744605 6.40101e-06 0)
(0.743042 1.40242e-05 0)
(0.741492 2.95421e-05 0)
(0.739961 5.2238e-05 0)
(0.738454 8.14411e-05 0)
(0.736973 0.000116513 0)
(0.735524 0.000156839 0)
(0.73411 0.000201809 0)
(0.732735 0.000250815 0)
(0.731403 0.000303235 0)
(0.730116 0.000358438 0)
(0.728878 0.00041579 0)
(0.727679 0.000475263 0)
(0.726508 0.000536852 0)
(0.725366 0.000599914 0)
(0.724254 0.000663744 0)
(0.723172 0.000727598 0)
(0.72212 0.000790716 0)
(0.721099 0.000852355 0)
(0.720109 0.000911803 0)
(0.719148 0.000968395 0)
(0.718218 0.00102153 0)
(0.717317 0.0010707 0)
(0.716444 0.00111549 0)
(0.715598 0.00115566 0)
(0.714778 0.00119105 0)
(0.713984 0.00122153 0)
(0.713212 0.00124711 0)
(0.712463 0.0012679 0)
(0.711735 0.00128406 0)
(0.711026 0.00129571 0)
(0.710336 0.00130303 0)
(0.709664 0.00130638 0)
(0.709009 0.00130629 0)
(0.708371 0.00130333 0)
(0.707749 0.0012984 0)
(0.707144 0.001293 0)
(0.706556 0.00128925 0)
(0.705987 0.00128959 0)
(0.705438 0.00129567 0)
(0.704911 0.00130787 0)
(0.704409 0.00132641 0)
(0.703938 0.00135129 0)
(0.703507 0.00138449 0)
(0.703132 0.00143052 0)
(0.702832 0.00149779 0)
(0.702613 0.00156157 0)
(0.702402 0.00160176 0)
(0.667777 0.00138723 0)
(0.664493 0.00152128 0)
(0.661574 0.00184359 0)
(0.658675 0.00161252 0)
(0.655861 0.00193701 0)
(0.653057 0.00323736 0)
(0.651517 -0.0246339 0)
(0.649738 -0.0396072 0)
(0.647017 -0.0395573 0)
(0.644719 -0.0395594 0)
(0.642541 -0.0395555 0)
(0.640538 -0.0395516 0)
(0.63873 -0.0395469 0)
(0.637141 -0.0395417 0)
(0.635793 -0.039536 0)
(0.634705 -0.03953 0)
(0.633887 -0.0395235 0)
(0.633369 -0.0395176 0)
(0.633156 -0.039513 0)
(0.633179 -0.0395069 0)
(0.633475 -0.0395026 0)
(0.633987 -0.0394987 0)
(0.634669 -0.0394954 0)
(0.635457 -0.0394921 0)
(0.636271 -0.0394879 0)
(0.636911 -0.0394799 0)
(0.637135 -0.0394731 0)
(0.637155 -0.039471 0)
(0.637155 -0.0394709 0)
(0.637155 -0.0394708 0)
(0.637155 -0.0394708 0)
(0.637155 -0.0394708 0)
(0.637155 -0.0394708 0)
(0.637155 -0.0394708 0)
(0.637155 -0.0394708 0)
(0.637155 -0.0394708 0)
(0.637155 -0.0394708 0)
(0.637155 -0.0394708 0)
(0.637155 -0.0394708 0)
(0.637155 -0.0394708 0)
(0.637155 -0.0394708 0)
(0.637155 -0.0394708 0)
(0.637155 -0.0394708 0)
(0.637155 -0.0394708 0)
(0.637155 -0.0394708 0)
(0.637155 -0.0394708 0)
(0.637155 -0.0394708 0)
(0.637155 -0.0394708 0)
(0.637155 -0.0394708 0)
(0.637155 -0.0394708 0)
(0.637155 -0.0394708 0)
(0.637155 -0.0394708 0)
(0.637155 -0.0394708 0)
(0.637155 -0.0394708 0)
(0.637155 -0.0394708 0)
(0.637155 -0.0394708 0)
(0.637155 -0.0394708 0)
(0.637155 -0.0394708 0)
(0.637155 -0.0394708 0)
(0.637155 -0.0394708 0)
(0.637155 -0.0394708 0)
(0.637155 -0.0394708 0)
(0.637155 -0.0394708 0)
(0.637155 -0.0394708 0)
(0.637155 -0.0394708 0)
(0.637155 -0.0394708 0)
(0.637155 -0.0394708 0)
(0.637155 -0.0394708 0)
(0.637155 -0.0394708 0)
(0.637155 -0.0394708 0)
(0.637155 -0.0394708 0)
(0.637155 -0.0394708 0)
(0.637155 -0.0394708 0)
(0.637155 -0.0394708 0)
(0.637155 -0.0394708 0)
(0.637155 -0.0394708 0)
(0.637155 -0.0394708 0)
(0.637155 -0.0394708 0)
(0.637155 -0.0394708 0)
(0.637155 -0.0394708 0)
(0.637155 -0.0394708 0)
(0.637155 -0.0394708 0)
(0.637155 -0.0394708 0)
(0.637155 -0.0394708 0)
(0.637155 -0.0394708 0)
(0.637155 -0.0394708 0)
(0.637155 -0.0394708 0)
(0.637155 -0.0394708 0)
(0.637155 -0.0394708 0)
(0.637155 -0.0394708 0)
(0.637155 -0.0394708 0)
(0.637155 -0.0394708 0)
(0.637155 -0.0394708 0)
(0.637155 -0.0394708 0)
(0.637155 -0.0394708 0)
(0.637155 -0.0394708 0)
(0.637155 -0.0394708 0)
(0.637155 -0.0394708 0)
(0.637155 -0.0394708 0)
(0.637155 -0.0394708 0)
(0.637155 -0.0394708 0)
(0.637155 -0.0394708 0)
(0.637155 -0.0394708 0)
(0.637155 -0.0394708 0)
(0.637155 -0.0394708 0)
(0.637155 -0.0394708 0)
(0.637155 -0.0394708 0)
(0.637155 -0.0394708 0)
(0.637155 -0.0394708 0)
(0.637155 -0.0394708 0)
(0.637155 -0.0394708 0)
(0.637155 -0.0394708 0)
(0.637155 -0.0394708 0)
(0.637155 -0.0394708 0)
(0.637155 -0.0394708 0)
(0.637155 -0.0394708 0)
(0.637155 -0.0394708 0)
(0.637155 -0.0394708 0)
(0.637155 -0.0394708 0)
(0.637155 -0.0394706 0)
(0.637154 -0.0394621 0)
(0.637119 -0.0391159 0)
(0.636303 -0.0223459 0)
)
;

boundaryField
{
    inandouthalf11
    {
        type            cyclic;
    }
    inandouthalf12
    {
        type            cyclic;
    }
    inandouthalf21
    {
        type            cyclic;
    }
    inandouthalf22
    {
        type            cyclic;
    }
    inandouthalf31
    {
        type            cyclic;
    }
    inandouthalf32
    {
        type            cyclic;
    }
    inandouthalf41
    {
        type            cyclic;
    }
    inandouthalf42
    {
        type            cyclic;
    }
    top
    {
        type            symmetryPlane;
    }
    walls
    {
        type            fixedValue;
        value           uniform (0 0 0);
    }
    frontAndBackPlanes
    {
        type            empty;
    }
}


// ************************************************************************* //
