/*--------------------------------*- C++ -*----------------------------------*\
| =========                 |                                                 |
| \\      /  F ield         | OpenFOAM: The Open Source CFD Toolbox           |
|  \\    /   O peration     | Version:  2.4.x                                 |
|   \\  /    A nd           | Web:      www.OpenFOAM.org                      |
|    \\/     M anipulation  |                                                 |
\*---------------------------------------------------------------------------*/
FoamFile
{
    version     2.0;
    format      ascii;
    class       volVectorField;
    location    "8";
    object      Ua_0;
}
// * * * * * * * * * * * * * * * * * * * * * * * * * * * * * * * * * * * * * //

dimensions      [0 1 -1 0 0 0 0];

internalField   nonuniform List<vector> 
360
(
(1.55806e-32 -9.99102e-32 0)
(1.7231e-08 -7.82374e-08 0)
(3.59012e-08 -1.409e-07 0)
(5.25816e-08 -1.95966e-07 0)
(6.94573e-08 -2.54019e-07 0)
(8.69567e-08 -3.14863e-07 0)
(1.04629e-07 -3.76289e-07 0)
(1.22222e-07 -4.37583e-07 0)
(1.39693e-07 -4.98712e-07 0)
(1.57043e-07 -5.59695e-07 0)
(1.74275e-07 -6.20538e-07 0)
(1.91378e-07 -6.81201e-07 0)
(2.08339e-07 -7.41622e-07 0)
(2.25145e-07 -8.0175e-07 0)
(2.41789e-07 -8.61552e-07 0)
(2.5827e-07 -9.21023e-07 0)
(2.7459e-07 -9.80167e-07 0)
(2.9075e-07 -1.03898e-06 0)
(3.06754e-07 -1.09747e-06 0)
(3.22603e-07 -1.15565e-06 0)
(3.38302e-07 -1.2135e-06 0)
(3.53854e-07 -1.27106e-06 0)
(3.69266e-07 -1.32833e-06 0)
(3.84543e-07 -1.38533e-06 0)
(3.9969e-07 -1.44207e-06 0)
(4.14714e-07 -1.49858e-06 0)
(4.29619e-07 -1.55487e-06 0)
(4.44413e-07 -1.61095e-06 0)
(4.59101e-07 -1.66686e-06 0)
(4.7369e-07 -1.72261e-06 0)
(4.88184e-07 -1.7782e-06 0)
(5.02588e-07 -1.83368e-06 0)
(5.16907e-07 -1.88903e-06 0)
(5.31147e-07 -1.9443e-06 0)
(5.45312e-07 -1.99948e-06 0)
(5.59405e-07 -2.0546e-06 0)
(5.73429e-07 -2.10965e-06 0)
(5.87388e-07 -2.16466e-06 0)
(6.01286e-07 -2.21964e-06 0)
(6.15123e-07 -2.27459e-06 0)
(6.28902e-07 -2.32952e-06 0)
(6.42626e-07 -2.38444e-06 0)
(6.56293e-07 -2.43934e-06 0)
(6.69906e-07 -2.49423e-06 0)
(6.83466e-07 -2.54912e-06 0)
(6.96973e-07 -2.60401e-06 0)
(7.10426e-07 -2.6589e-06 0)
(7.23823e-07 -2.71377e-06 0)
(7.37163e-07 -2.76861e-06 0)
(7.50449e-07 -2.82346e-06 0)
(7.63679e-07 -2.87829e-06 0)
(7.7685e-07 -2.93309e-06 0)
(7.89962e-07 -2.98787e-06 0)
(8.03013e-07 -3.04261e-06 0)
(8.15999e-07 -3.0973e-06 0)
(8.2892e-07 -3.15193e-06 0)
(8.41772e-07 -3.20651e-06 0)
(8.54551e-07 -3.26099e-06 0)
(8.67254e-07 -3.31539e-06 0)
(8.79875e-07 -3.36965e-06 0)
(8.92414e-07 -3.42379e-06 0)
(9.0487e-07 -3.47781e-06 0)
(9.17242e-07 -3.53169e-06 0)
(9.29527e-07 -3.58543e-06 0)
(9.41721e-07 -3.63901e-06 0)
(9.53818e-07 -3.6924e-06 0)
(9.65814e-07 -3.74558e-06 0)
(9.77707e-07 -3.79854e-06 0)
(9.89489e-07 -3.85125e-06 0)
(1.00116e-06 -3.90368e-06 0)
(1.01271e-06 -3.95582e-06 0)
(1.02414e-06 -4.0077e-06 0)
(1.03546e-06 -4.05928e-06 0)
(1.04666e-06 -4.11055e-06 0)
(1.05773e-06 -4.16151e-06 0)
(1.06868e-06 -4.21216e-06 0)
(1.07951e-06 -4.26247e-06 0)
(1.0902e-06 -4.3124e-06 0)
(1.10075e-06 -4.36192e-06 0)
(1.11115e-06 -4.41103e-06 0)
(1.12142e-06 -4.45971e-06 0)
(1.13154e-06 -4.50794e-06 0)
(1.14151e-06 -4.55572e-06 0)
(1.15133e-06 -4.60307e-06 0)
(1.16102e-06 -4.64997e-06 0)
(1.17055e-06 -4.69642e-06 0)
(1.17994e-06 -4.74241e-06 0)
(1.18918e-06 -4.78793e-06 0)
(1.19827e-06 -4.83294e-06 0)
(1.2072e-06 -4.87743e-06 0)
(1.21597e-06 -4.92137e-06 0)
(1.22457e-06 -4.96477e-06 0)
(1.23302e-06 -5.00761e-06 0)
(1.2413e-06 -5.0499e-06 0)
(1.24943e-06 -5.09164e-06 0)
(1.2574e-06 -5.13283e-06 0)
(1.26521e-06 -5.17348e-06 0)
(1.27286e-06 -5.21357e-06 0)
(1.28036e-06 -5.25312e-06 0)
(1.2877e-06 -5.29209e-06 0)
(1.29487e-06 -5.3305e-06 0)
(1.30189e-06 -5.36834e-06 0)
(1.30875e-06 -5.40559e-06 0)
(1.31545e-06 -5.44226e-06 0)
(1.32198e-06 -5.47834e-06 0)
(1.32836e-06 -5.51383e-06 0)
(1.33458e-06 -5.54875e-06 0)
(1.34064e-06 -5.58309e-06 0)
(1.34654e-06 -5.61687e-06 0)
(1.35229e-06 -5.6501e-06 0)
(1.35789e-06 -5.6828e-06 0)
(1.36335e-06 -5.71502e-06 0)
(1.36866e-06 -5.74678e-06 0)
(1.37385e-06 -5.77814e-06 0)
(1.3789e-06 -5.80914e-06 0)
(1.38383e-06 -5.83985e-06 0)
(1.38865e-06 -5.87034e-06 0)
(1.39336e-06 -5.90067e-06 0)
(1.39796e-06 -5.93093e-06 0)
(1.40245e-06 -5.96118e-06 0)
(1.40684e-06 -5.99149e-06 0)
(1.41112e-06 -6.02191e-06 0)
(1.41528e-06 -6.05246e-06 0)
(1.4193e-06 -6.08314e-06 0)
(1.42316e-06 -6.11392e-06 0)
(1.42683e-06 -6.14472e-06 0)
(1.43028e-06 -6.17543e-06 0)
(1.43348e-06 -6.20593e-06 0)
(1.43639e-06 -6.23603e-06 0)
(1.43899e-06 -6.26554e-06 0)
(1.44123e-06 -6.29421e-06 0)
(1.44309e-06 -6.32179e-06 0)
(1.44456e-06 -6.34806e-06 0)
(1.44564e-06 -6.37293e-06 0)
(1.44634e-06 -6.39642e-06 0)
(1.44667e-06 -6.41862e-06 0)
(1.44662e-06 -6.43962e-06 0)
(1.44619e-06 -6.45962e-06 0)
(1.44535e-06 -6.47905e-06 0)
(1.44405e-06 -6.49824e-06 0)
(1.44235e-06 -6.51626e-06 0)
(1.44057e-06 -6.53042e-06 0)
(1.43918e-06 -6.53911e-06 0)
(1.43846e-06 -6.5431e-06 0)
(1.43828e-06 -6.54425e-06 0)
(1.43833e-06 -6.54453e-06 0)
(1.43863e-06 -6.54465e-06 0)
(1.63849e-06 -6.56604e-06 0)
(0.039525 0.000183372 0)
(0.158229 0.00305598 0)
(0.274421 0.00459151 0)
(0.367522 0.00543111 0)
(0.443432 0.00613767 0)
(0.506368 0.00680072 0)
(0.558985 0.00743012 0)
(0.603011 0.00801616 0)
(0.639595 0.00854167 0)
(0.669552 0.00898133 0)
(0.693559 0.00930031 0)
(0.712312 0.00945171 0)
(0.72661 0.00937961 0)
(0.737331 0.00904495 0)
(0.745322 0.00846624 0)
(0.751293 0.00772461 0)
(0.755771 0.00691976 0)
(0.759124 0.00612628 0)
(0.761605 0.00538322 0)
(0.763395 0.00470506 0)
(0.764628 0.00409393 0)
(0.765401 0.00354682 0)
(0.765793 0.00305891 0)
(0.765865 0.00262496 0)
(0.765665 0.0022399 0)
(0.765235 0.00189905 0)
(0.764608 0.00159819 0)
(0.763812 0.00133349 0)
(0.762872 0.00110153 0)
(0.761809 0.000899237 0)
(0.76064 0.00072383 0)
(0.759382 0.000572816 0)
(0.758048 0.000443948 0)
(0.756652 0.000335195 0)
(0.755204 0.000244726 0)
(0.753714 0.000170887 0)
(0.752192 0.000112183 0)
(0.750646 6.72606e-05 0)
(0.749084 3.48937e-05 0)
(0.747512 1.3969e-05 0)
(0.745937 3.4739e-06 0)
(0.744365 2.48552e-06 0)
(0.742801 1.01608e-05 0)
(0.741251 2.57258e-05 0)
(0.73972 4.84644e-05 0)
(0.738212 7.77059e-05 0)
(0.736731 0.000112813 0)
(0.735281 0.000153169 0)
(0.733867 0.000198166 0)
(0.732492 0.000247196 0)
(0.731159 0.000299637 0)
(0.729872 0.000354858 0)
(0.728634 0.000412226 0)
(0.727434 0.000471713 0)
(0.726264 0.000533313 0)
(0.725122 0.000596383 0)
(0.724009 0.00066022 0)
(0.722927 0.000724077 0)
(0.721875 0.000787198 0)
(0.720854 0.000848836 0)
(0.719863 0.000908281 0)
(0.718903 0.000964869 0)
(0.717972 0.001018 0)
(0.717071 0.00106716 0)
(0.716198 0.00111194 0)
(0.715352 0.0011521 0)
(0.714532 0.00118748 0)
(0.713737 0.00121795 0)
(0.712965 0.00124351 0)
(0.712216 0.00126429 0)
(0.711488 0.00128043 0)
(0.710779 0.00129207 0)
(0.710089 0.00129938 0)
(0.709417 0.00130271 0)
(0.708762 0.00130261 0)
(0.708124 0.00129964 0)
(0.707502 0.0012947 0)
(0.706897 0.00128929 0)
(0.706309 0.00128553 0)
(0.70574 0.00128587 0)
(0.70519 0.00129196 0)
(0.704663 0.00130417 0)
(0.704161 0.00132271 0)
(0.70369 0.0013476 0)
(0.703259 0.00138081 0)
(0.702884 0.00142685 0)
(0.702584 0.00149413 0)
(0.702365 0.00155792 0)
(0.702154 0.00159809 0)
(0.667524 0.00138366 0)
(0.664241 0.00151764 0)
(0.661322 0.00184249 0)
(0.658423 0.00160747 0)
(0.655609 0.00193858 0)
(0.652804 0.00322882 0)
(0.651266 -0.0246473 0)
(0.649486 -0.0396072 0)
(0.646766 -0.0395573 0)
(0.644468 -0.0395594 0)
(0.64229 -0.0395555 0)
(0.640288 -0.0395515 0)
(0.63848 -0.0395469 0)
(0.636891 -0.0395417 0)
(0.635543 -0.039536 0)
(0.634456 -0.03953 0)
(0.633638 -0.0395235 0)
(0.633121 -0.0395176 0)
(0.632909 -0.039513 0)
(0.632932 -0.0395069 0)
(0.633229 -0.0395025 0)
(0.633741 -0.0394987 0)
(0.634423 -0.0394954 0)
(0.635212 -0.039492 0)
(0.636026 -0.0394879 0)
(0.636666 -0.0394799 0)
(0.636889 -0.0394731 0)
(0.636909 -0.039471 0)
(0.636909 -0.0394708 0)
(0.636909 -0.0394708 0)
(0.63691 -0.0394708 0)
(0.63691 -0.0394708 0)
(0.63691 -0.0394708 0)
(0.63691 -0.0394708 0)
(0.63691 -0.0394708 0)
(0.63691 -0.0394708 0)
(0.63691 -0.0394708 0)
(0.63691 -0.0394708 0)
(0.63691 -0.0394708 0)
(0.63691 -0.0394708 0)
(0.63691 -0.0394708 0)
(0.63691 -0.0394708 0)
(0.63691 -0.0394708 0)
(0.63691 -0.0394708 0)
(0.63691 -0.0394708 0)
(0.63691 -0.0394708 0)
(0.63691 -0.0394708 0)
(0.63691 -0.0394708 0)
(0.63691 -0.0394708 0)
(0.63691 -0.0394708 0)
(0.63691 -0.0394708 0)
(0.63691 -0.0394708 0)
(0.63691 -0.0394708 0)
(0.63691 -0.0394708 0)
(0.63691 -0.0394708 0)
(0.63691 -0.0394708 0)
(0.63691 -0.0394708 0)
(0.63691 -0.0394708 0)
(0.63691 -0.0394708 0)
(0.63691 -0.0394708 0)
(0.63691 -0.0394708 0)
(0.63691 -0.0394708 0)
(0.63691 -0.0394708 0)
(0.63691 -0.0394708 0)
(0.63691 -0.0394708 0)
(0.63691 -0.0394708 0)
(0.63691 -0.0394708 0)
(0.63691 -0.0394708 0)
(0.63691 -0.0394708 0)
(0.63691 -0.0394708 0)
(0.63691 -0.0394708 0)
(0.63691 -0.0394708 0)
(0.63691 -0.0394708 0)
(0.63691 -0.0394708 0)
(0.63691 -0.0394708 0)
(0.63691 -0.0394708 0)
(0.63691 -0.0394708 0)
(0.63691 -0.0394708 0)
(0.63691 -0.0394708 0)
(0.63691 -0.0394708 0)
(0.63691 -0.0394708 0)
(0.63691 -0.0394708 0)
(0.63691 -0.0394708 0)
(0.63691 -0.0394708 0)
(0.63691 -0.0394708 0)
(0.63691 -0.0394708 0)
(0.63691 -0.0394708 0)
(0.63691 -0.0394708 0)
(0.63691 -0.0394708 0)
(0.63691 -0.0394708 0)
(0.63691 -0.0394708 0)
(0.63691 -0.0394708 0)
(0.63691 -0.0394708 0)
(0.63691 -0.0394708 0)
(0.63691 -0.0394708 0)
(0.63691 -0.0394708 0)
(0.63691 -0.0394708 0)
(0.63691 -0.0394708 0)
(0.63691 -0.0394708 0)
(0.63691 -0.0394708 0)
(0.63691 -0.0394708 0)
(0.63691 -0.0394708 0)
(0.63691 -0.0394708 0)
(0.63691 -0.0394708 0)
(0.63691 -0.0394708 0)
(0.63691 -0.0394708 0)
(0.63691 -0.0394708 0)
(0.63691 -0.0394708 0)
(0.63691 -0.0394708 0)
(0.63691 -0.0394708 0)
(0.63691 -0.0394708 0)
(0.63691 -0.0394708 0)
(0.63691 -0.0394708 0)
(0.63691 -0.0394708 0)
(0.63691 -0.0394708 0)
(0.63691 -0.0394708 0)
(0.63691 -0.0394708 0)
(0.63691 -0.0394708 0)
(0.63691 -0.0394708 0)
(0.63691 -0.0394706 0)
(0.636908 -0.0394621 0)
(0.636873 -0.0391159 0)
(0.636058 -0.0223459 0)
)
;

boundaryField
{
    inandouthalf11
    {
        type            cyclic;
    }
    inandouthalf12
    {
        type            cyclic;
    }
    inandouthalf21
    {
        type            cyclic;
    }
    inandouthalf22
    {
        type            cyclic;
    }
    inandouthalf31
    {
        type            cyclic;
    }
    inandouthalf32
    {
        type            cyclic;
    }
    inandouthalf41
    {
        type            cyclic;
    }
    inandouthalf42
    {
        type            cyclic;
    }
    top
    {
        type            symmetryPlane;
    }
    walls
    {
        type            fixedValue;
        value           uniform (0 0 0);
    }
    frontAndBackPlanes
    {
        type            empty;
    }
}


// ************************************************************************* //
