/*--------------------------------*- C++ -*----------------------------------*\
| =========                 |                                                 |
| \\      /  F ield         | OpenFOAM: The Open Source CFD Toolbox           |
|  \\    /   O peration     | Version:  2.4.x                                 |
|   \\  /    A nd           | Web:      www.OpenFOAM.org                      |
|    \\/     M anipulation  |                                                 |
\*---------------------------------------------------------------------------*/
FoamFile
{
    version     2.0;
    format      ascii;
    class       volVectorField;
    location    "8";
    object      Ub;
}
// * * * * * * * * * * * * * * * * * * * * * * * * * * * * * * * * * * * * * //

dimensions      [0 1 -1 0 0 0 0];

internalField   nonuniform List<vector> 
360
(
(0.000273613 3.27007e-08 0)
(0.000272177 1.1697e-07 0)
(0.000271975 2.1613e-07 0)
(0.00027219 3.08976e-07 0)
(0.000272309 4.01309e-07 0)
(0.000272362 4.96144e-07 0)
(0.000272421 5.92395e-07 0)
(0.000272489 6.88823e-07 0)
(0.000272559 7.85012e-07 0)
(0.00027263 8.8093e-07 0)
(0.000272701 9.76593e-07 0)
(0.000272772 1.07194e-06 0)
(0.000272844 1.1669e-06 0)
(0.000272915 1.26138e-06 0)
(0.000272987 1.35533e-06 0)
(0.000273059 1.44875e-06 0)
(0.000273132 1.54164e-06 0)
(0.000273205 1.63398e-06 0)
(0.000273278 1.7258e-06 0)
(0.000273352 1.8171e-06 0)
(0.000273425 1.90788e-06 0)
(0.0002735 1.99816e-06 0)
(0.000273574 2.08798e-06 0)
(0.000273649 2.17734e-06 0)
(0.000273725 2.26629e-06 0)
(0.000273801 2.35484e-06 0)
(0.000273877 2.44303e-06 0)
(0.000273954 2.53087e-06 0)
(0.000274032 2.61841e-06 0)
(0.00027411 2.70568e-06 0)
(0.000274188 2.79268e-06 0)
(0.000274267 2.87947e-06 0)
(0.000274346 2.96605e-06 0)
(0.000274427 3.05246e-06 0)
(0.000274508 3.13871e-06 0)
(0.000274589 3.22484e-06 0)
(0.000274671 3.31084e-06 0)
(0.000274754 3.39674e-06 0)
(0.000274838 3.48258e-06 0)
(0.000274921 3.56833e-06 0)
(0.000275006 3.65403e-06 0)
(0.000275092 3.73968e-06 0)
(0.000275177 3.82527e-06 0)
(0.000275265 3.91084e-06 0)
(0.000275353 3.99636e-06 0)
(0.000275441 4.08184e-06 0)
(0.000275531 4.16731e-06 0)
(0.00027562 4.2527e-06 0)
(0.000275712 4.33803e-06 0)
(0.000275804 4.42333e-06 0)
(0.000275896 4.50856e-06 0)
(0.00027599 4.59373e-06 0)
(0.000276085 4.67881e-06 0)
(0.00027618 4.76381e-06 0)
(0.000276276 4.84869e-06 0)
(0.000276374 4.93347e-06 0)
(0.000276472 5.01809e-06 0)
(0.000276572 5.10255e-06 0)
(0.000276672 5.18683e-06 0)
(0.000276773 5.27086e-06 0)
(0.000276876 5.35468e-06 0)
(0.000276979 5.43825e-06 0)
(0.000277084 5.52158e-06 0)
(0.00027719 5.60464e-06 0)
(0.000277297 5.6874e-06 0)
(0.000277405 5.76982e-06 0)
(0.000277514 5.85188e-06 0)
(0.000277625 5.93355e-06 0)
(0.000277737 6.01479e-06 0)
(0.000277849 6.09554e-06 0)
(0.000277964 6.17582e-06 0)
(0.000278081 6.25563e-06 0)
(0.000278197 6.33491e-06 0)
(0.000278316 6.41368e-06 0)
(0.000278436 6.49191e-06 0)
(0.000278559 6.5696e-06 0)
(0.000278682 6.64669e-06 0)
(0.000278807 6.72315e-06 0)
(0.000278933 6.79894e-06 0)
(0.000279061 6.87402e-06 0)
(0.000279191 6.94837e-06 0)
(0.000279323 7.02197e-06 0)
(0.000279457 7.09483e-06 0)
(0.000279592 7.16694e-06 0)
(0.00027973 7.23829e-06 0)
(0.00027987 7.30888e-06 0)
(0.000280012 7.3787e-06 0)
(0.000280156 7.4477e-06 0)
(0.000280302 7.51586e-06 0)
(0.000280451 7.58314e-06 0)
(0.000280602 7.64951e-06 0)
(0.000280755 7.71496e-06 0)
(0.000280911 7.77947e-06 0)
(0.00028107 7.84305e-06 0)
(0.000281232 7.9057e-06 0)
(0.000281397 7.96743e-06 0)
(0.000281565 8.02822e-06 0)
(0.000281736 8.08808e-06 0)
(0.00028191 8.147e-06 0)
(0.000282087 8.20495e-06 0)
(0.000282268 8.26194e-06 0)
(0.000282453 8.31793e-06 0)
(0.000282642 8.37294e-06 0)
(0.000282835 8.42694e-06 0)
(0.000283032 8.47994e-06 0)
(0.000283233 8.53193e-06 0)
(0.000283439 8.58291e-06 0)
(0.00028365 8.6329e-06 0)
(0.000283866 8.6819e-06 0)
(0.000284087 8.72994e-06 0)
(0.000284313 8.77706e-06 0)
(0.000284545 8.82329e-06 0)
(0.000284783 8.86869e-06 0)
(0.000285028 8.91333e-06 0)
(0.000285279 8.95729e-06 0)
(0.000285537 9.00065e-06 0)
(0.000285802 9.04351e-06 0)
(0.000286075 9.08598e-06 0)
(0.000286356 9.12816e-06 0)
(0.000286645 9.17016e-06 0)
(0.000286943 9.21205e-06 0)
(0.00028725 9.25391e-06 0)
(0.000287568 9.29576e-06 0)
(0.000287895 9.33758e-06 0)
(0.000288233 9.37931e-06 0)
(0.000288584 9.42082e-06 0)
(0.000288946 9.46192e-06 0)
(0.000289323 9.50239e-06 0)
(0.000289715 9.54194e-06 0)
(0.000290124 9.58024e-06 0)
(0.000290549 9.61692e-06 0)
(0.000290994 9.65158e-06 0)
(0.000291458 9.68386e-06 0)
(0.000291948 9.71356e-06 0)
(0.000292467 9.74071e-06 0)
(0.000293016 9.7654e-06 0)
(0.000293592 9.78767e-06 0)
(0.000294202 9.8076e-06 0)
(0.000294879 9.82541e-06 0)
(0.000295655 9.84152e-06 0)
(0.000296497 9.85494e-06 0)
(0.00029731 9.85973e-06 0)
(0.000298291 9.85523e-06 0)
(0.000299563 9.84063e-06 0)
(0.000301158 9.73376e-06 0)
(0.000304253 1.15898e-05 0)
(0.000308895 -1.07916e-06 0)
(0.00041019 4.7791e-05 0)
(0.0434926 -0.00017875 0)
(0.175396 -0.00149064 0)
(0.29172 -0.000998858 0)
(0.383032 -0.000950551 0)
(0.457921 -0.000809129 0)
(0.520566 -0.000662999 0)
(0.573615 -0.000525264 0)
(0.618839 -0.000401234 0)
(0.657446 -0.000294759 0)
(0.690242 -0.000208041 0)
(0.717739 -0.000141139 0)
(0.740273 -9.2251e-05 0)
(0.758152 -5.83791e-05 0)
(0.771807 -3.61149e-05 0)
(0.781861 -2.22246e-05 0)
(0.789057 -1.39276e-05 0)
(0.794117 -9.05389e-06 0)
(0.797637 -6.13036e-06 0)
(0.80006 -4.29417e-06 0)
(0.801696 -3.08452e-06 0)
(0.802756 -2.25663e-06 0)
(0.803385 -1.67327e-06 0)
(0.803683 -1.25269e-06 0)
(0.80372 -9.43864e-07 0)
(0.803545 -7.13813e-07 0)
(0.803195 -5.4054e-07 0)
(0.802698 -4.08957e-07 0)
(0.802075 -3.08458e-07 0)
(0.801341 -2.31428e-07 0)
(0.800511 -1.72302e-07 0)
(0.799595 -1.26948e-07 0)
(0.798601 -9.22564e-08 0)
(0.797537 -6.58604e-08 0)
(0.796409 -4.59411e-08 0)
(0.795224 -3.10883e-08 0)
(0.793985 -2.02011e-08 0)
(0.792698 -1.2415e-08 0)
(0.791365 -7.04761e-09 0)
(0.789991 -3.55804e-09 0)
(0.788579 -1.51618e-09 0)
(0.787131 -5.79194e-10 0)
(0.78565 -4.73406e-10 0)
(0.78414 -9.80206e-10 0)
(0.782602 -1.9248e-09 0)
(0.781038 -3.16737e-09 0)
(0.77945 -4.5959e-09 0)
(0.777842 -6.12055e-09 0)
(0.776213 -7.66912e-09 0)
(0.774566 -9.18341e-09 0)
(0.772903 -1.06164e-08 0)
(0.771226 -1.19303e-08 0)
(0.769535 -1.30955e-08 0)
(0.767831 -1.40899e-08 0)
(0.7661 -1.4907e-08 0)
(0.764323 -1.55354e-08 0)
(0.7625 -1.59589e-08 0)
(0.760631 -1.6167e-08 0)
(0.758714 -1.61564e-08 0)
(0.756751 -1.59321e-08 0)
(0.75474 -1.55067e-08 0)
(0.752681 -1.49e-08 0)
(0.750574 -1.41376e-08 0)
(0.74842 -1.32497e-08 0)
(0.746217 -1.22699e-08 0)
(0.743967 -1.12334e-08 0)
(0.741668 -1.01739e-08 0)
(0.739323 -9.11986e-09 0)
(0.73693 -8.09532e-09 0)
(0.734491 -7.12095e-09 0)
(0.732005 -6.21132e-09 0)
(0.729475 -5.37396e-09 0)
(0.7269 -4.61265e-09 0)
(0.724282 -3.92969e-09 0)
(0.721621 -3.32501e-09 0)
(0.718919 -2.79498e-09 0)
(0.716178 -2.33445e-09 0)
(0.7134 -1.9391e-09 0)
(0.710585 -1.6039e-09 0)
(0.707737 -1.32261e-09 0)
(0.704858 -1.08904e-09 0)
(0.70195 -8.96275e-10 0)
(0.699017 -7.36946e-10 0)
(0.696061 -6.04828e-10 0)
(0.693087 -4.96163e-10 0)
(0.690098 -4.09611e-10 0)
(0.6871 -3.40621e-10 0)
(0.684097 -2.76164e-10 0)
(0.681094 -2.05572e-10 0)
(0.678099 -1.35968e-10 0)
(0.675119 -9.54019e-11 0)
(0.67216 -7.22599e-11 0)
(0.669232 -5.10057e-11 0)
(0.666344 -3.45203e-11 0)
(0.663507 -2.14324e-11 0)
(0.660734 4.99599e-12 0)
(0.658037 1.85332e-11 0)
(0.655431 1.80626e-12 0)
(0.652934 1.24352e-12 0)
(0.650563 2.31961e-12 0)
(0.648337 2.53447e-12 0)
(0.64628 2.40261e-12 0)
(0.644413 2.28806e-12 0)
(0.642759 2.20467e-12 0)
(0.641343 2.08974e-12 0)
(0.640186 1.99644e-12 0)
(0.639306 2.38149e-12 0)
(0.638713 4.4535e-12 0)
(0.63841 -1.24524e-11 0)
(0.63839 4.00286e-11 0)
(0.638631 -7.5726e-11 0)
(0.639101 1.34194e-10 0)
(0.639754 -2.03103e-10 0)
(0.640528 2.93388e-10 0)
(0.641338 -3.91896e-10 0)
(0.642047 5.05982e-10 0)
(0.642335 -6.22524e-10 0)
(0.642362 7.47921e-10 0)
(0.642363 -8.72498e-10 0)
(0.642363 1.00395e-09 0)
(0.642363 -1.13489e-09 0)
(0.642363 1.2725e-09 0)
(0.642363 -1.4102e-09 0)
(0.642363 1.55446e-09 0)
(0.642363 -1.69936e-09 0)
(0.642363 1.85072e-09 0)
(0.642363 -2.00322e-09 0)
(0.642363 2.16212e-09 0)
(0.642363 -2.32258e-09 0)
(0.642363 2.48937e-09 0)
(0.642363 -2.65813e-09 0)
(0.642363 2.83313e-09 0)
(0.642363 -3.0105e-09 0)
(0.642363 3.19399e-09 0)
(0.642363 -3.38021e-09 0)
(0.642363 3.57247e-09 0)
(0.642363 -3.76777e-09 0)
(0.642363 3.96902e-09 0)
(0.642363 -4.17362e-09 0)
(0.642363 4.38405e-09 0)
(0.642363 -4.59814e-09 0)
(0.642363 4.81792e-09 0)
(0.642363 -5.04164e-09 0)
(0.642363 5.27093e-09 0)
(0.642363 -5.50443e-09 0)
(0.642363 5.74336e-09 0)
(0.642363 -5.98673e-09 0)
(0.642363 6.23541e-09 0)
(0.642363 -6.48875e-09 0)
(0.642363 6.74726e-09 0)
(0.642363 -7.0106e-09 0)
(0.642363 7.27904e-09 0)
(0.642363 -7.5524e-09 0)
(0.642363 7.83078e-09 0)
(0.642363 -8.11417e-09 0)
(0.642363 8.40248e-09 0)
(0.642363 -8.69585e-09 0)
(0.642363 8.99404e-09 0)
(0.642363 -9.29729e-09 0)
(0.642363 9.60525e-09 0)
(0.642363 -9.91824e-09 0)
(0.642363 1.02358e-08 0)
(0.642363 -1.05583e-08 0)
(0.642363 9.5566e-09 0)
(0.642363 -9.66722e-09 0)
(0.642363 9.77643e-09 0)
(0.642363 -9.88472e-09 0)
(0.642363 9.99156e-09 0)
(0.642363 -1.00975e-08 0)
(0.642363 1.02019e-08 0)
(0.642363 -1.03055e-08 0)
(0.642363 1.04074e-08 0)
(0.642363 -1.05085e-08 0)
(0.642363 1.06079e-08 0)
(0.642363 -1.07065e-08 0)
(0.642363 1.08033e-08 0)
(0.642363 -1.08993e-08 0)
(0.642363 1.09935e-08 0)
(0.642363 -1.10868e-08 0)
(0.642363 1.11783e-08 0)
(0.642363 -1.12689e-08 0)
(0.642363 1.13575e-08 0)
(0.642363 -1.14454e-08 0)
(0.642363 1.1531e-08 0)
(0.642363 -1.16162e-08 0)
(0.642363 1.16986e-08 0)
(0.642363 -1.17811e-08 0)
(0.642363 1.18601e-08 0)
(0.642363 -1.19398e-08 0)
(0.642363 1.20153e-08 0)
(0.642363 -1.2092e-08 0)
(0.642363 1.2164e-08 0)
(0.642363 -1.22375e-08 0)
(0.642363 1.23057e-08 0)
(0.642363 -1.23759e-08 0)
(0.642363 1.24403e-08 0)
(0.642363 -1.25068e-08 0)
(0.642363 1.25671e-08 0)
(0.642363 -1.26299e-08 0)
(0.642363 1.26858e-08 0)
(0.642363 -1.27446e-08 0)
(0.642363 1.27957e-08 0)
(0.642363 -1.28501e-08 0)
(0.642363 1.2896e-08 0)
(0.642363 -1.29456e-08 0)
(0.642363 1.29857e-08 0)
(0.642363 -1.30297e-08 0)
(0.642363 1.30633e-08 0)
(0.642363 -1.31008e-08 0)
(0.642363 1.31265e-08 0)
(0.642363 -1.31553e-08 0)
(0.642363 1.317e-08 0)
(0.642363 -1.31852e-08 0)
)
;

boundaryField
{
    inandouthalf11
    {
        type            cyclic;
    }
    inandouthalf12
    {
        type            cyclic;
    }
    inandouthalf21
    {
        type            cyclic;
    }
    inandouthalf22
    {
        type            cyclic;
    }
    inandouthalf31
    {
        type            cyclic;
    }
    inandouthalf32
    {
        type            cyclic;
    }
    inandouthalf41
    {
        type            cyclic;
    }
    inandouthalf42
    {
        type            cyclic;
    }
    top
    {
        type            symmetryPlane;
    }
    walls
    {
        type            fixedValue;
        value           uniform (0 0 0);
    }
    frontAndBackPlanes
    {
        type            empty;
    }
}


// ************************************************************************* //
