/*--------------------------------*- C++ -*----------------------------------*\
| =========                 |                                                 |
| \\      /  F ield         | OpenFOAM: The Open Source CFD Toolbox           |
|  \\    /   O peration     | Version:  2.4.x                                 |
|   \\  /    A nd           | Web:      www.OpenFOAM.org                      |
|    \\/     M anipulation  |                                                 |
\*---------------------------------------------------------------------------*/
FoamFile
{
    version     2.0;
    format      ascii;
    class       volVectorField;
    location    "8";
    object      Ub_0;
}
// * * * * * * * * * * * * * * * * * * * * * * * * * * * * * * * * * * * * * //

dimensions      [0 1 -1 0 0 0 0];

internalField   nonuniform List<vector> 
360
(
(0.000273624 3.27041e-08 0)
(0.000272188 1.16982e-07 0)
(0.000271986 2.16152e-07 0)
(0.000272201 3.09007e-07 0)
(0.000272321 4.01347e-07 0)
(0.000272374 4.96189e-07 0)
(0.000272432 5.92447e-07 0)
(0.000272501 6.88881e-07 0)
(0.000272571 7.85077e-07 0)
(0.000272641 8.81001e-07 0)
(0.000272713 9.7667e-07 0)
(0.000272784 1.07203e-06 0)
(0.000272855 1.16698e-06 0)
(0.000272926 1.26147e-06 0)
(0.000272998 1.35543e-06 0)
(0.00027307 1.44886e-06 0)
(0.000273143 1.54175e-06 0)
(0.000273216 1.6341e-06 0)
(0.000273289 1.72592e-06 0)
(0.000273363 1.81722e-06 0)
(0.000273436 1.90801e-06 0)
(0.000273511 1.9983e-06 0)
(0.000273586 2.08812e-06 0)
(0.000273661 2.1775e-06 0)
(0.000273736 2.26645e-06 0)
(0.000273812 2.35501e-06 0)
(0.000273888 2.4432e-06 0)
(0.000273965 2.53105e-06 0)
(0.000274043 2.61861e-06 0)
(0.000274121 2.70588e-06 0)
(0.000274199 2.79289e-06 0)
(0.000274279 2.87969e-06 0)
(0.000274358 2.96627e-06 0)
(0.000274438 3.05269e-06 0)
(0.000274519 3.13896e-06 0)
(0.0002746 3.2251e-06 0)
(0.000274682 3.31111e-06 0)
(0.000274765 3.39702e-06 0)
(0.000274849 3.48287e-06 0)
(0.000274932 3.56863e-06 0)
(0.000275018 3.65434e-06 0)
(0.000275103 3.74001e-06 0)
(0.000275189 3.82561e-06 0)
(0.000275276 3.91118e-06 0)
(0.000275364 3.99671e-06 0)
(0.000275452 4.08221e-06 0)
(0.000275542 4.16768e-06 0)
(0.000275632 4.25309e-06 0)
(0.000275723 4.33843e-06 0)
(0.000275815 4.42374e-06 0)
(0.000275907 4.50898e-06 0)
(0.000276001 4.59417e-06 0)
(0.000276096 4.67926e-06 0)
(0.000276192 4.76428e-06 0)
(0.000276287 4.84917e-06 0)
(0.000276386 4.93396e-06 0)
(0.000276483 5.01859e-06 0)
(0.000276583 5.10307e-06 0)
(0.000276683 5.18735e-06 0)
(0.000276784 5.2714e-06 0)
(0.000276887 5.35524e-06 0)
(0.00027699 5.43881e-06 0)
(0.000277095 5.52216e-06 0)
(0.000277201 5.60522e-06 0)
(0.000277308 5.688e-06 0)
(0.000277416 5.77044e-06 0)
(0.000277526 5.85251e-06 0)
(0.000277636 5.93419e-06 0)
(0.000277748 6.01544e-06 0)
(0.000277861 6.09621e-06 0)
(0.000277976 6.1765e-06 0)
(0.000278092 6.25632e-06 0)
(0.000278208 6.33561e-06 0)
(0.000278328 6.4144e-06 0)
(0.000278448 6.49264e-06 0)
(0.00027857 6.57034e-06 0)
(0.000278693 6.64744e-06 0)
(0.000278818 6.72391e-06 0)
(0.000278944 6.79971e-06 0)
(0.000279073 6.87481e-06 0)
(0.000279202 6.94917e-06 0)
(0.000279334 7.02278e-06 0)
(0.000279468 7.09565e-06 0)
(0.000279604 7.16777e-06 0)
(0.000279741 7.23913e-06 0)
(0.000279881 7.30974e-06 0)
(0.000280023 7.37956e-06 0)
(0.000280167 7.44858e-06 0)
(0.000280313 7.51675e-06 0)
(0.000280462 7.58404e-06 0)
(0.000280613 7.65042e-06 0)
(0.000280766 7.71588e-06 0)
(0.000280923 7.7804e-06 0)
(0.000281082 7.84399e-06 0)
(0.000281243 7.90666e-06 0)
(0.000281408 7.96839e-06 0)
(0.000281576 8.0292e-06 0)
(0.000281747 8.08907e-06 0)
(0.000281921 8.14799e-06 0)
(0.000282099 8.20595e-06 0)
(0.00028228 8.26295e-06 0)
(0.000282465 8.31896e-06 0)
(0.000282653 8.37397e-06 0)
(0.000282846 8.42798e-06 0)
(0.000283043 8.48099e-06 0)
(0.000283244 8.53299e-06 0)
(0.00028345 8.58398e-06 0)
(0.000283661 8.63397e-06 0)
(0.000283877 8.68298e-06 0)
(0.000284098 8.73104e-06 0)
(0.000284324 8.77816e-06 0)
(0.000284557 8.8244e-06 0)
(0.000284795 8.86981e-06 0)
(0.000285039 8.91445e-06 0)
(0.00028529 8.95841e-06 0)
(0.000285549 9.00178e-06 0)
(0.000285814 9.04465e-06 0)
(0.000286087 9.08713e-06 0)
(0.000286367 9.12932e-06 0)
(0.000286657 9.17132e-06 0)
(0.000286955 9.21322e-06 0)
(0.000287262 9.25508e-06 0)
(0.000287579 9.29693e-06 0)
(0.000287907 9.33875e-06 0)
(0.000288245 9.38049e-06 0)
(0.000288595 9.422e-06 0)
(0.000288958 9.4631e-06 0)
(0.000289335 9.50357e-06 0)
(0.000289727 9.54313e-06 0)
(0.000290135 9.58143e-06 0)
(0.000290561 9.61811e-06 0)
(0.000291005 9.65277e-06 0)
(0.00029147 9.68505e-06 0)
(0.000291959 9.71475e-06 0)
(0.000292479 9.7419e-06 0)
(0.000293028 9.76658e-06 0)
(0.000293603 9.78886e-06 0)
(0.000294214 9.80878e-06 0)
(0.000294891 9.82659e-06 0)
(0.000295667 9.8427e-06 0)
(0.000296509 9.85611e-06 0)
(0.000297322 9.8609e-06 0)
(0.000298303 9.85639e-06 0)
(0.000299575 9.8418e-06 0)
(0.00030117 9.73499e-06 0)
(0.000304265 1.15907e-05 0)
(0.000308907 -1.07875e-06 0)
(0.000409842 4.77988e-05 0)
(0.0434053 -0.000178741 0)
(0.175273 -0.00149151 0)
(0.291631 -0.0009991 0)
(0.382954 -0.000950577 0)
(0.457846 -0.000809005 0)
(0.52049 -0.000662776 0)
(0.573534 -0.000524983 0)
(0.618751 -0.000400931 0)
(0.65735 -0.000294464 0)
(0.690135 -0.000207776 0)
(0.717619 -0.00014092 0)
(0.740138 -9.20814e-05 0)
(0.758002 -5.82565e-05 0)
(0.771641 -3.6032e-05 0)
(0.781681 -2.21717e-05 0)
(0.788866 -1.38951e-05 0)
(0.793917 -9.03367e-06 0)
(0.797431 -6.11724e-06 0)
(0.799849 -4.28515e-06 0)
(0.801481 -3.078e-06 0)
(0.802538 -2.25171e-06 0)
(0.803165 -1.66944e-06 0)
(0.803461 -1.24963e-06 0)
(0.803496 -9.41373e-07 0)
(0.80332 -7.11742e-07 0)
(0.80297 -5.38793e-07 0)
(0.802472 -4.07464e-07 0)
(0.801847 -3.07168e-07 0)
(0.801113 -2.30304e-07 0)
(0.800282 -1.71315e-07 0)
(0.799365 -1.26076e-07 0)
(0.798371 -9.14809e-08 0)
(0.797306 -6.51675e-08 0)
(0.796178 -4.53192e-08 0)
(0.794992 -3.05279e-08 0)
(0.793753 -1.96944e-08 0)
(0.792465 -1.19555e-08 0)
(0.791131 -6.6297e-09 0)
(0.789757 -3.177e-09 0)
(0.788344 -1.16798e-09 0)
(0.786896 -2.60326e-10 0)
(0.785415 -1.80878e-10 0)
(0.783904 -7.11424e-10 0)
(0.782365 -1.67748e-09 0)
(0.780801 -2.93949e-09 0)
(0.779213 -4.38571e-09 0)
(0.777604 -5.92651e-09 0)
(0.775975 -7.48986e-09 0)
(0.774328 -9.01772e-09 0)
(0.772664 -1.04632e-08 0)
(0.770986 -1.17887e-08 0)
(0.769295 -1.29646e-08 0)
(0.767591 -1.39689e-08 0)
(0.765859 -1.47954e-08 0)
(0.764082 -1.54327e-08 0)
(0.762259 -1.58646e-08 0)
(0.760389 -1.60807e-08 0)
(0.758472 -1.60777e-08 0)
(0.756508 -1.58606e-08 0)
(0.754497 -1.5442e-08 0)
(0.752438 -1.48417e-08 0)
(0.750331 -1.40854e-08 0)
(0.748176 -1.32031e-08 0)
(0.745973 -1.22285e-08 0)
(0.743722 -1.11968e-08 0)
(0.741423 -1.01417e-08 0)
(0.739077 -9.09162e-09 0)
(0.736684 -8.07069e-09 0)
(0.734244 -7.09955e-09 0)
(0.731759 -6.19281e-09 0)
(0.729228 -5.358e-09 0)
(0.726653 -4.59895e-09 0)
(0.724034 -3.91796e-09 0)
(0.721373 -3.315e-09 0)
(0.718671 -2.78647e-09 0)
(0.71593 -2.32723e-09 0)
(0.713151 -1.93299e-09 0)
(0.710336 -1.59874e-09 0)
(0.707488 -1.31827e-09 0)
(0.704608 -1.0854e-09 0)
(0.7017 -8.93224e-10 0)
(0.698766 -7.34394e-10 0)
(0.69581 -6.02695e-10 0)
(0.692836 -4.94378e-10 0)
(0.689847 -4.08107e-10 0)
(0.686849 -3.39345e-10 0)
(0.683845 -2.75097e-10 0)
(0.680843 -2.04709e-10 0)
(0.677848 -1.35259e-10 0)
(0.674867 -9.4826e-11 0)
(0.671908 -7.17898e-11 0)
(0.66898 -5.05989e-11 0)
(0.666092 -3.41601e-11 0)
(0.663255 -2.11085e-11 0)
(0.660482 5.2893e-12 0)
(0.657785 1.88162e-11 0)
(0.65518 2.07564e-12 0)
(0.652683 1.50192e-12 0)
(0.650311 2.5679e-12 0)
(0.648086 2.77276e-12 0)
(0.646029 2.63099e-12 0)
(0.644162 2.50655e-12 0)
(0.64251 2.41317e-12 0)
(0.641094 2.28827e-12 0)
(0.639937 2.18484e-12 0)
(0.639057 2.56008e-12 0)
(0.638465 4.62362e-12 0)
(0.638163 -1.22935e-11 0)
(0.638143 4.01783e-11 0)
(0.638385 -7.5588e-11 0)
(0.638855 1.34335e-10 0)
(0.639508 -2.03004e-10 0)
(0.640282 2.9354e-10 0)
(0.641092 -3.9185e-10 0)
(0.641801 5.06154e-10 0)
(0.642089 -6.2253e-10 0)
(0.642116 7.48109e-10 0)
(0.642117 -8.72548e-10 0)
(0.642117 1.00415e-09 0)
(0.642117 -1.13498e-09 0)
(0.642117 1.27271e-09 0)
(0.642117 -1.41031e-09 0)
(0.642117 1.55467e-09 0)
(0.642117 -1.6995e-09 0)
(0.642117 1.85094e-09 0)
(0.642117 -2.00338e-09 0)
(0.642117 2.16235e-09 0)
(0.642117 -2.32277e-09 0)
(0.642117 2.48961e-09 0)
(0.642117 -2.65835e-09 0)
(0.642117 2.83339e-09 0)
(0.642117 -3.01073e-09 0)
(0.642117 3.19427e-09 0)
(0.642117 -3.38047e-09 0)
(0.642117 3.57276e-09 0)
(0.642117 -3.76806e-09 0)
(0.642117 3.96934e-09 0)
(0.642117 -4.17393e-09 0)
(0.642117 4.3844e-09 0)
(0.642117 -4.59848e-09 0)
(0.642117 4.81829e-09 0)
(0.642117 -5.04201e-09 0)
(0.642117 5.27133e-09 0)
(0.642117 -5.50482e-09 0)
(0.642117 5.74379e-09 0)
(0.642117 -5.98716e-09 0)
(0.642117 6.23588e-09 0)
(0.642117 -6.4892e-09 0)
(0.642117 6.74776e-09 0)
(0.642117 -7.01108e-09 0)
(0.642117 7.27958e-09 0)
(0.642117 -7.5529e-09 0)
(0.642117 7.83136e-09 0)
(0.642117 -8.11469e-09 0)
(0.642117 8.40312e-09 0)
(0.642117 -8.69639e-09 0)
(0.642117 8.99473e-09 0)
(0.642117 -9.29786e-09 0)
(0.642117 9.60599e-09 0)
(0.642117 -9.91884e-09 0)
(0.642117 1.02366e-08 0)
(0.642117 -1.0559e-08 0)
(0.642117 9.55734e-09 0)
(0.642117 -9.66777e-09 0)
(0.642117 9.77718e-09 0)
(0.642117 -9.88528e-09 0)
(0.642117 9.99234e-09 0)
(0.642117 -1.00981e-08 0)
(0.642117 1.02027e-08 0)
(0.642117 -1.0306e-08 0)
(0.642117 1.04082e-08 0)
(0.642117 -1.0509e-08 0)
(0.642117 1.06088e-08 0)
(0.642117 -1.0707e-08 0)
(0.642117 1.08042e-08 0)
(0.642117 -1.08998e-08 0)
(0.642117 1.09944e-08 0)
(0.642117 -1.10874e-08 0)
(0.642117 1.11792e-08 0)
(0.642117 -1.12694e-08 0)
(0.642117 1.13585e-08 0)
(0.642117 -1.14458e-08 0)
(0.642117 1.15322e-08 0)
(0.642117 -1.16164e-08 0)
(0.642117 1.17001e-08 0)
(0.642117 -1.1781e-08 0)
(0.642117 1.18618e-08 0)
(0.642117 -1.19395e-08 0)
(0.642117 1.20173e-08 0)
(0.642117 -1.20915e-08 0)
(0.642117 1.21661e-08 0)
(0.642117 -1.22368e-08 0)
(0.642117 1.2308e-08 0)
(0.642117 -1.2375e-08 0)
(0.642117 1.24427e-08 0)
(0.642117 -1.25059e-08 0)
(0.642117 1.25697e-08 0)
(0.642117 -1.26288e-08 0)
(0.642117 1.26886e-08 0)
(0.642117 -1.27433e-08 0)
(0.642117 1.27987e-08 0)
(0.642117 -1.28486e-08 0)
(0.642117 1.28992e-08 0)
(0.642117 -1.2944e-08 0)
(0.642117 1.29889e-08 0)
(0.642117 -1.3028e-08 0)
(0.642117 1.30667e-08 0)
(0.642117 -1.30991e-08 0)
(0.642117 1.31297e-08 0)
(0.642117 -1.3154e-08 0)
(0.642117 1.31726e-08 0)
(0.642117 -1.31852e-08 0)
)
;

boundaryField
{
    inandouthalf11
    {
        type            cyclic;
    }
    inandouthalf12
    {
        type            cyclic;
    }
    inandouthalf21
    {
        type            cyclic;
    }
    inandouthalf22
    {
        type            cyclic;
    }
    inandouthalf31
    {
        type            cyclic;
    }
    inandouthalf32
    {
        type            cyclic;
    }
    inandouthalf41
    {
        type            cyclic;
    }
    inandouthalf42
    {
        type            cyclic;
    }
    top
    {
        type            symmetryPlane;
    }
    walls
    {
        type            fixedValue;
        value           uniform (0 0 0);
    }
    frontAndBackPlanes
    {
        type            empty;
    }
}


// ************************************************************************* //
