/*--------------------------------*- C++ -*----------------------------------*\
| =========                 |                                                 |
| \\      /  F ield         | OpenFOAM: The Open Source CFD Toolbox           |
|  \\    /   O peration     | Version:  2.4.x                                 |
|   \\  /    A nd           | Web:      www.OpenFOAM.org                      |
|    \\/     M anipulation  |                                                 |
\*---------------------------------------------------------------------------*/
FoamFile
{
    version     2.0;
    format      ascii;
    class       volVectorField;
    location    "8";
    object      Ur;
}
// * * * * * * * * * * * * * * * * * * * * * * * * * * * * * * * * * * * * * //

dimensions      [0 1 -1 0 0 0 0];

internalField   nonuniform List<vector> 
360
(
(0.000273613 3.27007e-08 0)
(0.00027216 1.95199e-07 0)
(0.000271939 3.57016e-07 0)
(0.000272137 5.04923e-07 0)
(0.00027224 6.55304e-07 0)
(0.000272275 8.10979e-07 0)
(0.000272316 9.68651e-07 0)
(0.000272367 1.12637e-06 0)
(0.00027242 1.28368e-06 0)
(0.000272473 1.44058e-06 0)
(0.000272527 1.59708e-06 0)
(0.000272581 1.75309e-06 0)
(0.000272635 1.90846e-06 0)
(0.00027269 2.06307e-06 0)
(0.000272745 2.21682e-06 0)
(0.000272801 2.36971e-06 0)
(0.000272857 2.52173e-06 0)
(0.000272914 2.67289e-06 0)
(0.000272971 2.82319e-06 0)
(0.000273029 2.97266e-06 0)
(0.000273087 3.1213e-06 0)
(0.000273146 3.26913e-06 0)
(0.000273205 3.41621e-06 0)
(0.000273265 3.56257e-06 0)
(0.000273325 3.70826e-06 0)
(0.000273386 3.85332e-06 0)
(0.000273447 3.99778e-06 0)
(0.00027351 4.14171e-06 0)
(0.000273573 4.28515e-06 0)
(0.000273636 4.42816e-06 0)
(0.0002737 4.57075e-06 0)
(0.000273765 4.71301e-06 0)
(0.000273829 4.85494e-06 0)
(0.000273896 4.9966e-06 0)
(0.000273962 5.13804e-06 0)
(0.00027403 5.27928e-06 0)
(0.000274097 5.42033e-06 0)
(0.000274166 5.56123e-06 0)
(0.000274236 5.70204e-06 0)
(0.000274306 5.84273e-06 0)
(0.000274377 5.98335e-06 0)
(0.000274449 6.12392e-06 0)
(0.000274521 6.2644e-06 0)
(0.000274595 6.40485e-06 0)
(0.000274669 6.54526e-06 0)
(0.000274744 6.68563e-06 0)
(0.00027482 6.82597e-06 0)
(0.000274896 6.96622e-06 0)
(0.000274974 7.10638e-06 0)
(0.000275054 7.24652e-06 0)
(0.000275132 7.38658e-06 0)
(0.000275213 7.52654e-06 0)
(0.000275294 7.66639e-06 0)
(0.000275377 7.80612e-06 0)
(0.00027546 7.94568e-06 0)
(0.000275545 8.08509e-06 0)
(0.00027563 8.22427e-06 0)
(0.000275717 8.36322e-06 0)
(0.000275805 8.50188e-06 0)
(0.000275893 8.64017e-06 0)
(0.000275984 8.77812e-06 0)
(0.000276074 8.9157e-06 0)
(0.000276167 9.0529e-06 0)
(0.00027626 9.18969e-06 0)
(0.000276355 9.32602e-06 0)
(0.000276451 9.46183e-06 0)
(0.000276548 9.59706e-06 0)
(0.000276647 9.73168e-06 0)
(0.000276747 9.86563e-06 0)
(0.000276848 9.9988e-06 0)
(0.000276952 1.01312e-05 0)
(0.000277056 1.02629e-05 0)
(0.000277162 1.03937e-05 0)
(0.000277269 1.05238e-05 0)
(0.000277379 1.0653e-05 0)
(0.00027749 1.07813e-05 0)
(0.000277602 1.09087e-05 0)
(0.000277716 1.10351e-05 0)
(0.000277832 1.11604e-05 0)
(0.00027795 1.12845e-05 0)
(0.00027807 1.14076e-05 0)
(0.000278191 1.15294e-05 0)
(0.000278315 1.165e-05 0)
(0.000278441 1.17695e-05 0)
(0.000278569 1.18877e-05 0)
(0.000278699 1.20048e-05 0)
(0.000278832 1.21206e-05 0)
(0.000278966 1.22351e-05 0)
(0.000279104 1.23482e-05 0)
(0.000279243 1.246e-05 0)
(0.000279385 1.25703e-05 0)
(0.00027953 1.26791e-05 0)
(0.000279678 1.27865e-05 0)
(0.000279829 1.28923e-05 0)
(0.000279982 1.29967e-05 0)
(0.000280139 1.30996e-05 0)
(0.000280299 1.32011e-05 0)
(0.000280462 1.3301e-05 0)
(0.000280629 1.33995e-05 0)
(0.000280799 1.34964e-05 0)
(0.000280973 1.35918e-05 0)
(0.000281151 1.36856e-05 0)
(0.000281333 1.37779e-05 0)
(0.000281519 1.38685e-05 0)
(0.000281709 1.39576e-05 0)
(0.000281904 1.40451e-05 0)
(0.000282104 1.4131e-05 0)
(0.000282309 1.42153e-05 0)
(0.000282519 1.42981e-05 0)
(0.000282734 1.43793e-05 0)
(0.000282955 1.44592e-05 0)
(0.000283182 1.45376e-05 0)
(0.000283414 1.46148e-05 0)
(0.000283654 1.46907e-05 0)
(0.0002839 1.47657e-05 0)
(0.000284153 1.48398e-05 0)
(0.000284413 1.49131e-05 0)
(0.000284682 1.49859e-05 0)
(0.000284958 1.50583e-05 0)
(0.000285242 1.51306e-05 0)
(0.000285536 1.52028e-05 0)
(0.000285839 1.52751e-05 0)
(0.000286152 1.53475e-05 0)
(0.000286475 1.542e-05 0)
(0.00028681 1.54925e-05 0)
(0.000287156 1.55648e-05 0)
(0.000287516 1.56366e-05 0)
(0.000287889 1.57075e-05 0)
(0.000288278 1.57772e-05 0)
(0.000288684 1.5845e-05 0)
(0.000289108 1.59104e-05 0)
(0.00028955 1.59726e-05 0)
(0.000290013 1.60311e-05 0)
(0.000290501 1.60857e-05 0)
(0.00029102 1.61364e-05 0)
(0.000291569 1.61832e-05 0)
(0.000292145 1.62265e-05 0)
(0.000292756 1.62664e-05 0)
(0.000293433 1.63037e-05 0)
(0.000294211 1.6339e-05 0)
(0.000295054 1.63704e-05 0)
(0.000295869 1.63894e-05 0)
(0.000296852 1.63936e-05 0)
(0.000298124 1.6383e-05 0)
(0.00029972 1.62772e-05 0)
(0.000302815 1.81335e-05 0)
(0.000307456 5.46471e-06 0)
(0.000408555 5.43558e-05 0)
(0.00389123 -0.000362219 0)
(0.0170444 -0.00454699 0)
(0.0172036 -0.00558902 0)
(0.0154268 -0.00638026 0)
(0.0144097 -0.00694547 0)
(0.0141176 -0.0074625 0)
(0.0145426 -0.00795432 0)
(0.0157319 -0.00841656 0)
(0.0177432 -0.00883598 0)
(0.0205676 -0.00918949 0)
(0.0240425 -0.0094424 0)
(0.0278081 -0.00954605 0)
(0.0313745 -0.00944155 0)
(0.0342971 -0.00908622 0)
(0.0363506 -0.00849496 0)
(0.0375684 -0.00774586 0)
(0.0381447 -0.00693645 0)
(0.0383079 -0.00614003 0)
(0.0382459 -0.00539497 0)
(0.0380879 -0.00471534 0)
(0.0379132 -0.00410312 0)
(0.0377665 -0.00355517 0)
(0.0376702 -0.00306658 0)
(0.037633 -0.00263208 0)
(0.0376558 -0.00224657 0)
(0.0377345 -0.00190534 0)
(0.0378631 -0.00160416 0)
(0.038034 -0.00133918 0)
(0.0382394 -0.00110698 0)
(0.0384716 -0.00090447 0)
(0.0387229 -0.000728875 0)
(0.0389863 -0.000577695 0)
(0.0392551 -0.000448678 0)
(0.0395233 -0.000339792 0)
(0.039785 -0.000249203 0)
(0.0400351 -0.000175257 0)
(0.0402687 -0.000116456 0)
(0.0404814 -7.14468e-05 0)
(0.0406691 -3.90015e-05 0)
(0.040828 -1.80061e-05 0)
(0.0409546 -7.44722e-06 0)
(0.0410457 -6.40149e-06 0)
(0.0410982 -1.40252e-05 0)
(0.0411093 -2.9544e-05 0)
(0.0410764 -5.22412e-05 0)
(0.0409969 -8.14457e-05 0)
(0.0408685 -0.00011652 0)
(0.040689 -0.000156846 0)
(0.0404563 -0.000201818 0)
(0.0401683 -0.000250825 0)
(0.0398231 -0.000303247 0)
(0.0394189 -0.000358451 0)
(0.0389538 -0.000415804 0)
(0.0384213 -0.000475278 0)
(0.037815 -0.000536868 0)
(0.0371337 -0.00059993 0)
(0.0363764 -0.00066376 0)
(0.0355422 -0.000727614 0)
(0.0346304 -0.000790732 0)
(0.0336405 -0.000852371 0)
(0.0325723 -0.000911818 0)
(0.0314259 -0.00096841 0)
(0.0302017 -0.00102155 0)
(0.0289004 -0.00107071 0)
(0.0275229 -0.0011155 0)
(0.0260704 -0.00115567 0)
(0.0245444 -0.00119106 0)
(0.0229465 -0.00122154 0)
(0.0212786 -0.00124711 0)
(0.0195425 -0.00126791 0)
(0.0177401 -0.00128407 0)
(0.0158736 -0.00129571 0)
(0.0139451 -0.00130303 0)
(0.0119567 -0.00130638 0)
(0.00991004 -0.00130629 0)
(0.00780739 -0.00130333 0)
(0.00565063 -0.0012984 0)
(0.00344121 -0.001293 0)
(0.0011807 -0.00128925 0)
(-0.00112942 -0.00128959 0)
(-0.00348793 -0.00129567 0)
(-0.00589405 -0.00130788 0)
(-0.0083481 -0.00132641 0)
(-0.0108511 -0.00135129 0)
(-0.0134087 -0.00138449 0)
(-0.0160322 -0.00143052 0)
(-0.0187355 -0.00149779 0)
(-0.0215186 -0.00156157 0)
(-0.0243024 -0.00160176 0)
(0.00734152 -0.00138723 0)
(0.00766649 -0.00152128 0)
(0.00765781 -0.00184359 0)
(0.00766862 -0.00161252 0)
(0.00764604 -0.00193701 0)
(0.00767687 -0.00323736 0)
(0.00651955 0.0246339 0)
(0.00569332 0.0396072 0)
(0.00591655 0.0395573 0)
(0.00584366 0.0395594 0)
(0.00579642 0.0395555 0)
(0.00574144 0.0395516 0)
(0.00568211 0.0395469 0)
(0.00561834 0.0395417 0)
(0.00555085 0.039536 0)
(0.00548135 0.03953 0)
(0.00541881 0.0395235 0)
(0.00534364 0.0395176 0)
(0.00525391 0.039513 0)
(0.00521079 0.0395069 0)
(0.00515637 0.0395026 0)
(0.00511412 0.0394987 0)
(0.00508476 0.0394954 0)
(0.00507074 0.0394921 0)
(0.00506658 0.0394879 0)
(0.00513554 0.0394799 0)
(0.0052003 0.0394731 0)
(0.00520729 0.039471 0)
(0.00520749 0.0394708 0)
(0.0052075 0.0394708 0)
(0.0052075 0.0394708 0)
(0.0052075 0.0394708 0)
(0.0052075 0.0394708 0)
(0.0052075 0.0394708 0)
(0.0052075 0.0394708 0)
(0.0052075 0.0394708 0)
(0.0052075 0.0394708 0)
(0.0052075 0.0394708 0)
(0.0052075 0.0394708 0)
(0.0052075 0.0394708 0)
(0.0052075 0.0394708 0)
(0.0052075 0.0394708 0)
(0.0052075 0.0394708 0)
(0.0052075 0.0394708 0)
(0.0052075 0.0394708 0)
(0.0052075 0.0394708 0)
(0.0052075 0.0394708 0)
(0.0052075 0.0394708 0)
(0.0052075 0.0394708 0)
(0.0052075 0.0394708 0)
(0.0052075 0.0394708 0)
(0.0052075 0.0394708 0)
(0.0052075 0.0394708 0)
(0.0052075 0.0394709 0)
(0.0052075 0.0394708 0)
(0.0052075 0.0394709 0)
(0.0052075 0.0394708 0)
(0.0052075 0.0394709 0)
(0.0052075 0.0394708 0)
(0.0052075 0.0394709 0)
(0.0052075 0.0394708 0)
(0.0052075 0.0394709 0)
(0.0052075 0.0394708 0)
(0.0052075 0.0394709 0)
(0.0052075 0.0394708 0)
(0.0052075 0.0394709 0)
(0.0052075 0.0394708 0)
(0.0052075 0.0394709 0)
(0.0052075 0.0394708 0)
(0.0052075 0.0394709 0)
(0.0052075 0.0394708 0)
(0.0052075 0.0394709 0)
(0.0052075 0.0394708 0)
(0.0052075 0.0394709 0)
(0.0052075 0.0394708 0)
(0.0052075 0.0394709 0)
(0.0052075 0.0394708 0)
(0.0052075 0.0394709 0)
(0.0052075 0.0394708 0)
(0.0052075 0.0394709 0)
(0.0052075 0.0394708 0)
(0.0052075 0.0394709 0)
(0.0052075 0.0394708 0)
(0.0052075 0.0394709 0)
(0.0052075 0.0394708 0)
(0.0052075 0.0394709 0)
(0.0052075 0.0394708 0)
(0.0052075 0.0394709 0)
(0.0052075 0.0394708 0)
(0.0052075 0.0394709 0)
(0.0052075 0.0394708 0)
(0.0052075 0.0394709 0)
(0.0052075 0.0394708 0)
(0.0052075 0.0394709 0)
(0.0052075 0.0394708 0)
(0.0052075 0.0394709 0)
(0.0052075 0.0394708 0)
(0.0052075 0.0394709 0)
(0.0052075 0.0394708 0)
(0.0052075 0.0394709 0)
(0.0052075 0.0394708 0)
(0.0052075 0.0394709 0)
(0.0052075 0.0394708 0)
(0.0052075 0.0394709 0)
(0.0052075 0.0394708 0)
(0.0052075 0.0394709 0)
(0.0052075 0.0394708 0)
(0.0052075 0.0394709 0)
(0.0052075 0.0394708 0)
(0.0052075 0.0394709 0)
(0.0052075 0.0394708 0)
(0.0052075 0.0394709 0)
(0.0052075 0.0394708 0)
(0.0052075 0.0394709 0)
(0.0052075 0.0394708 0)
(0.0052075 0.0394709 0)
(0.0052075 0.0394708 0)
(0.0052075 0.0394709 0)
(0.0052075 0.0394708 0)
(0.00520756 0.0394706 0)
(0.005209 0.0394621 0)
(0.00524425 0.0391159 0)
(0.00605948 0.0223459 0)
)
;

boundaryField
{
    inandouthalf11
    {
        type            cyclic;
    }
    inandouthalf12
    {
        type            cyclic;
    }
    inandouthalf21
    {
        type            cyclic;
    }
    inandouthalf22
    {
        type            cyclic;
    }
    inandouthalf31
    {
        type            cyclic;
    }
    inandouthalf32
    {
        type            cyclic;
    }
    inandouthalf41
    {
        type            cyclic;
    }
    inandouthalf42
    {
        type            cyclic;
    }
    top
    {
        type            symmetryPlane;
    }
    walls
    {
        type            calculated;
        value           uniform (0 0 0);
    }
    frontAndBackPlanes
    {
        type            empty;
    }
}


// ************************************************************************* //
