/*--------------------------------*- C++ -*----------------------------------*\
| =========                 |                                                 |
| \\      /  F ield         | OpenFOAM: The Open Source CFD Toolbox           |
|  \\    /   O peration     | Version:  2.4.x                                 |
|   \\  /    A nd           | Web:      www.OpenFOAM.org                      |
|    \\/     M anipulation  |                                                 |
\*---------------------------------------------------------------------------*/
FoamFile
{
    version     2.0;
    format      ascii;
    class       volScalarField;
    location    "3.9";
    object      alpha_0;
}
// * * * * * * * * * * * * * * * * * * * * * * * * * * * * * * * * * * * * * //

dimensions      [0 0 0 0 0 0 0];

internalField   nonuniform List<scalar> 
360
(
0.61033
0.610819
0.610977
0.610947
0.610899
0.610865
0.610835
0.610806
0.610779
0.610752
0.610723
0.610693
0.610663
0.610632
0.610602
0.610571
0.610541
0.610511
0.610481
0.610451
0.610422
0.610392
0.61036
0.610326
0.610287
0.610243
0.610193
0.610138
0.610086
0.610045
0.610019
0.610004
0.609997
0.609991
0.609987
0.609982
0.609978
0.609973
0.609966
0.609961
0.609954
0.609947
0.60994
0.609931
0.609922
0.609912
0.609902
0.609891
0.609879
0.609865
0.609852
0.609837
0.609821
0.609804
0.609787
0.609767
0.609747
0.609725
0.609702
0.609679
0.609653
0.609627
0.6096
0.609572
0.609544
0.609515
0.609485
0.609454
0.609422
0.609389
0.609355
0.609318
0.609282
0.609243
0.609204
0.609164
0.609123
0.609082
0.609039
0.608995
0.608951
0.608905
0.608858
0.608809
0.60876
0.608709
0.608657
0.608604
0.60855
0.608494
0.608438
0.60838
0.608321
0.608261
0.608199
0.608136
0.608071
0.608005
0.607937
0.607868
0.607797
0.607724
0.607649
0.607573
0.607495
0.607415
0.607333
0.607248
0.607162
0.607073
0.606982
0.606888
0.606792
0.606693
0.606591
0.606486
0.606378
0.606267
0.606153
0.606035
0.605913
0.605787
0.605657
0.605523
0.605384
0.605241
0.605093
0.604939
0.604779
0.604613
0.60444
0.60426
0.604072
0.603874
0.603664
0.603441
0.603208
0.602961
0.602687
0.602373
0.602032
0.601708
0.601324
0.600826
0.600215
0.599195
0.596637
0.593979
0.416915
0.255424
0.193098
0.153202
0.121553
0.0950688
0.0729969
0.0550142
0.0407501
0.0297194
0.0213732
0.0151773
0.0106524
0.00739208
0.00506681
0.00343057
0.00231584
0.00159461
0.00114465
0.00086137
0.00067508
0.000546101
0.000452577
0.000382094
0.000327264
0.000283482
0.000247745
0.000218017
0.000192868
0.000171262
0.000152408
0.000135672
0.000120561
0.000106674
9.36805e-05
8.13376e-05
6.95294e-05
5.83262e-05
4.80347e-05
3.91446e-05
3.20837e-05
2.68693e-05
2.29995e-05
1.98145e-05
1.69849e-05
1.456e-05
1.26016e-05
1.09816e-05
9.55935e-06
8.32451e-06
7.29447e-06
6.43173e-06
5.67517e-06
4.97279e-06
4.34505e-06
3.8429e-06
3.42028e-06
2.98521e-06
2.56736e-06
2.25861e-06
2.01599e-06
1.73733e-06
1.48679e-06
1.31406e-06
1.14394e-06
9.72631e-07
8.50215e-07
7.40767e-07
6.18648e-07
5.28334e-07
4.67128e-07
3.9083e-07
3.20274e-07
2.78219e-07
2.32194e-07
1.90898e-07
1.62479e-07
1.30616e-07
1.06634e-07
9.07594e-08
6.98554e-08
5.52555e-08
4.53088e-08
3.5205e-08
3.14651e-08
2.92631e-08
2.61297e-08
1.99026e-08
9.54001e-09
5.762e-10
1.00387e-13
1.00931e-15
9.48829e-16
8.83949e-16
7.72781e-16
6.12701e-16
3.84807e-16
2.64026e-16
2.17687e-16
1.96151e-16
1.82953e-16
1.65717e-16
1.36117e-16
9.34322e-17
5.72199e-17
4.37394e-17
3.79017e-17
3.46557e-17
3.08953e-17
2.43973e-17
1.49664e-17
7.55013e-18
4.82604e-18
3.59712e-18
2.84099e-18
1.86045e-18
6.81109e-19
2.45119e-19
1.07741e-19
5.37451e-20
2.86664e-20
1.6037e-20
9.32331e-21
5.31076e-21
2.75424e-21
1.38253e-21
7.1862e-22
3.76988e-22
1.88645e-22
9.27374e-23
4.50597e-23
2.14016e-23
9.92207e-24
4.4843e-24
1.97308e-24
8.44025e-25
3.50509e-25
1.41097e-25
5.49666e-26
2.06867e-26
7.50714e-27
2.62157e-27
8.78984e-28
2.8227e-28
8.65831e-29
2.52912e-29
7.01134e-30
1.83764e-30
4.53363e-31
1.04755e-31
2.25371e-32
4.48344e-33
8.17932e-34
1.35462e-34
2.01105e-35
2.63306e-36
2.97505e-37
2.81353e-38
2.12646e-39
1.18754e-40
4.159e-42
4.97923e-44
1.09273e-46
1.84243e-48
1.54114e-50
2.2911e-61
1.72544e-72
9.9616e-84
4.14738e-95
1.56516e-106
4.92517e-118
2.02311e-129
1.72393e-137
4.06593e-148
5.9357e-156
1.32634e-166
2.04195e-174
5.70232e-185
7.02277e-193
2.58044e-203
2.41716e-211
1.77421e-221
8.39339e-230
1.18933e-239
2.95543e-248
6.01784e-258
1.05498e-266
2.85107e-276
3.81692e-285
1.25767e-294
1.40167e-303
5.38596e-313
1.53654e-321
7.09478e-321
6.08689e-321
8.5424e-321
0
0
0
0
0
0
0
0
0
0
0
0
0
0
0
0
)
;

boundaryField
{
    inandouthalf11
    {
        type            cyclic;
    }
    inandouthalf12
    {
        type            cyclic;
    }
    inandouthalf21
    {
        type            cyclic;
    }
    inandouthalf22
    {
        type            cyclic;
    }
    inandouthalf31
    {
        type            cyclic;
    }
    inandouthalf32
    {
        type            cyclic;
    }
    inandouthalf41
    {
        type            cyclic;
    }
    inandouthalf42
    {
        type            cyclic;
    }
    top
    {
        type            symmetryPlane;
    }
    walls
    {
        type            zeroGradient;
    }
    frontAndBackPlanes
    {
        type            empty;
    }
}


// ************************************************************************* //
