/*--------------------------------*- C++ -*----------------------------------*\
| =========                 |                                                 |
| \\      /  F ield         | OpenFOAM: The Open Source CFD Toolbox           |
|  \\    /   O peration     | Version:  2.4.x                                 |
|   \\  /    A nd           | Web:      www.OpenFOAM.org                      |
|    \\/     M anipulation  |                                                 |
\*---------------------------------------------------------------------------*/
FoamFile
{
    version     2.0;
    format      ascii;
    class       volScalarField;
    location    "3.9";
    object      ddt0(((1.5*(alpha+1e-08))*rho),Theta);
}
// * * * * * * * * * * * * * * * * * * * * * * * * * * * * * * * * * * * * * //

dimensions      [1 -1 -3 0 0 0 0];

internalField   nonuniform List<scalar> 
360
(
-2.3911e-20
-1.4761e-19
-1.75169e-19
-1.33963e-19
-1.15706e-19
-1.16295e-19
-1.26964e-19
-1.39095e-19
-1.46514e-19
-1.48506e-19
-1.46889e-19
-1.42041e-19
-1.32315e-19
-1.15694e-19
-9.2314e-20
-6.59845e-20
-4.39158e-20
-3.52323e-20
-4.91713e-20
-9.43643e-20
-1.80855e-19
-3.25363e-19
-5.56874e-19
-9.123e-19
-1.38492e-18
-1.74473e-18
-1.30559e-18
5.06392e-19
2.38881e-18
2.27517e-18
9.83564e-19
2.2013e-19
2.94109e-20
2.96241e-21
2.95516e-22
3.20462e-23
-6.60918e-25
-6.98465e-24
-9.7398e-24
-1.23509e-23
-1.52721e-23
-1.80142e-23
-1.98205e-23
-2.03088e-23
-1.97056e-23
-1.86107e-23
-1.75724e-23
-1.6891e-23
-1.66582e-23
-1.68208e-23
-1.72804e-23
-1.79689e-23
-1.88375e-23
-1.98456e-23
-2.09704e-23
-2.21934e-23
-2.34889e-23
-2.4836e-23
-2.62003e-23
-2.75582e-23
-2.88856e-23
-3.01226e-23
-3.12181e-23
-3.21441e-23
-3.29183e-23
-3.36221e-23
-3.43738e-23
-3.52891e-23
-3.6468e-23
-3.80215e-23
-4.00393e-23
-4.25038e-23
-4.53415e-23
-4.8483e-23
-5.18037e-23
-5.51249e-23
-5.82832e-23
-6.12114e-23
-6.39388e-23
-6.65336e-23
-6.91078e-23
-7.18053e-23
-7.47366e-23
-7.79449e-23
-8.14147e-23
-8.50747e-23
-8.88093e-23
-9.24858e-23
-9.59997e-23
-9.9297e-23
-1.02367e-22
-1.05242e-22
-1.07984e-22
-1.1065e-22
-1.13274e-22
-1.15869e-22
-1.18425e-22
-1.20911e-22
-1.23293e-22
-1.23629e-22
0
0
0
0
0
0
0
0
0
0
0
0
0
0
0
-1.35882e-22
-1.36391e-22
-1.37325e-22
-1.38764e-22
-1.40752e-22
-1.43284e-22
-1.46278e-22
-1.49551e-22
-1.52807e-22
-1.55638e-22
-1.57556e-22
-1.58039e-22
-1.56582e-22
-1.52757e-22
-8.91399e-22
-1.44509e-16
-3.73581e-16
-8.43216e-16
-1.73099e-15
-3.19938e-15
-5.10104e-15
-5.23953e-15
1.46304e-14
2.47132e-13
3.42315e-12
5.16612e-11
8.68742e-10
1.66477e-08
3.73234e-07
1.13427e-05
0.00111243
0.0668776
0.99638
5.69957
4.20855
1.44536
0.76982
0.613347
0.584118
0.573331
0.545568
0.495542
0.424922
0.343859
0.262741
0.189911
0.130276
0.0852645
0.0537909
0.0334152
0.0211
0.0138918
0.00959532
0.00690718
0.00513558
0.00391486
0.00304297
0.00240207
0.00191998
0.00155044
0.00126269
0.00103562
0.000854301
0.000707867
0.000588198
0.000489243
0.000406398
0.0003361
0.000275688
0.00022334
0.000178085
0.000139784
0.000108826
8.53785e-05
6.85528e-05
5.63353e-05
4.66491e-05
3.84729e-05
3.17569e-05
2.64832e-05
2.22487e-05
1.86782e-05
1.56913e-05
1.32667e-05
1.12875e-05
9.61042e-06
8.12181e-06
6.83794e-06
5.82079e-06
4.97992e-06
4.1737e-06
3.44284e-06
2.90105e-06
2.47651e-06
2.03838e-06
1.6635e-06
1.39931e-06
1.15731e-06
9.33193e-07
7.71746e-07
6.34655e-07
4.99333e-07
4.00575e-07
3.31513e-07
2.59113e-07
1.97866e-07
1.59355e-07
1.23015e-07
9.32707e-08
7.27948e-08
5.36255e-08
3.99302e-08
3.07454e-08
2.15381e-08
1.54125e-08
1.1317e-08
7.9102e-09
6.1043e-09
4.73756e-09
3.38738e-09
1.91014e-09
-5.97793e-51
0
0
0
0
0
0
0
0
0
0
0
0
0
0
0
0
0
0
0
0
0
0
0
0
0
0
0
0
0
0
0
0
0
0
0
0
0
0
0
0
0
0
0
0
0
0
0
0
0
0
0
0
0
0
0
0
0
0
0
0
0
0
0
0
0
0
0
0
0
0
0
0
0
0
0
0
0
0
0
0
0
0
0
0
0
0
0
0
0
0
0
0
0
0
0
0
0
0
0
0
0
0
0
0
0
0
0
0
0
0
0
0
0
0
0
0
0
0
0
0
0
0
0
)
;

boundaryField
{
    inandouthalf11
    {
        type            cyclic;
    }
    inandouthalf12
    {
        type            cyclic;
    }
    inandouthalf21
    {
        type            cyclic;
    }
    inandouthalf22
    {
        type            cyclic;
    }
    inandouthalf31
    {
        type            cyclic;
    }
    inandouthalf32
    {
        type            cyclic;
    }
    inandouthalf41
    {
        type            cyclic;
    }
    inandouthalf42
    {
        type            cyclic;
    }
    top
    {
        type            symmetryPlane;
    }
    walls
    {
        type            calculated;
        value           uniform -2.3911e-20;
    }
    frontAndBackPlanes
    {
        type            empty;
    }
}


// ************************************************************************* //
