/*--------------------------------*- C++ -*----------------------------------*\
| =========                 |                                                 |
| \\      /  F ield         | OpenFOAM: The Open Source CFD Toolbox           |
|  \\    /   O peration     | Version:  2.4.x                                 |
|   \\  /    A nd           | Web:      www.OpenFOAM.org                      |
|    \\/     M anipulation  |                                                 |
\*---------------------------------------------------------------------------*/
FoamFile
{
    version     2.0;
    format      ascii;
    class       volScalarField;
    location    "3.9";
    object      mua;
}
// * * * * * * * * * * * * * * * * * * * * * * * * * * * * * * * * * * * * * //

dimensions      [1 -1 -1 0 0 0 0];

internalField   nonuniform List<scalar> 
360
(
416979
229261
249881
278279
280053
271247
261577
254254
249772
246469
242789
238462
234056
230458
228219
227478
228106
229657
231154
231031
227345
217903
201624
179430
154554
131804
116192
112657
128908
184870
343497
820633
2.37108e+06
7.32416e+06
2.07412e+07
4.71415e+07
8.04348e+07
1.03739e+08
1.07662e+08
9.78791e+07
8.40107e+07
7.18817e+07
6.31514e+07
5.75588e+07
5.44535e+07
5.30983e+07
5.28512e+07
5.31595e+07
5.34903e+07
5.35359e+07
5.32029e+07
5.24107e+07
5.11966e+07
4.96389e+07
4.78492e+07
4.5907e+07
4.39415e+07
4.20085e+07
4.0187e+07
3.85123e+07
3.69854e+07
3.56582e+07
3.45266e+07
3.35893e+07
3.28029e+07
3.2101e+07
3.14012e+07
3.06414e+07
2.97808e+07
2.87901e+07
2.76592e+07
2.64431e+07
2.52112e+07
2.3998e+07
2.28536e+07
2.1811e+07
2.08919e+07
2.00836e+07
1.93614e+07
1.87006e+07
1.80773e+07
1.74667e+07
1.68565e+07
1.62459e+07
1.56406e+07
1.50512e+07
1.44887e+07
1.39625e+07
1.34762e+07
1.30282e+07
1.26143e+07
1.22282e+07
1.18628e+07
1.15128e+07
1.11751e+07
1.08482e+07
1.05318e+07
1.02265e+07
9.93297e+06
9.65147e+06
9.38202e+06
9.12431e+06
8.87787e+06
8.6422e+06
8.41684e+06
8.20126e+06
7.99484e+06
7.79681e+06
7.60617e+06
7.42171e+06
7.24202e+06
7.06544e+06
6.89017e+06
6.71423e+06
6.53559e+06
6.35224e+06
6.16243e+06
5.96479e+06
5.75871e+06
5.54451e+06
5.32378e+06
5.09942e+06
4.87561e+06
4.65749e+06
4.45056e+06
4.26017e+06
4.09101e+06
3.9472e+06
3.83263e+06
3.75123e+06
3.70598e+06
3.69594e+06
3.71249e+06
3.73981e+06
3.76412e+06
3.78333e+06
3.80036e+06
3.80978e+06
3.81997e+06
3.93479e+06
4.44859e+06
5.91041e+06
9.1848e+06
1.59671e+07
2.63304e+07
2.24873e+07
1.3455e+06
0.0981038
0.0169149
0.00962108
0.00788162
0.00690038
0.00625166
0.00581428
0.0055156
0.00530134
0.00513234
0.00498305
0.00484023
0.00469885
0.0045594
0.00442522
0.00430013
0.00418687
0.00408627
0.00399763
0.00391953
0.00385055
0.00378951
0.00373539
0.00368732
0.00364451
0.00360628
0.00357202
0.00354118
0.00351326
0.00348786
0.00346457
0.00344307
0.00342304
0.00340423
0.00338639
0.00336932
0.00335283
0.00333675
0.00332095
0.0033053
0.0032897
0.00327408
0.00325839
0.00324258
0.00322661
0.00321047
0.00319414
0.0031776
0.00316084
0.00314384
0.00312661
0.00310913
0.00309139
0.0030734
0.00305495
0.00303584
0.00301604
0.00299552
0.00297423
0.00295214
0.0029292
0.00290536
0.00288056
0.00285476
0.00282788
0.00279984
0.00277059
0.00274001
0.00270802
0.0026745
0.00263932
0.00260234
0.00256339
0.00252228
0.00247878
0.00243263
0.00238351
0.00233105
0.00227477
0.0022141
0.00214831
0.00207646
0.00199729
0.00190907
0.00180927
0.0016941
0.00155722
0.00138649
0.00115205
0
0
0
0
0
0
0
0
0
0
0
0
0
0
0
0
0
0
0
0
0
0
0
0
0
0
0
0
0
0
0
0
0
0
0
0
0
0
0
0
0
0
0
0
0
0
0
0
0
0
0
0
0
0
0
0
0
0
0
0
0
0
0
0
0
0
0
0
0
0
0
0
0
0
0
0
0
0
0
0
0
0
0
0
0
0
0
0
0
0
0
0
0
0
0
0
0
0
0
0
0
0
0
0
0
0
0
0
0
0
0
0
0
0
0
0
0
0
0
0
0
0
0
0
)
;

boundaryField
{
    inandouthalf11
    {
        type            cyclic;
    }
    inandouthalf12
    {
        type            cyclic;
    }
    inandouthalf21
    {
        type            cyclic;
    }
    inandouthalf22
    {
        type            cyclic;
    }
    inandouthalf31
    {
        type            cyclic;
    }
    inandouthalf32
    {
        type            cyclic;
    }
    inandouthalf41
    {
        type            cyclic;
    }
    inandouthalf42
    {
        type            cyclic;
    }
    top
    {
        type            symmetryPlane;
    }
    walls
    {
        type            calculated;
        value           uniform 1e+30;
    }
    frontAndBackPlanes
    {
        type            empty;
    }
}


// ************************************************************************* //
