/*--------------------------------*- C++ -*----------------------------------*\
| =========                 |                                                 |
| \\      /  F ield         | OpenFOAM: The Open Source CFD Toolbox           |
|  \\    /   O peration     | Version:  2.4.x                                 |
|   \\  /    A nd           | Web:      www.OpenFOAM.org                      |
|    \\/     M anipulation  |                                                 |
\*---------------------------------------------------------------------------*/
FoamFile
{
    version     2.0;
    format      ascii;
    class       volScalarField;
    location    "3.9";
    object      nutb;
}
// * * * * * * * * * * * * * * * * * * * * * * * * * * * * * * * * * * * * * //

dimensions      [0 2 -1 0 0 0 0];

internalField   nonuniform List<scalar> 
360
(
9e-22
9e-22
9e-22
9e-22
9e-22
9e-22
9e-22
9e-22
9e-22
9e-22
9e-22
9e-22
9e-22
9e-22
9e-22
9e-22
9e-22
9e-22
9e-22
9e-22
9e-22
9e-22
9e-22
9e-22
9e-22
9e-22
9e-22
9e-22
9e-22
9e-22
9e-22
9e-22
9e-22
9e-22
9e-22
9e-22
9e-22
9e-22
9e-22
9e-22
9e-22
9e-22
9e-22
9e-22
9e-22
9e-22
9e-22
9e-22
9e-22
9e-22
9e-22
9e-22
9e-22
9e-22
9e-22
9e-22
9e-22
9e-22
9e-22
9e-22
9e-22
9e-22
9e-22
9e-22
9e-22
9e-22
9e-22
9e-22
9e-22
9e-22
9e-22
9e-22
9e-22
9e-22
9e-22
9e-22
9e-22
9e-22
9e-22
9e-22
9e-22
9e-22
9e-22
9e-22
9e-22
9e-22
9e-22
9e-22
9e-22
9e-22
9e-22
9e-22
9e-22
9e-22
9e-22
9e-22
9e-22
9e-22
9e-22
9e-22
9e-22
9e-22
9e-22
9e-22
9e-22
9e-22
9e-22
9e-22
9e-22
9e-22
9e-22
9e-22
9e-22
9e-22
9e-22
9e-22
9e-22
9e-22
9e-22
9e-22
9e-22
9e-22
9e-22
9e-22
9e-22
9e-22
9e-22
9e-22
9e-22
9e-22
1.86257e-21
4.02862e-21
7.95235e-21
1.41771e-20
2.19966e-20
2.64211e-20
1.93008e-20
3.04781e-20
2.73624e-19
3.24255e-18
4.23538e-17
6.12673e-16
9.96887e-15
1.85745e-13
4.02835e-12
1.03331e-10
3.17561e-09
1.10003e-07
2.37404e-06
1.01499e-05
1.69947e-05
2.22178e-05
2.63961e-05
2.97895e-05
3.25417e-05
3.47486e-05
3.64756e-05
3.7778e-05
3.87174e-05
3.93748e-05
3.98612e-05
4.03256e-05
4.0959e-05
4.19893e-05
4.36577e-05
4.61773e-05
4.9685e-05
5.42047e-05
5.96388e-05
6.57932e-05
7.24232e-05
7.9281e-05
8.61498e-05
9.28593e-05
9.92887e-05
0.000105361
0.000111035
0.000116294
0.000121141
0.00012559
0.000129661
0.000133379
0.000136768
0.000139853
0.000142657
0.000145201
0.000147503
0.00014958
0.000151444
0.000153107
0.000154577
0.000155865
0.000156976
0.000157919
0.000158698
0.000159318
0.000159784
0.000160098
0.000160264
0.000160284
0.000160161
0.000159894
0.000159475
0.000158896
0.00015815
0.000157228
0.000156122
0.000154822
0.00015332
0.000151605
0.000149666
0.000147494
0.000145076
0.000142401
0.000139457
0.000136232
0.000132712
0.000128885
0.000124736
0.000120252
0.000115419
0.000110222
0.000104646
9.86761e-05
9.22983e-05
8.54975e-05
7.82595e-05
7.05706e-05
6.24181e-05
5.3791e-05
4.46803e-05
3.50788e-05
2.49722e-05
1.43416e-05
3.84893e-06
2.00187e-07
2.89966e-09
3.5481e-11
4.11754e-13
4.54177e-15
4.76203e-17
4.74443e-19
4.74644e-21
9.02637e-22
9e-22
9e-22
9e-22
9e-22
9e-22
9e-22
9e-22
9e-22
9e-22
9e-22
9e-22
9e-22
9e-22
9e-22
9e-22
9e-22
9e-22
9e-22
9e-22
9e-22
9e-22
9e-22
9e-22
9e-22
9e-22
9e-22
9e-22
9e-22
9e-22
9e-22
9e-22
9e-22
9e-22
9e-22
9e-22
9e-22
9e-22
9e-22
9e-22
9e-22
9e-22
9e-22
9e-22
9e-22
9e-22
9e-22
9e-22
9e-22
9e-22
9e-22
9e-22
9e-22
9e-22
9e-22
9e-22
9e-22
9e-22
9e-22
9e-22
9e-22
9e-22
9e-22
9e-22
9e-22
9e-22
9e-22
9e-22
9e-22
9e-22
9e-22
9e-22
9e-22
9e-22
9e-22
9e-22
9e-22
9e-22
9e-22
9e-22
9e-22
9e-22
9e-22
9e-22
9e-22
9e-22
9e-22
9e-22
9e-22
9e-22
9e-22
9e-22
9e-22
9e-22
9e-22
9e-22
9e-22
9e-22
9e-22
9e-22
9e-22
9e-22
9e-22
9e-22
9e-22
9e-22
9e-22
9e-22
9e-22
9e-22
9e-22
9e-22
9e-22
9e-22
9e-22
9e-22
9e-22
)
;

boundaryField
{
    inandouthalf11
    {
        type            cyclic;
    }
    inandouthalf12
    {
        type            cyclic;
    }
    inandouthalf21
    {
        type            cyclic;
    }
    inandouthalf22
    {
        type            cyclic;
    }
    inandouthalf31
    {
        type            cyclic;
    }
    inandouthalf32
    {
        type            cyclic;
    }
    inandouthalf41
    {
        type            cyclic;
    }
    inandouthalf42
    {
        type            cyclic;
    }
    top
    {
        type            symmetryPlane;
    }
    walls
    {
        type            calculated;
        value           uniform 0;
    }
    frontAndBackPlanes
    {
        type            empty;
    }
}


// ************************************************************************* //
