/*--------------------------------*- C++ -*----------------------------------*\
| =========                 |                                                 |
| \\      /  F ield         | OpenFOAM: The Open Source CFD Toolbox           |
|  \\    /   O peration     | Version:  2.4.x                                 |
|   \\  /    A nd           | Web:      www.OpenFOAM.org                      |
|    \\/     M anipulation  |                                                 |
\*---------------------------------------------------------------------------*/
FoamFile
{
    version     2.0;
    format      ascii;
    class       surfaceScalarField;
    location    "3.9";
    object      phia_0;
}
// * * * * * * * * * * * * * * * * * * * * * * * * * * * * * * * * * * * * * //

dimensions      [0 3 -1 0 0 0 0];

internalField   nonuniform List<scalar> 
359
(
-7.18383e-13
-2.11418e-12
-3.4692e-12
-4.69935e-12
-5.8949e-12
-7.1126e-12
-8.36528e-12
-9.64435e-12
-1.0936e-11
-1.22349e-11
-1.35432e-11
-1.4864e-11
-1.61983e-11
-1.75418e-11
-1.88871e-11
-2.02253e-11
-2.15485e-11
-2.28519e-11
-2.41358e-11
-2.54102e-11
-2.66942e-11
-2.80228e-11
-2.9446e-11
-3.10302e-11
-3.285e-11
-3.49584e-11
-3.73178e-11
-3.97176e-11
-4.17873e-11
-4.32143e-11
-4.39757e-11
-4.42928e-11
-4.44022e-11
-4.44376e-11
-4.445e-11
-4.44555e-11
-4.44587e-11
-4.44611e-11
-4.44635e-11
-4.44661e-11
-4.44691e-11
-4.44726e-11
-4.44765e-11
-4.44808e-11
-4.44853e-11
-4.449e-11
-4.44946e-11
-4.44991e-11
-4.45036e-11
-4.45081e-11
-4.45125e-11
-4.4517e-11
-4.45216e-11
-4.45263e-11
-4.45311e-11
-4.45361e-11
-4.45412e-11
-4.45466e-11
-4.45521e-11
-4.45578e-11
-4.45637e-11
-4.45698e-11
-4.4576e-11
-4.45823e-11
-4.45887e-11
-4.45952e-11
-4.46017e-11
-4.46084e-11
-4.46151e-11
-4.4622e-11
-4.46291e-11
-4.46365e-11
-4.46441e-11
-4.46519e-11
-4.46601e-11
-4.46686e-11
-4.46773e-11
-4.46862e-11
-4.46954e-11
-4.47047e-11
-4.47143e-11
-4.4724e-11
-4.47339e-11
-4.4744e-11
-4.47544e-11
-4.4765e-11
-4.47759e-11
-4.47869e-11
-4.47982e-11
-4.48097e-11
-4.48214e-11
-4.48332e-11
-4.48451e-11
-4.48572e-11
-4.48695e-11
-4.48818e-11
-4.48943e-11
-4.49069e-11
-4.49197e-11
-4.49325e-11
-4.49454e-11
-4.49584e-11
-4.49715e-11
-4.49846e-11
-4.49978e-11
-4.5011e-11
-4.50242e-11
-4.50374e-11
-4.50506e-11
-4.50637e-11
-4.50769e-11
-4.509e-11
-4.5103e-11
-4.5116e-11
-4.5129e-11
-4.51419e-11
-4.51548e-11
-4.51677e-11
-4.51806e-11
-4.51935e-11
-4.52064e-11
-4.52194e-11
-4.52324e-11
-4.52455e-11
-4.52586e-11
-4.52717e-11
-4.52846e-11
-4.52973e-11
-4.53097e-11
-4.53217e-11
-4.5333e-11
-4.53437e-11
-4.53536e-11
-4.53626e-11
-4.53708e-11
-4.53783e-11
-4.53849e-11
-4.53908e-11
-4.5396e-11
-4.54003e-11
-4.54036e-11
-4.54055e-11
-4.54064e-11
-4.54067e-11
-4.54067e-11
-4.54064e-11
-4.54087e-11
9.21802e-12
3.41e-09
6.46454e-09
8.31115e-09
9.79049e-09
1.11979e-08
1.26357e-08
1.41358e-08
1.56958e-08
1.72938e-08
1.88867e-08
2.04139e-08
2.1793e-08
2.29101e-08
2.3591e-08
2.3566e-08
2.25483e-08
2.05229e-08
1.78716e-08
1.50613e-08
1.23871e-08
9.9847e-09
7.90049e-09
6.13602e-09
4.67298e-09
3.48637e-09
2.5504e-09
1.84063e-09
1.3344e-09
1.01048e-09
8.48717e-10
8.27482e-10
9.24232e-10
1.11688e-09
1.378e-09
1.67523e-09
1.97426e-09
2.23944e-09
2.43832e-09
2.54852e-09
2.56557e-09
2.50679e-09
2.40298e-09
2.27894e-09
2.14114e-09
1.98566e-09
1.81359e-09
1.63281e-09
1.44765e-09
1.25669e-09
1.0603e-09
8.62168e-10
6.65519e-10
4.71329e-10
2.73375e-10
7.15921e-11
-1.26096e-10
-3.13343e-10
-4.97932e-10
-6.89609e-10
-8.7878e-10
-1.05613e-09
-1.24132e-09
-1.43989e-09
-1.63221e-09
-1.82747e-09
-2.04216e-09
-2.25764e-09
-2.47386e-09
-2.72141e-09
-2.98721e-09
-3.24374e-09
-3.53044e-09
-3.86604e-09
-4.20349e-09
-4.5779e-09
-5.00111e-09
-5.44207e-09
-5.95124e-09
-6.517e-09
-7.1045e-09
-7.79433e-09
-8.56477e-09
-9.39015e-09
-1.02833e-08
-1.11315e-08
-1.18721e-08
-1.24735e-08
-1.31212e-08
-8.50947e-08
-1.58109e-07
-1.58131e-07
-1.58131e-07
-1.58131e-07
-1.58131e-07
-1.58131e-07
-1.58131e-07
-1.58131e-07
-1.58131e-07
-1.58131e-07
-1.58131e-07
-1.58131e-07
-1.58131e-07
-1.58131e-07
-1.58131e-07
-1.58131e-07
-1.58131e-07
-1.58131e-07
-1.58131e-07
-1.58131e-07
-1.58131e-07
-1.58131e-07
-1.58131e-07
-1.58131e-07
-1.58131e-07
-1.58131e-07
-1.58131e-07
-1.58131e-07
-1.58131e-07
-1.58131e-07
-1.58131e-07
-1.58131e-07
-1.58131e-07
-1.58131e-07
-1.58131e-07
-1.58131e-07
-1.58131e-07
-1.58131e-07
-1.58131e-07
-1.58131e-07
-1.58131e-07
-1.58131e-07
-1.58131e-07
-1.58131e-07
-1.58131e-07
-1.58131e-07
-1.58131e-07
-1.58131e-07
-1.58131e-07
-1.58131e-07
-1.58131e-07
-1.58131e-07
-1.58131e-07
-1.58131e-07
-1.58131e-07
-1.58131e-07
-1.58131e-07
-1.58131e-07
-1.58131e-07
-1.58131e-07
-1.58131e-07
-1.58131e-07
-1.58131e-07
-1.58131e-07
-1.58131e-07
-1.58131e-07
-1.58131e-07
-1.58131e-07
-1.58131e-07
-1.58131e-07
-1.58131e-07
-1.58131e-07
-1.58131e-07
-1.58131e-07
-1.58131e-07
-1.58131e-07
-1.58131e-07
-1.58131e-07
-1.58131e-07
-1.58131e-07
-1.58131e-07
-1.58131e-07
-1.58131e-07
-1.58131e-07
-1.58131e-07
-1.58131e-07
-1.58131e-07
-1.58131e-07
-1.58131e-07
-1.58131e-07
-1.58131e-07
-1.58131e-07
-1.58131e-07
-1.58131e-07
-1.58131e-07
-1.58131e-07
-1.58131e-07
-1.58131e-07
-1.58131e-07
-1.58131e-07
-1.58131e-07
-1.58131e-07
-1.58131e-07
-1.58131e-07
-1.58131e-07
-1.58131e-07
-1.58131e-07
-1.58131e-07
-1.58131e-07
-1.58131e-07
-1.58131e-07
-1.58131e-07
-1.58131e-07
-1.58131e-07
-1.58131e-07
-1.58131e-07
-1.58131e-07
-1.58131e-07
-1.58131e-07
-1.58114e-07
-1.57407e-07
-1.32499e-07
)
;

boundaryField
{
    inandouthalf11
    {
        type            cyclic;
        value           nonuniform List<scalar> 
100
(
1.11659e-38
6.86519e-14
1.60638e-13
2.43517e-13
3.21372e-13
3.99662e-13
4.80085e-13
5.62553e-13
6.46329e-13
7.30782e-13
8.15788e-13
9.01542e-13
9.88197e-13
1.07565e-12
1.16349e-12
1.2512e-12
1.3382e-12
1.42408e-12
1.50866e-12
1.59228e-12
1.67587e-12
1.76118e-12
1.85093e-12
1.94886e-12
2.05959e-12
2.18754e-12
2.33389e-12
2.49096e-12
2.63831e-12
2.75061e-12
2.81663e-12
2.8463e-12
2.85701e-12
2.86052e-12
2.86172e-12
2.86223e-12
2.8625e-12
2.8627e-12
2.86289e-12
2.86309e-12
2.86333e-12
2.86362e-12
2.86397e-12
2.86436e-12
2.8648e-12
2.86527e-12
2.86575e-12
2.86624e-12
2.86674e-12
2.86724e-12
2.86775e-12
2.86828e-12
2.86882e-12
2.86938e-12
2.86997e-12
2.8706e-12
2.87125e-12
2.87194e-12
2.87267e-12
2.87343e-12
2.87423e-12
2.87506e-12
2.87593e-12
2.87683e-12
2.87775e-12
2.8787e-12
2.87967e-12
2.88066e-12
2.88168e-12
2.88273e-12
2.88382e-12
2.88495e-12
2.88614e-12
2.88738e-12
2.88868e-12
2.89004e-12
2.89146e-12
2.89293e-12
2.89444e-12
2.89601e-12
2.89762e-12
2.89928e-12
2.90098e-12
2.90274e-12
2.90455e-12
2.90641e-12
2.90833e-12
2.91031e-12
2.91234e-12
2.91443e-12
2.91656e-12
2.91874e-12
2.92097e-12
2.92324e-12
2.92555e-12
2.92791e-12
2.9303e-12
2.93274e-12
2.93522e-12
2.93775e-12
)
;
    }
    inandouthalf12
    {
        type            cyclic;
        value           nonuniform List<scalar> 
100
(
-1.11659e-38
-6.86519e-14
-1.60638e-13
-2.43517e-13
-3.21372e-13
-3.99662e-13
-4.80085e-13
-5.62553e-13
-6.46329e-13
-7.30782e-13
-8.15788e-13
-9.01542e-13
-9.88197e-13
-1.07565e-12
-1.16349e-12
-1.2512e-12
-1.3382e-12
-1.42408e-12
-1.50866e-12
-1.59228e-12
-1.67587e-12
-1.76118e-12
-1.85093e-12
-1.94886e-12
-2.05959e-12
-2.18754e-12
-2.33389e-12
-2.49096e-12
-2.63831e-12
-2.75061e-12
-2.81663e-12
-2.8463e-12
-2.85701e-12
-2.86052e-12
-2.86172e-12
-2.86223e-12
-2.8625e-12
-2.8627e-12
-2.86289e-12
-2.86309e-12
-2.86333e-12
-2.86362e-12
-2.86397e-12
-2.86436e-12
-2.8648e-12
-2.86527e-12
-2.86575e-12
-2.86624e-12
-2.86674e-12
-2.86724e-12
-2.86775e-12
-2.86828e-12
-2.86882e-12
-2.86938e-12
-2.86997e-12
-2.8706e-12
-2.87125e-12
-2.87194e-12
-2.87267e-12
-2.87343e-12
-2.87423e-12
-2.87506e-12
-2.87593e-12
-2.87683e-12
-2.87775e-12
-2.8787e-12
-2.87967e-12
-2.88066e-12
-2.88168e-12
-2.88273e-12
-2.88382e-12
-2.88495e-12
-2.88614e-12
-2.88738e-12
-2.88868e-12
-2.89004e-12
-2.89146e-12
-2.89293e-12
-2.89444e-12
-2.89601e-12
-2.89762e-12
-2.89928e-12
-2.90098e-12
-2.90274e-12
-2.90455e-12
-2.90641e-12
-2.90833e-12
-2.91031e-12
-2.91234e-12
-2.91443e-12
-2.91656e-12
-2.91874e-12
-2.92097e-12
-2.92324e-12
-2.92555e-12
-2.92791e-12
-2.9303e-12
-2.93274e-12
-2.93522e-12
-2.93775e-12
)
;
    }
    inandouthalf21
    {
        type            cyclic;
        value           nonuniform List<scalar> 
100
(
2.94031e-12
2.9429e-12
2.94553e-12
2.9482e-12
2.9509e-12
2.95363e-12
2.95638e-12
2.95916e-12
2.96196e-12
2.96479e-12
2.96764e-12
2.9705e-12
2.97338e-12
2.97629e-12
2.97921e-12
2.98216e-12
2.98513e-12
2.98814e-12
2.99119e-12
2.99428e-12
2.99742e-12
3.00063e-12
3.00391e-12
3.00726e-12
3.01069e-12
3.01419e-12
3.01776e-12
3.02138e-12
3.02502e-12
3.02867e-12
3.03228e-12
3.03583e-12
3.03927e-12
3.04259e-12
3.04578e-12
3.04886e-12
3.05182e-12
3.05467e-12
3.0574e-12
3.05998e-12
3.06227e-12
3.06403e-12
3.06516e-12
3.06576e-12
3.06606e-12
3.06625e-12
3.0665e-12
3.07017e-12
3.6737e-08
1.48854e-07
2.51747e-07
3.34138e-07
4.01765e-07
4.58451e-07
5.06629e-07
5.47943e-07
5.83547e-07
6.14265e-07
6.4069e-07
6.63259e-07
6.8232e-07
6.98185e-07
7.11182e-07
7.21679e-07
7.30089e-07
7.36827e-07
7.42249e-07
7.46635e-07
7.50188e-07
7.53062e-07
7.55374e-07
7.57219e-07
7.58669e-07
7.59787e-07
7.60621e-07
7.61215e-07
7.61604e-07
7.61818e-07
7.61884e-07
7.61829e-07
7.6167e-07
7.61421e-07
7.61102e-07
7.60726e-07
7.60305e-07
7.59852e-07
7.59374e-07
7.58879e-07
7.58372e-07
7.57859e-07
7.57345e-07
7.56834e-07
7.56326e-07
7.55822e-07
7.55324e-07
7.54833e-07
7.5435e-07
7.53874e-07
7.53406e-07
7.52948e-07
)
;
    }
    inandouthalf22
    {
        type            cyclic;
        value           nonuniform List<scalar> 
100
(
-2.94031e-12
-2.9429e-12
-2.94553e-12
-2.9482e-12
-2.9509e-12
-2.95363e-12
-2.95638e-12
-2.95916e-12
-2.96196e-12
-2.96479e-12
-2.96764e-12
-2.9705e-12
-2.97338e-12
-2.97629e-12
-2.97921e-12
-2.98216e-12
-2.98513e-12
-2.98814e-12
-2.99119e-12
-2.99428e-12
-2.99742e-12
-3.00063e-12
-3.00391e-12
-3.00726e-12
-3.01069e-12
-3.01419e-12
-3.01776e-12
-3.02138e-12
-3.02502e-12
-3.02867e-12
-3.03228e-12
-3.03583e-12
-3.03927e-12
-3.04259e-12
-3.04578e-12
-3.04886e-12
-3.05182e-12
-3.05467e-12
-3.0574e-12
-3.05998e-12
-3.06227e-12
-3.06403e-12
-3.06516e-12
-3.06576e-12
-3.06606e-12
-3.06625e-12
-3.0665e-12
-3.07017e-12
-3.6737e-08
-1.48854e-07
-2.51747e-07
-3.34138e-07
-4.01765e-07
-4.58451e-07
-5.06629e-07
-5.47943e-07
-5.83547e-07
-6.14265e-07
-6.4069e-07
-6.63259e-07
-6.8232e-07
-6.98185e-07
-7.11182e-07
-7.21679e-07
-7.30089e-07
-7.36827e-07
-7.42249e-07
-7.46635e-07
-7.50188e-07
-7.53062e-07
-7.55374e-07
-7.57219e-07
-7.58669e-07
-7.59787e-07
-7.60621e-07
-7.61215e-07
-7.61604e-07
-7.61818e-07
-7.61884e-07
-7.61829e-07
-7.6167e-07
-7.61421e-07
-7.61102e-07
-7.60726e-07
-7.60305e-07
-7.59852e-07
-7.59374e-07
-7.58879e-07
-7.58372e-07
-7.57859e-07
-7.57345e-07
-7.56834e-07
-7.56326e-07
-7.55822e-07
-7.55324e-07
-7.54833e-07
-7.5435e-07
-7.53874e-07
-7.53406e-07
-7.52948e-07
)
;
    }
    inandouthalf31
    {
        type            cyclic;
        value           nonuniform List<scalar> 
110
(
7.52504e-07
7.67328e-07
7.82443e-07
7.97855e-07
8.13574e-07
8.29602e-07
8.45938e-07
8.62588e-07
8.79565e-07
8.96871e-07
9.14501e-07
9.32466e-07
9.50776e-07
9.69426e-07
9.88424e-07
1.00778e-06
1.02749e-06
1.04755e-06
1.06799e-06
1.0888e-06
1.10996e-06
1.13149e-06
1.15341e-06
1.1757e-06
1.19837e-06
1.22142e-06
1.24484e-06
1.26866e-06
1.29286e-06
1.31741e-06
1.34236e-06
1.36772e-06
1.39359e-06
1.42016e-06
1.44755e-06
1.47579e-06
1.50432e-06
1.36813e-06
1.39557e-06
1.42388e-06
1.45277e-06
1.48225e-06
1.51232e-06
1.54301e-06
1.57432e-06
1.60627e-06
1.63887e-06
1.67213e-06
1.70606e-06
1.74069e-06
1.77602e-06
1.81206e-06
1.84884e-06
1.88637e-06
1.92465e-06
1.96372e-06
2.00358e-06
2.04424e-06
2.08573e-06
2.12807e-06
2.17126e-06
2.21533e-06
2.2603e-06
2.30618e-06
2.35299e-06
2.40074e-06
2.44947e-06
2.49919e-06
2.54992e-06
2.60167e-06
2.65448e-06
2.70836e-06
2.76333e-06
2.81942e-06
2.87665e-06
2.93504e-06
2.99461e-06
3.05539e-06
3.11741e-06
3.18068e-06
3.24524e-06
3.31111e-06
3.37832e-06
3.44689e-06
3.51685e-06
3.58824e-06
3.66107e-06
3.73538e-06
3.81119e-06
3.88855e-06
3.96748e-06
4.04801e-06
4.13017e-06
4.214e-06
4.29954e-06
4.38681e-06
4.47585e-06
4.56669e-06
4.65939e-06
4.75396e-06
4.85045e-06
4.9489e-06
5.04935e-06
5.15184e-06
5.25641e-06
5.3631e-06
5.47196e-06
5.58302e-06
5.69634e-06
5.81196e-06
)
;
    }
    inandouthalf32
    {
        type            cyclic;
        value           nonuniform List<scalar> 
110
(
-7.52504e-07
-7.67328e-07
-7.82443e-07
-7.97855e-07
-8.13574e-07
-8.29602e-07
-8.45938e-07
-8.62588e-07
-8.79565e-07
-8.96871e-07
-9.14501e-07
-9.32466e-07
-9.50776e-07
-9.69426e-07
-9.88424e-07
-1.00778e-06
-1.02749e-06
-1.04755e-06
-1.06799e-06
-1.0888e-06
-1.10996e-06
-1.13149e-06
-1.15341e-06
-1.1757e-06
-1.19837e-06
-1.22142e-06
-1.24484e-06
-1.26866e-06
-1.29286e-06
-1.31741e-06
-1.34236e-06
-1.36772e-06
-1.39359e-06
-1.42016e-06
-1.44755e-06
-1.47579e-06
-1.50432e-06
-1.36813e-06
-1.39557e-06
-1.42388e-06
-1.45277e-06
-1.48225e-06
-1.51232e-06
-1.54301e-06
-1.57432e-06
-1.60627e-06
-1.63887e-06
-1.67213e-06
-1.70606e-06
-1.74069e-06
-1.77602e-06
-1.81206e-06
-1.84884e-06
-1.88637e-06
-1.92465e-06
-1.96372e-06
-2.00358e-06
-2.04424e-06
-2.08573e-06
-2.12807e-06
-2.17126e-06
-2.21533e-06
-2.2603e-06
-2.30618e-06
-2.35299e-06
-2.40074e-06
-2.44947e-06
-2.49919e-06
-2.54992e-06
-2.60167e-06
-2.65448e-06
-2.70836e-06
-2.76333e-06
-2.81942e-06
-2.87665e-06
-2.93504e-06
-2.99461e-06
-3.05539e-06
-3.11741e-06
-3.18068e-06
-3.24524e-06
-3.31111e-06
-3.37832e-06
-3.44689e-06
-3.51685e-06
-3.58824e-06
-3.66107e-06
-3.73538e-06
-3.81119e-06
-3.88855e-06
-3.96748e-06
-4.04801e-06
-4.13017e-06
-4.214e-06
-4.29954e-06
-4.38681e-06
-4.47585e-06
-4.56669e-06
-4.65939e-06
-4.75396e-06
-4.85045e-06
-4.9489e-06
-5.04935e-06
-5.15184e-06
-5.25641e-06
-5.3631e-06
-5.47196e-06
-5.58302e-06
-5.69634e-06
-5.81196e-06
)
;
    }
    inandouthalf41
    {
        type            cyclic;
        value           nonuniform List<scalar> 
50
(
5.2023e-06
5.2023e-06
5.2023e-06
5.2023e-06
5.2023e-06
5.2023e-06
5.2023e-06
5.2023e-06
5.2023e-06
5.2023e-06
5.2023e-06
5.2023e-06
5.2023e-06
5.2023e-06
5.2023e-06
5.2023e-06
5.2023e-06
5.2023e-06
5.2023e-06
5.2023e-06
5.2023e-06
5.2023e-06
5.2023e-06
5.2023e-06
5.2023e-06
5.2023e-06
5.2023e-06
5.2023e-06
5.2023e-06
5.2023e-06
5.2023e-06
5.2023e-06
5.2023e-06
5.2023e-06
5.2023e-06
5.2023e-06
5.2023e-06
5.2023e-06
5.2023e-06
5.2023e-06
5.2023e-06
5.2023e-06
5.2023e-06
5.2023e-06
5.2023e-06
5.2023e-06
5.2023e-06
5.20229e-06
5.20216e-06
5.19903e-06
)
;
    }
    inandouthalf42
    {
        type            cyclic;
        value           nonuniform List<scalar> 
50
(
-5.2023e-06
-5.2023e-06
-5.2023e-06
-5.2023e-06
-5.2023e-06
-5.2023e-06
-5.2023e-06
-5.2023e-06
-5.2023e-06
-5.2023e-06
-5.2023e-06
-5.2023e-06
-5.2023e-06
-5.2023e-06
-5.2023e-06
-5.2023e-06
-5.2023e-06
-5.2023e-06
-5.2023e-06
-5.2023e-06
-5.2023e-06
-5.2023e-06
-5.2023e-06
-5.2023e-06
-5.2023e-06
-5.2023e-06
-5.2023e-06
-5.2023e-06
-5.2023e-06
-5.2023e-06
-5.2023e-06
-5.2023e-06
-5.2023e-06
-5.2023e-06
-5.2023e-06
-5.2023e-06
-5.2023e-06
-5.2023e-06
-5.2023e-06
-5.2023e-06
-5.2023e-06
-5.2023e-06
-5.2023e-06
-5.2023e-06
-5.2023e-06
-5.2023e-06
-5.2023e-06
-5.20229e-06
-5.20216e-06
-5.19903e-06
)
;
    }
    top
    {
        type            symmetryPlane;
        value           uniform 0;
    }
    walls
    {
        type            fixedValue;
        value           uniform 0;
    }
    frontAndBackPlanes
    {
        type            empty;
        value           nonuniform 0();
    }
}


// ************************************************************************* //
