/*--------------------------------*- C++ -*----------------------------------*\
| =========                 |                                                 |
| \\      /  F ield         | OpenFOAM: The Open Source CFD Toolbox           |
|  \\    /   O peration     | Version:  2.4.x                                 |
|   \\  /    A nd           | Web:      www.OpenFOAM.org                      |
|    \\/     M anipulation  |                                                 |
\*---------------------------------------------------------------------------*/
FoamFile
{
    version     2.0;
    format      ascii;
    class       volScalarField;
    location    "3.9";
    object      tmf;
}
// * * * * * * * * * * * * * * * * * * * * * * * * * * * * * * * * * * * * * //

dimensions      [0 0 0 0 0 0 0];

internalField   nonuniform List<scalar> 
360
(
0.999205
0.999206
0.999207
0.999207
0.999207
0.999206
0.999206
0.999206
0.999206
0.999206
0.999206
0.999206
0.999206
0.999206
0.999206
0.999205
0.999205
0.999205
0.999205
0.999205
0.999205
0.999205
0.999205
0.999205
0.999205
0.999204
0.999204
0.999204
0.999204
0.999204
0.999204
0.999204
0.999204
0.999204
0.999204
0.999203
0.999203
0.999203
0.999203
0.999203
0.999203
0.999203
0.999203
0.999203
0.999203
0.999203
0.999203
0.999203
0.999203
0.999203
0.999203
0.999203
0.999203
0.999203
0.999203
0.999203
0.999203
0.999203
0.999203
0.999202
0.999202
0.999202
0.999202
0.999202
0.999202
0.999202
0.999202
0.999202
0.999202
0.999202
0.999201
0.999201
0.999201
0.999201
0.999201
0.999201
0.999201
0.9992
0.9992
0.9992
0.9992
0.9992
0.9992
0.9992
0.999199
0.999199
0.999199
0.999199
0.999199
0.999199
0.999198
0.999198
0.999198
0.999198
0.999198
0.999197
0.999197
0.999197
0.999197
0.999196
0.999196
0.999196
0.999196
0.999195
0.999195
0.999195
0.999195
0.999194
0.999194
0.999194
0.999193
0.999193
0.999193
0.999192
0.999192
0.999192
0.999191
0.999191
0.999191
0.99919
0.99919
0.999189
0.999189
0.999188
0.999188
0.999188
0.999187
0.999186
0.999186
0.999185
0.999339
0.999343
0.999328
0.999307
0.999268
0.999144
0.99852
0.997102
0.996433
0.995798
0.995007
0.994002
0.992715
0.991064
0.988944
0.986209
0.982614
0.977715
0.942903
0.87839
0.854606
0.854981
0.858379
0.863575
0.870296
0.878374
0.887546
0.897474
0.9078
0.918182
0.928311
0.937929
0.946828
0.954856
0.961911
0.967941
0.972949
0.976997
0.980195
0.982682
0.984596
0.986064
0.987188
0.98805
0.988712
0.989221
0.989609
0.989904
0.990125
0.990286
0.990398
0.99047
0.990508
0.990518
0.990503
0.990465
0.990408
0.990333
0.99024
0.990131
0.990006
0.989864
0.989706
0.98953
0.989335
0.989119
0.988881
0.988615
0.988318
0.987982
0.987595
0.987134
0.986555
0.98575
0.985269
0.986337
0.987071
0.987668
0.988184
0.988643
0.989059
0.989443
0.989801
0.990138
0.990458
0.990765
0.991059
0.991344
0.991621
0.991893
0.99216
0.992425
0.99269
0.992956
0.993226
0.993503
0.993788
0.994088
0.994408
0.994754
0.995139
0.995582
0.996116
0.996813
0.997544
0.997937
0.997965
0.997436
0.997425
0.997414
0.997403
0.997381
0.996491
0.9942
0.994192
0.994192
0.994192
0.994192
0.994192
0.994192
0.994192
0.994192
0.994192
0.994192
0.994192
0.994192
0.994192
0.994192
0.994192
0.994192
0.994192
0.994192
0.994192
0.994192
0.994192
0.994192
0.994192
0.994192
0.994192
0.994192
0.994192
0.994192
0.994192
0.994192
0.994192
0.994192
0.994192
0.994192
0.994192
0.994192
0.994192
0.994192
0.994192
0.994192
0.994192
0.994192
0.994192
0.994192
0.994192
0.994192
0.994192
0.994192
0.994192
0.994192
0.994192
0.994192
0.994192
0.994192
0.994192
0.994192
0.994192
0.994192
0.994192
0.994192
0.994192
0.994192
0.994192
0.994192
0.994192
0.994192
0.994192
0.994192
0.994192
0.994192
0.994192
0.994192
0.994192
0.994192
0.994192
0.994192
0.994192
0.994192
0.994192
0.994192
0.994192
0.994192
0.994192
0.994192
0.994192
0.994192
0.994192
0.994192
0.994192
0.994192
0.994192
0.994192
0.994192
0.994192
0.994192
0.994192
0.994192
0.994192
0.994192
0.994192
0.994192
0.994192
0.994192
0.994192
0.994192
0.994192
0.994192
0.994192
0.994192
0.994192
0.994192
0.994192
0.994192
0.994192
0.994176
0.993249
)
;

boundaryField
{
    inandouthalf11
    {
        type            cyclic;
    }
    inandouthalf12
    {
        type            cyclic;
    }
    inandouthalf21
    {
        type            cyclic;
    }
    inandouthalf22
    {
        type            cyclic;
    }
    inandouthalf31
    {
        type            cyclic;
    }
    inandouthalf32
    {
        type            cyclic;
    }
    inandouthalf41
    {
        type            cyclic;
    }
    inandouthalf42
    {
        type            cyclic;
    }
    top
    {
        type            symmetryPlane;
    }
    walls
    {
        type            calculated;
        value           uniform 0;
    }
    frontAndBackPlanes
    {
        type            empty;
    }
}


// ************************************************************************* //
