/*--------------------------------*- C++ -*----------------------------------*\
| =========                 |                                                 |
| \\      /  F ield         | OpenFOAM: The Open Source CFD Toolbox           |
|  \\    /   O peration     | Version:  2.4.x                                 |
|   \\  /    A nd           | Web:      www.OpenFOAM.org                      |
|    \\/     M anipulation  |                                                 |
\*---------------------------------------------------------------------------*/
FoamFile
{
    version     2.0;
    format      ascii;
    class       volVectorField;
    location    "3.9";
    object      U;
}
// * * * * * * * * * * * * * * * * * * * * * * * * * * * * * * * * * * * * * //

dimensions      [0 1 -1 0 0 0 0];

internalField   nonuniform List<vector> 
360
(
(-4.90086e-05 5.13631e-08 0)
(-4.88977e-05 2.05366e-09 0)
(-4.89053e-05 -1.12869e-08 0)
(-4.90041e-05 -4.2064e-09 0)
(-4.91076e-05 5.49546e-10 0)
(-4.9204e-05 1.46167e-09 0)
(-4.93008e-05 1.22055e-09 0)
(-4.93989e-05 7.21151e-10 0)
(-4.94968e-05 3.06393e-10 0)
(-4.95958e-05 2.31395e-10 0)
(-4.96963e-05 3.83011e-10 0)
(-4.97981e-05 4.97967e-10 0)
(-4.99013e-05 4.46366e-10 0)
(-5.00051e-05 2.09741e-10 0)
(-5.01093e-05 -1.24881e-10 0)
(-5.02133e-05 -4.62784e-10 0)
(-5.03167e-05 -7.29986e-10 0)
(-5.04187e-05 -8.3229e-10 0)
(-5.05192e-05 -6.73843e-10 0)
(-5.06189e-05 -1.30125e-10 0)
(-5.07181e-05 8.62097e-10 0)
(-5.08197e-05 2.45053e-09 0)
(-5.09265e-05 4.66508e-09 0)
(-5.10429e-05 7.44913e-09 0)
(-5.11744e-05 1.02741e-08 0)
(-5.13262e-05 1.1392e-08 0)
(-5.14997e-05 7.31497e-09 0)
(-5.16862e-05 -4.74206e-09 0)
(-5.18615e-05 -2.04137e-08 0)
(-5.1996e-05 -2.7757e-08 0)
(-5.20763e-05 -2.19072e-08 0)
(-5.2114e-05 -1.12868e-08 0)
(-5.21286e-05 -4.26827e-09 0)
(-5.21353e-05 -1.29535e-09 0)
(-5.21386e-05 -4.12827e-10 0)
(-5.21416e-05 -1.23322e-10 0)
(-5.21443e-05 -5.95493e-11 0)
(-5.21474e-05 -2.72013e-11 0)
(-5.2151e-05 2.74387e-11 0)
(-5.2154e-05 -2.39034e-11 0)
(-5.21582e-05 2.26261e-11 0)
(-5.21623e-05 2.28652e-11 0)
(-5.21665e-05 -1.91308e-11 0)
(-5.21717e-05 1.66998e-11 0)
(-5.21769e-05 -9.31612e-12 0)
(-5.21827e-05 -1.27481e-11 0)
(-5.21888e-05 5.21095e-12 0)
(-5.21949e-05 -3.47764e-11 0)
(-5.2202e-05 -3.22479e-11 0)
(-5.22099e-05 8.18383e-12 0)
(-5.22176e-05 -3.00158e-11 0)
(-5.22263e-05 -7.58484e-12 0)
(-5.22353e-05 -2.38002e-11 0)
(-5.22452e-05 -1.53844e-12 0)
(-5.22553e-05 -3.65922e-11 0)
(-5.22666e-05 5.32576e-12 0)
(-5.22781e-05 -3.03063e-11 0)
(-5.22907e-05 -6.75032e-12 0)
(-5.23038e-05 -3.25061e-12 0)
(-5.23173e-05 -3.44749e-11 0)
(-5.2332e-05 8.93052e-12 0)
(-5.23468e-05 -2.16252e-11 0)
(-5.23625e-05 2.80499e-12 0)
(-5.23783e-05 -9.30383e-12 0)
(-5.23946e-05 -4.31993e-12 0)
(-5.24112e-05 -1.67976e-11 0)
(-5.24284e-05 -1.44487e-11 0)
(-5.24463e-05 -1.32252e-11 0)
(-5.24647e-05 -9.90372e-12 0)
(-5.24836e-05 -2.98883e-11 0)
(-5.25036e-05 -1.59543e-11 0)
(-5.25245e-05 5.79499e-12 0)
(-5.25456e-05 -2.25867e-11 0)
(-5.25677e-05 4.03369e-13 0)
(-5.25902e-05 -1.09425e-11 0)
(-5.26136e-05 6.55098e-12 0)
(-5.26372e-05 -5.93277e-12 0)
(-5.26613e-05 -8.53906e-12 0)
(-5.26861e-05 -1.01258e-11 0)
(-5.27115e-05 -7.70045e-12 0)
(-5.27375e-05 -1.60493e-11 0)
(-5.27642e-05 -1.48727e-11 0)
(-5.27917e-05 -1.2786e-11 0)
(-5.28199e-05 -1.33202e-11 0)
(-5.28489e-05 -1.0435e-11 0)
(-5.28785e-05 -1.13449e-11 0)
(-5.29089e-05 -8.25255e-12 0)
(-5.29399e-05 -9.74185e-12 0)
(-5.29716e-05 -1.20621e-11 0)
(-5.3004e-05 -1.31397e-11 0)
(-5.30371e-05 -1.48839e-11 0)
(-5.30709e-05 -1.79786e-11 0)
(-5.31056e-05 -1.88937e-11 0)
(-5.3141e-05 -1.98363e-11 0)
(-5.31773e-05 -2.07103e-11 0)
(-5.32145e-05 -2.13252e-11 0)
(-5.32526e-05 -2.19273e-11 0)
(-5.32915e-05 -2.28978e-11 0)
(-5.33314e-05 -2.42391e-11 0)
(-5.33721e-05 -2.56114e-11 0)
(-5.34139e-05 -2.72656e-11 0)
(-5.34566e-05 -2.91148e-11 0)
(-5.35004e-05 -3.08884e-11 0)
(-5.35453e-05 -3.27376e-11 0)
(-5.35913e-05 -3.47224e-11 0)
(-5.36384e-05 -3.6785e-11 0)
(-5.36867e-05 -3.89702e-11 0)
(-5.37362e-05 -4.12853e-11 0)
(-5.3787e-05 -4.36791e-11 0)
(-5.38392e-05 -4.61286e-11 0)
(-5.38927e-05 -4.86141e-11 0)
(-5.39478e-05 -5.11069e-11 0)
(-5.40043e-05 -5.35933e-11 0)
(-5.40624e-05 -5.6062e-11 0)
(-5.41222e-05 -5.85012e-11 0)
(-5.41837e-05 -6.09157e-11 0)
(-5.42471e-05 -6.33327e-11 0)
(-5.43123e-05 -6.57968e-11 0)
(-5.43796e-05 -6.83659e-11 0)
(-5.4449e-05 -7.11159e-11 0)
(-5.45206e-05 -7.41415e-11 0)
(-5.45946e-05 -7.75633e-11 0)
(-5.4671e-05 -8.15902e-11 0)
(-5.475e-05 -8.66246e-11 0)
(-5.48317e-05 -9.33154e-11 0)
(-5.49163e-05 -1.02435e-10 0)
(-5.50039e-05 -1.14414e-10 0)
(-5.50948e-05 -1.28543e-10 0)
(-5.51892e-05 -1.42393e-10 0)
(-5.52875e-05 -1.53292e-10 0)
(-5.53897e-05 -1.63436e-10 0)
(-5.5496e-05 -1.85712e-10 0)
(-5.56069e-05 -2.32395e-10 0)
(-5.57236e-05 -2.80023e-10 0)
(-5.58474e-05 -2.77128e-10 0)
(-5.59784e-05 -2.46526e-10 0)
(-5.61158e-05 -3.12328e-10 0)
(-5.62615e-05 -5.70557e-10 0)
(-5.64228e-05 -8.68152e-10 0)
(-5.66077e-05 -5.85779e-10 0)
(-5.68086e-05 3.45224e-10 0)
(-5.69997e-05 -1.29903e-09 0)
(-5.72262e-05 -2.41623e-09 0)
(-5.75205e-05 -2.30799e-09 0)
(-5.78825e-05 -8.50261e-09 0)
(-5.84923e-05 -1.00994e-08 0)
(-6.00876e-05 -8.00361e-07 0)
(-0.000104141 5.89329e-06 0)
(-0.0391736 -9.78837e-06 0)
(-0.159129 -0.000115938 0)
(-0.261942 2.35557e-05 0)
(-0.343233 -4.26423e-06 0)
(-0.410162 -5.35713e-06 0)
(-0.466553 -3.63055e-06 0)
(-0.514825 -2.54719e-06 0)
(-0.556651 -1.96137e-06 0)
(-0.59323 -1.51137e-06 0)
(-0.625442 -1.11736e-06 0)
(-0.653927 -7.84997e-07 0)
(-0.679145 -4.98098e-07 0)
(-0.701412 -2.43688e-07 0)
(-0.720937 -4.40213e-08 0)
(-0.737848 4.79501e-08 0)
(-0.752235 3.85509e-08 0)
(-0.764191 3.06539e-08 0)
(-0.773859 6.52988e-08 0)
(-0.781456 8.20448e-08 0)
(-0.787267 6.25837e-08 0)
(-0.791603 3.63944e-08 0)
(-0.794761 1.98234e-08 0)
(-0.796998 1.13495e-08 0)
(-0.798521 6.90052e-09 0)
(-0.799486 4.31762e-09 0)
(-0.800011 2.71913e-09 0)
(-0.800184 1.70033e-09 0)
(-0.800069 1.03613e-09 0)
(-0.799713 5.92032e-10 0)
(-0.799155 2.91192e-10 0)
(-0.79842 1.1593e-10 0)
(-0.797532 -3.06014e-11 0)
(-0.796507 -1.29281e-10 0)
(-0.79536 -1.49553e-10 0)
(-0.794102 -1.57119e-10 0)
(-0.792743 -1.33412e-10 0)
(-0.791293 -9.43406e-11 0)
(-0.789758 -7.13046e-11 0)
(-0.788144 -8.39646e-11 0)
(-0.786459 -1.05307e-10 0)
(-0.784706 -8.08137e-11 0)
(-0.782891 -4.62582e-12 0)
(-0.781019 6.22398e-11 0)
(-0.779093 6.78161e-11 0)
(-0.777118 3.24877e-11 0)
(-0.775096 1.38571e-11 0)
(-0.773032 2.46203e-11 0)
(-0.770928 3.22287e-11 0)
(-0.768787 2.47287e-11 0)
(-0.766611 1.80398e-11 0)
(-0.764405 1.77731e-11 0)
(-0.762169 1.8407e-11 0)
(-0.759906 1.73343e-11 0)
(-0.757595 1.45346e-11 0)
(-0.755214 1.31334e-11 0)
(-0.752762 1.3486e-11 0)
(-0.750238 1.1668e-11 0)
(-0.747643 1.05481e-11 0)
(-0.744977 1.3045e-11 0)
(-0.742239 1.15944e-11 0)
(-0.73943 5.53793e-12 0)
(-0.736551 9.38342e-12 0)
(-0.733601 1.33033e-11 0)
(-0.730582 6.16194e-12 0)
(-0.727495 5.75017e-12 0)
(-0.72434 1.20526e-11 0)
(-0.72112 7.34806e-12 0)
(-0.717835 3.33233e-12 0)
(-0.714488 1.04631e-11 0)
(-0.711082 1.01482e-11 0)
(-0.70762 1.81943e-12 0)
(-0.704105 6.47761e-12 0)
(-0.700542 1.14619e-11 0)
(-0.696936 3.14385e-12 0)
(-0.693294 5.85955e-12 0)
(-0.689624 8.53564e-12 0)
(-0.685934 3.04555e-12 0)
(-0.682236 6.91119e-12 0)
(-0.678545 7.43383e-12 0)
(-0.674877 4.45442e-12 0)
(-0.671254 1.3145e-11 0)
(-0.667706 -4.25867e-11 0)
(-0.664269 1.37047e-10 0)
(-0.660998 -2.61201e-10 0)
(-0.657968 4.53351e-10 0)
(-0.655303 -6.73118e-10 0)
(-0.653404 9.42926e-10 0)
(-0.65291 -1.21321e-09 0)
(-0.652876 1.5014e-09 0)
(-0.652866 -1.64157e-09 0)
(-0.652857 1.92266e-09 0)
(-0.65285 -2.191e-09 0)
(-0.652844 2.47883e-09 0)
(-0.652839 -2.76074e-09 0)
(-0.652835 3.06195e-09 0)
(-0.652831 -3.35898e-09 0)
(-0.652828 3.67506e-09 0)
(-0.652825 -3.98867e-09 0)
(-0.652823 4.32105e-09 0)
(-0.652821 -4.65259e-09 0)
(-0.65282 5.00258e-09 0)
(-0.652819 -5.35334e-09 0)
(-0.652818 5.72222e-09 0)
(-0.652817 -6.09337e-09 0)
(-0.652816 6.48231e-09 0)
(-0.652816 -6.87496e-09 0)
(-0.652815 7.28504e-09 0)
(-0.652815 -7.70023e-09 0)
(-0.652815 8.13246e-09 0)
(-0.652814 -8.57112e-09 0)
(-0.652814 9.02645e-09 0)
(-0.652814 -9.48946e-09 0)
(-0.652814 9.96875e-09 0)
(-0.652814 -1.04569e-08 0)
(-0.652814 1.0961e-08 0)
(-0.652814 -1.14751e-08 0)
(-0.652814 1.20048e-08 0)
(-0.652814 -1.25456e-08 0)
(-0.652814 1.31017e-08 0)
(-0.652814 -1.36698e-08 0)
(-0.652814 1.4253e-08 0)
(-0.652814 -1.48491e-08 0)
(-0.652814 1.54603e-08 0)
(-0.652814 -1.6085e-08 0)
(-0.652814 1.67247e-08 0)
(-0.652814 -1.73787e-08 0)
(-0.652814 1.80478e-08 0)
(-0.652814 -1.87317e-08 0)
(-0.652814 1.94308e-08 0)
(-0.652814 -2.01453e-08 0)
(-0.652814 2.08751e-08 0)
(-0.652814 -2.1621e-08 0)
(-0.652814 2.23821e-08 0)
(-0.652814 -2.31599e-08 0)
(-0.652814 2.39531e-08 0)
(-0.652814 -2.47633e-08 0)
(-0.652814 2.55893e-08 0)
(-0.652814 -2.64326e-08 0)
(-0.652814 2.72919e-08 0)
(-0.652814 -2.81689e-08 0)
(-0.652814 2.90622e-08 0)
(-0.652814 -2.99734e-08 0)
(-0.652814 3.09013e-08 0)
(-0.652814 -3.18474e-08 0)
(-0.652814 3.28105e-08 0)
(-0.652814 -3.37919e-08 0)
(-0.652814 3.47907e-08 0)
(-0.652814 -3.58079e-08 0)
(-0.652814 3.6843e-08 0)
(-0.652814 -3.78966e-08 0)
(-0.652814 3.89684e-08 0)
(-0.652814 -4.00588e-08 0)
(-0.652814 4.11677e-08 0)
(-0.652814 -4.22952e-08 0)
(-0.652814 4.34414e-08 0)
(-0.652814 -4.46064e-08 0)
(-0.652814 4.57902e-08 0)
(-0.652814 -4.69927e-08 0)
(-0.652814 4.8214e-08 0)
(-0.652814 -4.9454e-08 0)
(-0.652814 5.07126e-08 0)
(-0.652814 -5.19898e-08 0)
(-0.652814 4.67619e-08 0)
(-0.652814 -4.69943e-08 0)
(-0.652814 4.72211e-08 0)
(-0.652814 -4.74422e-08 0)
(-0.652814 4.76577e-08 0)
(-0.652814 -4.78672e-08 0)
(-0.652814 4.8071e-08 0)
(-0.652814 -4.82687e-08 0)
(-0.652814 4.84604e-08 0)
(-0.652814 -4.86459e-08 0)
(-0.652814 4.88253e-08 0)
(-0.652814 -4.89982e-08 0)
(-0.652814 4.91648e-08 0)
(-0.652814 -4.93247e-08 0)
(-0.652814 4.94781e-08 0)
(-0.652814 -4.96245e-08 0)
(-0.652814 4.97642e-08 0)
(-0.652814 -4.98965e-08 0)
(-0.652814 5.00219e-08 0)
(-0.652814 -5.01394e-08 0)
(-0.652814 5.02498e-08 0)
(-0.652814 -5.03516e-08 0)
(-0.652814 5.04461e-08 0)
(-0.652814 -5.05312e-08 0)
(-0.652814 5.06084e-08 0)
(-0.652814 -5.0675e-08 0)
(-0.652814 5.07326e-08 0)
(-0.652814 -5.07777e-08 0)
(-0.652814 5.08106e-08 0)
(-0.652814 -5.08212e-08 0)
(-0.652814 5.08042e-08 0)
(-0.652814 -5.07784e-08 0)
(-0.652814 5.07495e-08 0)
(-0.652814 -5.07161e-08 0)
(-0.652814 5.06817e-08 0)
(-0.652814 -5.06444e-08 0)
(-0.652814 5.06073e-08 0)
(-0.652814 -5.05682e-08 0)
(-0.652814 5.05299e-08 0)
(-0.652814 -5.04906e-08 0)
(-0.652814 5.04522e-08 0)
(-0.652814 -5.04138e-08 0)
(-0.652814 5.03764e-08 0)
(-0.652814 -5.034e-08 0)
(-0.652814 5.03042e-08 0)
(-0.652814 -5.02707e-08 0)
(-0.652814 5.02376e-08 0)
(-0.652814 -5.02077e-08 0)
(-0.652814 5.01788e-08 0)
(-0.652814 -5.01553e-08 0)
)
;

boundaryField
{
    inandouthalf11
    {
        type            cyclic;
    }
    inandouthalf12
    {
        type            cyclic;
    }
    inandouthalf21
    {
        type            cyclic;
    }
    inandouthalf22
    {
        type            cyclic;
    }
    inandouthalf31
    {
        type            cyclic;
    }
    inandouthalf32
    {
        type            cyclic;
    }
    inandouthalf41
    {
        type            cyclic;
    }
    inandouthalf42
    {
        type            cyclic;
    }
    top
    {
        type            symmetryPlane;
    }
    walls
    {
        type            calculated;
        value           uniform (0 0 0);
    }
    frontAndBackPlanes
    {
        type            empty;
    }
}


// ************************************************************************* //
