/*--------------------------------*- C++ -*----------------------------------*\
| =========                 |                                                 |
| \\      /  F ield         | OpenFOAM: The Open Source CFD Toolbox           |
|  \\    /   O peration     | Version:  2.4.x                                 |
|   \\  /    A nd           | Web:      www.OpenFOAM.org                      |
|    \\/     M anipulation  |                                                 |
\*---------------------------------------------------------------------------*/
FoamFile
{
    version     2.0;
    format      ascii;
    class       volVectorField;
    location    "3.9";
    object      Ub;
}
// * * * * * * * * * * * * * * * * * * * * * * * * * * * * * * * * * * * * * //

dimensions      [0 1 -1 0 0 0 0];

internalField   nonuniform List<vector> 
360
(
(-0.00012577 1.31812e-07 0)
(-0.000125535 5.46507e-07 0)
(-0.000125461 1.09567e-06 0)
(-0.000125575 1.60321e-06 0)
(-0.000125703 2.07898e-06 0)
(-0.000125817 2.55212e-06 0)
(-0.00012593 3.03642e-06 0)
(-0.000126043 3.53269e-06 0)
(-0.000126155 4.03647e-06 0)
(-0.000126268 4.54404e-06 0)
(-0.000126383 5.05474e-06 0)
(-0.000126501 5.56956e-06 0)
(-0.00012662 6.08936e-06 0)
(-0.00012674 6.61348e-06 0)
(-0.00012686 7.13962e-06 0)
(-0.00012698 7.66459e-06 0)
(-0.000127099 8.18514e-06 0)
(-0.000127216 8.69873e-06 0)
(-0.000127332 9.2045e-06 0)
(-0.000127447 9.70447e-06 0)
(-0.000127562 1.02042e-05 0)
(-0.000127679 1.07145e-05 0)
(-0.000127802 1.12517e-05 0)
(-0.000127937 1.18385e-05 0)
(-0.000128088 1.25024e-05 0)
(-0.000128263 1.32685e-05 0)
(-0.000128463 1.41397e-05 0)
(-0.000128678 1.50678e-05 0)
(-0.00012888 1.59397e-05 0)
(-0.000129036 1.66218e-05 0)
(-0.00012913 1.70483e-05 0)
(-0.000129175 1.72582e-05 0)
(-0.000129193 1.73409e-05 0)
(-0.000129203 1.73688e-05 0)
(-0.000129209 1.73778e-05 0)
(-0.000129214 1.7381e-05 0)
(-0.000129219 1.73823e-05 0)
(-0.000129225 1.7383e-05 0)
(-0.000129232 1.73836e-05 0)
(-0.000129237 1.7384e-05 0)
(-0.000129245 1.73847e-05 0)
(-0.000129253 1.73854e-05 0)
(-0.000129261 1.73863e-05 0)
(-0.000129271 1.73873e-05 0)
(-0.000129281 1.73883e-05 0)
(-0.000129292 1.73894e-05 0)
(-0.000129303 1.73905e-05 0)
(-0.000129315 1.73914e-05 0)
(-0.000129328 1.73923e-05 0)
(-0.000129343 1.73932e-05 0)
(-0.000129358 1.73938e-05 0)
(-0.000129374 1.73945e-05 0)
(-0.000129392 1.73951e-05 0)
(-0.00012941 1.73957e-05 0)
(-0.00012943 1.73962e-05 0)
(-0.000129451 1.73968e-05 0)
(-0.000129473 1.73972e-05 0)
(-0.000129497 1.73977e-05 0)
(-0.000129522 1.73982e-05 0)
(-0.000129548 1.73986e-05 0)
(-0.000129576 1.73991e-05 0)
(-0.000129605 1.73995e-05 0)
(-0.000129634 1.73999e-05 0)
(-0.000129665 1.74003e-05 0)
(-0.000129696 1.74007e-05 0)
(-0.000129727 1.74011e-05 0)
(-0.00012976 1.74015e-05 0)
(-0.000129794 1.74018e-05 0)
(-0.00012983 1.7402e-05 0)
(-0.000129866 1.74022e-05 0)
(-0.000129904 1.74025e-05 0)
(-0.000129944 1.74027e-05 0)
(-0.000129984 1.74028e-05 0)
(-0.000130026 1.74031e-05 0)
(-0.000130069 1.74033e-05 0)
(-0.000130114 1.74037e-05 0)
(-0.000130158 1.7404e-05 0)
(-0.000130204 1.74044e-05 0)
(-0.000130252 1.74048e-05 0)
(-0.0001303 1.74052e-05 0)
(-0.000130349 1.74056e-05 0)
(-0.0001304 1.7406e-05 0)
(-0.000130452 1.74064e-05 0)
(-0.000130506 1.74067e-05 0)
(-0.000130561 1.74071e-05 0)
(-0.000130617 1.74075e-05 0)
(-0.000130675 1.74078e-05 0)
(-0.000130734 1.74082e-05 0)
(-0.000130794 1.74086e-05 0)
(-0.000130855 1.7409e-05 0)
(-0.000130918 1.74094e-05 0)
(-0.000130982 1.74097e-05 0)
(-0.000131048 1.741e-05 0)
(-0.000131115 1.74102e-05 0)
(-0.000131184 1.74104e-05 0)
(-0.000131255 1.74106e-05 0)
(-0.000131327 1.74107e-05 0)
(-0.000131401 1.74107e-05 0)
(-0.000131476 1.74106e-05 0)
(-0.000131554 1.74105e-05 0)
(-0.000131633 1.74103e-05 0)
(-0.000131714 1.741e-05 0)
(-0.000131797 1.74096e-05 0)
(-0.000131882 1.74091e-05 0)
(-0.000131969 1.74085e-05 0)
(-0.000132059 1.74077e-05 0)
(-0.000132151 1.74068e-05 0)
(-0.000132245 1.74058e-05 0)
(-0.000132341 1.74046e-05 0)
(-0.00013244 1.74032e-05 0)
(-0.000132542 1.74016e-05 0)
(-0.000132647 1.73998e-05 0)
(-0.000132754 1.73978e-05 0)
(-0.000132865 1.73956e-05 0)
(-0.000132979 1.73932e-05 0)
(-0.000133096 1.73905e-05 0)
(-0.000133217 1.73876e-05 0)
(-0.000133341 1.73845e-05 0)
(-0.000133469 1.73811e-05 0)
(-0.000133602 1.73774e-05 0)
(-0.000133738 1.73735e-05 0)
(-0.000133879 1.73693e-05 0)
(-0.000134025 1.73649e-05 0)
(-0.000134175 1.73601e-05 0)
(-0.000134331 1.73551e-05 0)
(-0.000134492 1.73496e-05 0)
(-0.000134659 1.73438e-05 0)
(-0.000134832 1.73375e-05 0)
(-0.000135013 1.73307e-05 0)
(-0.0001352 1.73233e-05 0)
(-0.000135395 1.73152e-05 0)
(-0.000135598 1.73063e-05 0)
(-0.00013581 1.72965e-05 0)
(-0.000136033 1.72857e-05 0)
(-0.00013627 1.72738e-05 0)
(-0.000136521 1.72608e-05 0)
(-0.000136784 1.72465e-05 0)
(-0.000137064 1.72305e-05 0)
(-0.000137373 1.72121e-05 0)
(-0.000137728 1.71921e-05 0)
(-0.000138115 1.71714e-05 0)
(-0.000138482 1.71451e-05 0)
(-0.000138918 1.71153e-05 0)
(-0.000139484 1.70802e-05 0)
(-0.000140181 1.70214e-05 0)
(-0.000141353 1.69451e-05 0)
(-0.000144431 1.48065e-05 0)
(-0.000251999 3.11217e-05 0)
(-0.0408878 -7.28829e-05 0)
(-0.162636 -0.000613868 0)
(-0.264372 -0.000430863 0)
(-0.344873 -0.000418196 0)
(-0.411321 -0.000369652 0)
(-0.467402 -0.000316997 0)
(-0.515469 -0.000266251 0)
(-0.557157 -0.000219211 0)
(-0.593641 -0.000176872 0)
(-0.625784 -0.000139853 0)
(-0.654216 -0.000108319 0)
(-0.67939 -8.20905e-05 0)
(-0.701618 -6.07444e-05 0)
(-0.721106 -4.36891e-05 0)
(-0.737984 -3.02797e-05 0)
(-0.75234 -2.00073e-05 0)
(-0.76427 -1.25695e-05 0)
(-0.773918 -7.6412e-06 0)
(-0.781501 -4.64539e-06 0)
(-0.787302 -2.89179e-06 0)
(-0.79163 -1.84509e-06 0)
(-0.794784 -1.19406e-06 0)
(-0.797017 -7.76595e-07 0)
(-0.798537 -5.04386e-07 0)
(-0.799499 -3.25551e-07 0)
(-0.800022 -2.08147e-07 0)
(-0.800194 -1.31922e-07 0)
(-0.800077 -8.36754e-08 0)
(-0.799721 -5.4563e-08 0)
(-0.799161 -3.84923e-08 0)
(-0.798426 -3.11292e-08 0)
(-0.797537 -2.93046e-08 0)
(-0.796511 -3.06786e-08 0)
(-0.795363 -3.34413e-08 0)
(-0.794105 -3.61217e-08 0)
(-0.792746 -3.75954e-08 0)
(-0.791295 -3.71587e-08 0)
(-0.789759 -3.46295e-08 0)
(-0.788146 -3.04241e-08 0)
(-0.78646 -2.54345e-08 0)
(-0.784707 -2.064e-08 0)
(-0.782892 -1.66458e-08 0)
(-0.78102 -1.35078e-08 0)
(-0.779094 -1.09658e-08 0)
(-0.777118 -8.80007e-09 0)
(-0.775096 -6.95997e-09 0)
(-0.773032 -5.4534e-09 0)
(-0.770928 -4.23753e-09 0)
(-0.768787 -3.24171e-09 0)
(-0.766611 -2.42271e-09 0)
(-0.764405 -1.76033e-09 0)
(-0.762169 -1.23138e-09 0)
(-0.759906 -8.08017e-10 0)
(-0.757595 -4.64632e-10 0)
(-0.755214 -1.87648e-10 0)
(-0.752762 2.85753e-11 0)
(-0.750238 1.89688e-10 0)
(-0.747643 3.04255e-10 0)
(-0.744977 3.86328e-10 0)
(-0.742239 4.4767e-10 0)
(-0.73943 4.86998e-10 0)
(-0.736551 5.02649e-10 0)
(-0.733601 5.06613e-10 0)
(-0.730582 5.06451e-10 0)
(-0.727495 4.96618e-10 0)
(-0.72434 4.79129e-10 0)
(-0.721119 4.61312e-10 0)
(-0.717835 4.38682e-10 0)
(-0.714488 4.09773e-10 0)
(-0.711082 3.85154e-10 0)
(-0.707619 3.63863e-10 0)
(-0.704105 3.35665e-10 0)
(-0.700542 3.06062e-10 0)
(-0.696936 2.8255e-10 0)
(-0.693294 2.59604e-10 0)
(-0.689624 2.36128e-10 0)
(-0.685934 2.14267e-10 0)
(-0.682236 1.92132e-10 0)
(-0.678545 1.73031e-10 0)
(-0.674877 1.5843e-10 0)
(-0.671254 1.42678e-10 0)
(-0.667706 7.0019e-11 0)
(-0.664269 2.38443e-10 0)
(-0.660998 -1.74755e-10 0)
(-0.657968 5.37665e-10 0)
(-0.655303 -5.88819e-10 0)
(-0.653404 1.02263e-09 0)
(-0.65291 -1.14992e-09 0)
(-0.652876 1.53362e-09 0)
(-0.652866 -1.61898e-09 0)
(-0.652857 1.92267e-09 0)
(-0.65285 -2.191e-09 0)
(-0.652844 2.47883e-09 0)
(-0.652839 -2.76074e-09 0)
(-0.652835 3.06195e-09 0)
(-0.652831 -3.35898e-09 0)
(-0.652828 3.67506e-09 0)
(-0.652825 -3.98867e-09 0)
(-0.652823 4.32105e-09 0)
(-0.652821 -4.65259e-09 0)
(-0.65282 5.00258e-09 0)
(-0.652819 -5.35334e-09 0)
(-0.652818 5.72222e-09 0)
(-0.652817 -6.09337e-09 0)
(-0.652816 6.48231e-09 0)
(-0.652816 -6.87496e-09 0)
(-0.652815 7.28504e-09 0)
(-0.652815 -7.70023e-09 0)
(-0.652815 8.13246e-09 0)
(-0.652814 -8.57112e-09 0)
(-0.652814 9.02645e-09 0)
(-0.652814 -9.48946e-09 0)
(-0.652814 9.96875e-09 0)
(-0.652814 -1.04569e-08 0)
(-0.652814 1.0961e-08 0)
(-0.652814 -1.14751e-08 0)
(-0.652814 1.20048e-08 0)
(-0.652814 -1.25456e-08 0)
(-0.652814 1.31017e-08 0)
(-0.652814 -1.36698e-08 0)
(-0.652814 1.4253e-08 0)
(-0.652814 -1.48491e-08 0)
(-0.652814 1.54603e-08 0)
(-0.652814 -1.6085e-08 0)
(-0.652814 1.67247e-08 0)
(-0.652814 -1.73787e-08 0)
(-0.652814 1.80478e-08 0)
(-0.652814 -1.87317e-08 0)
(-0.652814 1.94308e-08 0)
(-0.652814 -2.01453e-08 0)
(-0.652814 2.08751e-08 0)
(-0.652814 -2.1621e-08 0)
(-0.652814 2.23821e-08 0)
(-0.652814 -2.31599e-08 0)
(-0.652814 2.39531e-08 0)
(-0.652814 -2.47633e-08 0)
(-0.652814 2.55893e-08 0)
(-0.652814 -2.64326e-08 0)
(-0.652814 2.72919e-08 0)
(-0.652814 -2.81689e-08 0)
(-0.652814 2.90622e-08 0)
(-0.652814 -2.99734e-08 0)
(-0.652814 3.09013e-08 0)
(-0.652814 -3.18474e-08 0)
(-0.652814 3.28105e-08 0)
(-0.652814 -3.37919e-08 0)
(-0.652814 3.47907e-08 0)
(-0.652814 -3.58079e-08 0)
(-0.652814 3.6843e-08 0)
(-0.652814 -3.78966e-08 0)
(-0.652814 3.89684e-08 0)
(-0.652814 -4.00588e-08 0)
(-0.652814 4.11677e-08 0)
(-0.652814 -4.22952e-08 0)
(-0.652814 4.34414e-08 0)
(-0.652814 -4.46064e-08 0)
(-0.652814 4.57902e-08 0)
(-0.652814 -4.69927e-08 0)
(-0.652814 4.8214e-08 0)
(-0.652814 -4.9454e-08 0)
(-0.652814 5.07126e-08 0)
(-0.652814 -5.19898e-08 0)
(-0.652814 4.67619e-08 0)
(-0.652814 -4.69943e-08 0)
(-0.652814 4.72211e-08 0)
(-0.652814 -4.74422e-08 0)
(-0.652814 4.76577e-08 0)
(-0.652814 -4.78672e-08 0)
(-0.652814 4.8071e-08 0)
(-0.652814 -4.82687e-08 0)
(-0.652814 4.84604e-08 0)
(-0.652814 -4.86459e-08 0)
(-0.652814 4.88253e-08 0)
(-0.652814 -4.89982e-08 0)
(-0.652814 4.91648e-08 0)
(-0.652814 -4.93247e-08 0)
(-0.652814 4.94781e-08 0)
(-0.652814 -4.96245e-08 0)
(-0.652814 4.97642e-08 0)
(-0.652814 -4.98965e-08 0)
(-0.652814 5.00219e-08 0)
(-0.652814 -5.01394e-08 0)
(-0.652814 5.02498e-08 0)
(-0.652814 -5.03516e-08 0)
(-0.652814 5.04461e-08 0)
(-0.652814 -5.05312e-08 0)
(-0.652814 5.06084e-08 0)
(-0.652814 -5.0675e-08 0)
(-0.652814 5.07326e-08 0)
(-0.652814 -5.07777e-08 0)
(-0.652814 5.08106e-08 0)
(-0.652814 -5.08212e-08 0)
(-0.652814 5.08042e-08 0)
(-0.652814 -5.07784e-08 0)
(-0.652814 5.07495e-08 0)
(-0.652814 -5.07161e-08 0)
(-0.652814 5.06817e-08 0)
(-0.652814 -5.06444e-08 0)
(-0.652814 5.06073e-08 0)
(-0.652814 -5.05682e-08 0)
(-0.652814 5.05299e-08 0)
(-0.652814 -5.04906e-08 0)
(-0.652814 5.04522e-08 0)
(-0.652814 -5.04138e-08 0)
(-0.652814 5.03764e-08 0)
(-0.652814 -5.034e-08 0)
(-0.652814 5.03042e-08 0)
(-0.652814 -5.02707e-08 0)
(-0.652814 5.02376e-08 0)
(-0.652814 -5.02077e-08 0)
(-0.652814 5.01788e-08 0)
(-0.652814 -5.01553e-08 0)
)
;

boundaryField
{
    inandouthalf11
    {
        type            cyclic;
    }
    inandouthalf12
    {
        type            cyclic;
    }
    inandouthalf21
    {
        type            cyclic;
    }
    inandouthalf22
    {
        type            cyclic;
    }
    inandouthalf31
    {
        type            cyclic;
    }
    inandouthalf32
    {
        type            cyclic;
    }
    inandouthalf41
    {
        type            cyclic;
    }
    inandouthalf42
    {
        type            cyclic;
    }
    top
    {
        type            symmetryPlane;
    }
    walls
    {
        type            fixedValue;
        value           uniform (0 0 0);
    }
    frontAndBackPlanes
    {
        type            empty;
    }
}


// ************************************************************************* //
