/*--------------------------------*- C++ -*----------------------------------*\
| =========                 |                                                 |
| \\      /  F ield         | OpenFOAM: The Open Source CFD Toolbox           |
|  \\    /   O peration     | Version:  2.4.x                                 |
|   \\  /    A nd           | Web:      www.OpenFOAM.org                      |
|    \\/     M anipulation  |                                                 |
\*---------------------------------------------------------------------------*/
FoamFile
{
    version     2.0;
    format      ascii;
    class       volVectorField;
    location    "3.9";
    object      Ub_0;
}
// * * * * * * * * * * * * * * * * * * * * * * * * * * * * * * * * * * * * * //

dimensions      [0 1 -1 0 0 0 0];

internalField   nonuniform List<vector> 
360
(
(-0.00012581 1.31818e-07 0)
(-0.000125575 5.46546e-07 0)
(-0.000125501 1.09576e-06 0)
(-0.000125615 1.60336e-06 0)
(-0.000125743 2.07918e-06 0)
(-0.000125858 2.55236e-06 0)
(-0.00012597 3.03671e-06 0)
(-0.000126083 3.53303e-06 0)
(-0.000126195 4.03686e-06 0)
(-0.000126308 4.54447e-06 0)
(-0.000126424 5.05523e-06 0)
(-0.000126541 5.5701e-06 0)
(-0.00012666 6.08995e-06 0)
(-0.00012678 6.61411e-06 0)
(-0.0001269 7.14029e-06 0)
(-0.00012702 7.66528e-06 0)
(-0.000127139 8.18585e-06 0)
(-0.000127257 8.69946e-06 0)
(-0.000127373 9.20524e-06 0)
(-0.000127488 9.70524e-06 0)
(-0.000127602 1.02051e-05 0)
(-0.000127719 1.07154e-05 0)
(-0.000127843 1.12527e-05 0)
(-0.000127977 1.18398e-05 0)
(-0.000128129 1.2504e-05 0)
(-0.000128304 1.32704e-05 0)
(-0.000128504 1.41419e-05 0)
(-0.000128719 1.50702e-05 0)
(-0.000128921 1.59417e-05 0)
(-0.000129076 1.66232e-05 0)
(-0.00012917 1.70491e-05 0)
(-0.000129215 1.72585e-05 0)
(-0.000129234 1.73409e-05 0)
(-0.000129243 1.73688e-05 0)
(-0.000129249 1.73777e-05 0)
(-0.000129254 1.73809e-05 0)
(-0.000129259 1.73822e-05 0)
(-0.000129265 1.73829e-05 0)
(-0.000129272 1.73835e-05 0)
(-0.000129278 1.73839e-05 0)
(-0.000129286 1.73846e-05 0)
(-0.000129294 1.73853e-05 0)
(-0.000129301 1.73862e-05 0)
(-0.000129311 1.73872e-05 0)
(-0.000129321 1.73883e-05 0)
(-0.000129332 1.73893e-05 0)
(-0.000129344 1.73904e-05 0)
(-0.000129355 1.73914e-05 0)
(-0.000129368 1.73923e-05 0)
(-0.000129383 1.73931e-05 0)
(-0.000129398 1.73938e-05 0)
(-0.000129415 1.73945e-05 0)
(-0.000129432 1.73951e-05 0)
(-0.000129451 1.73957e-05 0)
(-0.00012947 1.73961e-05 0)
(-0.000129492 1.73967e-05 0)
(-0.000129514 1.73971e-05 0)
(-0.000129538 1.73976e-05 0)
(-0.000129563 1.73981e-05 0)
(-0.000129589 1.73985e-05 0)
(-0.000129617 1.7399e-05 0)
(-0.000129645 1.73994e-05 0)
(-0.000129675 1.73999e-05 0)
(-0.000129705 1.74003e-05 0)
(-0.000129736 1.74007e-05 0)
(-0.000129768 1.74011e-05 0)
(-0.000129801 1.74014e-05 0)
(-0.000129835 1.74017e-05 0)
(-0.00012987 1.7402e-05 0)
(-0.000129906 1.74022e-05 0)
(-0.000129944 1.74024e-05 0)
(-0.000129984 1.74026e-05 0)
(-0.000130024 1.74028e-05 0)
(-0.000130067 1.74031e-05 0)
(-0.00013011 1.74033e-05 0)
(-0.000130154 1.74037e-05 0)
(-0.000130199 1.7404e-05 0)
(-0.000130245 1.74044e-05 0)
(-0.000130292 1.74048e-05 0)
(-0.000130341 1.74052e-05 0)
(-0.00013039 1.74056e-05 0)
(-0.000130441 1.7406e-05 0)
(-0.000130493 1.74064e-05 0)
(-0.000130547 1.74067e-05 0)
(-0.000130602 1.74071e-05 0)
(-0.000130658 1.74075e-05 0)
(-0.000130716 1.74078e-05 0)
(-0.000130775 1.74082e-05 0)
(-0.000130835 1.74086e-05 0)
(-0.000130896 1.7409e-05 0)
(-0.000130959 1.74094e-05 0)
(-0.000131023 1.74097e-05 0)
(-0.000131089 1.741e-05 0)
(-0.000131156 1.74103e-05 0)
(-0.000131225 1.74105e-05 0)
(-0.000131296 1.74106e-05 0)
(-0.000131368 1.74107e-05 0)
(-0.000131442 1.74107e-05 0)
(-0.000131517 1.74107e-05 0)
(-0.000131595 1.74106e-05 0)
(-0.000131674 1.74104e-05 0)
(-0.000131755 1.74101e-05 0)
(-0.000131838 1.74097e-05 0)
(-0.000131923 1.74092e-05 0)
(-0.000132011 1.74085e-05 0)
(-0.0001321 1.74078e-05 0)
(-0.000132192 1.74069e-05 0)
(-0.000132286 1.74058e-05 0)
(-0.000132383 1.74046e-05 0)
(-0.000132482 1.74032e-05 0)
(-0.000132584 1.74017e-05 0)
(-0.000132688 1.73999e-05 0)
(-0.000132796 1.73979e-05 0)
(-0.000132907 1.73957e-05 0)
(-0.00013302 1.73933e-05 0)
(-0.000133138 1.73906e-05 0)
(-0.000133258 1.73877e-05 0)
(-0.000133383 1.73846e-05 0)
(-0.000133511 1.73812e-05 0)
(-0.000133643 1.73775e-05 0)
(-0.00013378 1.73736e-05 0)
(-0.000133921 1.73695e-05 0)
(-0.000134067 1.7365e-05 0)
(-0.000134217 1.73603e-05 0)
(-0.000134373 1.73552e-05 0)
(-0.000134534 1.73498e-05 0)
(-0.000134701 1.7344e-05 0)
(-0.000134875 1.73377e-05 0)
(-0.000135055 1.73309e-05 0)
(-0.000135242 1.73235e-05 0)
(-0.000135437 1.73154e-05 0)
(-0.00013564 1.73065e-05 0)
(-0.000135852 1.72967e-05 0)
(-0.000136076 1.72859e-05 0)
(-0.000136313 1.7274e-05 0)
(-0.000136564 1.7261e-05 0)
(-0.000136827 1.72467e-05 0)
(-0.000137107 1.72306e-05 0)
(-0.000137416 1.72123e-05 0)
(-0.000137772 1.71923e-05 0)
(-0.000138158 1.71716e-05 0)
(-0.000138525 1.71453e-05 0)
(-0.000138961 1.71155e-05 0)
(-0.000139528 1.70804e-05 0)
(-0.000140225 1.70215e-05 0)
(-0.000141397 1.69455e-05 0)
(-0.000144476 1.4802e-05 0)
(-0.000251845 3.11418e-05 0)
(-0.0408447 -7.29042e-05 0)
(-0.162585 -0.00061441 0)
(-0.264337 -0.000431154 0)
(-0.344846 -0.000418459 0)
(-0.411299 -0.00036985 0)
(-0.467383 -0.000317139 0)
(-0.515452 -0.000266345 0)
(-0.55714 -0.000219267 0)
(-0.593624 -0.000176899 0)
(-0.625766 -0.000139857 0)
(-0.654197 -0.000108309 0)
(-0.679368 -8.20709e-05 0)
(-0.701593 -6.07198e-05 0)
(-0.721077 -4.36626e-05 0)
(-0.737949 -3.02536e-05 0)
(-0.752299 -1.99839e-05 0)
(-0.764222 -1.25511e-05 0)
(-0.773862 -7.62842e-06 0)
(-0.781437 -4.63722e-06 0)
(-0.787232 -2.88654e-06 0)
(-0.791555 -1.84151e-06 0)
(-0.794703 -1.19146e-06 0)
(-0.796933 -7.74619e-07 0)
(-0.798449 -5.02826e-07 0)
(-0.799409 -3.24284e-07 0)
(-0.79993 -2.07093e-07 0)
(-0.8001 -1.3103e-07 0)
(-0.799981 -8.29101e-08 0)
(-0.799624 -5.39003e-08 0)
(-0.799063 -3.79145e-08 0)
(-0.798326 -3.06233e-08 0)
(-0.797436 -2.8861e-08 0)
(-0.79641 -3.02901e-08 0)
(-0.795261 -3.31018e-08 0)
(-0.794002 -3.5826e-08 0)
(-0.792642 -3.73399e-08 0)
(-0.79119 -3.69403e-08 0)
(-0.789654 -3.44455e-08 0)
(-0.788039 -3.02711e-08 0)
(-0.786353 -2.53085e-08 0)
(-0.784599 -2.05357e-08 0)
(-0.782784 -1.6558e-08 0)
(-0.780911 -1.34324e-08 0)
(-0.778984 -1.09006e-08 0)
(-0.777008 -8.74362e-09 0)
(-0.774986 -6.91121e-09 0)
(-0.77292 -5.41107e-09 0)
(-0.770816 -4.20056e-09 0)
(-0.768674 -3.20939e-09 0)
(-0.766498 -2.39444e-09 0)
(-0.764291 -1.73551e-09 0)
(-0.762055 -1.20949e-09 0)
(-0.759791 -7.88721e-10 0)
(-0.75748 -4.47711e-10 0)
(-0.755098 -1.72847e-10 0)
(-0.752645 4.15841e-11 0)
(-0.750121 2.01133e-10 0)
(-0.747525 3.14217e-10 0)
(-0.744858 3.94934e-10 0)
(-0.74212 4.55181e-10 0)
(-0.739311 4.93601e-10 0)
(-0.736431 5.08379e-10 0)
(-0.733481 5.11546e-10 0)
(-0.730462 5.1074e-10 0)
(-0.727374 5.00344e-10 0)
(-0.724218 4.82337e-10 0)
(-0.720997 4.64087e-10 0)
(-0.717712 4.41078e-10 0)
(-0.714364 4.1181e-10 0)
(-0.710958 3.86895e-10 0)
(-0.707495 3.65371e-10 0)
(-0.70398 3.36949e-10 0)
(-0.700416 3.07136e-10 0)
(-0.69681 2.8346e-10 0)
(-0.693168 2.60376e-10 0)
(-0.689497 2.36776e-10 0)
(-0.685807 2.1481e-10 0)
(-0.682109 1.92582e-10 0)
(-0.678417 1.73404e-10 0)
(-0.674749 1.58749e-10 0)
(-0.671126 1.4298e-10 0)
(-0.667578 7.00736e-11 0)
(-0.664141 2.38902e-10 0)
(-0.66087 -1.75068e-10 0)
(-0.657841 5.38393e-10 0)
(-0.655178 -5.89461e-10 0)
(-0.653282 1.0236e-09 0)
(-0.652792 -1.15076e-09 0)
(-0.652758 1.53467e-09 0)
(-0.652748 -1.61987e-09 0)
(-0.65274 1.92383e-09 0)
(-0.652733 -2.19216e-09 0)
(-0.652727 2.48005e-09 0)
(-0.652722 -2.76196e-09 0)
(-0.652717 3.06322e-09 0)
(-0.652713 -3.36025e-09 0)
(-0.65271 3.67638e-09 0)
(-0.652707 -3.98998e-09 0)
(-0.652705 4.3224e-09 0)
(-0.652703 -4.65393e-09 0)
(-0.652702 5.00397e-09 0)
(-0.652701 -5.35471e-09 0)
(-0.6527 5.72364e-09 0)
(-0.652699 -6.09478e-09 0)
(-0.652698 6.48376e-09 0)
(-0.652698 -6.87641e-09 0)
(-0.652697 7.28654e-09 0)
(-0.652697 -7.70173e-09 0)
(-0.652697 8.13401e-09 0)
(-0.652697 -8.57267e-09 0)
(-0.652696 9.02804e-09 0)
(-0.652696 -9.49107e-09 0)
(-0.652696 9.97041e-09 0)
(-0.652696 -1.04586e-08 0)
(-0.652696 1.09628e-08 0)
(-0.652696 -1.14769e-08 0)
(-0.652696 1.20067e-08 0)
(-0.652696 -1.25474e-08 0)
(-0.652696 1.31036e-08 0)
(-0.652696 -1.36717e-08 0)
(-0.652696 1.4255e-08 0)
(-0.652696 -1.48511e-08 0)
(-0.652696 1.54623e-08 0)
(-0.652696 -1.60871e-08 0)
(-0.652696 1.67269e-08 0)
(-0.652696 -1.7381e-08 0)
(-0.652696 1.805e-08 0)
(-0.652696 -1.87341e-08 0)
(-0.652696 1.94332e-08 0)
(-0.652696 -2.01478e-08 0)
(-0.652696 2.08776e-08 0)
(-0.652696 -2.16235e-08 0)
(-0.652696 2.23848e-08 0)
(-0.652696 -2.31625e-08 0)
(-0.652696 2.39558e-08 0)
(-0.652696 -2.47661e-08 0)
(-0.652696 2.55921e-08 0)
(-0.652696 -2.64355e-08 0)
(-0.652696 2.72949e-08 0)
(-0.652696 -2.81719e-08 0)
(-0.652696 2.90653e-08 0)
(-0.652696 -2.99766e-08 0)
(-0.652696 3.09046e-08 0)
(-0.652696 -3.18507e-08 0)
(-0.652696 3.28139e-08 0)
(-0.652696 -3.37953e-08 0)
(-0.652696 3.47943e-08 0)
(-0.652696 -3.58116e-08 0)
(-0.652696 3.68467e-08 0)
(-0.652696 -3.79004e-08 0)
(-0.652696 3.89723e-08 0)
(-0.652696 -4.00628e-08 0)
(-0.652696 4.11717e-08 0)
(-0.652696 -4.22994e-08 0)
(-0.652696 4.34456e-08 0)
(-0.652696 -4.46107e-08 0)
(-0.652696 4.57945e-08 0)
(-0.652696 -4.69972e-08 0)
(-0.652696 4.82185e-08 0)
(-0.652696 -4.94587e-08 0)
(-0.652696 5.07173e-08 0)
(-0.652696 -5.19946e-08 0)
(-0.652696 4.67662e-08 0)
(-0.652696 -4.69986e-08 0)
(-0.652696 4.72253e-08 0)
(-0.652696 -4.74465e-08 0)
(-0.652696 4.76618e-08 0)
(-0.652696 -4.78715e-08 0)
(-0.652696 4.80751e-08 0)
(-0.652696 -4.82729e-08 0)
(-0.652696 4.84645e-08 0)
(-0.652696 -4.86501e-08 0)
(-0.652696 4.88293e-08 0)
(-0.652696 -4.90023e-08 0)
(-0.652696 4.91688e-08 0)
(-0.652696 -4.93288e-08 0)
(-0.652696 4.9482e-08 0)
(-0.652696 -4.96285e-08 0)
(-0.652696 4.9768e-08 0)
(-0.652696 -4.99005e-08 0)
(-0.652696 5.00255e-08 0)
(-0.652696 -5.01434e-08 0)
(-0.652696 5.02532e-08 0)
(-0.652696 -5.03557e-08 0)
(-0.652696 5.04493e-08 0)
(-0.652696 -5.05353e-08 0)
(-0.652696 5.06113e-08 0)
(-0.652696 -5.0679e-08 0)
(-0.652696 5.07354e-08 0)
(-0.652696 -5.07817e-08 0)
(-0.652696 5.08131e-08 0)
(-0.652696 -5.08248e-08 0)
(-0.652696 5.08063e-08 0)
(-0.652696 -5.07818e-08 0)
(-0.652696 5.07515e-08 0)
(-0.652696 -5.07193e-08 0)
(-0.652696 5.06837e-08 0)
(-0.652696 -5.06476e-08 0)
(-0.652696 5.06093e-08 0)
(-0.652696 -5.05712e-08 0)
(-0.652696 5.05321e-08 0)
(-0.652696 -5.04934e-08 0)
(-0.652696 5.04546e-08 0)
(-0.652696 -5.04164e-08 0)
(-0.652696 5.0379e-08 0)
(-0.652696 -5.03421e-08 0)
(-0.652696 5.03072e-08 0)
(-0.652696 -5.02725e-08 0)
(-0.652696 5.02408e-08 0)
(-0.652696 -5.02092e-08 0)
(-0.652696 5.01811e-08 0)
(-0.652696 -5.01581e-08 0)
)
;

boundaryField
{
    inandouthalf11
    {
        type            cyclic;
    }
    inandouthalf12
    {
        type            cyclic;
    }
    inandouthalf21
    {
        type            cyclic;
    }
    inandouthalf22
    {
        type            cyclic;
    }
    inandouthalf31
    {
        type            cyclic;
    }
    inandouthalf32
    {
        type            cyclic;
    }
    inandouthalf41
    {
        type            cyclic;
    }
    inandouthalf42
    {
        type            cyclic;
    }
    top
    {
        type            symmetryPlane;
    }
    walls
    {
        type            fixedValue;
        value           uniform (0 0 0);
    }
    frontAndBackPlanes
    {
        type            empty;
    }
}


// ************************************************************************* //
