/*--------------------------------*- C++ -*----------------------------------*\
| =========                 |                                                 |
| \\      /  F ield         | OpenFOAM: The Open Source CFD Toolbox           |
|  \\    /   O peration     | Version:  2.4.x                                 |
|   \\  /    A nd           | Web:      www.OpenFOAM.org                      |
|    \\/     M anipulation  |                                                 |
\*---------------------------------------------------------------------------*/
FoamFile
{
    version     2.0;
    format      ascii;
    class       volVectorField;
    location    "3.9";
    object      Ur;
}
// * * * * * * * * * * * * * * * * * * * * * * * * * * * * * * * * * * * * * //

dimensions      [0 1 -1 0 0 0 0];

internalField   nonuniform List<vector> 
360
(
(-0.00012577 1.31812e-07 0)
(-0.000125466 8.91349e-07 0)
(-0.0001253 1.81178e-06 0)
(-0.000125332 2.63103e-06 0)
(-0.000125382 3.40225e-06 0)
(-0.000125418 4.17548e-06 0)
(-0.00012545 4.96894e-06 0)
(-0.000125481 5.78248e-06 0)
(-0.000125509 6.60822e-06 0)
(-0.000125537 7.43969e-06 0)
(-0.000125568 8.27602e-06 0)
(-0.000125599 9.11924e-06 0)
(-0.000125632 9.97099e-06 0)
(-0.000125664 1.08302e-05 0)
(-0.000125696 1.1693e-05 0)
(-0.000125728 1.25539e-05 0)
(-0.000125761 1.34076e-05 0)
(-0.000125792 1.42497e-05 0)
(-0.000125824 1.50785e-05 0)
(-0.000125855 1.58974e-05 0)
(-0.000125886 1.67153e-05 0)
(-0.000125918 1.75494e-05 0)
(-0.000125952 1.84268e-05 0)
(-0.000125988 1.93848e-05 0)
(-0.000126029 2.04693e-05 0)
(-0.000126076 2.17243e-05 0)
(-0.000126129 2.31605e-05 0)
(-0.000126187 2.47035e-05 0)
(-0.000126242 2.61604e-05 0)
(-0.000126285 2.72924e-05 0)
(-0.000126313 2.79831e-05 0)
(-0.000126329 2.83105e-05 0)
(-0.000126336 2.84348e-05 0)
(-0.000126343 2.84761e-05 0)
(-0.000126347 2.84894e-05 0)
(-0.000126352 2.84944e-05 0)
(-0.000126356 2.84967e-05 0)
(-0.000126362 2.84981e-05 0)
(-0.000126369 2.84992e-05 0)
(-0.000126374 2.85002e-05 0)
(-0.000126382 2.85016e-05 0)
(-0.00012639 2.85032e-05 0)
(-0.000126397 2.85049e-05 0)
(-0.000126407 2.8507e-05 0)
(-0.000126416 2.85092e-05 0)
(-0.000126426 2.85114e-05 0)
(-0.000126437 2.85136e-05 0)
(-0.000126449 2.85157e-05 0)
(-0.000126461 2.85177e-05 0)
(-0.000126476 2.85197e-05 0)
(-0.00012649 2.85215e-05 0)
(-0.000126506 2.85233e-05 0)
(-0.000126523 2.8525e-05 0)
(-0.000126541 2.85268e-05 0)
(-0.00012656 2.85284e-05 0)
(-0.000126581 2.85302e-05 0)
(-0.000126602 2.85319e-05 0)
(-0.000126625 2.85337e-05 0)
(-0.00012665 2.85355e-05 0)
(-0.000126675 2.85373e-05 0)
(-0.000126702 2.85393e-05 0)
(-0.000126729 2.85412e-05 0)
(-0.000126758 2.85432e-05 0)
(-0.000126788 2.85451e-05 0)
(-0.000126818 2.85472e-05 0)
(-0.000126849 2.85491e-05 0)
(-0.000126881 2.85511e-05 0)
(-0.000126914 2.85531e-05 0)
(-0.000126948 2.8555e-05 0)
(-0.000126983 2.85569e-05 0)
(-0.00012702 2.85589e-05 0)
(-0.000127059 2.85609e-05 0)
(-0.000127098 2.85629e-05 0)
(-0.000127139 2.85651e-05 0)
(-0.00012718 2.85674e-05 0)
(-0.000127224 2.85698e-05 0)
(-0.000127267 2.85723e-05 0)
(-0.000127312 2.85749e-05 0)
(-0.000127357 2.85775e-05 0)
(-0.000127404 2.85802e-05 0)
(-0.000127452 2.8583e-05 0)
(-0.000127501 2.85858e-05 0)
(-0.000127551 2.85886e-05 0)
(-0.000127603 2.85915e-05 0)
(-0.000127656 2.85944e-05 0)
(-0.000127711 2.85974e-05 0)
(-0.000127767 2.86004e-05 0)
(-0.000127823 2.86036e-05 0)
(-0.000127882 2.86067e-05 0)
(-0.000127941 2.861e-05 0)
(-0.000128002 2.86132e-05 0)
(-0.000128064 2.86165e-05 0)
(-0.000128127 2.86197e-05 0)
(-0.000128192 2.8623e-05 0)
(-0.000128259 2.86262e-05 0)
(-0.000128327 2.86295e-05 0)
(-0.000128396 2.86327e-05 0)
(-0.000128468 2.86358e-05 0)
(-0.000128541 2.86389e-05 0)
(-0.000128616 2.8642e-05 0)
(-0.000128692 2.8645e-05 0)
(-0.000128771 2.8648e-05 0)
(-0.000128851 2.86508e-05 0)
(-0.000128934 2.86536e-05 0)
(-0.000129018 2.86562e-05 0)
(-0.000129105 2.86588e-05 0)
(-0.000129194 2.86612e-05 0)
(-0.000129286 2.86634e-05 0)
(-0.000129379 2.86655e-05 0)
(-0.000129476 2.86674e-05 0)
(-0.000129575 2.86691e-05 0)
(-0.000129676 2.86706e-05 0)
(-0.000129781 2.86719e-05 0)
(-0.000129889 2.86729e-05 0)
(-0.00013 2.86738e-05 0)
(-0.000130114 2.86743e-05 0)
(-0.000130232 2.86747e-05 0)
(-0.000130353 2.86747e-05 0)
(-0.000130478 2.86745e-05 0)
(-0.000130607 2.86741e-05 0)
(-0.000130741 2.86734e-05 0)
(-0.000130879 2.86725e-05 0)
(-0.000131021 2.86713e-05 0)
(-0.000131168 2.86698e-05 0)
(-0.00013132 2.8668e-05 0)
(-0.000131478 2.86658e-05 0)
(-0.000131642 2.86633e-05 0)
(-0.000131811 2.86602e-05 0)
(-0.000131988 2.86565e-05 0)
(-0.000132171 2.86522e-05 0)
(-0.000132363 2.8647e-05 0)
(-0.000132562 2.86409e-05 0)
(-0.000132771 2.86336e-05 0)
(-0.000132991 2.86252e-05 0)
(-0.000133225 2.86154e-05 0)
(-0.000133472 2.86044e-05 0)
(-0.000133733 2.85919e-05 0)
(-0.000134009 2.85774e-05 0)
(-0.000134316 2.85604e-05 0)
(-0.000134669 2.85416e-05 0)
(-0.000135052 2.85219e-05 0)
(-0.000135418 2.84962e-05 0)
(-0.000135853 2.84667e-05 0)
(-0.000136419 2.84318e-05 0)
(-0.000137115 2.83729e-05 0)
(-0.000138287 2.82967e-05 0)
(-0.000141365 2.6158e-05 0)
(-0.000248929 4.24738e-05 0)
(-0.00411277 -0.000151379 0)
(-0.0137293 -0.00194963 0)
(-0.0125868 -0.0023533 0)
(-0.0107051 -0.0027017 0)
(-0.00953076 -0.00299667 0)
(-0.00892859 -0.00329569 0)
(-0.00881948 -0.00361176 0)
(-0.00919293 -0.00394788 0)
(-0.0100719 -0.00430182 0)
(-0.0114945 -0.00466619 0)
(-0.0134983 -0.00502868 0)
(-0.0160985 -0.00537273 0)
(-0.0192612 -0.00567557 0)
(-0.0228784 -0.00589955 0)
(-0.0267531 -0.00598003 0)
(-0.0306064 -0.00583731 0)
(-0.0341211 -0.00543511 0)
(-0.0370272 -0.00482811 0)
(-0.0391837 -0.00412665 0)
(-0.0405961 -0.00342764 0)
(-0.0413694 -0.00278564 0)
(-0.0416466 -0.00222194 0)
(-0.0415656 -0.00174049 0)
(-0.0412389 -0.0013378 0)
(-0.0407493 -0.00100778 0)
(-0.0401537 -0.000743743 0)
(-0.0394889 -0.000539301 0)
(-0.0387771 -0.000388528 0)
(-0.0380309 -0.000285959 0)
(-0.0372561 -0.00022645 0)
(-0.0364542 -0.000205007 0)
(-0.0356194 -0.00021577 0)
(-0.034752 -0.000253395 0)
(-0.0338519 -0.000312092 0)
(-0.0329125 -0.00038391 0)
(-0.0319292 -0.000460575 0)
(-0.030898 -0.000533071 0)
(-0.0298153 -0.000592486 0)
(-0.0286789 -0.000631605 0)
(-0.0274877 -0.000647036 0)
(-0.0262412 -0.000640762 0)
(-0.024939 -0.000619306 0)
(-0.0235801 -0.000589986 0)
(-0.0221652 -0.000556823 0)
(-0.0206969 -0.000519999 0)
(-0.0191785 -0.000478949 0)
(-0.017612 -0.00043469 0)
(-0.0159986 -0.000388793 0)
(-0.0143407 -0.000341688 0)
(-0.0126413 -0.000293191 0)
(-0.0109019 -0.000243753 0)
(-0.00912354 -0.00019431 0)
(-0.00730732 -0.000145428 0)
(-0.00543739 -9.63554e-05 0)
(-0.00349735 -4.62082e-05 0)
(-0.00148609 3.92647e-06 0)
(0.000598983 5.20477e-05 0)
(0.00275521 9.83863e-05 0)
(0.00497603 0.000145394 0)
(0.00726191 0.000193071 0)
(0.0096187 0.000238819 0)
(0.0120417 0.000283921 0)
(0.0145217 0.000331795 0)
(0.0170624 0.000380721 0)
(0.0196658 0.000429106 0)
(0.0223219 0.000480222 0)
(0.0250301 0.000533944 0)
(0.0277941 0.000587708 0)
(0.0306005 0.000645465 0)
(0.033441 0.000709797 0)
(0.0363275 0.000775053 0)
(0.0392516 0.000842298 0)
(0.0421876 0.000919856 0)
(0.0451407 0.00100429 0)
(0.0481105 0.00109284 0)
(0.0510733 0.00119225 0)
(0.0540275 0.00130004 0)
(0.0569556 0.00141811 0)
(0.0598305 0.00155301 0)
(0.0626586 0.0016966 0)
(0.0654016 0.00185442 0)
(0.0680054 0.00203803 0)
(0.0704613 0.00223808 0)
(0.0727207 0.00245557 0)
(0.0747547 0.00267961 0)
(0.0765371 0.00288077 0)
(0.07771 0.00305037 0)
(0.0776414 0.00318094 0)
(0.076983 0.00337856 0)
(-0.00227141 0.039522 0)
(-0.00240966 0.0395329 0)
(-0.00240895 0.0395328 0)
(-0.00240876 0.0395328 0)
(-0.00240858 0.0395328 0)
(-0.00240841 0.0395328 0)
(-0.00240824 0.0395328 0)
(-0.0024081 0.0395328 0)
(-0.00240799 0.0395328 0)
(-0.0024079 0.0395328 0)
(-0.00240783 0.0395328 0)
(-0.00240777 0.0395328 0)
(-0.00240772 0.0395328 0)
(-0.00240768 0.0395328 0)
(-0.00240765 0.0395328 0)
(-0.00240762 0.0395328 0)
(-0.0024076 0.0395328 0)
(-0.00240758 0.0395328 0)
(-0.00240757 0.0395328 0)
(-0.00240756 0.0395328 0)
(-0.00240755 0.0395328 0)
(-0.00240754 0.0395328 0)
(-0.00240754 0.0395328 0)
(-0.00240753 0.0395328 0)
(-0.00240753 0.0395328 0)
(-0.00240753 0.0395328 0)
(-0.00240753 0.0395328 0)
(-0.00240753 0.0395328 0)
(-0.00240752 0.0395328 0)
(-0.00240752 0.0395328 0)
(-0.00240752 0.0395328 0)
(-0.00240752 0.0395328 0)
(-0.00240752 0.0395328 0)
(-0.00240752 0.0395328 0)
(-0.00240752 0.0395328 0)
(-0.00240752 0.0395329 0)
(-0.00240752 0.0395328 0)
(-0.00240752 0.0395329 0)
(-0.00240752 0.0395328 0)
(-0.00240752 0.0395329 0)
(-0.00240752 0.0395328 0)
(-0.00240752 0.0395329 0)
(-0.00240752 0.0395328 0)
(-0.00240752 0.0395329 0)
(-0.00240752 0.0395328 0)
(-0.00240752 0.0395329 0)
(-0.00240752 0.0395328 0)
(-0.00240752 0.0395329 0)
(-0.00240752 0.0395328 0)
(-0.00240752 0.0395329 0)
(-0.00240752 0.0395328 0)
(-0.00240752 0.0395329 0)
(-0.00240752 0.0395328 0)
(-0.00240752 0.0395329 0)
(-0.00240752 0.0395328 0)
(-0.00240752 0.0395329 0)
(-0.00240752 0.0395328 0)
(-0.00240752 0.0395329 0)
(-0.00240752 0.0395328 0)
(-0.00240752 0.0395329 0)
(-0.00240752 0.0395328 0)
(-0.00240752 0.0395329 0)
(-0.00240752 0.0395328 0)
(-0.00240752 0.0395329 0)
(-0.00240752 0.0395328 0)
(-0.00240752 0.0395329 0)
(-0.00240752 0.0395328 0)
(-0.00240752 0.0395329 0)
(-0.00240752 0.0395328 0)
(-0.00240752 0.0395329 0)
(-0.00240752 0.0395328 0)
(-0.00240752 0.0395329 0)
(-0.00240752 0.0395328 0)
(-0.00240752 0.0395329 0)
(-0.00240752 0.0395328 0)
(-0.00240752 0.0395329 0)
(-0.00240752 0.0395328 0)
(-0.00240752 0.0395329 0)
(-0.00240752 0.0395328 0)
(-0.00240752 0.0395329 0)
(-0.00240752 0.0395328 0)
(-0.00240752 0.0395329 0)
(-0.00240752 0.0395328 0)
(-0.00240752 0.0395329 0)
(-0.00240752 0.0395328 0)
(-0.00240752 0.0395329 0)
(-0.00240752 0.0395328 0)
(-0.00240752 0.0395329 0)
(-0.00240752 0.0395328 0)
(-0.00240752 0.0395329 0)
(-0.00240752 0.0395328 0)
(-0.00240752 0.0395329 0)
(-0.00240752 0.0395328 0)
(-0.00240752 0.0395329 0)
(-0.00240752 0.0395328 0)
(-0.00240752 0.0395329 0)
(-0.00240752 0.0395328 0)
(-0.00240752 0.0395329 0)
(-0.00240752 0.0395328 0)
(-0.00240752 0.0395329 0)
(-0.00240752 0.0395328 0)
(-0.00240752 0.0395329 0)
(-0.00240752 0.0395328 0)
(-0.00240752 0.0395329 0)
(-0.00240752 0.0395328 0)
(-0.00240752 0.0395329 0)
(-0.00240752 0.0395328 0)
(-0.00240752 0.0395329 0)
(-0.00240752 0.0395328 0)
(-0.00240752 0.0395329 0)
(-0.00240752 0.0395328 0)
(-0.00240752 0.0395329 0)
(-0.00240752 0.0395328 0)
(-0.00240752 0.0395329 0)
(-0.00240752 0.0395328 0)
(-0.00240752 0.0395329 0)
(-0.00240752 0.0395328 0)
(-0.00240752 0.0395329 0)
(-0.00240752 0.0395328 0)
(-0.00240755 0.0395327 0)
(-0.00240825 0.0395241 0)
(-0.00242524 0.0391792 0)
(-0.00281678 0.0224657 0)
)
;

boundaryField
{
    inandouthalf11
    {
        type            cyclic;
    }
    inandouthalf12
    {
        type            cyclic;
    }
    inandouthalf21
    {
        type            cyclic;
    }
    inandouthalf22
    {
        type            cyclic;
    }
    inandouthalf31
    {
        type            cyclic;
    }
    inandouthalf32
    {
        type            cyclic;
    }
    inandouthalf41
    {
        type            cyclic;
    }
    inandouthalf42
    {
        type            cyclic;
    }
    top
    {
        type            symmetryPlane;
    }
    walls
    {
        type            calculated;
        value           uniform (0 0 0);
    }
    frontAndBackPlanes
    {
        type            empty;
    }
}


// ************************************************************************* //
