/*--------------------------------*- C++ -*----------------------------------*\
| =========                 |                                                 |
| \\      /  F ield         | OpenFOAM: The Open Source CFD Toolbox           |
|  \\    /   O peration     | Version:  2.4.x                                 |
|   \\  /    A nd           | Web:      www.OpenFOAM.org                      |
|    \\/     M anipulation  |                                                 |
\*---------------------------------------------------------------------------*/
FoamFile
{
    version     2.0;
    format      ascii;
    class       volScalarField;
    location    "9.85";
    object      ddt0(((1.5*(alpha+1e-08))*rho),Theta);
}
// * * * * * * * * * * * * * * * * * * * * * * * * * * * * * * * * * * * * * //

dimensions      [1 -1 -3 0 0 0 0];

internalField   nonuniform List<scalar> 
360
(
-9.90111e-23
-3.29789e-22
-2.24632e-22
-2.07945e-22
-2.33941e-22
-2.54034e-22
-2.65715e-22
-2.77733e-22
-2.9273e-22
-3.10345e-22
-3.29911e-22
-3.50805e-22
-3.72688e-22
-3.95443e-22
-4.19065e-22
-4.43546e-22
-4.68747e-22
-4.94473e-22
-5.20648e-22
-5.47172e-22
-5.73905e-22
-6.00868e-22
-6.28023e-22
-6.55245e-22
-6.82462e-22
-7.09551e-22
-7.36502e-22
-7.63355e-22
-7.89922e-22
-8.16036e-22
-8.41778e-22
-8.67004e-22
-8.91624e-22
-9.1573e-22
-9.39037e-22
-9.61356e-22
-9.82797e-22
-1.00349e-21
-1.02305e-21
-1.04126e-21
-1.0585e-21
-1.07431e-21
-1.08852e-21
-1.10159e-21
-1.11322e-21
-1.12324e-21
-1.13133e-21
-1.1373e-21
-1.14203e-21
-1.14532e-21
-1.14632e-21
-1.14536e-21
-1.14272e-21
-1.13808e-21
-1.13154e-21
-1.12321e-21
-1.11287e-21
-1.10061e-21
-1.08618e-21
-1.06988e-21
-1.05232e-21
-1.03329e-21
-1.01278e-21
-9.90775e-22
-9.67155e-22
-9.42195e-22
-9.1617e-22
-8.89003e-22
-8.60488e-22
-8.31167e-22
-8.01755e-22
-7.71885e-22
-7.41337e-22
-7.10745e-22
-6.8032e-22
-6.49822e-22
-6.19103e-22
-5.8841e-22
-5.58075e-22
-5.28139e-22
-4.98693e-22
-4.69983e-22
-4.42141e-22
-4.15175e-22
-3.89099e-22
-3.63917e-22
-3.39609e-22
-3.16153e-22
-2.93577e-22
-2.71942e-22
-2.51288e-22
-2.31651e-22
-2.13063e-22
-1.95518e-22
-1.78987e-22
-1.63434e-22
-1.48816e-22
-1.35095e-22
-1.22235e-22
-1.10207e-22
-9.89792e-23
-8.85216e-23
-7.8799e-23
-6.97717e-23
-6.13958e-23
-5.36243e-23
-4.64081e-23
-3.9697e-23
-3.34404e-23
-2.75902e-23
-2.21023e-23
-1.69398e-23
-1.20754e-23
-7.49406e-24
-3.19303e-24
8.20154e-25
4.53242e-24
7.93436e-24
1.10301e-23
1.38476e-23
1.64402e-23
1.88785e-23
2.12132e-23
2.34224e-23
2.53378e-23
4.37515e-23
4.34289e-17
2.84578e-17
-7.24797e-16
-6.65304e-15
-4.13891e-14
-2.17356e-13
-1.03868e-12
-4.76057e-12
-2.19779e-11
-1.05935e-10
-5.41209e-10
-2.98057e-09
-1.85912e-08
-1.39676e-07
-1.29206e-06
-1.49064e-05
-0.000251811
-0.0110343
-0.412428
-5.35223
-12.8154
-5.15958
-7.02148
-6.21914
-4.79491
-3.67247
-2.86145
-2.28637
-1.87761
-1.58065
-1.35724
-1.18273
-1.04125
-0.92334
-0.822873
-0.735759
-0.659368
-0.591816
-0.531789
-0.478123
-0.43003
-0.38676
-0.347781
-0.312576
-0.28076
-0.251959
-0.22587
-0.202241
-0.180826
-0.16142
-0.14383
-0.127931
-0.113541
-0.100541
-0.0888089
-0.0782388
-0.0687289
-0.0601896
-0.0525356
-0.0456899
-0.0395803
-0.0341395
-0.029305
-0.0250185
-0.021226
-0.0178787
-0.0149335
-0.0123535
-0.0101071
-0.0081663
-0.00650482
-0.00509709
-0.00391565
-0.00293132
-0.00211655
-0.00144064
-0.000881109
-0.000425163
-6.09406e-05
0.000222532
0.000435414
0.000587121
0.000686283
0.000740812
0.000757901
0.000744131
0.000705693
0.000648733
0.000579586
0.000504674
0.000429932
0.000360034
0.000297884
0.000244608
0.000200025
0.000163204
0.000132903
0.000108001
8.74851e-05
7.05113e-05
5.64634e-05
4.47588e-05
3.51687e-05
2.70823e-05
2.07216e-05
1.51918e-05
1.11896e-05
7.45454e-06
5.10115e-06
2.56355e-06
0
0
0
0
0
0
0
0
0
0
0
0
0
0
0
0
0
0
0
0
0
0
0
0
0
0
0
0
0
0
0
0
0
0
0
0
0
0
0
0
0
0
0
0
0
0
0
0
0
0
0
0
0
0
0
0
0
0
0
0
0
0
0
0
0
0
0
0
0
0
0
0
0
0
0
0
0
0
0
0
0
0
0
0
0
0
0
0
0
0
0
0
0
0
0
0
0
0
0
0
0
0
0
0
0
0
0
0
0
0
0
0
0
0
0
0
0
0
0
0
0
0
0
0
)
;

boundaryField
{
    inandouthalf11
    {
        type            cyclic;
    }
    inandouthalf12
    {
        type            cyclic;
    }
    inandouthalf21
    {
        type            cyclic;
    }
    inandouthalf22
    {
        type            cyclic;
    }
    inandouthalf31
    {
        type            cyclic;
    }
    inandouthalf32
    {
        type            cyclic;
    }
    inandouthalf41
    {
        type            cyclic;
    }
    inandouthalf42
    {
        type            cyclic;
    }
    top
    {
        type            symmetryPlane;
    }
    walls
    {
        type            calculated;
        value           uniform -9.90111e-23;
    }
    frontAndBackPlanes
    {
        type            empty;
    }
}


// ************************************************************************* //
