/*--------------------------------*- C++ -*----------------------------------*\
| =========                 |                                                 |
| \\      /  F ield         | OpenFOAM: The Open Source CFD Toolbox           |
|  \\    /   O peration     | Version:  2.4.x                                 |
|   \\  /    A nd           | Web:      www.OpenFOAM.org                      |
|    \\/     M anipulation  |                                                 |
\*---------------------------------------------------------------------------*/
FoamFile
{
    version     2.0;
    format      ascii;
    class       volVectorField;
    location    "9.85";
    object      ddt0(Ua);
}
// * * * * * * * * * * * * * * * * * * * * * * * * * * * * * * * * * * * * * //

dimensions      [0 1 -2 0 0 0 0];

internalField   nonuniform List<vector> 
360
(
(-2.52362e-32 -2.04065e-33 0)
(-6.2511e-09 9.1898e-09 0)
(-1.27759e-08 1.66279e-08 0)
(-1.8452e-08 2.33966e-08 0)
(-2.41098e-08 3.08442e-08 0)
(-2.99225e-08 3.90134e-08 0)
(-3.57763e-08 4.76815e-08 0)
(-4.16367e-08 5.68118e-08 0)
(-4.75347e-08 6.64484e-08 0)
(-5.3508e-08 7.66298e-08 0)
(-5.95862e-08 8.73815e-08 0)
(-6.57904e-08 9.87136e-08 0)
(-7.21362e-08 1.10625e-07 0)
(-7.86362e-08 1.23109e-07 0)
(-8.53022e-08 1.36158e-07 0)
(-9.21451e-08 1.49763e-07 0)
(-9.91747e-08 1.63914e-07 0)
(-1.06399e-07 1.78596e-07 0)
(-1.13824e-07 1.93793e-07 0)
(-1.21455e-07 2.09488e-07 0)
(-1.29298e-07 2.25664e-07 0)
(-1.37354e-07 2.42301e-07 0)
(-1.45629e-07 2.59382e-07 0)
(-1.54124e-07 2.76891e-07 0)
(-1.62842e-07 2.94808e-07 0)
(-1.71784e-07 3.13116e-07 0)
(-1.8095e-07 3.31795e-07 0)
(-1.90342e-07 3.50829e-07 0)
(-1.99959e-07 3.70202e-07 0)
(-2.09801e-07 3.89894e-07 0)
(-2.19867e-07 4.09887e-07 0)
(-2.30156e-07 4.30165e-07 0)
(-2.40666e-07 4.50708e-07 0)
(-2.51395e-07 4.715e-07 0)
(-2.62341e-07 4.92524e-07 0)
(-2.73501e-07 5.13757e-07 0)
(-2.8487e-07 5.35182e-07 0)
(-2.96446e-07 5.5678e-07 0)
(-3.08225e-07 5.78535e-07 0)
(-3.20202e-07 6.00423e-07 0)
(-3.32372e-07 6.22424e-07 0)
(-3.44731e-07 6.44521e-07 0)
(-3.57272e-07 6.66687e-07 0)
(-3.69988e-07 6.88904e-07 0)
(-3.82876e-07 7.11152e-07 0)
(-3.95927e-07 7.33409e-07 0)
(-4.09135e-07 7.55652e-07 0)
(-4.2249e-07 7.77853e-07 0)
(-4.35983e-07 7.99986e-07 0)
(-4.49609e-07 8.22041e-07 0)
(-4.6336e-07 8.43989e-07 0)
(-4.77224e-07 8.65802e-07 0)
(-4.91194e-07 8.87461e-07 0)
(-5.05258e-07 9.08941e-07 0)
(-5.19408e-07 9.30217e-07 0)
(-5.33633e-07 9.51268e-07 0)
(-5.47923e-07 9.72071e-07 0)
(-5.62267e-07 9.92601e-07 0)
(-5.76652e-07 1.01284e-06 0)
(-5.91065e-07 1.03275e-06 0)
(-6.05496e-07 1.05232e-06 0)
(-6.19936e-07 1.07153e-06 0)
(-6.34375e-07 1.09037e-06 0)
(-6.48802e-07 1.10881e-06 0)
(-6.63203e-07 1.12685e-06 0)
(-6.77566e-07 1.14445e-06 0)
(-6.91881e-07 1.1616e-06 0)
(-7.06137e-07 1.17829e-06 0)
(-7.20319e-07 1.19451e-06 0)
(-7.34415e-07 1.21024e-06 0)
(-7.48417e-07 1.22547e-06 0)
(-7.62318e-07 1.2402e-06 0)
(-7.76106e-07 1.25442e-06 0)
(-7.89771e-07 1.26812e-06 0)
(-8.03307e-07 1.28131e-06 0)
(-8.16708e-07 1.29398e-06 0)
(-8.29961e-07 1.30613e-06 0)
(-8.43058e-07 1.31776e-06 0)
(-8.5599e-07 1.32887e-06 0)
(-8.68749e-07 1.33946e-06 0)
(-8.8133e-07 1.34954e-06 0)
(-8.93726e-07 1.35911e-06 0)
(-9.05933e-07 1.36818e-06 0)
(-9.1795e-07 1.37676e-06 0)
(-9.29772e-07 1.38486e-06 0)
(-9.41398e-07 1.3925e-06 0)
(-9.52823e-07 1.39968e-06 0)
(-9.64044e-07 1.40642e-06 0)
(-9.75058e-07 1.41273e-06 0)
(-9.85861e-07 1.41861e-06 0)
(-9.96451e-07 1.42408e-06 0)
(-1.00683e-06 1.42916e-06 0)
(-1.01699e-06 1.43386e-06 0)
(-1.02693e-06 1.43819e-06 0)
(-1.03667e-06 1.44217e-06 0)
(-1.04619e-06 1.44582e-06 0)
(-1.05551e-06 1.44914e-06 0)
(-1.06461e-06 1.45215e-06 0)
(-1.07351e-06 1.45487e-06 0)
(-1.0822e-06 1.4573e-06 0)
(-1.09068e-06 1.45946e-06 0)
(-1.09897e-06 1.46136e-06 0)
(-1.10705e-06 1.46302e-06 0)
(-1.11494e-06 1.46444e-06 0)
(-1.12263e-06 1.46564e-06 0)
(-1.13013e-06 1.46663e-06 0)
(-1.13745e-06 1.46741e-06 0)
(-1.14459e-06 1.46799e-06 0)
(-1.15154e-06 1.46838e-06 0)
(-1.15833e-06 1.46858e-06 0)
(-1.16493e-06 1.46861e-06 0)
(-1.17137e-06 1.46845e-06 0)
(-1.17764e-06 1.46812e-06 0)
(-1.18374e-06 1.46762e-06 0)
(-1.18969e-06 1.46694e-06 0)
(-1.19547e-06 1.46609e-06 0)
(-1.20111e-06 1.46507e-06 0)
(-1.20661e-06 1.46388e-06 0)
(-1.21197e-06 1.46252e-06 0)
(-1.21721e-06 1.461e-06 0)
(-1.22234e-06 1.45931e-06 0)
(-1.22737e-06 1.45745e-06 0)
(-1.23229e-06 1.45541e-06 0)
(-1.23711e-06 1.45317e-06 0)
(-1.2418e-06 1.45074e-06 0)
(-1.24636e-06 1.44812e-06 0)
(-1.25078e-06 1.44534e-06 0)
(-1.25511e-06 1.44247e-06 0)
(-1.25939e-06 1.43959e-06 0)
(-1.26372e-06 1.43677e-06 0)
(-1.26811e-06 1.43398e-06 0)
(-1.27247e-06 1.43097e-06 0)
(-1.27636e-06 1.42717e-06 0)
(-1.27882e-06 1.42148e-06 0)
(-1.27778e-06 1.4121e-06 0)
(-1.27001e-06 1.3967e-06 0)
(-1.25152e-06 1.3734e-06 0)
(-1.22243e-06 1.34432e-06 0)
(-1.19205e-06 1.31741e-06 0)
(-1.17733e-06 1.30316e-06 0)
(-1.18047e-06 1.30092e-06 0)
(-1.18772e-06 1.30132e-06 0)
(-1.19177e-06 1.30276e-06 0)
(-1.02965e-06 9.48966e-07 0)
(6.76367e-07 -9.52002e-07 0)
(1.42198e-05 -4.33143e-06 0)
(-1.7289 0.255985 0)
(-0.76619 0.0350998 0)
(-0.567764 0.0384955 0)
(-0.566 0.0066484 0)
(-0.603205 -0.0126656 0)
(-0.647279 -0.0226559 0)
(-0.689125 -0.0265246 0)
(-0.726716 -0.0275979 0)
(-0.760099 -0.027199 0)
(-0.789824 -0.0260314 0)
(-0.816504 -0.0245156 0)
(-0.840668 -0.0229182 0)
(-0.862738 -0.0214031 0)
(-0.883041 -0.02006 0)
(-0.901824 -0.0189261 0)
(-0.919278 -0.018005 0)
(-0.935554 -0.0172799 0)
(-0.950774 -0.0167243 0)
(-0.965038 -0.0163083 0)
(-0.978432 -0.0160028 0)
(-0.991029 -0.0157813 0)
(-1.0029 -0.0156213 0)
(-1.01409 -0.0155043 0)
(-1.02466 -0.0154152 0)
(-1.03466 -0.0153427 0)
(-1.04412 -0.0152781 0)
(-1.05309 -0.0152152 0)
(-1.0616 -0.0151497 0)
(-1.06967 -0.0150788 0)
(-1.07735 -0.0150009 0)
(-1.08464 -0.0149149 0)
(-1.09157 -0.0148203 0)
(-1.09816 -0.0147169 0)
(-1.10443 -0.0146043 0)
(-1.11038 -0.0144821 0)
(-1.11604 -0.0143494 0)
(-1.12141 -0.014205 0)
(-1.12649 -0.0140468 0)
(-1.13131 -0.013872 0)
(-1.13585 -0.013677 0)
(-1.14014 -0.0134563 0)
(-1.14417 -0.0132024 0)
(-1.14796 -0.0129046 0)
(-1.1515 -0.0125479 0)
(-1.15482 -0.012116 0)
(-1.15791 -0.0116004 0)
(-1.16079 -0.0110178 0)
(-1.16348 -0.0104309 0)
(-1.16599 -0.00995448 0)
(-1.16834 -0.00972421 0)
(-1.17054 -0.00980685 0)
(-1.1726 -0.0101355 0)
(-1.17453 -0.0105819 0)
(-1.1763 -0.0110606 0)
(-1.17792 -0.0115378 0)
(-1.1794 -0.0120054 0)
(-1.18074 -0.0124611 0)
(-1.18192 -0.0128999 0)
(-1.18292 -0.0133175 0)
(-1.18374 -0.0137093 0)
(-1.18435 -0.01407 0)
(-1.18474 -0.014392 0)
(-1.1849 -0.0146642 0)
(-1.18482 -0.0148695 0)
(-1.1845 -0.0149824 0)
(-1.18394 -0.0149698 0)
(-1.18315 -0.0147961 0)
(-1.18215 -0.0144349 0)
(-1.18098 -0.0138836 0)
(-1.17968 -0.0131731 0)
(-1.17829 -0.0123643 0)
(-1.17685 -0.0115312 0)
(-1.17541 -0.0107399 0)
(-1.17397 -0.0100352 0)
(-1.17255 -0.00943773 0)
(-1.17117 -0.00894995 0)
(-1.16981 -0.00856349 0)
(-1.16848 -0.00826541 0)
(-1.16718 -0.0080419 0)
(-1.16592 -0.00788027 0)
(-1.1647 -0.00776892 0)
(-1.16353 -0.00769871 0)
(-1.16242 -0.00766087 0)
(-1.16137 -0.00764906 0)
(-1.16039 -0.00765746 0)
(-1.1595 -0.00768094 0)
(-1.15869 -0.00771705 0)
(-1.15798 -0.00776048 0)
(-1.15738 -0.00781614 0)
(-1.1569 -0.00787652 0)
(-1.15639 -0.00791154 0)
(-1.10288 -0.00417771 0)
(-1.10115 -0.00755901 0)
(-1.09833 -0.00679052 0)
(-1.09555 -0.00710714 0)
(-1.09298 -0.00774567 0)
(-1.09073 -0.00753223 0)
(-1.08861 -0.00940089 0)
(-1.08682 -0.00428432 0)
(-1.08501 -0.0139361 0)
(-1.08348 0.00200276 0)
(-1.08196 -0.0198172 0)
(-1.0812 0.00655139 0)
(-1.08026 -0.0186389 0)
(-1.07801 -0.0156933 0)
(-1.07238 0.0575161 0)
(-1.07692 0.0123709 0)
(-1.07611 -0.000522692 0)
(-1.07528 0.000153716 0)
(-1.07457 0.000120807 0)
(-1.07394 0.000121584 0)
(-1.07341 0.000120433 0)
(-1.07298 0.000118938 0)
(-1.07266 0.000117039 0)
(-1.07246 0.000114731 0)
(-1.07238 0.000112007 0)
(-1.07243 0.00010885 0)
(-1.07263 0.000105242 0)
(-1.07298 0.000101159 0)
(-1.07351 9.65591e-05 0)
(-1.07422 9.13752e-05 0)
(-1.07512 8.55168e-05 0)
(-1.0762 7.84099e-05 0)
(-1.07744 6.04153e-05 0)
(-1.07906 5.0499e-05 0)
(-1.07997 7.25732e-05 0)
(-1.08006 9.39864e-05 0)
(-1.08006 9.65468e-05 0)
(-1.08006 9.65846e-05 0)
(-1.08006 9.6586e-05 0)
(-1.08006 9.65857e-05 0)
(-1.08006 9.6586e-05 0)
(-1.08006 9.65858e-05 0)
(-1.08006 9.6586e-05 0)
(-1.08006 9.65858e-05 0)
(-1.08006 9.65861e-05 0)
(-1.08006 9.65858e-05 0)
(-1.08006 9.65861e-05 0)
(-1.08006 9.65858e-05 0)
(-1.08006 9.65861e-05 0)
(-1.08006 9.65858e-05 0)
(-1.08006 9.65862e-05 0)
(-1.08006 9.65858e-05 0)
(-1.08006 9.65862e-05 0)
(-1.08006 9.65858e-05 0)
(-1.08006 9.65862e-05 0)
(-1.08006 9.65858e-05 0)
(-1.08006 9.65863e-05 0)
(-1.08006 9.65858e-05 0)
(-1.08006 9.65863e-05 0)
(-1.08006 9.65857e-05 0)
(-1.08006 9.65863e-05 0)
(-1.08006 9.65857e-05 0)
(-1.08006 9.65862e-05 0)
(-1.08006 9.65856e-05 0)
(-1.08006 9.65862e-05 0)
(-1.08006 9.65854e-05 0)
(-1.08006 9.65861e-05 0)
(-1.08006 9.65853e-05 0)
(-1.08006 9.6586e-05 0)
(-1.08006 9.65852e-05 0)
(-1.08006 9.65859e-05 0)
(-1.08006 9.65851e-05 0)
(-1.08006 9.65859e-05 0)
(-1.08006 9.6585e-05 0)
(-1.08006 9.65857e-05 0)
(-1.08006 9.65849e-05 0)
(-1.08006 9.65856e-05 0)
(-1.08006 9.65848e-05 0)
(-1.08006 9.65855e-05 0)
(-1.08006 9.65847e-05 0)
(-1.08006 9.65854e-05 0)
(-1.08006 9.65846e-05 0)
(-1.08006 9.65853e-05 0)
(-1.08006 9.65844e-05 0)
(-1.08006 9.65852e-05 0)
(-1.08006 9.65843e-05 0)
(-1.08006 9.6585e-05 0)
(-1.08006 9.6584e-05 0)
(-1.08006 9.65847e-05 0)
(-1.08006 9.65836e-05 0)
(-1.08006 9.65837e-05 0)
(-1.08006 9.65817e-05 0)
(-1.08006 9.6581e-05 0)
(-1.08006 9.65781e-05 0)
(-1.08006 9.6577e-05 0)
(-1.08006 9.65741e-05 0)
(-1.08006 9.65731e-05 0)
(-1.08006 9.65706e-05 0)
(-1.08006 9.657e-05 0)
(-1.08006 9.65674e-05 0)
(-1.08006 9.65665e-05 0)
(-1.08006 9.65641e-05 0)
(-1.08006 9.65642e-05 0)
(-1.08006 9.65625e-05 0)
(-1.08006 9.65629e-05 0)
(-1.08006 9.65621e-05 0)
(-1.08006 9.65636e-05 0)
(-1.08006 9.65624e-05 0)
(-1.08006 9.65624e-05 0)
(-1.08006 9.65612e-05 0)
(-1.08006 9.6563e-05 0)
(-1.08006 9.65633e-05 0)
(-1.08006 9.6566e-05 0)
(-1.08006 9.65681e-05 0)
(-1.08006 9.65729e-05 0)
(-1.08006 9.65763e-05 0)
(-1.08006 9.65817e-05 0)
(-1.08006 9.65857e-05 0)
(-1.08006 9.65915e-05 0)
(-1.08006 9.66008e-05 0)
(-1.08006 9.67056e-05 0)
(-1.08004 9.8853e-05 0)
(-1.07946 0.000186843 0)
)
;

boundaryField
{
    inandouthalf11
    {
        type            cyclic;
    }
    inandouthalf12
    {
        type            cyclic;
    }
    inandouthalf21
    {
        type            cyclic;
    }
    inandouthalf22
    {
        type            cyclic;
    }
    inandouthalf31
    {
        type            cyclic;
    }
    inandouthalf32
    {
        type            cyclic;
    }
    inandouthalf41
    {
        type            cyclic;
    }
    inandouthalf42
    {
        type            cyclic;
    }
    top
    {
        type            symmetryPlane;
    }
    walls
    {
        type            calculated;
        value           uniform (0 0 0);
    }
    frontAndBackPlanes
    {
        type            empty;
    }
}


// ************************************************************************* //
