/*--------------------------------*- C++ -*----------------------------------*\
| =========                 |                                                 |
| \\      /  F ield         | OpenFOAM: The Open Source CFD Toolbox           |
|  \\    /   O peration     | Version:  2.4.x                                 |
|   \\  /    A nd           | Web:      www.OpenFOAM.org                      |
|    \\/     M anipulation  |                                                 |
\*---------------------------------------------------------------------------*/
FoamFile
{
    version     2.0;
    format      ascii;
    class       volScalarField;
    location    "9.85";
    object      epsilon;
}
// * * * * * * * * * * * * * * * * * * * * * * * * * * * * * * * * * * * * * //

dimensions      [0 2 -3 0 0 0 0];

internalField   nonuniform List<scalar> 
360
(
1e-20
1e-20
1e-20
1e-20
1e-20
1e-20
1e-20
1e-20
1e-20
1e-20
1e-20
1e-20
1e-20
1e-20
1e-20
1e-20
1e-20
1e-20
1e-20
1e-20
1e-20
1e-20
1e-20
1e-20
1e-20
1e-20
1e-20
1e-20
1e-20
1e-20
1e-20
1e-20
1e-20
1e-20
1e-20
1e-20
1e-20
1e-20
1e-20
1e-20
1e-20
1e-20
1e-20
1e-20
1e-20
1e-20
1e-20
1e-20
1e-20
1e-20
1e-20
1e-20
1e-20
1e-20
1e-20
1e-20
1e-20
1e-20
1e-20
1e-20
1e-20
1e-20
1e-20
1e-20
1e-20
1e-20
1e-20
1e-20
1e-20
1e-20
1e-20
1e-20
1e-20
1e-20
1e-20
1e-20
1e-20
1e-20
1e-20
1e-20
1e-20
1e-20
1e-20
1e-20
1e-20
1e-20
1e-20
1e-20
1e-20
1e-20
1e-20
1e-20
1e-20
1e-20
1e-20
1e-20
1e-20
1e-20
1e-20
1e-20
1e-20
1e-20
1e-20
1e-20
1e-20
1e-20
1e-20
1e-20
1e-20
1e-20
1e-20
1e-20
1e-20
1e-20
1e-20
1e-20
1e-20
1e-20
1e-20
1e-20
1e-20
1e-20
1e-20
1e-20
1e-20
1e-20
2.91276e-20
1.30887e-19
5.90856e-19
2.5931e-18
1.10866e-17
4.65604e-17
1.94792e-16
8.27869e-16
3.65475e-15
1.71239e-14
8.71295e-14
4.97379e-13
3.32527e-12
2.7061e-11
2.75212e-10
3.59202e-09
6.17494e-08
1.33882e-06
3.75782e-05
0.00130989
0.028362
0.0922961
0.113739
0.120154
0.120482
0.117983
0.11418
0.109934
0.105671
0.101592
0.0977796
0.0942515
0.0909962
0.0879891
0.0852017
0.082606
0.0801765
0.077891
0.0757301
0.0736775
0.0717195
0.0698444
0.0680423
0.066305
0.0646252
0.0629971
0.0614153
0.0598755
0.0583737
0.0569066
0.0554713
0.0540653
0.0526863
0.0513323
0.0500016
0.0486928
0.0474044
0.0461354
0.0448846
0.0436513
0.0424346
0.0412338
0.0400485
0.038878
0.0377221
0.0365804
0.0354527
0.0343387
0.0332383
0.0321516
0.0310784
0.0300188
0.0289729
0.0279408
0.0269227
0.0259085
0.0248889
0.0238645
0.0228364
0.0218054
0.0207726
0.0197395
0.0187072
0.0176775
0.0166521
0.0156332
0.0146228
0.0136237
0.0126387
0.0116709
0.0107237
0.00980094
0.00890667
0.00804517
0.00722087
0.00643828
0.0057018
0.00501559
0.00438326
0.00380767
0.00329064
0.00283269
0.00243291
0.00208893
0.00179702
0.00155239
0.00134957
0.00118283
0.00104656
0.000935564
0.000845231
0.000771587
0.0007113
0.000661621
0.000620299
0.000585508
0.000555761
0.000529848
0.000506786
0.000485766
0.00046613
0.000447338
0.00042895
0.000410613
0.000392046
0.000373037
0.00035343
0.000333125
0.000312073
0.000290274
0.000267771
0.000244655
0.000221059
0.00019716
0.000173174
0.000149359
0.000126013
0.000103467
8.20843e-05
6.22562e-05
4.43935e-05
2.892e-05
1.62648e-05
6.87466e-06
1.39573e-06
6.79534e-08
8.90691e-10
9.2533e-12
9.13511e-14
8.60907e-16
7.76442e-18
7.49811e-20
1e-20
1e-20
1e-20
1e-20
1e-20
1e-20
1e-20
1e-20
1e-20
1e-20
1e-20
1e-20
1e-20
1e-20
1e-20
1e-20
1e-20
1e-20
1e-20
1e-20
1e-20
1e-20
1e-20
1e-20
1e-20
1e-20
1e-20
1e-20
1e-20
1e-20
1e-20
1e-20
1e-20
1e-20
1e-20
1e-20
1e-20
1e-20
1e-20
1e-20
1e-20
1e-20
1e-20
1e-20
1e-20
1e-20
1e-20
1e-20
1e-20
1e-20
1e-20
1e-20
1e-20
1e-20
1e-20
1e-20
1e-20
1e-20
1e-20
1e-20
1e-20
1e-20
1e-20
1e-20
1e-20
1e-20
1e-20
1e-20
1e-20
1e-20
1e-20
1e-20
1e-20
1e-20
1e-20
1e-20
1e-20
1e-20
1e-20
1e-20
1e-20
1e-20
)
;

boundaryField
{
    inandouthalf11
    {
        type            cyclic;
    }
    inandouthalf12
    {
        type            cyclic;
    }
    inandouthalf21
    {
        type            cyclic;
    }
    inandouthalf22
    {
        type            cyclic;
    }
    inandouthalf31
    {
        type            cyclic;
    }
    inandouthalf32
    {
        type            cyclic;
    }
    inandouthalf41
    {
        type            cyclic;
    }
    inandouthalf42
    {
        type            cyclic;
    }
    top
    {
        type            symmetryPlane;
    }
    walls
    {
        type            zeroGradient;
    }
    frontAndBackPlanes
    {
        type            empty;
    }
}


// ************************************************************************* //
