/*--------------------------------*- C++ -*----------------------------------*\
| =========                 |                                                 |
| \\      /  F ield         | OpenFOAM: The Open Source CFD Toolbox           |
|  \\    /   O peration     | Version:  2.4.x                                 |
|   \\  /    A nd           | Web:      www.OpenFOAM.org                      |
|    \\/     M anipulation  |                                                 |
\*---------------------------------------------------------------------------*/
FoamFile
{
    version     2.0;
    format      ascii;
    class       volVectorField;
    location    "9.85";
    object      gradPf;
}
// * * * * * * * * * * * * * * * * * * * * * * * * * * * * * * * * * * * * * //

dimensions      [0 1 -2 0 0 0 0];

internalField   nonuniform List<vector> 
360
(
(0 71.6317 0)
(0 80.2632 0)
(0 0.173604 0)
(0 -12.5296 0)
(-3.34416e-14 -5.21099 0)
(-3.34423e-14 -2.79922 0)
(-3.34432e-14 -3.56759 0)
(0 -4.05879 0)
(-3.34456e-14 -4.10678 0)
(0 -4.11916 0)
(-3.34481e-14 -4.10822 0)
(0 -4.09755 0)
(-3.34506e-14 -4.10531 0)
(0 -4.114 0)
(0 -4.13377 0)
(0 -4.15366 0)
(0 -4.16312 0)
(-3.34571e-14 -4.16839 0)
(0 -4.19041 0)
(0 -4.19672 0)
(0 -4.20376 0)
(-3.34626e-14 -4.22617 0)
(0 -4.23336 0)
(0 -4.24594 0)
(0 -4.25883 0)
(-1.67341e-14 -4.26242 0)
(0 -4.27838 0)
(0 -4.29535 0)
(0 -4.29715 0)
(0 -4.30423 0)
(0 -4.3268 0)
(0 -4.32131 0)
(0 -4.33767 0)
(0 -4.35462 0)
(0 -4.35077 0)
(3.34836e-14 -4.36079 0)
(0 -4.36753 0)
(0 -4.39497 0)
(0 -4.37717 0)
(0 -4.38998 0)
(0 -4.42077 0)
(0 -4.39434 0)
(1.67477e-14 -4.41607 0)
(0 -4.43169 0)
(0 -4.42515 0)
(0 -4.44938 0)
(0 -4.4339 0)
(0 -4.43265 0)
(0 -4.47656 0)
(0 -4.46217 0)
(1.67551e-14 -4.45578 0)
(0 -4.47596 0)
(0 -4.48186 0)
(0 -4.4766 0)
(0 -4.49203 0)
(0 -4.49552 0)
(0 -4.49472 0)
(0 -4.51366 0)
(0 -4.49111 0)
(0 -4.51491 0)
(0 -4.52196 0)
(0 -4.51783 0)
(0 -4.53217 0)
(0 -4.52818 0)
(0 -4.53043 0)
(0 -4.53591 0)
(0 -4.54876 0)
(0 -4.54799 0)
(0 -4.53484 0)
(0 -4.54905 0)
(0 -4.57516 0)
(0 -4.55255 0)
(0 -4.55402 0)
(0 -4.57166 0)
(0 -4.57619 0)
(0 -4.57591 0)
(0 -4.56791 0)
(0 -4.57802 0)
(0 -4.58483 0)
(0 -4.58211 0)
(0 -4.58327 0)
(0 -4.59155 0)
(0 -4.59377 0)
(0 -4.59618 0)
(0 -4.59881 0)
(0 -4.60189 0)
(0 -4.60366 0)
(0 -4.60299 0)
(0 -4.60537 0)
(0 -4.60789 0)
(0 -4.60894 0)
(0 -4.61149 0)
(0 -4.61476 0)
(0 -4.61676 0)
(0 -4.61846 0)
(0 -4.61989 0)
(0 -4.62072 0)
(0 -4.62116 0)
(0 -4.62165 0)
(0 -4.62208 0)
(0 -4.62233 0)
(0 -4.62258 0)
(0 -4.62263 0)
(0 -4.62221 0)
(0 -4.62132 0)
(0 -4.61992 0)
(0 -4.61794 0)
(0 -4.61538 0)
(0 -4.61221 0)
(0 -4.60833 0)
(0 -4.60371 0)
(0 -4.59827 0)
(0 -4.59197 0)
(0 -4.58481 0)
(0 -4.57676 0)
(0 -4.56786 0)
(0 -4.55815 0)
(0 -4.54771 0)
(0 -4.53662 0)
(0 -4.52493 0)
(0 -4.51261 0)
(0 -4.49951 0)
(0 -4.48537 0)
(0 -4.46996 0)
(0 -4.45339 0)
(0 -4.43639 0)
(0 -4.42018 0)
(0 -4.40563 0)
(0 -4.39164 0)
(0 -4.37435 0)
(0 -4.35058 0)
(0 -4.32626 0)
(0 -4.31917 0)
(0 -4.33794 0)
(0 -4.35564 0)
(0 -4.33862 0)
(0 -4.31706 0)
(0 -4.39103 0)
(0 -4.60269 0)
(0 -4.72784 0)
(0 -4.78895 0)
(0 -18.1554 0)
(0 -17.6333 0)
(0 -2.77079 0)
(0 -3.9673 0)
(0 -5.6281 0)
(0 -3.98742 0)
(0 0 0)
(0 0 0)
(0 0 0)
(0 0 0)
(0 0 0)
(0 0 0)
(0 0 0)
(0 0 0)
(0 0 0)
(0 0 0)
(0 0 0)
(0 0 0)
(0 0 0)
(0 0 0)
(0 0 0)
(0 0 0)
(0 0 0)
(0 0 0)
(0 0 0)
(0 0 0)
(0 0 0)
(0 0 0)
(0 0 0)
(0 0 0)
(0 0 0)
(0 0 0)
(0 0 0)
(0 0 0)
(0 0 0)
(0 0 0)
(0 0 0)
(0 0 0)
(0 0 0)
(0 0 0)
(0 0 0)
(0 0 0)
(0 0 0)
(0 0 0)
(0 0 0)
(0 0 0)
(0 0 0)
(0 0 0)
(0 0 0)
(0 0 0)
(0 0 0)
(0 0 0)
(0 0 0)
(0 0 0)
(0 0 0)
(0 0 0)
(0 0 0)
(0 0 0)
(0 0 0)
(0 0 0)
(0 0 0)
(0 0 0)
(0 0 0)
(0 0 0)
(0 0 0)
(0 0 0)
(0 0 0)
(0 0 0)
(0 0 0)
(0 0 0)
(0 0 0)
(0 0 0)
(0 0 0)
(0 0 0)
(0 0 0)
(0 0 0)
(0 0 0)
(0 0 0)
(0 0 0)
(0 0 0)
(0 0 0)
(0 0 0)
(0 0 0)
(0 0 0)
(0 0 0)
(0 0 0)
(0 0 0)
(0 0 0)
(0 0 0)
(0 0 0)
(0 0 0)
(0 0 0)
(0 0 0)
(0 0 0)
(0 0 0)
(0 0 0)
(0 0 0)
(0 0 0)
(0 0 0)
(0 0 0)
(0 0 0)
(0 0 0)
(0 0 0)
(0 0 0)
(0 0 0)
(0 0 0)
(0 0 0)
(0 0 0)
(0 0 0)
(0 0 0)
(0 0 0)
(0 0 0)
(0 0 0)
(0 0 0)
(0 0 0)
(0 0 0)
(0 0 0)
(0 0 0)
(0 0 0)
(0 0 0)
(0 0 0)
(0 0 0)
(0 0 0)
(0 0 0)
(0 0 0)
(0 0 0)
(0 0 0)
(0 0 0)
(0 0 0)
(0 0 0)
(0 0 0)
(0 0 0)
(0 0 0)
(0 0 0)
(0 0 0)
(0 0 0)
(0 0 0)
(0 0 0)
(0 0 0)
(0 0 0)
(0 0 0)
(0 0 0)
(0 0 0)
(0 0 0)
(0 0 0)
(0 0 0)
(0 0 0)
(0 0 0)
(0 0 0)
(0 0 0)
(0 0 0)
(0 0 0)
(0 0 0)
(0 0 0)
(0 0 0)
(0 0 0)
(0 0 0)
(0 0 0)
(0 0 0)
(0 0 0)
(0 0 0)
(0 0 0)
(0 0 0)
(0 0 0)
(0 0 0)
(0 0 0)
(0 0 0)
(0 0 0)
(0 0 0)
(0 0 0)
(0 0 0)
(0 0 0)
(0 0 0)
(0 0 0)
(0 0 0)
(0 0 0)
(0 0 0)
(0 0 0)
(0 0 0)
(0 0 0)
(0 0 0)
(0 0 0)
(0 0 0)
(0 0 0)
(0 0 0)
(0 0 0)
(0 0 0)
(0 0 0)
(0 0 0)
(0 0 0)
(0 0 0)
(0 0 0)
(0 0 0)
(0 0 0)
(0 0 0)
(0 0 0)
(0 0 0)
(0 0 0)
(0 0 0)
(0 0 0)
(0 0 0)
(0 0 0)
(0 0 0)
(0 0 0)
(0 0 0)
(0 0 0)
(0 0 0)
(0 0 0)
(0 0 0)
(0 0 0)
(0 0 0)
(0 0 0)
(0 0 0)
(0 0 0)
(0 0 0)
(0 0 0)
(0 0 0)
(0 0 0)
(0 0 0)
)
;

boundaryField
{
    inandouthalf11
    {
        type            cyclic;
    }
    inandouthalf12
    {
        type            cyclic;
    }
    inandouthalf21
    {
        type            cyclic;
    }
    inandouthalf22
    {
        type            cyclic;
    }
    inandouthalf31
    {
        type            cyclic;
    }
    inandouthalf32
    {
        type            cyclic;
    }
    inandouthalf41
    {
        type            cyclic;
    }
    inandouthalf42
    {
        type            cyclic;
    }
    top
    {
        type            symmetryPlane;
    }
    walls
    {
        type            calculated;
        value           uniform (0 0 0);
    }
    frontAndBackPlanes
    {
        type            empty;
    }
}


// ************************************************************************* //
