/*--------------------------------*- C++ -*----------------------------------*\
| =========                 |                                                 |
| \\      /  F ield         | OpenFOAM: The Open Source CFD Toolbox           |
|  \\    /   O peration     | Version:  2.4.x                                 |
|   \\  /    A nd           | Web:      www.OpenFOAM.org                      |
|    \\/     M anipulation  |                                                 |
\*---------------------------------------------------------------------------*/
FoamFile
{
    version     2.0;
    format      ascii;
    class       volScalarField;
    location    "9.85";
    object      mua;
}
// * * * * * * * * * * * * * * * * * * * * * * * * * * * * * * * * * * * * * //

dimensions      [1 -1 -1 0 0 0 0];

internalField   nonuniform List<scalar> 
360
(
9.92446e+06
7.19441e+06
9.25139e+06
9.72228e+06
9.39404e+06
9.30502e+06
9.36538e+06
9.39436e+06
9.35846e+06
9.27067e+06
9.14712e+06
9.00166e+06
8.84092e+06
8.66883e+06
8.48744e+06
8.29876e+06
8.10604e+06
7.91248e+06
7.71953e+06
7.52823e+06
7.34077e+06
7.15649e+06
6.97622e+06
6.80074e+06
6.63026e+06
6.46534e+06
6.30589e+06
6.15116e+06
6.00202e+06
5.85873e+06
5.72054e+06
5.58736e+06
5.45992e+06
5.33632e+06
5.21826e+06
5.10507e+06
4.99655e+06
4.89161e+06
4.79091e+06
4.69541e+06
4.60249e+06
4.51395e+06
4.4298e+06
4.34793e+06
4.26971e+06
4.19459e+06
4.12299e+06
4.05563e+06
3.98984e+06
3.92595e+06
3.86616e+06
3.8087e+06
3.75358e+06
3.70086e+06
3.6508e+06
3.60232e+06
3.55674e+06
3.51294e+06
3.47193e+06
3.43331e+06
3.39533e+06
3.35949e+06
3.32492e+06
3.29236e+06
3.26179e+06
3.23306e+06
3.20559e+06
3.17979e+06
3.15635e+06
3.1346e+06
3.11282e+06
3.09226e+06
3.07405e+06
3.05624e+06
3.03914e+06
3.02308e+06
3.00914e+06
2.99668e+06
2.98515e+06
2.97472e+06
2.96555e+06
2.95694e+06
2.9487e+06
2.94098e+06
2.9338e+06
2.92729e+06
2.92158e+06
2.917e+06
2.9135e+06
2.91087e+06
2.90899e+06
2.90764e+06
2.90651e+06
2.90549e+06
2.90456e+06
2.90376e+06
2.90316e+06
2.90283e+06
2.90274e+06
2.90281e+06
2.90291e+06
2.90286e+06
2.90246e+06
2.90156e+06
2.90003e+06
2.89776e+06
2.89468e+06
2.89076e+06
2.88595e+06
2.88025e+06
2.87366e+06
2.86619e+06
2.8578e+06
2.8484e+06
2.83783e+06
2.82584e+06
2.81213e+06
2.7964e+06
2.77855e+06
2.75882e+06
2.7381e+06
2.71818e+06
2.70193e+06
2.69326e+06
2.69682e+06
2.71731e+06
2.7584e+06
2.82127e+06
2.90258e+06
2.9917e+06
3.06733e+06
3.09516e+06
3.03381e+06
2.85812e+06
2.59399e+06
2.32791e+06
2.17919e+06
2.29681e+06
3.008e+06
5.55377e+06
1.66184e+07
5.91483e+07
3.88241e+06
685988
143113
0.0647197
0.0136197
0.0099919
0.00865013
0.00777471
0.00713473
0.00668401
0.00638124
0.00618612
0.0060689
0.00600717
0.0059839
0.00598674
0.0060065
0.00603685
0.00607326
0.0061125
0.00615241
0.00619153
0.00622895
0.00626395
0.00629619
0.00632536
0.00635139
0.00637417
0.00639377
0.00641016
0.00642342
0.00643368
0.00644098
0.00644542
0.00644712
0.00644618
0.00644269
0.00643678
0.00642852
0.00641803
0.00640537
0.00639065
0.00637394
0.00635534
0.0063349
0.00631271
0.00628882
0.00626328
0.00623614
0.00620743
0.00617718
0.00614541
0.00611214
0.00607738
0.00604114
0.00600346
0.0059644
0.00592401
0.00588238
0.00583913
0.00579387
0.00574659
0.0056973
0.00564602
0.00559275
0.00553754
0.00548041
0.00542138
0.00536049
0.00529776
0.00523319
0.00516677
0.00509844
0.00502811
0.00495562
0.00488076
0.00480329
0.00472289
0.00463918
0.00455176
0.00446012
0.00436368
0.00426175
0.00415349
0.00403786
0.00391352
0.00377879
0.00363139
0.00346822
0.00328477
0.00307415
0.00282485
0.00251468
0.00208927
0
0
0
0
0
0
0
0
0
0
0
0
0
0
0
0
0
0
0
0
0
0
0
0
0
0
0
0
0
0
0
0
0
0
0
0
0
0
0
0
0
0
0
0
0
0
0
0
0
0
0
0
0
0
0
0
0
0
0
0
0
0
0
0
0
0
0
0
0
0
0
0
0
0
0
0
0
0
0
0
0
0
0
0
0
0
0
0
0
0
0
0
0
0
0
0
0
0
0
0
0
0
0
0
0
0
0
0
0
0
0
0
0
0
0
0
0
0
0
0
0
0
0
0
)
;

boundaryField
{
    inandouthalf11
    {
        type            cyclic;
    }
    inandouthalf12
    {
        type            cyclic;
    }
    inandouthalf21
    {
        type            cyclic;
    }
    inandouthalf22
    {
        type            cyclic;
    }
    inandouthalf31
    {
        type            cyclic;
    }
    inandouthalf32
    {
        type            cyclic;
    }
    inandouthalf41
    {
        type            cyclic;
    }
    inandouthalf42
    {
        type            cyclic;
    }
    top
    {
        type            symmetryPlane;
    }
    walls
    {
        type            calculated;
        value           uniform 1e+30;
    }
    frontAndBackPlanes
    {
        type            empty;
    }
}


// ************************************************************************* //
