/*--------------------------------*- C++ -*----------------------------------*\
| =========                 |                                                 |
| \\      /  F ield         | OpenFOAM: The Open Source CFD Toolbox           |
|  \\    /   O peration     | Version:  2.4.x                                 |
|   \\  /    A nd           | Web:      www.OpenFOAM.org                      |
|    \\/     M anipulation  |                                                 |
\*---------------------------------------------------------------------------*/
FoamFile
{
    version     2.0;
    format      ascii;
    class       surfaceScalarField;
    location    "9.85";
    object      phib;
}
// * * * * * * * * * * * * * * * * * * * * * * * * * * * * * * * * * * * * * //

dimensions      [0 3 -1 0 0 0 0];

internalField   nonuniform List<scalar> 
359
(
5.84323e-14
1.45761e-13
2.23566e-13
2.95446e-13
3.67424e-13
4.39547e-13
5.1098e-13
5.81779e-13
6.5235e-13
7.23101e-13
7.94321e-13
8.66192e-13
9.38867e-13
1.01247e-12
1.08711e-12
1.16291e-12
1.23995e-12
1.31831e-12
1.39803e-12
1.47918e-12
1.56177e-12
1.64585e-12
1.73145e-12
1.81858e-12
1.90725e-12
1.99747e-12
2.08923e-12
2.18254e-12
2.2774e-12
2.37378e-12
2.47166e-12
2.57105e-12
2.67188e-12
2.77418e-12
2.87787e-12
2.98295e-12
3.08935e-12
3.19706e-12
3.30606e-12
3.41623e-12
3.5276e-12
3.64011e-12
3.75365e-12
3.86824e-12
3.98379e-12
4.10026e-12
4.2176e-12
4.33568e-12
4.45449e-12
4.57402e-12
4.69412e-12
4.81477e-12
4.93589e-12
5.05742e-12
5.17927e-12
5.30142e-12
5.42374e-12
5.5462e-12
5.6687e-12
5.79112e-12
5.9135e-12
6.03568e-12
6.15768e-12
6.27936e-12
6.40068e-12
6.52155e-12
6.6419e-12
6.76167e-12
6.88077e-12
6.99909e-12
7.11664e-12
7.23338e-12
7.34917e-12
7.46402e-12
7.57785e-12
7.69064e-12
7.80229e-12
7.91272e-12
8.0219e-12
8.12978e-12
8.23629e-12
8.3414e-12
8.4451e-12
8.54735e-12
8.64814e-12
8.74741e-12
8.84514e-12
8.94129e-12
9.03581e-12
9.12867e-12
9.21983e-12
9.30928e-12
9.39701e-12
9.48301e-12
9.56727e-12
9.64978e-12
9.73054e-12
9.80954e-12
9.88677e-12
9.96221e-12
1.00359e-11
1.01078e-11
1.01778e-11
1.02462e-11
1.03128e-11
1.03776e-11
1.04407e-11
1.0502e-11
1.05617e-11
1.06196e-11
1.06759e-11
1.07305e-11
1.07833e-11
1.08345e-11
1.08841e-11
1.09319e-11
1.09781e-11
1.10227e-11
1.10656e-11
1.11069e-11
1.11465e-11
1.11844e-11
1.12206e-11
1.12548e-11
1.12868e-11
1.13164e-11
1.13434e-11
1.13675e-11
1.13887e-11
1.14069e-11
1.14225e-11
1.14357e-11
1.14472e-11
1.14575e-11
1.14672e-11
1.14762e-11
1.14836e-11
1.14867e-11
1.14827e-11
1.14715e-11
1.1455e-11
1.13408e-11
1.12194e-11
1.11985e-11
1.1173e-11
1.76348e-09
6.18457e-09
6.44999e-09
6.42332e-09
6.03459e-09
5.48322e-09
4.90523e-09
4.35578e-09
3.85522e-09
3.40892e-09
3.01517e-09
2.66923e-09
2.3655e-09
2.0985e-09
1.86326e-09
1.65552e-09
1.47163e-09
1.30849e-09
1.16349e-09
1.0344e-09
9.19341e-10
8.16669e-10
7.24977e-10
6.4304e-10
5.69788e-10
5.04285e-10
4.45705e-10
3.93321e-10
3.46488e-10
3.04634e-10
2.67252e-10
2.33887e-10
2.04137e-10
1.77641e-10
1.54074e-10
1.33148e-10
1.14603e-10
9.82061e-11
8.37477e-11
7.10394e-11
5.99119e-11
5.02131e-11
4.18067e-11
3.45708e-11
2.83967e-11
2.31851e-11
1.884e-11
1.52596e-11
1.23277e-11
9.9133e-12
7.88151e-12
6.11743e-12
4.55198e-12
3.1548e-12
1.91117e-12
8.11155e-13
-1.71653e-13
-1.03787e-12
-1.78882e-12
-2.4266e-12
-2.95391e-12
-3.37391e-12
-3.6897e-12
-3.90383e-12
-4.01766e-12
-4.03133e-12
-3.94491e-12
-3.76116e-12
-3.48949e-12
-3.14885e-12
-2.76711e-12
-2.37587e-12
-2.00317e-12
-1.66806e-12
-1.37923e-12
-1.13723e-12
-9.37716e-13
-7.74391e-13
-6.40787e-13
-5.31137e-13
-4.40693e-13
-3.65528e-13
-3.02918e-13
-2.50209e-13
-2.06166e-13
-1.68836e-13
-1.37785e-13
-1.11392e-13
-8.97626e-14
-7.13086e-14
-5.92964e-14
-3.36585e-14
-2.41358e-14
-1.5517e-14
-9.95168e-15
-6.45534e-15
-4.21126e-15
-2.77375e-15
-1.84894e-15
-1.21562e-15
-8.5651e-16
-5.27751e-16
-4.08412e-16
-2.05144e-16
-1.59792e-16
-3.42207e-17
-6.10516e-18
-9.01194e-18
-8.78982e-18
-8.51083e-18
-8.24171e-18
-7.92687e-18
-7.62099e-18
-7.27447e-18
-6.93838e-18
-6.58065e-18
-6.24382e-18
-5.90787e-18
-5.61646e-18
-5.36268e-18
-5.15712e-18
-4.97639e-18
-4.81683e-18
-4.67137e-18
-4.53439e-18
-4.39806e-18
-4.26739e-18
-4.15705e-18
-4.04712e-18
-3.93151e-18
-3.79824e-18
-3.66919e-18
-3.51836e-18
-3.36268e-18
-3.2002e-18
-3.07095e-18
-2.93827e-18
-2.80716e-18
-2.65227e-18
-2.50771e-18
-2.33892e-18
-2.10631e-18
-1.91224e-18
-1.73743e-18
-1.54882e-18
-1.35755e-18
-1.15005e-18
-9.48609e-19
-7.42378e-19
-5.45509e-19
-3.94999e-19
-3.6428e-19
-2.85733e-19
-2.2073e-19
-3.89892e-20
1.37726e-20
6.04652e-20
1.07512e-19
1.48444e-19
1.98603e-19
2.3865e-19
2.77893e-19
3.04791e-19
3.43622e-19
3.66608e-19
3.88135e-19
4.04142e-19
4.42154e-19
4.72368e-19
5.04092e-19
5.23145e-19
5.52521e-19
5.68817e-19
5.87055e-19
5.99065e-19
6.37146e-19
6.66036e-19
7.0016e-19
7.25988e-19
7.73311e-19
8.32803e-19
9.44114e-19
1.34937e-18
1.77653e-18
2.46215e-18
3.19592e-18
3.85346e-18
4.62277e-18
5.22092e-18
5.83138e-18
6.25829e-18
7.06665e-18
7.59741e-18
8.13012e-18
8.2553e-18
8.72119e-18
8.68227e-18
8.68736e-18
8.35023e-18
8.97706e-18
9.10132e-18
9.24849e-18
8.55455e-18
8.43073e-18
7.41495e-18
6.35958e-18
4.70926e-18
3.34223e-18
1.65015e-18
-8.82114e-20
-1.69452e-18
-4.4999e-18
-5.40059e-18
-5.42132e-18
)
;

boundaryField
{
    inandouthalf11
    {
        type            cyclic;
        value           nonuniform List<scalar> 
100
(
2.29352e-10
2.28083e-10
2.27907e-10
2.28077e-10
2.28157e-10
2.28182e-10
2.28214e-10
2.28255e-10
2.28297e-10
2.28339e-10
2.28382e-10
2.28425e-10
2.28469e-10
2.28512e-10
2.28556e-10
2.28601e-10
2.28646e-10
2.28692e-10
2.28737e-10
2.28784e-10
2.28831e-10
2.28878e-10
2.28926e-10
2.28974e-10
2.29023e-10
2.29072e-10
2.29122e-10
2.29172e-10
2.29223e-10
2.29274e-10
2.29326e-10
2.29378e-10
2.29431e-10
2.29485e-10
2.29538e-10
2.29593e-10
2.29648e-10
2.29703e-10
2.2976e-10
2.29816e-10
2.29874e-10
2.29931e-10
2.2999e-10
2.30049e-10
2.30109e-10
2.30169e-10
2.30231e-10
2.30292e-10
2.30355e-10
2.30418e-10
2.30482e-10
2.30547e-10
2.30612e-10
2.30678e-10
2.30745e-10
2.30813e-10
2.30882e-10
2.30951e-10
2.31022e-10
2.31092e-10
2.31165e-10
2.31238e-10
2.31312e-10
2.31387e-10
2.31463e-10
2.3154e-10
2.31619e-10
2.31698e-10
2.31778e-10
2.3186e-10
2.31943e-10
2.32027e-10
2.32112e-10
2.32198e-10
2.32286e-10
2.32376e-10
2.32466e-10
2.32558e-10
2.32652e-10
2.32747e-10
2.32844e-10
2.32942e-10
2.33042e-10
2.33144e-10
2.33248e-10
2.33353e-10
2.33461e-10
2.3357e-10
2.33682e-10
2.33795e-10
2.33911e-10
2.34029e-10
2.34149e-10
2.34272e-10
2.34398e-10
2.34526e-10
2.34656e-10
2.3479e-10
2.34926e-10
2.35066e-10
)
;
    }
    inandouthalf12
    {
        type            cyclic;
        value           nonuniform List<scalar> 
100
(
-2.29352e-10
-2.28083e-10
-2.27907e-10
-2.28077e-10
-2.28157e-10
-2.28182e-10
-2.28214e-10
-2.28255e-10
-2.28297e-10
-2.28339e-10
-2.28382e-10
-2.28425e-10
-2.28469e-10
-2.28512e-10
-2.28556e-10
-2.28601e-10
-2.28646e-10
-2.28692e-10
-2.28737e-10
-2.28784e-10
-2.28831e-10
-2.28878e-10
-2.28926e-10
-2.28974e-10
-2.29023e-10
-2.29072e-10
-2.29122e-10
-2.29172e-10
-2.29223e-10
-2.29274e-10
-2.29326e-10
-2.29378e-10
-2.29431e-10
-2.29485e-10
-2.29538e-10
-2.29593e-10
-2.29648e-10
-2.29703e-10
-2.2976e-10
-2.29816e-10
-2.29874e-10
-2.29931e-10
-2.2999e-10
-2.30049e-10
-2.30109e-10
-2.30169e-10
-2.30231e-10
-2.30292e-10
-2.30355e-10
-2.30418e-10
-2.30482e-10
-2.30547e-10
-2.30612e-10
-2.30678e-10
-2.30745e-10
-2.30813e-10
-2.30882e-10
-2.30951e-10
-2.31022e-10
-2.31092e-10
-2.31165e-10
-2.31238e-10
-2.31312e-10
-2.31387e-10
-2.31463e-10
-2.3154e-10
-2.31619e-10
-2.31698e-10
-2.31778e-10
-2.3186e-10
-2.31943e-10
-2.32027e-10
-2.32112e-10
-2.32198e-10
-2.32286e-10
-2.32376e-10
-2.32466e-10
-2.32558e-10
-2.32652e-10
-2.32747e-10
-2.32844e-10
-2.32942e-10
-2.33042e-10
-2.33144e-10
-2.33248e-10
-2.33353e-10
-2.33461e-10
-2.3357e-10
-2.33682e-10
-2.33795e-10
-2.33911e-10
-2.34029e-10
-2.34149e-10
-2.34272e-10
-2.34398e-10
-2.34526e-10
-2.34656e-10
-2.3479e-10
-2.34926e-10
-2.35066e-10
)
;
    }
    inandouthalf21
    {
        type            cyclic;
        value           nonuniform List<scalar> 
100
(
2.35208e-10
2.35354e-10
2.35503e-10
2.35656e-10
2.35813e-10
2.35973e-10
2.36137e-10
2.36305e-10
2.36478e-10
2.36655e-10
2.36837e-10
2.37024e-10
2.37216e-10
2.37413e-10
2.37616e-10
2.37824e-10
2.38039e-10
2.3826e-10
2.38488e-10
2.38723e-10
2.38965e-10
2.39216e-10
2.39475e-10
2.39742e-10
2.4002e-10
2.40307e-10
2.40605e-10
2.40915e-10
2.41238e-10
2.41576e-10
2.41927e-10
2.42294e-10
2.42678e-10
2.43084e-10
2.43515e-10
2.43973e-10
2.44455e-10
2.44969e-10
2.4554e-10
2.46199e-10
2.46915e-10
2.47736e-10
2.56934e-10
2.59077e-10
2.60318e-10
9.74224e-11
-5.227e-08
-1.43301e-07
-2.13778e-07
-2.71459e-07
-3.2028e-07
-3.62352e-07
-3.9905e-07
-4.31404e-07
-4.60223e-07
-4.86142e-07
-5.09665e-07
-5.31195e-07
-5.5105e-07
-5.69487e-07
-5.86714e-07
-6.02898e-07
-6.18177e-07
-6.32662e-07
-6.46447e-07
-6.59611e-07
-6.72219e-07
-6.84327e-07
-6.95982e-07
-7.07226e-07
-7.18092e-07
-7.28613e-07
-7.38815e-07
-7.48722e-07
-7.58353e-07
-7.67729e-07
-7.76864e-07
-7.85774e-07
-7.94472e-07
-8.02969e-07
-8.11277e-07
-8.19405e-07
-8.2736e-07
-8.35152e-07
-8.42788e-07
-8.50273e-07
-8.57613e-07
-8.64815e-07
-8.71882e-07
-8.78819e-07
-8.85631e-07
-8.9232e-07
-8.9889e-07
-9.05344e-07
-9.11685e-07
-9.17915e-07
-9.24035e-07
-9.30049e-07
-9.35957e-07
-9.41761e-07
)
;
    }
    inandouthalf22
    {
        type            cyclic;
        value           nonuniform List<scalar> 
100
(
-2.35208e-10
-2.35354e-10
-2.35503e-10
-2.35656e-10
-2.35813e-10
-2.35973e-10
-2.36137e-10
-2.36305e-10
-2.36478e-10
-2.36655e-10
-2.36837e-10
-2.37024e-10
-2.37216e-10
-2.37413e-10
-2.37616e-10
-2.37824e-10
-2.38039e-10
-2.3826e-10
-2.38488e-10
-2.38723e-10
-2.38965e-10
-2.39216e-10
-2.39475e-10
-2.39742e-10
-2.4002e-10
-2.40307e-10
-2.40605e-10
-2.40915e-10
-2.41238e-10
-2.41576e-10
-2.41927e-10
-2.42294e-10
-2.42678e-10
-2.43084e-10
-2.43515e-10
-2.43973e-10
-2.44455e-10
-2.44969e-10
-2.4554e-10
-2.46199e-10
-2.46915e-10
-2.47736e-10
-2.56934e-10
-2.59077e-10
-2.60318e-10
-9.74224e-11
5.227e-08
1.43301e-07
2.13778e-07
2.71459e-07
3.2028e-07
3.62352e-07
3.9905e-07
4.31404e-07
4.60223e-07
4.86142e-07
5.09665e-07
5.31195e-07
5.5105e-07
5.69487e-07
5.86714e-07
6.02898e-07
6.18177e-07
6.32662e-07
6.46447e-07
6.59611e-07
6.72219e-07
6.84327e-07
6.95982e-07
7.07226e-07
7.18092e-07
7.28613e-07
7.38815e-07
7.48722e-07
7.58353e-07
7.67729e-07
7.76864e-07
7.85774e-07
7.94472e-07
8.02969e-07
8.11277e-07
8.19405e-07
8.2736e-07
8.35152e-07
8.42788e-07
8.50273e-07
8.57613e-07
8.64815e-07
8.71882e-07
8.78819e-07
8.85631e-07
8.9232e-07
8.9889e-07
9.05344e-07
9.11685e-07
9.17915e-07
9.24035e-07
9.30049e-07
9.35957e-07
9.41761e-07
)
;
    }
    inandouthalf31
    {
        type            cyclic;
        value           nonuniform List<scalar> 
110
(
-9.47466e-07
-9.7247e-07
-9.98108e-07
-1.02439e-06
-1.05134e-06
-1.07896e-06
-1.10726e-06
-1.13625e-06
-1.16595e-06
-1.19636e-06
-1.22749e-06
-1.25935e-06
-1.29194e-06
-1.32526e-06
-1.35931e-06
-1.3941e-06
-1.4296e-06
-1.46582e-06
-1.50273e-06
-1.54032e-06
-1.57857e-06
-1.61743e-06
-1.65689e-06
-1.6969e-06
-1.73741e-06
-1.77838e-06
-1.81977e-06
-1.86153e-06
-1.90363e-06
-1.94605e-06
-1.98877e-06
-2.0318e-06
-2.07515e-06
-2.11886e-06
-2.16295e-06
-2.20747e-06
-2.25246e-06
-2.29796e-06
-2.34401e-06
-2.39065e-06
-2.4379e-06
-2.48579e-06
-2.53436e-06
-2.58362e-06
-2.6336e-06
-2.68432e-06
-2.73582e-06
-2.78809e-06
-2.84119e-06
-2.89511e-06
-2.94991e-06
-3.00559e-06
-3.06219e-06
-3.11975e-06
-3.1783e-06
-3.23787e-06
-3.29851e-06
-3.36026e-06
-3.42318e-06
-3.48732e-06
-3.55274e-06
-3.61952e-06
-3.68773e-06
-3.75746e-06
-3.82881e-06
-3.90189e-06
-3.97683e-06
-4.05375e-06
-4.13281e-06
-4.21418e-06
-4.29806e-06
-4.38481e-06
-4.47378e-06
-4.56459e-06
-4.65724e-06
-4.75177e-06
-4.84822e-06
-4.94662e-06
-5.04702e-06
-5.14947e-06
-5.25399e-06
-5.36063e-06
-5.46943e-06
-5.58045e-06
-5.69372e-06
-5.80929e-06
-5.9272e-06
-6.0475e-06
-6.17025e-06
-6.29549e-06
-6.42327e-06
-6.55365e-06
-6.68667e-06
-6.82239e-06
-6.96087e-06
-7.10216e-06
-7.24631e-06
-7.39339e-06
-7.54346e-06
-7.69657e-06
-7.85279e-06
-8.01218e-06
-8.17481e-06
-8.34073e-06
-8.51003e-06
-8.68276e-06
-8.859e-06
-9.03881e-06
-9.22227e-06
-9.40946e-06
)
;
    }
    inandouthalf32
    {
        type            cyclic;
        value           nonuniform List<scalar> 
110
(
9.47466e-07
9.7247e-07
9.98108e-07
1.02439e-06
1.05134e-06
1.07896e-06
1.10726e-06
1.13625e-06
1.16595e-06
1.19636e-06
1.22749e-06
1.25935e-06
1.29194e-06
1.32526e-06
1.35931e-06
1.3941e-06
1.4296e-06
1.46582e-06
1.50273e-06
1.54032e-06
1.57857e-06
1.61743e-06
1.65689e-06
1.6969e-06
1.73741e-06
1.77838e-06
1.81977e-06
1.86153e-06
1.90363e-06
1.94605e-06
1.98877e-06
2.0318e-06
2.07515e-06
2.11886e-06
2.16295e-06
2.20747e-06
2.25246e-06
2.29796e-06
2.34401e-06
2.39065e-06
2.4379e-06
2.48579e-06
2.53436e-06
2.58362e-06
2.6336e-06
2.68432e-06
2.73582e-06
2.78809e-06
2.84119e-06
2.89511e-06
2.94991e-06
3.00559e-06
3.06219e-06
3.11975e-06
3.1783e-06
3.23787e-06
3.29851e-06
3.36026e-06
3.42318e-06
3.48732e-06
3.55274e-06
3.61952e-06
3.68773e-06
3.75746e-06
3.82881e-06
3.90189e-06
3.97683e-06
4.05375e-06
4.13281e-06
4.21418e-06
4.29806e-06
4.38481e-06
4.47378e-06
4.56459e-06
4.65724e-06
4.75177e-06
4.84822e-06
4.94662e-06
5.04702e-06
5.14947e-06
5.25399e-06
5.36063e-06
5.46943e-06
5.58045e-06
5.69372e-06
5.80929e-06
5.9272e-06
6.0475e-06
6.17025e-06
6.29549e-06
6.42327e-06
6.55365e-06
6.68667e-06
6.82239e-06
6.96087e-06
7.10216e-06
7.24631e-06
7.39339e-06
7.54346e-06
7.69657e-06
7.85279e-06
8.01218e-06
8.17481e-06
8.34073e-06
8.51003e-06
8.68276e-06
8.859e-06
9.03881e-06
9.22227e-06
9.40946e-06
)
;
    }
    inandouthalf41
    {
        type            cyclic;
        value           nonuniform List<scalar> 
50
(
-8.42243e-06
-8.42243e-06
-8.42243e-06
-8.42243e-06
-8.42243e-06
-8.42243e-06
-8.42243e-06
-8.42243e-06
-8.42243e-06
-8.42243e-06
-8.42243e-06
-8.42243e-06
-8.42243e-06
-8.42243e-06
-8.42243e-06
-8.42243e-06
-8.42243e-06
-8.42243e-06
-8.42243e-06
-8.42243e-06
-8.42243e-06
-8.42243e-06
-8.42243e-06
-8.42243e-06
-8.42243e-06
-8.42243e-06
-8.42243e-06
-8.42243e-06
-8.42243e-06
-8.42243e-06
-8.42243e-06
-8.42243e-06
-8.42243e-06
-8.42243e-06
-8.42243e-06
-8.42243e-06
-8.42243e-06
-8.42243e-06
-8.42243e-06
-8.42243e-06
-8.42243e-06
-8.42243e-06
-8.42243e-06
-8.42243e-06
-8.42243e-06
-8.42243e-06
-8.42243e-06
-8.42243e-06
-8.42243e-06
-8.42243e-06
)
;
    }
    inandouthalf42
    {
        type            cyclic;
        value           nonuniform List<scalar> 
50
(
8.42243e-06
8.42243e-06
8.42243e-06
8.42243e-06
8.42243e-06
8.42243e-06
8.42243e-06
8.42243e-06
8.42243e-06
8.42243e-06
8.42243e-06
8.42243e-06
8.42243e-06
8.42243e-06
8.42243e-06
8.42243e-06
8.42243e-06
8.42243e-06
8.42243e-06
8.42243e-06
8.42243e-06
8.42243e-06
8.42243e-06
8.42243e-06
8.42243e-06
8.42243e-06
8.42243e-06
8.42243e-06
8.42243e-06
8.42243e-06
8.42243e-06
8.42243e-06
8.42243e-06
8.42243e-06
8.42243e-06
8.42243e-06
8.42243e-06
8.42243e-06
8.42243e-06
8.42243e-06
8.42243e-06
8.42243e-06
8.42243e-06
8.42243e-06
8.42243e-06
8.42243e-06
8.42243e-06
8.42243e-06
8.42243e-06
8.42243e-06
)
;
    }
    top
    {
        type            symmetryPlane;
        value           uniform 0;
    }
    walls
    {
        type            fixedValue;
        value           uniform 0;
    }
    frontAndBackPlanes
    {
        type            empty;
        value           nonuniform 0();
    }
}


// ************************************************************************* //
