/*--------------------------------*- C++ -*----------------------------------*\
| =========                 |                                                 |
| \\      /  F ield         | OpenFOAM: The Open Source CFD Toolbox           |
|  \\    /   O peration     | Version:  2.4.x                                 |
|   \\  /    A nd           | Web:      www.OpenFOAM.org                      |
|    \\/     M anipulation  |                                                 |
\*---------------------------------------------------------------------------*/
FoamFile
{
    version     2.0;
    format      ascii;
    class       volVectorField;
    location    "9.85";
    object      susb;
}
// * * * * * * * * * * * * * * * * * * * * * * * * * * * * * * * * * * * * * //

dimensions      [0 1 -2 0 0 0 0];

internalField   nonuniform List<vector> 
360
(
(0 5.99076e-18 0)
(0 6.66214e-18 0)
(0 1.2838e-20 0)
(0 -9.18754e-19 0)
(-3.70012e-31 -3.8817e-19 0)
(-7.39957e-31 -2.10428e-19 0)
(-3.69936e-31 -2.69624e-19 0)
(0 -3.08573e-19 0)
(-3.69825e-31 -3.14332e-19 0)
(0 -3.1745e-19 0)
(-7.39423e-31 -3.18795e-19 0)
(0 -3.20185e-19 0)
(-7.39193e-31 -3.23034e-19 0)
(0 -3.26004e-19 0)
(0 -3.29907e-19 0)
(0 -3.33884e-19 0)
(0 -3.37079e-19 0)
(-3.69299e-31 -3.39985e-19 0)
(0 -3.44322e-19 0)
(0 -3.47416e-19 0)
(0 -3.50639e-19 0)
(-7.381e-31 -3.55196e-19 0)
(0 -3.58547e-19 0)
(0 -3.62417e-19 0)
(0 -3.66378e-19 0)
(-3.6879e-31 -3.696e-19 0)
(0 -3.73966e-19 0)
(0 -3.78491e-19 0)
(0 -3.81752e-19 0)
(0 -3.85542e-19 0)
(0 -3.90807e-19 0)
(0 -3.93589e-19 0)
(0 -3.98469e-19 0)
(0 -4.03446e-19 0)
(0 -4.06612e-19 0)
(3.6809e-31 -4.11114e-19 0)
(0 -4.15408e-19 0)
(0 -4.21767e-19 0)
(0 -4.23841e-19 0)
(0 -4.28996e-19 0)
(0 -4.35974e-19 0)
(0 -4.37412e-19 0)
(7.35109e-31 -4.43734e-19 0)
(0 -4.49521e-19 0)
(0 -4.53195e-19 0)
(0 -4.6011e-19 0)
(0 -4.62996e-19 0)
(0 -4.67476e-19 0)
(0 -4.76845e-19 0)
(0 -4.80114e-19 0)
(3.66889e-31 -4.84371e-19 0)
(0 -4.91583e-19 0)
(0 -4.97403e-19 0)
(0 -5.02061e-19 0)
(0 -5.09216e-19 0)
(0 -5.15092e-19 0)
(0 -5.20677e-19 0)
(0 -5.28639e-19 0)
(0 -5.31882e-19 0)
(0 -5.40784e-19 0)
(0 -5.47792e-19 0)
(0 -5.53678e-19 0)
(0 -5.61925e-19 0)
(0 -5.68112e-19 0)
(0 -5.75209e-19 0)
(0 -5.82916e-19 0)
(0 -5.91759e-19 0)
(0 -5.99033e-19 0)
(0 -6.0482e-19 0)
(0 -6.14482e-19 0)
(0 -6.25998e-19 0)
(0 -6.31052e-19 0)
(0 -6.39671e-19 0)
(0 -6.50748e-19 0)
(0 -6.60305e-19 0)
(0 -6.69369e-19 0)
(0 -6.77571e-19 0)
(0 -6.88702e-19 0)
(0 -6.99656e-19 0)
(0 -7.09442e-19 0)
(0 -7.20137e-19 0)
(0 -7.32271e-19 0)
(0 -7.43797e-19 0)
(0 -7.55708e-19 0)
(0 -7.6802e-19 0)
(0 -7.80801e-19 0)
(0 -7.93753e-19 0)
(0 -8.06699e-19 0)
(0 -8.20611e-19 0)
(0 -8.35004e-19 0)
(0 -8.49616e-19 0)
(0 -8.65014e-19 0)
(0 -8.81085e-19 0)
(0 -8.97485e-19 0)
(0 -9.14421e-19 0)
(0 -9.31922e-19 0)
(0 -9.49953e-19 0)
(0 -9.68586e-19 0)
(0 -9.87948e-19 0)
(0 -1.00806e-18 0)
(0 -1.02893e-18 0)
(0 -1.05066e-18 0)
(0 -1.07324e-18 0)
(0 -1.09667e-18 0)
(0 -1.121e-18 0)
(0 -1.14627e-18 0)
(0 -1.17253e-18 0)
(0 -1.19983e-18 0)
(0 -1.22824e-18 0)
(0 -1.25781e-18 0)
(0 -1.2886e-18 0)
(0 -1.32068e-18 0)
(0 -1.35412e-18 0)
(0 -1.38902e-18 0)
(0 -1.42548e-18 0)
(0 -1.46363e-18 0)
(0 -1.5036e-18 0)
(0 -1.54556e-18 0)
(0 -1.58972e-18 0)
(0 -1.63628e-18 0)
(0 -1.68542e-18 0)
(0 -1.73733e-18 0)
(0 -1.79215e-18 0)
(0 -1.85006e-18 0)
(0 -1.9114e-18 0)
(0 -1.97683e-18 0)
(0 -5.65668e-18 0)
(0 -2.40891e-17 0)
(0 -1.02862e-16 0)
(0 -4.21662e-16 0)
(0 -1.65312e-15 0)
(0 -6.2265e-15 0)
(0 -2.28373e-14 0)
(0 -8.31143e-14 0)
(0 -3.04565e-13 0)
(0 -1.13486e-12 0)
(0 -4.39352e-12 0)
(0 -1.85864e-11 0)
(0 -9.1169e-11 0)
(0 -5.18703e-10 0)
(0 -3.55967e-09 0)
(0 -1.77001e-07 0)
(0 -2.08172e-06 0)
(0 -8.41055e-06 0)
(0 -0.000308574 0)
(0 -0.321239 0)
(0 -2.02748 0)
(0 -1.78725 0)
(0 -1.13857 0)
(0 -0.959232 0)
(0 -0.887095 0)
(0 -0.857796 0)
(0 -0.811392 0)
(0 -0.759439 0)
(0 -0.704748 0)
(0 -0.6494 0)
(0 -0.595341 0)
(0 -0.543979 0)
(0 -0.49614 0)
(0 -0.45224 0)
(0 -0.412279 0)
(0 -0.376117 0)
(0 -0.34351 0)
(0 -0.314146 0)
(0 -0.287685 0)
(0 -0.263811 0)
(0 -0.242238 0)
(0 -0.222701 0)
(0 -0.20497 0)
(0 -0.188838 0)
(0 -0.174129 0)
(0 -0.160682 0)
(0 -0.148369 0)
(0 -0.137068 0)
(0 -0.126674 0)
(0 -0.117099 0)
(0 -0.108266 0)
(0 -0.100104 0)
(0 -0.0925517 0)
(0 -0.0855555 0)
(0 -0.0790675 0)
(0 -0.0730455 0)
(0 -0.0674516 0)
(0 -0.0622519 0)
(0 -0.0574162 0)
(0 -0.0529177 0)
(0 -0.0487324 0)
(0 -0.0448396 0)
(0 -0.0412206 0)
(0 -0.037856 0)
(0 -0.0347202 0)
(0 -0.0317763 0)
(0 -0.0289766 0)
(0 -0.0262759 0)
(0 -0.0236583 0)
(0 -0.0211752 0)
(0 -0.0189682 0)
(0 -0.0171347 0)
(0 -0.0155918 0)
(0 -0.0142408 0)
(0 -0.0130341 0)
(0 -0.0119379 0)
(-6.46554e-18 -0.0109285 0)
(0 -0.00999846 0)
(0 -0.00914123 0)
(3.17973e-18 -0.00835145 0)
(0 -0.00762525 0)
(-3.13187e-18 -0.00696059 0)
(0 -0.00635719 0)
(3.07284e-18 -0.00581544 0)
(0 -0.00533359 0)
(0 -0.0049038 0)
(0 -0.00450893 0)
(0 -0.00412344 0)
(0 -0.00372104 0)
(0 -0.00328669 0)
(0 -0.00282534 0)
(0 -0.0023603 0)
(0 -0.00192225 0)
(-3.22339e-19 -0.00153589 0)
(0 -0.00121344 0)
(-3.05531e-19 -0.000955032 0)
(0 -0.00075336 0)
(0 -0.000598119 0)
(0 -0.000479256 0)
(0 -0.000387735 0)
(0 -0.000317589 0)
(0 -0.000261293 0)
(6.3572e-20 -0.000218752 0)
(6.25047e-20 -0.000181168 0)
(0 -0.000154329 0)
(0 -0.000126895 0)
(0 -0.000110054 0)
(0 -8.73895e-05 0)
(0 -7.93861e-05 0)
(0 -3.78705e-05 0)
(0 -1.95603e-05 0)
(0 -4.13867e-05 0)
(0 -3.65832e-05 0)
(0 -2.40277e-05 0)
(0 -1.70527e-05 0)
(0 -1.16747e-05 0)
(0 -8.06187e-06 0)
(-1.08154e-21 -5.51389e-06 0)
(1.06022e-21 -3.76683e-06 0)
(0 -2.51926e-06 0)
(0 -1.72073e-06 0)
(-2.43744e-22 -1.101e-06 0)
(0 -7.62251e-07 0)
(0 -4.59167e-07 0)
(-6.03494e-23 -3.19393e-07 0)
(0 -1.98115e-07 0)
(0 -1.3304e-09 0)
(0 -2.1231e-51 0)
(0 -8.41681e-55 0)
(0 -4.81814e-55 0)
(0 -2.41835e-55 0)
(0 -1.30459e-55 0)
(0 -5.48523e-56 0)
(0 -2.8193e-56 0)
(0 -1.43761e-56 0)
(0 -6.27089e-57 0)
(0 -2.87834e-57 0)
(0 -1.29906e-57 0)
(0 -5.63687e-58 0)
(0 -2.35572e-58 0)
(1.26767e-74 -9.35944e-59 0)
(0 -3.47476e-59 0)
(0 -1.16461e-59 0)
(0 -3.23171e-60 0)
(0 -4.93372e-61 0)
(0 -1.63674e-62 0)
(0 -1.01167e-64 0)
(0 -4.40734e-67 0)
(0 -1.78402e-69 0)
(0 -6.74946e-72 0)
(0 -2.38742e-74 0)
(0 -7.20781e-77 0)
(0 -8.68334e-80 0)
(0 -1.64656e-80 0)
(0 -5.80999e-81 0)
(0 -1.99422e-81 0)
(0 -6.65074e-82 0)
(0 -2.15242e-82 0)
(0 -6.75098e-83 0)
(0 -2.04912e-83 0)
(1.02921e-99 -6.00976e-84 0)
(0 -1.70022e-84 0)
(0 -4.63142e-85 0)
(0 -1.21232e-85 0)
(0 -3.04274e-86 0)
(0 -7.30475e-87 0)
(0 -1.67292e-87 0)
(0 -3.64404e-88 0)
(0 -7.52451e-89 0)
(0 -1.46732e-89 0)
(2.00713e-106 -2.69069e-90 0)
(0 -4.61705e-91 0)
(0 -7.37151e-92 0)
(0 -1.08779e-92 0)
(0 -1.47192e-93 0)
(0 -1.80893e-94 0)
(0 -1.9954e-95 0)
(0 -1.9464e-96 0)
(0 -1.64657e-97 0)
(0 -1.17651e-98 0)
(0 -6.83545e-100 0)
(0 -3.04267e-101 0)
(0 -9.32678e-103 0)
(0 -1.53278e-104 0)
(0 -2.53364e-107 0)
(0 -2.80485e-113 0)
(0 -1.91558e-115 0)
(0 -6.4776e-118 0)
(0 -2.53108e-128 0)
(0 -5.03627e-139 0)
(0 -7.48503e-150 0)
(0 -8.09314e-161 0)
(0 -7.61647e-172 0)
(0 -5.53971e-183 0)
(0 -3.461e-194 0)
(0 -9.01865e-205 0)
(0 -4.03381e-215 0)
(0 -2.50334e-223 0)
(0 -1.17059e-233 0)
(0 -8.60942e-242 0)
(0 -4.75487e-252 0)
(0 -2.96362e-260 0)
(0 -2.00519e-270 0)
(0 -1.02137e-278 0)
(0 -1.28182e-288 0)
(0 -3.60564e-297 0)
(0 -8.4836e-307 0)
(0 -1.31745e-315 0)
(0 -0 0)
(0 -0 0)
(0 0 0)
(0 0 0)
(0 0 0)
(0 0 0)
(0 0 0)
(0 0 0)
(0 0 0)
(0 0 0)
(0 0 0)
(0 0 0)
(0 0 0)
(0 0 0)
(0 0 0)
(0 0 0)
(0 0 0)
(0 0 0)
(0 0 0)
(0 0 0)
(0 0 0)
(0 0 0)
(0 0 0)
(0 0 0)
(0 0 0)
(0 0 0)
)
;

boundaryField
{
    inandouthalf11
    {
        type            cyclic;
    }
    inandouthalf12
    {
        type            cyclic;
    }
    inandouthalf21
    {
        type            cyclic;
    }
    inandouthalf22
    {
        type            cyclic;
    }
    inandouthalf31
    {
        type            cyclic;
    }
    inandouthalf32
    {
        type            cyclic;
    }
    inandouthalf41
    {
        type            cyclic;
    }
    inandouthalf42
    {
        type            cyclic;
    }
    top
    {
        type            symmetryPlane;
    }
    walls
    {
        type            zeroGradient;
    }
    frontAndBackPlanes
    {
        type            empty;
    }
}


// ************************************************************************* //
