/*--------------------------------*- C++ -*----------------------------------*\
| =========                 |                                                 |
| \\      /  F ield         | OpenFOAM: The Open Source CFD Toolbox           |
|  \\    /   O peration     | Version:  2.4.x                                 |
|   \\  /    A nd           | Web:      www.OpenFOAM.org                      |
|    \\/     M anipulation  |                                                 |
\*---------------------------------------------------------------------------*/
FoamFile
{
    version     2.0;
    format      ascii;
    class       volScalarField;
    location    "9.85";
    object      tmf;
}
// * * * * * * * * * * * * * * * * * * * * * * * * * * * * * * * * * * * * * //

dimensions      [0 0 0 0 0 0 0];

internalField   nonuniform List<scalar> 
360
(
0.999207
0.99921
0.99921
0.99921
0.999209
0.999209
0.999209
0.999209
0.999209
0.999209
0.999209
0.999209
0.999209
0.999209
0.999209
0.999209
0.999209
0.999208
0.999208
0.999208
0.999208
0.999208
0.999208
0.999208
0.999208
0.999208
0.999208
0.999208
0.999208
0.999207
0.999207
0.999207
0.999207
0.999207
0.999207
0.999207
0.999207
0.999207
0.999207
0.999206
0.999206
0.999206
0.999206
0.999206
0.999206
0.999206
0.999206
0.999206
0.999205
0.999205
0.999205
0.999205
0.999205
0.999205
0.999205
0.999205
0.999205
0.999204
0.999204
0.999204
0.999204
0.999204
0.999204
0.999204
0.999203
0.999203
0.999203
0.999203
0.999203
0.999203
0.999203
0.999202
0.999202
0.999202
0.999202
0.999202
0.999202
0.999201
0.999201
0.999201
0.999201
0.999201
0.999201
0.9992
0.9992
0.9992
0.9992
0.9992
0.999199
0.999199
0.999199
0.999199
0.999199
0.999198
0.999198
0.999198
0.999198
0.999197
0.999197
0.999197
0.999197
0.999196
0.999196
0.999196
0.999196
0.999195
0.999195
0.999195
0.999195
0.999194
0.999194
0.999194
0.999193
0.999193
0.999193
0.999192
0.999192
0.999191
0.999191
0.999191
0.99919
0.99919
0.999189
0.999189
0.999188
0.999188
0.999166
0.999126
0.999084
0.999033
0.998969
0.998888
0.998783
0.998647
0.998471
0.998238
0.997922
0.997484
0.996881
0.996068
0.994963
0.993457
0.991582
0.989184
0.98577
0.980695
0.947383
0.919271
0.913532
0.910864
0.910095
0.913713
0.917451
0.92114
0.924696
0.928069
0.931229
0.934162
0.936866
0.939348
0.94162
0.943698
0.945598
0.947338
0.948932
0.950396
0.951743
0.952986
0.954134
0.955198
0.956185
0.957104
0.957961
0.95876
0.959509
0.96021
0.960867
0.961485
0.962065
0.96261
0.963123
0.963604
0.964054
0.964476
0.964868
0.965231
0.965565
0.965868
0.96614
0.966378
0.966582
0.966749
0.96688
0.966979
0.967068
0.967224
0.967631
0.96842
0.969438
0.970512
0.971577
0.972621
0.973649
0.974658
0.975647
0.976617
0.977567
0.978497
0.979409
0.980303
0.981177
0.982034
0.982872
0.983691
0.984491
0.985272
0.986034
0.986777
0.987501
0.988206
0.988894
0.989564
0.990216
0.990851
0.991467
0.992063
0.992637
0.993186
0.993706
0.994193
0.994644
0.995055
0.995424
0.995751
0.996037
0.996285
0.996494
0.99448
0.994928
0.995091
0.995285
0.995426
0.995554
0.995661
0.995757
0.995828
0.995931
0.995956
0.996143
0.996115
0.996478
0.996498
0.997422
0.997464
0.997507
0.997552
0.997601
0.997654
0.997711
0.997774
0.997842
0.997918
0.998001
0.998092
0.998194
0.998308
0.998437
0.998584
0.998756
0.998969
0.999209
0.999368
0.999399
0.999401
0.999402
0.999404
0.999406
0.999344
0.995793
0.994198
0.994198
0.994198
0.994198
0.994198
0.994198
0.994198
0.994198
0.994198
0.994198
0.994198
0.994198
0.994198
0.994198
0.994198
0.994198
0.994198
0.994198
0.994198
0.994198
0.994198
0.994198
0.994198
0.994198
0.994198
0.994198
0.994198
0.994198
0.994198
0.994198
0.994198
0.994198
0.994198
0.994198
0.994198
0.994198
0.994198
0.994198
0.994198
0.994198
0.994198
0.994198
0.994198
0.994198
0.994198
0.994198
0.994198
0.994198
0.994198
0.994198
0.994198
0.994198
0.994198
0.994198
0.994198
0.994198
0.994198
0.994198
0.994198
0.994198
0.994198
0.994198
0.994198
0.994198
0.994198
0.994198
0.994198
0.994198
0.994198
0.994198
0.994198
0.994198
0.994198
0.994198
0.994198
0.994198
0.994198
0.994198
0.994197
0.994182
0.993271
)
;

boundaryField
{
    inandouthalf11
    {
        type            cyclic;
    }
    inandouthalf12
    {
        type            cyclic;
    }
    inandouthalf21
    {
        type            cyclic;
    }
    inandouthalf22
    {
        type            cyclic;
    }
    inandouthalf31
    {
        type            cyclic;
    }
    inandouthalf32
    {
        type            cyclic;
    }
    inandouthalf41
    {
        type            cyclic;
    }
    inandouthalf42
    {
        type            cyclic;
    }
    top
    {
        type            symmetryPlane;
    }
    walls
    {
        type            calculated;
        value           uniform 0;
    }
    frontAndBackPlanes
    {
        type            empty;
    }
}


// ************************************************************************* //
