/*--------------------------------*- C++ -*----------------------------------*\
| =========                 |                                                 |
| \\      /  F ield         | OpenFOAM: The Open Source CFD Toolbox           |
|  \\    /   O peration     | Version:  2.4.x                                 |
|   \\  /    A nd           | Web:      www.OpenFOAM.org                      |
|    \\/     M anipulation  |                                                 |
\*---------------------------------------------------------------------------*/
FoamFile
{
    version     2.0;
    format      ascii;
    class       volVectorField;
    location    "9.85";
    object      Ua;
}
// * * * * * * * * * * * * * * * * * * * * * * * * * * * * * * * * * * * * * //

dimensions      [0 1 -1 0 0 0 0];

internalField   nonuniform List<vector> 
360
(
(2.78606e-33 -1.04581e-31 0)
(6.82243e-10 -1.71356e-08 0)
(1.42478e-09 -3.01794e-08 0)
(2.09568e-09 -4.12152e-08 0)
(2.78798e-09 -5.25107e-08 0)
(3.52212e-09 -6.40469e-08 0)
(4.28325e-09 -7.547e-08 0)
(5.06587e-09 -8.67452e-08 0)
(5.87327e-09 -9.79543e-08 0)
(6.71007e-09 -1.09168e-07 0)
(7.58019e-09 -1.2044e-07 0)
(8.48673e-09 -1.31806e-07 0)
(9.43217e-09 -1.43291e-07 0)
(1.04188e-08 -1.54916e-07 0)
(1.1449e-08 -1.667e-07 0)
(1.2525e-08 -1.78662e-07 0)
(1.36493e-08 -1.90818e-07 0)
(1.48238e-08 -2.0318e-07 0)
(1.60507e-08 -2.15758e-07 0)
(1.73318e-08 -2.28561e-07 0)
(1.8669e-08 -2.41596e-07 0)
(2.0064e-08 -2.54867e-07 0)
(2.15186e-08 -2.6838e-07 0)
(2.30346e-08 -2.82139e-07 0)
(2.46134e-08 -2.96146e-07 0)
(2.62565e-08 -3.10403e-07 0)
(2.79655e-08 -3.24908e-07 0)
(2.97417e-08 -3.39664e-07 0)
(3.15864e-08 -3.5467e-07 0)
(3.3501e-08 -3.69924e-07 0)
(3.54864e-08 -3.85423e-07 0)
(3.75439e-08 -4.01166e-07 0)
(3.96743e-08 -4.17147e-07 0)
(4.18788e-08 -4.33364e-07 0)
(4.41581e-08 -4.49815e-07 0)
(4.65129e-08 -4.66491e-07 0)
(4.89439e-08 -4.83387e-07 0)
(5.14516e-08 -5.00498e-07 0)
(5.40369e-08 -5.17821e-07 0)
(5.66999e-08 -5.35346e-07 0)
(5.94409e-08 -5.53065e-07 0)
(6.22604e-08 -5.70976e-07 0)
(6.51582e-08 -5.89064e-07 0)
(6.81343e-08 -6.07325e-07 0)
(7.11891e-08 -6.25752e-07 0)
(7.43224e-08 -6.44336e-07 0)
(7.75339e-08 -6.63068e-07 0)
(8.08226e-08 -6.81934e-07 0)
(8.4188e-08 -7.00924e-07 0)
(8.76306e-08 -7.20037e-07 0)
(9.11494e-08 -7.3926e-07 0)
(9.47431e-08 -7.58578e-07 0)
(9.84112e-08 -7.77985e-07 0)
(1.02153e-07 -7.9747e-07 0)
(1.05967e-07 -8.1702e-07 0)
(1.09851e-07 -8.36627e-07 0)
(1.13806e-07 -8.5628e-07 0)
(1.1783e-07 -8.75966e-07 0)
(1.2192e-07 -8.95675e-07 0)
(1.26074e-07 -9.15387e-07 0)
(1.30291e-07 -9.35098e-07 0)
(1.3457e-07 -9.54799e-07 0)
(1.3891e-07 -9.74478e-07 0)
(1.43307e-07 -9.94126e-07 0)
(1.47761e-07 -1.01373e-06 0)
(1.52269e-07 -1.03328e-06 0)
(1.56828e-07 -1.05275e-06 0)
(1.61437e-07 -1.07216e-06 0)
(1.66092e-07 -1.09147e-06 0)
(1.7079e-07 -1.11067e-06 0)
(1.7553e-07 -1.12976e-06 0)
(1.8031e-07 -1.14873e-06 0)
(1.85127e-07 -1.16758e-06 0)
(1.89978e-07 -1.18628e-06 0)
(1.94862e-07 -1.20483e-06 0)
(1.99778e-07 -1.22323e-06 0)
(2.0472e-07 -1.24147e-06 0)
(2.09687e-07 -1.25953e-06 0)
(2.14675e-07 -1.27741e-06 0)
(2.19682e-07 -1.29509e-06 0)
(2.24704e-07 -1.31256e-06 0)
(2.2974e-07 -1.32983e-06 0)
(2.34787e-07 -1.34689e-06 0)
(2.39844e-07 -1.36372e-06 0)
(2.44908e-07 -1.38034e-06 0)
(2.49979e-07 -1.39673e-06 0)
(2.55053e-07 -1.41289e-06 0)
(2.60128e-07 -1.42881e-06 0)
(2.65201e-07 -1.44449e-06 0)
(2.70269e-07 -1.45992e-06 0)
(2.7533e-07 -1.47509e-06 0)
(2.80381e-07 -1.49e-06 0)
(2.85421e-07 -1.50465e-06 0)
(2.90449e-07 -1.51904e-06 0)
(2.95463e-07 -1.53316e-06 0)
(3.00462e-07 -1.54703e-06 0)
(3.05445e-07 -1.56062e-06 0)
(3.10411e-07 -1.57395e-06 0)
(3.15357e-07 -1.58701e-06 0)
(3.20284e-07 -1.5998e-06 0)
(3.25189e-07 -1.61233e-06 0)
(3.30072e-07 -1.62458e-06 0)
(3.34932e-07 -1.63656e-06 0)
(3.3977e-07 -1.64828e-06 0)
(3.44585e-07 -1.65973e-06 0)
(3.49378e-07 -1.67093e-06 0)
(3.5415e-07 -1.68186e-06 0)
(3.589e-07 -1.69253e-06 0)
(3.63631e-07 -1.70295e-06 0)
(3.68342e-07 -1.71311e-06 0)
(3.73034e-07 -1.72303e-06 0)
(3.77709e-07 -1.73269e-06 0)
(3.82368e-07 -1.74211e-06 0)
(3.87011e-07 -1.75128e-06 0)
(3.91641e-07 -1.76021e-06 0)
(3.96259e-07 -1.7689e-06 0)
(4.00866e-07 -1.77734e-06 0)
(4.05468e-07 -1.78555e-06 0)
(4.10066e-07 -1.79352e-06 0)
(4.14665e-07 -1.80126e-06 0)
(4.19267e-07 -1.80877e-06 0)
(4.23872e-07 -1.81604e-06 0)
(4.28478e-07 -1.82307e-06 0)
(4.33075e-07 -1.82984e-06 0)
(4.37646e-07 -1.83632e-06 0)
(4.42166e-07 -1.84247e-06 0)
(4.46603e-07 -1.84826e-06 0)
(4.50923e-07 -1.85364e-06 0)
(4.55097e-07 -1.8586e-06 0)
(4.59112e-07 -1.86313e-06 0)
(4.62975e-07 -1.86724e-06 0)
(4.66728e-07 -1.87101e-06 0)
(4.70455e-07 -1.8745e-06 0)
(4.74286e-07 -1.87784e-06 0)
(4.78385e-07 -1.88114e-06 0)
(4.82894e-07 -1.88448e-06 0)
(4.87799e-07 -1.88779e-06 0)
(4.92727e-07 -1.89079e-06 0)
(4.96871e-07 -1.89303e-06 0)
(4.99397e-07 -1.89424e-06 0)
(5.00314e-07 -1.8946e-06 0)
(5.00507e-07 -1.89461e-06 0)
(5.00612e-07 -1.89463e-06 0)
(5.01256e-07 -1.89592e-06 0)
(5.05216e-07 -1.90008e-06 0)
(5.31477e-07 -1.90641e-06 0)
(0.0485308 -0.00113627 0)
(0.139802 -0.00415897 0)
(0.212255 -0.00523395 0)
(0.271356 -0.00608987 0)
(0.321228 -0.00669658 0)
(0.364108 -0.00708942 0)
(0.401447 -0.00743172 0)
(0.434317 -0.00772036 0)
(0.463554 -0.00796554 0)
(0.489816 -0.00817427 0)
(0.513623 -0.00834943 0)
(0.535388 -0.00849138 0)
(0.55544 -0.00859965 0)
(0.574043 -0.00867398 0)
(0.591408 -0.00871459 0)
(0.607708 -0.00872226 0)
(0.623082 -0.00869832 0)
(0.637648 -0.0086445 0)
(0.651498 -0.00856282 0)
(0.664715 -0.00845542 0)
(0.677363 -0.00832445 0)
(0.689501 -0.00817207 0)
(0.701176 -0.00800035 0)
(0.712429 -0.00781122 0)
(0.723296 -0.00760653 0)
(0.733809 -0.00738797 0)
(0.743993 -0.00715708 0)
(0.753873 -0.0069153 0)
(0.763468 -0.00666396 0)
(0.772797 -0.00640424 0)
(0.781877 -0.00613728 0)
(0.79072 -0.00586414 0)
(0.799339 -0.0055858 0)
(0.807745 -0.00530324 0)
(0.815948 -0.0050174 0)
(0.823956 -0.00472923 0)
(0.831775 -0.00443973 0)
(0.839413 -0.00414994 0)
(0.846874 -0.003861 0)
(0.854163 -0.0035742 0)
(0.861283 -0.00329099 0)
(0.868238 -0.0030131 0)
(0.875029 -0.00274264 0)
(0.881658 -0.00248225 0)
(0.888127 -0.00223513 0)
(0.894437 -0.00200478 0)
(0.900588 -0.00179415 0)
(0.90658 -0.00160409 0)
(0.912415 -0.00143164 0)
(0.918093 -0.00126918 0)
(0.923613 -0.00110608 0)
(0.928977 -0.0009329 0)
(0.934184 -0.000744547 0)
(0.939232 -0.000539727 0)
(0.944122 -0.000318852 0)
(0.948898 -8.05314e-05 0)
(0.953604 0.000177161 0)
(0.95823 0.000453738 0)
(0.962771 0.000748496 0)
(0.967218 0.0010605 0)
(0.971562 0.00138852 0)
(0.975795 0.0017309 0)
(0.979906 0.00208533 0)
(0.983887 0.00244841 0)
(0.987728 0.0028151 0)
(0.99142 0.00317812 0)
(0.994955 0.00352775 0)
(0.998327 0.00385226 0)
(1.00153 0.00413951 0)
(1.00457 0.00437925 0)
(1.00743 0.00456544 0)
(1.01014 0.0046975 0)
(1.01269 0.00477984 0)
(1.01508 0.00482022 0)
(1.01733 0.00482779 0)
(1.01944 0.00481144 0)
(1.02142 0.00477888 0)
(1.02327 0.00473629 0)
(1.02499 0.00468836 0)
(1.02659 0.00463839 0)
(1.02808 0.00458865 0)
(1.02944 0.00454018 0)
(1.03069 0.00449388 0)
(1.03183 0.00444883 0)
(1.03286 0.00440554 0)
(1.03379 0.00436075 0)
(1.0346 0.00431566 0)
(1.03529 0.00426194 0)
(1.03586 0.00420409 0)
(1.03629 0.00411699 0)
(1.03673 0.00397231 0)
(1.09791 0.000747135 0)
(1.09872 0.00328275 0)
(1.09834 0.00159077 0)
(1.09774 0.00218995 0)
(1.09703 0.00176908 0)
(1.0962 0.00178454 0)
(1.09527 0.00167539 0)
(1.09423 0.00186095 0)
(1.09312 0.00127563 0)
(1.09188 0.00274589 0)
(1.09066 8.77526e-05 0)
(1.08913 0.0052676 0)
(1.08785 -0.00289851 0)
(1.08589 0.0104759 0)
(1.08391 -0.0100539 0)
(1.08123 -0.0394064 0)
(1.0795 -0.0395392 0)
(1.07789 -0.0395347 0)
(1.07625 -0.0395362 0)
(1.0746 -0.0395373 0)
(1.07295 -0.0395382 0)
(1.07131 -0.0395389 0)
(1.06968 -0.0395393 0)
(1.06809 -0.0395395 0)
(1.06653 -0.0395392 0)
(1.06504 -0.0395387 0)
(1.06361 -0.0395376 0)
(1.06227 -0.0395361 0)
(1.06104 -0.039534 0)
(1.05993 -0.0395313 0)
(1.05897 -0.0395278 0)
(1.05819 -0.0395234 0)
(1.05758 -0.0395172 0)
(1.05724 -0.0395068 0)
(1.05715 -0.0394983 0)
(1.05714 -0.0394957 0)
(1.05714 -0.0394956 0)
(1.05714 -0.0394956 0)
(1.05714 -0.0394956 0)
(1.05714 -0.0394956 0)
(1.05714 -0.0394956 0)
(1.05714 -0.0394956 0)
(1.05714 -0.0394956 0)
(1.05714 -0.0394956 0)
(1.05714 -0.0394956 0)
(1.05714 -0.0394956 0)
(1.05714 -0.0394956 0)
(1.05714 -0.0394956 0)
(1.05714 -0.0394956 0)
(1.05714 -0.0394956 0)
(1.05714 -0.0394956 0)
(1.05714 -0.0394956 0)
(1.05714 -0.0394956 0)
(1.05714 -0.0394956 0)
(1.05714 -0.0394956 0)
(1.05714 -0.0394956 0)
(1.05714 -0.0394956 0)
(1.05714 -0.0394956 0)
(1.05714 -0.0394956 0)
(1.05714 -0.0394956 0)
(1.05714 -0.0394956 0)
(1.05714 -0.0394956 0)
(1.05714 -0.0394956 0)
(1.05714 -0.0394956 0)
(1.05714 -0.0394956 0)
(1.05714 -0.0394956 0)
(1.05714 -0.0394956 0)
(1.05714 -0.0394956 0)
(1.05714 -0.0394956 0)
(1.05714 -0.0394956 0)
(1.05714 -0.0394956 0)
(1.05714 -0.0394956 0)
(1.05714 -0.0394956 0)
(1.05714 -0.0394956 0)
(1.05714 -0.0394956 0)
(1.05714 -0.0394956 0)
(1.05714 -0.0394956 0)
(1.05714 -0.0394956 0)
(1.05714 -0.0394956 0)
(1.05714 -0.0394956 0)
(1.05714 -0.0394956 0)
(1.05714 -0.0394956 0)
(1.05714 -0.0394956 0)
(1.05714 -0.0394956 0)
(1.05714 -0.0394956 0)
(1.05714 -0.0394956 0)
(1.05714 -0.0394956 0)
(1.05714 -0.0394956 0)
(1.05714 -0.0394956 0)
(1.05714 -0.0394956 0)
(1.05714 -0.0394956 0)
(1.05714 -0.0394956 0)
(1.05714 -0.0394956 0)
(1.05714 -0.0394956 0)
(1.05714 -0.0394956 0)
(1.05714 -0.0394956 0)
(1.05714 -0.0394956 0)
(1.05714 -0.0394956 0)
(1.05714 -0.0394956 0)
(1.05714 -0.0394956 0)
(1.05714 -0.0394956 0)
(1.05714 -0.0394956 0)
(1.05714 -0.0394956 0)
(1.05714 -0.0394956 0)
(1.05714 -0.0394956 0)
(1.05714 -0.0394956 0)
(1.05714 -0.0394956 0)
(1.05714 -0.0394956 0)
(1.05714 -0.0394956 0)
(1.05714 -0.0394956 0)
(1.05714 -0.0394956 0)
(1.05714 -0.0394956 0)
(1.05714 -0.0394956 0)
(1.05714 -0.0394956 0)
(1.05714 -0.0394956 0)
(1.05714 -0.0394956 0)
(1.05714 -0.0394956 0)
(1.05714 -0.0394956 0)
(1.05714 -0.0394956 0)
(1.05714 -0.0394954 0)
(1.05714 -0.0394869 0)
(1.05717 -0.039141 0)
(1.05786 -0.0223936 0)
)
;

boundaryField
{
    inandouthalf11
    {
        type            cyclic;
    }
    inandouthalf12
    {
        type            cyclic;
    }
    inandouthalf21
    {
        type            cyclic;
    }
    inandouthalf22
    {
        type            cyclic;
    }
    inandouthalf31
    {
        type            cyclic;
    }
    inandouthalf32
    {
        type            cyclic;
    }
    inandouthalf41
    {
        type            cyclic;
    }
    inandouthalf42
    {
        type            cyclic;
    }
    top
    {
        type            symmetryPlane;
    }
    walls
    {
        type            fixedValue;
        value           uniform (0 0 0);
    }
    frontAndBackPlanes
    {
        type            empty;
    }
}


// ************************************************************************* //
