/*--------------------------------*- C++ -*----------------------------------*\
| =========                 |                                                 |
| \\      /  F ield         | OpenFOAM: The Open Source CFD Toolbox           |
|  \\    /   O peration     | Version:  2.4.x                                 |
|   \\  /    A nd           | Web:      www.OpenFOAM.org                      |
|    \\/     M anipulation  |                                                 |
\*---------------------------------------------------------------------------*/
FoamFile
{
    version     2.0;
    format      ascii;
    class       volVectorField;
    location    "9.85";
    object      Ub_0;
}
// * * * * * * * * * * * * * * * * * * * * * * * * * * * * * * * * * * * * * //

dimensions      [0 1 -1 0 0 0 0];

internalField   nonuniform List<vector> 
360
(
(-0.000229313 7.19203e-09 0)
(-0.000228043 2.5379e-08 0)
(-0.000227868 4.61649e-08 0)
(-0.000228038 6.48885e-08 0)
(-0.000228118 8.2872e-08 0)
(-0.000228143 1.00882e-07 0)
(-0.000228174 1.18828e-07 0)
(-0.000228215 1.36611e-07 0)
(-0.000228257 1.54286e-07 0)
(-0.0002283 1.71954e-07 0)
(-0.000228343 1.89704e-07 0)
(-0.000228386 2.07594e-07 0)
(-0.000228429 2.25666e-07 0)
(-0.000228473 2.43954e-07 0)
(-0.000228517 2.62489e-07 0)
(-0.000228562 2.81298e-07 0)
(-0.000228607 3.00408e-07 0)
(-0.000228652 3.19837e-07 0)
(-0.000228698 3.39601e-07 0)
(-0.000228745 3.59715e-07 0)
(-0.000228791 3.80187e-07 0)
(-0.000228839 4.01027e-07 0)
(-0.000228887 4.22242e-07 0)
(-0.000228935 4.43838e-07 0)
(-0.000228984 4.65818e-07 0)
(-0.000229033 4.88185e-07 0)
(-0.000229082 5.10938e-07 0)
(-0.000229133 5.34079e-07 0)
(-0.000229183 5.57606e-07 0)
(-0.000229235 5.81516e-07 0)
(-0.000229286 6.05805e-07 0)
(-0.000229339 6.30471e-07 0)
(-0.000229391 6.55504e-07 0)
(-0.000229445 6.80902e-07 0)
(-0.000229499 7.06657e-07 0)
(-0.000229553 7.3276e-07 0)
(-0.000229608 7.59201e-07 0)
(-0.000229664 7.85972e-07 0)
(-0.00022972 8.13068e-07 0)
(-0.000229776 8.40469e-07 0)
(-0.000229834 8.68171e-07 0)
(-0.000229892 8.96162e-07 0)
(-0.00022995 9.24423e-07 0)
(-0.00023001 9.52948e-07 0)
(-0.000230069 9.81722e-07 0)
(-0.00023013 1.01073e-06 0)
(-0.000230191 1.03997e-06 0)
(-0.000230252 1.0694e-06 0)
(-0.000230315 1.09902e-06 0)
(-0.000230379 1.12882e-06 0)
(-0.000230442 1.15878e-06 0)
(-0.000230507 1.18888e-06 0)
(-0.000230572 1.2191e-06 0)
(-0.000230639 1.24944e-06 0)
(-0.000230705 1.27987e-06 0)
(-0.000230774 1.31038e-06 0)
(-0.000230842 1.34094e-06 0)
(-0.000230912 1.37155e-06 0)
(-0.000230982 1.40217e-06 0)
(-0.000231053 1.43279e-06 0)
(-0.000231125 1.4634e-06 0)
(-0.000231198 1.49397e-06 0)
(-0.000231272 1.5245e-06 0)
(-0.000231347 1.55497e-06 0)
(-0.000231423 1.58535e-06 0)
(-0.0002315 1.61563e-06 0)
(-0.000231579 1.64579e-06 0)
(-0.000231658 1.67581e-06 0)
(-0.000231738 1.70567e-06 0)
(-0.000231819 1.73535e-06 0)
(-0.000231903 1.76484e-06 0)
(-0.000231987 1.79413e-06 0)
(-0.000232071 1.8232e-06 0)
(-0.000232158 1.85204e-06 0)
(-0.000232246 1.88062e-06 0)
(-0.000232336 1.90896e-06 0)
(-0.000232426 1.93701e-06 0)
(-0.000232518 1.96478e-06 0)
(-0.000232612 1.99223e-06 0)
(-0.000232707 2.01937e-06 0)
(-0.000232803 2.04617e-06 0)
(-0.000232902 2.07263e-06 0)
(-0.000233002 2.09873e-06 0)
(-0.000233104 2.12448e-06 0)
(-0.000233207 2.14986e-06 0)
(-0.000233313 2.17487e-06 0)
(-0.00023342 2.19949e-06 0)
(-0.00023353 2.22373e-06 0)
(-0.000233641 2.24757e-06 0)
(-0.000233755 2.27099e-06 0)
(-0.00023387 2.29399e-06 0)
(-0.000233988 2.31657e-06 0)
(-0.000234109 2.33872e-06 0)
(-0.000234232 2.36044e-06 0)
(-0.000234357 2.38172e-06 0)
(-0.000234485 2.40257e-06 0)
(-0.000234616 2.42298e-06 0)
(-0.000234749 2.44295e-06 0)
(-0.000234886 2.46248e-06 0)
(-0.000235025 2.48156e-06 0)
(-0.000235167 2.5002e-06 0)
(-0.000235313 2.51839e-06 0)
(-0.000235463 2.53614e-06 0)
(-0.000235615 2.55344e-06 0)
(-0.000235772 2.5703e-06 0)
(-0.000235932 2.58673e-06 0)
(-0.000236096 2.60272e-06 0)
(-0.000236265 2.61827e-06 0)
(-0.000236437 2.6334e-06 0)
(-0.000236614 2.6481e-06 0)
(-0.000236796 2.66238e-06 0)
(-0.000236983 2.67623e-06 0)
(-0.000237175 2.68966e-06 0)
(-0.000237372 2.70267e-06 0)
(-0.000237575 2.71526e-06 0)
(-0.000237783 2.72743e-06 0)
(-0.000237998 2.73918e-06 0)
(-0.000238219 2.75053e-06 0)
(-0.000238447 2.76146e-06 0)
(-0.000238681 2.77198e-06 0)
(-0.000238924 2.7821e-06 0)
(-0.000239174 2.79179e-06 0)
(-0.000239433 2.80104e-06 0)
(-0.000239701 2.80983e-06 0)
(-0.000239978 2.81811e-06 0)
(-0.000240265 2.82581e-06 0)
(-0.000240564 2.83289e-06 0)
(-0.000240874 2.83927e-06 0)
(-0.000241197 2.84493e-06 0)
(-0.000241534 2.84985e-06 0)
(-0.000241885 2.85407e-06 0)
(-0.000242252 2.85766e-06 0)
(-0.000242636 2.86073e-06 0)
(-0.000243042 2.86344e-06 0)
(-0.000243473 2.86593e-06 0)
(-0.00024393 2.86828e-06 0)
(-0.000244412 2.87031e-06 0)
(-0.000244926 2.87154e-06 0)
(-0.000245498 2.87135e-06 0)
(-0.000246156 2.86953e-06 0)
(-0.000246872 2.86595e-06 0)
(-0.000247693 2.86316e-06 0)
(-0.00025689 2.28682e-06 0)
(-0.000259032 5.64921e-06 0)
(-0.000260272 -6.38708e-06 0)
(-9.6097e-05 3.28086e-05 0)
(0.0525884 0.000937814 0)
(0.143437 0.00182537 0)
(0.213887 0.0016389 0)
(0.271571 0.00158571 0)
(0.320401 0.00145802 0)
(0.362483 0.00130487 0)
(0.399189 0.00115912 0)
(0.431551 0.00102575 0)
(0.460376 0.000906381 0)
(0.486301 0.000800968 0)
(0.50983 0.000708442 0)
(0.531364 0.000627342 0)
(0.551223 0.000556177 0)
(0.569665 0.00049359 0)
(0.586895 0.000438405 0)
(0.603083 0.000389619 0)
(0.618364 0.000346388 0)
(0.632852 0.000307999 0)
(0.646641 0.000273851 0)
(0.659807 0.00024343 0)
(0.672418 0.000216299 0)
(0.684528 0.000192078 0)
(0.696185 0.000170439 0)
(0.707431 0.000151098 0)
(0.7183 0.000133805 0)
(0.728822 0.000118339 0)
(0.739026 0.000104509 0)
(0.748934 9.21428e-05 0)
(0.758567 8.10891e-05 0)
(0.767944 7.12133e-05 0)
(0.777081 6.23958e-05 0)
(0.785993 5.45297e-05 0)
(0.794692 4.75198e-05 0)
(0.803191 4.12808e-05 0)
(0.8115 3.57363e-05 0)
(0.819628 3.08179e-05 0)
(0.827585 2.64641e-05 0)
(0.835378 2.26199e-05 0)
(0.843014 1.92355e-05 0)
(0.8505 1.62665e-05 0)
(0.857842 1.36726e-05 0)
(0.865045 1.1418e-05 0)
(0.872113 9.47046e-06 0)
(0.879051 7.80135e-06 0)
(0.885863 6.38502e-06 0)
(0.892553 5.19749e-06 0)
(0.899124 4.21439e-06 0)
(0.905579 3.40852e-06 0)
(0.91192 2.74848e-06 0)
(0.918151 2.20008e-06 0)
(0.924272 1.73128e-06 0)
(0.930286 1.31882e-06 0)
(0.936195 9.50531e-07 0)
(0.942 6.21468e-07 0)
(0.947702 3.29189e-07 0)
(0.95336 6.91167e-08 0)
(0.959028 -1.61693e-07 0)
(0.964703 -3.63471e-07 0)
(0.970382 -5.3665e-07 0)
(0.97606 -6.81843e-07 0)
(0.981734 -7.99804e-07 0)
(0.987399 -8.91346e-07 0)
(0.993049 -9.57202e-07 0)
(0.998679 -9.97863e-07 0)
(1.00428 -1.01347e-06 0)
(1.00985 -1.00393e-06 0)
(1.01537 -9.69431e-07 0)
(1.02083 -9.11362e-07 0)
(1.02623 -8.33246e-07 0)
(1.03155 -7.41093e-07 0)
(1.03678 -6.42628e-07 0)
(1.0419 -5.45629e-07 0)
(1.04689 -4.56189e-07 0)
(1.05172 -3.77803e-07 0)
(1.05639 -3.11503e-07 0)
(1.06087 -2.5663e-07 0)
(1.06513 -2.11694e-07 0)
(1.06914 -1.74996e-07 0)
(1.07289 -1.44958e-07 0)
(1.07634 -1.20248e-07 0)
(1.07948 -9.97888e-08 0)
(1.08228 -8.27519e-08 0)
(1.08474 -6.84834e-08 0)
(1.08685 -5.65003e-08 0)
(1.08861 -4.64195e-08 0)
(1.09004 -3.79402e-08 0)
(1.09115 -3.08038e-08 0)
(1.09196 -2.48327e-08 0)
(1.09251 -1.99988e-08 0)
(1.09281 -1.64929e-08 0)
(1.0929 -1.14265e-08 0)
(1.0928 -6.69895e-09 0)
(1.09252 -4.74276e-09 0)
(1.09209 -3.05911e-09 0)
(1.09152 -1.94475e-09 0)
(1.09082 -1.25904e-09 0)
(1.09001 -8.27791e-10 0)
(1.08909 -5.49575e-10 0)
(1.08807 -3.65483e-10 0)
(1.08697 -2.47842e-10 0)
(1.08578 -1.65602e-10 0)
(1.08451 -1.12806e-10 0)
(1.08318 -7.39926e-11 0)
(1.08178 -4.3349e-11 0)
(1.08033 -2.30259e-11 0)
(1.07882 -2.0697e-12 0)
(1.07728 -8.85398e-14 0)
(1.07569 -2.03743e-12 0)
(1.07408 -2.31365e-12 0)
(1.07244 -2.13026e-12 0)
(1.07079 -2.01283e-12 0)
(1.06914 -1.94011e-12 0)
(1.06749 -1.86454e-12 0)
(1.06586 -1.77706e-12 0)
(1.06425 -1.6635e-12 0)
(1.06269 -1.56452e-12 0)
(1.06117 -1.81099e-12 0)
(1.05973 -3.1682e-12 0)
(1.05837 9.2141e-12 0)
(1.05712 -3.10433e-11 0)
(1.05598 6.02033e-11 0)
(1.055 -1.0824e-10 0)
(1.05418 1.6508e-10 0)
(1.05355 -2.38991e-10 0)
(1.05314 3.17841e-10 0)
(1.05303 -4.0735e-10 0)
(1.05302 4.95895e-10 0)
(1.05302 -5.90797e-10 0)
(1.05302 6.83452e-10 0)
(1.05302 -7.82081e-10 0)
(1.05302 8.78848e-10 0)
(1.05302 -9.81501e-10 0)
(1.05302 1.08272e-09 0)
(1.05302 -1.18967e-09 0)
(1.05302 1.29563e-09 0)
(1.05302 -1.40716e-09 0)
(1.05302 1.51809e-09 0)
(1.05302 -1.63442e-09 0)
(1.05302 1.75053e-09 0)
(1.05302 -1.87184e-09 0)
(1.05302 1.99332e-09 0)
(1.05302 -2.11971e-09 0)
(1.05302 2.24675e-09 0)
(1.05302 -2.37837e-09 0)
(1.05302 2.51104e-09 0)
(1.05302 -2.64798e-09 0)
(1.05302 2.7864e-09 0)
(1.05302 -2.92871e-09 0)
(1.05302 3.07293e-09 0)
(1.05302 -3.22066e-09 0)
(1.05302 3.37066e-09 0)
(1.05302 -3.52395e-09 0)
(1.05302 3.67963e-09 0)
(1.05302 -3.83849e-09 0)
(1.05302 3.99985e-09 0)
(1.05302 -4.16419e-09 0)
(1.05302 4.33109e-09 0)
(1.05302 -4.50089e-09 0)
(1.05302 4.67323e-09 0)
(1.05302 -4.84835e-09 0)
(1.05302 5.02595e-09 0)
(1.05302 -5.20622e-09 0)
(1.05302 5.38885e-09 0)
(1.05302 -5.57401e-09 0)
(1.05302 5.05907e-09 0)
(1.05302 -5.13188e-09 0)
(1.05302 5.2037e-09 0)
(1.05302 -5.27484e-09 0)
(1.05302 5.34497e-09 0)
(1.05302 -5.41442e-09 0)
(1.05302 5.48283e-09 0)
(1.05302 -5.55058e-09 0)
(1.05302 5.61724e-09 0)
(1.05302 -5.68327e-09 0)
(1.05302 5.74814e-09 0)
(1.05302 -5.81244e-09 0)
(1.05302 5.87548e-09 0)
(1.05302 -5.93801e-09 0)
(1.05302 5.99919e-09 0)
(1.05302 -6.05994e-09 0)
(1.05302 6.11917e-09 0)
(1.05302 -6.17818e-09 0)
(1.05302 6.23524e-09 0)
(1.05302 -6.29276e-09 0)
(1.05302 6.34732e-09 0)
(1.05302 -6.40354e-09 0)
(1.05302 6.45541e-09 0)
(1.05302 -6.51031e-09 0)
(1.05302 6.55945e-09 0)
(1.05302 -6.61286e-09 0)
(1.05302 6.65929e-09 0)
(1.05302 -6.71113e-09 0)
(1.05302 6.75473e-09 0)
(1.05302 -6.80482e-09 0)
(1.05302 6.84571e-09 0)
(1.05302 -6.89371e-09 0)
(1.05302 6.93199e-09 0)
(1.05302 -6.97748e-09 0)
(1.05302 7.01322e-09 0)
(1.05302 -7.05619e-09 0)
(1.05302 7.08893e-09 0)
(1.05302 -7.12917e-09 0)
(1.05302 7.15916e-09 0)
(1.05302 -7.1959e-09 0)
(1.05302 7.22333e-09 0)
(1.05302 -7.25567e-09 0)
(1.05302 7.28082e-09 0)
(1.05302 -7.30785e-09 0)
(1.05302 7.33046e-09 0)
(1.05302 -7.35132e-09 0)
(1.05302 7.37076e-09 0)
(1.05302 -7.38384e-09 0)
(1.05302 7.39782e-09 0)
(1.05302 -7.40213e-09 0)
)
;

boundaryField
{
    inandouthalf11
    {
        type            cyclic;
    }
    inandouthalf12
    {
        type            cyclic;
    }
    inandouthalf21
    {
        type            cyclic;
    }
    inandouthalf22
    {
        type            cyclic;
    }
    inandouthalf31
    {
        type            cyclic;
    }
    inandouthalf32
    {
        type            cyclic;
    }
    inandouthalf41
    {
        type            cyclic;
    }
    inandouthalf42
    {
        type            cyclic;
    }
    top
    {
        type            symmetryPlane;
    }
    walls
    {
        type            fixedValue;
        value           uniform (0 0 0);
    }
    frontAndBackPlanes
    {
        type            empty;
    }
}


// ************************************************************************* //
