/*--------------------------------*- C++ -*----------------------------------*\
| =========                 |                                                 |
| \\      /  F ield         | OpenFOAM: The Open Source CFD Toolbox           |
|  \\    /   O peration     | Version:  2.4.x                                 |
|   \\  /    A nd           | Web:      www.OpenFOAM.org                      |
|    \\/     M anipulation  |                                                 |
\*---------------------------------------------------------------------------*/
FoamFile
{
    version     2.0;
    format      ascii;
    class       volScalarField;
    location    "8.95";
    object      alpha_0;
}
// * * * * * * * * * * * * * * * * * * * * * * * * * * * * * * * * * * * * * //

dimensions      [0 0 0 0 0 0 0];

internalField   nonuniform List<scalar> 
360
(
0.610866
0.611721
0.611814
0.611725
0.611683
0.611669
0.611652
0.61163
0.611607
0.611584
0.611561
0.611538
0.611514
0.611491
0.611467
0.611442
0.611418
0.611393
0.611368
0.611343
0.611318
0.611292
0.611266
0.61124
0.611213
0.611186
0.611159
0.611132
0.611104
0.611077
0.611048
0.61102
0.610991
0.610962
0.610933
0.610903
0.610874
0.610843
0.610813
0.610782
0.610751
0.610719
0.610688
0.610656
0.610623
0.61059
0.610557
0.610524
0.61049
0.610455
0.610421
0.610386
0.61035
0.610314
0.610278
0.610241
0.610204
0.610167
0.610129
0.61009
0.610051
0.610012
0.609971
0.609931
0.60989
0.609848
0.609806
0.609763
0.60972
0.609676
0.609631
0.609586
0.60954
0.609494
0.609447
0.609399
0.60935
0.609301
0.609251
0.6092
0.609148
0.609096
0.609042
0.608988
0.608933
0.608877
0.608819
0.608761
0.608702
0.608642
0.608581
0.608519
0.608455
0.608391
0.608325
0.608258
0.608189
0.608119
0.608048
0.607975
0.6079
0.607825
0.607747
0.607667
0.607586
0.607503
0.607418
0.607331
0.607242
0.607151
0.607057
0.606961
0.606863
0.606762
0.606658
0.606551
0.606442
0.606329
0.606213
0.606093
0.60597
0.605843
0.605713
0.605577
0.605438
0.605293
0.605143
0.604988
0.604826
0.604658
0.604482
0.6043
0.604109
0.603908
0.603694
0.603468
0.603231
0.602979
0.602699
0.602378
0.60203
0.601694
0.601195
0.495999
0.359117
0.305192
0.275874
0.254419
0.236446
0.220396
0.205592
0.191694
0.177717
0.164282
0.151484
0.139337
0.127844
0.117005
0.106819
0.0972824
0.0883881
0.0801234
0.0724711
0.0654096
0.058913
0.0529536
0.0475007
0.0425229
0.0379882
0.0338655
0.030124
0.0267345
0.0236693
0.020902
0.0184083
0.0161653
0.014152
0.0123489
0.010738
0.00930265
0.0080275
0.00689836
0.0059021
0.00502648
0.00426016
0.00359254
0.00301376
0.00251461
0.00208639
0.00172075
0.00140966
0.00114586
0.000923398
0.000737917
0.000586119
0.000464786
0.000370047
0.000297376
0.000242099
0.000200015
0.000167668
0.00014223
0.000121786
0.000105139
9.14092e-05
7.99469e-05
7.02698e-05
6.20149e-05
5.49063e-05
4.87315e-05
4.33246e-05
3.85564e-05
3.43227e-05
3.05394e-05
2.71407e-05
2.40743e-05
2.12975e-05
1.87759e-05
1.6485e-05
1.44063e-05
1.25236e-05
1.08251e-05
9.30317e-06
7.94759e-06
6.74961e-06
5.69709e-06
4.78232e-06
3.98894e-06
3.31145e-06
2.72874e-06
2.24109e-06
1.8272e-06
1.47886e-06
1.19196e-06
9.72526e-07
7.21617e-07
6.67019e-07
5.14027e-07
3.74256e-07
2.72749e-07
1.95448e-07
1.37631e-07
9.49031e-08
6.32167e-08
4.10416e-08
2.36835e-08
1.35924e-08
4.19994e-09
2.18138e-36
3.50335e-36
1.65655e-48
1.17786e-48
4.53872e-49
2.40628e-49
1.14047e-49
6.62256e-50
4.0589e-50
2.2602e-50
1.05054e-50
5.33838e-51
2.81511e-51
1.48559e-51
7.36493e-52
3.67861e-52
1.81783e-52
8.83782e-53
4.22502e-53
1.98497e-53
9.15829e-54
4.14815e-54
1.84351e-54
8.03368e-55
3.4306e-55
1.43452e-55
5.86954e-56
2.34812e-56
9.17691e-57
3.50064e-57
1.30216e-57
4.71865e-58
1.66395e-58
5.70344e-59
1.89791e-59
6.12327e-60
1.91269e-60
5.77556e-61
1.68309e-61
4.72493e-62
1.27526e-62
3.30201e-63
8.18256e-64
1.93546e-64
4.35691e-65
9.30336e-66
1.87736e-66
3.56501e-67
6.33973e-68
1.04986e-68
1.60834e-69
2.26156e-70
2.8914e-71
3.3221e-72
3.38006e-73
2.98749e-74
2.23482e-75
1.36292e-76
6.39167e-78
2.07652e-79
3.66544e-81
7.3977e-84
2.66128e-89
1.99621e-91
7.41901e-94
2.70835e-104
4.97476e-115
6.75214e-126
6.58499e-137
5.58452e-148
3.57463e-159
1.97975e-170
9.1573e-181
4.11457e-191
2.86502e-199
1.20573e-209
9.85411e-218
4.90278e-228
3.39132e-236
2.07759e-246
1.16834e-254
1.34235e-264
4.10915e-273
8.94211e-283
1.48945e-291
4.4354e-301
5.53818e-310
9.38725e-323
2.51973e-321
8.86848e-321
4.57737e-319
2.8055e-319
6.80328e-321
7.09478e-321
6.08689e-321
8.5424e-321
0
0
0
0
0
0
0
0
0
0
0
0
0
0
0
0
)
;

boundaryField
{
    inandouthalf11
    {
        type            cyclic;
    }
    inandouthalf12
    {
        type            cyclic;
    }
    inandouthalf21
    {
        type            cyclic;
    }
    inandouthalf22
    {
        type            cyclic;
    }
    inandouthalf31
    {
        type            cyclic;
    }
    inandouthalf32
    {
        type            cyclic;
    }
    inandouthalf41
    {
        type            cyclic;
    }
    inandouthalf42
    {
        type            cyclic;
    }
    top
    {
        type            symmetryPlane;
    }
    walls
    {
        type            zeroGradient;
    }
    frontAndBackPlanes
    {
        type            empty;
    }
}


// ************************************************************************* //
