/*--------------------------------*- C++ -*----------------------------------*\
| =========                 |                                                 |
| \\      /  F ield         | OpenFOAM: The Open Source CFD Toolbox           |
|  \\    /   O peration     | Version:  2.4.x                                 |
|   \\  /    A nd           | Web:      www.OpenFOAM.org                      |
|    \\/     M anipulation  |                                                 |
\*---------------------------------------------------------------------------*/
FoamFile
{
    version     2.0;
    format      ascii;
    class       volScalarField;
    location    "8.95";
    object      alpha;
}
// * * * * * * * * * * * * * * * * * * * * * * * * * * * * * * * * * * * * * //

dimensions      [0 0 0 0 0 0 0];

internalField   nonuniform List<scalar> 
360
(
0.610866
0.611721
0.611814
0.611725
0.611683
0.611669
0.611652
0.61163
0.611607
0.611584
0.611561
0.611538
0.611514
0.611491
0.611467
0.611442
0.611418
0.611393
0.611368
0.611343
0.611318
0.611292
0.611266
0.61124
0.611213
0.611186
0.611159
0.611132
0.611104
0.611077
0.611048
0.61102
0.610991
0.610962
0.610933
0.610903
0.610874
0.610843
0.610813
0.610782
0.610751
0.610719
0.610688
0.610656
0.610623
0.61059
0.610557
0.610524
0.61049
0.610455
0.610421
0.610386
0.61035
0.610314
0.610278
0.610241
0.610204
0.610167
0.610129
0.61009
0.610051
0.610012
0.609971
0.609931
0.60989
0.609848
0.609806
0.609763
0.60972
0.609676
0.609631
0.609586
0.60954
0.609494
0.609447
0.609399
0.60935
0.609301
0.609251
0.6092
0.609148
0.609096
0.609042
0.608988
0.608933
0.608877
0.608819
0.608761
0.608702
0.608642
0.608581
0.608519
0.608455
0.608391
0.608325
0.608258
0.608189
0.608119
0.608048
0.607975
0.6079
0.607825
0.607747
0.607667
0.607586
0.607503
0.607418
0.607331
0.607242
0.607151
0.607057
0.606961
0.606863
0.606762
0.606658
0.606551
0.606442
0.606329
0.606213
0.606093
0.60597
0.605843
0.605713
0.605577
0.605438
0.605293
0.605143
0.604988
0.604826
0.604658
0.604482
0.6043
0.604109
0.603908
0.603694
0.603468
0.603231
0.602979
0.602699
0.602378
0.60203
0.601694
0.601194
0.495894
0.359067
0.305168
0.275862
0.254411
0.236442
0.220395
0.205593
0.191697
0.177721
0.164287
0.151489
0.139343
0.12785
0.117011
0.106825
0.0972892
0.0883949
0.0801302
0.0724778
0.0654163
0.0589196
0.0529601
0.0475071
0.0425291
0.0379944
0.0338715
0.0301299
0.0267403
0.0236749
0.0209074
0.0184135
0.0161704
0.0141569
0.0123536
0.0107424
0.00930682
0.00803143
0.00690204
0.00590552
0.00502965
0.00426307
0.0035952
0.00301617
0.00251677
0.00208833
0.00172247
0.00141118
0.00114719
0.000924554
0.000738901
0.000586933
0.000465439
0.000370556
0.000297764
0.000242394
0.000200238
0.000167838
0.000142362
0.000121889
0.00010522
9.14741e-05
7.99992e-05
7.03125e-05
6.20501e-05
5.49356e-05
4.8756e-05
4.33453e-05
3.8574e-05
3.43378e-05
3.05524e-05
2.7152e-05
2.40842e-05
2.13062e-05
1.87836e-05
1.64917e-05
1.44123e-05
1.25288e-05
1.08297e-05
9.30718e-06
7.95106e-06
6.75261e-06
5.69965e-06
4.78449e-06
3.99077e-06
3.31298e-06
2.73002e-06
2.24214e-06
1.82807e-06
1.47957e-06
1.19252e-06
9.73027e-07
7.21954e-07
6.6737e-07
5.14311e-07
3.74457e-07
2.72898e-07
1.95555e-07
1.37707e-07
9.49569e-08
6.32555e-08
4.10653e-08
2.3704e-08
1.35999e-08
4.21584e-09
2.19753e-36
3.48499e-36
1.65218e-48
1.1736e-48
4.52119e-49
2.39614e-49
1.1367e-49
6.60335e-50
4.04773e-50
2.25215e-50
1.04672e-50
5.32036e-51
2.806e-51
1.48071e-51
7.34006e-52
3.66628e-52
1.81174e-52
8.80815e-53
4.21083e-53
1.9783e-53
9.12746e-54
4.13418e-54
1.8373e-54
8.00656e-55
3.41901e-55
1.42967e-55
5.84967e-56
2.34017e-56
9.14578e-57
3.48875e-57
1.29774e-57
4.7026e-58
1.65828e-58
5.68399e-59
1.89143e-59
6.10234e-60
1.90615e-60
5.75578e-61
1.67731e-61
4.7087e-62
1.27088e-62
3.29064e-63
8.15436e-64
1.92878e-64
4.34186e-65
9.27117e-66
1.87085e-66
3.55264e-67
6.31769e-68
1.04621e-68
1.60274e-69
2.25366e-70
2.88129e-71
3.31046e-72
3.3682e-73
2.97699e-74
2.22695e-75
1.35811e-76
6.36906e-78
2.06915e-79
3.65239e-81
7.37096e-84
2.65094e-89
1.98842e-91
7.38987e-94
2.69778e-104
4.95549e-115
6.7262e-126
6.55998e-137
5.56353e-148
3.56143e-159
1.97255e-170
9.12167e-181
4.09859e-191
2.85377e-199
1.20106e-209
9.8154e-218
4.88379e-228
3.378e-236
2.06954e-246
1.16375e-254
1.33714e-264
4.09302e-273
8.90738e-283
1.48361e-291
4.41817e-301
5.51649e-310
9.88131e-323
2.51973e-321
8.86848e-321
4.57737e-319
2.8055e-319
6.80328e-321
7.09478e-321
6.08689e-321
8.5424e-321
0
0
0
0
0
0
0
0
0
0
0
0
0
0
0
0
)
;

boundaryField
{
    inandouthalf11
    {
        type            cyclic;
    }
    inandouthalf12
    {
        type            cyclic;
    }
    inandouthalf21
    {
        type            cyclic;
    }
    inandouthalf22
    {
        type            cyclic;
    }
    inandouthalf31
    {
        type            cyclic;
    }
    inandouthalf32
    {
        type            cyclic;
    }
    inandouthalf41
    {
        type            cyclic;
    }
    inandouthalf42
    {
        type            cyclic;
    }
    top
    {
        type            symmetryPlane;
    }
    walls
    {
        type            zeroGradient;
    }
    frontAndBackPlanes
    {
        type            empty;
    }
}


// ************************************************************************* //
