/*--------------------------------*- C++ -*----------------------------------*\
| =========                 |                                                 |
| \\      /  F ield         | OpenFOAM: The Open Source CFD Toolbox           |
|  \\    /   O peration     | Version:  2.4.x                                 |
|   \\  /    A nd           | Web:      www.OpenFOAM.org                      |
|    \\/     M anipulation  |                                                 |
\*---------------------------------------------------------------------------*/
FoamFile
{
    version     2.0;
    format      ascii;
    class       surfaceScalarField;
    location    "8.95";
    object      ddt0(phia);
}
// * * * * * * * * * * * * * * * * * * * * * * * * * * * * * * * * * * * * * //

dimensions      [0 3 -2 0 0 0 0];

internalField   nonuniform List<scalar> 
359
(
8.16052e-14
2.06715e-13
3.28056e-13
4.50105e-13
5.79237e-13
7.13905e-13
8.51342e-13
9.9025e-13
1.13012e-12
1.27069e-12
1.41165e-12
1.55258e-12
1.69308e-12
1.83277e-12
1.97132e-12
2.10842e-12
2.24378e-12
2.37707e-12
2.50798e-12
2.63623e-12
2.7615e-12
2.88353e-12
3.00204e-12
3.1168e-12
3.22757e-12
3.33415e-12
3.43635e-12
3.53406e-12
3.62714e-12
3.71552e-12
3.79916e-12
3.87808e-12
3.95228e-12
4.02189e-12
4.087e-12
4.14778e-12
4.20442e-12
4.25715e-12
4.30624e-12
4.35195e-12
4.39461e-12
4.43453e-12
4.47203e-12
4.50747e-12
4.54118e-12
4.57351e-12
4.60478e-12
4.6353e-12
4.66538e-12
4.69535e-12
4.72543e-12
4.7559e-12
4.78697e-12
4.81886e-12
4.85172e-12
4.88574e-12
4.921e-12
4.95764e-12
4.99572e-12
5.0353e-12
5.07646e-12
5.1192e-12
5.16356e-12
5.20952e-12
5.25705e-12
5.30611e-12
5.35667e-12
5.40866e-12
5.462e-12
5.51662e-12
5.57249e-12
5.62953e-12
5.68763e-12
5.74676e-12
5.80681e-12
5.86772e-12
5.92936e-12
5.99165e-12
6.05449e-12
6.1178e-12
6.18148e-12
6.24549e-12
6.30975e-12
6.37421e-12
6.4388e-12
6.50347e-12
6.56815e-12
6.63275e-12
6.69721e-12
6.76145e-12
6.82542e-12
6.88906e-12
6.95234e-12
7.01523e-12
7.07769e-12
7.13968e-12
7.20118e-12
7.26215e-12
7.32255e-12
7.38236e-12
7.44155e-12
7.50009e-12
7.55799e-12
7.61522e-12
7.67178e-12
7.72766e-12
7.78286e-12
7.83738e-12
7.89124e-12
7.94445e-12
7.99708e-12
8.04926e-12
8.10116e-12
8.15309e-12
8.20548e-12
8.25889e-12
8.31401e-12
8.37159e-12
8.43235e-12
8.49681e-12
8.56511e-12
8.63674e-12
8.71042e-12
8.78399e-12
8.85444e-12
8.91807e-12
8.97068e-12
9.00772e-12
9.02458e-12
9.01734e-12
8.98486e-12
8.93272e-12
8.87797e-12
8.849e-12
8.87288e-12
8.95026e-12
9.04457e-12
9.11165e-12
9.14064e-12
9.15217e-12
9.19462e-12
1.04002e-11
9.16528e-11
-1.11314e-08
-2.25187e-08
-2.86476e-08
-3.2045e-08
-3.42522e-08
-3.58493e-08
-3.70959e-08
-3.81482e-08
-3.91226e-08
-4.01148e-08
-4.11398e-08
-4.22318e-08
-4.34164e-08
-4.4708e-08
-4.6111e-08
-4.76205e-08
-4.92242e-08
-5.09041e-08
-5.26422e-08
-5.44133e-08
-5.61976e-08
-5.79661e-08
-5.97013e-08
-6.1383e-08
-6.2995e-08
-6.45217e-08
-6.59532e-08
-6.72823e-08
-6.85046e-08
-6.96189e-08
-7.06262e-08
-7.15283e-08
-7.23274e-08
-7.30233e-08
-7.36117e-08
-7.40806e-08
-7.44082e-08
-7.45597e-08
-7.44859e-08
-7.4121e-08
-7.3383e-08
-7.21765e-08
-7.03998e-08
-6.79524e-08
-6.4714e-08
-6.04651e-08
-5.47971e-08
-4.71681e-08
-3.72254e-08
-2.52389e-08
-1.22651e-08
1.88345e-10
1.07804e-08
1.87871e-08
2.41529e-08
2.72551e-08
2.86382e-08
2.88157e-08
2.81926e-08
2.70528e-08
2.56036e-08
2.39883e-08
2.2302e-08
2.06066e-08
1.89412e-08
1.733e-08
1.57877e-08
1.43228e-08
1.29404e-08
1.16451e-08
1.04409e-08
9.32983e-09
8.31385e-09
7.39586e-09
6.57752e-09
5.85612e-09
5.22866e-09
4.69235e-09
4.23873e-09
3.85811e-09
3.54141e-09
3.28087e-09
3.06596e-09
2.89021e-09
2.74483e-09
2.62397e-09
2.52954e-09
2.42399e-09
2.34357e-09
2.31224e-09
1.98312e-09
2.21393e-09
1.34444e-09
-1.60157e-08
-5.17958e-09
-2.38717e-10
5.43633e-09
1.62666e-08
3.75966e-08
7.32668e-08
1.44982e-07
2.56105e-07
3.29143e-07
6.31027e-07
1.28105e-06
4.47119e-07
1.64007e-09
-1.81963e-10
-5.58427e-11
-8.02102e-11
-9.54869e-11
-1.13453e-10
-1.33234e-10
-1.5476e-10
-1.77755e-10
-2.01751e-10
-2.26031e-10
-2.49814e-10
-2.74828e-10
-2.88013e-10
-2.99487e-10
-3.12466e-10
-3.98321e-10
-3.12631e-10
-1.72535e-10
-1.67707e-10
-1.68441e-10
-1.68458e-10
-1.6846e-10
-1.68461e-10
-1.6846e-10
-1.68461e-10
-1.6846e-10
-1.6846e-10
-1.6846e-10
-1.68461e-10
-1.6846e-10
-1.68461e-10
-1.6846e-10
-1.68461e-10
-1.6846e-10
-1.68461e-10
-1.6846e-10
-1.68461e-10
-1.6846e-10
-1.68461e-10
-1.6846e-10
-1.68461e-10
-1.6846e-10
-1.68461e-10
-1.6846e-10
-1.68461e-10
-1.6846e-10
-1.6846e-10
-1.6846e-10
-1.6846e-10
-1.6846e-10
-1.6846e-10
-1.6846e-10
-1.6846e-10
-1.68459e-10
-1.6846e-10
-1.68459e-10
-1.6846e-10
-1.68459e-10
-1.68459e-10
-1.68459e-10
-1.68459e-10
-1.68459e-10
-1.68459e-10
-1.68458e-10
-1.68458e-10
-1.68458e-10
-1.68458e-10
-1.68458e-10
-1.68458e-10
-1.68457e-10
-1.68457e-10
-1.68456e-10
-1.68456e-10
-1.68456e-10
-1.68455e-10
-1.68455e-10
-1.68454e-10
-1.68451e-10
-1.68448e-10
-1.68443e-10
-1.68438e-10
-1.68433e-10
-1.68427e-10
-1.68423e-10
-1.68418e-10
-1.68415e-10
-1.68409e-10
-1.68405e-10
-1.68401e-10
-1.68399e-10
-1.68395e-10
-1.68394e-10
-1.68393e-10
-1.68394e-10
-1.68389e-10
-1.68387e-10
-1.68385e-10
-1.68387e-10
-1.68386e-10
-1.68391e-10
-1.68396e-10
-1.68404e-10
-1.68411e-10
-1.6842e-10
-1.68429e-10
-1.68443e-10
-1.68564e-10
-1.70764e-10
-2.67684e-10
)
;

boundaryField
{
    inandouthalf11
    {
        type            cyclic;
        value           nonuniform List<scalar> 
100
(
7.92471e-39
1.43737e-14
3.04863e-14
4.54441e-14
6.10242e-14
7.75163e-14
9.44621e-14
1.11602e-13
1.28873e-13
1.46252e-13
1.63712e-13
1.81216e-13
1.98721e-13
2.16184e-13
2.33564e-13
2.50823e-13
2.67927e-13
2.84838e-13
3.01518e-13
3.17929e-13
3.34034e-13
3.49796e-13
3.65181e-13
3.80157e-13
3.94691e-13
4.08754e-13
4.2232e-13
4.35365e-13
4.47871e-13
4.59821e-13
4.71202e-13
4.82007e-13
4.92232e-13
5.01879e-13
5.10953e-13
5.19463e-13
5.27425e-13
5.34856e-13
5.4178e-13
5.48221e-13
5.54209e-13
5.59775e-13
5.64952e-13
5.69775e-13
5.74281e-13
5.78505e-13
5.82484e-13
5.86253e-13
5.89848e-13
5.93303e-13
5.96651e-13
5.99921e-13
6.03144e-13
6.06344e-13
6.09545e-13
6.1277e-13
6.16036e-13
6.19361e-13
6.22756e-13
6.26235e-13
6.29808e-13
6.33483e-13
6.37266e-13
6.41162e-13
6.45172e-13
6.49297e-13
6.53536e-13
6.57887e-13
6.62345e-13
6.66907e-13
6.71569e-13
6.76327e-13
6.81177e-13
6.86111e-13
6.91125e-13
6.96213e-13
7.01367e-13
7.06578e-13
7.11839e-13
7.17142e-13
7.22481e-13
7.27849e-13
7.33241e-13
7.38654e-13
7.44083e-13
7.49522e-13
7.54967e-13
7.60411e-13
7.65849e-13
7.71274e-13
7.76682e-13
7.82068e-13
7.87429e-13
7.92763e-13
7.98068e-13
8.03341e-13
8.08581e-13
8.13785e-13
8.18952e-13
8.24079e-13
)
;
    }
    inandouthalf12
    {
        type            cyclic;
        value           nonuniform List<scalar> 
100
(
-7.92471e-39
-1.43737e-14
-3.04863e-14
-4.54441e-14
-6.10242e-14
-7.75163e-14
-9.44621e-14
-1.11602e-13
-1.28873e-13
-1.46252e-13
-1.63712e-13
-1.81216e-13
-1.98721e-13
-2.16184e-13
-2.33564e-13
-2.50823e-13
-2.67927e-13
-2.84838e-13
-3.01518e-13
-3.17929e-13
-3.34034e-13
-3.49796e-13
-3.65181e-13
-3.80157e-13
-3.94691e-13
-4.08754e-13
-4.2232e-13
-4.35365e-13
-4.47871e-13
-4.59821e-13
-4.71202e-13
-4.82007e-13
-4.92232e-13
-5.01879e-13
-5.10953e-13
-5.19463e-13
-5.27425e-13
-5.34856e-13
-5.4178e-13
-5.48221e-13
-5.54209e-13
-5.59775e-13
-5.64952e-13
-5.69775e-13
-5.74281e-13
-5.78505e-13
-5.82484e-13
-5.86253e-13
-5.89848e-13
-5.93303e-13
-5.96651e-13
-5.99921e-13
-6.03144e-13
-6.06344e-13
-6.09545e-13
-6.1277e-13
-6.16036e-13
-6.19361e-13
-6.22756e-13
-6.26235e-13
-6.29808e-13
-6.33483e-13
-6.37266e-13
-6.41162e-13
-6.45172e-13
-6.49297e-13
-6.53536e-13
-6.57887e-13
-6.62345e-13
-6.66907e-13
-6.71569e-13
-6.76327e-13
-6.81177e-13
-6.86111e-13
-6.91125e-13
-6.96213e-13
-7.01367e-13
-7.06578e-13
-7.11839e-13
-7.17142e-13
-7.22481e-13
-7.27849e-13
-7.33241e-13
-7.38654e-13
-7.44083e-13
-7.49522e-13
-7.54967e-13
-7.60411e-13
-7.65849e-13
-7.71274e-13
-7.76682e-13
-7.82068e-13
-7.87429e-13
-7.92763e-13
-7.98068e-13
-8.03341e-13
-8.08581e-13
-8.13785e-13
-8.18952e-13
-8.24079e-13
)
;
    }
    inandouthalf21
    {
        type            cyclic;
        value           nonuniform List<scalar> 
100
(
8.29165e-13
8.34209e-13
8.39211e-13
8.44171e-13
8.4909e-13
8.53966e-13
8.58802e-13
8.63595e-13
8.68346e-13
8.73055e-13
8.77726e-13
8.82371e-13
8.8701e-13
8.9168e-13
8.96439e-13
9.01373e-13
9.06598e-13
9.12261e-13
9.18523e-13
9.25544e-13
9.33446e-13
9.42265e-13
9.519e-13
9.62065e-13
9.72258e-13
9.81749e-13
9.89572e-13
9.94531e-13
9.95189e-13
9.89929e-13
9.77243e-13
9.56608e-13
9.30198e-13
9.04924e-13
8.92303e-13
9.02176e-13
9.31604e-13
9.63038e-13
9.81203e-13
9.86836e-13
9.87589e-13
9.76812e-13
-7.01939e-13
-1.60099e-11
-1.21369e-07
-1.09508e-07
-8.31006e-08
-6.03819e-08
-4.2106e-08
-2.71477e-08
-1.44587e-08
-3.23312e-09
6.96853e-09
1.64929e-08
2.55862e-08
3.43936e-08
4.29891e-08
5.13987e-08
5.96172e-08
6.76196e-08
7.53703e-08
8.28285e-08
8.99519e-08
9.66996e-08
1.0303e-07
1.08907e-07
1.14295e-07
1.1916e-07
1.23465e-07
1.27176e-07
1.30255e-07
1.3266e-07
1.34345e-07
1.35259e-07
1.35342e-07
1.3453e-07
1.32753e-07
1.29934e-07
1.25995e-07
1.20858e-07
1.14452e-07
1.06714e-07
9.76011e-08
8.70977e-08
7.52222e-08
6.20376e-08
4.76585e-08
3.22557e-08
1.60578e-08
-6.50594e-10
-1.75328e-08
-3.42091e-08
-5.02816e-08
-6.53805e-08
-7.92247e-08
-9.16683e-08
-1.02707e-07
-1.12445e-07
-1.21043e-07
-1.28669e-07
)
;
    }
    inandouthalf22
    {
        type            cyclic;
        value           nonuniform List<scalar> 
100
(
-8.29165e-13
-8.34209e-13
-8.39211e-13
-8.44171e-13
-8.4909e-13
-8.53966e-13
-8.58802e-13
-8.63595e-13
-8.68346e-13
-8.73055e-13
-8.77726e-13
-8.82371e-13
-8.8701e-13
-8.9168e-13
-8.96439e-13
-9.01373e-13
-9.06598e-13
-9.12261e-13
-9.18523e-13
-9.25544e-13
-9.33446e-13
-9.42265e-13
-9.519e-13
-9.62065e-13
-9.72258e-13
-9.81749e-13
-9.89572e-13
-9.94531e-13
-9.95189e-13
-9.89929e-13
-9.77243e-13
-9.56608e-13
-9.30198e-13
-9.04924e-13
-8.92303e-13
-9.02176e-13
-9.31604e-13
-9.63038e-13
-9.81203e-13
-9.86836e-13
-9.87589e-13
-9.76812e-13
7.01939e-13
1.60099e-11
1.21369e-07
1.09508e-07
8.31006e-08
6.03819e-08
4.2106e-08
2.71477e-08
1.44587e-08
3.23312e-09
-6.96853e-09
-1.64929e-08
-2.55862e-08
-3.43936e-08
-4.29891e-08
-5.13987e-08
-5.96172e-08
-6.76196e-08
-7.53703e-08
-8.28285e-08
-8.99519e-08
-9.66996e-08
-1.0303e-07
-1.08907e-07
-1.14295e-07
-1.1916e-07
-1.23465e-07
-1.27176e-07
-1.30255e-07
-1.3266e-07
-1.34345e-07
-1.35259e-07
-1.35342e-07
-1.3453e-07
-1.32753e-07
-1.29934e-07
-1.25995e-07
-1.20858e-07
-1.14452e-07
-1.06714e-07
-9.76011e-08
-8.70977e-08
-7.52222e-08
-6.20376e-08
-4.76585e-08
-3.22557e-08
-1.60578e-08
6.50594e-10
1.75328e-08
3.42091e-08
5.02816e-08
6.53805e-08
7.92247e-08
9.16683e-08
1.02707e-07
1.12445e-07
1.21043e-07
1.28669e-07
)
;
    }
    inandouthalf31
    {
        type            cyclic;
        value           nonuniform List<scalar> 
110
(
-1.35479e-07
-1.44534e-07
-1.53391e-07
-1.62093e-07
-1.70675e-07
-1.79165e-07
-1.87586e-07
-1.95957e-07
-2.04294e-07
-2.1261e-07
-2.20915e-07
-2.2922e-07
-2.37531e-07
-2.45854e-07
-2.54193e-07
-2.62555e-07
-2.70941e-07
-2.79356e-07
-2.87804e-07
-2.9629e-07
-3.04817e-07
-3.13393e-07
-3.22024e-07
-3.30717e-07
-3.39479e-07
-3.48317e-07
-3.57238e-07
-3.66246e-07
-3.75344e-07
-3.84531e-07
-3.93804e-07
-4.03153e-07
-4.12561e-07
-4.22002e-07
-4.31428e-07
-4.40796e-07
-4.50275e-07
-5.38233e-07
-5.55705e-07
-5.731e-07
-5.86339e-07
-6.01246e-07
-6.15817e-07
-6.36393e-07
-6.43449e-07
-6.70397e-07
-6.79826e-07
-7.3165e-07
-6.96241e-07
-7.16913e-07
-7.31653e-07
-7.47464e-07
-7.63117e-07
-7.78687e-07
-7.9409e-07
-8.0925e-07
-8.24081e-07
-8.38487e-07
-8.52369e-07
-8.65634e-07
-8.78207e-07
-8.9007e-07
-9.01464e-07
-9.11192e-07
-9.23139e-07
-9.34072e-07
-9.50848e-07
-9.71303e-07
-9.91219e-07
-1.01134e-06
-1.03187e-06
-1.05281e-06
-1.07418e-06
-1.09599e-06
-1.11823e-06
-1.14093e-06
-1.16409e-06
-1.18771e-06
-1.21182e-06
-1.23642e-06
-1.26151e-06
-1.28712e-06
-1.31325e-06
-1.3399e-06
-1.3671e-06
-1.39485e-06
-1.42316e-06
-1.45204e-06
-1.48152e-06
-1.51159e-06
-1.54227e-06
-1.57357e-06
-1.60551e-06
-1.6381e-06
-1.67135e-06
-1.70527e-06
-1.73988e-06
-1.7752e-06
-1.81123e-06
-1.84799e-06
-1.8855e-06
-1.92377e-06
-1.96282e-06
-2.00266e-06
-2.04331e-06
-2.08478e-06
-2.1271e-06
-2.17027e-06
-2.21432e-06
-2.25927e-06
)
;
    }
    inandouthalf32
    {
        type            cyclic;
        value           nonuniform List<scalar> 
110
(
1.35479e-07
1.44534e-07
1.53391e-07
1.62093e-07
1.70675e-07
1.79165e-07
1.87586e-07
1.95957e-07
2.04294e-07
2.1261e-07
2.20915e-07
2.2922e-07
2.37531e-07
2.45854e-07
2.54193e-07
2.62555e-07
2.70941e-07
2.79356e-07
2.87804e-07
2.9629e-07
3.04817e-07
3.13393e-07
3.22024e-07
3.30717e-07
3.39479e-07
3.48317e-07
3.57238e-07
3.66246e-07
3.75344e-07
3.84531e-07
3.93804e-07
4.03153e-07
4.12561e-07
4.22002e-07
4.31428e-07
4.40796e-07
4.50275e-07
5.38233e-07
5.55705e-07
5.731e-07
5.86339e-07
6.01246e-07
6.15817e-07
6.36393e-07
6.43449e-07
6.70397e-07
6.79826e-07
7.3165e-07
6.96241e-07
7.16913e-07
7.31653e-07
7.47464e-07
7.63117e-07
7.78687e-07
7.9409e-07
8.0925e-07
8.24081e-07
8.38487e-07
8.52369e-07
8.65634e-07
8.78207e-07
8.9007e-07
9.01464e-07
9.11192e-07
9.23139e-07
9.34072e-07
9.50848e-07
9.71303e-07
9.91219e-07
1.01134e-06
1.03187e-06
1.05281e-06
1.07418e-06
1.09599e-06
1.11823e-06
1.14093e-06
1.16409e-06
1.18771e-06
1.21182e-06
1.23642e-06
1.26151e-06
1.28712e-06
1.31325e-06
1.3399e-06
1.3671e-06
1.39485e-06
1.42316e-06
1.45204e-06
1.48152e-06
1.51159e-06
1.54227e-06
1.57357e-06
1.60551e-06
1.6381e-06
1.67135e-06
1.70527e-06
1.73988e-06
1.7752e-06
1.81123e-06
1.84799e-06
1.8855e-06
1.92377e-06
1.96282e-06
2.00266e-06
2.04331e-06
2.08478e-06
2.1271e-06
2.17027e-06
2.21432e-06
2.25927e-06
)
;
    }
    inandouthalf41
    {
        type            cyclic;
        value           nonuniform List<scalar> 
50
(
-2.02228e-06
-2.02228e-06
-2.02228e-06
-2.02228e-06
-2.02228e-06
-2.02228e-06
-2.02228e-06
-2.02228e-06
-2.02228e-06
-2.02228e-06
-2.02228e-06
-2.02228e-06
-2.02228e-06
-2.02228e-06
-2.02228e-06
-2.02228e-06
-2.02228e-06
-2.02228e-06
-2.02228e-06
-2.02228e-06
-2.02228e-06
-2.02228e-06
-2.02228e-06
-2.02228e-06
-2.02228e-06
-2.02228e-06
-2.02228e-06
-2.02228e-06
-2.02228e-06
-2.02228e-06
-2.02228e-06
-2.02228e-06
-2.02228e-06
-2.02228e-06
-2.02228e-06
-2.02228e-06
-2.02228e-06
-2.02228e-06
-2.02228e-06
-2.02228e-06
-2.02228e-06
-2.02228e-06
-2.02228e-06
-2.02228e-06
-2.02228e-06
-2.02228e-06
-2.02228e-06
-2.02229e-06
-2.02267e-06
-2.03132e-06
)
;
    }
    inandouthalf42
    {
        type            cyclic;
        value           nonuniform List<scalar> 
50
(
2.02228e-06
2.02228e-06
2.02228e-06
2.02228e-06
2.02228e-06
2.02228e-06
2.02228e-06
2.02228e-06
2.02228e-06
2.02228e-06
2.02228e-06
2.02228e-06
2.02228e-06
2.02228e-06
2.02228e-06
2.02228e-06
2.02228e-06
2.02228e-06
2.02228e-06
2.02228e-06
2.02228e-06
2.02228e-06
2.02228e-06
2.02228e-06
2.02228e-06
2.02228e-06
2.02228e-06
2.02228e-06
2.02228e-06
2.02228e-06
2.02228e-06
2.02228e-06
2.02228e-06
2.02228e-06
2.02228e-06
2.02228e-06
2.02228e-06
2.02228e-06
2.02228e-06
2.02228e-06
2.02228e-06
2.02228e-06
2.02228e-06
2.02228e-06
2.02228e-06
2.02228e-06
2.02228e-06
2.02229e-06
2.02267e-06
2.03132e-06
)
;
    }
    top
    {
        type            symmetryPlane;
        value           uniform 0;
    }
    walls
    {
        type            calculated;
        value           uniform 0;
    }
    frontAndBackPlanes
    {
        type            empty;
        value           nonuniform 0();
    }
}


// ************************************************************************* //
