/*--------------------------------*- C++ -*----------------------------------*\
| =========                 |                                                 |
| \\      /  F ield         | OpenFOAM: The Open Source CFD Toolbox           |
|  \\    /   O peration     | Version:  2.4.x                                 |
|   \\  /    A nd           | Web:      www.OpenFOAM.org                      |
|    \\/     M anipulation  |                                                 |
\*---------------------------------------------------------------------------*/
FoamFile
{
    version     2.0;
    format      ascii;
    class       volScalarField;
    location    "8.95";
    object      ddt0(((1.5*(alpha+1e-08))*rho),Theta);
}
// * * * * * * * * * * * * * * * * * * * * * * * * * * * * * * * * * * * * * //

dimensions      [1 -1 -3 0 0 0 0];

internalField   nonuniform List<scalar> 
360
(
-9.51533e-22
-3.15923e-21
-2.36002e-21
-2.30427e-21
-2.63569e-21
-2.86677e-21
-2.96979e-21
-3.04082e-21
-3.11205e-21
-3.18332e-21
-3.25014e-21
-3.30788e-21
-3.3545e-21
-3.38994e-21
-3.4149e-21
-3.42984e-21
-3.43401e-21
-3.42624e-21
-3.40635e-21
-3.37407e-21
-3.32901e-21
-3.27197e-21
-3.20344e-21
-3.12359e-21
-3.03306e-21
-2.93249e-21
-2.82315e-21
-2.70662e-21
-2.58366e-21
-2.45536e-21
-2.32369e-21
-2.18999e-21
-2.05574e-21
-1.92285e-21
-1.79228e-21
-1.66526e-21
-1.54347e-21
-1.42837e-21
-1.32041e-21
-1.22021e-21
-1.12902e-21
-1.04678e-21
-9.73677e-22
-9.10323e-22
-8.56351e-22
-8.11407e-22
-7.74933e-22
-7.46418e-22
-7.26025e-22
-7.13006e-22
-7.06114e-22
-7.04888e-22
-7.08815e-22
-7.17001e-22
-7.28829e-22
-7.43709e-22
-7.60857e-22
-7.79743e-22
-7.99659e-22
-8.2036e-22
-8.4191e-22
-8.63727e-22
-8.85392e-22
-9.06448e-22
-9.2639e-22
-9.45127e-22
-9.62648e-22
-9.78607e-22
-9.92521e-22
-1.00481e-21
-1.01624e-21
-1.02616e-21
-1.03405e-21
-1.04057e-21
-1.04587e-21
-1.04934e-21
-1.05049e-21
-1.04952e-21
-1.04689e-21
-1.04261e-21
-1.03676e-21
-1.02981e-21
-1.02199e-21
-1.01327e-21
-1.0036e-21
-9.92876e-22
-9.80953e-22
-9.67674e-22
-9.53079e-22
-9.37369e-22
-9.20742e-22
-9.03433e-22
-8.85693e-22
-8.67653e-22
-8.49336e-22
-8.30722e-22
-8.11767e-22
-7.92438e-22
-7.72755e-22
-7.52792e-22
-7.32657e-22
-7.1248e-22
-6.92394e-22
-6.72509e-22
-6.52917e-22
-6.33696e-22
-6.14931e-22
-5.96731e-22
-5.79261e-22
-5.62771e-22
-5.47633e-22
-5.3438e-22
-5.23729e-22
-5.16577e-22
-5.1394e-22
-5.16801e-22
-5.25839e-22
-5.41023e-22
-5.61133e-22
-5.83343e-22
-6.03101e-22
-6.14546e-22
-6.11522e-22
-5.88896e-22
-5.4351e-22
-4.73957e-22
-3.78817e-22
-2.53763e-22
3.43069e-22
2.87169e-16
3.27562e-15
3.3905e-14
3.60502e-13
4.03238e-12
4.85335e-11
6.40221e-10
9.36496e-09
1.53572e-07
2.89002e-06
8.10044e-05
0.00558979
0.172354
1.54498
7.80703
9.53522
5.32441
2.99571
1.70647
0.910013
0.372003
-0.0285205
-0.42054
-0.626997
-0.736362
-0.779592
-0.772398
-0.726097
-0.650495
-0.554125
-0.444724
-0.328913
-0.212184
-0.0990999
0.00680614
0.10184
0.186735
0.258167
0.316521
0.361843
0.394691
0.415865
0.426443
0.427619
0.420658
0.406868
0.38753
0.363874
0.337055
0.308138
0.278089
0.247762
0.217902
0.189138
0.161988
0.136849
0.114011
0.093651
0.0758419
0.0605573
0.047682
0.03703
0.0283732
0.0214705
0.0160845
0.0119817
0.00892992
0.00670366
0.00509821
0.00394237
0.00310424
0.00248768
0.00202191
0.00166144
0.00137843
0.00115315
0.000971501
0.000823319
0.00070114
0.000599423
0.000513997
0.00044168
0.000380028
0.000327126
0.000281458
0.000241846
0.000207353
0.000177226
0.000150855
0.00012777
0.000107596
9.00053e-05
7.47337e-05
6.15659e-05
5.02861e-05
4.07031e-05
3.2619e-05
2.58752e-05
2.02772e-05
1.57006e-05
1.19558e-05
8.96429e-06
6.56335e-06
4.65932e-06
3.17647e-06
2.05804e-06
1.05783e-06
0
0
0
0
0
0
0
0
0
0
0
0
0
0
0
0
0
0
0
0
0
0
0
0
0
0
0
0
0
0
0
0
0
0
0
0
0
0
0
0
0
0
0
0
0
0
0
0
0
0
0
0
0
0
0
0
0
0
0
0
0
0
0
0
0
0
0
0
0
0
0
0
0
0
0
0
0
0
0
0
0
0
0
0
0
0
0
0
0
0
0
0
0
0
0
0
0
0
0
0
0
0
0
0
0
0
0
0
0
0
0
0
0
0
0
0
0
0
0
0
0
0
0
0
)
;

boundaryField
{
    inandouthalf11
    {
        type            cyclic;
    }
    inandouthalf12
    {
        type            cyclic;
    }
    inandouthalf21
    {
        type            cyclic;
    }
    inandouthalf22
    {
        type            cyclic;
    }
    inandouthalf31
    {
        type            cyclic;
    }
    inandouthalf32
    {
        type            cyclic;
    }
    inandouthalf41
    {
        type            cyclic;
    }
    inandouthalf42
    {
        type            cyclic;
    }
    top
    {
        type            symmetryPlane;
    }
    walls
    {
        type            calculated;
        value           uniform -9.51533e-22;
    }
    frontAndBackPlanes
    {
        type            empty;
    }
}


// ************************************************************************* //
