/*--------------------------------*- C++ -*----------------------------------*\
| =========                 |                                                 |
| \\      /  F ield         | OpenFOAM: The Open Source CFD Toolbox           |
|  \\    /   O peration     | Version:  2.4.x                                 |
|   \\  /    A nd           | Web:      www.OpenFOAM.org                      |
|    \\/     M anipulation  |                                                 |
\*---------------------------------------------------------------------------*/
FoamFile
{
    version     2.0;
    format      ascii;
    class       volScalarField;
    location    "8.95";
    object      epsilon_0;
}
// * * * * * * * * * * * * * * * * * * * * * * * * * * * * * * * * * * * * * //

dimensions      [0 2 -3 0 0 0 0];

internalField   nonuniform List<scalar> 
360
(
1.60309e-27
1e-20
1e-20
1e-20
1e-20
1e-20
1e-20
1e-20
1e-20
1e-20
1e-20
1e-20
1e-20
1e-20
1e-20
1e-20
1e-20
1e-20
1e-20
1e-20
1e-20
1e-20
1e-20
1e-20
1e-20
1e-20
1e-20
1e-20
1e-20
1e-20
1e-20
1e-20
1e-20
1e-20
1e-20
1e-20
1e-20
1e-20
1e-20
1e-20
1e-20
1e-20
1e-20
1e-20
1e-20
1e-20
1e-20
1e-20
1e-20
1e-20
1e-20
1e-20
1e-20
1e-20
1e-20
1e-20
1e-20
1e-20
1e-20
1e-20
1e-20
1e-20
1e-20
1e-20
1e-20
1e-20
1e-20
1e-20
1e-20
1e-20
1e-20
1e-20
1e-20
1e-20
1e-20
1e-20
1e-20
1e-20
1e-20
1e-20
1e-20
1e-20
1e-20
1e-20
1e-20
1e-20
1e-20
1e-20
1e-20
1e-20
1e-20
1e-20
1e-20
1e-20
1e-20
1e-20
1e-20
1e-20
1e-20
1e-20
1e-20
1e-20
1e-20
1e-20
1e-20
1e-20
1e-20
1e-20
1e-20
1e-20
1e-20
1e-20
1e-20
1e-20
1e-20
1e-20
1e-20
1e-20
1e-20
1e-20
1e-20
1e-20
1e-20
1e-20
1e-20
1e-20
1e-20
1e-20
1e-20
3.345e-20
3.46583e-19
4.21907e-18
5.40882e-17
7.36014e-16
1.07999e-14
1.73903e-13
3.12552e-12
6.36883e-11
1.49338e-09
4.08937e-08
1.32646e-06
5.13438e-05
0.0020976
0.0441062
0.252375
0.390838
0.441415
0.455571
0.452792
0.44163
0.426268
0.408835
0.390512
0.371996
0.353683
0.335804
0.31849
0.301807
0.285782
0.270417
0.2557
0.241612
0.228127
0.21522
0.202864
0.191035
0.179708
0.16886
0.15847
0.14852
0.13899
0.129864
0.121129
0.112769
0.104774
0.0971315
0.0898326
0.0828686
0.076232
0.0699163
0.0639161
0.058227
0.0528453
0.0477682
0.0429939
0.0385207
0.0343478
0.0304742
0.026899
0.0236207
0.0206368
0.0179433
0.0155339
0.0133998
0.0115291
0.00990673
0.00851446
0.0073315
0.00633536
0.00550283
0.00481109
0.00423286
0.0037476
0.00334214
0.00300431
0.00272322
0.00248939
0.00229475
0.00213251
0.00199704
0.0018837
0.00178869
0.00170888
0.00164169
0.00158502
0.00153711
0.00149649
0.00146194
0.00143242
0.00140703
0.00138502
0.0013657
0.00134851
0.00133293
0.00131848
0.00130476
0.0012914
0.00127804
0.00126439
0.00125016
0.00123509
0.00121894
0.0012015
0.00118259
0.00116201
0.00113963
0.00111531
0.00108894
0.00106043
0.00102971
0.000996751
0.000961531
0.000924065
0.000884394
0.000842594
0.000798773
0.000753075
0.000705686
0.000656831
0.000606778
0.000555842
0.000504387
0.00045282
0.000401601
0.00035123
0.000302251
0.000255237
0.000210784
0.000169489
0.000131925
9.86127e-05
6.99792e-05
4.63156e-05
2.77357e-05
1.41468e-05
5.25763e-06
8.83284e-07
3.59992e-08
5.18619e-10
6.63092e-12
8.39611e-14
1.06064e-15
1.3435e-17
1.7819e-19
1.07538e-20
1e-20
1e-20
1e-20
1e-20
1e-20
1e-20
1e-20
1e-20
1e-20
1e-20
1e-20
1e-20
1e-20
1e-20
1e-20
1e-20
1e-20
1e-20
1e-20
1e-20
1e-20
1e-20
1e-20
1e-20
1e-20
1e-20
1e-20
1e-20
1e-20
1e-20
1e-20
1e-20
1e-20
1e-20
1e-20
1e-20
1e-20
1e-20
1e-20
1e-20
1e-20
1e-20
1e-20
1e-20
1e-20
1e-20
1e-20
1e-20
1e-20
1e-20
1e-20
1e-20
1e-20
1e-20
1e-20
1e-20
1e-20
1e-20
1e-20
1e-20
1e-20
1e-20
1e-20
1e-20
1e-20
1e-20
1e-20
1e-20
1e-20
1e-20
1e-20
1e-20
1e-20
1e-20
1e-20
1e-20
1e-20
1e-20
1e-20
1e-20
1e-20
1e-20
1e-20
1e-20
1e-20
)
;

boundaryField
{
    inandouthalf11
    {
        type            cyclic;
    }
    inandouthalf12
    {
        type            cyclic;
    }
    inandouthalf21
    {
        type            cyclic;
    }
    inandouthalf22
    {
        type            cyclic;
    }
    inandouthalf31
    {
        type            cyclic;
    }
    inandouthalf32
    {
        type            cyclic;
    }
    inandouthalf41
    {
        type            cyclic;
    }
    inandouthalf42
    {
        type            cyclic;
    }
    top
    {
        type            symmetryPlane;
    }
    walls
    {
        type            zeroGradient;
    }
    frontAndBackPlanes
    {
        type            empty;
    }
}


// ************************************************************************* //
