/*--------------------------------*- C++ -*----------------------------------*\
| =========                 |                                                 |
| \\      /  F ield         | OpenFOAM: The Open Source CFD Toolbox           |
|  \\    /   O peration     | Version:  2.4.x                                 |
|   \\  /    A nd           | Web:      www.OpenFOAM.org                      |
|    \\/     M anipulation  |                                                 |
\*---------------------------------------------------------------------------*/
FoamFile
{
    version     2.0;
    format      ascii;
    class       volVectorField;
    location    "8.95";
    object      gradPf;
}
// * * * * * * * * * * * * * * * * * * * * * * * * * * * * * * * * * * * * * //

dimensions      [0 1 -2 0 0 0 0];

internalField   nonuniform List<vector> 
360
(
(0 70.6038 0)
(0 79.3531 0)
(0 0.428281 0)
(0 -12.4157 0)
(-3.34427e-14 -5.27437 0)
(-3.34434e-14 -2.84845 0)
(-3.34444e-14 -3.58386 0)
(0 -4.07485 0)
(-3.34468e-14 -4.13551 0)
(0 -4.15876 0)
(-3.34493e-14 -4.15335 0)
(0 -4.14493 0)
(-3.34519e-14 -4.15352 0)
(0 -4.16232 0)
(0 -4.18206 0)
(0 -4.20139 0)
(0 -4.20941 0)
(-3.34585e-14 -4.21247 0)
(0 -4.23216 0)
(0 -4.23547 0)
(0 -4.23932 0)
(-3.34641e-14 -4.25879 0)
(0 -4.26255 0)
(0 -4.27162 0)
(0 -4.28084 0)
(-3.34698e-14 -4.28052 0)
(0 -4.29286 0)
(0 -4.30619 0)
(0 -4.3039 0)
(0 -4.30688 0)
(0 -4.32585 0)
(0 -4.31609 0)
(0 -4.32879 0)
(0 -4.34204 0)
(0 -4.33391 0)
(3.34853e-14 -4.3402 0)
(0 -4.34319 0)
(0 -4.36765 0)
(0 -4.34564 0)
(0 -4.35507 0)
(0 -4.38319 0)
(0 -4.35266 0)
(3.34972e-14 -4.37182 0)
(0 -4.385 0)
(0 -4.37541 0)
(0 -4.39733 0)
(0 -4.37869 0)
(0 -4.37507 0)
(0 -4.41825 0)
(0 -4.40162 0)
(1.67559e-14 -4.39315 0)
(0 -4.41208 0)
(0 -4.41675 0)
(0 -4.41013 0)
(0 -4.42482 0)
(0 -4.42746 0)
(0 -4.4256 0)
(0 -4.44419 0)
(0 -4.4204 0)
(0 -4.44457 0)
(0 -4.45188 0)
(0 -4.44776 0)
(0 -4.46246 0)
(0 -4.45832 0)
(0 -4.46068 0)
(0 -4.46645 0)
(0 -4.47977 0)
(0 -4.4792 0)
(0 -4.46616 0)
(0 -4.48132 0)
(0 -4.50889 0)
(0 -4.48659 0)
(0 -4.48883 0)
(0 -4.50772 0)
(0 -4.51318 0)
(0 -4.51355 0)
(0 -4.50586 0)
(0 -4.51675 0)
(0 -4.52445 0)
(0 -4.52254 0)
(0 -4.52466 0)
(0 -4.53417 0)
(0 -4.53757 0)
(0 -4.5411 0)
(0 -4.54475 0)
(0 -4.54875 0)
(0 -4.55132 0)
(0 -4.55134 0)
(0 -4.55448 0)
(0 -4.55783 0)
(0 -4.55979 0)
(0 -4.56335 0)
(0 -4.56769 0)
(0 -4.57076 0)
(0 -4.5735 0)
(0 -4.57591 0)
(0 -4.57767 0)
(0 -4.57901 0)
(0 -4.58038 0)
(0 -4.5817 0)
(0 -4.58289 0)
(0 -4.5841 0)
(0 -4.58513 0)
(0 -4.58572 0)
(0 -4.58585 0)
(0 -4.58548 0)
(0 -4.58454 0)
(0 -4.58303 0)
(0 -4.58089 0)
(0 -4.57806 0)
(0 -4.57446 0)
(0 -4.57003 0)
(0 -4.5647 0)
(0 -4.55845 0)
(0 -4.55124 0)
(0 -4.54308 0)
(0 -4.53399 0)
(0 -4.52403 0)
(0 -4.51325 0)
(0 -4.50173 0)
(0 -4.48944 0)
(0 -4.4763 0)
(0 -4.46212 0)
(0 -4.44682 0)
(0 -4.43066 0)
(0 -4.41452 0)
(0 -4.39973 0)
(0 -4.38719 0)
(0 -4.37566 0)
(0 -4.36104 0)
(0 -4.3397 0)
(0 -4.31697 0)
(0 -4.30998 0)
(0 -4.32699 0)
(0 -4.34123 0)
(0 -4.32033 0)
(0 -4.29672 0)
(0 -4.37229 0)
(0 -4.58926 0)
(0 -4.72101 0)
(0 -4.44848 0)
(0 -4.89334 0)
(0 -24.3806 0)
(0 -26.1588 0)
(0 0 0)
(0 0 0)
(0 0 0)
(0 0 0)
(0 0 0)
(0 0 0)
(0 0 0)
(0 0 0)
(0 0 0)
(0 0 0)
(0 0 0)
(0 0 0)
(0 0 0)
(0 0 0)
(0 0 0)
(0 0 0)
(0 0 0)
(0 0 0)
(0 0 0)
(0 0 0)
(0 0 0)
(0 0 0)
(0 0 0)
(0 0 0)
(0 0 0)
(0 0 0)
(0 0 0)
(0 0 0)
(0 0 0)
(0 0 0)
(0 0 0)
(0 0 0)
(0 0 0)
(0 0 0)
(0 0 0)
(0 0 0)
(0 0 0)
(0 0 0)
(0 0 0)
(0 0 0)
(0 0 0)
(0 0 0)
(0 0 0)
(0 0 0)
(0 0 0)
(0 0 0)
(0 0 0)
(0 0 0)
(0 0 0)
(0 0 0)
(0 0 0)
(0 0 0)
(0 0 0)
(0 0 0)
(0 0 0)
(0 0 0)
(0 0 0)
(0 0 0)
(0 0 0)
(0 0 0)
(0 0 0)
(0 0 0)
(0 0 0)
(0 0 0)
(0 0 0)
(0 0 0)
(0 0 0)
(0 0 0)
(0 0 0)
(0 0 0)
(0 0 0)
(0 0 0)
(0 0 0)
(0 0 0)
(0 0 0)
(0 0 0)
(0 0 0)
(0 0 0)
(0 0 0)
(0 0 0)
(0 0 0)
(0 0 0)
(0 0 0)
(0 0 0)
(0 0 0)
(0 0 0)
(0 0 0)
(0 0 0)
(0 0 0)
(0 0 0)
(0 0 0)
(0 0 0)
(0 0 0)
(0 0 0)
(0 0 0)
(0 0 0)
(0 0 0)
(0 0 0)
(0 0 0)
(0 0 0)
(0 0 0)
(0 0 0)
(0 0 0)
(0 0 0)
(0 0 0)
(0 0 0)
(0 0 0)
(0 0 0)
(0 0 0)
(0 0 0)
(0 0 0)
(0 0 0)
(0 0 0)
(0 0 0)
(0 0 0)
(0 0 0)
(0 0 0)
(0 0 0)
(0 0 0)
(0 0 0)
(0 0 0)
(0 0 0)
(0 0 0)
(0 0 0)
(0 0 0)
(0 0 0)
(0 0 0)
(0 0 0)
(0 0 0)
(0 0 0)
(0 0 0)
(0 0 0)
(0 0 0)
(0 0 0)
(0 0 0)
(0 0 0)
(0 0 0)
(0 0 0)
(0 0 0)
(0 0 0)
(0 0 0)
(0 0 0)
(0 0 0)
(0 0 0)
(0 0 0)
(0 0 0)
(0 0 0)
(0 0 0)
(0 0 0)
(0 0 0)
(0 0 0)
(0 0 0)
(0 0 0)
(0 0 0)
(0 0 0)
(0 0 0)
(0 0 0)
(0 0 0)
(0 0 0)
(0 0 0)
(0 0 0)
(0 0 0)
(0 0 0)
(0 0 0)
(0 0 0)
(0 0 0)
(0 0 0)
(0 0 0)
(0 0 0)
(0 0 0)
(0 0 0)
(0 0 0)
(0 0 0)
(0 0 0)
(0 0 0)
(0 0 0)
(0 0 0)
(0 0 0)
(0 0 0)
(0 0 0)
(0 0 0)
(0 0 0)
(0 0 0)
(0 0 0)
(0 0 0)
(0 0 0)
(0 0 0)
(0 0 0)
(0 0 0)
(0 0 0)
(0 0 0)
(0 0 0)
(0 0 0)
(0 0 0)
(0 0 0)
(0 0 0)
(0 0 0)
(0 0 0)
(0 0 0)
(0 0 0)
(0 0 0)
(0 0 0)
(0 0 0)
(0 0 0)
(0 0 0)
(0 0 0)
(0 0 0)
(0 0 0)
(0 0 0)
(0 0 0)
(0 0 0)
(0 0 0)
(0 0 0)
(0 0 0)
(0 0 0)
(0 0 0)
)
;

boundaryField
{
    inandouthalf11
    {
        type            cyclic;
    }
    inandouthalf12
    {
        type            cyclic;
    }
    inandouthalf21
    {
        type            cyclic;
    }
    inandouthalf22
    {
        type            cyclic;
    }
    inandouthalf31
    {
        type            cyclic;
    }
    inandouthalf32
    {
        type            cyclic;
    }
    inandouthalf41
    {
        type            cyclic;
    }
    inandouthalf42
    {
        type            cyclic;
    }
    top
    {
        type            symmetryPlane;
    }
    walls
    {
        type            calculated;
        value           uniform (0 0 0);
    }
    frontAndBackPlanes
    {
        type            empty;
    }
}


// ************************************************************************* //
