/*--------------------------------*- C++ -*----------------------------------*\
| =========                 |                                                 |
| \\      /  F ield         | OpenFOAM: The Open Source CFD Toolbox           |
|  \\    /   O peration     | Version:  2.4.x                                 |
|   \\  /    A nd           | Web:      www.OpenFOAM.org                      |
|    \\/     M anipulation  |                                                 |
\*---------------------------------------------------------------------------*/
FoamFile
{
    version     2.0;
    format      ascii;
    class       volScalarField;
    location    "8.95";
    object      k;
}
// * * * * * * * * * * * * * * * * * * * * * * * * * * * * * * * * * * * * * //

dimensions      [0 2 -2 0 0 0 0];

internalField   nonuniform List<scalar> 
360
(
1e-20
1e-20
1e-20
1e-20
1e-20
1e-20
1e-20
1e-20
1e-20
1e-20
1e-20
1e-20
1e-20
1e-20
1e-20
1e-20
1e-20
1e-20
1e-20
1e-20
1e-20
1e-20
1e-20
1e-20
1e-20
1e-20
1e-20
1e-20
1e-20
1e-20
1e-20
1e-20
1e-20
1e-20
1e-20
1e-20
1e-20
1e-20
1e-20
1e-20
1e-20
1e-20
1e-20
1e-20
1e-20
1e-20
1e-20
1e-20
1e-20
1e-20
1e-20
1e-20
1e-20
1e-20
1e-20
1e-20
1e-20
1e-20
1e-20
1e-20
1e-20
1e-20
1e-20
1e-20
1e-20
1e-20
1e-20
1e-20
1e-20
1e-20
1e-20
1e-20
1e-20
1e-20
1e-20
1e-20
1e-20
1e-20
1e-20
1e-20
1e-20
1e-20
1e-20
1e-20
1e-20
1e-20
1e-20
1e-20
1e-20
1e-20
1e-20
1e-20
1e-20
1e-20
1e-20
1e-20
1e-20
1e-20
1e-20
1e-20
1e-20
1e-20
1e-20
1e-20
1e-20
1e-20
1e-20
1e-20
1e-20
1e-20
1e-20
1e-20
1e-20
1e-20
1e-20
1e-20
1e-20
1e-20
1e-20
1e-20
1e-20
1e-20
1e-20
1e-20
1e-20
1e-20
1e-20
1e-20
1e-20
1.63565e-20
1.40022e-19
1.51816e-18
1.71803e-17
2.03749e-16
2.57187e-15
3.51874e-14
5.31269e-13
8.99784e-12
1.73592e-10
3.87411e-09
1.01527e-07
3.14494e-06
9.8375e-05
0.00151662
0.0068439
0.0111179
0.013771
0.015563
0.0168278
0.017738
0.0183931
0.0188547
0.0191678
0.0193658
0.0194695
0.0194946
0.019453
0.0193542
0.0192055
0.019013
0.0187816
0.0185153
0.0182175
0.0178911
0.0175387
0.0171625
0.0167647
0.016347
0.0159115
0.0154596
0.0149931
0.0145137
0.0140228
0.0135219
0.0130127
0.0124967
0.0119753
0.0114502
0.0109229
0.010395
0.00986824
0.00934422
0.00882477
0.00831175
0.00780711
0.00731289
0.00683124
0.00636438
0.00591463
0.00548431
0.00507576
0.00469122
0.00433273
0.00400201
0.00370033
0.00342837
0.00318615
0.002973
0.00278756
0.00262794
0.00249186
0.00237561
0.00227635
0.00219236
0.0021219
0.00206323
0.00201473
0.00197491
0.00194246
0.00191622
0.0018952
0.00187854
0.0018655
0.00185547
0.00184788
0.00184228
0.00183824
0.00183539
0.00183341
0.001832
0.00183087
0.00182978
0.00182848
0.00182675
0.00182437
0.00182113
0.00181684
0.00181129
0.00180431
0.00179571
0.00178531
0.00177295
0.00175847
0.00174171
0.00172252
0.00170077
0.00167631
0.00164903
0.00161881
0.00158556
0.0015492
0.00150965
0.00146686
0.0014208
0.00137146
0.00131887
0.00126305
0.00120411
0.00114215
0.00107732
0.00100985
0.00093999
0.00086806
0.000794451
0.000719625
0.000644124
0.000568578
0.000493706
0.00042032
0.000349317
0.000281673
0.00021842
0.000160616
0.000109312
6.55316e-05
3.0383e-05
6.76002e-06
3.39885e-07
5.10959e-09
6.6106e-11
8.45369e-13
1.07633e-14
1.36962e-16
1.74974e-18
2.92828e-20
1e-20
1e-20
1e-20
1e-20
1e-20
1e-20
1e-20
1e-20
1e-20
1e-20
1e-20
1e-20
1e-20
1e-20
1e-20
1e-20
1e-20
1e-20
1e-20
1e-20
1e-20
1e-20
1e-20
1e-20
1e-20
1e-20
1e-20
1e-20
1e-20
1e-20
1e-20
1e-20
1e-20
1e-20
1e-20
1e-20
1e-20
1e-20
1e-20
1e-20
1e-20
1e-20
1e-20
1e-20
1e-20
1e-20
1e-20
1e-20
1e-20
1e-20
1e-20
1e-20
1e-20
1e-20
1e-20
1e-20
1e-20
1e-20
1e-20
1e-20
1e-20
1e-20
1e-20
1e-20
1e-20
1e-20
1e-20
1e-20
1e-20
1e-20
1e-20
1e-20
1e-20
1e-20
1e-20
1e-20
1e-20
1e-20
1e-20
1e-20
1e-20
1e-20
1e-20
1e-20
1e-20
)
;

boundaryField
{
    inandouthalf11
    {
        type            cyclic;
    }
    inandouthalf12
    {
        type            cyclic;
    }
    inandouthalf21
    {
        type            cyclic;
    }
    inandouthalf22
    {
        type            cyclic;
    }
    inandouthalf31
    {
        type            cyclic;
    }
    inandouthalf32
    {
        type            cyclic;
    }
    inandouthalf41
    {
        type            cyclic;
    }
    inandouthalf42
    {
        type            cyclic;
    }
    top
    {
        type            symmetryPlane;
    }
    walls
    {
        type            zeroGradient;
    }
    frontAndBackPlanes
    {
        type            empty;
    }
}


// ************************************************************************* //
