/*--------------------------------*- C++ -*----------------------------------*\
| =========                 |                                                 |
| \\      /  F ield         | OpenFOAM: The Open Source CFD Toolbox           |
|  \\    /   O peration     | Version:  2.4.x                                 |
|   \\  /    A nd           | Web:      www.OpenFOAM.org                      |
|    \\/     M anipulation  |                                                 |
\*---------------------------------------------------------------------------*/
FoamFile
{
    version     2.0;
    format      ascii;
    class       volScalarField;
    location    "8.95";
    object      k_0;
}
// * * * * * * * * * * * * * * * * * * * * * * * * * * * * * * * * * * * * * //

dimensions      [0 2 -2 0 0 0 0];

internalField   nonuniform List<scalar> 
360
(
1e-20
1e-20
1e-20
1e-20
1e-20
1e-20
1e-20
1e-20
1e-20
1e-20
1e-20
1e-20
1e-20
1e-20
1e-20
1e-20
1e-20
1e-20
1e-20
1e-20
1e-20
1e-20
1e-20
1e-20
1e-20
1e-20
1e-20
1e-20
1e-20
1e-20
1e-20
1e-20
1e-20
1e-20
1e-20
1e-20
1e-20
1e-20
1e-20
1e-20
1e-20
1e-20
1e-20
1e-20
1e-20
1e-20
1e-20
1e-20
1e-20
1e-20
1e-20
1e-20
1e-20
1e-20
1e-20
1e-20
1e-20
1e-20
1e-20
1e-20
1e-20
1e-20
1e-20
1e-20
1e-20
1e-20
1e-20
1e-20
1e-20
1e-20
1e-20
1e-20
1e-20
1e-20
1e-20
1e-20
1e-20
1e-20
1e-20
1e-20
1e-20
1e-20
1e-20
1e-20
1e-20
1e-20
1e-20
1e-20
1e-20
1e-20
1e-20
1e-20
1e-20
1e-20
1e-20
1e-20
1e-20
1e-20
1e-20
1e-20
1e-20
1e-20
1e-20
1e-20
1e-20
1e-20
1e-20
1e-20
1e-20
1e-20
1e-20
1e-20
1e-20
1e-20
1e-20
1e-20
1e-20
1e-20
1e-20
1e-20
1e-20
1e-20
1e-20
1e-20
1e-20
1e-20
1e-20
1e-20
1e-20
1.63205e-20
1.39612e-19
1.51392e-18
1.71352e-17
2.03244e-16
2.56578e-15
3.5107e-14
5.30093e-13
8.97855e-12
1.73233e-10
3.86633e-09
1.01327e-07
3.1389e-06
9.82127e-05
0.00151497
0.00684075
0.0111158
0.0137696
0.015562
0.0168271
0.0177376
0.0183929
0.0188546
0.0191678
0.0193659
0.0194696
0.0194947
0.0194531
0.0193543
0.0192055
0.019013
0.0187814
0.018515
0.0182171
0.0178906
0.017538
0.0171617
0.0167637
0.0163459
0.0159101
0.0154581
0.0149915
0.0145118
0.0140207
0.0135198
0.0130104
0.0124942
0.0119727
0.0114475
0.0109201
0.0103921
0.0098652
0.0093411
0.00882159
0.00830852
0.00780386
0.00730963
0.00682799
0.00636117
0.00591148
0.00548125
0.00507282
0.00468841
0.00433008
0.00399954
0.00369806
0.00342632
0.00318432
0.00297138
0.00278616
0.00262675
0.00249085
0.00237478
0.00227566
0.00219182
0.00212148
0.00206291
0.0020145
0.00197475
0.00194236
0.00191618
0.0018952
0.00187858
0.00186558
0.00185557
0.00184801
0.00184242
0.0018384
0.00183557
0.0018336
0.00183219
0.00183107
0.00182999
0.00182869
0.00182697
0.00182459
0.00182135
0.00181705
0.0018115
0.00180451
0.00179591
0.00178551
0.00177315
0.00175866
0.00174189
0.00172269
0.00170093
0.00167646
0.00164917
0.00161894
0.00158568
0.00154931
0.00150975
0.00146695
0.00142088
0.00137153
0.00131892
0.00126309
0.00120414
0.00114216
0.00107733
0.00100984
0.00093997
0.00086803
0.000794412
0.000719577
0.000644069
0.000568516
0.00049364
0.000420251
0.000349248
0.000281606
0.000218356
0.000160558
0.000109261
6.54905e-05
3.03526e-05
6.74636e-06
3.38695e-07
5.08988e-09
6.58567e-11
8.42277e-13
1.07253e-14
1.36498e-16
1.74407e-18
2.9215e-20
1e-20
1e-20
1e-20
1e-20
1e-20
1e-20
1e-20
1e-20
1e-20
1e-20
1e-20
1e-20
1e-20
1e-20
1e-20
1e-20
1e-20
1e-20
1e-20
1e-20
1e-20
1e-20
1e-20
1e-20
1e-20
1e-20
1e-20
1e-20
1e-20
1e-20
1e-20
1e-20
1e-20
1e-20
1e-20
1e-20
1e-20
1e-20
1e-20
1e-20
1e-20
1e-20
1e-20
1e-20
1e-20
1e-20
1e-20
1e-20
1e-20
1e-20
1e-20
1e-20
1e-20
1e-20
1e-20
1e-20
1e-20
1e-20
1e-20
1e-20
1e-20
1e-20
1e-20
1e-20
1e-20
1e-20
1e-20
1e-20
1e-20
1e-20
1e-20
1e-20
1e-20
1e-20
1e-20
1e-20
1e-20
1e-20
1e-20
1e-20
1e-20
1e-20
1e-20
1e-20
1e-20
)
;

boundaryField
{
    inandouthalf11
    {
        type            cyclic;
    }
    inandouthalf12
    {
        type            cyclic;
    }
    inandouthalf21
    {
        type            cyclic;
    }
    inandouthalf22
    {
        type            cyclic;
    }
    inandouthalf31
    {
        type            cyclic;
    }
    inandouthalf32
    {
        type            cyclic;
    }
    inandouthalf41
    {
        type            cyclic;
    }
    inandouthalf42
    {
        type            cyclic;
    }
    top
    {
        type            symmetryPlane;
    }
    walls
    {
        type            zeroGradient;
    }
    frontAndBackPlanes
    {
        type            empty;
    }
}


// ************************************************************************* //
