/*--------------------------------*- C++ -*----------------------------------*\
| =========                 |                                                 |
| \\      /  F ield         | OpenFOAM: The Open Source CFD Toolbox           |
|  \\    /   O peration     | Version:  2.4.x                                 |
|   \\  /    A nd           | Web:      www.OpenFOAM.org                      |
|    \\/     M anipulation  |                                                 |
\*---------------------------------------------------------------------------*/
FoamFile
{
    version     2.0;
    format      ascii;
    class       volScalarField;
    location    "8.95";
    object      pa;
}
// * * * * * * * * * * * * * * * * * * * * * * * * * * * * * * * * * * * * * //

dimensions      [1 -1 -2 0 0 0 0];

internalField   nonuniform List<scalar> 
360
(
2.90318e-16
2.92817e-16
2.9308e-16
2.92821e-16
2.92699e-16
2.9266e-16
2.92611e-16
2.92548e-16
2.92483e-16
2.92417e-16
2.9235e-16
2.92284e-16
2.92216e-16
2.92148e-16
2.9208e-16
2.9201e-16
2.9194e-16
2.91869e-16
2.91797e-16
2.91724e-16
2.91651e-16
2.91577e-16
2.91502e-16
2.91427e-16
2.9135e-16
2.91273e-16
2.91195e-16
2.91116e-16
2.91036e-16
2.90956e-16
2.90874e-16
2.90792e-16
2.90709e-16
2.90624e-16
2.9054e-16
2.90454e-16
2.90367e-16
2.9028e-16
2.90191e-16
2.90102e-16
2.90011e-16
2.8992e-16
2.89828e-16
2.89734e-16
2.8964e-16
2.89545e-16
2.89449e-16
2.89352e-16
2.89254e-16
2.89154e-16
2.89054e-16
2.88953e-16
2.8885e-16
2.88747e-16
2.88642e-16
2.88536e-16
2.88429e-16
2.8832e-16
2.88211e-16
2.88101e-16
2.87987e-16
2.87875e-16
2.87759e-16
2.87643e-16
2.87525e-16
2.87406e-16
2.87285e-16
2.87162e-16
2.87038e-16
2.86914e-16
2.86786e-16
2.86656e-16
2.86526e-16
2.86393e-16
2.86259e-16
2.86122e-16
2.85984e-16
2.85844e-16
2.85702e-16
2.85557e-16
2.8541e-16
2.85261e-16
2.8511e-16
2.84956e-16
2.848e-16
2.84642e-16
2.8448e-16
2.84316e-16
2.8415e-16
2.8398e-16
2.83808e-16
2.83633e-16
2.83454e-16
2.83272e-16
2.83087e-16
2.82898e-16
2.82706e-16
2.8251e-16
2.8231e-16
2.82106e-16
2.81898e-16
2.81686e-16
2.81469e-16
2.81248e-16
2.81022e-16
2.80791e-16
2.80554e-16
2.80313e-16
2.80066e-16
2.79813e-16
2.79554e-16
2.79288e-16
2.79016e-16
2.78738e-16
2.78452e-16
2.78158e-16
2.77857e-16
2.77548e-16
2.7723e-16
2.76903e-16
2.76567e-16
2.76221e-16
2.75864e-16
2.75496e-16
2.75116e-16
2.74724e-16
2.74319e-16
2.73899e-16
2.73463e-16
4.44922e-16
3.79735e-15
4.10945e-14
4.64132e-13
5.4924e-12
6.91605e-11
9.43684e-10
1.42074e-08
2.40018e-07
4.64213e-06
0.000121396
0.00824125
0.360226
4.95216
14.7556
15.6999
15.4778
14.5246
13.3767
12.1978
11.0479
9.95009
8.90661
7.97259
7.12729
6.36056
5.66635
5.03931
4.47417
3.96583
3.50935
3.10007
2.73362
2.40594
2.11332
1.85236
1.61994
1.41326
1.22977
1.06716
0.92333
0.796401
0.684648
0.586515
0.50059
0.425585
0.360336
0.303781
0.254956
0.212985
0.17707
0.146487
0.12058
0.0987536
0.0804687
0.0652405
0.0526334
0.0422589
0.0337724
0.0268688
0.0212791
0.0167679
0.0131359
0.0102229
0.00790579
0.00608887
0.0046904
0.00363354
0.00284522
0.00225986
0.00182346
0.00149428
0.00123985
0.00103868
0.000877471
0.000746591
0.000639032
0.000549652
0.000474621
0.000411057
0.000356759
0.000310031
0.000269554
0.000234283
0.00020338
0.00017619
0.000152193
0.000130963
0.000112157
9.55109e-05
8.08164e-05
6.7887e-05
5.65714e-05
4.67457e-05
3.82775e-05
3.10462e-05
2.49196e-05
1.97907e-05
1.55211e-05
1.20229e-05
9.15573e-06
6.86276e-06
5.02127e-06
3.56073e-06
2.42383e-06
1.56743e-06
8.02793e-07
0
0
0
0
0
0
0
0
0
0
0
0
0
0
0
0
0
0
0
0
0
0
0
0
0
0
0
0
0
0
0
0
0
0
0
0
0
0
0
0
0
0
0
0
0
0
0
0
0
0
0
0
0
0
0
0
0
0
0
0
0
0
0
0
0
0
0
0
0
0
0
0
0
0
0
0
0
0
0
0
0
0
0
0
0
0
0
0
0
0
0
0
0
0
0
0
0
0
0
0
0
0
0
0
0
0
0
0
0
0
0
0
0
0
0
0
0
0
0
0
0
0
0
0
)
;

boundaryField
{
    inandouthalf11
    {
        type            cyclic;
    }
    inandouthalf12
    {
        type            cyclic;
    }
    inandouthalf21
    {
        type            cyclic;
    }
    inandouthalf22
    {
        type            cyclic;
    }
    inandouthalf31
    {
        type            cyclic;
    }
    inandouthalf32
    {
        type            cyclic;
    }
    inandouthalf41
    {
        type            cyclic;
    }
    inandouthalf42
    {
        type            cyclic;
    }
    top
    {
        type            symmetryPlane;
    }
    walls
    {
        type            calculated;
        value           uniform 2.90318e-16;
    }
    frontAndBackPlanes
    {
        type            empty;
    }
}


// ************************************************************************* //
