/*--------------------------------*- C++ -*----------------------------------*\
| =========                 |                                                 |
| \\      /  F ield         | OpenFOAM: The Open Source CFD Toolbox           |
|  \\    /   O peration     | Version:  2.4.x                                 |
|   \\  /    A nd           | Web:      www.OpenFOAM.org                      |
|    \\/     M anipulation  |                                                 |
\*---------------------------------------------------------------------------*/
FoamFile
{
    version     2.0;
    format      ascii;
    class       surfaceScalarField;
    location    "8.95";
    object      phia_0;
}
// * * * * * * * * * * * * * * * * * * * * * * * * * * * * * * * * * * * * * //

dimensions      [0 3 -1 0 0 0 0];

internalField   nonuniform List<scalar> 
359
(
-8.05899e-14
-2.02437e-13
-3.16677e-13
-4.28166e-13
-5.44288e-13
-6.64464e-13
-7.86907e-13
-9.11158e-13
-1.03737e-12
-1.16582e-12
-1.29662e-12
-1.42974e-12
-1.56515e-12
-1.70276e-12
-1.8425e-12
-1.98431e-12
-2.12811e-12
-2.27378e-12
-2.42118e-12
-2.57021e-12
-2.72069e-12
-2.8725e-12
-3.02549e-12
-3.1795e-12
-3.33437e-12
-3.48996e-12
-3.64607e-12
-3.80259e-12
-3.95935e-12
-4.11618e-12
-4.27291e-12
-4.42944e-12
-4.58555e-12
-4.74119e-12
-4.89615e-12
-5.05034e-12
-5.2036e-12
-5.35585e-12
-5.50702e-12
-5.65691e-12
-5.80554e-12
-5.95279e-12
-6.09856e-12
-6.24286e-12
-6.38561e-12
-6.52677e-12
-6.66634e-12
-6.80422e-12
-6.94044e-12
-7.07507e-12
-7.208e-12
-7.33932e-12
-7.46898e-12
-7.59706e-12
-7.7235e-12
-7.84843e-12
-7.97178e-12
-8.09363e-12
-8.21398e-12
-8.33283e-12
-8.45029e-12
-8.56633e-12
-8.68107e-12
-8.79447e-12
-8.90659e-12
-9.01742e-12
-9.12701e-12
-9.23538e-12
-9.34252e-12
-9.44844e-12
-9.5532e-12
-9.65686e-12
-9.75934e-12
-9.86074e-12
-9.96105e-12
-1.00603e-11
-1.01585e-11
-1.02555e-11
-1.03514e-11
-1.04463e-11
-1.054e-11
-1.06327e-11
-1.07242e-11
-1.08147e-11
-1.09041e-11
-1.09924e-11
-1.10797e-11
-1.11658e-11
-1.12508e-11
-1.13347e-11
-1.14174e-11
-1.14989e-11
-1.15792e-11
-1.16584e-11
-1.17364e-11
-1.18132e-11
-1.18888e-11
-1.19633e-11
-1.20365e-11
-1.21084e-11
-1.21791e-11
-1.22486e-11
-1.23168e-11
-1.23838e-11
-1.24495e-11
-1.25139e-11
-1.25772e-11
-1.26393e-11
-1.27002e-11
-1.276e-11
-1.28187e-11
-1.28765e-11
-1.29333e-11
-1.29891e-11
-1.3044e-11
-1.3098e-11
-1.3151e-11
-1.3203e-11
-1.32536e-11
-1.33029e-11
-1.33506e-11
-1.33966e-11
-1.34406e-11
-1.34827e-11
-1.3523e-11
-1.35618e-11
-1.35996e-11
-1.3637e-11
-1.36751e-11
-1.37145e-11
-1.37562e-11
-1.38e-11
-1.3845e-11
-1.38882e-11
-1.39254e-11
-1.39522e-11
-1.39673e-11
-1.39734e-11
-1.3975e-11
-1.39751e-11
-1.39736e-11
-1.39617e-11
-1.32456e-11
2.37338e-09
4.65182e-09
6.11954e-09
7.19221e-09
8.0724e-09
8.84258e-09
9.54179e-09
1.01898e-08
1.08149e-08
1.14539e-08
1.21007e-08
1.27612e-08
1.34424e-08
1.41514e-08
1.48946e-08
1.56772e-08
1.65039e-08
1.73782e-08
1.83028e-08
1.92793e-08
2.0309e-08
2.13917e-08
2.25273e-08
2.37147e-08
2.49525e-08
2.62384e-08
2.75703e-08
2.89452e-08
3.03603e-08
3.1812e-08
3.32969e-08
3.48111e-08
3.63504e-08
3.79104e-08
3.94864e-08
4.10731e-08
4.26648e-08
4.42549e-08
4.58361e-08
4.73998e-08
4.89361e-08
5.04333e-08
5.18779e-08
5.32545e-08
5.45457e-08
5.57303e-08
5.6779e-08
5.76494e-08
5.82866e-08
5.86354e-08
5.86602e-08
5.83626e-08
5.77832e-08
5.6989e-08
5.60547e-08
5.50473e-08
5.40195e-08
5.30077e-08
5.20168e-08
5.10642e-08
5.01609e-08
4.93135e-08
4.85258e-08
4.77992e-08
4.71341e-08
4.65298e-08
4.59848e-08
4.54973e-08
4.50652e-08
4.46859e-08
4.43563e-08
4.40731e-08
4.38326e-08
4.36308e-08
4.34632e-08
4.33252e-08
4.32122e-08
4.31195e-08
4.30423e-08
4.29768e-08
4.2919e-08
4.2866e-08
4.2814e-08
4.27618e-08
4.27052e-08
4.26448e-08
4.25746e-08
4.24972e-08
4.24078e-08
4.23034e-08
4.21646e-08
4.20989e-08
4.15843e-08
3.53103e-08
3.50993e-08
3.48076e-08
3.42077e-08
3.36878e-08
3.3153e-08
3.29104e-08
3.22427e-08
3.41657e-08
3.20618e-08
4.58921e-08
-3.10457e-08
-1.41341e-07
-1.585e-07
-1.5842e-07
-1.5843e-07
-1.5843e-07
-1.5843e-07
-1.58427e-07
-1.58423e-07
-1.58416e-07
-1.58408e-07
-1.58397e-07
-1.58383e-07
-1.58367e-07
-1.58348e-07
-1.58327e-07
-1.58305e-07
-1.5828e-07
-1.58246e-07
-1.58199e-07
-1.58187e-07
-1.58187e-07
-1.58187e-07
-1.58187e-07
-1.58187e-07
-1.58187e-07
-1.58187e-07
-1.58187e-07
-1.58187e-07
-1.58187e-07
-1.58187e-07
-1.58187e-07
-1.58187e-07
-1.58187e-07
-1.58187e-07
-1.58187e-07
-1.58187e-07
-1.58187e-07
-1.58187e-07
-1.58187e-07
-1.58187e-07
-1.58187e-07
-1.58187e-07
-1.58187e-07
-1.58187e-07
-1.58187e-07
-1.58187e-07
-1.58187e-07
-1.58187e-07
-1.58187e-07
-1.58187e-07
-1.58187e-07
-1.58187e-07
-1.58187e-07
-1.58187e-07
-1.58187e-07
-1.58187e-07
-1.58187e-07
-1.58187e-07
-1.58187e-07
-1.58187e-07
-1.58187e-07
-1.58187e-07
-1.58187e-07
-1.58187e-07
-1.58187e-07
-1.58187e-07
-1.58187e-07
-1.58187e-07
-1.58187e-07
-1.58187e-07
-1.58187e-07
-1.58187e-07
-1.58187e-07
-1.58187e-07
-1.58187e-07
-1.58187e-07
-1.58187e-07
-1.58187e-07
-1.58187e-07
-1.58187e-07
-1.58187e-07
-1.58187e-07
-1.58187e-07
-1.58187e-07
-1.58187e-07
-1.58187e-07
-1.58187e-07
-1.58187e-07
-1.58187e-07
-1.58187e-07
-1.58187e-07
-1.58187e-07
-1.58187e-07
-1.58187e-07
-1.58187e-07
-1.58187e-07
-1.58187e-07
-1.58187e-07
-1.58187e-07
-1.58187e-07
-1.58187e-07
-1.58187e-07
-1.58187e-07
-1.58187e-07
-1.58187e-07
-1.58187e-07
-1.58187e-07
-1.58186e-07
-1.58169e-07
-1.57463e-07
-1.32586e-07
)
;

boundaryField
{
    inandouthalf11
    {
        type            cyclic;
        value           nonuniform List<scalar> 
100
(
-1.86501e-38
-9.80527e-15
-2.05582e-14
-3.03735e-14
-4.05217e-14
-5.1249e-14
-6.23049e-14
-7.3571e-14
-8.50528e-14
-9.67757e-14
-1.08757e-13
-1.21001e-13
-1.33507e-13
-1.46268e-13
-1.59279e-13
-1.72536e-13
-1.86032e-13
-1.99758e-13
-2.13704e-13
-2.27859e-13
-2.4221e-13
-2.56744e-13
-2.71448e-13
-2.86307e-13
-3.01309e-13
-3.16436e-13
-3.31675e-13
-3.4701e-13
-3.62427e-13
-3.77909e-13
-3.93442e-13
-4.0901e-13
-4.24599e-13
-4.40194e-13
-4.55782e-13
-4.71348e-13
-4.86879e-13
-5.02364e-13
-5.17793e-13
-5.33152e-13
-5.48434e-13
-5.6363e-13
-5.78731e-13
-5.93729e-13
-6.08622e-13
-6.23403e-13
-6.38068e-13
-6.52611e-13
-6.6703e-13
-6.81328e-13
-6.95501e-13
-7.0955e-13
-7.23474e-13
-7.37276e-13
-7.50956e-13
-7.64517e-13
-7.7796e-13
-7.91288e-13
-8.04502e-13
-8.17604e-13
-8.30597e-13
-8.43488e-13
-8.5628e-13
-8.68976e-13
-8.81579e-13
-8.9409e-13
-9.06512e-13
-9.18849e-13
-9.311e-13
-9.43265e-13
-9.55349e-13
-9.67358e-13
-9.79291e-13
-9.9115e-13
-1.00294e-12
-1.01466e-12
-1.02631e-12
-1.03789e-12
-1.0494e-12
-1.06085e-12
-1.07221e-12
-1.08351e-12
-1.09474e-12
-1.1059e-12
-1.117e-12
-1.12803e-12
-1.13899e-12
-1.14989e-12
-1.16072e-12
-1.17147e-12
-1.18215e-12
-1.19275e-12
-1.20328e-12
-1.21373e-12
-1.22411e-12
-1.23441e-12
-1.24464e-12
-1.25479e-12
-1.26486e-12
-1.27486e-12
)
;
    }
    inandouthalf12
    {
        type            cyclic;
        value           nonuniform List<scalar> 
100
(
1.86501e-38
9.80527e-15
2.05582e-14
3.03735e-14
4.05217e-14
5.1249e-14
6.23049e-14
7.3571e-14
8.50528e-14
9.67757e-14
1.08757e-13
1.21001e-13
1.33507e-13
1.46268e-13
1.59279e-13
1.72536e-13
1.86032e-13
1.99758e-13
2.13704e-13
2.27859e-13
2.4221e-13
2.56744e-13
2.71448e-13
2.86307e-13
3.01309e-13
3.16436e-13
3.31675e-13
3.4701e-13
3.62427e-13
3.77909e-13
3.93442e-13
4.0901e-13
4.24599e-13
4.40194e-13
4.55782e-13
4.71348e-13
4.86879e-13
5.02364e-13
5.17793e-13
5.33152e-13
5.48434e-13
5.6363e-13
5.78731e-13
5.93729e-13
6.08622e-13
6.23403e-13
6.38068e-13
6.52611e-13
6.6703e-13
6.81328e-13
6.95501e-13
7.0955e-13
7.23474e-13
7.37276e-13
7.50956e-13
7.64517e-13
7.7796e-13
7.91288e-13
8.04502e-13
8.17604e-13
8.30597e-13
8.43488e-13
8.5628e-13
8.68976e-13
8.81579e-13
8.9409e-13
9.06512e-13
9.18849e-13
9.311e-13
9.43265e-13
9.55349e-13
9.67358e-13
9.79291e-13
9.9115e-13
1.00294e-12
1.01466e-12
1.02631e-12
1.03789e-12
1.0494e-12
1.06085e-12
1.07221e-12
1.08351e-12
1.09474e-12
1.1059e-12
1.117e-12
1.12803e-12
1.13899e-12
1.14989e-12
1.16072e-12
1.17147e-12
1.18215e-12
1.19275e-12
1.20328e-12
1.21373e-12
1.22411e-12
1.23441e-12
1.24464e-12
1.25479e-12
1.26486e-12
1.27486e-12
)
;
    }
    inandouthalf21
    {
        type            cyclic;
        value           nonuniform List<scalar> 
100
(
-1.28478e-12
-1.29461e-12
-1.30437e-12
-1.31404e-12
-1.32364e-12
-1.33316e-12
-1.3426e-12
-1.35198e-12
-1.3613e-12
-1.37057e-12
-1.3798e-12
-1.38899e-12
-1.39816e-12
-1.40732e-12
-1.41648e-12
-1.42564e-12
-1.4348e-12
-1.44396e-12
-1.4531e-12
-1.4622e-12
-1.47123e-12
-1.48015e-12
-1.48894e-12
-1.49759e-12
-1.5061e-12
-1.51452e-12
-1.52295e-12
-1.53153e-12
-1.54047e-12
-1.55005e-12
-1.56055e-12
-1.5722e-12
-1.58503e-12
-1.59863e-12
-1.61188e-12
-1.62305e-12
-1.63063e-12
-1.63446e-12
-1.63585e-12
-1.6363e-12
-1.6366e-12
-1.63717e-12
-1.65285e-12
-1.78858e-12
-1.03007e-07
-2.17477e-07
-3.16817e-07
-4.03565e-07
-4.80449e-07
-5.49426e-07
-6.11902e-07
-6.68918e-07
-7.21422e-07
-7.69893e-07
-8.148e-07
-8.56553e-07
-8.95502e-07
-9.31946e-07
-9.66142e-07
-9.98309e-07
-1.02864e-06
-1.0573e-06
-1.08444e-06
-1.11017e-06
-1.13463e-06
-1.15789e-06
-1.18006e-06
-1.2012e-06
-1.22139e-06
-1.24068e-06
-1.25913e-06
-1.27678e-06
-1.29366e-06
-1.30982e-06
-1.32527e-06
-1.34004e-06
-1.35414e-06
-1.36759e-06
-1.38039e-06
-1.39255e-06
-1.40406e-06
-1.41493e-06
-1.42514e-06
-1.4347e-06
-1.4436e-06
-1.45184e-06
-1.45941e-06
-1.46633e-06
-1.47259e-06
-1.47821e-06
-1.48323e-06
-1.48766e-06
-1.49155e-06
-1.49495e-06
-1.49791e-06
-1.50048e-06
-1.50271e-06
-1.50467e-06
-1.50639e-06
-1.5079e-06
)
;
    }
    inandouthalf22
    {
        type            cyclic;
        value           nonuniform List<scalar> 
100
(
1.28478e-12
1.29461e-12
1.30437e-12
1.31404e-12
1.32364e-12
1.33316e-12
1.3426e-12
1.35198e-12
1.3613e-12
1.37057e-12
1.3798e-12
1.38899e-12
1.39816e-12
1.40732e-12
1.41648e-12
1.42564e-12
1.4348e-12
1.44396e-12
1.4531e-12
1.4622e-12
1.47123e-12
1.48015e-12
1.48894e-12
1.49759e-12
1.5061e-12
1.51452e-12
1.52295e-12
1.53153e-12
1.54047e-12
1.55005e-12
1.56055e-12
1.5722e-12
1.58503e-12
1.59863e-12
1.61188e-12
1.62305e-12
1.63063e-12
1.63446e-12
1.63585e-12
1.6363e-12
1.6366e-12
1.63717e-12
1.65285e-12
1.78858e-12
1.03007e-07
2.17477e-07
3.16817e-07
4.03565e-07
4.80449e-07
5.49426e-07
6.11902e-07
6.68918e-07
7.21422e-07
7.69893e-07
8.148e-07
8.56553e-07
8.95502e-07
9.31946e-07
9.66142e-07
9.98309e-07
1.02864e-06
1.0573e-06
1.08444e-06
1.11017e-06
1.13463e-06
1.15789e-06
1.18006e-06
1.2012e-06
1.22139e-06
1.24068e-06
1.25913e-06
1.27678e-06
1.29366e-06
1.30982e-06
1.32527e-06
1.34004e-06
1.35414e-06
1.36759e-06
1.38039e-06
1.39255e-06
1.40406e-06
1.41493e-06
1.42514e-06
1.4347e-06
1.4436e-06
1.45184e-06
1.45941e-06
1.46633e-06
1.47259e-06
1.47821e-06
1.48323e-06
1.48766e-06
1.49155e-06
1.49495e-06
1.49791e-06
1.50048e-06
1.50271e-06
1.50467e-06
1.50639e-06
1.5079e-06
)
;
    }
    inandouthalf31
    {
        type            cyclic;
        value           nonuniform List<scalar> 
110
(
-1.50924e-06
-1.5411e-06
-1.57351e-06
-1.60649e-06
-1.64006e-06
-1.67424e-06
-1.70904e-06
-1.74448e-06
-1.78058e-06
-1.81735e-06
-1.85482e-06
-1.89299e-06
-1.93189e-06
-1.97153e-06
-2.01193e-06
-2.05311e-06
-2.09509e-06
-2.13788e-06
-2.18151e-06
-2.22599e-06
-2.27135e-06
-2.31761e-06
-2.36478e-06
-2.41289e-06
-2.46195e-06
-2.512e-06
-2.56305e-06
-2.61513e-06
-2.66825e-06
-2.72244e-06
-2.77773e-06
-2.83414e-06
-2.89169e-06
-2.95041e-06
-3.01033e-06
-3.07147e-06
-3.13389e-06
-3.21327e-06
-3.27574e-06
-3.3378e-06
-3.40079e-06
-3.46495e-06
-3.53027e-06
-3.59661e-06
-3.66433e-06
-3.73309e-06
-3.80356e-06
-3.87451e-06
-3.94721e-06
-4.02216e-06
-4.09728e-06
-4.17449e-06
-4.25321e-06
-4.33358e-06
-4.41566e-06
-4.49955e-06
-4.58535e-06
-4.67316e-06
-4.76311e-06
-4.85535e-06
-4.95e-06
-5.04724e-06
-5.14718e-06
-5.25005e-06
-5.35594e-06
-5.46471e-06
-5.57623e-06
-5.68964e-06
-5.80513e-06
-5.92296e-06
-6.04318e-06
-6.16584e-06
-6.29099e-06
-6.41869e-06
-6.54897e-06
-6.68189e-06
-6.81752e-06
-6.9559e-06
-7.09708e-06
-7.24113e-06
-7.38811e-06
-7.53807e-06
-7.69107e-06
-7.84718e-06
-8.00646e-06
-8.16897e-06
-8.33477e-06
-8.50395e-06
-8.67656e-06
-8.85267e-06
-9.03235e-06
-9.21569e-06
-9.40274e-06
-9.59359e-06
-9.78831e-06
-9.98699e-06
-1.01897e-05
-1.03965e-05
-1.06075e-05
-1.08229e-05
-1.10425e-05
-1.12667e-05
-1.14953e-05
-1.17287e-05
-1.19667e-05
-1.22096e-05
-1.24574e-05
-1.27103e-05
-1.29683e-05
-1.32315e-05
)
;
    }
    inandouthalf32
    {
        type            cyclic;
        value           nonuniform List<scalar> 
110
(
1.50924e-06
1.5411e-06
1.57351e-06
1.60649e-06
1.64006e-06
1.67424e-06
1.70904e-06
1.74448e-06
1.78058e-06
1.81735e-06
1.85482e-06
1.89299e-06
1.93189e-06
1.97153e-06
2.01193e-06
2.05311e-06
2.09509e-06
2.13788e-06
2.18151e-06
2.22599e-06
2.27135e-06
2.31761e-06
2.36478e-06
2.41289e-06
2.46195e-06
2.512e-06
2.56305e-06
2.61513e-06
2.66825e-06
2.72244e-06
2.77773e-06
2.83414e-06
2.89169e-06
2.95041e-06
3.01033e-06
3.07147e-06
3.13389e-06
3.21327e-06
3.27574e-06
3.3378e-06
3.40079e-06
3.46495e-06
3.53027e-06
3.59661e-06
3.66433e-06
3.73309e-06
3.80356e-06
3.87451e-06
3.94721e-06
4.02216e-06
4.09728e-06
4.17449e-06
4.25321e-06
4.33358e-06
4.41566e-06
4.49955e-06
4.58535e-06
4.67316e-06
4.76311e-06
4.85535e-06
4.95e-06
5.04724e-06
5.14718e-06
5.25005e-06
5.35594e-06
5.46471e-06
5.57623e-06
5.68964e-06
5.80513e-06
5.92296e-06
6.04318e-06
6.16584e-06
6.29099e-06
6.41869e-06
6.54897e-06
6.68189e-06
6.81752e-06
6.9559e-06
7.09708e-06
7.24113e-06
7.38811e-06
7.53807e-06
7.69107e-06
7.84718e-06
8.00646e-06
8.16897e-06
8.33477e-06
8.50395e-06
8.67656e-06
8.85267e-06
9.03235e-06
9.21569e-06
9.40274e-06
9.59359e-06
9.78831e-06
9.98699e-06
1.01897e-05
1.03965e-05
1.06075e-05
1.08229e-05
1.10425e-05
1.12667e-05
1.14953e-05
1.17287e-05
1.19667e-05
1.22096e-05
1.24574e-05
1.27103e-05
1.29683e-05
1.32315e-05
)
;
    }
    inandouthalf41
    {
        type            cyclic;
        value           nonuniform List<scalar> 
50
(
-1.18435e-05
-1.18435e-05
-1.18435e-05
-1.18435e-05
-1.18435e-05
-1.18435e-05
-1.18435e-05
-1.18435e-05
-1.18435e-05
-1.18435e-05
-1.18435e-05
-1.18435e-05
-1.18435e-05
-1.18435e-05
-1.18435e-05
-1.18435e-05
-1.18435e-05
-1.18435e-05
-1.18435e-05
-1.18435e-05
-1.18435e-05
-1.18435e-05
-1.18435e-05
-1.18435e-05
-1.18435e-05
-1.18435e-05
-1.18435e-05
-1.18435e-05
-1.18435e-05
-1.18435e-05
-1.18435e-05
-1.18435e-05
-1.18435e-05
-1.18435e-05
-1.18435e-05
-1.18435e-05
-1.18435e-05
-1.18435e-05
-1.18435e-05
-1.18435e-05
-1.18435e-05
-1.18435e-05
-1.18435e-05
-1.18435e-05
-1.18435e-05
-1.18435e-05
-1.18435e-05
-1.18435e-05
-1.18435e-05
-1.18421e-05
)
;
    }
    inandouthalf42
    {
        type            cyclic;
        value           nonuniform List<scalar> 
50
(
1.18435e-05
1.18435e-05
1.18435e-05
1.18435e-05
1.18435e-05
1.18435e-05
1.18435e-05
1.18435e-05
1.18435e-05
1.18435e-05
1.18435e-05
1.18435e-05
1.18435e-05
1.18435e-05
1.18435e-05
1.18435e-05
1.18435e-05
1.18435e-05
1.18435e-05
1.18435e-05
1.18435e-05
1.18435e-05
1.18435e-05
1.18435e-05
1.18435e-05
1.18435e-05
1.18435e-05
1.18435e-05
1.18435e-05
1.18435e-05
1.18435e-05
1.18435e-05
1.18435e-05
1.18435e-05
1.18435e-05
1.18435e-05
1.18435e-05
1.18435e-05
1.18435e-05
1.18435e-05
1.18435e-05
1.18435e-05
1.18435e-05
1.18435e-05
1.18435e-05
1.18435e-05
1.18435e-05
1.18435e-05
1.18435e-05
1.18421e-05
)
;
    }
    top
    {
        type            symmetryPlane;
        value           uniform 0;
    }
    walls
    {
        type            fixedValue;
        value           uniform 0;
    }
    frontAndBackPlanes
    {
        type            empty;
        value           nonuniform 0();
    }
}


// ************************************************************************* //
