/*--------------------------------*- C++ -*----------------------------------*\
| =========                 |                                                 |
| \\      /  F ield         | OpenFOAM: The Open Source CFD Toolbox           |
|  \\    /   O peration     | Version:  2.4.x                                 |
|   \\  /    A nd           | Web:      www.OpenFOAM.org                      |
|    \\/     M anipulation  |                                                 |
\*---------------------------------------------------------------------------*/
FoamFile
{
    version     2.0;
    format      ascii;
    class       surfaceScalarField;
    location    "8.95";
    object      phib_0;
}
// * * * * * * * * * * * * * * * * * * * * * * * * * * * * * * * * * * * * * //

dimensions      [0 3 -1 0 0 0 0];

internalField   nonuniform List<scalar> 
359
(
1.26739e-13
3.18997e-13
4.99019e-13
6.74516e-13
8.57349e-13
1.04658e-12
1.23933e-12
1.43489e-12
1.63349e-12
1.83557e-12
2.04131e-12
2.25068e-12
2.46359e-12
2.67992e-12
2.89956e-12
3.12241e-12
3.34833e-12
3.57715e-12
3.80864e-12
4.04265e-12
4.27887e-12
4.51713e-12
4.75719e-12
4.99879e-12
5.2417e-12
5.48566e-12
5.7304e-12
5.9757e-12
6.22132e-12
6.46698e-12
6.71242e-12
6.95749e-12
7.20182e-12
7.44535e-12
7.68774e-12
7.92885e-12
8.16843e-12
8.40635e-12
8.6425e-12
8.87658e-12
9.10861e-12
9.3384e-12
9.56578e-12
9.79079e-12
1.00133e-11
1.02332e-11
1.04506e-11
1.06652e-11
1.08772e-11
1.10866e-11
1.12932e-11
1.14973e-11
1.16986e-11
1.18974e-11
1.20936e-11
1.22873e-11
1.24784e-11
1.26672e-11
1.28535e-11
1.30373e-11
1.32189e-11
1.33982e-11
1.35753e-11
1.37503e-11
1.39232e-11
1.4094e-11
1.42627e-11
1.44294e-11
1.45942e-11
1.47569e-11
1.49177e-11
1.50767e-11
1.52337e-11
1.5389e-11
1.55424e-11
1.56941e-11
1.58439e-11
1.5992e-11
1.61381e-11
1.62825e-11
1.6425e-11
1.65657e-11
1.67046e-11
1.68416e-11
1.69769e-11
1.71103e-11
1.7242e-11
1.73718e-11
1.74996e-11
1.76256e-11
1.77496e-11
1.78716e-11
1.79916e-11
1.81096e-11
1.82257e-11
1.83398e-11
1.84518e-11
1.85618e-11
1.86697e-11
1.87755e-11
1.88793e-11
1.89808e-11
1.90802e-11
1.91775e-11
1.92726e-11
1.93656e-11
1.94564e-11
1.95452e-11
1.9632e-11
1.97168e-11
1.97997e-11
1.98808e-11
1.99601e-11
2.00377e-11
2.01136e-11
2.01877e-11
2.02599e-11
2.03302e-11
2.03982e-11
2.04636e-11
2.05263e-11
2.05858e-11
2.06419e-11
2.06946e-11
2.07441e-11
2.07908e-11
2.08355e-11
2.0879e-11
2.09228e-11
2.09681e-11
2.1016e-11
2.10665e-11
2.11179e-11
2.11655e-11
2.12027e-11
2.1223e-11
2.12241e-11
2.12098e-11
2.11857e-11
2.11563e-11
2.11238e-11
2.10692e-11
1.60975e-11
-1.77268e-09
-2.31359e-09
-2.50601e-09
-2.59506e-09
-2.62564e-09
-2.61778e-09
-2.58237e-09
-2.52588e-09
-2.45012e-09
-2.36261e-09
-2.26869e-09
-2.17134e-09
-2.07266e-09
-1.97416e-09
-1.87693e-09
-1.7817e-09
-1.68894e-09
-1.59894e-09
-1.5118e-09
-1.42754e-09
-1.34611e-09
-1.2674e-09
-1.19132e-09
-1.11776e-09
-1.04661e-09
-9.77793e-10
-9.11258e-10
-8.4697e-10
-7.84917e-10
-7.2511e-10
-6.67576e-10
-6.12357e-10
-5.59505e-10
-5.09077e-10
-4.61134e-10
-4.15732e-10
-3.72925e-10
-3.32755e-10
-2.95251e-10
-2.6043e-10
-2.28286e-10
-1.98799e-10
-1.71928e-10
-1.47613e-10
-1.25772e-10
-1.06289e-10
-8.90102e-11
-7.37564e-11
-6.03674e-11
-4.87464e-11
-3.88599e-11
-3.06829e-11
-2.41297e-11
-1.90242e-11
-1.51241e-11
-1.21713e-11
-9.93284e-12
-8.22154e-12
-6.87289e-12
-5.79879e-12
-4.93346e-12
-4.22829e-12
-3.64732e-12
-3.16375e-12
-2.75734e-12
-2.41269e-12
-2.11794e-12
-1.86385e-12
-1.64318e-12
-1.45011e-12
-1.28003e-12
-1.12931e-12
-9.95018e-13
-8.74792e-13
-7.66793e-13
-6.69652e-13
-5.82271e-13
-5.0377e-13
-4.33521e-13
-3.70991e-13
-3.15659e-13
-2.67002e-13
-2.24535e-13
-1.87713e-13
-1.56033e-13
-1.28921e-13
-1.05904e-13
-8.65387e-14
-7.01805e-14
-5.65586e-14
-4.56842e-14
-3.57192e-14
-2.88895e-14
-2.08841e-14
-1.56192e-14
-1.12837e-14
-8.0269e-15
-5.62578e-15
-3.8674e-15
-2.61282e-15
-1.69008e-15
-1.11434e-15
-6.04856e-16
-4.16046e-16
6.02598e-17
-5.51785e-18
-5.4573e-18
-5.36182e-18
-5.2749e-18
-5.14969e-18
-5.03268e-18
-4.88204e-18
-4.74082e-18
-4.57103e-18
-4.41162e-18
-4.22796e-18
-4.05373e-18
-3.86597e-18
-3.69231e-18
-3.51691e-18
-3.37011e-18
-3.24425e-18
-3.1469e-18
-3.06805e-18
-2.99456e-18
-2.92919e-18
-2.86829e-18
-2.80596e-18
-2.74744e-18
-2.70442e-18
-2.65923e-18
-2.60991e-18
-2.54744e-18
-2.48948e-18
-2.4146e-18
-2.33684e-18
-2.25135e-18
-2.19609e-18
-2.13224e-18
-2.06764e-18
-1.97963e-18
-1.90206e-18
-1.79678e-18
-1.68899e-18
-1.55373e-18
-1.44605e-18
-1.31773e-18
-1.18525e-18
-1.0271e-18
-8.83536e-19
-7.22976e-19
-5.72095e-19
-4.46163e-19
-2.63016e-19
-2.26681e-19
-2.04585e-19
-2.52009e-20
-1.33796e-20
6.56616e-21
2.41528e-20
4.92636e-20
5.691e-20
7.29085e-20
8.81899e-20
1.13169e-19
1.3165e-19
1.59204e-19
1.84294e-19
2.1455e-19
2.35942e-19
2.59928e-19
2.83209e-19
3.11486e-19
3.37353e-19
3.65115e-19
3.94659e-19
4.2721e-19
4.687e-19
5.10893e-19
5.54743e-19
5.99509e-19
6.59256e-19
7.2596e-19
8.24218e-19
1.02756e-18
1.38962e-18
1.83631e-18
2.31111e-18
2.73935e-18
3.23707e-18
3.63853e-18
4.04736e-18
4.34621e-18
4.86961e-18
5.23311e-18
5.59732e-18
5.73629e-18
6.06803e-18
6.12222e-18
6.20331e-18
6.06649e-18
6.54082e-18
6.70822e-18
6.89044e-18
6.60235e-18
6.65147e-18
6.17416e-18
5.68522e-18
4.89146e-18
4.27207e-18
3.38506e-18
2.47123e-18
1.59524e-18
-2.31309e-19
-5.606e-19
1.72974e-19
)
;

boundaryField
{
    inandouthalf11
    {
        type            cyclic;
        value           nonuniform List<scalar> 
100
(
-5.21676e-11
-5.18915e-11
-5.18615e-11
-5.19099e-11
-5.19388e-11
-5.19555e-11
-5.19741e-11
-5.19949e-11
-5.20163e-11
-5.20381e-11
-5.20603e-11
-5.20827e-11
-5.21055e-11
-5.21286e-11
-5.21521e-11
-5.2176e-11
-5.22003e-11
-5.22248e-11
-5.22497e-11
-5.2275e-11
-5.23005e-11
-5.23263e-11
-5.23524e-11
-5.23788e-11
-5.24055e-11
-5.24324e-11
-5.24594e-11
-5.24868e-11
-5.25143e-11
-5.25421e-11
-5.25699e-11
-5.25981e-11
-5.26262e-11
-5.26546e-11
-5.2683e-11
-5.27117e-11
-5.27403e-11
-5.27691e-11
-5.2798e-11
-5.28268e-11
-5.28559e-11
-5.2885e-11
-5.2914e-11
-5.29432e-11
-5.29724e-11
-5.30016e-11
-5.3031e-11
-5.30602e-11
-5.30896e-11
-5.31192e-11
-5.31485e-11
-5.31781e-11
-5.32077e-11
-5.32374e-11
-5.3267e-11
-5.32969e-11
-5.33267e-11
-5.33568e-11
-5.33868e-11
-5.34169e-11
-5.34473e-11
-5.34776e-11
-5.35082e-11
-5.35389e-11
-5.35697e-11
-5.36007e-11
-5.36318e-11
-5.36632e-11
-5.36947e-11
-5.37262e-11
-5.37582e-11
-5.37904e-11
-5.38225e-11
-5.38552e-11
-5.38879e-11
-5.3921e-11
-5.39543e-11
-5.39878e-11
-5.40217e-11
-5.40558e-11
-5.40902e-11
-5.41249e-11
-5.416e-11
-5.41954e-11
-5.42311e-11
-5.42672e-11
-5.43037e-11
-5.43405e-11
-5.43777e-11
-5.44154e-11
-5.44535e-11
-5.4492e-11
-5.45309e-11
-5.45704e-11
-5.46104e-11
-5.46508e-11
-5.46918e-11
-5.47334e-11
-5.47756e-11
-5.48183e-11
)
;
    }
    inandouthalf12
    {
        type            cyclic;
        value           nonuniform List<scalar> 
100
(
5.21676e-11
5.18915e-11
5.18615e-11
5.19099e-11
5.19388e-11
5.19555e-11
5.19741e-11
5.19949e-11
5.20163e-11
5.20381e-11
5.20603e-11
5.20827e-11
5.21055e-11
5.21286e-11
5.21521e-11
5.2176e-11
5.22003e-11
5.22248e-11
5.22497e-11
5.2275e-11
5.23005e-11
5.23263e-11
5.23524e-11
5.23788e-11
5.24055e-11
5.24324e-11
5.24594e-11
5.24868e-11
5.25143e-11
5.25421e-11
5.25699e-11
5.25981e-11
5.26262e-11
5.26546e-11
5.2683e-11
5.27117e-11
5.27403e-11
5.27691e-11
5.2798e-11
5.28268e-11
5.28559e-11
5.2885e-11
5.2914e-11
5.29432e-11
5.29724e-11
5.30016e-11
5.3031e-11
5.30602e-11
5.30896e-11
5.31192e-11
5.31485e-11
5.31781e-11
5.32077e-11
5.32374e-11
5.3267e-11
5.32969e-11
5.33267e-11
5.33568e-11
5.33868e-11
5.34169e-11
5.34473e-11
5.34776e-11
5.35082e-11
5.35389e-11
5.35697e-11
5.36007e-11
5.36318e-11
5.36632e-11
5.36947e-11
5.37262e-11
5.37582e-11
5.37904e-11
5.38225e-11
5.38552e-11
5.38879e-11
5.3921e-11
5.39543e-11
5.39878e-11
5.40217e-11
5.40558e-11
5.40902e-11
5.41249e-11
5.416e-11
5.41954e-11
5.42311e-11
5.42672e-11
5.43037e-11
5.43405e-11
5.43777e-11
5.44154e-11
5.44535e-11
5.4492e-11
5.45309e-11
5.45704e-11
5.46104e-11
5.46508e-11
5.46918e-11
5.47334e-11
5.47756e-11
5.48183e-11
)
;
    }
    inandouthalf21
    {
        type            cyclic;
        value           nonuniform List<scalar> 
100
(
-5.48617e-11
-5.49058e-11
-5.49505e-11
-5.4996e-11
-5.50422e-11
-5.50892e-11
-5.5137e-11
-5.51857e-11
-5.52354e-11
-5.5286e-11
-5.53376e-11
-5.53903e-11
-5.54441e-11
-5.54992e-11
-5.55555e-11
-5.56131e-11
-5.56721e-11
-5.57326e-11
-5.57946e-11
-5.58581e-11
-5.59233e-11
-5.59902e-11
-5.60589e-11
-5.61295e-11
-5.6202e-11
-5.62768e-11
-5.6354e-11
-5.64341e-11
-5.65174e-11
-5.66046e-11
-5.6696e-11
-5.67921e-11
-5.68932e-11
-5.7e-11
-5.71124e-11
-5.72286e-11
-5.73467e-11
-5.74683e-11
-5.76006e-11
-5.77513e-11
-5.7915e-11
-5.80868e-11
-6.97366e-11
-3.21325e-09
-1.13671e-07
-2.2711e-07
-3.24989e-07
-4.10712e-07
-4.86878e-07
-5.55333e-07
-6.17427e-07
-6.74184e-07
-7.26328e-07
-7.74456e-07
-8.19056e-07
-8.60541e-07
-8.99255e-07
-9.35497e-07
-9.6952e-07
-1.00154e-06
-1.03176e-06
-1.06033e-06
-1.0874e-06
-1.1131e-06
-1.13755e-06
-1.16083e-06
-1.18305e-06
-1.20427e-06
-1.22457e-06
-1.244e-06
-1.26263e-06
-1.2805e-06
-1.29765e-06
-1.31412e-06
-1.32995e-06
-1.34515e-06
-1.35977e-06
-1.37381e-06
-1.38731e-06
-1.40026e-06
-1.4127e-06
-1.42462e-06
-1.43604e-06
-1.44696e-06
-1.45737e-06
-1.46729e-06
-1.47671e-06
-1.48562e-06
-1.49402e-06
-1.50189e-06
-1.50924e-06
-1.51604e-06
-1.52229e-06
-1.528e-06
-1.53315e-06
-1.53775e-06
-1.54182e-06
-1.54537e-06
-1.54845e-06
-1.55107e-06
)
;
    }
    inandouthalf22
    {
        type            cyclic;
        value           nonuniform List<scalar> 
100
(
5.48617e-11
5.49058e-11
5.49505e-11
5.4996e-11
5.50422e-11
5.50892e-11
5.5137e-11
5.51857e-11
5.52354e-11
5.5286e-11
5.53376e-11
5.53903e-11
5.54441e-11
5.54992e-11
5.55555e-11
5.56131e-11
5.56721e-11
5.57326e-11
5.57946e-11
5.58581e-11
5.59233e-11
5.59902e-11
5.60589e-11
5.61295e-11
5.6202e-11
5.62768e-11
5.6354e-11
5.64341e-11
5.65174e-11
5.66046e-11
5.6696e-11
5.67921e-11
5.68932e-11
5.7e-11
5.71124e-11
5.72286e-11
5.73467e-11
5.74683e-11
5.76006e-11
5.77513e-11
5.7915e-11
5.80868e-11
6.97366e-11
3.21325e-09
1.13671e-07
2.2711e-07
3.24989e-07
4.10712e-07
4.86878e-07
5.55333e-07
6.17427e-07
6.74184e-07
7.26328e-07
7.74456e-07
8.19056e-07
8.60541e-07
8.99255e-07
9.35497e-07
9.6952e-07
1.00154e-06
1.03176e-06
1.06033e-06
1.0874e-06
1.1131e-06
1.13755e-06
1.16083e-06
1.18305e-06
1.20427e-06
1.22457e-06
1.244e-06
1.26263e-06
1.2805e-06
1.29765e-06
1.31412e-06
1.32995e-06
1.34515e-06
1.35977e-06
1.37381e-06
1.38731e-06
1.40026e-06
1.4127e-06
1.42462e-06
1.43604e-06
1.44696e-06
1.45737e-06
1.46729e-06
1.47671e-06
1.48562e-06
1.49402e-06
1.50189e-06
1.50924e-06
1.51604e-06
1.52229e-06
1.528e-06
1.53315e-06
1.53775e-06
1.54182e-06
1.54537e-06
1.54845e-06
1.55107e-06
)
;
    }
    inandouthalf31
    {
        type            cyclic;
        value           nonuniform List<scalar> 
110
(
-1.55329e-06
-1.58672e-06
-1.62055e-06
-1.6548e-06
-1.6895e-06
-1.72468e-06
-1.76036e-06
-1.79658e-06
-1.83334e-06
-1.87069e-06
-1.90863e-06
-1.94719e-06
-1.98639e-06
-2.02625e-06
-2.06679e-06
-2.10801e-06
-2.14993e-06
-2.19258e-06
-2.23596e-06
-2.28008e-06
-2.32497e-06
-2.37063e-06
-2.41707e-06
-2.46431e-06
-2.51237e-06
-2.56126e-06
-2.61098e-06
-2.66156e-06
-2.713e-06
-2.76533e-06
-2.81856e-06
-2.8727e-06
-2.92777e-06
-2.98378e-06
-3.04076e-06
-3.09871e-06
-3.15767e-06
-3.21765e-06
-3.27866e-06
-3.34073e-06
-3.40389e-06
-3.46816e-06
-3.53356e-06
-3.60013e-06
-3.66789e-06
-3.73687e-06
-3.80712e-06
-3.87866e-06
-3.95154e-06
-4.02582e-06
-4.10153e-06
-4.17874e-06
-4.25751e-06
-4.33791e-06
-4.42002e-06
-4.50392e-06
-4.58972e-06
-4.67752e-06
-4.76744e-06
-4.85963e-06
-4.95422e-06
-5.05138e-06
-5.15126e-06
-5.254e-06
-5.35973e-06
-5.46849e-06
-5.58006e-06
-5.69361e-06
-5.80919e-06
-5.92711e-06
-6.04741e-06
-6.17016e-06
-6.29539e-06
-6.42318e-06
-6.55355e-06
-6.68657e-06
-6.82229e-06
-6.96076e-06
-7.10205e-06
-7.2462e-06
-7.39328e-06
-7.54334e-06
-7.69645e-06
-7.85267e-06
-8.01206e-06
-8.17468e-06
-8.3406e-06
-8.5099e-06
-8.68262e-06
-8.85886e-06
-9.03867e-06
-9.22213e-06
-9.40932e-06
-9.6003e-06
-9.79516e-06
-9.99398e-06
-1.01968e-05
-1.04038e-05
-1.0615e-05
-1.08304e-05
-1.10502e-05
-1.12745e-05
-1.15034e-05
-1.17369e-05
-1.19751e-05
-1.22182e-05
-1.24662e-05
-1.27192e-05
-1.29774e-05
-1.32408e-05
)
;
    }
    inandouthalf32
    {
        type            cyclic;
        value           nonuniform List<scalar> 
110
(
1.55329e-06
1.58672e-06
1.62055e-06
1.6548e-06
1.6895e-06
1.72468e-06
1.76036e-06
1.79658e-06
1.83334e-06
1.87069e-06
1.90863e-06
1.94719e-06
1.98639e-06
2.02625e-06
2.06679e-06
2.10801e-06
2.14993e-06
2.19258e-06
2.23596e-06
2.28008e-06
2.32497e-06
2.37063e-06
2.41707e-06
2.46431e-06
2.51237e-06
2.56126e-06
2.61098e-06
2.66156e-06
2.713e-06
2.76533e-06
2.81856e-06
2.8727e-06
2.92777e-06
2.98378e-06
3.04076e-06
3.09871e-06
3.15767e-06
3.21765e-06
3.27866e-06
3.34073e-06
3.40389e-06
3.46816e-06
3.53356e-06
3.60013e-06
3.66789e-06
3.73687e-06
3.80712e-06
3.87866e-06
3.95154e-06
4.02582e-06
4.10153e-06
4.17874e-06
4.25751e-06
4.33791e-06
4.42002e-06
4.50392e-06
4.58972e-06
4.67752e-06
4.76744e-06
4.85963e-06
4.95422e-06
5.05138e-06
5.15126e-06
5.254e-06
5.35973e-06
5.46849e-06
5.58006e-06
5.69361e-06
5.80919e-06
5.92711e-06
6.04741e-06
6.17016e-06
6.29539e-06
6.42318e-06
6.55355e-06
6.68657e-06
6.82229e-06
6.96076e-06
7.10205e-06
7.2462e-06
7.39328e-06
7.54334e-06
7.69645e-06
7.85267e-06
8.01206e-06
8.17468e-06
8.3406e-06
8.5099e-06
8.68262e-06
8.85886e-06
9.03867e-06
9.22213e-06
9.40932e-06
9.6003e-06
9.79516e-06
9.99398e-06
1.01968e-05
1.04038e-05
1.0615e-05
1.08304e-05
1.10502e-05
1.12745e-05
1.15034e-05
1.17369e-05
1.19751e-05
1.22182e-05
1.24662e-05
1.27192e-05
1.29774e-05
1.32408e-05
)
;
    }
    inandouthalf41
    {
        type            cyclic;
        value           nonuniform List<scalar> 
50
(
-1.18518e-05
-1.18518e-05
-1.18518e-05
-1.18518e-05
-1.18518e-05
-1.18518e-05
-1.18518e-05
-1.18518e-05
-1.18518e-05
-1.18518e-05
-1.18518e-05
-1.18518e-05
-1.18518e-05
-1.18518e-05
-1.18518e-05
-1.18518e-05
-1.18518e-05
-1.18518e-05
-1.18518e-05
-1.18518e-05
-1.18518e-05
-1.18518e-05
-1.18518e-05
-1.18518e-05
-1.18518e-05
-1.18518e-05
-1.18518e-05
-1.18518e-05
-1.18518e-05
-1.18518e-05
-1.18518e-05
-1.18518e-05
-1.18518e-05
-1.18518e-05
-1.18518e-05
-1.18518e-05
-1.18518e-05
-1.18518e-05
-1.18518e-05
-1.18518e-05
-1.18518e-05
-1.18518e-05
-1.18518e-05
-1.18518e-05
-1.18518e-05
-1.18518e-05
-1.18518e-05
-1.18518e-05
-1.18518e-05
-1.18518e-05
)
;
    }
    inandouthalf42
    {
        type            cyclic;
        value           nonuniform List<scalar> 
50
(
1.18518e-05
1.18518e-05
1.18518e-05
1.18518e-05
1.18518e-05
1.18518e-05
1.18518e-05
1.18518e-05
1.18518e-05
1.18518e-05
1.18518e-05
1.18518e-05
1.18518e-05
1.18518e-05
1.18518e-05
1.18518e-05
1.18518e-05
1.18518e-05
1.18518e-05
1.18518e-05
1.18518e-05
1.18518e-05
1.18518e-05
1.18518e-05
1.18518e-05
1.18518e-05
1.18518e-05
1.18518e-05
1.18518e-05
1.18518e-05
1.18518e-05
1.18518e-05
1.18518e-05
1.18518e-05
1.18518e-05
1.18518e-05
1.18518e-05
1.18518e-05
1.18518e-05
1.18518e-05
1.18518e-05
1.18518e-05
1.18518e-05
1.18518e-05
1.18518e-05
1.18518e-05
1.18518e-05
1.18518e-05
1.18518e-05
1.18518e-05
)
;
    }
    top
    {
        type            symmetryPlane;
        value           uniform 0;
    }
    walls
    {
        type            fixedValue;
        value           uniform 0;
    }
    frontAndBackPlanes
    {
        type            empty;
        value           nonuniform 0();
    }
}


// ************************************************************************* //
