/*--------------------------------*- C++ -*----------------------------------*\
| =========                 |                                                 |
| \\      /  F ield         | OpenFOAM: The Open Source CFD Toolbox           |
|  \\    /   O peration     | Version:  2.4.x                                 |
|   \\  /    A nd           | Web:      www.OpenFOAM.org                      |
|    \\/     M anipulation  |                                                 |
\*---------------------------------------------------------------------------*/
FoamFile
{
    version     2.0;
    format      ascii;
    class       volVectorField;
    location    "8.95";
    object      susb;
}
// * * * * * * * * * * * * * * * * * * * * * * * * * * * * * * * * * * * * * //

dimensions      [0 1 -2 0 0 0 0];

internalField   nonuniform List<vector> 
360
(
(0 5.93623e-18 0)
(0 6.61941e-18 0)
(0 3.18627e-20 0)
(0 -9.15726e-19 0)
(-3.69826e-31 -3.9516e-19 0)
(-3.69791e-31 -2.15388e-19 0)
(-3.69749e-31 -2.72475e-19 0)
(0 -3.11671e-19 0)
(-3.69637e-31 -3.18473e-19 0)
(0 -3.225e-19 0)
(-3.69521e-31 -3.24341e-19 0)
(0 -3.25982e-19 0)
(-3.69404e-31 -3.28982e-19 0)
(0 -3.3205e-19 0)
(0 -3.36048e-19 0)
(0 -3.40078e-19 0)
(0 -3.43253e-19 0)
(-3.69101e-31 -3.46071e-19 0)
(0 -3.50318e-19 0)
(0 -3.53254e-19 0)
(0 -3.56302e-19 0)
(-3.68847e-31 -3.6071e-19 0)
(0 -3.63857e-19 0)
(0 -3.67515e-19 0)
(0 -3.71246e-19 0)
(-3.68583e-31 -3.74204e-19 0)
(0 -3.78336e-19 0)
(0 -3.82618e-19 0)
(0 -3.85579e-19 0)
(0 -3.89066e-19 0)
(0 -3.94078e-19 0)
(0 -3.96515e-19 0)
(0 -4.01117e-19 0)
(0 -4.05805e-19 0)
(0 -4.08603e-19 0)
(3.67877e-31 -4.12789e-19 0)
(0 -4.16757e-19 0)
(0 -4.22873e-19 0)
(0 -4.24537e-19 0)
(0 -4.29381e-19 0)
(0 -4.36123e-19 0)
(0 -4.37124e-19 0)
(3.67341e-31 -4.43199e-19 0)
(0 -4.48736e-19 0)
(0 -4.52071e-19 0)
(0 -4.58743e-19 0)
(0 -4.61251e-19 0)
(0 -4.65441e-19 0)
(0 -4.74729e-19 0)
(0 -4.77695e-19 0)
(3.66677e-31 -4.81666e-19 0)
(0 -4.887e-19 0)
(0 -4.94325e-19 0)
(0 -4.98755e-19 0)
(0 -5.0577e-19 0)
(0 -5.11472e-19 0)
(0 -5.16852e-19 0)
(0 -5.24703e-19 0)
(0 -5.27686e-19 0)
(0 -5.36559e-19 0)
(0 -5.43505e-19 0)
(0 -5.49289e-19 0)
(0 -5.5749e-19 0)
(0 -5.63547e-19 0)
(0 -5.70549e-19 0)
(0 -5.78183e-19 0)
(0 -5.86983e-19 0)
(0 -5.94162e-19 0)
(0 -5.99828e-19 0)
(0 -6.09504e-19 0)
(0 -6.21115e-19 0)
(0 -6.26062e-19 0)
(0 -6.34659e-19 0)
(0 -6.45795e-19 0)
(0 -6.55358e-19 0)
(0 -6.64377e-19 0)
(0 -6.72477e-19 0)
(0 -6.83591e-19 0)
(0 -6.9454e-19 0)
(0 -7.04301e-19 0)
(0 -7.14996e-19 0)
(0 -7.2718e-19 0)
(0 -7.38744e-19 0)
(0 -7.50687e-19 0)
(0 -7.63015e-19 0)
(0 -7.75796e-19 0)
(0 -7.88725e-19 0)
(0 -8.01628e-19 0)
(0 -8.15507e-19 0)
(0 -8.29882e-19 0)
(0 -8.44487e-19 0)
(0 -8.59897e-19 0)
(0 -8.75996e-19 0)
(0 -8.92423e-19 0)
(0 -9.09381e-19 0)
(0 -9.26894e-19 0)
(0 -9.44926e-19 0)
(0 -9.63553e-19 0)
(0 -9.82907e-19 0)
(0 -1.00301e-18 0)
(0 -1.02389e-18 0)
(0 -1.04563e-18 0)
(0 -1.06823e-18 0)
(0 -1.09168e-18 0)
(0 -1.11603e-18 0)
(0 -1.14134e-18 0)
(0 -1.16763e-18 0)
(0 -1.19498e-18 0)
(0 -1.22343e-18 0)
(0 -1.25305e-18 0)
(0 -1.28389e-18 0)
(0 -1.31602e-18 0)
(0 -1.3495e-18 0)
(0 -1.38443e-18 0)
(0 -1.42089e-18 0)
(0 -1.45901e-18 0)
(0 -1.49891e-18 0)
(0 -1.54076e-18 0)
(0 -1.58474e-18 0)
(0 -1.63103e-18 0)
(0 -1.67984e-18 0)
(0 -1.73136e-18 0)
(0 -1.78575e-18 0)
(0 -1.84325e-18 0)
(0 -1.90426e-18 0)
(0 -1.96954e-18 0)
(0 -2.04019e-18 0)
(0 -2.11728e-18 0)
(0 -2.20097e-18 0)
(0 -1.8268e-18 0)
(0 -1.34392e-17 0)
(0 -1.35245e-16 0)
(0 -1.41598e-15 0)
(0 -1.54611e-14 0)
(0 -1.77707e-13 0)
(0 -2.17499e-12 0)
(0 -2.91182e-11 0)
(0 -4.44705e-10 0)
(0 -7.95141e-09 0)
(0 -1.60655e-07 0)
(0 -3.47251e-06 0)
(0 -0.00010498 0)
(0 -0.317207 0)
(0 -4.28306 0)
(0 -5.66066 0)
(0 -3.07316 0)
(0 -2.11909 0)
(0 -1.7716 0)
(0 -1.59531 0)
(0 -1.47702 0)
(0 -1.37981 0)
(0 -1.29501 0)
(0 -1.29137 0)
(0 -1.24589 0)
(0 -1.19013 0)
(0 -1.13025 0)
(0 -1.06825 0)
(0 -1.00518 0)
(0 -0.941827 0)
(0 -0.878891 0)
(0 -0.817027 0)
(0 -0.756798 0)
(0 -0.698671 0)
(0 -0.643036 0)
(0 -0.590131 0)
(0 -0.540129 0)
(0 -0.49315 0)
(0 -0.449206 0)
(0 -0.408258 0)
(0 -0.370228 0)
(0 -0.335012 0)
(0 -0.302479 0)
(0 -0.272495 0)
(0 -0.244914 0)
(0 -0.21959 0)
(0 -0.196384 0)
(0 -0.17516 0)
(0 -0.155787 0)
(0 -0.138143 0)
(0 -0.122111 0)
(0 -0.10758 0)
(0 -0.0944457 0)
(0 -0.08261 0)
(0 -0.0719784 0)
(0 -0.0624607 0)
(0 -0.0539709 0)
(0 -0.0464277 0)
(0 -0.03976 0)
(0 -0.0339118 0)
(0 -0.0288361 0)
(0 -0.0244706 0)
(0 -0.0207137 0)
(0 -0.0174298 0)
(0 -0.0144944 0)
(0 -0.0118452 0)
(0 -0.00949248 0)
(0 -0.00748139 0)
(0 -0.00584172 0)
(0 -0.00456107 0)
(0 -0.00359211 0)
(0 -0.00287 0)
(0 -0.00232889 0)
(-6.66888e-19 -0.00191843 0)
(0 -0.00160384 0)
(0 -0.00135906 0)
(7.11122e-19 -0.0011653 0)
(0 -0.00100931 0)
(-3.7028e-19 -0.000881729 0)
(0 -0.00077584 0)
(3.82699e-19 -0.00068683 0)
(0 -0.000611104 0)
(0 -0.00054604 0)
(0 -0.000489774 0)
(1.98039e-19 -0.000440656 0)
(0 -0.000397272 0)
(0 -0.000358619 0)
(0 -0.000323932 0)
(0 -0.00029236 0)
(0 -0.000263117 0)
(-9.61154e-20 -0.000235879 0)
(0 -0.00021039 0)
(-9.33531e-20 -0.000186259 0)
(0 -0.000163493 0)
(-4.49479e-20 -0.000142232 0)
(0 -0.000122633 0)
(0 -0.000104668 0)
(0 -8.85513e-05 0)
(0 -7.41526e-05 0)
(1.97363e-20 -6.16531e-05 0)
(1.91145e-20 -5.07229e-05 0)
(0 -4.12893e-05 0)
(0 -3.36712e-05 0)
(0 -2.70121e-05 0)
(0 -2.06846e-05 0)
(0 -1.83792e-05 0)
(0 -1.14983e-05 0)
(0 -7.36956e-06 0)
(0 -8.98949e-06 0)
(0 -7.43418e-06 0)
(0 -5.26396e-06 0)
(0 -3.84291e-06 0)
(0 -2.75134e-06 0)
(0 -1.96477e-06 0)
(-3.14969e-22 -1.34722e-06 0)
(3.11096e-22 -9.76041e-07 0)
(0 -6.15984e-07 0)
(0 -4.53336e-07 0)
(-3.33996e-23 -2.89001e-07 0)
(0 -1.06138e-07 0)
(0 -5.66325e-35 0)
(-7.17511e-63 -8.71565e-35 0)
(0 -2.77505e-47 0)
(0 -2.0259e-47 0)
(0 -6.77554e-48 0)
(0 -3.20141e-48 0)
(0 -1.22988e-48 0)
(0 -6.60343e-49 0)
(0 -4.07598e-49 0)
(0 -2.06812e-49 0)
(0 -8.00565e-50 0)
(0 -3.41916e-50 0)
(0 -1.53167e-50 0)
(0 -6.59785e-51 0)
(0 -2.48123e-51 0)
(0 -8.63158e-52 0)
(0 -2.44186e-52 0)
(4.46441e-69 -3.45989e-53 0)
(0 -1.01436e-54 0)
(0 -7.3986e-57 0)
(0 -4.42322e-59 0)
(0 -2.56078e-61 0)
(0 -1.44511e-63 0)
(0 -7.96496e-66 0)
(0 -4.14101e-68 0)
(0 -7.96801e-71 0)
(0 -4.0449e-72 0)
(0 -1.59979e-72 0)
(0 -6.18023e-73 0)
(0 -2.32997e-73 0)
(0 -8.56427e-74 0)
(0 -3.06612e-74 0)
(0 -1.06803e-74 0)
(0 -3.61552e-75 0)
(0 -1.18801e-75 0)
(0 -3.78408e-76 0)
(0 -1.16673e-76 0)
(4.31113e-93 -3.47682e-77 0)
(0 -9.99699e-78 0)
(0 -2.7685e-78 0)
(0 -7.36959e-79 0)
(0 -1.88158e-79 0)
(0 -4.59662e-80 0)
(0 -1.07162e-80 0)
(0 -2.37706e-81 0)
(0 -5.00036e-82 0)
(0 -9.93809e-83 0)
(1.68149e-99 -1.85824e-83 0)
(0 -3.25298e-84 0)
(0 -5.30146e-85 0)
(0 -7.99054e-86 0)
(0 -1.10513e-86 0)
(0 -1.3893e-87 0)
(0 -1.5691e-88 0)
(0 -1.56881e-89 0)
(0 -1.36214e-90 0)
(0 -1.00063e-91 0)
(0 -5.99055e-93 0)
(0 -2.75683e-94 0)
(0 -8.78531e-96 0)
(0 -1.52063e-97 0)
(0 -3.20616e-100 0)
(0 -1.22062e-105 0)
(0 -9.15586e-108 0)
(0 -3.40274e-110 0)
(0 -1.24222e-120 0)
(0 -2.28181e-131 0)
(0 -3.09714e-142 0)
(0 -3.02061e-153 0)
(0 -2.56178e-164 0)
(0 -1.6399e-175 0)
(0 -9.08282e-187 0)
(0 -4.20016e-197 0)
(0 -1.88724e-207 0)
(0 -1.31405e-215 0)
(0 -5.5304e-226 0)
(0 -4.5196e-234 0)
(0 -2.24879e-244 0)
(0 -1.55543e-252 0)
(0 -9.52941e-263 0)
(0 -5.3586e-271 0)
(0 -6.157e-281 0)
(0 -1.88467e-289 0)
(0 -4.10149e-299 0)
(0 -6.83143e-308 0)
(0 -2.03439e-317 0)
(0 -0 0)
(0 0 0)
(0 0 0)
(0 0 0)
(0 0 0)
(0 0 0)
(0 0 0)
(0 0 0)
(0 0 0)
(0 0 0)
(0 0 0)
(0 0 0)
(0 0 0)
(0 0 0)
(0 0 0)
(0 0 0)
(0 0 0)
(0 0 0)
(0 0 0)
(0 0 0)
(0 0 0)
(0 0 0)
(0 0 0)
(0 0 0)
(0 0 0)
)
;

boundaryField
{
    inandouthalf11
    {
        type            cyclic;
    }
    inandouthalf12
    {
        type            cyclic;
    }
    inandouthalf21
    {
        type            cyclic;
    }
    inandouthalf22
    {
        type            cyclic;
    }
    inandouthalf31
    {
        type            cyclic;
    }
    inandouthalf32
    {
        type            cyclic;
    }
    inandouthalf41
    {
        type            cyclic;
    }
    inandouthalf42
    {
        type            cyclic;
    }
    top
    {
        type            symmetryPlane;
    }
    walls
    {
        type            zeroGradient;
    }
    frontAndBackPlanes
    {
        type            empty;
    }
}


// ************************************************************************* //
