/*--------------------------------*- C++ -*----------------------------------*\
| =========                 |                                                 |
| \\      /  F ield         | OpenFOAM: The Open Source CFD Toolbox           |
|  \\    /   O peration     | Version:  2.4.x                                 |
|   \\  /    A nd           | Web:      www.OpenFOAM.org                      |
|    \\/     M anipulation  |                                                 |
\*---------------------------------------------------------------------------*/
FoamFile
{
    version     2.0;
    format      ascii;
    class       volVectorField;
    location    "8.95";
    object      U;
}
// * * * * * * * * * * * * * * * * * * * * * * * * * * * * * * * * * * * * * //

dimensions      [0 1 -1 0 0 0 0];

internalField   nonuniform List<vector> 
360
(
(2.02727e-05 6.05668e-09 0)
(2.01272e-05 -1.15486e-09 0)
(2.01173e-05 -1.03953e-09 0)
(2.01466e-05 1.19094e-10 0)
(2.01662e-05 2.91899e-10 0)
(2.018e-05 1.19421e-10 0)
(2.01949e-05 5.40948e-11 0)
(2.0211e-05 6.53807e-11 0)
(2.02275e-05 8.01296e-11 0)
(2.02443e-05 8.7002e-11 0)
(2.02614e-05 8.8832e-11 0)
(2.02788e-05 8.69203e-11 0)
(2.02965e-05 8.4115e-11 0)
(2.03146e-05 8.13293e-11 0)
(2.03329e-05 7.88483e-11 0)
(2.03515e-05 7.6125e-11 0)
(2.03705e-05 7.23418e-11 0)
(2.03897e-05 6.77711e-11 0)
(2.04091e-05 6.2639e-11 0)
(2.04289e-05 5.76468e-11 0)
(2.04489e-05 5.1577e-11 0)
(2.04692e-05 4.64142e-11 0)
(2.04897e-05 4.08217e-11 0)
(2.05104e-05 3.47704e-11 0)
(2.05313e-05 2.86677e-11 0)
(2.05523e-05 2.25724e-11 0)
(2.05736e-05 1.6418e-11 0)
(2.0595e-05 1.09863e-11 0)
(2.06166e-05 4.675e-12 0)
(2.06382e-05 -1.44749e-12 0)
(2.066e-05 -7.53262e-12 0)
(2.0682e-05 -1.21182e-11 0)
(2.07039e-05 -1.91771e-11 0)
(2.0726e-05 -2.24316e-11 0)
(2.07481e-05 -2.91364e-11 0)
(2.07703e-05 -3.34299e-11 0)
(2.07925e-05 -3.79805e-11 0)
(2.08147e-05 -4.18894e-11 0)
(2.0837e-05 -4.44883e-11 0)
(2.08591e-05 -5.06574e-11 0)
(2.08814e-05 -5.13438e-11 0)
(2.09037e-05 -5.44157e-11 0)
(2.09258e-05 -5.88261e-11 0)
(2.0948e-05 -5.76903e-11 0)
(2.09702e-05 -6.0543e-11 0)
(2.09923e-05 -6.22905e-11 0)
(2.10144e-05 -6.23832e-11 0)
(2.10364e-05 -6.53096e-11 0)
(2.10584e-05 -6.40761e-11 0)
(2.10805e-05 -6.13528e-11 0)
(2.11023e-05 -6.52616e-11 0)
(2.11243e-05 -6.2799e-11 0)
(2.11461e-05 -6.31393e-11 0)
(2.1168e-05 -6.06661e-11 0)
(2.11898e-05 -6.28254e-11 0)
(2.12117e-05 -5.78707e-11 0)
(2.12334e-05 -6.07316e-11 0)
(2.12552e-05 -5.77384e-11 0)
(2.1277e-05 -5.67526e-11 0)
(2.12987e-05 -5.86891e-11 0)
(2.13206e-05 -5.18722e-11 0)
(2.13423e-05 -5.4353e-11 0)
(2.13642e-05 -5.04435e-11 0)
(2.1386e-05 -5.10396e-11 0)
(2.14078e-05 -4.95355e-11 0)
(2.14297e-05 -4.96798e-11 0)
(2.14517e-05 -4.81008e-11 0)
(2.14737e-05 -4.75701e-11 0)
(2.14957e-05 -4.69342e-11 0)
(2.15177e-05 -4.84064e-11 0)
(2.15399e-05 -4.49023e-11 0)
(2.15622e-05 -4.21067e-11 0)
(2.15844e-05 -4.68099e-11 0)
(2.16068e-05 -4.21282e-11 0)
(2.16293e-05 -4.35302e-11 0)
(2.16519e-05 -4.13312e-11 0)
(2.16745e-05 -4.41407e-11 0)
(2.16973e-05 -4.44084e-11 0)
(2.17202e-05 -4.41881e-11 0)
(2.17432e-05 -4.37288e-11 0)
(2.17662e-05 -4.50567e-11 0)
(2.17895e-05 -4.42787e-11 0)
(2.18128e-05 -4.36019e-11 0)
(2.18363e-05 -4.38382e-11 0)
(2.186e-05 -4.36625e-11 0)
(2.18837e-05 -4.44727e-11 0)
(2.19077e-05 -4.47601e-11 0)
(2.19318e-05 -4.60694e-11 0)
(2.19561e-05 -4.73018e-11 0)
(2.19806e-05 -4.7993e-11 0)
(2.20052e-05 -4.86472e-11 0)
(2.203e-05 -4.93551e-11 0)
(2.2055e-05 -4.94682e-11 0)
(2.20803e-05 -4.96909e-11 0)
(2.21057e-05 -5.00813e-11 0)
(2.21314e-05 -5.05998e-11 0)
(2.21574e-05 -5.12908e-11 0)
(2.21835e-05 -5.21673e-11 0)
(2.221e-05 -5.31242e-11 0)
(2.22367e-05 -5.40068e-11 0)
(2.22637e-05 -5.48216e-11 0)
(2.2291e-05 -5.55032e-11 0)
(2.23186e-05 -5.59704e-11 0)
(2.23466e-05 -5.62529e-11 0)
(2.23749e-05 -5.63402e-11 0)
(2.24035e-05 -5.61847e-11 0)
(2.24326e-05 -5.577e-11 0)
(2.24621e-05 -5.50842e-11 0)
(2.2492e-05 -5.41324e-11 0)
(2.25224e-05 -5.29736e-11 0)
(2.25533e-05 -5.17241e-11 0)
(2.25847e-05 -5.05617e-11 0)
(2.26167e-05 -4.9735e-11 0)
(2.26494e-05 -4.95536e-11 0)
(2.26827e-05 -5.03677e-11 0)
(2.27166e-05 -5.25318e-11 0)
(2.27513e-05 -5.63392e-11 0)
(2.27868e-05 -6.19288e-11 0)
(2.2823e-05 -6.91761e-11 0)
(2.286e-05 -7.75878e-11 0)
(2.28978e-05 -8.62334e-11 0)
(2.29364e-05 -9.37486e-11 0)
(2.29759e-05 -9.84629e-11 0)
(2.30163e-05 -9.86454e-11 0)
(2.30577e-05 -9.2827e-11 0)
(2.31001e-05 -8.00805e-11 0)
(2.31439e-05 -6.02045e-11 0)
(2.31892e-05 -3.38045e-11 0)
(2.32364e-05 -2.83251e-12 0)
(2.32858e-05 2.75923e-11 0)
(2.33379e-05 4.51346e-11 0)
(2.3393e-05 2.65958e-11 0)
(2.34513e-05 -5.69974e-11 0)
(2.35128e-05 -2.149e-10 0)
(2.35771e-05 -4.04671e-10 0)
(2.36424e-05 -5.29935e-10 0)
(2.3707e-05 -5.16438e-10 0)
(2.37715e-05 -4.25474e-10 0)
(2.38404e-05 -3.5203e-10 0)
(2.39185e-05 -1.77178e-08 0)
(2.40032e-05 4.36832e-07 0)
(2.40908e-05 -2.55098e-06 0)
(2.87848e-05 9.6993e-06 0)
(0.0016229 -4.26267e-05 0)
(0.109867 1.5014e-05 0)
(0.224191 -1.51032e-05 0)
(0.32275 -5.87021e-06 0)
(0.408904 -3.88686e-06 0)
(0.485365 -2.55344e-06 0)
(0.554035 -2.13156e-06 0)
(0.616292 -2.56018e-06 0)
(0.673173 1.36501e-06 0)
(0.725453 -6.98927e-07 0)
(0.773701 -8.08496e-07 0)
(0.818405 -6.81889e-07 0)
(0.859976 -5.75423e-07 0)
(0.898765 -5.14726e-07 0)
(0.93507 -4.75455e-07 0)
(0.969145 -4.48761e-07 0)
(1.00121 -4.30183e-07 0)
(1.03146 -4.16872e-07 0)
(1.06007 -4.06639e-07 0)
(1.08716 -3.97525e-07 0)
(1.11289 -3.87734e-07 0)
(1.13735 -3.78537e-07 0)
(1.16065 -3.66724e-07 0)
(1.18288 -3.53715e-07 0)
(1.20411 -3.39434e-07 0)
(1.22442 -3.23952e-07 0)
(1.24386 -3.07218e-07 0)
(1.2625 -2.89836e-07 0)
(1.28037 -2.71847e-07 0)
(1.29753 -2.53483e-07 0)
(1.314 -2.35193e-07 0)
(1.32983 -2.16973e-07 0)
(1.34504 -1.99063e-07 0)
(1.35966 -1.81552e-07 0)
(1.3737 -1.64691e-07 0)
(1.3872 -1.48402e-07 0)
(1.40016 -1.32891e-07 0)
(1.4126 -1.18094e-07 0)
(1.42453 -1.04122e-07 0)
(1.43595 -9.091e-08 0)
(1.44687 -7.85077e-08 0)
(1.45729 -6.6932e-08 0)
(1.46721 -5.63288e-08 0)
(1.47664 -4.67676e-08 0)
(1.48555 -3.7983e-08 0)
(1.49395 -2.93293e-08 0)
(1.50183 -2.04191e-08 0)
(1.50918 -1.19773e-08 0)
(1.51599 -5.66268e-09 0)
(1.52226 -2.52318e-09 0)
(1.52797 -1.68505e-09 0)
(1.53312 -1.09442e-09 0)
(1.53773 4.85908e-10 0)
(1.54181 2.56356e-09 0)
(1.54537 4.08383e-09 0)
(1.54845 4.43366e-09 0)
(1.55108 4.03144e-09 0)
(1.55329 3.10935e-09 0)
(1.55516 2.44399e-09 0)
(1.55672 1.85697e-09 0)
(1.55801 1.3818e-09 0)
(1.55904 1.02198e-09 0)
(1.55985 7.59672e-10 0)
(1.56045 5.71834e-10 0)
(1.56087 4.34019e-10 0)
(1.56112 3.32376e-10 0)
(1.56123 2.56988e-10 0)
(1.56121 1.96337e-10 0)
(1.56107 1.53727e-10 0)
(1.56082 1.23797e-10 0)
(1.56047 9.54792e-11 0)
(1.56002 7.2635e-11 0)
(1.55948 5.75871e-11 0)
(1.55886 4.86796e-11 0)
(1.55816 3.48017e-11 0)
(1.55737 2.29436e-11 0)
(1.55651 2.03457e-11 0)
(1.55558 1.5063e-11 0)
(1.55458 5.06004e-12 0)
(1.5535 5.05287e-12 0)
(1.55236 1.49003e-12 0)
(1.55115 5.4826e-12 0)
(1.54987 -3.5456e-12 0)
(1.54853 9.10945e-12 0)
(1.54712 -7.48543e-12 0)
(1.54566 1.76863e-11 0)
(1.54413 -1.48365e-11 0)
(1.54254 1.43159e-11 0)
(1.54089 1.07284e-11 0)
(1.53919 -1.0073e-11 0)
(1.53743 -3.86973e-11 0)
(1.53562 1.78737e-10 0)
(1.53376 -4.25112e-10 0)
(1.53185 7.93397e-10 0)
(1.52989 -7.63468e-10 0)
(1.52789 2.10104e-10 0)
(1.52585 -2.34295e-11 0)
(1.52377 2.24213e-12 0)
(1.52165 -3.13849e-12 0)
(1.51951 2.05418e-11 0)
(1.51733 -3.62927e-11 0)
(1.51514 4.96724e-11 0)
(1.51293 -5.25551e-11 0)
(1.5107 2.97484e-11 0)
(1.50847 1.8064e-12 0)
(1.50625 2.47634e-11 0)
(1.50403 -2.91643e-12 0)
(1.50183 -3.10428e-12 0)
(1.49967 -1.5538e-12 0)
(1.49754 -1.2007e-12 0)
(1.49547 -1.25856e-12 0)
(1.49346 -1.27165e-12 0)
(1.49153 -1.23298e-12 0)
(1.48971 -1.14686e-12 0)
(1.488 -1.0359e-12 0)
(1.48644 -1.3927e-12 0)
(1.48504 -4.60321e-12 0)
(1.48383 1.5498e-11 0)
(1.48283 -4.31222e-11 0)
(1.48207 8.18256e-11 0)
(1.48156 -1.40038e-10 0)
(1.4813 2.10039e-10 0)
(1.48129 -2.9673e-10 0)
(1.48145 3.90183e-10 0)
(1.48152 -4.93116e-10 0)
(1.48153 5.96514e-10 0)
(1.48153 -7.05369e-10 0)
(1.48153 8.13555e-10 0)
(1.48153 -9.2703e-10 0)
(1.48153 1.04017e-09 0)
(1.48153 -1.1587e-09 0)
(1.48153 1.2772e-09 0)
(1.48153 -1.40119e-09 0)
(1.48153 1.52542e-09 0)
(1.48153 -1.65519e-09 0)
(1.48153 1.78549e-09 0)
(1.48153 -1.92132e-09 0)
(1.48153 2.05798e-09 0)
(1.48153 -2.20015e-09 0)
(1.48153 2.3434e-09 0)
(1.48153 -2.49213e-09 0)
(1.48153 2.6422e-09 0)
(1.48153 -2.79768e-09 0)
(1.48153 2.95475e-09 0)
(1.48153 -3.11712e-09 0)
(1.48153 3.28138e-09 0)
(1.48153 -3.45075e-09 0)
(1.48153 3.62232e-09 0)
(1.48153 -3.7988e-09 0)
(1.48153 3.9778e-09 0)
(1.48153 -4.16146e-09 0)
(1.48153 4.34796e-09 0)
(1.48153 -4.53884e-09 0)
(1.48153 4.73288e-09 0)
(1.48153 -4.93101e-09 0)
(1.48153 5.13257e-09 0)
(1.48153 -5.3381e-09 0)
(1.48153 5.54715e-09 0)
(1.48153 -5.75996e-09 0)
(1.48153 5.97636e-09 0)
(1.48153 -6.19648e-09 0)
(1.48153 6.42014e-09 0)
(1.48153 -6.64744e-09 0)
(1.48153 6.87821e-09 0)
(1.48153 -7.11252e-09 0)
(1.48153 7.35018e-09 0)
(1.48153 -7.59126e-09 0)
(1.48153 6.8797e-09 0)
(1.48153 -6.96812e-09 0)
(1.48153 7.05551e-09 0)
(1.48153 -7.14199e-09 0)
(1.48153 7.22743e-09 0)
(1.48153 -7.31196e-09 0)
(1.48153 7.39541e-09 0)
(1.48153 -7.47795e-09 0)
(1.48153 7.55937e-09 0)
(1.48153 -7.63988e-09 0)
(1.48153 7.71923e-09 0)
(1.48153 -7.79769e-09 0)
(1.48153 7.87492e-09 0)
(1.48153 -7.95127e-09 0)
(1.48153 8.02632e-09 0)
(1.48153 -8.10054e-09 0)
(1.48153 8.17334e-09 0)
(1.48153 -8.2454e-09 0)
(1.48153 8.31579e-09 0)
(1.48153 -8.38585e-09 0)
(1.48153 8.45354e-09 0)
(1.48153 -8.52171e-09 0)
(1.48153 8.58655e-09 0)
(1.48153 -8.65277e-09 0)
(1.48153 8.71469e-09 0)
(1.48153 -8.7788e-09 0)
(1.48153 8.83776e-09 0)
(1.48153 -8.89968e-09 0)
(1.48153 8.95553e-09 0)
(1.48153 -9.01509e-09 0)
(1.48153 9.06784e-09 0)
(1.48153 -9.12477e-09 0)
(1.48153 9.17438e-09 0)
(1.48153 -9.22836e-09 0)
(1.48153 9.27476e-09 0)
(1.48153 -9.3257e-09 0)
(1.48153 9.36849e-09 0)
(1.48153 -9.41616e-09 0)
(1.48153 9.45533e-09 0)
(1.48153 -9.49915e-09 0)
(1.48153 9.53461e-09 0)
(1.48153 -9.57385e-09 0)
(1.48153 9.60551e-09 0)
(1.48153 -9.63939e-09 0)
(1.48153 9.66675e-09 0)
(1.48153 -9.69429e-09 0)
(1.48153 9.71653e-09 0)
(1.48153 -9.73589e-09 0)
(1.48153 9.75051e-09 0)
(1.48153 -9.75934e-09 0)
)
;

boundaryField
{
    inandouthalf11
    {
        type            cyclic;
    }
    inandouthalf12
    {
        type            cyclic;
    }
    inandouthalf21
    {
        type            cyclic;
    }
    inandouthalf22
    {
        type            cyclic;
    }
    inandouthalf31
    {
        type            cyclic;
    }
    inandouthalf32
    {
        type            cyclic;
    }
    inandouthalf41
    {
        type            cyclic;
    }
    inandouthalf42
    {
        type            cyclic;
    }
    top
    {
        type            symmetryPlane;
    }
    walls
    {
        type            calculated;
        value           uniform (0 0 0);
    }
    frontAndBackPlanes
    {
        type            empty;
    }
}


// ************************************************************************* //
