/*--------------------------------*- C++ -*----------------------------------*\
| =========                 |                                                 |
| \\      /  F ield         | OpenFOAM: The Open Source CFD Toolbox           |
|  \\    /   O peration     | Version:  2.4.x                                 |
|   \\  /    A nd           | Web:      www.OpenFOAM.org                      |
|    \\/     M anipulation  |                                                 |
\*---------------------------------------------------------------------------*/
FoamFile
{
    version     2.0;
    format      ascii;
    class       volVectorField;
    location    "8.95";
    object      Ub;
}
// * * * * * * * * * * * * * * * * * * * * * * * * * * * * * * * * * * * * * //

dimensions      [0 1 -1 0 0 0 0];

internalField   nonuniform List<vector> 
360
(
(5.20971e-05 1.55645e-08 0)
(5.18214e-05 5.53442e-08 0)
(5.17914e-05 1.022e-07 0)
(5.18397e-05 1.46665e-07 0)
(5.18686e-05 1.91448e-07 0)
(5.18853e-05 2.37935e-07 0)
(5.19038e-05 2.85671e-07 0)
(5.19247e-05 3.34201e-07 0)
(5.19461e-05 3.8346e-07 0)
(5.19679e-05 4.33535e-07 0)
(5.199e-05 4.84501e-07 0)
(5.20124e-05 5.36378e-07 0)
(5.20352e-05 5.89151e-07 0)
(5.20583e-05 6.42795e-07 0)
(5.20818e-05 6.9728e-07 0)
(5.21057e-05 7.5258e-07 0)
(5.21299e-05 8.08667e-07 0)
(5.21544e-05 8.65498e-07 0)
(5.21793e-05 9.23026e-07 0)
(5.22045e-05 9.81204e-07 0)
(5.223e-05 1.03997e-06 0)
(5.22558e-05 1.09927e-06 0)
(5.22819e-05 1.15905e-06 0)
(5.23083e-05 1.21925e-06 0)
(5.23349e-05 1.27981e-06 0)
(5.23618e-05 1.34066e-06 0)
(5.23889e-05 1.40174e-06 0)
(5.24162e-05 1.46298e-06 0)
(5.24437e-05 1.52434e-06 0)
(5.24714e-05 1.58574e-06 0)
(5.24993e-05 1.64712e-06 0)
(5.25274e-05 1.70843e-06 0)
(5.25555e-05 1.7696e-06 0)
(5.25839e-05 1.83058e-06 0)
(5.26123e-05 1.89131e-06 0)
(5.26409e-05 1.95175e-06 0)
(5.26695e-05 2.01183e-06 0)
(5.26983e-05 2.07151e-06 0)
(5.27272e-05 2.13077e-06 0)
(5.2756e-05 2.18954e-06 0)
(5.27851e-05 2.2478e-06 0)
(5.28141e-05 2.30552e-06 0)
(5.28431e-05 2.36266e-06 0)
(5.28723e-05 2.41922e-06 0)
(5.29015e-05 2.47515e-06 0)
(5.29307e-05 2.53045e-06 0)
(5.296e-05 2.58512e-06 0)
(5.29892e-05 2.63911e-06 0)
(5.30186e-05 2.69243e-06 0)
(5.30481e-05 2.7451e-06 0)
(5.30775e-05 2.7971e-06 0)
(5.3107e-05 2.84843e-06 0)
(5.31366e-05 2.8991e-06 0)
(5.31663e-05 2.94913e-06 0)
(5.31959e-05 2.99849e-06 0)
(5.32258e-05 3.04723e-06 0)
(5.32555e-05 3.09533e-06 0)
(5.32856e-05 3.14281e-06 0)
(5.33156e-05 3.18968e-06 0)
(5.33456e-05 3.23594e-06 0)
(5.3376e-05 3.28163e-06 0)
(5.34063e-05 3.32673e-06 0)
(5.34369e-05 3.37128e-06 0)
(5.34675e-05 3.41529e-06 0)
(5.34984e-05 3.45877e-06 0)
(5.35293e-05 3.50172e-06 0)
(5.35604e-05 3.54416e-06 0)
(5.35917e-05 3.58609e-06 0)
(5.36232e-05 3.62752e-06 0)
(5.36547e-05 3.66844e-06 0)
(5.36867e-05 3.70888e-06 0)
(5.37188e-05 3.74885e-06 0)
(5.3751e-05 3.78834e-06 0)
(5.37836e-05 3.82738e-06 0)
(5.38163e-05 3.86595e-06 0)
(5.38494e-05 3.90409e-06 0)
(5.38826e-05 3.94178e-06 0)
(5.39161e-05 3.97901e-06 0)
(5.39499e-05 4.01578e-06 0)
(5.3984e-05 4.0521e-06 0)
(5.40184e-05 4.08795e-06 0)
(5.40531e-05 4.12334e-06 0)
(5.40881e-05 4.15828e-06 0)
(5.41234e-05 4.19277e-06 0)
(5.41591e-05 4.2268e-06 0)
(5.41952e-05 4.26039e-06 0)
(5.42316e-05 4.29352e-06 0)
(5.42684e-05 4.32619e-06 0)
(5.43056e-05 4.35839e-06 0)
(5.43433e-05 4.39011e-06 0)
(5.43813e-05 4.42135e-06 0)
(5.44197e-05 4.45209e-06 0)
(5.44587e-05 4.48234e-06 0)
(5.44981e-05 4.5121e-06 0)
(5.4538e-05 4.54136e-06 0)
(5.45784e-05 4.57011e-06 0)
(5.46194e-05 4.59837e-06 0)
(5.4661e-05 4.62612e-06 0)
(5.47031e-05 4.65336e-06 0)
(5.47458e-05 4.68007e-06 0)
(5.47891e-05 4.70626e-06 0)
(5.48331e-05 4.73191e-06 0)
(5.48778e-05 4.75703e-06 0)
(5.49232e-05 4.78161e-06 0)
(5.49694e-05 4.80565e-06 0)
(5.50163e-05 4.82915e-06 0)
(5.50641e-05 4.85213e-06 0)
(5.51128e-05 4.87458e-06 0)
(5.51624e-05 4.89652e-06 0)
(5.52129e-05 4.91796e-06 0)
(5.52645e-05 4.93892e-06 0)
(5.53171e-05 4.95942e-06 0)
(5.53709e-05 4.97946e-06 0)
(5.54258e-05 4.99907e-06 0)
(5.54821e-05 5.01824e-06 0)
(5.55396e-05 5.03699e-06 0)
(5.55986e-05 5.05528e-06 0)
(5.5659e-05 5.07308e-06 0)
(5.57209e-05 5.09036e-06 0)
(5.57844e-05 5.10704e-06 0)
(5.58495e-05 5.12304e-06 0)
(5.59163e-05 5.1383e-06 0)
(5.59849e-05 5.15274e-06 0)
(5.60554e-05 5.16635e-06 0)
(5.61279e-05 5.17912e-06 0)
(5.62025e-05 5.19113e-06 0)
(5.62797e-05 5.20254e-06 0)
(5.63596e-05 5.21355e-06 0)
(5.64429e-05 5.22446e-06 0)
(5.653e-05 5.2356e-06 0)
(5.66213e-05 5.24724e-06 0)
(5.67172e-05 5.25954e-06 0)
(5.68183e-05 5.27225e-06 0)
(5.69249e-05 5.28461e-06 0)
(5.70372e-05 5.29522e-06 0)
(5.71532e-05 5.30241e-06 0)
(5.72712e-05 5.30505e-06 0)
(5.73927e-05 5.30325e-06 0)
(5.75247e-05 5.2983e-06 0)
(5.76753e-05 5.24771e-06 0)
(5.78387e-05 6.38212e-06 0)
(5.80103e-05 -1.12841e-06 0)
(6.96857e-05 2.95436e-05 0)
(0.00321759 -8.12887e-05 0)
(0.113697 -0.000616765 0)
(0.22713 -0.000621755 0)
(0.325003 -0.000646513 0)
(0.410722 -0.000657284 0)
(0.486885 -0.000658501 0)
(0.555337 -0.000652124 0)
(0.617428 -0.000639836 0)
(0.674183 -0.000624171 0)
(0.726325 -0.000602426 0)
(0.77445 -0.000579251 0)
(0.819049 -0.000555149 0)
(0.860532 -0.000530517 0)
(0.899245 -0.000505764 0)
(0.935485 -0.000481218 0)
(0.969506 -0.000457105 0)
(1.00153 -0.000433574 0)
(1.03174 -0.000410711 0)
(1.06031 -0.000388561 0)
(1.08738 -0.000367139 0)
(1.11308 -0.000346435 0)
(1.13752 -0.000326429 0)
(1.16081 -0.000307093 0)
(1.18302 -0.000288402 0)
(1.20424 -0.000270326 0)
(1.22454 -0.000252844 0)
(1.24398 -0.000235937 0)
(1.2626 -0.000219594 0)
(1.28047 -0.00020381 0)
(1.29762 -0.000188585 0)
(1.31409 -0.000173923 0)
(1.32991 -0.000159833 0)
(1.34512 -0.000146327 0)
(1.35974 -0.000133419 0)
(1.37378 -0.000121124 0)
(1.38727 -0.000109457 0)
(1.40023 -9.84321e-05 0)
(1.41267 -8.80607e-05 0)
(1.42459 -7.83526e-05 0)
(1.43601 -6.93134e-05 0)
(1.44693 -6.09447e-05 0)
(1.45735 -5.32435e-05 0)
(1.46727 -4.62021e-05 0)
(1.47669 -3.98082e-05 0)
(1.4856 -3.40444e-05 0)
(1.494 -2.88863e-05 0)
(1.50188 -2.42995e-05 0)
(1.50922 -2.02408e-05 0)
(1.51603 -1.66664e-05 0)
(1.52229 -1.35434e-05 0)
(1.52799 -1.08568e-05 0)
(1.53315 -8.60181e-06 0)
(1.53775 -6.76681e-06 0)
(1.54182 -5.31972e-06 0)
(1.54538 -4.20694e-06 0)
(1.54846 -3.36371e-06 0)
(1.55108 -2.72677e-06 0)
(1.5533 -2.24265e-06 0)
(1.55517 -1.86655e-06 0)
(1.55673 -1.56859e-06 0)
(1.55801 -1.32981e-06 0)
(1.55904 -1.13619e-06 0)
(1.55985 -9.77419e-07 0)
(1.56045 -8.4584e-07 0)
(1.56087 -7.35715e-07 0)
(1.56113 -6.42692e-07 0)
(1.56124 -5.63431e-07 0)
(1.56122 -4.95345e-07 0)
(1.56107 -4.36409e-07 0)
(1.56082 -3.85017e-07 0)
(1.56047 -3.39885e-07 0)
(1.56002 -2.99993e-07 0)
(1.55948 -2.64533e-07 0)
(1.55886 -2.3285e-07 0)
(1.55816 -2.04427e-07 0)
(1.55737 -1.78866e-07 0)
(1.55651 -1.55863e-07 0)
(1.55558 -1.35179e-07 0)
(1.55458 -1.16627e-07 0)
(1.5535 -1.00066e-07 0)
(1.55236 -8.53673e-08 0)
(1.55115 -7.24033e-08 0)
(1.54987 -6.10475e-08 0)
(1.54853 -5.11716e-08 0)
(1.54712 -4.26439e-08 0)
(1.54566 -3.53293e-08 0)
(1.54413 -2.90977e-08 0)
(1.54254 -2.38302e-08 0)
(1.54089 -1.93923e-08 0)
(1.53919 -1.56782e-08 0)
(1.53743 -1.26325e-08 0)
(1.53562 -1.00685e-08 0)
(1.53376 -7.9941e-09 0)
(1.53185 -6.14689e-09 0)
(1.52989 -4.48016e-09 0)
(1.52789 -3.27746e-09 0)
(1.52585 -2.35129e-09 0)
(1.52377 -1.6572e-09 0)
(1.52165 -1.14854e-09 0)
(1.51951 -7.81143e-10 0)
(1.51733 -5.17071e-10 0)
(1.51514 -3.35225e-10 0)
(1.51293 -2.03777e-10 0)
(1.5107 -1.28036e-10 0)
(1.50847 -3.53388e-11 0)
(1.50625 2.47634e-11 0)
(1.50403 -2.91643e-12 0)
(1.50183 -3.10428e-12 0)
(1.49967 -1.5538e-12 0)
(1.49754 -1.2007e-12 0)
(1.49547 -1.25856e-12 0)
(1.49346 -1.27165e-12 0)
(1.49153 -1.23298e-12 0)
(1.48971 -1.14686e-12 0)
(1.488 -1.0359e-12 0)
(1.48644 -1.3927e-12 0)
(1.48504 -4.60321e-12 0)
(1.48383 1.5498e-11 0)
(1.48283 -4.31222e-11 0)
(1.48207 8.18256e-11 0)
(1.48156 -1.40038e-10 0)
(1.4813 2.10039e-10 0)
(1.48129 -2.9673e-10 0)
(1.48145 3.90183e-10 0)
(1.48152 -4.93116e-10 0)
(1.48153 5.96514e-10 0)
(1.48153 -7.05369e-10 0)
(1.48153 8.13555e-10 0)
(1.48153 -9.2703e-10 0)
(1.48153 1.04017e-09 0)
(1.48153 -1.1587e-09 0)
(1.48153 1.2772e-09 0)
(1.48153 -1.40119e-09 0)
(1.48153 1.52542e-09 0)
(1.48153 -1.65519e-09 0)
(1.48153 1.78549e-09 0)
(1.48153 -1.92132e-09 0)
(1.48153 2.05798e-09 0)
(1.48153 -2.20015e-09 0)
(1.48153 2.3434e-09 0)
(1.48153 -2.49213e-09 0)
(1.48153 2.6422e-09 0)
(1.48153 -2.79768e-09 0)
(1.48153 2.95475e-09 0)
(1.48153 -3.11712e-09 0)
(1.48153 3.28138e-09 0)
(1.48153 -3.45075e-09 0)
(1.48153 3.62232e-09 0)
(1.48153 -3.7988e-09 0)
(1.48153 3.9778e-09 0)
(1.48153 -4.16146e-09 0)
(1.48153 4.34796e-09 0)
(1.48153 -4.53884e-09 0)
(1.48153 4.73288e-09 0)
(1.48153 -4.93101e-09 0)
(1.48153 5.13257e-09 0)
(1.48153 -5.3381e-09 0)
(1.48153 5.54715e-09 0)
(1.48153 -5.75996e-09 0)
(1.48153 5.97636e-09 0)
(1.48153 -6.19648e-09 0)
(1.48153 6.42014e-09 0)
(1.48153 -6.64744e-09 0)
(1.48153 6.87821e-09 0)
(1.48153 -7.11252e-09 0)
(1.48153 7.35018e-09 0)
(1.48153 -7.59126e-09 0)
(1.48153 6.8797e-09 0)
(1.48153 -6.96812e-09 0)
(1.48153 7.05551e-09 0)
(1.48153 -7.14199e-09 0)
(1.48153 7.22743e-09 0)
(1.48153 -7.31196e-09 0)
(1.48153 7.39541e-09 0)
(1.48153 -7.47795e-09 0)
(1.48153 7.55937e-09 0)
(1.48153 -7.63988e-09 0)
(1.48153 7.71923e-09 0)
(1.48153 -7.79769e-09 0)
(1.48153 7.87492e-09 0)
(1.48153 -7.95127e-09 0)
(1.48153 8.02632e-09 0)
(1.48153 -8.10054e-09 0)
(1.48153 8.17334e-09 0)
(1.48153 -8.2454e-09 0)
(1.48153 8.31579e-09 0)
(1.48153 -8.38585e-09 0)
(1.48153 8.45354e-09 0)
(1.48153 -8.52171e-09 0)
(1.48153 8.58655e-09 0)
(1.48153 -8.65277e-09 0)
(1.48153 8.71469e-09 0)
(1.48153 -8.7788e-09 0)
(1.48153 8.83776e-09 0)
(1.48153 -8.89968e-09 0)
(1.48153 8.95553e-09 0)
(1.48153 -9.01509e-09 0)
(1.48153 9.06784e-09 0)
(1.48153 -9.12477e-09 0)
(1.48153 9.17438e-09 0)
(1.48153 -9.22836e-09 0)
(1.48153 9.27476e-09 0)
(1.48153 -9.3257e-09 0)
(1.48153 9.36849e-09 0)
(1.48153 -9.41616e-09 0)
(1.48153 9.45533e-09 0)
(1.48153 -9.49915e-09 0)
(1.48153 9.53461e-09 0)
(1.48153 -9.57385e-09 0)
(1.48153 9.60551e-09 0)
(1.48153 -9.63939e-09 0)
(1.48153 9.66675e-09 0)
(1.48153 -9.69429e-09 0)
(1.48153 9.71653e-09 0)
(1.48153 -9.73589e-09 0)
(1.48153 9.75051e-09 0)
(1.48153 -9.75934e-09 0)
)
;

boundaryField
{
    inandouthalf11
    {
        type            cyclic;
    }
    inandouthalf12
    {
        type            cyclic;
    }
    inandouthalf21
    {
        type            cyclic;
    }
    inandouthalf22
    {
        type            cyclic;
    }
    inandouthalf31
    {
        type            cyclic;
    }
    inandouthalf32
    {
        type            cyclic;
    }
    inandouthalf41
    {
        type            cyclic;
    }
    inandouthalf42
    {
        type            cyclic;
    }
    top
    {
        type            symmetryPlane;
    }
    walls
    {
        type            fixedValue;
        value           uniform (0 0 0);
    }
    frontAndBackPlanes
    {
        type            empty;
    }
}


// ************************************************************************* //
