/*--------------------------------*- C++ -*----------------------------------*\
| =========                 |                                                 |
| \\      /  F ield         | OpenFOAM: The Open Source CFD Toolbox           |
|  \\    /   O peration     | Version:  2.4.x                                 |
|   \\  /    A nd           | Web:      www.OpenFOAM.org                      |
|    \\/     M anipulation  |                                                 |
\*---------------------------------------------------------------------------*/
FoamFile
{
    version     2.0;
    format      ascii;
    class       volVectorField;
    location    "8.95";
    object      Ub_0;
}
// * * * * * * * * * * * * * * * * * * * * * * * * * * * * * * * * * * * * * //

dimensions      [0 1 -1 0 0 0 0];

internalField   nonuniform List<vector> 
360
(
(5.21676e-05 1.55677e-08 0)
(5.18915e-05 5.53554e-08 0)
(5.18615e-05 1.02221e-07 0)
(5.19099e-05 1.46696e-07 0)
(5.19388e-05 1.91489e-07 0)
(5.19555e-05 2.37986e-07 0)
(5.19741e-05 2.85732e-07 0)
(5.19949e-05 3.34273e-07 0)
(5.20163e-05 3.83543e-07 0)
(5.20381e-05 4.33629e-07 0)
(5.20603e-05 4.84606e-07 0)
(5.20827e-05 5.36494e-07 0)
(5.21055e-05 5.89278e-07 0)
(5.21286e-05 6.42933e-07 0)
(5.21521e-05 6.97429e-07 0)
(5.2176e-05 7.5274e-07 0)
(5.22003e-05 8.08837e-07 0)
(5.22248e-05 8.65679e-07 0)
(5.22497e-05 9.23218e-07 0)
(5.2275e-05 9.81406e-07 0)
(5.23005e-05 1.04018e-06 0)
(5.23263e-05 1.09949e-06 0)
(5.23524e-05 1.15928e-06 0)
(5.23788e-05 1.21949e-06 0)
(5.24055e-05 1.28006e-06 0)
(5.24324e-05 1.34091e-06 0)
(5.24594e-05 1.402e-06 0)
(5.24868e-05 1.46326e-06 0)
(5.25143e-05 1.52462e-06 0)
(5.25421e-05 1.58603e-06 0)
(5.25699e-05 1.64742e-06 0)
(5.25981e-05 1.70873e-06 0)
(5.26262e-05 1.76991e-06 0)
(5.26546e-05 1.83089e-06 0)
(5.2683e-05 1.89163e-06 0)
(5.27117e-05 1.95207e-06 0)
(5.27403e-05 2.01215e-06 0)
(5.27691e-05 2.07184e-06 0)
(5.2798e-05 2.1311e-06 0)
(5.28268e-05 2.18988e-06 0)
(5.28559e-05 2.24814e-06 0)
(5.2885e-05 2.30587e-06 0)
(5.2914e-05 2.36301e-06 0)
(5.29432e-05 2.41957e-06 0)
(5.29724e-05 2.4755e-06 0)
(5.30016e-05 2.53081e-06 0)
(5.3031e-05 2.58547e-06 0)
(5.30602e-05 2.63947e-06 0)
(5.30896e-05 2.69279e-06 0)
(5.31192e-05 2.74547e-06 0)
(5.31485e-05 2.79747e-06 0)
(5.31781e-05 2.8488e-06 0)
(5.32077e-05 2.89948e-06 0)
(5.32374e-05 2.9495e-06 0)
(5.3267e-05 2.99887e-06 0)
(5.32969e-05 3.04761e-06 0)
(5.33267e-05 3.09571e-06 0)
(5.33568e-05 3.14319e-06 0)
(5.33868e-05 3.19007e-06 0)
(5.34169e-05 3.23633e-06 0)
(5.34473e-05 3.28202e-06 0)
(5.34776e-05 3.32712e-06 0)
(5.35082e-05 3.37168e-06 0)
(5.35389e-05 3.41569e-06 0)
(5.35697e-05 3.45918e-06 0)
(5.36007e-05 3.50213e-06 0)
(5.36318e-05 3.54457e-06 0)
(5.36632e-05 3.58651e-06 0)
(5.36947e-05 3.62794e-06 0)
(5.37262e-05 3.66887e-06 0)
(5.37582e-05 3.70931e-06 0)
(5.37904e-05 3.74929e-06 0)
(5.38225e-05 3.78878e-06 0)
(5.38552e-05 3.82782e-06 0)
(5.38879e-05 3.8664e-06 0)
(5.3921e-05 3.90455e-06 0)
(5.39543e-05 3.94224e-06 0)
(5.39878e-05 3.97947e-06 0)
(5.40217e-05 4.01625e-06 0)
(5.40558e-05 4.05257e-06 0)
(5.40902e-05 4.08843e-06 0)
(5.41249e-05 4.12383e-06 0)
(5.416e-05 4.15877e-06 0)
(5.41954e-05 4.19326e-06 0)
(5.42311e-05 4.2273e-06 0)
(5.42672e-05 4.26089e-06 0)
(5.43037e-05 4.29403e-06 0)
(5.43405e-05 4.3267e-06 0)
(5.43777e-05 4.35891e-06 0)
(5.44154e-05 4.39063e-06 0)
(5.44535e-05 4.42187e-06 0)
(5.4492e-05 4.45262e-06 0)
(5.45309e-05 4.48288e-06 0)
(5.45704e-05 4.51264e-06 0)
(5.46104e-05 4.5419e-06 0)
(5.46508e-05 4.57066e-06 0)
(5.46918e-05 4.59892e-06 0)
(5.47334e-05 4.62668e-06 0)
(5.47756e-05 4.65392e-06 0)
(5.48183e-05 4.68064e-06 0)
(5.48617e-05 4.70683e-06 0)
(5.49058e-05 4.73249e-06 0)
(5.49505e-05 4.75761e-06 0)
(5.4996e-05 4.78219e-06 0)
(5.50422e-05 4.80624e-06 0)
(5.50892e-05 4.82975e-06 0)
(5.5137e-05 4.85273e-06 0)
(5.51857e-05 4.87518e-06 0)
(5.52354e-05 4.89713e-06 0)
(5.5286e-05 4.91857e-06 0)
(5.53376e-05 4.93954e-06 0)
(5.53903e-05 4.96003e-06 0)
(5.54441e-05 4.98008e-06 0)
(5.54992e-05 4.99969e-06 0)
(5.55555e-05 5.01887e-06 0)
(5.56131e-05 5.03762e-06 0)
(5.56721e-05 5.05591e-06 0)
(5.57326e-05 5.07372e-06 0)
(5.57946e-05 5.091e-06 0)
(5.58581e-05 5.10768e-06 0)
(5.59233e-05 5.12369e-06 0)
(5.59902e-05 5.13896e-06 0)
(5.60589e-05 5.15341e-06 0)
(5.61295e-05 5.16702e-06 0)
(5.6202e-05 5.17979e-06 0)
(5.62768e-05 5.19181e-06 0)
(5.6354e-05 5.20322e-06 0)
(5.64341e-05 5.21424e-06 0)
(5.65174e-05 5.22515e-06 0)
(5.66046e-05 5.23628e-06 0)
(5.6696e-05 5.24793e-06 0)
(5.67921e-05 5.26022e-06 0)
(5.68932e-05 5.27293e-06 0)
(5.7e-05 5.28528e-06 0)
(5.71124e-05 5.29589e-06 0)
(5.72286e-05 5.30308e-06 0)
(5.73467e-05 5.30573e-06 0)
(5.74683e-05 5.30394e-06 0)
(5.76006e-05 5.29899e-06 0)
(5.77513e-05 5.24824e-06 0)
(5.7915e-05 6.38492e-06 0)
(5.80868e-05 -1.13546e-06 0)
(6.97366e-05 2.95758e-05 0)
(0.00321325 -8.13891e-05 0)
(0.113671 -0.000617525 0)
(0.22711 -0.000622436 0)
(0.324989 -0.000647153 0)
(0.410712 -0.000657883 0)
(0.486878 -0.000659061 0)
(0.555333 -0.000652646 0)
(0.617427 -0.00064032 0)
(0.674184 -0.000624619 0)
(0.726328 -0.000602837 0)
(0.774456 -0.000579629 0)
(0.819056 -0.000555497 0)
(0.860541 -0.000530837 0)
(0.899255 -0.000506057 0)
(0.935497 -0.000481487 0)
(0.96952 -0.000457353 0)
(1.00154 -0.000433801 0)
(1.03176 -0.000410918 0)
(1.06033 -0.000388751 0)
(1.0874 -0.000367311 0)
(1.1131 -0.000346591 0)
(1.13755 -0.000326568 0)
(1.16083 -0.000307218 0)
(1.18305 -0.000288512 0)
(1.20427 -0.000270423 0)
(1.22457 -0.000252927 0)
(1.244 -0.000236008 0)
(1.26263 -0.000219653 0)
(1.2805 -0.000203858 0)
(1.29765 -0.000188623 0)
(1.31412 -0.000173951 0)
(1.32995 -0.000159853 0)
(1.34515 -0.000146339 0)
(1.35977 -0.000133425 0)
(1.37381 -0.000121124 0)
(1.38731 -0.000109452 0)
(1.40026 -9.84223e-05 0)
(1.4127 -8.80474e-05 0)
(1.42462 -7.83364e-05 0)
(1.43604 -6.9295e-05 0)
(1.44696 -6.09247e-05 0)
(1.45737 -5.32225e-05 0)
(1.46729 -4.61807e-05 0)
(1.47671 -3.97868e-05 0)
(1.48562 -3.40235e-05 0)
(1.49402 -2.88661e-05 0)
(1.50189 -2.42802e-05 0)
(1.50924 -2.02227e-05 0)
(1.51604 -1.66494e-05 0)
(1.52229 -1.35279e-05 0)
(1.528 -1.0843e-05 0)
(1.53315 -8.59003e-06 0)
(1.53775 -6.75716e-06 0)
(1.54182 -5.31211e-06 0)
(1.54537 -4.20111e-06 0)
(1.54845 -3.35931e-06 0)
(1.55107 -2.72345e-06 0)
(1.55328 -2.24013e-06 0)
(1.55514 -1.86462e-06 0)
(1.5567 -1.5671e-06 0)
(1.55799 -1.32865e-06 0)
(1.55902 -1.13527e-06 0)
(1.55982 -9.76688e-07 0)
(1.56042 -8.45251e-07 0)
(1.56083 -7.35237e-07 0)
(1.56109 -6.423e-07 0)
(1.5612 -5.63108e-07 0)
(1.56118 -4.95076e-07 0)
(1.56104 -4.36184e-07 0)
(1.56078 -3.84827e-07 0)
(1.56043 -3.39723e-07 0)
(1.55998 -2.99855e-07 0)
(1.55944 -2.64414e-07 0)
(1.55882 -2.32747e-07 0)
(1.55811 -2.04337e-07 0)
(1.55733 -1.78787e-07 0)
(1.55647 -1.55795e-07 0)
(1.55554 -1.35119e-07 0)
(1.55453 -1.16575e-07 0)
(1.55346 -1.00021e-07 0)
(1.55231 -8.53285e-08 0)
(1.5511 -7.237e-08 0)
(1.54982 -6.10192e-08 0)
(1.54848 -5.11476e-08 0)
(1.54708 -4.26237e-08 0)
(1.54561 -3.53124e-08 0)
(1.54408 -2.90837e-08 0)
(1.54249 -2.38186e-08 0)
(1.54085 -1.93828e-08 0)
(1.53914 -1.56705e-08 0)
(1.53739 -1.26262e-08 0)
(1.53557 -1.00634e-08 0)
(1.53371 -7.99002e-09 0)
(1.5318 -6.14393e-09 0)
(1.52984 -4.47803e-09 0)
(1.52784 -3.27571e-09 0)
(1.5258 -2.34994e-09 0)
(1.52372 -1.65616e-09 0)
(1.5216 -1.1477e-09 0)
(1.51946 -7.8041e-10 0)
(1.51728 -5.16392e-10 0)
(1.51509 -3.34571e-10 0)
(1.51287 -2.03241e-10 0)
(1.51065 -1.27549e-10 0)
(1.50842 -3.50633e-11 0)
(1.5062 2.47628e-11 0)
(1.50398 -2.88814e-12 0)
(1.50178 -3.07371e-12 0)
(1.49962 -1.52442e-12 0)
(1.49749 -1.17246e-12 0)
(1.49541 -1.23094e-12 0)
(1.49341 -1.24474e-12 0)
(1.49148 -1.20693e-12 0)
(1.48966 -1.12141e-12 0)
(1.48795 -1.01069e-12 0)
(1.48639 -1.36806e-12 0)
(1.48499 -4.58832e-12 0)
(1.48378 1.55392e-11 0)
(1.48278 -4.31356e-11 0)
(1.48202 8.18963e-11 0)
(1.48151 -1.40087e-10 0)
(1.48125 2.10141e-10 0)
(1.48124 -2.9681e-10 0)
(1.4814 3.90307e-10 0)
(1.48147 -4.93215e-10 0)
(1.48148 5.96651e-10 0)
(1.48148 -7.0548e-10 0)
(1.48148 8.13702e-10 0)
(1.48148 -9.27154e-10 0)
(1.48148 1.04033e-09 0)
(1.48148 -1.15884e-09 0)
(1.48148 1.27737e-09 0)
(1.48148 -1.40134e-09 0)
(1.48148 1.5256e-09 0)
(1.48148 -1.65535e-09 0)
(1.48148 1.78568e-09 0)
(1.48148 -1.9215e-09 0)
(1.48148 2.05819e-09 0)
(1.48148 -2.20034e-09 0)
(1.48148 2.34362e-09 0)
(1.48148 -2.49234e-09 0)
(1.48148 2.64244e-09 0)
(1.48148 -2.79791e-09 0)
(1.48148 2.95501e-09 0)
(1.48148 -3.11737e-09 0)
(1.48148 3.28166e-09 0)
(1.48148 -3.45102e-09 0)
(1.48148 3.62262e-09 0)
(1.48148 -3.7991e-09 0)
(1.48148 3.97812e-09 0)
(1.48148 -4.16177e-09 0)
(1.48148 4.3483e-09 0)
(1.48148 -4.53917e-09 0)
(1.48148 4.73324e-09 0)
(1.48148 -4.93137e-09 0)
(1.48148 5.13296e-09 0)
(1.48148 -5.33847e-09 0)
(1.48148 5.54756e-09 0)
(1.48148 -5.76035e-09 0)
(1.48148 5.97681e-09 0)
(1.48148 -6.19689e-09 0)
(1.48148 6.42062e-09 0)
(1.48148 -6.64787e-09 0)
(1.48148 6.87872e-09 0)
(1.48148 -7.11297e-09 0)
(1.48148 7.35074e-09 0)
(1.48148 -7.59173e-09 0)
(1.48148 6.88023e-09 0)
(1.48148 -6.96852e-09 0)
(1.48148 7.05606e-09 0)
(1.48148 -7.14239e-09 0)
(1.48148 7.228e-09 0)
(1.48148 -7.31235e-09 0)
(1.48148 7.39601e-09 0)
(1.48148 -7.47833e-09 0)
(1.48148 7.55999e-09 0)
(1.48148 -7.64025e-09 0)
(1.48148 7.71989e-09 0)
(1.48148 -7.79803e-09 0)
(1.48148 7.87561e-09 0)
(1.48148 -7.95159e-09 0)
(1.48148 8.02706e-09 0)
(1.48148 -8.10081e-09 0)
(1.48148 8.17415e-09 0)
(1.48148 -8.24558e-09 0)
(1.48148 8.31683e-09 0)
(1.48148 -8.38569e-09 0)
(1.48148 8.45502e-09 0)
(1.48148 -8.52109e-09 0)
(1.48148 8.5885e-09 0)
(1.48148 -8.65169e-09 0)
(1.48148 8.71707e-09 0)
(1.48148 -8.77735e-09 0)
(1.48148 8.84054e-09 0)
(1.48148 -8.8978e-09 0)
(1.48148 8.95873e-09 0)
(1.48148 -9.0129e-09 0)
(1.48148 9.0713e-09 0)
(1.48148 -9.12236e-09 0)
(1.48148 9.17798e-09 0)
(1.48148 -9.22592e-09 0)
(1.48148 9.27845e-09 0)
(1.48148 -9.323e-09 0)
(1.48148 9.37245e-09 0)
(1.48148 -9.41339e-09 0)
(1.48148 9.45923e-09 0)
(1.48148 -9.49654e-09 0)
(1.48148 9.53817e-09 0)
(1.48148 -9.57179e-09 0)
(1.48148 9.60841e-09 0)
(1.48148 -9.63805e-09 0)
(1.48148 9.66885e-09 0)
(1.48148 -9.69384e-09 0)
(1.48148 9.71751e-09 0)
(1.48148 -9.73665e-09 0)
(1.48148 9.75104e-09 0)
(1.48148 -9.75989e-09 0)
)
;

boundaryField
{
    inandouthalf11
    {
        type            cyclic;
    }
    inandouthalf12
    {
        type            cyclic;
    }
    inandouthalf21
    {
        type            cyclic;
    }
    inandouthalf22
    {
        type            cyclic;
    }
    inandouthalf31
    {
        type            cyclic;
    }
    inandouthalf32
    {
        type            cyclic;
    }
    inandouthalf41
    {
        type            cyclic;
    }
    inandouthalf42
    {
        type            cyclic;
    }
    top
    {
        type            symmetryPlane;
    }
    walls
    {
        type            fixedValue;
        value           uniform (0 0 0);
    }
    frontAndBackPlanes
    {
        type            empty;
    }
}


// ************************************************************************* //
