/*--------------------------------*- C++ -*----------------------------------*\
| =========                 |                                                 |
| \\      /  F ield         | OpenFOAM: The Open Source CFD Toolbox           |
|  \\    /   O peration     | Version:  2.4.x                                 |
|   \\  /    A nd           | Web:      www.OpenFOAM.org                      |
|    \\/     M anipulation  |                                                 |
\*---------------------------------------------------------------------------*/
FoamFile
{
    version     2.0;
    format      ascii;
    class       volScalarField;
    location    "10.7";
    object      ddt0(((1.5*(alpha+1e-08))*rho),Theta);
}
// * * * * * * * * * * * * * * * * * * * * * * * * * * * * * * * * * * * * * //

dimensions      [1 -1 -3 0 0 0 0];

internalField   nonuniform List<scalar> 
360
(
-5.91906e-23
-1.72438e-22
-1.02424e-22
-7.92435e-23
-7.33698e-23
-6.52655e-23
-5.59941e-23
-4.85596e-23
-4.33856e-23
-4.01024e-23
-3.83301e-23
-3.77448e-23
-3.80906e-23
-3.91654e-23
-4.08071e-23
-4.28844e-23
-4.52839e-23
-4.79124e-23
-5.07096e-23
-5.36297e-23
-5.6636e-23
-5.97156e-23
-6.28569e-23
-6.60444e-23
-6.92699e-23
-7.25224e-23
-7.58021e-23
-7.91152e-23
-8.24453e-23
-8.57781e-23
-8.91237e-23
-9.24702e-23
-9.58107e-23
-9.91576e-23
-1.02484e-22
-1.05774e-22
-1.09042e-22
-1.12306e-22
-1.15528e-22
-1.1869e-22
-1.21838e-22
-1.24925e-22
-1.27937e-22
-1.30929e-22
-1.33875e-22
-1.36758e-22
-1.39542e-22
-1.42209e-22
-1.44866e-22
-1.47492e-22
-1.49981e-22
-1.52376e-22
-1.54709e-22
-1.56939e-22
-1.59075e-22
-1.61129e-22
-1.63065e-22
-1.64886e-22
-1.66547e-22
-1.68076e-22
-1.69552e-22
-1.7093e-22
-1.72198e-22
-1.73333e-22
-1.74298e-22
-1.75121e-22
-1.75831e-22
-1.76388e-22
-1.76721e-22
-1.76905e-22
-1.77064e-22
-1.77091e-22
-1.76903e-22
-1.76618e-22
-1.76266e-22
-1.75759e-22
-1.75026e-22
-1.74098e-22
-1.73039e-22
-1.71828e-22
-1.7046e-22
-1.68988e-22
-1.67436e-22
-1.65788e-22
-1.64037e-22
-1.6217e-22
-1.6017e-22
-1.58015e-22
-1.55711e-22
-1.53286e-22
-1.50761e-22
-1.48164e-22
-1.45525e-22
-1.4286e-22
-1.40169e-22
-1.37445e-22
-1.34679e-22
-1.31862e-22
-1.28987e-22
-1.26056e-22
-1.23072e-22
-1.20042e-22
-1.16975e-22
-1.13882e-22
-1.10778e-22
-1.07683e-22
-1.04629e-22
-1.01656e-22
-9.88195e-23
-9.6183e-23
-9.38182e-23
-9.17984e-23
-9.01887e-23
-8.90328e-23
-8.83329e-23
-8.80276e-23
-8.79683e-23
-8.79046e-23
-8.74855e-23
-8.62843e-23
-8.38487e-23
-7.9761e-23
-7.36838e-23
-6.5358e-23
-5.45267e-23
-4.07694e-23
-5.61431e-23
-7.98779e-17
-2.3961e-16
-6.34788e-16
-1.60639e-15
-3.90217e-15
-9.09457e-15
-2.03434e-14
-4.38304e-14
-9.20694e-14
-1.95779e-13
-4.59573e-13
-1.31148e-12
-4.49449e-12
-1.69601e-11
-7.0316e-11
-3.99448e-10
-2.48605e-09
-1.78795e-08
-1.30329e-07
5.5636e-06
0.00179404
0.0861825
1.4102
2.12749
1.13566
0.446109
0.166018
0.0587238
0.0126731
-0.0103576
-0.0230969
-0.030558
-0.035045
-0.0377247
-0.0392381
-0.0399625
-0.0401318
-0.0398985
-0.0393667
-0.0386102
-0.0376834
-0.0366278
-0.035476
-0.0342539
-0.0329825
-0.0316794
-0.0303588
-0.0290328
-0.0277115
-0.026403
-0.0251143
-0.023851
-0.0226176
-0.0214178
-0.0202545
-0.0191298
-0.0180451
-0.0170017
-0.0159999
-0.0150401
-0.014122
-0.0132453
-0.0124093
-0.0116132
-0.0108561
-0.0101369
-0.00945435
-0.00880722
-0.00819424
-0.00761412
-0.00706559
-0.00654744
-0.00605852
-0.00559778
-0.00515992
-0.00474092
-0.00434139
-0.00396199
-0.00360334
-0.00326595
-0.00295017
-0.00265612
-0.00238362
-0.00213218
-0.00190099
-0.00168895
-0.00149481
-0.0013172
-0.00115483
-0.00100656
-0.000871489
-0.00074899
-0.000638647
-0.000540025
-0.000452912
-0.000376703
-0.000310857
-0.000254521
-0.000206717
-0.000166461
-0.000132664
-0.000104644
-8.1169e-05
-6.22048e-05
-4.61929e-05
-3.38553e-05
-2.31411e-05
-1.53563e-05
-8.5508e-06
0
0
0
0
0
0
0
0
0
0
0
0
0
0
0
0
0
0
0
0
0
0
0
0
0
0
0
0
0
0
0
0
0
0
0
0
0
0
0
0
0
0
0
0
0
0
0
0
0
0
0
0
0
0
0
0
0
0
0
0
0
0
0
0
0
0
0
0
0
0
0
0
0
0
0
0
0
0
0
0
0
0
0
0
0
0
0
0
0
0
0
0
0
0
0
0
0
0
0
0
0
0
0
0
0
0
0
0
0
0
0
0
0
0
0
0
0
0
0
0
0
0
0
0
)
;

boundaryField
{
    inandouthalf11
    {
        type            cyclic;
    }
    inandouthalf12
    {
        type            cyclic;
    }
    inandouthalf21
    {
        type            cyclic;
    }
    inandouthalf22
    {
        type            cyclic;
    }
    inandouthalf31
    {
        type            cyclic;
    }
    inandouthalf32
    {
        type            cyclic;
    }
    inandouthalf41
    {
        type            cyclic;
    }
    inandouthalf42
    {
        type            cyclic;
    }
    top
    {
        type            symmetryPlane;
    }
    walls
    {
        type            calculated;
        value           uniform -5.91906e-23;
    }
    frontAndBackPlanes
    {
        type            empty;
    }
}


// ************************************************************************* //
