/*--------------------------------*- C++ -*----------------------------------*\
| =========                 |                                                 |
| \\      /  F ield         | OpenFOAM: The Open Source CFD Toolbox           |
|  \\    /   O peration     | Version:  2.4.x                                 |
|   \\  /    A nd           | Web:      www.OpenFOAM.org                      |
|    \\/     M anipulation  |                                                 |
\*---------------------------------------------------------------------------*/
FoamFile
{
    version     2.0;
    format      ascii;
    class       surfaceScalarField;
    location    "10.7";
    object      ddt0(phia);
}
// * * * * * * * * * * * * * * * * * * * * * * * * * * * * * * * * * * * * * //

dimensions      [0 3 -2 0 0 0 0];

internalField   nonuniform List<scalar> 
359
(
1.64116e-14
4.04528e-14
5.99948e-14
7.58805e-14
8.99778e-14
1.02555e-13
1.13679e-13
1.23632e-13
1.32771e-13
1.41427e-13
1.49882e-13
1.58376e-13
1.6711e-13
1.76248e-13
1.85926e-13
1.96255e-13
2.07316e-13
2.19171e-13
2.31861e-13
2.45417e-13
2.59848e-13
2.75165e-13
2.91363e-13
3.08435e-13
3.26367e-13
3.45141e-13
3.64735e-13
3.85129e-13
4.06298e-13
4.28217e-13
4.50857e-13
4.74197e-13
4.98202e-13
5.22858e-13
5.48129e-13
5.73996e-13
6.00429e-13
6.27409e-13
6.54918e-13
6.8292e-13
7.1141e-13
7.40362e-13
7.69747e-13
7.99564e-13
8.29786e-13
8.60399e-13
8.91389e-13
9.22723e-13
9.54399e-13
9.86412e-13
1.01873e-12
1.05135e-12
1.08424e-12
1.11741e-12
1.15082e-12
1.18449e-12
1.21837e-12
1.25246e-12
1.28674e-12
1.32119e-12
1.35581e-12
1.39057e-12
1.42548e-12
1.46051e-12
1.49564e-12
1.53085e-12
1.56613e-12
1.60147e-12
1.63684e-12
1.67221e-12
1.7076e-12
1.74298e-12
1.77832e-12
1.81363e-12
1.84888e-12
1.88406e-12
1.91915e-12
1.95413e-12
1.98897e-12
2.02366e-12
2.05819e-12
2.09253e-12
2.12669e-12
2.16064e-12
2.19437e-12
2.22787e-12
2.26113e-12
2.29411e-12
2.32681e-12
2.35921e-12
2.3913e-12
2.42305e-12
2.45448e-12
2.48557e-12
2.51632e-12
2.54672e-12
2.57676e-12
2.60645e-12
2.63576e-12
2.66468e-12
2.6932e-12
2.72129e-12
2.74896e-12
2.77616e-12
2.80289e-12
2.82912e-12
2.85484e-12
2.88005e-12
2.90475e-12
2.92896e-12
2.95273e-12
2.97611e-12
2.99919e-12
3.02207e-12
3.04488e-12
3.06773e-12
3.09069e-12
3.11381e-12
3.13704e-12
3.16021e-12
3.18301e-12
3.205e-12
3.22556e-12
3.24397e-12
3.25937e-12
3.27084e-12
3.27739e-12
3.27798e-12
3.2716e-12
3.25749e-12
3.23564e-12
3.20757e-12
3.17718e-12
3.15098e-12
3.1367e-12
3.13929e-12
3.15609e-12
3.1769e-12
3.19153e-12
3.19746e-12
3.19865e-12
3.19877e-12
1.61509e-11
3.65078e-11
6.0749e-11
9.33497e-11
1.43988e-10
2.20484e-10
3.44607e-10
1.01034e-08
3.65129e-08
9.38888e-08
1.44408e-07
1.61905e-07
1.55761e-07
1.34587e-07
1.13688e-07
9.47566e-08
7.83616e-08
6.44734e-08
5.27339e-08
4.27512e-08
3.41897e-08
2.67752e-08
2.02898e-08
1.45623e-08
9.45923e-09
4.87611e-09
7.30969e-10
-3.04083e-09
-6.49061e-09
-9.6594e-09
-1.25803e-08
-1.52803e-08
-1.77816e-08
-2.01024e-08
-2.22584e-08
-2.42627e-08
-2.61265e-08
-2.78598e-08
-2.94712e-08
-3.09684e-08
-3.23584e-08
-3.36475e-08
-3.48413e-08
-3.59453e-08
-3.69644e-08
-3.7903e-08
-3.87655e-08
-3.95557e-08
-4.02772e-08
-4.09332e-08
-4.15263e-08
-4.20589e-08
-4.25326e-08
-4.29483e-08
-4.33064e-08
-4.36065e-08
-4.38478e-08
-4.40297e-08
-4.41518e-08
-4.42157e-08
-4.42216e-08
-4.41727e-08
-4.40775e-08
-4.39502e-08
-4.38116e-08
-4.36879e-08
-4.36092e-08
-4.36054e-08
-4.37014e-08
-4.391e-08
-4.4227e-08
-4.46296e-08
-4.50822e-08
-4.55439e-08
-4.59745e-08
-4.63359e-08
-4.65939e-08
-4.67197e-08
-4.6693e-08
-4.65044e-08
-4.61552e-08
-4.56566e-08
-4.50275e-08
-4.42861e-08
-4.34608e-08
-4.25578e-08
-4.16146e-08
-4.06101e-08
-3.95968e-08
-3.85141e-08
-3.743e-08
-3.62517e-08
-3.51894e-08
-3.22767e-08
-3.07029e-08
-2.71796e-08
-2.44409e-08
-2.16922e-08
-1.85259e-08
-1.39804e-08
-7.68526e-09
-3.4067e-10
6.7009e-09
1.64159e-08
2.17268e-08
3.75428e-08
3.51919e-08
5.70022e-08
2.43386e-07
1.41526e-07
-3.49541e-10
-3.96305e-10
-3.63101e-10
-3.20109e-10
-2.8665e-10
-2.59582e-10
-2.38334e-10
-2.22139e-10
-2.10322e-10
-2.02294e-10
-1.97559e-10
-1.95714e-10
-1.96445e-10
-1.99529e-10
-2.04837e-10
-2.12344e-10
-2.22154e-10
-2.34573e-10
-2.50205e-10
-2.71532e-10
-3.10173e-10
-4.24027e-10
-3.11289e-10
-2.60531e-10
-2.61448e-10
-2.61544e-10
-2.61545e-10
-2.61545e-10
-2.61545e-10
-2.61545e-10
-2.61545e-10
-2.61545e-10
-2.61545e-10
-2.61545e-10
-2.61545e-10
-2.61545e-10
-2.61545e-10
-2.61545e-10
-2.61545e-10
-2.61545e-10
-2.61545e-10
-2.61545e-10
-2.61545e-10
-2.61545e-10
-2.61545e-10
-2.61545e-10
-2.61545e-10
-2.61545e-10
-2.61545e-10
-2.61545e-10
-2.61545e-10
-2.61545e-10
-2.61545e-10
-2.61545e-10
-2.61545e-10
-2.61545e-10
-2.61545e-10
-2.61545e-10
-2.61545e-10
-2.61545e-10
-2.61546e-10
-2.61545e-10
-2.61546e-10
-2.61546e-10
-2.61546e-10
-2.61546e-10
-2.61546e-10
-2.61546e-10
-2.61546e-10
-2.61546e-10
-2.61546e-10
-2.61547e-10
-2.61547e-10
-2.61547e-10
-2.61548e-10
-2.61548e-10
-2.6155e-10
-2.61551e-10
-2.61553e-10
-2.61555e-10
-2.61557e-10
-2.61558e-10
-2.6156e-10
-2.61561e-10
-2.61564e-10
-2.61565e-10
-2.61567e-10
-2.61567e-10
-2.61569e-10
-2.61568e-10
-2.61568e-10
-2.61567e-10
-2.61569e-10
-2.61569e-10
-2.61569e-10
-2.61565e-10
-2.61563e-10
-2.61558e-10
-2.61553e-10
-2.61546e-10
-2.61536e-10
-2.61526e-10
-2.61517e-10
-2.6152e-10
-2.61632e-10
-2.64545e-10
-3.98987e-10
)
;

boundaryField
{
    inandouthalf11
    {
        type            cyclic;
        value           nonuniform List<scalar> 
100
(
1.53823e-38
7.83957e-16
1.85404e-15
3.02452e-15
4.38085e-15
5.91421e-15
7.55738e-15
9.26131e-15
1.0996e-14
1.27373e-14
1.44636e-14
1.6156e-14
1.77988e-14
1.93802e-14
2.08919e-14
2.23286e-14
2.36877e-14
2.49687e-14
2.61724e-14
2.73011e-14
2.83582e-14
2.93475e-14
3.02738e-14
3.1142e-14
3.19573e-14
3.27247e-14
3.34495e-14
3.4137e-14
3.47921e-14
3.54198e-14
3.60247e-14
3.66113e-14
3.71838e-14
3.77463e-14
3.83026e-14
3.88561e-14
3.94101e-14
3.99677e-14
4.05316e-14
4.11045e-14
4.16886e-14
4.22861e-14
4.2899e-14
4.35291e-14
4.4178e-14
4.48471e-14
4.55379e-14
4.62514e-14
4.69887e-14
4.7751e-14
4.85392e-14
4.93539e-14
5.01961e-14
5.10662e-14
5.19651e-14
5.28933e-14
5.38513e-14
5.48397e-14
5.58587e-14
5.69088e-14
5.79903e-14
5.91037e-14
6.02494e-14
6.14276e-14
6.26386e-14
6.38825e-14
6.51595e-14
6.64698e-14
6.78135e-14
6.91905e-14
7.06009e-14
7.20451e-14
7.35228e-14
7.50341e-14
7.65791e-14
7.81579e-14
7.97701e-14
8.14155e-14
8.30937e-14
8.48047e-14
8.6548e-14
8.83236e-14
9.01312e-14
9.19707e-14
9.3842e-14
9.57449e-14
9.76789e-14
9.96435e-14
1.01638e-13
1.03662e-13
1.05714e-13
1.07795e-13
1.09903e-13
1.12038e-13
1.14199e-13
1.16387e-13
1.18599e-13
1.20837e-13
1.23099e-13
1.25385e-13
)
;
    }
    inandouthalf12
    {
        type            cyclic;
        value           nonuniform List<scalar> 
100
(
-1.53823e-38
-7.83957e-16
-1.85404e-15
-3.02452e-15
-4.38085e-15
-5.91421e-15
-7.55738e-15
-9.26131e-15
-1.0996e-14
-1.27373e-14
-1.44636e-14
-1.6156e-14
-1.77988e-14
-1.93802e-14
-2.08919e-14
-2.23286e-14
-2.36877e-14
-2.49687e-14
-2.61724e-14
-2.73011e-14
-2.83582e-14
-2.93475e-14
-3.02738e-14
-3.1142e-14
-3.19573e-14
-3.27247e-14
-3.34495e-14
-3.4137e-14
-3.47921e-14
-3.54198e-14
-3.60247e-14
-3.66113e-14
-3.71838e-14
-3.77463e-14
-3.83026e-14
-3.88561e-14
-3.94101e-14
-3.99677e-14
-4.05316e-14
-4.11045e-14
-4.16886e-14
-4.22861e-14
-4.2899e-14
-4.35291e-14
-4.4178e-14
-4.48471e-14
-4.55379e-14
-4.62514e-14
-4.69887e-14
-4.7751e-14
-4.85392e-14
-4.93539e-14
-5.01961e-14
-5.10662e-14
-5.19651e-14
-5.28933e-14
-5.38513e-14
-5.48397e-14
-5.58587e-14
-5.69088e-14
-5.79903e-14
-5.91037e-14
-6.02494e-14
-6.14276e-14
-6.26386e-14
-6.38825e-14
-6.51595e-14
-6.64698e-14
-6.78135e-14
-6.91905e-14
-7.06009e-14
-7.20451e-14
-7.35228e-14
-7.50341e-14
-7.65791e-14
-7.81579e-14
-7.97701e-14
-8.14155e-14
-8.30937e-14
-8.48047e-14
-8.6548e-14
-8.83236e-14
-9.01312e-14
-9.19707e-14
-9.3842e-14
-9.57449e-14
-9.76789e-14
-9.96435e-14
-1.01638e-13
-1.03662e-13
-1.05714e-13
-1.07795e-13
-1.09903e-13
-1.12038e-13
-1.14199e-13
-1.16387e-13
-1.18599e-13
-1.20837e-13
-1.23099e-13
-1.25385e-13
)
;
    }
    inandouthalf21
    {
        type            cyclic;
        value           nonuniform List<scalar> 
100
(
1.27695e-13
1.3003e-13
1.32392e-13
1.34782e-13
1.37202e-13
1.39657e-13
1.42148e-13
1.44682e-13
1.47261e-13
1.4989e-13
1.52573e-13
1.55312e-13
1.58109e-13
1.60964e-13
1.63874e-13
1.66835e-13
1.69844e-13
1.72895e-13
1.75987e-13
1.7912e-13
1.82306e-13
1.85561e-13
1.88918e-13
1.92424e-13
1.96142e-13
2.00159e-13
2.04583e-13
2.09558e-13
2.15255e-13
2.2188e-13
2.29647e-13
2.38741e-13
2.49242e-13
2.61022e-13
2.73598e-13
2.85992e-13
2.96794e-13
3.04673e-13
3.09143e-13
3.10903e-13
3.1132e-13
3.11458e-13
3.11573e-13
-3.37828e-12
-9.04432e-12
-1.66939e-11
-2.93464e-11
-5.62713e-11
-1.60473e-10
9.21973e-08
2.06632e-07
4.06953e-07
5.78062e-07
6.89234e-07
7.60596e-07
8.09696e-07
8.45848e-07
8.73852e-07
8.96462e-07
9.15363e-07
9.31631e-07
9.4598e-07
9.5889e-07
9.70694e-07
9.81624e-07
9.91846e-07
1.00148e-06
1.01062e-06
1.01932e-06
1.02763e-06
1.03561e-06
1.04327e-06
1.05065e-06
1.05776e-06
1.06462e-06
1.07125e-06
1.07766e-06
1.08387e-06
1.08988e-06
1.0957e-06
1.10135e-06
1.10683e-06
1.11215e-06
1.11732e-06
1.12233e-06
1.12721e-06
1.13194e-06
1.13655e-06
1.14102e-06
1.14538e-06
1.14961e-06
1.15372e-06
1.15772e-06
1.1616e-06
1.16537e-06
1.16903e-06
1.17257e-06
1.17601e-06
1.17934e-06
1.18256e-06
)
;
    }
    inandouthalf22
    {
        type            cyclic;
        value           nonuniform List<scalar> 
100
(
-1.27695e-13
-1.3003e-13
-1.32392e-13
-1.34782e-13
-1.37202e-13
-1.39657e-13
-1.42148e-13
-1.44682e-13
-1.47261e-13
-1.4989e-13
-1.52573e-13
-1.55312e-13
-1.58109e-13
-1.60964e-13
-1.63874e-13
-1.66835e-13
-1.69844e-13
-1.72895e-13
-1.75987e-13
-1.7912e-13
-1.82306e-13
-1.85561e-13
-1.88918e-13
-1.92424e-13
-1.96142e-13
-2.00159e-13
-2.04583e-13
-2.09558e-13
-2.15255e-13
-2.2188e-13
-2.29647e-13
-2.38741e-13
-2.49242e-13
-2.61022e-13
-2.73598e-13
-2.85992e-13
-2.96794e-13
-3.04673e-13
-3.09143e-13
-3.10903e-13
-3.1132e-13
-3.11458e-13
-3.11573e-13
3.37828e-12
9.04432e-12
1.66939e-11
2.93464e-11
5.62713e-11
1.60473e-10
-9.21973e-08
-2.06632e-07
-4.06953e-07
-5.78062e-07
-6.89234e-07
-7.60596e-07
-8.09696e-07
-8.45848e-07
-8.73852e-07
-8.96462e-07
-9.15363e-07
-9.31631e-07
-9.4598e-07
-9.5889e-07
-9.70694e-07
-9.81624e-07
-9.91846e-07
-1.00148e-06
-1.01062e-06
-1.01932e-06
-1.02763e-06
-1.03561e-06
-1.04327e-06
-1.05065e-06
-1.05776e-06
-1.06462e-06
-1.07125e-06
-1.07766e-06
-1.08387e-06
-1.08988e-06
-1.0957e-06
-1.10135e-06
-1.10683e-06
-1.11215e-06
-1.11732e-06
-1.12233e-06
-1.12721e-06
-1.13194e-06
-1.13655e-06
-1.14102e-06
-1.14538e-06
-1.14961e-06
-1.15372e-06
-1.15772e-06
-1.1616e-06
-1.16537e-06
-1.16903e-06
-1.17257e-06
-1.17601e-06
-1.17934e-06
-1.18256e-06
)
;
    }
    inandouthalf31
    {
        type            cyclic;
        value           nonuniform List<scalar> 
110
(
1.18567e-06
1.21283e-06
1.24055e-06
1.26884e-06
1.29771e-06
1.32715e-06
1.35718e-06
1.38781e-06
1.41905e-06
1.45089e-06
1.48335e-06
1.51644e-06
1.55017e-06
1.58453e-06
1.61954e-06
1.6552e-06
1.69151e-06
1.72848e-06
1.7661e-06
1.80438e-06
1.84333e-06
1.88295e-06
1.92326e-06
1.96426e-06
2.00597e-06
2.0484e-06
2.09157e-06
2.1355e-06
2.18019e-06
2.22567e-06
2.27195e-06
2.31905e-06
2.36698e-06
2.41577e-06
2.46544e-06
2.51602e-06
2.5676e-06
2.66346e-06
2.71389e-06
2.76399e-06
2.81419e-06
2.86442e-06
2.91465e-06
2.96498e-06
3.0155e-06
3.0663e-06
3.11815e-06
3.16974e-06
3.22661e-06
3.27878e-06
3.34439e-06
3.37894e-06
3.45166e-06
3.51374e-06
3.57861e-06
3.64537e-06
3.7141e-06
3.78476e-06
3.85735e-06
3.93187e-06
4.00834e-06
4.08676e-06
4.16717e-06
4.24961e-06
4.3341e-06
4.4207e-06
4.50947e-06
4.60047e-06
4.69377e-06
4.78947e-06
4.88767e-06
4.98849e-06
5.09186e-06
5.19983e-06
5.31141e-06
5.42115e-06
5.53125e-06
5.64352e-06
5.75807e-06
5.87495e-06
5.99419e-06
6.11586e-06
6.23999e-06
6.36665e-06
6.49588e-06
6.62772e-06
6.76225e-06
6.89951e-06
7.03955e-06
7.18243e-06
7.32821e-06
7.47696e-06
7.62872e-06
7.78356e-06
7.94155e-06
8.10274e-06
8.26721e-06
8.43501e-06
8.60622e-06
8.7809e-06
8.95913e-06
9.14097e-06
9.32651e-06
9.51581e-06
9.70896e-06
9.90603e-06
1.01071e-05
1.03122e-05
1.05216e-05
1.07351e-05
)
;
    }
    inandouthalf32
    {
        type            cyclic;
        value           nonuniform List<scalar> 
110
(
-1.18567e-06
-1.21283e-06
-1.24055e-06
-1.26884e-06
-1.29771e-06
-1.32715e-06
-1.35718e-06
-1.38781e-06
-1.41905e-06
-1.45089e-06
-1.48335e-06
-1.51644e-06
-1.55017e-06
-1.58453e-06
-1.61954e-06
-1.6552e-06
-1.69151e-06
-1.72848e-06
-1.7661e-06
-1.80438e-06
-1.84333e-06
-1.88295e-06
-1.92326e-06
-1.96426e-06
-2.00597e-06
-2.0484e-06
-2.09157e-06
-2.1355e-06
-2.18019e-06
-2.22567e-06
-2.27195e-06
-2.31905e-06
-2.36698e-06
-2.41577e-06
-2.46544e-06
-2.51602e-06
-2.5676e-06
-2.66346e-06
-2.71389e-06
-2.76399e-06
-2.81419e-06
-2.86442e-06
-2.91465e-06
-2.96498e-06
-3.0155e-06
-3.0663e-06
-3.11815e-06
-3.16974e-06
-3.22661e-06
-3.27878e-06
-3.34439e-06
-3.37894e-06
-3.45166e-06
-3.51374e-06
-3.57861e-06
-3.64537e-06
-3.7141e-06
-3.78476e-06
-3.85735e-06
-3.93187e-06
-4.00834e-06
-4.08676e-06
-4.16717e-06
-4.24961e-06
-4.3341e-06
-4.4207e-06
-4.50947e-06
-4.60047e-06
-4.69377e-06
-4.78947e-06
-4.88767e-06
-4.98849e-06
-5.09186e-06
-5.19983e-06
-5.31141e-06
-5.42115e-06
-5.53125e-06
-5.64352e-06
-5.75807e-06
-5.87495e-06
-5.99419e-06
-6.11586e-06
-6.23999e-06
-6.36665e-06
-6.49588e-06
-6.62772e-06
-6.76225e-06
-6.89951e-06
-7.03955e-06
-7.18243e-06
-7.32821e-06
-7.47696e-06
-7.62872e-06
-7.78356e-06
-7.94155e-06
-8.10274e-06
-8.26721e-06
-8.43501e-06
-8.60622e-06
-8.7809e-06
-8.95913e-06
-9.14097e-06
-9.32651e-06
-9.51581e-06
-9.70896e-06
-9.90603e-06
-1.01071e-05
-1.03122e-05
-1.05216e-05
-1.07351e-05
)
;
    }
    inandouthalf41
    {
        type            cyclic;
        value           nonuniform List<scalar> 
50
(
9.60902e-06
9.60902e-06
9.60902e-06
9.60902e-06
9.60902e-06
9.60902e-06
9.60902e-06
9.60902e-06
9.60902e-06
9.60902e-06
9.60902e-06
9.60902e-06
9.60902e-06
9.60902e-06
9.60902e-06
9.60902e-06
9.60902e-06
9.60902e-06
9.60902e-06
9.60902e-06
9.60902e-06
9.60902e-06
9.60902e-06
9.60902e-06
9.60902e-06
9.60902e-06
9.60902e-06
9.60902e-06
9.60902e-06
9.60902e-06
9.60902e-06
9.60902e-06
9.60902e-06
9.60902e-06
9.60902e-06
9.60902e-06
9.60902e-06
9.60902e-06
9.60902e-06
9.60902e-06
9.60902e-06
9.60902e-06
9.60902e-06
9.60902e-06
9.60902e-06
9.60902e-06
9.60902e-06
9.60902e-06
9.60914e-06
9.61186e-06
)
;
    }
    inandouthalf42
    {
        type            cyclic;
        value           nonuniform List<scalar> 
50
(
-9.60902e-06
-9.60902e-06
-9.60902e-06
-9.60902e-06
-9.60902e-06
-9.60902e-06
-9.60902e-06
-9.60902e-06
-9.60902e-06
-9.60902e-06
-9.60902e-06
-9.60902e-06
-9.60902e-06
-9.60902e-06
-9.60902e-06
-9.60902e-06
-9.60902e-06
-9.60902e-06
-9.60902e-06
-9.60902e-06
-9.60902e-06
-9.60902e-06
-9.60902e-06
-9.60902e-06
-9.60902e-06
-9.60902e-06
-9.60902e-06
-9.60902e-06
-9.60902e-06
-9.60902e-06
-9.60902e-06
-9.60902e-06
-9.60902e-06
-9.60902e-06
-9.60902e-06
-9.60902e-06
-9.60902e-06
-9.60902e-06
-9.60902e-06
-9.60902e-06
-9.60902e-06
-9.60902e-06
-9.60902e-06
-9.60902e-06
-9.60902e-06
-9.60902e-06
-9.60902e-06
-9.60902e-06
-9.60914e-06
-9.61186e-06
)
;
    }
    top
    {
        type            symmetryPlane;
        value           uniform 0;
    }
    walls
    {
        type            calculated;
        value           uniform 0;
    }
    frontAndBackPlanes
    {
        type            empty;
        value           nonuniform 0();
    }
}


// ************************************************************************* //
