/*--------------------------------*- C++ -*----------------------------------*\
| =========                 |                                                 |
| \\      /  F ield         | OpenFOAM: The Open Source CFD Toolbox           |
|  \\    /   O peration     | Version:  2.4.x                                 |
|   \\  /    A nd           | Web:      www.OpenFOAM.org                      |
|    \\/     M anipulation  |                                                 |
\*---------------------------------------------------------------------------*/
FoamFile
{
    version     2.0;
    format      ascii;
    class       volScalarField;
    location    "10.7";
    object      epsilon;
}
// * * * * * * * * * * * * * * * * * * * * * * * * * * * * * * * * * * * * * //

dimensions      [0 2 -3 0 0 0 0];

internalField   nonuniform List<scalar> 
360
(
1e-20
1e-20
1e-20
1e-20
1e-20
1e-20
1e-20
1e-20
1e-20
1e-20
1e-20
1e-20
1e-20
1e-20
1e-20
1e-20
1e-20
1e-20
1e-20
1e-20
1e-20
1e-20
1e-20
1e-20
1e-20
1e-20
1e-20
1e-20
1e-20
1e-20
1e-20
1e-20
1e-20
1e-20
1e-20
1e-20
1e-20
1e-20
1e-20
1e-20
1e-20
1e-20
1e-20
1e-20
1e-20
1e-20
1e-20
1e-20
1e-20
1e-20
1e-20
1e-20
1e-20
1e-20
1e-20
1e-20
1e-20
1e-20
1e-20
1e-20
1e-20
1e-20
1e-20
1e-20
1e-20
1e-20
1e-20
1e-20
1e-20
1e-20
1e-20
1e-20
1e-20
1e-20
1e-20
1e-20
1e-20
1e-20
1e-20
1e-20
1e-20
1e-20
1e-20
1e-20
1e-20
1e-20
1e-20
1e-20
1e-20
1e-20
1e-20
1e-20
1e-20
1e-20
1e-20
1e-20
1e-20
1e-20
1e-20
1e-20
1e-20
1e-20
1e-20
1e-20
1e-20
1e-20
1e-20
1e-20
1e-20
1e-20
1e-20
1e-20
1e-20
1e-20
1e-20
1e-20
1e-20
1e-20
1e-20
1e-20
1e-20
1e-20
1e-20
1e-20
1e-20
1e-20
1e-20
1.06706e-20
2.45563e-20
6.01899e-20
1.43668e-19
3.31839e-19
7.42162e-19
1.61444e-18
3.45669e-18
7.47764e-18
1.7145e-17
4.42941e-17
1.33527e-16
4.65765e-16
1.90757e-15
1.03954e-14
9.07449e-14
1.19007e-12
2.35333e-11
6.50448e-10
2.34444e-08
1.07911e-06
6.28035e-05
0.00408152
0.0648795
0.0516203
0.0296905
0.0190416
0.0141824
0.0118276
0.010622
0.0100011
0.00970798
0.00961325
0.00964536
0.00976156
0.00993461
0.0101461
0.010383
0.010636
0.0108978
0.0111629
0.0114271
0.0116869
0.0119398
0.0121835
0.0124163
0.012637
0.0128445
0.0130379
0.0132168
0.0133807
0.0135294
0.0136627
0.0137807
0.0138833
0.0139707
0.0140432
0.0141009
0.0141443
0.0141735
0.0141891
0.0141913
0.0141806
0.0141574
0.0141222
0.0140753
0.0140174
0.0139487
0.0138698
0.0137811
0.0136831
0.0135763
0.013461
0.0133377
0.0132056
0.0130633
0.0129108
0.012748
0.0125749
0.0123915
0.0121977
0.0119936
0.0117791
0.0115544
0.0113194
0.0110742
0.010819
0.0105538
0.0102789
0.00999443
0.00970062
0.00939777
0.00908619
0.00876628
0.00843846
0.00810325
0.00776121
0.00741301
0.00705936
0.00670111
0.00633918
0.00597462
0.00560858
0.00524234
0.00487732
0.00451507
0.00415727
0.00380573
0.0034624
0.00312932
0.0028086
0.00250238
0.0022128
0.00194185
0.00169133
0.00146271
0.00125702
0.00107473
0.000915677
0.000779066
0.000663473
0.000566981
0.000487337
0.000422138
0.000369006
0.00032572
0.000290301
0.000261044
0.000236525
0.000215575
0.000197252
0.000180807
0.000165656
0.000151355
0.000137578
0.000124097
0.000110775
9.75506e-05
8.44291e-05
7.14782e-05
5.88205e-05
4.6631e-05
3.51341e-05
2.46045e-05
1.53725e-05
7.84131e-06
2.48044e-06
2.55314e-07
5.53447e-09
6.33104e-11
6.69253e-13
6.68145e-15
6.30583e-17
5.70537e-19
1.32133e-20
1e-20
1e-20
1e-20
1e-20
1e-20
1e-20
1e-20
1e-20
1e-20
1e-20
1e-20
1e-20
1e-20
1e-20
1e-20
1e-20
1e-20
1e-20
1e-20
1e-20
1e-20
1e-20
1e-20
1e-20
1e-20
1e-20
1e-20
1e-20
1e-20
1e-20
1e-20
1e-20
1e-20
1e-20
1e-20
1e-20
1e-20
1e-20
1e-20
1e-20
1e-20
1e-20
1e-20
1e-20
1e-20
1e-20
1e-20
1e-20
1e-20
1e-20
1e-20
1e-20
1e-20
1e-20
1e-20
1e-20
1e-20
1e-20
1e-20
1e-20
1e-20
1e-20
1e-20
1e-20
1e-20
1e-20
1e-20
1e-20
1e-20
1e-20
1e-20
1e-20
1e-20
1e-20
1e-20
1e-20
1e-20
1e-20
)
;

boundaryField
{
    inandouthalf11
    {
        type            cyclic;
    }
    inandouthalf12
    {
        type            cyclic;
    }
    inandouthalf21
    {
        type            cyclic;
    }
    inandouthalf22
    {
        type            cyclic;
    }
    inandouthalf31
    {
        type            cyclic;
    }
    inandouthalf32
    {
        type            cyclic;
    }
    inandouthalf41
    {
        type            cyclic;
    }
    inandouthalf42
    {
        type            cyclic;
    }
    top
    {
        type            symmetryPlane;
    }
    walls
    {
        type            zeroGradient;
    }
    frontAndBackPlanes
    {
        type            empty;
    }
}


// ************************************************************************* //
