/*--------------------------------*- C++ -*----------------------------------*\
| =========                 |                                                 |
| \\      /  F ield         | OpenFOAM: The Open Source CFD Toolbox           |
|  \\    /   O peration     | Version:  2.4.x                                 |
|   \\  /    A nd           | Web:      www.OpenFOAM.org                      |
|    \\/     M anipulation  |                                                 |
\*---------------------------------------------------------------------------*/
FoamFile
{
    version     2.0;
    format      ascii;
    class       volVectorField;
    location    "10.7";
    object      gradPs;
}
// * * * * * * * * * * * * * * * * * * * * * * * * * * * * * * * * * * * * * //

dimensions      [0 1 -2 0 0 0 0];

internalField   nonuniform List<vector> 
360
(
(0 1.55352e-18 0)
(0 1.71246e-18 0)
(0 -9.59051e-22 0)
(0 -2.38123e-19 0)
(-1.45027e-32 -1.00088e-19 0)
(-2.90061e-32 -5.4711e-20 0)
(-2.90069e-32 -7.02514e-20 0)
(0 -8.02139e-20 0)
(-1.45045e-32 -8.15243e-20 0)
(0 -8.21723e-20 0)
(-1.45056e-32 -8.24081e-20 0)
(0 -8.26776e-20 0)
(-2.90134e-32 -8.33279e-20 0)
(0 -8.40109e-20 0)
(0 -8.49322e-20 0)
(0 -8.58756e-20 0)
(0 -8.66257e-20 0)
(-1.45095e-32 -8.73087e-20 0)
(0 -8.8361e-20 0)
(0 -8.91018e-20 0)
(0 -8.98794e-20 0)
(-1.45119e-32 -9.10001e-20 0)
(0 -9.18177e-20 0)
(0 -9.27721e-20 0)
(0 -9.37538e-20 0)
(-1.45143e-32 -9.45509e-20 0)
(0 -9.56416e-20 0)
(0 -9.6776e-20 0)
(0 -9.75928e-20 0)
(0 -9.85475e-20 0)
(0 -9.98785e-20 0)
(0 -1.00582e-19 0)
(0 -1.01818e-19 0)
(0 -1.03084e-19 0)
(0 -1.03891e-19 0)
(2.90419e-32 -1.05039e-19 0)
(0 -1.06135e-19 0)
(0 -1.07756e-19 0)
(0 -1.08293e-19 0)
(0 -1.09612e-19 0)
(0 -1.11394e-19 0)
(0 -1.11774e-19 0)
(1.45261e-32 -1.13391e-19 0)
(0 -1.14872e-19 0)
(0 -1.1582e-19 0)
(0 -1.17592e-19 0)
(0 -1.18346e-19 0)
(0 -1.195e-19 0)
(0 -1.21888e-19 0)
(0 -1.22737e-19 0)
(2.90648e-32 -1.23838e-19 0)
(0 -1.25688e-19 0)
(0 -1.27183e-19 0)
(0 -1.28385e-19 0)
(0 -1.30218e-19 0)
(0 -1.3173e-19 0)
(0 -1.3317e-19 0)
(0 -1.35212e-19 0)
(0 -1.36062e-19 0)
(0 -1.38336e-19 0)
(0 -1.4013e-19 0)
(0 -1.41641e-19 0)
(0 -1.43752e-19 0)
(0 -1.45345e-19 0)
(0 -1.47167e-19 0)
(0 -1.49143e-19 0)
(0 -1.51406e-19 0)
(0 -1.53275e-19 0)
(0 -1.54768e-19 0)
(0 -1.57232e-19 0)
(0 -1.60161e-19 0)
(0 -1.61465e-19 0)
(0 -1.63667e-19 0)
(0 -1.66486e-19 0)
(0 -1.68922e-19 0)
(0 -1.7124e-19 0)
(0 -1.73343e-19 0)
(0 -1.76182e-19 0)
(0 -1.78972e-19 0)
(0 -1.81467e-19 0)
(0 -1.84188e-19 0)
(0 -1.87267e-19 0)
(0 -1.90192e-19 0)
(0 -1.93213e-19 0)
(0 -1.96338e-19 0)
(0 -1.99582e-19 0)
(0 -2.02871e-19 0)
(0 -2.06159e-19 0)
(0 -2.09689e-19 0)
(0 -2.13337e-19 0)
(0 -2.17037e-19 0)
(0 -2.2093e-19 0)
(0 -2.24989e-19 0)
(0 -2.29129e-19 0)
(0 -2.33403e-19 0)
(0 -2.37819e-19 0)
(0 -2.42368e-19 0)
(0 -2.47067e-19 0)
(0 -2.51947e-19 0)
(0 -2.57013e-19 0)
(0 -2.62267e-19 0)
(0 -2.67732e-19 0)
(0 -2.73408e-19 0)
(0 -2.79291e-19 0)
(0 -2.85397e-19 0)
(0 -2.91735e-19 0)
(0 -2.98317e-19 0)
(0 -3.05157e-19 0)
(0 -3.12271e-19 0)
(0 -3.19671e-19 0)
(0 -3.27374e-19 0)
(0 -3.35396e-19 0)
(0 -3.43756e-19 0)
(0 -3.52479e-19 0)
(0 -3.61591e-19 0)
(0 -3.71125e-19 0)
(0 -3.81117e-19 0)
(0 -3.91612e-19 0)
(0 -4.0266e-19 0)
(0 -4.14313e-19 0)
(0 -4.26621e-19 0)
(0 -4.39627e-19 0)
(0 -4.53363e-19 0)
(0 -4.67863e-19 0)
(0 -4.83195e-19 0)
(0 -4.99479e-19 0)
(0 5.22491e-17 0)
(0 3.5112e-16 0)
(0 1.02703e-15 0)
(0 2.37895e-15 0)
(0 5.23635e-15 0)
(0 1.10633e-14 0)
(0 2.25039e-14 0)
(0 4.45104e-14 0)
(0 8.76549e-14 0)
(0 1.80232e-13 0)
(0 4.13779e-13 0)
(0 1.0955e-12 0)
(0 3.21466e-12 0)
(0 1.01705e-11 0)
(0 3.93342e-11 0)
(0 2.5866e-10 0)
(0 2.53721e-09 0)
(0 3.71819e-08 0)
(0 7.90819e-07 0)
(0 2.63122e-05 0)
(0 0.00267382 0)
(0 0.149476 0)
(0 1.19647 0)
(0 0.45228 0)
(0 -3.63074 0)
(0 -3.48332 0)
(0 -2.89167 0)
(0 -1.96682 0)
(0 -1.28879 0)
(0 -0.859384 0)
(0 -0.616579 0)
(0 -0.473606 0)
(0 -0.382125 0)
(0 -0.321477 0)
(0 -0.280846 0)
(0 -0.253579 0)
(0 -0.23559 0)
(0 -0.224297 0)
(0 -0.217987 0)
(0 -0.215473 0)
(0 -0.215904 0)
(0 -0.218659 0)
(0 -0.223269 0)
(0 -0.229373 0)
(0 -0.236687 0)
(0 -0.244992 0)
(0 -0.254093 0)
(0 -0.263844 0)
(0 -0.274127 0)
(0 -0.284832 0)
(0 -0.295868 0)
(0 -0.307164 0)
(0 -0.318659 0)
(0 -0.330298 0)
(0 -0.342039 0)
(0 -0.353841 0)
(0 -0.365676 0)
(0 -0.377517 0)
(0 -0.389345 0)
(0 -0.401145 0)
(0 -0.412908 0)
(0 -0.424631 0)
(0 -0.436318 0)
(0 -0.447975 0)
(0 -0.459616 0)
(0 -0.471262 0)
(0 -0.482936 0)
(0 -0.494664 0)
(0 -0.506471 0)
(0 -0.518379 0)
(0 -0.530392 0)
(0 -0.542489 0)
(0 -0.554619 0)
(0 -0.566681 0)
(0 -0.578511 0)
(0 -0.589989 0)
(-4.34709e-16 -0.600967 0)
(0 -0.611117 0)
(0 -0.620037 0)
(2.52258e-16 -0.62737 0)
(0 -0.632795 0)
(-2.81857e-16 -0.63611 0)
(0 -0.637278 0)
(6.35087e-16 -0.636462 0)
(0 -0.634041 0)
(0 -0.630584 0)
(0 -0.626789 0)
(4.1194e-16 -0.623369 0)
(0 -0.620882 0)
(0 -0.619557 0)
(0 -0.619156 0)
(0 -0.618931 0)
(0 -0.617683 0)
(-1.64706e-16 -0.613959 0)
(0 -0.606356 0)
(0 -0.593856 0)
(0 -0.576076 0)
(0 -0.553292 0)
(0 -0.526309 0)
(0 -0.495996 0)
(0 -0.463835 0)
(0 -0.429566 0)
(9.64258e-17 -0.395392 0)
(1.05307e-16 -0.359345 0)
(0 -0.324081 0)
(0 -0.287602 0)
(0 -0.252268 0)
(0 -0.219987 0)
(0 -0.183739 0)
(0 -0.2059 0)
(0 -0.119262 0)
(0 0 0)
(0 0 0)
(0 0 0)
(0 0 0)
(0 0 0)
(0 0 0)
(0 0 0)
(0 0 0)
(0 0 0)
(0 0 0)
(0 0 0)
(0 0 0)
(0 0 0)
(0 0 0)
(0 0 0)
(0 0 0)
(0 0 0)
(0 0 0)
(0 0 0)
(0 0 0)
(0 0 0)
(0 0 0)
(0 0 0)
(0 0 0)
(0 0 0)
(0 0 0)
(0 0 0)
(0 0 0)
(0 0 0)
(0 0 0)
(0 0 0)
(0 0 0)
(0 0 0)
(0 0 0)
(0 0 0)
(0 0 0)
(0 0 0)
(0 0 0)
(0 0 0)
(0 0 0)
(0 0 0)
(0 0 0)
(0 0 0)
(0 0 0)
(0 0 0)
(0 0 0)
(0 0 0)
(0 0 0)
(0 0 0)
(0 0 0)
(0 0 0)
(0 0 0)
(0 0 0)
(0 0 0)
(0 0 0)
(0 0 0)
(0 0 0)
(0 0 0)
(0 0 0)
(0 0 0)
(0 0 0)
(0 0 0)
(0 0 0)
(0 0 0)
(0 0 0)
(0 0 0)
(0 0 0)
(0 0 0)
(0 0 0)
(0 0 0)
(0 0 0)
(0 0 0)
(0 0 0)
(0 0 0)
(0 0 0)
(0 0 0)
(0 0 0)
(0 0 0)
(0 0 0)
(0 0 0)
(0 0 0)
(0 0 0)
(0 0 0)
(0 0 0)
(0 0 0)
(0 0 0)
(0 0 0)
(0 0 0)
(0 0 0)
(0 0 0)
(0 0 0)
(0 0 0)
(0 0 0)
(0 0 0)
(0 0 0)
(0 0 0)
(0 0 0)
(0 0 0)
(0 0 0)
(0 0 0)
(0 0 0)
(0 0 0)
(0 0 0)
(0 0 0)
(0 0 0)
(0 0 0)
(0 0 0)
(0 0 0)
(0 0 0)
(0 0 0)
(0 0 0)
(0 0 0)
(0 0 0)
(0 0 0)
(0 0 0)
(0 0 0)
(0 0 0)
(0 0 0)
(0 0 0)
(0 0 0)
(0 0 0)
(0 0 0)
(0 0 0)
)
;

boundaryField
{
    inandouthalf11
    {
        type            cyclic;
    }
    inandouthalf12
    {
        type            cyclic;
    }
    inandouthalf21
    {
        type            cyclic;
    }
    inandouthalf22
    {
        type            cyclic;
    }
    inandouthalf31
    {
        type            cyclic;
    }
    inandouthalf32
    {
        type            cyclic;
    }
    inandouthalf41
    {
        type            cyclic;
    }
    inandouthalf42
    {
        type            cyclic;
    }
    top
    {
        type            symmetryPlane;
    }
    walls
    {
        type            calculated;
        value           uniform (0 0 0);
    }
    frontAndBackPlanes
    {
        type            empty;
    }
}


// ************************************************************************* //
