/*--------------------------------*- C++ -*----------------------------------*\
| =========                 |                                                 |
| \\      /  F ield         | OpenFOAM: The Open Source CFD Toolbox           |
|  \\    /   O peration     | Version:  2.4.x                                 |
|   \\  /    A nd           | Web:      www.OpenFOAM.org                      |
|    \\/     M anipulation  |                                                 |
\*---------------------------------------------------------------------------*/
FoamFile
{
    version     2.0;
    format      ascii;
    class       volScalarField;
    location    "10.7";
    object      p;
}
// * * * * * * * * * * * * * * * * * * * * * * * * * * * * * * * * * * * * * //

dimensions      [1 -1 -2 0 0 0 0];

internalField   nonuniform List<scalar> 
360
(
4885.91
4881
4876.1
4871.19
4866.29
4861.38
4856.47
4851.57
4846.66
4841.76
4836.85
4831.95
4827.04
4822.14
4817.23
4812.32
4807.42
4802.51
4797.61
4792.7
4787.8
4782.89
4777.98
4773.08
4768.17
4763.27
4758.36
4753.45
4748.55
4743.64
4738.74
4733.83
4728.92
4724.02
4719.11
4714.2
4709.3
4704.39
4699.48
4694.58
4689.67
4684.76
4679.86
4674.95
4670.04
4665.14
4660.23
4655.32
4650.42
4645.51
4640.6
4635.7
4630.79
4625.88
4620.98
4616.07
4611.16
4606.25
4601.35
4596.44
4591.53
4586.62
4581.72
4576.81
4571.9
4566.99
4562.09
4557.18
4552.27
4547.36
4542.46
4537.55
4532.64
4527.73
4522.82
4517.92
4513.01
4508.1
4503.19
4498.28
4493.37
4488.47
4483.56
4478.65
4473.74
4468.83
4463.92
4459.02
4454.11
4449.2
4444.29
4439.38
4434.47
4429.56
4424.65
4419.75
4414.84
4409.93
4405.02
4400.11
4395.2
4390.29
4385.38
4380.47
4375.56
4370.65
4365.75
4360.84
4355.93
4351.02
4346.11
4341.2
4336.29
4331.38
4326.47
4321.56
4316.65
4311.74
4306.83
4301.92
4297.01
4292.1
4287.19
4282.28
4277.37
4272.46
4267.55
4262.64
4257.73
4252.82
4247.91
4243
4238.09
4233.18
4228.27
4223.36
4218.45
4213.54
4208.63
4203.72
4198.81
4193.9
4188.99
4184.08
4179.17
4174.25
4169.33
4164.4
4159.46
4154.35
4147.76
4142.02
4136.9
4131.78
4126.67
4121.57
4116.48
4111.39
4106.32
4101.25
4096.19
4091.13
4086.08
4081.03
4075.99
4070.95
4065.92
4060.89
4055.86
4050.85
4045.83
4040.82
4035.82
4030.82
4025.82
4020.83
4015.85
4010.87
4005.89
4000.92
3995.95
3990.99
3986.03
3981.08
3976.13
3971.18
3966.24
3961.31
3956.37
3951.44
3946.52
3941.59
3936.67
3931.76
3926.85
3921.94
3917.03
3912.13
3907.23
3902.33
3897.44
3892.49
3887.45
3882.32
3877.07
3871.73
3866.28
3860.72
3855.06
3849.28
3843.38
3837.37
3831.24
3824.99
3818.61
3812.11
3805.48
3798.71
3791.81
3784.78
3777.6
3770.28
3762.81
3755.19
3747.42
3739.5
3731.42
3723.17
3714.76
3706.17
3697.42
3688.48
3679.37
3670.06
3660.57
3650.89
3641
3630.91
3620.61
3610.1
3599.36
3588.41
3577.22
3565.79
3554.13
3542.22
3530.06
3517.64
3504.95
3492.01
3478.79
3465.3
3451.52
3437.47
3423.12
3408.48
3393.54
3378.29
3362.74
3346.87
3330.67
3314.15
3297.29
3280.09
3262.54
3244.64
3226.37
3207.73
3188.71
3169.3
3149.5
3129.3
3108.69
3087.65
3066.18
3044.26
3021.9
2999.08
2975.8
2952.05
2927.81
2903.09
2877.86
2852.12
2825.86
2799.06
2771.72
2743.82
2715.36
2686.32
2656.7
2626.47
2595.62
2564.15
2532.05
2499.29
2465.86
2431.76
2396.96
2361.46
2325.24
2288.28
2250.57
2212.1
2172.85
2132.8
2091.93
2050.24
2007.7
1964.3
1922.76
1883.52
1844.28
1805.04
1765.8
1726.56
1687.32
1648.08
1608.84
1569.6
1530.36
1491.12
1451.88
1412.64
1373.4
1334.16
1294.92
1255.68
1216.44
1177.2
1137.96
1098.72
1059.48
1020.24
981
941.76
902.52
863.28
824.04
784.8
745.56
706.32
667.08
627.84
588.6
549.36
510.12
470.88
431.64
392.4
353.16
313.92
274.68
235.44
196.2
156.96
117.72
78.48
39.24
1.67368e-07
)
;

boundaryField
{
    inandouthalf11
    {
        type            cyclic;
    }
    inandouthalf12
    {
        type            cyclic;
    }
    inandouthalf21
    {
        type            cyclic;
    }
    inandouthalf22
    {
        type            cyclic;
    }
    inandouthalf31
    {
        type            cyclic;
    }
    inandouthalf32
    {
        type            cyclic;
    }
    inandouthalf41
    {
        type            cyclic;
    }
    inandouthalf42
    {
        type            cyclic;
    }
    top
    {
        type            symmetryPlane;
    }
    walls
    {
        type            slip;
    }
    frontAndBackPlanes
    {
        type            empty;
    }
}


// ************************************************************************* //
