/*--------------------------------*- C++ -*----------------------------------*\
| =========                 |                                                 |
| \\      /  F ield         | OpenFOAM: The Open Source CFD Toolbox           |
|  \\    /   O peration     | Version:  2.4.x                                 |
|   \\  /    A nd           | Web:      www.OpenFOAM.org                      |
|    \\/     M anipulation  |                                                 |
\*---------------------------------------------------------------------------*/
FoamFile
{
    version     2.0;
    format      ascii;
    class       surfaceScalarField;
    location    "10.7";
    object      phib;
}
// * * * * * * * * * * * * * * * * * * * * * * * * * * * * * * * * * * * * * //

dimensions      [0 3 -1 0 0 0 0];

internalField   nonuniform List<scalar> 
359
(
3.85017e-14
9.6159e-14
1.4892e-13
1.98743e-13
2.48903e-13
2.98914e-13
3.4785e-13
3.95458e-13
4.41776e-13
4.86895e-13
5.30874e-13
5.73746e-13
6.1556e-13
6.56379e-13
6.96284e-13
7.35367e-13
7.73722e-13
8.1144e-13
8.48612e-13
8.85331e-13
9.21676e-13
9.57737e-13
9.9359e-13
1.02931e-12
1.06496e-12
1.10061e-12
1.13631e-12
1.17212e-12
1.20807e-12
1.24422e-12
1.2806e-12
1.31724e-12
1.35417e-12
1.39141e-12
1.42898e-12
1.4669e-12
1.50518e-12
1.54383e-12
1.58286e-12
1.62227e-12
1.66207e-12
1.70227e-12
1.74283e-12
1.78379e-12
1.82513e-12
1.86684e-12
1.90893e-12
1.95136e-12
1.99414e-12
2.03728e-12
2.08073e-12
2.12452e-12
2.1686e-12
2.213e-12
2.25766e-12
2.30261e-12
2.3478e-12
2.39325e-12
2.43892e-12
2.48478e-12
2.53086e-12
2.57711e-12
2.62354e-12
2.67012e-12
2.71684e-12
2.76367e-12
2.81061e-12
2.85764e-12
2.90472e-12
2.95184e-12
2.99899e-12
3.04618e-12
3.09334e-12
3.1405e-12
3.18762e-12
3.2347e-12
3.28171e-12
3.32861e-12
3.3754e-12
3.42206e-12
3.46856e-12
3.51489e-12
3.56104e-12
3.60699e-12
3.65273e-12
3.69825e-12
3.74352e-12
3.78852e-12
3.83323e-12
3.87763e-12
3.92169e-12
3.96541e-12
4.00876e-12
4.05175e-12
4.09436e-12
4.13657e-12
4.17837e-12
4.21976e-12
4.2607e-12
4.3012e-12
4.34124e-12
4.38082e-12
4.41993e-12
4.45859e-12
4.4968e-12
4.53458e-12
4.57195e-12
4.60895e-12
4.64559e-12
4.68192e-12
4.71796e-12
4.75375e-12
4.78931e-12
4.82464e-12
4.85975e-12
4.8946e-12
4.92914e-12
4.9633e-12
4.99703e-12
5.03023e-12
5.06286e-12
5.09491e-12
5.12643e-12
5.15758e-12
5.18863e-12
5.22001e-12
5.25231e-12
5.28635e-12
5.32313e-12
5.36381e-12
5.40955e-12
5.4612e-12
5.51882e-12
5.58087e-12
5.64338e-12
5.69961e-12
5.74191e-12
5.76585e-12
5.773e-12
5.76963e-12
5.76169e-12
5.72232e-12
7.75552e-12
1.09349e-11
1.46261e-11
1.95149e-11
2.71381e-11
3.63127e-11
3.70315e-11
-6.67964e-10
-2.91098e-10
1.11603e-10
3.02283e-10
3.59083e-10
3.7087e-10
3.62465e-10
3.46871e-10
3.2889e-10
3.10407e-10
2.92251e-10
2.74781e-10
2.58142e-10
2.42379e-10
2.27484e-10
2.13429e-10
2.00175e-10
1.8768e-10
1.75901e-10
1.64796e-10
1.54326e-10
1.44456e-10
1.3515e-10
1.26376e-10
1.18106e-10
1.10312e-10
1.02967e-10
9.60475e-11
8.95312e-11
8.33966e-11
7.76237e-11
7.21937e-11
6.70885e-11
6.22914e-11
5.77863e-11
5.3558e-11
4.95921e-11
4.58748e-11
4.23931e-11
3.91346e-11
3.60875e-11
3.32405e-11
3.0583e-11
2.81049e-11
2.57964e-11
2.36484e-11
2.16524e-11
1.98e-11
1.80834e-11
1.64954e-11
1.50289e-11
1.3677e-11
1.24092e-11
1.12246e-11
1.01222e-11
9.10028e-12
8.15645e-12
7.28776e-12
6.49066e-12
5.76101e-12
5.09435e-12
4.48606e-12
3.93161e-12
3.42686e-12
2.96821e-12
2.55277e-12
2.1783e-12
1.84307e-12
1.5457e-12
1.28486e-12
1.059e-12
8.66114e-13
7.03657e-13
5.68559e-13
4.57435e-13
3.66806e-13
2.93387e-13
2.34082e-13
1.86496e-13
1.48117e-13
1.17681e-13
9.30295e-14
7.39733e-14
5.82715e-14
4.66638e-14
3.73241e-14
3.11658e-14
1.48702e-14
3.65635e-15
-2.58066e-15
-5.46723e-15
-6.20042e-15
-5.74115e-15
-4.7274e-15
-3.57677e-15
-2.52262e-15
-1.6823e-15
-1.03866e-15
-6.38353e-16
-3.1319e-16
-1.88984e-16
-6.26757e-18
4.95272e-19
-2.85675e-18
-2.85929e-18
-2.82417e-18
-2.79647e-18
-2.73614e-18
-2.68167e-18
-2.59771e-18
-2.51864e-18
-2.41978e-18
-2.32856e-18
-2.22727e-18
-2.1442e-18
-2.07173e-18
-2.01801e-18
-1.96474e-18
-1.91863e-18
-1.87502e-18
-1.83212e-18
-1.78485e-18
-1.7368e-18
-1.69914e-18
-1.65954e-18
-1.61602e-18
-1.56216e-18
-1.51148e-18
-1.44967e-18
-1.38519e-18
-1.31459e-18
-1.26269e-18
-1.20704e-18
-1.15224e-18
-1.08598e-18
-1.0258e-18
-9.55594e-19
-8.2927e-19
-7.4771e-19
-6.75728e-19
-5.97375e-19
-5.17943e-19
-4.31438e-19
-3.47923e-19
-2.61301e-19
-1.77705e-19
-1.04654e-19
-1.28339e-19
-8.52021e-20
-4.65347e-20
1.8193e-20
5.28279e-20
8.1919e-20
1.10924e-19
1.33246e-19
1.67964e-19
1.91785e-19
2.15725e-19
2.24235e-19
2.45585e-19
2.48433e-19
2.52263e-19
2.47132e-19
2.64487e-19
2.73567e-19
2.8351e-19
2.81021e-19
2.87829e-19
2.83406e-19
2.78991e-19
2.6694e-19
2.70842e-19
2.67585e-19
2.6565e-19
2.56686e-19
2.58561e-19
2.57815e-19
2.69132e-19
3.17087e-19
4.30988e-19
5.7904e-19
7.39225e-19
8.86952e-19
1.0586e-18
1.20068e-18
1.34611e-18
1.45169e-18
1.65075e-18
1.78155e-18
1.91261e-18
1.94028e-18
2.06497e-18
2.04105e-18
2.02975e-18
1.88111e-18
2.07545e-18
2.05244e-18
2.03021e-18
1.69292e-18
1.55198e-18
1.0769e-18
5.75589e-19
-1.2435e-20
-9.58787e-19
-1.82083e-18
-2.70876e-18
-2.93719e-18
-4.78301e-18
-4.03643e-18
-1.97251e-18
)
;

boundaryField
{
    inandouthalf11
    {
        type            cyclic;
        value           nonuniform List<scalar> 
100
(
2.53642e-10
2.52233e-10
2.52045e-10
2.52238e-10
2.5233e-10
2.52361e-10
2.524e-10
2.52449e-10
2.52499e-10
2.52549e-10
2.526e-10
2.52651e-10
2.52702e-10
2.52754e-10
2.52806e-10
2.52858e-10
2.52911e-10
2.52964e-10
2.53018e-10
2.53073e-10
2.53127e-10
2.53183e-10
2.53239e-10
2.53296e-10
2.53353e-10
2.5341e-10
2.53469e-10
2.53528e-10
2.53587e-10
2.53647e-10
2.53708e-10
2.5377e-10
2.53832e-10
2.53895e-10
2.53958e-10
2.54023e-10
2.54088e-10
2.54153e-10
2.5422e-10
2.54287e-10
2.54355e-10
2.54424e-10
2.54493e-10
2.54564e-10
2.54635e-10
2.54707e-10
2.5478e-10
2.54853e-10
2.54928e-10
2.55004e-10
2.5508e-10
2.55157e-10
2.55236e-10
2.55315e-10
2.55395e-10
2.55476e-10
2.55558e-10
2.55642e-10
2.55726e-10
2.55811e-10
2.55898e-10
2.55985e-10
2.56074e-10
2.56164e-10
2.56255e-10
2.56347e-10
2.56441e-10
2.56536e-10
2.56632e-10
2.56729e-10
2.56828e-10
2.56929e-10
2.5703e-10
2.57134e-10
2.57238e-10
2.57345e-10
2.57452e-10
2.57562e-10
2.57673e-10
2.57786e-10
2.57901e-10
2.58017e-10
2.58136e-10
2.58256e-10
2.58378e-10
2.58503e-10
2.5863e-10
2.58758e-10
2.58889e-10
2.59023e-10
2.59158e-10
2.59297e-10
2.59437e-10
2.59581e-10
2.59727e-10
2.59876e-10
2.60028e-10
2.60184e-10
2.60342e-10
2.60504e-10
)
;
    }
    inandouthalf12
    {
        type            cyclic;
        value           nonuniform List<scalar> 
100
(
-2.53642e-10
-2.52233e-10
-2.52045e-10
-2.52238e-10
-2.5233e-10
-2.52361e-10
-2.524e-10
-2.52449e-10
-2.52499e-10
-2.52549e-10
-2.526e-10
-2.52651e-10
-2.52702e-10
-2.52754e-10
-2.52806e-10
-2.52858e-10
-2.52911e-10
-2.52964e-10
-2.53018e-10
-2.53073e-10
-2.53127e-10
-2.53183e-10
-2.53239e-10
-2.53296e-10
-2.53353e-10
-2.5341e-10
-2.53469e-10
-2.53528e-10
-2.53587e-10
-2.53647e-10
-2.53708e-10
-2.5377e-10
-2.53832e-10
-2.53895e-10
-2.53958e-10
-2.54023e-10
-2.54088e-10
-2.54153e-10
-2.5422e-10
-2.54287e-10
-2.54355e-10
-2.54424e-10
-2.54493e-10
-2.54564e-10
-2.54635e-10
-2.54707e-10
-2.5478e-10
-2.54853e-10
-2.54928e-10
-2.55004e-10
-2.5508e-10
-2.55157e-10
-2.55236e-10
-2.55315e-10
-2.55395e-10
-2.55476e-10
-2.55558e-10
-2.55642e-10
-2.55726e-10
-2.55811e-10
-2.55898e-10
-2.55985e-10
-2.56074e-10
-2.56164e-10
-2.56255e-10
-2.56347e-10
-2.56441e-10
-2.56536e-10
-2.56632e-10
-2.56729e-10
-2.56828e-10
-2.56929e-10
-2.5703e-10
-2.57134e-10
-2.57238e-10
-2.57345e-10
-2.57452e-10
-2.57562e-10
-2.57673e-10
-2.57786e-10
-2.57901e-10
-2.58017e-10
-2.58136e-10
-2.58256e-10
-2.58378e-10
-2.58503e-10
-2.5863e-10
-2.58758e-10
-2.58889e-10
-2.59023e-10
-2.59158e-10
-2.59297e-10
-2.59437e-10
-2.59581e-10
-2.59727e-10
-2.59876e-10
-2.60028e-10
-2.60184e-10
-2.60342e-10
-2.60504e-10
)
;
    }
    inandouthalf21
    {
        type            cyclic;
        value           nonuniform List<scalar> 
100
(
2.60669e-10
2.60837e-10
2.6101e-10
2.61186e-10
2.61366e-10
2.61551e-10
2.61739e-10
2.61933e-10
2.62131e-10
2.62334e-10
2.62542e-10
2.62755e-10
2.62974e-10
2.63199e-10
2.6343e-10
2.63667e-10
2.63911e-10
2.64162e-10
2.64421e-10
2.64687e-10
2.64962e-10
2.65246e-10
2.65538e-10
2.65841e-10
2.66154e-10
2.66479e-10
2.66815e-10
2.67165e-10
2.67528e-10
2.67906e-10
2.68301e-10
2.68712e-10
2.69141e-10
2.69594e-10
2.70075e-10
2.70587e-10
2.71127e-10
2.71705e-10
2.72347e-10
2.73083e-10
2.73879e-10
2.74813e-10
2.81455e-10
2.80911e-10
2.82749e-10
2.85622e-10
2.89027e-10
2.94326e-10
3.38862e-10
1.99835e-08
1.44934e-07
2.21284e-07
2.57381e-07
2.74815e-07
2.83412e-07
2.87772e-07
2.89908e-07
2.90739e-07
2.90721e-07
2.90102e-07
2.89032e-07
2.87606e-07
2.85889e-07
2.8393e-07
2.81765e-07
2.79422e-07
2.76924e-07
2.74291e-07
2.71539e-07
2.68682e-07
2.65732e-07
2.62701e-07
2.59598e-07
2.56431e-07
2.53208e-07
2.49937e-07
2.46623e-07
2.43272e-07
2.39888e-07
2.36478e-07
2.33045e-07
2.29593e-07
2.26125e-07
2.22645e-07
2.19156e-07
2.1566e-07
2.1216e-07
2.08659e-07
2.05158e-07
2.0166e-07
1.98166e-07
1.94679e-07
1.912e-07
1.87729e-07
1.8427e-07
1.80822e-07
1.77388e-07
1.73968e-07
1.70564e-07
1.67176e-07
)
;
    }
    inandouthalf22
    {
        type            cyclic;
        value           nonuniform List<scalar> 
100
(
-2.60669e-10
-2.60837e-10
-2.6101e-10
-2.61186e-10
-2.61366e-10
-2.61551e-10
-2.61739e-10
-2.61933e-10
-2.62131e-10
-2.62334e-10
-2.62542e-10
-2.62755e-10
-2.62974e-10
-2.63199e-10
-2.6343e-10
-2.63667e-10
-2.63911e-10
-2.64162e-10
-2.64421e-10
-2.64687e-10
-2.64962e-10
-2.65246e-10
-2.65538e-10
-2.65841e-10
-2.66154e-10
-2.66479e-10
-2.66815e-10
-2.67165e-10
-2.67528e-10
-2.67906e-10
-2.68301e-10
-2.68712e-10
-2.69141e-10
-2.69594e-10
-2.70075e-10
-2.70587e-10
-2.71127e-10
-2.71705e-10
-2.72347e-10
-2.73083e-10
-2.73879e-10
-2.74813e-10
-2.81455e-10
-2.80911e-10
-2.82749e-10
-2.85622e-10
-2.89027e-10
-2.94326e-10
-3.38862e-10
-1.99835e-08
-1.44934e-07
-2.21284e-07
-2.57381e-07
-2.74815e-07
-2.83412e-07
-2.87772e-07
-2.89908e-07
-2.90739e-07
-2.90721e-07
-2.90102e-07
-2.89032e-07
-2.87606e-07
-2.85889e-07
-2.8393e-07
-2.81765e-07
-2.79422e-07
-2.76924e-07
-2.74291e-07
-2.71539e-07
-2.68682e-07
-2.65732e-07
-2.62701e-07
-2.59598e-07
-2.56431e-07
-2.53208e-07
-2.49937e-07
-2.46623e-07
-2.43272e-07
-2.39888e-07
-2.36478e-07
-2.33045e-07
-2.29593e-07
-2.26125e-07
-2.22645e-07
-2.19156e-07
-2.1566e-07
-2.1216e-07
-2.08659e-07
-2.05158e-07
-2.0166e-07
-1.98166e-07
-1.94679e-07
-1.912e-07
-1.87729e-07
-1.8427e-07
-1.80822e-07
-1.77388e-07
-1.73968e-07
-1.70564e-07
-1.67176e-07
)
;
    }
    inandouthalf31
    {
        type            cyclic;
        value           nonuniform List<scalar> 
110
(
1.63807e-07
1.63676e-07
1.63422e-07
1.63038e-07
1.62518e-07
1.61855e-07
1.61043e-07
1.60077e-07
1.58948e-07
1.57652e-07
1.56181e-07
1.54529e-07
1.52689e-07
1.50655e-07
1.48421e-07
1.4598e-07
1.43327e-07
1.40455e-07
1.3736e-07
1.34036e-07
1.3048e-07
1.26687e-07
1.22655e-07
1.18381e-07
1.13866e-07
1.09109e-07
1.04112e-07
9.88796e-08
9.34173e-08
8.77335e-08
8.18394e-08
7.57495e-08
6.9482e-08
6.30595e-08
5.65093e-08
4.98641e-08
4.31625e-08
3.64496e-08
2.97784e-08
2.32076e-08
1.68019e-08
1.06315e-08
4.76994e-09
-7.08499e-10
-5.73248e-09
-1.02378e-08
-1.41718e-08
-1.74965e-08
-2.01911e-08
-2.22512e-08
-2.36869e-08
-2.45185e-08
-2.47731e-08
-2.44803e-08
-2.36697e-08
-2.23696e-08
-2.06064e-08
-1.84047e-08
-1.57884e-08
-1.2781e-08
-9.40689e-09
-5.69179e-09
-1.66373e-09
2.64625e-09
7.20334e-09
1.1968e-08
1.6895e-08
2.19317e-08
2.70171e-08
3.20786e-08
3.7029e-08
4.17598e-08
4.613e-08
4.99599e-08
5.25459e-08
5.38431e-08
5.49417e-08
5.60569e-08
5.71947e-08
5.83556e-08
5.95401e-08
6.07486e-08
6.19816e-08
6.32397e-08
6.45232e-08
6.58329e-08
6.71691e-08
6.85325e-08
6.99235e-08
7.13428e-08
7.27908e-08
7.42683e-08
7.57758e-08
7.73138e-08
7.88831e-08
8.04842e-08
8.21178e-08
8.37846e-08
8.54852e-08
8.72203e-08
8.89906e-08
9.07969e-08
9.26398e-08
9.45202e-08
9.64387e-08
9.83961e-08
1.00393e-07
1.02431e-07
1.0451e-07
1.06631e-07
)
;
    }
    inandouthalf32
    {
        type            cyclic;
        value           nonuniform List<scalar> 
110
(
-1.63807e-07
-1.63676e-07
-1.63422e-07
-1.63038e-07
-1.62518e-07
-1.61855e-07
-1.61043e-07
-1.60077e-07
-1.58948e-07
-1.57652e-07
-1.56181e-07
-1.54529e-07
-1.52689e-07
-1.50655e-07
-1.48421e-07
-1.4598e-07
-1.43327e-07
-1.40455e-07
-1.3736e-07
-1.34036e-07
-1.3048e-07
-1.26687e-07
-1.22655e-07
-1.18381e-07
-1.13866e-07
-1.09109e-07
-1.04112e-07
-9.88796e-08
-9.34173e-08
-8.77335e-08
-8.18394e-08
-7.57495e-08
-6.9482e-08
-6.30595e-08
-5.65093e-08
-4.98641e-08
-4.31625e-08
-3.64496e-08
-2.97784e-08
-2.32076e-08
-1.68019e-08
-1.06315e-08
-4.76994e-09
7.08499e-10
5.73248e-09
1.02378e-08
1.41718e-08
1.74965e-08
2.01911e-08
2.22512e-08
2.36869e-08
2.45185e-08
2.47731e-08
2.44803e-08
2.36697e-08
2.23696e-08
2.06064e-08
1.84047e-08
1.57884e-08
1.2781e-08
9.40689e-09
5.69179e-09
1.66373e-09
-2.64625e-09
-7.20334e-09
-1.1968e-08
-1.6895e-08
-2.19317e-08
-2.70171e-08
-3.20786e-08
-3.7029e-08
-4.17598e-08
-4.613e-08
-4.99599e-08
-5.25459e-08
-5.38431e-08
-5.49417e-08
-5.60569e-08
-5.71947e-08
-5.83556e-08
-5.95401e-08
-6.07486e-08
-6.19816e-08
-6.32397e-08
-6.45232e-08
-6.58329e-08
-6.71691e-08
-6.85325e-08
-6.99235e-08
-7.13428e-08
-7.27908e-08
-7.42683e-08
-7.57758e-08
-7.73138e-08
-7.88831e-08
-8.04842e-08
-8.21178e-08
-8.37846e-08
-8.54852e-08
-8.72203e-08
-8.89906e-08
-9.07969e-08
-9.26398e-08
-9.45202e-08
-9.64387e-08
-9.83961e-08
-1.00393e-07
-1.02431e-07
-1.0451e-07
-1.06631e-07
)
;
    }
    inandouthalf41
    {
        type            cyclic;
        value           nonuniform List<scalar> 
50
(
9.5446e-08
9.5446e-08
9.5446e-08
9.5446e-08
9.5446e-08
9.5446e-08
9.5446e-08
9.5446e-08
9.5446e-08
9.5446e-08
9.5446e-08
9.5446e-08
9.5446e-08
9.5446e-08
9.5446e-08
9.5446e-08
9.5446e-08
9.5446e-08
9.5446e-08
9.5446e-08
9.5446e-08
9.5446e-08
9.5446e-08
9.5446e-08
9.5446e-08
9.5446e-08
9.5446e-08
9.5446e-08
9.5446e-08
9.5446e-08
9.5446e-08
9.5446e-08
9.5446e-08
9.5446e-08
9.5446e-08
9.5446e-08
9.5446e-08
9.5446e-08
9.5446e-08
9.5446e-08
9.5446e-08
9.5446e-08
9.5446e-08
9.5446e-08
9.5446e-08
9.5446e-08
9.5446e-08
9.5446e-08
9.5446e-08
9.5446e-08
)
;
    }
    inandouthalf42
    {
        type            cyclic;
        value           nonuniform List<scalar> 
50
(
-9.5446e-08
-9.5446e-08
-9.5446e-08
-9.5446e-08
-9.5446e-08
-9.5446e-08
-9.5446e-08
-9.5446e-08
-9.5446e-08
-9.5446e-08
-9.5446e-08
-9.5446e-08
-9.5446e-08
-9.5446e-08
-9.5446e-08
-9.5446e-08
-9.5446e-08
-9.5446e-08
-9.5446e-08
-9.5446e-08
-9.5446e-08
-9.5446e-08
-9.5446e-08
-9.5446e-08
-9.5446e-08
-9.5446e-08
-9.5446e-08
-9.5446e-08
-9.5446e-08
-9.5446e-08
-9.5446e-08
-9.5446e-08
-9.5446e-08
-9.5446e-08
-9.5446e-08
-9.5446e-08
-9.5446e-08
-9.5446e-08
-9.5446e-08
-9.5446e-08
-9.5446e-08
-9.5446e-08
-9.5446e-08
-9.5446e-08
-9.5446e-08
-9.5446e-08
-9.5446e-08
-9.5446e-08
-9.5446e-08
-9.5446e-08
)
;
    }
    top
    {
        type            symmetryPlane;
        value           uniform 0;
    }
    walls
    {
        type            fixedValue;
        value           uniform 0;
    }
    frontAndBackPlanes
    {
        type            empty;
        value           nonuniform 0();
    }
}


// ************************************************************************* //
