/*--------------------------------*- C++ -*----------------------------------*\
| =========                 |                                                 |
| \\      /  F ield         | OpenFOAM: The Open Source CFD Toolbox           |
|  \\    /   O peration     | Version:  2.4.x                                 |
|   \\  /    A nd           | Web:      www.OpenFOAM.org                      |
|    \\/     M anipulation  |                                                 |
\*---------------------------------------------------------------------------*/
FoamFile
{
    version     2.0;
    format      ascii;
    class       volVectorField;
    location    "10.7";
    object      susb;
}
// * * * * * * * * * * * * * * * * * * * * * * * * * * * * * * * * * * * * * //

dimensions      [0 1 -2 0 0 0 0];

internalField   nonuniform List<vector> 
360
(
(0 6.01838e-18 0)
(0 6.68149e-18 0)
(0 -1.40143e-21 0)
(0 -9.2475e-19 0)
(-3.70055e-31 -3.89078e-19 0)
(-7.40042e-31 -2.12451e-19 0)
(-3.69979e-31 -2.72659e-19 0)
(0 -3.11387e-19 0)
(-3.69867e-31 -3.16536e-19 0)
(0 -3.19105e-19 0)
(-3.69752e-31 -3.20064e-19 0)
(0 -3.21154e-19 0)
(-3.69637e-31 -3.23727e-19 0)
(0 -3.2643e-19 0)
(0 -3.30063e-19 0)
(0 -3.33783e-19 0)
(0 -3.3675e-19 0)
(-3.6934e-31 -3.39456e-19 0)
(0 -3.43598e-19 0)
(0 -3.46526e-19 0)
(0 -3.49599e-19 0)
(-3.69091e-31 -3.54005e-19 0)
(0 -3.57232e-19 0)
(0 -3.6099e-19 0)
(0 -3.64854e-19 0)
(-3.68832e-31 -3.67999e-19 0)
(0 -3.72287e-19 0)
(0 -3.76745e-19 0)
(0 -3.79967e-19 0)
(0 -3.83725e-19 0)
(0 -3.8895e-19 0)
(0 -3.91727e-19 0)
(0 -3.96586e-19 0)
(0 -4.01554e-19 0)
(0 -4.04742e-19 0)
(7.36271e-31 -4.09253e-19 0)
(0 -4.13567e-19 0)
(0 -4.19922e-19 0)
(0 -4.22056e-19 0)
(0 -4.2724e-19 0)
(0 -4.34228e-19 0)
(0 -4.35752e-19 0)
(3.67602e-31 -4.42099e-19 0)
(0 -4.47917e-19 0)
(0 -4.51659e-19 0)
(0 -4.58615e-19 0)
(0 -4.61598e-19 0)
(0 -4.66149e-19 0)
(0 -4.75515e-19 0)
(0 -4.78874e-19 0)
(7.33878e-31 -4.8322e-19 0)
(0 -4.90487e-19 0)
(0 -4.96374e-19 0)
(0 -5.01119e-19 0)
(0 -5.08331e-19 0)
(0 -5.14285e-19 0)
(0 -5.19966e-19 0)
(0 -5.27993e-19 0)
(0 -5.31371e-19 0)
(0 -5.40314e-19 0)
(0 -5.47384e-19 0)
(0 -5.53354e-19 0)
(0 -5.61666e-19 0)
(0 -5.67958e-19 0)
(0 -5.75148e-19 0)
(0 -5.82941e-19 0)
(0 -5.9186e-19 0)
(0 -5.99241e-19 0)
(0 -6.05152e-19 0)
(0 -6.14872e-19 0)
(0 -6.2641e-19 0)
(0 -6.31592e-19 0)
(0 -6.40296e-19 0)
(0 -6.51415e-19 0)
(0 -6.61042e-19 0)
(0 -6.70204e-19 0)
(0 -6.78534e-19 0)
(0 -6.89748e-19 0)
(0 -7.00779e-19 0)
(0 -7.10654e-19 0)
(0 -7.21424e-19 0)
(0 -7.33604e-19 0)
(0 -7.45183e-19 0)
(0 -7.57149e-19 0)
(0 -7.69522e-19 0)
(0 -7.82372e-19 0)
(0 -7.95403e-19 0)
(0 -8.08438e-19 0)
(0 -8.22429e-19 0)
(0 -8.36892e-19 0)
(0 -8.51565e-19 0)
(0 -8.67008e-19 0)
(0 -8.83113e-19 0)
(0 -8.99544e-19 0)
(0 -9.16513e-19 0)
(0 -9.34049e-19 0)
(0 -9.52118e-19 0)
(0 -9.70791e-19 0)
(0 -9.90188e-19 0)
(0 -1.01033e-18 0)
(0 -1.03122e-18 0)
(0 -1.05296e-18 0)
(0 -1.07555e-18 0)
(0 -1.09897e-18 0)
(0 -1.12329e-18 0)
(0 -1.14854e-18 0)
(0 -1.17477e-18 0)
(0 -1.20204e-18 0)
(0 -1.23042e-18 0)
(0 -1.25994e-18 0)
(0 -1.29069e-18 0)
(0 -1.32271e-18 0)
(0 -1.3561e-18 0)
(0 -1.39095e-18 0)
(0 -1.42737e-18 0)
(0 -1.46548e-18 0)
(0 -1.50544e-18 0)
(0 -1.54742e-18 0)
(0 -1.59163e-18 0)
(0 -1.63829e-18 0)
(0 -1.6876e-18 0)
(0 -1.73974e-18 0)
(0 -1.79485e-18 0)
(0 -1.85307e-18 0)
(0 -1.9147e-18 0)
(0 -1.98029e-18 0)
(0 -2.05077e-18 0)
(0 -3.40813e-18 0)
(0 -8.41043e-18 0)
(0 -2.0506e-17 0)
(0 -4.81779e-17 0)
(0 -1.08856e-16 0)
(0 -2.36922e-16 0)
(0 -4.97564e-16 0)
(0 -1.00576e-15 0)
(0 -1.96129e-15 0)
(0 -3.81122e-15 0)
(0 -7.95614e-15 0)
(0 -1.88765e-14 0)
(0 -4.74342e-14 0)
(0 -1.2314e-13 0)
(0 -1.38299e-12 0)
(0 -4.86907e-12 0)
(0 -1.58978e-12 0)
(0 -2.05419e-10 0)
(0 -4.15565e-09 0)
(0 -9.24765e-08 0)
(0 -4.60454e-06 0)
(0 -0.00678508 0)
(0 -0.430172 0)
(0 -0.950813 0)
(0 -0.491947 0)
(0 -0.292591 0)
(0 -0.194885 0)
(0 -0.132569 0)
(0 -0.0943726 0)
(0 -0.072478 0)
(0 -0.0589071 0)
(0 -0.0495586 0)
(0 -0.0427531 0)
(0 -0.0376161 0)
(0 -0.0336089 0)
(0 -0.0303987 0)
(0 -0.0277716 0)
(0 -0.0255823 0)
(0 -0.0237287 0)
(0 -0.0221371 0)
(0 -0.0207532 0)
(0 -0.0195361 0)
(0 -0.0184545 0)
(0 -0.0174841 0)
(0 -0.0166059 0)
(0 -0.0158049 0)
(0 -0.0150688 0)
(0 -0.014388 0)
(0 -0.0137546 0)
(0 -0.0131621 0)
(0 -0.0126052 0)
(0 -0.0120795 0)
(0 -0.0115814 0)
(0 -0.011108 0)
(0 -0.0106567 0)
(0 -0.0102254 0)
(0 -0.00981237 0)
(0 -0.00941616 0)
(0 -0.00903552 0)
(0 -0.00866941 0)
(0 -0.00831694 0)
(0 -0.00797738 0)
(0 -0.0076501 0)
(0 -0.00733457 0)
(0 -0.00703032 0)
(0 -0.00673692 0)
(0 -0.00645392 0)
(0 -0.00618084 0)
(0 -0.00591711 0)
(0 -0.005662 0)
(0 -0.0054146 0)
(0 -0.00517377 0)
(0 -0.00493821 0)
(0 -0.00470646 0)
(0 -0.00447444 0)
(-2.40317e-18 -0.00423874 0)
(0 -0.00399874 0)
(0 -0.00375402 0)
(2.20924e-18 -0.00350531 0)
(0 -0.00325426 0)
(-2.07649e-18 -0.00300365 0)
(0 -0.00275733 0)
(1.94607e-18 -0.00251999 0)
(0 -0.00229684 0)
(0 -0.00209314 0)
(0 -0.00191321 0)
(1.74811e-18 -0.00175898 0)
(0 -0.00162887 0)
(0 -0.00151823 0)
(0 -0.00142099 0)
(0 -0.00133118 0)
(0 -0.00124365 0)
(-4.21597e-19 -0.00115459 0)
(0 -0.00106204 0)
(-4.18745e-19 -0.000965997 0)
(0 -0.000868235 0)
(-4.13999e-19 -0.000771511 0)
(0 -0.000678782 0)
(0 -0.000592104 0)
(0 -0.000513837 0)
(0 -0.000442445 0)
(0 -0.00038127 0)
(9.6144e-20 -0.000324308 0)
(0 -0.00027787 0)
(0 -0.000231963 0)
(0 -0.000197844 0)
(0 -0.000162123 0)
(0 -0.000128963 0)
(0 -9.77193e-05 0)
(0 -7.64814e-05 0)
(0 -5.01047e-05 0)
(0 -4.36874e-05 0)
(0 -3.27315e-05 0)
(0 -2.37175e-05 0)
(0 -1.69364e-05 0)
(0 -1.18145e-05 0)
(-2.10126e-21 -8.06064e-06 0)
(1.00173e-21 -5.40322e-06 0)
(0 -3.50431e-06 0)
(0 -2.2875e-06 0)
(-2.18456e-22 -1.3957e-06 0)
(0 -9.04848e-07 0)
(0 -5.19847e-07 0)
(-5.33681e-23 -3.33152e-07 0)
(0 -1.98865e-07 0)
(0 -1.264e-09 0)
(0 -3.78263e-24 0)
(0 3.14256e-50 0)
(0 -1.51921e-48 0)
(0 -5.32037e-53 0)
(0 -1.23565e-54 0)
(0 -5.85909e-58 0)
(0 -1.3692e-59 0)
(0 -1.25867e-62 0)
(0 -3.40032e-63 0)
(0 -1.55392e-63 0)
(0 -7.25309e-64 0)
(0 -3.30557e-64 0)
(0 -1.4668e-64 0)
(8.98951e-81 -6.31896e-65 0)
(0 -2.63263e-65 0)
(0 -1.05496e-65 0)
(0 -4.03291e-66 0)
(0 -1.45122e-66 0)
(0 -4.79632e-67 0)
(0 -1.37774e-67 0)
(0 -2.82833e-68 0)
(0 -1.96229e-69 0)
(0 -2.15956e-71 0)
(0 -9.59599e-74 0)
(0 -3.80216e-76 0)
(0 -1.38922e-78 0)
(0 -4.67924e-81 0)
(0 -1.43584e-83 0)
(0 -1.9548e-86 0)
(0 -2.59312e-88 0)
(0 -8.30083e-89 0)
(0 -2.57467e-89 0)
(0 -7.72679e-90 0)
(2.45464e-106 -2.24014e-90 0)
(0 -6.26351e-91 0)
(0 -1.68588e-91 0)
(0 -4.35942e-92 0)
(0 -1.08061e-92 0)
(0 -2.56145e-93 0)
(0 -5.79051e-94 0)
(0 -1.24468e-94 0)
(0 -2.53541e-95 0)
(0 -4.87578e-96 0)
(0 -8.81404e-97 0)
(0 -1.49037e-97 0)
(0 -2.34376e-98 0)
(-3.52103e-115 -3.40501e-99 0)
(0 -4.53355e-100 0)
(0 -5.47879e-101 0)
(0 -5.93865e-102 0)
(0 -5.68736e-103 0)
(0 -4.71875e-104 0)
(0 -3.30245e-105 0)
(0 -1.87598e-106 0)
(0 -8.14349e-108 0)
(0 -2.42372e-109 0)
(0 -3.82786e-111 0)
(0 -5.07309e-114 0)
(0 -1.72592e-120 0)
(0 -1.08711e-122 0)
(0 -3.38814e-125 0)
(0 -1.39129e-135 0)
(0 -2.92255e-146 0)
(0 -4.62337e-157 0)
(0 -5.33328e-168 0)
(0 -5.38374e-179 0)
(0 -4.20601e-190 0)
(0 -2.83111e-201 0)
(0 -5.38094e-212 0)
(0 -2.30627e-222 0)
(0 -1.31021e-230 0)
(0 -6.56803e-241 0)
(0 -4.50587e-249 0)
(0 -2.67773e-259 0)
(0 -1.5514e-267 0)
(0 -1.13318e-277 0)
(0 -5.35012e-286 0)
(0 -7.2846e-296 0)
(0 -1.89701e-304 0)
(0 -4.84048e-314 0)
(0 -6.91692e-323 0)
(0 -0 0)
(0 0 0)
(0 0 0)
(0 0 0)
(0 0 0)
(0 0 0)
(0 0 0)
(0 0 0)
(0 0 0)
(0 0 0)
(0 0 0)
(0 0 0)
(0 0 0)
(0 0 0)
(0 0 0)
(0 0 0)
(0 0 0)
(0 0 0)
(0 0 0)
(0 0 0)
(0 0 0)
(0 0 0)
(0 0 0)
(0 0 0)
(0 0 0)
(0 0 0)
)
;

boundaryField
{
    inandouthalf11
    {
        type            cyclic;
    }
    inandouthalf12
    {
        type            cyclic;
    }
    inandouthalf21
    {
        type            cyclic;
    }
    inandouthalf22
    {
        type            cyclic;
    }
    inandouthalf31
    {
        type            cyclic;
    }
    inandouthalf32
    {
        type            cyclic;
    }
    inandouthalf41
    {
        type            cyclic;
    }
    inandouthalf42
    {
        type            cyclic;
    }
    top
    {
        type            symmetryPlane;
    }
    walls
    {
        type            zeroGradient;
    }
    frontAndBackPlanes
    {
        type            empty;
    }
}


// ************************************************************************* //
