/*--------------------------------*- C++ -*----------------------------------*\
| =========                 |                                                 |
| \\      /  F ield         | OpenFOAM: The Open Source CFD Toolbox           |
|  \\    /   O peration     | Version:  2.4.x                                 |
|   \\  /    A nd           | Web:      www.OpenFOAM.org                      |
|    \\/     M anipulation  |                                                 |
\*---------------------------------------------------------------------------*/
FoamFile
{
    version     2.0;
    format      ascii;
    class       volScalarField;
    location    "10.7";
    object      tmf;
}
// * * * * * * * * * * * * * * * * * * * * * * * * * * * * * * * * * * * * * //

dimensions      [0 0 0 0 0 0 0];

internalField   nonuniform List<scalar> 
360
(
0.999207
0.99921
0.99921
0.99921
0.999209
0.999209
0.999209
0.999209
0.999209
0.999209
0.999209
0.999209
0.999209
0.999209
0.999209
0.999209
0.999209
0.999209
0.999208
0.999208
0.999208
0.999208
0.999208
0.999208
0.999208
0.999208
0.999208
0.999208
0.999208
0.999207
0.999207
0.999207
0.999207
0.999207
0.999207
0.999207
0.999207
0.999207
0.999207
0.999207
0.999206
0.999206
0.999206
0.999206
0.999206
0.999206
0.999206
0.999206
0.999206
0.999205
0.999205
0.999205
0.999205
0.999205
0.999205
0.999205
0.999205
0.999204
0.999204
0.999204
0.999204
0.999204
0.999204
0.999204
0.999204
0.999203
0.999203
0.999203
0.999203
0.999203
0.999203
0.999203
0.999202
0.999202
0.999202
0.999202
0.999202
0.999202
0.999201
0.999201
0.999201
0.999201
0.999201
0.9992
0.9992
0.9992
0.9992
0.9992
0.9992
0.999199
0.999199
0.999199
0.999199
0.999198
0.999198
0.999198
0.999198
0.999198
0.999197
0.999197
0.999197
0.999197
0.999196
0.999196
0.999196
0.999195
0.999195
0.999195
0.999195
0.999194
0.999194
0.999194
0.999193
0.999193
0.999193
0.999192
0.999192
0.999191
0.999191
0.999191
0.99919
0.99919
0.999189
0.999189
0.999188
0.999188
0.999187
0.999336
0.999346
0.999332
0.999313
0.99929
0.999263
0.999229
0.999182
0.999114
0.999008
0.998848
0.998621
0.998289
0.997723
0.996696
0.995482
0.993775
0.991582
0.989055
0.985925
0.981956
0.976776
0.952617
0.838909
0.874734
0.918456
0.946004
0.960872
0.969149
0.974079
0.977198
0.979269
0.980695
0.981706
0.982438
0.982978
0.983383
0.983689
0.983923
0.984102
0.984242
0.984351
0.984437
0.984505
0.98456
0.984605
0.984642
0.984674
0.984701
0.984726
0.984749
0.984771
0.984792
0.984813
0.984835
0.984857
0.984879
0.984902
0.984926
0.98495
0.984975
0.985
0.985024
0.985048
0.985072
0.985094
0.985114
0.985133
0.985148
0.985161
0.98517
0.985174
0.985173
0.985167
0.985154
0.985134
0.985107
0.985072
0.985029
0.98498
0.984926
0.984873
0.984829
0.984809
0.984836
0.984938
0.985138
0.98544
0.985825
0.986266
0.986737
0.987219
0.987702
0.988178
0.988644
0.989098
0.989539
0.989966
0.990381
0.990784
0.991174
0.991554
0.991923
0.992282
0.992633
0.992976
0.993312
0.993643
0.993969
0.994284
0.990921
0.991279
0.991657
0.992048
0.992457
0.992873
0.993291
0.993714
0.994104
0.99454
0.994846
0.995331
0.995528
0.996116
0.996387
0.997398
0.997531
0.997642
0.997736
0.997816
0.997885
0.997946
0.998
0.998051
0.9981
0.998149
0.9982
0.998253
0.99831
0.998373
0.998443
0.998522
0.998613
0.998718
0.998843
0.998999
0.999201
0.999381
0.999454
0.999455
0.999453
0.999452
0.99945
0.999442
0.998657
0.994199
0.994199
0.994199
0.994199
0.994199
0.994199
0.994199
0.994199
0.994199
0.994199
0.994199
0.994199
0.994199
0.994199
0.994199
0.994199
0.994199
0.994199
0.994199
0.994199
0.994199
0.994199
0.994199
0.994199
0.994199
0.994199
0.994199
0.994199
0.994199
0.994199
0.994199
0.994199
0.994199
0.994199
0.994199
0.994199
0.994199
0.994199
0.994199
0.994199
0.994199
0.994199
0.994199
0.994199
0.994199
0.994199
0.994199
0.994199
0.994199
0.994199
0.994199
0.994199
0.994199
0.994199
0.994199
0.994199
0.994199
0.994199
0.994199
0.994199
0.994199
0.994199
0.994199
0.994199
0.994199
0.994199
0.994199
0.994199
0.994199
0.994199
0.994199
0.994199
0.994199
0.994199
0.994199
0.994199
0.994184
0.993279
)
;

boundaryField
{
    inandouthalf11
    {
        type            cyclic;
    }
    inandouthalf12
    {
        type            cyclic;
    }
    inandouthalf21
    {
        type            cyclic;
    }
    inandouthalf22
    {
        type            cyclic;
    }
    inandouthalf31
    {
        type            cyclic;
    }
    inandouthalf32
    {
        type            cyclic;
    }
    inandouthalf41
    {
        type            cyclic;
    }
    inandouthalf42
    {
        type            cyclic;
    }
    top
    {
        type            symmetryPlane;
    }
    walls
    {
        type            calculated;
        value           uniform 0;
    }
    frontAndBackPlanes
    {
        type            empty;
    }
}


// ************************************************************************* //
