/*--------------------------------*- C++ -*----------------------------------*\
| =========                 |                                                 |
| \\      /  F ield         | OpenFOAM: The Open Source CFD Toolbox           |
|  \\    /   O peration     | Version:  2.4.x                                 |
|   \\  /    A nd           | Web:      www.OpenFOAM.org                      |
|    \\/     M anipulation  |                                                 |
\*---------------------------------------------------------------------------*/
FoamFile
{
    version     2.0;
    format      ascii;
    class       volVectorField;
    location    "10.7";
    object      U;
}
// * * * * * * * * * * * * * * * * * * * * * * * * * * * * * * * * * * * * * //

dimensions      [0 1 -1 0 0 0 0];

internalField   nonuniform List<vector> 
360
(
(-9.86949e-05 1.84372e-09 0)
(-9.79299e-05 -3.85343e-10 0)
(-9.78359e-05 -3.41218e-10 0)
(-9.79349e-05 -1.72477e-12 0)
(-9.79829e-05 3.73976e-11 0)
(-9.79998e-05 -1.61063e-11 0)
(-9.80206e-05 -3.50877e-11 0)
(-9.80466e-05 -3.27262e-11 0)
(-9.80732e-05 -2.94734e-11 0)
(-9.81e-05 -2.78197e-11 0)
(-9.81268e-05 -2.67128e-11 0)
(-9.81536e-05 -2.57442e-11 0)
(-9.81806e-05 -2.43679e-11 0)
(-9.82076e-05 -2.2545e-11 0)
(-9.82349e-05 -2.03539e-11 0)
(-9.82625e-05 -1.7991e-11 0)
(-9.82903e-05 -1.56629e-11 0)
(-9.83183e-05 -1.33798e-11 0)
(-9.83464e-05 -1.11554e-11 0)
(-9.8375e-05 -8.88717e-12 0)
(-9.84036e-05 -6.87801e-12 0)
(-9.84326e-05 -4.77165e-12 0)
(-9.84619e-05 -2.84102e-12 0)
(-9.84914e-05 -1.09167e-12 0)
(-9.85213e-05 5.41982e-13 0)
(-9.85514e-05 2.04941e-12 0)
(-9.85818e-05 3.39473e-12 0)
(-9.86126e-05 4.74553e-12 0)
(-9.86437e-05 5.82265e-12 0)
(-9.86751e-05 6.79022e-12 0)
(-9.87068e-05 7.6273e-12 0)
(-9.8739e-05 8.59987e-12 0)
(-9.87712e-05 8.9829e-12 0)
(-9.88042e-05 9.9229e-12 0)
(-9.88372e-05 1.01292e-11 0)
(-9.88708e-05 1.06334e-11 0)
(-9.89046e-05 1.0933e-11 0)
(-9.89389e-05 1.12377e-11 0)
(-9.89737e-05 1.16575e-11 0)
(-9.90084e-05 1.13225e-11 0)
(-9.90441e-05 1.18416e-11 0)
(-9.908e-05 1.18235e-11 0)
(-9.9116e-05 1.14633e-11 0)
(-9.91529e-05 1.19749e-11 0)
(-9.91899e-05 1.16936e-11 0)
(-9.92275e-05 1.15213e-11 0)
(-9.92656e-05 1.15377e-11 0)
(-9.93037e-05 1.09784e-11 0)
(-9.93427e-05 1.11008e-11 0)
(-9.93823e-05 1.13886e-11 0)
(-9.94218e-05 1.04317e-11 0)
(-9.94622e-05 1.05785e-11 0)
(-9.95029e-05 1.01842e-11 0)
(-9.95443e-05 1.0232e-11 0)
(-9.95859e-05 9.43956e-12 0)
(-9.96284e-05 9.88639e-12 0)
(-9.9671e-05 8.90114e-12 0)
(-9.97145e-05 8.92395e-12 0)
(-9.97584e-05 8.55255e-12 0)
(-9.98025e-05 7.67532e-12 0)
(-9.98479e-05 8.40328e-12 0)
(-9.98932e-05 7.39574e-12 0)
(-9.99396e-05 7.55689e-12 0)
(-9.99863e-05 6.87937e-12 0)
(-0.000100034 6.59345e-12 0)
(-0.000100082 6.05812e-12 0)
(-0.00010013 5.85063e-12 0)
(-0.00010018 5.3741e-12 0)
(-0.00010023 4.90977e-12 0)
(-0.00010028 4.17892e-12 0)
(-0.000100332 4.41097e-12 0)
(-0.000100384 4.37661e-12 0)
(-0.000100436 2.92696e-12 0)
(-0.00010049 3.44509e-12 0)
(-0.000100544 2.76585e-12 0)
(-0.0001006 2.69714e-12 0)
(-0.000100656 1.64579e-12 0)
(-0.000100712 1.18271e-12 0)
(-0.00010077 8.49723e-13 0)
(-0.000100829 5.22952e-13 0)
(-0.000100888 -1.40846e-13 0)
(-0.000100948 -3.25124e-13 0)
(-0.00010101 -5.24877e-13 0)
(-0.000101072 -9.2472e-13 0)
(-0.000101136 -1.23174e-12 0)
(-0.0001012 -1.73876e-12 0)
(-0.000101265 -2.14832e-12 0)
(-0.000101332 -2.77129e-12 0)
(-0.0001014 -3.35047e-12 0)
(-0.000101469 -3.78571e-12 0)
(-0.000101539 -4.1935e-12 0)
(-0.00010161 -4.58467e-12 0)
(-0.000101683 -4.8254e-12 0)
(-0.000101757 -5.08633e-12 0)
(-0.000101833 -5.38692e-12 0)
(-0.00010191 -5.71482e-12 0)
(-0.000101989 -6.07449e-12 0)
(-0.000102069 -6.45609e-12 0)
(-0.00010215 -6.81892e-12 0)
(-0.000102234 -7.11319e-12 0)
(-0.000102319 -7.32698e-12 0)
(-0.000102406 -7.43392e-12 0)
(-0.000102495 -7.40897e-12 0)
(-0.000102586 -7.25686e-12 0)
(-0.000102679 -6.97556e-12 0)
(-0.000102774 -6.5588e-12 0)
(-0.000102871 -6.01428e-12 0)
(-0.000102971 -5.3594e-12 0)
(-0.000103073 -4.6263e-12 0)
(-0.000103177 -3.87041e-12 0)
(-0.000103285 -3.16936e-12 0)
(-0.000103395 -2.61967e-12 0)
(-0.000103507 -2.33187e-12 0)
(-0.000103623 -2.41747e-12 0)
(-0.000103742 -2.97067e-12 0)
(-0.000103865 -4.04487e-12 0)
(-0.00010399 -5.62285e-12 0)
(-0.00010412 -7.58674e-12 0)
(-0.000104253 -9.69536e-12 0)
(-0.00010439 -1.15762e-11 0)
(-0.000104532 -1.27348e-11 0)
(-0.000104678 -1.25809e-11 0)
(-0.000104829 -1.04641e-11 0)
(-0.000104985 -5.70619e-12 0)
(-0.000105147 2.37895e-12 0)
(-0.000105314 1.44716e-11 0)
(-0.000105487 3.12007e-11 0)
(-0.000105668 5.29728e-11 0)
(-0.000105855 7.94972e-11 0)
(-0.000106051 1.08772e-10 0)
(-0.000106254 1.35533e-10 0)
(-0.000106466 1.49557e-10 0)
(-0.000106688 1.34597e-10 0)
(-0.000106922 6.87601e-11 0)
(-0.000107171 -6.80765e-11 0)
(-0.000107436 -2.65456e-10 0)
(-0.000107715 -4.45534e-10 0)
(-0.000108013 -5.01668e-10 0)
(-0.000108345 -3.99161e-10 0)
(-0.000108726 -1.89218e-10 0)
(-0.000109138 -1.2089e-10 0)
(-0.000109621 -8.08327e-09 0)
(-0.000113076 1.04811e-07 0)
(-0.000112983 -3.16732e-09 0)
(-0.000114233 -6.61142e-09 0)
(-0.000116125 2.47446e-08 0)
(-0.00011856 1.03994e-07 0)
(-0.000122799 2.77488e-08 0)
(-0.000149732 2.48098e-06 0)
(-0.0190463 -3.46825e-06 0)
(-0.141463 -9.87991e-05 0)
(-0.21991 6.98821e-05 0)
(-0.25675 -2.25139e-05 0)
(-0.274494 1.73956e-05 0)
(-0.283227 2.73456e-06 0)
(-0.287652 1.22883e-06 0)
(-0.289823 7.14829e-07 0)
(-0.290674 4.33555e-07 0)
(-0.290668 2.48758e-07 0)
(-0.290057 1.4351e-07 0)
(-0.288993 8.71494e-08 0)
(-0.287571 5.52405e-08 0)
(-0.285858 3.52792e-08 0)
(-0.283902 2.22136e-08 0)
(-0.281739 1.3533e-08 0)
(-0.279397 7.65788e-09 0)
(-0.276901 3.6293e-09 0)
(-0.274269 8.20186e-10 0)
(-0.271518 -1.14226e-09 0)
(-0.268662 -2.524e-09 0)
(-0.265713 -3.48466e-09 0)
(-0.262683 -4.14973e-09 0)
(-0.259581 -4.59646e-09 0)
(-0.256415 -4.88124e-09 0)
(-0.253193 -5.0499e-09 0)
(-0.249922 -5.12944e-09 0)
(-0.246608 -5.14334e-09 0)
(-0.243258 -5.10687e-09 0)
(-0.239875 -5.0347e-09 0)
(-0.236466 -4.93371e-09 0)
(-0.233033 -4.81327e-09 0)
(-0.229581 -4.67703e-09 0)
(-0.226114 -4.53079e-09 0)
(-0.222634 -4.37649e-09 0)
(-0.219146 -4.21781e-09 0)
(-0.21565 -4.0558e-09 0)
(-0.212151 -3.89253e-09 0)
(-0.20865 -3.72899e-09 0)
(-0.20515 -3.56608e-09 0)
(-0.201652 -3.4045e-09 0)
(-0.198159 -3.24475e-09 0)
(-0.194672 -3.08719e-09 0)
(-0.191193 -2.9321e-09 0)
(-0.187723 -2.77959e-09 0)
(-0.184264 -2.62972e-09 0)
(-0.180817 -2.48247e-09 0)
(-0.177383 -2.3377e-09 0)
(-0.173964 -2.19527e-09 0)
(-0.17056 -2.05532e-09 0)
(-0.167173 -1.91793e-09 0)
(-0.163803 -1.78092e-09 0)
(-0.160417 -1.70514e-09 0)
(-0.156982 -1.6378e-09 0)
(-0.153497 -1.55749e-09 0)
(-0.149964 -1.47632e-09 0)
(-0.146381 -1.39361e-09 0)
(-0.14275 -1.31279e-09 0)
(-0.139071 -1.23685e-09 0)
(-0.135344 -1.16789e-09 0)
(-0.13157 -1.10713e-09 0)
(-0.127749 -1.05472e-09 0)
(-0.123884 -1.00983e-09 0)
(-0.119974 -9.70853e-10 0)
(-0.116021 -9.35265e-10 0)
(-0.112027 -8.99598e-10 0)
(-0.107992 -8.60057e-10 0)
(-0.10392 -8.13532e-10 0)
(-0.0998123 -7.58479e-10 0)
(-0.0956709 -6.95368e-10 0)
(-0.0914989 -6.26581e-10 0)
(-0.0872993 -5.56006e-10 0)
(-0.0830755 -4.86527e-10 0)
(-0.0788314 -4.20989e-10 0)
(-0.0745713 -3.59182e-10 0)
(-0.0703 -3.02975e-10 0)
(-0.0660229 -2.48578e-10 0)
(-0.0617461 -2.12106e-10 0)
(-0.0574763 -1.50899e-10 0)
(-0.0532209 -1.57491e-10 0)
(-0.0489884 -6.31591e-11 0)
(-0.0447882 -1.3481e-10 0)
(-0.0406307 1.79743e-11 0)
(-0.0365275 -1.6049e-10 0)
(-0.0324917 8.16783e-11 0)
(-0.0285374 -2.16838e-11 0)
(-0.0246806 4.0678e-10 0)
(-0.0209386 -1.33321e-09 0)
(-0.0173301 1.16983e-09 0)
(-0.0138766 -7.24132e-10 0)
(-0.0105995 1.55429e-10 0)
(-0.00752118 -1.52636e-10 0)
(-0.00466439 -4.61352e-11 0)
(-0.0020511 -3.42347e-11 0)
(0.000298602 -4.14331e-11 0)
(0.00236791 3.93473e-11 0)
(0.00414479 -8.76102e-11 0)
(0.00562331 1.09957e-10 0)
(0.00680444 -1.23706e-10 0)
(0.00769617 1.309e-10 0)
(0.00831269 -9.91395e-11 0)
(0.00867298 9.91445e-11 0)
(0.00879889 4.08815e-12 0)
(0.0087134 1.25497e-12 0)
(0.00843912 -9.35293e-13 0)
(0.00799736 -9.08713e-13 0)
(0.00740774 -7.09249e-13 0)
(0.00668809 -6.76095e-13 0)
(0.00585467 -6.75686e-13 0)
(0.00492248 -6.61995e-13 0)
(0.00390558 -6.40594e-13 0)
(0.00281734 -6.17484e-13 0)
(0.00167076 -5.92719e-13 0)
(0.000478656 -5.7e-13 0)
(-0.000746181 -5.58962e-13 0)
(-0.00199077 -5.27668e-13 0)
(-0.00324177 -3.1425e-13 0)
(-0.00448528 9.46436e-14 0)
(-0.00570663 -6.41499e-12 0)
(-0.00688999 1.8463e-11 0)
(-0.00801804 -4.23156e-11 0)
(-0.00907126 7.55797e-11 0)
(-0.0100267 -1.22314e-10 0)
(-0.0108557 1.78286e-10 0)
(-0.011523 -2.45173e-10 0)
(-0.0118784 3.16891e-10 0)
(-0.0119295 -3.94052e-10 0)
(-0.0119307 4.71762e-10 0)
(-0.0119307 -5.5264e-10 0)
(-0.0119307 6.33662e-10 0)
(-0.0119307 -7.17789e-10 0)
(-0.0119307 8.02319e-10 0)
(-0.0119307 -8.8995e-10 0)
(-0.0119307 9.78213e-10 0)
(-0.0119307 -1.06957e-09 0)
(-0.0119307 1.16177e-09 0)
(-0.0119307 -1.25703e-09 0)
(-0.0119307 1.35334e-09 0)
(-0.0119307 -1.45261e-09 0)
(-0.0119307 1.55319e-09 0)
(-0.0119307 -1.65661e-09 0)
(-0.0119307 1.76155e-09 0)
(-0.0119307 -1.86921e-09 0)
(-0.0119307 1.97857e-09 0)
(-0.0119307 -2.09052e-09 0)
(-0.0119307 2.20437e-09 0)
(-0.0119307 -2.32064e-09 0)
(-0.0119307 2.43897e-09 0)
(-0.0119307 -2.55962e-09 0)
(-0.0119307 2.68237e-09 0)
(-0.0119307 -2.80736e-09 0)
(-0.0119307 2.93451e-09 0)
(-0.0119307 -3.06377e-09 0)
(-0.0119307 3.19523e-09 0)
(-0.0119307 -3.32868e-09 0)
(-0.0119307 3.46432e-09 0)
(-0.0119307 -3.60183e-09 0)
(-0.0119307 3.74149e-09 0)
(-0.0119307 -3.88285e-09 0)
(-0.0119307 4.0263e-09 0)
(-0.0119307 -4.17128e-09 0)
(-0.0119307 3.79225e-09 0)
(-0.0119307 -3.85294e-09 0)
(-0.0119307 3.91316e-09 0)
(-0.0119307 -3.9724e-09 0)
(-0.0119307 4.03119e-09 0)
(-0.0119307 -4.08897e-09 0)
(-0.0119307 4.14629e-09 0)
(-0.0119307 -4.20259e-09 0)
(-0.0119307 4.25843e-09 0)
(-0.0119307 -4.31324e-09 0)
(-0.0119307 4.36757e-09 0)
(-0.0119307 -4.42086e-09 0)
(-0.0119307 4.47366e-09 0)
(-0.0119307 -4.52542e-09 0)
(-0.0119307 4.57667e-09 0)
(-0.0119307 -4.62686e-09 0)
(-0.0119307 4.67652e-09 0)
(-0.0119307 -4.72511e-09 0)
(-0.0119307 4.77319e-09 0)
(-0.0119307 -4.82007e-09 0)
(-0.0119307 4.86663e-09 0)
(-0.0119307 -4.91169e-09 0)
(-0.0119307 4.95671e-09 0)
(-0.0119307 -4.9999e-09 0)
(-0.0119307 5.04333e-09 0)
(-0.0119307 -5.0846e-09 0)
(-0.0119307 5.12637e-09 0)
(-0.0119307 -5.16567e-09 0)
(-0.0119307 5.20573e-09 0)
(-0.0119307 -5.24299e-09 0)
(-0.0119307 5.28119e-09 0)
(-0.0119307 -5.31639e-09 0)
(-0.0119307 5.35259e-09 0)
(-0.0119307 -5.38571e-09 0)
(-0.0119307 5.41971e-09 0)
(-0.0119307 -5.4506e-09 0)
(-0.0119307 5.48236e-09 0)
(-0.0119307 -5.51092e-09 0)
(-0.0119307 5.54006e-09 0)
(-0.0119307 -5.56628e-09 0)
(-0.0119307 5.5924e-09 0)
(-0.0119307 -5.61625e-09 0)
(-0.0119307 5.63879e-09 0)
(-0.0119307 -5.66021e-09 0)
(-0.0119307 5.67847e-09 0)
(-0.0119307 -5.69695e-09 0)
(-0.0119307 5.71025e-09 0)
(-0.0119307 -5.72466e-09 0)
(-0.0119307 5.73175e-09 0)
(-0.0119307 -5.73748e-09 0)
)
;

boundaryField
{
    inandouthalf11
    {
        type            cyclic;
    }
    inandouthalf12
    {
        type            cyclic;
    }
    inandouthalf21
    {
        type            cyclic;
    }
    inandouthalf22
    {
        type            cyclic;
    }
    inandouthalf31
    {
        type            cyclic;
    }
    inandouthalf32
    {
        type            cyclic;
    }
    inandouthalf41
    {
        type            cyclic;
    }
    inandouthalf42
    {
        type            cyclic;
    }
    top
    {
        type            symmetryPlane;
    }
    walls
    {
        type            calculated;
        value           uniform (0 0 0);
    }
    frontAndBackPlanes
    {
        type            empty;
    }
}


// ************************************************************************* //
