/*--------------------------------*- C++ -*----------------------------------*\
| =========                 |                                                 |
| \\      /  F ield         | OpenFOAM: The Open Source CFD Toolbox           |
|  \\    /   O peration     | Version:  2.4.x                                 |
|   \\  /    A nd           | Web:      www.OpenFOAM.org                      |
|    \\/     M anipulation  |                                                 |
\*---------------------------------------------------------------------------*/
FoamFile
{
    version     2.0;
    format      ascii;
    class       volScalarField;
    location    "11.8";
    object      alpha;
}
// * * * * * * * * * * * * * * * * * * * * * * * * * * * * * * * * * * * * * //

dimensions      [0 0 0 0 0 0 0];

internalField   nonuniform List<scalar> 
360
(
0.610895
0.611763
0.611852
0.611762
0.61172
0.611707
0.61169
0.611668
0.611645
0.611622
0.611599
0.611576
0.611553
0.61153
0.611506
0.611482
0.611458
0.611434
0.611409
0.611384
0.611359
0.611334
0.611308
0.611283
0.611256
0.61123
0.611203
0.611176
0.611149
0.611122
0.611094
0.611066
0.611038
0.611009
0.61098
0.61095
0.610921
0.610891
0.61086
0.61083
0.610799
0.610768
0.610736
0.610704
0.610672
0.610639
0.610606
0.610572
0.610539
0.610504
0.61047
0.610434
0.610399
0.610363
0.610326
0.610289
0.610252
0.610214
0.610176
0.610137
0.610098
0.610058
0.610018
0.609977
0.609936
0.609894
0.609851
0.609808
0.609764
0.60972
0.609675
0.60963
0.609584
0.609537
0.609489
0.609441
0.609392
0.609342
0.609291
0.60924
0.609188
0.609135
0.609081
0.609026
0.608971
0.608914
0.608857
0.608798
0.608739
0.608678
0.608616
0.608554
0.60849
0.608424
0.608358
0.60829
0.608221
0.608151
0.608079
0.608005
0.60793
0.607854
0.607776
0.607696
0.607614
0.60753
0.607445
0.607357
0.607268
0.607176
0.607082
0.606985
0.606886
0.606785
0.606681
0.606573
0.606463
0.60635
0.606234
0.606114
0.60599
0.605863
0.605731
0.605595
0.605455
0.60531
0.605159
0.605004
0.604842
0.604674
0.604499
0.604317
0.604126
0.603926
0.603712
0.603485
0.603244
0.602987
0.602702
0.602378
0.602028
0.601616
0.598782
0.599204
0.598689
0.597838
0.594797
0.448086
0.288173
0.226189
0.189925
0.160969
0.136098
0.114134
0.0947284
0.0777948
0.0632687
0.0510242
0.0408633
0.0325418
0.0257972
0.0203744
0.0160416
0.0125965
0.00986795
0.00771394
0.00601795
0.00468454
0.0036355
0.00280872
0.00215942
0.00165832
0.00128292
0.00100918
0.000811562
0.000667727
0.000560982
0.000479873
0.000416761
0.000366551
0.000325798
0.000292127
0.000263869
0.000239824
0.000219114
0.000201083
0.000185235
0.000171187
0.00015864
0.00014736
0.000137156
0.000127876
0.000119396
0.000111612
0.00010444
9.78083e-05
9.16561e-05
8.59327e-05
8.05945e-05
7.56043e-05
7.09299e-05
6.64993e-05
6.22561e-05
5.81918e-05
5.42995e-05
5.05733e-05
4.7009e-05
4.36034e-05
4.03545e-05
3.72609e-05
3.43221e-05
3.15376e-05
2.89066e-05
2.6428e-05
2.40999e-05
2.19193e-05
1.98826e-05
1.79851e-05
1.62216e-05
1.45865e-05
1.30737e-05
1.16776e-05
1.03925e-05
9.2128e-06
8.13349e-06
7.14958e-06
6.2561e-06
5.44729e-06
4.71514e-06
4.0477e-06
3.42807e-06
2.83651e-06
2.26869e-06
1.76896e-06
1.41083e-06
1.19157e-06
1.01703e-06
8.62165e-07
7.05343e-07
5.72498e-07
4.60476e-07
3.66552e-07
2.8833e-07
2.23702e-07
1.70797e-07
1.27933e-07
9.3648e-08
6.67016e-08
4.53407e-08
3.00778e-08
1.69859e-08
9.96527e-09
2.07075e-09
9.05019e-20
1.92173e-30
3.7546e-41
7.09822e-52
1.27149e-62
6.35836e-72
3.16951e-72
1.62181e-72
8.15036e-73
4.03356e-73
1.97078e-73
9.47405e-74
4.47891e-74
2.08128e-74
9.50135e-75
4.25893e-75
1.87339e-75
8.08178e-76
3.41713e-76
1.41514e-76
5.73609e-77
2.27395e-77
8.80944e-78
3.33234e-78
1.22968e-78
4.42234e-79
1.54812e-79
5.27039e-80
1.74301e-80
5.59289e-81
1.73888e-81
5.23086e-82
1.52008e-82
4.26004e-83
1.14925e-83
2.97846e-84
7.3992e-85
1.75765e-85
3.98165e-86
8.57565e-87
1.75017e-87
3.37168e-88
6.10502e-89
1.03381e-89
1.62783e-90
2.3673e-91
3.15414e-92
3.81303e-93
4.13247e-94
3.95464e-95
3.27605e-96
2.28674e-97
1.29357e-98
5.57848e-100
1.64236e-101
2.53859e-103
2.44142e-106
1.67093e-113
9.56342e-116
2.70596e-118
1.17479e-128
2.614e-139
4.41359e-150
5.43648e-161
5.88629e-172
4.90796e-183
3.54118e-194
5.17857e-205
2.04339e-215
1.04718e-223
5.60211e-234
3.60108e-242
2.28871e-252
1.24014e-260
9.69195e-271
4.27891e-279
6.26718e-289
1.52437e-297
4.17885e-307
5.71042e-316
4.35766e-321
7.96928e-321
7.83094e-321
2.51973e-321
8.86848e-321
4.57737e-319
2.8055e-319
6.80328e-321
7.09478e-321
6.08689e-321
8.5424e-321
0
0
0
0
0
0
0
0
0
0
0
0
0
0
0
0
)
;

boundaryField
{
    inandouthalf11
    {
        type            cyclic;
    }
    inandouthalf12
    {
        type            cyclic;
    }
    inandouthalf21
    {
        type            cyclic;
    }
    inandouthalf22
    {
        type            cyclic;
    }
    inandouthalf31
    {
        type            cyclic;
    }
    inandouthalf32
    {
        type            cyclic;
    }
    inandouthalf41
    {
        type            cyclic;
    }
    inandouthalf42
    {
        type            cyclic;
    }
    top
    {
        type            symmetryPlane;
    }
    walls
    {
        type            zeroGradient;
    }
    frontAndBackPlanes
    {
        type            empty;
    }
}


// ************************************************************************* //
