/*--------------------------------*- C++ -*----------------------------------*\
| =========                 |                                                 |
| \\      /  F ield         | OpenFOAM: The Open Source CFD Toolbox           |
|  \\    /   O peration     | Version:  2.4.x                                 |
|   \\  /    A nd           | Web:      www.OpenFOAM.org                      |
|    \\/     M anipulation  |                                                 |
\*---------------------------------------------------------------------------*/
FoamFile
{
    version     2.0;
    format      ascii;
    class       volScalarField;
    location    "11.8";
    object      ddt0(((1.5*(alpha+1e-08))*rho),Theta);
}
// * * * * * * * * * * * * * * * * * * * * * * * * * * * * * * * * * * * * * //

dimensions      [1 -1 -3 0 0 0 0];

internalField   nonuniform List<scalar> 
360
(
-1.54634e-23
-4.16348e-23
-3.18067e-23
-3.14994e-23
-3.58145e-23
-3.88822e-23
-4.04191e-23
-4.15423e-23
-4.25328e-23
-4.32889e-23
-4.36942e-23
-4.36656e-23
-4.3177e-23
-4.2245e-23
-4.09112e-23
-3.92283e-23
-3.72491e-23
-3.50318e-23
-3.26479e-23
-3.01674e-23
-2.76554e-23
-2.51772e-23
-2.27868e-23
-2.05257e-23
-1.8428e-23
-1.65169e-23
-1.48089e-23
-1.33122e-23
-1.20252e-23
-1.09412e-23
-1.00519e-23
-9.34353e-24
-8.80091e-24
-8.40851e-24
-8.14901e-24
-8.0054e-24
-7.96323e-24
-8.00872e-24
-8.12725e-24
-8.30626e-24
-8.53709e-24
-8.80868e-24
-9.11245e-24
-9.44359e-24
-9.79522e-24
-1.01618e-23
-1.05375e-23
-1.09179e-23
-1.13048e-23
-1.16951e-23
-1.20817e-23
-1.24646e-23
-1.28445e-23
-1.3218e-23
-1.35846e-23
-1.39441e-23
-1.4294e-23
-1.46338e-23
-1.49601e-23
-1.52742e-23
-1.55805e-23
-1.5876e-23
-1.61595e-23
-1.64298e-23
-1.66838e-23
-1.69233e-23
-1.71502e-23
-1.73616e-23
-1.75521e-23
-1.77267e-23
-1.78943e-23
-1.80469e-23
-1.81783e-23
-1.82973e-23
-1.84064e-23
-1.8499e-23
-1.85698e-23
-1.86211e-23
-1.8658e-23
-1.86785e-23
-1.86823e-23
-1.8673e-23
-1.86527e-23
-1.86202e-23
-1.85748e-23
-1.8516e-23
-1.84423e-23
-1.83518e-23
-1.82451e-23
-1.81239e-23
-1.79895e-23
-1.78439e-23
-1.76893e-23
-1.75269e-23
-1.73564e-23
-1.71778e-23
-1.69907e-23
-1.67952e-23
-1.65919e-23
-1.63821e-23
-1.61675e-23
-1.59505e-23
-1.57335e-23
-1.55185e-23
-1.53073e-23
-1.51019e-23
-1.49037e-23
-1.47138e-23
-1.45329e-23
-1.43616e-23
-1.41998e-23
-1.40468e-23
-1.39017e-23
-1.37625e-23
-1.36268e-23
-1.34907e-23
-1.33493e-23
-1.31959e-23
-1.30231e-23
-1.28226e-23
-1.25882e-23
-1.23167e-23
-1.20123e-23
-1.16884e-23
-1.13699e-23
-1.1093e-23
-1.09041e-23
-1.08543e-23
-1.09943e-23
-1.13628e-23
-1.1969e-23
-1.276e-23
-4.11949e-24
6.56724e-17
8.09514e-16
7.55787e-15
7.53443e-14
8.09538e-13
9.43204e-12
1.20758e-10
1.73105e-09
2.83805e-08
5.42345e-07
1.22353e-05
0.000626312
0.0297912
0.422815
2.40966
-1.19002
-4.42051
-3.7643
-2.31492
-1.18004
-0.496923
-0.125683
0.0759286
0.188565
0.249017
0.273414
0.273768
0.257238
0.231075
0.200481
0.169064
0.139135
0.112053
0.0884823
0.068616
0.0523174
0.0392719
0.0291096
0.021459
0.0159056
0.0119776
0.00921495
0.00724732
0.00581426
0.00474417
0.00392589
0.0032867
0.00277811
0.00236697
0.00203009
0.00175084
0.00151705
0.00131964
0.00115172
0.00100798
0.000884261
0.000777259
0.000684337
0.000603356
0.000532564
0.000470515
0.000416005
0.000368024
0.000325721
0.000288369
0.000255351
0.000226134
0.00020026
0.000177105
0.000156208
0.000137389
0.000120478
0.000105319
9.17672e-05
7.96875e-05
6.89536e-05
5.94474e-05
5.10583e-05
4.3682e-05
3.72209e-05
3.15827e-05
2.66815e-05
2.24367e-05
1.87742e-05
1.56256e-05
1.29293e-05
1.06296e-05
8.67904e-06
7.03245e-06
5.65203e-06
4.50346e-06
3.55568e-06
2.78025e-06
2.1513e-06
1.64542e-06
1.24141e-06
9.20275e-07
6.65362e-07
4.63158e-07
3.0557e-07
1.90767e-07
1.15284e-07
6.47806e-08
0
0
0
0
0
0
0
0
0
0
0
0
0
0
0
0
0
0
0
0
0
0
0
0
0
0
0
0
0
0
0
0
0
0
0
0
0
0
0
0
0
0
0
0
0
0
0
0
0
0
0
0
0
0
0
0
0
0
0
0
0
0
0
0
0
0
0
0
0
0
0
0
0
0
0
0
0
0
0
0
0
0
0
0
0
0
0
0
0
0
0
0
0
0
0
0
0
0
0
0
0
0
0
0
0
0
0
0
0
0
0
0
0
0
0
0
0
0
0
0
0
0
0
0
)
;

boundaryField
{
    inandouthalf11
    {
        type            cyclic;
    }
    inandouthalf12
    {
        type            cyclic;
    }
    inandouthalf21
    {
        type            cyclic;
    }
    inandouthalf22
    {
        type            cyclic;
    }
    inandouthalf31
    {
        type            cyclic;
    }
    inandouthalf32
    {
        type            cyclic;
    }
    inandouthalf41
    {
        type            cyclic;
    }
    inandouthalf42
    {
        type            cyclic;
    }
    top
    {
        type            symmetryPlane;
    }
    walls
    {
        type            calculated;
        value           uniform -1.54634e-23;
    }
    frontAndBackPlanes
    {
        type            empty;
    }
}


// ************************************************************************* //
