/*--------------------------------*- C++ -*----------------------------------*\
| =========                 |                                                 |
| \\      /  F ield         | OpenFOAM: The Open Source CFD Toolbox           |
|  \\    /   O peration     | Version:  2.4.x                                 |
|   \\  /    A nd           | Web:      www.OpenFOAM.org                      |
|    \\/     M anipulation  |                                                 |
\*---------------------------------------------------------------------------*/
FoamFile
{
    version     2.0;
    format      ascii;
    class       surfaceScalarField;
    location    "11.8";
    object      ddt0(phia);
}
// * * * * * * * * * * * * * * * * * * * * * * * * * * * * * * * * * * * * * //

dimensions      [0 3 -2 0 0 0 0];

internalField   nonuniform List<scalar> 
359
(
9.62847e-15
2.41305e-14
3.80884e-14
5.2066e-14
6.68121e-14
8.21368e-14
9.77189e-14
1.13396e-13
1.29068e-13
1.44644e-13
1.60012e-13
1.75048e-13
1.89638e-13
2.03672e-13
2.17061e-13
2.29728e-13
2.41614e-13
2.52674e-13
2.62881e-13
2.72225e-13
2.80712e-13
2.88361e-13
2.95206e-13
3.01291e-13
3.06668e-13
3.11396e-13
3.1554e-13
3.19166e-13
3.22343e-13
3.2514e-13
3.27623e-13
3.29858e-13
3.31905e-13
3.33823e-13
3.35665e-13
3.37481e-13
3.39315e-13
3.41208e-13
3.43195e-13
3.45308e-13
3.47575e-13
3.50019e-13
3.52659e-13
3.55513e-13
3.58595e-13
3.61916e-13
3.65484e-13
3.69303e-13
3.7338e-13
3.77719e-13
3.82316e-13
3.87174e-13
3.92289e-13
3.9766e-13
4.03279e-13
4.09147e-13
4.15253e-13
4.21593e-13
4.2816e-13
4.34942e-13
4.41939e-13
4.49136e-13
4.56531e-13
4.6411e-13
4.71867e-13
4.79791e-13
4.87874e-13
4.96107e-13
5.04478e-13
5.12977e-13
5.21598e-13
5.30334e-13
5.3917e-13
5.48103e-13
5.57121e-13
5.6622e-13
5.75386e-13
5.8461e-13
5.93885e-13
6.03203e-13
6.12554e-13
6.21933e-13
6.31332e-13
6.40745e-13
6.50166e-13
6.59588e-13
6.69003e-13
6.78405e-13
6.87785e-13
6.97137e-13
7.06454e-13
7.15731e-13
7.24963e-13
7.34145e-13
7.43272e-13
7.5234e-13
7.61344e-13
7.7028e-13
7.79142e-13
7.87926e-13
7.9663e-13
8.05251e-13
8.13787e-13
8.22238e-13
8.30606e-13
8.3889e-13
8.47094e-13
8.5522e-13
8.63271e-13
8.7125e-13
8.7916e-13
8.87004e-13
8.94785e-13
9.02505e-13
9.10165e-13
9.17764e-13
9.253e-13
9.32766e-13
9.4015e-13
9.47435e-13
9.54598e-13
9.61612e-13
9.68447e-13
9.75082e-13
9.8151e-13
9.87745e-13
9.93835e-13
9.99864e-13
1.00595e-12
1.01223e-12
1.01885e-12
1.0259e-12
1.03339e-12
1.04114e-12
1.0487e-12
1.05539e-12
1.0605e-12
1.06369e-12
1.0653e-12
1.06596e-12
1.06633e-12
1.06626e-12
1.06971e-12
1.0718e-12
1.07262e-12
1.07367e-12
-1.05103e-10
-1.56392e-08
-5.54939e-09
-1.54901e-08
-5.31999e-08
-9.82543e-08
-1.33813e-07
-1.52139e-07
-1.52566e-07
-1.39832e-07
-1.20125e-07
-9.89718e-08
-7.99793e-08
-6.46074e-08
-5.28449e-08
-4.39741e-08
-3.70769e-08
-3.12878e-08
-2.58631e-08
-2.01579e-08
-1.35199e-08
-5.10341e-09
6.19627e-09
2.11059e-08
3.86071e-08
5.56844e-08
6.9422e-08
7.88457e-08
8.45245e-08
8.74671e-08
8.858e-08
8.8542e-08
8.78152e-08
8.67012e-08
8.53885e-08
8.39929e-08
8.25835e-08
8.11994e-08
7.98616e-08
7.85793e-08
7.73548e-08
7.61868e-08
7.50715e-08
7.40044e-08
7.29806e-08
7.19952e-08
7.1044e-08
7.01228e-08
6.92282e-08
6.83569e-08
6.75061e-08
6.66734e-08
6.58566e-08
6.50536e-08
6.42626e-08
6.34664e-08
6.26636e-08
6.18529e-08
6.10328e-08
6.0202e-08
5.93587e-08
5.85014e-08
5.76282e-08
5.67368e-08
5.58246e-08
5.48882e-08
5.39236e-08
5.29258e-08
5.18891e-08
5.08071e-08
4.96734e-08
4.84823e-08
4.72307e-08
4.59195e-08
4.45564e-08
4.31568e-08
4.1742e-08
4.0334e-08
3.89505e-08
3.76037e-08
3.63005e-08
3.50415e-08
3.38178e-08
3.26056e-08
3.13593e-08
3.00033e-08
2.84737e-08
2.69554e-08
2.60209e-08
2.57565e-08
2.0936e-08
1.63995e-08
1.24816e-08
8.7426e-09
5.22084e-09
1.9433e-09
-1.05984e-09
-3.75759e-09
-6.12711e-09
-8.1078e-09
-9.56155e-09
-1.11881e-08
-1.10461e-08
-1.35387e-08
-1.05882e-08
-3.03957e-08
-8.16837e-08
-1.84672e-08
-2.58607e-10
-3.16438e-11
-8.9792e-11
-1.27043e-10
-1.60181e-10
-1.86178e-10
-2.05961e-10
-2.13067e-10
-1.98885e-10
-1.87651e-10
-1.77137e-10
-1.54338e-10
-1.32862e-10
-1.12383e-10
-9.45036e-11
-7.99749e-11
-6.91364e-11
-6.20449e-11
-5.86401e-11
-5.8933e-11
-6.332e-11
-7.162e-11
-1.12893e-10
-1.3473e-10
-7.56998e-11
-7.01066e-11
-7.04716e-11
-7.04814e-11
-7.04816e-11
-7.04815e-11
-7.04816e-11
-7.04815e-11
-7.04816e-11
-7.04814e-11
-7.04815e-11
-7.04814e-11
-7.04815e-11
-7.04813e-11
-7.04814e-11
-7.04813e-11
-7.04814e-11
-7.04812e-11
-7.04814e-11
-7.04812e-11
-7.04814e-11
-7.04812e-11
-7.04813e-11
-7.04812e-11
-7.04813e-11
-7.04812e-11
-7.04813e-11
-7.04812e-11
-7.04813e-11
-7.04813e-11
-7.04814e-11
-7.04813e-11
-7.04814e-11
-7.04813e-11
-7.04814e-11
-7.04814e-11
-7.04815e-11
-7.04815e-11
-7.04816e-11
-7.04815e-11
-7.04816e-11
-7.04816e-11
-7.04818e-11
-7.04818e-11
-7.04819e-11
-7.0482e-11
-7.04821e-11
-7.04822e-11
-7.04825e-11
-7.0483e-11
-7.04837e-11
-7.04847e-11
-7.04857e-11
-7.04868e-11
-7.04879e-11
-7.04889e-11
-7.04898e-11
-7.04906e-11
-7.04919e-11
-7.04928e-11
-7.04937e-11
-7.04938e-11
-7.04946e-11
-7.04942e-11
-7.04939e-11
-7.04926e-11
-7.04939e-11
-7.04934e-11
-7.04929e-11
-7.04896e-11
-7.0488e-11
-7.04833e-11
-7.04782e-11
-7.04719e-11
-7.04629e-11
-7.04535e-11
-7.04436e-11
-7.04395e-11
-7.04613e-11
-7.13697e-11
-1.11618e-10
)
;

boundaryField
{
    inandouthalf11
    {
        type            cyclic;
        value           nonuniform List<scalar> 
100
(
-5.70507e-39
-1.55672e-15
-3.28912e-15
-4.90347e-15
-6.59771e-15
-8.40044e-15
-1.02598e-14
-1.21463e-14
-1.40496e-14
-1.59612e-14
-1.78703e-14
-1.97642e-14
-2.16295e-14
-2.34536e-14
-2.52246e-14
-2.69325e-14
-2.85687e-14
-3.01261e-14
-3.15993e-14
-3.29847e-14
-3.42804e-14
-3.54862e-14
-3.66035e-14
-3.76351e-14
-3.85848e-14
-3.94575e-14
-4.02588e-14
-4.09951e-14
-4.16729e-14
-4.2299e-14
-4.28803e-14
-4.34237e-14
-4.39359e-14
-4.44232e-14
-4.48918e-14
-4.53473e-14
-4.57952e-14
-4.62401e-14
-4.66868e-14
-4.7139e-14
-4.76005e-14
-4.80745e-14
-4.85637e-14
-4.90706e-14
-4.95974e-14
-5.01458e-14
-5.07174e-14
-5.13133e-14
-5.19345e-14
-5.25819e-14
-5.32561e-14
-5.39574e-14
-5.4686e-14
-5.5442e-14
-5.62254e-14
-5.7036e-14
-5.78735e-14
-5.87376e-14
-5.96277e-14
-6.05431e-14
-6.14834e-14
-6.24479e-14
-6.34361e-14
-6.44471e-14
-6.54802e-14
-6.65345e-14
-6.7609e-14
-6.87031e-14
-6.98156e-14
-7.09456e-14
-7.20922e-14
-7.32549e-14
-7.44326e-14
-7.56244e-14
-7.68295e-14
-7.80474e-14
-7.92769e-14
-8.0517e-14
-8.17669e-14
-8.30258e-14
-8.42928e-14
-8.55671e-14
-8.68483e-14
-8.81358e-14
-8.94289e-14
-9.07271e-14
-9.20297e-14
-9.33361e-14
-9.46455e-14
-9.59572e-14
-9.72707e-14
-9.85854e-14
-9.99008e-14
-1.01217e-13
-1.02533e-13
-1.03849e-13
-1.05164e-13
-1.06479e-13
-1.07792e-13
-1.09104e-13
)
;
    }
    inandouthalf12
    {
        type            cyclic;
        value           nonuniform List<scalar> 
100
(
5.70507e-39
1.55672e-15
3.28912e-15
4.90347e-15
6.59771e-15
8.40044e-15
1.02598e-14
1.21463e-14
1.40496e-14
1.59612e-14
1.78703e-14
1.97642e-14
2.16295e-14
2.34536e-14
2.52246e-14
2.69325e-14
2.85687e-14
3.01261e-14
3.15993e-14
3.29847e-14
3.42804e-14
3.54862e-14
3.66035e-14
3.76351e-14
3.85848e-14
3.94575e-14
4.02588e-14
4.09951e-14
4.16729e-14
4.2299e-14
4.28803e-14
4.34237e-14
4.39359e-14
4.44232e-14
4.48918e-14
4.53473e-14
4.57952e-14
4.62401e-14
4.66868e-14
4.7139e-14
4.76005e-14
4.80745e-14
4.85637e-14
4.90706e-14
4.95974e-14
5.01458e-14
5.07174e-14
5.13133e-14
5.19345e-14
5.25819e-14
5.32561e-14
5.39574e-14
5.4686e-14
5.5442e-14
5.62254e-14
5.7036e-14
5.78735e-14
5.87376e-14
5.96277e-14
6.05431e-14
6.14834e-14
6.24479e-14
6.34361e-14
6.44471e-14
6.54802e-14
6.65345e-14
6.7609e-14
6.87031e-14
6.98156e-14
7.09456e-14
7.20922e-14
7.32549e-14
7.44326e-14
7.56244e-14
7.68295e-14
7.80474e-14
7.92769e-14
8.0517e-14
8.17669e-14
8.30258e-14
8.42928e-14
8.55671e-14
8.68483e-14
8.81358e-14
8.94289e-14
9.07271e-14
9.20297e-14
9.33361e-14
9.46455e-14
9.59572e-14
9.72707e-14
9.85854e-14
9.99008e-14
1.01217e-13
1.02533e-13
1.03849e-13
1.05164e-13
1.06479e-13
1.07792e-13
1.09104e-13
)
;
    }
    inandouthalf21
    {
        type            cyclic;
        value           nonuniform List<scalar> 
100
(
-1.10415e-13
-1.11723e-13
-1.1303e-13
-1.14335e-13
-1.1564e-13
-1.16943e-13
-1.18247e-13
-1.19551e-13
-1.20857e-13
-1.22165e-13
-1.23476e-13
-1.24792e-13
-1.26113e-13
-1.2744e-13
-1.28773e-13
-1.30114e-13
-1.31463e-13
-1.32819e-13
-1.34182e-13
-1.3555e-13
-1.36919e-13
-1.38286e-13
-1.39646e-13
-1.40995e-13
-1.42329e-13
-1.43651e-13
-1.44966e-13
-1.46289e-13
-1.47641e-13
-1.49055e-13
-1.50566e-13
-1.52211e-13
-1.54016e-13
-1.55977e-13
-1.58031e-13
-1.60025e-13
-1.61736e-13
-1.62961e-13
-1.63658e-13
-1.63967e-13
-1.64095e-13
-1.64191e-13
-1.64365e-13
-1.65077e-13
-1.65331e-13
-1.65216e-13
-1.6419e-13
2.59972e-07
3.96842e-07
2.82311e-07
1.66347e-07
7.86456e-08
1.78426e-08
-2.28423e-08
-4.95201e-08
-6.65794e-08
-7.69661e-08
-8.26292e-08
-8.48399e-08
-8.44226e-08
-8.18887e-08
-7.75387e-08
-7.155e-08
-6.40394e-08
-5.51133e-08
-4.49048e-08
-3.35983e-08
-2.14459e-08
-8.77971e-09
3.9842e-09
1.63796e-08
2.79949e-08
3.8602e-08
4.81915e-08
5.68888e-08
6.48505e-08
7.22103e-08
7.90679e-08
8.54949e-08
9.15437e-08
9.72537e-08
1.02657e-07
1.07779e-07
1.12643e-07
1.1727e-07
1.21676e-07
1.25879e-07
1.29892e-07
1.33728e-07
1.37398e-07
1.40913e-07
1.4428e-07
1.47509e-07
1.50605e-07
1.53575e-07
1.56425e-07
1.59158e-07
1.6178e-07
1.64293e-07
1.66702e-07
)
;
    }
    inandouthalf22
    {
        type            cyclic;
        value           nonuniform List<scalar> 
100
(
1.10415e-13
1.11723e-13
1.1303e-13
1.14335e-13
1.1564e-13
1.16943e-13
1.18247e-13
1.19551e-13
1.20857e-13
1.22165e-13
1.23476e-13
1.24792e-13
1.26113e-13
1.2744e-13
1.28773e-13
1.30114e-13
1.31463e-13
1.32819e-13
1.34182e-13
1.3555e-13
1.36919e-13
1.38286e-13
1.39646e-13
1.40995e-13
1.42329e-13
1.43651e-13
1.44966e-13
1.46289e-13
1.47641e-13
1.49055e-13
1.50566e-13
1.52211e-13
1.54016e-13
1.55977e-13
1.58031e-13
1.60025e-13
1.61736e-13
1.62961e-13
1.63658e-13
1.63967e-13
1.64095e-13
1.64191e-13
1.64365e-13
1.65077e-13
1.65331e-13
1.65216e-13
1.6419e-13
-2.59972e-07
-3.96842e-07
-2.82311e-07
-1.66347e-07
-7.86456e-08
-1.78426e-08
2.28423e-08
4.95201e-08
6.65794e-08
7.69661e-08
8.26292e-08
8.48399e-08
8.44226e-08
8.18887e-08
7.75387e-08
7.155e-08
6.40394e-08
5.51133e-08
4.49048e-08
3.35983e-08
2.14459e-08
8.77971e-09
-3.9842e-09
-1.63796e-08
-2.79949e-08
-3.8602e-08
-4.81915e-08
-5.68888e-08
-6.48505e-08
-7.22103e-08
-7.90679e-08
-8.54949e-08
-9.15437e-08
-9.72537e-08
-1.02657e-07
-1.07779e-07
-1.12643e-07
-1.1727e-07
-1.21676e-07
-1.25879e-07
-1.29892e-07
-1.33728e-07
-1.37398e-07
-1.40913e-07
-1.4428e-07
-1.47509e-07
-1.50605e-07
-1.53575e-07
-1.56425e-07
-1.59158e-07
-1.6178e-07
-1.64293e-07
-1.66702e-07
)
;
    }
    inandouthalf31
    {
        type            cyclic;
        value           nonuniform List<scalar> 
110
(
1.69009e-07
1.74715e-07
1.80526e-07
1.86444e-07
1.92469e-07
1.98604e-07
2.04847e-07
2.11201e-07
2.17667e-07
2.24244e-07
2.30934e-07
2.37738e-07
2.44656e-07
2.51691e-07
2.58843e-07
2.66114e-07
2.73505e-07
2.81019e-07
2.88659e-07
2.96426e-07
3.04325e-07
3.12358e-07
3.20527e-07
3.28835e-07
3.3728e-07
3.45863e-07
3.54581e-07
3.63431e-07
3.72405e-07
3.81495e-07
3.90683e-07
3.99947e-07
4.09269e-07
4.18661e-07
4.28157e-07
4.3772e-07
4.47644e-07
5.74311e-07
5.88908e-07
6.04019e-07
6.19361e-07
6.34937e-07
6.50727e-07
6.66707e-07
6.82844e-07
6.99139e-07
7.154e-07
7.31955e-07
7.47968e-07
7.64282e-07
7.80541e-07
7.9626e-07
8.11808e-07
8.23341e-07
8.37056e-07
8.51265e-07
8.6482e-07
8.77794e-07
8.90203e-07
9.02121e-07
9.13704e-07
9.25357e-07
9.36325e-07
9.47536e-07
9.60861e-07
9.73286e-07
9.87092e-07
1.00181e-06
1.01753e-06
1.03431e-06
1.05216e-06
1.07109e-06
1.09112e-06
1.11225e-06
1.13451e-06
1.15794e-06
1.18259e-06
1.21078e-06
1.23924e-06
1.26492e-06
1.2906e-06
1.3168e-06
1.34353e-06
1.3708e-06
1.39862e-06
1.42701e-06
1.45597e-06
1.48553e-06
1.51568e-06
1.54644e-06
1.57783e-06
1.60986e-06
1.64253e-06
1.67587e-06
1.70989e-06
1.74459e-06
1.78001e-06
1.81613e-06
1.853e-06
1.89061e-06
1.92898e-06
1.96814e-06
2.00808e-06
2.04884e-06
2.09043e-06
2.13286e-06
2.17615e-06
2.22032e-06
2.26539e-06
2.31137e-06
)
;
    }
    inandouthalf32
    {
        type            cyclic;
        value           nonuniform List<scalar> 
110
(
-1.69009e-07
-1.74715e-07
-1.80526e-07
-1.86444e-07
-1.92469e-07
-1.98604e-07
-2.04847e-07
-2.11201e-07
-2.17667e-07
-2.24244e-07
-2.30934e-07
-2.37738e-07
-2.44656e-07
-2.51691e-07
-2.58843e-07
-2.66114e-07
-2.73505e-07
-2.81019e-07
-2.88659e-07
-2.96426e-07
-3.04325e-07
-3.12358e-07
-3.20527e-07
-3.28835e-07
-3.3728e-07
-3.45863e-07
-3.54581e-07
-3.63431e-07
-3.72405e-07
-3.81495e-07
-3.90683e-07
-3.99947e-07
-4.09269e-07
-4.18661e-07
-4.28157e-07
-4.3772e-07
-4.47644e-07
-5.74311e-07
-5.88908e-07
-6.04019e-07
-6.19361e-07
-6.34937e-07
-6.50727e-07
-6.66707e-07
-6.82844e-07
-6.99139e-07
-7.154e-07
-7.31955e-07
-7.47968e-07
-7.64282e-07
-7.80541e-07
-7.9626e-07
-8.11808e-07
-8.23341e-07
-8.37056e-07
-8.51265e-07
-8.6482e-07
-8.77794e-07
-8.90203e-07
-9.02121e-07
-9.13704e-07
-9.25357e-07
-9.36325e-07
-9.47536e-07
-9.60861e-07
-9.73286e-07
-9.87092e-07
-1.00181e-06
-1.01753e-06
-1.03431e-06
-1.05216e-06
-1.07109e-06
-1.09112e-06
-1.11225e-06
-1.13451e-06
-1.15794e-06
-1.18259e-06
-1.21078e-06
-1.23924e-06
-1.26492e-06
-1.2906e-06
-1.3168e-06
-1.34353e-06
-1.3708e-06
-1.39862e-06
-1.42701e-06
-1.45597e-06
-1.48553e-06
-1.51568e-06
-1.54644e-06
-1.57783e-06
-1.60986e-06
-1.64253e-06
-1.67587e-06
-1.70989e-06
-1.74459e-06
-1.78001e-06
-1.81613e-06
-1.853e-06
-1.89061e-06
-1.92898e-06
-1.96814e-06
-2.00808e-06
-2.04884e-06
-2.09043e-06
-2.13286e-06
-2.17615e-06
-2.22032e-06
-2.26539e-06
-2.31137e-06
)
;
    }
    inandouthalf41
    {
        type            cyclic;
        value           nonuniform List<scalar> 
50
(
2.06891e-06
2.06891e-06
2.06891e-06
2.06891e-06
2.06891e-06
2.06891e-06
2.06891e-06
2.06891e-06
2.06891e-06
2.06891e-06
2.06891e-06
2.06891e-06
2.06891e-06
2.06891e-06
2.06891e-06
2.06891e-06
2.06891e-06
2.06891e-06
2.06891e-06
2.06891e-06
2.06891e-06
2.06891e-06
2.06891e-06
2.06891e-06
2.06891e-06
2.06891e-06
2.06891e-06
2.06891e-06
2.06891e-06
2.06891e-06
2.06891e-06
2.06891e-06
2.06891e-06
2.06891e-06
2.06891e-06
2.06891e-06
2.06891e-06
2.06891e-06
2.06891e-06
2.06891e-06
2.06891e-06
2.06891e-06
2.06891e-06
2.06891e-06
2.06891e-06
2.06891e-06
2.06891e-06
2.06892e-06
2.06908e-06
2.07273e-06
)
;
    }
    inandouthalf42
    {
        type            cyclic;
        value           nonuniform List<scalar> 
50
(
-2.06891e-06
-2.06891e-06
-2.06891e-06
-2.06891e-06
-2.06891e-06
-2.06891e-06
-2.06891e-06
-2.06891e-06
-2.06891e-06
-2.06891e-06
-2.06891e-06
-2.06891e-06
-2.06891e-06
-2.06891e-06
-2.06891e-06
-2.06891e-06
-2.06891e-06
-2.06891e-06
-2.06891e-06
-2.06891e-06
-2.06891e-06
-2.06891e-06
-2.06891e-06
-2.06891e-06
-2.06891e-06
-2.06891e-06
-2.06891e-06
-2.06891e-06
-2.06891e-06
-2.06891e-06
-2.06891e-06
-2.06891e-06
-2.06891e-06
-2.06891e-06
-2.06891e-06
-2.06891e-06
-2.06891e-06
-2.06891e-06
-2.06891e-06
-2.06891e-06
-2.06891e-06
-2.06891e-06
-2.06891e-06
-2.06891e-06
-2.06891e-06
-2.06891e-06
-2.06891e-06
-2.06892e-06
-2.06908e-06
-2.07273e-06
)
;
    }
    top
    {
        type            symmetryPlane;
        value           uniform 0;
    }
    walls
    {
        type            calculated;
        value           uniform 0;
    }
    frontAndBackPlanes
    {
        type            empty;
        value           nonuniform 0();
    }
}


// ************************************************************************* //
