/*--------------------------------*- C++ -*----------------------------------*\
| =========                 |                                                 |
| \\      /  F ield         | OpenFOAM: The Open Source CFD Toolbox           |
|  \\    /   O peration     | Version:  2.4.x                                 |
|   \\  /    A nd           | Web:      www.OpenFOAM.org                      |
|    \\/     M anipulation  |                                                 |
\*---------------------------------------------------------------------------*/
FoamFile
{
    version     2.0;
    format      ascii;
    class       volVectorField;
    location    "11.8";
    object      ddt0(Ua);
}
// * * * * * * * * * * * * * * * * * * * * * * * * * * * * * * * * * * * * * //

dimensions      [0 1 -2 0 0 0 0];

internalField   nonuniform List<vector> 
360
(
(5.70507e-33 -2.05498e-33 0)
(1.55672e-09 4.40313e-09 0)
(3.28912e-09 7.95963e-09 0)
(4.90347e-09 1.1229e-08 0)
(6.59771e-09 1.47923e-08 0)
(8.40044e-09 1.85923e-08 0)
(1.02598e-08 2.24752e-08 0)
(1.21463e-08 2.63874e-08 0)
(1.40496e-08 3.03107e-08 0)
(1.59612e-08 3.42233e-08 0)
(1.78703e-08 3.80987e-08 0)
(1.97642e-08 4.19069e-08 0)
(2.16295e-08 4.56172e-08 0)
(2.34536e-08 4.92015e-08 0)
(2.52246e-08 5.26346e-08 0)
(2.69325e-08 5.58958e-08 0)
(2.85687e-08 5.89682e-08 0)
(3.01261e-08 6.18387e-08 0)
(3.15993e-08 6.44982e-08 0)
(3.29847e-08 6.69422e-08 0)
(3.42804e-08 6.91703e-08 0)
(3.54862e-08 7.11855e-08 0)
(3.66035e-08 7.2995e-08 0)
(3.76351e-08 7.46082e-08 0)
(3.85848e-08 7.60374e-08 0)
(3.94575e-08 7.72967e-08 0)
(4.02588e-08 7.84015e-08 0)
(4.09951e-08 7.93684e-08 0)
(4.16729e-08 8.02146e-08 0)
(4.2299e-08 8.09571e-08 0)
(4.28803e-08 8.16129e-08 0)
(4.34237e-08 8.21987e-08 0)
(4.39359e-08 8.27301e-08 0)
(4.44232e-08 8.32223e-08 0)
(4.48918e-08 8.36891e-08 0)
(4.53473e-08 8.41434e-08 0)
(4.57952e-08 8.4597e-08 0)
(4.62401e-08 8.50605e-08 0)
(4.66868e-08 8.55434e-08 0)
(4.7139e-08 8.60542e-08 0)
(4.76005e-08 8.66e-08 0)
(4.80745e-08 8.71875e-08 0)
(4.85637e-08 8.78218e-08 0)
(4.90706e-08 8.85077e-08 0)
(4.95974e-08 8.9249e-08 0)
(5.01458e-08 9.00487e-08 0)
(5.07174e-08 9.09093e-08 0)
(5.13133e-08 9.18325e-08 0)
(5.19345e-08 9.28193e-08 0)
(5.25819e-08 9.38711e-08 0)
(5.32561e-08 9.49881e-08 0)
(5.39574e-08 9.61701e-08 0)
(5.4686e-08 9.74168e-08 0)
(5.5442e-08 9.87278e-08 0)
(5.62254e-08 1.00102e-07 0)
(5.7036e-08 1.01538e-07 0)
(5.78735e-08 1.03035e-07 0)
(5.87376e-08 1.04591e-07 0)
(5.96277e-08 1.06205e-07 0)
(6.05431e-08 1.07874e-07 0)
(6.14834e-08 1.09597e-07 0)
(6.24479e-08 1.11372e-07 0)
(6.34361e-08 1.13196e-07 0)
(6.44471e-08 1.15069e-07 0)
(6.54802e-08 1.16986e-07 0)
(6.65345e-08 1.18947e-07 0)
(6.7609e-08 1.20949e-07 0)
(6.87031e-08 1.22989e-07 0)
(6.98156e-08 1.25065e-07 0)
(7.09456e-08 1.27174e-07 0)
(7.20922e-08 1.29314e-07 0)
(7.32549e-08 1.31485e-07 0)
(7.44326e-08 1.33682e-07 0)
(7.56244e-08 1.35903e-07 0)
(7.68295e-08 1.38148e-07 0)
(7.80474e-08 1.40413e-07 0)
(7.92769e-08 1.42697e-07 0)
(8.0517e-08 1.44996e-07 0)
(8.17669e-08 1.47309e-07 0)
(8.30258e-08 1.49634e-07 0)
(8.42928e-08 1.51968e-07 0)
(8.55671e-08 1.54309e-07 0)
(8.68483e-08 1.56657e-07 0)
(8.81358e-08 1.59009e-07 0)
(8.94289e-08 1.61364e-07 0)
(9.07271e-08 1.63719e-07 0)
(9.20297e-08 1.66075e-07 0)
(9.33361e-08 1.68427e-07 0)
(9.46455e-08 1.70775e-07 0)
(9.59572e-08 1.73117e-07 0)
(9.72707e-08 1.75451e-07 0)
(9.85854e-08 1.77776e-07 0)
(9.99008e-08 1.8009e-07 0)
(1.01217e-07 1.82392e-07 0)
(1.02533e-07 1.84681e-07 0)
(1.03849e-07 1.86955e-07 0)
(1.05164e-07 1.89215e-07 0)
(1.06479e-07 1.91457e-07 0)
(1.07792e-07 1.93682e-07 0)
(1.09104e-07 1.95888e-07 0)
(1.10415e-07 1.98075e-07 0)
(1.11723e-07 2.0024e-07 0)
(1.1303e-07 2.02385e-07 0)
(1.14335e-07 2.04508e-07 0)
(1.1564e-07 2.06611e-07 0)
(1.16943e-07 2.08692e-07 0)
(1.18247e-07 2.10753e-07 0)
(1.19551e-07 2.12794e-07 0)
(1.20857e-07 2.14816e-07 0)
(1.22165e-07 2.16819e-07 0)
(1.23476e-07 2.18805e-07 0)
(1.24792e-07 2.20775e-07 0)
(1.26113e-07 2.22728e-07 0)
(1.2744e-07 2.24665e-07 0)
(1.28773e-07 2.26587e-07 0)
(1.30114e-07 2.28495e-07 0)
(1.31463e-07 2.30387e-07 0)
(1.32819e-07 2.32263e-07 0)
(1.34182e-07 2.3412e-07 0)
(1.3555e-07 2.35955e-07 0)
(1.36919e-07 2.37763e-07 0)
(1.38286e-07 2.39537e-07 0)
(1.39646e-07 2.41269e-07 0)
(1.40995e-07 2.42954e-07 0)
(1.42329e-07 2.44587e-07 0)
(1.43651e-07 2.46168e-07 0)
(1.44966e-07 2.47705e-07 0)
(1.46289e-07 2.49213e-07 0)
(1.47641e-07 2.50719e-07 0)
(1.49055e-07 2.52255e-07 0)
(1.50566e-07 2.5386e-07 0)
(1.52211e-07 2.55564e-07 0)
(1.54016e-07 2.57386e-07 0)
(1.55977e-07 2.59309e-07 0)
(1.58031e-07 2.6126e-07 0)
(1.60025e-07 2.63092e-07 0)
(1.61736e-07 2.64604e-07 0)
(1.62961e-07 2.65642e-07 0)
(1.63658e-07 2.66205e-07 0)
(1.63967e-07 2.66444e-07 0)
(1.64095e-07 2.66535e-07 0)
(1.64191e-07 2.66583e-07 0)
(1.64365e-07 2.66777e-07 0)
(1.65077e-07 2.67832e-07 0)
(1.65331e-07 2.68124e-07 0)
(1.65216e-07 2.68238e-07 0)
(1.6419e-07 2.68413e-07 0)
(-0.259972 -0.000549678 0)
(-0.396842 -0.00477749 0)
(-0.282311 -0.00113866 0)
(-0.166347 -0.00779566 0)
(-0.0786456 -0.0189889 0)
(-0.0178426 -0.029499 0)
(0.0228423 -0.0363607 0)
(0.0495201 -0.0386269 0)
(0.0665794 -0.0368894 0)
(0.0769661 -0.0326147 0)
(0.0826292 -0.0273423 0)
(0.0848399 -0.0222332 0)
(0.0844226 -0.0179102 0)
(0.0818887 -0.0145336 0)
(0.0775387 -0.0119906 0)
(0.07155 -0.0100615 0)
(0.0640394 -0.00851601 0)
(0.0551133 -0.00715324 0)
(0.0449048 -0.0058067 0)
(0.0335983 -0.00432099 0)
(0.0214459 -0.00249649 0)
(0.00877971 -4.75558e-05 0)
(-0.0039842 0.00329237 0)
(-0.0163796 0.00746717 0)
(-0.0279949 0.0119082 0)
(-0.038602 0.0158308 0)
(-0.0481915 0.0187431 0)
(-0.0568888 0.0206056 0)
(-0.0648505 0.0216376 0)
(-0.0722103 0.0220998 0)
(-0.0790679 0.0221995 0)
(-0.0854949 0.0220801 0)
(-0.0915437 0.0218344 0)
(-0.0972537 0.0215212 0)
(-0.102657 0.0211766 0)
(-0.107779 0.0208224 0)
(-0.112643 0.0204711 0)
(-0.11727 0.0201298 0)
(-0.121676 0.0198018 0)
(-0.125879 0.0194884 0)
(-0.129892 0.0191894 0)
(-0.133728 0.0189042 0)
(-0.137398 0.0186317 0)
(-0.140913 0.0183706 0)
(-0.14428 0.0181197 0)
(-0.147509 0.0178779 0)
(-0.150605 0.0176441 0)
(-0.153575 0.0174173 0)
(-0.156425 0.0171968 0)
(-0.159158 0.0169817 0)
(-0.16178 0.0167714 0)
(-0.164293 0.0165653 0)
(-0.166702 0.016363 0)
(-0.169009 0.0161638 0)
(-0.171238 0.0159655 0)
(-0.173414 0.0157657 0)
(-0.175536 0.0155641 0)
(-0.177604 0.0153603 0)
(-0.179619 0.015154 0)
(-0.18158 0.0149448 0)
(-0.183488 0.0147324 0)
(-0.185343 0.0145162 0)
(-0.187145 0.0142957 0)
(-0.188894 0.0140704 0)
(-0.190591 0.0138396 0)
(-0.192236 0.0136022 0)
(-0.193829 0.0133572 0)
(-0.195371 0.0131032 0)
(-0.196863 0.0128387 0)
(-0.198306 0.012562 0)
(-0.199701 0.0122716 0)
(-0.201049 0.0119662 0)
(-0.202352 0.0116455 0)
(-0.203611 0.0113104 0)
(-0.204828 0.010964 0)
(-0.206004 0.0106109 0)
(-0.207139 0.0102569 0)
(-0.208232 0.00990706 0)
(-0.209283 0.00956521 0)
(-0.21029 0.00923381 0)
(-0.211251 0.00891394 0)
(-0.212161 0.00860486 0)
(-0.213016 0.00830262 0)
(-0.213806 0.00799745 0)
(-0.214522 0.00767156 0)
(-0.215155 0.00730676 0)
(-0.215714 0.00691913 0)
(-0.216218 0.00660257 0)
(-0.21665 0.00645261 0)
(-0.217154 0.00639705 0)
(-0.273058 0.00396642 0)
(-0.274429 0.00371985 0)
(-0.275871 0.00264776 0)
(-0.27725 0.00174616 0)
(-0.278569 0.000896363 0)
(-0.279817 0.000112046 0)
(-0.280985 -0.000597886 0)
(-0.282061 -0.00120896 0)
(-0.283047 -0.00194901 0)
(-0.283868 -0.00192104 0)
(-0.284659 -0.002977 0)
(-0.2851 -0.00267021 0)
(-0.285523 -0.00254369 0)
(-0.285796 -0.00505089 0)
(-0.285752 0.000923022 0)
(-0.285536 -0.0199732 0)
(-0.283831 -0.0120275 0)
(-0.282819 -0.000129759 0)
(-0.281898 1.77719e-06 0)
(-0.280689 -1.75057e-05 0)
(-0.279233 -2.68564e-05 0)
(-0.277547 -3.57509e-05 0)
(-0.275667 -4.3047e-05 0)
(-0.273652 -4.84481e-05 0)
(-0.271629 -5.27996e-05 0)
(-0.269381 -5.21563e-05 0)
(-0.267183 -4.61637e-05 0)
(-0.26555 -4.68805e-05 0)
(-0.263633 -4.10669e-05 0)
(-0.262054 -3.59058e-05 0)
(-0.26067 -3.06662e-05 0)
(-0.259495 -2.59002e-05 0)
(-0.258525 -2.18628e-05 0)
(-0.257754 -1.86971e-05 0)
(-0.257172 -1.64555e-05 0)
(-0.256769 -1.51404e-05 0)
(-0.256535 -1.47461e-05 0)
(-0.256463 -1.5298e-05 0)
(-0.256553 -1.70516e-05 0)
(-0.256803 -2.33246e-05 0)
(-0.257694 -3.05241e-05 0)
(-0.258503 -2.59036e-05 0)
(-0.258612 -1.8647e-05 0)
(-0.258614 -1.76399e-05 0)
(-0.258614 -1.76206e-05 0)
(-0.258614 -1.76205e-05 0)
(-0.258614 -1.76203e-05 0)
(-0.258614 -1.76205e-05 0)
(-0.258614 -1.76203e-05 0)
(-0.258614 -1.76205e-05 0)
(-0.258614 -1.76203e-05 0)
(-0.258614 -1.76205e-05 0)
(-0.258614 -1.76203e-05 0)
(-0.258614 -1.76205e-05 0)
(-0.258614 -1.76203e-05 0)
(-0.258614 -1.76205e-05 0)
(-0.258614 -1.76202e-05 0)
(-0.258614 -1.76204e-05 0)
(-0.258614 -1.76202e-05 0)
(-0.258614 -1.76204e-05 0)
(-0.258614 -1.76202e-05 0)
(-0.258614 -1.76205e-05 0)
(-0.258614 -1.76202e-05 0)
(-0.258614 -1.76205e-05 0)
(-0.258614 -1.76202e-05 0)
(-0.258614 -1.76205e-05 0)
(-0.258614 -1.76202e-05 0)
(-0.258614 -1.76205e-05 0)
(-0.258614 -1.76201e-05 0)
(-0.258614 -1.76205e-05 0)
(-0.258614 -1.76201e-05 0)
(-0.258614 -1.76205e-05 0)
(-0.258614 -1.76201e-05 0)
(-0.258614 -1.76205e-05 0)
(-0.258614 -1.76202e-05 0)
(-0.258614 -1.76205e-05 0)
(-0.258614 -1.76202e-05 0)
(-0.258614 -1.76205e-05 0)
(-0.258614 -1.76202e-05 0)
(-0.258614 -1.76206e-05 0)
(-0.258614 -1.76202e-05 0)
(-0.258614 -1.76206e-05 0)
(-0.258614 -1.76202e-05 0)
(-0.258614 -1.76206e-05 0)
(-0.258614 -1.76202e-05 0)
(-0.258614 -1.76207e-05 0)
(-0.258614 -1.76203e-05 0)
(-0.258614 -1.76207e-05 0)
(-0.258614 -1.76203e-05 0)
(-0.258614 -1.76208e-05 0)
(-0.258614 -1.76205e-05 0)
(-0.258614 -1.7621e-05 0)
(-0.258614 -1.76208e-05 0)
(-0.258614 -1.76215e-05 0)
(-0.258614 -1.76213e-05 0)
(-0.258614 -1.76221e-05 0)
(-0.258614 -1.76219e-05 0)
(-0.258614 -1.76226e-05 0)
(-0.258614 -1.76223e-05 0)
(-0.258614 -1.7623e-05 0)
(-0.258614 -1.76229e-05 0)
(-0.258614 -1.76235e-05 0)
(-0.258614 -1.76232e-05 0)
(-0.258614 -1.76238e-05 0)
(-0.258614 -1.76234e-05 0)
(-0.258614 -1.76238e-05 0)
(-0.258614 -1.76231e-05 0)
(-0.258614 -1.76236e-05 0)
(-0.258614 -1.76232e-05 0)
(-0.258614 -1.76235e-05 0)
(-0.258614 -1.76226e-05 0)
(-0.258614 -1.76224e-05 0)
(-0.258614 -1.76212e-05 0)
(-0.258614 -1.76204e-05 0)
(-0.258614 -1.76185e-05 0)
(-0.258614 -1.76171e-05 0)
(-0.258614 -1.76143e-05 0)
(-0.258614 -1.76124e-05 0)
(-0.258614 -1.76099e-05 0)
(-0.258614 -1.76081e-05 0)
(-0.258615 -1.76253e-05 0)
(-0.258634 -1.80608e-05 0)
(-0.259092 -3.54808e-05 0)
)
;

boundaryField
{
    inandouthalf11
    {
        type            cyclic;
    }
    inandouthalf12
    {
        type            cyclic;
    }
    inandouthalf21
    {
        type            cyclic;
    }
    inandouthalf22
    {
        type            cyclic;
    }
    inandouthalf31
    {
        type            cyclic;
    }
    inandouthalf32
    {
        type            cyclic;
    }
    inandouthalf41
    {
        type            cyclic;
    }
    inandouthalf42
    {
        type            cyclic;
    }
    top
    {
        type            symmetryPlane;
    }
    walls
    {
        type            calculated;
        value           uniform (0 0 0);
    }
    frontAndBackPlanes
    {
        type            empty;
    }
}


// ************************************************************************* //
