/*--------------------------------*- C++ -*----------------------------------*\
| =========                 |                                                 |
| \\      /  F ield         | OpenFOAM: The Open Source CFD Toolbox           |
|  \\    /   O peration     | Version:  2.4.x                                 |
|   \\  /    A nd           | Web:      www.OpenFOAM.org                      |
|    \\/     M anipulation  |                                                 |
\*---------------------------------------------------------------------------*/
FoamFile
{
    version     2.0;
    format      ascii;
    class       volVectorField;
    location    "11.8";
    object      ddt0(Ub);
}
// * * * * * * * * * * * * * * * * * * * * * * * * * * * * * * * * * * * * * //

dimensions      [0 1 -2 0 0 0 0];

internalField   nonuniform List<vector> 
360
(
(0.000146326 -1.85678e-09 0)
(0.000145511 -6.59345e-09 0)
(0.000145402 -1.22381e-08 0)
(0.000145514 -1.77386e-08 0)
(0.000145568 -2.33899e-08 0)
(0.000145586 -2.93037e-08 0)
(0.000145608 -3.53777e-08 0)
(0.000145637 -4.15217e-08 0)
(0.000145667 -4.76835e-08 0)
(0.000145697 -5.38248e-08 0)
(0.000145727 -5.99045e-08 0)
(0.000145757 -6.58742e-08 0)
(0.000145788 -7.16906e-08 0)
(0.000145818 -7.73122e-08 0)
(0.000145849 -8.26978e-08 0)
(0.00014588 -8.78114e-08 0)
(0.000145911 -9.26292e-08 0)
(0.000145943 -9.71276e-08 0)
(0.000145974 -1.01292e-07 0)
(0.000146006 -1.05121e-07 0)
(0.000146038 -1.08614e-07 0)
(0.000146071 -1.11773e-07 0)
(0.000146103 -1.14608e-07 0)
(0.000146136 -1.17136e-07 0)
(0.000146169 -1.19368e-07 0)
(0.000146203 -1.2133e-07 0)
(0.000146236 -1.23058e-07 0)
(0.00014627 -1.24565e-07 0)
(0.000146304 -1.25877e-07 0)
(0.000146338 -1.27032e-07 0)
(0.000146373 -1.2805e-07 0)
(0.000146408 -1.28954e-07 0)
(0.000146444 -1.29775e-07 0)
(0.00014648 -1.30535e-07 0)
(0.000146516 -1.31256e-07 0)
(0.000146552 -1.31955e-07 0)
(0.000146589 -1.32648e-07 0)
(0.000146627 -1.33355e-07 0)
(0.000146664 -1.34089e-07 0)
(0.000146702 -1.34868e-07 0)
(0.000146741 -1.35704e-07 0)
(0.00014678 -1.36606e-07 0)
(0.00014682 -1.37581e-07 0)
(0.00014686 -1.38629e-07 0)
(0.0001469 -1.39765e-07 0)
(0.000146941 -1.40994e-07 0)
(0.000146983 -1.42318e-07 0)
(0.000147025 -1.43741e-07 0)
(0.000147067 -1.45259e-07 0)
(0.00014711 -1.4688e-07 0)
(0.000147154 -1.486e-07 0)
(0.000147198 -1.50423e-07 0)
(0.000147243 -1.52349e-07 0)
(0.000147288 -1.54373e-07 0)
(0.000147334 -1.56493e-07 0)
(0.000147381 -1.58714e-07 0)
(0.000147427 -1.61026e-07 0)
(0.000147475 -1.63427e-07 0)
(0.000147524 -1.65922e-07 0)
(0.000147572 -1.68504e-07 0)
(0.000147622 -1.71168e-07 0)
(0.000147672 -1.73912e-07 0)
(0.000147724 -1.76732e-07 0)
(0.000147775 -1.7962e-07 0)
(0.000147828 -1.82577e-07 0)
(0.000147881 -1.85605e-07 0)
(0.000147935 -1.88696e-07 0)
(0.000147989 -1.9184e-07 0)
(0.000148045 -1.95037e-07 0)
(0.000148101 -1.98286e-07 0)
(0.000148158 -2.01584e-07 0)
(0.000148216 -2.04928e-07 0)
(0.000148274 -2.08313e-07 0)
(0.000148334 -2.11733e-07 0)
(0.000148395 -2.15182e-07 0)
(0.000148456 -2.18661e-07 0)
(0.000148518 -2.22168e-07 0)
(0.000148582 -2.25691e-07 0)
(0.000148646 -2.29239e-07 0)
(0.000148711 -2.32808e-07 0)
(0.000148778 -2.36383e-07 0)
(0.000148845 -2.39967e-07 0)
(0.000148914 -2.43557e-07 0)
(0.000148983 -2.47151e-07 0)
(0.000149054 -2.50744e-07 0)
(0.000149126 -2.54342e-07 0)
(0.0001492 -2.57938e-07 0)
(0.000149274 -2.61525e-07 0)
(0.00014935 -2.651e-07 0)
(0.000149427 -2.6866e-07 0)
(0.000149506 -2.72208e-07 0)
(0.000149586 -2.75741e-07 0)
(0.000149668 -2.79255e-07 0)
(0.000149751 -2.82742e-07 0)
(0.000149836 -2.86202e-07 0)
(0.000149922 -2.89638e-07 0)
(0.000150011 -2.93047e-07 0)
(0.0001501 -2.96425e-07 0)
(0.000150192 -2.99774e-07 0)
(0.000150286 -3.03088e-07 0)
(0.000150382 -3.06367e-07 0)
(0.00015048 -3.09614e-07 0)
(0.00015058 -3.12824e-07 0)
(0.000150682 -3.15992e-07 0)
(0.000150786 -3.19125e-07 0)
(0.000150893 -3.22221e-07 0)
(0.000151003 -3.2528e-07 0)
(0.000151115 -3.28301e-07 0)
(0.00015123 -3.31288e-07 0)
(0.000151347 -3.34243e-07 0)
(0.000151468 -3.37162e-07 0)
(0.000151592 -3.40051e-07 0)
(0.000151719 -3.42911e-07 0)
(0.000151849 -3.4574e-07 0)
(0.000151983 -3.48536e-07 0)
(0.000152121 -3.51299e-07 0)
(0.000152262 -3.54033e-07 0)
(0.000152408 -3.56736e-07 0)
(0.000152558 -3.59402e-07 0)
(0.000152713 -3.62024e-07 0)
(0.000152872 -3.64594e-07 0)
(0.000153037 -3.67105e-07 0)
(0.000153206 -3.69546e-07 0)
(0.000153382 -3.71904e-07 0)
(0.000153564 -3.74173e-07 0)
(0.000153751 -3.76356e-07 0)
(0.000153946 -3.78464e-07 0)
(0.000154148 -3.80519e-07 0)
(0.000154358 -3.82555e-07 0)
(0.000154577 -3.84629e-07 0)
(0.000154805 -3.86798e-07 0)
(0.000155042 -3.89097e-07 0)
(0.00015529 -3.91543e-07 0)
(0.000155552 -3.94097e-07 0)
(0.000155832 -3.96639e-07 0)
(0.00015613 -3.98956e-07 0)
(0.000156446 -4.00775e-07 0)
(0.000156783 -4.01888e-07 0)
(0.000157157 -4.02287e-07 0)
(0.000157583 -4.02168e-07 0)
(0.000158043 -4.01734e-07 0)
(0.000158589 -3.95554e-07 0)
(0.00016237 -7.2258e-07 0)
(0.000161807 2.73451e-06 0)
(0.0001625 -1.0373e-05 0)
(0.000162767 3.94582e-05 0)
(-0.000681252 -0.00015855 0)
(-0.275704 0.000598257 0)
(-0.382558 0.00268469 0)
(-0.263088 -0.000672603 0)
(-0.151364 0.00199625 0)
(-0.0636437 0.00376142 0)
(-0.00090666 0.00474775 0)
(0.0410757 0.00477091 0)
(0.0676303 0.00409282 0)
(0.0835526 0.00311067 0)
(0.0925331 0.00215242 0)
(0.097124 0.00138385 0)
(0.0989435 0.000839967 0)
(0.0989417 0.000485879 0)
(0.0976334 0.000266657 0)
(0.0952686 0.00013416 0)
(0.091942 5.46323e-05 0)
(0.0876579 6.91749e-06 0)
(0.0823661 -2.1532e-05 0)
(0.0759842 -3.80715e-05 0)
(0.0684127 -4.71863e-05 0)
(0.0595504 -5.18315e-05 0)
(0.0493121 -5.38477e-05 0)
(0.0376513 -5.3753e-05 0)
(0.0245904 -5.09139e-05 0)
(0.0102517 -4.4884e-05 0)
(-0.005123 -3.67122e-05 0)
(-0.021182 -2.84624e-05 0)
(-0.0375008 -2.16605e-05 0)
(-0.0536338 -1.66674e-05 0)
(-0.069169 -1.31576e-05 0)
(-0.0837725 -1.0692e-05 0)
(-0.0972159 -8.91172e-06 0)
(-0.109382 -7.58808e-06 0)
(-0.12025 -6.59154e-06 0)
(-0.129873 -5.82093e-06 0)
(-0.138352 -5.20942e-06 0)
(-0.14581 -4.71277e-06 0)
(-0.152379 -4.30078e-06 0)
(-0.158183 -3.95231e-06 0)
(-0.163338 -3.65232e-06 0)
(-0.167946 -3.38997e-06 0)
(-0.172092 -3.15738e-06 0)
(-0.175852 -2.94868e-06 0)
(-0.179287 -2.7595e-06 0)
(-0.182449 -2.58652e-06 0)
(-0.185379 -2.42719e-06 0)
(-0.188113 -2.27955e-06 0)
(-0.19068 -2.14204e-06 0)
(-0.193104 -2.01344e-06 0)
(-0.195405 -1.89278e-06 0)
(-0.197598 -1.77925e-06 0)
(-0.199699 -1.67222e-06 0)
(-0.201717 -1.57112e-06 0)
(-0.203662 -1.47551e-06 0)
(-0.205561 -1.38406e-06 0)
(-0.207438 -1.29577e-06 0)
(-0.209296 -1.21056e-06 0)
(-0.211138 -1.12837e-06 0)
(-0.212968 -1.04921e-06 0)
(-0.214786 -9.73051e-07 0)
(-0.216596 -8.99917e-07 0)
(-0.218399 -8.29831e-07 0)
(-0.220197 -7.62843e-07 0)
(-0.22199 -6.99011e-07 0)
(-0.22378 -6.3839e-07 0)
(-0.225567 -5.81038e-07 0)
(-0.227352 -5.26996e-07 0)
(-0.229136 -4.76283e-07 0)
(-0.230918 -4.28885e-07 0)
(-0.232699 -3.84758e-07 0)
(-0.234478 -3.43835e-07 0)
(-0.236257 -3.06019e-07 0)
(-0.238033 -2.71193e-07 0)
(-0.239807 -2.39243e-07 0)
(-0.241579 -2.10056e-07 0)
(-0.243347 -1.83517e-07 0)
(-0.245111 -1.59506e-07 0)
(-0.246869 -1.37896e-07 0)
(-0.248622 -1.18551e-07 0)
(-0.250367 -1.01354e-07 0)
(-0.252102 -8.62129e-08 0)
(-0.253828 -7.30612e-08 0)
(-0.255541 -6.18158e-08 0)
(-0.257239 -5.22133e-08 0)
(-0.258921 -4.35339e-08 0)
(-0.260582 -3.47843e-08 0)
(-0.262222 -2.5825e-08 0)
(-0.263836 -1.81949e-08 0)
(-0.26542 -1.3436e-08 0)
(-0.266971 -1.0556e-08 0)
(-0.268483 -8.06773e-09 0)
(-0.269952 -5.92858e-09 0)
(-0.271372 -4.21047e-09 0)
(-0.272736 -2.87939e-09 0)
(-0.274037 -1.86929e-09 0)
(-0.275267 -1.12543e-09 0)
(-0.276417 -5.98961e-10 0)
(-0.277477 -2.44371e-10 0)
(-0.278436 -2.0933e-11 0)
(-0.279282 1.02738e-10 0)
(-0.28 1.58871e-10 0)
(-0.280576 1.69306e-10 0)
(-0.280995 1.58029e-10 0)
(-0.281238 1.3699e-10 0)
(-0.281288 1.20679e-10 0)
(-0.281128 7.14357e-11 0)
(-0.280739 3.10384e-11 0)
(-0.280108 3.89601e-11 0)
(-0.279222 2.18456e-11 0)
(-0.278077 5.85325e-12 0)
(-0.276679 -7.18257e-12 0)
(-0.275045 -1.84289e-11 0)
(-0.273206 -2.88432e-11 0)
(-0.27121 -3.81123e-11 0)
(-0.269118 -4.62824e-11 0)
(-0.266999 -5.40968e-11 0)
(-0.264924 -6.26101e-11 0)
(-0.262955 -7.16342e-11 0)
(-0.26114 -8.10277e-11 0)
(-0.259513 -9.08298e-11 0)
(-0.258089 -1.00068e-10 0)
(-0.256875 -1.09259e-10 0)
(-0.255868 -1.17715e-10 0)
(-0.255063 -1.39085e-10 0)
(-0.254449 -1.00962e-10 0)
(-0.254017 -1.96074e-10 0)
(-0.253757 -5.77925e-11 0)
(-0.25366 -2.70827e-10 0)
(-0.253726 3.06201e-13 0)
(-0.253965 -3.41705e-10 0)
(-0.254702 5.43157e-11 0)
(-0.255665 -3.91683e-10 0)
(-0.255802 9.59649e-11 0)
(-0.255804 -4.24613e-10 0)
(-0.255805 1.31341e-10 0)
(-0.255805 -4.59796e-10 0)
(-0.255805 1.72593e-10 0)
(-0.255805 -4.92401e-10 0)
(-0.255805 2.19381e-10 0)
(-0.255805 -5.17554e-10 0)
(-0.255805 2.77751e-10 0)
(-0.255805 -5.4116e-10 0)
(-0.255805 3.33092e-10 0)
(-0.255805 -5.66431e-10 0)
(-0.255805 3.95503e-10 0)
(-0.255805 -5.88557e-10 0)
(-0.255805 4.6257e-10 0)
(-0.255805 -6.12134e-10 0)
(-0.255805 5.29933e-10 0)
(-0.255805 -6.42617e-10 0)
(-0.255805 5.88689e-10 0)
(-0.255805 -6.88036e-10 0)
(-0.255805 6.40859e-10 0)
(-0.255805 -7.37413e-10 0)
(-0.255805 6.93891e-10 0)
(-0.255805 -7.91354e-10 0)
(-0.255805 7.44076e-10 0)
(-0.255805 -8.49069e-10 0)
(-0.255805 7.96852e-10 0)
(-0.255805 -9.10919e-10 0)
(-0.255805 8.42563e-10 0)
(-0.255805 -9.85208e-10 0)
(-0.255805 8.83046e-10 0)
(-0.255805 -9.48325e-10 0)
(-0.255805 7.7481e-10 0)
(-0.255805 -1.00043e-09 0)
(-0.255805 7.64672e-10 0)
(-0.255805 -1.05468e-09 0)
(-0.255805 7.44686e-10 0)
(-0.255805 -1.12009e-09 0)
(-0.255805 7.14444e-10 0)
(-0.255805 -1.19605e-09 0)
(-0.255805 6.6791e-10 0)
(-0.255805 -1.29289e-09 0)
(-0.255805 5.96729e-10 0)
(-0.255805 -1.40948e-09 0)
(-0.255805 5.08539e-10 0)
(-0.255805 -1.55065e-09 0)
(-0.255805 3.77553e-10 0)
(-0.255805 -1.76451e-09 0)
(-0.255805 3.67073e-11 0)
(-0.255805 -2.43121e-09 0)
(-0.255805 -9.1805e-10 0)
(-0.255805 -3.69247e-09 0)
(-0.255805 -2.27076e-09 0)
(-0.255805 -5.1105e-09 0)
(-0.255805 -3.66578e-09 0)
(-0.255805 -6.4601e-09 0)
(-0.255805 -4.84723e-09 0)
(-0.255805 -7.71968e-09 0)
(-0.255805 -6.25857e-09 0)
(-0.255805 -9.04018e-09 0)
(-0.255805 -7.11703e-09 0)
(-0.255805 -9.64143e-09 0)
(-0.255805 -7.52113e-09 0)
(-0.255805 -9.5517e-09 0)
(-0.255805 -6.70837e-09 0)
(-0.255805 -8.96071e-09 0)
(-0.255805 -6.9086e-09 0)
(-0.255805 -8.85143e-09 0)
(-0.255805 -5.22824e-09 0)
(-0.255805 -5.90506e-09 0)
(-0.255805 -1.42276e-09 0)
(-0.255805 -4.86825e-10 0)
(-0.255805 5.71941e-09 0)
(-0.255805 8.50382e-09 0)
(-0.255805 1.70653e-08 0)
(-0.255805 2.1175e-08 0)
(-0.255805 2.88714e-08 0)
(-0.255805 3.50882e-08 0)
(-0.255805 4.35334e-08 0)
(-0.255805 3.6465e-08 0)
(-0.255805 1.80046e-08 0)
)
;

boundaryField
{
    inandouthalf11
    {
        type            cyclic;
    }
    inandouthalf12
    {
        type            cyclic;
    }
    inandouthalf21
    {
        type            cyclic;
    }
    inandouthalf22
    {
        type            cyclic;
    }
    inandouthalf31
    {
        type            cyclic;
    }
    inandouthalf32
    {
        type            cyclic;
    }
    inandouthalf41
    {
        type            cyclic;
    }
    inandouthalf42
    {
        type            cyclic;
    }
    top
    {
        type            symmetryPlane;
    }
    walls
    {
        type            calculated;
        value           uniform (0 0 0);
    }
    frontAndBackPlanes
    {
        type            empty;
    }
}


// ************************************************************************* //
