/*--------------------------------*- C++ -*----------------------------------*\
| =========                 |                                                 |
| \\      /  F ield         | OpenFOAM: The Open Source CFD Toolbox           |
|  \\    /   O peration     | Version:  2.4.x                                 |
|   \\  /    A nd           | Web:      www.OpenFOAM.org                      |
|    \\/     M anipulation  |                                                 |
\*---------------------------------------------------------------------------*/
FoamFile
{
    version     2.0;
    format      ascii;
    class       surfaceScalarField;
    location    "11.8";
    object      ddt0(phib);
}
// * * * * * * * * * * * * * * * * * * * * * * * * * * * * * * * * * * * * * //

dimensions      [0 3 -2 0 0 0 0];

internalField   nonuniform List<scalar> 
359
(
-1.51085e-14
-3.79834e-14
-5.99564e-14
-8.19503e-14
-1.05165e-13
-1.2927e-13
-1.53758e-13
-1.78419e-13
-2.03052e-13
-2.27549e-13
-2.5169e-13
-2.75307e-13
-2.98221e-13
-3.20279e-13
-3.41306e-13
-3.61188e-13
-3.79848e-13
-3.97174e-13
-4.13163e-13
-4.27804e-13
-4.41107e-13
-4.53076e-13
-4.63787e-13
-4.733e-13
-4.81645e-13
-4.88997e-13
-4.95467e-13
-5.01055e-13
-5.0596e-13
-5.10297e-13
-5.14104e-13
-5.17532e-13
-5.20672e-13
-5.23612e-13
-5.2644e-13
-5.29202e-13
-5.31987e-13
-5.34854e-13
-5.37861e-13
-5.41089e-13
-5.44543e-13
-5.48306e-13
-5.52342e-13
-5.56693e-13
-5.61434e-13
-5.66519e-13
-5.72027e-13
-5.77902e-13
-5.84177e-13
-5.90868e-13
-5.97936e-13
-6.0545e-13
-6.13346e-13
-6.21643e-13
-6.30307e-13
-6.39405e-13
-6.4881e-13
-6.5861e-13
-6.68772e-13
-6.79268e-13
-6.90083e-13
-7.01222e-13
-7.1264e-13
-7.24324e-13
-7.36298e-13
-7.48549e-13
-7.61022e-13
-7.73705e-13
-7.86593e-13
-7.99702e-13
-8.12973e-13
-8.26454e-13
-8.40058e-13
-8.5381e-13
-8.67656e-13
-8.8164e-13
-8.9571e-13
-9.09825e-13
-9.24099e-13
-9.38375e-13
-9.52698e-13
-9.67046e-13
-9.81418e-13
-9.95798e-13
-1.01017e-12
-1.02458e-12
-1.03894e-12
-1.05327e-12
-1.06754e-12
-1.08175e-12
-1.09592e-12
-1.11002e-12
-1.12403e-12
-1.13791e-12
-1.15171e-12
-1.16541e-12
-1.17898e-12
-1.19243e-12
-1.20578e-12
-1.21894e-12
-1.232e-12
-1.24492e-12
-1.25768e-12
-1.27027e-12
-1.28275e-12
-1.29504e-12
-1.30722e-12
-1.31921e-12
-1.33111e-12
-1.34285e-12
-1.35446e-12
-1.36597e-12
-1.37734e-12
-1.3886e-12
-1.39971e-12
-1.4107e-12
-1.42158e-12
-1.43233e-12
-1.44291e-12
-1.45331e-12
-1.46348e-12
-1.4734e-12
-1.48301e-12
-1.49226e-12
-1.50116e-12
-1.50972e-12
-1.51803e-12
-1.52617e-12
-1.53432e-12
-1.54276e-12
-1.55168e-12
-1.56116e-12
-1.57126e-12
-1.58161e-12
-1.5916e-12
-1.60014e-12
-1.60617e-12
-1.60912e-12
-1.60944e-12
-1.60811e-12
-1.60605e-12
-1.59503e-12
-1.59209e-12
-1.59482e-12
-1.59144e-12
-1.60376e-12
1.26486e-10
9.67531e-09
1.81511e-09
3.96592e-09
1.13489e-08
1.72674e-08
1.92946e-08
1.7849e-08
1.44001e-08
1.04738e-08
7.01994e-09
4.411e-09
2.63223e-09
1.49668e-09
7.98445e-10
3.76447e-10
1.2266e-10
-2.94659e-11
-1.19412e-10
-1.70611e-10
-1.97749e-10
-2.10664e-10
-2.1482e-10
-2.09994e-10
-1.92649e-10
-1.63416e-10
-1.29786e-10
-9.97196e-11
-7.64982e-11
-5.97045e-11
-4.77694e-11
-3.92308e-11
-3.30113e-11
-2.83771e-11
-2.48383e-11
-2.20686e-11
-1.9849e-11
-1.80299e-11
-1.65079e-11
-1.52104e-11
-1.40853e-11
-1.30952e-11
-1.22124e-11
-1.14166e-11
-1.06922e-11
-1.00275e-11
-9.41355e-12
-8.84321e-12
-8.31098e-12
-7.81246e-12
-7.34409e-12
-6.90296e-12
-6.48668e-12
-6.09326e-12
-5.72097e-12
-5.36145e-12
-5.01438e-12
-4.67953e-12
-4.35677e-12
-4.04605e-12
-3.74742e-12
-3.46091e-12
-3.1867e-12
-2.92499e-12
-2.67602e-12
-2.44e-12
-2.21715e-12
-2.00756e-12
-1.81129e-12
-1.62817e-12
-1.45801e-12
-1.30048e-12
-1.15515e-12
-1.02153e-12
-8.99204e-13
-7.87687e-13
-6.86544e-13
-5.95255e-13
-5.13315e-13
-4.40181e-13
-3.75463e-13
-3.18789e-13
-2.69839e-13
-2.28009e-13
-1.91806e-13
-1.57648e-13
-1.22049e-13
-8.7291e-14
-6.19109e-14
-4.90733e-14
-3.75448e-14
-2.79829e-14
-2.02821e-14
-1.4218e-14
-9.53109e-15
-6.01283e-15
-3.46802e-15
-1.70401e-15
-5.4573e-16
1.59971e-16
5.0474e-16
6.65951e-16
6.27451e-16
6.12797e-16
4.56093e-16
4.49931e-16
1.4474e-16
1.7108e-16
1.11568e-16
5.04916e-17
-4.55847e-18
-5.32283e-17
-9.55085e-17
-1.36888e-16
-1.6968e-16
-2.02333e-16
-2.32315e-16
-2.70549e-16
-3.0428e-16
-3.45155e-16
-3.81978e-16
-4.18886e-16
-4.59368e-16
-4.95519e-16
-5.16134e-16
-5.4567e-16
-5.65958e-16
-5.94696e-16
-6.08918e-16
-6.19502e-16
-6.31846e-16
-6.31481e-16
-6.31256e-16
-6.18122e-16
-6.23125e-16
-6.22584e-16
-6.1277e-16
-5.96274e-16
-5.94041e-16
-5.5781e-16
-5.19652e-16
-4.81509e-16
-4.6237e-16
-4.24976e-16
-3.85455e-16
-3.43277e-16
-2.96482e-16
-2.51949e-16
-2.12853e-16
-1.69475e-16
-1.54814e-16
-1.50548e-16
-1.43813e-16
-1.42838e-16
-1.3569e-16
-1.41823e-16
-1.4727e-16
-1.58003e-16
-1.56386e-16
-1.70661e-16
-1.86288e-16
-2.33085e-16
-2.53761e-16
-3.1284e-16
-3.61002e-16
-4.36584e-16
-4.8694e-16
-5.57676e-16
-6.35378e-16
-7.30941e-16
-8.25323e-16
-9.40845e-16
-1.06682e-15
-1.22457e-15
-1.40664e-15
-1.60456e-15
-1.81094e-15
-2.05003e-15
-2.34884e-15
-2.70245e-15
-3.23724e-15
-4.65911e-15
-6.49884e-15
-9.1545e-15
-1.19823e-14
-1.4649e-14
-1.77064e-14
-2.0222e-14
-2.28152e-14
-2.4659e-14
-2.83223e-14
-3.05941e-14
-3.288e-14
-3.29958e-14
-3.51656e-14
-3.40859e-14
-3.3272e-14
-2.94794e-14
-3.29978e-14
-3.15526e-14
-3.00768e-14
-2.10942e-14
-1.68343e-14
-4.02932e-15
9.53124e-15
2.66524e-14
5.08122e-14
7.6169e-14
1.02861e-13
1.18388e-13
1.71985e-13
1.67025e-13
1.34598e-13
)
;

boundaryField
{
    inandouthalf11
    {
        type            cyclic;
        value           nonuniform List<scalar> 
100
(
-1.46326e-10
-1.45511e-10
-1.45402e-10
-1.45514e-10
-1.45568e-10
-1.45586e-10
-1.45608e-10
-1.45637e-10
-1.45667e-10
-1.45697e-10
-1.45727e-10
-1.45757e-10
-1.45788e-10
-1.45818e-10
-1.45849e-10
-1.4588e-10
-1.45911e-10
-1.45943e-10
-1.45974e-10
-1.46006e-10
-1.46038e-10
-1.46071e-10
-1.46103e-10
-1.46136e-10
-1.46169e-10
-1.46203e-10
-1.46236e-10
-1.4627e-10
-1.46304e-10
-1.46338e-10
-1.46373e-10
-1.46408e-10
-1.46444e-10
-1.4648e-10
-1.46516e-10
-1.46552e-10
-1.46589e-10
-1.46627e-10
-1.46664e-10
-1.46702e-10
-1.46741e-10
-1.4678e-10
-1.4682e-10
-1.4686e-10
-1.469e-10
-1.46941e-10
-1.46983e-10
-1.47025e-10
-1.47067e-10
-1.4711e-10
-1.47154e-10
-1.47198e-10
-1.47243e-10
-1.47288e-10
-1.47334e-10
-1.47381e-10
-1.47427e-10
-1.47475e-10
-1.47524e-10
-1.47572e-10
-1.47622e-10
-1.47672e-10
-1.47724e-10
-1.47775e-10
-1.47828e-10
-1.47881e-10
-1.47935e-10
-1.47989e-10
-1.48045e-10
-1.48101e-10
-1.48158e-10
-1.48216e-10
-1.48274e-10
-1.48334e-10
-1.48395e-10
-1.48456e-10
-1.48518e-10
-1.48582e-10
-1.48646e-10
-1.48711e-10
-1.48778e-10
-1.48845e-10
-1.48914e-10
-1.48983e-10
-1.49054e-10
-1.49126e-10
-1.492e-10
-1.49274e-10
-1.4935e-10
-1.49427e-10
-1.49506e-10
-1.49586e-10
-1.49668e-10
-1.49751e-10
-1.49836e-10
-1.49922e-10
-1.50011e-10
-1.501e-10
-1.50192e-10
-1.50286e-10
)
;
    }
    inandouthalf12
    {
        type            cyclic;
        value           nonuniform List<scalar> 
100
(
1.46326e-10
1.45511e-10
1.45402e-10
1.45514e-10
1.45568e-10
1.45586e-10
1.45608e-10
1.45637e-10
1.45667e-10
1.45697e-10
1.45727e-10
1.45757e-10
1.45788e-10
1.45818e-10
1.45849e-10
1.4588e-10
1.45911e-10
1.45943e-10
1.45974e-10
1.46006e-10
1.46038e-10
1.46071e-10
1.46103e-10
1.46136e-10
1.46169e-10
1.46203e-10
1.46236e-10
1.4627e-10
1.46304e-10
1.46338e-10
1.46373e-10
1.46408e-10
1.46444e-10
1.4648e-10
1.46516e-10
1.46552e-10
1.46589e-10
1.46627e-10
1.46664e-10
1.46702e-10
1.46741e-10
1.4678e-10
1.4682e-10
1.4686e-10
1.469e-10
1.46941e-10
1.46983e-10
1.47025e-10
1.47067e-10
1.4711e-10
1.47154e-10
1.47198e-10
1.47243e-10
1.47288e-10
1.47334e-10
1.47381e-10
1.47427e-10
1.47475e-10
1.47524e-10
1.47572e-10
1.47622e-10
1.47672e-10
1.47724e-10
1.47775e-10
1.47828e-10
1.47881e-10
1.47935e-10
1.47989e-10
1.48045e-10
1.48101e-10
1.48158e-10
1.48216e-10
1.48274e-10
1.48334e-10
1.48395e-10
1.48456e-10
1.48518e-10
1.48582e-10
1.48646e-10
1.48711e-10
1.48778e-10
1.48845e-10
1.48914e-10
1.48983e-10
1.49054e-10
1.49126e-10
1.492e-10
1.49274e-10
1.4935e-10
1.49427e-10
1.49506e-10
1.49586e-10
1.49668e-10
1.49751e-10
1.49836e-10
1.49922e-10
1.50011e-10
1.501e-10
1.50192e-10
1.50286e-10
)
;
    }
    inandouthalf21
    {
        type            cyclic;
        value           nonuniform List<scalar> 
100
(
-1.50382e-10
-1.5048e-10
-1.5058e-10
-1.50682e-10
-1.50786e-10
-1.50893e-10
-1.51003e-10
-1.51115e-10
-1.5123e-10
-1.51347e-10
-1.51468e-10
-1.51592e-10
-1.51719e-10
-1.51849e-10
-1.51983e-10
-1.52121e-10
-1.52262e-10
-1.52408e-10
-1.52558e-10
-1.52713e-10
-1.52872e-10
-1.53037e-10
-1.53206e-10
-1.53382e-10
-1.53564e-10
-1.53751e-10
-1.53946e-10
-1.54148e-10
-1.54358e-10
-1.54577e-10
-1.54805e-10
-1.55042e-10
-1.5529e-10
-1.55552e-10
-1.55832e-10
-1.5613e-10
-1.56446e-10
-1.56783e-10
-1.57157e-10
-1.57583e-10
-1.58043e-10
-1.58589e-10
-1.6237e-10
-1.61807e-10
-1.625e-10
-1.62767e-10
6.81252e-10
2.75704e-07
3.82558e-07
2.63088e-07
1.51364e-07
6.36437e-08
9.0666e-10
-4.10757e-08
-6.76303e-08
-8.35526e-08
-9.25331e-08
-9.7124e-08
-9.89435e-08
-9.89417e-08
-9.76334e-08
-9.52686e-08
-9.1942e-08
-8.76579e-08
-8.23661e-08
-7.59842e-08
-6.84127e-08
-5.95504e-08
-4.93121e-08
-3.76513e-08
-2.45904e-08
-1.02517e-08
5.123e-09
2.1182e-08
3.75008e-08
5.36338e-08
6.9169e-08
8.37725e-08
9.72159e-08
1.09382e-07
1.2025e-07
1.29873e-07
1.38352e-07
1.4581e-07
1.52379e-07
1.58183e-07
1.63338e-07
1.67946e-07
1.72092e-07
1.75852e-07
1.79287e-07
1.82449e-07
1.85379e-07
1.88113e-07
1.9068e-07
1.93104e-07
1.95405e-07
1.97598e-07
1.99699e-07
2.01717e-07
)
;
    }
    inandouthalf22
    {
        type            cyclic;
        value           nonuniform List<scalar> 
100
(
1.50382e-10
1.5048e-10
1.5058e-10
1.50682e-10
1.50786e-10
1.50893e-10
1.51003e-10
1.51115e-10
1.5123e-10
1.51347e-10
1.51468e-10
1.51592e-10
1.51719e-10
1.51849e-10
1.51983e-10
1.52121e-10
1.52262e-10
1.52408e-10
1.52558e-10
1.52713e-10
1.52872e-10
1.53037e-10
1.53206e-10
1.53382e-10
1.53564e-10
1.53751e-10
1.53946e-10
1.54148e-10
1.54358e-10
1.54577e-10
1.54805e-10
1.55042e-10
1.5529e-10
1.55552e-10
1.55832e-10
1.5613e-10
1.56446e-10
1.56783e-10
1.57157e-10
1.57583e-10
1.58043e-10
1.58589e-10
1.6237e-10
1.61807e-10
1.625e-10
1.62767e-10
-6.81252e-10
-2.75704e-07
-3.82558e-07
-2.63088e-07
-1.51364e-07
-6.36437e-08
-9.0666e-10
4.10757e-08
6.76303e-08
8.35526e-08
9.25331e-08
9.7124e-08
9.89435e-08
9.89417e-08
9.76334e-08
9.52686e-08
9.1942e-08
8.76579e-08
8.23661e-08
7.59842e-08
6.84127e-08
5.95504e-08
4.93121e-08
3.76513e-08
2.45904e-08
1.02517e-08
-5.123e-09
-2.1182e-08
-3.75008e-08
-5.36338e-08
-6.9169e-08
-8.37725e-08
-9.72159e-08
-1.09382e-07
-1.2025e-07
-1.29873e-07
-1.38352e-07
-1.4581e-07
-1.52379e-07
-1.58183e-07
-1.63338e-07
-1.67946e-07
-1.72092e-07
-1.75852e-07
-1.79287e-07
-1.82449e-07
-1.85379e-07
-1.88113e-07
-1.9068e-07
-1.93104e-07
-1.95405e-07
-1.97598e-07
-1.99699e-07
-2.01717e-07
)
;
    }
    inandouthalf31
    {
        type            cyclic;
        value           nonuniform List<scalar> 
110
(
2.03662e-07
2.09734e-07
2.15945e-07
2.22302e-07
2.2881e-07
2.35477e-07
2.42308e-07
2.4931e-07
2.56488e-07
2.63848e-07
2.71395e-07
2.79136e-07
2.87077e-07
2.95222e-07
3.03577e-07
3.12148e-07
3.2094e-07
3.29958e-07
3.39209e-07
3.48696e-07
3.58425e-07
3.68402e-07
3.7863e-07
3.89116e-07
3.99862e-07
4.10875e-07
4.22156e-07
4.33711e-07
4.45543e-07
4.57654e-07
4.70047e-07
4.82722e-07
4.95682e-07
5.08925e-07
5.2245e-07
5.36256e-07
5.50337e-07
5.64688e-07
5.79302e-07
5.94169e-07
6.09276e-07
6.24608e-07
6.40147e-07
6.55869e-07
6.71747e-07
6.87751e-07
7.03841e-07
7.19974e-07
7.361e-07
7.5216e-07
7.68092e-07
7.83822e-07
7.99275e-07
8.14371e-07
8.29031e-07
8.43184e-07
8.56772e-07
8.69768e-07
8.82179e-07
8.94067e-07
9.0555e-07
9.16803e-07
9.28048e-07
9.39525e-07
9.5147e-07
9.64083e-07
9.77521e-07
9.9189e-07
1.00726e-06
1.02368e-06
1.04117e-06
1.05975e-06
1.07942e-06
1.1002e-06
1.12211e-06
1.14518e-06
1.16952e-06
1.19672e-06
1.22563e-06
1.25118e-06
1.27659e-06
1.3025e-06
1.32893e-06
1.35591e-06
1.38343e-06
1.41151e-06
1.44016e-06
1.46939e-06
1.49921e-06
1.52965e-06
1.56069e-06
1.59237e-06
1.62469e-06
1.65767e-06
1.69131e-06
1.72564e-06
1.76067e-06
1.79641e-06
1.83287e-06
1.87007e-06
1.90803e-06
1.94676e-06
1.98627e-06
2.02659e-06
2.06772e-06
2.10969e-06
2.15251e-06
2.1962e-06
2.24078e-06
2.28626e-06
)
;
    }
    inandouthalf32
    {
        type            cyclic;
        value           nonuniform List<scalar> 
110
(
-2.03662e-07
-2.09734e-07
-2.15945e-07
-2.22302e-07
-2.2881e-07
-2.35477e-07
-2.42308e-07
-2.4931e-07
-2.56488e-07
-2.63848e-07
-2.71395e-07
-2.79136e-07
-2.87077e-07
-2.95222e-07
-3.03577e-07
-3.12148e-07
-3.2094e-07
-3.29958e-07
-3.39209e-07
-3.48696e-07
-3.58425e-07
-3.68402e-07
-3.7863e-07
-3.89116e-07
-3.99862e-07
-4.10875e-07
-4.22156e-07
-4.33711e-07
-4.45543e-07
-4.57654e-07
-4.70047e-07
-4.82722e-07
-4.95682e-07
-5.08925e-07
-5.2245e-07
-5.36256e-07
-5.50337e-07
-5.64688e-07
-5.79302e-07
-5.94169e-07
-6.09276e-07
-6.24608e-07
-6.40147e-07
-6.55869e-07
-6.71747e-07
-6.87751e-07
-7.03841e-07
-7.19974e-07
-7.361e-07
-7.5216e-07
-7.68092e-07
-7.83822e-07
-7.99275e-07
-8.14371e-07
-8.29031e-07
-8.43184e-07
-8.56772e-07
-8.69768e-07
-8.82179e-07
-8.94067e-07
-9.0555e-07
-9.16803e-07
-9.28048e-07
-9.39525e-07
-9.5147e-07
-9.64083e-07
-9.77521e-07
-9.9189e-07
-1.00726e-06
-1.02368e-06
-1.04117e-06
-1.05975e-06
-1.07942e-06
-1.1002e-06
-1.12211e-06
-1.14518e-06
-1.16952e-06
-1.19672e-06
-1.22563e-06
-1.25118e-06
-1.27659e-06
-1.3025e-06
-1.32893e-06
-1.35591e-06
-1.38343e-06
-1.41151e-06
-1.44016e-06
-1.46939e-06
-1.49921e-06
-1.52965e-06
-1.56069e-06
-1.59237e-06
-1.62469e-06
-1.65767e-06
-1.69131e-06
-1.72564e-06
-1.76067e-06
-1.79641e-06
-1.83287e-06
-1.87007e-06
-1.90803e-06
-1.94676e-06
-1.98627e-06
-2.02659e-06
-2.06772e-06
-2.10969e-06
-2.15251e-06
-2.1962e-06
-2.24078e-06
-2.28626e-06
)
;
    }
    inandouthalf41
    {
        type            cyclic;
        value           nonuniform List<scalar> 
50
(
2.04644e-06
2.04644e-06
2.04644e-06
2.04644e-06
2.04644e-06
2.04644e-06
2.04644e-06
2.04644e-06
2.04644e-06
2.04644e-06
2.04644e-06
2.04644e-06
2.04644e-06
2.04644e-06
2.04644e-06
2.04644e-06
2.04644e-06
2.04644e-06
2.04644e-06
2.04644e-06
2.04644e-06
2.04644e-06
2.04644e-06
2.04644e-06
2.04644e-06
2.04644e-06
2.04644e-06
2.04644e-06
2.04644e-06
2.04644e-06
2.04644e-06
2.04644e-06
2.04644e-06
2.04644e-06
2.04644e-06
2.04644e-06
2.04644e-06
2.04644e-06
2.04644e-06
2.04644e-06
2.04644e-06
2.04644e-06
2.04644e-06
2.04644e-06
2.04644e-06
2.04644e-06
2.04644e-06
2.04644e-06
2.04644e-06
2.04644e-06
)
;
    }
    inandouthalf42
    {
        type            cyclic;
        value           nonuniform List<scalar> 
50
(
-2.04644e-06
-2.04644e-06
-2.04644e-06
-2.04644e-06
-2.04644e-06
-2.04644e-06
-2.04644e-06
-2.04644e-06
-2.04644e-06
-2.04644e-06
-2.04644e-06
-2.04644e-06
-2.04644e-06
-2.04644e-06
-2.04644e-06
-2.04644e-06
-2.04644e-06
-2.04644e-06
-2.04644e-06
-2.04644e-06
-2.04644e-06
-2.04644e-06
-2.04644e-06
-2.04644e-06
-2.04644e-06
-2.04644e-06
-2.04644e-06
-2.04644e-06
-2.04644e-06
-2.04644e-06
-2.04644e-06
-2.04644e-06
-2.04644e-06
-2.04644e-06
-2.04644e-06
-2.04644e-06
-2.04644e-06
-2.04644e-06
-2.04644e-06
-2.04644e-06
-2.04644e-06
-2.04644e-06
-2.04644e-06
-2.04644e-06
-2.04644e-06
-2.04644e-06
-2.04644e-06
-2.04644e-06
-2.04644e-06
-2.04644e-06
)
;
    }
    top
    {
        type            symmetryPlane;
        value           uniform 0;
    }
    walls
    {
        type            calculated;
        value           uniform 0;
    }
    frontAndBackPlanes
    {
        type            empty;
        value           nonuniform 0();
    }
}


// ************************************************************************* //
