/*--------------------------------*- C++ -*----------------------------------*\
| =========                 |                                                 |
| \\      /  F ield         | OpenFOAM: The Open Source CFD Toolbox           |
|  \\    /   O peration     | Version:  2.4.x                                 |
|   \\  /    A nd           | Web:      www.OpenFOAM.org                      |
|    \\/     M anipulation  |                                                 |
\*---------------------------------------------------------------------------*/
FoamFile
{
    version     2.0;
    format      ascii;
    class       volVectorField;
    location    "11.8";
    object      gradPf;
}
// * * * * * * * * * * * * * * * * * * * * * * * * * * * * * * * * * * * * * //

dimensions      [0 1 -2 0 0 0 0];

internalField   nonuniform List<vector> 
360
(
(0 72.5435 0)
(0 81.057 0)
(0 -0.0851031 0)
(0 -12.6761 0)
(-3.34406e-14 -5.21317 0)
(-3.34414e-14 -2.82368 0)
(-3.34423e-14 -3.62704 0)
(0 -4.12309 0)
(-3.34447e-14 -4.16433 0)
(0 -4.17075 0)
(-3.34472e-14 -4.15707 0)
(0 -4.14501 0)
(-3.34498e-14 -4.15136 0)
(0 -4.15825 0)
(0 -4.17559 0)
(0 -4.1928 0)
(0 -4.19965 0)
(-3.34563e-14 -4.20241 0)
(0 -4.22171 0)
(0 -4.22549 0)
(0 -4.22998 0)
(-1.67309e-14 -4.24966 0)
(0 -4.25439 0)
(0 -4.2646 0)
(0 -4.2753 0)
(-3.34675e-14 -4.27694 0)
(0 -4.29091 0)
(0 -4.30607 0)
(0 -4.30645 0)
(0 -4.31227 0)
(0 -4.3335 0)
(0 -4.3272 0)
(0 -4.34262 0)
(0 -4.35881 0)
(0 -4.35468 0)
(3.34828e-14 -4.36433 0)
(0 -4.37088 0)
(0 -4.3979 0)
(0 -4.38049 0)
(0 -4.39343 0)
(0 -4.42415 0)
(0 -4.39856 0)
(3.34945e-14 -4.42049 0)
(0 -4.43639 0)
(0 -4.4306 0)
(0 -4.45535 0)
(0 -4.441 0)
(0 -4.44058 0)
(0 -4.48458 0)
(0 -4.47124 0)
(1.67546e-14 -4.46594 0)
(0 -4.48688 0)
(0 -4.49363 0)
(0 -4.48942 0)
(0 -4.50561 0)
(0 -4.51004 0)
(0 -4.5104 0)
(0 -4.53018 0)
(0 -4.5091 0)
(0 -4.53347 0)
(0 -4.54122 0)
(0 -4.538 0)
(0 -4.55308 0)
(0 -4.5502 0)
(0 -4.55341 0)
(0 -4.55978 0)
(0 -4.5734 0)
(0 -4.57364 0)
(0 -4.5616 0)
(0 -4.57634 0)
(0 -4.60263 0)
(0 -4.58105 0)
(0 -4.58319 0)
(0 -4.60114 0)
(0 -4.60615 0)
(0 -4.60659 0)
(0 -4.59952 0)
(0 -4.61018 0)
(0 -4.61745 0)
(0 -4.61521 0)
(0 -4.61674 0)
(0 -4.62514 0)
(0 -4.62749 0)
(0 -4.63002 0)
(0 -4.63283 0)
(0 -4.63612 0)
(0 -4.63816 0)
(0 -4.6378 0)
(0 -4.6404 0)
(0 -4.64303 0)
(0 -4.6441 0)
(0 -4.64653 0)
(0 -4.64959 0)
(0 -4.65135 0)
(0 -4.6528 0)
(0 -4.65399 0)
(0 -4.65458 0)
(0 -4.65476 0)
(0 -4.65494 0)
(0 -4.655 0)
(0 -4.65481 0)
(0 -4.65453 0)
(0 -4.65396 0)
(0 -4.65286 0)
(0 -4.65123 0)
(0 -4.64905 0)
(0 -4.64626 0)
(0 -4.64286 0)
(0 -4.63885 0)
(0 -4.63415 0)
(0 -4.62875 0)
(0 -4.62259 0)
(0 -4.61567 0)
(0 -4.60797 0)
(0 -4.5995 0)
(0 -4.59028 0)
(0 -4.58034 0)
(0 -4.56972 0)
(0 -4.55846 0)
(0 -4.54656 0)
(0 -4.53395 0)
(0 -4.5204 0)
(0 -4.50556 0)
(0 -4.48908 0)
(0 -4.47092 0)
(0 -4.4516 0)
(0 -4.43221 0)
(0 -4.41358 0)
(0 -4.39484 0)
(0 -4.37278 0)
(0 -4.34525 0)
(0 -4.31966 0)
(0 -4.31557 0)
(0 -4.34364 0)
(0 -4.37805 0)
(0 -4.3828 0)
(0 -4.38035 0)
(0 -4.46088 0)
(0 -4.66136 0)
(0 -4.76321 0)
(0 -4.90684 0)
(0 -14.4398 0)
(0 -10.662 0)
(0 -0.270691 0)
(0 -3.76266 0)
(0 -7.2229 0)
(0 -9.65492 0)
(0 -6.11273 0)
(0 0 0)
(0 0 0)
(0 0 0)
(0 0 0)
(0 0 0)
(0 0 0)
(0 0 0)
(0 0 0)
(0 0 0)
(0 0 0)
(0 0 0)
(0 0 0)
(0 0 0)
(0 0 0)
(0 0 0)
(0 0 0)
(0 0 0)
(0 0 0)
(0 0 0)
(0 0 0)
(0 0 0)
(0 0 0)
(0 0 0)
(0 0 0)
(0 0 0)
(0 0 0)
(0 0 0)
(0 0 0)
(0 0 0)
(0 0 0)
(0 0 0)
(0 0 0)
(0 0 0)
(0 0 0)
(0 0 0)
(0 0 0)
(0 0 0)
(0 0 0)
(0 0 0)
(0 0 0)
(0 0 0)
(0 0 0)
(0 0 0)
(0 0 0)
(0 0 0)
(0 0 0)
(0 0 0)
(0 0 0)
(0 0 0)
(0 0 0)
(0 0 0)
(0 0 0)
(0 0 0)
(0 0 0)
(0 0 0)
(0 0 0)
(0 0 0)
(0 0 0)
(0 0 0)
(0 0 0)
(0 0 0)
(0 0 0)
(0 0 0)
(0 0 0)
(0 0 0)
(0 0 0)
(0 0 0)
(0 0 0)
(0 0 0)
(0 0 0)
(0 0 0)
(0 0 0)
(0 0 0)
(0 0 0)
(0 0 0)
(0 0 0)
(0 0 0)
(0 0 0)
(0 0 0)
(0 0 0)
(0 0 0)
(0 0 0)
(0 0 0)
(0 0 0)
(0 0 0)
(0 0 0)
(0 0 0)
(0 0 0)
(0 0 0)
(0 0 0)
(0 0 0)
(0 0 0)
(0 0 0)
(0 0 0)
(0 0 0)
(0 0 0)
(0 0 0)
(0 0 0)
(0 0 0)
(0 0 0)
(0 0 0)
(0 0 0)
(0 0 0)
(0 0 0)
(0 0 0)
(0 0 0)
(0 0 0)
(0 0 0)
(0 0 0)
(0 0 0)
(0 0 0)
(0 0 0)
(0 0 0)
(0 0 0)
(0 0 0)
(0 0 0)
(0 0 0)
(0 0 0)
(0 0 0)
(0 0 0)
(0 0 0)
(0 0 0)
(0 0 0)
(0 0 0)
(0 0 0)
(0 0 0)
(0 0 0)
(0 0 0)
(0 0 0)
(0 0 0)
(0 0 0)
(0 0 0)
(0 0 0)
(0 0 0)
(0 0 0)
(0 0 0)
(0 0 0)
(0 0 0)
(0 0 0)
(0 0 0)
(0 0 0)
(0 0 0)
(0 0 0)
(0 0 0)
(0 0 0)
(0 0 0)
(0 0 0)
(0 0 0)
(0 0 0)
(0 0 0)
(0 0 0)
(0 0 0)
(0 0 0)
(0 0 0)
(0 0 0)
(0 0 0)
(0 0 0)
(0 0 0)
(0 0 0)
(0 0 0)
(0 0 0)
(0 0 0)
(0 0 0)
(0 0 0)
(0 0 0)
(0 0 0)
(0 0 0)
(0 0 0)
(0 0 0)
(0 0 0)
(0 0 0)
(0 0 0)
(0 0 0)
(0 0 0)
(0 0 0)
(0 0 0)
(0 0 0)
(0 0 0)
(0 0 0)
(0 0 0)
(0 0 0)
(0 0 0)
(0 0 0)
(0 0 0)
(0 0 0)
(0 0 0)
(0 0 0)
(0 0 0)
(0 0 0)
(0 0 0)
(0 0 0)
(0 0 0)
(0 0 0)
(0 0 0)
(0 0 0)
(0 0 0)
(0 0 0)
(0 0 0)
(0 0 0)
(0 0 0)
(0 0 0)
(0 0 0)
(0 0 0)
(0 0 0)
(0 0 0)
(0 0 0)
(0 0 0)
(0 0 0)
(0 0 0)
(0 0 0)
(0 0 0)
(0 0 0)
)
;

boundaryField
{
    inandouthalf11
    {
        type            cyclic;
    }
    inandouthalf12
    {
        type            cyclic;
    }
    inandouthalf21
    {
        type            cyclic;
    }
    inandouthalf22
    {
        type            cyclic;
    }
    inandouthalf31
    {
        type            cyclic;
    }
    inandouthalf32
    {
        type            cyclic;
    }
    inandouthalf41
    {
        type            cyclic;
    }
    inandouthalf42
    {
        type            cyclic;
    }
    top
    {
        type            symmetryPlane;
    }
    walls
    {
        type            calculated;
        value           uniform (0 0 0);
    }
    frontAndBackPlanes
    {
        type            empty;
    }
}


// ************************************************************************* //
