/*--------------------------------*- C++ -*----------------------------------*\
| =========                 |                                                 |
| \\      /  F ield         | OpenFOAM: The Open Source CFD Toolbox           |
|  \\    /   O peration     | Version:  2.4.x                                 |
|   \\  /    A nd           | Web:      www.OpenFOAM.org                      |
|    \\/     M anipulation  |                                                 |
\*---------------------------------------------------------------------------*/
FoamFile
{
    version     2.0;
    format      ascii;
    class       volScalarField;
    location    "11.8";
    object      k;
}
// * * * * * * * * * * * * * * * * * * * * * * * * * * * * * * * * * * * * * //

dimensions      [0 2 -2 0 0 0 0];

internalField   nonuniform List<scalar> 
360
(
1e-20
1e-20
1e-20
1e-20
1e-20
1e-20
1e-20
1e-20
1e-20
1e-20
1e-20
1e-20
1e-20
1e-20
1e-20
1e-20
1e-20
1e-20
1e-20
1e-20
1e-20
1e-20
1e-20
1e-20
1e-20
1e-20
1e-20
1e-20
1e-20
1e-20
1e-20
1e-20
1e-20
1e-20
1e-20
1e-20
1e-20
1e-20
1e-20
1e-20
1e-20
1e-20
1e-20
1e-20
1e-20
1e-20
1e-20
1e-20
1e-20
1e-20
1e-20
1e-20
1e-20
1e-20
1e-20
1e-20
1e-20
1e-20
1e-20
1e-20
1e-20
1e-20
1e-20
1e-20
1e-20
1e-20
1e-20
1e-20
1e-20
1e-20
1e-20
1e-20
1e-20
1e-20
1e-20
1e-20
1e-20
1e-20
1e-20
1e-20
1e-20
1e-20
1e-20
1e-20
1e-20
1e-20
1e-20
1e-20
1e-20
1e-20
1e-20
1e-20
1e-20
1e-20
1e-20
1e-20
1e-20
1e-20
1e-20
1e-20
1e-20
1e-20
1e-20
1e-20
1e-20
1e-20
1e-20
1e-20
1e-20
1e-20
1e-20
1e-20
1e-20
1e-20
1e-20
1e-20
1e-20
1e-20
1e-20
1e-20
1e-20
1e-20
1e-20
1e-20
1e-20
1e-20
1e-20
1e-20
1e-20
1e-20
1e-20
1e-20
1e-20
1.11492e-20
6.88718e-20
6.14089e-19
6.02319e-18
6.4747e-17
7.68517e-16
1.01663e-14
1.51594e-13
2.58475e-12
5.18562e-11
1.19023e-09
3.20136e-08
1.03446e-06
3.80234e-05
0.000880329
0.00453446
0.00721369
0.00862363
0.00938306
0.00975858
0.00988907
0.00985873
0.00972003
0.00950631
0.00923895
0.0089321
0.00859558
0.0082367
0.00786131
0.0074744
0.00708051
0.00668391
0.00628874
0.00589915
0.00551926
0.00515321
0.00480507
0.00447864
0.00417727
0.00390358
0.00365926
0.00344499
0.00326041
0.0031042
0.00297428
0.00286804
0.00278262
0.00271516
0.00266292
0.00262347
0.00259465
0.00257463
0.00256188
0.00255512
0.00255328
0.0025555
0.00256105
0.00256936
0.00257991
0.0025923
0.00260619
0.00262129
0.00263733
0.00265412
0.00267147
0.00268921
0.00270721
0.00272535
0.00274369
0.00276233
0.00278117
0.00280011
0.00281905
0.00283789
0.00285653
0.00287485
0.00289275
0.00291011
0.00292681
0.00294273
0.00295775
0.00297173
0.00298455
0.00299606
0.00300612
0.00301458
0.00302131
0.00302614
0.00302892
0.00302949
0.00302771
0.0030234
0.0030164
0.00300655
0.00299368
0.00297765
0.00295828
0.00293543
0.00290893
0.00287865
0.00284444
0.00280618
0.00276374
0.00271701
0.00266591
0.00261036
0.00255031
0.00248575
0.00241666
0.0023431
0.00226514
0.0021829
0.00209655
0.00200633
0.00191254
0.00181553
0.00171575
0.00161374
0.00151011
0.00140557
0.00130093
0.00119708
0.00109498
0.00099564
0.000900067
0.00080924
0.000724032
0.000645142
0.000573034
0.000507888
0.000449576
0.000397685
0.000351568
0.000310423
0.000273377
0.000239565
0.000208199
0.00017861
0.000150289
0.000122907
9.63402e-05
7.07014e-05
4.64037e-05
2.43572e-05
6.72945e-06
4.50994e-07
7.49636e-09
9.40908e-11
1.10513e-12
1.2208e-14
1.26944e-16
1.24812e-18
1.88722e-20
1e-20
1e-20
1e-20
1e-20
1e-20
1e-20
1e-20
1e-20
1e-20
1e-20
1e-20
1e-20
1e-20
1e-20
1e-20
1e-20
1e-20
1e-20
1e-20
1e-20
1e-20
1e-20
1e-20
1e-20
1e-20
1e-20
1e-20
1e-20
1e-20
1e-20
1e-20
1e-20
1e-20
1e-20
1e-20
1e-20
1e-20
1e-20
1e-20
1e-20
1e-20
1e-20
1e-20
1e-20
1e-20
1e-20
1e-20
1e-20
1e-20
1e-20
1e-20
1e-20
1e-20
1e-20
1e-20
1e-20
1e-20
1e-20
1e-20
1e-20
1e-20
1e-20
1e-20
1e-20
1e-20
1e-20
1e-20
1e-20
1e-20
1e-20
1e-20
1e-20
1e-20
1e-20
)
;

boundaryField
{
    inandouthalf11
    {
        type            cyclic;
    }
    inandouthalf12
    {
        type            cyclic;
    }
    inandouthalf21
    {
        type            cyclic;
    }
    inandouthalf22
    {
        type            cyclic;
    }
    inandouthalf31
    {
        type            cyclic;
    }
    inandouthalf32
    {
        type            cyclic;
    }
    inandouthalf41
    {
        type            cyclic;
    }
    inandouthalf42
    {
        type            cyclic;
    }
    top
    {
        type            symmetryPlane;
    }
    walls
    {
        type            zeroGradient;
    }
    frontAndBackPlanes
    {
        type            empty;
    }
}


// ************************************************************************* //
