/*--------------------------------*- C++ -*----------------------------------*\
| =========                 |                                                 |
| \\      /  F ield         | OpenFOAM: The Open Source CFD Toolbox           |
|  \\    /   O peration     | Version:  2.4.x                                 |
|   \\  /    A nd           | Web:      www.OpenFOAM.org                      |
|    \\/     M anipulation  |                                                 |
\*---------------------------------------------------------------------------*/
FoamFile
{
    version     2.0;
    format      ascii;
    class       volScalarField;
    location    "11.8";
    object      k_0;
}
// * * * * * * * * * * * * * * * * * * * * * * * * * * * * * * * * * * * * * //

dimensions      [0 2 -2 0 0 0 0];

internalField   nonuniform List<scalar> 
360
(
1e-20
1e-20
1e-20
1e-20
1e-20
1e-20
1e-20
1e-20
1e-20
1e-20
1e-20
1e-20
1e-20
1e-20
1e-20
1e-20
1e-20
1e-20
1e-20
1e-20
1e-20
1e-20
1e-20
1e-20
1e-20
1e-20
1e-20
1e-20
1e-20
1e-20
1e-20
1e-20
1e-20
1e-20
1e-20
1e-20
1e-20
1e-20
1e-20
1e-20
1e-20
1e-20
1e-20
1e-20
1e-20
1e-20
1e-20
1e-20
1e-20
1e-20
1e-20
1e-20
1e-20
1e-20
1e-20
1e-20
1e-20
1e-20
1e-20
1e-20
1e-20
1e-20
1e-20
1e-20
1e-20
1e-20
1e-20
1e-20
1e-20
1e-20
1e-20
1e-20
1e-20
1e-20
1e-20
1e-20
1e-20
1e-20
1e-20
1e-20
1e-20
1e-20
1e-20
1e-20
1e-20
1e-20
1e-20
1e-20
1e-20
1e-20
1e-20
1e-20
1e-20
1e-20
1e-20
1e-20
1e-20
1e-20
1e-20
1e-20
1e-20
1e-20
1e-20
1e-20
1e-20
1e-20
1e-20
1e-20
1e-20
1e-20
1e-20
1e-20
1e-20
1e-20
1e-20
1e-20
1e-20
1e-20
1e-20
1e-20
1e-20
1e-20
1e-20
1e-20
1e-20
1e-20
1e-20
1e-20
1e-20
1e-20
1e-20
1e-20
1e-20
1.11409e-20
6.87705e-20
6.13143e-19
6.01374e-18
6.46455e-17
7.67333e-16
1.01511e-14
1.51377e-13
2.58117e-12
5.17879e-11
1.18881e-09
3.19817e-08
1.03362e-06
3.7997e-05
0.00087994
0.00453505
0.00721599
0.00862594
0.00938471
0.00975944
0.00988927
0.00985844
0.00971942
0.00950549
0.00923798
0.00893102
0.00859441
0.00823545
0.00785999
0.00747303
0.00707908
0.00668244
0.00628724
0.00589764
0.00551775
0.00515173
0.00480362
0.00447726
0.00417598
0.0039024
0.0036582
0.00344406
0.00325961
0.00310354
0.00297374
0.00286762
0.00278231
0.00271494
0.00266279
0.00262341
0.00259465
0.00257469
0.00256198
0.00255526
0.00255346
0.00255571
0.00256129
0.00256962
0.00258019
0.00259261
0.00260651
0.00262162
0.00263768
0.00265448
0.00267184
0.00268959
0.0027076
0.00272575
0.0027441
0.00276275
0.00278159
0.00280053
0.00281948
0.00283832
0.00285696
0.00287529
0.00289319
0.00291055
0.00292725
0.00294318
0.0029582
0.00297218
0.00298499
0.0029965
0.00300655
0.00301501
0.00302173
0.00302656
0.00302933
0.0030299
0.00302811
0.00302379
0.00301678
0.00300692
0.00299405
0.002978
0.00295862
0.00293575
0.00290924
0.00287895
0.00284472
0.00280644
0.00276398
0.00271724
0.00266612
0.00261056
0.00255049
0.0024859
0.0024168
0.00234322
0.00226523
0.00218297
0.00209661
0.00200637
0.00191255
0.00181553
0.00171573
0.0016137
0.00151006
0.00140551
0.00130086
0.001197
0.0010949
0.000995549
0.000899975
0.000809151
0.000723947
0.000645064
0.000572965
0.000507828
0.000449526
0.000397644
0.000351536
0.000310398
0.000273357
0.000239549
0.000208185
0.000178599
0.000150279
0.000122897
9.63295e-05
7.06904e-05
4.63927e-05
2.43466e-05
6.72262e-06
4.50098e-07
7.47812e-09
9.38552e-11
1.10229e-12
1.2176e-14
1.26604e-16
1.24472e-18
1.8842e-20
1e-20
1e-20
1e-20
1e-20
1e-20
1e-20
1e-20
1e-20
1e-20
1e-20
1e-20
1e-20
1e-20
1e-20
1e-20
1e-20
1e-20
1e-20
1e-20
1e-20
1e-20
1e-20
1e-20
1e-20
1e-20
1e-20
1e-20
1e-20
1e-20
1e-20
1e-20
1e-20
1e-20
1e-20
1e-20
1e-20
1e-20
1e-20
1e-20
1e-20
1e-20
1e-20
1e-20
1e-20
1e-20
1e-20
1e-20
1e-20
1e-20
1e-20
1e-20
1e-20
1e-20
1e-20
1e-20
1e-20
1e-20
1e-20
1e-20
1e-20
1e-20
1e-20
1e-20
1e-20
1e-20
1e-20
1e-20
1e-20
1e-20
1e-20
1e-20
1e-20
1e-20
1e-20
)
;

boundaryField
{
    inandouthalf11
    {
        type            cyclic;
    }
    inandouthalf12
    {
        type            cyclic;
    }
    inandouthalf21
    {
        type            cyclic;
    }
    inandouthalf22
    {
        type            cyclic;
    }
    inandouthalf31
    {
        type            cyclic;
    }
    inandouthalf32
    {
        type            cyclic;
    }
    inandouthalf41
    {
        type            cyclic;
    }
    inandouthalf42
    {
        type            cyclic;
    }
    top
    {
        type            symmetryPlane;
    }
    walls
    {
        type            zeroGradient;
    }
    frontAndBackPlanes
    {
        type            empty;
    }
}


// ************************************************************************* //
