/*--------------------------------*- C++ -*----------------------------------*\
| =========                 |                                                 |
| \\      /  F ield         | OpenFOAM: The Open Source CFD Toolbox           |
|  \\    /   O peration     | Version:  2.4.x                                 |
|   \\  /    A nd           | Web:      www.OpenFOAM.org                      |
|    \\/     M anipulation  |                                                 |
\*---------------------------------------------------------------------------*/
FoamFile
{
    version     2.0;
    format      ascii;
    class       surfaceScalarField;
    location    "11.8";
    object      phia_0;
}
// * * * * * * * * * * * * * * * * * * * * * * * * * * * * * * * * * * * * * //

dimensions      [0 3 -1 0 0 0 0];

internalField   nonuniform List<scalar> 
359
(
-8.21781e-15
-2.05561e-14
-3.22237e-14
-4.37605e-14
-5.59252e-14
-6.86588e-14
-8.17825e-14
-9.52497e-14
-1.09066e-13
-1.23238e-13
-1.37749e-13
-1.52563e-13
-1.67639e-13
-1.82933e-13
-1.98397e-13
-2.13989e-13
-2.29663e-13
-2.45374e-13
-2.61076e-13
-2.76731e-13
-2.92297e-13
-3.07742e-13
-3.23035e-13
-3.3815e-13
-3.53064e-13
-3.67759e-13
-3.82217e-13
-3.96431e-13
-4.10391e-13
-4.24093e-13
-4.37532e-13
-4.50713e-13
-4.63634e-13
-4.76304e-13
-4.88726e-13
-5.00908e-13
-5.12857e-13
-5.24584e-13
-5.36102e-13
-5.47413e-13
-5.58535e-13
-5.69477e-13
-5.80244e-13
-5.90855e-13
-6.01316e-13
-6.11637e-13
-6.2183e-13
-6.31899e-13
-6.41856e-13
-6.51714e-13
-6.61474e-13
-6.71149e-13
-6.80742e-13
-6.90264e-13
-6.99715e-13
-7.0911e-13
-7.18445e-13
-7.2773e-13
-7.36968e-13
-7.46159e-13
-7.55313e-13
-7.64429e-13
-7.73514e-13
-7.82568e-13
-7.91593e-13
-8.0059e-13
-8.09561e-13
-8.18508e-13
-8.27428e-13
-8.36321e-13
-8.45192e-13
-8.54042e-13
-8.62863e-13
-8.71663e-13
-8.80438e-13
-8.8919e-13
-8.97914e-13
-9.06609e-13
-9.15273e-13
-9.23904e-13
-9.32501e-13
-9.41062e-13
-9.49587e-13
-9.58074e-13
-9.66522e-13
-9.74927e-13
-9.83289e-13
-9.91604e-13
-9.99868e-13
-1.00808e-12
-1.01623e-12
-1.02433e-12
-1.03236e-12
-1.04033e-12
-1.04824e-12
-1.05608e-12
-1.06386e-12
-1.07156e-12
-1.0792e-12
-1.08676e-12
-1.09424e-12
-1.10164e-12
-1.10897e-12
-1.11622e-12
-1.1234e-12
-1.13049e-12
-1.13751e-12
-1.14445e-12
-1.15133e-12
-1.15813e-12
-1.16486e-12
-1.17152e-12
-1.17812e-12
-1.18465e-12
-1.19112e-12
-1.19752e-12
-1.20385e-12
-1.2101e-12
-1.21627e-12
-1.22235e-12
-1.22833e-12
-1.2342e-12
-1.23995e-12
-1.24559e-12
-1.25112e-12
-1.25655e-12
-1.2619e-12
-1.26721e-12
-1.27252e-12
-1.27788e-12
-1.28334e-12
-1.28889e-12
-1.29451e-12
-1.3001e-12
-1.30542e-12
-1.31013e-12
-1.31381e-12
-1.31625e-12
-1.31757e-12
-1.31814e-12
-1.31839e-12
-1.31836e-12
-1.31922e-12
-1.31955e-12
-1.31974e-12
-1.31966e-12
1.84002e-11
1.56466e-09
2.273e-09
2.35481e-09
2.69479e-09
3.47945e-09
4.60997e-09
5.94526e-09
7.36799e-09
8.80183e-09
1.02059e-08
1.15641e-08
1.28735e-08
1.41368e-08
1.5353e-08
1.65149e-08
1.76079e-08
1.86096e-08
1.94894e-08
2.02079e-08
2.07136e-08
2.09341e-08
2.076e-08
2.00445e-08
1.86581e-08
1.65871e-08
1.39712e-08
1.10285e-08
7.96105e-09
4.91473e-09
1.98113e-09
-7.88812e-10
-3.37116e-09
-5.75866e-09
-7.95379e-09
-9.96435e-09
-1.18009e-08
-1.34749e-08
-1.49982e-08
-1.63823e-08
-1.76381e-08
-1.87757e-08
-1.98047e-08
-2.07337e-08
-2.15709e-08
-2.23236e-08
-2.29988e-08
-2.36028e-08
-2.41414e-08
-2.46202e-08
-2.50441e-08
-2.54179e-08
-2.5746e-08
-2.60323e-08
-2.62809e-08
-2.64991e-08
-2.66889e-08
-2.6852e-08
-2.69902e-08
-2.71055e-08
-2.71997e-08
-2.72745e-08
-2.73314e-08
-2.73719e-08
-2.7397e-08
-2.74073e-08
-2.7403e-08
-2.73839e-08
-2.73492e-08
-2.72977e-08
-2.72278e-08
-2.71371e-08
-2.70233e-08
-2.68835e-08
-2.6715e-08
-2.65151e-08
-2.62819e-08
-2.60142e-08
-2.57113e-08
-2.53729e-08
-2.49989e-08
-2.45894e-08
-2.41452e-08
-2.36702e-08
-2.31749e-08
-2.26842e-08
-2.225e-08
-2.19477e-08
-2.17945e-08
-2.16233e-08
-2.11038e-08
-2.05285e-08
-2.01053e-08
-1.95143e-08
-1.87682e-08
-1.78813e-08
-1.68701e-08
-1.57531e-08
-1.45512e-08
-1.32889e-08
-1.19903e-08
-1.06622e-08
-9.37108e-09
-7.90898e-09
-6.42713e-09
-6.44509e-09
-8.08243e-08
-1.50717e-07
-1.58621e-07
-1.5849e-07
-1.58481e-07
-1.5846e-07
-1.58438e-07
-1.58415e-07
-1.58392e-07
-1.58369e-07
-1.58347e-07
-1.58328e-07
-1.58311e-07
-1.58296e-07
-1.58284e-07
-1.58275e-07
-1.58267e-07
-1.58262e-07
-1.58258e-07
-1.58255e-07
-1.58251e-07
-1.58248e-07
-1.58244e-07
-1.58237e-07
-1.58225e-07
-1.58199e-07
-1.58187e-07
-1.58187e-07
-1.58187e-07
-1.58187e-07
-1.58187e-07
-1.58187e-07
-1.58187e-07
-1.58187e-07
-1.58187e-07
-1.58187e-07
-1.58187e-07
-1.58187e-07
-1.58187e-07
-1.58187e-07
-1.58187e-07
-1.58187e-07
-1.58187e-07
-1.58187e-07
-1.58187e-07
-1.58187e-07
-1.58187e-07
-1.58187e-07
-1.58187e-07
-1.58187e-07
-1.58187e-07
-1.58187e-07
-1.58187e-07
-1.58187e-07
-1.58187e-07
-1.58187e-07
-1.58187e-07
-1.58187e-07
-1.58187e-07
-1.58187e-07
-1.58187e-07
-1.58187e-07
-1.58187e-07
-1.58187e-07
-1.58187e-07
-1.58187e-07
-1.58187e-07
-1.58187e-07
-1.58187e-07
-1.58187e-07
-1.58187e-07
-1.58187e-07
-1.58187e-07
-1.58187e-07
-1.58187e-07
-1.58187e-07
-1.58187e-07
-1.58187e-07
-1.58187e-07
-1.58187e-07
-1.58187e-07
-1.58187e-07
-1.58187e-07
-1.58187e-07
-1.58187e-07
-1.58187e-07
-1.58187e-07
-1.58187e-07
-1.58187e-07
-1.58187e-07
-1.58187e-07
-1.58187e-07
-1.58187e-07
-1.58187e-07
-1.58187e-07
-1.58187e-07
-1.58187e-07
-1.58187e-07
-1.58187e-07
-1.58187e-07
-1.58187e-07
-1.58187e-07
-1.58187e-07
-1.58187e-07
-1.58169e-07
-1.57463e-07
-1.32586e-07
)
;

boundaryField
{
    inandouthalf11
    {
        type            cyclic;
        value           nonuniform List<scalar> 
100
(
1.98477e-38
1.05441e-15
2.21205e-15
3.27969e-15
4.39815e-15
5.5946e-15
6.84194e-15
8.12762e-15
9.45199e-15
1.08164e-14
1.22205e-14
1.36617e-14
1.51366e-14
1.66409e-14
1.81703e-14
1.97205e-14
2.12869e-14
2.28651e-14
2.44505e-14
2.60388e-14
2.76259e-14
2.9208e-14
3.07817e-14
3.2344e-14
3.38922e-14
3.54239e-14
3.69372e-14
3.84306e-14
3.99029e-14
4.13533e-14
4.27811e-14
4.41861e-14
4.55682e-14
4.69277e-14
4.82649e-14
4.95803e-14
5.08745e-14
5.21483e-14
5.34028e-14
5.46386e-14
5.58569e-14
5.70586e-14
5.82447e-14
5.94162e-14
6.05743e-14
6.172e-14
6.28542e-14
6.39778e-14
6.50917e-14
6.6197e-14
6.72945e-14
6.8385e-14
6.94693e-14
7.05481e-14
7.1622e-14
7.26919e-14
7.37582e-14
7.48215e-14
7.58822e-14
7.69407e-14
7.79975e-14
7.90531e-14
8.01079e-14
8.11621e-14
8.22161e-14
8.32699e-14
8.43239e-14
8.5378e-14
8.64325e-14
8.74871e-14
8.85422e-14
8.9598e-14
9.06543e-14
9.17112e-14
9.27687e-14
9.38269e-14
9.48856e-14
9.59446e-14
9.70036e-14
9.80625e-14
9.91212e-14
1.00179e-13
1.01237e-13
1.02295e-13
1.03351e-13
1.04407e-13
1.05461e-13
1.06515e-13
1.07566e-13
1.08616e-13
1.09663e-13
1.10708e-13
1.11749e-13
1.12788e-13
1.13824e-13
1.14856e-13
1.15885e-13
1.16911e-13
1.17933e-13
1.1895e-13
)
;
    }
    inandouthalf12
    {
        type            cyclic;
        value           nonuniform List<scalar> 
100
(
-1.98477e-38
-1.05441e-15
-2.21205e-15
-3.27969e-15
-4.39815e-15
-5.5946e-15
-6.84194e-15
-8.12762e-15
-9.45199e-15
-1.08164e-14
-1.22205e-14
-1.36617e-14
-1.51366e-14
-1.66409e-14
-1.81703e-14
-1.97205e-14
-2.12869e-14
-2.28651e-14
-2.44505e-14
-2.60388e-14
-2.76259e-14
-2.9208e-14
-3.07817e-14
-3.2344e-14
-3.38922e-14
-3.54239e-14
-3.69372e-14
-3.84306e-14
-3.99029e-14
-4.13533e-14
-4.27811e-14
-4.41861e-14
-4.55682e-14
-4.69277e-14
-4.82649e-14
-4.95803e-14
-5.08745e-14
-5.21483e-14
-5.34028e-14
-5.46386e-14
-5.58569e-14
-5.70586e-14
-5.82447e-14
-5.94162e-14
-6.05743e-14
-6.172e-14
-6.28542e-14
-6.39778e-14
-6.50917e-14
-6.6197e-14
-6.72945e-14
-6.8385e-14
-6.94693e-14
-7.05481e-14
-7.1622e-14
-7.26919e-14
-7.37582e-14
-7.48215e-14
-7.58822e-14
-7.69407e-14
-7.79975e-14
-7.90531e-14
-8.01079e-14
-8.11621e-14
-8.22161e-14
-8.32699e-14
-8.43239e-14
-8.5378e-14
-8.64325e-14
-8.74871e-14
-8.85422e-14
-8.9598e-14
-9.06543e-14
-9.17112e-14
-9.27687e-14
-9.38269e-14
-9.48856e-14
-9.59446e-14
-9.70036e-14
-9.80625e-14
-9.91212e-14
-1.00179e-13
-1.01237e-13
-1.02295e-13
-1.03351e-13
-1.04407e-13
-1.05461e-13
-1.06515e-13
-1.07566e-13
-1.08616e-13
-1.09663e-13
-1.10708e-13
-1.11749e-13
-1.12788e-13
-1.13824e-13
-1.14856e-13
-1.15885e-13
-1.16911e-13
-1.17933e-13
-1.1895e-13
)
;
    }
    inandouthalf21
    {
        type            cyclic;
        value           nonuniform List<scalar> 
100
(
1.19964e-13
1.20974e-13
1.21979e-13
1.22981e-13
1.23978e-13
1.24972e-13
1.25962e-13
1.26949e-13
1.27934e-13
1.28917e-13
1.29898e-13
1.30878e-13
1.31859e-13
1.32839e-13
1.33821e-13
1.34804e-13
1.35788e-13
1.36774e-13
1.37761e-13
1.38749e-13
1.39737e-13
1.40724e-13
1.4171e-13
1.42695e-13
1.4368e-13
1.44668e-13
1.45663e-13
1.46673e-13
1.47708e-13
1.4878e-13
1.49905e-13
1.51092e-13
1.5235e-13
1.53672e-13
1.55027e-13
1.5634e-13
1.57497e-13
1.58379e-13
1.58933e-13
1.59211e-13
1.59329e-13
1.59396e-13
1.59477e-13
1.59656e-13
1.59764e-13
1.59848e-13
1.60027e-13
2.06154e-08
1.16771e-07
2.14968e-07
2.96572e-07
3.65948e-07
4.25686e-07
4.77686e-07
5.23348e-07
5.63735e-07
5.99677e-07
6.31834e-07
6.60733e-07
6.86797e-07
7.10364e-07
7.31702e-07
7.51025e-07
7.68505e-07
7.84283e-07
7.98477e-07
8.11192e-07
8.22529e-07
8.32587e-07
8.41469e-07
8.49286e-07
8.5616e-07
8.62212e-07
8.67554e-07
8.72285e-07
8.76486e-07
8.80223e-07
8.83552e-07
8.86519e-07
8.89163e-07
8.91518e-07
8.93614e-07
8.95478e-07
8.97132e-07
8.98597e-07
8.99891e-07
9.01031e-07
9.02031e-07
9.02904e-07
9.03663e-07
9.04318e-07
9.04879e-07
9.05355e-07
9.05754e-07
9.06084e-07
9.06352e-07
9.06563e-07
9.06724e-07
9.0684e-07
9.06917e-07
)
;
    }
    inandouthalf22
    {
        type            cyclic;
        value           nonuniform List<scalar> 
100
(
-1.19964e-13
-1.20974e-13
-1.21979e-13
-1.22981e-13
-1.23978e-13
-1.24972e-13
-1.25962e-13
-1.26949e-13
-1.27934e-13
-1.28917e-13
-1.29898e-13
-1.30878e-13
-1.31859e-13
-1.32839e-13
-1.33821e-13
-1.34804e-13
-1.35788e-13
-1.36774e-13
-1.37761e-13
-1.38749e-13
-1.39737e-13
-1.40724e-13
-1.4171e-13
-1.42695e-13
-1.4368e-13
-1.44668e-13
-1.45663e-13
-1.46673e-13
-1.47708e-13
-1.4878e-13
-1.49905e-13
-1.51092e-13
-1.5235e-13
-1.53672e-13
-1.55027e-13
-1.5634e-13
-1.57497e-13
-1.58379e-13
-1.58933e-13
-1.59211e-13
-1.59329e-13
-1.59396e-13
-1.59477e-13
-1.59656e-13
-1.59764e-13
-1.59848e-13
-1.60027e-13
-2.06154e-08
-1.16771e-07
-2.14968e-07
-2.96572e-07
-3.65948e-07
-4.25686e-07
-4.77686e-07
-5.23348e-07
-5.63735e-07
-5.99677e-07
-6.31834e-07
-6.60733e-07
-6.86797e-07
-7.10364e-07
-7.31702e-07
-7.51025e-07
-7.68505e-07
-7.84283e-07
-7.98477e-07
-8.11192e-07
-8.22529e-07
-8.32587e-07
-8.41469e-07
-8.49286e-07
-8.5616e-07
-8.62212e-07
-8.67554e-07
-8.72285e-07
-8.76486e-07
-8.80223e-07
-8.83552e-07
-8.86519e-07
-8.89163e-07
-8.91518e-07
-8.93614e-07
-8.95478e-07
-8.97132e-07
-8.98597e-07
-8.99891e-07
-9.01031e-07
-9.02031e-07
-9.02904e-07
-9.03663e-07
-9.04318e-07
-9.04879e-07
-9.05355e-07
-9.05754e-07
-9.06084e-07
-9.06352e-07
-9.06563e-07
-9.06724e-07
-9.0684e-07
-9.06917e-07
)
;
    }
    inandouthalf31
    {
        type            cyclic;
        value           nonuniform List<scalar> 
110
(
9.06961e-07
9.2538e-07
9.44144e-07
9.63259e-07
9.82733e-07
1.00257e-06
1.02279e-06
1.04339e-06
1.06439e-06
1.08579e-06
1.10759e-06
1.12982e-06
1.15249e-06
1.17559e-06
1.19914e-06
1.22315e-06
1.24764e-06
1.27261e-06
1.29808e-06
1.32405e-06
1.35053e-06
1.37755e-06
1.4051e-06
1.4332e-06
1.46187e-06
1.49112e-06
1.52095e-06
1.55138e-06
1.58243e-06
1.61411e-06
1.64643e-06
1.67942e-06
1.71308e-06
1.74743e-06
1.78249e-06
1.81831e-06
1.85477e-06
1.81857e-06
1.8498e-06
1.88133e-06
1.91333e-06
1.9458e-06
1.97877e-06
2.01226e-06
2.04628e-06
2.08088e-06
2.1161e-06
2.15186e-06
2.18847e-06
2.22556e-06
2.26397e-06
2.30268e-06
2.34242e-06
2.38407e-06
2.42669e-06
2.46936e-06
2.51384e-06
2.55967e-06
2.60699e-06
2.6559e-06
2.7065e-06
2.75887e-06
2.81305e-06
2.86919e-06
2.92718e-06
2.98706e-06
3.04886e-06
3.11254e-06
3.17807e-06
3.2454e-06
3.31449e-06
3.38529e-06
3.45774e-06
3.53175e-06
3.60723e-06
3.68407e-06
3.76212e-06
3.84085e-06
3.91956e-06
3.99917e-06
4.08034e-06
4.16316e-06
4.24767e-06
4.33388e-06
4.42185e-06
4.5116e-06
4.60317e-06
4.69661e-06
4.79193e-06
4.8892e-06
4.98844e-06
5.08969e-06
5.19299e-06
5.2984e-06
5.40594e-06
5.51567e-06
5.62762e-06
5.74185e-06
5.85839e-06
5.9773e-06
6.09862e-06
6.22241e-06
6.34871e-06
6.47757e-06
6.60905e-06
6.74319e-06
6.88006e-06
7.01971e-06
7.16219e-06
7.30756e-06
)
;
    }
    inandouthalf32
    {
        type            cyclic;
        value           nonuniform List<scalar> 
110
(
-9.06961e-07
-9.2538e-07
-9.44144e-07
-9.63259e-07
-9.82733e-07
-1.00257e-06
-1.02279e-06
-1.04339e-06
-1.06439e-06
-1.08579e-06
-1.10759e-06
-1.12982e-06
-1.15249e-06
-1.17559e-06
-1.19914e-06
-1.22315e-06
-1.24764e-06
-1.27261e-06
-1.29808e-06
-1.32405e-06
-1.35053e-06
-1.37755e-06
-1.4051e-06
-1.4332e-06
-1.46187e-06
-1.49112e-06
-1.52095e-06
-1.55138e-06
-1.58243e-06
-1.61411e-06
-1.64643e-06
-1.67942e-06
-1.71308e-06
-1.74743e-06
-1.78249e-06
-1.81831e-06
-1.85477e-06
-1.81857e-06
-1.8498e-06
-1.88133e-06
-1.91333e-06
-1.9458e-06
-1.97877e-06
-2.01226e-06
-2.04628e-06
-2.08088e-06
-2.1161e-06
-2.15186e-06
-2.18847e-06
-2.22556e-06
-2.26397e-06
-2.30268e-06
-2.34242e-06
-2.38407e-06
-2.42669e-06
-2.46936e-06
-2.51384e-06
-2.55967e-06
-2.60699e-06
-2.6559e-06
-2.7065e-06
-2.75887e-06
-2.81305e-06
-2.86919e-06
-2.92718e-06
-2.98706e-06
-3.04886e-06
-3.11254e-06
-3.17807e-06
-3.2454e-06
-3.31449e-06
-3.38529e-06
-3.45774e-06
-3.53175e-06
-3.60723e-06
-3.68407e-06
-3.76212e-06
-3.84085e-06
-3.91956e-06
-3.99917e-06
-4.08034e-06
-4.16316e-06
-4.24767e-06
-4.33388e-06
-4.42185e-06
-4.5116e-06
-4.60317e-06
-4.69661e-06
-4.79193e-06
-4.8892e-06
-4.98844e-06
-5.08969e-06
-5.19299e-06
-5.2984e-06
-5.40594e-06
-5.51567e-06
-5.62762e-06
-5.74185e-06
-5.85839e-06
-5.9773e-06
-6.09862e-06
-6.22241e-06
-6.34871e-06
-6.47757e-06
-6.60905e-06
-6.74319e-06
-6.88006e-06
-7.01971e-06
-7.16219e-06
-7.30756e-06
)
;
    }
    inandouthalf41
    {
        type            cyclic;
        value           nonuniform List<scalar> 
50
(
6.54101e-06
6.54101e-06
6.54101e-06
6.54101e-06
6.54101e-06
6.54101e-06
6.54101e-06
6.54101e-06
6.54101e-06
6.54101e-06
6.54101e-06
6.54101e-06
6.54101e-06
6.54101e-06
6.54101e-06
6.54101e-06
6.54101e-06
6.54101e-06
6.54101e-06
6.54101e-06
6.54101e-06
6.54101e-06
6.54101e-06
6.54101e-06
6.54101e-06
6.54101e-06
6.54101e-06
6.54101e-06
6.54101e-06
6.54101e-06
6.54101e-06
6.54101e-06
6.54101e-06
6.54101e-06
6.54101e-06
6.54101e-06
6.54101e-06
6.54101e-06
6.54101e-06
6.54101e-06
6.54101e-06
6.54101e-06
6.54101e-06
6.54101e-06
6.54101e-06
6.54101e-06
6.54101e-06
6.54101e-06
6.54095e-06
6.53957e-06
)
;
    }
    inandouthalf42
    {
        type            cyclic;
        value           nonuniform List<scalar> 
50
(
-6.54101e-06
-6.54101e-06
-6.54101e-06
-6.54101e-06
-6.54101e-06
-6.54101e-06
-6.54101e-06
-6.54101e-06
-6.54101e-06
-6.54101e-06
-6.54101e-06
-6.54101e-06
-6.54101e-06
-6.54101e-06
-6.54101e-06
-6.54101e-06
-6.54101e-06
-6.54101e-06
-6.54101e-06
-6.54101e-06
-6.54101e-06
-6.54101e-06
-6.54101e-06
-6.54101e-06
-6.54101e-06
-6.54101e-06
-6.54101e-06
-6.54101e-06
-6.54101e-06
-6.54101e-06
-6.54101e-06
-6.54101e-06
-6.54101e-06
-6.54101e-06
-6.54101e-06
-6.54101e-06
-6.54101e-06
-6.54101e-06
-6.54101e-06
-6.54101e-06
-6.54101e-06
-6.54101e-06
-6.54101e-06
-6.54101e-06
-6.54101e-06
-6.54101e-06
-6.54101e-06
-6.54101e-06
-6.54095e-06
-6.53957e-06
)
;
    }
    top
    {
        type            symmetryPlane;
        value           uniform 0;
    }
    walls
    {
        type            fixedValue;
        value           uniform 0;
    }
    frontAndBackPlanes
    {
        type            empty;
        value           nonuniform 0();
    }
}


// ************************************************************************* //
