/*--------------------------------*- C++ -*----------------------------------*\
| =========                 |                                                 |
| \\      /  F ield         | OpenFOAM: The Open Source CFD Toolbox           |
|  \\    /   O peration     | Version:  2.4.x                                 |
|   \\  /    A nd           | Web:      www.OpenFOAM.org                      |
|    \\/     M anipulation  |                                                 |
\*---------------------------------------------------------------------------*/
FoamFile
{
    version     2.0;
    format      ascii;
    class       surfaceScalarField;
    location    "11.8";
    object      phia;
}
// * * * * * * * * * * * * * * * * * * * * * * * * * * * * * * * * * * * * * //

dimensions      [0 3 -1 0 0 0 0];

internalField   nonuniform List<scalar> 
359
(
-8.21589e-15
-2.05513e-14
-3.22162e-14
-4.37502e-14
-5.59119e-14
-6.86424e-14
-8.1763e-14
-9.52271e-14
-1.0904e-13
-1.23209e-13
-1.37717e-13
-1.52528e-13
-1.67602e-13
-1.82892e-13
-1.98354e-13
-2.13943e-13
-2.29615e-13
-2.45323e-13
-2.61023e-13
-2.76677e-13
-2.92241e-13
-3.07684e-13
-3.22976e-13
-3.3809e-13
-3.53003e-13
-3.67697e-13
-3.82154e-13
-3.96368e-13
-4.10327e-13
-4.24028e-13
-4.37467e-13
-4.50648e-13
-4.63567e-13
-4.76238e-13
-4.88659e-13
-5.00841e-13
-5.12789e-13
-5.24516e-13
-5.36033e-13
-5.47344e-13
-5.58466e-13
-5.69407e-13
-5.80174e-13
-5.90784e-13
-6.01244e-13
-6.11565e-13
-6.21757e-13
-6.31825e-13
-6.41782e-13
-6.51639e-13
-6.61398e-13
-6.71072e-13
-6.80664e-13
-6.90184e-13
-6.99635e-13
-7.09028e-13
-7.18362e-13
-7.27646e-13
-7.36883e-13
-7.46072e-13
-7.55225e-13
-7.6434e-13
-7.73424e-13
-7.82476e-13
-7.91499e-13
-8.00495e-13
-8.09464e-13
-8.18409e-13
-8.27328e-13
-8.36219e-13
-8.45088e-13
-8.53936e-13
-8.62756e-13
-8.71554e-13
-8.80327e-13
-8.89078e-13
-8.978e-13
-9.06492e-13
-9.15154e-13
-9.23784e-13
-9.32379e-13
-9.40939e-13
-9.49461e-13
-9.57946e-13
-9.66392e-13
-9.74796e-13
-9.83156e-13
-9.91469e-13
-9.99731e-13
-1.00794e-12
-1.01609e-12
-1.02418e-12
-1.03222e-12
-1.04019e-12
-1.04809e-12
-1.05593e-12
-1.06371e-12
-1.07141e-12
-1.07904e-12
-1.0866e-12
-1.09408e-12
-1.10148e-12
-1.10881e-12
-1.11606e-12
-1.12323e-12
-1.13032e-12
-1.13734e-12
-1.14428e-12
-1.15115e-12
-1.15795e-12
-1.16468e-12
-1.17134e-12
-1.17794e-12
-1.18447e-12
-1.19094e-12
-1.19733e-12
-1.20366e-12
-1.20991e-12
-1.21608e-12
-1.22216e-12
-1.22814e-12
-1.23401e-12
-1.23976e-12
-1.2454e-12
-1.25092e-12
-1.25635e-12
-1.2617e-12
-1.26701e-12
-1.27232e-12
-1.27768e-12
-1.28313e-12
-1.28869e-12
-1.29431e-12
-1.29989e-12
-1.30522e-12
-1.30992e-12
-1.3136e-12
-1.31604e-12
-1.31736e-12
-1.31793e-12
-1.31818e-12
-1.31815e-12
-1.31901e-12
-1.31934e-12
-1.31953e-12
-1.31945e-12
1.83799e-11
1.56157e-09
2.27192e-09
2.35182e-09
2.68436e-09
3.46007e-09
4.58347e-09
5.91503e-09
7.33758e-09
8.77388e-09
1.01818e-08
1.15442e-08
1.28574e-08
1.41239e-08
1.53424e-08
1.65061e-08
1.76005e-08
1.86033e-08
1.94842e-08
2.02038e-08
2.07109e-08
2.09331e-08
2.07612e-08
2.00487e-08
1.86657e-08
1.65982e-08
1.3985e-08
1.10442e-08
7.97787e-09
4.93215e-09
1.99876e-09
-7.7118e-10
-3.35367e-09
-5.7414e-09
-7.93678e-09
-9.94762e-09
-1.17844e-08
-1.34587e-08
-1.49823e-08
-1.63667e-08
-1.76227e-08
-1.87606e-08
-1.97897e-08
-2.0719e-08
-2.15563e-08
-2.23093e-08
-2.29846e-08
-2.35888e-08
-2.41276e-08
-2.46066e-08
-2.50307e-08
-2.54046e-08
-2.57329e-08
-2.60194e-08
-2.62681e-08
-2.64865e-08
-2.66764e-08
-2.68397e-08
-2.69781e-08
-2.70935e-08
-2.71879e-08
-2.72628e-08
-2.732e-08
-2.73606e-08
-2.73859e-08
-2.73963e-08
-2.73922e-08
-2.73733e-08
-2.73389e-08
-2.72876e-08
-2.72179e-08
-2.71275e-08
-2.70139e-08
-2.68744e-08
-2.67061e-08
-2.65065e-08
-2.62736e-08
-2.60062e-08
-2.57035e-08
-2.53654e-08
-2.49917e-08
-2.45824e-08
-2.41385e-08
-2.36637e-08
-2.31686e-08
-2.26782e-08
-2.22443e-08
-2.19424e-08
-2.17893e-08
-2.16181e-08
-2.10996e-08
-2.05252e-08
-2.01029e-08
-1.95125e-08
-1.87672e-08
-1.78809e-08
-1.68703e-08
-1.57538e-08
-1.45524e-08
-1.32905e-08
-1.19922e-08
-1.06644e-08
-9.37328e-09
-7.91168e-09
-6.42924e-09
-6.45114e-09
-8.08406e-08
-1.5072e-07
-1.58621e-07
-1.5849e-07
-1.58481e-07
-1.5846e-07
-1.58439e-07
-1.58416e-07
-1.58392e-07
-1.58369e-07
-1.58347e-07
-1.58328e-07
-1.58311e-07
-1.58296e-07
-1.58284e-07
-1.58275e-07
-1.58267e-07
-1.58262e-07
-1.58258e-07
-1.58255e-07
-1.58251e-07
-1.58248e-07
-1.58244e-07
-1.58237e-07
-1.58225e-07
-1.58199e-07
-1.58187e-07
-1.58187e-07
-1.58187e-07
-1.58187e-07
-1.58187e-07
-1.58187e-07
-1.58187e-07
-1.58187e-07
-1.58187e-07
-1.58187e-07
-1.58187e-07
-1.58187e-07
-1.58187e-07
-1.58187e-07
-1.58187e-07
-1.58187e-07
-1.58187e-07
-1.58187e-07
-1.58187e-07
-1.58187e-07
-1.58187e-07
-1.58187e-07
-1.58187e-07
-1.58187e-07
-1.58187e-07
-1.58187e-07
-1.58187e-07
-1.58187e-07
-1.58187e-07
-1.58187e-07
-1.58187e-07
-1.58187e-07
-1.58187e-07
-1.58187e-07
-1.58187e-07
-1.58187e-07
-1.58187e-07
-1.58187e-07
-1.58187e-07
-1.58187e-07
-1.58187e-07
-1.58187e-07
-1.58187e-07
-1.58187e-07
-1.58187e-07
-1.58187e-07
-1.58187e-07
-1.58187e-07
-1.58187e-07
-1.58187e-07
-1.58187e-07
-1.58187e-07
-1.58187e-07
-1.58187e-07
-1.58187e-07
-1.58187e-07
-1.58187e-07
-1.58187e-07
-1.58187e-07
-1.58187e-07
-1.58187e-07
-1.58187e-07
-1.58187e-07
-1.58187e-07
-1.58187e-07
-1.58187e-07
-1.58187e-07
-1.58187e-07
-1.58187e-07
-1.58187e-07
-1.58187e-07
-1.58187e-07
-1.58187e-07
-1.58187e-07
-1.58187e-07
-1.58187e-07
-1.58187e-07
-1.58187e-07
-1.58169e-07
-1.57463e-07
-1.32587e-07
)
;

boundaryField
{
    inandouthalf11
    {
        type            cyclic;
        value           nonuniform List<scalar> 
100
(
1.98466e-38
1.0541e-15
2.21139e-15
3.27871e-15
4.39683e-15
5.59293e-15
6.83989e-15
8.1252e-15
9.4492e-15
1.08133e-14
1.22169e-14
1.36578e-14
1.51323e-14
1.66363e-14
1.81653e-14
1.97151e-14
2.12812e-14
2.28591e-14
2.44442e-14
2.60322e-14
2.76191e-14
2.9201e-14
3.07745e-14
3.23365e-14
3.38845e-14
3.5416e-14
3.69291e-14
3.84224e-14
3.98946e-14
4.13449e-14
4.27726e-14
4.41775e-14
4.55595e-14
4.69188e-14
4.8256e-14
4.95713e-14
5.08654e-14
5.21391e-14
5.33935e-14
5.46293e-14
5.58474e-14
5.7049e-14
5.8235e-14
5.94064e-14
6.05644e-14
6.171e-14
6.28441e-14
6.39676e-14
6.50813e-14
6.61865e-14
6.72839e-14
6.83743e-14
6.94584e-14
7.0537e-14
7.16108e-14
7.26805e-14
7.37467e-14
7.48098e-14
7.58704e-14
7.69287e-14
7.79853e-14
7.90407e-14
8.00952e-14
8.11493e-14
8.22031e-14
8.32567e-14
8.43104e-14
8.53644e-14
8.64186e-14
8.7473e-14
8.85279e-14
8.95834e-14
9.06395e-14
9.16961e-14
9.27534e-14
9.38114e-14
9.48698e-14
9.59285e-14
9.69873e-14
9.8046e-14
9.91044e-14
1.00162e-13
1.0122e-13
1.02277e-13
1.03333e-13
1.04389e-13
1.05443e-13
1.06496e-13
1.07548e-13
1.08597e-13
1.09644e-13
1.10688e-13
1.11729e-13
1.12768e-13
1.13803e-13
1.14836e-13
1.15864e-13
1.1689e-13
1.17911e-13
1.18929e-13
)
;
    }
    inandouthalf12
    {
        type            cyclic;
        value           nonuniform List<scalar> 
100
(
-1.98466e-38
-1.0541e-15
-2.21139e-15
-3.27871e-15
-4.39683e-15
-5.59293e-15
-6.83989e-15
-8.1252e-15
-9.4492e-15
-1.08133e-14
-1.22169e-14
-1.36578e-14
-1.51323e-14
-1.66363e-14
-1.81653e-14
-1.97151e-14
-2.12812e-14
-2.28591e-14
-2.44442e-14
-2.60322e-14
-2.76191e-14
-2.9201e-14
-3.07745e-14
-3.23365e-14
-3.38845e-14
-3.5416e-14
-3.69291e-14
-3.84224e-14
-3.98946e-14
-4.13449e-14
-4.27726e-14
-4.41775e-14
-4.55595e-14
-4.69188e-14
-4.8256e-14
-4.95713e-14
-5.08654e-14
-5.21391e-14
-5.33935e-14
-5.46293e-14
-5.58474e-14
-5.7049e-14
-5.8235e-14
-5.94064e-14
-6.05644e-14
-6.171e-14
-6.28441e-14
-6.39676e-14
-6.50813e-14
-6.61865e-14
-6.72839e-14
-6.83743e-14
-6.94584e-14
-7.0537e-14
-7.16108e-14
-7.26805e-14
-7.37467e-14
-7.48098e-14
-7.58704e-14
-7.69287e-14
-7.79853e-14
-7.90407e-14
-8.00952e-14
-8.11493e-14
-8.22031e-14
-8.32567e-14
-8.43104e-14
-8.53644e-14
-8.64186e-14
-8.7473e-14
-8.85279e-14
-8.95834e-14
-9.06395e-14
-9.16961e-14
-9.27534e-14
-9.38114e-14
-9.48698e-14
-9.59285e-14
-9.69873e-14
-9.8046e-14
-9.91044e-14
-1.00162e-13
-1.0122e-13
-1.02277e-13
-1.03333e-13
-1.04389e-13
-1.05443e-13
-1.06496e-13
-1.07548e-13
-1.08597e-13
-1.09644e-13
-1.10688e-13
-1.11729e-13
-1.12768e-13
-1.13803e-13
-1.14836e-13
-1.15864e-13
-1.1689e-13
-1.17911e-13
-1.18929e-13
)
;
    }
    inandouthalf21
    {
        type            cyclic;
        value           nonuniform List<scalar> 
100
(
1.19942e-13
1.20952e-13
1.21957e-13
1.22958e-13
1.23955e-13
1.24948e-13
1.25938e-13
1.26925e-13
1.2791e-13
1.28892e-13
1.29873e-13
1.30853e-13
1.31833e-13
1.32814e-13
1.33795e-13
1.34778e-13
1.35762e-13
1.36748e-13
1.37735e-13
1.38722e-13
1.3971e-13
1.40697e-13
1.41682e-13
1.42667e-13
1.43652e-13
1.44639e-13
1.45634e-13
1.46643e-13
1.47678e-13
1.48751e-13
1.49875e-13
1.51062e-13
1.5232e-13
1.53641e-13
1.54995e-13
1.56308e-13
1.57465e-13
1.58346e-13
1.58901e-13
1.59179e-13
1.59297e-13
1.59363e-13
1.59444e-13
1.59623e-13
1.59731e-13
1.59815e-13
1.59995e-13
2.0667e-08
1.1685e-07
2.15024e-07
2.96605e-07
3.65964e-07
4.25689e-07
4.77682e-07
5.23338e-07
5.63722e-07
5.99662e-07
6.31817e-07
6.60716e-07
6.8678e-07
7.10347e-07
7.31686e-07
7.51011e-07
7.68492e-07
7.84272e-07
7.98468e-07
8.11186e-07
8.22525e-07
8.32585e-07
8.41469e-07
8.4929e-07
8.56166e-07
8.6222e-07
8.67564e-07
8.72297e-07
8.76499e-07
8.80238e-07
8.83568e-07
8.86536e-07
8.89181e-07
8.91537e-07
8.93635e-07
8.95499e-07
8.97154e-07
8.9862e-07
8.99915e-07
9.01056e-07
9.02057e-07
9.02931e-07
9.0369e-07
9.04346e-07
9.04908e-07
9.05384e-07
9.05784e-07
9.06115e-07
9.06383e-07
9.06595e-07
9.06756e-07
9.06873e-07
9.0695e-07
)
;
    }
    inandouthalf22
    {
        type            cyclic;
        value           nonuniform List<scalar> 
100
(
-1.19942e-13
-1.20952e-13
-1.21957e-13
-1.22958e-13
-1.23955e-13
-1.24948e-13
-1.25938e-13
-1.26925e-13
-1.2791e-13
-1.28892e-13
-1.29873e-13
-1.30853e-13
-1.31833e-13
-1.32814e-13
-1.33795e-13
-1.34778e-13
-1.35762e-13
-1.36748e-13
-1.37735e-13
-1.38722e-13
-1.3971e-13
-1.40697e-13
-1.41682e-13
-1.42667e-13
-1.43652e-13
-1.44639e-13
-1.45634e-13
-1.46643e-13
-1.47678e-13
-1.48751e-13
-1.49875e-13
-1.51062e-13
-1.5232e-13
-1.53641e-13
-1.54995e-13
-1.56308e-13
-1.57465e-13
-1.58346e-13
-1.58901e-13
-1.59179e-13
-1.59297e-13
-1.59363e-13
-1.59444e-13
-1.59623e-13
-1.59731e-13
-1.59815e-13
-1.59995e-13
-2.0667e-08
-1.1685e-07
-2.15024e-07
-2.96605e-07
-3.65964e-07
-4.25689e-07
-4.77682e-07
-5.23338e-07
-5.63722e-07
-5.99662e-07
-6.31817e-07
-6.60716e-07
-6.8678e-07
-7.10347e-07
-7.31686e-07
-7.51011e-07
-7.68492e-07
-7.84272e-07
-7.98468e-07
-8.11186e-07
-8.22525e-07
-8.32585e-07
-8.41469e-07
-8.4929e-07
-8.56166e-07
-8.6222e-07
-8.67564e-07
-8.72297e-07
-8.76499e-07
-8.80238e-07
-8.83568e-07
-8.86536e-07
-8.89181e-07
-8.91537e-07
-8.93635e-07
-8.95499e-07
-8.97154e-07
-8.9862e-07
-8.99915e-07
-9.01056e-07
-9.02057e-07
-9.02931e-07
-9.0369e-07
-9.04346e-07
-9.04908e-07
-9.05384e-07
-9.05784e-07
-9.06115e-07
-9.06383e-07
-9.06595e-07
-9.06756e-07
-9.06873e-07
-9.0695e-07
)
;
    }
    inandouthalf31
    {
        type            cyclic;
        value           nonuniform List<scalar> 
110
(
9.06995e-07
9.25415e-07
9.4418e-07
9.63296e-07
9.82771e-07
1.00261e-06
1.02283e-06
1.04344e-06
1.06443e-06
1.08583e-06
1.10764e-06
1.12987e-06
1.15253e-06
1.17564e-06
1.19919e-06
1.22321e-06
1.2477e-06
1.27267e-06
1.29813e-06
1.32411e-06
1.35059e-06
1.37761e-06
1.40516e-06
1.43327e-06
1.46194e-06
1.49118e-06
1.52102e-06
1.55145e-06
1.5825e-06
1.61418e-06
1.64651e-06
1.6795e-06
1.71316e-06
1.74751e-06
1.78257e-06
1.81839e-06
1.85486e-06
1.81869e-06
1.84991e-06
1.88145e-06
1.91345e-06
1.94593e-06
1.9789e-06
2.01239e-06
2.04642e-06
2.08101e-06
2.11624e-06
2.15201e-06
2.18862e-06
2.22572e-06
2.26413e-06
2.30284e-06
2.34258e-06
2.38424e-06
2.42686e-06
2.46953e-06
2.51401e-06
2.55984e-06
2.60716e-06
2.65608e-06
2.70668e-06
2.75905e-06
2.81324e-06
2.86938e-06
2.92737e-06
2.98726e-06
3.04906e-06
3.11274e-06
3.17827e-06
3.24561e-06
3.3147e-06
3.38551e-06
3.45796e-06
3.53197e-06
3.60746e-06
3.6843e-06
3.76236e-06
3.84109e-06
3.91981e-06
3.99942e-06
4.0806e-06
4.16343e-06
4.24793e-06
4.33415e-06
4.42213e-06
4.51188e-06
4.60346e-06
4.6969e-06
4.79224e-06
4.88951e-06
4.98875e-06
5.09001e-06
5.19332e-06
5.29873e-06
5.40628e-06
5.51602e-06
5.62798e-06
5.74221e-06
5.85876e-06
5.97768e-06
6.09901e-06
6.2228e-06
6.34911e-06
6.47798e-06
6.60946e-06
6.74362e-06
6.8805e-06
7.02015e-06
7.16264e-06
7.30802e-06
)
;
    }
    inandouthalf32
    {
        type            cyclic;
        value           nonuniform List<scalar> 
110
(
-9.06995e-07
-9.25415e-07
-9.4418e-07
-9.63296e-07
-9.82771e-07
-1.00261e-06
-1.02283e-06
-1.04344e-06
-1.06443e-06
-1.08583e-06
-1.10764e-06
-1.12987e-06
-1.15253e-06
-1.17564e-06
-1.19919e-06
-1.22321e-06
-1.2477e-06
-1.27267e-06
-1.29813e-06
-1.32411e-06
-1.35059e-06
-1.37761e-06
-1.40516e-06
-1.43327e-06
-1.46194e-06
-1.49118e-06
-1.52102e-06
-1.55145e-06
-1.5825e-06
-1.61418e-06
-1.64651e-06
-1.6795e-06
-1.71316e-06
-1.74751e-06
-1.78257e-06
-1.81839e-06
-1.85486e-06
-1.81869e-06
-1.84991e-06
-1.88145e-06
-1.91345e-06
-1.94593e-06
-1.9789e-06
-2.01239e-06
-2.04642e-06
-2.08101e-06
-2.11624e-06
-2.15201e-06
-2.18862e-06
-2.22572e-06
-2.26413e-06
-2.30284e-06
-2.34258e-06
-2.38424e-06
-2.42686e-06
-2.46953e-06
-2.51401e-06
-2.55984e-06
-2.60716e-06
-2.65608e-06
-2.70668e-06
-2.75905e-06
-2.81324e-06
-2.86938e-06
-2.92737e-06
-2.98726e-06
-3.04906e-06
-3.11274e-06
-3.17827e-06
-3.24561e-06
-3.3147e-06
-3.38551e-06
-3.45796e-06
-3.53197e-06
-3.60746e-06
-3.6843e-06
-3.76236e-06
-3.84109e-06
-3.91981e-06
-3.99942e-06
-4.0806e-06
-4.16343e-06
-4.24793e-06
-4.33415e-06
-4.42213e-06
-4.51188e-06
-4.60346e-06
-4.6969e-06
-4.79224e-06
-4.88951e-06
-4.98875e-06
-5.09001e-06
-5.19332e-06
-5.29873e-06
-5.40628e-06
-5.51602e-06
-5.62798e-06
-5.74221e-06
-5.85876e-06
-5.97768e-06
-6.09901e-06
-6.2228e-06
-6.34911e-06
-6.47798e-06
-6.60946e-06
-6.74362e-06
-6.8805e-06
-7.02015e-06
-7.16264e-06
-7.30802e-06
)
;
    }
    inandouthalf41
    {
        type            cyclic;
        value           nonuniform List<scalar> 
50
(
6.54143e-06
6.54143e-06
6.54143e-06
6.54143e-06
6.54143e-06
6.54143e-06
6.54143e-06
6.54143e-06
6.54143e-06
6.54143e-06
6.54143e-06
6.54143e-06
6.54143e-06
6.54143e-06
6.54143e-06
6.54143e-06
6.54143e-06
6.54143e-06
6.54143e-06
6.54143e-06
6.54143e-06
6.54143e-06
6.54143e-06
6.54143e-06
6.54143e-06
6.54143e-06
6.54143e-06
6.54143e-06
6.54143e-06
6.54143e-06
6.54143e-06
6.54143e-06
6.54143e-06
6.54143e-06
6.54143e-06
6.54143e-06
6.54143e-06
6.54143e-06
6.54143e-06
6.54143e-06
6.54143e-06
6.54143e-06
6.54143e-06
6.54143e-06
6.54143e-06
6.54143e-06
6.54143e-06
6.54142e-06
6.54136e-06
6.53998e-06
)
;
    }
    inandouthalf42
    {
        type            cyclic;
        value           nonuniform List<scalar> 
50
(
-6.54143e-06
-6.54143e-06
-6.54143e-06
-6.54143e-06
-6.54143e-06
-6.54143e-06
-6.54143e-06
-6.54143e-06
-6.54143e-06
-6.54143e-06
-6.54143e-06
-6.54143e-06
-6.54143e-06
-6.54143e-06
-6.54143e-06
-6.54143e-06
-6.54143e-06
-6.54143e-06
-6.54143e-06
-6.54143e-06
-6.54143e-06
-6.54143e-06
-6.54143e-06
-6.54143e-06
-6.54143e-06
-6.54143e-06
-6.54143e-06
-6.54143e-06
-6.54143e-06
-6.54143e-06
-6.54143e-06
-6.54143e-06
-6.54143e-06
-6.54143e-06
-6.54143e-06
-6.54143e-06
-6.54143e-06
-6.54143e-06
-6.54143e-06
-6.54143e-06
-6.54143e-06
-6.54143e-06
-6.54143e-06
-6.54143e-06
-6.54143e-06
-6.54143e-06
-6.54143e-06
-6.54142e-06
-6.54136e-06
-6.53998e-06
)
;
    }
    top
    {
        type            symmetryPlane;
        value           uniform 0;
    }
    walls
    {
        type            fixedValue;
        value           uniform 0;
    }
    frontAndBackPlanes
    {
        type            empty;
        value           nonuniform 0();
    }
}


// ************************************************************************* //
