/*--------------------------------*- C++ -*----------------------------------*\
| =========                 |                                                 |
| \\      /  F ield         | OpenFOAM: The Open Source CFD Toolbox           |
|  \\    /   O peration     | Version:  2.4.x                                 |
|   \\  /    A nd           | Web:      www.OpenFOAM.org                      |
|    \\/     M anipulation  |                                                 |
\*---------------------------------------------------------------------------*/
FoamFile
{
    version     2.0;
    format      ascii;
    class       surfaceScalarField;
    location    "11.8";
    object      phib_0;
}
// * * * * * * * * * * * * * * * * * * * * * * * * * * * * * * * * * * * * * //

dimensions      [0 3 -1 0 0 0 0];

internalField   nonuniform List<scalar> 
359
(
1.29258e-14
3.23978e-14
5.07867e-14
6.89502e-14
8.81069e-14
1.08161e-13
1.28825e-13
1.50024e-13
1.71769e-13
1.9407e-13
2.169e-13
2.40203e-13
2.63915e-13
2.87962e-13
3.12274e-13
3.36782e-13
3.61413e-13
3.86096e-13
4.10761e-13
4.35346e-13
4.59784e-13
4.84028e-13
5.08027e-13
5.31739e-13
5.55131e-13
5.78171e-13
6.00834e-13
6.23106e-13
6.44975e-13
6.6643e-13
6.87468e-13
7.08096e-13
7.28306e-13
7.48119e-13
7.67535e-13
7.8657e-13
8.05233e-13
8.23541e-13
8.41515e-13
8.59159e-13
8.765e-13
8.93553e-13
9.10326e-13
9.26847e-13
9.43127e-13
9.59183e-13
9.75031e-13
9.90679e-13
1.00614e-12
1.02145e-12
1.0366e-12
1.0516e-12
1.06647e-12
1.08122e-12
1.09586e-12
1.1104e-12
1.12484e-12
1.1392e-12
1.15347e-12
1.16766e-12
1.18179e-12
1.19585e-12
1.20986e-12
1.22381e-12
1.23771e-12
1.25155e-12
1.26535e-12
1.2791e-12
1.2928e-12
1.30645e-12
1.32006e-12
1.33362e-12
1.34714e-12
1.3606e-12
1.37402e-12
1.3874e-12
1.40072e-12
1.41399e-12
1.42719e-12
1.44034e-12
1.45342e-12
1.46644e-12
1.47938e-12
1.49226e-12
1.50506e-12
1.51779e-12
1.53043e-12
1.54299e-12
1.55546e-12
1.56783e-12
1.5801e-12
1.59226e-12
1.60431e-12
1.61626e-12
1.62808e-12
1.63979e-12
1.65138e-12
1.66285e-12
1.67418e-12
1.68538e-12
1.69645e-12
1.70738e-12
1.71817e-12
1.72881e-12
1.73932e-12
1.74968e-12
1.75991e-12
1.76999e-12
1.77994e-12
1.78976e-12
1.79944e-12
1.80899e-12
1.81842e-12
1.82771e-12
1.83688e-12
1.84591e-12
1.85479e-12
1.86353e-12
1.87211e-12
1.88051e-12
1.88871e-12
1.89671e-12
1.90449e-12
1.91204e-12
1.91938e-12
1.92651e-12
1.93348e-12
1.94033e-12
1.94712e-12
1.95392e-12
1.96079e-12
1.96775e-12
1.97472e-12
1.98152e-12
1.98781e-12
1.99302e-12
1.99655e-12
1.998e-12
1.99745e-12
1.99551e-12
1.99271e-12
1.97923e-12
1.9706e-12
1.97071e-12
1.9654e-12
1.94945e-12
-2.00514e-11
-9.11684e-10
-7.86941e-10
-6.18628e-10
-5.73398e-10
-6.06995e-10
-6.59297e-10
-6.9329e-10
-6.95575e-10
-6.67891e-10
-6.1853e-10
-5.56811e-10
-4.9041e-10
-4.24667e-10
-3.62723e-10
-3.06193e-10
-2.55709e-10
-2.11325e-10
-1.7278e-10
-1.39644e-10
-1.11386e-10
-8.74038e-11
-6.70684e-11
-4.98845e-11
-3.56603e-11
-2.44131e-11
-1.602e-11
-1.00436e-11
-5.88989e-12
-3.02003e-12
-1.03121e-12
3.53734e-13
1.32061e-12
1.9939e-12
2.4579e-12
2.77062e-12
2.9726e-12
3.09269e-12
3.15174e-12
3.16504e-12
3.14395e-12
3.09702e-12
3.03076e-12
2.95016e-12
2.8591e-12
2.7606e-12
2.65704e-12
2.55028e-12
2.44183e-12
2.33284e-12
2.22428e-12
2.11687e-12
2.0112e-12
1.90775e-12
1.80688e-12
1.70691e-12
1.60823e-12
1.51119e-12
1.41611e-12
1.32331e-12
1.23308e-12
1.14568e-12
1.06136e-12
9.80333e-13
9.02791e-13
8.28879e-13
7.58705e-13
6.92327e-13
6.29763e-13
5.70985e-13
5.1593e-13
4.64509e-13
4.16612e-13
3.72118e-13
3.30906e-13
2.92861e-13
2.57875e-13
2.25845e-13
1.96673e-13
1.70251e-13
1.46448e-13
1.2509e-13
1.05923e-13
8.85978e-14
7.27039e-14
5.801e-14
4.50124e-14
3.49673e-14
2.84124e-14
2.39251e-14
1.98719e-14
1.61308e-14
1.28833e-14
1.0113e-14
7.79186e-15
5.88324e-15
4.34469e-15
3.13084e-15
2.19512e-15
1.49238e-15
9.80017e-16
6.1485e-16
3.69804e-16
2.01698e-16
1.01226e-16
5.27915e-17
9.76305e-17
1.24137e-17
1.17262e-17
1.10562e-17
1.03642e-17
9.68858e-18
8.99683e-18
8.32319e-18
7.64941e-18
7.00065e-18
6.37026e-18
5.78267e-18
5.23962e-18
4.74544e-18
4.28853e-18
3.86438e-18
3.46982e-18
3.10094e-18
2.75552e-18
2.432e-18
2.12796e-18
1.84864e-18
1.58983e-18
1.35445e-18
1.12533e-18
9.23057e-19
7.32294e-19
5.61289e-19
3.66751e-19
2.00203e-19
4.49779e-20
-6.51661e-20
-1.90896e-19
-2.60395e-19
-3.10859e-19
-3.22069e-19
-3.85608e-19
-4.03787e-19
-4.14871e-19
-3.68051e-19
-3.48905e-19
-2.86941e-19
-2.28323e-19
-1.70547e-19
-2.11145e-19
-2.22038e-19
-2.44065e-19
-2.40538e-19
-2.65084e-19
-2.71541e-19
-2.79165e-19
-2.70141e-19
-2.87668e-19
-2.92419e-19
-2.98036e-19
-2.86056e-19
-2.86468e-19
-2.71367e-19
-2.59043e-19
-2.40587e-19
-2.37335e-19
-2.31019e-19
-2.25977e-19
-2.16158e-19
-2.10016e-19
-2.00097e-19
-1.91208e-19
-1.805e-19
-1.73436e-19
-1.66069e-19
-1.58842e-19
-1.51346e-19
-1.46762e-19
-1.43864e-19
-1.45882e-19
-1.69751e-19
-2.11774e-19
-2.75217e-19
-3.43129e-19
-4.09489e-19
-4.8459e-19
-5.48587e-19
-6.14584e-19
-6.6297e-19
-7.56747e-19
-8.15753e-19
-8.75625e-19
-8.79707e-19
-9.39156e-19
-9.10034e-19
-8.88739e-19
-7.80011e-19
-8.85963e-19
-8.41555e-19
-7.95918e-19
-5.25682e-19
-3.97465e-19
-4.36172e-21
4.12217e-19
9.16647e-19
1.70254e-18
2.52012e-18
3.38315e-18
3.83222e-18
5.67017e-18
5.35701e-18
3.98533e-18
)
;

boundaryField
{
    inandouthalf11
    {
        type            cyclic;
        value           nonuniform List<scalar> 
100
(
5.41747e-11
5.38728e-11
5.38333e-11
5.38752e-11
5.38954e-11
5.39026e-11
5.39116e-11
5.39228e-11
5.39344e-11
5.39461e-11
5.3958e-11
5.39699e-11
5.39819e-11
5.3994e-11
5.40063e-11
5.40187e-11
5.40313e-11
5.40439e-11
5.40567e-11
5.40696e-11
5.40826e-11
5.40957e-11
5.41089e-11
5.41223e-11
5.41357e-11
5.41493e-11
5.41629e-11
5.41767e-11
5.41906e-11
5.42046e-11
5.42187e-11
5.42329e-11
5.42472e-11
5.42617e-11
5.42762e-11
5.4291e-11
5.43057e-11
5.43207e-11
5.43359e-11
5.43509e-11
5.43664e-11
5.43819e-11
5.43975e-11
5.44134e-11
5.44293e-11
5.44455e-11
5.44618e-11
5.44782e-11
5.44948e-11
5.45118e-11
5.45286e-11
5.45459e-11
5.45632e-11
5.45809e-11
5.45986e-11
5.46167e-11
5.46348e-11
5.46533e-11
5.46719e-11
5.46906e-11
5.47099e-11
5.47291e-11
5.47488e-11
5.47686e-11
5.47887e-11
5.4809e-11
5.48296e-11
5.48506e-11
5.48717e-11
5.48931e-11
5.49149e-11
5.49371e-11
5.49593e-11
5.49821e-11
5.50051e-11
5.50285e-11
5.50522e-11
5.50762e-11
5.51006e-11
5.51254e-11
5.51506e-11
5.51761e-11
5.52021e-11
5.52285e-11
5.52554e-11
5.52826e-11
5.53104e-11
5.53386e-11
5.53672e-11
5.53964e-11
5.54261e-11
5.54564e-11
5.54872e-11
5.55185e-11
5.55505e-11
5.55831e-11
5.56163e-11
5.56502e-11
5.56847e-11
5.572e-11
)
;
    }
    inandouthalf12
    {
        type            cyclic;
        value           nonuniform List<scalar> 
100
(
-5.41747e-11
-5.38728e-11
-5.38333e-11
-5.38752e-11
-5.38954e-11
-5.39026e-11
-5.39116e-11
-5.39228e-11
-5.39344e-11
-5.39461e-11
-5.3958e-11
-5.39699e-11
-5.39819e-11
-5.3994e-11
-5.40063e-11
-5.40187e-11
-5.40313e-11
-5.40439e-11
-5.40567e-11
-5.40696e-11
-5.40826e-11
-5.40957e-11
-5.41089e-11
-5.41223e-11
-5.41357e-11
-5.41493e-11
-5.41629e-11
-5.41767e-11
-5.41906e-11
-5.42046e-11
-5.42187e-11
-5.42329e-11
-5.42472e-11
-5.42617e-11
-5.42762e-11
-5.4291e-11
-5.43057e-11
-5.43207e-11
-5.43359e-11
-5.43509e-11
-5.43664e-11
-5.43819e-11
-5.43975e-11
-5.44134e-11
-5.44293e-11
-5.44455e-11
-5.44618e-11
-5.44782e-11
-5.44948e-11
-5.45118e-11
-5.45286e-11
-5.45459e-11
-5.45632e-11
-5.45809e-11
-5.45986e-11
-5.46167e-11
-5.46348e-11
-5.46533e-11
-5.46719e-11
-5.46906e-11
-5.47099e-11
-5.47291e-11
-5.47488e-11
-5.47686e-11
-5.47887e-11
-5.4809e-11
-5.48296e-11
-5.48506e-11
-5.48717e-11
-5.48931e-11
-5.49149e-11
-5.49371e-11
-5.49593e-11
-5.49821e-11
-5.50051e-11
-5.50285e-11
-5.50522e-11
-5.50762e-11
-5.51006e-11
-5.51254e-11
-5.51506e-11
-5.51761e-11
-5.52021e-11
-5.52285e-11
-5.52554e-11
-5.52826e-11
-5.53104e-11
-5.53386e-11
-5.53672e-11
-5.53964e-11
-5.54261e-11
-5.54564e-11
-5.54872e-11
-5.55185e-11
-5.55505e-11
-5.55831e-11
-5.56163e-11
-5.56502e-11
-5.56847e-11
-5.572e-11
)
;
    }
    inandouthalf21
    {
        type            cyclic;
        value           nonuniform List<scalar> 
100
(
5.5756e-11
5.57927e-11
5.58303e-11
5.58687e-11
5.59079e-11
5.59481e-11
5.59891e-11
5.60312e-11
5.60742e-11
5.61183e-11
5.61635e-11
5.62098e-11
5.62574e-11
5.63062e-11
5.63563e-11
5.64078e-11
5.64607e-11
5.65152e-11
5.65712e-11
5.6629e-11
5.66885e-11
5.67499e-11
5.68133e-11
5.68788e-11
5.69466e-11
5.70167e-11
5.70893e-11
5.71647e-11
5.7243e-11
5.73246e-11
5.74095e-11
5.74979e-11
5.75905e-11
5.76883e-11
5.77925e-11
5.79036e-11
5.8021e-11
5.81464e-11
5.82851e-11
5.84432e-11
5.86139e-11
5.88165e-11
6.02163e-11
6.00081e-11
6.02653e-11
6.07566e-11
1.243e-10
2.33992e-08
1.27601e-07
2.24828e-07
3.05081e-07
3.73193e-07
4.32032e-07
4.83437e-07
5.28742e-07
5.68973e-07
6.0494e-07
6.37295e-07
6.66565e-07
6.93178e-07
7.17479e-07
7.3975e-07
7.60217e-07
7.79061e-07
7.96428e-07
8.12432e-07
8.27163e-07
8.40691e-07
8.53069e-07
8.64337e-07
8.7453e-07
8.83678e-07
8.91816e-07
8.98984e-07
9.05233e-07
9.10625e-07
9.1523e-07
9.19127e-07
9.22394e-07
9.2511e-07
9.27349e-07
9.29178e-07
9.30656e-07
9.31834e-07
9.32757e-07
9.3346e-07
9.33975e-07
9.34327e-07
9.34538e-07
9.34624e-07
9.346e-07
9.3448e-07
9.34272e-07
9.33986e-07
9.3363e-07
9.33209e-07
9.32729e-07
9.32196e-07
9.31612e-07
9.30982e-07
)
;
    }
    inandouthalf22
    {
        type            cyclic;
        value           nonuniform List<scalar> 
100
(
-5.5756e-11
-5.57927e-11
-5.58303e-11
-5.58687e-11
-5.59079e-11
-5.59481e-11
-5.59891e-11
-5.60312e-11
-5.60742e-11
-5.61183e-11
-5.61635e-11
-5.62098e-11
-5.62574e-11
-5.63062e-11
-5.63563e-11
-5.64078e-11
-5.64607e-11
-5.65152e-11
-5.65712e-11
-5.6629e-11
-5.66885e-11
-5.67499e-11
-5.68133e-11
-5.68788e-11
-5.69466e-11
-5.70167e-11
-5.70893e-11
-5.71647e-11
-5.7243e-11
-5.73246e-11
-5.74095e-11
-5.74979e-11
-5.75905e-11
-5.76883e-11
-5.77925e-11
-5.79036e-11
-5.8021e-11
-5.81464e-11
-5.82851e-11
-5.84432e-11
-5.86139e-11
-5.88165e-11
-6.02163e-11
-6.00081e-11
-6.02653e-11
-6.07566e-11
-1.243e-10
-2.33992e-08
-1.27601e-07
-2.24828e-07
-3.05081e-07
-3.73193e-07
-4.32032e-07
-4.83437e-07
-5.28742e-07
-5.68973e-07
-6.0494e-07
-6.37295e-07
-6.66565e-07
-6.93178e-07
-7.17479e-07
-7.3975e-07
-7.60217e-07
-7.79061e-07
-7.96428e-07
-8.12432e-07
-8.27163e-07
-8.40691e-07
-8.53069e-07
-8.64337e-07
-8.7453e-07
-8.83678e-07
-8.91816e-07
-8.98984e-07
-9.05233e-07
-9.10625e-07
-9.1523e-07
-9.19127e-07
-9.22394e-07
-9.2511e-07
-9.27349e-07
-9.29178e-07
-9.30656e-07
-9.31834e-07
-9.32757e-07
-9.3346e-07
-9.33975e-07
-9.34327e-07
-9.34538e-07
-9.34624e-07
-9.346e-07
-9.3448e-07
-9.34272e-07
-9.33986e-07
-9.3363e-07
-9.33209e-07
-9.32729e-07
-9.32196e-07
-9.31612e-07
-9.30982e-07
)
;
    }
    inandouthalf31
    {
        type            cyclic;
        value           nonuniform List<scalar> 
110
(
9.30313e-07
9.48461e-07
9.66906e-07
9.85652e-07
1.0047e-06
1.02406e-06
1.04373e-06
1.06371e-06
1.084e-06
1.10462e-06
1.12555e-06
1.14681e-06
1.1684e-06
1.19032e-06
1.21257e-06
1.23515e-06
1.25807e-06
1.28134e-06
1.30494e-06
1.32889e-06
1.35319e-06
1.37784e-06
1.40284e-06
1.42819e-06
1.45391e-06
1.47998e-06
1.50642e-06
1.53323e-06
1.56041e-06
1.58796e-06
1.6159e-06
1.64422e-06
1.67292e-06
1.70203e-06
1.73153e-06
1.76145e-06
1.79178e-06
1.82254e-06
1.85373e-06
1.88538e-06
1.91749e-06
1.95008e-06
1.98317e-06
2.01678e-06
2.05093e-06
2.08565e-06
2.12098e-06
2.15694e-06
2.19358e-06
2.23096e-06
2.26911e-06
2.3081e-06
2.34801e-06
2.38891e-06
2.43087e-06
2.47401e-06
2.51841e-06
2.56418e-06
2.61143e-06
2.66026e-06
2.71077e-06
2.76306e-06
2.81718e-06
2.87318e-06
2.9311e-06
2.99094e-06
3.0527e-06
3.11635e-06
3.18187e-06
3.24921e-06
3.31834e-06
3.38918e-06
3.4617e-06
3.53579e-06
3.61139e-06
3.68836e-06
3.76654e-06
3.8456e-06
3.92458e-06
4.0043e-06
4.08558e-06
4.16851e-06
4.25312e-06
4.33944e-06
4.42752e-06
4.51739e-06
4.60908e-06
4.70263e-06
4.79808e-06
4.89547e-06
4.99484e-06
5.09622e-06
5.19966e-06
5.3052e-06
5.41288e-06
5.52275e-06
5.63484e-06
5.74922e-06
5.86591e-06
5.98497e-06
6.10645e-06
6.2304e-06
6.35686e-06
6.48588e-06
6.61753e-06
6.75185e-06
6.88889e-06
7.02872e-06
7.17138e-06
7.31694e-06
)
;
    }
    inandouthalf32
    {
        type            cyclic;
        value           nonuniform List<scalar> 
110
(
-9.30313e-07
-9.48461e-07
-9.66906e-07
-9.85652e-07
-1.0047e-06
-1.02406e-06
-1.04373e-06
-1.06371e-06
-1.084e-06
-1.10462e-06
-1.12555e-06
-1.14681e-06
-1.1684e-06
-1.19032e-06
-1.21257e-06
-1.23515e-06
-1.25807e-06
-1.28134e-06
-1.30494e-06
-1.32889e-06
-1.35319e-06
-1.37784e-06
-1.40284e-06
-1.42819e-06
-1.45391e-06
-1.47998e-06
-1.50642e-06
-1.53323e-06
-1.56041e-06
-1.58796e-06
-1.6159e-06
-1.64422e-06
-1.67292e-06
-1.70203e-06
-1.73153e-06
-1.76145e-06
-1.79178e-06
-1.82254e-06
-1.85373e-06
-1.88538e-06
-1.91749e-06
-1.95008e-06
-1.98317e-06
-2.01678e-06
-2.05093e-06
-2.08565e-06
-2.12098e-06
-2.15694e-06
-2.19358e-06
-2.23096e-06
-2.26911e-06
-2.3081e-06
-2.34801e-06
-2.38891e-06
-2.43087e-06
-2.47401e-06
-2.51841e-06
-2.56418e-06
-2.61143e-06
-2.66026e-06
-2.71077e-06
-2.76306e-06
-2.81718e-06
-2.87318e-06
-2.9311e-06
-2.99094e-06
-3.0527e-06
-3.11635e-06
-3.18187e-06
-3.24921e-06
-3.31834e-06
-3.38918e-06
-3.4617e-06
-3.53579e-06
-3.61139e-06
-3.68836e-06
-3.76654e-06
-3.8456e-06
-3.92458e-06
-4.0043e-06
-4.08558e-06
-4.16851e-06
-4.25312e-06
-4.33944e-06
-4.42752e-06
-4.51739e-06
-4.60908e-06
-4.70263e-06
-4.79808e-06
-4.89547e-06
-4.99484e-06
-5.09622e-06
-5.19966e-06
-5.3052e-06
-5.41288e-06
-5.52275e-06
-5.63484e-06
-5.74922e-06
-5.86591e-06
-5.98497e-06
-6.10645e-06
-6.2304e-06
-6.35686e-06
-6.48588e-06
-6.61753e-06
-6.75185e-06
-6.88889e-06
-7.02872e-06
-7.17138e-06
-7.31694e-06
)
;
    }
    inandouthalf41
    {
        type            cyclic;
        value           nonuniform List<scalar> 
50
(
6.54941e-06
6.54941e-06
6.54941e-06
6.54941e-06
6.54941e-06
6.54941e-06
6.54941e-06
6.54941e-06
6.54941e-06
6.54941e-06
6.54941e-06
6.54941e-06
6.54941e-06
6.54941e-06
6.54941e-06
6.54941e-06
6.54941e-06
6.54941e-06
6.54941e-06
6.54941e-06
6.54941e-06
6.54941e-06
6.54941e-06
6.54941e-06
6.54941e-06
6.54941e-06
6.54941e-06
6.54941e-06
6.54941e-06
6.54941e-06
6.54941e-06
6.54941e-06
6.54941e-06
6.54941e-06
6.54941e-06
6.54941e-06
6.54941e-06
6.54941e-06
6.54941e-06
6.54941e-06
6.54941e-06
6.54941e-06
6.54941e-06
6.54941e-06
6.54941e-06
6.54941e-06
6.54941e-06
6.54941e-06
6.54941e-06
6.54941e-06
)
;
    }
    inandouthalf42
    {
        type            cyclic;
        value           nonuniform List<scalar> 
50
(
-6.54941e-06
-6.54941e-06
-6.54941e-06
-6.54941e-06
-6.54941e-06
-6.54941e-06
-6.54941e-06
-6.54941e-06
-6.54941e-06
-6.54941e-06
-6.54941e-06
-6.54941e-06
-6.54941e-06
-6.54941e-06
-6.54941e-06
-6.54941e-06
-6.54941e-06
-6.54941e-06
-6.54941e-06
-6.54941e-06
-6.54941e-06
-6.54941e-06
-6.54941e-06
-6.54941e-06
-6.54941e-06
-6.54941e-06
-6.54941e-06
-6.54941e-06
-6.54941e-06
-6.54941e-06
-6.54941e-06
-6.54941e-06
-6.54941e-06
-6.54941e-06
-6.54941e-06
-6.54941e-06
-6.54941e-06
-6.54941e-06
-6.54941e-06
-6.54941e-06
-6.54941e-06
-6.54941e-06
-6.54941e-06
-6.54941e-06
-6.54941e-06
-6.54941e-06
-6.54941e-06
-6.54941e-06
-6.54941e-06
-6.54941e-06
)
;
    }
    top
    {
        type            symmetryPlane;
        value           uniform 0;
    }
    walls
    {
        type            fixedValue;
        value           uniform 0;
    }
    frontAndBackPlanes
    {
        type            empty;
        value           nonuniform 0();
    }
}


// ************************************************************************* //
