/*--------------------------------*- C++ -*----------------------------------*\
| =========                 |                                                 |
| \\      /  F ield         | OpenFOAM: The Open Source CFD Toolbox           |
|  \\    /   O peration     | Version:  2.4.x                                 |
|   \\  /    A nd           | Web:      www.OpenFOAM.org                      |
|    \\/     M anipulation  |                                                 |
\*---------------------------------------------------------------------------*/
FoamFile
{
    version     2.0;
    format      ascii;
    class       volTensorField;
    location    "11.8";
    object      Taus;
}
// * * * * * * * * * * * * * * * * * * * * * * * * * * * * * * * * * * * * * //

dimensions      [0 2 -2 0 0 0 0];

internalField   nonuniform List<tensor> 
360
(
(0 -0.0286971 0 -0.0286971 -0.20504 0 0 0 0)
(0 -0.0424253 0 -0.0424253 -0.25936 0 0 0 0)
(0 -0.0511188 0 -0.0511188 -0.261974 0 0 0 0)
(0 -0.0495019 0 -0.0495019 -0.255495 0 0 0 0)
(3.28466e-17 -0.0481798 0 -0.0481798 -0.252871 0 0 0 0)
(1.55629e-17 -0.0481975 0 -0.0481975 -0.251807 0 0 0 0)
(3.00945e-17 -0.0483021 0 -0.0483021 -0.250397 0 0 0 0)
(0 -0.0482155 0 -0.0482155 -0.248708 0 0 0 0)
(5.64303e-17 -0.0480718 0 -0.0480718 -0.247019 0 0 0 0)
(0 -0.0479225 0 -0.0479225 -0.245331 0 0 0 0)
(5.29933e-17 -0.047772 0 -0.047772 -0.24364 0 0 0 0)
(0 -0.0476257 0 -0.0476257 -0.241961 0 0 0 0)
(5.02992e-17 -0.047478 0 -0.047478 -0.240278 0 0 0 0)
(0 -0.047328 0 -0.047328 -0.238596 0 0 0 0)
(0 -0.0471736 0 -0.0471736 -0.236911 0 0 0 0)
(0 -0.0470133 0 -0.0470133 -0.235219 0 0 0 0)
(0 -0.0468486 0 -0.0468486 -0.233525 0 0 0 0)
(4.65705e-17 -0.0466819 0 -0.0466819 -0.231831 0 0 0 0)
(0 -0.0465117 0 -0.0465117 -0.230136 0 0 0 0)
(0 -0.0463355 0 -0.0463355 -0.22843 0 0 0 0)
(0 -0.0461595 0 -0.0461595 -0.226735 0 0 0 0)
(9.19575e-17 -0.0459773 0 -0.0459773 -0.225029 0 0 0 0)
(0 -0.0457912 0 -0.0457912 -0.223322 0 0 0 0)
(0 -0.0456022 0 -0.0456022 -0.221614 0 0 0 0)
(0 -0.0454087 0 -0.0454087 -0.219903 0 0 0 0)
(9.3715e-17 -0.0452124 0 -0.0452124 -0.218189 0 0 0 0)
(0 -0.0450136 0 -0.0450136 -0.216478 0 0 0 0)
(0 -0.0448082 0 -0.0448082 -0.214758 0 0 0 0)
(0 -0.0446002 0 -0.0446002 -0.213039 0 0 0 0)
(0 -0.0443902 0 -0.0443902 -0.21132 0 0 0 0)
(0 -0.0441755 0 -0.0441755 -0.209599 0 0 0 0)
(0 -0.0439555 0 -0.0439555 -0.207867 0 0 0 0)
(0 -0.043737 0 -0.043737 -0.206153 0 0 0 0)
(0 -0.043508 0 -0.043508 -0.204413 0 0 0 0)
(0 -0.0432801 0 -0.0432801 -0.20269 0 0 0 0)
(-2.08222e-16 -0.0430477 0 -0.0430477 -0.200954 0 0 0 0)
(0 -0.0428138 0 -0.0428138 -0.199226 0 0 0 0)
(0 -0.0425729 0 -0.0425729 -0.19749 0 0 0 0)
(0 -0.0423279 0 -0.0423279 -0.195745 0 0 0 0)
(0 -0.0420873 0 -0.0420873 -0.194022 0 0 0 0)
(0 -0.0418341 0 -0.0418341 -0.192271 0 0 0 0)
(0 -0.0415814 0 -0.0415814 -0.190529 0 0 0 0)
(-2.21288e-16 -0.0413303 0 -0.0413303 -0.188798 0 0 0 0)
(0 -0.0410686 0 -0.0410686 -0.187042 0 0 0 0)
(0 -0.0408081 0 -0.0408081 -0.185303 0 0 0 0)
(0 -0.0405427 0 -0.0405427 -0.183555 0 0 0 0)
(0 -0.0402734 0 -0.0402734 -0.181799 0 0 0 0)
(0 -0.0400093 0 -0.0400093 -0.180062 0 0 0 0)
(0 -0.0397357 0 -0.0397357 -0.178309 0 0 0 0)
(0 -0.039455 0 -0.039455 -0.176544 0 0 0 0)
(-2.26044e-16 -0.0391812 0 -0.0391812 -0.174803 0 0 0 0)
(0 -0.0389005 0 -0.0389005 -0.173043 0 0 0 0)
(0 -0.0386174 0 -0.0386174 -0.171289 0 0 0 0)
(0 -0.0383315 0 -0.0383315 -0.169526 0 0 0 0)
(0 -0.0380467 0 -0.0380467 -0.167777 0 0 0 0)
(0 -0.0377536 0 -0.0377536 -0.166004 0 0 0 0)
(0 -0.0374646 0 -0.0374646 -0.164254 0 0 0 0)
(0 -0.037168 0 -0.037168 -0.162483 0 0 0 0)
(0 -0.0368729 0 -0.0368729 -0.16072 0 0 0 0)
(0 -0.0365792 0 -0.0365792 -0.158965 0 0 0 0)
(0 -0.0362755 0 -0.0362755 -0.157186 0 0 0 0)
(0 -0.035976 0 -0.035976 -0.155428 0 0 0 0)
(0 -0.0356707 0 -0.0356707 -0.153653 0 0 0 0)
(0 -0.0353655 0 -0.0353655 -0.151886 0 0 0 0)
(0 -0.035059 0 -0.035059 -0.150113 0 0 0 0)
(0 -0.0347519 0 -0.0347519 -0.148345 0 0 0 0)
(0 -0.0344407 0 -0.0344407 -0.14657 0 0 0 0)
(0 -0.0341272 0 -0.0341272 -0.144793 0 0 0 0)
(0 -0.0338154 0 -0.0338154 -0.143018 0 0 0 0)
(0 -0.0335049 0 -0.0335049 -0.14125 0 0 0 0)
(0 -0.0331855 0 -0.0331855 -0.139467 0 0 0 0)
(0 -0.032865 0 -0.032865 -0.137683 0 0 0 0)
(0 -0.0325509 0 -0.0325509 -0.135915 0 0 0 0)
(0 -0.0322298 0 -0.0322298 -0.134129 0 0 0 0)
(0 -0.0319076 0 -0.0319076 -0.132351 0 0 0 0)
(0 -0.0315822 0 -0.0315822 -0.130563 0 0 0 0)
(0 -0.0312598 0 -0.0312598 -0.128784 0 0 0 0)
(0 -0.030936 0 -0.030936 -0.127001 0 0 0 0)
(0 -0.030609 0 -0.030609 -0.125216 0 0 0 0)
(0 -0.0302811 0 -0.0302811 -0.123429 0 0 0 0)
(0 -0.0299539 0 -0.0299539 -0.121645 0 0 0 0)
(0 -0.0296245 0 -0.0296245 -0.119858 0 0 0 0)
(0 -0.0292932 0 -0.0292932 -0.11807 0 0 0 0)
(0 -0.0289614 0 -0.0289614 -0.116281 0 0 0 0)
(0 -0.0286283 0 -0.0286283 -0.114492 0 0 0 0)
(0 -0.0282944 0 -0.0282944 -0.112702 0 0 0 0)
(0 -0.0279591 0 -0.0279591 -0.110911 0 0 0 0)
(0 -0.0276237 0 -0.0276237 -0.10912 0 0 0 0)
(0 -0.0272878 0 -0.0272878 -0.107329 0 0 0 0)
(0 -0.0269508 0 -0.0269508 -0.105536 0 0 0 0)
(0 -0.0266131 0 -0.0266131 -0.103743 0 0 0 0)
(0 -0.0262747 0 -0.0262747 -0.10195 0 0 0 0)
(0 -0.0259351 0 -0.0259351 -0.100156 0 0 0 0)
(0 -0.0255945 0 -0.0255945 -0.0983613 0 0 0 0)
(0 -0.0252532 0 -0.0252532 -0.0965662 0 0 0 0)
(0 -0.0249112 0 -0.0249112 -0.0947705 0 0 0 0)
(0 -0.0245687 0 -0.0245687 -0.0929744 0 0 0 0)
(0 -0.0242258 0 -0.0242258 -0.091178 0 0 0 0)
(0 -0.0238826 0 -0.0238826 -0.0893814 0 0 0 0)
(0 -0.023539 0 -0.023539 -0.0875845 0 0 0 0)
(0 -0.0231952 0 -0.0231952 -0.0857873 0 0 0 0)
(0 -0.0228511 0 -0.0228511 -0.0839899 0 0 0 0)
(0 -0.0225067 0 -0.0225067 -0.0821922 0 0 0 0)
(0 -0.0221623 0 -0.0221623 -0.0803944 0 0 0 0)
(0 -0.021818 0 -0.021818 -0.0785964 0 0 0 0)
(0 -0.0214738 0 -0.0214738 -0.0767984 0 0 0 0)
(0 -0.0211301 0 -0.0211301 -0.0750003 0 0 0 0)
(0 -0.0207869 0 -0.0207869 -0.0732023 0 0 0 0)
(0 -0.0204445 0 -0.0204445 -0.0714045 0 0 0 0)
(0 -0.020103 0 -0.020103 -0.0696068 0 0 0 0)
(0 -0.0197626 0 -0.0197626 -0.0678094 0 0 0 0)
(0 -0.0194236 0 -0.0194236 -0.0660122 0 0 0 0)
(0 -0.0190861 0 -0.0190861 -0.0642154 0 0 0 0)
(0 -0.0187503 0 -0.0187503 -0.0624189 0 0 0 0)
(0 -0.0184164 0 -0.0184164 -0.0606228 0 0 0 0)
(0 -0.0180848 0 -0.0180848 -0.058827 0 0 0 0)
(0 -0.0177554 0 -0.0177554 -0.0570316 0 0 0 0)
(0 -0.0174285 0 -0.0174285 -0.0552364 0 0 0 0)
(0 -0.0171043 0 -0.0171043 -0.0534413 0 0 0 0)
(0 -0.0167829 0 -0.0167829 -0.0516462 0 0 0 0)
(0 -0.0164644 0 -0.0164644 -0.0498508 0 0 0 0)
(0 -0.0161492 0 -0.0161492 -0.048055 0 0 0 0)
(0 -0.0158375 0 -0.0158375 -0.0462583 0 0 0 0)
(0 -0.0155297 0 -0.0155297 -0.0444604 0 0 0 0)
(0 -0.0152264 0 -0.0152264 -0.042661 0 0 0 0)
(0 -0.0149279 0 -0.0149279 -0.0408595 0 0 0 0)
(0 -0.0146341 0 -0.0146341 -0.0390554 0 0 0 0)
(0 -0.0143441 0 -0.0143441 -0.0372481 0 0 0 0)
(0 -0.0140566 0 -0.0140566 -0.0354372 0 0 0 0)
(0 -0.0137711 0 -0.0137711 -0.0336226 0 0 0 0)
(0 -0.013488 0 -0.013488 -0.0318048 0 0 0 0)
(0 -0.0132068 0 -0.0132068 -0.0299848 0 0 0 0)
(0 -0.0129214 0 -0.0129214 -0.0281641 0 0 0 0)
(0 -0.0126175 0 -0.0126175 -0.0263432 0 0 0 0)
(0 -0.0122838 0 -0.0122838 -0.0245221 0 0 0 0)
(0 -0.0119262 0 -0.0119262 -0.0227013 0 0 0 0)
(0 -0.0115598 0 -0.0115598 -0.0208776 0 0 0 0)
(0 -0.0111836 0 -0.0111836 -0.019033 0 0 0 0)
(0 -0.0107813 0 -0.0107813 -0.017108 0 0 0 0)
(0 -0.0104069 0 -0.0104069 -0.0149112 0 0 0 0)
(0 -0.0104682 0 -0.0104682 -0.0115158 0 0 0 0)
(0 -0.00918281 0 -0.00918281 -0.0111559 0 0 0 0)
(0 -0.0036336 0 -0.0036336 -0.00750668 0 0 0 0)
(0 -0.00431665 0 -0.00431665 -0.00785013 0 0 0 0)
(0 -0.00510772 0 -0.00510772 -0.00368177 0 0 0 0)
(0 -0.00451127 0 -0.00451127 -0.000245125 0 0 0 0)
(0 -0.00246102 0 -0.00246102 1.06613e-05 0 0 0 0)
(0 -0.00204782 0 -0.00204782 2.02922e-05 0 0 0 0)
(0 -0.00301243 0 -0.00301243 1.71472e-05 0 0 0 0)
(0 -0.00293038 0 -0.00293038 1.4727e-06 0 0 0 0)
(0 -0.00258172 0 -0.00258172 5.26837e-06 0 0 0 0)
(0 -0.00235471 0 -0.00235471 1.34825e-05 0 0 0 0)
(0 -0.00222158 0 -0.00222158 2.20333e-05 0 0 0 0)
(0 -0.00217051 0 -0.00217051 2.93791e-05 0 0 0 0)
(0 -0.00219223 0 -0.00219223 3.61171e-05 0 0 0 0)
(0 -0.00228048 0 -0.00228048 4.2858e-05 0 0 0 0)
(0 -0.00243156 0 -0.00243156 5.02744e-05 0 0 0 0)
(0 -0.0026438 0 -0.0026438 5.90339e-05 0 0 0 0)
(0 -0.00291726 0 -0.00291726 6.9786e-05 0 0 0 0)
(0 -0.00325304 0 -0.00325304 8.30773e-05 0 0 0 0)
(0 -0.00365319 0 -0.00365319 9.91876e-05 0 0 0 0)
(0 -0.0041201 0 -0.0041201 0.000117943 0 0 0 0)
(0 -0.00465607 0 -0.00465607 0.000138458 0 0 0 0)
(0 -0.00526296 0 -0.00526296 0.000158692 0 0 0 0)
(0 -0.00594195 0 -0.00594195 0.000174759 0 0 0 0)
(0 -0.00669365 0 -0.00669365 0.000179644 0 0 0 0)
(0 -0.00751886 0 -0.00751886 0.000159979 0 0 0 0)
(0 -0.00842182 0 -0.00842182 8.82401e-05 0 0 0 0)
(0 -0.0094176 0 -0.0094176 -8.99049e-05 0 0 0 0)
(0 -0.0105401 0 -0.0105401 -0.000461672 0 0 0 0)
(0 -0.0118322 0 -0.0118322 -0.00112365 0 0 0 0)
(0 -0.0133038 0 -0.0133038 -0.00212161 0 0 0 0)
(0 -0.014884 0 -0.014884 -0.00339317 0 0 0 0)
(0 -0.0164323 0 -0.0164323 -0.00477854 0 0 0 0)
(0 -0.0178055 0 -0.0178055 -0.00610369 0 0 0 0)
(0 -0.0189106 0 -0.0189106 -0.00725363 0 0 0 0)
(0 -0.0197102 0 -0.0197102 -0.00818269 0 0 0 0)
(0 -0.0202047 0 -0.0202047 -0.00889023 0 0 0 0)
(0 -0.0204167 0 -0.0204167 -0.00939704 0 0 0 0)
(0 -0.020378 0 -0.020378 -0.00973126 0 0 0 0)
(0 -0.0201237 0 -0.0201237 -0.00992136 0 0 0 0)
(0 -0.0196875 0 -0.0196875 -0.00999311 0 0 0 0)
(0 -0.0191001 0 -0.0191001 -0.00996853 0 0 0 0)
(0 -0.0183886 0 -0.0183886 -0.0098659 0 0 0 0)
(0 -0.0175765 0 -0.0175765 -0.00970013 0 0 0 0)
(0 -0.0166834 0 -0.0166834 -0.00948328 0 0 0 0)
(0 -0.0157263 0 -0.0157263 -0.0092251 0 0 0 0)
(0 -0.0147192 0 -0.0147192 -0.00893347 0 0 0 0)
(0 -0.0136742 0 -0.0136742 -0.00861481 0 0 0 0)
(0 -0.0126013 0 -0.0126013 -0.00827441 0 0 0 0)
(0 -0.0115092 0 -0.0115092 -0.00791665 0 0 0 0)
(0 -0.0104054 0 -0.0104054 -0.00754524 0 0 0 0)
(0 -0.00929647 0 -0.00929647 -0.00716334 0 0 0 0)
(0 -0.00818818 0 -0.00818818 -0.00677372 0 0 0 0)
(0 -0.00708574 0 -0.00708574 -0.00637883 0 0 0 0)
(0 -0.00599393 0 -0.00599393 -0.0059809 0 0 0 0)
(0 -0.00491719 0 -0.00491719 -0.00558198 0 0 0 0)
(0 -0.00385976 0 -0.00385976 -0.00518396 0 0 0 0)
(0 -0.00282567 0 -0.00282567 -0.00478862 0 0 0 0)
(0 -0.00181888 0 -0.00181888 -0.00439756 0 0 0 0)
(0 -0.00084175 0 -0.00084175 -0.00401236 0 0 0 0)
(0 0.000120543 0 0.000120543 -0.00363238 0 0 0 0)
(3.63117e-15 0.0010852 0 0.0010852 -0.00325696 0 0 0 0)
(0 0.00205214 0 0.00205214 -0.00288851 0 0 0 0)
(0 0.00301969 0 0.00301969 -0.00252893 0 0 0 0)
(-3.9975e-15 0.00398609 0 0.00398609 -0.00217969 0 0 0 0)
(0 0.00494941 0 0.00494941 -0.00184146 0 0 0 0)
(4.27658e-15 0.00590761 0 0.00590761 -0.00151383 0 0 0 0)
(0 0.00685834 0 0.00685834 -0.00119493 0 0 0 0)
(-4.58608e-15 0.00779895 0 0.00779895 -0.000881098 0 0 0 0)
(0 0.00872634 0 0.00872634 -0.00056658 0 0 0 0)
(0 0.00963692 0 0.00963692 -0.000243367 0 0 0 0)
(0 0.0105265 0 0.0105265 9.88611e-05 0 0 0 0)
(-5.29153e-15 0.0113906 0 0.0113906 0.000472614 0 0 0 0)
(0 0.012224 0 0.012224 0.00089234 0 0 0 0)
(0 0.0130215 0 0.0130215 0.00137403 0 0 0 0)
(0 0.0137777 0 0.0137777 0.00193462 0 0 0 0)
(0 0.0144872 0 0.0144872 0.00259117 0 0 0 0)
(0 0.0151452 0 0.0151452 0.00335929 0 0 0 0)
(6.44902e-15 0.0157471 0 0.0157471 0.00425078 0 0 0 0)
(0 0.0162883 0 0.0162883 0.00526991 0 0 0 0)
(6.79993e-15 0.0167636 0 0.0167636 0.00640945 0 0 0 0)
(0 0.017166 0 0.017166 0.00764865 0 0 0 0)
(7.09182e-15 0.0174846 0 0.0174846 0.00895605 0 0 0 0)
(0 0.0177037 0 0.0177037 0.0102964 0 0 0 0)
(0 0.0178023 0 0.0178023 0.0116372 0 0 0 0)
(0 0.0177538 0 0.0177538 0.0129503 0 0 0 0)
(0 0.0175297 0 0.0175297 0.0142034 0 0 0 0)
(-7.30437e-15 0.0171058 0 0.0171058 0.0153368 0 0 0 0)
(-7.21443e-15 0.0164771 0 0.0164771 0.0162162 0 0 0 0)
(0 0.0156778 0 0.0156778 0.0165442 0 0 0 0)
(0 0.014784 0 0.014784 0.0157577 0 0 0 0)
(0 0.0138082 0 0.0138082 0.013171 0 0 0 0)
(0 0.0124577 0 0.0124577 0.00890428 0 0 0 0)
(0 0.0101576 0 0.0101576 0.00473121 0 0 0 0)
(0 0.00857734 0 0.00857734 0.00254306 0 0 0 0)
(0 0 0 0 0 0 0 0 0)
(0 0 0 0 0 0 0 0 0)
(0 0 0 0 0 0 0 0 0)
(0 0 0 0 0 0 0 0 0)
(0 0 0 0 0 0 0 0 0)
(0 0 0 0 0 0 0 0 0)
(0 0 0 0 0 0 0 0 0)
(0 0 0 0 0 0 0 0 0)
(0 0 0 0 0 0 0 0 0)
(0 0 0 0 0 0 0 0 0)
(0 0 0 0 0 0 0 0 0)
(0 0 0 0 -0 0 0 0 0)
(0 0 0 0 0 0 0 0 0)
(0 0 0 0 -0 0 0 0 0)
(0 0 0 0 0 0 0 0 0)
(0 0 0 0 -0 0 0 0 0)
(0 0 0 0 -0 0 0 0 0)
(0 0 0 0 -0 0 0 0 0)
(0 0 0 0 -0 0 0 0 0)
(0 0 0 0 0 0 0 0 0)
(0 0 0 0 0 0 0 0 0)
(0 0 0 0 0 0 0 0 0)
(0 0 0 0 0 0 0 0 0)
(0 0 0 0 0 0 0 0 0)
(0 0 0 0 0 0 0 0 0)
(0 0 0 0 0 0 0 0 0)
(0 0 0 0 0 0 0 0 0)
(0 0 0 0 0 0 0 0 0)
(0 -0 0 -0 0 0 0 0 0)
(0 -0 0 -0 0 0 0 0 0)
(-0 -0 0 -0 0 0 0 0 0)
(0 -0 0 -0 0 0 0 0 0)
(0 -0 0 -0 0 0 0 0 0)
(0 -0 0 -0 0 0 0 0 0)
(0 -0 0 -0 0 0 0 0 0)
(0 -0 0 -0 0 0 0 0 0)
(0 -0 0 -0 0 0 0 0 0)
(0 -0 0 -0 0 0 0 0 0)
(0 -0 0 -0 0 0 0 0 0)
(0 -0 0 -0 0 0 0 0 0)
(0 -0 0 -0 0 0 0 0 0)
(0 -0 0 -0 0 0 0 0 0)
(0 -0 0 -0 0 0 0 0 0)
(0 -0 0 -0 0 0 0 0 0)
(0 -0 0 -0 0 0 0 0 0)
(0 -0 0 -0 0 0 0 0 0)
(0 0 0 0 -0 0 0 0 0)
(0 0 0 0 0 0 0 0 0)
(0 0 0 0 -0 0 0 0 0)
(0 0 0 0 0 0 0 0 0)
(0 0 0 0 -0 0 0 0 0)
(0 0 0 0 0 0 0 0 0)
(0 0 0 0 -0 0 0 0 0)
(0 0 0 0 0 0 0 0 0)
(0 0 0 0 -0 0 0 0 0)
(0 0 0 0 0 0 0 0 0)
(0 0 0 0 -0 0 0 0 0)
(0 0 0 0 0 0 0 0 0)
(0 0 0 0 -0 0 0 0 0)
(0 -0 0 -0 0 0 0 0 0)
(0 0 0 0 -0 0 0 0 0)
(0 0 0 0 0 0 0 0 0)
(0 0 0 0 -0 0 0 0 0)
(0 -0 0 -0 0 0 0 0 0)
(0 0 0 0 -0 0 0 0 0)
(0 -0 0 -0 0 0 0 0 0)
(0 0 0 0 -0 0 0 0 0)
(0 -0 0 -0 0 0 0 0 0)
(0 -0 0 -0 -0 0 0 0 0)
(0 -0 0 -0 0 0 0 0 0)
(0 0 0 0 -0 0 0 0 0)
(0 0 0 0 0 0 0 0 0)
(0 0 0 0 -0 0 0 0 0)
(0 -0 0 -0 0 0 0 0 0)
(0 -0 0 -0 -0 0 0 0 0)
(0 -0 0 -0 0 0 0 0 0)
(0 0 0 0 -0 0 0 0 0)
(0 -0 0 -0 0 0 0 0 0)
(0 0 0 0 -0 0 0 0 0)
(0 -0 0 -0 0 0 0 0 0)
(0 0 0 0 -0 0 0 0 0)
(0 -0 0 -0 0 0 0 0 0)
(0 0 0 0 -0 0 0 0 0)
(0 -0 0 -0 0 0 0 0 0)
(0 0 0 0 -0 0 0 0 0)
(0 0 0 0 0 0 0 0 0)
(0 0 0 0 -0 0 0 0 0)
(0 -0 0 -0 0 0 0 0 0)
(0 0 0 0 -0 0 0 0 0)
(0 -0 0 -0 0 0 0 0 0)
(0 0 0 0 -0 0 0 0 0)
(0 -0 0 -0 0 0 0 0 0)
(0 0 0 0 -0 0 0 0 0)
(0 -0 0 -0 0 0 0 0 0)
(0 0 0 0 -0 0 0 0 0)
(0 -0 0 -0 0 0 0 0 0)
(0 0 0 0 -0 0 0 0 0)
(0 -0 0 -0 0 0 0 0 0)
(0 0 0 0 -0 0 0 0 0)
(0 -0 0 -0 0 0 0 0 0)
(0 0 0 0 -0 0 0 0 0)
(0 -0 0 -0 0 0 0 0 0)
(0 -0 0 -0 -0 0 0 0 0)
(0 -0 0 -0 0 0 0 0 0)
(0 -0 0 -0 -0 0 0 0 0)
(0 -0 0 -0 0 0 0 0 0)
(0 0 0 0 -0 0 0 0 0)
(0 0 0 0 0 0 0 0 0)
(0 0 0 0 -0 0 0 0 0)
(0 -0 0 -0 0 0 0 0 0)
(0 0 0 0 -0 0 0 0 0)
(0 -0 0 -0 0 0 0 0 0)
(0 -0 0 -0 -0 0 0 0 0)
(0 -0 0 -0 0 0 0 0 0)
(0 0 0 0 -0 0 0 0 0)
(0 0 0 0 0 0 0 0 0)
(0 0 0 0 -0 0 0 0 0)
(0 0 0 0 0 0 0 0 0)
(0 0 0 0 0 0 0 0 0)
(0 0 0 0 0 0 0 0 0)
(0 0 0 0 0 0 0 0 0)
(0 0 0 0 0 0 0 0 0)
(0 0 0 0 0 0 0 0 0)
(0 0 0 0 0 0 0 0 0)
)
;

boundaryField
{
    inandouthalf11
    {
        type            cyclic;
    }
    inandouthalf12
    {
        type            cyclic;
    }
    inandouthalf21
    {
        type            cyclic;
    }
    inandouthalf22
    {
        type            cyclic;
    }
    inandouthalf31
    {
        type            cyclic;
    }
    inandouthalf32
    {
        type            cyclic;
    }
    inandouthalf41
    {
        type            cyclic;
    }
    inandouthalf42
    {
        type            cyclic;
    }
    top
    {
        type            symmetryPlane;
    }
    walls
    {
        type            zeroGradient;
    }
    frontAndBackPlanes
    {
        type            empty;
    }
}


// ************************************************************************* //
