/*--------------------------------*- C++ -*----------------------------------*\
| =========                 |                                                 |
| \\      /  F ield         | OpenFOAM: The Open Source CFD Toolbox           |
|  \\    /   O peration     | Version:  2.4.x                                 |
|   \\  /    A nd           | Web:      www.OpenFOAM.org                      |
|    \\/     M anipulation  |                                                 |
\*---------------------------------------------------------------------------*/
FoamFile
{
    version     2.0;
    format      ascii;
    class       volScalarField;
    location    "11.8";
    object      Theta_0;
}
// * * * * * * * * * * * * * * * * * * * * * * * * * * * * * * * * * * * * * //

dimensions      [0 2 -2 0 0 0 0];

internalField   nonuniform List<scalar> 
360
(
6.66138e-21
6.6614e-21
6.6614e-21
6.6614e-21
6.6614e-21
6.6614e-21
6.6614e-21
6.6614e-21
6.6614e-21
6.6614e-21
6.6614e-21
6.6614e-21
6.6614e-21
6.6614e-21
6.6614e-21
6.6614e-21
6.6614e-21
6.6614e-21
6.6614e-21
6.6614e-21
6.6614e-21
6.66139e-21
6.66139e-21
6.66139e-21
6.66139e-21
6.66139e-21
6.66139e-21
6.66139e-21
6.66139e-21
6.66139e-21
6.66139e-21
6.66139e-21
6.66139e-21
6.66138e-21
6.66138e-21
6.66138e-21
6.66138e-21
6.66138e-21
6.66138e-21
6.66138e-21
6.66138e-21
6.66138e-21
6.66138e-21
6.66138e-21
6.66138e-21
6.66137e-21
6.66137e-21
6.66137e-21
6.66137e-21
6.66137e-21
6.66137e-21
6.66137e-21
6.66137e-21
6.66137e-21
6.66137e-21
6.66137e-21
6.66137e-21
6.66136e-21
6.66136e-21
6.66136e-21
6.66136e-21
6.66136e-21
6.66136e-21
6.66136e-21
6.66136e-21
6.66136e-21
6.66136e-21
6.66135e-21
6.66135e-21
6.66135e-21
6.66135e-21
6.66135e-21
6.66135e-21
6.66135e-21
6.66135e-21
6.66135e-21
6.66135e-21
6.66134e-21
6.66134e-21
6.66134e-21
6.66134e-21
6.66134e-21
6.66134e-21
6.66134e-21
6.66134e-21
6.66133e-21
6.66133e-21
6.66133e-21
6.66133e-21
6.66133e-21
6.66133e-21
6.66133e-21
6.66132e-21
6.66132e-21
6.66132e-21
6.66132e-21
6.66132e-21
6.66132e-21
6.66132e-21
6.66131e-21
6.66131e-21
6.66131e-21
6.66131e-21
6.66131e-21
6.6613e-21
6.6613e-21
6.6613e-21
6.6613e-21
6.6613e-21
6.66129e-21
6.66129e-21
6.66129e-21
6.66129e-21
6.66129e-21
6.66128e-21
6.66128e-21
6.66128e-21
6.66128e-21
6.66127e-21
6.66127e-21
6.66127e-21
6.66126e-21
6.66126e-21
6.66126e-21
6.66126e-21
6.66125e-21
6.66125e-21
6.66125e-21
6.66124e-21
6.66124e-21
6.66123e-21
6.66123e-21
6.66123e-21
7.40871e-21
4.56687e-20
4.07008e-19
3.99035e-18
4.28752e-17
5.08655e-16
6.72476e-15
1.00207e-13
1.70763e-12
3.43163e-11
8.30642e-10
4.42352e-08
2.77965e-06
5.64857e-05
0.000644419
0.00233179
0.00355866
0.00418796
0.00459124
0.00486361
0.0050548
0.0051891
0.00527752
0.00532479
0.00533338
0.00530585
0.00524506
0.00515515
0.00504082
0.00490713
0.00475923
0.00460214
0.0044406
0.00427887
0.00412061
0.00396871
0.00382522
0.00369118
0.00356684
0.0034518
0.00334538
0.00324688
0.00315563
0.00307106
0.00299264
0.00291988
0.00285233
0.00278955
0.00273113
0.0026767
0.00262588
0.00257835
0.00253379
0.0024919
0.00245242
0.0024151
0.00237971
0.00234602
0.00231386
0.00228303
0.00225337
0.00222473
0.00219697
0.00216996
0.00214358
0.00211773
0.0020923
0.00206721
0.00204213
0.00201672
0.00199091
0.00196463
0.00193781
0.00191035
0.00188218
0.00185323
0.0018234
0.00179262
0.00176081
0.00172788
0.00169375
0.00165832
0.00162152
0.00158324
0.00154339
0.00150187
0.00145856
0.00141335
0.00136611
0.00131669
0.00126491
0.00121058
0.00115346
0.00109329
0.00102972
0.000962341
0.000890642
0.000813941
0.000731315
0.000641437
0.000542246
0.000430117
0.000297123
0
0
0
0
0
0
0
0
0
0
0
0
0
0
0
0
0
0
0
0
0
0
0
0
0
0
0
0
0
0
0
0
0
0
0
0
0
0
0
0
0
0
0
0
0
0
0
0
0
0
0
0
0
0
0
0
0
0
0
0
0
0
0
0
0
0
0
0
0
0
0
0
0
0
0
0
0
0
0
0
0
0
0
0
0
0
0
0
0
0
0
0
0
0
0
0
0
0
0
0
0
0
0
0
0
0
0
0
0
0
0
0
0
0
0
0
0
0
0
0
0
0
0
0
)
;

boundaryField
{
    inandouthalf11
    {
        type            cyclic;
    }
    inandouthalf12
    {
        type            cyclic;
    }
    inandouthalf21
    {
        type            cyclic;
    }
    inandouthalf22
    {
        type            cyclic;
    }
    inandouthalf31
    {
        type            cyclic;
    }
    inandouthalf32
    {
        type            cyclic;
    }
    inandouthalf41
    {
        type            cyclic;
    }
    inandouthalf42
    {
        type            cyclic;
    }
    top
    {
        type            symmetryPlane;
    }
    walls
    {
        type            zeroGradient;
    }
    frontAndBackPlanes
    {
        type            empty;
    }
}


// ************************************************************************* //
