/*--------------------------------*- C++ -*----------------------------------*\
| =========                 |                                                 |
| \\      /  F ield         | OpenFOAM: The Open Source CFD Toolbox           |
|  \\    /   O peration     | Version:  2.4.x                                 |
|   \\  /    A nd           | Web:      www.OpenFOAM.org                      |
|    \\/     M anipulation  |                                                 |
\*---------------------------------------------------------------------------*/
FoamFile
{
    version     2.0;
    format      ascii;
    class       volVectorField;
    location    "11.8";
    object      Ua_0;
}
// * * * * * * * * * * * * * * * * * * * * * * * * * * * * * * * * * * * * * //

dimensions      [0 1 -1 0 0 0 0];

internalField   nonuniform List<vector> 
360
(
(-1.98477e-32 -1.01749e-31 0)
(-1.05441e-09 -3.76664e-09 0)
(-2.21205e-09 -6.76107e-09 0)
(-3.27969e-09 -9.46834e-09 0)
(-4.39815e-09 -1.24023e-08 0)
(-5.5946e-09 -1.55429e-08 0)
(-6.84194e-09 -1.87857e-08 0)
(-8.12762e-09 -2.21081e-08 0)
(-9.45199e-09 -2.5517e-08 0)
(-1.08164e-08 -2.9016e-08 0)
(-1.22205e-08 -3.2603e-08 0)
(-1.36617e-08 -3.62712e-08 0)
(-1.51366e-08 -4.00103e-08 0)
(-1.66409e-08 -4.38094e-08 0)
(-1.81703e-08 -4.76569e-08 0)
(-1.97205e-08 -5.15418e-08 0)
(-2.12869e-08 -5.54529e-08 0)
(-2.28651e-08 -5.93788e-08 0)
(-2.44505e-08 -6.3308e-08 0)
(-2.60388e-08 -6.72301e-08 0)
(-2.76259e-08 -7.1135e-08 0)
(-2.9208e-08 -7.50134e-08 0)
(-3.07817e-08 -7.88574e-08 0)
(-3.2344e-08 -8.266e-08 0)
(-3.38922e-08 -8.6415e-08 0)
(-3.54239e-08 -9.01172e-08 0)
(-3.69372e-08 -9.37621e-08 0)
(-3.84306e-08 -9.73467e-08 0)
(-3.99029e-08 -1.00869e-07 0)
(-4.13533e-08 -1.04327e-07 0)
(-4.27811e-08 -1.07719e-07 0)
(-4.41861e-08 -1.11047e-07 0)
(-4.55682e-08 -1.14309e-07 0)
(-4.69277e-08 -1.17508e-07 0)
(-4.82649e-08 -1.20644e-07 0)
(-4.95803e-08 -1.23719e-07 0)
(-5.08745e-08 -1.26735e-07 0)
(-5.21483e-08 -1.29694e-07 0)
(-5.34028e-08 -1.32599e-07 0)
(-5.46386e-08 -1.35452e-07 0)
(-5.58569e-08 -1.38255e-07 0)
(-5.70586e-08 -1.41013e-07 0)
(-5.82447e-08 -1.43726e-07 0)
(-5.94162e-08 -1.46397e-07 0)
(-6.05743e-08 -1.4903e-07 0)
(-6.172e-08 -1.51627e-07 0)
(-6.28542e-08 -1.54191e-07 0)
(-6.39778e-08 -1.56723e-07 0)
(-6.50917e-08 -1.59226e-07 0)
(-6.6197e-08 -1.61702e-07 0)
(-6.72945e-08 -1.64154e-07 0)
(-6.8385e-08 -1.66583e-07 0)
(-6.94693e-08 -1.68991e-07 0)
(-7.05481e-08 -1.7138e-07 0)
(-7.1622e-08 -1.73751e-07 0)
(-7.26919e-08 -1.76107e-07 0)
(-7.37582e-08 -1.78448e-07 0)
(-7.48215e-08 -1.80775e-07 0)
(-7.58822e-08 -1.8309e-07 0)
(-7.69407e-08 -1.85393e-07 0)
(-7.79975e-08 -1.87686e-07 0)
(-7.90531e-08 -1.8997e-07 0)
(-8.01079e-08 -1.92245e-07 0)
(-8.11621e-08 -1.94512e-07 0)
(-8.22161e-08 -1.96772e-07 0)
(-8.32699e-08 -1.99025e-07 0)
(-8.43239e-08 -2.0127e-07 0)
(-8.5378e-08 -2.0351e-07 0)
(-8.64325e-08 -2.05744e-07 0)
(-8.74871e-08 -2.0797e-07 0)
(-8.85422e-08 -2.10191e-07 0)
(-8.9598e-08 -2.12406e-07 0)
(-9.06543e-08 -2.14615e-07 0)
(-9.17112e-08 -2.16817e-07 0)
(-9.27687e-08 -2.19014e-07 0)
(-9.38269e-08 -2.21205e-07 0)
(-9.48856e-08 -2.2339e-07 0)
(-9.59446e-08 -2.25567e-07 0)
(-9.70036e-08 -2.27737e-07 0)
(-9.80625e-08 -2.29899e-07 0)
(-9.91212e-08 -2.32053e-07 0)
(-1.00179e-07 -2.34198e-07 0)
(-1.01237e-07 -2.36334e-07 0)
(-1.02295e-07 -2.3846e-07 0)
(-1.03351e-07 -2.40577e-07 0)
(-1.04407e-07 -2.42684e-07 0)
(-1.05461e-07 -2.4478e-07 0)
(-1.06515e-07 -2.46865e-07 0)
(-1.07566e-07 -2.48937e-07 0)
(-1.08616e-07 -2.50997e-07 0)
(-1.09663e-07 -2.53042e-07 0)
(-1.10708e-07 -2.55073e-07 0)
(-1.11749e-07 -2.5709e-07 0)
(-1.12788e-07 -2.59091e-07 0)
(-1.13824e-07 -2.61076e-07 0)
(-1.14856e-07 -2.63045e-07 0)
(-1.15885e-07 -2.64997e-07 0)
(-1.16911e-07 -2.66932e-07 0)
(-1.17933e-07 -2.6885e-07 0)
(-1.1895e-07 -2.70749e-07 0)
(-1.19964e-07 -2.72629e-07 0)
(-1.20974e-07 -2.7449e-07 0)
(-1.21979e-07 -2.76332e-07 0)
(-1.22981e-07 -2.78154e-07 0)
(-1.23978e-07 -2.79957e-07 0)
(-1.24972e-07 -2.81741e-07 0)
(-1.25962e-07 -2.83505e-07 0)
(-1.26949e-07 -2.8525e-07 0)
(-1.27934e-07 -2.86977e-07 0)
(-1.28917e-07 -2.88686e-07 0)
(-1.29898e-07 -2.90377e-07 0)
(-1.30878e-07 -2.92051e-07 0)
(-1.31859e-07 -2.93709e-07 0)
(-1.32839e-07 -2.9535e-07 0)
(-1.33821e-07 -2.96975e-07 0)
(-1.34804e-07 -2.98583e-07 0)
(-1.35788e-07 -3.00175e-07 0)
(-1.36774e-07 -3.01748e-07 0)
(-1.37761e-07 -3.03301e-07 0)
(-1.38749e-07 -3.04833e-07 0)
(-1.39737e-07 -3.06341e-07 0)
(-1.40724e-07 -3.07823e-07 0)
(-1.4171e-07 -3.09276e-07 0)
(-1.42695e-07 -3.10701e-07 0)
(-1.4368e-07 -3.12096e-07 0)
(-1.44668e-07 -3.13464e-07 0)
(-1.45663e-07 -3.14809e-07 0)
(-1.46673e-07 -3.16139e-07 0)
(-1.47708e-07 -3.17464e-07 0)
(-1.4878e-07 -3.18796e-07 0)
(-1.49905e-07 -3.20146e-07 0)
(-1.51092e-07 -3.21522e-07 0)
(-1.5235e-07 -3.22923e-07 0)
(-1.53672e-07 -3.24333e-07 0)
(-1.55027e-07 -3.25716e-07 0)
(-1.5634e-07 -3.26996e-07 0)
(-1.57497e-07 -3.28068e-07 0)
(-1.58379e-07 -3.28838e-07 0)
(-1.58933e-07 -3.2929e-07 0)
(-1.59211e-07 -3.29498e-07 0)
(-1.59329e-07 -3.29573e-07 0)
(-1.59396e-07 -3.29599e-07 0)
(-1.59477e-07 -3.29663e-07 0)
(-1.59656e-07 -3.29868e-07 0)
(-1.59764e-07 -3.29924e-07 0)
(-1.59848e-07 -3.29937e-07 0)
(-1.60027e-07 -3.29932e-07 0)
(-0.0206154 4.45436e-05 0)
(-0.116771 0.000579553 0)
(-0.214968 0.000597804 0)
(-0.296572 0.000625296 0)
(-0.365948 0.000755331 0)
(-0.425686 0.000999162 0)
(-0.477686 0.00131281 0)
(-0.523348 0.00166188 0)
(-0.563735 0.00202172 0)
(-0.599677 0.00237791 0)
(-0.631834 0.0027238 0)
(-0.660733 0.00305749 0)
(-0.686797 0.00337932 0)
(-0.710364 0.0036897 0)
(-0.731702 0.00398776 0)
(-0.751025 0.00427082 0)
(-0.768505 0.00453431 0)
(-0.784283 0.00477169 0)
(-0.798477 0.00497457 0)
(-0.811192 0.00513228 0)
(-0.822529 0.00522984 0)
(-0.832587 0.00524354 0)
(-0.841469 0.00513826 0)
(-0.849286 0.00487619 0)
(-0.85616 0.00443871 0)
(-0.862212 0.00384353 0)
(-0.867554 0.00313814 0)
(-0.872285 0.0023774 0)
(-0.876486 0.00160611 0)
(-0.880223 0.000854105 0)
(-0.883552 0.000138674 0)
(-0.886519 -0.000531479 0)
(-0.889163 -0.00115298 0)
(-0.891518 -0.00172557 0)
(-0.893614 -0.00225078 0)
(-0.895478 -0.00273102 0)
(-0.897132 -0.00316914 0)
(-0.898597 -0.00356811 0)
(-0.899891 -0.00393086 0)
(-0.901031 -0.00426021 0)
(-0.902031 -0.00455878 0)
(-0.902904 -0.00482904 0)
(-0.903663 -0.00507327 0)
(-0.904318 -0.00529356 0)
(-0.904879 -0.00549185 0)
(-0.905355 -0.00566993 0)
(-0.905754 -0.00582945 0)
(-0.906084 -0.00597193 0)
(-0.906352 -0.00609878 0)
(-0.906563 -0.00621131 0)
(-0.906724 -0.00631075 0)
(-0.90684 -0.00639821 0)
(-0.906917 -0.00647477 0)
(-0.906958 -0.0065414 0)
(-0.906968 -0.00659961 0)
(-0.90695 -0.00665047 0)
(-0.906904 -0.00669442 0)
(-0.906832 -0.00673194 0)
(-0.906737 -0.00676349 0)
(-0.90662 -0.00678954 0)
(-0.906483 -0.00681053 0)
(-0.906327 -0.00682689 0)
(-0.906154 -0.00683898 0)
(-0.905966 -0.0068471 0)
(-0.905764 -0.00685147 0)
(-0.905551 -0.0068522 0)
(-0.905327 -0.00684929 0)
(-0.905094 -0.00684261 0)
(-0.904854 -0.00683191 0)
(-0.904608 -0.00681682 0)
(-0.904357 -0.00679686 0)
(-0.904102 -0.00677143 0)
(-0.903844 -0.00673986 0)
(-0.903584 -0.00670144 0)
(-0.903323 -0.00665549 0)
(-0.903061 -0.00660142 0)
(-0.9028 -0.00653883 0)
(-0.902539 -0.00646748 0)
(-0.902279 -0.00638729 0)
(-0.902021 -0.0062982 0)
(-0.901766 -0.00620017 0)
(-0.901515 -0.0060932 0)
(-0.90127 -0.00597765 0)
(-0.901032 -0.00585502 0)
(-0.9008 -0.00572979 0)
(-0.900576 -0.00561219 0)
(-0.900357 -0.00551859 0)
(-0.90015 -0.00546035 0)
(-0.899972 -0.00542903 0)
(-0.899758 -0.00540228 0)
(-0.864647 -0.00509966 0)
(-0.861997 -0.00508869 0)
(-0.85925 -0.00495212 0)
(-0.85648 -0.00478576 0)
(-0.853689 -0.00458161 0)
(-0.850884 -0.00434441 0)
(-0.848069 -0.00407866 0)
(-0.845254 -0.00379172 0)
(-0.842444 -0.00343819 0)
(-0.83966 -0.00334177 0)
(-0.836866 -0.00236269 0)
(-0.834169 -0.00344085 0)
(-0.831434 -0.000555958 0)
(-0.828958 -0.0042878 0)
(-0.826357 0.00215757 0)
(-0.823896 -0.00673754 0)
(-0.821865 -0.032376 0)
(-0.819914 -0.0396869 0)
(-0.817732 -0.0396224 0)
(-0.815903 -0.0396224 0)
(-0.814249 -0.0396175 0)
(-0.812804 -0.0396123 0)
(-0.811581 -0.0396067 0)
(-0.81059 -0.039601 0)
(-0.809837 -0.0395952 0)
(-0.809315 -0.0395894 0)
(-0.809046 -0.0395844 0)
(-0.808975 -0.0395801 0)
(-0.809103 -0.0395758 0)
(-0.809414 -0.0395725 0)
(-0.809881 -0.0395699 0)
(-0.81048 -0.0395678 0)
(-0.811187 -0.0395662 0)
(-0.811976 -0.039565 0)
(-0.812822 -0.0395641 0)
(-0.8137 -0.0395633 0)
(-0.814583 -0.0395624 0)
(-0.815442 -0.0395614 0)
(-0.816244 -0.03956 0)
(-0.816956 -0.0395577 0)
(-0.817459 -0.0395529 0)
(-0.817616 -0.0395484 0)
(-0.817627 -0.0395469 0)
(-0.817627 -0.0395468 0)
(-0.817627 -0.0395468 0)
(-0.817627 -0.0395468 0)
(-0.817627 -0.0395468 0)
(-0.817627 -0.0395468 0)
(-0.817627 -0.0395468 0)
(-0.817627 -0.0395468 0)
(-0.817627 -0.0395468 0)
(-0.817627 -0.0395468 0)
(-0.817627 -0.0395468 0)
(-0.817627 -0.0395468 0)
(-0.817627 -0.0395468 0)
(-0.817627 -0.0395468 0)
(-0.817627 -0.0395468 0)
(-0.817627 -0.0395468 0)
(-0.817627 -0.0395468 0)
(-0.817627 -0.0395468 0)
(-0.817627 -0.0395468 0)
(-0.817627 -0.0395468 0)
(-0.817627 -0.0395468 0)
(-0.817627 -0.0395468 0)
(-0.817627 -0.0395468 0)
(-0.817627 -0.0395468 0)
(-0.817627 -0.0395468 0)
(-0.817627 -0.0395468 0)
(-0.817627 -0.0395468 0)
(-0.817627 -0.0395468 0)
(-0.817627 -0.0395468 0)
(-0.817627 -0.0395468 0)
(-0.817627 -0.0395468 0)
(-0.817627 -0.0395468 0)
(-0.817627 -0.0395468 0)
(-0.817627 -0.0395468 0)
(-0.817627 -0.0395468 0)
(-0.817627 -0.0395468 0)
(-0.817627 -0.0395468 0)
(-0.817627 -0.0395468 0)
(-0.817627 -0.0395468 0)
(-0.817627 -0.0395468 0)
(-0.817627 -0.0395468 0)
(-0.817627 -0.0395468 0)
(-0.817627 -0.0395468 0)
(-0.817627 -0.0395468 0)
(-0.817627 -0.0395468 0)
(-0.817627 -0.0395468 0)
(-0.817627 -0.0395468 0)
(-0.817627 -0.0395468 0)
(-0.817627 -0.0395468 0)
(-0.817627 -0.0395468 0)
(-0.817627 -0.0395468 0)
(-0.817627 -0.0395468 0)
(-0.817627 -0.0395468 0)
(-0.817627 -0.0395468 0)
(-0.817627 -0.0395468 0)
(-0.817627 -0.0395468 0)
(-0.817627 -0.0395468 0)
(-0.817627 -0.0395468 0)
(-0.817627 -0.0395468 0)
(-0.817627 -0.0395468 0)
(-0.817627 -0.0395468 0)
(-0.817627 -0.0395468 0)
(-0.817627 -0.0395468 0)
(-0.817627 -0.0395468 0)
(-0.817627 -0.0395468 0)
(-0.817627 -0.0395468 0)
(-0.817627 -0.0395468 0)
(-0.817627 -0.0395468 0)
(-0.817627 -0.0395468 0)
(-0.817627 -0.0395468 0)
(-0.817627 -0.0395468 0)
(-0.817627 -0.0395468 0)
(-0.817627 -0.0395468 0)
(-0.817627 -0.0395468 0)
(-0.817627 -0.0395468 0)
(-0.817627 -0.0395468 0)
(-0.817627 -0.0395468 0)
(-0.817627 -0.0395465 0)
(-0.817627 -0.0395381 0)
(-0.817619 -0.0391934 0)
(-0.817446 -0.0224936 0)
)
;

boundaryField
{
    inandouthalf11
    {
        type            cyclic;
    }
    inandouthalf12
    {
        type            cyclic;
    }
    inandouthalf21
    {
        type            cyclic;
    }
    inandouthalf22
    {
        type            cyclic;
    }
    inandouthalf31
    {
        type            cyclic;
    }
    inandouthalf32
    {
        type            cyclic;
    }
    inandouthalf41
    {
        type            cyclic;
    }
    inandouthalf42
    {
        type            cyclic;
    }
    top
    {
        type            symmetryPlane;
    }
    walls
    {
        type            fixedValue;
        value           uniform (0 0 0);
    }
    frontAndBackPlanes
    {
        type            empty;
    }
}


// ************************************************************************* //
