/*--------------------------------*- C++ -*----------------------------------*\
| =========                 |                                                 |
| \\      /  F ield         | OpenFOAM: The Open Source CFD Toolbox           |
|  \\    /   O peration     | Version:  2.4.x                                 |
|   \\  /    A nd           | Web:      www.OpenFOAM.org                      |
|    \\/     M anipulation  |                                                 |
\*---------------------------------------------------------------------------*/
FoamFile
{
    version     2.0;
    format      ascii;
    class       volScalarField;
    location    "5.3";
    object      k;
}
// * * * * * * * * * * * * * * * * * * * * * * * * * * * * * * * * * * * * * //

dimensions      [0 2 -2 0 0 0 0];

internalField   nonuniform List<scalar> 
360
(
1e-20
1e-20
1e-20
1e-20
1e-20
1e-20
1e-20
1e-20
1e-20
1e-20
1e-20
1e-20
1e-20
1e-20
1e-20
1e-20
1e-20
1e-20
1e-20
1e-20
1e-20
1e-20
1e-20
1e-20
1e-20
1e-20
1e-20
1e-20
1e-20
1e-20
1e-20
1e-20
1e-20
1e-20
1e-20
1e-20
1e-20
1e-20
1e-20
1e-20
1e-20
1e-20
1e-20
1e-20
1e-20
1e-20
1e-20
1e-20
1e-20
1e-20
1e-20
1e-20
1e-20
1e-20
1e-20
1e-20
1e-20
1e-20
1e-20
1e-20
1e-20
1e-20
1e-20
1e-20
1e-20
1e-20
1e-20
1e-20
1e-20
1e-20
1e-20
1e-20
1e-20
1e-20
1e-20
1e-20
1e-20
1e-20
1e-20
1e-20
1e-20
1e-20
1e-20
1e-20
1e-20
1e-20
1e-20
1e-20
1e-20
1e-20
1e-20
1e-20
1e-20
1e-20
1e-20
1e-20
1e-20
1e-20
1e-20
1e-20
1e-20
1e-20
1e-20
1e-20
1e-20
1e-20
1e-20
1e-20
1e-20
1e-20
1e-20
1e-20
1e-20
1e-20
1e-20
1e-20
1e-20
1e-20
1e-20
1e-20
1e-20
1e-20
1e-20
1e-20
1e-20
1e-20
1e-20
1e-20
1e-20
1e-20
1e-20
1e-20
2.29472e-20
1.07539e-19
5.65746e-19
3.21544e-18
2.00098e-17
1.38634e-16
1.08796e-15
9.82942e-15
1.0368e-13
1.29334e-12
1.93619e-11
3.52299e-10
7.86322e-09
2.17077e-07
7.36193e-06
0.000235611
0.00254723
0.00533462
0.00664016
0.00738787
0.00785699
0.00816552
0.00837329
0.00851275
0.00860237
0.00865328
0.00867268
0.00866564
0.00863594
0.00858658
0.00852002
0.00843833
0.00834325
0.00823629
0.00811875
0.00799177
0.00785634
0.00771332
0.0075635
0.00740757
0.00724615
0.00707981
0.00690908
0.00673442
0.00655629
0.00637512
0.0061913
0.00600524
0.0058173
0.00562787
0.00543732
0.00524603
0.00505438
0.00486276
0.00467157
0.00448123
0.00429216
0.0041048
0.00391959
0.00373702
0.00355754
0.00338166
0.00320988
0.00304271
0.00288066
0.00272424
0.00257394
0.00243021
0.00229348
0.00216281
0.00203756
0.00191841
0.00180601
0.00170088
0.00160346
0.00151402
0.00143267
0.00135936
0.00129386
0.00123581
0.00118473
0.00114005
0.00110113
0.00106734
0.00103803
0.00101256
0.000990336
0.000970788
0.000953385
0.000937633
0.000923071
0.000909268
0.000895819
0.000882347
0.000868497
0.000853935
0.000838346
0.000821436
0.000802933
0.000782581
0.000760147
0.000735418
0.000708206
0.000678347
0.000645706
0.000610178
0.000571697
0.000530241
0.000485838
0.000438586
0.000388664
0.000336362
0.00028212
0.000226585
0.000170714
0.000115964
6.47511e-05
2.13523e-05
2.02706e-06
4.66013e-08
7.30049e-10
1.06903e-11
1.4775e-13
1.92885e-15
2.38045e-17
2.85592e-19
1.21104e-20
1e-20
1e-20
1e-20
1e-20
1e-20
1e-20
1e-20
1e-20
1e-20
1e-20
1e-20
1e-20
1e-20
1e-20
1e-20
1e-20
1e-20
1e-20
1e-20
1e-20
1e-20
1e-20
1e-20
1e-20
1e-20
1e-20
1e-20
1e-20
1e-20
1e-20
1e-20
1e-20
1e-20
1e-20
1e-20
1e-20
1e-20
1e-20
1e-20
1e-20
1e-20
1e-20
1e-20
1e-20
1e-20
1e-20
1e-20
1e-20
1e-20
1e-20
1e-20
1e-20
1e-20
1e-20
1e-20
1e-20
1e-20
1e-20
1e-20
1e-20
1e-20
1e-20
1e-20
1e-20
1e-20
1e-20
1e-20
1e-20
1e-20
1e-20
1e-20
1e-20
1e-20
1e-20
1e-20
1e-20
1e-20
1e-20
1e-20
1e-20
1e-20
1e-20
1e-20
1e-20
1e-20
1e-20
1e-20
1e-20
1e-20
1e-20
1e-20
1e-20
1e-20
1e-20
1e-20
1e-20
1e-20
1e-20
1e-20
1e-20
1e-20
)
;

boundaryField
{
    inandouthalf11
    {
        type            cyclic;
    }
    inandouthalf12
    {
        type            cyclic;
    }
    inandouthalf21
    {
        type            cyclic;
    }
    inandouthalf22
    {
        type            cyclic;
    }
    inandouthalf31
    {
        type            cyclic;
    }
    inandouthalf32
    {
        type            cyclic;
    }
    inandouthalf41
    {
        type            cyclic;
    }
    inandouthalf42
    {
        type            cyclic;
    }
    top
    {
        type            symmetryPlane;
    }
    walls
    {
        type            zeroGradient;
    }
    frontAndBackPlanes
    {
        type            empty;
    }
}


// ************************************************************************* //
