/*--------------------------------*- C++ -*----------------------------------*\
| =========                 |                                                 |
| \\      /  F ield         | OpenFOAM: The Open Source CFD Toolbox           |
|  \\    /   O peration     | Version:  2.4.x                                 |
|   \\  /    A nd           | Web:      www.OpenFOAM.org                      |
|    \\/     M anipulation  |                                                 |
\*---------------------------------------------------------------------------*/
FoamFile
{
    version     2.0;
    format      ascii;
    class       volScalarField;
    location    "5.3";
    object      k_0;
}
// * * * * * * * * * * * * * * * * * * * * * * * * * * * * * * * * * * * * * //

dimensions      [0 2 -2 0 0 0 0];

internalField   nonuniform List<scalar> 
360
(
1e-20
1e-20
1e-20
1e-20
1e-20
1e-20
1e-20
1e-20
1e-20
1e-20
1e-20
1e-20
1e-20
1e-20
1e-20
1e-20
1e-20
1e-20
1e-20
1e-20
1e-20
1e-20
1e-20
1e-20
1e-20
1e-20
1e-20
1e-20
1e-20
1e-20
1e-20
1e-20
1e-20
1e-20
1e-20
1e-20
1e-20
1e-20
1e-20
1e-20
1e-20
1e-20
1e-20
1e-20
1e-20
1e-20
1e-20
1e-20
1e-20
1e-20
1e-20
1e-20
1e-20
1e-20
1e-20
1e-20
1e-20
1e-20
1e-20
1e-20
1e-20
1e-20
1e-20
1e-20
1e-20
1e-20
1e-20
1e-20
1e-20
1e-20
1e-20
1e-20
1e-20
1e-20
1e-20
1e-20
1e-20
1e-20
1e-20
1e-20
1e-20
1e-20
1e-20
1e-20
1e-20
1e-20
1e-20
1e-20
1e-20
1e-20
1e-20
1e-20
1e-20
1e-20
1e-20
1e-20
1e-20
1e-20
1e-20
1e-20
1e-20
1e-20
1e-20
1e-20
1e-20
1e-20
1e-20
1e-20
1e-20
1e-20
1e-20
1e-20
1e-20
1e-20
1e-20
1e-20
1e-20
1e-20
1e-20
1e-20
1e-20
1e-20
1e-20
1e-20
1e-20
1e-20
1e-20
1e-20
1e-20
1e-20
1e-20
1e-20
2.29482e-20
1.07548e-19
5.65812e-19
3.2159e-18
2.00131e-17
1.38659e-16
1.08817e-15
9.83153e-15
1.03704e-13
1.29367e-12
1.93673e-11
3.52407e-10
7.86586e-09
2.17156e-07
7.36476e-06
0.000235693
0.00254763
0.00533494
0.00664046
0.00738815
0.00785725
0.00816576
0.00837351
0.00851295
0.00860254
0.00865342
0.0086728
0.00866573
0.00863601
0.00858663
0.00852005
0.00843833
0.00834322
0.00823624
0.00811867
0.00799166
0.0078562
0.00771315
0.00756331
0.00740735
0.0072459
0.00707954
0.00690877
0.00673408
0.00655593
0.00637473
0.00619089
0.00600479
0.00581683
0.00562738
0.00543681
0.00524549
0.00505382
0.00486218
0.00467097
0.00448061
0.00429152
0.00410415
0.00391894
0.00373635
0.00355687
0.00338099
0.00320922
0.00304205
0.00288001
0.0027236
0.00257331
0.00242961
0.0022929
0.00216226
0.00203703
0.00191792
0.00180556
0.00170047
0.0016031
0.0015137
0.00143239
0.00135912
0.00129366
0.00123566
0.00118461
0.00113996
0.00110107
0.00106731
0.00103802
0.00101257
0.000990359
0.000970825
0.000953434
0.000937692
0.000923137
0.000909338
0.000895894
0.000882424
0.000868575
0.000854011
0.000838421
0.000821509
0.000803001
0.000782644
0.000760204
0.000735469
0.000708249
0.000678383
0.000645733
0.000610196
0.000571706
0.000530239
0.000485827
0.000438565
0.000388633
0.000336321
0.00028207
0.000226528
0.000170651
0.000115897
6.46864e-05
2.13038e-05
2.01776e-06
4.63224e-08
7.25551e-10
1.06231e-11
1.46803e-13
1.91626e-15
2.36464e-17
2.83717e-19
1.20913e-20
1e-20
1e-20
1e-20
1e-20
1e-20
1e-20
1e-20
1e-20
1e-20
1e-20
1e-20
1e-20
1e-20
1e-20
1e-20
1e-20
1e-20
1e-20
1e-20
1e-20
1e-20
1e-20
1e-20
1e-20
1e-20
1e-20
1e-20
1e-20
1e-20
1e-20
1e-20
1e-20
1e-20
1e-20
1e-20
1e-20
1e-20
1e-20
1e-20
1e-20
1e-20
1e-20
1e-20
1e-20
1e-20
1e-20
1e-20
1e-20
1e-20
1e-20
1e-20
1e-20
1e-20
1e-20
1e-20
1e-20
1e-20
1e-20
1e-20
1e-20
1e-20
1e-20
1e-20
1e-20
1e-20
1e-20
1e-20
1e-20
1e-20
1e-20
1e-20
1e-20
1e-20
1e-20
1e-20
1e-20
1e-20
1e-20
1e-20
1e-20
1e-20
1e-20
1e-20
1e-20
1e-20
1e-20
1e-20
1e-20
1e-20
1e-20
1e-20
1e-20
1e-20
1e-20
1e-20
1e-20
1e-20
1e-20
1e-20
1e-20
1e-20
)
;

boundaryField
{
    inandouthalf11
    {
        type            cyclic;
    }
    inandouthalf12
    {
        type            cyclic;
    }
    inandouthalf21
    {
        type            cyclic;
    }
    inandouthalf22
    {
        type            cyclic;
    }
    inandouthalf31
    {
        type            cyclic;
    }
    inandouthalf32
    {
        type            cyclic;
    }
    inandouthalf41
    {
        type            cyclic;
    }
    inandouthalf42
    {
        type            cyclic;
    }
    top
    {
        type            symmetryPlane;
    }
    walls
    {
        type            zeroGradient;
    }
    frontAndBackPlanes
    {
        type            empty;
    }
}


// ************************************************************************* //
