/*--------------------------------*- C++ -*----------------------------------*\
| =========                 |                                                 |
| \\      /  F ield         | OpenFOAM: The Open Source CFD Toolbox           |
|  \\    /   O peration     | Version:  2.4.x                                 |
|   \\  /    A nd           | Web:      www.OpenFOAM.org                      |
|    \\/     M anipulation  |                                                 |
\*---------------------------------------------------------------------------*/
FoamFile
{
    version     2.0;
    format      ascii;
    class       volScalarField;
    location    "5.3";
    object      nutb;
}
// * * * * * * * * * * * * * * * * * * * * * * * * * * * * * * * * * * * * * //

dimensions      [0 2 -1 0 0 0 0];

internalField   nonuniform List<scalar> 
360
(
9e-22
9e-22
9e-22
9e-22
9e-22
9e-22
9e-22
9e-22
9e-22
9e-22
9e-22
9e-22
9e-22
9e-22
9e-22
9e-22
9e-22
9e-22
9e-22
9e-22
9e-22
9e-22
9e-22
9e-22
9e-22
9e-22
9e-22
9e-22
9e-22
9e-22
9e-22
9e-22
9e-22
9e-22
9e-22
9e-22
9e-22
9e-22
9e-22
9e-22
9e-22
9e-22
9e-22
9e-22
9e-22
9e-22
9e-22
9e-22
9e-22
9e-22
9e-22
9e-22
9e-22
9e-22
9e-22
9e-22
9e-22
9e-22
9e-22
9e-22
9e-22
9e-22
9e-22
9e-22
9e-22
9e-22
9e-22
9e-22
9e-22
9e-22
9e-22
9e-22
9e-22
9e-22
9e-22
9e-22
9e-22
9e-22
9e-22
9e-22
9e-22
9e-22
9e-22
9e-22
9e-22
9e-22
9e-22
9e-22
9e-22
9e-22
9e-22
9e-22
9e-22
9e-22
9e-22
9e-22
9e-22
9e-22
9e-22
9e-22
9e-22
9e-22
9e-22
9e-22
9e-22
9e-22
9e-22
9e-22
9e-22
9e-22
9e-22
9e-22
9e-22
9e-22
9e-22
9e-22
9e-22
9e-22
9e-22
9e-22
9e-22
9e-22
9e-22
9e-22
9e-22
9e-22
9e-22
9e-22
9e-22
9e-22
9e-22
9e-22
1.46586e-21
5.99718e-21
2.77348e-20
1.36725e-19
7.27512e-19
4.25118e-18
2.77969e-17
2.0704e-16
1.78257e-15
1.79729e-14
2.15748e-13
3.12903e-12
5.53767e-11
1.20751e-09
3.22329e-08
7.97348e-07
6.83663e-06
1.54262e-05
2.25846e-05
2.90732e-05
3.52776e-05
4.13729e-05
4.74389e-05
5.34936e-05
5.95172e-05
6.54707e-05
7.13086e-05
7.69871e-05
8.24674e-05
8.77174e-05
9.2712e-05
9.7432e-05
0.000101864
0.000105997
0.000109827
0.000113351
0.000116567
0.000119479
0.000122088
0.000124399
0.000126418
0.00012815
0.000129604
0.000130785
0.000131704
0.000132367
0.000132785
0.000132967
0.000132923
0.000132663
0.000132198
0.00013154
0.0001307
0.000129692
0.00012853
0.000127226
0.000125797
0.000124257
0.000122623
0.000120912
0.000119142
0.000117332
0.000115502
0.000113674
0.000111872
0.000110118
0.000108437
0.000106854
0.000105393
0.000104066
0.000102888
0.000101892
0.000101108
0.000100564
0.000100281
0.000100272
0.000100542
0.000101079
0.000101861
0.000102853
0.000104007
0.000105269
0.00010658
0.000107882
0.00010912
0.000110244
0.000111215
0.000112002
0.00011258
0.000112936
0.00011306
0.000112947
0.000112595
0.000112003
0.000111171
0.000110098
0.000108781
0.000107215
0.000105396
0.000103316
0.000100964
9.83318e-05
9.54057e-05
9.2173e-05
8.86195e-05
8.47305e-05
8.04908e-05
7.58848e-05
7.08968e-05
6.55113e-05
5.97131e-05
5.3488e-05
4.68228e-05
3.97059e-05
3.21288e-05
2.40894e-05
1.56045e-05
6.48645e-06
7.6591e-07
1.87285e-08
2.92337e-10
4.25711e-12
5.85175e-14
7.59877e-16
9.32005e-18
1.01737e-19
1.31453e-21
9e-22
9e-22
9e-22
9e-22
9e-22
9e-22
9e-22
9e-22
9e-22
9e-22
9e-22
9e-22
9e-22
9e-22
9e-22
9e-22
9e-22
9e-22
9e-22
9e-22
9e-22
9e-22
9e-22
9e-22
9e-22
9e-22
9e-22
9e-22
9e-22
9e-22
9e-22
9e-22
9e-22
9e-22
9e-22
9e-22
9e-22
9e-22
9e-22
9e-22
9e-22
9e-22
9e-22
9e-22
9e-22
9e-22
9e-22
9e-22
9e-22
9e-22
9e-22
9e-22
9e-22
9e-22
9e-22
9e-22
9e-22
9e-22
9e-22
9e-22
9e-22
9e-22
9e-22
9e-22
9e-22
9e-22
9e-22
9e-22
9e-22
9e-22
9e-22
9e-22
9e-22
9e-22
9e-22
9e-22
9e-22
9e-22
9e-22
9e-22
9e-22
9e-22
9e-22
9e-22
9e-22
9e-22
9e-22
9e-22
9e-22
9e-22
9e-22
9e-22
9e-22
9e-22
9e-22
9e-22
9e-22
9e-22
9e-22
9e-22
9e-22
)
;

boundaryField
{
    inandouthalf11
    {
        type            cyclic;
    }
    inandouthalf12
    {
        type            cyclic;
    }
    inandouthalf21
    {
        type            cyclic;
    }
    inandouthalf22
    {
        type            cyclic;
    }
    inandouthalf31
    {
        type            cyclic;
    }
    inandouthalf32
    {
        type            cyclic;
    }
    inandouthalf41
    {
        type            cyclic;
    }
    inandouthalf42
    {
        type            cyclic;
    }
    top
    {
        type            symmetryPlane;
    }
    walls
    {
        type            calculated;
        value           uniform 0;
    }
    frontAndBackPlanes
    {
        type            empty;
    }
}


// ************************************************************************* //
