/*--------------------------------*- C++ -*----------------------------------*\
| =========                 |                                                 |
| \\      /  F ield         | OpenFOAM: The Open Source CFD Toolbox           |
|  \\    /   O peration     | Version:  2.4.x                                 |
|   \\  /    A nd           | Web:      www.OpenFOAM.org                      |
|    \\/     M anipulation  |                                                 |
\*---------------------------------------------------------------------------*/
FoamFile
{
    version     2.0;
    format      ascii;
    class       volScalarField;
    location    "5.3";
    object      p;
}
// * * * * * * * * * * * * * * * * * * * * * * * * * * * * * * * * * * * * * //

dimensions      [1 -1 -2 0 0 0 0];

internalField   nonuniform List<scalar> 
360
(
4899.8
4894.9
4889.99
4885.08
4880.17
4875.26
4870.35
4865.44
4860.53
4855.61
4850.7
4845.78
4840.86
4835.94
4831.02
4826.1
4821.18
4816.25
4811.33
4806.4
4801.47
4796.55
4791.62
4786.68
4781.75
4776.82
4771.88
4766.95
4762.01
4757.07
4752.13
4747.19
4742.25
4737.3
4732.36
4727.41
4722.47
4717.52
4712.57
4707.61
4702.66
4697.71
4692.75
4687.8
4682.84
4677.88
4672.91
4667.95
4662.98
4658
4653.03
4648.06
4643.09
4638.12
4633.15
4628.17
4623.2
4618.23
4613.26
4608.29
4603.31
4598.34
4593.37
4588.4
4583.43
4578.45
4573.48
4568.51
4563.54
4558.57
4553.6
4548.62
4543.65
4538.68
4533.71
4528.74
4523.77
4518.79
4513.82
4508.85
4503.88
4498.91
4493.94
4488.97
4484
4479.02
4474.05
4469.08
4464.11
4459.14
4454.17
4449.2
4444.23
4439.26
4434.28
4429.31
4424.34
4419.37
4414.4
4409.43
4404.46
4399.49
4394.52
4389.55
4384.58
4379.61
4374.64
4369.67
4364.7
4359.73
4354.76
4349.79
4344.82
4339.85
4334.88
4329.91
4324.94
4319.97
4315
4310.03
4305.06
4300.09
4295.12
4290.15
4285.19
4280.22
4275.25
4270.28
4265.31
4260.34
4255.37
4250.41
4245.44
4240.47
4235.5
4230.54
4225.57
4220.6
4215.63
4210.67
4205.7
4200.73
4195.77
4190.8
4185.84
4180.87
4175.9
4170.7
4162.06
4153.94
4147.32
4141.22
4135.4
4129.77
4124.27
4118.9
4113.62
4108.42
4103.28
4098.2
4093.17
4088.18
4083.21
4078.28
4073.37
4068.47
4063.59
4058.73
4053.88
4049.04
4044.21
4039.38
4034.57
4029.75
4024.95
4020.15
4015.35
4010.56
4005.77
4000.98
3996.19
3991.41
3986.62
3981.84
3977.06
3972.28
3967.5
3962.72
3957.94
3953.16
3948.37
3943.59
3938.8
3934.01
3929.22
3924.43
3919.63
3914.83
3910.02
3905.21
3900.4
3895.53
3890.56
3885.48
3880.29
3874.99
3869.58
3864.05
3858.4
3852.63
3846.74
3840.72
3834.57
3828.3
3821.89
3815.35
3808.67
3801.85
3794.89
3787.79
3780.55
3773.15
3765.61
3757.9
3750.05
3742.03
3733.85
3725.51
3716.99
3708.31
3699.45
3690.41
3681.18
3671.78
3662.18
3652.39
3642.4
3632.21
3621.81
3611.21
3600.39
3589.35
3578.09
3566.6
3554.88
3542.92
3530.72
3518.27
3505.57
3492.6
3479.35
3465.82
3452.01
3437.92
3423.55
3408.88
3393.92
3378.66
3363.08
3347.19
3330.97
3314.43
3297.55
3280.33
3262.76
3244.83
3226.54
3207.87
3188.83
3169.4
3149.58
3129.35
3108.72
3087.66
3066.18
3044.26
3021.9
2999.08
2975.8
2952.05
2927.81
2903.09
2877.86
2852.12
2825.86
2799.06
2771.72
2743.82
2715.36
2686.32
2656.7
2626.47
2595.62
2564.15
2532.05
2499.29
2465.86
2431.76
2396.96
2361.46
2325.24
2288.28
2250.57
2212.1
2172.85
2132.8
2091.93
2050.24
2007.7
1964.3
1922.76
1883.52
1844.28
1805.04
1765.8
1726.56
1687.32
1648.08
1608.84
1569.6
1530.36
1491.12
1451.88
1412.64
1373.4
1334.16
1294.92
1255.68
1216.44
1177.2
1137.96
1098.72
1059.48
1020.24
981
941.76
902.52
863.28
824.04
784.8
745.56
706.32
667.08
627.84
588.6
549.36
510.12
470.88
431.64
392.4
353.16
313.92
274.68
235.44
196.2
156.96
117.72
78.48
39.24
-1.4306e-07
)
;

boundaryField
{
    inandouthalf11
    {
        type            cyclic;
    }
    inandouthalf12
    {
        type            cyclic;
    }
    inandouthalf21
    {
        type            cyclic;
    }
    inandouthalf22
    {
        type            cyclic;
    }
    inandouthalf31
    {
        type            cyclic;
    }
    inandouthalf32
    {
        type            cyclic;
    }
    inandouthalf41
    {
        type            cyclic;
    }
    inandouthalf42
    {
        type            cyclic;
    }
    top
    {
        type            symmetryPlane;
    }
    walls
    {
        type            slip;
    }
    frontAndBackPlanes
    {
        type            empty;
    }
}


// ************************************************************************* //
