/*--------------------------------*- C++ -*----------------------------------*\
| =========                 |                                                 |
| \\      /  F ield         | OpenFOAM: The Open Source CFD Toolbox           |
|  \\    /   O peration     | Version:  2.4.x                                 |
|   \\  /    A nd           | Web:      www.OpenFOAM.org                      |
|    \\/     M anipulation  |                                                 |
\*---------------------------------------------------------------------------*/
FoamFile
{
    version     2.0;
    format      ascii;
    class       volScalarField;
    location    "5.3";
    object      pa;
}
// * * * * * * * * * * * * * * * * * * * * * * * * * * * * * * * * * * * * * //

dimensions      [1 -1 -2 0 0 0 0];

internalField   nonuniform List<scalar> 
360
(
2.89767e-16
2.9254e-16
2.92654e-16
2.92337e-16
2.92223e-16
2.922e-16
2.92162e-16
2.92103e-16
2.92039e-16
2.91974e-16
2.9191e-16
2.91848e-16
2.91786e-16
2.91723e-16
2.91659e-16
2.91594e-16
2.91528e-16
2.91462e-16
2.91395e-16
2.91327e-16
2.91259e-16
2.91191e-16
2.91124e-16
2.91058e-16
2.90994e-16
2.90932e-16
2.90872e-16
2.90813e-16
2.90754e-16
2.90692e-16
2.90623e-16
2.90541e-16
2.90447e-16
2.90333e-16
2.90207e-16
2.90072e-16
2.8994e-16
2.89825e-16
2.89741e-16
2.89711e-16
2.89761e-16
2.89946e-16
2.90348e-16
2.91076e-16
2.92158e-16
2.93204e-16
2.93197e-16
2.91499e-16
2.89233e-16
2.87888e-16
2.87466e-16
2.87362e-16
2.87311e-16
2.87261e-16
2.87211e-16
2.87154e-16
2.87097e-16
2.87034e-16
2.86969e-16
2.86902e-16
2.86829e-16
2.86756e-16
2.86678e-16
2.866e-16
2.86519e-16
2.86437e-16
2.86352e-16
2.86264e-16
2.86173e-16
2.86079e-16
2.8598e-16
2.85878e-16
2.85774e-16
2.85665e-16
2.85554e-16
2.8544e-16
2.85325e-16
2.85207e-16
2.85087e-16
2.84963e-16
2.84837e-16
2.84707e-16
2.84574e-16
2.84437e-16
2.84297e-16
2.84154e-16
2.84008e-16
2.83859e-16
2.83706e-16
2.83551e-16
2.83392e-16
2.8323e-16
2.83065e-16
2.82895e-16
2.82722e-16
2.82545e-16
2.82364e-16
2.82178e-16
2.81989e-16
2.81795e-16
2.81597e-16
2.81394e-16
2.81187e-16
2.80975e-16
2.80757e-16
2.80535e-16
2.80306e-16
2.80073e-16
2.79833e-16
2.79587e-16
2.79335e-16
2.79077e-16
2.78811e-16
2.78538e-16
2.78258e-16
2.77969e-16
2.77673e-16
2.77368e-16
2.77054e-16
2.76731e-16
2.76398e-16
2.76055e-16
2.75701e-16
2.75336e-16
2.7496e-16
2.74571e-16
2.74169e-16
2.73753e-16
2.73322e-16
2.72874e-16
2.72408e-16
2.71927e-16
6.22677e-16
2.91207e-15
1.52862e-14
8.66726e-14
5.37988e-13
3.71698e-12
2.90779e-11
2.61748e-10
2.7497e-09
3.41653e-08
5.09476e-07
9.31107e-06
0.00026805
0.0184101
0.615877
5.29497
4.78422
4.26667
3.45111
2.72424
2.13434
1.66984
1.30939
1.03132
0.816914
0.651087
0.522175
0.421334
0.341919
0.278952
0.228695
0.18833
0.155717
0.129223
0.107591
0.0898455
0.0752275
0.0631388
0.0531064
0.0447539
0.0377797
0.0319409
0.027041
0.0229199
0.0194469
0.0165148
0.0140352
0.0119349
0.0101532
0.0086391
0.00734933
0.0062472
0.00530168
0.00448723
0.00378388
0.00317684
0.00265555
0.0022119
0.00183839
0.00152734
0.00127089
0.00106069
0.000887399
0.00074205
0.000618355
0.000513186
0.000425033
0.000352269
0.000292491
0.000243007
0.000202234
0.000168475
0.000139931
0.00011634
9.71157e-05
8.07932e-05
6.70677e-05
5.58851e-05
4.64802e-05
3.85601e-05
3.20256e-05
2.64726e-05
2.18468e-05
1.80683e-05
1.47862e-05
1.20714e-05
9.89405e-06
8.01916e-06
6.46894e-06
5.20187e-06
4.1516e-06
3.30556e-06
2.58665e-06
2.01232e-06
1.55797e-06
1.17865e-06
8.84192e-07
6.52458e-07
4.7134e-07
3.31027e-07
2.21675e-07
1.37551e-07
8.72516e-08
4.52809e-08
0
0
0
0
0
0
0
0
0
0
0
0
0
0
0
0
0
0
0
0
0
0
0
0
0
0
0
0
0
0
0
0
0
0
0
0
0
0
0
0
0
0
0
0
0
0
0
0
0
0
0
0
0
0
0
0
0
0
0
0
0
0
0
0
0
0
0
0
0
0
0
0
0
0
0
0
0
0
0
0
0
0
0
0
0
0
0
0
0
0
0
0
0
0
0
0
0
0
0
0
0
0
0
0
0
0
0
0
0
0
0
0
0
0
0
0
0
0
0
0
0
0
0
0
)
;

boundaryField
{
    inandouthalf11
    {
        type            cyclic;
    }
    inandouthalf12
    {
        type            cyclic;
    }
    inandouthalf21
    {
        type            cyclic;
    }
    inandouthalf22
    {
        type            cyclic;
    }
    inandouthalf31
    {
        type            cyclic;
    }
    inandouthalf32
    {
        type            cyclic;
    }
    inandouthalf41
    {
        type            cyclic;
    }
    inandouthalf42
    {
        type            cyclic;
    }
    top
    {
        type            symmetryPlane;
    }
    walls
    {
        type            calculated;
        value           uniform 2.89767e-16;
    }
    frontAndBackPlanes
    {
        type            empty;
    }
}


// ************************************************************************* //
