/*--------------------------------*- C++ -*----------------------------------*\
| =========                 |                                                 |
| \\      /  F ield         | OpenFOAM: The Open Source CFD Toolbox           |
|  \\    /   O peration     | Version:  2.4.x                                 |
|   \\  /    A nd           | Web:      www.OpenFOAM.org                      |
|    \\/     M anipulation  |                                                 |
\*---------------------------------------------------------------------------*/
FoamFile
{
    version     2.0;
    format      ascii;
    class       surfaceScalarField;
    location    "5.3";
    object      phia;
}
// * * * * * * * * * * * * * * * * * * * * * * * * * * * * * * * * * * * * * //

dimensions      [0 3 -1 0 0 0 0];

internalField   nonuniform List<scalar> 
359
(
-4.84168e-13
-1.29776e-12
-2.04746e-12
-2.74365e-12
-3.44582e-12
-4.16687e-12
-4.89945e-12
-5.63693e-12
-6.37658e-12
-7.11931e-12
-7.86677e-12
-8.61972e-12
-9.37835e-12
-1.01421e-11
-1.09107e-11
-1.1684e-11
-1.2462e-11
-1.32447e-11
-1.4032e-11
-1.48242e-11
-1.56208e-11
-1.64224e-11
-1.72296e-11
-1.8043e-11
-1.88638e-11
-1.9693e-11
-2.05316e-11
-2.13808e-11
-2.22406e-11
-2.311e-11
-2.39864e-11
-2.48661e-11
-2.57428e-11
-2.6611e-11
-2.74641e-11
-2.82988e-11
-2.91149e-11
-2.99189e-11
-3.07241e-11
-3.15513e-11
-3.24336e-11
-3.34153e-11
-3.45545e-11
-3.59176e-11
-3.75481e-11
-3.94054e-11
-4.12933e-11
-4.28906e-11
-4.39522e-11
-4.4485e-11
-4.46838e-11
-4.47401e-11
-4.4753e-11
-4.47557e-11
-4.47563e-11
-4.47564e-11
-4.47565e-11
-4.47565e-11
-4.47565e-11
-4.47565e-11
-4.47565e-11
-4.47565e-11
-4.47566e-11
-4.47566e-11
-4.47566e-11
-4.47566e-11
-4.47566e-11
-4.47567e-11
-4.47567e-11
-4.47567e-11
-4.47568e-11
-4.47568e-11
-4.47569e-11
-4.47569e-11
-4.47569e-11
-4.4757e-11
-4.4757e-11
-4.4757e-11
-4.47571e-11
-4.47571e-11
-4.47572e-11
-4.47572e-11
-4.47572e-11
-4.47573e-11
-4.47573e-11
-4.47573e-11
-4.47574e-11
-4.47574e-11
-4.47575e-11
-4.47575e-11
-4.47576e-11
-4.47576e-11
-4.47577e-11
-4.47577e-11
-4.47578e-11
-4.47578e-11
-4.47579e-11
-4.47579e-11
-4.4758e-11
-4.4758e-11
-4.47581e-11
-4.47581e-11
-4.47582e-11
-4.47582e-11
-4.47583e-11
-4.47583e-11
-4.47584e-11
-4.47584e-11
-4.47585e-11
-4.47586e-11
-4.47586e-11
-4.47587e-11
-4.47587e-11
-4.47588e-11
-4.47588e-11
-4.47589e-11
-4.47589e-11
-4.4759e-11
-4.4759e-11
-4.47591e-11
-4.47591e-11
-4.47592e-11
-4.47592e-11
-4.47593e-11
-4.47593e-11
-4.47594e-11
-4.47595e-11
-4.47595e-11
-4.47596e-11
-4.47596e-11
-4.47596e-11
-4.47597e-11
-4.47597e-11
-4.47598e-11
-4.47598e-11
-4.47598e-11
-4.47599e-11
-4.47599e-11
-4.47599e-11
-4.47599e-11
-4.47599e-11
-4.47599e-11
-4.47599e-11
-4.47599e-11
-4.476e-11
-4.47599e-11
-4.53093e-11
-7.82466e-10
-1.35789e-09
-1.76924e-09
-2.00459e-09
-2.15912e-09
-2.2494e-09
-2.27979e-09
-2.25112e-09
-2.1638e-09
-2.01878e-09
-1.81762e-09
-1.56238e-09
-1.25539e-09
-8.99068e-10
-4.95846e-10
-4.80888e-11
4.422e-10
9.7285e-10
1.54207e-09
2.14812e-09
2.78939e-09
3.46436e-09
4.17155e-09
4.90952e-09
5.67684e-09
6.47205e-09
7.29366e-09
8.14008e-09
9.00963e-09
9.90046e-09
1.08106e-08
1.17377e-08
1.26793e-08
1.36321e-08
1.45912e-08
1.55495e-08
1.64954e-08
1.7413e-08
1.82816e-08
1.90793e-08
1.97862e-08
2.03897e-08
2.08864e-08
2.12825e-08
2.1591e-08
2.18296e-08
2.20169e-08
2.2167e-08
2.2285e-08
2.23702e-08
2.24219e-08
2.24424e-08
2.24374e-08
2.24117e-08
2.23687e-08
2.23136e-08
2.22509e-08
2.21794e-08
2.2102e-08
2.20236e-08
2.19423e-08
2.18574e-08
2.17729e-08
2.16876e-08
2.16004e-08
2.15136e-08
2.14246e-08
2.13327e-08
2.12417e-08
2.11454e-08
2.10434e-08
2.0941e-08
2.08317e-08
2.07157e-08
2.05938e-08
2.04626e-08
2.03265e-08
2.01762e-08
2.00127e-08
1.98396e-08
1.96444e-08
1.94307e-08
1.9194e-08
1.89296e-08
1.863e-08
1.82807e-08
1.78254e-08
1.73882e-08
1.656e-08
2.49673e-09
1.07697e-08
-4.85891e-08
-1.47101e-07
-1.58529e-07
-1.58404e-07
-1.58423e-07
-1.58425e-07
-1.58425e-07
-1.58421e-07
-1.58411e-07
-1.5839e-07
-1.58354e-07
-1.58258e-07
-1.58202e-07
-1.582e-07
-1.582e-07
-1.582e-07
-1.582e-07
-1.582e-07
-1.582e-07
-1.582e-07
-1.582e-07
-1.582e-07
-1.582e-07
-1.582e-07
-1.582e-07
-1.582e-07
-1.582e-07
-1.582e-07
-1.582e-07
-1.582e-07
-1.582e-07
-1.582e-07
-1.582e-07
-1.582e-07
-1.582e-07
-1.582e-07
-1.582e-07
-1.582e-07
-1.582e-07
-1.582e-07
-1.582e-07
-1.582e-07
-1.582e-07
-1.582e-07
-1.582e-07
-1.582e-07
-1.582e-07
-1.582e-07
-1.582e-07
-1.582e-07
-1.582e-07
-1.582e-07
-1.582e-07
-1.582e-07
-1.582e-07
-1.582e-07
-1.582e-07
-1.582e-07
-1.582e-07
-1.582e-07
-1.582e-07
-1.582e-07
-1.582e-07
-1.582e-07
-1.582e-07
-1.582e-07
-1.582e-07
-1.582e-07
-1.582e-07
-1.582e-07
-1.582e-07
-1.582e-07
-1.582e-07
-1.582e-07
-1.582e-07
-1.582e-07
-1.582e-07
-1.582e-07
-1.582e-07
-1.582e-07
-1.582e-07
-1.582e-07
-1.582e-07
-1.582e-07
-1.582e-07
-1.582e-07
-1.582e-07
-1.582e-07
-1.582e-07
-1.582e-07
-1.582e-07
-1.582e-07
-1.582e-07
-1.582e-07
-1.582e-07
-1.582e-07
-1.582e-07
-1.582e-07
-1.582e-07
-1.582e-07
-1.582e-07
-1.582e-07
-1.582e-07
-1.582e-07
-1.582e-07
-1.582e-07
-1.582e-07
-1.582e-07
-1.582e-07
-1.582e-07
-1.582e-07
-1.582e-07
-1.582e-07
-1.582e-07
-1.582e-07
-1.582e-07
-1.582e-07
-1.582e-07
-1.58183e-07
-1.57477e-07
-1.32608e-07
)
;

boundaryField
{
    inandouthalf11
    {
        type            cyclic;
        value           nonuniform List<scalar> 
100
(
1.015e-38
3.64415e-14
7.90987e-14
1.16996e-13
1.54327e-13
1.93085e-13
2.33009e-13
2.73615e-13
3.14685e-13
3.56192e-13
3.98214e-13
4.4083e-13
4.84075e-13
5.27946e-13
5.72423e-13
6.17502e-13
6.63189e-13
7.09494e-13
7.56422e-13
8.0398e-13
8.52176e-13
9.01026e-13
9.50567e-13
1.00085e-12
1.05195e-12
1.10393e-12
1.15688e-12
1.21089e-12
1.26601e-12
1.32222e-12
1.37943e-12
1.43744e-12
1.49594e-12
1.55452e-12
1.61278e-12
1.67035e-12
1.72711e-12
1.78326e-12
1.83946e-12
1.89691e-12
1.95751e-12
2.024e-12
2.10013e-12
2.19059e-12
2.30001e-12
2.42959e-12
2.57116e-12
2.70374e-12
2.80263e-12
2.85816e-12
2.88099e-12
2.88794e-12
2.88961e-12
2.88996e-12
2.89004e-12
2.89006e-12
2.89006e-12
2.89007e-12
2.89007e-12
2.89007e-12
2.89007e-12
2.89007e-12
2.89007e-12
2.89007e-12
2.89008e-12
2.89008e-12
2.89008e-12
2.89008e-12
2.89009e-12
2.89009e-12
2.89009e-12
2.8901e-12
2.8901e-12
2.8901e-12
2.89011e-12
2.89011e-12
2.89011e-12
2.89012e-12
2.89012e-12
2.89013e-12
2.89013e-12
2.89013e-12
2.89014e-12
2.89014e-12
2.89015e-12
2.89015e-12
2.89015e-12
2.89016e-12
2.89016e-12
2.89017e-12
2.89017e-12
2.89018e-12
2.89018e-12
2.89019e-12
2.8902e-12
2.8902e-12
2.89021e-12
2.89021e-12
2.89022e-12
2.89023e-12
)
;
    }
    inandouthalf12
    {
        type            cyclic;
        value           nonuniform List<scalar> 
100
(
-1.015e-38
-3.64415e-14
-7.90987e-14
-1.16996e-13
-1.54327e-13
-1.93085e-13
-2.33009e-13
-2.73615e-13
-3.14685e-13
-3.56192e-13
-3.98214e-13
-4.4083e-13
-4.84075e-13
-5.27946e-13
-5.72423e-13
-6.17502e-13
-6.63189e-13
-7.09494e-13
-7.56422e-13
-8.0398e-13
-8.52176e-13
-9.01026e-13
-9.50567e-13
-1.00085e-12
-1.05195e-12
-1.10393e-12
-1.15688e-12
-1.21089e-12
-1.26601e-12
-1.32222e-12
-1.37943e-12
-1.43744e-12
-1.49594e-12
-1.55452e-12
-1.61278e-12
-1.67035e-12
-1.72711e-12
-1.78326e-12
-1.83946e-12
-1.89691e-12
-1.95751e-12
-2.024e-12
-2.10013e-12
-2.19059e-12
-2.30001e-12
-2.42959e-12
-2.57116e-12
-2.70374e-12
-2.80263e-12
-2.85816e-12
-2.88099e-12
-2.88794e-12
-2.88961e-12
-2.88996e-12
-2.89004e-12
-2.89006e-12
-2.89006e-12
-2.89007e-12
-2.89007e-12
-2.89007e-12
-2.89007e-12
-2.89007e-12
-2.89007e-12
-2.89007e-12
-2.89008e-12
-2.89008e-12
-2.89008e-12
-2.89008e-12
-2.89009e-12
-2.89009e-12
-2.89009e-12
-2.8901e-12
-2.8901e-12
-2.8901e-12
-2.89011e-12
-2.89011e-12
-2.89011e-12
-2.89012e-12
-2.89012e-12
-2.89013e-12
-2.89013e-12
-2.89013e-12
-2.89014e-12
-2.89014e-12
-2.89015e-12
-2.89015e-12
-2.89015e-12
-2.89016e-12
-2.89016e-12
-2.89017e-12
-2.89017e-12
-2.89018e-12
-2.89018e-12
-2.89019e-12
-2.8902e-12
-2.8902e-12
-2.89021e-12
-2.89021e-12
-2.89022e-12
-2.89023e-12
)
;
    }
    inandouthalf21
    {
        type            cyclic;
        value           nonuniform List<scalar> 
100
(
2.89023e-12
2.89024e-12
2.89025e-12
2.89025e-12
2.89026e-12
2.89027e-12
2.89027e-12
2.89028e-12
2.89029e-12
2.8903e-12
2.8903e-12
2.89031e-12
2.89032e-12
2.89033e-12
2.89033e-12
2.89034e-12
2.89035e-12
2.89036e-12
2.89036e-12
2.89037e-12
2.89038e-12
2.89039e-12
2.8904e-12
2.89041e-12
2.89042e-12
2.89043e-12
2.89044e-12
2.89045e-12
2.89046e-12
2.89047e-12
2.89048e-12
2.89049e-12
2.8905e-12
2.8905e-12
2.89051e-12
2.89052e-12
2.89053e-12
2.89054e-12
2.89055e-12
2.89055e-12
2.89056e-12
2.89057e-12
2.89057e-12
2.89057e-12
2.89057e-12
2.89057e-12
2.89057e-12
8.14838e-12
7.61528e-08
1.73627e-07
2.50061e-07
3.11753e-07
3.62808e-07
4.05895e-07
4.42837e-07
4.74942e-07
5.03185e-07
5.28303e-07
5.50863e-07
5.71302e-07
5.89962e-07
6.0711e-07
6.22959e-07
6.37677e-07
6.51401e-07
6.64243e-07
6.76292e-07
6.87622e-07
6.98297e-07
7.08367e-07
7.17874e-07
7.26856e-07
7.35343e-07
7.4336e-07
7.50931e-07
7.58074e-07
7.64806e-07
7.71143e-07
7.77097e-07
7.82681e-07
7.87906e-07
7.92783e-07
7.97323e-07
8.01537e-07
8.05434e-07
8.09028e-07
8.12331e-07
8.15359e-07
8.18125e-07
8.20649e-07
8.22948e-07
8.25038e-07
8.26938e-07
8.28663e-07
8.30228e-07
8.31647e-07
8.32934e-07
8.34101e-07
8.35164e-07
8.36133e-07
)
;
    }
    inandouthalf22
    {
        type            cyclic;
        value           nonuniform List<scalar> 
100
(
-2.89023e-12
-2.89024e-12
-2.89025e-12
-2.89025e-12
-2.89026e-12
-2.89027e-12
-2.89027e-12
-2.89028e-12
-2.89029e-12
-2.8903e-12
-2.8903e-12
-2.89031e-12
-2.89032e-12
-2.89033e-12
-2.89033e-12
-2.89034e-12
-2.89035e-12
-2.89036e-12
-2.89036e-12
-2.89037e-12
-2.89038e-12
-2.89039e-12
-2.8904e-12
-2.89041e-12
-2.89042e-12
-2.89043e-12
-2.89044e-12
-2.89045e-12
-2.89046e-12
-2.89047e-12
-2.89048e-12
-2.89049e-12
-2.8905e-12
-2.8905e-12
-2.89051e-12
-2.89052e-12
-2.89053e-12
-2.89054e-12
-2.89055e-12
-2.89055e-12
-2.89056e-12
-2.89057e-12
-2.89057e-12
-2.89057e-12
-2.89057e-12
-2.89057e-12
-2.89057e-12
-8.14838e-12
-7.61528e-08
-1.73627e-07
-2.50061e-07
-3.11753e-07
-3.62808e-07
-4.05895e-07
-4.42837e-07
-4.74942e-07
-5.03185e-07
-5.28303e-07
-5.50863e-07
-5.71302e-07
-5.89962e-07
-6.0711e-07
-6.22959e-07
-6.37677e-07
-6.51401e-07
-6.64243e-07
-6.76292e-07
-6.87622e-07
-6.98297e-07
-7.08367e-07
-7.17874e-07
-7.26856e-07
-7.35343e-07
-7.4336e-07
-7.50931e-07
-7.58074e-07
-7.64806e-07
-7.71143e-07
-7.77097e-07
-7.82681e-07
-7.87906e-07
-7.92783e-07
-7.97323e-07
-8.01537e-07
-8.05434e-07
-8.09028e-07
-8.12331e-07
-8.15359e-07
-8.18125e-07
-8.20649e-07
-8.22948e-07
-8.25038e-07
-8.26938e-07
-8.28663e-07
-8.30228e-07
-8.31647e-07
-8.32934e-07
-8.34101e-07
-8.35164e-07
-8.36133e-07
)
;
    }
    inandouthalf31
    {
        type            cyclic;
        value           nonuniform List<scalar> 
110
(
8.37025e-07
8.54856e-07
8.73015e-07
8.91511e-07
9.10356e-07
9.2956e-07
9.49132e-07
9.69084e-07
9.89426e-07
1.01017e-06
1.03132e-06
1.0529e-06
1.07491e-06
1.09736e-06
1.12026e-06
1.14363e-06
1.16747e-06
1.1918e-06
1.21663e-06
1.24197e-06
1.26782e-06
1.29421e-06
1.32113e-06
1.34861e-06
1.37665e-06
1.40527e-06
1.43448e-06
1.46428e-06
1.49469e-06
1.52572e-06
1.55738e-06
1.58968e-06
1.62263e-06
1.65625e-06
1.69052e-06
1.72543e-06
1.76119e-06
1.90634e-06
1.94121e-06
1.97521e-06
2.01084e-06
2.04609e-06
2.08253e-06
2.11957e-06
2.15733e-06
2.19589e-06
2.23535e-06
2.27585e-06
2.31758e-06
2.3613e-06
2.40799e-06
2.45675e-06
2.50661e-06
2.55748e-06
2.60939e-06
2.66235e-06
2.71639e-06
2.77153e-06
2.82778e-06
2.88518e-06
2.94374e-06
3.00349e-06
3.06445e-06
3.12665e-06
3.19011e-06
3.25486e-06
3.32093e-06
3.38833e-06
3.45711e-06
3.52728e-06
3.59887e-06
3.67192e-06
3.74645e-06
3.82249e-06
3.90008e-06
3.97924e-06
4.06001e-06
4.14242e-06
4.2265e-06
4.31228e-06
4.39981e-06
4.48911e-06
4.58023e-06
4.6732e-06
4.76805e-06
4.86483e-06
4.96357e-06
5.06432e-06
5.16711e-06
5.27199e-06
5.379e-06
5.48818e-06
5.59957e-06
5.71323e-06
5.82919e-06
5.94751e-06
6.06823e-06
6.1914e-06
6.31707e-06
6.44529e-06
6.57611e-06
6.70959e-06
6.84577e-06
6.98472e-06
7.1265e-06
7.27114e-06
7.41873e-06
7.56931e-06
7.72295e-06
7.8797e-06
)
;
    }
    inandouthalf32
    {
        type            cyclic;
        value           nonuniform List<scalar> 
110
(
-8.37025e-07
-8.54856e-07
-8.73015e-07
-8.91511e-07
-9.10356e-07
-9.2956e-07
-9.49132e-07
-9.69084e-07
-9.89426e-07
-1.01017e-06
-1.03132e-06
-1.0529e-06
-1.07491e-06
-1.09736e-06
-1.12026e-06
-1.14363e-06
-1.16747e-06
-1.1918e-06
-1.21663e-06
-1.24197e-06
-1.26782e-06
-1.29421e-06
-1.32113e-06
-1.34861e-06
-1.37665e-06
-1.40527e-06
-1.43448e-06
-1.46428e-06
-1.49469e-06
-1.52572e-06
-1.55738e-06
-1.58968e-06
-1.62263e-06
-1.65625e-06
-1.69052e-06
-1.72543e-06
-1.76119e-06
-1.90634e-06
-1.94121e-06
-1.97521e-06
-2.01084e-06
-2.04609e-06
-2.08253e-06
-2.11957e-06
-2.15733e-06
-2.19589e-06
-2.23535e-06
-2.27585e-06
-2.31758e-06
-2.3613e-06
-2.40799e-06
-2.45675e-06
-2.50661e-06
-2.55748e-06
-2.60939e-06
-2.66235e-06
-2.71639e-06
-2.77153e-06
-2.82778e-06
-2.88518e-06
-2.94374e-06
-3.00349e-06
-3.06445e-06
-3.12665e-06
-3.19011e-06
-3.25486e-06
-3.32093e-06
-3.38833e-06
-3.45711e-06
-3.52728e-06
-3.59887e-06
-3.67192e-06
-3.74645e-06
-3.82249e-06
-3.90008e-06
-3.97924e-06
-4.06001e-06
-4.14242e-06
-4.2265e-06
-4.31228e-06
-4.39981e-06
-4.48911e-06
-4.58023e-06
-4.6732e-06
-4.76805e-06
-4.86483e-06
-4.96357e-06
-5.06432e-06
-5.16711e-06
-5.27199e-06
-5.379e-06
-5.48818e-06
-5.59957e-06
-5.71323e-06
-5.82919e-06
-5.94751e-06
-6.06823e-06
-6.1914e-06
-6.31707e-06
-6.44529e-06
-6.57611e-06
-6.70959e-06
-6.84577e-06
-6.98472e-06
-7.1265e-06
-7.27114e-06
-7.41873e-06
-7.56931e-06
-7.72295e-06
-7.8797e-06
)
;
    }
    inandouthalf41
    {
        type            cyclic;
        value           nonuniform List<scalar> 
50
(
7.05314e-06
7.05314e-06
7.05314e-06
7.05314e-06
7.05314e-06
7.05314e-06
7.05314e-06
7.05314e-06
7.05314e-06
7.05314e-06
7.05314e-06
7.05314e-06
7.05314e-06
7.05314e-06
7.05314e-06
7.05314e-06
7.05314e-06
7.05314e-06
7.05314e-06
7.05314e-06
7.05314e-06
7.05314e-06
7.05314e-06
7.05314e-06
7.05314e-06
7.05314e-06
7.05314e-06
7.05314e-06
7.05314e-06
7.05314e-06
7.05314e-06
7.05314e-06
7.05314e-06
7.05314e-06
7.05314e-06
7.05314e-06
7.05314e-06
7.05314e-06
7.05314e-06
7.05314e-06
7.05314e-06
7.05314e-06
7.05314e-06
7.05314e-06
7.05314e-06
7.05314e-06
7.05314e-06
7.05314e-06
7.05314e-06
7.05315e-06
)
;
    }
    inandouthalf42
    {
        type            cyclic;
        value           nonuniform List<scalar> 
50
(
-7.05314e-06
-7.05314e-06
-7.05314e-06
-7.05314e-06
-7.05314e-06
-7.05314e-06
-7.05314e-06
-7.05314e-06
-7.05314e-06
-7.05314e-06
-7.05314e-06
-7.05314e-06
-7.05314e-06
-7.05314e-06
-7.05314e-06
-7.05314e-06
-7.05314e-06
-7.05314e-06
-7.05314e-06
-7.05314e-06
-7.05314e-06
-7.05314e-06
-7.05314e-06
-7.05314e-06
-7.05314e-06
-7.05314e-06
-7.05314e-06
-7.05314e-06
-7.05314e-06
-7.05314e-06
-7.05314e-06
-7.05314e-06
-7.05314e-06
-7.05314e-06
-7.05314e-06
-7.05314e-06
-7.05314e-06
-7.05314e-06
-7.05314e-06
-7.05314e-06
-7.05314e-06
-7.05314e-06
-7.05314e-06
-7.05314e-06
-7.05314e-06
-7.05314e-06
-7.05314e-06
-7.05314e-06
-7.05314e-06
-7.05315e-06
)
;
    }
    top
    {
        type            symmetryPlane;
        value           uniform 0;
    }
    walls
    {
        type            fixedValue;
        value           uniform 0;
    }
    frontAndBackPlanes
    {
        type            empty;
        value           nonuniform 0();
    }
}


// ************************************************************************* //
