/*--------------------------------*- C++ -*----------------------------------*\
| =========                 |                                                 |
| \\      /  F ield         | OpenFOAM: The Open Source CFD Toolbox           |
|  \\    /   O peration     | Version:  2.4.x                                 |
|   \\  /    A nd           | Web:      www.OpenFOAM.org                      |
|    \\/     M anipulation  |                                                 |
\*---------------------------------------------------------------------------*/
FoamFile
{
    version     2.0;
    format      ascii;
    class       surfaceScalarField;
    location    "5.3";
    object      phib;
}
// * * * * * * * * * * * * * * * * * * * * * * * * * * * * * * * * * * * * * //

dimensions      [0 3 -1 0 0 0 0];

internalField   nonuniform List<scalar> 
359
(
7.60205e-13
2.04114e-12
3.22074e-12
4.31485e-12
5.41828e-12
6.55145e-12
7.70254e-12
8.86106e-12
1.00227e-11
1.1189e-11
1.23624e-11
1.35441e-11
1.47346e-11
1.59328e-11
1.71383e-11
1.83509e-11
1.95707e-11
2.07975e-11
2.20313e-11
2.32724e-11
2.45201e-11
2.57754e-11
2.70391e-11
2.83123e-11
2.95967e-11
3.08939e-11
3.22055e-11
3.35334e-11
3.48775e-11
3.62362e-11
3.76056e-11
3.89797e-11
4.03487e-11
4.17041e-11
4.30356e-11
4.43378e-11
4.56108e-11
4.68643e-11
4.81195e-11
4.94086e-11
5.07833e-11
5.23128e-11
5.40873e-11
5.62106e-11
5.87501e-11
6.1642e-11
6.45807e-11
6.70655e-11
6.87147e-11
6.95399e-11
6.9845e-11
6.99281e-11
6.99433e-11
6.99423e-11
6.99377e-11
6.99321e-11
6.9926e-11
6.99194e-11
6.99127e-11
6.99054e-11
6.98979e-11
6.98901e-11
6.98821e-11
6.9874e-11
6.98656e-11
6.9857e-11
6.98481e-11
6.98389e-11
6.98294e-11
6.98195e-11
6.98092e-11
6.97986e-11
6.97876e-11
6.97763e-11
6.97648e-11
6.97529e-11
6.97409e-11
6.97286e-11
6.97161e-11
6.97032e-11
6.969e-11
6.96764e-11
6.96625e-11
6.96482e-11
6.96336e-11
6.96186e-11
6.96033e-11
6.95877e-11
6.95718e-11
6.95556e-11
6.9539e-11
6.9522e-11
6.95047e-11
6.94869e-11
6.94687e-11
6.94501e-11
6.94311e-11
6.94117e-11
6.93917e-11
6.93714e-11
6.93505e-11
6.93292e-11
6.93074e-11
6.9285e-11
6.92621e-11
6.92386e-11
6.92145e-11
6.91898e-11
6.91644e-11
6.91384e-11
6.91117e-11
6.90842e-11
6.9056e-11
6.9027e-11
6.89972e-11
6.89665e-11
6.89349e-11
6.89024e-11
6.88688e-11
6.88343e-11
6.87986e-11
6.87619e-11
6.87239e-11
6.86848e-11
6.86443e-11
6.86024e-11
6.8559e-11
6.85141e-11
6.84673e-11
6.84188e-11
6.83683e-11
6.83157e-11
6.82605e-11
6.82023e-11
6.81406e-11
6.80757e-11
6.80072e-11
6.79331e-11
6.78495e-11
6.77566e-11
6.76626e-11
6.75622e-11
6.74371e-11
6.72796e-11
6.704e-11
6.64009e-11
5.99908e-11
5.9186e-10
5.10961e-10
4.62156e-10
4.04336e-10
3.42057e-10
2.80779e-10
2.24265e-10
1.74689e-10
1.32827e-10
9.84665e-11
7.08406e-11
4.89652e-11
3.18461e-11
1.85817e-11
8.40206e-12
6.72065e-13
-5.12545e-12
-9.40011e-12
-1.24802e-11
-1.46248e-11
-1.6039e-11
-1.6885e-11
-1.72909e-11
-1.73581e-11
-1.71667e-11
-1.67805e-11
-1.62495e-11
-1.56136e-11
-1.49041e-11
-1.41457e-11
-1.33578e-11
-1.25556e-11
-1.17506e-11
-1.0951e-11
-1.01616e-11
-9.38371e-12
-8.61544e-12
-7.85361e-12
-7.09656e-12
-6.3473e-12
-5.61521e-12
-4.91497e-12
-4.26262e-12
-3.67123e-12
-3.14858e-12
-2.69634e-12
-2.30909e-12
-1.97559e-12
-1.68421e-12
-1.428e-12
-1.20493e-12
-1.01434e-12
-8.53863e-13
-7.19645e-13
-6.06313e-13
-5.11421e-13
-4.31042e-13
-3.6287e-13
-3.06262e-13
-2.58774e-13
-2.18124e-13
-1.84042e-13
-1.55588e-13
-1.31344e-13
-1.10868e-13
-9.35307e-14
-7.87172e-14
-6.63246e-14
-5.57564e-14
-4.66069e-14
-3.90297e-14
-3.26478e-14
-2.71305e-14
-2.24991e-14
-1.86057e-14
-1.53446e-14
-1.25809e-14
-1.02236e-14
-8.29697e-15
-6.6813e-15
-5.32229e-15
-4.22118e-15
-3.3185e-15
-2.57961e-15
-1.9687e-15
-1.45416e-15
-1.08283e-15
-8.24734e-16
-7.20348e-16
-1.0965e-16
-2.36085e-16
1.51809e-16
-7.2642e-18
-7.06342e-18
-6.87853e-18
-6.67395e-18
-6.48201e-18
-6.27457e-18
-6.07642e-18
-5.85973e-18
-5.65972e-18
-5.43755e-18
-5.22975e-18
-5.02221e-18
-4.80774e-18
-4.57793e-18
-4.35595e-18
-4.12369e-18
-3.89834e-18
-3.6644e-18
-3.43793e-18
-3.20492e-18
-2.97967e-18
-2.75317e-18
-2.53661e-18
-2.32438e-18
-2.12893e-18
-1.94792e-18
-1.78458e-18
-1.66179e-18
-1.51982e-18
-1.38646e-18
-1.26098e-18
-1.14163e-18
-1.0287e-18
-9.22102e-19
-8.23014e-19
-7.29634e-19
-6.40598e-19
-5.5417e-19
-4.74577e-19
-3.97123e-19
-3.25659e-19
-2.46724e-19
-1.78136e-19
-1.12198e-19
-6.30899e-20
-7.14684e-21
2.7029e-20
5.18411e-20
6.25837e-20
9.69803e-20
1.09799e-19
1.21402e-19
1.0557e-19
1.04145e-19
8.10091e-20
5.90855e-20
3.17968e-20
9.88655e-20
1.13623e-19
1.33628e-19
2.02787e-19
2.24807e-19
2.31586e-19
2.38226e-19
2.31656e-19
2.48221e-19
2.50575e-19
2.54894e-19
2.41154e-19
2.3965e-19
2.21861e-19
2.06405e-19
1.83109e-19
1.76257e-19
1.63423e-19
1.52622e-19
1.35677e-19
1.22546e-19
1.04791e-19
8.65736e-20
6.53622e-20
4.36602e-20
2.07176e-20
-3.25909e-21
-2.66691e-20
-5.68472e-20
-8.79525e-20
-1.29742e-19
-2.03132e-19
-3.45457e-19
-5.07656e-19
-6.80244e-19
-8.24983e-19
-1.00657e-18
-1.13589e-18
-1.26942e-18
-1.34351e-18
-1.53489e-18
-1.64021e-18
-1.74645e-18
-1.73352e-18
-1.82213e-18
-1.76423e-18
-1.71704e-18
-1.54096e-18
-1.65145e-18
-1.59126e-18
-1.5365e-18
-1.24781e-18
-1.10894e-18
-7.31814e-19
-3.39533e-19
1.16453e-19
8.5165e-19
1.54844e-18
2.26936e-18
2.48021e-18
4.02824e-18
3.2186e-18
1.23692e-18
)
;

boundaryField
{
    inandouthalf11
    {
        type            cyclic;
        value           nonuniform List<scalar> 
100
(
-3.143e-13
-2.76608e-13
-2.33608e-13
-1.9587e-13
-1.58668e-13
-1.19971e-13
-8.01009e-14
-3.95543e-14
1.45642e-15
4.29021e-14
8.48593e-14
1.27411e-13
1.70592e-13
2.14398e-13
2.5881e-13
3.03824e-13
3.49445e-13
3.95683e-13
4.42544e-13
4.90034e-13
5.38162e-13
5.86943e-13
6.36416e-13
6.86632e-13
7.37657e-13
7.89569e-13
8.42452e-13
8.96387e-13
9.51431e-13
1.00757e-12
1.06471e-12
1.12264e-12
1.18106e-12
1.23956e-12
1.29774e-12
1.35524e-12
1.41192e-12
1.46799e-12
1.52412e-12
1.58151e-12
1.64204e-12
1.70848e-12
1.78456e-12
1.87498e-12
1.98435e-12
2.11384e-12
2.25527e-12
2.38761e-12
2.48623e-12
2.54155e-12
2.56426e-12
2.57114e-12
2.57276e-12
2.57307e-12
2.57309e-12
2.57306e-12
2.57301e-12
2.57296e-12
2.5729e-12
2.57283e-12
2.57277e-12
2.5727e-12
2.57263e-12
2.57255e-12
2.57248e-12
2.5724e-12
2.57233e-12
2.57225e-12
2.57216e-12
2.57208e-12
2.57199e-12
2.57189e-12
2.5718e-12
2.5717e-12
2.5716e-12
2.57149e-12
2.57139e-12
2.57128e-12
2.57117e-12
2.57105e-12
2.57094e-12
2.57082e-12
2.5707e-12
2.57057e-12
2.57044e-12
2.57031e-12
2.57017e-12
2.57003e-12
2.56989e-12
2.56975e-12
2.5696e-12
2.56945e-12
2.56929e-12
2.56914e-12
2.56897e-12
2.56881e-12
2.56864e-12
2.56846e-12
2.56829e-12
2.5681e-12
)
;
    }
    inandouthalf12
    {
        type            cyclic;
        value           nonuniform List<scalar> 
100
(
3.143e-13
2.76608e-13
2.33608e-13
1.9587e-13
1.58668e-13
1.19971e-13
8.01009e-14
3.95543e-14
-1.45642e-15
-4.29021e-14
-8.48593e-14
-1.27411e-13
-1.70592e-13
-2.14398e-13
-2.5881e-13
-3.03824e-13
-3.49445e-13
-3.95683e-13
-4.42544e-13
-4.90034e-13
-5.38162e-13
-5.86943e-13
-6.36416e-13
-6.86632e-13
-7.37657e-13
-7.89569e-13
-8.42452e-13
-8.96387e-13
-9.51431e-13
-1.00757e-12
-1.06471e-12
-1.12264e-12
-1.18106e-12
-1.23956e-12
-1.29774e-12
-1.35524e-12
-1.41192e-12
-1.46799e-12
-1.52412e-12
-1.58151e-12
-1.64204e-12
-1.70848e-12
-1.78456e-12
-1.87498e-12
-1.98435e-12
-2.11384e-12
-2.25527e-12
-2.38761e-12
-2.48623e-12
-2.54155e-12
-2.56426e-12
-2.57114e-12
-2.57276e-12
-2.57307e-12
-2.57309e-12
-2.57306e-12
-2.57301e-12
-2.57296e-12
-2.5729e-12
-2.57283e-12
-2.57277e-12
-2.5727e-12
-2.57263e-12
-2.57255e-12
-2.57248e-12
-2.5724e-12
-2.57233e-12
-2.57225e-12
-2.57216e-12
-2.57208e-12
-2.57199e-12
-2.57189e-12
-2.5718e-12
-2.5717e-12
-2.5716e-12
-2.57149e-12
-2.57139e-12
-2.57128e-12
-2.57117e-12
-2.57105e-12
-2.57094e-12
-2.57082e-12
-2.5707e-12
-2.57057e-12
-2.57044e-12
-2.57031e-12
-2.57017e-12
-2.57003e-12
-2.56989e-12
-2.56975e-12
-2.5696e-12
-2.56945e-12
-2.56929e-12
-2.56914e-12
-2.56897e-12
-2.56881e-12
-2.56864e-12
-2.56846e-12
-2.56829e-12
-2.5681e-12
)
;
    }
    inandouthalf21
    {
        type            cyclic;
        value           nonuniform List<scalar> 
100
(
2.56792e-12
2.56773e-12
2.56753e-12
2.56733e-12
2.56712e-12
2.56691e-12
2.5667e-12
2.56647e-12
2.56624e-12
2.56601e-12
2.56577e-12
2.56552e-12
2.56526e-12
2.565e-12
2.56473e-12
2.56445e-12
2.56416e-12
2.56386e-12
2.56355e-12
2.56324e-12
2.56291e-12
2.56257e-12
2.56222e-12
2.56186e-12
2.56148e-12
2.5611e-12
2.56069e-12
2.56028e-12
2.55984e-12
2.55939e-12
2.55892e-12
2.55842e-12
2.55791e-12
2.55736e-12
2.55678e-12
2.55616e-12
2.55551e-12
2.55482e-12
2.55406e-12
2.55317e-12
2.55222e-12
2.5513e-12
2.5502e-12
2.54877e-12
2.54699e-12
2.54481e-12
3.56692e-12
7.18575e-10
8.46891e-08
1.82717e-07
2.57491e-07
3.17777e-07
3.67868e-07
4.10316e-07
4.46858e-07
4.78746e-07
5.06913e-07
5.32066e-07
5.54749e-07
5.75383e-07
5.943e-07
6.11762e-07
6.27979e-07
6.43122e-07
6.57328e-07
6.70711e-07
6.83366e-07
6.95372e-07
7.06795e-07
7.17691e-07
7.2811e-07
7.38091e-07
7.4767e-07
7.56878e-07
7.65742e-07
7.74284e-07
7.82524e-07
7.90481e-07
7.98168e-07
8.056e-07
8.12788e-07
8.19741e-07
8.26469e-07
8.32977e-07
8.39272e-07
8.45359e-07
8.51241e-07
8.56922e-07
8.62402e-07
8.67684e-07
8.72767e-07
8.77652e-07
8.82337e-07
8.86821e-07
8.91102e-07
8.95178e-07
8.99046e-07
9.02705e-07
9.06152e-07
9.09385e-07
)
;
    }
    inandouthalf22
    {
        type            cyclic;
        value           nonuniform List<scalar> 
100
(
-2.56792e-12
-2.56773e-12
-2.56753e-12
-2.56733e-12
-2.56712e-12
-2.56691e-12
-2.5667e-12
-2.56647e-12
-2.56624e-12
-2.56601e-12
-2.56577e-12
-2.56552e-12
-2.56526e-12
-2.565e-12
-2.56473e-12
-2.56445e-12
-2.56416e-12
-2.56386e-12
-2.56355e-12
-2.56324e-12
-2.56291e-12
-2.56257e-12
-2.56222e-12
-2.56186e-12
-2.56148e-12
-2.5611e-12
-2.56069e-12
-2.56028e-12
-2.55984e-12
-2.55939e-12
-2.55892e-12
-2.55842e-12
-2.55791e-12
-2.55736e-12
-2.55678e-12
-2.55616e-12
-2.55551e-12
-2.55482e-12
-2.55406e-12
-2.55317e-12
-2.55222e-12
-2.5513e-12
-2.5502e-12
-2.54877e-12
-2.54699e-12
-2.54481e-12
-3.56692e-12
-7.18575e-10
-8.46891e-08
-1.82717e-07
-2.57491e-07
-3.17777e-07
-3.67868e-07
-4.10316e-07
-4.46858e-07
-4.78746e-07
-5.06913e-07
-5.32066e-07
-5.54749e-07
-5.75383e-07
-5.943e-07
-6.11762e-07
-6.27979e-07
-6.43122e-07
-6.57328e-07
-6.70711e-07
-6.83366e-07
-6.95372e-07
-7.06795e-07
-7.17691e-07
-7.2811e-07
-7.38091e-07
-7.4767e-07
-7.56878e-07
-7.65742e-07
-7.74284e-07
-7.82524e-07
-7.90481e-07
-7.98168e-07
-8.056e-07
-8.12788e-07
-8.19741e-07
-8.26469e-07
-8.32977e-07
-8.39272e-07
-8.45359e-07
-8.51241e-07
-8.56922e-07
-8.62402e-07
-8.67684e-07
-8.72767e-07
-8.77652e-07
-8.82337e-07
-8.86821e-07
-8.91102e-07
-8.95178e-07
-8.99046e-07
-9.02705e-07
-9.06152e-07
-9.09385e-07
)
;
    }
    inandouthalf31
    {
        type            cyclic;
        value           nonuniform List<scalar> 
110
(
9.12405e-07
9.3381e-07
9.5553e-07
9.77553e-07
9.99867e-07
1.02246e-06
1.04532e-06
1.06845e-06
1.09182e-06
1.11546e-06
1.13934e-06
1.16348e-06
1.18787e-06
1.21254e-06
1.23749e-06
1.26272e-06
1.28825e-06
1.31408e-06
1.34024e-06
1.36672e-06
1.39354e-06
1.4207e-06
1.44821e-06
1.47607e-06
1.5043e-06
1.5329e-06
1.56188e-06
1.59124e-06
1.62099e-06
1.65113e-06
1.68168e-06
1.71264e-06
1.74402e-06
1.77583e-06
1.80809e-06
1.84079e-06
1.87396e-06
1.90761e-06
1.94177e-06
1.97644e-06
2.01165e-06
2.04744e-06
2.08383e-06
2.12087e-06
2.15862e-06
2.19715e-06
2.23655e-06
2.27696e-06
2.3186e-06
2.36182e-06
2.40804e-06
2.45673e-06
2.50659e-06
2.55746e-06
2.60937e-06
2.66233e-06
2.71637e-06
2.77151e-06
2.82776e-06
2.88515e-06
2.94371e-06
3.00346e-06
3.06443e-06
3.12663e-06
3.19009e-06
3.25484e-06
3.3209e-06
3.38831e-06
3.45708e-06
3.52725e-06
3.59884e-06
3.67189e-06
3.74642e-06
3.82246e-06
3.90005e-06
3.97921e-06
4.05998e-06
4.14238e-06
4.22646e-06
4.31225e-06
4.39978e-06
4.48908e-06
4.5802e-06
4.67316e-06
4.76802e-06
4.86479e-06
4.96354e-06
5.06428e-06
5.16707e-06
5.27195e-06
5.37896e-06
5.48814e-06
5.59953e-06
5.71319e-06
5.82915e-06
5.94747e-06
6.06818e-06
6.19135e-06
6.31702e-06
6.44524e-06
6.57606e-06
6.70954e-06
6.84572e-06
6.98467e-06
7.12644e-06
7.27109e-06
7.41867e-06
7.56925e-06
7.72289e-06
7.87964e-06
)
;
    }
    inandouthalf32
    {
        type            cyclic;
        value           nonuniform List<scalar> 
110
(
-9.12405e-07
-9.3381e-07
-9.5553e-07
-9.77553e-07
-9.99867e-07
-1.02246e-06
-1.04532e-06
-1.06845e-06
-1.09182e-06
-1.11546e-06
-1.13934e-06
-1.16348e-06
-1.18787e-06
-1.21254e-06
-1.23749e-06
-1.26272e-06
-1.28825e-06
-1.31408e-06
-1.34024e-06
-1.36672e-06
-1.39354e-06
-1.4207e-06
-1.44821e-06
-1.47607e-06
-1.5043e-06
-1.5329e-06
-1.56188e-06
-1.59124e-06
-1.62099e-06
-1.65113e-06
-1.68168e-06
-1.71264e-06
-1.74402e-06
-1.77583e-06
-1.80809e-06
-1.84079e-06
-1.87396e-06
-1.90761e-06
-1.94177e-06
-1.97644e-06
-2.01165e-06
-2.04744e-06
-2.08383e-06
-2.12087e-06
-2.15862e-06
-2.19715e-06
-2.23655e-06
-2.27696e-06
-2.3186e-06
-2.36182e-06
-2.40804e-06
-2.45673e-06
-2.50659e-06
-2.55746e-06
-2.60937e-06
-2.66233e-06
-2.71637e-06
-2.77151e-06
-2.82776e-06
-2.88515e-06
-2.94371e-06
-3.00346e-06
-3.06443e-06
-3.12663e-06
-3.19009e-06
-3.25484e-06
-3.3209e-06
-3.38831e-06
-3.45708e-06
-3.52725e-06
-3.59884e-06
-3.67189e-06
-3.74642e-06
-3.82246e-06
-3.90005e-06
-3.97921e-06
-4.05998e-06
-4.14238e-06
-4.22646e-06
-4.31225e-06
-4.39978e-06
-4.48908e-06
-4.5802e-06
-4.67316e-06
-4.76802e-06
-4.86479e-06
-4.96354e-06
-5.06428e-06
-5.16707e-06
-5.27195e-06
-5.37896e-06
-5.48814e-06
-5.59953e-06
-5.71319e-06
-5.82915e-06
-5.94747e-06
-6.06818e-06
-6.19135e-06
-6.31702e-06
-6.44524e-06
-6.57606e-06
-6.70954e-06
-6.84572e-06
-6.98467e-06
-7.12644e-06
-7.27109e-06
-7.41867e-06
-7.56925e-06
-7.72289e-06
-7.87964e-06
)
;
    }
    inandouthalf41
    {
        type            cyclic;
        value           nonuniform List<scalar> 
50
(
7.05308e-06
7.05308e-06
7.05308e-06
7.05308e-06
7.05308e-06
7.05308e-06
7.05308e-06
7.05308e-06
7.05308e-06
7.05308e-06
7.05308e-06
7.05308e-06
7.05308e-06
7.05308e-06
7.05308e-06
7.05308e-06
7.05308e-06
7.05308e-06
7.05308e-06
7.05308e-06
7.05308e-06
7.05308e-06
7.05308e-06
7.05308e-06
7.05308e-06
7.05308e-06
7.05308e-06
7.05308e-06
7.05308e-06
7.05308e-06
7.05308e-06
7.05308e-06
7.05308e-06
7.05308e-06
7.05308e-06
7.05308e-06
7.05308e-06
7.05308e-06
7.05308e-06
7.05308e-06
7.05308e-06
7.05308e-06
7.05308e-06
7.05308e-06
7.05308e-06
7.05308e-06
7.05308e-06
7.05308e-06
7.05308e-06
7.05308e-06
)
;
    }
    inandouthalf42
    {
        type            cyclic;
        value           nonuniform List<scalar> 
50
(
-7.05308e-06
-7.05308e-06
-7.05308e-06
-7.05308e-06
-7.05308e-06
-7.05308e-06
-7.05308e-06
-7.05308e-06
-7.05308e-06
-7.05308e-06
-7.05308e-06
-7.05308e-06
-7.05308e-06
-7.05308e-06
-7.05308e-06
-7.05308e-06
-7.05308e-06
-7.05308e-06
-7.05308e-06
-7.05308e-06
-7.05308e-06
-7.05308e-06
-7.05308e-06
-7.05308e-06
-7.05308e-06
-7.05308e-06
-7.05308e-06
-7.05308e-06
-7.05308e-06
-7.05308e-06
-7.05308e-06
-7.05308e-06
-7.05308e-06
-7.05308e-06
-7.05308e-06
-7.05308e-06
-7.05308e-06
-7.05308e-06
-7.05308e-06
-7.05308e-06
-7.05308e-06
-7.05308e-06
-7.05308e-06
-7.05308e-06
-7.05308e-06
-7.05308e-06
-7.05308e-06
-7.05308e-06
-7.05308e-06
-7.05308e-06
)
;
    }
    top
    {
        type            symmetryPlane;
        value           uniform 0;
    }
    walls
    {
        type            fixedValue;
        value           uniform 0;
    }
    frontAndBackPlanes
    {
        type            empty;
        value           nonuniform 0();
    }
}


// ************************************************************************* //
