/*--------------------------------*- C++ -*----------------------------------*\
| =========                 |                                                 |
| \\      /  F ield         | OpenFOAM: The Open Source CFD Toolbox           |
|  \\    /   O peration     | Version:  2.4.x                                 |
|   \\  /    A nd           | Web:      www.OpenFOAM.org                      |
|    \\/     M anipulation  |                                                 |
\*---------------------------------------------------------------------------*/
FoamFile
{
    version     2.0;
    format      ascii;
    class       volVectorField;
    location    "5.3";
    object      susb;
}
// * * * * * * * * * * * * * * * * * * * * * * * * * * * * * * * * * * * * * //

dimensions      [0 1 -2 0 0 0 0];

internalField   nonuniform List<vector> 
360
(
(0 4.73334e-18 0)
(0 5.67366e-18 0)
(0 4.7724e-19 0)
(0 -7.9282e-19 0)
(-7.37523e-31 -5.19242e-19 0)
(-7.37403e-31 -3.18311e-19 0)
(-3.68648e-31 -3.14078e-19 0)
(0 -3.29489e-19 0)
(-3.6853e-31 -3.3786e-19 0)
(0 -3.50912e-19 0)
(-3.68405e-31 -3.57291e-19 0)
(0 -3.58773e-19 0)
(-3.68277e-31 -3.59447e-19 0)
(0 -3.59953e-19 0)
(0 -3.63263e-19 0)
(0 -3.67679e-19 0)
(0 -3.71006e-19 0)
(-3.67951e-31 -3.73308e-19 0)
(0 -3.77564e-19 0)
(0 -3.79441e-19 0)
(0 -3.81619e-19 0)
(-3.6768e-31 -3.86418e-19 0)
(0 -3.89339e-19 0)
(0 -3.93154e-19 0)
(0 -3.97255e-19 0)
(-7.348e-31 -4.00616e-19 0)
(0 -4.06539e-19 0)
(0 -4.12913e-19 0)
(0 -4.16869e-19 0)
(0 -4.20968e-19 0)
(0 -4.26996e-19 0)
(0 -4.27258e-19 0)
(0 -4.29255e-19 0)
(0 -4.28912e-19 0)
(0 -4.23084e-19 0)
(3.6665e-31 -4.18914e-19 0)
(0 -4.14787e-19 0)
(0 -4.16954e-19 0)
(0 -4.15682e-19 0)
(0 -4.26815e-19 0)
(0 -4.52031e-19 0)
(0 -4.81524e-19 0)
(7.32207e-31 -5.37563e-19 0)
(0 -6.10579e-19 0)
(0 -6.87028e-19 0)
(0 -7.48923e-19 0)
(0 -7.42284e-19 0)
(0 -6.52835e-19 0)
(0 -5.123e-19 0)
(0 -3.6298e-19 0)
(3.65258e-31 -2.67769e-19 0)
(0 -2.34358e-19 0)
(0 -2.32104e-19 0)
(0 -2.41164e-19 0)
(0 -2.58493e-19 0)
(0 -2.74873e-19 0)
(0 -2.8992e-19 0)
(0 -3.09054e-19 0)
(0 -3.1963e-19 0)
(0 -3.3915e-19 0)
(0 -3.54306e-19 0)
(0 -3.65001e-19 0)
(0 -3.77082e-19 0)
(0 -3.84546e-19 0)
(0 -3.93841e-19 0)
(0 -4.05255e-19 0)
(0 -4.1992e-19 0)
(0 -4.33744e-19 0)
(0 -4.46882e-19 0)
(0 -4.66365e-19 0)
(0 -4.88595e-19 0)
(0 -5.00335e-19 0)
(0 -5.15141e-19 0)
(0 -5.32038e-19 0)
(0 -5.45279e-19 0)
(0 -5.56339e-19 0)
(0 -5.65354e-19 0)
(0 -5.78613e-19 0)
(0 -5.92585e-19 0)
(0 -6.05928e-19 0)
(0 -6.21075e-19 0)
(0 -6.38592e-19 0)
(0 -6.55329e-19 0)
(0 -6.71943e-19 0)
(0 -6.88118e-19 0)
(0 -7.03834e-19 0)
(0 -7.18827e-19 0)
(0 -7.33105e-19 0)
(0 -7.48242e-19 0)
(0 -7.64011e-19 0)
(0 -7.80249e-19 0)
(0 -7.97667e-19 0)
(0 -8.16078e-19 0)
(0 -8.34892e-19 0)
(0 -8.54162e-19 0)
(0 -8.73803e-19 0)
(0 -8.93719e-19 0)
(0 -9.13992e-19 0)
(0 -9.34817e-19 0)
(0 -9.56281e-19 0)
(0 -9.78453e-19 0)
(0 -1.00146e-18 0)
(0 -1.02533e-18 0)
(0 -1.05003e-18 0)
(0 -1.07564e-18 0)
(0 -1.1022e-18 0)
(0 -1.12978e-18 0)
(0 -1.15846e-18 0)
(0 -1.18831e-18 0)
(0 -1.21941e-18 0)
(0 -1.25183e-18 0)
(0 -1.28564e-18 0)
(0 -1.32089e-18 0)
(0 -1.35767e-18 0)
(0 -1.39605e-18 0)
(0 -1.43612e-18 0)
(0 -1.47795e-18 0)
(0 -1.52166e-18 0)
(0 -1.56735e-18 0)
(0 -1.61515e-18 0)
(0 -1.66515e-18 0)
(0 -1.71744e-18 0)
(0 -1.77212e-18 0)
(0 -1.82935e-18 0)
(0 -1.88955e-18 0)
(0 -1.95352e-18 0)
(0 -2.02238e-18 0)
(0 -2.09719e-18 0)
(0 -2.17802e-18 0)
(0 -2.26346e-18 0)
(0 -2.35231e-18 0)
(0 -2.4487e-18 0)
(0 -4.17768e-18 0)
(0 -1.80568e-17 0)
(0 -8.8383e-17 0)
(0 -4.58237e-16 0)
(0 -2.56882e-15 0)
(0 -1.62617e-14 0)
(0 -1.19754e-13 0)
(0 -9.90347e-13 0)
(0 -8.63106e-12 0)
(0 -9.28179e-11 0)
(0 -1.38842e-09 0)
(0 -2.5311e-08 0)
(0 -6.81303e-07 0)
(0 -3.96468e-05 0)
(0 -0.0124098 0)
(0 -1.11104 0)
(0 -2.97183 0)
(0 -1.66216 0)
(0 -1.04431 0)
(0 -0.899025 0)
(0 -0.791532 0)
(0 -0.692666 0)
(0 -0.598229 0)
(0 -0.510511 0)
(0 -0.431929 0)
(0 -0.363597 0)
(0 -0.305418 0)
(0 -0.256547 0)
(0 -0.215809 0)
(0 -0.18197 0)
(0 -0.153883 0)
(0 -0.130544 0)
(0 -0.111107 0)
(0 -0.0948705 0)
(0 -0.0812632 0)
(0 -0.0698188 0)
(0 -0.0601588 0)
(0 -0.0519759 0)
(0 -0.0450202 0)
(0 -0.0390875 0)
(0 -0.0340111 0)
(0 -0.0296537 0)
(0 -0.0259025 0)
(0 -0.0226641 0)
(0 -0.0198608 0)
(0 -0.0174281 0)
(0 -0.015312 0)
(0 -0.0134684 0)
(0 -0.0118612 0)
(0 -0.0104627 0)
(0 -0.00925071 0)
(0 -0.00820564 0)
(0 -0.00730554 0)
(0 -0.00652302 0)
(0 -0.00582564 0)
(0 -0.00518143 0)
(0 -0.00456767 0)
(0 -0.0039773 0)
(0 -0.00341663 0)
(0 -0.00289634 0)
(0 -0.00242897 0)
(0 -0.00203196 0)
(0 -0.00171764 0)
(0 -0.00147567 0)
(0 -0.0012767 0)
(0 -0.00109515 0)
(0 -0.00092388 0)
(0 -0.000770106 0)
(0 -0.000639103 0)
(0 -0.000525831 0)
(-1.66001e-19 -0.000430061 0)
(0 -0.000356759 0)
(0 -0.000296714 0)
(7.81087e-20 -0.000242104 0)
(0 -0.000200245 0)
(-7.56065e-20 -0.000169317 0)
(0 -0.000140418 0)
(3.68612e-20 -0.000116287 0)
(0 -9.84391e-05 0)
(0 -8.26715e-05 0)
(0 -6.96951e-05 0)
(3.55558e-20 -5.92769e-05 0)
(0 -4.93145e-05 0)
(0 -4.18485e-05 0)
(0 -3.59627e-05 0)
(0 -2.94827e-05 0)
(0 -2.45794e-05 0)
(-8.24979e-21 -2.09703e-05 0)
(0 -1.73239e-05 0)
(-3.95464e-21 -1.43049e-05 0)
(0 -1.17322e-05 0)
(0 -9.7304e-06 0)
(0 -8.0903e-06 0)
(0 -6.4257e-06 0)
(0 -5.23635e-06 0)
(0 -4.2621e-06 0)
(7.83864e-22 -3.33411e-06 0)
(7.49658e-22 -2.63405e-06 0)
(0 -2.07322e-06 0)
(0 -1.64601e-06 0)
(0 -1.33027e-06 0)
(0 -9.02499e-07 0)
(0 -5.99978e-07 0)
(0 -1.66028e-07 0)
(0 -8.69994e-08 0)
(0 -4.03253e-07 0)
(0 -3.7312e-07 0)
(0 -8.58637e-08 0)
(0 -1.59206e-20 0)
(0 -1.51885e-21 0)
(0 -5.59784e-22 0)
(-1.03473e-37 -2.43813e-22 0)
(8.87774e-38 -1.23164e-22 0)
(0 -8.53549e-23 0)
(0 -7.96799e-23 0)
(-4.29999e-38 -7.60183e-23 0)
(0 -5.89706e-23 0)
(0 -2.13678e-23 0)
(-1.60843e-40 -1.30895e-24 0)
(0 -1.12014e-26 0)
(0 -7.05154e-29 0)
(0 -4.72729e-31 0)
(0 -3.2997e-33 0)
(0 -2.65967e-35 0)
(0 -2.91813e-37 0)
(0 -3.41551e-39 0)
(0 -3.47055e-41 0)
(0 -1.09739e-41 0)
(0 -4.12728e-42 0)
(0 -1.86126e-42 0)
(0 -9.37868e-43 0)
(0 -5.57037e-43 0)
(0 -4.06476e-43 0)
(0 -2.54603e-43 0)
(1.67271e-59 -1.12138e-43 0)
(0 -5.15772e-44 0)
(0 -2.61139e-44 0)
(0 -1.383e-44 0)
(0 -7.10748e-45 0)
(0 -3.44221e-45 0)
(0 -1.68464e-45 0)
(0 -8.10703e-46 0)
(0 -3.82425e-46 0)
(0 -1.76702e-46 0)
(0 -7.99118e-47 0)
(0 -3.53432e-47 0)
(0 -1.5274e-47 0)
(0 -6.444e-48 0)
(0 -2.6515e-48 0)
(0 -1.06295e-48 0)
(0 -4.14708e-49 0)
(0 -1.57276e-49 0)
(0 -5.79056e-50 0)
(0 -2.06693e-50 0)
(0 -7.14226e-51 0)
(0 -2.38538e-51 0)
(0 -7.6866e-52 0)
(0 -2.38531e-52 0)
(0 -7.11359e-53 0)
(0 -2.03411e-53 0)
(0 -5.56296e-54 0)
(0 -1.451e-54 0)
(0 -3.5983e-55 0)
(0 -8.45405e-56 0)
(2.08142e-72 -1.87428e-56 0)
(0 -3.90319e-57 0)
(0 -7.595e-58 0)
(0 -1.37239e-58 0)
(0 -2.28613e-59 0)
(0 -3.47997e-60 0)
(0 -4.78879e-61 0)
(0 -5.87722e-62 0)
(0 -6.32136e-63 0)
(0 -5.8198e-64 0)
(0 -4.43545e-65 0)
(0 -2.65837e-66 0)
(0 -1.14622e-67 0)
(0 -2.92666e-69 0)
(0 -1.98881e-71 0)
(0 -8.78735e-75 0)
(0 -1.0996e-76 0)
(0 -6.82866e-79 0)
(0 -1.69274e-89 0)
(0 -2.08803e-100 0)
(0 -1.82339e-111 0)
(0 -1.17253e-122 0)
(0 -6.25762e-134 0)
(0 -2.68021e-145 0)
(0 -1.00241e-156 0)
(0 -7.63756e-166 0)
(0 -2.51718e-176 0)
(0 -2.63173e-184 0)
(0 -7.78684e-195 0)
(0 -9.05329e-203 0)
(0 -3.18921e-213 0)
(0 -3.11429e-221 0)
(0 -1.38106e-231 0)
(0 -1.07219e-239 0)
(0 -8.99373e-250 0)
(0 -3.73179e-258 0)
(0 -5.91786e-268 0)
(0 -1.32045e-276 0)
(0 -2.95109e-286 0)
(0 -4.74741e-295 0)
(0 -1.39867e-304 0)
(0 -1.73252e-313 0)
(0 -5.92879e-323 0)
(0 -0 0)
(0 0 0)
(0 0 0)
(0 0 0)
(0 0 0)
(0 0 0)
(0 0 0)
(0 0 0)
(0 0 0)
(0 0 0)
(0 0 0)
(0 0 0)
(0 0 0)
(0 0 0)
(0 0 0)
(0 0 0)
(0 0 0)
(0 0 0)
(0 0 0)
(0 0 0)
(0 0 0)
)
;

boundaryField
{
    inandouthalf11
    {
        type            cyclic;
    }
    inandouthalf12
    {
        type            cyclic;
    }
    inandouthalf21
    {
        type            cyclic;
    }
    inandouthalf22
    {
        type            cyclic;
    }
    inandouthalf31
    {
        type            cyclic;
    }
    inandouthalf32
    {
        type            cyclic;
    }
    inandouthalf41
    {
        type            cyclic;
    }
    inandouthalf42
    {
        type            cyclic;
    }
    top
    {
        type            symmetryPlane;
    }
    walls
    {
        type            zeroGradient;
    }
    frontAndBackPlanes
    {
        type            empty;
    }
}


// ************************************************************************* //
