/*--------------------------------*- C++ -*----------------------------------*\
| =========                 |                                                 |
| \\      /  F ield         | OpenFOAM: The Open Source CFD Toolbox           |
|  \\    /   O peration     | Version:  2.4.x                                 |
|   \\  /    A nd           | Web:      www.OpenFOAM.org                      |
|    \\/     M anipulation  |                                                 |
\*---------------------------------------------------------------------------*/
FoamFile
{
    version     2.0;
    format      ascii;
    class       volScalarField;
    location    "5.3";
    object      Theta;
}
// * * * * * * * * * * * * * * * * * * * * * * * * * * * * * * * * * * * * * //

dimensions      [0 2 -2 0 0 0 0];

internalField   nonuniform List<scalar> 
360
(
6.6684e-21
6.68666e-21
6.68051e-21
6.67747e-21
6.67822e-21
6.67931e-21
6.67985e-21
6.68007e-21
6.6802e-21
6.68036e-21
6.6806e-21
6.68089e-21
6.68118e-21
6.68146e-21
6.68171e-21
6.68197e-21
6.68222e-21
6.68248e-21
6.68274e-21
6.68299e-21
6.68325e-21
6.68353e-21
6.68384e-21
6.6842e-21
6.68462e-21
6.6851e-21
6.68566e-21
6.68628e-21
6.68691e-21
6.68749e-21
6.68792e-21
6.68811e-21
6.68796e-21
6.68743e-21
6.68655e-21
6.68547e-21
6.68443e-21
6.68376e-21
6.68382e-21
6.68512e-21
6.68839e-21
6.69487e-21
6.70657e-21
6.72617e-21
6.75431e-21
6.78203e-21
6.78563e-21
6.74979e-21
6.70017e-21
6.6711e-21
6.66271e-21
6.66146e-21
6.66136e-21
6.66135e-21
6.66135e-21
6.66135e-21
6.66135e-21
6.66135e-21
6.66135e-21
6.66135e-21
6.66135e-21
6.66135e-21
6.66135e-21
6.66135e-21
6.66135e-21
6.66135e-21
6.66134e-21
6.66134e-21
6.66134e-21
6.66134e-21
6.66134e-21
6.66134e-21
6.66134e-21
6.66134e-21
6.66134e-21
6.66134e-21
6.66134e-21
6.66134e-21
6.66133e-21
6.66133e-21
6.66133e-21
6.66133e-21
6.66133e-21
6.66133e-21
6.66133e-21
6.66133e-21
6.66133e-21
6.66132e-21
6.66132e-21
6.66132e-21
6.66132e-21
6.66132e-21
6.66132e-21
6.66132e-21
6.66132e-21
6.66131e-21
6.66131e-21
6.66131e-21
6.66131e-21
6.66131e-21
6.66131e-21
6.6613e-21
6.6613e-21
6.6613e-21
6.6613e-21
6.6613e-21
6.6613e-21
6.66129e-21
6.66129e-21
6.66129e-21
6.66129e-21
6.66129e-21
6.66128e-21
6.66128e-21
6.66128e-21
6.66128e-21
6.66127e-21
6.66127e-21
6.66127e-21
6.66127e-21
6.66126e-21
6.66126e-21
6.66126e-21
6.66126e-21
6.66125e-21
6.66125e-21
6.66125e-21
6.66124e-21
6.66124e-21
6.66123e-21
6.66123e-21
6.66127e-21
1.52817e-20
7.16074e-20
3.76664e-19
2.14037e-18
1.33161e-17
9.22256e-17
7.23428e-16
6.53219e-15
6.88515e-14
8.58215e-13
1.28464e-11
2.35935e-10
6.83343e-09
4.74371e-07
1.6421e-05
0.000229377
0.00141323
0.00270313
0.00332989
0.00374577
0.0040667
0.00433533
0.00456707
0.0047671
0.00493717
0.00507854
0.00519277
0.00528193
0.0053483
0.00539426
0.00542207
0.00543385
0.0054315
0.00541672
0.00539099
0.00535566
0.0053119
0.00526077
0.00520325
0.0051402
0.00507245
0.00500073
0.00492576
0.00484821
0.00476869
0.00468779
0.00460608
0.00452407
0.00444224
0.00436104
0.00428088
0.0042021
0.00412503
0.0040499
0.00397692
0.00390621
0.00383782
0.00377175
0.00370796
0.00364636
0.00358686
0.00352932
0.00347363
0.00341967
0.0033673
0.00331637
0.00326672
0.00321819
0.00317064
0.00312346
0.00307605
0.00302833
0.00298019
0.00293152
0.00288222
0.00283218
0.0027813
0.00272947
0.00267657
0.00262251
0.00256717
0.00251043
0.00245218
0.00239229
0.00233062
0.00226705
0.00220143
0.00213359
0.00206336
0.00199054
0.00191493
0.00183629
0.00175431
0.0016687
0.00157904
0.00148489
0.00138565
0.00128059
0.00116876
0.00104883
0.000918904
0.000776029
0.000614999
0.000424499
0
0
0
0
0
0
0
0
0
0
0
0
0
0
0
0
0
0
0
0
0
0
0
0
0
0
0
0
0
0
0
0
0
0
0
0
0
0
0
0
0
0
0
0
0
0
0
0
0
0
0
0
0
0
0
0
0
0
0
0
0
0
0
0
0
0
0
0
0
0
0
0
0
0
0
0
0
0
0
0
0
0
0
0
0
0
0
0
0
0
0
0
0
0
0
0
0
0
0
0
0
0
0
0
0
0
0
0
0
0
0
0
0
0
0
0
0
0
0
0
0
0
0
0
)
;

boundaryField
{
    inandouthalf11
    {
        type            cyclic;
    }
    inandouthalf12
    {
        type            cyclic;
    }
    inandouthalf21
    {
        type            cyclic;
    }
    inandouthalf22
    {
        type            cyclic;
    }
    inandouthalf31
    {
        type            cyclic;
    }
    inandouthalf32
    {
        type            cyclic;
    }
    inandouthalf41
    {
        type            cyclic;
    }
    inandouthalf42
    {
        type            cyclic;
    }
    top
    {
        type            symmetryPlane;
    }
    walls
    {
        type            zeroGradient;
    }
    frontAndBackPlanes
    {
        type            empty;
    }
}


// ************************************************************************* //
