/*--------------------------------*- C++ -*----------------------------------*\
| =========                 |                                                 |
| \\      /  F ield         | OpenFOAM: The Open Source CFD Toolbox           |
|  \\    /   O peration     | Version:  2.4.x                                 |
|   \\  /    A nd           | Web:      www.OpenFOAM.org                      |
|    \\/     M anipulation  |                                                 |
\*---------------------------------------------------------------------------*/
FoamFile
{
    version     2.0;
    format      ascii;
    class       volVectorField;
    location    "5.3";
    object      U;
}
// * * * * * * * * * * * * * * * * * * * * * * * * * * * * * * * * * * * * * //

dimensions      [0 1 -1 0 0 0 0];

internalField   nonuniform List<vector> 
360
(
(1.22397e-07 3.57658e-08 0)
(8.52551e-08 -4.27094e-09 0)
(4.24231e-08 -7.25749e-09 0)
(4.60744e-09 -9.16347e-10 0)
(-3.26574e-08 1.17032e-09 0)
(-7.13843e-08 7.12584e-10 0)
(-1.11281e-07 2.31073e-10 0)
(-1.51856e-07 8.17551e-11 0)
(-1.92895e-07 7.36633e-11 0)
(-2.34371e-07 1.30158e-10 0)
(-2.7636e-07 1.89456e-10 0)
(-3.18942e-07 2.07685e-10 0)
(-3.62154e-07 1.96982e-10 0)
(-4.05992e-07 1.76687e-10 0)
(-4.50436e-07 1.65816e-10 0)
(-4.95481e-07 1.66087e-10 0)
(-5.41134e-07 1.67218e-10 0)
(-5.87405e-07 1.66373e-10 0)
(-6.34298e-07 1.62552e-10 0)
(-6.81821e-07 1.64711e-10 0)
(-7.29982e-07 1.64228e-10 0)
(-7.78797e-07 1.83559e-10 0)
(-8.28303e-07 2.10078e-10 0)
(-8.78552e-07 2.42808e-10 0)
(-9.29611e-07 2.82805e-10 0)
(-9.81557e-07 3.27287e-10 0)
(-1.03447e-06 3.66891e-10 0)
(-1.08844e-06 3.95729e-10 0)
(-1.14352e-06 3.80161e-10 0)
(-1.1997e-06 3.15116e-10 0)
(-1.25687e-06 1.86563e-10 0)
(-1.31484e-06 1.04439e-11 0)
(-1.3733e-06 -2.40516e-10 0)
(-1.43184e-06 -4.66524e-10 0)
(-1.49006e-06 -6.82661e-10 0)
(-1.54759e-06 -7.58242e-10 0)
(-1.60431e-06 -6.52321e-10 0)
(-1.66042e-06 -2.99937e-10 0)
(-1.71658e-06 3.56349e-10 0)
(-1.774e-06 1.32251e-09 0)
(-1.83456e-06 2.77295e-09 0)
(-1.90102e-06 4.71922e-09 0)
(-1.97712e-06 7.14729e-09 0)
(-2.06755e-06 9.65007e-09 0)
(-2.17694e-06 1.04417e-08 0)
(-2.30646e-06 6.41572e-09 0)
(-2.44797e-06 -4.48011e-09 0)
(-2.58043e-06 -1.75589e-08 0)
(-2.67921e-06 -2.26383e-08 0)
(-2.73465e-06 -1.68743e-08 0)
(-2.75742e-06 -8.06639e-09 0)
(-2.76434e-06 -2.61986e-09 0)
(-2.76598e-06 -6.5842e-10 0)
(-2.76631e-06 -1.34923e-10 0)
(-2.76636e-06 -6.73602e-11 0)
(-2.76635e-06 -5.95825e-12 0)
(-2.76633e-06 -3.83606e-11 0)
(-2.76631e-06 -1.33058e-11 0)
(-2.76628e-06 -1.03451e-11 0)
(-2.76625e-06 -4.07187e-11 0)
(-2.76621e-06 3.40256e-12 0)
(-2.76618e-06 -2.67178e-11 0)
(-2.76614e-06 -8.66e-13 0)
(-2.76611e-06 -1.23032e-11 0)
(-2.76607e-06 -6.57617e-12 0)
(-2.76603e-06 -1.89545e-11 0)
(-2.76599e-06 -1.67867e-11 0)
(-2.76595e-06 -1.64348e-11 0)
(-2.76591e-06 -1.47629e-11 0)
(-2.76587e-06 -3.63324e-11 0)
(-2.76583e-06 -2.34437e-11 0)
(-2.76578e-06 -3.71062e-12 0)
(-2.76573e-06 -3.30884e-11 0)
(-2.76569e-06 -1.03434e-11 0)
(-2.76564e-06 -2.17602e-11 0)
(-2.76558e-06 -3.62034e-12 0)
(-2.76553e-06 -1.54651e-11 0)
(-2.76548e-06 -1.69632e-11 0)
(-2.76542e-06 -1.77783e-11 0)
(-2.76537e-06 -1.50858e-11 0)
(-2.76531e-06 -2.3496e-11 0)
(-2.76525e-06 -2.25796e-11 0)
(-2.76519e-06 -2.11469e-11 0)
(-2.76513e-06 -2.22856e-11 0)
(-2.76506e-06 -1.98676e-11 0)
(-2.765e-06 -2.09508e-11 0)
(-2.76493e-06 -1.77093e-11 0)
(-2.76486e-06 -1.88256e-11 0)
(-2.76479e-06 -2.05122e-11 0)
(-2.76472e-06 -2.09205e-11 0)
(-2.76465e-06 -2.21018e-11 0)
(-2.76457e-06 -2.4732e-11 0)
(-2.7645e-06 -2.53324e-11 0)
(-2.76442e-06 -2.61141e-11 0)
(-2.76434e-06 -2.6882e-11 0)
(-2.76426e-06 -2.73954e-11 0)
(-2.76417e-06 -2.78633e-11 0)
(-2.76409e-06 -2.86391e-11 0)
(-2.764e-06 -2.9714e-11 0)
(-2.76391e-06 -3.07648e-11 0)
(-2.76382e-06 -3.20588e-11 0)
(-2.76372e-06 -3.35135e-11 0)
(-2.76363e-06 -3.48697e-11 0)
(-2.76353e-06 -3.62834e-11 0)
(-2.76343e-06 -3.7813e-11 0)
(-2.76332e-06 -3.94073e-11 0)
(-2.76321e-06 -4.11224e-11 0)
(-2.7631e-06 -4.29794e-11 0)
(-2.76299e-06 -4.4946e-11 0)
(-2.76287e-06 -4.70205e-11 0)
(-2.76275e-06 -4.92042e-11 0)
(-2.76263e-06 -5.14908e-11 0)
(-2.7625e-06 -5.38876e-11 0)
(-2.76237e-06 -5.6402e-11 0)
(-2.76224e-06 -5.90367e-11 0)
(-2.7621e-06 -6.18026e-11 0)
(-2.76195e-06 -6.47213e-11 0)
(-2.7618e-06 -6.78127e-11 0)
(-2.76165e-06 -7.10858e-11 0)
(-2.76149e-06 -7.45356e-11 0)
(-2.76133e-06 -7.81392e-11 0)
(-2.76116e-06 -8.18664e-11 0)
(-2.76098e-06 -8.57542e-11 0)
(-2.7608e-06 -9.00379e-11 0)
(-2.76061e-06 -9.52346e-11 0)
(-2.76042e-06 -1.0204e-10 0)
(-2.76022e-06 -1.1086e-10 0)
(-2.76001e-06 -1.20986e-10 0)
(-2.75979e-06 -1.30061e-10 0)
(-2.75956e-06 -1.3573e-10 0)
(-2.75932e-06 -1.40988e-10 0)
(-2.75907e-06 -1.59729e-10 0)
(-2.75881e-06 -2.04383e-10 0)
(-2.75854e-06 -2.50646e-10 0)
(-2.75824e-06 -2.47284e-10 0)
(-2.75793e-06 -2.18732e-10 0)
(-2.7576e-06 -2.89078e-10 0)
(-2.75724e-06 -5.48905e-10 0)
(-2.75685e-06 -8.32786e-10 0)
(-2.7564e-06 -5.26803e-10 0)
(-2.75591e-06 3.71155e-10 0)
(-2.75544e-06 -1.2846e-09 0)
(-2.75487e-06 -2.37695e-09 0)
(-2.75413e-06 -2.36542e-09 0)
(-2.7532e-06 -1.00789e-08 0)
(-2.75196e-06 1.50656e-07 0)
(-3.1641e-06 -2.64035e-06 0)
(-0.000332217 1.0453e-05 0)
(-0.0819791 2.25037e-05 0)
(-0.180632 -9.08267e-06 0)
(-0.256117 3.08906e-06 0)
(-0.316868 1.28903e-06 0)
(-0.367247 5.92231e-07 0)
(-0.409877 3.0461e-07 0)
(-0.446537 1.46406e-07 0)
(-0.478502 3.81051e-08 0)
(-0.506721 -3.10787e-08 0)
(-0.53191 -6.97495e-08 0)
(-0.554618 -8.78022e-08 0)
(-0.575271 -9.3136e-08 0)
(-0.594203 -9.11661e-08 0)
(-0.611677 -8.53851e-08 0)
(-0.627904 -7.7918e-08 0)
(-0.643054 -6.98175e-08 0)
(-0.657266 -6.19043e-08 0)
(-0.670655 -5.45682e-08 0)
(-0.683314 -4.79134e-08 0)
(-0.695324 -4.19721e-08 0)
(-0.70675 -3.672e-08 0)
(-0.71765 -3.21067e-08 0)
(-0.728071 -2.80692e-08 0)
(-0.738054 -2.45431e-08 0)
(-0.747636 -2.14664e-08 0)
(-0.756846 -1.87812e-08 0)
(-0.765711 -1.64367e-08 0)
(-0.774255 -1.43877e-08 0)
(-0.782497 -1.25957e-08 0)
(-0.790455 -1.10276e-08 0)
(-0.798144 -9.65538e-09 0)
(-0.805578 -8.45051e-09 0)
(-0.812767 -7.38123e-09 0)
(-0.819721 -6.41048e-09 0)
(-0.82645 -5.50352e-09 0)
(-0.832959 -4.64088e-09 0)
(-0.839256 -3.83175e-09 0)
(-0.845344 -3.11339e-09 0)
(-0.851227 -2.53177e-09 0)
(-0.856909 -2.10041e-09 0)
(-0.862391 -1.76036e-09 0)
(-0.867674 -1.41923e-09 0)
(-0.872758 -1.07648e-09 0)
(-0.877644 -8.22285e-10 0)
(-0.882329 -6.20624e-10 0)
(-0.886814 -3.16616e-10 0)
(-0.891096 2.61051e-11 0)
(-0.895172 1.71185e-10 0)
(-0.899042 7.83095e-11 0)
(-0.902701 -7.41694e-11 0)
(-0.906149 -1.13781e-10 0)
(-0.909382 -1.11511e-11 0)
(-0.912399 3.89286e-11 0)
(-0.915228 -3.1892e-11 0)
(-0.917885 3.26192e-11 0)
(-0.92036 1.43099e-10 0)
(-0.922642 -5.16574e-13 0)
(-0.924721 -4.68518e-11 0)
(-0.926591 1.01021e-10 0)
(-0.928247 4.27539e-11 0)
(-0.929688 -4.2292e-11 0)
(-0.930914 3.50984e-11 0)
(-0.93193 2.6358e-11 0)
(-0.932741 -1.27688e-11 0)
(-0.933357 2.6323e-11 0)
(-0.933785 -4.65446e-13 0)
(-0.934037 -1.70534e-11 0)
(-0.934121 3.31416e-11 0)
(-0.934049 -5.554e-12 0)
(-0.933828 -1.89973e-11 0)
(-0.933468 1.91931e-11 0)
(-0.932975 -1.5539e-12 0)
(-0.932357 -4.63659e-12 0)
(-0.931618 1.83086e-12 0)
(-0.930766 -4.85813e-12 0)
(-0.929803 7.07286e-12 0)
(-0.928735 -4.78328e-12 0)
(-0.927565 -4.09636e-12 0)
(-0.926297 4.2253e-12 0)
(-0.924935 -3.99678e-12 0)
(-0.923482 -1.35675e-12 0)
(-0.921943 -1.16375e-12 0)
(-0.92032 -1.55476e-12 0)
(-0.918618 -2.49846e-13 0)
(-0.916841 8.8404e-13 0)
(-0.914993 -6.07684e-12 0)
(-0.913078 2.43044e-12 0)
(-0.911101 -3.82041e-11 0)
(-0.909068 1.01827e-10 0)
(-0.906984 -1.154e-10 0)
(-0.904855 1.82249e-11 0)
(-0.902689 4.29964e-11 0)
(-0.900494 -1.41409e-11 0)
(-0.89828 -4.30282e-12 0)
(-0.89606 1.79365e-11 0)
(-0.893846 -5.82127e-11 0)
(-0.891658 1.17255e-10 0)
(-0.889517 -2.11291e-10 0)
(-0.887456 3.29191e-10 0)
(-0.885518 -4.82436e-10 0)
(-0.883772 6.56339e-10 0)
(-0.882339 -8.56895e-10 0)
(-0.881706 1.0666e-09 0)
(-0.88164 -1.2903e-09 0)
(-0.881638 1.51513e-09 0)
(-0.881637 -1.7501e-09 0)
(-0.881637 1.98624e-09 0)
(-0.881637 -2.2325e-09 0)
(-0.881636 2.48088e-09 0)
(-0.881636 -2.73942e-09 0)
(-0.881636 3.001e-09 0)
(-0.881636 -3.27272e-09 0)
(-0.881636 3.54837e-09 0)
(-0.881636 -3.8341e-09 0)
(-0.881635 4.12461e-09 0)
(-0.881635 -4.42514e-09 0)
(-0.881635 4.73123e-09 0)
(-0.881635 -5.0473e-09 0)
(-0.881635 5.36963e-09 0)
(-0.881635 -5.70196e-09 0)
(-0.881635 6.04114e-09 0)
(-0.881635 -6.39036e-09 0)
(-0.881635 6.747e-09 0)
(-0.881635 -7.11372e-09 0)
(-0.881635 7.48837e-09 0)
(-0.881635 -7.87317e-09 0)
(-0.881635 8.26639e-09 0)
(-0.881635 -8.66981e-09 0)
(-0.881635 9.08211e-09 0)
(-0.881635 -9.50469e-09 0)
(-0.881635 9.93658e-09 0)
(-0.881635 -1.03788e-08 0)
(-0.881635 1.08308e-08 0)
(-0.881635 -1.12932e-08 0)
(-0.881635 1.17657e-08 0)
(-0.881635 -1.22488e-08 0)
(-0.881635 1.27423e-08 0)
(-0.881635 -1.32465e-08 0)
(-0.881635 1.37615e-08 0)
(-0.881635 -1.42873e-08 0)
(-0.881635 1.48241e-08 0)
(-0.881635 -1.5372e-08 0)
(-0.881635 1.59312e-08 0)
(-0.881635 -1.65016e-08 0)
(-0.881635 1.70835e-08 0)
(-0.881635 -1.76767e-08 0)
(-0.881635 1.82817e-08 0)
(-0.881635 -1.88983e-08 0)
(-0.881635 1.95267e-08 0)
(-0.881635 -2.0167e-08 0)
(-0.881635 2.08193e-08 0)
(-0.881635 -2.14836e-08 0)
(-0.881635 2.21601e-08 0)
(-0.881635 -2.28487e-08 0)
(-0.881635 2.35497e-08 0)
(-0.881635 -2.42629e-08 0)
(-0.881635 2.49886e-08 0)
(-0.881635 -2.57266e-08 0)
(-0.881635 2.64773e-08 0)
(-0.881635 -2.72402e-08 0)
(-0.881635 2.80159e-08 0)
(-0.881635 -2.88038e-08 0)
(-0.881635 2.59853e-08 0)
(-0.881635 -2.61966e-08 0)
(-0.881635 2.64059e-08 0)
(-0.881635 -2.66126e-08 0)
(-0.881635 2.68171e-08 0)
(-0.881635 -2.7019e-08 0)
(-0.881635 2.72186e-08 0)
(-0.881635 -2.74156e-08 0)
(-0.881635 2.76103e-08 0)
(-0.881635 -2.78024e-08 0)
(-0.881635 2.7992e-08 0)
(-0.881635 -2.8179e-08 0)
(-0.881635 2.83634e-08 0)
(-0.881635 -2.85453e-08 0)
(-0.881635 2.87244e-08 0)
(-0.881635 -2.8901e-08 0)
(-0.881635 2.90747e-08 0)
(-0.881635 -2.92458e-08 0)
(-0.881635 2.9414e-08 0)
(-0.881635 -2.95797e-08 0)
(-0.881635 2.9742e-08 0)
(-0.881635 -2.99021e-08 0)
(-0.881635 3.00585e-08 0)
(-0.881635 -3.02128e-08 0)
(-0.881635 3.03631e-08 0)
(-0.881635 -3.05114e-08 0)
(-0.881635 3.06553e-08 0)
(-0.881635 -3.07975e-08 0)
(-0.881635 3.09347e-08 0)
(-0.881635 -3.10704e-08 0)
(-0.881635 3.12009e-08 0)
(-0.881635 -3.13297e-08 0)
(-0.881635 3.14531e-08 0)
(-0.881635 -3.15746e-08 0)
(-0.881635 3.16906e-08 0)
(-0.881635 -3.18044e-08 0)
(-0.881635 3.19126e-08 0)
(-0.881635 -3.20181e-08 0)
(-0.881635 3.2118e-08 0)
(-0.881635 -3.22145e-08 0)
(-0.881635 3.23054e-08 0)
(-0.881635 -3.23919e-08 0)
(-0.881635 3.2473e-08 0)
(-0.881635 -3.25481e-08 0)
(-0.881635 3.26184e-08 0)
(-0.881635 -3.26803e-08 0)
(-0.881635 3.27372e-08 0)
(-0.881635 -3.27825e-08 0)
(-0.881635 3.28211e-08 0)
(-0.881635 -3.28447e-08 0)
)
;

boundaryField
{
    inandouthalf11
    {
        type            cyclic;
    }
    inandouthalf12
    {
        type            cyclic;
    }
    inandouthalf21
    {
        type            cyclic;
    }
    inandouthalf22
    {
        type            cyclic;
    }
    inandouthalf31
    {
        type            cyclic;
    }
    inandouthalf32
    {
        type            cyclic;
    }
    inandouthalf41
    {
        type            cyclic;
    }
    inandouthalf42
    {
        type            cyclic;
    }
    top
    {
        type            symmetryPlane;
    }
    walls
    {
        type            calculated;
        value           uniform (0 0 0);
    }
    frontAndBackPlanes
    {
        type            empty;
    }
}


// ************************************************************************* //
