/*--------------------------------*- C++ -*----------------------------------*\
| =========                 |                                                 |
| \\      /  F ield         | OpenFOAM: The Open Source CFD Toolbox           |
|  \\    /   O peration     | Version:  2.4.x                                 |
|   \\  /    A nd           | Web:      www.OpenFOAM.org                      |
|    \\/     M anipulation  |                                                 |
\*---------------------------------------------------------------------------*/
FoamFile
{
    version     2.0;
    format      ascii;
    class       volVectorField;
    location    "5.3";
    object      Ua;
}
// * * * * * * * * * * * * * * * * * * * * * * * * * * * * * * * * * * * * * //

dimensions      [0 1 -1 0 0 0 0];

internalField   nonuniform List<vector> 
360
(
(-1.015e-32 -8.83417e-32 0)
(-3.64415e-08 -2.27485e-07 0)
(-7.90987e-08 -4.29871e-07 0)
(-1.16996e-07 -6.00388e-07 0)
(-1.54327e-07 -7.71804e-07 0)
(-1.93085e-07 -9.50409e-07 0)
(-2.33009e-07 -1.13289e-06 0)
(-2.73615e-07 -1.3169e-06 0)
(-3.14685e-07 -1.50155e-06 0)
(-3.56192e-07 -1.68675e-06 0)
(-3.98214e-07 -1.87293e-06 0)
(-4.4083e-07 -2.06045e-06 0)
(-4.84075e-07 -2.24942e-06 0)
(-5.27946e-07 -2.43975e-06 0)
(-5.72423e-07 -2.63131e-06 0)
(-6.17502e-07 -2.82404e-06 0)
(-6.63189e-07 -3.01795e-06 0)
(-7.09494e-07 -3.21304e-06 0)
(-7.56422e-07 -3.4093e-06 0)
(-8.0398e-07 -3.60674e-06 0)
(-8.52176e-07 -3.80532e-06 0)
(-9.01026e-07 -4.00507e-06 0)
(-9.50567e-07 -4.20613e-06 0)
(-1.00085e-06 -4.40865e-06 0)
(-1.05195e-06 -4.61286e-06 0)
(-1.10393e-06 -4.81903e-06 0)
(-1.15688e-06 -5.02744e-06 0)
(-1.21089e-06 -5.23837e-06 0)
(-1.26601e-06 -5.45203e-06 0)
(-1.32222e-06 -5.66828e-06 0)
(-1.37943e-06 -5.88671e-06 0)
(-1.43744e-06 -6.10653e-06 0)
(-1.49594e-06 -6.32646e-06 0)
(-1.55452e-06 -6.54498e-06 0)
(-1.61278e-06 -6.76049e-06 0)
(-1.67035e-06 -6.9716e-06 0)
(-1.72711e-06 -7.17776e-06 0)
(-1.78326e-06 -7.37969e-06 0)
(-1.83946e-06 -7.57978e-06 0)
(-1.89691e-06 -7.78218e-06 0)
(-1.95751e-06 -7.99349e-06 0)
(-2.024e-06 -8.22326e-06 0)
(-2.10013e-06 -8.48428e-06 0)
(-2.19059e-06 -8.79293e-06 0)
(-2.30001e-06 -9.16579e-06 0)
(-2.42959e-06 -9.60846e-06 0)
(-2.57116e-06 -1.00947e-05 0)
(-2.70374e-06 -1.05521e-05 0)
(-2.80263e-06 -1.0893e-05 0)
(-2.85816e-06 -1.10828e-05 0)
(-2.88099e-06 -1.11595e-05 0)
(-2.88794e-06 -1.11824e-05 0)
(-2.88961e-06 -1.11877e-05 0)
(-2.88996e-06 -1.11888e-05 0)
(-2.89004e-06 -1.1189e-05 0)
(-2.89006e-06 -1.11891e-05 0)
(-2.89006e-06 -1.11891e-05 0)
(-2.89007e-06 -1.11891e-05 0)
(-2.89007e-06 -1.11891e-05 0)
(-2.89007e-06 -1.11891e-05 0)
(-2.89007e-06 -1.11891e-05 0)
(-2.89007e-06 -1.11891e-05 0)
(-2.89007e-06 -1.11891e-05 0)
(-2.89007e-06 -1.11891e-05 0)
(-2.89008e-06 -1.11891e-05 0)
(-2.89008e-06 -1.11892e-05 0)
(-2.89008e-06 -1.11892e-05 0)
(-2.89008e-06 -1.11892e-05 0)
(-2.89009e-06 -1.11892e-05 0)
(-2.89009e-06 -1.11892e-05 0)
(-2.89009e-06 -1.11892e-05 0)
(-2.8901e-06 -1.11892e-05 0)
(-2.8901e-06 -1.11892e-05 0)
(-2.8901e-06 -1.11892e-05 0)
(-2.89011e-06 -1.11892e-05 0)
(-2.89011e-06 -1.11892e-05 0)
(-2.89011e-06 -1.11892e-05 0)
(-2.89012e-06 -1.11893e-05 0)
(-2.89012e-06 -1.11893e-05 0)
(-2.89013e-06 -1.11893e-05 0)
(-2.89013e-06 -1.11893e-05 0)
(-2.89013e-06 -1.11893e-05 0)
(-2.89014e-06 -1.11893e-05 0)
(-2.89014e-06 -1.11893e-05 0)
(-2.89015e-06 -1.11893e-05 0)
(-2.89015e-06 -1.11893e-05 0)
(-2.89015e-06 -1.11893e-05 0)
(-2.89016e-06 -1.11894e-05 0)
(-2.89016e-06 -1.11894e-05 0)
(-2.89017e-06 -1.11894e-05 0)
(-2.89017e-06 -1.11894e-05 0)
(-2.89018e-06 -1.11894e-05 0)
(-2.89018e-06 -1.11894e-05 0)
(-2.89019e-06 -1.11894e-05 0)
(-2.8902e-06 -1.11894e-05 0)
(-2.8902e-06 -1.11894e-05 0)
(-2.89021e-06 -1.11895e-05 0)
(-2.89021e-06 -1.11895e-05 0)
(-2.89022e-06 -1.11895e-05 0)
(-2.89023e-06 -1.11895e-05 0)
(-2.89023e-06 -1.11895e-05 0)
(-2.89024e-06 -1.11895e-05 0)
(-2.89025e-06 -1.11895e-05 0)
(-2.89025e-06 -1.11896e-05 0)
(-2.89026e-06 -1.11896e-05 0)
(-2.89027e-06 -1.11896e-05 0)
(-2.89027e-06 -1.11896e-05 0)
(-2.89028e-06 -1.11896e-05 0)
(-2.89029e-06 -1.11896e-05 0)
(-2.8903e-06 -1.11896e-05 0)
(-2.8903e-06 -1.11896e-05 0)
(-2.89031e-06 -1.11897e-05 0)
(-2.89032e-06 -1.11897e-05 0)
(-2.89033e-06 -1.11897e-05 0)
(-2.89033e-06 -1.11897e-05 0)
(-2.89034e-06 -1.11897e-05 0)
(-2.89035e-06 -1.11897e-05 0)
(-2.89036e-06 -1.11897e-05 0)
(-2.89036e-06 -1.11898e-05 0)
(-2.89037e-06 -1.11898e-05 0)
(-2.89038e-06 -1.11898e-05 0)
(-2.89039e-06 -1.11898e-05 0)
(-2.8904e-06 -1.11898e-05 0)
(-2.89041e-06 -1.11898e-05 0)
(-2.89042e-06 -1.11898e-05 0)
(-2.89043e-06 -1.11898e-05 0)
(-2.89044e-06 -1.11899e-05 0)
(-2.89045e-06 -1.11899e-05 0)
(-2.89046e-06 -1.11899e-05 0)
(-2.89047e-06 -1.11899e-05 0)
(-2.89048e-06 -1.11899e-05 0)
(-2.89049e-06 -1.11899e-05 0)
(-2.8905e-06 -1.11899e-05 0)
(-2.8905e-06 -1.11899e-05 0)
(-2.89051e-06 -1.11899e-05 0)
(-2.89052e-06 -1.119e-05 0)
(-2.89053e-06 -1.119e-05 0)
(-2.89054e-06 -1.119e-05 0)
(-2.89055e-06 -1.119e-05 0)
(-2.89055e-06 -1.119e-05 0)
(-2.89056e-06 -1.119e-05 0)
(-2.89057e-06 -1.119e-05 0)
(-2.89057e-06 -1.119e-05 0)
(-2.89057e-06 -1.119e-05 0)
(-2.89057e-06 -1.119e-05 0)
(-2.89057e-06 -1.119e-05 0)
(-2.89057e-06 -1.119e-05 0)
(-8.14838e-06 -1.14371e-05 0)
(-0.0761528 -0.00036066 0)
(-0.173627 -0.00038907 0)
(-0.250061 -0.000482203 0)
(-0.311753 -0.000525166 0)
(-0.362808 -0.00055484 0)
(-0.405895 -0.000569677 0)
(-0.442837 -0.000569837 0)
(-0.474942 -0.000555246 0)
(-0.503185 -0.000526084 0)
(-0.528303 -0.000482688 0)
(-0.550863 -0.000425515 0)
(-0.571302 -0.000355116 0)
(-0.589962 -0.000272086 0)
(-0.60711 -0.000177034 0)
(-0.622959 -7.05591e-05 0)
(-0.637677 4.68e-05 0)
(-0.651401 0.000174517 0)
(-0.664243 0.000312093 0)
(-0.676292 0.000459088 0)
(-0.687622 0.000615088 0)
(-0.698297 0.000779701 0)
(-0.708367 0.000952551 0)
(-0.717874 0.00113328 0)
(-0.726856 0.00132152 0)
(-0.735343 0.00151693 0)
(-0.74336 0.00171912 0)
(-0.750931 0.00192772 0)
(-0.758074 0.00214233 0)
(-0.764806 0.00236249 0)
(-0.771143 0.00258775 0)
(-0.777097 0.00281756 0)
(-0.782681 0.00305135 0)
(-0.787906 0.00328842 0)
(-0.792783 0.00352784 0)
(-0.797323 0.00376816 0)
(-0.801537 0.00400708 0)
(-0.805434 0.00424116 0)
(-0.809028 0.00446568 0)
(-0.812331 0.00467515 0)
(-0.815359 0.0048641 0)
(-0.818125 0.00502831 0)
(-0.820649 0.00516571 0)
(-0.822948 0.00527672 0)
(-0.825038 0.00536389 0)
(-0.826938 0.00543128 0)
(-0.828663 0.00548369 0)
(-0.830228 0.00552534 0)
(-0.831647 0.0055586 0)
(-0.832934 0.0055839 0)
(-0.834101 0.0056009 0)
(-0.835164 0.00560973 0)
(-0.836133 0.0056114 0)
(-0.837022 0.00560724 0)
(-0.837847 0.00559839 0)
(-0.838623 0.00558592 0)
(-0.839354 0.005571 0)
(-0.840045 0.00555406 0)
(-0.840702 0.00553537 0)
(-0.841327 0.00551581 0)
(-0.841924 0.00549576 0)
(-0.842496 0.00547497 0)
(-0.843047 0.00545376 0)
(-0.843579 0.00543249 0)
(-0.844094 0.00541095 0)
(-0.844594 0.00538922 0)
(-0.845081 0.00536724 0)
(-0.845557 0.00534469 0)
(-0.846023 0.00532186 0)
(-0.84648 0.00529847 0)
(-0.846931 0.00527375 0)
(-0.847375 0.00524821 0)
(-0.847813 0.00522178 0)
(-0.848245 0.00519371 0)
(-0.848673 0.00516397 0)
(-0.849096 0.0051324 0)
(-0.849513 0.00509905 0)
(-0.849926 0.00506335 0)
(-0.850335 0.00502426 0)
(-0.850739 0.00498225 0)
(-0.851137 0.00493642 0)
(-0.851531 0.00488548 0)
(-0.851918 0.00482933 0)
(-0.852296 0.00476707 0)
(-0.852665 0.00469737 0)
(-0.853024 0.00461721 0)
(-0.853377 0.00451722 0)
(-0.85371 0.00440023 0)
(-0.854005 0.00427074 0)
(-0.854361 0.0040885 0)
(-0.906378 -0.00230016 0)
(-0.904595 0.00573874 0)
(-0.902127 -0.029921 0)
(-0.900132 -0.0396666 0)
(-0.897691 -0.0395968 0)
(-0.895502 -0.0396052 0)
(-0.893296 -0.0396057 0)
(-0.891124 -0.0396062 0)
(-0.889007 -0.0396057 0)
(-0.886978 -0.039604 0)
(-0.885085 -0.0396002 0)
(-0.883383 -0.0395923 0)
(-0.882142 -0.0395756 0)
(-0.88169 -0.0395582 0)
(-0.881646 -0.0395508 0)
(-0.881645 -0.0395501 0)
(-0.881644 -0.0395501 0)
(-0.881644 -0.0395501 0)
(-0.881643 -0.0395501 0)
(-0.881643 -0.0395501 0)
(-0.881643 -0.0395501 0)
(-0.881643 -0.0395501 0)
(-0.881642 -0.0395501 0)
(-0.881642 -0.0395501 0)
(-0.881642 -0.0395501 0)
(-0.881642 -0.0395501 0)
(-0.881642 -0.0395501 0)
(-0.881642 -0.0395501 0)
(-0.881642 -0.0395501 0)
(-0.881642 -0.0395501 0)
(-0.881642 -0.0395501 0)
(-0.881642 -0.0395501 0)
(-0.881642 -0.0395501 0)
(-0.881642 -0.0395501 0)
(-0.881642 -0.0395501 0)
(-0.881642 -0.0395501 0)
(-0.881642 -0.0395501 0)
(-0.881642 -0.0395501 0)
(-0.881642 -0.0395501 0)
(-0.881642 -0.0395501 0)
(-0.881642 -0.0395501 0)
(-0.881642 -0.0395501 0)
(-0.881642 -0.0395501 0)
(-0.881642 -0.0395501 0)
(-0.881642 -0.0395501 0)
(-0.881642 -0.0395501 0)
(-0.881642 -0.0395501 0)
(-0.881642 -0.0395501 0)
(-0.881642 -0.0395501 0)
(-0.881642 -0.0395501 0)
(-0.881642 -0.0395501 0)
(-0.881642 -0.0395501 0)
(-0.881642 -0.0395501 0)
(-0.881642 -0.0395501 0)
(-0.881642 -0.0395501 0)
(-0.881642 -0.0395501 0)
(-0.881642 -0.0395501 0)
(-0.881642 -0.0395501 0)
(-0.881642 -0.0395501 0)
(-0.881642 -0.0395501 0)
(-0.881642 -0.0395501 0)
(-0.881642 -0.0395501 0)
(-0.881642 -0.0395501 0)
(-0.881642 -0.0395501 0)
(-0.881642 -0.0395501 0)
(-0.881642 -0.0395501 0)
(-0.881642 -0.0395501 0)
(-0.881642 -0.0395501 0)
(-0.881642 -0.0395501 0)
(-0.881642 -0.0395501 0)
(-0.881642 -0.0395501 0)
(-0.881642 -0.0395501 0)
(-0.881642 -0.0395501 0)
(-0.881642 -0.0395501 0)
(-0.881642 -0.0395501 0)
(-0.881642 -0.0395501 0)
(-0.881642 -0.0395501 0)
(-0.881642 -0.0395501 0)
(-0.881642 -0.0395501 0)
(-0.881642 -0.0395501 0)
(-0.881642 -0.0395501 0)
(-0.881642 -0.0395501 0)
(-0.881642 -0.0395501 0)
(-0.881642 -0.0395501 0)
(-0.881642 -0.0395501 0)
(-0.881642 -0.0395501 0)
(-0.881642 -0.0395501 0)
(-0.881642 -0.0395501 0)
(-0.881642 -0.0395501 0)
(-0.881642 -0.0395501 0)
(-0.881642 -0.0395501 0)
(-0.881642 -0.0395501 0)
(-0.881642 -0.0395501 0)
(-0.881642 -0.0395501 0)
(-0.881642 -0.0395501 0)
(-0.881642 -0.0395501 0)
(-0.881642 -0.0395501 0)
(-0.881642 -0.0395501 0)
(-0.881642 -0.0395501 0)
(-0.881642 -0.0395501 0)
(-0.881642 -0.0395501 0)
(-0.881642 -0.0395501 0)
(-0.881642 -0.0395501 0)
(-0.881642 -0.0395501 0)
(-0.881642 -0.0395501 0)
(-0.881642 -0.0395501 0)
(-0.881642 -0.0395501 0)
(-0.881642 -0.0395501 0)
(-0.881642 -0.0395501 0)
(-0.881642 -0.0395501 0)
(-0.881642 -0.0395501 0)
(-0.881642 -0.0395501 0)
(-0.881642 -0.0395501 0)
(-0.881642 -0.0395501 0)
(-0.881642 -0.0395501 0)
(-0.881642 -0.0395501 0)
(-0.881642 -0.0395501 0)
(-0.881642 -0.0395501 0)
(-0.881642 -0.0395501 0)
(-0.881642 -0.0395499 0)
(-0.881642 -0.0395414 0)
(-0.881642 -0.0391968 0)
(-0.881643 -0.0225003 0)
)
;

boundaryField
{
    inandouthalf11
    {
        type            cyclic;
    }
    inandouthalf12
    {
        type            cyclic;
    }
    inandouthalf21
    {
        type            cyclic;
    }
    inandouthalf22
    {
        type            cyclic;
    }
    inandouthalf31
    {
        type            cyclic;
    }
    inandouthalf32
    {
        type            cyclic;
    }
    inandouthalf41
    {
        type            cyclic;
    }
    inandouthalf42
    {
        type            cyclic;
    }
    top
    {
        type            symmetryPlane;
    }
    walls
    {
        type            fixedValue;
        value           uniform (0 0 0);
    }
    frontAndBackPlanes
    {
        type            empty;
    }
}


// ************************************************************************* //
