/*--------------------------------*- C++ -*----------------------------------*\
| =========                 |                                                 |
| \\      /  F ield         | OpenFOAM: The Open Source CFD Toolbox           |
|  \\    /   O peration     | Version:  2.4.x                                 |
|   \\  /    A nd           | Web:      www.OpenFOAM.org                      |
|    \\/     M anipulation  |                                                 |
\*---------------------------------------------------------------------------*/
FoamFile
{
    version     2.0;
    format      ascii;
    class       volScalarField;
    location    "7.55";
    object      alpha;
}
// * * * * * * * * * * * * * * * * * * * * * * * * * * * * * * * * * * * * * //

dimensions      [0 0 0 0 0 0 0];

internalField   nonuniform List<scalar> 
360
(
0.610804
0.611626
0.611726
0.611641
0.611595
0.611579
0.611561
0.611539
0.611516
0.611493
0.611469
0.611446
0.611422
0.611399
0.611375
0.61135
0.611326
0.611301
0.611277
0.611251
0.611226
0.611201
0.611175
0.611149
0.611123
0.611096
0.611069
0.611042
0.611015
0.610987
0.61096
0.610931
0.610903
0.610874
0.610845
0.610816
0.610787
0.610757
0.610726
0.610696
0.610665
0.610634
0.610603
0.610571
0.610538
0.610506
0.610473
0.61044
0.610406
0.610372
0.610338
0.610303
0.610268
0.610232
0.610196
0.610159
0.610123
0.610085
0.610047
0.610009
0.60997
0.609931
0.609891
0.609851
0.609811
0.609769
0.609728
0.609685
0.609642
0.609599
0.609555
0.60951
0.609465
0.609418
0.609372
0.609324
0.609276
0.609228
0.609178
0.609128
0.609077
0.609025
0.608972
0.608919
0.608864
0.608809
0.608752
0.608695
0.608637
0.608577
0.608517
0.608456
0.608393
0.608329
0.608264
0.608198
0.60813
0.608061
0.607991
0.607919
0.607846
0.607771
0.607694
0.607616
0.607535
0.607453
0.607369
0.607283
0.607195
0.607105
0.607012
0.606917
0.606819
0.606719
0.606615
0.606509
0.6064
0.606288
0.606172
0.606053
0.60593
0.605804
0.605673
0.605538
0.605399
0.605254
0.605105
0.60495
0.604789
0.604621
0.604447
0.604264
0.604074
0.603874
0.603661
0.603436
0.603201
0.602951
0.602675
0.602358
0.602016
0.601687
0.601293
0.600783
0.600146
0.598923
0.596209
0.596094
0.594336
0.560392
0.174162
0.0573096
0.0241462
0.0117988
0.00685947
0.00457968
0.00334615
0.00258594
0.00207561
0.0017123
0.00144228
0.00123451
0.00107016
0.000937463
0.000828359
0.000737264
0.000660195
0.000594242
0.000537235
0.000487526
0.000443846
0.000405204
0.000370814
0.000340051
0.000312405
0.000287463
0.000264882
0.000244378
0.00022571
0.000208676
0.000193102
0.000178838
0.000165754
0.000153734
0.000142677
0.000132495
0.000123106
0.000114438
0.000106427
9.90134e-05
9.21442e-05
8.57717e-05
7.98529e-05
7.43486e-05
6.92234e-05
6.44443e-05
5.9981e-05
5.58057e-05
5.18926e-05
4.82175e-05
4.4758e-05
4.14619e-05
3.82893e-05
3.52366e-05
3.23021e-05
2.94845e-05
2.6786e-05
2.42105e-05
2.17653e-05
1.94573e-05
1.7294e-05
1.5281e-05
1.34214e-05
1.17207e-05
1.01813e-05
8.79754e-06
7.56293e-06
6.47281e-06
5.51701e-06
4.68309e-06
3.95775e-06
3.33134e-06
2.79497e-06
2.33492e-06
1.9423e-06
1.60985e-06
1.32878e-06
1.09154e-06
8.92604e-07
7.252e-07
5.87173e-07
4.69511e-07
3.75906e-07
2.97703e-07
2.47527e-07
1.79472e-07
1.21062e-07
9.41246e-08
6.23235e-08
4.20579e-08
2.26458e-08
1.40196e-08
2.61615e-09
6.95214e-20
9.23281e-31
2.12426e-37
1.64186e-37
6.85513e-38
3.00293e-38
1.57317e-38
9.46331e-39
6.34206e-39
4.55522e-39
3.03982e-39
1.46893e-39
6.54227e-40
3.42418e-40
1.94709e-40
1.17787e-40
6.77122e-41
3.18708e-41
1.59307e-41
8.29822e-42
4.34651e-42
2.16396e-42
1.07588e-42
5.28526e-43
2.55278e-43
1.21162e-43
5.64778e-44
2.58399e-44
1.15967e-44
5.10177e-45
2.19862e-45
9.2748e-46
3.82689e-46
1.54318e-46
6.07633e-47
2.33407e-47
8.73788e-48
3.18464e-48
1.12872e-48
3.88561e-49
1.29752e-49
4.19703e-50
1.31306e-50
3.96672e-51
1.15506e-51
3.23558e-52
8.70059e-53
2.24063e-53
5.51164e-54
1.29128e-54
2.87195e-55
6.04166e-56
1.19715e-56
2.22375e-57
3.8509e-58
6.17688e-59
9.1069e-60
1.22276e-60
1.47817e-61
1.58589e-62
1.48205e-63
1.17621e-64
7.64508e-66
3.8465e-67
1.35565e-68
2.66309e-70
8.05341e-73
1.89631e-77
1.67965e-79
7.37804e-82
2.53439e-92
4.34893e-103
5.37544e-114
4.78121e-125
3.62925e-136
2.0909e-147
1.03825e-158
8.62009e-169
3.6527e-179
2.84704e-187
1.08491e-197
9.79277e-206
4.36538e-216
3.36949e-224
1.84133e-234
1.16033e-242
1.1692e-252
4.05904e-261
7.67934e-271
1.45206e-279
3.78934e-289
5.30199e-298
1.80173e-307
1.96476e-316
6.65506e-321
4.57737e-319
2.8055e-319
6.80328e-321
7.09478e-321
6.08689e-321
8.5424e-321
0
0
0
0
0
0
0
0
0
0
0
0
0
0
0
0
)
;

boundaryField
{
    inandouthalf11
    {
        type            cyclic;
    }
    inandouthalf12
    {
        type            cyclic;
    }
    inandouthalf21
    {
        type            cyclic;
    }
    inandouthalf22
    {
        type            cyclic;
    }
    inandouthalf31
    {
        type            cyclic;
    }
    inandouthalf32
    {
        type            cyclic;
    }
    inandouthalf41
    {
        type            cyclic;
    }
    inandouthalf42
    {
        type            cyclic;
    }
    top
    {
        type            symmetryPlane;
    }
    walls
    {
        type            zeroGradient;
    }
    frontAndBackPlanes
    {
        type            empty;
    }
}


// ************************************************************************* //
