/*--------------------------------*- C++ -*----------------------------------*\
| =========                 |                                                 |
| \\      /  F ield         | OpenFOAM: The Open Source CFD Toolbox           |
|  \\    /   O peration     | Version:  2.4.x                                 |
|   \\  /    A nd           | Web:      www.OpenFOAM.org                      |
|    \\/     M anipulation  |                                                 |
\*---------------------------------------------------------------------------*/
FoamFile
{
    version     2.0;
    format      ascii;
    class       volScalarField;
    location    "7.55";
    object      alpha_0;
}
// * * * * * * * * * * * * * * * * * * * * * * * * * * * * * * * * * * * * * //

dimensions      [0 0 0 0 0 0 0];

internalField   nonuniform List<scalar> 
360
(
0.610804
0.611626
0.611726
0.611641
0.611595
0.611579
0.611561
0.611539
0.611516
0.611493
0.611469
0.611446
0.611422
0.611399
0.611375
0.61135
0.611326
0.611301
0.611277
0.611251
0.611226
0.611201
0.611175
0.611149
0.611123
0.611096
0.611069
0.611042
0.611015
0.610987
0.61096
0.610931
0.610903
0.610874
0.610845
0.610816
0.610787
0.610757
0.610726
0.610696
0.610665
0.610634
0.610603
0.610571
0.610538
0.610506
0.610473
0.61044
0.610406
0.610372
0.610338
0.610303
0.610268
0.610232
0.610196
0.610159
0.610123
0.610085
0.610047
0.610009
0.60997
0.609931
0.609891
0.609851
0.609811
0.609769
0.609727
0.609685
0.609642
0.609599
0.609555
0.60951
0.609465
0.609418
0.609372
0.609324
0.609276
0.609228
0.609178
0.609128
0.609077
0.609025
0.608972
0.608918
0.608864
0.608809
0.608752
0.608695
0.608637
0.608577
0.608517
0.608456
0.608393
0.608329
0.608264
0.608198
0.60813
0.608061
0.607991
0.607919
0.607846
0.607771
0.607694
0.607616
0.607535
0.607453
0.607369
0.607283
0.607195
0.607105
0.607012
0.606917
0.606819
0.606719
0.606615
0.606509
0.6064
0.606288
0.606172
0.606053
0.60593
0.605804
0.605673
0.605538
0.605399
0.605254
0.605105
0.60495
0.604789
0.604621
0.604447
0.604264
0.604074
0.603874
0.603661
0.603436
0.603201
0.602951
0.602674
0.602358
0.602016
0.601687
0.601293
0.600783
0.600146
0.598923
0.596209
0.596093
0.594336
0.560497
0.174128
0.0572679
0.024125
0.011791
0.0068572
0.00457925
0.0033463
0.00258627
0.00207597
0.00171266
0.00144261
0.00123482
0.00107043
0.000937707
0.000828579
0.000737462
0.000660373
0.000594403
0.000537381
0.000487658
0.000443966
0.000405312
0.000370913
0.000340141
0.000312487
0.000287537
0.00026495
0.000244439
0.000225766
0.000208728
0.000193149
0.000178881
0.000165793
0.00015377
0.00014271
0.000132525
0.000123134
0.000114464
0.000106451
9.90353e-05
9.21644e-05
8.57904e-05
7.98702e-05
7.43647e-05
6.92383e-05
6.44582e-05
5.9994e-05
5.58179e-05
5.1904e-05
4.82281e-05
4.4768e-05
4.14713e-05
3.82981e-05
3.52449e-05
3.23098e-05
2.94917e-05
2.67927e-05
2.42166e-05
2.1771e-05
1.94625e-05
1.72987e-05
1.52851e-05
1.34252e-05
1.17239e-05
1.01842e-05
8.80001e-06
7.56504e-06
6.47461e-06
5.51853e-06
4.68437e-06
3.95882e-06
3.33223e-06
2.7957e-06
2.33553e-06
1.9428e-06
1.61026e-06
1.32911e-06
1.0918e-06
8.9282e-07
7.25373e-07
5.87313e-07
4.69621e-07
3.75993e-07
2.97765e-07
2.47583e-07
1.79532e-07
1.21103e-07
9.41573e-08
6.23426e-08
4.207e-08
2.2651e-08
1.40229e-08
2.6165e-09
6.9454e-20
9.21407e-31
2.12885e-37
1.64696e-37
6.89366e-38
3.01631e-38
1.5787e-38
9.49007e-39
6.35598e-39
4.56438e-39
3.0482e-39
1.47585e-39
6.56702e-40
3.43539e-40
1.95273e-40
1.181e-40
6.79304e-41
3.19849e-41
1.5983e-41
8.32455e-42
4.36028e-42
2.17103e-42
1.07937e-42
5.30244e-43
2.56109e-43
1.21557e-43
5.66622e-44
2.59244e-44
1.16347e-44
5.11851e-45
2.20585e-45
9.30534e-46
3.83951e-46
1.54828e-46
6.09644e-47
2.34181e-47
8.7669e-48
3.19524e-48
1.13248e-48
3.89859e-49
1.30186e-49
4.2111e-50
1.31747e-50
3.98007e-51
1.15895e-51
3.24651e-52
8.73004e-53
2.24823e-53
5.53037e-54
1.29568e-54
2.88175e-55
6.06232e-56
1.20126e-56
2.23139e-57
3.86415e-58
6.1982e-59
9.13841e-60
1.227e-60
1.48331e-61
1.59142e-62
1.48723e-63
1.18034e-64
7.67196e-66
3.86007e-67
1.36045e-68
2.67258e-70
8.08258e-73
1.90368e-77
1.68622e-79
7.40709e-82
2.54435e-92
4.36602e-103
5.39651e-114
4.79992e-125
3.64342e-136
2.09905e-147
1.04228e-158
8.654e-169
3.66704e-179
2.85825e-187
1.08917e-197
9.83132e-206
4.38251e-216
3.38276e-224
1.84855e-234
1.1649e-242
1.17379e-252
4.07502e-261
7.70947e-271
1.45778e-279
3.80421e-289
5.32285e-298
1.80879e-307
1.97212e-316
6.65506e-321
4.57737e-319
2.8055e-319
6.80328e-321
7.09478e-321
6.08689e-321
8.5424e-321
0
0
0
0
0
0
0
0
0
0
0
0
0
0
0
0
)
;

boundaryField
{
    inandouthalf11
    {
        type            cyclic;
    }
    inandouthalf12
    {
        type            cyclic;
    }
    inandouthalf21
    {
        type            cyclic;
    }
    inandouthalf22
    {
        type            cyclic;
    }
    inandouthalf31
    {
        type            cyclic;
    }
    inandouthalf32
    {
        type            cyclic;
    }
    inandouthalf41
    {
        type            cyclic;
    }
    inandouthalf42
    {
        type            cyclic;
    }
    top
    {
        type            symmetryPlane;
    }
    walls
    {
        type            zeroGradient;
    }
    frontAndBackPlanes
    {
        type            empty;
    }
}


// ************************************************************************* //
