/*--------------------------------*- C++ -*----------------------------------*\
| =========                 |                                                 |
| \\      /  F ield         | OpenFOAM: The Open Source CFD Toolbox           |
|  \\    /   O peration     | Version:  2.4.x                                 |
|   \\  /    A nd           | Web:      www.OpenFOAM.org                      |
|    \\/     M anipulation  |                                                 |
\*---------------------------------------------------------------------------*/
FoamFile
{
    version     2.0;
    format      ascii;
    class       volScalarField;
    location    "7.55";
    object      ddt0(alpha);
}
// * * * * * * * * * * * * * * * * * * * * * * * * * * * * * * * * * * * * * //

dimensions      [0 0 -1 0 0 0 0];

internalField   nonuniform List<scalar> 
360
(
6.27725e-05
9.60921e-05
8.71559e-05
8.19863e-05
8.34464e-05
8.49853e-05
8.51861e-05
8.49107e-05
8.46598e-05
8.4574e-05
8.45859e-05
8.46026e-05
8.46214e-05
8.46337e-05
8.46686e-05
8.47455e-05
8.48626e-05
8.50075e-05
8.51729e-05
8.53762e-05
8.55722e-05
8.5804e-05
8.60483e-05
8.63037e-05
8.65695e-05
8.68389e-05
8.71047e-05
8.73914e-05
8.7672e-05
8.79466e-05
8.82145e-05
8.85025e-05
8.87432e-05
8.90364e-05
8.92772e-05
8.9533e-05
8.97627e-05
9.00031e-05
9.02554e-05
9.0438e-05
9.0674e-05
9.08727e-05
9.10285e-05
9.12302e-05
9.13846e-05
9.15352e-05
9.16727e-05
9.17401e-05
9.18362e-05
9.19604e-05
9.2001e-05
9.20652e-05
9.20866e-05
9.21164e-05
9.20768e-05
9.20785e-05
9.19856e-05
9.19123e-05
9.17898e-05
9.16191e-05
9.15251e-05
9.13722e-05
9.12698e-05
9.11211e-05
9.09623e-05
9.07604e-05
9.05505e-05
9.03095e-05
9.00341e-05
8.97239e-05
8.94696e-05
8.92344e-05
8.89368e-05
8.86937e-05
8.84156e-05
8.81335e-05
8.77509e-05
8.73035e-05
8.67925e-05
8.62238e-05
8.55863e-05
8.49174e-05
8.42181e-05
8.34787e-05
8.26918e-05
8.18315e-05
8.08849e-05
7.98248e-05
7.86484e-05
7.73643e-05
7.59845e-05
7.45272e-05
7.30169e-05
7.14685e-05
6.98923e-05
6.82942e-05
6.66766e-05
6.50411e-05
6.33906e-05
6.17304e-05
6.0067e-05
5.84083e-05
5.67623e-05
5.5136e-05
5.35353e-05
5.19656e-05
5.0432e-05
4.89397e-05
4.74945e-05
4.61026e-05
4.4771e-05
4.35075e-05
4.23205e-05
4.12194e-05
4.02142e-05
3.93153e-05
3.85331e-05
3.78769e-05
3.73536e-05
3.69662e-05
3.67108e-05
3.65747e-05
3.65331e-05
3.65488e-05
3.65718e-05
3.65421e-05
3.63915e-05
3.60444e-05
3.54165e-05
3.44199e-05
3.29882e-05
3.11228e-05
2.89336e-05
2.66266e-05
2.44191e-05
2.24551e-05
2.08465e-05
1.97471e-05
1.9191e-05
1.86314e-05
1.63852e-05
1.00146e-05
1.63293e-06
-5.79063e-06
-1.45991e-05
-5.73539e-05
0.00136865
0.0025087
0.000209688
-0.530264
0.172131
0.20956
0.106102
0.0389941
0.0113221
0.00214357
-0.000773336
-0.00165202
-0.00184969
-0.00179633
-0.00166598
-0.0015158
-0.00136426
-0.00122659
-0.00110295
-0.000993135
-0.000895735
-0.000809228
-0.000732183
-0.000663348
-0.00060166
-0.000546226
-0.000496299
-0.000451251
-0.000410549
-0.00037374
-0.000340431
-0.000310278
-0.00028298
-0.000258265
-0.000235894
-0.000215646
-0.000197323
-0.000180746
-0.000165748
-0.00015218
-0.000139905
-0.000128798
-0.000118743
-0.000109633
-0.000101371
-9.38671e-05
-8.70412e-05
-8.08252e-05
-7.51611e-05
-6.99977e-05
-6.52883e-05
-6.09905e-05
-5.70684e-05
-5.34886e-05
-5.02095e-05
-4.71466e-05
-4.42281e-05
-4.1426e-05
-3.87243e-05
-3.61002e-05
-3.35261e-05
-3.09773e-05
-2.84466e-05
-2.59382e-05
-2.3465e-05
-2.10539e-05
-1.87127e-05
-1.64534e-05
-1.4334e-05
-1.23926e-05
-1.06173e-05
-9.01721e-06
-7.61179e-06
-6.39844e-06
-5.35123e-06
-4.44149e-06
-3.67261e-06
-3.03129e-06
-2.4862e-06
-2.02906e-06
-1.65266e-06
-1.34026e-06
-1.08449e-06
-8.70331e-07
-7.01459e-07
-5.56572e-07
-4.36942e-07
-3.13699e-07
-2.8121e-07
-2.98062e-07
-2.08312e-07
-1.63774e-07
-9.5687e-08
-6.09524e-08
-2.63294e-08
-1.63355e-08
-1.92357e-09
4.99943e-19
1.34574e-29
-2.29797e-36
-2.55914e-36
-1.94267e-36
-6.74316e-37
-2.78421e-37
-1.34711e-37
-7.00767e-38
-4.60263e-38
-4.20678e-38
-3.48047e-38
-1.24595e-38
-5.64408e-39
-2.84214e-39
-1.57183e-39
-1.09671e-39
-5.7455e-40
-2.63616e-40
-1.32442e-40
-6.92506e-41
-3.55471e-41
-1.7566e-41
-8.64292e-42
-4.1811e-42
-1.98761e-42
-9.27982e-43
-4.2526e-43
-1.91164e-43
-8.42383e-44
-3.63632e-44
-1.53655e-44
-6.35074e-45
-2.56531e-45
-1.01185e-45
-3.89357e-46
-1.46018e-46
-5.33135e-47
-1.89299e-47
-6.52849e-48
-2.18408e-48
-7.07797e-49
-2.21857e-49
-6.71504e-50
-1.95912e-50
-5.49872e-51
-1.48157e-51
-3.82313e-52
-9.42366e-53
-2.2124e-53
-4.93102e-54
-1.03956e-54
-2.06442e-55
-3.8433e-56
-6.67073e-57
-1.0725e-57
-1.58505e-58
-2.13347e-59
-2.58571e-60
-2.78152e-61
-2.60662e-62
-2.07479e-63
-1.3528e-64
-6.82984e-66
-2.41662e-67
-4.77165e-69
-1.46762e-71
-3.70841e-76
-3.30664e-78
-1.46215e-80
-5.02446e-91
-8.62523e-102
-1.06504e-112
-9.4748e-124
-7.1808e-135
-4.14334e-146
-2.05744e-157
-1.70831e-167
-7.23142e-178
-5.64206e-186
-2.15076e-196
-1.94066e-204
-8.65041e-215
-6.6774e-223
-3.64817e-233
-2.29946e-241
-2.31668e-251
-8.04384e-260
-1.52139e-269
-2.87759e-278
-7.50974e-288
-1.05069e-296
-3.57018e-306
-3.69717e-315
8.26572e-321
0
0
0
0
0
0
0
0
0
0
0
0
0
0
0
0
0
0
0
0
0
0
)
;

boundaryField
{
    inandouthalf11
    {
        type            cyclic;
    }
    inandouthalf12
    {
        type            cyclic;
    }
    inandouthalf21
    {
        type            cyclic;
    }
    inandouthalf22
    {
        type            cyclic;
    }
    inandouthalf31
    {
        type            cyclic;
    }
    inandouthalf32
    {
        type            cyclic;
    }
    inandouthalf41
    {
        type            cyclic;
    }
    inandouthalf42
    {
        type            cyclic;
    }
    top
    {
        type            symmetryPlane;
    }
    walls
    {
        type            calculated;
        value           uniform 6.27725e-05;
    }
    frontAndBackPlanes
    {
        type            empty;
    }
}


// ************************************************************************* //
