/*--------------------------------*- C++ -*----------------------------------*\
| =========                 |                                                 |
| \\      /  F ield         | OpenFOAM: The Open Source CFD Toolbox           |
|  \\    /   O peration     | Version:  2.4.x                                 |
|   \\  /    A nd           | Web:      www.OpenFOAM.org                      |
|    \\/     M anipulation  |                                                 |
\*---------------------------------------------------------------------------*/
FoamFile
{
    version     2.0;
    format      ascii;
    class       volScalarField;
    location    "7.55";
    object      epsilon;
}
// * * * * * * * * * * * * * * * * * * * * * * * * * * * * * * * * * * * * * //

dimensions      [0 2 -3 0 0 0 0];

internalField   nonuniform List<scalar> 
360
(
1e-20
1e-20
1e-20
1e-20
1e-20
1e-20
1e-20
1e-20
1e-20
1e-20
1e-20
1e-20
1e-20
1e-20
1e-20
1e-20
1e-20
1e-20
1e-20
1e-20
1e-20
1e-20
1e-20
1e-20
1e-20
1e-20
1e-20
1e-20
1e-20
1e-20
1e-20
1e-20
1e-20
1e-20
1e-20
1e-20
1e-20
1e-20
1e-20
1e-20
1e-20
1e-20
1e-20
1e-20
1e-20
1e-20
1e-20
1e-20
1e-20
1e-20
1e-20
1e-20
1e-20
1e-20
1e-20
1e-20
1e-20
1e-20
1e-20
1e-20
1e-20
1e-20
1e-20
1e-20
1e-20
1e-20
1e-20
1e-20
1e-20
1e-20
1e-20
1e-20
1e-20
1e-20
1e-20
1e-20
1e-20
1e-20
1e-20
1e-20
1e-20
1e-20
1e-20
1e-20
1e-20
1e-20
1e-20
1e-20
1e-20
1e-20
1e-20
1e-20
1e-20
1e-20
1e-20
1e-20
1e-20
1e-20
1e-20
1e-20
1e-20
1e-20
1e-20
1e-20
1e-20
1e-20
1e-20
1e-20
1e-20
1e-20
1e-20
1e-20
1e-20
1e-20
1e-20
1e-20
1e-20
1e-20
1e-20
1e-20
1e-20
1e-20
1e-20
1e-20
1e-20
1e-20
1e-20
1e-20
1e-20
1e-20
1e-20
1e-20
1e-20
1.46463e-20
5.78649e-20
2.67115e-19
1.2959e-18
6.42361e-18
3.1717e-17
1.53885e-16
7.48519e-16
4.04827e-15
3.07474e-14
3.93512e-13
7.83862e-12
2.14777e-10
7.64837e-09
3.43988e-07
1.95955e-05
0.00134855
0.0440489
0.0552443
0.0304428
0.0178201
0.0120434
0.00926749
0.00782585
0.00703275
0.00658772
0.00634576
0.00623021
0.00619717
0.00621968
0.00628022
0.00636682
0.00647097
0.00658642
0.00670848
0.00683352
0.00695874
0.00708194
0.00720137
0.00731568
0.0074238
0.00752489
0.00761832
0.00770363
0.00778049
0.00784868
0.00790808
0.00795864
0.00800039
0.0080334
0.00805781
0.00807377
0.00808148
0.00808116
0.00807304
0.00805738
0.00803445
0.00800453
0.0079679
0.00792486
0.00787569
0.00782069
0.00776015
0.00769437
0.00762363
0.00754822
0.00746842
0.00738451
0.00729588
0.0072017
0.00710197
0.00699674
0.00688603
0.00676989
0.00664837
0.00652154
0.00638948
0.00625228
0.00611005
0.00596289
0.00581095
0.00565438
0.00549334
0.00532802
0.00515861
0.00498534
0.00480846
0.00462822
0.00444492
0.00425886
0.0040704
0.00387989
0.00368773
0.00349435
0.00330021
0.0031058
0.00291166
0.00271836
0.00252651
0.00233675
0.0021498
0.00196637
0.00178725
0.00161325
0.00144522
0.00128404
0.00113057
0.000985717
0.000850312
0.00072515
0.000610919
0.000508162
0.000417217
0.00033817
0.000270801
0.00021456
0.000168572
0.000131684
0.000102552
7.97559e-05
6.19194e-05
4.78075e-05
3.63948e-05
2.69044e-05
1.88254e-05
1.19208e-05
6.23275e-06
2.07449e-06
2.54702e-07
9.30081e-09
2.15437e-10
4.62205e-12
9.36256e-14
1.78975e-15
3.22747e-17
5.55528e-19
1.67101e-20
1e-20
1e-20
1e-20
1e-20
1e-20
1e-20
1e-20
1e-20
1e-20
1e-20
1e-20
1e-20
1e-20
1e-20
1e-20
1e-20
1e-20
1e-20
1e-20
1e-20
1e-20
1e-20
1e-20
1e-20
1e-20
1e-20
1e-20
1e-20
1e-20
1e-20
1e-20
1e-20
1e-20
1e-20
1e-20
1e-20
1e-20
1e-20
1e-20
1e-20
1e-20
1e-20
1e-20
1e-20
1e-20
1e-20
1e-20
1e-20
1e-20
1e-20
1e-20
1e-20
1e-20
1e-20
1e-20
1e-20
1e-20
1e-20
1e-20
1e-20
1e-20
1e-20
1e-20
1e-20
1e-20
1e-20
1e-20
1e-20
1e-20
1e-20
1e-20
1e-20
1e-20
1e-20
1e-20
1e-20
1e-20
1e-20
1e-20
1e-20
1e-20
1e-20
1e-20
1e-20
1e-20
1e-20
1e-20
1e-20
1e-20
1e-20
)
;

boundaryField
{
    inandouthalf11
    {
        type            cyclic;
    }
    inandouthalf12
    {
        type            cyclic;
    }
    inandouthalf21
    {
        type            cyclic;
    }
    inandouthalf22
    {
        type            cyclic;
    }
    inandouthalf31
    {
        type            cyclic;
    }
    inandouthalf32
    {
        type            cyclic;
    }
    inandouthalf41
    {
        type            cyclic;
    }
    inandouthalf42
    {
        type            cyclic;
    }
    top
    {
        type            symmetryPlane;
    }
    walls
    {
        type            zeroGradient;
    }
    frontAndBackPlanes
    {
        type            empty;
    }
}


// ************************************************************************* //
