/*--------------------------------*- C++ -*----------------------------------*\
| =========                 |                                                 |
| \\      /  F ield         | OpenFOAM: The Open Source CFD Toolbox           |
|  \\    /   O peration     | Version:  2.4.x                                 |
|   \\  /    A nd           | Web:      www.OpenFOAM.org                      |
|    \\/     M anipulation  |                                                 |
\*---------------------------------------------------------------------------*/
FoamFile
{
    version     2.0;
    format      ascii;
    class       volScalarField;
    location    "7.55";
    object      mua;
}
// * * * * * * * * * * * * * * * * * * * * * * * * * * * * * * * * * * * * * //

dimensions      [1 -1 -1 0 0 0 0];

internalField   nonuniform List<scalar> 
360
(
1.74961e+06
1.22993e+06
1.53882e+06
1.59963e+06
1.5219e+06
1.48177e+06
1.47347e+06
1.4702e+06
1.4647e+06
1.45658e+06
1.44688e+06
1.43697e+06
1.42719e+06
1.41746e+06
1.40734e+06
1.3965e+06
1.385e+06
1.37308e+06
1.36076e+06
1.34807e+06
1.3353e+06
1.3222e+06
1.30887e+06
1.29544e+06
1.28193e+06
1.26847e+06
1.25503e+06
1.24145e+06
1.22797e+06
1.21469e+06
1.20145e+06
1.18827e+06
1.17536e+06
1.16229e+06
1.14955e+06
1.137e+06
1.12462e+06
1.11217e+06
1.09986e+06
1.08801e+06
1.07597e+06
1.06427e+06
1.05293e+06
1.04143e+06
1.03019e+06
1.01912e+06
1.00837e+06
998168
987737
977185
967185
957295
947553
938010
928785
919593
910853
902241
894016
885998
877617
869299
860841
852544
844475
836645
828905
821373
814202
807124
799569
791889
784455
776781
769069
761569
754727
748451
742601
737205
732257
727526
722948
718608
714609
711126
708340
706460
705559
705596
706500
708141
710342
712987
716008
719376
723095
727177
731620
736393
741442
746692
752053
757437
762757
767921
772831
777370
781402
784765
787269
788695
788793
787286
783875
778255
770136
759276
745524
728867
709480
687757
664312
639946
615561
592074
570357
551269
535741
524847
519616
520419
526124
533917
540544
543402
538465
518053
478815
439347
442136
542465
846000
1.79198e+06
5.37822e+06
8.73798e+06
1605.38
293.362
0.44543
0.0191741
0.00313743
0.00300595
0.00297035
0.0029615
0.00297578
0.00300706
0.00304982
0.00309989
0.00315429
0.00321088
0.00326819
0.00332518
0.00338111
0.00343548
0.00348793
0.0035382
0.00358614
0.00363163
0.00367459
0.00371499
0.00375283
0.0037881
0.00382083
0.00385104
0.00387877
0.00390407
0.00392699
0.00394759
0.00396591
0.00398202
0.00399598
0.00400784
0.00401768
0.00402555
0.00403151
0.00403563
0.00403797
0.0040386
0.00403756
0.00403492
0.00403075
0.00402509
0.00401801
0.00400956
0.0039998
0.00398879
0.00397657
0.0039632
0.00394872
0.0039332
0.00391667
0.00389901
0.00388002
0.0038597
0.00383801
0.00381492
0.00379041
0.00376444
0.00373696
0.00370793
0.00367728
0.00364497
0.00361089
0.00357498
0.00353711
0.00349718
0.00345506
0.00341058
0.00336357
0.00331382
0.0032611
0.00320512
0.00314556
0.003082
0.00301399
0.00294093
0.00286209
0.00277656
0.00268315
0.00258027
0.00246574
0.00233638
0.00218734
0.00201043
0.00178994
0.00148722
0
0
0
0
0
0
0
0
0
0
0
0
0
0
0
0
0
0
0
0
0
0
0
0
0
0
0
0
0
0
0
0
0
0
0
0
0
0
0
0
0
0
0
0
0
0
0
0
0
0
0
0
0
0
0
0
0
0
0
0
0
0
0
0
0
0
0
0
0
0
0
0
0
0
0
0
0
0
0
0
0
0
0
0
0
0
0
0
0
0
0
0
0
0
0
0
0
0
0
0
0
0
0
0
0
0
0
0
0
0
0
0
0
0
0
0
0
0
0
0
0
0
0
0
)
;

boundaryField
{
    inandouthalf11
    {
        type            cyclic;
    }
    inandouthalf12
    {
        type            cyclic;
    }
    inandouthalf21
    {
        type            cyclic;
    }
    inandouthalf22
    {
        type            cyclic;
    }
    inandouthalf31
    {
        type            cyclic;
    }
    inandouthalf32
    {
        type            cyclic;
    }
    inandouthalf41
    {
        type            cyclic;
    }
    inandouthalf42
    {
        type            cyclic;
    }
    top
    {
        type            symmetryPlane;
    }
    walls
    {
        type            calculated;
        value           uniform 1e+30;
    }
    frontAndBackPlanes
    {
        type            empty;
    }
}


// ************************************************************************* //
