/*--------------------------------*- C++ -*----------------------------------*\
| =========                 |                                                 |
| \\      /  F ield         | OpenFOAM: The Open Source CFD Toolbox           |
|  \\    /   O peration     | Version:  2.4.x                                 |
|   \\  /    A nd           | Web:      www.OpenFOAM.org                      |
|    \\/     M anipulation  |                                                 |
\*---------------------------------------------------------------------------*/
FoamFile
{
    version     2.0;
    format      ascii;
    class       surfaceScalarField;
    location    "7.55";
    object      phia_0;
}
// * * * * * * * * * * * * * * * * * * * * * * * * * * * * * * * * * * * * * //

dimensions      [0 3 -1 0 0 0 0];

internalField   nonuniform List<scalar> 
359
(
-2.05067e-13
-5.19361e-13
-8.04437e-13
-1.07253e-12
-1.34544e-12
-1.62339e-12
-1.90202e-12
-2.17977e-12
-2.45672e-12
-2.73342e-12
-3.01018e-12
-3.28701e-12
-3.56392e-12
-3.8409e-12
-4.11801e-12
-4.39539e-12
-4.67319e-12
-4.95147e-12
-5.23033e-12
-5.50987e-12
-5.79008e-12
-6.07107e-12
-6.35288e-12
-6.63556e-12
-6.91914e-12
-7.20362e-12
-7.489e-12
-7.77534e-12
-8.06264e-12
-8.35086e-12
-8.63998e-12
-8.93008e-12
-9.221e-12
-9.51291e-12
-9.80564e-12
-1.00992e-11
-1.03936e-11
-1.06888e-11
-1.09849e-11
-1.12816e-11
-1.15791e-11
-1.18773e-11
-1.2176e-11
-1.24755e-11
-1.27755e-11
-1.3076e-11
-1.3377e-11
-1.36783e-11
-1.39799e-11
-1.4282e-11
-1.45842e-11
-1.48867e-11
-1.51894e-11
-1.54921e-11
-1.57948e-11
-1.60975e-11
-1.64e-11
-1.67023e-11
-1.70042e-11
-1.73057e-11
-1.76068e-11
-1.79076e-11
-1.8208e-11
-1.8508e-11
-1.88075e-11
-1.91065e-11
-1.94048e-11
-1.97024e-11
-1.99991e-11
-2.02948e-11
-2.05899e-11
-2.08841e-11
-2.11775e-11
-2.14702e-11
-2.1762e-11
-2.20529e-11
-2.23427e-11
-2.26311e-11
-2.29178e-11
-2.32028e-11
-2.34858e-11
-2.37666e-11
-2.40452e-11
-2.43215e-11
-2.45953e-11
-2.48664e-11
-2.51344e-11
-2.53991e-11
-2.56599e-11
-2.59167e-11
-2.6169e-11
-2.64166e-11
-2.66594e-11
-2.68972e-11
-2.71299e-11
-2.73575e-11
-2.75799e-11
-2.7797e-11
-2.80087e-11
-2.82152e-11
-2.84163e-11
-2.86121e-11
-2.88025e-11
-2.89878e-11
-2.91679e-11
-2.9343e-11
-2.95132e-11
-2.96786e-11
-2.98395e-11
-2.99959e-11
-3.0148e-11
-3.02962e-11
-3.04407e-11
-3.05816e-11
-3.07195e-11
-3.08546e-11
-3.09874e-11
-3.11181e-11
-3.12474e-11
-3.13756e-11
-3.15033e-11
-3.16307e-11
-3.17583e-11
-3.18862e-11
-3.20144e-11
-3.21429e-11
-3.22713e-11
-3.23989e-11
-3.25248e-11
-3.26478e-11
-3.27666e-11
-3.28796e-11
-3.2986e-11
-3.30855e-11
-3.31784e-11
-3.32654e-11
-3.33479e-11
-3.34279e-11
-3.35081e-11
-3.35882e-11
-3.36614e-11
-3.37149e-11
-3.37456e-11
-3.37586e-11
-3.37623e-11
-3.37629e-11
-3.83587e-11
-4.694e-11
-5.08324e-11
1.75121e-09
5.79352e-09
6.60123e-09
3.18395e-09
-2.30096e-09
-7.66154e-09
-1.21564e-08
-1.57325e-08
-1.86116e-08
-2.09576e-08
-2.28927e-08
-2.44936e-08
-2.58212e-08
-2.69267e-08
-2.78382e-08
-2.85825e-08
-2.91817e-08
-2.96547e-08
-3.00185e-08
-3.02885e-08
-3.04785e-08
-3.06008e-08
-3.06668e-08
-3.06864e-08
-3.06686e-08
-3.0621e-08
-3.05505e-08
-3.04626e-08
-3.03622e-08
-3.02531e-08
-3.01385e-08
-3.00206e-08
-2.99012e-08
-2.97815e-08
-2.96621e-08
-2.95433e-08
-2.9425e-08
-2.9307e-08
-2.91887e-08
-2.90694e-08
-2.89484e-08
-2.8825e-08
-2.86983e-08
-2.85675e-08
-2.84318e-08
-2.82905e-08
-2.81428e-08
-2.79882e-08
-2.78261e-08
-2.76563e-08
-2.74785e-08
-2.7293e-08
-2.70959e-08
-2.68871e-08
-2.66667e-08
-2.64346e-08
-2.61909e-08
-2.59354e-08
-2.56682e-08
-2.53892e-08
-2.50986e-08
-2.47973e-08
-2.44868e-08
-2.41694e-08
-2.38474e-08
-2.35224e-08
-2.31962e-08
-2.287e-08
-2.25445e-08
-2.22199e-08
-2.1896e-08
-2.15732e-08
-2.12513e-08
-2.09292e-08
-2.06071e-08
-2.02849e-08
-1.99618e-08
-1.96375e-08
-1.93125e-08
-1.89854e-08
-1.866e-08
-1.83295e-08
-1.80084e-08
-1.76731e-08
-1.73792e-08
-1.69696e-08
-1.64143e-08
-1.45422e-08
-1.12036e-08
-8.94418e-09
-6.44462e-09
-4.53681e-09
-1.46583e-09
-7.86846e-08
-1.5135e-07
-1.58349e-07
-1.58222e-07
-1.58201e-07
-1.5817e-07
-1.5814e-07
-1.58115e-07
-1.58092e-07
-1.5807e-07
-1.58053e-07
-1.5804e-07
-1.5803e-07
-1.58023e-07
-1.58016e-07
-1.58009e-07
-1.58e-07
-1.57986e-07
-1.57952e-07
-1.57921e-07
-1.57916e-07
-1.57916e-07
-1.57916e-07
-1.57916e-07
-1.57916e-07
-1.57916e-07
-1.57916e-07
-1.57916e-07
-1.57916e-07
-1.57916e-07
-1.57916e-07
-1.57916e-07
-1.57916e-07
-1.57916e-07
-1.57916e-07
-1.57916e-07
-1.57916e-07
-1.57916e-07
-1.57916e-07
-1.57916e-07
-1.57916e-07
-1.57916e-07
-1.57916e-07
-1.57916e-07
-1.57916e-07
-1.57916e-07
-1.57916e-07
-1.57916e-07
-1.57916e-07
-1.57916e-07
-1.57916e-07
-1.57916e-07
-1.57916e-07
-1.57916e-07
-1.57916e-07
-1.57916e-07
-1.57916e-07
-1.57916e-07
-1.57916e-07
-1.57916e-07
-1.57916e-07
-1.57916e-07
-1.57916e-07
-1.57916e-07
-1.57916e-07
-1.57916e-07
-1.57916e-07
-1.57916e-07
-1.57916e-07
-1.57916e-07
-1.57916e-07
-1.57916e-07
-1.57916e-07
-1.57916e-07
-1.57916e-07
-1.57916e-07
-1.57916e-07
-1.57916e-07
-1.57916e-07
-1.57916e-07
-1.57916e-07
-1.57916e-07
-1.57916e-07
-1.57916e-07
-1.57916e-07
-1.57916e-07
-1.57916e-07
-1.57916e-07
-1.57916e-07
-1.57916e-07
-1.57916e-07
-1.57916e-07
-1.57916e-07
-1.57916e-07
-1.57916e-07
-1.57916e-07
-1.57916e-07
-1.57916e-07
-1.57916e-07
-1.57916e-07
-1.57916e-07
-1.57916e-07
-1.57916e-07
-1.57916e-07
-1.57916e-07
-1.57916e-07
-1.57916e-07
-1.57916e-07
-1.57916e-07
-1.57916e-07
-1.57916e-07
-1.57916e-07
-1.57916e-07
-1.57916e-07
-1.57899e-07
-1.57189e-07
-1.32167e-07
)
;

boundaryField
{
    inandouthalf11
    {
        type            cyclic;
        value           nonuniform List<scalar> 
100
(
-6.52248e-39
-8.55091e-15
-1.75348e-14
-2.52703e-14
-3.28602e-14
-4.05558e-14
-4.81852e-14
-5.56547e-14
-6.29591e-14
-7.01126e-14
-7.71271e-14
-8.4008e-14
-9.07568e-14
-9.73743e-14
-1.03862e-13
-1.10225e-13
-1.16466e-13
-1.22589e-13
-1.28596e-13
-1.3449e-13
-1.40272e-13
-1.45944e-13
-1.51508e-13
-1.56965e-13
-1.62316e-13
-1.67561e-13
-1.727e-13
-1.77734e-13
-1.82664e-13
-1.87488e-13
-1.92208e-13
-1.96822e-13
-2.0133e-13
-2.05732e-13
-2.10028e-13
-2.14217e-13
-2.18299e-13
-2.22273e-13
-2.26139e-13
-2.29896e-13
-2.33544e-13
-2.37083e-13
-2.4051e-13
-2.43827e-13
-2.47032e-13
-2.50124e-13
-2.53104e-13
-2.55969e-13
-2.58719e-13
-2.61355e-13
-2.63875e-13
-2.66279e-13
-2.68566e-13
-2.70737e-13
-2.72789e-13
-2.74723e-13
-2.76537e-13
-2.78233e-13
-2.79808e-13
-2.81263e-13
-2.82598e-13
-2.83812e-13
-2.84907e-13
-2.85881e-13
-2.86735e-13
-2.87467e-13
-2.88078e-13
-2.88566e-13
-2.88932e-13
-2.89176e-13
-2.89297e-13
-2.89296e-13
-2.89171e-13
-2.88922e-13
-2.88549e-13
-2.88049e-13
-2.87424e-13
-2.86672e-13
-2.85795e-13
-2.84793e-13
-2.83666e-13
-2.82416e-13
-2.81043e-13
-2.7955e-13
-2.77938e-13
-2.76208e-13
-2.74363e-13
-2.72409e-13
-2.70349e-13
-2.6819e-13
-2.65939e-13
-2.63603e-13
-2.6119e-13
-2.58704e-13
-2.56155e-13
-2.53548e-13
-2.5089e-13
-2.48189e-13
-2.45451e-13
-2.42682e-13
)
;
    }
    inandouthalf12
    {
        type            cyclic;
        value           nonuniform List<scalar> 
100
(
6.52248e-39
8.55091e-15
1.75348e-14
2.52703e-14
3.28602e-14
4.05558e-14
4.81852e-14
5.56547e-14
6.29591e-14
7.01126e-14
7.71271e-14
8.4008e-14
9.07568e-14
9.73743e-14
1.03862e-13
1.10225e-13
1.16466e-13
1.22589e-13
1.28596e-13
1.3449e-13
1.40272e-13
1.45944e-13
1.51508e-13
1.56965e-13
1.62316e-13
1.67561e-13
1.727e-13
1.77734e-13
1.82664e-13
1.87488e-13
1.92208e-13
1.96822e-13
2.0133e-13
2.05732e-13
2.10028e-13
2.14217e-13
2.18299e-13
2.22273e-13
2.26139e-13
2.29896e-13
2.33544e-13
2.37083e-13
2.4051e-13
2.43827e-13
2.47032e-13
2.50124e-13
2.53104e-13
2.55969e-13
2.58719e-13
2.61355e-13
2.63875e-13
2.66279e-13
2.68566e-13
2.70737e-13
2.72789e-13
2.74723e-13
2.76537e-13
2.78233e-13
2.79808e-13
2.81263e-13
2.82598e-13
2.83812e-13
2.84907e-13
2.85881e-13
2.86735e-13
2.87467e-13
2.88078e-13
2.88566e-13
2.88932e-13
2.89176e-13
2.89297e-13
2.89296e-13
2.89171e-13
2.88922e-13
2.88549e-13
2.88049e-13
2.87424e-13
2.86672e-13
2.85795e-13
2.84793e-13
2.83666e-13
2.82416e-13
2.81043e-13
2.7955e-13
2.77938e-13
2.76208e-13
2.74363e-13
2.72409e-13
2.70349e-13
2.6819e-13
2.65939e-13
2.63603e-13
2.6119e-13
2.58704e-13
2.56155e-13
2.53548e-13
2.5089e-13
2.48189e-13
2.45451e-13
2.42682e-13
)
;
    }
    inandouthalf21
    {
        type            cyclic;
        value           nonuniform List<scalar> 
100
(
-2.39891e-13
-2.37083e-13
-2.34264e-13
-2.31441e-13
-2.28617e-13
-2.25797e-13
-2.22986e-13
-2.20186e-13
-2.17401e-13
-2.1463e-13
-2.11876e-13
-2.09137e-13
-2.06411e-13
-2.03694e-13
-2.00982e-13
-1.98266e-13
-1.95536e-13
-1.92779e-13
-1.8998e-13
-1.87119e-13
-1.84174e-13
-1.81118e-13
-1.77925e-13
-1.74563e-13
-1.71002e-13
-1.67213e-13
-1.63172e-13
-1.5886e-13
-1.54269e-13
-1.49408e-13
-1.44306e-13
-1.39015e-13
-1.33591e-13
-1.28078e-13
-1.22491e-13
-1.16812e-13
-1.10984e-13
-1.04871e-13
-9.82225e-14
-9.07882e-14
-8.27932e-14
-7.54266e-14
-7.01366e-14
-6.74549e-14
-6.66832e-14
-6.65835e-14
-6.69559e-14
-2.41235e-12
-1.54883e-11
-6.91738e-09
-9.6309e-08
-1.82717e-07
-2.23051e-07
-2.4417e-07
-2.5622e-07
-2.6348e-07
-2.67913e-07
-2.70524e-07
-2.71887e-07
-2.7235e-07
-2.72142e-07
-2.71419e-07
-2.70287e-07
-2.68828e-07
-2.67104e-07
-2.65163e-07
-2.63042e-07
-2.60773e-07
-2.58381e-07
-2.55889e-07
-2.53313e-07
-2.5067e-07
-2.47974e-07
-2.45238e-07
-2.4247e-07
-2.39682e-07
-2.36883e-07
-2.34079e-07
-2.31278e-07
-2.28487e-07
-2.25711e-07
-2.22957e-07
-2.20228e-07
-2.17531e-07
-2.1487e-07
-2.12247e-07
-2.09668e-07
-2.07136e-07
-2.04654e-07
-2.02225e-07
-1.99852e-07
-1.97538e-07
-1.95286e-07
-1.93097e-07
-1.90975e-07
-1.88921e-07
-1.86938e-07
-1.85027e-07
-1.83191e-07
-1.8143e-07
)
;
    }
    inandouthalf22
    {
        type            cyclic;
        value           nonuniform List<scalar> 
100
(
2.39891e-13
2.37083e-13
2.34264e-13
2.31441e-13
2.28617e-13
2.25797e-13
2.22986e-13
2.20186e-13
2.17401e-13
2.1463e-13
2.11876e-13
2.09137e-13
2.06411e-13
2.03694e-13
2.00982e-13
1.98266e-13
1.95536e-13
1.92779e-13
1.8998e-13
1.87119e-13
1.84174e-13
1.81118e-13
1.77925e-13
1.74563e-13
1.71002e-13
1.67213e-13
1.63172e-13
1.5886e-13
1.54269e-13
1.49408e-13
1.44306e-13
1.39015e-13
1.33591e-13
1.28078e-13
1.22491e-13
1.16812e-13
1.10984e-13
1.04871e-13
9.82225e-14
9.07882e-14
8.27932e-14
7.54266e-14
7.01366e-14
6.74549e-14
6.66832e-14
6.65835e-14
6.69559e-14
2.41235e-12
1.54883e-11
6.91738e-09
9.6309e-08
1.82717e-07
2.23051e-07
2.4417e-07
2.5622e-07
2.6348e-07
2.67913e-07
2.70524e-07
2.71887e-07
2.7235e-07
2.72142e-07
2.71419e-07
2.70287e-07
2.68828e-07
2.67104e-07
2.65163e-07
2.63042e-07
2.60773e-07
2.58381e-07
2.55889e-07
2.53313e-07
2.5067e-07
2.47974e-07
2.45238e-07
2.4247e-07
2.39682e-07
2.36883e-07
2.34079e-07
2.31278e-07
2.28487e-07
2.25711e-07
2.22957e-07
2.20228e-07
2.17531e-07
2.1487e-07
2.12247e-07
2.09668e-07
2.07136e-07
2.04654e-07
2.02225e-07
1.99852e-07
1.97538e-07
1.95286e-07
1.93097e-07
1.90975e-07
1.88921e-07
1.86938e-07
1.85027e-07
1.83191e-07
1.8143e-07
)
;
    }
    inandouthalf31
    {
        type            cyclic;
        value           nonuniform List<scalar> 
110
(
-1.79748e-07
-1.81742e-07
-1.83793e-07
-1.85903e-07
-1.88074e-07
-1.90311e-07
-1.92617e-07
-1.94993e-07
-1.97443e-07
-1.99967e-07
-2.02568e-07
-2.05246e-07
-2.08002e-07
-2.10836e-07
-2.13747e-07
-2.16735e-07
-2.19798e-07
-2.22935e-07
-2.26144e-07
-2.29425e-07
-2.32776e-07
-2.36194e-07
-2.39678e-07
-2.43228e-07
-2.46843e-07
-2.50522e-07
-2.54267e-07
-2.58081e-07
-2.61967e-07
-2.65932e-07
-2.69986e-07
-2.74141e-07
-2.78422e-07
-2.82867e-07
-2.87559e-07
-2.92566e-07
-2.97551e-07
-1.44632e-07
-1.41604e-07
-1.38392e-07
-1.35719e-07
-1.32793e-07
-1.30248e-07
-1.31567e-07
-1.30645e-07
-1.28904e-07
-1.28168e-07
-1.27975e-07
-1.28429e-07
-1.29623e-07
-1.31633e-07
-1.34271e-07
-1.37721e-07
-1.4189e-07
-1.46737e-07
-1.52197e-07
-1.58184e-07
-1.64585e-07
-1.7125e-07
-1.77983e-07
-1.84456e-07
-1.89621e-07
-1.93707e-07
-1.97648e-07
-2.0166e-07
-2.05753e-07
-2.0993e-07
-2.14191e-07
-2.18538e-07
-2.22974e-07
-2.275e-07
-2.32118e-07
-2.36829e-07
-2.41636e-07
-2.46541e-07
-2.51545e-07
-2.5665e-07
-2.6186e-07
-2.67175e-07
-2.72598e-07
-2.78131e-07
-2.83776e-07
-2.89536e-07
-2.95413e-07
-3.01409e-07
-3.07527e-07
-3.13769e-07
-3.20137e-07
-3.26635e-07
-3.33265e-07
-3.40029e-07
-3.46931e-07
-3.53973e-07
-3.61158e-07
-3.68488e-07
-3.75968e-07
-3.83599e-07
-3.91385e-07
-3.99329e-07
-4.07434e-07
-4.15704e-07
-4.24142e-07
-4.32751e-07
-4.41534e-07
-4.50496e-07
-4.5964e-07
-4.6897e-07
-4.78488e-07
-4.882e-07
-4.9811e-07
)
;
    }
    inandouthalf32
    {
        type            cyclic;
        value           nonuniform List<scalar> 
110
(
1.79748e-07
1.81742e-07
1.83793e-07
1.85903e-07
1.88074e-07
1.90311e-07
1.92617e-07
1.94993e-07
1.97443e-07
1.99967e-07
2.02568e-07
2.05246e-07
2.08002e-07
2.10836e-07
2.13747e-07
2.16735e-07
2.19798e-07
2.22935e-07
2.26144e-07
2.29425e-07
2.32776e-07
2.36194e-07
2.39678e-07
2.43228e-07
2.46843e-07
2.50522e-07
2.54267e-07
2.58081e-07
2.61967e-07
2.65932e-07
2.69986e-07
2.74141e-07
2.78422e-07
2.82867e-07
2.87559e-07
2.92566e-07
2.97551e-07
1.44632e-07
1.41604e-07
1.38392e-07
1.35719e-07
1.32793e-07
1.30248e-07
1.31567e-07
1.30645e-07
1.28904e-07
1.28168e-07
1.27975e-07
1.28429e-07
1.29623e-07
1.31633e-07
1.34271e-07
1.37721e-07
1.4189e-07
1.46737e-07
1.52197e-07
1.58184e-07
1.64585e-07
1.7125e-07
1.77983e-07
1.84456e-07
1.89621e-07
1.93707e-07
1.97648e-07
2.0166e-07
2.05753e-07
2.0993e-07
2.14191e-07
2.18538e-07
2.22974e-07
2.275e-07
2.32118e-07
2.36829e-07
2.41636e-07
2.46541e-07
2.51545e-07
2.5665e-07
2.6186e-07
2.67175e-07
2.72598e-07
2.78131e-07
2.83776e-07
2.89536e-07
2.95413e-07
3.01409e-07
3.07527e-07
3.13769e-07
3.20137e-07
3.26635e-07
3.33265e-07
3.40029e-07
3.46931e-07
3.53973e-07
3.61158e-07
3.68488e-07
3.75968e-07
3.83599e-07
3.91385e-07
3.99329e-07
4.07434e-07
4.15704e-07
4.24142e-07
4.32751e-07
4.41534e-07
4.50496e-07
4.5964e-07
4.6897e-07
4.78488e-07
4.882e-07
4.9811e-07
)
;
    }
    inandouthalf41
    {
        type            cyclic;
        value           nonuniform List<scalar> 
50
(
-4.45859e-07
-4.45859e-07
-4.45859e-07
-4.45859e-07
-4.45859e-07
-4.45859e-07
-4.45859e-07
-4.45859e-07
-4.45859e-07
-4.45859e-07
-4.45859e-07
-4.45859e-07
-4.45859e-07
-4.45859e-07
-4.45859e-07
-4.45859e-07
-4.45859e-07
-4.45859e-07
-4.45859e-07
-4.45859e-07
-4.45859e-07
-4.45859e-07
-4.45859e-07
-4.45859e-07
-4.45859e-07
-4.45859e-07
-4.45859e-07
-4.45859e-07
-4.45859e-07
-4.45859e-07
-4.45859e-07
-4.45859e-07
-4.45859e-07
-4.45859e-07
-4.45859e-07
-4.45859e-07
-4.45859e-07
-4.45859e-07
-4.45859e-07
-4.45859e-07
-4.45859e-07
-4.45859e-07
-4.45859e-07
-4.45859e-07
-4.45859e-07
-4.45859e-07
-4.45858e-07
-4.45847e-07
-4.45581e-07
-4.39396e-07
)
;
    }
    inandouthalf42
    {
        type            cyclic;
        value           nonuniform List<scalar> 
50
(
4.45859e-07
4.45859e-07
4.45859e-07
4.45859e-07
4.45859e-07
4.45859e-07
4.45859e-07
4.45859e-07
4.45859e-07
4.45859e-07
4.45859e-07
4.45859e-07
4.45859e-07
4.45859e-07
4.45859e-07
4.45859e-07
4.45859e-07
4.45859e-07
4.45859e-07
4.45859e-07
4.45859e-07
4.45859e-07
4.45859e-07
4.45859e-07
4.45859e-07
4.45859e-07
4.45859e-07
4.45859e-07
4.45859e-07
4.45859e-07
4.45859e-07
4.45859e-07
4.45859e-07
4.45859e-07
4.45859e-07
4.45859e-07
4.45859e-07
4.45859e-07
4.45859e-07
4.45859e-07
4.45859e-07
4.45859e-07
4.45859e-07
4.45859e-07
4.45859e-07
4.45859e-07
4.45858e-07
4.45847e-07
4.45581e-07
4.39396e-07
)
;
    }
    top
    {
        type            symmetryPlane;
        value           uniform 0;
    }
    walls
    {
        type            fixedValue;
        value           uniform 0;
    }
    frontAndBackPlanes
    {
        type            empty;
        value           nonuniform 0();
    }
}


// ************************************************************************* //
