/*--------------------------------*- C++ -*----------------------------------*\
| =========                 |                                                 |
| \\      /  F ield         | OpenFOAM: The Open Source CFD Toolbox           |
|  \\    /   O peration     | Version:  2.4.x                                 |
|   \\  /    A nd           | Web:      www.OpenFOAM.org                      |
|    \\/     M anipulation  |                                                 |
\*---------------------------------------------------------------------------*/
FoamFile
{
    version     2.0;
    format      ascii;
    class       surfaceScalarField;
    location    "7.55";
    object      phib;
}
// * * * * * * * * * * * * * * * * * * * * * * * * * * * * * * * * * * * * * //

dimensions      [0 3 -1 0 0 0 0];

internalField   nonuniform List<scalar> 
359
(
3.22367e-13
8.18024e-13
1.26708e-12
1.68889e-12
2.11837e-12
2.55581e-12
2.99422e-12
3.43115e-12
3.86673e-12
4.30181e-12
4.73689e-12
5.172e-12
5.60715e-12
6.04231e-12
6.47758e-12
6.91319e-12
7.34934e-12
7.78618e-12
8.22379e-12
8.6624e-12
9.10194e-12
9.54261e-12
9.98448e-12
1.04276e-11
1.0872e-11
1.13177e-11
1.17647e-11
1.22131e-11
1.26629e-11
1.31141e-11
1.35665e-11
1.40203e-11
1.44753e-11
1.49317e-11
1.53893e-11
1.58481e-11
1.6308e-11
1.67691e-11
1.72313e-11
1.76944e-11
1.81587e-11
1.86238e-11
1.90897e-11
1.95565e-11
2.0024e-11
2.04922e-11
2.0961e-11
2.14301e-11
2.18995e-11
2.23695e-11
2.28396e-11
2.33098e-11
2.37801e-11
2.42505e-11
2.47205e-11
2.51904e-11
2.56597e-11
2.61285e-11
2.65966e-11
2.70637e-11
2.75302e-11
2.79957e-11
2.84606e-11
2.89246e-11
2.93876e-11
2.98495e-11
3.03102e-11
3.07694e-11
3.12272e-11
3.16831e-11
3.21376e-11
3.25908e-11
3.30423e-11
3.34923e-11
3.39408e-11
3.43876e-11
3.48324e-11
3.52746e-11
3.57141e-11
3.61505e-11
3.65834e-11
3.70127e-11
3.74383e-11
3.78599e-11
3.82772e-11
3.869e-11
3.90977e-11
3.94998e-11
3.98956e-11
4.02847e-11
4.06665e-11
4.10407e-11
4.14069e-11
4.1765e-11
4.21147e-11
4.24561e-11
4.2789e-11
4.31132e-11
4.34288e-11
4.37356e-11
4.40336e-11
4.43229e-11
4.46035e-11
4.48756e-11
4.51391e-11
4.53943e-11
4.56413e-11
4.58804e-11
4.61118e-11
4.63357e-11
4.65525e-11
4.67624e-11
4.69659e-11
4.71633e-11
4.73552e-11
4.7542e-11
4.77244e-11
4.7903e-11
4.80783e-11
4.82512e-11
4.84221e-11
4.85918e-11
4.87607e-11
4.89289e-11
4.90966e-11
4.92633e-11
4.94285e-11
4.95911e-11
4.97495e-11
4.99019e-11
5.0046e-11
5.01796e-11
5.03009e-11
5.04089e-11
5.05042e-11
5.0588e-11
5.0662e-11
5.07277e-11
5.07863e-11
5.08378e-11
5.08772e-11
5.08813e-11
5.08317e-11
5.07297e-11
5.0539e-11
5.01277e-11
5.66264e-11
6.90289e-11
6.9438e-11
-1.01814e-09
-7.59945e-10
-2.81297e-10
-5.88926e-11
2.13283e-11
4.38869e-11
4.82571e-11
4.67332e-11
4.3435e-11
3.97362e-11
3.61424e-11
3.28085e-11
2.97752e-11
2.70455e-11
2.45914e-11
2.23848e-11
2.0398e-11
1.86062e-11
1.69875e-11
1.5523e-11
1.41963e-11
1.2993e-11
1.19006e-11
1.09081e-11
1.00057e-11
9.18476e-12
8.43743e-12
7.75671e-12
7.13631e-12
6.5705e-12
6.05413e-12
5.58249e-12
5.15135e-12
4.75685e-12
4.3955e-12
4.06414e-12
3.75991e-12
3.48023e-12
3.22276e-12
2.9854e-12
2.76625e-12
2.56362e-12
2.376e-12
2.20203e-12
2.04048e-12
1.89026e-12
1.75036e-12
1.61987e-12
1.49798e-12
1.38393e-12
1.27704e-12
1.1767e-12
1.08057e-12
9.88565e-13
9.00641e-13
8.16784e-13
7.37025e-13
6.61451e-13
5.90206e-13
5.23454e-13
4.61353e-13
4.04032e-13
3.51557e-13
3.0397e-13
2.61278e-13
2.23331e-13
1.89856e-13
1.60594e-13
1.35238e-13
1.13398e-13
9.46671e-14
7.86834e-14
6.51477e-14
5.37277e-14
4.41105e-14
3.60624e-14
2.93608e-14
2.37914e-14
1.91831e-14
1.53785e-14
1.22632e-14
9.70126e-15
7.62731e-15
5.96604e-15
4.7491e-15
3.63574e-15
2.47847e-15
1.57385e-15
8.85552e-16
4.74948e-16
2.16318e-16
9.03741e-17
2.13311e-17
1.10671e-16
6.588e-18
6.37734e-18
6.2429e-18
6.02803e-18
5.88941e-18
5.66798e-18
5.51705e-18
5.28653e-18
5.11934e-18
4.87655e-18
4.68706e-18
4.4282e-18
4.22152e-18
3.95927e-18
3.74164e-18
3.46987e-18
3.23852e-18
2.96992e-18
2.74326e-18
2.49258e-18
2.3051e-18
2.14875e-18
2.04955e-18
1.9645e-18
1.88566e-18
1.81887e-18
1.75788e-18
1.68753e-18
1.61978e-18
1.5855e-18
1.54892e-18
1.50742e-18
1.44882e-18
1.40513e-18
1.34219e-18
1.27606e-18
1.19513e-18
1.16686e-18
1.12531e-18
1.08554e-18
1.0231e-18
9.78748e-19
9.13466e-19
8.14276e-19
7.27237e-19
6.72985e-19
6.01067e-19
5.28315e-19
4.3534e-19
3.60929e-19
2.65913e-19
1.74087e-19
5.35136e-20
1.11764e-19
1.15391e-19
1.25785e-19
7.32468e-20
8.54469e-20
8.55842e-20
8.67514e-20
7.77136e-20
8.8778e-20
9.08062e-20
9.3933e-20
8.88566e-20
9.11851e-20
8.65297e-20
8.2742e-20
7.39351e-20
7.85582e-20
7.85309e-20
7.91074e-20
7.63455e-20
7.62354e-20
7.37465e-20
7.14039e-20
6.72994e-20
6.58717e-20
6.40825e-20
6.21734e-20
6.03817e-20
5.79316e-20
5.83038e-20
5.85784e-20
4.88955e-20
1.22498e-19
1.95986e-19
2.68858e-19
3.79289e-19
4.36225e-19
5.68708e-19
6.90938e-19
9.39235e-19
9.02698e-19
1.05313e-18
1.19039e-18
1.56669e-18
1.69009e-18
2.13282e-18
2.55019e-18
3.31546e-18
3.49589e-18
4.15205e-18
4.78374e-18
5.9702e-18
6.79577e-18
8.04114e-18
9.38623e-18
1.07427e-17
1.3991e-17
1.64756e-17
1.92397e-17
2.04105e-17
2.52207e-17
2.6995e-17
3.16779e-17
)
;

boundaryField
{
    inandouthalf11
    {
        type            cyclic;
        value           nonuniform List<scalar> 
100
(
-2.60783e-10
-2.59437e-10
-2.59228e-10
-2.59421e-10
-2.59528e-10
-2.59571e-10
-2.59618e-10
-2.59674e-10
-2.59731e-10
-2.59789e-10
-2.59847e-10
-2.59905e-10
-2.59964e-10
-2.60022e-10
-2.60081e-10
-2.6014e-10
-2.602e-10
-2.6026e-10
-2.6032e-10
-2.60381e-10
-2.60442e-10
-2.60504e-10
-2.60566e-10
-2.60628e-10
-2.60691e-10
-2.60754e-10
-2.60818e-10
-2.60882e-10
-2.60947e-10
-2.61012e-10
-2.61078e-10
-2.61144e-10
-2.61211e-10
-2.61279e-10
-2.61346e-10
-2.61415e-10
-2.61484e-10
-2.61553e-10
-2.61624e-10
-2.61694e-10
-2.61766e-10
-2.61838e-10
-2.6191e-10
-2.61984e-10
-2.62058e-10
-2.62133e-10
-2.62208e-10
-2.62284e-10
-2.62361e-10
-2.62439e-10
-2.62517e-10
-2.62596e-10
-2.62676e-10
-2.62757e-10
-2.62838e-10
-2.62921e-10
-2.63003e-10
-2.63088e-10
-2.63173e-10
-2.63258e-10
-2.63346e-10
-2.63433e-10
-2.63522e-10
-2.63612e-10
-2.63703e-10
-2.63795e-10
-2.63888e-10
-2.63983e-10
-2.64078e-10
-2.64174e-10
-2.64272e-10
-2.64372e-10
-2.64472e-10
-2.64574e-10
-2.64677e-10
-2.64782e-10
-2.64888e-10
-2.64996e-10
-2.65105e-10
-2.65216e-10
-2.65328e-10
-2.65442e-10
-2.65558e-10
-2.65676e-10
-2.65796e-10
-2.65917e-10
-2.66041e-10
-2.66167e-10
-2.66295e-10
-2.66425e-10
-2.66557e-10
-2.66692e-10
-2.6683e-10
-2.6697e-10
-2.67113e-10
-2.67258e-10
-2.67407e-10
-2.67559e-10
-2.67714e-10
-2.67873e-10
)
;
    }
    inandouthalf12
    {
        type            cyclic;
        value           nonuniform List<scalar> 
100
(
2.60783e-10
2.59437e-10
2.59228e-10
2.59421e-10
2.59528e-10
2.59571e-10
2.59618e-10
2.59674e-10
2.59731e-10
2.59789e-10
2.59847e-10
2.59905e-10
2.59964e-10
2.60022e-10
2.60081e-10
2.6014e-10
2.602e-10
2.6026e-10
2.6032e-10
2.60381e-10
2.60442e-10
2.60504e-10
2.60566e-10
2.60628e-10
2.60691e-10
2.60754e-10
2.60818e-10
2.60882e-10
2.60947e-10
2.61012e-10
2.61078e-10
2.61144e-10
2.61211e-10
2.61279e-10
2.61346e-10
2.61415e-10
2.61484e-10
2.61553e-10
2.61624e-10
2.61694e-10
2.61766e-10
2.61838e-10
2.6191e-10
2.61984e-10
2.62058e-10
2.62133e-10
2.62208e-10
2.62284e-10
2.62361e-10
2.62439e-10
2.62517e-10
2.62596e-10
2.62676e-10
2.62757e-10
2.62838e-10
2.62921e-10
2.63003e-10
2.63088e-10
2.63173e-10
2.63258e-10
2.63346e-10
2.63433e-10
2.63522e-10
2.63612e-10
2.63703e-10
2.63795e-10
2.63888e-10
2.63983e-10
2.64078e-10
2.64174e-10
2.64272e-10
2.64372e-10
2.64472e-10
2.64574e-10
2.64677e-10
2.64782e-10
2.64888e-10
2.64996e-10
2.65105e-10
2.65216e-10
2.65328e-10
2.65442e-10
2.65558e-10
2.65676e-10
2.65796e-10
2.65917e-10
2.66041e-10
2.66167e-10
2.66295e-10
2.66425e-10
2.66557e-10
2.66692e-10
2.6683e-10
2.6697e-10
2.67113e-10
2.67258e-10
2.67407e-10
2.67559e-10
2.67714e-10
2.67873e-10
)
;
    }
    inandouthalf21
    {
        type            cyclic;
        value           nonuniform List<scalar> 
100
(
-2.68035e-10
-2.682e-10
-2.6837e-10
-2.68543e-10
-2.6872e-10
-2.68902e-10
-2.69089e-10
-2.6928e-10
-2.69476e-10
-2.69677e-10
-2.69884e-10
-2.70096e-10
-2.70314e-10
-2.70539e-10
-2.7077e-10
-2.71008e-10
-2.71252e-10
-2.71505e-10
-2.71765e-10
-2.72033e-10
-2.72309e-10
-2.72595e-10
-2.72889e-10
-2.73194e-10
-2.73509e-10
-2.73835e-10
-2.74173e-10
-2.74524e-10
-2.74889e-10
-2.7527e-10
-2.75667e-10
-2.76081e-10
-2.76514e-10
-2.76972e-10
-2.77459e-10
-2.77974e-10
-2.78515e-10
-2.7909e-10
-2.79728e-10
-2.80461e-10
-2.81254e-10
-2.82017e-10
-2.8294e-10
-2.84143e-10
-2.85654e-10
-2.88577e-10
-2.95149e-10
-2.97802e-10
-3.23031e-10
-7.72598e-09
-1.18457e-07
-2.07791e-07
-2.49495e-07
-2.70563e-07
-2.81177e-07
-2.86695e-07
-2.89608e-07
-2.91056e-07
-2.91594e-07
-2.91517e-07
-2.90993e-07
-2.90124e-07
-2.88981e-07
-2.8761e-07
-2.86048e-07
-2.84321e-07
-2.82453e-07
-2.8046e-07
-2.78357e-07
-2.76159e-07
-2.73875e-07
-2.71516e-07
-2.69091e-07
-2.66607e-07
-2.64072e-07
-2.61492e-07
-2.58872e-07
-2.56217e-07
-2.53533e-07
-2.50824e-07
-2.48093e-07
-2.45344e-07
-2.4258e-07
-2.39805e-07
-2.3702e-07
-2.34229e-07
-2.31433e-07
-2.28636e-07
-2.25838e-07
-2.23041e-07
-2.20248e-07
-2.1746e-07
-2.14679e-07
-2.11904e-07
-2.09139e-07
-2.06384e-07
-2.0364e-07
-2.00908e-07
-1.98189e-07
-1.95483e-07
)
;
    }
    inandouthalf22
    {
        type            cyclic;
        value           nonuniform List<scalar> 
100
(
2.68035e-10
2.682e-10
2.6837e-10
2.68543e-10
2.6872e-10
2.68902e-10
2.69089e-10
2.6928e-10
2.69476e-10
2.69677e-10
2.69884e-10
2.70096e-10
2.70314e-10
2.70539e-10
2.7077e-10
2.71008e-10
2.71252e-10
2.71505e-10
2.71765e-10
2.72033e-10
2.72309e-10
2.72595e-10
2.72889e-10
2.73194e-10
2.73509e-10
2.73835e-10
2.74173e-10
2.74524e-10
2.74889e-10
2.7527e-10
2.75667e-10
2.76081e-10
2.76514e-10
2.76972e-10
2.77459e-10
2.77974e-10
2.78515e-10
2.7909e-10
2.79728e-10
2.80461e-10
2.81254e-10
2.82017e-10
2.8294e-10
2.84143e-10
2.85654e-10
2.88577e-10
2.95149e-10
2.97802e-10
3.23031e-10
7.72598e-09
1.18457e-07
2.07791e-07
2.49495e-07
2.70563e-07
2.81177e-07
2.86695e-07
2.89608e-07
2.91056e-07
2.91594e-07
2.91517e-07
2.90993e-07
2.90124e-07
2.88981e-07
2.8761e-07
2.86048e-07
2.84321e-07
2.82453e-07
2.8046e-07
2.78357e-07
2.76159e-07
2.73875e-07
2.71516e-07
2.69091e-07
2.66607e-07
2.64072e-07
2.61492e-07
2.58872e-07
2.56217e-07
2.53533e-07
2.50824e-07
2.48093e-07
2.45344e-07
2.4258e-07
2.39805e-07
2.3702e-07
2.34229e-07
2.31433e-07
2.28636e-07
2.25838e-07
2.23041e-07
2.20248e-07
2.1746e-07
2.14679e-07
2.11904e-07
2.09139e-07
2.06384e-07
2.0364e-07
2.00908e-07
1.98189e-07
1.95483e-07
)
;
    }
    inandouthalf31
    {
        type            cyclic;
        value           nonuniform List<scalar> 
110
(
-1.92794e-07
-1.9395e-07
-1.95034e-07
-1.96041e-07
-1.96968e-07
-1.97811e-07
-1.98564e-07
-1.99224e-07
-1.99787e-07
-2.00248e-07
-2.00603e-07
-2.00847e-07
-2.00977e-07
-2.00988e-07
-2.00876e-07
-2.00638e-07
-2.00269e-07
-1.99766e-07
-1.99125e-07
-1.98343e-07
-1.97418e-07
-1.96348e-07
-1.9513e-07
-1.93763e-07
-1.92247e-07
-1.90582e-07
-1.88769e-07
-1.86811e-07
-1.8471e-07
-1.82473e-07
-1.80105e-07
-1.77616e-07
-1.75015e-07
-1.72318e-07
-1.6954e-07
-1.66702e-07
-1.63828e-07
-1.60945e-07
-1.58088e-07
-1.55297e-07
-1.52616e-07
-1.50099e-07
-1.47803e-07
-1.45796e-07
-1.44149e-07
-1.42939e-07
-1.42244e-07
-1.4214e-07
-1.42697e-07
-1.43971e-07
-1.46001e-07
-1.48806e-07
-1.52381e-07
-1.56703e-07
-1.6173e-07
-1.674e-07
-1.73631e-07
-1.80314e-07
-1.87306e-07
-1.94408e-07
-2.01341e-07
-2.07214e-07
-2.11738e-07
-2.16049e-07
-2.20434e-07
-2.24909e-07
-2.29474e-07
-2.34132e-07
-2.38884e-07
-2.43733e-07
-2.4868e-07
-2.53727e-07
-2.58877e-07
-2.64132e-07
-2.69493e-07
-2.74963e-07
-2.80544e-07
-2.86238e-07
-2.92048e-07
-2.97976e-07
-3.04024e-07
-3.10195e-07
-3.16491e-07
-3.22915e-07
-3.29469e-07
-3.36157e-07
-3.4298e-07
-3.49941e-07
-3.57044e-07
-3.64291e-07
-3.71686e-07
-3.7923e-07
-3.86927e-07
-3.94781e-07
-4.02794e-07
-4.10969e-07
-4.19311e-07
-4.27822e-07
-4.36505e-07
-4.45365e-07
-4.54405e-07
-4.63628e-07
-4.73039e-07
-4.8264e-07
-4.92436e-07
-5.02432e-07
-5.1263e-07
-5.23035e-07
-5.33651e-07
-5.44483e-07
)
;
    }
    inandouthalf32
    {
        type            cyclic;
        value           nonuniform List<scalar> 
110
(
1.92794e-07
1.9395e-07
1.95034e-07
1.96041e-07
1.96968e-07
1.97811e-07
1.98564e-07
1.99224e-07
1.99787e-07
2.00248e-07
2.00603e-07
2.00847e-07
2.00977e-07
2.00988e-07
2.00876e-07
2.00638e-07
2.00269e-07
1.99766e-07
1.99125e-07
1.98343e-07
1.97418e-07
1.96348e-07
1.9513e-07
1.93763e-07
1.92247e-07
1.90582e-07
1.88769e-07
1.86811e-07
1.8471e-07
1.82473e-07
1.80105e-07
1.77616e-07
1.75015e-07
1.72318e-07
1.6954e-07
1.66702e-07
1.63828e-07
1.60945e-07
1.58088e-07
1.55297e-07
1.52616e-07
1.50099e-07
1.47803e-07
1.45796e-07
1.44149e-07
1.42939e-07
1.42244e-07
1.4214e-07
1.42697e-07
1.43971e-07
1.46001e-07
1.48806e-07
1.52381e-07
1.56703e-07
1.6173e-07
1.674e-07
1.73631e-07
1.80314e-07
1.87306e-07
1.94408e-07
2.01341e-07
2.07214e-07
2.11738e-07
2.16049e-07
2.20434e-07
2.24909e-07
2.29474e-07
2.34132e-07
2.38884e-07
2.43733e-07
2.4868e-07
2.53727e-07
2.58877e-07
2.64132e-07
2.69493e-07
2.74963e-07
2.80544e-07
2.86238e-07
2.92048e-07
2.97976e-07
3.04024e-07
3.10195e-07
3.16491e-07
3.22915e-07
3.29469e-07
3.36157e-07
3.4298e-07
3.49941e-07
3.57044e-07
3.64291e-07
3.71686e-07
3.7923e-07
3.86927e-07
3.94781e-07
4.02794e-07
4.10969e-07
4.19311e-07
4.27822e-07
4.36505e-07
4.45365e-07
4.54405e-07
4.63628e-07
4.73039e-07
4.8264e-07
4.92436e-07
5.02432e-07
5.1263e-07
5.23035e-07
5.33651e-07
5.44483e-07
)
;
    }
    inandouthalf41
    {
        type            cyclic;
        value           nonuniform List<scalar> 
50
(
-4.87367e-07
-4.87367e-07
-4.87367e-07
-4.87367e-07
-4.87367e-07
-4.87367e-07
-4.87367e-07
-4.87367e-07
-4.87367e-07
-4.87367e-07
-4.87367e-07
-4.87367e-07
-4.87367e-07
-4.87367e-07
-4.87367e-07
-4.87367e-07
-4.87367e-07
-4.87367e-07
-4.87367e-07
-4.87367e-07
-4.87367e-07
-4.87367e-07
-4.87367e-07
-4.87367e-07
-4.87367e-07
-4.87367e-07
-4.87367e-07
-4.87367e-07
-4.87367e-07
-4.87367e-07
-4.87367e-07
-4.87367e-07
-4.87367e-07
-4.87367e-07
-4.87367e-07
-4.87367e-07
-4.87367e-07
-4.87367e-07
-4.87367e-07
-4.87367e-07
-4.87367e-07
-4.87367e-07
-4.87367e-07
-4.87367e-07
-4.87367e-07
-4.87367e-07
-4.87367e-07
-4.87367e-07
-4.87367e-07
-4.87367e-07
)
;
    }
    inandouthalf42
    {
        type            cyclic;
        value           nonuniform List<scalar> 
50
(
4.87367e-07
4.87367e-07
4.87367e-07
4.87367e-07
4.87367e-07
4.87367e-07
4.87367e-07
4.87367e-07
4.87367e-07
4.87367e-07
4.87367e-07
4.87367e-07
4.87367e-07
4.87367e-07
4.87367e-07
4.87367e-07
4.87367e-07
4.87367e-07
4.87367e-07
4.87367e-07
4.87367e-07
4.87367e-07
4.87367e-07
4.87367e-07
4.87367e-07
4.87367e-07
4.87367e-07
4.87367e-07
4.87367e-07
4.87367e-07
4.87367e-07
4.87367e-07
4.87367e-07
4.87367e-07
4.87367e-07
4.87367e-07
4.87367e-07
4.87367e-07
4.87367e-07
4.87367e-07
4.87367e-07
4.87367e-07
4.87367e-07
4.87367e-07
4.87367e-07
4.87367e-07
4.87367e-07
4.87367e-07
4.87367e-07
4.87367e-07
)
;
    }
    top
    {
        type            symmetryPlane;
        value           uniform 0;
    }
    walls
    {
        type            fixedValue;
        value           uniform 0;
    }
    frontAndBackPlanes
    {
        type            empty;
        value           nonuniform 0();
    }
}


// ************************************************************************* //
