/*--------------------------------*- C++ -*----------------------------------*\
| =========                 |                                                 |
| \\      /  F ield         | OpenFOAM: The Open Source CFD Toolbox           |
|  \\    /   O peration     | Version:  2.4.x                                 |
|   \\  /    A nd           | Web:      www.OpenFOAM.org                      |
|    \\/     M anipulation  |                                                 |
\*---------------------------------------------------------------------------*/
FoamFile
{
    version     2.0;
    format      ascii;
    class       surfaceScalarField;
    location    "7.55";
    object      phib_0;
}
// * * * * * * * * * * * * * * * * * * * * * * * * * * * * * * * * * * * * * //

dimensions      [0 3 -1 0 0 0 0];

internalField   nonuniform List<scalar> 
359
(
3.22389e-13
8.18083e-13
1.26717e-12
1.689e-12
2.1185e-12
2.55597e-12
2.99441e-12
3.43136e-12
3.86697e-12
4.30207e-12
4.73719e-12
5.17233e-12
5.60751e-12
6.0427e-12
6.47802e-12
6.91366e-12
7.34985e-12
7.78672e-12
8.22439e-12
8.66303e-12
9.10262e-12
9.54334e-12
9.98525e-12
1.04284e-11
1.08729e-11
1.13186e-11
1.17657e-11
1.22142e-11
1.2664e-11
1.31152e-11
1.35677e-11
1.40216e-11
1.44766e-11
1.49331e-11
1.53907e-11
1.58496e-11
1.63096e-11
1.67707e-11
1.7233e-11
1.76962e-11
1.81605e-11
1.86257e-11
1.90916e-11
1.95585e-11
2.00261e-11
2.04943e-11
2.09632e-11
2.14323e-11
2.19018e-11
2.23718e-11
2.2842e-11
2.33123e-11
2.37827e-11
2.42531e-11
2.47232e-11
2.51932e-11
2.56626e-11
2.61314e-11
2.65996e-11
2.70667e-11
2.75333e-11
2.79989e-11
2.84638e-11
2.89279e-11
2.9391e-11
2.98529e-11
3.03137e-11
3.0773e-11
3.12308e-11
3.16869e-11
3.21414e-11
3.25947e-11
3.30462e-11
3.34963e-11
3.39449e-11
3.43918e-11
3.48366e-11
3.5279e-11
3.57185e-11
3.6155e-11
3.6588e-11
3.70174e-11
3.7443e-11
3.78646e-11
3.8282e-11
3.86948e-11
3.91026e-11
3.95048e-11
3.99007e-11
4.02898e-11
4.06717e-11
4.10458e-11
4.14121e-11
4.17702e-11
4.21199e-11
4.24613e-11
4.27942e-11
4.31184e-11
4.3434e-11
4.37408e-11
4.40388e-11
4.43281e-11
4.46087e-11
4.48807e-11
4.51443e-11
4.53995e-11
4.56465e-11
4.58856e-11
4.6117e-11
4.63409e-11
4.65576e-11
4.67675e-11
4.6971e-11
4.71684e-11
4.73603e-11
4.75472e-11
4.77295e-11
4.79081e-11
4.80835e-11
4.82563e-11
4.84273e-11
4.8597e-11
4.87659e-11
4.89342e-11
4.91019e-11
4.92687e-11
4.94339e-11
4.95965e-11
4.9755e-11
4.99075e-11
5.00517e-11
5.01853e-11
5.03066e-11
5.04147e-11
5.05101e-11
5.05939e-11
5.0668e-11
5.07338e-11
5.07924e-11
5.0844e-11
5.08834e-11
5.08875e-11
5.0838e-11
5.0736e-11
5.05453e-11
5.01338e-11
5.66242e-11
6.90228e-11
6.94574e-11
-1.01668e-09
-7.57997e-10
-2.80043e-10
-5.8223e-11
2.16564e-11
4.40624e-11
4.83649e-11
4.68058e-11
4.34872e-11
3.97757e-11
3.61734e-11
3.28339e-11
2.97964e-11
2.70635e-11
2.46069e-11
2.23983e-11
2.04099e-11
1.86167e-11
1.69969e-11
1.55314e-11
1.42039e-11
1.29998e-11
1.19068e-11
1.09137e-11
1.00109e-11
9.18945e-12
8.44172e-12
7.76066e-12
7.13994e-12
6.57385e-12
6.05722e-12
5.58535e-12
5.154e-12
4.7593e-12
4.39778e-12
4.06626e-12
3.76189e-12
3.48208e-12
3.22448e-12
2.987e-12
2.76775e-12
2.56502e-12
2.3773e-12
2.20324e-12
2.04161e-12
1.89131e-12
1.75134e-12
1.62079e-12
1.49884e-12
1.38473e-12
1.27778e-12
1.17738e-12
1.0812e-12
9.89145e-13
9.01171e-13
8.17267e-13
7.37461e-13
6.61843e-13
5.90555e-13
5.23763e-13
4.61624e-13
4.04268e-13
3.51761e-13
3.04146e-13
2.61428e-13
2.23458e-13
1.89964e-13
1.60685e-13
1.35313e-13
1.13462e-13
9.472e-14
7.87276e-14
6.51844e-14
5.37583e-14
4.41361e-14
3.60838e-14
2.93787e-14
2.38065e-14
1.91959e-14
1.53893e-14
1.22724e-14
9.70926e-15
7.63423e-15
5.97207e-15
4.75447e-15
3.64077e-15
2.48296e-15
1.57769e-15
8.88809e-16
4.77942e-16
2.19061e-16
9.30165e-17
2.16951e-17
1.1313e-16
8.93912e-18
8.6722e-18
8.44538e-18
8.17212e-18
7.93818e-18
7.65831e-18
7.41368e-18
7.12574e-18
6.86943e-18
6.57042e-18
6.29823e-18
5.98688e-18
5.70352e-18
5.38887e-18
5.09915e-18
4.78119e-18
4.4869e-18
4.17586e-18
3.89421e-18
3.60645e-18
3.3638e-18
3.15061e-18
2.97942e-18
2.83434e-18
2.69313e-18
2.56616e-18
2.44874e-18
2.33202e-18
2.22153e-18
2.13509e-18
2.05042e-18
1.9668e-18
1.87537e-18
1.79292e-18
1.70159e-18
1.60956e-18
1.51344e-18
1.44373e-18
1.37101e-18
1.29947e-18
1.21878e-18
1.14518e-18
1.06386e-18
9.49475e-19
8.59396e-19
7.80694e-19
6.95372e-19
6.09622e-19
5.1824e-19
4.33218e-19
3.43349e-19
2.58164e-19
1.68699e-19
1.83172e-19
1.65969e-19
1.55778e-19
9.62714e-20
9.12893e-20
8.48977e-20
7.8597e-20
7.16975e-20
6.92706e-20
6.5837e-20
6.31643e-20
6.07035e-20
5.76173e-20
5.5656e-20
5.38685e-20
5.37461e-20
5.04249e-20
5.00618e-20
4.96929e-20
5.24433e-20
5.19428e-20
5.66015e-20
6.0897e-20
7.01896e-20
7.29532e-20
8.26717e-20
9.22927e-20
1.1042e-19
1.26017e-19
1.51243e-19
1.80261e-19
2.11612e-19
3.11977e-19
4.35409e-19
5.64341e-19
7.5445e-19
8.89165e-19
1.1201e-18
1.34852e-18
1.68549e-18
1.83531e-18
2.12166e-18
2.40893e-18
2.85621e-18
3.20054e-18
3.69831e-18
4.21239e-18
4.83553e-18
5.54995e-18
6.33256e-18
7.13332e-18
7.96097e-18
8.88664e-18
9.6852e-18
1.05626e-17
1.13053e-17
1.30013e-17
1.41366e-17
1.53636e-17
1.59132e-17
1.69786e-17
1.79528e-17
2.05296e-17
)
;

boundaryField
{
    inandouthalf11
    {
        type            cyclic;
        value           nonuniform List<scalar> 
100
(
-2.60762e-10
-2.59415e-10
-2.59207e-10
-2.594e-10
-2.59507e-10
-2.5955e-10
-2.59596e-10
-2.59652e-10
-2.5971e-10
-2.59767e-10
-2.59826e-10
-2.59884e-10
-2.59942e-10
-2.6e-10
-2.60059e-10
-2.60118e-10
-2.60178e-10
-2.60238e-10
-2.60298e-10
-2.60359e-10
-2.6042e-10
-2.60482e-10
-2.60544e-10
-2.60606e-10
-2.60669e-10
-2.60733e-10
-2.60796e-10
-2.60861e-10
-2.60925e-10
-2.6099e-10
-2.61056e-10
-2.61123e-10
-2.61189e-10
-2.61257e-10
-2.61324e-10
-2.61393e-10
-2.61462e-10
-2.61531e-10
-2.61602e-10
-2.61672e-10
-2.61744e-10
-2.61816e-10
-2.61888e-10
-2.61962e-10
-2.62036e-10
-2.62111e-10
-2.62186e-10
-2.62262e-10
-2.62339e-10
-2.62417e-10
-2.62495e-10
-2.62574e-10
-2.62654e-10
-2.62735e-10
-2.62816e-10
-2.62899e-10
-2.62981e-10
-2.63066e-10
-2.63151e-10
-2.63236e-10
-2.63324e-10
-2.63411e-10
-2.635e-10
-2.6359e-10
-2.63681e-10
-2.63773e-10
-2.63866e-10
-2.6396e-10
-2.64056e-10
-2.64152e-10
-2.6425e-10
-2.6435e-10
-2.64449e-10
-2.64552e-10
-2.64655e-10
-2.6476e-10
-2.64866e-10
-2.64973e-10
-2.65082e-10
-2.65193e-10
-2.65305e-10
-2.65419e-10
-2.65535e-10
-2.65653e-10
-2.65773e-10
-2.65895e-10
-2.66019e-10
-2.66144e-10
-2.66272e-10
-2.66402e-10
-2.66535e-10
-2.66669e-10
-2.66807e-10
-2.66947e-10
-2.6709e-10
-2.67236e-10
-2.67385e-10
-2.67536e-10
-2.67691e-10
-2.6785e-10
)
;
    }
    inandouthalf12
    {
        type            cyclic;
        value           nonuniform List<scalar> 
100
(
2.60762e-10
2.59415e-10
2.59207e-10
2.594e-10
2.59507e-10
2.5955e-10
2.59596e-10
2.59652e-10
2.5971e-10
2.59767e-10
2.59826e-10
2.59884e-10
2.59942e-10
2.6e-10
2.60059e-10
2.60118e-10
2.60178e-10
2.60238e-10
2.60298e-10
2.60359e-10
2.6042e-10
2.60482e-10
2.60544e-10
2.60606e-10
2.60669e-10
2.60733e-10
2.60796e-10
2.60861e-10
2.60925e-10
2.6099e-10
2.61056e-10
2.61123e-10
2.61189e-10
2.61257e-10
2.61324e-10
2.61393e-10
2.61462e-10
2.61531e-10
2.61602e-10
2.61672e-10
2.61744e-10
2.61816e-10
2.61888e-10
2.61962e-10
2.62036e-10
2.62111e-10
2.62186e-10
2.62262e-10
2.62339e-10
2.62417e-10
2.62495e-10
2.62574e-10
2.62654e-10
2.62735e-10
2.62816e-10
2.62899e-10
2.62981e-10
2.63066e-10
2.63151e-10
2.63236e-10
2.63324e-10
2.63411e-10
2.635e-10
2.6359e-10
2.63681e-10
2.63773e-10
2.63866e-10
2.6396e-10
2.64056e-10
2.64152e-10
2.6425e-10
2.6435e-10
2.64449e-10
2.64552e-10
2.64655e-10
2.6476e-10
2.64866e-10
2.64973e-10
2.65082e-10
2.65193e-10
2.65305e-10
2.65419e-10
2.65535e-10
2.65653e-10
2.65773e-10
2.65895e-10
2.66019e-10
2.66144e-10
2.66272e-10
2.66402e-10
2.66535e-10
2.66669e-10
2.66807e-10
2.66947e-10
2.6709e-10
2.67236e-10
2.67385e-10
2.67536e-10
2.67691e-10
2.6785e-10
)
;
    }
    inandouthalf21
    {
        type            cyclic;
        value           nonuniform List<scalar> 
100
(
-2.68012e-10
-2.68177e-10
-2.68347e-10
-2.6852e-10
-2.68698e-10
-2.68879e-10
-2.69066e-10
-2.69257e-10
-2.69453e-10
-2.69654e-10
-2.69861e-10
-2.70073e-10
-2.70291e-10
-2.70516e-10
-2.70747e-10
-2.70984e-10
-2.71229e-10
-2.71481e-10
-2.71741e-10
-2.72009e-10
-2.72286e-10
-2.72571e-10
-2.72866e-10
-2.73171e-10
-2.73486e-10
-2.73812e-10
-2.7415e-10
-2.745e-10
-2.74866e-10
-2.75246e-10
-2.75643e-10
-2.76057e-10
-2.76491e-10
-2.76948e-10
-2.77435e-10
-2.7795e-10
-2.78491e-10
-2.79066e-10
-2.79704e-10
-2.80437e-10
-2.8123e-10
-2.81993e-10
-2.82916e-10
-2.84119e-10
-2.8563e-10
-2.88553e-10
-2.95124e-10
-2.97775e-10
-3.22961e-10
-7.70657e-09
-1.1841e-07
-2.07701e-07
-2.49363e-07
-2.70401e-07
-2.80997e-07
-2.86505e-07
-2.89411e-07
-2.90855e-07
-2.91391e-07
-2.91311e-07
-2.90784e-07
-2.89914e-07
-2.88769e-07
-2.87397e-07
-2.85833e-07
-2.84105e-07
-2.82235e-07
-2.8024e-07
-2.78137e-07
-2.75937e-07
-2.73652e-07
-2.71292e-07
-2.68866e-07
-2.66381e-07
-2.63844e-07
-2.61263e-07
-2.58642e-07
-2.55986e-07
-2.53302e-07
-2.50591e-07
-2.47859e-07
-2.45109e-07
-2.42345e-07
-2.39568e-07
-2.36783e-07
-2.33991e-07
-2.31195e-07
-2.28396e-07
-2.25598e-07
-2.22801e-07
-2.20007e-07
-2.17219e-07
-2.14436e-07
-2.11662e-07
-2.08896e-07
-2.0614e-07
-2.03395e-07
-2.00663e-07
-1.97943e-07
-1.95238e-07
)
;
    }
    inandouthalf22
    {
        type            cyclic;
        value           nonuniform List<scalar> 
100
(
2.68012e-10
2.68177e-10
2.68347e-10
2.6852e-10
2.68698e-10
2.68879e-10
2.69066e-10
2.69257e-10
2.69453e-10
2.69654e-10
2.69861e-10
2.70073e-10
2.70291e-10
2.70516e-10
2.70747e-10
2.70984e-10
2.71229e-10
2.71481e-10
2.71741e-10
2.72009e-10
2.72286e-10
2.72571e-10
2.72866e-10
2.73171e-10
2.73486e-10
2.73812e-10
2.7415e-10
2.745e-10
2.74866e-10
2.75246e-10
2.75643e-10
2.76057e-10
2.76491e-10
2.76948e-10
2.77435e-10
2.7795e-10
2.78491e-10
2.79066e-10
2.79704e-10
2.80437e-10
2.8123e-10
2.81993e-10
2.82916e-10
2.84119e-10
2.8563e-10
2.88553e-10
2.95124e-10
2.97775e-10
3.22961e-10
7.70657e-09
1.1841e-07
2.07701e-07
2.49363e-07
2.70401e-07
2.80997e-07
2.86505e-07
2.89411e-07
2.90855e-07
2.91391e-07
2.91311e-07
2.90784e-07
2.89914e-07
2.88769e-07
2.87397e-07
2.85833e-07
2.84105e-07
2.82235e-07
2.8024e-07
2.78137e-07
2.75937e-07
2.73652e-07
2.71292e-07
2.68866e-07
2.66381e-07
2.63844e-07
2.61263e-07
2.58642e-07
2.55986e-07
2.53302e-07
2.50591e-07
2.47859e-07
2.45109e-07
2.42345e-07
2.39568e-07
2.36783e-07
2.33991e-07
2.31195e-07
2.28396e-07
2.25598e-07
2.22801e-07
2.20007e-07
2.17219e-07
2.14436e-07
2.11662e-07
2.08896e-07
2.0614e-07
2.03395e-07
2.00663e-07
1.97943e-07
1.95238e-07
)
;
    }
    inandouthalf31
    {
        type            cyclic;
        value           nonuniform List<scalar> 
110
(
-1.92548e-07
-1.93698e-07
-1.94777e-07
-1.95779e-07
-1.967e-07
-1.97536e-07
-1.98284e-07
-1.98938e-07
-1.99494e-07
-1.99949e-07
-2.00297e-07
-2.00535e-07
-2.00658e-07
-2.00662e-07
-2.00543e-07
-2.00298e-07
-1.99922e-07
-1.99411e-07
-1.98762e-07
-1.97973e-07
-1.9704e-07
-1.95962e-07
-1.94736e-07
-1.93361e-07
-1.91836e-07
-1.90163e-07
-1.88341e-07
-1.86374e-07
-1.84264e-07
-1.82017e-07
-1.7964e-07
-1.77141e-07
-1.74532e-07
-1.71825e-07
-1.69037e-07
-1.66189e-07
-1.63304e-07
-1.60411e-07
-1.57544e-07
-1.54742e-07
-1.52051e-07
-1.49523e-07
-1.47216e-07
-1.45198e-07
-1.43541e-07
-1.42319e-07
-1.41613e-07
-1.41499e-07
-1.42044e-07
-1.43307e-07
-1.45325e-07
-1.48117e-07
-1.5168e-07
-1.55989e-07
-1.61003e-07
-1.66659e-07
-1.72876e-07
-1.79545e-07
-1.86521e-07
-1.93608e-07
-2.00523e-07
-2.06378e-07
-2.10885e-07
-2.15178e-07
-2.19546e-07
-2.24003e-07
-2.2855e-07
-2.33189e-07
-2.37922e-07
-2.42751e-07
-2.47678e-07
-2.52705e-07
-2.57835e-07
-2.63068e-07
-2.68408e-07
-2.73856e-07
-2.79414e-07
-2.85086e-07
-2.90872e-07
-2.96776e-07
-3.028e-07
-3.08946e-07
-3.15216e-07
-3.21615e-07
-3.28142e-07
-3.34803e-07
-3.41598e-07
-3.48532e-07
-3.55606e-07
-3.62824e-07
-3.70189e-07
-3.77702e-07
-3.85369e-07
-3.93191e-07
-4.01171e-07
-4.09314e-07
-4.17622e-07
-4.26099e-07
-4.34747e-07
-4.43572e-07
-4.52575e-07
-4.61761e-07
-4.71134e-07
-4.80696e-07
-4.90453e-07
-5.00408e-07
-5.10565e-07
-5.20928e-07
-5.31501e-07
-5.4229e-07
)
;
    }
    inandouthalf32
    {
        type            cyclic;
        value           nonuniform List<scalar> 
110
(
1.92548e-07
1.93698e-07
1.94777e-07
1.95779e-07
1.967e-07
1.97536e-07
1.98284e-07
1.98938e-07
1.99494e-07
1.99949e-07
2.00297e-07
2.00535e-07
2.00658e-07
2.00662e-07
2.00543e-07
2.00298e-07
1.99922e-07
1.99411e-07
1.98762e-07
1.97973e-07
1.9704e-07
1.95962e-07
1.94736e-07
1.93361e-07
1.91836e-07
1.90163e-07
1.88341e-07
1.86374e-07
1.84264e-07
1.82017e-07
1.7964e-07
1.77141e-07
1.74532e-07
1.71825e-07
1.69037e-07
1.66189e-07
1.63304e-07
1.60411e-07
1.57544e-07
1.54742e-07
1.52051e-07
1.49523e-07
1.47216e-07
1.45198e-07
1.43541e-07
1.42319e-07
1.41613e-07
1.41499e-07
1.42044e-07
1.43307e-07
1.45325e-07
1.48117e-07
1.5168e-07
1.55989e-07
1.61003e-07
1.66659e-07
1.72876e-07
1.79545e-07
1.86521e-07
1.93608e-07
2.00523e-07
2.06378e-07
2.10885e-07
2.15178e-07
2.19546e-07
2.24003e-07
2.2855e-07
2.33189e-07
2.37922e-07
2.42751e-07
2.47678e-07
2.52705e-07
2.57835e-07
2.63068e-07
2.68408e-07
2.73856e-07
2.79414e-07
2.85086e-07
2.90872e-07
2.96776e-07
3.028e-07
3.08946e-07
3.15216e-07
3.21615e-07
3.28142e-07
3.34803e-07
3.41598e-07
3.48532e-07
3.55606e-07
3.62824e-07
3.70189e-07
3.77702e-07
3.85369e-07
3.93191e-07
4.01171e-07
4.09314e-07
4.17622e-07
4.26099e-07
4.34747e-07
4.43572e-07
4.52575e-07
4.61761e-07
4.71134e-07
4.80696e-07
4.90453e-07
5.00408e-07
5.10565e-07
5.20928e-07
5.31501e-07
5.4229e-07
)
;
    }
    inandouthalf41
    {
        type            cyclic;
        value           nonuniform List<scalar> 
50
(
-4.85404e-07
-4.85404e-07
-4.85404e-07
-4.85404e-07
-4.85404e-07
-4.85404e-07
-4.85404e-07
-4.85404e-07
-4.85404e-07
-4.85404e-07
-4.85404e-07
-4.85404e-07
-4.85404e-07
-4.85404e-07
-4.85404e-07
-4.85404e-07
-4.85404e-07
-4.85404e-07
-4.85404e-07
-4.85404e-07
-4.85404e-07
-4.85404e-07
-4.85404e-07
-4.85404e-07
-4.85404e-07
-4.85404e-07
-4.85404e-07
-4.85404e-07
-4.85404e-07
-4.85404e-07
-4.85404e-07
-4.85404e-07
-4.85404e-07
-4.85404e-07
-4.85404e-07
-4.85404e-07
-4.85404e-07
-4.85404e-07
-4.85404e-07
-4.85404e-07
-4.85404e-07
-4.85404e-07
-4.85404e-07
-4.85404e-07
-4.85404e-07
-4.85404e-07
-4.85404e-07
-4.85404e-07
-4.85404e-07
-4.85404e-07
)
;
    }
    inandouthalf42
    {
        type            cyclic;
        value           nonuniform List<scalar> 
50
(
4.85404e-07
4.85404e-07
4.85404e-07
4.85404e-07
4.85404e-07
4.85404e-07
4.85404e-07
4.85404e-07
4.85404e-07
4.85404e-07
4.85404e-07
4.85404e-07
4.85404e-07
4.85404e-07
4.85404e-07
4.85404e-07
4.85404e-07
4.85404e-07
4.85404e-07
4.85404e-07
4.85404e-07
4.85404e-07
4.85404e-07
4.85404e-07
4.85404e-07
4.85404e-07
4.85404e-07
4.85404e-07
4.85404e-07
4.85404e-07
4.85404e-07
4.85404e-07
4.85404e-07
4.85404e-07
4.85404e-07
4.85404e-07
4.85404e-07
4.85404e-07
4.85404e-07
4.85404e-07
4.85404e-07
4.85404e-07
4.85404e-07
4.85404e-07
4.85404e-07
4.85404e-07
4.85404e-07
4.85404e-07
4.85404e-07
4.85404e-07
)
;
    }
    top
    {
        type            symmetryPlane;
        value           uniform 0;
    }
    walls
    {
        type            fixedValue;
        value           uniform 0;
    }
    frontAndBackPlanes
    {
        type            empty;
        value           nonuniform 0();
    }
}


// ************************************************************************* //
