/*--------------------------------*- C++ -*----------------------------------*\
| =========                 |                                                 |
| \\      /  F ield         | OpenFOAM: The Open Source CFD Toolbox           |
|  \\    /   O peration     | Version:  2.4.x                                 |
|   \\  /    A nd           | Web:      www.OpenFOAM.org                      |
|    \\/     M anipulation  |                                                 |
\*---------------------------------------------------------------------------*/
FoamFile
{
    version     2.0;
    format      ascii;
    class       volVectorField;
    location    "7.55";
    object      susb;
}
// * * * * * * * * * * * * * * * * * * * * * * * * * * * * * * * * * * * * * //

dimensions      [0 1 -2 0 0 0 0];

internalField   nonuniform List<vector> 
360
(
(0 5.71072e-18 0)
(0 6.43783e-18 0)
(0 9.98672e-20 0)
(0 -9.13769e-19 0)
(-3.69765e-31 -4.31099e-19 0)
(-3.69725e-31 -2.37528e-19 0)
(-3.6968e-31 -2.79653e-19 0)
(0 -3.14366e-19 0)
(-3.69567e-31 -3.2127e-19 0)
(0 -3.25884e-19 0)
(-3.6945e-31 -3.2724e-19 0)
(0 -3.27852e-19 0)
(-3.69333e-31 -3.29855e-19 0)
(0 -3.3212e-19 0)
(0 -3.35674e-19 0)
(0 -3.39397e-19 0)
(0 -3.42194e-19 0)
(-7.38061e-31 -3.44551e-19 0)
(0 -3.4848e-19 0)
(0 -3.50968e-19 0)
(0 -3.53621e-19 0)
(-3.68779e-31 -3.57844e-19 0)
(0 -3.60697e-19 0)
(0 -3.6412e-19 0)
(0 -3.6763e-19 0)
(-7.37035e-31 -3.7033e-19 0)
(0 -3.74379e-19 0)
(0 -3.78616e-19 0)
(0 -3.81398e-19 0)
(0 -3.8475e-19 0)
(0 -3.89843e-19 0)
(0 -3.92119e-19 0)
(0 -3.96808e-19 0)
(0 -4.01584e-19 0)
(0 -4.04247e-19 0)
(7.35639e-31 -4.08495e-19 0)
(0 -4.12505e-19 0)
(0 -4.1893e-19 0)
(0 -4.20403e-19 0)
(0 -4.25341e-19 0)
(0 -4.32401e-19 0)
(0 -4.33111e-19 0)
(3.67289e-31 -4.39431e-19 0)
(0 -4.4519e-19 0)
(0 -4.48443e-19 0)
(0 -4.55266e-19 0)
(0 -4.57507e-19 0)
(0 -4.61661e-19 0)
(0 -4.71496e-19 0)
(0 -4.74318e-19 0)
(3.66631e-31 -4.78125e-19 0)
(0 -4.85248e-19 0)
(0 -4.90864e-19 0)
(0 -4.95122e-19 0)
(0 -5.02161e-19 0)
(0 -5.07729e-19 0)
(0 -5.12826e-19 0)
(0 -5.20635e-19 0)
(0 -5.23112e-19 0)
(0 -5.32163e-19 0)
(0 -5.39176e-19 0)
(0 -5.44854e-19 0)
(0 -5.53044e-19 0)
(0 -5.58761e-19 0)
(0 -5.65465e-19 0)
(0 -5.72821e-19 0)
(0 -5.8141e-19 0)
(0 -5.88204e-19 0)
(0 -5.93414e-19 0)
(0 -6.03101e-19 0)
(0 -6.15008e-19 0)
(0 -6.19576e-19 0)
(0 -6.28038e-19 0)
(0 -6.39263e-19 0)
(0 -6.48679e-19 0)
(0 -6.57301e-19 0)
(0 -6.64756e-19 0)
(0 -6.75494e-19 0)
(0 -6.86132e-19 0)
(0 -6.9555e-19 0)
(0 -7.06036e-19 0)
(0 -7.1822e-19 0)
(0 -7.29755e-19 0)
(0 -7.41625e-19 0)
(0 -7.53773e-19 0)
(0 -7.66251e-19 0)
(0 -7.78738e-19 0)
(0 -7.91082e-19 0)
(0 -8.04441e-19 0)
(0 -8.18372e-19 0)
(0 -8.32621e-19 0)
(0 -8.47812e-19 0)
(0 -8.63802e-19 0)
(0 -8.80155e-19 0)
(0 -8.97038e-19 0)
(0 -9.14442e-19 0)
(0 -9.32316e-19 0)
(0 -9.50746e-19 0)
(0 -9.69889e-19 0)
(0 -9.89795e-19 0)
(0 -1.01051e-18 0)
(0 -1.03213e-18 0)
(0 -1.05467e-18 0)
(0 -1.07811e-18 0)
(0 -1.10253e-18 0)
(0 -1.12797e-18 0)
(0 -1.15448e-18 0)
(0 -1.18214e-18 0)
(0 -1.21102e-18 0)
(0 -1.24118e-18 0)
(0 -1.27268e-18 0)
(0 -1.30558e-18 0)
(0 -1.33995e-18 0)
(0 -1.37585e-18 0)
(0 -1.41334e-18 0)
(0 -1.4525e-18 0)
(0 -1.49342e-18 0)
(0 -1.5362e-18 0)
(0 -1.58096e-18 0)
(0 -1.62784e-18 0)
(0 -1.67698e-18 0)
(0 -1.72853e-18 0)
(0 -1.78264e-18 0)
(0 -1.83958e-18 0)
(0 -1.89986e-18 0)
(0 -1.96435e-18 0)
(0 -2.0343e-18 0)
(0 -2.11084e-18 0)
(0 -2.19409e-18 0)
(0 -2.2826e-18 0)
(0 -2.37493e-18 0)
(0 -2.47479e-18 0)
(0 -2.5938e-18 0)
(0 -3.30301e-18 0)
(0 -1.14536e-17 0)
(0 -4.70821e-17 0)
(0 -2.0259e-16 0)
(0 -9.0197e-16 0)
(0 -4.02156e-15 0)
(0 -1.626e-14 0)
(0 -5.30176e-14 0)
(0 -1.62705e-13 0)
(0 -6.84696e-13 0)
(0 -5.39369e-12 0)
(0 -9.71932e-11 0)
(0 -3.33429e-09 0)
(0 -5.14544e-08 0)
(0 -9.39113e-07 0)
(0 -0.000617887 0)
(0 -0.250782 0)
(0 -0.845176 0)
(0 -0.485762 0)
(0 -0.217676 0)
(0 -0.129109 0)
(0 -0.0809633 0)
(0 -0.0546799 0)
(0 -0.0400303 0)
(0 -0.0311284 0)
(0 -0.0250852 0)
(0 -0.0206967 0)
(0 -0.0173901 0)
(0 -0.0148406 0)
(0 -0.0128193 0)
(0 -0.0111808 0)
(0 -0.00984087 0)
(0 -0.00873094 0)
(0 -0.00780125 0)
(0 -0.00701462 0)
(0 -0.00634267 0)
(0 -0.00576345 0)
(0 -0.00525981 0)
(0 -0.00481824 0)
(0 -0.004428 0)
(0 -0.00408054 0)
(0 -0.00376896 0)
(0 -0.00348774 0)
(0 -0.0032324 0)
(0 -0.00299933 0)
(0 -0.0027856 0)
(0 -0.00258882 0)
(0 -0.00240706 0)
(0 -0.00223873 0)
(0 -0.00208253 0)
(0 -0.00193737 0)
(0 -0.00180236 0)
(0 -0.00167673 0)
(0 -0.00155982 0)
(0 -0.00145105 0)
(0 -0.00134989 0)
(0 -0.00125581 0)
(0 -0.00116833 0)
(0 -0.00108697 0)
(0 -0.00101128 0)
(0 -0.000940891 0)
(0 -0.000875496 0)
(0 -0.000814826 0)
(0 -0.000758612 0)
(0 -0.000706596 0)
(0 -0.000658559 0)
(0 -0.000614281 0)
(0 -0.000573406 0)
(0 -0.000535022 0)
(-2.58606e-19 -0.000498333 0)
(0 -0.00046309 0)
(0 -0.00042919 0)
(2.32223e-19 -0.000396528 0)
(0 -0.000365015 0)
(-2.15389e-19 -0.000334764 0)
(0 -0.000306268 0)
(1.01216e-19 -0.000280214 0)
(0 -0.000256927 0)
(0 -0.000236034 0)
(0 -0.000216401 0)
(9.82104e-20 -0.000197063 0)
(0 -0.000178092 0)
(0 -0.000159775 0)
(0 -0.000141943 0)
(0 -0.000124828 0)
(0 -0.000108945 0)
(-4.89406e-20 -9.45347e-05 0)
(0 -8.14801e-05 0)
(-2.41415e-20 -6.95551e-05 0)
(0 -5.90332e-05 0)
(0 -4.99363e-05 0)
(0 -4.18917e-05 0)
(0 -3.48959e-05 0)
(0 -2.89602e-05 0)
(0 -2.38883e-05 0)
(5.40345e-21 -1.96209e-05 0)
(5.27186e-21 -1.59619e-05 0)
(0 -1.30031e-05 0)
(0 -1.04341e-05 0)
(0 -8.21423e-06 0)
(0 -5.93515e-06 0)
(0 -5.24528e-06 0)
(0 -5.40205e-06 0)
(0 -3.49899e-06 0)
(0 -1.35199e-06 0)
(0 -1.13183e-06 0)
(0 -7.93411e-07 0)
(0 -5.33595e-07 0)
(0 -3.4892e-07 0)
(0 -2.30444e-07 0)
(-2.29663e-34 -5.28659e-08 0)
(3.2362e-45 -1.36036e-18 0)
(0 -1.65256e-29 0)
(0 -2.31711e-36 0)
(-1.46224e-52 -1.97862e-36 0)
(0 -7.05935e-37 0)
(0 -2.47934e-37 0)
(-2.68618e-53 -1.01668e-37 0)
(0 -4.74454e-38 0)
(0 -2.8229e-38 0)
(0 -2.30874e-38 0)
(0 -1.54452e-38 0)
(0 -6.17054e-39 0)
(0 -2.06562e-39 0)
(0 -7.95894e-40 0)
(0 -3.32262e-40 0)
(0 -1.47435e-40 0)
(0 -4.30552e-41 0)
(0 -3.63156e-42 0)
(0 -7.61528e-44 0)
(0 -9.0795e-46 0)
(0 -9.99292e-48 0)
(0 -9.74407e-50 0)
(1.66228e-67 -9.00842e-52 0)
(0 -7.77861e-54 0)
(0 -6.16988e-56 0)
(0 -2.94205e-58 0)
(0 -4.13211e-60 0)
(0 -1.84429e-60 0)
(0 -8.19233e-61 0)
(0 -3.56667e-61 0)
(0 -1.52087e-61 0)
(0 -6.34712e-62 0)
(0 -2.59046e-62 0)
(0 -1.03308e-62 0)
(0 -4.02225e-63 0)
(0 -1.52749e-63 0)
(0 -5.65234e-64 0)
(0 -2.03593e-64 0)
(0 -7.12995e-65 0)
(0 -2.4248e-65 0)
(0 -7.99764e-66 0)
(0 -2.55467e-66 0)
(0 -7.89107e-67 0)
(0 -2.35314e-67 0)
(0 -6.76227e-68 0)
(0 -1.86904e-68 0)
(0 -4.95789e-69 0)
(0 -1.25921e-69 0)
(0 -3.05413e-70 0)
(0 -7.05342e-71 0)
(0 -1.54604e-71 0)
(0 -3.20443e-72 0)
(5.78754e-89 -6.25434e-73 0)
(0 -1.14402e-73 0)
(0 -1.95033e-74 0)
(-2.1285e-91 -3.07881e-75 0)
(0 -4.46605e-76 0)
(0 -5.89788e-77 0)
(0 -7.01039e-78 0)
(0 -7.39278e-79 0)
(0 -6.78831e-80 0)
(0 -5.29165e-81 0)
(0 -3.37697e-82 0)
(0 -1.66754e-83 0)
(0 -5.76548e-85 0)
(0 -1.11071e-86 0)
(0 -3.50908e-89 0)
(0 -8.74651e-94 0)
(0 -7.74751e-96 0)
(0 -3.40317e-98 0)
(0 -1.169e-108 0)
(0 -2.00597e-119 0)
(0 -2.47946e-130 0)
(0 -2.20536e-141 0)
(0 -1.67402e-152 0)
(0 -9.64443e-164 0)
(0 -4.78899e-175 0)
(0 -3.97607e-185 0)
(0 -1.68483e-195 0)
(0 -1.31322e-203 0)
(0 -5.00423e-214 0)
(0 -4.51698e-222 0)
(0 -2.01356e-232 0)
(0 -1.5542e-240 0)
(0 -8.49324e-251 0)
(0 -5.35209e-259 0)
(0 -5.39301e-269 0)
(0 -1.87226e-277 0)
(0 -3.54215e-287 0)
(0 -6.69773e-296 0)
(0 -1.74786e-305 0)
(0 -2.44558e-314 0)
(0 -9.88131e-324 0)
(0 -0 0)
(0 0 0)
(0 0 0)
(0 0 0)
(0 0 0)
(0 0 0)
(0 0 0)
(0 0 0)
(0 0 0)
(0 0 0)
(0 0 0)
(0 0 0)
(0 0 0)
(0 0 0)
(0 0 0)
(0 0 0)
(0 0 0)
(0 0 0)
(0 0 0)
(0 0 0)
(0 0 0)
(0 0 0)
(0 0 0)
)
;

boundaryField
{
    inandouthalf11
    {
        type            cyclic;
    }
    inandouthalf12
    {
        type            cyclic;
    }
    inandouthalf21
    {
        type            cyclic;
    }
    inandouthalf22
    {
        type            cyclic;
    }
    inandouthalf31
    {
        type            cyclic;
    }
    inandouthalf32
    {
        type            cyclic;
    }
    inandouthalf41
    {
        type            cyclic;
    }
    inandouthalf42
    {
        type            cyclic;
    }
    top
    {
        type            symmetryPlane;
    }
    walls
    {
        type            zeroGradient;
    }
    frontAndBackPlanes
    {
        type            empty;
    }
}


// ************************************************************************* //
