/*--------------------------------*- C++ -*----------------------------------*\
| =========                 |                                                 |
| \\      /  F ield         | OpenFOAM: The Open Source CFD Toolbox           |
|  \\    /   O peration     | Version:  2.4.x                                 |
|   \\  /    A nd           | Web:      www.OpenFOAM.org                      |
|    \\/     M anipulation  |                                                 |
\*---------------------------------------------------------------------------*/
FoamFile
{
    version     2.0;
    format      ascii;
    class       volTensorField;
    location    "7.55";
    object      Tauf;
}
// * * * * * * * * * * * * * * * * * * * * * * * * * * * * * * * * * * * * * //

dimensions      [0 2 -2 0 0 0 0];

internalField   nonuniform List<tensor> 
360
(
(0 5.2022e-07 0 5.2022e-07 3.62209e-10 0 0 0 0)
(0 -1.55526e-09 0 -1.55526e-09 4.42143e-10 0 0 0 0)
(0 -1.54981e-11 0 -1.54981e-11 4.55848e-10 0 0 0 0)
(0 3.00271e-10 0 3.00271e-10 4.30671e-10 0 0 0 0)
(-5.16988e-23 1.5007e-10 0 1.5007e-10 4.29504e-10 0 0 0 0)
(-5.16988e-23 8.96328e-11 0 8.96328e-11 4.35631e-10 0 0 0 0)
(-1.03398e-22 1.02533e-10 0 1.02533e-10 4.37799e-10 0 0 0 0)
(0 1.13086e-10 0 1.13086e-10 4.36971e-10 0 0 0 0)
(-5.16988e-23 1.14969e-10 0 1.14969e-10 4.35791e-10 0 0 0 0)
(0 1.16156e-10 0 1.16156e-10 4.35206e-10 0 0 0 0)
(-5.16988e-23 1.16342e-10 0 1.16342e-10 4.35089e-10 0 0 0 0)
(0 1.16303e-10 0 1.16303e-10 4.35114e-10 0 0 0 0)
(-5.16988e-23 1.16701e-10 0 1.16701e-10 4.35142e-10 0 0 0 0)
(0 1.17185e-10 0 1.17185e-10 4.35183e-10 0 0 0 0)
(0 1.18079e-10 0 1.18079e-10 4.35327e-10 0 0 0 0)
(0 1.19035e-10 0 1.19035e-10 4.3566e-10 0 0 0 0)
(0 1.1971e-10 0 1.1971e-10 4.36185e-10 0 0 0 0)
(-5.16988e-23 1.20254e-10 0 1.20254e-10 4.36856e-10 0 0 0 0)
(0 1.21296e-10 0 1.21296e-10 4.3767e-10 0 0 0 0)
(0 1.21892e-10 0 1.21892e-10 4.38591e-10 0 0 0 0)
(0 1.22544e-10 0 1.22544e-10 4.39589e-10 0 0 0 0)
(-5.16988e-23 1.23692e-10 0 1.23692e-10 4.40689e-10 0 0 0 0)
(0 1.24416e-10 0 1.24416e-10 4.41874e-10 0 0 0 0)
(0 1.25321e-10 0 1.25321e-10 4.43119e-10 0 0 0 0)
(0 1.26255e-10 0 1.26255e-10 4.4441e-10 0 0 0 0)
(-5.16988e-23 1.26938e-10 0 1.26938e-10 4.45713e-10 0 0 0 0)
(0 1.28046e-10 0 1.28046e-10 4.47042e-10 0 0 0 0)
(0 1.29215e-10 0 1.29215e-10 4.48412e-10 0 0 0 0)
(0 1.29929e-10 0 1.29929e-10 4.49779e-10 0 0 0 0)
(0 1.30823e-10 0 1.30823e-10 4.51113e-10 0 0 0 0)
(0 1.32265e-10 0 1.32265e-10 4.52458e-10 0 0 0 0)
(0 1.32822e-10 0 1.32822e-10 4.53764e-10 0 0 0 0)
(0 1.3414e-10 0 1.3414e-10 4.55056e-10 0 0 0 0)
(0 1.35486e-10 0 1.35486e-10 4.56352e-10 0 0 0 0)
(0 1.36167e-10 0 1.36167e-10 4.57589e-10 0 0 0 0)
(5.16988e-23 1.37347e-10 0 1.37347e-10 4.58773e-10 0 0 0 0)
(0 1.38455e-10 0 1.38455e-10 4.59909e-10 0 0 0 0)
(0 1.40325e-10 0 1.40325e-10 4.61079e-10 0 0 0 0)
(0 1.40633e-10 0 1.40633e-10 4.62164e-10 0 0 0 0)
(0 1.42035e-10 0 1.42035e-10 4.63176e-10 0 0 0 0)
(0 1.44109e-10 0 1.44109e-10 4.64203e-10 0 0 0 0)
(0 1.44177e-10 0 1.44177e-10 4.65096e-10 0 0 0 0)
(5.16988e-23 1.46018e-10 0 1.46018e-10 4.65935e-10 0 0 0 0)
(0 1.47684e-10 0 1.47684e-10 4.6676e-10 0 0 0 0)
(0 1.48558e-10 0 1.48558e-10 4.67496e-10 0 0 0 0)
(0 1.50562e-10 0 1.50562e-10 4.68185e-10 0 0 0 0)
(0 1.51115e-10 0 1.51115e-10 4.68703e-10 0 0 0 0)
(0 1.52275e-10 0 1.52275e-10 4.69064e-10 0 0 0 0)
(0 1.55238e-10 0 1.55238e-10 4.69489e-10 0 0 0 0)
(0 1.55981e-10 0 1.55981e-10 4.69855e-10 0 0 0 0)
(5.16988e-23 1.57035e-10 0 1.57035e-10 4.70092e-10 0 0 0 0)
(0 1.59143e-10 0 1.59143e-10 4.70242e-10 0 0 0 0)
(0 1.60775e-10 0 1.60775e-10 4.70308e-10 0 0 0 0)
(0 1.61977e-10 0 1.61977e-10 4.70236e-10 0 0 0 0)
(0 1.64064e-10 0 1.64064e-10 4.70076e-10 0 0 0 0)
(0 1.65686e-10 0 1.65686e-10 4.69791e-10 0 0 0 0)
(0 1.67159e-10 0 1.67159e-10 4.69332e-10 0 0 0 0)
(0 1.69498e-10 0 1.69498e-10 4.6878e-10 0 0 0 0)
(0 1.70141e-10 0 1.70141e-10 4.67988e-10 0 0 0 0)
(0 1.72882e-10 0 1.72882e-10 4.6718e-10 0 0 0 0)
(0 1.74978e-10 0 1.74978e-10 4.6639e-10 0 0 0 0)
(0 1.76653e-10 0 1.76653e-10 4.65602e-10 0 0 0 0)
(0 1.79132e-10 0 1.79132e-10 4.6484e-10 0 0 0 0)
(0 1.80824e-10 0 1.80824e-10 4.63977e-10 0 0 0 0)
(0 1.82835e-10 0 1.82835e-10 4.62987e-10 0 0 0 0)
(0 1.85057e-10 0 1.85057e-10 4.61853e-10 0 0 0 0)
(0 1.87679e-10 0 1.87679e-10 4.60616e-10 0 0 0 0)
(0 1.89728e-10 0 1.89728e-10 4.59236e-10 0 0 0 0)
(0 1.91274e-10 0 1.91274e-10 4.57653e-10 0 0 0 0)
(0 1.94261e-10 0 1.94261e-10 4.56032e-10 0 0 0 0)
(0 1.97966e-10 0 1.97966e-10 4.54567e-10 0 0 0 0)
(0 1.99319e-10 0 1.99319e-10 4.53052e-10 0 0 0 0)
(0 2.01926e-10 0 2.01926e-10 4.51525e-10 0 0 0 0)
(0 2.05426e-10 0 2.05426e-10 4.50017e-10 0 0 0 0)
(0 2.08351e-10 0 2.08351e-10 4.48458e-10 0 0 0 0)
(0 2.11023e-10 0 2.11023e-10 4.46728e-10 0 0 0 0)
(0 2.13325e-10 0 2.13325e-10 4.44626e-10 0 0 0 0)
(0 2.16691e-10 0 2.16691e-10 4.4218e-10 0 0 0 0)
(0 2.20034e-10 0 2.20034e-10 4.39399e-10 0 0 0 0)
(0 2.22992e-10 0 2.22992e-10 4.36284e-10 0 0 0 0)
(0 2.26305e-10 0 2.26305e-10 4.32883e-10 0 0 0 0)
(0 2.30177e-10 0 2.30177e-10 4.29284e-10 0 0 0 0)
(0 2.33851e-10 0 2.33851e-10 4.25496e-10 0 0 0 0)
(0 2.37644e-10 0 2.37644e-10 4.21511e-10 0 0 0 0)
(0 2.41541e-10 0 2.41541e-10 4.17255e-10 0 0 0 0)
(0 2.4556e-10 0 2.4556e-10 4.12641e-10 0 0 0 0)
(0 2.49598e-10 0 2.49598e-10 4.07566e-10 0 0 0 0)
(0 2.53609e-10 0 2.53609e-10 4.01933e-10 0 0 0 0)
(0 2.57973e-10 0 2.57973e-10 3.95725e-10 0 0 0 0)
(0 2.62548e-10 0 2.62548e-10 3.88966e-10 0 0 0 0)
(0 2.67252e-10 0 2.67252e-10 3.81716e-10 0 0 0 0)
(0 2.72291e-10 0 2.72291e-10 3.74078e-10 0 0 0 0)
(0 2.77618e-10 0 2.77618e-10 3.66153e-10 0 0 0 0)
(0 2.83093e-10 0 2.83093e-10 3.5802e-10 0 0 0 0)
(0 2.8877e-10 0 2.8877e-10 3.49737e-10 0 0 0 0)
(0 2.94647e-10 0 2.94647e-10 3.41334e-10 0 0 0 0)
(0 3.0071e-10 0 3.0071e-10 3.32826e-10 0 0 0 0)
(0 3.06986e-10 0 3.06986e-10 3.24223e-10 0 0 0 0)
(0 3.1353e-10 0 3.1353e-10 3.15541e-10 0 0 0 0)
(0 3.20358e-10 0 3.20358e-10 3.06806e-10 0 0 0 0)
(0 3.27485e-10 0 3.27485e-10 2.98049e-10 0 0 0 0)
(0 3.34948e-10 0 3.34948e-10 2.89309e-10 0 0 0 0)
(0 3.42749e-10 0 3.42749e-10 2.80626e-10 0 0 0 0)
(0 3.50888e-10 0 3.50888e-10 2.72033e-10 0 0 0 0)
(0 3.59383e-10 0 3.59383e-10 2.63563e-10 0 0 0 0)
(0 3.68253e-10 0 3.68253e-10 2.55241e-10 0 0 0 0)
(0 3.77518e-10 0 3.77518e-10 2.47095e-10 0 0 0 0)
(0 3.87203e-10 0 3.87203e-10 2.3915e-10 0 0 0 0)
(0 3.97333e-10 0 3.97333e-10 2.31436e-10 0 0 0 0)
(0 4.0793e-10 0 4.0793e-10 2.23983e-10 0 0 0 0)
(0 4.19014e-10 0 4.19014e-10 2.16826e-10 0 0 0 0)
(0 4.30608e-10 0 4.30608e-10 2.10004e-10 0 0 0 0)
(0 4.42732e-10 0 4.42732e-10 2.0356e-10 0 0 0 0)
(0 4.55409e-10 0 4.55409e-10 1.97539e-10 0 0 0 0)
(0 4.68661e-10 0 4.68661e-10 1.91992e-10 0 0 0 0)
(0 4.82515e-10 0 4.82515e-10 1.86969e-10 0 0 0 0)
(0 4.97e-10 0 4.97e-10 1.8252e-10 0 0 0 0)
(0 5.12149e-10 0 5.12149e-10 1.78689e-10 0 0 0 0)
(0 5.28006e-10 0 5.28006e-10 1.75508e-10 0 0 0 0)
(0 5.44615e-10 0 5.44615e-10 1.72985e-10 0 0 0 0)
(0 5.62026e-10 0 5.62026e-10 1.71095e-10 0 0 0 0)
(0 5.80291e-10 0 5.80291e-10 1.69768e-10 0 0 0 0)
(0 5.9947e-10 0 5.9947e-10 1.68875e-10 0 0 0 0)
(0 6.1966e-10 0 6.1966e-10 1.6822e-10 0 0 0 0)
(0 6.41045e-10 0 6.41045e-10 1.67548e-10 0 0 0 0)
(0 6.63949e-10 0 6.63949e-10 1.66549e-10 0 0 0 0)
(0 6.88824e-10 0 6.88824e-10 1.64872e-10 0 0 0 0)
(0 7.16098e-10 0 7.16098e-10 1.62131e-10 0 0 0 0)
(0 7.45869e-10 0 7.45869e-10 1.57914e-10 0 0 0 0)
(0 7.77699e-10 0 7.77699e-10 1.51806e-10 0 0 0 0)
(0 8.11165e-10 0 8.11165e-10 1.43497e-10 0 0 0 0)
(0 8.47602e-10 0 8.47602e-10 1.32983e-10 0 0 0 0)
(0 8.91094e-10 0 8.91094e-10 1.20817e-10 0 0 0 0)
(0 9.44338e-10 0 9.44338e-10 1.08058e-10 0 0 0 0)
(0 1.00196e-09 0 1.00196e-09 9.56785e-11 0 0 0 0)
(0 1.05617e-09 0 1.05617e-09 8.41031e-11 0 0 0 0)
(0 1.11582e-09 0 1.11582e-09 7.35469e-11 0 0 0 0)
(0 1.21309e-09 0 1.21309e-09 6.46687e-11 0 0 0 0)
(0 1.37071e-09 0 1.37071e-09 5.86974e-11 0 0 0 0)
(0 1.52572e-09 0 1.52572e-09 5.31268e-11 0 0 0 0)
(0 1.55648e-09 0 1.55648e-09 3.14804e-11 0 0 0 0)
(0 1.68641e-09 0 1.68641e-09 -7.27114e-12 0 0 0 0)
(0 2.12612e-09 0 2.12612e-09 -5.22317e-11 0 0 0 0)
(0 2.71391e-09 0 2.71391e-09 -1.35317e-10 0 0 0 0)
(0 4.43421e-09 0 4.43421e-09 -3.21954e-10 0 0 0 0)
(0 9.49475e-09 0 9.49475e-09 1.49658e-09 0 0 0 0)
(0 9.22456e-09 0 9.22456e-09 5.84129e-09 0 0 0 0)
(0 2.7884e-08 0 2.7884e-08 1.91994e-08 0 0 0 0)
(0 7.44677e-06 0 7.44677e-06 -5.01635e-08 0 0 0 0)
(0 0.000130817 0 0.000130817 -9.59026e-07 0 0 0 0)
(0 0.000698557 0 0.000698557 -2.92997e-07 0 0 0 0)
(0 0.0010928 0 0.0010928 5.91059e-06 0 0 0 0)
(0 0.000818677 0 0.000818677 1.70086e-06 0 0 0 0)
(0 0.000654093 0 0.000654093 2.40545e-06 0 0 0 0)
(0 0.000506971 0 0.000506971 4.3434e-08 0 0 0 0)
(0 0.000373284 0 0.000373284 8.36511e-07 0 0 0 0)
(0 0.000252412 0 0.000252412 -3.63023e-07 0 0 0 0)
(0 0.000141761 0 0.000141761 -2.3671e-07 0 0 0 0)
(0 3.88735e-05 0 3.88735e-05 -2.96566e-07 0 0 0 0)
(0 -5.79155e-05 0 -5.79155e-05 -3.42044e-07 0 0 0 0)
(0 -0.000149614 0 -0.000149614 -3.59119e-07 0 0 0 0)
(0 -0.000236804 0 -0.000236804 -3.57687e-07 0 0 0 0)
(0 -0.000319847 0 -0.000319847 -3.4772e-07 0 0 0 0)
(0 -0.000398982 0 -0.000398982 -3.33941e-07 0 0 0 0)
(0 -0.000474371 0 -0.000474371 -3.18343e-07 0 0 0 0)
(0 -0.000546139 0 -0.000546139 -3.0185e-07 0 0 0 0)
(0 -0.000614391 0 -0.000614391 -2.85089e-07 0 0 0 0)
(0 -0.00067922 0 -0.00067922 -2.68464e-07 0 0 0 0)
(0 -0.000740715 0 -0.000740715 -2.52217e-07 0 0 0 0)
(0 -0.000798964 0 -0.000798964 -2.36489e-07 0 0 0 0)
(0 -0.000854055 0 -0.000854055 -2.21365e-07 0 0 0 0)
(0 -0.000906073 0 -0.000906073 -2.06896e-07 0 0 0 0)
(0 -0.000955109 0 -0.000955109 -1.93109e-07 0 0 0 0)
(0 -0.00100125 0 -0.00100125 -1.8002e-07 0 0 0 0)
(0 -0.00104458 0 -0.00104458 -1.67634e-07 0 0 0 0)
(0 -0.00108519 0 -0.00108519 -1.5595e-07 0 0 0 0)
(0 -0.00112317 0 -0.00112317 -1.44958e-07 0 0 0 0)
(0 -0.00115859 0 -0.00115859 -1.34647e-07 0 0 0 0)
(0 -0.00119155 0 -0.00119155 -1.25e-07 0 0 0 0)
(0 -0.00122212 0 -0.00122212 -1.15997e-07 0 0 0 0)
(0 -0.00125039 0 -0.00125039 -1.07614e-07 0 0 0 0)
(0 -0.00127643 0 -0.00127643 -9.98264e-08 0 0 0 0)
(0 -0.00130031 0 -0.00130031 -9.2605e-08 0 0 0 0)
(0 -0.00132211 0 -0.00132211 -8.59212e-08 0 0 0 0)
(0 -0.0013419 0 -0.0013419 -7.97448e-08 0 0 0 0)
(0 -0.00135975 0 -0.00135975 -7.40453e-08 0 0 0 0)
(0 -0.00137573 0 -0.00137573 -6.87919e-08 0 0 0 0)
(0 -0.0013899 0 -0.0013899 -6.39543e-08 0 0 0 0)
(0 -0.00140232 0 -0.00140232 -5.9502e-08 0 0 0 0)
(0 -0.00141306 0 -0.00141306 -5.54049e-08 0 0 0 0)
(0 -0.00142217 0 -0.00142217 -5.16335e-08 0 0 0 0)
(0 -0.00142971 0 -0.00142971 -4.81594e-08 0 0 0 0)
(0 -0.00143574 0 -0.00143574 -4.49567e-08 0 0 0 0)
(0 -0.00144031 0 -0.00144031 -4.20028e-08 0 0 0 0)
(0 -0.00144348 0 -0.00144348 -3.92783e-08 0 0 0 0)
(0 -0.00144528 0 -0.00144528 -3.67656e-08 0 0 0 0)
(0 -0.00144578 0 -0.00144578 -3.44484e-08 0 0 0 0)
(0 -0.00144502 0 -0.00144502 -3.23121e-08 0 0 0 0)
(0 -0.00144305 0 -0.00144305 -3.03436e-08 0 0 0 0)
(0 -0.00143993 0 -0.00143993 -2.85291e-08 0 0 0 0)
(0 -0.00143574 0 -0.00143574 -2.68502e-08 0 0 0 0)
(0 -0.00143056 0 -0.00143056 -2.5268e-08 0 0 0 0)
(-1.36643e-17 -0.00142441 0 -0.00142441 -2.3747e-08 0 0 0 0)
(0 -0.00141729 0 -0.00141729 -2.22745e-08 0 0 0 0)
(0 -0.00140918 0 -0.00140918 -2.08415e-08 0 0 0 0)
(1.29017e-17 -0.00140004 0 -0.00140004 -1.94374e-08 0 0 0 0)
(0 -0.00138984 0 -0.00138984 -1.805e-08 0 0 0 0)
(-1.23869e-17 -0.00137854 0 -0.00137854 -1.6669e-08 0 0 0 0)
(0 -0.00136611 0 -0.00136611 -1.52911e-08 0 0 0 0)
(1.18671e-17 -0.00135251 0 -0.00135251 -1.39204e-08 0 0 0 0)
(0 -0.00133772 0 -0.00133772 -1.25669e-08 0 0 0 0)
(0 -0.00132171 0 -0.00132171 -1.12421e-08 0 0 0 0)
(0 -0.00130444 0 -0.00130444 -9.95525e-09 0 0 0 0)
(5.40618e-18 -0.00128591 0 -0.00128591 -8.72085e-09 0 0 0 0)
(0 -0.00126608 0 -0.00126608 -7.56254e-09 0 0 0 0)
(0 -0.00124495 0 -0.00124495 -6.49789e-09 0 0 0 0)
(0 -0.00122248 0 -0.00122248 -5.5312e-09 0 0 0 0)
(0 -0.00119867 0 -0.00119867 -4.66578e-09 0 0 0 0)
(0 -0.00117352 0 -0.00117352 -3.90704e-09 0 0 0 0)
(-4.59694e-18 -0.001147 0 -0.001147 -3.25284e-09 0 0 0 0)
(0 -0.00111913 0 -0.00111913 -2.69142e-09 0 0 0 0)
(-4.32285e-18 -0.0010899 0 -0.0010899 -2.21132e-09 0 0 0 0)
(0 -0.00105932 0 -0.00105932 -1.80654e-09 0 0 0 0)
(-4.04699e-18 -0.00102739 0 -0.00102739 -1.46921e-09 0 0 0 0)
(0 -0.000994149 0 -0.000994149 -1.18804e-09 0 0 0 0)
(0 -0.000959603 0 -0.000959603 -9.54797e-10 0 0 0 0)
(0 -0.000923787 0 -0.000923787 -7.63597e-10 0 0 0 0)
(0 -0.000886738 0 -0.000886738 -6.07865e-10 0 0 0 0)
(3.35233e-18 -0.000848503 0 -0.000848503 -4.81238e-10 0 0 0 0)
(0 -0.000809138 0 -0.000809138 -3.79001e-10 0 0 0 0)
(0 -0.000768709 0 -0.000768709 -2.9701e-10 0 0 0 0)
(0 -0.000727296 0 -0.000727296 -2.29737e-10 0 0 0 0)
(0 -0.000684991 0 -0.000684991 -1.71853e-10 0 0 0 0)
(0 -0.000641905 0 -0.000641905 -1.28032e-10 0 0 0 0)
(0 -0.000598163 0 -0.000598163 -1.07725e-10 0 0 0 0)
(0 -0.000553914 0 -0.000553914 -9.78314e-11 0 0 0 0)
(0 -0.000509325 0 -0.000509325 -7.90765e-11 0 0 0 0)
(0 -0.000464592 0 -0.000464592 -5.42669e-11 0 0 0 0)
(0 -0.000419938 0 -0.000419938 -3.25251e-11 0 0 0 0)
(0 -0.000375621 0 -0.000375621 -1.76329e-11 0 0 0 0)
(0 -0.000331929 0 -0.000331929 -8.8723e-12 0 0 0 0)
(0 -0.000289185 0 -0.000289185 -1.71356e-12 0 0 0 0)
(0 -0.000247747 0 -0.000247747 1.10332e-12 0 0 0 0)
(-1.37128e-18 -0.000208004 0 -0.000208004 -1.79943e-12 0 0 0 0)
(1.25987e-18 -0.000170369 0 -0.000170369 -1.72215e-12 0 0 0 0)
(0 -0.000135267 0 -0.000135267 1.89722e-13 0 0 0 0)
(0 -0.000103112 0 -0.000103112 1.23949e-13 0 0 0 0)
(-9.57629e-19 -7.4283e-05 0 -7.4283e-05 1.45028e-15 0 0 0 0)
(0 -4.90884e-05 0 -4.90884e-05 -1.88951e-14 0 0 0 0)
(0 -2.77366e-05 0 -2.77366e-05 -1.31373e-14 0 0 0 0)
(-7.06077e-19 -1.03122e-05 0 -1.03122e-05 1.84175e-14 0 0 0 0)
(0 3.2305e-06 0 3.2305e-06 1.52065e-13 0 0 0 0)
(0 1.30582e-05 0 1.30582e-05 -6.78829e-13 0 0 0 0)
(0 1.94375e-05 0 1.94375e-05 1.36729e-12 0 0 0 0)
(0 2.27136e-05 0 2.27136e-05 -2.05204e-12 0 0 0 0)
(0 2.32942e-05 0 2.32942e-05 2.56577e-12 0 0 0 0)
(0 2.16389e-05 0 2.16389e-05 -2.84457e-12 0 0 0 0)
(0 1.82511e-05 0 1.82511e-05 2.81685e-12 0 0 0 0)
(0 1.3677e-05 0 1.3677e-05 -2.49278e-12 0 0 0 0)
(0 8.53855e-06 0 8.53855e-06 1.88353e-12 0 0 0 0)
(0 3.29969e-06 0 3.29969e-06 -1.05381e-12 0 0 0 0)
(0 4.14221e-07 0 4.14221e-07 3.16083e-13 0 0 0 0)
(0 2.91909e-08 0 2.91909e-08 -1.46474e-13 0 0 0 0)
(0 1.115e-09 0 1.115e-09 1.37035e-13 0 0 0 0)
(0 4.48297e-11 0 4.48297e-11 -1.34852e-13 0 0 0 0)
(0 1.55666e-11 0 1.55666e-11 1.32731e-13 0 0 0 0)
(7.02721e-21 1.11797e-11 0 1.11797e-11 -1.30837e-13 0 0 0 0)
(0 8.23908e-12 0 8.23908e-12 1.28939e-13 0 0 0 0)
(0 6.03963e-12 0 6.03963e-12 -1.27197e-13 0 0 0 0)
(0 4.39966e-12 0 4.39966e-12 1.25446e-13 0 0 0 0)
(0 3.18452e-12 0 3.18452e-12 -1.2381e-13 0 0 0 0)
(0 2.28984e-12 0 2.28984e-12 1.2215e-13 0 0 0 0)
(0 1.63536e-12 0 1.63536e-12 -1.20579e-13 0 0 0 0)
(0 1.16019e-12 0 1.16019e-12 1.18991e-13 0 0 0 0)
(0 8.1769e-13 0 8.1769e-13 -1.17455e-13 0 0 0 0)
(0 5.71855e-13 0 5.71855e-13 1.15889e-13 0 0 0 0)
(0 3.96745e-13 0 3.96745e-13 -1.14374e-13 0 0 0 0)
(0 2.73394e-13 0 2.73394e-13 1.12814e-13 0 0 0 0)
(0 1.87269e-13 0 1.87269e-13 -1.11302e-13 0 0 0 0)
(0 1.27332e-13 0 1.27332e-13 1.09728e-13 0 0 0 0)
(0 8.57737e-14 0 8.57737e-14 -1.08198e-13 0 0 0 0)
(0 5.71505e-14 0 5.71505e-14 1.06621e-13 0 0 0 0)
(0 3.79449e-14 0 3.79449e-14 -1.05062e-13 0 0 0 0)
(0 2.48552e-14 0 2.48552e-14 1.03455e-13 0 0 0 0)
(0 1.61471e-14 0 1.61471e-14 -1.01871e-13 0 0 0 0)
(0 1.05589e-14 0 1.05589e-14 1.00231e-13 0 0 0 0)
(9.40325e-21 6.69822e-15 0 6.69822e-15 -9.86232e-14 0 0 0 0)
(0 4.24853e-15 0 4.24853e-15 9.69368e-14 0 0 0 0)
(0 2.64117e-15 0 2.64117e-15 -9.52905e-14 0 0 0 0)
(0 1.59402e-15 0 1.59402e-15 9.35806e-14 0 0 0 0)
(0 1.08841e-15 0 1.08841e-15 -9.18989e-14 0 0 0 0)
(0 6.82199e-16 0 6.82199e-16 9.01488e-14 0 0 0 0)
(0 3.50942e-16 0 3.50942e-16 -8.84346e-14 0 0 0 0)
(0 2.00951e-16 0 2.00951e-16 8.66496e-14 0 0 0 0)
(0 2.40415e-16 0 2.40415e-16 -8.49024e-14 0 0 0 0)
(0 2.23053e-16 0 2.23053e-16 8.30796e-14 0 0 0 0)
(7.69149e-21 -7.91878e-17 0 -7.91878e-17 -8.12815e-14 0 0 0 0)
(0 -1.33574e-16 0 -1.33574e-16 7.94662e-14 0 0 0 0)
(0 6.71616e-18 0 6.71616e-18 -7.76244e-14 0 0 0 0)
(-7.24153e-21 9.12541e-17 0 9.12541e-17 7.57615e-14 0 0 0 0)
(0 1.1823e-16 0 1.1823e-16 -7.38931e-14 0 0 0 0)
(0 3.98177e-17 0 3.98177e-17 7.20054e-14 0 0 0 0)
(0 -8.9253e-17 0 -8.9253e-17 -7.00992e-14 0 0 0 0)
(0 -8.79719e-17 0 -8.79719e-17 6.81756e-14 0 0 0 0)
(0 3.53827e-17 0 3.53827e-17 -6.62353e-14 0 0 0 0)
(0 1.39653e-16 0 1.39653e-16 6.4279e-14 0 0 0 0)
(0 -5.29133e-17 0 -5.29133e-17 -6.23022e-14 0 0 0 0)
(0 -1.13233e-16 0 -1.13233e-16 6.03065e-14 0 0 0 0)
(0 8.63497e-17 0 8.63497e-17 -5.82906e-14 0 0 0 0)
(0 1.27943e-18 0 1.27943e-18 5.62928e-14 0 0 0 0)
(0 -1.01015e-16 0 -1.01015e-16 -6.20661e-14 0 0 0 0)
(0 -3.67136e-17 0 -3.67136e-17 6.13865e-14 0 0 0 0)
(0 4.94786e-17 0 4.94786e-17 -6.07411e-14 0 0 0 0)
(0 1.37544e-17 0 1.37544e-17 6.00888e-14 0 0 0 0)
(0 8.13946e-19 0 8.13946e-19 -5.94291e-14 0 0 0 0)
(0 4.9965e-17 0 4.9965e-17 5.8762e-14 0 0 0 0)
(0 -3.87551e-17 0 -3.87551e-17 -5.8088e-14 0 0 0 0)
(0 -1.35095e-17 0 -1.35095e-17 5.74056e-14 0 0 0 0)
(0 4.83437e-17 0 4.83437e-17 -5.67163e-14 0 0 0 0)
(0 -8.61525e-17 0 -8.61525e-17 5.60175e-14 0 0 0 0)
(0 -4.8357e-17 0 -4.8357e-17 -5.53115e-14 0 0 0 0)
(0 4.58093e-17 0 4.58093e-17 5.45955e-14 0 0 0 0)
(0 4.9568e-17 0 4.9568e-17 -5.38713e-14 0 0 0 0)
(0 1.3354e-17 0 1.3354e-17 5.31367e-14 0 0 0 0)
(0 -1.07004e-17 0 -1.07004e-17 -5.23931e-14 0 0 0 0)
(0 -1.10908e-17 0 -1.10908e-17 5.16382e-14 0 0 0 0)
(0 -2.9537e-17 0 -2.9537e-17 -5.08735e-14 0 0 0 0)
(0 4.46214e-17 0 4.46214e-17 5.01002e-14 0 0 0 0)
(0 6.50826e-18 0 6.50826e-18 -4.93047e-14 0 0 0 0)
(0 -8.93024e-18 0 -8.93024e-18 4.85202e-14 0 0 0 0)
(0 -4.56935e-18 0 -4.56935e-18 -4.76894e-14 0 0 0 0)
(0 -3.60651e-17 0 -3.60651e-17 4.6886e-14 0 0 0 0)
(0 2.39882e-18 0 2.39882e-18 -4.60243e-14 0 0 0 0)
(0 4.03267e-17 0 4.03267e-17 4.51937e-14 0 0 0 0)
(0 7.19978e-18 0 7.19978e-18 -4.42888e-14 0 0 0 0)
(0 -5.93254e-18 0 -5.93254e-18 4.34397e-14 0 0 0 0)
(0 -1.8059e-17 0 -1.8059e-17 -4.2504e-14 0 0 0 0)
(0 -4.51971e-18 0 -4.51971e-18 4.15971e-14 0 0 0 0)
(0 -1.85983e-17 0 -1.85983e-17 -4.06109e-14 0 0 0 0)
(0 -1.43493e-16 0 -1.43493e-16 3.96981e-14 0 0 0 0)
(0 -3.68195e-16 0 -3.68195e-16 -3.8638e-14 0 0 0 0)
(0 3.01094e-19 0 3.01094e-19 3.76925e-14 0 0 0 0)
(0 3.72354e-16 0 3.72354e-16 -3.65336e-14 0 0 0 0)
(0 1.3576e-16 0 1.3576e-16 3.55863e-14 0 0 0 0)
(0 9.74088e-18 0 9.74088e-18 -3.43481e-14 0 0 0 0)
(0 8.78797e-18 0 8.78797e-18 3.33116e-14 0 0 0 0)
(0 6.57079e-17 0 6.57079e-17 -3.19516e-14 0 0 0 0)
(0 2.87065e-17 0 2.87065e-17 3.09253e-14 0 0 0 0)
(0 -2.78065e-17 0 -2.78065e-17 -2.93788e-14 0 0 0 0)
(0 -1.04592e-16 0 -1.04592e-16 2.82882e-14 0 0 0 0)
(0 8.67216e-18 0 8.67216e-18 -2.6543e-14 0 0 0 0)
(0 1.50127e-16 0 1.50127e-16 2.54169e-14 0 0 0 0)
(0 8.08056e-17 0 8.08056e-17 -2.32473e-14 0 0 0 0)
(0 -3.7597e-17 0 -3.7597e-17 2.21704e-14 0 0 0 0)
(0 -6.44771e-17 0 -6.44771e-17 -1.96308e-14 0 0 0 0)
(0 -6.72465e-17 0 -6.72465e-17 1.80965e-14 0 0 0 0)
(0 -5.2655e-17 0 -5.2655e-17 -1.49614e-14 0 0 0 0)
(0 3.60386e-17 0 3.60386e-17 1.28921e-14 0 0 0 0)
(0 -5.67876e-17 0 -5.67876e-17 -9.58706e-15 0 0 0 0)
(0 -9.04009e-17 0 -9.04009e-17 6.64312e-16 0 0 0 0)
)
;

boundaryField
{
    inandouthalf11
    {
        type            cyclic;
    }
    inandouthalf12
    {
        type            cyclic;
    }
    inandouthalf21
    {
        type            cyclic;
    }
    inandouthalf22
    {
        type            cyclic;
    }
    inandouthalf31
    {
        type            cyclic;
    }
    inandouthalf32
    {
        type            cyclic;
    }
    inandouthalf41
    {
        type            cyclic;
    }
    inandouthalf42
    {
        type            cyclic;
    }
    top
    {
        type            symmetryPlane;
    }
    walls
    {
        type            zeroGradient;
    }
    frontAndBackPlanes
    {
        type            empty;
    }
}


// ************************************************************************* //
