/*--------------------------------*- C++ -*----------------------------------*\
| =========                 |                                                 |
| \\      /  F ield         | OpenFOAM: The Open Source CFD Toolbox           |
|  \\    /   O peration     | Version:  2.4.x                                 |
|   \\  /    A nd           | Web:      www.OpenFOAM.org                      |
|    \\/     M anipulation  |                                                 |
\*---------------------------------------------------------------------------*/
FoamFile
{
    version     2.0;
    format      ascii;
    class       volScalarField;
    location    "5.2";
    object      alpha_0;
}
// * * * * * * * * * * * * * * * * * * * * * * * * * * * * * * * * * * * * * //

dimensions      [0 0 0 0 0 0 0];

internalField   nonuniform List<scalar> 
360
(
0.610557
0.61123
0.611364
0.611302
0.611251
0.611226
0.611205
0.611181
0.611157
0.611132
0.611106
0.611081
0.611054
0.611029
0.611002
0.610976
0.610949
0.610922
0.610895
0.610868
0.61084
0.610812
0.610784
0.610756
0.610727
0.610698
0.610669
0.610639
0.610609
0.610578
0.610548
0.610517
0.610486
0.610455
0.610425
0.610395
0.610366
0.610336
0.610305
0.610274
0.61024
0.610202
0.61016
0.61011
0.610056
0.61
0.60995
0.609913
0.609887
0.609868
0.609853
0.609837
0.609821
0.609804
0.609786
0.609767
0.609747
0.609725
0.609702
0.609678
0.609653
0.609627
0.6096
0.609572
0.609544
0.609515
0.609485
0.609454
0.609422
0.609389
0.609354
0.609318
0.609281
0.609243
0.609204
0.609164
0.609123
0.609081
0.609039
0.608995
0.60895
0.608904
0.608857
0.608809
0.608759
0.608708
0.608656
0.608603
0.608549
0.608494
0.608437
0.60838
0.608321
0.60826
0.608198
0.608135
0.60807
0.608004
0.607936
0.607867
0.607796
0.607723
0.607648
0.607572
0.607494
0.607414
0.607331
0.607247
0.60716
0.607072
0.60698
0.606887
0.60679
0.606691
0.606589
0.606484
0.606376
0.606265
0.60615
0.606032
0.60591
0.605784
0.605654
0.60552
0.605381
0.605238
0.605089
0.604935
0.604775
0.604609
0.604435
0.604255
0.604067
0.603868
0.603658
0.603435
0.603201
0.602954
0.602679
0.602364
0.602023
0.601698
0.601311
0.60081
0.600191
0.599103
0.595642
0.531268
0.313308
0.229666
0.186401
0.152843
0.124925
0.101444
0.081918
0.0659384
0.0530433
0.042737
0.0345422
0.0280356
0.0228625
0.0187364
0.015431
0.0127697
0.0106157
0.00886289
0.007429
0.00625003
0.00527596
0.00446747
0.00379351
0.00322941
0.00275547
0.00235585
0.00201779
0.0017309
0.00148673
0.00127836
0.00110008
0.000947145
0.000815581
0.000701984
0.000603434
0.000517459
0.000442086
0.000375875
0.000317897
0.000267589
0.000224518
0.00018817
0.000157871
0.000132846
0.00011226
9.5188e-05
8.07086e-05
6.81755e-05
5.73292e-05
4.81084e-05
4.04195e-05
3.40575e-05
2.87839e-05
2.43935e-05
2.07263e-05
1.7589e-05
1.48996e-05
1.26845e-05
1.08125e-05
9.16654e-06
7.79244e-06
6.65e-06
5.6497e-06
4.80099e-06
4.08456e-06
3.45747e-06
2.93384e-06
2.48912e-06
2.08884e-06
1.76276e-06
1.49026e-06
1.24378e-06
1.04017e-06
8.68119e-07
7.20988e-07
5.98287e-07
4.88907e-07
4.01159e-07
3.27712e-07
2.62885e-07
2.11799e-07
1.68875e-07
1.33386e-07
1.03815e-07
7.8566e-08
5.83053e-08
4.7772e-08
3.69982e-08
3.6689e-08
3.42516e-08
1.99294e-09
4.15797e-21
2.01991e-21
1.47361e-21
5.63775e-22
2.71603e-22
1.54615e-22
1.02145e-22
7.69075e-23
6.38875e-23
5.57079e-23
4.79393e-23
3.80526e-23
2.54456e-23
1.15219e-23
4.71131e-24
2.32563e-24
1.33154e-24
8.57033e-25
6.13203e-25
4.60757e-25
3.20743e-25
1.67962e-25
6.99637e-26
3.42858e-26
1.85741e-26
1.07618e-26
6.52316e-27
3.62683e-27
1.69171e-27
8.43902e-28
4.31868e-28
2.19793e-28
1.08746e-28
5.31298e-29
2.54504e-29
1.19444e-29
5.48808e-30
2.46666e-30
1.08357e-30
4.64811e-31
1.94511e-31
7.93255e-32
3.14925e-32
1.21567e-32
4.55707e-33
1.65665e-33
5.83195e-34
1.98491e-34
6.52022e-35
2.06329e-35
6.27679e-36
1.83151e-36
5.11309e-37
1.36192e-37
3.4503e-38
8.28471e-39
1.87796e-39
4.00043e-40
7.96627e-41
1.47389e-41
2.51526e-42
3.92471e-43
5.53964e-44
6.97843e-45
7.71032e-46
7.29872e-47
5.72583e-48
3.5376e-49
1.57572e-50
4.17218e-52
2.82287e-54
1.33189e-57
1.69782e-59
1.07417e-61
2.56068e-72
3.04497e-83
2.57684e-94
1.60941e-105
8.37325e-117
3.51084e-128
1.29831e-139
1.20089e-148
3.87667e-159
4.13956e-167
1.2056e-177
1.42404e-185
4.9592e-196
4.89859e-204
2.15507e-214
1.68648e-222
1.40857e-232
5.86942e-241
9.27763e-251
2.07661e-259
4.63159e-269
7.46475e-278
2.19506e-287
2.72379e-296
9.66638e-306
1.01047e-314
2.72769e-319
6.80328e-321
7.09478e-321
6.08689e-321
8.5424e-321
0
0
0
0
0
0
0
0
0
0
0
0
0
0
0
0
)
;

boundaryField
{
    inandouthalf11
    {
        type            cyclic;
    }
    inandouthalf12
    {
        type            cyclic;
    }
    inandouthalf21
    {
        type            cyclic;
    }
    inandouthalf22
    {
        type            cyclic;
    }
    inandouthalf31
    {
        type            cyclic;
    }
    inandouthalf32
    {
        type            cyclic;
    }
    inandouthalf41
    {
        type            cyclic;
    }
    inandouthalf42
    {
        type            cyclic;
    }
    top
    {
        type            symmetryPlane;
    }
    walls
    {
        type            zeroGradient;
    }
    frontAndBackPlanes
    {
        type            empty;
    }
}


// ************************************************************************* //
