/*--------------------------------*- C++ -*----------------------------------*\
| =========                 |                                                 |
| \\      /  F ield         | OpenFOAM: The Open Source CFD Toolbox           |
|  \\    /   O peration     | Version:  2.4.x                                 |
|   \\  /    A nd           | Web:      www.OpenFOAM.org                      |
|    \\/     M anipulation  |                                                 |
\*---------------------------------------------------------------------------*/
FoamFile
{
    version     2.0;
    format      ascii;
    class       surfaceScalarField;
    location    "5.2";
    object      ddt0(phib);
}
// * * * * * * * * * * * * * * * * * * * * * * * * * * * * * * * * * * * * * //

dimensions      [0 3 -2 0 0 0 0];

internalField   nonuniform List<scalar> 
359
(
-1.33652e-13
-4.53978e-13
-7.68651e-13
-1.04497e-12
-1.3084e-12
-1.582e-12
-1.87149e-12
-2.17232e-12
-2.47875e-12
-2.7892e-12
-3.10503e-12
-3.42785e-12
-3.75837e-12
-4.09606e-12
-4.4402e-12
-4.79038e-12
-5.14709e-12
-5.51169e-12
-5.88632e-12
-6.27478e-12
-6.68111e-12
-7.11093e-12
-7.56964e-12
-8.06156e-12
-8.58814e-12
-9.14592e-12
-9.72437e-12
-1.03051e-11
-1.08604e-11
-1.13563e-11
-1.17589e-11
-1.20447e-11
-1.22119e-11
-1.22931e-11
-1.23597e-11
-1.25242e-11
-1.29364e-11
-1.37835e-11
-1.52976e-11
-1.77621e-11
-2.15057e-11
-2.6763e-11
-3.3256e-11
-3.93944e-11
-4.17448e-11
-3.68373e-11
-2.53588e-11
-1.30246e-11
-4.90669e-12
-1.37777e-12
-3.04389e-13
-5.46955e-14
-4.30856e-15
5.91396e-15
8.24611e-15
8.83758e-15
8.99898e-15
8.94463e-15
8.86869e-15
8.70683e-15
8.49422e-15
8.1776e-15
7.83558e-15
7.46399e-15
7.05462e-15
6.67621e-15
6.33679e-15
6.04296e-15
5.75412e-15
5.49794e-15
5.22719e-15
4.99046e-15
4.73791e-15
4.46317e-15
4.22663e-15
3.96055e-15
3.68697e-15
3.37103e-15
3.05321e-15
2.71111e-15
2.35918e-15
1.99408e-15
1.61655e-15
1.20683e-15
8.16296e-16
3.78803e-16
-7.18989e-17
-5.52711e-16
-1.00506e-15
-1.4774e-15
-1.95732e-15
-2.42999e-15
-2.9531e-15
-3.45627e-15
-3.96509e-15
-4.46576e-15
-4.99653e-15
-5.52762e-15
-6.02851e-15
-6.56027e-15
-7.10078e-15
-7.61723e-15
-8.15928e-15
-8.70259e-15
-9.24013e-15
-9.78126e-15
-1.03179e-14
-1.08561e-14
-1.13644e-14
-1.19227e-14
-1.24481e-14
-1.29832e-14
-1.35098e-14
-1.40462e-14
-1.45616e-14
-1.50739e-14
-1.55872e-14
-1.60969e-14
-1.66261e-14
-1.71571e-14
-1.76721e-14
-1.82101e-14
-1.87405e-14
-1.92676e-14
-1.97622e-14
-2.02839e-14
-2.07793e-14
-2.13043e-14
-2.18084e-14
-2.22755e-14
-2.2741e-14
-2.31759e-14
-2.35615e-14
-2.3941e-14
-2.42748e-14
-2.4615e-14
-2.49244e-14
-2.53014e-14
-2.56772e-14
-2.59341e-14
-2.61106e-14
-2.65345e-14
-2.71884e-14
-2.84323e-14
-3.66872e-14
-1.70831e-14
-7.75738e-11
1.19533e-10
-6.39841e-11
1.53251e-10
9.68114e-11
9.23889e-11
7.9747e-11
7.24013e-11
6.90782e-11
6.83473e-11
6.87399e-11
6.9196e-11
6.91256e-11
6.82621e-11
6.65056e-11
6.38894e-11
6.07858e-11
5.71157e-11
5.31296e-11
4.8965e-11
4.47354e-11
4.05408e-11
3.6457e-11
3.25384e-11
2.8821e-11
2.53257e-11
2.20617e-11
1.90292e-11
1.62227e-11
1.3633e-11
1.12492e-11
9.05804e-12
7.04009e-12
5.16332e-12
3.37863e-12
1.62742e-12
-1.32637e-13
-1.88989e-12
-3.55249e-12
-4.96284e-12
-5.95871e-12
-6.45027e-12
-6.46077e-12
-6.10369e-12
-5.52486e-12
-4.86316e-12
-4.23583e-12
-3.71068e-12
-3.28067e-12
-2.89227e-12
-2.50766e-12
-2.13149e-12
-1.78877e-12
-1.49253e-12
-1.23937e-12
-1.02545e-12
-8.54181e-13
-7.11043e-13
-5.84503e-13
-4.83384e-13
-4.05286e-13
-3.35835e-13
-2.76526e-13
-2.31055e-13
-1.9297e-13
-1.60564e-13
-1.34366e-13
-1.11679e-13
-9.3239e-14
-7.8706e-14
-6.505e-14
-5.37121e-14
-4.53321e-14
-3.77783e-14
-3.11405e-14
-2.58236e-14
-2.14766e-14
-1.79229e-14
-1.46895e-14
-1.20332e-14
-9.98068e-15
-8.11657e-15
-6.57174e-15
-5.38252e-15
-4.42139e-15
-3.62575e-15
-2.83745e-15
-2.11564e-15
-1.58316e-15
-1.68537e-15
-3.16808e-16
-9.09139e-16
-1.76295e-17
-5.51705e-16
-5.34893e-16
-5.26708e-16
-5.12906e-16
-4.93355e-16
-4.72073e-16
-4.61449e-16
-4.28826e-16
-4.00615e-16
-3.8015e-16
-3.59362e-16
-3.28474e-16
-3.04055e-16
-2.70953e-16
-2.37677e-16
-2.14956e-16
-1.7948e-16
-1.49318e-16
-1.07117e-16
-7.2157e-17
-3.21453e-17
-6.09639e-18
3.89693e-17
8.71862e-17
1.42045e-16
1.83185e-16
2.43303e-16
2.96327e-16
3.45081e-16
3.9959e-16
4.47589e-16
4.94608e-16
5.44537e-16
5.768e-16
6.21608e-16
6.60181e-16
6.87829e-16
7.10559e-16
7.3746e-16
7.48091e-16
7.66487e-16
7.8974e-16
8.06902e-16
8.09581e-16
8.05834e-16
7.93939e-16
7.70698e-16
7.42516e-16
6.91484e-16
6.69228e-16
6.31149e-16
5.80494e-16
5.06215e-16
4.36807e-16
3.53379e-16
2.65878e-16
1.71262e-16
1.04368e-16
5.27973e-17
1.36373e-18
-6.18159e-17
-1.34346e-16
-2.03088e-16
-2.72824e-16
-3.33088e-16
-4.07185e-16
-4.69841e-16
-5.40604e-16
-5.86696e-16
-6.61836e-16
-7.06902e-16
-7.4166e-16
-7.56116e-16
-8.25075e-16
-8.78675e-16
-9.36506e-16
-9.68643e-16
-1.01964e-15
-1.03022e-15
-1.04368e-15
-1.03839e-15
-1.10008e-15
-1.12623e-15
-1.1703e-15
-1.16212e-15
-1.23373e-15
-1.2792e-15
-1.40725e-15
-1.72169e-15
-2.5563e-15
-3.49593e-15
-4.51195e-15
-5.3162e-15
-6.3661e-15
-7.06466e-15
-7.77262e-15
-8.12233e-15
-9.1228e-15
-9.6513e-15
-1.01836e-14
-1.01217e-14
-1.04959e-14
-1.02987e-14
-1.01208e-14
-9.59335e-15
-9.81416e-15
-9.80367e-15
-9.82768e-15
-9.58051e-15
-9.54439e-15
-9.43112e-15
-9.33991e-15
-8.65045e-15
-9.91809e-15
-1.09092e-14
-1.20185e-14
-1.09216e-14
-1.6128e-14
-1.01562e-14
2.32968e-15
)
;

boundaryField
{
    inandouthalf11
    {
        type            cyclic;
        value           nonuniform List<scalar> 
100
(
2.94e-12
2.92016e-12
2.90327e-12
2.89251e-12
2.88257e-12
2.87182e-12
2.86031e-12
2.8482e-12
2.83565e-12
2.82283e-12
2.80972e-12
2.79623e-12
2.78232e-12
2.76796e-12
2.75318e-12
2.73801e-12
2.72243e-12
2.7064e-12
2.68984e-12
2.67265e-12
2.65464e-12
2.63562e-12
2.61535e-12
2.5936e-12
2.57024e-12
2.54525e-12
2.51889e-12
2.49173e-12
2.46471e-12
2.43914e-12
2.41652e-12
2.3982e-12
2.38483e-12
2.37592e-12
2.36926e-12
2.36087e-12
2.34487e-12
2.31368e-12
2.25775e-12
2.16507e-12
2.02099e-12
1.81038e-12
1.52885e-12
1.21218e-12
9.8048e-13
1.02994e-12
1.46373e-12
2.09569e-12
2.60026e-12
2.85142e-12
2.93538e-12
2.95633e-12
2.96099e-12
2.96229e-12
2.96292e-12
2.96346e-12
2.96397e-12
2.96452e-12
2.96508e-12
2.96566e-12
2.96628e-12
2.9669e-12
2.96756e-12
2.96822e-12
2.9689e-12
2.96959e-12
2.97031e-12
2.97106e-12
2.97183e-12
2.97263e-12
2.97348e-12
2.97436e-12
2.97526e-12
2.97619e-12
2.97715e-12
2.97813e-12
2.97912e-12
2.98014e-12
2.98118e-12
2.98224e-12
2.98333e-12
2.98445e-12
2.9856e-12
2.98678e-12
2.98799e-12
2.98922e-12
2.99049e-12
2.99178e-12
2.9931e-12
2.99445e-12
2.99582e-12
2.99723e-12
2.99867e-12
3.00014e-12
3.00165e-12
3.0032e-12
3.00478e-12
3.00641e-12
3.00807e-12
3.00977e-12
)
;
    }
    inandouthalf12
    {
        type            cyclic;
        value           nonuniform List<scalar> 
100
(
-2.94e-12
-2.92016e-12
-2.90327e-12
-2.89251e-12
-2.88257e-12
-2.87182e-12
-2.86031e-12
-2.8482e-12
-2.83565e-12
-2.82283e-12
-2.80972e-12
-2.79623e-12
-2.78232e-12
-2.76796e-12
-2.75318e-12
-2.73801e-12
-2.72243e-12
-2.7064e-12
-2.68984e-12
-2.67265e-12
-2.65464e-12
-2.63562e-12
-2.61535e-12
-2.5936e-12
-2.57024e-12
-2.54525e-12
-2.51889e-12
-2.49173e-12
-2.46471e-12
-2.43914e-12
-2.41652e-12
-2.3982e-12
-2.38483e-12
-2.37592e-12
-2.36926e-12
-2.36087e-12
-2.34487e-12
-2.31368e-12
-2.25775e-12
-2.16507e-12
-2.02099e-12
-1.81038e-12
-1.52885e-12
-1.21218e-12
-9.8048e-13
-1.02994e-12
-1.46373e-12
-2.09569e-12
-2.60026e-12
-2.85142e-12
-2.93538e-12
-2.95633e-12
-2.96099e-12
-2.96229e-12
-2.96292e-12
-2.96346e-12
-2.96397e-12
-2.96452e-12
-2.96508e-12
-2.96566e-12
-2.96628e-12
-2.9669e-12
-2.96756e-12
-2.96822e-12
-2.9689e-12
-2.96959e-12
-2.97031e-12
-2.97106e-12
-2.97183e-12
-2.97263e-12
-2.97348e-12
-2.97436e-12
-2.97526e-12
-2.97619e-12
-2.97715e-12
-2.97813e-12
-2.97912e-12
-2.98014e-12
-2.98118e-12
-2.98224e-12
-2.98333e-12
-2.98445e-12
-2.9856e-12
-2.98678e-12
-2.98799e-12
-2.98922e-12
-2.99049e-12
-2.99178e-12
-2.9931e-12
-2.99445e-12
-2.99582e-12
-2.99723e-12
-2.99867e-12
-3.00014e-12
-3.00165e-12
-3.0032e-12
-3.00478e-12
-3.00641e-12
-3.00807e-12
-3.00977e-12
)
;
    }
    inandouthalf21
    {
        type            cyclic;
        value           nonuniform List<scalar> 
100
(
3.01151e-12
3.0133e-12
3.01512e-12
3.017e-12
3.01893e-12
3.0209e-12
3.02293e-12
3.02501e-12
3.02714e-12
3.02934e-12
3.0316e-12
3.03392e-12
3.03631e-12
3.03877e-12
3.04131e-12
3.04392e-12
3.04661e-12
3.04939e-12
3.05226e-12
3.05521e-12
3.05827e-12
3.06142e-12
3.06469e-12
3.06806e-12
3.07155e-12
3.07517e-12
3.07891e-12
3.08281e-12
3.08686e-12
3.09108e-12
3.09548e-12
3.10007e-12
3.10488e-12
3.10995e-12
3.11535e-12
3.12108e-12
3.12711e-12
3.13351e-12
3.14063e-12
3.14882e-12
3.15772e-12
3.16622e-12
3.17639e-12
3.18963e-12
3.206e-12
3.20724e-12
-2.52699e-11
-1.77289e-08
-5.21458e-08
-5.00612e-08
-5.38255e-08
-5.95048e-08
-6.58615e-08
-7.23355e-08
-7.86414e-08
-8.46338e-08
-9.02493e-08
-9.54732e-08
-1.00317e-07
-1.04807e-07
-1.08972e-07
-1.12842e-07
-1.16445e-07
-1.19807e-07
-1.22948e-07
-1.25888e-07
-1.2864e-07
-1.31219e-07
-1.33634e-07
-1.35892e-07
-1.38e-07
-1.39961e-07
-1.41779e-07
-1.43454e-07
-1.44985e-07
-1.46372e-07
-1.4761e-07
-1.48696e-07
-1.49624e-07
-1.50386e-07
-1.50976e-07
-1.51384e-07
-1.51599e-07
-1.51608e-07
-1.51399e-07
-1.50956e-07
-1.50264e-07
-1.49306e-07
-1.48067e-07
-1.46531e-07
-1.44683e-07
-1.4251e-07
-1.40003e-07
-1.37153e-07
-1.33955e-07
-1.30411e-07
-1.26528e-07
-1.22322e-07
-1.17818e-07
-1.13049e-07
)
;
    }
    inandouthalf22
    {
        type            cyclic;
        value           nonuniform List<scalar> 
100
(
-3.01151e-12
-3.0133e-12
-3.01512e-12
-3.017e-12
-3.01893e-12
-3.0209e-12
-3.02293e-12
-3.02501e-12
-3.02714e-12
-3.02934e-12
-3.0316e-12
-3.03392e-12
-3.03631e-12
-3.03877e-12
-3.04131e-12
-3.04392e-12
-3.04661e-12
-3.04939e-12
-3.05226e-12
-3.05521e-12
-3.05827e-12
-3.06142e-12
-3.06469e-12
-3.06806e-12
-3.07155e-12
-3.07517e-12
-3.07891e-12
-3.08281e-12
-3.08686e-12
-3.09108e-12
-3.09548e-12
-3.10007e-12
-3.10488e-12
-3.10995e-12
-3.11535e-12
-3.12108e-12
-3.12711e-12
-3.13351e-12
-3.14063e-12
-3.14882e-12
-3.15772e-12
-3.16622e-12
-3.17639e-12
-3.18963e-12
-3.206e-12
-3.20724e-12
2.52699e-11
1.77289e-08
5.21458e-08
5.00612e-08
5.38255e-08
5.95048e-08
6.58615e-08
7.23355e-08
7.86414e-08
8.46338e-08
9.02493e-08
9.54732e-08
1.00317e-07
1.04807e-07
1.08972e-07
1.12842e-07
1.16445e-07
1.19807e-07
1.22948e-07
1.25888e-07
1.2864e-07
1.31219e-07
1.33634e-07
1.35892e-07
1.38e-07
1.39961e-07
1.41779e-07
1.43454e-07
1.44985e-07
1.46372e-07
1.4761e-07
1.48696e-07
1.49624e-07
1.50386e-07
1.50976e-07
1.51384e-07
1.51599e-07
1.51608e-07
1.51399e-07
1.50956e-07
1.50264e-07
1.49306e-07
1.48067e-07
1.46531e-07
1.44683e-07
1.4251e-07
1.40003e-07
1.37153e-07
1.33955e-07
1.30411e-07
1.26528e-07
1.22322e-07
1.17818e-07
1.13049e-07
)
;
    }
    inandouthalf31
    {
        type            cyclic;
        value           nonuniform List<scalar> 
110
(
-1.08063e-07
-1.04946e-07
-1.01435e-07
-9.75787e-08
-9.34431e-08
-8.91041e-08
-8.46443e-08
-8.01457e-08
-7.56831e-08
-7.13193e-08
-6.71009e-08
-6.30574e-08
-5.92025e-08
-5.55362e-08
-5.20483e-08
-4.8722e-08
-4.55367e-08
-4.24706e-08
-3.95026e-08
-3.66135e-08
-3.37864e-08
-3.10068e-08
-2.82631e-08
-2.55458e-08
-2.28471e-08
-2.01613e-08
-1.74835e-08
-1.48103e-08
-1.2139e-08
-9.46793e-09
-6.79617e-09
-4.12389e-09
-1.45247e-09
1.21521e-09
3.87435e-09
6.51768e-09
9.13478e-09
1.17111e-08
1.42268e-08
1.66546e-08
1.89578e-08
2.10861e-08
2.297e-08
2.45113e-08
2.55686e-08
2.59284e-08
2.52279e-08
2.264e-08
1.66592e-08
-2.55607e-09
-1.03e-08
-1.086e-08
-1.10864e-08
-1.13116e-08
-1.15412e-08
-1.17755e-08
-1.20145e-08
-1.22584e-08
-1.25072e-08
-1.27611e-08
-1.30201e-08
-1.32844e-08
-1.35541e-08
-1.38292e-08
-1.41099e-08
-1.43963e-08
-1.46885e-08
-1.49866e-08
-1.52908e-08
-1.56012e-08
-1.59178e-08
-1.62409e-08
-1.65706e-08
-1.69069e-08
-1.72501e-08
-1.76002e-08
-1.79575e-08
-1.83219e-08
-1.86938e-08
-1.90733e-08
-1.94604e-08
-1.98554e-08
-2.02584e-08
-2.06696e-08
-2.10891e-08
-2.15172e-08
-2.19539e-08
-2.23995e-08
-2.28542e-08
-2.33181e-08
-2.37914e-08
-2.42743e-08
-2.4767e-08
-2.52697e-08
-2.57826e-08
-2.63059e-08
-2.68398e-08
-2.73846e-08
-2.79405e-08
-2.85076e-08
-2.90862e-08
-2.96766e-08
-3.02789e-08
-3.08935e-08
-3.15206e-08
-3.21604e-08
-3.28131e-08
-3.34792e-08
-3.41587e-08
-3.4852e-08
)
;
    }
    inandouthalf32
    {
        type            cyclic;
        value           nonuniform List<scalar> 
110
(
1.08063e-07
1.04946e-07
1.01435e-07
9.75787e-08
9.34431e-08
8.91041e-08
8.46443e-08
8.01457e-08
7.56831e-08
7.13193e-08
6.71009e-08
6.30574e-08
5.92025e-08
5.55362e-08
5.20483e-08
4.8722e-08
4.55367e-08
4.24706e-08
3.95026e-08
3.66135e-08
3.37864e-08
3.10068e-08
2.82631e-08
2.55458e-08
2.28471e-08
2.01613e-08
1.74835e-08
1.48103e-08
1.2139e-08
9.46793e-09
6.79617e-09
4.12389e-09
1.45247e-09
-1.21521e-09
-3.87435e-09
-6.51768e-09
-9.13478e-09
-1.17111e-08
-1.42268e-08
-1.66546e-08
-1.89578e-08
-2.10861e-08
-2.297e-08
-2.45113e-08
-2.55686e-08
-2.59284e-08
-2.52279e-08
-2.264e-08
-1.66592e-08
2.55607e-09
1.03e-08
1.086e-08
1.10864e-08
1.13116e-08
1.15412e-08
1.17755e-08
1.20145e-08
1.22584e-08
1.25072e-08
1.27611e-08
1.30201e-08
1.32844e-08
1.35541e-08
1.38292e-08
1.41099e-08
1.43963e-08
1.46885e-08
1.49866e-08
1.52908e-08
1.56012e-08
1.59178e-08
1.62409e-08
1.65706e-08
1.69069e-08
1.72501e-08
1.76002e-08
1.79575e-08
1.83219e-08
1.86938e-08
1.90733e-08
1.94604e-08
1.98554e-08
2.02584e-08
2.06696e-08
2.10891e-08
2.15172e-08
2.19539e-08
2.23995e-08
2.28542e-08
2.33181e-08
2.37914e-08
2.42743e-08
2.4767e-08
2.52697e-08
2.57826e-08
2.63059e-08
2.68398e-08
2.73846e-08
2.79405e-08
2.85076e-08
2.90862e-08
2.96766e-08
3.02789e-08
3.08935e-08
3.15206e-08
3.21604e-08
3.28131e-08
3.34792e-08
3.41587e-08
3.4852e-08
)
;
    }
    inandouthalf41
    {
        type            cyclic;
        value           nonuniform List<scalar> 
50
(
-3.11961e-08
-3.11961e-08
-3.11961e-08
-3.11961e-08
-3.11961e-08
-3.11961e-08
-3.11961e-08
-3.11961e-08
-3.11961e-08
-3.11961e-08
-3.11961e-08
-3.11961e-08
-3.11961e-08
-3.11961e-08
-3.11961e-08
-3.11961e-08
-3.11961e-08
-3.11961e-08
-3.11961e-08
-3.11961e-08
-3.11961e-08
-3.11961e-08
-3.11961e-08
-3.11961e-08
-3.11961e-08
-3.11961e-08
-3.11961e-08
-3.11961e-08
-3.11961e-08
-3.11961e-08
-3.11961e-08
-3.11961e-08
-3.11961e-08
-3.11961e-08
-3.11961e-08
-3.11961e-08
-3.11961e-08
-3.11961e-08
-3.11961e-08
-3.11961e-08
-3.11961e-08
-3.11961e-08
-3.11961e-08
-3.11961e-08
-3.11961e-08
-3.11961e-08
-3.11961e-08
-3.11961e-08
-3.11961e-08
-3.11961e-08
)
;
    }
    inandouthalf42
    {
        type            cyclic;
        value           nonuniform List<scalar> 
50
(
3.11961e-08
3.11961e-08
3.11961e-08
3.11961e-08
3.11961e-08
3.11961e-08
3.11961e-08
3.11961e-08
3.11961e-08
3.11961e-08
3.11961e-08
3.11961e-08
3.11961e-08
3.11961e-08
3.11961e-08
3.11961e-08
3.11961e-08
3.11961e-08
3.11961e-08
3.11961e-08
3.11961e-08
3.11961e-08
3.11961e-08
3.11961e-08
3.11961e-08
3.11961e-08
3.11961e-08
3.11961e-08
3.11961e-08
3.11961e-08
3.11961e-08
3.11961e-08
3.11961e-08
3.11961e-08
3.11961e-08
3.11961e-08
3.11961e-08
3.11961e-08
3.11961e-08
3.11961e-08
3.11961e-08
3.11961e-08
3.11961e-08
3.11961e-08
3.11961e-08
3.11961e-08
3.11961e-08
3.11961e-08
3.11961e-08
3.11961e-08
)
;
    }
    top
    {
        type            symmetryPlane;
        value           uniform 0;
    }
    walls
    {
        type            calculated;
        value           uniform 0;
    }
    frontAndBackPlanes
    {
        type            empty;
        value           nonuniform 0();
    }
}


// ************************************************************************* //
