/*--------------------------------*- C++ -*----------------------------------*\
| =========                 |                                                 |
| \\      /  F ield         | OpenFOAM: The Open Source CFD Toolbox           |
|  \\    /   O peration     | Version:  2.4.x                                 |
|   \\  /    A nd           | Web:      www.OpenFOAM.org                      |
|    \\/     M anipulation  |                                                 |
\*---------------------------------------------------------------------------*/
FoamFile
{
    version     2.0;
    format      ascii;
    class       volVectorField;
    location    "5.2";
    object      ddt0(Ua);
}
// * * * * * * * * * * * * * * * * * * * * * * * * * * * * * * * * * * * * * //

dimensions      [0 1 -2 0 0 0 0];

internalField   nonuniform List<vector> 
360
(
(-1.51611e-34 -7.48034e-33 0)
(9.02348e-09 4.29729e-08 0)
(2.24932e-08 1.0017e-07 0)
(3.46349e-08 1.46323e-07 0)
(4.58303e-08 1.87721e-07 0)
(5.72228e-08 2.30004e-07 0)
(6.92926e-08 2.75088e-07 0)
(8.1998e-08 3.22522e-07 0)
(9.51351e-08 3.71199e-07 0)
(1.08575e-07 4.20489e-07 0)
(1.22325e-07 4.70468e-07 0)
(1.36454e-07 5.21468e-07 0)
(1.51016e-07 5.73711e-07 0)
(1.66021e-07 6.27192e-07 0)
(1.81447e-07 6.81764e-07 0)
(1.97276e-07 7.37314e-07 0)
(2.13519e-07 7.93852e-07 0)
(2.30215e-07 8.51516e-07 0)
(2.47441e-07 9.10587e-07 0)
(2.65318e-07 9.71535e-07 0)
(2.84007e-07 1.03498e-06 0)
(3.03718e-07 1.10171e-06 0)
(3.24687e-07 1.17267e-06 0)
(3.47139e-07 1.24867e-06 0)
(3.71223e-07 1.33028e-06 0)
(3.96934e-07 1.4174e-06 0)
(4.24027e-07 1.509e-06 0)
(4.51935e-07 1.60284e-06 0)
(4.79707e-07 1.69519e-06 0)
(5.06029e-07 1.78096e-06 0)
(5.29396e-07 1.85437e-06 0)
(5.48467e-07 1.91037e-06 0)
(5.62554e-07 1.9464e-06 0)
(5.72186e-07 1.96453e-06 0)
(5.79541e-07 1.97294e-06 0)
(5.88646e-07 1.98643e-06 0)
(6.0536e-07 2.02613e-06 0)
(6.37305e-07 2.11891e-06 0)
(6.9405e-07 2.29789e-06 0)
(7.87586e-07 2.6041e-06 0)
(9.32612e-07 3.08815e-06 0)
(1.14428e-06 3.80437e-06 0)
(1.42705e-06 4.77481e-06 0)
(1.74538e-06 5.8907e-06 0)
(1.97924e-06 6.74777e-06 0)
(1.93211e-06 6.64403e-06 0)
(1.49971e-06 5.16962e-06 0)
(8.67466e-07 2.96829e-06 0)
(3.61825e-07 1.21726e-06 0)
(1.09996e-07 3.61039e-07 0)
(2.59688e-08 8.23485e-08 0)
(5.28464e-09 1.5553e-08 0)
(9.86083e-10 2.02818e-09 0)
(1.10751e-10 -6.59452e-10 0)
(-8.47552e-11 -1.24659e-09 0)
(-1.34402e-10 -1.39293e-09 0)
(-1.47282e-10 -1.43033e-09 0)
(-1.48411e-10 -1.43354e-09 0)
(-1.44075e-10 -1.4211e-09 0)
(-1.35696e-10 -1.39727e-09 0)
(-1.23326e-10 -1.36239e-09 0)
(-1.06852e-10 -1.31642e-09 0)
(-8.65706e-11 -1.26053e-09 0)
(-6.33756e-11 -1.19754e-09 0)
(-3.86042e-11 -1.13136e-09 0)
(-1.36541e-11 -1.06588e-09 0)
(1.03879e-11 -1.00393e-09 0)
(3.29326e-11 -9.46892e-10 0)
(5.38697e-11 -8.94832e-10 0)
(7.34392e-11 -8.46927e-10 0)
(9.20792e-11 -8.01883e-10 0)
(1.10286e-10 -7.58319e-10 0)
(1.28521e-10 -7.15029e-10 0)
(1.47178e-10 -6.71013e-10 0)
(1.66573e-10 -6.25497e-10 0)
(1.8693e-10 -5.77964e-10 0)
(2.08385e-10 -5.28132e-10 0)
(2.31007e-10 -4.75904e-10 0)
(2.5482e-10 -4.21271e-10 0)
(2.79832e-10 -3.64276e-10 0)
(3.06042e-10 -3.04977e-10 0)
(3.33459e-10 -2.43411e-10 0)
(3.62105e-10 -1.79575e-10 0)
(3.92009e-10 -1.13455e-10 0)
(4.23193e-10 -4.50541e-11 0)
(4.55662e-10 2.55881e-11 0)
(4.89399e-10 9.83753e-11 0)
(5.24354e-10 1.73146e-10 0)
(5.60452e-10 2.49684e-10 0)
(5.97606e-10 3.27752e-10 0)
(6.35726e-10 4.07116e-10 0)
(6.74729e-10 4.87565e-10 0)
(7.14552e-10 5.68934e-10 0)
(7.55148e-10 6.51102e-10 0)
(7.96489e-10 7.33983e-10 0)
(8.38554e-10 8.17512e-10 0)
(8.8133e-10 9.01635e-10 0)
(9.24804e-10 9.86299e-10 0)
(9.68959e-10 1.07144e-09 0)
(1.01378e-09 1.15701e-09 0)
(1.05924e-09 1.24292e-09 0)
(1.10532e-09 1.3291e-09 0)
(1.152e-09 1.41549e-09 0)
(1.19926e-09 1.50202e-09 0)
(1.24707e-09 1.5886e-09 0)
(1.29541e-09 1.67517e-09 0)
(1.34426e-09 1.76165e-09 0)
(1.39359e-09 1.84795e-09 0)
(1.44337e-09 1.93402e-09 0)
(1.4936e-09 2.01977e-09 0)
(1.54424e-09 2.10514e-09 0)
(1.59529e-09 2.19006e-09 0)
(1.64674e-09 2.2745e-09 0)
(1.69861e-09 2.35842e-09 0)
(1.75091e-09 2.4418e-09 0)
(1.80368e-09 2.52466e-09 0)
(1.85697e-09 2.607e-09 0)
(1.91087e-09 2.6889e-09 0)
(1.96547e-09 2.77041e-09 0)
(2.0209e-09 2.85162e-09 0)
(2.07729e-09 2.93264e-09 0)
(2.13478e-09 3.01354e-09 0)
(2.19353e-09 3.09437e-09 0)
(2.25363e-09 3.17514e-09 0)
(2.31514e-09 3.25573e-09 0)
(2.37805e-09 3.33593e-09 0)
(2.44223e-09 3.4154e-09 0)
(2.50745e-09 3.49365e-09 0)
(2.57333e-09 3.57005e-09 0)
(2.6393e-09 3.64382e-09 0)
(2.70467e-09 3.71406e-09 0)
(2.76865e-09 3.77989e-09 0)
(2.83054e-09 3.84059e-09 0)
(2.88995e-09 3.89587e-09 0)
(2.94681e-09 3.94586e-09 0)
(3.0013e-09 3.99086e-09 0)
(3.05373e-09 4.03121e-09 0)
(3.10464e-09 4.06731e-09 0)
(3.15465e-09 4.09973e-09 0)
(3.20363e-09 4.12876e-09 0)
(3.24884e-09 4.15312e-09 0)
(3.28475e-09 4.16986e-09 0)
(3.30787e-09 4.17852e-09 0)
(3.31974e-09 4.18175e-09 0)
(3.32498e-09 4.1823e-09 0)
(3.32792e-09 4.18166e-09 0)
(3.33194e-09 4.18033e-09 0)
(0.0161029 0.000150695 0)
(0.0493445 -0.000368454 0)
(0.0510965 0.000114863 0)
(0.0545042 -0.000151576 0)
(0.0599749 -0.000203711 0)
(0.066281 -0.000249231 0)
(0.0727947 -0.000285957 0)
(0.0791796 -0.000328591 0)
(0.0852535 -0.000378707 0)
(0.0909278 -0.000437149 0)
(0.0961718 -0.000504651 0)
(0.10099 -0.000581667 0)
(0.105402 -0.000668379 0)
(0.109438 -0.000763942 0)
(0.113124 -0.000867133 0)
(0.116485 -0.000979209 0)
(0.119544 -0.00109872 0)
(0.122319 -0.00122332 0)
(0.124824 -0.0013528 0)
(0.127069 -0.00148654 0)
(0.129062 -0.00162389 0)
(0.130807 -0.00176448 0)
(0.132305 -0.00190808 0)
(0.133555 -0.00205452 0)
(0.134553 -0.00220359 0)
(0.135296 -0.00235493 0)
(0.135778 -0.00250788 0)
(0.135997 -0.00266144 0)
(0.135949 -0.0028142 0)
(0.135634 -0.00296435 0)
(0.135054 -0.00310961 0)
(0.134212 -0.00324695 0)
(0.133117 -0.00337141 0)
(0.131779 -0.00347386 0)
(0.130216 -0.00353815 0)
(0.128451 -0.00353978 0)
(0.126514 -0.00344877 0)
(0.124446 -0.00323828 0)
(0.122298 -0.00289669 0)
(0.120122 -0.00243713 0)
(0.11797 -0.00189768 0)
(0.115884 -0.00133072 0)
(0.113894 -0.000786956 0)
(0.112014 -0.000303715 0)
(0.110245 9.85619e-05 0)
(0.108584 0.000416779 0)
(0.107023 0.000665454 0)
(0.105565 0.000870021 0)
(0.104217 0.0010515 0)
(0.102985 0.00121587 0)
(0.10187 0.00135796 0)
(0.100861 0.00147227 0)
(0.0999484 0.00155925 0)
(0.0991191 0.0016227 0)
(0.0983536 0.00166577 0)
(0.0976368 0.00169212 0)
(0.0969675 0.0017086 0)
(0.096342 0.00171781 0)
(0.095749 0.00171734 0)
(0.095186 0.00171115 0)
(0.0946563 0.00170529 0)
(0.0941501 0.00169724 0)
(0.0936594 0.00168585 0)
(0.0931873 0.0016758 0)
(0.0927301 0.00166732 0)
(0.092283 0.00165971 0)
(0.0918458 0.00165498 0)
(0.0914117 0.00165127 0)
(0.090981 0.00164957 0)
(0.0905581 0.00165373 0)
(0.0901293 0.00165861 0)
(0.0896921 0.00166291 0)
(0.089257 0.00167305 0)
(0.0888166 0.00168646 0)
(0.0883645 0.00170028 0)
(0.0879028 0.00171614 0)
(0.0874338 0.00173508 0)
(0.0869601 0.0017599 0)
(0.0864726 0.00178622 0)
(0.0859727 0.00181336 0)
(0.0854682 0.00184758 0)
(0.0849505 0.00188327 0)
(0.0844201 0.00191817 0)
(0.083885 0.00195616 0)
(0.0833528 0.00199957 0)
(0.0828326 0.0020566 0)
(0.0822973 0.0021007 0)
(0.0817299 0.00207608 0)
(0.0811399 0.00191551 0)
(0.0803769 0.00173645 0)
(-0.00571071 -0.0143754 0)
(-0.00716893 0.0245614 0)
(-0.00635089 0.0242254 0)
(-0.0105698 0.000547544 0)
(-0.00924127 2.13124e-05 0)
(-0.0100652 5.59367e-05 0)
(-0.0104313 4.7237e-05 0)
(-0.0105896 3.84711e-05 0)
(-0.0104236 2.4958e-05 0)
(-0.0098196 1.53691e-06 0)
(-0.00882972 -4.90076e-05 0)
(-0.00408274 -0.000131849 0)
(0.00193954 -0.00012526 0)
(0.0038662 -3.41718e-05 0)
(0.00394689 -1.4252e-06 0)
(0.00394832 5.47029e-08 0)
(0.00394825 -7.37164e-09 0)
(0.00394827 -4.33463e-09 0)
(0.00394827 -3.59841e-09 0)
(0.00394828 -4.58844e-09 0)
(0.00394829 -3.5412e-09 0)
(0.00394829 -4.63091e-09 0)
(0.00394829 -3.49607e-09 0)
(0.0039483 -4.67126e-09 0)
(0.0039483 -3.44796e-09 0)
(0.0039483 -4.71315e-09 0)
(0.0039483 -3.39287e-09 0)
(0.0039483 -4.75637e-09 0)
(0.0039483 -3.33299e-09 0)
(0.0039483 -4.80239e-09 0)
(0.0039483 -3.26846e-09 0)
(0.00394831 -4.85614e-09 0)
(0.00394831 -3.27833e-09 0)
(0.00394831 -4.69128e-09 0)
(0.00394831 -3.33369e-09 0)
(0.00394831 -4.81236e-09 0)
(0.00394831 -3.20697e-09 0)
(0.00394831 -4.86678e-09 0)
(0.00394831 -3.13456e-09 0)
(0.00394831 -4.93155e-09 0)
(0.00394831 -3.06202e-09 0)
(0.00394831 -4.99982e-09 0)
(0.00394831 -2.98612e-09 0)
(0.00394831 -5.07196e-09 0)
(0.00394831 -2.90626e-09 0)
(0.00394831 -5.14915e-09 0)
(0.00394831 -2.82435e-09 0)
(0.00394831 -5.23367e-09 0)
(0.00394831 -2.74193e-09 0)
(0.00394831 -5.32559e-09 0)
(0.00394831 -2.65783e-09 0)
(0.00394831 -5.42408e-09 0)
(0.00394831 -2.57094e-09 0)
(0.00394831 -5.52748e-09 0)
(0.00394831 -2.48298e-09 0)
(0.00394831 -5.63973e-09 0)
(0.00394831 -2.39479e-09 0)
(0.00394831 -5.75888e-09 0)
(0.00394831 -2.30419e-09 0)
(0.00394831 -5.88274e-09 0)
(0.00394831 -2.20629e-09 0)
(0.00394831 -6.00664e-09 0)
(0.00394831 -2.10217e-09 0)
(0.00394831 -6.13552e-09 0)
(0.00394831 -1.99578e-09 0)
(0.00394831 -6.27025e-09 0)
(0.00394831 -1.88533e-09 0)
(0.00394831 -6.40821e-09 0)
(0.00394831 -1.77115e-09 0)
(0.00394831 -6.54845e-09 0)
(0.00394831 -1.65463e-09 0)
(0.00394831 -6.68898e-09 0)
(0.00394831 -1.52087e-09 0)
(0.00394831 -6.47896e-09 0)
(0.00394831 -1.81997e-09 0)
(0.00394831 -6.50109e-09 0)
(0.00394831 -1.8145e-09 0)
(0.00394831 -6.52618e-09 0)
(0.00394831 -1.80957e-09 0)
(0.00394831 -6.5493e-09 0)
(0.00394831 -1.80119e-09 0)
(0.00394831 -6.56855e-09 0)
(0.00394831 -1.78842e-09 0)
(0.00394831 -6.58735e-09 0)
(0.00394831 -1.78072e-09 0)
(0.00394831 -6.60883e-09 0)
(0.00394831 -1.77255e-09 0)
(0.00394831 -6.62786e-09 0)
(0.00394831 -1.76815e-09 0)
(0.00394831 -6.65555e-09 0)
(0.00394831 -1.7858e-09 0)
(0.00394831 -6.74718e-09 0)
(0.00394831 -1.91463e-09 0)
(0.00394831 -6.93796e-09 0)
(0.00394831 -2.08791e-09 0)
(0.00394831 -7.12817e-09 0)
(0.00394831 -2.25267e-09 0)
(0.00394831 -7.29181e-09 0)
(0.00394831 -2.3689e-09 0)
(0.00394831 -7.42374e-09 0)
(0.00394831 -2.50056e-09 0)
(0.00394831 -7.55905e-09 0)
(0.00394831 -2.57322e-09 0)
(0.00394831 -7.61302e-09 0)
(0.00394831 -2.59792e-09 0)
(0.00394831 -7.61996e-09 0)
(0.00394831 -2.54587e-09 0)
(0.00394831 -7.58795e-09 0)
(0.00394831 -2.55605e-09 0)
(0.00394831 -7.62843e-09 0)
(0.00394831 -2.55351e-09 0)
(0.00394831 -7.62675e-09 0)
(0.00394831 -2.55231e-09 0)
(0.00394831 -7.6346e-09 0)
(0.00394831 -2.53161e-09 0)
(0.00394831 -7.6729e-09 0)
(0.00394831 -2.68799e-09 0)
(0.00394831 -7.89282e-09 0)
(0.00394831 -2.75041e-09 0)
(0.00394831 -1.34736e-08 0)
(0.00394832 -8.51185e-07 0)
(0.00394858 -7.84583e-05 0)
(0.00395504 -8.39461e-05 0)
)
;

boundaryField
{
    inandouthalf11
    {
        type            cyclic;
    }
    inandouthalf12
    {
        type            cyclic;
    }
    inandouthalf21
    {
        type            cyclic;
    }
    inandouthalf22
    {
        type            cyclic;
    }
    inandouthalf31
    {
        type            cyclic;
    }
    inandouthalf32
    {
        type            cyclic;
    }
    inandouthalf41
    {
        type            cyclic;
    }
    inandouthalf42
    {
        type            cyclic;
    }
    top
    {
        type            symmetryPlane;
    }
    walls
    {
        type            calculated;
        value           uniform (0 0 0);
    }
    frontAndBackPlanes
    {
        type            empty;
    }
}


// ************************************************************************* //
