/*--------------------------------*- C++ -*----------------------------------*\
| =========                 |                                                 |
| \\      /  F ield         | OpenFOAM: The Open Source CFD Toolbox           |
|  \\    /   O peration     | Version:  2.4.x                                 |
|   \\  /    A nd           | Web:      www.OpenFOAM.org                      |
|    \\/     M anipulation  |                                                 |
\*---------------------------------------------------------------------------*/
FoamFile
{
    version     2.0;
    format      ascii;
    class       volScalarField;
    location    "5.2";
    object      epsilon_0;
}
// * * * * * * * * * * * * * * * * * * * * * * * * * * * * * * * * * * * * * //

dimensions      [0 2 -3 0 0 0 0];

internalField   nonuniform List<scalar> 
360
(
1.60309e-27
1e-20
1e-20
1e-20
1e-20
1e-20
1e-20
1e-20
1e-20
1e-20
1e-20
1e-20
1e-20
1e-20
1e-20
1e-20
1e-20
1e-20
1e-20
1e-20
1e-20
1e-20
1e-20
1e-20
1e-20
1e-20
1e-20
1e-20
1e-20
1e-20
1e-20
1e-20
1e-20
1e-20
1e-20
1e-20
1e-20
1e-20
1e-20
1e-20
1e-20
1e-20
1e-20
1e-20
1e-20
1e-20
1e-20
1e-20
1e-20
1e-20
1e-20
1e-20
1e-20
1e-20
1e-20
1e-20
1e-20
1e-20
1e-20
1e-20
1e-20
1e-20
1e-20
1e-20
1e-20
1e-20
1e-20
1e-20
1e-20
1e-20
1e-20
1e-20
1e-20
1e-20
1e-20
1e-20
1e-20
1e-20
1e-20
1e-20
1e-20
1e-20
1e-20
1e-20
1e-20
1e-20
1e-20
1e-20
1e-20
1e-20
1e-20
1e-20
1e-20
1e-20
1e-20
1e-20
1e-20
1e-20
1e-20
1e-20
1e-20
1e-20
1e-20
1e-20
1e-20
1e-20
1e-20
1e-20
1e-20
1e-20
1e-20
1e-20
1e-20
1e-20
1e-20
1e-20
1e-20
1e-20
1e-20
1e-20
1e-20
1e-20
1e-20
1e-20
1e-20
1e-20
1e-20
1e-20
1e-20
1e-20
1e-20
1e-20
3.30632e-20
1.81496e-19
1.10606e-18
7.35281e-18
5.4159e-17
4.49622e-16
4.27702e-15
4.73324e-14
6.17857e-13
9.63912e-12
1.8207e-10
4.20876e-09
1.20055e-07
4.25397e-06
0.000185468
0.00750034
0.0930556
0.171282
0.180578
0.173569
0.161813
0.149053
0.1367
0.125281
0.114944
0.105672
0.097383
0.0899699
0.083325
0.0773482
0.0719506
0.067055
0.062595
0.0585144
0.054765
0.0513062
0.0481034
0.045127
0.0423519
0.0397564
0.0373221
0.035033
0.0328754
0.0308376
0.0289092
0.0270815
0.0253468
0.0236986
0.0221311
0.0206395
0.0192196
0.0178678
0.0165813
0.0153575
0.0141943
0.01309
0.0120434
0.0110532
0.0101186
0.0092388
0.00841324
0.00764127
0.00692227
0.0062555
0.00564014
0.00507514
0.00455923
0.00409088
0.00366824
0.00328532
0.00293786
0.00262533
0.00234668
0.00210039
0.00188455
0.00169688
0.00153492
0.00139605
0.00127766
0.00117723
0.00109237
0.0010209
0.000960836
0.000910426
0.000868121
0.000832566
0.000802576
0.000777112
0.000755266
0.000736234
0.000719308
0.000703855
0.000689308
0.000675159
0.000660952
0.000646276
0.000630763
0.000614085
0.000595952
0.000576115
0.000554364
0.000530527
0.000504478
0.000476138
0.000445479
0.000412529
0.000377384
0.000340218
0.000301294
0.000260982
0.000219789
0.000178381
0.000137632
9.86864e-05
6.30469e-05
3.27468e-05
1.04446e-05
1.11531e-06
2.96325e-08
4.68673e-10
6.86785e-12
9.50073e-14
1.2416e-15
1.53429e-17
1.87056e-19
1.09146e-20
1e-20
1e-20
1e-20
1e-20
1e-20
1e-20
1e-20
1e-20
1e-20
1e-20
1e-20
1e-20
1e-20
1e-20
1e-20
1e-20
1e-20
1e-20
1e-20
1e-20
1e-20
1e-20
1e-20
1e-20
1e-20
1e-20
1e-20
1e-20
1e-20
1e-20
1e-20
1e-20
1e-20
1e-20
1e-20
1e-20
1e-20
1e-20
1e-20
1e-20
1e-20
1e-20
1e-20
1e-20
1e-20
1e-20
1e-20
1e-20
1e-20
1e-20
1e-20
1e-20
1e-20
1e-20
1e-20
1e-20
1e-20
1e-20
1e-20
1e-20
1e-20
1e-20
1e-20
1e-20
1e-20
1e-20
1e-20
1e-20
1e-20
1e-20
1e-20
1e-20
1e-20
1e-20
1e-20
1e-20
1e-20
1e-20
1e-20
1e-20
1e-20
1e-20
1e-20
1e-20
1e-20
1e-20
1e-20
1e-20
1e-20
1e-20
1e-20
1e-20
1e-20
1e-20
1e-20
1e-20
1e-20
1e-20
1e-20
1e-20
1e-20
1e-20
)
;

boundaryField
{
    inandouthalf11
    {
        type            cyclic;
    }
    inandouthalf12
    {
        type            cyclic;
    }
    inandouthalf21
    {
        type            cyclic;
    }
    inandouthalf22
    {
        type            cyclic;
    }
    inandouthalf31
    {
        type            cyclic;
    }
    inandouthalf32
    {
        type            cyclic;
    }
    inandouthalf41
    {
        type            cyclic;
    }
    inandouthalf42
    {
        type            cyclic;
    }
    top
    {
        type            symmetryPlane;
    }
    walls
    {
        type            zeroGradient;
    }
    frontAndBackPlanes
    {
        type            empty;
    }
}


// ************************************************************************* //
