/*--------------------------------*- C++ -*----------------------------------*\
| =========                 |                                                 |
| \\      /  F ield         | OpenFOAM: The Open Source CFD Toolbox           |
|  \\    /   O peration     | Version:  2.4.x                                 |
|   \\  /    A nd           | Web:      www.OpenFOAM.org                      |
|    \\/     M anipulation  |                                                 |
\*---------------------------------------------------------------------------*/
FoamFile
{
    version     2.0;
    format      ascii;
    class       volVectorField;
    location    "5.2";
    object      gradPs;
}
// * * * * * * * * * * * * * * * * * * * * * * * * * * * * * * * * * * * * * //

dimensions      [0 1 -2 0 0 0 0];

internalField   nonuniform List<vector> 
360
(
(0 1.71995e-18 0)
(0 1.78882e-18 0)
(0 -1.28741e-19 0)
(0 -2.70258e-19 0)
(-2.90274e-32 -8.43454e-20 0)
(-1.45143e-32 -3.65496e-20 0)
(-1.45148e-32 -5.84676e-20 0)
(0 -7.44032e-20 0)
(-1.45159e-32 -7.88279e-20 0)
(0 -7.91563e-20 0)
(-1.45171e-32 -7.70213e-20 0)
(0 -7.57034e-20 0)
(-1.45184e-32 -7.6257e-20 0)
(0 -7.75287e-20 0)
(0 -7.90595e-20 0)
(0 -8.01964e-20 0)
(0 -8.08546e-20 0)
(-2.9043e-32 -8.11754e-20 0)
(0 -8.18495e-20 0)
(0 -8.17037e-20 0)
(0 -8.09203e-20 0)
(-1.45241e-32 -7.97282e-20 0)
(0 -7.72662e-20 0)
(0 -7.45867e-20 0)
(0 -7.19181e-20 0)
(-1.45268e-32 -6.95382e-20 0)
(0 -6.91463e-20 0)
(0 -7.20128e-20 0)
(0 -7.92913e-20 0)
(0 -9.21377e-20 0)
(0 -1.10607e-19 0)
(0 -1.3082e-19 0)
(0 -1.50457e-19 0)
(0 -1.63398e-19 0)
(0 -1.63544e-19 0)
(1.4534e-32 -1.47393e-19 0)
(0 -1.09931e-19 0)
(0 -4.74372e-20 0)
(0 5.46996e-20 0)
(0 2.18446e-19 0)
(0 4.83054e-19 0)
(0 8.79173e-19 0)
(1.45397e-32 1.29998e-18 0)
(0 1.28262e-18 0)
(0 1.54381e-19 0)
(0 -1.75503e-18 0)
(0 -2.69449e-18 0)
(0 -1.92856e-18 0)
(0 -7.62842e-19 0)
(0 -1.98328e-19 0)
(2.9094e-32 -6.91732e-20 0)
(0 -5.61385e-20 0)
(0 -5.82021e-20 0)
(0 -6.14434e-20 0)
(0 -6.60832e-20 0)
(0 -7.03147e-20 0)
(0 -7.4168e-20 0)
(0 -7.90623e-20 0)
(0 -8.1763e-20 0)
(0 -8.67487e-20 0)
(0 -9.06224e-20 0)
(0 -9.33508e-20 0)
(0 -9.64343e-20 0)
(0 -9.83354e-20 0)
(0 -1.00702e-19 0)
(0 -1.0361e-19 0)
(0 -1.07349e-19 0)
(0 -1.10872e-19 0)
(0 -1.14218e-19 0)
(0 -1.19182e-19 0)
(0 -1.24853e-19 0)
(0 -1.27842e-19 0)
(0 -1.31607e-19 0)
(0 -1.3591e-19 0)
(0 -1.39277e-19 0)
(0 -1.42086e-19 0)
(0 -1.44369e-19 0)
(0 -1.47735e-19 0)
(0 -1.51282e-19 0)
(0 -1.54667e-19 0)
(0 -1.5851e-19 0)
(0 -1.62958e-19 0)
(0 -1.67205e-19 0)
(0 -1.71418e-19 0)
(0 -1.75518e-19 0)
(0 -1.79499e-19 0)
(0 -1.83294e-19 0)
(0 -1.86904e-19 0)
(0 -1.90731e-19 0)
(0 -1.94717e-19 0)
(0 -1.9882e-19 0)
(0 -2.03222e-19 0)
(0 -2.07874e-19 0)
(0 -2.12626e-19 0)
(0 -2.17492e-19 0)
(0 -2.2245e-19 0)
(0 -2.27474e-19 0)
(0 -2.32587e-19 0)
(0 -2.37836e-19 0)
(0 -2.43245e-19 0)
(0 -2.4883e-19 0)
(0 -2.54623e-19 0)
(0 -2.60631e-19 0)
(0 -2.66848e-19 0)
(0 -2.7329e-19 0)
(0 -2.79969e-19 0)
(0 -2.86901e-19 0)
(0 -2.94106e-19 0)
(0 -3.01605e-19 0)
(0 -3.09414e-19 0)
(0 -3.1755e-19 0)
(0 -3.26031e-19 0)
(0 -3.34872e-19 0)
(0 -3.44091e-19 0)
(0 -3.53707e-19 0)
(0 -3.63739e-19 0)
(0 -3.7421e-19 0)
(0 -3.85145e-19 0)
(0 -3.9657e-19 0)
(0 -4.08515e-19 0)
(0 -4.21004e-19 0)
(0 -4.34058e-19 0)
(0 -4.47698e-19 0)
(0 -4.61966e-19 0)
(0 -4.76966e-19 0)
(0 -4.92894e-19 0)
(0 -5.10035e-19 0)
(0 -5.2865e-19 0)
(0 -5.48755e-19 0)
(0 -5.69992e-19 0)
(0 -5.90922e-19 0)
(0 2.2215e-16 0)
(0 1.70819e-15 0)
(0 9.66098e-15 0)
(0 5.60097e-14 0)
(0 3.53822e-13 0)
(0 2.48374e-12 0)
(0 1.97199e-11 0)
(0 1.80018e-10 0)
(0 1.91706e-09 0)
(0 2.41462e-08 0)
(0 3.65127e-07 0)
(0 6.78158e-06 0)
(0 0.00020436 0)
(0 0.014043 0)
(0 0.443213 0)
(0 3.39753 0)
(0 3.00573 0)
(0 -1.19288 0)
(0 -2.25286 0)
(0 -3.18275 0)
(0 -3.32736 0)
(0 -3.27744 0)
(0 -3.17409 0)
(0 -3.05577 0)
(0 -2.93803 0)
(0 -2.82678 0)
(0 -2.7237 0)
(0 -2.62869 0)
(0 -2.54098 0)
(0 -2.45967 0)
(0 -2.38392 0)
(0 -2.31298 0)
(0 -2.24623 0)
(0 -2.18311 0)
(0 -2.12317 0)
(0 -2.06604 0)
(0 -2.01139 0)
(0 -1.95895 0)
(0 -1.90848 0)
(0 -1.85982 0)
(0 -1.81281 0)
(0 -1.76736 0)
(0 -1.7234 0)
(0 -1.68089 0)
(0 -1.63983 0)
(0 -1.60026 0)
(0 -1.56225 0)
(0 -1.52602 0)
(0 -1.49213 0)
(0 -1.46168 0)
(0 -1.43649 0)
(0 -1.41871 0)
(0 -1.40981 0)
(0 -1.40932 0)
(0 -1.41373 0)
(0 -1.41671 0)
(0 -1.41088 0)
(0 -1.39066 0)
(0 -1.35431 0)
(0 -1.30336 0)
(0 -1.24172 0)
(0 -1.17848 0)
(0 -1.12832 0)
(0 -1.09982 0)
(0 -1.0838 0)
(0 -1.06091 0)
(0 -1.01924 0)
(0 -0.961871 0)
(0 -0.898959 0)
(0 -0.833182 0)
(0 -0.762506 0)
(-3.0489e-16 -0.697274 0)
(0 -0.642561 0)
(0 -0.580097 0)
(1.94418e-16 -0.513874 0)
(0 -0.465352 0)
(-1.10522e-16 -0.418991 0)
(0 -0.364118 0)
(1.22219e-16 -0.319853 0)
(0 -0.283159 0)
(0 -0.244706 0)
(0 -0.212606 0)
(6.97707e-17 -0.183604 0)
(0 -0.155019 0)
(0 -0.134278 0)
(0 -0.114539 0)
(0 -0.0935225 0)
(0 -0.0793249 0)
(0 -0.0671661 0)
(0 -0.0547036 0)
(-1.8392e-17 -0.0450423 0)
(0 -0.0367956 0)
(-9.05871e-18 -0.0303028 0)
(0 -0.0246417 0)
(0 -0.0193024 0)
(0 -0.0156242 0)
(0 -0.012375 0)
(2.12574e-18 -0.00947171 0)
(2.09225e-18 -0.00736774 0)
(0 -0.00565546 0)
(0 -0.00433326 0)
(0 -0.00323811 0)
(0 -0.00214191 0)
(0 -0.00144721 0)
(0 -0.00140998 0)
(0 -0.000746657 0)
(0 0 0)
(0 0 0)
(0 0 0)
(0 0 0)
(0 0 0)
(0 0 0)
(0 0 0)
(0 0 0)
(0 0 0)
(0 0 0)
(0 0 0)
(0 0 0)
(0 0 0)
(0 0 0)
(0 0 0)
(0 0 0)
(0 0 0)
(0 0 0)
(0 0 0)
(0 0 0)
(0 0 0)
(0 0 0)
(0 0 0)
(0 0 0)
(0 0 0)
(0 0 0)
(0 0 0)
(0 0 0)
(0 0 0)
(0 0 0)
(0 0 0)
(0 0 0)
(0 0 0)
(0 0 0)
(0 0 0)
(0 0 0)
(0 0 0)
(0 0 0)
(0 0 0)
(0 0 0)
(0 0 0)
(0 0 0)
(0 0 0)
(0 0 0)
(0 0 0)
(0 0 0)
(0 0 0)
(0 0 0)
(0 0 0)
(0 0 0)
(0 0 0)
(0 0 0)
(0 0 0)
(0 0 0)
(0 0 0)
(0 0 0)
(0 0 0)
(0 0 0)
(0 0 0)
(0 0 0)
(0 0 0)
(0 0 0)
(0 0 0)
(0 0 0)
(0 0 0)
(0 0 0)
(0 0 0)
(0 0 0)
(0 0 0)
(0 0 0)
(0 0 0)
(0 0 0)
(0 0 0)
(0 0 0)
(0 0 0)
(0 0 0)
(0 0 0)
(0 0 0)
(0 0 0)
(0 0 0)
(0 0 0)
(0 0 0)
(0 0 0)
(0 0 0)
(0 0 0)
(0 0 0)
(0 0 0)
(0 0 0)
(0 0 0)
(0 0 0)
(0 0 0)
(0 0 0)
(0 0 0)
(0 0 0)
(0 0 0)
(0 0 0)
(0 0 0)
(0 0 0)
(0 0 0)
(0 0 0)
(0 0 0)
(0 0 0)
(0 0 0)
(0 0 0)
(0 0 0)
(0 0 0)
(0 0 0)
(0 0 0)
(0 0 0)
(0 0 0)
(0 0 0)
(0 0 0)
(0 0 0)
(0 0 0)
(0 0 0)
(0 0 0)
(0 0 0)
(0 0 0)
(0 0 0)
(0 0 0)
(0 0 0)
(0 0 0)
(0 0 0)
)
;

boundaryField
{
    inandouthalf11
    {
        type            cyclic;
    }
    inandouthalf12
    {
        type            cyclic;
    }
    inandouthalf21
    {
        type            cyclic;
    }
    inandouthalf22
    {
        type            cyclic;
    }
    inandouthalf31
    {
        type            cyclic;
    }
    inandouthalf32
    {
        type            cyclic;
    }
    inandouthalf41
    {
        type            cyclic;
    }
    inandouthalf42
    {
        type            cyclic;
    }
    top
    {
        type            symmetryPlane;
    }
    walls
    {
        type            calculated;
        value           uniform (0 0 0);
    }
    frontAndBackPlanes
    {
        type            empty;
    }
}


// ************************************************************************* //
