/*--------------------------------*- C++ -*----------------------------------*\
| =========                 |                                                 |
| \\      /  F ield         | OpenFOAM: The Open Source CFD Toolbox           |
|  \\    /   O peration     | Version:  2.4.x                                 |
|   \\  /    A nd           | Web:      www.OpenFOAM.org                      |
|    \\/     M anipulation  |                                                 |
\*---------------------------------------------------------------------------*/
FoamFile
{
    version     2.0;
    format      ascii;
    class       volScalarField;
    location    "5.2";
    object      k;
}
// * * * * * * * * * * * * * * * * * * * * * * * * * * * * * * * * * * * * * //

dimensions      [0 2 -2 0 0 0 0];

internalField   nonuniform List<scalar> 
360
(
1e-20
1e-20
1e-20
1e-20
1e-20
1e-20
1e-20
1e-20
1e-20
1e-20
1e-20
1e-20
1e-20
1e-20
1e-20
1e-20
1e-20
1e-20
1e-20
1e-20
1e-20
1e-20
1e-20
1e-20
1e-20
1e-20
1e-20
1e-20
1e-20
1e-20
1e-20
1e-20
1e-20
1e-20
1e-20
1e-20
1e-20
1e-20
1e-20
1e-20
1e-20
1e-20
1e-20
1e-20
1e-20
1e-20
1e-20
1e-20
1e-20
1e-20
1e-20
1e-20
1e-20
1e-20
1e-20
1e-20
1e-20
1e-20
1e-20
1e-20
1e-20
1e-20
1e-20
1e-20
1e-20
1e-20
1e-20
1e-20
1e-20
1e-20
1e-20
1e-20
1e-20
1e-20
1e-20
1e-20
1e-20
1e-20
1e-20
1e-20
1e-20
1e-20
1e-20
1e-20
1e-20
1e-20
1e-20
1e-20
1e-20
1e-20
1e-20
1e-20
1e-20
1e-20
1e-20
1e-20
1e-20
1e-20
1e-20
1e-20
1e-20
1e-20
1e-20
1e-20
1e-20
1e-20
1e-20
1e-20
1e-20
1e-20
1e-20
1e-20
1e-20
1e-20
1e-20
1e-20
1e-20
1e-20
1e-20
1e-20
1e-20
1e-20
1e-20
1e-20
1e-20
1e-20
1e-20
1e-20
1e-20
1e-20
1e-20
1e-20
2.31504e-20
1.1103e-19
5.95466e-19
3.43569e-18
2.16435e-17
1.5154e-16
1.20073e-15
1.09497e-14
1.166e-13
1.46936e-12
2.22418e-11
4.09612e-10
9.26147e-09
2.59134e-07
8.8836e-06
0.000278369
0.00274493
0.00548622
0.00677832
0.00751723
0.00797776
0.00827688
0.00847444
0.0086031
0.00868149
0.00872083
0.00872837
0.00870914
0.00866694
0.00860474
0.00852502
0.00842985
0.00832099
0.00819998
0.00806816
0.00792668
0.00777658
0.00761876
0.00745404
0.00728316
0.00710677
0.00692548
0.00673987
0.00655046
0.00635776
0.00616223
0.00596435
0.00576457
0.00556335
0.00536113
0.00515837
0.00495555
0.00475314
0.00455164
0.00435156
0.00415343
0.00395779
0.00376519
0.00357623
0.00339147
0.00321152
0.00303699
0.00286848
0.00270657
0.00255183
0.00240476
0.00226581
0.00213537
0.0020137
0.00189983
0.0017931
0.00169396
0.00160271
0.00151949
0.0014443
0.00137696
0.00131715
0.00126443
0.00121826
0.00117805
0.00114318
0.00111302
0.00108696
0.00106439
0.00104477
0.00102757
0.00101229
0.000998483
0.000985722
0.000973606
0.000961759
0.000949825
0.00093747
0.000924376
0.000910243
0.000894786
0.000877736
0.000858843
0.00083787
0.000814602
0.000788838
0.000760403
0.000729141
0.000694923
0.000657652
0.000617262
0.000573733
0.000527095
0.000477441
0.000424947
0.000369896
0.000312715
0.000254032
0.00019477
0.000136325
8.09146e-05
3.20191e-05
4.34505e-06
1.28174e-07
2.02681e-09
2.95377e-11
4.06451e-13
5.28452e-15
6.4954e-17
7.62732e-19
1.71387e-20
1e-20
1e-20
1e-20
1e-20
1e-20
1e-20
1e-20
1e-20
1e-20
1e-20
1e-20
1e-20
1e-20
1e-20
1e-20
1e-20
1e-20
1e-20
1e-20
1e-20
1e-20
1e-20
1e-20
1e-20
1e-20
1e-20
1e-20
1e-20
1e-20
1e-20
1e-20
1e-20
1e-20
1e-20
1e-20
1e-20
1e-20
1e-20
1e-20
1e-20
1e-20
1e-20
1e-20
1e-20
1e-20
1e-20
1e-20
1e-20
1e-20
1e-20
1e-20
1e-20
1e-20
1e-20
1e-20
1e-20
1e-20
1e-20
1e-20
1e-20
1e-20
1e-20
1e-20
1e-20
1e-20
1e-20
1e-20
1e-20
1e-20
1e-20
1e-20
1e-20
1e-20
1e-20
1e-20
1e-20
1e-20
1e-20
1e-20
1e-20
1e-20
1e-20
1e-20
1e-20
1e-20
1e-20
1e-20
1e-20
1e-20
1e-20
1e-20
1e-20
1e-20
1e-20
1e-20
1e-20
1e-20
1e-20
1e-20
1e-20
1e-20
1e-20
)
;

boundaryField
{
    inandouthalf11
    {
        type            cyclic;
    }
    inandouthalf12
    {
        type            cyclic;
    }
    inandouthalf21
    {
        type            cyclic;
    }
    inandouthalf22
    {
        type            cyclic;
    }
    inandouthalf31
    {
        type            cyclic;
    }
    inandouthalf32
    {
        type            cyclic;
    }
    inandouthalf41
    {
        type            cyclic;
    }
    inandouthalf42
    {
        type            cyclic;
    }
    top
    {
        type            symmetryPlane;
    }
    walls
    {
        type            zeroGradient;
    }
    frontAndBackPlanes
    {
        type            empty;
    }
}


// ************************************************************************* //
