/*--------------------------------*- C++ -*----------------------------------*\
| =========                 |                                                 |
| \\      /  F ield         | OpenFOAM: The Open Source CFD Toolbox           |
|  \\    /   O peration     | Version:  2.4.x                                 |
|   \\  /    A nd           | Web:      www.OpenFOAM.org                      |
|    \\/     M anipulation  |                                                 |
\*---------------------------------------------------------------------------*/
FoamFile
{
    version     2.0;
    format      ascii;
    class       volScalarField;
    location    "5.2";
    object      mua;
}
// * * * * * * * * * * * * * * * * * * * * * * * * * * * * * * * * * * * * * //

dimensions      [1 -1 -1 0 0 0 0];

internalField   nonuniform List<scalar> 
360
(
664175
421510
500313
536882
518066
498537
487569
480989
475939
470470
463954
456920
449941
443368
437141
431042
424986
418999
413051
407086
401141
394954
388428
381518
374212
366606
358854
351192
344178
338408
334381
332537
333198
335971
340233
344185
345110
339496
324266
298010
261862
220855
181860
151471
135161
138663
175501
289800
643689
1.92487e+06
7.47045e+06
3.44101e+07
1.64165e+08
6.97892e+08
2.3447e+09
5.80666e+09
1.04283e+10
1.39469e+10
1.47623e+10
1.33419e+10
1.10618e+10
8.91198e+09
7.24182e+09
6.06404e+09
5.27784e+09
4.77559e+09
4.46959e+09
4.29569e+09
4.20602e+09
4.16212e+09
4.13344e+09
4.10411e+09
4.06651e+09
4.01372e+09
3.94717e+09
3.87053e+09
3.78878e+09
3.70249e+09
3.61067e+09
3.51258e+09
3.40742e+09
3.29399e+09
3.17311e+09
3.04745e+09
2.92043e+09
2.79587e+09
2.67707e+09
2.5666e+09
2.46551e+09
2.3736e+09
2.29002e+09
2.2134e+09
2.14224e+09
2.07534e+09
2.01191e+09
1.95148e+09
1.89385e+09
1.83897e+09
1.78681e+09
1.73728e+09
1.69027e+09
1.64563e+09
1.60317e+09
1.56273e+09
1.52417e+09
1.48736e+09
1.45218e+09
1.41849e+09
1.38611e+09
1.35486e+09
1.32453e+09
1.29486e+09
1.26558e+09
1.23639e+09
1.20694e+09
1.17689e+09
1.14587e+09
1.11358e+09
1.07978e+09
1.04437e+09
1.00747e+09
9.69459e+08
9.30982e+08
8.92937e+08
8.56389e+08
8.22469e+08
7.92303e+08
7.67023e+08
7.47849e+08
7.36118e+08
7.33034e+08
7.38913e+08
7.52155e+08
7.69013e+08
7.85259e+08
7.98101e+08
8.0464e+08
7.9939e+08
7.81596e+08
7.75487e+08
8.45534e+08
1.10342e+09
1.75355e+09
3.35775e+09
6.67978e+09
6.43193e+09
6.97369
0.0268051
0.0113604
0.00881694
0.00759971
0.00681403
0.00630806
0.00599467
0.00581228
0.00571473
0.00566872
0.00565164
0.00564896
0.00565179
0.00565497
0.00565565
0.00565237
0.0056445
0.00563187
0.00561457
0.00559284
0.00556699
0.00553733
0.00550423
0.00546803
0.00542907
0.0053877
0.00534424
0.00529905
0.00525243
0.0052047
0.00515619
0.00510719
0.005058
0.0050089
0.00496015
0.004912
0.00486466
0.0048183
0.00477307
0.00472905
0.0046863
0.00464482
0.00460459
0.00456557
0.00452769
0.00449089
0.0044551
0.00442025
0.00438626
0.00435304
0.00432049
0.00428851
0.00425699
0.00422585
0.00419468
0.0041631
0.00413103
0.00409838
0.00406507
0.00403101
0.0039961
0.00396025
0.00392336
0.00388531
0.00384601
0.00380532
0.00376313
0.00371928
0.00367363
0.00362602
0.00357625
0.00352412
0.0034694
0.00341181
0.00335106
0.00328678
0.00321856
0.00314587
0.00306812
0.00298453
0.00289415
0.00279574
0.00268764
0.00256757
0.00243225
0.00227661
0.00209213
0.00186244
0.00154732
0
0
0
0
0
0
0
0
0
0
0
0
0
0
0
0
0
0
0
0
0
0
0
0
0
0
0
0
0
0
0
0
0
0
0
0
0
0
0
0
0
0
0
0
0
0
0
0
0
0
0
0
0
0
0
0
0
0
0
0
0
0
0
0
0
0
0
0
0
0
0
0
0
0
0
0
0
0
0
0
0
0
0
0
0
0
0
0
0
0
0
0
0
0
0
0
0
0
0
0
0
0
0
0
0
0
0
0
0
0
0
0
0
0
0
0
0
0
0
0
0
0
0
0
)
;

boundaryField
{
    inandouthalf11
    {
        type            cyclic;
    }
    inandouthalf12
    {
        type            cyclic;
    }
    inandouthalf21
    {
        type            cyclic;
    }
    inandouthalf22
    {
        type            cyclic;
    }
    inandouthalf31
    {
        type            cyclic;
    }
    inandouthalf32
    {
        type            cyclic;
    }
    inandouthalf41
    {
        type            cyclic;
    }
    inandouthalf42
    {
        type            cyclic;
    }
    top
    {
        type            symmetryPlane;
    }
    walls
    {
        type            calculated;
        value           uniform 1e+30;
    }
    frontAndBackPlanes
    {
        type            empty;
    }
}


// ************************************************************************* //
