/*--------------------------------*- C++ -*----------------------------------*\
| =========                 |                                                 |
| \\      /  F ield         | OpenFOAM: The Open Source CFD Toolbox           |
|  \\    /   O peration     | Version:  2.4.x                                 |
|   \\  /    A nd           | Web:      www.OpenFOAM.org                      |
|    \\/     M anipulation  |                                                 |
\*---------------------------------------------------------------------------*/
FoamFile
{
    version     2.0;
    format      ascii;
    class       volScalarField;
    location    "5.2";
    object      nutb;
}
// * * * * * * * * * * * * * * * * * * * * * * * * * * * * * * * * * * * * * //

dimensions      [0 2 -1 0 0 0 0];

internalField   nonuniform List<scalar> 
360
(
9e-22
9e-22
9e-22
9e-22
9e-22
9e-22
9e-22
9e-22
9e-22
9e-22
9e-22
9e-22
9e-22
9e-22
9e-22
9e-22
9e-22
9e-22
9e-22
9e-22
9e-22
9e-22
9e-22
9e-22
9e-22
9e-22
9e-22
9e-22
9e-22
9e-22
9e-22
9e-22
9e-22
9e-22
9e-22
9e-22
9e-22
9e-22
9e-22
9e-22
9e-22
9e-22
9e-22
9e-22
9e-22
9e-22
9e-22
9e-22
9e-22
9e-22
9e-22
9e-22
9e-22
9e-22
9e-22
9e-22
9e-22
9e-22
9e-22
9e-22
9e-22
9e-22
9e-22
9e-22
9e-22
9e-22
9e-22
9e-22
9e-22
9e-22
9e-22
9e-22
9e-22
9e-22
9e-22
9e-22
9e-22
9e-22
9e-22
9e-22
9e-22
9e-22
9e-22
9e-22
9e-22
9e-22
9e-22
9e-22
9e-22
9e-22
9e-22
9e-22
9e-22
9e-22
9e-22
9e-22
9e-22
9e-22
9e-22
9e-22
9e-22
9e-22
9e-22
9e-22
9e-22
9e-22
9e-22
9e-22
9e-22
9e-22
9e-22
9e-22
9e-22
9e-22
9e-22
9e-22
9e-22
9e-22
9e-22
9e-22
9e-22
9e-22
9e-22
9e-22
9e-22
9e-22
9e-22
9e-22
9e-22
9e-22
9e-22
9e-22
1.45889e-21
6.11341e-21
2.8855e-20
1.44503e-19
7.78568e-19
4.59757e-18
3.03448e-17
2.28029e-16
1.98088e-15
2.01639e-14
2.44606e-13
3.58896e-12
6.43229e-11
1.42119e-09
3.83102e-08
9.30137e-07
7.28834e-06
1.58161e-05
2.29003e-05
2.93026e-05
3.54006e-05
4.13673e-05
4.72843e-05
5.31725e-05
5.90155e-05
6.47766e-05
7.04118e-05
7.5878e-05
8.11367e-05
8.61561e-05
9.09108e-05
9.53819e-05
9.95558e-05
0.000103423
0.000106979
0.000110221
0.000113149
0.000115766
0.000118074
0.000120081
0.000121792
0.000123214
0.000124356
0.000125226
0.000125834
0.00012619
0.000126305
0.00012619
0.000125858
0.000125319
0.000124589
0.000123681
0.000122611
0.000121394
0.000120047
0.000118588
0.000117035
0.000115409
0.00011373
0.00011202
0.000110302
0.000108602
0.000106946
0.00010536
0.000103873
0.000102513
0.000101306
0.000100277
9.94488e-05
9.88363e-05
9.8456e-05
9.83303e-05
9.84747e-05
9.88948e-05
9.95854e-05
0.000100529
0.000101694
0.000103042
0.000104522
0.000106079
0.000107656
0.0001092
0.000110659
0.000111992
0.000113163
0.000114145
0.000114918
0.000115472
0.000115797
0.000115889
0.000115749
0.000115374
0.000114765
0.00011392
0.000112838
0.000111514
0.000109944
0.000108121
0.000106035
0.000103678
0.000101038
9.81021e-05
9.48579e-05
9.12911e-05
8.73869e-05
8.31302e-05
7.85057e-05
7.34978e-05
6.80911e-05
6.22706e-05
5.60219e-05
4.93316e-05
4.21882e-05
3.45832e-05
2.65136e-05
1.79756e-05
8.81538e-06
1.51709e-06
4.96071e-08
7.84089e-10
1.1363e-11
1.55513e-13
2.01133e-15
2.45874e-17
2.78133e-19
2.41965e-21
9e-22
9e-22
9e-22
9e-22
9e-22
9e-22
9e-22
9e-22
9e-22
9e-22
9e-22
9e-22
9e-22
9e-22
9e-22
9e-22
9e-22
9e-22
9e-22
9e-22
9e-22
9e-22
9e-22
9e-22
9e-22
9e-22
9e-22
9e-22
9e-22
9e-22
9e-22
9e-22
9e-22
9e-22
9e-22
9e-22
9e-22
9e-22
9e-22
9e-22
9e-22
9e-22
9e-22
9e-22
9e-22
9e-22
9e-22
9e-22
9e-22
9e-22
9e-22
9e-22
9e-22
9e-22
9e-22
9e-22
9e-22
9e-22
9e-22
9e-22
9e-22
9e-22
9e-22
9e-22
9e-22
9e-22
9e-22
9e-22
9e-22
9e-22
9e-22
9e-22
9e-22
9e-22
9e-22
9e-22
9e-22
9e-22
9e-22
9e-22
9e-22
9e-22
9e-22
9e-22
9e-22
9e-22
9e-22
9e-22
9e-22
9e-22
9e-22
9e-22
9e-22
9e-22
9e-22
9e-22
9e-22
9e-22
9e-22
9e-22
9e-22
9e-22
)
;

boundaryField
{
    inandouthalf11
    {
        type            cyclic;
    }
    inandouthalf12
    {
        type            cyclic;
    }
    inandouthalf21
    {
        type            cyclic;
    }
    inandouthalf22
    {
        type            cyclic;
    }
    inandouthalf31
    {
        type            cyclic;
    }
    inandouthalf32
    {
        type            cyclic;
    }
    inandouthalf41
    {
        type            cyclic;
    }
    inandouthalf42
    {
        type            cyclic;
    }
    top
    {
        type            symmetryPlane;
    }
    walls
    {
        type            calculated;
        value           uniform 0;
    }
    frontAndBackPlanes
    {
        type            empty;
    }
}


// ************************************************************************* //
