/*--------------------------------*- C++ -*----------------------------------*\
| =========                 |                                                 |
| \\      /  F ield         | OpenFOAM: The Open Source CFD Toolbox           |
|  \\    /   O peration     | Version:  2.4.x                                 |
|   \\  /    A nd           | Web:      www.OpenFOAM.org                      |
|    \\/     M anipulation  |                                                 |
\*---------------------------------------------------------------------------*/
FoamFile
{
    version     2.0;
    format      ascii;
    class       volScalarField;
    location    "5.2";
    object      p;
}
// * * * * * * * * * * * * * * * * * * * * * * * * * * * * * * * * * * * * * //

dimensions      [1 -1 -2 0 0 0 0];

internalField   nonuniform List<scalar> 
360
(
4899.92
4895.01
4890.11
4885.2
4880.29
4875.38
4870.47
4865.55
4860.64
4855.73
4850.81
4845.89
4840.97
4836.05
4831.13
4826.21
4821.29
4816.36
4811.44
4806.51
4801.58
4796.65
4791.72
4786.79
4781.86
4776.93
4771.99
4767.05
4762.11
4757.17
4752.23
4747.29
4742.35
4737.4
4732.46
4727.51
4722.56
4717.61
4712.66
4707.71
4702.75
4697.8
4692.84
4687.88
4682.92
4677.95
4672.99
4668.02
4663.04
4658.07
4653.1
4648.13
4643.16
4638.18
4633.21
4628.24
4623.27
4618.3
4613.32
4608.35
4603.38
4598.41
4593.44
4588.47
4583.49
4578.52
4573.55
4568.58
4563.61
4558.63
4553.66
4548.69
4543.72
4538.75
4533.78
4528.8
4523.83
4518.86
4513.89
4508.92
4503.95
4498.98
4494
4489.03
4484.06
4479.09
4474.12
4469.15
4464.18
4459.21
4454.24
4449.26
4444.29
4439.32
4434.35
4429.38
4424.41
4419.44
4414.47
4409.5
4404.53
4399.56
4394.59
4389.62
4384.65
4379.68
4374.71
4369.74
4364.77
4359.79
4354.82
4349.86
4344.89
4339.92
4334.95
4329.98
4325.01
4320.04
4315.07
4310.1
4305.13
4300.16
4295.19
4290.22
4285.25
4280.28
4275.32
4270.35
4265.38
4260.41
4255.44
4250.47
4245.51
4240.54
4235.57
4230.6
4225.63
4220.67
4215.7
4210.73
4205.77
4200.8
4195.83
4190.87
4185.9
4180.94
4175.97
4170.68
4161.94
4153.88
4147.28
4141.19
4135.37
4129.73
4124.24
4118.86
4113.58
4108.38
4103.25
4098.18
4093.15
4088.16
4083.21
4078.28
4073.37
4068.49
4063.62
4058.77
4053.93
4049.09
4044.27
4039.46
4034.65
4029.85
4025.06
4020.26
4015.48
4010.69
4005.91
4001.13
3996.36
3991.58
3986.81
3982.03
3977.26
3972.49
3967.71
3962.94
3958.16
3953.38
3948.6
3943.82
3939.03
3934.24
3929.45
3924.65
3919.85
3915.04
3910.23
3905.41
3900.59
3895.71
3890.72
3885.63
3880.43
3875.11
3869.69
3864.14
3858.48
3852.69
3846.79
3840.76
3834.6
3828.31
3821.9
3815.35
3808.66
3801.84
3794.88
3787.77
3780.52
3773.13
3765.58
3757.88
3750.02
3742
3733.82
3725.48
3716.97
3708.28
3699.42
3690.39
3681.17
3671.76
3662.16
3652.37
3642.39
3632.2
3621.81
3611.21
3600.39
3589.36
3578.1
3566.62
3554.9
3542.95
3530.75
3518.3
3505.59
3492.61
3479.35
3465.82
3452.01
3437.92
3423.55
3408.88
3393.92
3378.66
3363.08
3347.19
3330.97
3314.43
3297.55
3280.33
3262.76
3244.83
3226.54
3207.87
3188.83
3169.4
3149.58
3129.35
3108.72
3087.66
3066.18
3044.26
3021.9
2999.08
2975.8
2952.05
2927.81
2903.09
2877.86
2852.12
2825.86
2799.06
2771.72
2743.82
2715.36
2686.32
2656.7
2626.47
2595.62
2564.15
2532.05
2499.29
2465.86
2431.76
2396.96
2361.46
2325.24
2288.28
2250.57
2212.1
2172.85
2132.8
2091.93
2050.24
2007.7
1964.3
1922.76
1883.52
1844.28
1805.04
1765.8
1726.56
1687.32
1648.08
1608.84
1569.6
1530.36
1491.12
1451.88
1412.64
1373.4
1334.16
1294.92
1255.68
1216.44
1177.2
1137.96
1098.72
1059.48
1020.24
981
941.76
902.52
863.28
824.04
784.8
745.56
706.32
667.08
627.84
588.6
549.36
510.12
470.88
431.64
392.4
353.16
313.92
274.68
235.44
196.2
156.96
117.72
78.48
39.24
1.61631e-07
)
;

boundaryField
{
    inandouthalf11
    {
        type            cyclic;
    }
    inandouthalf12
    {
        type            cyclic;
    }
    inandouthalf21
    {
        type            cyclic;
    }
    inandouthalf22
    {
        type            cyclic;
    }
    inandouthalf31
    {
        type            cyclic;
    }
    inandouthalf32
    {
        type            cyclic;
    }
    inandouthalf41
    {
        type            cyclic;
    }
    inandouthalf42
    {
        type            cyclic;
    }
    top
    {
        type            symmetryPlane;
    }
    walls
    {
        type            slip;
    }
    frontAndBackPlanes
    {
        type            empty;
    }
}


// ************************************************************************* //
