/*--------------------------------*- C++ -*----------------------------------*\
| =========                 |                                                 |
| \\      /  F ield         | OpenFOAM: The Open Source CFD Toolbox           |
|  \\    /   O peration     | Version:  2.4.x                                 |
|   \\  /    A nd           | Web:      www.OpenFOAM.org                      |
|    \\/     M anipulation  |                                                 |
\*---------------------------------------------------------------------------*/
FoamFile
{
    version     2.0;
    format      ascii;
    class       surfaceScalarField;
    location    "5.2";
    object      phib;
}
// * * * * * * * * * * * * * * * * * * * * * * * * * * * * * * * * * * * * * //

dimensions      [0 3 -1 0 0 0 0];

internalField   nonuniform List<scalar> 
359
(
7.73605e-13
2.08623e-12
3.29679e-12
4.41805e-12
5.54738e-12
6.70739e-12
7.88674e-12
9.07451e-12
1.02659e-11
1.1462e-11
1.26658e-11
1.38785e-11
1.51004e-11
1.63308e-11
1.75689e-11
1.88146e-11
2.00679e-11
2.13289e-11
2.25976e-11
2.38744e-11
2.51593e-11
2.64535e-11
2.77584e-11
2.90756e-11
3.0407e-11
3.17543e-11
3.31185e-11
3.45001e-11
3.58971e-11
3.73051e-11
3.87169e-11
4.01238e-11
4.15144e-11
4.28815e-11
4.42186e-11
4.55287e-11
4.68233e-11
4.81272e-11
4.94801e-11
5.09375e-11
5.25798e-11
5.45059e-11
5.6816e-11
5.95528e-11
6.25748e-11
6.54782e-11
6.7742e-11
6.9096e-11
6.96982e-11
6.98957e-11
6.99431e-11
6.99497e-11
6.99472e-11
6.99426e-11
6.99373e-11
6.99315e-11
6.99253e-11
6.99188e-11
6.9912e-11
6.99048e-11
6.98973e-11
6.98895e-11
6.98815e-11
6.98734e-11
6.98651e-11
6.98565e-11
6.98476e-11
6.98385e-11
6.9829e-11
6.98192e-11
6.98088e-11
6.97982e-11
6.97873e-11
6.9776e-11
6.97645e-11
6.97527e-11
6.97407e-11
6.97285e-11
6.97159e-11
6.97031e-11
6.96899e-11
6.96763e-11
6.96625e-11
6.96482e-11
6.96336e-11
6.96187e-11
6.96034e-11
6.95879e-11
6.9572e-11
6.95558e-11
6.95392e-11
6.95223e-11
6.9505e-11
6.94873e-11
6.94691e-11
6.94506e-11
6.94316e-11
6.94122e-11
6.93923e-11
6.9372e-11
6.93512e-11
6.93299e-11
6.93081e-11
6.92858e-11
6.92629e-11
6.92394e-11
6.92154e-11
6.91907e-11
6.91654e-11
6.91394e-11
6.91128e-11
6.90854e-11
6.90572e-11
6.90282e-11
6.89984e-11
6.89678e-11
6.89362e-11
6.89037e-11
6.88703e-11
6.88357e-11
6.88002e-11
6.87634e-11
6.87255e-11
6.86864e-11
6.86459e-11
6.86041e-11
6.85608e-11
6.85159e-11
6.84692e-11
6.84206e-11
6.83702e-11
6.83176e-11
6.82625e-11
6.82043e-11
6.81426e-11
6.80777e-11
6.80093e-11
6.79352e-11
6.78516e-11
6.77588e-11
6.76648e-11
6.75644e-11
6.74394e-11
6.7282e-11
6.70432e-11
6.64116e-11
6.60203e-11
5.44094e-10
4.81957e-10
4.333e-10
3.77059e-10
3.17765e-10
2.59891e-10
2.06531e-10
1.59562e-10
1.19733e-10
8.69266e-11
6.05031e-11
3.95895e-11
2.32736e-11
1.07101e-11
1.16336e-12
-5.98407e-12
-1.12327e-11
-1.49887e-11
-1.75767e-11
-1.92544e-11
-2.02263e-11
-2.06543e-11
-2.06664e-11
-2.03639e-11
-1.98266e-11
-1.91175e-11
-1.82863e-11
-1.73718e-11
-1.64047e-11
-1.54085e-11
-1.44018e-11
-1.33982e-11
-1.24072e-11
-1.14336e-11
-1.04775e-11
-9.53528e-12
-8.60293e-12
-7.68035e-12
-6.77542e-12
-5.90468e-12
-5.08952e-12
-4.34965e-12
-3.69742e-12
-3.1362e-12
-2.66178e-12
-2.26355e-12
-1.92614e-12
-1.63464e-12
-1.38016e-12
-1.16e-12
-9.73351e-13
-8.17627e-13
-6.88398e-13
-5.81467e-13
-4.9185e-13
-4.16325e-13
-3.51812e-13
-2.97602e-13
-2.52571e-13
-2.13982e-13
-1.80944e-13
-1.53497e-13
-1.30232e-13
-1.10225e-13
-9.33468e-14
-7.89209e-14
-6.66006e-14
-5.6269e-14
-4.72995e-14
-3.96055e-14
-3.3285e-14
-2.78365e-14
-2.31252e-14
-1.92087e-14
-1.58967e-14
-1.31086e-14
-1.0727e-14
-8.71175e-15
-7.07279e-15
-5.67858e-15
-4.51572e-15
-3.57985e-15
-2.80604e-15
-2.17042e-15
-1.64157e-15
-1.20793e-15
-9.12322e-16
-7.12182e-16
-5.9553e-16
-2.56941e-16
-4.56803e-17
7.79513e-17
-5.72418e-18
-5.55303e-18
-5.39475e-18
-5.2195e-18
-5.05687e-18
-4.87641e-18
-4.70662e-18
-4.52366e-18
-4.35149e-18
-4.1659e-18
-3.9893e-18
-3.81515e-18
-3.63396e-18
-3.4417e-18
-3.25583e-18
-3.06028e-18
-2.87055e-18
-2.67436e-18
-2.48336e-18
-2.28736e-18
-2.09697e-18
-1.90399e-18
-1.71727e-18
-1.5334e-18
-1.35854e-18
-1.19328e-18
-1.03915e-18
-8.78912e-19
-7.39273e-19
-6.06323e-19
-4.80452e-19
-3.60182e-19
-2.45872e-19
-1.3471e-19
-3.18059e-20
6.42438e-20
1.5029e-19
2.35411e-19
3.08254e-19
3.76322e-19
4.343e-19
5.12132e-19
5.74972e-19
6.31889e-19
6.60418e-19
7.01662e-19
7.07172e-19
6.65396e-19
6.31184e-19
6.37632e-19
6.10447e-19
5.78747e-19
5.04902e-19
4.55436e-19
3.72103e-19
2.94064e-19
2.12974e-19
2.66062e-19
2.69652e-19
2.85103e-19
3.89112e-19
4.09566e-19
4.12595e-19
4.15782e-19
4.02073e-19
4.18282e-19
4.19298e-19
4.21061e-19
4.02507e-19
3.98586e-19
3.77875e-19
3.5981e-19
3.32884e-19
3.25252e-19
3.12242e-19
3.00492e-19
2.83011e-19
2.6895e-19
2.52606e-19
2.35239e-19
2.15849e-19
1.97891e-19
1.79612e-19
1.60765e-19
1.42512e-19
1.21497e-19
1.02e-19
7.78592e-20
4.4944e-20
-1.60208e-20
-7.78484e-20
-1.43726e-19
-1.90801e-19
-2.57218e-19
-2.93461e-19
-3.30886e-19
-3.39008e-19
-3.96592e-19
-4.18351e-19
-4.4006e-19
-4.18342e-19
-4.23267e-19
-3.94706e-19
-3.65501e-19
-3.25095e-19
-2.89675e-19
-2.71911e-19
-2.56498e-19
-2.73755e-19
-2.66e-19
-3.31216e-19
-3.98771e-19
-4.30106e-19
-7.22321e-19
-1.02774e-18
-1.35449e-18
-1.34611e-18
-2.45668e-18
-1.58173e-18
4.73156e-19
)
;

boundaryField
{
    inandouthalf11
    {
        type            cyclic;
        value           nonuniform List<scalar> 
100
(
-8.27842e-13
-7.87284e-13
-7.42407e-13
-7.03764e-13
-6.65705e-13
-6.26023e-13
-5.85093e-13
-5.43437e-13
-5.01278e-13
-4.58664e-13
-4.15517e-13
-3.71742e-13
-3.27302e-13
-2.82197e-13
-2.36449e-13
-1.90068e-13
-1.43045e-13
-9.53693e-14
-4.70289e-14
1.99051e-15
5.17121e-14
1.02164e-13
1.53409e-13
2.05519e-13
2.58578e-13
3.12673e-13
3.67877e-13
4.24239e-13
4.8175e-13
5.40295e-13
5.99644e-13
6.59464e-13
7.19343e-13
7.78855e-13
8.37698e-13
8.95778e-13
9.53395e-13
1.01135e-12
1.07107e-12
1.13471e-12
1.20538e-12
1.28727e-12
1.38532e-12
1.50364e-12
1.64105e-12
1.78464e-12
1.90955e-12
1.99371e-12
2.03553e-12
2.05064e-12
2.05469e-12
2.05552e-12
2.0556e-12
2.05553e-12
2.05541e-12
2.05528e-12
2.05514e-12
2.05499e-12
2.05483e-12
2.05467e-12
2.05449e-12
2.05431e-12
2.05412e-12
2.05393e-12
2.05373e-12
2.05353e-12
2.05333e-12
2.05311e-12
2.05289e-12
2.05267e-12
2.05243e-12
2.05218e-12
2.05192e-12
2.05166e-12
2.05139e-12
2.05111e-12
2.05083e-12
2.05054e-12
2.05024e-12
2.04994e-12
2.04963e-12
2.04931e-12
2.04898e-12
2.04865e-12
2.0483e-12
2.04795e-12
2.04759e-12
2.04722e-12
2.04685e-12
2.04646e-12
2.04607e-12
2.04567e-12
2.04526e-12
2.04484e-12
2.04441e-12
2.04397e-12
2.04351e-12
2.04305e-12
2.04258e-12
2.04209e-12
)
;
    }
    inandouthalf12
    {
        type            cyclic;
        value           nonuniform List<scalar> 
100
(
8.27842e-13
7.87284e-13
7.42407e-13
7.03764e-13
6.65705e-13
6.26023e-13
5.85093e-13
5.43437e-13
5.01278e-13
4.58664e-13
4.15517e-13
3.71742e-13
3.27302e-13
2.82197e-13
2.36449e-13
1.90068e-13
1.43045e-13
9.53693e-14
4.70289e-14
-1.99051e-15
-5.17121e-14
-1.02164e-13
-1.53409e-13
-2.05519e-13
-2.58578e-13
-3.12673e-13
-3.67877e-13
-4.24239e-13
-4.8175e-13
-5.40295e-13
-5.99644e-13
-6.59464e-13
-7.19343e-13
-7.78855e-13
-8.37698e-13
-8.95778e-13
-9.53395e-13
-1.01135e-12
-1.07107e-12
-1.13471e-12
-1.20538e-12
-1.28727e-12
-1.38532e-12
-1.50364e-12
-1.64105e-12
-1.78464e-12
-1.90955e-12
-1.99371e-12
-2.03553e-12
-2.05064e-12
-2.05469e-12
-2.05552e-12
-2.0556e-12
-2.05553e-12
-2.05541e-12
-2.05528e-12
-2.05514e-12
-2.05499e-12
-2.05483e-12
-2.05467e-12
-2.05449e-12
-2.05431e-12
-2.05412e-12
-2.05393e-12
-2.05373e-12
-2.05353e-12
-2.05333e-12
-2.05311e-12
-2.05289e-12
-2.05267e-12
-2.05243e-12
-2.05218e-12
-2.05192e-12
-2.05166e-12
-2.05139e-12
-2.05111e-12
-2.05083e-12
-2.05054e-12
-2.05024e-12
-2.04994e-12
-2.04963e-12
-2.04931e-12
-2.04898e-12
-2.04865e-12
-2.0483e-12
-2.04795e-12
-2.04759e-12
-2.04722e-12
-2.04685e-12
-2.04646e-12
-2.04607e-12
-2.04567e-12
-2.04526e-12
-2.04484e-12
-2.04441e-12
-2.04397e-12
-2.04351e-12
-2.04305e-12
-2.04258e-12
-2.04209e-12
)
;
    }
    inandouthalf21
    {
        type            cyclic;
        value           nonuniform List<scalar> 
100
(
2.0416e-12
2.04109e-12
2.04057e-12
2.04003e-12
2.03949e-12
2.03892e-12
2.03835e-12
2.03776e-12
2.03715e-12
2.03652e-12
2.03588e-12
2.03522e-12
2.03454e-12
2.03384e-12
2.03312e-12
2.03238e-12
2.03161e-12
2.03082e-12
2.03001e-12
2.02916e-12
2.0283e-12
2.0274e-12
2.02647e-12
2.02551e-12
2.02452e-12
2.02349e-12
2.02243e-12
2.02132e-12
2.02017e-12
2.01897e-12
2.01772e-12
2.01642e-12
2.01505e-12
2.01361e-12
2.01208e-12
2.01045e-12
2.00874e-12
2.00692e-12
2.0049e-12
2.00258e-12
2.00006e-12
1.99765e-12
1.99476e-12
1.991e-12
1.98635e-12
1.98025e-12
4.20127e-12
1.46651e-09
8.89788e-08
1.86926e-07
2.62156e-07
3.23068e-07
3.73835e-07
4.16956e-07
4.54143e-07
4.86637e-07
5.15366e-07
5.41039e-07
5.642e-07
5.85277e-07
6.04603e-07
6.22444e-07
6.39015e-07
6.54486e-07
6.68999e-07
6.8267e-07
6.95594e-07
7.07852e-07
7.19512e-07
7.30631e-07
7.41257e-07
7.51432e-07
7.61192e-07
7.70567e-07
7.79585e-07
7.88268e-07
7.96636e-07
8.04707e-07
8.12494e-07
8.20011e-07
8.27268e-07
8.34275e-07
8.41039e-07
8.47566e-07
8.53861e-07
8.59927e-07
8.65767e-07
8.71382e-07
8.76773e-07
8.8194e-07
8.8688e-07
8.91593e-07
8.96077e-07
9.00329e-07
9.04346e-07
9.08127e-07
9.11668e-07
9.14968e-07
9.18026e-07
9.20841e-07
)
;
    }
    inandouthalf22
    {
        type            cyclic;
        value           nonuniform List<scalar> 
100
(
-2.0416e-12
-2.04109e-12
-2.04057e-12
-2.04003e-12
-2.03949e-12
-2.03892e-12
-2.03835e-12
-2.03776e-12
-2.03715e-12
-2.03652e-12
-2.03588e-12
-2.03522e-12
-2.03454e-12
-2.03384e-12
-2.03312e-12
-2.03238e-12
-2.03161e-12
-2.03082e-12
-2.03001e-12
-2.02916e-12
-2.0283e-12
-2.0274e-12
-2.02647e-12
-2.02551e-12
-2.02452e-12
-2.02349e-12
-2.02243e-12
-2.02132e-12
-2.02017e-12
-2.01897e-12
-2.01772e-12
-2.01642e-12
-2.01505e-12
-2.01361e-12
-2.01208e-12
-2.01045e-12
-2.00874e-12
-2.00692e-12
-2.0049e-12
-2.00258e-12
-2.00006e-12
-1.99765e-12
-1.99476e-12
-1.991e-12
-1.98635e-12
-1.98025e-12
-4.20127e-12
-1.46651e-09
-8.89788e-08
-1.86926e-07
-2.62156e-07
-3.23068e-07
-3.73835e-07
-4.16956e-07
-4.54143e-07
-4.86637e-07
-5.15366e-07
-5.41039e-07
-5.642e-07
-5.85277e-07
-6.04603e-07
-6.22444e-07
-6.39015e-07
-6.54486e-07
-6.68999e-07
-6.8267e-07
-6.95594e-07
-7.07852e-07
-7.19512e-07
-7.30631e-07
-7.41257e-07
-7.51432e-07
-7.61192e-07
-7.70567e-07
-7.79585e-07
-7.88268e-07
-7.96636e-07
-8.04707e-07
-8.12494e-07
-8.20011e-07
-8.27268e-07
-8.34275e-07
-8.41039e-07
-8.47566e-07
-8.53861e-07
-8.59927e-07
-8.65767e-07
-8.71382e-07
-8.76773e-07
-8.8194e-07
-8.8688e-07
-8.91593e-07
-8.96077e-07
-9.00329e-07
-9.04346e-07
-9.08127e-07
-9.11668e-07
-9.14968e-07
-9.18026e-07
-9.20841e-07
)
;
    }
    inandouthalf31
    {
        type            cyclic;
        value           nonuniform List<scalar> 
110
(
9.23417e-07
9.44566e-07
9.65987e-07
9.87669e-07
1.00961e-06
1.03179e-06
1.05422e-06
1.0769e-06
1.09982e-06
1.12299e-06
1.14643e-06
1.17013e-06
1.19411e-06
1.21837e-06
1.24294e-06
1.2678e-06
1.29299e-06
1.31849e-06
1.34432e-06
1.3705e-06
1.39701e-06
1.42388e-06
1.4511e-06
1.47868e-06
1.50663e-06
1.53495e-06
1.56365e-06
1.59274e-06
1.62221e-06
1.65208e-06
1.68236e-06
1.71305e-06
1.74416e-06
1.7757e-06
1.80769e-06
1.84012e-06
1.87303e-06
1.90642e-06
1.94032e-06
1.97474e-06
2.00972e-06
2.04528e-06
2.08147e-06
2.11834e-06
2.15596e-06
2.19442e-06
2.23384e-06
2.27441e-06
2.31643e-06
2.36108e-06
2.40864e-06
2.45751e-06
2.50739e-06
2.55828e-06
2.61021e-06
2.66319e-06
2.71724e-06
2.7724e-06
2.82867e-06
2.88608e-06
2.94466e-06
3.00443e-06
3.06541e-06
3.12763e-06
3.19111e-06
3.25588e-06
3.32197e-06
3.3894e-06
3.45819e-06
3.52838e-06
3.6e-06
3.67307e-06
3.74762e-06
3.82369e-06
3.9013e-06
3.98049e-06
4.06128e-06
4.14371e-06
4.22782e-06
4.31363e-06
4.40119e-06
4.49052e-06
4.58167e-06
4.67466e-06
4.76955e-06
4.86636e-06
4.96513e-06
5.06591e-06
5.16873e-06
5.27364e-06
5.38069e-06
5.4899e-06
5.60133e-06
5.71502e-06
5.83102e-06
5.94937e-06
6.07013e-06
6.19334e-06
6.31905e-06
6.44731e-06
6.57817e-06
6.71169e-06
6.84792e-06
6.98691e-06
7.12873e-06
7.27342e-06
7.42105e-06
7.57168e-06
7.72537e-06
7.88217e-06
)
;
    }
    inandouthalf32
    {
        type            cyclic;
        value           nonuniform List<scalar> 
110
(
-9.23417e-07
-9.44566e-07
-9.65987e-07
-9.87669e-07
-1.00961e-06
-1.03179e-06
-1.05422e-06
-1.0769e-06
-1.09982e-06
-1.12299e-06
-1.14643e-06
-1.17013e-06
-1.19411e-06
-1.21837e-06
-1.24294e-06
-1.2678e-06
-1.29299e-06
-1.31849e-06
-1.34432e-06
-1.3705e-06
-1.39701e-06
-1.42388e-06
-1.4511e-06
-1.47868e-06
-1.50663e-06
-1.53495e-06
-1.56365e-06
-1.59274e-06
-1.62221e-06
-1.65208e-06
-1.68236e-06
-1.71305e-06
-1.74416e-06
-1.7757e-06
-1.80769e-06
-1.84012e-06
-1.87303e-06
-1.90642e-06
-1.94032e-06
-1.97474e-06
-2.00972e-06
-2.04528e-06
-2.08147e-06
-2.11834e-06
-2.15596e-06
-2.19442e-06
-2.23384e-06
-2.27441e-06
-2.31643e-06
-2.36108e-06
-2.40864e-06
-2.45751e-06
-2.50739e-06
-2.55828e-06
-2.61021e-06
-2.66319e-06
-2.71724e-06
-2.7724e-06
-2.82867e-06
-2.88608e-06
-2.94466e-06
-3.00443e-06
-3.06541e-06
-3.12763e-06
-3.19111e-06
-3.25588e-06
-3.32197e-06
-3.3894e-06
-3.45819e-06
-3.52838e-06
-3.6e-06
-3.67307e-06
-3.74762e-06
-3.82369e-06
-3.9013e-06
-3.98049e-06
-4.06128e-06
-4.14371e-06
-4.22782e-06
-4.31363e-06
-4.40119e-06
-4.49052e-06
-4.58167e-06
-4.67466e-06
-4.76955e-06
-4.86636e-06
-4.96513e-06
-5.06591e-06
-5.16873e-06
-5.27364e-06
-5.38069e-06
-5.4899e-06
-5.60133e-06
-5.71502e-06
-5.83102e-06
-5.94937e-06
-6.07013e-06
-6.19334e-06
-6.31905e-06
-6.44731e-06
-6.57817e-06
-6.71169e-06
-6.84792e-06
-6.98691e-06
-7.12873e-06
-7.27342e-06
-7.42105e-06
-7.57168e-06
-7.72537e-06
-7.88217e-06
)
;
    }
    inandouthalf41
    {
        type            cyclic;
        value           nonuniform List<scalar> 
50
(
7.05535e-06
7.05535e-06
7.05535e-06
7.05535e-06
7.05535e-06
7.05535e-06
7.05535e-06
7.05535e-06
7.05535e-06
7.05535e-06
7.05535e-06
7.05535e-06
7.05535e-06
7.05535e-06
7.05535e-06
7.05535e-06
7.05535e-06
7.05535e-06
7.05535e-06
7.05535e-06
7.05535e-06
7.05535e-06
7.05535e-06
7.05535e-06
7.05535e-06
7.05535e-06
7.05535e-06
7.05535e-06
7.05535e-06
7.05535e-06
7.05535e-06
7.05535e-06
7.05535e-06
7.05535e-06
7.05535e-06
7.05535e-06
7.05535e-06
7.05535e-06
7.05535e-06
7.05535e-06
7.05535e-06
7.05535e-06
7.05535e-06
7.05535e-06
7.05535e-06
7.05535e-06
7.05535e-06
7.05535e-06
7.05535e-06
7.05535e-06
)
;
    }
    inandouthalf42
    {
        type            cyclic;
        value           nonuniform List<scalar> 
50
(
-7.05535e-06
-7.05535e-06
-7.05535e-06
-7.05535e-06
-7.05535e-06
-7.05535e-06
-7.05535e-06
-7.05535e-06
-7.05535e-06
-7.05535e-06
-7.05535e-06
-7.05535e-06
-7.05535e-06
-7.05535e-06
-7.05535e-06
-7.05535e-06
-7.05535e-06
-7.05535e-06
-7.05535e-06
-7.05535e-06
-7.05535e-06
-7.05535e-06
-7.05535e-06
-7.05535e-06
-7.05535e-06
-7.05535e-06
-7.05535e-06
-7.05535e-06
-7.05535e-06
-7.05535e-06
-7.05535e-06
-7.05535e-06
-7.05535e-06
-7.05535e-06
-7.05535e-06
-7.05535e-06
-7.05535e-06
-7.05535e-06
-7.05535e-06
-7.05535e-06
-7.05535e-06
-7.05535e-06
-7.05535e-06
-7.05535e-06
-7.05535e-06
-7.05535e-06
-7.05535e-06
-7.05535e-06
-7.05535e-06
-7.05535e-06
)
;
    }
    top
    {
        type            symmetryPlane;
        value           uniform 0;
    }
    walls
    {
        type            fixedValue;
        value           uniform 0;
    }
    frontAndBackPlanes
    {
        type            empty;
        value           nonuniform 0();
    }
}


// ************************************************************************* //
