/*--------------------------------*- C++ -*----------------------------------*\
| =========                 |                                                 |
| \\      /  F ield         | OpenFOAM: The Open Source CFD Toolbox           |
|  \\    /   O peration     | Version:  2.4.x                                 |
|   \\  /    A nd           | Web:      www.OpenFOAM.org                      |
|    \\/     M anipulation  |                                                 |
\*---------------------------------------------------------------------------*/
FoamFile
{
    version     2.0;
    format      ascii;
    class       surfaceScalarField;
    location    "5.2";
    object      phib_0;
}
// * * * * * * * * * * * * * * * * * * * * * * * * * * * * * * * * * * * * * //

dimensions      [0 3 -1 0 0 0 0];

internalField   nonuniform List<scalar> 
359
(
7.7363e-13
2.08631e-12
3.29693e-12
4.41825e-12
5.54763e-12
6.70768e-12
7.88709e-12
9.07492e-12
1.02663e-11
1.14626e-11
1.26664e-11
1.38791e-11
1.51011e-11
1.63316e-11
1.75698e-11
1.88155e-11
2.00689e-11
2.133e-11
2.25987e-11
2.38756e-11
2.51606e-11
2.64549e-11
2.77599e-11
2.90771e-11
3.04086e-11
3.1756e-11
3.31203e-11
3.4502e-11
3.58992e-11
3.73073e-11
3.87191e-11
4.01261e-11
4.15168e-11
4.28838e-11
4.4221e-11
4.55311e-11
4.68258e-11
4.81298e-11
4.94829e-11
5.09408e-11
5.25838e-11
5.45109e-11
5.68223e-11
5.95602e-11
6.25827e-11
6.54852e-11
6.77468e-11
6.90985e-11
6.96992e-11
6.98959e-11
6.99431e-11
6.99497e-11
6.99472e-11
6.99426e-11
6.99373e-11
6.99315e-11
6.99253e-11
6.99188e-11
6.9912e-11
6.99048e-11
6.98973e-11
6.98895e-11
6.98815e-11
6.98734e-11
6.98651e-11
6.98565e-11
6.98476e-11
6.98385e-11
6.9829e-11
6.98192e-11
6.98088e-11
6.97982e-11
6.97873e-11
6.9776e-11
6.97645e-11
6.97527e-11
6.97407e-11
6.97285e-11
6.97159e-11
6.97031e-11
6.96899e-11
6.96763e-11
6.96625e-11
6.96482e-11
6.96336e-11
6.96187e-11
6.96034e-11
6.95879e-11
6.9572e-11
6.95558e-11
6.95392e-11
6.95223e-11
6.9505e-11
6.94873e-11
6.94691e-11
6.94506e-11
6.94316e-11
6.94122e-11
6.93923e-11
6.9372e-11
6.93512e-11
6.93299e-11
6.93081e-11
6.92858e-11
6.92629e-11
6.92394e-11
6.92154e-11
6.91907e-11
6.91654e-11
6.91394e-11
6.91128e-11
6.90854e-11
6.90572e-11
6.90282e-11
6.89984e-11
6.89678e-11
6.89362e-11
6.89037e-11
6.88703e-11
6.88358e-11
6.88002e-11
6.87634e-11
6.87255e-11
6.86864e-11
6.86459e-11
6.86041e-11
6.85608e-11
6.85159e-11
6.84692e-11
6.84206e-11
6.83702e-11
6.83176e-11
6.82625e-11
6.82043e-11
6.81426e-11
6.80777e-11
6.80093e-11
6.79352e-11
6.78516e-11
6.77588e-11
6.76648e-11
6.75644e-11
6.74394e-11
6.7282e-11
6.70432e-11
6.64116e-11
6.60348e-11
5.44071e-10
4.81968e-10
4.33271e-10
3.77041e-10
3.17747e-10
2.59876e-10
2.06518e-10
1.59549e-10
1.1972e-10
8.69136e-11
6.04901e-11
3.95764e-11
2.32607e-11
1.06976e-11
1.15129e-12
-5.99555e-12
-1.12435e-11
-1.49988e-11
-1.75859e-11
-1.92628e-11
-2.02339e-11
-2.06612e-11
-2.06726e-11
-2.03693e-11
-1.98314e-11
-1.91217e-11
-1.82899e-11
-1.73749e-11
-1.64072e-11
-1.54107e-11
-1.44035e-11
-1.33995e-11
-1.24082e-11
-1.14342e-11
-1.04778e-11
-9.53525e-12
-8.60257e-12
-7.67968e-12
-6.77448e-12
-5.90355e-12
-5.0883e-12
-4.34843e-12
-3.69626e-12
-3.13515e-12
-2.66086e-12
-2.26275e-12
-1.92544e-12
-1.63402e-12
-1.37961e-12
-1.15953e-12
-9.72948e-13
-8.17289e-13
-6.88116e-13
-5.81233e-13
-4.91656e-13
-4.16164e-13
-3.51678e-13
-2.97492e-13
-2.5248e-13
-2.13906e-13
-1.80881e-13
-1.53445e-13
-1.30189e-13
-1.10189e-13
-9.33166e-14
-7.88957e-14
-6.65797e-14
-5.62515e-14
-4.72849e-14
-3.95933e-14
-3.3275e-14
-2.78281e-14
-2.31183e-14
-1.9203e-14
-1.5892e-14
-1.31047e-14
-1.07239e-14
-8.70917e-15
-7.07072e-15
-5.67689e-15
-4.51439e-15
-3.57881e-15
-2.80522e-15
-2.16978e-15
-1.64107e-15
-1.20758e-15
-9.12113e-16
-7.12069e-16
-5.95398e-16
-2.57066e-16
-4.56915e-17
7.77748e-17
-5.79536e-18
-5.62311e-18
-5.46221e-18
-5.28481e-18
-5.12025e-18
-4.93838e-18
-4.76796e-18
-4.58153e-18
-4.40793e-18
-4.21924e-18
-4.03916e-18
-3.8631e-18
-3.67902e-18
-3.48369e-18
-3.29435e-18
-3.09639e-18
-2.90348e-18
-2.70472e-18
-2.51003e-18
-2.3111e-18
-2.11575e-18
-1.91995e-18
-1.72917e-18
-1.54099e-18
-1.36194e-18
-1.19279e-18
-1.03332e-18
-8.68612e-19
-7.24977e-19
-5.88021e-19
-4.57212e-19
-3.32488e-19
-2.13554e-19
-9.85875e-20
8.19984e-21
1.07299e-19
1.95317e-19
2.8316e-19
3.57231e-19
4.26665e-19
4.86396e-19
5.66671e-19
6.3044e-19
6.89197e-19
7.1754e-19
7.58554e-19
7.61517e-19
7.15885e-19
6.77501e-19
6.81728e-19
6.5062e-19
6.14637e-19
5.34487e-19
4.7946e-19
3.90307e-19
3.06326e-19
2.22739e-19
2.7123e-19
2.76494e-19
2.9403e-19
4.00063e-19
4.22566e-19
4.2597e-19
4.30685e-19
4.17633e-19
4.37502e-19
4.39646e-19
4.42671e-19
4.22267e-19
4.1946e-19
3.95231e-19
3.7515e-19
3.45151e-19
3.37803e-19
3.22949e-19
3.09955e-19
2.88255e-19
2.72678e-19
2.50889e-19
2.29225e-19
2.02361e-19
1.79014e-19
1.52929e-19
1.26581e-19
9.79448e-20
6.71414e-20
3.37084e-20
-5.52308e-21
-5.84163e-20
-1.56335e-19
-2.64436e-19
-3.78759e-19
-4.85877e-19
-6.05098e-19
-7.10005e-19
-8.16893e-19
-9.04359e-19
-1.03587e-18
-1.13666e-18
-1.23874e-18
-1.29536e-18
-1.39911e-18
-1.43636e-18
-1.48265e-18
-1.46229e-18
-1.6373e-18
-1.70185e-18
-1.77108e-18
-1.67372e-18
-1.70363e-18
-1.51886e-18
-1.33247e-18
-1.06236e-18
-7.00241e-19
-2.12805e-19
2.96262e-19
5.95961e-19
1.94528e-18
1.42356e-18
-2.62571e-19
)
;

boundaryField
{
    inandouthalf11
    {
        type            cyclic;
        value           nonuniform List<scalar> 
100
(
-8.28399e-13
-7.87837e-13
-7.42957e-13
-7.04311e-13
-6.66251e-13
-6.26567e-13
-5.85635e-13
-5.43976e-13
-5.01815e-13
-4.59199e-13
-4.16049e-13
-3.72272e-13
-3.27829e-13
-2.82721e-13
-2.36971e-13
-1.90586e-13
-1.43561e-13
-9.58819e-14
-4.75384e-14
1.48433e-15
5.12093e-14
1.01665e-13
1.52914e-13
2.05028e-13
2.58091e-13
3.1219e-13
3.674e-13
4.23767e-13
4.81283e-13
5.39833e-13
5.99186e-13
6.5901e-13
7.18891e-13
7.78405e-13
8.37249e-13
8.95331e-13
9.5295e-13
1.01091e-12
1.07064e-12
1.1343e-12
1.205e-12
1.28692e-12
1.38503e-12
1.50341e-12
1.64086e-12
1.78444e-12
1.90928e-12
1.99331e-12
2.03504e-12
2.0501e-12
2.05414e-12
2.05496e-12
2.05504e-12
2.05496e-12
2.05485e-12
2.05472e-12
2.05458e-12
2.05443e-12
2.05427e-12
2.0541e-12
2.05393e-12
2.05375e-12
2.05356e-12
2.05337e-12
2.05317e-12
2.05297e-12
2.05277e-12
2.05255e-12
2.05233e-12
2.0521e-12
2.05186e-12
2.05161e-12
2.05136e-12
2.0511e-12
2.05082e-12
2.05055e-12
2.05026e-12
2.04997e-12
2.04968e-12
2.04938e-12
2.04907e-12
2.04875e-12
2.04842e-12
2.04808e-12
2.04774e-12
2.04739e-12
2.04702e-12
2.04666e-12
2.04628e-12
2.0459e-12
2.0455e-12
2.0451e-12
2.04469e-12
2.04427e-12
2.04384e-12
2.0434e-12
2.04295e-12
2.04248e-12
2.04201e-12
2.04152e-12
)
;
    }
    inandouthalf12
    {
        type            cyclic;
        value           nonuniform List<scalar> 
100
(
8.28399e-13
7.87837e-13
7.42957e-13
7.04311e-13
6.66251e-13
6.26567e-13
5.85635e-13
5.43976e-13
5.01815e-13
4.59199e-13
4.16049e-13
3.72272e-13
3.27829e-13
2.82721e-13
2.36971e-13
1.90586e-13
1.43561e-13
9.58819e-14
4.75384e-14
-1.48433e-15
-5.12093e-14
-1.01665e-13
-1.52914e-13
-2.05028e-13
-2.58091e-13
-3.1219e-13
-3.674e-13
-4.23767e-13
-4.81283e-13
-5.39833e-13
-5.99186e-13
-6.5901e-13
-7.18891e-13
-7.78405e-13
-8.37249e-13
-8.95331e-13
-9.5295e-13
-1.01091e-12
-1.07064e-12
-1.1343e-12
-1.205e-12
-1.28692e-12
-1.38503e-12
-1.50341e-12
-1.64086e-12
-1.78444e-12
-1.90928e-12
-1.99331e-12
-2.03504e-12
-2.0501e-12
-2.05414e-12
-2.05496e-12
-2.05504e-12
-2.05496e-12
-2.05485e-12
-2.05472e-12
-2.05458e-12
-2.05443e-12
-2.05427e-12
-2.0541e-12
-2.05393e-12
-2.05375e-12
-2.05356e-12
-2.05337e-12
-2.05317e-12
-2.05297e-12
-2.05277e-12
-2.05255e-12
-2.05233e-12
-2.0521e-12
-2.05186e-12
-2.05161e-12
-2.05136e-12
-2.0511e-12
-2.05082e-12
-2.05055e-12
-2.05026e-12
-2.04997e-12
-2.04968e-12
-2.04938e-12
-2.04907e-12
-2.04875e-12
-2.04842e-12
-2.04808e-12
-2.04774e-12
-2.04739e-12
-2.04702e-12
-2.04666e-12
-2.04628e-12
-2.0459e-12
-2.0455e-12
-2.0451e-12
-2.04469e-12
-2.04427e-12
-2.04384e-12
-2.0434e-12
-2.04295e-12
-2.04248e-12
-2.04201e-12
-2.04152e-12
)
;
    }
    inandouthalf21
    {
        type            cyclic;
        value           nonuniform List<scalar> 
100
(
2.04103e-12
2.04052e-12
2.04e-12
2.03946e-12
2.03892e-12
2.03835e-12
2.03778e-12
2.03718e-12
2.03657e-12
2.03595e-12
2.03531e-12
2.03464e-12
2.03396e-12
2.03326e-12
2.03254e-12
2.0318e-12
2.03103e-12
2.03024e-12
2.02943e-12
2.02859e-12
2.02772e-12
2.02682e-12
2.02589e-12
2.02493e-12
2.02394e-12
2.02291e-12
2.02184e-12
2.02074e-12
2.01959e-12
2.01839e-12
2.01713e-12
2.01583e-12
2.01446e-12
2.01302e-12
2.01149e-12
2.00986e-12
2.00815e-12
2.00633e-12
2.00431e-12
2.00198e-12
1.99946e-12
1.99705e-12
1.99416e-12
1.9904e-12
1.98574e-12
1.97964e-12
4.20603e-12
1.46985e-09
8.89886e-08
1.86936e-07
2.62167e-07
3.23079e-07
3.73847e-07
4.16969e-07
4.54158e-07
4.86653e-07
5.15384e-07
5.41057e-07
5.64219e-07
5.85297e-07
6.04623e-07
6.22466e-07
6.39037e-07
6.54509e-07
6.69022e-07
6.82694e-07
6.95618e-07
7.07877e-07
7.19537e-07
7.30656e-07
7.41283e-07
7.51458e-07
7.61218e-07
7.70594e-07
7.79613e-07
7.88296e-07
7.96664e-07
8.04735e-07
8.12522e-07
8.20039e-07
8.27297e-07
8.34304e-07
8.41068e-07
8.47594e-07
8.53889e-07
8.59955e-07
8.65795e-07
8.71411e-07
8.76801e-07
8.81967e-07
8.86907e-07
8.9162e-07
8.96103e-07
9.00355e-07
9.04372e-07
9.08151e-07
9.11692e-07
9.14991e-07
9.18048e-07
9.20862e-07
)
;
    }
    inandouthalf22
    {
        type            cyclic;
        value           nonuniform List<scalar> 
100
(
-2.04103e-12
-2.04052e-12
-2.04e-12
-2.03946e-12
-2.03892e-12
-2.03835e-12
-2.03778e-12
-2.03718e-12
-2.03657e-12
-2.03595e-12
-2.03531e-12
-2.03464e-12
-2.03396e-12
-2.03326e-12
-2.03254e-12
-2.0318e-12
-2.03103e-12
-2.03024e-12
-2.02943e-12
-2.02859e-12
-2.02772e-12
-2.02682e-12
-2.02589e-12
-2.02493e-12
-2.02394e-12
-2.02291e-12
-2.02184e-12
-2.02074e-12
-2.01959e-12
-2.01839e-12
-2.01713e-12
-2.01583e-12
-2.01446e-12
-2.01302e-12
-2.01149e-12
-2.00986e-12
-2.00815e-12
-2.00633e-12
-2.00431e-12
-2.00198e-12
-1.99946e-12
-1.99705e-12
-1.99416e-12
-1.9904e-12
-1.98574e-12
-1.97964e-12
-4.20603e-12
-1.46985e-09
-8.89886e-08
-1.86936e-07
-2.62167e-07
-3.23079e-07
-3.73847e-07
-4.16969e-07
-4.54158e-07
-4.86653e-07
-5.15384e-07
-5.41057e-07
-5.64219e-07
-5.85297e-07
-6.04623e-07
-6.22466e-07
-6.39037e-07
-6.54509e-07
-6.69022e-07
-6.82694e-07
-6.95618e-07
-7.07877e-07
-7.19537e-07
-7.30656e-07
-7.41283e-07
-7.51458e-07
-7.61218e-07
-7.70594e-07
-7.79613e-07
-7.88296e-07
-7.96664e-07
-8.04735e-07
-8.12522e-07
-8.20039e-07
-8.27297e-07
-8.34304e-07
-8.41068e-07
-8.47594e-07
-8.53889e-07
-8.59955e-07
-8.65795e-07
-8.71411e-07
-8.76801e-07
-8.81967e-07
-8.86907e-07
-8.9162e-07
-8.96103e-07
-9.00355e-07
-9.04372e-07
-9.08151e-07
-9.11692e-07
-9.14991e-07
-9.18048e-07
-9.20862e-07
)
;
    }
    inandouthalf31
    {
        type            cyclic;
        value           nonuniform List<scalar> 
110
(
9.23438e-07
9.44586e-07
9.66006e-07
9.87687e-07
1.00962e-06
1.03181e-06
1.05424e-06
1.07691e-06
1.09983e-06
1.12301e-06
1.14644e-06
1.17014e-06
1.19412e-06
1.21838e-06
1.24295e-06
1.26781e-06
1.29299e-06
1.3185e-06
1.34433e-06
1.3705e-06
1.39702e-06
1.42388e-06
1.45111e-06
1.47869e-06
1.50664e-06
1.53496e-06
1.56366e-06
1.59274e-06
1.62221e-06
1.65209e-06
1.68236e-06
1.71305e-06
1.74416e-06
1.7757e-06
1.80768e-06
1.84012e-06
1.87303e-06
1.90642e-06
1.94031e-06
1.97474e-06
2.00971e-06
2.04527e-06
2.08147e-06
2.11834e-06
2.15596e-06
2.19442e-06
2.23384e-06
2.27441e-06
2.31643e-06
2.36108e-06
2.40864e-06
2.45752e-06
2.50739e-06
2.55829e-06
2.61021e-06
2.66319e-06
2.71725e-06
2.7724e-06
2.82867e-06
2.88608e-06
2.94466e-06
3.00443e-06
3.06541e-06
3.12763e-06
3.19111e-06
3.25589e-06
3.32197e-06
3.3894e-06
3.45819e-06
3.52839e-06
3.6e-06
3.67307e-06
3.74763e-06
3.82369e-06
3.9013e-06
3.98049e-06
4.06128e-06
4.14372e-06
4.22782e-06
4.31364e-06
4.40119e-06
4.49053e-06
4.58167e-06
4.67467e-06
4.76955e-06
4.86636e-06
4.96513e-06
5.06591e-06
5.16874e-06
5.27365e-06
5.38069e-06
5.4899e-06
5.60133e-06
5.71503e-06
5.83103e-06
5.94938e-06
6.07014e-06
6.19334e-06
6.31905e-06
6.44731e-06
6.57818e-06
6.7117e-06
6.84792e-06
6.98692e-06
7.12873e-06
7.27343e-06
7.42106e-06
7.57169e-06
7.72537e-06
7.88218e-06
)
;
    }
    inandouthalf32
    {
        type            cyclic;
        value           nonuniform List<scalar> 
110
(
-9.23438e-07
-9.44586e-07
-9.66006e-07
-9.87687e-07
-1.00962e-06
-1.03181e-06
-1.05424e-06
-1.07691e-06
-1.09983e-06
-1.12301e-06
-1.14644e-06
-1.17014e-06
-1.19412e-06
-1.21838e-06
-1.24295e-06
-1.26781e-06
-1.29299e-06
-1.3185e-06
-1.34433e-06
-1.3705e-06
-1.39702e-06
-1.42388e-06
-1.45111e-06
-1.47869e-06
-1.50664e-06
-1.53496e-06
-1.56366e-06
-1.59274e-06
-1.62221e-06
-1.65209e-06
-1.68236e-06
-1.71305e-06
-1.74416e-06
-1.7757e-06
-1.80768e-06
-1.84012e-06
-1.87303e-06
-1.90642e-06
-1.94031e-06
-1.97474e-06
-2.00971e-06
-2.04527e-06
-2.08147e-06
-2.11834e-06
-2.15596e-06
-2.19442e-06
-2.23384e-06
-2.27441e-06
-2.31643e-06
-2.36108e-06
-2.40864e-06
-2.45752e-06
-2.50739e-06
-2.55829e-06
-2.61021e-06
-2.66319e-06
-2.71725e-06
-2.7724e-06
-2.82867e-06
-2.88608e-06
-2.94466e-06
-3.00443e-06
-3.06541e-06
-3.12763e-06
-3.19111e-06
-3.25589e-06
-3.32197e-06
-3.3894e-06
-3.45819e-06
-3.52839e-06
-3.6e-06
-3.67307e-06
-3.74763e-06
-3.82369e-06
-3.9013e-06
-3.98049e-06
-4.06128e-06
-4.14372e-06
-4.22782e-06
-4.31364e-06
-4.40119e-06
-4.49053e-06
-4.58167e-06
-4.67467e-06
-4.76955e-06
-4.86636e-06
-4.96513e-06
-5.06591e-06
-5.16874e-06
-5.27365e-06
-5.38069e-06
-5.4899e-06
-5.60133e-06
-5.71503e-06
-5.83103e-06
-5.94938e-06
-6.07014e-06
-6.19334e-06
-6.31905e-06
-6.44731e-06
-6.57818e-06
-6.7117e-06
-6.84792e-06
-6.98692e-06
-7.12873e-06
-7.27343e-06
-7.42106e-06
-7.57169e-06
-7.72537e-06
-7.88218e-06
)
;
    }
    inandouthalf41
    {
        type            cyclic;
        value           nonuniform List<scalar> 
50
(
7.05535e-06
7.05535e-06
7.05535e-06
7.05535e-06
7.05535e-06
7.05535e-06
7.05535e-06
7.05535e-06
7.05535e-06
7.05535e-06
7.05535e-06
7.05535e-06
7.05535e-06
7.05535e-06
7.05535e-06
7.05535e-06
7.05535e-06
7.05535e-06
7.05535e-06
7.05535e-06
7.05535e-06
7.05535e-06
7.05535e-06
7.05535e-06
7.05535e-06
7.05535e-06
7.05535e-06
7.05535e-06
7.05535e-06
7.05535e-06
7.05535e-06
7.05535e-06
7.05535e-06
7.05535e-06
7.05535e-06
7.05535e-06
7.05535e-06
7.05535e-06
7.05535e-06
7.05535e-06
7.05535e-06
7.05535e-06
7.05535e-06
7.05535e-06
7.05535e-06
7.05535e-06
7.05535e-06
7.05535e-06
7.05535e-06
7.05535e-06
)
;
    }
    inandouthalf42
    {
        type            cyclic;
        value           nonuniform List<scalar> 
50
(
-7.05535e-06
-7.05535e-06
-7.05535e-06
-7.05535e-06
-7.05535e-06
-7.05535e-06
-7.05535e-06
-7.05535e-06
-7.05535e-06
-7.05535e-06
-7.05535e-06
-7.05535e-06
-7.05535e-06
-7.05535e-06
-7.05535e-06
-7.05535e-06
-7.05535e-06
-7.05535e-06
-7.05535e-06
-7.05535e-06
-7.05535e-06
-7.05535e-06
-7.05535e-06
-7.05535e-06
-7.05535e-06
-7.05535e-06
-7.05535e-06
-7.05535e-06
-7.05535e-06
-7.05535e-06
-7.05535e-06
-7.05535e-06
-7.05535e-06
-7.05535e-06
-7.05535e-06
-7.05535e-06
-7.05535e-06
-7.05535e-06
-7.05535e-06
-7.05535e-06
-7.05535e-06
-7.05535e-06
-7.05535e-06
-7.05535e-06
-7.05535e-06
-7.05535e-06
-7.05535e-06
-7.05535e-06
-7.05535e-06
-7.05535e-06
)
;
    }
    top
    {
        type            symmetryPlane;
        value           uniform 0;
    }
    walls
    {
        type            fixedValue;
        value           uniform 0;
    }
    frontAndBackPlanes
    {
        type            empty;
        value           nonuniform 0();
    }
}


// ************************************************************************* //
