/*--------------------------------*- C++ -*----------------------------------*\
| =========                 |                                                 |
| \\      /  F ield         | OpenFOAM: The Open Source CFD Toolbox           |
|  \\    /   O peration     | Version:  2.4.x                                 |
|   \\  /    A nd           | Web:      www.OpenFOAM.org                      |
|    \\/     M anipulation  |                                                 |
\*---------------------------------------------------------------------------*/
FoamFile
{
    version     2.0;
    format      ascii;
    class       volTensorField;
    location    "5.2";
    object      Taus;
}
// * * * * * * * * * * * * * * * * * * * * * * * * * * * * * * * * * * * * * //

dimensions      [0 2 -2 0 0 0 0];

internalField   nonuniform List<tensor> 
360
(
(0 -0.0153168 0 -0.0153168 -0.19029 0 0 0 0)
(0 -0.0211476 0 -0.0211476 -0.228894 0 0 0 0)
(0 -0.025636 0 -0.025636 -0.236587 0 0 0 0)
(0 -0.0256737 0 -0.0256737 -0.232345 0 0 0 0)
(1.6147e-17 -0.0250277 0 -0.0250277 -0.229153 0 0 0 0)
(1.5539e-17 -0.0249083 0 -0.0249083 -0.227544 0 0 0 0)
(1.51977e-17 -0.0249535 0 -0.0249535 -0.226079 0 0 0 0)
(0 -0.0249863 0 -0.0249863 -0.22451 0 0 0 0)
(2.96726e-17 -0.0250085 0 -0.0250085 -0.222948 0 0 0 0)
(0 -0.0250133 0 -0.0250133 -0.221336 0 0 0 0)
(2.89278e-17 -0.0250023 0 -0.0250023 -0.219681 0 0 0 0)
(0 -0.0249896 0 -0.0249896 -0.218035 0 0 0 0)
(2.80565e-17 -0.0249788 0 -0.0249788 -0.21639 0 0 0 0)
(0 -0.0249729 0 -0.0249729 -0.214761 0 0 0 0)
(0 -0.0249687 0 -0.0249687 -0.213135 0 0 0 0)
(0 -0.024962 0 -0.024962 -0.211502 0 0 0 0)
(0 -0.024953 0 -0.024953 -0.209863 0 0 0 0)
(2.61327e-17 -0.0249441 0 -0.0249441 -0.208226 0 0 0 0)
(0 -0.0249349 0 -0.0249349 -0.206593 0 0 0 0)
(0 -0.0249237 0 -0.0249237 -0.204945 0 0 0 0)
(0 -0.0249164 0 -0.0249164 -0.20332 0 0 0 0)
(4.92749e-17 -0.0249059 0 -0.0249059 -0.201678 0 0 0 0)
(0 -0.024894 0 -0.024894 -0.200037 0 0 0 0)
(0 -0.0248809 0 -0.0248809 -0.198395 0 0 0 0)
(0 -0.0248652 0 -0.0248652 -0.196746 0 0 0 0)
(4.57468e-17 -0.0248476 0 -0.0248476 -0.195095 0 0 0 0)
(0 -0.0248277 0 -0.0248277 -0.193445 0 0 0 0)
(0 -0.0248008 0 -0.0248008 -0.191775 0 0 0 0)
(0 -0.0247717 0 -0.0247717 -0.190105 0 0 0 0)
(0 -0.0247431 0 -0.0247431 -0.188439 0 0 0 0)
(0 -0.0247148 0 -0.0247148 -0.186777 0 0 0 0)
(0 -0.0246886 0 -0.0246886 -0.185106 0 0 0 0)
(0 -0.0246758 0 -0.0246758 -0.183484 0 0 0 0)
(0 -0.0246672 0 -0.0246672 -0.181838 0 0 0 0)
(0 -0.0246786 0 -0.0246786 -0.180251 0 0 0 0)
(-8.59406e-17 -0.0247041 0 -0.0247041 -0.178668 0 0 0 0)
(0 -0.0247432 0 -0.0247432 -0.177116 0 0 0 0)
(0 -0.0247821 0 -0.0247821 -0.175552 0 0 0 0)
(0 -0.024811 0 -0.024811 -0.173956 0 0 0 0)
(0 -0.0248213 0 -0.0248213 -0.172359 0 0 0 0)
(0 -0.0247679 0 -0.0247679 -0.170635 0 0 0 0)
(0 -0.0246341 0 -0.0246341 -0.168809 0 0 0 0)
(-4.54268e-17 -0.0243904 0 -0.0243904 -0.166838 0 0 0 0)
(0 -0.0240135 0 -0.0240135 -0.164633 0 0 0 0)
(0 -0.0235562 0 -0.0235562 -0.162298 0 0 0 0)
(0 -0.0231098 0 -0.0231098 -0.159961 0 0 0 0)
(0 -0.0227978 0 -0.0227978 -0.157895 0 0 0 0)
(0 -0.0227161 0 -0.0227161 -0.156354 0 0 0 0)
(0 -0.0228627 0 -0.0228627 -0.155244 0 0 0 0)
(0 -0.023183 0 -0.023183 -0.154369 0 0 0 0)
(-3.73396e-15 -0.0236233 0 -0.0236233 -0.153596 0 0 0 0)
(0 -0.0241112 0 -0.0241112 -0.152727 0 0 0 0)
(0 -0.0246139 0 -0.0246139 -0.15176 0 0 0 0)
(0 -0.0251063 0 -0.0251063 -0.150662 0 0 0 0)
(0 -0.0255597 0 -0.0255597 -0.14951 0 0 0 0)
(0 -0.025888 0 -0.025888 -0.148301 0 0 0 0)
(0 -0.0260289 0 -0.0260289 -0.147184 0 0 0 0)
(0 -0.0259574 0 -0.0259574 -0.146122 0 0 0 0)
(0 -0.0257666 0 -0.0257666 -0.145131 0 0 0 0)
(0 -0.0255647 0 -0.0255647 -0.144162 0 0 0 0)
(0 -0.0254022 0 -0.0254022 -0.143123 0 0 0 0)
(0 -0.0253132 0 -0.0253132 -0.142075 0 0 0 0)
(0 -0.0252776 0 -0.0252776 -0.14096 0 0 0 0)
(0 -0.0252877 0 -0.0252877 -0.139824 0 0 0 0)
(0 -0.0253255 0 -0.0253255 -0.138651 0 0 0 0)
(0 -0.0253781 0 -0.0253781 -0.137455 0 0 0 0)
(0 -0.0254294 0 -0.0254294 -0.13622 0 0 0 0)
(0 -0.0254725 0 -0.0254725 -0.134955 0 0 0 0)
(0 -0.0255044 0 -0.0255044 -0.133661 0 0 0 0)
(0 -0.0255197 0 -0.0255197 -0.132347 0 0 0 0)
(0 -0.0255044 0 -0.0255044 -0.130984 0 0 0 0)
(0 -0.0254675 0 -0.0254675 -0.129591 0 0 0 0)
(0 -0.0254209 0 -0.0254209 -0.128199 0 0 0 0)
(0 -0.025353 0 -0.025353 -0.126766 0 0 0 0)
(0 -0.025273 0 -0.025273 -0.125327 0 0 0 0)
(0 -0.0251824 0 -0.0251824 -0.123863 0 0 0 0)
(0 -0.0250905 0 -0.0250905 -0.122403 0 0 0 0)
(0 -0.0249931 0 -0.0249931 -0.120928 0 0 0 0)
(0 -0.0248876 0 -0.0248876 -0.119439 0 0 0 0)
(0 -0.0247745 0 -0.0247745 -0.117937 0 0 0 0)
(0 -0.024655 0 -0.024655 -0.116425 0 0 0 0)
(0 -0.0245251 0 -0.0245251 -0.114894 0 0 0 0)
(0 -0.0243851 0 -0.0243851 -0.113346 0 0 0 0)
(0 -0.0242371 0 -0.0242371 -0.111785 0 0 0 0)
(0 -0.0240821 0 -0.0240821 -0.110208 0 0 0 0)
(0 -0.023922 0 -0.023922 -0.10862 0 0 0 0)
(0 -0.023758 0 -0.023758 -0.107019 0 0 0 0)
(0 -0.0235922 0 -0.0235922 -0.105411 0 0 0 0)
(0 -0.0234246 0 -0.0234246 -0.103795 0 0 0 0)
(0 -0.0232542 0 -0.0232542 -0.102169 0 0 0 0)
(0 -0.0230808 0 -0.0230808 -0.100536 0 0 0 0)
(0 -0.0229036 0 -0.0229036 -0.0988942 0 0 0 0)
(0 -0.0227213 0 -0.0227213 -0.0972432 0 0 0 0)
(0 -0.0225336 0 -0.0225336 -0.0955837 0 0 0 0)
(0 -0.0223408 0 -0.0223408 -0.0939161 0 0 0 0)
(0 -0.0221431 0 -0.0221431 -0.0922407 0 0 0 0)
(0 -0.0219407 0 -0.0219407 -0.0905582 0 0 0 0)
(0 -0.0217344 0 -0.0217344 -0.0888693 0 0 0 0)
(0 -0.0215243 0 -0.0215243 -0.0871744 0 0 0 0)
(0 -0.0213106 0 -0.0213106 -0.0854737 0 0 0 0)
(0 -0.0210934 0 -0.0210934 -0.0837676 0 0 0 0)
(0 -0.0208727 0 -0.0208727 -0.0820563 0 0 0 0)
(0 -0.0206484 0 -0.0206484 -0.0803399 0 0 0 0)
(0 -0.0204207 0 -0.0204207 -0.0786186 0 0 0 0)
(0 -0.0201897 0 -0.0201897 -0.0768927 0 0 0 0)
(0 -0.0199554 0 -0.0199554 -0.0751624 0 0 0 0)
(0 -0.0197179 0 -0.0197179 -0.0734278 0 0 0 0)
(0 -0.0194775 0 -0.0194775 -0.0716893 0 0 0 0)
(0 -0.0192342 0 -0.0192342 -0.0699468 0 0 0 0)
(0 -0.0189881 0 -0.0189881 -0.0682007 0 0 0 0)
(0 -0.0187393 0 -0.0187393 -0.066451 0 0 0 0)
(0 -0.0184881 0 -0.0184881 -0.0646978 0 0 0 0)
(0 -0.0182347 0 -0.0182347 -0.0629413 0 0 0 0)
(0 -0.0179793 0 -0.0179793 -0.0611815 0 0 0 0)
(0 -0.0177222 0 -0.0177222 -0.0594186 0 0 0 0)
(0 -0.0174638 0 -0.0174638 -0.0576527 0 0 0 0)
(0 -0.0172046 0 -0.0172046 -0.0558838 0 0 0 0)
(0 -0.0169448 0 -0.0169448 -0.0541119 0 0 0 0)
(0 -0.0166849 0 -0.0166849 -0.0523372 0 0 0 0)
(0 -0.0164254 0 -0.0164254 -0.0505594 0 0 0 0)
(0 -0.0161668 0 -0.0161668 -0.0487787 0 0 0 0)
(0 -0.0159094 0 -0.0159094 -0.0469949 0 0 0 0)
(0 -0.0156539 0 -0.0156539 -0.045208 0 0 0 0)
(0 -0.0154007 0 -0.0154007 -0.0434178 0 0 0 0)
(0 -0.0151504 0 -0.0151504 -0.0416242 0 0 0 0)
(0 -0.0149028 0 -0.0149028 -0.0398266 0 0 0 0)
(0 -0.0146577 0 -0.0146577 -0.0380246 0 0 0 0)
(0 -0.0144138 0 -0.0144138 -0.0362171 0 0 0 0)
(0 -0.0141701 0 -0.0141701 -0.034403 0 0 0 0)
(0 -0.0139265 0 -0.0139265 -0.0325809 0 0 0 0)
(0 -0.0136849 0 -0.0136849 -0.0307491 0 0 0 0)
(0 -0.0134469 0 -0.0134469 -0.0289056 0 0 0 0)
(0 -0.0132094 0 -0.0132094 -0.0270475 0 0 0 0)
(0 -0.012961 0 -0.012961 -0.0251716 0 0 0 0)
(0 -0.0126933 0 -0.0126933 -0.0232746 0 0 0 0)
(0 -0.0124142 0 -0.0124142 -0.0213546 0 0 0 0)
(0 -0.0121354 0 -0.0121354 -0.0194098 0 0 0 0)
(0 -0.0118343 0 -0.0118343 -0.0174502 0 0 0 0)
(0 -0.0114413 0 -0.0114413 -0.0155138 0 0 0 0)
(0 -0.0109164 0 -0.0109164 -0.0136182 0 0 0 0)
(0 -0.0103756 0 -0.0103756 -0.0116944 0 0 0 0)
(0 -0.00996898 0 -0.00996898 -0.00971603 0 0 0 0)
(0 -0.00945981 0 -0.00945981 -0.00753977 0 0 0 0)
(0 -0.00876 0 -0.00876 -0.00498819 0 0 0 0)
(0 -0.00792151 0 -0.00792151 -0.000953303 0 0 0 0)
(0 -0.00591748 0 -0.00591748 0.00262701 0 0 0 0)
(0 -0.00264563 0 -0.00264563 -8.49718e-05 0 0 0 0)
(0 -0.0015249 0 -0.0015249 -1.17475e-05 0 0 0 0)
(0 -0.00242599 0 -0.00242599 -9.70855e-06 0 0 0 0)
(0 -0.00253052 0 -0.00253052 -3.71003e-06 0 0 0 0)
(0 -0.00214106 0 -0.00214106 -3.25275e-06 0 0 0 0)
(0 -0.00191822 0 -0.00191822 -1.8989e-06 0 0 0 0)
(0 -0.00181946 0 -0.00181946 -1.23258e-06 0 0 0 0)
(0 -0.00181417 0 -0.00181417 -2.15604e-07 0 0 0 0)
(0 -0.00188252 0 -0.00188252 1.27376e-06 0 0 0 0)
(0 -0.00201219 0 -0.00201219 3.46953e-06 0 0 0 0)
(0 -0.00219569 0 -0.00219569 6.64571e-06 0 0 0 0)
(0 -0.00242879 0 -0.00242879 1.11198e-05 0 0 0 0)
(0 -0.00270939 0 -0.00270939 1.72473e-05 0 0 0 0)
(0 -0.00303694 0 -0.00303694 2.54244e-05 0 0 0 0)
(0 -0.00341196 0 -0.00341196 3.6096e-05 0 0 0 0)
(0 -0.00383565 0 -0.00383565 4.97728e-05 0 0 0 0)
(0 -0.00430972 0 -0.00430972 6.70277e-05 0 0 0 0)
(0 -0.00483613 0 -0.00483613 8.84949e-05 0 0 0 0)
(0 -0.00541698 0 -0.00541698 0.000114909 0 0 0 0)
(0 -0.00605432 0 -0.00605432 0.000147109 0 0 0 0)
(0 -0.00675008 0 -0.00675008 0.000186029 0 0 0 0)
(0 -0.00750591 0 -0.00750591 0.00023272 0 0 0 0)
(0 -0.00832311 0 -0.00832311 0.000288359 0 0 0 0)
(0 -0.00920249 0 -0.00920249 0.000354261 0 0 0 0)
(0 -0.0101443 0 -0.0101443 0.000431886 0 0 0 0)
(0 -0.011148 0 -0.011148 0.000522851 0 0 0 0)
(0 -0.0122125 0 -0.0122125 0.00062893 0 0 0 0)
(0 -0.0133356 0 -0.0133356 0.000752063 0 0 0 0)
(0 -0.0145144 0 -0.0145144 0.00089434 0 0 0 0)
(0 -0.0157449 0 -0.0157449 0.001058 0 0 0 0)
(0 -0.017022 0 -0.017022 0.0012454 0 0 0 0)
(0 -0.0183398 0 -0.0183398 0.00145898 0 0 0 0)
(0 -0.0196915 0 -0.0196915 0.00170096 0 0 0 0)
(0 -0.0210702 0 -0.0210702 0.00197239 0 0 0 0)
(0 -0.0224702 0 -0.0224702 0.00227114 0 0 0 0)
(0 -0.023891 0 -0.023891 0.00258852 0 0 0 0)
(0 -0.025341 0 -0.025341 0.00290569 0 0 0 0)
(0 -0.0268423 0 -0.0268423 0.00319181 0 0 0 0)
(0 -0.0284306 0 -0.0284306 0.00340673 0 0 0 0)
(0 -0.0301491 0 -0.0301491 0.00350914 0 0 0 0)
(0 -0.0320352 0 -0.0320352 0.00346865 0 0 0 0)
(0 -0.0341036 0 -0.0341036 0.00327754 0 0 0 0)
(0 -0.0363346 0 -0.0363346 0.00295641 0 0 0 0)
(0 -0.0386737 0 -0.0386737 0.00255067 0 0 0 0)
(0 -0.041041 0 -0.041041 0.00212177 0 0 0 0)
(0 -0.0433383 0 -0.0433383 0.00173733 0 0 0 0)
(0 -0.0454727 0 -0.0454727 0.00144828 0 0 0 0)
(0 -0.047434 0 -0.047434 0.00124604 0 0 0 0)
(0 -0.0493557 0 -0.0493557 0.00104328 0 0 0 0)
(0 -0.051428 0 -0.051428 0.000727251 0 0 0 0)
(0 -0.0537354 0 -0.0537354 0.000243452 0 0 0 0)
(0 -0.0562023 0 -0.0562023 -0.000374371 0 0 0 0)
(0 -0.0586767 0 -0.0586767 -0.00104916 0 0 0 0)
(0 -0.0610583 0 -0.0610583 -0.00172681 0 0 0 0)
(0 -0.063309 0 -0.063309 -0.00238016 0 0 0 0)
(0 -0.0653508 0 -0.0653508 -0.00296677 0 0 0 0)
(1.0398e-14 -0.0671102 0 -0.0671102 -0.00347225 0 0 0 0)
(0 -0.0687789 0 -0.0687789 -0.00397269 0 0 0 0)
(0 -0.0703542 0 -0.0703542 -0.00446687 0 0 0 0)
(-1.29487e-14 -0.0714571 0 -0.0714571 -0.00483112 0 0 0 0)
(0 -0.0722734 0 -0.0722734 -0.00513557 0 0 0 0)
(1.44723e-14 -0.0731183 0 -0.0731183 -0.00551042 0 0 0 0)
(0 -0.0735816 0 -0.0735816 -0.00582323 0 0 0 0)
(0 -0.0735985 0 -0.0735985 -0.00603052 0 0 0 0)
(0 -0.0735193 0 -0.0735193 -0.00627462 0 0 0 0)
(0 -0.0731743 0 -0.0731743 -0.00651901 0 0 0 0)
(0 -0.0725412 0 -0.0725412 -0.00674932 0 0 0 0)
(-1.72069e-14 -0.0717975 0 -0.0717975 -0.00703133 0 0 0 0)
(0 -0.0707021 0 -0.0707021 -0.00725726 0 0 0 0)
(0 -0.0694204 0 -0.0694204 -0.00751693 0 0 0 0)
(0 -0.0682074 0 -0.0682074 -0.00794153 0 0 0 0)
(0 -0.0665884 0 -0.0665884 -0.00825511 0 0 0 0)
(0 -0.0646794 0 -0.0646794 -0.00849527 0 0 0 0)
(0 -0.0628527 0 -0.0628527 -0.00891388 0 0 0 0)
(0 -0.0608395 0 -0.0608395 -0.00934086 0 0 0 0)
(1.61566e-14 -0.0586019 0 -0.0586019 -0.00970709 0 0 0 0)
(0 -0.0562097 0 -0.0562097 -0.0100576 0 0 0 0)
(1.52861e-14 -0.0537487 0 -0.0537487 -0.0104776 0 0 0 0)
(0 -0.0513292 0 -0.0513292 -0.0110582 0 0 0 0)
(0 -0.0486883 0 -0.0486883 -0.0115471 0 0 0 0)
(0 -0.0459339 0 -0.0459339 -0.0120494 0 0 0 0)
(0 -0.043217 0 -0.043217 -0.0127462 0 0 0 0)
(-1.24634e-14 -0.0402981 0 -0.0402981 -0.0133728 0 0 0 0)
(-1.17927e-14 -0.0371829 0 -0.0371829 -0.0139442 0 0 0 0)
(0 -0.0339623 0 -0.0339623 -0.0146083 0 0 0 0)
(0 -0.0307228 0 -0.0307228 -0.015553 0 0 0 0)
(0 -0.0275255 0 -0.0275255 -0.0171435 0 0 0 0)
(0 -0.023593 0 -0.023593 -0.0180159 0 0 0 0)
(0 -0.0182813 0 -0.0182813 -0.0165122 0 0 0 0)
(0 -0.0148613 0 -0.0148613 -0.016751 0 0 0 0)
(0 -0 0 -0 -0 0 0 0 0)
(0 -0 0 -0 -0 0 0 0 0)
(0 0 0 0 -0 0 0 0 0)
(0 0 0 0 -0 0 0 0 0)
(0 0 0 0 -0 0 0 0 0)
(0 0 0 0 0 0 0 0 0)
(0 0 0 0 -0 0 0 0 0)
(0 0 0 0 0 0 0 0 0)
(-0 0 0 0 0 0 0 0 0)
(0 0 0 0 0 0 0 0 0)
(0 0 0 0 0 0 0 0 0)
(0 0 0 0 0 0 0 0 0)
(0 0 0 0 0 0 0 0 0)
(0 0 0 0 0 0 0 0 0)
(0 0 0 0 0 0 0 0 0)
(0 0 0 0 0 0 0 0 0)
(0 0 0 0 0 0 0 0 0)
(0 0 0 0 0 0 0 0 0)
(0 0 0 0 -0 0 0 0 0)
(0 0 0 0 0 0 0 0 0)
(0 0 0 0 -0 0 0 0 0)
(0 0 0 0 0 0 0 0 0)
(0 0 0 0 -0 0 0 0 0)
(0 0 0 0 0 0 0 0 0)
(0 0 0 0 -0 0 0 0 0)
(0 0 0 0 0 0 0 0 0)
(0 0 0 0 -0 0 0 0 0)
(0 0 0 0 0 0 0 0 0)
(0 0 0 0 -0 0 0 0 0)
(0 0 0 0 0 0 0 0 0)
(-0 0 0 0 -0 0 0 0 0)
(0 0 0 0 0 0 0 0 0)
(0 0 0 0 -0 0 0 0 0)
(0 0 0 0 0 0 0 0 0)
(0 0 0 0 0 0 0 0 0)
(0 0 0 0 -0 0 0 0 0)
(0 0 0 0 -0 0 0 0 0)
(0 0 0 0 0 0 0 0 0)
(0 0 0 0 -0 0 0 0 0)
(0 0 0 0 0 0 0 0 0)
(0 0 0 0 -0 0 0 0 0)
(0 0 0 0 0 0 0 0 0)
(0 0 0 0 -0 0 0 0 0)
(0 0 0 0 0 0 0 0 0)
(0 0 0 0 -0 0 0 0 0)
(0 0 0 0 0 0 0 0 0)
(0 0 0 0 -0 0 0 0 0)
(0 0 0 0 0 0 0 0 0)
(0 0 0 0 -0 0 0 0 0)
(0 0 0 0 0 0 0 0 0)
(0 0 0 0 -0 0 0 0 0)
(0 0 0 0 0 0 0 0 0)
(0 0 0 0 -0 0 0 0 0)
(0 0 0 0 0 0 0 0 0)
(0 0 0 0 -0 0 0 0 0)
(0 0 0 0 0 0 0 0 0)
(0 0 0 0 -0 0 0 0 0)
(0 0 0 0 0 0 0 0 0)
(0 0 0 0 -0 0 0 0 0)
(0 0 0 0 0 0 0 0 0)
(-0 0 0 0 -0 0 0 0 0)
(0 0 0 0 0 0 0 0 0)
(0 0 0 0 -0 0 0 0 0)
(0 -0 0 -0 0 0 0 0 0)
(0 0 0 0 -0 0 0 0 0)
(0 0 0 0 0 0 0 0 0)
(0 -0 0 -0 -0 0 0 0 0)
(0 0 0 0 0 0 0 0 0)
(0 -0 0 -0 -0 0 0 0 0)
(0 -0 0 -0 0 0 0 0 0)
(0 0 0 0 -0 0 0 0 0)
(0 0 0 0 0 0 0 0 0)
(0 -0 0 -0 -0 0 0 0 0)
(0 -0 0 -0 0 0 0 0 0)
(0 -0 0 -0 -0 0 0 0 0)
(0 -0 0 -0 0 0 0 0 0)
(0 0 0 0 -0 0 0 0 0)
(0 0 0 0 0 0 0 0 0)
(0 0 0 0 -0 0 0 0 0)
(0 0 0 0 0 0 0 0 0)
(0 -0 0 -0 -0 0 0 0 0)
(0 0 0 0 0 0 0 0 0)
(0 0 0 0 -0 0 0 0 0)
(0 -0 0 -0 0 0 0 0 0)
(0 -0 0 -0 -0 0 0 0 0)
(0 0 0 0 0 0 0 0 0)
(0 0 0 0 -0 0 0 0 0)
(0 0 0 0 0 0 0 0 0)
(0 -0 0 -0 -0 0 0 0 0)
(0 0 0 0 0 0 0 0 0)
(0 -0 0 -0 -0 0 0 0 0)
(0 0 0 0 0 0 0 0 0)
(0 -0 0 -0 -0 0 0 0 0)
(0 -0 0 -0 0 0 0 0 0)
(0 -0 0 -0 -0 0 0 0 0)
(0 -0 0 -0 0 0 0 0 0)
(0 0 0 0 -0 0 0 0 0)
(0 0 0 0 0 0 0 0 0)
(0 0 0 0 -0 0 0 0 0)
(0 0 0 0 0 0 0 0 0)
(0 -0 0 -0 -0 0 0 0 0)
(0 -0 0 -0 0 0 0 0 0)
(0 -0 0 -0 -0 0 0 0 0)
(0 -0 0 -0 0 0 0 0 0)
(0 -0 0 -0 -0 0 0 0 0)
(0 0 0 0 0 0 0 0 0)
(0 0 0 0 -0 0 0 0 0)
(0 0 0 0 0 0 0 0 0)
(0 0 0 0 -0 0 0 0 0)
(0 0 0 0 0 0 0 0 0)
(0 0 0 0 -0 0 0 0 0)
(0 0 0 0 0 0 0 0 0)
(0 -0 0 -0 -0 0 0 0 0)
(0 -0 0 -0 0 0 0 0 0)
(0 0 0 0 -0 0 0 0 0)
(0 0 0 0 0 0 0 0 0)
(0 0 0 0 -0 0 0 0 0)
(0 -0 0 -0 0 0 0 0 0)
(0 -0 0 -0 0 0 0 0 0)
(0 -0 0 -0 0 0 0 0 0)
(0 -0 0 -0 0 0 0 0 0)
(0 -0 0 -0 0 0 0 0 0)
(0 -0 0 -0 0 0 0 0 0)
(0 -0 0 -0 0 0 0 0 0)
)
;

boundaryField
{
    inandouthalf11
    {
        type            cyclic;
    }
    inandouthalf12
    {
        type            cyclic;
    }
    inandouthalf21
    {
        type            cyclic;
    }
    inandouthalf22
    {
        type            cyclic;
    }
    inandouthalf31
    {
        type            cyclic;
    }
    inandouthalf32
    {
        type            cyclic;
    }
    inandouthalf41
    {
        type            cyclic;
    }
    inandouthalf42
    {
        type            cyclic;
    }
    top
    {
        type            symmetryPlane;
    }
    walls
    {
        type            zeroGradient;
    }
    frontAndBackPlanes
    {
        type            empty;
    }
}


// ************************************************************************* //
