/*--------------------------------*- C++ -*----------------------------------*\
| =========                 |                                                 |
| \\      /  F ield         | OpenFOAM: The Open Source CFD Toolbox           |
|  \\    /   O peration     | Version:  2.4.x                                 |
|   \\  /    A nd           | Web:      www.OpenFOAM.org                      |
|    \\/     M anipulation  |                                                 |
\*---------------------------------------------------------------------------*/
FoamFile
{
    version     2.0;
    format      ascii;
    class       volVectorField;
    location    "5.2";
    object      Ur;
}
// * * * * * * * * * * * * * * * * * * * * * * * * * * * * * * * * * * * * * //

dimensions      [0 1 -1 0 0 0 0];

internalField   nonuniform List<vector> 
360
(
(8.27842e-07 9.31801e-08 0)
(8.24597e-07 5.8548e-07 0)
(8.23673e-07 1.11257e-06 0)
(8.24093e-07 1.57921e-06 0)
(8.24438e-07 2.03605e-06 0)
(8.24607e-07 2.50492e-06 0)
(8.24756e-07 2.98422e-06 0)
(8.24917e-07 3.46875e-06 0)
(8.25078e-07 3.9555e-06 0)
(8.25246e-07 4.44391e-06 0)
(8.25421e-07 4.9349e-06 0)
(8.25597e-07 5.42936e-06 0)
(8.25773e-07 5.92766e-06 0)
(8.25949e-07 6.42963e-06 0)
(8.26126e-07 6.93493e-06 0)
(8.26305e-07 7.44339e-06 0)
(8.26486e-07 7.95501e-06 0)
(8.26668e-07 8.46981e-06 0)
(8.26851e-07 8.98778e-06 0)
(8.27037e-07 9.50906e-06 0)
(8.27222e-07 1.00337e-05 0)
(8.2741e-07 1.05619e-05 0)
(8.276e-07 1.10942e-05 0)
(8.2779e-07 1.16313e-05 0)
(8.27983e-07 1.21739e-05 0)
(8.28178e-07 1.27227e-05 0)
(8.28374e-07 1.32783e-05 0)
(8.28575e-07 1.3841e-05 0)
(8.28778e-07 1.44107e-05 0)
(8.28983e-07 1.49859e-05 0)
(8.2919e-07 1.55643e-05 0)
(8.29401e-07 1.61426e-05 0)
(8.29609e-07 1.67166e-05 0)
(8.29822e-07 1.72824e-05 0)
(8.30029e-07 1.78371e-05 0)
(8.30235e-07 1.83799e-05 0)
(8.30435e-07 1.89135e-05 0)
(8.30632e-07 1.94453e-05 0)
(8.30829e-07 1.99885e-05 0)
(8.31019e-07 2.05624e-05 0)
(8.31217e-07 2.11948e-05 0)
(8.31421e-07 2.19227e-05 0)
(8.3164e-07 2.27882e-05 0)
(8.31906e-07 2.38247e-05 0)
(8.3224e-07 2.50177e-05 0)
(8.32666e-07 2.62564e-05 0)
(8.33146e-07 2.73376e-05 0)
(8.33567e-07 2.80821e-05 0)
(8.33862e-07 2.84701e-05 0)
(8.34046e-07 2.8621e-05 0)
(8.34166e-07 2.86651e-05 0)
(8.34277e-07 2.86748e-05 0)
(8.34389e-07 2.86759e-05 0)
(8.34509e-07 2.86752e-05 0)
(8.34633e-07 2.86739e-05 0)
(8.34772e-07 2.86726e-05 0)
(8.34913e-07 2.8671e-05 0)
(8.35068e-07 2.86695e-05 0)
(8.35228e-07 2.86678e-05 0)
(8.35393e-07 2.8666e-05 0)
(8.35574e-07 2.86643e-05 0)
(8.35755e-07 2.86623e-05 0)
(8.35946e-07 2.86604e-05 0)
(8.36139e-07 2.86584e-05 0)
(8.36339e-07 2.86563e-05 0)
(8.36542e-07 2.86542e-05 0)
(8.36753e-07 2.86521e-05 0)
(8.36971e-07 2.86498e-05 0)
(8.37196e-07 2.86475e-05 0)
(8.37428e-07 2.86451e-05 0)
(8.37674e-07 2.86426e-05 0)
(8.37929e-07 2.864e-05 0)
(8.38187e-07 2.86373e-05 0)
(8.38457e-07 2.86346e-05 0)
(8.38732e-07 2.86317e-05 0)
(8.39017e-07 2.86288e-05 0)
(8.39304e-07 2.86259e-05 0)
(8.39598e-07 2.86228e-05 0)
(8.39899e-07 2.86197e-05 0)
(8.40207e-07 2.86166e-05 0)
(8.40522e-07 2.86133e-05 0)
(8.40847e-07 2.861e-05 0)
(8.41181e-07 2.86066e-05 0)
(8.41523e-07 2.86031e-05 0)
(8.41874e-07 2.85995e-05 0)
(8.42234e-07 2.85958e-05 0)
(8.42602e-07 2.85921e-05 0)
(8.42977e-07 2.85882e-05 0)
(8.43361e-07 2.85843e-05 0)
(8.43753e-07 2.85803e-05 0)
(8.44153e-07 2.85763e-05 0)
(8.44562e-07 2.85721e-05 0)
(8.44981e-07 2.85678e-05 0)
(8.45411e-07 2.85635e-05 0)
(8.4585e-07 2.8559e-05 0)
(8.463e-07 2.85544e-05 0)
(8.46761e-07 2.85497e-05 0)
(8.47232e-07 2.8545e-05 0)
(8.47715e-07 2.85401e-05 0)
(8.48209e-07 2.85351e-05 0)
(8.48715e-07 2.85299e-05 0)
(8.49234e-07 2.85247e-05 0)
(8.49765e-07 2.85193e-05 0)
(8.5031e-07 2.85138e-05 0)
(8.50868e-07 2.85082e-05 0)
(8.51441e-07 2.85024e-05 0)
(8.52029e-07 2.84965e-05 0)
(8.52632e-07 2.84904e-05 0)
(8.53252e-07 2.84842e-05 0)
(8.53888e-07 2.84778e-05 0)
(8.54542e-07 2.84712e-05 0)
(8.55214e-07 2.84645e-05 0)
(8.55906e-07 2.84576e-05 0)
(8.56618e-07 2.84504e-05 0)
(8.5735e-07 2.84431e-05 0)
(8.58105e-07 2.84356e-05 0)
(8.58883e-07 2.84278e-05 0)
(8.59684e-07 2.84198e-05 0)
(8.60511e-07 2.84116e-05 0)
(8.61365e-07 2.84031e-05 0)
(8.62246e-07 2.83944e-05 0)
(8.63156e-07 2.83853e-05 0)
(8.64096e-07 2.8376e-05 0)
(8.65069e-07 2.83664e-05 0)
(8.66075e-07 2.83565e-05 0)
(8.67117e-07 2.83462e-05 0)
(8.68197e-07 2.83356e-05 0)
(8.69318e-07 2.83245e-05 0)
(8.70484e-07 2.83131e-05 0)
(8.71699e-07 2.83012e-05 0)
(8.72965e-07 2.82888e-05 0)
(8.74283e-07 2.82759e-05 0)
(8.75662e-07 2.82624e-05 0)
(8.77116e-07 2.82482e-05 0)
(8.78662e-07 2.82332e-05 0)
(8.80301e-07 2.82174e-05 0)
(8.82023e-07 2.82007e-05 0)
(8.83854e-07 2.81824e-05 0)
(8.85886e-07 2.81623e-05 0)
(8.88221e-07 2.81407e-05 0)
(8.90756e-07 2.81189e-05 0)
(8.93175e-07 2.80918e-05 0)
(8.96065e-07 2.80618e-05 0)
(8.99826e-07 2.80266e-05 0)
(9.04483e-07 2.79648e-05 0)
(9.10581e-07 2.81887e-05 0)
(-1.31043e-06 2.20424e-05 0)
(-0.000864782 5.80267e-05 0)
(-0.00887964 0.000503531 0)
(-0.00901257 0.000475528 0)
(-0.00737346 0.000553036 0)
(-0.00598531 0.000569501 0)
(-0.00502578 0.000576804 0)
(-0.00438215 0.000571941 0)
(-0.00397389 0.000554583 0)
(-0.00374791 0.000524466 0)
(-0.00366538 0.00048148 0)
(-0.00369679 0.000425565 0)
(-0.00382033 0.000356777 0)
(-0.00402094 0.000275303 0)
(-0.00428912 0.000181445 0)
(-0.00461975 7.55754e-05 0)
(-0.00501108 -4.19207e-05 0)
(-0.00546381 -0.000170604 0)
(-0.00598044 -0.000310016 0)
(-0.00656474 -0.000459733 0)
(-0.00722135 -0.000619339 0)
(-0.00795552 -0.000788418 0)
(-0.00877283 -0.000966561 0)
(-0.00967903 -0.00115336 0)
(-0.0106798 -0.0013484 0)
(-0.0117809 -0.00155126 0)
(-0.0129874 -0.0017615 0)
(-0.0143042 -0.00197866 0)
(-0.0157358 -0.00220224 0)
(-0.0172858 -0.00243169 0)
(-0.0189571 -0.00266642 0)
(-0.0207516 -0.00290576 0)
(-0.0226702 -0.00314898 0)
(-0.0247127 -0.00339517 0)
(-0.0268774 -0.00364308 0)
(-0.0291612 -0.00389073 0)
(-0.0315592 -0.00413498 0)
(-0.0340643 -0.00437114 0)
(-0.036667 -0.00459314 0)
(-0.039355 -0.00479429 0)
(-0.0421129 -0.00496867 0)
(-0.0449227 -0.0051126 0)
(-0.0477645 -0.00522557 0)
(-0.050617 -0.00531007 0)
(-0.0534592 -0.00537074 0)
(-0.0562705 -0.0054132 0)
(-0.0590316 -0.00544315 0)
(-0.0617245 -0.00546525 0)
(-0.0643321 -0.00548197 0)
(-0.0668376 -0.00549349 0)
(-0.0692242 -0.00549903 0)
(-0.0714757 -0.00549837 0)
(-0.073578 -0.00549226 0)
(-0.0755195 -0.00548194 0)
(-0.0772914 -0.00546851 0)
(-0.0789037 -0.00545278 0)
(-0.0803608 -0.00543555 0)
(-0.0816511 -0.00541737 0)
(-0.0827653 -0.00539817 0)
(-0.0836978 -0.00537836 0)
(-0.0844463 -0.00535864 0)
(-0.0850106 -0.0053387 0)
(-0.0853929 -0.00531831 0)
(-0.0855991 -0.00529797 0)
(-0.0856358 -0.00527766 0)
(-0.0855103 -0.00525701 0)
(-0.0852311 -0.00523618 0)
(-0.084806 -0.00521487 0)
(-0.0842426 -0.0051929 0)
(-0.0835491 -0.00517056 0)
(-0.0827308 -0.00514711 0)
(-0.081793 -0.00512215 0)
(-0.0807431 -0.00509647 0)
(-0.0795847 -0.00506944 0)
(-0.0783212 -0.00504038 0)
(-0.0769573 -0.00500956 0)
(-0.0754968 -0.00497674 0)
(-0.0739435 -0.00494191 0)
(-0.0722995 -0.00490414 0)
(-0.0705678 -0.00486274 0)
(-0.0687536 -0.00481839 0)
(-0.0668587 -0.00476954 0)
(-0.0648865 -0.0047153 0)
(-0.0628426 -0.00465588 0)
(-0.0607312 -0.00459004 0)
(-0.0585566 -0.00451621 0)
(-0.0563217 -0.00443032 0)
(-0.0540294 -0.00432473 0)
(-0.0517 -0.00420746 0)
(-0.0493575 -0.004091 0)
(-0.0469229 -0.00391599 0)
(-0.000868248 -0.000739174 0)
(-0.000504743 0.00100425 0)
(-0.000463031 0.0364882 0)
(-0.000508948 0.039768 0)
(-0.000592494 0.0395944 0)
(-0.000572796 0.0396111 0)
(-0.000557728 0.0396104 0)
(-0.000534864 0.0396102 0)
(-0.000502913 0.0396087 0)
(-0.00045891 0.0396052 0)
(-0.000408623 0.0395982 0)
(-0.00026898 0.0395822 0)
(-3.08151e-05 0.0395625 0)
(1.43219e-05 0.0395517 0)
(1.58558e-05 0.0395501 0)
(1.59204e-05 0.0395501 0)
(1.59446e-05 0.0395501 0)
(1.59624e-05 0.0395501 0)
(1.59766e-05 0.0395501 0)
(1.59879e-05 0.0395501 0)
(1.59969e-05 0.0395501 0)
(1.60039e-05 0.0395501 0)
(1.60094e-05 0.0395501 0)
(1.60138e-05 0.0395501 0)
(1.60171e-05 0.0395501 0)
(1.60198e-05 0.0395501 0)
(1.60218e-05 0.0395501 0)
(1.60233e-05 0.0395501 0)
(1.60245e-05 0.0395501 0)
(1.60254e-05 0.0395501 0)
(1.60261e-05 0.0395501 0)
(1.60266e-05 0.0395501 0)
(1.60269e-05 0.0395501 0)
(1.60272e-05 0.0395501 0)
(1.60274e-05 0.0395501 0)
(1.60277e-05 0.0395501 0)
(1.60278e-05 0.0395501 0)
(1.60279e-05 0.0395501 0)
(1.60279e-05 0.0395501 0)
(1.60279e-05 0.0395501 0)
(1.6028e-05 0.0395501 0)
(1.6028e-05 0.0395501 0)
(1.6028e-05 0.0395501 0)
(1.6028e-05 0.0395501 0)
(1.6028e-05 0.0395501 0)
(1.6028e-05 0.0395501 0)
(1.6028e-05 0.0395501 0)
(1.6028e-05 0.0395501 0)
(1.6028e-05 0.0395501 0)
(1.6028e-05 0.0395501 0)
(1.6028e-05 0.0395501 0)
(1.6028e-05 0.0395501 0)
(1.6028e-05 0.0395501 0)
(1.6028e-05 0.0395501 0)
(1.6028e-05 0.0395501 0)
(1.6028e-05 0.0395501 0)
(1.6028e-05 0.0395501 0)
(1.6028e-05 0.0395501 0)
(1.6028e-05 0.0395501 0)
(1.6028e-05 0.0395501 0)
(1.6028e-05 0.0395501 0)
(1.6028e-05 0.0395501 0)
(1.6028e-05 0.0395501 0)
(1.6028e-05 0.0395501 0)
(1.6028e-05 0.0395501 0)
(1.6028e-05 0.0395501 0)
(1.6028e-05 0.0395501 0)
(1.6028e-05 0.0395501 0)
(1.6028e-05 0.0395501 0)
(1.6028e-05 0.0395501 0)
(1.6028e-05 0.0395501 0)
(1.6028e-05 0.0395501 0)
(1.6028e-05 0.0395501 0)
(1.6028e-05 0.0395501 0)
(1.6028e-05 0.0395501 0)
(1.6028e-05 0.0395501 0)
(1.6028e-05 0.0395501 0)
(1.6028e-05 0.0395501 0)
(1.6028e-05 0.0395501 0)
(1.6028e-05 0.0395501 0)
(1.6028e-05 0.0395501 0)
(1.6028e-05 0.0395501 0)
(1.6028e-05 0.0395501 0)
(1.6028e-05 0.0395501 0)
(1.6028e-05 0.0395501 0)
(1.6028e-05 0.0395501 0)
(1.6028e-05 0.0395501 0)
(1.6028e-05 0.0395501 0)
(1.6028e-05 0.0395501 0)
(1.6028e-05 0.0395501 0)
(1.6028e-05 0.0395501 0)
(1.6028e-05 0.0395501 0)
(1.6028e-05 0.0395501 0)
(1.6028e-05 0.0395501 0)
(1.6028e-05 0.0395501 0)
(1.6028e-05 0.0395501 0)
(1.6028e-05 0.0395501 0)
(1.6028e-05 0.0395501 0)
(1.6028e-05 0.0395501 0)
(1.6028e-05 0.0395501 0)
(1.6028e-05 0.0395501 0)
(1.6028e-05 0.0395501 0)
(1.6028e-05 0.0395501 0)
(1.6028e-05 0.0395501 0)
(1.6028e-05 0.0395501 0)
(1.6028e-05 0.0395501 0)
(1.6028e-05 0.0395501 0)
(1.6028e-05 0.0395501 0)
(1.6028e-05 0.0395501 0)
(1.6028e-05 0.0395501 0)
(1.6028e-05 0.0395501 0)
(1.6028e-05 0.0395501 0)
(1.6028e-05 0.0395501 0)
(1.6028e-05 0.0395501 0)
(1.6028e-05 0.0395501 0)
(1.6028e-05 0.0395501 0)
(1.6028e-05 0.0395501 0)
(1.6028e-05 0.0395501 0)
(1.6028e-05 0.03955 0)
(1.60282e-05 0.0395499 0)
(1.60329e-05 0.0395414 0)
(1.61479e-05 0.039197 0)
(1.87931e-05 0.0225004 0)
)
;

boundaryField
{
    inandouthalf11
    {
        type            cyclic;
    }
    inandouthalf12
    {
        type            cyclic;
    }
    inandouthalf21
    {
        type            cyclic;
    }
    inandouthalf22
    {
        type            cyclic;
    }
    inandouthalf31
    {
        type            cyclic;
    }
    inandouthalf32
    {
        type            cyclic;
    }
    inandouthalf41
    {
        type            cyclic;
    }
    inandouthalf42
    {
        type            cyclic;
    }
    top
    {
        type            symmetryPlane;
    }
    walls
    {
        type            calculated;
        value           uniform (0 0 0);
    }
    frontAndBackPlanes
    {
        type            empty;
    }
}


// ************************************************************************* //
