/*--------------------------------*- C++ -*----------------------------------*\
| =========                 |                                                 |
| \\      /  F ield         | OpenFOAM: The Open Source CFD Toolbox           |
|  \\    /   O peration     | Version:  2.4.x                                 |
|   \\  /    A nd           | Web:      www.OpenFOAM.org                      |
|    \\/     M anipulation  |                                                 |
\*---------------------------------------------------------------------------*/
FoamFile
{
    version     2.0;
    format      ascii;
    class       volScalarField;
    location    "3.6";
    object      alpha_0;
}
// * * * * * * * * * * * * * * * * * * * * * * * * * * * * * * * * * * * * * //

dimensions      [0 0 0 0 0 0 0];

internalField   nonuniform List<scalar> 
360
(
0.610263
0.610686
0.610845
0.610827
0.610783
0.610747
0.610713
0.610681
0.610653
0.610625
0.610595
0.610565
0.610534
0.610503
0.610474
0.610444
0.610414
0.610384
0.610351
0.610314
0.610273
0.610225
0.610173
0.61012
0.610074
0.610042
0.610023
0.610013
0.610007
0.610004
0.610001
0.609997
0.609994
0.60999
0.609986
0.609982
0.609977
0.609972
0.609966
0.60996
0.609953
0.609946
0.609939
0.60993
0.609921
0.609911
0.609901
0.609891
0.609879
0.609865
0.609851
0.609836
0.609821
0.609804
0.609786
0.609766
0.609746
0.609724
0.609701
0.609678
0.609652
0.609626
0.609599
0.609572
0.609543
0.609514
0.609484
0.609453
0.609421
0.609388
0.609354
0.609317
0.609281
0.609242
0.609203
0.609163
0.609122
0.609081
0.609038
0.608994
0.60895
0.608904
0.608856
0.608808
0.608758
0.608707
0.608655
0.608602
0.608548
0.608493
0.608437
0.608379
0.60832
0.608259
0.608198
0.608134
0.608069
0.608003
0.607935
0.607866
0.607795
0.607722
0.607648
0.607572
0.607493
0.607413
0.607331
0.607247
0.60716
0.607072
0.606981
0.606887
0.606791
0.606692
0.60659
0.606485
0.606377
0.606266
0.606151
0.606033
0.605912
0.605786
0.605656
0.605522
0.605383
0.60524
0.605092
0.604938
0.604778
0.604612
0.604439
0.604259
0.604071
0.603874
0.603664
0.603441
0.603208
0.602961
0.602688
0.602375
0.602034
0.60171
0.601327
0.60083
0.600221
0.599214
0.596297
0.596326
0.590886
0.333103
0.187224
0.129685
0.0909777
0.0618834
0.0404986
0.0255848
0.0157174
0.00949144
0.00574602
0.00362638
0.00247662
0.00182744
0.00142569
0.00115621
0.0009641
0.000820473
0.000709009
0.000619902
0.000546944
0.000486035
0.000434365
0.000389947
0.000351339
0.000317463
0.000287496
0.000260785
0.000236803
0.000215106
0.000195309
0.000177067
0.000160063
0.000143999
0.000128605
0.00011365
9.89847e-05
8.4599e-05
7.07023e-05
5.77665e-05
4.64548e-05
3.7359e-05
3.06287e-05
2.5798e-05
2.20818e-05
1.89265e-05
1.62221e-05
1.40072e-05
1.21885e-05
1.06244e-05
9.26376e-06
8.10531e-06
7.14251e-06
6.31676e-06
5.54361e-06
4.82565e-06
4.24223e-06
3.77621e-06
3.31046e-06
2.84092e-06
2.48916e-06
2.21132e-06
1.90735e-06
1.63905e-06
1.44083e-06
1.24541e-06
1.06235e-06
9.30036e-07
8.05655e-07
6.72414e-07
5.77028e-07
5.06388e-07
4.21208e-07
3.52832e-07
3.01876e-07
2.4958e-07
2.10227e-07
1.76678e-07
1.41641e-07
1.18766e-07
9.9015e-08
7.71594e-08
6.39979e-08
5.11423e-08
3.8276e-08
3.26263e-08
2.99416e-08
2.833e-08
2.54471e-08
1.83935e-08
6.19289e-09
3.26443e-10
9.52071e-13
5.66823e-15
4.8667e-15
4.52974e-15
3.76757e-15
2.78146e-15
1.73716e-15
1.36051e-15
1.19296e-15
1.10033e-15
9.92492e-16
8.04787e-16
5.35059e-16
3.3674e-16
2.64834e-16
2.31671e-16
2.09064e-16
1.75213e-16
1.20571e-16
7.15138e-17
5.3438e-17
4.54432e-17
4.03267e-17
3.29682e-17
2.12077e-17
1.1068e-17
7.25429e-18
5.45194e-18
3.96836e-18
1.78299e-18
6.01996e-19
2.55155e-19
1.22658e-19
6.19686e-20
3.17655e-20
1.63386e-20
8.35348e-21
4.21262e-21
2.09897e-21
1.02777e-21
4.93034e-22
2.31172e-22
1.05731e-22
4.70853e-23
2.03804e-23
8.55882e-24
3.481e-24
1.36856e-24
5.19081e-25
1.89539e-25
6.64752e-26
2.23379e-26
7.17226e-27
2.19375e-27
6.37037e-28
1.74957e-28
4.5248e-29
1.09649e-29
2.47532e-30
5.17027e-31
9.91063e-32
1.72613e-32
2.69795e-33
3.72441e-34
4.44546e-35
4.45323e-36
3.5797e-37
2.14087e-38
8.14893e-40
1.13533e-41
3.50296e-44
6.38202e-46
5.76678e-48
8.34494e-59
6.10623e-70
3.39346e-81
1.36048e-92
4.93165e-104
1.52655e-115
6.52795e-127
6.45119e-135
1.45861e-145
2.22078e-153
4.7905e-164
7.63964e-172
2.05342e-182
2.62739e-190
9.28629e-201
9.04255e-209
6.37901e-219
3.13778e-227
4.27501e-237
1.10304e-245
2.16763e-255
3.92787e-264
1.02761e-273
1.41713e-282
4.53661e-292
5.18554e-301
1.94283e-310
7.58626e-318
6.21041e-321
6.08689e-321
8.5424e-321
0
0
0
0
0
0
0
0
0
0
0
0
0
0
0
0
)
;

boundaryField
{
    inandouthalf11
    {
        type            cyclic;
    }
    inandouthalf12
    {
        type            cyclic;
    }
    inandouthalf21
    {
        type            cyclic;
    }
    inandouthalf22
    {
        type            cyclic;
    }
    inandouthalf31
    {
        type            cyclic;
    }
    inandouthalf32
    {
        type            cyclic;
    }
    inandouthalf41
    {
        type            cyclic;
    }
    inandouthalf42
    {
        type            cyclic;
    }
    top
    {
        type            symmetryPlane;
    }
    walls
    {
        type            zeroGradient;
    }
    frontAndBackPlanes
    {
        type            empty;
    }
}


// ************************************************************************* //
