/*--------------------------------*- C++ -*----------------------------------*\
| =========                 |                                                 |
| \\      /  F ield         | OpenFOAM: The Open Source CFD Toolbox           |
|  \\    /   O peration     | Version:  2.4.x                                 |
|   \\  /    A nd           | Web:      www.OpenFOAM.org                      |
|    \\/     M anipulation  |                                                 |
\*---------------------------------------------------------------------------*/
FoamFile
{
    version     2.0;
    format      ascii;
    class       volVectorField;
    location    "3.6";
    object      ddt0(Ua);
}
// * * * * * * * * * * * * * * * * * * * * * * * * * * * * * * * * * * * * * //

dimensions      [0 1 -2 0 0 0 0];

internalField   nonuniform List<vector> 
360
(
(-2.23335e-34 -1.2828e-32 0)
(8.3449e-09 -1.49945e-09 0)
(4.6126e-08 1.3234e-07 0)
(8.94799e-08 2.77027e-07 0)
(1.27471e-07 3.9828e-07 0)
(1.62224e-07 5.10175e-07 0)
(1.98437e-07 6.33617e-07 0)
(2.38713e-07 7.79789e-07 0)
(2.81922e-07 9.43544e-07 0)
(3.24544e-07 1.1098e-06 0)
(3.63363e-07 1.26534e-06 0)
(3.97194e-07 1.40528e-06 0)
(4.27534e-07 1.53518e-06 0)
(4.58789e-07 1.67178e-06 0)
(4.98421e-07 1.84382e-06 0)
(5.56996e-07 2.09297e-06 0)
(6.48077e-07 2.47407e-06 0)
(7.8793e-07 3.05512e-06 0)
(9.94272e-07 3.91432e-06 0)
(1.28102e-06 5.12321e-06 0)
(1.64172e-06 6.68385e-06 0)
(2.0135e-06 8.37826e-06 0)
(2.23561e-06 9.5623e-06 0)
(2.08711e-06 9.24905e-06 0)
(1.49626e-06 6.99334e-06 0)
(7.17451e-07 3.80514e-06 0)
(1.10706e-07 1.27469e-06 0)
(-2.05765e-07 -4.1388e-08 0)
(-3.29159e-07 -5.47911e-07 0)
(-3.70082e-07 -7.13225e-07 0)
(-3.82858e-07 -7.64336e-07 0)
(-3.86414e-07 -7.79031e-07 0)
(-3.86512e-07 -7.80742e-07 0)
(-3.84838e-07 -7.76427e-07 0)
(-3.81876e-07 -7.68278e-07 0)
(-3.77853e-07 -7.57357e-07 0)
(-3.73065e-07 -7.44739e-07 0)
(-3.67918e-07 -7.31664e-07 0)
(-3.62818e-07 -7.19217e-07 0)
(-3.58038e-07 -7.08039e-07 0)
(-3.53654e-07 -6.98222e-07 0)
(-3.49589e-07 -6.89478e-07 0)
(-3.45695e-07 -6.81381e-07 0)
(-3.41812e-07 -6.73525e-07 0)
(-3.37811e-07 -6.65604e-07 0)
(-3.33605e-07 -6.57436e-07 0)
(-3.29143e-07 -6.48929e-07 0)
(-3.24406e-07 -6.40064e-07 0)
(-3.19388e-07 -6.30852e-07 0)
(-3.14093e-07 -6.21311e-07 0)
(-3.08532e-07 -6.11478e-07 0)
(-3.02719e-07 -6.01393e-07 0)
(-2.96661e-07 -5.91078e-07 0)
(-2.90361e-07 -5.80538e-07 0)
(-2.8381e-07 -5.69767e-07 0)
(-2.76991e-07 -5.58736e-07 0)
(-2.69884e-07 -5.47415e-07 0)
(-2.62466e-07 -5.3577e-07 0)
(-2.54719e-07 -5.23773e-07 0)
(-2.46631e-07 -5.1141e-07 0)
(-2.38193e-07 -4.98671e-07 0)
(-2.29409e-07 -4.85564e-07 0)
(-2.20296e-07 -4.7212e-07 0)
(-2.1088e-07 -4.58382e-07 0)
(-2.01192e-07 -4.444e-07 0)
(-1.91253e-07 -4.30211e-07 0)
(-1.81068e-07 -4.15826e-07 0)
(-1.70624e-07 -4.01221e-07 0)
(-1.59884e-07 -3.86351e-07 0)
(-1.48799e-07 -3.71147e-07 0)
(-1.37302e-07 -3.55517e-07 0)
(-1.25322e-07 -3.39361e-07 0)
(-1.12805e-07 -3.22613e-07 0)
(-9.97094e-08 -3.05225e-07 0)
(-8.60151e-08 -2.87172e-07 0)
(-7.17258e-08 -2.68468e-07 0)
(-5.68709e-08 -2.49159e-07 0)
(-4.14952e-08 -2.29316e-07 0)
(-2.56422e-08 -2.09001e-07 0)
(-9.34502e-09 -1.88259e-07 0)
(7.37773e-09 -1.67119e-07 0)
(2.45266e-08 -1.45583e-07 0)
(4.21203e-08 -1.23624e-07 0)
(6.0187e-08 -1.01209e-07 0)
(7.87559e-08 -7.83017e-08 0)
(9.78493e-08 -5.48772e-08 0)
(1.17477e-07 -3.09266e-08 0)
(1.37632e-07 -6.46219e-09 0)
(1.58296e-07 1.84855e-08 0)
(1.79439e-07 4.38769e-08 0)
(2.01031e-07 6.96709e-08 0)
(2.23045e-07 9.58304e-08 0)
(2.45459e-07 1.22328e-07 0)
(2.68262e-07 1.49148e-07 0)
(2.91448e-07 1.76282e-07 0)
(3.15014e-07 2.03725e-07 0)
(3.38958e-07 2.31474e-07 0)
(3.63277e-07 2.59522e-07 0)
(3.87964e-07 2.87859e-07 0)
(4.1301e-07 3.16469e-07 0)
(4.38402e-07 3.45334e-07 0)
(4.64122e-07 3.74434e-07 0)
(4.90154e-07 4.03743e-07 0)
(5.16478e-07 4.33235e-07 0)
(5.43071e-07 4.62883e-07 0)
(5.69912e-07 4.92658e-07 0)
(5.96976e-07 5.2253e-07 0)
(6.24241e-07 5.52469e-07 0)
(6.51686e-07 5.82448e-07 0)
(6.79295e-07 6.12443e-07 0)
(7.07055e-07 6.42439e-07 0)
(7.34965e-07 6.72427e-07 0)
(7.63034e-07 7.0241e-07 0)
(7.91282e-07 7.32403e-07 0)
(8.19746e-07 7.62436e-07 0)
(8.48482e-07 7.92557e-07 0)
(8.77563e-07 8.2283e-07 0)
(9.07083e-07 8.53336e-07 0)
(9.37156e-07 8.84171e-07 0)
(9.67911e-07 9.15443e-07 0)
(9.99493e-07 9.47267e-07 0)
(1.03205e-06 9.79754e-07 0)
(1.06572e-06 1.013e-06 0)
(1.10064e-06 1.04707e-06 0)
(1.1369e-06 1.08199e-06 0)
(1.17454e-06 1.11772e-06 0)
(1.21356e-06 1.15418e-06 0)
(1.25389e-06 1.19118e-06 0)
(1.29537e-06 1.22851e-06 0)
(1.33781e-06 1.26586e-06 0)
(1.3809e-06 1.30288e-06 0)
(1.42432e-06 1.33916e-06 0)
(1.46776e-06 1.37434e-06 0)
(1.51103e-06 1.40818e-06 0)
(1.55402e-06 1.44056e-06 0)
(1.5966e-06 1.47136e-06 0)
(1.63848e-06 1.50028e-06 0)
(1.6792e-06 1.52694e-06 0)
(1.71819e-06 1.55105e-06 0)
(1.75427e-06 1.57228e-06 0)
(1.78494e-06 1.5895e-06 0)
(1.80707e-06 1.60097e-06 0)
(1.82015e-06 1.60701e-06 0)
(1.82659e-06 1.60967e-06 0)
(1.82943e-06 1.61069e-06 0)
(1.8311e-06 1.61117e-06 0)
(1.83322e-06 1.61282e-06 0)
(1.47416e-06 1.55129e-06 0)
(-3.88777e-06 2.06948e-06 0)
(-0.255308 0.00130517 0)
(-0.277298 -0.00126205 0)
(-0.211945 -0.00338423 0)
(-0.198429 -0.00335559 0)
(-0.214769 -0.00255761 0)
(-0.251888 -0.000887235 0)
(-0.304137 0.0022895 0)
(-0.364853 0.00821948 0)
(-0.425432 0.0177428 0)
(-0.477999 0.0289616 0)
(-0.519362 0.0375983 0)
(-0.55134 0.0417098 0)
(-0.576937 0.0426691 0)
(-0.598161 0.042341 0)
(-0.616226 0.0415863 0)
(-0.631924 0.0406956 0)
(-0.645795 0.0397713 0)
(-0.658216 0.0388489 0)
(-0.669463 0.0379402 0)
(-0.679739 0.0370501 0)
(-0.689196 0.0361827 0)
(-0.697952 0.0353419 0)
(-0.7061 0.0345319 0)
(-0.713712 0.0337566 0)
(-0.720846 0.0330186 0)
(-0.727549 0.032319 0)
(-0.733859 0.0316572 0)
(-0.739809 0.0310302 0)
(-0.745423 0.0304325 0)
(-0.750723 0.0298565 0)
(-0.755729 0.0292919 0)
(-0.760456 0.0287264 0)
(-0.764917 0.0281455 0)
(-0.769124 0.0275338 0)
(-0.773086 0.0268764 0)
(-0.77681 0.0261618 0)
(-0.7803 0.0253869 0)
(-0.783557 0.0245631 0)
(-0.786583 0.0237216 0)
(-0.789396 0.0229116 0)
(-0.792036 0.0221867 0)
(-0.79457 0.0215797 0)
(-0.797041 0.0210842 0)
(-0.799439 0.0206619 0)
(-0.801732 0.0202774 0)
(-0.803914 0.019923 0)
(-0.806012 0.0196061 0)
(-0.808037 0.0193253 0)
(-0.809975 0.0190702 0)
(-0.811823 0.018835 0)
(-0.813601 0.0186216 0)
(-0.815329 0.0184328 0)
(-0.817009 0.0182614 0)
(-0.81862 0.0180941 0)
(-0.820178 0.0179309 0)
(-0.821758 0.0177885 0)
(-0.823359 0.0176692 0)
(-0.82487 0.0175477 0)
(-0.826293 0.0174179 0)
(-0.827777 0.0173108 0)
(-0.8293 0.0172279 0)
(-0.83072 0.017137 0)
(-0.832109 0.0170467 0)
(-0.833558 0.0169801 0)
(-0.834965 0.0169177 0)
(-0.836338 0.0168548 0)
(-0.837787 0.0168169 0)
(-0.839182 0.0167851 0)
(-0.840445 0.0167337 0)
(-0.841808 0.0167045 0)
(-0.843242 0.0167068 0)
(-0.84449 0.0166865 0)
(-0.845676 0.016656 0)
(-0.846902 0.0166442 0)
(-0.848036 0.0166215 0)
(-0.849137 0.0165945 0)
(-0.850132 0.0165587 0)
(-0.850902 0.0164737 0)
(-0.851678 0.0163718 0)
(-0.852329 0.0162436 0)
(-0.852642 0.0160336 0)
(-0.852974 0.015804 0)
(-0.853078 0.0155485 0)
(-0.853055 0.0152541 0)
(-0.853818 0.0150745 0)
(-0.855431 0.0150492 0)
(-0.857383 0.0151185 0)
(-0.859188 0.0152205 0)
(-0.860392 0.0152957 0)
(-0.86111 0.0152162 0)
(-0.877636 -0.000103218 0)
(-0.883395 -7.1251e-05 0)
(-0.883396 -7.93395e-05 0)
(-0.883396 -7.85402e-05 0)
(-0.883396 -7.86017e-05 0)
(-0.883396 -7.85972e-05 0)
(-0.883396 -7.85921e-05 0)
(-0.883396 -7.85939e-05 0)
(-0.883396 -7.85889e-05 0)
(-0.883396 -7.85913e-05 0)
(-0.883396 -7.85866e-05 0)
(-0.883396 -7.85896e-05 0)
(-0.883396 -7.8585e-05 0)
(-0.883396 -7.85885e-05 0)
(-0.883396 -7.85839e-05 0)
(-0.883396 -7.85878e-05 0)
(-0.883396 -7.85832e-05 0)
(-0.883396 -7.85874e-05 0)
(-0.883396 -7.85827e-05 0)
(-0.883396 -7.85872e-05 0)
(-0.883396 -7.85824e-05 0)
(-0.883396 -7.85871e-05 0)
(-0.883396 -7.85821e-05 0)
(-0.883396 -7.85871e-05 0)
(-0.883396 -7.85819e-05 0)
(-0.883396 -7.85872e-05 0)
(-0.883396 -7.85818e-05 0)
(-0.883396 -7.8587e-05 0)
(-0.883396 -7.85823e-05 0)
(-0.883396 -7.85864e-05 0)
(-0.883396 -7.85823e-05 0)
(-0.883396 -7.8587e-05 0)
(-0.883396 -7.85818e-05 0)
(-0.883396 -7.85872e-05 0)
(-0.883396 -7.85817e-05 0)
(-0.883396 -7.85873e-05 0)
(-0.883396 -7.85815e-05 0)
(-0.883396 -7.85874e-05 0)
(-0.883396 -7.85814e-05 0)
(-0.883396 -7.85876e-05 0)
(-0.883396 -7.85812e-05 0)
(-0.883396 -7.85878e-05 0)
(-0.883396 -7.8581e-05 0)
(-0.883396 -7.85879e-05 0)
(-0.883396 -7.85809e-05 0)
(-0.883396 -7.85881e-05 0)
(-0.883396 -7.85807e-05 0)
(-0.883396 -7.85883e-05 0)
(-0.883396 -7.85805e-05 0)
(-0.883396 -7.85884e-05 0)
(-0.883396 -7.85803e-05 0)
(-0.883396 -7.85886e-05 0)
(-0.883396 -7.85802e-05 0)
(-0.883396 -7.85888e-05 0)
(-0.883396 -7.858e-05 0)
(-0.883396 -7.8589e-05 0)
(-0.883396 -7.85798e-05 0)
(-0.883396 -7.85892e-05 0)
(-0.883396 -7.85796e-05 0)
(-0.883396 -7.85893e-05 0)
(-0.883396 -7.85793e-05 0)
(-0.883396 -7.85895e-05 0)
(-0.883396 -7.85791e-05 0)
(-0.883396 -7.85897e-05 0)
(-0.883396 -7.85789e-05 0)
(-0.883396 -7.85898e-05 0)
(-0.883396 -7.85786e-05 0)
(-0.883396 -7.859e-05 0)
(-0.883396 -7.85784e-05 0)
(-0.883396 -7.85901e-05 0)
(-0.883396 -7.85781e-05 0)
(-0.883396 -7.85894e-05 0)
(-0.883396 -7.85788e-05 0)
(-0.883396 -7.85893e-05 0)
(-0.883396 -7.85788e-05 0)
(-0.883396 -7.85891e-05 0)
(-0.883396 -7.85789e-05 0)
(-0.883396 -7.8589e-05 0)
(-0.883396 -7.85789e-05 0)
(-0.883396 -7.85888e-05 0)
(-0.883396 -7.8579e-05 0)
(-0.883396 -7.85885e-05 0)
(-0.883396 -7.85791e-05 0)
(-0.883396 -7.85882e-05 0)
(-0.883396 -7.85792e-05 0)
(-0.883396 -7.85879e-05 0)
(-0.883396 -7.85792e-05 0)
(-0.883396 -7.85867e-05 0)
(-0.883396 -7.85796e-05 0)
(-0.883396 -7.85856e-05 0)
(-0.883396 -7.85783e-05 0)
(-0.883396 -7.85836e-05 0)
(-0.883396 -7.85763e-05 0)
(-0.883396 -7.85814e-05 0)
(-0.883396 -7.85743e-05 0)
(-0.883396 -7.85794e-05 0)
(-0.883396 -7.85728e-05 0)
(-0.883396 -7.85777e-05 0)
(-0.883396 -7.85711e-05 0)
(-0.883396 -7.8576e-05 0)
(-0.883396 -7.85701e-05 0)
(-0.883396 -7.85753e-05 0)
(-0.883396 -7.85697e-05 0)
(-0.883396 -7.85754e-05 0)
(-0.883396 -7.85707e-05 0)
(-0.883396 -7.85759e-05 0)
(-0.883396 -7.85705e-05 0)
(-0.883396 -7.85758e-05 0)
(-0.883396 -7.85717e-05 0)
(-0.883396 -7.8578e-05 0)
(-0.883396 -7.85746e-05 0)
(-0.883396 -7.8582e-05 0)
(-0.883396 -7.85802e-05 0)
(-0.883396 -7.85887e-05 0)
(-0.883396 -7.85881e-05 0)
(-0.883396 -7.85973e-05 0)
(-0.883396 -7.85967e-05 0)
(-0.883396 -7.86111e-05 0)
(-0.883397 -7.86925e-05 0)
(-0.883421 -8.0483e-05 0)
(-0.883999 -0.000153495 0)
)
;

boundaryField
{
    inandouthalf11
    {
        type            cyclic;
    }
    inandouthalf12
    {
        type            cyclic;
    }
    inandouthalf21
    {
        type            cyclic;
    }
    inandouthalf22
    {
        type            cyclic;
    }
    inandouthalf31
    {
        type            cyclic;
    }
    inandouthalf32
    {
        type            cyclic;
    }
    inandouthalf41
    {
        type            cyclic;
    }
    inandouthalf42
    {
        type            cyclic;
    }
    top
    {
        type            symmetryPlane;
    }
    walls
    {
        type            calculated;
        value           uniform (0 0 0);
    }
    frontAndBackPlanes
    {
        type            empty;
    }
}


// ************************************************************************* //
