/*--------------------------------*- C++ -*----------------------------------*\
| =========                 |                                                 |
| \\      /  F ield         | OpenFOAM: The Open Source CFD Toolbox           |
|  \\    /   O peration     | Version:  2.4.x                                 |
|   \\  /    A nd           | Web:      www.OpenFOAM.org                      |
|    \\/     M anipulation  |                                                 |
\*---------------------------------------------------------------------------*/
FoamFile
{
    version     2.0;
    format      ascii;
    class       surfaceScalarField;
    location    "3.6";
    object      ddt0(phib);
}
// * * * * * * * * * * * * * * * * * * * * * * * * * * * * * * * * * * * * * //

dimensions      [0 3 -2 0 0 0 0];

internalField   nonuniform List<scalar> 
359
(
3.50985e-14
-4.34604e-13
-1.2786e-12
-2.10276e-12
-2.83146e-12
-3.56541e-12
-4.40675e-12
-5.37526e-12
-6.40508e-12
-7.40851e-12
-8.32966e-12
-9.17016e-12
-1.00007e-11
-1.0963e-11
-1.22774e-11
-1.42457e-11
-1.72516e-11
-2.17514e-11
-2.82082e-11
-3.6852e-11
-4.69946e-11
-5.59608e-11
-5.86869e-11
-5.06867e-11
-3.36706e-11
-1.58007e-11
-3.81185e-12
1.86099e-12
3.95113e-12
4.62447e-12
4.82907e-12
4.87997e-12
4.87164e-12
4.83255e-12
4.7729e-12
4.69925e-12
4.61891e-12
4.53904e-12
4.46504e-12
4.39932e-12
4.34113e-12
4.28829e-12
4.23824e-12
4.18872e-12
4.13823e-12
4.08592e-12
4.03143e-12
3.97474e-12
3.91589e-12
3.85509e-12
3.79264e-12
3.7286e-12
3.6632e-12
3.59633e-12
3.52796e-12
3.4578e-12
3.38574e-12
3.3116e-12
3.23519e-12
3.15649e-12
3.07541e-12
2.99221e-12
2.90701e-12
2.82013e-12
2.73186e-12
2.64234e-12
2.55154e-12
2.45921e-12
2.36504e-12
2.26853e-12
2.16908e-12
2.06616e-12
1.95946e-12
1.8487e-12
1.73385e-12
1.61512e-12
1.49288e-12
1.36757e-12
1.23943e-12
1.10878e-12
9.75722e-13
8.40162e-13
7.01894e-13
5.60728e-13
4.16515e-13
2.69093e-13
1.18493e-13
-3.51355e-14
-1.91582e-13
-3.50588e-13
-5.11927e-13
-6.75351e-13
-8.40738e-13
-1.00803e-12
-1.17717e-12
-1.3481e-12
-1.52084e-12
-1.69528e-12
-1.87135e-12
-2.04895e-12
-2.22794e-12
-2.40819e-12
-2.58952e-12
-2.77178e-12
-2.95478e-12
-3.13837e-12
-3.32227e-12
-3.50636e-12
-3.69045e-12
-3.87444e-12
-4.05821e-12
-4.24174e-12
-4.4251e-12
-4.60841e-12
-4.79192e-12
-4.97591e-12
-5.16085e-12
-5.34725e-12
-5.5358e-12
-5.72709e-12
-5.92181e-12
-6.1206e-12
-6.32392e-12
-6.53204e-12
-6.74491e-12
-6.96209e-12
-7.18277e-12
-7.40569e-12
-7.62924e-12
-7.85132e-12
-8.06964e-12
-8.28181e-12
-8.48591e-12
-8.68073e-12
-8.86551e-12
-9.0391e-12
-9.19943e-12
-9.34394e-12
-9.47001e-12
-9.57376e-12
-9.64894e-12
-9.68771e-12
-9.69686e-12
-9.68732e-12
-9.67194e-12
-9.58448e-12
-8.71979e-12
-2.05268e-11
-2.36832e-09
2.88306e-09
2.02543e-09
4.08501e-10
-8.41298e-10
-1.62069e-09
-1.93997e-09
-1.90094e-09
-1.63791e-09
-1.2632e-09
-8.59108e-10
-5.36769e-10
-3.5116e-10
-2.55342e-10
-2.0124e-10
-1.67024e-10
-1.43328e-10
-1.25621e-10
-1.11581e-10
-9.99489e-11
-9.00029e-11
-8.13092e-11
-7.35942e-11
-6.66776e-11
-6.04351e-11
-5.47764e-11
-4.96323e-11
-4.49467e-11
-4.06715e-11
-3.6763e-11
-3.31805e-11
-2.98846e-11
-2.6836e-11
-2.39958e-11
-2.13247e-11
-1.87835e-11
-1.63354e-11
-1.39516e-11
-1.16242e-11
-9.38705e-12
-7.33458e-12
-5.60754e-12
-4.31872e-12
-3.45715e-12
-2.87938e-12
-2.42659e-12
-2.03548e-12
-1.71613e-12
-1.4684e-12
-1.26537e-12
-1.08668e-12
-9.31922e-13
-8.09806e-13
-7.14835e-13
-6.2515e-13
-5.31707e-13
-4.56187e-13
-4.0874e-13
-3.62257e-13
-3.04426e-13
-2.60192e-13
-2.3331e-13
-2.02521e-13
-1.70974e-13
-1.49606e-13
-1.29834e-13
-1.09229e-13
-9.578e-14
-8.46796e-14
-6.99632e-14
-5.89358e-14
-5.27949e-14
-4.49958e-14
-3.73895e-14
-3.2024e-14
-2.68352e-14
-2.28313e-14
-1.95889e-14
-1.58521e-14
-1.33166e-14
-1.148e-14
-9.22727e-15
-7.87189e-15
-6.43815e-15
-4.30632e-15
-3.00063e-15
-2.63048e-15
-3.01566e-15
-4.12058e-15
-4.56808e-15
-5.70652e-15
-1.40941e-15
-2.426e-16
-2.34581e-16
-2.21873e-16
-2.33183e-16
-2.20559e-16
-2.1915e-16
-2.20561e-16
-2.17758e-16
-2.14985e-16
-1.99769e-16
-2.01748e-16
-1.92775e-16
-1.83833e-16
-1.87162e-16
-1.89023e-16
-1.9008e-16
-1.86468e-16
-1.87099e-16
-1.82092e-16
-1.85807e-16
-1.87269e-16
-1.95869e-16
-1.97524e-16
-1.90461e-16
-1.87003e-16
-1.8228e-16
-1.81344e-16
-1.76648e-16
-1.75142e-16
-1.63706e-16
-1.63827e-16
-1.57596e-16
-1.51085e-16
-1.51506e-16
-1.47986e-16
-1.50347e-16
-1.47264e-16
-1.3767e-16
-1.3353e-16
-1.2273e-16
-1.20985e-16
-1.16922e-16
-1.138e-16
-1.05205e-16
-1.03694e-16
-9.66613e-17
-8.21212e-17
-6.67044e-17
-5.73173e-17
-5.39346e-17
-3.62007e-17
-1.70709e-17
7.09144e-18
4.40145e-17
8.57888e-17
1.59797e-16
2.67392e-16
4.16443e-16
5.74936e-16
7.6108e-16
9.40551e-16
1.13725e-15
1.34956e-15
1.58034e-15
1.79339e-15
2.03503e-15
2.28244e-15
2.55901e-15
2.83809e-15
3.1356e-15
3.40812e-15
3.69985e-15
4.10763e-15
4.48746e-15
4.87876e-15
5.20546e-15
5.6163e-15
5.90914e-15
6.22513e-15
6.53246e-15
7.17573e-15
7.68397e-15
8.25664e-15
8.67798e-15
9.43284e-15
1.03222e-14
1.20722e-14
1.87971e-14
2.53981e-14
3.62846e-14
4.79488e-14
5.80477e-14
7.02383e-14
7.90767e-14
8.81263e-14
9.36484e-14
1.06415e-13
1.13882e-13
1.2135e-13
1.21e-13
1.27131e-13
1.23453e-13
1.20494e-13
1.10482e-13
1.18432e-13
1.16034e-13
1.13845e-13
9.49188e-14
8.672e-14
6.05862e-14
3.30397e-14
-4.92143e-15
-4.71496e-14
-9.41241e-14
-1.43389e-13
-1.81632e-13
-2.69542e-13
-2.86001e-13
-2.70229e-13
)
;

boundaryField
{
    inandouthalf11
    {
        type            cyclic;
        value           nonuniform List<scalar> 
100
(
-2.00017e-10
-2.00029e-10
-1.99805e-10
-1.99812e-10
-1.99898e-10
-2.00004e-10
-2.00123e-10
-2.00241e-10
-2.00343e-10
-2.00436e-10
-2.00524e-10
-2.00608e-10
-2.00689e-10
-2.00769e-10
-2.00858e-10
-2.00972e-10
-2.01133e-10
-2.01366e-10
-2.017e-10
-2.02159e-10
-2.02732e-10
-2.03333e-10
-2.03722e-10
-2.03577e-10
-2.02783e-10
-2.01689e-10
-2.0081e-10
-2.00338e-10
-2.0015e-10
-2.00089e-10
-2.00072e-10
-2.00072e-10
-2.00075e-10
-2.00084e-10
-2.00093e-10
-2.00105e-10
-2.00118e-10
-2.00133e-10
-2.00149e-10
-2.00163e-10
-2.00179e-10
-2.00195e-10
-2.00211e-10
-2.0023e-10
-2.00249e-10
-2.00269e-10
-2.00291e-10
-2.00314e-10
-2.00339e-10
-2.00367e-10
-2.00396e-10
-2.00427e-10
-2.0046e-10
-2.00495e-10
-2.00531e-10
-2.00572e-10
-2.00613e-10
-2.00657e-10
-2.00704e-10
-2.00752e-10
-2.00804e-10
-2.00856e-10
-2.00911e-10
-2.00967e-10
-2.01025e-10
-2.01084e-10
-2.01145e-10
-2.01208e-10
-2.01273e-10
-2.0134e-10
-2.0141e-10
-2.01484e-10
-2.01559e-10
-2.01637e-10
-2.01717e-10
-2.018e-10
-2.01884e-10
-2.01971e-10
-2.02059e-10
-2.0215e-10
-2.02242e-10
-2.02338e-10
-2.02436e-10
-2.02536e-10
-2.02639e-10
-2.02745e-10
-2.02853e-10
-2.02964e-10
-2.03077e-10
-2.03192e-10
-2.0331e-10
-2.03431e-10
-2.03554e-10
-2.0368e-10
-2.03809e-10
-2.0394e-10
-2.04075e-10
-2.04213e-10
-2.04353e-10
-2.04497e-10
)
;
    }
    inandouthalf12
    {
        type            cyclic;
        value           nonuniform List<scalar> 
100
(
2.00017e-10
2.00029e-10
1.99805e-10
1.99812e-10
1.99898e-10
2.00004e-10
2.00123e-10
2.00241e-10
2.00343e-10
2.00436e-10
2.00524e-10
2.00608e-10
2.00689e-10
2.00769e-10
2.00858e-10
2.00972e-10
2.01133e-10
2.01366e-10
2.017e-10
2.02159e-10
2.02732e-10
2.03333e-10
2.03722e-10
2.03577e-10
2.02783e-10
2.01689e-10
2.0081e-10
2.00338e-10
2.0015e-10
2.00089e-10
2.00072e-10
2.00072e-10
2.00075e-10
2.00084e-10
2.00093e-10
2.00105e-10
2.00118e-10
2.00133e-10
2.00149e-10
2.00163e-10
2.00179e-10
2.00195e-10
2.00211e-10
2.0023e-10
2.00249e-10
2.00269e-10
2.00291e-10
2.00314e-10
2.00339e-10
2.00367e-10
2.00396e-10
2.00427e-10
2.0046e-10
2.00495e-10
2.00531e-10
2.00572e-10
2.00613e-10
2.00657e-10
2.00704e-10
2.00752e-10
2.00804e-10
2.00856e-10
2.00911e-10
2.00967e-10
2.01025e-10
2.01084e-10
2.01145e-10
2.01208e-10
2.01273e-10
2.0134e-10
2.0141e-10
2.01484e-10
2.01559e-10
2.01637e-10
2.01717e-10
2.018e-10
2.01884e-10
2.01971e-10
2.02059e-10
2.0215e-10
2.02242e-10
2.02338e-10
2.02436e-10
2.02536e-10
2.02639e-10
2.02745e-10
2.02853e-10
2.02964e-10
2.03077e-10
2.03192e-10
2.0331e-10
2.03431e-10
2.03554e-10
2.0368e-10
2.03809e-10
2.0394e-10
2.04075e-10
2.04213e-10
2.04353e-10
2.04497e-10
)
;
    }
    inandouthalf21
    {
        type            cyclic;
        value           nonuniform List<scalar> 
100
(
-2.04644e-10
-2.04794e-10
-2.04948e-10
-2.05105e-10
-2.05266e-10
-2.0543e-10
-2.05598e-10
-2.0577e-10
-2.05946e-10
-2.06126e-10
-2.0631e-10
-2.06499e-10
-2.06693e-10
-2.06892e-10
-2.07096e-10
-2.07306e-10
-2.07521e-10
-2.07743e-10
-2.07971e-10
-2.08207e-10
-2.0845e-10
-2.08701e-10
-2.0896e-10
-2.09228e-10
-2.09506e-10
-2.09793e-10
-2.10091e-10
-2.104e-10
-2.1072e-10
-2.11053e-10
-2.11399e-10
-2.11757e-10
-2.12129e-10
-2.12519e-10
-2.1293e-10
-2.13364e-10
-2.13816e-10
-2.14293e-10
-2.14814e-10
-2.15406e-10
-2.16042e-10
-2.16639e-10
-2.17334e-10
-2.1823e-10
-2.19322e-10
-2.21025e-10
-2.26623e-10
-2.2355e-10
1.84587e-09
3.0644e-07
2.52047e-07
1.91417e-07
1.76726e-07
1.85709e-07
2.11058e-07
2.51074e-07
3.05831e-07
3.73413e-07
4.47011e-07
5.16552e-07
5.74415e-07
6.18649e-07
6.51234e-07
6.75244e-07
6.93362e-07
7.07533e-07
7.19064e-07
7.28812e-07
7.37334e-07
7.44993e-07
7.5203e-07
7.58607e-07
7.64834e-07
7.70786e-07
7.76516e-07
7.82061e-07
7.87448e-07
7.92697e-07
7.97823e-07
8.02837e-07
8.07747e-07
8.12561e-07
8.17284e-07
8.21921e-07
8.26476e-07
8.30953e-07
8.35354e-07
8.39682e-07
8.4394e-07
8.48128e-07
8.52248e-07
8.56301e-07
8.6029e-07
8.64214e-07
8.68075e-07
8.71874e-07
8.75611e-07
8.79286e-07
8.829e-07
8.86454e-07
)
;
    }
    inandouthalf22
    {
        type            cyclic;
        value           nonuniform List<scalar> 
100
(
2.04644e-10
2.04794e-10
2.04948e-10
2.05105e-10
2.05266e-10
2.0543e-10
2.05598e-10
2.0577e-10
2.05946e-10
2.06126e-10
2.0631e-10
2.06499e-10
2.06693e-10
2.06892e-10
2.07096e-10
2.07306e-10
2.07521e-10
2.07743e-10
2.07971e-10
2.08207e-10
2.0845e-10
2.08701e-10
2.0896e-10
2.09228e-10
2.09506e-10
2.09793e-10
2.10091e-10
2.104e-10
2.1072e-10
2.11053e-10
2.11399e-10
2.11757e-10
2.12129e-10
2.12519e-10
2.1293e-10
2.13364e-10
2.13816e-10
2.14293e-10
2.14814e-10
2.15406e-10
2.16042e-10
2.16639e-10
2.17334e-10
2.1823e-10
2.19322e-10
2.21025e-10
2.26623e-10
2.2355e-10
-1.84587e-09
-3.0644e-07
-2.52047e-07
-1.91417e-07
-1.76726e-07
-1.85709e-07
-2.11058e-07
-2.51074e-07
-3.05831e-07
-3.73413e-07
-4.47011e-07
-5.16552e-07
-5.74415e-07
-6.18649e-07
-6.51234e-07
-6.75244e-07
-6.93362e-07
-7.07533e-07
-7.19064e-07
-7.28812e-07
-7.37334e-07
-7.44993e-07
-7.5203e-07
-7.58607e-07
-7.64834e-07
-7.70786e-07
-7.76516e-07
-7.82061e-07
-7.87448e-07
-7.92697e-07
-7.97823e-07
-8.02837e-07
-8.07747e-07
-8.12561e-07
-8.17284e-07
-8.21921e-07
-8.26476e-07
-8.30953e-07
-8.35354e-07
-8.39682e-07
-8.4394e-07
-8.48128e-07
-8.52248e-07
-8.56301e-07
-8.6029e-07
-8.64214e-07
-8.68075e-07
-8.71874e-07
-8.75611e-07
-8.79286e-07
-8.829e-07
-8.86454e-07
)
;
    }
    inandouthalf31
    {
        type            cyclic;
        value           nonuniform List<scalar> 
110
(
8.89949e-07
9.11549e-07
9.33665e-07
9.56306e-07
9.79479e-07
1.00319e-06
1.02745e-06
1.05227e-06
1.07764e-06
1.10357e-06
1.13006e-06
1.15711e-06
1.1847e-06
1.21284e-06
1.2415e-06
1.27067e-06
1.30031e-06
1.33037e-06
1.36081e-06
1.39154e-06
1.42245e-06
1.45341e-06
1.4842e-06
1.51453e-06
1.54397e-06
1.57185e-06
1.59712e-06
1.61719e-06
1.62126e-06
1.59092e-06
1.6078e-06
1.63997e-06
1.67325e-06
1.70721e-06
1.74186e-06
1.77721e-06
1.81329e-06
1.85009e-06
1.88764e-06
1.92595e-06
1.96504e-06
2.00493e-06
2.04562e-06
2.08714e-06
2.12951e-06
2.17273e-06
2.21683e-06
2.26183e-06
2.30774e-06
2.35458e-06
2.40237e-06
2.45113e-06
2.50088e-06
2.55164e-06
2.60343e-06
2.65628e-06
2.71019e-06
2.7652e-06
2.82133e-06
2.87859e-06
2.93702e-06
2.99663e-06
3.05746e-06
3.11952e-06
3.18283e-06
3.24744e-06
3.31335e-06
3.3806e-06
3.44922e-06
3.51923e-06
3.59066e-06
3.66354e-06
3.7379e-06
3.81377e-06
3.89118e-06
3.97016e-06
4.05075e-06
4.13297e-06
4.21685e-06
4.30244e-06
4.38977e-06
4.47887e-06
4.56978e-06
4.66254e-06
4.75717e-06
4.85373e-06
4.95225e-06
5.05277e-06
5.15533e-06
5.25996e-06
5.36673e-06
5.47566e-06
5.5868e-06
5.7002e-06
5.8159e-06
5.93394e-06
6.05439e-06
6.17727e-06
6.30266e-06
6.43058e-06
6.56111e-06
6.69428e-06
6.83016e-06
6.96879e-06
7.11024e-06
7.25456e-06
7.4018e-06
7.55204e-06
7.70533e-06
7.86173e-06
)
;
    }
    inandouthalf32
    {
        type            cyclic;
        value           nonuniform List<scalar> 
110
(
-8.89949e-07
-9.11549e-07
-9.33665e-07
-9.56306e-07
-9.79479e-07
-1.00319e-06
-1.02745e-06
-1.05227e-06
-1.07764e-06
-1.10357e-06
-1.13006e-06
-1.15711e-06
-1.1847e-06
-1.21284e-06
-1.2415e-06
-1.27067e-06
-1.30031e-06
-1.33037e-06
-1.36081e-06
-1.39154e-06
-1.42245e-06
-1.45341e-06
-1.4842e-06
-1.51453e-06
-1.54397e-06
-1.57185e-06
-1.59712e-06
-1.61719e-06
-1.62126e-06
-1.59092e-06
-1.6078e-06
-1.63997e-06
-1.67325e-06
-1.70721e-06
-1.74186e-06
-1.77721e-06
-1.81329e-06
-1.85009e-06
-1.88764e-06
-1.92595e-06
-1.96504e-06
-2.00493e-06
-2.04562e-06
-2.08714e-06
-2.12951e-06
-2.17273e-06
-2.21683e-06
-2.26183e-06
-2.30774e-06
-2.35458e-06
-2.40237e-06
-2.45113e-06
-2.50088e-06
-2.55164e-06
-2.60343e-06
-2.65628e-06
-2.71019e-06
-2.7652e-06
-2.82133e-06
-2.87859e-06
-2.93702e-06
-2.99663e-06
-3.05746e-06
-3.11952e-06
-3.18283e-06
-3.24744e-06
-3.31335e-06
-3.3806e-06
-3.44922e-06
-3.51923e-06
-3.59066e-06
-3.66354e-06
-3.7379e-06
-3.81377e-06
-3.89118e-06
-3.97016e-06
-4.05075e-06
-4.13297e-06
-4.21685e-06
-4.30244e-06
-4.38977e-06
-4.47887e-06
-4.56978e-06
-4.66254e-06
-4.75717e-06
-4.85373e-06
-4.95225e-06
-5.05277e-06
-5.15533e-06
-5.25996e-06
-5.36673e-06
-5.47566e-06
-5.5868e-06
-5.7002e-06
-5.8159e-06
-5.93394e-06
-6.05439e-06
-6.17727e-06
-6.30266e-06
-6.43058e-06
-6.56111e-06
-6.69428e-06
-6.83016e-06
-6.96879e-06
-7.11024e-06
-7.25456e-06
-7.4018e-06
-7.55204e-06
-7.70533e-06
-7.86173e-06
)
;
    }
    inandouthalf41
    {
        type            cyclic;
        value           nonuniform List<scalar> 
50
(
7.03705e-06
7.03705e-06
7.03705e-06
7.03705e-06
7.03705e-06
7.03705e-06
7.03705e-06
7.03705e-06
7.03705e-06
7.03705e-06
7.03705e-06
7.03705e-06
7.03705e-06
7.03705e-06
7.03705e-06
7.03705e-06
7.03705e-06
7.03705e-06
7.03705e-06
7.03705e-06
7.03705e-06
7.03705e-06
7.03705e-06
7.03705e-06
7.03705e-06
7.03705e-06
7.03705e-06
7.03705e-06
7.03705e-06
7.03705e-06
7.03705e-06
7.03705e-06
7.03705e-06
7.03705e-06
7.03705e-06
7.03705e-06
7.03705e-06
7.03705e-06
7.03705e-06
7.03705e-06
7.03705e-06
7.03705e-06
7.03705e-06
7.03705e-06
7.03705e-06
7.03705e-06
7.03705e-06
7.03705e-06
7.03705e-06
7.03705e-06
)
;
    }
    inandouthalf42
    {
        type            cyclic;
        value           nonuniform List<scalar> 
50
(
-7.03705e-06
-7.03705e-06
-7.03705e-06
-7.03705e-06
-7.03705e-06
-7.03705e-06
-7.03705e-06
-7.03705e-06
-7.03705e-06
-7.03705e-06
-7.03705e-06
-7.03705e-06
-7.03705e-06
-7.03705e-06
-7.03705e-06
-7.03705e-06
-7.03705e-06
-7.03705e-06
-7.03705e-06
-7.03705e-06
-7.03705e-06
-7.03705e-06
-7.03705e-06
-7.03705e-06
-7.03705e-06
-7.03705e-06
-7.03705e-06
-7.03705e-06
-7.03705e-06
-7.03705e-06
-7.03705e-06
-7.03705e-06
-7.03705e-06
-7.03705e-06
-7.03705e-06
-7.03705e-06
-7.03705e-06
-7.03705e-06
-7.03705e-06
-7.03705e-06
-7.03705e-06
-7.03705e-06
-7.03705e-06
-7.03705e-06
-7.03705e-06
-7.03705e-06
-7.03705e-06
-7.03705e-06
-7.03705e-06
-7.03705e-06
)
;
    }
    top
    {
        type            symmetryPlane;
        value           uniform 0;
    }
    walls
    {
        type            calculated;
        value           uniform 0;
    }
    frontAndBackPlanes
    {
        type            empty;
        value           nonuniform 0();
    }
}


// ************************************************************************* //
