/*--------------------------------*- C++ -*----------------------------------*\
| =========                 |                                                 |
| \\      /  F ield         | OpenFOAM: The Open Source CFD Toolbox           |
|  \\    /   O peration     | Version:  2.4.x                                 |
|   \\  /    A nd           | Web:      www.OpenFOAM.org                      |
|    \\/     M anipulation  |                                                 |
\*---------------------------------------------------------------------------*/
FoamFile
{
    version     2.0;
    format      ascii;
    class       volVectorField;
    location    "3.6";
    object      ddt0(Ub);
}
// * * * * * * * * * * * * * * * * * * * * * * * * * * * * * * * * * * * * * //

dimensions      [0 1 -2 0 0 0 0];

internalField   nonuniform List<vector> 
360
(
(0.000200017 1.32514e-08 0)
(0.000200029 -4.12323e-08 0)
(0.000199805 -2.14074e-07 0)
(0.000199812 -4.226e-07 0)
(0.000199898 -6.16682e-07 0)
(0.000200004 -7.99495e-07 0)
(0.000200123 -9.96444e-07 0)
(0.000200241 -1.22275e-06 0)
(0.000200343 -1.47255e-06 0)
(0.000200436 -1.7267e-06 0)
(0.000200524 -1.96726e-06 0)
(0.000200608 -2.18746e-06 0)
(0.000200689 -2.39633e-06 0)
(0.000200769 -2.62038e-06 0)
(0.000200858 -2.90487e-06 0)
(0.000200972 -3.31501e-06 0)
(0.000201133 -3.93645e-06 0)
(0.000201366 -4.87418e-06 0)
(0.0002017 -6.24317e-06 0)
(0.000202159 -8.13061e-06 0)
(0.000202732 -1.04801e-05 0)
(0.000203333 -1.28714e-05 0)
(0.000203722 -1.43366e-05 0)
(0.000203577 -1.36815e-05 0)
(0.000202783 -1.05516e-05 0)
(0.000201689 -6.1814e-06 0)
(0.00020081 -2.44511e-06 0)
(0.000200338 -2.39632e-07 0)
(0.00020015 7.28272e-07 0)
(0.000200089 1.07257e-06 0)
(0.000200072 1.1819e-06 0)
(0.000200072 1.2137e-06 0)
(0.000200075 1.21897e-06 0)
(0.000200084 1.21304e-06 0)
(0.000200093 1.20069e-06 0)
(0.000200105 1.18402e-06 0)
(0.000200118 1.16477e-06 0)
(0.000200133 1.14474e-06 0)
(0.000200149 1.12551e-06 0)
(0.000200163 1.10804e-06 0)
(0.000200179 1.09255e-06 0)
(0.000200195 1.07867e-06 0)
(0.000200211 1.06581e-06 0)
(0.00020023 1.05337e-06 0)
(0.000200249 1.04087e-06 0)
(0.000200269 1.02802e-06 0)
(0.000200291 1.01467e-06 0)
(0.000200314 1.00077e-06 0)
(0.000200339 9.86327e-07 0)
(0.000200367 9.71374e-07 0)
(0.000200396 9.55964e-07 0)
(0.000200427 9.40154e-07 0)
(0.00020046 9.23974e-07 0)
(0.000200495 9.07441e-07 0)
(0.000200531 8.90534e-07 0)
(0.000200572 8.7322e-07 0)
(0.000200613 8.55441e-07 0)
(0.000200657 8.37168e-07 0)
(0.000200704 8.18348e-07 0)
(0.000200752 7.98958e-07 0)
(0.000200804 7.78989e-07 0)
(0.000200856 7.58452e-07 0)
(0.000200911 7.37404e-07 0)
(0.000200967 7.15893e-07 0)
(0.000201025 6.94e-07 0)
(0.000201084 6.71775e-07 0)
(0.000201145 6.49236e-07 0)
(0.000201208 6.26346e-07 0)
(0.000201273 6.03033e-07 0)
(0.00020134 5.79198e-07 0)
(0.00020141 5.54706e-07 0)
(0.000201484 5.29409e-07 0)
(0.000201559 5.03205e-07 0)
(0.000201637 4.76024e-07 0)
(0.000201717 4.47822e-07 0)
(0.0002018 4.18625e-07 0)
(0.000201884 3.88503e-07 0)
(0.000201971 3.5756e-07 0)
(0.000202059 3.25879e-07 0)
(0.00020215 2.9353e-07 0)
(0.000202242 2.60567e-07 0)
(0.000202338 2.26991e-07 0)
(0.000202436 1.92763e-07 0)
(0.000202536 1.57834e-07 0)
(0.000202639 1.22162e-07 0)
(0.000202745 8.57075e-08 0)
(0.000202853 4.84549e-08 0)
(0.000202964 1.04264e-08 0)
(0.000203077 -2.83327e-08 0)
(0.000203192 -6.77639e-08 0)
(0.00020331 -1.07807e-07 0)
(0.000203431 -1.48401e-07 0)
(0.000203554 -1.89502e-07 0)
(0.00020368 -2.31087e-07 0)
(0.000203809 -2.7314e-07 0)
(0.00020394 -3.15648e-07 0)
(0.000204075 -3.58606e-07 0)
(0.000204213 -4.02003e-07 0)
(0.000204353 -4.45817e-07 0)
(0.000204497 -4.90026e-07 0)
(0.000204644 -5.34598e-07 0)
(0.000204794 -5.79503e-07 0)
(0.000204948 -6.24701e-07 0)
(0.000205105 -6.70149e-07 0)
(0.000205266 -7.15806e-07 0)
(0.00020543 -7.61628e-07 0)
(0.000205598 -8.07564e-07 0)
(0.00020577 -8.53562e-07 0)
(0.000205946 -8.99584e-07 0)
(0.000206126 -9.45592e-07 0)
(0.00020631 -9.91561e-07 0)
(0.000206499 -1.03747e-06 0)
(0.000206693 -1.08333e-06 0)
(0.000206892 -1.12917e-06 0)
(0.000207096 -1.17502e-06 0)
(0.000207306 -1.22095e-06 0)
(0.000207521 -1.26707e-06 0)
(0.000207743 -1.31348e-06 0)
(0.000207971 -1.36035e-06 0)
(0.000208207 -1.40783e-06 0)
(0.00020845 -1.45608e-06 0)
(0.000208701 -1.50527e-06 0)
(0.00020896 -1.55553e-06 0)
(0.000209228 -1.60696e-06 0)
(0.000209506 -1.65958e-06 0)
(0.000209793 -1.71333e-06 0)
(0.000210091 -1.76806e-06 0)
(0.0002104 -1.82351e-06 0)
(0.00021072 -1.87931e-06 0)
(0.000211053 -1.93502e-06 0)
(0.000211399 -1.99006e-06 0)
(0.000211757 -2.04387e-06 0)
(0.000212129 -2.09589e-06 0)
(0.000212519 -2.14575e-06 0)
(0.00021293 -2.19319e-06 0)
(0.000213364 -2.238e-06 0)
(0.000213816 -2.27973e-06 0)
(0.000214293 -2.31778e-06 0)
(0.000214814 -2.35153e-06 0)
(0.000215406 -2.3803e-06 0)
(0.000216042 -2.40293e-06 0)
(0.000216639 -2.41682e-06 0)
(0.000217334 -2.42251e-06 0)
(0.00021823 -2.42259e-06 0)
(0.000219322 -2.42093e-06 0)
(0.000221025 -2.39031e-06 0)
(0.000226623 -2.4178e-06 0)
(0.00022355 1.76648e-05 0)
(-0.00184587 -0.000200964 0)
(-0.30644 -0.00104841 0)
(-0.252047 0.00172661 0)
(-0.191417 -0.000195949 0)
(-0.176726 8.56909e-05 0)
(-0.185709 -0.000346813 0)
(-0.211058 -0.000474955 0)
(-0.251074 -0.000500506 0)
(-0.305831 -0.000455389 0)
(-0.373413 -0.000367828 0)
(-0.447011 -0.000262704 0)
(-0.516552 -0.000167847 0)
(-0.574415 -0.000105229 0)
(-0.618649 -7.22895e-05 0)
(-0.651234 -5.50757e-05 0)
(-0.675244 -4.50367e-05 0)
(-0.693362 -3.829e-05 0)
(-0.707533 -3.33308e-05 0)
(-0.719064 -2.94669e-05 0)
(-0.728812 -2.6316e-05 0)
(-0.737334 -2.36535e-05 0)
(-0.744993 -2.13451e-05 0)
(-0.75203 -1.93079e-05 0)
(-0.758607 -1.74882e-05 0)
(-0.764834 -1.58499e-05 0)
(-0.770786 -1.43672e-05 0)
(-0.776516 -1.30207e-05 0)
(-0.782061 -1.17953e-05 0)
(-0.787448 -1.0678e-05 0)
(-0.792697 -9.6577e-06 0)
(-0.797823 -8.72384e-06 0)
(-0.802837 -7.86649e-06 0)
(-0.807747 -7.07586e-06 0)
(-0.812561 -6.34222e-06 0)
(-0.817284 -5.65576e-06 0)
(-0.821921 -5.00654e-06 0)
(-0.826476 -4.38474e-06 0)
(-0.830953 -3.78141e-06 0)
(-0.835354 -3.19096e-06 0)
(-0.839682 -2.6161e-06 0)
(-0.84394 -2.0738e-06 0)
(-0.848128 -1.59614e-06 0)
(-0.852248 -1.21767e-06 0)
(-0.856301 -9.51895e-07 0)
(-0.86029 -7.77718e-07 0)
(-0.864214 -6.54553e-07 0)
(-0.868075 -5.52666e-07 0)
(-0.871874 -4.65306e-07 0)
(-0.875611 -3.94909e-07 0)
(-0.879286 -3.39112e-07 0)
(-0.8829 -2.91969e-07 0)
(-0.886454 -2.50644e-07 0)
(-0.889946 -2.16346e-07 0)
(-0.893412 -1.89464e-07 0)
(-0.896884 -1.6657e-07 0)
(-0.900358 -1.43818e-07 0)
(-0.90383 -1.22793e-07 0)
(-0.907297 -1.07415e-07 0)
(-0.910753 -9.57541e-08 0)
(-0.914193 -8.29921e-08 0)
(-0.91761 -7.02879e-08 0)
(-0.920996 -6.11997e-08 0)
(-0.924341 -5.40898e-08 0)
(-0.927635 -4.65511e-08 0)
(-0.930865 -3.98784e-08 0)
(-0.934016 -3.46371e-08 0)
(-0.93707 -2.96997e-08 0)
(-0.940005 -2.54856e-08 0)
(-0.942793 -2.23787e-08 0)
(-0.945404 -1.9217e-08 0)
(-0.947795 -1.60162e-08 0)
(-0.949917 -1.382e-08 0)
(-0.951704 -1.21488e-08 0)
(-0.95307 -1.02813e-08 0)
(-0.953899 -8.61984e-09 0)
(-0.954029 -7.32881e-09 0)
(-0.953225 -6.18502e-09 0)
(-0.951134 -4.32824e-09 0)
(-0.947199 -6.90779e-09 0)
(-0.94002 4.88751e-10 0)
(-0.92364 -8.27469e-09 0)
(-0.888324 3.11664e-09 0)
(-0.879887 -7.85545e-09 0)
(-0.879641 3.92273e-09 0)
(-0.879636 -7.16792e-09 0)
(-0.879635 5.04331e-09 0)
(-0.879635 -6.5714e-09 0)
(-0.879634 5.33568e-09 0)
(-0.879634 -7.0158e-09 0)
(-0.879633 5.26489e-09 0)
(-0.879632 -7.98333e-09 0)
(-0.879632 5.72761e-09 0)
(-0.879631 -6.68522e-09 0)
(-0.879631 6.7295e-09 0)
(-0.879631 -7.02159e-09 0)
(-0.879631 7.09025e-09 0)
(-0.879631 -7.39128e-09 0)
(-0.879631 7.47072e-09 0)
(-0.879631 -7.77408e-09 0)
(-0.879631 7.85936e-09 0)
(-0.879631 -8.16415e-09 0)
(-0.879631 8.25568e-09 0)
(-0.879631 -8.55735e-09 0)
(-0.879631 8.65884e-09 0)
(-0.879631 -8.95881e-09 0)
(-0.879631 9.07194e-09 0)
(-0.879631 -9.37639e-09 0)
(-0.879631 9.49714e-09 0)
(-0.879631 -9.81176e-09 0)
(-0.879631 9.94401e-09 0)
(-0.879631 -1.02691e-08 0)
(-0.879631 1.04157e-08 0)
(-0.879631 -1.07533e-08 0)
(-0.879631 1.09113e-08 0)
(-0.879631 -1.12672e-08 0)
(-0.879631 1.1437e-08 0)
(-0.879631 -1.18067e-08 0)
(-0.879631 1.19945e-08 0)
(-0.879631 -1.2375e-08 0)
(-0.879631 1.25802e-08 0)
(-0.879631 -1.29715e-08 0)
(-0.879631 1.31946e-08 0)
(-0.879631 -1.35947e-08 0)
(-0.879631 1.3836e-08 0)
(-0.879631 -1.42439e-08 0)
(-0.879631 1.45032e-08 0)
(-0.879631 -1.49197e-08 0)
(-0.879631 1.51933e-08 0)
(-0.879631 -1.56202e-08 0)
(-0.879631 1.5907e-08 0)
(-0.879631 -1.63413e-08 0)
(-0.879631 1.66455e-08 0)
(-0.879631 -1.70837e-08 0)
(-0.879631 1.74041e-08 0)
(-0.879631 -1.78482e-08 0)
(-0.879631 1.81828e-08 0)
(-0.879631 -1.86321e-08 0)
(-0.879631 1.8981e-08 0)
(-0.879631 -1.94328e-08 0)
(-0.879631 1.98015e-08 0)
(-0.879631 -2.02492e-08 0)
(-0.879631 2.06381e-08 0)
(-0.879631 -2.10838e-08 0)
(-0.879631 2.1493e-08 0)
(-0.879631 -2.19282e-08 0)
(-0.879631 2.2368e-08 0)
(-0.879631 -2.27798e-08 0)
(-0.879631 2.32695e-08 0)
(-0.879631 -2.36219e-08 0)
(-0.879631 2.42092e-08 0)
(-0.879631 -2.4444e-08 0)
(-0.879631 2.51847e-08 0)
(-0.879631 -2.52535e-08 0)
(-0.879631 2.61781e-08 0)
(-0.879631 -2.60578e-08 0)
(-0.879631 2.71846e-08 0)
(-0.879631 -2.68446e-08 0)
(-0.879631 2.82012e-08 0)
(-0.879631 -2.76278e-08 0)
(-0.879631 2.92127e-08 0)
(-0.879631 -2.8369e-08 0)
(-0.879631 3.02182e-08 0)
(-0.879631 -2.5394e-08 0)
(-0.879631 2.69107e-08 0)
(-0.879631 -2.48357e-08 0)
(-0.879631 2.66617e-08 0)
(-0.879631 -2.4174e-08 0)
(-0.879631 2.63405e-08 0)
(-0.879631 -2.34416e-08 0)
(-0.879631 2.59214e-08 0)
(-0.879631 -2.26231e-08 0)
(-0.879631 2.53605e-08 0)
(-0.879631 -2.16283e-08 0)
(-0.879631 2.47283e-08 0)
(-0.879631 -2.03418e-08 0)
(-0.879631 2.38334e-08 0)
(-0.879631 -1.87348e-08 0)
(-0.879631 2.26395e-08 0)
(-0.879631 -1.48665e-08 0)
(-0.879631 2.09265e-08 0)
(-0.879631 -1.10423e-08 0)
(-0.879631 2.39204e-08 0)
(-0.879631 -5.33703e-09 0)
(-0.879631 2.88273e-08 0)
(-0.879631 7.12596e-10 0)
(-0.879631 3.3729e-08 0)
(-0.879631 6.02583e-09 0)
(-0.879631 3.73915e-08 0)
(-0.879631 1.05618e-08 0)
(-0.879631 4.17773e-08 0)
(-0.879631 1.52732e-08 0)
(-0.879631 4.42034e-08 0)
(-0.879631 1.72416e-08 0)
(-0.879631 4.48728e-08 0)
(-0.879631 1.70141e-08 0)
(-0.879631 4.22292e-08 0)
(-0.879631 1.54897e-08 0)
(-0.879631 4.22864e-08 0)
(-0.879631 1.575e-08 0)
(-0.879631 3.88421e-08 0)
(-0.879631 1.00039e-08 0)
(-0.879631 3.08768e-08 0)
(-0.879631 -8.01164e-10 0)
(-0.879631 1.57982e-08 0)
(-0.879631 -1.87987e-08 0)
(-0.879631 -5.52399e-09 0)
(-0.879631 -4.17464e-08 0)
(-0.879631 -2.87312e-08 0)
(-0.879631 -6.82984e-08 0)
(-0.879631 -5.72486e-08 0)
(-0.879631 -8.08184e-08 0)
(-0.879631 -2.14644e-08 0)
)
;

boundaryField
{
    inandouthalf11
    {
        type            cyclic;
    }
    inandouthalf12
    {
        type            cyclic;
    }
    inandouthalf21
    {
        type            cyclic;
    }
    inandouthalf22
    {
        type            cyclic;
    }
    inandouthalf31
    {
        type            cyclic;
    }
    inandouthalf32
    {
        type            cyclic;
    }
    inandouthalf41
    {
        type            cyclic;
    }
    inandouthalf42
    {
        type            cyclic;
    }
    top
    {
        type            symmetryPlane;
    }
    walls
    {
        type            calculated;
        value           uniform (0 0 0);
    }
    frontAndBackPlanes
    {
        type            empty;
    }
}


// ************************************************************************* //
