/*--------------------------------*- C++ -*----------------------------------*\
| =========                 |                                                 |
| \\      /  F ield         | OpenFOAM: The Open Source CFD Toolbox           |
|  \\    /   O peration     | Version:  2.4.x                                 |
|   \\  /    A nd           | Web:      www.OpenFOAM.org                      |
|    \\/     M anipulation  |                                                 |
\*---------------------------------------------------------------------------*/
FoamFile
{
    version     2.0;
    format      ascii;
    class       surfaceScalarField;
    location    "3.6";
    object      ddt0(phia);
}
// * * * * * * * * * * * * * * * * * * * * * * * * * * * * * * * * * * * * * //

dimensions      [0 3 -2 0 0 0 0];

internalField   nonuniform List<scalar> 
359
(
-2.13451e-14
2.81297e-13
8.21577e-13
1.34877e-12
1.81558e-12
2.28633e-12
2.82606e-12
3.44705e-12
4.10714e-12
4.75042e-12
5.3413e-12
5.88086e-12
6.41411e-12
7.0316e-12
7.87416e-12
9.13484e-12
1.10594e-11
1.39405e-11
1.80753e-11
2.36125e-11
3.01133e-11
3.5866e-11
3.76251e-11
3.25098e-11
2.16087e-11
1.01515e-11
2.46062e-12
-1.18038e-12
-2.52256e-12
-2.95517e-12
-3.08673e-12
-3.11955e-12
-3.11434e-12
-3.08941e-12
-3.05127e-12
-3.00419e-12
-2.95281e-12
-2.90177e-12
-2.8545e-12
-2.81253e-12
-2.7754e-12
-2.74171e-12
-2.70982e-12
-2.67826e-12
-2.64608e-12
-2.61273e-12
-2.57798e-12
-2.54183e-12
-2.50433e-12
-2.46557e-12
-2.42575e-12
-2.38494e-12
-2.34324e-12
-2.3006e-12
-2.25701e-12
-2.2123e-12
-2.16637e-12
-2.11909e-12
-2.07036e-12
-2.02017e-12
-1.96846e-12
-1.91537e-12
-1.861e-12
-1.80556e-12
-1.74922e-12
-1.69207e-12
-1.63409e-12
-1.57515e-12
-1.51499e-12
-1.45333e-12
-1.38976e-12
-1.32394e-12
-1.25568e-12
-1.18479e-12
-1.11129e-12
-1.03525e-12
-9.56949e-13
-8.76633e-13
-7.9452e-13
-7.10754e-13
-6.25404e-13
-5.38414e-13
-4.49666e-13
-3.59023e-13
-2.66358e-13
-1.71609e-13
-7.47775e-14
2.4047e-14
1.24725e-13
2.27096e-13
3.31003e-13
4.36317e-13
5.42953e-13
6.50861e-13
7.60015e-13
8.70399e-13
9.81992e-13
1.09476e-12
1.20865e-12
1.32361e-12
1.43954e-12
1.55635e-12
1.67396e-12
1.79224e-12
1.91108e-12
2.03038e-12
2.15e-12
2.26983e-12
2.38978e-12
2.50977e-12
2.62973e-12
2.74967e-12
2.86963e-12
2.98968e-12
3.10999e-12
3.23078e-12
3.35233e-12
3.47501e-12
3.59923e-12
3.72542e-12
3.85404e-12
3.9855e-12
4.12013e-12
4.25812e-12
4.39943e-12
4.5438e-12
4.69072e-12
4.83939e-12
4.98874e-12
5.13748e-12
5.28407e-12
5.42701e-12
5.56505e-12
5.69746e-12
5.82381e-12
5.9433e-12
6.05456e-12
6.15608e-12
6.24646e-12
6.32323e-12
6.3814e-12
6.41599e-12
6.43325e-12
6.44084e-12
6.44421e-12
6.4437e-12
5.88737e-12
9.41373e-12
2.90487e-09
-5.17277e-10
-1.05986e-08
-1.30629e-08
-1.15068e-08
-6.49632e-09
3.30777e-09
2.06186e-08
4.92637e-08
9.11923e-08
1.35111e-07
1.60868e-07
1.68876e-07
1.69675e-07
1.67697e-07
1.64495e-07
1.60901e-07
1.57226e-07
1.53572e-07
1.49978e-07
1.46464e-07
1.43048e-07
1.39747e-07
1.36576e-07
1.33549e-07
1.30674e-07
1.27951e-07
1.25373e-07
1.22923e-07
1.20576e-07
1.18295e-07
1.16035e-07
1.13742e-07
1.11358e-07
1.08822e-07
1.06082e-07
1.03109e-07
9.99181e-08
9.65879e-08
9.32715e-08
9.01756e-08
8.7497e-08
8.53101e-08
8.35047e-08
8.18966e-08
8.04005e-08
7.90481e-08
7.78616e-08
7.67968e-08
7.58133e-08
7.49103e-08
7.4102e-08
7.3393e-08
7.27276e-08
7.20547e-08
7.14208e-08
7.09134e-08
7.04657e-08
6.99362e-08
6.94229e-08
6.9089e-08
6.87626e-08
6.83462e-08
6.80413e-08
6.78268e-08
6.7537e-08
6.73168e-08
6.72347e-08
6.70548e-08
6.68318e-08
6.68306e-08
6.68243e-08
6.66552e-08
6.65989e-08
6.65518e-08
6.64094e-08
6.63164e-08
6.6084e-08
6.56689e-08
6.52545e-08
6.45712e-08
6.36569e-08
6.27124e-08
6.16079e-08
6.06582e-08
6.02483e-08
6.03338e-08
6.0676e-08
6.10391e-08
6.10076e-08
3.05551e-08
-3.47353e-10
-3.01016e-10
-3.15774e-10
-3.14284e-10
-3.14397e-10
-3.1438e-10
-3.14371e-10
-3.14366e-10
-3.1436e-10
-3.14356e-10
-3.14352e-10
-3.1435e-10
-3.14347e-10
-3.14345e-10
-3.14343e-10
-3.14343e-10
-3.14341e-10
-3.14341e-10
-3.14339e-10
-3.14341e-10
-3.14338e-10
-3.1434e-10
-3.14337e-10
-3.1434e-10
-3.14336e-10
-3.1434e-10
-3.14336e-10
-3.1434e-10
-3.14336e-10
-3.14339e-10
-3.14337e-10
-3.1434e-10
-3.14336e-10
-3.1434e-10
-3.14336e-10
-3.1434e-10
-3.14336e-10
-3.1434e-10
-3.14336e-10
-3.14339e-10
-3.14336e-10
-3.14339e-10
-3.14336e-10
-3.14339e-10
-3.14337e-10
-3.14339e-10
-3.14337e-10
-3.14338e-10
-3.14337e-10
-3.14338e-10
-3.14338e-10
-3.14338e-10
-3.14338e-10
-3.14337e-10
-3.14338e-10
-3.14337e-10
-3.14339e-10
-3.14336e-10
-3.14339e-10
-3.14336e-10
-3.1434e-10
-3.14335e-10
-3.1434e-10
-3.14334e-10
-3.1434e-10
-3.14333e-10
-3.14341e-10
-3.14333e-10
-3.14341e-10
-3.14332e-10
-3.14341e-10
-3.14331e-10
-3.14341e-10
-3.14331e-10
-3.14341e-10
-3.1433e-10
-3.14341e-10
-3.1433e-10
-3.14341e-10
-3.1433e-10
-3.14341e-10
-3.1433e-10
-3.1434e-10
-3.1433e-10
-3.14339e-10
-3.14332e-10
-3.14333e-10
-3.14331e-10
-3.14332e-10
-3.14326e-10
-3.14326e-10
-3.14318e-10
-3.14317e-10
-3.14309e-10
-3.14309e-10
-3.14302e-10
-3.14303e-10
-3.14296e-10
-3.14296e-10
-3.1429e-10
-3.14293e-10
-3.14288e-10
-3.14292e-10
-3.1429e-10
-3.14296e-10
-3.14291e-10
-3.14294e-10
-3.14293e-10
-3.14301e-10
-3.14303e-10
-3.14314e-10
-3.14323e-10
-3.14338e-10
-3.14353e-10
-3.14371e-10
-3.14388e-10
-3.14412e-10
-3.14613e-10
-3.18354e-10
-4.87906e-10
)
;

boundaryField
{
    inandouthalf11
    {
        type            cyclic;
        value           nonuniform List<scalar> 
100
(
2.23335e-40
-8.3449e-15
-4.6126e-14
-8.94799e-14
-1.27471e-13
-1.62224e-13
-1.98437e-13
-2.38713e-13
-2.81922e-13
-3.24544e-13
-3.63363e-13
-3.97194e-13
-4.27534e-13
-4.58789e-13
-4.98421e-13
-5.56996e-13
-6.48077e-13
-7.8793e-13
-9.94272e-13
-1.28102e-12
-1.64172e-12
-2.0135e-12
-2.23561e-12
-2.08711e-12
-1.49626e-12
-7.17451e-13
-1.10706e-13
2.05765e-13
3.29159e-13
3.70082e-13
3.82858e-13
3.86414e-13
3.86512e-13
3.84838e-13
3.81876e-13
3.77853e-13
3.73065e-13
3.67918e-13
3.62818e-13
3.58038e-13
3.53654e-13
3.49589e-13
3.45695e-13
3.41812e-13
3.37811e-13
3.33605e-13
3.29143e-13
3.24406e-13
3.19388e-13
3.14093e-13
3.08532e-13
3.02719e-13
2.96661e-13
2.90361e-13
2.8381e-13
2.76991e-13
2.69884e-13
2.62466e-13
2.54719e-13
2.46631e-13
2.38193e-13
2.29409e-13
2.20296e-13
2.1088e-13
2.01192e-13
1.91253e-13
1.81068e-13
1.70624e-13
1.59884e-13
1.48799e-13
1.37302e-13
1.25322e-13
1.12805e-13
9.97094e-14
8.60151e-14
7.17258e-14
5.68709e-14
4.14952e-14
2.56422e-14
9.34502e-15
-7.37773e-15
-2.45266e-14
-4.21203e-14
-6.0187e-14
-7.87559e-14
-9.78493e-14
-1.17477e-13
-1.37632e-13
-1.58296e-13
-1.79439e-13
-2.01031e-13
-2.23045e-13
-2.45459e-13
-2.68262e-13
-2.91448e-13
-3.15014e-13
-3.38958e-13
-3.63277e-13
-3.87964e-13
-4.1301e-13
)
;
    }
    inandouthalf12
    {
        type            cyclic;
        value           nonuniform List<scalar> 
100
(
-2.23335e-40
8.3449e-15
4.6126e-14
8.94799e-14
1.27471e-13
1.62224e-13
1.98437e-13
2.38713e-13
2.81922e-13
3.24544e-13
3.63363e-13
3.97194e-13
4.27534e-13
4.58789e-13
4.98421e-13
5.56996e-13
6.48077e-13
7.8793e-13
9.94272e-13
1.28102e-12
1.64172e-12
2.0135e-12
2.23561e-12
2.08711e-12
1.49626e-12
7.17451e-13
1.10706e-13
-2.05765e-13
-3.29159e-13
-3.70082e-13
-3.82858e-13
-3.86414e-13
-3.86512e-13
-3.84838e-13
-3.81876e-13
-3.77853e-13
-3.73065e-13
-3.67918e-13
-3.62818e-13
-3.58038e-13
-3.53654e-13
-3.49589e-13
-3.45695e-13
-3.41812e-13
-3.37811e-13
-3.33605e-13
-3.29143e-13
-3.24406e-13
-3.19388e-13
-3.14093e-13
-3.08532e-13
-3.02719e-13
-2.96661e-13
-2.90361e-13
-2.8381e-13
-2.76991e-13
-2.69884e-13
-2.62466e-13
-2.54719e-13
-2.46631e-13
-2.38193e-13
-2.29409e-13
-2.20296e-13
-2.1088e-13
-2.01192e-13
-1.91253e-13
-1.81068e-13
-1.70624e-13
-1.59884e-13
-1.48799e-13
-1.37302e-13
-1.25322e-13
-1.12805e-13
-9.97094e-14
-8.60151e-14
-7.17258e-14
-5.68709e-14
-4.14952e-14
-2.56422e-14
-9.34502e-15
7.37773e-15
2.45266e-14
4.21203e-14
6.0187e-14
7.87559e-14
9.78493e-14
1.17477e-13
1.37632e-13
1.58296e-13
1.79439e-13
2.01031e-13
2.23045e-13
2.45459e-13
2.68262e-13
2.91448e-13
3.15014e-13
3.38958e-13
3.63277e-13
3.87964e-13
4.1301e-13
)
;
    }
    inandouthalf21
    {
        type            cyclic;
        value           nonuniform List<scalar> 
100
(
-4.38402e-13
-4.64122e-13
-4.90154e-13
-5.16478e-13
-5.43071e-13
-5.69912e-13
-5.96976e-13
-6.24241e-13
-6.51686e-13
-6.79295e-13
-7.07055e-13
-7.34965e-13
-7.63034e-13
-7.91282e-13
-8.19746e-13
-8.48482e-13
-8.77563e-13
-9.07083e-13
-9.37156e-13
-9.67911e-13
-9.99493e-13
-1.03205e-12
-1.06572e-12
-1.10064e-12
-1.1369e-12
-1.17454e-12
-1.21356e-12
-1.25389e-12
-1.29537e-12
-1.33781e-12
-1.3809e-12
-1.42432e-12
-1.46776e-12
-1.51103e-12
-1.55402e-12
-1.5966e-12
-1.63848e-12
-1.6792e-12
-1.71819e-12
-1.75427e-12
-1.78494e-12
-1.80707e-12
-1.82015e-12
-1.82659e-12
-1.82943e-12
-1.8311e-12
-1.83322e-12
-1.47416e-12
3.88777e-12
2.55308e-07
2.77298e-07
2.11945e-07
1.98429e-07
2.14769e-07
2.51888e-07
3.04137e-07
3.64853e-07
4.25432e-07
4.77999e-07
5.19362e-07
5.5134e-07
5.76937e-07
5.98161e-07
6.16226e-07
6.31924e-07
6.45795e-07
6.58216e-07
6.69463e-07
6.79739e-07
6.89196e-07
6.97952e-07
7.061e-07
7.13712e-07
7.20846e-07
7.27549e-07
7.33859e-07
7.39809e-07
7.45423e-07
7.50723e-07
7.55729e-07
7.60456e-07
7.64917e-07
7.69124e-07
7.73086e-07
7.7681e-07
7.803e-07
7.83557e-07
7.86583e-07
7.89396e-07
7.92036e-07
7.9457e-07
7.97041e-07
7.99439e-07
8.01732e-07
8.03914e-07
8.06012e-07
8.08037e-07
8.09975e-07
8.11823e-07
8.13601e-07
)
;
    }
    inandouthalf22
    {
        type            cyclic;
        value           nonuniform List<scalar> 
100
(
4.38402e-13
4.64122e-13
4.90154e-13
5.16478e-13
5.43071e-13
5.69912e-13
5.96976e-13
6.24241e-13
6.51686e-13
6.79295e-13
7.07055e-13
7.34965e-13
7.63034e-13
7.91282e-13
8.19746e-13
8.48482e-13
8.77563e-13
9.07083e-13
9.37156e-13
9.67911e-13
9.99493e-13
1.03205e-12
1.06572e-12
1.10064e-12
1.1369e-12
1.17454e-12
1.21356e-12
1.25389e-12
1.29537e-12
1.33781e-12
1.3809e-12
1.42432e-12
1.46776e-12
1.51103e-12
1.55402e-12
1.5966e-12
1.63848e-12
1.6792e-12
1.71819e-12
1.75427e-12
1.78494e-12
1.80707e-12
1.82015e-12
1.82659e-12
1.82943e-12
1.8311e-12
1.83322e-12
1.47416e-12
-3.88777e-12
-2.55308e-07
-2.77298e-07
-2.11945e-07
-1.98429e-07
-2.14769e-07
-2.51888e-07
-3.04137e-07
-3.64853e-07
-4.25432e-07
-4.77999e-07
-5.19362e-07
-5.5134e-07
-5.76937e-07
-5.98161e-07
-6.16226e-07
-6.31924e-07
-6.45795e-07
-6.58216e-07
-6.69463e-07
-6.79739e-07
-6.89196e-07
-6.97952e-07
-7.061e-07
-7.13712e-07
-7.20846e-07
-7.27549e-07
-7.33859e-07
-7.39809e-07
-7.45423e-07
-7.50723e-07
-7.55729e-07
-7.60456e-07
-7.64917e-07
-7.69124e-07
-7.73086e-07
-7.7681e-07
-7.803e-07
-7.83557e-07
-7.86583e-07
-7.89396e-07
-7.92036e-07
-7.9457e-07
-7.97041e-07
-7.99439e-07
-8.01732e-07
-8.03914e-07
-8.06012e-07
-8.08037e-07
-8.09975e-07
-8.11823e-07
-8.13601e-07
)
;
    }
    inandouthalf31
    {
        type            cyclic;
        value           nonuniform List<scalar> 
110
(
8.15332e-07
8.33595e-07
8.52192e-07
8.71143e-07
8.90538e-07
9.10384e-07
9.30566e-07
9.51092e-07
9.7214e-07
9.93697e-07
1.0156e-06
1.03795e-06
1.06086e-06
1.08422e-06
1.10805e-06
1.1325e-06
1.15741e-06
1.18268e-06
1.20864e-06
1.23527e-06
1.26221e-06
1.28964e-06
1.31772e-06
1.34627e-06
1.37538e-06
1.40494e-06
1.43475e-06
1.46521e-06
1.49609e-06
1.52702e-06
1.55862e-06
1.59045e-06
1.62269e-06
1.6571e-06
1.69393e-06
1.73226e-06
1.77114e-06
1.80962e-06
1.84789e-06
1.92158e-06
1.97345e-06
2.01351e-06
2.05438e-06
2.09608e-06
2.13862e-06
2.18203e-06
2.22632e-06
2.27151e-06
2.31761e-06
2.36465e-06
2.41265e-06
2.46162e-06
2.51158e-06
2.56256e-06
2.61458e-06
2.66765e-06
2.72179e-06
2.77704e-06
2.8334e-06
2.89091e-06
2.94959e-06
3.00946e-06
3.07054e-06
3.13287e-06
3.19646e-06
3.26134e-06
3.32753e-06
3.39507e-06
3.46398e-06
3.53429e-06
3.60603e-06
3.67922e-06
3.7539e-06
3.8301e-06
3.90784e-06
3.98715e-06
4.06808e-06
4.15065e-06
4.2349e-06
4.32086e-06
4.40856e-06
4.49804e-06
4.58934e-06
4.68249e-06
4.77753e-06
4.87451e-06
4.97345e-06
5.07439e-06
5.17739e-06
5.28248e-06
5.3897e-06
5.49909e-06
5.61071e-06
5.72459e-06
5.84079e-06
5.95934e-06
6.0803e-06
6.20371e-06
6.32963e-06
6.45811e-06
6.58919e-06
6.72293e-06
6.85939e-06
6.99862e-06
7.14067e-06
7.28561e-06
7.43348e-06
7.58436e-06
7.73831e-06
7.89537e-06
)
;
    }
    inandouthalf32
    {
        type            cyclic;
        value           nonuniform List<scalar> 
110
(
-8.15332e-07
-8.33595e-07
-8.52192e-07
-8.71143e-07
-8.90538e-07
-9.10384e-07
-9.30566e-07
-9.51092e-07
-9.7214e-07
-9.93697e-07
-1.0156e-06
-1.03795e-06
-1.06086e-06
-1.08422e-06
-1.10805e-06
-1.1325e-06
-1.15741e-06
-1.18268e-06
-1.20864e-06
-1.23527e-06
-1.26221e-06
-1.28964e-06
-1.31772e-06
-1.34627e-06
-1.37538e-06
-1.40494e-06
-1.43475e-06
-1.46521e-06
-1.49609e-06
-1.52702e-06
-1.55862e-06
-1.59045e-06
-1.62269e-06
-1.6571e-06
-1.69393e-06
-1.73226e-06
-1.77114e-06
-1.80962e-06
-1.84789e-06
-1.92158e-06
-1.97345e-06
-2.01351e-06
-2.05438e-06
-2.09608e-06
-2.13862e-06
-2.18203e-06
-2.22632e-06
-2.27151e-06
-2.31761e-06
-2.36465e-06
-2.41265e-06
-2.46162e-06
-2.51158e-06
-2.56256e-06
-2.61458e-06
-2.66765e-06
-2.72179e-06
-2.77704e-06
-2.8334e-06
-2.89091e-06
-2.94959e-06
-3.00946e-06
-3.07054e-06
-3.13287e-06
-3.19646e-06
-3.26134e-06
-3.32753e-06
-3.39507e-06
-3.46398e-06
-3.53429e-06
-3.60603e-06
-3.67922e-06
-3.7539e-06
-3.8301e-06
-3.90784e-06
-3.98715e-06
-4.06808e-06
-4.15065e-06
-4.2349e-06
-4.32086e-06
-4.40856e-06
-4.49804e-06
-4.58934e-06
-4.68249e-06
-4.77753e-06
-4.87451e-06
-4.97345e-06
-5.07439e-06
-5.17739e-06
-5.28248e-06
-5.3897e-06
-5.49909e-06
-5.61071e-06
-5.72459e-06
-5.84079e-06
-5.95934e-06
-6.0803e-06
-6.20371e-06
-6.32963e-06
-6.45811e-06
-6.58919e-06
-6.72293e-06
-6.85939e-06
-6.99862e-06
-7.14067e-06
-7.28561e-06
-7.43348e-06
-7.58436e-06
-7.73831e-06
-7.89537e-06
)
;
    }
    inandouthalf41
    {
        type            cyclic;
        value           nonuniform List<scalar> 
50
(
7.06716e-06
7.06716e-06
7.06716e-06
7.06716e-06
7.06716e-06
7.06716e-06
7.06716e-06
7.06716e-06
7.06716e-06
7.06716e-06
7.06716e-06
7.06716e-06
7.06716e-06
7.06716e-06
7.06716e-06
7.06716e-06
7.06716e-06
7.06716e-06
7.06716e-06
7.06716e-06
7.06716e-06
7.06716e-06
7.06716e-06
7.06716e-06
7.06716e-06
7.06716e-06
7.06716e-06
7.06716e-06
7.06716e-06
7.06716e-06
7.06716e-06
7.06716e-06
7.06716e-06
7.06716e-06
7.06716e-06
7.06716e-06
7.06716e-06
7.06716e-06
7.06716e-06
7.06716e-06
7.06716e-06
7.06716e-06
7.06716e-06
7.06716e-06
7.06716e-06
7.06716e-06
7.06716e-06
7.06717e-06
7.06737e-06
7.07199e-06
)
;
    }
    inandouthalf42
    {
        type            cyclic;
        value           nonuniform List<scalar> 
50
(
-7.06716e-06
-7.06716e-06
-7.06716e-06
-7.06716e-06
-7.06716e-06
-7.06716e-06
-7.06716e-06
-7.06716e-06
-7.06716e-06
-7.06716e-06
-7.06716e-06
-7.06716e-06
-7.06716e-06
-7.06716e-06
-7.06716e-06
-7.06716e-06
-7.06716e-06
-7.06716e-06
-7.06716e-06
-7.06716e-06
-7.06716e-06
-7.06716e-06
-7.06716e-06
-7.06716e-06
-7.06716e-06
-7.06716e-06
-7.06716e-06
-7.06716e-06
-7.06716e-06
-7.06716e-06
-7.06716e-06
-7.06716e-06
-7.06716e-06
-7.06716e-06
-7.06716e-06
-7.06716e-06
-7.06716e-06
-7.06716e-06
-7.06716e-06
-7.06716e-06
-7.06716e-06
-7.06716e-06
-7.06716e-06
-7.06716e-06
-7.06716e-06
-7.06716e-06
-7.06716e-06
-7.06717e-06
-7.06737e-06
-7.07199e-06
)
;
    }
    top
    {
        type            symmetryPlane;
        value           uniform 0;
    }
    walls
    {
        type            calculated;
        value           uniform 0;
    }
    frontAndBackPlanes
    {
        type            empty;
        value           nonuniform 0();
    }
}


// ************************************************************************* //
