/*--------------------------------*- C++ -*----------------------------------*\
| =========                 |                                                 |
| \\      /  F ield         | OpenFOAM: The Open Source CFD Toolbox           |
|  \\    /   O peration     | Version:  2.4.x                                 |
|   \\  /    A nd           | Web:      www.OpenFOAM.org                      |
|    \\/     M anipulation  |                                                 |
\*---------------------------------------------------------------------------*/
FoamFile
{
    version     2.0;
    format      ascii;
    class       volVectorField;
    location    "3.6";
    object      gradPf;
}
// * * * * * * * * * * * * * * * * * * * * * * * * * * * * * * * * * * * * * //

dimensions      [0 1 -2 0 0 0 0];

internalField   nonuniform List<vector> 
360
(
(0 27.1709 0)
(0 38.3146 0)
(0 9.89013 0)
(0 -4.37066 0)
(-3.34919e-14 -5.61532 0)
(-3.34939e-14 -4.90854 0)
(-1.67479e-14 -4.615 0)
(0 -4.1292 0)
(-3.34991e-14 -3.78199 0)
(0 -3.84271 0)
(-3.35022e-14 -3.98713 0)
(0 -4.06117 0)
(-3.35056e-14 -4.02088 0)
(0 -3.88939 0)
(0 -3.79364 0)
(0 -3.77085 0)
(0 -3.82545 0)
(-1.67569e-14 -3.97816 0)
(0 -4.30565 0)
(0 -4.75313 0)
(0 -5.33706 0)
(-3.35225e-14 -5.94381 0)
(0 -6.17052 0)
(0 -5.70542 0)
(0 -4.48595 0)
(-1.67663e-14 -2.92097 0)
(0 -1.64237 0)
(0 -0.881356 0)
(0 -0.503435 0)
(0 -0.361406 0)
(0 -0.366157 0)
(0 -0.349821 0)
(0 -0.397091 0)
(0 -0.447066 0)
(0 -0.445536 0)
(3.35359e-14 -0.496405 0)
(0 -0.546196 0)
(0 -0.646649 0)
(0 -0.642681 0)
(0 -0.69228 0)
(0 -0.790858 0)
(0 -0.783395 0)
(1.67691e-14 -0.878075 0)
(0 -0.969261 0)
(0 -1.00818 0)
(0 -1.09694 0)
(0 -1.13038 0)
(0 -1.20981 0)
(0 -1.38285 0)
(0 -1.45117 0)
(3.35431e-14 -1.51859 0)
(0 -1.63178 0)
(0 -1.73521 0)
(0 -1.82891 0)
(0 -1.95776 0)
(0 -2.07307 0)
(0 -2.17372 0)
(0 -2.30396 0)
(0 -2.36728 0)
(0 -2.49377 0)
(0 -2.58794 0)
(0 -2.64594 0)
(0 -2.71272 0)
(0 -2.74437 0)
(0 -2.78728 0)
(0 -2.84351 0)
(0 -2.92133 0)
(0 -2.99175 0)
(0 -3.0545 0)
(0 -3.15729 0)
(0 -3.2775 0)
(0 -3.32405 0)
(0 -3.38624 0)
(0 -3.46044 0)
(0 -3.50789 0)
(0 -3.53903 0)
(0 -3.55416 0)
(0 -3.59389 0)
(0 -3.63629 0)
(0 -3.67245 0)
(0 -3.71668 0)
(0 -3.77261 0)
(0 -3.82104 0)
(0 -3.8655 0)
(0 -3.90433 0)
(0 -3.93741 0)
(0 -3.96355 0)
(0 -3.98276 0)
(0 -4.0038 0)
(0 -4.0255 0)
(0 -4.04677 0)
(0 -4.07111 0)
(0 -4.09741 0)
(0 -4.12241 0)
(0 -4.1462 0)
(0 -4.16826 0)
(0 -4.18801 0)
(0 -4.20576 0)
(0 -4.2223 0)
(0 -4.23792 0)
(0 -4.25276 0)
(0 -4.2672 0)
(0 -4.28111 0)
(0 -4.29424 0)
(0 -4.30659 0)
(0 -4.31817 0)
(0 -4.32896 0)
(0 -4.33903 0)
(0 -4.34843 0)
(0 -4.3571 0)
(0 -4.36499 0)
(0 -4.37202 0)
(0 -4.37808 0)
(0 -4.38307 0)
(0 -4.38686 0)
(0 -4.38933 0)
(0 -4.39036 0)
(0 -4.38985 0)
(0 -4.38768 0)
(0 -4.3837 0)
(0 -4.37774 0)
(0 -4.36953 0)
(0 -4.35879 0)
(0 -4.34546 0)
(0 -4.32993 0)
(0 -4.31334 0)
(0 -4.29728 0)
(0 -4.28281 0)
(0 -4.26882 0)
(0 -4.25151 0)
(0 -4.22777 0)
(0 -4.20366 0)
(0 -4.19727 0)
(0 -4.2175 0)
(0 -4.23599 0)
(0 -4.21618 0)
(0 -4.18803 0)
(0 -4.25612 0)
(0 -4.47231 0)
(0 -4.61593 0)
(0 -4.32555 0)
(0 -4.20588 0)
(0 -4.73675 0)
(0 -5.26798 0)
(0 -6.41843 0)
(0 -10.4855 0)
(0 -6.76911 0)
(0 -4.90379 0)
(0 -6.7336 0)
(0 -3.08281 0)
(0 0 0)
(0 0 0)
(0 0 0)
(0 0 0)
(0 0 0)
(0 0 0)
(0 0 0)
(0 0 0)
(0 0 0)
(0 0 0)
(0 0 0)
(0 0 0)
(0 0 0)
(0 0 0)
(0 0 0)
(0 0 0)
(0 0 0)
(0 0 0)
(0 0 0)
(0 0 0)
(0 0 0)
(0 0 0)
(0 0 0)
(0 0 0)
(0 0 0)
(0 0 0)
(0 0 0)
(0 0 0)
(0 0 0)
(0 0 0)
(0 0 0)
(0 0 0)
(0 0 0)
(0 0 0)
(0 0 0)
(0 0 0)
(0 0 0)
(0 0 0)
(0 0 0)
(0 0 0)
(0 0 0)
(0 0 0)
(0 0 0)
(0 0 0)
(0 0 0)
(0 0 0)
(0 0 0)
(0 0 0)
(0 0 0)
(0 0 0)
(0 0 0)
(0 0 0)
(0 0 0)
(0 0 0)
(0 0 0)
(0 0 0)
(0 0 0)
(0 0 0)
(0 0 0)
(0 0 0)
(0 0 0)
(0 0 0)
(0 0 0)
(0 0 0)
(0 0 0)
(0 0 0)
(0 0 0)
(0 0 0)
(0 0 0)
(0 0 0)
(0 0 0)
(0 0 0)
(0 0 0)
(0 0 0)
(0 0 0)
(0 0 0)
(0 0 0)
(0 0 0)
(0 0 0)
(0 0 0)
(0 0 0)
(0 0 0)
(0 0 0)
(0 0 0)
(0 0 0)
(0 0 0)
(0 0 0)
(0 0 0)
(0 0 0)
(0 0 0)
(0 0 0)
(0 0 0)
(0 0 0)
(0 0 0)
(0 0 0)
(0 0 0)
(0 0 0)
(0 0 0)
(0 0 0)
(0 0 0)
(0 0 0)
(0 0 0)
(0 0 0)
(0 0 0)
(0 0 0)
(0 0 0)
(0 0 0)
(0 0 0)
(0 0 0)
(0 0 0)
(0 0 0)
(0 0 0)
(0 0 0)
(0 0 0)
(0 0 0)
(0 0 0)
(0 0 0)
(0 0 0)
(0 0 0)
(0 0 0)
(0 0 0)
(0 0 0)
(0 0 0)
(0 0 0)
(0 0 0)
(0 0 0)
(0 0 0)
(0 0 0)
(0 0 0)
(0 0 0)
(0 0 0)
(0 0 0)
(0 0 0)
(0 0 0)
(0 0 0)
(0 0 0)
(0 0 0)
(0 0 0)
(0 0 0)
(0 0 0)
(0 0 0)
(0 0 0)
(0 0 0)
(0 0 0)
(0 0 0)
(0 0 0)
(0 0 0)
(0 0 0)
(0 0 0)
(0 0 0)
(0 0 0)
(0 0 0)
(0 0 0)
(0 0 0)
(0 0 0)
(0 0 0)
(0 0 0)
(0 0 0)
(0 0 0)
(0 0 0)
(0 0 0)
(0 0 0)
(0 0 0)
(0 0 0)
(0 0 0)
(0 0 0)
(0 0 0)
(0 0 0)
(0 0 0)
(0 0 0)
(0 0 0)
(0 0 0)
(0 0 0)
(0 0 0)
(0 0 0)
(0 0 0)
(0 0 0)
(0 0 0)
(0 0 0)
(0 0 0)
(0 0 0)
(0 0 0)
(0 0 0)
(0 0 0)
(0 0 0)
(0 0 0)
(0 0 0)
(0 0 0)
(0 0 0)
(0 0 0)
(0 0 0)
(0 0 0)
(0 0 0)
(0 0 0)
(0 0 0)
(0 0 0)
(0 0 0)
(0 0 0)
(0 0 0)
(0 0 0)
(0 0 0)
(0 0 0)
(0 0 0)
(0 0 0)
(0 0 0)
(0 0 0)
(0 0 0)
(0 0 0)
(0 0 0)
(0 0 0)
)
;

boundaryField
{
    inandouthalf11
    {
        type            cyclic;
    }
    inandouthalf12
    {
        type            cyclic;
    }
    inandouthalf21
    {
        type            cyclic;
    }
    inandouthalf22
    {
        type            cyclic;
    }
    inandouthalf31
    {
        type            cyclic;
    }
    inandouthalf32
    {
        type            cyclic;
    }
    inandouthalf41
    {
        type            cyclic;
    }
    inandouthalf42
    {
        type            cyclic;
    }
    top
    {
        type            symmetryPlane;
    }
    walls
    {
        type            calculated;
        value           uniform (0 0 0);
    }
    frontAndBackPlanes
    {
        type            empty;
    }
}


// ************************************************************************* //
