/*--------------------------------*- C++ -*----------------------------------*\
| =========                 |                                                 |
| \\      /  F ield         | OpenFOAM: The Open Source CFD Toolbox           |
|  \\    /   O peration     | Version:  2.4.x                                 |
|   \\  /    A nd           | Web:      www.OpenFOAM.org                      |
|    \\/     M anipulation  |                                                 |
\*---------------------------------------------------------------------------*/
FoamFile
{
    version     2.0;
    format      ascii;
    class       volVectorField;
    location    "3.6";
    object      gradPs;
}
// * * * * * * * * * * * * * * * * * * * * * * * * * * * * * * * * * * * * * //

dimensions      [0 1 -2 0 0 0 0];

internalField   nonuniform List<vector> 
360
(
(0 2.47414e-18 0)
(0 2.77545e-18 0)
(0 -1.82684e-19 0)
(0 -6.73659e-19 0)
(-1.45248e-32 -1.83169e-19 0)
(-1.45257e-32 7.56448e-20 0)
(-2.9053e-32 1.37117e-19 0)
(0 8.74598e-20 0)
(-2.90558e-32 -6.71559e-21 0)
(0 -8.18721e-20 0)
(-2.90586e-32 -1.16825e-19 0)
(0 -1.30707e-19 0)
(-2.90615e-32 -1.37055e-19 0)
(0 -1.26866e-19 0)
(0 -7.66606e-20 0)
(0 4.13655e-20 0)
(0 2.56206e-19 0)
(-1.45343e-32 6.08813e-19 0)
(0 1.1474e-18 0)
(0 1.8662e-18 0)
(0 2.47999e-18 0)
(-2.90762e-32 2.10721e-18 0)
(0 -2.35524e-19 0)
(0 -3.59716e-18 0)
(0 -4.98631e-18 0)
(-1.45425e-32 -3.49753e-18 0)
(0 -1.41464e-18 0)
(0 -3.578e-19 0)
(0 -6.96838e-20 0)
(0 -1.8632e-20 0)
(0 -1.26336e-20 0)
(0 -1.12913e-20 0)
(0 -1.26604e-20 0)
(0 -1.42205e-20 0)
(0 -1.41696e-20 0)
(1.45439e-32 -1.57943e-20 0)
(0 -1.73998e-20 0)
(0 -2.06419e-20 0)
(0 -2.05574e-20 0)
(0 -2.22035e-20 0)
(0 -2.54253e-20 0)
(0 -2.52449e-20 0)
(1.45449e-32 -2.83629e-20 0)
(0 -3.13777e-20 0)
(0 -3.27209e-20 0)
(0 -3.56958e-20 0)
(0 -3.68856e-20 0)
(0 -3.96008e-20 0)
(0 -4.54175e-20 0)
(0 -4.78319e-20 0)
(1.4547e-32 -5.02577e-20 0)
(0 -5.42272e-20 0)
(0 -5.79282e-20 0)
(0 -6.13452e-20 0)
(0 -6.60121e-20 0)
(0 -7.0274e-20 0)
(0 -7.41234e-20 0)
(0 -7.90437e-20 0)
(0 -8.17412e-20 0)
(0 -8.67036e-20 0)
(0 -9.06092e-20 0)
(0 -9.33385e-20 0)
(0 -9.64214e-20 0)
(0 -9.83187e-20 0)
(0 -1.00656e-19 0)
(0 -1.03535e-19 0)
(0 -1.07268e-19 0)
(0 -1.10812e-19 0)
(0 -1.14151e-19 0)
(0 -1.19097e-19 0)
(0 -1.24828e-19 0)
(0 -1.27868e-19 0)
(0 -1.31622e-19 0)
(0 -1.35935e-19 0)
(0 -1.39324e-19 0)
(0 -1.4214e-19 0)
(0 -1.44396e-19 0)
(0 -1.47723e-19 0)
(0 -1.51258e-19 0)
(0 -1.54631e-19 0)
(0 -1.58453e-19 0)
(0 -1.62896e-19 0)
(0 -1.67152e-19 0)
(0 -1.71374e-19 0)
(0 -1.7548e-19 0)
(0 -1.79466e-19 0)
(0 -1.83262e-19 0)
(0 -1.86863e-19 0)
(0 -1.90673e-19 0)
(0 -1.94644e-19 0)
(0 -1.9873e-19 0)
(0 -2.03115e-19 0)
(0 -2.07755e-19 0)
(0 -2.125e-19 0)
(0 -2.17359e-19 0)
(0 -2.2231e-19 0)
(0 -2.27328e-19 0)
(0 -2.32432e-19 0)
(0 -2.39437e-19 0)
(0 -1.75054e-16 0)
(0 -1.74953e-16 0)
(0 0 0)
(0 0 0)
(0 0 0)
(0 0 0)
(0 0 0)
(0 0 0)
(0 0 0)
(0 0 0)
(0 0 0)
(0 0 0)
(0 0 0)
(0 0 0)
(0 0 0)
(0 1.72925e-16 0)
(0 1.7277e-16 0)
(0 -3.73774e-19 0)
(0 -3.84691e-19 0)
(0 -3.96098e-19 0)
(0 -4.08022e-19 0)
(0 -4.20487e-19 0)
(0 -4.33513e-19 0)
(0 -4.4712e-19 0)
(0 -4.61348e-19 0)
(0 -4.76296e-19 0)
(0 -4.92161e-19 0)
(0 -5.09225e-19 0)
(0 -5.26427e-19 0)
(0 2.52439e-16 0)
(0 1.06659e-15 0)
(0 2.99284e-15 0)
(0 7.51524e-15 0)
(0 1.72309e-14 0)
(0 3.57198e-14 0)
(0 6.56127e-14 0)
(0 1.02497e-13 0)
(0 1.24549e-13 0)
(0 9.0211e-14 0)
(0 1.85871e-14 0)
(0 9.92897e-13 0)
(0 2.01365e-11 0)
(0 3.97439e-10 0)
(0 8.99732e-09 0)
(0 2.38174e-07 0)
(0 8.49515e-06 0)
(0 0.00107335 0)
(0 0.0861948 0)
(0 1.69083 0)
(0 2.07286 0)
(0 -0.0704977 0)
(0 -3.27657 0)
(0 -4.3596 0)
(0 -4.49155 0)
(0 -4.39653 0)
(0 -4.20831 0)
(0 -3.9619 0)
(0 -3.67369 0)
(0 -3.3504 0)
(0 -2.95288 0)
(0 -2.42383 0)
(0 -1.85194 0)
(0 -1.40609 0)
(0 -1.10892 0)
(0 -0.908142 0)
(0 -0.766845 0)
(0 -0.664439 0)
(0 -0.588445 0)
(0 -0.531051 0)
(0 -0.487182 0)
(0 -0.453396 0)
(0 -0.427281 0)
(0 -0.407102 0)
(0 -0.391597 0)
(0 -0.37987 0)
(0 -0.371323 0)
(0 -0.365629 0)
(0 -0.362721 0)
(0 -0.362817 0)
(0 -0.36644 0)
(0 -0.374468 0)
(0 -0.388174 0)
(0 -0.409238 0)
(0 -0.439642 0)
(0 -0.481281 0)
(0 -0.534981 0)
(0 -0.598487 0)
(0 -0.663191 0)
(0 -0.710855 0)
(0 -0.715555 0)
(0 -0.659904 0)
(0 -0.561584 0)
(0 -0.471291 0)
(0 -0.422022 0)
(0 -0.397486 0)
(0 -0.366718 0)
(0 -0.327551 0)
(0 -0.29616 0)
(0 -0.274052 0)
(0 -0.251408 0)
(0 -0.224375 0)
(0 -0.198204 0)
(0 -0.18214 0)
(-7.53637e-17 -0.173038 0)
(0 -0.154342 0)
(0 -0.126997 0)
(4.00273e-17 -0.113294 0)
(0 -0.113248 0)
(-4.12508e-17 -0.10031 0)
(0 -0.0777123 0)
(2.0834e-17 -0.0708827 0)
(0 -0.0687353 0)
(0 -0.056006 0)
(0 -0.0466884 0)
(1.0438e-17 -0.0438045 0)
(0 -0.0361428 0)
(0 -0.0289894 0)
(0 -0.0279254 0)
(0 -0.0242014 0)
(0 -0.0174925 0)
(-4.95151e-18 -0.0156962 0)
(0 -0.0147767 0)
(-2.4135e-18 -0.0112548 0)
(0 -0.00934621 0)
(0 -0.00796229 0)
(0 -0.0061425 0)
(0 -0.00541937 0)
(0 -0.00438807 0)
(0 -0.00314935 0)
(5.37374e-19 -0.00281693 0)
(5.27826e-19 -0.00225097 0)
(0 -0.00160361 0)
(0 -0.00141451 0)
(0 -0.000992466 0)
(0 -0.000536047 0)
(0 -0.000373918 0)
(0 -0.000356039 0)
(0 -0.000417833 0)
(0 -0.000453005 0)
(0 -0.000223944 0)
(0 0 0)
(0 0 0)
(0 0 0)
(0 0 0)
(0 0 0)
(0 0 0)
(0 0 0)
(0 0 0)
(0 0 0)
(0 0 0)
(0 0 0)
(0 0 0)
(0 0 0)
(0 0 0)
(0 0 0)
(0 0 0)
(0 0 0)
(0 0 0)
(0 0 0)
(0 0 0)
(0 0 0)
(0 0 0)
(0 0 0)
(0 0 0)
(0 0 0)
(0 0 0)
(0 0 0)
(0 0 0)
(0 0 0)
(0 0 0)
(0 0 0)
(0 0 0)
(0 0 0)
(0 0 0)
(0 0 0)
(0 0 0)
(0 0 0)
(0 0 0)
(0 0 0)
(0 0 0)
(0 0 0)
(0 0 0)
(0 0 0)
(0 0 0)
(0 0 0)
(0 0 0)
(0 0 0)
(0 0 0)
(0 0 0)
(0 0 0)
(0 0 0)
(0 0 0)
(0 0 0)
(0 0 0)
(0 0 0)
(0 0 0)
(0 0 0)
(0 0 0)
(0 0 0)
(0 0 0)
(0 0 0)
(0 0 0)
(0 0 0)
(0 0 0)
(0 0 0)
(0 0 0)
(0 0 0)
(0 0 0)
(0 0 0)
(0 0 0)
(0 0 0)
(0 0 0)
(0 0 0)
(0 0 0)
(0 0 0)
(0 0 0)
(0 0 0)
(0 0 0)
(0 0 0)
(0 0 0)
(0 0 0)
(0 0 0)
(0 0 0)
(0 0 0)
(0 0 0)
(0 0 0)
(0 0 0)
(0 0 0)
(0 0 0)
(0 0 0)
(0 0 0)
(0 0 0)
(0 0 0)
(0 0 0)
(0 0 0)
(0 0 0)
(0 0 0)
(0 0 0)
(0 0 0)
(0 0 0)
(0 0 0)
(0 0 0)
(0 0 0)
(0 0 0)
(0 0 0)
(0 0 0)
(0 0 0)
(0 0 0)
(0 0 0)
(0 0 0)
(0 0 0)
(0 0 0)
(0 0 0)
(0 0 0)
(0 0 0)
(0 0 0)
(0 0 0)
(0 0 0)
(0 0 0)
(0 0 0)
(0 0 0)
)
;

boundaryField
{
    inandouthalf11
    {
        type            cyclic;
    }
    inandouthalf12
    {
        type            cyclic;
    }
    inandouthalf21
    {
        type            cyclic;
    }
    inandouthalf22
    {
        type            cyclic;
    }
    inandouthalf31
    {
        type            cyclic;
    }
    inandouthalf32
    {
        type            cyclic;
    }
    inandouthalf41
    {
        type            cyclic;
    }
    inandouthalf42
    {
        type            cyclic;
    }
    top
    {
        type            symmetryPlane;
    }
    walls
    {
        type            calculated;
        value           uniform (0 0 0);
    }
    frontAndBackPlanes
    {
        type            empty;
    }
}


// ************************************************************************* //
