/*--------------------------------*- C++ -*----------------------------------*\
| =========                 |                                                 |
| \\      /  F ield         | OpenFOAM: The Open Source CFD Toolbox           |
|  \\    /   O peration     | Version:  2.4.x                                 |
|   \\  /    A nd           | Web:      www.OpenFOAM.org                      |
|    \\/     M anipulation  |                                                 |
\*---------------------------------------------------------------------------*/
FoamFile
{
    version     2.0;
    format      ascii;
    class       volScalarField;
    location    "3.6";
    object      mua;
}
// * * * * * * * * * * * * * * * * * * * * * * * * * * * * * * * * * * * * * //

dimensions      [1 -1 -1 0 0 0 0];

internalField   nonuniform List<scalar> 
360
(
399879
206209
214385
239152
244020
236658
225782
216557
211055
208292
206635
205289
204113
203121
201677
198379
191513
179762
162986
142856
122778
106732
98821.7
103964
132233
212052
431438
1.06638e+06
2.90043e+06
7.55246e+06
1.64795e+07
2.78652e+07
3.63255e+07
3.83845e+07
3.55638e+07
3.10705e+07
2.69781e+07
2.39756e+07
2.20822e+07
2.10949e+07
2.07308e+07
2.07726e+07
2.10157e+07
2.12716e+07
2.14422e+07
2.14625e+07
2.13147e+07
2.10104e+07
2.05477e+07
1.99729e+07
1.93567e+07
1.87177e+07
1.80739e+07
1.74302e+07
1.67911e+07
1.61494e+07
1.55211e+07
1.49053e+07
1.43177e+07
1.37656e+07
1.32484e+07
1.27865e+07
1.23813e+07
1.20358e+07
1.17376e+07
1.14659e+07
1.11936e+07
1.09008e+07
1.05744e+07
1.02055e+07
9.7909e+06
9.35017e+06
8.90746e+06
8.47446e+06
8.06814e+06
7.69948e+06
7.37552e+06
7.09138e+06
6.83801e+06
6.60648e+06
6.38815e+06
6.17421e+06
5.96023e+06
5.74588e+06
5.5332e+06
5.32597e+06
5.12802e+06
4.94274e+06
4.77141e+06
4.61349e+06
4.46747e+06
4.3311e+06
4.20189e+06
4.07796e+06
3.95817e+06
3.84198e+06
3.72937e+06
3.62055e+06
3.51579e+06
3.41522e+06
3.31891e+06
3.22679e+06
3.13871e+06
3.05452e+06
2.97408e+06
2.89717e+06
2.82355e+06
2.75288e+06
2.68474e+06
2.61859e+06
2.5538e+06
2.48963e+06
2.42528e+06
2.35989e+06
2.29261e+06
2.22262e+06
2.14926e+06
2.07209e+06
1.99101e+06
1.90636e+06
1.81897e+06
1.73017e+06
1.64171e+06
1.5556e+06
1.47386e+06
1.39827e+06
1.33026e+06
1.27085e+06
1.22088e+06
1.18102e+06
1.15159e+06
1.13173e+06
1.11848e+06
1.10733e+06
1.09534e+06
1.08401e+06
1.07697e+06
1.07575e+06
1.0856e+06
1.1388e+06
1.32769e+06
1.84084e+06
3.00755e+06
5.47518e+06
9.1853e+06
7.11281e+06
120293
13242.4
0.0457895
0.00998296
0.00650681
0.00555717
0.00501443
0.00466662
0.00441963
0.00421988
0.00404838
0.00390247
0.00378255
0.00368598
0.00360864
0.00354703
0.00349847
0.0034608
0.00343217
0.00341099
0.00339589
0.00338568
0.00337932
0.00337596
0.00337483
0.0033753
0.00337684
0.003379
0.0033814
0.00338375
0.0033858
0.00338734
0.00338822
0.00338833
0.00338759
0.00338593
0.00338333
0.00337979
0.00337531
0.00336995
0.00336374
0.00335675
0.00334904
0.00334066
0.00333168
0.00332213
0.00331202
0.0033014
0.00329028
0.00327868
0.00326661
0.00325408
0.00324112
0.00322773
0.00321391
0.00319954
0.00318446
0.00316863
0.00315204
0.00313465
0.00311643
0.00309733
0.00307733
0.00305637
0.0030344
0.00301137
0.00298722
0.00296186
0.00293523
0.00290724
0.00287779
0.00284677
0.00281405
0.00277949
0.00274294
0.0027042
0.00266306
0.00261926
0.00257252
0.00252248
0.00246873
0.00241076
0.00234794
0.0022795
0.00220443
0.00212137
0.00202846
0.00192301
0.00180098
0.00165568
0.00147428
0.00122506
0
0
0
0
0
0
0
0
0
0
0
0
0
0
0
0
0
0
0
0
0
0
0
0
0
0
0
0
0
0
0
0
0
0
0
0
0
0
0
0
0
0
0
0
0
0
0
0
0
0
0
0
0
0
0
0
0
0
0
0
0
0
0
0
0
0
0
0
0
0
0
0
0
0
0
0
0
0
0
0
0
0
0
0
0
0
0
0
0
0
0
0
0
0
0
0
0
0
0
0
0
0
0
0
0
0
0
0
0
0
0
0
0
0
0
0
0
0
0
0
0
0
)
;

boundaryField
{
    inandouthalf11
    {
        type            cyclic;
    }
    inandouthalf12
    {
        type            cyclic;
    }
    inandouthalf21
    {
        type            cyclic;
    }
    inandouthalf22
    {
        type            cyclic;
    }
    inandouthalf31
    {
        type            cyclic;
    }
    inandouthalf32
    {
        type            cyclic;
    }
    inandouthalf41
    {
        type            cyclic;
    }
    inandouthalf42
    {
        type            cyclic;
    }
    top
    {
        type            symmetryPlane;
    }
    walls
    {
        type            calculated;
        value           uniform 1e+30;
    }
    frontAndBackPlanes
    {
        type            empty;
    }
}


// ************************************************************************* //
