/*--------------------------------*- C++ -*----------------------------------*\
| =========                 |                                                 |
| \\      /  F ield         | OpenFOAM: The Open Source CFD Toolbox           |
|  \\    /   O peration     | Version:  2.4.x                                 |
|   \\  /    A nd           | Web:      www.OpenFOAM.org                      |
|    \\/     M anipulation  |                                                 |
\*---------------------------------------------------------------------------*/
FoamFile
{
    version     2.0;
    format      ascii;
    class       volScalarField;
    location    "3.6";
    object      p;
}
// * * * * * * * * * * * * * * * * * * * * * * * * * * * * * * * * * * * * * //

dimensions      [1 -1 -2 0 0 0 0];

internalField   nonuniform List<scalar> 
360
(
4895.3
4890.4
4885.49
4880.58
4875.67
4870.75
4865.83
4860.92
4855.99
4851.07
4846.15
4841.22
4836.29
4831.36
4826.42
4821.48
4816.55
4811.6
4806.66
4801.71
4796.77
4791.81
4786.86
4781.9
4776.93
4771.96
4766.99
4762.02
4757.05
4752.08
4747.11
4742.14
4737.17
4732.2
4727.23
4722.26
4717.29
4712.32
4707.35
4702.37
4697.4
4692.43
4687.46
4682.49
4677.52
4672.55
4667.58
4662.61
4657.64
4652.67
4647.69
4642.72
4637.75
4632.78
4627.81
4622.84
4617.87
4612.9
4607.93
4602.95
4597.98
4593.01
4588.04
4583.07
4578.1
4573.13
4568.16
4563.19
4558.22
4553.24
4548.27
4543.3
4538.33
4533.36
4528.39
4523.42
4518.45
4513.48
4508.5
4503.53
4498.56
4493.59
4488.62
4483.65
4478.68
4473.71
4468.73
4463.76
4458.79
4453.82
4448.85
4443.88
4438.91
4433.94
4428.96
4423.99
4419.02
4414.05
4409.08
4404.11
4399.14
4394.17
4389.19
4384.22
4379.25
4374.28
4369.31
4364.34
4359.37
4354.4
4349.42
4344.45
4339.48
4334.51
4329.54
4324.57
4319.6
4314.63
4309.66
4304.69
4299.71
4294.74
4289.77
4284.8
4279.83
4274.86
4269.89
4264.92
4259.95
4254.98
4250.01
4245.04
4240.07
4235.1
4230.13
4225.16
4220.19
4215.22
4210.25
4205.28
4200.31
4195.34
4190.37
4185.4
4180.43
4175.47
4170.5
4165.53
4160.54
4153.99
4145.97
4139.99
4134.68
4129.7
4124.9
4120.21
4115.56
4110.9
4106.19
4101.42
4096.6
4091.73
4086.84
4081.92
4076.99
4072.06
4067.11
4062.17
4057.22
4052.27
4047.32
4042.37
4037.42
4032.47
4027.52
4022.57
4017.62
4012.68
4007.74
4002.8
3997.86
3992.92
3987.99
3983.06
3978.13
3973.2
3968.28
3963.35
3958.44
3953.52
3948.61
3943.7
3938.79
3933.89
3928.99
3924.09
3919.2
3914.31
3909.42
3904.53
3899.65
3894.72
3889.69
3884.57
3879.34
3874.01
3868.58
3863.04
3857.39
3851.62
3845.75
3839.76
3833.65
3827.42
3821.07
3814.59
3807.99
3801.25
3794.38
3787.37
3780.23
3772.94
3765.5
3757.91
3750.16
3742.26
3734.19
3725.94
3717.51
3708.85
3699.98
3690.93
3681.69
3672.27
3662.65
3652.84
3642.83
3632.61
3622.19
3611.56
3600.71
3589.64
3578.35
3566.83
3555.07
3543.08
3530.84
3518.35
3505.61
3492.61
3479.35
3465.82
3452.01
3437.92
3423.55
3408.88
3393.92
3378.66
3363.08
3347.19
3330.97
3314.43
3297.55
3280.33
3262.76
3244.83
3226.54
3207.87
3188.83
3169.4
3149.58
3129.35
3108.72
3087.66
3066.18
3044.26
3021.9
2999.08
2975.8
2952.05
2927.81
2903.09
2877.86
2852.12
2825.86
2799.06
2771.72
2743.82
2715.36
2686.32
2656.7
2626.47
2595.62
2564.15
2532.05
2499.29
2465.86
2431.76
2396.96
2361.46
2325.24
2288.28
2250.57
2212.1
2172.85
2132.8
2091.93
2050.24
2007.7
1964.3
1922.76
1883.52
1844.28
1805.04
1765.8
1726.56
1687.32
1648.08
1608.84
1569.6
1530.36
1491.12
1451.88
1412.64
1373.4
1334.16
1294.92
1255.68
1216.44
1177.2
1137.96
1098.72
1059.48
1020.24
981
941.76
902.52
863.28
824.04
784.8
745.56
706.32
667.08
627.84
588.6
549.36
510.12
470.88
431.64
392.4
353.16
313.92
274.68
235.44
196.2
156.96
117.72
78.48
39.24
-9.84792e-08
)
;

boundaryField
{
    inandouthalf11
    {
        type            cyclic;
    }
    inandouthalf12
    {
        type            cyclic;
    }
    inandouthalf21
    {
        type            cyclic;
    }
    inandouthalf22
    {
        type            cyclic;
    }
    inandouthalf31
    {
        type            cyclic;
    }
    inandouthalf32
    {
        type            cyclic;
    }
    inandouthalf41
    {
        type            cyclic;
    }
    inandouthalf42
    {
        type            cyclic;
    }
    top
    {
        type            symmetryPlane;
    }
    walls
    {
        type            slip;
    }
    frontAndBackPlanes
    {
        type            empty;
    }
}


// ************************************************************************* //
