/*--------------------------------*- C++ -*----------------------------------*\
| =========                 |                                                 |
| \\      /  F ield         | OpenFOAM: The Open Source CFD Toolbox           |
|  \\    /   O peration     | Version:  2.4.x                                 |
|   \\  /    A nd           | Web:      www.OpenFOAM.org                      |
|    \\/     M anipulation  |                                                 |
\*---------------------------------------------------------------------------*/
FoamFile
{
    version     2.0;
    format      ascii;
    class       volScalarField;
    location    "3.6";
    object      pa;
}
// * * * * * * * * * * * * * * * * * * * * * * * * * * * * * * * * * * * * * //

dimensions      [1 -1 -2 0 0 0 0];

internalField   nonuniform List<scalar> 
360
(
2.89308e-16
2.93309e-16
2.938e-16
2.93014e-16
2.92709e-16
2.92717e-16
2.92832e-16
2.92939e-16
2.92973e-16
2.92928e-16
2.92841e-16
2.92739e-16
2.92629e-16
2.92517e-16
2.92424e-16
2.92393e-16
2.92491e-16
2.92808e-16
2.93476e-16
2.94664e-16
2.96494e-16
2.98675e-16
2.99902e-16
2.98294e-16
2.94086e-16
2.90232e-16
2.88431e-16
2.87945e-16
2.87853e-16
2.87833e-16
2.87823e-16
2.87812e-16
2.87805e-16
2.87792e-16
2.87782e-16
2.87769e-16
2.87756e-16
2.87741e-16
2.87723e-16
2.87708e-16
2.87687e-16
2.87666e-16
2.87646e-16
2.87621e-16
2.87595e-16
2.87568e-16
2.87538e-16
2.87508e-16
2.87474e-16
2.87435e-16
2.87396e-16
2.87353e-16
2.87309e-16
2.8726e-16
2.8721e-16
2.87153e-16
2.87096e-16
2.87033e-16
2.86968e-16
2.86901e-16
2.86828e-16
2.86755e-16
2.86677e-16
2.86599e-16
2.86519e-16
2.86437e-16
2.86351e-16
2.86263e-16
2.86172e-16
2.86079e-16
2.8598e-16
2.85877e-16
2.85774e-16
2.85665e-16
2.85554e-16
2.8544e-16
2.85325e-16
2.85207e-16
2.85086e-16
2.84963e-16
2.84837e-16
2.84707e-16
2.84574e-16
2.84437e-16
2.84297e-16
2.84154e-16
2.84008e-16
2.83859e-16
2.83706e-16
2.83551e-16
2.83393e-16
2.83231e-16
2.83065e-16
2.82896e-16
2.82723e-16
2.82545e-16
2.82364e-16
2.82179e-16
2.8199e-16
2.81793e-16
0
0
0
0
0
0
0
0
0
0
0
0
0
0
0
2.77975e-16
2.77679e-16
2.77374e-16
2.77061e-16
2.76738e-16
2.76405e-16
2.76063e-16
2.75709e-16
2.75345e-16
2.74969e-16
2.74581e-16
2.7418e-16
2.73764e-16
2.73336e-16
6.78345e-16
1.98228e-15
5.47225e-15
1.40165e-14
3.30558e-14
7.11786e-14
1.38019e-13
2.35086e-13
3.37114e-13
3.79232e-13
3.668e-13
1.96421e-12
3.24929e-11
6.35705e-10
1.43701e-08
3.79862e-07
1.35269e-05
0.0017048
0.13622
2.67371
3.382
2.6115
1.75638
1.113
0.673134
0.391611
0.221128
0.122691
0.0678774
0.0382442
0.0227879
0.0148662
0.0105767
0.00801686
0.00635674
0.00520992
0.00437716
0.00374771
0.00325605
0.00286137
0.00253714
0.00226551
0.00203411
0.00183415
0.00165923
0.0015046
0.00136658
0.00124231
0.00112943
0.00102595
0.00093013
0.000840383
0.000755256
0.000673436
0.000593838
0.000515799
0.000439399
0.000365838
0.000297641
0.000238249
0.000190645
0.000155469
0.000130205
0.000110774
9.43368e-05
8.03135e-05
6.88606e-05
5.94798e-05
5.14502e-05
4.45045e-05
3.86184e-05
3.37409e-05
2.95738e-05
2.57095e-05
2.2158e-05
1.92763e-05
1.697e-05
1.47039e-05
1.24642e-05
1.07809e-05
9.44739e-06
8.03172e-06
6.79775e-06
5.88026e-06
4.99665e-06
4.18598e-06
3.59515e-06
3.05144e-06
2.49214e-06
2.08986e-06
1.78922e-06
1.44929e-06
1.18001e-06
9.79109e-07
7.83069e-07
6.36281e-07
5.14122e-07
3.94781e-07
3.15677e-07
2.49628e-07
1.83348e-07
1.42227e-07
1.05241e-07
7.20231e-08
5.51856e-08
4.44245e-08
3.55241e-08
2.52945e-08
1.26163e-08
0
0
0
0
0
0
0
0
0
0
0
0
0
0
0
0
0
0
0
0
0
0
0
0
0
0
0
0
0
0
0
0
0
0
0
0
0
0
0
0
0
0
0
0
0
0
0
0
0
0
0
0
0
0
0
0
0
0
0
0
0
0
0
0
0
0
0
0
0
0
0
0
0
0
0
0
0
0
0
0
0
0
0
0
0
0
0
0
0
0
0
0
0
0
0
0
0
0
0
0
0
0
0
0
0
0
0
0
0
0
0
0
0
0
0
0
0
0
0
0
0
0
)
;

boundaryField
{
    inandouthalf11
    {
        type            cyclic;
    }
    inandouthalf12
    {
        type            cyclic;
    }
    inandouthalf21
    {
        type            cyclic;
    }
    inandouthalf22
    {
        type            cyclic;
    }
    inandouthalf31
    {
        type            cyclic;
    }
    inandouthalf32
    {
        type            cyclic;
    }
    inandouthalf41
    {
        type            cyclic;
    }
    inandouthalf42
    {
        type            cyclic;
    }
    top
    {
        type            symmetryPlane;
    }
    walls
    {
        type            calculated;
        value           uniform 2.89308e-16;
    }
    frontAndBackPlanes
    {
        type            empty;
    }
}


// ************************************************************************* //
