/*--------------------------------*- C++ -*----------------------------------*\
| =========                 |                                                 |
| \\      /  F ield         | OpenFOAM: The Open Source CFD Toolbox           |
|  \\    /   O peration     | Version:  2.4.x                                 |
|   \\  /    A nd           | Web:      www.OpenFOAM.org                      |
|    \\/     M anipulation  |                                                 |
\*---------------------------------------------------------------------------*/
FoamFile
{
    version     2.0;
    format      ascii;
    class       surfaceScalarField;
    location    "3.6";
    object      phia_0;
}
// * * * * * * * * * * * * * * * * * * * * * * * * * * * * * * * * * * * * * //

dimensions      [0 3 -1 0 0 0 0];

internalField   nonuniform List<scalar> 
359
(
-7.29051e-13
-2.23447e-12
-3.7505e-12
-5.12969e-12
-6.45577e-12
-7.80453e-12
-9.20585e-12
-1.06549e-11
-1.21294e-11
-1.36119e-11
-1.50946e-11
-1.65744e-11
-1.80505e-11
-1.95213e-11
-2.09906e-11
-2.24722e-11
-2.39945e-11
-2.56028e-11
-2.73605e-11
-2.93469e-11
-3.16319e-11
-3.4228e-11
-3.69938e-11
-3.9588e-11
-4.16035e-11
-4.28485e-11
-4.34565e-11
-4.37017e-11
-4.37916e-11
-4.38261e-11
-4.38419e-11
-4.38511e-11
-4.38582e-11
-4.38649e-11
-4.38721e-11
-4.38803e-11
-4.38897e-11
-4.39002e-11
-4.39115e-11
-4.39234e-11
-4.39353e-11
-4.39472e-11
-4.39589e-11
-4.39704e-11
-4.39817e-11
-4.39929e-11
-4.40042e-11
-4.40155e-11
-4.4027e-11
-4.40388e-11
-4.40508e-11
-4.40632e-11
-4.40759e-11
-4.4089e-11
-4.41024e-11
-4.41163e-11
-4.41306e-11
-4.41453e-11
-4.41605e-11
-4.41762e-11
-4.41923e-11
-4.42089e-11
-4.42258e-11
-4.4243e-11
-4.42605e-11
-4.42782e-11
-4.42961e-11
-4.43143e-11
-4.43328e-11
-4.43518e-11
-4.43714e-11
-4.43916e-11
-4.44126e-11
-4.44344e-11
-4.4457e-11
-4.44803e-11
-4.45044e-11
-4.45291e-11
-4.45543e-11
-4.45801e-11
-4.46064e-11
-4.46332e-11
-4.46605e-11
-4.46885e-11
-4.4717e-11
-4.47463e-11
-4.47761e-11
-4.48066e-11
-4.48377e-11
-4.48693e-11
-4.49014e-11
-4.49339e-11
-4.49668e-11
-4.50001e-11
-4.50338e-11
-4.50678e-11
-4.51023e-11
-4.5137e-11
-4.51721e-11
-4.52075e-11
-4.52431e-11
-4.5279e-11
-4.53151e-11
-4.53514e-11
-4.53878e-11
-4.54244e-11
-4.54609e-11
-4.54975e-11
-4.55341e-11
-4.55707e-11
-4.56072e-11
-4.56436e-11
-4.568e-11
-4.57162e-11
-4.57525e-11
-4.57888e-11
-4.58251e-11
-4.58615e-11
-4.58982e-11
-4.59352e-11
-4.59725e-11
-4.60103e-11
-4.60486e-11
-4.60873e-11
-4.61265e-11
-4.61659e-11
-4.62054e-11
-4.62448e-11
-4.62836e-11
-4.63216e-11
-4.63582e-11
-4.63932e-11
-4.64262e-11
-4.64571e-11
-4.64859e-11
-4.65126e-11
-4.6537e-11
-4.65588e-11
-4.6578e-11
-4.65941e-11
-4.66062e-11
-4.66132e-11
-4.66165e-11
-4.66179e-11
-4.66183e-11
-4.66169e-11
-4.66844e-11
-4.65474e-11
1.17285e-10
4.59282e-09
8.55519e-09
1.11429e-08
1.32352e-08
1.49887e-08
1.6289e-08
1.68492e-08
1.62204e-08
1.38291e-08
9.38532e-09
3.63418e-09
-2.21317e-09
-7.57395e-09
-1.23012e-08
-1.63859e-08
-1.98737e-08
-2.2827e-08
-2.53076e-08
-2.7371e-08
-2.90657e-08
-3.04339e-08
-3.1512e-08
-3.23315e-08
-3.29195e-08
-3.32993e-08
-3.34914e-08
-3.35142e-08
-3.33843e-08
-3.31179e-08
-3.27318e-08
-3.22438e-08
-3.16745e-08
-3.10475e-08
-3.0391e-08
-2.97371e-08
-2.91208e-08
-2.85773e-08
-2.81363e-08
-2.7815e-08
-2.76116e-08
-2.75035e-08
-2.74544e-08
-2.74315e-08
-2.74192e-08
-2.74162e-08
-2.74227e-08
-2.74342e-08
-2.74474e-08
-2.74632e-08
-2.74827e-08
-2.75056e-08
-2.75296e-08
-2.75533e-08
-2.75805e-08
-2.76167e-08
-2.76575e-08
-2.7695e-08
-2.77366e-08
-2.77969e-08
-2.78634e-08
-2.79271e-08
-2.80075e-08
-2.8107e-08
-2.82099e-08
-2.83288e-08
-2.8474e-08
-2.86276e-08
-2.87955e-08
-2.90043e-08
-2.92368e-08
-2.94771e-08
-2.97624e-08
-3.0086e-08
-3.04354e-08
-3.08335e-08
-3.12661e-08
-3.17344e-08
-3.22586e-08
-3.28129e-08
-3.33968e-08
-3.40186e-08
-3.46647e-08
-3.53444e-08
-3.60682e-08
-3.67879e-08
-3.74424e-08
-3.79973e-08
-3.84341e-08
-3.89085e-08
-9.80557e-08
-1.58053e-07
-1.5805e-07
-1.5805e-07
-1.5805e-07
-1.5805e-07
-1.5805e-07
-1.5805e-07
-1.5805e-07
-1.5805e-07
-1.5805e-07
-1.5805e-07
-1.5805e-07
-1.5805e-07
-1.5805e-07
-1.5805e-07
-1.5805e-07
-1.5805e-07
-1.5805e-07
-1.5805e-07
-1.5805e-07
-1.5805e-07
-1.5805e-07
-1.5805e-07
-1.5805e-07
-1.5805e-07
-1.5805e-07
-1.5805e-07
-1.5805e-07
-1.5805e-07
-1.5805e-07
-1.5805e-07
-1.5805e-07
-1.5805e-07
-1.5805e-07
-1.5805e-07
-1.5805e-07
-1.5805e-07
-1.5805e-07
-1.5805e-07
-1.5805e-07
-1.5805e-07
-1.5805e-07
-1.5805e-07
-1.5805e-07
-1.5805e-07
-1.5805e-07
-1.5805e-07
-1.5805e-07
-1.5805e-07
-1.5805e-07
-1.5805e-07
-1.5805e-07
-1.5805e-07
-1.5805e-07
-1.5805e-07
-1.5805e-07
-1.5805e-07
-1.5805e-07
-1.5805e-07
-1.5805e-07
-1.5805e-07
-1.5805e-07
-1.5805e-07
-1.5805e-07
-1.5805e-07
-1.5805e-07
-1.5805e-07
-1.5805e-07
-1.5805e-07
-1.5805e-07
-1.5805e-07
-1.5805e-07
-1.5805e-07
-1.5805e-07
-1.5805e-07
-1.5805e-07
-1.5805e-07
-1.5805e-07
-1.5805e-07
-1.5805e-07
-1.5805e-07
-1.5805e-07
-1.5805e-07
-1.5805e-07
-1.5805e-07
-1.5805e-07
-1.5805e-07
-1.5805e-07
-1.5805e-07
-1.5805e-07
-1.5805e-07
-1.5805e-07
-1.5805e-07
-1.5805e-07
-1.5805e-07
-1.5805e-07
-1.5805e-07
-1.5805e-07
-1.5805e-07
-1.5805e-07
-1.5805e-07
-1.5805e-07
-1.5805e-07
-1.5805e-07
-1.5805e-07
-1.5805e-07
-1.5805e-07
-1.5805e-07
-1.5805e-07
-1.5805e-07
-1.5805e-07
-1.5805e-07
-1.5805e-07
-1.5805e-07
-1.5805e-07
-1.5805e-07
-1.58049e-07
-1.58032e-07
-1.57324e-07
-1.32371e-07
)
;

boundaryField
{
    inandouthalf11
    {
        type            cyclic;
        value           nonuniform List<scalar> 
100
(
1.12416e-38
7.34588e-14
1.78284e-13
2.74521e-13
3.63935e-13
4.52885e-13
5.44374e-13
6.39006e-13
7.35842e-13
8.33508e-13
9.3112e-13
1.02834e-12
1.12504e-12
1.22112e-12
1.31666e-12
1.41217e-12
1.50899e-12
1.60941e-12
1.71682e-12
1.83565e-12
1.97067e-12
2.12484e-12
2.2946e-12
2.46424e-12
2.60777e-12
2.7048e-12
2.75596e-12
2.77763e-12
2.78571e-12
2.78876e-12
2.7901e-12
2.79085e-12
2.79139e-12
2.79189e-12
2.79243e-12
2.79306e-12
2.79383e-12
2.79473e-12
2.79576e-12
2.79689e-12
2.79809e-12
2.79932e-12
2.80057e-12
2.80183e-12
2.8031e-12
2.80439e-12
2.80571e-12
2.80707e-12
2.80848e-12
2.80995e-12
2.81148e-12
2.81309e-12
2.81478e-12
2.81654e-12
2.81839e-12
2.82033e-12
2.82236e-12
2.82449e-12
2.82672e-12
2.82906e-12
2.83149e-12
2.83403e-12
2.83666e-12
2.83938e-12
2.84218e-12
2.84504e-12
2.84798e-12
2.85099e-12
2.85409e-12
2.85728e-12
2.8606e-12
2.86405e-12
2.86766e-12
2.87144e-12
2.8754e-12
2.87953e-12
2.88383e-12
2.88829e-12
2.89289e-12
2.89763e-12
2.9025e-12
2.9075e-12
2.91264e-12
2.91793e-12
2.92337e-12
2.92897e-12
2.93473e-12
2.94066e-12
2.94674e-12
2.95298e-12
2.95936e-12
2.96586e-12
2.9725e-12
2.97926e-12
2.98614e-12
2.99314e-12
3.00026e-12
3.0075e-12
3.01486e-12
3.02233e-12
)
;
    }
    inandouthalf12
    {
        type            cyclic;
        value           nonuniform List<scalar> 
100
(
-1.12416e-38
-7.34588e-14
-1.78284e-13
-2.74521e-13
-3.63935e-13
-4.52885e-13
-5.44374e-13
-6.39006e-13
-7.35842e-13
-8.33508e-13
-9.3112e-13
-1.02834e-12
-1.12504e-12
-1.22112e-12
-1.31666e-12
-1.41217e-12
-1.50899e-12
-1.60941e-12
-1.71682e-12
-1.83565e-12
-1.97067e-12
-2.12484e-12
-2.2946e-12
-2.46424e-12
-2.60777e-12
-2.7048e-12
-2.75596e-12
-2.77763e-12
-2.78571e-12
-2.78876e-12
-2.7901e-12
-2.79085e-12
-2.79139e-12
-2.79189e-12
-2.79243e-12
-2.79306e-12
-2.79383e-12
-2.79473e-12
-2.79576e-12
-2.79689e-12
-2.79809e-12
-2.79932e-12
-2.80057e-12
-2.80183e-12
-2.8031e-12
-2.80439e-12
-2.80571e-12
-2.80707e-12
-2.80848e-12
-2.80995e-12
-2.81148e-12
-2.81309e-12
-2.81478e-12
-2.81654e-12
-2.81839e-12
-2.82033e-12
-2.82236e-12
-2.82449e-12
-2.82672e-12
-2.82906e-12
-2.83149e-12
-2.83403e-12
-2.83666e-12
-2.83938e-12
-2.84218e-12
-2.84504e-12
-2.84798e-12
-2.85099e-12
-2.85409e-12
-2.85728e-12
-2.8606e-12
-2.86405e-12
-2.86766e-12
-2.87144e-12
-2.8754e-12
-2.87953e-12
-2.88383e-12
-2.88829e-12
-2.89289e-12
-2.89763e-12
-2.9025e-12
-2.9075e-12
-2.91264e-12
-2.91793e-12
-2.92337e-12
-2.92897e-12
-2.93473e-12
-2.94066e-12
-2.94674e-12
-2.95298e-12
-2.95936e-12
-2.96586e-12
-2.9725e-12
-2.97926e-12
-2.98614e-12
-2.99314e-12
-3.00026e-12
-3.0075e-12
-3.01486e-12
-3.02233e-12
)
;
    }
    inandouthalf21
    {
        type            cyclic;
        value           nonuniform List<scalar> 
100
(
3.0299e-12
3.03758e-12
3.04536e-12
3.05324e-12
3.06119e-12
3.06923e-12
3.07734e-12
3.08552e-12
3.09376e-12
3.10206e-12
3.11041e-12
3.11881e-12
3.12726e-12
3.13576e-12
3.14433e-12
3.15298e-12
3.16171e-12
3.17056e-12
3.17955e-12
3.1887e-12
3.19805e-12
3.20764e-12
3.21749e-12
3.22762e-12
3.23805e-12
3.24877e-12
3.25977e-12
3.27101e-12
3.28243e-12
3.29395e-12
3.30549e-12
3.31693e-12
3.32819e-12
3.33922e-12
3.35001e-12
3.36055e-12
3.3708e-12
3.38071e-12
3.39021e-12
3.39906e-12
3.40668e-12
3.41231e-12
3.41574e-12
3.4175e-12
3.41833e-12
3.41887e-12
3.41971e-12
3.45652e-12
3.79348e-12
6.08046e-08
1.87417e-07
2.84727e-07
3.58323e-07
4.15511e-07
4.60264e-07
4.94988e-07
5.21411e-07
5.41064e-07
5.55467e-07
5.6604e-07
5.73895e-07
5.79784e-07
5.84199e-07
5.87476e-07
5.89856e-07
5.91517e-07
5.92593e-07
5.9319e-07
5.93392e-07
5.93266e-07
5.92867e-07
5.92243e-07
5.91433e-07
5.9047e-07
5.89384e-07
5.88198e-07
5.86936e-07
5.85617e-07
5.84257e-07
5.82872e-07
5.81474e-07
5.80077e-07
5.7869e-07
5.77322e-07
5.7598e-07
5.74669e-07
5.73391e-07
5.72147e-07
5.70932e-07
5.69743e-07
5.6858e-07
5.67444e-07
5.66338e-07
5.65262e-07
5.64212e-07
5.63188e-07
5.6219e-07
5.61217e-07
5.60268e-07
5.59343e-07
)
;
    }
    inandouthalf22
    {
        type            cyclic;
        value           nonuniform List<scalar> 
100
(
-3.0299e-12
-3.03758e-12
-3.04536e-12
-3.05324e-12
-3.06119e-12
-3.06923e-12
-3.07734e-12
-3.08552e-12
-3.09376e-12
-3.10206e-12
-3.11041e-12
-3.11881e-12
-3.12726e-12
-3.13576e-12
-3.14433e-12
-3.15298e-12
-3.16171e-12
-3.17056e-12
-3.17955e-12
-3.1887e-12
-3.19805e-12
-3.20764e-12
-3.21749e-12
-3.22762e-12
-3.23805e-12
-3.24877e-12
-3.25977e-12
-3.27101e-12
-3.28243e-12
-3.29395e-12
-3.30549e-12
-3.31693e-12
-3.32819e-12
-3.33922e-12
-3.35001e-12
-3.36055e-12
-3.3708e-12
-3.38071e-12
-3.39021e-12
-3.39906e-12
-3.40668e-12
-3.41231e-12
-3.41574e-12
-3.4175e-12
-3.41833e-12
-3.41887e-12
-3.41971e-12
-3.45652e-12
-3.79348e-12
-6.08046e-08
-1.87417e-07
-2.84727e-07
-3.58323e-07
-4.15511e-07
-4.60264e-07
-4.94988e-07
-5.21411e-07
-5.41064e-07
-5.55467e-07
-5.6604e-07
-5.73895e-07
-5.79784e-07
-5.84199e-07
-5.87476e-07
-5.89856e-07
-5.91517e-07
-5.92593e-07
-5.9319e-07
-5.93392e-07
-5.93266e-07
-5.92867e-07
-5.92243e-07
-5.91433e-07
-5.9047e-07
-5.89384e-07
-5.88198e-07
-5.86936e-07
-5.85617e-07
-5.84257e-07
-5.82872e-07
-5.81474e-07
-5.80077e-07
-5.7869e-07
-5.77322e-07
-5.7598e-07
-5.74669e-07
-5.73391e-07
-5.72147e-07
-5.70932e-07
-5.69743e-07
-5.6858e-07
-5.67444e-07
-5.66338e-07
-5.65262e-07
-5.64212e-07
-5.63188e-07
-5.6219e-07
-5.61217e-07
-5.60268e-07
-5.59343e-07
)
;
    }
    inandouthalf31
    {
        type            cyclic;
        value           nonuniform List<scalar> 
110
(
5.58444e-07
5.68878e-07
5.79513e-07
5.90345e-07
6.01377e-07
6.1262e-07
6.24076e-07
6.35735e-07
6.47597e-07
6.59679e-07
6.71978e-07
6.84482e-07
6.97202e-07
7.10144e-07
7.23294e-07
7.36663e-07
7.50266e-07
7.64075e-07
7.78088e-07
7.92343e-07
8.06825e-07
8.21507e-07
8.36413e-07
8.51542e-07
8.66887e-07
8.82476e-07
8.98276e-07
9.14296e-07
9.30595e-07
9.47123e-07
9.63887e-07
9.80934e-07
9.98168e-07
1.01567e-06
1.03369e-06
1.05242e-06
1.07196e-06
1.09234e-06
1.11277e-06
9.3815e-07
9.57117e-07
9.76534e-07
9.96344e-07
1.01656e-06
1.03719e-06
1.05823e-06
1.07971e-06
1.10162e-06
1.12397e-06
1.14678e-06
1.17006e-06
1.1938e-06
1.21803e-06
1.24275e-06
1.26798e-06
1.29371e-06
1.31997e-06
1.34676e-06
1.3741e-06
1.40199e-06
1.43044e-06
1.45948e-06
1.4891e-06
1.51933e-06
1.55016e-06
1.58163e-06
1.61373e-06
1.64649e-06
1.67991e-06
1.714e-06
1.74879e-06
1.78429e-06
1.8205e-06
1.85746e-06
1.89516e-06
1.93362e-06
1.97287e-06
2.01292e-06
2.05377e-06
2.09546e-06
2.13799e-06
2.18139e-06
2.22566e-06
2.27084e-06
2.31693e-06
2.36396e-06
2.41194e-06
2.46089e-06
2.51084e-06
2.56181e-06
2.61381e-06
2.66686e-06
2.72099e-06
2.77622e-06
2.83257e-06
2.89006e-06
2.94872e-06
3.00857e-06
3.06964e-06
3.13194e-06
3.19551e-06
3.26038e-06
3.32655e-06
3.39407e-06
3.46296e-06
3.53325e-06
3.60497e-06
3.67814e-06
3.7528e-06
3.82897e-06
)
;
    }
    inandouthalf32
    {
        type            cyclic;
        value           nonuniform List<scalar> 
110
(
-5.58444e-07
-5.68878e-07
-5.79513e-07
-5.90345e-07
-6.01377e-07
-6.1262e-07
-6.24076e-07
-6.35735e-07
-6.47597e-07
-6.59679e-07
-6.71978e-07
-6.84482e-07
-6.97202e-07
-7.10144e-07
-7.23294e-07
-7.36663e-07
-7.50266e-07
-7.64075e-07
-7.78088e-07
-7.92343e-07
-8.06825e-07
-8.21507e-07
-8.36413e-07
-8.51542e-07
-8.66887e-07
-8.82476e-07
-8.98276e-07
-9.14296e-07
-9.30595e-07
-9.47123e-07
-9.63887e-07
-9.80934e-07
-9.98168e-07
-1.01567e-06
-1.03369e-06
-1.05242e-06
-1.07196e-06
-1.09234e-06
-1.11277e-06
-9.3815e-07
-9.57117e-07
-9.76534e-07
-9.96344e-07
-1.01656e-06
-1.03719e-06
-1.05823e-06
-1.07971e-06
-1.10162e-06
-1.12397e-06
-1.14678e-06
-1.17006e-06
-1.1938e-06
-1.21803e-06
-1.24275e-06
-1.26798e-06
-1.29371e-06
-1.31997e-06
-1.34676e-06
-1.3741e-06
-1.40199e-06
-1.43044e-06
-1.45948e-06
-1.4891e-06
-1.51933e-06
-1.55016e-06
-1.58163e-06
-1.61373e-06
-1.64649e-06
-1.67991e-06
-1.714e-06
-1.74879e-06
-1.78429e-06
-1.8205e-06
-1.85746e-06
-1.89516e-06
-1.93362e-06
-1.97287e-06
-2.01292e-06
-2.05377e-06
-2.09546e-06
-2.13799e-06
-2.18139e-06
-2.22566e-06
-2.27084e-06
-2.31693e-06
-2.36396e-06
-2.41194e-06
-2.46089e-06
-2.51084e-06
-2.56181e-06
-2.61381e-06
-2.66686e-06
-2.72099e-06
-2.77622e-06
-2.83257e-06
-2.89006e-06
-2.94872e-06
-3.00857e-06
-3.06964e-06
-3.13194e-06
-3.19551e-06
-3.26038e-06
-3.32655e-06
-3.39407e-06
-3.46296e-06
-3.53325e-06
-3.60497e-06
-3.67814e-06
-3.7528e-06
-3.82897e-06
)
;
    }
    inandouthalf41
    {
        type            cyclic;
        value           nonuniform List<scalar> 
50
(
3.42732e-06
3.42732e-06
3.42732e-06
3.42732e-06
3.42732e-06
3.42732e-06
3.42732e-06
3.42732e-06
3.42732e-06
3.42732e-06
3.42732e-06
3.42732e-06
3.42732e-06
3.42732e-06
3.42732e-06
3.42732e-06
3.42732e-06
3.42732e-06
3.42732e-06
3.42732e-06
3.42732e-06
3.42732e-06
3.42732e-06
3.42732e-06
3.42732e-06
3.42732e-06
3.42732e-06
3.42732e-06
3.42732e-06
3.42732e-06
3.42732e-06
3.42732e-06
3.42732e-06
3.42732e-06
3.42732e-06
3.42732e-06
3.42732e-06
3.42732e-06
3.42732e-06
3.42732e-06
3.42732e-06
3.42732e-06
3.42732e-06
3.42732e-06
3.42732e-06
3.42732e-06
3.42732e-06
3.42731e-06
3.42711e-06
3.42253e-06
)
;
    }
    inandouthalf42
    {
        type            cyclic;
        value           nonuniform List<scalar> 
50
(
-3.42732e-06
-3.42732e-06
-3.42732e-06
-3.42732e-06
-3.42732e-06
-3.42732e-06
-3.42732e-06
-3.42732e-06
-3.42732e-06
-3.42732e-06
-3.42732e-06
-3.42732e-06
-3.42732e-06
-3.42732e-06
-3.42732e-06
-3.42732e-06
-3.42732e-06
-3.42732e-06
-3.42732e-06
-3.42732e-06
-3.42732e-06
-3.42732e-06
-3.42732e-06
-3.42732e-06
-3.42732e-06
-3.42732e-06
-3.42732e-06
-3.42732e-06
-3.42732e-06
-3.42732e-06
-3.42732e-06
-3.42732e-06
-3.42732e-06
-3.42732e-06
-3.42732e-06
-3.42732e-06
-3.42732e-06
-3.42732e-06
-3.42732e-06
-3.42732e-06
-3.42732e-06
-3.42732e-06
-3.42732e-06
-3.42732e-06
-3.42732e-06
-3.42732e-06
-3.42732e-06
-3.42731e-06
-3.42711e-06
-3.42253e-06
)
;
    }
    top
    {
        type            symmetryPlane;
        value           uniform 0;
    }
    walls
    {
        type            fixedValue;
        value           uniform 0;
    }
    frontAndBackPlanes
    {
        type            empty;
        value           nonuniform 0();
    }
}


// ************************************************************************* //
