/*--------------------------------*- C++ -*----------------------------------*\
| =========                 |                                                 |
| \\      /  F ield         | OpenFOAM: The Open Source CFD Toolbox           |
|  \\    /   O peration     | Version:  2.4.x                                 |
|   \\  /    A nd           | Web:      www.OpenFOAM.org                      |
|    \\/     M anipulation  |                                                 |
\*---------------------------------------------------------------------------*/
FoamFile
{
    version     2.0;
    format      ascii;
    class       surfaceScalarField;
    location    "3.6";
    object      phib;
}
// * * * * * * * * * * * * * * * * * * * * * * * * * * * * * * * * * * * * * //

dimensions      [0 3 -1 0 0 0 0];

internalField   nonuniform List<scalar> 
359
(
1.14259e-12
3.50612e-12
5.88657e-12
8.05016e-12
1.01295e-11
1.22439e-11
1.44403e-11
1.67111e-11
1.90214e-11
2.13436e-11
2.36655e-11
2.59822e-11
2.82924e-11
3.05939e-11
3.28924e-11
3.52096e-11
3.75895e-11
4.0103e-11
4.28489e-11
4.59509e-11
4.95181e-11
5.35698e-11
5.78861e-11
6.1935e-11
6.50814e-11
6.70255e-11
6.79747e-11
6.83571e-11
6.84969e-11
6.85501e-11
6.85738e-11
6.85875e-11
6.85975e-11
6.86068e-11
6.86169e-11
6.86284e-11
6.86416e-11
6.86563e-11
6.86724e-11
6.86891e-11
6.87057e-11
6.87222e-11
6.87382e-11
6.87535e-11
6.87686e-11
6.87832e-11
6.87978e-11
6.88122e-11
6.88265e-11
6.88409e-11
6.88556e-11
6.88705e-11
6.88856e-11
6.89009e-11
6.89165e-11
6.89324e-11
6.89486e-11
6.89652e-11
6.89822e-11
6.89995e-11
6.90173e-11
6.90354e-11
6.90538e-11
6.90726e-11
6.90916e-11
6.91106e-11
6.91297e-11
6.91489e-11
6.91684e-11
6.91882e-11
6.92084e-11
6.92293e-11
6.92511e-11
6.92738e-11
6.92974e-11
6.9322e-11
6.93475e-11
6.93736e-11
6.94003e-11
6.94276e-11
6.94553e-11
6.94834e-11
6.9512e-11
6.95411e-11
6.95708e-11
6.96013e-11
6.96323e-11
6.9664e-11
6.96963e-11
6.9729e-11
6.97621e-11
6.97955e-11
6.98291e-11
6.98629e-11
6.98968e-11
6.99308e-11
6.99649e-11
6.99991e-11
7.00333e-11
7.00675e-11
7.01016e-11
7.01356e-11
7.01693e-11
7.02027e-11
7.02357e-11
7.02682e-11
7.03003e-11
7.03316e-11
7.03623e-11
7.03922e-11
7.04213e-11
7.04495e-11
7.04767e-11
7.0503e-11
7.05283e-11
7.05527e-11
7.05763e-11
7.0599e-11
7.0621e-11
7.06423e-11
7.0663e-11
7.06833e-11
7.07029e-11
7.0722e-11
7.07403e-11
7.07576e-11
7.07733e-11
7.07871e-11
7.07982e-11
7.08059e-11
7.08097e-11
7.08086e-11
7.08018e-11
7.07886e-11
7.07686e-11
7.07419e-11
7.07079e-11
7.06643e-11
7.06068e-11
7.05348e-11
7.04553e-11
7.03621e-11
7.02379e-11
7.00782e-11
6.98433e-11
6.92732e-11
6.89585e-11
6.79862e-11
-1.01188e-10
-1.61449e-09
-1.61045e-09
-1.38179e-09
-1.09546e-09
-8.09008e-10
-5.56993e-10
-3.55671e-10
-2.07385e-10
-1.06421e-10
-4.43598e-11
-1.12306e-11
4.70312e-12
1.22888e-11
1.58606e-11
1.73568e-11
1.77203e-11
1.74452e-11
1.68048e-11
1.59583e-11
1.5002e-11
1.3996e-11
1.29786e-11
1.19746e-11
1.1e-11
1.00645e-11
9.17401e-12
8.33127e-12
7.53695e-12
6.79015e-12
6.08883e-12
5.43018e-12
4.81092e-12
4.22768e-12
3.67743e-12
3.1582e-12
2.67007e-12
2.21647e-12
1.80515e-12
1.44769e-12
1.15573e-12
9.33891e-13
7.73769e-13
6.56062e-13
5.61671e-13
4.81372e-13
4.14112e-13
3.59018e-13
3.12814e-13
2.72873e-13
2.38486e-13
2.09542e-13
1.85244e-13
1.63388e-13
1.42996e-13
1.25214e-13
1.10885e-13
9.81418e-14
8.53281e-14
7.40937e-14
6.54982e-14
5.75324e-14
4.96853e-14
4.33018e-14
3.79118e-14
3.27126e-14
2.8387e-14
2.48671e-14
2.1307e-14
1.81431e-14
1.58598e-14
1.36966e-14
1.15428e-14
9.87166e-15
8.41587e-15
7.11157e-15
6.07105e-15
5.07406e-15
4.22197e-15
3.59459e-15
2.96385e-15
2.42174e-15
2.01632e-15
1.60091e-15
1.29817e-15
1.16979e-15
1.10936e-15
1.03998e-15
8.6099e-16
4.97404e-16
3.38621e-16
4.27324e-17
1.6512e-17
1.60648e-17
1.5654e-17
1.52726e-17
1.48392e-17
1.44346e-17
1.39909e-17
1.35683e-17
1.31077e-17
1.26674e-17
1.21959e-17
1.17334e-17
1.12351e-17
1.07484e-17
1.02288e-17
9.72331e-18
9.19494e-18
8.6798e-18
8.14863e-18
7.63246e-18
7.11557e-18
6.62422e-18
6.15325e-18
5.72749e-18
5.34778e-18
5.01824e-18
4.75183e-18
4.48955e-18
4.25242e-18
4.03345e-18
3.82833e-18
3.63848e-18
3.46903e-18
3.30984e-18
3.15689e-18
3.0026e-18
2.85367e-18
2.70119e-18
2.54998e-18
2.40195e-18
2.2699e-18
2.14219e-18
2.01779e-18
1.88921e-18
1.76425e-18
1.63342e-18
1.54135e-18
1.40522e-18
1.27291e-18
1.13886e-18
1.00406e-18
8.67347e-19
7.3081e-19
5.98454e-19
4.73307e-19
3.84089e-19
2.192e-19
1.72822e-19
1.35878e-19
1.19757e-19
9.06176e-20
6.56426e-20
4.12192e-20
1.99193e-20
-4.62642e-21
-2.4669e-20
-4.48646e-20
-6.08499e-20
-8.0761e-20
-9.57528e-20
-1.0928e-19
-1.20706e-19
-1.41248e-19
-1.58508e-19
-1.76381e-19
-1.88425e-19
-2.06042e-19
-2.16303e-19
-2.27056e-19
-2.35052e-19
-2.57348e-19
-2.73064e-19
-2.91509e-19
-3.025e-19
-3.25781e-19
-3.52895e-19
-4.08432e-19
-6.3318e-19
-8.49691e-19
-1.21269e-18
-1.60179e-18
-1.93821e-18
-2.34481e-18
-2.63936e-18
-2.9411e-18
-3.12502e-18
-3.55063e-18
-3.79955e-18
-4.04868e-18
-4.03726e-18
-4.2418e-18
-4.11952e-18
-4.02124e-18
-3.6882e-18
-3.95312e-18
-3.87394e-18
-3.80151e-18
-3.17291e-18
-2.90087e-18
-2.03247e-18
-1.1175e-18
1.43589e-19
1.5457e-18
3.10547e-18
4.74106e-18
6.01144e-18
8.92927e-18
9.47618e-18
8.95335e-18
)
;

boundaryField
{
    inandouthalf11
    {
        type            cyclic;
        value           nonuniform List<scalar> 
100
(
1.87125e-10
1.86853e-10
1.86708e-10
1.86831e-10
1.86989e-10
1.87135e-10
1.8728e-10
1.87426e-10
1.87567e-10
1.87708e-10
1.87852e-10
1.87997e-10
1.88143e-10
1.88286e-10
1.88429e-10
1.8857e-10
1.88714e-10
1.88863e-10
1.89022e-10
1.89199e-10
1.89399e-10
1.89627e-10
1.8988e-10
1.90132e-10
1.90348e-10
1.90497e-10
1.90577e-10
1.90615e-10
1.90632e-10
1.90641e-10
1.90647e-10
1.90653e-10
1.90658e-10
1.90665e-10
1.90672e-10
1.90679e-10
1.90687e-10
1.90697e-10
1.90708e-10
1.90717e-10
1.9073e-10
1.90742e-10
1.90755e-10
1.9077e-10
1.90785e-10
1.90802e-10
1.9082e-10
1.90838e-10
1.90858e-10
1.90881e-10
1.90904e-10
1.90929e-10
1.90956e-10
1.90985e-10
1.91014e-10
1.91048e-10
1.91081e-10
1.91118e-10
1.91157e-10
1.91196e-10
1.91239e-10
1.91282e-10
1.91328e-10
1.91375e-10
1.91422e-10
1.91471e-10
1.91521e-10
1.91573e-10
1.91627e-10
1.91683e-10
1.91741e-10
1.91802e-10
1.91864e-10
1.91929e-10
1.91995e-10
1.92063e-10
1.92132e-10
1.92203e-10
1.92275e-10
1.92349e-10
1.92425e-10
1.92503e-10
1.92584e-10
1.92666e-10
1.9275e-10
1.92837e-10
1.92926e-10
1.93016e-10
1.93109e-10
1.93203e-10
1.933e-10
1.93399e-10
1.935e-10
1.93603e-10
1.93709e-10
1.93817e-10
1.93928e-10
1.94041e-10
1.94157e-10
1.94276e-10
)
;
    }
    inandouthalf12
    {
        type            cyclic;
        value           nonuniform List<scalar> 
100
(
-1.87125e-10
-1.86853e-10
-1.86708e-10
-1.86831e-10
-1.86989e-10
-1.87135e-10
-1.8728e-10
-1.87426e-10
-1.87567e-10
-1.87708e-10
-1.87852e-10
-1.87997e-10
-1.88143e-10
-1.88286e-10
-1.88429e-10
-1.8857e-10
-1.88714e-10
-1.88863e-10
-1.89022e-10
-1.89199e-10
-1.89399e-10
-1.89627e-10
-1.8988e-10
-1.90132e-10
-1.90348e-10
-1.90497e-10
-1.90577e-10
-1.90615e-10
-1.90632e-10
-1.90641e-10
-1.90647e-10
-1.90653e-10
-1.90658e-10
-1.90665e-10
-1.90672e-10
-1.90679e-10
-1.90687e-10
-1.90697e-10
-1.90708e-10
-1.90717e-10
-1.9073e-10
-1.90742e-10
-1.90755e-10
-1.9077e-10
-1.90785e-10
-1.90802e-10
-1.9082e-10
-1.90838e-10
-1.90858e-10
-1.90881e-10
-1.90904e-10
-1.90929e-10
-1.90956e-10
-1.90985e-10
-1.91014e-10
-1.91048e-10
-1.91081e-10
-1.91118e-10
-1.91157e-10
-1.91196e-10
-1.91239e-10
-1.91282e-10
-1.91328e-10
-1.91375e-10
-1.91422e-10
-1.91471e-10
-1.91521e-10
-1.91573e-10
-1.91627e-10
-1.91683e-10
-1.91741e-10
-1.91802e-10
-1.91864e-10
-1.91929e-10
-1.91995e-10
-1.92063e-10
-1.92132e-10
-1.92203e-10
-1.92275e-10
-1.92349e-10
-1.92425e-10
-1.92503e-10
-1.92584e-10
-1.92666e-10
-1.9275e-10
-1.92837e-10
-1.92926e-10
-1.93016e-10
-1.93109e-10
-1.93203e-10
-1.933e-10
-1.93399e-10
-1.935e-10
-1.93603e-10
-1.93709e-10
-1.93817e-10
-1.93928e-10
-1.94041e-10
-1.94157e-10
-1.94276e-10
)
;
    }
    inandouthalf21
    {
        type            cyclic;
        value           nonuniform List<scalar> 
100
(
1.94398e-10
1.94522e-10
1.94649e-10
1.9478e-10
1.94913e-10
1.9505e-10
1.95191e-10
1.95335e-10
1.95482e-10
1.95634e-10
1.95789e-10
1.95949e-10
1.96113e-10
1.96282e-10
1.96455e-10
1.96633e-10
1.96817e-10
1.97006e-10
1.97201e-10
1.97402e-10
1.9761e-10
1.97824e-10
1.98046e-10
1.98275e-10
1.98512e-10
1.98757e-10
1.99011e-10
1.99274e-10
1.99547e-10
1.99832e-10
2.00128e-10
2.00436e-10
2.00756e-10
2.01094e-10
2.01452e-10
2.01831e-10
2.02228e-10
2.02648e-10
2.03113e-10
2.03645e-10
2.04223e-10
2.04771e-10
2.0542e-10
2.06261e-10
2.07294e-10
2.09014e-10
2.14054e-10
2.14263e-10
4.28039e-10
6.93623e-08
2.04885e-07
2.99604e-07
3.72142e-07
4.29773e-07
4.76365e-07
5.1415e-07
5.44433e-07
5.68031e-07
5.8567e-07
5.9826e-07
6.06901e-07
6.12671e-07
6.16435e-07
6.1881e-07
6.20208e-07
6.20897e-07
6.21054e-07
6.20797e-07
6.20206e-07
6.19338e-07
6.18235e-07
6.1693e-07
6.15445e-07
6.13801e-07
6.12014e-07
6.10097e-07
6.08063e-07
6.0592e-07
6.03679e-07
6.01346e-07
5.9893e-07
5.96436e-07
5.93871e-07
5.91241e-07
5.88549e-07
5.85802e-07
5.83003e-07
5.80157e-07
5.77267e-07
5.74338e-07
5.71372e-07
5.68372e-07
5.65342e-07
5.62285e-07
5.59203e-07
5.56099e-07
5.52975e-07
5.49833e-07
5.46676e-07
5.43506e-07
)
;
    }
    inandouthalf22
    {
        type            cyclic;
        value           nonuniform List<scalar> 
100
(
-1.94398e-10
-1.94522e-10
-1.94649e-10
-1.9478e-10
-1.94913e-10
-1.9505e-10
-1.95191e-10
-1.95335e-10
-1.95482e-10
-1.95634e-10
-1.95789e-10
-1.95949e-10
-1.96113e-10
-1.96282e-10
-1.96455e-10
-1.96633e-10
-1.96817e-10
-1.97006e-10
-1.97201e-10
-1.97402e-10
-1.9761e-10
-1.97824e-10
-1.98046e-10
-1.98275e-10
-1.98512e-10
-1.98757e-10
-1.99011e-10
-1.99274e-10
-1.99547e-10
-1.99832e-10
-2.00128e-10
-2.00436e-10
-2.00756e-10
-2.01094e-10
-2.01452e-10
-2.01831e-10
-2.02228e-10
-2.02648e-10
-2.03113e-10
-2.03645e-10
-2.04223e-10
-2.04771e-10
-2.0542e-10
-2.06261e-10
-2.07294e-10
-2.09014e-10
-2.14054e-10
-2.14263e-10
-4.28039e-10
-6.93623e-08
-2.04885e-07
-2.99604e-07
-3.72142e-07
-4.29773e-07
-4.76365e-07
-5.1415e-07
-5.44433e-07
-5.68031e-07
-5.8567e-07
-5.9826e-07
-6.06901e-07
-6.12671e-07
-6.16435e-07
-6.1881e-07
-6.20208e-07
-6.20897e-07
-6.21054e-07
-6.20797e-07
-6.20206e-07
-6.19338e-07
-6.18235e-07
-6.1693e-07
-6.15445e-07
-6.13801e-07
-6.12014e-07
-6.10097e-07
-6.08063e-07
-6.0592e-07
-6.03679e-07
-6.01346e-07
-5.9893e-07
-5.96436e-07
-5.93871e-07
-5.91241e-07
-5.88549e-07
-5.85802e-07
-5.83003e-07
-5.80157e-07
-5.77267e-07
-5.74338e-07
-5.71372e-07
-5.68372e-07
-5.65342e-07
-5.62285e-07
-5.59203e-07
-5.56099e-07
-5.52975e-07
-5.49833e-07
-5.46676e-07
-5.43506e-07
)
;
    }
    inandouthalf31
    {
        type            cyclic;
        value           nonuniform List<scalar> 
110
(
5.40326e-07
5.48005e-07
5.55697e-07
5.63398e-07
5.71104e-07
5.78811e-07
5.86515e-07
5.94213e-07
6.019e-07
6.09575e-07
6.17234e-07
6.24874e-07
6.32495e-07
6.40095e-07
6.47675e-07
6.55237e-07
6.62785e-07
6.70324e-07
6.77864e-07
6.85417e-07
6.93003e-07
7.00645e-07
7.08377e-07
7.16245e-07
7.24314e-07
7.32675e-07
7.41464e-07
7.50902e-07
7.6136e-07
7.74533e-07
7.89966e-07
8.05953e-07
8.22274e-07
8.38931e-07
8.55929e-07
8.73277e-07
8.90979e-07
9.09044e-07
9.27477e-07
9.46287e-07
9.65481e-07
9.85066e-07
1.00505e-06
1.02544e-06
1.04625e-06
1.06748e-06
1.08914e-06
1.11124e-06
1.13379e-06
1.1568e-06
1.18028e-06
1.20423e-06
1.22867e-06
1.25361e-06
1.27905e-06
1.30502e-06
1.3315e-06
1.35853e-06
1.3861e-06
1.41424e-06
1.44294e-06
1.47223e-06
1.50211e-06
1.5326e-06
1.56371e-06
1.59545e-06
1.62783e-06
1.66087e-06
1.69458e-06
1.72898e-06
1.76407e-06
1.79988e-06
1.83641e-06
1.87368e-06
1.91171e-06
1.95052e-06
1.99011e-06
2.0305e-06
2.07171e-06
2.11376e-06
2.15667e-06
2.20044e-06
2.24511e-06
2.29067e-06
2.33717e-06
2.38461e-06
2.43301e-06
2.48239e-06
2.53278e-06
2.58419e-06
2.63664e-06
2.69016e-06
2.74476e-06
2.80047e-06
2.85731e-06
2.91531e-06
2.97448e-06
3.03486e-06
3.09645e-06
3.1593e-06
3.22343e-06
3.28886e-06
3.35561e-06
3.42372e-06
3.49321e-06
3.56412e-06
3.63646e-06
3.71027e-06
3.78558e-06
3.86242e-06
)
;
    }
    inandouthalf32
    {
        type            cyclic;
        value           nonuniform List<scalar> 
110
(
-5.40326e-07
-5.48005e-07
-5.55697e-07
-5.63398e-07
-5.71104e-07
-5.78811e-07
-5.86515e-07
-5.94213e-07
-6.019e-07
-6.09575e-07
-6.17234e-07
-6.24874e-07
-6.32495e-07
-6.40095e-07
-6.47675e-07
-6.55237e-07
-6.62785e-07
-6.70324e-07
-6.77864e-07
-6.85417e-07
-6.93003e-07
-7.00645e-07
-7.08377e-07
-7.16245e-07
-7.24314e-07
-7.32675e-07
-7.41464e-07
-7.50902e-07
-7.6136e-07
-7.74533e-07
-7.89966e-07
-8.05953e-07
-8.22274e-07
-8.38931e-07
-8.55929e-07
-8.73277e-07
-8.90979e-07
-9.09044e-07
-9.27477e-07
-9.46287e-07
-9.65481e-07
-9.85066e-07
-1.00505e-06
-1.02544e-06
-1.04625e-06
-1.06748e-06
-1.08914e-06
-1.11124e-06
-1.13379e-06
-1.1568e-06
-1.18028e-06
-1.20423e-06
-1.22867e-06
-1.25361e-06
-1.27905e-06
-1.30502e-06
-1.3315e-06
-1.35853e-06
-1.3861e-06
-1.41424e-06
-1.44294e-06
-1.47223e-06
-1.50211e-06
-1.5326e-06
-1.56371e-06
-1.59545e-06
-1.62783e-06
-1.66087e-06
-1.69458e-06
-1.72898e-06
-1.76407e-06
-1.79988e-06
-1.83641e-06
-1.87368e-06
-1.91171e-06
-1.95052e-06
-1.99011e-06
-2.0305e-06
-2.07171e-06
-2.11376e-06
-2.15667e-06
-2.20044e-06
-2.24511e-06
-2.29067e-06
-2.33717e-06
-2.38461e-06
-2.43301e-06
-2.48239e-06
-2.53278e-06
-2.58419e-06
-2.63664e-06
-2.69016e-06
-2.74476e-06
-2.80047e-06
-2.85731e-06
-2.91531e-06
-2.97448e-06
-3.03486e-06
-3.09645e-06
-3.1593e-06
-3.22343e-06
-3.28886e-06
-3.35561e-06
-3.42372e-06
-3.49321e-06
-3.56412e-06
-3.63646e-06
-3.71027e-06
-3.78558e-06
-3.86242e-06
)
;
    }
    inandouthalf41
    {
        type            cyclic;
        value           nonuniform List<scalar> 
50
(
3.45726e-06
3.45726e-06
3.45726e-06
3.45726e-06
3.45726e-06
3.45726e-06
3.45726e-06
3.45726e-06
3.45726e-06
3.45726e-06
3.45726e-06
3.45726e-06
3.45726e-06
3.45726e-06
3.45726e-06
3.45726e-06
3.45726e-06
3.45726e-06
3.45726e-06
3.45726e-06
3.45726e-06
3.45726e-06
3.45726e-06
3.45726e-06
3.45726e-06
3.45726e-06
3.45726e-06
3.45726e-06
3.45726e-06
3.45726e-06
3.45726e-06
3.45726e-06
3.45726e-06
3.45726e-06
3.45726e-06
3.45726e-06
3.45726e-06
3.45726e-06
3.45726e-06
3.45726e-06
3.45726e-06
3.45726e-06
3.45726e-06
3.45726e-06
3.45726e-06
3.45726e-06
3.45726e-06
3.45726e-06
3.45726e-06
3.45726e-06
)
;
    }
    inandouthalf42
    {
        type            cyclic;
        value           nonuniform List<scalar> 
50
(
-3.45726e-06
-3.45726e-06
-3.45726e-06
-3.45726e-06
-3.45726e-06
-3.45726e-06
-3.45726e-06
-3.45726e-06
-3.45726e-06
-3.45726e-06
-3.45726e-06
-3.45726e-06
-3.45726e-06
-3.45726e-06
-3.45726e-06
-3.45726e-06
-3.45726e-06
-3.45726e-06
-3.45726e-06
-3.45726e-06
-3.45726e-06
-3.45726e-06
-3.45726e-06
-3.45726e-06
-3.45726e-06
-3.45726e-06
-3.45726e-06
-3.45726e-06
-3.45726e-06
-3.45726e-06
-3.45726e-06
-3.45726e-06
-3.45726e-06
-3.45726e-06
-3.45726e-06
-3.45726e-06
-3.45726e-06
-3.45726e-06
-3.45726e-06
-3.45726e-06
-3.45726e-06
-3.45726e-06
-3.45726e-06
-3.45726e-06
-3.45726e-06
-3.45726e-06
-3.45726e-06
-3.45726e-06
-3.45726e-06
-3.45726e-06
)
;
    }
    top
    {
        type            symmetryPlane;
        value           uniform 0;
    }
    walls
    {
        type            fixedValue;
        value           uniform 0;
    }
    frontAndBackPlanes
    {
        type            empty;
        value           nonuniform 0();
    }
}


// ************************************************************************* //
