/*--------------------------------*- C++ -*----------------------------------*\
| =========                 |                                                 |
| \\      /  F ield         | OpenFOAM: The Open Source CFD Toolbox           |
|  \\    /   O peration     | Version:  2.4.x                                 |
|   \\  /    A nd           | Web:      www.OpenFOAM.org                      |
|    \\/     M anipulation  |                                                 |
\*---------------------------------------------------------------------------*/
FoamFile
{
    version     2.0;
    format      ascii;
    class       volVectorField;
    location    "3.6";
    object      U;
}
// * * * * * * * * * * * * * * * * * * * * * * * * * * * * * * * * * * * * * //

dimensions      [0 1 -1 0 0 0 0];

internalField   nonuniform List<vector> 
360
(
(-7.29295e-05 5.12277e-08 0)
(-7.27893e-05 6.45938e-09 0)
(-7.27671e-05 -1.09915e-08 0)
(-7.28774e-05 -5.35637e-09 0)
(-7.30016e-05 6.33602e-11 0)
(-7.31192e-05 1.85292e-09 0)
(-7.32382e-05 2.06801e-09 0)
(-7.33587e-05 1.45799e-09 0)
(-7.34779e-05 5.82172e-10 0)
(-7.35978e-05 3.93161e-11 0)
(-7.37189e-05 -1.25944e-10 0)
(-7.38404e-05 -1.75092e-10 0)
(-7.3962e-05 -2.26067e-10 0)
(-7.40824e-05 -2.18353e-10 0)
(-7.42016e-05 6.59181e-11 0)
(-7.43207e-05 8.30343e-10 0)
(-7.44413e-05 2.19903e-09 0)
(-7.45664e-05 4.26277e-09 0)
(-7.47001e-05 7.00897e-09 0)
(-7.48484e-05 1.01519e-08 0)
(-7.50162e-05 1.23868e-08 0)
(-7.52083e-05 1.08553e-08 0)
(-7.542e-05 1.56923e-09 0)
(-7.5632e-05 -1.49641e-08 0)
(-7.58123e-05 -2.86904e-08 0)
(-7.59356e-05 -2.89283e-08 0)
(-7.6002e-05 -1.86663e-08 0)
(-7.6032e-05 -8.52845e-09 0)
(-7.60445e-05 -3.11838e-09 0)
(-7.60504e-05 -1.04632e-09 0)
(-7.60541e-05 -3.77683e-10 0)
(-7.60577e-05 -1.06456e-10 0)
(-7.60604e-05 -7.57378e-11 0)
(-7.60645e-05 2.79526e-11 0)
(-7.60679e-05 1.30878e-11 0)
(-7.60721e-05 4.65624e-11 0)
(-7.60765e-05 2.8644e-11 0)
(-7.60817e-05 2.16429e-11 0)
(-7.60878e-05 4.71679e-11 0)
(-7.60932e-05 -2.67828e-11 0)
(-7.61002e-05 3.02037e-12 0)
(-7.61072e-05 -3.83235e-12 0)
(-7.61142e-05 -4.4813e-11 0)
(-7.61226e-05 -3.42704e-12 0)
(-7.6131e-05 -2.09712e-11 0)
(-7.61401e-05 -1.69084e-11 0)
(-7.61499e-05 6.92695e-12 0)
(-7.61596e-05 -2.84543e-11 0)
(-7.61707e-05 -2.3708e-11 0)
(-7.61831e-05 1.74596e-11 0)
(-7.61955e-05 -2.03976e-11 0)
(-7.62092e-05 1.27287e-12 0)
(-7.62235e-05 -1.53377e-11 0)
(-7.62391e-05 6.41312e-12 0)
(-7.62551e-05 -2.84738e-11 0)
(-7.6273e-05 1.3262e-11 0)
(-7.62912e-05 -2.17016e-11 0)
(-7.6311e-05 1.80373e-12 0)
(-7.63316e-05 5.66423e-12 0)
(-7.63529e-05 -2.54158e-11 0)
(-7.63761e-05 1.73988e-11 0)
(-7.63994e-05 -1.36855e-11 0)
(-7.6424e-05 9.30094e-12 0)
(-7.64489e-05 -3.98079e-12 0)
(-7.64745e-05 -1.2788e-14 0)
(-7.65007e-05 -1.26153e-11 0)
(-7.65278e-05 -9.66518e-12 0)
(-7.65559e-05 -7.05663e-12 0)
(-7.65848e-05 -1.58736e-12 0)
(-7.66146e-05 -1.87849e-11 0)
(-7.66461e-05 -2.29461e-12 0)
(-7.66789e-05 2.16944e-11 0)
(-7.67121e-05 -5.15244e-12 0)
(-7.6747e-05 1.84127e-11 0)
(-7.67826e-05 6.8148e-12 0)
(-7.68194e-05 2.29115e-11 0)
(-7.68567e-05 8.60892e-12 0)
(-7.68949e-05 4.12289e-12 0)
(-7.69341e-05 1.12012e-12 0)
(-7.69743e-05 2.75882e-12 0)
(-7.70154e-05 -5.63891e-12 0)
(-7.70577e-05 -3.86709e-12 0)
(-7.71012e-05 -7.70612e-13 0)
(-7.71458e-05 -3.07464e-13 0)
(-7.71916e-05 3.31019e-12 0)
(-7.72386e-05 2.63199e-12 0)
(-7.72867e-05 5.36669e-12 0)
(-7.73358e-05 3.00655e-12 0)
(-7.7386e-05 -5.07617e-13 0)
(-7.74373e-05 -2.84187e-12 0)
(-7.74897e-05 -5.71428e-12 0)
(-7.75433e-05 -9.68884e-12 0)
(-7.75981e-05 -1.11788e-11 0)
(-7.76543e-05 -1.24648e-11 0)
(-7.77117e-05 -1.35687e-11 0)
(-7.77705e-05 -1.44006e-11 0)
(-7.78306e-05 -1.52927e-11 0)
(-7.78921e-05 -1.66745e-11 0)
(-7.7955e-05 -1.85559e-11 0)
(-7.80194e-05 -2.05788e-11 0)
(-7.80852e-05 -2.29729e-11 0)
(-7.81526e-05 -2.56309e-11 0)
(-7.82216e-05 -2.82665e-11 0)
(-7.82921e-05 -3.10253e-11 0)
(-7.83644e-05 -3.39587e-11 0)
(-7.84384e-05 -3.69883e-11 0)
(-7.85142e-05 -4.01277e-11 0)
(-7.85919e-05 -4.33425e-11 0)
(-7.86715e-05 -4.65306e-11 0)
(-7.87532e-05 -4.96133e-11 0)
(-7.88369e-05 -5.25133e-11 0)
(-7.89228e-05 -5.51452e-11 0)
(-7.9011e-05 -5.7442e-11 0)
(-7.91015e-05 -5.93472e-11 0)
(-7.91946e-05 -6.08173e-11 0)
(-7.92903e-05 -6.18457e-11 0)
(-7.93888e-05 -6.24782e-11 0)
(-7.94902e-05 -6.28182e-11 0)
(-7.95946e-05 -6.3037e-11 0)
(-7.97023e-05 -6.33912e-11 0)
(-7.98135e-05 -6.42339e-11 0)
(-7.99282e-05 -6.60211e-11 0)
(-8.00468e-05 -6.93497e-11 0)
(-8.01694e-05 -7.50097e-11 0)
(-8.02961e-05 -8.3962e-11 0)
(-8.04273e-05 -9.71466e-11 0)
(-8.05632e-05 -1.15007e-10 0)
(-8.07042e-05 -1.36745e-10 0)
(-8.08505e-05 -1.59779e-10 0)
(-8.10026e-05 -1.81063e-10 0)
(-8.11606e-05 -2.01812e-10 0)
(-8.13247e-05 -2.33253e-10 0)
(-8.14955e-05 -2.86279e-10 0)
(-8.16749e-05 -3.37547e-10 0)
(-8.18648e-05 -3.37181e-10 0)
(-8.20654e-05 -3.10226e-10 0)
(-8.22753e-05 -3.82042e-10 0)
(-8.24974e-05 -6.50204e-10 0)
(-8.27422e-05 -9.67836e-10 0)
(-8.30218e-05 -7.11509e-10 0)
(-8.33245e-05 2.21679e-10 0)
(-8.36113e-05 -1.44611e-09 0)
(-8.3949e-05 -2.55596e-09 0)
(-8.43865e-05 -2.39662e-09 0)
(-8.49234e-05 -8.46135e-09 0)
(-8.58183e-05 -4.0798e-08 0)
(-8.84534e-05 7.01874e-08 0)
(-8.85533e-05 -1.94929e-07 0)
(-0.000177363 2.04526e-06 0)
(-0.0665296 -2.3968e-05 0)
(-0.201625 -0.000116673 0)
(-0.29768 3.4631e-05 0)
(-0.370888 -1.0916e-05 0)
(-0.428892 -5.36138e-06 0)
(-0.475715 -2.43809e-06 0)
(-0.513661 -7.29579e-07 0)
(-0.544072 1.67138e-07 0)
(-0.567776 3.97193e-07 0)
(-0.585497 3.78262e-07 0)
(-0.598143 4.38421e-07 0)
(-0.60682 3.83611e-07 0)
(-0.612611 2.287e-07 0)
(-0.616389 1.20482e-07 0)
(-0.618774 6.54594e-08 0)
(-0.620179 3.90389e-08 0)
(-0.620873 2.49267e-08 0)
(-0.621034 1.64509e-08 0)
(-0.62078 1.10418e-08 0)
(-0.620191 7.49053e-09 0)
(-0.619325 5.09934e-09 0)
(-0.618224 3.44969e-09 0)
(-0.61692 2.28871e-09 0)
(-0.615437 1.46004e-09 0)
(-0.613794 8.62407e-10 0)
(-0.612008 4.2872e-10 0)
(-0.610092 1.13187e-10 0)
(-0.608058 -1.15924e-10 0)
(-0.605916 -2.8119e-10 0)
(-0.603675 -3.99313e-10 0)
(-0.601343 -4.83151e-10 0)
(-0.598927 -5.43665e-10 0)
(-0.596434 -5.90724e-10 0)
(-0.593869 -6.33785e-10 0)
(-0.591239 -6.78256e-10 0)
(-0.588548 -7.1459e-10 0)
(-0.585801 -6.97387e-10 0)
(-0.583003 -5.39146e-10 0)
(-0.580157 -1.73624e-10 0)
(-0.577267 2.94322e-10 0)
(-0.574338 5.30319e-10 0)
(-0.571372 2.60735e-10 0)
(-0.568372 -2.766e-10 0)
(-0.565342 -4.78048e-10 0)
(-0.562285 -1.77974e-10 0)
(-0.559203 1.23215e-10 0)
(-0.556099 7.39551e-11 0)
(-0.552975 -7.09424e-11 0)
(-0.549833 -5.93256e-11 0)
(-0.546676 1.26967e-11 0)
(-0.543506 5.85535e-11 0)
(-0.540325 2.42106e-11 0)
(-0.537102 -7.64932e-11 0)
(-0.533806 -5.15732e-11 0)
(-0.530437 1.01315e-10 0)
(-0.526995 8.3082e-11 0)
(-0.523482 -1.04709e-10 0)
(-0.519897 -8.52321e-11 0)
(-0.516242 1.39658e-10 0)
(-0.512518 5.10239e-11 0)
(-0.508727 -1.184e-10 0)
(-0.504871 1.92498e-11 0)
(-0.500953 8.44858e-11 0)
(-0.496975 -4.44057e-11 0)
(-0.492941 -1.63747e-11 0)
(-0.488856 6.43481e-11 0)
(-0.484725 -1.3687e-11 0)
(-0.480555 -3.90823e-11 0)
(-0.476352 5.18236e-11 0)
(-0.472128 2.38508e-11 0)
(-0.467892 -4.44484e-11 0)
(-0.463659 2.41172e-11 0)
(-0.459446 2.30498e-11 0)
(-0.455276 -1.45341e-11 0)
(-0.451175 1.79468e-11 0)
(-0.447181 1.13351e-12 0)
(-0.443344 -3.32029e-11 0)
(-0.439737 1.69678e-10 0)
(-0.436475 -3.72123e-10 0)
(-0.43375 6.73489e-10 0)
(-0.432477 -9.89117e-10 0)
(-0.432319 1.33411e-09 0)
(-0.432294 -1.65121e-09 0)
(-0.432274 1.97827e-09 0)
(-0.432257 -2.27699e-09 0)
(-0.432242 2.59838e-09 0)
(-0.432229 -2.9083e-09 0)
(-0.432218 3.24462e-09 0)
(-0.432209 -3.56285e-09 0)
(-0.4322 3.88524e-09 0)
(-0.432193 -4.10007e-09 0)
(-0.432188 4.40181e-09 0)
(-0.432182 -4.69523e-09 0)
(-0.432178 5.01588e-09 0)
(-0.432174 -5.33191e-09 0)
(-0.432171 5.67485e-09 0)
(-0.432168 -6.01437e-09 0)
(-0.432166 6.38037e-09 0)
(-0.432165 -6.74419e-09 0)
(-0.432163 7.13401e-09 0)
(-0.432162 -7.52289e-09 0)
(-0.432161 7.93725e-09 0)
(-0.43216 -8.35193e-09 0)
(-0.432159 8.79151e-09 0)
(-0.432159 -9.23271e-09 0)
(-0.432159 9.69818e-09 0)
(-0.432158 -1.01666e-08 0)
(-0.432158 1.06586e-08 0)
(-0.432158 -1.1155e-08 0)
(-0.432158 1.16742e-08 0)
(-0.432157 -1.21991e-08 0)
(-0.432157 1.27462e-08 0)
(-0.432157 -1.33004e-08 0)
(-0.432157 1.3876e-08 0)
(-0.432157 -1.446e-08 0)
(-0.432157 1.50648e-08 0)
(-0.432157 -1.56792e-08 0)
(-0.432157 1.6314e-08 0)
(-0.432157 -1.69593e-08 0)
(-0.432157 1.76249e-08 0)
(-0.432157 -1.83018e-08 0)
(-0.432157 1.89987e-08 0)
(-0.432157 -1.97077e-08 0)
(-0.432157 2.04366e-08 0)
(-0.432157 -2.11784e-08 0)
(-0.432157 2.194e-08 0)
(-0.432157 -2.27151e-08 0)
(-0.432157 2.351e-08 0)
(-0.432157 -2.4319e-08 0)
(-0.432157 2.51479e-08 0)
(-0.432157 -2.59914e-08 0)
(-0.432157 2.68548e-08 0)
(-0.432157 -2.77334e-08 0)
(-0.432157 2.8632e-08 0)
(-0.432157 -2.95463e-08 0)
(-0.432157 3.04806e-08 0)
(-0.432157 -3.14311e-08 0)
(-0.432157 3.24017e-08 0)
(-0.432157 -3.33891e-08 0)
(-0.432157 3.43965e-08 0)
(-0.432157 -3.54212e-08 0)
(-0.432157 3.64659e-08 0)
(-0.432157 -3.75285e-08 0)
(-0.432157 3.8611e-08 0)
(-0.432157 -3.97119e-08 0)
(-0.432157 4.08327e-08 0)
(-0.432157 -4.19722e-08 0)
(-0.432157 4.31316e-08 0)
(-0.432157 -4.43102e-08 0)
(-0.432157 4.55085e-08 0)
(-0.432157 -4.67262e-08 0)
(-0.432157 4.79636e-08 0)
(-0.432157 -4.92205e-08 0)
(-0.432157 5.04971e-08 0)
(-0.432157 -5.1793e-08 0)
(-0.432157 5.31085e-08 0)
(-0.432157 -5.44432e-08 0)
(-0.432157 5.5797e-08 0)
(-0.432157 -5.71697e-08 0)
(-0.432157 5.85609e-08 0)
(-0.432157 -5.99703e-08 0)
(-0.432157 5.38767e-08 0)
(-0.432157 -5.40762e-08 0)
(-0.432157 5.42671e-08 0)
(-0.432157 -5.44493e-08 0)
(-0.432157 5.46225e-08 0)
(-0.432157 -5.47867e-08 0)
(-0.432157 5.49412e-08 0)
(-0.432157 -5.5086e-08 0)
(-0.432157 5.52205e-08 0)
(-0.432157 -5.53446e-08 0)
(-0.432157 5.54574e-08 0)
(-0.432157 -5.55586e-08 0)
(-0.432157 5.56469e-08 0)
(-0.432157 -5.57219e-08 0)
(-0.432157 5.57811e-08 0)
(-0.432157 -5.58218e-08 0)
(-0.432157 5.58172e-08 0)
(-0.432157 -5.57857e-08 0)
(-0.432157 5.57426e-08 0)
(-0.432157 -5.56928e-08 0)
(-0.432157 5.56361e-08 0)
(-0.432157 -5.55764e-08 0)
(-0.432157 5.55114e-08 0)
(-0.432157 -5.54455e-08 0)
(-0.432157 5.53748e-08 0)
(-0.432157 -5.53049e-08 0)
(-0.432157 5.52304e-08 0)
(-0.432157 -5.51581e-08 0)
(-0.432157 5.50812e-08 0)
(-0.432157 -5.50077e-08 0)
(-0.432157 5.49299e-08 0)
(-0.432157 -5.48561e-08 0)
(-0.432157 5.47784e-08 0)
(-0.432157 -5.47051e-08 0)
(-0.432157 5.46287e-08 0)
(-0.432157 -5.4557e-08 0)
(-0.432157 5.44825e-08 0)
(-0.432157 -5.44131e-08 0)
(-0.432157 5.43418e-08 0)
(-0.432157 -5.42753e-08 0)
(-0.432157 5.42085e-08 0)
(-0.432157 -5.41455e-08 0)
(-0.432157 5.40847e-08 0)
(-0.432157 -5.40258e-08 0)
(-0.432157 5.39723e-08 0)
(-0.432157 -5.39184e-08 0)
(-0.432157 5.3874e-08 0)
(-0.432157 -5.38266e-08 0)
(-0.432157 5.3793e-08 0)
(-0.432157 -5.376e-08 0)
)
;

boundaryField
{
    inandouthalf11
    {
        type            cyclic;
    }
    inandouthalf12
    {
        type            cyclic;
    }
    inandouthalf21
    {
        type            cyclic;
    }
    inandouthalf22
    {
        type            cyclic;
    }
    inandouthalf31
    {
        type            cyclic;
    }
    inandouthalf32
    {
        type            cyclic;
    }
    inandouthalf41
    {
        type            cyclic;
    }
    inandouthalf42
    {
        type            cyclic;
    }
    top
    {
        type            symmetryPlane;
    }
    walls
    {
        type            calculated;
        value           uniform (0 0 0);
    }
    frontAndBackPlanes
    {
        type            empty;
    }
}


// ************************************************************************* //
