/*--------------------------------*- C++ -*----------------------------------*\
| =========                 |                                                 |
| \\      /  F ield         | OpenFOAM: The Open Source CFD Toolbox           |
|  \\    /   O peration     | Version:  2.4.x                                 |
|   \\  /    A nd           | Web:      www.OpenFOAM.org                      |
|    \\/     M anipulation  |                                                 |
\*---------------------------------------------------------------------------*/
FoamFile
{
    version     2.0;
    format      ascii;
    class       volVectorField;
    location    "3.6";
    object      Ub_0;
}
// * * * * * * * * * * * * * * * * * * * * * * * * * * * * * * * * * * * * * //

dimensions      [0 1 -1 0 0 0 0];

internalField   nonuniform List<vector> 
360
(
(-0.000187165 1.31439e-07 0)
(-0.000186892 5.69569e-07 0)
(-0.000186747 1.17393e-06 0)
(-0.000186871 1.74214e-06 0)
(-0.000187029 2.27256e-06 0)
(-0.000187175 2.79677e-06 0)
(-0.00018732 3.33566e-06 0)
(-0.000187466 3.89413e-06 0)
(-0.000187607 4.4668e-06 0)
(-0.000187748 5.04589e-06 0)
(-0.000187892 5.62645e-06 0)
(-0.000188037 6.20633e-06 0)
(-0.000188183 6.78476e-06 0)
(-0.000188326 7.36127e-06 0)
(-0.000188469 7.93631e-06 0)
(-0.00018861 8.51333e-06 0)
(-0.000188754 9.10057e-06 0)
(-0.000188903 9.71238e-06 0)
(-0.000189062 1.037e-05 0)
(-0.000189239 1.11013e-05 0)
(-0.000189439 1.19352e-05 0)
(-0.000189668 1.28881e-05 0)
(-0.00018992 1.39347e-05 0)
(-0.000190173 1.49807e-05 0)
(-0.000190388 1.588e-05 0)
(-0.000190537 1.65156e-05 0)
(-0.000190617 1.68761e-05 0)
(-0.000190655 1.70418e-05 0)
(-0.000190672 1.71067e-05 0)
(-0.000190681 1.71307e-05 0)
(-0.000190686 1.71402e-05 0)
(-0.000190693 1.7145e-05 0)
(-0.000190698 1.71478e-05 0)
(-0.000190705 1.71503e-05 0)
(-0.000190711 1.71527e-05 0)
(-0.000190719 1.71554e-05 0)
(-0.000190727 1.71585e-05 0)
(-0.000190736 1.7162e-05 0)
(-0.000190747 1.71659e-05 0)
(-0.000190757 1.71699e-05 0)
(-0.00019077 1.71741e-05 0)
(-0.000190782 1.71783e-05 0)
(-0.000190795 1.71823e-05 0)
(-0.00019081 1.71863e-05 0)
(-0.000190825 1.719e-05 0)
(-0.000190842 1.71937e-05 0)
(-0.00019086 1.71974e-05 0)
(-0.000190877 1.7201e-05 0)
(-0.000190898 1.72046e-05 0)
(-0.000190921 1.72082e-05 0)
(-0.000190944 1.72118e-05 0)
(-0.000190969 1.72156e-05 0)
(-0.000190996 1.72193e-05 0)
(-0.000191024 1.72231e-05 0)
(-0.000191054 1.72269e-05 0)
(-0.000191087 1.72309e-05 0)
(-0.000191121 1.72349e-05 0)
(-0.000191158 1.7239e-05 0)
(-0.000191197 1.72432e-05 0)
(-0.000191236 1.72475e-05 0)
(-0.000191279 1.72519e-05 0)
(-0.000191322 1.72564e-05 0)
(-0.000191368 1.7261e-05 0)
(-0.000191415 1.72656e-05 0)
(-0.000191462 1.72704e-05 0)
(-0.000191511 1.72751e-05 0)
(-0.000191561 1.72799e-05 0)
(-0.000191613 1.72847e-05 0)
(-0.000191667 1.72895e-05 0)
(-0.000191723 1.72944e-05 0)
(-0.000191781 1.72994e-05 0)
(-0.000191842 1.73046e-05 0)
(-0.000191904 1.73099e-05 0)
(-0.000191969 1.73155e-05 0)
(-0.000192035 1.73213e-05 0)
(-0.000192103 1.73273e-05 0)
(-0.000192172 1.73336e-05 0)
(-0.000192243 1.734e-05 0)
(-0.000192315 1.73466e-05 0)
(-0.000192389 1.73534e-05 0)
(-0.000192465 1.73603e-05 0)
(-0.000192544 1.73672e-05 0)
(-0.000192624 1.73743e-05 0)
(-0.000192706 1.73816e-05 0)
(-0.000192791 1.73889e-05 0)
(-0.000192877 1.73965e-05 0)
(-0.000192966 1.74041e-05 0)
(-0.000193057 1.7412e-05 0)
(-0.000193149 1.742e-05 0)
(-0.000193244 1.74281e-05 0)
(-0.00019334 1.74364e-05 0)
(-0.000193439 1.74447e-05 0)
(-0.00019354 1.74531e-05 0)
(-0.000193643 1.74615e-05 0)
(-0.000193749 1.747e-05 0)
(-0.000193858 1.74785e-05 0)
(-0.000193969 1.7487e-05 0)
(-0.000194082 1.74955e-05 0)
(-0.000194198 1.75041e-05 0)
(-0.000194317 1.75126e-05 0)
(-0.000194438 1.75212e-05 0)
(-0.000194563 1.75297e-05 0)
(-0.00019469 1.75382e-05 0)
(-0.000194821 1.75466e-05 0)
(-0.000194954 1.75549e-05 0)
(-0.000195091 1.75631e-05 0)
(-0.000195232 1.75711e-05 0)
(-0.000195376 1.75791e-05 0)
(-0.000195523 1.75868e-05 0)
(-0.000195675 1.75944e-05 0)
(-0.00019583 1.76018e-05 0)
(-0.00019599 1.7609e-05 0)
(-0.000196154 1.76159e-05 0)
(-0.000196323 1.76226e-05 0)
(-0.000196496 1.7629e-05 0)
(-0.000196675 1.76353e-05 0)
(-0.000196858 1.76413e-05 0)
(-0.000197048 1.7647e-05 0)
(-0.000197243 1.76526e-05 0)
(-0.000197444 1.76581e-05 0)
(-0.000197652 1.76633e-05 0)
(-0.000197866 1.76684e-05 0)
(-0.000198088 1.76734e-05 0)
(-0.000198317 1.76783e-05 0)
(-0.000198553 1.76829e-05 0)
(-0.000198798 1.76874e-05 0)
(-0.000199052 1.76915e-05 0)
(-0.000199316 1.76952e-05 0)
(-0.000199589 1.76983e-05 0)
(-0.000199874 1.77007e-05 0)
(-0.00020017 1.77021e-05 0)
(-0.000200478 1.77024e-05 0)
(-0.000200799 1.77014e-05 0)
(-0.000201136 1.76988e-05 0)
(-0.000201494 1.76947e-05 0)
(-0.000201873 1.76889e-05 0)
(-0.00020227 1.76812e-05 0)
(-0.000202691 1.76711e-05 0)
(-0.000203156 1.76579e-05 0)
(-0.000203688 1.76422e-05 0)
(-0.000204266 1.76249e-05 0)
(-0.000204814 1.76005e-05 0)
(-0.000205463 1.75714e-05 0)
(-0.000206305 1.75361e-05 0)
(-0.000207338 1.74767e-05 0)
(-0.000209058 1.73229e-05 0)
(-0.0002141 1.73887e-05 0)
(-0.000214307 1.67501e-05 0)
(-0.000427671 2.18765e-05 0)
(-0.0693012 -0.000102083 0)
(-0.204835 -0.000563927 0)
(-0.299566 -0.000336322 0)
(-0.372107 -0.000320323 0)
(-0.429736 -0.000240531 0)
(-0.476323 -0.000169578 0)
(-0.5141 -0.000111526 0)
(-0.544372 -6.75123e-05 0)
(-0.567957 -3.65752e-05 0)
(-0.585581 -1.67608e-05 0)
(-0.598157 -5.56797e-06 0)
(-0.606787 -4.09779e-08 0)
(-0.612547 2.51859e-06 0)
(-0.616305 3.71921e-06 0)
(-0.618675 4.25881e-06 0)
(-0.62007 4.44585e-06 0)
(-0.620756 4.433e-06 0)
(-0.620911 4.30478e-06 0)
(-0.620652 4.11049e-06 0)
(-0.620059 3.87978e-06 0)
(-0.61919 3.63097e-06 0)
(-0.618086 3.37567e-06 0)
(-0.616778 3.12137e-06 0)
(-0.615293 2.8729e-06 0)
(-0.613648 2.63335e-06 0)
(-0.611859 2.40456e-06 0)
(-0.609942 2.18754e-06 0)
(-0.607906 1.98269e-06 0)
(-0.605762 1.78993e-06 0)
(-0.60352 1.60887e-06 0)
(-0.601186 1.43889e-06 0)
(-0.598769 1.27919e-06 0)
(-0.596274 1.12892e-06 0)
(-0.593709 9.87233e-07 0)
(-0.591077 8.53444e-07 0)
(-0.588385 7.27248e-07 0)
(-0.585637 6.09037e-07 0)
(-0.582837 5.00246e-07 0)
(-0.57999 4.03469e-07 0)
(-0.577099 3.21889e-07 0)
(-0.574169 2.57758e-07 0)
(-0.571202 2.10594e-07 0)
(-0.568202 1.76682e-07 0)
(-0.565171 1.50907e-07 0)
(-0.562113 1.29544e-07 0)
(-0.55903 1.11319e-07 0)
(-0.555925 9.61207e-08 0)
(-0.5528 8.3543e-08 0)
(-0.549658 7.28633e-08 0)
(-0.5465 6.36374e-08 0)
(-0.543329 5.57703e-08 0)
(-0.540147 4.91602e-08 0)
(-0.536924 4.3416e-08 0)
(-0.533627 3.81523e-08 0)
(-0.530257 3.33958e-08 0)
(-0.526815 2.93934e-08 0)
(-0.523301 2.60223e-08 0)
(-0.519715 2.28515e-08 0)
(-0.51606 1.98593e-08 0)
(-0.512335 1.73686e-08 0)
(-0.508544 1.53019e-08 0)
(-0.504687 1.33539e-08 0)
(-0.500768 1.15802e-08 0)
(-0.496789 1.00975e-08 0)
(-0.492755 8.78429e-09 0)
(-0.48867 7.60651e-09 0)
(-0.484538 6.6238e-09 0)
(-0.480367 5.74278e-09 0)
(-0.476164 4.90903e-09 0)
(-0.471939 4.22406e-09 0)
(-0.467703 3.67137e-09 0)
(-0.463469 3.14232e-09 0)
(-0.459256 2.66198e-09 0)
(-0.455086 2.26865e-09 0)
(-0.450985 1.92887e-09 0)
(-0.446991 1.63267e-09 0)
(-0.443155 1.35755e-09 0)
(-0.439548 1.30286e-09 0)
(-0.436288 5.93005e-10 0)
(-0.433566 1.49381e-09 0)
(-0.4323 -3.4016e-10 0)
(-0.432144 1.88469e-09 0)
(-0.432118 -1.20494e-09 0)
(-0.432099 2.32106e-09 0)
(-0.432082 -1.98092e-09 0)
(-0.432067 2.87757e-09 0)
(-0.432054 -2.64213e-09 0)
(-0.432043 3.48918e-09 0)
(-0.432033 -3.38655e-09 0)
(-0.432025 3.94733e-09 0)
(-0.432018 -4.08844e-09 0)
(-0.432012 4.40317e-09 0)
(-0.432007 -4.69658e-09 0)
(-0.432003 5.01727e-09 0)
(-0.431999 -5.33334e-09 0)
(-0.431996 5.6763e-09 0)
(-0.431993 -6.01587e-09 0)
(-0.431991 6.3819e-09 0)
(-0.431989 -6.74577e-09 0)
(-0.431988 7.13562e-09 0)
(-0.431987 -7.52455e-09 0)
(-0.431986 7.93893e-09 0)
(-0.431985 -8.35367e-09 0)
(-0.431984 8.79327e-09 0)
(-0.431984 -9.23453e-09 0)
(-0.431983 9.70003e-09 0)
(-0.431983 -1.01685e-08 0)
(-0.431983 1.06606e-08 0)
(-0.431983 -1.1157e-08 0)
(-0.431982 1.16762e-08 0)
(-0.431982 -1.22012e-08 0)
(-0.431982 1.27484e-08 0)
(-0.431982 -1.33026e-08 0)
(-0.431982 1.38782e-08 0)
(-0.431982 -1.44623e-08 0)
(-0.431982 1.50671e-08 0)
(-0.431982 -1.56816e-08 0)
(-0.431982 1.63165e-08 0)
(-0.431982 -1.69619e-08 0)
(-0.431982 1.76274e-08 0)
(-0.431982 -1.83044e-08 0)
(-0.431982 1.90014e-08 0)
(-0.431982 -1.97105e-08 0)
(-0.431982 2.04395e-08 0)
(-0.431982 -2.11813e-08 0)
(-0.431982 2.1943e-08 0)
(-0.431982 -2.27181e-08 0)
(-0.431982 2.35131e-08 0)
(-0.431982 -2.43222e-08 0)
(-0.431982 2.51512e-08 0)
(-0.431982 -2.59947e-08 0)
(-0.431982 2.68582e-08 0)
(-0.431982 -2.77369e-08 0)
(-0.431982 2.86355e-08 0)
(-0.431982 -2.95499e-08 0)
(-0.431982 3.04843e-08 0)
(-0.431982 -3.14349e-08 0)
(-0.431982 3.24055e-08 0)
(-0.431982 -3.3393e-08 0)
(-0.431982 3.44005e-08 0)
(-0.431982 -3.54253e-08 0)
(-0.431982 3.64701e-08 0)
(-0.431982 -3.75328e-08 0)
(-0.431982 3.86154e-08 0)
(-0.431982 -3.97164e-08 0)
(-0.431982 4.08372e-08 0)
(-0.431982 -4.19769e-08 0)
(-0.431982 4.31364e-08 0)
(-0.431982 -4.4315e-08 0)
(-0.431982 4.55134e-08 0)
(-0.431982 -4.67312e-08 0)
(-0.431982 4.79687e-08 0)
(-0.431982 -4.92257e-08 0)
(-0.431982 5.05023e-08 0)
(-0.431982 -5.17984e-08 0)
(-0.431982 5.31139e-08 0)
(-0.431982 -5.44487e-08 0)
(-0.431982 5.58026e-08 0)
(-0.431982 -5.71754e-08 0)
(-0.431982 5.85667e-08 0)
(-0.431982 -5.99761e-08 0)
(-0.431982 5.3882e-08 0)
(-0.431982 -5.40813e-08 0)
(-0.431982 5.42723e-08 0)
(-0.431982 -5.44544e-08 0)
(-0.431982 5.46276e-08 0)
(-0.431982 -5.47916e-08 0)
(-0.431982 5.49462e-08 0)
(-0.431982 -5.50908e-08 0)
(-0.431982 5.52254e-08 0)
(-0.431982 -5.53492e-08 0)
(-0.431982 5.54621e-08 0)
(-0.431982 -5.5563e-08 0)
(-0.431982 5.56515e-08 0)
(-0.431982 -5.57261e-08 0)
(-0.431982 5.57854e-08 0)
(-0.431982 -5.58257e-08 0)
(-0.431982 5.58209e-08 0)
(-0.431982 -5.57889e-08 0)
(-0.431982 5.57463e-08 0)
(-0.431982 -5.56955e-08 0)
(-0.431982 5.564e-08 0)
(-0.431982 -5.55787e-08 0)
(-0.431982 5.55155e-08 0)
(-0.431982 -5.54473e-08 0)
(-0.431982 5.53791e-08 0)
(-0.431982 -5.53063e-08 0)
(-0.431982 5.52349e-08 0)
(-0.431982 -5.51591e-08 0)
(-0.431982 5.5086e-08 0)
(-0.431982 -5.50085e-08 0)
(-0.431982 5.49347e-08 0)
(-0.431982 -5.48567e-08 0)
(-0.431982 5.47831e-08 0)
(-0.431982 -5.47059e-08 0)
(-0.431982 5.46332e-08 0)
(-0.431982 -5.45576e-08 0)
(-0.431982 5.44869e-08 0)
(-0.431982 -5.44139e-08 0)
(-0.431982 5.43459e-08 0)
(-0.431982 -5.42766e-08 0)
(-0.431982 5.42118e-08 0)
(-0.431982 -5.41478e-08 0)
(-0.431982 5.40867e-08 0)
(-0.431982 -5.40294e-08 0)
(-0.431982 5.39727e-08 0)
(-0.431982 -5.39235e-08 0)
(-0.431982 5.38726e-08 0)
(-0.431982 -5.38335e-08 0)
(-0.431982 5.37908e-08 0)
(-0.431982 -5.37646e-08 0)
)
;

boundaryField
{
    inandouthalf11
    {
        type            cyclic;
    }
    inandouthalf12
    {
        type            cyclic;
    }
    inandouthalf21
    {
        type            cyclic;
    }
    inandouthalf22
    {
        type            cyclic;
    }
    inandouthalf31
    {
        type            cyclic;
    }
    inandouthalf32
    {
        type            cyclic;
    }
    inandouthalf41
    {
        type            cyclic;
    }
    inandouthalf42
    {
        type            cyclic;
    }
    top
    {
        type            symmetryPlane;
    }
    walls
    {
        type            fixedValue;
        value           uniform (0 0 0);
    }
    frontAndBackPlanes
    {
        type            empty;
    }
}


// ************************************************************************* //
