/*--------------------------------*- C++ -*----------------------------------*\
| =========                 |                                                 |
| \\      /  F ield         | OpenFOAM: The Open Source CFD Toolbox           |
|  \\    /   O peration     | Version:  2.4.x                                 |
|   \\  /    A nd           | Web:      www.OpenFOAM.org                      |
|    \\/     M anipulation  |                                                 |
\*---------------------------------------------------------------------------*/
FoamFile
{
    version     2.0;
    format      ascii;
    class       volScalarField;
    location    "4.5";
    object      alpha;
}
// * * * * * * * * * * * * * * * * * * * * * * * * * * * * * * * * * * * * * //

dimensions      [0 0 0 0 0 0 0];

internalField   nonuniform List<scalar> 
360
(
0.610446
0.611036
0.611184
0.611136
0.611085
0.611056
0.61103
0.611004
0.61098
0.610954
0.610926
0.610899
0.610871
0.610843
0.610815
0.610787
0.610758
0.610729
0.6107
0.61067
0.61064
0.61061
0.610579
0.610548
0.610518
0.610488
0.610458
0.610429
0.610399
0.61037
0.610338
0.610304
0.610267
0.610222
0.610172
0.610116
0.610061
0.610016
0.609984
0.609967
0.609956
0.609947
0.60994
0.609931
0.609922
0.609912
0.609902
0.609891
0.609879
0.609866
0.609852
0.609837
0.609822
0.609804
0.609787
0.609767
0.609747
0.609725
0.609702
0.609679
0.609653
0.609627
0.6096
0.609572
0.609544
0.609515
0.609485
0.609454
0.609422
0.609389
0.609355
0.609318
0.609282
0.609243
0.609204
0.609164
0.609123
0.609082
0.609039
0.608995
0.608951
0.608905
0.608858
0.608809
0.60876
0.608709
0.608657
0.608604
0.60855
0.608495
0.608438
0.60838
0.608321
0.608261
0.608199
0.608136
0.608071
0.608005
0.607937
0.607868
0.607797
0.607724
0.607649
0.607573
0.607495
0.607415
0.607333
0.607248
0.607162
0.607073
0.606982
0.606888
0.606792
0.606693
0.606591
0.606486
0.606378
0.606267
0.606152
0.606034
0.605912
0.605786
0.605656
0.605522
0.605383
0.60524
0.605092
0.604938
0.604778
0.604611
0.604438
0.604258
0.60407
0.603872
0.603661
0.603439
0.603205
0.602958
0.602683
0.602369
0.602028
0.601704
0.601318
0.600818
0.600204
0.599158
0.595345
0.474964
0.299559
0.232775
0.194434
0.163344
0.136625
0.113315
0.0931236
0.0758986
0.0614501
0.0495135
0.0397708
0.0318884
0.0255475
0.0204638
0.0163944
0.0131381
0.0105312
0.00844233
0.00676681
0.0054213
0.0043397
0.00346953
0.00276891
0.00220393
0.00174673
0.00137496
0.00107238
0.000828794
0.000637523
0.000491944
0.000383899
0.000304592
0.00024615
0.000202438
0.000169054
0.000142947
0.000122022
0.000104823
9.03191e-05
7.77503e-05
6.65478e-05
5.63649e-05
4.72e-05
3.93416e-05
3.29989e-05
2.79872e-05
2.38857e-05
2.04164e-05
1.75036e-05
1.50811e-05
1.3039e-05
1.12847e-05
9.77991e-06
8.51489e-06
7.43898e-06
6.45729e-06
5.56626e-06
4.84284e-06
4.24753e-06
3.65969e-06
3.13302e-06
2.73253e-06
2.36681e-06
2.01691e-06
1.73991e-06
1.49829e-06
1.26905e-06
1.0907e-06
9.38977e-07
7.8284e-07
6.60945e-07
5.70313e-07
4.72501e-07
3.92278e-07
3.30006e-07
2.70048e-07
2.2476e-07
1.84191e-07
1.46343e-07
1.2159e-07
9.66081e-08
7.46451e-08
5.90265e-08
4.52033e-08
3.73319e-08
3.32437e-08
2.92006e-08
2.25212e-08
1.24989e-08
6.97504e-17
2.75321e-17
2.36392e-17
2.15066e-17
1.56597e-17
9.99325e-18
4.92588e-18
3.02283e-18
2.25019e-18
1.87755e-18
1.65631e-18
1.40961e-18
1.02065e-18
4.81789e-19
1.63376e-19
6.59014e-20
3.1647e-20
1.75821e-20
1.10018e-20
7.68427e-21
5.85828e-21
4.54316e-21
3.27155e-21
1.92968e-21
8.49686e-22
4.16621e-22
2.33534e-22
1.44344e-22
9.6934e-23
6.37637e-23
3.29569e-23
1.44738e-23
7.24585e-24
3.82045e-24
2.06736e-24
1.07753e-24
5.23913e-25
2.58933e-25
1.26105e-25
6.01261e-26
2.80318e-26
1.27671e-26
5.67496e-27
2.4593e-27
1.03791e-27
4.26082e-28
1.69928e-28
6.57488e-29
2.46448e-29
8.93493e-30
3.12784e-30
1.05529e-30
3.42445e-31
1.06641e-31
3.17909e-32
9.04757e-33
2.45065e-33
6.29583e-34
1.52811e-34
3.48858e-35
7.45254e-36
1.48086e-36
2.7177e-37
4.56737e-38
6.95632e-39
9.47699e-40
1.13559e-40
1.17008e-41
1.00413e-42
6.83638e-44
3.39692e-45
1.03061e-46
9.33401e-49
1.01994e-51
1.49659e-53
1.08979e-55
1.92792e-66
1.72654e-77
1.15611e-88
5.71869e-100
2.45423e-111
8.68388e-123
3.16581e-134
1.21811e-142
3.30472e-153
4.19837e-161
1.06194e-171
1.44431e-179
4.52319e-190
4.96787e-198
2.02435e-208
1.7102e-216
1.36045e-226
5.94662e-235
9.02934e-245
2.10033e-253
4.5405e-263
7.53089e-272
2.15103e-281
2.73991e-290
9.48534e-300
1.01293e-308
1.36549e-317
5.64717e-321
7.09478e-321
6.08689e-321
8.5424e-321
0
0
0
0
0
0
0
0
0
0
0
0
0
0
0
0
)
;

boundaryField
{
    inandouthalf11
    {
        type            cyclic;
    }
    inandouthalf12
    {
        type            cyclic;
    }
    inandouthalf21
    {
        type            cyclic;
    }
    inandouthalf22
    {
        type            cyclic;
    }
    inandouthalf31
    {
        type            cyclic;
    }
    inandouthalf32
    {
        type            cyclic;
    }
    inandouthalf41
    {
        type            cyclic;
    }
    inandouthalf42
    {
        type            cyclic;
    }
    top
    {
        type            symmetryPlane;
    }
    walls
    {
        type            zeroGradient;
    }
    frontAndBackPlanes
    {
        type            empty;
    }
}


// ************************************************************************* //
