/*--------------------------------*- C++ -*----------------------------------*\
| =========                 |                                                 |
| \\      /  F ield         | OpenFOAM: The Open Source CFD Toolbox           |
|  \\    /   O peration     | Version:  2.4.x                                 |
|   \\  /    A nd           | Web:      www.OpenFOAM.org                      |
|    \\/     M anipulation  |                                                 |
\*---------------------------------------------------------------------------*/
FoamFile
{
    version     2.0;
    format      ascii;
    class       volScalarField;
    location    "4.5";
    object      alpha_0;
}
// * * * * * * * * * * * * * * * * * * * * * * * * * * * * * * * * * * * * * //

dimensions      [0 0 0 0 0 0 0];

internalField   nonuniform List<scalar> 
360
(
0.610446
0.611036
0.611184
0.611136
0.611085
0.611056
0.61103
0.611004
0.610979
0.610954
0.610926
0.610899
0.610871
0.610843
0.610815
0.610787
0.610758
0.610729
0.6107
0.61067
0.61064
0.61061
0.610579
0.610548
0.610518
0.610488
0.610458
0.610429
0.610399
0.610369
0.610338
0.610304
0.610267
0.610222
0.610172
0.610116
0.610061
0.610016
0.609984
0.609967
0.609956
0.609947
0.60994
0.609931
0.609922
0.609912
0.609902
0.609891
0.609879
0.609866
0.609852
0.609837
0.609822
0.609804
0.609787
0.609767
0.609747
0.609725
0.609702
0.609679
0.609653
0.609627
0.6096
0.609572
0.609544
0.609515
0.609485
0.609454
0.609422
0.609389
0.609355
0.609318
0.609282
0.609243
0.609204
0.609164
0.609123
0.609082
0.609039
0.608995
0.608951
0.608905
0.608858
0.608809
0.60876
0.608709
0.608657
0.608604
0.60855
0.608495
0.608438
0.60838
0.608321
0.608261
0.608199
0.608136
0.608071
0.608005
0.607937
0.607868
0.607797
0.607724
0.607649
0.607573
0.607495
0.607415
0.607333
0.607248
0.607162
0.607073
0.606982
0.606888
0.606792
0.606693
0.606591
0.606486
0.606378
0.606267
0.606152
0.606034
0.605912
0.605786
0.605656
0.605522
0.605383
0.60524
0.605092
0.604938
0.604778
0.604611
0.604438
0.604258
0.60407
0.603872
0.603661
0.603439
0.603205
0.602958
0.602683
0.602369
0.602028
0.601704
0.601318
0.600818
0.600204
0.599158
0.595345
0.474977
0.299563
0.232776
0.194434
0.163344
0.136626
0.113316
0.0931239
0.0758987
0.06145
0.0495132
0.0397703
0.0318877
0.0255466
0.0204628
0.0163934
0.013137
0.0105301
0.00844125
0.00676577
0.00542031
0.00433877
0.00346867
0.00276812
0.00220321
0.00174607
0.00137436
0.00107184
0.000828327
0.000637141
0.000491648
0.000383679
0.000304431
0.000246033
0.000202353
0.00016899
0.000142898
0.000121984
0.000104793
9.02939e-05
7.77287e-05
6.65285e-05
5.63476e-05
4.71847e-05
3.93287e-05
3.29886e-05
2.79789e-05
2.38788e-05
2.04105e-05
1.74987e-05
1.50771e-05
1.30355e-05
1.12818e-05
9.77739e-06
8.5128e-06
7.43718e-06
6.45569e-06
5.56491e-06
4.84176e-06
4.24658e-06
3.65882e-06
3.13231e-06
2.73195e-06
2.36629e-06
2.01647e-06
1.73955e-06
1.49797e-06
1.26878e-06
1.09048e-06
9.38786e-07
7.82672e-07
6.60819e-07
5.70205e-07
4.72402e-07
3.92201e-07
3.29943e-07
2.69995e-07
2.24718e-07
1.84155e-07
1.46315e-07
1.21569e-07
9.65891e-08
7.46305e-08
5.90157e-08
4.51956e-08
3.73275e-08
3.32409e-08
2.91976e-08
2.25171e-08
1.24912e-08
6.97772e-17
2.75472e-17
2.36601e-17
2.15334e-17
1.56978e-17
1.00324e-17
4.94511e-18
3.03009e-18
2.25356e-18
1.87932e-18
1.65768e-18
1.41143e-18
1.02325e-18
4.84509e-19
1.64241e-19
6.61885e-20
3.17584e-20
1.7632e-20
1.10264e-20
7.69686e-21
5.86581e-21
4.54923e-21
3.27755e-21
1.93566e-21
8.52696e-22
4.17815e-22
2.34095e-22
1.44628e-22
9.70984e-23
6.38915e-23
3.30621e-23
1.4516e-23
7.26496e-24
3.83002e-24
2.07233e-24
1.08033e-24
5.25286e-25
2.5961e-25
1.26437e-25
6.02854e-26
2.81065e-26
1.28014e-26
5.69031e-27
2.466e-27
1.04076e-27
4.2726e-28
1.70401e-28
6.5933e-29
2.47143e-29
8.96033e-30
3.13679e-30
1.05833e-30
3.43439e-31
1.06953e-31
3.18845e-32
9.07439e-33
2.45796e-33
6.31476e-34
1.53274e-34
3.49922e-35
7.47543e-36
1.48545e-36
2.72617e-37
4.58171e-38
6.97832e-39
9.5072e-40
1.13924e-40
1.17387e-41
1.00741e-42
6.85891e-44
3.40823e-45
1.03408e-46
9.36626e-49
1.02369e-51
1.50215e-53
1.09389e-55
1.93505e-66
1.73281e-77
1.16024e-88
5.73874e-100
2.46269e-111
8.71332e-123
3.17657e-134
1.22269e-142
3.31696e-153
4.21417e-161
1.06588e-171
1.44974e-179
4.53997e-190
4.98656e-198
2.03187e-208
1.71664e-216
1.36551e-226
5.96898e-235
9.06299e-245
2.10822e-253
4.55742e-263
7.55918e-272
2.15904e-281
2.75019e-290
9.52069e-300
1.01673e-308
1.36548e-317
5.64717e-321
7.09478e-321
6.08689e-321
8.5424e-321
0
0
0
0
0
0
0
0
0
0
0
0
0
0
0
0
)
;

boundaryField
{
    inandouthalf11
    {
        type            cyclic;
    }
    inandouthalf12
    {
        type            cyclic;
    }
    inandouthalf21
    {
        type            cyclic;
    }
    inandouthalf22
    {
        type            cyclic;
    }
    inandouthalf31
    {
        type            cyclic;
    }
    inandouthalf32
    {
        type            cyclic;
    }
    inandouthalf41
    {
        type            cyclic;
    }
    inandouthalf42
    {
        type            cyclic;
    }
    top
    {
        type            symmetryPlane;
    }
    walls
    {
        type            zeroGradient;
    }
    frontAndBackPlanes
    {
        type            empty;
    }
}


// ************************************************************************* //
