/*--------------------------------*- C++ -*----------------------------------*\
| =========                 |                                                 |
| \\      /  F ield         | OpenFOAM: The Open Source CFD Toolbox           |
|  \\    /   O peration     | Version:  2.4.x                                 |
|   \\  /    A nd           | Web:      www.OpenFOAM.org                      |
|    \\/     M anipulation  |                                                 |
\*---------------------------------------------------------------------------*/
FoamFile
{
    version     2.0;
    format      ascii;
    class       volVectorField;
    location    "4.5";
    object      ddt0(Ub);
}
// * * * * * * * * * * * * * * * * * * * * * * * * * * * * * * * * * * * * * //

dimensions      [0 1 -2 0 0 0 0];

internalField   nonuniform List<vector> 
360
(
(0.000106515 -3.36045e-08 0)
(0.000106228 -1.59041e-07 0)
(0.00010613 -3.39684e-07 0)
(0.000106202 -5.07638e-07 0)
(0.000106278 -6.60855e-07 0)
(0.000106338 -8.10418e-07 0)
(0.000106395 -9.64283e-07 0)
(0.000106452 -1.12388e-06 0)
(0.000106509 -1.28683e-06 0)
(0.000106567 -1.45084e-06 0)
(0.000106625 -1.61561e-06 0)
(0.000106685 -1.78243e-06 0)
(0.000106746 -1.95325e-06 0)
(0.000106807 -2.12993e-06 0)
(0.00010687 -2.31391e-06 0)
(0.000106934 -2.50632e-06 0)
(0.000107 -2.7076e-06 0)
(0.000107067 -2.91701e-06 0)
(0.000107136 -3.13173e-06 0)
(0.000107206 -3.34643e-06 0)
(0.000107273 -3.5528e-06 0)
(0.000107338 -3.74056e-06 0)
(0.000107397 -3.8995e-06 0)
(0.000107449 -4.0226e-06 0)
(0.000107494 -4.11039e-06 0)
(0.000107534 -4.17488e-06 0)
(0.000107573 -4.24218e-06 0)
(0.00010762 -4.35322e-06 0)
(0.000107684 -4.56289e-06 0)
(0.000107779 -4.93987e-06 0)
(0.000107922 -5.56663e-06 0)
(0.000108131 -6.53419e-06 0)
(0.000108421 -7.90618e-06 0)
(0.00010879 -9.61232e-06 0)
(0.000109162 -1.12388e-05 0)
(0.000109357 -1.19063e-05 0)
(0.000109147 -1.07011e-05 0)
(0.000108523 -7.68466e-06 0)
(0.000107816 -4.21584e-06 0)
(0.000107354 -1.72183e-06 0)
(0.000107165 -5.14574e-07 0)
(0.000107114 -9.8968e-08 0)
(0.000107106 1.11394e-08 0)
(0.000107111 3.66097e-08 0)
(0.000107118 4.24828e-08 0)
(0.000107127 4.38553e-08 0)
(0.000107136 4.40258e-08 0)
(0.000107145 4.37516e-08 0)
(0.000107156 4.32123e-08 0)
(0.000107169 4.2453e-08 0)
(0.000107181 4.15105e-08 0)
(0.000107195 4.04323e-08 0)
(0.000107209 3.9303e-08 0)
(0.000107225 3.81931e-08 0)
(0.000107241 3.71369e-08 0)
(0.000107259 3.61508e-08 0)
(0.000107278 3.5223e-08 0)
(0.000107298 3.43388e-08 0)
(0.000107319 3.34725e-08 0)
(0.00010734 3.2606e-08 0)
(0.000107364 3.17144e-08 0)
(0.000107387 3.07874e-08 0)
(0.000107412 2.98278e-08 0)
(0.000107437 2.8825e-08 0)
(0.000107463 2.77845e-08 0)
(0.000107489 2.67109e-08 0)
(0.000107517 2.56124e-08 0)
(0.000107545 2.44904e-08 0)
(0.000107575 2.33355e-08 0)
(0.000107605 2.21522e-08 0)
(0.000107637 2.0941e-08 0)
(0.00010767 1.96959e-08 0)
(0.000107703 1.84137e-08 0)
(0.000107738 1.70866e-08 0)
(0.000107774 1.57129e-08 0)
(0.000107811 1.43009e-08 0)
(0.000107849 1.28456e-08 0)
(0.000107887 1.13526e-08 0)
(0.000107926 9.83209e-09 0)
(0.000107966 8.2819e-09 0)
(0.000108007 6.70656e-09 0)
(0.00010805 5.10343e-09 0)
(0.000108093 3.46614e-09 0)
(0.000108138 1.79303e-09 0)
(0.000108184 8.71654e-11 0)
(0.00010823 -1.65774e-09 0)
(0.000108278 -3.44302e-09 0)
(0.000108327 -5.26609e-09 0)
(0.000108377 -7.12654e-09 0)
(0.000108428 -9.01844e-09 0)
(0.000108481 -1.09418e-08 0)
(0.000108534 -1.28928e-08 0)
(0.000108589 -1.48692e-08 0)
(0.000108645 -1.68678e-08 0)
(0.000108702 -1.88867e-08 0)
(0.00010876 -2.09279e-08 0)
(0.00010882 -2.29874e-08 0)
(0.000108882 -2.50692e-08 0)
(0.000108945 -2.71742e-08 0)
(0.000109009 -2.92926e-08 0)
(0.000109075 -3.14228e-08 0)
(0.000109143 -3.35621e-08 0)
(0.000109212 -3.57092e-08 0)
(0.000109283 -3.78675e-08 0)
(0.000109356 -4.00297e-08 0)
(0.00010943 -4.21949e-08 0)
(0.000109507 -4.43659e-08 0)
(0.000109585 -4.65319e-08 0)
(0.000109666 -4.86942e-08 0)
(0.000109748 -5.08525e-08 0)
(0.000109833 -5.29964e-08 0)
(0.000109921 -5.51317e-08 0)
(0.000110011 -5.72587e-08 0)
(0.000110103 -5.93659e-08 0)
(0.000110198 -6.14584e-08 0)
(0.000110296 -6.35434e-08 0)
(0.000110397 -6.56093e-08 0)
(0.000110501 -6.76579e-08 0)
(0.000110609 -6.96943e-08 0)
(0.000110719 -7.17225e-08 0)
(0.000110834 -7.3742e-08 0)
(0.000110952 -7.57508e-08 0)
(0.000111074 -7.77477e-08 0)
(0.0001112 -7.97345e-08 0)
(0.00011133 -8.17114e-08 0)
(0.000111465 -8.36642e-08 0)
(0.000111605 -8.55847e-08 0)
(0.00011175 -8.74584e-08 0)
(0.000111901 -8.92738e-08 0)
(0.000112058 -9.10138e-08 0)
(0.000112222 -9.2656e-08 0)
(0.000112393 -9.41825e-08 0)
(0.000112571 -9.55835e-08 0)
(0.000112758 -9.68477e-08 0)
(0.000112958 -9.79719e-08 0)
(0.000113169 -9.89692e-08 0)
(0.000113391 -9.98508e-08 0)
(0.000113627 -1.00617e-07 0)
(0.000113888 -1.01254e-07 0)
(0.000114188 -1.01755e-07 0)
(0.000114514 -1.02166e-07 0)
(0.000114825 -1.02411e-07 0)
(0.000115195 -1.02486e-07 0)
(0.000115676 -1.02231e-07 0)
(0.000116268 -1.05276e-07 0)
(0.000117234 3.32139e-07 0)
(8.57255e-05 -2.80183e-05 0)
(-0.0107241 0.000173346 0)
(-0.0150835 0.00110726 0)
(0.000740695 0.000883008 0)
(0.0142032 0.000816827 0)
(0.0263191 0.000726941 0)
(0.0375689 0.000644996 0)
(0.0481353 0.000567483 0)
(0.0580851 0.000495103 0)
(0.0674287 0.000428822 0)
(0.076155 0.000369056 0)
(0.0842487 0.000315727 0)
(0.0916952 0.000268451 0)
(0.0984826 0.000226696 0)
(0.104601 0.00018991 0)
(0.110042 0.000157583 0)
(0.114797 0.000129266 0)
(0.118856 0.00010457 0)
(0.122202 8.31554e-05 0)
(0.124818 6.47179e-05 0)
(0.126678 4.8979e-05 0)
(0.127749 3.5681e-05 0)
(0.127992 2.45877e-05 0)
(0.127355 1.54705e-05 0)
(0.125782 8.06414e-06 0)
(0.123208 2.03509e-06 0)
(0.119559 -2.93426e-06 0)
(0.114763 -6.92693e-06 0)
(0.108751 -9.67002e-06 0)
(0.101474 -1.07926e-05 0)
(0.0929222 -1.02963e-05 0)
(0.0831383 -8.71268e-06 0)
(0.0722343 -6.77798e-06 0)
(0.0603951 -5.02327e-06 0)
(0.0478759 -3.65294e-06 0)
(0.0349884 -2.65696e-06 0)
(0.0220742 -1.95121e-06 0)
(0.00946811 -1.45313e-06 0)
(-0.00253923 -1.10124e-06 0)
(-0.0137304 -8.53435e-07 0)
(-0.0239743 -6.81554e-07 0)
(-0.0332228 -5.66005e-07 0)
(-0.041495 -4.89763e-07 0)
(-0.0488566 -4.33987e-07 0)
(-0.0553999 -3.80492e-07 0)
(-0.061227 -3.20754e-07 0)
(-0.0664385 -2.60252e-07 0)
(-0.071128 -2.097e-07 0)
(-0.0753779 -1.72844e-07 0)
(-0.0792591 -1.45302e-07 0)
(-0.082831 -1.22353e-07 0)
(-0.0861428 -1.03018e-07 0)
(-0.0892346 -8.75252e-08 0)
(-0.092139 -7.4827e-08 0)
(-0.0948828 -6.35439e-08 0)
(-0.0975137 -5.3699e-08 0)
(-0.10007 -4.61718e-08 0)
(-0.102562 -4.03071e-08 0)
(-0.104996 -3.43699e-08 0)
(-0.10738 -2.8656e-08 0)
(-0.109718 -2.46949e-08 0)
(-0.112016 -2.18541e-08 0)
(-0.114276 -1.86293e-08 0)
(-0.116502 -1.55691e-08 0)
(-0.118696 -1.34666e-08 0)
(-0.12086 -1.16783e-08 0)
(-0.122996 -9.8995e-09 0)
(-0.125106 -8.45075e-09 0)
(-0.12719 -7.18711e-09 0)
(-0.129249 -6.0431e-09 0)
(-0.131284 -5.21887e-09 0)
(-0.133294 -4.49159e-09 0)
(-0.135281 -3.70217e-09 0)
(-0.137244 -3.10364e-09 0)
(-0.139181 -2.68404e-09 0)
(-0.141092 -2.25093e-09 0)
(-0.142975 -1.84818e-09 0)
(-0.144828 -1.52286e-09 0)
(-0.146649 -1.25546e-09 0)
(-0.148433 -1.03647e-09 0)
(-0.150176 -8.3431e-10 0)
(-0.151873 -6.6219e-10 0)
(-0.153515 -5.35727e-10 0)
(-0.155095 -4.23761e-10 0)
(-0.156602 -3.19358e-10 0)
(-0.158021 -2.32742e-10 0)
(-0.159335 -1.6903e-10 0)
(-0.160523 -1.3427e-10 0)
(-0.161554 -5.46115e-11 0)
(-0.16239 -2.15035e-10 0)
(-0.162981 -3.29703e-11 0)
(-0.163252 2.15654e-10 0)
(-0.163092 -4.39068e-10 0)
(-0.162322 7.2754e-10 0)
(-0.160666 -1.08769e-09 0)
(-0.157774 1.41156e-09 0)
(-0.148118 -1.71634e-09 0)
(-0.137537 1.93554e-09 0)
(-0.136319 -2.15144e-09 0)
(-0.136295 2.32768e-09 0)
(-0.136295 -2.51353e-09 0)
(-0.136295 2.66636e-09 0)
(-0.136295 -2.81684e-09 0)
(-0.136295 2.93416e-09 0)
(-0.136295 -3.06486e-09 0)
(-0.136295 3.15993e-09 0)
(-0.136295 -3.28928e-09 0)
(-0.136295 3.38394e-09 0)
(-0.136295 -3.51958e-09 0)
(-0.136295 3.62099e-09 0)
(-0.136295 -3.76592e-09 0)
(-0.136295 3.87743e-09 0)
(-0.136295 -4.03183e-09 0)
(-0.136295 4.1543e-09 0)
(-0.136295 -4.31869e-09 0)
(-0.136295 4.44914e-09 0)
(-0.136295 -4.62438e-09 0)
(-0.136295 4.76588e-09 0)
(-0.136295 -4.94796e-09 0)
(-0.136295 5.09918e-09 0)
(-0.136295 -5.29486e-09 0)
(-0.136295 5.44976e-09 0)
(-0.136295 -5.65994e-09 0)
(-0.136295 5.82225e-09 0)
(-0.136295 -6.03935e-09 0)
(-0.136295 6.21658e-09 0)
(-0.136295 -6.43854e-09 0)
(-0.136295 6.62755e-09 0)
(-0.136295 -6.8572e-09 0)
(-0.136295 7.05789e-09 0)
(-0.136295 -7.29443e-09 0)
(-0.136295 7.50596e-09 0)
(-0.136295 -7.75261e-09 0)
(-0.136295 7.97137e-09 0)
(-0.136295 -8.22956e-09 0)
(-0.136295 8.45651e-09 0)
(-0.136295 -8.72426e-09 0)
(-0.136295 8.96266e-09 0)
(-0.136295 -9.23772e-09 0)
(-0.136295 9.48635e-09 0)
(-0.136295 -9.77307e-09 0)
(-0.136295 1.00296e-08 0)
(-0.136295 -1.03238e-08 0)
(-0.136295 1.05929e-08 0)
(-0.136295 -1.08979e-08 0)
(-0.136295 1.11743e-08 0)
(-0.136295 -1.14903e-08 0)
(-0.136295 1.17758e-08 0)
(-0.136295 -1.21025e-08 0)
(-0.136295 1.23991e-08 0)
(-0.136295 -1.27305e-08 0)
(-0.136295 1.30441e-08 0)
(-0.136295 -1.33819e-08 0)
(-0.136295 1.36975e-08 0)
(-0.136295 -1.40547e-08 0)
(-0.136295 1.43874e-08 0)
(-0.136295 -1.47416e-08 0)
(-0.136295 1.50863e-08 0)
(-0.136295 -1.54466e-08 0)
(-0.136295 1.58e-08 0)
(-0.136295 -1.61624e-08 0)
(-0.136295 1.65253e-08 0)
(-0.136295 -1.68844e-08 0)
(-0.136295 1.72555e-08 0)
(-0.136295 -1.54563e-08 0)
(-0.136295 1.5473e-08 0)
(-0.136295 -1.54786e-08 0)
(-0.136295 1.54912e-08 0)
(-0.136295 -1.54885e-08 0)
(-0.136295 1.5501e-08 0)
(-0.136295 -1.54935e-08 0)
(-0.136295 1.55044e-08 0)
(-0.136295 -1.54934e-08 0)
(-0.136295 1.5499e-08 0)
(-0.136295 -1.54836e-08 0)
(-0.136295 1.54841e-08 0)
(-0.136295 -1.54647e-08 0)
(-0.136295 1.54585e-08 0)
(-0.136295 -1.54354e-08 0)
(-0.136295 1.54211e-08 0)
(-0.136295 -1.53944e-08 0)
(-0.136295 1.53741e-08 0)
(-0.136295 -1.53425e-08 0)
(-0.136295 1.53128e-08 0)
(-0.136295 -1.52801e-08 0)
(-0.136295 1.52406e-08 0)
(-0.136295 -1.52057e-08 0)
(-0.136295 1.51551e-08 0)
(-0.136295 -1.512e-08 0)
(-0.136295 1.50587e-08 0)
(-0.136295 -1.50198e-08 0)
(-0.136295 1.49503e-08 0)
(-0.136295 -1.49075e-08 0)
(-0.136295 1.483e-08 0)
(-0.136295 -1.4784e-08 0)
(-0.136295 1.46948e-08 0)
(-0.136295 -1.46479e-08 0)
(-0.136295 1.45493e-08 0)
(-0.136295 -1.44984e-08 0)
(-0.136295 1.43903e-08 0)
(-0.136295 -1.43387e-08 0)
(-0.136295 1.42213e-08 0)
(-0.136295 -1.41634e-08 0)
(-0.136295 1.40431e-08 0)
(-0.136295 -1.3979e-08 0)
(-0.136295 1.38552e-08 0)
(-0.136295 -1.37826e-08 0)
(-0.136295 1.36591e-08 0)
(-0.136295 -1.35825e-08 0)
(-0.136295 1.34656e-08 0)
(-0.136295 -1.33717e-08 0)
(-0.136295 1.32612e-08 0)
(-0.136295 -1.31384e-08 0)
(-0.136295 1.30264e-08 0)
)
;

boundaryField
{
    inandouthalf11
    {
        type            cyclic;
    }
    inandouthalf12
    {
        type            cyclic;
    }
    inandouthalf21
    {
        type            cyclic;
    }
    inandouthalf22
    {
        type            cyclic;
    }
    inandouthalf31
    {
        type            cyclic;
    }
    inandouthalf32
    {
        type            cyclic;
    }
    inandouthalf41
    {
        type            cyclic;
    }
    inandouthalf42
    {
        type            cyclic;
    }
    top
    {
        type            symmetryPlane;
    }
    walls
    {
        type            calculated;
        value           uniform (0 0 0);
    }
    frontAndBackPlanes
    {
        type            empty;
    }
}


// ************************************************************************* //
