/*--------------------------------*- C++ -*----------------------------------*\
| =========                 |                                                 |
| \\      /  F ield         | OpenFOAM: The Open Source CFD Toolbox           |
|  \\    /   O peration     | Version:  2.4.x                                 |
|   \\  /    A nd           | Web:      www.OpenFOAM.org                      |
|    \\/     M anipulation  |                                                 |
\*---------------------------------------------------------------------------*/
FoamFile
{
    version     2.0;
    format      ascii;
    class       volScalarField;
    location    "4.5";
    object      ddt0(alpha);
}
// * * * * * * * * * * * * * * * * * * * * * * * * * * * * * * * * * * * * * //

dimensions      [0 0 -1 0 0 0 0];

internalField   nonuniform List<scalar> 
360
(
0.000170277
0.000305524
0.000286813
0.00026351
0.000262315
0.000269753
0.000276561
0.000280703
0.00028279
0.000284668
0.000287274
0.000290557
0.000294325
0.000298169
0.000302138
0.000306439
0.000311212
0.000316421
0.000321852
0.000327312
0.000331961
0.000335555
0.000337323
0.000336845
0.000334105
0.000329759
0.000325275
0.00032318
0.000326316
0.000338496
0.000364273
0.000409199
0.000476759
0.000565581
0.000652925
0.000689646
0.00061814
0.000439234
0.000235817
9.39826e-05
2.86526e-05
7.22741e-06
1.66633e-06
3.35921e-07
-3.7311e-09
-1.18289e-07
-1.55346e-07
-1.78149e-07
-2.07803e-07
-2.07733e-07
-2.03352e-07
-2.07113e-07
-2.10859e-07
-2.16876e-07
-2.35937e-07
-2.56707e-07
-2.78635e-07
-3.09131e-07
-3.26594e-07
-3.58606e-07
-3.83026e-07
-3.99745e-07
-4.18065e-07
-4.28656e-07
-4.41797e-07
-4.58058e-07
-4.79022e-07
-4.97911e-07
-5.14595e-07
-5.40426e-07
-5.6958e-07
-5.80535e-07
-5.9573e-07
-6.13861e-07
-6.26294e-07
-6.35589e-07
-6.42524e-07
-6.57327e-07
-6.7424e-07
-6.90693e-07
-7.10344e-07
-7.33739e-07
-7.55505e-07
-7.76595e-07
-7.96534e-07
-8.15514e-07
-8.33326e-07
-8.50279e-07
-8.69136e-07
-8.89629e-07
-9.11488e-07
-9.35793e-07
-9.62113e-07
-9.89376e-07
-1.01759e-06
-1.0466e-06
-1.07626e-06
-1.10675e-06
-1.13847e-06
-1.17159e-06
-1.20628e-06
-1.24277e-06
-1.28112e-06
-1.32133e-06
-1.3635e-06
-1.40775e-06
-1.45419e-06
-1.50295e-06
-1.55418e-06
-1.60797e-06
-1.6644e-06
-1.72355e-06
-1.78548e-06
-1.85023e-06
-1.91787e-06
-1.98844e-06
-2.06199e-06
-2.13863e-06
-2.21847e-06
-2.3017e-06
-2.38853e-06
-2.47925e-06
-2.57427e-06
-2.67427e-06
-2.78043e-06
-2.89464e-06
-3.01942e-06
-3.15718e-06
-3.30868e-06
-3.47209e-06
-3.64554e-06
-3.83536e-06
-4.06121e-06
-4.33651e-06
-4.63519e-06
-4.91695e-06
-5.21955e-06
-5.69572e-06
-6.46455e-06
-7.23579e-06
-7.37235e-06
-7.9055e-06
-9.90176e-06
-1.2479e-05
-1.86025e-05
-8.30707e-05
-0.00114074
-0.064877
-0.0237525
-0.00565809
-0.00160445
-0.0010867
-0.00133931
-0.00149032
-0.00123909
-0.000557412
0.000438315
0.0015778
0.00270524
0.00370844
0.00452497
0.00512741
0.00552201
0.00572731
0.00577068
0.00568192
0.00549016
0.00522166
0.00489877
0.00454088
0.00416855
0.00380663
0.00347569
0.00316954
0.00284558
0.00245864
0.00201145
0.0015583
0.00115978
0.000845882
0.000615237
0.000451606
0.000336935
0.000256608
0.00020015
0.000160433
0.000132722
0.000113831
0.000101099
9.12533e-05
8.06511e-05
6.77035e-05
5.43795e-05
4.37372e-05
3.63756e-05
3.07024e-05
2.56883e-05
2.14983e-05
1.82715e-05
1.56753e-05
1.32581e-05
1.1034e-05
9.47634e-06
8.42875e-06
7.12316e-06
5.69975e-06
4.97686e-06
4.57528e-06
3.73518e-06
3.01205e-06
2.73492e-06
2.34433e-06
1.89349e-06
1.66953e-06
1.41278e-06
1.1172e-06
1.00567e-06
8.84486e-07
6.63377e-07
5.6609e-07
5.16838e-07
4.03361e-07
3.33414e-07
2.78072e-07
2.19022e-07
1.90693e-07
1.47837e-07
1.12473e-07
9.98916e-08
7.66493e-08
5.71269e-08
4.06557e-08
2.27984e-08
1.48464e-08
1.58025e-08
2.14031e-08
4.01959e-08
-1.41434e-16
-7.93286e-17
-1.09971e-16
-1.40787e-16
-2.00278e-16
-2.06282e-16
-1.01672e-16
-3.83615e-17
-1.7786e-17
-9.37506e-18
-7.19284e-18
-9.54243e-18
-1.36727e-17
-1.43438e-17
-4.57225e-18
-1.51662e-18
-5.88012e-19
-2.63143e-19
-1.29481e-19
-6.64353e-20
-3.9665e-20
-3.19203e-20
-3.15772e-20
-3.14958e-20
-1.58879e-20
-6.30183e-21
-2.96242e-21
-1.50199e-21
-8.66447e-22
-6.72602e-22
-5.54438e-22
-2.2247e-22
-1.00816e-22
-5.04729e-23
-2.61838e-23
-1.47609e-23
-7.24033e-24
-3.56747e-24
-1.74871e-24
-8.39639e-25
-3.94219e-25
-1.80819e-25
-8.0944e-26
-3.5327e-26
-1.50151e-26
-6.20775e-27
-2.49332e-27
-9.71561e-28
-3.66754e-28
-1.33908e-28
-4.72087e-29
-1.60403e-29
-5.24193e-30
-1.64394e-30
-4.93545e-31
-1.41455e-31
-3.85866e-32
-9.98354e-33
-2.44046e-33
-5.6113e-34
-1.20735e-34
-2.41648e-35
-4.46723e-36
-7.56323e-37
-1.16058e-37
-1.59326e-38
-1.92416e-39
-1.99875e-40
-1.72991e-41
-1.18851e-42
-5.96554e-44
-1.83241e-45
-1.70105e-47
-1.98008e-50
-2.93806e-52
-2.16317e-54
-3.76147e-65
-3.30808e-76
-2.17889e-87
-1.0574e-98
-4.46379e-110
-1.55259e-121
-5.67181e-133
-2.41806e-141
-6.46043e-152
-8.3333e-160
-2.07644e-170
-2.8668e-178
-8.85479e-189
-9.86054e-197
-3.96768e-207
-3.39442e-215
-2.67245e-225
-1.18007e-233
-1.77556e-243
-4.16604e-252
-8.9312e-262
-1.49277e-270
-4.23054e-280
-5.42621e-289
-1.8651e-298
-2.00391e-307
3.21582e-319
0
0
0
0
0
0
0
0
0
0
0
0
0
0
0
0
0
0
0
0
)
;

boundaryField
{
    inandouthalf11
    {
        type            cyclic;
    }
    inandouthalf12
    {
        type            cyclic;
    }
    inandouthalf21
    {
        type            cyclic;
    }
    inandouthalf22
    {
        type            cyclic;
    }
    inandouthalf31
    {
        type            cyclic;
    }
    inandouthalf32
    {
        type            cyclic;
    }
    inandouthalf41
    {
        type            cyclic;
    }
    inandouthalf42
    {
        type            cyclic;
    }
    top
    {
        type            symmetryPlane;
    }
    walls
    {
        type            calculated;
        value           uniform 0.000170277;
    }
    frontAndBackPlanes
    {
        type            empty;
    }
}


// ************************************************************************* //
