/*--------------------------------*- C++ -*----------------------------------*\
| =========                 |                                                 |
| \\      /  F ield         | OpenFOAM: The Open Source CFD Toolbox           |
|  \\    /   O peration     | Version:  2.4.x                                 |
|   \\  /    A nd           | Web:      www.OpenFOAM.org                      |
|    \\/     M anipulation  |                                                 |
\*---------------------------------------------------------------------------*/
FoamFile
{
    version     2.0;
    format      ascii;
    class       volScalarField;
    location    "4.5";
    object      mua;
}
// * * * * * * * * * * * * * * * * * * * * * * * * * * * * * * * * * * * * * //

dimensions      [1 -1 -1 0 0 0 0];

internalField   nonuniform List<scalar> 
360
(
563427
336536
386219
421721
412668
396159
383793
375530
369892
364667
358548
351605
344318
337113
329979
322675
315084
307292
299492
292003
285346
279830
275881
273811
273612
274801
276143
275566
270564
258583
238085
209986
178213
148444
126735
118214
129932
180403
332331
826340
2.68772e+06
1.04414e+07
4.16446e+07
1.43474e+08
3.75878e+08
7.07946e+08
9.71832e+08
1.03803e+09
9.4106e+08
7.87436e+08
6.4764e+08
5.42739e+08
4.71299e+08
4.25558e+08
3.9798e+08
3.82296e+08
3.74193e+08
3.70049e+08
3.67553e+08
3.65022e+08
3.61321e+08
3.56552e+08
3.50816e+08
3.4455e+08
3.37887e+08
3.30717e+08
3.22706e+08
3.13648e+08
3.03455e+08
2.9205e+08
2.79467e+08
2.66336e+08
2.53364e+08
2.40865e+08
2.29294e+08
2.18935e+08
2.09956e+08
2.02183e+08
1.95323e+08
1.89094e+08
1.83226e+08
1.77447e+08
1.71615e+08
1.65718e+08
1.59816e+08
1.54025e+08
1.48466e+08
1.43246e+08
1.38411e+08
1.3395e+08
1.29823e+08
1.25969e+08
1.22316e+08
1.18813e+08
1.15426e+08
1.12143e+08
1.08962e+08
1.05892e+08
1.02939e+08
1.00106e+08
9.73941e+07
9.47996e+07
9.23172e+07
8.99416e+07
8.76682e+07
8.54921e+07
8.34077e+07
8.14085e+07
7.94863e+07
7.76313e+07
7.58321e+07
7.40754e+07
7.23467e+07
7.06297e+07
6.8907e+07
6.71609e+07
6.53741e+07
6.35317e+07
6.16239e+07
5.96481e+07
5.76128e+07
5.55395e+07
5.34632e+07
5.14311e+07
4.94977e+07
4.77198e+07
4.6153e+07
4.4852e+07
4.38753e+07
4.32877e+07
4.3147e+07
4.34635e+07
4.41465e+07
4.49976e+07
4.58126e+07
4.64988e+07
4.70013e+07
4.71619e+07
4.70614e+07
4.81007e+07
5.41286e+07
7.23093e+07
1.1482e+08
2.059e+08
3.34846e+08
2.46465e+08
0.254745
0.0228219
0.0119876
0.00967624
0.0083952
0.00750615
0.00688447
0.00645592
0.00616779
0.00597812
0.00585366
0.00576925
0.00570698
0.00565479
0.00560511
0.00555342
0.00549735
0.00543592
0.005369
0.00529702
0.00522078
0.0051413
0.00505974
0.00497732
0.00489525
0.00481472
0.00473676
0.00466221
0.00459168
0.00452544
0.00446352
0.00440572
0.00435174
0.00430128
0.00425403
0.00420971
0.00416809
0.00412896
0.00409209
0.00405728
0.00402435
0.00399309
0.00396331
0.00393479
0.00390734
0.00388076
0.00385486
0.00382949
0.00380453
0.00377988
0.00375545
0.00373116
0.00370694
0.00368275
0.00365852
0.00363398
0.00360881
0.00358298
0.00355641
0.00352905
0.00350083
0.0034717
0.00344158
0.0034104
0.00337809
0.00334455
0.0033097
0.00327344
0.00323565
0.00319623
0.00315502
0.00311189
0.00306666
0.00301912
0.00296907
0.00291624
0.00286031
0.00280094
0.00273767
0.00266998
0.00259722
0.00251854
0.00243287
0.00233877
0.00223426
0.00211648
0.00198101
0.00182046
0.00162058
0.00134636
0
0
0
0
0
0
0
0
0
0
0
0
0
0
0
0
0
0
0
0
0
0
0
0
0
0
0
0
0
0
0
0
0
0
0
0
0
0
0
0
0
0
0
0
0
0
0
0
0
0
0
0
0
0
0
0
0
0
0
0
0
0
0
0
0
0
0
0
0
0
0
0
0
0
0
0
0
0
0
0
0
0
0
0
0
0
0
0
0
0
0
0
0
0
0
0
0
0
0
0
0
0
0
0
0
0
0
0
0
0
0
0
0
0
0
0
0
0
0
0
0
0
0
0
)
;

boundaryField
{
    inandouthalf11
    {
        type            cyclic;
    }
    inandouthalf12
    {
        type            cyclic;
    }
    inandouthalf21
    {
        type            cyclic;
    }
    inandouthalf22
    {
        type            cyclic;
    }
    inandouthalf31
    {
        type            cyclic;
    }
    inandouthalf32
    {
        type            cyclic;
    }
    inandouthalf41
    {
        type            cyclic;
    }
    inandouthalf42
    {
        type            cyclic;
    }
    top
    {
        type            symmetryPlane;
    }
    walls
    {
        type            calculated;
        value           uniform 1e+30;
    }
    frontAndBackPlanes
    {
        type            empty;
    }
}


// ************************************************************************* //
