/*--------------------------------*- C++ -*----------------------------------*\
| =========                 |                                                 |
| \\      /  F ield         | OpenFOAM: The Open Source CFD Toolbox           |
|  \\    /   O peration     | Version:  2.4.x                                 |
|   \\  /    A nd           | Web:      www.OpenFOAM.org                      |
|    \\/     M anipulation  |                                                 |
\*---------------------------------------------------------------------------*/
FoamFile
{
    version     2.0;
    format      ascii;
    class       volScalarField;
    location    "4.5";
    object      nutb;
}
// * * * * * * * * * * * * * * * * * * * * * * * * * * * * * * * * * * * * * //

dimensions      [0 2 -1 0 0 0 0];

internalField   nonuniform List<scalar> 
360
(
9e-22
9e-22
9e-22
9e-22
9e-22
9e-22
9e-22
9e-22
9e-22
9e-22
9e-22
9e-22
9e-22
9e-22
9e-22
9e-22
9e-22
9e-22
9e-22
9e-22
9e-22
9e-22
9e-22
9e-22
9e-22
9e-22
9e-22
9e-22
9e-22
9e-22
9e-22
9e-22
9e-22
9e-22
9e-22
9e-22
9e-22
9e-22
9e-22
9e-22
9e-22
9e-22
9e-22
9e-22
9e-22
9e-22
9e-22
9e-22
9e-22
9e-22
9e-22
9e-22
9e-22
9e-22
9e-22
9e-22
9e-22
9e-22
9e-22
9e-22
9e-22
9e-22
9e-22
9e-22
9e-22
9e-22
9e-22
9e-22
9e-22
9e-22
9e-22
9e-22
9e-22
9e-22
9e-22
9e-22
9e-22
9e-22
9e-22
9e-22
9e-22
9e-22
9e-22
9e-22
9e-22
9e-22
9e-22
9e-22
9e-22
9e-22
9e-22
9e-22
9e-22
9e-22
9e-22
9e-22
9e-22
9e-22
9e-22
9e-22
9e-22
9e-22
9e-22
9e-22
9e-22
9e-22
9e-22
9e-22
9e-22
9e-22
9e-22
9e-22
9e-22
9e-22
9e-22
9e-22
9e-22
9e-22
9e-22
9e-22
9e-22
9e-22
9e-22
9e-22
9e-22
9e-22
9e-22
9e-22
9e-22
9e-22
9e-22
9e-22
8.83669e-22
9.92254e-22
6.03334e-21
4.36847e-20
3.34204e-19
2.70414e-18
2.342e-17
2.21244e-16
2.32865e-15
2.78909e-14
3.89032e-13
6.44959e-12
1.28983e-10
3.14737e-09
9.03916e-08
1.86563e-06
9.61218e-06
1.78229e-05
2.45619e-05
3.04485e-05
3.57962e-05
4.07542e-05
4.54063e-05
4.97926e-05
5.39226e-05
5.77863e-05
6.13639e-05
6.46326e-05
6.75717e-05
7.01653e-05
7.24035e-05
7.42827e-05
7.58053e-05
7.69797e-05
7.78194e-05
7.83429e-05
7.8574e-05
7.85408e-05
7.8277e-05
7.78215e-05
7.7219e-05
7.6521e-05
7.57854e-05
7.50762e-05
7.4462e-05
7.40147e-05
7.38077e-05
7.39126e-05
7.43949e-05
7.53081e-05
7.6687e-05
7.85429e-05
8.08602e-05
8.35975e-05
8.66914e-05
9.0063e-05
9.36261e-05
9.72945e-05
0.000100988
0.000104636
0.000108181
0.000111577
0.000114791
0.000117801
0.000120594
0.000123166
0.000125516
0.000127648
0.00012957
0.000131307
0.000132877
0.000134278
0.000135511
0.000136576
0.000137472
0.0001382
0.000138758
0.000139146
0.00013936
0.000139399
0.000139257
0.000138932
0.000138417
0.000137706
0.000136792
0.000135667
0.000134323
0.000132749
0.000130937
0.000128874
0.000126551
0.000123954
0.000121071
0.00011789
0.000114396
0.000110576
0.000106416
0.000101901
9.70153e-05
9.17451e-05
8.60749e-05
7.99897e-05
7.34748e-05
6.65161e-05
5.91005e-05
5.12162e-05
4.28532e-05
3.40031e-05
2.46575e-05
1.48343e-05
4.68358e-06
3.21514e-07
5.39623e-09
7.14435e-11
8.92799e-13
1.05738e-14
1.18736e-16
1.26216e-18
1.14381e-20
9.15882e-22
9e-22
9e-22
9e-22
9e-22
9e-22
9e-22
9e-22
9e-22
9e-22
9e-22
9e-22
9e-22
9e-22
9e-22
9e-22
9e-22
9e-22
9e-22
9e-22
9e-22
9e-22
9e-22
9e-22
9e-22
9e-22
9e-22
9e-22
9e-22
9e-22
9e-22
9e-22
9e-22
9e-22
9e-22
9e-22
9e-22
9e-22
9e-22
9e-22
9e-22
9e-22
9e-22
9e-22
9e-22
9e-22
9e-22
9e-22
9e-22
9e-22
9e-22
9e-22
9e-22
9e-22
9e-22
9e-22
9e-22
9e-22
9e-22
9e-22
9e-22
9e-22
9e-22
9e-22
9e-22
9e-22
9e-22
9e-22
9e-22
9e-22
9e-22
9e-22
9e-22
9e-22
9e-22
9e-22
9e-22
9e-22
9e-22
9e-22
9e-22
9e-22
9e-22
9e-22
9e-22
9e-22
9e-22
9e-22
9e-22
9e-22
9e-22
9e-22
9e-22
9e-22
9e-22
9e-22
9e-22
9e-22
9e-22
9e-22
9e-22
9e-22
9e-22
9e-22
9e-22
9e-22
9e-22
9e-22
9e-22
)
;

boundaryField
{
    inandouthalf11
    {
        type            cyclic;
    }
    inandouthalf12
    {
        type            cyclic;
    }
    inandouthalf21
    {
        type            cyclic;
    }
    inandouthalf22
    {
        type            cyclic;
    }
    inandouthalf31
    {
        type            cyclic;
    }
    inandouthalf32
    {
        type            cyclic;
    }
    inandouthalf41
    {
        type            cyclic;
    }
    inandouthalf42
    {
        type            cyclic;
    }
    top
    {
        type            symmetryPlane;
    }
    walls
    {
        type            calculated;
        value           uniform 0;
    }
    frontAndBackPlanes
    {
        type            empty;
    }
}


// ************************************************************************* //
