/*--------------------------------*- C++ -*----------------------------------*\
| =========                 |                                                 |
| \\      /  F ield         | OpenFOAM: The Open Source CFD Toolbox           |
|  \\    /   O peration     | Version:  2.4.x                                 |
|   \\  /    A nd           | Web:      www.OpenFOAM.org                      |
|    \\/     M anipulation  |                                                 |
\*---------------------------------------------------------------------------*/
FoamFile
{
    version     2.0;
    format      ascii;
    class       volScalarField;
    location    "4.5";
    object      p;
}
// * * * * * * * * * * * * * * * * * * * * * * * * * * * * * * * * * * * * * //

dimensions      [1 -1 -2 0 0 0 0];

internalField   nonuniform List<scalar> 
360
(
4900.23
4895.32
4890.42
4885.51
4880.6
4875.69
4870.77
4865.86
4860.94
4856.03
4851.11
4846.19
4841.27
4836.34
4831.42
4826.49
4821.57
4816.64
4811.71
4806.78
4801.84
4796.91
4791.97
4787.03
4782.09
4777.15
4772.21
4767.26
4762.32
4757.37
4752.42
4747.47
4742.51
4737.56
4732.6
4727.64
4722.67
4717.71
4712.73
4707.76
4702.79
4697.82
4692.85
4687.88
4682.9
4677.93
4672.96
4667.99
4663.02
4658.04
4653.07
4648.1
4643.13
4638.16
4633.18
4628.21
4623.24
4618.27
4613.3
4608.32
4603.35
4598.38
4593.41
4588.44
4583.46
4578.49
4573.52
4568.55
4563.58
4558.61
4553.63
4548.66
4543.69
4538.72
4533.75
4528.78
4523.8
4518.83
4513.86
4508.89
4503.92
4498.95
4493.98
4489
4484.03
4479.06
4474.09
4469.12
4464.15
4459.18
4454.21
4449.24
4444.26
4439.29
4434.32
4429.35
4424.38
4419.41
4414.44
4409.47
4404.5
4399.53
4394.56
4389.59
4384.62
4379.65
4374.68
4369.71
4364.74
4359.77
4354.8
4349.83
4344.86
4339.89
4334.92
4329.95
4324.98
4320.01
4315.04
4310.07
4305.1
4300.13
4295.16
4290.19
4285.22
4280.25
4275.28
4270.32
4265.35
4260.38
4255.41
4250.44
4245.47
4240.51
4235.54
4230.57
4225.6
4220.64
4215.67
4210.7
4205.74
4200.77
4195.8
4190.84
4185.87
4180.91
4175.93
4170.11
4161.01
4153.2
4146.64
4140.58
4134.79
4129.19
4123.74
4118.42
4113.21
4108.09
4103.05
4098.07
4093.16
4088.28
4083.45
4078.65
4073.87
4069.12
4064.38
4059.66
4054.94
4050.24
4045.54
4040.84
4036.14
4031.44
4026.73
4022.02
4017.3
4012.57
4007.83
4003.07
3998.3
3993.51
3988.71
3983.89
3979.06
3974.22
3969.37
3964.51
3959.64
3954.76
3949.87
3944.99
3940.09
3935.2
3930.3
3925.4
3920.5
3915.59
3910.69
3905.78
3900.88
3895.92
3890.86
3885.7
3880.44
3875.07
3869.59
3864
3858.29
3852.48
3846.54
3840.48
3834.31
3828.01
3821.58
3815.02
3808.33
3801.51
3794.55
3787.45
3780.21
3772.82
3765.28
3757.6
3749.76
3741.76
3733.6
3725.29
3716.8
3708.14
3699.31
3690.3
3681.12
3671.74
3662.18
3652.43
3642.48
3632.32
3621.96
3611.39
3600.6
3589.59
3578.34
3566.83
3555.07
3543.08
3530.84
3518.35
3505.61
3492.61
3479.35
3465.82
3452.01
3437.92
3423.55
3408.88
3393.92
3378.66
3363.08
3347.19
3330.97
3314.43
3297.55
3280.33
3262.76
3244.83
3226.54
3207.87
3188.83
3169.4
3149.58
3129.35
3108.72
3087.66
3066.18
3044.26
3021.9
2999.08
2975.8
2952.05
2927.81
2903.09
2877.86
2852.12
2825.86
2799.06
2771.72
2743.82
2715.36
2686.32
2656.7
2626.47
2595.62
2564.15
2532.05
2499.29
2465.86
2431.76
2396.96
2361.46
2325.24
2288.28
2250.57
2212.1
2172.85
2132.8
2091.93
2050.24
2007.7
1964.3
1922.76
1883.52
1844.28
1805.04
1765.8
1726.56
1687.32
1648.08
1608.84
1569.6
1530.36
1491.12
1451.88
1412.64
1373.4
1334.16
1294.92
1255.68
1216.44
1177.2
1137.96
1098.72
1059.48
1020.24
981
941.76
902.52
863.28
824.04
784.8
745.56
706.32
667.08
627.84
588.6
549.36
510.12
470.88
431.64
392.4
353.16
313.92
274.68
235.44
196.2
156.96
117.72
78.48
39.24
1.60056e-07
)
;

boundaryField
{
    inandouthalf11
    {
        type            cyclic;
    }
    inandouthalf12
    {
        type            cyclic;
    }
    inandouthalf21
    {
        type            cyclic;
    }
    inandouthalf22
    {
        type            cyclic;
    }
    inandouthalf31
    {
        type            cyclic;
    }
    inandouthalf32
    {
        type            cyclic;
    }
    inandouthalf41
    {
        type            cyclic;
    }
    inandouthalf42
    {
        type            cyclic;
    }
    top
    {
        type            symmetryPlane;
    }
    walls
    {
        type            slip;
    }
    frontAndBackPlanes
    {
        type            empty;
    }
}


// ************************************************************************* //
