/*--------------------------------*- C++ -*----------------------------------*\
| =========                 |                                                 |
| \\      /  F ield         | OpenFOAM: The Open Source CFD Toolbox           |
|  \\    /   O peration     | Version:  2.4.x                                 |
|   \\  /    A nd           | Web:      www.OpenFOAM.org                      |
|    \\/     M anipulation  |                                                 |
\*---------------------------------------------------------------------------*/
FoamFile
{
    version     2.0;
    format      ascii;
    class       surfaceScalarField;
    location    "4.5";
    object      phia_0;
}
// * * * * * * * * * * * * * * * * * * * * * * * * * * * * * * * * * * * * * //

dimensions      [0 3 -1 0 0 0 0];

internalField   nonuniform List<scalar> 
359
(
-5.57015e-13
-1.55686e-12
-2.49558e-12
-3.35795e-12
-4.21664e-12
-5.09968e-12
-6.00507e-12
-6.92408e-12
-7.85e-12
-8.78216e-12
-9.72295e-12
-1.06746e-11
-1.16386e-11
-1.26153e-11
-1.36051e-11
-1.46091e-11
-1.56288e-11
-1.66657e-11
-1.77205e-11
-1.87933e-11
-1.98814e-11
-2.09814e-11
-2.20873e-11
-2.31918e-11
-2.42875e-11
-2.5369e-11
-2.64359e-11
-2.7496e-11
-2.85664e-11
-2.96767e-11
-3.08717e-11
-3.22139e-11
-3.37778e-11
-3.56333e-11
-3.7776e-11
-4.00402e-11
-4.20712e-11
-4.35158e-11
-4.42923e-11
-4.46024e-11
-4.46974e-11
-4.47217e-11
-4.47278e-11
-4.47296e-11
-4.47302e-11
-4.47306e-11
-4.47309e-11
-4.47311e-11
-4.47314e-11
-4.47317e-11
-4.4732e-11
-4.47325e-11
-4.4733e-11
-4.47336e-11
-4.47342e-11
-4.47348e-11
-4.47354e-11
-4.4736e-11
-4.47367e-11
-4.47373e-11
-4.47379e-11
-4.47386e-11
-4.47392e-11
-4.47398e-11
-4.47405e-11
-4.47411e-11
-4.47418e-11
-4.47425e-11
-4.47432e-11
-4.47439e-11
-4.47446e-11
-4.47454e-11
-4.47462e-11
-4.4747e-11
-4.47479e-11
-4.47488e-11
-4.47497e-11
-4.47506e-11
-4.47516e-11
-4.47525e-11
-4.47535e-11
-4.47545e-11
-4.47556e-11
-4.47566e-11
-4.47577e-11
-4.47588e-11
-4.47599e-11
-4.47611e-11
-4.47622e-11
-4.47634e-11
-4.47646e-11
-4.47658e-11
-4.47671e-11
-4.47683e-11
-4.47696e-11
-4.47708e-11
-4.47721e-11
-4.47734e-11
-4.47747e-11
-4.4776e-11
-4.47774e-11
-4.47787e-11
-4.478e-11
-4.47814e-11
-4.47827e-11
-4.47841e-11
-4.47854e-11
-4.47868e-11
-4.47881e-11
-4.47894e-11
-4.47908e-11
-4.47921e-11
-4.47934e-11
-4.47948e-11
-4.47961e-11
-4.47974e-11
-4.47987e-11
-4.47999e-11
-4.48012e-11
-4.48025e-11
-4.48038e-11
-4.48051e-11
-4.48063e-11
-4.48076e-11
-4.48088e-11
-4.48101e-11
-4.48113e-11
-4.48125e-11
-4.48136e-11
-4.48147e-11
-4.48158e-11
-4.48167e-11
-4.48176e-11
-4.48184e-11
-4.48191e-11
-4.48198e-11
-4.48203e-11
-4.48208e-11
-4.48213e-11
-4.48216e-11
-4.48219e-11
-4.4822e-11
-4.48221e-11
-4.48221e-11
-4.48221e-11
-4.48221e-11
-5.19785e-11
2.62038e-10
5.72286e-10
7.66117e-10
9.32863e-10
1.12736e-09
1.37476e-09
1.69372e-09
2.09846e-09
2.59917e-09
3.20207e-09
3.90963e-09
4.72108e-09
5.6329e-09
6.63923e-09
7.73271e-09
8.90425e-09
1.01435e-08
1.14389e-08
1.27775e-08
1.41446e-08
1.55238e-08
1.68964e-08
1.82412e-08
1.95326e-08
2.07343e-08
2.1789e-08
2.26145e-08
2.31258e-08
2.32775e-08
2.30947e-08
2.26625e-08
2.20873e-08
2.14638e-08
2.08617e-08
2.0325e-08
1.98779e-08
1.95301e-08
1.9281e-08
1.91232e-08
1.90435e-08
1.90243e-08
1.90433e-08
1.90757e-08
1.90993e-08
1.91038e-08
1.90924e-08
1.90727e-08
1.90467e-08
1.90127e-08
1.89713e-08
1.89243e-08
1.88724e-08
1.88148e-08
1.87507e-08
1.86808e-08
1.86079e-08
1.85286e-08
1.84381e-08
1.83416e-08
1.82455e-08
1.81391e-08
1.80179e-08
1.78947e-08
1.77652e-08
1.76189e-08
1.74652e-08
1.73037e-08
1.71227e-08
1.69326e-08
1.67371e-08
1.65152e-08
1.6275e-08
1.60337e-08
1.57642e-08
1.54709e-08
1.51642e-08
1.4825e-08
1.44687e-08
1.40882e-08
1.36646e-08
1.32314e-08
1.2765e-08
1.22514e-08
1.17076e-08
1.11191e-08
1.05506e-08
1.00786e-08
9.74297e-09
9.44206e-09
-4.47879e-08
-1.40377e-07
-1.58696e-07
-1.58564e-07
-1.58527e-07
-1.58431e-07
-1.58251e-07
-1.58195e-07
-1.58196e-07
-1.58196e-07
-1.58196e-07
-1.58196e-07
-1.58196e-07
-1.58196e-07
-1.58196e-07
-1.58196e-07
-1.58196e-07
-1.58196e-07
-1.58196e-07
-1.58196e-07
-1.58196e-07
-1.58196e-07
-1.58196e-07
-1.58196e-07
-1.58196e-07
-1.58196e-07
-1.58196e-07
-1.58196e-07
-1.58196e-07
-1.58196e-07
-1.58196e-07
-1.58196e-07
-1.58196e-07
-1.58196e-07
-1.58196e-07
-1.58196e-07
-1.58196e-07
-1.58196e-07
-1.58196e-07
-1.58196e-07
-1.58196e-07
-1.58196e-07
-1.58196e-07
-1.58196e-07
-1.58196e-07
-1.58196e-07
-1.58196e-07
-1.58196e-07
-1.58196e-07
-1.58196e-07
-1.58196e-07
-1.58196e-07
-1.58196e-07
-1.58196e-07
-1.58196e-07
-1.58196e-07
-1.58196e-07
-1.58196e-07
-1.58196e-07
-1.58196e-07
-1.58196e-07
-1.58196e-07
-1.58196e-07
-1.58196e-07
-1.58196e-07
-1.58196e-07
-1.58196e-07
-1.58196e-07
-1.58196e-07
-1.58196e-07
-1.58196e-07
-1.58196e-07
-1.58196e-07
-1.58196e-07
-1.58196e-07
-1.58196e-07
-1.58196e-07
-1.58196e-07
-1.58196e-07
-1.58196e-07
-1.58196e-07
-1.58196e-07
-1.58196e-07
-1.58196e-07
-1.58196e-07
-1.58196e-07
-1.58196e-07
-1.58196e-07
-1.58196e-07
-1.58196e-07
-1.58196e-07
-1.58196e-07
-1.58196e-07
-1.58196e-07
-1.58196e-07
-1.58196e-07
-1.58196e-07
-1.58196e-07
-1.58196e-07
-1.58196e-07
-1.58196e-07
-1.58196e-07
-1.58196e-07
-1.58196e-07
-1.58196e-07
-1.58196e-07
-1.58196e-07
-1.58196e-07
-1.58196e-07
-1.58196e-07
-1.58196e-07
-1.58196e-07
-1.58196e-07
-1.58196e-07
-1.58196e-07
-1.58196e-07
-1.58196e-07
-1.58196e-07
-1.58196e-07
-1.58196e-07
-1.58179e-07
-1.57473e-07
-1.32407e-07
)
;

boundaryField
{
    inandouthalf11
    {
        type            cyclic;
        value           nonuniform List<scalar> 
100
(
1.04675e-38
4.64455e-14
1.0419e-13
1.55755e-13
2.05593e-13
2.56909e-13
3.10021e-13
3.64466e-13
4.19811e-13
4.75856e-13
5.32655e-13
5.90369e-13
6.49129e-13
7.08997e-13
7.70005e-13
8.32211e-13
8.95711e-13
9.60615e-13
1.02701e-12
1.09495e-12
1.16436e-12
1.23508e-12
1.3068e-12
1.3791e-12
1.4515e-12
1.52356e-12
1.59507e-12
1.66629e-12
1.73801e-12
1.81182e-12
1.89022e-12
1.97686e-12
2.07655e-12
2.19466e-12
2.33441e-12
2.4909e-12
2.64484e-12
2.76749e-12
2.84146e-12
2.87407e-12
2.88478e-12
2.88764e-12
2.88836e-12
2.88856e-12
2.88864e-12
2.88867e-12
2.88869e-12
2.88871e-12
2.88874e-12
2.88876e-12
2.88879e-12
2.88883e-12
2.88887e-12
2.88893e-12
2.88898e-12
2.88904e-12
2.88911e-12
2.88917e-12
2.88924e-12
2.8893e-12
2.88937e-12
2.88944e-12
2.88951e-12
2.88958e-12
2.88965e-12
2.88972e-12
2.8898e-12
2.88988e-12
2.88996e-12
2.89004e-12
2.89013e-12
2.89022e-12
2.89032e-12
2.89042e-12
2.89052e-12
2.89063e-12
2.89075e-12
2.89087e-12
2.89099e-12
2.89112e-12
2.89125e-12
2.89138e-12
2.89152e-12
2.89166e-12
2.89181e-12
2.89196e-12
2.89211e-12
2.89227e-12
2.89244e-12
2.8926e-12
2.89278e-12
2.89295e-12
2.89313e-12
2.89332e-12
2.89351e-12
2.8937e-12
2.89389e-12
2.89409e-12
2.89429e-12
2.8945e-12
)
;
    }
    inandouthalf12
    {
        type            cyclic;
        value           nonuniform List<scalar> 
100
(
-1.04675e-38
-4.64455e-14
-1.0419e-13
-1.55755e-13
-2.05593e-13
-2.56909e-13
-3.10021e-13
-3.64466e-13
-4.19811e-13
-4.75856e-13
-5.32655e-13
-5.90369e-13
-6.49129e-13
-7.08997e-13
-7.70005e-13
-8.32211e-13
-8.95711e-13
-9.60615e-13
-1.02701e-12
-1.09495e-12
-1.16436e-12
-1.23508e-12
-1.3068e-12
-1.3791e-12
-1.4515e-12
-1.52356e-12
-1.59507e-12
-1.66629e-12
-1.73801e-12
-1.81182e-12
-1.89022e-12
-1.97686e-12
-2.07655e-12
-2.19466e-12
-2.33441e-12
-2.4909e-12
-2.64484e-12
-2.76749e-12
-2.84146e-12
-2.87407e-12
-2.88478e-12
-2.88764e-12
-2.88836e-12
-2.88856e-12
-2.88864e-12
-2.88867e-12
-2.88869e-12
-2.88871e-12
-2.88874e-12
-2.88876e-12
-2.88879e-12
-2.88883e-12
-2.88887e-12
-2.88893e-12
-2.88898e-12
-2.88904e-12
-2.88911e-12
-2.88917e-12
-2.88924e-12
-2.8893e-12
-2.88937e-12
-2.88944e-12
-2.88951e-12
-2.88958e-12
-2.88965e-12
-2.88972e-12
-2.8898e-12
-2.88988e-12
-2.88996e-12
-2.89004e-12
-2.89013e-12
-2.89022e-12
-2.89032e-12
-2.89042e-12
-2.89052e-12
-2.89063e-12
-2.89075e-12
-2.89087e-12
-2.89099e-12
-2.89112e-12
-2.89125e-12
-2.89138e-12
-2.89152e-12
-2.89166e-12
-2.89181e-12
-2.89196e-12
-2.89211e-12
-2.89227e-12
-2.89244e-12
-2.8926e-12
-2.89278e-12
-2.89295e-12
-2.89313e-12
-2.89332e-12
-2.89351e-12
-2.8937e-12
-2.89389e-12
-2.89409e-12
-2.89429e-12
-2.8945e-12
)
;
    }
    inandouthalf21
    {
        type            cyclic;
        value           nonuniform List<scalar> 
100
(
2.89471e-12
2.89492e-12
2.89514e-12
2.89536e-12
2.89558e-12
2.8958e-12
2.89603e-12
2.89626e-12
2.89649e-12
2.89673e-12
2.89697e-12
2.89721e-12
2.89745e-12
2.89769e-12
2.89793e-12
2.89818e-12
2.89843e-12
2.89868e-12
2.89894e-12
2.8992e-12
2.89946e-12
2.89973e-12
2.9e-12
2.90028e-12
2.90056e-12
2.90085e-12
2.90114e-12
2.90144e-12
2.90174e-12
2.90203e-12
2.90233e-12
2.90261e-12
2.90289e-12
2.90316e-12
2.90341e-12
2.90365e-12
2.90389e-12
2.90411e-12
2.90433e-12
2.90454e-12
2.90472e-12
2.90487e-12
2.90496e-12
2.90501e-12
2.90503e-12
2.90504e-12
2.90507e-12
1.65263e-08
1.12638e-07
2.12811e-07
2.93566e-07
3.60748e-07
4.17729e-07
4.66808e-07
5.09603e-07
5.47299e-07
5.80796e-07
6.10795e-07
6.37843e-07
6.62377e-07
6.84736e-07
7.05193e-07
7.23958e-07
7.412e-07
7.57049e-07
7.71608e-07
7.8496e-07
7.97172e-07
8.08298e-07
8.18389e-07
8.27489e-07
8.35645e-07
8.42904e-07
8.49322e-07
8.5496e-07
8.59891e-07
8.64193e-07
8.67948e-07
8.71229e-07
8.74102e-07
8.76621e-07
8.7883e-07
8.80766e-07
8.82459e-07
8.83937e-07
8.85222e-07
8.86336e-07
8.87298e-07
8.88126e-07
8.88838e-07
8.89453e-07
8.89987e-07
8.90453e-07
8.90862e-07
8.91222e-07
8.91541e-07
8.91825e-07
8.92079e-07
8.92306e-07
8.92511e-07
)
;
    }
    inandouthalf22
    {
        type            cyclic;
        value           nonuniform List<scalar> 
100
(
-2.89471e-12
-2.89492e-12
-2.89514e-12
-2.89536e-12
-2.89558e-12
-2.8958e-12
-2.89603e-12
-2.89626e-12
-2.89649e-12
-2.89673e-12
-2.89697e-12
-2.89721e-12
-2.89745e-12
-2.89769e-12
-2.89793e-12
-2.89818e-12
-2.89843e-12
-2.89868e-12
-2.89894e-12
-2.8992e-12
-2.89946e-12
-2.89973e-12
-2.9e-12
-2.90028e-12
-2.90056e-12
-2.90085e-12
-2.90114e-12
-2.90144e-12
-2.90174e-12
-2.90203e-12
-2.90233e-12
-2.90261e-12
-2.90289e-12
-2.90316e-12
-2.90341e-12
-2.90365e-12
-2.90389e-12
-2.90411e-12
-2.90433e-12
-2.90454e-12
-2.90472e-12
-2.90487e-12
-2.90496e-12
-2.90501e-12
-2.90503e-12
-2.90504e-12
-2.90507e-12
-1.65263e-08
-1.12638e-07
-2.12811e-07
-2.93566e-07
-3.60748e-07
-4.17729e-07
-4.66808e-07
-5.09603e-07
-5.47299e-07
-5.80796e-07
-6.10795e-07
-6.37843e-07
-6.62377e-07
-6.84736e-07
-7.05193e-07
-7.23958e-07
-7.412e-07
-7.57049e-07
-7.71608e-07
-7.8496e-07
-7.97172e-07
-8.08298e-07
-8.18389e-07
-8.27489e-07
-8.35645e-07
-8.42904e-07
-8.49322e-07
-8.5496e-07
-8.59891e-07
-8.64193e-07
-8.67948e-07
-8.71229e-07
-8.74102e-07
-8.76621e-07
-8.7883e-07
-8.80766e-07
-8.82459e-07
-8.83937e-07
-8.85222e-07
-8.86336e-07
-8.87298e-07
-8.88126e-07
-8.88838e-07
-8.89453e-07
-8.89987e-07
-8.90453e-07
-8.90862e-07
-8.91222e-07
-8.91541e-07
-8.91825e-07
-8.92079e-07
-8.92306e-07
-8.92511e-07
)
;
    }
    inandouthalf31
    {
        type            cyclic;
        value           nonuniform List<scalar> 
110
(
8.927e-07
9.10993e-07
9.29649e-07
9.48674e-07
9.68078e-07
9.87868e-07
1.00805e-06
1.02864e-06
1.04964e-06
1.07105e-06
1.0929e-06
1.11518e-06
1.13791e-06
1.16109e-06
1.18473e-06
1.20885e-06
1.23344e-06
1.25853e-06
1.28412e-06
1.31022e-06
1.33683e-06
1.36398e-06
1.39166e-06
1.41989e-06
1.44868e-06
1.47805e-06
1.50799e-06
1.53852e-06
1.56966e-06
1.60141e-06
1.63377e-06
1.66677e-06
1.70042e-06
1.73474e-06
1.76977e-06
1.80554e-06
1.84196e-06
1.8246e-06
1.85744e-06
1.88885e-06
1.922e-06
1.9563e-06
1.9931e-06
2.03278e-06
2.07399e-06
2.11608e-06
2.15903e-06
2.20285e-06
2.24755e-06
2.29317e-06
2.33971e-06
2.3872e-06
2.43565e-06
2.48509e-06
2.53553e-06
2.58699e-06
2.6395e-06
2.69307e-06
2.74773e-06
2.80351e-06
2.86041e-06
2.91847e-06
2.9777e-06
3.03814e-06
3.09981e-06
3.16273e-06
3.22692e-06
3.29242e-06
3.35925e-06
3.42743e-06
3.497e-06
3.56798e-06
3.6404e-06
3.71429e-06
3.78968e-06
3.8666e-06
3.94508e-06
4.02516e-06
4.10686e-06
4.19021e-06
4.27526e-06
4.36204e-06
4.45058e-06
4.54091e-06
4.63308e-06
4.72712e-06
4.82307e-06
4.92097e-06
5.02085e-06
5.12276e-06
5.22674e-06
5.33282e-06
5.44107e-06
5.55151e-06
5.66419e-06
5.77915e-06
5.89646e-06
6.01614e-06
6.13825e-06
6.26284e-06
6.38996e-06
6.51966e-06
6.65199e-06
6.78701e-06
6.92477e-06
7.06532e-06
7.20873e-06
7.35505e-06
7.50433e-06
7.65665e-06
)
;
    }
    inandouthalf32
    {
        type            cyclic;
        value           nonuniform List<scalar> 
110
(
-8.927e-07
-9.10993e-07
-9.29649e-07
-9.48674e-07
-9.68078e-07
-9.87868e-07
-1.00805e-06
-1.02864e-06
-1.04964e-06
-1.07105e-06
-1.0929e-06
-1.11518e-06
-1.13791e-06
-1.16109e-06
-1.18473e-06
-1.20885e-06
-1.23344e-06
-1.25853e-06
-1.28412e-06
-1.31022e-06
-1.33683e-06
-1.36398e-06
-1.39166e-06
-1.41989e-06
-1.44868e-06
-1.47805e-06
-1.50799e-06
-1.53852e-06
-1.56966e-06
-1.60141e-06
-1.63377e-06
-1.66677e-06
-1.70042e-06
-1.73474e-06
-1.76977e-06
-1.80554e-06
-1.84196e-06
-1.8246e-06
-1.85744e-06
-1.88885e-06
-1.922e-06
-1.9563e-06
-1.9931e-06
-2.03278e-06
-2.07399e-06
-2.11608e-06
-2.15903e-06
-2.20285e-06
-2.24755e-06
-2.29317e-06
-2.33971e-06
-2.3872e-06
-2.43565e-06
-2.48509e-06
-2.53553e-06
-2.58699e-06
-2.6395e-06
-2.69307e-06
-2.74773e-06
-2.80351e-06
-2.86041e-06
-2.91847e-06
-2.9777e-06
-3.03814e-06
-3.09981e-06
-3.16273e-06
-3.22692e-06
-3.29242e-06
-3.35925e-06
-3.42743e-06
-3.497e-06
-3.56798e-06
-3.6404e-06
-3.71429e-06
-3.78968e-06
-3.8666e-06
-3.94508e-06
-4.02516e-06
-4.10686e-06
-4.19021e-06
-4.27526e-06
-4.36204e-06
-4.45058e-06
-4.54091e-06
-4.63308e-06
-4.72712e-06
-4.82307e-06
-4.92097e-06
-5.02085e-06
-5.12276e-06
-5.22674e-06
-5.33282e-06
-5.44107e-06
-5.55151e-06
-5.66419e-06
-5.77915e-06
-5.89646e-06
-6.01614e-06
-6.13825e-06
-6.26284e-06
-6.38996e-06
-6.51966e-06
-6.65199e-06
-6.78701e-06
-6.92477e-06
-7.06532e-06
-7.20873e-06
-7.35505e-06
-7.50433e-06
-7.65665e-06
)
;
    }
    inandouthalf41
    {
        type            cyclic;
        value           nonuniform List<scalar> 
50
(
6.85348e-06
6.85348e-06
6.85348e-06
6.85348e-06
6.85348e-06
6.85348e-06
6.85348e-06
6.85348e-06
6.85348e-06
6.85348e-06
6.85348e-06
6.85348e-06
6.85348e-06
6.85348e-06
6.85348e-06
6.85348e-06
6.85348e-06
6.85348e-06
6.85348e-06
6.85348e-06
6.85348e-06
6.85348e-06
6.85348e-06
6.85348e-06
6.85348e-06
6.85348e-06
6.85348e-06
6.85348e-06
6.85348e-06
6.85348e-06
6.85348e-06
6.85348e-06
6.85348e-06
6.85348e-06
6.85348e-06
6.85348e-06
6.85348e-06
6.85348e-06
6.85348e-06
6.85348e-06
6.85348e-06
6.85348e-06
6.85348e-06
6.85348e-06
6.85348e-06
6.85348e-06
6.85348e-06
6.85348e-06
6.85345e-06
6.8527e-06
)
;
    }
    inandouthalf42
    {
        type            cyclic;
        value           nonuniform List<scalar> 
50
(
-6.85348e-06
-6.85348e-06
-6.85348e-06
-6.85348e-06
-6.85348e-06
-6.85348e-06
-6.85348e-06
-6.85348e-06
-6.85348e-06
-6.85348e-06
-6.85348e-06
-6.85348e-06
-6.85348e-06
-6.85348e-06
-6.85348e-06
-6.85348e-06
-6.85348e-06
-6.85348e-06
-6.85348e-06
-6.85348e-06
-6.85348e-06
-6.85348e-06
-6.85348e-06
-6.85348e-06
-6.85348e-06
-6.85348e-06
-6.85348e-06
-6.85348e-06
-6.85348e-06
-6.85348e-06
-6.85348e-06
-6.85348e-06
-6.85348e-06
-6.85348e-06
-6.85348e-06
-6.85348e-06
-6.85348e-06
-6.85348e-06
-6.85348e-06
-6.85348e-06
-6.85348e-06
-6.85348e-06
-6.85348e-06
-6.85348e-06
-6.85348e-06
-6.85348e-06
-6.85348e-06
-6.85348e-06
-6.85345e-06
-6.8527e-06
)
;
    }
    top
    {
        type            symmetryPlane;
        value           uniform 0;
    }
    walls
    {
        type            fixedValue;
        value           uniform 0;
    }
    frontAndBackPlanes
    {
        type            empty;
        value           nonuniform 0();
    }
}


// ************************************************************************* //
