/*--------------------------------*- C++ -*----------------------------------*\
| =========                 |                                                 |
| \\      /  F ield         | OpenFOAM: The Open Source CFD Toolbox           |
|  \\    /   O peration     | Version:  2.4.x                                 |
|   \\  /    A nd           | Web:      www.OpenFOAM.org                      |
|    \\/     M anipulation  |                                                 |
\*---------------------------------------------------------------------------*/
FoamFile
{
    version     2.0;
    format      ascii;
    class       surfaceScalarField;
    location    "4.5";
    object      phib_0;
}
// * * * * * * * * * * * * * * * * * * * * * * * * * * * * * * * * * * * * * //

dimensions      [0 3 -1 0 0 0 0];

internalField   nonuniform List<scalar> 
359
(
8.7395e-13
2.44649e-12
3.92243e-12
5.27676e-12
6.62501e-12
8.01149e-12
9.43281e-12
1.08753e-11
1.23282e-11
1.37906e-11
1.52662e-11
1.67584e-11
1.82697e-11
1.98006e-11
2.13517e-11
2.29246e-11
2.45217e-11
2.61454e-11
2.77966e-11
2.94757e-11
3.11784e-11
3.28992e-11
3.46289e-11
3.63558e-11
3.80685e-11
3.97587e-11
4.14256e-11
4.30815e-11
4.4753e-11
4.64866e-11
4.83518e-11
5.04464e-11
5.28864e-11
5.57804e-11
5.91213e-11
6.26504e-11
6.58144e-11
6.80632e-11
6.92707e-11
6.97514e-11
6.9897e-11
6.99328e-11
6.99399e-11
6.994e-11
6.99384e-11
6.99359e-11
6.99333e-11
6.99304e-11
6.9927e-11
6.99235e-11
6.99199e-11
6.99161e-11
6.99121e-11
6.99078e-11
6.99033e-11
6.98984e-11
6.98932e-11
6.98876e-11
6.98818e-11
6.98755e-11
6.9869e-11
6.98622e-11
6.98552e-11
6.9848e-11
6.98406e-11
6.9833e-11
6.98251e-11
6.98169e-11
6.98084e-11
6.97996e-11
6.97904e-11
6.97809e-11
6.97712e-11
6.97611e-11
6.97508e-11
6.97403e-11
6.97297e-11
6.97188e-11
6.97077e-11
6.96963e-11
6.96846e-11
6.96725e-11
6.96601e-11
6.96474e-11
6.96344e-11
6.96211e-11
6.96075e-11
6.95936e-11
6.95795e-11
6.9565e-11
6.95502e-11
6.95351e-11
6.95195e-11
6.95036e-11
6.94873e-11
6.94706e-11
6.94535e-11
6.9436e-11
6.94181e-11
6.93997e-11
6.93808e-11
6.93614e-11
6.93416e-11
6.93212e-11
6.93003e-11
6.92788e-11
6.92567e-11
6.92339e-11
6.92106e-11
6.91866e-11
6.91618e-11
6.91363e-11
6.91101e-11
6.9083e-11
6.90551e-11
6.90263e-11
6.89966e-11
6.8966e-11
6.89343e-11
6.89017e-11
6.88679e-11
6.8833e-11
6.87969e-11
6.87595e-11
6.87209e-11
6.86808e-11
6.86392e-11
6.8596e-11
6.85509e-11
6.85039e-11
6.84549e-11
6.84037e-11
6.83498e-11
6.82927e-11
6.8232e-11
6.8168e-11
6.81004e-11
6.8027e-11
6.79441e-11
6.78517e-11
6.7758e-11
6.7658e-11
6.75332e-11
6.73766e-11
6.7144e-11
6.64685e-11
5.98419e-11
-1.65619e-10
-2.07575e-10
-2.08097e-10
-2.03236e-10
-1.98922e-10
-1.96341e-10
-1.94948e-10
-1.93715e-10
-1.91659e-10
-1.88091e-10
-1.82688e-10
-1.75437e-10
-1.66543e-10
-1.5633e-10
-1.45174e-10
-1.33443e-10
-1.21471e-10
-1.09545e-10
-9.78981e-11
-8.67118e-11
-7.61203e-11
-6.62172e-11
-5.70612e-11
-4.86725e-11
-4.10239e-11
-3.40486e-11
-2.76937e-11
-2.19924e-11
-1.70687e-11
-1.30419e-11
-9.9229e-12
-7.60186e-12
-5.90917e-12
-4.6781e-12
-3.77448e-12
-3.10034e-12
-2.58693e-12
-2.1865e-12
-1.86553e-12
-1.60002e-12
-1.3723e-12
-1.17007e-12
-9.87539e-13
-8.2622e-13
-6.90803e-13
-5.82037e-13
-4.94558e-13
-4.21804e-13
-3.60397e-13
-3.09019e-13
-2.66021e-13
-2.29477e-13
-1.98126e-13
-1.7161e-13
-1.49093e-13
-1.29363e-13
-1.11458e-13
-9.6019e-14
-8.34145e-14
-7.21852e-14
-6.16524e-14
-5.28791e-14
-4.56607e-14
-3.89733e-14
-3.31247e-14
-2.83049e-14
-2.3969e-14
-2.02253e-14
-1.72047e-14
-1.44305e-14
-1.19411e-14
-1.0036e-14
-8.37727e-15
-6.8321e-15
-5.6017e-15
-4.56396e-15
-3.6809e-15
-2.97119e-15
-2.34072e-15
-1.84197e-15
-1.45479e-15
-1.1039e-15
-8.29167e-16
-6.2019e-16
-4.68414e-16
-3.81481e-16
-3.23672e-16
-2.60884e-16
-1.74204e-16
2.74284e-16
-8.07179e-18
-7.86848e-18
-7.68176e-18
-7.47411e-18
-7.28179e-18
-7.0698e-18
-6.88218e-18
-6.67989e-18
-6.47909e-18
-6.26153e-18
-6.08311e-18
-5.86265e-18
-5.65507e-18
-5.44861e-18
-5.23651e-18
-5.00881e-18
-4.7917e-18
-4.56111e-18
-4.34005e-18
-4.1106e-18
-3.89007e-18
-3.66233e-18
-3.4447e-18
-3.22607e-18
-3.02054e-18
-2.81953e-18
-2.64046e-18
-2.47916e-18
-2.34008e-18
-2.14158e-18
-2.02596e-18
-1.92064e-18
-1.82189e-18
-1.72728e-18
-1.63847e-18
-1.56063e-18
-1.48626e-18
-1.41374e-18
-1.33993e-18
-1.26997e-18
-1.19835e-18
-1.12669e-18
-1.05488e-18
-9.91941e-19
-9.30258e-19
-8.69523e-19
-8.07972e-19
-7.47531e-19
-6.87436e-19
-6.21678e-19
-5.6036e-19
-4.99268e-19
-4.39906e-19
-3.79623e-19
-3.22546e-19
-2.63423e-19
-2.07975e-19
-1.54162e-19
-1.06811e-19
-8.16485e-20
-5.17699e-20
-2.39312e-20
3.30426e-20
5.85429e-20
7.80941e-20
9.72616e-20
1.10324e-19
1.33429e-19
1.48447e-19
1.64458e-19
1.69715e-19
1.83718e-19
1.86451e-19
1.89627e-19
1.87069e-19
1.975e-19
2.04259e-19
2.108e-19
2.13131e-19
2.19274e-19
2.21066e-19
2.23743e-19
2.24412e-19
2.31923e-19
2.38652e-19
2.46214e-19
2.54523e-19
2.69069e-19
2.86446e-19
3.15153e-19
3.72544e-19
5.07561e-19
6.74602e-19
8.53241e-19
1.03901e-18
1.23116e-18
1.42474e-18
1.62117e-18
1.80834e-18
2.03769e-18
2.23831e-18
2.4405e-18
2.59085e-18
2.80575e-18
2.92568e-18
3.06324e-18
3.09932e-18
3.46969e-18
3.65009e-18
3.83978e-18
3.73581e-18
3.85974e-18
3.61883e-18
3.3773e-18
2.91959e-18
2.55773e-18
1.97771e-18
1.38495e-18
9.2106e-19
-4.75145e-19
-9.90847e-20
1.44892e-18
)
;

boundaryField
{
    inandouthalf11
    {
        type            cyclic;
        value           nonuniform List<scalar> 
100
(
2.89813e-11
2.89333e-11
2.89552e-11
2.90184e-11
2.90806e-11
2.91391e-11
2.91984e-11
2.92591e-11
2.93205e-11
2.93828e-11
2.94463e-11
2.95107e-11
2.95763e-11
2.96429e-11
2.97107e-11
2.97797e-11
2.98502e-11
2.99222e-11
2.99958e-11
3.0071e-11
3.01477e-11
3.02259e-11
3.03051e-11
3.03848e-11
3.04646e-11
3.0544e-11
3.06227e-11
3.07012e-11
3.07801e-11
3.08612e-11
3.09472e-11
3.10422e-11
3.11511e-11
3.12801e-11
3.14323e-11
3.16024e-11
3.17696e-11
3.19032e-11
3.19846e-11
3.20214e-11
3.20348e-11
3.20397e-11
3.20423e-11
3.20447e-11
3.20469e-11
3.20493e-11
3.20519e-11
3.20545e-11
3.20575e-11
3.20608e-11
3.20642e-11
3.20679e-11
3.20718e-11
3.20761e-11
3.20804e-11
3.20854e-11
3.20903e-11
3.20958e-11
3.21015e-11
3.21073e-11
3.21137e-11
3.21201e-11
3.21268e-11
3.21337e-11
3.21407e-11
3.21479e-11
3.21553e-11
3.2163e-11
3.2171e-11
3.21792e-11
3.21879e-11
3.21969e-11
3.2206e-11
3.22155e-11
3.22253e-11
3.22353e-11
3.22455e-11
3.22559e-11
3.22665e-11
3.22774e-11
3.22886e-11
3.23001e-11
3.23119e-11
3.2324e-11
3.23364e-11
3.23491e-11
3.23621e-11
3.23754e-11
3.2389e-11
3.24029e-11
3.2417e-11
3.24315e-11
3.24464e-11
3.24616e-11
3.24771e-11
3.2493e-11
3.25093e-11
3.2526e-11
3.25431e-11
3.25606e-11
)
;
    }
    inandouthalf12
    {
        type            cyclic;
        value           nonuniform List<scalar> 
100
(
-2.89813e-11
-2.89333e-11
-2.89552e-11
-2.90184e-11
-2.90806e-11
-2.91391e-11
-2.91984e-11
-2.92591e-11
-2.93205e-11
-2.93828e-11
-2.94463e-11
-2.95107e-11
-2.95763e-11
-2.96429e-11
-2.97107e-11
-2.97797e-11
-2.98502e-11
-2.99222e-11
-2.99958e-11
-3.0071e-11
-3.01477e-11
-3.02259e-11
-3.03051e-11
-3.03848e-11
-3.04646e-11
-3.0544e-11
-3.06227e-11
-3.07012e-11
-3.07801e-11
-3.08612e-11
-3.09472e-11
-3.10422e-11
-3.11511e-11
-3.12801e-11
-3.14323e-11
-3.16024e-11
-3.17696e-11
-3.19032e-11
-3.19846e-11
-3.20214e-11
-3.20348e-11
-3.20397e-11
-3.20423e-11
-3.20447e-11
-3.20469e-11
-3.20493e-11
-3.20519e-11
-3.20545e-11
-3.20575e-11
-3.20608e-11
-3.20642e-11
-3.20679e-11
-3.20718e-11
-3.20761e-11
-3.20804e-11
-3.20854e-11
-3.20903e-11
-3.20958e-11
-3.21015e-11
-3.21073e-11
-3.21137e-11
-3.21201e-11
-3.21268e-11
-3.21337e-11
-3.21407e-11
-3.21479e-11
-3.21553e-11
-3.2163e-11
-3.2171e-11
-3.21792e-11
-3.21879e-11
-3.21969e-11
-3.2206e-11
-3.22155e-11
-3.22253e-11
-3.22353e-11
-3.22455e-11
-3.22559e-11
-3.22665e-11
-3.22774e-11
-3.22886e-11
-3.23001e-11
-3.23119e-11
-3.2324e-11
-3.23364e-11
-3.23491e-11
-3.23621e-11
-3.23754e-11
-3.2389e-11
-3.24029e-11
-3.2417e-11
-3.24315e-11
-3.24464e-11
-3.24616e-11
-3.24771e-11
-3.2493e-11
-3.25093e-11
-3.2526e-11
-3.25431e-11
-3.25606e-11
)
;
    }
    inandouthalf21
    {
        type            cyclic;
        value           nonuniform List<scalar> 
100
(
3.25785e-11
3.25968e-11
3.26156e-11
3.26349e-11
3.26546e-11
3.26749e-11
3.26957e-11
3.2717e-11
3.27389e-11
3.27614e-11
3.27845e-11
3.28082e-11
3.28326e-11
3.28577e-11
3.28836e-11
3.29102e-11
3.29377e-11
3.29659e-11
3.29951e-11
3.30252e-11
3.30563e-11
3.30883e-11
3.31215e-11
3.31558e-11
3.31912e-11
3.32279e-11
3.3266e-11
3.33055e-11
3.33465e-11
3.33893e-11
3.34338e-11
3.34802e-11
3.35286e-11
3.35797e-11
3.3634e-11
3.36915e-11
3.37519e-11
3.38161e-11
3.38872e-11
3.39689e-11
3.40578e-11
3.41424e-11
3.42432e-11
3.43743e-11
3.45361e-11
3.48529e-11
7.56748e-11
1.85637e-08
1.22798e-07
2.2204e-07
3.01405e-07
3.67311e-07
4.23362e-07
4.71791e-07
5.14156e-07
5.51612e-07
5.85039e-07
6.15125e-07
6.42409e-07
6.67323e-07
6.90211e-07
7.11349e-07
7.30962e-07
7.49231e-07
7.66302e-07
7.82296e-07
7.9731e-07
8.11424e-07
8.24701e-07
8.37191e-07
8.48935e-07
8.59961e-07
8.70291e-07
8.79938e-07
8.8891e-07
8.97209e-07
9.04835e-07
9.11787e-07
9.18066e-07
9.23679e-07
9.28637e-07
9.3296e-07
9.36679e-07
9.39831e-07
9.42462e-07
9.44621e-07
9.46359e-07
9.47728e-07
9.48774e-07
9.4954e-07
9.50063e-07
9.50377e-07
9.50508e-07
9.5048e-07
9.50311e-07
9.50019e-07
9.49616e-07
9.49114e-07
9.48523e-07
9.47851e-07
)
;
    }
    inandouthalf22
    {
        type            cyclic;
        value           nonuniform List<scalar> 
100
(
-3.25785e-11
-3.25968e-11
-3.26156e-11
-3.26349e-11
-3.26546e-11
-3.26749e-11
-3.26957e-11
-3.2717e-11
-3.27389e-11
-3.27614e-11
-3.27845e-11
-3.28082e-11
-3.28326e-11
-3.28577e-11
-3.28836e-11
-3.29102e-11
-3.29377e-11
-3.29659e-11
-3.29951e-11
-3.30252e-11
-3.30563e-11
-3.30883e-11
-3.31215e-11
-3.31558e-11
-3.31912e-11
-3.32279e-11
-3.3266e-11
-3.33055e-11
-3.33465e-11
-3.33893e-11
-3.34338e-11
-3.34802e-11
-3.35286e-11
-3.35797e-11
-3.3634e-11
-3.36915e-11
-3.37519e-11
-3.38161e-11
-3.38872e-11
-3.39689e-11
-3.40578e-11
-3.41424e-11
-3.42432e-11
-3.43743e-11
-3.45361e-11
-3.48529e-11
-7.56748e-11
-1.85637e-08
-1.22798e-07
-2.2204e-07
-3.01405e-07
-3.67311e-07
-4.23362e-07
-4.71791e-07
-5.14156e-07
-5.51612e-07
-5.85039e-07
-6.15125e-07
-6.42409e-07
-6.67323e-07
-6.90211e-07
-7.11349e-07
-7.30962e-07
-7.49231e-07
-7.66302e-07
-7.82296e-07
-7.9731e-07
-8.11424e-07
-8.24701e-07
-8.37191e-07
-8.48935e-07
-8.59961e-07
-8.70291e-07
-8.79938e-07
-8.8891e-07
-8.97209e-07
-9.04835e-07
-9.11787e-07
-9.18066e-07
-9.23679e-07
-9.28637e-07
-9.3296e-07
-9.36679e-07
-9.39831e-07
-9.42462e-07
-9.44621e-07
-9.46359e-07
-9.47728e-07
-9.48774e-07
-9.4954e-07
-9.50063e-07
-9.50377e-07
-9.50508e-07
-9.5048e-07
-9.50311e-07
-9.50019e-07
-9.49616e-07
-9.49114e-07
-9.48523e-07
-9.47851e-07
)
;
    }
    inandouthalf31
    {
        type            cyclic;
        value           nonuniform List<scalar> 
110
(
9.47108e-07
9.65492e-07
9.84148e-07
1.00308e-06
1.02228e-06
1.04176e-06
1.06152e-06
1.08157e-06
1.10189e-06
1.12251e-06
1.14341e-06
1.16461e-06
1.18609e-06
1.20787e-06
1.22994e-06
1.25231e-06
1.27499e-06
1.29796e-06
1.32124e-06
1.34482e-06
1.36871e-06
1.39292e-06
1.41744e-06
1.44227e-06
1.46744e-06
1.49293e-06
1.51875e-06
1.54492e-06
1.57143e-06
1.59831e-06
1.62556e-06
1.6532e-06
1.68124e-06
1.70971e-06
1.73863e-06
1.76805e-06
1.798e-06
1.82855e-06
1.85977e-06
1.89178e-06
1.92473e-06
1.95888e-06
1.99485e-06
2.03415e-06
2.07536e-06
2.11747e-06
2.16045e-06
2.20429e-06
2.24903e-06
2.29468e-06
2.34125e-06
2.38877e-06
2.43725e-06
2.48672e-06
2.53719e-06
2.58869e-06
2.64123e-06
2.69484e-06
2.74954e-06
2.80535e-06
2.86229e-06
2.92038e-06
2.97966e-06
3.04014e-06
3.10185e-06
3.1648e-06
3.22904e-06
3.29458e-06
3.36145e-06
3.42968e-06
3.4993e-06
3.57032e-06
3.64279e-06
3.71673e-06
3.79217e-06
3.86914e-06
3.94767e-06
4.0278e-06
4.10955e-06
4.19297e-06
4.27807e-06
4.36491e-06
4.4535e-06
4.5439e-06
4.63613e-06
4.73023e-06
4.82624e-06
4.9242e-06
5.02415e-06
5.12612e-06
5.23017e-06
5.33633e-06
5.44464e-06
5.55515e-06
5.66791e-06
5.78295e-06
5.90033e-06
6.02009e-06
6.14228e-06
6.26695e-06
6.39416e-06
6.52394e-06
6.65636e-06
6.79147e-06
6.92931e-06
7.06996e-06
7.21346e-06
7.35988e-06
7.50926e-06
7.66168e-06
)
;
    }
    inandouthalf32
    {
        type            cyclic;
        value           nonuniform List<scalar> 
110
(
-9.47108e-07
-9.65492e-07
-9.84148e-07
-1.00308e-06
-1.02228e-06
-1.04176e-06
-1.06152e-06
-1.08157e-06
-1.10189e-06
-1.12251e-06
-1.14341e-06
-1.16461e-06
-1.18609e-06
-1.20787e-06
-1.22994e-06
-1.25231e-06
-1.27499e-06
-1.29796e-06
-1.32124e-06
-1.34482e-06
-1.36871e-06
-1.39292e-06
-1.41744e-06
-1.44227e-06
-1.46744e-06
-1.49293e-06
-1.51875e-06
-1.54492e-06
-1.57143e-06
-1.59831e-06
-1.62556e-06
-1.6532e-06
-1.68124e-06
-1.70971e-06
-1.73863e-06
-1.76805e-06
-1.798e-06
-1.82855e-06
-1.85977e-06
-1.89178e-06
-1.92473e-06
-1.95888e-06
-1.99485e-06
-2.03415e-06
-2.07536e-06
-2.11747e-06
-2.16045e-06
-2.20429e-06
-2.24903e-06
-2.29468e-06
-2.34125e-06
-2.38877e-06
-2.43725e-06
-2.48672e-06
-2.53719e-06
-2.58869e-06
-2.64123e-06
-2.69484e-06
-2.74954e-06
-2.80535e-06
-2.86229e-06
-2.92038e-06
-2.97966e-06
-3.04014e-06
-3.10185e-06
-3.1648e-06
-3.22904e-06
-3.29458e-06
-3.36145e-06
-3.42968e-06
-3.4993e-06
-3.57032e-06
-3.64279e-06
-3.71673e-06
-3.79217e-06
-3.86914e-06
-3.94767e-06
-4.0278e-06
-4.10955e-06
-4.19297e-06
-4.27807e-06
-4.36491e-06
-4.4535e-06
-4.5439e-06
-4.63613e-06
-4.73023e-06
-4.82624e-06
-4.9242e-06
-5.02415e-06
-5.12612e-06
-5.23017e-06
-5.33633e-06
-5.44464e-06
-5.55515e-06
-5.66791e-06
-5.78295e-06
-5.90033e-06
-6.02009e-06
-6.14228e-06
-6.26695e-06
-6.39416e-06
-6.52394e-06
-6.65636e-06
-6.79147e-06
-6.92931e-06
-7.06996e-06
-7.21346e-06
-7.35988e-06
-7.50926e-06
-7.66168e-06
)
;
    }
    inandouthalf41
    {
        type            cyclic;
        value           nonuniform List<scalar> 
50
(
6.85798e-06
6.85798e-06
6.85798e-06
6.85798e-06
6.85798e-06
6.85798e-06
6.85798e-06
6.85798e-06
6.85798e-06
6.85798e-06
6.85798e-06
6.85798e-06
6.85798e-06
6.85798e-06
6.85798e-06
6.85798e-06
6.85798e-06
6.85798e-06
6.85798e-06
6.85798e-06
6.85798e-06
6.85798e-06
6.85798e-06
6.85798e-06
6.85798e-06
6.85798e-06
6.85798e-06
6.85798e-06
6.85798e-06
6.85798e-06
6.85798e-06
6.85798e-06
6.85798e-06
6.85798e-06
6.85798e-06
6.85798e-06
6.85798e-06
6.85798e-06
6.85798e-06
6.85798e-06
6.85798e-06
6.85798e-06
6.85798e-06
6.85798e-06
6.85798e-06
6.85798e-06
6.85798e-06
6.85798e-06
6.85798e-06
6.85798e-06
)
;
    }
    inandouthalf42
    {
        type            cyclic;
        value           nonuniform List<scalar> 
50
(
-6.85798e-06
-6.85798e-06
-6.85798e-06
-6.85798e-06
-6.85798e-06
-6.85798e-06
-6.85798e-06
-6.85798e-06
-6.85798e-06
-6.85798e-06
-6.85798e-06
-6.85798e-06
-6.85798e-06
-6.85798e-06
-6.85798e-06
-6.85798e-06
-6.85798e-06
-6.85798e-06
-6.85798e-06
-6.85798e-06
-6.85798e-06
-6.85798e-06
-6.85798e-06
-6.85798e-06
-6.85798e-06
-6.85798e-06
-6.85798e-06
-6.85798e-06
-6.85798e-06
-6.85798e-06
-6.85798e-06
-6.85798e-06
-6.85798e-06
-6.85798e-06
-6.85798e-06
-6.85798e-06
-6.85798e-06
-6.85798e-06
-6.85798e-06
-6.85798e-06
-6.85798e-06
-6.85798e-06
-6.85798e-06
-6.85798e-06
-6.85798e-06
-6.85798e-06
-6.85798e-06
-6.85798e-06
-6.85798e-06
-6.85798e-06
)
;
    }
    top
    {
        type            symmetryPlane;
        value           uniform 0;
    }
    walls
    {
        type            fixedValue;
        value           uniform 0;
    }
    frontAndBackPlanes
    {
        type            empty;
        value           nonuniform 0();
    }
}


// ************************************************************************* //
