/*--------------------------------*- C++ -*----------------------------------*\
| =========                 |                                                 |
| \\      /  F ield         | OpenFOAM: The Open Source CFD Toolbox           |
|  \\    /   O peration     | Version:  2.4.x                                 |
|   \\  /    A nd           | Web:      www.OpenFOAM.org                      |
|    \\/     M anipulation  |                                                 |
\*---------------------------------------------------------------------------*/
FoamFile
{
    version     2.0;
    format      ascii;
    class       volVectorField;
    location    "4.5";
    object      susb;
}
// * * * * * * * * * * * * * * * * * * * * * * * * * * * * * * * * * * * * * //

dimensions      [0 1 -2 0 0 0 0];

internalField   nonuniform List<vector> 
360
(
(0 4.08881e-18 0)
(0 5.13026e-18 0)
(0 6.92652e-19 0)
(0 -6.87135e-19 0)
(-3.68312e-31 -5.58488e-19 0)
(-7.36478e-31 -3.82383e-19 0)
(-7.36351e-31 -3.56148e-19 0)
(0 -3.50975e-19 0)
(-3.6805e-31 -3.52307e-19 0)
(0 -3.69205e-19 0)
(-3.67917e-31 -3.81124e-19 0)
(0 -3.8579e-19 0)
(-3.67779e-31 -3.86733e-19 0)
(0 -3.86004e-19 0)
(0 -3.89176e-19 0)
(0 -3.94929e-19 0)
(0 -4.00403e-19 0)
(-3.67427e-31 -4.04999e-19 0)
(0 -4.1208e-19 0)
(0 -4.15713e-19 0)
(0 -4.18961e-19 0)
(-7.3426e-31 -4.24229e-19 0)
(0 -4.24832e-19 0)
(0 -4.2359e-19 0)
(0 -4.1974e-19 0)
(-7.33657e-31 -4.12976e-19 0)
(0 -4.0931e-19 0)
(0 -4.08374e-19 0)
(0 -4.09872e-19 0)
(0 -4.21567e-19 0)
(0 -4.51645e-19 0)
(0 -4.95717e-19 0)
(0 -5.67458e-19 0)
(0 -6.56546e-19 0)
(0 -7.34944e-19 0)
(3.6591e-31 -7.63903e-19 0)
(0 -6.92754e-19 0)
(0 -5.32823e-19 0)
(0 -3.36662e-19 0)
(0 -1.98379e-19 0)
(0 -1.36727e-19 0)
(0 -1.0868e-19 0)
(3.65476e-31 -1.13193e-19 0)
(0 -1.23035e-19 0)
(0 -1.27894e-19 0)
(0 -1.39448e-19 0)
(0 -1.44097e-19 0)
(0 -1.54892e-19 0)
(0 -1.77586e-19 0)
(0 -1.86879e-19 0)
(3.65259e-31 -1.96412e-19 0)
(0 -2.11954e-19 0)
(0 -2.26375e-19 0)
(0 -2.39743e-19 0)
(0 -2.57986e-19 0)
(0 -2.74585e-19 0)
(0 -2.89646e-19 0)
(0 -3.08826e-19 0)
(0 -3.19395e-19 0)
(0 -3.38869e-19 0)
(0 -3.54099e-19 0)
(0 -3.64817e-19 0)
(0 -3.76923e-19 0)
(0 -3.84409e-19 0)
(0 -3.93667e-19 0)
(0 -4.05033e-19 0)
(0 -4.19678e-19 0)
(0 -4.33519e-19 0)
(0 -4.46612e-19 0)
(0 -4.66019e-19 0)
(0 -4.88324e-19 0)
(0 -5.00135e-19 0)
(0 -5.14899e-19 0)
(0 -5.31812e-19 0)
(0 -5.45106e-19 0)
(0 -5.56202e-19 0)
(0 -5.65195e-19 0)
(0 -5.78408e-19 0)
(0 -5.92377e-19 0)
(0 -6.05709e-19 0)
(0 -6.20818e-19 0)
(0 -6.38322e-19 0)
(0 -6.55068e-19 0)
(0 -6.7169e-19 0)
(0 -6.87874e-19 0)
(0 -7.03601e-19 0)
(0 -7.18606e-19 0)
(0 -7.32882e-19 0)
(0 -7.48005e-19 0)
(0 -7.63762e-19 0)
(0 -7.79984e-19 0)
(0 -7.97382e-19 0)
(0 -8.15779e-19 0)
(0 -8.34585e-19 0)
(0 -8.53848e-19 0)
(0 -8.73483e-19 0)
(0 -8.93393e-19 0)
(0 -9.13658e-19 0)
(0 -9.34472e-19 0)
(0 -9.55923e-19 0)
(0 -9.78081e-19 0)
(0 -1.00107e-18 0)
(0 -1.02492e-18 0)
(0 -1.04961e-18 0)
(0 -1.0752e-18 0)
(0 -1.10175e-18 0)
(0 -1.12931e-18 0)
(0 -1.15796e-18 0)
(0 -1.18779e-18 0)
(0 -1.21887e-18 0)
(0 -1.25127e-18 0)
(0 -1.28505e-18 0)
(0 -1.32028e-18 0)
(0 -1.35703e-18 0)
(0 -1.39538e-18 0)
(0 -1.43541e-18 0)
(0 -1.47722e-18 0)
(0 -1.52089e-18 0)
(0 -1.56655e-18 0)
(0 -1.61431e-18 0)
(0 -1.66427e-18 0)
(0 -1.71653e-18 0)
(0 -1.77116e-18 0)
(0 -1.82834e-18 0)
(0 -1.88848e-18 0)
(0 -1.95237e-18 0)
(0 -2.02113e-18 0)
(0 -2.09582e-18 0)
(0 -2.17654e-18 0)
(0 -2.2619e-18 0)
(0 -2.35065e-18 0)
(0 -2.44679e-18 0)
(0 -2.51614e-18 0)
(0 -2.98456e-18 0)
(0 -1.92082e-17 0)
(0 -1.46276e-16 0)
(0 -1.17866e-15 0)
(0 -1.03253e-14 0)
(0 -1.00698e-13 0)
(0 -1.05724e-12 0)
(0 -1.12674e-11 0)
(0 -1.43643e-10 0)
(0 -2.49348e-09 0)
(0 -5.18429e-08 0)
(0 -1.53842e-06 0)
(0 -0.000109126 0)
(0 -0.0781047 0)
(0 -1.83251 0)
(0 -2.93058 0)
(0 -1.55847 0)
(0 -1.05331 0)
(0 -0.931129 0)
(0 -0.833418 0)
(0 -0.741233 0)
(0 -0.650051 0)
(0 -0.561676 0)
(0 -0.479024 0)
(0 -0.404325 0)
(0 -0.338682 0)
(0 -0.282205 0)
(0 -0.234342 0)
(0 -0.194192 0)
(0 -0.160738 0)
(0 -0.132971 0)
(0 -0.109973 0)
(0 -0.0909396 0)
(0 -0.0751874 0)
(0 -0.0621435 0)
(0 -0.0513332 0)
(0 -0.0423704 0)
(0 -0.0349548 0)
(0 -0.0288592 0)
(0 -0.023886 0)
(0 -0.0198012 0)
(0 -0.0163222 0)
(0 -0.0132145 0)
(0 -0.010404 0)
(0 -0.00796358 0)
(0 -0.00598638 0)
(0 -0.00448727 0)
(0 -0.00340158 0)
(0 -0.00263285 0)
(0 -0.00209129 0)
(0 -0.00170808 0)
(0 -0.00143506 0)
(0 -0.00124 0)
(0 -0.00110206 0)
(0 -0.00100763 0)
(0 -0.000943515 0)
(0 -0.000887313 0)
(0 -0.000809904 0)
(0 -0.000699136 0)
(0 -0.000576798 0)
(0 -0.000476259 0)
(0 -0.000405785 0)
(0 -0.000349774 0)
(0 -0.000298112 0)
(0 -0.000253635 0)
(0 -0.000218702 0)
(0 -0.000189916 0)
(0 -0.000162152 0)
(0 -0.000136009 0)
(-4.62006e-20 -0.000117736 0)
(0 -0.000105369 0)
(0 -8.91977e-05 0)
(2.18357e-20 -7.13637e-05 0)
(0 -6.25408e-05 0)
(-2.08322e-20 -5.75159e-05 0)
(0 -4.66384e-05 0)
(1.97216e-20 -3.74295e-05 0)
(0 -3.39041e-05 0)
(0 -2.87794e-05 0)
(0 -2.29875e-05 0)
(8.62118e-21 -2.01067e-05 0)
(0 -1.67512e-05 0)
(0 -1.30044e-05 0)
(0 -1.15906e-05 0)
(0 -9.99729e-06 0)
(0 -7.26729e-06 0)
(-1.63336e-21 -6.09423e-06 0)
(0 -5.44246e-06 0)
(0 -4.09597e-06 0)
(0 -3.28399e-06 0)
(-6.31173e-22 -2.6352e-06 0)
(0 -1.98735e-06 0)
(0 -1.66768e-06 0)
(0 -1.21626e-06 0)
(0 -8.73121e-07 0)
(2.01217e-22 -7.48885e-07 0)
(1.8959e-22 -5.65464e-07 0)
(0 -4.30547e-07 0)
(0 -3.08862e-07 0)
(0 -1.63665e-07 0)
(0 -1.05185e-07 0)
(0 -1.29248e-07 0)
(0 -1.84906e-07 0)
(0 -2.24164e-07 0)
(0 -1.1207e-07 0)
(0 -3.80493e-16 0)
(0 -3.84435e-17 0)
(0 -3.59069e-17 0)
(0 -3.06916e-17 0)
(0 -8.85511e-18 0)
(-4.07467e-35 -3.88353e-19 0)
(6.70238e-37 -2.45135e-21 0)
(0 -1.36053e-23 0)
(0 -8.63257e-26 0)
(-6.18241e-43 -7.87113e-28 0)
(0 -1.1748e-29 0)
(0 -1.78763e-31 0)
(-1.57413e-49 -1.47323e-33 0)
(0 -5.6244e-35 0)
(0 -1.71488e-35 0)
(0 -6.16138e-36 0)
(0 -2.57875e-36 0)
(0 -1.21133e-36 0)
(0 -6.16714e-37 0)
(0 -3.68658e-37 0)
(0 -2.97118e-37 0)
(0 -2.94091e-37 0)
(0 -2.67469e-37 0)
(0 -1.64301e-37 0)
(0 -6.55621e-38 0)
(0 -2.83782e-38 0)
(0 -1.39485e-38 0)
(0 -8.05405e-39 0)
(2.19251e-54 -6.25859e-39 0)
(0 -4.736e-39 0)
(0 -2.42584e-39 0)
(0 -9.84359e-40 0)
(0 -4.68807e-40 0)
(0 -2.43267e-40 0)
(0 -1.34169e-40 0)
(0 -6.97927e-41 0)
(0 -3.32351e-41 0)
(0 -1.62797e-41 0)
(0 -7.87192e-42 0)
(0 -3.72604e-42 0)
(0 -1.72414e-42 0)
(0 -7.79196e-43 0)
(0 -3.43592e-43 0)
(0 -1.47675e-43 0)
(0 -6.17956e-44 0)
(0 -2.51465e-44 0)
(0 -9.9384e-45 0)
(0 -3.80963e-45 0)
(3.49741e-61 -1.41429e-45 0)
(0 -5.0769e-46 0)
(0 -1.75919e-46 0)
(0 -5.87313e-47 0)
(0 -1.8853e-47 0)
(0 -5.80587e-48 0)
(0 -1.71102e-48 0)
(0 -4.81222e-49 0)
(0 -1.28767e-49 0)
(0 -3.2669e-50 0)
(1.09129e-66 -7.82773e-51 0)
(0 -1.76346e-51 0)
(0 -3.71612e-52 0)
(-8.02692e-69 -7.28108e-53 0)
(0 -1.31704e-53 0)
(0 -2.18069e-54 0)
(0 -3.27074e-55 0)
(0 -4.38608e-56 0)
(0 -5.1708e-57 0)
(0 -5.23919e-58 0)
(0 -4.41896e-59 0)
(0 -2.95522e-60 0)
(0 -1.4415e-61 0)
(0 -4.29187e-63 0)
(0 -4.06001e-65 0)
(0 -4.69564e-68 0)
(0 -6.8908e-70 0)
(0 -5.01778e-72 0)
(0 -8.87683e-83 0)
(0 -7.94958e-94 0)
(0 -5.32314e-105 0)
(0 -2.63309e-116 0)
(0 -1.13001e-127 0)
(0 -3.99836e-139 0)
(0 -1.45765e-150 0)
(0 -5.60861e-159 0)
(0 -1.52161e-169 0)
(0 -1.93308e-177 0)
(0 -4.88956e-188 0)
(0 -6.65011e-196 0)
(0 -2.08263e-206 0)
(0 -2.28738e-214 0)
(0 -9.32081e-225 0)
(0 -7.87437e-233 0)
(0 -6.26397e-243 0)
(0 -2.73803e-251 0)
(0 -4.15742e-261 0)
(0 -9.67064e-270 0)
(0 -2.0906e-279 0)
(0 -3.46748e-288 0)
(0 -9.90408e-298 0)
(0 -1.26155e-306 0)
(0 -4.36738e-316 0)
(0 -0 0)
(0 -0 0)
(0 0 0)
(0 0 0)
(0 0 0)
(0 0 0)
(0 0 0)
(0 0 0)
(0 0 0)
(0 0 0)
(0 0 0)
(0 0 0)
(0 0 0)
(0 0 0)
(0 0 0)
(0 0 0)
(0 0 0)
(0 0 0)
(0 0 0)
(0 0 0)
(0 0 0)
)
;

boundaryField
{
    inandouthalf11
    {
        type            cyclic;
    }
    inandouthalf12
    {
        type            cyclic;
    }
    inandouthalf21
    {
        type            cyclic;
    }
    inandouthalf22
    {
        type            cyclic;
    }
    inandouthalf31
    {
        type            cyclic;
    }
    inandouthalf32
    {
        type            cyclic;
    }
    inandouthalf41
    {
        type            cyclic;
    }
    inandouthalf42
    {
        type            cyclic;
    }
    top
    {
        type            symmetryPlane;
    }
    walls
    {
        type            zeroGradient;
    }
    frontAndBackPlanes
    {
        type            empty;
    }
}


// ************************************************************************* //
