/*--------------------------------*- C++ -*----------------------------------*\
| =========                 |                                                 |
| \\      /  F ield         | OpenFOAM: The Open Source CFD Toolbox           |
|  \\    /   O peration     | Version:  2.4.x                                 |
|   \\  /    A nd           | Web:      www.OpenFOAM.org                      |
|    \\/     M anipulation  |                                                 |
\*---------------------------------------------------------------------------*/
FoamFile
{
    version     2.0;
    format      ascii;
    class       volVectorField;
    location    "4.5";
    object      U;
}
// * * * * * * * * * * * * * * * * * * * * * * * * * * * * * * * * * * * * * //

dimensions      [0 1 -1 0 0 0 0];

internalField   nonuniform List<vector> 
360
(
(-1.12819e-05 4.0519e-08 0)
(-1.12745e-05 -2.25819e-09 0)
(-1.13141e-05 -8.60163e-09 0)
(-1.13715e-05 -1.93534e-09 0)
(-1.14276e-05 1.13034e-09 0)
(-1.14826e-05 1.12297e-09 0)
(-1.15388e-05 6.47962e-10 0)
(-1.15965e-05 3.38879e-10 0)
(-1.16549e-05 2.02204e-10 0)
(-1.17141e-05 2.40337e-10 0)
(-1.17743e-05 3.54566e-10 0)
(-1.18354e-05 4.34779e-10 0)
(-1.18976e-05 4.66422e-10 0)
(-1.19609e-05 4.72788e-10 0)
(-1.20253e-05 4.95377e-10 0)
(-1.2091e-05 5.4699e-10 0)
(-1.2158e-05 6.08069e-10 0)
(-1.22265e-05 6.58028e-10 0)
(-1.22965e-05 6.70604e-10 0)
(-1.23682e-05 6.351e-10 0)
(-1.24413e-05 5.14211e-10 0)
(-1.25158e-05 3.32904e-10 0)
(-1.25913e-05 7.51576e-11 0)
(-1.26674e-05 -2.24042e-10 0)
(-1.27436e-05 -4.89046e-10 0)
(-1.28193e-05 -6.18174e-10 0)
(-1.28945e-05 -5.08389e-10 0)
(-1.29694e-05 -5.22385e-11 0)
(-1.30447e-05 8.08841e-10 0)
(-1.31222e-05 2.18714e-09 0)
(-1.32045e-05 4.17953e-09 0)
(-1.32953e-05 6.87194e-09 0)
(-1.33997e-05 9.87257e-09 0)
(-1.35233e-05 1.19396e-08 0)
(-1.36692e-05 9.58444e-09 0)
(-1.38326e-05 -8.5268e-10 0)
(-1.39934e-05 -1.70241e-08 0)
(-1.41217e-05 -2.70036e-08 0)
(-1.41997e-05 -2.28425e-08 0)
(-1.42345e-05 -1.19507e-08 0)
(-1.42467e-05 -4.17268e-09 0)
(-1.42506e-05 -1.10092e-09 0)
(-1.42522e-05 -2.93327e-10 0)
(-1.42535e-05 -5.64916e-11 0)
(-1.42547e-05 -3.18232e-11 0)
(-1.42559e-05 -1.83401e-11 0)
(-1.42573e-05 6.24514e-12 0)
(-1.42586e-05 -3.135e-11 0)
(-1.42601e-05 -2.76378e-11 0)
(-1.42619e-05 1.23404e-11 0)
(-1.42636e-05 -2.71459e-11 0)
(-1.42655e-05 -5.97311e-12 0)
(-1.42675e-05 -2.4077e-11 0)
(-1.42697e-05 -3.71353e-12 0)
(-1.42719e-05 -4.04932e-11 0)
(-1.42745e-05 2.35995e-13 0)
(-1.4277e-05 -3.65826e-11 0)
(-1.42798e-05 -1.312e-11 0)
(-1.42828e-05 -1.00435e-11 0)
(-1.42858e-05 -4.08668e-11 0)
(-1.4289e-05 3.23016e-12 0)
(-1.42923e-05 -2.67044e-11 0)
(-1.42958e-05 -1.02922e-12 0)
(-1.42993e-05 -1.22878e-11 0)
(-1.43029e-05 -6.54231e-12 0)
(-1.43066e-05 -1.88332e-11 0)
(-1.43104e-05 -1.66866e-11 0)
(-1.43144e-05 -1.6207e-11 0)
(-1.43185e-05 -1.41864e-11 0)
(-1.43227e-05 -3.5672e-11 0)
(-1.43272e-05 -2.29925e-11 0)
(-1.43318e-05 -2.76627e-12 0)
(-1.43365e-05 -3.2094e-11 0)
(-1.43414e-05 -9.49321e-12 0)
(-1.43464e-05 -2.0911e-11 0)
(-1.43516e-05 -2.87796e-12 0)
(-1.43568e-05 -1.4686e-11 0)
(-1.43622e-05 -1.64168e-11 0)
(-1.43677e-05 -1.73766e-11 0)
(-1.43733e-05 -1.46854e-11 0)
(-1.4379e-05 -2.31003e-11 0)
(-1.43849e-05 -2.22499e-11 0)
(-1.4391e-05 -2.07527e-11 0)
(-1.43973e-05 -2.1852e-11 0)
(-1.44037e-05 -1.94007e-11 0)
(-1.44102e-05 -2.04853e-11 0)
(-1.4417e-05 -1.72715e-11 0)
(-1.44238e-05 -1.8402e-11 0)
(-1.44308e-05 -2.01706e-11 0)
(-1.4438e-05 -2.06633e-11 0)
(-1.44453e-05 -2.18982e-11 0)
(-1.44528e-05 -2.45923e-11 0)
(-1.44604e-05 -2.52512e-11 0)
(-1.44683e-05 -2.60613e-11 0)
(-1.44763e-05 -2.68553e-11 0)
(-1.44845e-05 -2.7395e-11 0)
(-1.44929e-05 -2.78883e-11 0)
(-1.45016e-05 -2.86932e-11 0)
(-1.45104e-05 -2.98067e-11 0)
(-1.45194e-05 -3.09017e-11 0)
(-1.45287e-05 -3.22422e-11 0)
(-1.45381e-05 -3.37488e-11 0)
(-1.45479e-05 -3.51594e-11 0)
(-1.45578e-05 -3.66274e-11 0)
(-1.4568e-05 -3.82129e-11 0)
(-1.45785e-05 -3.98644e-11 0)
(-1.45892e-05 -4.16365e-11 0)
(-1.46002e-05 -4.35503e-11 0)
(-1.46115e-05 -4.55722e-11 0)
(-1.46232e-05 -4.76987e-11 0)
(-1.46351e-05 -4.99297e-11 0)
(-1.46474e-05 -5.22572e-11 0)
(-1.466e-05 -5.46867e-11 0)
(-1.4673e-05 -5.72241e-11 0)
(-1.46863e-05 -5.98706e-11 0)
(-1.47001e-05 -6.26365e-11 0)
(-1.47143e-05 -6.55431e-11 0)
(-1.47289e-05 -6.8612e-11 0)
(-1.4744e-05 -7.18558e-11 0)
(-1.47595e-05 -7.5276e-11 0)
(-1.47756e-05 -7.88592e-11 0)
(-1.47922e-05 -8.25868e-11 0)
(-1.48093e-05 -8.65084e-11 0)
(-1.48271e-05 -9.08694e-11 0)
(-1.48454e-05 -9.61949e-11 0)
(-1.48644e-05 -1.03188e-10 0)
(-1.48841e-05 -1.1227e-10 0)
(-1.49045e-05 -1.22755e-10 0)
(-1.49258e-05 -1.32293e-10 0)
(-1.49479e-05 -1.38462e-10 0)
(-1.4971e-05 -1.44058e-10 0)
(-1.4995e-05 -1.62805e-10 0)
(-1.50201e-05 -2.07403e-10 0)
(-1.50465e-05 -2.54099e-10 0)
(-1.50746e-05 -2.51268e-10 0)
(-1.51044e-05 -2.21882e-10 0)
(-1.51357e-05 -2.89539e-10 0)
(-1.51689e-05 -5.47502e-10 0)
(-1.52057e-05 -8.36772e-10 0)
(-1.52481e-05 -5.41775e-10 0)
(-1.52941e-05 3.73989e-10 0)
(-1.5338e-05 -1.26578e-09 0)
(-1.53902e-05 -2.36956e-09 0)
(-1.54582e-05 -2.3144e-09 0)
(-1.55422e-05 -8.61161e-09 0)
(-1.57021e-05 -4.7705e-08 0)
(-3.23451e-05 -2.88251e-07 0)
(-0.017598 -5.91155e-07 0)
(-0.119757 -1.21218e-05 0)
(-0.219892 1.02157e-06 0)
(-0.299878 -2.57514e-07 0)
(-0.366234 -5.15168e-07 0)
(-0.422586 -4.29194e-07 0)
(-0.471217 -3.96274e-07 0)
(-0.513721 -4.0352e-07 0)
(-0.551272 -4.17304e-07 0)
(-0.584764 -4.23318e-07 0)
(-0.614894 -4.17121e-07 0)
(-0.64221 -3.98393e-07 0)
(-0.667146 -3.69428e-07 0)
(-0.690051 -3.33952e-07 0)
(-0.711202 -2.95259e-07 0)
(-0.730826 -2.56384e-07 0)
(-0.749103 -2.19271e-07 0)
(-0.766181 -1.85026e-07 0)
(-0.782182 -1.54181e-07 0)
(-0.797202 -1.26937e-07 0)
(-0.811322 -1.03306e-07 0)
(-0.824605 -8.31191e-08 0)
(-0.837102 -6.57896e-08 0)
(-0.848852 -5.01788e-08 0)
(-0.859884 -3.52718e-08 0)
(-0.870221 -2.1721e-08 0)
(-0.879874 -1.21404e-08 0)
(-0.888853 -8.08399e-09 0)
(-0.897159 -6.98924e-09 0)
(-0.904791 -4.74516e-09 0)
(-0.91175 -7.01671e-10 0)
(-0.918035 2.75327e-09 0)
(-0.923652 4.05623e-09 0)
(-0.928615 3.65234e-09 0)
(-0.932942 2.65644e-09 0)
(-0.936665 1.74584e-09 0)
(-0.939821 1.09264e-09 0)
(-0.942455 6.55937e-10 0)
(-0.944617 3.69657e-10 0)
(-0.946358 2.11835e-10 0)
(-0.947729 2.03559e-10 0)
(-0.948778 2.83855e-10 0)
(-0.949546 2.31344e-10 0)
(-0.950071 -5.64668e-11 0)
(-0.950386 -3.03677e-10 0)
(-0.950519 -2.08785e-10 0)
(-0.950492 6.3017e-11 0)
(-0.950324 1.3789e-10 0)
(-0.950033 2.10208e-11 0)
(-0.949631 -3.5058e-11 0)
(-0.94913 4.11302e-12 0)
(-0.948539 4.02075e-11 0)
(-0.947868 2.42299e-11 0)
(-0.947122 -3.54392e-11 0)
(-0.9463 -2.54833e-11 0)
(-0.945396 6.19482e-11 0)
(-0.94441 4.28574e-11 0)
(-0.943344 -6.89124e-11 0)
(-0.942198 -3.43881e-11 0)
(-0.940972 9.25773e-11 0)
(-0.939668 8.02245e-12 0)
(-0.938285 -7.64054e-11 0)
(-0.936824 2.99505e-11 0)
(-0.935286 3.95092e-11 0)
(-0.93367 -3.89232e-11 0)
(-0.931979 3.00165e-12 0)
(-0.930211 2.55468e-11 0)
(-0.928368 -2.59276e-11 0)
(-0.92645 -2.46772e-12 0)
(-0.924459 2.84487e-11 0)
(-0.922394 -1.7892e-11 0)
(-0.920258 -1.53459e-11 0)
(-0.91805 2.28221e-11 0)
(-0.915773 -7.42948e-12 0)
(-0.913428 -8.53548e-12 0)
(-0.911016 7.07319e-12 0)
(-0.90854 -7.16365e-12 0)
(-0.906001 9.87138e-13 0)
(-0.903403 1.79491e-12 0)
(-0.900748 -8.43893e-12 0)
(-0.89804 2.73276e-12 0)
(-0.895282 -1.03754e-12 0)
(-0.892479 -3.98505e-12 0)
(-0.889638 -5.66786e-14 0)
(-0.886764 -3.46972e-12 0)
(-0.883865 -2.41742e-12 0)
(-0.880951 4.12159e-13 0)
(-0.878034 4.61957e-12 0)
(-0.875127 -4.47178e-11 0)
(-0.872249 1.10068e-10 0)
(-0.869422 -4.35385e-11 0)
(-0.866676 1.51383e-10 0)
(-0.864054 -2.93694e-10 0)
(-0.861615 4.5852e-10 0)
(-0.859456 -6.59861e-10 0)
(-0.857827 8.76802e-10 0)
(-0.857322 -1.11615e-09 0)
(-0.857289 1.35771e-09 0)
(-0.857286 -1.61263e-09 0)
(-0.857284 1.8672e-09 0)
(-0.857282 -2.13462e-09 0)
(-0.85728 2.40264e-09 0)
(-0.857279 -2.68369e-09 0)
(-0.857278 2.96633e-09 0)
(-0.857277 -3.26215e-09 0)
(-0.857277 3.56053e-09 0)
(-0.857276 -3.87218e-09 0)
(-0.857276 4.18735e-09 0)
(-0.857275 -4.51586e-09 0)
(-0.857275 4.8488e-09 0)
(-0.857275 -5.19508e-09 0)
(-0.857275 5.5467e-09 0)
(-0.857274 -5.91164e-09 0)
(-0.857274 6.28277e-09 0)
(-0.857274 -6.66718e-09 0)
(-0.857274 7.0586e-09 0)
(-0.857274 -7.46326e-09 0)
(-0.857274 7.8757e-09 0)
(-0.857274 -8.30137e-09 0)
(-0.857274 8.73549e-09 0)
(-0.857274 -9.18287e-09 0)
(-0.857274 9.63936e-09 0)
(-0.857274 -1.01092e-08 0)
(-0.857274 1.05886e-08 0)
(-0.857274 -1.10816e-08 0)
(-0.857274 1.15846e-08 0)
(-0.857274 -1.21013e-08 0)
(-0.857274 1.26286e-08 0)
(-0.857274 -1.31696e-08 0)
(-0.857274 1.37217e-08 0)
(-0.857274 -1.42877e-08 0)
(-0.857274 1.48652e-08 0)
(-0.857274 -1.54568e-08 0)
(-0.857274 1.60603e-08 0)
(-0.857274 -1.6678e-08 0)
(-0.857274 1.73081e-08 0)
(-0.857274 -1.79526e-08 0)
(-0.857274 1.86098e-08 0)
(-0.857274 -1.92816e-08 0)
(-0.857274 1.99666e-08 0)
(-0.857274 -2.06662e-08 0)
(-0.857274 2.13795e-08 0)
(-0.857274 -2.21076e-08 0)
(-0.857274 2.28497e-08 0)
(-0.857274 -2.36067e-08 0)
(-0.857274 2.43782e-08 0)
(-0.857274 -2.51648e-08 0)
(-0.857274 2.59661e-08 0)
(-0.857274 -2.67827e-08 0)
(-0.857274 2.76144e-08 0)
(-0.857274 -2.84616e-08 0)
(-0.857274 2.93242e-08 0)
(-0.857274 -3.02024e-08 0)
(-0.857274 3.10962e-08 0)
(-0.857274 -3.20059e-08 0)
(-0.857274 3.29314e-08 0)
(-0.857274 -3.38729e-08 0)
(-0.857274 3.48305e-08 0)
(-0.857274 -3.5804e-08 0)
(-0.857274 3.67939e-08 0)
(-0.857274 -3.77999e-08 0)
(-0.857274 3.88222e-08 0)
(-0.857274 -3.98606e-08 0)
(-0.857274 3.59102e-08 0)
(-0.857274 -3.615e-08 0)
(-0.857274 3.63865e-08 0)
(-0.857274 -3.66194e-08 0)
(-0.857274 3.68491e-08 0)
(-0.857274 -3.70751e-08 0)
(-0.857274 3.72977e-08 0)
(-0.857274 -3.75166e-08 0)
(-0.857274 3.77322e-08 0)
(-0.857274 -3.79439e-08 0)
(-0.857274 3.81522e-08 0)
(-0.857274 -3.83567e-08 0)
(-0.857274 3.85577e-08 0)
(-0.857274 -3.87547e-08 0)
(-0.857274 3.89483e-08 0)
(-0.857274 -3.91378e-08 0)
(-0.857274 3.93239e-08 0)
(-0.857274 -3.95058e-08 0)
(-0.857274 3.96841e-08 0)
(-0.857274 -3.98582e-08 0)
(-0.857274 4.00289e-08 0)
(-0.857274 -4.01949e-08 0)
(-0.857274 4.03579e-08 0)
(-0.857274 -4.05157e-08 0)
(-0.857274 4.06707e-08 0)
(-0.857274 -4.08202e-08 0)
(-0.857274 4.09672e-08 0)
(-0.857274 -4.11081e-08 0)
(-0.857274 4.12469e-08 0)
(-0.857274 -4.13791e-08 0)
(-0.857274 4.15094e-08 0)
(-0.857274 -4.16327e-08 0)
(-0.857274 4.17544e-08 0)
(-0.857274 -4.18686e-08 0)
(-0.857274 4.19813e-08 0)
(-0.857274 -4.2086e-08 0)
(-0.857274 4.21896e-08 0)
(-0.857274 -4.22847e-08 0)
(-0.857274 4.23785e-08 0)
(-0.857274 -4.24636e-08 0)
(-0.857274 4.25471e-08 0)
(-0.857274 -4.26219e-08 0)
(-0.857274 4.26942e-08 0)
(-0.857274 -4.27579e-08 0)
(-0.857274 4.28178e-08 0)
(-0.857274 -4.28695e-08 0)
(-0.857274 4.29152e-08 0)
(-0.857274 -4.29524e-08 0)
(-0.857274 4.29794e-08 0)
(-0.857274 -4.29941e-08 0)
)
;

boundaryField
{
    inandouthalf11
    {
        type            cyclic;
    }
    inandouthalf12
    {
        type            cyclic;
    }
    inandouthalf21
    {
        type            cyclic;
    }
    inandouthalf22
    {
        type            cyclic;
    }
    inandouthalf31
    {
        type            cyclic;
    }
    inandouthalf32
    {
        type            cyclic;
    }
    inandouthalf41
    {
        type            cyclic;
    }
    inandouthalf42
    {
        type            cyclic;
    }
    top
    {
        type            symmetryPlane;
    }
    walls
    {
        type            calculated;
        value           uniform (0 0 0);
    }
    frontAndBackPlanes
    {
        type            empty;
    }
}


// ************************************************************************* //
