/*--------------------------------*- C++ -*----------------------------------*\
| =========                 |                                                 |
| \\      /  F ield         | OpenFOAM: The Open Source CFD Toolbox           |
|  \\    /   O peration     | Version:  2.4.x                                 |
|   \\  /    A nd           | Web:      www.OpenFOAM.org                      |
|    \\/     M anipulation  |                                                 |
\*---------------------------------------------------------------------------*/
FoamFile
{
    version     2.0;
    format      ascii;
    class       volScalarField;
    location    "2.2";
    object      alpha;
}
// * * * * * * * * * * * * * * * * * * * * * * * * * * * * * * * * * * * * * //

dimensions      [0 0 0 0 0 0 0];

internalField   nonuniform List<scalar> 
360
(
0.609996
0.609996
0.609995
0.609995
0.609995
0.609994
0.609994
0.609993
0.609993
0.609992
0.609991
0.609991
0.60999
0.609989
0.609988
0.609987
0.609986
0.609985
0.609984
0.609982
0.609981
0.609979
0.609977
0.609975
0.609973
0.609971
0.609969
0.609966
0.609963
0.60996
0.609957
0.609953
0.60995
0.609945
0.609941
0.609936
0.609931
0.609925
0.609918
0.609912
0.609904
0.609896
0.609888
0.609878
0.609868
0.609857
0.609845
0.609833
0.609819
0.609803
0.609787
0.609769
0.60975
0.609729
0.609707
0.609682
0.609656
0.609627
0.609596
0.609563
0.609526
0.609487
0.609444
0.609399
0.609353
0.609315
0.609292
0.609283
0.609278
0.609266
0.609244
0.609213
0.609175
0.609132
0.609084
0.609034
0.608982
0.608929
0.608877
0.608825
0.608775
0.608725
0.608676
0.608625
0.608573
0.60852
0.608465
0.608408
0.60835
0.608291
0.608231
0.60817
0.608108
0.608045
0.60798
0.607915
0.607848
0.60778
0.607711
0.60764
0.607568
0.607495
0.60742
0.607343
0.607265
0.607185
0.607103
0.60702
0.606934
0.606847
0.606757
0.606665
0.60657
0.606473
0.606373
0.60627
0.606164
0.606055
0.605942
0.605826
0.605706
0.605583
0.605455
0.605322
0.605185
0.605043
0.604896
0.604742
0.604582
0.604415
0.604241
0.604061
0.603873
0.603675
0.603464
0.603242
0.603011
0.602768
0.6025
0.602196
0.601879
0.601602
0.601269
0.600816
0.600245
0.59952
0.598607
0.597363
0.580581
0.310761
0.181417
0.124235
0.0899783
0.0665426
0.0496495
0.0371868
0.0278696
0.0208328
0.0154622
0.0112805
0.00790779
0.00519905
0.00315193
0.00170874
0.000848752
0.000426065
0.000238326
0.000157034
0.00011321
8.86378e-05
7.00329e-05
5.85467e-05
4.79155e-05
4.11742e-05
3.46361e-05
3.04642e-05
2.57632e-05
2.29682e-05
1.99928e-05
1.7473e-05
1.57057e-05
1.36195e-05
1.24062e-05
1.07901e-05
9.90712e-06
8.64076e-06
7.90685e-06
6.94755e-06
6.44936e-06
5.67304e-06
5.09206e-06
4.68397e-06
4.15628e-06
3.87106e-06
3.38293e-06
3.10715e-06
2.76774e-06
2.59898e-06
2.33296e-06
2.14401e-06
1.85493e-06
1.70547e-06
1.54595e-06
1.46419e-06
1.31277e-06
1.13053e-06
1.00754e-06
9.289e-07
8.68907e-07
7.54169e-07
6.49516e-07
5.98494e-07
5.52907e-07
4.67898e-07
4.02953e-07
3.74163e-07
3.43e-07
2.88224e-07
2.41292e-07
2.19952e-07
1.9939e-07
1.65948e-07
1.42567e-07
1.29804e-07
1.07354e-07
9.03614e-08
8.23455e-08
6.95464e-08
5.5711e-08
4.96618e-08
4.31963e-08
3.36916e-08
2.87982e-08
2.47927e-08
1.95072e-08
1.68462e-08
1.35397e-08
1.2283e-08
1.1522e-08
1.11976e-08
1.11138e-08
1.21931e-08
6.42893e-10
3.42688e-11
2.95539e-11
2.58143e-11
1.95398e-11
1.57527e-11
1.18136e-11
1.03322e-11
8.55521e-12
6.65271e-12
5.38528e-12
3.78354e-12
3.20687e-12
2.68861e-12
1.99405e-12
1.55615e-12
1.11731e-12
9.56965e-13
7.71944e-13
4.91682e-13
3.64121e-13
3.05909e-13
2.43e-13
1.51637e-13
1.09407e-13
8.9854e-14
6.7705e-14
4.12296e-14
3.05174e-14
2.46293e-14
1.64836e-14
1.05432e-14
8.08374e-15
5.69729e-15
3.66805e-15
2.68549e-15
1.61776e-15
1.18375e-15
7.38155e-16
5.2202e-16
2.89164e-16
2.02631e-16
1.32108e-16
7.96388e-17
5.52024e-17
3.14664e-17
2.08867e-17
9.83788e-18
5.05078e-18
1.82502e-18
7.53501e-19
2.95295e-19
1.12754e-19
4.20307e-20
1.50018e-20
5.07024e-21
1.60684e-21
4.73967e-22
1.29051e-22
3.21186e-23
7.22149e-24
1.44552e-24
2.52793e-25
3.76487e-26
4.6014e-27
4.34882e-28
2.83936e-29
9.31584e-31
1.3505e-32
3.94395e-34
5.69368e-36
7.31589e-47
4.67368e-58
2.09893e-69
7.06047e-81
1.98746e-92
6.4131e-104
3.6232e-115
6.36935e-123
1.15577e-133
2.19098e-141
3.95072e-152
7.53648e-160
1.66461e-170
2.59164e-178
7.5087e-189
8.91727e-197
5.10173e-207
3.08516e-215
3.39496e-225
1.07696e-233
1.7425e-243
3.7939e-252
8.30606e-262
1.35192e-270
3.68816e-280
4.86585e-289
1.58232e-298
1.77235e-307
7.02302e-317
4.35272e-321
8.5424e-321
0
0
0
0
0
0
0
0
0
0
0
0
0
0
0
0
)
;

boundaryField
{
    inandouthalf11
    {
        type            cyclic;
    }
    inandouthalf12
    {
        type            cyclic;
    }
    inandouthalf21
    {
        type            cyclic;
    }
    inandouthalf22
    {
        type            cyclic;
    }
    inandouthalf31
    {
        type            cyclic;
    }
    inandouthalf32
    {
        type            cyclic;
    }
    inandouthalf41
    {
        type            cyclic;
    }
    inandouthalf42
    {
        type            cyclic;
    }
    top
    {
        type            symmetryPlane;
    }
    walls
    {
        type            zeroGradient;
    }
    frontAndBackPlanes
    {
        type            empty;
    }
}


// ************************************************************************* //
