/*--------------------------------*- C++ -*----------------------------------*\
| =========                 |                                                 |
| \\      /  F ield         | OpenFOAM: The Open Source CFD Toolbox           |
|  \\    /   O peration     | Version:  2.4.x                                 |
|   \\  /    A nd           | Web:      www.OpenFOAM.org                      |
|    \\/     M anipulation  |                                                 |
\*---------------------------------------------------------------------------*/
FoamFile
{
    version     2.0;
    format      ascii;
    class       volScalarField;
    location    "2.2";
    object      ddt0(((1.5*(alpha+1e-08))*rho),Theta);
}
// * * * * * * * * * * * * * * * * * * * * * * * * * * * * * * * * * * * * * //

dimensions      [1 -1 -3 0 0 0 0];

internalField   nonuniform List<scalar> 
360
(
6.82208e-24
6.83362e-24
6.83378e-24
6.83378e-24
6.83385e-24
6.83384e-24
6.83386e-24
6.83396e-24
6.834e-24
6.83408e-24
6.83415e-24
6.83422e-24
6.8343e-24
6.83438e-24
6.8345e-24
6.83461e-24
6.83469e-24
6.83482e-24
6.83491e-24
6.83511e-24
6.83526e-24
6.83542e-24
6.8356e-24
6.83581e-24
6.83605e-24
6.83632e-24
6.83649e-24
6.83679e-24
6.83711e-24
6.8374e-24
6.83771e-24
6.83813e-24
6.83848e-24
6.83898e-24
6.83939e-24
6.83988e-24
6.84041e-24
6.84107e-24
6.84177e-24
6.8424e-24
6.84322e-24
6.84404e-24
6.84487e-24
6.8459e-24
6.84691e-24
6.84803e-24
6.84934e-24
6.85059e-24
6.85205e-24
6.85371e-24
6.85538e-24
6.85724e-24
6.8592e-24
6.8614e-24
6.86366e-24
6.86623e-24
6.86896e-24
6.87201e-24
6.87522e-24
6.87865e-24
6.88252e-24
6.96183e-24
5.21885e-21
4.91858e-19
7.81132e-18
3.46465e-17
4.61078e-17
-2.21316e-18
-3.83019e-17
-3.09793e-17
-1.58554e-17
-7.12103e-18
-3.24943e-18
-1.6143e-18
-8.98725e-19
-5.73074e-19
-4.37915e-19
-4.21507e-19
-4.93463e-19
-6.21651e-19
-7.58064e-19
-8.53631e-19
-8.82966e-19
-8.52495e-19
-7.87375e-19
-7.13138e-19
-6.45965e-19
-5.92112e-19
-5.51318e-19
-5.20191e-19
-4.94583e-19
-4.71334e-19
-4.49142e-19
-4.28541e-19
-4.11408e-19
-4.00285e-19
-3.9772e-19
-4.05828e-19
-4.26071e-19
-4.59008e-19
0
0
0
0
0
0
0
0
0
0
0
0
0
0
0
-1.42505e-18
-1.42793e-18
-1.42364e-18
-1.41302e-18
-1.39668e-18
-1.3751e-18
-1.34881e-18
-1.3186e-18
-1.28577e-18
-1.2521e-18
-1.21947e-18
-1.18896e-18
-1.15973e-18
-1.12837e-18
-1.08987e-18
-1.041e-18
-9.84715e-19
-9.30817e-19
-8.89094e-19
-8.58633e-19
-8.24827e-19
-7.72481e-19
-7.59716e-19
4.17194e-16
2.40498e-14
9.21057e-13
3.59753e-11
1.44444e-09
6.00404e-08
2.65845e-06
0.000235168
0.0364911
1.28199
13.8627
30.3269
18.1524
7.91348
3.78532
1.63527
0.467022
0.0733722
0.285843
0.827118
1.37774
1.71324
1.64081
1.15355
0.523728
0.204914
0.0792154
0.0337657
0.0170031
0.0104023
0.00707856
0.00528432
0.00400924
0.00323584
0.00256786
0.00214728
0.00176305
0.00151738
0.00125847
0.00110236
0.000944385
0.000813487
0.000721597
0.000618229
0.000556915
0.000479437
0.000436027
0.00037696
0.000342099
0.000298286
0.000274867
0.000240127
0.00021412
0.000195716
0.000172624
0.000159823
0.000138887
0.000126847
0.000112379
0.000104941
9.3695e-05
8.56367e-05
7.37079e-05
6.73924e-05
6.07439e-05
5.71764e-05
5.09533e-05
4.36177e-05
3.86195e-05
3.535e-05
3.28115e-05
2.8272e-05
2.41667e-05
2.207e-05
2.0195e-05
1.69464e-05
1.44615e-05
1.32744e-05
1.20238e-05
1.00025e-05
8.28965e-06
7.45134e-06
6.65562e-06
5.47748e-06
4.64384e-06
4.15278e-06
3.3948e-06
2.82069e-06
2.51498e-06
2.093e-06
1.66469e-06
1.44953e-06
1.23384e-06
9.62207e-07
8.06038e-07
6.76484e-07
5.31629e-07
4.42495e-07
3.48909e-07
2.89885e-07
2.36796e-07
1.85034e-07
1.27296e-07
-7.14766e-103
0
0
0
0
0
0
0
0
0
0
0
0
0
0
0
0
0
0
0
0
0
0
0
0
0
0
0
0
0
0
0
0
0
0
0
0
0
0
0
0
0
0
0
0
0
0
0
0
0
0
0
0
0
0
0
0
0
0
0
0
0
0
0
0
0
0
0
0
0
0
0
0
0
0
0
0
0
0
0
0
0
0
0
0
0
0
0
0
0
0
0
0
0
0
0
0
0
0
0
0
0
0
0
0
0
0
0
0
0
0
0
0
0
0
0
0
0
0
)
;

boundaryField
{
    inandouthalf11
    {
        type            cyclic;
    }
    inandouthalf12
    {
        type            cyclic;
    }
    inandouthalf21
    {
        type            cyclic;
    }
    inandouthalf22
    {
        type            cyclic;
    }
    inandouthalf31
    {
        type            cyclic;
    }
    inandouthalf32
    {
        type            cyclic;
    }
    inandouthalf41
    {
        type            cyclic;
    }
    inandouthalf42
    {
        type            cyclic;
    }
    top
    {
        type            symmetryPlane;
    }
    walls
    {
        type            calculated;
        value           uniform 6.82208e-24;
    }
    frontAndBackPlanes
    {
        type            empty;
    }
}


// ************************************************************************* //
