/*--------------------------------*- C++ -*----------------------------------*\
| =========                 |                                                 |
| \\      /  F ield         | OpenFOAM: The Open Source CFD Toolbox           |
|  \\    /   O peration     | Version:  2.4.x                                 |
|   \\  /    A nd           | Web:      www.OpenFOAM.org                      |
|    \\/     M anipulation  |                                                 |
\*---------------------------------------------------------------------------*/
FoamFile
{
    version     2.0;
    format      ascii;
    class       volVectorField;
    location    "2.2";
    object      ddt0(Ua);
}
// * * * * * * * * * * * * * * * * * * * * * * * * * * * * * * * * * * * * * //

dimensions      [0 1 -2 0 0 0 0];

internalField   nonuniform List<vector> 
360
(
(-5.20931e-36 -5.86156e-35 0)
(-5.21299e-36 -5.86265e-35 0)
(-5.22304e-36 -5.87056e-35 0)
(-5.25946e-36 -5.90047e-35 0)
(-5.34479e-36 -5.97126e-35 0)
(-5.50628e-36 -6.10603e-35 0)
(-5.77025e-36 -6.32693e-35 0)
(-6.15471e-36 -6.6488e-35 0)
(-6.66501e-36 -7.07543e-35 0)
(-7.29486e-36 -7.6006e-35 0)
(-8.03179e-36 -8.21303e-35 0)
(-8.86331e-36 -8.90108e-35 0)
(-9.783e-36 -9.65851e-35 0)
(-1.07939e-35 -1.04874e-34 0)
(-1.19083e-35 -1.13972e-34 0)
(-1.31477e-35 -1.24048e-34 0)
(-1.45425e-35 -1.35342e-34 0)
(-1.61332e-35 -1.48172e-34 0)
(-1.7972e-35 -1.62946e-34 0)
(-2.01265e-35 -1.80192e-34 0)
(-2.26816e-35 -2.00568e-34 0)
(-2.57467e-35 -2.24912e-34 0)
(-2.94645e-35 -2.54323e-34 0)
(-3.4021e-35 -2.90215e-34 0)
(-3.9662e-35 -3.34443e-34 0)
(-4.67199e-35 -3.89507e-34 0)
(-5.56537e-35 -4.58837e-34 0)
(-6.71098e-35 -5.47273e-34 0)
(-8.19971e-35 -6.61592e-34 0)
(-1.01595e-34 -8.11245e-34 0)
(-1.27734e-34 -1.00965e-33 0)
(-1.63088e-34 -1.27641e-33 0)
(-2.11612e-34 -1.64025e-33 0)
(-2.79289e-34 -2.14453e-33 0)
(-3.75265e-34 -2.85524e-33 0)
(-5.13846e-34 -3.87479e-33 0)
(-7.17794e-34 -5.36554e-33 0)
(-1.02467e-33 -7.59449e-33 0)
(-1.49689e-33 -1.10041e-32 0)
(-2.24232e-33 -1.63536e-32 0)
(-3.44868e-33 -2.49582e-32 0)
(-5.46402e-33 -3.92553e-32 0)
(-8.93169e-33 -6.37093e-32 0)
(-1.51448e-32 -1.07305e-31 0)
(-2.66954e-32 -1.87943e-31 0)
(-4.93252e-32 -3.45271e-31 0)
(-9.57393e-32 -6.66481e-31 0)
(-1.98066e-31 -1.37244e-30 0)
(-4.37746e-31 -3.01931e-30 0)
(-1.05842e-30 -7.28002e-30 0)
(-2.80863e-30 -1.92653e-29 0)
(-8.51263e-30 -5.83723e-29 0)
(-2.91839e-29 -1.99989e-28 0)
(-1.18813e-28 -8.15603e-28 0)
(-5.83188e-28 -4.00843e-27 0)
(-3.93324e-27 -2.72161e-26 0)
(-3.33595e-26 -2.32015e-25 0)
(-3.91952e-25 -2.74562e-24 0)
(-7.70792e-24 -5.44487e-23 0)
(-1.20297e-21 -8.64483e-21 0)
(-1.63004e-18 -1.1853e-17 0)
(-7.58069e-15 -5.59314e-14 0)
(-1.25983e-10 -9.45237e-10 0)
(-1.27342e-07 -9.5183e-07 0)
(-1.03126e-06 -7.73708e-06 0)
(-3.47574e-06 -2.5807e-05 0)
(-6.5622e-06 -4.6924e-05 0)
(-8.19994e-06 -5.41998e-05 0)
(-7.91257e-06 -4.57466e-05 0)
(-6.82739e-06 -3.2275e-05 0)
(-5.85726e-06 -2.11968e-05 0)
(-5.23702e-06 -1.38978e-05 0)
(-4.9024e-06 -9.45682e-06 0)
(-4.75075e-06 -6.79792e-06 0)
(-4.70988e-06 -5.18494e-06 0)
(-4.73725e-06 -4.17145e-06 0)
(-4.80821e-06 -3.48175e-06 0)
(-4.9071e-06 -2.93023e-06 0)
(-5.02274e-06 -2.38378e-06 0)
(-5.14695e-06 -1.75552e-06 0)
(-5.27466e-06 -1.01092e-06 0)
(-5.40408e-06 -1.66264e-07 0)
(-5.53591e-06 7.29475e-07 0)
(-5.67189e-06 1.62082e-06 0)
(-5.81364e-06 2.46626e-06 0)
(-5.96215e-06 3.24543e-06 0)
(-6.11786e-06 3.95571e-06 0)
(-6.28085e-06 4.60473e-06 0)
(-6.45111e-06 5.20351e-06 0)
(-6.62857e-06 5.76204e-06 0)
(-6.81317e-06 6.28723e-06 0)
(-7.0048e-06 6.78277e-06 0)
(-7.20334e-06 7.25038e-06 0)
(-7.40864e-06 7.69147e-06 0)
(-7.62049e-06 8.10865e-06 0)
(-7.83862e-06 8.50654e-06 0)
(-8.06272e-06 8.89215e-06 0)
(-8.29243e-06 9.27444e-06 0)
(-8.52731e-06 9.6638e-06 0)
(-8.76694e-06 1.00713e-05 0)
(-9.01089e-06 1.05079e-05 0)
(-9.2588e-06 1.09839e-05 0)
(-9.51041e-06 1.15086e-05 0)
(-9.76557e-06 1.20895e-05 0)
(-1.00243e-05 1.27327e-05 0)
(-1.02866e-05 1.34417e-05 0)
(-1.05528e-05 1.42184e-05 0)
(-1.08232e-05 1.5062e-05 0)
(-1.10982e-05 1.59701e-05 0)
(-1.13783e-05 1.69384e-05 0)
(-1.16639e-05 1.79613e-05 0)
(-1.19554e-05 1.90322e-05 0)
(-1.22534e-05 2.01442e-05 0)
(-1.25582e-05 2.129e-05 0)
(-1.28703e-05 2.24626e-05 0)
(-1.31899e-05 2.36556e-05 0)
(-1.35173e-05 2.48629e-05 0)
(-1.38529e-05 2.60791e-05 0)
(-1.41969e-05 2.72993e-05 0)
(-1.45494e-05 2.85191e-05 0)
(-1.49107e-05 2.97341e-05 0)
(-1.52808e-05 3.09406e-05 0)
(-1.56597e-05 3.21349e-05 0)
(-1.60475e-05 3.33143e-05 0)
(-1.64442e-05 3.44769e-05 0)
(-1.68503e-05 3.56224e-05 0)
(-1.72664e-05 3.67515e-05 0)
(-1.76932e-05 3.78654e-05 0)
(-1.81312e-05 3.89638e-05 0)
(-1.85801e-05 4.00442e-05 0)
(-1.90386e-05 4.11013e-05 0)
(-1.95049e-05 4.21301e-05 0)
(-1.99783e-05 4.31304e-05 0)
(-2.0461e-05 4.41105e-05 0)
(-2.09575e-05 4.50834e-05 0)
(-2.14715e-05 4.60558e-05 0)
(-2.20017e-05 4.70179e-05 0)
(-2.25423e-05 4.79475e-05 0)
(-2.30837e-05 4.88198e-05 0)
(-2.36042e-05 4.96013e-05 0)
(-2.40583e-05 5.02308e-05 0)
(-2.44037e-05 5.06619e-05 0)
(-2.46585e-05 5.09522e-05 0)
(-2.48791e-05 5.11997e-05 0)
(-2.51096e-05 5.14605e-05 0)
(-2.53385e-05 5.17194e-05 0)
(-2.54774e-05 5.18767e-05 0)
(-2.54808e-05 5.19141e-05 0)
(-2.54192e-05 5.19944e-05 0)
(0.801259 0.168451 0)
(0.885971 0.00622833 0)
(0.415995 -0.0481632 0)
(0.030815 -0.0774162 0)
(-0.301362 -0.0840682 0)
(-0.60855 -0.0669018 0)
(-0.900574 -0.0236722 0)
(-1.17467 0.0456599 0)
(-1.42272 0.134005 0)
(-1.63483 0.22682 0)
(-1.79487 0.306393 0)
(-1.85895 0.356557 0)
(-1.72799 0.345369 0)
(-1.28079 0.311037 0)
(-0.920798 0.296143 0)
(-0.736484 0.289024 0)
(-0.659622 0.28312 0)
(-0.634164 0.276786 0)
(-0.629729 0.269948 0)
(-0.633525 0.263176 0)
(-0.640828 0.256855 0)
(-0.649818 0.251054 0)
(-0.659611 0.245703 0)
(-0.669812 0.240757 0)
(-0.680121 0.236143 0)
(-0.690313 0.2318 0)
(-0.700312 0.2277 0)
(-0.710147 0.223825 0)
(-0.719623 0.220113 0)
(-0.728781 0.21657 0)
(-0.737712 0.213179 0)
(-0.746232 0.209905 0)
(-0.754507 0.206754 0)
(-0.762428 0.203703 0)
(-0.770055 0.200747 0)
(-0.777355 0.197877 0)
(-0.784414 0.195095 0)
(-0.79122 0.192388 0)
(-0.797701 0.189737 0)
(-0.803836 0.18715 0)
(-0.809867 0.184657 0)
(-0.815721 0.182203 0)
(-0.82116 0.179794 0)
(-0.826389 0.177443 0)
(-0.831375 0.175158 0)
(-0.836303 0.172943 0)
(-0.84107 0.170767 0)
(-0.845496 0.168618 0)
(-0.849575 0.166523 0)
(-0.853447 0.164509 0)
(-0.857306 0.162585 0)
(-0.861193 0.160714 0)
(-0.864865 0.158839 0)
(-0.868142 0.156959 0)
(-0.871138 0.155125 0)
(-0.874196 0.153382 0)
(-0.877519 0.15166 0)
(-0.880706 0.149894 0)
(-0.883475 0.148112 0)
(-0.886026 0.146402 0)
(-0.888756 0.144762 0)
(-0.89158 0.143096 0)
(-0.894078 0.141403 0)
(-0.896369 0.13978 0)
(-0.898862 0.138206 0)
(-0.901385 0.136582 0)
(-0.90357 0.134947 0)
(-0.905581 0.133397 0)
(-0.907774 0.131895 0)
(-0.910063 0.130338 0)
(-0.912124 0.128755 0)
(-0.914014 0.127239 0)
(-0.915996 0.125749 0)
(-0.917975 0.12422 0)
(-0.919804 0.122719 0)
(-0.921646 0.121246 0)
(-0.923516 0.119728 0)
(-0.925248 0.118232 0)
(-0.926923 0.116786 0)
(-0.928653 0.115301 0)
(-0.930323 0.113804 0)
(-0.931876 0.112371 0)
(-0.933423 0.110923 0)
(-0.934959 0.109451 0)
(-0.936401 0.10803 0)
(-0.937776 0.106622 0)
(-0.939078 0.10524 0)
(-0.940318 0.103921 0)
(-0.941515 0.102702 0)
(-0.942599 0.101662 0)
(-0.943535 0.100833 0)
(-0.944336 0.100274 0)
(-0.945371 0.0997726 0)
(-0.919108 0.000110394 0)
(-0.919156 0.000102799 0)
(-0.919147 0.000103913 0)
(-0.919148 0.000103835 0)
(-0.919148 0.000103833 0)
(-0.919147 0.000103833 0)
(-0.919147 0.000103828 0)
(-0.919147 0.000103832 0)
(-0.919147 0.000103823 0)
(-0.919147 0.000103832 0)
(-0.919147 0.00010382 0)
(-0.919147 0.000103833 0)
(-0.919147 0.000103817 0)
(-0.919147 0.000103834 0)
(-0.919147 0.000103814 0)
(-0.919147 0.000103835 0)
(-0.919147 0.000103812 0)
(-0.919147 0.000103835 0)
(-0.919147 0.000103814 0)
(-0.919147 0.000103832 0)
(-0.919147 0.000103815 0)
(-0.919147 0.000103833 0)
(-0.919147 0.000103812 0)
(-0.919147 0.000103835 0)
(-0.919147 0.000103811 0)
(-0.919147 0.000103835 0)
(-0.919147 0.000103811 0)
(-0.919147 0.000103835 0)
(-0.919147 0.000103811 0)
(-0.919147 0.000103835 0)
(-0.919147 0.000103811 0)
(-0.919147 0.000103835 0)
(-0.919147 0.000103811 0)
(-0.919147 0.000103835 0)
(-0.919147 0.000103811 0)
(-0.919147 0.000103834 0)
(-0.919147 0.000103812 0)
(-0.919147 0.000103834 0)
(-0.919147 0.000103813 0)
(-0.919147 0.000103833 0)
(-0.919147 0.000103813 0)
(-0.919147 0.000103832 0)
(-0.919147 0.000103814 0)
(-0.919147 0.000103831 0)
(-0.919147 0.000103815 0)
(-0.919147 0.00010383 0)
(-0.919147 0.000103816 0)
(-0.919147 0.000103829 0)
(-0.919147 0.000103817 0)
(-0.919147 0.000103828 0)
(-0.919147 0.000103818 0)
(-0.919147 0.000103827 0)
(-0.919147 0.000103819 0)
(-0.919147 0.000103826 0)
(-0.919147 0.00010382 0)
(-0.919147 0.000103825 0)
(-0.919147 0.000103821 0)
(-0.919147 0.000103824 0)
(-0.919147 0.000103823 0)
(-0.919147 0.000103823 0)
(-0.919147 0.000103824 0)
(-0.919147 0.000103822 0)
(-0.919147 0.000103825 0)
(-0.919147 0.000103821 0)
(-0.919147 0.000103826 0)
(-0.919147 0.00010382 0)
(-0.919147 0.000103827 0)
(-0.919147 0.000103819 0)
(-0.919147 0.000103828 0)
(-0.919147 0.000103819 0)
(-0.919147 0.000103829 0)
(-0.919147 0.000103818 0)
(-0.919147 0.00010383 0)
(-0.919147 0.000103818 0)
(-0.919147 0.00010383 0)
(-0.919147 0.000103817 0)
(-0.919147 0.000103831 0)
(-0.919147 0.000103817 0)
(-0.919147 0.000103832 0)
(-0.919147 0.000103817 0)
(-0.919147 0.000103833 0)
(-0.919147 0.000103817 0)
(-0.919147 0.000103834 0)
(-0.919147 0.000103818 0)
(-0.919147 0.000103837 0)
(-0.919147 0.000103819 0)
(-0.919147 0.00010384 0)
(-0.919147 0.000103824 0)
(-0.919147 0.000103847 0)
(-0.919147 0.00010383 0)
(-0.919147 0.000103855 0)
(-0.919147 0.000103838 0)
(-0.919147 0.000103863 0)
(-0.919147 0.000103846 0)
(-0.919147 0.000103872 0)
(-0.919147 0.000103854 0)
(-0.919147 0.000103881 0)
(-0.919147 0.000103863 0)
(-0.919147 0.000103891 0)
(-0.919147 0.000103872 0)
(-0.919147 0.0001039 0)
(-0.919147 0.000103882 0)
(-0.919147 0.000103912 0)
(-0.919147 0.000103895 0)
(-0.919147 0.000103925 0)
(-0.919147 0.000103907 0)
(-0.919147 0.000103937 0)
(-0.919147 0.000103917 0)
(-0.919147 0.000103944 0)
(-0.919147 0.000103922 0)
(-0.919147 0.000103949 0)
(-0.919147 0.000103927 0)
(-0.919147 0.00010395 0)
(-0.919147 0.000103918 0)
(-0.919147 0.000103939 0)
(-0.919146 0.000104004 0)
(-0.919113 0.000106357 0)
(-0.918365 0.000202386 0)
)
;

boundaryField
{
    inandouthalf11
    {
        type            cyclic;
    }
    inandouthalf12
    {
        type            cyclic;
    }
    inandouthalf21
    {
        type            cyclic;
    }
    inandouthalf22
    {
        type            cyclic;
    }
    inandouthalf31
    {
        type            cyclic;
    }
    inandouthalf32
    {
        type            cyclic;
    }
    inandouthalf41
    {
        type            cyclic;
    }
    inandouthalf42
    {
        type            cyclic;
    }
    top
    {
        type            symmetryPlane;
    }
    walls
    {
        type            calculated;
        value           uniform (0 0 0);
    }
    frontAndBackPlanes
    {
        type            empty;
    }
}


// ************************************************************************* //
