/*--------------------------------*- C++ -*----------------------------------*\
| =========                 |                                                 |
| \\      /  F ield         | OpenFOAM: The Open Source CFD Toolbox           |
|  \\    /   O peration     | Version:  2.4.x                                 |
|   \\  /    A nd           | Web:      www.OpenFOAM.org                      |
|    \\/     M anipulation  |                                                 |
\*---------------------------------------------------------------------------*/
FoamFile
{
    version     2.0;
    format      ascii;
    class       volScalarField;
    location    "2.2";
    object      p;
}
// * * * * * * * * * * * * * * * * * * * * * * * * * * * * * * * * * * * * * //

dimensions      [1 -1 -2 0 0 0 0];

internalField   nonuniform List<scalar> 
360
(
4896.16
4891.26
4886.35
4881.45
4876.54
4871.64
4866.73
4861.83
4856.92
4852.02
4847.11
4842.21
4837.3
4832.4
4827.49
4822.59
4817.68
4812.78
4807.87
4802.97
4798.06
4793.16
4788.25
4783.35
4778.44
4773.54
4768.63
4763.73
4758.82
4753.92
4749.01
4744.11
4739.2
4734.3
4729.39
4724.49
4719.58
4714.68
4709.77
4704.87
4699.96
4695.06
4690.15
4685.25
4680.34
4675.44
4670.53
4665.63
4660.72
4655.82
4650.91
4646.01
4641.1
4636.2
4631.29
4626.39
4621.48
4616.58
4611.67
4606.77
4601.86
4596.96
4592.05
4587.15
4582.24
4577.33
4572.42
4567.51
4562.58
4557.65
4552.71
4547.77
4542.82
4537.88
4532.93
4527.98
4523.03
4518.08
4513.12
4508.17
4503.21
4498.25
4493.29
4488.32
4483.35
4478.38
4473.41
4468.44
4463.46
4458.49
4453.51
4448.52
4443.54
4438.55
4433.57
4428.57
4423.58
4418.59
4413.59
4408.59
4403.59
4398.58
4393.57
4388.56
4383.55
4378.54
4373.52
4368.5
4363.47
4358.45
4353.42
4348.39
4343.36
4338.32
4333.28
4328.24
4323.2
4318.15
4313.11
4308.05
4303
4297.95
4292.89
4287.83
4282.77
4277.7
4272.64
4267.57
4262.5
4257.43
4252.35
4247.28
4242.2
4237.12
4232.04
4226.96
4221.87
4216.79
4211.7
4206.62
4201.53
4196.44
4191.35
4186.27
4181.18
4176.09
4171.01
4165.93
4160.64
4153.13
4143.9
4136.2
4129.41
4123.24
4117.55
4112.28
4107.41
4102.95
4098.96
4095.55
4092.86
4091.31
4088.15
4083.39
4078.5
4073.59
4068.69
4063.79
4058.88
4053.98
4049.08
4044.17
4039.27
4034.36
4029.46
4024.55
4019.65
4014.74
4009.84
4004.93
4000.03
3995.12
3990.22
3985.31
3980.41
3975.5
3970.6
3965.69
3960.79
3955.88
3950.98
3946.07
3941.17
3936.26
3931.36
3926.45
3921.55
3916.64
3911.74
3906.83
3901.93
3896.97
3891.92
3886.76
3881.5
3876.13
3870.65
3865.06
3859.36
3853.54
3847.6
3841.54
3835.36
3829.06
3822.62
3816.06
3809.36
3802.53
3795.55
3788.44
3781.18
3773.78
3766.22
3758.51
3750.65
3742.62
3734.43
3726.08
3717.55
3708.86
3699.98
3690.93
3681.69
3672.27
3662.65
3652.84
3642.83
3632.61
3622.19
3611.56
3600.71
3589.64
3578.35
3566.83
3555.07
3543.08
3530.84
3518.35
3505.61
3492.61
3479.35
3465.82
3452.01
3437.92
3423.55
3408.88
3393.92
3378.66
3363.08
3347.19
3330.97
3314.43
3297.55
3280.33
3262.76
3244.83
3226.54
3207.87
3188.83
3169.4
3149.58
3129.35
3108.72
3087.66
3066.18
3044.26
3021.9
2999.08
2975.8
2952.05
2927.81
2903.09
2877.86
2852.12
2825.86
2799.06
2771.72
2743.82
2715.36
2686.32
2656.7
2626.47
2595.62
2564.15
2532.05
2499.29
2465.86
2431.76
2396.96
2361.46
2325.24
2288.28
2250.57
2212.1
2172.85
2132.8
2091.93
2050.24
2007.7
1964.3
1922.76
1883.52
1844.28
1805.04
1765.8
1726.56
1687.32
1648.08
1608.84
1569.6
1530.36
1491.12
1451.88
1412.64
1373.4
1334.16
1294.92
1255.68
1216.44
1177.2
1137.96
1098.72
1059.48
1020.24
981
941.76
902.52
863.28
824.04
784.8
745.56
706.32
667.08
627.84
588.6
549.36
510.12
470.88
431.64
392.4
353.16
313.92
274.68
235.44
196.2
156.96
117.72
78.48
39.24
-1.96721e-07
)
;

boundaryField
{
    inandouthalf11
    {
        type            cyclic;
    }
    inandouthalf12
    {
        type            cyclic;
    }
    inandouthalf21
    {
        type            cyclic;
    }
    inandouthalf22
    {
        type            cyclic;
    }
    inandouthalf31
    {
        type            cyclic;
    }
    inandouthalf32
    {
        type            cyclic;
    }
    inandouthalf41
    {
        type            cyclic;
    }
    inandouthalf42
    {
        type            cyclic;
    }
    top
    {
        type            symmetryPlane;
    }
    walls
    {
        type            slip;
    }
    frontAndBackPlanes
    {
        type            empty;
    }
}


// ************************************************************************* //
