/*--------------------------------*- C++ -*----------------------------------*\
| =========                 |                                                 |
| \\      /  F ield         | OpenFOAM: The Open Source CFD Toolbox           |
|  \\    /   O peration     | Version:  2.4.x                                 |
|   \\  /    A nd           | Web:      www.OpenFOAM.org                      |
|    \\/     M anipulation  |                                                 |
\*---------------------------------------------------------------------------*/
FoamFile
{
    version     2.0;
    format      ascii;
    class       surfaceScalarField;
    location    "2.2";
    object      phia_0;
}
// * * * * * * * * * * * * * * * * * * * * * * * * * * * * * * * * * * * * * //

dimensions      [0 3 -1 0 0 0 0];

internalField   nonuniform List<scalar> 
359
(
-5.93799e-41
-5.93859e-41
-5.94232e-41
-5.95044e-41
-5.9648e-41
-5.98748e-41
-6.02033e-41
-6.06475e-41
-6.12134e-41
-6.19011e-41
-6.27055e-41
-6.36189e-41
-6.46368e-41
-6.57573e-41
-6.69827e-41
-6.83197e-41
-6.97806e-41
-7.13833e-41
-7.31521e-41
-7.51207e-41
-7.73269e-41
-7.98232e-41
-8.26727e-41
-8.59553e-41
-8.97737e-41
-9.42644e-41
-9.9611e-41
-1.0607e-40
-1.1398e-40
-1.23808e-40
-1.36201e-40
-1.521e-40
-1.72822e-40
-2.00385e-40
-2.37702e-40
-2.89313e-40
-3.62259e-40
-4.67865e-40
-6.24757e-40
-8.63681e-40
-1.23901e-39
-1.84744e-39
-2.87006e-39
-4.66188e-39
-7.95104e-39
-1.43031e-38
-2.73716e-38
-5.61086e-38
-1.25054e-37
-3.06552e-37
-8.47326e-37
-2.67055e-36
-9.87458e-36
-4.39765e-35
-2.61356e-34
-2.03512e-33
-2.16613e-32
-3.73742e-31
-3.71712e-29
-5.29963e-26
-2.4189e-22
-3.93574e-18
-1.75476e-14
-2.19865e-13
-1.19969e-12
-3.84262e-12
-8.33799e-12
-1.36206e-11
-1.83448e-11
-2.19192e-11
-2.44555e-11
-2.62823e-11
-2.76833e-11
-2.88551e-11
-2.99248e-11
-3.09787e-11
-3.2076e-11
-3.32562e-11
-3.4538e-11
-3.59191e-11
-3.73781e-11
-3.88839e-11
-4.04062e-11
-4.19228e-11
-4.34233e-11
-4.49071e-11
-4.63805e-11
-4.78516e-11
-4.93284e-11
-5.0817e-11
-5.23209e-11
-5.38418e-11
-5.53805e-11
-5.69377e-11
-5.85146e-11
-6.0113e-11
-6.17346e-11
-6.33814e-11
-6.50547e-11
-6.67552e-11
-6.84828e-11
-7.02365e-11
-7.2015e-11
-7.3816e-11
-7.56372e-11
-7.74755e-11
-7.93276e-11
-8.11901e-11
-8.30594e-11
-8.4932e-11
-8.68045e-11
-8.86738e-11
-9.05371e-11
-9.23919e-11
-9.4236e-11
-9.60677e-11
-9.78856e-11
-9.96884e-11
-1.01475e-10
-1.03245e-10
-1.04996e-10
-1.06729e-10
-1.08441e-10
-1.10133e-10
-1.11803e-10
-1.13453e-10
-1.15082e-10
-1.16691e-10
-1.18279e-10
-1.19839e-10
-1.21362e-10
-1.2284e-10
-1.24267e-10
-1.25642e-10
-1.26969e-10
-1.28243e-10
-1.2945e-10
-1.30583e-10
-1.31632e-10
-1.32562e-10
-1.33302e-10
-1.33792e-10
-1.341e-10
-1.34301e-10
-1.34428e-10
-1.34494e-10
-1.3452e-10
-1.34511e-10
3.63432e-09
2.44769e-08
4.37918e-08
5.91687e-08
7.22001e-08
8.31606e-08
9.18358e-08
9.78769e-08
1.00964e-07
1.01048e-07
9.85568e-08
9.44407e-08
8.84824e-08
8.40759e-08
8.08458e-08
7.76591e-08
7.42629e-08
7.08545e-08
6.7571e-08
6.45234e-08
6.16942e-08
5.9102e-08
5.66942e-08
5.44754e-08
5.23968e-08
5.04622e-08
4.86388e-08
4.69311e-08
4.5308e-08
4.37785e-08
4.23237e-08
4.09363e-08
3.96172e-08
3.835e-08
3.71417e-08
3.59768e-08
3.48629e-08
3.37848e-08
3.27478e-08
3.17433e-08
3.07799e-08
2.98412e-08
2.89293e-08
2.80495e-08
2.71951e-08
2.63708e-08
2.55625e-08
2.47755e-08
2.40101e-08
2.32765e-08
2.25673e-08
2.18772e-08
2.11933e-08
2.05141e-08
1.9848e-08
1.92043e-08
1.85647e-08
1.791e-08
1.72506e-08
1.66065e-08
1.59806e-08
1.53458e-08
1.46966e-08
1.40587e-08
1.34335e-08
1.27893e-08
1.21291e-08
1.14847e-08
1.08536e-08
1.0199e-08
9.51616e-09
8.83857e-09
8.16764e-09
7.47197e-09
6.75977e-09
6.04828e-09
5.30873e-09
4.54428e-09
3.78331e-09
3.00042e-09
2.17573e-09
1.34512e-09
5.04371e-10
-3.81431e-10
-1.28783e-09
-2.20304e-09
-3.14142e-09
-4.08372e-09
-5.01456e-09
-5.88935e-09
-6.66399e-09
-7.29998e-09
-7.89411e-09
-8.24106e-08
-1.58044e-07
-1.58043e-07
-1.58043e-07
-1.58043e-07
-1.58043e-07
-1.58043e-07
-1.58043e-07
-1.58043e-07
-1.58043e-07
-1.58043e-07
-1.58043e-07
-1.58043e-07
-1.58043e-07
-1.58043e-07
-1.58043e-07
-1.58043e-07
-1.58043e-07
-1.58043e-07
-1.58043e-07
-1.58043e-07
-1.58043e-07
-1.58043e-07
-1.58043e-07
-1.58043e-07
-1.58043e-07
-1.58043e-07
-1.58043e-07
-1.58043e-07
-1.58043e-07
-1.58043e-07
-1.58043e-07
-1.58043e-07
-1.58043e-07
-1.58043e-07
-1.58043e-07
-1.58043e-07
-1.58043e-07
-1.58043e-07
-1.58043e-07
-1.58043e-07
-1.58043e-07
-1.58043e-07
-1.58043e-07
-1.58043e-07
-1.58043e-07
-1.58043e-07
-1.58043e-07
-1.58043e-07
-1.58043e-07
-1.58043e-07
-1.58043e-07
-1.58043e-07
-1.58043e-07
-1.58043e-07
-1.58043e-07
-1.58043e-07
-1.58043e-07
-1.58043e-07
-1.58043e-07
-1.58043e-07
-1.58043e-07
-1.58043e-07
-1.58043e-07
-1.58043e-07
-1.58043e-07
-1.58043e-07
-1.58043e-07
-1.58043e-07
-1.58043e-07
-1.58043e-07
-1.58043e-07
-1.58043e-07
-1.58043e-07
-1.58043e-07
-1.58043e-07
-1.58043e-07
-1.58043e-07
-1.58043e-07
-1.58043e-07
-1.58043e-07
-1.58043e-07
-1.58043e-07
-1.58043e-07
-1.58043e-07
-1.58043e-07
-1.58043e-07
-1.58043e-07
-1.58043e-07
-1.58043e-07
-1.58043e-07
-1.58043e-07
-1.58043e-07
-1.58043e-07
-1.58043e-07
-1.58043e-07
-1.58043e-07
-1.58043e-07
-1.58043e-07
-1.58043e-07
-1.58043e-07
-1.58043e-07
-1.58043e-07
-1.58043e-07
-1.58043e-07
-1.58043e-07
-1.58043e-07
-1.58043e-07
-1.58043e-07
-1.58043e-07
-1.58043e-07
-1.58043e-07
-1.58043e-07
-1.58043e-07
-1.58043e-07
-1.58025e-07
-1.57318e-07
-1.32363e-07
)
;

boundaryField
{
    inandouthalf11
    {
        type            cyclic;
        value           nonuniform List<scalar> 
100
(
-8.43028e-43
-8.42841e-43
-8.42301e-43
-8.4073e-43
-8.37647e-43
-8.32468e-43
-8.24597e-43
-8.1354e-43
-7.98994e-43
-7.80868e-43
-7.5924e-43
-7.34294e-43
-7.06205e-43
-6.75054e-43
-6.40807e-43
-6.03302e-43
-5.62223e-43
-5.1709e-43
-4.67223e-43
-4.11713e-43
-3.49422e-43
-2.78918e-43
-1.98369e-43
-1.05487e-43
2.64692e-45
1.29854e-43
2.81279e-43
4.63975e-43
6.87558e-43
9.65071e-43
1.3146e-42
1.76183e-42
2.34368e-42
3.1143e-42
4.15428e-42
5.58531e-42
7.59589e-42
1.04862e-41
1.47414e-41
2.11675e-41
3.1132e-41
4.70699e-41
7.33836e-41
1.18556e-40
1.99279e-40
3.50895e-40
6.50224e-40
1.28221e-39
2.70728e-39
6.23116e-39
1.57585e-38
4.51571e-38
1.47028e-37
5.63351e-37
2.5962e-36
1.60992e-35
1.28658e-34
1.40233e-33
2.48072e-32
2.54399e-30
3.61659e-27
1.62678e-23
2.60479e-19
1.14001e-15
1.29285e-14
6.27422e-14
1.77023e-13
3.40556e-13
5.04737e-13
6.35549e-13
7.28806e-13
7.94256e-13
8.42334e-13
8.80505e-13
9.13582e-13
9.44678e-13
9.75871e-13
1.00853e-12
1.04342e-12
1.08068e-12
1.11983e-12
1.16004e-12
1.20037e-12
1.24007e-12
1.2787e-12
1.31614e-12
1.35247e-12
1.38788e-12
1.42256e-12
1.45663e-12
1.4902e-12
1.52326e-12
1.5558e-12
1.58778e-12
1.61917e-12
1.64994e-12
1.68006e-12
1.70948e-12
1.73816e-12
1.76602e-12
)
;
    }
    inandouthalf12
    {
        type            cyclic;
        value           nonuniform List<scalar> 
100
(
8.43028e-43
8.42841e-43
8.42301e-43
8.4073e-43
8.37647e-43
8.32468e-43
8.24597e-43
8.1354e-43
7.98994e-43
7.80868e-43
7.5924e-43
7.34294e-43
7.06205e-43
6.75054e-43
6.40807e-43
6.03302e-43
5.62223e-43
5.1709e-43
4.67223e-43
4.11713e-43
3.49422e-43
2.78918e-43
1.98369e-43
1.05487e-43
-2.64692e-45
-1.29854e-43
-2.81279e-43
-4.63975e-43
-6.87558e-43
-9.65071e-43
-1.3146e-42
-1.76183e-42
-2.34368e-42
-3.1143e-42
-4.15428e-42
-5.58531e-42
-7.59589e-42
-1.04862e-41
-1.47414e-41
-2.11675e-41
-3.1132e-41
-4.70699e-41
-7.33836e-41
-1.18556e-40
-1.99279e-40
-3.50895e-40
-6.50224e-40
-1.28221e-39
-2.70728e-39
-6.23116e-39
-1.57585e-38
-4.51571e-38
-1.47028e-37
-5.63351e-37
-2.5962e-36
-1.60992e-35
-1.28658e-34
-1.40233e-33
-2.48072e-32
-2.54399e-30
-3.61659e-27
-1.62678e-23
-2.60479e-19
-1.14001e-15
-1.29285e-14
-6.27422e-14
-1.77023e-13
-3.40556e-13
-5.04737e-13
-6.35549e-13
-7.28806e-13
-7.94256e-13
-8.42334e-13
-8.80505e-13
-9.13582e-13
-9.44678e-13
-9.75871e-13
-1.00853e-12
-1.04342e-12
-1.08068e-12
-1.11983e-12
-1.16004e-12
-1.20037e-12
-1.24007e-12
-1.2787e-12
-1.31614e-12
-1.35247e-12
-1.38788e-12
-1.42256e-12
-1.45663e-12
-1.4902e-12
-1.52326e-12
-1.5558e-12
-1.58778e-12
-1.61917e-12
-1.64994e-12
-1.68006e-12
-1.70948e-12
-1.73816e-12
-1.76602e-12
)
;
    }
    inandouthalf21
    {
        type            cyclic;
        value           nonuniform List<scalar> 
100
(
1.79298e-12
1.81892e-12
1.84372e-12
1.86724e-12
1.88934e-12
1.90988e-12
1.92869e-12
1.94565e-12
1.96059e-12
1.97339e-12
1.9839e-12
1.99201e-12
1.9976e-12
2.00055e-12
2.00076e-12
1.99812e-12
1.99252e-12
1.98386e-12
1.97202e-12
1.95688e-12
1.93831e-12
1.91618e-12
1.89034e-12
1.86063e-12
1.82688e-12
1.78888e-12
1.74638e-12
1.6991e-12
1.64674e-12
1.58909e-12
1.52608e-12
1.45781e-12
1.38436e-12
1.30561e-12
1.22117e-12
1.13076e-12
1.03464e-12
9.33344e-13
8.27327e-13
7.18838e-13
6.16302e-13
5.32373e-13
4.706e-13
4.25164e-13
3.91223e-13
3.68381e-13
3.5714e-13
3.52691e-13
3.48547e-13
-4.30216e-08
-1.31483e-07
-2.16222e-07
-2.93975e-07
-3.66978e-07
-4.36941e-07
-5.04833e-07
-5.70995e-07
-6.35267e-07
-6.97066e-07
-7.5536e-07
-8.08467e-07
-8.53822e-07
-8.87509e-07
-9.09223e-07
-9.23248e-07
-9.33168e-07
-9.40951e-07
-9.47516e-07
-9.53266e-07
-9.58412e-07
-9.63078e-07
-9.67353e-07
-9.71299e-07
-9.74969e-07
-9.784e-07
-9.81621e-07
-9.84662e-07
-9.87545e-07
-9.90279e-07
-9.92893e-07
-9.95388e-07
-9.97786e-07
-1.00009e-06
-1.00231e-06
-1.00445e-06
-1.00652e-06
-1.00853e-06
-1.01049e-06
-1.01238e-06
-1.01422e-06
-1.01603e-06
-1.01778e-06
-1.0195e-06
-1.02116e-06
-1.0228e-06
-1.0244e-06
-1.02598e-06
-1.0275e-06
-1.02898e-06
-1.03042e-06
)
;
    }
    inandouthalf22
    {
        type            cyclic;
        value           nonuniform List<scalar> 
100
(
-1.79298e-12
-1.81892e-12
-1.84372e-12
-1.86724e-12
-1.88934e-12
-1.90988e-12
-1.92869e-12
-1.94565e-12
-1.96059e-12
-1.97339e-12
-1.9839e-12
-1.99201e-12
-1.9976e-12
-2.00055e-12
-2.00076e-12
-1.99812e-12
-1.99252e-12
-1.98386e-12
-1.97202e-12
-1.95688e-12
-1.93831e-12
-1.91618e-12
-1.89034e-12
-1.86063e-12
-1.82688e-12
-1.78888e-12
-1.74638e-12
-1.6991e-12
-1.64674e-12
-1.58909e-12
-1.52608e-12
-1.45781e-12
-1.38436e-12
-1.30561e-12
-1.22117e-12
-1.13076e-12
-1.03464e-12
-9.33344e-13
-8.27327e-13
-7.18838e-13
-6.16302e-13
-5.32373e-13
-4.706e-13
-4.25164e-13
-3.91223e-13
-3.68381e-13
-3.5714e-13
-3.52691e-13
-3.48547e-13
4.30216e-08
1.31483e-07
2.16222e-07
2.93975e-07
3.66978e-07
4.36941e-07
5.04833e-07
5.70995e-07
6.35267e-07
6.97066e-07
7.5536e-07
8.08467e-07
8.53822e-07
8.87509e-07
9.09223e-07
9.23248e-07
9.33168e-07
9.40951e-07
9.47516e-07
9.53266e-07
9.58412e-07
9.63078e-07
9.67353e-07
9.71299e-07
9.74969e-07
9.784e-07
9.81621e-07
9.84662e-07
9.87545e-07
9.90279e-07
9.92893e-07
9.95388e-07
9.97786e-07
1.00009e-06
1.00231e-06
1.00445e-06
1.00652e-06
1.00853e-06
1.01049e-06
1.01238e-06
1.01422e-06
1.01603e-06
1.01778e-06
1.0195e-06
1.02116e-06
1.0228e-06
1.0244e-06
1.02598e-06
1.0275e-06
1.02898e-06
1.03042e-06
)
;
    }
    inandouthalf31
    {
        type            cyclic;
        value           nonuniform List<scalar> 
110
(
-1.03185e-06
-1.05425e-06
-1.07712e-06
-1.10045e-06
-1.12425e-06
-1.14859e-06
-1.17349e-06
-1.19892e-06
-1.22485e-06
-1.25133e-06
-1.27844e-06
-1.30613e-06
-1.33437e-06
-1.36323e-06
-1.39278e-06
-1.42297e-06
-1.45374e-06
-1.48518e-06
-1.5174e-06
-1.55035e-06
-1.58395e-06
-1.6183e-06
-1.65347e-06
-1.68939e-06
-1.72611e-06
-1.76373e-06
-1.80216e-06
-1.8414e-06
-1.88161e-06
-1.92275e-06
-1.96473e-06
-2.00771e-06
-2.05173e-06
-2.09667e-06
-2.14261e-06
-2.18956e-06
-2.23746e-06
-2.28623e-06
-2.3357e-06
-2.38574e-06
-2.43624e-06
-2.48797e-06
-2.8087e-06
-2.86572e-06
-2.9239e-06
-2.98325e-06
-3.04381e-06
-3.10559e-06
-3.16863e-06
-3.23295e-06
-3.29857e-06
-3.36552e-06
-3.43384e-06
-3.50354e-06
-3.57465e-06
-3.64721e-06
-3.72124e-06
-3.79677e-06
-3.87383e-06
-3.95246e-06
-4.03269e-06
-4.11454e-06
-4.19805e-06
-4.28326e-06
-4.3702e-06
-4.45891e-06
-4.54941e-06
-4.64175e-06
-4.73597e-06
-4.83209e-06
-4.93017e-06
-5.03024e-06
-5.13234e-06
-5.23651e-06
-5.3428e-06
-5.45125e-06
-5.56189e-06
-5.67478e-06
-5.78997e-06
-5.90749e-06
-6.02739e-06
-6.14973e-06
-6.27456e-06
-6.40191e-06
-6.53186e-06
-6.66444e-06
-6.79971e-06
-6.93772e-06
-7.07854e-06
-7.22221e-06
-7.36881e-06
-7.51837e-06
-7.67098e-06
-7.82668e-06
-7.98554e-06
-8.14762e-06
-8.313e-06
-8.48173e-06
-8.65389e-06
-8.82954e-06
-9.00875e-06
-9.19161e-06
-9.37817e-06
-9.56852e-06
-9.76274e-06
-9.9609e-06
-1.01631e-05
-1.03694e-05
-1.05798e-05
-1.07946e-05
)
;
    }
    inandouthalf32
    {
        type            cyclic;
        value           nonuniform List<scalar> 
110
(
1.03185e-06
1.05425e-06
1.07712e-06
1.10045e-06
1.12425e-06
1.14859e-06
1.17349e-06
1.19892e-06
1.22485e-06
1.25133e-06
1.27844e-06
1.30613e-06
1.33437e-06
1.36323e-06
1.39278e-06
1.42297e-06
1.45374e-06
1.48518e-06
1.5174e-06
1.55035e-06
1.58395e-06
1.6183e-06
1.65347e-06
1.68939e-06
1.72611e-06
1.76373e-06
1.80216e-06
1.8414e-06
1.88161e-06
1.92275e-06
1.96473e-06
2.00771e-06
2.05173e-06
2.09667e-06
2.14261e-06
2.18956e-06
2.23746e-06
2.28623e-06
2.3357e-06
2.38574e-06
2.43624e-06
2.48797e-06
2.8087e-06
2.86572e-06
2.9239e-06
2.98325e-06
3.04381e-06
3.10559e-06
3.16863e-06
3.23295e-06
3.29857e-06
3.36552e-06
3.43384e-06
3.50354e-06
3.57465e-06
3.64721e-06
3.72124e-06
3.79677e-06
3.87383e-06
3.95246e-06
4.03269e-06
4.11454e-06
4.19805e-06
4.28326e-06
4.3702e-06
4.45891e-06
4.54941e-06
4.64175e-06
4.73597e-06
4.83209e-06
4.93017e-06
5.03024e-06
5.13234e-06
5.23651e-06
5.3428e-06
5.45125e-06
5.56189e-06
5.67478e-06
5.78997e-06
5.90749e-06
6.02739e-06
6.14973e-06
6.27456e-06
6.40191e-06
6.53186e-06
6.66444e-06
6.79971e-06
6.93772e-06
7.07854e-06
7.22221e-06
7.36881e-06
7.51837e-06
7.67098e-06
7.82668e-06
7.98554e-06
8.14762e-06
8.313e-06
8.48173e-06
8.65389e-06
8.82954e-06
9.00875e-06
9.19161e-06
9.37817e-06
9.56852e-06
9.76274e-06
9.9609e-06
1.01631e-05
1.03694e-05
1.05798e-05
1.07946e-05
)
;
    }
    inandouthalf41
    {
        type            cyclic;
        value           nonuniform List<scalar> 
50
(
-9.66224e-06
-9.66224e-06
-9.66224e-06
-9.66224e-06
-9.66224e-06
-9.66224e-06
-9.66224e-06
-9.66224e-06
-9.66224e-06
-9.66224e-06
-9.66224e-06
-9.66224e-06
-9.66224e-06
-9.66224e-06
-9.66224e-06
-9.66224e-06
-9.66224e-06
-9.66224e-06
-9.66224e-06
-9.66224e-06
-9.66224e-06
-9.66224e-06
-9.66224e-06
-9.66224e-06
-9.66224e-06
-9.66224e-06
-9.66224e-06
-9.66224e-06
-9.66224e-06
-9.66224e-06
-9.66224e-06
-9.66224e-06
-9.66224e-06
-9.66224e-06
-9.66224e-06
-9.66224e-06
-9.66224e-06
-9.66224e-06
-9.66224e-06
-9.66224e-06
-9.66224e-06
-9.66224e-06
-9.66224e-06
-9.66224e-06
-9.66224e-06
-9.66224e-06
-9.66224e-06
-9.66225e-06
-9.66245e-06
-9.6671e-06
)
;
    }
    inandouthalf42
    {
        type            cyclic;
        value           nonuniform List<scalar> 
50
(
9.66224e-06
9.66224e-06
9.66224e-06
9.66224e-06
9.66224e-06
9.66224e-06
9.66224e-06
9.66224e-06
9.66224e-06
9.66224e-06
9.66224e-06
9.66224e-06
9.66224e-06
9.66224e-06
9.66224e-06
9.66224e-06
9.66224e-06
9.66224e-06
9.66224e-06
9.66224e-06
9.66224e-06
9.66224e-06
9.66224e-06
9.66224e-06
9.66224e-06
9.66224e-06
9.66224e-06
9.66224e-06
9.66224e-06
9.66224e-06
9.66224e-06
9.66224e-06
9.66224e-06
9.66224e-06
9.66224e-06
9.66224e-06
9.66224e-06
9.66224e-06
9.66224e-06
9.66224e-06
9.66224e-06
9.66224e-06
9.66224e-06
9.66224e-06
9.66224e-06
9.66224e-06
9.66224e-06
9.66225e-06
9.66245e-06
9.6671e-06
)
;
    }
    top
    {
        type            symmetryPlane;
        value           uniform 0;
    }
    walls
    {
        type            fixedValue;
        value           uniform 0;
    }
    frontAndBackPlanes
    {
        type            empty;
        value           nonuniform 0();
    }
}


// ************************************************************************* //
