/*--------------------------------*- C++ -*----------------------------------*\
| =========                 |                                                 |
| \\      /  F ield         | OpenFOAM: The Open Source CFD Toolbox           |
|  \\    /   O peration     | Version:  2.4.x                                 |
|   \\  /    A nd           | Web:      www.OpenFOAM.org                      |
|    \\/     M anipulation  |                                                 |
\*---------------------------------------------------------------------------*/
FoamFile
{
    version     2.0;
    format      ascii;
    class       surfaceScalarField;
    location    "2.2";
    object      phib;
}
// * * * * * * * * * * * * * * * * * * * * * * * * * * * * * * * * * * * * * //

dimensions      [0 3 -1 0 0 0 0];

internalField   nonuniform List<scalar> 
359
(
3.42605e-19
6.88724e-19
1.03548e-18
1.38303e-18
1.7309e-18
2.07736e-18
2.42293e-18
2.76775e-18
3.11495e-18
3.46035e-18
3.8053e-18
4.15163e-18
4.49679e-18
4.84213e-18
5.18433e-18
5.52667e-18
5.86618e-18
6.20654e-18
6.54644e-18
6.88672e-18
7.22437e-18
7.56264e-18
7.89726e-18
8.23234e-18
8.56562e-18
8.89891e-18
9.22832e-18
9.55925e-18
9.88612e-18
1.02154e-17
1.05408e-17
1.08665e-17
1.11875e-17
1.1512e-17
1.18294e-17
1.21501e-17
1.24643e-17
1.27835e-17
1.3095e-17
1.34085e-17
1.37175e-17
1.40285e-17
1.43338e-17
1.46399e-17
1.49414e-17
1.52458e-17
1.55423e-17
1.5841e-17
1.61348e-17
1.64315e-17
1.67206e-17
1.70118e-17
1.72978e-17
1.75876e-17
1.78677e-17
1.81514e-17
1.84297e-17
1.87094e-17
1.89827e-17
1.92585e-17
1.9526e-17
2.65683e-17
2.79931e-14
3.48406e-13
1.89203e-12
6.03786e-12
1.30652e-11
2.13017e-11
2.8654e-11
3.421e-11
3.8149e-11
4.09838e-11
4.31559e-11
4.4971e-11
4.66266e-11
4.82571e-11
4.99545e-11
5.17802e-11
5.37635e-11
5.59005e-11
5.81577e-11
6.0487e-11
6.28408e-11
6.51844e-11
6.75016e-11
6.97915e-11
7.20636e-11
7.43309e-11
7.66055e-11
7.8897e-11
8.12109e-11
8.35496e-11
8.59145e-11
8.83064e-11
9.07273e-11
9.31794e-11
9.56659e-11
9.81893e-11
1.00752e-10
1.03354e-10
1.05996e-10
1.08677e-10
1.11393e-10
1.14141e-10
1.16918e-10
1.19719e-10
1.22538e-10
1.25369e-10
1.28209e-10
1.3105e-10
1.33887e-10
1.36716e-10
1.39531e-10
1.4233e-10
1.45109e-10
1.47864e-10
1.50593e-10
1.53294e-10
1.55966e-10
1.58607e-10
1.61214e-10
1.63787e-10
1.66324e-10
1.68823e-10
1.71282e-10
1.73703e-10
1.76086e-10
1.7843e-10
1.80733e-10
1.82986e-10
1.85175e-10
1.87285e-10
1.89306e-10
1.91238e-10
1.93082e-10
1.94833e-10
1.96473e-10
1.9798e-10
1.99331e-10
2.0048e-10
2.01348e-10
2.01832e-10
2.01965e-10
2.01836e-10
2.01481e-10
2.00895e-10
2.00032e-10
1.92685e-10
-2.98207e-09
-8.00543e-09
-7.8977e-09
-7.09163e-09
-6.12467e-09
-5.12555e-09
-4.16663e-09
-3.29102e-09
-2.52168e-09
-1.87029e-09
-1.33854e-09
-9.17377e-10
-5.85629e-10
-3.53592e-10
-1.97551e-10
-9.97323e-11
-4.75117e-11
-2.36196e-11
-1.34031e-11
-8.74841e-12
-6.24795e-12
-4.7053e-12
-3.65781e-12
-2.91025e-12
-2.34257e-12
-1.91991e-12
-1.5892e-12
-1.32449e-12
-1.10829e-12
-9.44131e-13
-7.96057e-13
-6.81902e-13
-5.83321e-13
-5.01166e-13
-4.32638e-13
-3.73945e-13
-3.2476e-13
-2.80796e-13
-2.44345e-13
-2.13626e-13
-1.8745e-13
-1.61397e-13
-1.421e-13
-1.246e-13
-1.09704e-13
-9.61376e-14
-8.33831e-14
-7.31612e-14
-6.47735e-14
-5.77118e-14
-5.07956e-14
-4.39875e-14
-3.79581e-14
-3.35581e-14
-3.0055e-14
-2.68372e-14
-2.28322e-14
-1.92731e-14
-1.68113e-14
-1.50253e-14
-1.30594e-14
-1.08461e-14
-9.23239e-15
-8.14851e-15
-6.90602e-15
-5.60789e-15
-4.74394e-15
-4.14567e-15
-3.44924e-15
-2.71775e-15
-2.20692e-15
-1.86301e-15
-1.49935e-15
-1.15646e-15
-9.22086e-16
-7.1713e-16
-5.22545e-16
-3.8863e-16
-2.82608e-16
-1.81901e-16
-1.07584e-16
-5.48183e-17
-1.10629e-17
2.08902e-17
4.38241e-17
5.85005e-17
6.70502e-17
7.22094e-17
7.4971e-17
8.03242e-17
8.58502e-17
9.15061e-17
1.01851e-16
5.44156e-16
6.45728e-17
1.55278e-17
1.46769e-17
1.37472e-17
1.27661e-17
1.20221e-17
1.13873e-17
1.09449e-17
1.04556e-17
9.99367e-18
9.50937e-18
9.09437e-18
8.7227e-18
8.36102e-18
7.96949e-18
7.6172e-18
7.25557e-18
6.93565e-18
6.59097e-18
6.2819e-18
5.99316e-18
5.76396e-18
5.571e-18
5.43375e-18
5.38355e-18
5.29888e-18
5.23164e-18
5.17526e-18
5.1187e-18
5.06782e-18
5.04556e-18
5.01582e-18
4.97285e-18
4.89971e-18
4.8328e-18
4.72728e-18
4.61027e-18
4.47139e-18
4.40296e-18
4.30797e-18
4.20716e-18
4.04604e-18
3.90798e-18
3.70254e-18
3.48528e-18
3.20302e-18
2.98351e-18
2.71633e-18
2.44035e-18
2.11003e-18
1.80957e-18
1.48157e-18
1.1685e-18
8.61858e-19
5.322e-19
4.45419e-19
3.87036e-19
4.22339e-19
3.97021e-19
3.71957e-19
3.49932e-19
3.22747e-19
3.19984e-19
3.05685e-19
2.92644e-19
2.60661e-19
2.4283e-19
2.01375e-19
1.6557e-19
1.19489e-19
1.01816e-19
7.35686e-20
4.55851e-20
-1.345e-21
-3.37109e-20
-8.86175e-20
-1.43793e-19
-2.20985e-19
-2.75381e-19
-3.59661e-19
-4.48262e-19
-5.83152e-19
-7.14108e-19
-9.22244e-19
-1.17752e-18
-1.4844e-18
-2.26614e-18
-3.14651e-18
-4.08243e-18
-5.19191e-18
-6.22541e-18
-7.45176e-18
-8.68879e-18
-1.00843e-17
-1.12911e-17
-1.26654e-17
-1.40566e-17
-1.56395e-17
-1.72085e-17
-1.8876e-17
-2.06499e-17
-2.2496e-17
-2.54525e-17
-2.80905e-17
-3.07788e-17
-3.26268e-17
-3.54121e-17
-3.66462e-17
-3.80041e-17
-3.78404e-17
-4.17629e-17
-4.24914e-17
-4.30463e-17
-3.87837e-17
-3.76296e-17
-3.08006e-17
-2.43281e-17
)
;

boundaryField
{
    inandouthalf11
    {
        type            cyclic;
        value           nonuniform List<scalar> 
100
(
1.96989e-10
1.97324e-10
1.97326e-10
1.97326e-10
1.97326e-10
1.97328e-10
1.97328e-10
1.9733e-10
1.9733e-10
1.97331e-10
1.97333e-10
1.97333e-10
1.97335e-10
1.97336e-10
1.97338e-10
1.9734e-10
1.97341e-10
1.97343e-10
1.97344e-10
1.97348e-10
1.97349e-10
1.97353e-10
1.97356e-10
1.97359e-10
1.97363e-10
1.97366e-10
1.97369e-10
1.97374e-10
1.97379e-10
1.97384e-10
1.97389e-10
1.97396e-10
1.97401e-10
1.97409e-10
1.97416e-10
1.97424e-10
1.97432e-10
1.97442e-10
1.97454e-10
1.97464e-10
1.97477e-10
1.9749e-10
1.97504e-10
1.9752e-10
1.97537e-10
1.97555e-10
1.97575e-10
1.97595e-10
1.97618e-10
1.97645e-10
1.97671e-10
1.97701e-10
1.97733e-10
1.97768e-10
1.97804e-10
1.97846e-10
1.97889e-10
1.97937e-10
1.97989e-10
1.98043e-10
1.98105e-10
1.9817e-10
1.98241e-10
1.98318e-10
1.98406e-10
1.98519e-10
1.98672e-10
1.9885e-10
1.99023e-10
1.99172e-10
1.99302e-10
1.9942e-10
1.99531e-10
1.99642e-10
1.99754e-10
1.99869e-10
1.99987e-10
2.00107e-10
2.0023e-10
2.00353e-10
2.00476e-10
2.006e-10
2.00723e-10
2.00847e-10
2.00973e-10
2.01099e-10
2.01228e-10
2.01359e-10
2.01491e-10
2.01624e-10
2.01759e-10
2.01894e-10
2.02031e-10
2.02169e-10
2.02308e-10
2.02449e-10
2.02591e-10
2.02735e-10
2.0288e-10
2.03027e-10
)
;
    }
    inandouthalf12
    {
        type            cyclic;
        value           nonuniform List<scalar> 
100
(
-1.96989e-10
-1.97324e-10
-1.97326e-10
-1.97326e-10
-1.97326e-10
-1.97328e-10
-1.97328e-10
-1.9733e-10
-1.9733e-10
-1.97331e-10
-1.97333e-10
-1.97333e-10
-1.97335e-10
-1.97336e-10
-1.97338e-10
-1.9734e-10
-1.97341e-10
-1.97343e-10
-1.97344e-10
-1.97348e-10
-1.97349e-10
-1.97353e-10
-1.97356e-10
-1.97359e-10
-1.97363e-10
-1.97366e-10
-1.97369e-10
-1.97374e-10
-1.97379e-10
-1.97384e-10
-1.97389e-10
-1.97396e-10
-1.97401e-10
-1.97409e-10
-1.97416e-10
-1.97424e-10
-1.97432e-10
-1.97442e-10
-1.97454e-10
-1.97464e-10
-1.97477e-10
-1.9749e-10
-1.97504e-10
-1.9752e-10
-1.97537e-10
-1.97555e-10
-1.97575e-10
-1.97595e-10
-1.97618e-10
-1.97645e-10
-1.97671e-10
-1.97701e-10
-1.97733e-10
-1.97768e-10
-1.97804e-10
-1.97846e-10
-1.97889e-10
-1.97937e-10
-1.97989e-10
-1.98043e-10
-1.98105e-10
-1.9817e-10
-1.98241e-10
-1.98318e-10
-1.98406e-10
-1.98519e-10
-1.98672e-10
-1.9885e-10
-1.99023e-10
-1.99172e-10
-1.99302e-10
-1.9942e-10
-1.99531e-10
-1.99642e-10
-1.99754e-10
-1.99869e-10
-1.99987e-10
-2.00107e-10
-2.0023e-10
-2.00353e-10
-2.00476e-10
-2.006e-10
-2.00723e-10
-2.00847e-10
-2.00973e-10
-2.01099e-10
-2.01228e-10
-2.01359e-10
-2.01491e-10
-2.01624e-10
-2.01759e-10
-2.01894e-10
-2.02031e-10
-2.02169e-10
-2.02308e-10
-2.02449e-10
-2.02591e-10
-2.02735e-10
-2.0288e-10
-2.03027e-10
)
;
    }
    inandouthalf21
    {
        type            cyclic;
        value           nonuniform List<scalar> 
100
(
2.03176e-10
2.03326e-10
2.03477e-10
2.0363e-10
2.03784e-10
2.03939e-10
2.04096e-10
2.04255e-10
2.04415e-10
2.04576e-10
2.04739e-10
2.04904e-10
2.0507e-10
2.05238e-10
2.05408e-10
2.05581e-10
2.05756e-10
2.05933e-10
2.06113e-10
2.06296e-10
2.06482e-10
2.06672e-10
2.06865e-10
2.07062e-10
2.07264e-10
2.0747e-10
2.07681e-10
2.07898e-10
2.08122e-10
2.08352e-10
2.08589e-10
2.08833e-10
2.09085e-10
2.09351e-10
2.09633e-10
2.09929e-10
2.10236e-10
2.10559e-10
2.10922e-10
2.11347e-10
2.11802e-10
2.12205e-10
2.12731e-10
2.13489e-10
2.14471e-10
2.15744e-10
2.17375e-10
2.19262e-10
-7.50509e-11
-5.12332e-08
-1.49888e-07
-2.35392e-07
-3.12738e-07
-3.85008e-07
-4.54261e-07
-5.22074e-07
-5.89764e-07
-6.58535e-07
-7.29581e-07
-8.04233e-07
-8.84029e-07
-9.739e-07
-1.04882e-06
-1.08417e-06
-1.10395e-06
-1.11766e-06
-1.12799e-06
-1.13623e-06
-1.14311e-06
-1.14895e-06
-1.15404e-06
-1.15849e-06
-1.16246e-06
-1.16599e-06
-1.16918e-06
-1.17205e-06
-1.17468e-06
-1.17705e-06
-1.17922e-06
-1.1812e-06
-1.18301e-06
-1.18468e-06
-1.1862e-06
-1.1876e-06
-1.18888e-06
-1.19007e-06
-1.19115e-06
-1.19215e-06
-1.19307e-06
-1.19392e-06
-1.1947e-06
-1.19542e-06
-1.19608e-06
-1.19669e-06
-1.19725e-06
-1.19777e-06
-1.19825e-06
-1.19869e-06
-1.19909e-06
-1.19947e-06
)
;
    }
    inandouthalf22
    {
        type            cyclic;
        value           nonuniform List<scalar> 
100
(
-2.03176e-10
-2.03326e-10
-2.03477e-10
-2.0363e-10
-2.03784e-10
-2.03939e-10
-2.04096e-10
-2.04255e-10
-2.04415e-10
-2.04576e-10
-2.04739e-10
-2.04904e-10
-2.0507e-10
-2.05238e-10
-2.05408e-10
-2.05581e-10
-2.05756e-10
-2.05933e-10
-2.06113e-10
-2.06296e-10
-2.06482e-10
-2.06672e-10
-2.06865e-10
-2.07062e-10
-2.07264e-10
-2.0747e-10
-2.07681e-10
-2.07898e-10
-2.08122e-10
-2.08352e-10
-2.08589e-10
-2.08833e-10
-2.09085e-10
-2.09351e-10
-2.09633e-10
-2.09929e-10
-2.10236e-10
-2.10559e-10
-2.10922e-10
-2.11347e-10
-2.11802e-10
-2.12205e-10
-2.12731e-10
-2.13489e-10
-2.14471e-10
-2.15744e-10
-2.17375e-10
-2.19262e-10
7.50509e-11
5.12332e-08
1.49888e-07
2.35392e-07
3.12738e-07
3.85008e-07
4.54261e-07
5.22074e-07
5.89764e-07
6.58535e-07
7.29581e-07
8.04233e-07
8.84029e-07
9.739e-07
1.04882e-06
1.08417e-06
1.10395e-06
1.11766e-06
1.12799e-06
1.13623e-06
1.14311e-06
1.14895e-06
1.15404e-06
1.15849e-06
1.16246e-06
1.16599e-06
1.16918e-06
1.17205e-06
1.17468e-06
1.17705e-06
1.17922e-06
1.1812e-06
1.18301e-06
1.18468e-06
1.1862e-06
1.1876e-06
1.18888e-06
1.19007e-06
1.19115e-06
1.19215e-06
1.19307e-06
1.19392e-06
1.1947e-06
1.19542e-06
1.19608e-06
1.19669e-06
1.19725e-06
1.19777e-06
1.19825e-06
1.19869e-06
1.19909e-06
1.19947e-06
)
;
    }
    inandouthalf31
    {
        type            cyclic;
        value           nonuniform List<scalar> 
110
(
-1.19982e-06
-1.2245e-06
-1.24967e-06
-1.27533e-06
-1.3015e-06
-1.3282e-06
-1.35541e-06
-1.38317e-06
-1.41148e-06
-1.44035e-06
-1.4698e-06
-1.49983e-06
-1.53046e-06
-1.5617e-06
-1.59356e-06
-1.62606e-06
-1.65921e-06
-1.69302e-06
-1.72751e-06
-1.76269e-06
-1.79857e-06
-1.83517e-06
-1.87251e-06
-1.9106e-06
-1.94946e-06
-1.9891e-06
-2.02953e-06
-2.07079e-06
-2.11287e-06
-2.1558e-06
-2.1996e-06
-2.24428e-06
-2.28987e-06
-2.33638e-06
-2.38383e-06
-2.43224e-06
-2.48163e-06
-2.53202e-06
-2.58343e-06
-2.63588e-06
-2.68939e-06
-2.74399e-06
-2.79969e-06
-2.85653e-06
-2.91451e-06
-2.97368e-06
-3.03404e-06
-3.09563e-06
-3.15846e-06
-3.22258e-06
-3.28799e-06
-3.35473e-06
-3.42282e-06
-3.4923e-06
-3.56318e-06
-3.63551e-06
-3.7093e-06
-3.78459e-06
-3.86141e-06
-3.93978e-06
-4.01975e-06
-4.10134e-06
-4.18459e-06
-4.26952e-06
-4.35618e-06
-4.4446e-06
-4.53482e-06
-4.62686e-06
-4.72077e-06
-4.81659e-06
-4.91436e-06
-5.01411e-06
-5.11588e-06
-5.21972e-06
-5.32566e-06
-5.43376e-06
-5.54405e-06
-5.65658e-06
-5.77139e-06
-5.88854e-06
-6.00806e-06
-6.13001e-06
-6.25443e-06
-6.38138e-06
-6.5109e-06
-6.64306e-06
-6.77789e-06
-6.91547e-06
-7.05583e-06
-7.19905e-06
-7.34517e-06
-7.49426e-06
-7.64637e-06
-7.80157e-06
-7.95992e-06
-8.12149e-06
-8.28633e-06
-8.45452e-06
-8.62613e-06
-8.80121e-06
-8.97985e-06
-9.16212e-06
-9.34809e-06
-9.53783e-06
-9.73142e-06
-9.92894e-06
-1.01305e-05
-1.03361e-05
-1.05459e-05
-1.07599e-05
)
;
    }
    inandouthalf32
    {
        type            cyclic;
        value           nonuniform List<scalar> 
110
(
1.19982e-06
1.2245e-06
1.24967e-06
1.27533e-06
1.3015e-06
1.3282e-06
1.35541e-06
1.38317e-06
1.41148e-06
1.44035e-06
1.4698e-06
1.49983e-06
1.53046e-06
1.5617e-06
1.59356e-06
1.62606e-06
1.65921e-06
1.69302e-06
1.72751e-06
1.76269e-06
1.79857e-06
1.83517e-06
1.87251e-06
1.9106e-06
1.94946e-06
1.9891e-06
2.02953e-06
2.07079e-06
2.11287e-06
2.1558e-06
2.1996e-06
2.24428e-06
2.28987e-06
2.33638e-06
2.38383e-06
2.43224e-06
2.48163e-06
2.53202e-06
2.58343e-06
2.63588e-06
2.68939e-06
2.74399e-06
2.79969e-06
2.85653e-06
2.91451e-06
2.97368e-06
3.03404e-06
3.09563e-06
3.15846e-06
3.22258e-06
3.28799e-06
3.35473e-06
3.42282e-06
3.4923e-06
3.56318e-06
3.63551e-06
3.7093e-06
3.78459e-06
3.86141e-06
3.93978e-06
4.01975e-06
4.10134e-06
4.18459e-06
4.26952e-06
4.35618e-06
4.4446e-06
4.53482e-06
4.62686e-06
4.72077e-06
4.81659e-06
4.91436e-06
5.01411e-06
5.11588e-06
5.21972e-06
5.32566e-06
5.43376e-06
5.54405e-06
5.65658e-06
5.77139e-06
5.88854e-06
6.00806e-06
6.13001e-06
6.25443e-06
6.38138e-06
6.5109e-06
6.64306e-06
6.77789e-06
6.91547e-06
7.05583e-06
7.19905e-06
7.34517e-06
7.49426e-06
7.64637e-06
7.80157e-06
7.95992e-06
8.12149e-06
8.28633e-06
8.45452e-06
8.62613e-06
8.80121e-06
8.97985e-06
9.16212e-06
9.34809e-06
9.53783e-06
9.73142e-06
9.92894e-06
1.01305e-05
1.03361e-05
1.05459e-05
1.07599e-05
)
;
    }
    inandouthalf41
    {
        type            cyclic;
        value           nonuniform List<scalar> 
50
(
-9.63125e-06
-9.63125e-06
-9.63125e-06
-9.63125e-06
-9.63125e-06
-9.63125e-06
-9.63125e-06
-9.63125e-06
-9.63125e-06
-9.63125e-06
-9.63125e-06
-9.63125e-06
-9.63125e-06
-9.63125e-06
-9.63125e-06
-9.63125e-06
-9.63125e-06
-9.63125e-06
-9.63125e-06
-9.63125e-06
-9.63125e-06
-9.63125e-06
-9.63125e-06
-9.63125e-06
-9.63125e-06
-9.63125e-06
-9.63125e-06
-9.63125e-06
-9.63125e-06
-9.63125e-06
-9.63125e-06
-9.63125e-06
-9.63125e-06
-9.63125e-06
-9.63125e-06
-9.63125e-06
-9.63125e-06
-9.63125e-06
-9.63125e-06
-9.63125e-06
-9.63125e-06
-9.63125e-06
-9.63125e-06
-9.63125e-06
-9.63125e-06
-9.63125e-06
-9.63125e-06
-9.63125e-06
-9.63125e-06
-9.63125e-06
)
;
    }
    inandouthalf42
    {
        type            cyclic;
        value           nonuniform List<scalar> 
50
(
9.63125e-06
9.63125e-06
9.63125e-06
9.63125e-06
9.63125e-06
9.63125e-06
9.63125e-06
9.63125e-06
9.63125e-06
9.63125e-06
9.63125e-06
9.63125e-06
9.63125e-06
9.63125e-06
9.63125e-06
9.63125e-06
9.63125e-06
9.63125e-06
9.63125e-06
9.63125e-06
9.63125e-06
9.63125e-06
9.63125e-06
9.63125e-06
9.63125e-06
9.63125e-06
9.63125e-06
9.63125e-06
9.63125e-06
9.63125e-06
9.63125e-06
9.63125e-06
9.63125e-06
9.63125e-06
9.63125e-06
9.63125e-06
9.63125e-06
9.63125e-06
9.63125e-06
9.63125e-06
9.63125e-06
9.63125e-06
9.63125e-06
9.63125e-06
9.63125e-06
9.63125e-06
9.63125e-06
9.63125e-06
9.63125e-06
9.63125e-06
)
;
    }
    top
    {
        type            symmetryPlane;
        value           uniform 0;
    }
    walls
    {
        type            fixedValue;
        value           uniform 0;
    }
    frontAndBackPlanes
    {
        type            empty;
        value           nonuniform 0();
    }
}


// ************************************************************************* //
