/*--------------------------------*- C++ -*----------------------------------*\
| =========                 |                                                 |
| \\      /  F ield         | OpenFOAM: The Open Source CFD Toolbox           |
|  \\    /   O peration     | Version:  2.4.x                                 |
|   \\  /    A nd           | Web:      www.OpenFOAM.org                      |
|    \\/     M anipulation  |                                                 |
\*---------------------------------------------------------------------------*/
FoamFile
{
    version     2.0;
    format      ascii;
    class       volVectorField;
    location    "2.2";
    object      susb;
}
// * * * * * * * * * * * * * * * * * * * * * * * * * * * * * * * * * * * * * //

dimensions      [0 1 -2 0 0 0 0];

internalField   nonuniform List<vector> 
360
(
(0 -1.60923e-28 0)
(0 -6.90853e-21 0)
(0 -6.90848e-21 0)
(0 3.5988e-28 0)
(-3.65732e-31 -6.90848e-21 0)
(-3.65729e-31 -6.90843e-21 0)
(-3.65729e-31 -6.90843e-21 0)
(0 -6.90839e-21 0)
(-3.65727e-31 -6.90839e-21 0)
(0 -1.38167e-20 0)
(-3.65722e-31 -6.90829e-21 0)
(0 -6.90829e-21 0)
(-3.6572e-31 -1.38165e-20 0)
(0 -1.38164e-20 0)
(0 -1.38163e-20 0)
(0 -1.38162e-20 0)
(0 -1.38161e-20 0)
(-3.65707e-31 -1.3816e-20 0)
(0 -2.07239e-20 0)
(0 -2.07236e-20 0)
(0 -2.07235e-20 0)
(-7.31385e-31 -2.76309e-20 0)
(0 -2.76306e-20 0)
(0 -2.76302e-20 0)
(0 -2.76298e-20 0)
(-7.31345e-31 -2.76294e-20 0)
(0 -3.45363e-20 0)
(0 -4.14428e-20 0)
(0 -4.14419e-20 0)
(0 -4.14411e-20 0)
(0 -4.83469e-20 0)
(0 -4.83456e-20 0)
(0 -5.5251e-20 0)
(0 -6.21553e-20 0)
(0 -6.21536e-20 0)
(3.65586e-31 -6.90573e-20 0)
(0 -7.59604e-20 0)
(0 -8.97678e-20 0)
(0 -8.97635e-20 0)
(0 -9.66645e-20 0)
(0 -1.10468e-19 0)
(0 -1.10462e-19 0)
(3.65467e-31 -1.24263e-19 0)
(0 -1.3806e-19 0)
(0 -1.44954e-19 0)
(0 -1.58747e-19 0)
(0 -1.65635e-19 0)
(0 -1.79424e-19 0)
(0 -2.07008e-19 0)
(0 -2.20785e-19 0)
(3.65218e-31 -2.34558e-19 0)
(0 -2.55224e-19 0)
(0 -2.75882e-19 0)
(0 -2.96531e-19 0)
(0 -3.24067e-19 0)
(0 -3.51588e-19 0)
(0 -3.79097e-19 0)
(0 -4.13479e-19 0)
(0 -4.40952e-19 0)
(0 -4.82183e-19 0)
(0 -5.23383e-19 0)
(0 -5.64356e-19 0)
(0 -6.08207e-19 0)
(0 -6.26605e-19 0)
(0 -5.75823e-19 0)
(0 -4.2009e-19 0)
(0 -2.19674e-19 0)
(0 -9.70305e-20 0)
(0 -1.13678e-19 0)
(0 -2.29835e-19 0)
(0 -3.67586e-19 0)
(0 -4.73556e-19 0)
(0 -5.57712e-19 0)
(0 -6.24792e-19 0)
(0 -6.72462e-19 0)
(0 -7.03131e-19 0)
(0 -7.16467e-19 0)
(0 -7.20274e-19 0)
(0 -7.13154e-19 0)
(0 -6.98261e-19 0)
(0 -6.85157e-19 0)
(0 -6.81049e-19 0)
(0 -6.85605e-19 0)
(0 -6.99559e-19 0)
(0 -7.20004e-19 0)
(0 -7.43308e-19 0)
(0 -7.65693e-19 0)
(0 -7.84675e-19 0)
(0 -8.01147e-19 0)
(0 -8.15035e-19 0)
(0 -8.27052e-19 0)
(0 -8.39354e-19 0)
(0 -8.52887e-19 0)
(0 -8.67541e-19 0)
(0 -8.83472e-19 0)
(0 -9.00324e-19 0)
(0 -9.17581e-19 0)
(0 -9.34989e-19 0)
(0 -9.52609e-19 0)
(0 -9.7055e-19 0)
(0 -9.89004e-19 0)
(0 -1.00827e-18 0)
(0 -1.02849e-18 0)
(0 -1.04968e-18 0)
(0 -1.0719e-18 0)
(0 -1.09521e-18 0)
(0 -1.11968e-18 0)
(0 -1.14538e-18 0)
(0 -1.17244e-18 0)
(0 -1.20093e-18 0)
(0 -1.23094e-18 0)
(0 -1.26253e-18 0)
(0 -1.29579e-18 0)
(0 -1.33079e-18 0)
(0 -1.36766e-18 0)
(0 -1.40649e-18 0)
(0 -1.44743e-18 0)
(0 -1.4906e-18 0)
(0 -1.53613e-18 0)
(0 -1.58413e-18 0)
(0 -1.63468e-18 0)
(0 -1.68793e-18 0)
(0 -1.74412e-18 0)
(0 -1.80369e-18 0)
(0 -1.86746e-18 0)
(0 -1.93647e-18 0)
(0 -2.01164e-18 0)
(0 -2.09292e-18 0)
(0 -2.17853e-18 0)
(0 -2.26526e-18 0)
(0 -2.35191e-18 0)
(0 -2.44534e-18 0)
(0 -2.56168e-18 0)
(0 -2.70877e-18 0)
(0 -2.86238e-18 0)
(0 -2.99056e-18 0)
(0 -3.1238e-18 0)
(0 -3.31401e-18 0)
(0 -9.76793e-19 0)
(0 -9.85438e-18 0)
(0 -3.31695e-16 0)
(0 -1.23548e-14 0)
(0 -5.91033e-13 0)
(0 -2.93852e-11 0)
(0 -1.46778e-09 0)
(0 -7.64774e-08 0)
(0 -4.39199e-06 0)
(0 -0.00170734 0)
(0 -0.966001 0)
(0 -3.58232 0)
(0 -2.362 0)
(0 -1.42702 0)
(0 -1.01247 0)
(0 -0.754553 0)
(0 -0.563059 0)
(0 -0.414353 0)
(0 -0.299368 0)
(0 -0.212449 0)
(0 -0.148979 0)
(0 -0.10324 0)
(0 -0.065743 0)
(0 -0.0249665 0)
(0 -0.00182824 0)
(0 -1.87065e-05 0)
(0 -1.10559e-07 0)
(0 -5.57318e-10 0)
(0 -2.62939e-12 0)
(0 -1.33408e-14 0)
(0 -8.31891e-17 0)
(0 -7.59105e-19 0)
(0 -7.72408e-20 0)
(0 -8.60015e-20 0)
(0 -6.33717e-20 0)
(0 -4.25078e-20 0)
(0 -2.98438e-20 0)
(0 -2.14167e-20 0)
(0 -1.55576e-20 0)
(0 -1.01917e-20 0)
(0 -8.15576e-21 0)
(0 -5.27287e-21 0)
(0 -3.88315e-21 0)
(0 -2.72405e-21 0)
(0 -1.94332e-21 0)
(0 -1.68567e-21 0)
(0 -1.4465e-21 0)
(0 -1.34306e-21 0)
(0 -1.13414e-21 0)
(0 -9.73803e-22 0)
(0 -8.49356e-22 0)
(0 -9.02158e-22 0)
(0 -6.55613e-22 0)
(0 -6.18573e-22 0)
(0 -5.35844e-22 0)
(0 -5.08325e-22 0)
(0 -5.00673e-22 0)
(0 -4.02005e-22 0)
(0 -3.31081e-22 0)
(0 -2.82425e-22 0)
(0 -2.9467e-22 0)
(0 -3.08699e-22 0)
(0 -2.8138e-22 0)
(0 -1.94309e-22 0)
(-1.24127e-37 -1.48784e-22 0)
(0 -1.39619e-22 0)
(0 -1.95607e-22 0)
(5.78866e-38 -1.75319e-22 0)
(0 -1.1316e-22 0)
(-5.52301e-38 -7.59326e-23 0)
(0 -9.30638e-23 0)
(5.26977e-38 -1.14551e-22 0)
(0 -7.96199e-23 0)
(0 -4.81119e-23 0)
(0 -6.32866e-23 0)
(2.39641e-38 -7.12726e-23 0)
(0 -4.36056e-23 0)
(0 -2.71118e-23 0)
(0 -3.7855e-23 0)
(0 -4.38928e-23 0)
(0 -2.88422e-23 0)
(-1.03684e-38 -1.72138e-23 0)
(0 -2.15963e-23 0)
(-9.87497e-39 -2.2268e-23 0)
(0 -1.38358e-23 0)
(-4.69984e-39 -1.30756e-23 0)
(0 -1.43473e-23 0)
(0 -8.89187e-24 0)
(0 -7.17499e-24 0)
(0 -8.97076e-24 0)
(2.07313e-39 -6.55779e-24 0)
(2.02084e-39 -4.00609e-24 0)
(0 -4.97565e-24 0)
(0 -4.39441e-24 0)
(0 -2.64056e-24 0)
(0 -2.67988e-24 0)
(0 -2.24361e-24 0)
(0 -1.63418e-24 0)
(0 -1.22426e-24 0)
(0 -5.26447e-25 0)
(0 -2.76551e-25 0)
(0 -1.01671e-25 0)
(0 2.37942e-25 0)
(0 -2.443e-24 0)
(0 -1.9452e-24 0)
(-9.57692e-43 -9.62524e-26 0)
(9.38641e-43 -1.28914e-27 0)
(0 -1.49103e-27 0)
(0 -1.47571e-27 0)
(-4.41864e-43 -1.10768e-27 0)
(0 -7.65262e-28 0)
(0 -4.4841e-28 0)
(-2.08007e-43 -4.96579e-28 0)
(0 -4.20286e-28 0)
(0 -3.71657e-28 0)
(0 -2.78199e-28 0)
(0 -1.36478e-28 0)
(0 -1.47869e-28 0)
(0 -1.35831e-28 0)
(0 -1.02832e-28 0)
(0 -6.92017e-29 0)
(0 -3.88845e-29 0)
(0 -5.12749e-29 0)
(0 -4.43054e-29 0)
(0 -1.97804e-29 0)
(0 -1.25877e-29 0)
(0 -1.56912e-29 0)
(0 -1.33916e-29 0)
(2.35652e-45 -6.06995e-30 0)
(0 -3.99833e-30 0)
(0 -4.56807e-30 0)
(0 -3.44178e-30 0)
(0 -1.50382e-30 0)
(0 -1.24039e-30 0)
(0 -1.22415e-30 0)
(0 -7.17313e-31 0)
(0 -4.03968e-31 0)
(0 -3.6102e-31 0)
(0 -2.41987e-31 0)
(0 -1.60828e-31 0)
(0 -1.15993e-31 0)
(0 -6.6298e-32 0)
(0 -4.90614e-32 0)
(0 -3.25008e-32 0)
(0 -2.27723e-32 0)
(0 -1.09361e-32 0)
(0 -8.39762e-33 0)
(0 -5.15773e-33 0)
(1.5397e-48 -3.15535e-33 0)
(0 -2.21116e-33 0)
(0 -1.36039e-33 0)
(0 -9.80324e-34 0)
(0 -4.85194e-34 0)
(0 -2.55815e-34 0)
(0 -8.91631e-35 0)
(0 -3.66149e-35 0)
(0 -1.41863e-35 0)
(0 -5.36679e-36 0)
(3.07474e-52 -1.98916e-36 0)
(0 -7.06699e-37 0)
(0 -2.37726e-37 0)
(0 -7.49325e-38 0)
(0 -2.19647e-38 0)
(0 -5.93756e-39 0)
(0 -1.46564e-39 0)
(0 -3.26469e-40 0)
(0 -6.46676e-41 0)
(0 -1.11777e-41 0)
(0 -1.64334e-42 0)
(0 -1.98015e-43 0)
(0 -1.8426e-44 0)
(0 -1.18428e-45 0)
(0 -4.05755e-47 0)
(0 -6.22168e-49 0)
(0 -1.81773e-50 0)
(0 -2.62416e-52 0)
(0 -3.37182e-63 0)
(0 -2.15405e-74 0)
(0 -9.67378e-86 0)
(0 -3.2541e-97 0)
(0 -9.16002e-109 0)
(0 -2.95573e-120 0)
(0 -1.6699e-131 0)
(0 -2.93557e-139 0)
(0 -5.32684e-150 0)
(0 -1.0098e-157 0)
(0 -1.82085e-168 0)
(0 -3.47349e-176 0)
(0 -7.67201e-187 0)
(0 -1.19446e-194 0)
(0 -3.46069e-205 0)
(0 -4.10988e-213 0)
(0 -2.35134e-223 0)
(0 -1.42192e-231 0)
(0 -1.5647e-241 0)
(0 -4.96361e-250 0)
(0 -8.03101e-260 0)
(0 -1.74857e-268 0)
(0 -3.82818e-278 0)
(0 -6.23087e-287 0)
(0 -1.69984e-296 0)
(0 -2.24262e-305 0)
(0 -7.29278e-315 0)
(0 -9.88131e-324 0)
(0 -0 0)
(0 0 0)
(0 0 0)
(0 0 0)
(0 0 0)
(0 0 0)
(0 0 0)
(0 0 0)
(0 0 0)
(0 0 0)
(0 0 0)
(0 0 0)
(0 0 0)
(0 0 0)
(0 0 0)
(0 0 0)
(0 0 0)
(0 0 0)
)
;

boundaryField
{
    inandouthalf11
    {
        type            cyclic;
    }
    inandouthalf12
    {
        type            cyclic;
    }
    inandouthalf21
    {
        type            cyclic;
    }
    inandouthalf22
    {
        type            cyclic;
    }
    inandouthalf31
    {
        type            cyclic;
    }
    inandouthalf32
    {
        type            cyclic;
    }
    inandouthalf41
    {
        type            cyclic;
    }
    inandouthalf42
    {
        type            cyclic;
    }
    top
    {
        type            symmetryPlane;
    }
    walls
    {
        type            zeroGradient;
    }
    frontAndBackPlanes
    {
        type            empty;
    }
}


// ************************************************************************* //
