/*--------------------------------*- C++ -*----------------------------------*\
| =========                 |                                                 |
| \\      /  F ield         | OpenFOAM: The Open Source CFD Toolbox           |
|  \\    /   O peration     | Version:  2.4.x                                 |
|   \\  /    A nd           | Web:      www.OpenFOAM.org                      |
|    \\/     M anipulation  |                                                 |
\*---------------------------------------------------------------------------*/
FoamFile
{
    version     2.0;
    format      ascii;
    class       volScalarField;
    location    "2.2";
    object      Theta;
}
// * * * * * * * * * * * * * * * * * * * * * * * * * * * * * * * * * * * * * //

dimensions      [0 2 -2 0 0 0 0];

internalField   nonuniform List<scalar> 
360
(
6.66136e-21
6.66136e-21
6.66136e-21
6.66136e-21
6.66136e-21
6.66136e-21
6.66136e-21
6.66136e-21
6.66136e-21
6.66136e-21
6.66136e-21
6.66136e-21
6.66136e-21
6.66136e-21
6.66136e-21
6.66136e-21
6.66136e-21
6.66136e-21
6.66136e-21
6.66136e-21
6.66136e-21
6.66136e-21
6.66136e-21
6.66136e-21
6.66136e-21
6.66136e-21
6.66136e-21
6.66136e-21
6.66136e-21
6.66136e-21
6.66136e-21
6.66136e-21
6.66136e-21
6.66136e-21
6.66136e-21
6.66136e-21
6.66136e-21
6.66136e-21
6.66136e-21
6.66136e-21
6.66136e-21
6.66136e-21
6.66136e-21
6.66136e-21
6.66135e-21
6.66135e-21
6.66135e-21
6.66135e-21
6.66135e-21
6.66135e-21
6.66135e-21
6.66135e-21
6.66135e-21
6.66135e-21
6.66135e-21
6.66135e-21
6.66135e-21
6.66135e-21
6.66135e-21
6.66135e-21
6.66135e-21
6.66135e-21
6.66136e-21
6.66268e-21
6.693e-21
6.89657e-21
7.36897e-21
7.66655e-21
7.45899e-21
7.108e-21
6.88245e-21
6.77495e-21
6.7279e-21
6.70773e-21
6.69994e-21
6.69874e-21
6.70187e-21
6.70821e-21
6.71665e-21
6.72555e-21
6.73303e-21
6.73772e-21
6.73937e-21
6.73876e-21
6.73708e-21
6.73537e-21
6.73428e-21
6.73402e-21
6.73456e-21
6.73569e-21
6.7372e-21
6.7389e-21
6.7407e-21
6.7426e-21
6.74464e-21
6.74689e-21
6.74938e-21
6.75211e-21
6.75503e-21
6.75798e-21
0
0
0
0
0
0
0
0
0
0
0
0
0
0
0
6.77296e-21
6.77122e-21
6.76935e-21
6.76738e-21
6.76532e-21
6.76317e-21
6.76093e-21
6.7586e-21
6.75622e-21
6.75385e-21
6.75155e-21
6.74936e-21
6.74724e-21
6.74497e-21
6.74218e-21
6.73855e-21
6.73408e-21
6.72926e-21
6.7247e-21
6.72048e-21
6.716e-21
6.71081e-21
6.70523e-21
7.66959e-21
1.22842e-19
4.77184e-18
1.9189e-16
7.95947e-15
3.43054e-13
1.56458e-11
1.16491e-09
2.01737e-07
1.03961e-05
0.00015543
0.00131038
0.00359754
0.00552031
0.00709472
0.0084312
0.00956102
0.0104603
0.0110748
0.0113458
0.0112365
0.0107545
0.00997443
0.00906755
0.00833508
0.00787797
0.00760318
0.00742296
0.00728875
0.0071785
0.00708315
0.00699795
0.00692046
0.00684877
0.00678187
0.00671866
0.00665856
0.00660094
0.00654544
0.00649159
0.00643917
0.0063879
0.00633754
0.00628795
0.00623891
0.00619035
0.0061421
0.00609409
0.0060462
0.00599838
0.00595053
0.00590262
0.00585458
0.00580636
0.00575792
0.00570923
0.00566027
0.00561099
0.00556137
0.00551138
0.00546104
0.00541032
0.00535922
0.00530717
0.00525362
0.00519851
0.00514182
0.00508349
0.00502341
0.00496151
0.00489774
0.00483205
0.00476434
0.0046945
0.00462247
0.00454816
0.00447146
0.00439222
0.00431037
0.0042258
0.00413834
0.00404783
0.0039541
0.00385699
0.00375631
0.0036518
0.00354326
0.00343037
0.00331282
0.00319027
0.00306232
0.00292845
0.00278814
0.00264073
0.00248539
0.00232112
0.0021467
0.00196047
0.00176023
0.00154278
0.00130324
0.00103296
0.000713065
0
0
0
0
0
0
0
0
0
0
0
0
0
0
0
0
0
0
0
0
0
0
0
0
0
0
0
0
0
0
0
0
0
0
0
0
0
0
0
0
0
0
0
0
0
0
0
0
0
0
0
0
0
0
0
0
0
0
0
0
0
0
0
0
0
0
0
0
0
0
0
0
0
0
0
0
0
0
0
0
0
0
0
0
0
0
0
0
0
0
0
0
0
0
0
0
0
0
0
0
0
0
0
0
0
0
0
0
0
0
0
0
0
0
0
0
0
0
0
)
;

boundaryField
{
    inandouthalf11
    {
        type            cyclic;
    }
    inandouthalf12
    {
        type            cyclic;
    }
    inandouthalf21
    {
        type            cyclic;
    }
    inandouthalf22
    {
        type            cyclic;
    }
    inandouthalf31
    {
        type            cyclic;
    }
    inandouthalf32
    {
        type            cyclic;
    }
    inandouthalf41
    {
        type            cyclic;
    }
    inandouthalf42
    {
        type            cyclic;
    }
    top
    {
        type            symmetryPlane;
    }
    walls
    {
        type            zeroGradient;
    }
    frontAndBackPlanes
    {
        type            empty;
    }
}


// ************************************************************************* //
