/*--------------------------------*- C++ -*----------------------------------*\
| =========                 |                                                 |
| \\      /  F ield         | OpenFOAM: The Open Source CFD Toolbox           |
|  \\    /   O peration     | Version:  2.4.x                                 |
|   \\  /    A nd           | Web:      www.OpenFOAM.org                      |
|    \\/     M anipulation  |                                                 |
\*---------------------------------------------------------------------------*/
FoamFile
{
    version     2.0;
    format      ascii;
    class       volVectorField;
    location    "2.2";
    object      Ua;
}
// * * * * * * * * * * * * * * * * * * * * * * * * * * * * * * * * * * * * * //

dimensions      [0 1 -1 0 0 0 0];

internalField   nonuniform List<vector> 
360
(
(8.41988e-37 -1.48572e-35 0)
(8.418e-37 -1.48557e-35 0)
(8.41259e-37 -1.48606e-35 0)
(8.3968e-37 -1.48745e-35 0)
(8.3658e-37 -1.49014e-35 0)
(8.31369e-37 -1.49467e-35 0)
(8.23444e-37 -1.50155e-35 0)
(8.12311e-37 -1.51121e-35 0)
(7.97663e-37 -1.5239e-35 0)
(7.7941e-37 -1.5397e-35 0)
(7.57634e-37 -1.55852e-35 0)
(7.32522e-37 -1.58017e-35 0)
(7.04249e-37 -1.60449e-35 0)
(6.72895e-37 -1.63138e-35 0)
(6.38425e-37 -1.66086e-35 0)
(6.00671e-37 -1.69303e-35 0)
(5.59313e-37 -1.72814e-35 0)
(5.13861e-37 -1.76656e-35 0)
(4.63625e-37 -1.80882e-35 0)
(4.07683e-37 -1.85566e-35 0)
(3.44879e-37 -1.90798e-35 0)
(2.73758e-37 -1.96689e-35 0)
(1.92463e-37 -2.03387e-35 0)
(9.86648e-38 -2.11068e-35 0)
(-1.06036e-38 -2.19961e-35 0)
(-1.39231e-37 -2.3036e-35 0)
(-2.92454e-37 -2.42662e-35 0)
(-4.77458e-37 -2.57415e-35 0)
(-7.04039e-37 -2.75361e-35 0)
(-9.85503e-37 -2.97498e-35 0)
(-1.3403e-36 -3.25198e-35 0)
(-1.79467e-36 -3.60416e-35 0)
(-2.38631e-36 -4.05932e-35 0)
(-3.1706e-36 -4.65829e-35 0)
(-4.22997e-36 -5.46149e-35 0)
(-5.68902e-36 -6.55951e-35 0)
(-7.74086e-36 -8.09236e-35 0)
(-1.06932e-35 -1.02822e-34 0)
(-1.50441e-35 -1.34879e-34 0)
(-2.16212e-35 -1.83008e-34 0)
(-3.18304e-35 -2.57212e-34 0)
(-4.81773e-35 -3.75301e-34 0)
(-7.5195e-35 -5.69212e-34 0)
(-1.21629e-34 -9.00585e-34 0)
(-2.04701e-34 -1.49017e-33 0)
(-3.60921e-34 -2.59357e-33 0)
(-6.69701e-34 -4.7639e-33 0)
(-1.32254e-33 -9.3349e-33 0)
(-2.7965e-33 -1.96115e-32 0)
(-6.44712e-33 -4.50202e-32 0)
(-1.63322e-32 -1.13644e-31 0)
(-4.68987e-32 -3.25876e-31 0)
(-1.53008e-31 -1.062e-30 0)
(-5.87736e-31 -4.08327e-30 0)
(-2.71612e-30 -1.88856e-29 0)
(-1.69099e-29 -1.18213e-28 0)
(-1.35548e-28 -9.52226e-28 0)
(-1.48349e-27 -1.04905e-26 0)
(-2.64091e-26 -1.88173e-25 0)
(-2.80002e-24 -2.02277e-23 0)
(-3.96277e-21 -2.89835e-20 0)
(-1.78799e-17 -1.32681e-16 0)
(-2.87323e-13 -2.16797e-12 0)
(-1.16546e-09 -8.96258e-09 0)
(-1.31342e-08 -1.02876e-07 0)
(-6.34346e-08 -5.04677e-07 0)
(-1.78329e-07 -1.43211e-06 0)
(-3.42187e-07 -2.75549e-06 0)
(-5.06312e-07 -4.07289e-06 0)
(-6.36909e-07 -5.11467e-06 0)
(-7.29973e-07 -5.85614e-06 0)
(-7.953e-07 -6.3791e-06 0)
(-8.43312e-07 -6.7668e-06 0)
(-8.81451e-07 -7.07824e-06 0)
(-9.1452e-07 -7.35174e-06 0)
(-9.45621e-07 -7.61259e-06 0)
(-9.76829e-07 -7.8783e-06 0)
(-1.00951e-06 -8.16103e-06 0)
(-1.04443e-06 -8.46815e-06 0)
(-1.0817e-06 -8.80172e-06 0)
(-1.12088e-06 -9.15836e-06 0)
(-1.16111e-06 -9.53087e-06 0)
(-1.20147e-06 -9.91094e-06 0)
(-1.2412e-06 -1.02917e-05 0)
(-1.27986e-06 -1.06689e-05 0)
(-1.31733e-06 -1.10416e-05 0)
(-1.35369e-06 -1.14106e-05 0)
(-1.38913e-06 -1.1778e-05 0)
(-1.42384e-06 -1.21459e-05 0)
(-1.45795e-06 -1.25161e-05 0)
(-1.49155e-06 -1.28899e-05 0)
(-1.52465e-06 -1.32679e-05 0)
(-1.55723e-06 -1.36502e-05 0)
(-1.58926e-06 -1.4037e-05 0)
(-1.62069e-06 -1.44287e-05 0)
(-1.6515e-06 -1.48254e-05 0)
(-1.68166e-06 -1.52277e-05 0)
(-1.71113e-06 -1.5636e-05 0)
(-1.73986e-06 -1.60509e-05 0)
(-1.76777e-06 -1.64725e-05 0)
(-1.79477e-06 -1.6901e-05 0)
(-1.82076e-06 -1.73361e-05 0)
(-1.84561e-06 -1.77777e-05 0)
(-1.86918e-06 -1.82251e-05 0)
(-1.89134e-06 -1.8678e-05 0)
(-1.91192e-06 -1.91354e-05 0)
(-1.9308e-06 -1.95968e-05 0)
(-1.9478e-06 -2.00612e-05 0)
(-1.9628e-06 -2.05277e-05 0)
(-1.97565e-06 -2.09955e-05 0)
(-1.98622e-06 -2.14636e-05 0)
(-1.99439e-06 -2.19313e-05 0)
(-2.00004e-06 -2.23978e-05 0)
(-2.00305e-06 -2.28625e-05 0)
(-2.00332e-06 -2.33247e-05 0)
(-2.00075e-06 -2.37841e-05 0)
(-1.99522e-06 -2.42401e-05 0)
(-1.98662e-06 -2.46925e-05 0)
(-1.97485e-06 -2.5141e-05 0)
(-1.95978e-06 -2.55854e-05 0)
(-1.94128e-06 -2.60254e-05 0)
(-1.91922e-06 -2.64607e-05 0)
(-1.89346e-06 -2.68911e-05 0)
(-1.86382e-06 -2.73165e-05 0)
(-1.83015e-06 -2.77365e-05 0)
(-1.79223e-06 -2.81512e-05 0)
(-1.74982e-06 -2.85608e-05 0)
(-1.70262e-06 -2.89654e-05 0)
(-1.65035e-06 -2.93649e-05 0)
(-1.59279e-06 -2.97586e-05 0)
(-1.52987e-06 -3.01445e-05 0)
(-1.46169e-06 -3.052e-05 0)
(-1.38834e-06 -3.0883e-05 0)
(-1.30969e-06 -3.12329e-05 0)
(-1.22534e-06 -3.15706e-05 0)
(-1.13504e-06 -3.1896e-05 0)
(-1.03902e-06 -3.22066e-05 0)
(-9.3783e-07 -3.24992e-05 0)
(-8.31921e-07 -3.27728e-05 0)
(-7.23535e-07 -3.30245e-05 0)
(-6.21088e-07 -3.32381e-05 0)
(-5.37228e-07 -3.33902e-05 0)
(-4.75505e-07 -3.34851e-05 0)
(-4.30114e-07 -3.35452e-05 0)
(-3.96219e-07 -3.3585e-05 0)
(-3.73423e-07 -3.36086e-05 0)
(-3.6221e-07 -3.36181e-05 0)
(-3.57761e-07 -3.36198e-05 0)
(-3.53605e-07 -3.36192e-05 0)
(0.0431803 0.00216114 0)
(0.131659 0.00897459 0)
(0.216305 0.0130931 0)
(0.293981 0.0165441 0)
(0.366918 0.0195275 0)
(0.43682 0.0220055 0)
(0.504654 0.0238742 0)
(0.570762 0.0250362 0)
(0.634984 0.0254414 0)
(0.69674 0.025134 0)
(0.755002 0.024249 0)
(0.808097 0.0229213 0)
(0.853478 0.0216019 0)
(0.887253 0.0206434 0)
(0.90904 0.0198595 0)
(0.923102 0.0190433 0)
(0.933037 0.0181925 0)
(0.940825 0.0173517 0)
(0.947391 0.0165536 0)
(0.95314 0.0158164 0)
(0.958285 0.0151377 0)
(0.962949 0.0145133 0)
(0.967222 0.0139349 0)
(0.971166 0.0133983 0)
(0.974834 0.0128965 0)
(0.978263 0.0124268 0)
(0.981482 0.0119854 0)
(0.984521 0.011569 0)
(0.987402 0.0111744 0)
(0.990134 0.0108016 0)
(0.992746 0.0104457 0)
(0.99524 0.0101073 0)
(0.997635 0.00978366 0)
(0.999937 0.00947395 0)
(1.00216 0.00917689 0)
(1.0043 0.00889172 0)
(1.00637 0.0086175 0)
(1.00838 0.0083527 0)
(1.01033 0.00809689 0)
(1.01222 0.00785053 0)
(1.01406 0.0076132 0)
(1.01587 0.00738058 0)
(1.01762 0.00715656 0)
(1.01933 0.00693911 0)
(1.021 0.00672927 0)
(1.02263 0.00652513 0)
(1.02423 0.00632502 0)
(1.02581 0.00613012 0)
(1.02733 0.0059422 0)
(1.02881 0.00576186 0)
(1.03025 0.00558737 0)
(1.03167 0.00541531 0)
(1.0331 0.00524366 0)
(1.03451 0.0050745 0)
(1.03589 0.00491048 0)
(1.03724 0.0047516 0)
(1.03862 0.00458973 0)
(1.04003 0.0044238 0)
(1.04143 0.00425941 0)
(1.04279 0.00410138 0)
(1.04414 0.00394523 0)
(1.04553 0.00378326 0)
(1.04693 0.00362041 0)
(1.04829 0.00346383 0)
(1.04965 0.00330647 0)
(1.05107 0.0031412 0)
(1.05249 0.00297623 0)
(1.05386 0.00281837 0)
(1.05523 0.00265947 0)
(1.05668 0.00249039 0)
(1.05814 0.00231802 0)
(1.05957 0.00215098 0)
(1.06101 0.00198123 0)
(1.06251 0.0018028 0)
(1.06399 0.00162514 0)
(1.06549 0.00144552 0)
(1.06705 0.00125488 0)
(1.06861 0.00106337 0)
(1.07016 0.000873208 0)
(1.07177 0.000670841 0)
(1.07342 0.000461082 0)
(1.07504 0.00025479 0)
(1.0767 3.92653e-05 0)
(1.07842 -0.000187999 0)
(1.08012 -0.000414546 0)
(1.08183 -0.000646843 0)
(1.08354 -0.000883581 0)
(1.08521 -0.0011192 0)
(1.08681 -0.00134892 0)
(1.08824 -0.001557 0)
(1.08944 -0.00173629 0)
(1.09037 -0.00187434 0)
(1.09137 -0.00204005 0)
(1.20758 -0.0395109 0)
(1.20758 -0.0395108 0)
(1.20758 -0.0395108 0)
(1.20759 -0.0395108 0)
(1.20759 -0.0395108 0)
(1.20759 -0.0395108 0)
(1.20759 -0.0395108 0)
(1.20759 -0.0395108 0)
(1.20759 -0.0395108 0)
(1.20759 -0.0395108 0)
(1.20759 -0.0395108 0)
(1.2076 -0.0395108 0)
(1.2076 -0.0395108 0)
(1.2076 -0.0395108 0)
(1.2076 -0.0395108 0)
(1.2076 -0.0395108 0)
(1.2076 -0.0395108 0)
(1.2076 -0.0395108 0)
(1.2076 -0.0395108 0)
(1.2076 -0.0395108 0)
(1.2076 -0.0395108 0)
(1.2076 -0.0395108 0)
(1.2076 -0.0395108 0)
(1.2076 -0.0395108 0)
(1.2076 -0.0395108 0)
(1.2076 -0.0395108 0)
(1.2076 -0.0395108 0)
(1.2076 -0.0395108 0)
(1.2076 -0.0395108 0)
(1.2076 -0.0395108 0)
(1.2076 -0.0395108 0)
(1.2076 -0.0395108 0)
(1.2076 -0.0395108 0)
(1.2076 -0.0395108 0)
(1.2076 -0.0395108 0)
(1.2076 -0.0395108 0)
(1.2076 -0.0395108 0)
(1.2076 -0.0395108 0)
(1.2076 -0.0395108 0)
(1.2076 -0.0395108 0)
(1.2076 -0.0395108 0)
(1.2076 -0.0395108 0)
(1.2076 -0.0395108 0)
(1.2076 -0.0395108 0)
(1.2076 -0.0395108 0)
(1.2076 -0.0395108 0)
(1.2076 -0.0395108 0)
(1.2076 -0.0395108 0)
(1.2076 -0.0395108 0)
(1.2076 -0.0395108 0)
(1.2076 -0.0395108 0)
(1.2076 -0.0395108 0)
(1.2076 -0.0395108 0)
(1.2076 -0.0395108 0)
(1.2076 -0.0395108 0)
(1.2076 -0.0395108 0)
(1.2076 -0.0395108 0)
(1.2076 -0.0395108 0)
(1.2076 -0.0395108 0)
(1.2076 -0.0395108 0)
(1.2076 -0.0395108 0)
(1.2076 -0.0395108 0)
(1.2076 -0.0395108 0)
(1.2076 -0.0395108 0)
(1.2076 -0.0395108 0)
(1.2076 -0.0395108 0)
(1.2076 -0.0395108 0)
(1.2076 -0.0395108 0)
(1.2076 -0.0395108 0)
(1.2076 -0.0395108 0)
(1.2076 -0.0395108 0)
(1.2076 -0.0395108 0)
(1.2076 -0.0395108 0)
(1.2076 -0.0395108 0)
(1.2076 -0.0395108 0)
(1.2076 -0.0395108 0)
(1.2076 -0.0395108 0)
(1.2076 -0.0395108 0)
(1.2076 -0.0395108 0)
(1.2076 -0.0395108 0)
(1.2076 -0.0395108 0)
(1.2076 -0.0395108 0)
(1.2076 -0.0395108 0)
(1.2076 -0.0395108 0)
(1.2076 -0.0395108 0)
(1.2076 -0.0395108 0)
(1.2076 -0.0395108 0)
(1.2076 -0.0395108 0)
(1.2076 -0.0395108 0)
(1.2076 -0.0395108 0)
(1.2076 -0.0395108 0)
(1.2076 -0.0395108 0)
(1.2076 -0.0395108 0)
(1.2076 -0.0395108 0)
(1.2076 -0.0395108 0)
(1.2076 -0.0395108 0)
(1.2076 -0.0395108 0)
(1.2076 -0.0395108 0)
(1.2076 -0.0395108 0)
(1.2076 -0.0395108 0)
(1.2076 -0.0395108 0)
(1.2076 -0.0395108 0)
(1.2076 -0.0395108 0)
(1.2076 -0.0395108 0)
(1.2076 -0.0395108 0)
(1.2076 -0.0395108 0)
(1.2076 -0.0395108 0)
(1.2076 -0.0395108 0)
(1.2076 -0.0395108 0)
(1.2076 -0.0395108 0)
(1.2076 -0.0395108 0)
(1.2076 -0.0395108 0)
(1.2076 -0.0395108 0)
(1.2076 -0.0395108 0)
(1.2076 -0.0395106 0)
(1.2076 -0.0395021 0)
(1.20762 -0.0391566 0)
(1.2082 -0.0224232 0)
)
;

boundaryField
{
    inandouthalf11
    {
        type            cyclic;
    }
    inandouthalf12
    {
        type            cyclic;
    }
    inandouthalf21
    {
        type            cyclic;
    }
    inandouthalf22
    {
        type            cyclic;
    }
    inandouthalf31
    {
        type            cyclic;
    }
    inandouthalf32
    {
        type            cyclic;
    }
    inandouthalf41
    {
        type            cyclic;
    }
    inandouthalf42
    {
        type            cyclic;
    }
    top
    {
        type            symmetryPlane;
    }
    walls
    {
        type            fixedValue;
        value           uniform (0 0 0);
    }
    frontAndBackPlanes
    {
        type            empty;
    }
}


// ************************************************************************* //
