/*--------------------------------*- C++ -*----------------------------------*\
| =========                 |                                                 |
| \\      /  F ield         | OpenFOAM: The Open Source CFD Toolbox           |
|  \\    /   O peration     | Version:  2.4.x                                 |
|   \\  /    A nd           | Web:      www.OpenFOAM.org                      |
|    \\/     M anipulation  |                                                 |
\*---------------------------------------------------------------------------*/
FoamFile
{
    version     2.0;
    format      ascii;
    class       volVectorField;
    location    "2.2";
    object      Ua_0;
}
// * * * * * * * * * * * * * * * * * * * * * * * * * * * * * * * * * * * * * //

dimensions      [0 1 -1 0 0 0 0];

internalField   nonuniform List<vector> 
360
(
(8.43028e-37 -1.48455e-35 0)
(8.42841e-37 -1.4844e-35 0)
(8.42301e-37 -1.48489e-35 0)
(8.4073e-37 -1.48627e-35 0)
(8.37647e-37 -1.48895e-35 0)
(8.32468e-37 -1.49345e-35 0)
(8.24597e-37 -1.50029e-35 0)
(8.1354e-37 -1.50988e-35 0)
(7.98994e-37 -1.52249e-35 0)
(7.80868e-37 -1.53818e-35 0)
(7.5924e-37 -1.55688e-35 0)
(7.34294e-37 -1.57839e-35 0)
(7.06205e-37 -1.60256e-35 0)
(6.75054e-37 -1.62929e-35 0)
(6.40807e-37 -1.65858e-35 0)
(6.03302e-37 -1.69055e-35 0)
(5.62223e-37 -1.72543e-35 0)
(5.1709e-37 -1.7636e-35 0)
(4.67223e-37 -1.80556e-35 0)
(4.11713e-37 -1.85206e-35 0)
(3.49422e-37 -1.90396e-35 0)
(2.78918e-37 -1.96239e-35 0)
(1.98369e-37 -2.02877e-35 0)
(1.05487e-37 -2.10486e-35 0)
(-2.64692e-39 -2.1929e-35 0)
(-1.29854e-37 -2.29579e-35 0)
(-2.81279e-37 -2.41741e-35 0)
(-4.63975e-37 -2.56316e-35 0)
(-6.87558e-37 -2.74032e-35 0)
(-9.65071e-37 -2.95867e-35 0)
(-1.3146e-36 -3.23167e-35 0)
(-1.76183e-36 -3.57847e-35 0)
(-2.34368e-36 -4.02629e-35 0)
(-3.1143e-36 -4.61507e-35 0)
(-4.15428e-36 -5.40392e-35 0)
(-5.58531e-36 -6.48133e-35 0)
(-7.59589e-36 -7.98403e-35 0)
(-1.04862e-35 -1.01288e-34 0)
(-1.47414e-35 -1.32655e-34 0)
(-2.11675e-35 -1.797e-34 0)
(-3.1132e-35 -2.52159e-34 0)
(-4.70699e-35 -3.67348e-34 0)
(-7.33836e-35 -5.56295e-34 0)
(-1.18556e-34 -8.78813e-34 0)
(-1.99279e-34 -1.45201e-33 0)
(-3.50895e-34 -2.52341e-33 0)
(-6.50224e-34 -4.62836e-33 0)
(-1.28221e-33 -9.05554e-33 0)
(-2.70728e-33 -1.89963e-32 0)
(-6.23116e-33 -4.35353e-32 0)
(-1.57585e-32 -1.0971e-31 0)
(-4.51571e-32 -3.13938e-31 0)
(-1.47028e-31 -1.02104e-30 0)
(-5.63351e-31 -3.91593e-30 0)
(-2.5962e-30 -1.80616e-29 0)
(-1.60992e-29 -1.12606e-28 0)
(-1.28658e-28 -9.04324e-28 0)
(-1.40233e-27 -9.9222e-27 0)
(-2.48072e-26 -1.76861e-25 0)
(-2.54399e-24 -1.83885e-23 0)
(-3.61659e-21 -2.64671e-20 0)
(-1.62678e-17 -1.20791e-16 0)
(-2.60479e-13 -1.96664e-12 0)
(-1.14001e-09 -8.77251e-09 0)
(-1.29285e-08 -1.01334e-07 0)
(-6.27422e-08 -4.99541e-07 0)
(-1.77023e-07 -1.42278e-06 0)
(-3.40556e-07 -2.74472e-06 0)
(-5.04737e-07 -4.0638e-06 0)
(-6.35549e-07 -5.10825e-06 0)
(-7.28806e-07 -5.85191e-06 0)
(-7.94256e-07 -6.37633e-06 0)
(-8.42334e-07 -6.76492e-06 0)
(-8.80505e-07 -7.07688e-06 0)
(-9.13582e-07 -7.35071e-06 0)
(-9.44678e-07 -7.61176e-06 0)
(-9.75871e-07 -7.87761e-06 0)
(-1.00853e-06 -8.16044e-06 0)
(-1.04342e-06 -8.46768e-06 0)
(-1.08068e-06 -8.80137e-06 0)
(-1.11983e-06 -9.15816e-06 0)
(-1.16004e-06 -9.53084e-06 0)
(-1.20037e-06 -9.91109e-06 0)
(-1.24007e-06 -1.0292e-05 0)
(-1.2787e-06 -1.06694e-05 0)
(-1.31614e-06 -1.10422e-05 0)
(-1.35247e-06 -1.14114e-05 0)
(-1.38788e-06 -1.17789e-05 0)
(-1.42256e-06 -1.21469e-05 0)
(-1.45663e-06 -1.25173e-05 0)
(-1.4902e-06 -1.28912e-05 0)
(-1.52326e-06 -1.32692e-05 0)
(-1.5558e-06 -1.36516e-05 0)
(-1.58778e-06 -1.40386e-05 0)
(-1.61917e-06 -1.44303e-05 0)
(-1.64994e-06 -1.48271e-05 0)
(-1.68006e-06 -1.52294e-05 0)
(-1.70948e-06 -1.56379e-05 0)
(-1.73816e-06 -1.60528e-05 0)
(-1.76602e-06 -1.64745e-05 0)
(-1.79298e-06 -1.69031e-05 0)
(-1.81892e-06 -1.73383e-05 0)
(-1.84372e-06 -1.77799e-05 0)
(-1.86724e-06 -1.82275e-05 0)
(-1.88934e-06 -1.86805e-05 0)
(-1.90988e-06 -1.91381e-05 0)
(-1.92869e-06 -1.95996e-05 0)
(-1.94565e-06 -2.00642e-05 0)
(-1.96059e-06 -2.05309e-05 0)
(-1.97339e-06 -2.09988e-05 0)
(-1.9839e-06 -2.14672e-05 0)
(-1.99201e-06 -2.19351e-05 0)
(-1.9976e-06 -2.24018e-05 0)
(-2.00055e-06 -2.28667e-05 0)
(-2.00076e-06 -2.33292e-05 0)
(-1.99812e-06 -2.37888e-05 0)
(-1.99252e-06 -2.42451e-05 0)
(-1.98386e-06 -2.46977e-05 0)
(-1.97202e-06 -2.51465e-05 0)
(-1.95688e-06 -2.55911e-05 0)
(-1.93831e-06 -2.60313e-05 0)
(-1.91618e-06 -2.64669e-05 0)
(-1.89034e-06 -2.68975e-05 0)
(-1.86063e-06 -2.73231e-05 0)
(-1.82688e-06 -2.77434e-05 0)
(-1.78888e-06 -2.81583e-05 0)
(-1.74638e-06 -2.85681e-05 0)
(-1.6991e-06 -2.89729e-05 0)
(-1.64674e-06 -2.93727e-05 0)
(-1.58909e-06 -2.97666e-05 0)
(-1.52608e-06 -3.01527e-05 0)
(-1.45781e-06 -3.05284e-05 0)
(-1.38436e-06 -3.08916e-05 0)
(-1.30561e-06 -3.12417e-05 0)
(-1.22117e-06 -3.15796e-05 0)
(-1.13076e-06 -3.19052e-05 0)
(-1.03464e-06 -3.2216e-05 0)
(-9.33344e-07 -3.25087e-05 0)
(-8.27327e-07 -3.27826e-05 0)
(-7.18838e-07 -3.30344e-05 0)
(-6.16302e-07 -3.32481e-05 0)
(-5.32373e-07 -3.34003e-05 0)
(-4.706e-07 -3.34952e-05 0)
(-4.25164e-07 -3.35554e-05 0)
(-3.91223e-07 -3.35952e-05 0)
(-3.68381e-07 -3.36189e-05 0)
(-3.5714e-07 -3.36285e-05 0)
(-3.52691e-07 -3.36301e-05 0)
(-3.48547e-07 -3.36295e-05 0)
(0.0430216 0.00212725 0)
(0.131483 0.0089731 0)
(0.216222 0.0131025 0)
(0.293975 0.0165594 0)
(0.366978 0.0195442 0)
(0.436941 0.0220188 0)
(0.504833 0.023879 0)
(0.570995 0.0250274 0)
(0.635267 0.025415 0)
(0.697066 0.0250891 0)
(0.75536 0.0241883 0)
(0.808467 0.0228504 0)
(0.853822 0.0215331 0)
(0.887509 0.0205814 0)
(0.909223 0.0198005 0)
(0.923248 0.0189857 0)
(0.933168 0.0181361 0)
(0.940951 0.0172966 0)
(0.947516 0.0164998 0)
(0.953266 0.015764 0)
(0.958412 0.0150865 0)
(0.963078 0.0144632 0)
(0.967353 0.0138859 0)
(0.971299 0.0133503 0)
(0.974969 0.0128494 0)
(0.9784 0.0123806 0)
(0.981621 0.01194 0)
(0.984662 0.0115244 0)
(0.987545 0.0111305 0)
(0.990279 0.0107584 0)
(0.992893 0.0104032 0)
(0.995388 0.0100655 0)
(0.997786 0.00974242 0)
(1.00009 0.00943332 0)
(1.00231 0.00913685 0)
(1.00445 0.00885225 0)
(1.00652 0.00857858 0)
(1.00853 0.00831433 0)
(1.01049 0.00805903 0)
(1.01238 0.0078132 0)
(1.01422 0.00757636 0)
(1.01603 0.00734423 0)
(1.01778 0.00712069 0)
(1.0195 0.0069037 0)
(1.02116 0.00669431 0)
(1.0228 0.00649062 0)
(1.0244 0.00629094 0)
(1.02598 0.00609647 0)
(1.0275 0.00590897 0)
(1.02898 0.00572903 0)
(1.03042 0.00555493 0)
(1.03185 0.00538323 0)
(1.03327 0.00521196 0)
(1.03468 0.00504317 0)
(1.03607 0.00487951 0)
(1.03742 0.00472099 0)
(1.03879 0.00455946 0)
(1.0402 0.00439388 0)
(1.0416 0.00422984 0)
(1.04296 0.00407215 0)
(1.04431 0.00391633 0)
(1.04571 0.00375469 0)
(1.04711 0.00359218 0)
(1.04846 0.00343592 0)
(1.04983 0.00327888 0)
(1.05125 0.00311393 0)
(1.05267 0.00294929 0)
(1.05404 0.00279174 0)
(1.05541 0.00263313 0)
(1.05686 0.00246437 0)
(1.05833 0.00229231 0)
(1.05975 0.00212557 0)
(1.0612 0.00195612 0)
(1.06269 0.001778 0)
(1.06418 0.00160063 0)
(1.06568 0.0014213 0)
(1.06724 0.00123097 0)
(1.0688 0.00103976 0)
(1.07034 0.000849885 0)
(1.07196 0.000647814 0)
(1.07361 0.000438354 0)
(1.07523 0.000232348 0)
(1.07689 1.71114e-05 0)
(1.07861 -0.000209859 0)
(1.0803 -0.000436123 0)
(1.08201 -0.000668139 0)
(1.08372 -0.0009046 0)
(1.0854 -0.00113996 0)
(1.087 -0.00136943 0)
(1.08843 -0.0015773 0)
(1.08963 -0.00175643 0)
(1.09056 -0.00189437 0)
(1.09156 -0.00205998 0)
(1.20776 -0.0395109 0)
(1.20776 -0.0395108 0)
(1.20777 -0.0395108 0)
(1.20777 -0.0395108 0)
(1.20777 -0.0395108 0)
(1.20777 -0.0395108 0)
(1.20777 -0.0395108 0)
(1.20778 -0.0395108 0)
(1.20778 -0.0395108 0)
(1.20778 -0.0395108 0)
(1.20778 -0.0395108 0)
(1.20778 -0.0395108 0)
(1.20778 -0.0395108 0)
(1.20778 -0.0395108 0)
(1.20778 -0.0395108 0)
(1.20778 -0.0395108 0)
(1.20778 -0.0395108 0)
(1.20778 -0.0395108 0)
(1.20778 -0.0395108 0)
(1.20778 -0.0395108 0)
(1.20778 -0.0395108 0)
(1.20778 -0.0395108 0)
(1.20778 -0.0395108 0)
(1.20778 -0.0395108 0)
(1.20778 -0.0395108 0)
(1.20778 -0.0395108 0)
(1.20778 -0.0395108 0)
(1.20778 -0.0395108 0)
(1.20778 -0.0395108 0)
(1.20778 -0.0395108 0)
(1.20778 -0.0395108 0)
(1.20778 -0.0395108 0)
(1.20778 -0.0395108 0)
(1.20778 -0.0395108 0)
(1.20778 -0.0395108 0)
(1.20778 -0.0395108 0)
(1.20778 -0.0395108 0)
(1.20778 -0.0395108 0)
(1.20778 -0.0395108 0)
(1.20778 -0.0395108 0)
(1.20778 -0.0395108 0)
(1.20778 -0.0395108 0)
(1.20778 -0.0395108 0)
(1.20778 -0.0395108 0)
(1.20778 -0.0395108 0)
(1.20778 -0.0395108 0)
(1.20778 -0.0395108 0)
(1.20778 -0.0395108 0)
(1.20778 -0.0395108 0)
(1.20778 -0.0395108 0)
(1.20778 -0.0395108 0)
(1.20778 -0.0395108 0)
(1.20778 -0.0395108 0)
(1.20778 -0.0395108 0)
(1.20778 -0.0395108 0)
(1.20778 -0.0395108 0)
(1.20778 -0.0395108 0)
(1.20778 -0.0395108 0)
(1.20778 -0.0395108 0)
(1.20778 -0.0395108 0)
(1.20778 -0.0395108 0)
(1.20778 -0.0395108 0)
(1.20778 -0.0395108 0)
(1.20778 -0.0395108 0)
(1.20778 -0.0395108 0)
(1.20778 -0.0395108 0)
(1.20778 -0.0395108 0)
(1.20778 -0.0395108 0)
(1.20778 -0.0395108 0)
(1.20778 -0.0395108 0)
(1.20778 -0.0395108 0)
(1.20778 -0.0395108 0)
(1.20778 -0.0395108 0)
(1.20778 -0.0395108 0)
(1.20778 -0.0395108 0)
(1.20778 -0.0395108 0)
(1.20778 -0.0395108 0)
(1.20778 -0.0395108 0)
(1.20778 -0.0395108 0)
(1.20778 -0.0395108 0)
(1.20778 -0.0395108 0)
(1.20778 -0.0395108 0)
(1.20778 -0.0395108 0)
(1.20778 -0.0395108 0)
(1.20778 -0.0395108 0)
(1.20778 -0.0395108 0)
(1.20778 -0.0395108 0)
(1.20778 -0.0395108 0)
(1.20778 -0.0395108 0)
(1.20778 -0.0395108 0)
(1.20778 -0.0395108 0)
(1.20778 -0.0395108 0)
(1.20778 -0.0395108 0)
(1.20778 -0.0395108 0)
(1.20778 -0.0395108 0)
(1.20778 -0.0395108 0)
(1.20778 -0.0395108 0)
(1.20778 -0.0395108 0)
(1.20778 -0.0395108 0)
(1.20778 -0.0395108 0)
(1.20778 -0.0395108 0)
(1.20778 -0.0395108 0)
(1.20778 -0.0395108 0)
(1.20778 -0.0395108 0)
(1.20778 -0.0395108 0)
(1.20778 -0.0395108 0)
(1.20778 -0.0395108 0)
(1.20778 -0.0395108 0)
(1.20778 -0.0395108 0)
(1.20778 -0.0395108 0)
(1.20778 -0.0395108 0)
(1.20778 -0.0395108 0)
(1.20778 -0.0395108 0)
(1.20778 -0.0395108 0)
(1.20778 -0.0395106 0)
(1.20778 -0.0395021 0)
(1.20781 -0.0391566 0)
(1.20839 -0.0224232 0)
)
;

boundaryField
{
    inandouthalf11
    {
        type            cyclic;
    }
    inandouthalf12
    {
        type            cyclic;
    }
    inandouthalf21
    {
        type            cyclic;
    }
    inandouthalf22
    {
        type            cyclic;
    }
    inandouthalf31
    {
        type            cyclic;
    }
    inandouthalf32
    {
        type            cyclic;
    }
    inandouthalf41
    {
        type            cyclic;
    }
    inandouthalf42
    {
        type            cyclic;
    }
    top
    {
        type            symmetryPlane;
    }
    walls
    {
        type            fixedValue;
        value           uniform (0 0 0);
    }
    frontAndBackPlanes
    {
        type            empty;
    }
}


// ************************************************************************* //
