/*--------------------------------*- C++ -*----------------------------------*\
| =========                 |                                                 |
| \\      /  F ield         | OpenFOAM: The Open Source CFD Toolbox           |
|  \\    /   O peration     | Version:  2.4.x                                 |
|   \\  /    A nd           | Web:      www.OpenFOAM.org                      |
|    \\/     M anipulation  |                                                 |
\*---------------------------------------------------------------------------*/
FoamFile
{
    version     2.0;
    format      ascii;
    class       volVectorField;
    location    "3.5";
    object      gradPf;
}
// * * * * * * * * * * * * * * * * * * * * * * * * * * * * * * * * * * * * * //

dimensions      [0 1 -2 0 0 0 0];

internalField   nonuniform List<vector> 
360
(
(0 25.3422 0)
(0 36.282 0)
(0 9.99957 0)
(0 -3.89355 0)
(-1.67471e-14 -5.4689 0)
(-3.34962e-14 -5.00863 0)
(-3.34982e-14 -4.77624 0)
(0 -4.23373 0)
(-1.67508e-14 -3.7974 0)
(0 -3.79692 0)
(-3.35048e-14 -3.91644 0)
(0 -3.99066 0)
(-1.67541e-14 -3.9655 0)
(0 -3.86886 0)
(0 -3.84607 0)
(0 -3.94973 0)
(0 -4.19196 0)
(-1.67584e-14 -4.58443 0)
(0 -5.15881 0)
(0 -5.72726 0)
(0 -6.08277 0)
(-1.67636e-14 -5.91438 0)
(0 -4.94453 0)
(0 -3.46348 0)
(0 -2.02323 0)
(-1.67669e-14 -1.02918 0)
(0 -0.565878 0)
(0 -0.402618 0)
(0 -0.323911 0)
(0 -0.298976 0)
(0 -0.344661 0)
(0 -0.343061 0)
(0 -0.39647 0)
(0 -0.449583 0)
(0 -0.449526 0)
(1.6768e-14 -0.500645 0)
(0 -0.549757 0)
(0 -0.649098 0)
(0 -0.643841 0)
(0 -0.69222 0)
(0 -0.790176 0)
(0 -0.782408 0)
(3.35383e-14 -0.877029 0)
(0 -0.968512 0)
(0 -1.00772 0)
(0 -1.0968 0)
(0 -1.13052 0)
(0 -1.21004 0)
(0 -1.38332 0)
(0 -1.45188 0)
(3.35431e-14 -1.51933 0)
(0 -1.63255 0)
(0 -1.73605 0)
(0 -1.82977 0)
(0 -1.95868 0)
(0 -2.07408 0)
(0 -2.17477 0)
(0 -2.30508 0)
(0 -2.36837 0)
(0 -2.49478 0)
(0 -2.58891 0)
(0 -2.64675 0)
(0 -2.71334 0)
(0 -2.74478 0)
(0 -2.7875 0)
(0 -2.84363 0)
(0 -2.9215 0)
(0 -2.99211 0)
(0 -3.05507 0)
(0 -3.15812 0)
(0 -3.27872 0)
(0 -3.32555 0)
(0 -3.38784 0)
(0 -3.46209 0)
(0 -3.50947 0)
(0 -3.54043 0)
(0 -3.55526 0)
(0 -3.59469 0)
(0 -3.63687 0)
(0 -3.67289 0)
(0 -3.71704 0)
(0 -3.77299 0)
(0 -3.82149 0)
(0 -3.86601 0)
(0 -3.90487 0)
(0 -3.93793 0)
(0 -3.96399 0)
(0 -3.98305 0)
(0 -4.00392 0)
(0 -4.02544 0)
(0 -4.04654 0)
(0 -4.07075 0)
(0 -4.09695 0)
(0 -4.12188 0)
(0 -4.14561 0)
(0 -4.16761 0)
(0 -4.18731 0)
(0 -4.20499 0)
(0 -4.22146 0)
(0 -4.237 0)
(0 -4.25175 0)
(0 -4.26609 0)
(0 -4.27992 0)
(0 -4.29297 0)
(0 -4.30523 0)
(0 -4.31672 0)
(0 -4.32744 0)
(0 -4.33745 0)
(0 -4.34679 0)
(0 -4.35542 0)
(0 -4.36329 0)
(0 -4.37032 0)
(0 -4.3764 0)
(0 -4.38143 0)
(0 -4.38528 0)
(0 -4.38784 0)
(0 -4.38897 0)
(0 -4.38857 0)
(0 -4.38651 0)
(0 -4.38264 0)
(0 -4.37676 0)
(0 -4.36859 0)
(0 -4.35786 0)
(0 -4.34447 0)
(0 -4.32882 0)
(0 -4.31205 0)
(0 -4.29574 0)
(0 -4.281 0)
(0 -4.26672 0)
(0 -4.24913 0)
(0 -4.22514 0)
(0 -4.20086 0)
(0 -4.1944 0)
(0 -4.21469 0)
(0 -4.23333 0)
(0 -4.21364 0)
(0 -4.18543 0)
(0 -4.25327 0)
(0 -4.46939 0)
(0 -4.61351 0)
(0 -4.32325 0)
(0 -4.203 0)
(0 -4.73411 0)
(0 -5.26514 0)
(0 -6.39302 0)
(0 -10.4992 0)
(0 -6.77953 0)
(0 -3.37446 0)
(0 -6.72643 0)
(0 -4.86809 0)
(0 0 0)
(0 0 0)
(0 0 0)
(0 0 0)
(0 0 0)
(0 0 0)
(0 0 0)
(0 0 0)
(0 0 0)
(0 0 0)
(0 0 0)
(0 0 0)
(0 0 0)
(0 0 0)
(0 0 0)
(0 0 0)
(0 0 0)
(0 0 0)
(0 0 0)
(0 0 0)
(0 0 0)
(0 0 0)
(0 0 0)
(0 0 0)
(0 0 0)
(0 0 0)
(0 0 0)
(0 0 0)
(0 0 0)
(0 0 0)
(0 0 0)
(0 0 0)
(0 0 0)
(0 0 0)
(0 0 0)
(0 0 0)
(0 0 0)
(0 0 0)
(0 0 0)
(0 0 0)
(0 0 0)
(0 0 0)
(0 0 0)
(0 0 0)
(0 0 0)
(0 0 0)
(0 0 0)
(0 0 0)
(0 0 0)
(0 0 0)
(0 0 0)
(0 0 0)
(0 0 0)
(0 0 0)
(0 0 0)
(0 0 0)
(0 0 0)
(0 0 0)
(0 0 0)
(0 0 0)
(0 0 0)
(0 0 0)
(0 0 0)
(0 0 0)
(0 0 0)
(0 0 0)
(0 0 0)
(0 0 0)
(0 0 0)
(0 0 0)
(0 0 0)
(0 0 0)
(0 0 0)
(0 0 0)
(0 0 0)
(0 0 0)
(0 0 0)
(0 0 0)
(0 0 0)
(0 0 0)
(0 0 0)
(0 0 0)
(0 0 0)
(0 0 0)
(0 0 0)
(0 0 0)
(0 0 0)
(0 0 0)
(0 0 0)
(0 0 0)
(0 0 0)
(0 0 0)
(0 0 0)
(0 0 0)
(0 0 0)
(0 0 0)
(0 0 0)
(0 0 0)
(0 0 0)
(0 0 0)
(0 0 0)
(0 0 0)
(0 0 0)
(0 0 0)
(0 0 0)
(0 0 0)
(0 0 0)
(0 0 0)
(0 0 0)
(0 0 0)
(0 0 0)
(0 0 0)
(0 0 0)
(0 0 0)
(0 0 0)
(0 0 0)
(0 0 0)
(0 0 0)
(0 0 0)
(0 0 0)
(0 0 0)
(0 0 0)
(0 0 0)
(0 0 0)
(0 0 0)
(0 0 0)
(0 0 0)
(0 0 0)
(0 0 0)
(0 0 0)
(0 0 0)
(0 0 0)
(0 0 0)
(0 0 0)
(0 0 0)
(0 0 0)
(0 0 0)
(0 0 0)
(0 0 0)
(0 0 0)
(0 0 0)
(0 0 0)
(0 0 0)
(0 0 0)
(0 0 0)
(0 0 0)
(0 0 0)
(0 0 0)
(0 0 0)
(0 0 0)
(0 0 0)
(0 0 0)
(0 0 0)
(0 0 0)
(0 0 0)
(0 0 0)
(0 0 0)
(0 0 0)
(0 0 0)
(0 0 0)
(0 0 0)
(0 0 0)
(0 0 0)
(0 0 0)
(0 0 0)
(0 0 0)
(0 0 0)
(0 0 0)
(0 0 0)
(0 0 0)
(0 0 0)
(0 0 0)
(0 0 0)
(0 0 0)
(0 0 0)
(0 0 0)
(0 0 0)
(0 0 0)
(0 0 0)
(0 0 0)
(0 0 0)
(0 0 0)
(0 0 0)
(0 0 0)
(0 0 0)
(0 0 0)
(0 0 0)
(0 0 0)
(0 0 0)
(0 0 0)
(0 0 0)
(0 0 0)
(0 0 0)
(0 0 0)
(0 0 0)
(0 0 0)
(0 0 0)
(0 0 0)
(0 0 0)
(0 0 0)
(0 0 0)
(0 0 0)
(0 0 0)
(0 0 0)
(0 0 0)
(0 0 0)
(0 0 0)
(0 0 0)
(0 0 0)
(0 0 0)
)
;

boundaryField
{
    inandouthalf11
    {
        type            cyclic;
    }
    inandouthalf12
    {
        type            cyclic;
    }
    inandouthalf21
    {
        type            cyclic;
    }
    inandouthalf22
    {
        type            cyclic;
    }
    inandouthalf31
    {
        type            cyclic;
    }
    inandouthalf32
    {
        type            cyclic;
    }
    inandouthalf41
    {
        type            cyclic;
    }
    inandouthalf42
    {
        type            cyclic;
    }
    top
    {
        type            symmetryPlane;
    }
    walls
    {
        type            calculated;
        value           uniform (0 0 0);
    }
    frontAndBackPlanes
    {
        type            empty;
    }
}


// ************************************************************************* //
