/*--------------------------------*- C++ -*----------------------------------*\
| =========                 |                                                 |
| \\      /  F ield         | OpenFOAM: The Open Source CFD Toolbox           |
|  \\    /   O peration     | Version:  2.4.x                                 |
|   \\  /    A nd           | Web:      www.OpenFOAM.org                      |
|    \\/     M anipulation  |                                                 |
\*---------------------------------------------------------------------------*/
FoamFile
{
    version     2.0;
    format      ascii;
    class       volScalarField;
    location    "3.5";
    object      mua;
}
// * * * * * * * * * * * * * * * * * * * * * * * * * * * * * * * * * * * * * //

dimensions      [1 -1 -1 0 0 0 0];

internalField   nonuniform List<scalar> 
360
(
392225
197186
200966
223887
229684
223202
212479
203205
197954
195879
195086
194209
192425
189113
183240
173557
159452
141757
122936
106565
96525.1
96882.6
114731
168327
311626
708923
1.82538e+06
4.67218e+06
1.03871e+07
1.83105e+07
2.50101e+07
2.74952e+07
2.61481e+07
2.31363e+07
2.01777e+07
1.79325e+07
1.64788e+07
1.56763e+07
1.53584e+07
1.53705e+07
1.55429e+07
1.57635e+07
1.59394e+07
1.59976e+07
1.59341e+07
1.57577e+07
1.54929e+07
1.51648e+07
1.47726e+07
1.43403e+07
1.39052e+07
1.34678e+07
1.30311e+07
1.25921e+07
1.21507e+07
1.17003e+07
1.1253e+07
1.08096e+07
1.0383e+07
9.97997e+06
9.60122e+06
9.26228e+06
8.9647e+06
8.71078e+06
8.49154e+06
8.29186e+06
8.09216e+06
7.87784e+06
7.63953e+06
7.37068e+06
7.06922e+06
6.74927e+06
6.42837e+06
6.115e+06
5.82141e+06
5.5555e+06
5.32225e+06
5.11807e+06
4.93633e+06
4.77043e+06
4.61406e+06
4.46076e+06
4.30728e+06
4.15336e+06
4.00048e+06
3.8514e+06
3.70894e+06
3.57558e+06
3.45225e+06
3.33859e+06
3.23349e+06
3.1353e+06
3.0422e+06
2.95283e+06
2.86634e+06
2.78233e+06
2.70079e+06
2.6219e+06
2.54585e+06
2.47278e+06
2.40273e+06
2.33569e+06
2.27157e+06
2.21028e+06
2.15171e+06
2.09573e+06
2.04216e+06
1.99076e+06
1.94122e+06
1.89311e+06
1.84596e+06
1.79921e+06
1.75223e+06
1.70436e+06
1.65494e+06
1.60332e+06
1.549e+06
1.49164e+06
1.43115e+06
1.36779e+06
1.3022e+06
1.23537e+06
1.16862e+06
1.10342e+06
1.04127e+06
983424
930887
884346
844307
811169
785075
765386
750126
736453
722804
710709
703132
701579
709841
749589
883717
1.24494e+06
2.07477e+06
3.8641e+06
6.64336e+06
5.14054e+06
93423.5
14917.7
0.0777892
0.0120041
0.00594037
0.00498651
0.00450664
0.00420532
0.00398737
0.00381682
0.00368458
0.00358496
0.00351113
0.00345746
0.00341999
0.00339567
0.00338195
0.00337666
0.00337796
0.00338432
0.00339443
0.00340721
0.00342176
0.00343734
0.00345332
0.00346923
0.00348465
0.00349928
0.00351286
0.00352521
0.00353618
0.00354569
0.00355368
0.0035601
0.00356497
0.00356829
0.00357011
0.00357048
0.00356946
0.00356715
0.00356363
0.003559
0.00355338
0.00354685
0.0035395
0.0035314
0.0035226
0.00351314
0.00350305
0.00349236
0.0034811
0.0034693
0.00345697
0.00344413
0.00343081
0.00341688
0.00340218
0.0033867
0.00337041
0.00335327
0.00333527
0.00331636
0.00329651
0.00327566
0.00325378
0.0032308
0.00320667
0.00318132
0.00315467
0.00312663
0.00309711
0.00306602
0.00303321
0.00299856
0.00296192
0.00292311
0.00288194
0.00283816
0.00279152
0.00274171
0.00268835
0.00263102
0.00256917
0.00250216
0.00242914
0.00234906
0.00226047
0.00216139
0.00204895
0.00191886
0.00176401
0.00157072
0.00130517
0
0
0
0
0
0
0
0
0
0
0
0
0
0
0
0
0
0
0
0
0
0
0
0
0
0
0
0
0
0
0
0
0
0
0
0
0
0
0
0
0
0
0
0
0
0
0
0
0
0
0
0
0
0
0
0
0
0
0
0
0
0
0
0
0
0
0
0
0
0
0
0
0
0
0
0
0
0
0
0
0
0
0
0
0
0
0
0
0
0
0
0
0
0
0
0
0
0
0
0
0
0
0
0
0
0
0
0
0
0
0
0
0
0
0
0
0
0
0
0
0
)
;

boundaryField
{
    inandouthalf11
    {
        type            cyclic;
    }
    inandouthalf12
    {
        type            cyclic;
    }
    inandouthalf21
    {
        type            cyclic;
    }
    inandouthalf22
    {
        type            cyclic;
    }
    inandouthalf31
    {
        type            cyclic;
    }
    inandouthalf32
    {
        type            cyclic;
    }
    inandouthalf41
    {
        type            cyclic;
    }
    inandouthalf42
    {
        type            cyclic;
    }
    top
    {
        type            symmetryPlane;
    }
    walls
    {
        type            calculated;
        value           uniform 1e+30;
    }
    frontAndBackPlanes
    {
        type            empty;
    }
}


// ************************************************************************* //
