/*--------------------------------*- C++ -*----------------------------------*\
| =========                 |                                                 |
| \\      /  F ield         | OpenFOAM: The Open Source CFD Toolbox           |
|  \\    /   O peration     | Version:  2.4.x                                 |
|   \\  /    A nd           | Web:      www.OpenFOAM.org                      |
|    \\/     M anipulation  |                                                 |
\*---------------------------------------------------------------------------*/
FoamFile
{
    version     2.0;
    format      ascii;
    class       volScalarField;
    location    "3.5";
    object      pa;
}
// * * * * * * * * * * * * * * * * * * * * * * * * * * * * * * * * * * * * * //

dimensions      [1 -1 -2 0 0 0 0];

internalField   nonuniform List<scalar> 
360
(
2.89263e-16
2.93404e-16
2.94048e-16
2.9321e-16
2.92861e-16
2.92865e-16
2.93008e-16
2.93149e-16
2.93195e-16
2.93133e-16
2.93018e-16
2.92901e-16
2.92815e-16
2.92792e-16
2.9288e-16
2.93162e-16
2.93763e-16
2.94854e-16
2.96598e-16
2.98873e-16
3.00683e-16
3.00066e-16
2.96241e-16
2.91654e-16
2.88962e-16
2.88076e-16
2.87888e-16
2.8785e-16
2.87838e-16
2.87829e-16
2.87822e-16
2.87812e-16
2.87804e-16
2.87791e-16
2.87781e-16
2.87768e-16
2.87755e-16
2.8774e-16
2.87722e-16
2.87707e-16
2.87686e-16
2.87665e-16
2.87645e-16
2.8762e-16
2.87594e-16
2.87567e-16
2.87537e-16
2.87507e-16
2.87473e-16
2.87434e-16
2.87395e-16
2.87353e-16
2.87308e-16
2.87259e-16
2.87209e-16
2.87152e-16
2.87095e-16
2.87032e-16
2.86967e-16
2.869e-16
2.86827e-16
2.86754e-16
2.86676e-16
2.86598e-16
2.86517e-16
2.86435e-16
2.8635e-16
2.86262e-16
2.86171e-16
2.86078e-16
2.85979e-16
2.85876e-16
2.85772e-16
2.85664e-16
2.85553e-16
2.85439e-16
2.85323e-16
2.85206e-16
2.85085e-16
2.84961e-16
2.84835e-16
2.84706e-16
2.84573e-16
2.84436e-16
2.84296e-16
2.84153e-16
2.84007e-16
2.83857e-16
2.83705e-16
2.8355e-16
2.83391e-16
2.8323e-16
2.83064e-16
2.82895e-16
2.82721e-16
2.82544e-16
2.82363e-16
2.82178e-16
2.81989e-16
2.81792e-16
0
0
0
0
0
0
0
0
0
0
0
0
0
0
0
2.77974e-16
2.77678e-16
2.77374e-16
2.7706e-16
2.76737e-16
2.76405e-16
2.76062e-16
2.75709e-16
2.75345e-16
2.74969e-16
2.74581e-16
2.7418e-16
2.73765e-16
3.01158e-16
8.87511e-16
2.83963e-15
8.58183e-15
2.40908e-14
6.23668e-14
1.4778e-13
3.16841e-13
6.02656e-13
9.87085e-13
1.33097e-12
1.36565e-12
1.32517e-12
1.04839e-11
1.89421e-10
4.1023e-09
1.05238e-07
3.30109e-06
0.000260626
0.0324016
1.02299
3.15392
2.16428
1.3526
0.776699
0.42184
0.220815
0.11415
0.0600845
0.033589
0.0209117
0.0145339
0.0109283
0.00866948
0.00714612
0.00605796
0.00524402
0.0046118
0.00410488
0.00368731
0.00333525
0.00303251
0.00276776
0.00253301
0.00232247
0.00213192
0.0019582
0.0017989
0.0016521
0.00151621
0.0013898
0.00127156
0.0011602
0.0010544
0.000952839
0.000854185
0.000757265
0.000661286
0.000566255
0.000473502
0.000386064
0.000308385
0.000244771
0.000196949
0.000162612
0.000136933
0.00011602
9.8537e-05
8.42508e-05
7.25306e-05
6.26221e-05
5.40939e-05
4.68327e-05
4.07991e-05
3.56531e-05
3.08691e-05
2.65016e-05
2.30129e-05
2.0206e-05
1.73559e-05
1.47231e-05
1.27815e-05
1.10695e-05
9.35662e-06
7.98552e-06
6.86047e-06
5.76019e-06
4.86348e-06
4.18095e-06
3.48165e-06
2.8536e-06
2.43078e-06
2.0264e-06
1.64273e-06
1.35829e-06
1.10096e-06
8.86805e-07
7.27158e-07
5.69925e-07
4.46615e-07
3.60643e-07
2.73137e-07
2.08368e-07
1.61351e-07
1.1443e-07
8.1492e-08
6.16699e-08
5.01536e-08
4.04576e-08
2.90036e-08
1.38854e-08
0
0
0
0
0
0
0
0
0
0
0
0
0
0
0
0
0
0
0
0
0
0
0
0
0
0
0
0
0
0
0
0
0
0
0
0
0
0
0
0
0
0
0
0
0
0
0
0
0
0
0
0
0
0
0
0
0
0
0
0
0
0
0
0
0
0
0
0
0
0
0
0
0
0
0
0
0
0
0
0
0
0
0
0
0
0
0
0
0
0
0
0
0
0
0
0
0
0
0
0
0
0
0
0
0
0
0
0
0
0
0
0
0
0
0
0
0
0
0
0
0
)
;

boundaryField
{
    inandouthalf11
    {
        type            cyclic;
    }
    inandouthalf12
    {
        type            cyclic;
    }
    inandouthalf21
    {
        type            cyclic;
    }
    inandouthalf22
    {
        type            cyclic;
    }
    inandouthalf31
    {
        type            cyclic;
    }
    inandouthalf32
    {
        type            cyclic;
    }
    inandouthalf41
    {
        type            cyclic;
    }
    inandouthalf42
    {
        type            cyclic;
    }
    top
    {
        type            symmetryPlane;
    }
    walls
    {
        type            calculated;
        value           uniform 2.89263e-16;
    }
    frontAndBackPlanes
    {
        type            empty;
    }
}


// ************************************************************************* //
