/*--------------------------------*- C++ -*----------------------------------*\
| =========                 |                                                 |
| \\      /  F ield         | OpenFOAM: The Open Source CFD Toolbox           |
|  \\    /   O peration     | Version:  2.4.x                                 |
|   \\  /    A nd           | Web:      www.OpenFOAM.org                      |
|    \\/     M anipulation  |                                                 |
\*---------------------------------------------------------------------------*/
FoamFile
{
    version     2.0;
    format      ascii;
    class       surfaceScalarField;
    location    "3.5";
    object      phia_0;
}
// * * * * * * * * * * * * * * * * * * * * * * * * * * * * * * * * * * * * * //

dimensions      [0 3 -1 0 0 0 0];

internalField   nonuniform List<scalar> 
359
(
-7.36591e-13
-2.29451e-12
-3.8893e-12
-5.34352e-12
-6.73578e-12
-8.149e-12
-9.62001e-12
-1.11451e-11
-1.26973e-11
-1.42538e-11
-1.58046e-11
-1.73493e-11
-1.88956e-11
-2.04559e-11
-2.2053e-11
-2.37251e-11
-2.55294e-11
-2.754e-11
-2.98334e-11
-3.24484e-11
-3.52966e-11
-3.8097e-11
-4.04325e-11
-4.20081e-11
-4.28528e-11
-4.32226e-11
-4.33659e-11
-4.34218e-11
-4.34469e-11
-4.34611e-11
-4.34714e-11
-4.34808e-11
-4.34906e-11
-4.35016e-11
-4.35142e-11
-4.35284e-11
-4.35437e-11
-4.35597e-11
-4.35759e-11
-4.35921e-11
-4.3608e-11
-4.36236e-11
-4.3639e-11
-4.36542e-11
-4.36693e-11
-4.36846e-11
-4.37e-11
-4.37156e-11
-4.37315e-11
-4.37478e-11
-4.37645e-11
-4.37816e-11
-4.37992e-11
-4.38172e-11
-4.38357e-11
-4.38547e-11
-4.38743e-11
-4.38946e-11
-4.39155e-11
-4.3937e-11
-4.39592e-11
-4.39819e-11
-4.40052e-11
-4.40288e-11
-4.40529e-11
-4.40772e-11
-4.41019e-11
-4.4127e-11
-4.41526e-11
-4.41788e-11
-4.42058e-11
-4.42337e-11
-4.42626e-11
-4.42927e-11
-4.43239e-11
-4.43561e-11
-4.43893e-11
-4.44234e-11
-4.44582e-11
-4.44938e-11
-4.453e-11
-4.4567e-11
-4.46047e-11
-4.46432e-11
-4.46826e-11
-4.47229e-11
-4.4764e-11
-4.4806e-11
-4.48488e-11
-4.48924e-11
-4.49366e-11
-4.49813e-11
-4.50267e-11
-4.50725e-11
-4.51189e-11
-4.51659e-11
-4.52133e-11
-4.52612e-11
-4.53095e-11
-4.53583e-11
-4.54074e-11
-4.54569e-11
-4.55067e-11
-4.55568e-11
-4.56071e-11
-4.56575e-11
-4.5708e-11
-4.57586e-11
-4.58092e-11
-4.58597e-11
-4.59102e-11
-4.59606e-11
-4.60109e-11
-4.60612e-11
-4.61115e-11
-4.61618e-11
-4.62123e-11
-4.6263e-11
-4.63141e-11
-4.63658e-11
-4.64181e-11
-4.64712e-11
-4.65252e-11
-4.65801e-11
-4.66358e-11
-4.66923e-11
-4.67492e-11
-4.68062e-11
-4.68629e-11
-4.69187e-11
-4.69731e-11
-4.70255e-11
-4.70755e-11
-4.71229e-11
-4.71675e-11
-4.72092e-11
-4.72476e-11
-4.72823e-11
-4.73128e-11
-4.73385e-11
-4.73577e-11
-4.73688e-11
-4.73742e-11
-4.73764e-11
-4.73772e-11
-4.73757e-11
-4.74632e-11
-4.74564e-11
-8.96314e-12
4.49033e-09
9.36579e-09
1.21605e-08
1.38893e-08
1.47293e-08
1.43083e-08
1.19519e-08
7.01092e-09
-5.419e-11
-7.51042e-09
-1.43325e-08
-2.02952e-08
-2.53978e-08
-2.97057e-08
-3.33098e-08
-3.62982e-08
-3.87493e-08
-4.0732e-08
-4.2306e-08
-4.35234e-08
-4.44293e-08
-4.5063e-08
-4.54582e-08
-4.56435e-08
-4.56434e-08
-4.54785e-08
-4.51658e-08
-4.47202e-08
-4.41547e-08
-4.34814e-08
-4.27131e-08
-4.18637e-08
-4.09498e-08
-3.99917e-08
-3.90144e-08
-3.8048e-08
-3.71266e-08
-3.62859e-08
-3.55583e-08
-3.49654e-08
-3.45114e-08
-3.41791e-08
-3.39347e-08
-3.37428e-08
-3.35829e-08
-3.34493e-08
-3.33391e-08
-3.32465e-08
-3.31674e-08
-3.31004e-08
-3.30455e-08
-3.30021e-08
-3.29664e-08
-3.29354e-08
-3.29135e-08
-3.29061e-08
-3.29076e-08
-3.29095e-08
-3.29245e-08
-3.29604e-08
-3.30026e-08
-3.30526e-08
-3.31258e-08
-3.3215e-08
-3.33154e-08
-3.34424e-08
-3.35928e-08
-3.37542e-08
-3.39451e-08
-3.41752e-08
-3.44207e-08
-3.46942e-08
-3.50082e-08
-3.53498e-08
-3.57277e-08
-3.61392e-08
-3.65737e-08
-3.7039e-08
-3.75267e-08
-3.80296e-08
-3.85577e-08
-3.91105e-08
-3.96852e-08
-4.03001e-08
-4.09515e-08
-4.15973e-08
-4.21829e-08
-4.26742e-08
-4.30559e-08
-4.34752e-08
-1.00331e-07
-1.58019e-07
-1.58018e-07
-1.58018e-07
-1.58018e-07
-1.58018e-07
-1.58018e-07
-1.58018e-07
-1.58018e-07
-1.58018e-07
-1.58018e-07
-1.58018e-07
-1.58018e-07
-1.58018e-07
-1.58018e-07
-1.58018e-07
-1.58018e-07
-1.58018e-07
-1.58018e-07
-1.58018e-07
-1.58018e-07
-1.58018e-07
-1.58018e-07
-1.58018e-07
-1.58018e-07
-1.58018e-07
-1.58018e-07
-1.58018e-07
-1.58018e-07
-1.58018e-07
-1.58018e-07
-1.58018e-07
-1.58018e-07
-1.58018e-07
-1.58018e-07
-1.58018e-07
-1.58018e-07
-1.58018e-07
-1.58018e-07
-1.58018e-07
-1.58018e-07
-1.58018e-07
-1.58018e-07
-1.58018e-07
-1.58018e-07
-1.58018e-07
-1.58018e-07
-1.58018e-07
-1.58018e-07
-1.58018e-07
-1.58018e-07
-1.58018e-07
-1.58018e-07
-1.58018e-07
-1.58018e-07
-1.58018e-07
-1.58018e-07
-1.58018e-07
-1.58018e-07
-1.58018e-07
-1.58018e-07
-1.58018e-07
-1.58018e-07
-1.58018e-07
-1.58018e-07
-1.58018e-07
-1.58018e-07
-1.58018e-07
-1.58018e-07
-1.58018e-07
-1.58018e-07
-1.58018e-07
-1.58018e-07
-1.58018e-07
-1.58018e-07
-1.58018e-07
-1.58018e-07
-1.58018e-07
-1.58018e-07
-1.58018e-07
-1.58018e-07
-1.58018e-07
-1.58018e-07
-1.58018e-07
-1.58018e-07
-1.58018e-07
-1.58018e-07
-1.58018e-07
-1.58018e-07
-1.58018e-07
-1.58018e-07
-1.58018e-07
-1.58018e-07
-1.58018e-07
-1.58018e-07
-1.58018e-07
-1.58018e-07
-1.58018e-07
-1.58018e-07
-1.58018e-07
-1.58018e-07
-1.58018e-07
-1.58018e-07
-1.58018e-07
-1.58018e-07
-1.58018e-07
-1.58018e-07
-1.58018e-07
-1.58018e-07
-1.58018e-07
-1.58018e-07
-1.58018e-07
-1.58018e-07
-1.58018e-07
-1.58018e-07
-1.58018e-07
-1.58017e-07
-1.58e-07
-1.57292e-07
-1.32321e-07
)
;

boundaryField
{
    inandouthalf11
    {
        type            cyclic;
        value           nonuniform List<scalar> 
100
(
1.1194e-38
7.51408e-14
1.85169e-13
2.8713e-13
3.81545e-13
4.75005e-13
5.71007e-13
6.70421e-13
7.72178e-13
8.74544e-13
9.76362e-13
1.07731e-12
1.17763e-12
1.27794e-12
1.37936e-12
1.48374e-12
1.59403e-12
1.71424e-12
1.84904e-12
2.0022e-12
2.17264e-12
2.34883e-12
2.5073e-12
2.62386e-12
2.69148e-12
2.72279e-12
2.73522e-12
2.74003e-12
2.74211e-12
2.74323e-12
2.74401e-12
2.7447e-12
2.74541e-12
2.74625e-12
2.74724e-12
2.74842e-12
2.74977e-12
2.75126e-12
2.75284e-12
2.75447e-12
2.75613e-12
2.7578e-12
2.75949e-12
2.7612e-12
2.76295e-12
2.76474e-12
2.7666e-12
2.76852e-12
2.77052e-12
2.77261e-12
2.7748e-12
2.77708e-12
2.77946e-12
2.78196e-12
2.78456e-12
2.78729e-12
2.79014e-12
2.79312e-12
2.79625e-12
2.79952e-12
2.80293e-12
2.80648e-12
2.81017e-12
2.81397e-12
2.81789e-12
2.8219e-12
2.82601e-12
2.83023e-12
2.83457e-12
2.83904e-12
2.84368e-12
2.84852e-12
2.85358e-12
2.85887e-12
2.86441e-12
2.87019e-12
2.8762e-12
2.88243e-12
2.88887e-12
2.89548e-12
2.90228e-12
2.90926e-12
2.91642e-12
2.92379e-12
2.93137e-12
2.93916e-12
2.94719e-12
2.95543e-12
2.9639e-12
2.97256e-12
2.98142e-12
2.99046e-12
2.99967e-12
3.00905e-12
3.01859e-12
3.0283e-12
3.03817e-12
3.04821e-12
3.0584e-12
3.06874e-12
)
;
    }
    inandouthalf12
    {
        type            cyclic;
        value           nonuniform List<scalar> 
100
(
-1.1194e-38
-7.51408e-14
-1.85169e-13
-2.8713e-13
-3.81545e-13
-4.75005e-13
-5.71007e-13
-6.70421e-13
-7.72178e-13
-8.74544e-13
-9.76362e-13
-1.07731e-12
-1.17763e-12
-1.27794e-12
-1.37936e-12
-1.48374e-12
-1.59403e-12
-1.71424e-12
-1.84904e-12
-2.0022e-12
-2.17264e-12
-2.34883e-12
-2.5073e-12
-2.62386e-12
-2.69148e-12
-2.72279e-12
-2.73522e-12
-2.74003e-12
-2.74211e-12
-2.74323e-12
-2.74401e-12
-2.7447e-12
-2.74541e-12
-2.74625e-12
-2.74724e-12
-2.74842e-12
-2.74977e-12
-2.75126e-12
-2.75284e-12
-2.75447e-12
-2.75613e-12
-2.7578e-12
-2.75949e-12
-2.7612e-12
-2.76295e-12
-2.76474e-12
-2.7666e-12
-2.76852e-12
-2.77052e-12
-2.77261e-12
-2.7748e-12
-2.77708e-12
-2.77946e-12
-2.78196e-12
-2.78456e-12
-2.78729e-12
-2.79014e-12
-2.79312e-12
-2.79625e-12
-2.79952e-12
-2.80293e-12
-2.80648e-12
-2.81017e-12
-2.81397e-12
-2.81789e-12
-2.8219e-12
-2.82601e-12
-2.83023e-12
-2.83457e-12
-2.83904e-12
-2.84368e-12
-2.84852e-12
-2.85358e-12
-2.85887e-12
-2.86441e-12
-2.87019e-12
-2.8762e-12
-2.88243e-12
-2.88887e-12
-2.89548e-12
-2.90228e-12
-2.90926e-12
-2.91642e-12
-2.92379e-12
-2.93137e-12
-2.93916e-12
-2.94719e-12
-2.95543e-12
-2.9639e-12
-2.97256e-12
-2.98142e-12
-2.99046e-12
-2.99967e-12
-3.00905e-12
-3.01859e-12
-3.0283e-12
-3.03817e-12
-3.04821e-12
-3.0584e-12
-3.06874e-12
)
;
    }
    inandouthalf21
    {
        type            cyclic;
        value           nonuniform List<scalar> 
100
(
3.07924e-12
3.08987e-12
3.10064e-12
3.11154e-12
3.12256e-12
3.13369e-12
3.14491e-12
3.15623e-12
3.16763e-12
3.17911e-12
3.19065e-12
3.20226e-12
3.21395e-12
3.22571e-12
3.23755e-12
3.2495e-12
3.26159e-12
3.27383e-12
3.28628e-12
3.29898e-12
3.31197e-12
3.32531e-12
3.33904e-12
3.35321e-12
3.36785e-12
3.38295e-12
3.3985e-12
3.41446e-12
3.43077e-12
3.44732e-12
3.46399e-12
3.48065e-12
3.49718e-12
3.51349e-12
3.52957e-12
3.54537e-12
3.56083e-12
3.57581e-12
3.59014e-12
3.60342e-12
3.61476e-12
3.62301e-12
3.62794e-12
3.63041e-12
3.63156e-12
3.63229e-12
3.63342e-12
3.6774e-12
3.96333e-12
3.86586e-08
1.6032e-07
2.63572e-07
3.37054e-07
3.90839e-07
4.30061e-07
4.58049e-07
4.77608e-07
4.91244e-07
5.00903e-07
5.07847e-07
5.12849e-07
5.16404e-07
5.1885e-07
5.20429e-07
5.21315e-07
5.21643e-07
5.21514e-07
5.21012e-07
5.20202e-07
5.19138e-07
5.17867e-07
5.16425e-07
5.14846e-07
5.13159e-07
5.11387e-07
5.09554e-07
5.07676e-07
5.05773e-07
5.03859e-07
5.01948e-07
5.00051e-07
4.98179e-07
4.96343e-07
4.9455e-07
4.92806e-07
4.91118e-07
4.89487e-07
4.87914e-07
4.86396e-07
4.84927e-07
4.83501e-07
4.82112e-07
4.8076e-07
4.79447e-07
4.78173e-07
4.76935e-07
4.75731e-07
4.74562e-07
4.73427e-07
4.72324e-07
)
;
    }
    inandouthalf22
    {
        type            cyclic;
        value           nonuniform List<scalar> 
100
(
-3.07924e-12
-3.08987e-12
-3.10064e-12
-3.11154e-12
-3.12256e-12
-3.13369e-12
-3.14491e-12
-3.15623e-12
-3.16763e-12
-3.17911e-12
-3.19065e-12
-3.20226e-12
-3.21395e-12
-3.22571e-12
-3.23755e-12
-3.2495e-12
-3.26159e-12
-3.27383e-12
-3.28628e-12
-3.29898e-12
-3.31197e-12
-3.32531e-12
-3.33904e-12
-3.35321e-12
-3.36785e-12
-3.38295e-12
-3.3985e-12
-3.41446e-12
-3.43077e-12
-3.44732e-12
-3.46399e-12
-3.48065e-12
-3.49718e-12
-3.51349e-12
-3.52957e-12
-3.54537e-12
-3.56083e-12
-3.57581e-12
-3.59014e-12
-3.60342e-12
-3.61476e-12
-3.62301e-12
-3.62794e-12
-3.63041e-12
-3.63156e-12
-3.63229e-12
-3.63342e-12
-3.6774e-12
-3.96333e-12
-3.86586e-08
-1.6032e-07
-2.63572e-07
-3.37054e-07
-3.90839e-07
-4.30061e-07
-4.58049e-07
-4.77608e-07
-4.91244e-07
-5.00903e-07
-5.07847e-07
-5.12849e-07
-5.16404e-07
-5.1885e-07
-5.20429e-07
-5.21315e-07
-5.21643e-07
-5.21514e-07
-5.21012e-07
-5.20202e-07
-5.19138e-07
-5.17867e-07
-5.16425e-07
-5.14846e-07
-5.13159e-07
-5.11387e-07
-5.09554e-07
-5.07676e-07
-5.05773e-07
-5.03859e-07
-5.01948e-07
-5.00051e-07
-4.98179e-07
-4.96343e-07
-4.9455e-07
-4.92806e-07
-4.91118e-07
-4.89487e-07
-4.87914e-07
-4.86396e-07
-4.84927e-07
-4.83501e-07
-4.82112e-07
-4.8076e-07
-4.79447e-07
-4.78173e-07
-4.76935e-07
-4.75731e-07
-4.74562e-07
-4.73427e-07
-4.72324e-07
)
;
    }
    inandouthalf31
    {
        type            cyclic;
        value           nonuniform List<scalar> 
110
(
4.71255e-07
4.79749e-07
4.88406e-07
4.97227e-07
5.06207e-07
5.15348e-07
5.2466e-07
5.34143e-07
5.43783e-07
5.53587e-07
5.63566e-07
5.7371e-07
5.84014e-07
5.9449e-07
6.05131e-07
6.1593e-07
6.26906e-07
6.38056e-07
6.49351e-07
6.60813e-07
6.72465e-07
6.84276e-07
6.9625e-07
7.08398e-07
7.2071e-07
7.33215e-07
7.45909e-07
7.58767e-07
7.71838e-07
7.85114e-07
7.98554e-07
8.12211e-07
8.26043e-07
8.39989e-07
8.54165e-07
8.68808e-07
8.84133e-07
9.00246e-07
9.17142e-07
9.34027e-07
7.49487e-07
7.64678e-07
7.80189e-07
7.96016e-07
8.12166e-07
8.28645e-07
8.45459e-07
8.62615e-07
8.8012e-07
8.97981e-07
9.16205e-07
9.348e-07
9.53772e-07
9.73129e-07
9.9288e-07
1.01303e-06
1.03359e-06
1.05457e-06
1.07598e-06
1.09782e-06
1.1201e-06
1.14283e-06
1.16603e-06
1.1897e-06
1.21384e-06
1.23848e-06
1.26362e-06
1.28927e-06
1.31544e-06
1.34214e-06
1.36938e-06
1.39717e-06
1.42553e-06
1.45446e-06
1.48399e-06
1.51411e-06
1.54484e-06
1.5762e-06
1.60819e-06
1.64083e-06
1.67414e-06
1.70812e-06
1.74279e-06
1.77816e-06
1.81425e-06
1.85108e-06
1.88865e-06
1.92698e-06
1.96609e-06
2.006e-06
2.04672e-06
2.08826e-06
2.13065e-06
2.17389e-06
2.21802e-06
2.26304e-06
2.30897e-06
2.35584e-06
2.40365e-06
2.45244e-06
2.50222e-06
2.55301e-06
2.60483e-06
2.6577e-06
2.71164e-06
2.76668e-06
2.82284e-06
2.88013e-06
2.93859e-06
2.99824e-06
)
;
    }
    inandouthalf32
    {
        type            cyclic;
        value           nonuniform List<scalar> 
110
(
-4.71255e-07
-4.79749e-07
-4.88406e-07
-4.97227e-07
-5.06207e-07
-5.15348e-07
-5.2466e-07
-5.34143e-07
-5.43783e-07
-5.53587e-07
-5.63566e-07
-5.7371e-07
-5.84014e-07
-5.9449e-07
-6.05131e-07
-6.1593e-07
-6.26906e-07
-6.38056e-07
-6.49351e-07
-6.60813e-07
-6.72465e-07
-6.84276e-07
-6.9625e-07
-7.08398e-07
-7.2071e-07
-7.33215e-07
-7.45909e-07
-7.58767e-07
-7.71838e-07
-7.85114e-07
-7.98554e-07
-8.12211e-07
-8.26043e-07
-8.39989e-07
-8.54165e-07
-8.68808e-07
-8.84133e-07
-9.00246e-07
-9.17142e-07
-9.34027e-07
-7.49487e-07
-7.64678e-07
-7.80189e-07
-7.96016e-07
-8.12166e-07
-8.28645e-07
-8.45459e-07
-8.62615e-07
-8.8012e-07
-8.97981e-07
-9.16205e-07
-9.348e-07
-9.53772e-07
-9.73129e-07
-9.9288e-07
-1.01303e-06
-1.03359e-06
-1.05457e-06
-1.07598e-06
-1.09782e-06
-1.1201e-06
-1.14283e-06
-1.16603e-06
-1.1897e-06
-1.21384e-06
-1.23848e-06
-1.26362e-06
-1.28927e-06
-1.31544e-06
-1.34214e-06
-1.36938e-06
-1.39717e-06
-1.42553e-06
-1.45446e-06
-1.48399e-06
-1.51411e-06
-1.54484e-06
-1.5762e-06
-1.60819e-06
-1.64083e-06
-1.67414e-06
-1.70812e-06
-1.74279e-06
-1.77816e-06
-1.81425e-06
-1.85108e-06
-1.88865e-06
-1.92698e-06
-1.96609e-06
-2.006e-06
-2.04672e-06
-2.08826e-06
-2.13065e-06
-2.17389e-06
-2.21802e-06
-2.26304e-06
-2.30897e-06
-2.35584e-06
-2.40365e-06
-2.45244e-06
-2.50222e-06
-2.55301e-06
-2.60483e-06
-2.6577e-06
-2.71164e-06
-2.76668e-06
-2.82284e-06
-2.88013e-06
-2.93859e-06
-2.99824e-06
)
;
    }
    inandouthalf41
    {
        type            cyclic;
        value           nonuniform List<scalar> 
50
(
2.68373e-06
2.68373e-06
2.68373e-06
2.68373e-06
2.68373e-06
2.68373e-06
2.68373e-06
2.68373e-06
2.68373e-06
2.68373e-06
2.68373e-06
2.68373e-06
2.68373e-06
2.68373e-06
2.68373e-06
2.68373e-06
2.68373e-06
2.68373e-06
2.68373e-06
2.68373e-06
2.68373e-06
2.68373e-06
2.68373e-06
2.68373e-06
2.68373e-06
2.68373e-06
2.68373e-06
2.68373e-06
2.68373e-06
2.68373e-06
2.68373e-06
2.68373e-06
2.68373e-06
2.68373e-06
2.68373e-06
2.68373e-06
2.68373e-06
2.68373e-06
2.68373e-06
2.68373e-06
2.68373e-06
2.68373e-06
2.68373e-06
2.68373e-06
2.68373e-06
2.68373e-06
2.68373e-06
2.68372e-06
2.6835e-06
2.67848e-06
)
;
    }
    inandouthalf42
    {
        type            cyclic;
        value           nonuniform List<scalar> 
50
(
-2.68373e-06
-2.68373e-06
-2.68373e-06
-2.68373e-06
-2.68373e-06
-2.68373e-06
-2.68373e-06
-2.68373e-06
-2.68373e-06
-2.68373e-06
-2.68373e-06
-2.68373e-06
-2.68373e-06
-2.68373e-06
-2.68373e-06
-2.68373e-06
-2.68373e-06
-2.68373e-06
-2.68373e-06
-2.68373e-06
-2.68373e-06
-2.68373e-06
-2.68373e-06
-2.68373e-06
-2.68373e-06
-2.68373e-06
-2.68373e-06
-2.68373e-06
-2.68373e-06
-2.68373e-06
-2.68373e-06
-2.68373e-06
-2.68373e-06
-2.68373e-06
-2.68373e-06
-2.68373e-06
-2.68373e-06
-2.68373e-06
-2.68373e-06
-2.68373e-06
-2.68373e-06
-2.68373e-06
-2.68373e-06
-2.68373e-06
-2.68373e-06
-2.68373e-06
-2.68373e-06
-2.68372e-06
-2.6835e-06
-2.67848e-06
)
;
    }
    top
    {
        type            symmetryPlane;
        value           uniform 0;
    }
    walls
    {
        type            fixedValue;
        value           uniform 0;
    }
    frontAndBackPlanes
    {
        type            empty;
        value           nonuniform 0();
    }
}


// ************************************************************************* //
