/*--------------------------------*- C++ -*----------------------------------*\
| =========                 |                                                 |
| \\      /  F ield         | OpenFOAM: The Open Source CFD Toolbox           |
|  \\    /   O peration     | Version:  2.4.x                                 |
|   \\  /    A nd           | Web:      www.OpenFOAM.org                      |
|    \\/     M anipulation  |                                                 |
\*---------------------------------------------------------------------------*/
FoamFile
{
    version     2.0;
    format      ascii;
    class       volScalarField;
    location    "3.5";
    object      tmf;
}
// * * * * * * * * * * * * * * * * * * * * * * * * * * * * * * * * * * * * * //

dimensions      [0 0 0 0 0 0 0];

internalField   nonuniform List<scalar> 
360
(
0.999204
0.999206
0.999206
0.999206
0.999206
0.999206
0.999206
0.999206
0.999206
0.999206
0.999206
0.999205
0.999205
0.999205
0.999205
0.999205
0.999205
0.999205
0.999205
0.999204
0.999204
0.999204
0.999204
0.999204
0.999204
0.999204
0.999204
0.999204
0.999204
0.999204
0.999204
0.999204
0.999204
0.999204
0.999204
0.999204
0.999204
0.999204
0.999204
0.999204
0.999204
0.999204
0.999203
0.999203
0.999203
0.999203
0.999203
0.999203
0.999203
0.999203
0.999203
0.999203
0.999203
0.999203
0.999203
0.999203
0.999203
0.999203
0.999203
0.999203
0.999203
0.999202
0.999202
0.999202
0.999202
0.999202
0.999202
0.999202
0.999202
0.999202
0.999202
0.999201
0.999201
0.999201
0.999201
0.999201
0.999201
0.999201
0.9992
0.9992
0.9992
0.9992
0.9992
0.9992
0.9992
0.999199
0.999199
0.999199
0.999199
0.999199
0.999198
0.999198
0.999198
0.999198
0.999198
0.999197
0.999197
0.999197
0.999197
0.999197
0.999196
0.999196
0.999196
0.999196
0.999195
0.999195
0.999195
0.999194
0.999194
0.999194
0.999194
0.999193
0.999193
0.999193
0.999192
0.999192
0.999192
0.999191
0.999191
0.99919
0.99919
0.99919
0.999189
0.999189
0.999188
0.999188
0.999187
0.999187
0.999261
0.999327
0.999318
0.999305
0.99929
0.999273
0.999254
0.999232
0.999204
0.99916
0.999071
0.998734
0.996521
0.994405
0.993121
0.991555
0.989581
0.987061
0.983762
0.979704
0.974105
0.930664
0.827294
0.826144
0.841821
0.864005
0.889315
0.914103
0.935296
0.951425
0.962678
0.970166
0.975096
0.978381
0.980617
0.982173
0.983275
0.984065
0.984636
0.985047
0.985339
0.985542
0.985674
0.98575
0.985782
0.985776
0.985738
0.985671
0.985579
0.985464
0.985325
0.985164
0.984981
0.984776
0.984549
0.984301
0.984036
0.983762
0.983492
0.983253
0.983082
0.983024
0.983102
0.98331
0.983613
0.983974
0.984364
0.984764
0.985161
0.985551
0.985929
0.986295
0.986648
0.986992
0.987331
0.987664
0.98799
0.988311
0.988628
0.988941
0.989249
0.989554
0.989857
0.990159
0.99046
0.990763
0.991068
0.991377
0.991693
0.992019
0.992356
0.99271
0.993088
0.993497
0.993949
0.994464
0.995076
0.995853
0.996779
0.997404
0.997517
0.997497
0.997473
0.997449
0.997424
0.997398
0.997263
0.995868
0.99564
0.995624
0.995612
0.995597
0.994196
0.994196
0.994196
0.994196
0.994196
0.994196
0.994196
0.994196
0.994196
0.994196
0.994196
0.994196
0.994196
0.994196
0.994196
0.994196
0.994196
0.994196
0.994196
0.994196
0.994196
0.994196
0.994196
0.994196
0.994196
0.994196
0.994196
0.994196
0.994196
0.994196
0.994196
0.994196
0.994196
0.994196
0.994196
0.994196
0.994196
0.994196
0.994196
0.994196
0.994196
0.994196
0.994196
0.994196
0.994196
0.994196
0.994196
0.994196
0.994196
0.994196
0.994196
0.994196
0.994196
0.994196
0.994196
0.994196
0.994196
0.994196
0.994196
0.994196
0.994196
0.994196
0.994196
0.994196
0.994196
0.994196
0.994196
0.994196
0.994196
0.994196
0.994196
0.994196
0.994196
0.994196
0.994196
0.994196
0.994196
0.994196
0.994196
0.994196
0.994196
0.994196
0.994196
0.994196
0.994196
0.994196
0.994196
0.994196
0.994196
0.994196
0.994196
0.994196
0.994196
0.994196
0.994196
0.994196
0.994196
0.994196
0.994196
0.994196
0.994196
0.994196
0.994196
0.994196
0.994196
0.994196
0.994196
0.994196
0.994196
0.994196
0.994196
0.994196
0.994196
0.994196
0.994196
0.994196
0.994196
0.994196
0.994181
0.993265
)
;

boundaryField
{
    inandouthalf11
    {
        type            cyclic;
    }
    inandouthalf12
    {
        type            cyclic;
    }
    inandouthalf21
    {
        type            cyclic;
    }
    inandouthalf22
    {
        type            cyclic;
    }
    inandouthalf31
    {
        type            cyclic;
    }
    inandouthalf32
    {
        type            cyclic;
    }
    inandouthalf41
    {
        type            cyclic;
    }
    inandouthalf42
    {
        type            cyclic;
    }
    top
    {
        type            symmetryPlane;
    }
    walls
    {
        type            calculated;
        value           uniform 0;
    }
    frontAndBackPlanes
    {
        type            empty;
    }
}


// ************************************************************************* //
