/*--------------------------------*- C++ -*----------------------------------*\
| =========                 |                                                 |
| \\      /  F ield         | OpenFOAM: The Open Source CFD Toolbox           |
|  \\    /   O peration     | Version:  2.4.x                                 |
|   \\  /    A nd           | Web:      www.OpenFOAM.org                      |
|    \\/     M anipulation  |                                                 |
\*---------------------------------------------------------------------------*/
FoamFile
{
    version     2.0;
    format      ascii;
    class       volVectorField;
    location    "3.5";
    object      Ua_0;
}
// * * * * * * * * * * * * * * * * * * * * * * * * * * * * * * * * * * * * * //

dimensions      [0 1 -1 0 0 0 0];

internalField   nonuniform List<vector> 
360
(
(-1.1194e-32 -7.06843e-32 0)
(-7.51408e-08 -3.57076e-07 0)
(-1.85169e-07 -7.9036e-07 0)
(-2.8713e-07 -1.16361e-06 0)
(-3.81545e-07 -1.51022e-06 0)
(-4.75005e-07 -1.85737e-06 0)
(-5.71007e-07 -2.21725e-06 0)
(-6.70421e-07 -2.59292e-06 0)
(-7.72178e-07 -2.97938e-06 0)
(-8.74544e-07 -3.36913e-06 0)
(-9.76362e-07 -3.75782e-06 0)
(-1.07731e-06 -4.14448e-06 0)
(-1.17763e-06 -4.53026e-06 0)
(-1.27794e-06 -4.91753e-06 0)
(-1.37936e-06 -5.31035e-06 0)
(-1.48374e-06 -5.71605e-06 0)
(-1.59403e-06 -6.14642e-06 0)
(-1.71424e-06 -6.61816e-06 0)
(-1.84904e-06 -7.15162e-06 0)
(-2.0022e-06 -7.76521e-06 0)
(-2.17264e-06 -8.45914e-06 0)
(-2.34883e-06 -9.18995e-06 0)
(-2.5073e-06 -9.85904e-06 0)
(-2.62386e-06 -1.0357e-05 0)
(-2.69148e-06 -1.06466e-05 0)
(-2.72279e-06 -1.07796e-05 0)
(-2.73522e-06 -1.08316e-05 0)
(-2.74003e-06 -1.08513e-05 0)
(-2.74211e-06 -1.08596e-05 0)
(-2.74323e-06 -1.08639e-05 0)
(-2.74401e-06 -1.08667e-05 0)
(-2.7447e-06 -1.0869e-05 0)
(-2.74541e-06 -1.08714e-05 0)
(-2.74625e-06 -1.08739e-05 0)
(-2.74724e-06 -1.08769e-05 0)
(-2.74842e-06 -1.08802e-05 0)
(-2.74977e-06 -1.08839e-05 0)
(-2.75126e-06 -1.08879e-05 0)
(-2.75284e-06 -1.08919e-05 0)
(-2.75447e-06 -1.0896e-05 0)
(-2.75613e-06 -1.09e-05 0)
(-2.7578e-06 -1.0904e-05 0)
(-2.75949e-06 -1.09078e-05 0)
(-2.7612e-06 -1.09116e-05 0)
(-2.76295e-06 -1.09154e-05 0)
(-2.76474e-06 -1.09192e-05 0)
(-2.7666e-06 -1.09231e-05 0)
(-2.76852e-06 -1.09269e-05 0)
(-2.77052e-06 -1.09309e-05 0)
(-2.77261e-06 -1.09349e-05 0)
(-2.7748e-06 -1.0939e-05 0)
(-2.77708e-06 -1.09432e-05 0)
(-2.77946e-06 -1.09476e-05 0)
(-2.78196e-06 -1.0952e-05 0)
(-2.78456e-06 -1.09566e-05 0)
(-2.78729e-06 -1.09613e-05 0)
(-2.79014e-06 -1.09661e-05 0)
(-2.79312e-06 -1.09711e-05 0)
(-2.79625e-06 -1.09762e-05 0)
(-2.79952e-06 -1.09815e-05 0)
(-2.80293e-06 -1.0987e-05 0)
(-2.80648e-06 -1.09926e-05 0)
(-2.81017e-06 -1.09984e-05 0)
(-2.81397e-06 -1.10042e-05 0)
(-2.81789e-06 -1.10102e-05 0)
(-2.8219e-06 -1.10162e-05 0)
(-2.82601e-06 -1.10224e-05 0)
(-2.83023e-06 -1.10286e-05 0)
(-2.83457e-06 -1.10349e-05 0)
(-2.83904e-06 -1.10414e-05 0)
(-2.84368e-06 -1.1048e-05 0)
(-2.84852e-06 -1.10549e-05 0)
(-2.85358e-06 -1.1062e-05 0)
(-2.85887e-06 -1.10693e-05 0)
(-2.86441e-06 -1.1077e-05 0)
(-2.87019e-06 -1.10849e-05 0)
(-2.8762e-06 -1.10931e-05 0)
(-2.88243e-06 -1.11015e-05 0)
(-2.88887e-06 -1.11102e-05 0)
(-2.89548e-06 -1.1119e-05 0)
(-2.90228e-06 -1.11279e-05 0)
(-2.90926e-06 -1.11371e-05 0)
(-2.91642e-06 -1.11464e-05 0)
(-2.92379e-06 -1.11559e-05 0)
(-2.93137e-06 -1.11657e-05 0)
(-2.93916e-06 -1.11756e-05 0)
(-2.94719e-06 -1.11858e-05 0)
(-2.95543e-06 -1.11962e-05 0)
(-2.9639e-06 -1.12068e-05 0)
(-2.97256e-06 -1.12176e-05 0)
(-2.98142e-06 -1.12286e-05 0)
(-2.99046e-06 -1.12397e-05 0)
(-2.99967e-06 -1.1251e-05 0)
(-3.00905e-06 -1.12624e-05 0)
(-3.01859e-06 -1.12739e-05 0)
(-3.0283e-06 -1.12856e-05 0)
(-3.03817e-06 -1.12974e-05 0)
(-3.04821e-06 -1.13093e-05 0)
(-3.0584e-06 -1.13213e-05 0)
(-3.06874e-06 -1.13334e-05 0)
(-3.07924e-06 -1.13457e-05 0)
(-3.08987e-06 -1.1358e-05 0)
(-3.10064e-06 -1.13704e-05 0)
(-3.11154e-06 -1.13829e-05 0)
(-3.12256e-06 -1.13955e-05 0)
(-3.13369e-06 -1.14081e-05 0)
(-3.14491e-06 -1.14207e-05 0)
(-3.15623e-06 -1.14333e-05 0)
(-3.16763e-06 -1.1446e-05 0)
(-3.17911e-06 -1.14586e-05 0)
(-3.19065e-06 -1.14712e-05 0)
(-3.20226e-06 -1.14839e-05 0)
(-3.21395e-06 -1.14964e-05 0)
(-3.22571e-06 -1.1509e-05 0)
(-3.23755e-06 -1.15216e-05 0)
(-3.2495e-06 -1.15342e-05 0)
(-3.26159e-06 -1.15467e-05 0)
(-3.27383e-06 -1.15594e-05 0)
(-3.28628e-06 -1.15721e-05 0)
(-3.29898e-06 -1.15849e-05 0)
(-3.31197e-06 -1.15979e-05 0)
(-3.32531e-06 -1.16111e-05 0)
(-3.33904e-06 -1.16245e-05 0)
(-3.35321e-06 -1.16381e-05 0)
(-3.36785e-06 -1.16519e-05 0)
(-3.38295e-06 -1.1666e-05 0)
(-3.3985e-06 -1.16802e-05 0)
(-3.41446e-06 -1.16944e-05 0)
(-3.43077e-06 -1.17087e-05 0)
(-3.44732e-06 -1.17228e-05 0)
(-3.46399e-06 -1.17366e-05 0)
(-3.48065e-06 -1.175e-05 0)
(-3.49718e-06 -1.17628e-05 0)
(-3.51349e-06 -1.1775e-05 0)
(-3.52957e-06 -1.17865e-05 0)
(-3.54537e-06 -1.17973e-05 0)
(-3.56083e-06 -1.18073e-05 0)
(-3.57581e-06 -1.18165e-05 0)
(-3.59014e-06 -1.18247e-05 0)
(-3.60342e-06 -1.18318e-05 0)
(-3.61476e-06 -1.18375e-05 0)
(-3.62301e-06 -1.18413e-05 0)
(-3.62794e-06 -1.18432e-05 0)
(-3.63041e-06 -1.1844e-05 0)
(-3.63156e-06 -1.18442e-05 0)
(-3.63229e-06 -1.18443e-05 0)
(-3.63342e-06 -1.18447e-05 0)
(-3.6774e-06 -1.18676e-05 0)
(-3.96333e-06 -1.18831e-05 0)
(-0.0386586 7.29585e-05 0)
(-0.16032 0.00184775 0)
(-0.263572 0.00279222 0)
(-0.337054 0.00332924 0)
(-0.390839 0.00366136 0)
(-0.430061 0.00374982 0)
(-0.458049 0.00341884 0)
(-0.477608 0.00246891 0)
(-0.491244 0.000909481 0)
(-0.500903 -0.000948431 0)
(-0.507847 -0.00276396 0)
(-0.512849 -0.00437635 0)
(-0.516404 -0.00576052 0)
(-0.51885 -0.0069328 0)
(-0.520429 -0.00791684 0)
(-0.521315 -0.00873609 0)
(-0.521643 -0.00941168 0)
(-0.521514 -0.00996206 0)
(-0.521012 -0.0104033 0)
(-0.520202 -0.0107492 0)
(-0.519138 -0.0110121 0)
(-0.517867 -0.0112023 0)
(-0.516425 -0.011329 0)
(-0.514846 -0.0114 0)
(-0.513159 -0.0114218 0)
(-0.511387 -0.0114 0)
(-0.509554 -0.0113393 0)
(-0.507676 -0.0112436 0)
(-0.505773 -0.0111164 0)
(-0.503859 -0.0109608 0)
(-0.501948 -0.0107797 0)
(-0.500051 -0.0105765 0)
(-0.498179 -0.0103549 0)
(-0.496343 -0.0101194 0)
(-0.49455 -0.00987574 0)
(-0.492806 -0.00963076 0)
(-0.491118 -0.00939262 0)
(-0.489487 -0.00917037 0)
(-0.487914 -0.00897291 0)
(-0.486396 -0.00880743 0)
(-0.484927 -0.00867727 0)
(-0.483501 -0.00858043 0)
(-0.482112 -0.00850992 0)
(-0.48076 -0.0084567 0)
(-0.479447 -0.00841367 0)
(-0.478173 -0.00837755 0)
(-0.476935 -0.00834735 0)
(-0.475731 -0.00832219 0)
(-0.474562 -0.00830088 0)
(-0.473427 -0.00828272 0)
(-0.472324 -0.00826758 0)
(-0.471253 -0.00825538 0)
(-0.470203 -0.0082455 0)
(-0.469166 -0.00823712 0)
(-0.468137 -0.00823054 0)
(-0.46711 -0.00822692 0)
(-0.466085 -0.00822611 0)
(-0.465068 -0.00822652 0)
(-0.464054 -0.00822865 0)
(-0.463031 -0.00823488 0)
(-0.462001 -0.00824456 0)
(-0.460973 -0.00825616 0)
(-0.459935 -0.00827144 0)
(-0.458882 -0.00829156 0)
(-0.457821 -0.00831525 0)
(-0.456745 -0.00834365 0)
(-0.455647 -0.00837824 0)
(-0.454541 -0.00841715 0)
(-0.453422 -0.00846096 0)
(-0.452269 -0.00851351 0)
(-0.451096 -0.00857318 0)
(-0.449918 -0.00863784 0)
(-0.448712 -0.00871106 0)
(-0.447482 -0.00879313 0)
(-0.446232 -0.00888302 0)
(-0.444956 -0.00898211 0)
(-0.443671 -0.00908803 0)
(-0.442373 -0.00920018 0)
(-0.441047 -0.00932018 0)
(-0.43972 -0.00944404 0)
(-0.438384 -0.00957217 0)
(-0.437019 -0.00970808 0)
(-0.43565 -0.00984842 0)
(-0.434255 -0.00999588 0)
(-0.432802 -0.0101558 0)
(-0.431351 -0.0103216 0)
(-0.430017 -0.0104785 0)
(-0.428897 -0.0106142 0)
(-0.428026 -0.0107239 0)
(-0.427384 -0.0108047 0)
(-0.426594 -0.0109388 0)
(-0.3355 -0.0395051 0)
(-0.33549 -0.0395044 0)
(-0.335486 -0.0395044 0)
(-0.335483 -0.0395044 0)
(-0.33548 -0.0395044 0)
(-0.335477 -0.0395044 0)
(-0.335475 -0.0395044 0)
(-0.335473 -0.0395044 0)
(-0.335472 -0.0395044 0)
(-0.335471 -0.0395044 0)
(-0.33547 -0.0395044 0)
(-0.335469 -0.0395044 0)
(-0.335469 -0.0395044 0)
(-0.335468 -0.0395044 0)
(-0.335468 -0.0395044 0)
(-0.335467 -0.0395044 0)
(-0.335467 -0.0395044 0)
(-0.335467 -0.0395044 0)
(-0.335467 -0.0395044 0)
(-0.335467 -0.0395044 0)
(-0.335467 -0.0395044 0)
(-0.335466 -0.0395044 0)
(-0.335466 -0.0395044 0)
(-0.335466 -0.0395044 0)
(-0.335466 -0.0395044 0)
(-0.335466 -0.0395044 0)
(-0.335466 -0.0395044 0)
(-0.335466 -0.0395044 0)
(-0.335466 -0.0395044 0)
(-0.335466 -0.0395044 0)
(-0.335466 -0.0395044 0)
(-0.335466 -0.0395044 0)
(-0.335466 -0.0395044 0)
(-0.335466 -0.0395044 0)
(-0.335466 -0.0395044 0)
(-0.335466 -0.0395044 0)
(-0.335466 -0.0395044 0)
(-0.335466 -0.0395044 0)
(-0.335466 -0.0395044 0)
(-0.335466 -0.0395044 0)
(-0.335466 -0.0395044 0)
(-0.335466 -0.0395044 0)
(-0.335466 -0.0395044 0)
(-0.335466 -0.0395044 0)
(-0.335466 -0.0395044 0)
(-0.335466 -0.0395044 0)
(-0.335466 -0.0395044 0)
(-0.335466 -0.0395044 0)
(-0.335466 -0.0395044 0)
(-0.335466 -0.0395044 0)
(-0.335466 -0.0395044 0)
(-0.335466 -0.0395044 0)
(-0.335466 -0.0395044 0)
(-0.335466 -0.0395045 0)
(-0.335466 -0.0395044 0)
(-0.335466 -0.0395045 0)
(-0.335466 -0.0395044 0)
(-0.335466 -0.0395045 0)
(-0.335466 -0.0395044 0)
(-0.335466 -0.0395045 0)
(-0.335466 -0.0395044 0)
(-0.335466 -0.0395045 0)
(-0.335466 -0.0395044 0)
(-0.335466 -0.0395045 0)
(-0.335466 -0.0395044 0)
(-0.335466 -0.0395045 0)
(-0.335466 -0.0395044 0)
(-0.335466 -0.0395045 0)
(-0.335466 -0.0395044 0)
(-0.335466 -0.0395045 0)
(-0.335466 -0.0395044 0)
(-0.335466 -0.0395045 0)
(-0.335466 -0.0395044 0)
(-0.335466 -0.0395045 0)
(-0.335466 -0.0395044 0)
(-0.335466 -0.0395045 0)
(-0.335466 -0.0395044 0)
(-0.335466 -0.0395045 0)
(-0.335466 -0.0395044 0)
(-0.335466 -0.0395045 0)
(-0.335466 -0.0395044 0)
(-0.335466 -0.0395045 0)
(-0.335466 -0.0395044 0)
(-0.335466 -0.0395045 0)
(-0.335466 -0.0395044 0)
(-0.335466 -0.0395045 0)
(-0.335466 -0.0395044 0)
(-0.335466 -0.0395045 0)
(-0.335466 -0.0395044 0)
(-0.335466 -0.0395045 0)
(-0.335466 -0.0395044 0)
(-0.335466 -0.0395045 0)
(-0.335466 -0.0395044 0)
(-0.335466 -0.0395045 0)
(-0.335466 -0.0395044 0)
(-0.335466 -0.0395045 0)
(-0.335466 -0.0395044 0)
(-0.335466 -0.0395045 0)
(-0.335466 -0.0395044 0)
(-0.335466 -0.0395045 0)
(-0.335466 -0.0395044 0)
(-0.335466 -0.0395045 0)
(-0.335466 -0.0395044 0)
(-0.335466 -0.0395045 0)
(-0.335466 -0.0395044 0)
(-0.335466 -0.0395045 0)
(-0.335466 -0.0395044 0)
(-0.335466 -0.0395045 0)
(-0.335466 -0.0395044 0)
(-0.335466 -0.0395045 0)
(-0.335466 -0.0395044 0)
(-0.335466 -0.0395045 0)
(-0.335466 -0.0395044 0)
(-0.335466 -0.0395045 0)
(-0.335466 -0.0395044 0)
(-0.335466 -0.0395044 0)
(-0.335466 -0.0395042 0)
(-0.335465 -0.0394958 0)
(-0.335438 -0.0391501 0)
(-0.334809 -0.02241 0)
)
;

boundaryField
{
    inandouthalf11
    {
        type            cyclic;
    }
    inandouthalf12
    {
        type            cyclic;
    }
    inandouthalf21
    {
        type            cyclic;
    }
    inandouthalf22
    {
        type            cyclic;
    }
    inandouthalf31
    {
        type            cyclic;
    }
    inandouthalf32
    {
        type            cyclic;
    }
    inandouthalf41
    {
        type            cyclic;
    }
    inandouthalf42
    {
        type            cyclic;
    }
    top
    {
        type            symmetryPlane;
    }
    walls
    {
        type            fixedValue;
        value           uniform (0 0 0);
    }
    frontAndBackPlanes
    {
        type            empty;
    }
}


// ************************************************************************* //
