/*--------------------------------*- C++ -*----------------------------------*\
| =========                 |                                                 |
| \\      /  F ield         | OpenFOAM: The Open Source CFD Toolbox           |
|  \\    /   O peration     | Version:  2.4.x                                 |
|   \\  /    A nd           | Web:      www.OpenFOAM.org                      |
|    \\/     M anipulation  |                                                 |
\*---------------------------------------------------------------------------*/
FoamFile
{
    version     2.0;
    format      ascii;
    class       volVectorField;
    location    "3.5";
    object      Ub;
}
// * * * * * * * * * * * * * * * * * * * * * * * * * * * * * * * * * * * * * //

dimensions      [0 1 -1 0 0 0 0];

internalField   nonuniform List<vector> 
360
(
(-0.000206638 1.31778e-07 0)
(-0.000206374 5.81571e-07 0)
(-0.000206209 1.21257e-06 0)
(-0.000206335 1.81077e-06 0)
(-0.000206502 2.36871e-06 0)
(-0.000206658 2.91835e-06 0)
(-0.000206817 3.48335e-06 0)
(-0.000206975 4.07018e-06 0)
(-0.000207127 4.67277e-06 0)
(-0.000207278 5.28138e-06 0)
(-0.000207431 5.88958e-06 0)
(-0.000207585 6.4953e-06 0)
(-0.000207739 7.09999e-06 0)
(-0.000207892 7.70753e-06 0)
(-0.000208046 8.32481e-06 0)
(-0.000208203 8.96375e-06 0)
(-0.00020837 9.64292e-06 0)
(-0.000208551 1.03879e-05 0)
(-0.000208755 1.12281e-05 0)
(-0.000208987 1.21861e-05 0)
(-0.000209244 1.32523e-05 0)
(-0.000209513 1.43549e-05 0)
(-0.000209756 1.53578e-05 0)
(-0.000209937 1.61215e-05 0)
(-0.000210046 1.65938e-05 0)
(-0.000210099 1.68306e-05 0)
(-0.000210121 1.69304e-05 0)
(-0.000210133 1.69691e-05 0)
(-0.000210141 1.69847e-05 0)
(-0.000210147 1.69922e-05 0)
(-0.000210152 1.69967e-05 0)
(-0.000210159 1.70004e-05 0)
(-0.000210164 1.70038e-05 0)
(-0.000210173 1.70078e-05 0)
(-0.00021018 1.7012e-05 0)
(-0.000210189 1.7017e-05 0)
(-0.000210198 1.70223e-05 0)
(-0.000210209 1.70281e-05 0)
(-0.000210222 1.7034e-05 0)
(-0.000210233 1.70398e-05 0)
(-0.000210247 1.70457e-05 0)
(-0.000210261 1.70513e-05 0)
(-0.000210275 1.70567e-05 0)
(-0.000210293 1.70622e-05 0)
(-0.00021031 1.70674e-05 0)
(-0.000210329 1.70727e-05 0)
(-0.000210349 1.7078e-05 0)
(-0.000210369 1.70832e-05 0)
(-0.000210392 1.70885e-05 0)
(-0.000210418 1.70939e-05 0)
(-0.000210443 1.70993e-05 0)
(-0.000210472 1.71048e-05 0)
(-0.000210502 1.71104e-05 0)
(-0.000210534 1.71162e-05 0)
(-0.000210567 1.71219e-05 0)
(-0.000210605 1.7128e-05 0)
(-0.000210643 1.7134e-05 0)
(-0.000210684 1.71402e-05 0)
(-0.000210727 1.71466e-05 0)
(-0.000210772 1.71531e-05 0)
(-0.00021082 1.71599e-05 0)
(-0.000210868 1.71667e-05 0)
(-0.00021092 1.71738e-05 0)
(-0.000210972 1.71809e-05 0)
(-0.000211025 1.71882e-05 0)
(-0.00021108 1.71955e-05 0)
(-0.000211136 1.72029e-05 0)
(-0.000211195 1.72104e-05 0)
(-0.000211255 1.7218e-05 0)
(-0.000211317 1.72256e-05 0)
(-0.000211383 1.72335e-05 0)
(-0.000211451 1.72416e-05 0)
(-0.00021152 1.725e-05 0)
(-0.000211593 1.72587e-05 0)
(-0.000211667 1.72678e-05 0)
(-0.000211744 1.72773e-05 0)
(-0.000211821 1.7287e-05 0)
(-0.000211901 1.72971e-05 0)
(-0.000211982 1.73074e-05 0)
(-0.000212065 1.73179e-05 0)
(-0.000212151 1.73286e-05 0)
(-0.000212238 1.73395e-05 0)
(-0.000212328 1.73506e-05 0)
(-0.000212421 1.73619e-05 0)
(-0.000212516 1.73734e-05 0)
(-0.000212613 1.73852e-05 0)
(-0.000212713 1.73972e-05 0)
(-0.000212815 1.74095e-05 0)
(-0.000212918 1.7422e-05 0)
(-0.000213024 1.74347e-05 0)
(-0.000213133 1.74476e-05 0)
(-0.000213244 1.74606e-05 0)
(-0.000213357 1.74738e-05 0)
(-0.000213473 1.7487e-05 0)
(-0.000213592 1.75004e-05 0)
(-0.000213714 1.75138e-05 0)
(-0.000213838 1.75273e-05 0)
(-0.000213965 1.75409e-05 0)
(-0.000214095 1.75546e-05 0)
(-0.000214229 1.75683e-05 0)
(-0.000214365 1.7582e-05 0)
(-0.000214504 1.75957e-05 0)
(-0.000214647 1.76094e-05 0)
(-0.000214793 1.76231e-05 0)
(-0.000214943 1.76367e-05 0)
(-0.000215097 1.76503e-05 0)
(-0.000215254 1.76637e-05 0)
(-0.000215415 1.7677e-05 0)
(-0.00021558 1.76901e-05 0)
(-0.00021575 1.7703e-05 0)
(-0.000215924 1.77157e-05 0)
(-0.000216102 1.77282e-05 0)
(-0.000216286 1.77405e-05 0)
(-0.000216474 1.77525e-05 0)
(-0.000216668 1.77643e-05 0)
(-0.000216868 1.77759e-05 0)
(-0.000217073 1.77872e-05 0)
(-0.000217284 1.77984e-05 0)
(-0.000217502 1.78094e-05 0)
(-0.000217727 1.78204e-05 0)
(-0.000217958 1.78312e-05 0)
(-0.000218198 1.78421e-05 0)
(-0.000218445 1.78529e-05 0)
(-0.000218701 1.78638e-05 0)
(-0.000218966 1.78746e-05 0)
(-0.000219239 1.78853e-05 0)
(-0.000219523 1.78959e-05 0)
(-0.000219817 1.79062e-05 0)
(-0.000220123 1.79159e-05 0)
(-0.000220441 1.79249e-05 0)
(-0.000220771 1.7933e-05 0)
(-0.000221115 1.79398e-05 0)
(-0.000221473 1.79452e-05 0)
(-0.00022185 1.79487e-05 0)
(-0.000222249 1.79505e-05 0)
(-0.000222671 1.79503e-05 0)
(-0.000223113 1.79479e-05 0)
(-0.000223581 1.79426e-05 0)
(-0.000224098 1.79337e-05 0)
(-0.000224688 1.79216e-05 0)
(-0.000225329 1.79072e-05 0)
(-0.000225936 1.78845e-05 0)
(-0.000226652 1.7856e-05 0)
(-0.000227581 1.78207e-05 0)
(-0.00022872 1.77611e-05 0)
(-0.000230604 1.76037e-05 0)
(-0.000236194 1.77058e-05 0)
(-0.000236237 1.5699e-05 0)
(-0.000320778 3.0757e-05 0)
(-0.0430304 -5.9928e-05 0)
(-0.179954 -0.000695026 0)
(-0.280688 -0.000304257 0)
(-0.353457 -0.000305967 0)
(-0.408724 -0.000182965 0)
(-0.451062 -0.000109685 0)
(-0.482846 -5.65619e-05 0)
(-0.505668 -2.27947e-05 0)
(-0.521186 -4.28361e-06 0)
(-0.531271 4.27593e-06 0)
(-0.537647 7.74248e-06 0)
(-0.541596 9.10913e-06 0)
(-0.54395 9.5394e-06 0)
(-0.545223 9.49982e-06 0)
(-0.545733 9.20743e-06 0)
(-0.545676 8.77912e-06 0)
(-0.545181 8.28142e-06 0)
(-0.544334 7.75291e-06 0)
(-0.543194 7.21659e-06 0)
(-0.541806 6.6865e-06 0)
(-0.540202 6.17139e-06 0)
(-0.538409 5.6767e-06 0)
(-0.536446 5.20576e-06 0)
(-0.534331 4.76046e-06 0)
(-0.53208 4.34167e-06 0)
(-0.529703 3.94955e-06 0)
(-0.527212 3.58368e-06 0)
(-0.524618 3.24323e-06 0)
(-0.521928 2.927e-06 0)
(-0.51915 2.63352e-06 0)
(-0.516292 2.36109e-06 0)
(-0.513361 2.10789e-06 0)
(-0.510361 1.87198e-06 0)
(-0.507299 1.65144e-06 0)
(-0.504181 1.4444e-06 0)
(-0.50101 1.24931e-06 0)
(-0.497791 1.0652e-06 0)
(-0.494528 8.92154e-07 0)
(-0.491225 7.31874e-07 0)
(-0.487886 5.87908e-07 0)
(-0.484515 4.64987e-07 0)
(-0.481114 3.66948e-07 0)
(-0.477687 2.94045e-07 0)
(-0.474237 2.4184e-07 0)
(-0.470765 2.03334e-07 0)
(-0.467276 1.72758e-07 0)
(-0.463772 1.47417e-07 0)
(-0.460254 1.26486e-07 0)
(-0.456725 1.09246e-07 0)
(-0.453188 9.47604e-08 0)
(-0.449645 8.23719e-08 0)
(-0.446096 7.18624e-08 0)
(-0.44251 6.3004e-08 0)
(-0.43885 5.5322e-08 0)
(-0.435117 4.83416e-08 0)
(-0.431313 4.20911e-08 0)
(-0.427438 3.68785e-08 0)
(-0.423493 3.24723e-08 0)
(-0.419481 2.83423e-08 0)
(-0.415404 2.45608e-08 0)
(-0.411264 2.14369e-08 0)
(-0.407064 1.87593e-08 0)
(-0.402809 1.62789e-08 0)
(-0.398503 1.41076e-08 0)
(-0.394152 1.2253e-08 0)
(-0.389763 1.05887e-08 0)
(-0.385343 9.15919e-09 0)
(-0.380904 7.9607e-09 0)
(-0.376456 6.8466e-09 0)
(-0.372015 5.84083e-09 0)
(-0.3676 5.03723e-09 0)
(-0.363234 4.34505e-09 0)
(-0.358947 3.69564e-09 0)
(-0.354779 3.13182e-09 0)
(-0.350785 2.65771e-09 0)
(-0.347045 2.33041e-09 0)
(-0.343689 1.63884e-09 0)
(-0.340983 2.16774e-09 0)
(-0.339923 4.10042e-10 0)
(-0.339808 2.38416e-09 0)
(-0.339778 -6.66723e-10 0)
(-0.339752 2.65994e-09 0)
(-0.33973 -1.58562e-09 0)
(-0.33971 3.02244e-09 0)
(-0.339693 -2.43881e-09 0)
(-0.339678 3.46879e-09 0)
(-0.339666 -3.12709e-09 0)
(-0.339655 4.07179e-09 0)
(-0.339645 -3.82184e-09 0)
(-0.339637 4.63673e-09 0)
(-0.33963 -4.706e-09 0)
(-0.339624 5.15874e-09 0)
(-0.339619 -5.45401e-09 0)
(-0.339615 5.78214e-09 0)
(-0.339611 -6.10845e-09 0)
(-0.339608 6.4614e-09 0)
(-0.339605 -6.81364e-09 0)
(-0.339603 7.19217e-09 0)
(-0.339601 -7.57107e-09 0)
(-0.3396 7.97587e-09 0)
(-0.339599 -8.38214e-09 0)
(-0.339598 8.81384e-09 0)
(-0.339597 -9.24811e-09 0)
(-0.339596 9.70729e-09 0)
(-0.339596 -1.01702e-08 0)
(-0.339595 1.06574e-08 0)
(-0.339595 -1.11495e-08 0)
(-0.339595 1.16652e-08 0)
(-0.339594 -1.21871e-08 0)
(-0.339594 1.27319e-08 0)
(-0.339594 -1.3284e-08 0)
(-0.339594 1.38584e-08 0)
(-0.339594 -1.44413e-08 0)
(-0.339594 1.50458e-08 0)
(-0.339594 -1.56601e-08 0)
(-0.339594 1.62953e-08 0)
(-0.339594 -1.69413e-08 0)
(-0.339594 1.76079e-08 0)
(-0.339594 -1.82861e-08 0)
(-0.339594 1.89847e-08 0)
(-0.339594 -1.96957e-08 0)
(-0.339594 2.04269e-08 0)
(-0.339594 -2.11712e-08 0)
(-0.339594 2.19356e-08 0)
(-0.339594 -2.27136e-08 0)
(-0.339594 2.35118e-08 0)
(-0.339594 -2.43242e-08 0)
(-0.339594 2.51567e-08 0)
(-0.339594 -2.60039e-08 0)
(-0.339594 2.68713e-08 0)
(-0.339594 -2.7754e-08 0)
(-0.339594 2.86568e-08 0)
(-0.339594 -2.95755e-08 0)
(-0.339594 3.05143e-08 0)
(-0.339594 -3.14695e-08 0)
(-0.339594 3.24449e-08 0)
(-0.339594 -3.34371e-08 0)
(-0.339594 3.44495e-08 0)
(-0.339594 -3.54792e-08 0)
(-0.339594 3.65292e-08 0)
(-0.339594 -3.75969e-08 0)
(-0.339594 3.86849e-08 0)
(-0.339594 -3.97911e-08 0)
(-0.339594 4.09174e-08 0)
(-0.339594 -4.20624e-08 0)
(-0.339594 4.32274e-08 0)
(-0.339594 -4.44114e-08 0)
(-0.339594 4.56154e-08 0)
(-0.339594 -4.68388e-08 0)
(-0.339594 4.80819e-08 0)
(-0.339594 -4.93445e-08 0)
(-0.339594 5.06268e-08 0)
(-0.339594 -5.19286e-08 0)
(-0.339594 5.32498e-08 0)
(-0.339594 -5.45903e-08 0)
(-0.339594 5.595e-08 0)
(-0.339594 -5.73286e-08 0)
(-0.339594 5.87256e-08 0)
(-0.339594 -6.0141e-08 0)
(-0.339594 6.15739e-08 0)
(-0.339594 -6.30239e-08 0)
(-0.339594 5.65886e-08 0)
(-0.339594 -5.67635e-08 0)
(-0.339594 5.69277e-08 0)
(-0.339594 -5.70811e-08 0)
(-0.339594 5.72229e-08 0)
(-0.339594 -5.73528e-08 0)
(-0.339594 5.74698e-08 0)
(-0.339594 -5.75734e-08 0)
(-0.339594 5.7662e-08 0)
(-0.339594 -5.77338e-08 0)
(-0.339594 5.7785e-08 0)
(-0.339594 -5.7804e-08 0)
(-0.339594 5.77716e-08 0)
(-0.339594 -5.77251e-08 0)
(-0.339594 5.76688e-08 0)
(-0.339594 -5.76053e-08 0)
(-0.339594 5.75359e-08 0)
(-0.339594 -5.74618e-08 0)
(-0.339594 5.73836e-08 0)
(-0.339594 -5.73022e-08 0)
(-0.339594 5.72178e-08 0)
(-0.339594 -5.71314e-08 0)
(-0.339594 5.70426e-08 0)
(-0.339594 -5.69529e-08 0)
(-0.339594 5.68612e-08 0)
(-0.339594 -5.67693e-08 0)
(-0.339594 5.66761e-08 0)
(-0.339594 -5.65832e-08 0)
(-0.339594 5.64893e-08 0)
(-0.339594 -5.63965e-08 0)
(-0.339594 5.63031e-08 0)
(-0.339594 -5.62112e-08 0)
(-0.339594 5.61193e-08 0)
(-0.339594 -5.6029e-08 0)
(-0.339594 5.59395e-08 0)
(-0.339594 -5.58518e-08 0)
(-0.339594 5.57656e-08 0)
(-0.339594 -5.56812e-08 0)
(-0.339594 5.55995e-08 0)
(-0.339594 -5.55192e-08 0)
(-0.339594 5.54432e-08 0)
(-0.339594 -5.53676e-08 0)
(-0.339594 5.52987e-08 0)
(-0.339594 -5.52286e-08 0)
(-0.339594 5.51684e-08 0)
(-0.339594 -5.5105e-08 0)
(-0.339594 5.50558e-08 0)
(-0.339594 -5.50005e-08 0)
(-0.339594 5.49657e-08 0)
(-0.339594 -5.49266e-08 0)
)
;

boundaryField
{
    inandouthalf11
    {
        type            cyclic;
    }
    inandouthalf12
    {
        type            cyclic;
    }
    inandouthalf21
    {
        type            cyclic;
    }
    inandouthalf22
    {
        type            cyclic;
    }
    inandouthalf31
    {
        type            cyclic;
    }
    inandouthalf32
    {
        type            cyclic;
    }
    inandouthalf41
    {
        type            cyclic;
    }
    inandouthalf42
    {
        type            cyclic;
    }
    top
    {
        type            symmetryPlane;
    }
    walls
    {
        type            fixedValue;
        value           uniform (0 0 0);
    }
    frontAndBackPlanes
    {
        type            empty;
    }
}


// ************************************************************************* //
