/*--------------------------------*- C++ -*----------------------------------*\
| =========                 |                                                 |
| \\      /  F ield         | OpenFOAM: The Open Source CFD Toolbox           |
|  \\    /   O peration     | Version:  2.4.x                                 |
|   \\  /    A nd           | Web:      www.OpenFOAM.org                      |
|    \\/     M anipulation  |                                                 |
\*---------------------------------------------------------------------------*/
FoamFile
{
    version     2.0;
    format      ascii;
    class       volScalarField;
    location    "3.75";
    object      p;
}
// * * * * * * * * * * * * * * * * * * * * * * * * * * * * * * * * * * * * * //

dimensions      [1 -1 -2 0 0 0 0];

internalField   nonuniform List<scalar> 
360
(
4895.96
4891.05
4886.15
4881.24
4876.32
4871.41
4866.49
4861.57
4856.65
4851.73
4846.81
4841.88
4836.95
4832.02
4827.09
4822.15
4817.21
4812.28
4807.33
4802.39
4797.44
4792.5
4787.55
4782.59
4777.64
4772.68
4767.71
4762.74
4757.77
4752.8
4747.83
4742.86
4737.89
4732.92
4727.95
4722.98
4718
4713.03
4708.06
4703.09
4698.12
4693.15
4688.18
4683.2
4678.23
4673.26
4668.29
4663.32
4658.35
4653.38
4648.4
4643.43
4638.46
4633.49
4628.52
4623.55
4618.58
4613.6
4608.63
4603.66
4598.69
4593.72
4588.75
4583.78
4578.8
4573.83
4568.86
4563.89
4558.92
4553.95
4548.98
4544
4539.03
4534.06
4529.09
4524.12
4519.15
4514.18
4509.21
4504.23
4499.26
4494.29
4489.32
4484.35
4479.38
4474.41
4469.44
4464.46
4459.49
4454.52
4449.55
4444.58
4439.61
4434.64
4429.67
4424.7
4419.72
4414.75
4409.78
4404.81
4399.84
4394.87
4389.9
4384.93
4379.96
4374.99
4370.01
4365.04
4360.07
4355.1
4350.13
4345.16
4340.19
4335.22
4330.25
4325.28
4320.31
4315.34
4310.37
4305.4
4300.43
4295.46
4290.49
4285.52
4280.55
4275.58
4270.61
4265.64
4260.67
4255.7
4250.73
4245.76
4240.79
4235.82
4230.85
4225.88
4220.91
4215.94
4210.97
4206.01
4201.04
4196.07
4191.1
4186.13
4181.17
4176.2
4171.23
4166.28
4161
4153.21
4145.51
4139.51
4134.08
4128.95
4124.02
4119.23
4114.53
4109.89
4105.27
4100.66
4096.01
4091.33
4086.59
4081.8
4076.97
4072.11
4067.23
4062.33
4057.41
4052.49
4047.57
4042.64
4037.71
4032.77
4027.84
4022.9
4017.97
4013.03
4008.09
4003.16
3998.22
3993.29
3988.36
3983.43
3978.5
3973.57
3968.65
3963.72
3958.8
3953.88
3948.96
3944.05
3939.13
3934.22
3929.31
3924.41
3919.5
3914.6
3909.7
3904.8
3899.9
3894.96
3889.92
3884.78
3879.54
3874.19
3868.74
3863.18
3857.51
3851.73
3845.83
3839.82
3833.69
3827.44
3821.06
3814.56
3807.93
3801.17
3794.27
3787.24
3780.06
3772.75
3765.28
3757.67
3749.91
3741.99
3733.91
3725.66
3717.24
3708.65
3699.87
3690.89
3681.69
3672.27
3662.65
3652.84
3642.83
3632.61
3622.19
3611.56
3600.71
3589.64
3578.35
3566.83
3555.07
3543.08
3530.84
3518.35
3505.61
3492.61
3479.35
3465.82
3452.01
3437.92
3423.55
3408.88
3393.92
3378.66
3363.08
3347.19
3330.97
3314.43
3297.55
3280.33
3262.76
3244.83
3226.54
3207.87
3188.83
3169.4
3149.58
3129.35
3108.72
3087.66
3066.18
3044.26
3021.9
2999.08
2975.8
2952.05
2927.81
2903.09
2877.86
2852.12
2825.86
2799.06
2771.72
2743.82
2715.36
2686.32
2656.7
2626.47
2595.62
2564.15
2532.05
2499.29
2465.86
2431.76
2396.96
2361.46
2325.24
2288.28
2250.57
2212.1
2172.85
2132.8
2091.93
2050.24
2007.7
1964.3
1922.76
1883.52
1844.28
1805.04
1765.8
1726.56
1687.32
1648.08
1608.84
1569.6
1530.36
1491.12
1451.88
1412.64
1373.4
1334.16
1294.92
1255.68
1216.44
1177.2
1137.96
1098.72
1059.48
1020.24
981
941.76
902.52
863.28
824.04
784.8
745.56
706.32
667.08
627.84
588.6
549.36
510.12
470.88
431.64
392.4
353.16
313.92
274.68
235.44
196.2
156.96
117.72
78.48
39.24
1.28091e-07
)
;

boundaryField
{
    inandouthalf11
    {
        type            cyclic;
    }
    inandouthalf12
    {
        type            cyclic;
    }
    inandouthalf21
    {
        type            cyclic;
    }
    inandouthalf22
    {
        type            cyclic;
    }
    inandouthalf31
    {
        type            cyclic;
    }
    inandouthalf32
    {
        type            cyclic;
    }
    inandouthalf41
    {
        type            cyclic;
    }
    inandouthalf42
    {
        type            cyclic;
    }
    top
    {
        type            symmetryPlane;
    }
    walls
    {
        type            slip;
    }
    frontAndBackPlanes
    {
        type            empty;
    }
}


// ************************************************************************* //
