/*--------------------------------*- C++ -*----------------------------------*\
| =========                 |                                                 |
| \\      /  F ield         | OpenFOAM: The Open Source CFD Toolbox           |
|  \\    /   O peration     | Version:  2.4.x                                 |
|   \\  /    A nd           | Web:      www.OpenFOAM.org                      |
|    \\/     M anipulation  |                                                 |
\*---------------------------------------------------------------------------*/
FoamFile
{
    version     2.0;
    format      ascii;
    class       volScalarField;
    location    "3.75";
    object      pa;
}
// * * * * * * * * * * * * * * * * * * * * * * * * * * * * * * * * * * * * * //

dimensions      [1 -1 -2 0 0 0 0];

internalField   nonuniform List<scalar> 
360
(
2.89409e-16
2.93361e-16
2.93674e-16
2.92923e-16
2.92654e-16
2.92655e-16
2.92725e-16
2.92777e-16
2.92777e-16
2.92732e-16
2.92671e-16
2.92608e-16
2.92532e-16
2.92428e-16
2.9229e-16
2.92133e-16
2.91985e-16
2.91885e-16
2.91883e-16
2.92044e-16
2.92466e-16
2.93287e-16
2.94659e-16
2.96524e-16
2.98097e-16
2.97702e-16
2.94588e-16
2.90814e-16
2.88651e-16
2.87978e-16
2.87845e-16
2.87816e-16
2.87806e-16
2.87793e-16
2.87782e-16
2.87769e-16
2.87757e-16
2.87741e-16
2.87724e-16
2.87708e-16
2.87688e-16
2.87667e-16
2.87647e-16
2.87622e-16
2.87596e-16
2.87569e-16
2.87539e-16
2.87509e-16
2.87475e-16
2.87436e-16
2.87397e-16
2.87354e-16
2.8731e-16
2.87261e-16
2.87211e-16
2.87154e-16
2.87097e-16
2.87034e-16
2.86969e-16
2.86902e-16
2.86829e-16
2.86756e-16
2.86679e-16
2.866e-16
2.8652e-16
2.86438e-16
2.86353e-16
2.86265e-16
2.86174e-16
2.8608e-16
2.85981e-16
2.85879e-16
2.85775e-16
2.85666e-16
2.85556e-16
2.85441e-16
2.85326e-16
2.85208e-16
2.85088e-16
2.84964e-16
2.84838e-16
2.84709e-16
2.84575e-16
2.84439e-16
2.84299e-16
2.84156e-16
2.84009e-16
2.8386e-16
2.83708e-16
2.83553e-16
2.83394e-16
2.83232e-16
2.83067e-16
2.82897e-16
2.82724e-16
2.82547e-16
2.82366e-16
2.82181e-16
2.81991e-16
2.81795e-16
0
0
0
0
0
0
0
0
0
0
0
0
0
0
0
2.77976e-16
2.7768e-16
2.77375e-16
2.77061e-16
2.76739e-16
2.76406e-16
2.76063e-16
2.7571e-16
2.75345e-16
2.74969e-16
2.74581e-16
2.7418e-16
2.73764e-16
2.73334e-16
4.06694e-16
1.01011e-15
2.46034e-15
5.56089e-15
1.15364e-14
2.17133e-14
3.62964e-14
5.1595e-14
5.88893e-14
8.86139e-14
7.98161e-13
1.21747e-11
2.11644e-10
4.20024e-09
9.6378e-08
2.61958e-06
0.000137655
0.0169835
0.658464
5.43698
4.12183
3.26794
2.3649
1.64741
1.11382
0.733175
0.470865
0.295745
0.182298
0.110779
0.0666679
0.0399607
0.0242296
0.0153306
0.0103733
0.00749356
0.00569681
0.00449912
0.0036568
0.00303835
0.00256819
0.00220045
0.00190596
0.00166538
0.00146543
0.00129671
0.00115234
0.00102717
0.000917221
0.000819315
0.000730867
0.000649717
0.000574059
0.000502451
0.000433917
0.000368175
0.000305929
0.000249032
0.000200112
0.000161367
0.000132937
0.000112332
9.59925e-05
8.1749e-05
6.94793e-05
5.95344e-05
5.14435e-05
4.44622e-05
3.83953e-05
3.33108e-05
2.9092e-05
2.54816e-05
2.21778e-05
1.91631e-05
1.66941e-05
1.47112e-05
1.27864e-05
1.08637e-05
9.34544e-06
8.23848e-06
7.06737e-06
5.9327e-06
5.1241e-06
4.41585e-06
3.6905e-06
3.13984e-06
2.69957e-06
2.22265e-06
1.83043e-06
1.57663e-06
1.30817e-06
1.03753e-06
8.65459e-07
7.07499e-07
5.59953e-07
4.58435e-07
3.58247e-07
2.75442e-07
2.23582e-07
1.6708e-07
1.21887e-07
9.46249e-08
6.46455e-08
4.9488e-08
3.99644e-08
3.15113e-08
2.1792e-08
1.03799e-08
0
0
0
0
0
0
0
0
0
0
0
0
0
0
0
0
0
0
0
0
0
0
0
0
0
0
0
0
0
0
0
0
0
0
0
0
0
0
0
0
0
0
0
0
0
0
0
0
0
0
0
0
0
0
0
0
0
0
0
0
0
0
0
0
0
0
0
0
0
0
0
0
0
0
0
0
0
0
0
0
0
0
0
0
0
0
0
0
0
0
0
0
0
0
0
0
0
0
0
0
0
0
0
0
0
0
0
0
0
0
0
0
0
0
0
0
0
0
0
0
0
0
0
)
;

boundaryField
{
    inandouthalf11
    {
        type            cyclic;
    }
    inandouthalf12
    {
        type            cyclic;
    }
    inandouthalf21
    {
        type            cyclic;
    }
    inandouthalf22
    {
        type            cyclic;
    }
    inandouthalf31
    {
        type            cyclic;
    }
    inandouthalf32
    {
        type            cyclic;
    }
    inandouthalf41
    {
        type            cyclic;
    }
    inandouthalf42
    {
        type            cyclic;
    }
    top
    {
        type            symmetryPlane;
    }
    walls
    {
        type            calculated;
        value           uniform 2.89409e-16;
    }
    frontAndBackPlanes
    {
        type            empty;
    }
}


// ************************************************************************* //
