/*--------------------------------*- C++ -*----------------------------------*\
| =========                 |                                                 |
| \\      /  F ield         | OpenFOAM: The Open Source CFD Toolbox           |
|  \\    /   O peration     | Version:  2.4.x                                 |
|   \\  /    A nd           | Web:      www.OpenFOAM.org                      |
|    \\/     M anipulation  |                                                 |
\*---------------------------------------------------------------------------*/
FoamFile
{
    version     2.0;
    format      ascii;
    class       surfaceScalarField;
    location    "3.75";
    object      phia_0;
}
// * * * * * * * * * * * * * * * * * * * * * * * * * * * * * * * * * * * * * //

dimensions      [0 3 -1 0 0 0 0];

internalField   nonuniform List<scalar> 
359
(
-7.34291e-13
-2.20202e-12
-3.6495e-12
-4.96268e-12
-6.23082e-12
-7.52037e-12
-8.85204e-12
-1.0219e-11
-1.16041e-11
-1.29975e-11
-1.43972e-11
-1.58028e-11
-1.72122e-11
-1.86181e-11
-2.00124e-11
-2.139e-11
-2.27525e-11
-2.41114e-11
-2.54901e-11
-2.69281e-11
-2.84793e-11
-3.02162e-11
-3.22152e-11
-3.45187e-11
-3.70562e-11
-3.9567e-11
-4.16568e-11
-4.30467e-11
-4.37679e-11
-4.40659e-11
-4.41716e-11
-4.42083e-11
-4.42227e-11
-4.423e-11
-4.42347e-11
-4.42387e-11
-4.42428e-11
-4.42474e-11
-4.42527e-11
-4.42588e-11
-4.42656e-11
-4.42728e-11
-4.42802e-11
-4.42877e-11
-4.42951e-11
-4.43024e-11
-4.43096e-11
-4.43167e-11
-4.43238e-11
-4.4331e-11
-4.43383e-11
-4.43458e-11
-4.43534e-11
-4.43613e-11
-4.43695e-11
-4.43779e-11
-4.43866e-11
-4.43956e-11
-4.44049e-11
-4.44145e-11
-4.44244e-11
-4.44345e-11
-4.44449e-11
-4.44554e-11
-4.4466e-11
-4.44768e-11
-4.44878e-11
-4.44989e-11
-4.45102e-11
-4.45217e-11
-4.45336e-11
-4.45459e-11
-4.45587e-11
-4.45719e-11
-4.45856e-11
-4.45998e-11
-4.46144e-11
-4.46294e-11
-4.46448e-11
-4.46605e-11
-4.46764e-11
-4.46927e-11
-4.47094e-11
-4.47264e-11
-4.47438e-11
-4.47615e-11
-4.47797e-11
-4.47983e-11
-4.48172e-11
-4.48364e-11
-4.48559e-11
-4.48757e-11
-4.48958e-11
-4.4916e-11
-4.49365e-11
-4.49573e-11
-4.49782e-11
-4.49993e-11
-4.50207e-11
-4.50422e-11
-4.50638e-11
-4.50856e-11
-4.51076e-11
-4.51296e-11
-4.51517e-11
-4.51738e-11
-4.5196e-11
-4.52182e-11
-4.52404e-11
-4.52625e-11
-4.52846e-11
-4.53066e-11
-4.53286e-11
-4.53505e-11
-4.53723e-11
-4.53941e-11
-4.54159e-11
-4.54377e-11
-4.54596e-11
-4.54816e-11
-4.55037e-11
-4.55259e-11
-4.55484e-11
-4.5571e-11
-4.55936e-11
-4.56163e-11
-4.56389e-11
-4.56612e-11
-4.56831e-11
-4.57042e-11
-4.57244e-11
-4.57435e-11
-4.57614e-11
-4.57779e-11
-4.57931e-11
-4.5807e-11
-4.58195e-11
-4.58307e-11
-4.58405e-11
-4.58487e-11
-4.58549e-11
-4.58585e-11
-4.58602e-11
-4.58609e-11
-4.5861e-11
-4.58603e-11
-4.59327e-11
-2.9266e-11
3.45085e-09
8.91184e-09
1.18446e-08
1.37774e-08
1.54604e-08
1.70848e-08
1.8668e-08
2.01592e-08
2.14514e-08
2.23836e-08
2.27115e-08
2.20704e-08
2.00568e-08
1.6657e-08
1.25071e-08
8.31615e-09
4.43863e-09
9.96126e-10
-1.99002e-09
-4.5431e-09
-6.70196e-09
-8.50723e-09
-9.99633e-09
-1.12022e-08
-1.21533e-08
-1.28745e-08
-1.33878e-08
-1.37133e-08
-1.38702e-08
-1.38776e-08
-1.3756e-08
-1.35277e-08
-1.32182e-08
-1.28565e-08
-1.2476e-08
-1.21128e-08
-1.18036e-08
-1.15803e-08
-1.14632e-08
-1.14539e-08
-1.15317e-08
-1.16619e-08
-1.18136e-08
-1.19744e-08
-1.21451e-08
-1.23247e-08
-1.25053e-08
-1.26806e-08
-1.28498e-08
-1.3013e-08
-1.31681e-08
-1.33139e-08
-1.34502e-08
-1.35836e-08
-1.37186e-08
-1.38522e-08
-1.39775e-08
-1.41006e-08
-1.42348e-08
-1.4375e-08
-1.45046e-08
-1.46395e-08
-1.47943e-08
-1.49493e-08
-1.51054e-08
-1.52843e-08
-1.5473e-08
-1.56612e-08
-1.58794e-08
-1.61292e-08
-1.6376e-08
-1.66443e-08
-1.69692e-08
-1.73089e-08
-1.76805e-08
-1.81067e-08
-1.8557e-08
-1.90653e-08
-1.96389e-08
-2.02363e-08
-2.09054e-08
-2.16479e-08
-2.2431e-08
-2.32765e-08
-2.41133e-08
-2.48703e-08
-2.55113e-08
-2.6019e-08
-2.65762e-08
-9.18708e-08
-1.58095e-07
-1.58094e-07
-1.58094e-07
-1.58094e-07
-1.58094e-07
-1.58094e-07
-1.58094e-07
-1.58094e-07
-1.58094e-07
-1.58094e-07
-1.58094e-07
-1.58094e-07
-1.58094e-07
-1.58094e-07
-1.58094e-07
-1.58094e-07
-1.58094e-07
-1.58094e-07
-1.58094e-07
-1.58094e-07
-1.58094e-07
-1.58094e-07
-1.58094e-07
-1.58094e-07
-1.58094e-07
-1.58094e-07
-1.58094e-07
-1.58094e-07
-1.58094e-07
-1.58094e-07
-1.58094e-07
-1.58094e-07
-1.58094e-07
-1.58094e-07
-1.58094e-07
-1.58094e-07
-1.58094e-07
-1.58094e-07
-1.58094e-07
-1.58094e-07
-1.58094e-07
-1.58094e-07
-1.58094e-07
-1.58094e-07
-1.58094e-07
-1.58094e-07
-1.58094e-07
-1.58094e-07
-1.58094e-07
-1.58094e-07
-1.58094e-07
-1.58094e-07
-1.58094e-07
-1.58094e-07
-1.58094e-07
-1.58094e-07
-1.58094e-07
-1.58094e-07
-1.58094e-07
-1.58094e-07
-1.58094e-07
-1.58094e-07
-1.58094e-07
-1.58094e-07
-1.58094e-07
-1.58094e-07
-1.58094e-07
-1.58094e-07
-1.58094e-07
-1.58094e-07
-1.58094e-07
-1.58094e-07
-1.58094e-07
-1.58094e-07
-1.58094e-07
-1.58094e-07
-1.58094e-07
-1.58094e-07
-1.58094e-07
-1.58094e-07
-1.58094e-07
-1.58094e-07
-1.58094e-07
-1.58094e-07
-1.58094e-07
-1.58094e-07
-1.58094e-07
-1.58094e-07
-1.58094e-07
-1.58094e-07
-1.58094e-07
-1.58094e-07
-1.58094e-07
-1.58094e-07
-1.58094e-07
-1.58094e-07
-1.58094e-07
-1.58094e-07
-1.58094e-07
-1.58094e-07
-1.58094e-07
-1.58094e-07
-1.58094e-07
-1.58094e-07
-1.58094e-07
-1.58094e-07
-1.58094e-07
-1.58094e-07
-1.58094e-07
-1.58094e-07
-1.58094e-07
-1.58094e-07
-1.58094e-07
-1.58094e-07
-1.58094e-07
-1.58094e-07
-1.58094e-07
-1.58094e-07
-1.58077e-07
-1.57369e-07
-1.3244e-07
)
;

boundaryField
{
    inandouthalf11
    {
        type            cyclic;
        value           nonuniform List<scalar> 
100
(
1.12356e-38
7.22078e-14
1.71771e-13
2.62117e-13
3.46415e-13
4.30657e-13
5.17169e-13
6.06175e-13
6.96863e-13
7.88317e-13
8.80114e-13
9.72205e-13
1.06452e-12
1.15674e-12
1.24835e-12
1.33888e-12
1.42822e-12
1.51677e-12
1.60567e-12
1.6969e-12
1.79341e-12
1.89922e-12
2.0191e-12
2.15717e-12
2.31316e-12
2.47656e-12
2.62446e-12
2.73269e-12
2.79407e-12
2.82116e-12
2.8311e-12
2.83455e-12
2.83587e-12
2.83649e-12
2.83688e-12
2.83719e-12
2.83751e-12
2.83786e-12
2.83829e-12
2.83881e-12
2.83941e-12
2.84009e-12
2.84083e-12
2.84159e-12
2.84238e-12
2.84318e-12
2.84398e-12
2.8448e-12
2.84563e-12
2.84648e-12
2.84736e-12
2.84828e-12
2.84925e-12
2.85026e-12
2.85132e-12
2.85244e-12
2.85362e-12
2.85486e-12
2.85616e-12
2.85752e-12
2.85894e-12
2.86043e-12
2.86196e-12
2.86355e-12
2.86519e-12
2.86686e-12
2.86858e-12
2.87034e-12
2.87214e-12
2.87401e-12
2.87594e-12
2.87796e-12
2.88007e-12
2.88227e-12
2.88458e-12
2.887e-12
2.88951e-12
2.89212e-12
2.89482e-12
2.89759e-12
2.90045e-12
2.90338e-12
2.9064e-12
2.90951e-12
2.91271e-12
2.916e-12
2.91939e-12
2.92289e-12
2.92647e-12
2.93015e-12
2.93392e-12
2.93776e-12
2.94168e-12
2.94568e-12
2.94975e-12
2.95389e-12
2.95811e-12
2.9624e-12
2.96676e-12
2.97119e-12
)
;
    }
    inandouthalf12
    {
        type            cyclic;
        value           nonuniform List<scalar> 
100
(
-1.12356e-38
-7.22078e-14
-1.71771e-13
-2.62117e-13
-3.46415e-13
-4.30657e-13
-5.17169e-13
-6.06175e-13
-6.96863e-13
-7.88317e-13
-8.80114e-13
-9.72205e-13
-1.06452e-12
-1.15674e-12
-1.24835e-12
-1.33888e-12
-1.42822e-12
-1.51677e-12
-1.60567e-12
-1.6969e-12
-1.79341e-12
-1.89922e-12
-2.0191e-12
-2.15717e-12
-2.31316e-12
-2.47656e-12
-2.62446e-12
-2.73269e-12
-2.79407e-12
-2.82116e-12
-2.8311e-12
-2.83455e-12
-2.83587e-12
-2.83649e-12
-2.83688e-12
-2.83719e-12
-2.83751e-12
-2.83786e-12
-2.83829e-12
-2.83881e-12
-2.83941e-12
-2.84009e-12
-2.84083e-12
-2.84159e-12
-2.84238e-12
-2.84318e-12
-2.84398e-12
-2.8448e-12
-2.84563e-12
-2.84648e-12
-2.84736e-12
-2.84828e-12
-2.84925e-12
-2.85026e-12
-2.85132e-12
-2.85244e-12
-2.85362e-12
-2.85486e-12
-2.85616e-12
-2.85752e-12
-2.85894e-12
-2.86043e-12
-2.86196e-12
-2.86355e-12
-2.86519e-12
-2.86686e-12
-2.86858e-12
-2.87034e-12
-2.87214e-12
-2.87401e-12
-2.87594e-12
-2.87796e-12
-2.88007e-12
-2.88227e-12
-2.88458e-12
-2.887e-12
-2.88951e-12
-2.89212e-12
-2.89482e-12
-2.89759e-12
-2.90045e-12
-2.90338e-12
-2.9064e-12
-2.90951e-12
-2.91271e-12
-2.916e-12
-2.91939e-12
-2.92289e-12
-2.92647e-12
-2.93015e-12
-2.93392e-12
-2.93776e-12
-2.94168e-12
-2.94568e-12
-2.94975e-12
-2.95389e-12
-2.95811e-12
-2.9624e-12
-2.96676e-12
-2.97119e-12
)
;
    }
    inandouthalf21
    {
        type            cyclic;
        value           nonuniform List<scalar> 
100
(
2.97568e-12
2.98024e-12
2.98486e-12
2.98953e-12
2.99426e-12
2.99904e-12
3.00386e-12
3.00873e-12
3.01363e-12
3.01857e-12
3.02354e-12
3.02855e-12
3.03358e-12
3.03865e-12
3.04375e-12
3.0489e-12
3.0541e-12
3.05935e-12
3.06468e-12
3.0701e-12
3.07563e-12
3.08127e-12
3.08704e-12
3.09296e-12
3.09903e-12
3.10524e-12
3.11158e-12
3.11802e-12
3.12453e-12
3.13106e-12
3.13754e-12
3.14393e-12
3.15017e-12
3.15623e-12
3.1621e-12
3.1678e-12
3.17331e-12
3.17862e-12
3.18372e-12
3.18851e-12
3.1927e-12
3.19585e-12
3.19782e-12
3.19885e-12
3.19935e-12
3.19967e-12
3.20017e-12
3.2738e-12
1.25277e-08
1.05752e-07
2.21692e-07
3.11417e-07
3.82607e-07
4.40632e-07
4.88627e-07
5.28545e-07
5.6167e-07
5.88898e-07
6.10931e-07
6.28419e-07
6.42058e-07
6.52594e-07
6.6075e-07
6.67113e-07
6.72105e-07
6.76026e-07
6.7909e-07
6.8146e-07
6.8326e-07
6.84587e-07
6.8552e-07
6.86123e-07
6.86449e-07
6.86542e-07
6.86438e-07
6.8617e-07
6.85766e-07
6.85249e-07
6.8464e-07
6.83958e-07
6.83219e-07
6.82438e-07
6.81627e-07
6.80797e-07
6.79958e-07
6.79117e-07
6.78277e-07
6.77441e-07
6.76611e-07
6.7579e-07
6.74982e-07
6.7419e-07
6.73414e-07
6.72653e-07
6.71907e-07
6.71176e-07
6.70461e-07
6.69761e-07
6.69076e-07
6.68406e-07
)
;
    }
    inandouthalf22
    {
        type            cyclic;
        value           nonuniform List<scalar> 
100
(
-2.97568e-12
-2.98024e-12
-2.98486e-12
-2.98953e-12
-2.99426e-12
-2.99904e-12
-3.00386e-12
-3.00873e-12
-3.01363e-12
-3.01857e-12
-3.02354e-12
-3.02855e-12
-3.03358e-12
-3.03865e-12
-3.04375e-12
-3.0489e-12
-3.0541e-12
-3.05935e-12
-3.06468e-12
-3.0701e-12
-3.07563e-12
-3.08127e-12
-3.08704e-12
-3.09296e-12
-3.09903e-12
-3.10524e-12
-3.11158e-12
-3.11802e-12
-3.12453e-12
-3.13106e-12
-3.13754e-12
-3.14393e-12
-3.15017e-12
-3.15623e-12
-3.1621e-12
-3.1678e-12
-3.17331e-12
-3.17862e-12
-3.18372e-12
-3.18851e-12
-3.1927e-12
-3.19585e-12
-3.19782e-12
-3.19885e-12
-3.19935e-12
-3.19967e-12
-3.20017e-12
-3.2738e-12
-1.25277e-08
-1.05752e-07
-2.21692e-07
-3.11417e-07
-3.82607e-07
-4.40632e-07
-4.88627e-07
-5.28545e-07
-5.6167e-07
-5.88898e-07
-6.10931e-07
-6.28419e-07
-6.42058e-07
-6.52594e-07
-6.6075e-07
-6.67113e-07
-6.72105e-07
-6.76026e-07
-6.7909e-07
-6.8146e-07
-6.8326e-07
-6.84587e-07
-6.8552e-07
-6.86123e-07
-6.86449e-07
-6.86542e-07
-6.86438e-07
-6.8617e-07
-6.85766e-07
-6.85249e-07
-6.8464e-07
-6.83958e-07
-6.83219e-07
-6.82438e-07
-6.81627e-07
-6.80797e-07
-6.79958e-07
-6.79117e-07
-6.78277e-07
-6.77441e-07
-6.76611e-07
-6.7579e-07
-6.74982e-07
-6.7419e-07
-6.73414e-07
-6.72653e-07
-6.71907e-07
-6.71176e-07
-6.70461e-07
-6.69761e-07
-6.69076e-07
-6.68406e-07
)
;
    }
    inandouthalf31
    {
        type            cyclic;
        value           nonuniform List<scalar> 
110
(
6.67756e-07
6.80654e-07
6.938e-07
7.07198e-07
7.20858e-07
7.34782e-07
7.48967e-07
7.63413e-07
7.78135e-07
7.93137e-07
8.08408e-07
8.23955e-07
8.39792e-07
8.55911e-07
8.72312e-07
8.89014e-07
9.06007e-07
9.23276e-07
9.40849e-07
9.58739e-07
9.76909e-07
9.95365e-07
1.01414e-06
1.0332e-06
1.05257e-06
1.07224e-06
1.09219e-06
1.11246e-06
1.13306e-06
1.15392e-06
1.1751e-06
1.1966e-06
1.21845e-06
1.2409e-06
1.26411e-06
1.28816e-06
1.31305e-06
1.33809e-06
1.1808e-06
1.20475e-06
1.22919e-06
1.25413e-06
1.27957e-06
1.30553e-06
1.33203e-06
1.35906e-06
1.38664e-06
1.41478e-06
1.44349e-06
1.47279e-06
1.50268e-06
1.53318e-06
1.56429e-06
1.59604e-06
1.62844e-06
1.66149e-06
1.69521e-06
1.72962e-06
1.76473e-06
1.80054e-06
1.83709e-06
1.87438e-06
1.91242e-06
1.95124e-06
1.99084e-06
2.03125e-06
2.07248e-06
2.11455e-06
2.15747e-06
2.20126e-06
2.24594e-06
2.29152e-06
2.33804e-06
2.38549e-06
2.43391e-06
2.48331e-06
2.53372e-06
2.58515e-06
2.63762e-06
2.69115e-06
2.74578e-06
2.80151e-06
2.85837e-06
2.91639e-06
2.97558e-06
3.03598e-06
3.0976e-06
3.16048e-06
3.22462e-06
3.29008e-06
3.35686e-06
3.42499e-06
3.49451e-06
3.56544e-06
3.63781e-06
3.71165e-06
3.78698e-06
3.86385e-06
3.94227e-06
4.02229e-06
4.10393e-06
4.18723e-06
4.27222e-06
4.35894e-06
4.44741e-06
4.53768e-06
4.62978e-06
4.72376e-06
4.81964e-06
4.91746e-06
)
;
    }
    inandouthalf32
    {
        type            cyclic;
        value           nonuniform List<scalar> 
110
(
-6.67756e-07
-6.80654e-07
-6.938e-07
-7.07198e-07
-7.20858e-07
-7.34782e-07
-7.48967e-07
-7.63413e-07
-7.78135e-07
-7.93137e-07
-8.08408e-07
-8.23955e-07
-8.39792e-07
-8.55911e-07
-8.72312e-07
-8.89014e-07
-9.06007e-07
-9.23276e-07
-9.40849e-07
-9.58739e-07
-9.76909e-07
-9.95365e-07
-1.01414e-06
-1.0332e-06
-1.05257e-06
-1.07224e-06
-1.09219e-06
-1.11246e-06
-1.13306e-06
-1.15392e-06
-1.1751e-06
-1.1966e-06
-1.21845e-06
-1.2409e-06
-1.26411e-06
-1.28816e-06
-1.31305e-06
-1.33809e-06
-1.1808e-06
-1.20475e-06
-1.22919e-06
-1.25413e-06
-1.27957e-06
-1.30553e-06
-1.33203e-06
-1.35906e-06
-1.38664e-06
-1.41478e-06
-1.44349e-06
-1.47279e-06
-1.50268e-06
-1.53318e-06
-1.56429e-06
-1.59604e-06
-1.62844e-06
-1.66149e-06
-1.69521e-06
-1.72962e-06
-1.76473e-06
-1.80054e-06
-1.83709e-06
-1.87438e-06
-1.91242e-06
-1.95124e-06
-1.99084e-06
-2.03125e-06
-2.07248e-06
-2.11455e-06
-2.15747e-06
-2.20126e-06
-2.24594e-06
-2.29152e-06
-2.33804e-06
-2.38549e-06
-2.43391e-06
-2.48331e-06
-2.53372e-06
-2.58515e-06
-2.63762e-06
-2.69115e-06
-2.74578e-06
-2.80151e-06
-2.85837e-06
-2.91639e-06
-2.97558e-06
-3.03598e-06
-3.0976e-06
-3.16048e-06
-3.22462e-06
-3.29008e-06
-3.35686e-06
-3.42499e-06
-3.49451e-06
-3.56544e-06
-3.63781e-06
-3.71165e-06
-3.78698e-06
-3.86385e-06
-3.94227e-06
-4.02229e-06
-4.10393e-06
-4.18723e-06
-4.27222e-06
-4.35894e-06
-4.44741e-06
-4.53768e-06
-4.62978e-06
-4.72376e-06
-4.81964e-06
-4.91746e-06
)
;
    }
    inandouthalf41
    {
        type            cyclic;
        value           nonuniform List<scalar> 
50
(
4.40163e-06
4.40163e-06
4.40163e-06
4.40163e-06
4.40163e-06
4.40163e-06
4.40163e-06
4.40163e-06
4.40163e-06
4.40163e-06
4.40163e-06
4.40163e-06
4.40163e-06
4.40163e-06
4.40163e-06
4.40163e-06
4.40163e-06
4.40163e-06
4.40163e-06
4.40163e-06
4.40163e-06
4.40163e-06
4.40163e-06
4.40163e-06
4.40163e-06
4.40163e-06
4.40163e-06
4.40163e-06
4.40163e-06
4.40163e-06
4.40163e-06
4.40163e-06
4.40163e-06
4.40163e-06
4.40163e-06
4.40163e-06
4.40163e-06
4.40163e-06
4.40163e-06
4.40163e-06
4.40163e-06
4.40163e-06
4.40163e-06
4.40163e-06
4.40163e-06
4.40163e-06
4.40163e-06
4.40162e-06
4.40145e-06
4.39759e-06
)
;
    }
    inandouthalf42
    {
        type            cyclic;
        value           nonuniform List<scalar> 
50
(
-4.40163e-06
-4.40163e-06
-4.40163e-06
-4.40163e-06
-4.40163e-06
-4.40163e-06
-4.40163e-06
-4.40163e-06
-4.40163e-06
-4.40163e-06
-4.40163e-06
-4.40163e-06
-4.40163e-06
-4.40163e-06
-4.40163e-06
-4.40163e-06
-4.40163e-06
-4.40163e-06
-4.40163e-06
-4.40163e-06
-4.40163e-06
-4.40163e-06
-4.40163e-06
-4.40163e-06
-4.40163e-06
-4.40163e-06
-4.40163e-06
-4.40163e-06
-4.40163e-06
-4.40163e-06
-4.40163e-06
-4.40163e-06
-4.40163e-06
-4.40163e-06
-4.40163e-06
-4.40163e-06
-4.40163e-06
-4.40163e-06
-4.40163e-06
-4.40163e-06
-4.40163e-06
-4.40163e-06
-4.40163e-06
-4.40163e-06
-4.40163e-06
-4.40163e-06
-4.40163e-06
-4.40162e-06
-4.40145e-06
-4.39759e-06
)
;
    }
    top
    {
        type            symmetryPlane;
        value           uniform 0;
    }
    walls
    {
        type            fixedValue;
        value           uniform 0;
    }
    frontAndBackPlanes
    {
        type            empty;
        value           nonuniform 0();
    }
}


// ************************************************************************* //
