/*--------------------------------*- C++ -*----------------------------------*\
| =========                 |                                                 |
| \\      /  F ield         | OpenFOAM: The Open Source CFD Toolbox           |
|  \\    /   O peration     | Version:  2.4.x                                 |
|   \\  /    A nd           | Web:      www.OpenFOAM.org                      |
|    \\/     M anipulation  |                                                 |
\*---------------------------------------------------------------------------*/
FoamFile
{
    version     2.0;
    format      ascii;
    class       volVectorField;
    location    "3.75";
    object      susb;
}
// * * * * * * * * * * * * * * * * * * * * * * * * * * * * * * * * * * * * * //

dimensions      [0 1 -2 0 0 0 0];

internalField   nonuniform List<vector> 
360
(
(0 3.16596e-18 0)
(0 4.27981e-18 0)
(0 9.38659e-19 0)
(0 -4.86135e-19 0)
(-3.67806e-31 -5.61786e-19 0)
(-7.35438e-31 -4.67121e-19 0)
(-3.67638e-31 -4.36353e-19 0)
(0 -3.99398e-19 0)
(-7.3499e-31 -3.78064e-19 0)
(0 -3.93477e-19 0)
(-3.67354e-31 -4.14163e-19 0)
(0 -4.27039e-19 0)
(-3.67201e-31 -4.29048e-19 0)
(0 -4.21693e-19 0)
(0 -4.15293e-19 0)
(0 -4.11252e-19 0)
(0 -4.08192e-19 0)
(-7.3366e-31 -4.07185e-19 0)
(0 -4.15918e-19 0)
(0 -4.30742e-19 0)
(0 -4.61516e-19 0)
(-3.66516e-31 -5.16831e-19 0)
(0 -5.88354e-19 0)
(0 -6.69008e-19 0)
(0 -7.26492e-19 0)
(-3.66046e-31 -7.13031e-19 0)
(0 -6.06742e-19 0)
(0 -4.31164e-19 0)
(0 -2.52793e-19 0)
(0 -1.31849e-19 0)
(0 -7.80895e-20 0)
(0 -5.4414e-20 0)
(0 -5.29495e-20 0)
(0 -5.66931e-20 0)
(0 -5.56157e-20 0)
(3.65672e-31 -6.15781e-20 0)
(0 -6.76693e-20 0)
(0 -8.02485e-20 0)
(0 -7.99269e-20 0)
(0 -8.6463e-20 0)
(0 -9.91521e-20 0)
(0 -9.85663e-20 0)
(3.65566e-31 -1.10857e-19 0)
(0 -1.22675e-19 0)
(0 -1.27944e-19 0)
(0 -1.3956e-19 0)
(0 -1.44189e-19 0)
(0 -1.54803e-19 0)
(0 -1.77501e-19 0)
(0 -1.86894e-19 0)
(3.65349e-31 -1.96375e-19 0)
(0 -2.1189e-19 0)
(0 -2.26352e-19 0)
(0 -2.39719e-19 0)
(0 -2.57975e-19 0)
(0 -2.7464e-19 0)
(0 -2.89713e-19 0)
(0 -3.0896e-19 0)
(0 -3.19538e-19 0)
(0 -3.38981e-19 0)
(0 -3.54274e-19 0)
(0 -3.64989e-19 0)
(0 -3.77085e-19 0)
(0 -3.84551e-19 0)
(0 -3.93746e-19 0)
(0 -4.05058e-19 0)
(0 -4.197e-19 0)
(0 -4.33594e-19 0)
(0 -4.467e-19 0)
(0 -4.66107e-19 0)
(0 -4.8856e-19 0)
(0 -5.00494e-19 0)
(0 -5.15261e-19 0)
(0 -5.32213e-19 0)
(0 -5.45552e-19 0)
(0 -5.56656e-19 0)
(0 -5.65586e-19 0)
(0 -5.78715e-19 0)
(0 -5.92652e-19 0)
(0 -6.05957e-19 0)
(0 -6.21034e-19 0)
(0 -6.38546e-19 0)
(0 -6.55329e-19 0)
(0 -6.71985e-19 0)
(0 -6.88199e-19 0)
(0 -7.03945e-19 0)
(0 -7.18956e-19 0)
(0 -7.3321e-19 0)
(0 -7.48291e-19 0)
(0 -7.64009e-19 0)
(0 -7.80191e-19 0)
(0 -7.97549e-19 0)
(0 -8.15922e-19 0)
(0 -8.34714e-19 0)
(0 -8.53966e-19 0)
(0 -8.73592e-19 0)
(0 -8.93491e-19 0)
(0 -9.1374e-19 0)
(0 -9.34533e-19 0)
(0 -9.55959e-19 0)
(0 -9.78088e-19 0)
(0 -1.00105e-18 0)
(0 -1.02487e-18 0)
(0 -1.04953e-18 0)
(0 -1.07508e-18 0)
(0 -1.10159e-18 0)
(0 -1.12912e-18 0)
(0 -1.15773e-18 0)
(0 -1.18753e-18 0)
(0 -1.21858e-18 0)
(0 -1.25094e-18 0)
(0 -1.28469e-18 0)
(0 -1.3199e-18 0)
(0 -1.35663e-18 0)
(0 -1.39497e-18 0)
(0 -1.435e-18 0)
(0 -1.4768e-18 0)
(0 -1.52048e-18 0)
(0 -1.56615e-18 0)
(0 -1.61392e-18 0)
(0 -1.66388e-18 0)
(0 -1.71611e-18 0)
(0 -1.77071e-18 0)
(0 -1.82782e-18 0)
(0 -1.88785e-18 0)
(0 -1.95156e-18 0)
(0 -2.02011e-18 0)
(0 -2.09454e-18 0)
(0 -2.17499e-18 0)
(0 -4.11736e-18 0)
(0 -1.0819e-17 0)
(0 -2.70235e-17 0)
(0 -6.27475e-17 0)
(0 -1.3452e-16 0)
(0 -2.6118e-16 0)
(0 -4.42087e-16 0)
(0 -6.02011e-16 0)
(0 -5.14007e-16 0)
(0 -3.55321e-16 0)
(0 -2.56168e-15 0)
(0 -3.3308e-14 0)
(0 -5.14732e-13 0)
(0 -1.054e-11 0)
(0 -2.49435e-10 0)
(0 -7.99964e-09 0)
(0 -4.51001e-07 0)
(0 -1.4051e-05 0)
(0 -0.00946293 0)
(0 -0.947456 0)
(0 -2.52392 0)
(0 -1.28522 0)
(0 -0.809159 0)
(0 -0.632598 0)
(0 -0.508402 0)
(0 -0.400897 0)
(0 -0.307861 0)
(0 -0.230768 0)
(0 -0.169567 0)
(0 -0.122746 0)
(0 -0.0879085 0)
(0 -0.0620874 0)
(0 -0.0426585 0)
(0 -0.0284466 0)
(0 -0.0190522 0)
(0 -0.0134213 0)
(0 -0.0100795 0)
(0 -0.00796916 0)
(0 -0.00653552 0)
(0 -0.00549957 0)
(0 -0.00471339 0)
(0 -0.00409391 0)
(0 -0.00359194 0)
(0 -0.00317686 0)
(0 -0.00282879 0)
(0 -0.00253445 0)
(0 -0.00228477 0)
(0 -0.0020735 0)
(0 -0.00189635 0)
(0 -0.00175033 0)
(0 -0.00163323 0)
(0 -0.00154288 0)
(0 -0.00147617 0)
(0 -0.00142742 0)
(0 -0.00138626 0)
(0 -0.00133569 0)
(0 -0.00125299 0)
(0 -0.00111729 0)
(0 -0.000925202 0)
(0 -0.000704922 0)
(0 -0.00050889 0)
(0 -0.000378073 0)
(0 -0.000308861 0)
(0 -0.00026404 0)
(0 -0.000217056 0)
(0 -0.000172004 0)
(0 -0.000140178 0)
(0 -0.000118828 0)
(0 -0.000100819 0)
(0 -8.55841e-05 0)
(0 -7.44473e-05 0)
(0 -6.80626e-05 0)
(0 -6.38222e-05 0)
(-1.89387e-20 -5.62006e-05 0)
(0 -4.58725e-05 0)
(0 -4.06406e-05 0)
(9.52656e-21 -4.08198e-05 0)
(0 -3.6879e-05 0)
(-9.44349e-21 -2.78733e-05 0)
(0 -2.41805e-05 0)
(9.26473e-21 -2.49064e-05 0)
(0 -2.09111e-05 0)
(0 -1.60343e-05 0)
(0 -1.52155e-05 0)
(4.30527e-21 -1.34808e-05 0)
(0 -1.01906e-05 0)
(0 -9.38468e-06 0)
(0 -8.8669e-06 0)
(0 -6.31682e-06 0)
(0 -4.91723e-06 0)
(-1.71324e-21 -5.08583e-06 0)
(0 -4.01263e-06 0)
(-7.56132e-22 -2.80232e-06 0)
(0 -2.51093e-06 0)
(-6.41784e-22 -1.9149e-06 0)
(0 -1.43514e-06 0)
(0 -1.21701e-06 0)
(0 -7.80335e-07 0)
(0 -5.44996e-07 0)
(1.48559e-22 -4.42867e-07 0)
(1.09557e-22 -2.35379e-07 0)
(0 -1.25216e-07 0)
(0 -4.06157e-08 0)
(0 -1.86262e-09 0)
(0 -1.98041e-11 0)
(0 -2.92987e-13 0)
(0 -6.71992e-15 0)
(0 -1.26065e-16 0)
(0 -1.1544e-18 0)
(0 -2.83252e-21 0)
(0 -5.52593e-25 0)
(0 -1.60362e-29 0)
(0 -1.82002e-31 0)
(0 -1.40492e-31 0)
(-2.92161e-47 -5.63073e-32 0)
(2.86349e-47 -2.49866e-32 0)
(0 -2.45016e-32 0)
(0 -3.86065e-32 0)
(-2.69597e-47 -5.73235e-32 0)
(0 -5.90723e-32 0)
(0 -3.53128e-32 0)
(-6.34564e-48 -1.34983e-32 0)
(0 -6.39261e-33 0)
(0 -5.11493e-33 0)
(0 -7.49292e-33 0)
(0 -1.09787e-32 0)
(0 -1.00548e-32 0)
(0 -5.09934e-33 0)
(0 -1.95442e-33 0)
(0 -1.0814e-33 0)
(0 -1.17197e-33 0)
(0 -1.8193e-33 0)
(0 -2.11345e-33 0)
(0 -1.38573e-33 0)
(0 -5.43923e-34 0)
(0 -2.69499e-34 0)
(0 -2.4594e-34 0)
(7.18898e-50 -2.72428e-34 0)
(0 -1.70928e-34 0)
(0 -5.33871e-35 0)
(0 -1.86881e-35 0)
(0 -8.03539e-36 0)
(0 -3.87065e-36 0)
(0 -1.96327e-36 0)
(0 -1.0448e-36 0)
(0 -5.69412e-37 0)
(0 -2.97752e-37 0)
(0 -1.48709e-37 0)
(0 -7.45962e-38 0)
(0 -3.72682e-38 0)
(0 -1.82462e-38 0)
(0 -8.75733e-39 0)
(0 -4.10724e-39 0)
(0 -1.87926e-39 0)
(0 -8.37508e-40 0)
(0 -3.62977e-40 0)
(0 -1.52744e-40 0)
(1.14676e-56 -6.23071e-41 0)
(0 -2.45954e-41 0)
(0 -9.3784e-42 0)
(0 -3.44765e-42 0)
(0 -1.21937e-42 0)
(0 -4.13982e-43 0)
(0 -1.34582e-43 0)
(0 -4.17793e-44 0)
(0 -1.23478e-44 0)
(0 -3.46255e-45 0)
(0 -9.17727e-46 0)
(0 -2.289e-46 0)
(0 -5.34577e-47 0)
(-1.05277e-63 -1.16217e-47 0)
(0 -2.33582e-48 0)
(0 -4.30458e-49 0)
(0 -7.20083e-50 0)
(0 -1.07979e-50 0)
(0 -1.42821e-51 0)
(0 -1.63078e-52 0)
(0 -1.55966e-53 0)
(0 -1.19367e-54 0)
(0 -6.76825e-56 0)
(0 -2.42347e-57 0)
(0 -3.26495e-59 0)
(0 -8.99501e-62 0)
(0 -1.57551e-63 0)
(0 -1.36864e-65 0)
(0 -2.03584e-76 0)
(0 -1.5334e-87 0)
(0 -8.77527e-99 0)
(0 -3.64287e-110 0)
(0 -1.35814e-121 0)
(0 -4.28994e-133 0)
(0 -1.7651e-144 0)
(0 -1.53089e-152 0)
(0 -3.57471e-163 0)
(0 -5.27095e-171 0)
(0 -1.17137e-181 0)
(0 -1.81325e-189 0)
(0 -5.01942e-200 0)
(0 -6.23618e-208 0)
(0 -2.26687e-218 0)
(0 -2.14638e-226 0)
(0 -1.55792e-236 0)
(0 -7.45164e-245 0)
(0 -1.0441e-254 0)
(0 -2.62263e-263 0)
(0 -5.28902e-273 0)
(0 -9.35533e-282 0)
(0 -2.50552e-291 0)
(0 -3.38207e-300 0)
(0 -1.10559e-309 0)
(0 -1.24076e-318 0)
(0 -0 0)
(0 0 0)
(0 0 0)
(0 0 0)
(0 0 0)
(0 0 0)
(0 0 0)
(0 0 0)
(0 0 0)
(0 0 0)
(0 0 0)
(0 0 0)
(0 0 0)
(0 0 0)
(0 0 0)
(0 0 0)
(0 0 0)
(0 0 0)
(0 0 0)
(0 0 0)
)
;

boundaryField
{
    inandouthalf11
    {
        type            cyclic;
    }
    inandouthalf12
    {
        type            cyclic;
    }
    inandouthalf21
    {
        type            cyclic;
    }
    inandouthalf22
    {
        type            cyclic;
    }
    inandouthalf31
    {
        type            cyclic;
    }
    inandouthalf32
    {
        type            cyclic;
    }
    inandouthalf41
    {
        type            cyclic;
    }
    inandouthalf42
    {
        type            cyclic;
    }
    top
    {
        type            symmetryPlane;
    }
    walls
    {
        type            zeroGradient;
    }
    frontAndBackPlanes
    {
        type            empty;
    }
}


// ************************************************************************* //
