/*--------------------------------*- C++ -*----------------------------------*\
| =========                 |                                                 |
| \\      /  F ield         | OpenFOAM: The Open Source CFD Toolbox           |
|  \\    /   O peration     | Version:  2.4.x                                 |
|   \\  /    A nd           | Web:      www.OpenFOAM.org                      |
|    \\/     M anipulation  |                                                 |
\*---------------------------------------------------------------------------*/
FoamFile
{
    version     2.0;
    format      ascii;
    class       volTensorField;
    location    "3.75";
    object      Tauf;
}
// * * * * * * * * * * * * * * * * * * * * * * * * * * * * * * * * * * * * * //

dimensions      [0 2 -2 0 0 0 0];

internalField   nonuniform List<tensor> 
360
(
(0 -3.12742e-07 0 -3.12742e-07 1.39842e-09 0 0 0 0)
(0 3.71563e-10 0 3.71563e-10 2.02871e-09 0 0 0 0)
(0 -1.24924e-11 0 -1.24924e-11 2.2488e-09 0 0 0 0)
(0 -2.66211e-10 0 -2.66211e-10 2.09619e-09 0 0 0 0)
(2.58494e-23 -2.74647e-10 0 -2.74647e-10 2.01509e-09 0 0 0 0)
(2.58494e-23 -2.5906e-10 0 -2.5906e-10 2.03021e-09 0 0 0 0)
(2.58494e-23 -2.58029e-10 0 -2.58029e-10 2.08521e-09 0 0 0 0)
(0 -2.55247e-10 0 -2.55247e-10 2.13608e-09 0 0 0 0)
(2.58494e-23 -2.53685e-10 0 -2.53685e-10 2.16685e-09 0 0 0 0)
(0 -2.57732e-10 0 -2.57732e-10 2.18241e-09 0 0 0 0)
(2.58494e-23 -2.62313e-10 0 -2.62313e-10 2.19232e-09 0 0 0 0)
(0 -2.65299e-10 0 -2.65299e-10 2.20034e-09 0 0 0 0)
(2.58494e-23 -2.6584e-10 0 -2.6584e-10 2.20375e-09 0 0 0 0)
(0 -2.63769e-10 0 -2.63769e-10 2.19743e-09 0 0 0 0)
(0 -2.60898e-10 0 -2.60898e-10 2.17987e-09 0 0 0 0)
(0 -2.57893e-10 0 -2.57893e-10 2.15575e-09 0 0 0 0)
(0 -2.55366e-10 0 -2.55366e-10 2.1354e-09 0 0 0 0)
(2.58494e-23 -2.54773e-10 0 -2.54773e-10 2.13376e-09 0 0 0 0)
(0 -2.59145e-10 0 -2.59145e-10 2.1703e-09 0 0 0 0)
(0 -2.69626e-10 0 -2.69626e-10 2.26764e-09 0 0 0 0)
(0 -2.90106e-10 0 -2.90106e-10 2.45069e-09 0 0 0 0)
(5.16988e-23 -3.24049e-10 0 -3.24049e-10 2.74123e-09 0 0 0 0)
(0 -3.69986e-10 0 -3.69986e-10 3.13623e-09 0 0 0 0)
(0 -4.21494e-10 0 -4.21494e-10 3.56697e-09 0 0 0 0)
(0 -4.57769e-10 0 -4.57769e-10 3.85814e-09 0 0 0 0)
(2.58494e-23 -4.47099e-10 0 -4.47099e-10 3.76515e-09 0 0 0 0)
(0 -3.71672e-10 0 -3.71672e-10 3.15351e-09 0 0 0 0)
(0 -2.51713e-10 0 -2.51713e-10 2.18119e-09 0 0 0 0)
(0 -1.36621e-10 0 -1.36621e-10 1.21994e-09 0 0 0 0)
(0 -6.21681e-11 0 -6.21681e-11 5.53459e-10 0 0 0 0)
(0 -2.83011e-11 0 -2.83011e-11 2.11783e-10 0 0 0 0)
(0 -1.51654e-11 0 -1.51654e-11 7.43137e-11 0 0 0 0)
(0 -1.20615e-11 0 -1.20615e-11 2.73008e-11 0 0 0 0)
(0 -1.18497e-11 0 -1.18497e-11 1.20371e-11 0 0 0 0)
(0 -1.13379e-11 0 -1.13379e-11 6.83471e-12 0 0 0 0)
(-5.16988e-23 -1.24041e-11 0 -1.24041e-11 5.3096e-12 0 0 0 0)
(0 -1.36137e-11 0 -1.36137e-11 5.0369e-12 0 0 0 0)
(0 -1.61335e-11 0 -1.61335e-11 5.77323e-12 0 0 0 0)
(0 -1.62371e-11 0 -1.62371e-11 6.53316e-12 0 0 0 0)
(0 -1.76652e-11 0 -1.76652e-11 7.55392e-12 0 0 0 0)
(0 -2.02549e-11 0 -2.02549e-11 8.59448e-12 0 0 0 0)
(0 -2.02785e-11 0 -2.02785e-11 8.90027e-12 0 0 0 0)
(-5.16988e-23 -2.27188e-11 0 -2.27188e-11 9.22394e-12 0 0 0 0)
(0 -2.50345e-11 0 -2.50345e-11 9.16693e-12 0 0 0 0)
(0 -2.60766e-11 0 -2.60766e-11 8.76722e-12 0 0 0 0)
(0 -2.83187e-11 0 -2.83187e-11 8.56814e-12 0 0 0 0)
(0 -2.92281e-11 0 -2.92281e-11 8.10488e-12 0 0 0 0)
(0 -3.12916e-11 0 -3.12916e-11 7.68329e-12 0 0 0 0)
(0 -3.56795e-11 0 -3.56795e-11 7.6005e-12 0 0 0 0)
(0 -3.75424e-11 0 -3.75424e-11 7.28707e-12 0 0 0 0)
(-2.58494e-23 -3.94356e-11 0 -3.94356e-11 7.17376e-12 0 0 0 0)
(0 -4.24962e-11 0 -4.24962e-11 7.21051e-12 0 0 0 0)
(0 -4.53685e-11 0 -4.53685e-11 7.21687e-12 0 0 0 0)
(0 -4.80424e-11 0 -4.80424e-11 7.19669e-12 0 0 0 0)
(0 -5.16618e-11 0 -5.16618e-11 7.30808e-12 0 0 0 0)
(0 -5.49863e-11 0 -5.49863e-11 7.38155e-12 0 0 0 0)
(0 -5.80141e-11 0 -5.80141e-11 7.41778e-12 0 0 0 0)
(0 -6.18465e-11 0 -6.18465e-11 7.67251e-12 0 0 0 0)
(0 -6.40239e-11 0 -6.40239e-11 7.62961e-12 0 0 0 0)
(0 -6.79012e-11 0 -6.79012e-11 7.87181e-12 0 0 0 0)
(0 -7.09843e-11 0 -7.09843e-11 7.98272e-12 0 0 0 0)
(0 -7.31856e-11 0 -7.31856e-11 8.05001e-12 0 0 0 0)
(0 -7.56437e-11 0 -7.56437e-11 8.22518e-12 0 0 0 0)
(0 -7.72051e-11 0 -7.72051e-11 8.24421e-12 0 0 0 0)
(0 -7.90906e-11 0 -7.90906e-11 8.27052e-12 0 0 0 0)
(0 -8.13813e-11 0 -8.13813e-11 8.2132e-12 0 0 0 0)
(0 -8.43174e-11 0 -8.43174e-11 8.1771e-12 0 0 0 0)
(0 -8.71226e-11 0 -8.71226e-11 8.1341e-12 0 0 0 0)
(0 -8.97952e-11 0 -8.97952e-11 8.06316e-12 0 0 0 0)
(0 -9.3706e-11 0 -9.3706e-11 8.11617e-12 0 0 0 0)
(0 -9.82325e-11 0 -9.82325e-11 8.37715e-12 0 0 0 0)
(0 -1.00761e-10 0 -1.00761e-10 8.52995e-12 0 0 0 0)
(0 -1.03856e-10 0 -1.03856e-10 8.91461e-12 0 0 0 0)
(0 -1.07388e-10 0 -1.07388e-10 9.37998e-12 0 0 0 0)
(0 -1.10233e-10 0 -1.10233e-10 9.81823e-12 0 0 0 0)
(0 -1.12646e-10 0 -1.12646e-10 1.02968e-11 0 0 0 0)
(0 -1.14632e-10 0 -1.14632e-10 1.06633e-11 0 0 0 0)
(0 -1.1742e-10 0 -1.1742e-10 1.10287e-11 0 0 0 0)
(0 -1.20358e-10 0 -1.20358e-10 1.12887e-11 0 0 0 0)
(0 -1.23171e-10 0 -1.23171e-10 1.14608e-11 0 0 0 0)
(0 -1.2633e-10 0 -1.2633e-10 1.16067e-11 0 0 0 0)
(0 -1.29972e-10 0 -1.29972e-10 1.17726e-11 0 0 0 0)
(0 -1.33488e-10 0 -1.33488e-10 1.19234e-11 0 0 0 0)
(0 -1.36996e-10 0 -1.36996e-10 1.21267e-11 0 0 0 0)
(0 -1.40434e-10 0 -1.40434e-10 1.23652e-11 0 0 0 0)
(0 -1.43793e-10 0 -1.43793e-10 1.26333e-11 0 0 0 0)
(0 -1.47017e-10 0 -1.47017e-10 1.2909e-11 0 0 0 0)
(0 -1.50097e-10 0 -1.50097e-10 1.31501e-11 0 0 0 0)
(0 -1.53337e-10 0 -1.53337e-10 1.33616e-11 0 0 0 0)
(0 -1.56698e-10 0 -1.56698e-10 1.35127e-11 0 0 0 0)
(0 -1.60148e-10 0 -1.60148e-10 1.35935e-11 0 0 0 0)
(0 -1.63828e-10 0 -1.63828e-10 1.36237e-11 0 0 0 0)
(0 -1.6771e-10 0 -1.6771e-10 1.36099e-11 0 0 0 0)
(0 -1.7168e-10 0 -1.7168e-10 1.35569e-11 0 0 0 0)
(0 -1.75748e-10 0 -1.75748e-10 1.34819e-11 0 0 0 0)
(0 -1.79899e-10 0 -1.79899e-10 1.33873e-11 0 0 0 0)
(0 -1.84113e-10 0 -1.84113e-10 1.32708e-11 0 0 0 0)
(0 -1.88405e-10 0 -1.88405e-10 1.31284e-11 0 0 0 0)
(0 -1.92812e-10 0 -1.92812e-10 1.2955e-11 0 0 0 0)
(0 -1.97352e-10 0 -1.97352e-10 1.27434e-11 0 0 0 0)
(0 -2.02038e-10 0 -2.02038e-10 1.24874e-11 0 0 0 0)
(0 -2.06897e-10 0 -2.06897e-10 1.21845e-11 0 0 0 0)
(0 -2.11933e-10 0 -2.11933e-10 1.18311e-11 0 0 0 0)
(0 -2.17144e-10 0 -2.17144e-10 1.14242e-11 0 0 0 0)
(0 -2.22542e-10 0 -2.22542e-10 1.09624e-11 0 0 0 0)
(0 -2.2814e-10 0 -2.2814e-10 1.04436e-11 0 0 0 0)
(0 -2.33949e-10 0 -2.33949e-10 9.86583e-12 0 0 0 0)
(0 -2.3999e-10 0 -2.3999e-10 9.22867e-12 0 0 0 0)
(0 -2.46279e-10 0 -2.46279e-10 8.53272e-12 0 0 0 0)
(0 -2.52835e-10 0 -2.52835e-10 7.78006e-12 0 0 0 0)
(0 -2.59674e-10 0 -2.59674e-10 6.97462e-12 0 0 0 0)
(0 -2.66816e-10 0 -2.66816e-10 6.12196e-12 0 0 0 0)
(0 -2.74278e-10 0 -2.74278e-10 5.2292e-12 0 0 0 0)
(0 -2.82082e-10 0 -2.82082e-10 4.30491e-12 0 0 0 0)
(0 -2.9025e-10 0 -2.9025e-10 3.35866e-12 0 0 0 0)
(0 -2.98806e-10 0 -2.98806e-10 2.40043e-12 0 0 0 0)
(0 -3.07776e-10 0 -3.07776e-10 1.43978e-12 0 0 0 0)
(0 -3.17188e-10 0 -3.17188e-10 4.84685e-13 0 0 0 0)
(0 -3.27072e-10 0 -3.27072e-10 -4.60039e-13 0 0 0 0)
(0 -3.37459e-10 0 -3.37459e-10 -1.39465e-12 0 0 0 0)
(0 -3.48374e-10 0 -3.48374e-10 -2.3267e-12 0 0 0 0)
(0 -3.59837e-10 0 -3.59837e-10 -3.27368e-12 0 0 0 0)
(0 -3.71862e-10 0 -3.71862e-10 -4.26585e-12 0 0 0 0)
(0 -3.84479e-10 0 -3.84479e-10 -5.34853e-12 0 0 0 0)
(0 -3.9776e-10 0 -3.9776e-10 -6.58246e-12 0 0 0 0)
(0 -4.11854e-10 0 -4.11854e-10 -8.04033e-12 0 0 0 0)
(0 -4.26983e-10 0 -4.26983e-10 -9.79753e-12 0 0 0 0)
(0 -4.43354e-10 0 -4.43354e-10 -1.19179e-11 0 0 0 0)
(0 -4.60986e-10 0 -4.60986e-10 -1.44434e-11 0 0 0 0)
(0 -4.7959e-10 0 -4.7959e-10 -1.74061e-11 0 0 0 0)
(0 -4.98909e-10 0 -4.98909e-10 -2.0871e-11 0 0 0 0)
(0 -5.19775e-10 0 -5.19775e-10 -2.49388e-11 0 0 0 0)
(0 -5.44809e-10 0 -5.44809e-10 -2.95929e-11 0 0 0 0)
(0 -5.7601e-10 0 -5.7601e-10 -3.45729e-11 0 0 0 0)
(0 -6.10444e-10 0 -6.10444e-10 -3.97081e-11 0 0 0 0)
(0 -6.4311e-10 0 -6.4311e-10 -4.53743e-11 0 0 0 0)
(0 -6.78457e-10 0 -6.78457e-10 -5.24578e-11 0 0 0 0)
(0 -7.35427e-10 0 -7.35427e-10 -6.15187e-11 0 0 0 0)
(0 -8.29349e-10 0 -8.29349e-10 -7.05049e-11 0 0 0 0)
(0 -9.24501e-10 0 -9.24501e-10 -7.63464e-11 0 0 0 0)
(0 -9.39005e-10 0 -9.39005e-10 -9.05757e-11 0 0 0 0)
(0 -9.99876e-10 0 -9.99876e-10 -1.10631e-10 0 0 0 0)
(0 -1.24658e-09 0 -1.24658e-09 -1.29495e-10 0 0 0 0)
(0 -1.56967e-09 0 -1.56967e-09 -1.8846e-10 0 0 0 0)
(0 -2.31649e-09 0 -2.31649e-09 -1.44611e-10 0 0 0 0)
(0 -5.16688e-09 0 -5.16688e-09 -6.59536e-09 0 0 0 0)
(0 -2.42635e-08 0 -2.42635e-08 3.74196e-08 0 0 0 0)
(0 -1.38512e-05 0 -1.38512e-05 -1.63228e-07 0 0 0 0)
(0 -0.000198906 0 -0.000198906 -3.08202e-06 0 0 0 0)
(0 -0.00164449 0 -0.00164449 -8.44739e-06 0 0 0 0)
(0 -0.00298893 0 -0.00298893 1.00198e-05 0 0 0 0)
(0 -0.00307039 0 -0.00307039 7.68285e-06 0 0 0 0)
(0 -0.00296317 0 -0.00296317 8.88983e-06 0 0 0 0)
(0 -0.00276034 0 -0.00276034 8.81888e-06 0 0 0 0)
(0 -0.00251862 0 -0.00251862 8.29804e-06 0 0 0 0)
(0 -0.00226499 0 -0.00226499 7.35601e-06 0 0 0 0)
(0 -0.00201193 0 -0.00201193 6.18742e-06 0 0 0 0)
(0 -0.00176556 0 -0.00176556 4.98313e-06 0 0 0 0)
(0 -0.00152974 0 -0.00152974 3.87948e-06 0 0 0 0)
(0 -0.00130806 0 -0.00130806 2.93659e-06 0 0 0 0)
(0 -0.00110431 0 -0.00110431 2.14492e-06 0 0 0 0)
(0 -0.000921511 0 -0.000921511 1.47842e-06 0 0 0 0)
(0 -0.000760747 0 -0.000760747 9.46965e-07 0 0 0 0)
(0 -0.000620716 0 -0.000620716 5.76292e-07 0 0 0 0)
(0 -0.00049858 0 -0.00049858 3.52826e-07 0 0 0 0)
(0 -0.000391106 0 -0.000391106 2.25375e-07 0 0 0 0)
(0 -0.000295366 0 -0.000295366 1.47387e-07 0 0 0 0)
(0 -0.000208971 0 -0.000208971 9.44502e-08 0 0 0 0)
(0 -0.000130056 0 -0.000130056 5.67212e-08 0 0 0 0)
(0 -5.72188e-05 0 -5.72188e-05 2.95141e-08 0 0 0 0)
(0 1.05809e-05 0 1.05809e-05 9.66386e-09 0 0 0 0)
(0 7.41049e-05 0 7.41049e-05 -4.88806e-09 0 0 0 0)
(0 0.000133906 0 0.000133906 -1.54955e-08 0 0 0 0)
(0 0.000190389 0 0.000190389 -2.31039e-08 0 0 0 0)
(0 0.000243854 0 0.000243854 -2.84112e-08 0 0 0 0)
(0 0.000294525 0 0.000294525 -3.19468e-08 0 0 0 0)
(0 0.000342574 0 0.000342574 -3.41155e-08 0 0 0 0)
(0 0.000388135 0 0.000388135 -3.52273e-08 0 0 0 0)
(0 0.000431317 0 0.000431317 -3.55177e-08 0 0 0 0)
(0 0.000472207 0 0.000472207 -3.51625e-08 0 0 0 0)
(0 0.000510879 0 0.000510879 -3.42883e-08 0 0 0 0)
(0 0.000547399 0 0.000547399 -3.29792e-08 0 0 0 0)
(0 0.000581822 0 0.000581822 -3.12801e-08 0 0 0 0)
(0 0.000614199 0 0.000614199 -2.91942e-08 0 0 0 0)
(0 0.000644574 0 0.000644574 -2.66776e-08 0 0 0 0)
(0 0.000672989 0 0.000672989 -2.36511e-08 0 0 0 0)
(0 0.00069948 0 0.00069948 -2.00689e-08 0 0 0 0)
(0 0.000724079 0 0.000724079 -1.60654e-08 0 0 0 0)
(0 0.000746816 0 0.000746816 -1.20851e-08 0 0 0 0)
(0 0.000767718 0 0.000767718 -8.78182e-09 0 0 0 0)
(0 0.000786812 0 0.000786812 -6.61154e-09 0 0 0 0)
(0 0.000804126 0 0.000804126 -5.46023e-09 0 0 0 0)
(0 0.000819691 0 0.000819691 -4.77664e-09 0 0 0 0)
(0 0.000833536 0 0.000833536 -4.11884e-09 0 0 0 0)
(0 0.00084569 0 0.00084569 -3.45766e-09 0 0 0 0)
(0 0.000856179 0 0.000856179 -2.94023e-09 0 0 0 0)
(0 0.000865033 0 0.000865033 -2.57295e-09 0 0 0 0)
(0 0.000872278 0 0.000872278 -2.24862e-09 0 0 0 0)
(0 0.000877941 0 0.000877941 -1.92863e-09 0 0 0 0)
(0 0.000882052 0 0.000882052 -1.6645e-09 0 0 0 0)
(0 0.000884641 0 0.000884641 -1.48768e-09 0 0 0 0)
(0 0.00088575 0 0.00088575 -1.34283e-09 0 0 0 0)
(1.64719e-17 0.000885356 0 0.000885356 -1.15687e-09 0 0 0 0)
(0 0.000883396 0 0.000883396 -9.58397e-10 0 0 0 0)
(0 0.000879799 0 0.000879799 -8.38643e-10 0 0 0 0)
(-1.51222e-17 0.000874493 0 0.000874493 -7.84419e-10 0 0 0 0)
(0 0.000867406 0 0.000867406 -6.90654e-10 0 0 0 0)
(1.41845e-17 0.000858463 0 0.000858463 -5.54262e-10 0 0 0 0)
(0 0.000847592 0 0.000847592 -4.69135e-10 0 0 0 0)
(-2.64317e-17 0.000834717 0 0.000834717 -4.33567e-10 0 0 0 0)
(0 0.000819768 0 0.000819768 -3.74844e-10 0 0 0 0)
(0 0.000802672 0 0.000802672 -3.04187e-10 0 0 0 0)
(0 0.00078336 0 0.00078336 -2.60915e-10 0 0 0 0)
(-1.11836e-17 0.000761768 0 0.000761768 -2.24387e-10 0 0 0 0)
(0 0.000737833 0 0.000737833 -1.84172e-10 0 0 0 0)
(0 0.000711501 0 0.000711501 -1.59399e-10 0 0 0 0)
(0 0.000682723 0 0.000682723 -1.38757e-10 0 0 0 0)
(0 0.000651463 0 0.000651463 -1.07992e-10 0 0 0 0)
(0 0.000617695 0 0.000617695 -8.57519e-11 0 0 0 0)
(7.89193e-18 0.000581411 0 0.000581411 -7.69824e-11 0 0 0 0)
(0 0.000542623 0 0.000542623 -6.42385e-11 0 0 0 0)
(6.72956e-18 0.000501372 0 0.000501372 -4.84662e-11 0 0 0 0)
(0 0.000457734 0 0.000457734 -3.8285e-11 0 0 0 0)
(5.53556e-18 0.000411829 0 0.000411829 -3.05975e-11 0 0 0 0)
(0 0.000363841 0 0.000363841 -2.38894e-11 0 0 0 0)
(0 0.000314037 0 0.000314037 -1.88505e-11 0 0 0 0)
(0 0.000262798 0 0.000262798 -1.51844e-11 0 0 0 0)
(0 0.000210677 0 0.000210677 -2.05707e-12 0 0 0 0)
(0 0.000158467 0 0.000158467 -1.85792e-11 0 0 0 0)
(-3.57135e-18 0.000107313 0 0.000107313 7.97996e-12 0 0 0 0)
(0 5.93322e-05 0 5.93322e-05 -1.20271e-11 0 0 0 0)
(0 1.6249e-05 0 1.6249e-05 3.80026e-12 0 0 0 0)
(0 1.12393e-06 0 1.12393e-06 -1.06444e-12 0 0 0 0)
(0 6.95927e-08 0 6.95927e-08 5.43493e-13 0 0 0 0)
(0 1.50945e-08 0 1.50945e-08 -5.66109e-13 0 0 0 0)
(0 1.19381e-08 0 1.19381e-08 4.52111e-13 0 0 0 0)
(0 1.0085e-08 0 1.0085e-08 -5.97582e-13 0 0 0 0)
(0 8.50588e-09 0 8.50588e-09 4.29975e-13 0 0 0 0)
(0 7.12102e-09 0 7.12102e-09 -5.33814e-13 0 0 0 0)
(0 5.92032e-09 0 5.92032e-09 3.89161e-13 0 0 0 0)
(0 4.95522e-09 0 4.95522e-09 -3.89182e-13 0 0 0 0)
(0 4.26323e-09 0 4.26323e-09 3.8581e-13 0 0 0 0)
(0 3.61347e-09 0 3.61347e-09 -3.83518e-13 0 0 0 0)
(1.78492e-19 2.91489e-09 0 2.91489e-09 3.80794e-13 0 0 0 0)
(-1.74941e-19 2.34353e-09 0 2.34353e-09 -3.79006e-13 0 0 0 0)
(0 1.90344e-09 0 1.90344e-09 3.7667e-13 0 0 0 0)
(0 1.54972e-09 0 1.54972e-09 -3.75151e-13 0 0 0 0)
(8.23534e-20 1.25712e-09 0 1.25712e-09 3.72979e-13 0 0 0 0)
(0 1.0148e-09 0 1.0148e-09 -3.71552e-13 0 0 0 0)
(0 8.15605e-10 0 8.15605e-10 3.69409e-13 0 0 0 0)
(7.75356e-20 6.52664e-10 0 6.52664e-10 -3.67926e-13 0 0 0 0)
(0 5.19679e-10 0 5.19679e-10 3.65689e-13 0 0 0 0)
(0 4.11748e-10 0 4.11748e-10 -3.64065e-13 0 0 0 0)
(0 3.2492e-10 0 3.2492e-10 3.61647e-13 0 0 0 0)
(0 2.55514e-10 0 2.55514e-10 -3.59813e-13 0 0 0 0)
(0 2.00198e-10 0 2.00198e-10 3.57168e-13 0 0 0 0)
(0 1.56238e-10 0 1.56238e-10 -3.55079e-13 0 0 0 0)
(0 1.21446e-10 0 1.21446e-10 3.52186e-13 0 0 0 0)
(0 9.4025e-11 0 9.4025e-11 -3.49817e-13 0 0 0 0)
(0 7.24855e-11 0 7.24855e-11 3.46663e-13 0 0 0 0)
(0 5.56196e-11 0 5.56196e-11 -3.44002e-13 0 0 0 0)
(0 4.24609e-11 0 4.24609e-11 3.40601e-13 0 0 0 0)
(0 3.22419e-11 0 3.22419e-11 -3.37639e-13 0 0 0 0)
(0 2.43464e-11 0 2.43464e-11 3.34018e-13 0 0 0 0)
(0 1.82801e-11 0 1.82801e-11 -3.30751e-13 0 0 0 0)
(0 1.36459e-11 0 1.36459e-11 3.26946e-13 0 0 0 0)
(-1.12435e-19 1.01261e-11 0 1.01261e-11 -3.23381e-13 0 0 0 0)
(0 7.46878e-12 0 7.46878e-12 3.19402e-13 0 0 0 0)
(0 5.47491e-12 0 5.47491e-12 -3.15581e-13 0 0 0 0)
(0 3.98808e-12 0 3.98808e-12 3.11403e-13 0 0 0 0)
(0 2.88627e-12 0 2.88627e-12 -3.0735e-13 0 0 0 0)
(0 2.07559e-12 0 2.07559e-12 3.0299e-13 0 0 0 0)
(0 1.4827e-12 0 1.4827e-12 -2.98727e-13 0 0 0 0)
(0 1.05165e-12 0 1.05165e-12 2.94208e-13 0 0 0 0)
(0 7.40444e-13 0 7.40444e-13 -2.89758e-13 0 0 0 0)
(0 5.18063e-13 0 5.18063e-13 2.85085e-13 0 0 0 0)
(0 3.60306e-13 0 3.60306e-13 -2.80474e-13 0 0 0 0)
(0 2.48457e-13 0 2.48457e-13 2.75662e-13 0 0 0 0)
(0 1.69545e-13 0 1.69545e-13 -2.70911e-13 0 0 0 0)
(0 1.14758e-13 0 1.14758e-13 2.65975e-13 0 0 0 0)
(0 7.74405e-14 0 7.74405e-14 -2.611e-13 0 0 0 0)
(0 5.20098e-14 0 5.20098e-14 2.56066e-13 0 0 0 0)
(0 3.43677e-14 0 3.43677e-14 -2.51082e-13 0 0 0 0)
(0 2.26821e-14 0 2.26821e-14 2.45958e-13 0 0 0 0)
(0 1.48941e-14 0 1.48941e-14 -2.40884e-13 0 0 0 0)
(0 9.57366e-15 0 9.57366e-15 2.35681e-13 0 0 0 0)
(-7.5226e-20 6.12359e-15 0 6.12359e-15 -2.30527e-13 0 0 0 0)
(0 3.83412e-15 0 3.83412e-15 2.25263e-13 0 0 0 0)
(0 2.37846e-15 0 2.37846e-15 -2.20048e-13 0 0 0 0)
(0 1.40574e-15 0 1.40574e-15 2.14721e-13 0 0 0 0)
(0 8.12725e-16 0 8.12725e-16 -2.0945e-13 0 0 0 0)
(0 6.5831e-16 0 6.5831e-16 2.04075e-13 0 0 0 0)
(0 4.80043e-16 0 4.80043e-16 -1.98756e-13 0 0 0 0)
(0 1.9734e-16 0 1.9734e-16 1.93338e-13 0 0 0 0)
(0 -8.60901e-17 0 -8.60901e-17 -1.87974e-13 0 0 0 0)
(0 -1.73715e-16 0 -1.73715e-16 1.82527e-13 0 0 0 0)
(-6.15319e-20 1.25002e-16 0 1.25002e-16 -1.7712e-13 0 0 0 0)
(0 2.10022e-16 0 2.10022e-16 1.71638e-13 0 0 0 0)
(0 6.70582e-17 0 6.70582e-17 -1.66174e-13 0 0 0 0)
(0 -1.04886e-16 0 -1.04886e-16 1.60674e-13 0 0 0 0)
(0 -2.12356e-17 0 -2.12356e-17 -1.5516e-13 0 0 0 0)
(0 1.94776e-17 0 1.94776e-17 1.4961e-13 0 0 0 0)
(0 -1.37449e-17 0 -1.37449e-17 -1.44038e-13 0 0 0 0)
(0 9.40595e-17 0 9.40595e-17 1.38427e-13 0 0 0 0)
(0 -1.08562e-16 0 -1.08562e-16 -1.32783e-13 0 0 0 0)
(0 -2.22509e-16 0 -2.22509e-16 1.27088e-13 0 0 0 0)
(0 1.84865e-16 0 1.84865e-16 -1.21345e-13 0 0 0 0)
(0 2.76245e-16 0 2.76245e-16 1.15536e-13 0 0 0 0)
(0 -1.52877e-16 0 -1.52877e-16 -1.09654e-13 0 0 0 0)
(0 -2.37879e-16 0 -2.37879e-16 1.0378e-13 0 0 0 0)
(0 -2.43522e-18 0 -2.43522e-18 -1.12111e-13 0 0 0 0)
(0 -3.17902e-17 0 -3.17902e-17 1.08694e-13 0 0 0 0)
(0 -2.29228e-17 0 -2.29228e-17 -1.05318e-13 0 0 0 0)
(0 6.57245e-17 0 6.57245e-17 1.01887e-13 0 0 0 0)
(0 -2.56757e-18 0 -2.56757e-18 -9.83939e-14 0 0 0 0)
(0 -1.58289e-17 0 -1.58289e-17 9.48403e-14 0 0 0 0)
(0 2.40346e-17 0 2.40346e-17 -9.12157e-14 0 0 0 0)
(0 -5.9557e-18 0 -5.9557e-18 8.75221e-14 0 0 0 0)
(0 -2.062e-17 0 -2.062e-17 -8.37462e-14 0 0 0 0)
(0 -1.99582e-17 0 -1.99582e-17 7.98906e-14 0 0 0 0)
(0 2.56227e-17 0 2.56227e-17 -7.5936e-14 0 0 0 0)
(0 3.809e-17 0 3.809e-17 7.18859e-14 0 0 0 0)
(0 -2.00376e-17 0 -2.00376e-17 -6.77133e-14 0 0 0 0)
(0 6.61744e-19 0 6.61744e-19 6.34197e-14 0 0 0 0)
(0 7.67624e-19 0 7.67624e-19 -5.89668e-14 0 0 0 0)
(0 3.52048e-18 0 3.52048e-18 5.43517e-14 0 0 0 0)
(0 1.927e-17 0 1.927e-17 -4.95098e-14 0 0 0 0)
(0 -1.88994e-17 0 -1.88994e-17 4.44436e-14 0 0 0 0)
(0 7.67624e-19 0 7.67624e-19 -3.89902e-14 0 0 0 0)
(0 -6.00864e-18 0 -6.00864e-18 3.31864e-14 0 0 0 0)
(0 -2.01964e-17 0 -2.01964e-17 -2.66224e-14 0 0 0 0)
(0 2.46434e-17 0 2.46434e-17 1.90263e-14 0 0 0 0)
(0 2.05935e-17 0 2.05935e-17 -4.40023e-15 0 0 0 0)
(0 -2.39022e-17 0 -2.39022e-17 -9.87955e-15 0 0 0 0)
(0 5.24102e-18 0 5.24102e-18 1.5865e-14 0 0 0 0)
(0 1.7073e-17 0 1.7073e-17 -1.90681e-14 0 0 0 0)
(0 -1.99053e-17 0 -1.99053e-17 2.13978e-14 0 0 0 0)
(0 -2.39816e-17 0 -2.39816e-17 -2.30423e-14 0 0 0 0)
(0 -5.41307e-17 0 -5.41307e-17 2.43991e-14 0 0 0 0)
(0 -3.12079e-17 0 -3.12079e-17 -2.53762e-14 0 0 0 0)
(0 -5.90541e-17 0 -5.90541e-17 2.61725e-14 0 0 0 0)
(0 4.26163e-18 0 4.26163e-18 -2.67182e-14 0 0 0 0)
(0 5.64865e-17 0 5.64865e-17 2.71042e-14 0 0 0 0)
(0 1.6173e-17 0 1.6173e-17 -2.73465e-14 0 0 0 0)
(0 3.77724e-17 0 3.77724e-17 2.74473e-14 0 0 0 0)
(0 7.83505e-18 0 7.83505e-18 -2.73719e-14 0 0 0 0)
(0 1.21761e-17 0 1.21761e-17 2.72081e-14 0 0 0 0)
(0 1.45584e-17 0 1.45584e-17 -2.69503e-14 0 0 0 0)
(0 -1.17526e-17 0 -1.17526e-17 2.64899e-14 0 0 0 0)
(0 -5.88688e-17 0 -5.88688e-17 -2.6043e-14 0 0 0 0)
(0 1.42937e-18 0 1.42937e-18 2.52813e-14 0 0 0 0)
(0 1.21787e-16 0 1.21787e-16 -2.46801e-14 0 0 0 0)
(0 5.6513e-17 0 5.6513e-17 2.36169e-14 0 0 0 0)
(0 -6.63862e-17 0 -6.63862e-17 -2.28408e-14 0 0 0 0)
(0 -4.50251e-17 0 -4.50251e-17 2.14898e-14 0 0 0 0)
(0 2.06729e-17 0 2.06729e-17 -2.04506e-14 0 0 0 0)
(0 2.10964e-17 0 2.10964e-17 1.8708e-14 0 0 0 0)
(0 -1.88994e-17 0 -1.88994e-17 -1.73011e-14 0 0 0 0)
(0 -3.28225e-17 0 -3.28225e-17 1.48932e-14 0 0 0 0)
(0 -1.18849e-17 0 -1.18849e-17 -6.16654e-15 0 0 0 0)
)
;

boundaryField
{
    inandouthalf11
    {
        type            cyclic;
    }
    inandouthalf12
    {
        type            cyclic;
    }
    inandouthalf21
    {
        type            cyclic;
    }
    inandouthalf22
    {
        type            cyclic;
    }
    inandouthalf31
    {
        type            cyclic;
    }
    inandouthalf32
    {
        type            cyclic;
    }
    inandouthalf41
    {
        type            cyclic;
    }
    inandouthalf42
    {
        type            cyclic;
    }
    top
    {
        type            symmetryPlane;
    }
    walls
    {
        type            zeroGradient;
    }
    frontAndBackPlanes
    {
        type            empty;
    }
}


// ************************************************************************* //
