/*--------------------------------*- C++ -*----------------------------------*\
| =========                 |                                                 |
| \\      /  F ield         | OpenFOAM: The Open Source CFD Toolbox           |
|  \\    /   O peration     | Version:  2.4.x                                 |
|   \\  /    A nd           | Web:      www.OpenFOAM.org                      |
|    \\/     M anipulation  |                                                 |
\*---------------------------------------------------------------------------*/
FoamFile
{
    version     2.0;
    format      ascii;
    class       volTensorField;
    location    "3.75";
    object      Taus;
}
// * * * * * * * * * * * * * * * * * * * * * * * * * * * * * * * * * * * * * //

dimensions      [0 2 -2 0 0 0 0];

internalField   nonuniform List<tensor> 
360
(
(0 -0.0179682 0 -0.0179682 -0.176057 0 0 0 0)
(0 -0.0227935 0 -0.0227935 -0.199022 0 0 0 0)
(0 -0.0268884 0 -0.0268884 -0.206912 0 0 0 0)
(0 -0.0276125 0 -0.0276125 -0.205173 0 0 0 0)
(1.61951e-17 -0.0270298 0 -0.0270298 -0.202653 0 0 0 0)
(7.85562e-18 -0.0265667 0 -0.0265667 -0.200773 0 0 0 0)
(1.50885e-17 -0.0262252 0 -0.0262252 -0.199011 0 0 0 0)
(0 -0.0259533 0 -0.0259533 -0.19735 0 0 0 0)
(1.42778e-17 -0.0257526 0 -0.0257526 -0.195871 0 0 0 0)
(0 -0.0255593 0 -0.0255593 -0.194385 0 0 0 0)
(2.7824e-17 -0.0253337 0 -0.0253337 -0.192818 0 0 0 0)
(0 -0.025084 0 -0.025084 -0.191216 0 0 0 0)
(2.717e-17 -0.0248257 0 -0.0248257 -0.189589 0 0 0 0)
(0 -0.0245811 0 -0.0245811 -0.187999 0 0 0 0)
(0 -0.0243559 0 -0.0243559 -0.186448 0 0 0 0)
(0 -0.0241457 0 -0.0241457 -0.184921 0 0 0 0)
(0 -0.0239475 0 -0.0239475 -0.183413 0 0 0 0)
(5.40825e-17 -0.0237587 0 -0.0237587 -0.181922 0 0 0 0)
(0 -0.0235699 0 -0.0235699 -0.180436 0 0 0 0)
(0 -0.0233639 0 -0.0233639 -0.178902 0 0 0 0)
(0 -0.023129 0 -0.023129 -0.177344 0 0 0 0)
(4.08679e-17 -0.0228249 0 -0.0228249 -0.175651 0 0 0 0)
(0 -0.0224258 0 -0.0224258 -0.173798 0 0 0 0)
(0 -0.0219189 0 -0.0219189 -0.171739 0 0 0 0)
(0 -0.0213282 0 -0.0213282 -0.169487 0 0 0 0)
(2.68955e-17 -0.0207343 0 -0.0207343 -0.167185 0 0 0 0)
(0 -0.02025 0 -0.02025 -0.165119 0 0 0 0)
(0 -0.0199658 0 -0.0199658 -0.163539 0 0 0 0)
(0 -0.0199262 0 -0.0199262 -0.162558 0 0 0 0)
(0 -0.0201092 0 -0.0201092 -0.161999 0 0 0 0)
(0 -0.0204581 0 -0.0204581 -0.161606 0 0 0 0)
(0 -0.0209305 0 -0.0209305 -0.161157 0 0 0 0)
(0 -0.0215632 0 -0.0215632 -0.160651 0 0 0 0)
(0 -0.0223918 0 -0.0223918 -0.159941 0 0 0 0)
(0 -0.023443 0 -0.023443 -0.159168 0 0 0 0)
(-3.17433e-14 -0.0246066 0 -0.0246066 -0.15831 0 0 0 0)
(0 -0.025749 0 -0.025749 -0.157482 0 0 0 0)
(0 -0.0267856 0 -0.0267856 -0.156679 0 0 0 0)
(0 -0.0277158 0 -0.0277158 -0.155899 0 0 0 0)
(0 -0.0285815 0 -0.0285815 -0.155197 0 0 0 0)
(0 -0.0293773 0 -0.0293773 -0.154435 0 0 0 0)
(0 -0.0301436 0 -0.0301436 -0.153679 0 0 0 0)
(-1.66167e-14 -0.0308924 0 -0.0308924 -0.152916 0 0 0 0)
(0 -0.0316049 0 -0.0316049 -0.152072 0 0 0 0)
(0 -0.0323048 0 -0.0323048 -0.151222 0 0 0 0)
(0 -0.0329841 0 -0.0329841 -0.150328 0 0 0 0)
(0 -0.0336424 0 -0.0336424 -0.149393 0 0 0 0)
(0 -0.0342885 0 -0.0342885 -0.148461 0 0 0 0)
(0 -0.0348883 0 -0.0348883 -0.147469 0 0 0 0)
(0 -0.035442 0 -0.035442 -0.146427 0 0 0 0)
(-8.05578e-15 -0.035979 0 -0.035979 -0.1454 0 0 0 0)
(0 -0.0364765 0 -0.0364765 -0.14432 0 0 0 0)
(0 -0.0369404 0 -0.0369404 -0.14323 0 0 0 0)
(0 -0.0373653 0 -0.0373653 -0.142097 0 0 0 0)
(0 -0.0377587 0 -0.0377587 -0.140962 0 0 0 0)
(0 -0.0381011 0 -0.0381011 -0.139764 0 0 0 0)
(0 -0.038416 0 -0.038416 -0.138575 0 0 0 0)
(0 -0.0386841 0 -0.0386841 -0.137334 0 0 0 0)
(0 -0.0389218 0 -0.0389218 -0.136079 0 0 0 0)
(0 -0.0391313 0 -0.0391313 -0.134818 0 0 0 0)
(0 -0.0392933 0 -0.0392933 -0.133503 0 0 0 0)
(0 -0.0394382 0 -0.0394382 -0.132203 0 0 0 0)
(0 -0.0395544 0 -0.0395544 -0.130865 0 0 0 0)
(0 -0.0396581 0 -0.0396581 -0.12953 0 0 0 0)
(0 -0.0397466 0 -0.0397466 -0.128179 0 0 0 0)
(0 -0.0398198 0 -0.0398198 -0.126824 0 0 0 0)
(0 -0.0398673 0 -0.0398673 -0.125451 0 0 0 0)
(0 -0.0398885 0 -0.0398885 -0.124065 0 0 0 0)
(0 -0.0398861 0 -0.0398861 -0.122667 0 0 0 0)
(0 -0.0398575 0 -0.0398575 -0.121264 0 0 0 0)
(0 -0.0397846 0 -0.0397846 -0.119833 0 0 0 0)
(0 -0.0396819 0 -0.0396819 -0.118386 0 0 0 0)
(0 -0.0395676 0 -0.0395676 -0.116948 0 0 0 0)
(0 -0.0394235 0 -0.0394235 -0.11548 0 0 0 0)
(0 -0.0392632 0 -0.0392632 -0.114015 0 0 0 0)
(0 -0.0390867 0 -0.0390867 -0.112531 0 0 0 0)
(0 -0.0389072 0 -0.0389072 -0.111051 0 0 0 0)
(0 -0.0387179 0 -0.0387179 -0.109562 0 0 0 0)
(0 -0.0385143 0 -0.0385143 -0.108065 0 0 0 0)
(0 -0.0382965 0 -0.0382965 -0.106562 0 0 0 0)
(0 -0.0380659 0 -0.0380659 -0.105056 0 0 0 0)
(0 -0.037816 0 -0.037816 -0.103541 0 0 0 0)
(0 -0.037547 0 -0.037547 -0.102019 0 0 0 0)
(0 -0.0372614 0 -0.0372614 -0.100494 0 0 0 0)
(0 -0.0369605 0 -0.0369605 -0.0989622 0 0 0 0)
(0 -0.0366471 0 -0.0366471 -0.0974274 0 0 0 0)
(0 -0.0363227 0 -0.0363227 -0.0958873 0 0 0 0)
(0 -0.0359911 0 -0.0359911 -0.0943449 0 0 0 0)
(0 -0.0356525 0 -0.0356525 -0.0927994 0 0 0 0)
(0 -0.0353063 0 -0.0353063 -0.0912505 0 0 0 0)
(0 -0.0349523 0 -0.0349523 -0.0896988 0 0 0 0)
(0 -0.03459 0 -0.03459 -0.0881447 0 0 0 0)
(0 -0.0342181 0 -0.0342181 -0.0865876 0 0 0 0)
(0 -0.0338363 0 -0.0338363 -0.085028 0 0 0 0)
(0 -0.0334453 0 -0.0334453 -0.0834663 0 0 0 0)
(0 -0.0330455 0 -0.0330455 -0.0819024 0 0 0 0)
(0 -0.0326377 0 -0.0326377 -0.0803366 0 0 0 0)
(0 -0.0322228 0 -0.0322228 -0.0787691 0 0 0 0)
(0 -0.0318012 0 -0.0318012 -0.0772 0 0 0 0)
(0 -0.0313735 0 -0.0313735 -0.0756293 0 0 0 0)
(0 -0.0309398 0 -0.0309398 -0.0740572 0 0 0 0)
(0 -0.0305003 0 -0.0305003 -0.0724836 0 0 0 0)
(0 -0.0300552 0 -0.0300552 -0.0709088 0 0 0 0)
(0 -0.0296047 0 -0.0296047 -0.0693327 0 0 0 0)
(0 -0.029149 0 -0.029149 -0.0677555 0 0 0 0)
(0 -0.0286884 0 -0.0286884 -0.0661771 0 0 0 0)
(0 -0.0282231 0 -0.0282231 -0.0645977 0 0 0 0)
(0 -0.0277535 0 -0.0277535 -0.0630174 0 0 0 0)
(0 -0.0272797 0 -0.0272797 -0.061436 0 0 0 0)
(0 -0.026802 0 -0.026802 -0.0598537 0 0 0 0)
(0 -0.0263207 0 -0.0263207 -0.0582703 0 0 0 0)
(0 -0.025836 0 -0.025836 -0.0566859 0 0 0 0)
(0 -0.0253483 0 -0.0253483 -0.0551005 0 0 0 0)
(0 -0.024858 0 -0.024858 -0.0535138 0 0 0 0)
(0 -0.0243656 0 -0.0243656 -0.0519258 0 0 0 0)
(0 -0.0238715 0 -0.0238715 -0.0503364 0 0 0 0)
(0 -0.0233762 0 -0.0233762 -0.0487453 0 0 0 0)
(0 -0.0228803 0 -0.0228803 -0.0471524 0 0 0 0)
(0 -0.0223844 0 -0.0223844 -0.0455573 0 0 0 0)
(0 -0.0218891 0 -0.0218891 -0.0439599 0 0 0 0)
(0 -0.021395 0 -0.021395 -0.0423598 0 0 0 0)
(0 -0.0209028 0 -0.0209028 -0.0407567 0 0 0 0)
(0 -0.0204132 0 -0.0204132 -0.0391501 0 0 0 0)
(0 -0.0199269 0 -0.0199269 -0.0375396 0 0 0 0)
(0 -0.0194448 0 -0.0194448 -0.0359246 0 0 0 0)
(0 -0.0189669 0 -0.0189669 -0.0343047 0 0 0 0)
(0 -0.0184931 0 -0.0184931 -0.0326793 0 0 0 0)
(0 -0.0180222 0 -0.0180222 -0.031048 0 0 0 0)
(0 -0.0175531 0 -0.0175531 -0.0294102 0 0 0 0)
(0 -0.0170858 0 -0.0170858 -0.0277646 0 0 0 0)
(0 -0.0166219 0 -0.0166219 -0.0261091 0 0 0 0)
(0 -0.0161631 0 -0.0161631 -0.0244416 0 0 0 0)
(0 -0.0157055 0 -0.0157055 -0.0227623 0 0 0 0)
(0 -0.0152368 0 -0.0152368 -0.0210742 0 0 0 0)
(0 -0.0147478 0 -0.0147478 -0.0193787 0 0 0 0)
(0 -0.0142468 0 -0.0142468 -0.0176715 0 0 0 0)
(0 -0.0137474 0 -0.0137474 -0.0159467 0 0 0 0)
(0 -0.0132302 0 -0.0132302 -0.0142204 0 0 0 0)
(0 -0.0126323 0 -0.0126323 -0.0125449 0 0 0 0)
(0 -0.0119153 0 -0.0119153 -0.0109405 0 0 0 0)
(0 -0.0111888 0 -0.0111888 -0.00929972 0 0 0 0)
(0 -0.0106074 0 -0.0106074 -0.0075616 0 0 0 0)
(0 -0.00992245 0 -0.00992245 -0.00567985 0 0 0 0)
(0 -0.0090199 0 -0.0090199 -0.00365038 0 0 0 0)
(0 -0.00797149 0 -0.00797149 -0.00103211 0 0 0 0)
(0 -0.00624705 0 -0.00624705 -0.000593719 0 0 0 0)
(0 -0.00318112 0 -0.00318112 -0.00161209 0 0 0 0)
(0 -0.00268175 0 -0.00268175 2.83774e-05 0 0 0 0)
(0 -0.0020054 0 -0.0020054 5.60393e-05 0 0 0 0)
(0 -0.00266607 0 -0.00266607 6.90356e-05 0 0 0 0)
(0 -0.00300777 0 -0.00300777 5.24963e-05 0 0 0 0)
(0 -0.00272962 0 -0.00272962 3.09521e-05 0 0 0 0)
(0 -0.00262909 0 -0.00262909 3.32742e-05 0 0 0 0)
(0 -0.00270927 0 -0.00270927 4.11662e-05 0 0 0 0)
(0 -0.00294702 0 -0.00294702 5.30062e-05 0 0 0 0)
(0 -0.00332806 0 -0.00332806 6.79252e-05 0 0 0 0)
(0 -0.00384298 0 -0.00384298 8.28851e-05 0 0 0 0)
(0 -0.00448309 0 -0.00448309 8.63598e-05 0 0 0 0)
(0 -0.00524161 0 -0.00524161 4.17029e-05 0 0 0 0)
(0 -0.00612646 0 -0.00612646 -0.000142268 0 0 0 0)
(0 -0.00717058 0 -0.00717058 -0.000616507 0 0 0 0)
(0 -0.00836365 0 -0.00836365 -0.00149343 0 0 0 0)
(0 -0.00950124 0 -0.00950124 -0.00265742 0 0 0 0)
(0 -0.0102666 0 -0.0102666 -0.00376932 0 0 0 0)
(0 -0.0105188 0 -0.0105188 -0.00458574 0 0 0 0)
(0 -0.0103002 0 -0.0103002 -0.0050866 0 0 0 0)
(0 -0.0097015 0 -0.0097015 -0.00533589 0 0 0 0)
(0 -0.0088063 0 -0.0088063 -0.0053932 0 0 0 0)
(0 -0.00768107 0 -0.00768107 -0.00530084 0 0 0 0)
(0 -0.0063756 0 -0.0063756 -0.0050864 0 0 0 0)
(0 -0.0049266 0 -0.0049266 -0.00476662 0 0 0 0)
(0 -0.00336141 0 -0.00336141 -0.00435087 0 0 0 0)
(0 -0.00170095 0 -0.00170095 -0.00384394 0 0 0 0)
(0 3.82451e-05 0 3.82451e-05 -0.00324836 0 0 0 0)
(0 0.00184285 0 0.00184285 -0.00256614 0 0 0 0)
(0 0.00370217 0 0.00370217 -0.00180054 0 0 0 0)
(0 0.0056083 0 0.0056083 -0.000958247 0 0 0 0)
(0 0.00755716 0 0.00755716 -5.13244e-05 0 0 0 0)
(0 0.0095504 0 0.0095504 0.000900144 0 0 0 0)
(0 0.0115986 0 0.0115986 0.00186494 0 0 0 0)
(0 0.0137265 0 0.0137265 0.00279689 0 0 0 0)
(0 0.0159801 0 0.0159801 0.0036302 0 0 0 0)
(0 0.0184381 0 0.0184381 0.00427441 0 0 0 0)
(0 0.0212256 0 0.0212256 0.00461028 0 0 0 0)
(0 0.0245268 0 0.0245268 0.00449135 0 0 0 0)
(0 0.0285797 0 0.0285797 0.00376281 0 0 0 0)
(0 0.0336065 0 0.0336065 0.0023218 0 0 0 0)
(0 0.0396112 0 0.0396112 0.000242509 0 0 0 0)
(0 0.0461006 0 0.0461006 -0.00209111 0 0 0 0)
(0 0.0521681 0 0.0521681 -0.00409256 0 0 0 0)
(0 0.0573008 0 0.0573008 -0.00545699 0 0 0 0)
(0 0.0619554 0 0.0619554 -0.00644773 0 0 0 0)
(0 0.0668269 0 0.0668269 -0.00746616 0 0 0 0)
(0 0.0718231 0 0.0718231 -0.00851588 0 0 0 0)
(0 0.0762966 0 0.0762966 -0.00930819 0 0 0 0)
(0 0.0801347 0 0.0801347 -0.00976379 0 0 0 0)
(0 0.0837674 0 0.0837674 -0.0100612 0 0 0 0)
(0 0.0872262 0 0.0872262 -0.0102736 0 0 0 0)
(0 0.0900918 0 0.0900918 -0.0103145 0 0 0 0)
(0 0.0921486 0 0.0921486 -0.0101606 0 0 0 0)
(0 0.0936835 0 0.0936835 -0.00996762 0 0 0 0)
(0 0.0953982 0 0.0953982 -0.00998126 0 0 0 0)
(8.00706e-15 0.0972937 0 0.0972937 -0.0101626 0 0 0 0)
(0 0.0983204 0 0.0983204 -0.0100927 0 0 0 0)
(0 0.098456 0 0.098456 -0.00973158 0 0 0 0)
(-8.19165e-15 0.0994099 0 0.0994099 -0.00975271 0 0 0 0)
(0 0.101514 0 0.101514 -0.010349 0 0 0 0)
(8.25425e-15 0.102517 0 0.102517 -0.0106116 0 0 0 0)
(0 0.102086 0 0.102086 -0.0103311 0 0 0 0)
(-8.15497e-15 0.10296 0 0.10296 -0.01063 0 0 0 0)
(0 0.104737 0 0.104737 -0.0114543 0 0 0 0)
(0 0.105053 0 0.105053 -0.0117577 0 0 0 0)
(0 0.105275 0 0.105275 -0.0120462 0 0 0 0)
(-1.55986e-14 0.106516 0 0.106516 -0.012903 0 0 0 0)
(0 0.106765 0 0.106765 -0.0134358 0 0 0 0)
(0 0.106635 0 0.106635 -0.0138247 0 0 0 0)
(0 0.10827 0 0.10827 -0.0151541 0 0 0 0)
(0 0.109333 0 0.109333 -0.0164071 0 0 0 0)
(0 0.108243 0 0.108243 -0.0166846 0 0 0 0)
(0 0.108621 0 0.108621 -0.017721 0 0 0 0)
(0 0.110472 0 0.110472 -0.0196838 0 0 0 0)
(1.28702e-14 0.110534 0 0.110534 -0.0209021 0 0 0 0)
(0 0.110452 0 0.110452 -0.0221239 0 0 0 0)
(1.20409e-14 0.110777 0 0.110777 -0.023752 0 0 0 0)
(0 0.110242 0 0.110242 -0.0250382 0 0 0 0)
(0 0.110564 0 0.110564 -0.0268516 0 0 0 0)
(0 0.110187 0 0.110187 -0.0285576 0 0 0 0)
(0 0.107867 0 0.107867 -0.0293151 0 0 0 0)
(0 0.107022 0 0.107022 -0.0307961 0 0 0 0)
(-9.26459e-15 0.105803 0 0.105803 -0.0322326 0 0 0 0)
(0 0.102689 0 0.102689 -0.0326079 0 0 0 0)
(0 0.0985323 0 0.0985323 -0.032577 0 0 0 0)
(0 0.0885108 0 0.0885108 -0.0302033 0 0 0 0)
(0 0.0719538 0 0.0719538 -0.0250484 0 0 0 0)
(0 0.053567 0 0.053567 -0.0191028 0 0 0 0)
(0 0.036599 0 0.036599 -0.0132049 0 0 0 0)
(0 0.0290508 0 0.0290508 -0.0119769 0 0 0 0)
(0 0 0 0 -0 0 0 0 0)
(0 0 0 0 -0 0 0 0 0)
(0 0 0 0 0 0 0 0 0)
(0 0 0 0 -0 0 0 0 0)
(0 0 0 0 -0 0 0 0 0)
(0 0 0 0 -0 0 0 0 0)
(0 0 0 0 -0 0 0 0 0)
(-0 0 0 0 -0 0 0 0 0)
(0 0 0 0 -0 0 0 0 0)
(0 0 0 0 -0 0 0 0 0)
(0 0 0 0 -0 0 0 0 0)
(0 0 0 0 -0 0 0 0 0)
(0 0 0 0 -0 0 0 0 0)
(0 0 0 0 -0 0 0 0 0)
(0 0 0 0 -0 0 0 0 0)
(0 0 0 0 -0 0 0 0 0)
(0 0 0 0 -0 0 0 0 0)
(0 0 0 0 -0 0 0 0 0)
(0 0 0 0 -0 0 0 0 0)
(0 0 0 0 -0 0 0 0 0)
(0 0 0 0 -0 0 0 0 0)
(0 0 0 0 -0 0 0 0 0)
(0 0 0 0 -0 0 0 0 0)
(0 0 0 0 -0 0 0 0 0)
(0 0 0 0 0 0 0 0 0)
(0 0 0 0 -0 0 0 0 0)
(0 0 0 0 0 0 0 0 0)
(0 0 0 0 -0 0 0 0 0)
(0 0 0 0 0 0 0 0 0)
(0 0 0 0 -0 0 0 0 0)
(0 0 0 0 -0 0 0 0 0)
(0 0 0 0 0 0 0 0 0)
(0 0 0 0 -0 0 0 0 0)
(0 0 0 0 -0 0 0 0 0)
(0 0 0 0 0 0 0 0 0)
(0 0 0 0 -0 0 0 0 0)
(0 0 0 0 0 0 0 0 0)
(0 0 0 0 -0 0 0 0 0)
(0 0 0 0 0 0 0 0 0)
(0 0 0 0 -0 0 0 0 0)
(0 0 0 0 0 0 0 0 0)
(0 0 0 0 -0 0 0 0 0)
(0 0 0 0 0 0 0 0 0)
(0 0 0 0 -0 0 0 0 0)
(0 0 0 0 0 0 0 0 0)
(0 0 0 0 -0 0 0 0 0)
(0 0 0 0 0 0 0 0 0)
(0 0 0 0 -0 0 0 0 0)
(0 0 0 0 0 0 0 0 0)
(-0 0 0 0 -0 0 0 0 0)
(0 0 0 0 0 0 0 0 0)
(0 0 0 0 -0 0 0 0 0)
(0 -0 0 -0 0 0 0 0 0)
(0 0 0 0 -0 0 0 0 0)
(0 -0 0 -0 0 0 0 0 0)
(0 0 0 0 -0 0 0 0 0)
(0 -0 0 -0 0 0 0 0 0)
(0 0 0 0 -0 0 0 0 0)
(0 -0 0 -0 0 0 0 0 0)
(-0 0 0 0 -0 0 0 0 0)
(0 -0 0 -0 0 0 0 0 0)
(0 0 0 0 -0 0 0 0 0)
(0 -0 0 -0 0 0 0 0 0)
(0 0 0 0 -0 0 0 0 0)
(0 -0 0 -0 0 0 0 0 0)
(0 0 0 0 -0 0 0 0 0)
(0 -0 0 -0 0 0 0 0 0)
(0 0 0 0 -0 0 0 0 0)
(0 -0 0 -0 0 0 0 0 0)
(0 0 0 0 -0 0 0 0 0)
(0 -0 0 -0 0 0 0 0 0)
(0 0 0 0 -0 0 0 0 0)
(0 -0 0 -0 0 0 0 0 0)
(0 -0 0 -0 0 0 0 0 0)
(0 -0 0 -0 0 0 0 0 0)
(0 0 0 0 -0 0 0 0 0)
(0 -0 0 -0 0 0 0 0 0)
(0 0 0 0 -0 0 0 0 0)
(0 -0 0 -0 0 0 0 0 0)
(0 0 0 0 -0 0 0 0 0)
(0 -0 0 -0 0 0 0 0 0)
(0 0 0 0 -0 0 0 0 0)
(0 -0 0 -0 0 0 0 0 0)
(0 0 0 0 -0 0 0 0 0)
(0 -0 0 -0 0 0 0 0 0)
(0 0 0 0 -0 0 0 0 0)
(0 -0 0 -0 0 0 0 0 0)
(0 0 0 0 -0 0 0 0 0)
(0 -0 0 -0 0 0 0 0 0)
(0 0 0 0 -0 0 0 0 0)
(0 -0 0 -0 0 0 0 0 0)
(0 0 0 0 -0 0 0 0 0)
(0 -0 0 -0 0 0 0 0 0)
(0 0 0 0 -0 0 0 0 0)
(0 -0 0 -0 0 0 0 0 0)
(0 0 0 0 -0 0 0 0 0)
(0 0 0 0 -0 0 0 0 0)
(0 -0 0 -0 0 0 0 0 0)
(0 0 0 0 -0 0 0 0 0)
(0 -0 0 -0 0 0 0 0 0)
(0 0 0 0 -0 0 0 0 0)
(0 -0 0 -0 0 0 0 0 0)
(0 0 0 0 -0 0 0 0 0)
(0 -0 0 -0 0 0 0 0 0)
(0 0 0 0 -0 0 0 0 0)
(0 -0 0 -0 0 0 0 0 0)
(0 0 0 0 -0 0 0 0 0)
(0 -0 0 -0 0 0 0 0 0)
(0 0 0 0 -0 0 0 0 0)
(0 -0 0 -0 0 0 0 0 0)
(0 0 0 0 -0 0 0 0 0)
(0 -0 0 -0 0 0 0 0 0)
(0 0 0 0 -0 0 0 0 0)
(0 -0 0 -0 0 0 0 0 0)
(0 0 0 0 -0 0 0 0 0)
(0 0 0 0 0 0 0 0 0)
(0 0 0 0 0 0 0 0 0)
(0 0 0 0 0 0 0 0 0)
(0 0 0 0 0 0 0 0 0)
(0 0 0 0 0 0 0 0 0)
(0 0 0 0 0 0 0 0 0)
(0 0 0 0 0 0 0 0 0)
(0 0 0 0 0 0 0 0 0)
)
;

boundaryField
{
    inandouthalf11
    {
        type            cyclic;
    }
    inandouthalf12
    {
        type            cyclic;
    }
    inandouthalf21
    {
        type            cyclic;
    }
    inandouthalf22
    {
        type            cyclic;
    }
    inandouthalf31
    {
        type            cyclic;
    }
    inandouthalf32
    {
        type            cyclic;
    }
    inandouthalf41
    {
        type            cyclic;
    }
    inandouthalf42
    {
        type            cyclic;
    }
    top
    {
        type            symmetryPlane;
    }
    walls
    {
        type            zeroGradient;
    }
    frontAndBackPlanes
    {
        type            empty;
    }
}


// ************************************************************************* //
