/*--------------------------------*- C++ -*----------------------------------*\
| =========                 |                                                 |
| \\      /  F ield         | OpenFOAM: The Open Source CFD Toolbox           |
|  \\    /   O peration     | Version:  2.4.x                                 |
|   \\  /    A nd           | Web:      www.OpenFOAM.org                      |
|    \\/     M anipulation  |                                                 |
\*---------------------------------------------------------------------------*/
FoamFile
{
    version     2.0;
    format      ascii;
    class       volScalarField;
    location    "3.75";
    object      tmf;
}
// * * * * * * * * * * * * * * * * * * * * * * * * * * * * * * * * * * * * * //

dimensions      [0 0 0 0 0 0 0];

internalField   nonuniform List<scalar> 
360
(
0.999205
0.999206
0.999207
0.999207
0.999206
0.999206
0.999206
0.999206
0.999206
0.999206
0.999206
0.999206
0.999206
0.999205
0.999205
0.999205
0.999205
0.999205
0.999205
0.999205
0.999205
0.999205
0.999205
0.999204
0.999204
0.999204
0.999204
0.999204
0.999204
0.999204
0.999204
0.999204
0.999204
0.999204
0.999204
0.999204
0.999204
0.999204
0.999203
0.999203
0.999203
0.999203
0.999203
0.999203
0.999203
0.999203
0.999203
0.999203
0.999203
0.999203
0.999203
0.999203
0.999203
0.999203
0.999203
0.999203
0.999203
0.999203
0.999203
0.999203
0.999202
0.999202
0.999202
0.999202
0.999202
0.999202
0.999202
0.999202
0.999202
0.999202
0.999201
0.999201
0.999201
0.999201
0.999201
0.999201
0.999201
0.999201
0.9992
0.9992
0.9992
0.9992
0.9992
0.9992
0.999199
0.999199
0.999199
0.999199
0.999199
0.999199
0.999198
0.999198
0.999198
0.999198
0.999198
0.999197
0.999197
0.999197
0.999197
0.999196
0.999196
0.999196
0.999196
0.999195
0.999195
0.999195
0.999195
0.999194
0.999194
0.999194
0.999193
0.999193
0.999193
0.999192
0.999192
0.999192
0.999191
0.999191
0.999191
0.99919
0.99919
0.999189
0.999189
0.999189
0.999188
0.999188
0.999187
0.999187
0.999186
0.999334
0.999345
0.999333
0.999319
0.999302
0.999282
0.999252
0.999175
0.998804
0.997046
0.995858
0.995053
0.994058
0.992798
0.991198
0.989157
0.986532
0.983097
0.978723
0.964384
0.887998
0.843173
0.84407
0.849958
0.858382
0.868908
0.881191
0.894675
0.908658
0.92242
0.935318
0.946857
0.956716
0.964762
0.971057
0.975821
0.979353
0.981947
0.983852
0.985257
0.986298
0.987074
0.987654
0.988086
0.988404
0.988635
0.988796
0.988901
0.988961
0.988982
0.988971
0.988931
0.988866
0.988777
0.988666
0.988534
0.98838
0.988206
0.98801
0.987791
0.987548
0.987278
0.986976
0.986639
0.986262
0.985845
0.985398
0.984981
0.984794
0.985019
0.98548
0.98598
0.986462
0.986916
0.987342
0.987743
0.988123
0.988482
0.988823
0.989151
0.989466
0.989769
0.990063
0.990349
0.990628
0.990901
0.991171
0.991437
0.991701
0.991965
0.99223
0.992498
0.99277
0.99305
0.99334
0.993644
0.993967
0.994316
0.994702
0.995142
0.995661
0.996315
0.997122
0.997705
0.997837
0.997822
0.997805
0.99779
0.997773
0.99711
0.996942
0.99458
0.994193
0.994193
0.994193
0.994193
0.994193
0.994193
0.994193
0.994193
0.994193
0.994193
0.994193
0.994193
0.994193
0.994193
0.994193
0.994193
0.994193
0.994193
0.994193
0.994193
0.994193
0.994193
0.994193
0.994193
0.994193
0.994193
0.994193
0.994193
0.994193
0.994193
0.994193
0.994193
0.994193
0.994193
0.994193
0.994193
0.994193
0.994193
0.994193
0.994193
0.994193
0.994193
0.994193
0.994193
0.994193
0.994193
0.994193
0.994193
0.994193
0.994193
0.994193
0.994193
0.994193
0.994193
0.994193
0.994193
0.994193
0.994193
0.994193
0.994193
0.994193
0.994193
0.994193
0.994193
0.994193
0.994193
0.994193
0.994193
0.994193
0.994193
0.994193
0.994193
0.994193
0.994193
0.994193
0.994193
0.994193
0.994193
0.994193
0.994193
0.994193
0.994193
0.994193
0.994193
0.994193
0.994193
0.994193
0.994193
0.994193
0.994193
0.994193
0.994193
0.994193
0.994193
0.994193
0.994193
0.994193
0.994193
0.994193
0.994193
0.994193
0.994193
0.994193
0.994193
0.994193
0.994193
0.994193
0.994193
0.994193
0.994193
0.994193
0.994193
0.994193
0.994193
0.994193
0.994193
0.994193
0.994178
0.993254
)
;

boundaryField
{
    inandouthalf11
    {
        type            cyclic;
    }
    inandouthalf12
    {
        type            cyclic;
    }
    inandouthalf21
    {
        type            cyclic;
    }
    inandouthalf22
    {
        type            cyclic;
    }
    inandouthalf31
    {
        type            cyclic;
    }
    inandouthalf32
    {
        type            cyclic;
    }
    inandouthalf41
    {
        type            cyclic;
    }
    inandouthalf42
    {
        type            cyclic;
    }
    top
    {
        type            symmetryPlane;
    }
    walls
    {
        type            calculated;
        value           uniform 0;
    }
    frontAndBackPlanes
    {
        type            empty;
    }
}


// ************************************************************************* //
