/*--------------------------------*- C++ -*----------------------------------*\
| =========                 |                                                 |
| \\      /  F ield         | OpenFOAM: The Open Source CFD Toolbox           |
|  \\    /   O peration     | Version:  2.4.x                                 |
|   \\  /    A nd           | Web:      www.OpenFOAM.org                      |
|    \\/     M anipulation  |                                                 |
\*---------------------------------------------------------------------------*/
FoamFile
{
    version     2.0;
    format      ascii;
    class       surfaceScalarField;
    location    "3.35";
    object      ddt0(phia);
}
// * * * * * * * * * * * * * * * * * * * * * * * * * * * * * * * * * * * * * //

dimensions      [0 3 -2 0 0 0 0];

internalField   nonuniform List<scalar> 
359
(
9.3318e-13
3.53876e-12
6.6457e-12
9.38652e-12
1.1636e-11
1.35369e-11
1.5218e-11
1.67256e-11
1.80584e-11
1.92565e-11
2.04508e-11
2.18637e-11
2.37867e-11
2.65291e-11
3.03262e-11
3.51086e-11
4.003e-11
4.29161e-11
4.06136e-11
3.14484e-11
1.80722e-11
5.92571e-12
-1.69068e-12
-5.25384e-12
-6.61892e-12
-7.08764e-12
-7.23105e-12
-7.25077e-12
-7.21293e-12
-7.14064e-12
-7.04566e-12
-6.93841e-12
-6.82959e-12
-6.72748e-12
-6.63656e-12
-6.5568e-12
-6.48551e-12
-6.41902e-12
-6.35406e-12
-6.28847e-12
-6.22088e-12
-6.15082e-12
-6.07836e-12
-6.00369e-12
-5.92728e-12
-5.84955e-12
-5.77078e-12
-5.6912e-12
-5.61066e-12
-5.52892e-12
-5.44586e-12
-5.36113e-12
-5.27451e-12
-5.18561e-12
-5.09419e-12
-4.9998e-12
-4.9023e-12
-4.8014e-12
-4.69702e-12
-4.58922e-12
-4.47798e-12
-4.36366e-12
-4.24654e-12
-4.12713e-12
-4.00576e-12
-3.88264e-12
-3.75761e-12
-3.63032e-12
-3.50015e-12
-3.36635e-12
-3.22794e-12
-3.08412e-12
-2.93445e-12
-2.77851e-12
-2.6164e-12
-2.4484e-12
-2.27523e-12
-2.09758e-12
-1.91605e-12
-1.73104e-12
-1.54275e-12
-1.35106e-12
-1.15568e-12
-9.56258e-13
-7.5247e-13
-5.44146e-13
-3.31272e-13
-1.14057e-13
1.07164e-13
3.32003e-13
5.60082e-13
7.91092e-13
1.02485e-12
1.26127e-12
1.50033e-12
1.74207e-12
1.9865e-12
2.23366e-12
2.4835e-12
2.73597e-12
2.99098e-12
3.24839e-12
3.50805e-12
3.76976e-12
4.03327e-12
4.29828e-12
4.56448e-12
4.83151e-12
5.09898e-12
5.36653e-12
5.63381e-12
5.90056e-12
6.1666e-12
6.4319e-12
6.69661e-12
6.96114e-12
7.22616e-12
7.49267e-12
7.76203e-12
8.036e-12
8.31674e-12
8.6068e-12
8.90907e-12
9.2267e-12
9.56298e-12
9.92114e-12
1.03042e-11
1.07144e-11
1.11534e-11
1.1621e-11
1.21153e-11
1.26324e-11
1.31673e-11
1.37148e-11
1.42683e-11
1.48175e-11
1.53474e-11
1.58413e-11
1.62828e-11
1.66518e-11
1.69209e-11
1.70732e-11
1.71438e-11
1.71717e-11
1.71823e-11
1.71723e-11
3.65989e-11
5.87213e-11
1.56105e-10
1.56395e-08
2.84936e-08
4.46448e-08
8.12296e-08
1.39759e-07
2.03455e-07
2.34877e-07
2.3509e-07
2.24575e-07
2.1155e-07
1.97082e-07
1.82558e-07
1.68486e-07
1.5506e-07
1.42381e-07
1.30481e-07
1.19351e-07
1.08964e-07
9.92806e-08
9.02597e-08
8.18617e-08
7.40515e-08
6.68001e-08
6.00836e-08
5.38812e-08
4.8172e-08
4.29312e-08
3.81262e-08
3.37133e-08
2.96357e-08
2.5823e-08
2.21912e-08
1.86447e-08
1.50789e-08
1.13839e-08
7.45157e-09
3.18647e-09
-1.47586e-09
-6.54183e-09
-1.1925e-08
-1.74147e-08
-2.26722e-08
-2.729e-08
-3.09312e-08
-3.35117e-08
-3.5248e-08
-3.64532e-08
-3.73261e-08
-3.79542e-08
-3.83902e-08
-3.86857e-08
-3.89005e-08
-3.90555e-08
-3.91059e-08
-3.90561e-08
-3.90099e-08
-3.89739e-08
-3.88097e-08
-3.85701e-08
-3.84005e-08
-3.82038e-08
-3.79045e-08
-3.76265e-08
-3.73652e-08
-3.70377e-08
-3.67331e-08
-3.64788e-08
-3.61579e-08
-3.58533e-08
-3.56857e-08
-3.55422e-08
-3.54362e-08
-3.54778e-08
-3.56861e-08
-3.60315e-08
-3.6437e-08
-3.68486e-08
-3.73147e-08
-3.78359e-08
-3.8369e-08
-3.89682e-08
-3.96431e-08
-4.03718e-08
-4.12214e-08
-4.23011e-08
-4.36069e-08
-4.46603e-08
-4.52146e-08
-4.55599e-08
-4.59732e-08
-4.89836e-08
-2.22961e-06
-2.24785e-06
-3.17956e-10
-3.135e-10
-3.14034e-10
-3.14008e-10
-3.13997e-10
-3.13997e-10
-3.13992e-10
-3.13988e-10
-3.13989e-10
-3.13982e-10
-3.13987e-10
-3.13979e-10
-3.13986e-10
-3.13977e-10
-3.13985e-10
-3.13976e-10
-3.13984e-10
-3.13975e-10
-3.13983e-10
-3.13975e-10
-3.13982e-10
-3.13975e-10
-3.13982e-10
-3.13975e-10
-3.13982e-10
-3.13977e-10
-3.13979e-10
-3.13977e-10
-3.1398e-10
-3.13977e-10
-3.13979e-10
-3.13978e-10
-3.13978e-10
-3.13978e-10
-3.13978e-10
-3.13979e-10
-3.13977e-10
-3.1398e-10
-3.13976e-10
-3.1398e-10
-3.13976e-10
-3.13981e-10
-3.13975e-10
-3.13982e-10
-3.13974e-10
-3.13983e-10
-3.13973e-10
-3.13984e-10
-3.13973e-10
-3.13984e-10
-3.13972e-10
-3.13985e-10
-3.13971e-10
-3.13986e-10
-3.1397e-10
-3.13987e-10
-3.1397e-10
-3.13987e-10
-3.13969e-10
-3.13988e-10
-3.13968e-10
-3.13988e-10
-3.13968e-10
-3.13988e-10
-3.13967e-10
-3.13989e-10
-3.13967e-10
-3.13988e-10
-3.13968e-10
-3.13987e-10
-3.13971e-10
-3.13979e-10
-3.13973e-10
-3.13983e-10
-3.13973e-10
-3.13983e-10
-3.13973e-10
-3.13983e-10
-3.13973e-10
-3.13983e-10
-3.13973e-10
-3.13982e-10
-3.13973e-10
-3.13982e-10
-3.13973e-10
-3.13982e-10
-3.13972e-10
-3.1398e-10
-3.1397e-10
-3.13978e-10
-3.13969e-10
-3.13976e-10
-3.13968e-10
-3.13974e-10
-3.13966e-10
-3.13972e-10
-3.13965e-10
-3.13971e-10
-3.13964e-10
-3.13969e-10
-3.13963e-10
-3.13967e-10
-3.13961e-10
-3.13964e-10
-3.13958e-10
-3.1396e-10
-3.13954e-10
-3.13954e-10
-3.13948e-10
-3.13947e-10
-3.13938e-10
-3.13935e-10
-3.13927e-10
-3.13929e-10
-3.14083e-10
-3.17653e-10
-4.81975e-10
)
;

boundaryField
{
    inandouthalf11
    {
        type            cyclic;
        value           nonuniform List<scalar> 
100
(
2.20366e-39
-9.54067e-14
-2.8283e-13
-4.67391e-13
-6.19156e-13
-7.42043e-13
-8.44317e-13
-9.3123e-13
-1.00427e-12
-1.0649e-12
-1.11882e-12
-1.17723e-12
-1.25568e-12
-1.37177e-12
-1.54112e-12
-1.76856e-12
-2.02828e-12
-2.23067e-12
-2.20558e-12
-1.78634e-12
-1.01185e-12
-1.87622e-13
3.92432e-13
6.85118e-13
8.02211e-13
8.43566e-13
8.56967e-13
8.59868e-13
8.57987e-13
8.53143e-13
8.46052e-13
8.37338e-13
8.27809e-13
8.18314e-13
8.09471e-13
8.01516e-13
7.9434e-13
7.87646e-13
7.81104e-13
7.74444e-13
7.67487e-13
7.60136e-13
7.52362e-13
7.44177e-13
7.35616e-13
7.26727e-13
7.17553e-13
7.08123e-13
6.98441e-13
6.88487e-13
6.78232e-13
6.67648e-13
6.56696e-13
6.45331e-13
6.33509e-13
6.21183e-13
6.08307e-13
5.94845e-13
5.80774e-13
5.66082e-13
5.50771e-13
5.34861e-13
5.18393e-13
5.01423e-13
4.84008e-13
4.66187e-13
4.47961e-13
4.29292e-13
4.10102e-13
3.90286e-13
3.69708e-13
3.4823e-13
3.25746e-13
3.02183e-13
2.77512e-13
2.51757e-13
2.24994e-13
1.97329e-13
1.68866e-13
1.39684e-13
1.09829e-13
7.93048e-14
4.80767e-14
1.60879e-14
-1.67212e-14
-5.03968e-14
-8.49596e-14
-1.20398e-13
-1.56673e-13
-1.93728e-13
-2.31501e-13
-2.69939e-13
-3.09006e-13
-3.48681e-13
-3.88964e-13
-4.29861e-13
-4.71385e-13
-5.13547e-13
-5.56357e-13
-5.99816e-13
)
;
    }
    inandouthalf12
    {
        type            cyclic;
        value           nonuniform List<scalar> 
100
(
-2.20366e-39
9.54067e-14
2.8283e-13
4.67391e-13
6.19156e-13
7.42043e-13
8.44317e-13
9.3123e-13
1.00427e-12
1.0649e-12
1.11882e-12
1.17723e-12
1.25568e-12
1.37177e-12
1.54112e-12
1.76856e-12
2.02828e-12
2.23067e-12
2.20558e-12
1.78634e-12
1.01185e-12
1.87622e-13
-3.92432e-13
-6.85118e-13
-8.02211e-13
-8.43566e-13
-8.56967e-13
-8.59868e-13
-8.57987e-13
-8.53143e-13
-8.46052e-13
-8.37338e-13
-8.27809e-13
-8.18314e-13
-8.09471e-13
-8.01516e-13
-7.9434e-13
-7.87646e-13
-7.81104e-13
-7.74444e-13
-7.67487e-13
-7.60136e-13
-7.52362e-13
-7.44177e-13
-7.35616e-13
-7.26727e-13
-7.17553e-13
-7.08123e-13
-6.98441e-13
-6.88487e-13
-6.78232e-13
-6.67648e-13
-6.56696e-13
-6.45331e-13
-6.33509e-13
-6.21183e-13
-6.08307e-13
-5.94845e-13
-5.80774e-13
-5.66082e-13
-5.50771e-13
-5.34861e-13
-5.18393e-13
-5.01423e-13
-4.84008e-13
-4.66187e-13
-4.47961e-13
-4.29292e-13
-4.10102e-13
-3.90286e-13
-3.69708e-13
-3.4823e-13
-3.25746e-13
-3.02183e-13
-2.77512e-13
-2.51757e-13
-2.24994e-13
-1.97329e-13
-1.68866e-13
-1.39684e-13
-1.09829e-13
-7.93048e-14
-4.80767e-14
-1.60879e-14
1.67212e-14
5.03968e-14
8.49596e-14
1.20398e-13
1.56673e-13
1.93728e-13
2.31501e-13
2.69939e-13
3.09006e-13
3.48681e-13
3.88964e-13
4.29861e-13
4.71385e-13
5.13547e-13
5.56357e-13
5.99816e-13
)
;
    }
    inandouthalf21
    {
        type            cyclic;
        value           nonuniform List<scalar> 
100
(
-6.43921e-13
-6.88665e-13
-7.34031e-13
-7.80001e-13
-8.26544e-13
-8.73623e-13
-9.21194e-13
-9.69203e-13
-1.01759e-12
-1.0663e-12
-1.11526e-12
-1.16443e-12
-1.21377e-12
-1.26327e-12
-1.31294e-12
-1.36285e-12
-1.41312e-12
-1.46393e-12
-1.51555e-12
-1.56834e-12
-1.62277e-12
-1.6794e-12
-1.73892e-12
-1.80216e-12
-1.87001e-12
-1.94349e-12
-2.02365e-12
-2.11154e-12
-2.20817e-12
-2.31431e-12
-2.43043e-12
-2.55656e-12
-2.69237e-12
-2.83731e-12
-2.99053e-12
-3.15036e-12
-3.31367e-12
-3.47595e-12
-3.63173e-12
-3.77333e-12
-3.88861e-12
-3.96611e-12
-4.00771e-12
-4.02614e-12
-4.0338e-12
-4.03865e-12
-4.04669e-12
-1.37987e-11
-6.64567e-11
9.32712e-08
2.03353e-07
2.34657e-07
3.43346e-07
4.66139e-07
5.69134e-07
6.41486e-07
6.92648e-07
7.31308e-07
7.62119e-07
7.87569e-07
8.09185e-07
8.27953e-07
8.44547e-07
8.59443e-07
8.72991e-07
8.85454e-07
8.9703e-07
9.07873e-07
9.18102e-07
9.2781e-07
9.37068e-07
9.45931e-07
9.54444e-07
9.62637e-07
9.70537e-07
9.7816e-07
9.85521e-07
9.92628e-07
9.99487e-07
1.0061e-06
1.01248e-06
1.01861e-06
1.0245e-06
1.03015e-06
1.03556e-06
1.04071e-06
1.04561e-06
1.05023e-06
1.05455e-06
1.05854e-06
1.06218e-06
1.06543e-06
1.06834e-06
1.07097e-06
1.07343e-06
1.07576e-06
1.07796e-06
1.08004e-06
1.08199e-06
1.08384e-06
)
;
    }
    inandouthalf22
    {
        type            cyclic;
        value           nonuniform List<scalar> 
100
(
6.43921e-13
6.88665e-13
7.34031e-13
7.80001e-13
8.26544e-13
8.73623e-13
9.21194e-13
9.69203e-13
1.01759e-12
1.0663e-12
1.11526e-12
1.16443e-12
1.21377e-12
1.26327e-12
1.31294e-12
1.36285e-12
1.41312e-12
1.46393e-12
1.51555e-12
1.56834e-12
1.62277e-12
1.6794e-12
1.73892e-12
1.80216e-12
1.87001e-12
1.94349e-12
2.02365e-12
2.11154e-12
2.20817e-12
2.31431e-12
2.43043e-12
2.55656e-12
2.69237e-12
2.83731e-12
2.99053e-12
3.15036e-12
3.31367e-12
3.47595e-12
3.63173e-12
3.77333e-12
3.88861e-12
3.96611e-12
4.00771e-12
4.02614e-12
4.0338e-12
4.03865e-12
4.04669e-12
1.37987e-11
6.64567e-11
-9.32712e-08
-2.03353e-07
-2.34657e-07
-3.43346e-07
-4.66139e-07
-5.69134e-07
-6.41486e-07
-6.92648e-07
-7.31308e-07
-7.62119e-07
-7.87569e-07
-8.09185e-07
-8.27953e-07
-8.44547e-07
-8.59443e-07
-8.72991e-07
-8.85454e-07
-8.9703e-07
-9.07873e-07
-9.18102e-07
-9.2781e-07
-9.37068e-07
-9.45931e-07
-9.54444e-07
-9.62637e-07
-9.70537e-07
-9.7816e-07
-9.85521e-07
-9.92628e-07
-9.99487e-07
-1.0061e-06
-1.01248e-06
-1.01861e-06
-1.0245e-06
-1.03015e-06
-1.03556e-06
-1.04071e-06
-1.04561e-06
-1.05023e-06
-1.05455e-06
-1.05854e-06
-1.06218e-06
-1.06543e-06
-1.06834e-06
-1.07097e-06
-1.07343e-06
-1.07576e-06
-1.07796e-06
-1.08004e-06
-1.08199e-06
-1.08384e-06
)
;
    }
    inandouthalf31
    {
        type            cyclic;
        value           nonuniform List<scalar> 
110
(
1.08557e-06
1.10925e-06
1.13338e-06
1.15801e-06
1.18308e-06
1.20856e-06
1.23454e-06
1.26112e-06
1.28815e-06
1.3156e-06
1.34364e-06
1.37225e-06
1.40133e-06
1.43098e-06
1.4612e-06
1.49188e-06
1.5232e-06
1.55519e-06
1.58756e-06
1.62041e-06
1.65397e-06
1.68803e-06
1.72253e-06
1.7575e-06
1.79302e-06
1.82932e-06
1.86632e-06
1.90381e-06
1.94206e-06
1.98105e-06
2.02052e-06
2.06069e-06
2.10144e-06
2.14241e-06
2.18301e-06
2.22453e-06
2.26923e-06
2.31649e-06
2.36467e-06
2.41207e-06
2.45114e-06
-3.66977e-06
2.55607e-06
2.60798e-06
2.66092e-06
2.71493e-06
2.77003e-06
2.82626e-06
2.88362e-06
2.94215e-06
3.00187e-06
3.0628e-06
3.12496e-06
3.18839e-06
3.25311e-06
3.31914e-06
3.38651e-06
3.45525e-06
3.52538e-06
3.59693e-06
3.66994e-06
3.74443e-06
3.82043e-06
3.89798e-06
3.9771e-06
4.05782e-06
4.14018e-06
4.22422e-06
4.30996e-06
4.39744e-06
4.4867e-06
4.57776e-06
4.67068e-06
4.76548e-06
4.86221e-06
4.9609e-06
5.06159e-06
5.16433e-06
5.26915e-06
5.3761e-06
5.48522e-06
5.59656e-06
5.71015e-06
5.82605e-06
5.94431e-06
6.06496e-06
6.18806e-06
6.31366e-06
6.44181e-06
6.57257e-06
6.70597e-06
6.84208e-06
6.98096e-06
7.12266e-06
7.26723e-06
7.41473e-06
7.56523e-06
7.71879e-06
7.87546e-06
8.03531e-06
8.1984e-06
8.36481e-06
8.53459e-06
8.70782e-06
8.88457e-06
9.0649e-06
9.24889e-06
9.43662e-06
9.62816e-06
9.82358e-06
)
;
    }
    inandouthalf32
    {
        type            cyclic;
        value           nonuniform List<scalar> 
110
(
-1.08557e-06
-1.10925e-06
-1.13338e-06
-1.15801e-06
-1.18308e-06
-1.20856e-06
-1.23454e-06
-1.26112e-06
-1.28815e-06
-1.3156e-06
-1.34364e-06
-1.37225e-06
-1.40133e-06
-1.43098e-06
-1.4612e-06
-1.49188e-06
-1.5232e-06
-1.55519e-06
-1.58756e-06
-1.62041e-06
-1.65397e-06
-1.68803e-06
-1.72253e-06
-1.7575e-06
-1.79302e-06
-1.82932e-06
-1.86632e-06
-1.90381e-06
-1.94206e-06
-1.98105e-06
-2.02052e-06
-2.06069e-06
-2.10144e-06
-2.14241e-06
-2.18301e-06
-2.22453e-06
-2.26923e-06
-2.31649e-06
-2.36467e-06
-2.41207e-06
-2.45114e-06
3.66977e-06
-2.55607e-06
-2.60798e-06
-2.66092e-06
-2.71493e-06
-2.77003e-06
-2.82626e-06
-2.88362e-06
-2.94215e-06
-3.00187e-06
-3.0628e-06
-3.12496e-06
-3.18839e-06
-3.25311e-06
-3.31914e-06
-3.38651e-06
-3.45525e-06
-3.52538e-06
-3.59693e-06
-3.66994e-06
-3.74443e-06
-3.82043e-06
-3.89798e-06
-3.9771e-06
-4.05782e-06
-4.14018e-06
-4.22422e-06
-4.30996e-06
-4.39744e-06
-4.4867e-06
-4.57776e-06
-4.67068e-06
-4.76548e-06
-4.86221e-06
-4.9609e-06
-5.06159e-06
-5.16433e-06
-5.26915e-06
-5.3761e-06
-5.48522e-06
-5.59656e-06
-5.71015e-06
-5.82605e-06
-5.94431e-06
-6.06496e-06
-6.18806e-06
-6.31366e-06
-6.44181e-06
-6.57257e-06
-6.70597e-06
-6.84208e-06
-6.98096e-06
-7.12266e-06
-7.26723e-06
-7.41473e-06
-7.56523e-06
-7.71879e-06
-7.87546e-06
-8.03531e-06
-8.1984e-06
-8.36481e-06
-8.53459e-06
-8.70782e-06
-8.88457e-06
-9.0649e-06
-9.24889e-06
-9.43662e-06
-9.62816e-06
-9.82358e-06
)
;
    }
    inandouthalf41
    {
        type            cyclic;
        value           nonuniform List<scalar> 
50
(
8.79311e-06
8.79311e-06
8.79311e-06
8.79311e-06
8.79311e-06
8.79311e-06
8.79311e-06
8.79311e-06
8.79311e-06
8.79311e-06
8.79311e-06
8.79311e-06
8.79311e-06
8.79311e-06
8.79311e-06
8.79311e-06
8.79311e-06
8.79311e-06
8.79311e-06
8.79311e-06
8.79311e-06
8.79311e-06
8.79311e-06
8.79311e-06
8.79311e-06
8.79311e-06
8.79311e-06
8.79311e-06
8.79311e-06
8.79311e-06
8.79311e-06
8.79311e-06
8.79311e-06
8.79311e-06
8.79311e-06
8.79311e-06
8.79311e-06
8.79311e-06
8.79311e-06
8.79311e-06
8.79311e-06
8.79311e-06
8.79311e-06
8.79311e-06
8.79311e-06
8.79311e-06
8.79311e-06
8.79312e-06
8.79327e-06
8.79689e-06
)
;
    }
    inandouthalf42
    {
        type            cyclic;
        value           nonuniform List<scalar> 
50
(
-8.79311e-06
-8.79311e-06
-8.79311e-06
-8.79311e-06
-8.79311e-06
-8.79311e-06
-8.79311e-06
-8.79311e-06
-8.79311e-06
-8.79311e-06
-8.79311e-06
-8.79311e-06
-8.79311e-06
-8.79311e-06
-8.79311e-06
-8.79311e-06
-8.79311e-06
-8.79311e-06
-8.79311e-06
-8.79311e-06
-8.79311e-06
-8.79311e-06
-8.79311e-06
-8.79311e-06
-8.79311e-06
-8.79311e-06
-8.79311e-06
-8.79311e-06
-8.79311e-06
-8.79311e-06
-8.79311e-06
-8.79311e-06
-8.79311e-06
-8.79311e-06
-8.79311e-06
-8.79311e-06
-8.79311e-06
-8.79311e-06
-8.79311e-06
-8.79311e-06
-8.79311e-06
-8.79311e-06
-8.79311e-06
-8.79311e-06
-8.79311e-06
-8.79311e-06
-8.79311e-06
-8.79312e-06
-8.79327e-06
-8.79689e-06
)
;
    }
    top
    {
        type            symmetryPlane;
        value           uniform 0;
    }
    walls
    {
        type            calculated;
        value           uniform 0;
    }
    frontAndBackPlanes
    {
        type            empty;
        value           nonuniform 0();
    }
}


// ************************************************************************* //
