/*--------------------------------*- C++ -*----------------------------------*\
| =========                 |                                                 |
| \\      /  F ield         | OpenFOAM: The Open Source CFD Toolbox           |
|  \\    /   O peration     | Version:  2.4.x                                 |
|   \\  /    A nd           | Web:      www.OpenFOAM.org                      |
|    \\/     M anipulation  |                                                 |
\*---------------------------------------------------------------------------*/
FoamFile
{
    version     2.0;
    format      ascii;
    class       volVectorField;
    location    "3.35";
    object      ddt0(Ub);
}
// * * * * * * * * * * * * * * * * * * * * * * * * * * * * * * * * * * * * * //

dimensions      [0 1 -2 0 0 0 0];

internalField   nonuniform List<vector> 
360
(
(0.000163639 -1.4862e-07 0)
(0.000164112 -8.41367e-07 0)
(0.000164142 -1.9938e-06 0)
(0.000164234 -3.13943e-06 0)
(0.000164377 -4.11603e-06 0)
(0.000164548 -4.92748e-06 0)
(0.000164732 -5.62741e-06 0)
(0.000164896 -6.24997e-06 0)
(0.000165019 -6.80409e-06 0)
(0.000165111 -7.29756e-06 0)
(0.000165196 -7.76378e-06 0)
(0.0001653 -8.27167e-06 0)
(0.00016545 -8.92159e-06 0)
(0.000165671 -9.8307e-06 0)
(0.000165986 -1.11054e-05 0)
(0.000166407 -1.27782e-05 0)
(0.000166898 -1.46703e-05 0)
(0.000167319 -1.61907e-05 0)
(0.000167401 -1.63012e-05 0)
(0.000166873 -1.40598e-05 0)
(0.000165765 -9.65198e-06 0)
(0.000164528 -4.66353e-06 0)
(0.000163621 -8.08069e-07 0)
(0.000163144 1.36799e-06 0)
(0.000162946 2.32573e-06 0)
(0.000162875 2.68176e-06 0)
(0.000162852 2.80048e-06 0)
(0.000162848 2.83201e-06 0)
(0.000162852 2.82832e-06 0)
(0.000162861 2.80674e-06 0)
(0.000162872 2.77401e-06 0)
(0.000162887 2.73448e-06 0)
(0.000162902 2.69223e-06 0)
(0.000162919 2.651e-06 0)
(0.000162933 2.61323e-06 0)
(0.000162948 2.57983e-06 0)
(0.000162961 2.55024e-06 0)
(0.000162975 2.52325e-06 0)
(0.00016299 2.49749e-06 0)
(0.000163004 2.47188e-06 0)
(0.00016302 2.44578e-06 0)
(0.000163037 2.41878e-06 0)
(0.000163055 2.39084e-06 0)
(0.000163075 2.36201e-06 0)
(0.000163096 2.33238e-06 0)
(0.000163119 2.30217e-06 0)
(0.000163142 2.2715e-06 0)
(0.000163166 2.24044e-06 0)
(0.000163193 2.20905e-06 0)
(0.000163222 2.17723e-06 0)
(0.000163251 2.1449e-06 0)
(0.000163283 2.112e-06 0)
(0.000163316 2.07839e-06 0)
(0.000163351 2.04396e-06 0)
(0.000163387 2.00859e-06 0)
(0.000163428 1.97216e-06 0)
(0.000163469 1.93452e-06 0)
(0.000163513 1.89562e-06 0)
(0.000163559 1.85536e-06 0)
(0.000163607 1.81376e-06 0)
(0.000163658 1.77082e-06 0)
(0.00016371 1.72661e-06 0)
(0.000163765 1.68125e-06 0)
(0.00016382 1.6349e-06 0)
(0.000163877 1.58774e-06 0)
(0.000163935 1.53984e-06 0)
(0.000163995 1.49124e-06 0)
(0.000164057 1.44184e-06 0)
(0.00016412 1.39144e-06 0)
(0.000164186 1.33978e-06 0)
(0.000164256 1.28653e-06 0)
(0.000164328 1.23133e-06 0)
(0.000164402 1.17396e-06 0)
(0.00016448 1.11425e-06 0)
(0.00016456 1.05212e-06 0)
(0.000164643 9.87664e-07 0)
(0.000164727 9.21062e-07 0)
(0.000164813 8.52595e-07 0)
(0.000164901 7.82518e-07 0)
(0.000164992 7.11034e-07 0)
(0.000165084 6.38257e-07 0)
(0.000165179 5.64202e-07 0)
(0.000165276 4.88793e-07 0)
(0.000165376 4.11909e-07 0)
(0.000165479 3.33422e-07 0)
(0.000165584 2.53238e-07 0)
(0.000165692 1.71319e-07 0)
(0.000165801 8.77087e-08 0)
(0.000165914 2.51313e-09 0)
(0.000166028 -8.4126e-08 0)
(0.000166145 -1.72061e-07 0)
(0.000166264 -2.61155e-07 0)
(0.000166386 -3.51304e-07 0)
(0.00016651 -4.42453e-07 0)
(0.000166637 -5.34583e-07 0)
(0.000166767 -6.27698e-07 0)
(0.000166899 -7.21799e-07 0)
(0.000167034 -8.16893e-07 0)
(0.000167172 -9.12982e-07 0)
(0.000167313 -1.01004e-06 0)
(0.000167456 -1.10803e-06 0)
(0.000167603 -1.20692e-06 0)
(0.000167753 -1.30663e-06 0)
(0.000167906 -1.4071e-06 0)
(0.000168062 -1.50824e-06 0)
(0.000168221 -1.60995e-06 0)
(0.000168384 -1.71209e-06 0)
(0.00016855 -1.81454e-06 0)
(0.00016872 -1.91715e-06 0)
(0.000168893 -2.01976e-06 0)
(0.00016907 -2.12224e-06 0)
(0.00016925 -2.22447e-06 0)
(0.000169435 -2.32635e-06 0)
(0.000169623 -2.42785e-06 0)
(0.000169816 -2.52896e-06 0)
(0.000170014 -2.62981e-06 0)
(0.000170216 -2.73059e-06 0)
(0.000170424 -2.8316e-06 0)
(0.000170638 -2.93332e-06 0)
(0.000170858 -3.03632e-06 0)
(0.000171086 -3.14134e-06 0)
(0.000171322 -3.24929e-06 0)
(0.000171567 -3.36119e-06 0)
(0.000171822 -3.47819e-06 0)
(0.000172088 -3.60151e-06 0)
(0.000172367 -3.73237e-06 0)
(0.000172659 -3.87195e-06 0)
(0.000172968 -4.02124e-06 0)
(0.000173293 -4.18094e-06 0)
(0.000173637 -4.35129e-06 0)
(0.000174 -4.53186e-06 0)
(0.000174383 -4.72149e-06 0)
(0.000174786 -4.91843e-06 0)
(0.000175213 -5.12064e-06 0)
(0.000175666 -5.32584e-06 0)
(0.000176143 -5.53078e-06 0)
(0.000176638 -5.73058e-06 0)
(0.000177152 -5.91902e-06 0)
(0.000177696 -6.08963e-06 0)
(0.000178284 -6.23573e-06 0)
(0.000178885 -6.34891e-06 0)
(0.000179421 -6.41886e-06 0)
(0.000180009 -6.45e-06 0)
(0.000180747 -6.45583e-06 0)
(0.000181635 -6.44551e-06 0)
(0.000182926 -6.33226e-06 0)
(0.000188341 -9.84704e-06 0)
(0.000197693 -2.86024e-05 0)
(8.48181e-05 5.06514e-05 0)
(-0.102301 -0.000233533 0)
(-0.203558 -0.00238141 0)
(-0.21288 -0.00103544 0)
(-0.310809 -0.00143395 0)
(-0.440025 -0.000965426 0)
(-0.573738 -0.000603287 0)
(-0.680758 -0.00039281 0)
(-0.752884 -0.000275682 0)
(-0.799144 -0.000213832 0)
(-0.829823 -0.00017958 0)
(-0.851635 -0.000156312 0)
(-0.868369 -0.000138206 0)
(-0.88212 -0.000123256 0)
(-0.89405 -0.00011048 0)
(-0.904818 -9.93034e-05 0)
(-0.914815 -8.93665e-05 0)
(-0.924272 -8.04423e-05 0)
(-0.933333 -7.23767e-05 0)
(-0.942084 -6.50581e-05 0)
(-0.950582 -5.84012e-05 0)
(-0.958861 -5.23384e-05 0)
(-0.966946 -4.68141e-05 0)
(-0.974851 -4.1782e-05 0)
(-0.982587 -3.72028e-05 0)
(-0.990162 -3.30428e-05 0)
(-0.997583 -2.92725e-05 0)
(-1.00485 -2.58656e-05 0)
(-1.01198 -2.2798e-05 0)
(-1.01897 -2.00466e-05 0)
(-1.02581 -1.75891e-05 0)
(-1.03253 -1.54031e-05 0)
(-1.03911 -1.34665e-05 0)
(-1.04557 -1.17574e-05 0)
(-1.05191 -1.02541e-05 0)
(-1.05812 -8.93596e-06 0)
(-1.06422 -7.7827e-06 0)
(-1.07021 -6.77401e-06 0)
(-1.07608 -5.88809e-06 0)
(-1.08184 -5.09942e-06 0)
(-1.0875 -4.37682e-06 0)
(-1.09305 -3.68535e-06 0)
(-1.0985 -2.99702e-06 0)
(-1.10385 -2.31033e-06 0)
(-1.1091 -1.66452e-06 0)
(-1.11424 -1.12505e-06 0)
(-1.11929 -7.38659e-07 0)
(-1.12423 -4.98519e-07 0)
(-1.12906 -3.56877e-07 0)
(-1.13379 -2.6604e-07 0)
(-1.13842 -2.0171e-07 0)
(-1.14293 -1.56586e-07 0)
(-1.14734 -1.25597e-07 0)
(-1.15168 -1.00726e-07 0)
(-1.15598 -7.80652e-08 0)
(-1.16024 -6.15401e-08 0)
(-1.16445 -5.28587e-08 0)
(-1.16859 -4.50994e-08 0)
(-1.17264 -3.46395e-08 0)
(-1.17659 -2.72672e-08 0)
(-1.18041 -2.48204e-08 0)
(-1.18408 -2.18195e-08 0)
(-1.18756 -1.73755e-08 0)
(-1.19081 -1.46352e-08 0)
(-1.19378 -1.29623e-08 0)
(-1.19641 -1.10439e-08 0)
(-1.19861 -9.72124e-09 0)
(-1.20028 -8.51335e-09 0)
(-1.20127 -6.79828e-09 0)
(-1.20138 -5.89571e-09 0)
(-1.20032 -5.78385e-09 0)
(-1.19767 -5.10369e-09 0)
(-1.19266 -4.19141e-09 0)
(-1.18349 -1.48362e-09 0)
(-1.16727 -7.82502e-09 0)
(-1.1171 3.22197e-09 0)
(-1.09703 -8.53211e-09 0)
(-1.09613 3.47523e-09 0)
(-1.09611 -6.65345e-09 0)
(-1.0961 2.91751e-09 0)
(-1.0961 -5.695e-09 0)
(-1.0961 3.43568e-09 0)
(-1.0961 -5.6734e-09 0)
(-1.09609 4.10349e-09 0)
(-1.09609 -5.58805e-09 0)
(-1.09609 4.34928e-09 0)
(-1.09609 -5.61333e-09 0)
(-1.09609 4.78344e-09 0)
(-1.09609 -4.36608e-09 0)
(-1.09609 4.93257e-09 0)
(-1.09609 -4.32093e-09 0)
(-1.09609 4.34781e-09 0)
(-1.09609 -6.86169e-09 0)
(-1.09609 9.34347e-09 0)
(-1.09609 -1.03563e-08 0)
(-1.09609 1.10925e-08 0)
(-1.09609 -1.09251e-08 0)
(-1.09609 1.15021e-08 0)
(-1.09609 -1.11904e-08 0)
(-1.09609 1.17423e-08 0)
(-1.09609 -1.14095e-08 0)
(-1.09609 1.20161e-08 0)
(-1.09609 -1.17288e-08 0)
(-1.09609 1.24058e-08 0)
(-1.09609 -1.21928e-08 0)
(-1.09609 1.291e-08 0)
(-1.09609 -1.27886e-08 0)
(-1.09609 1.35107e-08 0)
(-1.09609 -1.34815e-08 0)
(-1.09609 1.41737e-08 0)
(-1.09609 -1.42431e-08 0)
(-1.09609 1.48693e-08 0)
(-1.09609 -1.50575e-08 0)
(-1.09608 1.55869e-08 0)
(-1.09608 -1.58939e-08 0)
(-1.09608 1.63327e-08 0)
(-1.09608 -1.67257e-08 0)
(-1.09608 1.71533e-08 0)
(-1.09608 -1.75119e-08 0)
(-1.09608 1.80103e-08 0)
(-1.09608 -1.83085e-08 0)
(-1.09608 1.88868e-08 0)
(-1.09608 -1.91144e-08 0)
(-1.09608 1.9755e-08 0)
(-1.09608 -1.99484e-08 0)
(-1.09608 2.0643e-08 0)
(-1.09608 -2.07789e-08 0)
(-1.09608 2.15223e-08 0)
(-1.09608 -2.16406e-08 0)
(-1.09608 2.23971e-08 0)
(-1.09608 -2.25154e-08 0)
(-1.09608 2.32539e-08 0)
(-1.09608 -2.34092e-08 0)
(-1.09608 2.41293e-08 0)
(-1.09608 -2.42852e-08 0)
(-1.09608 2.49976e-08 0)
(-1.09608 -2.51747e-08 0)
(-1.09608 2.58613e-08 0)
(-1.09608 -2.60663e-08 0)
(-1.09608 2.67064e-08 0)
(-1.09608 -2.69639e-08 0)
(-1.09608 2.75487e-08 0)
(-1.09608 -2.78481e-08 0)
(-1.09608 2.83681e-08 0)
(-1.09608 -2.8736e-08 0)
(-1.09608 2.91736e-08 0)
(-1.09608 -2.96026e-08 0)
(-1.09608 2.99271e-08 0)
(-1.09608 -3.04582e-08 0)
(-1.09608 3.07803e-08 0)
(-1.09608 -3.11606e-08 0)
(-1.09608 3.15926e-08 0)
(-1.09608 -3.18576e-08 0)
(-1.09608 3.23702e-08 0)
(-1.09608 -3.24972e-08 0)
(-1.09608 3.30704e-08 0)
(-1.09608 -3.30769e-08 0)
(-1.09608 3.36919e-08 0)
(-1.09608 -3.35304e-08 0)
(-1.09608 3.41607e-08 0)
(-1.09608 -3.38114e-08 0)
(-1.09608 3.43745e-08 0)
(-1.09608 -2.9539e-08 0)
(-1.09608 2.92289e-08 0)
(-1.09608 -2.76211e-08 0)
(-1.09608 2.7042e-08 0)
(-1.09608 -2.26002e-08 0)
(-1.09608 2.23459e-08 0)
(-1.09608 -2.08126e-08 0)
(-1.09608 2.09642e-08 0)
(-1.09608 -1.95984e-08 0)
(-1.09608 1.99136e-08 0)
(-1.09608 -1.86565e-08 0)
(-1.09608 1.90864e-08 0)
(-1.09608 -1.78223e-08 0)
(-1.09608 1.83367e-08 0)
(-1.09608 -1.71058e-08 0)
(-1.09608 1.76756e-08 0)
(-1.09608 -1.64038e-08 0)
(-1.09608 1.70819e-08 0)
(-1.09608 -1.54575e-08 0)
(-1.09608 1.74385e-08 0)
(-1.09608 -1.36796e-08 0)
(-1.09608 1.79962e-08 0)
(-1.09608 -1.20385e-08 0)
(-1.09608 1.85741e-08 0)
(-1.09608 -1.04898e-08 0)
(-1.09608 1.89085e-08 0)
(-1.09608 -9.18374e-09 0)
(-1.09608 1.93975e-08 0)
(-1.09608 -7.74298e-09 0)
(-1.09608 1.97622e-08 0)
(-1.09608 -6.51868e-09 0)
(-1.09608 2.02044e-08 0)
(-1.09608 -5.15022e-09 0)
(-1.09608 2.07235e-08 0)
(-1.09608 -3.67705e-09 0)
(-1.09608 2.17916e-08 0)
(-1.09608 -1.48379e-09 0)
(-1.09608 2.36406e-08 0)
(-1.09608 1.51396e-09 0)
(-1.09608 2.64008e-08 0)
(-1.09608 5.43242e-09 0)
(-1.09608 3.05381e-08 0)
(-1.09608 1.1304e-08 0)
(-1.09608 3.71752e-08 0)
(-1.09608 1.91551e-08 0)
(-1.09608 4.49682e-08 0)
(-1.09608 2.817e-08 0)
(-1.09608 5.55347e-08 0)
(-1.09608 4.24996e-08 0)
(-1.09608 3.94725e-08 0)
)
;

boundaryField
{
    inandouthalf11
    {
        type            cyclic;
    }
    inandouthalf12
    {
        type            cyclic;
    }
    inandouthalf21
    {
        type            cyclic;
    }
    inandouthalf22
    {
        type            cyclic;
    }
    inandouthalf31
    {
        type            cyclic;
    }
    inandouthalf32
    {
        type            cyclic;
    }
    inandouthalf41
    {
        type            cyclic;
    }
    inandouthalf42
    {
        type            cyclic;
    }
    top
    {
        type            symmetryPlane;
    }
    walls
    {
        type            calculated;
        value           uniform (0 0 0);
    }
    frontAndBackPlanes
    {
        type            empty;
    }
}


// ************************************************************************* //
