/*--------------------------------*- C++ -*----------------------------------*\
| =========                 |                                                 |
| \\      /  F ield         | OpenFOAM: The Open Source CFD Toolbox           |
|  \\    /   O peration     | Version:  2.4.x                                 |
|   \\  /    A nd           | Web:      www.OpenFOAM.org                      |
|    \\/     M anipulation  |                                                 |
\*---------------------------------------------------------------------------*/
FoamFile
{
    version     2.0;
    format      ascii;
    class       volScalarField;
    location    "3.35";
    object      ddt0(alpha);
}
// * * * * * * * * * * * * * * * * * * * * * * * * * * * * * * * * * * * * * //

dimensions      [0 0 -1 0 0 0 0];

internalField   nonuniform List<scalar> 
360
(
0.000250229
0.000551498
0.000580119
0.000528019
0.000496462
0.00049511
0.000509468
0.000523647
0.0005279
0.000524395
0.000520245
0.000522345
0.000536545
0.000566689
0.000616861
0.000689088
0.000777099
0.000855754
0.000875429
0.000785865
0.000587089
0.000355652
0.000176263
7.5765e-05
3.1403e-05
1.42616e-05
7.85226e-06
5.47526e-06
4.74491e-06
4.80392e-06
5.28145e-06
5.97877e-06
6.66992e-06
7.23744e-06
7.58649e-06
7.71285e-06
7.6712e-06
7.53297e-06
7.39186e-06
7.24377e-06
7.13843e-06
7.09784e-06
7.08048e-06
7.11482e-06
7.18326e-06
7.26308e-06
7.36754e-06
7.46735e-06
7.57028e-06
7.71623e-06
7.86446e-06
8.02347e-06
8.19491e-06
8.39365e-06
8.59995e-06
8.8458e-06
9.10591e-06
9.38669e-06
9.68843e-06
9.97224e-06
1.02681e-05
1.05365e-05
1.07779e-05
1.09784e-05
1.11431e-05
1.12821e-05
1.14251e-05
1.15995e-05
1.18272e-05
1.21102e-05
1.24755e-05
1.29312e-05
1.34221e-05
1.39515e-05
1.44819e-05
1.49971e-05
1.54578e-05
1.58576e-05
1.62076e-05
1.6527e-05
1.68274e-05
1.71353e-05
1.74689e-05
1.78315e-05
1.82217e-05
1.86258e-05
1.90309e-05
1.94177e-05
1.97731e-05
2.00929e-05
2.03781e-05
2.0633e-05
2.0868e-05
2.10914e-05
2.13084e-05
2.15216e-05
2.17304e-05
2.19321e-05
2.21229e-05
2.22995e-05
2.24587e-05
2.2598e-05
2.27152e-05
2.28084e-05
2.28755e-05
2.29148e-05
2.29252e-05
2.29066e-05
2.28602e-05
2.27891e-05
2.26978e-05
2.25931e-05
2.24837e-05
2.23802e-05
2.22952e-05
2.22426e-05
2.22375e-05
2.22949e-05
2.24291e-05
2.26515e-05
2.29694e-05
2.33833e-05
2.38846e-05
2.44544e-05
2.50627e-05
2.56697e-05
2.62282e-05
2.66855e-05
2.69841e-05
2.70626e-05
2.68632e-05
2.63484e-05
2.55241e-05
2.44485e-05
2.31773e-05
2.16406e-05
1.96286e-05
1.69311e-05
1.34307e-05
9.23779e-06
4.61388e-06
-1.34986e-06
-7.34795e-06
-1.21692e-05
-1.9075e-05
-0.00010395
0.000330976
0.000230291
-0.00243677
-0.548298
0.0129101
0.191214
0.172926
0.116547
0.0635935
0.0255745
0.00805485
0.00120329
-0.00144978
-0.00261244
-0.00310709
-0.00327777
-0.00328537
-0.0032069
-0.00308259
-0.00293445
-0.00277496
-0.00261141
-0.00244806
-0.00228744
-0.00213102
-0.00197965
-0.00183384
-0.00169397
-0.00156039
-0.00143348
-0.00131365
-0.00120136
-0.00109702
-0.00100097
-0.000913467
-0.000834604
-0.000764328
-0.000702399
-0.000648317
-0.000601179
-0.00055942
-0.000520445
-0.000480316
-0.000433974
-0.000376864
-0.000308362
-0.00023504
-0.000169107
-0.000120365
-8.91794e-05
-6.91931e-05
-5.48743e-05
-4.39957e-05
-3.60025e-05
-3.03369e-05
-2.55533e-05
-2.08036e-05
-1.715e-05
-1.52618e-05
-1.33128e-05
-1.04676e-05
-8.72801e-06
-8.14516e-06
-6.90016e-06
-5.50941e-06
-4.90015e-06
-4.27471e-06
-3.48302e-06
-3.09177e-06
-2.7018e-06
-2.09584e-06
-1.84105e-06
-1.72778e-06
-1.36277e-06
-1.11553e-06
-1.00944e-06
-8.47281e-07
-7.36494e-07
-6.24136e-07
-4.91286e-07
-4.44393e-07
-3.80507e-07
-2.91652e-07
-2.61432e-07
-2.17101e-07
-1.70943e-07
-1.49737e-07
-1.28579e-07
-1.2109e-07
-5.55602e-08
-1.0869e-08
-5.61251e-09
-2.36685e-08
-9.29046e-08
-1.25968e-07
-2.9893e-08
-4.80936e-13
-1.14304e-13
-1.20976e-13
-1.40421e-13
-1.1417e-13
-4.35338e-14
-2.24944e-14
-1.60933e-14
-2.26947e-14
-3.44956e-14
-3.68185e-14
-1.4264e-14
-6.77242e-15
-4.20709e-15
-5.15767e-15
-7.6225e-15
-7.46436e-15
-2.66124e-15
-1.34141e-15
-9.40283e-16
-1.28227e-15
-1.71551e-15
-7.91953e-16
-3.42373e-16
-1.99598e-16
-2.16675e-16
-3.10986e-16
-2.07925e-16
-8.71337e-17
-5.27795e-17
-6.07774e-17
-5.29039e-17
-1.54698e-17
-6.19682e-18
-2.83123e-18
-1.32722e-18
-6.25328e-19
-2.97367e-19
-1.4247e-19
-6.80896e-20
-3.21326e-20
-1.48746e-20
-6.72631e-21
-2.96179e-21
-1.26637e-21
-5.24403e-22
-2.09789e-22
-8.08777e-23
-2.99707e-23
-1.0647e-23
-3.61562e-24
-1.17007e-24
-3.59611e-25
-1.04563e-25
-2.864e-26
-7.35294e-27
-1.75934e-27
-3.89682e-28
-7.92589e-29
-1.46593e-29
-2.43568e-30
-3.57929e-31
-4.55666e-32
-4.88209e-33
-4.2154e-34
-2.72801e-35
-1.14164e-36
-1.87464e-38
-8.12808e-41
-1.61128e-42
-1.58323e-44
-2.24558e-55
-1.61005e-66
-8.66692e-78
-3.38654e-89
-1.18692e-100
-3.67483e-112
-1.62851e-123
-1.7711e-131
-3.87598e-142
-6.09611e-150
-1.28712e-160
-2.09707e-168
-5.50596e-179
-7.21205e-187
-2.49563e-197
-2.48208e-205
-1.70339e-215
-8.60831e-224
-1.13654e-233
-3.02246e-242
-5.77243e-252
-1.07428e-260
-2.73878e-270
-3.86879e-279
-1.21013e-288
-1.41169e-297
-5.18559e-307
-6.12319e-316
2.32557e-320
0
0
0
0
0
0
0
0
0
0
0
0
0
0
0
0
0
0
)
;

boundaryField
{
    inandouthalf11
    {
        type            cyclic;
    }
    inandouthalf12
    {
        type            cyclic;
    }
    inandouthalf21
    {
        type            cyclic;
    }
    inandouthalf22
    {
        type            cyclic;
    }
    inandouthalf31
    {
        type            cyclic;
    }
    inandouthalf32
    {
        type            cyclic;
    }
    inandouthalf41
    {
        type            cyclic;
    }
    inandouthalf42
    {
        type            cyclic;
    }
    top
    {
        type            symmetryPlane;
    }
    walls
    {
        type            calculated;
        value           uniform 0.000250229;
    }
    frontAndBackPlanes
    {
        type            empty;
    }
}


// ************************************************************************* //
