/*--------------------------------*- C++ -*----------------------------------*\
| =========                 |                                                 |
| \\      /  F ield         | OpenFOAM: The Open Source CFD Toolbox           |
|  \\    /   O peration     | Version:  2.4.x                                 |
|   \\  /    A nd           | Web:      www.OpenFOAM.org                      |
|    \\/     M anipulation  |                                                 |
\*---------------------------------------------------------------------------*/
FoamFile
{
    version     2.0;
    format      ascii;
    class       volVectorField;
    location    "3.35";
    object      gradPf;
}
// * * * * * * * * * * * * * * * * * * * * * * * * * * * * * * * * * * * * * //

dimensions      [0 1 -2 0 0 0 0];

internalField   nonuniform List<vector> 
360
(
(0 22.369 0)
(0 32.8657 0)
(0 10.0554 0)
(0 -3.08414 0)
(-1.6749e-14 -5.14662 0)
(-3.35e-14 -5.11173 0)
(-3.35021e-14 -5.00508 0)
(0 -4.36941 0)
(-1.67529e-14 -3.77316 0)
(0 -3.67409 0)
(-3.35088e-14 -3.7923 0)
(0 -3.95121 0)
(-3.35123e-14 -4.07551 0)
(0 -4.18957 0)
(0 -4.44955 0)
(0 -4.89024 0)
(0 -5.43367 0)
(-3.3523e-14 -5.8801 0)
(0 -5.96452 0)
(0 -5.32209 0)
(0 -4.05383 0)
(-1.67662e-14 -2.63525 0)
(0 -1.44987 0)
(0 -0.736749 0)
(0 -0.396946 0)
(-1.67671e-14 -0.257614 0)
(0 -0.257005 0)
(0 -0.289899 0)
(0 -0.284536 0)
(0 -0.287329 0)
(0 -0.345029 0)
(0 -0.349186 0)
(0 -0.40492 0)
(0 -0.458085 0)
(0 -0.456248 0)
(1.6768e-14 -0.504696 0)
(0 -0.55115 0)
(0 -0.648641 0)
(0 -0.642262 0)
(0 -0.690075 0)
(0 -0.78833 0)
(0 -0.781021 0)
(1.67692e-14 -0.87614 0)
(0 -0.96834 0)
(0 -1.00803 0)
(0 -1.09749 0)
(0 -1.13148 0)
(0 -1.211 0)
(0 -1.38459 0)
(0 -1.45345 0)
(3.35432e-14 -1.52092 0)
(0 -1.6342 0)
(0 -1.73787 0)
(0 -1.83172 0)
(0 -1.96082 0)
(0 -2.07648 0)
(0 -2.1773 0)
(0 -2.30779 0)
(0 -2.37103 0)
(0 -2.4973 0)
(0 -2.59128 0)
(0 -2.64874 0)
(0 -2.71487 0)
(0 -2.74583 0)
(0 -2.78812 0)
(0 -2.84406 0)
(0 -2.92207 0)
(0 -2.99308 0)
(0 -3.05656 0)
(0 -3.16024 0)
(0 -3.28168 0)
(0 -3.3291 0)
(0 -3.39163 0)
(0 -3.46595 0)
(0 -3.51314 0)
(0 -3.54363 0)
(0 -3.55776 0)
(0 -3.59652 0)
(0 -3.63821 0)
(0 -3.67389 0)
(0 -3.71787 0)
(0 -3.77387 0)
(0 -3.82251 0)
(0 -3.86719 0)
(0 -3.90611 0)
(0 -3.93912 0)
(0 -3.96498 0)
(0 -3.98371 0)
(0 -4.00418 0)
(0 -4.0253 0)
(0 -4.04604 0)
(0 -4.06995 0)
(0 -4.09594 0)
(0 -4.12072 0)
(0 -4.14433 0)
(0 -4.16622 0)
(0 -4.18579 0)
(0 -4.20334 0)
(0 -4.21964 0)
(0 -4.235 0)
(0 -4.24957 0)
(0 -4.26372 0)
(0 -4.27735 0)
(0 -4.2902 0)
(0 -4.30227 0)
(0 -4.31357 0)
(0 -4.32411 0)
(0 -4.33396 0)
(0 -4.34317 0)
(0 -4.3517 0)
(0 -4.35952 0)
(0 -4.36654 0)
(0 -4.37266 0)
(0 -4.37779 0)
(0 -4.3818 0)
(0 -4.38456 0)
(0 -4.38595 0)
(0 -4.38583 0)
(0 -4.38407 0)
(0 -4.3805 0)
(0 -4.37489 0)
(0 -4.36691 0)
(0 -4.35627 0)
(0 -4.34284 0)
(0 -4.32701 0)
(0 -4.3099 0)
(0 -4.29313 0)
(0 -4.27779 0)
(0 -4.26285 0)
(0 -4.24455 0)
(0 -4.21989 0)
(0 -4.19505 0)
(0 -4.18825 0)
(0 -4.20846 0)
(0 -4.22715 0)
(0 -4.20739 0)
(0 -4.17878 0)
(0 -4.24599 0)
(0 -4.46175 0)
(0 -4.60635 0)
(0 -4.31614 0)
(0 -4.19567 0)
(0 -4.72837 0)
(0 -5.26009 0)
(0 -6.35284 0)
(0 -10.54 0)
(0 -6.8294 0)
(0 -2.502 0)
(0 -6.71559 0)
(0 -4.93189 0)
(0 0 0)
(0 0 0)
(0 0 0)
(0 0 0)
(0 0 0)
(0 0 0)
(0 0 0)
(0 0 0)
(0 0 0)
(0 0 0)
(0 0 0)
(0 0 0)
(0 0 0)
(0 0 0)
(0 0 0)
(0 0 0)
(0 0 0)
(0 0 0)
(0 0 0)
(0 0 0)
(0 0 0)
(0 0 0)
(0 0 0)
(0 0 0)
(0 0 0)
(0 0 0)
(0 0 0)
(0 0 0)
(0 0 0)
(0 0 0)
(0 0 0)
(0 0 0)
(0 0 0)
(0 0 0)
(0 0 0)
(0 0 0)
(0 0 0)
(0 0 0)
(0 0 0)
(0 0 0)
(0 0 0)
(0 0 0)
(0 0 0)
(0 0 0)
(0 0 0)
(0 0 0)
(0 0 0)
(0 0 0)
(0 0 0)
(0 0 0)
(0 0 0)
(0 0 0)
(0 0 0)
(0 0 0)
(0 0 0)
(0 0 0)
(0 0 0)
(0 0 0)
(0 0 0)
(0 0 0)
(0 0 0)
(0 0 0)
(0 0 0)
(0 0 0)
(0 0 0)
(0 0 0)
(0 0 0)
(0 0 0)
(0 0 0)
(0 0 0)
(0 0 0)
(0 0 0)
(0 0 0)
(0 0 0)
(0 0 0)
(0 0 0)
(0 0 0)
(0 0 0)
(0 0 0)
(0 0 0)
(0 0 0)
(0 0 0)
(0 0 0)
(0 0 0)
(0 0 0)
(0 0 0)
(0 0 0)
(0 0 0)
(0 0 0)
(0 0 0)
(0 0 0)
(0 0 0)
(0 0 0)
(0 0 0)
(0 0 0)
(0 0 0)
(0 0 0)
(0 0 0)
(0 0 0)
(0 0 0)
(0 0 0)
(0 0 0)
(0 0 0)
(0 0 0)
(0 0 0)
(0 0 0)
(0 0 0)
(0 0 0)
(0 0 0)
(0 0 0)
(0 0 0)
(0 0 0)
(0 0 0)
(0 0 0)
(0 0 0)
(0 0 0)
(0 0 0)
(0 0 0)
(0 0 0)
(0 0 0)
(0 0 0)
(0 0 0)
(0 0 0)
(0 0 0)
(0 0 0)
(0 0 0)
(0 0 0)
(0 0 0)
(0 0 0)
(0 0 0)
(0 0 0)
(0 0 0)
(0 0 0)
(0 0 0)
(0 0 0)
(0 0 0)
(0 0 0)
(0 0 0)
(0 0 0)
(0 0 0)
(0 0 0)
(0 0 0)
(0 0 0)
(0 0 0)
(0 0 0)
(0 0 0)
(0 0 0)
(0 0 0)
(0 0 0)
(0 0 0)
(0 0 0)
(0 0 0)
(0 0 0)
(0 0 0)
(0 0 0)
(0 0 0)
(0 0 0)
(0 0 0)
(0 0 0)
(0 0 0)
(0 0 0)
(0 0 0)
(0 0 0)
(0 0 0)
(0 0 0)
(0 0 0)
(0 0 0)
(0 0 0)
(0 0 0)
(0 0 0)
(0 0 0)
(0 0 0)
(0 0 0)
(0 0 0)
(0 0 0)
(0 0 0)
(0 0 0)
(0 0 0)
(0 0 0)
(0 0 0)
(0 0 0)
(0 0 0)
(0 0 0)
(0 0 0)
(0 0 0)
(0 0 0)
(0 0 0)
(0 0 0)
(0 0 0)
(0 0 0)
(0 0 0)
(0 0 0)
(0 0 0)
(0 0 0)
(0 0 0)
(0 0 0)
(0 0 0)
(0 0 0)
(0 0 0)
(0 0 0)
(0 0 0)
(0 0 0)
(0 0 0)
(0 0 0)
(0 0 0)
(0 0 0)
(0 0 0)
(0 0 0)
(0 0 0)
(0 0 0)
)
;

boundaryField
{
    inandouthalf11
    {
        type            cyclic;
    }
    inandouthalf12
    {
        type            cyclic;
    }
    inandouthalf21
    {
        type            cyclic;
    }
    inandouthalf22
    {
        type            cyclic;
    }
    inandouthalf31
    {
        type            cyclic;
    }
    inandouthalf32
    {
        type            cyclic;
    }
    inandouthalf41
    {
        type            cyclic;
    }
    inandouthalf42
    {
        type            cyclic;
    }
    top
    {
        type            symmetryPlane;
    }
    walls
    {
        type            calculated;
        value           uniform (0 0 0);
    }
    frontAndBackPlanes
    {
        type            empty;
    }
}


// ************************************************************************* //
