/*--------------------------------*- C++ -*----------------------------------*\
| =========                 |                                                 |
| \\      /  F ield         | OpenFOAM: The Open Source CFD Toolbox           |
|  \\    /   O peration     | Version:  2.4.x                                 |
|   \\  /    A nd           | Web:      www.OpenFOAM.org                      |
|    \\/     M anipulation  |                                                 |
\*---------------------------------------------------------------------------*/
FoamFile
{
    version     2.0;
    format      ascii;
    class       volScalarField;
    location    "3.35";
    object      mua;
}
// * * * * * * * * * * * * * * * * * * * * * * * * * * * * * * * * * * * * * //

dimensions      [1 -1 -1 0 0 0 0];

internalField   nonuniform List<scalar> 
360
(
347688
167312
165056
184425
193022
190885
183697
177110
174124
173926
173968
171823
165879
155672
141694
125567
110079
98689.5
95137.5
104604
138322
226254
453630
1.05173e+06
2.53236e+06
5.56476e+06
1.00631e+07
1.43476e+07
1.64831e+07
1.62268e+07
1.46863e+07
1.29479e+07
1.15487e+07
1.06026e+07
1.0075e+07
9.8623e+06
9.85953e+06
9.96739e+06
1.01129e+07
1.02473e+07
1.03207e+07
1.03261e+07
1.02648e+07
1.01379e+07
9.97156e+06
9.78176e+06
9.58051e+06
9.37305e+06
9.14633e+06
8.90379e+06
8.66018e+06
8.41086e+06
8.15535e+06
7.89145e+06
7.62007e+06
7.33867e+06
7.05653e+06
6.77546e+06
6.50464e+06
6.24899e+06
6.00927e+06
5.79527e+06
5.60784e+06
5.4482e+06
5.31045e+06
5.18481e+06
5.05878e+06
4.92308e+06
4.77183e+06
4.60109e+06
4.40981e+06
4.20716e+06
4.00442e+06
3.80712e+06
3.62302e+06
3.45707e+06
3.31231e+06
3.18635e+06
3.07484e+06
2.97344e+06
2.87799e+06
2.78429e+06
2.6902e+06
2.5955e+06
2.50116e+06
2.40896e+06
2.32076e+06
2.23818e+06
2.16186e+06
2.09159e+06
2.02665e+06
1.96599e+06
1.90841e+06
1.85302e+06
1.79925e+06
1.74685e+06
1.6958e+06
1.64623e+06
1.59828e+06
1.55206e+06
1.50764e+06
1.46502e+06
1.4242e+06
1.38515e+06
1.34785e+06
1.31224e+06
1.27825e+06
1.24575e+06
1.21457e+06
1.18447e+06
1.15513e+06
1.12619e+06
1.09722e+06
1.06776e+06
1.03729e+06
1.00532e+06
971401
935183
896479
855325
812021
767141
721494
676040
631762
589541
550074
513870
481307
452687
428146
407403
389533
373329
358433
346121
338282
335966
341268
365211
440817
642521
1.11664e+06
2.17149e+06
3.84762e+06
2.87342e+06
7573.26
1405.57
0.174916
0.0163069
0.00473714
0.00401407
0.00371324
0.00352978
0.00341458
0.00334607
0.00331015
0.00329786
0.00330333
0.00332211
0.00335059
0.0033859
0.00342576
0.00346837
0.00351233
0.00355655
0.00360021
0.00364265
0.00368339
0.00372205
0.00375837
0.00379214
0.00382325
0.0038516
0.00387717
0.00389996
0.00391998
0.00393731
0.003952
0.00396415
0.00397386
0.00398125
0.00398644
0.00398955
0.00399071
0.00399008
0.00398777
0.00398394
0.00397872
0.00397225
0.00396465
0.00395604
0.00394652
0.00393617
0.00392506
0.00391322
0.0039007
0.00388755
0.00387378
0.00385944
0.00384455
0.00382898
0.00381257
0.00379529
0.00377712
0.00375805
0.00373803
0.00371704
0.00369504
0.00367199
0.00364783
0.00362252
0.00359599
0.00356818
0.003539
0.00350839
0.00347624
0.00344244
0.00340688
0.00336944
0.00332996
0.00328827
0.00324419
0.00319752
0.00314799
0.00309533
0.00303919
0.00297918
0.00291481
0.0028455
0.00277054
0.002689
0.00259973
0.00250114
0.00239109
0.00226642
0.00212235
0.00195097
0.0017371
0.00144336
0
0
0
0
0
0
0
0
0
0
0
0
0
0
0
0
0
0
0
0
0
0
0
0
0
0
0
0
0
0
0
0
0
0
0
0
0
0
0
0
0
0
0
0
0
0
0
0
0
0
0
0
0
0
0
0
0
0
0
0
0
0
0
0
0
0
0
0
0
0
0
0
0
0
0
0
0
0
0
0
0
0
0
0
0
0
0
0
0
0
0
0
0
0
0
0
0
0
0
0
0
0
0
0
0
0
0
0
0
0
0
0
0
0
0
0
0
0
0
0
)
;

boundaryField
{
    inandouthalf11
    {
        type            cyclic;
    }
    inandouthalf12
    {
        type            cyclic;
    }
    inandouthalf21
    {
        type            cyclic;
    }
    inandouthalf22
    {
        type            cyclic;
    }
    inandouthalf31
    {
        type            cyclic;
    }
    inandouthalf32
    {
        type            cyclic;
    }
    inandouthalf41
    {
        type            cyclic;
    }
    inandouthalf42
    {
        type            cyclic;
    }
    top
    {
        type            symmetryPlane;
    }
    walls
    {
        type            calculated;
        value           uniform 1e+30;
    }
    frontAndBackPlanes
    {
        type            empty;
    }
}


// ************************************************************************* //
