/*--------------------------------*- C++ -*----------------------------------*\
| =========                 |                                                 |
| \\      /  F ield         | OpenFOAM: The Open Source CFD Toolbox           |
|  \\    /   O peration     | Version:  2.4.x                                 |
|   \\  /    A nd           | Web:      www.OpenFOAM.org                      |
|    \\/     M anipulation  |                                                 |
\*---------------------------------------------------------------------------*/
FoamFile
{
    version     2.0;
    format      ascii;
    class       volScalarField;
    location    "3.35";
    object      pa;
}
// * * * * * * * * * * * * * * * * * * * * * * * * * * * * * * * * * * * * * //

dimensions      [1 -1 -2 0 0 0 0];

internalField   nonuniform List<scalar> 
360
(
2.8935e-16
2.94435e-16
2.95482e-16
2.94315e-16
2.93726e-16
2.93625e-16
2.9374e-16
2.93865e-16
2.93856e-16
2.93715e-16
2.93557e-16
2.93505e-16
2.93654e-16
2.94099e-16
2.94967e-16
2.964e-16
2.98398e-16
3.00377e-16
3.00781e-16
2.98139e-16
2.93565e-16
2.89967e-16
2.88396e-16
2.87967e-16
2.87878e-16
2.87858e-16
2.8785e-16
2.87842e-16
2.87835e-16
2.87828e-16
2.8782e-16
2.8781e-16
2.87803e-16
2.8779e-16
2.87779e-16
2.87766e-16
2.87753e-16
2.87738e-16
2.8772e-16
2.87705e-16
2.87684e-16
2.87664e-16
2.87643e-16
2.87618e-16
2.87593e-16
2.87565e-16
2.87535e-16
2.87505e-16
2.87471e-16
2.87432e-16
2.87394e-16
2.87351e-16
2.87306e-16
2.87257e-16
2.87207e-16
2.8715e-16
2.87093e-16
2.8703e-16
2.86965e-16
2.86898e-16
2.86825e-16
2.86752e-16
2.86674e-16
2.86596e-16
2.86515e-16
2.86433e-16
2.86348e-16
2.8626e-16
2.86169e-16
2.86076e-16
2.85977e-16
2.85874e-16
2.8577e-16
2.85662e-16
2.85551e-16
2.85437e-16
2.85321e-16
2.85204e-16
2.85083e-16
2.8496e-16
2.84834e-16
2.84704e-16
2.84571e-16
2.84434e-16
2.84294e-16
2.84151e-16
2.84005e-16
2.83856e-16
2.83704e-16
2.83549e-16
2.8339e-16
2.83228e-16
2.83063e-16
2.82894e-16
2.8272e-16
2.82543e-16
2.82362e-16
2.82177e-16
2.81988e-16
2.81792e-16
0
0
0
0
0
0
0
0
0
0
0
0
0
0
0
2.77974e-16
2.77679e-16
2.77374e-16
2.77061e-16
2.76738e-16
2.76406e-16
2.76064e-16
2.75711e-16
2.75347e-16
2.74972e-16
2.74585e-16
2.74185e-16
2.7377e-16
3.2549e-16
1.09968e-15
4.08705e-15
1.43674e-14
4.69959e-14
1.42091e-13
3.94477e-13
9.96152e-13
2.25501e-12
4.4868e-12
7.66328e-12
1.08367e-11
1.16566e-11
1.10217e-11
7.25865e-11
1.24886e-09
2.74488e-08
7.47003e-07
3.38185e-05
0.00526537
0.299627
2.73345
1.37155
0.73645
0.346803
0.159594
0.076871
0.0420904
0.0269266
0.0196001
0.0154478
0.01282
0.0110283
0.00972833
0.00873639
0.00794669
0.00729479
0.00673968
0.0062544
0.00582072
0.00542612
0.00506188
0.00472193
0.00440208
0.00409951
0.00381241
0.00353966
0.00328064
0.00303501
0.00280258
0.00258309
0.00237618
0.00218124
0.0019974
0.00182345
0.00165788
0.00149885
0.00134432
0.00119223
0.00104093
0.00089001
0.000741286
0.000599742
0.000473117
0.000369056
0.000290668
0.000234391
0.00019308
0.000161059
0.000135513
0.000114978
9.82995e-05
8.43632e-05
7.22951e-05
6.20801e-05
5.37345e-05
4.64476e-05
3.95936e-05
3.39039e-05
2.95058e-05
2.53437e-05
2.1453e-05
1.84192e-05
1.58179e-05
1.33682e-05
1.13723e-05
9.69165e-06
8.09845e-06
6.81955e-06
5.82796e-06
4.82658e-06
3.98099e-06
3.35279e-06
2.76908e-06
2.27244e-06
1.86685e-06
1.49993e-06
1.22028e-06
9.90547e-07
7.7391e-07
6.16882e-07
4.87797e-07
3.70898e-07
2.88741e-07
2.17123e-07
1.60758e-07
1.13448e-07
7.92338e-08
6.2199e-08
5.07815e-08
3.91444e-08
2.26746e-08
0
0
0
0
0
0
0
0
0
0
0
0
0
0
0
0
0
0
0
0
0
0
0
0
0
0
0
0
0
0
0
0
0
0
0
0
0
0
0
0
0
0
0
0
0
0
0
0
0
0
0
0
0
0
0
0
0
0
0
0
0
0
0
0
0
0
0
0
0
0
0
0
0
0
0
0
0
0
0
0
0
0
0
0
0
0
0
0
0
0
0
0
0
0
0
0
0
0
0
0
0
0
0
0
0
0
0
0
0
0
0
0
0
0
0
0
0
0
0
0
)
;

boundaryField
{
    inandouthalf11
    {
        type            cyclic;
    }
    inandouthalf12
    {
        type            cyclic;
    }
    inandouthalf21
    {
        type            cyclic;
    }
    inandouthalf22
    {
        type            cyclic;
    }
    inandouthalf31
    {
        type            cyclic;
    }
    inandouthalf32
    {
        type            cyclic;
    }
    inandouthalf41
    {
        type            cyclic;
    }
    inandouthalf42
    {
        type            cyclic;
    }
    top
    {
        type            symmetryPlane;
    }
    walls
    {
        type            calculated;
        value           uniform 2.8935e-16;
    }
    frontAndBackPlanes
    {
        type            empty;
    }
}


// ************************************************************************* //
