/*--------------------------------*- C++ -*----------------------------------*\
| =========                 |                                                 |
| \\      /  F ield         | OpenFOAM: The Open Source CFD Toolbox           |
|  \\    /   O peration     | Version:  2.4.x                                 |
|   \\  /    A nd           | Web:      www.OpenFOAM.org                      |
|    \\/     M anipulation  |                                                 |
\*---------------------------------------------------------------------------*/
FoamFile
{
    version     2.0;
    format      ascii;
    class       surfaceScalarField;
    location    "3.35";
    object      phib_0;
}
// * * * * * * * * * * * * * * * * * * * * * * * * * * * * * * * * * * * * * //

dimensions      [0 3 -1 0 0 0 0];

internalField   nonuniform List<scalar> 
359
(
1.28356e-12
4.11655e-12
7.09739e-12
9.80899e-12
1.23573e-11
1.48985e-11
1.75131e-11
2.02003e-11
2.29091e-11
2.55997e-11
2.82684e-11
3.09474e-11
3.36985e-11
3.66036e-11
3.97651e-11
4.32959e-11
4.72769e-11
5.16607e-11
5.61456e-11
6.01729e-11
6.31828e-11
6.50068e-11
6.5911e-11
6.62996e-11
6.64605e-11
6.65334e-11
6.65733e-11
6.66009e-11
6.66248e-11
6.6649e-11
6.66755e-11
6.67056e-11
6.67392e-11
6.67755e-11
6.68137e-11
6.68524e-11
6.68909e-11
6.69285e-11
6.69654e-11
6.70014e-11
6.70368e-11
6.70719e-11
6.71068e-11
6.71418e-11
6.7177e-11
6.72125e-11
6.72484e-11
6.72847e-11
6.73213e-11
6.73585e-11
6.73963e-11
6.74348e-11
6.74739e-11
6.75139e-11
6.75547e-11
6.75965e-11
6.76395e-11
6.76837e-11
6.77293e-11
6.77761e-11
6.78242e-11
6.78735e-11
6.79239e-11
6.79752e-11
6.80273e-11
6.80799e-11
6.81331e-11
6.81869e-11
6.82418e-11
6.82978e-11
6.83554e-11
6.84152e-11
6.84772e-11
6.85418e-11
6.86089e-11
6.86784e-11
6.87502e-11
6.88239e-11
6.88991e-11
6.89758e-11
6.90538e-11
6.91331e-11
6.92139e-11
6.92963e-11
6.93805e-11
6.94665e-11
6.95543e-11
6.96439e-11
6.97351e-11
6.98277e-11
6.99216e-11
7.00164e-11
7.01122e-11
7.02089e-11
7.03063e-11
7.04046e-11
7.05036e-11
7.06034e-11
7.07038e-11
7.08048e-11
7.09062e-11
7.10081e-11
7.11101e-11
7.12123e-11
7.13144e-11
7.14163e-11
7.15178e-11
7.16188e-11
7.17192e-11
7.18187e-11
7.19172e-11
7.20147e-11
7.21111e-11
7.22064e-11
7.23007e-11
7.23941e-11
7.24868e-11
7.25792e-11
7.26716e-11
7.27643e-11
7.28579e-11
7.29528e-11
7.30494e-11
7.3148e-11
7.32488e-11
7.33517e-11
7.34563e-11
7.35621e-11
7.36682e-11
7.37733e-11
7.38761e-11
7.39748e-11
7.40676e-11
7.41528e-11
7.42292e-11
7.42956e-11
7.43495e-11
7.4386e-11
7.43987e-11
7.43839e-11
7.43451e-11
7.42726e-11
7.41539e-11
7.39905e-11
7.37479e-11
7.314e-11
7.42313e-11
7.53816e-11
6.26548e-11
-1.33332e-09
-1.21431e-09
-7.15274e-10
-3.30237e-10
-8.61044e-11
4.41291e-11
9.48138e-11
1.10898e-10
1.13249e-10
1.10301e-10
1.05039e-10
9.87956e-11
9.22174e-11
8.56287e-11
7.92005e-11
7.30236e-11
6.71451e-11
6.15873e-11
5.63578e-11
5.14562e-11
4.68767e-11
4.26108e-11
3.86482e-11
3.49778e-11
3.15876e-11
2.84649e-11
2.55964e-11
2.29677e-11
2.05639e-11
1.83689e-11
1.63662e-11
1.45387e-11
1.28689e-11
1.13399e-11
9.93473e-12
8.63783e-12
7.43526e-12
6.31625e-12
5.27522e-12
4.31447e-12
3.44641e-12
2.69258e-12
2.07576e-12
1.60559e-12
1.26731e-12
1.02653e-12
8.48134e-13
7.09716e-13
5.99941e-13
5.11928e-13
4.39906e-13
3.79217e-13
3.27059e-13
2.83735e-13
2.47294e-13
2.14207e-13
1.8476e-13
1.61136e-13
1.41038e-13
1.21902e-13
1.05361e-13
9.18865e-14
7.96587e-14
6.8775e-14
5.9727e-14
5.15324e-14
4.4226e-14
3.84432e-14
3.32604e-14
2.82976e-14
2.43039e-14
2.09683e-14
1.78886e-14
1.52512e-14
1.29122e-14
1.08896e-14
9.26528e-15
7.76607e-15
6.45637e-15
5.43202e-15
4.49521e-15
3.70136e-15
3.06362e-15
2.49355e-15
1.99414e-15
1.56949e-15
1.32128e-15
1.24429e-15
1.22045e-15
1.11854e-15
7.11407e-16
4.46996e-16
6.83725e-17
1.12891e-17
1.10451e-17
1.06993e-17
1.04394e-17
1.00912e-17
9.83015e-18
9.47312e-18
9.18819e-18
8.82947e-18
8.52514e-18
8.13836e-18
7.80759e-18
7.40353e-18
7.05453e-18
6.64576e-18
6.28535e-18
5.86921e-18
5.49712e-18
5.08992e-18
4.73138e-18
4.35351e-18
4.0506e-18
3.78934e-18
3.59848e-18
3.42462e-18
3.26924e-18
3.13095e-18
3.00419e-18
2.8712e-18
2.74369e-18
2.65611e-18
2.57004e-18
2.48064e-18
2.37492e-18
2.28499e-18
2.17645e-18
2.06524e-18
1.94112e-18
1.87103e-18
1.78983e-18
1.71069e-18
1.61025e-18
1.52685e-18
1.42253e-18
1.35167e-18
1.22632e-18
1.13208e-18
1.02e-18
9.06942e-19
7.74034e-19
6.60677e-19
5.25271e-19
3.97333e-19
2.41362e-19
1.23642e-19
1.18135e-19
1.23619e-19
1.31626e-19
1.41678e-19
1.41437e-19
1.4169e-19
1.34036e-19
1.45022e-19
1.49932e-19
1.55351e-19
1.56197e-19
1.62306e-19
1.63745e-19
1.6578e-19
1.62075e-19
1.78736e-19
1.88303e-19
1.98855e-19
2.01599e-19
2.13525e-19
2.13925e-19
2.15562e-19
1.98001e-19
2.33411e-19
2.40528e-19
2.49503e-19
2.15197e-19
2.53838e-19
2.15808e-19
2.05475e-19
-2.44432e-21
6.80642e-19
1.1332e-18
1.61289e-18
1.9244e-18
2.42052e-18
2.70631e-18
3.0082e-18
3.0494e-18
3.62611e-18
3.86558e-18
4.11953e-18
3.96496e-18
4.20896e-18
3.9507e-18
3.73593e-18
2.95237e-18
3.46336e-18
3.2874e-18
3.14727e-18
2.23063e-18
1.93461e-18
8.53264e-19
-2.63306e-19
-2.14374e-18
-3.46731e-18
-5.32169e-18
-7.29229e-18
-9.79435e-18
-1.23797e-17
-1.59321e-17
-2.14925e-17
)
;

boundaryField
{
    inandouthalf11
    {
        type            cyclic;
        value           nonuniform List<scalar> 
100
(
2.33293e-10
2.33074e-10
2.32899e-10
2.33032e-10
2.33218e-10
2.33397e-10
2.33582e-10
2.33764e-10
2.33934e-10
2.341e-10
2.34267e-10
2.34435e-10
2.34607e-10
2.34785e-10
2.34973e-10
2.35179e-10
2.35409e-10
2.35666e-10
2.35939e-10
2.36203e-10
2.36417e-10
2.36561e-10
2.3664e-10
2.36677e-10
2.36695e-10
2.36703e-10
2.36709e-10
2.36716e-10
2.36722e-10
2.36728e-10
2.36734e-10
2.36743e-10
2.3675e-10
2.36761e-10
2.3677e-10
2.36782e-10
2.36793e-10
2.36806e-10
2.36821e-10
2.36834e-10
2.36851e-10
2.36867e-10
2.36884e-10
2.36904e-10
2.36924e-10
2.36946e-10
2.3697e-10
2.36994e-10
2.37021e-10
2.37051e-10
2.37081e-10
2.37114e-10
2.37149e-10
2.37187e-10
2.37226e-10
2.37269e-10
2.37313e-10
2.37362e-10
2.37412e-10
2.37463e-10
2.37519e-10
2.37576e-10
2.37635e-10
2.37696e-10
2.37758e-10
2.37821e-10
2.37887e-10
2.37955e-10
2.38025e-10
2.38097e-10
2.38174e-10
2.38253e-10
2.38334e-10
2.38418e-10
2.38504e-10
2.38593e-10
2.38684e-10
2.38776e-10
2.38871e-10
2.38968e-10
2.39067e-10
2.3917e-10
2.39275e-10
2.39382e-10
2.39493e-10
2.39606e-10
2.39722e-10
2.39841e-10
2.39962e-10
2.40085e-10
2.40212e-10
2.40341e-10
2.40473e-10
2.40608e-10
2.40746e-10
2.40887e-10
2.41032e-10
2.4118e-10
2.41331e-10
2.41486e-10
)
;
    }
    inandouthalf12
    {
        type            cyclic;
        value           nonuniform List<scalar> 
100
(
-2.33293e-10
-2.33074e-10
-2.32899e-10
-2.33032e-10
-2.33218e-10
-2.33397e-10
-2.33582e-10
-2.33764e-10
-2.33934e-10
-2.341e-10
-2.34267e-10
-2.34435e-10
-2.34607e-10
-2.34785e-10
-2.34973e-10
-2.35179e-10
-2.35409e-10
-2.35666e-10
-2.35939e-10
-2.36203e-10
-2.36417e-10
-2.36561e-10
-2.3664e-10
-2.36677e-10
-2.36695e-10
-2.36703e-10
-2.36709e-10
-2.36716e-10
-2.36722e-10
-2.36728e-10
-2.36734e-10
-2.36743e-10
-2.3675e-10
-2.36761e-10
-2.3677e-10
-2.36782e-10
-2.36793e-10
-2.36806e-10
-2.36821e-10
-2.36834e-10
-2.36851e-10
-2.36867e-10
-2.36884e-10
-2.36904e-10
-2.36924e-10
-2.36946e-10
-2.3697e-10
-2.36994e-10
-2.37021e-10
-2.37051e-10
-2.37081e-10
-2.37114e-10
-2.37149e-10
-2.37187e-10
-2.37226e-10
-2.37269e-10
-2.37313e-10
-2.37362e-10
-2.37412e-10
-2.37463e-10
-2.37519e-10
-2.37576e-10
-2.37635e-10
-2.37696e-10
-2.37758e-10
-2.37821e-10
-2.37887e-10
-2.37955e-10
-2.38025e-10
-2.38097e-10
-2.38174e-10
-2.38253e-10
-2.38334e-10
-2.38418e-10
-2.38504e-10
-2.38593e-10
-2.38684e-10
-2.38776e-10
-2.38871e-10
-2.38968e-10
-2.39067e-10
-2.3917e-10
-2.39275e-10
-2.39382e-10
-2.39493e-10
-2.39606e-10
-2.39722e-10
-2.39841e-10
-2.39962e-10
-2.40085e-10
-2.40212e-10
-2.40341e-10
-2.40473e-10
-2.40608e-10
-2.40746e-10
-2.40887e-10
-2.41032e-10
-2.4118e-10
-2.41331e-10
-2.41486e-10
)
;
    }
    inandouthalf21
    {
        type            cyclic;
        value           nonuniform List<scalar> 
100
(
2.41644e-10
2.41806e-10
2.41972e-10
2.42142e-10
2.42316e-10
2.42494e-10
2.42676e-10
2.42863e-10
2.43054e-10
2.4325e-10
2.43452e-10
2.43658e-10
2.4387e-10
2.44088e-10
2.44312e-10
2.44542e-10
2.44778e-10
2.45022e-10
2.45273e-10
2.45532e-10
2.458e-10
2.46076e-10
2.46361e-10
2.46656e-10
2.46962e-10
2.47278e-10
2.47606e-10
2.47947e-10
2.48301e-10
2.48669e-10
2.49053e-10
2.49451e-10
2.49867e-10
2.50304e-10
2.50767e-10
2.51256e-10
2.51768e-10
2.52309e-10
2.52904e-10
2.53582e-10
2.54313e-10
2.55003e-10
2.55813e-10
2.56862e-10
2.58146e-10
2.60246e-10
2.66628e-10
2.67048e-10
2.98394e-10
1.97724e-08
1.45643e-07
2.51601e-07
3.16841e-07
3.59857e-07
3.86818e-07
4.02677e-07
4.11692e-07
4.16743e-07
4.19471e-07
4.20757e-07
4.21084e-07
4.20724e-07
4.19845e-07
4.18554e-07
4.16923e-07
4.15004e-07
4.12837e-07
4.10452e-07
4.07875e-07
4.05125e-07
4.02222e-07
3.99179e-07
3.96011e-07
3.9273e-07
3.89345e-07
3.85868e-07
3.82306e-07
3.78667e-07
3.74958e-07
3.71187e-07
3.67358e-07
3.63478e-07
3.59551e-07
3.55582e-07
3.51576e-07
3.47536e-07
3.43467e-07
3.39372e-07
3.35254e-07
3.31117e-07
3.26964e-07
3.22797e-07
3.1862e-07
3.14436e-07
3.10247e-07
3.06055e-07
3.01863e-07
2.97674e-07
2.93489e-07
2.89311e-07
)
;
    }
    inandouthalf22
    {
        type            cyclic;
        value           nonuniform List<scalar> 
100
(
-2.41644e-10
-2.41806e-10
-2.41972e-10
-2.42142e-10
-2.42316e-10
-2.42494e-10
-2.42676e-10
-2.42863e-10
-2.43054e-10
-2.4325e-10
-2.43452e-10
-2.43658e-10
-2.4387e-10
-2.44088e-10
-2.44312e-10
-2.44542e-10
-2.44778e-10
-2.45022e-10
-2.45273e-10
-2.45532e-10
-2.458e-10
-2.46076e-10
-2.46361e-10
-2.46656e-10
-2.46962e-10
-2.47278e-10
-2.47606e-10
-2.47947e-10
-2.48301e-10
-2.48669e-10
-2.49053e-10
-2.49451e-10
-2.49867e-10
-2.50304e-10
-2.50767e-10
-2.51256e-10
-2.51768e-10
-2.52309e-10
-2.52904e-10
-2.53582e-10
-2.54313e-10
-2.55003e-10
-2.55813e-10
-2.56862e-10
-2.58146e-10
-2.60246e-10
-2.66628e-10
-2.67048e-10
-2.98394e-10
-1.97724e-08
-1.45643e-07
-2.51601e-07
-3.16841e-07
-3.59857e-07
-3.86818e-07
-4.02677e-07
-4.11692e-07
-4.16743e-07
-4.19471e-07
-4.20757e-07
-4.21084e-07
-4.20724e-07
-4.19845e-07
-4.18554e-07
-4.16923e-07
-4.15004e-07
-4.12837e-07
-4.10452e-07
-4.07875e-07
-4.05125e-07
-4.02222e-07
-3.99179e-07
-3.96011e-07
-3.9273e-07
-3.89345e-07
-3.85868e-07
-3.82306e-07
-3.78667e-07
-3.74958e-07
-3.71187e-07
-3.67358e-07
-3.63478e-07
-3.59551e-07
-3.55582e-07
-3.51576e-07
-3.47536e-07
-3.43467e-07
-3.39372e-07
-3.35254e-07
-3.31117e-07
-3.26964e-07
-3.22797e-07
-3.1862e-07
-3.14436e-07
-3.10247e-07
-3.06055e-07
-3.01863e-07
-2.97674e-07
-2.93489e-07
-2.89311e-07
)
;
    }
    inandouthalf31
    {
        type            cyclic;
        value           nonuniform List<scalar> 
110
(
2.85143e-07
2.86646e-07
2.88019e-07
2.89257e-07
2.90353e-07
2.91303e-07
2.92102e-07
2.92748e-07
2.93238e-07
2.93569e-07
2.93743e-07
2.93763e-07
2.93632e-07
2.9336e-07
2.92959e-07
2.9245e-07
2.91859e-07
2.91225e-07
2.90603e-07
2.90071e-07
2.89749e-07
2.89823e-07
2.90584e-07
2.93447e-07
2.9885e-07
3.04824e-07
3.10941e-07
3.1719e-07
3.23571e-07
3.30087e-07
3.36741e-07
3.43535e-07
3.50471e-07
3.57552e-07
3.6478e-07
3.72159e-07
3.7969e-07
3.87377e-07
3.95222e-07
4.03229e-07
4.11401e-07
4.1974e-07
4.28249e-07
4.36932e-07
4.45793e-07
4.54836e-07
4.64062e-07
4.73477e-07
4.83083e-07
4.92886e-07
5.02887e-07
5.13092e-07
5.23505e-07
5.34129e-07
5.44969e-07
5.5603e-07
5.67315e-07
5.78829e-07
5.90577e-07
6.02564e-07
6.14794e-07
6.27273e-07
6.40004e-07
6.52995e-07
6.66248e-07
6.79771e-07
6.93569e-07
7.07646e-07
7.2201e-07
7.36665e-07
7.51617e-07
7.66873e-07
7.82438e-07
7.9832e-07
8.14523e-07
8.31056e-07
8.47924e-07
8.65135e-07
8.82695e-07
9.00611e-07
9.18891e-07
9.37542e-07
9.56572e-07
9.75988e-07
9.95798e-07
1.01601e-06
1.03663e-06
1.05767e-06
1.07914e-06
1.10104e-06
1.12339e-06
1.14619e-06
1.16946e-06
1.1932e-06
1.21741e-06
1.24213e-06
1.26734e-06
1.29306e-06
1.31931e-06
1.34608e-06
1.37341e-06
1.40128e-06
1.42973e-06
1.45874e-06
1.48835e-06
1.51856e-06
1.54939e-06
1.58083e-06
1.61292e-06
1.64566e-06
)
;
    }
    inandouthalf32
    {
        type            cyclic;
        value           nonuniform List<scalar> 
110
(
-2.85143e-07
-2.86646e-07
-2.88019e-07
-2.89257e-07
-2.90353e-07
-2.91303e-07
-2.92102e-07
-2.92748e-07
-2.93238e-07
-2.93569e-07
-2.93743e-07
-2.93763e-07
-2.93632e-07
-2.9336e-07
-2.92959e-07
-2.9245e-07
-2.91859e-07
-2.91225e-07
-2.90603e-07
-2.90071e-07
-2.89749e-07
-2.89823e-07
-2.90584e-07
-2.93447e-07
-2.9885e-07
-3.04824e-07
-3.10941e-07
-3.1719e-07
-3.23571e-07
-3.30087e-07
-3.36741e-07
-3.43535e-07
-3.50471e-07
-3.57552e-07
-3.6478e-07
-3.72159e-07
-3.7969e-07
-3.87377e-07
-3.95222e-07
-4.03229e-07
-4.11401e-07
-4.1974e-07
-4.28249e-07
-4.36932e-07
-4.45793e-07
-4.54836e-07
-4.64062e-07
-4.73477e-07
-4.83083e-07
-4.92886e-07
-5.02887e-07
-5.13092e-07
-5.23505e-07
-5.34129e-07
-5.44969e-07
-5.5603e-07
-5.67315e-07
-5.78829e-07
-5.90577e-07
-6.02564e-07
-6.14794e-07
-6.27273e-07
-6.40004e-07
-6.52995e-07
-6.66248e-07
-6.79771e-07
-6.93569e-07
-7.07646e-07
-7.2201e-07
-7.36665e-07
-7.51617e-07
-7.66873e-07
-7.82438e-07
-7.9832e-07
-8.14523e-07
-8.31056e-07
-8.47924e-07
-8.65135e-07
-8.82695e-07
-9.00611e-07
-9.18891e-07
-9.37542e-07
-9.56572e-07
-9.75988e-07
-9.95798e-07
-1.01601e-06
-1.03663e-06
-1.05767e-06
-1.07914e-06
-1.10104e-06
-1.12339e-06
-1.14619e-06
-1.16946e-06
-1.1932e-06
-1.21741e-06
-1.24213e-06
-1.26734e-06
-1.29306e-06
-1.31931e-06
-1.34608e-06
-1.37341e-06
-1.40128e-06
-1.42973e-06
-1.45874e-06
-1.48835e-06
-1.51856e-06
-1.54939e-06
-1.58083e-06
-1.61292e-06
-1.64566e-06
)
;
    }
    inandouthalf41
    {
        type            cyclic;
        value           nonuniform List<scalar> 
50
(
1.47303e-06
1.47303e-06
1.47303e-06
1.47303e-06
1.47303e-06
1.47303e-06
1.47303e-06
1.47303e-06
1.47303e-06
1.47303e-06
1.47303e-06
1.47303e-06
1.47303e-06
1.47303e-06
1.47303e-06
1.47303e-06
1.47303e-06
1.47303e-06
1.47303e-06
1.47303e-06
1.47303e-06
1.47303e-06
1.47303e-06
1.47303e-06
1.47303e-06
1.47303e-06
1.47303e-06
1.47303e-06
1.47303e-06
1.47303e-06
1.47303e-06
1.47303e-06
1.47303e-06
1.47303e-06
1.47303e-06
1.47303e-06
1.47303e-06
1.47303e-06
1.47303e-06
1.47303e-06
1.47303e-06
1.47303e-06
1.47303e-06
1.47303e-06
1.47303e-06
1.47303e-06
1.47303e-06
1.47303e-06
1.47303e-06
1.47303e-06
)
;
    }
    inandouthalf42
    {
        type            cyclic;
        value           nonuniform List<scalar> 
50
(
-1.47303e-06
-1.47303e-06
-1.47303e-06
-1.47303e-06
-1.47303e-06
-1.47303e-06
-1.47303e-06
-1.47303e-06
-1.47303e-06
-1.47303e-06
-1.47303e-06
-1.47303e-06
-1.47303e-06
-1.47303e-06
-1.47303e-06
-1.47303e-06
-1.47303e-06
-1.47303e-06
-1.47303e-06
-1.47303e-06
-1.47303e-06
-1.47303e-06
-1.47303e-06
-1.47303e-06
-1.47303e-06
-1.47303e-06
-1.47303e-06
-1.47303e-06
-1.47303e-06
-1.47303e-06
-1.47303e-06
-1.47303e-06
-1.47303e-06
-1.47303e-06
-1.47303e-06
-1.47303e-06
-1.47303e-06
-1.47303e-06
-1.47303e-06
-1.47303e-06
-1.47303e-06
-1.47303e-06
-1.47303e-06
-1.47303e-06
-1.47303e-06
-1.47303e-06
-1.47303e-06
-1.47303e-06
-1.47303e-06
-1.47303e-06
)
;
    }
    top
    {
        type            symmetryPlane;
        value           uniform 0;
    }
    walls
    {
        type            fixedValue;
        value           uniform 0;
    }
    frontAndBackPlanes
    {
        type            empty;
        value           nonuniform 0();
    }
}


// ************************************************************************* //
