/*--------------------------------*- C++ -*----------------------------------*\
| =========                 |                                                 |
| \\      /  F ield         | OpenFOAM: The Open Source CFD Toolbox           |
|  \\    /   O peration     | Version:  2.4.x                                 |
|   \\  /    A nd           | Web:      www.OpenFOAM.org                      |
|    \\/     M anipulation  |                                                 |
\*---------------------------------------------------------------------------*/
FoamFile
{
    version     2.0;
    format      ascii;
    class       volScalarField;
    location    "3.35";
    object      Theta_0;
}
// * * * * * * * * * * * * * * * * * * * * * * * * * * * * * * * * * * * * * //

dimensions      [0 2 -2 0 0 0 0];

internalField   nonuniform List<scalar> 
360
(
6.68312e-21
6.77652e-21
6.7901e-21
6.76371e-21
6.75274e-21
6.7529e-21
6.75815e-21
6.76345e-21
6.76525e-21
6.76388e-21
6.76219e-21
6.76303e-21
6.76861e-21
6.78111e-21
6.80347e-21
6.83913e-21
6.88816e-21
6.93707e-21
6.94971e-21
6.8919e-21
6.78892e-21
6.70786e-21
6.67276e-21
6.66347e-21
6.66172e-21
6.66143e-21
6.66138e-21
6.66137e-21
6.66137e-21
6.66137e-21
6.66137e-21
6.66137e-21
6.66138e-21
6.66138e-21
6.66138e-21
6.66138e-21
6.66138e-21
6.66138e-21
6.66138e-21
6.66138e-21
6.66138e-21
6.66138e-21
6.66138e-21
6.66138e-21
6.66138e-21
6.66138e-21
6.66138e-21
6.66138e-21
6.66138e-21
6.66138e-21
6.66138e-21
6.66138e-21
6.66138e-21
6.66139e-21
6.66139e-21
6.66139e-21
6.66139e-21
6.66139e-21
6.66139e-21
6.6614e-21
6.6614e-21
6.6614e-21
6.6614e-21
6.66141e-21
6.66141e-21
6.66141e-21
6.66141e-21
6.66141e-21
6.66141e-21
6.66142e-21
6.66142e-21
6.66142e-21
6.66143e-21
6.66144e-21
6.66144e-21
6.66145e-21
6.66146e-21
6.66146e-21
6.66147e-21
6.66147e-21
6.66147e-21
6.66148e-21
6.66148e-21
6.66149e-21
6.6615e-21
6.6615e-21
6.66151e-21
6.66152e-21
6.66152e-21
6.66153e-21
6.66153e-21
6.66154e-21
6.66154e-21
6.66155e-21
6.66155e-21
6.66156e-21
6.66156e-21
6.66156e-21
6.66157e-21
6.6615e-21
0
0
0
0
0
0
0
0
0
0
0
0
0
0
0
6.66157e-21
6.66157e-21
6.66157e-21
6.66158e-21
6.66159e-21
6.66159e-21
6.66161e-21
6.66162e-21
6.66164e-21
6.66166e-21
6.66168e-21
6.66171e-21
6.66173e-21
7.93227e-21
2.68477e-20
9.99728e-20
3.52138e-19
1.15422e-18
3.49731e-18
9.73155e-18
2.46339e-17
5.59055e-17
1.11535e-16
1.91066e-16
2.71124e-16
2.92776e-16
2.77564e-16
1.82957e-15
3.16136e-14
6.98759e-13
1.91959e-11
8.93991e-10
1.39097e-07
8.07667e-06
0.000183564
0.00119031
0.00204463
0.00214738
0.00207193
0.00198175
0.0019176
0.00188236
0.0018711
0.00187888
0.00190134
0.00193484
0.00197641
0.00202368
0.0020747
0.00212795
0.00218215
0.00223629
0.00228953
0.00234122
0.00239079
0.00243782
0.00248197
0.00252297
0.00256065
0.00259486
0.00262554
0.00265266
0.00267623
0.00269631
0.00271298
0.00272635
0.00273655
0.00274373
0.00274806
0.0027497
0.00274887
0.00274573
0.00274049
0.00273335
0.0027245
0.00271411
0.00270236
0.00268939
0.00267532
0.00266024
0.00264422
0.00262733
0.00260964
0.00259119
0.00257203
0.00255222
0.00253159
0.00250992
0.00248722
0.00246346
0.00243863
0.00241272
0.00238569
0.00235753
0.0023282
0.00229766
0.00226587
0.0022328
0.00219839
0.00216258
0.00212532
0.00208654
0.00204616
0.0020041
0.00196029
0.00191461
0.00186697
0.00181725
0.00176533
0.00171107
0.00165429
0.00159483
0.00153246
0.00146696
0.00139802
0.00132533
0.00124847
0.00116695
0.00108012
0.000987162
0.000886908
0.000777736
0.000657199
0.00052101
0.000359702
0
0
0
0
0
0
0
0
0
0
0
0
0
0
0
0
0
0
0
0
0
0
0
0
0
0
0
0
0
0
0
0
0
0
0
0
0
0
0
0
0
0
0
0
0
0
0
0
0
0
0
0
0
0
0
0
0
0
0
0
0
0
0
0
0
0
0
0
0
0
0
0
0
0
0
0
0
0
0
0
0
0
0
0
0
0
0
0
0
0
0
0
0
0
0
0
0
0
0
0
0
0
0
0
0
0
0
0
0
0
0
0
0
0
0
0
0
0
0
0
)
;

boundaryField
{
    inandouthalf11
    {
        type            cyclic;
    }
    inandouthalf12
    {
        type            cyclic;
    }
    inandouthalf21
    {
        type            cyclic;
    }
    inandouthalf22
    {
        type            cyclic;
    }
    inandouthalf31
    {
        type            cyclic;
    }
    inandouthalf32
    {
        type            cyclic;
    }
    inandouthalf41
    {
        type            cyclic;
    }
    inandouthalf42
    {
        type            cyclic;
    }
    top
    {
        type            symmetryPlane;
    }
    walls
    {
        type            zeroGradient;
    }
    frontAndBackPlanes
    {
        type            empty;
    }
}


// ************************************************************************* //
