/*--------------------------------*- C++ -*----------------------------------*\
| =========                 |                                                 |
| \\      /  F ield         | OpenFOAM: The Open Source CFD Toolbox           |
|  \\    /   O peration     | Version:  2.4.x                                 |
|   \\  /    A nd           | Web:      www.OpenFOAM.org                      |
|    \\/     M anipulation  |                                                 |
\*---------------------------------------------------------------------------*/
FoamFile
{
    version     2.0;
    format      ascii;
    class       volScalarField;
    location    "3.35";
    object      Theta;
}
// * * * * * * * * * * * * * * * * * * * * * * * * * * * * * * * * * * * * * //

dimensions      [0 2 -2 0 0 0 0];

internalField   nonuniform List<scalar> 
360
(
6.68311e-21
6.77645e-21
6.79001e-21
6.76365e-21
6.75269e-21
6.75286e-21
6.75811e-21
6.76341e-21
6.76522e-21
6.76385e-21
6.76216e-21
6.76299e-21
6.76856e-21
6.78104e-21
6.80337e-21
6.83898e-21
6.88798e-21
6.93695e-21
6.94981e-21
6.89223e-21
6.78928e-21
6.70805e-21
6.67282e-21
6.66348e-21
6.66172e-21
6.66143e-21
6.66138e-21
6.66137e-21
6.66137e-21
6.66137e-21
6.66137e-21
6.66137e-21
6.66138e-21
6.66138e-21
6.66138e-21
6.66138e-21
6.66138e-21
6.66138e-21
6.66138e-21
6.66138e-21
6.66138e-21
6.66138e-21
6.66138e-21
6.66138e-21
6.66138e-21
6.66138e-21
6.66138e-21
6.66138e-21
6.66138e-21
6.66138e-21
6.66138e-21
6.66138e-21
6.66138e-21
6.66139e-21
6.66139e-21
6.66139e-21
6.66139e-21
6.66139e-21
6.66139e-21
6.6614e-21
6.6614e-21
6.6614e-21
6.6614e-21
6.66141e-21
6.66141e-21
6.66141e-21
6.66141e-21
6.66141e-21
6.66141e-21
6.66142e-21
6.66142e-21
6.66142e-21
6.66143e-21
6.66144e-21
6.66144e-21
6.66145e-21
6.66146e-21
6.66146e-21
6.66147e-21
6.66147e-21
6.66147e-21
6.66148e-21
6.66148e-21
6.66149e-21
6.6615e-21
6.6615e-21
6.66151e-21
6.66152e-21
6.66152e-21
6.66153e-21
6.66153e-21
6.66154e-21
6.66154e-21
6.66155e-21
6.66155e-21
6.66156e-21
6.66156e-21
6.66156e-21
6.66157e-21
6.6615e-21
0
0
0
0
0
0
0
0
0
0
0
0
0
0
0
6.66157e-21
6.66157e-21
6.66157e-21
6.66158e-21
6.66159e-21
6.66159e-21
6.66161e-21
6.66162e-21
6.66164e-21
6.66166e-21
6.66168e-21
6.6617e-21
6.66173e-21
7.93272e-21
2.68447e-20
9.99408e-20
3.5195e-19
1.15335e-18
3.49391e-18
9.71991e-18
2.45988e-17
5.58122e-17
1.11319e-16
1.90638e-16
2.70411e-16
2.91842e-16
2.76821e-16
1.82993e-15
3.16376e-14
6.99508e-13
1.92212e-11
8.9568e-10
1.39366e-07
8.08741e-06
0.000183779
0.00119115
0.00204547
0.00214831
0.0020728
0.00198246
0.00191814
0.00188274
0.00187134
0.00187899
0.00190134
0.00193474
0.00197622
0.0020234
0.00207436
0.00212754
0.00218168
0.00223577
0.00228897
0.00234061
0.00239015
0.00243715
0.00248127
0.00252225
0.00255991
0.00259411
0.00262477
0.00265188
0.00267545
0.00269552
0.00271219
0.00272556
0.00273576
0.00274294
0.00274727
0.00274892
0.00274809
0.00274496
0.00273974
0.0027326
0.00272376
0.00271338
0.00270165
0.00268869
0.00267463
0.00265956
0.00264356
0.00262668
0.002609
0.00259057
0.00257143
0.00255163
0.002531
0.00250935
0.00248666
0.00246292
0.00243811
0.00241221
0.00238519
0.00235704
0.00232772
0.0022972
0.00226543
0.00223237
0.00219797
0.00216218
0.00212493
0.00208616
0.00204579
0.00200375
0.00195995
0.00191428
0.00186666
0.00181695
0.00176504
0.00171079
0.00165403
0.00159457
0.00153222
0.00146673
0.00139781
0.00132513
0.00124828
0.00116677
0.00107996
0.000987011
0.000886772
0.000777617
0.000657098
0.00052093
0.000359647
0
0
0
0
0
0
0
0
0
0
0
0
0
0
0
0
0
0
0
0
0
0
0
0
0
0
0
0
0
0
0
0
0
0
0
0
0
0
0
0
0
0
0
0
0
0
0
0
0
0
0
0
0
0
0
0
0
0
0
0
0
0
0
0
0
0
0
0
0
0
0
0
0
0
0
0
0
0
0
0
0
0
0
0
0
0
0
0
0
0
0
0
0
0
0
0
0
0
0
0
0
0
0
0
0
0
0
0
0
0
0
0
0
0
0
0
0
0
0
0
)
;

boundaryField
{
    inandouthalf11
    {
        type            cyclic;
    }
    inandouthalf12
    {
        type            cyclic;
    }
    inandouthalf21
    {
        type            cyclic;
    }
    inandouthalf22
    {
        type            cyclic;
    }
    inandouthalf31
    {
        type            cyclic;
    }
    inandouthalf32
    {
        type            cyclic;
    }
    inandouthalf41
    {
        type            cyclic;
    }
    inandouthalf42
    {
        type            cyclic;
    }
    top
    {
        type            symmetryPlane;
    }
    walls
    {
        type            zeroGradient;
    }
    frontAndBackPlanes
    {
        type            empty;
    }
}


// ************************************************************************* //
