/*--------------------------------*- C++ -*----------------------------------*\
| =========                 |                                                 |
| \\      /  F ield         | OpenFOAM: The Open Source CFD Toolbox           |
|  \\    /   O peration     | Version:  2.4.x                                 |
|   \\  /    A nd           | Web:      www.OpenFOAM.org                      |
|    \\/     M anipulation  |                                                 |
\*---------------------------------------------------------------------------*/
FoamFile
{
    version     2.0;
    format      ascii;
    class       volScalarField;
    location    "3.35";
    object      tmf;
}
// * * * * * * * * * * * * * * * * * * * * * * * * * * * * * * * * * * * * * //

dimensions      [0 0 0 0 0 0 0];

internalField   nonuniform List<scalar> 
360
(
0.999204
0.999206
0.999206
0.999206
0.999206
0.999206
0.999206
0.999206
0.999206
0.999205
0.999205
0.999205
0.999205
0.999205
0.999205
0.999205
0.999205
0.999204
0.999204
0.999204
0.999204
0.999204
0.999204
0.999204
0.999204
0.999204
0.999204
0.999204
0.999204
0.999204
0.999204
0.999204
0.999204
0.999204
0.999204
0.999204
0.999204
0.999204
0.999204
0.999204
0.999204
0.999204
0.999204
0.999203
0.999203
0.999203
0.999203
0.999203
0.999203
0.999203
0.999203
0.999203
0.999203
0.999203
0.999203
0.999203
0.999203
0.999203
0.999203
0.999203
0.999203
0.999202
0.999202
0.999202
0.999202
0.999202
0.999202
0.999202
0.999202
0.999202
0.999202
0.999201
0.999201
0.999201
0.999201
0.999201
0.999201
0.999201
0.999201
0.9992
0.9992
0.9992
0.9992
0.9992
0.9992
0.999199
0.999199
0.999199
0.999199
0.999199
0.999198
0.999198
0.999198
0.999198
0.999198
0.999197
0.999197
0.999197
0.999197
0.999197
0.999196
0.999196
0.999196
0.999196
0.999195
0.999195
0.999195
0.999194
0.999194
0.999194
0.999194
0.999193
0.999193
0.999193
0.999192
0.999192
0.999192
0.999191
0.999191
0.99919
0.99919
0.99919
0.999189
0.999189
0.999188
0.999188
0.999187
0.999187
0.999292
0.999299
0.999288
0.999274
0.999259
0.999241
0.999221
0.999199
0.99917
0.999129
0.999066
0.998951
0.998582
0.996421
0.993914
0.992263
0.990273
0.987759
0.984491
0.980477
0.9751
0.954127
0.8303
0.824643
0.858782
0.896839
0.928094
0.949187
0.962007
0.969642
0.974313
0.97729
0.979262
0.980604
0.981536
0.982188
0.982644
0.982958
0.983167
0.983298
0.983369
0.983393
0.98338
0.983336
0.983266
0.983174
0.983063
0.982932
0.982785
0.982619
0.982437
0.982238
0.982023
0.981793
0.981553
0.981311
0.981082
0.980888
0.980765
0.980748
0.980866
0.98112
0.981485
0.981923
0.982399
0.982888
0.983373
0.983847
0.984308
0.984752
0.985181
0.985594
0.985992
0.98638
0.986763
0.98714
0.987512
0.98788
0.988244
0.988605
0.988965
0.989324
0.989684
0.990048
0.990417
0.990793
0.991181
0.991585
0.99201
0.992465
0.992963
0.993521
0.994168
0.994959
0.995985
0.996874
0.997201
0.997191
0.997165
0.99714
0.997114
0.997088
0.997051
0.996425
0.995744
0.995719
0.995694
0.995668
0.995643
0.99562
0.995603
0.99559
0.995576
0.994024
0.994198
0.994198
0.994198
0.994198
0.994198
0.994198
0.994198
0.994198
0.994198
0.994198
0.994198
0.994198
0.994198
0.994198
0.994198
0.994198
0.994198
0.994198
0.994198
0.994198
0.994198
0.994198
0.994198
0.994198
0.994198
0.994198
0.994198
0.994198
0.994198
0.994198
0.994198
0.994198
0.994198
0.994198
0.994198
0.994198
0.994198
0.994198
0.994198
0.994198
0.994198
0.994198
0.994198
0.994198
0.994198
0.994198
0.994198
0.994198
0.994198
0.994198
0.994198
0.994198
0.994198
0.994198
0.994198
0.994198
0.994198
0.994198
0.994198
0.994198
0.994198
0.994198
0.994198
0.994198
0.994198
0.994198
0.994198
0.994198
0.994198
0.994198
0.994198
0.994198
0.994198
0.994198
0.994198
0.994198
0.994198
0.994198
0.994198
0.994198
0.994198
0.994198
0.994198
0.994198
0.994198
0.994198
0.994198
0.994198
0.994198
0.994198
0.994198
0.994198
0.994198
0.994198
0.994198
0.994198
0.994198
0.994198
0.994198
0.994198
0.994198
0.994198
0.994198
0.994198
0.994198
0.994198
0.994198
0.994198
0.994198
0.994198
0.994198
0.994198
0.994198
0.994198
0.994198
0.994197
0.994182
0.993272
)
;

boundaryField
{
    inandouthalf11
    {
        type            cyclic;
    }
    inandouthalf12
    {
        type            cyclic;
    }
    inandouthalf21
    {
        type            cyclic;
    }
    inandouthalf22
    {
        type            cyclic;
    }
    inandouthalf31
    {
        type            cyclic;
    }
    inandouthalf32
    {
        type            cyclic;
    }
    inandouthalf41
    {
        type            cyclic;
    }
    inandouthalf42
    {
        type            cyclic;
    }
    top
    {
        type            symmetryPlane;
    }
    walls
    {
        type            calculated;
        value           uniform 0;
    }
    frontAndBackPlanes
    {
        type            empty;
    }
}


// ************************************************************************* //
