/*--------------------------------*- C++ -*----------------------------------*\
| =========                 |                                                 |
| \\      /  F ield         | OpenFOAM: The Open Source CFD Toolbox           |
|  \\    /   O peration     | Version:  2.4.x                                 |
|   \\  /    A nd           | Web:      www.OpenFOAM.org                      |
|    \\/     M anipulation  |                                                 |
\*---------------------------------------------------------------------------*/
FoamFile
{
    version     2.0;
    format      ascii;
    class       volVectorField;
    location    "3.35";
    object      Ur;
}
// * * * * * * * * * * * * * * * * * * * * * * * * * * * * * * * * * * * * * //

dimensions      [0 1 -1 0 0 0 0];

internalField   nonuniform List<vector> 
360
(
(-0.000233261 1.44484e-07 0)
(-0.000232957 1.0576e-06 0)
(-0.000232653 2.31294e-06 0)
(-0.000232665 3.4722e-06 0)
(-0.000232741 4.53839e-06 0)
(-0.000232813 5.57548e-06 0)
(-0.000232889 6.6299e-06 0)
(-0.00023296 7.71686e-06 0)
(-0.000233019 8.824e-06 0)
(-0.000233073 9.93083e-06 0)
(-0.00023313 1.10279e-05 0)
(-0.000233189 1.21213e-05 0)
(-0.000233252 1.32308e-05 0)
(-0.000233316 1.43858e-05 0)
(-0.000233383 1.5624e-05 0)
(-0.000233457 1.69905e-05 0)
(-0.000233541 1.85277e-05 0)
(-0.000233634 2.02481e-05 0)
(-0.000233735 2.20853e-05 0)
(-0.000233834 2.38589e-05 0)
(-0.000233915 2.53217e-05 0)
(-0.000233973 2.6311e-05 0)
(-0.000234006 2.68546e-05 0)
(-0.000234023 2.71053e-05 0)
(-0.000234032 2.72103e-05 0)
(-0.000234037 2.72551e-05 0)
(-0.000234041 2.72771e-05 0)
(-0.000234046 2.72906e-05 0)
(-0.000234051 2.73011e-05 0)
(-0.000234056 2.73109e-05 0)
(-0.000234061 2.73213e-05 0)
(-0.000234068 2.73331e-05 0)
(-0.000234074 2.73462e-05 0)
(-0.000234083 2.73608e-05 0)
(-0.00023409 2.73763e-05 0)
(-0.000234099 2.73923e-05 0)
(-0.000234108 2.74083e-05 0)
(-0.000234118 2.74242e-05 0)
(-0.000234131 2.74397e-05 0)
(-0.000234141 2.74548e-05 0)
(-0.000234155 2.74698e-05 0)
(-0.000234169 2.74846e-05 0)
(-0.000234183 2.74992e-05 0)
(-0.000234201 2.75139e-05 0)
(-0.000234218 2.75287e-05 0)
(-0.000234237 2.75436e-05 0)
(-0.000234258 2.75587e-05 0)
(-0.000234279 2.75739e-05 0)
(-0.000234302 2.75894e-05 0)
(-0.000234329 2.76052e-05 0)
(-0.000234356 2.76211e-05 0)
(-0.000234385 2.76374e-05 0)
(-0.000234416 2.7654e-05 0)
(-0.00023445 2.7671e-05 0)
(-0.000234485 2.76883e-05 0)
(-0.000234524 2.77062e-05 0)
(-0.000234564 2.77244e-05 0)
(-0.000234607 2.77433e-05 0)
(-0.000234652 2.77627e-05 0)
(-0.000234699 2.77827e-05 0)
(-0.000234749 2.78034e-05 0)
(-0.0002348 2.78245e-05 0)
(-0.000234854 2.78462e-05 0)
(-0.000234908 2.78683e-05 0)
(-0.000234964 2.78908e-05 0)
(-0.000235021 2.79136e-05 0)
(-0.000235081 2.79366e-05 0)
(-0.000235142 2.796e-05 0)
(-0.000235205 2.79837e-05 0)
(-0.00023527 2.80079e-05 0)
(-0.000235339 2.80328e-05 0)
(-0.000235411 2.80585e-05 0)
(-0.000235484 2.80852e-05 0)
(-0.00023556 2.81129e-05 0)
(-0.000235637 2.81417e-05 0)
(-0.000235717 2.81716e-05 0)
(-0.000235798 2.82025e-05 0)
(-0.000235881 2.82342e-05 0)
(-0.000235965 2.82668e-05 0)
(-0.000236052 2.83e-05 0)
(-0.00023614 2.83338e-05 0)
(-0.000236232 2.83682e-05 0)
(-0.000236325 2.84032e-05 0)
(-0.000236422 2.8439e-05 0)
(-0.00023652 2.84755e-05 0)
(-0.000236621 2.85128e-05 0)
(-0.000236725 2.85509e-05 0)
(-0.00023683 2.85898e-05 0)
(-0.000236938 2.86295e-05 0)
(-0.000237048 2.86698e-05 0)
(-0.000237161 2.87107e-05 0)
(-0.000237275 2.87522e-05 0)
(-0.000237393 2.87942e-05 0)
(-0.000237514 2.88365e-05 0)
(-0.000237637 2.88793e-05 0)
(-0.000237763 2.89225e-05 0)
(-0.000237892 2.89662e-05 0)
(-0.000238025 2.90101e-05 0)
(-0.00023816 2.90545e-05 0)
(-0.000238299 2.90992e-05 0)
(-0.000238441 2.91442e-05 0)
(-0.000238586 2.91895e-05 0)
(-0.000238735 2.9235e-05 0)
(-0.000238888 2.92806e-05 0)
(-0.000239045 2.93264e-05 0)
(-0.000239205 2.93722e-05 0)
(-0.00023937 2.9418e-05 0)
(-0.000239539 2.94638e-05 0)
(-0.000239713 2.95094e-05 0)
(-0.000239891 2.95548e-05 0)
(-0.000240074 2.96e-05 0)
(-0.000240263 2.96449e-05 0)
(-0.000240456 2.96895e-05 0)
(-0.000240656 2.97338e-05 0)
(-0.000240861 2.97778e-05 0)
(-0.000241073 2.98216e-05 0)
(-0.000241291 2.98653e-05 0)
(-0.000241515 2.99088e-05 0)
(-0.000241747 2.99525e-05 0)
(-0.000241986 2.99965e-05 0)
(-0.000242233 3.00409e-05 0)
(-0.000242488 3.0086e-05 0)
(-0.000242752 3.01319e-05 0)
(-0.000243025 3.01788e-05 0)
(-0.000243307 3.02269e-05 0)
(-0.000243599 3.0276e-05 0)
(-0.000243902 3.03263e-05 0)
(-0.000244216 3.03774e-05 0)
(-0.000244542 3.04292e-05 0)
(-0.000244882 3.04812e-05 0)
(-0.000245236 3.05329e-05 0)
(-0.000245605 3.05837e-05 0)
(-0.00024599 3.06327e-05 0)
(-0.000246396 3.06795e-05 0)
(-0.000246828 3.07236e-05 0)
(-0.000247286 3.07645e-05 0)
(-0.000247767 3.08013e-05 0)
(-0.000248278 3.08323e-05 0)
(-0.000248844 3.08562e-05 0)
(-0.000249494 3.08723e-05 0)
(-0.000250203 3.088e-05 0)
(-0.000250877 3.08713e-05 0)
(-0.000251679 3.08494e-05 0)
(-0.000252723 3.08161e-05 0)
(-0.000254005 3.0756e-05 0)
(-0.000256103 3.05893e-05 0)
(-0.000262482 3.08406e-05 0)
(-0.000262381 3.07152e-05 0)
(-0.000290819 3.93469e-05 0)
(-0.00155312 -3.65952e-05 0)
(-0.0205863 -0.00168455 0)
(-0.0206256 -0.00241686 0)
(-0.0214585 -0.00253443 0)
(-0.0242919 -0.0018233 0)
(-0.0263633 -0.000159732 0)
(-0.0265393 0.00225405 0)
(-0.0253578 0.00482611 0)
(-0.0236672 0.00714081 0)
(-0.0219913 0.00906559 0)
(-0.0205369 0.0106331 0)
(-0.0193496 0.0118952 0)
(-0.0184099 0.0128987 0)
(-0.0176769 0.0136847 0)
(-0.0171062 0.0142878 0)
(-0.0166572 0.0147367 0)
(-0.0162944 0.0150554 0)
(-0.015988 0.0152642 0)
(-0.015713 0.0153799 0)
(-0.0154483 0.015417 0)
(-0.0151762 0.0153878 0)
(-0.0148813 0.015303 0)
(-0.0145503 0.0151716 0)
(-0.0141717 0.0150012 0)
(-0.0137351 0.0147982 0)
(-0.013231 0.0145679 0)
(-0.012651 0.0143141 0)
(-0.0119873 0.01404 0)
(-0.011233 0.0137476 0)
(-0.0103815 0.013438 0)
(-0.00942721 0.0131121 0)
(-0.00836476 0.0127703 0)
(-0.00718959 0.0124131 0)
(-0.00589768 0.0120414 0)
(-0.0044857 0.0116571 0)
(-0.00295107 0.0112633 0)
(-0.00129213 0.0108647 0)
(0.000491668 0.0104683 0)
(0.00239936 0.0100835 0)
(0.00442799 0.00972181 0)
(0.00657196 0.00939559 0)
(0.00882233 0.00911591 0)
(0.0111668 0.0088889 0)
(0.0135912 0.008713 0)
(0.0160834 0.00857945 0)
(0.018636 0.00847656 0)
(0.0212452 0.00839467 0)
(0.0239072 0.00832791 0)
(0.0266178 0.00827297 0)
(0.0293734 0.00822752 0)
(0.0321709 0.00818968 0)
(0.0350075 0.00815823 0)
(0.0379074 0.00813244 0)
(0.0408948 0.00811184 0)
(0.0439686 0.00809554 0)
(0.0471267 0.00808285 0)
(0.0503587 0.00807465 0)
(0.053656 0.00807155 0)
(0.0570213 0.00807213 0)
(0.0604499 0.00807602 0)
(0.0639239 0.00808494 0)
(0.0674357 0.00809896 0)
(0.0709833 0.00811707 0)
(0.0745497 0.00814021 0)
(0.0781192 0.00816905 0)
(0.0816824 0.00820289 0)
(0.0852135 0.00824275 0)
(0.0886854 0.00828952 0)
(0.092085 0.00834145 0)
(0.0953693 0.00839902 0)
(0.0984716 0.00846428 0)
(0.101333 0.00853565 0)
(0.103849 0.00861193 0)
(0.105845 0.00869354 0)
(0.106467 0.00877918 0)
(0.105507 0.00886858 0)
(0.10425 0.00896179 0)
(0.102986 0.00905757 0)
(0.101707 0.0091576 0)
(0.10041 0.0092628 0)
(0.0991123 0.00937147 0)
(0.097797 0.00948568 0)
(0.0964672 0.00960574 0)
(0.0951325 0.00973069 0)
(0.0937824 0.00986221 0)
(0.0924011 0.0100023 0)
(0.0909785 0.0101537 0)
(0.0896066 0.0103066 0)
(0.0884242 0.0104433 0)
(0.0875046 0.0105547 0)
(0.0868617 0.0106341 0)
(0.0861387 0.0107532 0)
(0.00826362 0.0350805 0)
(-0.00443264 0.0394925 0)
(-0.00443242 0.0394923 0)
(-0.00443229 0.0394923 0)
(-0.00443219 0.0394923 0)
(-0.0044321 0.0394923 0)
(-0.00443203 0.0394923 0)
(-0.00443197 0.0394923 0)
(-0.00443192 0.0394923 0)
(-0.00443188 0.0394923 0)
(-0.00443185 0.0394923 0)
(-0.00443182 0.0394923 0)
(-0.0044318 0.0394923 0)
(-0.00443179 0.0394923 0)
(-0.00443177 0.0394923 0)
(-0.00443176 0.0394923 0)
(-0.00443175 0.0394923 0)
(-0.00443175 0.0394923 0)
(-0.00443174 0.0394923 0)
(-0.00443174 0.0394923 0)
(-0.00443173 0.0394923 0)
(-0.00443173 0.0394923 0)
(-0.00443173 0.0394923 0)
(-0.00443173 0.0394923 0)
(-0.00443173 0.0394923 0)
(-0.00443173 0.0394924 0)
(-0.00443173 0.0394923 0)
(-0.00443173 0.0394924 0)
(-0.00443173 0.0394923 0)
(-0.00443172 0.0394924 0)
(-0.00443173 0.0394923 0)
(-0.00443172 0.0394924 0)
(-0.00443172 0.0394923 0)
(-0.00443172 0.0394924 0)
(-0.00443172 0.0394923 0)
(-0.00443172 0.0394924 0)
(-0.00443172 0.0394923 0)
(-0.00443172 0.0394924 0)
(-0.00443172 0.0394923 0)
(-0.00443172 0.0394924 0)
(-0.00443172 0.0394923 0)
(-0.00443172 0.0394924 0)
(-0.00443172 0.0394923 0)
(-0.00443172 0.0394924 0)
(-0.00443172 0.0394923 0)
(-0.00443172 0.0394924 0)
(-0.00443173 0.0394923 0)
(-0.00443172 0.0394924 0)
(-0.00443173 0.0394923 0)
(-0.00443172 0.0394924 0)
(-0.00443173 0.0394923 0)
(-0.00443172 0.0394924 0)
(-0.00443173 0.0394923 0)
(-0.00443172 0.0394924 0)
(-0.00443173 0.0394923 0)
(-0.00443172 0.0394924 0)
(-0.00443173 0.0394923 0)
(-0.00443172 0.0394924 0)
(-0.00443173 0.0394923 0)
(-0.00443172 0.0394924 0)
(-0.00443173 0.0394923 0)
(-0.00443172 0.0394924 0)
(-0.00443173 0.0394923 0)
(-0.00443172 0.0394924 0)
(-0.00443173 0.0394923 0)
(-0.00443172 0.0394924 0)
(-0.00443173 0.0394923 0)
(-0.00443172 0.0394924 0)
(-0.00443173 0.0394923 0)
(-0.00443172 0.0394924 0)
(-0.00443173 0.0394923 0)
(-0.00443172 0.0394924 0)
(-0.00443173 0.0394923 0)
(-0.00443172 0.0394924 0)
(-0.00443173 0.0394923 0)
(-0.00443172 0.0394924 0)
(-0.00443173 0.0394923 0)
(-0.00443172 0.0394924 0)
(-0.00443173 0.0394923 0)
(-0.00443172 0.0394924 0)
(-0.00443173 0.0394923 0)
(-0.00443172 0.0394924 0)
(-0.00443173 0.0394923 0)
(-0.00443172 0.0394924 0)
(-0.00443173 0.0394923 0)
(-0.00443172 0.0394924 0)
(-0.00443173 0.0394923 0)
(-0.00443172 0.0394924 0)
(-0.00443173 0.0394923 0)
(-0.00443172 0.0394924 0)
(-0.00443173 0.0394923 0)
(-0.00443172 0.0394924 0)
(-0.00443173 0.0394923 0)
(-0.00443172 0.0394924 0)
(-0.00443173 0.0394923 0)
(-0.00443172 0.0394924 0)
(-0.00443173 0.0394923 0)
(-0.00443172 0.0394924 0)
(-0.00443173 0.0394923 0)
(-0.00443172 0.0394924 0)
(-0.00443173 0.0394923 0)
(-0.00443172 0.0394924 0)
(-0.00443173 0.0394923 0)
(-0.00443172 0.0394924 0)
(-0.00443173 0.0394923 0)
(-0.00443172 0.0394924 0)
(-0.00443173 0.0394923 0)
(-0.00443172 0.0394924 0)
(-0.00443173 0.0394923 0)
(-0.00443172 0.0394924 0)
(-0.00443173 0.0394923 0)
(-0.00443172 0.0394924 0)
(-0.00443173 0.0394923 0)
(-0.00443172 0.0394924 0)
(-0.00443173 0.0394923 0)
(-0.00443177 0.0394922 0)
(-0.00443302 0.0394836 0)
(-0.00446346 0.0391377 0)
(-0.0051664 0.0223866 0)
)
;

boundaryField
{
    inandouthalf11
    {
        type            cyclic;
    }
    inandouthalf12
    {
        type            cyclic;
    }
    inandouthalf21
    {
        type            cyclic;
    }
    inandouthalf22
    {
        type            cyclic;
    }
    inandouthalf31
    {
        type            cyclic;
    }
    inandouthalf32
    {
        type            cyclic;
    }
    inandouthalf41
    {
        type            cyclic;
    }
    inandouthalf42
    {
        type            cyclic;
    }
    top
    {
        type            symmetryPlane;
    }
    walls
    {
        type            calculated;
        value           uniform (0 0 0);
    }
    frontAndBackPlanes
    {
        type            empty;
    }
}


// ************************************************************************* //
