/*--------------------------------*- C++ -*----------------------------------*\
| =========                 |                                                 |
| \\      /  F ield         | OpenFOAM: The Open Source CFD Toolbox           |
|  \\    /   O peration     | Version:  2.4.x                                 |
|   \\  /    A nd           | Web:      www.OpenFOAM.org                      |
|    \\/     M anipulation  |                                                 |
\*---------------------------------------------------------------------------*/
FoamFile
{
    version     2.0;
    format      ascii;
    class       volScalarField;
    location    "7.9";
    object      ddt0(((1.5*(alpha+1e-08))*rho),Theta);
}
// * * * * * * * * * * * * * * * * * * * * * * * * * * * * * * * * * * * * * //

dimensions      [1 -1 -3 0 0 0 0];

internalField   nonuniform List<scalar> 
360
(
-2.15787e-21
-6.76695e-21
-4.14146e-21
-3.2384e-21
-3.21371e-21
-3.17934e-21
-3.04114e-21
-2.89941e-21
-2.79385e-21
-2.72712e-21
-2.69343e-21
-2.68515e-21
-2.69797e-21
-2.73081e-21
-2.78419e-21
-2.85841e-21
-2.95187e-21
-3.06181e-21
-3.18601e-21
-3.32191e-21
-3.46667e-21
-3.61879e-21
-3.77643e-21
-3.93705e-21
-4.09869e-21
-4.25928e-21
-4.41785e-21
-4.57403e-21
-4.72585e-21
-4.87171e-21
-5.01211e-21
-5.14621e-21
-5.27368e-21
-5.39556e-21
-5.5103e-21
-5.61725e-21
-5.71813e-21
-5.81478e-21
-5.90532e-21
-5.98895e-21
-6.06922e-21
-6.14375e-21
-6.21235e-21
-6.27898e-21
-6.34217e-21
-6.40105e-21
-6.45383e-21
-6.5002e-21
-6.54714e-21
-6.59383e-21
-6.63427e-21
-6.67032e-21
-6.70349e-21
-6.73133e-21
-6.75395e-21
-6.77141e-21
-6.78163e-21
-6.78482e-21
-6.77957e-21
-6.76876e-21
-6.75753e-21
-6.74418e-21
-6.72759e-21
-6.70566e-21
-6.67578e-21
-6.6388e-21
-6.59627e-21
-6.54726e-21
-6.49041e-21
-6.4314e-21
-6.37777e-21
-6.32625e-21
-6.2737e-21
-6.22466e-21
-6.1793e-21
-6.1323e-21
-6.07899e-21
-6.02005e-21
-5.95855e-21
-5.89495e-21
-5.83056e-21
-5.76877e-21
-5.71115e-21
-5.65659e-21
-5.60303e-21
-5.54759e-21
-5.48679e-21
-5.41737e-21
-5.33791e-21
-5.24882e-21
-5.15123e-21
-5.04699e-21
-4.93824e-21
-4.82626e-21
-4.71131e-21
-4.59307e-21
-4.47077e-21
-4.34358e-21
-4.21095e-21
-4.07276e-21
-3.92923e-21
-3.78088e-21
-3.62837e-21
-3.47236e-21
-3.31348e-21
-3.15236e-21
-2.9897e-21
-2.82623e-21
-2.66273e-21
-2.50003e-21
-2.33894e-21
-2.18024e-21
-2.02462e-21
-1.87268e-21
-1.7249e-21
-1.58159e-21
-1.44291e-21
-1.30886e-21
-1.17924e-21
-1.05377e-21
-9.32025e-22
-8.13643e-22
-6.98383e-22
-5.86286e-22
-4.77692e-22
-3.73019e-22
-2.72199e-22
-1.73883e-22
-7.49028e-23
2.93763e-23
1.43357e-22
2.69142e-22
4.05774e-22
1.00928e-22
-1.39891e-16
-5.22085e-16
-1.55027e-15
-3.27276e-15
1.57203e-15
1.17345e-13
2.25062e-12
4.63104e-11
1.07236e-09
2.84092e-08
8.91795e-07
7.55268e-05
0.0125775
0.429094
5.63472
10.4963
5.40565
4.03065
3.10065
2.3108
1.62074
1.04516
0.616308
0.336958
0.176876
0.0932002
0.0513407
0.0302237
0.0189713
0.0125055
0.00852151
0.00592823
0.00416802
0.00293524
0.00205126
0.00140648
0.000930377
0.000576131
0.000311534
0.000113874
-3.31688e-05
-0.000141592
-0.000220345
-0.000276198
-0.000314322
-0.000338716
-0.000352493
-0.000358089
-0.00035743
-0.00035203
-0.000343097
-0.00033158
-0.000318238
-0.000303669
-0.000288344
-0.000272634
-0.000256829
-0.000241151
-0.000225767
-0.000210802
-0.000196343
-0.00018245
-0.00016916
-0.000156491
-0.000144448
-0.000133032
-0.000122237
-0.000111955
-0.000102097
-9.26794e-05
-8.37201e-05
-7.5236e-05
-6.72465e-05
-5.97677e-05
-5.28132e-05
-4.63904e-05
-4.05034e-05
-3.51496e-05
-3.03255e-05
-2.60181e-05
-2.21969e-05
-1.88303e-05
-1.58929e-05
-1.33469e-05
-1.11476e-05
-9.25768e-06
-7.64546e-06
-6.28003e-06
-5.12671e-06
-4.1541e-06
-3.34336e-06
-2.66974e-06
-2.11122e-06
-1.6516e-06
-1.27598e-06
-9.70547e-07
-7.25424e-07
-5.28298e-07
-3.77816e-07
-2.59852e-07
-1.66312e-07
-7.79558e-08
0
0
0
0
0
0
0
0
0
0
0
0
0
0
0
0
0
0
0
0
0
0
0
0
0
0
0
0
0
0
0
0
0
0
0
0
0
0
0
0
0
0
0
0
0
0
0
0
0
0
0
0
0
0
0
0
0
0
0
0
0
0
0
0
0
0
0
0
0
0
0
0
0
0
0
0
0
0
0
0
0
0
0
0
0
0
0
0
0
0
0
0
0
0
0
0
0
0
0
0
0
0
0
0
0
0
0
0
0
0
0
0
0
0
0
0
0
0
0
0
0
0
0
0
)
;

boundaryField
{
    inandouthalf11
    {
        type            cyclic;
    }
    inandouthalf12
    {
        type            cyclic;
    }
    inandouthalf21
    {
        type            cyclic;
    }
    inandouthalf22
    {
        type            cyclic;
    }
    inandouthalf31
    {
        type            cyclic;
    }
    inandouthalf32
    {
        type            cyclic;
    }
    inandouthalf41
    {
        type            cyclic;
    }
    inandouthalf42
    {
        type            cyclic;
    }
    top
    {
        type            symmetryPlane;
    }
    walls
    {
        type            calculated;
        value           uniform -2.15787e-21;
    }
    frontAndBackPlanes
    {
        type            empty;
    }
}


// ************************************************************************* //
