/*--------------------------------*- C++ -*----------------------------------*\
| =========                 |                                                 |
| \\      /  F ield         | OpenFOAM: The Open Source CFD Toolbox           |
|  \\    /   O peration     | Version:  2.4.x                                 |
|   \\  /    A nd           | Web:      www.OpenFOAM.org                      |
|    \\/     M anipulation  |                                                 |
\*---------------------------------------------------------------------------*/
FoamFile
{
    version     2.0;
    format      ascii;
    class       volScalarField;
    location    "7.9";
    object      ddt0(alpha);
}
// * * * * * * * * * * * * * * * * * * * * * * * * * * * * * * * * * * * * * //

dimensions      [0 0 -1 0 0 0 0];

internalField   nonuniform List<scalar> 
360
(
5.45878e-05
8.32808e-05
7.68157e-05
7.35204e-05
7.54984e-05
7.718e-05
7.74881e-05
7.72594e-05
7.69555e-05
7.67086e-05
7.64702e-05
7.61741e-05
7.58336e-05
7.54524e-05
7.50637e-05
7.46899e-05
7.43348e-05
7.39933e-05
7.36647e-05
7.33689e-05
7.30717e-05
7.28131e-05
7.25763e-05
7.23629e-05
7.21745e-05
7.2007e-05
7.18554e-05
7.17403e-05
7.16401e-05
7.1555e-05
7.14842e-05
7.14482e-05
7.13928e-05
7.1396e-05
7.13745e-05
7.13803e-05
7.138e-05
7.1401e-05
7.14438e-05
7.14442e-05
7.14971e-05
7.15318e-05
7.15429e-05
7.15986e-05
7.16263e-05
7.16596e-05
7.16913e-05
7.16759e-05
7.16873e-05
7.17241e-05
7.17008e-05
7.16992e-05
7.16684e-05
7.16466e-05
7.15745e-05
7.15357e-05
7.14258e-05
7.133e-05
7.11933e-05
7.10128e-05
7.08799e-05
7.06898e-05
7.05255e-05
7.03148e-05
7.00865e-05
6.98168e-05
6.95322e-05
6.92153e-05
6.8862e-05
6.84695e-05
6.8104e-05
6.77381e-05
6.73134e-05
6.69207e-05
6.64993e-05
6.60795e-05
6.5598e-05
6.50867e-05
6.45506e-05
6.3996e-05
6.34157e-05
6.28376e-05
6.2264e-05
6.16909e-05
6.11172e-05
6.05301e-05
5.99257e-05
5.92887e-05
5.86189e-05
5.79217e-05
5.72022e-05
5.64681e-05
5.57305e-05
5.49933e-05
5.42573e-05
5.35202e-05
5.2778e-05
5.20259e-05
5.12605e-05
5.04805e-05
4.96858e-05
4.88777e-05
4.80585e-05
4.72302e-05
4.63952e-05
4.55562e-05
4.47169e-05
4.38819e-05
4.30573e-05
4.22502e-05
4.14689e-05
4.07225e-05
4.00208e-05
3.93739e-05
3.87915e-05
3.82826e-05
3.78543e-05
3.75115e-05
3.72546e-05
3.7079e-05
3.69726e-05
3.69144e-05
3.68739e-05
3.68112e-05
3.66802e-05
3.64323e-05
3.60205e-05
3.53985e-05
3.4518e-05
3.33279e-05
3.1791e-05
2.99209e-05
2.78148e-05
2.56394e-05
2.35542e-05
2.16434e-05
1.99723e-05
1.86648e-05
1.77378e-05
1.66908e-05
1.41555e-05
8.396e-06
1.30793e-06
-4.81506e-06
-1.21364e-05
-2.2244e-05
6.003e-05
-0.00161041
-0.897787
-0.264652
0.079699
0.126482
0.155908
0.170268
0.165175
0.143087
0.111335
0.0786627
0.0512008
0.031068
0.0178116
0.00999016
0.00573977
0.0034574
0.00217837
0.00142115
0.000950704
0.000646549
0.000443426
0.000304219
0.000206862
0.000137717
8.8062e-05
5.21518e-05
2.61025e-05
7.22814e-06
-6.36579e-06
-1.60393e-05
-2.27833e-05
-2.73294e-05
-3.02238e-05
-3.18779e-05
-3.2604e-05
-3.26401e-05
-3.21689e-05
-3.13301e-05
-3.0231e-05
-2.89536e-05
-2.75607e-05
-2.61003e-05
-2.4609e-05
-2.31146e-05
-2.16377e-05
-2.01929e-05
-1.87901e-05
-1.74354e-05
-1.61323e-05
-1.48817e-05
-1.36821e-05
-1.25311e-05
-1.14276e-05
-1.0362e-05
-9.32773e-06
-8.32937e-06
-7.37204e-06
-6.46125e-06
-5.60501e-06
-4.8106e-06
-4.08495e-06
-3.43168e-06
-2.85318e-06
-2.3479e-06
-1.91417e-06
-1.55043e-06
-1.25004e-06
-1.00304e-06
-8.03452e-07
-6.45701e-07
-5.21533e-07
-4.23841e-07
-3.46853e-07
-2.87731e-07
-2.4282e-07
-2.0847e-07
-1.79713e-07
-1.52877e-07
-1.27917e-07
-1.0537e-07
-8.56674e-08
-6.83681e-08
-5.43488e-08
-4.12497e-08
-3.21616e-08
-2.39801e-08
-2.2604e-08
-9.06648e-09
-1.57245e-09
-1.23712e-08
6.5373e-09
-4.16212e-09
9.75575e-09
-2.15491e-09
9.92561e-09
-2.62425e-20
-7.94942e-30
-1.59136e-38
-8.87365e-39
-2.70813e-39
-1.32721e-39
-6.99594e-40
-4.85359e-40
-4.72617e-40
-4.13692e-40
-1.47333e-40
-6.44759e-41
-3.22984e-41
-1.74657e-41
-1.20879e-41
-8.22949e-42
-3.36899e-42
-1.65815e-42
-8.51986e-43
-4.73923e-43
-2.35207e-43
-1.17002e-43
-5.80144e-44
-2.83029e-44
-1.35748e-44
-6.39742e-45
-2.96074e-45
-1.34481e-45
-5.99123e-46
-2.61624e-46
-1.11903e-46
-4.68483e-47
-1.91819e-47
-7.67503e-48
-2.99832e-48
-1.14257e-48
-4.24288e-49
-1.53376e-49
-5.3911e-50
-1.84033e-50
-6.09323e-51
-1.95398e-51
-6.05973e-52
-1.8144e-52
-5.23574e-53
-1.45325e-53
-3.87154e-54
-9.87605e-55
-2.40603e-55
-5.58173e-56
-1.22905e-56
-2.55921e-57
-5.01832e-58
-9.22247e-59
-1.57965e-59
-2.5054e-60
-3.65124e-61
-4.84404e-62
-5.78357e-63
-6.12522e-64
-5.6469e-65
-4.41754e-66
-2.82718e-67
-1.3984e-68
-4.83246e-70
-9.25248e-72
-2.56168e-74
-4.07158e-79
-3.47231e-81
-1.46822e-83
-5.05275e-94
-8.68692e-105
-1.08362e-115
-9.71641e-127
-7.47288e-138
-4.34285e-149
-2.19607e-160
-1.72392e-170
-7.39215e-181
-5.66631e-189
-2.19178e-199
-1.94902e-207
-8.87643e-218
-6.70653e-226
-3.7598e-236
-2.30953e-244
-2.38675e-254
-8.08664e-263
-1.5698e-272
-2.8998e-281
-7.7603e-291
-1.06261e-299
-3.71125e-309
5.90063e-320
0
0
0
0
0
0
0
0
0
0
0
0
0
0
0
0
0
0
0
0
0
0
0
)
;

boundaryField
{
    inandouthalf11
    {
        type            cyclic;
    }
    inandouthalf12
    {
        type            cyclic;
    }
    inandouthalf21
    {
        type            cyclic;
    }
    inandouthalf22
    {
        type            cyclic;
    }
    inandouthalf31
    {
        type            cyclic;
    }
    inandouthalf32
    {
        type            cyclic;
    }
    inandouthalf41
    {
        type            cyclic;
    }
    inandouthalf42
    {
        type            cyclic;
    }
    top
    {
        type            symmetryPlane;
    }
    walls
    {
        type            calculated;
        value           uniform 5.45878e-05;
    }
    frontAndBackPlanes
    {
        type            empty;
    }
}


// ************************************************************************* //
