/*--------------------------------*- C++ -*----------------------------------*\
| =========                 |                                                 |
| \\      /  F ield         | OpenFOAM: The Open Source CFD Toolbox           |
|  \\    /   O peration     | Version:  2.4.x                                 |
|   \\  /    A nd           | Web:      www.OpenFOAM.org                      |
|    \\/     M anipulation  |                                                 |
\*---------------------------------------------------------------------------*/
FoamFile
{
    version     2.0;
    format      ascii;
    class       volVectorField;
    location    "7.9";
    object      gradPf;
}
// * * * * * * * * * * * * * * * * * * * * * * * * * * * * * * * * * * * * * //

dimensions      [0 1 -2 0 0 0 0];

internalField   nonuniform List<vector> 
360
(
(0 67.7086 0)
(0 76.6692 0)
(0 0.930672 0)
(0 -12.247 0)
(-3.3446e-14 -5.54463 0)
(-3.34468e-14 -3.02615 0)
(-3.34478e-14 -3.61151 0)
(0 -4.05141 0)
(-3.34503e-14 -4.1089 0)
(0 -4.13339 0)
(-3.34528e-14 -4.12041 0)
(0 -4.10002 0)
(-3.34554e-14 -4.0968 0)
(0 -4.09549 0)
(0 -4.10792 0)
(0 -4.12111 0)
(0 -4.12273 0)
(-3.3462e-14 -4.11899 0)
(0 -4.13302 0)
(0 -4.1302 0)
(0 -4.12865 0)
(-3.34675e-14 -4.14441 0)
(0 -4.14418 0)
(0 -4.14995 0)
(0 -4.1563 0)
(-3.34733e-14 -4.15329 0)
(0 -4.16431 0)
(0 -4.17683 0)
(0 -4.17324 0)
(0 -4.1754 0)
(0 -4.19504 0)
(0 -4.18486 0)
(0 -4.19866 0)
(0 -4.21316 0)
(0 -4.20517 0)
(1.67443e-14 -4.21285 0)
(0 -4.2172 0)
(0 -4.24452 0)
(0 -4.22285 0)
(0 -4.23401 0)
(0 -4.26509 0)
(0 -4.23452 0)
(1.67501e-14 -4.25628 0)
(0 -4.27202 0)
(0 -4.26342 0)
(0 -4.28732 0)
(0 -4.26875 0)
(0 -4.26629 0)
(0 -4.31335 0)
(0 -4.2974 0)
(1.67574e-14 -4.28937 0)
(0 -4.30983 0)
(0 -4.31565 0)
(0 -4.30947 0)
(0 -4.32535 0)
(0 -4.32852 0)
(0 -4.32642 0)
(0 -4.34577 0)
(0 -4.32083 0)
(0 -4.34664 0)
(0 -4.3552 0)
(0 -4.35155 0)
(0 -4.367 0)
(0 -4.36226 0)
(0 -4.36422 0)
(0 -4.36965 0)
(0 -4.38288 0)
(0 -4.38155 0)
(0 -4.36756 0)
(0 -4.38344 0)
(0 -4.41278 0)
(0 -4.38987 0)
(0 -4.39228 0)
(0 -4.41217 0)
(0 -4.41788 0)
(0 -4.41766 0)
(0 -4.40857 0)
(0 -4.41906 0)
(0 -4.4267 0)
(0 -4.42474 0)
(0 -4.42726 0)
(0 -4.4379 0)
(0 -4.44239 0)
(0 -4.4469 0)
(0 -4.45126 0)
(0 -4.45565 0)
(0 -4.45828 0)
(0 -4.45813 0)
(0 -4.46132 0)
(0 -4.46502 0)
(0 -4.46765 0)
(0 -4.47228 0)
(0 -4.478 0)
(0 -4.48252 0)
(0 -4.48668 0)
(0 -4.49039 0)
(0 -4.4933 0)
(0 -4.49569 0)
(0 -4.49809 0)
(0 -4.5005 0)
(0 -4.50287 0)
(0 -4.50541 0)
(0 -4.50794 0)
(0 -4.51017 0)
(0 -4.51211 0)
(0 -4.51373 0)
(0 -4.51498 0)
(0 -4.51586 0)
(0 -4.51633 0)
(0 -4.5163 0)
(0 -4.51567 0)
(0 -4.51432 0)
(0 -4.51213 0)
(0 -4.50897 0)
(0 -4.50471 0)
(0 -4.49926 0)
(0 -4.49252 0)
(0 -4.48446 0)
(0 -4.47507 0)
(0 -4.46438 0)
(0 -4.4524 0)
(0 -4.4391 0)
(0 -4.42446 0)
(0 -4.40862 0)
(0 -4.39214 0)
(0 -4.3762 0)
(0 -4.36237 0)
(0 -4.35157 0)
(0 -4.34237 0)
(0 -4.33036 0)
(0 -4.31156 0)
(0 -4.29097 0)
(0 -4.28502 0)
(0 -4.30036 0)
(0 -4.30822 0)
(0 -4.27614 0)
(0 -4.2404 0)
(0 -4.30707 0)
(0 -4.51799 0)
(0 -4.64398 0)
(0 -4.36708 0)
(0 -4.30137 0)
(0 -4.84972 0)
(0 -5.41238 0)
(0 -7.14071 0)
(0 -9.10775 0)
(0 -6.55172 0)
(0 -7.69012 0)
(0 -6.16392 0)
(0 -0.00152984 0)
(0 0 0)
(0 0 0)
(0 0 0)
(0 0 0)
(0 0 0)
(0 0 0)
(0 0 0)
(0 0 0)
(0 0 0)
(0 0 0)
(0 0 0)
(0 0 0)
(0 0 0)
(0 0 0)
(0 0 0)
(0 0 0)
(0 0 0)
(0 0 0)
(0 0 0)
(0 0 0)
(0 0 0)
(0 0 0)
(0 0 0)
(0 0 0)
(0 0 0)
(0 0 0)
(0 0 0)
(0 0 0)
(0 0 0)
(0 0 0)
(0 0 0)
(0 0 0)
(0 0 0)
(0 0 0)
(0 0 0)
(0 0 0)
(0 0 0)
(0 0 0)
(0 0 0)
(0 0 0)
(0 0 0)
(0 0 0)
(0 0 0)
(0 0 0)
(0 0 0)
(0 0 0)
(0 0 0)
(0 0 0)
(0 0 0)
(0 0 0)
(0 0 0)
(0 0 0)
(0 0 0)
(0 0 0)
(0 0 0)
(0 0 0)
(0 0 0)
(0 0 0)
(0 0 0)
(0 0 0)
(0 0 0)
(0 0 0)
(0 0 0)
(0 0 0)
(0 0 0)
(0 0 0)
(0 0 0)
(0 0 0)
(0 0 0)
(0 0 0)
(0 0 0)
(0 0 0)
(0 0 0)
(0 0 0)
(0 0 0)
(0 0 0)
(0 0 0)
(0 0 0)
(0 0 0)
(0 0 0)
(0 0 0)
(0 0 0)
(0 0 0)
(0 0 0)
(0 0 0)
(0 0 0)
(0 0 0)
(0 0 0)
(0 0 0)
(0 0 0)
(0 0 0)
(0 0 0)
(0 0 0)
(0 0 0)
(0 0 0)
(0 0 0)
(0 0 0)
(0 0 0)
(0 0 0)
(0 0 0)
(0 0 0)
(0 0 0)
(0 0 0)
(0 0 0)
(0 0 0)
(0 0 0)
(0 0 0)
(0 0 0)
(0 0 0)
(0 0 0)
(0 0 0)
(0 0 0)
(0 0 0)
(0 0 0)
(0 0 0)
(0 0 0)
(0 0 0)
(0 0 0)
(0 0 0)
(0 0 0)
(0 0 0)
(0 0 0)
(0 0 0)
(0 0 0)
(0 0 0)
(0 0 0)
(0 0 0)
(0 0 0)
(0 0 0)
(0 0 0)
(0 0 0)
(0 0 0)
(0 0 0)
(0 0 0)
(0 0 0)
(0 0 0)
(0 0 0)
(0 0 0)
(0 0 0)
(0 0 0)
(0 0 0)
(0 0 0)
(0 0 0)
(0 0 0)
(0 0 0)
(0 0 0)
(0 0 0)
(0 0 0)
(0 0 0)
(0 0 0)
(0 0 0)
(0 0 0)
(0 0 0)
(0 0 0)
(0 0 0)
(0 0 0)
(0 0 0)
(0 0 0)
(0 0 0)
(0 0 0)
(0 0 0)
(0 0 0)
(0 0 0)
(0 0 0)
(0 0 0)
(0 0 0)
(0 0 0)
(0 0 0)
(0 0 0)
(0 0 0)
(0 0 0)
(0 0 0)
(0 0 0)
(0 0 0)
(0 0 0)
(0 0 0)
(0 0 0)
(0 0 0)
(0 0 0)
(0 0 0)
(0 0 0)
(0 0 0)
(0 0 0)
(0 0 0)
(0 0 0)
(0 0 0)
(0 0 0)
(0 0 0)
(0 0 0)
(0 0 0)
(0 0 0)
(0 0 0)
(0 0 0)
(0 0 0)
(0 0 0)
(0 0 0)
(0 0 0)
(0 0 0)
(0 0 0)
(0 0 0)
(0 0 0)
(0 0 0)
(0 0 0)
(0 0 0)
(0 0 0)
(0 0 0)
(0 0 0)
(0 0 0)
(0 0 0)
(0 0 0)
)
;

boundaryField
{
    inandouthalf11
    {
        type            cyclic;
    }
    inandouthalf12
    {
        type            cyclic;
    }
    inandouthalf21
    {
        type            cyclic;
    }
    inandouthalf22
    {
        type            cyclic;
    }
    inandouthalf31
    {
        type            cyclic;
    }
    inandouthalf32
    {
        type            cyclic;
    }
    inandouthalf41
    {
        type            cyclic;
    }
    inandouthalf42
    {
        type            cyclic;
    }
    top
    {
        type            symmetryPlane;
    }
    walls
    {
        type            calculated;
        value           uniform (0 0 0);
    }
    frontAndBackPlanes
    {
        type            empty;
    }
}


// ************************************************************************* //
