/*--------------------------------*- C++ -*----------------------------------*\
| =========                 |                                                 |
| \\      /  F ield         | OpenFOAM: The Open Source CFD Toolbox           |
|  \\    /   O peration     | Version:  2.4.x                                 |
|   \\  /    A nd           | Web:      www.OpenFOAM.org                      |
|    \\/     M anipulation  |                                                 |
\*---------------------------------------------------------------------------*/
FoamFile
{
    version     2.0;
    format      ascii;
    class       surfaceScalarField;
    location    "7.9";
    object      phia;
}
// * * * * * * * * * * * * * * * * * * * * * * * * * * * * * * * * * * * * * //

dimensions      [0 3 -1 0 0 0 0];

internalField   nonuniform List<scalar> 
359
(
-1.78295e-13
-4.50647e-13
-7.01865e-13
-9.4224e-13
-1.18913e-12
-1.44151e-12
-1.69493e-12
-1.94763e-12
-2.19936e-12
-2.4503e-12
-2.70048e-12
-2.94971e-12
-3.19784e-12
-3.44475e-12
-3.69041e-12
-3.93487e-12
-4.17818e-12
-4.4204e-12
-4.66156e-12
-4.90177e-12
-5.14103e-12
-5.37947e-12
-5.61715e-12
-5.85415e-12
-6.09056e-12
-6.32644e-12
-6.56184e-12
-6.79689e-12
-7.03164e-12
-7.26613e-12
-7.50041e-12
-7.7346e-12
-7.96863e-12
-8.20269e-12
-8.43671e-12
-8.67078e-12
-8.90487e-12
-9.13905e-12
-9.3734e-12
-9.60778e-12
-9.84236e-12
-1.00771e-11
-1.03119e-11
-1.05469e-11
-1.0782e-11
-1.10173e-11
-1.12527e-11
-1.1488e-11
-1.17235e-11
-1.19591e-11
-1.21947e-11
-1.24302e-11
-1.26658e-11
-1.29013e-11
-1.31365e-11
-1.33717e-11
-1.36066e-11
-1.38412e-11
-1.40754e-11
-1.43091e-11
-1.45423e-11
-1.4775e-11
-1.50071e-11
-1.52387e-11
-1.54695e-11
-1.56995e-11
-1.59285e-11
-1.61566e-11
-1.63836e-11
-1.66094e-11
-1.6834e-11
-1.70574e-11
-1.72795e-11
-1.75004e-11
-1.772e-11
-1.79382e-11
-1.81549e-11
-1.83699e-11
-1.85833e-11
-1.87949e-11
-1.90047e-11
-1.92126e-11
-1.94187e-11
-1.9623e-11
-1.98255e-11
-2.00261e-11
-2.02248e-11
-2.04214e-11
-2.0616e-11
-2.08083e-11
-2.09983e-11
-2.1186e-11
-2.13714e-11
-2.15544e-11
-2.17351e-11
-2.19134e-11
-2.20894e-11
-2.2263e-11
-2.24342e-11
-2.26029e-11
-2.27691e-11
-2.29328e-11
-2.30939e-11
-2.32523e-11
-2.34081e-11
-2.35613e-11
-2.37118e-11
-2.38597e-11
-2.4005e-11
-2.41478e-11
-2.42881e-11
-2.44262e-11
-2.45621e-11
-2.4696e-11
-2.48281e-11
-2.49587e-11
-2.50881e-11
-2.52166e-11
-2.53444e-11
-2.54718e-11
-2.55991e-11
-2.57264e-11
-2.58538e-11
-2.59812e-11
-2.61085e-11
-2.62352e-11
-2.63609e-11
-2.64849e-11
-2.66062e-11
-2.67241e-11
-2.68372e-11
-2.69445e-11
-2.70454e-11
-2.71396e-11
-2.72276e-11
-2.73098e-11
-2.7387e-11
-2.7461e-11
-2.75334e-11
-2.7604e-11
-2.76665e-11
-2.77111e-11
-2.77364e-11
-2.7747e-11
-2.77498e-11
-2.77505e-11
-2.80284e-11
-2.38302e-11
3.13574e-09
9.85839e-09
1.419e-08
1.73017e-08
2.01643e-08
2.28578e-08
2.52387e-08
2.70774e-08
2.81314e-08
2.81646e-08
2.69917e-08
2.46378e-08
2.14963e-08
1.80988e-08
1.47976e-08
1.17464e-08
8.99463e-09
6.54451e-09
4.37803e-09
2.47058e-09
7.96857e-10
-6.66948e-10
-1.94252e-09
-3.04936e-09
-4.00496e-09
-4.82497e-09
-5.52345e-09
-6.11305e-09
-6.60512e-09
-7.00986e-09
-7.33645e-09
-7.59312e-09
-7.78725e-09
-7.92542e-09
-8.01355e-09
-8.05689e-09
-8.06013e-09
-8.02749e-09
-7.9627e-09
-7.86913e-09
-7.74979e-09
-7.60739e-09
-7.44439e-09
-7.263e-09
-7.06529e-09
-6.8532e-09
-6.62859e-09
-6.39332e-09
-6.14926e-09
-5.89833e-09
-5.64255e-09
-5.38401e-09
-5.12481e-09
-4.86185e-09
-4.59744e-09
-4.33417e-09
-4.07474e-09
-3.82194e-09
-3.57845e-09
-3.34682e-09
-3.12933e-09
-2.92804e-09
-2.74456e-09
-2.58024e-09
-2.43573e-09
-2.31104e-09
-2.20599e-09
-2.12027e-09
-2.05257e-09
-2.0011e-09
-1.96412e-09
-1.93918e-09
-1.923e-09
-1.91018e-09
-1.89452e-09
-1.86636e-09
-1.8177e-09
-1.74846e-09
-1.65976e-09
-1.55163e-09
-1.42354e-09
-1.27612e-09
-1.10387e-09
-9.12805e-10
-6.79514e-10
-4.18645e-10
-8.77873e-12
3.21072e-10
4.97701e-10
1.60232e-09
1.60886e-09
3.18951e-09
2.47677e-09
6.41676e-09
-5.78884e-08
-1.46586e-07
-1.58372e-07
-1.58225e-07
-1.58221e-07
-1.58201e-07
-1.58179e-07
-1.58156e-07
-1.5813e-07
-1.58104e-07
-1.58078e-07
-1.58056e-07
-1.58034e-07
-1.58013e-07
-1.57997e-07
-1.57984e-07
-1.57972e-07
-1.57961e-07
-1.57947e-07
-1.5792e-07
-1.57884e-07
-1.57876e-07
-1.57875e-07
-1.57876e-07
-1.57876e-07
-1.57876e-07
-1.57876e-07
-1.57876e-07
-1.57876e-07
-1.57876e-07
-1.57876e-07
-1.57876e-07
-1.57876e-07
-1.57876e-07
-1.57876e-07
-1.57876e-07
-1.57876e-07
-1.57876e-07
-1.57876e-07
-1.57876e-07
-1.57876e-07
-1.57876e-07
-1.57876e-07
-1.57876e-07
-1.57876e-07
-1.57876e-07
-1.57876e-07
-1.57876e-07
-1.57876e-07
-1.57876e-07
-1.57876e-07
-1.57876e-07
-1.57876e-07
-1.57876e-07
-1.57876e-07
-1.57876e-07
-1.57876e-07
-1.57876e-07
-1.57876e-07
-1.57876e-07
-1.57876e-07
-1.57876e-07
-1.57876e-07
-1.57876e-07
-1.57876e-07
-1.57876e-07
-1.57876e-07
-1.57876e-07
-1.57876e-07
-1.57876e-07
-1.57876e-07
-1.57876e-07
-1.57876e-07
-1.57876e-07
-1.57876e-07
-1.57876e-07
-1.57876e-07
-1.57876e-07
-1.57876e-07
-1.57876e-07
-1.57876e-07
-1.57876e-07
-1.57876e-07
-1.57876e-07
-1.57876e-07
-1.57876e-07
-1.57876e-07
-1.57876e-07
-1.57876e-07
-1.57876e-07
-1.57876e-07
-1.57876e-07
-1.57876e-07
-1.57876e-07
-1.57876e-07
-1.57876e-07
-1.57876e-07
-1.57876e-07
-1.57876e-07
-1.57876e-07
-1.57876e-07
-1.57876e-07
-1.57876e-07
-1.57876e-07
-1.57876e-07
-1.57876e-07
-1.57876e-07
-1.57876e-07
-1.57876e-07
-1.57876e-07
-1.57876e-07
-1.57876e-07
-1.57876e-07
-1.57875e-07
-1.57858e-07
-1.57148e-07
-1.3191e-07
)
;

boundaryField
{
    inandouthalf11
    {
        type            cyclic;
        value           nonuniform List<scalar> 
100
(
-1.39568e-38
-1.61621e-14
-3.35733e-14
-4.90204e-14
-6.45622e-14
-8.06169e-14
-9.67804e-14
-1.12827e-13
-1.28721e-13
-1.44471e-13
-1.60082e-13
-1.75551e-13
-1.90868e-13
-2.06025e-13
-2.21021e-13
-2.35858e-13
-2.5054e-13
-2.65074e-13
-2.79462e-13
-2.93712e-13
-3.07827e-13
-3.21812e-13
-3.35676e-13
-3.49422e-13
-3.63058e-13
-3.76588e-13
-3.90018e-13
-4.03352e-13
-4.16596e-13
-4.29754e-13
-4.42829e-13
-4.55826e-13
-4.68748e-13
-4.81598e-13
-4.94379e-13
-5.07093e-13
-5.1974e-13
-5.32325e-13
-5.44848e-13
-5.5731e-13
-5.69712e-13
-5.82055e-13
-5.94338e-13
-6.0656e-13
-6.18725e-13
-6.3083e-13
-6.42875e-13
-6.54856e-13
-6.66771e-13
-6.78625e-13
-6.90414e-13
-7.02136e-13
-7.13789e-13
-7.25372e-13
-7.36882e-13
-7.48316e-13
-7.59672e-13
-7.70945e-13
-7.82133e-13
-7.93229e-13
-8.04234e-13
-8.15147e-13
-8.25966e-13
-8.36688e-13
-8.47311e-13
-8.57827e-13
-8.68235e-13
-8.78531e-13
-8.88709e-13
-8.98765e-13
-9.08698e-13
-9.1851e-13
-9.28198e-13
-9.37761e-13
-9.47198e-13
-9.56509e-13
-9.65688e-13
-9.74732e-13
-9.83635e-13
-9.92397e-13
-1.00101e-12
-1.00949e-12
-1.01781e-12
-1.026e-12
-1.03404e-12
-1.04194e-12
-1.0497e-12
-1.05731e-12
-1.06477e-12
-1.07207e-12
-1.07922e-12
-1.08621e-12
-1.09305e-12
-1.09973e-12
-1.10625e-12
-1.11262e-12
-1.11883e-12
-1.12489e-12
-1.13079e-12
-1.13653e-12
)
;
    }
    inandouthalf12
    {
        type            cyclic;
        value           nonuniform List<scalar> 
100
(
1.39568e-38
1.61621e-14
3.35733e-14
4.90204e-14
6.45622e-14
8.06169e-14
9.67804e-14
1.12827e-13
1.28721e-13
1.44471e-13
1.60082e-13
1.75551e-13
1.90868e-13
2.06025e-13
2.21021e-13
2.35858e-13
2.5054e-13
2.65074e-13
2.79462e-13
2.93712e-13
3.07827e-13
3.21812e-13
3.35676e-13
3.49422e-13
3.63058e-13
3.76588e-13
3.90018e-13
4.03352e-13
4.16596e-13
4.29754e-13
4.42829e-13
4.55826e-13
4.68748e-13
4.81598e-13
4.94379e-13
5.07093e-13
5.1974e-13
5.32325e-13
5.44848e-13
5.5731e-13
5.69712e-13
5.82055e-13
5.94338e-13
6.0656e-13
6.18725e-13
6.3083e-13
6.42875e-13
6.54856e-13
6.66771e-13
6.78625e-13
6.90414e-13
7.02136e-13
7.13789e-13
7.25372e-13
7.36882e-13
7.48316e-13
7.59672e-13
7.70945e-13
7.82133e-13
7.93229e-13
8.04234e-13
8.15147e-13
8.25966e-13
8.36688e-13
8.47311e-13
8.57827e-13
8.68235e-13
8.78531e-13
8.88709e-13
8.98765e-13
9.08698e-13
9.1851e-13
9.28198e-13
9.37761e-13
9.47198e-13
9.56509e-13
9.65688e-13
9.74732e-13
9.83635e-13
9.92397e-13
1.00101e-12
1.00949e-12
1.01781e-12
1.026e-12
1.03404e-12
1.04194e-12
1.0497e-12
1.05731e-12
1.06477e-12
1.07207e-12
1.07922e-12
1.08621e-12
1.09305e-12
1.09973e-12
1.10625e-12
1.11262e-12
1.11883e-12
1.12489e-12
1.13079e-12
1.13653e-12
)
;
    }
    inandouthalf21
    {
        type            cyclic;
        value           nonuniform List<scalar> 
100
(
-1.14212e-12
-1.14755e-12
-1.15282e-12
-1.15793e-12
-1.16288e-12
-1.16767e-12
-1.1723e-12
-1.17677e-12
-1.18108e-12
-1.18524e-12
-1.18924e-12
-1.1931e-12
-1.1968e-12
-1.20035e-12
-1.20376e-12
-1.20703e-12
-1.21016e-12
-1.21315e-12
-1.216e-12
-1.21871e-12
-1.22126e-12
-1.22366e-12
-1.22588e-12
-1.22791e-12
-1.22973e-12
-1.23131e-12
-1.23262e-12
-1.23365e-12
-1.23436e-12
-1.23474e-12
-1.23477e-12
-1.23446e-12
-1.23381e-12
-1.23284e-12
-1.23157e-12
-1.23001e-12
-1.22815e-12
-1.22598e-12
-1.22341e-12
-1.22036e-12
-1.21692e-12
-1.21366e-12
-1.21127e-12
-1.21004e-12
-1.2097e-12
-1.20971e-12
-1.21003e-12
-1.56202e-12
-1.16161e-08
-1.00439e-07
-2.29839e-07
-3.27449e-07
-4.0294e-07
-4.62716e-07
-5.10237e-07
-5.47591e-07
-5.76293e-07
-5.97741e-07
-6.13394e-07
-6.24695e-07
-6.32881e-07
-6.38866e-07
-6.43266e-07
-6.46487e-07
-6.48799e-07
-6.50396e-07
-6.51417e-07
-6.51967e-07
-6.52126e-07
-6.51959e-07
-6.51516e-07
-6.5084e-07
-6.49965e-07
-6.4892e-07
-6.47732e-07
-6.46419e-07
-6.45002e-07
-6.43497e-07
-6.41917e-07
-6.40276e-07
-6.38584e-07
-6.36852e-07
-6.3509e-07
-6.33304e-07
-6.31504e-07
-6.29696e-07
-6.27887e-07
-6.26082e-07
-6.24287e-07
-6.22508e-07
-6.20749e-07
-6.19014e-07
-6.17309e-07
-6.15637e-07
-6.14001e-07
-6.12406e-07
-6.10855e-07
-6.09351e-07
-6.07897e-07
-6.06497e-07
)
;
    }
    inandouthalf22
    {
        type            cyclic;
        value           nonuniform List<scalar> 
100
(
1.14212e-12
1.14755e-12
1.15282e-12
1.15793e-12
1.16288e-12
1.16767e-12
1.1723e-12
1.17677e-12
1.18108e-12
1.18524e-12
1.18924e-12
1.1931e-12
1.1968e-12
1.20035e-12
1.20376e-12
1.20703e-12
1.21016e-12
1.21315e-12
1.216e-12
1.21871e-12
1.22126e-12
1.22366e-12
1.22588e-12
1.22791e-12
1.22973e-12
1.23131e-12
1.23262e-12
1.23365e-12
1.23436e-12
1.23474e-12
1.23477e-12
1.23446e-12
1.23381e-12
1.23284e-12
1.23157e-12
1.23001e-12
1.22815e-12
1.22598e-12
1.22341e-12
1.22036e-12
1.21692e-12
1.21366e-12
1.21127e-12
1.21004e-12
1.2097e-12
1.20971e-12
1.21003e-12
1.56202e-12
1.16161e-08
1.00439e-07
2.29839e-07
3.27449e-07
4.0294e-07
4.62716e-07
5.10237e-07
5.47591e-07
5.76293e-07
5.97741e-07
6.13394e-07
6.24695e-07
6.32881e-07
6.38866e-07
6.43266e-07
6.46487e-07
6.48799e-07
6.50396e-07
6.51417e-07
6.51967e-07
6.52126e-07
6.51959e-07
6.51516e-07
6.5084e-07
6.49965e-07
6.4892e-07
6.47732e-07
6.46419e-07
6.45002e-07
6.43497e-07
6.41917e-07
6.40276e-07
6.38584e-07
6.36852e-07
6.3509e-07
6.33304e-07
6.31504e-07
6.29696e-07
6.27887e-07
6.26082e-07
6.24287e-07
6.22508e-07
6.20749e-07
6.19014e-07
6.17309e-07
6.15637e-07
6.14001e-07
6.12406e-07
6.10855e-07
6.09351e-07
6.07897e-07
6.06497e-07
)
;
    }
    inandouthalf31
    {
        type            cyclic;
        value           nonuniform List<scalar> 
110
(
-6.05154e-07
-6.16112e-07
-6.27299e-07
-6.38722e-07
-6.50388e-07
-6.62302e-07
-6.74472e-07
-6.86902e-07
-6.996e-07
-7.12572e-07
-7.25822e-07
-7.39358e-07
-7.53183e-07
-7.67305e-07
-7.81726e-07
-7.96454e-07
-8.11492e-07
-8.26846e-07
-8.42522e-07
-8.58523e-07
-8.74856e-07
-8.91527e-07
-9.08541e-07
-9.25905e-07
-9.43625e-07
-9.6171e-07
-9.80167e-07
-9.99006e-07
-1.01824e-06
-1.03788e-06
-1.05794e-06
-1.07845e-06
-1.09943e-06
-1.12093e-06
-1.14301e-06
-1.16569e-06
-1.18882e-06
-1.12239e-06
-1.1387e-06
-1.1554e-06
-1.17238e-06
-1.18986e-06
-1.20742e-06
-1.22924e-06
-1.2495e-06
-1.26846e-06
-1.28876e-06
-1.30975e-06
-1.3316e-06
-1.35439e-06
-1.37823e-06
-1.40321e-06
-1.42941e-06
-1.45698e-06
-1.48596e-06
-1.51622e-06
-1.54793e-06
-1.58099e-06
-1.61531e-06
-1.65076e-06
-1.68715e-06
-1.72421e-06
-1.76097e-06
-1.79713e-06
-1.83363e-06
-1.87084e-06
-1.90882e-06
-1.94756e-06
-1.98709e-06
-2.02742e-06
-2.06858e-06
-2.11056e-06
-2.1534e-06
-2.19711e-06
-2.2417e-06
-2.28721e-06
-2.33363e-06
-2.381e-06
-2.42932e-06
-2.47863e-06
-2.52894e-06
-2.58027e-06
-2.63265e-06
-2.68608e-06
-2.7406e-06
-2.79623e-06
-2.85298e-06
-2.91089e-06
-2.96998e-06
-3.03026e-06
-3.09177e-06
-3.15452e-06
-3.21855e-06
-3.28388e-06
-3.35053e-06
-3.41854e-06
-3.48792e-06
-3.55872e-06
-3.63095e-06
-3.70465e-06
-3.77985e-06
-3.85657e-06
-3.93484e-06
-4.01471e-06
-4.0962e-06
-4.17934e-06
-4.26417e-06
-4.35072e-06
-4.43903e-06
-4.52913e-06
)
;
    }
    inandouthalf32
    {
        type            cyclic;
        value           nonuniform List<scalar> 
110
(
6.05154e-07
6.16112e-07
6.27299e-07
6.38722e-07
6.50388e-07
6.62302e-07
6.74472e-07
6.86902e-07
6.996e-07
7.12572e-07
7.25822e-07
7.39358e-07
7.53183e-07
7.67305e-07
7.81726e-07
7.96454e-07
8.11492e-07
8.26846e-07
8.42522e-07
8.58523e-07
8.74856e-07
8.91527e-07
9.08541e-07
9.25905e-07
9.43625e-07
9.6171e-07
9.80167e-07
9.99006e-07
1.01824e-06
1.03788e-06
1.05794e-06
1.07845e-06
1.09943e-06
1.12093e-06
1.14301e-06
1.16569e-06
1.18882e-06
1.12239e-06
1.1387e-06
1.1554e-06
1.17238e-06
1.18986e-06
1.20742e-06
1.22924e-06
1.2495e-06
1.26846e-06
1.28876e-06
1.30975e-06
1.3316e-06
1.35439e-06
1.37823e-06
1.40321e-06
1.42941e-06
1.45698e-06
1.48596e-06
1.51622e-06
1.54793e-06
1.58099e-06
1.61531e-06
1.65076e-06
1.68715e-06
1.72421e-06
1.76097e-06
1.79713e-06
1.83363e-06
1.87084e-06
1.90882e-06
1.94756e-06
1.98709e-06
2.02742e-06
2.06858e-06
2.11056e-06
2.1534e-06
2.19711e-06
2.2417e-06
2.28721e-06
2.33363e-06
2.381e-06
2.42932e-06
2.47863e-06
2.52894e-06
2.58027e-06
2.63265e-06
2.68608e-06
2.7406e-06
2.79623e-06
2.85298e-06
2.91089e-06
2.96998e-06
3.03026e-06
3.09177e-06
3.15452e-06
3.21855e-06
3.28388e-06
3.35053e-06
3.41854e-06
3.48792e-06
3.55872e-06
3.63095e-06
3.70465e-06
3.77985e-06
3.85657e-06
3.93484e-06
4.01471e-06
4.0962e-06
4.17934e-06
4.26417e-06
4.35072e-06
4.43903e-06
4.52913e-06
)
;
    }
    inandouthalf41
    {
        type            cyclic;
        value           nonuniform List<scalar> 
50
(
-4.05403e-06
-4.05403e-06
-4.05403e-06
-4.05403e-06
-4.05403e-06
-4.05403e-06
-4.05403e-06
-4.05403e-06
-4.05403e-06
-4.05403e-06
-4.05403e-06
-4.05403e-06
-4.05403e-06
-4.05403e-06
-4.05403e-06
-4.05403e-06
-4.05403e-06
-4.05403e-06
-4.05403e-06
-4.05403e-06
-4.05403e-06
-4.05403e-06
-4.05403e-06
-4.05403e-06
-4.05403e-06
-4.05403e-06
-4.05403e-06
-4.05403e-06
-4.05403e-06
-4.05403e-06
-4.05403e-06
-4.05403e-06
-4.05403e-06
-4.05403e-06
-4.05403e-06
-4.05403e-06
-4.05403e-06
-4.05403e-06
-4.05403e-06
-4.05403e-06
-4.05403e-06
-4.05403e-06
-4.05403e-06
-4.05403e-06
-4.05403e-06
-4.05403e-06
-4.05403e-06
-4.05402e-06
-4.05374e-06
-4.04714e-06
)
;
    }
    inandouthalf42
    {
        type            cyclic;
        value           nonuniform List<scalar> 
50
(
4.05403e-06
4.05403e-06
4.05403e-06
4.05403e-06
4.05403e-06
4.05403e-06
4.05403e-06
4.05403e-06
4.05403e-06
4.05403e-06
4.05403e-06
4.05403e-06
4.05403e-06
4.05403e-06
4.05403e-06
4.05403e-06
4.05403e-06
4.05403e-06
4.05403e-06
4.05403e-06
4.05403e-06
4.05403e-06
4.05403e-06
4.05403e-06
4.05403e-06
4.05403e-06
4.05403e-06
4.05403e-06
4.05403e-06
4.05403e-06
4.05403e-06
4.05403e-06
4.05403e-06
4.05403e-06
4.05403e-06
4.05403e-06
4.05403e-06
4.05403e-06
4.05403e-06
4.05403e-06
4.05403e-06
4.05403e-06
4.05403e-06
4.05403e-06
4.05403e-06
4.05403e-06
4.05403e-06
4.05402e-06
4.05374e-06
4.04714e-06
)
;
    }
    top
    {
        type            symmetryPlane;
        value           uniform 0;
    }
    walls
    {
        type            fixedValue;
        value           uniform 0;
    }
    frontAndBackPlanes
    {
        type            empty;
        value           nonuniform 0();
    }
}


// ************************************************************************* //
