/*--------------------------------*- C++ -*----------------------------------*\
| =========                 |                                                 |
| \\      /  F ield         | OpenFOAM: The Open Source CFD Toolbox           |
|  \\    /   O peration     | Version:  2.4.x                                 |
|   \\  /    A nd           | Web:      www.OpenFOAM.org                      |
|    \\/     M anipulation  |                                                 |
\*---------------------------------------------------------------------------*/
FoamFile
{
    version     2.0;
    format      ascii;
    class       surfaceScalarField;
    location    "7.9";
    object      phia_0;
}
// * * * * * * * * * * * * * * * * * * * * * * * * * * * * * * * * * * * * * //

dimensions      [0 3 -1 0 0 0 0];

internalField   nonuniform List<scalar> 
359
(
-1.78312e-13
-4.50689e-13
-7.01929e-13
-9.42321e-13
-1.18922e-12
-1.44163e-12
-1.69506e-12
-1.94778e-12
-2.19952e-12
-2.45047e-12
-2.70066e-12
-2.94991e-12
-3.19806e-12
-3.44498e-12
-3.69065e-12
-3.93512e-12
-4.17845e-12
-4.42068e-12
-4.66186e-12
-4.90209e-12
-5.14137e-12
-5.37982e-12
-5.61752e-12
-5.85455e-12
-6.09098e-12
-6.32688e-12
-6.56231e-12
-6.79738e-12
-7.03215e-12
-7.26667e-12
-7.50098e-12
-7.73519e-12
-7.96925e-12
-8.20334e-12
-8.43739e-12
-8.67148e-12
-8.9056e-12
-9.13981e-12
-9.37419e-12
-9.60861e-12
-9.84322e-12
-1.0078e-11
-1.03128e-11
-1.05478e-11
-1.0783e-11
-1.10183e-11
-1.12537e-11
-1.14891e-11
-1.17246e-11
-1.19602e-11
-1.21958e-11
-1.24315e-11
-1.2667e-11
-1.29025e-11
-1.31379e-11
-1.33731e-11
-1.3608e-11
-1.38426e-11
-1.40769e-11
-1.43105e-11
-1.45438e-11
-1.47765e-11
-1.50087e-11
-1.52403e-11
-1.54711e-11
-1.57012e-11
-1.59303e-11
-1.61584e-11
-1.63854e-11
-1.66112e-11
-1.68359e-11
-1.70593e-11
-1.72815e-11
-1.75024e-11
-1.7722e-11
-1.79402e-11
-1.81569e-11
-1.8372e-11
-1.85854e-11
-1.87971e-11
-1.90069e-11
-1.92148e-11
-1.9421e-11
-1.96253e-11
-1.98278e-11
-2.00285e-11
-2.02272e-11
-2.04239e-11
-2.06185e-11
-2.08108e-11
-2.10009e-11
-2.11886e-11
-2.1374e-11
-2.15571e-11
-2.17378e-11
-2.19161e-11
-2.20922e-11
-2.22658e-11
-2.2437e-11
-2.26058e-11
-2.2772e-11
-2.29357e-11
-2.30968e-11
-2.32552e-11
-2.34111e-11
-2.35643e-11
-2.37148e-11
-2.38627e-11
-2.40081e-11
-2.41509e-11
-2.42912e-11
-2.44293e-11
-2.45652e-11
-2.46991e-11
-2.48313e-11
-2.49619e-11
-2.50913e-11
-2.52198e-11
-2.53476e-11
-2.5475e-11
-2.56023e-11
-2.57296e-11
-2.58571e-11
-2.59845e-11
-2.61118e-11
-2.62385e-11
-2.63642e-11
-2.64881e-11
-2.66095e-11
-2.67273e-11
-2.68405e-11
-2.69478e-11
-2.70487e-11
-2.71429e-11
-2.72308e-11
-2.7313e-11
-2.73903e-11
-2.74642e-11
-2.75366e-11
-2.76072e-11
-2.76696e-11
-2.77143e-11
-2.77396e-11
-2.77502e-11
-2.7753e-11
-2.77537e-11
-2.8029e-11
-2.37586e-11
3.11316e-09
9.82147e-09
1.4161e-08
1.72822e-08
2.01518e-08
2.28498e-08
2.52325e-08
2.70706e-08
2.8122e-08
2.8151e-08
2.69728e-08
2.46141e-08
2.14697e-08
1.80713e-08
1.47704e-08
1.172e-08
8.96927e-09
6.52024e-09
4.35482e-09
2.44838e-09
7.75615e-10
-6.87299e-10
-1.96204e-09
-3.06812e-09
-4.023e-09
-4.84235e-09
-5.54024e-09
-6.12929e-09
-6.62085e-09
-7.02513e-09
-7.3513e-09
-7.60759e-09
-7.80137e-09
-7.93924e-09
-8.0271e-09
-8.07019e-09
-8.07322e-09
-8.04039e-09
-7.97544e-09
-7.88173e-09
-7.76227e-09
-7.61977e-09
-7.45668e-09
-7.27523e-09
-7.07747e-09
-6.86534e-09
-6.64071e-09
-6.40543e-09
-6.16136e-09
-5.91043e-09
-5.65466e-09
-5.39614e-09
-5.13696e-09
-4.87403e-09
-4.60965e-09
-4.34642e-09
-4.08704e-09
-3.83429e-09
-3.59084e-09
-3.35927e-09
-3.14184e-09
-2.94061e-09
-2.7572e-09
-2.59294e-09
-2.4485e-09
-2.32387e-09
-2.21888e-09
-2.13322e-09
-2.06558e-09
-2.01416e-09
-1.97722e-09
-1.95231e-09
-1.93615e-09
-1.92334e-09
-1.90767e-09
-1.87948e-09
-1.83079e-09
-1.76151e-09
-1.67278e-09
-1.56461e-09
-1.43647e-09
-1.28901e-09
-1.11672e-09
-9.25624e-10
-6.92298e-10
-4.31411e-10
-2.15201e-11
3.0792e-10
4.92704e-10
1.59168e-09
1.60184e-09
3.17818e-09
2.47094e-09
6.40648e-09
-5.79247e-08
-1.46598e-07
-1.58372e-07
-1.58225e-07
-1.58221e-07
-1.58201e-07
-1.58179e-07
-1.58156e-07
-1.5813e-07
-1.58104e-07
-1.58078e-07
-1.58056e-07
-1.58034e-07
-1.58013e-07
-1.57997e-07
-1.57984e-07
-1.57972e-07
-1.57961e-07
-1.57947e-07
-1.5792e-07
-1.57884e-07
-1.57876e-07
-1.57875e-07
-1.57876e-07
-1.57876e-07
-1.57876e-07
-1.57876e-07
-1.57876e-07
-1.57876e-07
-1.57876e-07
-1.57876e-07
-1.57876e-07
-1.57876e-07
-1.57876e-07
-1.57876e-07
-1.57876e-07
-1.57876e-07
-1.57876e-07
-1.57876e-07
-1.57876e-07
-1.57876e-07
-1.57876e-07
-1.57876e-07
-1.57876e-07
-1.57876e-07
-1.57876e-07
-1.57876e-07
-1.57876e-07
-1.57876e-07
-1.57876e-07
-1.57876e-07
-1.57876e-07
-1.57876e-07
-1.57876e-07
-1.57876e-07
-1.57876e-07
-1.57876e-07
-1.57876e-07
-1.57876e-07
-1.57876e-07
-1.57876e-07
-1.57876e-07
-1.57876e-07
-1.57876e-07
-1.57876e-07
-1.57876e-07
-1.57876e-07
-1.57876e-07
-1.57876e-07
-1.57876e-07
-1.57876e-07
-1.57876e-07
-1.57876e-07
-1.57876e-07
-1.57876e-07
-1.57876e-07
-1.57876e-07
-1.57876e-07
-1.57876e-07
-1.57876e-07
-1.57876e-07
-1.57876e-07
-1.57876e-07
-1.57876e-07
-1.57876e-07
-1.57876e-07
-1.57876e-07
-1.57876e-07
-1.57876e-07
-1.57876e-07
-1.57876e-07
-1.57876e-07
-1.57876e-07
-1.57876e-07
-1.57876e-07
-1.57876e-07
-1.57876e-07
-1.57876e-07
-1.57876e-07
-1.57876e-07
-1.57876e-07
-1.57876e-07
-1.57876e-07
-1.57876e-07
-1.57876e-07
-1.57876e-07
-1.57876e-07
-1.57876e-07
-1.57876e-07
-1.57876e-07
-1.57876e-07
-1.57876e-07
-1.57875e-07
-1.57875e-07
-1.57858e-07
-1.57148e-07
-1.31911e-07
)
;

boundaryField
{
    inandouthalf11
    {
        type            cyclic;
        value           nonuniform List<scalar> 
100
(
-1.39533e-38
-1.61595e-14
-3.35677e-14
-4.90119e-14
-6.45505e-14
-8.06019e-14
-9.6762e-14
-1.12805e-13
-1.28696e-13
-1.44442e-13
-1.6005e-13
-1.75514e-13
-1.90828e-13
-2.05982e-13
-2.20974e-13
-2.35807e-13
-2.50486e-13
-2.65016e-13
-2.79401e-13
-2.93647e-13
-3.07758e-13
-3.21741e-13
-3.35601e-13
-3.49344e-13
-3.62976e-13
-3.76503e-13
-3.89929e-13
-4.0326e-13
-4.16501e-13
-4.29656e-13
-4.42728e-13
-4.55722e-13
-4.6864e-13
-4.81487e-13
-4.94265e-13
-5.06976e-13
-5.1962e-13
-5.32202e-13
-5.44722e-13
-5.57181e-13
-5.69579e-13
-5.81919e-13
-5.94199e-13
-6.06418e-13
-6.1858e-13
-6.30682e-13
-6.42723e-13
-6.54701e-13
-6.66613e-13
-6.78463e-13
-6.90249e-13
-7.01968e-13
-7.13618e-13
-7.25197e-13
-7.36703e-13
-7.48134e-13
-7.59486e-13
-7.70756e-13
-7.8194e-13
-7.93033e-13
-8.04035e-13
-8.14944e-13
-8.25759e-13
-8.36478e-13
-8.47097e-13
-8.5761e-13
-8.68014e-13
-8.78306e-13
-8.88481e-13
-8.98533e-13
-9.08462e-13
-9.18271e-13
-9.27955e-13
-9.37514e-13
-9.46948e-13
-9.56254e-13
-9.6543e-13
-9.7447e-13
-9.8337e-13
-9.92128e-13
-1.00074e-12
-1.00921e-12
-1.01753e-12
-1.02572e-12
-1.03376e-12
-1.04165e-12
-1.0494e-12
-1.05701e-12
-1.06446e-12
-1.07177e-12
-1.07891e-12
-1.0859e-12
-1.09273e-12
-1.09941e-12
-1.10592e-12
-1.11229e-12
-1.1185e-12
-1.12455e-12
-1.13045e-12
-1.13619e-12
)
;
    }
    inandouthalf12
    {
        type            cyclic;
        value           nonuniform List<scalar> 
100
(
1.39533e-38
1.61595e-14
3.35677e-14
4.90119e-14
6.45505e-14
8.06019e-14
9.6762e-14
1.12805e-13
1.28696e-13
1.44442e-13
1.6005e-13
1.75514e-13
1.90828e-13
2.05982e-13
2.20974e-13
2.35807e-13
2.50486e-13
2.65016e-13
2.79401e-13
2.93647e-13
3.07758e-13
3.21741e-13
3.35601e-13
3.49344e-13
3.62976e-13
3.76503e-13
3.89929e-13
4.0326e-13
4.16501e-13
4.29656e-13
4.42728e-13
4.55722e-13
4.6864e-13
4.81487e-13
4.94265e-13
5.06976e-13
5.1962e-13
5.32202e-13
5.44722e-13
5.57181e-13
5.69579e-13
5.81919e-13
5.94199e-13
6.06418e-13
6.1858e-13
6.30682e-13
6.42723e-13
6.54701e-13
6.66613e-13
6.78463e-13
6.90249e-13
7.01968e-13
7.13618e-13
7.25197e-13
7.36703e-13
7.48134e-13
7.59486e-13
7.70756e-13
7.8194e-13
7.93033e-13
8.04035e-13
8.14944e-13
8.25759e-13
8.36478e-13
8.47097e-13
8.5761e-13
8.68014e-13
8.78306e-13
8.88481e-13
8.98533e-13
9.08462e-13
9.18271e-13
9.27955e-13
9.37514e-13
9.46948e-13
9.56254e-13
9.6543e-13
9.7447e-13
9.8337e-13
9.92128e-13
1.00074e-12
1.00921e-12
1.01753e-12
1.02572e-12
1.03376e-12
1.04165e-12
1.0494e-12
1.05701e-12
1.06446e-12
1.07177e-12
1.07891e-12
1.0859e-12
1.09273e-12
1.09941e-12
1.10592e-12
1.11229e-12
1.1185e-12
1.12455e-12
1.13045e-12
1.13619e-12
)
;
    }
    inandouthalf21
    {
        type            cyclic;
        value           nonuniform List<scalar> 
100
(
-1.14177e-12
-1.1472e-12
-1.15246e-12
-1.15757e-12
-1.16252e-12
-1.1673e-12
-1.17193e-12
-1.1764e-12
-1.18071e-12
-1.18486e-12
-1.18886e-12
-1.19271e-12
-1.19641e-12
-1.19996e-12
-1.20337e-12
-1.20663e-12
-1.20976e-12
-1.21275e-12
-1.21559e-12
-1.21829e-12
-1.22084e-12
-1.22324e-12
-1.22545e-12
-1.22748e-12
-1.22929e-12
-1.23087e-12
-1.23218e-12
-1.2332e-12
-1.23391e-12
-1.23428e-12
-1.23431e-12
-1.23399e-12
-1.23334e-12
-1.23236e-12
-1.23109e-12
-1.22953e-12
-1.22767e-12
-1.2255e-12
-1.22293e-12
-1.21987e-12
-1.21643e-12
-1.21317e-12
-1.21077e-12
-1.20954e-12
-1.2092e-12
-1.20921e-12
-1.20953e-12
-1.55806e-12
-1.15689e-08
-1.00337e-07
-2.29751e-07
-3.27366e-07
-4.02856e-07
-4.62626e-07
-5.10135e-07
-5.47474e-07
-5.76159e-07
-5.97589e-07
-6.13227e-07
-6.24516e-07
-6.32692e-07
-6.3867e-07
-6.43065e-07
-6.46281e-07
-6.4859e-07
-6.50184e-07
-6.51202e-07
-6.51749e-07
-6.51906e-07
-6.51736e-07
-6.51292e-07
-6.50614e-07
-6.49737e-07
-6.48692e-07
-6.47501e-07
-6.46188e-07
-6.4477e-07
-6.43263e-07
-6.41682e-07
-6.4004e-07
-6.38347e-07
-6.36615e-07
-6.34851e-07
-6.33065e-07
-6.31264e-07
-6.29456e-07
-6.27646e-07
-6.2584e-07
-6.24045e-07
-6.22265e-07
-6.20506e-07
-6.18771e-07
-6.17065e-07
-6.15392e-07
-6.13756e-07
-6.12161e-07
-6.10609e-07
-6.09105e-07
-6.07651e-07
-6.0625e-07
)
;
    }
    inandouthalf22
    {
        type            cyclic;
        value           nonuniform List<scalar> 
100
(
1.14177e-12
1.1472e-12
1.15246e-12
1.15757e-12
1.16252e-12
1.1673e-12
1.17193e-12
1.1764e-12
1.18071e-12
1.18486e-12
1.18886e-12
1.19271e-12
1.19641e-12
1.19996e-12
1.20337e-12
1.20663e-12
1.20976e-12
1.21275e-12
1.21559e-12
1.21829e-12
1.22084e-12
1.22324e-12
1.22545e-12
1.22748e-12
1.22929e-12
1.23087e-12
1.23218e-12
1.2332e-12
1.23391e-12
1.23428e-12
1.23431e-12
1.23399e-12
1.23334e-12
1.23236e-12
1.23109e-12
1.22953e-12
1.22767e-12
1.2255e-12
1.22293e-12
1.21987e-12
1.21643e-12
1.21317e-12
1.21077e-12
1.20954e-12
1.2092e-12
1.20921e-12
1.20953e-12
1.55806e-12
1.15689e-08
1.00337e-07
2.29751e-07
3.27366e-07
4.02856e-07
4.62626e-07
5.10135e-07
5.47474e-07
5.76159e-07
5.97589e-07
6.13227e-07
6.24516e-07
6.32692e-07
6.3867e-07
6.43065e-07
6.46281e-07
6.4859e-07
6.50184e-07
6.51202e-07
6.51749e-07
6.51906e-07
6.51736e-07
6.51292e-07
6.50614e-07
6.49737e-07
6.48692e-07
6.47501e-07
6.46188e-07
6.4477e-07
6.43263e-07
6.41682e-07
6.4004e-07
6.38347e-07
6.36615e-07
6.34851e-07
6.33065e-07
6.31264e-07
6.29456e-07
6.27646e-07
6.2584e-07
6.24045e-07
6.22265e-07
6.20506e-07
6.18771e-07
6.17065e-07
6.15392e-07
6.13756e-07
6.12161e-07
6.10609e-07
6.09105e-07
6.07651e-07
6.0625e-07
)
;
    }
    inandouthalf31
    {
        type            cyclic;
        value           nonuniform List<scalar> 
110
(
-6.04908e-07
-6.1586e-07
-6.27042e-07
-6.38459e-07
-6.5012e-07
-6.62028e-07
-6.74192e-07
-6.86617e-07
-6.99309e-07
-7.12274e-07
-7.25518e-07
-7.39047e-07
-7.52867e-07
-7.66981e-07
-7.81396e-07
-7.96117e-07
-8.11148e-07
-8.26495e-07
-8.42163e-07
-8.58158e-07
-8.74483e-07
-8.91146e-07
-9.08152e-07
-9.25508e-07
-9.4322e-07
-9.61297e-07
-9.79746e-07
-9.98576e-07
-1.0178e-06
-1.03743e-06
-1.05748e-06
-1.07798e-06
-1.09895e-06
-1.12044e-06
-1.14251e-06
-1.16519e-06
-1.1883e-06
-1.12185e-06
-1.13815e-06
-1.15484e-06
-1.17181e-06
-1.18927e-06
-1.20682e-06
-1.22864e-06
-1.24888e-06
-1.26783e-06
-1.28812e-06
-1.3091e-06
-1.33093e-06
-1.35371e-06
-1.37754e-06
-1.40251e-06
-1.4287e-06
-1.45625e-06
-1.48521e-06
-1.51547e-06
-1.54716e-06
-1.5802e-06
-1.61451e-06
-1.64995e-06
-1.68632e-06
-1.72337e-06
-1.76011e-06
-1.79624e-06
-1.83272e-06
-1.86992e-06
-1.90788e-06
-1.9466e-06
-1.98611e-06
-2.02643e-06
-2.06756e-06
-2.10952e-06
-2.15234e-06
-2.19603e-06
-2.2406e-06
-2.28608e-06
-2.33248e-06
-2.37983e-06
-2.42813e-06
-2.47741e-06
-2.5277e-06
-2.579e-06
-2.63135e-06
-2.68476e-06
-2.73925e-06
-2.79485e-06
-2.85158e-06
-2.90946e-06
-2.96852e-06
-3.02877e-06
-3.09025e-06
-3.15297e-06
-3.21697e-06
-3.28226e-06
-3.34888e-06
-3.41686e-06
-3.48621e-06
-3.55697e-06
-3.62917e-06
-3.70283e-06
-3.77799e-06
-3.85467e-06
-3.93291e-06
-4.01274e-06
-4.09419e-06
-4.17729e-06
-4.26207e-06
-4.34858e-06
-4.43685e-06
-4.5269e-06
)
;
    }
    inandouthalf32
    {
        type            cyclic;
        value           nonuniform List<scalar> 
110
(
6.04908e-07
6.1586e-07
6.27042e-07
6.38459e-07
6.5012e-07
6.62028e-07
6.74192e-07
6.86617e-07
6.99309e-07
7.12274e-07
7.25518e-07
7.39047e-07
7.52867e-07
7.66981e-07
7.81396e-07
7.96117e-07
8.11148e-07
8.26495e-07
8.42163e-07
8.58158e-07
8.74483e-07
8.91146e-07
9.08152e-07
9.25508e-07
9.4322e-07
9.61297e-07
9.79746e-07
9.98576e-07
1.0178e-06
1.03743e-06
1.05748e-06
1.07798e-06
1.09895e-06
1.12044e-06
1.14251e-06
1.16519e-06
1.1883e-06
1.12185e-06
1.13815e-06
1.15484e-06
1.17181e-06
1.18927e-06
1.20682e-06
1.22864e-06
1.24888e-06
1.26783e-06
1.28812e-06
1.3091e-06
1.33093e-06
1.35371e-06
1.37754e-06
1.40251e-06
1.4287e-06
1.45625e-06
1.48521e-06
1.51547e-06
1.54716e-06
1.5802e-06
1.61451e-06
1.64995e-06
1.68632e-06
1.72337e-06
1.76011e-06
1.79624e-06
1.83272e-06
1.86992e-06
1.90788e-06
1.9466e-06
1.98611e-06
2.02643e-06
2.06756e-06
2.10952e-06
2.15234e-06
2.19603e-06
2.2406e-06
2.28608e-06
2.33248e-06
2.37983e-06
2.42813e-06
2.47741e-06
2.5277e-06
2.579e-06
2.63135e-06
2.68476e-06
2.73925e-06
2.79485e-06
2.85158e-06
2.90946e-06
2.96852e-06
3.02877e-06
3.09025e-06
3.15297e-06
3.21697e-06
3.28226e-06
3.34888e-06
3.41686e-06
3.48621e-06
3.55697e-06
3.62917e-06
3.70283e-06
3.77799e-06
3.85467e-06
3.93291e-06
4.01274e-06
4.09419e-06
4.17729e-06
4.26207e-06
4.34858e-06
4.43685e-06
4.5269e-06
)
;
    }
    inandouthalf41
    {
        type            cyclic;
        value           nonuniform List<scalar> 
50
(
-4.05204e-06
-4.05204e-06
-4.05204e-06
-4.05204e-06
-4.05204e-06
-4.05204e-06
-4.05204e-06
-4.05204e-06
-4.05204e-06
-4.05204e-06
-4.05204e-06
-4.05204e-06
-4.05204e-06
-4.05204e-06
-4.05204e-06
-4.05204e-06
-4.05204e-06
-4.05204e-06
-4.05204e-06
-4.05204e-06
-4.05204e-06
-4.05204e-06
-4.05204e-06
-4.05204e-06
-4.05204e-06
-4.05204e-06
-4.05204e-06
-4.05204e-06
-4.05204e-06
-4.05204e-06
-4.05204e-06
-4.05204e-06
-4.05204e-06
-4.05204e-06
-4.05204e-06
-4.05204e-06
-4.05204e-06
-4.05204e-06
-4.05204e-06
-4.05204e-06
-4.05204e-06
-4.05204e-06
-4.05204e-06
-4.05204e-06
-4.05204e-06
-4.05204e-06
-4.05204e-06
-4.05203e-06
-4.05174e-06
-4.04515e-06
)
;
    }
    inandouthalf42
    {
        type            cyclic;
        value           nonuniform List<scalar> 
50
(
4.05204e-06
4.05204e-06
4.05204e-06
4.05204e-06
4.05204e-06
4.05204e-06
4.05204e-06
4.05204e-06
4.05204e-06
4.05204e-06
4.05204e-06
4.05204e-06
4.05204e-06
4.05204e-06
4.05204e-06
4.05204e-06
4.05204e-06
4.05204e-06
4.05204e-06
4.05204e-06
4.05204e-06
4.05204e-06
4.05204e-06
4.05204e-06
4.05204e-06
4.05204e-06
4.05204e-06
4.05204e-06
4.05204e-06
4.05204e-06
4.05204e-06
4.05204e-06
4.05204e-06
4.05204e-06
4.05204e-06
4.05204e-06
4.05204e-06
4.05204e-06
4.05204e-06
4.05204e-06
4.05204e-06
4.05204e-06
4.05204e-06
4.05204e-06
4.05204e-06
4.05204e-06
4.05204e-06
4.05203e-06
4.05174e-06
4.04515e-06
)
;
    }
    top
    {
        type            symmetryPlane;
        value           uniform 0;
    }
    walls
    {
        type            fixedValue;
        value           uniform 0;
    }
    frontAndBackPlanes
    {
        type            empty;
        value           nonuniform 0();
    }
}


// ************************************************************************* //
