/*--------------------------------*- C++ -*----------------------------------*\
| =========                 |                                                 |
| \\      /  F ield         | OpenFOAM: The Open Source CFD Toolbox           |
|  \\    /   O peration     | Version:  2.4.x                                 |
|   \\  /    A nd           | Web:      www.OpenFOAM.org                      |
|    \\/     M anipulation  |                                                 |
\*---------------------------------------------------------------------------*/
FoamFile
{
    version     2.0;
    format      ascii;
    class       surfaceScalarField;
    location    "7.9";
    object      phib_0;
}
// * * * * * * * * * * * * * * * * * * * * * * * * * * * * * * * * * * * * * //

dimensions      [0 3 -1 0 0 0 0];

internalField   nonuniform List<scalar> 
359
(
2.80358e-13
7.10003e-13
1.10582e-12
1.48413e-12
1.87275e-12
2.27007e-12
2.66892e-12
3.06653e-12
3.46252e-12
3.8572e-12
4.2506e-12
4.64243e-12
5.03245e-12
5.42047e-12
5.80643e-12
6.19041e-12
6.57251e-12
6.95281e-12
7.33136e-12
7.70833e-12
8.08372e-12
8.45773e-12
8.83046e-12
9.20204e-12
9.57259e-12
9.94222e-12
1.0311e-11
1.06792e-11
1.10467e-11
1.14138e-11
1.17804e-11
1.21468e-11
1.25129e-11
1.28789e-11
1.32447e-11
1.36105e-11
1.39762e-11
1.4342e-11
1.47079e-11
1.50737e-11
1.54398e-11
1.58059e-11
1.61721e-11
1.65384e-11
1.69048e-11
1.72713e-11
1.76379e-11
1.80043e-11
1.83707e-11
1.87372e-11
1.91036e-11
1.94698e-11
1.98357e-11
2.02015e-11
2.05668e-11
2.09318e-11
2.12962e-11
2.166e-11
2.2023e-11
2.23849e-11
2.27461e-11
2.31062e-11
2.34653e-11
2.38233e-11
2.418e-11
2.45352e-11
2.48888e-11
2.52407e-11
2.55907e-11
2.59385e-11
2.62843e-11
2.66282e-11
2.69697e-11
2.73092e-11
2.76463e-11
2.79811e-11
2.83134e-11
2.86429e-11
2.89695e-11
2.92931e-11
2.96136e-11
2.9931e-11
3.02454e-11
3.05566e-11
3.08647e-11
3.11697e-11
3.14715e-11
3.17698e-11
3.20645e-11
3.23555e-11
3.26426e-11
3.29258e-11
3.3205e-11
3.34803e-11
3.37516e-11
3.40189e-11
3.42823e-11
3.45416e-11
3.47967e-11
3.50477e-11
3.52944e-11
3.55367e-11
3.57746e-11
3.6008e-11
3.62369e-11
3.64612e-11
3.6681e-11
3.68963e-11
3.7107e-11
3.73134e-11
3.75154e-11
3.77133e-11
3.79073e-11
3.80977e-11
3.82847e-11
3.84687e-11
3.86502e-11
3.88295e-11
3.9007e-11
3.91833e-11
3.93585e-11
3.95329e-11
3.97065e-11
3.98793e-11
4.00508e-11
4.02205e-11
4.03874e-11
4.05504e-11
4.07081e-11
4.0859e-11
4.10012e-11
4.1133e-11
4.12532e-11
4.1361e-11
4.1457e-11
4.1542e-11
4.16172e-11
4.16836e-11
4.17417e-11
4.17911e-11
4.18268e-11
4.18308e-11
4.17897e-11
4.17053e-11
4.15472e-11
4.12695e-11
4.14136e-11
3.34089e-11
-2.36705e-09
-2.99962e-09
-2.54368e-09
-2.13612e-09
-1.72404e-09
-1.31909e-09
-9.51085e-10
-6.45325e-10
-4.13604e-10
-2.52514e-10
-1.48665e-10
-8.59925e-11
-5.01663e-11
-3.01028e-11
-1.85851e-11
-1.16505e-11
-7.28249e-12
-4.43323e-12
-2.52725e-12
-1.231e-12
-3.41885e-13
2.68228e-13
6.83228e-13
9.59656e-13
1.13657e-12
1.24151e-12
1.29424e-12
1.30912e-12
1.29675e-12
1.26498e-12
1.21967e-12
1.16524e-12
1.10499e-12
1.0414e-12
9.76338e-13
9.11187e-13
8.46965e-13
7.84407e-13
7.24037e-13
6.66212e-13
6.11165e-13
5.59032e-13
5.09876e-13
4.63703e-13
4.20479e-13
3.8014e-13
3.42604e-13
3.07774e-13
2.75548e-13
2.4582e-13
2.18489e-13
1.93459e-13
1.70633e-13
1.49518e-13
1.30125e-13
1.12458e-13
9.65061e-14
8.22428e-14
6.96203e-14
5.85688e-14
4.89958e-14
4.07923e-14
3.3835e-14
2.79954e-14
2.31394e-14
1.91277e-14
1.58289e-14
1.31293e-14
1.09238e-14
9.11608e-15
7.62688e-15
6.39249e-15
5.36204e-15
4.49002e-15
3.73915e-15
3.08136e-15
2.5026e-15
2.00021e-15
1.57122e-15
1.21069e-15
9.11559e-16
6.68036e-16
4.70467e-16
3.17526e-16
1.95765e-16
1.03186e-16
1.41469e-17
-2.20576e-17
-2.78408e-17
-8.02121e-17
-5.2065e-17
-7.049e-17
-2.69546e-17
-3.69561e-17
9.70326e-17
8.82984e-18
8.564e-18
8.35764e-18
8.0852e-18
7.87156e-18
7.59247e-18
7.36673e-18
7.07761e-18
6.83699e-18
6.53493e-18
6.27379e-18
5.95743e-18
5.68268e-18
5.36275e-18
5.0806e-18
4.75571e-18
4.46477e-18
4.14804e-18
3.87038e-18
3.57866e-18
3.34713e-18
3.15091e-18
3.01019e-18
2.89083e-18
2.78048e-18
2.68514e-18
2.59927e-18
2.50776e-18
2.42151e-18
2.36931e-18
2.31603e-18
2.25872e-18
2.18513e-18
2.12662e-18
2.04767e-18
1.96643e-18
1.87104e-18
1.83509e-18
1.78283e-18
1.73112e-18
1.64919e-18
1.59044e-18
1.49774e-18
1.38404e-18
1.25512e-18
1.17918e-18
1.07147e-18
9.61064e-19
8.12405e-19
6.96805e-19
5.4399e-19
3.99608e-19
2.14746e-19
3.09974e-19
3.20747e-19
3.45613e-19
3.11388e-19
3.43633e-19
3.50358e-19
3.58398e-19
3.41885e-19
3.74964e-19
3.83959e-19
3.94568e-19
3.77568e-19
3.84118e-19
3.64196e-19
3.47891e-19
3.14943e-19
3.22916e-19
3.17622e-19
3.14368e-19
2.99265e-19
2.92724e-19
2.7853e-19
2.64321e-19
2.44829e-19
2.3185e-19
2.17474e-19
2.03875e-19
1.91718e-19
1.7776e-19
1.70252e-19
1.63407e-19
1.63869e-19
1.77802e-19
2.14413e-19
2.5234e-19
3.39237e-19
3.71134e-19
4.874e-19
5.96971e-19
8.19325e-19
8.12936e-19
9.63488e-19
1.10946e-18
1.45109e-18
1.6203e-18
2.02591e-18
2.4267e-18
3.06036e-18
3.40398e-18
4.03088e-18
4.661e-18
5.61302e-18
6.40678e-18
7.43125e-18
8.54115e-18
9.78664e-18
1.18686e-17
1.36441e-17
1.55825e-17
1.70088e-17
1.95147e-17
2.16746e-17
2.59471e-17
)
;

boundaryField
{
    inandouthalf11
    {
        type            cyclic;
        value           nonuniform List<scalar> 
100
(
-2.77508e-10
-2.76056e-10
-2.75848e-10
-2.76065e-10
-2.76185e-10
-2.76237e-10
-2.76295e-10
-2.76362e-10
-2.76432e-10
-2.76501e-10
-2.76572e-10
-2.76642e-10
-2.76712e-10
-2.76783e-10
-2.76853e-10
-2.76925e-10
-2.76996e-10
-2.77068e-10
-2.77141e-10
-2.77214e-10
-2.77286e-10
-2.7736e-10
-2.77434e-10
-2.77508e-10
-2.77583e-10
-2.77658e-10
-2.77734e-10
-2.7781e-10
-2.77887e-10
-2.77964e-10
-2.78042e-10
-2.78121e-10
-2.782e-10
-2.7828e-10
-2.7836e-10
-2.78441e-10
-2.78522e-10
-2.78605e-10
-2.78688e-10
-2.78771e-10
-2.78856e-10
-2.78941e-10
-2.79027e-10
-2.79114e-10
-2.79201e-10
-2.79289e-10
-2.79379e-10
-2.79468e-10
-2.79559e-10
-2.79651e-10
-2.79743e-10
-2.79836e-10
-2.7993e-10
-2.80026e-10
-2.80121e-10
-2.80219e-10
-2.80317e-10
-2.80416e-10
-2.80516e-10
-2.80617e-10
-2.8072e-10
-2.80822e-10
-2.80927e-10
-2.81032e-10
-2.81139e-10
-2.81247e-10
-2.81356e-10
-2.81467e-10
-2.81578e-10
-2.8169e-10
-2.81805e-10
-2.81921e-10
-2.82037e-10
-2.82156e-10
-2.82276e-10
-2.82398e-10
-2.82521e-10
-2.82646e-10
-2.82772e-10
-2.829e-10
-2.8303e-10
-2.83162e-10
-2.83296e-10
-2.83431e-10
-2.83569e-10
-2.83709e-10
-2.83851e-10
-2.83995e-10
-2.84141e-10
-2.8429e-10
-2.84441e-10
-2.84595e-10
-2.84752e-10
-2.84911e-10
-2.85073e-10
-2.85238e-10
-2.85407e-10
-2.85578e-10
-2.85753e-10
-2.85931e-10
)
;
    }
    inandouthalf12
    {
        type            cyclic;
        value           nonuniform List<scalar> 
100
(
2.77508e-10
2.76056e-10
2.75848e-10
2.76065e-10
2.76185e-10
2.76237e-10
2.76295e-10
2.76362e-10
2.76432e-10
2.76501e-10
2.76572e-10
2.76642e-10
2.76712e-10
2.76783e-10
2.76853e-10
2.76925e-10
2.76996e-10
2.77068e-10
2.77141e-10
2.77214e-10
2.77286e-10
2.7736e-10
2.77434e-10
2.77508e-10
2.77583e-10
2.77658e-10
2.77734e-10
2.7781e-10
2.77887e-10
2.77964e-10
2.78042e-10
2.78121e-10
2.782e-10
2.7828e-10
2.7836e-10
2.78441e-10
2.78522e-10
2.78605e-10
2.78688e-10
2.78771e-10
2.78856e-10
2.78941e-10
2.79027e-10
2.79114e-10
2.79201e-10
2.79289e-10
2.79379e-10
2.79468e-10
2.79559e-10
2.79651e-10
2.79743e-10
2.79836e-10
2.7993e-10
2.80026e-10
2.80121e-10
2.80219e-10
2.80317e-10
2.80416e-10
2.80516e-10
2.80617e-10
2.8072e-10
2.80822e-10
2.80927e-10
2.81032e-10
2.81139e-10
2.81247e-10
2.81356e-10
2.81467e-10
2.81578e-10
2.8169e-10
2.81805e-10
2.81921e-10
2.82037e-10
2.82156e-10
2.82276e-10
2.82398e-10
2.82521e-10
2.82646e-10
2.82772e-10
2.829e-10
2.8303e-10
2.83162e-10
2.83296e-10
2.83431e-10
2.83569e-10
2.83709e-10
2.83851e-10
2.83995e-10
2.84141e-10
2.8429e-10
2.84441e-10
2.84595e-10
2.84752e-10
2.84911e-10
2.85073e-10
2.85238e-10
2.85407e-10
2.85578e-10
2.85753e-10
2.85931e-10
)
;
    }
    inandouthalf21
    {
        type            cyclic;
        value           nonuniform List<scalar> 
100
(
-2.86113e-10
-2.86298e-10
-2.86488e-10
-2.86682e-10
-2.86879e-10
-2.87082e-10
-2.87289e-10
-2.87501e-10
-2.87718e-10
-2.8794e-10
-2.88168e-10
-2.88401e-10
-2.88641e-10
-2.88887e-10
-2.8914e-10
-2.894e-10
-2.89667e-10
-2.89942e-10
-2.90225e-10
-2.90516e-10
-2.90817e-10
-2.91126e-10
-2.91446e-10
-2.91776e-10
-2.92117e-10
-2.9247e-10
-2.92836e-10
-2.93215e-10
-2.9361e-10
-2.94022e-10
-2.94451e-10
-2.94899e-10
-2.95368e-10
-2.95861e-10
-2.96386e-10
-2.9694e-10
-2.97522e-10
-2.98139e-10
-2.98823e-10
-2.99609e-10
-3.0046e-10
-3.01282e-10
-3.02274e-10
-3.03562e-10
-3.05177e-10
-3.08314e-10
-3.13472e-10
-3.30242e-10
-1.23859e-08
-1.14414e-07
-2.48766e-07
-3.43938e-07
-4.18572e-07
-4.78841e-07
-5.28116e-07
-5.68372e-07
-6.00789e-07
-6.26135e-07
-6.45141e-07
-6.58767e-07
-6.68191e-07
-6.74576e-07
-6.78863e-07
-6.81724e-07
-6.83603e-07
-6.84789e-07
-6.8547e-07
-6.85771e-07
-6.85777e-07
-6.85546e-07
-6.85122e-07
-6.84536e-07
-6.83812e-07
-6.82967e-07
-6.82016e-07
-6.80971e-07
-6.79842e-07
-6.78637e-07
-6.77363e-07
-6.76026e-07
-6.74631e-07
-6.73184e-07
-6.71688e-07
-6.70147e-07
-6.68566e-07
-6.66947e-07
-6.65293e-07
-6.63608e-07
-6.61893e-07
-6.60151e-07
-6.58385e-07
-6.56597e-07
-6.54788e-07
-6.52961e-07
-6.51117e-07
-6.49258e-07
-6.47386e-07
-6.45503e-07
-6.43609e-07
-6.41706e-07
)
;
    }
    inandouthalf22
    {
        type            cyclic;
        value           nonuniform List<scalar> 
100
(
2.86113e-10
2.86298e-10
2.86488e-10
2.86682e-10
2.86879e-10
2.87082e-10
2.87289e-10
2.87501e-10
2.87718e-10
2.8794e-10
2.88168e-10
2.88401e-10
2.88641e-10
2.88887e-10
2.8914e-10
2.894e-10
2.89667e-10
2.89942e-10
2.90225e-10
2.90516e-10
2.90817e-10
2.91126e-10
2.91446e-10
2.91776e-10
2.92117e-10
2.9247e-10
2.92836e-10
2.93215e-10
2.9361e-10
2.94022e-10
2.94451e-10
2.94899e-10
2.95368e-10
2.95861e-10
2.96386e-10
2.9694e-10
2.97522e-10
2.98139e-10
2.98823e-10
2.99609e-10
3.0046e-10
3.01282e-10
3.02274e-10
3.03562e-10
3.05177e-10
3.08314e-10
3.13472e-10
3.30242e-10
1.23859e-08
1.14414e-07
2.48766e-07
3.43938e-07
4.18572e-07
4.78841e-07
5.28116e-07
5.68372e-07
6.00789e-07
6.26135e-07
6.45141e-07
6.58767e-07
6.68191e-07
6.74576e-07
6.78863e-07
6.81724e-07
6.83603e-07
6.84789e-07
6.8547e-07
6.85771e-07
6.85777e-07
6.85546e-07
6.85122e-07
6.84536e-07
6.83812e-07
6.82967e-07
6.82016e-07
6.80971e-07
6.79842e-07
6.78637e-07
6.77363e-07
6.76026e-07
6.74631e-07
6.73184e-07
6.71688e-07
6.70147e-07
6.68566e-07
6.66947e-07
6.65293e-07
6.63608e-07
6.61893e-07
6.60151e-07
6.58385e-07
6.56597e-07
6.54788e-07
6.52961e-07
6.51117e-07
6.49258e-07
6.47386e-07
6.45503e-07
6.43609e-07
6.41706e-07
)
;
    }
    inandouthalf31
    {
        type            cyclic;
        value           nonuniform List<scalar> 
110
(
-6.39798e-07
-6.50808e-07
-6.61956e-07
-6.73238e-07
-6.84657e-07
-6.9621e-07
-7.07898e-07
-7.1972e-07
-7.31676e-07
-7.43764e-07
-7.55985e-07
-7.68337e-07
-7.80821e-07
-7.93435e-07
-8.0618e-07
-8.19055e-07
-8.32059e-07
-8.45193e-07
-8.58457e-07
-8.71851e-07
-8.85376e-07
-8.99031e-07
-9.12819e-07
-9.26741e-07
-9.40799e-07
-9.54995e-07
-9.69332e-07
-9.83815e-07
-9.98447e-07
-1.01323e-06
-1.02818e-06
-1.0433e-06
-1.0586e-06
-1.07409e-06
-1.08978e-06
-1.10569e-06
-1.12184e-06
-1.13824e-06
-1.15493e-06
-1.17192e-06
-1.18925e-06
-1.20696e-06
-1.2251e-06
-1.2437e-06
-1.26283e-06
-1.28255e-06
-1.30294e-06
-1.32408e-06
-1.34605e-06
-1.36896e-06
-1.3929e-06
-1.41799e-06
-1.44431e-06
-1.47195e-06
-1.50097e-06
-1.53141e-06
-1.56326e-06
-1.59649e-06
-1.63102e-06
-1.66674e-06
-1.70345e-06
-1.74087e-06
-1.77831e-06
-1.81495e-06
-1.85182e-06
-1.8894e-06
-1.92775e-06
-1.96688e-06
-2.0068e-06
-2.04754e-06
-2.0891e-06
-2.1315e-06
-2.17476e-06
-2.21891e-06
-2.26394e-06
-2.30989e-06
-2.35678e-06
-2.40462e-06
-2.45342e-06
-2.50322e-06
-2.55403e-06
-2.60587e-06
-2.65876e-06
-2.71273e-06
-2.76779e-06
-2.82397e-06
-2.88129e-06
-2.93977e-06
-2.99944e-06
-3.06032e-06
-3.12244e-06
-3.18581e-06
-3.25048e-06
-3.31645e-06
-3.38377e-06
-3.45245e-06
-3.52252e-06
-3.59402e-06
-3.66697e-06
-3.7414e-06
-3.81734e-06
-3.89482e-06
-3.97388e-06
-4.05454e-06
-4.13683e-06
-4.2208e-06
-4.30647e-06
-4.39388e-06
-4.48307e-06
-4.57406e-06
)
;
    }
    inandouthalf32
    {
        type            cyclic;
        value           nonuniform List<scalar> 
110
(
6.39798e-07
6.50808e-07
6.61956e-07
6.73238e-07
6.84657e-07
6.9621e-07
7.07898e-07
7.1972e-07
7.31676e-07
7.43764e-07
7.55985e-07
7.68337e-07
7.80821e-07
7.93435e-07
8.0618e-07
8.19055e-07
8.32059e-07
8.45193e-07
8.58457e-07
8.71851e-07
8.85376e-07
8.99031e-07
9.12819e-07
9.26741e-07
9.40799e-07
9.54995e-07
9.69332e-07
9.83815e-07
9.98447e-07
1.01323e-06
1.02818e-06
1.0433e-06
1.0586e-06
1.07409e-06
1.08978e-06
1.10569e-06
1.12184e-06
1.13824e-06
1.15493e-06
1.17192e-06
1.18925e-06
1.20696e-06
1.2251e-06
1.2437e-06
1.26283e-06
1.28255e-06
1.30294e-06
1.32408e-06
1.34605e-06
1.36896e-06
1.3929e-06
1.41799e-06
1.44431e-06
1.47195e-06
1.50097e-06
1.53141e-06
1.56326e-06
1.59649e-06
1.63102e-06
1.66674e-06
1.70345e-06
1.74087e-06
1.77831e-06
1.81495e-06
1.85182e-06
1.8894e-06
1.92775e-06
1.96688e-06
2.0068e-06
2.04754e-06
2.0891e-06
2.1315e-06
2.17476e-06
2.21891e-06
2.26394e-06
2.30989e-06
2.35678e-06
2.40462e-06
2.45342e-06
2.50322e-06
2.55403e-06
2.60587e-06
2.65876e-06
2.71273e-06
2.76779e-06
2.82397e-06
2.88129e-06
2.93977e-06
2.99944e-06
3.06032e-06
3.12244e-06
3.18581e-06
3.25048e-06
3.31645e-06
3.38377e-06
3.45245e-06
3.52252e-06
3.59402e-06
3.66697e-06
3.7414e-06
3.81734e-06
3.89482e-06
3.97388e-06
4.05454e-06
4.13683e-06
4.2208e-06
4.30647e-06
4.39388e-06
4.48307e-06
4.57406e-06
)
;
    }
    inandouthalf41
    {
        type            cyclic;
        value           nonuniform List<scalar> 
50
(
-4.09425e-06
-4.09425e-06
-4.09425e-06
-4.09425e-06
-4.09425e-06
-4.09425e-06
-4.09425e-06
-4.09425e-06
-4.09425e-06
-4.09425e-06
-4.09425e-06
-4.09425e-06
-4.09425e-06
-4.09425e-06
-4.09425e-06
-4.09425e-06
-4.09425e-06
-4.09425e-06
-4.09425e-06
-4.09425e-06
-4.09425e-06
-4.09425e-06
-4.09425e-06
-4.09425e-06
-4.09425e-06
-4.09425e-06
-4.09425e-06
-4.09425e-06
-4.09425e-06
-4.09425e-06
-4.09425e-06
-4.09425e-06
-4.09425e-06
-4.09425e-06
-4.09425e-06
-4.09425e-06
-4.09425e-06
-4.09425e-06
-4.09425e-06
-4.09425e-06
-4.09425e-06
-4.09425e-06
-4.09425e-06
-4.09425e-06
-4.09425e-06
-4.09425e-06
-4.09425e-06
-4.09425e-06
-4.09425e-06
-4.09425e-06
)
;
    }
    inandouthalf42
    {
        type            cyclic;
        value           nonuniform List<scalar> 
50
(
4.09425e-06
4.09425e-06
4.09425e-06
4.09425e-06
4.09425e-06
4.09425e-06
4.09425e-06
4.09425e-06
4.09425e-06
4.09425e-06
4.09425e-06
4.09425e-06
4.09425e-06
4.09425e-06
4.09425e-06
4.09425e-06
4.09425e-06
4.09425e-06
4.09425e-06
4.09425e-06
4.09425e-06
4.09425e-06
4.09425e-06
4.09425e-06
4.09425e-06
4.09425e-06
4.09425e-06
4.09425e-06
4.09425e-06
4.09425e-06
4.09425e-06
4.09425e-06
4.09425e-06
4.09425e-06
4.09425e-06
4.09425e-06
4.09425e-06
4.09425e-06
4.09425e-06
4.09425e-06
4.09425e-06
4.09425e-06
4.09425e-06
4.09425e-06
4.09425e-06
4.09425e-06
4.09425e-06
4.09425e-06
4.09425e-06
4.09425e-06
)
;
    }
    top
    {
        type            symmetryPlane;
        value           uniform 0;
    }
    walls
    {
        type            fixedValue;
        value           uniform 0;
    }
    frontAndBackPlanes
    {
        type            empty;
        value           nonuniform 0();
    }
}


// ************************************************************************* //
