/*--------------------------------*- C++ -*----------------------------------*\
| =========                 |                                                 |
| \\      /  F ield         | OpenFOAM: The Open Source CFD Toolbox           |
|  \\    /   O peration     | Version:  2.4.x                                 |
|   \\  /    A nd           | Web:      www.OpenFOAM.org                      |
|    \\/     M anipulation  |                                                 |
\*---------------------------------------------------------------------------*/
FoamFile
{
    version     2.0;
    format      ascii;
    class       volTensorField;
    location    "7.9";
    object      Taus;
}
// * * * * * * * * * * * * * * * * * * * * * * * * * * * * * * * * * * * * * //

dimensions      [0 2 -2 0 0 0 0];

internalField   nonuniform List<tensor> 
360
(
(0 0.0200419 0 0.0200419 -0.204014 0 0 0 0)
(0 0.0291243 0 0.0291243 -0.256734 0 0 0 0)
(0 0.0349714 0 0.0349714 -0.262056 0 0 0 0)
(0 0.0336953 0 0.0336953 -0.255829 0 0 0 0)
(-1.29505e-17 0.0324194 0 0.0324194 -0.25291 0 0 0 0)
(-2.51308e-17 0.0320743 0 0.0320743 -0.251868 0 0 0 0)
(-2.49522e-17 0.0318383 0 0.0318383 -0.250629 0 0 0 0)
(0 0.0314959 0 0.0314959 -0.2491 0 0 0 0)
(-4.96503e-17 0.0311199 0 0.0311199 -0.247549 0 0 0 0)
(0 0.030741 0 0.030741 -0.245986 0 0 0 0)
(-4.93261e-17 0.0303647 0 0.0303647 -0.244413 0 0 0 0)
(0 0.0299969 0 0.0299969 -0.242856 0 0 0 0)
(-4.90957e-17 0.0296347 0 0.0296347 -0.241294 0 0 0 0)
(0 0.0292773 0 0.0292773 -0.239734 0 0 0 0)
(0 0.0289229 0 0.0289229 -0.23817 0 0 0 0)
(0 0.0285702 0 0.0285702 -0.236597 0 0 0 0)
(0 0.0282202 0 0.0282202 -0.23502 0 0 0 0)
(-4.86591e-17 0.0278747 0 0.0278747 -0.233442 0 0 0 0)
(0 0.0275327 0 0.0275327 -0.231864 0 0 0 0)
(0 0.0271925 0 0.0271925 -0.230273 0 0 0 0)
(0 0.0268583 0 0.0268583 -0.228694 0 0 0 0)
(-4.80878e-17 0.0265256 0 0.0265256 -0.2271 0 0 0 0)
(0 0.0261959 0 0.0261959 -0.225506 0 0 0 0)
(0 0.0258696 0 0.0258696 -0.22391 0 0 0 0)
(0 0.0255458 0 0.0255458 -0.222308 0 0 0 0)
(-9.44802e-17 0.0252255 0 0.0252255 -0.220704 0 0 0 0)
(0 0.0249086 0 0.0249086 -0.219102 0 0 0 0)
(0 0.0245925 0 0.0245925 -0.217488 0 0 0 0)
(0 0.0242796 0 0.0242796 -0.215874 0 0 0 0)
(0 0.0239703 0 0.0239703 -0.214259 0 0 0 0)
(0 0.0236627 0 0.0236627 -0.212641 0 0 0 0)
(0 0.0233565 0 0.0233565 -0.211009 0 0 0 0)
(0 0.0230556 0 0.0230556 -0.209397 0 0 0 0)
(0 0.0227526 0 0.0227526 -0.207753 0 0 0 0)
(0 0.0224545 0 0.0224545 -0.206127 0 0 0 0)
(8.82202e-17 0.022158 0 0.022158 -0.204487 0 0 0 0)
(0 0.0218646 0 0.0218646 -0.202853 0 0 0 0)
(0 0.0215709 0 0.0215709 -0.201208 0 0 0 0)
(0 0.0212787 0 0.0212787 -0.199552 0 0 0 0)
(0 0.0209927 0 0.0209927 -0.197921 0 0 0 0)
(0 0.0207031 0 0.0207031 -0.196254 0 0 0 0)
(0 0.0204175 0 0.0204175 -0.194598 0 0 0 0)
(8.29708e-17 0.0201362 0 0.0201362 -0.192954 0 0 0 0)
(0 0.0198522 0 0.0198522 -0.191279 0 0 0 0)
(0 0.019572 0 0.019572 -0.189621 0 0 0 0)
(0 0.0192924 0 0.0192924 -0.187951 0 0 0 0)
(0 0.019014 0 0.019014 -0.186272 0 0 0 0)
(0 0.0187415 0 0.0187415 -0.184616 0 0 0 0)
(0 0.0184666 0 0.0184666 -0.182938 0 0 0 0)
(0 0.0181907 0 0.0181907 -0.181243 0 0 0 0)
(7.69666e-17 0.0179213 0 0.0179213 -0.179576 0 0 0 0)
(0 0.017651 0 0.017651 -0.177886 0 0 0 0)
(0 0.0173822 0 0.0173822 -0.176202 0 0 0 0)
(0 0.0171144 0 0.0171144 -0.174506 0 0 0 0)
(0 0.0168497 0 0.0168497 -0.172825 0 0 0 0)
(0 0.0165834 0 0.0165834 -0.171116 0 0 0 0)
(0 0.0163216 0 0.0163216 -0.169431 0 0 0 0)
(0 0.0160586 0 0.0160586 -0.167722 0 0 0 0)
(0 0.0157988 0 0.0157988 -0.166021 0 0 0 0)
(0 0.0155421 0 0.0155421 -0.16433 0 0 0 0)
(0 0.0152827 0 0.0152827 -0.162608 0 0 0 0)
(0 0.0150273 0 0.0150273 -0.160909 0 0 0 0)
(0 0.0147713 0 0.0147713 -0.159188 0 0 0 0)
(0 0.0145176 0 0.0145176 -0.157476 0 0 0 0)
(0 0.0142654 0 0.0142654 -0.155758 0 0 0 0)
(0 0.0140153 0 0.0140153 -0.154043 0 0 0 0)
(0 0.0137654 0 0.0137654 -0.152319 0 0 0 0)
(0 0.0135168 0 0.0135168 -0.150593 0 0 0 0)
(0 0.0132713 0 0.0132713 -0.148869 0 0 0 0)
(0 0.0130285 0 0.0130285 -0.147152 0 0 0 0)
(0 0.0127837 0 0.0127837 -0.145414 0 0 0 0)
(0 0.0125403 0 0.0125403 -0.143673 0 0 0 0)
(0 0.0123017 0 0.0123017 -0.141952 0 0 0 0)
(0 0.0120619 0 0.0120619 -0.140208 0 0 0 0)
(0 0.0118235 0 0.0118235 -0.138471 0 0 0 0)
(0 0.0115857 0 0.0115857 -0.136721 0 0 0 0)
(0 0.0113512 0 0.0113512 -0.134982 0 0 0 0)
(0 0.0111183 0 0.0111183 -0.133239 0 0 0 0)
(0 0.0108862 0 0.0108862 -0.13149 0 0 0 0)
(0 0.0106556 0 0.0106556 -0.129739 0 0 0 0)
(0 0.0104273 0 0.0104273 -0.127992 0 0 0 0)
(0 0.0102 0 0.0102 -0.126237 0 0 0 0)
(0 0.00997364 0 0.00997364 -0.12448 0 0 0 0)
(0 0.00974868 0 0.00974868 -0.122721 0 0 0 0)
(0 0.00952489 0 0.00952489 -0.120959 0 0 0 0)
(0 0.0093024 0 0.0093024 -0.119196 0 0 0 0)
(0 0.00908112 0 0.00908112 -0.11743 0 0 0 0)
(0 0.00886155 0 0.00886155 -0.115664 0 0 0 0)
(0 0.00864359 0 0.00864359 -0.113896 0 0 0 0)
(0 0.00842704 0 0.00842704 -0.112126 0 0 0 0)
(0 0.00821202 0 0.00821202 -0.110355 0 0 0 0)
(0 0.0079985 0 0.0079985 -0.108582 0 0 0 0)
(0 0.0077862 0 0.0077862 -0.106806 0 0 0 0)
(0 0.00757513 0 0.00757513 -0.105028 0 0 0 0)
(0 0.00736532 0 0.00736532 -0.103247 0 0 0 0)
(0 0.00715673 0 0.00715673 -0.101464 0 0 0 0)
(0 0.00694937 0 0.00694937 -0.09968 0 0 0 0)
(0 0.0067433 0 0.0067433 -0.0978941 0 0 0 0)
(0 0.00653849 0 0.00653849 -0.0961068 0 0 0 0)
(0 0.00633495 0 0.00633495 -0.0943181 0 0 0 0)
(0 0.00613266 0 0.00613266 -0.092528 0 0 0 0)
(0 0.00593161 0 0.00593161 -0.0907365 0 0 0 0)
(0 0.00573176 0 0.00573176 -0.0889435 0 0 0 0)
(0 0.00553312 0 0.00553312 -0.0871492 0 0 0 0)
(0 0.00533566 0 0.00533566 -0.0853535 0 0 0 0)
(0 0.00513937 0 0.00513937 -0.0835567 0 0 0 0)
(0 0.00494419 0 0.00494419 -0.0817588 0 0 0 0)
(0 0.00475006 0 0.00475006 -0.0799601 0 0 0 0)
(0 0.00455686 0 0.00455686 -0.0781608 0 0 0 0)
(0 0.00436446 0 0.00436446 -0.0763609 0 0 0 0)
(0 0.00417265 0 0.00417265 -0.0745608 0 0 0 0)
(0 0.00398118 0 0.00398118 -0.0727607 0 0 0 0)
(0 0.00378975 0 0.00378975 -0.070961 0 0 0 0)
(0 0.00359797 0 0.00359797 -0.0691621 0 0 0 0)
(0 0.00340541 0 0.00340541 -0.0673644 0 0 0 0)
(0 0.00321154 0 0.00321154 -0.0655685 0 0 0 0)
(0 0.00301583 0 0.00301583 -0.0637748 0 0 0 0)
(0 0.00281768 0 0.00281768 -0.0619838 0 0 0 0)
(0 0.0026165 0 0.0026165 -0.0601962 0 0 0 0)
(0 0.00241174 0 0.00241174 -0.0584123 0 0 0 0)
(0 0.00220294 0 0.00220294 -0.0566326 0 0 0 0)
(0 0.00198973 0 0.00198973 -0.0548575 0 0 0 0)
(0 0.00177195 0 0.00177195 -0.0530872 0 0 0 0)
(0 0.00154961 0 0.00154961 -0.0513221 0 0 0 0)
(0 0.00132292 0 0.00132292 -0.0495623 0 0 0 0)
(0 0.00109222 0 0.00109222 -0.0478074 0 0 0 0)
(0 0.000858006 0 0.000858006 -0.0460567 0 0 0 0)
(0 0.000620921 0 0.000620921 -0.0443084 0 0 0 0)
(0 0.000381866 0 0.000381866 -0.0425609 0 0 0 0)
(0 0.000142014 0 0.000142014 -0.0408136 0 0 0 0)
(0 -9.73706e-05 0 -9.73706e-05 -0.0390683 0 0 0 0)
(0 -0.000335278 0 -0.000335278 -0.0373279 0 0 0 0)
(0 -0.000571014 0 -0.000571014 -0.03559 0 0 0 0)
(0 -0.000803688 0 -0.000803688 -0.033844 0 0 0 0)
(0 -0.00103254 0 -0.00103254 -0.0320821 0 0 0 0)
(0 -0.00125915 0 -0.00125915 -0.0303163 0 0 0 0)
(0 -0.00148795 0 -0.00148795 -0.0285638 0 0 0 0)
(0 -0.00171884 0 -0.00171884 -0.0268061 0 0 0 0)
(0 -0.00193597 0 -0.00193597 -0.024977 0 0 0 0)
(0 -0.0021167 0 -0.0021167 -0.0230299 0 0 0 0)
(0 -0.0022742 0 -0.0022742 -0.021081 0 0 0 0)
(0 -0.0024335 0 -0.0024335 -0.0193315 0 0 0 0)
(0 -0.00249116 0 -0.00249116 -0.0174358 0 0 0 0)
(0 -0.00230495 0 -0.00230495 -0.0153465 0 0 0 0)
(0 -0.00146044 0 -0.00146044 -0.0133457 0 0 0 0)
(0 0.00292204 0 0.00292204 -0.00874903 0 0 0 0)
(0 0.00353899 0 0.00353899 -0.00147529 0 0 0 0)
(0 0.00286995 0 0.00286995 2.48748e-05 0 0 0 0)
(0 0.00217252 0 0.00217252 6.15308e-05 0 0 0 0)
(0 0.00261808 0 0.00261808 7.56569e-05 0 0 0 0)
(0 0.00330246 0 0.00330246 7.53048e-05 0 0 0 0)
(0 0.00303882 0 0.00303882 5.32052e-05 0 0 0 0)
(0 0.00296014 0 0.00296014 6.12738e-05 0 0 0 0)
(0 0.00309011 0 0.00309011 7.69593e-05 0 0 0 0)
(0 0.00339836 0 0.00339836 9.4892e-05 0 0 0 0)
(0 0.00385891 0 0.00385891 0.00010696 0 0 0 0)
(0 0.00444669 0 0.00444669 9.19477e-05 0 0 0 0)
(0 0.00513063 0 0.00513063 -1.51431e-06 0 0 0 0)
(0 0.00587197 0 0.00587197 -0.000265455 0 0 0 0)
(0 0.00660128 0 0.00660128 -0.000791713 0 0 0 0)
(0 0.00717562 0 0.00717562 -0.001563 0 0 0 0)
(0 0.00741733 0 0.00741733 -0.00240719 0 0 0 0)
(0 0.00724122 0 0.00724122 -0.00313845 0 0 0 0)
(0 0.00667495 0 0.00667495 -0.00368943 0 0 0 0)
(0 0.00578424 0 0.00578424 -0.00407751 0 0 0 0)
(0 0.0046289 0 0.0046289 -0.00433623 0 0 0 0)
(0 0.0032549 0 0.0032549 -0.00449246 0 0 0 0)
(0 0.00169621 0 0.00169621 -0.00456562 0 0 0 0)
(0 -2.21783e-05 0 -2.21783e-05 -0.00456968 0 0 0 0)
(0 -0.00188156 0 -0.00188156 -0.00451498 0 0 0 0)
(0 -0.00386758 0 -0.00386758 -0.00440952 0 0 0 0)
(0 -0.00596884 0 -0.00596884 -0.00425978 0 0 0 0)
(0 -0.0081759 0 -0.0081759 -0.00407122 0 0 0 0)
(0 -0.0104807 0 -0.0104807 -0.0038486 0 0 0 0)
(0 -0.0128758 0 -0.0128758 -0.00359609 0 0 0 0)
(0 -0.0153545 0 -0.0153545 -0.00331742 0 0 0 0)
(0 -0.0179101 0 -0.0179101 -0.00301583 0 0 0 0)
(0 -0.0205358 0 -0.0205358 -0.00269418 0 0 0 0)
(0 -0.0232247 0 -0.0232247 -0.00235488 0 0 0 0)
(0 -0.0259693 0 -0.0259693 -0.00199994 0 0 0 0)
(0 -0.0287618 0 -0.0287618 -0.001631 0 0 0 0)
(0 -0.0315937 0 -0.0315937 -0.00124933 0 0 0 0)
(0 -0.0344558 0 -0.0344558 -0.000855883 0 0 0 0)
(0 -0.0373381 0 -0.0373381 -0.000451358 0 0 0 0)
(0 -0.0402299 0 -0.0402299 -3.62411e-05 0 0 0 0)
(0 -0.0431198 0 -0.0431198 0.000389125 0 0 0 0)
(0 -0.0459952 0 -0.0459952 0.000824497 0 0 0 0)
(0 -0.048843 0 -0.048843 0.0012697 0 0 0 0)
(0 -0.0516491 0 -0.0516491 0.00172461 0 0 0 0)
(0 -0.0543983 0 -0.0543983 0.00218911 0 0 0 0)
(0 -0.0570747 0 -0.0570747 0.00266305 0 0 0 0)
(0 -0.0596612 0 -0.0596612 0.00314602 0 0 0 0)
(0 -0.0621405 0 -0.0621405 0.00363722 0 0 0 0)
(0 -0.0644942 0 -0.0644942 0.00413518 0 0 0 0)
(0 -0.0667039 0 -0.0667039 0.00463764 0 0 0 0)
(0 -0.0687508 0 -0.0687508 0.00514126 0 0 0 0)
(0 -0.0706158 0 -0.0706158 0.00564146 0 0 0 0)
(0 -0.0722796 0 -0.0722796 0.00613224 0 0 0 0)
(0 -0.0737222 0 -0.0737222 0.0066065 0 0 0 0)
(0 -0.0749213 0 -0.0749213 0.00705679 0 0 0 0)
(0 -0.075869 0 -0.075869 0.00747582 0 0 0 0)
(0 -0.0766724 0 -0.0766724 0.00785778 0 0 0 0)
(-3.28147e-15 -0.0774556 0 -0.0774556 0.00819413 0 0 0 0)
(0 -0.0782433 0 -0.0782433 0.00847212 0 0 0 0)
(0 -0.0790382 0 -0.0790382 0.00867864 0 0 0 0)
(3.68657e-15 -0.0798402 0 -0.0798402 0.00880167 0 0 0 0)
(0 -0.0806435 0 -0.0806435 0.00883078 0 0 0 0)
(-8.00627e-15 -0.0814394 0 -0.0814394 0.00875731 0 0 0 0)
(0 -0.0822146 0 -0.0822146 0.00857394 0 0 0 0)
(4.35306e-15 -0.0829537 0 -0.0829537 0.00827549 0 0 0 0)
(0 -0.083634 0 -0.083634 0.00785967 0 0 0 0)
(0 -0.0842273 0 -0.0842273 0.00733054 0 0 0 0)
(0 -0.0846879 0 -0.0846879 0.00670177 0 0 0 0)
(5.0874e-15 -0.0849694 0 -0.0849694 0.00599092 0 0 0 0)
(0 -0.0850472 0 -0.0850472 0.00521152 0 0 0 0)
(0 -0.0848904 0 -0.0848904 0.00438528 0 0 0 0)
(0 -0.0844418 0 -0.0844418 0.00355157 0 0 0 0)
(0 -0.0836746 0 -0.0836746 0.00274833 0 0 0 0)
(0 -0.0825988 0 -0.0825988 0.0020049 0 0 0 0)
(-5.80316e-15 -0.0812155 0 -0.0812155 0.00136342 0 0 0 0)
(0 -0.0795074 0 -0.0795074 0.000896816 0 0 0 0)
(-5.82486e-15 -0.0774541 0 -0.0774541 0.000702411 0 0 0 0)
(0 -0.0750925 0 -0.0750925 0.000895856 0 0 0 0)
(-1.14422e-14 -0.0724585 0 -0.0724585 0.00155241 0 0 0 0)
(0 -0.0695281 0 -0.0695281 0.00253913 0 0 0 0)
(0 -0.0663052 0 -0.0663052 0.00356863 0 0 0 0)
(0 -0.0627969 0 -0.0627969 0.0044814 0 0 0 0)
(0 -0.0589748 0 -0.0589748 0.00528169 0 0 0 0)
(0 -0.0548039 0 -0.0548039 0.00598963 0 0 0 0)
(9.46448e-15 -0.0502315 0 -0.0502315 0.00662189 0 0 0 0)
(0 -0.0452014 0 -0.0452014 0.00715905 0 0 0 0)
(0 -0.0395226 0 -0.0395226 0.00771068 0 0 0 0)
(0 -0.03286 0 -0.03286 0.00852834 0 0 0 0)
(0 -0.0251768 0 -0.0251768 0.00981613 0 0 0 0)
(0 -0.0172883 0 -0.0172883 0.00934578 0 0 0 0)
(0 -0.0122453 0 -0.0122453 0.00565644 0 0 0 0)
(0 -0 0 -0 0 0 0 0 0)
(0 -0 0 -0 -0 0 0 0 0)
(0 -0 0 -0 0 0 0 0 0)
(0 -0 0 -0 -0 0 0 0 0)
(0 -0 0 -0 0 0 0 0 0)
(0 -0 0 -0 0 0 0 0 0)
(0 -0 0 -0 -0 0 0 0 0)
(-0 -0 0 -0 -0 0 0 0 0)
(0 -0 0 -0 -0 0 0 0 0)
(0 -0 0 -0 0 0 0 0 0)
(0 -0 0 -0 0 0 0 0 0)
(-0 -0 0 -0 0 0 0 0 0)
(0 -0 0 -0 0 0 0 0 0)
(0 -0 0 -0 0 0 0 0 0)
(-0 -0 0 -0 0 0 0 0 0)
(0 -0 0 -0 0 0 0 0 0)
(0 -0 0 -0 0 0 0 0 0)
(0 -0 0 -0 0 0 0 0 0)
(0 -0 0 -0 0 0 0 0 0)
(0 0 0 0 0 0 0 0 0)
(0 0 0 0 0 0 0 0 0)
(0 0 0 0 0 0 0 0 0)
(0 0 0 0 0 0 0 0 0)
(0 0 0 0 0 0 0 0 0)
(0 0 0 0 0 0 0 0 0)
(0 0 0 0 0 0 0 0 0)
(0 0 0 0 0 0 0 0 0)
(0 0 0 0 0 0 0 0 0)
(0 0 0 0 0 0 0 0 0)
(0 0 0 0 0 0 0 0 0)
(0 0 0 0 0 0 0 0 0)
(0 0 0 0 0 0 0 0 0)
(0 0 0 0 -0 0 0 0 0)
(0 0 0 0 0 0 0 0 0)
(0 0 0 0 -0 0 0 0 0)
(0 0 0 0 0 0 0 0 0)
(0 0 0 0 -0 0 0 0 0)
(0 0 0 0 0 0 0 0 0)
(0 0 0 0 0 0 0 0 0)
(0 0 0 0 0 0 0 0 0)
(0 0 0 0 -0 0 0 0 0)
(0 0 0 0 0 0 0 0 0)
(0 0 0 0 -0 0 0 0 0)
(0 0 0 0 0 0 0 0 0)
(0 0 0 0 -0 0 0 0 0)
(0 0 0 0 0 0 0 0 0)
(0 0 0 0 -0 0 0 0 0)
(0 0 0 0 0 0 0 0 0)
(0 0 0 0 -0 0 0 0 0)
(0 0 0 0 0 0 0 0 0)
(0 0 0 0 -0 0 0 0 0)
(0 0 0 0 0 0 0 0 0)
(0 0 0 0 -0 0 0 0 0)
(0 0 0 0 0 0 0 0 0)
(0 -0 0 -0 -0 0 0 0 0)
(0 0 0 0 0 0 0 0 0)
(0 -0 0 -0 -0 0 0 0 0)
(0 0 0 0 0 0 0 0 0)
(0 -0 0 -0 -0 0 0 0 0)
(0 0 0 0 0 0 0 0 0)
(0 -0 0 -0 -0 0 0 0 0)
(0 0 0 0 0 0 0 0 0)
(0 -0 0 -0 -0 0 0 0 0)
(-0 0 0 0 0 0 0 0 0)
(0 -0 0 -0 -0 0 0 0 0)
(0 0 0 0 0 0 0 0 0)
(0 -0 0 -0 -0 0 0 0 0)
(0 0 0 0 0 0 0 0 0)
(0 -0 0 -0 -0 0 0 0 0)
(0 0 0 0 0 0 0 0 0)
(0 -0 0 -0 -0 0 0 0 0)
(0 0 0 0 0 0 0 0 0)
(0 -0 0 -0 -0 0 0 0 0)
(0 0 0 0 0 0 0 0 0)
(0 -0 0 -0 -0 0 0 0 0)
(0 0 0 0 0 0 0 0 0)
(0 -0 0 -0 -0 0 0 0 0)
(0 0 0 0 0 0 0 0 0)
(0 -0 0 -0 -0 0 0 0 0)
(0 0 0 0 0 0 0 0 0)
(0 -0 0 -0 -0 0 0 0 0)
(0 0 0 0 0 0 0 0 0)
(0 -0 0 -0 -0 0 0 0 0)
(0 0 0 0 0 0 0 0 0)
(0 -0 0 -0 -0 0 0 0 0)
(0 0 0 0 0 0 0 0 0)
(0 -0 0 -0 -0 0 0 0 0)
(0 0 0 0 0 0 0 0 0)
(0 -0 0 -0 -0 0 0 0 0)
(0 0 0 0 0 0 0 0 0)
(0 -0 0 -0 -0 0 0 0 0)
(0 0 0 0 0 0 0 0 0)
(0 -0 0 -0 -0 0 0 0 0)
(0 0 0 0 0 0 0 0 0)
(0 -0 0 -0 -0 0 0 0 0)
(0 0 0 0 0 0 0 0 0)
(0 -0 0 -0 -0 0 0 0 0)
(0 0 0 0 0 0 0 0 0)
(0 -0 0 -0 -0 0 0 0 0)
(0 0 0 0 0 0 0 0 0)
(0 -0 0 -0 -0 0 0 0 0)
(0 0 0 0 0 0 0 0 0)
(0 -0 0 -0 -0 0 0 0 0)
(0 0 0 0 0 0 0 0 0)
(0 -0 0 -0 -0 0 0 0 0)
(0 0 0 0 0 0 0 0 0)
(0 -0 0 -0 -0 0 0 0 0)
(0 0 0 0 0 0 0 0 0)
(0 -0 0 -0 -0 0 0 0 0)
(0 0 0 0 0 0 0 0 0)
(0 -0 0 -0 -0 0 0 0 0)
(0 0 0 0 0 0 0 0 0)
(0 -0 0 -0 -0 0 0 0 0)
(0 0 0 0 0 0 0 0 0)
(0 -0 0 -0 -0 0 0 0 0)
(0 0 0 0 0 0 0 0 0)
(0 -0 0 -0 -0 0 0 0 0)
(0 -0 0 -0 0 0 0 0 0)
(0 -0 0 -0 0 0 0 0 0)
(0 -0 0 -0 0 0 0 0 0)
(0 -0 0 -0 0 0 0 0 0)
(0 -0 0 -0 0 0 0 0 0)
(0 -0 0 -0 0 0 0 0 0)
(0 -0 0 -0 0 0 0 0 0)
)
;

boundaryField
{
    inandouthalf11
    {
        type            cyclic;
    }
    inandouthalf12
    {
        type            cyclic;
    }
    inandouthalf21
    {
        type            cyclic;
    }
    inandouthalf22
    {
        type            cyclic;
    }
    inandouthalf31
    {
        type            cyclic;
    }
    inandouthalf32
    {
        type            cyclic;
    }
    inandouthalf41
    {
        type            cyclic;
    }
    inandouthalf42
    {
        type            cyclic;
    }
    top
    {
        type            symmetryPlane;
    }
    walls
    {
        type            zeroGradient;
    }
    frontAndBackPlanes
    {
        type            empty;
    }
}


// ************************************************************************* //
