/*--------------------------------*- C++ -*----------------------------------*\
| =========                 |                                                 |
| \\      /  F ield         | OpenFOAM: The Open Source CFD Toolbox           |
|  \\    /   O peration     | Version:  2.4.x                                 |
|   \\  /    A nd           | Web:      www.OpenFOAM.org                      |
|    \\/     M anipulation  |                                                 |
\*---------------------------------------------------------------------------*/
FoamFile
{
    version     2.0;
    format      ascii;
    class       volScalarField;
    location    "7.9";
    object      Theta_0;
}
// * * * * * * * * * * * * * * * * * * * * * * * * * * * * * * * * * * * * * //

dimensions      [0 2 -2 0 0 0 0];

internalField   nonuniform List<scalar> 
360
(
6.6623e-21
6.66441e-21
6.6635e-21
6.66332e-21
6.6635e-21
6.66361e-21
6.66362e-21
6.6636e-21
6.66359e-21
6.66357e-21
6.66356e-21
6.66354e-21
6.66352e-21
6.6635e-21
6.66347e-21
6.66345e-21
6.66343e-21
6.66341e-21
6.66339e-21
6.66338e-21
6.66336e-21
6.66334e-21
6.66333e-21
6.66332e-21
6.66331e-21
6.6633e-21
6.66329e-21
6.66328e-21
6.66328e-21
6.66327e-21
6.66327e-21
6.66326e-21
6.66326e-21
6.66326e-21
6.66326e-21
6.66326e-21
6.66326e-21
6.66326e-21
6.66326e-21
6.66326e-21
6.66326e-21
6.66326e-21
6.66326e-21
6.66326e-21
6.66326e-21
6.66326e-21
6.66326e-21
6.66326e-21
6.66326e-21
6.66326e-21
6.66326e-21
6.66326e-21
6.66326e-21
6.66326e-21
6.66325e-21
6.66325e-21
6.66324e-21
6.66324e-21
6.66323e-21
6.66322e-21
6.66321e-21
6.6632e-21
6.66319e-21
6.66318e-21
6.66317e-21
6.66315e-21
6.66314e-21
6.66312e-21
6.6631e-21
6.66308e-21
6.66306e-21
6.66304e-21
6.66302e-21
6.663e-21
6.66298e-21
6.66296e-21
6.66293e-21
6.66291e-21
6.66288e-21
6.66285e-21
6.66283e-21
6.6628e-21
6.66277e-21
6.66275e-21
6.66272e-21
6.66269e-21
6.66266e-21
6.66263e-21
6.6626e-21
6.66257e-21
6.66254e-21
6.66251e-21
6.66248e-21
6.66245e-21
6.66242e-21
6.66239e-21
6.66236e-21
6.66233e-21
6.6623e-21
6.66227e-21
6.66224e-21
6.66221e-21
6.66218e-21
6.66215e-21
6.66212e-21
6.66209e-21
6.66206e-21
6.66203e-21
6.662e-21
6.66198e-21
6.66195e-21
6.66193e-21
6.6619e-21
6.66188e-21
6.66186e-21
6.66185e-21
6.66184e-21
6.66182e-21
6.66182e-21
6.66181e-21
6.6618e-21
6.6618e-21
6.6618e-21
6.6618e-21
6.66179e-21
6.66178e-21
6.66177e-21
6.66175e-21
6.66173e-21
6.66169e-21
6.66165e-21
6.66161e-21
6.66156e-21
6.66152e-21
1.03572e-20
2.61009e-20
5.89537e-20
1.12237e-19
3.12525e-19
3.28243e-18
5.55272e-17
1.09083e-15
2.45161e-14
6.34816e-13
1.92881e-11
1.21281e-09
2.33816e-07
1.19745e-05
0.000183834
0.00136989
0.0030122
0.00356287
0.00369829
0.00364232
0.00347736
0.00325426
0.00301761
0.00280028
0.00261951
0.00247737
0.00236805
0.00228433
0.00222025
0.00217144
0.00213466
0.00210747
0.00208799
0.00207471
0.00206641
0.0020621
0.00206094
0.00206225
0.00206544
0.00207
0.00207551
0.00208162
0.002088
0.0020944
0.00210058
0.00210636
0.00211156
0.00211605
0.00211971
0.00212245
0.00212418
0.00212485
0.0021244
0.00212279
0.00212001
0.00211603
0.00211084
0.00210446
0.00209689
0.00208814
0.00207823
0.00206718
0.00205504
0.00204182
0.00202756
0.00201232
0.00199611
0.00197882
0.00196027
0.00194043
0.00191929
0.00189683
0.00187305
0.00184791
0.0018214
0.0017935
0.0017642
0.00173347
0.00170128
0.00166761
0.00163241
0.00159566
0.00155729
0.00151726
0.00147551
0.00143195
0.00138649
0.00133904
0.00128948
0.00123765
0.0011834
0.00112651
0.00106673
0.00100375
0.000937191
0.000866562
0.00079122
0.000710284
0.000622478
0.00052581
0.000416769
0.000287701
0
0
0
0
0
0
0
0
0
0
0
0
0
0
0
0
0
0
0
0
0
0
0
0
0
0
0
0
0
0
0
0
0
0
0
0
0
0
0
0
0
0
0
0
0
0
0
0
0
0
0
0
0
0
0
0
0
0
0
0
0
0
0
0
0
0
0
0
0
0
0
0
0
0
0
0
0
0
0
0
0
0
0
0
0
0
0
0
0
0
0
0
0
0
0
0
0
0
0
0
0
0
0
0
0
0
0
0
0
0
0
0
0
0
0
0
0
0
0
0
0
0
0
0
)
;

boundaryField
{
    inandouthalf11
    {
        type            cyclic;
    }
    inandouthalf12
    {
        type            cyclic;
    }
    inandouthalf21
    {
        type            cyclic;
    }
    inandouthalf22
    {
        type            cyclic;
    }
    inandouthalf31
    {
        type            cyclic;
    }
    inandouthalf32
    {
        type            cyclic;
    }
    inandouthalf41
    {
        type            cyclic;
    }
    inandouthalf42
    {
        type            cyclic;
    }
    top
    {
        type            symmetryPlane;
    }
    walls
    {
        type            zeroGradient;
    }
    frontAndBackPlanes
    {
        type            empty;
    }
}


// ************************************************************************* //
