/*--------------------------------*- C++ -*----------------------------------*\
| =========                 |                                                 |
| \\      /  F ield         | OpenFOAM: The Open Source CFD Toolbox           |
|  \\    /   O peration     | Version:  2.4.x                                 |
|   \\  /    A nd           | Web:      www.OpenFOAM.org                      |
|    \\/     M anipulation  |                                                 |
\*---------------------------------------------------------------------------*/
FoamFile
{
    version     2.0;
    format      ascii;
    class       volVectorField;
    location    "7.9";
    object      Ua;
}
// * * * * * * * * * * * * * * * * * * * * * * * * * * * * * * * * * * * * * //

dimensions      [0 1 -1 0 0 0 0];

internalField   nonuniform List<vector> 
360
(
(1.39568e-32 -1.00064e-31 0)
(1.61621e-08 -8.22601e-08 0)
(3.35733e-08 -1.47977e-07 0)
(4.90204e-08 -2.05371e-07 0)
(6.45622e-08 -2.65617e-07 0)
(8.06169e-08 -3.28616e-07 0)
(9.67804e-08 -3.92116e-07 0)
(1.12827e-07 -4.55393e-07 0)
(1.28721e-07 -5.18426e-07 0)
(1.44471e-07 -5.81254e-07 0)
(1.60082e-07 -6.43899e-07 0)
(1.75551e-07 -7.06337e-07 0)
(1.90868e-07 -7.68518e-07 0)
(2.06025e-07 -8.30403e-07 0)
(2.21021e-07 -8.91973e-07 0)
(2.35858e-07 -9.53233e-07 0)
(2.5054e-07 -1.0142e-06 0)
(2.65074e-07 -1.07489e-06 0)
(2.79462e-07 -1.13531e-06 0)
(2.93712e-07 -1.19548e-06 0)
(3.07827e-07 -1.25541e-06 0)
(3.21812e-07 -1.31511e-06 0)
(3.35676e-07 -1.37462e-06 0)
(3.49422e-07 -1.43395e-06 0)
(3.63058e-07 -1.49312e-06 0)
(3.76588e-07 -1.55216e-06 0)
(3.90018e-07 -1.61106e-06 0)
(4.03352e-07 -1.66986e-06 0)
(4.16596e-07 -1.72858e-06 0)
(4.29754e-07 -1.78724e-06 0)
(4.42829e-07 -1.84583e-06 0)
(4.55826e-07 -1.90438e-06 0)
(4.68748e-07 -1.96291e-06 0)
(4.81598e-07 -2.02142e-06 0)
(4.94379e-07 -2.07993e-06 0)
(5.07093e-07 -2.13843e-06 0)
(5.1974e-07 -2.19695e-06 0)
(5.32325e-07 -2.25548e-06 0)
(5.44848e-07 -2.31405e-06 0)
(5.5731e-07 -2.37264e-06 0)
(5.69712e-07 -2.43126e-06 0)
(5.82055e-07 -2.48992e-06 0)
(5.94338e-07 -2.54861e-06 0)
(6.0656e-07 -2.60733e-06 0)
(6.18725e-07 -2.6661e-06 0)
(6.3083e-07 -2.7249e-06 0)
(6.42875e-07 -2.78374e-06 0)
(6.54856e-07 -2.84258e-06 0)
(6.66771e-07 -2.90143e-06 0)
(6.78625e-07 -2.96032e-06 0)
(6.90414e-07 -3.01922e-06 0)
(7.02136e-07 -3.07811e-06 0)
(7.13789e-07 -3.137e-06 0)
(7.25372e-07 -3.19588e-06 0)
(7.36882e-07 -3.25473e-06 0)
(7.48316e-07 -3.31355e-06 0)
(7.59672e-07 -3.37231e-06 0)
(7.70945e-07 -3.431e-06 0)
(7.82133e-07 -3.48961e-06 0)
(7.93229e-07 -3.54809e-06 0)
(8.04234e-07 -3.60645e-06 0)
(8.15147e-07 -3.66469e-06 0)
(8.25966e-07 -3.7228e-06 0)
(8.36688e-07 -3.78077e-06 0)
(8.47311e-07 -3.83857e-06 0)
(8.57827e-07 -3.89617e-06 0)
(8.68235e-07 -3.95356e-06 0)
(8.78531e-07 -4.01072e-06 0)
(8.88709e-07 -4.06761e-06 0)
(8.98765e-07 -4.1242e-06 0)
(9.08698e-07 -4.18049e-06 0)
(9.1851e-07 -4.2365e-06 0)
(9.28198e-07 -4.2922e-06 0)
(9.37761e-07 -4.34757e-06 0)
(9.47198e-07 -4.40263e-06 0)
(9.56509e-07 -4.45735e-06 0)
(9.65688e-07 -4.51173e-06 0)
(9.74732e-07 -4.5657e-06 0)
(9.83635e-07 -4.61926e-06 0)
(9.92397e-07 -4.67239e-06 0)
(1.00101e-06 -4.72506e-06 0)
(1.00949e-06 -4.77727e-06 0)
(1.01781e-06 -4.82903e-06 0)
(1.026e-06 -4.88033e-06 0)
(1.03404e-06 -4.93117e-06 0)
(1.04194e-06 -4.98156e-06 0)
(1.0497e-06 -5.03148e-06 0)
(1.05731e-06 -5.08091e-06 0)
(1.06477e-06 -5.12981e-06 0)
(1.07207e-06 -5.17818e-06 0)
(1.07922e-06 -5.22597e-06 0)
(1.08621e-06 -5.27319e-06 0)
(1.09305e-06 -5.31983e-06 0)
(1.09973e-06 -5.36587e-06 0)
(1.10625e-06 -5.41133e-06 0)
(1.11262e-06 -5.45621e-06 0)
(1.11883e-06 -5.50051e-06 0)
(1.12489e-06 -5.54421e-06 0)
(1.13079e-06 -5.58731e-06 0)
(1.13653e-06 -5.6298e-06 0)
(1.14212e-06 -5.67167e-06 0)
(1.14755e-06 -5.7129e-06 0)
(1.15282e-06 -5.75349e-06 0)
(1.15793e-06 -5.79343e-06 0)
(1.16288e-06 -5.83272e-06 0)
(1.16767e-06 -5.87134e-06 0)
(1.1723e-06 -5.9093e-06 0)
(1.17677e-06 -5.9466e-06 0)
(1.18108e-06 -5.98325e-06 0)
(1.18524e-06 -6.01925e-06 0)
(1.18924e-06 -6.05464e-06 0)
(1.1931e-06 -6.08943e-06 0)
(1.1968e-06 -6.12366e-06 0)
(1.20035e-06 -6.15737e-06 0)
(1.20376e-06 -6.19061e-06 0)
(1.20703e-06 -6.22344e-06 0)
(1.21016e-06 -6.25593e-06 0)
(1.21315e-06 -6.28814e-06 0)
(1.216e-06 -6.32016e-06 0)
(1.21871e-06 -6.35204e-06 0)
(1.22126e-06 -6.38386e-06 0)
(1.22366e-06 -6.41568e-06 0)
(1.22588e-06 -6.44752e-06 0)
(1.22791e-06 -6.47938e-06 0)
(1.22973e-06 -6.51124e-06 0)
(1.23131e-06 -6.54302e-06 0)
(1.23262e-06 -6.5746e-06 0)
(1.23365e-06 -6.60585e-06 0)
(1.23436e-06 -6.63657e-06 0)
(1.23474e-06 -6.66654e-06 0)
(1.23477e-06 -6.69548e-06 0)
(1.23446e-06 -6.7231e-06 0)
(1.23381e-06 -6.74916e-06 0)
(1.23284e-06 -6.77354e-06 0)
(1.23157e-06 -6.79628e-06 0)
(1.23001e-06 -6.81751e-06 0)
(1.22815e-06 -6.83736e-06 0)
(1.22598e-06 -6.85613e-06 0)
(1.22341e-06 -6.87434e-06 0)
(1.22036e-06 -6.89243e-06 0)
(1.21692e-06 -6.90965e-06 0)
(1.21366e-06 -6.92345e-06 0)
(1.21127e-06 -6.9321e-06 0)
(1.21004e-06 -6.93614e-06 0)
(1.2097e-06 -6.93732e-06 0)
(1.20971e-06 -6.93762e-06 0)
(1.21003e-06 -6.93781e-06 0)
(1.56202e-06 -7.01105e-06 0)
(0.0116161 4.33974e-05 0)
(0.100439 0.0014153 0)
(0.229839 0.00319648 0)
(0.327449 0.00400351 0)
(0.40294 0.00471186 0)
(0.462716 0.00540351 0)
(0.510237 0.00604798 0)
(0.547591 0.00658848 0)
(0.576293 0.00696344 0)
(0.597741 0.00710697 0)
(0.613394 0.00695797 0)
(0.624695 0.00649772 0)
(0.632881 0.0057894 0)
(0.638866 0.00495433 0)
(0.643266 0.00410411 0)
(0.646487 0.00330291 0)
(0.648799 0.00257506 0)
(0.650396 0.00192488 0)
(0.651417 0.00134889 0)
(0.651967 0.000841048 0)
(0.652126 0.000394834 0)
(0.651959 3.99776e-06 0)
(0.651516 -0.000337184 0)
(0.65084 -0.000633864 0)
(0.649965 -0.000890657 0)
(0.64892 -0.0011117 0)
(0.647732 -0.00130069 0)
(0.646419 -0.00146096 0)
(0.645002 -0.00159551 0)
(0.643497 -0.00170701 0)
(0.641917 -0.00179789 0)
(0.640276 -0.00187031 0)
(0.638584 -0.00192623 0)
(0.636852 -0.00196738 0)
(0.63509 -0.00199532 0)
(0.633304 -0.00201145 0)
(0.631504 -0.00201699 0)
(0.629696 -0.00201307 0)
(0.627887 -0.00200067 0)
(0.626082 -0.00198068 0)
(0.624287 -0.00195389 0)
(0.622508 -0.00192101 0)
(0.620749 -0.00188269 0)
(0.619014 -0.0018395 0)
(0.617309 -0.00179199 0)
(0.615637 -0.00174065 0)
(0.614001 -0.00168594 0)
(0.612406 -0.00162834 0)
(0.610855 -0.0015683 0)
(0.609351 -0.00150631 0)
(0.607897 -0.00144284 0)
(0.606497 -0.00137842 0)
(0.605152 -0.00131358 0)
(0.603853 -0.00124816 0)
(0.602587 -0.00118208 0)
(0.601354 -0.00111596 0)
(0.600156 -0.00105046 0)
(0.598992 -0.000986276 0)
(0.597863 -0.000924091 0)
(0.596769 -0.000864567 0)
(0.59571 -0.000808313 0)
(0.594684 -0.000755873 0)
(0.593692 -0.000707714 0)
(0.592733 -0.000664207 0)
(0.591804 -0.0006256 0)
(0.590906 -0.000591973 0)
(0.590036 -0.000563308 0)
(0.589193 -0.000539538 0)
(0.588376 -0.000520459 0)
(0.587582 -0.00050569 0)
(0.586811 -0.00049479 0)
(0.58606 -0.000487251 0)
(0.585329 -0.000482379 0)
(0.584616 -0.000479124 0)
(0.583921 -0.000475997 0)
(0.583243 -0.00047091 0)
(0.582581 -0.000461589 0)
(0.581934 -0.000446954 0)
(0.581304 -0.000427172 0)
(0.58069 -0.000402514 0)
(0.580095 -0.000372991 0)
(0.579521 -0.000338551 0)
(0.578971 -0.000298859 0)
(0.578452 -0.000253843 0)
(0.577974 -0.000201442 0)
(0.577555 -0.000137179 0)
(0.577215 -5.316e-05 0)
(0.57696 2.3563e-05 0)
(0.576701 6.52597e-05 0)
(0.533643 0.000407826 0)
(0.530631 -7.10282e-05 0)
(0.527702 0.00136926 0)
(0.524804 -0.000511594 0)
(0.522031 0.00247096 0)
(0.519197 -0.000456302 0)
(0.518066 -0.029844 0)
(0.516127 -0.0396299 0)
(0.513537 -0.0395547 0)
(0.511376 -0.0395576 0)
(0.509366 -0.0395525 0)
(0.50756 -0.0395474 0)
(0.505977 -0.0395418 0)
(0.50464 -0.0395357 0)
(0.503568 -0.0395294 0)
(0.502765 -0.0395226 0)
(0.502266 -0.0395166 0)
(0.502065 -0.0395119 0)
(0.502099 -0.0395058 0)
(0.502403 -0.0395015 0)
(0.502923 -0.0394978 0)
(0.503619 -0.0394947 0)
(0.504433 -0.0394919 0)
(0.505298 -0.0394887 0)
(0.506125 -0.0394837 0)
(0.506632 -0.039475 0)
(0.506748 -0.0394699 0)
(0.506754 -0.0394689 0)
(0.506754 -0.0394689 0)
(0.506754 -0.0394689 0)
(0.506754 -0.0394689 0)
(0.506754 -0.0394689 0)
(0.506754 -0.0394689 0)
(0.506754 -0.0394689 0)
(0.506754 -0.0394689 0)
(0.506754 -0.0394689 0)
(0.506754 -0.0394689 0)
(0.506754 -0.0394689 0)
(0.506754 -0.0394689 0)
(0.506754 -0.0394689 0)
(0.506754 -0.0394689 0)
(0.506754 -0.0394689 0)
(0.506754 -0.0394689 0)
(0.506754 -0.0394689 0)
(0.506754 -0.0394689 0)
(0.506754 -0.0394689 0)
(0.506754 -0.0394689 0)
(0.506754 -0.0394689 0)
(0.506754 -0.0394689 0)
(0.506754 -0.0394689 0)
(0.506754 -0.0394689 0)
(0.506754 -0.0394689 0)
(0.506754 -0.0394689 0)
(0.506754 -0.0394689 0)
(0.506754 -0.0394689 0)
(0.506754 -0.0394689 0)
(0.506754 -0.0394689 0)
(0.506754 -0.0394689 0)
(0.506754 -0.0394689 0)
(0.506754 -0.0394689 0)
(0.506754 -0.0394689 0)
(0.506754 -0.0394689 0)
(0.506754 -0.0394689 0)
(0.506754 -0.0394689 0)
(0.506754 -0.0394689 0)
(0.506754 -0.0394689 0)
(0.506754 -0.0394689 0)
(0.506754 -0.0394689 0)
(0.506754 -0.0394689 0)
(0.506754 -0.0394689 0)
(0.506754 -0.0394689 0)
(0.506754 -0.0394689 0)
(0.506754 -0.0394689 0)
(0.506754 -0.0394689 0)
(0.506754 -0.0394689 0)
(0.506754 -0.0394689 0)
(0.506754 -0.0394689 0)
(0.506754 -0.0394689 0)
(0.506754 -0.0394689 0)
(0.506754 -0.0394689 0)
(0.506754 -0.0394689 0)
(0.506754 -0.0394689 0)
(0.506754 -0.0394689 0)
(0.506754 -0.0394689 0)
(0.506754 -0.0394689 0)
(0.506754 -0.0394689 0)
(0.506754 -0.0394689 0)
(0.506754 -0.0394689 0)
(0.506754 -0.0394689 0)
(0.506754 -0.0394689 0)
(0.506754 -0.0394689 0)
(0.506754 -0.0394689 0)
(0.506754 -0.0394689 0)
(0.506754 -0.0394689 0)
(0.506754 -0.0394689 0)
(0.506754 -0.0394689 0)
(0.506754 -0.0394689 0)
(0.506754 -0.0394689 0)
(0.506754 -0.0394689 0)
(0.506754 -0.0394689 0)
(0.506754 -0.0394689 0)
(0.506754 -0.0394689 0)
(0.506754 -0.0394689 0)
(0.506754 -0.0394689 0)
(0.506754 -0.0394689 0)
(0.506754 -0.0394689 0)
(0.506754 -0.0394689 0)
(0.506754 -0.0394689 0)
(0.506754 -0.0394689 0)
(0.506754 -0.0394689 0)
(0.506754 -0.0394689 0)
(0.506754 -0.0394689 0)
(0.506754 -0.0394689 0)
(0.506754 -0.0394689 0)
(0.506754 -0.0394689 0)
(0.506754 -0.0394689 0)
(0.506754 -0.0394689 0)
(0.506754 -0.0394689 0)
(0.506754 -0.0394689 0)
(0.506754 -0.0394687 0)
(0.506753 -0.0394601 0)
(0.506717 -0.0391139 0)
(0.505893 -0.0223423 0)
)
;

boundaryField
{
    inandouthalf11
    {
        type            cyclic;
    }
    inandouthalf12
    {
        type            cyclic;
    }
    inandouthalf21
    {
        type            cyclic;
    }
    inandouthalf22
    {
        type            cyclic;
    }
    inandouthalf31
    {
        type            cyclic;
    }
    inandouthalf32
    {
        type            cyclic;
    }
    inandouthalf41
    {
        type            cyclic;
    }
    inandouthalf42
    {
        type            cyclic;
    }
    top
    {
        type            symmetryPlane;
    }
    walls
    {
        type            fixedValue;
        value           uniform (0 0 0);
    }
    frontAndBackPlanes
    {
        type            empty;
    }
}


// ************************************************************************* //
