/*--------------------------------*- C++ -*----------------------------------*\
| =========                 |                                                 |
| \\      /  F ield         | OpenFOAM: The Open Source CFD Toolbox           |
|  \\    /   O peration     | Version:  2.4.x                                 |
|   \\  /    A nd           | Web:      www.OpenFOAM.org                      |
|    \\/     M anipulation  |                                                 |
\*---------------------------------------------------------------------------*/
FoamFile
{
    version     2.0;
    format      ascii;
    class       volVectorField;
    location    "7.9";
    object      Ua_0;
}
// * * * * * * * * * * * * * * * * * * * * * * * * * * * * * * * * * * * * * //

dimensions      [0 1 -1 0 0 0 0];

internalField   nonuniform List<vector> 
360
(
(1.39533e-32 -1.00065e-31 0)
(1.61595e-08 -8.22679e-08 0)
(3.35677e-08 -1.4799e-07 0)
(4.90119e-08 -2.05389e-07 0)
(6.45505e-08 -2.65639e-07 0)
(8.06019e-08 -3.28642e-07 0)
(9.6762e-08 -3.92146e-07 0)
(1.12805e-07 -4.55427e-07 0)
(1.28696e-07 -5.18464e-07 0)
(1.44442e-07 -5.81295e-07 0)
(1.6005e-07 -6.43944e-07 0)
(1.75514e-07 -7.06385e-07 0)
(1.90828e-07 -7.68569e-07 0)
(2.05982e-07 -8.30458e-07 0)
(2.20974e-07 -8.92032e-07 0)
(2.35807e-07 -9.53295e-07 0)
(2.50486e-07 -1.01427e-06 0)
(2.65016e-07 -1.07496e-06 0)
(2.79401e-07 -1.13538e-06 0)
(2.93647e-07 -1.19555e-06 0)
(3.07758e-07 -1.25549e-06 0)
(3.21741e-07 -1.3152e-06 0)
(3.35601e-07 -1.37471e-06 0)
(3.49344e-07 -1.43405e-06 0)
(3.62976e-07 -1.49323e-06 0)
(3.76503e-07 -1.55226e-06 0)
(3.89929e-07 -1.61117e-06 0)
(4.0326e-07 -1.66998e-06 0)
(4.16501e-07 -1.72871e-06 0)
(4.29656e-07 -1.78737e-06 0)
(4.42728e-07 -1.84597e-06 0)
(4.55722e-07 -1.90453e-06 0)
(4.6864e-07 -1.96306e-06 0)
(4.81487e-07 -2.02157e-06 0)
(4.94265e-07 -2.08009e-06 0)
(5.06976e-07 -2.13861e-06 0)
(5.1962e-07 -2.19713e-06 0)
(5.32202e-07 -2.25567e-06 0)
(5.44722e-07 -2.31424e-06 0)
(5.57181e-07 -2.37284e-06 0)
(5.69579e-07 -2.43147e-06 0)
(5.81919e-07 -2.49014e-06 0)
(5.94199e-07 -2.54884e-06 0)
(6.06418e-07 -2.60757e-06 0)
(6.1858e-07 -2.66634e-06 0)
(6.30682e-07 -2.72515e-06 0)
(6.42723e-07 -2.784e-06 0)
(6.54701e-07 -2.84285e-06 0)
(6.66613e-07 -2.90171e-06 0)
(6.78463e-07 -2.9606e-06 0)
(6.90249e-07 -3.01951e-06 0)
(7.01968e-07 -3.07841e-06 0)
(7.13618e-07 -3.13731e-06 0)
(7.25197e-07 -3.1962e-06 0)
(7.36703e-07 -3.25506e-06 0)
(7.48134e-07 -3.31388e-06 0)
(7.59486e-07 -3.37266e-06 0)
(7.70756e-07 -3.43136e-06 0)
(7.8194e-07 -3.48997e-06 0)
(7.93033e-07 -3.54846e-06 0)
(8.04035e-07 -3.60683e-06 0)
(8.14944e-07 -3.66508e-06 0)
(8.25759e-07 -3.7232e-06 0)
(8.36478e-07 -3.78117e-06 0)
(8.47097e-07 -3.83898e-06 0)
(8.5761e-07 -3.89659e-06 0)
(8.68014e-07 -3.95399e-06 0)
(8.78306e-07 -4.01116e-06 0)
(8.88481e-07 -4.06806e-06 0)
(8.98533e-07 -4.12466e-06 0)
(9.08462e-07 -4.18096e-06 0)
(9.18271e-07 -4.23698e-06 0)
(9.27955e-07 -4.29268e-06 0)
(9.37514e-07 -4.34806e-06 0)
(9.46948e-07 -4.40313e-06 0)
(9.56254e-07 -4.45786e-06 0)
(9.6543e-07 -4.51224e-06 0)
(9.7447e-07 -4.56623e-06 0)
(9.8337e-07 -4.6198e-06 0)
(9.92128e-07 -4.67293e-06 0)
(1.00074e-06 -4.72561e-06 0)
(1.00921e-06 -4.77783e-06 0)
(1.01753e-06 -4.82959e-06 0)
(1.02572e-06 -4.8809e-06 0)
(1.03376e-06 -4.93175e-06 0)
(1.04165e-06 -4.98215e-06 0)
(1.0494e-06 -5.03208e-06 0)
(1.05701e-06 -5.08151e-06 0)
(1.06446e-06 -5.13043e-06 0)
(1.07177e-06 -5.1788e-06 0)
(1.07891e-06 -5.22661e-06 0)
(1.0859e-06 -5.27383e-06 0)
(1.09273e-06 -5.32047e-06 0)
(1.09941e-06 -5.36653e-06 0)
(1.10592e-06 -5.412e-06 0)
(1.11229e-06 -5.45689e-06 0)
(1.1185e-06 -5.50119e-06 0)
(1.12455e-06 -5.5449e-06 0)
(1.13045e-06 -5.58801e-06 0)
(1.13619e-06 -5.63051e-06 0)
(1.14177e-06 -5.67238e-06 0)
(1.1472e-06 -5.71362e-06 0)
(1.15246e-06 -5.75422e-06 0)
(1.15757e-06 -5.79417e-06 0)
(1.16252e-06 -5.83345e-06 0)
(1.1673e-06 -5.87208e-06 0)
(1.17193e-06 -5.91005e-06 0)
(1.1764e-06 -5.94735e-06 0)
(1.18071e-06 -5.98401e-06 0)
(1.18486e-06 -6.02002e-06 0)
(1.18886e-06 -6.05541e-06 0)
(1.19271e-06 -6.09021e-06 0)
(1.19641e-06 -6.12444e-06 0)
(1.19996e-06 -6.15816e-06 0)
(1.20337e-06 -6.1914e-06 0)
(1.20663e-06 -6.22424e-06 0)
(1.20976e-06 -6.25673e-06 0)
(1.21275e-06 -6.28894e-06 0)
(1.21559e-06 -6.32096e-06 0)
(1.21829e-06 -6.35285e-06 0)
(1.22084e-06 -6.38467e-06 0)
(1.22324e-06 -6.41649e-06 0)
(1.22545e-06 -6.44833e-06 0)
(1.22748e-06 -6.4802e-06 0)
(1.22929e-06 -6.51206e-06 0)
(1.23087e-06 -6.54384e-06 0)
(1.23218e-06 -6.57542e-06 0)
(1.2332e-06 -6.60667e-06 0)
(1.23391e-06 -6.63739e-06 0)
(1.23428e-06 -6.66736e-06 0)
(1.23431e-06 -6.6963e-06 0)
(1.23399e-06 -6.72392e-06 0)
(1.23334e-06 -6.74998e-06 0)
(1.23236e-06 -6.77436e-06 0)
(1.23109e-06 -6.7971e-06 0)
(1.22953e-06 -6.81832e-06 0)
(1.22767e-06 -6.83817e-06 0)
(1.2255e-06 -6.85693e-06 0)
(1.22293e-06 -6.87514e-06 0)
(1.21987e-06 -6.89322e-06 0)
(1.21643e-06 -6.91044e-06 0)
(1.21317e-06 -6.92424e-06 0)
(1.21077e-06 -6.93289e-06 0)
(1.20954e-06 -6.93694e-06 0)
(1.2092e-06 -6.93812e-06 0)
(1.20921e-06 -6.93842e-06 0)
(1.20953e-06 -6.93861e-06 0)
(1.55806e-06 -7.01107e-06 0)
(0.0115689 4.29807e-05 0)
(0.100337 0.00140689 0)
(0.229751 0.00318719 0)
(0.327366 0.00399729 0)
(0.402856 0.00470793 0)
(0.462626 0.00540106 0)
(0.510135 0.00604632 0)
(0.547474 0.00658697 0)
(0.576159 0.00696151 0)
(0.597589 0.00710415 0)
(0.613227 0.00695388 0)
(0.624516 0.00649232 0)
(0.632692 0.00578302 0)
(0.63867 0.0049475 0)
(0.643065 0.00409722 0)
(0.646281 0.00329618 0)
(0.64859 0.00256858 0)
(0.650184 0.00191868 0)
(0.651202 0.00134295 0)
(0.651749 0.000835375 0)
(0.651906 0.000389408 0)
(0.651736 -1.19753e-06 0)
(0.651292 -0.000342164 0)
(0.650614 -0.000638644 0)
(0.649737 -0.000895253 0)
(0.648692 -0.00111612 0)
(0.647501 -0.00130496 0)
(0.646188 -0.00146509 0)
(0.64477 -0.0015995 0)
(0.643263 -0.00171088 0)
(0.641682 -0.00180165 0)
(0.64004 -0.00187398 0)
(0.638347 -0.0019298 0)
(0.636615 -0.00197087 0)
(0.634851 -0.00199874 0)
(0.633065 -0.0020148 0)
(0.631264 -0.00202029 0)
(0.629456 -0.00201632 0)
(0.627646 -0.00200388 0)
(0.62584 -0.00198384 0)
(0.624045 -0.00195702 0)
(0.622265 -0.00192411 0)
(0.620506 -0.00188577 0)
(0.618771 -0.00184257 0)
(0.617065 -0.00179504 0)
(0.615392 -0.00174369 0)
(0.613756 -0.00168897 0)
(0.612161 -0.00163137 0)
(0.610609 -0.00157133 0)
(0.609105 -0.00150933 0)
(0.607651 -0.00144587 0)
(0.60625 -0.00138145 0)
(0.604906 -0.00131661 0)
(0.603606 -0.0012512 0)
(0.60234 -0.00118513 0)
(0.601107 -0.00111902 0)
(0.599908 -0.00105353 0)
(0.598744 -0.000989356 0)
(0.597615 -0.000927183 0)
(0.596521 -0.000867672 0)
(0.595461 -0.000811433 0)
(0.594436 -0.000759009 0)
(0.593444 -0.000710865 0)
(0.592484 -0.000667375 0)
(0.591556 -0.000628783 0)
(0.590657 -0.000595173 0)
(0.589787 -0.000566524 0)
(0.588944 -0.000542769 0)
(0.588127 -0.000523704 0)
(0.587333 -0.000508948 0)
(0.586561 -0.00049806 0)
(0.585811 -0.00049053 0)
(0.585079 -0.000485665 0)
(0.584367 -0.000482414 0)
(0.583672 -0.000479287 0)
(0.582993 -0.000474196 0)
(0.582331 -0.000464866 0)
(0.581684 -0.000450222 0)
(0.581054 -0.000430431 0)
(0.58044 -0.000405763 0)
(0.579845 -0.00037623 0)
(0.579271 -0.00034178 0)
(0.578721 -0.000302078 0)
(0.578202 -0.000257052 0)
(0.577724 -0.000204642 0)
(0.577304 -0.000140372 0)
(0.576965 -5.63473e-05 0)
(0.57671 2.03797e-05 0)
(0.57645 6.2076e-05 0)
(0.533387 0.00040753 0)
(0.530375 -7.47478e-05 0)
(0.527446 0.00136869 0)
(0.524548 -0.000515819 0)
(0.521775 0.00247189 0)
(0.518941 -0.000462307 0)
(0.517811 -0.0298508 0)
(0.515871 -0.03963 0)
(0.513282 -0.0395547 0)
(0.511121 -0.0395576 0)
(0.509112 -0.0395524 0)
(0.507306 -0.0395474 0)
(0.505724 -0.0395418 0)
(0.504387 -0.0395357 0)
(0.503315 -0.0395294 0)
(0.502514 -0.0395226 0)
(0.502014 -0.0395166 0)
(0.501814 -0.0395119 0)
(0.501849 -0.0395058 0)
(0.502154 -0.0395015 0)
(0.502674 -0.0394978 0)
(0.50337 -0.0394947 0)
(0.504185 -0.0394919 0)
(0.505049 -0.0394887 0)
(0.505876 -0.0394837 0)
(0.506383 -0.039475 0)
(0.506499 -0.0394699 0)
(0.506505 -0.0394689 0)
(0.506505 -0.0394689 0)
(0.506505 -0.0394689 0)
(0.506505 -0.0394689 0)
(0.506505 -0.0394689 0)
(0.506505 -0.0394689 0)
(0.506505 -0.0394689 0)
(0.506505 -0.0394689 0)
(0.506505 -0.0394689 0)
(0.506505 -0.0394689 0)
(0.506505 -0.0394689 0)
(0.506505 -0.0394689 0)
(0.506505 -0.0394689 0)
(0.506505 -0.0394689 0)
(0.506505 -0.0394689 0)
(0.506505 -0.0394689 0)
(0.506505 -0.0394689 0)
(0.506505 -0.0394689 0)
(0.506505 -0.0394689 0)
(0.506505 -0.0394689 0)
(0.506505 -0.0394689 0)
(0.506505 -0.0394689 0)
(0.506505 -0.0394689 0)
(0.506505 -0.0394689 0)
(0.506505 -0.0394689 0)
(0.506505 -0.0394689 0)
(0.506505 -0.0394689 0)
(0.506505 -0.0394689 0)
(0.506505 -0.0394689 0)
(0.506505 -0.0394689 0)
(0.506505 -0.0394689 0)
(0.506505 -0.0394689 0)
(0.506505 -0.0394689 0)
(0.506505 -0.0394689 0)
(0.506505 -0.0394689 0)
(0.506505 -0.0394689 0)
(0.506505 -0.0394689 0)
(0.506505 -0.0394689 0)
(0.506505 -0.0394689 0)
(0.506505 -0.0394689 0)
(0.506505 -0.0394689 0)
(0.506505 -0.0394689 0)
(0.506505 -0.0394689 0)
(0.506505 -0.0394689 0)
(0.506505 -0.0394689 0)
(0.506505 -0.0394689 0)
(0.506505 -0.0394689 0)
(0.506505 -0.0394689 0)
(0.506505 -0.0394689 0)
(0.506505 -0.0394689 0)
(0.506505 -0.0394689 0)
(0.506505 -0.0394689 0)
(0.506505 -0.0394689 0)
(0.506505 -0.0394689 0)
(0.506505 -0.0394689 0)
(0.506505 -0.0394689 0)
(0.506505 -0.0394689 0)
(0.506505 -0.0394689 0)
(0.506505 -0.0394689 0)
(0.506505 -0.0394689 0)
(0.506505 -0.0394689 0)
(0.506505 -0.0394689 0)
(0.506505 -0.0394689 0)
(0.506505 -0.0394689 0)
(0.506505 -0.0394689 0)
(0.506505 -0.0394689 0)
(0.506505 -0.0394689 0)
(0.506505 -0.0394689 0)
(0.506505 -0.0394689 0)
(0.506505 -0.0394689 0)
(0.506505 -0.0394689 0)
(0.506505 -0.0394689 0)
(0.506505 -0.0394689 0)
(0.506505 -0.0394689 0)
(0.506505 -0.0394689 0)
(0.506505 -0.0394689 0)
(0.506505 -0.0394689 0)
(0.506505 -0.0394689 0)
(0.506505 -0.0394689 0)
(0.506505 -0.0394689 0)
(0.506505 -0.0394689 0)
(0.506505 -0.0394689 0)
(0.506505 -0.0394689 0)
(0.506505 -0.0394689 0)
(0.506505 -0.0394689 0)
(0.506505 -0.0394689 0)
(0.506505 -0.0394689 0)
(0.506505 -0.0394689 0)
(0.506505 -0.0394689 0)
(0.506505 -0.0394689 0)
(0.506505 -0.0394689 0)
(0.506505 -0.0394689 0)
(0.506505 -0.0394687 0)
(0.506503 -0.0394601 0)
(0.506468 -0.0391139 0)
(0.505643 -0.0223423 0)
)
;

boundaryField
{
    inandouthalf11
    {
        type            cyclic;
    }
    inandouthalf12
    {
        type            cyclic;
    }
    inandouthalf21
    {
        type            cyclic;
    }
    inandouthalf22
    {
        type            cyclic;
    }
    inandouthalf31
    {
        type            cyclic;
    }
    inandouthalf32
    {
        type            cyclic;
    }
    inandouthalf41
    {
        type            cyclic;
    }
    inandouthalf42
    {
        type            cyclic;
    }
    top
    {
        type            symmetryPlane;
    }
    walls
    {
        type            fixedValue;
        value           uniform (0 0 0);
    }
    frontAndBackPlanes
    {
        type            empty;
    }
}


// ************************************************************************* //
