/*--------------------------------*- C++ -*----------------------------------*\
| =========                 |                                                 |
| \\      /  F ield         | OpenFOAM: The Open Source CFD Toolbox           |
|  \\    /   O peration     | Version:  2.4.x                                 |
|   \\  /    A nd           | Web:      www.OpenFOAM.org                      |
|    \\/     M anipulation  |                                                 |
\*---------------------------------------------------------------------------*/
FoamFile
{
    version     2.0;
    format      ascii;
    class       volVectorField;
    location    "7.9";
    object      Ur;
}
// * * * * * * * * * * * * * * * * * * * * * * * * * * * * * * * * * * * * * //

dimensions      [0 1 -1 0 0 0 0];

internalField   nonuniform List<vector> 
360
(
(0.000277504 3.43494e-08 0)
(0.000276037 2.05179e-07 0)
(0.000275811 3.7488e-07 0)
(0.000276012 5.29096e-07 0)
(0.000276117 6.85206e-07 0)
(0.000276153 8.46417e-07 0)
(0.000276194 1.00943e-06 0)
(0.000276246 1.17226e-06 0)
(0.000276299 1.33449e-06 0)
(0.000276354 1.49615e-06 0)
(0.000276408 1.6573e-06 0)
(0.000276463 1.81788e-06 0)
(0.000276518 1.97779e-06 0)
(0.000276573 2.13692e-06 0)
(0.000276629 2.29523e-06 0)
(0.000276685 2.45273e-06 0)
(0.000276742 2.60945e-06 0)
(0.0002768 2.76544e-06 0)
(0.000276858 2.9207e-06 0)
(0.000276916 3.07531e-06 0)
(0.000276975 3.22927e-06 0)
(0.000277035 3.38265e-06 0)
(0.000277095 3.53549e-06 0)
(0.000277155 3.68785e-06 0)
(0.000277217 3.83978e-06 0)
(0.000277278 3.99133e-06 0)
(0.00027734 4.14253e-06 0)
(0.000277404 4.29344e-06 0)
(0.000277467 4.44411e-06 0)
(0.000277531 4.59458e-06 0)
(0.000277596 4.74488e-06 0)
(0.000277662 4.89506e-06 0)
(0.000277728 5.04512e-06 0)
(0.000277795 5.19513e-06 0)
(0.000277862 5.3451e-06 0)
(0.000277931 5.49505e-06 0)
(0.000277999 5.64499e-06 0)
(0.000278069 5.79495e-06 0)
(0.00027814 5.94497e-06 0)
(0.000278211 6.09501e-06 0)
(0.000278283 6.24511e-06 0)
(0.000278356 6.39528e-06 0)
(0.000278429 6.54549e-06 0)
(0.000278504 6.69576e-06 0)
(0.000278579 6.84611e-06 0)
(0.000278655 6.99651e-06 0)
(0.000278733 7.14697e-06 0)
(0.00027881 7.29743e-06 0)
(0.000278889 7.44787e-06 0)
(0.000278969 7.59836e-06 0)
(0.000279049 7.74884e-06 0)
(0.000279131 7.8993e-06 0)
(0.000279213 8.04969e-06 0)
(0.000279297 8.20003e-06 0)
(0.000279381 8.35024e-06 0)
(0.000279468 8.50035e-06 0)
(0.000279554 8.65026e-06 0)
(0.000279642 8.79996e-06 0)
(0.000279731 8.9494e-06 0)
(0.00027982 9.09847e-06 0)
(0.000279912 9.24722e-06 0)
(0.000280004 9.3956e-06 0)
(0.000280098 9.5436e-06 0)
(0.000280192 9.69119e-06 0)
(0.000280289 9.83831e-06 0)
(0.000280386 9.98489e-06 0)
(0.000280485 1.01309e-05 0)
(0.000280585 1.02762e-05 0)
(0.000280686 1.04208e-05 0)
(0.000280788 1.05646e-05 0)
(0.000280893 1.07076e-05 0)
(0.000280999 1.08498e-05 0)
(0.000281106 1.09912e-05 0)
(0.000281215 1.11317e-05 0)
(0.000281326 1.12712e-05 0)
(0.000281438 1.141e-05 0)
(0.000281552 1.15477e-05 0)
(0.000281668 1.16844e-05 0)
(0.000281785 1.18199e-05 0)
(0.000281905 1.19543e-05 0)
(0.000282026 1.20875e-05 0)
(0.000282149 1.22195e-05 0)
(0.000282275 1.23502e-05 0)
(0.000282402 1.24796e-05 0)
(0.000282532 1.26079e-05 0)
(0.000282664 1.27349e-05 0)
(0.000282798 1.28607e-05 0)
(0.000282934 1.29851e-05 0)
(0.000283073 1.31081e-05 0)
(0.000283215 1.32297e-05 0)
(0.000283359 1.33497e-05 0)
(0.000283506 1.34682e-05 0)
(0.000283655 1.35851e-05 0)
(0.000283808 1.37005e-05 0)
(0.000283964 1.38142e-05 0)
(0.000284122 1.39264e-05 0)
(0.000284284 1.40371e-05 0)
(0.00028445 1.41461e-05 0)
(0.000284619 1.42535e-05 0)
(0.000284791 1.43592e-05 0)
(0.000284968 1.44633e-05 0)
(0.000285148 1.45656e-05 0)
(0.000285332 1.46662e-05 0)
(0.00028552 1.47651e-05 0)
(0.000285713 1.48621e-05 0)
(0.000285911 1.49574e-05 0)
(0.000286113 1.50509e-05 0)
(0.000286321 1.51425e-05 0)
(0.000286533 1.52324e-05 0)
(0.000286751 1.53206e-05 0)
(0.000286975 1.5407e-05 0)
(0.000287205 1.54918e-05 0)
(0.000287441 1.5575e-05 0)
(0.000287684 1.56567e-05 0)
(0.000287933 1.57371e-05 0)
(0.00028819 1.58163e-05 0)
(0.000288454 1.58945e-05 0)
(0.000288726 1.59718e-05 0)
(0.000289006 1.60484e-05 0)
(0.000289294 1.61245e-05 0)
(0.000289592 1.62002e-05 0)
(0.000289899 1.62757e-05 0)
(0.000290217 1.63511e-05 0)
(0.000290545 1.64262e-05 0)
(0.000290884 1.65011e-05 0)
(0.000291235 1.65756e-05 0)
(0.0002916 1.66492e-05 0)
(0.000291978 1.67217e-05 0)
(0.000292373 1.67925e-05 0)
(0.000292784 1.6861e-05 0)
(0.000293213 1.69266e-05 0)
(0.000293661 1.69884e-05 0)
(0.00029413 1.7046e-05 0)
(0.000294625 1.70988e-05 0)
(0.000295151 1.7147e-05 0)
(0.000295707 1.71909e-05 0)
(0.00029629 1.72307e-05 0)
(0.00029691 1.72669e-05 0)
(0.000297597 1.73004e-05 0)
(0.000298385 1.73323e-05 0)
(0.00029924 1.7361e-05 0)
(0.000300065 1.7378e-05 0)
(0.000301059 1.7381e-05 0)
(0.000302348 1.73692e-05 0)
(0.000303964 1.73291e-05 0)
(0.000307101 1.75765e-05 0)
(0.000312258 1.31469e-05 0)
(0.000328746 3.57986e-05 0)
(0.000819216 -0.000102814 0)
(0.0140903 -0.00234144 0)
(0.0190181 -0.00393788 0)
(0.0165729 -0.00459233 0)
(0.0157137 -0.0052003 0)
(0.0162104 -0.00578735 0)
(0.0179722 -0.00633162 0)
(0.0208861 -0.00678548 0)
(0.024616 -0.00709222 0)
(0.0285329 -0.00718669 0)
(0.0319052 -0.00700524 0)
(0.0342471 -0.00652506 0)
(0.0354992 -0.00580519 0)
(0.0359091 -0.00496367 0)
(0.0358038 -0.00410981 0)
(0.0354499 -0.00330648 0)
(0.0350199 -0.00257731 0)
(0.0346117 -0.00192628 0)
(0.0342741 -0.00134971 0)
(0.0340272 -0.000841489 0)
(0.0338753 -0.000395012 0)
(0.0338137 -3.99442e-06 0)
(0.0338337 0.000337311 0)
(0.0339248 0.000634075 0)
(0.0340759 0.000890923 0)
(0.034276 0.001112 0)
(0.0345149 0.00130101 0)
(0.034783 0.00146129 0)
(0.0350716 0.00159583 0)
(0.0353727 0.00170733 0)
(0.035679 0.0017982 0)
(0.0359839 0.00187061 0)
(0.0362816 0.00192652 0)
(0.0365667 0.00196765 0)
(0.0368341 0.00199558 0)
(0.0370796 0.00201168 0)
(0.0372989 0.00201721 0)
(0.0374884 0.00201328 0)
(0.0376447 0.00200086 0)
(0.0377644 0.00198085 0)
(0.0378448 0.00195405 0)
(0.037883 0.00192115 0)
(0.0378765 0.00188282 0)
(0.037823 0.00183962 0)
(0.0377201 0.0017921 0)
(0.0375658 0.00174075 0)
(0.037358 0.00168603 0)
(0.0370949 0.00162842 0)
(0.0367746 0.00156838 0)
(0.0363954 0.00150637 0)
(0.0359556 0.0014429 0)
(0.0354538 0.00137848 0)
(0.0348882 0.00131362 0)
(0.0342517 0.0012482 0)
(0.0335369 0.00118212 0)
(0.0327427 0.00111599 0)
(0.0318684 0.00105049 0)
(0.0309133 0.000986299 0)
(0.0298769 0.00092411 0)
(0.0287592 0.000864583 0)
(0.0275601 0.000808326 0)
(0.0262802 0.000755884 0)
(0.0249203 0.000707723 0)
(0.0234815 0.000664215 0)
(0.0219653 0.000625606 0)
(0.0203733 0.000591978 0)
(0.0187074 0.000563312 0)
(0.01697 0.000539542 0)
(0.0151631 0.000520462 0)
(0.0132892 0.000505692 0)
(0.0113506 0.000494792 0)
(0.0093501 0.000487253 0)
(0.00729026 0.000482381 0)
(0.0051736 0.000479125 0)
(0.00300255 0.000475998 0)
(0.000779919 0.000470911 0)
(-0.00149163 0.00046159 0)
(-0.0038097 0.000446955 0)
(-0.00617194 0.000427172 0)
(-0.00857626 0.000402514 0)
(-0.0110211 0.000372991 0)
(-0.0135055 0.000338551 0)
(-0.0160295 0.000298859 0)
(-0.0185941 0.000253843 0)
(-0.0212056 0.000201442 0)
(-0.0238765 0.000137179 0)
(-0.0266219 5.31601e-05 0)
(-0.0294404 -2.3563e-05 0)
(-0.0322349 -6.52597e-05 0)
(0.00779532 -0.000407826 0)
(0.00781621 7.10282e-05 0)
(0.00779926 -0.00136926 0)
(0.00780889 0.000511594 0)
(0.0077614 -0.00247096 0)
(0.00785846 0.000456302 0)
(0.00634908 0.029844 0)
(0.00576337 0.0396299 0)
(0.00596013 0.0395547 0)
(0.00588127 0.0395576 0)
(0.00582594 0.0395525 0)
(0.00576319 0.0395474 0)
(0.00569653 0.0395418 0)
(0.00562643 0.0395357 0)
(0.00555479 0.0395294 0)
(0.00549102 0.0395226 0)
(0.00541278 0.0395166 0)
(0.00532448 0.0395119 0)
(0.00527996 0.0395058 0)
(0.00522493 0.0395015 0)
(0.00518145 0.0394978 0)
(0.00514973 0.0394947 0)
(0.00513186 0.0394919 0)
(0.00513004 0.0394887 0)
(0.00513886 0.0394837 0)
(0.00523705 0.039475 0)
(0.00527385 0.0394699 0)
(0.00527608 0.0394689 0)
(0.00527613 0.0394689 0)
(0.00527614 0.0394689 0)
(0.00527614 0.0394689 0)
(0.00527614 0.0394689 0)
(0.00527614 0.0394689 0)
(0.00527614 0.0394689 0)
(0.00527614 0.0394689 0)
(0.00527614 0.0394689 0)
(0.00527614 0.0394689 0)
(0.00527614 0.0394689 0)
(0.00527614 0.0394689 0)
(0.00527614 0.0394689 0)
(0.00527614 0.0394689 0)
(0.00527614 0.0394689 0)
(0.00527614 0.0394689 0)
(0.00527614 0.0394689 0)
(0.00527614 0.0394689 0)
(0.00527614 0.0394689 0)
(0.00527614 0.0394689 0)
(0.00527614 0.0394689 0)
(0.00527614 0.0394689 0)
(0.00527614 0.0394689 0)
(0.00527614 0.0394689 0)
(0.00527614 0.0394689 0)
(0.00527614 0.0394689 0)
(0.00527614 0.0394689 0)
(0.00527614 0.0394689 0)
(0.00527614 0.0394689 0)
(0.00527614 0.0394689 0)
(0.00527614 0.0394689 0)
(0.00527614 0.0394689 0)
(0.00527614 0.0394689 0)
(0.00527614 0.0394689 0)
(0.00527614 0.0394689 0)
(0.00527614 0.0394689 0)
(0.00527614 0.0394689 0)
(0.00527614 0.0394689 0)
(0.00527614 0.0394689 0)
(0.00527614 0.0394689 0)
(0.00527614 0.0394689 0)
(0.00527614 0.0394689 0)
(0.00527614 0.0394689 0)
(0.00527614 0.0394689 0)
(0.00527614 0.0394689 0)
(0.00527614 0.0394689 0)
(0.00527614 0.0394689 0)
(0.00527614 0.0394689 0)
(0.00527614 0.0394689 0)
(0.00527614 0.0394689 0)
(0.00527614 0.0394689 0)
(0.00527614 0.0394689 0)
(0.00527614 0.0394689 0)
(0.00527614 0.0394689 0)
(0.00527614 0.0394689 0)
(0.00527614 0.0394689 0)
(0.00527614 0.0394689 0)
(0.00527614 0.0394689 0)
(0.00527614 0.0394689 0)
(0.00527614 0.0394689 0)
(0.00527614 0.0394689 0)
(0.00527614 0.0394689 0)
(0.00527614 0.0394689 0)
(0.00527614 0.0394689 0)
(0.00527614 0.0394689 0)
(0.00527614 0.0394689 0)
(0.00527614 0.0394689 0)
(0.00527614 0.0394689 0)
(0.00527614 0.0394689 0)
(0.00527614 0.0394689 0)
(0.00527614 0.0394689 0)
(0.00527614 0.0394689 0)
(0.00527614 0.0394689 0)
(0.00527614 0.0394689 0)
(0.00527614 0.0394689 0)
(0.00527614 0.0394689 0)
(0.00527614 0.0394689 0)
(0.00527614 0.0394689 0)
(0.00527614 0.0394689 0)
(0.00527614 0.0394689 0)
(0.00527614 0.0394689 0)
(0.00527614 0.0394689 0)
(0.00527614 0.0394689 0)
(0.00527614 0.0394689 0)
(0.00527614 0.0394689 0)
(0.00527614 0.0394689 0)
(0.00527614 0.0394689 0)
(0.00527614 0.0394689 0)
(0.00527614 0.0394689 0)
(0.00527614 0.0394689 0)
(0.00527614 0.0394689 0)
(0.00527614 0.0394689 0)
(0.0052762 0.0394687 0)
(0.00527766 0.0394601 0)
(0.00531328 0.0391139 0)
(0.00613764 0.0223423 0)
)
;

boundaryField
{
    inandouthalf11
    {
        type            cyclic;
    }
    inandouthalf12
    {
        type            cyclic;
    }
    inandouthalf21
    {
        type            cyclic;
    }
    inandouthalf22
    {
        type            cyclic;
    }
    inandouthalf31
    {
        type            cyclic;
    }
    inandouthalf32
    {
        type            cyclic;
    }
    inandouthalf41
    {
        type            cyclic;
    }
    inandouthalf42
    {
        type            cyclic;
    }
    top
    {
        type            symmetryPlane;
    }
    walls
    {
        type            calculated;
        value           uniform (0 0 0);
    }
    frontAndBackPlanes
    {
        type            empty;
    }
}


// ************************************************************************* //
