/*--------------------------------*- C++ -*----------------------------------*\
| =========                 |                                                 |
| \\      /  F ield         | OpenFOAM: The Open Source CFD Toolbox           |
|  \\    /   O peration     | Version:  2.4.x                                 |
|   \\  /    A nd           | Web:      www.OpenFOAM.org                      |
|    \\/     M anipulation  |                                                 |
\*---------------------------------------------------------------------------*/
FoamFile
{
    version     2.0;
    format      ascii;
    class       volScalarField;
    location    "5.35";
    object      alpha;
}
// * * * * * * * * * * * * * * * * * * * * * * * * * * * * * * * * * * * * * //

dimensions      [0 0 0 0 0 0 0];

internalField   nonuniform List<scalar> 
360
(
0.61058
0.611267
0.611398
0.611334
0.611284
0.61126
0.611238
0.611215
0.611191
0.611166
0.611141
0.611115
0.611089
0.611064
0.611038
0.611012
0.610985
0.610958
0.610932
0.610904
0.610877
0.610849
0.610822
0.610794
0.610765
0.610737
0.610708
0.610678
0.610649
0.610618
0.610588
0.610557
0.610526
0.610495
0.610464
0.610433
0.610403
0.610373
0.610343
0.610313
0.610282
0.61025
0.610216
0.610177
0.610134
0.610085
0.610031
0.609977
0.609927
0.609887
0.60986
0.609839
0.609822
0.609804
0.609786
0.609767
0.609747
0.609725
0.609702
0.609678
0.609653
0.609627
0.6096
0.609572
0.609544
0.609515
0.609485
0.609454
0.609422
0.609389
0.609354
0.609318
0.609281
0.609243
0.609204
0.609163
0.609123
0.609081
0.609038
0.608995
0.60895
0.608904
0.608857
0.608809
0.608759
0.608708
0.608656
0.608603
0.608549
0.608494
0.608437
0.608379
0.60832
0.60826
0.608198
0.608135
0.60807
0.608004
0.607936
0.607866
0.607795
0.607723
0.607648
0.607572
0.607493
0.607413
0.607331
0.607247
0.60716
0.607071
0.60698
0.606886
0.60679
0.606691
0.606589
0.606484
0.606376
0.606265
0.60615
0.606032
0.60591
0.605784
0.605654
0.60552
0.605381
0.605237
0.605089
0.604935
0.604775
0.604608
0.604435
0.604254
0.604066
0.603868
0.603657
0.603434
0.603201
0.602953
0.602678
0.602363
0.602022
0.601697
0.60131
0.600808
0.600188
0.599092
0.59553
0.550363
0.319709
0.229233
0.184146
0.149794
0.121565
0.0981039
0.0788221
0.0632137
0.0507351
0.0408362
0.0330098
0.0268202
0.0219118
0.018002
0.0148712
0.0123496
0.0103064
0.0086412
0.00727622
0.00615123
0.00521923
0.00444332
0.00379442
0.00324939
0.00278976
0.0024007
0.00207021
0.00178855
0.00154776
0.00134132
0.00116384
0.00101088
0.000878718
0.000764246
0.000664815
0.000578145
0.000502264
0.000435493
0.000376466
0.000324156
0.000277867
0.000237154
0.000201693
0.000171153
0.000145169
0.000123303
0.000104947
8.93551e-05
7.58835e-05
6.4165e-05
5.4066e-05
4.55135e-05
3.83448e-05
3.22942e-05
2.72201e-05
2.29907e-05
1.93804e-05
1.63314e-05
1.38253e-05
1.16942e-05
9.86515e-06
8.35174e-06
7.07367e-06
5.97943e-06
5.06446e-06
4.27797e-06
3.60696e-06
3.05397e-06
2.56711e-06
2.15025e-06
1.81181e-06
1.51625e-06
1.26383e-06
1.05265e-06
8.72646e-07
7.24478e-07
5.94207e-07
4.85416e-07
3.97186e-07
3.20049e-07
2.57122e-07
2.05363e-07
1.6268e-07
1.27586e-07
9.80686e-08
7.19299e-08
5.70009e-08
4.22507e-08
5.32116e-08
3.41459e-08
8.86106e-09
8.78315e-22
9.76987e-23
7.07083e-23
6.09694e-23
5.4932e-23
4.91751e-23
4.20218e-23
3.25191e-23
2.07675e-23
8.92109e-24
3.74617e-24
1.89559e-24
1.11958e-24
7.49926e-25
5.61024e-25
4.46676e-25
3.44158e-25
2.25428e-25
1.00385e-25
4.3164e-26
2.19485e-26
1.24266e-26
7.66672e-27
5.02515e-27
3.06949e-27
1.42994e-27
6.79669e-28
3.51552e-28
1.87633e-28
1.00088e-28
4.94156e-29
2.45135e-29
1.20765e-29
5.84013e-30
2.76889e-30
1.28609e-30
5.8478e-31
2.60085e-31
1.13049e-31
4.798e-32
1.98641e-32
8.01398e-33
3.14717e-33
1.20163e-33
4.45507e-34
1.60168e-34
5.57566e-35
1.87639e-35
6.09405e-36
1.90644e-36
5.7329e-37
1.65338e-37
4.56165e-38
1.20063e-38
3.00522e-39
7.12843e-40
1.59598e-40
3.35731e-41
6.60079e-42
1.20548e-42
2.03009e-43
3.12494e-44
4.34969e-45
5.40111e-46
5.87903e-47
5.4787e-48
4.22715e-49
2.56496e-50
1.1194e-51
2.88899e-53
1.84337e-55
7.23685e-59
8.97258e-61
5.5213e-63
1.38659e-73
1.73125e-84
1.52846e-95
9.92124e-107
5.34193e-118
2.30148e-129
8.63442e-141
6.17642e-150
2.04946e-160
2.12793e-168
6.32511e-179
7.32018e-187
2.58927e-197
2.51812e-205
1.12057e-215
8.6694e-224
7.29198e-234
3.01759e-242
4.79724e-252
1.06786e-260
2.39117e-270
3.83988e-279
1.13328e-288
1.40155e-297
4.98837e-307
5.20505e-316
2.75328e-319
6.80328e-321
7.09478e-321
6.08689e-321
8.5424e-321
0
0
0
0
0
0
0
0
0
0
0
0
0
0
0
0
)
;

boundaryField
{
    inandouthalf11
    {
        type            cyclic;
    }
    inandouthalf12
    {
        type            cyclic;
    }
    inandouthalf21
    {
        type            cyclic;
    }
    inandouthalf22
    {
        type            cyclic;
    }
    inandouthalf31
    {
        type            cyclic;
    }
    inandouthalf32
    {
        type            cyclic;
    }
    inandouthalf41
    {
        type            cyclic;
    }
    inandouthalf42
    {
        type            cyclic;
    }
    top
    {
        type            symmetryPlane;
    }
    walls
    {
        type            zeroGradient;
    }
    frontAndBackPlanes
    {
        type            empty;
    }
}


// ************************************************************************* //
