/*--------------------------------*- C++ -*----------------------------------*\
| =========                 |                                                 |
| \\      /  F ield         | OpenFOAM: The Open Source CFD Toolbox           |
|  \\    /   O peration     | Version:  2.4.x                                 |
|   \\  /    A nd           | Web:      www.OpenFOAM.org                      |
|    \\/     M anipulation  |                                                 |
\*---------------------------------------------------------------------------*/
FoamFile
{
    version     2.0;
    format      ascii;
    class       surfaceScalarField;
    location    "5.35";
    object      ddt0(phib);
}
// * * * * * * * * * * * * * * * * * * * * * * * * * * * * * * * * * * * * * //

dimensions      [0 3 -2 0 0 0 0];

internalField   nonuniform List<scalar> 
359
(
-1.62948e-13
-5.21393e-13
-8.66354e-13
-1.17166e-12
-1.46583e-12
-1.76968e-12
-2.08641e-12
-2.41091e-12
-2.73781e-12
-3.06603e-12
-3.39697e-12
-3.73206e-12
-4.07204e-12
-4.4163e-12
-4.76408e-12
-5.11469e-12
-5.46801e-12
-5.8243e-12
-6.18419e-12
-6.54942e-12
-6.9222e-12
-7.30644e-12
-7.70683e-12
-8.12867e-12
-8.57691e-12
-9.05484e-12
-9.56262e-12
-1.00955e-11
-1.06412e-11
-1.11791e-11
-1.16808e-11
-1.21138e-11
-1.24469e-11
-1.26623e-11
-1.27646e-11
-1.27922e-11
-1.28208e-11
-1.29625e-11
-1.33635e-11
-1.42023e-11
-1.57021e-11
-1.81378e-11
-2.18205e-11
-2.69788e-11
-3.33399e-11
-3.93681e-11
-4.17799e-11
-3.7195e-11
-2.6079e-11
-1.37624e-11
-5.36327e-12
-1.55336e-12
-3.39401e-13
-4.54601e-14
1.50222e-14
2.70813e-14
2.96349e-14
3.02244e-14
3.02905e-14
3.02192e-14
3.00155e-14
2.97793e-14
2.94698e-14
2.91648e-14
2.87647e-14
2.83478e-14
2.79084e-14
2.74587e-14
2.69511e-14
2.64988e-14
2.60206e-14
2.5563e-14
2.51e-14
2.46615e-14
2.42132e-14
2.37718e-14
2.32857e-14
2.28056e-14
2.22885e-14
2.17794e-14
2.12643e-14
2.07478e-14
2.01819e-14
1.96427e-14
1.90476e-14
1.8471e-14
1.78487e-14
1.72492e-14
1.66175e-14
1.59768e-14
1.53465e-14
1.4691e-14
1.402e-14
1.33663e-14
1.26901e-14
1.19762e-14
1.12736e-14
1.05939e-14
9.89591e-15
9.2121e-15
8.53219e-15
7.8727e-15
7.19965e-15
6.53231e-15
5.89158e-15
5.22212e-15
4.55783e-15
3.89419e-15
3.24078e-15
2.59084e-15
1.93178e-15
1.29016e-15
6.44549e-16
2.22908e-17
-5.98262e-16
-1.25774e-15
-1.88993e-15
-2.53596e-15
-3.13879e-15
-3.75647e-15
-4.35078e-15
-4.96923e-15
-5.56161e-15
-6.14086e-15
-6.768e-15
-7.34973e-15
-7.93125e-15
-8.49708e-15
-9.06853e-15
-9.60029e-15
-1.01399e-14
-1.06734e-14
-1.12074e-14
-1.16848e-14
-1.21593e-14
-1.26158e-14
-1.30748e-14
-1.3592e-14
-1.41335e-14
-1.4565e-14
-1.48812e-14
-1.54687e-14
-1.63171e-14
-1.77952e-14
-2.6616e-14
-1.70263e-13
1.23312e-11
3.81523e-10
-2.87057e-11
1.54145e-10
7.80113e-11
1.02583e-10
1.1589e-10
1.27803e-10
1.34831e-10
1.36855e-10
1.34669e-10
1.29368e-10
1.22014e-10
1.13442e-10
1.04304e-10
9.50607e-11
8.60247e-11
7.73999e-11
6.93124e-11
6.18197e-11
5.49472e-11
4.86915e-11
4.30301e-11
3.79284e-11
3.33444e-11
2.92327e-11
2.55468e-11
2.22416e-11
1.92747e-11
1.66075e-11
1.42051e-11
1.20372e-11
1.00771e-11
8.30021e-12
6.68029e-12
5.18541e-12
3.77569e-12
2.40821e-12
1.05113e-12
-2.96441e-13
-1.58946e-12
-2.74086e-12
-3.65027e-12
-4.24618e-12
-4.51267e-12
-4.48678e-12
-4.24669e-12
-3.8999e-12
-3.54627e-12
-3.2296e-12
-2.9335e-12
-2.6261e-12
-2.30172e-12
-1.98201e-12
-1.68562e-12
-1.41224e-12
-1.17459e-12
-9.80697e-13
-8.14804e-13
-6.69799e-13
-5.54683e-13
-4.62183e-13
-3.81251e-13
-3.14882e-13
-2.61938e-13
-2.17641e-13
-1.8164e-13
-1.51507e-13
-1.25918e-13
-1.06147e-13
-8.93207e-14
-7.41649e-14
-6.24157e-14
-5.29647e-14
-4.45822e-14
-3.75587e-14
-3.18155e-14
-2.72738e-14
-2.32949e-14
-1.98214e-14
-1.7086e-14
-1.47766e-14
-1.27843e-14
-1.11487e-14
-9.84417e-15
-8.8313e-15
-7.85322e-15
-6.90591e-15
-6.10674e-15
-6.42076e-15
-6.20703e-15
-3.60713e-15
-4.12041e-15
-4.25244e-15
-4.1254e-15
-4.01245e-15
-3.88563e-15
-3.76969e-15
-3.64618e-15
-3.51017e-15
-3.39382e-15
-3.26105e-15
-3.13686e-15
-3.0169e-15
-2.88135e-15
-2.75975e-15
-2.62755e-15
-2.50956e-15
-2.3731e-15
-2.24361e-15
-2.11041e-15
-1.98295e-15
-1.85339e-15
-1.7306e-15
-1.58943e-15
-1.45844e-15
-1.3321e-15
-1.23569e-15
-1.12785e-15
-1.03877e-15
-9.50664e-16
-8.73177e-16
-7.94554e-16
-7.26999e-16
-6.60756e-16
-5.93579e-16
-5.27362e-16
-4.66483e-16
-4.06591e-16
-3.655e-16
-3.27178e-16
-2.87831e-16
-2.45124e-16
-2.12505e-16
-1.60054e-16
-1.18441e-16
-9.32827e-17
-7.56529e-17
-4.60798e-17
-1.98056e-17
-1.35259e-17
-1.06517e-17
1.46216e-18
1.3912e-17
2.4381e-17
1.23924e-17
1.10362e-17
4.61455e-18
-1.47649e-17
-8.21875e-18
-3.22764e-17
-3.50014e-17
-4.49684e-17
-4.34183e-17
-5.09175e-17
-5.14733e-17
-4.58976e-17
-3.62145e-17
-5.19421e-17
-4.51489e-17
-3.97172e-17
-1.32083e-17
-9.52778e-18
1.99048e-17
5.02321e-17
9.69815e-17
1.12325e-16
1.44524e-16
1.79313e-16
2.29375e-16
2.73052e-16
3.43966e-16
4.24455e-16
5.23671e-16
6.01159e-16
7.12354e-16
8.37689e-16
9.96511e-16
1.17982e-15
1.40943e-15
1.69768e-15
2.07764e-15
3.18058e-15
4.40116e-15
5.68816e-15
7.08325e-15
8.43714e-15
9.94015e-15
1.14464e-14
1.31114e-14
1.45828e-14
1.62413e-14
1.79013e-14
1.97874e-14
2.15452e-14
2.35879e-14
2.56978e-14
2.81498e-14
3.10816e-14
3.44365e-14
3.79068e-14
4.18781e-14
4.57843e-14
5.01282e-14
5.49168e-14
6.15678e-14
6.85363e-14
7.62098e-14
8.4675e-14
9.42393e-14
1.02176e-13
1.15044e-13
1.44912e-13
)
;

boundaryField
{
    inandouthalf11
    {
        type            cyclic;
        value           nonuniform List<scalar> 
100
(
7.07166e-12
7.03288e-12
7.011e-12
7.00214e-12
6.99332e-12
6.98269e-12
6.97131e-12
6.95953e-12
6.94745e-12
6.93523e-12
6.92282e-12
6.91014e-12
6.89712e-12
6.88376e-12
6.87009e-12
6.85614e-12
6.84192e-12
6.82741e-12
6.8126e-12
6.79745e-12
6.78183e-12
6.76567e-12
6.74877e-12
6.7309e-12
6.71186e-12
6.69145e-12
6.66955e-12
6.64625e-12
6.62186e-12
6.59702e-12
6.57277e-12
6.55044e-12
6.53141e-12
6.51693e-12
6.50734e-12
6.50187e-12
6.49806e-12
6.49181e-12
6.4773e-12
6.44707e-12
6.39203e-12
6.30043e-12
6.15804e-12
5.95031e-12
5.67296e-12
5.36094e-12
5.13023e-12
5.1703e-12
5.58713e-12
6.21356e-12
6.73249e-12
7.00273e-12
7.09795e-12
7.12323e-12
7.12944e-12
7.13168e-12
7.13311e-12
7.13448e-12
7.13587e-12
7.13728e-12
7.13882e-12
7.14036e-12
7.14199e-12
7.14364e-12
7.14533e-12
7.14705e-12
7.14884e-12
7.15069e-12
7.1526e-12
7.15456e-12
7.15665e-12
7.15881e-12
7.161e-12
7.1633e-12
7.16564e-12
7.16805e-12
7.17049e-12
7.17299e-12
7.17555e-12
7.17817e-12
7.18085e-12
7.18361e-12
7.18645e-12
7.18936e-12
7.19234e-12
7.19539e-12
7.19852e-12
7.20171e-12
7.20496e-12
7.20829e-12
7.21169e-12
7.21516e-12
7.21872e-12
7.22237e-12
7.2261e-12
7.22992e-12
7.23383e-12
7.23783e-12
7.24193e-12
7.24612e-12
)
;
    }
    inandouthalf12
    {
        type            cyclic;
        value           nonuniform List<scalar> 
100
(
-7.07166e-12
-7.03288e-12
-7.011e-12
-7.00214e-12
-6.99332e-12
-6.98269e-12
-6.97131e-12
-6.95953e-12
-6.94745e-12
-6.93523e-12
-6.92282e-12
-6.91014e-12
-6.89712e-12
-6.88376e-12
-6.87009e-12
-6.85614e-12
-6.84192e-12
-6.82741e-12
-6.8126e-12
-6.79745e-12
-6.78183e-12
-6.76567e-12
-6.74877e-12
-6.7309e-12
-6.71186e-12
-6.69145e-12
-6.66955e-12
-6.64625e-12
-6.62186e-12
-6.59702e-12
-6.57277e-12
-6.55044e-12
-6.53141e-12
-6.51693e-12
-6.50734e-12
-6.50187e-12
-6.49806e-12
-6.49181e-12
-6.4773e-12
-6.44707e-12
-6.39203e-12
-6.30043e-12
-6.15804e-12
-5.95031e-12
-5.67296e-12
-5.36094e-12
-5.13023e-12
-5.1703e-12
-5.58713e-12
-6.21356e-12
-6.73249e-12
-7.00273e-12
-7.09795e-12
-7.12323e-12
-7.12944e-12
-7.13168e-12
-7.13311e-12
-7.13448e-12
-7.13587e-12
-7.13728e-12
-7.13882e-12
-7.14036e-12
-7.14199e-12
-7.14364e-12
-7.14533e-12
-7.14705e-12
-7.14884e-12
-7.15069e-12
-7.1526e-12
-7.15456e-12
-7.15665e-12
-7.15881e-12
-7.161e-12
-7.1633e-12
-7.16564e-12
-7.16805e-12
-7.17049e-12
-7.17299e-12
-7.17555e-12
-7.17817e-12
-7.18085e-12
-7.18361e-12
-7.18645e-12
-7.18936e-12
-7.19234e-12
-7.19539e-12
-7.19852e-12
-7.20171e-12
-7.20496e-12
-7.20829e-12
-7.21169e-12
-7.21516e-12
-7.21872e-12
-7.22237e-12
-7.2261e-12
-7.22992e-12
-7.23383e-12
-7.23783e-12
-7.24193e-12
-7.24612e-12
)
;
    }
    inandouthalf21
    {
        type            cyclic;
        value           nonuniform List<scalar> 
100
(
7.25042e-12
7.25482e-12
7.25934e-12
7.26396e-12
7.2687e-12
7.27357e-12
7.27856e-12
7.28369e-12
7.28895e-12
7.29435e-12
7.29991e-12
7.30562e-12
7.3115e-12
7.31755e-12
7.32378e-12
7.33019e-12
7.3368e-12
7.34362e-12
7.35065e-12
7.35791e-12
7.3654e-12
7.37314e-12
7.38114e-12
7.38941e-12
7.39797e-12
7.40683e-12
7.41602e-12
7.42555e-12
7.43548e-12
7.44581e-12
7.45658e-12
7.46781e-12
7.47954e-12
7.49193e-12
7.5051e-12
7.51907e-12
7.53374e-12
7.54935e-12
7.56667e-12
7.58659e-12
7.6082e-12
7.62884e-12
7.65352e-12
7.68564e-12
7.72547e-12
7.79424e-12
5.68978e-12
-1.2833e-09
-3.35817e-08
-2.98033e-08
-3.31552e-08
-3.90146e-08
-4.57829e-08
-5.27143e-08
-5.94296e-08
-6.57436e-08
-7.15842e-08
-7.6943e-08
-8.18453e-08
-8.63312e-08
-9.0445e-08
-9.42296e-08
-9.77239e-08
-1.00962e-07
-1.03972e-07
-1.06779e-07
-1.09404e-07
-1.11862e-07
-1.14168e-07
-1.16332e-07
-1.18364e-07
-1.20269e-07
-1.22053e-07
-1.23721e-07
-1.25273e-07
-1.26711e-07
-1.28036e-07
-1.29247e-07
-1.30341e-07
-1.31316e-07
-1.32169e-07
-1.32894e-07
-1.33488e-07
-1.33942e-07
-1.34251e-07
-1.34406e-07
-1.34398e-07
-1.34217e-07
-1.33852e-07
-1.33292e-07
-1.32524e-07
-1.31539e-07
-1.30323e-07
-1.28866e-07
-1.27159e-07
-1.25191e-07
-1.22954e-07
-1.20442e-07
-1.17651e-07
-1.14583e-07
)
;
    }
    inandouthalf22
    {
        type            cyclic;
        value           nonuniform List<scalar> 
100
(
-7.25042e-12
-7.25482e-12
-7.25934e-12
-7.26396e-12
-7.2687e-12
-7.27357e-12
-7.27856e-12
-7.28369e-12
-7.28895e-12
-7.29435e-12
-7.29991e-12
-7.30562e-12
-7.3115e-12
-7.31755e-12
-7.32378e-12
-7.33019e-12
-7.3368e-12
-7.34362e-12
-7.35065e-12
-7.35791e-12
-7.3654e-12
-7.37314e-12
-7.38114e-12
-7.38941e-12
-7.39797e-12
-7.40683e-12
-7.41602e-12
-7.42555e-12
-7.43548e-12
-7.44581e-12
-7.45658e-12
-7.46781e-12
-7.47954e-12
-7.49193e-12
-7.5051e-12
-7.51907e-12
-7.53374e-12
-7.54935e-12
-7.56667e-12
-7.58659e-12
-7.6082e-12
-7.62884e-12
-7.65352e-12
-7.68564e-12
-7.72547e-12
-7.79424e-12
-5.68978e-12
1.2833e-09
3.35817e-08
2.98033e-08
3.31552e-08
3.90146e-08
4.57829e-08
5.27143e-08
5.94296e-08
6.57436e-08
7.15842e-08
7.6943e-08
8.18453e-08
8.63312e-08
9.0445e-08
9.42296e-08
9.77239e-08
1.00962e-07
1.03972e-07
1.06779e-07
1.09404e-07
1.11862e-07
1.14168e-07
1.16332e-07
1.18364e-07
1.20269e-07
1.22053e-07
1.23721e-07
1.25273e-07
1.26711e-07
1.28036e-07
1.29247e-07
1.30341e-07
1.31316e-07
1.32169e-07
1.32894e-07
1.33488e-07
1.33942e-07
1.34251e-07
1.34406e-07
1.34398e-07
1.34217e-07
1.33852e-07
1.33292e-07
1.32524e-07
1.31539e-07
1.30323e-07
1.28866e-07
1.27159e-07
1.25191e-07
1.22954e-07
1.20442e-07
1.17651e-07
1.14583e-07
)
;
    }
    inandouthalf31
    {
        type            cyclic;
        value           nonuniform List<scalar> 
110
(
-1.11242e-07
-1.09786e-07
-1.07881e-07
-1.05513e-07
-1.0268e-07
-9.93954e-08
-9.56906e-08
-9.16147e-08
-8.72337e-08
-8.26271e-08
-7.78821e-08
-7.30862e-08
-6.832e-08
-6.36508e-08
-5.91289e-08
-5.4786e-08
-5.06365e-08
-4.66799e-08
-4.29055e-08
-3.92955e-08
-3.58288e-08
-3.24835e-08
-2.92391e-08
-2.60773e-08
-2.29823e-08
-1.99415e-08
-1.69447e-08
-1.39838e-08
-1.10526e-08
-8.14655e-09
-5.26212e-09
-2.39696e-09
4.50287e-10
3.27983e-09
6.09052e-09
8.87956e-09
1.1642e-08
1.43701e-08
1.70524e-08
1.96727e-08
2.22083e-08
2.4628e-08
2.68886e-08
2.89299e-08
3.06669e-08
3.19768e-08
3.26723e-08
3.24296e-08
3.05781e-08
2.63145e-08
9.74929e-09
9.71242e-10
4.59212e-10
4.58829e-10
4.67953e-10
4.7742e-10
4.87087e-10
4.96955e-10
5.07026e-10
5.17306e-10
5.27796e-10
5.38501e-10
5.49425e-10
5.60572e-10
5.71946e-10
5.83552e-10
5.95394e-10
6.07477e-10
6.19806e-10
6.32385e-10
6.45219e-10
6.58315e-10
6.71676e-10
6.85308e-10
6.99218e-10
7.13409e-10
7.27889e-10
7.42663e-10
7.57736e-10
7.73115e-10
7.88807e-10
8.04817e-10
8.21152e-10
8.37819e-10
8.54824e-10
8.72174e-10
8.89876e-10
9.07937e-10
9.26365e-10
9.45167e-10
9.64351e-10
9.83924e-10
1.00389e-09
1.02427e-09
1.04506e-09
1.06627e-09
1.08791e-09
1.10999e-09
1.13252e-09
1.15551e-09
1.17896e-09
1.20289e-09
1.22731e-09
1.25222e-09
1.27763e-09
1.30356e-09
1.33002e-09
1.35702e-09
1.38456e-09
1.41266e-09
)
;
    }
    inandouthalf32
    {
        type            cyclic;
        value           nonuniform List<scalar> 
110
(
1.11242e-07
1.09786e-07
1.07881e-07
1.05513e-07
1.0268e-07
9.93954e-08
9.56906e-08
9.16147e-08
8.72337e-08
8.26271e-08
7.78821e-08
7.30862e-08
6.832e-08
6.36508e-08
5.91289e-08
5.4786e-08
5.06365e-08
4.66799e-08
4.29055e-08
3.92955e-08
3.58288e-08
3.24835e-08
2.92391e-08
2.60773e-08
2.29823e-08
1.99415e-08
1.69447e-08
1.39838e-08
1.10526e-08
8.14655e-09
5.26212e-09
2.39696e-09
-4.50287e-10
-3.27983e-09
-6.09052e-09
-8.87956e-09
-1.1642e-08
-1.43701e-08
-1.70524e-08
-1.96727e-08
-2.22083e-08
-2.4628e-08
-2.68886e-08
-2.89299e-08
-3.06669e-08
-3.19768e-08
-3.26723e-08
-3.24296e-08
-3.05781e-08
-2.63145e-08
-9.74929e-09
-9.71242e-10
-4.59212e-10
-4.58829e-10
-4.67953e-10
-4.7742e-10
-4.87087e-10
-4.96955e-10
-5.07026e-10
-5.17306e-10
-5.27796e-10
-5.38501e-10
-5.49425e-10
-5.60572e-10
-5.71946e-10
-5.83552e-10
-5.95394e-10
-6.07477e-10
-6.19806e-10
-6.32385e-10
-6.45219e-10
-6.58315e-10
-6.71676e-10
-6.85308e-10
-6.99218e-10
-7.13409e-10
-7.27889e-10
-7.42663e-10
-7.57736e-10
-7.73115e-10
-7.88807e-10
-8.04817e-10
-8.21152e-10
-8.37819e-10
-8.54824e-10
-8.72174e-10
-8.89876e-10
-9.07937e-10
-9.26365e-10
-9.45167e-10
-9.64351e-10
-9.83924e-10
-1.00389e-09
-1.02427e-09
-1.04506e-09
-1.06627e-09
-1.08791e-09
-1.10999e-09
-1.13252e-09
-1.15551e-09
-1.17896e-09
-1.20289e-09
-1.22731e-09
-1.25222e-09
-1.27763e-09
-1.30356e-09
-1.33002e-09
-1.35702e-09
-1.38456e-09
-1.41266e-09
)
;
    }
    inandouthalf41
    {
        type            cyclic;
        value           nonuniform List<scalar> 
50
(
1.26448e-09
1.26448e-09
1.26448e-09
1.26448e-09
1.26448e-09
1.26448e-09
1.26448e-09
1.26448e-09
1.26448e-09
1.26448e-09
1.26448e-09
1.26448e-09
1.26448e-09
1.26448e-09
1.26448e-09
1.26448e-09
1.26448e-09
1.26448e-09
1.26448e-09
1.26448e-09
1.26448e-09
1.26448e-09
1.26448e-09
1.26448e-09
1.26448e-09
1.26448e-09
1.26448e-09
1.26448e-09
1.26448e-09
1.26448e-09
1.26448e-09
1.26448e-09
1.26448e-09
1.26448e-09
1.26448e-09
1.26448e-09
1.26448e-09
1.26448e-09
1.26448e-09
1.26448e-09
1.26448e-09
1.26448e-09
1.26448e-09
1.26448e-09
1.26448e-09
1.26448e-09
1.26448e-09
1.26448e-09
1.26448e-09
1.26448e-09
)
;
    }
    inandouthalf42
    {
        type            cyclic;
        value           nonuniform List<scalar> 
50
(
-1.26448e-09
-1.26448e-09
-1.26448e-09
-1.26448e-09
-1.26448e-09
-1.26448e-09
-1.26448e-09
-1.26448e-09
-1.26448e-09
-1.26448e-09
-1.26448e-09
-1.26448e-09
-1.26448e-09
-1.26448e-09
-1.26448e-09
-1.26448e-09
-1.26448e-09
-1.26448e-09
-1.26448e-09
-1.26448e-09
-1.26448e-09
-1.26448e-09
-1.26448e-09
-1.26448e-09
-1.26448e-09
-1.26448e-09
-1.26448e-09
-1.26448e-09
-1.26448e-09
-1.26448e-09
-1.26448e-09
-1.26448e-09
-1.26448e-09
-1.26448e-09
-1.26448e-09
-1.26448e-09
-1.26448e-09
-1.26448e-09
-1.26448e-09
-1.26448e-09
-1.26448e-09
-1.26448e-09
-1.26448e-09
-1.26448e-09
-1.26448e-09
-1.26448e-09
-1.26448e-09
-1.26448e-09
-1.26448e-09
-1.26448e-09
)
;
    }
    top
    {
        type            symmetryPlane;
        value           uniform 0;
    }
    walls
    {
        type            calculated;
        value           uniform 0;
    }
    frontAndBackPlanes
    {
        type            empty;
        value           nonuniform 0();
    }
}


// ************************************************************************* //
