/*--------------------------------*- C++ -*----------------------------------*\
| =========                 |                                                 |
| \\      /  F ield         | OpenFOAM: The Open Source CFD Toolbox           |
|  \\    /   O peration     | Version:  2.4.x                                 |
|   \\  /    A nd           | Web:      www.OpenFOAM.org                      |
|    \\/     M anipulation  |                                                 |
\*---------------------------------------------------------------------------*/
FoamFile
{
    version     2.0;
    format      ascii;
    class       volScalarField;
    location    "5.35";
    object      ddt0(((1.5*(alpha+1e-08))*rho),Theta);
}
// * * * * * * * * * * * * * * * * * * * * * * * * * * * * * * * * * * * * * //

dimensions      [1 -1 -3 0 0 0 0];

internalField   nonuniform List<scalar> 
360
(
-7.66633e-21
-3.22045e-20
-2.7724e-20
-2.18402e-20
-2.16583e-20
-2.31917e-20
-2.45466e-20
-2.52837e-20
-2.55776e-20
-2.57972e-20
-2.61787e-20
-2.67215e-20
-2.73165e-20
-2.78633e-20
-2.83333e-20
-2.87573e-20
-2.91709e-20
-2.96034e-20
-3.01026e-20
-3.0729e-20
-3.15634e-20
-3.27286e-20
-3.4334e-20
-3.64392e-20
-3.90403e-20
-4.20232e-20
-4.51387e-20
-4.7944e-20
-4.97379e-20
-4.96464e-20
-4.68288e-20
-4.07205e-20
-3.14797e-20
-2.0365e-20
-9.76824e-21
-2.8674e-21
-2.88277e-21
-1.25555e-20
-3.4467e-20
-7.2535e-20
-1.3482e-19
-2.37091e-19
-4.05993e-19
-6.70132e-19
-9.96452e-19
-1.12055e-18
-4.88642e-19
9.20001e-19
1.727e-18
1.15873e-18
3.62209e-19
5.64236e-20
4.78335e-21
2.61801e-22
1.26037e-23
8.35897e-25
8.64376e-26
-3.58755e-27
-2.18728e-26
-2.86543e-26
-3.19681e-26
-3.43095e-26
-3.66029e-26
-3.85016e-26
-4.04873e-26
-4.23423e-26
-4.41878e-26
-4.55284e-26
-4.64673e-26
-4.77802e-26
-4.92484e-26
-4.98151e-26
-5.0776e-26
-5.19392e-26
-5.30317e-26
-5.39632e-26
-5.48206e-26
-5.60728e-26
-5.75625e-26
-5.8979e-26
-6.06058e-26
-6.24494e-26
-6.42453e-26
-6.60394e-26
-6.77995e-26
-6.95281e-26
-7.12453e-26
-7.28751e-26
-7.45715e-26
-7.62285e-26
-7.78991e-26
-7.96758e-26
-8.15953e-26
-8.33868e-26
-8.53041e-26
-8.72144e-26
-8.9176e-26
-9.1147e-26
-9.3094e-26
-9.51325e-26
-9.72551e-26
-9.94517e-26
-1.01623e-25
-1.03946e-25
-1.0633e-25
-1.0873e-25
-1.11246e-25
-1.13919e-25
-1.16621e-25
-1.19443e-25
-1.224e-25
-1.25495e-25
-1.28646e-25
-1.32049e-25
-1.35514e-25
-1.39186e-25
-1.43047e-25
-1.47037e-25
-1.51259e-25
-1.55713e-25
-1.60451e-25
-1.65355e-25
-1.7044e-25
-1.7589e-25
-1.81529e-25
-1.87528e-25
-1.93908e-25
-2.00874e-25
-2.08266e-25
-2.1594e-25
-2.24178e-25
-5.80538e-23
-1.14019e-17
-8.47858e-17
-5.61674e-16
-3.69766e-15
-2.55676e-14
-1.92754e-13
-1.6349e-12
-1.60282e-11
-1.85071e-10
-2.54016e-09
-4.1718e-08
-8.38234e-07
-2.94363e-05
-0.00198049
-0.04733
-0.617653
-1.18364
-0.657507
-0.446364
-0.328022
-0.241392
-0.175258
-0.126085
-0.0904058
-0.0646882
-0.0459905
-0.0321982
-0.0218799
-0.0140907
-0.00819439
-0.00374332
-0.000413199
0.00204361
0.00381461
0.00505021
0.00586691
0.00635885
0.00660002
0.00665009
0.00655584
0.00635475
0.00607671
0.00574508
0.00537855
0.00499185
0.00459669
0.00420206
0.00381505
0.00344095
0.00308372
0.00274598
0.00242932
0.00213442
0.00186146
0.00161047
0.00138166
0.00117555
0.000992682
0.000833171
0.000696339
0.000580799
0.000484509
0.000404604
0.000337726
0.000281018
0.000232761
0.000192116
0.00015845
0.000130829
0.000108002
8.92269e-05
7.38631e-05
6.10208e-05
5.03898e-05
4.17961e-05
3.46329e-05
2.86142e-05
2.37184e-05
1.96618e-05
1.62596e-05
1.34654e-05
1.11143e-05
9.14989e-06
7.55749e-06
6.19094e-06
5.04768e-06
4.1343e-06
3.35798e-06
2.71172e-06
2.18373e-06
1.74626e-06
1.39462e-06
1.09707e-06
8.56485e-07
6.66819e-07
5.08807e-07
3.84688e-07
2.8694e-07
2.102e-07
1.50448e-07
1.03635e-07
6.64172e-08
4.30854e-08
2.32133e-08
0
0
0
0
0
0
0
0
0
0
0
0
0
0
0
0
0
0
0
0
0
0
0
0
0
0
0
0
0
0
0
0
0
0
0
0
0
0
0
0
0
0
0
0
0
0
0
0
0
0
0
0
0
0
0
0
0
0
0
0
0
0
0
0
0
0
0
0
0
0
0
0
0
0
0
0
0
0
0
0
0
0
0
0
0
0
0
0
0
0
0
0
0
0
0
0
0
0
0
0
0
0
0
0
0
0
0
0
0
0
0
0
0
0
0
0
0
0
0
0
0
0
0
0
)
;

boundaryField
{
    inandouthalf11
    {
        type            cyclic;
    }
    inandouthalf12
    {
        type            cyclic;
    }
    inandouthalf21
    {
        type            cyclic;
    }
    inandouthalf22
    {
        type            cyclic;
    }
    inandouthalf31
    {
        type            cyclic;
    }
    inandouthalf32
    {
        type            cyclic;
    }
    inandouthalf41
    {
        type            cyclic;
    }
    inandouthalf42
    {
        type            cyclic;
    }
    top
    {
        type            symmetryPlane;
    }
    walls
    {
        type            calculated;
        value           uniform -7.66633e-21;
    }
    frontAndBackPlanes
    {
        type            empty;
    }
}


// ************************************************************************* //
