/*--------------------------------*- C++ -*----------------------------------*\
| =========                 |                                                 |
| \\      /  F ield         | OpenFOAM: The Open Source CFD Toolbox           |
|  \\    /   O peration     | Version:  2.4.x                                 |
|   \\  /    A nd           | Web:      www.OpenFOAM.org                      |
|    \\/     M anipulation  |                                                 |
\*---------------------------------------------------------------------------*/
FoamFile
{
    version     2.0;
    format      ascii;
    class       volVectorField;
    location    "5.35";
    object      gradPf;
}
// * * * * * * * * * * * * * * * * * * * * * * * * * * * * * * * * * * * * * //

dimensions      [0 1 -2 0 0 0 0];

internalField   nonuniform List<vector> 
360
(
(0 50.686 0)
(0 61.5338 0)
(0 5.49921 0)
(0 -9.56233 0)
(-3.34645e-14 -6.1107 0)
(-3.34658e-14 -3.68706 0)
(-3.3467e-14 -3.62908 0)
(0 -3.7938 0)
(-3.34696e-14 -3.8645 0)
(0 -3.98144 0)
(-3.34723e-14 -4.02076 0)
(0 -4.00554 0)
(-1.67376e-14 -3.98286 0)
(0 -3.9589 0)
(0 -3.9651 0)
(0 -3.98226 0)
(0 -3.98687 0)
(-3.34823e-14 -3.98016 0)
(0 -3.99343 0)
(0 -3.9815 0)
(0 -3.97175 0)
(-3.34883e-14 -3.98821 0)
(0 -3.98423 0)
(0 -3.98831 0)
(0 -3.99429 0)
(-1.67472e-14 -3.9921 0)
(0 -4.01442 0)
(0 -4.04106 0)
(0 -4.04482 0)
(0 -4.05169 0)
(0 -4.07862 0)
(0 -4.05386 0)
(0 -4.04669 0)
(0 -4.0193 0)
(0 -3.9397 0)
(1.67556e-14 -3.87181 0)
(0 -3.79699 0)
(0 -3.7684 0)
(0 -3.69718 0)
(0 -3.71865 0)
(0 -3.84245 0)
(0 -3.97707 0)
(3.35231e-14 -4.31074 0)
(0 -4.77648 0)
(0 -5.31458 0)
(0 -5.87835 0)
(0 -6.10412 0)
(0 -5.78323 0)
(0 -4.90326 0)
(0 -3.62899 0)
(1.67713e-14 -2.57142 0)
(0 -2.0246 0)
(0 -1.84988 0)
(0 -1.85736 0)
(0 -1.96522 0)
(0 -2.07529 0)
(0 -2.17518 0)
(0 -2.30437 0)
(0 -2.3677 0)
(0 -2.4949 0)
(0 -2.58805 0)
(0 -2.64605 0)
(0 -2.71291 0)
(0 -2.74473 0)
(0 -2.78857 0)
(0 -2.84565 0)
(0 -2.92359 0)
(0 -2.9933 0)
(0 -3.05608 0)
(0 -3.15917 0)
(0 -3.27743 0)
(0 -3.32234 0)
(0 -3.38472 0)
(0 -3.45854 0)
(0 -3.50539 0)
(0 -3.53643 0)
(0 -3.55244 0)
(0 -3.59333 0)
(0 -3.63616 0)
(0 -3.67271 0)
(0 -3.71745 0)
(0 -3.7734 0)
(0 -3.82146 0)
(0 -3.86561 0)
(0 -3.90418 0)
(0 -3.93711 0)
(0 -3.96323 0)
(0 -3.98271 0)
(0 -4.00424 0)
(0 -4.02638 0)
(0 -4.0481 0)
(0 -4.07286 0)
(0 -4.09942 0)
(0 -4.12457 0)
(0 -4.14846 0)
(0 -4.17059 0)
(0 -4.19042 0)
(0 -4.20829 0)
(0 -4.225 0)
(0 -4.2408 0)
(0 -4.25583 0)
(0 -4.27047 0)
(0 -4.28458 0)
(0 -4.29789 0)
(0 -4.31042 0)
(0 -4.32216 0)
(0 -4.3331 0)
(0 -4.34332 0)
(0 -4.35282 0)
(0 -4.36157 0)
(0 -4.36951 0)
(0 -4.37654 0)
(0 -4.38255 0)
(0 -4.38744 0)
(0 -4.39109 0)
(0 -4.39338 0)
(0 -4.39419 0)
(0 -4.39343 0)
(0 -4.391 0)
(0 -4.38678 0)
(0 -4.38061 0)
(0 -4.37225 0)
(0 -4.36147 0)
(0 -4.34821 0)
(0 -4.33292 0)
(0 -4.31673 0)
(0 -4.30122 0)
(0 -4.28735 0)
(0 -4.2739 0)
(0 -4.25694 0)
(0 -4.2335 0)
(0 -4.20996 0)
(0 -4.20434 0)
(0 -4.22464 0)
(0 -4.24182 0)
(0 -4.22076 0)
(0 -4.19418 0)
(0 -4.26686 0)
(0 -4.48389 0)
(0 -4.61696 0)
(0 -4.32288 0)
(0 -4.21983 0)
(0 -4.76099 0)
(0 -5.30954 0)
(0 -6.70219 0)
(0 -11.476 0)
(0 -13.0673 0)
(0 -5.95534 0)
(0 0 0)
(0 0 0)
(0 0 0)
(0 0 0)
(0 0 0)
(0 0 0)
(0 0 0)
(0 0 0)
(0 0 0)
(0 0 0)
(0 0 0)
(0 0 0)
(0 0 0)
(0 0 0)
(0 0 0)
(0 0 0)
(0 0 0)
(0 0 0)
(0 0 0)
(0 0 0)
(0 0 0)
(0 0 0)
(0 0 0)
(0 0 0)
(0 0 0)
(0 0 0)
(0 0 0)
(0 0 0)
(0 0 0)
(0 0 0)
(0 0 0)
(0 0 0)
(0 0 0)
(0 0 0)
(0 0 0)
(0 0 0)
(0 0 0)
(0 0 0)
(0 0 0)
(0 0 0)
(0 0 0)
(0 0 0)
(0 0 0)
(0 0 0)
(0 0 0)
(0 0 0)
(0 0 0)
(0 0 0)
(0 0 0)
(0 0 0)
(0 0 0)
(0 0 0)
(0 0 0)
(0 0 0)
(0 0 0)
(0 0 0)
(0 0 0)
(0 0 0)
(0 0 0)
(0 0 0)
(0 0 0)
(0 0 0)
(0 0 0)
(0 0 0)
(0 0 0)
(0 0 0)
(0 0 0)
(0 0 0)
(0 0 0)
(0 0 0)
(0 0 0)
(0 0 0)
(0 0 0)
(0 0 0)
(0 0 0)
(0 0 0)
(0 0 0)
(0 0 0)
(0 0 0)
(0 0 0)
(0 0 0)
(0 0 0)
(0 0 0)
(0 0 0)
(0 0 0)
(0 0 0)
(0 0 0)
(0 0 0)
(0 0 0)
(0 0 0)
(0 0 0)
(0 0 0)
(0 0 0)
(0 0 0)
(0 0 0)
(0 0 0)
(0 0 0)
(0 0 0)
(0 0 0)
(0 0 0)
(0 0 0)
(0 0 0)
(0 0 0)
(0 0 0)
(0 0 0)
(0 0 0)
(0 0 0)
(0 0 0)
(0 0 0)
(0 0 0)
(0 0 0)
(0 0 0)
(0 0 0)
(0 0 0)
(0 0 0)
(0 0 0)
(0 0 0)
(0 0 0)
(0 0 0)
(0 0 0)
(0 0 0)
(0 0 0)
(0 0 0)
(0 0 0)
(0 0 0)
(0 0 0)
(0 0 0)
(0 0 0)
(0 0 0)
(0 0 0)
(0 0 0)
(0 0 0)
(0 0 0)
(0 0 0)
(0 0 0)
(0 0 0)
(0 0 0)
(0 0 0)
(0 0 0)
(0 0 0)
(0 0 0)
(0 0 0)
(0 0 0)
(0 0 0)
(0 0 0)
(0 0 0)
(0 0 0)
(0 0 0)
(0 0 0)
(0 0 0)
(0 0 0)
(0 0 0)
(0 0 0)
(0 0 0)
(0 0 0)
(0 0 0)
(0 0 0)
(0 0 0)
(0 0 0)
(0 0 0)
(0 0 0)
(0 0 0)
(0 0 0)
(0 0 0)
(0 0 0)
(0 0 0)
(0 0 0)
(0 0 0)
(0 0 0)
(0 0 0)
(0 0 0)
(0 0 0)
(0 0 0)
(0 0 0)
(0 0 0)
(0 0 0)
(0 0 0)
(0 0 0)
(0 0 0)
(0 0 0)
(0 0 0)
(0 0 0)
(0 0 0)
(0 0 0)
(0 0 0)
(0 0 0)
(0 0 0)
(0 0 0)
(0 0 0)
(0 0 0)
(0 0 0)
(0 0 0)
(0 0 0)
(0 0 0)
(0 0 0)
(0 0 0)
(0 0 0)
(0 0 0)
(0 0 0)
(0 0 0)
(0 0 0)
(0 0 0)
(0 0 0)
(0 0 0)
(0 0 0)
(0 0 0)
(0 0 0)
(0 0 0)
(0 0 0)
(0 0 0)
(0 0 0)
(0 0 0)
)
;

boundaryField
{
    inandouthalf11
    {
        type            cyclic;
    }
    inandouthalf12
    {
        type            cyclic;
    }
    inandouthalf21
    {
        type            cyclic;
    }
    inandouthalf22
    {
        type            cyclic;
    }
    inandouthalf31
    {
        type            cyclic;
    }
    inandouthalf32
    {
        type            cyclic;
    }
    inandouthalf41
    {
        type            cyclic;
    }
    inandouthalf42
    {
        type            cyclic;
    }
    top
    {
        type            symmetryPlane;
    }
    walls
    {
        type            calculated;
        value           uniform (0 0 0);
    }
    frontAndBackPlanes
    {
        type            empty;
    }
}


// ************************************************************************* //
