/*--------------------------------*- C++ -*----------------------------------*\
| =========                 |                                                 |
| \\      /  F ield         | OpenFOAM: The Open Source CFD Toolbox           |
|  \\    /   O peration     | Version:  2.4.x                                 |
|   \\  /    A nd           | Web:      www.OpenFOAM.org                      |
|    \\/     M anipulation  |                                                 |
\*---------------------------------------------------------------------------*/
FoamFile
{
    version     2.0;
    format      ascii;
    class       volScalarField;
    location    "5.35";
    object      pa;
}
// * * * * * * * * * * * * * * * * * * * * * * * * * * * * * * * * * * * * * //

dimensions      [1 -1 -2 0 0 0 0];

internalField   nonuniform List<scalar> 
360
(
2.89782e-16
2.92549e-16
2.92664e-16
2.92349e-16
2.92236e-16
2.92213e-16
2.92173e-16
2.92114e-16
2.9205e-16
2.91985e-16
2.91921e-16
2.91859e-16
2.91796e-16
2.91733e-16
2.91669e-16
2.91603e-16
2.91537e-16
2.91471e-16
2.91404e-16
2.91335e-16
2.91267e-16
2.91198e-16
2.91129e-16
2.91062e-16
2.90995e-16
2.90931e-16
2.90869e-16
2.90808e-16
2.90749e-16
2.90688e-16
2.90622e-16
2.90546e-16
2.9046e-16
2.90356e-16
2.90237e-16
2.90106e-16
2.89972e-16
2.89845e-16
2.89738e-16
2.89671e-16
2.89661e-16
2.89746e-16
2.89985e-16
2.90469e-16
2.913e-16
2.92413e-16
2.93224e-16
2.92691e-16
2.90673e-16
2.88642e-16
2.87662e-16
2.8739e-16
2.87313e-16
2.87261e-16
2.87211e-16
2.87154e-16
2.87097e-16
2.87034e-16
2.86969e-16
2.86902e-16
2.86829e-16
2.86756e-16
2.86678e-16
2.866e-16
2.86519e-16
2.86437e-16
2.86352e-16
2.86264e-16
2.86173e-16
2.86079e-16
2.8598e-16
2.85878e-16
2.85774e-16
2.85665e-16
2.85554e-16
2.8544e-16
2.85325e-16
2.85207e-16
2.85087e-16
2.84963e-16
2.84837e-16
2.84707e-16
2.84574e-16
2.84437e-16
2.84297e-16
2.84154e-16
2.84008e-16
2.83858e-16
2.83706e-16
2.83551e-16
2.83392e-16
2.8323e-16
2.83065e-16
2.82895e-16
2.82722e-16
2.82545e-16
2.82363e-16
2.82178e-16
2.81989e-16
2.81795e-16
2.81597e-16
2.81394e-16
2.81187e-16
2.80974e-16
2.80757e-16
2.80534e-16
2.80306e-16
2.80072e-16
2.79833e-16
2.79587e-16
2.79335e-16
2.79076e-16
2.78811e-16
2.78538e-16
2.78257e-16
2.77969e-16
2.77673e-16
2.77368e-16
2.77054e-16
2.76731e-16
2.76398e-16
2.76055e-16
2.75701e-16
2.75336e-16
2.74959e-16
2.74571e-16
2.74169e-16
2.73753e-16
2.73321e-16
2.72873e-16
2.72408e-16
2.71926e-16
6.14399e-16
2.84491e-15
1.48233e-14
8.35608e-14
5.16195e-13
3.55144e-12
2.76711e-11
2.48016e-10
2.59247e-09
3.20219e-08
4.74332e-07
8.60215e-06
0.000242685
0.0167079
0.576484
5.26171
4.71056
4.20345
3.39377
2.67386
2.09163
1.6347
1.28113
1.00897
0.799462
0.637594
0.511832
0.413472
0.336
0.274547
0.225466
0.18601
0.154099
0.128144
0.106923
0.0894901
0.0751066
0.0631917
0.0532857
0.0450227
0.0381094
0.0323094
0.0274314
0.0233194
0.0198459
0.0169062
0.0144138
0.0122974
0.0104974
0.00896404
0.00765532
0.00653545
0.00557393
0.00474509
0.00402802
0.00340653
0.00286875
0.00240605
0.00201143
0.0016783
0.00140009
0.00116996
0.000979932
0.000821264
0.000686663
0.000571757
0.000474488
0.000393445
0.000326537
0.000270887
0.000224836
0.000186937
0.000155063
0.000128523
0.000106963
8.88984e-05
7.36421e-05
6.11795e-05
5.08107e-05
4.20814e-05
3.48887e-05
2.88184e-05
2.37337e-05
1.96039e-05
1.60537e-05
1.30799e-05
1.0702e-05
8.6802e-06
6.99696e-06
5.62214e-06
4.48376e-06
3.56958e-06
2.79705e-06
2.17345e-06
1.68287e-06
1.2752e-06
9.56015e-07
7.05681e-07
5.102e-07
3.59082e-07
2.41819e-07
1.4979e-07
9.40712e-08
4.813e-08
0
0
0
0
0
0
0
0
0
0
0
0
0
0
0
0
0
0
0
0
0
0
0
0
0
0
0
0
0
0
0
0
0
0
0
0
0
0
0
0
0
0
0
0
0
0
0
0
0
0
0
0
0
0
0
0
0
0
0
0
0
0
0
0
0
0
0
0
0
0
0
0
0
0
0
0
0
0
0
0
0
0
0
0
0
0
0
0
0
0
0
0
0
0
0
0
0
0
0
0
0
0
0
0
0
0
0
0
0
0
0
0
0
0
0
0
0
0
0
0
0
0
0
0
)
;

boundaryField
{
    inandouthalf11
    {
        type            cyclic;
    }
    inandouthalf12
    {
        type            cyclic;
    }
    inandouthalf21
    {
        type            cyclic;
    }
    inandouthalf22
    {
        type            cyclic;
    }
    inandouthalf31
    {
        type            cyclic;
    }
    inandouthalf32
    {
        type            cyclic;
    }
    inandouthalf41
    {
        type            cyclic;
    }
    inandouthalf42
    {
        type            cyclic;
    }
    top
    {
        type            symmetryPlane;
    }
    walls
    {
        type            calculated;
        value           uniform 2.89782e-16;
    }
    frontAndBackPlanes
    {
        type            empty;
    }
}


// ************************************************************************* //
