/*--------------------------------*- C++ -*----------------------------------*\
| =========                 |                                                 |
| \\      /  F ield         | OpenFOAM: The Open Source CFD Toolbox           |
|  \\    /   O peration     | Version:  2.4.x                                 |
|   \\  /    A nd           | Web:      www.OpenFOAM.org                      |
|    \\/     M anipulation  |                                                 |
\*---------------------------------------------------------------------------*/
FoamFile
{
    version     2.0;
    format      ascii;
    class       surfaceScalarField;
    location    "5.35";
    object      phia_0;
}
// * * * * * * * * * * * * * * * * * * * * * * * * * * * * * * * * * * * * * //

dimensions      [0 3 -1 0 0 0 0];

internalField   nonuniform List<scalar> 
359
(
-4.79439e-13
-1.28237e-12
-2.02177e-12
-2.70887e-12
-3.40232e-12
-4.11436e-12
-4.83752e-12
-5.56531e-12
-6.29519e-12
-7.0281e-12
-7.76564e-12
-8.50854e-12
-9.25694e-12
-1.00104e-11
-1.07684e-11
-1.15311e-11
-1.22984e-11
-1.30704e-11
-1.38468e-11
-1.46278e-11
-1.5413e-11
-1.62029e-11
-1.69978e-11
-1.77982e-11
-1.86051e-11
-1.94195e-11
-2.02424e-11
-2.10751e-11
-2.19182e-11
-2.27713e-11
-2.36326e-11
-2.44996e-11
-2.53668e-11
-2.62291e-11
-2.70796e-11
-2.79133e-11
-2.87278e-11
-2.95256e-11
-3.03154e-11
-3.11121e-11
-3.19415e-11
-3.28389e-11
-3.38526e-11
-3.50449e-11
-3.6477e-11
-3.81732e-11
-4.00492e-11
-4.18603e-11
-4.32911e-11
-4.41679e-11
-4.45709e-11
-4.47096e-11
-4.47464e-11
-4.47545e-11
-4.47561e-11
-4.47565e-11
-4.47566e-11
-4.47566e-11
-4.47567e-11
-4.47567e-11
-4.47567e-11
-4.47567e-11
-4.47567e-11
-4.47567e-11
-4.47567e-11
-4.47567e-11
-4.47568e-11
-4.47568e-11
-4.47568e-11
-4.47568e-11
-4.47569e-11
-4.47569e-11
-4.47569e-11
-4.4757e-11
-4.4757e-11
-4.4757e-11
-4.47571e-11
-4.47571e-11
-4.47571e-11
-4.47572e-11
-4.47572e-11
-4.47572e-11
-4.47572e-11
-4.47573e-11
-4.47573e-11
-4.47573e-11
-4.47574e-11
-4.47574e-11
-4.47574e-11
-4.47575e-11
-4.47575e-11
-4.47576e-11
-4.47576e-11
-4.47576e-11
-4.47577e-11
-4.47577e-11
-4.47578e-11
-4.47578e-11
-4.47578e-11
-4.47579e-11
-4.47579e-11
-4.4758e-11
-4.4758e-11
-4.47581e-11
-4.47581e-11
-4.47581e-11
-4.47582e-11
-4.47582e-11
-4.47583e-11
-4.47583e-11
-4.47584e-11
-4.47584e-11
-4.47584e-11
-4.47585e-11
-4.47585e-11
-4.47586e-11
-4.47586e-11
-4.47587e-11
-4.47587e-11
-4.47588e-11
-4.47588e-11
-4.47588e-11
-4.47589e-11
-4.47589e-11
-4.4759e-11
-4.4759e-11
-4.47591e-11
-4.47591e-11
-4.47591e-11
-4.47592e-11
-4.47592e-11
-4.47593e-11
-4.47593e-11
-4.47593e-11
-4.47593e-11
-4.47594e-11
-4.47594e-11
-4.47594e-11
-4.47594e-11
-4.47594e-11
-4.47595e-11
-4.47595e-11
-4.47595e-11
-4.47595e-11
-4.47595e-11
-4.47595e-11
-4.48826e-11
-7.96578e-10
-1.37881e-09
-1.80555e-09
-2.06032e-09
-2.23764e-09
-2.35274e-09
-2.40856e-09
-2.40474e-09
-2.34109e-09
-2.21826e-09
-2.03784e-09
-1.80201e-09
-1.5134e-09
-1.17472e-09
-7.88721e-10
-3.58006e-10
1.14983e-10
6.2799e-10
1.17896e-09
1.76603e-09
2.38747e-09
3.0417e-09
3.72723e-09
4.44265e-09
5.18659e-09
5.9577e-09
6.75461e-09
7.57592e-09
8.42016e-09
9.28574e-09
1.0171e-08
1.1074e-08
1.19926e-08
1.29244e-08
1.3866e-08
1.48122e-08
1.57553e-08
1.66834e-08
1.75801e-08
1.84261e-08
1.92011e-08
1.98884e-08
2.0478e-08
2.09685e-08
2.13664e-08
2.16841e-08
2.19385e-08
2.21454e-08
2.23138e-08
2.24454e-08
2.25394e-08
2.2597e-08
2.26227e-08
2.26222e-08
2.25992e-08
2.25588e-08
2.25072e-08
2.24447e-08
2.23727e-08
2.22971e-08
2.22181e-08
2.21342e-08
2.2049e-08
2.19629e-08
2.18745e-08
2.17861e-08
2.16961e-08
2.16029e-08
2.15105e-08
2.14143e-08
2.13121e-08
2.12091e-08
2.11008e-08
2.09858e-08
2.08652e-08
2.07355e-08
2.06011e-08
2.04541e-08
2.02932e-08
2.01231e-08
1.99323e-08
1.9722e-08
1.94888e-08
1.92276e-08
1.89307e-08
1.8587e-08
1.81307e-08
1.76838e-08
1.66998e-08
1.74695e-09
7.44556e-09
-3.59358e-08
-1.40682e-07
-1.58478e-07
-1.58398e-07
-1.58412e-07
-1.58416e-07
-1.58417e-07
-1.58415e-07
-1.58408e-07
-1.58393e-07
-1.58366e-07
-1.58294e-07
-1.58212e-07
-1.582e-07
-1.582e-07
-1.582e-07
-1.582e-07
-1.582e-07
-1.582e-07
-1.582e-07
-1.582e-07
-1.582e-07
-1.582e-07
-1.582e-07
-1.582e-07
-1.582e-07
-1.582e-07
-1.582e-07
-1.582e-07
-1.582e-07
-1.582e-07
-1.582e-07
-1.582e-07
-1.582e-07
-1.582e-07
-1.582e-07
-1.582e-07
-1.582e-07
-1.582e-07
-1.582e-07
-1.582e-07
-1.582e-07
-1.582e-07
-1.582e-07
-1.582e-07
-1.582e-07
-1.582e-07
-1.582e-07
-1.582e-07
-1.582e-07
-1.582e-07
-1.582e-07
-1.582e-07
-1.582e-07
-1.582e-07
-1.582e-07
-1.582e-07
-1.582e-07
-1.582e-07
-1.582e-07
-1.582e-07
-1.582e-07
-1.582e-07
-1.582e-07
-1.582e-07
-1.582e-07
-1.582e-07
-1.582e-07
-1.582e-07
-1.582e-07
-1.582e-07
-1.582e-07
-1.582e-07
-1.582e-07
-1.582e-07
-1.582e-07
-1.582e-07
-1.582e-07
-1.582e-07
-1.582e-07
-1.582e-07
-1.582e-07
-1.582e-07
-1.582e-07
-1.582e-07
-1.582e-07
-1.582e-07
-1.582e-07
-1.582e-07
-1.582e-07
-1.582e-07
-1.582e-07
-1.582e-07
-1.582e-07
-1.582e-07
-1.582e-07
-1.582e-07
-1.582e-07
-1.582e-07
-1.582e-07
-1.582e-07
-1.582e-07
-1.582e-07
-1.582e-07
-1.582e-07
-1.582e-07
-1.582e-07
-1.582e-07
-1.582e-07
-1.582e-07
-1.582e-07
-1.582e-07
-1.582e-07
-1.582e-07
-1.582e-07
-1.582e-07
-1.582e-07
-1.582e-07
-1.58183e-07
-1.57477e-07
-1.32391e-07
)
;

boundaryField
{
    inandouthalf11
    {
        type            cyclic;
        value           nonuniform List<scalar> 
100
(
1.01621e-38
3.59842e-14
7.79798e-14
1.15284e-13
1.52065e-13
1.90263e-13
2.29597e-13
2.69587e-13
3.10026e-13
3.50891e-13
3.92259e-13
4.34208e-13
4.76769e-13
5.19939e-13
5.63699e-13
6.08046e-13
6.52988e-13
6.98531e-13
7.44682e-13
7.91445e-13
8.38822e-13
8.86822e-13
9.35476e-13
9.84825e-13
1.03492e-12
1.08584e-12
1.13765e-12
1.19046e-12
1.24432e-12
1.29926e-12
1.35525e-12
1.41213e-12
1.46968e-12
1.52753e-12
1.58529e-12
1.64253e-12
1.699e-12
1.75467e-12
1.80991e-12
1.86556e-12
1.92302e-12
1.98445e-12
2.05287e-12
2.13233e-12
2.22765e-12
2.34272e-12
2.47641e-12
2.61655e-12
2.7397e-12
2.82439e-12
2.86779e-12
2.88411e-12
2.88872e-12
2.88978e-12
2.89e-12
2.89005e-12
2.89007e-12
2.89007e-12
2.89007e-12
2.89007e-12
2.89007e-12
2.89007e-12
2.89008e-12
2.89008e-12
2.89008e-12
2.89008e-12
2.89008e-12
2.89008e-12
2.89009e-12
2.89009e-12
2.89009e-12
2.89009e-12
2.8901e-12
2.8901e-12
2.8901e-12
2.89011e-12
2.89011e-12
2.89011e-12
2.89012e-12
2.89012e-12
2.89012e-12
2.89012e-12
2.89013e-12
2.89013e-12
2.89013e-12
2.89014e-12
2.89014e-12
2.89015e-12
2.89015e-12
2.89015e-12
2.89016e-12
2.89016e-12
2.89017e-12
2.89017e-12
2.89017e-12
2.89018e-12
2.89018e-12
2.89019e-12
2.89019e-12
2.8902e-12
)
;
    }
    inandouthalf12
    {
        type            cyclic;
        value           nonuniform List<scalar> 
100
(
-1.01621e-38
-3.59842e-14
-7.79798e-14
-1.15284e-13
-1.52065e-13
-1.90263e-13
-2.29597e-13
-2.69587e-13
-3.10026e-13
-3.50891e-13
-3.92259e-13
-4.34208e-13
-4.76769e-13
-5.19939e-13
-5.63699e-13
-6.08046e-13
-6.52988e-13
-6.98531e-13
-7.44682e-13
-7.91445e-13
-8.38822e-13
-8.86822e-13
-9.35476e-13
-9.84825e-13
-1.03492e-12
-1.08584e-12
-1.13765e-12
-1.19046e-12
-1.24432e-12
-1.29926e-12
-1.35525e-12
-1.41213e-12
-1.46968e-12
-1.52753e-12
-1.58529e-12
-1.64253e-12
-1.699e-12
-1.75467e-12
-1.80991e-12
-1.86556e-12
-1.92302e-12
-1.98445e-12
-2.05287e-12
-2.13233e-12
-2.22765e-12
-2.34272e-12
-2.47641e-12
-2.61655e-12
-2.7397e-12
-2.82439e-12
-2.86779e-12
-2.88411e-12
-2.88872e-12
-2.88978e-12
-2.89e-12
-2.89005e-12
-2.89007e-12
-2.89007e-12
-2.89007e-12
-2.89007e-12
-2.89007e-12
-2.89007e-12
-2.89008e-12
-2.89008e-12
-2.89008e-12
-2.89008e-12
-2.89008e-12
-2.89008e-12
-2.89009e-12
-2.89009e-12
-2.89009e-12
-2.89009e-12
-2.8901e-12
-2.8901e-12
-2.8901e-12
-2.89011e-12
-2.89011e-12
-2.89011e-12
-2.89012e-12
-2.89012e-12
-2.89012e-12
-2.89012e-12
-2.89013e-12
-2.89013e-12
-2.89013e-12
-2.89014e-12
-2.89014e-12
-2.89015e-12
-2.89015e-12
-2.89015e-12
-2.89016e-12
-2.89016e-12
-2.89017e-12
-2.89017e-12
-2.89017e-12
-2.89018e-12
-2.89018e-12
-2.89019e-12
-2.89019e-12
-2.8902e-12
)
;
    }
    inandouthalf21
    {
        type            cyclic;
        value           nonuniform List<scalar> 
100
(
2.8902e-12
2.89021e-12
2.89021e-12
2.89022e-12
2.89023e-12
2.89023e-12
2.89024e-12
2.89024e-12
2.89025e-12
2.89025e-12
2.89026e-12
2.89027e-12
2.89027e-12
2.89028e-12
2.89028e-12
2.89029e-12
2.8903e-12
2.8903e-12
2.89031e-12
2.89032e-12
2.89032e-12
2.89033e-12
2.89034e-12
2.89035e-12
2.89035e-12
2.89036e-12
2.89037e-12
2.89038e-12
2.89038e-12
2.89039e-12
2.8904e-12
2.89041e-12
2.89042e-12
2.89042e-12
2.89043e-12
2.89044e-12
2.89045e-12
2.89045e-12
2.89046e-12
2.89046e-12
2.89047e-12
2.89048e-12
2.89048e-12
2.89048e-12
2.89048e-12
2.89048e-12
2.89048e-12
3.55506e-12
7.46151e-08
1.72006e-07
2.48252e-07
3.09641e-07
3.60348e-07
4.03083e-07
4.39684e-07
4.71472e-07
4.99422e-07
5.24274e-07
5.46593e-07
5.66813e-07
5.85274e-07
6.02241e-07
6.17925e-07
6.32494e-07
6.46083e-07
6.58803e-07
6.70742e-07
6.81975e-07
6.92564e-07
7.02559e-07
7.12004e-07
7.20934e-07
7.2938e-07
7.37368e-07
7.44921e-07
7.52058e-07
7.58795e-07
7.65148e-07
7.7113e-07
7.76753e-07
7.82028e-07
7.86965e-07
7.91574e-07
7.95866e-07
7.9985e-07
8.03537e-07
8.06938e-07
8.10066e-07
8.12935e-07
8.15559e-07
8.17955e-07
8.20139e-07
8.22128e-07
8.23937e-07
8.25581e-07
8.27074e-07
8.28428e-07
8.29658e-07
8.30777e-07
8.31798e-07
)
;
    }
    inandouthalf22
    {
        type            cyclic;
        value           nonuniform List<scalar> 
100
(
-2.8902e-12
-2.89021e-12
-2.89021e-12
-2.89022e-12
-2.89023e-12
-2.89023e-12
-2.89024e-12
-2.89024e-12
-2.89025e-12
-2.89025e-12
-2.89026e-12
-2.89027e-12
-2.89027e-12
-2.89028e-12
-2.89028e-12
-2.89029e-12
-2.8903e-12
-2.8903e-12
-2.89031e-12
-2.89032e-12
-2.89032e-12
-2.89033e-12
-2.89034e-12
-2.89035e-12
-2.89035e-12
-2.89036e-12
-2.89037e-12
-2.89038e-12
-2.89038e-12
-2.89039e-12
-2.8904e-12
-2.89041e-12
-2.89042e-12
-2.89042e-12
-2.89043e-12
-2.89044e-12
-2.89045e-12
-2.89045e-12
-2.89046e-12
-2.89046e-12
-2.89047e-12
-2.89048e-12
-2.89048e-12
-2.89048e-12
-2.89048e-12
-2.89048e-12
-2.89048e-12
-3.55506e-12
-7.46151e-08
-1.72006e-07
-2.48252e-07
-3.09641e-07
-3.60348e-07
-4.03083e-07
-4.39684e-07
-4.71472e-07
-4.99422e-07
-5.24274e-07
-5.46593e-07
-5.66813e-07
-5.85274e-07
-6.02241e-07
-6.17925e-07
-6.32494e-07
-6.46083e-07
-6.58803e-07
-6.70742e-07
-6.81975e-07
-6.92564e-07
-7.02559e-07
-7.12004e-07
-7.20934e-07
-7.2938e-07
-7.37368e-07
-7.44921e-07
-7.52058e-07
-7.58795e-07
-7.65148e-07
-7.7113e-07
-7.76753e-07
-7.82028e-07
-7.86965e-07
-7.91574e-07
-7.95866e-07
-7.9985e-07
-8.03537e-07
-8.06938e-07
-8.10066e-07
-8.12935e-07
-8.15559e-07
-8.17955e-07
-8.20139e-07
-8.22128e-07
-8.23937e-07
-8.25581e-07
-8.27074e-07
-8.28428e-07
-8.29658e-07
-8.30777e-07
-8.31798e-07
)
;
    }
    inandouthalf31
    {
        type            cyclic;
        value           nonuniform List<scalar> 
110
(
8.32734e-07
8.5052e-07
8.68631e-07
8.87075e-07
9.05865e-07
9.25011e-07
9.44522e-07
9.6441e-07
9.84686e-07
1.00536e-06
1.02644e-06
1.04795e-06
1.06988e-06
1.09225e-06
1.11508e-06
1.13837e-06
1.16213e-06
1.18638e-06
1.21112e-06
1.23638e-06
1.26215e-06
1.28845e-06
1.31529e-06
1.34268e-06
1.37064e-06
1.39917e-06
1.42829e-06
1.458e-06
1.48833e-06
1.51927e-06
1.55085e-06
1.58306e-06
1.61593e-06
1.64946e-06
1.68366e-06
1.7185e-06
1.75421e-06
1.90772e-06
1.94222e-06
1.97613e-06
2.01194e-06
2.04728e-06
2.08383e-06
2.12096e-06
2.1588e-06
2.19741e-06
2.23688e-06
2.27734e-06
2.31898e-06
2.36213e-06
2.40811e-06
2.45664e-06
2.50649e-06
2.55737e-06
2.60927e-06
2.66223e-06
2.71627e-06
2.7714e-06
2.82765e-06
2.88505e-06
2.94361e-06
3.00335e-06
3.06431e-06
3.12651e-06
3.18997e-06
3.25472e-06
3.32078e-06
3.38818e-06
3.45695e-06
3.52712e-06
3.59871e-06
3.67175e-06
3.74628e-06
3.82232e-06
3.8999e-06
3.97906e-06
4.05983e-06
4.14223e-06
4.22631e-06
4.31209e-06
4.39961e-06
4.48891e-06
4.58003e-06
4.67299e-06
4.76784e-06
4.86461e-06
4.96335e-06
5.06409e-06
5.16688e-06
5.27175e-06
5.37876e-06
5.48793e-06
5.59932e-06
5.71297e-06
5.82893e-06
5.94724e-06
6.06796e-06
6.19112e-06
6.31678e-06
6.445e-06
6.57581e-06
6.70928e-06
6.84547e-06
6.98441e-06
7.12618e-06
7.27082e-06
7.4184e-06
7.56897e-06
7.7226e-06
7.87935e-06
)
;
    }
    inandouthalf32
    {
        type            cyclic;
        value           nonuniform List<scalar> 
110
(
-8.32734e-07
-8.5052e-07
-8.68631e-07
-8.87075e-07
-9.05865e-07
-9.25011e-07
-9.44522e-07
-9.6441e-07
-9.84686e-07
-1.00536e-06
-1.02644e-06
-1.04795e-06
-1.06988e-06
-1.09225e-06
-1.11508e-06
-1.13837e-06
-1.16213e-06
-1.18638e-06
-1.21112e-06
-1.23638e-06
-1.26215e-06
-1.28845e-06
-1.31529e-06
-1.34268e-06
-1.37064e-06
-1.39917e-06
-1.42829e-06
-1.458e-06
-1.48833e-06
-1.51927e-06
-1.55085e-06
-1.58306e-06
-1.61593e-06
-1.64946e-06
-1.68366e-06
-1.7185e-06
-1.75421e-06
-1.90772e-06
-1.94222e-06
-1.97613e-06
-2.01194e-06
-2.04728e-06
-2.08383e-06
-2.12096e-06
-2.1588e-06
-2.19741e-06
-2.23688e-06
-2.27734e-06
-2.31898e-06
-2.36213e-06
-2.40811e-06
-2.45664e-06
-2.50649e-06
-2.55737e-06
-2.60927e-06
-2.66223e-06
-2.71627e-06
-2.7714e-06
-2.82765e-06
-2.88505e-06
-2.94361e-06
-3.00335e-06
-3.06431e-06
-3.12651e-06
-3.18997e-06
-3.25472e-06
-3.32078e-06
-3.38818e-06
-3.45695e-06
-3.52712e-06
-3.59871e-06
-3.67175e-06
-3.74628e-06
-3.82232e-06
-3.8999e-06
-3.97906e-06
-4.05983e-06
-4.14223e-06
-4.22631e-06
-4.31209e-06
-4.39961e-06
-4.48891e-06
-4.58003e-06
-4.67299e-06
-4.76784e-06
-4.86461e-06
-4.96335e-06
-5.06409e-06
-5.16688e-06
-5.27175e-06
-5.37876e-06
-5.48793e-06
-5.59932e-06
-5.71297e-06
-5.82893e-06
-5.94724e-06
-6.06796e-06
-6.19112e-06
-6.31678e-06
-6.445e-06
-6.57581e-06
-6.70928e-06
-6.84547e-06
-6.98441e-06
-7.12618e-06
-7.27082e-06
-7.4184e-06
-7.56897e-06
-7.7226e-06
-7.87935e-06
)
;
    }
    inandouthalf41
    {
        type            cyclic;
        value           nonuniform List<scalar> 
50
(
7.05282e-06
7.05282e-06
7.05282e-06
7.05282e-06
7.05282e-06
7.05282e-06
7.05282e-06
7.05282e-06
7.05282e-06
7.05282e-06
7.05282e-06
7.05282e-06
7.05282e-06
7.05282e-06
7.05282e-06
7.05282e-06
7.05282e-06
7.05282e-06
7.05282e-06
7.05282e-06
7.05282e-06
7.05282e-06
7.05282e-06
7.05282e-06
7.05282e-06
7.05282e-06
7.05282e-06
7.05282e-06
7.05282e-06
7.05282e-06
7.05282e-06
7.05282e-06
7.05282e-06
7.05282e-06
7.05282e-06
7.05282e-06
7.05282e-06
7.05282e-06
7.05282e-06
7.05282e-06
7.05282e-06
7.05282e-06
7.05282e-06
7.05282e-06
7.05282e-06
7.05282e-06
7.05282e-06
7.05282e-06
7.05282e-06
7.05282e-06
)
;
    }
    inandouthalf42
    {
        type            cyclic;
        value           nonuniform List<scalar> 
50
(
-7.05282e-06
-7.05282e-06
-7.05282e-06
-7.05282e-06
-7.05282e-06
-7.05282e-06
-7.05282e-06
-7.05282e-06
-7.05282e-06
-7.05282e-06
-7.05282e-06
-7.05282e-06
-7.05282e-06
-7.05282e-06
-7.05282e-06
-7.05282e-06
-7.05282e-06
-7.05282e-06
-7.05282e-06
-7.05282e-06
-7.05282e-06
-7.05282e-06
-7.05282e-06
-7.05282e-06
-7.05282e-06
-7.05282e-06
-7.05282e-06
-7.05282e-06
-7.05282e-06
-7.05282e-06
-7.05282e-06
-7.05282e-06
-7.05282e-06
-7.05282e-06
-7.05282e-06
-7.05282e-06
-7.05282e-06
-7.05282e-06
-7.05282e-06
-7.05282e-06
-7.05282e-06
-7.05282e-06
-7.05282e-06
-7.05282e-06
-7.05282e-06
-7.05282e-06
-7.05282e-06
-7.05282e-06
-7.05282e-06
-7.05282e-06
)
;
    }
    top
    {
        type            symmetryPlane;
        value           uniform 0;
    }
    walls
    {
        type            fixedValue;
        value           uniform 0;
    }
    frontAndBackPlanes
    {
        type            empty;
        value           nonuniform 0();
    }
}


// ************************************************************************* //
