/*--------------------------------*- C++ -*----------------------------------*\
| =========                 |                                                 |
| \\      /  F ield         | OpenFOAM: The Open Source CFD Toolbox           |
|  \\    /   O peration     | Version:  2.4.x                                 |
|   \\  /    A nd           | Web:      www.OpenFOAM.org                      |
|    \\/     M anipulation  |                                                 |
\*---------------------------------------------------------------------------*/
FoamFile
{
    version     2.0;
    format      ascii;
    class       surfaceScalarField;
    location    "5.35";
    object      phib_0;
}
// * * * * * * * * * * * * * * * * * * * * * * * * * * * * * * * * * * * * * //

dimensions      [0 3 -1 0 0 0 0];

internalField   nonuniform List<scalar> 
359
(
7.52811e-13
2.01703e-12
3.18048e-12
4.26035e-12
5.35013e-12
6.46919e-12
7.60552e-12
8.74888e-12
9.89527e-12
1.10461e-11
1.2204e-11
1.33701e-11
1.45445e-11
1.57266e-11
1.69157e-11
1.81117e-11
1.93148e-11
2.05248e-11
2.17416e-11
2.29653e-11
2.41953e-11
2.54322e-11
2.66767e-11
2.79296e-11
2.91923e-11
3.04664e-11
3.17536e-11
3.30558e-11
3.43738e-11
3.57071e-11
3.7053e-11
3.84073e-11
3.97616e-11
4.11079e-11
4.24353e-11
4.37362e-11
4.50066e-11
4.62506e-11
4.74818e-11
4.87235e-11
5.00157e-11
5.14138e-11
5.29927e-11
5.48497e-11
5.70802e-11
5.97215e-11
6.26422e-11
6.54606e-11
6.76853e-11
6.90464e-11
6.96695e-11
6.98807e-11
6.9933e-11
6.99404e-11
6.99375e-11
6.99322e-11
6.99262e-11
6.99197e-11
6.99129e-11
6.99057e-11
6.98981e-11
6.98904e-11
6.98823e-11
6.98742e-11
6.98658e-11
6.98572e-11
6.98483e-11
6.98391e-11
6.98296e-11
6.98197e-11
6.98093e-11
6.97987e-11
6.97877e-11
6.97764e-11
6.97648e-11
6.9753e-11
6.9741e-11
6.97287e-11
6.97161e-11
6.97032e-11
6.969e-11
6.96764e-11
6.96625e-11
6.96482e-11
6.96336e-11
6.96186e-11
6.96033e-11
6.95877e-11
6.95718e-11
6.95555e-11
6.95389e-11
6.95219e-11
6.95045e-11
6.94868e-11
6.94686e-11
6.945e-11
6.94309e-11
6.94115e-11
6.93915e-11
6.93712e-11
6.93503e-11
6.93289e-11
6.93071e-11
6.92847e-11
6.92618e-11
6.92382e-11
6.92141e-11
6.91894e-11
6.9164e-11
6.9138e-11
6.91113e-11
6.90838e-11
6.90556e-11
6.90266e-11
6.89967e-11
6.8966e-11
6.89344e-11
6.89018e-11
6.88683e-11
6.88337e-11
6.87981e-11
6.87613e-11
6.87233e-11
6.86841e-11
6.86436e-11
6.86018e-11
6.85584e-11
6.85134e-11
6.84667e-11
6.84181e-11
6.83675e-11
6.83149e-11
6.82598e-11
6.82015e-11
6.81398e-11
6.80749e-11
6.80064e-11
6.79323e-11
6.78487e-11
6.77558e-11
6.76618e-11
6.75614e-11
6.74362e-11
6.72787e-11
6.70386e-11
6.63921e-11
6.02127e-11
6.13342e-10
5.21598e-10
4.70423e-10
4.12974e-10
3.51273e-10
2.90309e-10
2.33758e-10
1.83846e-10
1.41449e-10
1.06445e-10
7.81327e-11
5.55731e-11
3.77986e-11
2.39226e-11
1.31813e-11
4.94008e-12
-1.31752e-12
-6.00661e-12
-9.45865e-12
-1.19372e-11
-1.36513e-11
-1.47669e-11
-1.54157e-11
-1.5702e-11
-1.57087e-11
-1.55017e-11
-1.51332e-11
-1.46447e-11
-1.40691e-11
-1.34325e-11
-1.27553e-11
-1.20538e-11
-1.13405e-11
-1.0625e-11
-9.91381e-12
-9.21026e-12
-8.51467e-12
-7.82506e-12
-7.13894e-12
-6.45596e-12
-5.7803e-12
-5.12159e-12
-4.49318e-12
-3.90864e-12
-3.37886e-12
-2.9103e-12
-2.50324e-12
-2.15097e-12
-1.8431e-12
-1.5713e-12
-1.33204e-12
-1.12475e-12
-9.4825e-13
-7.99436e-13
-6.72851e-13
-5.66652e-13
-4.7709e-13
-4.00995e-13
-3.37529e-13
-2.84667e-13
-2.39646e-13
-2.01726e-13
-1.70159e-13
-1.43432e-13
-1.20866e-13
-1.01836e-13
-8.55959e-14
-7.19982e-14
-6.05024e-14
-5.05506e-14
-4.22547e-14
-3.53246e-14
-2.93595e-14
-2.43319e-14
-2.01088e-14
-1.6579e-14
-1.36022e-14
-1.10586e-14
-8.971e-15
-7.23115e-15
-5.76559e-15
-4.573e-15
-3.59797e-15
-2.80143e-15
-2.14622e-15
-1.58981e-15
-1.17766e-15
-8.86338e-16
-8.03399e-16
-8.38025e-17
-1.68248e-16
1.53645e-16
-6.89142e-18
-6.71227e-18
-6.55331e-18
-6.36702e-18
-6.2006e-18
-6.00678e-18
-5.83119e-18
-5.63148e-18
-5.4519e-18
-5.24615e-18
-5.05645e-18
-4.86294e-18
-4.6664e-18
-4.44854e-18
-4.24306e-18
-4.01969e-18
-3.80812e-18
-3.58321e-18
-3.36852e-18
-3.14317e-18
-2.92803e-18
-2.70651e-18
-2.49792e-18
-2.28967e-18
-2.10166e-18
-1.92779e-18
-1.77362e-18
-1.66073e-18
-1.52571e-18
-1.4e-18
-1.28137e-18
-1.16639e-18
-1.05764e-18
-9.57616e-19
-8.63017e-19
-7.72786e-19
-6.87304e-19
-6.04235e-19
-5.26309e-19
-4.5137e-19
-3.81624e-19
-3.04029e-19
-2.36424e-19
-1.73358e-19
-1.24594e-19
-6.94658e-20
-3.40137e-20
6.79115e-22
1.2885e-20
5.12339e-20
6.84045e-20
8.3671e-20
7.2978e-20
7.79245e-20
6.11493e-20
4.54809e-20
1.95545e-20
9.82318e-20
1.14246e-19
1.34807e-19
2.11794e-19
2.33348e-19
2.41439e-19
2.50761e-19
2.47862e-19
2.65726e-19
2.71635e-19
2.78599e-19
2.7108e-19
2.75012e-19
2.65891e-19
2.58156e-19
2.43534e-19
2.44498e-19
2.40772e-19
2.38182e-19
2.29936e-19
2.26033e-19
2.18424e-19
2.11332e-19
2.01301e-19
1.95605e-19
1.88596e-19
1.81808e-19
1.74292e-19
1.69375e-19
1.64193e-19
1.61243e-19
1.62484e-19
1.90777e-19
2.2359e-19
2.59172e-19
2.94847e-19
3.33407e-19
3.70763e-19
4.09098e-19
4.42855e-19
4.91023e-19
5.29602e-19
5.68602e-19
5.91724e-19
6.34639e-19
6.47942e-19
6.65644e-19
6.439e-19
7.29059e-19
7.47612e-19
7.67946e-19
6.79076e-19
6.94186e-19
5.4094e-19
3.79995e-19
-1.01024e-19
-5.87025e-20
-4.42817e-19
-8.7209e-19
-1.99511e-18
-2.38441e-18
-4.13734e-18
-7.12182e-18
)
;

boundaryField
{
    inandouthalf11
    {
        type            cyclic;
        value           nonuniform List<scalar> 
100
(
3.20781e-14
6.79151e-14
1.09872e-13
1.47199e-13
1.83997e-13
2.22204e-13
2.61547e-13
3.01546e-13
3.41994e-13
3.8287e-13
4.24248e-13
4.66207e-13
5.08778e-13
5.51958e-13
5.95729e-13
6.40087e-13
6.85039e-13
7.30594e-13
7.76756e-13
8.2353e-13
8.70918e-13
9.18931e-13
9.67597e-13
1.01696e-12
1.06707e-12
1.118e-12
1.16983e-12
1.22264e-12
1.27652e-12
1.33148e-12
1.38748e-12
1.44438e-12
1.50193e-12
1.5598e-12
1.61757e-12
1.67482e-12
1.73129e-12
1.78698e-12
1.84223e-12
1.8979e-12
1.95538e-12
2.01685e-12
2.08532e-12
2.16485e-12
2.26025e-12
2.37542e-12
2.50916e-12
2.64929e-12
2.77231e-12
2.85686e-12
2.90015e-12
2.91642e-12
2.92102e-12
2.92208e-12
2.92231e-12
2.92236e-12
2.92238e-12
2.92239e-12
2.9224e-12
2.9224e-12
2.92241e-12
2.92242e-12
2.92243e-12
2.92243e-12
2.92244e-12
2.92245e-12
2.92246e-12
2.92247e-12
2.92248e-12
2.92249e-12
2.92251e-12
2.92252e-12
2.92253e-12
2.92254e-12
2.92256e-12
2.92257e-12
2.92258e-12
2.9226e-12
2.92261e-12
2.92263e-12
2.92264e-12
2.92266e-12
2.92267e-12
2.92269e-12
2.9227e-12
2.92272e-12
2.92274e-12
2.92275e-12
2.92277e-12
2.92279e-12
2.92281e-12
2.92283e-12
2.92285e-12
2.92287e-12
2.92289e-12
2.92291e-12
2.92293e-12
2.92295e-12
2.92298e-12
2.923e-12
)
;
    }
    inandouthalf12
    {
        type            cyclic;
        value           nonuniform List<scalar> 
100
(
-3.20781e-14
-6.79151e-14
-1.09872e-13
-1.47199e-13
-1.83997e-13
-2.22204e-13
-2.61547e-13
-3.01546e-13
-3.41994e-13
-3.8287e-13
-4.24248e-13
-4.66207e-13
-5.08778e-13
-5.51958e-13
-5.95729e-13
-6.40087e-13
-6.85039e-13
-7.30594e-13
-7.76756e-13
-8.2353e-13
-8.70918e-13
-9.18931e-13
-9.67597e-13
-1.01696e-12
-1.06707e-12
-1.118e-12
-1.16983e-12
-1.22264e-12
-1.27652e-12
-1.33148e-12
-1.38748e-12
-1.44438e-12
-1.50193e-12
-1.5598e-12
-1.61757e-12
-1.67482e-12
-1.73129e-12
-1.78698e-12
-1.84223e-12
-1.8979e-12
-1.95538e-12
-2.01685e-12
-2.08532e-12
-2.16485e-12
-2.26025e-12
-2.37542e-12
-2.50916e-12
-2.64929e-12
-2.77231e-12
-2.85686e-12
-2.90015e-12
-2.91642e-12
-2.92102e-12
-2.92208e-12
-2.92231e-12
-2.92236e-12
-2.92238e-12
-2.92239e-12
-2.9224e-12
-2.9224e-12
-2.92241e-12
-2.92242e-12
-2.92243e-12
-2.92243e-12
-2.92244e-12
-2.92245e-12
-2.92246e-12
-2.92247e-12
-2.92248e-12
-2.92249e-12
-2.92251e-12
-2.92252e-12
-2.92253e-12
-2.92254e-12
-2.92256e-12
-2.92257e-12
-2.92258e-12
-2.9226e-12
-2.92261e-12
-2.92263e-12
-2.92264e-12
-2.92266e-12
-2.92267e-12
-2.92269e-12
-2.9227e-12
-2.92272e-12
-2.92274e-12
-2.92275e-12
-2.92277e-12
-2.92279e-12
-2.92281e-12
-2.92283e-12
-2.92285e-12
-2.92287e-12
-2.92289e-12
-2.92291e-12
-2.92293e-12
-2.92295e-12
-2.92298e-12
-2.923e-12
)
;
    }
    inandouthalf21
    {
        type            cyclic;
        value           nonuniform List<scalar> 
100
(
2.92302e-12
2.92305e-12
2.92307e-12
2.9231e-12
2.92313e-12
2.92315e-12
2.92318e-12
2.92321e-12
2.92324e-12
2.92327e-12
2.9233e-12
2.92333e-12
2.92336e-12
2.92339e-12
2.92342e-12
2.92346e-12
2.92349e-12
2.92353e-12
2.92357e-12
2.9236e-12
2.92364e-12
2.92368e-12
2.92372e-12
2.92377e-12
2.92381e-12
2.92386e-12
2.92391e-12
2.92395e-12
2.92401e-12
2.92406e-12
2.92411e-12
2.92417e-12
2.92423e-12
2.92429e-12
2.92435e-12
2.92442e-12
2.92449e-12
2.92456e-12
2.92464e-12
2.92474e-12
2.92483e-12
2.92493e-12
2.92504e-12
2.92518e-12
2.92535e-12
2.92651e-12
3.83029e-12
6.47932e-10
8.29801e-08
1.8114e-07
2.55713e-07
3.15685e-07
3.65427e-07
4.07523e-07
4.43729e-07
4.75303e-07
5.0318e-07
5.28068e-07
5.50508e-07
5.7092e-07
5.89633e-07
6.06908e-07
6.22952e-07
6.37934e-07
6.5199e-07
6.65233e-07
6.77757e-07
6.8964e-07
7.00947e-07
7.11736e-07
7.22052e-07
7.31938e-07
7.41428e-07
7.50553e-07
7.59339e-07
7.6781e-07
7.75985e-07
7.83882e-07
7.91516e-07
7.98901e-07
8.06048e-07
8.12967e-07
8.19667e-07
8.26155e-07
8.32438e-07
8.38521e-07
8.44408e-07
8.50103e-07
8.55607e-07
8.60923e-07
8.66052e-07
8.70993e-07
8.75747e-07
8.80313e-07
8.84689e-07
8.88874e-07
8.92866e-07
8.96662e-07
9.00261e-07
9.03659e-07
)
;
    }
    inandouthalf22
    {
        type            cyclic;
        value           nonuniform List<scalar> 
100
(
-2.92302e-12
-2.92305e-12
-2.92307e-12
-2.9231e-12
-2.92313e-12
-2.92315e-12
-2.92318e-12
-2.92321e-12
-2.92324e-12
-2.92327e-12
-2.9233e-12
-2.92333e-12
-2.92336e-12
-2.92339e-12
-2.92342e-12
-2.92346e-12
-2.92349e-12
-2.92353e-12
-2.92357e-12
-2.9236e-12
-2.92364e-12
-2.92368e-12
-2.92372e-12
-2.92377e-12
-2.92381e-12
-2.92386e-12
-2.92391e-12
-2.92395e-12
-2.92401e-12
-2.92406e-12
-2.92411e-12
-2.92417e-12
-2.92423e-12
-2.92429e-12
-2.92435e-12
-2.92442e-12
-2.92449e-12
-2.92456e-12
-2.92464e-12
-2.92474e-12
-2.92483e-12
-2.92493e-12
-2.92504e-12
-2.92518e-12
-2.92535e-12
-2.92651e-12
-3.83029e-12
-6.47932e-10
-8.29801e-08
-1.8114e-07
-2.55713e-07
-3.15685e-07
-3.65427e-07
-4.07523e-07
-4.43729e-07
-4.75303e-07
-5.0318e-07
-5.28068e-07
-5.50508e-07
-5.7092e-07
-5.89633e-07
-6.06908e-07
-6.22952e-07
-6.37934e-07
-6.5199e-07
-6.65233e-07
-6.77757e-07
-6.8964e-07
-7.00947e-07
-7.11736e-07
-7.22052e-07
-7.31938e-07
-7.41428e-07
-7.50553e-07
-7.59339e-07
-7.6781e-07
-7.75985e-07
-7.83882e-07
-7.91516e-07
-7.98901e-07
-8.06048e-07
-8.12967e-07
-8.19667e-07
-8.26155e-07
-8.32438e-07
-8.38521e-07
-8.44408e-07
-8.50103e-07
-8.55607e-07
-8.60923e-07
-8.66052e-07
-8.70993e-07
-8.75747e-07
-8.80313e-07
-8.84689e-07
-8.88874e-07
-8.92866e-07
-8.96662e-07
-9.00261e-07
-9.03659e-07
)
;
    }
    inandouthalf31
    {
        type            cyclic;
        value           nonuniform List<scalar> 
110
(
9.06859e-07
9.28349e-07
9.50178e-07
9.72333e-07
9.94801e-07
1.01757e-06
1.04063e-06
1.06396e-06
1.08756e-06
1.11142e-06
1.13554e-06
1.15992e-06
1.18455e-06
1.20944e-06
1.2346e-06
1.26004e-06
1.28577e-06
1.31179e-06
1.33813e-06
1.36478e-06
1.39176e-06
1.41908e-06
1.44675e-06
1.47477e-06
1.50315e-06
1.5319e-06
1.56102e-06
1.59052e-06
1.62041e-06
1.6507e-06
1.68139e-06
1.71249e-06
1.74401e-06
1.77596e-06
1.80835e-06
1.8412e-06
1.8745e-06
1.90829e-06
1.94257e-06
1.97737e-06
2.01271e-06
2.04861e-06
2.08512e-06
2.12226e-06
2.16009e-06
2.19868e-06
2.2381e-06
2.27849e-06
2.32001e-06
2.36294e-06
2.40827e-06
2.45665e-06
2.50649e-06
2.55737e-06
2.60927e-06
2.66223e-06
2.71627e-06
2.7714e-06
2.82765e-06
2.88505e-06
2.9436e-06
3.00335e-06
3.06431e-06
3.12651e-06
3.18997e-06
3.25472e-06
3.32078e-06
3.38818e-06
3.45695e-06
3.52712e-06
3.59871e-06
3.67175e-06
3.74628e-06
3.82232e-06
3.8999e-06
3.97906e-06
4.05982e-06
4.14223e-06
4.2263e-06
4.31209e-06
4.39961e-06
4.48891e-06
4.58002e-06
4.67299e-06
4.76784e-06
4.86461e-06
4.96335e-06
5.06409e-06
5.16688e-06
5.27175e-06
5.37876e-06
5.48793e-06
5.59932e-06
5.71297e-06
5.82893e-06
5.94724e-06
6.06796e-06
6.19112e-06
6.31678e-06
6.445e-06
6.57581e-06
6.70928e-06
6.84546e-06
6.98441e-06
7.12617e-06
7.27082e-06
7.41839e-06
7.56897e-06
7.7226e-06
7.87935e-06
)
;
    }
    inandouthalf32
    {
        type            cyclic;
        value           nonuniform List<scalar> 
110
(
-9.06859e-07
-9.28349e-07
-9.50178e-07
-9.72333e-07
-9.94801e-07
-1.01757e-06
-1.04063e-06
-1.06396e-06
-1.08756e-06
-1.11142e-06
-1.13554e-06
-1.15992e-06
-1.18455e-06
-1.20944e-06
-1.2346e-06
-1.26004e-06
-1.28577e-06
-1.31179e-06
-1.33813e-06
-1.36478e-06
-1.39176e-06
-1.41908e-06
-1.44675e-06
-1.47477e-06
-1.50315e-06
-1.5319e-06
-1.56102e-06
-1.59052e-06
-1.62041e-06
-1.6507e-06
-1.68139e-06
-1.71249e-06
-1.74401e-06
-1.77596e-06
-1.80835e-06
-1.8412e-06
-1.8745e-06
-1.90829e-06
-1.94257e-06
-1.97737e-06
-2.01271e-06
-2.04861e-06
-2.08512e-06
-2.12226e-06
-2.16009e-06
-2.19868e-06
-2.2381e-06
-2.27849e-06
-2.32001e-06
-2.36294e-06
-2.40827e-06
-2.45665e-06
-2.50649e-06
-2.55737e-06
-2.60927e-06
-2.66223e-06
-2.71627e-06
-2.7714e-06
-2.82765e-06
-2.88505e-06
-2.9436e-06
-3.00335e-06
-3.06431e-06
-3.12651e-06
-3.18997e-06
-3.25472e-06
-3.32078e-06
-3.38818e-06
-3.45695e-06
-3.52712e-06
-3.59871e-06
-3.67175e-06
-3.74628e-06
-3.82232e-06
-3.8999e-06
-3.97906e-06
-4.05982e-06
-4.14223e-06
-4.2263e-06
-4.31209e-06
-4.39961e-06
-4.48891e-06
-4.58002e-06
-4.67299e-06
-4.76784e-06
-4.86461e-06
-4.96335e-06
-5.06409e-06
-5.16688e-06
-5.27175e-06
-5.37876e-06
-5.48793e-06
-5.59932e-06
-5.71297e-06
-5.82893e-06
-5.94724e-06
-6.06796e-06
-6.19112e-06
-6.31678e-06
-6.445e-06
-6.57581e-06
-6.70928e-06
-6.84546e-06
-6.98441e-06
-7.12617e-06
-7.27082e-06
-7.41839e-06
-7.56897e-06
-7.7226e-06
-7.87935e-06
)
;
    }
    inandouthalf41
    {
        type            cyclic;
        value           nonuniform List<scalar> 
50
(
7.05282e-06
7.05282e-06
7.05282e-06
7.05282e-06
7.05282e-06
7.05282e-06
7.05282e-06
7.05282e-06
7.05282e-06
7.05282e-06
7.05282e-06
7.05282e-06
7.05282e-06
7.05282e-06
7.05282e-06
7.05282e-06
7.05282e-06
7.05282e-06
7.05282e-06
7.05282e-06
7.05282e-06
7.05282e-06
7.05282e-06
7.05282e-06
7.05282e-06
7.05282e-06
7.05282e-06
7.05282e-06
7.05282e-06
7.05282e-06
7.05282e-06
7.05282e-06
7.05282e-06
7.05282e-06
7.05282e-06
7.05282e-06
7.05282e-06
7.05282e-06
7.05282e-06
7.05282e-06
7.05282e-06
7.05282e-06
7.05282e-06
7.05282e-06
7.05282e-06
7.05282e-06
7.05282e-06
7.05282e-06
7.05282e-06
7.05282e-06
)
;
    }
    inandouthalf42
    {
        type            cyclic;
        value           nonuniform List<scalar> 
50
(
-7.05282e-06
-7.05282e-06
-7.05282e-06
-7.05282e-06
-7.05282e-06
-7.05282e-06
-7.05282e-06
-7.05282e-06
-7.05282e-06
-7.05282e-06
-7.05282e-06
-7.05282e-06
-7.05282e-06
-7.05282e-06
-7.05282e-06
-7.05282e-06
-7.05282e-06
-7.05282e-06
-7.05282e-06
-7.05282e-06
-7.05282e-06
-7.05282e-06
-7.05282e-06
-7.05282e-06
-7.05282e-06
-7.05282e-06
-7.05282e-06
-7.05282e-06
-7.05282e-06
-7.05282e-06
-7.05282e-06
-7.05282e-06
-7.05282e-06
-7.05282e-06
-7.05282e-06
-7.05282e-06
-7.05282e-06
-7.05282e-06
-7.05282e-06
-7.05282e-06
-7.05282e-06
-7.05282e-06
-7.05282e-06
-7.05282e-06
-7.05282e-06
-7.05282e-06
-7.05282e-06
-7.05282e-06
-7.05282e-06
-7.05282e-06
)
;
    }
    top
    {
        type            symmetryPlane;
        value           uniform 0;
    }
    walls
    {
        type            fixedValue;
        value           uniform 0;
    }
    frontAndBackPlanes
    {
        type            empty;
        value           nonuniform 0();
    }
}


// ************************************************************************* //
