/*--------------------------------*- C++ -*----------------------------------*\
| =========                 |                                                 |
| \\      /  F ield         | OpenFOAM: The Open Source CFD Toolbox           |
|  \\    /   O peration     | Version:  2.4.x                                 |
|   \\  /    A nd           | Web:      www.OpenFOAM.org                      |
|    \\/     M anipulation  |                                                 |
\*---------------------------------------------------------------------------*/
FoamFile
{
    version     2.0;
    format      ascii;
    class       volVectorField;
    location    "5.35";
    object      susb;
}
// * * * * * * * * * * * * * * * * * * * * * * * * * * * * * * * * * * * * * //

dimensions      [0 1 -2 0 0 0 0];

internalField   nonuniform List<vector> 
360
(
(0 4.76813e-18 0)
(0 5.70206e-18 0)
(0 4.64859e-19 0)
(0 -7.97858e-19 0)
(-7.37576e-31 -5.16646e-19 0)
(-7.37458e-31 -3.15141e-19 0)
(-3.68676e-31 -3.12402e-19 0)
(0 -3.28794e-19 0)
(-7.37117e-31 -3.37349e-19 0)
(0 -3.5013e-19 0)
(-3.68434e-31 -3.56258e-19 0)
(0 -3.57644e-19 0)
(-3.68306e-31 -3.58354e-19 0)
(0 -3.58954e-19 0)
(0 -3.62311e-19 0)
(0 -3.6673e-19 0)
(0 -3.70057e-19 0)
(-3.67981e-31 -3.72378e-19 0)
(0 -3.76631e-19 0)
(0 -3.78529e-19 0)
(0 -3.80693e-19 0)
(-3.67711e-31 -3.85398e-19 0)
(0 -3.88202e-19 0)
(0 -3.91845e-19 0)
(0 -3.95735e-19 0)
(-7.34862e-31 -3.98874e-19 0)
(0 -4.04558e-19 0)
(0 -4.10774e-19 0)
(0 -4.14776e-19 0)
(0 -4.19174e-19 0)
(0 -4.25765e-19 0)
(0 -4.26986e-19 0)
(0 -4.30161e-19 0)
(0 -4.31105e-19 0)
(0 -4.26443e-19 0)
(3.66681e-31 -4.22849e-19 0)
(0 -4.18395e-19 0)
(0 -4.18933e-19 0)
(0 -4.14617e-19 0)
(0 -4.20788e-19 0)
(0 -4.38726e-19 0)
(0 -4.58434e-19 0)
(3.66144e-31 -5.02034e-19 0)
(0 -5.62523e-19 0)
(0 -6.33877e-19 0)
(0 -7.11023e-19 0)
(0 -7.49432e-19 0)
(0 -7.20769e-19 0)
(0 -6.19458e-19 0)
(0 -4.63609e-19 0)
(3.65269e-31 -3.31386e-19 0)
(0 -2.62605e-19 0)
(0 -2.4127e-19 0)
(0 -2.43471e-19 0)
(0 -2.58998e-19 0)
(0 -2.74989e-19 0)
(0 -2.89961e-19 0)
(0 -3.09077e-19 0)
(0 -3.19649e-19 0)
(0 -3.3917e-19 0)
(0 -3.5432e-19 0)
(0 -3.65013e-19 0)
(0 -3.77092e-19 0)
(0 -3.84555e-19 0)
(0 -3.93852e-19 0)
(0 -4.05269e-19 0)
(0 -4.19935e-19 0)
(0 -4.33758e-19 0)
(0 -4.469e-19 0)
(0 -4.66388e-19 0)
(0 -4.88614e-19 0)
(0 -5.0035e-19 0)
(0 -5.15158e-19 0)
(0 -5.32055e-19 0)
(0 -5.45293e-19 0)
(0 -5.5635e-19 0)
(0 -5.65366e-19 0)
(0 -5.78629e-19 0)
(0 -5.926e-19 0)
(0 -6.05944e-19 0)
(0 -6.21093e-19 0)
(0 -6.38611e-19 0)
(0 -6.55347e-19 0)
(0 -6.71961e-19 0)
(0 -6.88136e-19 0)
(0 -7.03851e-19 0)
(0 -7.18843e-19 0)
(0 -7.33121e-19 0)
(0 -7.48259e-19 0)
(0 -7.64029e-19 0)
(0 -7.80268e-19 0)
(0 -7.97687e-19 0)
(0 -8.16099e-19 0)
(0 -8.34913e-19 0)
(0 -8.54184e-19 0)
(0 -8.73825e-19 0)
(0 -8.93741e-19 0)
(0 -9.14015e-19 0)
(0 -9.34841e-19 0)
(0 -9.56305e-19 0)
(0 -9.78478e-19 0)
(0 -1.00149e-18 0)
(0 -1.02535e-18 0)
(0 -1.05006e-18 0)
(0 -1.07567e-18 0)
(0 -1.10223e-18 0)
(0 -1.12981e-18 0)
(0 -1.15849e-18 0)
(0 -1.18835e-18 0)
(0 -1.21945e-18 0)
(0 -1.25187e-18 0)
(0 -1.28568e-18 0)
(0 -1.32093e-18 0)
(0 -1.35772e-18 0)
(0 -1.3961e-18 0)
(0 -1.43616e-18 0)
(0 -1.478e-18 0)
(0 -1.52171e-18 0)
(0 -1.5674e-18 0)
(0 -1.6152e-18 0)
(0 -1.6652e-18 0)
(0 -1.7175e-18 0)
(0 -1.77218e-18 0)
(0 -1.82942e-18 0)
(0 -1.88962e-18 0)
(0 -1.95359e-18 0)
(0 -2.02246e-18 0)
(0 -2.09728e-18 0)
(0 -2.17811e-18 0)
(0 -2.26355e-18 0)
(0 -2.35242e-18 0)
(0 -2.44882e-18 0)
(0 -4.14665e-18 0)
(0 -1.77361e-17 0)
(0 -8.61404e-17 0)
(0 -4.43955e-16 0)
(0 -2.47701e-15 0)
(0 -1.56186e-14 0)
(0 -1.14599e-13 0)
(0 -9.44046e-13 0)
(0 -8.19013e-12 0)
(0 -8.75948e-11 0)
(0 -1.30186e-09 0)
(0 -2.35715e-08 0)
(0 -6.30956e-07 0)
(0 -3.68365e-05 0)
(0 -0.0100001 0)
(0 -1.05732 0)
(0 -2.96686 0)
(0 -1.676 0)
(0 -1.04534 0)
(0 -0.897182 0)
(0 -0.788228 0)
(0 -0.68839 0)
(0 -0.593452 0)
(0 -0.505676 0)
(0 -0.42737 0)
(0 -0.359513 0)
(0 -0.301895 0)
(0 -0.253594 0)
(0 -0.213387 0)
(0 -0.180021 0)
(0 -0.152341 0)
(0 -0.129345 0)
(0 -0.110193 0)
(0 -0.0941917 0)
(0 -0.0807758 0)
(0 -0.0694863 0)
(0 -0.059951 0)
(0 -0.0518678 0)
(0 -0.0449913 0)
(0 -0.0391212 0)
(0 -0.0340936 0)
(0 -0.029774 0)
(0 -0.0260515 0)
(0 -0.0228345 0)
(0 -0.0200467 0)
(0 -0.0176246 0)
(0 -0.0155152 0)
(0 -0.0136744 0)
(0 -0.0120659 0)
(0 -0.0106607 0)
(0 -0.00943642 0)
(0 -0.00837453 0)
(0 -0.00745725 0)
(0 -0.00666371 0)
(0 -0.00596801 0)
(0 -0.00534087 0)
(0 -0.00475555 0)
(0 -0.00419565 0)
(0 -0.00365808 0)
(0 -0.00314792 0)
(0 -0.00267405 0)
(0 -0.00225261 0)
(0 -0.00190289 0)
(0 -0.0016286 0)
(0 -0.0014097 0)
(0 -0.00121827 0)
(0 -0.00103842 0)
(0 -0.000872241 0)
(0 -0.000727284 0)
(0 -0.000600803 0)
(-1.70226e-19 -0.000490579 0)
(0 -0.000403713 0)
(0 -0.00033518 0)
(7.94906e-20 -0.000273593 0)
(0 -0.000223702 0)
(-3.82049e-20 -0.000187441 0)
(0 -0.000155536 0)
(3.69817e-20 -0.000127905 0)
(0 -0.000107229 0)
(0 -8.97479e-05 0)
(0 -7.51823e-05 0)
(1.76578e-20 -6.37709e-05 0)
(0 -5.30504e-05 0)
(0 -4.461e-05 0)
(0 -3.83622e-05 0)
(0 -3.16862e-05 0)
(0 -2.62234e-05 0)
(-8.21601e-21 -2.23116e-05 0)
(0 -1.8538e-05 0)
(-3.95146e-21 -1.53205e-05 0)
(0 -1.2559e-05 0)
(-3.76164e-21 -1.03795e-05 0)
(0 -8.66206e-06 0)
(0 -6.91898e-06 0)
(0 -5.61005e-06 0)
(0 -4.58052e-06 0)
(7.92416e-22 -3.60362e-06 0)
(7.59103e-22 -2.84273e-06 0)
(0 -2.23564e-06 0)
(0 -1.76745e-06 0)
(0 -1.4435e-06 0)
(0 -1.00835e-06 0)
(0 -6.83686e-07 0)
(0 -8.73081e-08 0)
(0 -1.56712e-07 0)
(0 -4.69361e-07 0)
(0 -3.6144e-07 0)
(0 -1.14797e-07 0)
(0 -1.0774e-20 0)
(0 -4.43534e-22 0)
(0 -1.70739e-22 0)
(-1.07016e-37 -1.12618e-22 0)
(9.26817e-38 -1.06619e-22 0)
(0 -1.15795e-22 0)
(0 -1.19565e-22 0)
(-2.39781e-38 -1.00945e-22 0)
(0 -4.96025e-23 0)
(0 -1.05576e-23 0)
(-1.06738e-40 -8.03569e-25 0)
(0 -1.38778e-26 0)
(0 -1.10784e-28 0)
(0 -8.84343e-31 0)
(0 -8.76394e-33 0)
(0 -1.17102e-34 0)
(0 -1.59921e-36 0)
(0 -1.38852e-38 0)
(0 -4.68532e-41 0)
(0 -3.47289e-42 0)
(0 -1.58079e-42 0)
(0 -8.02564e-43 0)
(0 -4.87905e-43 0)
(0 -3.7374e-43 0)
(0 -2.44186e-43 0)
(0 -1.08016e-43 0)
(0 -4.8276e-44 0)
(0 -2.41742e-44 0)
(0 -1.30183e-44 0)
(0 -6.98175e-45 0)
(0 -3.38059e-45 0)
(0 -1.65698e-45 0)
(0 -8.09539e-46 0)
(0 -3.88249e-46 0)
(0 -1.82516e-46 0)
(0 -8.40408e-47 0)
(0 -3.78745e-47 0)
(0 -1.66924e-47 0)
(0 -7.18844e-48 0)
(0 -3.02201e-48 0)
(0 -1.23903e-48 0)
(0 -4.94929e-49 0)
(0 -1.92398e-49 0)
(0 -7.27007e-50 0)
(0 -2.6669e-50 0)
(0 -9.48439e-51 0)
(6.67063e-67 -3.26517e-51 0)
(0 -1.08643e-51 0)
(0 -3.48772e-52 0)
(0 -1.07821e-52 0)
(0 -3.20318e-53 0)
(0 -9.12402e-54 0)
(0 -2.48555e-54 0)
(0 -6.45759e-55 0)
(0 -1.59503e-55 0)
(0 -3.73236e-56 0)
(1.04071e-72 -8.24095e-57 0)
(0 -1.70908e-57 0)
(0 -3.31161e-58 0)
(-7.65489e-75 -5.95838e-59 0)
(0 -9.88212e-60 0)
(0 -1.49755e-60 0)
(0 -2.05134e-61 0)
(0 -2.50568e-62 0)
(0 -2.68181e-63 0)
(0 -2.45634e-64 0)
(0 -1.86185e-65 0)
(0 -1.1093e-66 0)
(0 -4.75108e-68 0)
(0 -1.20293e-69 0)
(0 -8.01768e-72 0)
(0 -3.33176e-75 0)
(0 -4.13119e-77 0)
(0 -2.54214e-79 0)
(0 -6.3842e-90 0)
(0 -7.97109e-101 0)
(0 -7.03738e-112 0)
(0 -4.56798e-123 0)
(0 -2.45955e-134 0)
(0 -1.05966e-145 0)
(0 -3.9755e-157 0)
(0 -2.84377e-166 0)
(0 -9.43621e-177 0)
(0 -9.7975e-185 0)
(0 -2.91224e-195 0)
(0 -3.37039e-203 0)
(0 -1.19216e-213 0)
(0 -1.1594e-221 0)
(0 -5.15937e-232 0)
(0 -3.9916e-240 0)
(0 -3.35741e-250 0)
(0 -1.38937e-258 0)
(0 -2.20877e-268 0)
(0 -4.91669e-277 0)
(0 -1.10095e-286 0)
(0 -1.76797e-295 0)
(0 -5.21792e-305 0)
(0 -6.45308e-314 0)
(0 -2.47033e-323 0)
(0 -0 0)
(0 0 0)
(0 0 0)
(0 0 0)
(0 0 0)
(0 0 0)
(0 0 0)
(0 0 0)
(0 0 0)
(0 0 0)
(0 0 0)
(0 0 0)
(0 0 0)
(0 0 0)
(0 0 0)
(0 0 0)
(0 0 0)
(0 0 0)
(0 0 0)
(0 0 0)
(0 0 0)
)
;

boundaryField
{
    inandouthalf11
    {
        type            cyclic;
    }
    inandouthalf12
    {
        type            cyclic;
    }
    inandouthalf21
    {
        type            cyclic;
    }
    inandouthalf22
    {
        type            cyclic;
    }
    inandouthalf31
    {
        type            cyclic;
    }
    inandouthalf32
    {
        type            cyclic;
    }
    inandouthalf41
    {
        type            cyclic;
    }
    inandouthalf42
    {
        type            cyclic;
    }
    top
    {
        type            symmetryPlane;
    }
    walls
    {
        type            zeroGradient;
    }
    frontAndBackPlanes
    {
        type            empty;
    }
}


// ************************************************************************* //
