/*--------------------------------*- C++ -*----------------------------------*\
| =========                 |                                                 |
| \\      /  F ield         | OpenFOAM: The Open Source CFD Toolbox           |
|  \\    /   O peration     | Version:  2.4.x                                 |
|   \\  /    A nd           | Web:      www.OpenFOAM.org                      |
|    \\/     M anipulation  |                                                 |
\*---------------------------------------------------------------------------*/
FoamFile
{
    version     2.0;
    format      ascii;
    class       volScalarField;
    location    "5.35";
    object      tmf;
}
// * * * * * * * * * * * * * * * * * * * * * * * * * * * * * * * * * * * * * //

dimensions      [0 0 0 0 0 0 0];

internalField   nonuniform List<scalar> 
360
(
0.999205
0.999208
0.999208
0.999208
0.999208
0.999208
0.999207
0.999207
0.999207
0.999207
0.999207
0.999207
0.999207
0.999207
0.999207
0.999207
0.999207
0.999207
0.999206
0.999206
0.999206
0.999206
0.999206
0.999206
0.999206
0.999206
0.999206
0.999206
0.999206
0.999205
0.999205
0.999205
0.999205
0.999205
0.999205
0.999205
0.999205
0.999205
0.999205
0.999204
0.999204
0.999204
0.999204
0.999204
0.999204
0.999204
0.999203
0.999203
0.999203
0.999203
0.999203
0.999203
0.999203
0.999203
0.999203
0.999203
0.999203
0.999202
0.999202
0.999202
0.999202
0.999202
0.999202
0.999202
0.999202
0.999202
0.999202
0.999202
0.999201
0.999201
0.999201
0.999201
0.999201
0.999201
0.999201
0.999201
0.9992
0.9992
0.9992
0.9992
0.9992
0.9992
0.9992
0.999199
0.999199
0.999199
0.999199
0.999199
0.999199
0.999198
0.999198
0.999198
0.999198
0.999198
0.999197
0.999197
0.999197
0.999197
0.999196
0.999196
0.999196
0.999196
0.999195
0.999195
0.999195
0.999195
0.999194
0.999194
0.999194
0.999194
0.999193
0.999193
0.999193
0.999192
0.999192
0.999192
0.999191
0.999191
0.99919
0.99919
0.99919
0.999189
0.999189
0.999188
0.999188
0.999187
0.999187
0.999186
0.999186
0.999185
0.999185
0.999184
0.998856
0.998688
0.998506
0.998276
0.997982
0.997606
0.997125
0.996511
0.995723
0.994706
0.993392
0.991699
0.989515
0.986684
0.982871
0.973467
0.919748
0.888331
0.876968
0.879101
0.882647
0.887142
0.892315
0.897899
0.903639
0.909324
0.914803
0.919988
0.924834
0.929333
0.933492
0.937333
0.940882
0.944164
0.947206
0.950033
0.952665
0.955123
0.957423
0.959581
0.96161
0.963521
0.965324
0.967027
0.968639
0.970166
0.971614
0.972987
0.974292
0.975532
0.976711
0.977833
0.9789
0.979916
0.980884
0.981806
0.982684
0.98352
0.984318
0.985078
0.985803
0.986494
0.987155
0.987787
0.988392
0.98897
0.989524
0.990055
0.990563
0.991055
0.991534
0.992
0.992452
0.992888
0.993307
0.993706
0.994084
0.994439
0.994769
0.995072
0.995347
0.995595
0.995814
0.996007
0.996174
0.996316
0.996435
0.996534
0.996615
0.996678
0.996728
0.996764
0.99679
0.996806
0.996813
0.996815
0.99681
0.996801
0.996789
0.996774
0.996758
0.996741
0.996724
0.996709
0.996694
0.994189
0.994612
0.995958
0.996458
0.996533
0.996623
0.996728
0.996854
0.997006
0.997192
0.997425
0.997728
0.998145
0.998543
0.998713
0.998717
0.998709
0.998702
0.998695
0.998688
0.998658
0.997131
0.994189
0.994189
0.994189
0.994189
0.994189
0.994189
0.994189
0.994189
0.994189
0.994189
0.994189
0.994189
0.994189
0.994189
0.994189
0.994189
0.994189
0.994189
0.994189
0.994189
0.994189
0.994189
0.994189
0.994189
0.994189
0.994189
0.994189
0.994189
0.994189
0.994189
0.994189
0.994189
0.994189
0.994189
0.994189
0.994189
0.994189
0.994189
0.994189
0.994189
0.994189
0.994189
0.994189
0.994189
0.994189
0.994189
0.994189
0.994189
0.994189
0.994189
0.994189
0.994189
0.994189
0.994189
0.994189
0.994189
0.994189
0.994189
0.994189
0.994189
0.994189
0.994189
0.994189
0.994189
0.994189
0.994189
0.994189
0.994189
0.994189
0.994189
0.994189
0.994189
0.994189
0.994189
0.994189
0.994189
0.994189
0.994189
0.994189
0.994189
0.994189
0.994189
0.994189
0.994189
0.994189
0.994189
0.994189
0.994189
0.994189
0.994189
0.994189
0.994189
0.994189
0.994189
0.994189
0.994189
0.994189
0.994189
0.994189
0.994174
0.993239
)
;

boundaryField
{
    inandouthalf11
    {
        type            cyclic;
    }
    inandouthalf12
    {
        type            cyclic;
    }
    inandouthalf21
    {
        type            cyclic;
    }
    inandouthalf22
    {
        type            cyclic;
    }
    inandouthalf31
    {
        type            cyclic;
    }
    inandouthalf32
    {
        type            cyclic;
    }
    inandouthalf41
    {
        type            cyclic;
    }
    inandouthalf42
    {
        type            cyclic;
    }
    top
    {
        type            symmetryPlane;
    }
    walls
    {
        type            calculated;
        value           uniform 0;
    }
    frontAndBackPlanes
    {
        type            empty;
    }
}


// ************************************************************************* //
