/*--------------------------------*- C++ -*----------------------------------*\
| =========                 |                                                 |
| \\      /  F ield         | OpenFOAM: The Open Source CFD Toolbox           |
|  \\    /   O peration     | Version:  2.4.x                                 |
|   \\  /    A nd           | Web:      www.OpenFOAM.org                      |
|    \\/     M anipulation  |                                                 |
\*---------------------------------------------------------------------------*/
FoamFile
{
    version     2.0;
    format      ascii;
    class       volVectorField;
    location    "5.35";
    object      Ub;
}
// * * * * * * * * * * * * * * * * * * * * * * * * * * * * * * * * * * * * * //

dimensions      [0 1 -1 0 0 0 0];

internalField   nonuniform List<vector> 
360
(
(-3.34138e-08 9.08485e-08 0)
(-6.92435e-08 3.42694e-07 0)
(-1.11196e-07 6.49553e-07 0)
(-1.48522e-07 9.30061e-07 0)
(-1.85318e-07 1.20128e-06 0)
(-2.23523e-07 1.47732e-06 0)
(-2.62864e-07 1.75922e-06 0)
(-3.02861e-07 2.04417e-06 0)
(-3.43306e-07 2.33037e-06 0)
(-3.84179e-07 2.61751e-06 0)
(-4.25556e-07 2.90609e-06 0)
(-4.67512e-07 3.19657e-06 0)
(-5.10081e-07 3.48912e-06 0)
(-5.53258e-07 3.78366e-06 0)
(-5.97027e-07 4.08004e-06 0)
(-6.41382e-07 4.37817e-06 0)
(-6.86332e-07 4.67804e-06 0)
(-7.31884e-07 4.97966e-06 0)
(-7.78043e-07 5.28299e-06 0)
(-8.24814e-07 5.58803e-06 0)
(-8.72199e-07 5.89471e-06 0)
(-9.20209e-07 6.20307e-06 0)
(-9.68871e-07 6.51323e-06 0)
(-1.01823e-06 6.82538e-06 0)
(-1.06834e-06 7.13981e-06 0)
(-1.11926e-06 7.45689e-06 0)
(-1.17109e-06 7.77701e-06 0)
(-1.2239e-06 8.10066e-06 0)
(-1.27777e-06 8.42816e-06 0)
(-1.33272e-06 8.75955e-06 0)
(-1.38872e-06 9.09441e-06 0)
(-1.44561e-06 9.43194e-06 0)
(-1.50317e-06 9.77047e-06 0)
(-1.56103e-06 1.01081e-05 0)
(-1.6188e-06 1.04423e-05 0)
(-1.67605e-06 1.07708e-05 0)
(-1.73252e-06 1.10922e-05 0)
(-1.7882e-06 1.14065e-05 0)
(-1.84346e-06 1.17159e-05 0)
(-1.89911e-06 1.20249e-05 0)
(-1.95659e-06 1.23416e-05 0)
(-2.01804e-06 1.26778e-05 0)
(-2.08648e-06 1.30496e-05 0)
(-2.16597e-06 1.34789e-05 0)
(-2.26132e-06 1.39894e-05 0)
(-2.37643e-06 1.45981e-05 0)
(-2.51013e-06 1.52934e-05 0)
(-2.65026e-06 1.60111e-05 0)
(-2.77337e-06 1.66423e-05 0)
(-2.85803e-06 1.70912e-05 0)
(-2.90142e-06 1.73395e-05 0)
(-2.91774e-06 1.74438e-05 0)
(-2.92236e-06 1.74767e-05 0)
(-2.92343e-06 1.74842e-05 0)
(-2.92365e-06 1.74847e-05 0)
(-2.92371e-06 1.74837e-05 0)
(-2.92373e-06 1.74822e-05 0)
(-2.92374e-06 1.74807e-05 0)
(-2.92374e-06 1.7479e-05 0)
(-2.92375e-06 1.74772e-05 0)
(-2.92376e-06 1.74755e-05 0)
(-2.92377e-06 1.74735e-05 0)
(-2.92378e-06 1.74716e-05 0)
(-2.92378e-06 1.74695e-05 0)
(-2.92379e-06 1.74675e-05 0)
(-2.9238e-06 1.74653e-05 0)
(-2.92381e-06 1.74631e-05 0)
(-2.92382e-06 1.74609e-05 0)
(-2.92383e-06 1.74585e-05 0)
(-2.92384e-06 1.74561e-05 0)
(-2.92386e-06 1.74536e-05 0)
(-2.92387e-06 1.7451e-05 0)
(-2.92388e-06 1.74482e-05 0)
(-2.9239e-06 1.74455e-05 0)
(-2.92391e-06 1.74426e-05 0)
(-2.92392e-06 1.74397e-05 0)
(-2.92394e-06 1.74367e-05 0)
(-2.92395e-06 1.74337e-05 0)
(-2.92397e-06 1.74306e-05 0)
(-2.92398e-06 1.74274e-05 0)
(-2.924e-06 1.74241e-05 0)
(-2.92401e-06 1.74208e-05 0)
(-2.92403e-06 1.74173e-05 0)
(-2.92405e-06 1.74138e-05 0)
(-2.92406e-06 1.74102e-05 0)
(-2.92408e-06 1.74065e-05 0)
(-2.9241e-06 1.74027e-05 0)
(-2.92412e-06 1.73988e-05 0)
(-2.92413e-06 1.73949e-05 0)
(-2.92415e-06 1.73909e-05 0)
(-2.92417e-06 1.73868e-05 0)
(-2.92419e-06 1.73826e-05 0)
(-2.92421e-06 1.73783e-05 0)
(-2.92423e-06 1.73739e-05 0)
(-2.92425e-06 1.73694e-05 0)
(-2.92428e-06 1.73648e-05 0)
(-2.9243e-06 1.73601e-05 0)
(-2.92432e-06 1.73552e-05 0)
(-2.92435e-06 1.73503e-05 0)
(-2.92437e-06 1.73453e-05 0)
(-2.92439e-06 1.73401e-05 0)
(-2.92442e-06 1.73348e-05 0)
(-2.92445e-06 1.73294e-05 0)
(-2.92447e-06 1.73239e-05 0)
(-2.9245e-06 1.73182e-05 0)
(-2.92453e-06 1.73124e-05 0)
(-2.92455e-06 1.73065e-05 0)
(-2.92458e-06 1.73004e-05 0)
(-2.92461e-06 1.72941e-05 0)
(-2.92464e-06 1.72877e-05 0)
(-2.92467e-06 1.72811e-05 0)
(-2.92471e-06 1.72743e-05 0)
(-2.92474e-06 1.72673e-05 0)
(-2.92477e-06 1.72602e-05 0)
(-2.92481e-06 1.72528e-05 0)
(-2.92484e-06 1.72452e-05 0)
(-2.92488e-06 1.72374e-05 0)
(-2.92492e-06 1.72294e-05 0)
(-2.92495e-06 1.72211e-05 0)
(-2.92499e-06 1.72126e-05 0)
(-2.92503e-06 1.72038e-05 0)
(-2.92508e-06 1.71948e-05 0)
(-2.92512e-06 1.71854e-05 0)
(-2.92516e-06 1.71758e-05 0)
(-2.92521e-06 1.71658e-05 0)
(-2.92526e-06 1.71555e-05 0)
(-2.92531e-06 1.71448e-05 0)
(-2.92536e-06 1.71338e-05 0)
(-2.92541e-06 1.71223e-05 0)
(-2.92546e-06 1.71104e-05 0)
(-2.92552e-06 1.7098e-05 0)
(-2.92558e-06 1.7085e-05 0)
(-2.92564e-06 1.70715e-05 0)
(-2.9257e-06 1.70572e-05 0)
(-2.92577e-06 1.70423e-05 0)
(-2.92584e-06 1.70265e-05 0)
(-2.92591e-06 1.70097e-05 0)
(-2.92599e-06 1.69914e-05 0)
(-2.92607e-06 1.69712e-05 0)
(-2.92617e-06 1.69497e-05 0)
(-2.92627e-06 1.69278e-05 0)
(-2.92637e-06 1.69008e-05 0)
(-2.92648e-06 1.68707e-05 0)
(-2.92663e-06 1.68355e-05 0)
(-2.92681e-06 1.67722e-05 0)
(-2.92799e-06 1.71293e-05 0)
(-3.83136e-06 9.87796e-06 0)
(-0.000647689 3.69867e-05 0)
(-0.0829737 0.000208813 0)
(-0.181134 0.000103463 0)
(-0.255706 0.000116064 0)
(-0.315678 9.69938e-05 0)
(-0.365418 8.06273e-05 0)
(-0.407513 6.55033e-05 0)
(-0.443718 5.19821e-05 0)
(-0.47529 4.0337e-05 0)
(-0.503167 3.06327e-05 0)
(-0.528053 2.27361e-05 0)
(-0.550492 1.64172e-05 0)
(-0.570904 1.14217e-05 0)
(-0.589616 7.50987e-06 0)
(-0.60689 4.47205e-06 0)
(-0.622933 2.13246e-06 0)
(-0.637914 3.47432e-07 0)
(-0.65197 -9.98784e-07 0)
(-0.665213 -1.99868e-06 0)
(-0.677736 -2.72585e-06 0)
(-0.689619 -3.23868e-06 0)
(-0.700926 -3.58347e-06 0)
(-0.711714 -3.79695e-06 0)
(-0.72203 -3.90822e-06 0)
(-0.731915 -3.94041e-06 0)
(-0.741405 -3.91187e-06 0)
(-0.75053 -3.83716e-06 0)
(-0.759316 -3.72785e-06 0)
(-0.767786 -3.59312e-06 0)
(-0.775961 -3.44024e-06 0)
(-0.783858 -3.27495e-06 0)
(-0.791492 -3.10181e-06 0)
(-0.798876 -2.92435e-06 0)
(-0.806023 -2.74535e-06 0)
(-0.812942 -2.56679e-06 0)
(-0.819642 -2.38989e-06 0)
(-0.82613 -2.21508e-06 0)
(-0.832413 -2.04208e-06 0)
(-0.838496 -1.87019e-06 0)
(-0.844383 -1.69894e-06 0)
(-0.850077 -1.52875e-06 0)
(-0.855582 -1.36137e-06 0)
(-0.860898 -1.19976e-06 0)
(-0.866027 -1.04746e-06 0)
(-0.870968 -9.07674e-07 0)
(-0.875723 -7.827e-07 0)
(-0.880289 -6.73394e-07 0)
(-0.884665 -5.78853e-07 0)
(-0.88885 -4.96775e-07 0)
(-0.892843 -4.24672e-07 0)
(-0.896639 -3.61003e-07 0)
(-0.900239 -3.05301e-07 0)
(-0.903638 -2.57427e-07 0)
(-0.906835 -2.16907e-07 0)
(-0.909858 -1.82627e-07 0)
(-0.912727 -1.53701e-07 0)
(-0.915428 -1.29399e-07 0)
(-0.91795 -1.08862e-07 0)
(-0.920282 -9.15634e-08 0)
(-0.922413 -7.71306e-08 0)
(-0.924336 -6.50011e-08 0)
(-0.926045 -5.47291e-08 0)
(-0.927538 -4.61083e-08 0)
(-0.928814 -3.88809e-08 0)
(-0.929877 -3.27764e-08 0)
(-0.930732 -2.7617e-08 0)
(-0.931387 -2.32432e-08 0)
(-0.93185 -1.95447e-08 0)
(-0.932132 -1.64292e-08 0)
(-0.932243 -1.37696e-08 0)
(-0.932193 -1.15066e-08 0)
(-0.931991 -9.61499e-09 0)
(-0.931646 -8.01653e-09 0)
(-0.931166 -6.6537e-09 0)
(-0.930557 -5.50499e-09 0)
(-0.929826 -4.54352e-09 0)
(-0.928979 -3.73656e-09 0)
(-0.92802 -3.05232e-09 0)
(-0.926954 -2.47776e-09 0)
(-0.925785 -2.0025e-09 0)
(-0.924517 -1.60556e-09 0)
(-0.923155 -1.27616e-09 0)
(-0.921702 -1.00764e-09 0)
(-0.920162 -7.88897e-10 0)
(-0.918539 -6.09163e-10 0)
(-0.916837 -4.58138e-10 0)
(-0.915061 -3.35365e-10 0)
(-0.913215 -2.48772e-10 0)
(-0.911303 -2.34134e-10 0)
(-0.909332 -9.47535e-11 0)
(-0.907306 -1.1192e-11 0)
(-0.905233 -1.15017e-11 0)
(-0.903118 4.0354e-11 0)
(-0.900971 -1.32492e-11 0)
(-0.8988 -2.5453e-12 0)
(-0.896616 1.11485e-11 0)
(-0.894433 -4.38708e-11 0)
(-0.892266 9.46141e-11 0)
(-0.890138 -1.78172e-10 0)
(-0.888074 2.85504e-10 0)
(-0.886113 -4.27165e-10 0)
(-0.884312 5.90813e-10 0)
(-0.882756 -7.81994e-10 0)
(-0.881794 9.85094e-10 0)
(-0.881612 -1.20331e-09 0)
(-0.881605 1.42408e-09 0)
(-0.881604 -1.65464e-09 0)
(-0.881604 1.88689e-09 0)
(-0.881603 -2.12871e-09 0)
(-0.881603 2.37303e-09 0)
(-0.881603 -2.62695e-09 0)
(-0.881603 2.88419e-09 0)
(-0.881603 -3.15104e-09 0)
(-0.881603 3.42203e-09 0)
(-0.881602 -3.70264e-09 0)
(-0.881602 3.98817e-09 0)
(-0.881602 -4.2833e-09 0)
(-0.881602 4.58411e-09 0)
(-0.881602 -4.8945e-09 0)
(-0.881602 5.21124e-09 0)
(-0.881602 -5.53762e-09 0)
(-0.881602 5.8709e-09 0)
(-0.881602 -6.21388e-09 0)
(-0.881602 6.5643e-09 0)
(-0.881602 -6.92449e-09 0)
(-0.881602 7.29263e-09 0)
(-0.881602 -7.6706e-09 0)
(-0.881602 8.05698e-09 0)
(-0.881602 -8.45328e-09 0)
(-0.881602 8.85842e-09 0)
(-0.881602 -9.27356e-09 0)
(-0.881602 9.69796e-09 0)
(-0.881602 -1.01325e-08 0)
(-0.881602 1.05766e-08 0)
(-0.881602 -1.10309e-08 0)
(-0.881602 1.14953e-08 0)
(-0.881602 -1.19699e-08 0)
(-0.881602 1.2455e-08 0)
(-0.881602 -1.29504e-08 0)
(-0.881602 1.34566e-08 0)
(-0.881602 -1.39733e-08 0)
(-0.881602 1.45009e-08 0)
(-0.881602 -1.50393e-08 0)
(-0.881602 1.55889e-08 0)
(-0.881602 -1.61495e-08 0)
(-0.881602 1.67214e-08 0)
(-0.881602 -1.73045e-08 0)
(-0.881602 1.78992e-08 0)
(-0.881602 -1.85052e-08 0)
(-0.881602 1.91229e-08 0)
(-0.881602 -1.97522e-08 0)
(-0.881602 2.03934e-08 0)
(-0.881602 -2.10463e-08 0)
(-0.881602 2.17113e-08 0)
(-0.881602 -2.23881e-08 0)
(-0.881602 2.30772e-08 0)
(-0.881602 -2.37782e-08 0)
(-0.881602 2.44916e-08 0)
(-0.881602 -2.52169e-08 0)
(-0.881602 2.59548e-08 0)
(-0.881602 -2.67047e-08 0)
(-0.881602 2.74671e-08 0)
(-0.881602 -2.82416e-08 0)
(-0.881602 2.548e-08 0)
(-0.881602 -2.56892e-08 0)
(-0.881602 2.58963e-08 0)
(-0.881602 -2.61008e-08 0)
(-0.881602 2.63033e-08 0)
(-0.881602 -2.65031e-08 0)
(-0.881602 2.67007e-08 0)
(-0.881602 -2.68957e-08 0)
(-0.881602 2.70885e-08 0)
(-0.881602 -2.72786e-08 0)
(-0.881602 2.74664e-08 0)
(-0.881602 -2.76515e-08 0)
(-0.881602 2.78342e-08 0)
(-0.881602 -2.80142e-08 0)
(-0.881602 2.81917e-08 0)
(-0.881602 -2.83665e-08 0)
(-0.881602 2.85387e-08 0)
(-0.881602 -2.87081e-08 0)
(-0.881602 2.88749e-08 0)
(-0.881602 -2.90388e-08 0)
(-0.881602 2.91999e-08 0)
(-0.881602 -2.93583e-08 0)
(-0.881602 2.95136e-08 0)
(-0.881602 -2.96662e-08 0)
(-0.881602 2.98155e-08 0)
(-0.881602 -2.99621e-08 0)
(-0.881602 3.01052e-08 0)
(-0.881602 -3.02456e-08 0)
(-0.881602 3.03822e-08 0)
(-0.881602 -3.05162e-08 0)
(-0.881602 3.06461e-08 0)
(-0.881602 -3.07733e-08 0)
(-0.881602 3.08962e-08 0)
(-0.881602 -3.10163e-08 0)
(-0.881602 3.11316e-08 0)
(-0.881602 -3.12443e-08 0)
(-0.881602 3.13517e-08 0)
(-0.881602 -3.14564e-08 0)
(-0.881602 3.15552e-08 0)
(-0.881602 -3.16514e-08 0)
(-0.881602 3.17409e-08 0)
(-0.881602 -3.18277e-08 0)
(-0.881602 3.19068e-08 0)
(-0.881602 -3.19833e-08 0)
(-0.881602 3.20506e-08 0)
(-0.881602 -3.21151e-08 0)
(-0.881602 3.21681e-08 0)
(-0.881602 -3.22176e-08 0)
(-0.881602 3.22509e-08 0)
(-0.881602 -3.22776e-08 0)
)
;

boundaryField
{
    inandouthalf11
    {
        type            cyclic;
    }
    inandouthalf12
    {
        type            cyclic;
    }
    inandouthalf21
    {
        type            cyclic;
    }
    inandouthalf22
    {
        type            cyclic;
    }
    inandouthalf31
    {
        type            cyclic;
    }
    inandouthalf32
    {
        type            cyclic;
    }
    inandouthalf41
    {
        type            cyclic;
    }
    inandouthalf42
    {
        type            cyclic;
    }
    top
    {
        type            symmetryPlane;
    }
    walls
    {
        type            fixedValue;
        value           uniform (0 0 0);
    }
    frontAndBackPlanes
    {
        type            empty;
    }
}


// ************************************************************************* //
