/*--------------------------------*- C++ -*----------------------------------*\
| =========                 |                                                 |
| \\      /  F ield         | OpenFOAM: The Open Source CFD Toolbox           |
|  \\    /   O peration     | Version:  2.4.x                                 |
|   \\  /    A nd           | Web:      www.OpenFOAM.org                      |
|    \\/     M anipulation  |                                                 |
\*---------------------------------------------------------------------------*/
FoamFile
{
    version     2.0;
    format      ascii;
    class       volVectorField;
    location    "5.35";
    object      Ur;
}
// * * * * * * * * * * * * * * * * * * * * * * * * * * * * * * * * * * * * * //

dimensions      [0 1 -1 0 0 0 0];

internalField   nonuniform List<vector> 
360
(
(-3.34138e-08 9.08485e-08 0)
(-3.32611e-08 5.6782e-07 0)
(-3.32206e-08 1.07413e-06 0)
(-3.32445e-08 1.52278e-06 0)
(-3.32625e-08 1.96326e-06 0)
(-3.32718e-08 2.41571e-06 0)
(-3.32804e-08 2.87776e-06 0)
(-3.32898e-08 3.34431e-06 0)
(-3.32996e-08 3.81271e-06 0)
(-3.33098e-08 4.2826e-06 0)
(-3.33203e-08 4.75489e-06 0)
(-3.33308e-08 5.23038e-06 0)
(-3.33414e-08 5.70935e-06 0)
(-3.33521e-08 6.19164e-06 0)
(-3.3363e-08 6.67696e-06 0)
(-3.3374e-08 7.16517e-06 0)
(-3.33851e-08 7.65629e-06 0)
(-3.33964e-08 8.15031e-06 0)
(-3.34079e-08 8.64717e-06 0)
(-3.34195e-08 9.14689e-06 0)
(-3.34312e-08 9.64934e-06 0)
(-3.34433e-08 1.01546e-05 0)
(-3.34556e-08 1.06628e-05 0)
(-3.34682e-08 1.11743e-05 0)
(-3.34812e-08 1.16895e-05 0)
(-3.34947e-08 1.22092e-05 0)
(-3.35086e-08 1.27339e-05 0)
(-3.3523e-08 1.32644e-05 0)
(-3.35378e-08 1.38014e-05 0)
(-3.35527e-08 1.43448e-05 0)
(-3.35674e-08 1.48941e-05 0)
(-3.35817e-08 1.54479e-05 0)
(-3.3595e-08 1.60035e-05 0)
(-3.36074e-08 1.65577e-05 0)
(-3.36183e-08 1.71064e-05 0)
(-3.36283e-08 1.76457e-05 0)
(-3.3638e-08 1.81732e-05 0)
(-3.36487e-08 1.86887e-05 0)
(-3.3662e-08 1.91958e-05 0)
(-3.36798e-08 1.97019e-05 0)
(-3.37051e-08 2.02199e-05 0)
(-3.37409e-08 2.07693e-05 0)
(-3.37911e-08 2.13764e-05 0)
(-3.38598e-08 2.20771e-05 0)
(-3.39459e-08 2.29119e-05 0)
(-3.40365e-08 2.39121e-05 0)
(-3.40965e-08 2.5064e-05 0)
(-3.40775e-08 2.62629e-05 0)
(-3.39653e-08 2.73185e-05 0)
(-3.38158e-08 2.80588e-05 0)
(-3.37055e-08 2.84547e-05 0)
(-3.36567e-08 2.86136e-05 0)
(-3.36446e-08 2.86616e-05 0)
(-3.36455e-08 2.86724e-05 0)
(-3.36495e-08 2.86736e-05 0)
(-3.36547e-08 2.86728e-05 0)
(-3.36601e-08 2.86714e-05 0)
(-3.3666e-08 2.86699e-05 0)
(-3.36722e-08 2.86682e-05 0)
(-3.36785e-08 2.86664e-05 0)
(-3.36855e-08 2.86646e-05 0)
(-3.36924e-08 2.86627e-05 0)
(-3.36998e-08 2.86608e-05 0)
(-3.37072e-08 2.86587e-05 0)
(-3.37149e-08 2.86567e-05 0)
(-3.37227e-08 2.86545e-05 0)
(-3.37308e-08 2.86523e-05 0)
(-3.37392e-08 2.86501e-05 0)
(-3.37479e-08 2.86477e-05 0)
(-3.37568e-08 2.86453e-05 0)
(-3.37662e-08 2.86428e-05 0)
(-3.3776e-08 2.86402e-05 0)
(-3.3786e-08 2.86375e-05 0)
(-3.37964e-08 2.86347e-05 0)
(-3.3807e-08 2.86319e-05 0)
(-3.38179e-08 2.8629e-05 0)
(-3.38289e-08 2.8626e-05 0)
(-3.38402e-08 2.86229e-05 0)
(-3.38518e-08 2.86198e-05 0)
(-3.38637e-08 2.86167e-05 0)
(-3.38758e-08 2.86134e-05 0)
(-3.38883e-08 2.86101e-05 0)
(-3.39011e-08 2.86066e-05 0)
(-3.39143e-08 2.86031e-05 0)
(-3.39278e-08 2.85995e-05 0)
(-3.39416e-08 2.85958e-05 0)
(-3.39557e-08 2.8592e-05 0)
(-3.39702e-08 2.85882e-05 0)
(-3.39849e-08 2.85842e-05 0)
(-3.4e-08 2.85802e-05 0)
(-3.40153e-08 2.85761e-05 0)
(-3.40311e-08 2.85719e-05 0)
(-3.40472e-08 2.85677e-05 0)
(-3.40637e-08 2.85633e-05 0)
(-3.40806e-08 2.85588e-05 0)
(-3.40978e-08 2.85542e-05 0)
(-3.41155e-08 2.85495e-05 0)
(-3.41337e-08 2.85447e-05 0)
(-3.41522e-08 2.85398e-05 0)
(-3.41712e-08 2.85347e-05 0)
(-3.41906e-08 2.85296e-05 0)
(-3.42106e-08 2.85243e-05 0)
(-3.4231e-08 2.85189e-05 0)
(-3.42519e-08 2.85134e-05 0)
(-3.42733e-08 2.85078e-05 0)
(-3.42953e-08 2.8502e-05 0)
(-3.43179e-08 2.8496e-05 0)
(-3.43411e-08 2.84899e-05 0)
(-3.43648e-08 2.84837e-05 0)
(-3.43893e-08 2.84772e-05 0)
(-3.44144e-08 2.84707e-05 0)
(-3.44402e-08 2.84639e-05 0)
(-3.44667e-08 2.84569e-05 0)
(-3.4494e-08 2.84498e-05 0)
(-3.45222e-08 2.84424e-05 0)
(-3.45511e-08 2.84349e-05 0)
(-3.45809e-08 2.84271e-05 0)
(-3.46117e-08 2.84191e-05 0)
(-3.46434e-08 2.84108e-05 0)
(-3.46762e-08 2.84023e-05 0)
(-3.47099e-08 2.83935e-05 0)
(-3.47449e-08 2.83845e-05 0)
(-3.47809e-08 2.83751e-05 0)
(-3.48182e-08 2.83655e-05 0)
(-3.48568e-08 2.83555e-05 0)
(-3.48967e-08 2.83453e-05 0)
(-3.49381e-08 2.83346e-05 0)
(-3.49811e-08 2.83235e-05 0)
(-3.50258e-08 2.83121e-05 0)
(-3.50723e-08 2.83002e-05 0)
(-3.51208e-08 2.82878e-05 0)
(-3.51713e-08 2.82748e-05 0)
(-3.5224e-08 2.82613e-05 0)
(-3.52797e-08 2.82471e-05 0)
(-3.53389e-08 2.82321e-05 0)
(-3.54017e-08 2.82163e-05 0)
(-3.54675e-08 2.81995e-05 0)
(-3.55376e-08 2.81813e-05 0)
(-3.56153e-08 2.81611e-05 0)
(-3.57046e-08 2.81395e-05 0)
(-3.58015e-08 2.81177e-05 0)
(-3.58939e-08 2.80906e-05 0)
(-3.60044e-08 2.80606e-05 0)
(-3.61481e-08 2.80253e-05 0)
(-3.6327e-08 2.79621e-05 0)
(-3.75045e-08 2.83192e-05 0)
(-9.40882e-07 2.10678e-05 0)
(-0.000644138 4.8221e-05 0)
(-0.00836433 0.000576543 0)
(-0.00913424 0.000497939 0)
(-0.0074611 0.000609758 0)
(-0.00604445 0.000638894 0)
(-0.00507841 0.000658217 0)
(-0.00444094 0.000664275 0)
(-0.0040446 0.000657266 0)
(-0.0038311 0.000637146 0)
(-0.00375803 0.000604046 0)
(-0.00379372 0.000558139 0)
(-0.00391532 0.00049968 0)
(-0.00410722 0.000429018 0)
(-0.00435956 0.000346584 0)
(-0.00466683 0.000252854 0)
(-0.00502672 0.000148321 0)
(-0.00543925 3.34765e-05 0)
(-0.00590604 -9.12102e-05 0)
(-0.00642994 -0.000225292 0)
(-0.00701455 -0.000368352 0)
(-0.00766405 -0.000520001 0)
(-0.00838297 -0.000679872 0)
(-0.00917602 -0.000847619 0)
(-0.010048 -0.00102291 0)
(-0.0110036 -0.00120542 0)
(-0.0120475 -0.00139484 0)
(-0.013184 -0.00159083 0)
(-0.0144173 -0.00179306 0)
(-0.015751 -0.00200119 0)
(-0.0171883 -0.00221485 0)
(-0.0187319 -0.00243362 0)
(-0.020384 -0.00265708 0)
(-0.0221457 -0.00288473 0)
(-0.0240176 -0.00311604 0)
(-0.0259993 -0.00335031 0)
(-0.0280896 -0.00358655 0)
(-0.0302859 -0.0038232 0)
(-0.0325844 -0.00405782 0)
(-0.03498 -0.00428685 0)
(-0.0374654 -0.0045057 0)
(-0.0400316 -0.00470924 0)
(-0.0426671 -0.00489265 0)
(-0.0453586 -0.00505246 0)
(-0.0480911 -0.00518723 0)
(-0.0508482 -0.00529762 0)
(-0.0536134 -0.00538618 0)
(-0.05637 -0.00545683 0)
(-0.0591022 -0.00551383 0)
(-0.0617946 -0.00556035 0)
(-0.0644319 -0.00559765 0)
(-0.0669985 -0.00562572 0)
(-0.0694786 -0.00564448 0)
(-0.0718571 -0.00565463 0)
(-0.0741201 -0.00565744 0)
(-0.0762769 -0.00565419 0)
(-0.0783317 -0.00564602 0)
(-0.0802668 -0.00563429 0)
(-0.082065 -0.00561979 0)
(-0.0837101 -0.00560283 0)
(-0.0851884 -0.00558428 0)
(-0.0864885 -0.00556484 0)
(-0.0876009 -0.00554441 0)
(-0.0885195 -0.00552323 0)
(-0.0892422 -0.00550175 0)
(-0.0897692 -0.00547994 0)
(-0.0901037 -0.00545785 0)
(-0.0902515 -0.00543553 0)
(-0.0902193 -0.00541266 0)
(-0.0900161 -0.00538949 0)
(-0.0896509 -0.00536592 0)
(-0.0891311 -0.00534119 0)
(-0.088466 -0.00531556 0)
(-0.0876643 -0.00528916 0)
(-0.0867321 -0.00526133 0)
(-0.085676 -0.0052319 0)
(-0.0845021 -0.00520067 0)
(-0.0832164 -0.00516773 0)
(-0.0818236 -0.00513265 0)
(-0.0803268 -0.00509431 0)
(-0.0787319 -0.00505302 0)
(-0.0770431 -0.00500808 0)
(-0.0752635 -0.00495815 0)
(-0.0733988 -0.0049029 0)
(-0.0714545 -0.00484144 0)
(-0.0694365 -0.00477249 0)
(-0.0673497 -0.00469349 0)
(-0.0651939 -0.00459455 0)
(-0.0629847 -0.00447607 0)
(-0.0607423 -0.00433692 0)
(-0.0583676 -0.00415577 0)
(-0.000274243 0.00312952 0)
(-0.000165673 -0.00586949 0)
(-0.000566103 0.0262738 0)
(-0.00034717 0.0396417 0)
(-0.000583713 0.0395964 0)
(-0.000552378 0.0396024 0)
(-0.000546779 0.0396033 0)
(-0.000532973 0.0396041 0)
(-0.000513276 0.039604 0)
(-0.000485239 0.0396029 0)
(-0.000445969 0.0396001 0)
(-0.00039474 0.0395946 0)
(-0.000301673 0.0395813 0)
(-6.04016e-05 0.0395634 0)
(-2.32861e-06 0.0395521 0)
(4.73886e-08 0.0395501 0)
(1.18234e-07 0.0395501 0)
(1.40878e-07 0.0395501 0)
(1.54951e-07 0.0395501 0)
(1.66303e-07 0.0395501 0)
(1.75272e-07 0.0395501 0)
(1.82342e-07 0.0395501 0)
(1.87894e-07 0.0395501 0)
(1.92239e-07 0.0395501 0)
(1.95627e-07 0.0395501 0)
(1.98257e-07 0.0395501 0)
(2.00288e-07 0.0395501 0)
(2.01849e-07 0.0395501 0)
(2.03041e-07 0.0395501 0)
(2.03946e-07 0.0395501 0)
(2.04629e-07 0.0395501 0)
(2.05139e-07 0.0395501 0)
(2.05476e-07 0.0395501 0)
(2.05709e-07 0.0395501 0)
(2.05962e-07 0.0395501 0)
(2.06212e-07 0.0395501 0)
(2.06323e-07 0.0395501 0)
(2.06391e-07 0.0395501 0)
(2.0644e-07 0.0395501 0)
(2.06474e-07 0.0395501 0)
(2.06498e-07 0.0395501 0)
(2.06515e-07 0.0395501 0)
(2.06527e-07 0.0395501 0)
(2.06535e-07 0.0395501 0)
(2.0654e-07 0.0395501 0)
(2.06544e-07 0.0395501 0)
(2.06546e-07 0.0395501 0)
(2.06548e-07 0.0395501 0)
(2.06549e-07 0.0395501 0)
(2.0655e-07 0.0395501 0)
(2.0655e-07 0.0395501 0)
(2.0655e-07 0.0395501 0)
(2.06551e-07 0.0395501 0)
(2.06551e-07 0.0395501 0)
(2.06551e-07 0.0395501 0)
(2.06551e-07 0.0395501 0)
(2.06551e-07 0.0395501 0)
(2.06551e-07 0.0395501 0)
(2.06551e-07 0.0395501 0)
(2.06551e-07 0.0395501 0)
(2.06551e-07 0.0395501 0)
(2.06551e-07 0.0395501 0)
(2.06551e-07 0.0395501 0)
(2.06551e-07 0.0395501 0)
(2.06551e-07 0.0395501 0)
(2.06551e-07 0.0395501 0)
(2.06551e-07 0.0395501 0)
(2.06551e-07 0.0395501 0)
(2.06551e-07 0.0395501 0)
(2.06551e-07 0.0395501 0)
(2.06551e-07 0.0395501 0)
(2.06551e-07 0.0395501 0)
(2.06551e-07 0.0395501 0)
(2.06551e-07 0.0395501 0)
(2.06551e-07 0.0395501 0)
(2.06551e-07 0.0395501 0)
(2.06551e-07 0.0395501 0)
(2.06551e-07 0.0395501 0)
(2.06551e-07 0.0395501 0)
(2.06551e-07 0.0395501 0)
(2.06551e-07 0.0395501 0)
(2.06551e-07 0.0395501 0)
(2.06551e-07 0.0395501 0)
(2.06551e-07 0.0395501 0)
(2.06551e-07 0.0395501 0)
(2.06551e-07 0.0395501 0)
(2.06551e-07 0.0395501 0)
(2.06551e-07 0.0395501 0)
(2.06551e-07 0.0395501 0)
(2.06551e-07 0.0395501 0)
(2.06551e-07 0.0395501 0)
(2.06551e-07 0.0395501 0)
(2.06551e-07 0.0395501 0)
(2.06551e-07 0.0395501 0)
(2.06551e-07 0.0395501 0)
(2.06551e-07 0.0395501 0)
(2.06551e-07 0.0395501 0)
(2.06551e-07 0.0395501 0)
(2.06551e-07 0.0395501 0)
(2.06551e-07 0.0395501 0)
(2.06551e-07 0.0395501 0)
(2.06551e-07 0.0395501 0)
(2.06551e-07 0.0395501 0)
(2.06551e-07 0.0395501 0)
(2.06551e-07 0.0395501 0)
(2.06551e-07 0.0395501 0)
(2.06551e-07 0.0395501 0)
(2.06551e-07 0.0395501 0)
(2.06551e-07 0.0395501 0)
(2.06551e-07 0.0395501 0)
(2.06551e-07 0.0395501 0)
(2.06551e-07 0.0395501 0)
(2.06551e-07 0.0395501 0)
(2.06551e-07 0.0395501 0)
(2.06551e-07 0.0395501 0)
(2.06551e-07 0.0395501 0)
(2.06551e-07 0.0395501 0)
(2.06551e-07 0.0395501 0)
(2.06552e-07 0.03955 0)
(2.06582e-07 0.0395499 0)
(2.0722e-07 0.0395414 0)
(2.19121e-07 0.039197 0)
(4.17216e-07 0.0225005 0)
)
;

boundaryField
{
    inandouthalf11
    {
        type            cyclic;
    }
    inandouthalf12
    {
        type            cyclic;
    }
    inandouthalf21
    {
        type            cyclic;
    }
    inandouthalf22
    {
        type            cyclic;
    }
    inandouthalf31
    {
        type            cyclic;
    }
    inandouthalf32
    {
        type            cyclic;
    }
    inandouthalf41
    {
        type            cyclic;
    }
    inandouthalf42
    {
        type            cyclic;
    }
    top
    {
        type            symmetryPlane;
    }
    walls
    {
        type            calculated;
        value           uniform (0 0 0);
    }
    frontAndBackPlanes
    {
        type            empty;
    }
}


// ************************************************************************* //
