/*--------------------------------*- C++ -*----------------------------------*\
| =========                 |                                                 |
| \\      /  F ield         | OpenFOAM: The Open Source CFD Toolbox           |
|  \\    /   O peration     | Version:  2.4.x                                 |
|   \\  /    A nd           | Web:      www.OpenFOAM.org                      |
|    \\/     M anipulation  |                                                 |
\*---------------------------------------------------------------------------*/
FoamFile
{
    version     2.0;
    format      ascii;
    class       surfaceScalarField;
    location    "2.15";
    object      ddt0(phia);
}
// * * * * * * * * * * * * * * * * * * * * * * * * * * * * * * * * * * * * * //

dimensions      [0 3 -2 0 0 0 0];

internalField   nonuniform List<scalar> 
359
(
-1.31676e-40
-1.31736e-40
-1.31939e-40
-1.3238e-40
-1.33144e-40
-1.34329e-40
-1.36031e-40
-1.38338e-40
-1.4131e-40
-1.44983e-40
-1.49363e-40
-1.54423e-40
-1.60135e-40
-1.66461e-40
-1.73367e-40
-1.80832e-40
-1.88854e-40
-1.97455e-40
-2.06681e-40
-2.16618e-40
-2.27348e-40
-2.39003e-40
-2.51725e-40
-2.65681e-40
-2.81068e-40
-2.9813e-40
-3.17173e-40
-3.38596e-40
-3.6286e-40
-3.90533e-40
-4.22317e-40
-4.59166e-40
-5.02232e-40
-5.53211e-40
-6.14191e-40
-6.88188e-40
-7.79337e-40
-8.93577e-40
-1.03948e-39
-1.22904e-39
-1.48092e-39
-1.82281e-39
-2.29839e-39
-2.97891e-39
-3.98364e-39
-5.51859e-39
-7.96919e-39
-1.20686e-38
-1.9396e-38
-3.3419e-38
-6.2808e-38
-1.30499e-37
-3.09513e-37
-8.45951e-37
-2.77127e-36
-1.1162e-35
-6.21352e-35
-4.48651e-34
-4.58594e-33
-8.13386e-32
-2.33542e-29
-1.12452e-25
-3.17998e-21
-8.3033e-16
-2.67407e-12
-2.17562e-11
-7.38417e-11
-1.39901e-10
-1.71531e-10
-1.54995e-10
-1.1689e-10
-8.13702e-11
-5.5708e-11
-3.86519e-11
-2.75653e-11
-2.04154e-11
-1.5862e-11
-1.2939e-11
-1.08471e-11
-8.89572e-12
-6.57359e-12
-3.63939e-12
-1.30559e-13
3.73351e-12
7.68743e-12
1.15174e-11
1.50989e-11
1.83881e-11
2.13956e-11
2.41597e-11
2.67246e-11
2.91274e-11
3.13936e-11
3.35381e-11
3.55693e-11
3.74947e-11
3.93249e-11
4.10773e-11
4.27772e-11
4.44584e-11
4.61622e-11
4.79357e-11
4.98299e-11
5.18962e-11
5.41839e-11
5.67364e-11
5.95891e-11
6.27669e-11
6.62836e-11
7.01411e-11
7.43308e-11
7.88342e-11
8.36258e-11
8.8674e-11
9.39442e-11
9.93998e-11
1.05004e-10
1.10721e-10
1.16515e-10
1.22355e-10
1.28211e-10
1.34058e-10
1.39878e-10
1.45659e-10
1.51402e-10
1.57113e-10
1.62803e-10
1.68479e-10
1.74134e-10
1.79743e-10
1.85268e-10
1.9068e-10
1.95985e-10
2.01217e-10
2.06403e-10
2.11501e-10
2.16376e-10
2.20849e-10
2.24712e-10
2.27711e-10
2.2964e-10
2.30588e-10
2.31022e-10
2.31262e-10
2.31426e-10
2.31549e-10
2.3162e-10
2.31558e-10
1.30757e-08
3.46175e-07
2.24113e-07
4.93418e-07
9.81669e-07
1.45756e-06
1.68443e-06
1.58055e-06
1.45645e-06
9.81347e-07
8.01678e-07
6.68948e-07
5.89453e-07
5.59869e-07
5.50644e-07
5.37611e-07
5.18956e-07
4.99773e-07
4.81081e-07
4.63588e-07
4.47455e-07
4.3255e-07
4.1877e-07
4.05976e-07
3.94071e-07
3.82918e-07
3.72486e-07
3.62686e-07
3.53452e-07
3.4473e-07
3.36513e-07
3.28699e-07
3.21305e-07
3.1427e-07
3.07578e-07
3.01204e-07
2.95126e-07
2.89321e-07
2.83762e-07
2.78449e-07
2.73379e-07
2.68507e-07
2.63819e-07
2.5934e-07
2.55052e-07
2.50947e-07
2.46988e-07
2.43173e-07
2.3953e-07
2.36075e-07
2.32792e-07
2.29636e-07
2.26581e-07
2.23602e-07
2.20751e-07
2.18029e-07
2.15368e-07
2.12708e-07
2.10098e-07
2.07611e-07
2.05223e-07
2.02845e-07
2.00488e-07
1.98235e-07
1.9605e-07
1.93841e-07
1.91665e-07
1.89604e-07
1.87598e-07
1.85541e-07
1.83485e-07
1.81516e-07
1.79581e-07
1.77602e-07
1.75647e-07
1.73716e-07
1.71717e-07
1.6973e-07
1.67773e-07
1.65715e-07
1.63597e-07
1.615e-07
1.59305e-07
1.56942e-07
1.54518e-07
1.51988e-07
1.4928e-07
1.4643e-07
1.43522e-07
1.40641e-07
1.3784e-07
1.35105e-07
1.31873e-07
-6.53712e-07
-7.3353e-07
4.15039e-10
4.11367e-10
4.1166e-10
4.1127e-10
4.11612e-10
4.1131e-10
4.11548e-10
4.1135e-10
4.11494e-10
4.11388e-10
4.11448e-10
4.11422e-10
4.1141e-10
4.11452e-10
4.11377e-10
4.11471e-10
4.11366e-10
4.11482e-10
4.11352e-10
4.11503e-10
4.11322e-10
4.11521e-10
4.1131e-10
4.11533e-10
4.11299e-10
4.11542e-10
4.1129e-10
4.1155e-10
4.11284e-10
4.11555e-10
4.11279e-10
4.11558e-10
4.11277e-10
4.11559e-10
4.11277e-10
4.11559e-10
4.11278e-10
4.11557e-10
4.1128e-10
4.11554e-10
4.11284e-10
4.1155e-10
4.11288e-10
4.11544e-10
4.11293e-10
4.11539e-10
4.11299e-10
4.11532e-10
4.11306e-10
4.11526e-10
4.11312e-10
4.11519e-10
4.11319e-10
4.11512e-10
4.11326e-10
4.11504e-10
4.11332e-10
4.11497e-10
4.11338e-10
4.1149e-10
4.11344e-10
4.11484e-10
4.1135e-10
4.11477e-10
4.11355e-10
4.11471e-10
4.1136e-10
4.11465e-10
4.11364e-10
4.1146e-10
4.11368e-10
4.11456e-10
4.11371e-10
4.11452e-10
4.11373e-10
4.11448e-10
4.11375e-10
4.11444e-10
4.11377e-10
4.11441e-10
4.11378e-10
4.11437e-10
4.11377e-10
4.11431e-10
4.11372e-10
4.11418e-10
4.11359e-10
4.11399e-10
4.11343e-10
4.11378e-10
4.11326e-10
4.11357e-10
4.1131e-10
4.11337e-10
4.11293e-10
4.11316e-10
4.1128e-10
4.11299e-10
4.11268e-10
4.11285e-10
4.11256e-10
4.11272e-10
4.1124e-10
4.1127e-10
4.11226e-10
4.11255e-10
4.11219e-10
4.11256e-10
4.11231e-10
4.1126e-10
4.11248e-10
4.11274e-10
4.11303e-10
4.11553e-10
4.16472e-10
6.38699e-10
)
;

boundaryField
{
    inandouthalf11
    {
        type            cyclic;
        value           nonuniform List<scalar> 
100
(
2.70745e-42
2.70876e-42
2.71212e-42
2.72151e-42
2.7392e-42
2.7679e-42
2.81048e-42
2.86966e-42
2.94764e-42
3.04595e-42
3.16525e-42
3.30539e-42
3.46567e-42
3.64522e-42
3.84317e-42
4.05887e-42
4.29209e-42
4.54325e-42
4.81351e-42
5.10489e-42
5.42003e-42
5.76227e-42
6.1358e-42
6.54544e-42
6.99685e-42
7.49686e-42
8.05406e-42
8.67943e-42
9.38645e-42
1.01912e-41
1.11137e-41
1.21794e-41
1.34216e-41
1.48843e-41
1.66265e-41
1.87273e-41
2.12967e-41
2.44912e-41
2.85323e-41
3.37394e-41
4.05773e-41
4.97577e-41
6.23535e-41
8.01117e-41
1.05827e-40
1.44386e-40
2.0415e-40
3.01403e-40
4.67145e-40
7.71108e-40
1.36479e-39
2.64791e-39
5.67713e-39
1.39865e-38
3.94843e-38
1.34415e-37
5.60536e-37
3.2531e-36
2.39378e-35
2.49874e-34
4.53387e-33
1.32418e-30
6.27185e-27
1.73246e-22
4.40875e-17
1.46114e-13
1.04817e-12
3.09457e-12
5.20411e-12
6.10618e-12
5.96266e-12
5.51515e-12
5.1493e-12
4.93399e-12
4.84148e-12
4.83848e-12
4.90262e-12
5.01918e-12
5.1759e-12
5.36002e-12
5.55844e-12
5.76022e-12
5.95896e-12
6.15311e-12
6.34442e-12
6.53594e-12
6.73056e-12
6.93039e-12
7.13658e-12
7.34954e-12
7.56912e-12
7.79491e-12
8.02646e-12
8.26347e-12
8.50583e-12
8.75366e-12
9.00715e-12
9.26655e-12
9.53208e-12
9.80388e-12
)
;
    }
    inandouthalf12
    {
        type            cyclic;
        value           nonuniform List<scalar> 
100
(
-2.70745e-42
-2.70876e-42
-2.71212e-42
-2.72151e-42
-2.7392e-42
-2.7679e-42
-2.81048e-42
-2.86966e-42
-2.94764e-42
-3.04595e-42
-3.16525e-42
-3.30539e-42
-3.46567e-42
-3.64522e-42
-3.84317e-42
-4.05887e-42
-4.29209e-42
-4.54325e-42
-4.81351e-42
-5.10489e-42
-5.42003e-42
-5.76227e-42
-6.1358e-42
-6.54544e-42
-6.99685e-42
-7.49686e-42
-8.05406e-42
-8.67943e-42
-9.38645e-42
-1.01912e-41
-1.11137e-41
-1.21794e-41
-1.34216e-41
-1.48843e-41
-1.66265e-41
-1.87273e-41
-2.12967e-41
-2.44912e-41
-2.85323e-41
-3.37394e-41
-4.05773e-41
-4.97577e-41
-6.23535e-41
-8.01117e-41
-1.05827e-40
-1.44386e-40
-2.0415e-40
-3.01403e-40
-4.67145e-40
-7.71108e-40
-1.36479e-39
-2.64791e-39
-5.67713e-39
-1.39865e-38
-3.94843e-38
-1.34415e-37
-5.60536e-37
-3.2531e-36
-2.39378e-35
-2.49874e-34
-4.53387e-33
-1.32418e-30
-6.27185e-27
-1.73246e-22
-4.40875e-17
-1.46114e-13
-1.04817e-12
-3.09457e-12
-5.20411e-12
-6.10618e-12
-5.96266e-12
-5.51515e-12
-5.1493e-12
-4.93399e-12
-4.84148e-12
-4.83848e-12
-4.90262e-12
-5.01918e-12
-5.1759e-12
-5.36002e-12
-5.55844e-12
-5.76022e-12
-5.95896e-12
-6.15311e-12
-6.34442e-12
-6.53594e-12
-6.73056e-12
-6.93039e-12
-7.13658e-12
-7.34954e-12
-7.56912e-12
-7.79491e-12
-8.02646e-12
-8.26347e-12
-8.50583e-12
-8.75366e-12
-9.00715e-12
-9.26655e-12
-9.53208e-12
-9.80388e-12
)
;
    }
    inandouthalf21
    {
        type            cyclic;
        value           nonuniform List<scalar> 
100
(
1.0082e-11
1.03664e-11
1.06572e-11
1.09544e-11
1.12581e-11
1.15686e-11
1.18862e-11
1.22114e-11
1.25445e-11
1.28862e-11
1.32369e-11
1.35974e-11
1.39679e-11
1.43492e-11
1.47415e-11
1.51451e-11
1.55605e-11
1.59878e-11
1.64272e-11
1.68787e-11
1.73423e-11
1.78182e-11
1.83061e-11
1.88064e-11
1.93195e-11
1.98466e-11
2.03891e-11
2.0949e-11
2.15277e-11
2.21255e-11
2.27413e-11
2.33732e-11
2.4021e-11
2.46885e-11
2.53824e-11
2.61073e-11
2.68585e-11
2.76231e-11
2.83776e-11
2.9082e-11
2.96599e-11
3.00569e-11
3.02954e-11
3.0451e-11
3.0558e-11
3.06469e-11
3.07067e-11
3.07676e-11
3.08752e-11
-5.34988e-08
-2.34835e-07
3.19127e-07
6.99746e-07
1.02254e-06
1.31211e-06
1.5924e-06
1.87583e-06
2.1084e-06
1.99525e-06
1.65824e-06
1.37259e-06
1.15674e-06
1.01878e-06
9.49281e-07
9.19942e-07
9.07763e-07
9.02443e-07
9.00169e-07
8.99562e-07
8.99956e-07
9.00963e-07
9.02348e-07
9.03993e-07
9.05763e-07
9.07584e-07
9.09443e-07
9.1131e-07
9.1311e-07
9.14882e-07
9.16619e-07
9.18255e-07
9.19855e-07
9.21365e-07
9.22809e-07
9.24175e-07
9.25484e-07
9.26724e-07
9.27873e-07
9.28945e-07
9.29988e-07
9.30969e-07
9.31844e-07
9.3267e-07
9.33433e-07
9.34166e-07
9.34845e-07
9.35446e-07
9.35978e-07
9.36459e-07
9.36908e-07
)
;
    }
    inandouthalf22
    {
        type            cyclic;
        value           nonuniform List<scalar> 
100
(
-1.0082e-11
-1.03664e-11
-1.06572e-11
-1.09544e-11
-1.12581e-11
-1.15686e-11
-1.18862e-11
-1.22114e-11
-1.25445e-11
-1.28862e-11
-1.32369e-11
-1.35974e-11
-1.39679e-11
-1.43492e-11
-1.47415e-11
-1.51451e-11
-1.55605e-11
-1.59878e-11
-1.64272e-11
-1.68787e-11
-1.73423e-11
-1.78182e-11
-1.83061e-11
-1.88064e-11
-1.93195e-11
-1.98466e-11
-2.03891e-11
-2.0949e-11
-2.15277e-11
-2.21255e-11
-2.27413e-11
-2.33732e-11
-2.4021e-11
-2.46885e-11
-2.53824e-11
-2.61073e-11
-2.68585e-11
-2.76231e-11
-2.83776e-11
-2.9082e-11
-2.96599e-11
-3.00569e-11
-3.02954e-11
-3.0451e-11
-3.0558e-11
-3.06469e-11
-3.07067e-11
-3.07676e-11
-3.08752e-11
5.34988e-08
2.34835e-07
-3.19127e-07
-6.99746e-07
-1.02254e-06
-1.31211e-06
-1.5924e-06
-1.87583e-06
-2.1084e-06
-1.99525e-06
-1.65824e-06
-1.37259e-06
-1.15674e-06
-1.01878e-06
-9.49281e-07
-9.19942e-07
-9.07763e-07
-9.02443e-07
-9.00169e-07
-8.99562e-07
-8.99956e-07
-9.00963e-07
-9.02348e-07
-9.03993e-07
-9.05763e-07
-9.07584e-07
-9.09443e-07
-9.1131e-07
-9.1311e-07
-9.14882e-07
-9.16619e-07
-9.18255e-07
-9.19855e-07
-9.21365e-07
-9.22809e-07
-9.24175e-07
-9.25484e-07
-9.26724e-07
-9.27873e-07
-9.28945e-07
-9.29988e-07
-9.30969e-07
-9.31844e-07
-9.3267e-07
-9.33433e-07
-9.34166e-07
-9.34845e-07
-9.35446e-07
-9.35978e-07
-9.36459e-07
-9.36908e-07
)
;
    }
    inandouthalf31
    {
        type            cyclic;
        value           nonuniform List<scalar> 
110
(
9.37329e-07
9.56738e-07
9.76496e-07
9.96612e-07
1.01709e-06
1.03796e-06
1.05924e-06
1.08095e-06
1.10305e-06
1.12552e-06
1.14843e-06
1.17184e-06
1.19568e-06
1.21987e-06
1.24456e-06
1.26986e-06
1.29563e-06
1.3217e-06
1.34826e-06
1.37554e-06
1.40334e-06
1.43149e-06
1.4602e-06
1.48956e-06
1.51927e-06
1.54952e-06
1.58055e-06
1.61186e-06
1.6435e-06
1.67591e-06
1.70877e-06
1.74163e-06
1.77487e-06
1.80854e-06
1.84217e-06
1.87575e-06
1.90946e-06
1.94346e-06
1.97777e-06
2.01216e-06
2.04623e-06
2.07794e-06
-2.97447e-07
2.03437e-06
2.07568e-06
2.11781e-06
2.16079e-06
2.20465e-06
2.2494e-06
2.29505e-06
2.34164e-06
2.38917e-06
2.43766e-06
2.48714e-06
2.53762e-06
2.58913e-06
2.64168e-06
2.6953e-06
2.75001e-06
2.80582e-06
2.86277e-06
2.92088e-06
2.98017e-06
3.04066e-06
3.10237e-06
3.16534e-06
3.22959e-06
3.29514e-06
3.36203e-06
3.43027e-06
3.49989e-06
3.57093e-06
3.64341e-06
3.71736e-06
3.79282e-06
3.8698e-06
3.94835e-06
4.02849e-06
4.11026e-06
4.19368e-06
4.2788e-06
4.36565e-06
4.45426e-06
4.54467e-06
4.63692e-06
4.73103e-06
4.82706e-06
4.92504e-06
5.025e-06
5.127e-06
5.23106e-06
5.33724e-06
5.44557e-06
5.5561e-06
5.66887e-06
5.78394e-06
5.90134e-06
6.02112e-06
6.14333e-06
6.26802e-06
6.39525e-06
6.52505e-06
6.65749e-06
6.79262e-06
6.9305e-06
7.07117e-06
7.21469e-06
7.36113e-06
7.51054e-06
7.66299e-06
)
;
    }
    inandouthalf32
    {
        type            cyclic;
        value           nonuniform List<scalar> 
110
(
-9.37329e-07
-9.56738e-07
-9.76496e-07
-9.96612e-07
-1.01709e-06
-1.03796e-06
-1.05924e-06
-1.08095e-06
-1.10305e-06
-1.12552e-06
-1.14843e-06
-1.17184e-06
-1.19568e-06
-1.21987e-06
-1.24456e-06
-1.26986e-06
-1.29563e-06
-1.3217e-06
-1.34826e-06
-1.37554e-06
-1.40334e-06
-1.43149e-06
-1.4602e-06
-1.48956e-06
-1.51927e-06
-1.54952e-06
-1.58055e-06
-1.61186e-06
-1.6435e-06
-1.67591e-06
-1.70877e-06
-1.74163e-06
-1.77487e-06
-1.80854e-06
-1.84217e-06
-1.87575e-06
-1.90946e-06
-1.94346e-06
-1.97777e-06
-2.01216e-06
-2.04623e-06
-2.07794e-06
2.97447e-07
-2.03437e-06
-2.07568e-06
-2.11781e-06
-2.16079e-06
-2.20465e-06
-2.2494e-06
-2.29505e-06
-2.34164e-06
-2.38917e-06
-2.43766e-06
-2.48714e-06
-2.53762e-06
-2.58913e-06
-2.64168e-06
-2.6953e-06
-2.75001e-06
-2.80582e-06
-2.86277e-06
-2.92088e-06
-2.98017e-06
-3.04066e-06
-3.10237e-06
-3.16534e-06
-3.22959e-06
-3.29514e-06
-3.36203e-06
-3.43027e-06
-3.49989e-06
-3.57093e-06
-3.64341e-06
-3.71736e-06
-3.79282e-06
-3.8698e-06
-3.94835e-06
-4.02849e-06
-4.11026e-06
-4.19368e-06
-4.2788e-06
-4.36565e-06
-4.45426e-06
-4.54467e-06
-4.63692e-06
-4.73103e-06
-4.82706e-06
-4.92504e-06
-5.025e-06
-5.127e-06
-5.23106e-06
-5.33724e-06
-5.44557e-06
-5.5561e-06
-5.66887e-06
-5.78394e-06
-5.90134e-06
-6.02112e-06
-6.14333e-06
-6.26802e-06
-6.39525e-06
-6.52505e-06
-6.65749e-06
-6.79262e-06
-6.9305e-06
-7.07117e-06
-7.21469e-06
-7.36113e-06
-7.51054e-06
-7.66299e-06
)
;
    }
    inandouthalf41
    {
        type            cyclic;
        value           nonuniform List<scalar> 
50
(
6.85915e-06
6.85915e-06
6.85915e-06
6.85915e-06
6.85915e-06
6.85915e-06
6.85915e-06
6.85915e-06
6.85915e-06
6.85915e-06
6.85915e-06
6.85915e-06
6.85915e-06
6.85915e-06
6.85915e-06
6.85915e-06
6.85915e-06
6.85915e-06
6.85915e-06
6.85915e-06
6.85915e-06
6.85915e-06
6.85915e-06
6.85915e-06
6.85915e-06
6.85915e-06
6.85915e-06
6.85915e-06
6.85915e-06
6.85915e-06
6.85915e-06
6.85915e-06
6.85915e-06
6.85915e-06
6.85915e-06
6.85915e-06
6.85915e-06
6.85915e-06
6.85915e-06
6.85915e-06
6.85915e-06
6.85915e-06
6.85915e-06
6.85915e-06
6.85915e-06
6.85915e-06
6.85915e-06
6.85914e-06
6.85886e-06
6.85246e-06
)
;
    }
    inandouthalf42
    {
        type            cyclic;
        value           nonuniform List<scalar> 
50
(
-6.85915e-06
-6.85915e-06
-6.85915e-06
-6.85915e-06
-6.85915e-06
-6.85915e-06
-6.85915e-06
-6.85915e-06
-6.85915e-06
-6.85915e-06
-6.85915e-06
-6.85915e-06
-6.85915e-06
-6.85915e-06
-6.85915e-06
-6.85915e-06
-6.85915e-06
-6.85915e-06
-6.85915e-06
-6.85915e-06
-6.85915e-06
-6.85915e-06
-6.85915e-06
-6.85915e-06
-6.85915e-06
-6.85915e-06
-6.85915e-06
-6.85915e-06
-6.85915e-06
-6.85915e-06
-6.85915e-06
-6.85915e-06
-6.85915e-06
-6.85915e-06
-6.85915e-06
-6.85915e-06
-6.85915e-06
-6.85915e-06
-6.85915e-06
-6.85915e-06
-6.85915e-06
-6.85915e-06
-6.85915e-06
-6.85915e-06
-6.85915e-06
-6.85915e-06
-6.85915e-06
-6.85914e-06
-6.85886e-06
-6.85246e-06
)
;
    }
    top
    {
        type            symmetryPlane;
        value           uniform 0;
    }
    walls
    {
        type            calculated;
        value           uniform 0;
    }
    frontAndBackPlanes
    {
        type            empty;
        value           nonuniform 0();
    }
}


// ************************************************************************* //
