/*--------------------------------*- C++ -*----------------------------------*\
| =========                 |                                                 |
| \\      /  F ield         | OpenFOAM: The Open Source CFD Toolbox           |
|  \\    /   O peration     | Version:  2.4.x                                 |
|   \\  /    A nd           | Web:      www.OpenFOAM.org                      |
|    \\/     M anipulation  |                                                 |
\*---------------------------------------------------------------------------*/
FoamFile
{
    version     2.0;
    format      ascii;
    class       volScalarField;
    location    "2.15";
    object      pa;
}
// * * * * * * * * * * * * * * * * * * * * * * * * * * * * * * * * * * * * * //

dimensions      [1 -1 -2 0 0 0 0];

internalField   nonuniform List<scalar> 
360
(
2.87809e-16
2.87809e-16
2.87806e-16
2.87806e-16
2.87806e-16
2.87803e-16
2.87803e-16
2.878e-16
2.878e-16
2.87798e-16
2.87795e-16
2.87795e-16
2.87792e-16
2.87789e-16
2.87786e-16
2.87783e-16
2.8778e-16
2.87778e-16
2.87775e-16
2.87769e-16
2.87766e-16
2.8776e-16
2.87755e-16
2.87749e-16
2.87743e-16
2.87738e-16
2.87732e-16
2.87723e-16
2.87715e-16
2.87706e-16
2.87697e-16
2.87686e-16
2.87677e-16
2.87663e-16
2.87652e-16
2.87637e-16
2.87623e-16
2.87606e-16
2.87586e-16
2.87569e-16
2.87546e-16
2.87523e-16
2.875e-16
2.87472e-16
2.87443e-16
2.87412e-16
2.87378e-16
2.87343e-16
2.87303e-16
2.87258e-16
2.87212e-16
2.87161e-16
2.87107e-16
2.87047e-16
2.86984e-16
2.86913e-16
2.86839e-16
2.86756e-16
2.86668e-16
2.86574e-16
2.86469e-16
2.86358e-16
2.86236e-16
2.86105e-16
2.85966e-16
2.86032e-16
2.89387e-16
3.05258e-16
3.27517e-16
3.2854e-16
3.12516e-16
2.99185e-16
2.92383e-16
2.89348e-16
2.87997e-16
2.87401e-16
2.87198e-16
2.87242e-16
2.87453e-16
2.87745e-16
2.8801e-16
2.88154e-16
2.88132e-16
2.87966e-16
2.87714e-16
2.87439e-16
2.87181e-16
2.86959e-16
2.86775e-16
2.86619e-16
2.86482e-16
2.86352e-16
2.86225e-16
2.86102e-16
2.85984e-16
2.85876e-16
2.85781e-16
2.857e-16
2.85633e-16
2.85574e-16
0
0
0
0
0
0
0
0
0
0
0
0
0
0
0
2.83365e-16
2.83014e-16
2.82639e-16
2.82243e-16
2.81827e-16
2.8139e-16
2.80934e-16
2.80459e-16
2.79967e-16
2.79463e-16
2.7895e-16
2.78428e-16
2.77894e-16
2.77332e-16
2.76722e-16
2.76047e-16
2.75314e-16
2.74552e-16
2.73793e-16
2.73036e-16
2.72249e-16
2.71403e-16
2.705e-16
2.69496e-16
2.68998e-16
2.40747e-15
1.07815e-13
5.1091e-12
2.5168e-10
1.29806e-08
7.30911e-07
0.00010122
0.0182335
0.714763
4.27825
2.57208
1.92793
1.4001
1.02708
0.761608
0.571166
0.426297
0.30602
0.212549
0.139886
0.0853317
0.0470252
0.0230597
0.0106694
0.00545766
0.00335814
0.0023348
0.00179257
0.00138776
0.00114214
0.000923064
0.000790139
0.000649965
0.000568947
0.000479451
0.0004245
0.000358548
0.000323497
0.000278335
0.000245406
0.00021969
0.000190125
0.000173368
0.000149969
0.000137755
0.000119137
0.000109122
9.54515e-05
8.83921e-05
7.66968e-05
6.91681e-05
6.31635e-05
5.57549e-05
5.15915e-05
4.46108e-05
4.09339e-05
3.6281e-05
3.39181e-05
3.00989e-05
2.7378e-05
2.34782e-05
2.15788e-05
1.94474e-05
1.82604e-05
1.60883e-05
1.37159e-05
1.2174e-05
1.11456e-05
1.02804e-05
8.77647e-06
7.4866e-06
6.83542e-06
6.21342e-06
5.16899e-06
4.39321e-06
4.02247e-06
3.62081e-06
2.98503e-06
2.4506e-06
2.19054e-06
1.94413e-06
1.58142e-06
1.32386e-06
1.1746e-06
9.46239e-07
7.69751e-07
6.7861e-07
5.55917e-07
4.26523e-07
3.63157e-07
3.02897e-07
2.24728e-07
1.79974e-07
1.4553e-07
1.06216e-07
8.40004e-08
6.01729e-08
4.75761e-08
3.74888e-08
2.887e-08
1.94365e-08
0
0
0
0
0
0
0
0
0
0
0
0
0
0
0
0
0
0
0
0
0
0
0
0
0
0
0
0
0
0
0
0
0
0
0
0
0
0
0
0
0
0
0
0
0
0
0
0
0
0
0
0
0
0
0
0
0
0
0
0
0
0
0
0
0
0
0
0
0
0
0
0
0
0
0
0
0
0
0
0
0
0
0
0
0
0
0
0
0
0
0
0
0
0
0
0
0
0
0
0
0
0
0
0
0
0
0
0
0
0
0
0
0
0
0
0
0
0
0
)
;

boundaryField
{
    inandouthalf11
    {
        type            cyclic;
    }
    inandouthalf12
    {
        type            cyclic;
    }
    inandouthalf21
    {
        type            cyclic;
    }
    inandouthalf22
    {
        type            cyclic;
    }
    inandouthalf31
    {
        type            cyclic;
    }
    inandouthalf32
    {
        type            cyclic;
    }
    inandouthalf41
    {
        type            cyclic;
    }
    inandouthalf42
    {
        type            cyclic;
    }
    top
    {
        type            symmetryPlane;
    }
    walls
    {
        type            calculated;
        value           uniform 2.87809e-16;
    }
    frontAndBackPlanes
    {
        type            empty;
    }
}


// ************************************************************************* //
