/*--------------------------------*- C++ -*----------------------------------*\
| =========                 |                                                 |
| \\      /  F ield         | OpenFOAM: The Open Source CFD Toolbox           |
|  \\    /   O peration     | Version:  2.4.x                                 |
|   \\  /    A nd           | Web:      www.OpenFOAM.org                      |
|    \\/     M anipulation  |                                                 |
\*---------------------------------------------------------------------------*/
FoamFile
{
    version     2.0;
    format      ascii;
    class       surfaceScalarField;
    location    "2.15";
    object      phib;
}
// * * * * * * * * * * * * * * * * * * * * * * * * * * * * * * * * * * * * * //

dimensions      [0 3 -1 0 0 0 0];

internalField   nonuniform List<scalar> 
359
(
5.78703e-19
1.16329e-18
1.74584e-18
2.3315e-18
2.91562e-18
3.50196e-18
4.08691e-18
4.67325e-18
5.25514e-18
5.83945e-18
6.42198e-18
7.00489e-18
7.587e-18
8.16936e-18
8.74894e-18
9.32916e-18
9.9072e-18
1.04805e-17
1.10538e-17
1.1628e-17
1.21968e-17
1.27683e-17
1.3335e-17
1.39027e-17
1.4467e-17
1.50307e-17
1.55883e-17
1.61479e-17
1.67021e-17
1.72577e-17
1.78085e-17
1.83603e-17
1.89031e-17
1.94474e-17
1.99852e-17
2.0526e-17
2.1058e-17
2.15975e-17
2.21253e-17
2.26582e-17
2.31782e-17
2.37037e-17
2.42201e-17
2.47398e-17
2.5249e-17
2.57631e-17
2.62654e-17
2.67735e-17
2.72711e-17
2.77746e-17
2.82642e-17
2.87588e-17
2.92444e-17
2.97315e-17
3.02091e-17
3.069e-17
3.11591e-17
3.1631e-17
3.20922e-17
3.25578e-17
3.30122e-17
3.34701e-17
3.39188e-17
3.73313e-17
6.26256e-14
6.79734e-13
3.20904e-12
8.93704e-12
1.71144e-11
2.53346e-11
3.19103e-11
3.66444e-11
4.00396e-11
4.2634e-11
4.48031e-11
4.67917e-11
4.87576e-11
5.08062e-11
5.29986e-11
5.53538e-11
5.78501e-11
6.04397e-11
6.30671e-11
6.5686e-11
6.82703e-11
7.0813e-11
7.33213e-11
7.58084e-11
7.82879e-11
8.07709e-11
8.3264e-11
8.57707e-11
8.82927e-11
9.0832e-11
9.33911e-11
9.59741e-11
9.85861e-11
1.01232e-10
1.03918e-10
1.06647e-10
1.09422e-10
1.12245e-10
1.15118e-10
1.1804e-10
1.21009e-10
1.24023e-10
1.27077e-10
1.30167e-10
1.33288e-10
1.36432e-10
1.39593e-10
1.42764e-10
1.45938e-10
1.49109e-10
1.5227e-10
1.55418e-10
1.58545e-10
1.61649e-10
1.64726e-10
1.67772e-10
1.70784e-10
1.73758e-10
1.76692e-10
1.79583e-10
1.8243e-10
1.85232e-10
1.87992e-10
1.90708e-10
1.93375e-10
1.95983e-10
1.98515e-10
2.00956e-10
2.03295e-10
2.05538e-10
2.07694e-10
2.09759e-10
2.11717e-10
2.13539e-10
2.15192e-10
2.16607e-10
2.17673e-10
2.18262e-10
2.18423e-10
2.1827e-10
2.1786e-10
2.17204e-10
2.16273e-10
2.1458e-10
1.41125e-10
-8.39252e-09
-7.69804e-09
-5.2764e-09
-3.31152e-09
-1.98407e-09
-1.17543e-09
-7.22022e-10
-4.61379e-10
-3.20685e-10
-2.4386e-10
-1.7642e-10
-1.15859e-10
-6.53957e-11
-3.16915e-11
-1.46561e-11
-7.62392e-12
-4.65807e-12
-3.18756e-12
-2.31967e-12
-1.74277e-12
-1.34529e-12
-1.05545e-12
-8.39982e-13
-6.73018e-13
-5.48381e-13
-4.47809e-13
-3.67529e-13
-3.03095e-13
-2.53264e-13
-2.08542e-13
-1.75104e-13
-1.45787e-13
-1.22002e-13
-1.02294e-13
-8.56293e-14
-7.18154e-14
-5.97735e-14
-5.00641e-14
-4.19039e-14
-3.49435e-14
-2.85229e-14
-2.37821e-14
-1.95324e-14
-1.59924e-14
-1.28926e-14
-1.01807e-14
-8.04383e-15
-6.28067e-15
-4.80945e-15
-3.49959e-15
-2.37304e-15
-1.44843e-15
-7.14388e-16
-9.71547e-17
4.17771e-16
8.16579e-16
1.12758e-15
1.40593e-15
1.65335e-15
1.79602e-15
1.82714e-15
1.88397e-15
1.97219e-15
1.95008e-15
1.84694e-15
1.82141e-15
1.83661e-15
1.75142e-15
1.58929e-15
1.49525e-15
1.46132e-15
1.36321e-15
1.23043e-15
1.1582e-15
1.07462e-15
9.52929e-16
8.82523e-16
8.24548e-16
7.2193e-16
6.41543e-16
5.98418e-16
5.26489e-16
4.52694e-16
4.09773e-16
3.59372e-16
3.12279e-16
2.74941e-16
2.44179e-16
2.33525e-16
2.29986e-16
2.29945e-16
2.32735e-16
6.46627e-16
3.11408e-16
2.36054e-17
2.10835e-17
1.99543e-17
1.88655e-17
1.7785e-17
1.66139e-17
1.58698e-17
1.52006e-17
1.45819e-17
1.39207e-17
1.3255e-17
1.26569e-17
1.21321e-17
1.15839e-17
1.10555e-17
1.04962e-17
1.00087e-17
9.51464e-18
9.04834e-18
8.60166e-18
8.24045e-18
7.93866e-18
7.70367e-18
7.57063e-18
7.40655e-18
7.26591e-18
7.13407e-18
7.00214e-18
6.87804e-18
6.78619e-18
6.68736e-18
6.57474e-18
6.42554e-18
6.28245e-18
6.09523e-18
5.89559e-18
5.67507e-18
5.52485e-18
5.35495e-18
5.18033e-18
4.94992e-18
4.74071e-18
4.47049e-18
4.17796e-18
3.8415e-18
3.55844e-18
3.23566e-18
2.90532e-18
2.52815e-18
2.17606e-18
1.80079e-18
1.44696e-18
1.15966e-18
7.91435e-19
7.10483e-19
6.61952e-19
6.86991e-19
6.64165e-19
6.39725e-19
6.19242e-19
5.97814e-19
5.92811e-19
5.88714e-19
5.87366e-19
5.83267e-19
5.82748e-19
5.81393e-19
5.82061e-19
5.84288e-19
5.95058e-19
6.09017e-19
6.23565e-19
6.38652e-19
6.56274e-19
6.73356e-19
6.92838e-19
7.18186e-19
7.57721e-19
8.01799e-19
8.51251e-19
9.09383e-19
9.89969e-19
1.09285e-18
1.25282e-18
1.62989e-18
2.26485e-18
3.10267e-18
3.99667e-18
4.87719e-18
5.82072e-18
6.69999e-18
7.58937e-18
8.39533e-18
9.42033e-18
1.03044e-17
1.11908e-17
1.1856e-17
1.27501e-17
1.33227e-17
1.39531e-17
1.43544e-17
1.58115e-17
1.68217e-17
1.78594e-17
1.80585e-17
1.89599e-17
1.87142e-17
1.84817e-17
1.7319e-17
1.77602e-17
1.68086e-17
1.57664e-17
1.30358e-17
1.05503e-17
7.30448e-18
4.9584e-18
)
;

boundaryField
{
    inandouthalf11
    {
        type            cyclic;
        value           nonuniform List<scalar> 
100
(
1.83893e-10
1.84206e-10
1.84208e-10
1.84208e-10
1.84208e-10
1.8421e-10
1.8421e-10
1.84211e-10
1.84211e-10
1.84213e-10
1.84214e-10
1.84214e-10
1.84216e-10
1.84217e-10
1.84219e-10
1.84221e-10
1.84222e-10
1.84224e-10
1.84225e-10
1.84228e-10
1.8423e-10
1.84233e-10
1.84236e-10
1.84239e-10
1.84242e-10
1.84245e-10
1.84248e-10
1.84253e-10
1.84258e-10
1.84262e-10
1.84267e-10
1.84273e-10
1.84278e-10
1.84286e-10
1.84292e-10
1.84299e-10
1.84307e-10
1.84317e-10
1.84327e-10
1.84337e-10
1.84349e-10
1.84361e-10
1.84374e-10
1.84389e-10
1.84405e-10
1.84422e-10
1.8444e-10
1.84459e-10
1.84481e-10
1.84505e-10
1.8453e-10
1.84558e-10
1.84588e-10
1.8462e-10
1.84654e-10
1.84693e-10
1.84733e-10
1.84778e-10
1.84826e-10
1.84878e-10
1.84935e-10
1.84996e-10
1.85062e-10
1.85134e-10
1.85212e-10
1.85295e-10
1.8539e-10
1.85506e-10
1.85642e-10
1.85778e-10
1.85903e-10
1.86014e-10
1.86117e-10
1.8622e-10
1.86324e-10
1.86431e-10
1.8654e-10
1.86651e-10
1.86764e-10
1.86877e-10
1.86989e-10
1.871e-10
1.87211e-10
1.87321e-10
1.87431e-10
1.87543e-10
1.87657e-10
1.87772e-10
1.87888e-10
1.88005e-10
1.88123e-10
1.88242e-10
1.88362e-10
1.88482e-10
1.88603e-10
1.88726e-10
1.88849e-10
1.88974e-10
1.891e-10
1.89227e-10
)
;
    }
    inandouthalf12
    {
        type            cyclic;
        value           nonuniform List<scalar> 
100
(
-1.83893e-10
-1.84206e-10
-1.84208e-10
-1.84208e-10
-1.84208e-10
-1.8421e-10
-1.8421e-10
-1.84211e-10
-1.84211e-10
-1.84213e-10
-1.84214e-10
-1.84214e-10
-1.84216e-10
-1.84217e-10
-1.84219e-10
-1.84221e-10
-1.84222e-10
-1.84224e-10
-1.84225e-10
-1.84228e-10
-1.8423e-10
-1.84233e-10
-1.84236e-10
-1.84239e-10
-1.84242e-10
-1.84245e-10
-1.84248e-10
-1.84253e-10
-1.84258e-10
-1.84262e-10
-1.84267e-10
-1.84273e-10
-1.84278e-10
-1.84286e-10
-1.84292e-10
-1.84299e-10
-1.84307e-10
-1.84317e-10
-1.84327e-10
-1.84337e-10
-1.84349e-10
-1.84361e-10
-1.84374e-10
-1.84389e-10
-1.84405e-10
-1.84422e-10
-1.8444e-10
-1.84459e-10
-1.84481e-10
-1.84505e-10
-1.8453e-10
-1.84558e-10
-1.84588e-10
-1.8462e-10
-1.84654e-10
-1.84693e-10
-1.84733e-10
-1.84778e-10
-1.84826e-10
-1.84878e-10
-1.84935e-10
-1.84996e-10
-1.85062e-10
-1.85134e-10
-1.85212e-10
-1.85295e-10
-1.8539e-10
-1.85506e-10
-1.85642e-10
-1.85778e-10
-1.85903e-10
-1.86014e-10
-1.86117e-10
-1.8622e-10
-1.86324e-10
-1.86431e-10
-1.8654e-10
-1.86651e-10
-1.86764e-10
-1.86877e-10
-1.86989e-10
-1.871e-10
-1.87211e-10
-1.87321e-10
-1.87431e-10
-1.87543e-10
-1.87657e-10
-1.87772e-10
-1.87888e-10
-1.88005e-10
-1.88123e-10
-1.88242e-10
-1.88362e-10
-1.88482e-10
-1.88603e-10
-1.88726e-10
-1.88849e-10
-1.88974e-10
-1.891e-10
-1.89227e-10
)
;
    }
    inandouthalf21
    {
        type            cyclic;
        value           nonuniform List<scalar> 
100
(
1.89355e-10
1.89484e-10
1.89614e-10
1.89745e-10
1.89877e-10
1.9001e-10
1.90144e-10
1.90278e-10
1.90413e-10
1.9055e-10
1.90687e-10
1.90824e-10
1.90963e-10
1.91103e-10
1.91244e-10
1.91386e-10
1.91529e-10
1.91674e-10
1.91821e-10
1.9197e-10
1.92121e-10
1.92274e-10
1.92429e-10
1.92587e-10
1.92749e-10
1.92913e-10
1.93081e-10
1.93254e-10
1.93432e-10
1.93614e-10
1.93801e-10
1.93993e-10
1.94191e-10
1.94401e-10
1.94625e-10
1.9486e-10
1.95102e-10
1.95356e-10
1.95646e-10
1.9599e-10
1.96365e-10
1.96701e-10
1.97165e-10
1.97856e-10
1.98765e-10
1.99949e-10
2.01469e-10
2.0353e-10
2.04766e-10
-1.71157e-09
-1.17332e-07
-2.35385e-07
-3.29124e-07
-4.14168e-07
-4.97377e-07
-5.83319e-07
-6.76047e-07
-7.84126e-07
-8.97213e-07
-9.77521e-07
-1.03589e-06
-1.08153e-06
-1.11464e-06
-1.13727e-06
-1.15301e-06
-1.16483e-06
-1.17429e-06
-1.18208e-06
-1.1887e-06
-1.19436e-06
-1.19931e-06
-1.20366e-06
-1.20756e-06
-1.21103e-06
-1.21417e-06
-1.21701e-06
-1.21959e-06
-1.22194e-06
-1.22409e-06
-1.22605e-06
-1.22784e-06
-1.22949e-06
-1.231e-06
-1.23239e-06
-1.23366e-06
-1.23484e-06
-1.23591e-06
-1.23691e-06
-1.23782e-06
-1.23866e-06
-1.23944e-06
-1.24015e-06
-1.24081e-06
-1.24141e-06
-1.24197e-06
-1.24249e-06
-1.24296e-06
-1.2434e-06
-1.2438e-06
-1.24418e-06
)
;
    }
    inandouthalf22
    {
        type            cyclic;
        value           nonuniform List<scalar> 
100
(
-1.89355e-10
-1.89484e-10
-1.89614e-10
-1.89745e-10
-1.89877e-10
-1.9001e-10
-1.90144e-10
-1.90278e-10
-1.90413e-10
-1.9055e-10
-1.90687e-10
-1.90824e-10
-1.90963e-10
-1.91103e-10
-1.91244e-10
-1.91386e-10
-1.91529e-10
-1.91674e-10
-1.91821e-10
-1.9197e-10
-1.92121e-10
-1.92274e-10
-1.92429e-10
-1.92587e-10
-1.92749e-10
-1.92913e-10
-1.93081e-10
-1.93254e-10
-1.93432e-10
-1.93614e-10
-1.93801e-10
-1.93993e-10
-1.94191e-10
-1.94401e-10
-1.94625e-10
-1.9486e-10
-1.95102e-10
-1.95356e-10
-1.95646e-10
-1.9599e-10
-1.96365e-10
-1.96701e-10
-1.97165e-10
-1.97856e-10
-1.98765e-10
-1.99949e-10
-2.01469e-10
-2.0353e-10
-2.04766e-10
1.71157e-09
1.17332e-07
2.35385e-07
3.29124e-07
4.14168e-07
4.97377e-07
5.83319e-07
6.76047e-07
7.84126e-07
8.97213e-07
9.77521e-07
1.03589e-06
1.08153e-06
1.11464e-06
1.13727e-06
1.15301e-06
1.16483e-06
1.17429e-06
1.18208e-06
1.1887e-06
1.19436e-06
1.19931e-06
1.20366e-06
1.20756e-06
1.21103e-06
1.21417e-06
1.21701e-06
1.21959e-06
1.22194e-06
1.22409e-06
1.22605e-06
1.22784e-06
1.22949e-06
1.231e-06
1.23239e-06
1.23366e-06
1.23484e-06
1.23591e-06
1.23691e-06
1.23782e-06
1.23866e-06
1.23944e-06
1.24015e-06
1.24081e-06
1.24141e-06
1.24197e-06
1.24249e-06
1.24296e-06
1.2434e-06
1.2438e-06
1.24418e-06
)
;
    }
    inandouthalf31
    {
        type            cyclic;
        value           nonuniform List<scalar> 
110
(
-1.24453e-06
-1.27011e-06
-1.29621e-06
-1.32281e-06
-1.34995e-06
-1.37762e-06
-1.40584e-06
-1.43463e-06
-1.46398e-06
-1.49392e-06
-1.52445e-06
-1.55559e-06
-1.58735e-06
-1.61974e-06
-1.65278e-06
-1.68648e-06
-1.72085e-06
-1.75591e-06
-1.79168e-06
-1.82816e-06
-1.86537e-06
-1.90333e-06
-1.94205e-06
-1.98156e-06
-2.02185e-06
-2.06296e-06
-2.10489e-06
-2.14767e-06
-2.19132e-06
-2.23584e-06
-2.28127e-06
-2.32761e-06
-2.37489e-06
-2.42312e-06
-2.47233e-06
-2.52254e-06
-2.57376e-06
-2.62602e-06
-2.67933e-06
-2.73373e-06
-2.78923e-06
-2.84586e-06
-2.90363e-06
-2.96257e-06
-3.02271e-06
-3.08407e-06
-3.14667e-06
-3.21055e-06
-3.27572e-06
-3.34221e-06
-3.41005e-06
-3.47927e-06
-3.54989e-06
-3.62194e-06
-3.69546e-06
-3.77047e-06
-3.847e-06
-3.92508e-06
-4.00475e-06
-4.08604e-06
-4.16898e-06
-4.2536e-06
-4.33993e-06
-4.42802e-06
-4.5179e-06
-4.6096e-06
-4.70316e-06
-4.79862e-06
-4.89602e-06
-4.9954e-06
-5.09679e-06
-5.20024e-06
-5.3058e-06
-5.41349e-06
-5.52337e-06
-5.63548e-06
-5.74986e-06
-5.86657e-06
-5.98565e-06
-6.10714e-06
-6.2311e-06
-6.35757e-06
-6.48661e-06
-6.61827e-06
-6.75261e-06
-6.88967e-06
-7.02951e-06
-7.17219e-06
-7.31777e-06
-7.4663e-06
-7.61784e-06
-7.77247e-06
-7.93023e-06
-8.09119e-06
-8.25542e-06
-8.42298e-06
-8.59395e-06
-8.76838e-06
-8.94635e-06
-9.12794e-06
-9.31321e-06
-9.50225e-06
-9.69512e-06
-9.8919e-06
-1.00927e-05
-1.02975e-05
-1.05065e-05
-1.07198e-05
-1.09374e-05
-1.11594e-05
)
;
    }
    inandouthalf32
    {
        type            cyclic;
        value           nonuniform List<scalar> 
110
(
1.24453e-06
1.27011e-06
1.29621e-06
1.32281e-06
1.34995e-06
1.37762e-06
1.40584e-06
1.43463e-06
1.46398e-06
1.49392e-06
1.52445e-06
1.55559e-06
1.58735e-06
1.61974e-06
1.65278e-06
1.68648e-06
1.72085e-06
1.75591e-06
1.79168e-06
1.82816e-06
1.86537e-06
1.90333e-06
1.94205e-06
1.98156e-06
2.02185e-06
2.06296e-06
2.10489e-06
2.14767e-06
2.19132e-06
2.23584e-06
2.28127e-06
2.32761e-06
2.37489e-06
2.42312e-06
2.47233e-06
2.52254e-06
2.57376e-06
2.62602e-06
2.67933e-06
2.73373e-06
2.78923e-06
2.84586e-06
2.90363e-06
2.96257e-06
3.02271e-06
3.08407e-06
3.14667e-06
3.21055e-06
3.27572e-06
3.34221e-06
3.41005e-06
3.47927e-06
3.54989e-06
3.62194e-06
3.69546e-06
3.77047e-06
3.847e-06
3.92508e-06
4.00475e-06
4.08604e-06
4.16898e-06
4.2536e-06
4.33993e-06
4.42802e-06
4.5179e-06
4.6096e-06
4.70316e-06
4.79862e-06
4.89602e-06
4.9954e-06
5.09679e-06
5.20024e-06
5.3058e-06
5.41349e-06
5.52337e-06
5.63548e-06
5.74986e-06
5.86657e-06
5.98565e-06
6.10714e-06
6.2311e-06
6.35757e-06
6.48661e-06
6.61827e-06
6.75261e-06
6.88967e-06
7.02951e-06
7.17219e-06
7.31777e-06
7.4663e-06
7.61784e-06
7.77247e-06
7.93023e-06
8.09119e-06
8.25542e-06
8.42298e-06
8.59395e-06
8.76838e-06
8.94635e-06
9.12794e-06
9.31321e-06
9.50225e-06
9.69512e-06
9.8919e-06
1.00927e-05
1.02975e-05
1.05065e-05
1.07198e-05
1.09374e-05
1.11594e-05
)
;
    }
    inandouthalf41
    {
        type            cyclic;
        value           nonuniform List<scalar> 
50
(
-9.98879e-06
-9.98879e-06
-9.98879e-06
-9.98879e-06
-9.98879e-06
-9.98879e-06
-9.98879e-06
-9.98879e-06
-9.98879e-06
-9.98879e-06
-9.98879e-06
-9.98879e-06
-9.98879e-06
-9.98879e-06
-9.98879e-06
-9.98879e-06
-9.98879e-06
-9.98879e-06
-9.98879e-06
-9.98879e-06
-9.98879e-06
-9.98879e-06
-9.98879e-06
-9.98879e-06
-9.98879e-06
-9.98879e-06
-9.98879e-06
-9.98879e-06
-9.98879e-06
-9.98879e-06
-9.98879e-06
-9.98879e-06
-9.98879e-06
-9.98879e-06
-9.98879e-06
-9.98879e-06
-9.98879e-06
-9.98879e-06
-9.98879e-06
-9.98879e-06
-9.98879e-06
-9.98879e-06
-9.98879e-06
-9.98879e-06
-9.98879e-06
-9.98879e-06
-9.98879e-06
-9.98879e-06
-9.98879e-06
-9.98879e-06
)
;
    }
    inandouthalf42
    {
        type            cyclic;
        value           nonuniform List<scalar> 
50
(
9.98879e-06
9.98879e-06
9.98879e-06
9.98879e-06
9.98879e-06
9.98879e-06
9.98879e-06
9.98879e-06
9.98879e-06
9.98879e-06
9.98879e-06
9.98879e-06
9.98879e-06
9.98879e-06
9.98879e-06
9.98879e-06
9.98879e-06
9.98879e-06
9.98879e-06
9.98879e-06
9.98879e-06
9.98879e-06
9.98879e-06
9.98879e-06
9.98879e-06
9.98879e-06
9.98879e-06
9.98879e-06
9.98879e-06
9.98879e-06
9.98879e-06
9.98879e-06
9.98879e-06
9.98879e-06
9.98879e-06
9.98879e-06
9.98879e-06
9.98879e-06
9.98879e-06
9.98879e-06
9.98879e-06
9.98879e-06
9.98879e-06
9.98879e-06
9.98879e-06
9.98879e-06
9.98879e-06
9.98879e-06
9.98879e-06
9.98879e-06
)
;
    }
    top
    {
        type            symmetryPlane;
        value           uniform 0;
    }
    walls
    {
        type            fixedValue;
        value           uniform 0;
    }
    frontAndBackPlanes
    {
        type            empty;
        value           nonuniform 0();
    }
}


// ************************************************************************* //
