/*--------------------------------*- C++ -*----------------------------------*\
| =========                 |                                                 |
| \\      /  F ield         | OpenFOAM: The Open Source CFD Toolbox           |
|  \\    /   O peration     | Version:  2.4.x                                 |
|   \\  /    A nd           | Web:      www.OpenFOAM.org                      |
|    \\/     M anipulation  |                                                 |
\*---------------------------------------------------------------------------*/
FoamFile
{
    version     2.0;
    format      ascii;
    class       volTensorField;
    location    "2.15";
    object      Tauf;
}
// * * * * * * * * * * * * * * * * * * * * * * * * * * * * * * * * * * * * * //

dimensions      [0 2 -2 0 0 0 0];

internalField   nonuniform List<tensor> 
360
(
(0 -3.68099e-07 0 -3.68099e-07 5.80173e-16 0 0 0 0)
(0 -3.15252e-10 0 -3.15252e-10 5.8263e-16 0 0 0 0)
(0 -1.81326e-12 0 -1.81326e-12 5.83813e-16 0 0 0 0)
(0 -2.86276e-15 0 -2.86276e-15 5.84492e-16 0 0 0 0)
(5.16988e-23 -1.54592e-12 0 -1.54592e-12 5.85064e-16 0 0 0 0)
(2.58494e-23 -1.54724e-12 0 -1.54724e-12 5.85439e-16 0 0 0 0)
(2.58494e-23 -1.54725e-12 0 -1.54725e-12 5.85647e-16 0 0 0 0)
(0 -1.54725e-12 0 -1.54725e-12 5.84877e-16 0 0 0 0)
(2.58494e-23 -1.54858e-12 0 -1.54858e-12 5.83601e-16 0 0 0 0)
(0 -3.0919e-12 0 -3.0919e-12 5.83271e-16 0 0 0 0)
(5.16988e-23 -1.54859e-12 0 -1.54859e-12 5.83064e-16 0 0 0 0)
(0 -1.5486e-12 0 -1.5486e-12 5.82609e-16 0 0 0 0)
(2.58494e-23 -3.09327e-12 0 -3.09327e-12 5.82378e-16 0 0 0 0)
(0 -3.0946e-12 0 -3.0946e-12 5.81602e-16 0 0 0 0)
(0 -3.09463e-12 0 -3.09463e-12 5.80435e-16 0 0 0 0)
(0 -3.09465e-12 0 -3.09465e-12 5.79515e-16 0 0 0 0)
(0 -3.09468e-12 0 -3.09468e-12 5.77395e-16 0 0 0 0)
(2.58494e-23 -3.09602e-12 0 -3.09602e-12 5.74466e-16 0 0 0 0)
(0 -4.64078e-12 0 -4.64078e-12 5.73537e-16 0 0 0 0)
(0 -4.64213e-12 0 -4.64213e-12 5.72623e-16 0 0 0 0)
(0 -4.64352e-12 0 -4.64352e-12 5.70823e-16 0 0 0 0)
(2.58494e-23 -6.18836e-12 0 -6.18836e-12 5.69654e-16 0 0 0 0)
(0 -6.18976e-12 0 -6.18976e-12 5.68152e-16 0 0 0 0)
(0 -6.18986e-12 0 -6.18986e-12 5.66609e-16 0 0 0 0)
(0 -6.18995e-12 0 -6.18995e-12 5.64998e-16 0 0 0 0)
(5.16988e-23 -6.19136e-12 0 -6.19136e-12 5.62278e-16 0 0 0 0)
(0 -7.7377e-12 0 -7.7377e-12 5.59621e-16 0 0 0 0)
(0 -9.28409e-12 0 -9.28409e-12 5.57787e-16 0 0 0 0)
(0 -9.28562e-12 0 -9.28562e-12 5.55888e-16 0 0 0 0)
(0 -9.28715e-12 0 -9.28715e-12 5.54017e-16 0 0 0 0)
(0 -1.08324e-11 0 -1.08324e-11 5.52284e-16 0 0 0 0)
(0 -1.08353e-11 0 -1.08353e-11 5.4927e-16 0 0 0 0)
(0 -1.23821e-11 0 -1.23821e-11 5.45407e-16 0 0 0 0)
(0 -1.39289e-11 0 -1.39289e-11 5.42338e-16 0 0 0 0)
(0 -1.39321e-11 0 -1.39321e-11 5.40168e-16 0 0 0 0)
(-2.58494e-23 -1.54792e-11 0 -1.54792e-11 5.3784e-16 0 0 0 0)
(0 -1.70291e-11 0 -1.70291e-11 5.36067e-16 0 0 0 0)
(0 -2.0122e-11 0 -2.0122e-11 5.34769e-16 0 0 0 0)
(0 -2.01268e-11 0 -2.01268e-11 5.31961e-16 0 0 0 0)
(0 -2.16762e-11 0 -2.16762e-11 5.28344e-16 0 0 0 0)
(0 -2.47699e-11 0 -2.47699e-11 5.24641e-16 0 0 0 0)
(0 -2.47767e-11 0 -2.47767e-11 5.21796e-16 0 0 0 0)
(-5.16988e-23 -2.78727e-11 0 -2.78727e-11 5.19507e-16 0 0 0 0)
(0 -3.09704e-11 0 -3.09704e-11 5.16297e-16 0 0 0 0)
(0 -3.25242e-11 0 -3.25242e-11 5.13022e-16 0 0 0 0)
(0 -3.56219e-11 0 -3.56219e-11 5.0993e-16 0 0 0 0)
(0 -3.71765e-11 0 -3.71765e-11 5.0666e-16 0 0 0 0)
(0 -4.02797e-11 0 -4.02797e-11 5.03988e-16 0 0 0 0)
(0 -4.64757e-11 0 -4.64757e-11 5.01778e-16 0 0 0 0)
(0 -4.95825e-11 0 -4.95825e-11 4.98541e-16 0 0 0 0)
(-2.58494e-23 -5.26894e-11 0 -5.26894e-11 4.9426e-16 0 0 0 0)
(0 -5.73445e-11 0 -5.73445e-11 4.91087e-16 0 0 0 0)
(0 -6.20031e-11 0 -6.20031e-11 4.8824e-16 0 0 0 0)
(0 -6.66649e-11 0 -6.66649e-11 4.84295e-16 0 0 0 0)
(0 -7.28773e-11 0 -7.28773e-11 4.80785e-16 0 0 0 0)
(0 -7.90938e-11 0 -7.90938e-11 4.77139e-16 0 0 0 0)
(0 -8.53158e-11 0 -8.53158e-11 4.72717e-16 0 0 0 0)
(0 -9.30888e-11 0 -9.30888e-11 4.68548e-16 0 0 0 0)
(0 -9.93217e-11 0 -9.93217e-11 4.65031e-16 0 0 0 0)
(0 -1.08658e-10 0 -1.08658e-10 4.60754e-16 0 0 0 0)
(0 -1.18003e-10 0 -1.18003e-10 4.67674e-16 0 0 0 0)
(0 -1.27358e-10 0 -1.27358e-10 -6.96838e-15 0 0 0 0)
(0 -1.38273e-10 0 -1.38273e-10 1.27749e-13 0 0 0 0)
(0 -1.49063e-10 0 -1.49063e-10 -7.73403e-13 0 0 0 0)
(0 -1.61232e-10 0 -1.61232e-10 1.1469e-10 0 0 0 0)
(0 -1.78715e-10 0 -1.78715e-10 8.6804e-10 0 0 0 0)
(0 -2.10897e-10 0 -2.10897e-10 2.85753e-09 0 0 0 0)
(0 -2.51629e-10 0 -2.51629e-10 5.63219e-09 0 0 0 0)
(0 -2.72441e-10 0 -2.72441e-10 7.64238e-09 0 0 0 0)
(0 -2.61003e-10 0 -2.61003e-10 7.81671e-09 0 0 0 0)
(0 -2.35765e-10 0 -2.35765e-10 6.52747e-09 0 0 0 0)
(0 -2.14617e-10 0 -2.14617e-10 4.85609e-09 0 0 0 0)
(0 -2.06101e-10 0 -2.06101e-10 3.5264e-09 0 0 0 0)
(0 -2.06636e-10 0 -2.06636e-10 2.68681e-09 0 0 0 0)
(0 -2.10764e-10 0 -2.10764e-10 2.22984e-09 0 0 0 0)
(0 -2.15996e-10 0 -2.15996e-10 2.02799e-09 0 0 0 0)
(0 -2.20351e-10 0 -2.20351e-10 1.99227e-09 0 0 0 0)
(0 -2.24207e-10 0 -2.24207e-10 2.06393e-09 0 0 0 0)
(0 -2.25926e-10 0 -2.25926e-10 2.19722e-09 0 0 0 0)
(0 -2.25045e-10 0 -2.25045e-10 2.34978e-09 0 0 0 0)
(0 -2.22992e-10 0 -2.22992e-10 2.48431e-09 0 0 0 0)
(0 -2.21281e-10 0 -2.21281e-10 2.57568e-09 0 0 0 0)
(0 -2.20234e-10 0 -2.20234e-10 2.61571e-09 0 0 0 0)
(0 -2.2069e-10 0 -2.2069e-10 2.61227e-09 0 0 0 0)
(0 -2.22587e-10 0 -2.22587e-10 2.58249e-09 0 0 0 0)
(0 -2.25463e-10 0 -2.25463e-10 2.5445e-09 0 0 0 0)
(0 -2.2856e-10 0 -2.2856e-10 2.51163e-09 0 0 0 0)
(0 -2.31238e-10 0 -2.31238e-10 2.49051e-09 0 0 0 0)
(0 -2.33569e-10 0 -2.33569e-10 2.48229e-09 0 0 0 0)
(0 -2.35389e-10 0 -2.35389e-10 2.48465e-09 0 0 0 0)
(0 -2.36758e-10 0 -2.36758e-10 2.49395e-09 0 0 0 0)
(0 -2.38134e-10 0 -2.38134e-10 2.5071e-09 0 0 0 0)
(0 -2.39738e-10 0 -2.39738e-10 2.52248e-09 0 0 0 0)
(0 -2.41568e-10 0 -2.41568e-10 2.53987e-09 0 0 0 0)
(0 -2.4368e-10 0 -2.4368e-10 2.56008e-09 0 0 0 0)
(0 -2.45992e-10 0 -2.45992e-10 2.58426e-09 0 0 0 0)
(0 -2.48361e-10 0 -2.48361e-10 2.61328e-09 0 0 0 0)
(0 -2.50689e-10 0 -2.50689e-10 2.64744e-09 0 0 0 0)
(0 -2.52942e-10 0 -2.52942e-10 2.68644e-09 0 0 0 0)
(0 -2.55101e-10 0 -2.55101e-10 2.72953e-09 0 0 0 0)
(0 -2.57167e-10 0 -2.57167e-10 2.77567e-09 0 0 0 0)
(0 -2.59178e-10 0 -2.59178e-10 2.82375e-09 0 0 0 0)
(0 -2.61136e-10 0 -2.61136e-10 2.87266e-09 0 0 0 0)
(0 -2.63021e-10 0 -2.63021e-10 2.92123e-09 0 0 0 0)
(0 -2.64828e-10 0 -2.64828e-10 2.96829e-09 0 0 0 0)
(0 -2.66556e-10 0 -2.66556e-10 3.01267e-09 0 0 0 0)
(0 -2.68212e-10 0 -2.68212e-10 3.05321e-09 0 0 0 0)
(0 -2.69824e-10 0 -2.69824e-10 3.08887e-09 0 0 0 0)
(0 -2.71427e-10 0 -2.71427e-10 3.11879e-09 0 0 0 0)
(0 -2.73057e-10 0 -2.73057e-10 3.14234e-09 0 0 0 0)
(0 -2.74754e-10 0 -2.74754e-10 3.15916e-09 0 0 0 0)
(0 -2.7656e-10 0 -2.7656e-10 3.16914e-09 0 0 0 0)
(0 -2.78513e-10 0 -2.78513e-10 3.1724e-09 0 0 0 0)
(0 -2.80654e-10 0 -2.80654e-10 3.16927e-09 0 0 0 0)
(0 -2.83023e-10 0 -2.83023e-10 3.16021e-09 0 0 0 0)
(0 -2.85656e-10 0 -2.85656e-10 3.14579e-09 0 0 0 0)
(0 -2.88585e-10 0 -2.88585e-10 3.12659e-09 0 0 0 0)
(0 -2.91839e-10 0 -2.91839e-10 3.10313e-09 0 0 0 0)
(0 -2.95439e-10 0 -2.95439e-10 3.07583e-09 0 0 0 0)
(0 -2.99401e-10 0 -2.99401e-10 3.04498e-09 0 0 0 0)
(0 -3.03741e-10 0 -3.03741e-10 3.01074e-09 0 0 0 0)
(0 -3.08482e-10 0 -3.08482e-10 2.97329e-09 0 0 0 0)
(0 -3.13669e-10 0 -3.13669e-10 2.93297e-09 0 0 0 0)
(0 -3.19387e-10 0 -3.19387e-10 2.89042e-09 0 0 0 0)
(0 -3.25767e-10 0 -3.25767e-10 2.84668e-09 0 0 0 0)
(0 -3.32965e-10 0 -3.32965e-10 2.8028e-09 0 0 0 0)
(0 -3.41084e-10 0 -3.41084e-10 2.75913e-09 0 0 0 0)
(0 -3.50045e-10 0 -3.50045e-10 2.7143e-09 0 0 0 0)
(0 -3.59506e-10 0 -3.59506e-10 2.66443e-09 0 0 0 0)
(0 -3.69033e-10 0 -3.69033e-10 2.6039e-09 0 0 0 0)
(0 -3.78838e-10 0 -3.78838e-10 2.52805e-09 0 0 0 0)
(0 -3.90905e-10 0 -3.90905e-10 2.43739e-09 0 0 0 0)
(0 -4.08836e-10 0 -4.08836e-10 2.3396e-09 0 0 0 0)
(0 -4.33622e-10 0 -4.33622e-10 2.24498e-09 0 0 0 0)
(0 -4.58633e-10 0 -4.58633e-10 2.1557e-09 0 0 0 0)
(0 -4.76543e-10 0 -4.76543e-10 2.06091e-09 0 0 0 0)
(0 -4.96195e-10 0 -4.96195e-10 1.94702e-09 0 0 0 0)
(0 -5.43918e-10 0 -5.43918e-10 1.80858e-09 0 0 0 0)
(0 -6.34196e-10 0 -6.34196e-10 1.63897e-09 0 0 0 0)
(0 -7.19616e-10 0 -7.19616e-10 1.40489e-09 0 0 0 0)
(0 -7.1048e-10 0 -7.1048e-10 1.02405e-09 0 0 0 0)
(0 -7.99529e-10 0 -7.99529e-10 5.64699e-10 0 0 0 0)
(0 -1.15466e-09 0 -1.15466e-09 1.76267e-10 0 0 0 0)
(0 -1.59997e-09 0 -1.59997e-09 -1.44734e-10 0 0 0 0)
(0 -2.09354e-09 0 -2.09354e-09 -4.21537e-10 0 0 0 0)
(0 -2.70409e-09 0 -2.70409e-09 5.38991e-10 0 0 0 0)
(0 -3.58051e-09 0 -3.58051e-09 -2.69131e-08 0 0 0 0)
(0 -3.2981e-09 0 -3.2981e-09 1.38003e-07 0 0 0 0)
(0 1.95741e-06 0 1.95741e-06 -5.27441e-07 0 0 0 0)
(0 0.000233062 0 0.000233062 -1.30185e-05 0 0 0 0)
(0 0.00218106 0 0.00218106 -2.03518e-05 0 0 0 0)
(0 0.00359928 0 0.00359928 6.95493e-05 0 0 0 0)
(0 0.00384764 0 0.00384764 2.90989e-05 0 0 0 0)
(0 0.00396193 0 0.00396193 3.49016e-05 0 0 0 0)
(0 0.00393085 0 0.00393085 1.90343e-05 0 0 0 0)
(0 0.00369755 0 0.00369755 9.64321e-06 0 0 0 0)
(0 0.0032074 0 0.0032074 4.09256e-06 0 0 0 0)
(0 0.00185534 0 0.00185534 1.23603e-06 0 0 0 0)
(0 0.000377226 0 0.000377226 1.39222e-07 0 0 0 0)
(0 0.000141892 0 0.000141892 7.18324e-08 0 0 0 0)
(0 0.000104048 0 0.000104048 5.97383e-08 0 0 0 0)
(0 7.8743e-05 0 7.8743e-05 4.9227e-08 0 0 0 0)
(0 5.57381e-05 0 5.57381e-05 3.56053e-08 0 0 0 0)
(0 3.837e-05 0 3.837e-05 1.56721e-08 0 0 0 0)
(0 2.75678e-05 0 2.75678e-05 8.35043e-09 0 0 0 0)
(0 2.12852e-05 0 2.12852e-05 1.92983e-09 0 0 0 0)
(0 1.72478e-05 0 1.72478e-05 2.40216e-09 0 0 0 0)
(0 1.44063e-05 0 1.44063e-05 2.60528e-11 0 0 0 0)
(0 1.22754e-05 0 1.22754e-05 1.35185e-09 0 0 0 0)
(0 1.06154e-05 0 1.06154e-05 -3.19206e-10 0 0 0 0)
(0 9.30557e-06 0 9.30557e-06 9.56458e-10 0 0 0 0)
(0 8.24377e-06 0 8.24377e-06 -4.06217e-10 0 0 0 0)
(0 7.36402e-06 0 7.36402e-06 7.47946e-10 0 0 0 0)
(0 6.61289e-06 0 6.61289e-06 -4.19915e-10 0 0 0 0)
(0 5.97798e-06 0 5.97798e-06 6.12359e-10 0 0 0 0)
(0 5.42309e-06 0 5.42309e-06 -4.00616e-10 0 0 0 0)
(0 4.93146e-06 0 4.93146e-06 5.167e-10 0 0 0 0)
(0 4.49314e-06 0 4.49314e-06 -3.7685e-10 0 0 0 0)
(0 4.11102e-06 0 4.11102e-06 4.46857e-10 0 0 0 0)
(0 3.75595e-06 0 3.75595e-06 -3.55014e-10 0 0 0 0)
(0 3.44364e-06 0 3.44364e-06 4.26154e-10 0 0 0 0)
(0 3.15727e-06 0 3.15727e-06 -3.88854e-10 0 0 0 0)
(0 2.89784e-06 0 2.89784e-06 4.427e-10 0 0 0 0)
(0 2.66231e-06 0 2.66231e-06 -4.11845e-10 0 0 0 0)
(0 2.44705e-06 0 2.44705e-06 4.43667e-10 0 0 0 0)
(0 2.25155e-06 0 2.25155e-06 -4.15582e-10 0 0 0 0)
(0 2.0705e-06 0 2.0705e-06 4.3207e-10 0 0 0 0)
(0 1.90524e-06 0 1.90524e-06 -4.06372e-10 0 0 0 0)
(0 1.75472e-06 0 1.75472e-06 4.11521e-10 0 0 0 0)
(0 1.61811e-06 0 1.61811e-06 -3.86394e-10 0 0 0 0)
(0 1.48819e-06 0 1.48819e-06 3.84371e-10 0 0 0 0)
(0 1.3714e-06 0 1.3714e-06 -3.61061e-10 0 0 0 0)
(0 1.26361e-06 0 1.26361e-06 3.53678e-10 0 0 0 0)
(0 1.16544e-06 0 1.16544e-06 -3.31256e-10 0 0 0 0)
(0 1.07519e-06 0 1.07519e-06 3.20892e-10 0 0 0 0)
(0 9.90537e-07 0 9.90537e-07 -2.99666e-10 0 0 0 0)
(0 9.12453e-07 0 9.12453e-07 2.87151e-10 0 0 0 0)
(0 8.40727e-07 0 8.40727e-07 -2.67601e-10 0 0 0 0)
(0 7.75924e-07 0 7.75924e-07 2.54288e-10 0 0 0 0)
(0 7.16662e-07 0 7.16662e-07 -2.36078e-10 0 0 0 0)
(0 6.61297e-07 0 6.61297e-07 2.22861e-10 0 0 0 0)
(0 6.08449e-07 0 6.08449e-07 -2.0254e-10 0 0 0 0)
(-2.03416e-19 5.58889e-07 0 5.58889e-07 1.86662e-10 0 0 0 0)
(0 5.13101e-07 0 5.13101e-07 -1.69851e-10 0 0 0 0)
(0 4.71703e-07 0 4.71703e-07 1.56297e-10 0 0 0 0)
(1.91516e-19 4.32258e-07 0 4.32258e-07 -1.42452e-10 0 0 0 0)
(0 3.94391e-07 0 3.94391e-07 1.30886e-10 0 0 0 0)
(-3.67944e-19 3.58947e-07 0 3.58947e-07 -1.1934e-10 0 0 0 0)
(0 3.26828e-07 0 3.26828e-07 1.09519e-10 0 0 0 0)
(1.76725e-19 2.97597e-07 0 2.97597e-07 -1.00062e-10 0 0 0 0)
(0 2.69755e-07 0 2.69755e-07 9.16039e-11 0 0 0 0)
(0 2.43604e-07 0 2.43604e-07 -8.36714e-11 0 0 0 0)
(0 2.20123e-07 0 2.20123e-07 7.65681e-11 0 0 0 0)
(1.63076e-19 1.98846e-07 0 1.98846e-07 -7.01131e-11 0 0 0 0)
(0 1.78747e-07 0 1.78747e-07 6.40179e-11 0 0 0 0)
(0 1.60068e-07 0 1.60068e-07 -5.85402e-11 0 0 0 0)
(0 1.43388e-07 0 1.43388e-07 5.34741e-11 0 0 0 0)
(0 1.28417e-07 0 1.28417e-07 -4.90671e-11 0 0 0 0)
(0 1.14511e-07 0 1.14511e-07 4.46984e-11 0 0 0 0)
(-1.44554e-19 1.01658e-07 0 1.01658e-07 -4.09628e-11 0 0 0 0)
(0 9.01939e-08 0 9.01939e-08 3.73838e-11 0 0 0 0)
(-1.3886e-19 7.99389e-08 0 7.99389e-08 -3.43524e-11 0 0 0 0)
(0 7.05385e-08 0 7.05385e-08 3.1315e-11 0 0 0 0)
(-2.6678e-19 6.20812e-08 0 6.20812e-08 -2.8767e-11 0 0 0 0)
(0 5.46127e-08 0 5.46127e-08 2.62272e-11 0 0 0 0)
(0 4.78532e-08 0 4.78532e-08 -2.41481e-11 0 0 0 0)
(0 4.17623e-08 0 4.17623e-08 2.20708e-11 0 0 0 0)
(0 3.64232e-08 0 3.64232e-08 -2.03439e-11 0 0 0 0)
(2.41279e-19 3.16737e-08 0 3.16737e-08 1.85815e-11 0 0 0 0)
(0 2.74136e-08 0 2.74136e-08 -1.7144e-11 0 0 0 0)
(0 2.36866e-08 0 2.36866e-08 1.57097e-11 0 0 0 0)
(0 2.04295e-08 0 2.04295e-08 -1.45422e-11 0 0 0 0)
(0 1.7531e-08 0 1.7531e-08 1.33469e-11 0 0 0 0)
(0 1.5013e-08 0 1.5013e-08 -1.23655e-11 0 0 0 0)
(0 1.28181e-08 0 1.28181e-08 1.13798e-11 0 0 0 0)
(0 1.09015e-08 0 1.09015e-08 -1.05716e-11 0 0 0 0)
(0 9.24517e-09 0 9.24517e-09 9.76552e-12 0 0 0 0)
(0 7.80058e-09 0 7.80058e-09 -9.0835e-12 0 0 0 0)
(0 6.56366e-09 0 6.56366e-09 8.43898e-12 0 0 0 0)
(0 5.49434e-09 0 5.49434e-09 -7.86111e-12 0 0 0 0)
(0 4.58706e-09 0 4.58706e-09 7.3357e-12 0 0 0 0)
(0 3.82631e-09 0 3.82631e-09 -6.67397e-12 0 0 0 0)
(0 3.21121e-09 0 3.21121e-09 6.27483e-12 0 0 0 0)
(-3.56984e-19 2.67943e-09 0 2.67943e-09 -6.14106e-12 0 0 0 0)
(3.49882e-19 2.21319e-09 0 2.21319e-09 5.65387e-12 0 0 0 0)
(0 1.82444e-09 0 1.82444e-09 -5.32287e-12 0 0 0 0)
(0 1.48743e-09 0 1.48743e-09 5.01935e-12 0 0 0 0)
(-1.64707e-19 1.204e-09 0 1.204e-09 -4.74469e-12 0 0 0 0)
(0 9.70652e-10 0 9.70652e-10 4.49295e-12 0 0 0 0)
(0 7.80496e-10 0 7.80496e-10 -4.26514e-12 0 0 0 0)
(-1.55071e-19 6.25397e-10 0 6.25397e-10 4.05635e-12 0 0 0 0)
(0 4.97527e-10 0 4.97527e-10 -3.86688e-12 0 0 0 0)
(0 3.93604e-10 0 3.93604e-10 3.69307e-12 0 0 0 0)
(0 3.10689e-10 0 3.10689e-10 -3.53515e-12 0 0 0 0)
(0 2.44582e-10 0 2.44582e-10 3.38985e-12 0 0 0 0)
(0 1.91733e-10 0 1.91733e-10 -3.25753e-12 0 0 0 0)
(0 1.49652e-10 0 1.49652e-10 3.13545e-12 0 0 0 0)
(0 1.16364e-10 0 1.16364e-10 -3.02391e-12 0 0 0 0)
(0 9.01425e-11 0 9.01425e-11 2.92053e-12 0 0 0 0)
(0 6.95243e-11 0 6.95243e-11 -2.82575e-12 0 0 0 0)
(0 5.33653e-11 0 5.33653e-11 2.73746e-12 0 0 0 0)
(0 4.07426e-11 0 4.07426e-11 -2.6561e-12 0 0 0 0)
(0 3.09389e-11 0 3.09389e-11 2.57987e-12 0 0 0 0)
(0 2.3362e-11 0 2.3362e-11 -2.5092e-12 0 0 0 0)
(0 1.75408e-11 0 1.75408e-11 2.44262e-12 0 0 0 0)
(0 1.30941e-11 0 1.30941e-11 -2.38039e-12 0 0 0 0)
(0 9.71641e-12 0 9.71641e-12 2.32146e-12 0 0 0 0)
(0 7.16651e-12 0 7.16651e-12 -2.26587e-12 0 0 0 0)
(0 5.25317e-12 0 5.25317e-12 2.21291e-12 0 0 0 0)
(0 3.82664e-12 0 3.82664e-12 -2.16256e-12 0 0 0 0)
(0 2.76907e-12 0 2.76907e-12 2.11424e-12 0 0 0 0)
(0 1.99159e-12 0 1.99159e-12 -2.06795e-12 0 0 0 0)
(0 1.42263e-12 0 1.42263e-12 2.02322e-12 0 0 0 0)
(0 1.00915e-12 0 1.00915e-12 -1.98005e-12 0 0 0 0)
(0 7.10294e-13 0 7.10294e-13 1.93808e-12 0 0 0 0)
(0 4.96942e-13 0 4.96942e-13 -1.89733e-12 0 0 0 0)
(0 3.45733e-13 0 3.45733e-13 1.85744e-12 0 0 0 0)
(0 2.38465e-13 0 2.38465e-13 -1.81854e-12 0 0 0 0)
(0 1.62565e-13 0 1.62565e-13 1.78023e-12 0 0 0 0)
(0 1.10041e-13 0 1.10041e-13 -1.74275e-12 0 0 0 0)
(0 7.42946e-14 0 7.42946e-14 1.70568e-12 0 0 0 0)
(0 4.99362e-14 0 4.99362e-14 -1.66926e-12 0 0 0 0)
(0 3.29114e-14 0 3.29114e-14 1.63316e-12 0 0 0 0)
(0 2.1785e-14 0 2.1785e-14 -1.59761e-12 0 0 0 0)
(0 1.43543e-14 0 1.43543e-14 1.56226e-12 0 0 0 0)
(0 9.09983e-15 0 9.09983e-15 -1.52742e-12 0 0 0 0)
(3.00904e-19 5.85364e-15 0 5.85364e-15 1.4927e-12 0 0 0 0)
(0 3.65956e-15 0 3.65956e-15 -1.45849e-12 0 0 0 0)
(0 2.30063e-15 0 2.30063e-15 1.42433e-12 0 0 0 0)
(0 1.37302e-15 0 1.37302e-15 -1.39066e-12 0 0 0 0)
(0 7.48238e-16 0 7.48238e-16 1.35703e-12 0 0 0 0)
(0 6.45179e-16 0 6.45179e-16 -1.32389e-12 0 0 0 0)
(0 4.71574e-16 0 4.71574e-16 1.29078e-12 0 0 0 0)
(0 1.91883e-16 0 1.91883e-16 -1.25817e-12 0 0 0 0)
(0 -7.71224e-17 0 -7.71224e-17 1.22559e-12 0 0 0 0)
(0 -1.9054e-16 0 -1.9054e-16 -1.1935e-12 0 0 0 0)
(2.46128e-19 1.48107e-16 0 1.48107e-16 1.1615e-12 0 0 0 0)
(0 2.15721e-16 0 2.15721e-16 -1.12994e-12 0 0 0 0)
(0 4.85278e-17 0 4.85278e-17 1.0986e-12 0 0 0 0)
(-2.31729e-19 -1.02598e-16 0 -1.02598e-16 -1.06759e-12 0 0 0 0)
(0 -2.28255e-17 0 -2.28255e-17 1.03689e-12 0 0 0 0)
(0 -1.04066e-17 0 -1.04066e-17 -1.00652e-12 0 0 0 0)
(0 -1.51084e-17 0 -1.51084e-17 9.76462e-13 0 0 0 0)
(0 1.28086e-16 0 1.28086e-16 -9.4676e-13 0 0 0 0)
(0 -6.66459e-17 0 -6.66459e-17 9.17397e-13 0 0 0 0)
(0 -2.24974e-16 0 -2.24974e-16 -8.88395e-13 0 0 0 0)
(0 1.71527e-16 0 1.71527e-16 8.59754e-13 0 0 0 0)
(0 2.57253e-16 0 2.57253e-16 -8.31484e-13 0 0 0 0)
(0 -1.55971e-16 0 -1.55971e-16 8.03588e-13 0 0 0 0)
(0 -2.01013e-16 0 -2.01013e-16 -7.7593e-13 0 0 0 0)
(0 7.57036e-18 0 7.57036e-18 8.53738e-13 0 0 0 0)
(0 -1.77348e-17 0 -1.77348e-17 -8.4061e-13 0 0 0 0)
(0 -3.48872e-17 0 -3.48872e-17 8.27033e-13 0 0 0 0)
(0 5.10867e-17 0 5.10867e-17 -8.13156e-13 0 0 0 0)
(0 5.77041e-18 0 5.77041e-18 7.99003e-13 0 0 0 0)
(0 -3.16579e-17 0 -3.16579e-17 -7.84576e-13 0 0 0 0)
(0 2.61521e-17 0 2.61521e-17 7.69904e-13 0 0 0 0)
(0 -3.75871e-18 0 -3.75871e-18 -7.54982e-13 0 0 0 0)
(0 -3.20284e-17 0 -3.20284e-17 7.39841e-13 0 0 0 0)
(0 1.85818e-17 0 1.85818e-17 -7.24471e-13 0 0 0 0)
(0 3.48342e-17 0 3.48342e-17 7.08907e-13 0 0 0 0)
(0 9.31736e-18 0 9.31736e-18 -6.93127e-13 0 0 0 0)
(0 -3.34578e-17 0 -3.34578e-17 6.77181e-13 0 0 0 0)
(0 4.71162e-18 0 4.71162e-18 -6.61027e-13 0 0 0 0)
(0 1.45054e-17 0 1.45054e-17 6.44736e-13 0 0 0 0)
(0 -3.17637e-19 0 -3.17637e-19 -6.28229e-13 0 0 0 0)
(0 2.48287e-17 0 2.48287e-17 6.11643e-13 0 0 0 0)
(0 -3.10226e-17 0 -3.10226e-17 -5.94775e-13 0 0 0 0)
(0 -2.11758e-18 0 -2.11758e-18 5.7797e-13 0 0 0 0)
(0 7.19978e-18 0 7.19978e-18 -5.60733e-13 0 0 0 0)
(0 -2.02229e-17 0 -2.02229e-17 5.43731e-13 0 0 0 0)
(0 2.3664e-17 0 2.3664e-17 -5.26189e-13 0 0 0 0)
(0 1.65701e-17 0 1.65701e-17 5.08965e-13 0 0 0 0)
(0 -2.4511e-17 0 -2.4511e-17 -4.91181e-13 0 0 0 0)
(0 6.88214e-18 0 6.88214e-18 4.73736e-13 0 0 0 0)
(0 1.74701e-17 0 1.74701e-17 -4.55749e-13 0 0 0 0)
(0 -1.45054e-17 0 -1.45054e-17 4.38116e-13 0 0 0 0)
(0 -1.69936e-17 0 -1.69936e-17 -4.19949e-13 0 0 0 0)
(0 -2.38757e-17 0 -2.38757e-17 4.02146e-13 0 0 0 0)
(0 -2.11758e-19 0 -2.11758e-19 -3.83852e-13 0 0 0 0)
(0 -1.3182e-17 0 -1.3182e-17 3.65876e-13 0 0 0 0)
(0 4.5528e-18 0 4.5528e-18 -3.47443e-13 0 0 0 0)
(0 -4.23516e-19 0 -4.23516e-19 3.2925e-13 0 0 0 0)
(0 -1.69936e-17 0 -1.69936e-17 -3.10614e-13 0 0 0 0)
(0 2.12288e-17 0 2.12288e-17 2.92257e-13 0 0 0 0)
(0 9.31736e-18 0 9.31736e-18 -2.73333e-13 0 0 0 0)
(0 -2.2764e-18 0 -2.2764e-18 2.56937e-13 0 0 0 0)
(0 1.58819e-19 0 1.58819e-19 -2.44713e-13 0 0 0 0)
(0 2.85874e-18 0 2.85874e-18 2.34879e-13 0 0 0 0)
(0 -2.04347e-17 0 -2.04347e-17 -2.24478e-13 0 0 0 0)
(0 -2.91168e-18 0 -2.91168e-18 2.13628e-13 0 0 0 0)
(0 5.95041e-17 0 5.95041e-17 -2.02186e-13 0 0 0 0)
(0 9.47618e-18 0 9.47618e-18 1.8994e-13 0 0 0 0)
(0 -4.43634e-17 0 -4.43634e-17 -1.77126e-13 0 0 0 0)
(0 -9.84676e-18 0 -9.84676e-18 1.62786e-13 0 0 0 0)
(0 2.72639e-17 0 2.72639e-17 -1.47736e-13 0 0 0 0)
(0 2.93815e-17 0 2.93815e-17 1.2971e-13 0 0 0 0)
(0 -1.76818e-17 0 -1.76818e-17 -1.10119e-13 0 0 0 0)
(0 -2.91168e-18 0 -2.91168e-18 8.39757e-14 0 0 0 0)
(0 1.89524e-17 0 1.89524e-17 -3.55313e-14 0 0 0 0)
)
;

boundaryField
{
    inandouthalf11
    {
        type            cyclic;
    }
    inandouthalf12
    {
        type            cyclic;
    }
    inandouthalf21
    {
        type            cyclic;
    }
    inandouthalf22
    {
        type            cyclic;
    }
    inandouthalf31
    {
        type            cyclic;
    }
    inandouthalf32
    {
        type            cyclic;
    }
    inandouthalf41
    {
        type            cyclic;
    }
    inandouthalf42
    {
        type            cyclic;
    }
    top
    {
        type            symmetryPlane;
    }
    walls
    {
        type            zeroGradient;
    }
    frontAndBackPlanes
    {
        type            empty;
    }
}


// ************************************************************************* //
