/*--------------------------------*- C++ -*----------------------------------*\
| =========                 |                                                 |
| \\      /  F ield         | OpenFOAM: The Open Source CFD Toolbox           |
|  \\    /   O peration     | Version:  2.4.x                                 |
|   \\  /    A nd           | Web:      www.OpenFOAM.org                      |
|    \\/     M anipulation  |                                                 |
\*---------------------------------------------------------------------------*/
FoamFile
{
    version     2.0;
    format      ascii;
    class       volVectorField;
    location    "2.15";
    object      Ub;
}
// * * * * * * * * * * * * * * * * * * * * * * * * * * * * * * * * * * * * * //

dimensions      [0 1 -1 0 0 0 0];

internalField   nonuniform List<vector> 
360
(
(-0.000183893 7.23263e-14 0)
(-0.000184206 2.1776e-13 0)
(-0.000184208 3.63641e-13 0)
(-0.000184208 5.09667e-13 0)
(-0.000184208 6.55888e-13 0)
(-0.00018421 8.02199e-13 0)
(-0.00018421 9.48607e-13 0)
(-0.000184211 1.09502e-12 0)
(-0.000184211 1.24105e-12 0)
(-0.000184213 1.38682e-12 0)
(-0.000184214 1.53268e-12 0)
(-0.000184214 1.67836e-12 0)
(-0.000184216 1.82399e-12 0)
(-0.000184217 1.96954e-12 0)
(-0.000184219 2.11479e-12 0)
(-0.000184221 2.25976e-12 0)
(-0.000184222 2.40454e-12 0)
(-0.000184224 2.54846e-12 0)
(-0.000184225 2.69178e-12 0)
(-0.000184228 2.83523e-12 0)
(-0.00018423 2.97809e-12 0)
(-0.000184233 3.12064e-12 0)
(-0.000184236 3.26292e-12 0)
(-0.000184239 3.40472e-12 0)
(-0.000184242 3.54622e-12 0)
(-0.000184245 3.68721e-12 0)
(-0.000184248 3.82736e-12 0)
(-0.000184253 3.96702e-12 0)
(-0.000184258 4.10625e-12 0)
(-0.000184262 4.24497e-12 0)
(-0.000184267 4.38326e-12 0)
(-0.000184273 4.52111e-12 0)
(-0.000184278 4.6579e-12 0)
(-0.000184286 4.79381e-12 0)
(-0.000184292 4.92907e-12 0)
(-0.000184299 5.0639e-12 0)
(-0.000184307 5.19799e-12 0)
(-0.000184317 5.33193e-12 0)
(-0.000184327 5.46537e-12 0)
(-0.000184337 5.59791e-12 0)
(-0.000184349 5.72954e-12 0)
(-0.000184361 5.86023e-12 0)
(-0.000184374 5.99044e-12 0)
(-0.000184389 6.11999e-12 0)
(-0.000184405 6.24859e-12 0)
(-0.000184422 6.3765e-12 0)
(-0.00018444 6.50355e-12 0)
(-0.000184459 6.62983e-12 0)
(-0.000184481 6.75555e-12 0)
(-0.000184505 6.88072e-12 0)
(-0.00018453 7.00482e-12 0)
(-0.000184558 7.12785e-12 0)
(-0.000184588 7.25036e-12 0)
(-0.00018462 7.37197e-12 0)
(-0.000184654 7.49251e-12 0)
(-0.000184693 7.61236e-12 0)
(-0.000184733 7.73108e-12 0)
(-0.000184778 7.84872e-12 0)
(-0.000184826 7.96535e-12 0)
(-0.000184878 8.08123e-12 0)
(-0.000184935 8.19573e-12 0)
(-0.000184996 8.31507e-12 0)
(-0.000185062 4.71154e-12 0)
(-0.000185134 7.21895e-11 0)
(-0.000185212 -3.8199e-10 0)
(-0.000185295 5.74174e-08 0)
(-0.00018539 4.33638e-07 0)
(-0.000185506 1.48618e-06 0)
(-0.000185642 3.24973e-06 0)
(-0.000185778 5.30737e-06 0)
(-0.000185903 7.15809e-06 0)
(-0.000186014 8.57111e-06 0)
(-0.000186117 9.58613e-06 0)
(-0.00018622 1.03343e-05 0)
(-0.000186324 1.09295e-05 0)
(-0.000186431 1.14492e-05 0)
(-0.00018654 1.19435e-05 0)
(-0.000186651 1.24454e-05 0)
(-0.000186764 1.29755e-05 0)
(-0.000186877 1.3544e-05 0)
(-0.000186989 1.41504e-05 0)
(-0.0001871 1.47861e-05 0)
(-0.000187211 1.54382e-05 0)
(-0.000187321 1.6094e-05 0)
(-0.000187431 1.67444e-05 0)
(-0.000187543 1.73852e-05 0)
(-0.000187657 1.80166e-05 0)
(-0.000187772 1.8641e-05 0)
(-0.000187888 1.92619e-05 0)
(-0.000188005 1.98822e-05 0)
(-0.000188123 2.05042e-05 0)
(-0.000188242 2.11292e-05 0)
(-0.000188362 2.17577e-05 0)
(-0.000188482 2.23904e-05 0)
(-0.000188603 2.30277e-05 0)
(-0.000188726 2.36704e-05 0)
(-0.000188849 2.43198e-05 0)
(-0.000188974 2.49771e-05 0)
(-0.0001891 2.56435e-05 0)
(-0.000189227 2.63203e-05 0)
(-0.000189355 2.70083e-05 0)
(-0.000189484 2.77081e-05 0)
(-0.000189614 2.84202e-05 0)
(-0.000189745 2.91445e-05 0)
(-0.000189877 2.98808e-05 0)
(-0.00019001 3.06286e-05 0)
(-0.000190144 3.13871e-05 0)
(-0.000190278 3.21552e-05 0)
(-0.000190413 3.29315e-05 0)
(-0.00019055 3.37146e-05 0)
(-0.000190687 3.45027e-05 0)
(-0.000190824 3.52942e-05 0)
(-0.000190963 3.60873e-05 0)
(-0.000191103 3.68804e-05 0)
(-0.000191244 3.76719e-05 0)
(-0.000191386 3.84605e-05 0)
(-0.000191529 3.92448e-05 0)
(-0.000191674 4.00238e-05 0)
(-0.000191821 4.07964e-05 0)
(-0.00019197 4.15617e-05 0)
(-0.000192121 4.23189e-05 0)
(-0.000192274 4.30671e-05 0)
(-0.000192429 4.38055e-05 0)
(-0.000192587 4.45335e-05 0)
(-0.000192749 4.52507e-05 0)
(-0.000192913 4.59569e-05 0)
(-0.000193081 4.66521e-05 0)
(-0.000193254 4.73365e-05 0)
(-0.000193432 4.80093e-05 0)
(-0.000193614 4.86687e-05 0)
(-0.000193801 4.93112e-05 0)
(-0.000193993 4.99327e-05 0)
(-0.000194191 5.05299e-05 0)
(-0.000194401 5.11025e-05 0)
(-0.000194625 5.16524e-05 0)
(-0.00019486 5.21804e-05 0)
(-0.000195102 5.26829e-05 0)
(-0.000195356 5.31539e-05 0)
(-0.000195646 5.35872e-05 0)
(-0.00019599 5.39733e-05 0)
(-0.000196365 5.42896e-05 0)
(-0.000196701 5.44854e-05 0)
(-0.000197165 5.45719e-05 0)
(-0.000197856 5.45735e-05 0)
(-0.000198765 5.44996e-05 0)
(-0.000199949 5.43627e-05 0)
(-0.000201469 5.47691e-05 0)
(-0.00020353 4.09063e-05 0)
(-0.000204766 0.000123744 0)
(0.00171157 -0.000217114 0)
(0.117332 -0.00315897 0)
(0.235385 -0.00130734 0)
(0.329124 -0.00111272 0)
(0.414168 -0.000631289 0)
(0.497377 -0.000371637 0)
(0.583319 -0.000221749 0)
(0.676047 -0.00013865 0)
(0.784126 -9.36368e-05 0)
(0.897213 -6.49796e-05 0)
(0.977521 -5.79491e-05 0)
(1.03589 -2.98763e-05 0)
(1.08153 -2.80915e-05 0)
(1.11464 -5.26301e-06 0)
(1.13727 -1.02889e-05 0)
(1.15301 2.57306e-06 0)
(1.16483 -6.11369e-06 0)
(1.17429 3.53798e-06 0)
(1.18208 -4.91261e-06 0)
(1.1887 3.551e-06 0)
(1.19436 -4.23668e-06 0)
(1.19931 3.3914e-06 0)
(1.20366 -3.75845e-06 0)
(1.20756 3.18829e-06 0)
(1.21103 -3.38448e-06 0)
(1.21417 2.97833e-06 0)
(1.21701 -3.0783e-06 0)
(1.21959 2.77803e-06 0)
(1.22194 -2.81995e-06 0)
(1.22409 2.5896e-06 0)
(1.22605 -2.59652e-06 0)
(1.22784 2.41209e-06 0)
(1.22949 -2.38345e-06 0)
(1.231 2.21767e-06 0)
(1.23239 -2.1621e-06 0)
(1.23366 2.01174e-06 0)
(1.23484 -1.94026e-06 0)
(1.23591 1.80395e-06 0)
(1.23691 -1.72423e-06 0)
(1.23782 1.60077e-06 0)
(1.23866 -1.51847e-06 0)
(1.23944 1.40757e-06 0)
(1.24015 -1.32628e-06 0)
(1.24081 1.22704e-06 0)
(1.24141 -1.14944e-06 0)
(1.24197 1.06141e-06 0)
(1.24249 -9.88997e-07 0)
(1.24296 9.11578e-07 0)
(1.2434 -8.45421e-07 0)
(1.2438 7.77777e-07 0)
(1.24418 -7.18277e-07 0)
(1.24452 6.59741e-07 0)
(1.24484 -6.19703e-07 0)
(1.24514 5.81335e-07 0)
(1.24542 -5.45936e-07 0)
(1.24569 5.13098e-07 0)
(1.24593 -4.81883e-07 0)
(1.24616 4.5374e-07 0)
(1.24638 -4.26295e-07 0)
(1.24658 4.02223e-07 0)
(1.24676 -3.7815e-07 0)
(1.24693 3.57505e-07 0)
(1.24709 -3.36518e-07 0)
(1.24724 3.18877e-07 0)
(1.24737 -3.00602e-07 0)
(1.2475 2.85467e-07 0)
(1.24761 -2.6966e-07 0)
(1.24771 2.56767e-07 0)
(1.24781 -2.43095e-07 0)
(1.24789 2.32039e-07 0)
(1.24797 -2.20325e-07 0)
(1.24804 2.10913e-07 0)
(1.24811 -2.00857e-07 0)
(1.24816 1.92811e-07 0)
(1.24822 -1.84238e-07 0)
(1.24826 1.77399e-07 0)
(1.2483 -1.70122e-07 0)
(1.24834 1.64296e-07 0)
(1.24837 -1.58114e-07 0)
(1.2484 1.53163e-07 0)
(1.24843 -1.47958e-07 0)
(1.24845 1.43768e-07 0)
(1.24847 -1.39381e-07 0)
(1.24849 1.35821e-07 0)
(1.24851 -1.32143e-07 0)
(1.24852 1.29139e-07 0)
(1.24853 -1.26065e-07 0)
(1.24854 1.23531e-07 0)
(1.24855 -1.20964e-07 0)
(1.24856 1.18844e-07 0)
(1.24856 -1.16685e-07 0)
(1.24857 1.14931e-07 0)
(1.24857 -1.13109e-07 0)
(1.24858 1.11877e-07 0)
(1.24858 -1.10305e-07 0)
(1.24859 1.09027e-07 0)
(1.24859 -1.07844e-07 0)
(1.24859 1.06788e-07 0)
(1.24859 -1.05811e-07 0)
(1.24859 1.04942e-07 0)
(1.24859 -1.04136e-07 0)
(1.24859 1.03419e-07 0)
(1.2486 -1.02753e-07 0)
(1.2486 1.02161e-07 0)
(1.2486 -1.01609e-07 0)
(1.2486 1.01118e-07 0)
(1.2486 -1.00656e-07 0)
(1.2486 1.00245e-07 0)
(1.2486 -9.9855e-08 0)
(1.2486 9.95053e-08 0)
(1.2486 -9.91702e-08 0)
(1.2486 9.88673e-08 0)
(1.2486 -9.85734e-08 0)
(1.2486 9.83047e-08 0)
(1.2486 -9.80404e-08 0)
(1.2486 9.77955e-08 0)
(1.2486 -9.75513e-08 0)
(1.2486 9.7322e-08 0)
(1.2486 -9.70902e-08 0)
(1.2486 9.68697e-08 0)
(1.2486 -9.66444e-08 0)
(1.2486 9.64276e-08 0)
(1.2486 -9.62043e-08 0)
(1.2486 9.59875e-08 0)
(1.2486 -9.57629e-08 0)
(1.2486 9.55435e-08 0)
(1.2486 -9.53157e-08 0)
(1.2486 9.50923e-08 0)
(1.2486 -9.48603e-08 0)
(1.2486 9.46322e-08 0)
(1.2486 -9.4396e-08 0)
(1.2486 9.41637e-08 0)
(1.2486 -9.3924e-08 0)
(1.2486 9.36885e-08 0)
(1.2486 -9.34468e-08 0)
(1.2486 9.32098e-08 0)
(1.2486 -9.29681e-08 0)
(1.2486 9.27318e-08 0)
(1.2486 -9.24928e-08 0)
(1.2486 9.226e-08 0)
(1.2486 -9.20265e-08 0)
(1.2486 9.18004e-08 0)
(1.2486 -9.1576e-08 0)
(1.2486 9.13601e-08 0)
(1.2486 -9.11485e-08 0)
(1.2486 9.09465e-08 0)
(1.2486 -9.07517e-08 0)
(1.2486 9.0568e-08 0)
(1.2486 -9.03942e-08 0)
(1.2486 9.02333e-08 0)
(1.2486 -9.00848e-08 0)
(1.2486 8.99513e-08 0)
(1.2486 -8.98327e-08 0)
(1.2486 8.97316e-08 0)
(1.2486 -8.96479e-08 0)
(1.2486 8.95842e-08 0)
(1.2486 -8.95405e-08 0)
(1.2486 8.95193e-08 0)
(1.2486 -8.95209e-08 0)
(1.2486 8.95478e-08 0)
(1.2486 -8.96002e-08 0)
(1.2486 7.85715e-08 0)
(1.2486 -7.68766e-08 0)
(1.2486 7.52091e-08 0)
(1.2486 -7.35684e-08 0)
(1.2486 7.19564e-08 0)
(1.2486 -7.03724e-08 0)
(1.2486 6.88181e-08 0)
(1.2486 -6.72928e-08 0)
(1.2486 6.57982e-08 0)
(1.2486 -6.43334e-08 0)
(1.2486 6.29003e-08 0)
(1.2486 -6.14978e-08 0)
(1.2486 6.01278e-08 0)
(1.2486 -5.87891e-08 0)
(1.2486 5.74837e-08 0)
(1.2486 -5.62102e-08 0)
(1.2486 5.49708e-08 0)
(1.2486 -5.37636e-08 0)
(1.2486 5.25917e-08 0)
(1.2486 -5.14517e-08 0)
(1.2486 5.03488e-08 0)
(1.2486 -4.92768e-08 0)
(1.2486 4.8244e-08 0)
(1.2486 -4.72409e-08 0)
(1.2486 4.62793e-08 0)
(1.2486 -4.5346e-08 0)
(1.2486 4.44563e-08 0)
(1.2486 -4.35935e-08 0)
(1.2486 4.27765e-08 0)
(1.2486 -4.19849e-08 0)
(1.2486 4.12411e-08 0)
(1.2486 -4.05214e-08 0)
(1.2486 3.98513e-08 0)
(1.2486 -3.92044e-08 0)
(1.2486 3.86089e-08 0)
(1.2486 -3.80354e-08 0)
(1.2486 3.75155e-08 0)
(1.2486 -3.70076e-08 0)
(1.2486 3.65367e-08 0)
(1.2486 -3.60681e-08 0)
(1.2486 3.56388e-08 0)
(1.2486 -3.52136e-08 0)
(1.2486 3.483e-08 0)
(1.2486 -3.44539e-08 0)
(1.2486 3.41215e-08 0)
(1.2486 -3.38027e-08 0)
(1.2486 3.35306e-08 0)
(1.2486 -3.32839e-08 0)
(1.2486 3.30901e-08 0)
(1.2486 -3.2948e-08 0)
)
;

boundaryField
{
    inandouthalf11
    {
        type            cyclic;
    }
    inandouthalf12
    {
        type            cyclic;
    }
    inandouthalf21
    {
        type            cyclic;
    }
    inandouthalf22
    {
        type            cyclic;
    }
    inandouthalf31
    {
        type            cyclic;
    }
    inandouthalf32
    {
        type            cyclic;
    }
    inandouthalf41
    {
        type            cyclic;
    }
    inandouthalf42
    {
        type            cyclic;
    }
    top
    {
        type            symmetryPlane;
    }
    walls
    {
        type            fixedValue;
        value           uniform (0 0 0);
    }
    frontAndBackPlanes
    {
        type            empty;
    }
}


// ************************************************************************* //
