/*--------------------------------*- C++ -*----------------------------------*\
| =========                 |                                                 |
| \\      /  F ield         | OpenFOAM: The Open Source CFD Toolbox           |
|  \\    /   O peration     | Version:  2.4.x                                 |
|   \\  /    A nd           | Web:      www.OpenFOAM.org                      |
|    \\/     M anipulation  |                                                 |
\*---------------------------------------------------------------------------*/
FoamFile
{
    version     2.0;
    format      ascii;
    class       volScalarField;
    location    "7";
    object      alpha;
}
// * * * * * * * * * * * * * * * * * * * * * * * * * * * * * * * * * * * * * //

dimensions      [0 0 0 0 0 0 0];

internalField   nonuniform List<scalar> 
360
(
0.610766
0.611567
0.611673
0.611591
0.611544
0.611527
0.611509
0.611487
0.611464
0.611441
0.611417
0.611393
0.611369
0.611345
0.611321
0.611297
0.611272
0.611247
0.611222
0.611197
0.611171
0.611145
0.611119
0.611093
0.611067
0.61104
0.611013
0.610985
0.610958
0.61093
0.610902
0.610873
0.610845
0.610816
0.610787
0.610757
0.610727
0.610697
0.610667
0.610636
0.610605
0.610574
0.610542
0.61051
0.610478
0.610445
0.610412
0.610379
0.610345
0.610311
0.610276
0.610241
0.610206
0.61017
0.610134
0.610097
0.610061
0.610023
0.609985
0.609947
0.609908
0.609869
0.609829
0.609789
0.609748
0.609708
0.609666
0.609624
0.609582
0.609539
0.609495
0.609451
0.609407
0.609361
0.609315
0.609268
0.609221
0.609173
0.609124
0.609074
0.609023
0.608972
0.608919
0.608866
0.608811
0.608755
0.608698
0.608641
0.608582
0.608522
0.60846
0.608398
0.608335
0.608271
0.608206
0.60814
0.608073
0.608005
0.607936
0.607866
0.607794
0.607721
0.607646
0.607569
0.607491
0.60741
0.607328
0.607244
0.607157
0.607068
0.606977
0.606883
0.606786
0.606687
0.606585
0.60648
0.606372
0.606261
0.606146
0.606027
0.605905
0.605779
0.605649
0.605515
0.605376
0.605232
0.605083
0.604929
0.604769
0.604602
0.604428
0.604248
0.604059
0.60386
0.603649
0.603426
0.603192
0.602943
0.602667
0.602351
0.602009
0.601684
0.601293
0.600787
0.600155
0.598963
0.59547
0.594158
0.591979
0.477338
0.162484
0.0679362
0.0382868
0.0249195
0.017748
0.013356
0.0104309
0.00836925
0.00685376
0.00570314
0.00480706
0.00409479
0.00351899
0.0030469
0.00265515
0.0023267
0.00204885
0.00181195
0.00160859
0.00143295
0.00128047
0.00114744
0.00103092
0.000928449
0.00083804
0.000758023
0.000687002
0.000623798
0.000567414
0.000516994
0.00047181
0.00043123
0.00039471
0.000361779
0.000332027
0.000305096
0.000280673
0.000258485
0.000238292
0.000219882
0.000203068
0.000187686
0.000173591
0.000160651
0.000148751
0.000137788
0.000127668
0.000118308
0.000109634
0.000101583
9.40983e-05
8.7057e-05
8.03664e-05
7.40076e-05
6.7962e-05
6.22032e-05
5.67049e-05
5.14502e-05
4.64278e-05
4.16349e-05
3.70786e-05
3.27687e-05
2.873e-05
2.49895e-05
2.15589e-05
1.84536e-05
1.56826e-05
1.3241e-05
1.11129e-05
9.27797e-06
7.71493e-06
6.38989e-06
5.27172e-06
4.33536e-06
3.55398e-06
2.90266e-06
2.36348e-06
1.91626e-06
1.55038e-06
1.2453e-06
1.00072e-06
7.92771e-07
6.35508e-07
4.86391e-07
3.97499e-07
2.90472e-07
3.19607e-07
2.16629e-07
1.23406e-07
6.34075e-08
2.90255e-08
1.0738e-08
1.22257e-19
2.8e-31
1.84396e-33
1.53398e-33
8.61215e-34
3.3491e-34
1.58193e-34
8.88254e-35
5.64669e-35
3.99494e-35
2.95851e-35
1.97786e-35
9.33692e-36
4.12492e-36
2.15396e-36
1.23327e-36
7.5981e-37
4.62242e-37
2.25094e-37
1.08071e-37
5.60954e-38
2.98299e-38
1.54628e-38
7.62247e-39
3.7951e-39
1.86191e-39
8.97792e-40
4.2523e-40
1.97718e-40
9.01929e-41
4.03383e-41
1.7676e-41
7.58318e-42
3.18263e-42
1.30567e-42
5.23139e-43
2.0452e-43
7.79403e-44
2.89229e-44
1.04397e-44
3.66079e-45
1.24551e-45
4.10576e-46
1.30938e-46
4.03322e-47
1.19779e-47
3.42304e-48
9.39338e-49
2.46941e-49
6.20297e-50
1.48454e-50
3.37416e-51
7.25676e-52
1.47072e-52
2.79558e-53
4.95666e-54
8.14514e-55
1.23111e-55
1.69591e-56
2.10528e-57
2.32194e-58
2.23357e-59
1.82769e-60
1.22756e-61
6.40282e-63
2.352e-64
4.87503e-66
1.74894e-68
8.47374e-73
8.08107e-75
3.82295e-77
1.28474e-87
2.15049e-98
2.56041e-109
2.20192e-120
1.59694e-131
8.876e-143
4.22948e-154
4.41191e-164
1.81365e-174
1.4748e-182
5.41497e-193
5.07279e-201
2.16415e-211
1.74532e-219
9.10303e-230
6.01002e-238
5.72901e-248
2.09811e-256
3.72998e-266
7.46838e-275
1.83323e-284
2.7073e-293
8.66581e-303
9.96431e-312
2.33693e-321
4.57737e-319
2.8055e-319
6.80328e-321
7.09478e-321
6.08689e-321
8.5424e-321
0
0
0
0
0
0
0
0
0
0
0
0
0
0
0
0
)
;

boundaryField
{
    inandouthalf11
    {
        type            cyclic;
    }
    inandouthalf12
    {
        type            cyclic;
    }
    inandouthalf21
    {
        type            cyclic;
    }
    inandouthalf22
    {
        type            cyclic;
    }
    inandouthalf31
    {
        type            cyclic;
    }
    inandouthalf32
    {
        type            cyclic;
    }
    inandouthalf41
    {
        type            cyclic;
    }
    inandouthalf42
    {
        type            cyclic;
    }
    top
    {
        type            symmetryPlane;
    }
    walls
    {
        type            zeroGradient;
    }
    frontAndBackPlanes
    {
        type            empty;
    }
}


// ************************************************************************* //
