/*--------------------------------*- C++ -*----------------------------------*\
| =========                 |                                                 |
| \\      /  F ield         | OpenFOAM: The Open Source CFD Toolbox           |
|  \\    /   O peration     | Version:  2.4.x                                 |
|   \\  /    A nd           | Web:      www.OpenFOAM.org                      |
|    \\/     M anipulation  |                                                 |
\*---------------------------------------------------------------------------*/
FoamFile
{
    version     2.0;
    format      ascii;
    class       volScalarField;
    location    "7";
    object      alpha_0;
}
// * * * * * * * * * * * * * * * * * * * * * * * * * * * * * * * * * * * * * //

dimensions      [0 0 0 0 0 0 0];

internalField   nonuniform List<scalar> 
360
(
0.610766
0.611567
0.611673
0.611591
0.611544
0.611527
0.611509
0.611487
0.611464
0.611441
0.611417
0.611393
0.611369
0.611345
0.611321
0.611297
0.611272
0.611247
0.611222
0.611197
0.611171
0.611145
0.611119
0.611093
0.611067
0.61104
0.611013
0.610985
0.610958
0.61093
0.610902
0.610873
0.610845
0.610816
0.610787
0.610757
0.610727
0.610697
0.610667
0.610636
0.610605
0.610574
0.610542
0.61051
0.610478
0.610445
0.610412
0.610379
0.610345
0.610311
0.610276
0.610241
0.610206
0.61017
0.610134
0.610097
0.610061
0.610023
0.609985
0.609947
0.609908
0.609869
0.609829
0.609789
0.609748
0.609708
0.609666
0.609624
0.609582
0.609539
0.609495
0.609451
0.609407
0.609361
0.609315
0.609268
0.609221
0.609173
0.609124
0.609074
0.609023
0.608972
0.608919
0.608866
0.608811
0.608755
0.608698
0.60864
0.608582
0.608521
0.60846
0.608398
0.608335
0.608271
0.608206
0.60814
0.608073
0.608005
0.607936
0.607866
0.607794
0.607721
0.607646
0.607569
0.607491
0.60741
0.607328
0.607244
0.607157
0.607068
0.606977
0.606883
0.606786
0.606687
0.606585
0.60648
0.606372
0.606261
0.606146
0.606027
0.605905
0.605779
0.605649
0.605515
0.605376
0.605232
0.605083
0.604929
0.604769
0.604602
0.604428
0.604248
0.604059
0.60386
0.603649
0.603426
0.603192
0.602943
0.602667
0.602351
0.602009
0.601684
0.601293
0.600787
0.600155
0.598963
0.59547
0.594158
0.591979
0.477163
0.162504
0.0679803
0.0383169
0.02494
0.0177623
0.0133662
0.0104385
0.00837498
0.00685819
0.00570663
0.00480984
0.00409704
0.00352084
0.00304843
0.00265643
0.00232778
0.00204976
0.00181273
0.00160925
0.00143353
0.00128096
0.00114788
0.00103129
0.000928781
0.000838333
0.000758282
0.000687231
0.000624002
0.000567594
0.000517156
0.000471954
0.000431359
0.000394826
0.000361884
0.000332122
0.000305181
0.00028075
0.000258555
0.000238355
0.000219938
0.000203119
0.000187733
0.000173633
0.000160689
0.000148786
0.00013782
0.000127697
0.000118334
0.000109658
0.000101605
9.41177e-05
8.70745e-05
8.03822e-05
7.40218e-05
6.79747e-05
6.22145e-05
5.67149e-05
5.1459e-05
4.64355e-05
4.16416e-05
3.70843e-05
3.27735e-05
2.87341e-05
2.49928e-05
2.15616e-05
1.84557e-05
1.56843e-05
1.32423e-05
1.11139e-05
9.27874e-06
7.71552e-06
6.39032e-06
5.27205e-06
4.33561e-06
3.55416e-06
2.9028e-06
2.36358e-06
1.91634e-06
1.55044e-06
1.24534e-06
1.00075e-06
7.9279e-07
6.35523e-07
4.864e-07
3.97512e-07
2.90458e-07
3.19657e-07
2.16638e-07
1.23412e-07
6.33962e-08
2.90232e-08
1.07279e-08
1.22518e-19
2.82954e-31
1.8468e-33
1.53696e-33
8.65338e-34
3.36569e-34
1.58801e-34
8.90954e-35
5.6602e-35
4.00222e-35
2.96384e-35
1.98314e-35
9.37988e-36
4.13992e-36
2.16064e-36
1.23662e-36
7.61623e-37
4.63488e-37
2.25912e-37
1.08413e-37
5.62641e-38
2.99163e-38
1.55097e-38
7.64569e-39
3.80664e-39
1.86759e-39
9.00534e-40
4.26531e-40
1.98324e-40
9.047e-41
4.04625e-41
1.77305e-41
7.60662e-42
3.19249e-42
1.30973e-42
5.24767e-43
2.05158e-43
7.81839e-44
2.90135e-44
1.04724e-44
3.67231e-45
1.24943e-45
4.11874e-46
1.31353e-46
4.04602e-47
1.2016e-47
3.43396e-48
9.42342e-49
2.47732e-49
6.2229e-50
1.48932e-50
3.38506e-51
7.28026e-52
1.4755e-52
2.80468e-53
4.97284e-54
8.17181e-55
1.23515e-55
1.70149e-56
2.11224e-57
2.32963e-58
2.24099e-59
1.83379e-60
1.23167e-61
6.42434e-63
2.35994e-64
4.89159e-66
1.75499e-68
8.50515e-73
8.11123e-75
3.83732e-77
1.28957e-87
2.15858e-98
2.57003e-109
2.2102e-120
1.60294e-131
8.90935e-143
4.24535e-154
4.42849e-164
1.82046e-174
1.48034e-182
5.43532e-193
5.09186e-201
2.17228e-211
1.75188e-219
9.13722e-230
6.03261e-238
5.7505e-248
2.10599e-256
3.74395e-266
7.49645e-275
1.84011e-284
2.71748e-293
8.6983e-303
1.00017e-311
2.33693e-321
4.57737e-319
2.8055e-319
6.80328e-321
7.09478e-321
6.08689e-321
8.5424e-321
0
0
0
0
0
0
0
0
0
0
0
0
0
0
0
0
)
;

boundaryField
{
    inandouthalf11
    {
        type            cyclic;
    }
    inandouthalf12
    {
        type            cyclic;
    }
    inandouthalf21
    {
        type            cyclic;
    }
    inandouthalf22
    {
        type            cyclic;
    }
    inandouthalf31
    {
        type            cyclic;
    }
    inandouthalf32
    {
        type            cyclic;
    }
    inandouthalf41
    {
        type            cyclic;
    }
    inandouthalf42
    {
        type            cyclic;
    }
    top
    {
        type            symmetryPlane;
    }
    walls
    {
        type            zeroGradient;
    }
    frontAndBackPlanes
    {
        type            empty;
    }
}


// ************************************************************************* //
