/*--------------------------------*- C++ -*----------------------------------*\
| =========                 |                                                 |
| \\      /  F ield         | OpenFOAM: The Open Source CFD Toolbox           |
|  \\    /   O peration     | Version:  2.4.x                                 |
|   \\  /    A nd           | Web:      www.OpenFOAM.org                      |
|    \\/     M anipulation  |                                                 |
\*---------------------------------------------------------------------------*/
FoamFile
{
    version     2.0;
    format      ascii;
    class       volVectorField;
    location    "7";
    object      ddt0(Ub);
}
// * * * * * * * * * * * * * * * * * * * * * * * * * * * * * * * * * * * * * //

dimensions      [0 1 -2 0 0 0 0];

internalField   nonuniform List<vector> 
360
(
(0.000203973 -2.32055e-08 0)
(0.000202913 -8.66253e-08 0)
(0.000202775 -1.63568e-07 0)
(0.000202948 -2.34785e-07 0)
(0.000203048 -3.04816e-07 0)
(0.000203099 -3.76994e-07 0)
(0.000203154 -4.5134e-07 0)
(0.000203216 -5.27101e-07 0)
(0.00020328 -6.03909e-07 0)
(0.000203345 -6.81765e-07 0)
(0.00020341 -7.60803e-07 0)
(0.000203476 -8.4109e-07 0)
(0.000203542 -9.22597e-07 0)
(0.000203608 -1.00526e-06 0)
(0.000203676 -1.08898e-06 0)
(0.000203744 -1.17373e-06 0)
(0.000203813 -1.25947e-06 0)
(0.000203882 -1.34617e-06 0)
(0.000203952 -1.43382e-06 0)
(0.000204023 -1.52241e-06 0)
(0.000204094 -1.6119e-06 0)
(0.000204167 -1.7023e-06 0)
(0.00020424 -1.79362e-06 0)
(0.000204314 -1.88587e-06 0)
(0.000204388 -1.97908e-06 0)
(0.000204463 -2.07326e-06 0)
(0.000204539 -2.16845e-06 0)
(0.000204617 -2.26467e-06 0)
(0.000204694 -2.36195e-06 0)
(0.000204773 -2.46028e-06 0)
(0.000204852 -2.55965e-06 0)
(0.000204933 -2.66005e-06 0)
(0.000205014 -2.76142e-06 0)
(0.000205097 -2.86374e-06 0)
(0.00020518 -2.96692e-06 0)
(0.000205264 -3.07091e-06 0)
(0.000205349 -3.17564e-06 0)
(0.000205435 -3.28108e-06 0)
(0.000205523 -3.38729e-06 0)
(0.00020561 -3.49426e-06 0)
(0.000205699 -3.60217e-06 0)
(0.00020579 -3.71122e-06 0)
(0.00020588 -3.82168e-06 0)
(0.000205973 -3.934e-06 0)
(0.000206066 -4.04865e-06 0)
(0.000206161 -4.1662e-06 0)
(0.000206258 -4.28726e-06 0)
(0.000206355 -4.41236e-06 0)
(0.000206454 -4.54207e-06 0)
(0.000206556 -4.67693e-06 0)
(0.000206658 -4.81711e-06 0)
(0.000206763 -4.96256e-06 0)
(0.00020687 -5.11276e-06 0)
(0.000206979 -5.26679e-06 0)
(0.000207089 -5.42306e-06 0)
(0.000207201 -5.57958e-06 0)
(0.000207314 -5.73365e-06 0)
(0.000207428 -5.88224e-06 0)
(0.000207542 -6.02197e-06 0)
(0.000207656 -6.14936e-06 0)
(0.00020777 -6.26129e-06 0)
(0.000207881 -6.3549e-06 0)
(0.000207992 -6.42821e-06 0)
(0.0002081 -6.48011e-06 0)
(0.000208205 -6.51083e-06 0)
(0.000208308 -6.52201e-06 0)
(0.00020841 -6.51697e-06 0)
(0.000208509 -6.50056e-06 0)
(0.000208609 -6.47914e-06 0)
(0.000208708 -6.46031e-06 0)
(0.000208811 -6.45278e-06 0)
(0.000208918 -6.4661e-06 0)
(0.00020903 -6.51048e-06 0)
(0.000209151 -6.59699e-06 0)
(0.000209284 -6.73734e-06 0)
(0.000209432 -6.9443e-06 0)
(0.000209597 -7.23156e-06 0)
(0.000209785 -7.61413e-06 0)
(0.000209999 -8.10861e-06 0)
(0.000210245 -8.73329e-06 0)
(0.000210528 -9.50792e-06 0)
(0.000210856 -1.04532e-05 0)
(0.000211234 -1.15891e-05 0)
(0.00021167 -1.29316e-05 0)
(0.000212168 -1.4487e-05 0)
(0.000212729 -1.62445e-05 0)
(0.000213347 -1.81659e-05 0)
(0.000214007 -2.01747e-05 0)
(0.000214679 -2.21493e-05 0)
(0.000215321 -2.3922e-05 0)
(0.000215874 -2.52923e-05 0)
(0.000216277 -2.60545e-05 0)
(0.000216469 -2.60383e-05 0)
(0.000216413 -2.51535e-05 0)
(0.0002161 -2.34221e-05 0)
(0.000215559 -2.09856e-05 0)
(0.000214853 -1.80793e-05 0)
(0.000214063 -1.49826e-05 0)
(0.000213272 -1.19609e-05 0)
(0.000212547 -9.22009e-06 0)
(0.000211934 -6.88388e-06 0)
(0.000211454 -4.99584e-06 0)
(0.000211105 -3.53787e-06 0)
(0.000210876 -2.4545e-06 0)
(0.000210746 -1.67487e-06 0)
(0.000210696 -1.12835e-06 0)
(0.000210707 -7.53176e-07 0)
(0.000210763 -4.99754e-07 0)
(0.000210852 -3.306e-07 0)
(0.000210966 -2.18613e-07 0)
(0.000211098 -1.44832e-07 0)
(0.000211245 -9.63216e-08 0)
(0.000211402 -6.44121e-08 0)
(0.000211569 -4.33711e-08 0)
(0.000211744 -2.94419e-08 0)
(0.000211926 -2.01644e-08 0)
(0.000212115 -1.3947e-08 0)
(0.000212311 -9.75317e-09 0)
(0.000212513 -6.89988e-09 0)
(0.000212723 -4.94052e-09 0)
(0.00021294 -3.583e-09 0)
(0.000213164 -2.6409e-09 0)
(0.000213396 -1.98143e-09 0)
(0.000213636 -1.51229e-09 0)
(0.000213884 -1.17878e-09 0)
(0.000214142 -9.38522e-10 0)
(0.000214408 -7.68038e-10 0)
(0.000214685 -6.47097e-10 0)
(0.000214973 -5.62241e-10 0)
(0.000215273 -5.04831e-10 0)
(0.000215586 -4.64204e-10 0)
(0.000215912 -4.38071e-10 0)
(0.000216252 -4.27322e-10 0)
(0.000216612 -4.25093e-10 0)
(0.000216994 -4.27989e-10 0)
(0.0002174 -4.39808e-10 0)
(0.000217825 -4.61633e-10 0)
(0.000218279 -4.9645e-10 0)
(0.000218783 -5.28051e-10 0)
(0.000219362 -5.39774e-10 0)
(0.000219988 -5.99564e-10 0)
(0.000220587 -6.91619e-10 0)
(0.000221309 -7.82514e-10 0)
(0.000222249 -1.39077e-09 0)
(0.000223433 -5.6902e-09 0)
(0.000225756 -2.94609e-07 0)
(0.000231476 1.26246e-05 0)
(0.000235247 1.60899e-05 0)
(0.000252618 0.000131337 0)
(0.00382343 0.00031657 0)
(0.222388 0.00275111 0)
(0.343559 -0.00291721 0)
(0.430416 0.000565674 0)
(0.493901 -0.00112104 0)
(0.54206 -5.47415e-05 0)
(0.579845 -0.000115034 0)
(0.610269 -0.000120441 0)
(0.635265 -8.41597e-05 0)
(0.656145 -5.38633e-05 0)
(0.673832 -3.629e-05 0)
(0.688999 -2.58144e-05 0)
(0.702149 -1.88571e-05 0)
(0.713664 -1.40086e-05 0)
(0.723841 -1.05769e-05 0)
(0.732911 -8.10211e-06 0)
(0.741058 -6.27229e-06 0)
(0.748428 -4.88484e-06 0)
(0.755137 -3.8087e-06 0)
(0.761281 -2.95709e-06 0)
(0.766936 -2.27093e-06 0)
(0.772166 -1.70911e-06 0)
(0.777021 -1.24243e-06 0)
(0.781545 -8.49787e-07 0)
(0.785774 -5.15717e-07 0)
(0.789736 -2.28799e-07 0)
(0.793458 1.94608e-08 0)
(0.796961 2.35413e-07 0)
(0.800263 4.23823e-07 0)
(0.80338 5.88288e-07 0)
(0.806325 7.3155e-07 0)
(0.809111 8.55728e-07 0)
(0.811748 9.62522e-07 0)
(0.814246 1.05333e-06 0)
(0.816614 1.12935e-06 0)
(0.818859 1.19165e-06 0)
(0.820988 1.24124e-06 0)
(0.823008 1.27906e-06 0)
(0.824925 1.30604e-06 0)
(0.826744 1.32307e-06 0)
(0.82847 1.33103e-06 0)
(0.830109 1.33079e-06 0)
(0.831665 1.32319e-06 0)
(0.833142 1.30903e-06 0)
(0.834544 1.28905e-06 0)
(0.835874 1.26398e-06 0)
(0.837137 1.23448e-06 0)
(0.838333 1.20116e-06 0)
(0.839466 1.16464e-06 0)
(0.840538 1.12545e-06 0)
(0.841551 1.08409e-06 0)
(0.842506 1.04094e-06 0)
(0.843414 9.95882e-07 0)
(0.844287 9.48795e-07 0)
(0.845123 8.9994e-07 0)
(0.845923 8.49481e-07 0)
(0.846689 7.97584e-07 0)
(0.84742 7.44491e-07 0)
(0.848114 6.90484e-07 0)
(0.848771 6.35862e-07 0)
(0.84939 5.80965e-07 0)
(0.849968 5.26223e-07 0)
(0.850503 4.72199e-07 0)
(0.850992 4.19586e-07 0)
(0.851433 3.69093e-07 0)
(0.851823 3.21388e-07 0)
(0.852158 2.77094e-07 0)
(0.852435 2.36704e-07 0)
(0.852649 2.0049e-07 0)
(0.852794 1.68515e-07 0)
(0.852867 1.40686e-07 0)
(0.85286 1.16779e-07 0)
(0.852766 9.64347e-08 0)
(0.852578 7.92475e-08 0)
(0.852287 6.48349e-08 0)
(0.851884 5.2821e-08 0)
(0.851357 4.28479e-08 0)
(0.850695 3.46075e-08 0)
(0.849885 2.78321e-08 0)
(0.848911 2.22791e-08 0)
(0.84776 1.77399e-08 0)
(0.846413 1.40468e-08 0)
(0.844856 1.10604e-08 0)
(0.843072 8.62892e-09 0)
(0.841047 6.64442e-09 0)
(0.838768 5.14688e-09 0)
(0.83623 4.29475e-09 0)
(0.833436 2.75608e-09 0)
(0.830399 7.73588e-10 0)
(0.827148 4.91728e-10 0)
(0.823728 -6.0621e-10 0)
(0.820203 -1.13232e-09 0)
(0.816649 -2.1433e-10 0)
(0.813149 -1.66831e-10 0)
(0.809782 -2.76799e-11 0)
(0.806617 -3.47136e-11 0)
(0.803699 -4.51349e-11 0)
(0.801054 -4.25326e-11 0)
(0.798691 -3.99176e-11 0)
(0.796608 -3.61509e-11 0)
(0.794798 -3.42395e-11 0)
(0.793251 -3.3827e-11 0)
(0.791959 -5.58912e-11 0)
(0.790913 4.53916e-12 0)
(0.790104 -6.42851e-11 0)
(0.789527 -3.15816e-11 0)
(0.789181 4.7608e-11 0)
(0.789087 -2.07107e-10 0)
(0.789325 2.81181e-10 0)
(0.790122 -4.56532e-10 0)
(0.792456 5.39187e-10 0)
(0.793312 -6.94801e-10 0)
(0.793356 7.58647e-10 0)
(0.793357 -8.85148e-10 0)
(0.793357 9.30244e-10 0)
(0.793357 -1.03246e-09 0)
(0.793357 1.06342e-09 0)
(0.793357 -1.15553e-09 0)
(0.793357 1.18792e-09 0)
(0.793357 -1.27508e-09 0)
(0.793357 1.31607e-09 0)
(0.793357 -1.40227e-09 0)
(0.793357 1.4499e-09 0)
(0.793357 -1.54076e-09 0)
(0.793357 1.58829e-09 0)
(0.793357 -1.68807e-09 0)
(0.793357 1.73799e-09 0)
(0.793357 -1.8405e-09 0)
(0.793357 1.89625e-09 0)
(0.793357 -2.0026e-09 0)
(0.793357 2.06148e-09 0)
(0.793357 -2.17353e-09 0)
(0.793357 2.23534e-09 0)
(0.793357 -2.35216e-09 0)
(0.793357 2.41923e-09 0)
(0.793357 -2.53838e-09 0)
(0.793357 2.6099e-09 0)
(0.793357 -2.73422e-09 0)
(0.793357 2.81393e-09 0)
(0.793357 -2.93252e-09 0)
(0.793357 3.0299e-09 0)
(0.793357 -3.13931e-09 0)
(0.793357 3.2548e-09 0)
(0.793357 -3.35488e-09 0)
(0.793357 3.48911e-09 0)
(0.793357 -3.58042e-09 0)
(0.793357 3.73279e-09 0)
(0.793357 -3.81482e-09 0)
(0.793357 3.98447e-09 0)
(0.793357 -4.0632e-09 0)
(0.793357 4.24307e-09 0)
(0.793357 -4.32038e-09 0)
(0.793357 4.51171e-09 0)
(0.793357 -4.5895e-09 0)
(0.793357 4.78744e-09 0)
(0.793357 -4.86708e-09 0)
(0.793357 5.07244e-09 0)
(0.793357 -5.1529e-09 0)
(0.793357 5.36035e-09 0)
(0.793357 -5.44435e-09 0)
(0.793357 5.65341e-09 0)
(0.793357 -5.03081e-09 0)
(0.793357 5.12885e-09 0)
(0.793357 -5.09399e-09 0)
(0.793357 5.19077e-09 0)
(0.793357 -5.16097e-09 0)
(0.793357 5.25318e-09 0)
(0.793357 -5.22876e-09 0)
(0.793357 5.31744e-09 0)
(0.793357 -5.29504e-09 0)
(0.793357 5.37779e-09 0)
(0.793357 -5.36226e-09 0)
(0.793357 5.43691e-09 0)
(0.793357 -5.42772e-09 0)
(0.793357 5.49451e-09 0)
(0.793357 -5.49011e-09 0)
(0.793357 5.54765e-09 0)
(0.793357 -5.55395e-09 0)
(0.793357 5.5978e-09 0)
(0.793357 -5.63388e-09 0)
(0.793357 5.61385e-09 0)
(0.793357 -5.73865e-09 0)
(0.793357 5.61517e-09 0)
(0.793357 -5.83966e-09 0)
(0.793357 5.61613e-09 0)
(0.793357 -5.93561e-09 0)
(0.793357 5.62303e-09 0)
(0.793357 -6.02877e-09 0)
(0.793357 5.62206e-09 0)
(0.793357 -6.12171e-09 0)
(0.793357 5.62547e-09 0)
(0.793357 -6.19722e-09 0)
(0.793357 5.63347e-09 0)
(0.793357 -6.26461e-09 0)
(0.793357 5.67835e-09 0)
(0.793357 -6.32359e-09 0)
(0.793357 5.68299e-09 0)
(0.793357 -6.4009e-09 0)
(0.793357 5.69716e-09 0)
(0.793357 -6.44825e-09 0)
(0.793357 5.72923e-09 0)
(0.793357 -6.46899e-09 0)
(0.793357 5.79458e-09 0)
(0.793357 -6.45862e-09 0)
(0.793357 5.85601e-09 0)
(0.793357 -6.4312e-09 0)
(0.793357 5.95467e-09 0)
(0.793357 -6.36109e-09 0)
(0.793357 6.17112e-09 0)
(0.793357 -6.27019e-09 0)
(0.793357 6.06202e-09 0)
)
;

boundaryField
{
    inandouthalf11
    {
        type            cyclic;
    }
    inandouthalf12
    {
        type            cyclic;
    }
    inandouthalf21
    {
        type            cyclic;
    }
    inandouthalf22
    {
        type            cyclic;
    }
    inandouthalf31
    {
        type            cyclic;
    }
    inandouthalf32
    {
        type            cyclic;
    }
    inandouthalf41
    {
        type            cyclic;
    }
    inandouthalf42
    {
        type            cyclic;
    }
    top
    {
        type            symmetryPlane;
    }
    walls
    {
        type            calculated;
        value           uniform (0 0 0);
    }
    frontAndBackPlanes
    {
        type            empty;
    }
}


// ************************************************************************* //
