/*--------------------------------*- C++ -*----------------------------------*\
| =========                 |                                                 |
| \\      /  F ield         | OpenFOAM: The Open Source CFD Toolbox           |
|  \\    /   O peration     | Version:  2.4.x                                 |
|   \\  /    A nd           | Web:      www.OpenFOAM.org                      |
|    \\/     M anipulation  |                                                 |
\*---------------------------------------------------------------------------*/
FoamFile
{
    version     2.0;
    format      ascii;
    class       volVectorField;
    location    "7";
    object      ddt0(Ua);
}
// * * * * * * * * * * * * * * * * * * * * * * * * * * * * * * * * * * * * * //

dimensions      [0 1 -2 0 0 0 0];

internalField   nonuniform List<vector> 
360
(
(1.25707e-32 -4.69891e-33 0)
(2.4622e-08 5.70492e-08 0)
(5.14699e-08 1.06801e-07 0)
(7.50751e-08 1.494e-07 0)
(9.86353e-08 1.93152e-07 0)
(1.23106e-07 2.39318e-07 0)
(1.4807e-07 2.86819e-07 0)
(1.73239e-07 3.35063e-07 0)
(1.98581e-07 3.83929e-07 0)
(2.2414e-07 4.33465e-07 0)
(2.49963e-07 4.83774e-07 0)
(2.76077e-07 5.34903e-07 0)
(3.02484e-07 5.8683e-07 0)
(3.29179e-07 6.39498e-07 0)
(3.56158e-07 6.92853e-07 0)
(3.83423e-07 7.46863e-07 0)
(4.10983e-07 8.01517e-07 0)
(4.38845e-07 8.56801e-07 0)
(4.67012e-07 9.12698e-07 0)
(4.95491e-07 9.692e-07 0)
(5.24286e-07 1.02629e-06 0)
(5.53402e-07 1.08398e-06 0)
(5.82847e-07 1.14226e-06 0)
(6.1263e-07 1.20115e-06 0)
(6.42761e-07 1.26066e-06 0)
(6.73247e-07 1.32082e-06 0)
(7.04096e-07 1.38162e-06 0)
(7.35321e-07 1.4431e-06 0)
(7.66931e-07 1.50527e-06 0)
(7.98933e-07 1.56813e-06 0)
(8.3133e-07 1.63167e-06 0)
(8.6413e-07 1.69589e-06 0)
(8.97331e-07 1.76075e-06 0)
(9.30936e-07 1.82622e-06 0)
(9.64943e-07 1.89228e-06 0)
(9.99345e-07 1.95886e-06 0)
(1.03414e-06 2.02593e-06 0)
(1.06932e-06 2.09347e-06 0)
(1.1049e-06 2.1615e-06 0)
(1.14088e-06 2.23005e-06 0)
(1.17728e-06 2.29918e-06 0)
(1.21412e-06 2.36906e-06 0)
(1.25146e-06 2.43985e-06 0)
(1.28934e-06 2.51181e-06 0)
(1.32786e-06 2.58529e-06 0)
(1.36709e-06 2.66063e-06 0)
(1.40714e-06 2.73823e-06 0)
(1.44812e-06 2.81845e-06 0)
(1.49012e-06 2.90165e-06 0)
(1.53329e-06 2.9882e-06 0)
(1.5777e-06 3.07826e-06 0)
(1.62339e-06 3.17175e-06 0)
(1.67033e-06 3.26841e-06 0)
(1.71844e-06 3.36762e-06 0)
(1.76752e-06 3.46841e-06 0)
(1.81729e-06 3.56946e-06 0)
(1.86734e-06 3.66908e-06 0)
(1.91716e-06 3.76526e-06 0)
(1.96618e-06 3.85583e-06 0)
(2.01375e-06 3.93851e-06 0)
(2.05925e-06 4.01122e-06 0)
(2.10208e-06 4.07216e-06 0)
(2.14173e-06 4.11995e-06 0)
(2.17784e-06 4.15385e-06 0)
(2.21022e-06 4.17396e-06 0)
(2.23897e-06 4.18131e-06 0)
(2.26447e-06 4.178e-06 0)
(2.28747e-06 4.16718e-06 0)
(2.30904e-06 4.15294e-06 0)
(2.33056e-06 4.14021e-06 0)
(2.35376e-06 4.13458e-06 0)
(2.38063e-06 4.14221e-06 0)
(2.41342e-06 4.1697e-06 0)
(2.45468e-06 4.22408e-06 0)
(2.50725e-06 4.31291e-06 0)
(2.57433e-06 4.44436e-06 0)
(2.65952e-06 4.62723e-06 0)
(2.76687e-06 4.87111e-06 0)
(2.90104e-06 5.18668e-06 0)
(3.06735e-06 5.58575e-06 0)
(3.27176e-06 6.08117e-06 0)
(3.52088e-06 6.6865e-06 0)
(3.82156e-06 7.41521e-06 0)
(4.18022e-06 8.27845e-06 0)
(4.60141e-06 9.28175e-06 0)
(5.0857e-06 1.04198e-05 0)
(5.62668e-06 1.167e-05 0)
(6.20747e-06 1.29848e-05 0)
(6.79747e-06 1.4286e-05 0)
(7.35088e-06 1.5464e-05 0)
(7.80869e-06 1.63849e-05 0)
(8.10547e-06 1.6909e-05 0)
(8.18123e-06 1.69188e-05 0)
(7.99601e-06 1.63496e-05 0)
(7.54257e-06 1.52141e-05 0)
(6.85204e-06 1.36072e-05 0)
(5.98927e-06 1.16892e-05 0)
(5.0387e-06 9.65011e-06 0)
(4.08596e-06 7.66908e-06 0)
(3.20158e-06 5.88251e-06 0)
(2.4318e-06 4.36971e-06 0)
(1.79721e-06 3.15564e-06 0)
(1.29754e-06 2.22457e-06 0)
(9.18896e-07 1.53721e-06 0)
(6.40879e-07 1.04545e-06 0)
(4.41887e-07 7.02467e-07 0)
(3.02287e-07 4.68002e-07 0)
(2.05831e-07 3.1015e-07 0)
(1.39912e-07 2.05046e-07 0)
(9.51847e-08 1.35577e-07 0)
(6.49563e-08 8.98495e-08 0)
(4.45499e-08 5.97918e-08 0)
(3.07567e-08 4.00146e-08 0)
(2.14028e-08 2.69633e-08 0)
(1.5028e-08 1.8311e-08 0)
(1.06559e-08 1.25412e-08 0)
(7.63504e-09 8.66665e-09 0)
(5.53033e-09 6.04465e-09 0)
(4.05076e-09 4.25539e-09 0)
(3.00078e-09 3.02368e-09 0)
(2.24837e-09 2.16813e-09 0)
(1.70381e-09 1.56849e-09 0)
(1.30576e-09 1.14443e-09 0)
(1.01192e-09 8.41913e-10 0)
(7.92885e-10 6.24274e-10 0)
(6.28037e-10 4.66418e-10 0)
(5.02786e-10 3.51019e-10 0)
(4.06728e-10 2.66015e-10 0)
(3.32401e-10 2.02966e-10 0)
(2.74438e-10 1.55935e-10 0)
(2.28968e-10 1.20736e-10 0)
(1.93164e-10 9.43778e-11 0)
(1.64907e-10 7.46693e-11 0)
(1.42559e-10 5.99554e-11 0)
(1.24832e-10 4.89725e-11 0)
(1.1071e-10 4.0775e-11 0)
(9.93688e-11 3.46538e-11 0)
(9.00673e-11 3.00368e-11 0)
(8.21107e-11 2.64344e-11 0)
(7.49191e-11 2.34626e-11 0)
(6.82073e-11 2.09468e-11 0)
(6.21508e-11 1.9005e-11 0)
(5.72487e-11 1.77461e-11 0)
(5.40445e-11 1.708e-11 0)
(5.26618e-11 1.68497e-11 0)
(5.23203e-11 1.68044e-11 0)
(5.22181e-11 1.6654e-11 0)
(3.41243e-06 -2.39631e-05 0)
(8.18508e-06 -8.29359e-05 0)
(-2.0743e-05 -0.000201597 0)
(0.195167 -0.000753646 0)
(0.325851 -0.00560063 0)
(0.414322 -0.0109417 0)
(0.477378 -0.0157745 0)
(0.524729 -0.0195683 0)
(0.561818 -0.0217511 0)
(0.591749 -0.0229018 0)
(0.616466 -0.0233528 0)
(0.637262 -0.0233267 0)
(0.65504 -0.0229808 0)
(0.670451 -0.0224328 0)
(0.683976 -0.021769 0)
(0.695975 -0.0210502 0)
(0.706725 -0.0203179 0)
(0.716437 -0.0195998 0)
(0.725277 -0.0189129 0)
(0.733375 -0.0182677 0)
(0.740836 -0.0176697 0)
(0.747742 -0.0171218 0)
(0.75416 -0.0166249 0)
(0.760145 -0.0161789 0)
(0.765741 -0.0157832 0)
(0.770985 -0.0154368 0)
(0.775908 -0.0151382 0)
(0.780536 -0.014886 0)
(0.78489 -0.0146783 0)
(0.78899 -0.0145131 0)
(0.79285 -0.0143879 0)
(0.796486 -0.0143001 0)
(0.79991 -0.0142469 0)
(0.803132 -0.0142252 0)
(0.806164 -0.0142316 0)
(0.809015 -0.0142629 0)
(0.811694 -0.0143157 0)
(0.814208 -0.0143866 0)
(0.816566 -0.0144724 0)
(0.818775 -0.0145699 0)
(0.820842 -0.0146762 0)
(0.822774 -0.0147886 0)
(0.824578 -0.0149047 0)
(0.82626 -0.0150223 0)
(0.827825 -0.0151395 0)
(0.82928 -0.0152547 0)
(0.83063 -0.0153665 0)
(0.83188 -0.0154739 0)
(0.833036 -0.015576 0)
(0.834102 -0.015672 0)
(0.835082 -0.0157615 0)
(0.835982 -0.0158437 0)
(0.836805 -0.0159183 0)
(0.837556 -0.0159845 0)
(0.838245 -0.0160427 0)
(0.838881 -0.0160934 0)
(0.839464 -0.0161366 0)
(0.839995 -0.0161725 0)
(0.840475 -0.0162014 0)
(0.840903 -0.0162236 0)
(0.84128 -0.0162389 0)
(0.841607 -0.016247 0)
(0.841885 -0.016247 0)
(0.842115 -0.016238 0)
(0.842298 -0.0162189 0)
(0.842438 -0.0161889 0)
(0.842537 -0.0161474 0)
(0.842598 -0.0160945 0)
(0.842627 -0.0160307 0)
(0.842626 -0.0159565 0)
(0.842599 -0.015873 0)
(0.842552 -0.0157812 0)
(0.842486 -0.0156821 0)
(0.842406 -0.0155765 0)
(0.842315 -0.015465 0)
(0.842214 -0.0153482 0)
(0.842106 -0.0152262 0)
(0.841992 -0.015099 0)
(0.841874 -0.0149668 0)
(0.841753 -0.0148292 0)
(0.84163 -0.014686 0)
(0.841507 -0.0145369 0)
(0.841385 -0.0143815 0)
(0.841267 -0.0142195 0)
(0.841158 -0.01405 0)
(0.841061 -0.0138731 0)
(0.840989 -0.0136842 0)
(0.840928 -0.0135004 0)
(0.841026 -0.0132357 0)
(0.841278 -0.0128707 0)
(0.818933 0.00256555 0)
(0.821352 -0.0128721 0)
(0.818366 0.0139687 0)
(0.814562 -0.0246875 0)
(0.815112 0.0730929 0)
(0.804638 0.093969 0)
(0.805074 -1.4762e-05 0)
(0.80221 -7.01619e-06 0)
(0.799059 1.25431e-05 0)
(0.796533 2.38138e-05 0)
(0.794252 3.55783e-05 0)
(0.79225 4.57992e-05 0)
(0.790514 5.43636e-05 0)
(0.789037 6.11555e-05 0)
(0.78781 6.62038e-05 0)
(0.786823 6.96028e-05 0)
(0.786069 7.14583e-05 0)
(0.785543 7.18252e-05 0)
(0.785249 7.05893e-05 0)
(0.785204 6.71062e-05 0)
(0.785377 5.91094e-05 0)
(0.786814 3.49689e-05 0)
(0.788806 4.52607e-05 0)
(0.789444 6.52329e-05 0)
(0.789476 7.12042e-05 0)
(0.789476 7.15018e-05 0)
(0.789476 7.15008e-05 0)
(0.789476 7.15006e-05 0)
(0.789476 7.15012e-05 0)
(0.789476 7.15007e-05 0)
(0.789476 7.15012e-05 0)
(0.789476 7.15007e-05 0)
(0.789476 7.15013e-05 0)
(0.789476 7.15006e-05 0)
(0.789476 7.15013e-05 0)
(0.789476 7.15007e-05 0)
(0.789476 7.15013e-05 0)
(0.789476 7.15007e-05 0)
(0.789476 7.15013e-05 0)
(0.789476 7.15006e-05 0)
(0.789476 7.15014e-05 0)
(0.789476 7.15006e-05 0)
(0.789476 7.15014e-05 0)
(0.789476 7.15006e-05 0)
(0.789476 7.15015e-05 0)
(0.789476 7.15005e-05 0)
(0.789476 7.15015e-05 0)
(0.789476 7.15005e-05 0)
(0.789476 7.15015e-05 0)
(0.789476 7.15004e-05 0)
(0.789476 7.15016e-05 0)
(0.789476 7.15004e-05 0)
(0.789476 7.15016e-05 0)
(0.789476 7.15003e-05 0)
(0.789476 7.15017e-05 0)
(0.789476 7.15003e-05 0)
(0.789476 7.15018e-05 0)
(0.789476 7.15002e-05 0)
(0.789476 7.15018e-05 0)
(0.789476 7.15002e-05 0)
(0.789476 7.15019e-05 0)
(0.789476 7.15001e-05 0)
(0.789476 7.15019e-05 0)
(0.789476 7.15001e-05 0)
(0.789476 7.1502e-05 0)
(0.789476 7.15e-05 0)
(0.789476 7.15021e-05 0)
(0.789476 7.15e-05 0)
(0.789476 7.15021e-05 0)
(0.789476 7.14999e-05 0)
(0.789476 7.15022e-05 0)
(0.789476 7.14998e-05 0)
(0.789476 7.15023e-05 0)
(0.789476 7.14999e-05 0)
(0.789476 7.15021e-05 0)
(0.789476 7.14999e-05 0)
(0.789476 7.15022e-05 0)
(0.789476 7.14999e-05 0)
(0.789476 7.15022e-05 0)
(0.789476 7.14999e-05 0)
(0.789476 7.15022e-05 0)
(0.789476 7.14999e-05 0)
(0.789476 7.15022e-05 0)
(0.789476 7.14998e-05 0)
(0.789476 7.15022e-05 0)
(0.789476 7.14998e-05 0)
(0.789476 7.15022e-05 0)
(0.789476 7.14998e-05 0)
(0.789476 7.15022e-05 0)
(0.789476 7.14998e-05 0)
(0.789476 7.15022e-05 0)
(0.789476 7.14998e-05 0)
(0.789476 7.15023e-05 0)
(0.789476 7.14998e-05 0)
(0.789476 7.15023e-05 0)
(0.789476 7.14997e-05 0)
(0.789476 7.15023e-05 0)
(0.789476 7.14997e-05 0)
(0.789476 7.15023e-05 0)
(0.789476 7.14997e-05 0)
(0.789476 7.15023e-05 0)
(0.789476 7.14997e-05 0)
(0.789476 7.15023e-05 0)
(0.789476 7.14997e-05 0)
(0.789476 7.15023e-05 0)
(0.789476 7.14997e-05 0)
(0.789476 7.15023e-05 0)
(0.789476 7.14997e-05 0)
(0.789476 7.15023e-05 0)
(0.789476 7.14997e-05 0)
(0.789476 7.15023e-05 0)
(0.789476 7.14997e-05 0)
(0.789476 7.15023e-05 0)
(0.789476 7.14997e-05 0)
(0.789476 7.15023e-05 0)
(0.789476 7.14997e-05 0)
(0.789476 7.15024e-05 0)
(0.789476 7.14997e-05 0)
(0.789476 7.15025e-05 0)
(0.789476 7.14971e-05 0)
(0.789475 7.07493e-05 0)
(0.789452 7.17889e-06 0)
(0.788847 6.84552e-05 0)
)
;

boundaryField
{
    inandouthalf11
    {
        type            cyclic;
    }
    inandouthalf12
    {
        type            cyclic;
    }
    inandouthalf21
    {
        type            cyclic;
    }
    inandouthalf22
    {
        type            cyclic;
    }
    inandouthalf31
    {
        type            cyclic;
    }
    inandouthalf32
    {
        type            cyclic;
    }
    inandouthalf41
    {
        type            cyclic;
    }
    inandouthalf42
    {
        type            cyclic;
    }
    top
    {
        type            symmetryPlane;
    }
    walls
    {
        type            calculated;
        value           uniform (0 0 0);
    }
    frontAndBackPlanes
    {
        type            empty;
    }
}


// ************************************************************************* //
