/*--------------------------------*- C++ -*----------------------------------*\
| =========                 |                                                 |
| \\      /  F ield         | OpenFOAM: The Open Source CFD Toolbox           |
|  \\    /   O peration     | Version:  2.4.x                                 |
|   \\  /    A nd           | Web:      www.OpenFOAM.org                      |
|    \\/     M anipulation  |                                                 |
\*---------------------------------------------------------------------------*/
FoamFile
{
    version     2.0;
    format      ascii;
    class       volScalarField;
    location    "7";
    object      ddt0(alpha);
}
// * * * * * * * * * * * * * * * * * * * * * * * * * * * * * * * * * * * * * //

dimensions      [0 0 -1 0 0 0 0];

internalField   nonuniform List<scalar> 
360
(
7.76733e-05
0.000120419
0.00010902
0.000102169
0.00010398
0.00010632
0.000107162
0.00010743
0.000107736
0.000108285
0.000108989
0.000109708
0.000110415
0.000111085
0.000111751
0.000112442
0.000113158
0.000113883
0.000114608
0.000115362
0.000116082
0.000116833
0.000117587
0.000118346
0.00011911
0.000119874
0.000120628
0.000121411
0.000122183
0.000122943
0.000123687
0.000124455
0.00012514
0.000125891
0.000126542
0.000127193
0.000127779
0.000128353
0.000128917
0.000129348
0.000129838
0.000130256
0.000130605
0.000131035
0.000131419
0.000131839
0.000132299
0.000132729
0.000133298
0.000134014
0.0001347
0.000135513
0.000136322
0.000137179
0.000137914
0.000138659
0.000139134
0.000139473
0.000139508
0.000139195
0.000138697
0.000137753
0.000136516
0.000134811
0.000132714
0.000130217
0.000127455
0.0001245
0.000121485
0.000118555
0.000115991
0.00011388
0.000112238
0.00011135
0.000111202
0.000111951
0.000113577
0.000116252
0.000120112
0.000125318
0.000132007
0.000140392
0.000150599
0.000162662
0.000176486
0.000191715
0.000207721
0.000223461
0.000237564
0.000248381
0.000254153
0.000253336
0.000244969
0.000228948
0.000206209
0.00017863
0.000148674
0.000118892
9.143e-05
6.77201e-05
4.83962e-05
3.34189e-05
2.23019e-05
1.4346e-05
8.82068e-06
5.07362e-06
2.57693e-06
9.32075e-07
-1.46714e-07
-8.56609e-07
-1.32973e-06
-1.6527e-06
-1.88142e-06
-2.05157e-06
-2.1858e-06
-2.29844e-06
-2.39858e-06
-2.49203e-06
-2.58255e-06
-2.6726e-06
-2.76382e-06
-2.85729e-06
-2.95378e-06
-3.05402e-06
-3.15898e-06
-3.27023e-06
-3.38982e-06
-3.51959e-06
-3.65972e-06
-3.80788e-06
-3.96233e-06
-4.1305e-06
-4.33349e-06
-4.5852e-06
-4.85946e-06
-5.11809e-06
-5.40394e-06
-5.87178e-06
-6.62755e-06
-7.35858e-06
-7.46156e-06
-8.01099e-06
-1.00367e-05
-1.27328e-05
-2.04085e-05
-8.05329e-05
0.000502525
0.00184225
-7.19927e-05
0.920508
-0.100907
-0.232537
-0.158368
-0.10835
-0.0750736
-0.0538623
-0.0398189
-0.0301668
-0.0233262
-0.0183546
-0.014663
-0.0118696
-0.00972058
-0.00804246
-0.0067145
-0.00565097
-0.00479
-0.00408625
-0.00350602
-0.00302391
-0.00262054
-0.00228091
-0.00199333
-0.00174853
-0.00153913
-0.00135919
-0.00120389
-0.00106932
-0.00095224
-0.000849995
-0.000760381
-0.000681567
-0.000612023
-0.000550468
-0.000495824
-0.000447183
-0.000403774
-0.000364945
-0.000330139
-0.000298878
-0.000270752
-0.000245406
-0.000222532
-0.000201863
-0.000183164
-0.000166227
-0.000150865
-0.000136907
-0.000124191
-0.00011258
-0.000101971
-9.21765e-05
-8.30461e-05
-7.45498e-05
-6.66849e-05
-5.94286e-05
-5.27032e-05
-4.64445e-05
-4.0609e-05
-3.51658e-05
-3.01194e-05
-2.54641e-05
-2.12137e-05
-1.74237e-05
-1.41073e-05
-1.12542e-05
-8.85673e-06
-6.88965e-06
-5.30489e-06
-4.04385e-06
-3.06126e-06
-2.307e-06
-1.72877e-06
-1.28912e-06
-9.58425e-07
-7.0882e-07
-5.22542e-07
-3.81766e-07
-2.79652e-07
-2.00732e-07
-1.46763e-07
-1.00474e-07
-7.72623e-08
-4.34259e-08
-6.95004e-08
7.19408e-08
-2.64446e-07
-4.34735e-08
-3.52714e-08
5.96636e-08
1.21055e-08
5.3099e-08
-1.37695e-18
-1.56622e-29
-1.4941e-32
-1.56684e-32
-2.17187e-32
-8.7706e-33
-3.21126e-33
-1.42536e-33
-7.12893e-34
-3.83584e-34
-2.80944e-34
-2.77957e-34
-2.26975e-34
-7.91612e-35
-3.521e-35
-1.76575e-35
-9.55646e-36
-6.56218e-36
-4.32047e-36
-1.80178e-36
-8.89596e-37
-4.55504e-37
-2.47699e-37
-1.22467e-37
-6.08805e-38
-2.99277e-38
-1.44596e-38
-6.86247e-39
-3.19731e-39
-1.4615e-39
-6.54999e-40
-2.87614e-40
-1.23648e-40
-5.20046e-41
-2.13804e-41
-8.58484e-42
-3.36351e-42
-1.2846e-42
-4.77756e-43
-1.7283e-43
-6.07413e-44
-2.07129e-44
-6.84359e-45
-2.18757e-45
-6.75404e-46
-2.01058e-46
-5.75959e-47
-1.58435e-47
-4.1753e-48
-1.05141e-48
-2.52266e-49
-5.74834e-50
-1.2395e-50
-2.51872e-51
-4.80053e-52
-8.53488e-53
-1.40645e-53
-2.13191e-54
-2.94546e-55
-3.66761e-56
-4.05781e-57
-3.91622e-58
-3.21568e-59
-2.16779e-60
-1.13527e-61
-4.18953e-63
-8.73522e-65
-3.18996e-67
-1.65686e-71
-1.59147e-73
-7.58286e-76
-2.54931e-86
-4.26899e-97
-5.07746e-108
-4.3675e-119
-3.16239e-130
-1.76051e-141
-8.38887e-153
-8.75113e-163
-3.59366e-173
-2.92523e-181
-1.07436e-191
-1.00618e-199
-4.29142e-210
-3.46179e-218
-1.80485e-228
-1.19208e-236
-1.13389e-246
-4.16115e-255
-7.37516e-265
-1.48092e-273
-3.62539e-283
-5.36703e-292
-1.71433e-301
-1.9752e-310
4.91002e-320
0
0
0
0
0
0
0
0
0
0
0
0
0
0
0
0
0
0
0
0
0
0
)
;

boundaryField
{
    inandouthalf11
    {
        type            cyclic;
    }
    inandouthalf12
    {
        type            cyclic;
    }
    inandouthalf21
    {
        type            cyclic;
    }
    inandouthalf22
    {
        type            cyclic;
    }
    inandouthalf31
    {
        type            cyclic;
    }
    inandouthalf32
    {
        type            cyclic;
    }
    inandouthalf41
    {
        type            cyclic;
    }
    inandouthalf42
    {
        type            cyclic;
    }
    top
    {
        type            symmetryPlane;
    }
    walls
    {
        type            calculated;
        value           uniform 7.76733e-05;
    }
    frontAndBackPlanes
    {
        type            empty;
    }
}


// ************************************************************************* //
