/*--------------------------------*- C++ -*----------------------------------*\
| =========                 |                                                 |
| \\      /  F ield         | OpenFOAM: The Open Source CFD Toolbox           |
|  \\    /   O peration     | Version:  2.4.x                                 |
|   \\  /    A nd           | Web:      www.OpenFOAM.org                      |
|    \\/     M anipulation  |                                                 |
\*---------------------------------------------------------------------------*/
FoamFile
{
    version     2.0;
    format      ascii;
    class       surfaceScalarField;
    location    "7";
    object      ddt0(phib);
}
// * * * * * * * * * * * * * * * * * * * * * * * * * * * * * * * * * * * * * //

dimensions      [0 3 -2 0 0 0 0];

internalField   nonuniform List<scalar> 
359
(
-1.9157e-13
-5.08e-13
-8.00827e-13
-1.07746e-12
-1.36101e-12
-1.65498e-12
-1.95581e-12
-2.26106e-12
-2.57027e-12
-2.88391e-12
-3.20257e-12
-3.52621e-12
-3.85462e-12
-4.18749e-12
-4.52444e-12
-4.86544e-12
-5.21035e-12
-5.55911e-12
-5.91157e-12
-6.26779e-12
-6.62752e-12
-6.99096e-12
-7.35807e-12
-7.72897e-12
-8.10372e-12
-8.48246e-12
-8.86521e-12
-9.25224e-12
-9.64343e-12
-1.00389e-11
-1.04384e-11
-1.0842e-11
-1.12494e-11
-1.16606e-11
-1.20749e-11
-1.24924e-11
-1.29128e-11
-1.3336e-11
-1.37624e-11
-1.41919e-11
-1.46255e-11
-1.50643e-11
-1.55093e-11
-1.59628e-11
-1.64266e-11
-1.69032e-11
-1.7395e-11
-1.79041e-11
-1.84327e-11
-1.89829e-11
-1.95543e-11
-2.01464e-11
-2.0756e-11
-2.13785e-11
-2.20063e-11
-2.26304e-11
-2.32389e-11
-2.38191e-11
-2.43568e-11
-2.48383e-11
-2.52519e-11
-2.55873e-11
-2.58383e-11
-2.60026e-11
-2.60839e-11
-2.60921e-11
-2.60436e-11
-2.59609e-11
-2.58722e-11
-2.58104e-11
-2.58121e-11
-2.5917e-11
-2.61674e-11
-2.66091e-11
-2.72905e-11
-2.82648e-11
-2.95888e-11
-3.13257e-11
-3.3545e-11
-3.63234e-11
-3.97425e-11
-4.38861e-11
-4.88303e-11
-5.46261e-11
-6.12741e-11
-6.86864e-11
-7.66443e-11
-8.47566e-11
-9.24394e-11
-9.89368e-11
-1.034e-10
-1.05032e-10
-1.03268e-10
-9.7951e-11
-8.94166e-11
-7.84596e-11
-6.61682e-11
-5.36878e-11
-4.19968e-11
-3.17629e-11
-2.33079e-11
-1.6659e-11
-1.16443e-11
-7.99195e-12
-5.40722e-12
-3.61975e-12
-2.40575e-12
-1.59234e-12
-1.05249e-12
-6.96424e-13
-4.62239e-13
-3.08334e-13
-2.0696e-13
-1.40005e-13
-9.55256e-14
-6.57858e-14
-4.57868e-14
-3.22357e-14
-2.2961e-14
-1.65612e-14
-1.21011e-14
-9.02463e-15
-6.82562e-15
-5.27153e-15
-4.15732e-15
-3.34909e-15
-2.79315e-15
-2.38172e-15
-2.11513e-15
-1.92306e-15
-1.78812e-15
-1.70826e-15
-1.69872e-15
-1.69843e-15
-1.73277e-15
-1.78062e-15
-1.86449e-15
-2.03234e-15
-2.20901e-15
-2.29263e-15
-2.37579e-15
-2.76084e-15
-3.39837e-15
-4.85202e-15
-1.42826e-14
5.80076e-14
7.32235e-11
3.22349e-10
8.75495e-10
7.93584e-09
-2.40527e-09
-3.18578e-09
-2.29723e-09
-1.44668e-09
-9.2081e-10
-5.92643e-10
-3.89233e-10
-2.60799e-10
-1.78589e-10
-1.25136e-10
-8.97318e-11
-6.57731e-11
-4.91691e-11
-3.73666e-11
-2.87582e-11
-2.23199e-11
-1.73902e-11
-1.35335e-11
-1.04575e-11
-7.96134e-12
-5.90425e-12
-4.18555e-12
-2.73206e-12
-1.49002e-12
-4.19567e-13
5.08947e-13
1.31778e-12
2.02362e-12
2.63919e-12
3.17418e-12
3.6362e-12
4.0315e-12
4.36523e-12
4.64193e-12
4.86578e-12
5.04064e-12
5.17029e-12
5.25832e-12
5.30834e-12
5.3238e-12
5.30813e-12
5.26463e-12
5.19636e-12
5.10627e-12
4.99714e-12
4.8715e-12
4.73179e-12
4.58033e-12
4.41925e-12
4.25025e-12
4.0747e-12
3.8904e-12
3.69857e-12
3.50006e-12
3.29536e-12
3.08537e-12
2.87117e-12
2.65395e-12
2.43493e-12
2.21566e-12
1.99806e-12
1.78467e-12
1.57842e-12
1.38195e-12
1.19782e-12
1.02836e-12
8.75112e-13
7.38693e-13
6.18991e-13
5.15462e-13
4.26957e-13
3.51818e-13
2.88543e-13
2.35656e-13
1.91632e-13
1.5515e-13
1.25076e-13
1.00402e-13
8.01768e-14
6.36883e-14
5.02742e-14
3.95164e-14
3.06202e-14
2.36834e-14
1.82789e-14
1.51181e-14
7.36256e-15
1.95441e-15
1.42955e-15
-5.01749e-15
-1.70556e-15
-1.2549e-15
-1.83663e-16
-1.73899e-16
-1.79514e-16
-1.70056e-16
-1.66015e-16
-1.55591e-16
-1.51132e-16
-1.45386e-16
-1.42469e-16
-1.39052e-16
-1.2476e-16
-1.17577e-16
-1.13263e-16
-1.13307e-16
-1.0015e-16
-8.8692e-17
-8.34791e-17
-8.17182e-17
-8.14174e-17
-6.9497e-17
-6.68404e-17
-6.42814e-17
-6.78058e-17
-6.39408e-17
-5.51838e-17
-5.13473e-17
-4.41374e-17
-4.10325e-17
-3.94632e-17
-3.94137e-17
-5.01552e-17
-5.3424e-17
-5.4039e-17
-4.84828e-17
-4.78467e-17
-4.8019e-17
-5.10914e-17
-5.05721e-17
-5.38648e-17
-5.38672e-17
-5.20732e-17
-4.64564e-17
-5.0544e-17
-5.53161e-17
-4.4911e-17
-2.94463e-17
-1.71056e-17
-2.92308e-18
8.34347e-18
2.73665e-17
3.65708e-17
5.22237e-17
6.01015e-17
8.80051e-17
9.00518e-17
9.4272e-17
1.00461e-16
1.06631e-16
1.2009e-16
1.13457e-16
1.21157e-16
1.20532e-16
1.27283e-16
1.26462e-16
1.28002e-16
1.1984e-16
1.24477e-16
1.2896e-16
1.3045e-16
1.37625e-16
1.30414e-16
1.22127e-16
1.21545e-16
1.10834e-16
1.13378e-16
1.13066e-16
9.83723e-17
9.51709e-17
8.79932e-17
7.86455e-17
7.25362e-17
7.34083e-17
5.93418e-17
4.65535e-17
2.7359e-17
3.77493e-17
-9.53199e-17
-1.98189e-16
-3.03864e-16
-3.91417e-16
-5.03091e-16
-5.89108e-16
-6.80636e-16
-7.47336e-16
-8.67522e-16
-9.58141e-16
-1.04538e-15
-1.08874e-15
-1.16814e-15
-1.19655e-15
-1.22679e-15
-1.20606e-15
-1.33406e-15
-1.4019e-15
-1.46755e-15
-1.44582e-15
-1.50508e-15
-1.45307e-15
-1.40571e-15
-1.24621e-15
-1.26565e-15
-1.15306e-15
-1.0305e-15
-7.44885e-16
-5.44911e-16
-1.82671e-16
1.99462e-16
)
;

boundaryField
{
    inandouthalf11
    {
        type            cyclic;
        value           nonuniform List<scalar> 
100
(
-2.03973e-10
-2.02913e-10
-2.02775e-10
-2.02948e-10
-2.03048e-10
-2.03099e-10
-2.03154e-10
-2.03216e-10
-2.0328e-10
-2.03345e-10
-2.0341e-10
-2.03476e-10
-2.03542e-10
-2.03608e-10
-2.03676e-10
-2.03744e-10
-2.03813e-10
-2.03882e-10
-2.03952e-10
-2.04023e-10
-2.04094e-10
-2.04167e-10
-2.0424e-10
-2.04314e-10
-2.04388e-10
-2.04463e-10
-2.04539e-10
-2.04617e-10
-2.04694e-10
-2.04773e-10
-2.04852e-10
-2.04933e-10
-2.05014e-10
-2.05097e-10
-2.0518e-10
-2.05264e-10
-2.05349e-10
-2.05435e-10
-2.05523e-10
-2.0561e-10
-2.05699e-10
-2.0579e-10
-2.0588e-10
-2.05973e-10
-2.06066e-10
-2.06161e-10
-2.06258e-10
-2.06355e-10
-2.06454e-10
-2.06556e-10
-2.06658e-10
-2.06763e-10
-2.0687e-10
-2.06979e-10
-2.07089e-10
-2.07201e-10
-2.07314e-10
-2.07428e-10
-2.07542e-10
-2.07656e-10
-2.0777e-10
-2.07881e-10
-2.07992e-10
-2.081e-10
-2.08205e-10
-2.08308e-10
-2.0841e-10
-2.08509e-10
-2.08609e-10
-2.08708e-10
-2.08811e-10
-2.08918e-10
-2.0903e-10
-2.09151e-10
-2.09284e-10
-2.09432e-10
-2.09597e-10
-2.09785e-10
-2.09999e-10
-2.10245e-10
-2.10528e-10
-2.10856e-10
-2.11234e-10
-2.1167e-10
-2.12168e-10
-2.12729e-10
-2.13347e-10
-2.14007e-10
-2.14679e-10
-2.15321e-10
-2.15874e-10
-2.16277e-10
-2.16469e-10
-2.16413e-10
-2.161e-10
-2.15559e-10
-2.14853e-10
-2.14063e-10
-2.13272e-10
-2.12547e-10
)
;
    }
    inandouthalf12
    {
        type            cyclic;
        value           nonuniform List<scalar> 
100
(
2.03973e-10
2.02913e-10
2.02775e-10
2.02948e-10
2.03048e-10
2.03099e-10
2.03154e-10
2.03216e-10
2.0328e-10
2.03345e-10
2.0341e-10
2.03476e-10
2.03542e-10
2.03608e-10
2.03676e-10
2.03744e-10
2.03813e-10
2.03882e-10
2.03952e-10
2.04023e-10
2.04094e-10
2.04167e-10
2.0424e-10
2.04314e-10
2.04388e-10
2.04463e-10
2.04539e-10
2.04617e-10
2.04694e-10
2.04773e-10
2.04852e-10
2.04933e-10
2.05014e-10
2.05097e-10
2.0518e-10
2.05264e-10
2.05349e-10
2.05435e-10
2.05523e-10
2.0561e-10
2.05699e-10
2.0579e-10
2.0588e-10
2.05973e-10
2.06066e-10
2.06161e-10
2.06258e-10
2.06355e-10
2.06454e-10
2.06556e-10
2.06658e-10
2.06763e-10
2.0687e-10
2.06979e-10
2.07089e-10
2.07201e-10
2.07314e-10
2.07428e-10
2.07542e-10
2.07656e-10
2.0777e-10
2.07881e-10
2.07992e-10
2.081e-10
2.08205e-10
2.08308e-10
2.0841e-10
2.08509e-10
2.08609e-10
2.08708e-10
2.08811e-10
2.08918e-10
2.0903e-10
2.09151e-10
2.09284e-10
2.09432e-10
2.09597e-10
2.09785e-10
2.09999e-10
2.10245e-10
2.10528e-10
2.10856e-10
2.11234e-10
2.1167e-10
2.12168e-10
2.12729e-10
2.13347e-10
2.14007e-10
2.14679e-10
2.15321e-10
2.15874e-10
2.16277e-10
2.16469e-10
2.16413e-10
2.161e-10
2.15559e-10
2.14853e-10
2.14063e-10
2.13272e-10
2.12547e-10
)
;
    }
    inandouthalf21
    {
        type            cyclic;
        value           nonuniform List<scalar> 
100
(
-2.11934e-10
-2.11454e-10
-2.11105e-10
-2.10876e-10
-2.10746e-10
-2.10696e-10
-2.10707e-10
-2.10763e-10
-2.10852e-10
-2.10966e-10
-2.11098e-10
-2.11245e-10
-2.11402e-10
-2.11569e-10
-2.11744e-10
-2.11926e-10
-2.12115e-10
-2.12311e-10
-2.12513e-10
-2.12723e-10
-2.1294e-10
-2.13164e-10
-2.13396e-10
-2.13636e-10
-2.13884e-10
-2.14142e-10
-2.14408e-10
-2.14685e-10
-2.14973e-10
-2.15273e-10
-2.15586e-10
-2.15912e-10
-2.16252e-10
-2.16612e-10
-2.16994e-10
-2.174e-10
-2.17825e-10
-2.18279e-10
-2.18783e-10
-2.19362e-10
-2.19988e-10
-2.20587e-10
-2.21309e-10
-2.22249e-10
-2.23433e-10
-2.25756e-10
-2.31476e-10
-2.35247e-10
-2.52618e-10
-3.82343e-09
-2.22388e-07
-3.43559e-07
-4.30416e-07
-4.93901e-07
-5.4206e-07
-5.79845e-07
-6.10269e-07
-6.35265e-07
-6.56145e-07
-6.73832e-07
-6.88999e-07
-7.02149e-07
-7.13664e-07
-7.23841e-07
-7.32911e-07
-7.41058e-07
-7.48428e-07
-7.55137e-07
-7.61281e-07
-7.66936e-07
-7.72166e-07
-7.77021e-07
-7.81545e-07
-7.85774e-07
-7.89736e-07
-7.93458e-07
-7.96961e-07
-8.00263e-07
-8.0338e-07
-8.06325e-07
-8.09111e-07
-8.11748e-07
-8.14246e-07
-8.16614e-07
-8.18859e-07
-8.20988e-07
-8.23008e-07
-8.24925e-07
-8.26744e-07
-8.2847e-07
-8.30109e-07
-8.31665e-07
-8.33142e-07
-8.34544e-07
-8.35874e-07
-8.37137e-07
-8.38333e-07
-8.39466e-07
-8.40538e-07
-8.41551e-07
)
;
    }
    inandouthalf22
    {
        type            cyclic;
        value           nonuniform List<scalar> 
100
(
2.11934e-10
2.11454e-10
2.11105e-10
2.10876e-10
2.10746e-10
2.10696e-10
2.10707e-10
2.10763e-10
2.10852e-10
2.10966e-10
2.11098e-10
2.11245e-10
2.11402e-10
2.11569e-10
2.11744e-10
2.11926e-10
2.12115e-10
2.12311e-10
2.12513e-10
2.12723e-10
2.1294e-10
2.13164e-10
2.13396e-10
2.13636e-10
2.13884e-10
2.14142e-10
2.14408e-10
2.14685e-10
2.14973e-10
2.15273e-10
2.15586e-10
2.15912e-10
2.16252e-10
2.16612e-10
2.16994e-10
2.174e-10
2.17825e-10
2.18279e-10
2.18783e-10
2.19362e-10
2.19988e-10
2.20587e-10
2.21309e-10
2.22249e-10
2.23433e-10
2.25756e-10
2.31476e-10
2.35247e-10
2.52618e-10
3.82343e-09
2.22388e-07
3.43559e-07
4.30416e-07
4.93901e-07
5.4206e-07
5.79845e-07
6.10269e-07
6.35265e-07
6.56145e-07
6.73832e-07
6.88999e-07
7.02149e-07
7.13664e-07
7.23841e-07
7.32911e-07
7.41058e-07
7.48428e-07
7.55137e-07
7.61281e-07
7.66936e-07
7.72166e-07
7.77021e-07
7.81545e-07
7.85774e-07
7.89736e-07
7.93458e-07
7.96961e-07
8.00263e-07
8.0338e-07
8.06325e-07
8.09111e-07
8.11748e-07
8.14246e-07
8.16614e-07
8.18859e-07
8.20988e-07
8.23008e-07
8.24925e-07
8.26744e-07
8.2847e-07
8.30109e-07
8.31665e-07
8.33142e-07
8.34544e-07
8.35874e-07
8.37137e-07
8.38333e-07
8.39466e-07
8.40538e-07
8.41551e-07
)
;
    }
    inandouthalf31
    {
        type            cyclic;
        value           nonuniform List<scalar> 
110
(
-8.42508e-07
-8.60536e-07
-8.78911e-07
-8.97639e-07
-9.16726e-07
-9.3618e-07
-9.56006e-07
-9.76209e-07
-9.96796e-07
-1.01777e-06
-1.03913e-06
-1.06089e-06
-1.08305e-06
-1.1056e-06
-1.12856e-06
-1.15192e-06
-1.17568e-06
-1.19985e-06
-1.22441e-06
-1.24937e-06
-1.27472e-06
-1.30045e-06
-1.32655e-06
-1.35302e-06
-1.37982e-06
-1.40696e-06
-1.4344e-06
-1.46212e-06
-1.49009e-06
-1.51827e-06
-1.54663e-06
-1.57512e-06
-1.6037e-06
-1.63232e-06
-1.66094e-06
-1.68952e-06
-1.71805e-06
-1.74654e-06
-1.77501e-06
-1.80355e-06
-1.83228e-06
-1.86137e-06
-1.89102e-06
-1.92141e-06
-1.95275e-06
-1.98517e-06
-2.0188e-06
-2.0537e-06
-2.08992e-06
-2.1275e-06
-2.16645e-06
-2.20683e-06
-2.24865e-06
-2.29194e-06
-2.33675e-06
-2.38314e-06
-2.43122e-06
-2.48132e-06
-2.53424e-06
-2.59332e-06
-2.64881e-06
-2.70272e-06
-2.75758e-06
-2.81356e-06
-2.87066e-06
-2.92893e-06
-2.98838e-06
-3.04903e-06
-3.11092e-06
-3.17407e-06
-3.23849e-06
-3.30422e-06
-3.37129e-06
-3.43972e-06
-3.50954e-06
-3.58077e-06
-3.65345e-06
-3.72761e-06
-3.80327e-06
-3.88046e-06
-3.95923e-06
-4.03959e-06
-4.12158e-06
-4.20524e-06
-4.29059e-06
-4.37768e-06
-4.46653e-06
-4.55719e-06
-4.64969e-06
-4.74407e-06
-4.84036e-06
-4.93861e-06
-5.03885e-06
-5.14112e-06
-5.24547e-06
-5.35194e-06
-5.46057e-06
-5.57141e-06
-5.68449e-06
-5.79987e-06
-5.9176e-06
-6.03771e-06
-6.16026e-06
-6.28529e-06
-6.41287e-06
-6.54303e-06
-6.67584e-06
-6.81134e-06
-6.94959e-06
-7.09065e-06
)
;
    }
    inandouthalf32
    {
        type            cyclic;
        value           nonuniform List<scalar> 
110
(
8.42508e-07
8.60536e-07
8.78911e-07
8.97639e-07
9.16726e-07
9.3618e-07
9.56006e-07
9.76209e-07
9.96796e-07
1.01777e-06
1.03913e-06
1.06089e-06
1.08305e-06
1.1056e-06
1.12856e-06
1.15192e-06
1.17568e-06
1.19985e-06
1.22441e-06
1.24937e-06
1.27472e-06
1.30045e-06
1.32655e-06
1.35302e-06
1.37982e-06
1.40696e-06
1.4344e-06
1.46212e-06
1.49009e-06
1.51827e-06
1.54663e-06
1.57512e-06
1.6037e-06
1.63232e-06
1.66094e-06
1.68952e-06
1.71805e-06
1.74654e-06
1.77501e-06
1.80355e-06
1.83228e-06
1.86137e-06
1.89102e-06
1.92141e-06
1.95275e-06
1.98517e-06
2.0188e-06
2.0537e-06
2.08992e-06
2.1275e-06
2.16645e-06
2.20683e-06
2.24865e-06
2.29194e-06
2.33675e-06
2.38314e-06
2.43122e-06
2.48132e-06
2.53424e-06
2.59332e-06
2.64881e-06
2.70272e-06
2.75758e-06
2.81356e-06
2.87066e-06
2.92893e-06
2.98838e-06
3.04903e-06
3.11092e-06
3.17407e-06
3.23849e-06
3.30422e-06
3.37129e-06
3.43972e-06
3.50954e-06
3.58077e-06
3.65345e-06
3.72761e-06
3.80327e-06
3.88046e-06
3.95923e-06
4.03959e-06
4.12158e-06
4.20524e-06
4.29059e-06
4.37768e-06
4.46653e-06
4.55719e-06
4.64969e-06
4.74407e-06
4.84036e-06
4.93861e-06
5.03885e-06
5.14112e-06
5.24547e-06
5.35194e-06
5.46057e-06
5.57141e-06
5.68449e-06
5.79987e-06
5.9176e-06
6.03771e-06
6.16026e-06
6.28529e-06
6.41287e-06
6.54303e-06
6.67584e-06
6.81134e-06
6.94959e-06
7.09065e-06
)
;
    }
    inandouthalf41
    {
        type            cyclic;
        value           nonuniform List<scalar> 
50
(
-6.34685e-06
-6.34685e-06
-6.34685e-06
-6.34685e-06
-6.34685e-06
-6.34685e-06
-6.34685e-06
-6.34685e-06
-6.34685e-06
-6.34685e-06
-6.34685e-06
-6.34685e-06
-6.34685e-06
-6.34685e-06
-6.34685e-06
-6.34685e-06
-6.34685e-06
-6.34685e-06
-6.34685e-06
-6.34685e-06
-6.34685e-06
-6.34685e-06
-6.34685e-06
-6.34685e-06
-6.34685e-06
-6.34685e-06
-6.34685e-06
-6.34685e-06
-6.34685e-06
-6.34685e-06
-6.34685e-06
-6.34685e-06
-6.34685e-06
-6.34685e-06
-6.34685e-06
-6.34685e-06
-6.34685e-06
-6.34685e-06
-6.34685e-06
-6.34685e-06
-6.34685e-06
-6.34685e-06
-6.34685e-06
-6.34685e-06
-6.34685e-06
-6.34685e-06
-6.34685e-06
-6.34685e-06
-6.34685e-06
-6.34685e-06
)
;
    }
    inandouthalf42
    {
        type            cyclic;
        value           nonuniform List<scalar> 
50
(
6.34685e-06
6.34685e-06
6.34685e-06
6.34685e-06
6.34685e-06
6.34685e-06
6.34685e-06
6.34685e-06
6.34685e-06
6.34685e-06
6.34685e-06
6.34685e-06
6.34685e-06
6.34685e-06
6.34685e-06
6.34685e-06
6.34685e-06
6.34685e-06
6.34685e-06
6.34685e-06
6.34685e-06
6.34685e-06
6.34685e-06
6.34685e-06
6.34685e-06
6.34685e-06
6.34685e-06
6.34685e-06
6.34685e-06
6.34685e-06
6.34685e-06
6.34685e-06
6.34685e-06
6.34685e-06
6.34685e-06
6.34685e-06
6.34685e-06
6.34685e-06
6.34685e-06
6.34685e-06
6.34685e-06
6.34685e-06
6.34685e-06
6.34685e-06
6.34685e-06
6.34685e-06
6.34685e-06
6.34685e-06
6.34685e-06
6.34685e-06
)
;
    }
    top
    {
        type            symmetryPlane;
        value           uniform 0;
    }
    walls
    {
        type            calculated;
        value           uniform 0;
    }
    frontAndBackPlanes
    {
        type            empty;
        value           nonuniform 0();
    }
}


// ************************************************************************* //
