/*--------------------------------*- C++ -*----------------------------------*\
| =========                 |                                                 |
| \\      /  F ield         | OpenFOAM: The Open Source CFD Toolbox           |
|  \\    /   O peration     | Version:  2.4.x                                 |
|   \\  /    A nd           | Web:      www.OpenFOAM.org                      |
|    \\/     M anipulation  |                                                 |
\*---------------------------------------------------------------------------*/
FoamFile
{
    version     2.0;
    format      ascii;
    class       volScalarField;
    location    "7";
    object      ddt0(((1.5*(alpha+1e-08))*rho),Theta);
}
// * * * * * * * * * * * * * * * * * * * * * * * * * * * * * * * * * * * * * //

dimensions      [1 -1 -3 0 0 0 0];

internalField   nonuniform List<scalar> 
360
(
-4.42537e-21
-1.50789e-20
-1.08099e-20
-9.43803e-21
-1.01865e-20
-1.08965e-20
-1.12123e-20
-1.1395e-20
-1.15864e-20
-1.18202e-20
-1.20898e-20
-1.23687e-20
-1.2638e-20
-1.2893e-20
-1.31394e-20
-1.33858e-20
-1.3634e-20
-1.38819e-20
-1.41303e-20
-1.43791e-20
-1.46271e-20
-1.48794e-20
-1.51387e-20
-1.54042e-20
-1.56762e-20
-1.59536e-20
-1.62384e-20
-1.65334e-20
-1.6833e-20
-1.71317e-20
-1.74306e-20
-1.7725e-20
-1.80113e-20
-1.82908e-20
-1.8555e-20
-1.8801e-20
-1.90366e-20
-1.92726e-20
-1.95086e-20
-1.97512e-20
-2.00263e-20
-2.03416e-20
-2.07148e-20
-2.11797e-20
-2.17482e-20
-2.24305e-20
-2.32284e-20
-2.41416e-20
-2.51899e-20
-2.63453e-20
-2.75354e-20
-2.86996e-20
-2.9756e-20
-3.05854e-20
-3.10664e-20
-3.10731e-20
-3.04777e-20
-2.91907e-20
-2.71593e-20
-2.44064e-20
-2.10245e-20
-1.71402e-20
-1.2949e-20
-8.70589e-21
-4.71103e-21
-1.28483e-21
1.27621e-21
2.72864e-21
2.89641e-21
1.67203e-21
-1.01041e-21
-5.21086e-21
-1.10139e-20
-1.85833e-20
-2.819e-20
-4.02217e-20
-5.52165e-20
-7.39563e-20
-9.75355e-20
-1.27353e-19
-1.65154e-19
-2.13001e-19
-2.72888e-19
-3.45933e-19
-4.31033e-19
-5.22759e-19
-6.08839e-19
-6.68437e-19
-6.73551e-19
-5.95631e-19
-4.18011e-19
-1.50474e-19
1.63321e-19
4.54788e-19
6.56023e-19
7.2927e-19
6.81393e-19
5.54449e-19
4.01035e-19
2.61788e-19
1.56264e-19
8.63398e-20
4.46755e-20
2.18917e-20
1.02674e-20
4.65632e-21
2.06228e-21
9.0116e-22
3.9298e-22
1.73529e-22
7.92185e-23
3.85463e-23
2.07982e-23
1.28959e-23
9.27615e-24
7.55733e-24
6.7064e-24
6.26558e-24
6.02702e-24
5.89267e-24
5.81469e-24
5.76857e-24
5.74137e-24
5.72579e-24
5.71757e-24
5.71402e-24
5.71378e-24
5.71544e-24
5.71865e-24
5.72303e-24
5.72834e-24
5.85228e-24
1.16517e-20
-7.09403e-17
-3.94709e-16
-2.096e-15
-1.09428e-14
-5.74033e-14
-3.25062e-13
-2.18332e-12
-1.78703e-11
-1.69934e-10
-1.80152e-09
-2.1063e-08
-2.74618e-07
-4.16022e-06
-8.17828e-05
-0.00277717
-0.0840749
-1.49601
-2.21008
-0.998826
-0.579869
-0.38526
-0.277273
-0.208902
-0.16211
-0.12849
-0.103498
-0.0844454
-0.0696346
-0.0579379
-0.0485782
-0.0410036
-0.0348129
-0.029709
-0.0254683
-0.0219205
-0.0189338
-0.0164055
-0.0142548
-0.012417
-0.0108406
-0.00948349
-0.00831156
-0.00729667
-0.00641554
-0.00564871
-0.0049801
-0.00439588
-0.00388454
-0.00343626
-0.00304266
-0.00269657
-0.00239186
-0.00212325
-0.00188618
-0.00167671
-0.00149144
-0.00132741
-0.00118205
-0.00105311
-0.000938651
-0.000836947
-0.000746503
-0.000666
-0.000594281
-0.000530329
-0.000473254
-0.000422283
-0.000376734
-0.000335599
-0.00029813
-0.000264057
-0.000233116
-0.000205033
-0.000179549
-0.000156449
-0.000135545
-0.000116682
-9.97336e-05
-8.45852e-05
-7.11598e-05
-5.93816e-05
-4.91396e-05
-4.03343e-05
-3.2857e-05
-2.65772e-05
-2.13542e-05
-1.70516e-05
-1.35451e-05
-1.07012e-05
-8.40553e-06
-6.56626e-06
-5.09877e-06
-3.93102e-06
-3.0086e-06
-2.28067e-06
-1.71365e-06
-1.26734e-06
-9.27023e-07
-6.58175e-07
-4.62212e-07
-2.99445e-07
-1.94497e-07
-9.89196e-08
0
0
0
0
0
0
0
0
0
0
0
0
0
0
0
0
0
0
0
0
0
0
0
0
0
0
0
0
0
0
0
0
0
0
0
0
0
0
0
0
0
0
0
0
0
0
0
0
0
0
0
0
0
0
0
0
0
0
0
0
0
0
0
0
0
0
0
0
0
0
0
0
0
0
0
0
0
0
0
0
0
0
0
0
0
0
0
0
0
0
0
0
0
0
0
0
0
0
0
0
0
0
0
0
0
0
0
0
0
0
0
0
0
0
0
0
0
0
0
0
0
0
0
0
)
;

boundaryField
{
    inandouthalf11
    {
        type            cyclic;
    }
    inandouthalf12
    {
        type            cyclic;
    }
    inandouthalf21
    {
        type            cyclic;
    }
    inandouthalf22
    {
        type            cyclic;
    }
    inandouthalf31
    {
        type            cyclic;
    }
    inandouthalf32
    {
        type            cyclic;
    }
    inandouthalf41
    {
        type            cyclic;
    }
    inandouthalf42
    {
        type            cyclic;
    }
    top
    {
        type            symmetryPlane;
    }
    walls
    {
        type            calculated;
        value           uniform -4.42537e-21;
    }
    frontAndBackPlanes
    {
        type            empty;
    }
}


// ************************************************************************* //
