/*--------------------------------*- C++ -*----------------------------------*\
| =========                 |                                                 |
| \\      /  F ield         | OpenFOAM: The Open Source CFD Toolbox           |
|  \\    /   O peration     | Version:  2.4.x                                 |
|   \\  /    A nd           | Web:      www.OpenFOAM.org                      |
|    \\/     M anipulation  |                                                 |
\*---------------------------------------------------------------------------*/
FoamFile
{
    version     2.0;
    format      ascii;
    class       surfaceScalarField;
    location    "7";
    object      ddt0(phia);
}
// * * * * * * * * * * * * * * * * * * * * * * * * * * * * * * * * * * * * * //

dimensions      [0 3 -2 0 0 0 0];

internalField   nonuniform List<scalar> 
359
(
1.21999e-13
3.22904e-13
5.08989e-13
6.84977e-13
8.65346e-13
1.05235e-12
1.24373e-12
1.43799e-12
1.63478e-12
1.83447e-12
2.03736e-12
2.24346e-12
2.45266e-12
2.6647e-12
2.87943e-12
3.09676e-12
3.31664e-12
3.539e-12
3.76379e-12
3.991e-12
4.22054e-12
4.45246e-12
4.6868e-12
4.92361e-12
5.16295e-12
5.40488e-12
5.64943e-12
5.89673e-12
6.1468e-12
6.39961e-12
6.65511e-12
6.9133e-12
7.17391e-12
7.43702e-12
7.70227e-12
7.96959e-12
8.23879e-12
8.50992e-12
8.78313e-12
9.05842e-12
9.33648e-12
9.61784e-12
9.90328e-12
1.01942e-11
1.04918e-11
1.07977e-11
1.11134e-11
1.14402e-11
1.17797e-11
1.2133e-11
1.25e-11
1.28803e-11
1.3272e-11
1.36721e-11
1.40757e-11
1.44771e-11
1.48687e-11
1.52422e-11
1.55887e-11
1.58994e-11
1.61668e-11
1.63842e-11
1.65476e-11
1.66556e-11
1.67105e-11
1.67186e-11
1.66904e-11
1.66402e-11
1.65863e-11
1.65496e-11
1.65536e-11
1.66238e-11
1.67875e-11
1.7074e-11
1.75145e-11
1.81432e-11
1.89967e-11
2.01156e-11
2.15448e-11
2.33339e-11
2.55353e-11
2.82034e-11
3.13873e-11
3.51204e-11
3.94032e-11
4.41796e-11
4.93096e-11
5.45416e-11
5.94998e-11
6.36976e-11
6.65878e-11
6.76556e-11
6.65369e-11
6.31276e-11
5.76427e-11
5.05928e-11
4.26786e-11
3.46383e-11
2.71031e-11
2.05044e-11
1.50507e-11
1.07604e-11
7.52355e-12
5.16531e-12
3.49583e-12
2.34094e-12
1.55631e-12
1.03039e-12
6.81247e-13
4.50853e-13
2.99283e-13
1.99613e-13
1.33956e-13
9.05488e-14
6.17045e-14
4.24157e-14
2.94226e-14
2.06001e-14
1.45581e-14
1.03836e-14
7.47325e-15
5.42584e-15
3.97268e-15
2.93237e-15
2.18138e-15
1.63486e-15
1.23406e-15
9.3796e-16
7.17804e-16
5.53344e-16
4.30222e-16
3.38082e-16
2.69244e-16
2.17865e-16
1.79504e-16
1.50849e-16
1.29357e-16
1.12928e-16
9.98361e-17
8.88864e-17
7.97874e-17
7.34848e-17
6.96929e-17
6.7821e-17
6.72731e-17
6.74872e-17
-4.96534e-11
-2.20984e-10
-6.39526e-10
-2.24807e-09
-9.50276e-09
-3.38181e-08
-5.20266e-08
-7.18544e-08
-8.2854e-08
-8.93934e-08
-9.25531e-08
-9.33903e-08
-9.26312e-08
-9.08329e-08
-8.84038e-08
-8.56359e-08
-8.27327e-08
-7.98319e-08
-7.70221e-08
-7.43585e-08
-7.18726e-08
-6.95813e-08
-6.7492e-08
-6.56065e-08
-6.39234e-08
-6.24392e-08
-6.11493e-08
-6.00478e-08
-5.91281e-08
-5.83822e-08
-5.78014e-08
-5.73755e-08
-5.70936e-08
-5.69438e-08
-5.69132e-08
-5.69888e-08
-5.7157e-08
-5.74044e-08
-5.77178e-08
-5.80843e-08
-5.8492e-08
-5.89294e-08
-5.93865e-08
-5.98538e-08
-6.03235e-08
-6.07883e-08
-6.12424e-08
-6.16809e-08
-6.20998e-08
-6.2496e-08
-6.28669e-08
-6.32104e-08
-6.3524e-08
-6.38055e-08
-6.40531e-08
-6.42713e-08
-6.44595e-08
-6.46177e-08
-6.47469e-08
-6.48491e-08
-6.49245e-08
-6.49716e-08
-6.49882e-08
-6.49701e-08
-6.49142e-08
-6.48168e-08
-6.46738e-08
-6.44851e-08
-6.4252e-08
-6.39762e-08
-6.36608e-08
-6.33102e-08
-6.29287e-08
-6.25194e-08
-6.2085e-08
-6.16286e-08
-6.11511e-08
-6.06528e-08
-6.01342e-08
-5.95946e-08
-5.90332e-08
-5.84485e-08
-5.78397e-08
-5.7205e-08
-5.65425e-08
-5.58494e-08
-5.51258e-08
-5.43007e-08
-5.37287e-08
-5.11343e-08
-2.78082e-08
-1.20718e-08
-1.81159e-08
9.90107e-08
5.63009e-08
3.26892e-07
1.71744e-07
-4.54122e-11
1.0411e-11
7.37629e-11
1.20782e-10
1.65312e-10
2.03111e-10
2.33833e-10
2.57392e-10
2.74103e-10
2.84433e-10
2.88778e-10
2.87198e-10
2.78977e-10
2.59753e-10
2.07522e-10
1.00441e-10
2.34555e-10
2.86361e-10
2.86133e-10
2.86028e-10
2.85997e-10
2.8601e-10
2.85998e-10
2.8601e-10
2.85998e-10
2.8601e-10
2.85997e-10
2.8601e-10
2.85997e-10
2.86011e-10
2.85997e-10
2.86011e-10
2.85997e-10
2.86011e-10
2.85997e-10
2.86011e-10
2.85997e-10
2.86011e-10
2.85997e-10
2.86011e-10
2.85997e-10
2.86011e-10
2.85997e-10
2.86012e-10
2.85996e-10
2.86012e-10
2.85996e-10
2.86012e-10
2.85996e-10
2.86012e-10
2.85996e-10
2.86012e-10
2.85996e-10
2.86012e-10
2.85996e-10
2.86012e-10
2.85997e-10
2.86012e-10
2.85997e-10
2.86011e-10
2.85997e-10
2.86011e-10
2.85997e-10
2.86011e-10
2.85998e-10
2.86011e-10
2.85998e-10
2.8601e-10
2.85998e-10
2.8601e-10
2.85998e-10
2.8601e-10
2.85999e-10
2.86009e-10
2.85999e-10
2.86009e-10
2.85999e-10
2.86009e-10
2.85999e-10
2.86009e-10
2.86e-10
2.86008e-10
2.86e-10
2.86008e-10
2.86e-10
2.86008e-10
2.86e-10
2.86008e-10
2.86001e-10
2.86007e-10
2.86001e-10
2.86007e-10
2.86001e-10
2.86007e-10
2.86001e-10
2.86007e-10
2.86001e-10
2.86006e-10
2.86002e-10
2.86006e-10
2.86002e-10
2.86006e-10
2.86002e-10
2.86006e-10
2.86002e-10
2.86005e-10
2.86003e-10
2.86005e-10
2.86003e-10
2.86005e-10
2.86003e-10
2.86005e-10
2.85999e-10
2.84493e-10
1.55856e-10
2.51441e-09
)
;

boundaryField
{
    inandouthalf11
    {
        type            cyclic;
        value           nonuniform List<scalar> 
100
(
-1.25707e-38
-2.4622e-14
-5.14699e-14
-7.50751e-14
-9.86353e-14
-1.23106e-13
-1.4807e-13
-1.73239e-13
-1.98581e-13
-2.2414e-13
-2.49963e-13
-2.76077e-13
-3.02484e-13
-3.29179e-13
-3.56158e-13
-3.83423e-13
-4.10983e-13
-4.38845e-13
-4.67012e-13
-4.95491e-13
-5.24286e-13
-5.53402e-13
-5.82847e-13
-6.1263e-13
-6.42761e-13
-6.73247e-13
-7.04096e-13
-7.35321e-13
-7.66931e-13
-7.98933e-13
-8.3133e-13
-8.6413e-13
-8.97331e-13
-9.30936e-13
-9.64943e-13
-9.99345e-13
-1.03414e-12
-1.06932e-12
-1.1049e-12
-1.14088e-12
-1.17728e-12
-1.21412e-12
-1.25146e-12
-1.28934e-12
-1.32786e-12
-1.36709e-12
-1.40714e-12
-1.44812e-12
-1.49012e-12
-1.53329e-12
-1.5777e-12
-1.62339e-12
-1.67033e-12
-1.71844e-12
-1.76752e-12
-1.81729e-12
-1.86734e-12
-1.91716e-12
-1.96618e-12
-2.01375e-12
-2.05925e-12
-2.10208e-12
-2.14173e-12
-2.17784e-12
-2.21022e-12
-2.23897e-12
-2.26447e-12
-2.28747e-12
-2.30904e-12
-2.33056e-12
-2.35376e-12
-2.38063e-12
-2.41342e-12
-2.45468e-12
-2.50725e-12
-2.57433e-12
-2.65952e-12
-2.76687e-12
-2.90104e-12
-3.06735e-12
-3.27176e-12
-3.52088e-12
-3.82156e-12
-4.18022e-12
-4.60141e-12
-5.0857e-12
-5.62668e-12
-6.20747e-12
-6.79747e-12
-7.35088e-12
-7.80869e-12
-8.10547e-12
-8.18123e-12
-7.99601e-12
-7.54257e-12
-6.85204e-12
-5.98927e-12
-5.0387e-12
-4.08596e-12
-3.20158e-12
)
;
    }
    inandouthalf12
    {
        type            cyclic;
        value           nonuniform List<scalar> 
100
(
1.25707e-38
2.4622e-14
5.14699e-14
7.50751e-14
9.86353e-14
1.23106e-13
1.4807e-13
1.73239e-13
1.98581e-13
2.2414e-13
2.49963e-13
2.76077e-13
3.02484e-13
3.29179e-13
3.56158e-13
3.83423e-13
4.10983e-13
4.38845e-13
4.67012e-13
4.95491e-13
5.24286e-13
5.53402e-13
5.82847e-13
6.1263e-13
6.42761e-13
6.73247e-13
7.04096e-13
7.35321e-13
7.66931e-13
7.98933e-13
8.3133e-13
8.6413e-13
8.97331e-13
9.30936e-13
9.64943e-13
9.99345e-13
1.03414e-12
1.06932e-12
1.1049e-12
1.14088e-12
1.17728e-12
1.21412e-12
1.25146e-12
1.28934e-12
1.32786e-12
1.36709e-12
1.40714e-12
1.44812e-12
1.49012e-12
1.53329e-12
1.5777e-12
1.62339e-12
1.67033e-12
1.71844e-12
1.76752e-12
1.81729e-12
1.86734e-12
1.91716e-12
1.96618e-12
2.01375e-12
2.05925e-12
2.10208e-12
2.14173e-12
2.17784e-12
2.21022e-12
2.23897e-12
2.26447e-12
2.28747e-12
2.30904e-12
2.33056e-12
2.35376e-12
2.38063e-12
2.41342e-12
2.45468e-12
2.50725e-12
2.57433e-12
2.65952e-12
2.76687e-12
2.90104e-12
3.06735e-12
3.27176e-12
3.52088e-12
3.82156e-12
4.18022e-12
4.60141e-12
5.0857e-12
5.62668e-12
6.20747e-12
6.79747e-12
7.35088e-12
7.80869e-12
8.10547e-12
8.18123e-12
7.99601e-12
7.54257e-12
6.85204e-12
5.98927e-12
5.0387e-12
4.08596e-12
3.20158e-12
)
;
    }
    inandouthalf21
    {
        type            cyclic;
        value           nonuniform List<scalar> 
100
(
-2.4318e-12
-1.79721e-12
-1.29754e-12
-9.18896e-13
-6.40879e-13
-4.41887e-13
-3.02287e-13
-2.05831e-13
-1.39912e-13
-9.51847e-14
-6.49563e-14
-4.45499e-14
-3.07567e-14
-2.14028e-14
-1.5028e-14
-1.06559e-14
-7.63504e-15
-5.53033e-15
-4.05076e-15
-3.00078e-15
-2.24837e-15
-1.70381e-15
-1.30576e-15
-1.01192e-15
-7.92885e-16
-6.28037e-16
-5.02786e-16
-4.06728e-16
-3.32401e-16
-2.74438e-16
-2.28968e-16
-1.93164e-16
-1.64907e-16
-1.42559e-16
-1.24832e-16
-1.1071e-16
-9.93688e-17
-9.00673e-17
-8.21107e-17
-7.49191e-17
-6.82073e-17
-6.21508e-17
-5.72487e-17
-5.40445e-17
-5.26618e-17
-5.23203e-17
-5.22181e-17
-3.41243e-12
-8.18508e-12
2.0743e-11
-1.95167e-07
-3.25851e-07
-4.14322e-07
-4.77378e-07
-5.24729e-07
-5.61818e-07
-5.91749e-07
-6.16466e-07
-6.37262e-07
-6.5504e-07
-6.70451e-07
-6.83976e-07
-6.95975e-07
-7.06725e-07
-7.16437e-07
-7.25277e-07
-7.33375e-07
-7.40836e-07
-7.47742e-07
-7.5416e-07
-7.60145e-07
-7.65741e-07
-7.70985e-07
-7.75908e-07
-7.80536e-07
-7.8489e-07
-7.8899e-07
-7.9285e-07
-7.96486e-07
-7.9991e-07
-8.03132e-07
-8.06164e-07
-8.09015e-07
-8.11694e-07
-8.14208e-07
-8.16566e-07
-8.18775e-07
-8.20842e-07
-8.22774e-07
-8.24578e-07
-8.2626e-07
-8.27825e-07
-8.2928e-07
-8.3063e-07
-8.3188e-07
-8.33036e-07
-8.34102e-07
-8.35082e-07
-8.35982e-07
-8.36805e-07
)
;
    }
    inandouthalf22
    {
        type            cyclic;
        value           nonuniform List<scalar> 
100
(
2.4318e-12
1.79721e-12
1.29754e-12
9.18896e-13
6.40879e-13
4.41887e-13
3.02287e-13
2.05831e-13
1.39912e-13
9.51847e-14
6.49563e-14
4.45499e-14
3.07567e-14
2.14028e-14
1.5028e-14
1.06559e-14
7.63504e-15
5.53033e-15
4.05076e-15
3.00078e-15
2.24837e-15
1.70381e-15
1.30576e-15
1.01192e-15
7.92885e-16
6.28037e-16
5.02786e-16
4.06728e-16
3.32401e-16
2.74438e-16
2.28968e-16
1.93164e-16
1.64907e-16
1.42559e-16
1.24832e-16
1.1071e-16
9.93688e-17
9.00673e-17
8.21107e-17
7.49191e-17
6.82073e-17
6.21508e-17
5.72487e-17
5.40445e-17
5.26618e-17
5.23203e-17
5.22181e-17
3.41243e-12
8.18508e-12
-2.0743e-11
1.95167e-07
3.25851e-07
4.14322e-07
4.77378e-07
5.24729e-07
5.61818e-07
5.91749e-07
6.16466e-07
6.37262e-07
6.5504e-07
6.70451e-07
6.83976e-07
6.95975e-07
7.06725e-07
7.16437e-07
7.25277e-07
7.33375e-07
7.40836e-07
7.47742e-07
7.5416e-07
7.60145e-07
7.65741e-07
7.70985e-07
7.75908e-07
7.80536e-07
7.8489e-07
7.8899e-07
7.9285e-07
7.96486e-07
7.9991e-07
8.03132e-07
8.06164e-07
8.09015e-07
8.11694e-07
8.14208e-07
8.16566e-07
8.18775e-07
8.20842e-07
8.22774e-07
8.24578e-07
8.2626e-07
8.27825e-07
8.2928e-07
8.3063e-07
8.3188e-07
8.33036e-07
8.34102e-07
8.35082e-07
8.35982e-07
8.36805e-07
)
;
    }
    inandouthalf31
    {
        type            cyclic;
        value           nonuniform List<scalar> 
110
(
-8.37559e-07
-8.55262e-07
-8.73284e-07
-8.91628e-07
-9.10302e-07
-9.29308e-07
-9.48654e-07
-9.68344e-07
-9.88382e-07
-1.00878e-06
-1.02953e-06
-1.05066e-06
-1.07216e-06
-1.09405e-06
-1.11634e-06
-1.13904e-06
-1.16216e-06
-1.18571e-06
-1.2097e-06
-1.23416e-06
-1.25909e-06
-1.28451e-06
-1.31043e-06
-1.33685e-06
-1.3638e-06
-1.39129e-06
-1.41932e-06
-1.44792e-06
-1.47709e-06
-1.50686e-06
-1.53723e-06
-1.56823e-06
-1.59987e-06
-1.63221e-06
-1.66521e-06
-1.69921e-06
-1.73422e-06
-1.72242e-06
-1.76258e-06
-1.79181e-06
-1.81968e-06
-1.85787e-06
-1.87122e-06
-1.91024e-06
-1.94208e-06
-1.97371e-06
-2.00741e-06
-2.04229e-06
-2.07849e-06
-2.11603e-06
-2.15495e-06
-2.19527e-06
-2.23702e-06
-2.28024e-06
-2.32496e-06
-2.37127e-06
-2.41926e-06
-2.4689e-06
-2.52363e-06
-2.58137e-06
-2.63589e-06
-2.6895e-06
-2.7441e-06
-2.79979e-06
-2.85662e-06
-2.9146e-06
-2.97376e-06
-3.03412e-06
-3.09571e-06
-3.15854e-06
-3.22265e-06
-3.28806e-06
-3.3548e-06
-3.42289e-06
-3.49237e-06
-3.56326e-06
-3.63558e-06
-3.70937e-06
-3.78466e-06
-3.86148e-06
-3.93986e-06
-4.01983e-06
-4.10142e-06
-4.18467e-06
-4.26961e-06
-4.35627e-06
-4.44469e-06
-4.5349e-06
-4.62695e-06
-4.72086e-06
-4.81669e-06
-4.91445e-06
-5.0142e-06
-5.11598e-06
-5.21982e-06
-5.32577e-06
-5.43386e-06
-5.54416e-06
-5.65669e-06
-5.7715e-06
-5.88865e-06
-6.00817e-06
-6.13013e-06
-6.25455e-06
-6.3815e-06
-6.51103e-06
-6.64318e-06
-6.77802e-06
-6.9156e-06
-7.05597e-06
)
;
    }
    inandouthalf32
    {
        type            cyclic;
        value           nonuniform List<scalar> 
110
(
8.37559e-07
8.55262e-07
8.73284e-07
8.91628e-07
9.10302e-07
9.29308e-07
9.48654e-07
9.68344e-07
9.88382e-07
1.00878e-06
1.02953e-06
1.05066e-06
1.07216e-06
1.09405e-06
1.11634e-06
1.13904e-06
1.16216e-06
1.18571e-06
1.2097e-06
1.23416e-06
1.25909e-06
1.28451e-06
1.31043e-06
1.33685e-06
1.3638e-06
1.39129e-06
1.41932e-06
1.44792e-06
1.47709e-06
1.50686e-06
1.53723e-06
1.56823e-06
1.59987e-06
1.63221e-06
1.66521e-06
1.69921e-06
1.73422e-06
1.72242e-06
1.76258e-06
1.79181e-06
1.81968e-06
1.85787e-06
1.87122e-06
1.91024e-06
1.94208e-06
1.97371e-06
2.00741e-06
2.04229e-06
2.07849e-06
2.11603e-06
2.15495e-06
2.19527e-06
2.23702e-06
2.28024e-06
2.32496e-06
2.37127e-06
2.41926e-06
2.4689e-06
2.52363e-06
2.58137e-06
2.63589e-06
2.6895e-06
2.7441e-06
2.79979e-06
2.85662e-06
2.9146e-06
2.97376e-06
3.03412e-06
3.09571e-06
3.15854e-06
3.22265e-06
3.28806e-06
3.3548e-06
3.42289e-06
3.49237e-06
3.56326e-06
3.63558e-06
3.70937e-06
3.78466e-06
3.86148e-06
3.93986e-06
4.01983e-06
4.10142e-06
4.18467e-06
4.26961e-06
4.35627e-06
4.44469e-06
4.5349e-06
4.62695e-06
4.72086e-06
4.81669e-06
4.91445e-06
5.0142e-06
5.11598e-06
5.21982e-06
5.32577e-06
5.43386e-06
5.54416e-06
5.65669e-06
5.7715e-06
5.88865e-06
6.00817e-06
6.13013e-06
6.25455e-06
6.3815e-06
6.51103e-06
6.64318e-06
6.77802e-06
6.9156e-06
7.05597e-06
)
;
    }
    inandouthalf41
    {
        type            cyclic;
        value           nonuniform List<scalar> 
50
(
-6.31581e-06
-6.31581e-06
-6.31581e-06
-6.31581e-06
-6.31581e-06
-6.31581e-06
-6.31581e-06
-6.31581e-06
-6.31581e-06
-6.31581e-06
-6.31581e-06
-6.31581e-06
-6.31581e-06
-6.31581e-06
-6.31581e-06
-6.31581e-06
-6.31581e-06
-6.31581e-06
-6.31581e-06
-6.31581e-06
-6.31581e-06
-6.31581e-06
-6.31581e-06
-6.31581e-06
-6.31581e-06
-6.31581e-06
-6.31581e-06
-6.31581e-06
-6.31581e-06
-6.31581e-06
-6.31581e-06
-6.31581e-06
-6.31581e-06
-6.31581e-06
-6.31581e-06
-6.31581e-06
-6.31581e-06
-6.31581e-06
-6.31581e-06
-6.31581e-06
-6.31581e-06
-6.31581e-06
-6.31581e-06
-6.31581e-06
-6.31581e-06
-6.31581e-06
-6.31581e-06
-6.3158e-06
-6.31561e-06
-6.31078e-06
)
;
    }
    inandouthalf42
    {
        type            cyclic;
        value           nonuniform List<scalar> 
50
(
6.31581e-06
6.31581e-06
6.31581e-06
6.31581e-06
6.31581e-06
6.31581e-06
6.31581e-06
6.31581e-06
6.31581e-06
6.31581e-06
6.31581e-06
6.31581e-06
6.31581e-06
6.31581e-06
6.31581e-06
6.31581e-06
6.31581e-06
6.31581e-06
6.31581e-06
6.31581e-06
6.31581e-06
6.31581e-06
6.31581e-06
6.31581e-06
6.31581e-06
6.31581e-06
6.31581e-06
6.31581e-06
6.31581e-06
6.31581e-06
6.31581e-06
6.31581e-06
6.31581e-06
6.31581e-06
6.31581e-06
6.31581e-06
6.31581e-06
6.31581e-06
6.31581e-06
6.31581e-06
6.31581e-06
6.31581e-06
6.31581e-06
6.31581e-06
6.31581e-06
6.31581e-06
6.31581e-06
6.3158e-06
6.31561e-06
6.31078e-06
)
;
    }
    top
    {
        type            symmetryPlane;
        value           uniform 0;
    }
    walls
    {
        type            calculated;
        value           uniform 0;
    }
    frontAndBackPlanes
    {
        type            empty;
        value           nonuniform 0();
    }
}


// ************************************************************************* //
