/*--------------------------------*- C++ -*----------------------------------*\
| =========                 |                                                 |
| \\      /  F ield         | OpenFOAM: The Open Source CFD Toolbox           |
|  \\    /   O peration     | Version:  2.4.x                                 |
|   \\  /    A nd           | Web:      www.OpenFOAM.org                      |
|    \\/     M anipulation  |                                                 |
\*---------------------------------------------------------------------------*/
FoamFile
{
    version     2.0;
    format      ascii;
    class       volScalarField;
    location    "7";
    object      epsilon_0;
}
// * * * * * * * * * * * * * * * * * * * * * * * * * * * * * * * * * * * * * //

dimensions      [0 2 -3 0 0 0 0];

internalField   nonuniform List<scalar> 
360
(
1.60309e-27
1e-20
1e-20
1e-20
1e-20
1e-20
1e-20
1e-20
1e-20
1e-20
1e-20
1e-20
1e-20
1e-20
1e-20
1e-20
1e-20
1e-20
1e-20
1e-20
1e-20
1e-20
1e-20
1e-20
1e-20
1e-20
1e-20
1e-20
1e-20
1e-20
1e-20
1e-20
1e-20
1e-20
1e-20
1e-20
1e-20
1e-20
1e-20
1e-20
1e-20
1e-20
1e-20
1e-20
1e-20
1e-20
1e-20
1e-20
1e-20
1e-20
1e-20
1e-20
1e-20
1e-20
1e-20
1e-20
1e-20
1e-20
1e-20
1e-20
1e-20
1e-20
1e-20
1e-20
1e-20
1e-20
1e-20
1e-20
1e-20
1e-20
1e-20
1e-20
1e-20
1e-20
1e-20
1e-20
1e-20
1e-20
1e-20
1e-20
1e-20
1e-20
1e-20
1e-20
1e-20
1e-20
1e-20
1e-20
1e-20
1e-20
1e-20
1e-20
1e-20
1e-20
1e-20
1e-20
1e-20
1e-20
1e-20
1e-20
1e-20
1e-20
1e-20
1e-20
1e-20
1e-20
1e-20
1e-20
1e-20
1e-20
1e-20
1e-20
1e-20
1e-20
1e-20
1e-20
1e-20
1e-20
1e-20
1e-20
1e-20
1e-20
1e-20
1e-20
1e-20
1e-20
1e-20
1e-20
1e-20
1e-20
1e-20
1e-20
1.05271e-20
3.82865e-20
1.77736e-19
8.74706e-19
4.57499e-18
2.59327e-17
1.62554e-16
1.14015e-15
8.97143e-15
7.94593e-14
8.03131e-13
9.46624e-12
1.33419e-10
2.30655e-09
4.95798e-08
1.30835e-06
4.30163e-05
0.00156791
0.0172015
0.0270158
0.029103
0.0297356
0.0297848
0.0295737
0.0292165
0.028774
0.0282811
0.0277588
0.0272207
0.0266757
0.0261294
0.0255859
0.0250477
0.0245163
0.0239927
0.0234775
0.0229711
0.0224733
0.0219842
0.0215037
0.0210314
0.0205672
0.0201109
0.0196621
0.0192208
0.0187865
0.0183593
0.0179387
0.0175248
0.0171173
0.016716
0.0163209
0.0159318
0.0155487
0.0151713
0.0147997
0.0144337
0.0140734
0.0137185
0.013369
0.0130249
0.0126862
0.0123526
0.0120243
0.0117012
0.0113832
0.0110702
0.0107623
0.0104594
0.0101583
0.00985638
0.00955362
0.00925019
0.00894626
0.00864199
0.00833752
0.00803305
0.00772875
0.00742481
0.00712144
0.00681885
0.00651729
0.00621701
0.00591829
0.00562143
0.00532676
0.00503463
0.00474543
0.00445958
0.00417755
0.00389982
0.00362695
0.00335951
0.00309815
0.00284353
0.00259639
0.00235749
0.00212764
0.00190768
0.00169847
0.00150087
0.00131572
0.00114379
0.000985779
0.000842225
0.000713482
0.000599651
0.000500539
0.000415622
0.000344047
0.000284654
0.000236053
0.000196709
0.000165056
0.000139584
0.000118918
0.00010186
8.74055e-05
7.47518e-05
6.32877e-05
5.25873e-05
4.24007e-05
3.2647e-05
2.34123e-05
1.49553e-05
7.73473e-06
2.43708e-06
2.67566e-07
8.79971e-09
1.92492e-10
3.89401e-12
7.39935e-14
1.32173e-15
2.22115e-17
3.58224e-19
1.34137e-20
1e-20
1e-20
1e-20
1e-20
1e-20
1e-20
1e-20
1e-20
1e-20
1e-20
1e-20
1e-20
1e-20
1e-20
1e-20
1e-20
1e-20
1e-20
1e-20
1e-20
1e-20
1e-20
1e-20
1e-20
1e-20
1e-20
1e-20
1e-20
1e-20
1e-20
1e-20
1e-20
1e-20
1e-20
1e-20
1e-20
1e-20
1e-20
1e-20
1e-20
1e-20
1e-20
1e-20
1e-20
1e-20
1e-20
1e-20
1e-20
1e-20
1e-20
1e-20
1e-20
1e-20
1e-20
1e-20
1e-20
1e-20
1e-20
1e-20
1e-20
1e-20
1e-20
1e-20
1e-20
1e-20
1e-20
1e-20
1e-20
1e-20
1e-20
1e-20
1e-20
1e-20
1e-20
1e-20
1e-20
1e-20
1e-20
1e-20
1e-20
1e-20
1e-20
1e-20
1e-20
1e-20
1e-20
1e-20
1e-20
1e-20
1e-20
1e-20
1e-20
)
;

boundaryField
{
    inandouthalf11
    {
        type            cyclic;
    }
    inandouthalf12
    {
        type            cyclic;
    }
    inandouthalf21
    {
        type            cyclic;
    }
    inandouthalf22
    {
        type            cyclic;
    }
    inandouthalf31
    {
        type            cyclic;
    }
    inandouthalf32
    {
        type            cyclic;
    }
    inandouthalf41
    {
        type            cyclic;
    }
    inandouthalf42
    {
        type            cyclic;
    }
    top
    {
        type            symmetryPlane;
    }
    walls
    {
        type            zeroGradient;
    }
    frontAndBackPlanes
    {
        type            empty;
    }
}


// ************************************************************************* //
