/*--------------------------------*- C++ -*----------------------------------*\
| =========                 |                                                 |
| \\      /  F ield         | OpenFOAM: The Open Source CFD Toolbox           |
|  \\    /   O peration     | Version:  2.4.x                                 |
|   \\  /    A nd           | Web:      www.OpenFOAM.org                      |
|    \\/     M anipulation  |                                                 |
\*---------------------------------------------------------------------------*/
FoamFile
{
    version     2.0;
    format      ascii;
    class       volScalarField;
    location    "7";
    object      epsilon;
}
// * * * * * * * * * * * * * * * * * * * * * * * * * * * * * * * * * * * * * //

dimensions      [0 2 -3 0 0 0 0];

internalField   nonuniform List<scalar> 
360
(
1e-20
1e-20
1e-20
1e-20
1e-20
1e-20
1e-20
1e-20
1e-20
1e-20
1e-20
1e-20
1e-20
1e-20
1e-20
1e-20
1e-20
1e-20
1e-20
1e-20
1e-20
1e-20
1e-20
1e-20
1e-20
1e-20
1e-20
1e-20
1e-20
1e-20
1e-20
1e-20
1e-20
1e-20
1e-20
1e-20
1e-20
1e-20
1e-20
1e-20
1e-20
1e-20
1e-20
1e-20
1e-20
1e-20
1e-20
1e-20
1e-20
1e-20
1e-20
1e-20
1e-20
1e-20
1e-20
1e-20
1e-20
1e-20
1e-20
1e-20
1e-20
1e-20
1e-20
1e-20
1e-20
1e-20
1e-20
1e-20
1e-20
1e-20
1e-20
1e-20
1e-20
1e-20
1e-20
1e-20
1e-20
1e-20
1e-20
1e-20
1e-20
1e-20
1e-20
1e-20
1e-20
1e-20
1e-20
1e-20
1e-20
1e-20
1e-20
1e-20
1e-20
1e-20
1e-20
1e-20
1e-20
1e-20
1e-20
1e-20
1e-20
1e-20
1e-20
1e-20
1e-20
1e-20
1e-20
1e-20
1e-20
1e-20
1e-20
1e-20
1e-20
1e-20
1e-20
1e-20
1e-20
1e-20
1e-20
1e-20
1e-20
1e-20
1e-20
1e-20
1e-20
1e-20
1e-20
1e-20
1e-20
1e-20
1e-20
1e-20
1.05253e-20
3.82733e-20
1.77659e-19
8.74268e-19
4.57244e-18
2.59171e-17
1.62447e-16
1.13928e-15
8.96312e-15
7.93677e-14
8.01998e-13
9.45051e-12
1.33169e-10
2.30185e-09
4.94711e-08
1.30524e-06
4.29046e-05
0.00156381
0.0171735
0.0269839
0.0290734
0.0297091
0.0297611
0.0295526
0.0291977
0.0287572
0.028266
0.0277452
0.0272085
0.0266645
0.0261193
0.0255767
0.0250392
0.0245085
0.0239855
0.0234709
0.0229649
0.0224676
0.0219789
0.0214987
0.0210268
0.0205629
0.0201068
0.0196584
0.0192172
0.0187832
0.0183562
0.0179358
0.0175221
0.0171147
0.0167136
0.0163187
0.0159298
0.0155467
0.0151695
0.0147981
0.0144322
0.0140719
0.0137171
0.0133678
0.0130238
0.0126851
0.0123517
0.0120235
0.0117004
0.0113825
0.0110696
0.0107617
0.0104589
0.0101579
0.009856
0.00955329
0.00924992
0.00894604
0.00864182
0.0083374
0.00803298
0.00772872
0.00742482
0.00712149
0.00681894
0.00651742
0.00621717
0.00591848
0.00562165
0.00532701
0.0050349
0.00474573
0.0044599
0.00417788
0.00390017
0.00362731
0.00335989
0.00309853
0.00284392
0.00259678
0.00235788
0.00212802
0.00190806
0.00169884
0.00150122
0.00131605
0.0011441
0.000986064
0.000842484
0.000713712
0.000599851
0.000500709
0.000415764
0.000344161
0.000284744
0.000236121
0.00019676
0.000165092
0.000139609
0.000118935
0.00010187
8.74121e-05
7.47561e-05
6.3291e-05
5.25903e-05
4.24039e-05
3.26507e-05
2.34165e-05
1.49597e-05
7.73874e-06
2.43975e-06
2.68126e-07
8.82415e-09
1.9305e-10
3.90558e-12
7.42189e-14
1.32585e-15
2.22825e-17
3.59372e-19
1.34299e-20
1e-20
1e-20
1e-20
1e-20
1e-20
1e-20
1e-20
1e-20
1e-20
1e-20
1e-20
1e-20
1e-20
1e-20
1e-20
1e-20
1e-20
1e-20
1e-20
1e-20
1e-20
1e-20
1e-20
1e-20
1e-20
1e-20
1e-20
1e-20
1e-20
1e-20
1e-20
1e-20
1e-20
1e-20
1e-20
1e-20
1e-20
1e-20
1e-20
1e-20
1e-20
1e-20
1e-20
1e-20
1e-20
1e-20
1e-20
1e-20
1e-20
1e-20
1e-20
1e-20
1e-20
1e-20
1e-20
1e-20
1e-20
1e-20
1e-20
1e-20
1e-20
1e-20
1e-20
1e-20
1e-20
1e-20
1e-20
1e-20
1e-20
1e-20
1e-20
1e-20
1e-20
1e-20
1e-20
1e-20
1e-20
1e-20
1e-20
1e-20
1e-20
1e-20
1e-20
1e-20
1e-20
1e-20
1e-20
1e-20
1e-20
1e-20
1e-20
1e-20
)
;

boundaryField
{
    inandouthalf11
    {
        type            cyclic;
    }
    inandouthalf12
    {
        type            cyclic;
    }
    inandouthalf21
    {
        type            cyclic;
    }
    inandouthalf22
    {
        type            cyclic;
    }
    inandouthalf31
    {
        type            cyclic;
    }
    inandouthalf32
    {
        type            cyclic;
    }
    inandouthalf41
    {
        type            cyclic;
    }
    inandouthalf42
    {
        type            cyclic;
    }
    top
    {
        type            symmetryPlane;
    }
    walls
    {
        type            zeroGradient;
    }
    frontAndBackPlanes
    {
        type            empty;
    }
}


// ************************************************************************* //
