/*--------------------------------*- C++ -*----------------------------------*\
| =========                 |                                                 |
| \\      /  F ield         | OpenFOAM: The Open Source CFD Toolbox           |
|  \\    /   O peration     | Version:  2.4.x                                 |
|   \\  /    A nd           | Web:      www.OpenFOAM.org                      |
|    \\/     M anipulation  |                                                 |
\*---------------------------------------------------------------------------*/
FoamFile
{
    version     2.0;
    format      ascii;
    class       volVectorField;
    location    "7";
    object      gradPf;
}
// * * * * * * * * * * * * * * * * * * * * * * * * * * * * * * * * * * * * * //

dimensions      [0 1 -2 0 0 0 0];

internalField   nonuniform List<vector> 
360
(
(0 63.6599 0)
(0 73.1494 0)
(0 2.09021 0)
(0 -11.6382 0)
(-3.34503e-14 -5.68152 0)
(-3.34512e-14 -3.1232 0)
(-3.34522e-14 -3.54416 0)
(0 -3.93501 0)
(-3.34547e-14 -4.00612 0)
(0 -4.05113 0)
(-3.34572e-14 -4.04589 0)
(0 -4.02495 0)
(-3.34598e-14 -4.01939 0)
(0 -4.01717 0)
(0 -4.03232 0)
(0 -4.04971 0)
(0 -4.05478 0)
(-3.34665e-14 -4.05317 0)
(0 -4.0698 0)
(0 -4.06798 0)
(0 -4.06737 0)
(-1.6736e-14 -4.08535 0)
(0 -4.08597 0)
(0 -4.09242 0)
(0 -4.09895 0)
(-1.67389e-14 -4.0954 0)
(0 -4.1069 0)
(0 -4.11971 0)
(0 -4.11481 0)
(0 -4.11545 0)
(0 -4.13495 0)
(0 -4.12242 0)
(0 -4.13541 0)
(0 -4.14864 0)
(0 -4.13714 0)
(3.34934e-14 -4.14268 0)
(0 -4.14455 0)
(0 -4.1713 0)
(0 -4.14484 0)
(0 -4.15313 0)
(0 -4.1831 0)
(0 -4.14679 0)
(3.35051e-14 -4.16718 0)
(0 -4.18175 0)
(0 -4.16973 0)
(0 -4.19203 0)
(0 -4.16934 0)
(0 -4.16551 0)
(0 -4.21645 0)
(0 -4.1995 0)
(3.35197e-14 -4.19018 0)
(0 -4.2112 0)
(0 -4.21695 0)
(0 -4.20931 0)
(0 -4.2247 0)
(0 -4.22586 0)
(0 -4.22006 0)
(0 -4.23722 0)
(0 -4.20676 0)
(0 -4.232 0)
(0 -4.23894 0)
(0 -4.23141 0)
(0 -4.24209 0)
(0 -4.22883 0)
(0 -4.22164 0)
(0 -4.21765 0)
(0 -4.22208 0)
(0 -4.21167 0)
(0 -4.18987 0)
(0 -4.20295 0)
(0 -4.23314 0)
(0 -4.20818 0)
(0 -4.21095 0)
(0 -4.2335 0)
(0 -4.24092 0)
(0 -4.24132 0)
(0 -4.23221 0)
(0 -4.24575 0)
(0 -4.25881 0)
(0 -4.26427 0)
(0 -4.27701 0)
(0 -4.30081 0)
(0 -4.31956 0)
(0 -4.33852 0)
(0 -4.35638 0)
(0 -4.37241 0)
(0 -4.38394 0)
(0 -4.38929 0)
(0 -4.39466 0)
(0 -4.39678 0)
(0 -4.39365 0)
(0 -4.3884 0)
(0 -4.38029 0)
(0 -4.36752 0)
(0 -4.35215 0)
(0 -4.33574 0)
(0 -4.31977 0)
(0 -4.30613 0)
(0 -4.29652 0)
(0 -4.29143 0)
(0 -4.29064 0)
(0 -4.29379 0)
(0 -4.29989 0)
(0 -4.30778 0)
(0 -4.31675 0)
(0 -4.32621 0)
(0 -4.33571 0)
(0 -4.34503 0)
(0 -4.35397 0)
(0 -4.36238 0)
(0 -4.37008 0)
(0 -4.37696 0)
(0 -4.38286 0)
(0 -4.38767 0)
(0 -4.39125 0)
(0 -4.39346 0)
(0 -4.39421 0)
(0 -4.39338 0)
(0 -4.39089 0)
(0 -4.3866 0)
(0 -4.38035 0)
(0 -4.3719 0)
(0 -4.36103 0)
(0 -4.34769 0)
(0 -4.33234 0)
(0 -4.31616 0)
(0 -4.30069 0)
(0 -4.28686 0)
(0 -4.27334 0)
(0 -4.2562 0)
(0 -4.23265 0)
(0 -4.20946 0)
(0 -4.20466 0)
(0 -4.22535 0)
(0 -4.24172 0)
(0 -4.2199 0)
(0 -4.19525 0)
(0 -4.27251 0)
(0 -4.49024 0)
(0 -4.61327 0)
(0 -4.31601 0)
(0 -4.22952 0)
(0 -4.78205 0)
(0 -5.35406 0)
(0 -7.00261 0)
(0 -11.4248 0)
(0 -8.73459 0)
(0 -3.14764 0)
(0 -3.95431 0)
(0 -2.84763 0)
(0 0 0)
(0 0 0)
(0 0 0)
(0 0 0)
(0 0 0)
(0 0 0)
(0 0 0)
(0 0 0)
(0 0 0)
(0 0 0)
(0 0 0)
(0 0 0)
(0 0 0)
(0 0 0)
(0 0 0)
(0 0 0)
(0 0 0)
(0 0 0)
(0 0 0)
(0 0 0)
(0 0 0)
(0 0 0)
(0 0 0)
(0 0 0)
(0 0 0)
(0 0 0)
(0 0 0)
(0 0 0)
(0 0 0)
(0 0 0)
(0 0 0)
(0 0 0)
(0 0 0)
(0 0 0)
(0 0 0)
(0 0 0)
(0 0 0)
(0 0 0)
(0 0 0)
(0 0 0)
(0 0 0)
(0 0 0)
(0 0 0)
(0 0 0)
(0 0 0)
(0 0 0)
(0 0 0)
(0 0 0)
(0 0 0)
(0 0 0)
(0 0 0)
(0 0 0)
(0 0 0)
(0 0 0)
(0 0 0)
(0 0 0)
(0 0 0)
(0 0 0)
(0 0 0)
(0 0 0)
(0 0 0)
(0 0 0)
(0 0 0)
(0 0 0)
(0 0 0)
(0 0 0)
(0 0 0)
(0 0 0)
(0 0 0)
(0 0 0)
(0 0 0)
(0 0 0)
(0 0 0)
(0 0 0)
(0 0 0)
(0 0 0)
(0 0 0)
(0 0 0)
(0 0 0)
(0 0 0)
(0 0 0)
(0 0 0)
(0 0 0)
(0 0 0)
(0 0 0)
(0 0 0)
(0 0 0)
(0 0 0)
(0 0 0)
(0 0 0)
(0 0 0)
(0 0 0)
(0 0 0)
(0 0 0)
(0 0 0)
(0 0 0)
(0 0 0)
(0 0 0)
(0 0 0)
(0 0 0)
(0 0 0)
(0 0 0)
(0 0 0)
(0 0 0)
(0 0 0)
(0 0 0)
(0 0 0)
(0 0 0)
(0 0 0)
(0 0 0)
(0 0 0)
(0 0 0)
(0 0 0)
(0 0 0)
(0 0 0)
(0 0 0)
(0 0 0)
(0 0 0)
(0 0 0)
(0 0 0)
(0 0 0)
(0 0 0)
(0 0 0)
(0 0 0)
(0 0 0)
(0 0 0)
(0 0 0)
(0 0 0)
(0 0 0)
(0 0 0)
(0 0 0)
(0 0 0)
(0 0 0)
(0 0 0)
(0 0 0)
(0 0 0)
(0 0 0)
(0 0 0)
(0 0 0)
(0 0 0)
(0 0 0)
(0 0 0)
(0 0 0)
(0 0 0)
(0 0 0)
(0 0 0)
(0 0 0)
(0 0 0)
(0 0 0)
(0 0 0)
(0 0 0)
(0 0 0)
(0 0 0)
(0 0 0)
(0 0 0)
(0 0 0)
(0 0 0)
(0 0 0)
(0 0 0)
(0 0 0)
(0 0 0)
(0 0 0)
(0 0 0)
(0 0 0)
(0 0 0)
(0 0 0)
(0 0 0)
(0 0 0)
(0 0 0)
(0 0 0)
(0 0 0)
(0 0 0)
(0 0 0)
(0 0 0)
(0 0 0)
(0 0 0)
(0 0 0)
(0 0 0)
(0 0 0)
(0 0 0)
(0 0 0)
(0 0 0)
(0 0 0)
(0 0 0)
(0 0 0)
(0 0 0)
(0 0 0)
(0 0 0)
(0 0 0)
(0 0 0)
(0 0 0)
(0 0 0)
(0 0 0)
(0 0 0)
(0 0 0)
(0 0 0)
(0 0 0)
(0 0 0)
(0 0 0)
(0 0 0)
(0 0 0)
(0 0 0)
(0 0 0)
(0 0 0)
(0 0 0)
(0 0 0)
(0 0 0)
(0 0 0)
(0 0 0)
(0 0 0)
)
;

boundaryField
{
    inandouthalf11
    {
        type            cyclic;
    }
    inandouthalf12
    {
        type            cyclic;
    }
    inandouthalf21
    {
        type            cyclic;
    }
    inandouthalf22
    {
        type            cyclic;
    }
    inandouthalf31
    {
        type            cyclic;
    }
    inandouthalf32
    {
        type            cyclic;
    }
    inandouthalf41
    {
        type            cyclic;
    }
    inandouthalf42
    {
        type            cyclic;
    }
    top
    {
        type            symmetryPlane;
    }
    walls
    {
        type            calculated;
        value           uniform (0 0 0);
    }
    frontAndBackPlanes
    {
        type            empty;
    }
}


// ************************************************************************* //
