/*--------------------------------*- C++ -*----------------------------------*\
| =========                 |                                                 |
| \\      /  F ield         | OpenFOAM: The Open Source CFD Toolbox           |
|  \\    /   O peration     | Version:  2.4.x                                 |
|   \\  /    A nd           | Web:      www.OpenFOAM.org                      |
|    \\/     M anipulation  |                                                 |
\*---------------------------------------------------------------------------*/
FoamFile
{
    version     2.0;
    format      ascii;
    class       volVectorField;
    location    "7";
    object      gradPs;
}
// * * * * * * * * * * * * * * * * * * * * * * * * * * * * * * * * * * * * * //

dimensions      [0 1 -2 0 0 0 0];

internalField   nonuniform List<vector> 
360
(
(0 1.54988e-18 0)
(0 1.6843e-18 0)
(0 -2.52626e-20 0)
(0 -2.37727e-19 0)
(-1.45067e-32 -1.01191e-19 0)
(-2.90143e-32 -5.62903e-20 0)
(-1.45076e-32 -7.05874e-20 0)
(0 -7.97638e-20 0)
(-2.90173e-32 -8.10023e-20 0)
(0 -8.17463e-20 0)
(-1.45098e-32 -8.18367e-20 0)
(0 -8.19618e-20 0)
(-1.45109e-32 -8.25489e-20 0)
(0 -8.31703e-20 0)
(0 -8.40586e-20 0)
(0 -8.49476e-20 0)
(0 -8.56103e-20 0)
(-2.90276e-32 -8.61675e-20 0)
(0 -8.71526e-20 0)
(0 -8.77671e-20 0)
(0 -8.84152e-20 0)
(-1.45162e-32 -8.94546e-20 0)
(0 -9.0124e-20 0)
(0 -9.09618e-20 0)
(0 -9.18337e-20 0)
(-1.45187e-32 -9.24823e-20 0)
(0 -9.34623e-20 0)
(0 -9.44998e-20 0)
(0 -9.51969e-20 0)
(0 -9.6044e-20 0)
(0 -9.73651e-20 0)
(0 -9.79488e-20 0)
(0 -9.91816e-20 0)
(0 -1.00468e-19 0)
(0 -1.01256e-19 0)
(2.90509e-32 -1.02482e-19 0)
(0 -1.03569e-19 0)
(0 -1.0535e-19 0)
(0 -1.05859e-19 0)
(0 -1.07239e-19 0)
(0 -1.09167e-19 0)
(0 -1.09399e-19 0)
(2.90611e-32 -1.11031e-19 0)
(0 -1.12398e-19 0)
(0 -1.13068e-19 0)
(0 -1.14703e-19 0)
(0 -1.15069e-19 0)
(0 -1.15729e-19 0)
(0 -1.17751e-19 0)
(0 -1.18013e-19 0)
(1.45369e-32 -1.1867e-19 0)
(0 -1.20216e-19 0)
(0 -1.21515e-19 0)
(0 -1.22681e-19 0)
(0 -1.24823e-19 0)
(0 -1.2688e-19 0)
(0 -1.29123e-19 0)
(0 -1.3243e-19 0)
(0 -1.34495e-19 0)
(0 -1.38383e-19 0)
(0 -1.41807e-19 0)
(0 -1.45049e-19 0)
(0 -1.4906e-19 0)
(0 -1.52379e-19 0)
(0 -1.55729e-19 0)
(0 -1.58756e-19 0)
(0 -1.6154e-19 0)
(0 -1.63251e-19 0)
(0 -1.63801e-19 0)
(0 -1.64705e-19 0)
(0 -1.65634e-19 0)
(0 -1.64246e-19 0)
(0 -1.63485e-19 0)
(0 -1.63004e-19 0)
(0 -1.61705e-19 0)
(0 -1.59868e-19 0)
(0 -1.57155e-19 0)
(0 -1.5446e-19 0)
(0 -1.50613e-19 0)
(0 -1.45006e-19 0)
(0 -1.37768e-19 0)
(0 -1.28634e-19 0)
(0 -1.16804e-19 0)
(0 -1.02795e-19 0)
(0 -8.76254e-20 0)
(0 -7.36636e-20 0)
(0 -6.48578e-20 0)
(0 -6.66634e-20 0)
(0 -8.53361e-20 0)
(0 -1.25214e-19 0)
(0 -1.86322e-19 0)
(0 -2.62158e-19 0)
(0 -3.39499e-19 0)
(0 -4.0217e-19 0)
(0 -4.37314e-19 0)
(0 -4.40617e-19 0)
(0 -4.17669e-19 0)
(0 -3.80459e-19 0)
(0 -3.41554e-19 0)
(0 -3.09581e-19 0)
(0 -2.87954e-19 0)
(0 -2.76171e-19 0)
(0 -2.7188e-19 0)
(0 -2.72525e-19 0)
(0 -2.76139e-19 0)
(0 -2.81453e-19 0)
(0 -2.8775e-19 0)
(0 -2.94669e-19 0)
(0 -3.02042e-19 0)
(0 -3.098e-19 0)
(0 -3.17919e-19 0)
(0 -3.26398e-19 0)
(0 -3.35246e-19 0)
(0 -3.44477e-19 0)
(0 -3.54107e-19 0)
(0 -3.64155e-19 0)
(0 -3.74643e-19 0)
(0 -3.85596e-19 0)
(0 -3.97042e-19 0)
(0 -4.09008e-19 0)
(0 -4.21519e-19 0)
(0 -4.34596e-19 0)
(0 -4.4826e-19 0)
(0 -4.62557e-19 0)
(0 -4.77589e-19 0)
(0 -4.93561e-19 0)
(0 -5.10757e-19 0)
(0 -5.29431e-19 0)
(0 -5.49589e-19 0)
(0 -5.70866e-19 0)
(0 -5.92984e-19 0)
(0 -6.22593e-19 0)
(0 3.43073e-16 0)
(0 1.99324e-15 0)
(0 9.0851e-15 0)
(0 4.24134e-14 0)
(0 2.11291e-13 0)
(0 1.15184e-12 0)
(0 6.97646e-12 0)
(0 4.69689e-11 0)
(0 3.50566e-10 0)
(0 2.93394e-09 0)
(0 2.81635e-08 0)
(0 3.18271e-07 0)
(0 4.36715e-06 0)
(0 7.59283e-05 0)
(0 0.00210472 0)
(0 0.0678876 0)
(0 0.557348 0)
(0 0.279566 0)
(0 -1.35009 0)
(0 -1.39731 0)
(0 -1.36363 0)
(0 -1.26532 0)
(0 -1.17274 0)
(0 -1.11856 0)
(0 -1.08164 0)
(0 -1.0534 0)
(0 -1.03105 0)
(0 -1.01276 0)
(0 -0.997254 0)
(0 -0.983731 0)
(0 -0.971703 0)
(0 -0.960845 0)
(0 -0.950926 0)
(0 -0.941761 0)
(0 -0.933185 0)
(0 -0.925049 0)
(0 -0.91721 0)
(0 -0.909537 0)
(0 -0.901907 0)
(0 -0.894218 0)
(0 -0.886378 0)
(0 -0.878316 0)
(0 -0.869985 0)
(0 -0.86135 0)
(0 -0.852398 0)
(0 -0.84313 0)
(0 -0.833563 0)
(0 -0.823721 0)
(0 -0.81364 0)
(0 -0.803357 0)
(0 -0.792913 0)
(0 -0.782348 0)
(0 -0.771704 0)
(0 -0.761017 0)
(0 -0.750323 0)
(0 -0.739658 0)
(0 -0.729054 0)
(0 -0.718548 0)
(0 -0.708176 0)
(0 -0.69798 0)
(0 -0.688007 0)
(0 -0.678317 0)
(0 -0.668979 0)
(0 -0.660074 0)
(0 -0.651677 0)
(0 -0.643824 0)
(0 -0.636474 0)
(0 -0.629558 0)
(0 -0.623092 0)
(0 -0.617091 0)
(-2.07383e-16 -0.611495 0)
(0 -0.606419 0)
(0 -0.602333 0)
(2.44367e-16 -0.599871 0)
(0 -0.59897 0)
(-2.75818e-16 -0.599211 0)
(0 -0.600106 0)
(1.57659e-16 -0.600744 0)
(0 -0.600238 0)
(0 -0.597132 0)
(0 -0.589436 0)
(0 -0.576658 0)
(0 -0.558396 0)
(0 -0.533467 0)
(0 -0.50212 0)
(0 -0.465649 0)
(0 -0.425282 0)
(-8.63522e-17 -0.381888 0)
(0 -0.337489 0)
(-9.75675e-17 -0.294422 0)
(0 -0.253193 0)
(-5.35783e-17 -0.214582 0)
(0 -0.179724 0)
(0 -0.148641 0)
(0 -0.121448 0)
(0 -0.0979365 0)
(1.50351e-17 -0.0782371 0)
(1.51358e-17 -0.0616689 0)
(0 -0.0481982 0)
(0 -0.036975 0)
(0 -0.0285045 0)
(0 -0.0212223 0)
(0 -0.0156818 0)
(0 -0.0149341 0)
(0 -0.00743765 0)
(0 0 0)
(0 0 0)
(0 0 0)
(0 0 0)
(0 0 0)
(0 0 0)
(0 0 0)
(0 0 0)
(0 0 0)
(0 0 0)
(0 0 0)
(0 0 0)
(0 0 0)
(0 0 0)
(0 0 0)
(0 0 0)
(0 0 0)
(0 0 0)
(0 0 0)
(0 0 0)
(0 0 0)
(0 0 0)
(0 0 0)
(0 0 0)
(0 0 0)
(0 0 0)
(0 0 0)
(0 0 0)
(0 0 0)
(0 0 0)
(0 0 0)
(0 0 0)
(0 0 0)
(0 0 0)
(0 0 0)
(0 0 0)
(0 0 0)
(0 0 0)
(0 0 0)
(0 0 0)
(0 0 0)
(0 0 0)
(0 0 0)
(0 0 0)
(0 0 0)
(0 0 0)
(0 0 0)
(0 0 0)
(0 0 0)
(0 0 0)
(0 0 0)
(0 0 0)
(0 0 0)
(0 0 0)
(0 0 0)
(0 0 0)
(0 0 0)
(0 0 0)
(0 0 0)
(0 0 0)
(0 0 0)
(0 0 0)
(0 0 0)
(0 0 0)
(0 0 0)
(0 0 0)
(0 0 0)
(0 0 0)
(0 0 0)
(0 0 0)
(0 0 0)
(0 0 0)
(0 0 0)
(0 0 0)
(0 0 0)
(0 0 0)
(0 0 0)
(0 0 0)
(0 0 0)
(0 0 0)
(0 0 0)
(0 0 0)
(0 0 0)
(0 0 0)
(0 0 0)
(0 0 0)
(0 0 0)
(0 0 0)
(0 0 0)
(0 0 0)
(0 0 0)
(0 0 0)
(0 0 0)
(0 0 0)
(0 0 0)
(0 0 0)
(0 0 0)
(0 0 0)
(0 0 0)
(0 0 0)
(0 0 0)
(0 0 0)
(0 0 0)
(0 0 0)
(0 0 0)
(0 0 0)
(0 0 0)
(0 0 0)
(0 0 0)
(0 0 0)
(0 0 0)
(0 0 0)
(0 0 0)
(0 0 0)
(0 0 0)
(0 0 0)
(0 0 0)
(0 0 0)
(0 0 0)
(0 0 0)
(0 0 0)
(0 0 0)
(0 0 0)
)
;

boundaryField
{
    inandouthalf11
    {
        type            cyclic;
    }
    inandouthalf12
    {
        type            cyclic;
    }
    inandouthalf21
    {
        type            cyclic;
    }
    inandouthalf22
    {
        type            cyclic;
    }
    inandouthalf31
    {
        type            cyclic;
    }
    inandouthalf32
    {
        type            cyclic;
    }
    inandouthalf41
    {
        type            cyclic;
    }
    inandouthalf42
    {
        type            cyclic;
    }
    top
    {
        type            symmetryPlane;
    }
    walls
    {
        type            calculated;
        value           uniform (0 0 0);
    }
    frontAndBackPlanes
    {
        type            empty;
    }
}


// ************************************************************************* //
