/*--------------------------------*- C++ -*----------------------------------*\
| =========                 |                                                 |
| \\      /  F ield         | OpenFOAM: The Open Source CFD Toolbox           |
|  \\    /   O peration     | Version:  2.4.x                                 |
|   \\  /    A nd           | Web:      www.OpenFOAM.org                      |
|    \\/     M anipulation  |                                                 |
\*---------------------------------------------------------------------------*/
FoamFile
{
    version     2.0;
    format      ascii;
    class       volScalarField;
    location    "7";
    object      k;
}
// * * * * * * * * * * * * * * * * * * * * * * * * * * * * * * * * * * * * * //

dimensions      [0 2 -2 0 0 0 0];

internalField   nonuniform List<scalar> 
360
(
1e-20
1e-20
1e-20
1e-20
1e-20
1e-20
1e-20
1e-20
1e-20
1e-20
1e-20
1e-20
1e-20
1e-20
1e-20
1e-20
1e-20
1e-20
1e-20
1e-20
1e-20
1e-20
1e-20
1e-20
1e-20
1e-20
1e-20
1e-20
1e-20
1e-20
1e-20
1e-20
1e-20
1e-20
1e-20
1e-20
1e-20
1e-20
1e-20
1e-20
1e-20
1e-20
1e-20
1e-20
1e-20
1e-20
1e-20
1e-20
1e-20
1e-20
1e-20
1e-20
1e-20
1e-20
1e-20
1e-20
1e-20
1e-20
1e-20
1e-20
1e-20
1e-20
1e-20
1e-20
1e-20
1e-20
1e-20
1e-20
1e-20
1e-20
1e-20
1e-20
1e-20
1e-20
1e-20
1e-20
1e-20
1e-20
1e-20
1e-20
1e-20
1e-20
1e-20
1e-20
1e-20
1e-20
1e-20
1e-20
1e-20
1e-20
1e-20
1e-20
1e-20
1e-20
1e-20
1e-20
1e-20
1e-20
1e-20
1e-20
1e-20
1e-20
1e-20
1e-20
1e-20
1e-20
1e-20
1e-20
1e-20
1e-20
1e-20
1e-20
1e-20
1e-20
1e-20
1e-20
1e-20
1e-20
1e-20
1e-20
1e-20
1e-20
1e-20
1e-20
1e-20
1e-20
1e-20
1e-20
1e-20
1e-20
1e-20
1e-20
1e-20
3.03071e-20
1.28014e-19
5.69171e-19
2.64872e-18
1.31543e-17
7.14275e-17
4.3092e-16
2.89243e-15
2.15447e-14
1.80217e-13
1.7316e-12
1.96095e-11
2.70378e-10
4.66962e-09
9.7847e-08
2.52024e-06
8.16089e-05
0.000949442
0.0021478
0.00294602
0.0035453
0.00401791
0.00440458
0.00472746
0.00500095
0.00523486
0.00543622
0.00561027
0.00576104
0.00589167
0.00600471
0.0061022
0.00618585
0.00625708
0.00631709
0.0063669
0.00640739
0.00643933
0.00646339
0.00648016
0.00649016
0.00649387
0.0064917
0.00648403
0.00647122
0.00645357
0.00643138
0.00640493
0.00637444
0.00634016
0.0063023
0.00626106
0.00621663
0.00616918
0.00611888
0.00606589
0.00601035
0.0059524
0.00589218
0.00582981
0.00576542
0.00569911
0.005631
0.00556119
0.00548978
0.00541687
0.00534255
0.00526691
0.00518925
0.0051088
0.00502554
0.00493946
0.00485054
0.00475877
0.00466414
0.00456664
0.00446629
0.00436308
0.00425703
0.00414815
0.00403648
0.00392206
0.00380493
0.00368516
0.00356282
0.00343801
0.00331085
0.00318147
0.00305004
0.00291674
0.00278179
0.00264546
0.00250804
0.00236988
0.00223137
0.00209295
0.00195513
0.00181846
0.00168358
0.00155118
0.001422
0.00129684
0.00117654
0.00106194
0.000953865
0.000853064
0.00076016
0.000675592
0.000599554
0.000531963
0.000472447
0.000420367
0.000374876
0.000334991
0.000299677
0.000267912
0.000238746
0.000211341
0.000184999
0.000159184
0.000133542
0.000107923
8.24159e-05
5.74137e-05
3.37751e-05
1.30803e-05
1.78156e-06
6.34184e-08
1.3824e-09
2.77528e-11
5.23533e-13
9.28738e-15
1.55013e-16
2.44098e-18
4.3399e-20
1e-20
1e-20
1e-20
1e-20
1e-20
1e-20
1e-20
1e-20
1e-20
1e-20
1e-20
1e-20
1e-20
1e-20
1e-20
1e-20
1e-20
1e-20
1e-20
1e-20
1e-20
1e-20
1e-20
1e-20
1e-20
1e-20
1e-20
1e-20
1e-20
1e-20
1e-20
1e-20
1e-20
1e-20
1e-20
1e-20
1e-20
1e-20
1e-20
1e-20
1e-20
1e-20
1e-20
1e-20
1e-20
1e-20
1e-20
1e-20
1e-20
1e-20
1e-20
1e-20
1e-20
1e-20
1e-20
1e-20
1e-20
1e-20
1e-20
1e-20
1e-20
1e-20
1e-20
1e-20
1e-20
1e-20
1e-20
1e-20
1e-20
1e-20
1e-20
1e-20
1e-20
1e-20
1e-20
1e-20
1e-20
1e-20
1e-20
1e-20
1e-20
1e-20
1e-20
1e-20
1e-20
1e-20
1e-20
1e-20
1e-20
1e-20
1e-20
1e-20
)
;

boundaryField
{
    inandouthalf11
    {
        type            cyclic;
    }
    inandouthalf12
    {
        type            cyclic;
    }
    inandouthalf21
    {
        type            cyclic;
    }
    inandouthalf22
    {
        type            cyclic;
    }
    inandouthalf31
    {
        type            cyclic;
    }
    inandouthalf32
    {
        type            cyclic;
    }
    inandouthalf41
    {
        type            cyclic;
    }
    inandouthalf42
    {
        type            cyclic;
    }
    top
    {
        type            symmetryPlane;
    }
    walls
    {
        type            zeroGradient;
    }
    frontAndBackPlanes
    {
        type            empty;
    }
}


// ************************************************************************* //
