/*--------------------------------*- C++ -*----------------------------------*\
| =========                 |                                                 |
| \\      /  F ield         | OpenFOAM: The Open Source CFD Toolbox           |
|  \\    /   O peration     | Version:  2.4.x                                 |
|   \\  /    A nd           | Web:      www.OpenFOAM.org                      |
|    \\/     M anipulation  |                                                 |
\*---------------------------------------------------------------------------*/
FoamFile
{
    version     2.0;
    format      ascii;
    class       volScalarField;
    location    "7";
    object      k_0;
}
// * * * * * * * * * * * * * * * * * * * * * * * * * * * * * * * * * * * * * //

dimensions      [0 2 -2 0 0 0 0];

internalField   nonuniform List<scalar> 
360
(
1e-20
1e-20
1e-20
1e-20
1e-20
1e-20
1e-20
1e-20
1e-20
1e-20
1e-20
1e-20
1e-20
1e-20
1e-20
1e-20
1e-20
1e-20
1e-20
1e-20
1e-20
1e-20
1e-20
1e-20
1e-20
1e-20
1e-20
1e-20
1e-20
1e-20
1e-20
1e-20
1e-20
1e-20
1e-20
1e-20
1e-20
1e-20
1e-20
1e-20
1e-20
1e-20
1e-20
1e-20
1e-20
1e-20
1e-20
1e-20
1e-20
1e-20
1e-20
1e-20
1e-20
1e-20
1e-20
1e-20
1e-20
1e-20
1e-20
1e-20
1e-20
1e-20
1e-20
1e-20
1e-20
1e-20
1e-20
1e-20
1e-20
1e-20
1e-20
1e-20
1e-20
1e-20
1e-20
1e-20
1e-20
1e-20
1e-20
1e-20
1e-20
1e-20
1e-20
1e-20
1e-20
1e-20
1e-20
1e-20
1e-20
1e-20
1e-20
1e-20
1e-20
1e-20
1e-20
1e-20
1e-20
1e-20
1e-20
1e-20
1e-20
1e-20
1e-20
1e-20
1e-20
1e-20
1e-20
1e-20
1e-20
1e-20
1e-20
1e-20
1e-20
1e-20
1e-20
1e-20
1e-20
1e-20
1e-20
1e-20
1e-20
1e-20
1e-20
1e-20
1e-20
1e-20
1e-20
1e-20
1e-20
1e-20
1e-20
1e-20
1e-20
3.03156e-20
1.28061e-19
5.6942e-19
2.65003e-18
1.31611e-17
7.14662e-17
4.31181e-16
2.89456e-15
2.1565e-14
1.80433e-13
1.73411e-12
1.96423e-11
2.70873e-10
4.67874e-09
9.80524e-08
2.526e-06
8.18012e-05
0.000950602
0.0021491
0.00294732
0.00354658
0.00401917
0.00440581
0.00472865
0.00500209
0.00523596
0.00543727
0.00561128
0.005762
0.00589259
0.00600558
0.00610303
0.00618665
0.00625784
0.00631781
0.00636759
0.00640805
0.00643996
0.00646399
0.00648073
0.0064907
0.00649438
0.00649218
0.00648449
0.00647165
0.00645398
0.00643177
0.00640529
0.00637478
0.00634048
0.0063026
0.00626133
0.00621688
0.00616941
0.00611909
0.00606608
0.00601052
0.00595255
0.00589232
0.00582993
0.00576552
0.0056992
0.00563107
0.00556124
0.00548982
0.00541689
0.00534256
0.0052669
0.00518922
0.00510876
0.00502549
0.0049394
0.00485046
0.00475868
0.00466403
0.00456653
0.00446616
0.00436294
0.00425687
0.00414798
0.0040363
0.00392187
0.00380473
0.00368494
0.0035626
0.00343778
0.00331061
0.00318122
0.00304978
0.00291647
0.00278151
0.00264518
0.00250776
0.00236959
0.00223108
0.00209266
0.00195483
0.00181817
0.00168329
0.00155089
0.00142172
0.00129658
0.00117629
0.00106171
0.00095365
0.000852869
0.000759986
0.00067544
0.000599424
0.000531855
0.000472359
0.000420297
0.000374821
0.00033495
0.000299646
0.000267889
0.000238728
0.000211327
0.000184986
0.000159172
0.00013353
0.00010791
8.24017e-05
5.73986e-05
3.37601e-05
1.30677e-05
1.77798e-06
6.32403e-08
1.37834e-09
2.76692e-11
5.21918e-13
9.25804e-15
1.54512e-16
2.43293e-18
4.32788e-20
1e-20
1e-20
1e-20
1e-20
1e-20
1e-20
1e-20
1e-20
1e-20
1e-20
1e-20
1e-20
1e-20
1e-20
1e-20
1e-20
1e-20
1e-20
1e-20
1e-20
1e-20
1e-20
1e-20
1e-20
1e-20
1e-20
1e-20
1e-20
1e-20
1e-20
1e-20
1e-20
1e-20
1e-20
1e-20
1e-20
1e-20
1e-20
1e-20
1e-20
1e-20
1e-20
1e-20
1e-20
1e-20
1e-20
1e-20
1e-20
1e-20
1e-20
1e-20
1e-20
1e-20
1e-20
1e-20
1e-20
1e-20
1e-20
1e-20
1e-20
1e-20
1e-20
1e-20
1e-20
1e-20
1e-20
1e-20
1e-20
1e-20
1e-20
1e-20
1e-20
1e-20
1e-20
1e-20
1e-20
1e-20
1e-20
1e-20
1e-20
1e-20
1e-20
1e-20
1e-20
1e-20
1e-20
1e-20
1e-20
1e-20
1e-20
1e-20
1e-20
)
;

boundaryField
{
    inandouthalf11
    {
        type            cyclic;
    }
    inandouthalf12
    {
        type            cyclic;
    }
    inandouthalf21
    {
        type            cyclic;
    }
    inandouthalf22
    {
        type            cyclic;
    }
    inandouthalf31
    {
        type            cyclic;
    }
    inandouthalf32
    {
        type            cyclic;
    }
    inandouthalf41
    {
        type            cyclic;
    }
    inandouthalf42
    {
        type            cyclic;
    }
    top
    {
        type            symmetryPlane;
    }
    walls
    {
        type            zeroGradient;
    }
    frontAndBackPlanes
    {
        type            empty;
    }
}


// ************************************************************************* //
