/*--------------------------------*- C++ -*----------------------------------*\
| =========                 |                                                 |
| \\      /  F ield         | OpenFOAM: The Open Source CFD Toolbox           |
|  \\    /   O peration     | Version:  2.4.x                                 |
|   \\  /    A nd           | Web:      www.OpenFOAM.org                      |
|    \\/     M anipulation  |                                                 |
\*---------------------------------------------------------------------------*/
FoamFile
{
    version     2.0;
    format      ascii;
    class       volScalarField;
    location    "7";
    object      mua;
}
// * * * * * * * * * * * * * * * * * * * * * * * * * * * * * * * * * * * * * //

dimensions      [1 -1 -1 0 0 0 0];

internalField   nonuniform List<scalar> 
360
(
1.39755e+06
971230
1.21221e+06
1.26781e+06
1.20644e+06
1.16911e+06
1.15555e+06
1.14603e+06
1.13477e+06
1.12123e+06
1.10631e+06
1.09133e+06
1.0768e+06
1.06276e+06
1.04891e+06
1.03498e+06
1.02097e+06
1.00705e+06
993228
979477
965998
952555
939179
925933
912814
899881
887102
874338
861758
849443
837294
825323
813706
802150
791027
780255
769830
759568
749618
740196
730799
721750
713013
704123
695300
686410
677483
668582
659101
649099
639089
628842
618513
608288
598440
588976
580391
572660
566133
560842
556543
553662
552182
552398
554372
558029
563045
569137
575887
582426
587517
590566
591035
587788
580372
568563
552506
532138
507604
479429
448360
415221
381116
347293
314944
285137
258719
236317
218319
204977
196535
193326
195914
205273
223012
251695
295343
360207
455981
597710
808788
1.12563e+06
1.60491e+06
2.33474e+06
3.45152e+06
5.16531e+06
7.79697e+06
1.18319e+07
1.79957e+07
2.73592e+07
4.14792e+07
6.25836e+07
9.38072e+07
1.39485e+08
2.05501e+08
2.99697e+08
4.32328e+08
6.16544e+08
8.68896e+08
1.20982e+09
1.66411e+09
2.26132e+09
3.03613e+09
4.02853e+09
5.28369e+09
6.85124e+09
8.78431e+09
1.11398e+10
1.39826e+10
1.73972e+10
2.15024e+10
2.64539e+10
3.24165e+10
3.95211e+10
4.78575e+10
5.74446e+10
6.78606e+10
7.7477e+10
8.35763e+10
8.52473e+10
8.66332e+10
9.49842e+10
1.18688e+11
1.87383e+11
4.28999e+11
1.10934e+12
3948.64
850.506
234.337
0.00861842
0.00273452
0.00295819
0.00332589
0.00361696
0.0038462
0.00403118
0.00418396
0.0043125
0.00442213
0.00451664
0.00459876
0.00467054
0.00473355
0.00478901
0.0048379
0.00488099
0.00491893
0.00495224
0.00498135
0.00500664
0.00502843
0.00504697
0.00506251
0.00507524
0.00508535
0.00509298
0.0050983
0.00510141
0.00510244
0.0051015
0.00509867
0.00509405
0.00508773
0.00507978
0.00507027
0.00505927
0.00504686
0.00503308
0.005018
0.00500168
0.00498417
0.00496552
0.00494578
0.00492499
0.00490322
0.00488049
0.00485685
0.00483234
0.004807
0.00478087
0.00475398
0.00472609
0.0046969
0.00466638
0.00463451
0.00460126
0.00456658
0.00453043
0.00449276
0.00445351
0.00441262
0.00436999
0.00432554
0.00427917
0.00423074
0.00418011
0.00412712
0.00407157
0.00401325
0.0039519
0.00388723
0.00381889
0.00374647
0.0036695
0.00358739
0.00349944
0.00340478
0.00330231
0.00319061
0.00306777
0.0029312
0.00277712
0.00259974
0.00238934
0.00212722
0.00176744
0
0
0
0
0
0
0
0
0
0
0
0
0
0
0
0
0
0
0
0
0
0
0
0
0
0
0
0
0
0
0
0
0
0
0
0
0
0
0
0
0
0
0
0
0
0
0
0
0
0
0
0
0
0
0
0
0
0
0
0
0
0
0
0
0
0
0
0
0
0
0
0
0
0
0
0
0
0
0
0
0
0
0
0
0
0
0
0
0
0
0
0
0
0
0
0
0
0
0
0
0
0
0
0
0
0
0
0
0
0
0
0
0
0
0
0
0
0
0
0
0
0
0
0
)
;

boundaryField
{
    inandouthalf11
    {
        type            cyclic;
    }
    inandouthalf12
    {
        type            cyclic;
    }
    inandouthalf21
    {
        type            cyclic;
    }
    inandouthalf22
    {
        type            cyclic;
    }
    inandouthalf31
    {
        type            cyclic;
    }
    inandouthalf32
    {
        type            cyclic;
    }
    inandouthalf41
    {
        type            cyclic;
    }
    inandouthalf42
    {
        type            cyclic;
    }
    top
    {
        type            symmetryPlane;
    }
    walls
    {
        type            calculated;
        value           uniform 1e+30;
    }
    frontAndBackPlanes
    {
        type            empty;
    }
}


// ************************************************************************* //
