/*--------------------------------*- C++ -*----------------------------------*\
| =========                 |                                                 |
| \\      /  F ield         | OpenFOAM: The Open Source CFD Toolbox           |
|  \\    /   O peration     | Version:  2.4.x                                 |
|   \\  /    A nd           | Web:      www.OpenFOAM.org                      |
|    \\/     M anipulation  |                                                 |
\*---------------------------------------------------------------------------*/
FoamFile
{
    version     2.0;
    format      ascii;
    class       volScalarField;
    location    "7";
    object      nutb;
}
// * * * * * * * * * * * * * * * * * * * * * * * * * * * * * * * * * * * * * //

dimensions      [0 2 -1 0 0 0 0];

internalField   nonuniform List<scalar> 
360
(
9e-22
9e-22
9e-22
9e-22
9e-22
9e-22
9e-22
9e-22
9e-22
9e-22
9e-22
9e-22
9e-22
9e-22
9e-22
9e-22
9e-22
9e-22
9e-22
9e-22
9e-22
9e-22
9e-22
9e-22
9e-22
9e-22
9e-22
9e-22
9e-22
9e-22
9e-22
9e-22
9e-22
9e-22
9e-22
9e-22
9e-22
9e-22
9e-22
9e-22
9e-22
9e-22
9e-22
9e-22
9e-22
9e-22
9e-22
9e-22
9e-22
9e-22
9e-22
9e-22
9e-22
9e-22
9e-22
9e-22
9e-22
9e-22
9e-22
9e-22
9e-22
9e-22
9e-22
9e-22
9e-22
9e-22
9e-22
9e-22
9e-22
9e-22
9e-22
9e-22
9e-22
9e-22
9e-22
9e-22
9e-22
9e-22
9e-22
9e-22
9e-22
9e-22
9e-22
9e-22
9e-22
9e-22
9e-22
9e-22
9e-22
9e-22
9e-22
9e-22
9e-22
9e-22
9e-22
9e-22
9e-22
9e-22
9e-22
9e-22
9e-22
9e-22
9e-22
9e-22
9e-22
9e-22
9e-22
9e-22
9e-22
9e-22
9e-22
9e-22
9e-22
9e-22
9e-22
9e-22
9e-22
9e-22
9e-22
9e-22
9e-22
9e-22
9e-22
9e-22
9e-22
9e-22
9e-22
9e-22
9e-22
9e-22
9e-22
9e-22
8.5508e-22
2.15991e-21
8.30175e-21
3.3349e-20
1.38092e-19
6.00886e-19
2.82658e-18
1.46691e-17
8.40056e-17
5.26358e-16
3.6447e-15
2.85549e-14
2.59879e-13
2.8583e-12
3.96693e-11
6.60155e-10
1.33236e-08
3.83295e-07
4.72411e-06
1.5386e-05
2.6867e-05
3.80767e-05
4.88196e-05
5.9082e-05
6.88891e-05
7.8271e-05
8.72546e-05
9.58624e-05
0.000104113
0.000112024
0.000119607
0.000126877
0.000133843
0.000140516
0.000146905
0.000153019
0.000158867
0.000164455
0.000169792
0.000174884
0.000179738
0.000184361
0.000188758
0.000192935
0.000196898
0.000200652
0.000204202
0.000207553
0.00021071
0.000213676
0.000216457
0.000219056
0.000221477
0.000223724
0.0002258
0.00022771
0.000229455
0.00023104
0.000232468
0.000233741
0.000234863
0.000235836
0.000236663
0.000237347
0.00023789
0.000238296
0.000238566
0.000238703
0.000238709
0.000238587
0.00023833
0.000237933
0.000237391
0.000236696
0.000235845
0.00023483
0.000233647
0.000232289
0.000230751
0.000229026
0.000227109
0.000224995
0.000222678
0.000220153
0.000217415
0.00021446
0.000211284
0.000207883
0.000204255
0.000200399
0.000196315
0.000192002
0.000187465
0.000182708
0.000177738
0.000172565
0.000167202
0.000161665
0.000155977
0.000150162
0.000144251
0.000138282
0.000132297
0.000126342
0.000120471
0.000114734
0.000109185
0.000103865
9.88017e-05
9.4002e-05
8.9444e-05
8.50774e-05
8.08283e-05
7.66111e-05
7.2343e-05
6.79581e-05
6.34132e-05
5.86872e-05
5.3773e-05
4.86675e-05
4.33645e-05
3.78506e-05
3.21056e-05
2.61061e-05
1.98313e-05
1.32667e-05
6.31149e-06
1.06538e-06
4.10204e-08
8.90926e-10
1.77489e-11
3.32366e-13
5.85509e-15
9.70547e-17
1.4922e-18
1.2622e-20
9e-22
9e-22
9e-22
9e-22
9e-22
9e-22
9e-22
9e-22
9e-22
9e-22
9e-22
9e-22
9e-22
9e-22
9e-22
9e-22
9e-22
9e-22
9e-22
9e-22
9e-22
9e-22
9e-22
9e-22
9e-22
9e-22
9e-22
9e-22
9e-22
9e-22
9e-22
9e-22
9e-22
9e-22
9e-22
9e-22
9e-22
9e-22
9e-22
9e-22
9e-22
9e-22
9e-22
9e-22
9e-22
9e-22
9e-22
9e-22
9e-22
9e-22
9e-22
9e-22
9e-22
9e-22
9e-22
9e-22
9e-22
9e-22
9e-22
9e-22
9e-22
9e-22
9e-22
9e-22
9e-22
9e-22
9e-22
9e-22
9e-22
9e-22
9e-22
9e-22
9e-22
9e-22
9e-22
9e-22
9e-22
9e-22
9e-22
9e-22
9e-22
9e-22
9e-22
9e-22
9e-22
9e-22
9e-22
9e-22
9e-22
9e-22
9e-22
9e-22
)
;

boundaryField
{
    inandouthalf11
    {
        type            cyclic;
    }
    inandouthalf12
    {
        type            cyclic;
    }
    inandouthalf21
    {
        type            cyclic;
    }
    inandouthalf22
    {
        type            cyclic;
    }
    inandouthalf31
    {
        type            cyclic;
    }
    inandouthalf32
    {
        type            cyclic;
    }
    inandouthalf41
    {
        type            cyclic;
    }
    inandouthalf42
    {
        type            cyclic;
    }
    top
    {
        type            symmetryPlane;
    }
    walls
    {
        type            calculated;
        value           uniform 0;
    }
    frontAndBackPlanes
    {
        type            empty;
    }
}


// ************************************************************************* //
