/*--------------------------------*- C++ -*----------------------------------*\
| =========                 |                                                 |
| \\      /  F ield         | OpenFOAM: The Open Source CFD Toolbox           |
|  \\    /   O peration     | Version:  2.4.x                                 |
|   \\  /    A nd           | Web:      www.OpenFOAM.org                      |
|    \\/     M anipulation  |                                                 |
\*---------------------------------------------------------------------------*/
FoamFile
{
    version     2.0;
    format      ascii;
    class       volScalarField;
    location    "7";
    object      p;
}
// * * * * * * * * * * * * * * * * * * * * * * * * * * * * * * * * * * * * * //

dimensions      [1 -1 -2 0 0 0 0];

internalField   nonuniform List<scalar> 
360
(
4892.74
4887.83
4882.93
4878.02
4873.11
4868.21
4863.3
4858.39
4853.48
4848.57
4843.66
4838.75
4833.84
4828.93
4824.01
4819.1
4814.19
4809.27
4804.36
4799.44
4794.53
4789.61
4784.69
4779.78
4774.86
4769.94
4765.02
4760.1
4755.18
4750.26
4745.34
4740.41
4735.49
4730.57
4725.64
4720.72
4715.79
4710.87
4705.94
4701.01
4696.09
4691.16
4686.23
4681.3
4676.37
4671.44
4666.5
4661.57
4656.64
4651.71
4646.77
4641.84
4636.9
4631.96
4627.03
4622.09
4617.15
4612.21
4607.27
4602.33
4597.39
4592.45
4587.51
4582.56
4577.62
4572.68
4567.73
4562.79
4557.84
4552.89
4547.95
4543
4538.05
4533.1
4528.15
4523.2
4518.25
4513.3
4508.35
4503.4
4498.44
4493.49
4488.54
4483.58
4478.63
4473.67
4468.71
4463.75
4458.79
4453.83
4448.87
4443.91
4438.95
4433.98
4429.02
4424.05
4419.08
4414.11
4409.14
4404.17
4399.2
4394.23
4389.26
4384.29
4379.32
4374.35
4369.38
4364.41
4359.44
4354.47
4349.5
4344.53
4339.56
4334.59
4329.62
4324.65
4319.68
4314.71
4309.74
4304.77
4299.81
4294.84
4289.87
4284.9
4279.93
4274.96
4269.99
4265.02
4260.05
4255.09
4250.12
4245.15
4240.18
4235.21
4230.25
4225.28
4220.31
4215.34
4210.38
4205.41
4200.44
4195.48
4190.51
4185.54
4180.58
4175.61
4170.65
4165.69
4160.68
4155.77
4148.4
4142.23
4136.4
4130.91
4125.55
4120.28
4115.08
4109.93
4104.81
4099.73
4094.67
4089.63
4084.61
4079.61
4074.62
4069.64
4064.67
4059.71
4054.76
4049.82
4044.88
4039.95
4035.03
4030.11
4025.2
4020.29
4015.38
4010.48
4005.58
4000.69
3995.8
3990.91
3986.03
3981.14
3976.26
3971.39
3966.51
3961.64
3956.77
3951.9
3947.03
3942.16
3937.3
3932.43
3927.57
3922.71
3917.85
3912.99
3908.14
3903.28
3898.43
3893.52
3888.52
3883.42
3878.21
3872.9
3867.48
3861.95
3856.32
3850.56
3844.7
3838.71
3832.6
3826.37
3820.01
3813.52
3806.9
3800.15
3793.26
3786.23
3779.06
3771.74
3764.28
3756.66
3748.88
3740.95
3732.85
3724.59
3716.16
3707.55
3698.77
3689.81
3680.66
3671.32
3661.79
3652.05
3642.12
3631.98
3621.62
3611.05
3600.26
3589.24
3577.99
3566.51
3554.79
3542.83
3530.61
3518.15
3505.43
3492.45
3479.21
3465.69
3451.9
3437.83
3423.48
3408.83
3393.88
3378.63
3363.07
3347.19
3330.97
3314.43
3297.55
3280.33
3262.76
3244.83
3226.54
3207.87
3188.83
3169.4
3149.58
3129.35
3108.72
3087.66
3066.18
3044.26
3021.9
2999.08
2975.8
2952.05
2927.81
2903.09
2877.86
2852.12
2825.86
2799.06
2771.72
2743.82
2715.36
2686.32
2656.7
2626.47
2595.62
2564.15
2532.05
2499.29
2465.86
2431.76
2396.96
2361.46
2325.24
2288.28
2250.57
2212.1
2172.85
2132.8
2091.93
2050.24
2007.7
1964.3
1922.76
1883.52
1844.28
1805.04
1765.8
1726.56
1687.32
1648.08
1608.84
1569.6
1530.36
1491.12
1451.88
1412.64
1373.4
1334.16
1294.92
1255.68
1216.44
1177.2
1137.96
1098.72
1059.48
1020.24
981
941.76
902.52
863.28
824.04
784.8
745.56
706.32
667.08
627.84
588.6
549.36
510.12
470.88
431.64
392.4
353.16
313.92
274.68
235.44
196.2
156.96
117.72
78.48
39.24
-2.38505e-07
)
;

boundaryField
{
    inandouthalf11
    {
        type            cyclic;
    }
    inandouthalf12
    {
        type            cyclic;
    }
    inandouthalf21
    {
        type            cyclic;
    }
    inandouthalf22
    {
        type            cyclic;
    }
    inandouthalf31
    {
        type            cyclic;
    }
    inandouthalf32
    {
        type            cyclic;
    }
    inandouthalf41
    {
        type            cyclic;
    }
    inandouthalf42
    {
        type            cyclic;
    }
    top
    {
        type            symmetryPlane;
    }
    walls
    {
        type            slip;
    }
    frontAndBackPlanes
    {
        type            empty;
    }
}


// ************************************************************************* //
