/*--------------------------------*- C++ -*----------------------------------*\
| =========                 |                                                 |
| \\      /  F ield         | OpenFOAM: The Open Source CFD Toolbox           |
|  \\    /   O peration     | Version:  2.4.x                                 |
|   \\  /    A nd           | Web:      www.OpenFOAM.org                      |
|    \\/     M anipulation  |                                                 |
\*---------------------------------------------------------------------------*/
FoamFile
{
    version     2.0;
    format      ascii;
    class       volScalarField;
    location    "7";
    object      pa;
}
// * * * * * * * * * * * * * * * * * * * * * * * * * * * * * * * * * * * * * //

dimensions      [1 -1 -2 0 0 0 0];

internalField   nonuniform List<scalar> 
360
(
2.90101e-16
2.9261e-16
2.92831e-16
2.92569e-16
2.92446e-16
2.92405e-16
2.92355e-16
2.92291e-16
2.92225e-16
2.92159e-16
2.92093e-16
2.92027e-16
2.9196e-16
2.91893e-16
2.91825e-16
2.91757e-16
2.91688e-16
2.91618e-16
2.91548e-16
2.91477e-16
2.91406e-16
2.91334e-16
2.91261e-16
2.91188e-16
2.91114e-16
2.91039e-16
2.90964e-16
2.90888e-16
2.90811e-16
2.90734e-16
2.90656e-16
2.90576e-16
2.90497e-16
2.90416e-16
2.90334e-16
2.90252e-16
2.90169e-16
2.90084e-16
2.89998e-16
2.89913e-16
2.89825e-16
2.89736e-16
2.89648e-16
2.89556e-16
2.89466e-16
2.89374e-16
2.8928e-16
2.89187e-16
2.89093e-16
2.88997e-16
2.88902e-16
2.88805e-16
2.88708e-16
2.88609e-16
2.88509e-16
2.88407e-16
2.88304e-16
2.88198e-16
2.8809e-16
2.87981e-16
2.87866e-16
2.87751e-16
2.87632e-16
2.8751e-16
2.87386e-16
2.87259e-16
2.87129e-16
2.86998e-16
2.86865e-16
2.86733e-16
2.86599e-16
2.86466e-16
2.86334e-16
2.86202e-16
2.86071e-16
2.85941e-16
2.85813e-16
2.85687e-16
2.85563e-16
2.85444e-16
2.85329e-16
2.85221e-16
2.85122e-16
2.85033e-16
2.84956e-16
2.84892e-16
2.84837e-16
2.84787e-16
2.8473e-16
2.84649e-16
2.84528e-16
2.84349e-16
2.84105e-16
2.83802e-16
2.83457e-16
2.83097e-16
2.82747e-16
2.82424e-16
2.82134e-16
2.81873e-16
2.81635e-16
2.8141e-16
2.8119e-16
2.80972e-16
2.80751e-16
2.80527e-16
2.80298e-16
2.80064e-16
2.79824e-16
2.79578e-16
2.79326e-16
2.79067e-16
2.78801e-16
2.78528e-16
2.78247e-16
2.77958e-16
2.77662e-16
2.77356e-16
2.77042e-16
2.76719e-16
2.76385e-16
2.76042e-16
2.75688e-16
2.75322e-16
2.74945e-16
2.74556e-16
2.74154e-16
2.73737e-16
2.73305e-16
2.72856e-16
2.7239e-16
2.71907e-16
2.71393e-16
8.21092e-16
3.46109e-15
1.53545e-14
7.12846e-14
3.53099e-13
1.91172e-12
1.14952e-11
7.6886e-11
5.7077e-10
4.75502e-09
4.5448e-08
5.11477e-07
6.99113e-06
0.000121031
0.00332828
0.107013
0.877679
0.460656
0.296317
0.209059
0.157927
0.125468
0.102739
0.0858493
0.0728114
0.0624584
0.0540577
0.0471254
0.0413275
0.0364247
0.0322403
0.0286411
0.0255243
0.0228095
0.0204329
0.0183432
0.0164987
0.0148653
0.0134144
0.0121225
0.0109694
0.00993822
0.00901431
0.00818515
0.00743989
0.00676906
0.00616441
0.0056187
0.00512556
0.00467937
0.00427518
0.00390859
0.00357572
0.00327314
0.00299776
0.00274688
0.00251806
0.00230915
0.00211821
0.0019435
0.00178348
0.00163675
0.00150205
0.00137824
0.0012643
0.00115933
0.00106252
0.00097317
0.000889795
0.000811281
0.000737401
0.000667935
0.000602585
0.000541063
0.000483176
0.000428784
0.000377825
0.000330322
0.000286309
0.00024594
0.000209354
0.000176547
0.000147521
0.00012221
0.000100424
8.18861e-05
6.62907e-05
5.33332e-05
4.26334e-05
3.38516e-05
2.67066e-05
2.09243e-05
1.6262e-05
1.25346e-05
9.56027e-06
7.22044e-06
5.36166e-06
3.93352e-06
2.79714e-06
1.96498e-06
1.27034e-06
8.22882e-07
4.15115e-07
0
0
0
0
0
0
0
0
0
0
0
0
0
0
0
0
0
0
0
0
0
0
0
0
0
0
0
0
0
0
0
0
0
0
0
0
0
0
0
0
0
0
0
0
0
0
0
0
0
0
0
0
0
0
0
0
0
0
0
0
0
0
0
0
0
0
0
0
0
0
0
0
0
0
0
0
0
0
0
0
0
0
0
0
0
0
0
0
0
0
0
0
0
0
0
0
0
0
0
0
0
0
0
0
0
0
0
0
0
0
0
0
0
0
0
0
0
0
0
0
0
0
0
0
)
;

boundaryField
{
    inandouthalf11
    {
        type            cyclic;
    }
    inandouthalf12
    {
        type            cyclic;
    }
    inandouthalf21
    {
        type            cyclic;
    }
    inandouthalf22
    {
        type            cyclic;
    }
    inandouthalf31
    {
        type            cyclic;
    }
    inandouthalf32
    {
        type            cyclic;
    }
    inandouthalf41
    {
        type            cyclic;
    }
    inandouthalf42
    {
        type            cyclic;
    }
    top
    {
        type            symmetryPlane;
    }
    walls
    {
        type            calculated;
        value           uniform 2.90101e-16;
    }
    frontAndBackPlanes
    {
        type            empty;
    }
}


// ************************************************************************* //
