/*--------------------------------*- C++ -*----------------------------------*\
| =========                 |                                                 |
| \\      /  F ield         | OpenFOAM: The Open Source CFD Toolbox           |
|  \\    /   O peration     | Version:  2.4.x                                 |
|   \\  /    A nd           | Web:      www.OpenFOAM.org                      |
|    \\/     M anipulation  |                                                 |
\*---------------------------------------------------------------------------*/
FoamFile
{
    version     2.0;
    format      ascii;
    class       surfaceScalarField;
    location    "7";
    object      phia;
}
// * * * * * * * * * * * * * * * * * * * * * * * * * * * * * * * * * * * * * //

dimensions      [0 3 -1 0 0 0 0];

internalField   nonuniform List<scalar> 
359
(
-2.5375e-13
-6.47583e-13
-1.00415e-12
-1.33822e-12
-1.67827e-12
-2.02597e-12
-2.37645e-12
-2.72785e-12
-3.08027e-12
-3.43451e-12
-3.79109e-12
-4.15004e-12
-4.51134e-12
-4.87485e-12
-5.24058e-12
-5.60859e-12
-5.97898e-12
-6.35177e-12
-6.72697e-12
-7.10467e-12
-7.48475e-12
-7.86733e-12
-8.25241e-12
-8.64002e-12
-9.03015e-12
-9.42283e-12
-9.81801e-12
-1.02158e-11
-1.06161e-11
-1.1019e-11
-1.14244e-11
-1.18323e-11
-1.22425e-11
-1.26552e-11
-1.30701e-11
-1.34871e-11
-1.39061e-11
-1.43271e-11
-1.47499e-11
-1.51742e-11
-1.56002e-11
-1.60275e-11
-1.64561e-11
-1.68862e-11
-1.73175e-11
-1.77503e-11
-1.81846e-11
-1.86204e-11
-1.90581e-11
-1.94982e-11
-1.99406e-11
-2.03858e-11
-2.08336e-11
-2.12844e-11
-2.17376e-11
-2.21933e-11
-2.26507e-11
-2.31092e-11
-2.35679e-11
-2.40257e-11
-2.4482e-11
-2.49353e-11
-2.53846e-11
-2.58284e-11
-2.62654e-11
-2.66943e-11
-2.71143e-11
-2.75247e-11
-2.79252e-11
-2.83162e-11
-2.86989e-11
-2.90747e-11
-2.94451e-11
-2.98127e-11
-3.01798e-11
-3.05494e-11
-3.09244e-11
-3.13081e-11
-3.17045e-11
-3.21179e-11
-3.25533e-11
-3.30162e-11
-3.35125e-11
-3.40484e-11
-3.46297e-11
-3.5261e-11
-3.59449e-11
-3.66807e-11
-3.74631e-11
-3.82817e-11
-3.91199e-11
-3.99563e-11
-4.07663e-11
-4.15248e-11
-4.22095e-11
-4.28043e-11
-4.3301e-11
-4.37001e-11
-4.40088e-11
-4.42393e-11
-4.44059e-11
-4.45229e-11
-4.46031e-11
-4.46569e-11
-4.46924e-11
-4.47156e-11
-4.47305e-11
-4.47401e-11
-4.47462e-11
-4.47501e-11
-4.47526e-11
-4.47542e-11
-4.47552e-11
-4.47559e-11
-4.47564e-11
-4.47567e-11
-4.47569e-11
-4.4757e-11
-4.47571e-11
-4.47571e-11
-4.47572e-11
-4.47572e-11
-4.47572e-11
-4.47573e-11
-4.47573e-11
-4.47573e-11
-4.47573e-11
-4.47573e-11
-4.47573e-11
-4.47573e-11
-4.47573e-11
-4.47573e-11
-4.47573e-11
-4.47573e-11
-4.47573e-11
-4.47573e-11
-4.47573e-11
-4.47573e-11
-4.47573e-11
-4.47573e-11
-4.47573e-11
-4.47573e-11
-4.47573e-11
-4.47573e-11
-4.47573e-11
-4.47573e-11
-4.65522e-11
-5.2967e-11
-6.65193e-11
-7.76633e-09
-1.71071e-08
-2.33285e-08
-2.8115e-08
-3.14968e-08
-3.35547e-08
-3.48203e-08
-3.55843e-08
-3.60185e-08
-3.62339e-08
-3.63026e-08
-3.62707e-08
-3.61688e-08
-3.60171e-08
-3.58296e-08
-3.5616e-08
-3.53832e-08
-3.51362e-08
-3.48784e-08
-3.4612e-08
-3.43381e-08
-3.40573e-08
-3.37691e-08
-3.34729e-08
-3.31671e-08
-3.28502e-08
-3.25203e-08
-3.21756e-08
-3.18141e-08
-3.14341e-08
-3.1034e-08
-3.06125e-08
-3.01684e-08
-2.97012e-08
-2.92102e-08
-2.86952e-08
-2.81565e-08
-2.75943e-08
-2.70092e-08
-2.64018e-08
-2.57731e-08
-2.51242e-08
-2.44562e-08
-2.37703e-08
-2.30679e-08
-2.23506e-08
-2.16199e-08
-2.08777e-08
-2.01258e-08
-1.93663e-08
-1.86014e-08
-1.78332e-08
-1.70482e-08
-1.62485e-08
-1.54363e-08
-1.46145e-08
-1.37865e-08
-1.2957e-08
-1.21313e-08
-1.13157e-08
-1.05167e-08
-9.74098e-09
-8.99531e-09
-8.28534e-09
-7.61506e-09
-6.9878e-09
-6.40519e-09
-5.86714e-09
-5.37239e-09
-4.91897e-09
-4.50455e-09
-4.12555e-09
-3.77922e-09
-3.46341e-09
-3.17569e-09
-2.91429e-09
-2.6789e-09
-2.46825e-09
-2.28467e-09
-2.1258e-09
-2.00092e-09
-1.90249e-09
-1.85934e-09
-1.83722e-09
-1.94571e-09
-2.00489e-09
-2.73205e-09
6.87548e-10
2.37691e-09
5.94161e-09
6.42205e-09
1.21439e-08
-2.61596e-08
-1.32865e-07
-1.5829e-07
-1.58263e-07
-1.58241e-07
-1.58225e-07
-1.58213e-07
-1.58204e-07
-1.58198e-07
-1.58194e-07
-1.58192e-07
-1.58191e-07
-1.58189e-07
-1.58187e-07
-1.58182e-07
-1.58174e-07
-1.58159e-07
-1.5812e-07
-1.58088e-07
-1.58084e-07
-1.58084e-07
-1.58084e-07
-1.58084e-07
-1.58084e-07
-1.58084e-07
-1.58084e-07
-1.58084e-07
-1.58084e-07
-1.58084e-07
-1.58084e-07
-1.58084e-07
-1.58084e-07
-1.58084e-07
-1.58084e-07
-1.58084e-07
-1.58084e-07
-1.58084e-07
-1.58084e-07
-1.58084e-07
-1.58084e-07
-1.58084e-07
-1.58084e-07
-1.58084e-07
-1.58084e-07
-1.58084e-07
-1.58084e-07
-1.58084e-07
-1.58084e-07
-1.58084e-07
-1.58084e-07
-1.58084e-07
-1.58084e-07
-1.58084e-07
-1.58084e-07
-1.58084e-07
-1.58084e-07
-1.58084e-07
-1.58084e-07
-1.58084e-07
-1.58084e-07
-1.58084e-07
-1.58084e-07
-1.58084e-07
-1.58084e-07
-1.58084e-07
-1.58084e-07
-1.58084e-07
-1.58084e-07
-1.58084e-07
-1.58084e-07
-1.58084e-07
-1.58084e-07
-1.58084e-07
-1.58084e-07
-1.58084e-07
-1.58084e-07
-1.58084e-07
-1.58084e-07
-1.58084e-07
-1.58084e-07
-1.58084e-07
-1.58084e-07
-1.58084e-07
-1.58084e-07
-1.58084e-07
-1.58084e-07
-1.58084e-07
-1.58084e-07
-1.58084e-07
-1.58084e-07
-1.58084e-07
-1.58084e-07
-1.58084e-07
-1.58084e-07
-1.58084e-07
-1.58084e-07
-1.58084e-07
-1.58084e-07
-1.58084e-07
-1.58084e-07
-1.58084e-07
-1.58084e-07
-1.58084e-07
-1.58084e-07
-1.58084e-07
-1.58084e-07
-1.58084e-07
-1.58084e-07
-1.58084e-07
-1.58084e-07
-1.58084e-07
-1.58084e-07
-1.58084e-07
-1.58084e-07
-1.58084e-07
-1.58066e-07
-1.57359e-07
-1.32232e-07
)
;

boundaryField
{
    inandouthalf11
    {
        type            cyclic;
        value           nonuniform List<scalar> 
100
(
3.93471e-39
6.80968e-15
1.43775e-14
2.11952e-14
2.81817e-14
3.56152e-14
4.33696e-14
5.13591e-14
5.95778e-14
6.80425e-14
7.67707e-14
8.57728e-14
9.50524e-14
1.04611e-13
1.14449e-13
1.24574e-13
1.3499e-13
1.45703e-13
1.56718e-13
1.68041e-13
1.79676e-13
1.91628e-13
2.03903e-13
2.16506e-13
2.29444e-13
2.42721e-13
2.56343e-13
2.70316e-13
2.84647e-13
2.9934e-13
3.144e-13
3.29833e-13
3.45642e-13
3.61832e-13
3.78407e-13
3.95367e-13
4.12714e-13
4.30449e-13
4.48576e-13
4.67094e-13
4.86001e-13
5.05303e-13
5.24997e-13
5.45088e-13
5.65587e-13
5.865e-13
6.07839e-13
6.29612e-13
6.51838e-13
6.74547e-13
6.9776e-13
7.21496e-13
7.45777e-13
7.70618e-13
7.96026e-13
8.22002e-13
8.48533e-13
8.75594e-13
9.03147e-13
9.31142e-13
9.59529e-13
9.88248e-13
1.01723e-12
1.04638e-12
1.07562e-12
1.10484e-12
1.13397e-12
1.16293e-12
1.19169e-12
1.22023e-12
1.24858e-12
1.27685e-12
1.30512e-12
1.33355e-12
1.36233e-12
1.39168e-12
1.42185e-12
1.45312e-12
1.48583e-12
1.5204e-12
1.55727e-12
1.597e-12
1.6402e-12
1.68758e-12
1.73984e-12
1.79769e-12
1.8617e-12
1.93224e-12
2.00926e-12
2.09223e-12
2.17994e-12
2.27051e-12
2.36145e-12
2.44989e-12
2.53291e-12
2.60795e-12
2.67319e-12
2.7277e-12
2.77153e-12
2.80551e-12
)
;
    }
    inandouthalf12
    {
        type            cyclic;
        value           nonuniform List<scalar> 
100
(
-3.93471e-39
-6.80968e-15
-1.43775e-14
-2.11952e-14
-2.81817e-14
-3.56152e-14
-4.33696e-14
-5.13591e-14
-5.95778e-14
-6.80425e-14
-7.67707e-14
-8.57728e-14
-9.50524e-14
-1.04611e-13
-1.14449e-13
-1.24574e-13
-1.3499e-13
-1.45703e-13
-1.56718e-13
-1.68041e-13
-1.79676e-13
-1.91628e-13
-2.03903e-13
-2.16506e-13
-2.29444e-13
-2.42721e-13
-2.56343e-13
-2.70316e-13
-2.84647e-13
-2.9934e-13
-3.144e-13
-3.29833e-13
-3.45642e-13
-3.61832e-13
-3.78407e-13
-3.95367e-13
-4.12714e-13
-4.30449e-13
-4.48576e-13
-4.67094e-13
-4.86001e-13
-5.05303e-13
-5.24997e-13
-5.45088e-13
-5.65587e-13
-5.865e-13
-6.07839e-13
-6.29612e-13
-6.51838e-13
-6.74547e-13
-6.9776e-13
-7.21496e-13
-7.45777e-13
-7.70618e-13
-7.96026e-13
-8.22002e-13
-8.48533e-13
-8.75594e-13
-9.03147e-13
-9.31142e-13
-9.59529e-13
-9.88248e-13
-1.01723e-12
-1.04638e-12
-1.07562e-12
-1.10484e-12
-1.13397e-12
-1.16293e-12
-1.19169e-12
-1.22023e-12
-1.24858e-12
-1.27685e-12
-1.30512e-12
-1.33355e-12
-1.36233e-12
-1.39168e-12
-1.42185e-12
-1.45312e-12
-1.48583e-12
-1.5204e-12
-1.55727e-12
-1.597e-12
-1.6402e-12
-1.68758e-12
-1.73984e-12
-1.79769e-12
-1.8617e-12
-1.93224e-12
-2.00926e-12
-2.09223e-12
-2.17994e-12
-2.27051e-12
-2.36145e-12
-2.44989e-12
-2.53291e-12
-2.60795e-12
-2.67319e-12
-2.7277e-12
-2.77153e-12
-2.80551e-12
)
;
    }
    inandouthalf21
    {
        type            cyclic;
        value           nonuniform List<scalar> 
100
(
2.83098e-12
2.8495e-12
2.86261e-12
2.87169e-12
2.87787e-12
2.88201e-12
2.88476e-12
2.88657e-12
2.88776e-12
2.88853e-12
2.88904e-12
2.88938e-12
2.8896e-12
2.88975e-12
2.88985e-12
2.88992e-12
2.88996e-12
2.89e-12
2.89002e-12
2.89003e-12
2.89005e-12
2.89005e-12
2.89006e-12
2.89006e-12
2.89007e-12
2.89007e-12
2.89007e-12
2.89007e-12
2.89008e-12
2.89008e-12
2.89008e-12
2.89008e-12
2.89008e-12
2.89008e-12
2.89008e-12
2.89008e-12
2.89008e-12
2.89008e-12
2.89008e-12
2.89008e-12
2.89008e-12
2.89008e-12
2.89008e-12
2.89008e-12
2.89008e-12
2.89008e-12
2.89008e-12
2.8128e-12
2.83677e-12
4.81939e-12
3.53975e-08
7.01792e-08
9.29495e-08
1.10352e-07
1.24847e-07
1.37505e-07
1.48879e-07
1.59294e-07
1.68956e-07
1.78006e-07
1.86544e-07
1.94646e-07
2.0237e-07
2.09761e-07
2.16856e-07
2.23684e-07
2.30269e-07
2.36632e-07
2.42789e-07
2.48755e-07
2.54541e-07
2.60158e-07
2.65614e-07
2.70917e-07
2.76074e-07
2.8109e-07
2.8597e-07
2.90719e-07
2.95341e-07
2.99838e-07
3.04214e-07
3.08471e-07
3.12612e-07
3.16639e-07
3.20553e-07
3.24357e-07
3.28051e-07
3.31638e-07
3.35117e-07
3.38491e-07
3.41759e-07
3.44923e-07
3.47983e-07
3.5094e-07
3.53794e-07
3.56545e-07
3.59194e-07
3.61741e-07
3.64186e-07
3.66529e-07
)
;
    }
    inandouthalf22
    {
        type            cyclic;
        value           nonuniform List<scalar> 
100
(
-2.83098e-12
-2.8495e-12
-2.86261e-12
-2.87169e-12
-2.87787e-12
-2.88201e-12
-2.88476e-12
-2.88657e-12
-2.88776e-12
-2.88853e-12
-2.88904e-12
-2.88938e-12
-2.8896e-12
-2.88975e-12
-2.88985e-12
-2.88992e-12
-2.88996e-12
-2.89e-12
-2.89002e-12
-2.89003e-12
-2.89005e-12
-2.89005e-12
-2.89006e-12
-2.89006e-12
-2.89007e-12
-2.89007e-12
-2.89007e-12
-2.89007e-12
-2.89008e-12
-2.89008e-12
-2.89008e-12
-2.89008e-12
-2.89008e-12
-2.89008e-12
-2.89008e-12
-2.89008e-12
-2.89008e-12
-2.89008e-12
-2.89008e-12
-2.89008e-12
-2.89008e-12
-2.89008e-12
-2.89008e-12
-2.89008e-12
-2.89008e-12
-2.89008e-12
-2.89008e-12
-2.8128e-12
-2.83677e-12
-4.81939e-12
-3.53975e-08
-7.01792e-08
-9.29495e-08
-1.10352e-07
-1.24847e-07
-1.37505e-07
-1.48879e-07
-1.59294e-07
-1.68956e-07
-1.78006e-07
-1.86544e-07
-1.94646e-07
-2.0237e-07
-2.09761e-07
-2.16856e-07
-2.23684e-07
-2.30269e-07
-2.36632e-07
-2.42789e-07
-2.48755e-07
-2.54541e-07
-2.60158e-07
-2.65614e-07
-2.70917e-07
-2.76074e-07
-2.8109e-07
-2.8597e-07
-2.90719e-07
-2.95341e-07
-2.99838e-07
-3.04214e-07
-3.08471e-07
-3.12612e-07
-3.16639e-07
-3.20553e-07
-3.24357e-07
-3.28051e-07
-3.31638e-07
-3.35117e-07
-3.38491e-07
-3.41759e-07
-3.44923e-07
-3.47983e-07
-3.5094e-07
-3.53794e-07
-3.56545e-07
-3.59194e-07
-3.61741e-07
-3.64186e-07
-3.66529e-07
)
;
    }
    inandouthalf31
    {
        type            cyclic;
        value           nonuniform List<scalar> 
110
(
3.68771e-07
3.78462e-07
3.88332e-07
3.9838e-07
4.08608e-07
4.19013e-07
4.29597e-07
4.40357e-07
4.51295e-07
4.62411e-07
4.73706e-07
4.85181e-07
4.96839e-07
5.08685e-07
5.20724e-07
5.32962e-07
5.45408e-07
5.58069e-07
5.70955e-07
5.84078e-07
5.97448e-07
6.11076e-07
6.24974e-07
6.39154e-07
6.53626e-07
6.68402e-07
6.83492e-07
6.98904e-07
7.14646e-07
7.30723e-07
7.47137e-07
7.63886e-07
7.80956e-07
7.98343e-07
8.15991e-07
8.33856e-07
8.52373e-07
1.0929e-06
1.11904e-06
1.14476e-06
1.1706e-06
1.19589e-06
1.21947e-06
1.24396e-06
1.26942e-06
1.2948e-06
1.32014e-06
1.34548e-06
1.37086e-06
1.39631e-06
1.42187e-06
1.4476e-06
1.47355e-06
1.4998e-06
1.52644e-06
1.55355e-06
1.58129e-06
1.60981e-06
1.63952e-06
1.67143e-06
1.70516e-06
1.73976e-06
1.77508e-06
1.8111e-06
1.84787e-06
1.88537e-06
1.92364e-06
1.96268e-06
2.00252e-06
2.04317e-06
2.08464e-06
2.12695e-06
2.17012e-06
2.21417e-06
2.25911e-06
2.30497e-06
2.35175e-06
2.39948e-06
2.44819e-06
2.49788e-06
2.54858e-06
2.60031e-06
2.65309e-06
2.70694e-06
2.76188e-06
2.81794e-06
2.87514e-06
2.9335e-06
2.99304e-06
3.05379e-06
3.11577e-06
3.17901e-06
3.24354e-06
3.30938e-06
3.37655e-06
3.44508e-06
3.51501e-06
3.58635e-06
3.65915e-06
3.73342e-06
3.8092e-06
3.88651e-06
3.9654e-06
4.04588e-06
4.12801e-06
4.21179e-06
4.29728e-06
4.3845e-06
4.4735e-06
4.5643e-06
)
;
    }
    inandouthalf32
    {
        type            cyclic;
        value           nonuniform List<scalar> 
110
(
-3.68771e-07
-3.78462e-07
-3.88332e-07
-3.9838e-07
-4.08608e-07
-4.19013e-07
-4.29597e-07
-4.40357e-07
-4.51295e-07
-4.62411e-07
-4.73706e-07
-4.85181e-07
-4.96839e-07
-5.08685e-07
-5.20724e-07
-5.32962e-07
-5.45408e-07
-5.58069e-07
-5.70955e-07
-5.84078e-07
-5.97448e-07
-6.11076e-07
-6.24974e-07
-6.39154e-07
-6.53626e-07
-6.68402e-07
-6.83492e-07
-6.98904e-07
-7.14646e-07
-7.30723e-07
-7.47137e-07
-7.63886e-07
-7.80956e-07
-7.98343e-07
-8.15991e-07
-8.33856e-07
-8.52373e-07
-1.0929e-06
-1.11904e-06
-1.14476e-06
-1.1706e-06
-1.19589e-06
-1.21947e-06
-1.24396e-06
-1.26942e-06
-1.2948e-06
-1.32014e-06
-1.34548e-06
-1.37086e-06
-1.39631e-06
-1.42187e-06
-1.4476e-06
-1.47355e-06
-1.4998e-06
-1.52644e-06
-1.55355e-06
-1.58129e-06
-1.60981e-06
-1.63952e-06
-1.67143e-06
-1.70516e-06
-1.73976e-06
-1.77508e-06
-1.8111e-06
-1.84787e-06
-1.88537e-06
-1.92364e-06
-1.96268e-06
-2.00252e-06
-2.04317e-06
-2.08464e-06
-2.12695e-06
-2.17012e-06
-2.21417e-06
-2.25911e-06
-2.30497e-06
-2.35175e-06
-2.39948e-06
-2.44819e-06
-2.49788e-06
-2.54858e-06
-2.60031e-06
-2.65309e-06
-2.70694e-06
-2.76188e-06
-2.81794e-06
-2.87514e-06
-2.9335e-06
-2.99304e-06
-3.05379e-06
-3.11577e-06
-3.17901e-06
-3.24354e-06
-3.30938e-06
-3.37655e-06
-3.44508e-06
-3.51501e-06
-3.58635e-06
-3.65915e-06
-3.73342e-06
-3.8092e-06
-3.88651e-06
-3.9654e-06
-4.04588e-06
-4.12801e-06
-4.21179e-06
-4.29728e-06
-4.3845e-06
-4.4735e-06
-4.5643e-06
)
;
    }
    inandouthalf41
    {
        type            cyclic;
        value           nonuniform List<scalar> 
50
(
4.08551e-06
4.08551e-06
4.08551e-06
4.08551e-06
4.08551e-06
4.08551e-06
4.08551e-06
4.08551e-06
4.08551e-06
4.08551e-06
4.08551e-06
4.08551e-06
4.08551e-06
4.08551e-06
4.08551e-06
4.08551e-06
4.08551e-06
4.08551e-06
4.08551e-06
4.08551e-06
4.08551e-06
4.08551e-06
4.08551e-06
4.08551e-06
4.08551e-06
4.08551e-06
4.08551e-06
4.08551e-06
4.08551e-06
4.08551e-06
4.08551e-06
4.08551e-06
4.08551e-06
4.08551e-06
4.08551e-06
4.08551e-06
4.08551e-06
4.08551e-06
4.08551e-06
4.08551e-06
4.08551e-06
4.08551e-06
4.08551e-06
4.08551e-06
4.08551e-06
4.08551e-06
4.08551e-06
4.08552e-06
4.08569e-06
4.08971e-06
)
;
    }
    inandouthalf42
    {
        type            cyclic;
        value           nonuniform List<scalar> 
50
(
-4.08551e-06
-4.08551e-06
-4.08551e-06
-4.08551e-06
-4.08551e-06
-4.08551e-06
-4.08551e-06
-4.08551e-06
-4.08551e-06
-4.08551e-06
-4.08551e-06
-4.08551e-06
-4.08551e-06
-4.08551e-06
-4.08551e-06
-4.08551e-06
-4.08551e-06
-4.08551e-06
-4.08551e-06
-4.08551e-06
-4.08551e-06
-4.08551e-06
-4.08551e-06
-4.08551e-06
-4.08551e-06
-4.08551e-06
-4.08551e-06
-4.08551e-06
-4.08551e-06
-4.08551e-06
-4.08551e-06
-4.08551e-06
-4.08551e-06
-4.08551e-06
-4.08551e-06
-4.08551e-06
-4.08551e-06
-4.08551e-06
-4.08551e-06
-4.08551e-06
-4.08551e-06
-4.08551e-06
-4.08551e-06
-4.08551e-06
-4.08551e-06
-4.08551e-06
-4.08551e-06
-4.08552e-06
-4.08569e-06
-4.08971e-06
)
;
    }
    top
    {
        type            symmetryPlane;
        value           uniform 0;
    }
    walls
    {
        type            fixedValue;
        value           uniform 0;
    }
    frontAndBackPlanes
    {
        type            empty;
        value           nonuniform 0();
    }
}


// ************************************************************************* //
