/*--------------------------------*- C++ -*----------------------------------*\
| =========                 |                                                 |
| \\      /  F ield         | OpenFOAM: The Open Source CFD Toolbox           |
|  \\    /   O peration     | Version:  2.4.x                                 |
|   \\  /    A nd           | Web:      www.OpenFOAM.org                      |
|    \\/     M anipulation  |                                                 |
\*---------------------------------------------------------------------------*/
FoamFile
{
    version     2.0;
    format      ascii;
    class       surfaceScalarField;
    location    "7";
    object      phia_0;
}
// * * * * * * * * * * * * * * * * * * * * * * * * * * * * * * * * * * * * * //

dimensions      [0 3 -1 0 0 0 0];

internalField   nonuniform List<scalar> 
359
(
-2.53773e-13
-6.47644e-13
-1.00425e-12
-1.33835e-12
-1.67843e-12
-2.02617e-12
-2.37669e-12
-2.72812e-12
-3.08058e-12
-3.43486e-12
-3.79148e-12
-4.15047e-12
-4.51181e-12
-4.87536e-12
-5.24112e-12
-5.60918e-12
-5.97961e-12
-6.35244e-12
-6.72769e-12
-7.10543e-12
-7.48555e-12
-7.86818e-12
-8.25331e-12
-8.64095e-12
-9.03114e-12
-9.42386e-12
-9.81908e-12
-1.02169e-11
-1.06173e-11
-1.10202e-11
-1.14256e-11
-1.18336e-11
-1.22438e-11
-1.26566e-11
-1.30715e-11
-1.34886e-11
-1.39077e-11
-1.43287e-11
-1.47516e-11
-1.51759e-11
-1.5602e-11
-1.60294e-11
-1.6458e-11
-1.68881e-11
-1.73195e-11
-1.77523e-11
-1.81867e-11
-1.86226e-11
-1.90603e-11
-1.95005e-11
-1.9943e-11
-2.03882e-11
-2.08362e-11
-2.1287e-11
-2.17403e-11
-2.21961e-11
-2.26535e-11
-2.31121e-11
-2.35709e-11
-2.40288e-11
-2.44851e-11
-2.49384e-11
-2.53877e-11
-2.58315e-11
-2.62686e-11
-2.66975e-11
-2.71175e-11
-2.75278e-11
-2.79284e-11
-2.83194e-11
-2.8702e-11
-2.90778e-11
-2.94483e-11
-2.9816e-11
-3.01832e-11
-3.05529e-11
-3.0928e-11
-3.13119e-11
-3.17086e-11
-3.21224e-11
-3.25582e-11
-3.30215e-11
-3.35185e-11
-3.40551e-11
-3.46372e-11
-3.52694e-11
-3.59542e-11
-3.6691e-11
-3.74744e-11
-3.82937e-11
-3.91325e-11
-3.99692e-11
-4.0779e-11
-4.15368e-11
-4.22204e-11
-4.28139e-11
-4.33092e-11
-4.37067e-11
-4.4014e-11
-4.42432e-11
-4.44088e-11
-4.4525e-11
-4.46045e-11
-4.46579e-11
-4.46931e-11
-4.4716e-11
-4.47308e-11
-4.47403e-11
-4.47463e-11
-4.47502e-11
-4.47527e-11
-4.47542e-11
-4.47553e-11
-4.47559e-11
-4.47564e-11
-4.47567e-11
-4.47569e-11
-4.4757e-11
-4.47571e-11
-4.47571e-11
-4.47572e-11
-4.47572e-11
-4.47572e-11
-4.47573e-11
-4.47573e-11
-4.47573e-11
-4.47573e-11
-4.47573e-11
-4.47573e-11
-4.47573e-11
-4.47573e-11
-4.47573e-11
-4.47573e-11
-4.47573e-11
-4.47573e-11
-4.47573e-11
-4.47573e-11
-4.47573e-11
-4.47573e-11
-4.47573e-11
-4.47573e-11
-4.47573e-11
-4.47573e-11
-4.47573e-11
-4.47573e-11
-4.47573e-11
-4.65427e-11
-5.29247e-11
-6.63971e-11
-7.7659e-09
-1.71053e-08
-2.33221e-08
-2.81052e-08
-3.14832e-08
-3.3539e-08
-3.48033e-08
-3.55667e-08
-3.60008e-08
-3.62163e-08
-3.62853e-08
-3.6254e-08
-3.61525e-08
-3.60014e-08
-3.58144e-08
-3.56013e-08
-3.53691e-08
-3.51226e-08
-3.48652e-08
-3.45991e-08
-3.43257e-08
-3.40451e-08
-3.37573e-08
-3.34612e-08
-3.31557e-08
-3.28389e-08
-3.25092e-08
-3.21646e-08
-3.18032e-08
-3.14233e-08
-3.10232e-08
-3.06017e-08
-3.01576e-08
-2.96903e-08
-2.91993e-08
-2.86843e-08
-2.81455e-08
-2.75832e-08
-2.6998e-08
-2.63905e-08
-2.57618e-08
-2.51128e-08
-2.44446e-08
-2.37587e-08
-2.30562e-08
-2.23388e-08
-2.16081e-08
-2.08658e-08
-2.01138e-08
-1.93543e-08
-1.85893e-08
-1.7821e-08
-1.7036e-08
-1.62362e-08
-1.54241e-08
-1.46022e-08
-1.37742e-08
-1.29447e-08
-1.2119e-08
-1.13033e-08
-1.05043e-08
-9.72867e-09
-8.98301e-09
-8.27307e-09
-7.60283e-09
-6.97561e-09
-6.39305e-09
-5.85506e-09
-5.36038e-09
-4.90703e-09
-4.49268e-09
-4.11377e-09
-3.76752e-09
-3.4518e-09
-3.16418e-09
-2.90288e-09
-2.66758e-09
-2.45704e-09
-2.27357e-09
-2.11482e-09
-1.99006e-09
-1.89176e-09
-1.84874e-09
-1.82676e-09
-1.9354e-09
-1.99469e-09
-2.72234e-09
6.92825e-10
2.37919e-09
5.94506e-09
6.40383e-09
1.21332e-08
-2.62217e-08
-1.32898e-07
-1.5829e-07
-1.58263e-07
-1.58241e-07
-1.58225e-07
-1.58213e-07
-1.58204e-07
-1.58198e-07
-1.58194e-07
-1.58192e-07
-1.58191e-07
-1.58189e-07
-1.58187e-07
-1.58182e-07
-1.58174e-07
-1.58159e-07
-1.5812e-07
-1.58088e-07
-1.58084e-07
-1.58084e-07
-1.58084e-07
-1.58084e-07
-1.58084e-07
-1.58084e-07
-1.58084e-07
-1.58084e-07
-1.58084e-07
-1.58084e-07
-1.58084e-07
-1.58084e-07
-1.58084e-07
-1.58084e-07
-1.58084e-07
-1.58084e-07
-1.58084e-07
-1.58084e-07
-1.58084e-07
-1.58084e-07
-1.58084e-07
-1.58084e-07
-1.58084e-07
-1.58084e-07
-1.58084e-07
-1.58084e-07
-1.58084e-07
-1.58084e-07
-1.58084e-07
-1.58084e-07
-1.58084e-07
-1.58084e-07
-1.58084e-07
-1.58084e-07
-1.58084e-07
-1.58084e-07
-1.58084e-07
-1.58084e-07
-1.58084e-07
-1.58084e-07
-1.58084e-07
-1.58084e-07
-1.58084e-07
-1.58084e-07
-1.58084e-07
-1.58084e-07
-1.58084e-07
-1.58084e-07
-1.58084e-07
-1.58084e-07
-1.58084e-07
-1.58084e-07
-1.58084e-07
-1.58084e-07
-1.58084e-07
-1.58084e-07
-1.58084e-07
-1.58084e-07
-1.58084e-07
-1.58084e-07
-1.58084e-07
-1.58084e-07
-1.58084e-07
-1.58084e-07
-1.58084e-07
-1.58084e-07
-1.58084e-07
-1.58084e-07
-1.58084e-07
-1.58084e-07
-1.58084e-07
-1.58084e-07
-1.58084e-07
-1.58084e-07
-1.58084e-07
-1.58084e-07
-1.58084e-07
-1.58084e-07
-1.58084e-07
-1.58084e-07
-1.58084e-07
-1.58084e-07
-1.58084e-07
-1.58084e-07
-1.58084e-07
-1.58084e-07
-1.58084e-07
-1.58084e-07
-1.58084e-07
-1.58084e-07
-1.58084e-07
-1.58084e-07
-1.58084e-07
-1.58084e-07
-1.58084e-07
-1.58084e-07
-1.58066e-07
-1.57359e-07
-1.32232e-07
)
;

boundaryField
{
    inandouthalf11
    {
        type            cyclic;
        value           nonuniform List<scalar> 
100
(
3.93709e-39
6.81435e-15
1.43872e-14
2.12095e-14
2.82004e-14
3.56386e-14
4.33978e-14
5.1392e-14
5.96155e-14
6.80851e-14
7.68182e-14
8.58253e-14
9.51099e-14
1.04673e-13
1.14517e-13
1.24647e-13
1.35068e-13
1.45786e-13
1.56807e-13
1.68135e-13
1.79776e-13
1.91733e-13
2.04014e-13
2.16623e-13
2.29566e-13
2.42849e-13
2.56477e-13
2.70456e-13
2.84792e-13
2.99492e-13
3.14558e-13
3.29997e-13
3.45812e-13
3.62009e-13
3.7859e-13
3.95557e-13
4.1291e-13
4.30652e-13
4.48786e-13
4.6731e-13
4.86225e-13
5.05533e-13
5.25234e-13
5.45333e-13
5.65839e-13
5.8676e-13
6.08106e-13
6.29887e-13
6.52121e-13
6.74838e-13
6.9806e-13
7.21805e-13
7.46095e-13
7.70945e-13
7.96362e-13
8.22347e-13
8.48888e-13
8.75958e-13
9.03521e-13
9.31525e-13
9.5992e-13
9.88647e-13
1.01763e-12
1.0468e-12
1.07604e-12
1.10527e-12
1.1344e-12
1.16337e-12
1.19213e-12
1.22067e-12
1.24903e-12
1.2773e-12
1.30558e-12
1.33402e-12
1.36281e-12
1.39217e-12
1.42235e-12
1.45364e-12
1.48639e-12
1.52098e-12
1.55789e-12
1.59767e-12
1.64093e-12
1.68837e-12
1.74071e-12
1.79865e-12
1.86277e-12
1.93341e-12
2.01055e-12
2.09363e-12
2.18142e-12
2.27205e-12
2.363e-12
2.45141e-12
2.53434e-12
2.60926e-12
2.67433e-12
2.72866e-12
2.77231e-12
2.80612e-12
)
;
    }
    inandouthalf12
    {
        type            cyclic;
        value           nonuniform List<scalar> 
100
(
-3.93709e-39
-6.81435e-15
-1.43872e-14
-2.12095e-14
-2.82004e-14
-3.56386e-14
-4.33978e-14
-5.1392e-14
-5.96155e-14
-6.80851e-14
-7.68182e-14
-8.58253e-14
-9.51099e-14
-1.04673e-13
-1.14517e-13
-1.24647e-13
-1.35068e-13
-1.45786e-13
-1.56807e-13
-1.68135e-13
-1.79776e-13
-1.91733e-13
-2.04014e-13
-2.16623e-13
-2.29566e-13
-2.42849e-13
-2.56477e-13
-2.70456e-13
-2.84792e-13
-2.99492e-13
-3.14558e-13
-3.29997e-13
-3.45812e-13
-3.62009e-13
-3.7859e-13
-3.95557e-13
-4.1291e-13
-4.30652e-13
-4.48786e-13
-4.6731e-13
-4.86225e-13
-5.05533e-13
-5.25234e-13
-5.45333e-13
-5.65839e-13
-5.8676e-13
-6.08106e-13
-6.29887e-13
-6.52121e-13
-6.74838e-13
-6.9806e-13
-7.21805e-13
-7.46095e-13
-7.70945e-13
-7.96362e-13
-8.22347e-13
-8.48888e-13
-8.75958e-13
-9.03521e-13
-9.31525e-13
-9.5992e-13
-9.88647e-13
-1.01763e-12
-1.0468e-12
-1.07604e-12
-1.10527e-12
-1.1344e-12
-1.16337e-12
-1.19213e-12
-1.22067e-12
-1.24903e-12
-1.2773e-12
-1.30558e-12
-1.33402e-12
-1.36281e-12
-1.39217e-12
-1.42235e-12
-1.45364e-12
-1.48639e-12
-1.52098e-12
-1.55789e-12
-1.59767e-12
-1.64093e-12
-1.68837e-12
-1.74071e-12
-1.79865e-12
-1.86277e-12
-1.93341e-12
-2.01055e-12
-2.09363e-12
-2.18142e-12
-2.27205e-12
-2.363e-12
-2.45141e-12
-2.53434e-12
-2.60926e-12
-2.67433e-12
-2.72866e-12
-2.77231e-12
-2.80612e-12
)
;
    }
    inandouthalf21
    {
        type            cyclic;
        value           nonuniform List<scalar> 
100
(
2.83144e-12
2.84984e-12
2.86286e-12
2.87187e-12
2.87799e-12
2.8821e-12
2.88482e-12
2.88661e-12
2.88778e-12
2.88855e-12
2.88906e-12
2.88939e-12
2.88961e-12
2.88976e-12
2.88985e-12
2.88992e-12
2.88997e-12
2.89e-12
2.89002e-12
2.89004e-12
2.89005e-12
2.89005e-12
2.89006e-12
2.89006e-12
2.89007e-12
2.89007e-12
2.89007e-12
2.89007e-12
2.89008e-12
2.89008e-12
2.89008e-12
2.89008e-12
2.89008e-12
2.89008e-12
2.89008e-12
2.89008e-12
2.89008e-12
2.89008e-12
2.89008e-12
2.89008e-12
2.89008e-12
2.89008e-12
2.89008e-12
2.89008e-12
2.89008e-12
2.89008e-12
2.89008e-12
2.81346e-12
2.83833e-12
4.81543e-12
3.54346e-08
7.02411e-08
9.30282e-08
1.10442e-07
1.24947e-07
1.37612e-07
1.48992e-07
1.59412e-07
1.69077e-07
1.7813e-07
1.86671e-07
1.94776e-07
2.02502e-07
2.09896e-07
2.16992e-07
2.23822e-07
2.30409e-07
2.36773e-07
2.42931e-07
2.48898e-07
2.54685e-07
2.60303e-07
2.6576e-07
2.71065e-07
2.76222e-07
2.81239e-07
2.8612e-07
2.9087e-07
2.95492e-07
2.9999e-07
3.04366e-07
3.08624e-07
3.12765e-07
3.16793e-07
3.20708e-07
3.24512e-07
3.28207e-07
3.31794e-07
3.35273e-07
3.38647e-07
3.41916e-07
3.4508e-07
3.48141e-07
3.51098e-07
3.53952e-07
3.56703e-07
3.59353e-07
3.619e-07
3.64345e-07
3.66688e-07
)
;
    }
    inandouthalf22
    {
        type            cyclic;
        value           nonuniform List<scalar> 
100
(
-2.83144e-12
-2.84984e-12
-2.86286e-12
-2.87187e-12
-2.87799e-12
-2.8821e-12
-2.88482e-12
-2.88661e-12
-2.88778e-12
-2.88855e-12
-2.88906e-12
-2.88939e-12
-2.88961e-12
-2.88976e-12
-2.88985e-12
-2.88992e-12
-2.88997e-12
-2.89e-12
-2.89002e-12
-2.89004e-12
-2.89005e-12
-2.89005e-12
-2.89006e-12
-2.89006e-12
-2.89007e-12
-2.89007e-12
-2.89007e-12
-2.89007e-12
-2.89008e-12
-2.89008e-12
-2.89008e-12
-2.89008e-12
-2.89008e-12
-2.89008e-12
-2.89008e-12
-2.89008e-12
-2.89008e-12
-2.89008e-12
-2.89008e-12
-2.89008e-12
-2.89008e-12
-2.89008e-12
-2.89008e-12
-2.89008e-12
-2.89008e-12
-2.89008e-12
-2.89008e-12
-2.81346e-12
-2.83833e-12
-4.81543e-12
-3.54346e-08
-7.02411e-08
-9.30282e-08
-1.10442e-07
-1.24947e-07
-1.37612e-07
-1.48992e-07
-1.59412e-07
-1.69077e-07
-1.7813e-07
-1.86671e-07
-1.94776e-07
-2.02502e-07
-2.09896e-07
-2.16992e-07
-2.23822e-07
-2.30409e-07
-2.36773e-07
-2.42931e-07
-2.48898e-07
-2.54685e-07
-2.60303e-07
-2.6576e-07
-2.71065e-07
-2.76222e-07
-2.81239e-07
-2.8612e-07
-2.9087e-07
-2.95492e-07
-2.9999e-07
-3.04366e-07
-3.08624e-07
-3.12765e-07
-3.16793e-07
-3.20708e-07
-3.24512e-07
-3.28207e-07
-3.31794e-07
-3.35273e-07
-3.38647e-07
-3.41916e-07
-3.4508e-07
-3.48141e-07
-3.51098e-07
-3.53952e-07
-3.56703e-07
-3.59353e-07
-3.619e-07
-3.64345e-07
-3.66688e-07
)
;
    }
    inandouthalf31
    {
        type            cyclic;
        value           nonuniform List<scalar> 
110
(
3.6893e-07
3.78624e-07
3.88498e-07
3.9855e-07
4.08781e-07
4.1919e-07
4.29777e-07
4.40541e-07
4.51483e-07
4.62603e-07
4.73901e-07
4.8538e-07
4.97043e-07
5.08893e-07
5.20936e-07
5.33179e-07
5.45628e-07
5.58294e-07
5.71185e-07
5.84312e-07
5.97687e-07
6.1132e-07
6.25223e-07
6.39408e-07
6.53886e-07
6.68667e-07
6.83761e-07
6.99179e-07
7.14927e-07
7.3101e-07
7.47429e-07
7.64184e-07
7.8126e-07
7.98653e-07
8.16308e-07
8.34179e-07
8.52703e-07
1.09323e-06
1.11938e-06
1.1451e-06
1.17095e-06
1.19624e-06
1.21982e-06
1.24432e-06
1.26979e-06
1.29517e-06
1.32052e-06
1.34587e-06
1.37125e-06
1.39671e-06
1.42228e-06
1.44802e-06
1.47398e-06
1.50024e-06
1.52688e-06
1.554e-06
1.58174e-06
1.61028e-06
1.64e-06
1.67192e-06
1.70566e-06
1.74027e-06
1.7756e-06
1.81164e-06
1.84841e-06
1.88593e-06
1.9242e-06
1.96326e-06
2.00311e-06
2.04377e-06
2.08525e-06
2.12758e-06
2.17076e-06
2.21482e-06
2.25978e-06
2.30564e-06
2.35244e-06
2.40019e-06
2.44891e-06
2.49861e-06
2.54933e-06
2.60107e-06
2.65387e-06
2.70773e-06
2.76269e-06
2.81877e-06
2.87598e-06
2.93436e-06
2.99392e-06
3.05469e-06
3.11669e-06
3.17995e-06
3.24449e-06
3.31035e-06
3.37754e-06
3.44609e-06
3.51604e-06
3.58741e-06
3.66022e-06
3.73451e-06
3.81031e-06
3.88765e-06
3.96656e-06
4.04707e-06
4.12922e-06
4.21303e-06
4.29854e-06
4.38579e-06
4.47481e-06
4.56564e-06
)
;
    }
    inandouthalf32
    {
        type            cyclic;
        value           nonuniform List<scalar> 
110
(
-3.6893e-07
-3.78624e-07
-3.88498e-07
-3.9855e-07
-4.08781e-07
-4.1919e-07
-4.29777e-07
-4.40541e-07
-4.51483e-07
-4.62603e-07
-4.73901e-07
-4.8538e-07
-4.97043e-07
-5.08893e-07
-5.20936e-07
-5.33179e-07
-5.45628e-07
-5.58294e-07
-5.71185e-07
-5.84312e-07
-5.97687e-07
-6.1132e-07
-6.25223e-07
-6.39408e-07
-6.53886e-07
-6.68667e-07
-6.83761e-07
-6.99179e-07
-7.14927e-07
-7.3101e-07
-7.47429e-07
-7.64184e-07
-7.8126e-07
-7.98653e-07
-8.16308e-07
-8.34179e-07
-8.52703e-07
-1.09323e-06
-1.11938e-06
-1.1451e-06
-1.17095e-06
-1.19624e-06
-1.21982e-06
-1.24432e-06
-1.26979e-06
-1.29517e-06
-1.32052e-06
-1.34587e-06
-1.37125e-06
-1.39671e-06
-1.42228e-06
-1.44802e-06
-1.47398e-06
-1.50024e-06
-1.52688e-06
-1.554e-06
-1.58174e-06
-1.61028e-06
-1.64e-06
-1.67192e-06
-1.70566e-06
-1.74027e-06
-1.7756e-06
-1.81164e-06
-1.84841e-06
-1.88593e-06
-1.9242e-06
-1.96326e-06
-2.00311e-06
-2.04377e-06
-2.08525e-06
-2.12758e-06
-2.17076e-06
-2.21482e-06
-2.25978e-06
-2.30564e-06
-2.35244e-06
-2.40019e-06
-2.44891e-06
-2.49861e-06
-2.54933e-06
-2.60107e-06
-2.65387e-06
-2.70773e-06
-2.76269e-06
-2.81877e-06
-2.87598e-06
-2.93436e-06
-2.99392e-06
-3.05469e-06
-3.11669e-06
-3.17995e-06
-3.24449e-06
-3.31035e-06
-3.37754e-06
-3.44609e-06
-3.51604e-06
-3.58741e-06
-3.66022e-06
-3.73451e-06
-3.81031e-06
-3.88765e-06
-3.96656e-06
-4.04707e-06
-4.12922e-06
-4.21303e-06
-4.29854e-06
-4.38579e-06
-4.47481e-06
-4.56564e-06
)
;
    }
    inandouthalf41
    {
        type            cyclic;
        value           nonuniform List<scalar> 
50
(
4.08671e-06
4.08671e-06
4.08671e-06
4.08671e-06
4.08671e-06
4.08671e-06
4.08671e-06
4.08671e-06
4.08671e-06
4.08671e-06
4.08671e-06
4.08671e-06
4.08671e-06
4.08671e-06
4.08671e-06
4.08671e-06
4.08671e-06
4.08671e-06
4.08671e-06
4.08671e-06
4.08671e-06
4.08671e-06
4.08671e-06
4.08671e-06
4.08671e-06
4.08671e-06
4.08671e-06
4.08671e-06
4.08671e-06
4.08671e-06
4.08671e-06
4.08671e-06
4.08671e-06
4.08671e-06
4.08671e-06
4.08671e-06
4.08671e-06
4.08671e-06
4.08671e-06
4.08671e-06
4.08671e-06
4.08671e-06
4.08671e-06
4.08671e-06
4.08671e-06
4.08671e-06
4.08671e-06
4.08672e-06
4.08689e-06
4.09091e-06
)
;
    }
    inandouthalf42
    {
        type            cyclic;
        value           nonuniform List<scalar> 
50
(
-4.08671e-06
-4.08671e-06
-4.08671e-06
-4.08671e-06
-4.08671e-06
-4.08671e-06
-4.08671e-06
-4.08671e-06
-4.08671e-06
-4.08671e-06
-4.08671e-06
-4.08671e-06
-4.08671e-06
-4.08671e-06
-4.08671e-06
-4.08671e-06
-4.08671e-06
-4.08671e-06
-4.08671e-06
-4.08671e-06
-4.08671e-06
-4.08671e-06
-4.08671e-06
-4.08671e-06
-4.08671e-06
-4.08671e-06
-4.08671e-06
-4.08671e-06
-4.08671e-06
-4.08671e-06
-4.08671e-06
-4.08671e-06
-4.08671e-06
-4.08671e-06
-4.08671e-06
-4.08671e-06
-4.08671e-06
-4.08671e-06
-4.08671e-06
-4.08671e-06
-4.08671e-06
-4.08671e-06
-4.08671e-06
-4.08671e-06
-4.08671e-06
-4.08671e-06
-4.08671e-06
-4.08672e-06
-4.08689e-06
-4.09091e-06
)
;
    }
    top
    {
        type            symmetryPlane;
        value           uniform 0;
    }
    walls
    {
        type            fixedValue;
        value           uniform 0;
    }
    frontAndBackPlanes
    {
        type            empty;
        value           nonuniform 0();
    }
}


// ************************************************************************* //
