/*--------------------------------*- C++ -*----------------------------------*\
| =========                 |                                                 |
| \\      /  F ield         | OpenFOAM: The Open Source CFD Toolbox           |
|  \\    /   O peration     | Version:  2.4.x                                 |
|   \\  /    A nd           | Web:      www.OpenFOAM.org                      |
|    \\/     M anipulation  |                                                 |
\*---------------------------------------------------------------------------*/
FoamFile
{
    version     2.0;
    format      ascii;
    class       surfaceScalarField;
    location    "7";
    object      phib;
}
// * * * * * * * * * * * * * * * * * * * * * * * * * * * * * * * * * * * * * //

dimensions      [0 3 -1 0 0 0 0];

internalField   nonuniform List<scalar> 
359
(
3.98844e-13
1.01981e-12
1.58141e-12
2.10696e-12
2.642e-12
3.18913e-12
3.74052e-12
4.2932e-12
4.84738e-12
5.40432e-12
5.96481e-12
6.52893e-12
7.09661e-12
7.66767e-12
8.24207e-12
8.81995e-12
9.40144e-12
9.98657e-12
1.05754e-11
1.11679e-11
1.17641e-11
1.23641e-11
1.29678e-11
1.35754e-11
1.41868e-11
1.4802e-11
1.54211e-11
1.6044e-11
1.66708e-11
1.73014e-11
1.79357e-11
1.85739e-11
1.92155e-11
1.98608e-11
2.05094e-11
2.11612e-11
2.18159e-11
2.24734e-11
2.31337e-11
2.37961e-11
2.44608e-11
2.51276e-11
2.57961e-11
2.64666e-11
2.7139e-11
2.78133e-11
2.84899e-11
2.91686e-11
2.985e-11
3.05349e-11
3.12232e-11
3.19155e-11
3.26118e-11
3.33123e-11
3.40164e-11
3.47242e-11
3.54342e-11
3.61458e-11
3.68575e-11
3.75673e-11
3.82745e-11
3.89766e-11
3.96723e-11
4.0359e-11
4.10349e-11
4.16978e-11
4.23464e-11
4.29797e-11
4.35973e-11
4.41997e-11
4.47888e-11
4.53668e-11
4.59361e-11
4.65006e-11
4.70641e-11
4.7631e-11
4.8206e-11
4.87942e-11
4.94017e-11
5.00354e-11
5.07028e-11
5.14125e-11
5.21738e-11
5.2996e-11
5.38883e-11
5.48576e-11
5.59082e-11
5.70386e-11
5.82408e-11
5.94982e-11
6.07852e-11
6.20686e-11
6.331e-11
6.44704e-11
6.55154e-11
6.64201e-11
6.71719e-11
6.77715e-11
6.82302e-11
6.85671e-11
6.88044e-11
6.89643e-11
6.90666e-11
6.91274e-11
6.91594e-11
6.91716e-11
6.91705e-11
6.91604e-11
6.91444e-11
6.91244e-11
6.91014e-11
6.90763e-11
6.90496e-11
6.90215e-11
6.89923e-11
6.89619e-11
6.89305e-11
6.88981e-11
6.88646e-11
6.883e-11
6.87943e-11
6.87575e-11
6.87194e-11
6.86801e-11
6.86395e-11
6.85976e-11
6.85541e-11
6.8509e-11
6.84621e-11
6.84134e-11
6.83627e-11
6.831e-11
6.82547e-11
6.81963e-11
6.81344e-11
6.80693e-11
6.80007e-11
6.79262e-11
6.78422e-11
6.77492e-11
6.76549e-11
6.7554e-11
6.74277e-11
6.72679e-11
6.70128e-11
6.63627e-11
6.83387e-11
7.71949e-11
7.64279e-11
3.65325e-09
2.22755e-09
1.30851e-09
9.17521e-10
6.86593e-10
5.30087e-10
4.19118e-10
3.3767e-10
2.76258e-10
2.2893e-10
1.91782e-10
1.6216e-10
1.38217e-10
1.18632e-10
1.02443e-10
8.89384e-11
7.75803e-11
6.79581e-11
5.97536e-11
5.2717e-11
4.66502e-11
4.13943e-11
3.68208e-11
3.28249e-11
2.93205e-11
2.62364e-11
2.35133e-11
2.11017e-11
1.896e-11
1.70529e-11
1.53509e-11
1.38284e-11
1.24638e-11
1.12386e-11
1.01366e-11
9.14412e-12
8.24903e-12
7.44086e-12
6.71043e-12
6.04969e-12
5.45152e-12
4.90966e-12
4.41852e-12
3.97317e-12
3.56918e-12
3.20262e-12
2.86995e-12
2.56802e-12
2.29402e-12
2.04547e-12
1.82015e-12
1.61606e-12
1.42782e-12
1.25478e-12
1.09629e-12
9.5163e-13
8.20089e-13
7.01059e-13
5.94028e-13
4.98536e-13
4.14157e-13
3.4041e-13
2.76788e-13
2.22701e-13
1.77366e-13
1.39908e-13
1.09412e-13
8.49186e-14
6.54734e-14
5.01925e-14
3.83038e-14
2.9118e-14
2.20522e-14
1.66478e-14
1.25343e-14
9.41236e-15
7.05537e-15
5.28152e-15
3.95836e-15
2.96876e-15
2.24334e-15
1.70175e-15
1.32288e-15
1.02545e-15
8.54143e-16
6.84038e-16
8.26193e-16
-1.91539e-16
-4.12144e-16
-5.63721e-16
-3.04914e-16
-2.49562e-16
1.34827e-16
-7.01407e-18
-7.0213e-18
-6.97155e-18
-6.95003e-18
-6.87332e-18
-6.82664e-18
-6.72142e-18
-6.64398e-18
-6.50988e-18
-6.39988e-18
-6.2334e-18
-6.08759e-18
-5.88983e-18
-5.71442e-18
-5.49698e-18
-5.29895e-18
-5.06092e-18
-4.84221e-18
-4.59767e-18
-4.37834e-18
-4.14575e-18
-3.9567e-18
-3.79273e-18
-3.66922e-18
-3.54421e-18
-3.44257e-18
-3.35128e-18
-3.26448e-18
-3.17247e-18
-3.08177e-18
-3.01594e-18
-2.94738e-18
-2.87246e-18
-2.78105e-18
-2.69837e-18
-2.59556e-18
-2.48815e-18
-2.36927e-18
-2.29256e-18
-2.20485e-18
-2.11747e-18
-2.00723e-18
-1.91058e-18
-1.78957e-18
-1.69838e-18
-1.55227e-18
-1.4339e-18
-1.29749e-18
-1.15909e-18
-1.00084e-18
-8.57534e-19
-6.98624e-19
-5.47403e-19
-3.95966e-19
-3.4313e-19
-3.01813e-19
-2.72691e-19
-2.9685e-19
-2.76174e-19
-2.52293e-19
-2.29542e-19
-2.04649e-19
-1.87237e-19
-1.69967e-19
-1.52689e-19
-1.37879e-19
-1.20487e-19
-1.07069e-19
-9.49992e-20
-8.63386e-20
-7.01821e-20
-5.81599e-20
-4.56802e-20
-3.90024e-20
-2.69206e-20
-2.25175e-20
-1.70606e-20
-1.85727e-20
-5.49992e-21
-2.91995e-22
6.03925e-21
1.98523e-21
1.23051e-20
1.08212e-20
1.83543e-20
1.9141e-20
1.47294e-19
2.52684e-19
3.65227e-19
4.24718e-19
5.41127e-19
5.75388e-19
6.12873e-19
5.57722e-19
6.72907e-19
6.64055e-19
6.54054e-19
4.86531e-19
4.38203e-19
2.16007e-19
-5.65709e-21
-3.76923e-19
-5.3099e-19
-8.38208e-19
-1.14749e-18
-1.62529e-18
-2.02471e-18
-2.52238e-18
-3.05572e-18
-3.75659e-18
-4.43984e-18
-5.04371e-18
-5.67406e-18
-6.31101e-18
-6.47911e-18
-7.5832e-18
-1.00119e-17
)
;

boundaryField
{
    inandouthalf11
    {
        type            cyclic;
        value           nonuniform List<scalar> 
100
(
-1.6806e-10
-1.67209e-10
-1.67053e-10
-1.67161e-10
-1.67219e-10
-1.67236e-10
-1.67254e-10
-1.67277e-10
-1.67301e-10
-1.67325e-10
-1.6735e-10
-1.67374e-10
-1.67398e-10
-1.67422e-10
-1.67447e-10
-1.67471e-10
-1.67495e-10
-1.6752e-10
-1.67544e-10
-1.67569e-10
-1.67593e-10
-1.67617e-10
-1.67642e-10
-1.67666e-10
-1.67691e-10
-1.67716e-10
-1.6774e-10
-1.67765e-10
-1.67789e-10
-1.67814e-10
-1.67839e-10
-1.67864e-10
-1.67888e-10
-1.67913e-10
-1.67938e-10
-1.67962e-10
-1.67987e-10
-1.68012e-10
-1.68037e-10
-1.68062e-10
-1.68087e-10
-1.68112e-10
-1.68137e-10
-1.68163e-10
-1.68188e-10
-1.68213e-10
-1.68239e-10
-1.68264e-10
-1.6829e-10
-1.68316e-10
-1.68341e-10
-1.68367e-10
-1.68393e-10
-1.68419e-10
-1.68445e-10
-1.68471e-10
-1.68497e-10
-1.68523e-10
-1.6855e-10
-1.68576e-10
-1.68603e-10
-1.6863e-10
-1.68658e-10
-1.68686e-10
-1.68714e-10
-1.68744e-10
-1.68774e-10
-1.68805e-10
-1.68836e-10
-1.68869e-10
-1.68903e-10
-1.68938e-10
-1.68973e-10
-1.6901e-10
-1.69047e-10
-1.69085e-10
-1.69122e-10
-1.6916e-10
-1.69197e-10
-1.69234e-10
-1.69269e-10
-1.69303e-10
-1.69335e-10
-1.69365e-10
-1.69391e-10
-1.69413e-10
-1.6943e-10
-1.69443e-10
-1.69451e-10
-1.69454e-10
-1.69454e-10
-1.69452e-10
-1.69452e-10
-1.69456e-10
-1.69467e-10
-1.69488e-10
-1.69519e-10
-1.69563e-10
-1.69619e-10
-1.69687e-10
)
;
    }
    inandouthalf12
    {
        type            cyclic;
        value           nonuniform List<scalar> 
100
(
1.6806e-10
1.67209e-10
1.67053e-10
1.67161e-10
1.67219e-10
1.67236e-10
1.67254e-10
1.67277e-10
1.67301e-10
1.67325e-10
1.6735e-10
1.67374e-10
1.67398e-10
1.67422e-10
1.67447e-10
1.67471e-10
1.67495e-10
1.6752e-10
1.67544e-10
1.67569e-10
1.67593e-10
1.67617e-10
1.67642e-10
1.67666e-10
1.67691e-10
1.67716e-10
1.6774e-10
1.67765e-10
1.67789e-10
1.67814e-10
1.67839e-10
1.67864e-10
1.67888e-10
1.67913e-10
1.67938e-10
1.67962e-10
1.67987e-10
1.68012e-10
1.68037e-10
1.68062e-10
1.68087e-10
1.68112e-10
1.68137e-10
1.68163e-10
1.68188e-10
1.68213e-10
1.68239e-10
1.68264e-10
1.6829e-10
1.68316e-10
1.68341e-10
1.68367e-10
1.68393e-10
1.68419e-10
1.68445e-10
1.68471e-10
1.68497e-10
1.68523e-10
1.6855e-10
1.68576e-10
1.68603e-10
1.6863e-10
1.68658e-10
1.68686e-10
1.68714e-10
1.68744e-10
1.68774e-10
1.68805e-10
1.68836e-10
1.68869e-10
1.68903e-10
1.68938e-10
1.68973e-10
1.6901e-10
1.69047e-10
1.69085e-10
1.69122e-10
1.6916e-10
1.69197e-10
1.69234e-10
1.69269e-10
1.69303e-10
1.69335e-10
1.69365e-10
1.69391e-10
1.69413e-10
1.6943e-10
1.69443e-10
1.69451e-10
1.69454e-10
1.69454e-10
1.69452e-10
1.69452e-10
1.69456e-10
1.69467e-10
1.69488e-10
1.69519e-10
1.69563e-10
1.69619e-10
1.69687e-10
)
;
    }
    inandouthalf21
    {
        type            cyclic;
        value           nonuniform List<scalar> 
100
(
-1.69766e-10
-1.69854e-10
-1.69949e-10
-1.70051e-10
-1.70159e-10
-1.70271e-10
-1.70388e-10
-1.70509e-10
-1.70634e-10
-1.70762e-10
-1.70895e-10
-1.71031e-10
-1.71171e-10
-1.71316e-10
-1.71465e-10
-1.71618e-10
-1.71776e-10
-1.71939e-10
-1.72107e-10
-1.72281e-10
-1.7246e-10
-1.72645e-10
-1.72836e-10
-1.73034e-10
-1.73238e-10
-1.7345e-10
-1.7367e-10
-1.73898e-10
-1.74135e-10
-1.74382e-10
-1.74639e-10
-1.74907e-10
-1.75188e-10
-1.75484e-10
-1.75798e-10
-1.76132e-10
-1.76482e-10
-1.76855e-10
-1.7727e-10
-1.77746e-10
-1.78261e-10
-1.78753e-10
-1.79346e-10
-1.80117e-10
-1.81082e-10
-1.8292e-10
-1.88384e-10
-1.90556e-10
-1.93854e-10
-4.93798e-11
4.01713e-08
7.26638e-08
9.37455e-08
1.10215e-07
1.24194e-07
1.36577e-07
1.47826e-07
1.58212e-07
1.67911e-07
1.77044e-07
1.85701e-07
1.93947e-07
2.01836e-07
2.09409e-07
2.16701e-07
2.23739e-07
2.30549e-07
2.37149e-07
2.43557e-07
2.49788e-07
2.55855e-07
2.61769e-07
2.6754e-07
2.73177e-07
2.78688e-07
2.8408e-07
2.89359e-07
2.9453e-07
2.996e-07
3.04571e-07
3.0945e-07
3.14239e-07
3.18942e-07
3.23562e-07
3.28102e-07
3.32565e-07
3.36954e-07
3.41271e-07
3.45517e-07
3.49696e-07
3.53808e-07
3.57856e-07
3.61842e-07
3.65766e-07
3.6963e-07
3.73436e-07
3.77185e-07
3.80878e-07
3.84516e-07
3.881e-07
)
;
    }
    inandouthalf22
    {
        type            cyclic;
        value           nonuniform List<scalar> 
100
(
1.69766e-10
1.69854e-10
1.69949e-10
1.70051e-10
1.70159e-10
1.70271e-10
1.70388e-10
1.70509e-10
1.70634e-10
1.70762e-10
1.70895e-10
1.71031e-10
1.71171e-10
1.71316e-10
1.71465e-10
1.71618e-10
1.71776e-10
1.71939e-10
1.72107e-10
1.72281e-10
1.7246e-10
1.72645e-10
1.72836e-10
1.73034e-10
1.73238e-10
1.7345e-10
1.7367e-10
1.73898e-10
1.74135e-10
1.74382e-10
1.74639e-10
1.74907e-10
1.75188e-10
1.75484e-10
1.75798e-10
1.76132e-10
1.76482e-10
1.76855e-10
1.7727e-10
1.77746e-10
1.78261e-10
1.78753e-10
1.79346e-10
1.80117e-10
1.81082e-10
1.8292e-10
1.88384e-10
1.90556e-10
1.93854e-10
4.93798e-11
-4.01713e-08
-7.26638e-08
-9.37455e-08
-1.10215e-07
-1.24194e-07
-1.36577e-07
-1.47826e-07
-1.58212e-07
-1.67911e-07
-1.77044e-07
-1.85701e-07
-1.93947e-07
-2.01836e-07
-2.09409e-07
-2.16701e-07
-2.23739e-07
-2.30549e-07
-2.37149e-07
-2.43557e-07
-2.49788e-07
-2.55855e-07
-2.61769e-07
-2.6754e-07
-2.73177e-07
-2.78688e-07
-2.8408e-07
-2.89359e-07
-2.9453e-07
-2.996e-07
-3.04571e-07
-3.0945e-07
-3.14239e-07
-3.18942e-07
-3.23562e-07
-3.28102e-07
-3.32565e-07
-3.36954e-07
-3.41271e-07
-3.45517e-07
-3.49696e-07
-3.53808e-07
-3.57856e-07
-3.61842e-07
-3.65766e-07
-3.6963e-07
-3.73436e-07
-3.77185e-07
-3.80878e-07
-3.84516e-07
-3.881e-07
)
;
    }
    inandouthalf31
    {
        type            cyclic;
        value           nonuniform List<scalar> 
110
(
3.91633e-07
4.03168e-07
4.15029e-07
4.27223e-07
4.3976e-07
4.52646e-07
4.65891e-07
4.79502e-07
4.93488e-07
5.07858e-07
5.22619e-07
5.3778e-07
5.53348e-07
5.69331e-07
5.85737e-07
6.02572e-07
6.19844e-07
6.37559e-07
6.55721e-07
6.74337e-07
6.93409e-07
7.12942e-07
7.32936e-07
7.53392e-07
7.74308e-07
7.95683e-07
8.17509e-07
8.3978e-07
8.62484e-07
8.85608e-07
9.09134e-07
9.33039e-07
9.57298e-07
9.81879e-07
1.00675e-06
1.03186e-06
1.05718e-06
1.08264e-06
1.10822e-06
1.13384e-06
1.15948e-06
1.1851e-06
1.21066e-06
1.23615e-06
1.26158e-06
1.28695e-06
1.31227e-06
1.33758e-06
1.36291e-06
1.38829e-06
1.41376e-06
1.43939e-06
1.46522e-06
1.49132e-06
1.51778e-06
1.5447e-06
1.5722e-06
1.60048e-06
1.62979e-06
1.66113e-06
1.69457e-06
1.72896e-06
1.76405e-06
1.79986e-06
1.83639e-06
1.87366e-06
1.91169e-06
1.95049e-06
1.99008e-06
2.03048e-06
2.07169e-06
2.11374e-06
2.15664e-06
2.20042e-06
2.24508e-06
2.29065e-06
2.33714e-06
2.38458e-06
2.43298e-06
2.48237e-06
2.53275e-06
2.58416e-06
2.63661e-06
2.69013e-06
2.74473e-06
2.80044e-06
2.85728e-06
2.91528e-06
2.97445e-06
3.03482e-06
3.09642e-06
3.15927e-06
3.2234e-06
3.28882e-06
3.35558e-06
3.42369e-06
3.49318e-06
3.56408e-06
3.63642e-06
3.71023e-06
3.78554e-06
3.86237e-06
3.94077e-06
4.02076e-06
4.10237e-06
4.18563e-06
4.27059e-06
4.35727e-06
4.44571e-06
4.53595e-06
)
;
    }
    inandouthalf32
    {
        type            cyclic;
        value           nonuniform List<scalar> 
110
(
-3.91633e-07
-4.03168e-07
-4.15029e-07
-4.27223e-07
-4.3976e-07
-4.52646e-07
-4.65891e-07
-4.79502e-07
-4.93488e-07
-5.07858e-07
-5.22619e-07
-5.3778e-07
-5.53348e-07
-5.69331e-07
-5.85737e-07
-6.02572e-07
-6.19844e-07
-6.37559e-07
-6.55721e-07
-6.74337e-07
-6.93409e-07
-7.12942e-07
-7.32936e-07
-7.53392e-07
-7.74308e-07
-7.95683e-07
-8.17509e-07
-8.3978e-07
-8.62484e-07
-8.85608e-07
-9.09134e-07
-9.33039e-07
-9.57298e-07
-9.81879e-07
-1.00675e-06
-1.03186e-06
-1.05718e-06
-1.08264e-06
-1.10822e-06
-1.13384e-06
-1.15948e-06
-1.1851e-06
-1.21066e-06
-1.23615e-06
-1.26158e-06
-1.28695e-06
-1.31227e-06
-1.33758e-06
-1.36291e-06
-1.38829e-06
-1.41376e-06
-1.43939e-06
-1.46522e-06
-1.49132e-06
-1.51778e-06
-1.5447e-06
-1.5722e-06
-1.60048e-06
-1.62979e-06
-1.66113e-06
-1.69457e-06
-1.72896e-06
-1.76405e-06
-1.79986e-06
-1.83639e-06
-1.87366e-06
-1.91169e-06
-1.95049e-06
-1.99008e-06
-2.03048e-06
-2.07169e-06
-2.11374e-06
-2.15664e-06
-2.20042e-06
-2.24508e-06
-2.29065e-06
-2.33714e-06
-2.38458e-06
-2.43298e-06
-2.48237e-06
-2.53275e-06
-2.58416e-06
-2.63661e-06
-2.69013e-06
-2.74473e-06
-2.80044e-06
-2.85728e-06
-2.91528e-06
-2.97445e-06
-3.03482e-06
-3.09642e-06
-3.15927e-06
-3.2234e-06
-3.28882e-06
-3.35558e-06
-3.42369e-06
-3.49318e-06
-3.56408e-06
-3.63642e-06
-3.71023e-06
-3.78554e-06
-3.86237e-06
-3.94077e-06
-4.02076e-06
-4.10237e-06
-4.18563e-06
-4.27059e-06
-4.35727e-06
-4.44571e-06
-4.53595e-06
)
;
    }
    inandouthalf41
    {
        type            cyclic;
        value           nonuniform List<scalar> 
50
(
4.06014e-06
4.06014e-06
4.06014e-06
4.06014e-06
4.06014e-06
4.06014e-06
4.06014e-06
4.06014e-06
4.06014e-06
4.06014e-06
4.06014e-06
4.06014e-06
4.06014e-06
4.06014e-06
4.06014e-06
4.06014e-06
4.06014e-06
4.06014e-06
4.06014e-06
4.06014e-06
4.06014e-06
4.06014e-06
4.06014e-06
4.06014e-06
4.06014e-06
4.06014e-06
4.06014e-06
4.06014e-06
4.06014e-06
4.06014e-06
4.06014e-06
4.06014e-06
4.06014e-06
4.06014e-06
4.06014e-06
4.06014e-06
4.06014e-06
4.06014e-06
4.06014e-06
4.06014e-06
4.06014e-06
4.06014e-06
4.06014e-06
4.06014e-06
4.06014e-06
4.06014e-06
4.06014e-06
4.06014e-06
4.06014e-06
4.06014e-06
)
;
    }
    inandouthalf42
    {
        type            cyclic;
        value           nonuniform List<scalar> 
50
(
-4.06014e-06
-4.06014e-06
-4.06014e-06
-4.06014e-06
-4.06014e-06
-4.06014e-06
-4.06014e-06
-4.06014e-06
-4.06014e-06
-4.06014e-06
-4.06014e-06
-4.06014e-06
-4.06014e-06
-4.06014e-06
-4.06014e-06
-4.06014e-06
-4.06014e-06
-4.06014e-06
-4.06014e-06
-4.06014e-06
-4.06014e-06
-4.06014e-06
-4.06014e-06
-4.06014e-06
-4.06014e-06
-4.06014e-06
-4.06014e-06
-4.06014e-06
-4.06014e-06
-4.06014e-06
-4.06014e-06
-4.06014e-06
-4.06014e-06
-4.06014e-06
-4.06014e-06
-4.06014e-06
-4.06014e-06
-4.06014e-06
-4.06014e-06
-4.06014e-06
-4.06014e-06
-4.06014e-06
-4.06014e-06
-4.06014e-06
-4.06014e-06
-4.06014e-06
-4.06014e-06
-4.06014e-06
-4.06014e-06
-4.06014e-06
)
;
    }
    top
    {
        type            symmetryPlane;
        value           uniform 0;
    }
    walls
    {
        type            fixedValue;
        value           uniform 0;
    }
    frontAndBackPlanes
    {
        type            empty;
        value           nonuniform 0();
    }
}


// ************************************************************************* //
