/*--------------------------------*- C++ -*----------------------------------*\
| =========                 |                                                 |
| \\      /  F ield         | OpenFOAM: The Open Source CFD Toolbox           |
|  \\    /   O peration     | Version:  2.4.x                                 |
|   \\  /    A nd           | Web:      www.OpenFOAM.org                      |
|    \\/     M anipulation  |                                                 |
\*---------------------------------------------------------------------------*/
FoamFile
{
    version     2.0;
    format      ascii;
    class       surfaceScalarField;
    location    "7";
    object      phib_0;
}
// * * * * * * * * * * * * * * * * * * * * * * * * * * * * * * * * * * * * * //

dimensions      [0 3 -1 0 0 0 0];

internalField   nonuniform List<scalar> 
359
(
3.9888e-13
1.01991e-12
1.58157e-12
2.10717e-12
2.64226e-12
3.18944e-12
3.74089e-12
4.29363e-12
4.84787e-12
5.40487e-12
5.96542e-12
6.5296e-12
7.09735e-12
7.66846e-12
8.24293e-12
8.82088e-12
9.40243e-12
9.98763e-12
1.05765e-11
1.11691e-11
1.17654e-11
1.23654e-11
1.29692e-11
1.35769e-11
1.41883e-11
1.48037e-11
1.54227e-11
1.60458e-11
1.66726e-11
1.73033e-11
1.79377e-11
1.8576e-11
1.92176e-11
1.9863e-11
2.05117e-11
2.11636e-11
2.18183e-11
2.24759e-11
2.31363e-11
2.37988e-11
2.44636e-11
2.51305e-11
2.5799e-11
2.64697e-11
2.71421e-11
2.78166e-11
2.84932e-11
2.9172e-11
2.98535e-11
3.05385e-11
3.12269e-11
3.19193e-11
3.26157e-11
3.33164e-11
3.40206e-11
3.47285e-11
3.54386e-11
3.61504e-11
3.68621e-11
3.75721e-11
3.82793e-11
3.89815e-11
3.96772e-11
4.0364e-11
4.10399e-11
4.17028e-11
4.23513e-11
4.29846e-11
4.36022e-11
4.42046e-11
4.47937e-11
4.53717e-11
4.59411e-11
4.65057e-11
4.70693e-11
4.76364e-11
4.82116e-11
4.88001e-11
4.94081e-11
5.00423e-11
5.07104e-11
5.14208e-11
5.2183e-11
5.30064e-11
5.38999e-11
5.48707e-11
5.59227e-11
5.70547e-11
5.82584e-11
5.95169e-11
6.08049e-11
6.20886e-11
6.33296e-11
6.4489e-11
6.55324e-11
6.6435e-11
6.71845e-11
6.77817e-11
6.82382e-11
6.85731e-11
6.88088e-11
6.89675e-11
6.90688e-11
6.91289e-11
6.91604e-11
6.91722e-11
6.91709e-11
6.91607e-11
6.91446e-11
6.91245e-11
6.91015e-11
6.90764e-11
6.90496e-11
6.90216e-11
6.89923e-11
6.89619e-11
6.89305e-11
6.88981e-11
6.88646e-11
6.883e-11
6.87943e-11
6.87575e-11
6.87194e-11
6.86801e-11
6.86395e-11
6.85976e-11
6.85541e-11
6.8509e-11
6.84621e-11
6.84134e-11
6.83627e-11
6.831e-11
6.82547e-11
6.81963e-11
6.81344e-11
6.80693e-11
6.80007e-11
6.79262e-11
6.78422e-11
6.77492e-11
6.76549e-11
6.7554e-11
6.74277e-11
6.72679e-11
6.70128e-11
6.63627e-11
6.83247e-11
7.71333e-11
7.62607e-11
3.65174e-09
2.228e-09
1.30911e-09
9.17959e-10
6.86868e-10
5.30262e-10
4.19231e-10
3.37744e-10
2.76307e-10
2.28964e-10
1.91805e-10
1.62177e-10
1.38229e-10
1.18641e-10
1.0245e-10
8.89439e-11
7.75845e-11
6.79614e-11
5.97562e-11
5.2719e-11
4.66517e-11
4.13954e-11
3.68216e-11
3.28255e-11
2.93208e-11
2.62365e-11
2.35132e-11
2.11015e-11
1.89596e-11
1.70525e-11
1.53503e-11
1.38277e-11
1.24631e-11
1.12377e-11
1.01358e-11
9.14321e-12
8.24808e-12
7.43989e-12
6.70944e-12
6.04869e-12
5.45052e-12
4.90866e-12
4.41753e-12
3.97219e-12
3.56822e-12
3.20168e-12
2.86903e-12
2.56713e-12
2.29316e-12
2.04463e-12
1.81935e-12
1.61529e-12
1.42709e-12
1.25408e-12
1.09563e-12
9.51006e-13
8.19505e-13
7.00515e-13
5.93525e-13
4.98074e-13
4.13737e-13
3.40032e-13
2.7645e-13
2.22401e-13
1.77104e-13
1.39681e-13
1.09217e-13
8.47526e-14
6.53333e-14
5.00751e-14
3.8206e-14
2.90369e-14
2.19855e-14
1.65931e-14
1.24895e-14
9.37599e-15
7.02593e-15
5.25779e-15
3.93931e-15
2.95355e-15
2.23125e-15
1.69222e-15
1.31539e-15
1.01966e-15
8.49663e-16
6.80582e-16
8.2334e-16
-1.92921e-16
-4.12494e-16
-5.63974e-16
-3.0397e-16
-2.49218e-16
1.35085e-16
-6.95937e-18
-6.96654e-18
-6.91793e-18
-6.89652e-18
-6.82074e-18
-6.77415e-18
-6.67058e-18
-6.59312e-18
-6.45982e-18
-6.35044e-18
-6.18491e-18
-6.04053e-18
-5.84457e-18
-5.67076e-18
-5.45306e-18
-5.25523e-18
-5.01854e-18
-4.80104e-18
-4.55785e-18
-4.33891e-18
-4.10811e-18
-3.91989e-18
-3.7564e-18
-3.63367e-18
-3.5103e-18
-3.40963e-18
-3.31833e-18
-3.23181e-18
-3.13962e-18
-3.05055e-18
-2.985e-18
-2.91672e-18
-2.84229e-18
-2.7507e-18
-2.66845e-18
-2.56606e-18
-2.45966e-18
-2.34122e-18
-2.2647e-18
-2.1774e-18
-2.09047e-18
-1.97992e-18
-1.8836e-18
-1.76342e-18
-1.67215e-18
-1.52594e-18
-1.40661e-18
-1.26963e-18
-1.13108e-18
-9.72898e-19
-8.29136e-19
-6.70878e-19
-5.20849e-19
-3.71823e-19
-3.13986e-19
-2.72657e-19
-2.42769e-19
-2.67779e-19
-2.46148e-19
-2.231e-19
-1.99919e-19
-1.75481e-19
-1.56885e-19
-1.40098e-19
-1.23409e-19
-1.08753e-19
-9.1066e-20
-7.84349e-20
-6.70157e-20
-5.8724e-20
-4.27867e-20
-3.09564e-20
-1.88945e-20
-1.3421e-20
-2.40048e-21
2.15729e-21
6.5157e-21
3.27812e-21
1.64046e-20
2.0347e-20
2.5971e-20
2.02411e-20
2.95725e-20
2.55624e-20
2.93881e-20
2.12461e-20
1.41699e-19
2.34821e-19
3.34812e-19
3.80401e-19
4.82796e-19
5.02806e-19
5.2619e-19
4.57322e-19
5.57617e-19
5.34182e-19
5.09978e-19
3.30594e-19
2.67297e-19
3.4012e-20
-1.99719e-19
-5.80225e-19
-7.58694e-19
-1.08568e-18
-1.41577e-18
-1.90556e-18
-2.32749e-18
-2.83332e-18
-3.3762e-18
-4.06936e-18
-4.78929e-18
-5.39807e-18
-6.03235e-18
-6.62406e-18
-6.78853e-18
-7.82051e-18
-1.01722e-17
)
;

boundaryField
{
    inandouthalf11
    {
        type            cyclic;
        value           nonuniform List<scalar> 
100
(
-1.68021e-10
-1.6717e-10
-1.67014e-10
-1.67122e-10
-1.67181e-10
-1.67197e-10
-1.67215e-10
-1.67238e-10
-1.67262e-10
-1.67287e-10
-1.67311e-10
-1.67335e-10
-1.6736e-10
-1.67384e-10
-1.67408e-10
-1.67432e-10
-1.67457e-10
-1.67481e-10
-1.67505e-10
-1.6753e-10
-1.67554e-10
-1.67579e-10
-1.67603e-10
-1.67628e-10
-1.67652e-10
-1.67677e-10
-1.67701e-10
-1.67726e-10
-1.67751e-10
-1.67775e-10
-1.678e-10
-1.67825e-10
-1.67849e-10
-1.67874e-10
-1.67899e-10
-1.67923e-10
-1.67948e-10
-1.67973e-10
-1.67998e-10
-1.68023e-10
-1.68048e-10
-1.68073e-10
-1.68098e-10
-1.68123e-10
-1.68149e-10
-1.68174e-10
-1.682e-10
-1.68225e-10
-1.6825e-10
-1.68277e-10
-1.68302e-10
-1.68328e-10
-1.68354e-10
-1.6838e-10
-1.68405e-10
-1.68432e-10
-1.68458e-10
-1.68484e-10
-1.6851e-10
-1.68536e-10
-1.68564e-10
-1.6859e-10
-1.68618e-10
-1.68646e-10
-1.68675e-10
-1.68704e-10
-1.68734e-10
-1.68765e-10
-1.68797e-10
-1.68829e-10
-1.68863e-10
-1.68898e-10
-1.68933e-10
-1.6897e-10
-1.69007e-10
-1.69045e-10
-1.69082e-10
-1.6912e-10
-1.69157e-10
-1.69194e-10
-1.69229e-10
-1.69263e-10
-1.69295e-10
-1.69324e-10
-1.6935e-10
-1.69372e-10
-1.6939e-10
-1.69402e-10
-1.6941e-10
-1.69413e-10
-1.69413e-10
-1.69411e-10
-1.69411e-10
-1.69415e-10
-1.69426e-10
-1.69447e-10
-1.69478e-10
-1.69522e-10
-1.69579e-10
-1.69647e-10
)
;
    }
    inandouthalf12
    {
        type            cyclic;
        value           nonuniform List<scalar> 
100
(
1.68021e-10
1.6717e-10
1.67014e-10
1.67122e-10
1.67181e-10
1.67197e-10
1.67215e-10
1.67238e-10
1.67262e-10
1.67287e-10
1.67311e-10
1.67335e-10
1.6736e-10
1.67384e-10
1.67408e-10
1.67432e-10
1.67457e-10
1.67481e-10
1.67505e-10
1.6753e-10
1.67554e-10
1.67579e-10
1.67603e-10
1.67628e-10
1.67652e-10
1.67677e-10
1.67701e-10
1.67726e-10
1.67751e-10
1.67775e-10
1.678e-10
1.67825e-10
1.67849e-10
1.67874e-10
1.67899e-10
1.67923e-10
1.67948e-10
1.67973e-10
1.67998e-10
1.68023e-10
1.68048e-10
1.68073e-10
1.68098e-10
1.68123e-10
1.68149e-10
1.68174e-10
1.682e-10
1.68225e-10
1.6825e-10
1.68277e-10
1.68302e-10
1.68328e-10
1.68354e-10
1.6838e-10
1.68405e-10
1.68432e-10
1.68458e-10
1.68484e-10
1.6851e-10
1.68536e-10
1.68564e-10
1.6859e-10
1.68618e-10
1.68646e-10
1.68675e-10
1.68704e-10
1.68734e-10
1.68765e-10
1.68797e-10
1.68829e-10
1.68863e-10
1.68898e-10
1.68933e-10
1.6897e-10
1.69007e-10
1.69045e-10
1.69082e-10
1.6912e-10
1.69157e-10
1.69194e-10
1.69229e-10
1.69263e-10
1.69295e-10
1.69324e-10
1.6935e-10
1.69372e-10
1.6939e-10
1.69402e-10
1.6941e-10
1.69413e-10
1.69413e-10
1.69411e-10
1.69411e-10
1.69415e-10
1.69426e-10
1.69447e-10
1.69478e-10
1.69522e-10
1.69579e-10
1.69647e-10
)
;
    }
    inandouthalf21
    {
        type            cyclic;
        value           nonuniform List<scalar> 
100
(
-1.69726e-10
-1.69814e-10
-1.69909e-10
-1.70011e-10
-1.70119e-10
-1.70231e-10
-1.70348e-10
-1.70469e-10
-1.70594e-10
-1.70722e-10
-1.70855e-10
-1.70991e-10
-1.71131e-10
-1.71276e-10
-1.71425e-10
-1.71578e-10
-1.71736e-10
-1.71899e-10
-1.72067e-10
-1.7224e-10
-1.72419e-10
-1.72604e-10
-1.72795e-10
-1.72993e-10
-1.73198e-10
-1.73409e-10
-1.73629e-10
-1.73857e-10
-1.74094e-10
-1.74341e-10
-1.74598e-10
-1.74866e-10
-1.75147e-10
-1.75443e-10
-1.75757e-10
-1.76091e-10
-1.76441e-10
-1.76814e-10
-1.77228e-10
-1.77704e-10
-1.78219e-10
-1.78711e-10
-1.79304e-10
-1.80074e-10
-1.8104e-10
-1.82877e-10
-1.8834e-10
-1.90511e-10
-1.93806e-10
-4.86552e-11
4.02136e-08
7.2729e-08
9.38273e-08
1.10309e-07
1.24297e-07
1.36687e-07
1.47942e-07
1.58333e-07
1.68036e-07
1.77172e-07
1.85831e-07
1.9408e-07
2.01971e-07
2.09546e-07
2.1684e-07
2.2388e-07
2.30691e-07
2.37292e-07
2.43702e-07
2.49934e-07
2.56002e-07
2.61917e-07
2.67689e-07
2.73327e-07
2.78838e-07
2.84231e-07
2.8951e-07
2.94682e-07
2.99752e-07
3.04725e-07
3.09604e-07
3.14393e-07
3.19096e-07
3.23717e-07
3.28258e-07
3.32721e-07
3.3711e-07
3.41427e-07
3.45674e-07
3.49853e-07
3.53966e-07
3.58014e-07
3.62e-07
3.65924e-07
3.69789e-07
3.73595e-07
3.77344e-07
3.81038e-07
3.84676e-07
3.8826e-07
)
;
    }
    inandouthalf22
    {
        type            cyclic;
        value           nonuniform List<scalar> 
100
(
1.69726e-10
1.69814e-10
1.69909e-10
1.70011e-10
1.70119e-10
1.70231e-10
1.70348e-10
1.70469e-10
1.70594e-10
1.70722e-10
1.70855e-10
1.70991e-10
1.71131e-10
1.71276e-10
1.71425e-10
1.71578e-10
1.71736e-10
1.71899e-10
1.72067e-10
1.7224e-10
1.72419e-10
1.72604e-10
1.72795e-10
1.72993e-10
1.73198e-10
1.73409e-10
1.73629e-10
1.73857e-10
1.74094e-10
1.74341e-10
1.74598e-10
1.74866e-10
1.75147e-10
1.75443e-10
1.75757e-10
1.76091e-10
1.76441e-10
1.76814e-10
1.77228e-10
1.77704e-10
1.78219e-10
1.78711e-10
1.79304e-10
1.80074e-10
1.8104e-10
1.82877e-10
1.8834e-10
1.90511e-10
1.93806e-10
4.86552e-11
-4.02136e-08
-7.2729e-08
-9.38273e-08
-1.10309e-07
-1.24297e-07
-1.36687e-07
-1.47942e-07
-1.58333e-07
-1.68036e-07
-1.77172e-07
-1.85831e-07
-1.9408e-07
-2.01971e-07
-2.09546e-07
-2.1684e-07
-2.2388e-07
-2.30691e-07
-2.37292e-07
-2.43702e-07
-2.49934e-07
-2.56002e-07
-2.61917e-07
-2.67689e-07
-2.73327e-07
-2.78838e-07
-2.84231e-07
-2.8951e-07
-2.94682e-07
-2.99752e-07
-3.04725e-07
-3.09604e-07
-3.14393e-07
-3.19096e-07
-3.23717e-07
-3.28258e-07
-3.32721e-07
-3.3711e-07
-3.41427e-07
-3.45674e-07
-3.49853e-07
-3.53966e-07
-3.58014e-07
-3.62e-07
-3.65924e-07
-3.69789e-07
-3.73595e-07
-3.77344e-07
-3.81038e-07
-3.84676e-07
-3.8826e-07
)
;
    }
    inandouthalf31
    {
        type            cyclic;
        value           nonuniform List<scalar> 
110
(
3.91793e-07
4.03332e-07
4.15196e-07
4.27394e-07
4.39934e-07
4.52824e-07
4.66072e-07
4.79688e-07
4.93678e-07
5.08051e-07
5.22817e-07
5.37981e-07
5.53554e-07
5.69541e-07
5.85951e-07
6.02791e-07
6.20068e-07
6.37787e-07
6.55954e-07
6.74574e-07
6.93652e-07
7.13189e-07
7.33188e-07
7.53649e-07
7.7457e-07
7.9595e-07
8.17782e-07
8.40058e-07
8.62767e-07
8.85897e-07
9.09428e-07
9.33338e-07
9.57603e-07
9.8219e-07
1.00706e-06
1.03218e-06
1.0575e-06
1.08298e-06
1.10855e-06
1.13419e-06
1.15983e-06
1.18545e-06
1.21102e-06
1.23652e-06
1.26195e-06
1.28732e-06
1.31266e-06
1.33797e-06
1.3633e-06
1.38869e-06
1.41418e-06
1.43981e-06
1.46564e-06
1.49176e-06
1.51823e-06
1.54515e-06
1.57267e-06
1.60095e-06
1.63027e-06
1.66162e-06
1.69508e-06
1.72947e-06
1.76457e-06
1.80039e-06
1.83693e-06
1.87422e-06
1.91226e-06
1.95107e-06
1.99068e-06
2.03108e-06
2.07231e-06
2.11437e-06
2.15728e-06
2.20107e-06
2.24575e-06
2.29133e-06
2.33784e-06
2.38529e-06
2.43371e-06
2.4831e-06
2.5335e-06
2.58493e-06
2.63739e-06
2.69093e-06
2.74554e-06
2.80127e-06
2.85813e-06
2.91614e-06
2.97533e-06
3.03572e-06
3.09734e-06
3.16021e-06
3.22435e-06
3.2898e-06
3.35657e-06
3.4247e-06
3.49421e-06
3.56514e-06
3.6375e-06
3.71133e-06
3.78666e-06
3.86352e-06
3.94194e-06
4.02195e-06
4.10359e-06
4.18688e-06
4.27186e-06
4.35857e-06
4.44704e-06
4.5373e-06
)
;
    }
    inandouthalf32
    {
        type            cyclic;
        value           nonuniform List<scalar> 
110
(
-3.91793e-07
-4.03332e-07
-4.15196e-07
-4.27394e-07
-4.39934e-07
-4.52824e-07
-4.66072e-07
-4.79688e-07
-4.93678e-07
-5.08051e-07
-5.22817e-07
-5.37981e-07
-5.53554e-07
-5.69541e-07
-5.85951e-07
-6.02791e-07
-6.20068e-07
-6.37787e-07
-6.55954e-07
-6.74574e-07
-6.93652e-07
-7.13189e-07
-7.33188e-07
-7.53649e-07
-7.7457e-07
-7.9595e-07
-8.17782e-07
-8.40058e-07
-8.62767e-07
-8.85897e-07
-9.09428e-07
-9.33338e-07
-9.57603e-07
-9.8219e-07
-1.00706e-06
-1.03218e-06
-1.0575e-06
-1.08298e-06
-1.10855e-06
-1.13419e-06
-1.15983e-06
-1.18545e-06
-1.21102e-06
-1.23652e-06
-1.26195e-06
-1.28732e-06
-1.31266e-06
-1.33797e-06
-1.3633e-06
-1.38869e-06
-1.41418e-06
-1.43981e-06
-1.46564e-06
-1.49176e-06
-1.51823e-06
-1.54515e-06
-1.57267e-06
-1.60095e-06
-1.63027e-06
-1.66162e-06
-1.69508e-06
-1.72947e-06
-1.76457e-06
-1.80039e-06
-1.83693e-06
-1.87422e-06
-1.91226e-06
-1.95107e-06
-1.99068e-06
-2.03108e-06
-2.07231e-06
-2.11437e-06
-2.15728e-06
-2.20107e-06
-2.24575e-06
-2.29133e-06
-2.33784e-06
-2.38529e-06
-2.43371e-06
-2.4831e-06
-2.5335e-06
-2.58493e-06
-2.63739e-06
-2.69093e-06
-2.74554e-06
-2.80127e-06
-2.85813e-06
-2.91614e-06
-2.97533e-06
-3.03572e-06
-3.09734e-06
-3.16021e-06
-3.22435e-06
-3.2898e-06
-3.35657e-06
-3.4247e-06
-3.49421e-06
-3.56514e-06
-3.6375e-06
-3.71133e-06
-3.78666e-06
-3.86352e-06
-3.94194e-06
-4.02195e-06
-4.10359e-06
-4.18688e-06
-4.27186e-06
-4.35857e-06
-4.44704e-06
-4.5373e-06
)
;
    }
    inandouthalf41
    {
        type            cyclic;
        value           nonuniform List<scalar> 
50
(
4.06134e-06
4.06134e-06
4.06134e-06
4.06134e-06
4.06134e-06
4.06134e-06
4.06134e-06
4.06134e-06
4.06134e-06
4.06134e-06
4.06134e-06
4.06134e-06
4.06134e-06
4.06134e-06
4.06134e-06
4.06134e-06
4.06134e-06
4.06134e-06
4.06134e-06
4.06134e-06
4.06134e-06
4.06134e-06
4.06134e-06
4.06134e-06
4.06134e-06
4.06134e-06
4.06134e-06
4.06134e-06
4.06134e-06
4.06134e-06
4.06134e-06
4.06134e-06
4.06134e-06
4.06134e-06
4.06134e-06
4.06134e-06
4.06134e-06
4.06134e-06
4.06134e-06
4.06134e-06
4.06134e-06
4.06134e-06
4.06134e-06
4.06134e-06
4.06134e-06
4.06134e-06
4.06134e-06
4.06134e-06
4.06134e-06
4.06134e-06
)
;
    }
    inandouthalf42
    {
        type            cyclic;
        value           nonuniform List<scalar> 
50
(
-4.06134e-06
-4.06134e-06
-4.06134e-06
-4.06134e-06
-4.06134e-06
-4.06134e-06
-4.06134e-06
-4.06134e-06
-4.06134e-06
-4.06134e-06
-4.06134e-06
-4.06134e-06
-4.06134e-06
-4.06134e-06
-4.06134e-06
-4.06134e-06
-4.06134e-06
-4.06134e-06
-4.06134e-06
-4.06134e-06
-4.06134e-06
-4.06134e-06
-4.06134e-06
-4.06134e-06
-4.06134e-06
-4.06134e-06
-4.06134e-06
-4.06134e-06
-4.06134e-06
-4.06134e-06
-4.06134e-06
-4.06134e-06
-4.06134e-06
-4.06134e-06
-4.06134e-06
-4.06134e-06
-4.06134e-06
-4.06134e-06
-4.06134e-06
-4.06134e-06
-4.06134e-06
-4.06134e-06
-4.06134e-06
-4.06134e-06
-4.06134e-06
-4.06134e-06
-4.06134e-06
-4.06134e-06
-4.06134e-06
-4.06134e-06
)
;
    }
    top
    {
        type            symmetryPlane;
        value           uniform 0;
    }
    walls
    {
        type            fixedValue;
        value           uniform 0;
    }
    frontAndBackPlanes
    {
        type            empty;
        value           nonuniform 0();
    }
}


// ************************************************************************* //
