/*--------------------------------*- C++ -*----------------------------------*\
| =========                 |                                                 |
| \\      /  F ield         | OpenFOAM: The Open Source CFD Toolbox           |
|  \\    /   O peration     | Version:  2.4.x                                 |
|   \\  /    A nd           | Web:      www.OpenFOAM.org                      |
|    \\/     M anipulation  |                                                 |
\*---------------------------------------------------------------------------*/
FoamFile
{
    version     2.0;
    format      ascii;
    class       volVectorField;
    location    "7";
    object      susb;
}
// * * * * * * * * * * * * * * * * * * * * * * * * * * * * * * * * * * * * * //

dimensions      [0 1 -2 0 0 0 0];

internalField   nonuniform List<vector> 
360
(
(0 5.5648e-18 0)
(0 6.32925e-18 0)
(0 1.62507e-19 0)
(0 -8.9591e-19 0)
(-7.39134e-31 -4.44017e-19 0)
(-3.69524e-31 -2.46511e-19 0)
(-3.69479e-31 -2.81413e-19 0)
(0 -3.14382e-19 0)
(-3.69366e-31 -3.22272e-19 0)
(0 -3.2819e-19 0)
(-3.69248e-31 -3.30095e-19 0)
(0 -3.30746e-19 0)
(-3.6913e-31 -3.32661e-19 0)
(0 -3.34884e-19 0)
(0 -3.386e-19 0)
(0 -3.42564e-19 0)
(0 -3.45542e-19 0)
(-3.68824e-31 -3.47994e-19 0)
(0 -3.52069e-19 0)
(0 -3.54583e-19 0)
(0 -3.57264e-19 0)
(-3.6857e-31 -3.61618e-19 0)
(0 -3.64503e-19 0)
(0 -3.67958e-19 0)
(0 -3.71476e-19 0)
(-3.68306e-31 -3.74129e-19 0)
(0 -3.7822e-19 0)
(0 -3.82492e-19 0)
(0 -3.85186e-19 0)
(0 -3.88445e-19 0)
(0 -3.93562e-19 0)
(0 -3.95668e-19 0)
(0 -4.00329e-19 0)
(0 -4.05038e-19 0)
(0 -4.07445e-19 0)
(7.35203e-31 -4.11548e-19 0)
(0 -4.15381e-19 0)
(0 -4.21797e-19 0)
(0 -4.22871e-19 0)
(0 -4.276e-19 0)
(0 -4.34607e-19 0)
(0 -4.34821e-19 0)
(3.67068e-31 -4.41059e-19 0)
(0 -4.46744e-19 0)
(0 -4.49721e-19 0)
(0 -4.56473e-19 0)
(0 -4.58384e-19 0)
(0 -4.62467e-19 0)
(0 -4.72756e-19 0)
(0 -4.75543e-19 0)
(7.32816e-31 -4.79322e-19 0)
(0 -4.8662e-19 0)
(0 -4.92337e-19 0)
(0 -4.96548e-19 0)
(0 -5.0366e-19 0)
(0 -5.09125e-19 0)
(0 -5.13949e-19 0)
(0 -5.21629e-19 0)
(0 -5.23567e-19 0)
(0 -5.32595e-19 0)
(0 -5.39413e-19 0)
(0 -5.44625e-19 0)
(0 -5.52241e-19 0)
(0 -5.56925e-19 0)
(0 -5.62477e-19 0)
(0 -5.68604e-19 0)
(0 -5.75999e-19 0)
(0 -5.81515e-19 0)
(0 -5.85541e-19 0)
(0 -5.94628e-19 0)
(0 -6.06366e-19 0)
(0 -6.10388e-19 0)
(0 -6.18652e-19 0)
(0 -6.29988e-19 0)
(0 -6.3943e-19 0)
(0 -6.47992e-19 0)
(0 -6.55352e-19 0)
(0 -6.66443e-19 0)
(0 -6.77783e-19 0)
(0 -6.8822e-19 0)
(0 -7.00184e-19 0)
(0 -7.14349e-19 0)
(0 -7.28121e-19 0)
(0 -7.42391e-19 0)
(0 -7.56935e-19 0)
(0 -7.71653e-19 0)
(0 -7.86048e-19 0)
(0 -7.99806e-19 0)
(0 -8.14023e-19 0)
(0 -8.28097e-19 0)
(0 -8.41629e-19 0)
(0 -8.5519e-19 0)
(0 -8.68616e-19 0)
(0 -8.81527e-19 0)
(0 -8.94303e-19 0)
(0 -9.07253e-19 0)
(0 -9.20696e-19 0)
(0 -9.35073e-19 0)
(0 -9.50826e-19 0)
(0 -9.68155e-19 0)
(0 -9.87123e-19 0)
(0 -1.00776e-18 0)
(0 -1.02995e-18 0)
(0 -1.05351e-18 0)
(0 -1.07837e-18 0)
(0 -1.10446e-18 0)
(0 -1.13175e-18 0)
(0 -1.16027e-18 0)
(0 -1.19005e-18 0)
(0 -1.22113e-18 0)
(0 -1.25357e-18 0)
(0 -1.2874e-18 0)
(0 -1.32271e-18 0)
(0 -1.35955e-18 0)
(0 -1.398e-18 0)
(0 -1.43813e-18 0)
(0 -1.48005e-18 0)
(0 -1.52384e-18 0)
(0 -1.56963e-18 0)
(0 -1.61752e-18 0)
(0 -1.66762e-18 0)
(0 -1.72002e-18 0)
(0 -1.77481e-18 0)
(0 -1.83217e-18 0)
(0 -1.89252e-18 0)
(0 -1.95667e-18 0)
(0 -2.02577e-18 0)
(0 -2.10083e-18 0)
(0 -2.18189e-18 0)
(0 -2.26751e-18 0)
(0 -2.35661e-18 0)
(0 -2.45356e-18 0)
(0 -2.4425e-18 0)
(0 -6.51923e-18 0)
(0 -2.65179e-17 0)
(0 -1.12026e-16 0)
(0 -4.89015e-16 0)
(0 -2.30823e-15 0)
(0 -1.22329e-14 0)
(0 -7.03384e-14 0)
(0 -4.07513e-13 0)
(0 -2.73543e-12 0)
(0 -2.3669e-11 0)
(0 -2.34456e-10 0)
(0 -3.40577e-09 0)
(0 -9.54714e-08 0)
(0 -1.32753e-06 0)
(0 -1.59125e-05 0)
(0 -0.0105938 0)
(0 -0.55067 0)
(0 -1.02692 0)
(0 -0.681296 0)
(0 -0.37647 0)
(0 -0.24599 0)
(0 -0.175114 0)
(0 -0.132918 0)
(0 -0.104941 0)
(0 -0.0850903 0)
(0 -0.0703893 0)
(0 -0.0591392 0)
(0 -0.0502998 0)
(0 -0.0432088 0)
(0 -0.037425 0)
(0 -0.0326418 0)
(0 -0.0286399 0)
(0 -0.025258 0)
(0 -0.0223751 0)
(0 -0.0198985 0)
(0 -0.0177565 0)
(0 -0.0158926 0)
(0 -0.0142621 0)
(0 -0.0128291 0)
(0 -0.0115645 0)
(0 -0.0104446 0)
(0 -0.00945001 0)
(0 -0.00856439 0)
(0 -0.00777421 0)
(0 -0.00706795 0)
(0 -0.00643577 0)
(0 -0.0058692 0)
(0 -0.00536086 0)
(0 -0.00490428 0)
(0 -0.00449377 0)
(0 -0.00412428 0)
(0 -0.00379135 0)
(0 -0.00349097 0)
(0 -0.00321962 0)
(0 -0.00297415 0)
(0 -0.00275177 0)
(0 -0.00255002 0)
(0 -0.00236674 0)
(0 -0.00220002 0)
(0 -0.00204818 0)
(0 -0.0019098 0)
(0 -0.00178359 0)
(0 -0.00166847 0)
(0 -0.00156342 0)
(0 -0.00146745 0)
(0 -0.00137945 0)
(0 -0.00129844 0)
(0 -0.00122381 0)
(0 -0.00115428 0)
(-5.39001e-19 -0.00108868 0)
(0 -0.00102691 0)
(0 -0.000969474 0)
(5.26232e-19 -0.000916889 0)
(0 -0.000868264 0)
(-5.16961e-19 -0.000822308 0)
(0 -0.000777838 0)
(2.53399e-19 -0.000733381 0)
(0 -0.000687977 0)
(0 -0.000640324 0)
(0 -0.000589272 0)
(2.41395e-19 -0.000535977 0)
(0 -0.000481491 0)
(0 -0.000426206 0)
(0 -0.000371752 0)
(0 -0.000320016 0)
(0 -0.000272116 0)
(-5.42537e-20 -0.000228401 0)
(0 -0.000189708 0)
(-5.17146e-20 -0.000156547 0)
(0 -0.000128165 0)
(-2.44576e-20 -0.000104111 0)
(0 -8.41835e-05 0)
(0 -6.76646e-05 0)
(0 -5.40999e-05 0)
(0 -4.29288e-05 0)
(0 -3.40074e-05 0)
(9.79207e-21 -2.66815e-05 0)
(0 -2.09703e-05 0)
(0 -1.61258e-05 0)
(0 -1.28327e-05 0)
(0 -9.46316e-06 0)
(0 -7.3336e-06 0)
(0 -2.79904e-06 0)
(0 -2.40668e-06 0)
(0 -2.91972e-06 0)
(0 -2.13668e-06 0)
(0 -1.23616e-06 0)
(0 -6.3898e-07 0)
(0 -3.44869e-07 0)
(0 -1.46317e-07 0)
(-1.2272e-45 -1.81435e-18 0)
(4.46337e-48 -3.84765e-30 0)
(0 -1.24418e-32 0)
(0 -1.41182e-32 0)
(-8.83097e-49 -7.64946e-33 0)
(0 -2.44722e-33 0)
(0 -9.1692e-34 0)
(-8.22274e-50 -3.9546e-34 0)
(0 -1.92749e-34 0)
(0 -1.26051e-34 0)
(0 -1.08182e-34 0)
(0 -6.97843e-35 0)
(0 -2.55499e-35 0)
(0 -7.65119e-36 0)
(0 -2.41764e-36 0)
(0 -6.22847e-37 0)
(0 -7.13807e-38 0)
(0 -1.7882e-39 0)
(0 -1.81718e-41 0)
(0 -1.64175e-43 0)
(0 -1.56426e-45 0)
(0 -1.47614e-47 0)
(0 -1.26063e-49 0)
(0 -9.3775e-52 0)
(0 -3.91035e-54 0)
(0 -1.3552e-55 0)
(0 -6.47283e-56 0)
(0 -3.03634e-56 0)
(0 -1.39803e-56 0)
(0 -6.31418e-57 0)
(0 -2.79556e-57 0)
(0 -1.21247e-57 0)
(0 -5.14757e-58 0)
(0 -2.13761e-58 0)
(0 -8.67547e-59 0)
(0 -3.43809e-59 0)
(0 -1.32922e-59 0)
(0 -5.0085e-60 0)
(0 -1.83734e-60 0)
(0 -6.55474e-61 0)
(0 -2.27132e-61 0)
(0 -7.63482e-62 0)
(0 -2.48604e-62 0)
(1.21429e-78 -7.82976e-63 0)
(0 -2.38129e-63 0)
(0 -6.98109e-64 0)
(0 -1.96897e-64 0)
(0 -5.33129e-65 0)
(0 -1.38256e-65 0)
(0 -3.42505e-66 0)
(0 -8.08214e-67 0)
(0 -1.81074e-67 0)
(0 -3.83773e-68 0)
(9.47227e-85 -7.66275e-69 0)
(0 -1.43459e-69 0)
(0 -2.50449e-70 0)
(-3.48364e-87 -4.0511e-71 0)
(0 -6.02535e-72 0)
(0 -8.165e-73 0)
(0 -9.96761e-74 0)
(0 -1.0807e-74 0)
(0 -1.02158e-75 0)
(0 -8.21163e-77 0)
(0 -5.41567e-78 0)
(0 -2.77255e-79 0)
(0 -9.99194e-81 0)
(0 -2.03116e-82 0)
(0 -7.61254e-85 0)
(0 -3.90426e-89 0)
(0 -3.7235e-91 0)
(0 -1.7615e-93 0)
(0 -5.91966e-104 0)
(0 -9.90878e-115 0)
(0 -1.17975e-125 0)
(0 -1.01458e-136 0)
(0 -7.3582e-148 0)
(0 -4.08978e-159 0)
(0 -1.94881e-170 0)
(0 -2.03287e-180 0)
(0 -8.35671e-191 0)
(0 -6.79539e-199 0)
(0 -2.49505e-209 0)
(0 -2.33738e-217 0)
(0 -9.97173e-228 0)
(0 -8.04186e-236 0)
(0 -4.19439e-246 0)
(0 -2.76923e-254 0)
(0 -2.63975e-264 0)
(0 -9.66741e-273 0)
(0 -1.71866e-282 0)
(0 -3.44119e-291 0)
(0 -8.44696e-301 0)
(0 -1.24744e-309 0)
(0 -3.99294e-319 0)
(0 -0 0)
(0 0 0)
(0 0 0)
(0 0 0)
(0 0 0)
(0 0 0)
(0 0 0)
(0 0 0)
(0 0 0)
(0 0 0)
(0 0 0)
(0 0 0)
(0 0 0)
(0 0 0)
(0 0 0)
(0 0 0)
(0 0 0)
(0 0 0)
(0 0 0)
(0 0 0)
(0 0 0)
(0 0 0)
(0 0 0)
)
;

boundaryField
{
    inandouthalf11
    {
        type            cyclic;
    }
    inandouthalf12
    {
        type            cyclic;
    }
    inandouthalf21
    {
        type            cyclic;
    }
    inandouthalf22
    {
        type            cyclic;
    }
    inandouthalf31
    {
        type            cyclic;
    }
    inandouthalf32
    {
        type            cyclic;
    }
    inandouthalf41
    {
        type            cyclic;
    }
    inandouthalf42
    {
        type            cyclic;
    }
    top
    {
        type            symmetryPlane;
    }
    walls
    {
        type            zeroGradient;
    }
    frontAndBackPlanes
    {
        type            empty;
    }
}


// ************************************************************************* //
