/*--------------------------------*- C++ -*----------------------------------*\
| =========                 |                                                 |
| \\      /  F ield         | OpenFOAM: The Open Source CFD Toolbox           |
|  \\    /   O peration     | Version:  2.4.x                                 |
|   \\  /    A nd           | Web:      www.OpenFOAM.org                      |
|    \\/     M anipulation  |                                                 |
\*---------------------------------------------------------------------------*/
FoamFile
{
    version     2.0;
    format      ascii;
    class       volTensorField;
    location    "7";
    object      Tauf;
}
// * * * * * * * * * * * * * * * * * * * * * * * * * * * * * * * * * * * * * //

dimensions      [0 2 -2 0 0 0 0];

internalField   nonuniform List<tensor> 
360
(
(0 3.35268e-07 0 3.35268e-07 4.49556e-10 0 0 0 0)
(0 -1.00684e-09 0 -1.00684e-09 5.52694e-10 0 0 0 0)
(0 -4.77491e-11 0 -4.77491e-11 5.70081e-10 0 0 0 0)
(0 1.66346e-10 0 1.66346e-10 5.37079e-10 0 0 0 0)
(-2.58494e-23 7.50899e-11 0 7.50899e-11 5.35631e-10 0 0 0 0)
(-2.58494e-23 3.45339e-11 0 3.45339e-11 5.45094e-10 0 0 0 0)
(-2.58494e-23 4.09883e-11 0 4.09883e-11 5.50644e-10 0 0 0 0)
(0 4.7187e-11 0 4.7187e-11 5.52744e-10 0 0 0 0)
(-5.16988e-23 4.8328e-11 0 4.8328e-11 5.54497e-10 0 0 0 0)
(0 4.9034e-11 0 4.9034e-11 5.57139e-10 0 0 0 0)
(-5.16988e-23 4.89036e-11 0 4.89036e-11 5.60509e-10 0 0 0 0)
(0 4.85064e-11 0 4.85064e-11 5.64101e-10 0 0 0 0)
(-2.58494e-23 4.83592e-11 0 4.83592e-11 5.67635e-10 0 0 0 0)
(0 4.8272e-11 0 4.8272e-11 5.71047e-10 0 0 0 0)
(0 4.84799e-11 0 4.84799e-11 5.74435e-10 0 0 0 0)
(0 4.87279e-11 0 4.87279e-11 5.77912e-10 0 0 0 0)
(0 4.87656e-11 0 4.87656e-11 5.81495e-10 0 0 0 0)
(-2.58494e-23 4.8687e-11 0 4.8687e-11 5.85129e-10 0 0 0 0)
(0 4.89263e-11 0 4.89263e-11 5.88819e-10 0 0 0 0)
(0 4.88414e-11 0 4.88414e-11 5.92529e-10 0 0 0 0)
(0 4.87818e-11 0 4.87818e-11 5.96227e-10 0 0 0 0)
(-2.58494e-23 4.90502e-11 0 4.90502e-11 5.99971e-10 0 0 0 0)
(0 4.90107e-11 0 4.90107e-11 6.03758e-10 0 0 0 0)
(0 4.90759e-11 0 4.90759e-11 6.07571e-10 0 0 0 0)
(0 4.91437e-11 0 4.91437e-11 6.11402e-10 0 0 0 0)
(-5.16988e-23 4.90267e-11 0 4.90267e-11 6.15217e-10 0 0 0 0)
(0 4.91904e-11 0 4.91904e-11 6.19049e-10 0 0 0 0)
(0 4.93784e-11 0 4.93784e-11 6.22928e-10 0 0 0 0)
(0 4.9236e-11 0 4.9236e-11 6.2679e-10 0 0 0 0)
(0 4.91999e-11 0 4.91999e-11 6.30585e-10 0 0 0 0)
(0 4.95314e-11 0 4.95314e-11 6.34369e-10 0 0 0 0)
(0 4.92436e-11 0 4.92436e-11 6.38057e-10 0 0 0 0)
(0 4.9467e-11 0 4.9467e-11 6.41668e-10 0 0 0 0)
(0 4.96928e-11 0 4.96928e-11 6.45208e-10 0 0 0 0)
(0 4.94474e-11 0 4.94474e-11 6.4856e-10 0 0 0 0)
(2.58494e-23 4.95459e-11 0 4.95459e-11 6.51713e-10 0 0 0 0)
(0 4.95876e-11 0 4.95876e-11 6.54662e-10 0 0 0 0)
(0 5.01501e-11 0 5.01501e-11 6.57518e-10 0 0 0 0)
(0 4.96261e-11 0 4.96261e-11 6.60109e-10 0 0 0 0)
(0 4.9848e-11 0 4.9848e-11 6.62449e-10 0 0 0 0)
(0 5.05313e-11 0 5.05313e-11 6.64702e-10 0 0 0 0)
(0 4.98301e-11 0 4.98301e-11 6.6668e-10 0 0 0 0)
(5.16988e-23 5.03534e-11 0 5.03534e-11 6.68557e-10 0 0 0 0)
(0 5.07516e-11 0 5.07516e-11 6.70472e-10 0 0 0 0)
(0 5.05814e-11 0 5.05814e-11 6.72385e-10 0 0 0 0)
(0 5.11642e-11 0 5.11642e-11 6.74441e-10 0 0 0 0)
(0 5.07403e-11 0 5.07403e-11 6.76543e-10 0 0 0 0)
(0 5.07338e-11 0 5.07338e-11 6.78798e-10 0 0 0 0)
(0 5.19499e-11 0 5.19499e-11 6.81627e-10 0 0 0 0)
(0 5.15819e-11 0 5.15819e-11 6.84883e-10 0 0 0 0)
(2.58494e-23 5.13768e-11 0 5.13768e-11 6.88438e-10 0 0 0 0)
(0 5.18546e-11 0 5.18546e-11 6.92295e-10 0 0 0 0)
(0 5.19739e-11 0 5.19739e-11 6.96347e-10 0 0 0 0)
(0 5.17634e-11 0 5.17634e-11 7.00338e-10 0 0 0 0)
(0 5.2142e-11 0 5.2142e-11 7.04133e-10 0 0 0 0)
(0 5.21969e-11 0 5.21969e-11 7.07421e-10 0 0 0 0)
(0 5.21599e-11 0 5.21599e-11 7.09847e-10 0 0 0 0)
(0 5.27739e-11 0 5.27739e-11 7.11253e-10 0 0 0 0)
(0 5.22991e-11 0 5.22991e-11 7.11149e-10 0 0 0 0)
(0 5.33848e-11 0 5.33848e-11 7.09641e-10 0 0 0 0)
(0 5.41286e-11 0 5.41286e-11 7.06585e-10 0 0 0 0)
(0 5.46757e-11 0 5.46757e-11 7.01762e-10 0 0 0 0)
(0 5.58763e-11 0 5.58763e-11 6.95069e-10 0 0 0 0)
(0 5.66536e-11 0 5.66536e-11 6.86254e-10 0 0 0 0)
(0 5.78017e-11 0 5.78017e-11 6.75346e-10 0 0 0 0)
(0 5.92492e-11 0 5.92492e-11 6.62555e-10 0 0 0 0)
(0 6.11098e-11 0 6.11098e-11 6.48342e-10 0 0 0 0)
(0 6.26953e-11 0 6.26953e-11 6.332e-10 0 0 0 0)
(0 6.40308e-11 0 6.40308e-11 6.17715e-10 0 0 0 0)
(0 6.63869e-11 0 6.63869e-11 6.02866e-10 0 0 0 0)
(0 6.91714e-11 0 6.91714e-11 5.89681e-10 0 0 0 0)
(0 7.01711e-11 0 7.01711e-11 5.78577e-10 0 0 0 0)
(0 7.17958e-11 0 7.17958e-11 5.70285e-10 0 0 0 0)
(0 7.37227e-11 0 7.37227e-11 5.65459e-10 0 0 0 0)
(0 7.48478e-11 0 7.48478e-11 5.64584e-10 0 0 0 0)
(0 7.53218e-11 0 7.53218e-11 5.6807e-10 0 0 0 0)
(0 7.50143e-11 0 7.50143e-11 5.76225e-10 0 0 0 0)
(0 7.48583e-11 0 7.48583e-11 5.89716e-10 0 0 0 0)
(0 7.4015e-11 0 7.4015e-11 6.09244e-10 0 0 0 0)
(0 7.21181e-11 0 7.21181e-11 6.35559e-10 0 0 0 0)
(0 6.95316e-11 0 6.95316e-11 6.69513e-10 0 0 0 0)
(0 6.62392e-11 0 6.62392e-11 7.11992e-10 0 0 0 0)
(0 6.15565e-11 0 6.15565e-11 7.63591e-10 0 0 0 0)
(0 5.5573e-11 0 5.5573e-11 8.24477e-10 0 0 0 0)
(0 4.82355e-11 0 4.82355e-11 8.94e-10 0 0 0 0)
(0 3.96605e-11 0 3.96605e-11 9.70362e-10 0 0 0 0)
(0 3.00937e-11 0 3.00937e-11 1.05021e-09 0 0 0 0)
(0 2.00904e-11 0 2.00904e-11 1.12839e-09 0 0 0 0)
(0 1.07921e-11 0 1.07921e-11 1.19803e-09 0 0 0 0)
(0 3.24792e-12 0 3.24792e-12 1.25099e-09 0 0 0 0)
(0 -1.29104e-12 0 -1.29104e-12 1.27873e-09 0 0 0 0)
(0 -1.41178e-12 0 -1.41178e-12 1.27383e-09 0 0 0 0)
(0 3.83582e-12 0 3.83582e-12 1.23168e-09 0 0 0 0)
(0 1.47861e-11 0 1.47861e-11 1.15184e-09 0 0 0 0)
(0 3.11834e-11 0 3.11834e-11 1.03881e-09 0 0 0 0)
(0 5.19971e-11 0 5.19971e-11 9.0158e-10 0 0 0 0)
(0 7.56325e-11 0 7.56325e-11 7.51993e-10 0 0 0 0)
(0 1.00298e-10 0 1.00298e-10 6.0242e-10 0 0 0 0)
(0 1.24358e-10 0 1.24358e-10 4.63471e-10 0 0 0 0)
(0 1.46564e-10 0 1.46564e-10 3.42443e-10 0 0 0 0)
(0 1.66209e-10 0 1.66209e-10 2.42836e-10 0 0 0 0)
(0 1.83108e-10 0 1.83108e-10 1.64832e-10 0 0 0 0)
(0 1.97436e-10 0 1.97436e-10 1.06311e-10 0 0 0 0)
(0 2.09584e-10 0 2.09584e-10 6.3968e-11 0 0 0 0)
(0 2.2004e-10 0 2.2004e-10 3.42227e-11 0 0 0 0)
(0 2.29276e-10 0 2.29276e-10 1.37956e-11 0 0 0 0)
(0 2.377e-10 0 2.377e-10 -1.85626e-14 0 0 0 0)
(0 2.45643e-10 0 2.45643e-10 -9.29358e-12 0 0 0 0)
(0 2.53357e-10 0 2.53357e-10 -1.55359e-11 0 0 0 0)
(0 2.61023e-10 0 2.61023e-10 -1.97963e-11 0 0 0 0)
(0 2.68775e-10 0 2.68775e-10 -2.27848e-11 0 0 0 0)
(0 2.76706e-10 0 2.76706e-10 -2.49705e-11 0 0 0 0)
(0 2.84885e-10 0 2.84885e-10 -2.66582e-11 0 0 0 0)
(0 2.93364e-10 0 2.93364e-10 -2.80435e-11 0 0 0 0)
(0 3.02185e-10 0 3.02185e-10 -2.92512e-11 0 0 0 0)
(0 3.11382e-10 0 3.11382e-10 -3.03609e-11 0 0 0 0)
(0 3.20988e-10 0 3.20988e-10 -3.14237e-11 0 0 0 0)
(0 3.31035e-10 0 3.31035e-10 -3.24728e-11 0 0 0 0)
(0 3.41555e-10 0 3.41555e-10 -3.353e-11 0 0 0 0)
(0 3.52581e-10 0 3.52581e-10 -3.461e-11 0 0 0 0)
(0 3.64142e-10 0 3.64142e-10 -3.5723e-11 0 0 0 0)
(0 3.76262e-10 0 3.76262e-10 -3.68761e-11 0 0 0 0)
(0 3.8897e-10 0 3.8897e-10 -3.80762e-11 0 0 0 0)
(0 4.02311e-10 0 4.02311e-10 -3.93317e-11 0 0 0 0)
(0 4.16385e-10 0 4.16385e-10 -4.06556e-11 0 0 0 0)
(0 4.3138e-10 0 4.3138e-10 -4.20653e-11 0 0 0 0)
(0 4.47559e-10 0 4.47559e-10 -4.35788e-11 0 0 0 0)
(0 4.65162e-10 0 4.65162e-10 -4.52046e-11 0 0 0 0)
(0 4.8421e-10 0 4.8421e-10 -4.69365e-11 0 0 0 0)
(0 5.04405e-10 0 5.04405e-10 -4.87728e-11 0 0 0 0)
(0 5.25519e-10 0 5.25519e-10 -5.07728e-11 0 0 0 0)
(0 5.48546e-10 0 5.48546e-10 -5.30731e-11 0 0 0 0)
(0 5.76305e-10 0 5.76305e-10 -5.57415e-11 0 0 0 0)
(0 6.10675e-10 0 6.10675e-10 -5.86408e-11 0 0 0 0)
(0 6.48209e-10 0 6.48209e-10 -6.17043e-11 0 0 0 0)
(0 6.83843e-10 0 6.83843e-10 -6.53297e-11 0 0 0 0)
(0 7.23326e-10 0 7.23326e-10 -7.03469e-11 0 0 0 0)
(0 7.87453e-10 0 7.87453e-10 -7.71823e-11 0 0 0 0)
(0 8.90642e-10 0 8.90642e-10 -8.36702e-11 0 0 0 0)
(0 9.9109e-10 0 9.9109e-10 -8.70921e-11 0 0 0 0)
(0 1.00751e-09 0 1.00751e-09 -9.83925e-11 0 0 0 0)
(0 1.08478e-09 0 1.08478e-09 -1.14765e-10 0 0 0 0)
(0 1.36318e-09 0 1.36318e-09 -1.32191e-10 0 0 0 0)
(0 1.73651e-09 0 1.73651e-09 -2.0511e-10 0 0 0 0)
(0 2.80331e-09 0 2.80331e-09 -4.56903e-10 0 0 0 0)
(0 7.30201e-09 0 7.30201e-09 -2.00351e-09 0 0 0 0)
(0 7.63594e-09 0 7.63594e-09 2.1862e-08 0 0 0 0)
(0 5.47326e-09 0 5.47326e-09 -6.77701e-08 0 0 0 0)
(0 -1.43057e-07 0 -1.43057e-07 2.0564e-07 0 0 0 0)
(0 -5.58369e-05 0 -5.58369e-05 3.65644e-06 0 0 0 0)
(0 -0.000416218 0 -0.000416218 -1.02472e-07 0 0 0 0)
(0 -0.000877865 0 -0.000877865 -3.04391e-05 0 0 0 0)
(0 -0.00104643 0 -0.00104643 2.48961e-06 0 0 0 0)
(0 -0.00118981 0 -0.00118981 -1.76262e-05 0 0 0 0)
(0 -0.00131336 0 -0.00131336 -4.69196e-06 0 0 0 0)
(0 -0.0014199 0 -0.0014199 -6.70102e-06 0 0 0 0)
(0 -0.00151207 0 -0.00151207 -5.86299e-06 0 0 0 0)
(0 -0.00159216 0 -0.00159216 -4.9227e-06 0 0 0 0)
(0 -0.00166201 0 -0.00166201 -4.17381e-06 0 0 0 0)
(0 -0.00172311 0 -0.00172311 -3.59204e-06 0 0 0 0)
(0 -0.00177667 0 -0.00177667 -3.11204e-06 0 0 0 0)
(0 -0.00182364 0 -0.00182364 -2.70613e-06 0 0 0 0)
(0 -0.00186483 0 -0.00186483 -2.36201e-06 0 0 0 0)
(0 -0.00190089 0 -0.00190089 -2.06988e-06 0 0 0 0)
(0 -0.00193237 0 -0.00193237 -1.82077e-06 0 0 0 0)
(0 -0.00195972 0 -0.00195972 -1.60716e-06 0 0 0 0)
(0 -0.00198333 0 -0.00198333 -1.42302e-06 0 0 0 0)
(0 -0.00200353 0 -0.00200353 -1.26354e-06 0 0 0 0)
(0 -0.00202059 0 -0.00202059 -1.12482e-06 0 0 0 0)
(0 -0.00203476 0 -0.00203476 -1.00371e-06 0 0 0 0)
(0 -0.00204626 0 -0.00204626 -8.97605e-07 0 0 0 0)
(0 -0.00205526 0 -0.00205526 -8.04354e-07 0 0 0 0)
(0 -0.00206193 0 -0.00206193 -7.22168e-07 0 0 0 0)
(0 -0.00206642 0 -0.00206642 -6.49544e-07 0 0 0 0)
(0 -0.00206887 0 -0.00206887 -5.8521e-07 0 0 0 0)
(0 -0.00206939 0 -0.00206939 -5.28082e-07 0 0 0 0)
(0 -0.00206809 0 -0.00206809 -4.77235e-07 0 0 0 0)
(0 -0.00206508 0 -0.00206508 -4.31872e-07 0 0 0 0)
(0 -0.00206045 0 -0.00206045 -3.91312e-07 0 0 0 0)
(0 -0.00205428 0 -0.00205428 -3.54962e-07 0 0 0 0)
(0 -0.00204666 0 -0.00204666 -3.22316e-07 0 0 0 0)
(0 -0.00203766 0 -0.00203766 -2.92932e-07 0 0 0 0)
(0 -0.00202736 0 -0.00202736 -2.66431e-07 0 0 0 0)
(0 -0.00201582 0 -0.00201582 -2.42483e-07 0 0 0 0)
(0 -0.0020031 0 -0.0020031 -2.20803e-07 0 0 0 0)
(0 -0.00198926 0 -0.00198926 -2.01144e-07 0 0 0 0)
(0 -0.00197436 0 -0.00197436 -1.83289e-07 0 0 0 0)
(0 -0.00195846 0 -0.00195846 -1.67053e-07 0 0 0 0)
(0 -0.0019416 0 -0.0019416 -1.52269e-07 0 0 0 0)
(0 -0.00192384 0 -0.00192384 -1.38796e-07 0 0 0 0)
(0 -0.00190522 0 -0.00190522 -1.26506e-07 0 0 0 0)
(0 -0.00188578 0 -0.00188578 -1.15287e-07 0 0 0 0)
(0 -0.00186557 0 -0.00186557 -1.0504e-07 0 0 0 0)
(0 -0.00184463 0 -0.00184463 -9.56771e-08 0 0 0 0)
(0 -0.00182299 0 -0.00182299 -8.71177e-08 0 0 0 0)
(0 -0.00180069 0 -0.00180069 -7.92903e-08 0 0 0 0)
(0 -0.00177777 0 -0.00177777 -7.21275e-08 0 0 0 0)
(0 -0.00175426 0 -0.00175426 -6.5565e-08 0 0 0 0)
(0 -0.00173019 0 -0.00173019 -5.95427e-08 0 0 0 0)
(0 -0.00170561 0 -0.00170561 -5.4009e-08 0 0 0 0)
(0 -0.00168055 0 -0.00168055 -4.89216e-08 0 0 0 0)
(0 -0.00165484 0 -0.00165484 -4.42007e-08 0 0 0 0)
(2.43418e-17 -0.00162824 0 -0.00162824 -3.97807e-08 0 0 0 0)
(0 -0.00160076 0 -0.00160076 -3.5656e-08 0 0 0 0)
(0 -0.00157238 0 -0.00157238 -3.18252e-08 0 0 0 0)
(-2.27613e-17 -0.00154308 0 -0.00154308 -2.82777e-08 0 0 0 0)
(0 -0.00151286 0 -0.00151286 -2.49878e-08 0 0 0 0)
(2.16931e-17 -0.00148168 0 -0.00148168 -2.19277e-08 0 0 0 0)
(0 -0.00144955 0 -0.00144955 -1.90776e-08 0 0 0 0)
(-2.0614e-17 -0.00141643 0 -0.00141643 -1.64282e-08 0 0 0 0)
(0 -0.00138233 0 -0.00138233 -1.39781e-08 0 0 0 0)
(0 -0.00134722 0 -0.00134722 -1.17307e-08 0 0 0 0)
(0 -0.00131111 0 -0.00131111 -9.69657e-09 0 0 0 0)
(-1.84272e-17 -0.00127398 0 -0.00127398 -7.89188e-09 0 0 0 0)
(0 -0.00123584 0 -0.00123584 -6.32433e-09 0 0 0 0)
(0 -0.0011967 0 -0.0011967 -4.99027e-09 0 0 0 0)
(0 -0.00115655 0 -0.00115655 -3.88017e-09 0 0 0 0)
(0 -0.00111541 0 -0.00111541 -2.97775e-09 0 0 0 0)
(0 -0.00107331 0 -0.00107331 -2.25864e-09 0 0 0 0)
(1.50975e-17 -0.00103027 0 -0.00103027 -1.69519e-09 0 0 0 0)
(0 -0.000986325 0 -0.000986325 -1.26136e-09 0 0 0 0)
(1.39832e-17 -0.000941515 0 -0.000941515 -9.32297e-10 0 0 0 0)
(0 -0.000895895 0 -0.000895895 -6.84762e-10 0 0 0 0)
(1.28723e-17 -0.000849527 0 -0.000849527 -4.99835e-10 0 0 0 0)
(0 -0.000802486 0 -0.000802486 -3.62795e-10 0 0 0 0)
(0 -0.00075486 0 -0.00075486 -2.61807e-10 0 0 0 0)
(0 -0.000706753 0 -0.000706753 -1.87673e-10 0 0 0 0)
(0 -0.000658288 0 -0.000658288 -1.33594e-10 0 0 0 0)
(-1.01459e-17 -0.000609606 0 -0.000609606 -9.44137e-11 0 0 0 0)
(-9.61674e-18 -0.000560869 0 -0.000560869 -6.61781e-11 0 0 0 0)
(0 -0.000512266 0 -0.000512266 -4.58654e-11 0 0 0 0)
(0 -0.000464011 0 -0.000464011 -3.15968e-11 0 0 0 0)
(0 -0.000416346 0 -0.000416346 -2.1804e-11 0 0 0 0)
(0 -0.000369543 0 -0.000369543 -1.53347e-11 0 0 0 0)
(0 -0.000323901 0 -0.000323901 -6.56547e-13 0 0 0 0)
(0 -0.000279747 0 -0.000279747 -1.08026e-11 0 0 0 0)
(0 -0.000237428 0 -0.000237428 -4.01548e-11 0 0 0 0)
(0 -0.000197293 0 -0.000197293 -2.51996e-11 0 0 0 0)
(0 -0.000159693 0 -0.000159693 4.97885e-13 0 0 0 0)
(0 -0.000124961 0 -0.000124961 5.64625e-12 0 0 0 0)
(0 -9.33794e-05 0 -9.33794e-05 9.36379e-12 0 0 0 0)
(0 -6.51586e-05 0 -6.51586e-05 9.15435e-12 0 0 0 0)
(0 -4.04254e-05 0 -4.04254e-05 -1.3467e-13 0 0 0 0)
(7.68206e-18 -1.92144e-05 0 -1.92144e-05 -2.79503e-12 0 0 0 0)
(-7.15757e-18 -1.47386e-06 0 -1.47386e-06 6.37433e-13 0 0 0 0)
(0 1.29207e-05 0 1.29207e-05 1.0723e-13 0 0 0 0)
(0 2.4147e-05 0 2.4147e-05 -1.85684e-14 0 0 0 0)
(5.67893e-18 3.24184e-05 0 3.24184e-05 -2.73251e-14 0 0 0 0)
(0 3.79708e-05 0 3.79708e-05 -1.99858e-15 0 0 0 0)
(0 4.10545e-05 0 4.10545e-05 3.16168e-13 0 0 0 0)
(4.24686e-18 4.193e-05 0 4.193e-05 -9.6005e-13 0 0 0 0)
(0 4.08655e-05 0 4.08655e-05 1.74332e-12 0 0 0 0)
(0 3.81349e-05 0 3.81349e-05 -2.47366e-12 0 0 0 0)
(0 3.40172e-05 0 3.40172e-05 3.03818e-12 0 0 0 0)
(0 2.87976e-05 0 2.87976e-05 -3.32425e-12 0 0 0 0)
(0 2.27741e-05 0 2.27741e-05 3.28985e-12 0 0 0 0)
(0 1.62772e-05 0 1.62772e-05 -2.89842e-12 0 0 0 0)
(0 9.74833e-06 0 9.74833e-06 2.18092e-12 0 0 0 0)
(0 3.47999e-06 0 3.47999e-06 -1.17757e-12 0 0 0 0)
(0 3.90542e-07 0 3.90542e-07 3.39553e-13 0 0 0 0)
(0 2.64503e-08 0 2.64503e-08 -1.70584e-13 0 0 0 0)
(0 9.31518e-10 0 9.31518e-10 1.62124e-13 0 0 0 0)
(0 5.39443e-11 0 5.39443e-11 -1.59471e-13 0 0 0 0)
(0 2.68474e-11 0 2.68474e-11 1.57248e-13 0 0 0 0)
(0 1.9886e-11 0 1.9886e-11 -1.54902e-13 0 0 0 0)
(0 1.48396e-11 0 1.48396e-11 1.5282e-13 0 0 0 0)
(0 1.10121e-11 0 1.10121e-11 -1.50672e-13 0 0 0 0)
(0 8.12277e-12 0 8.12277e-12 1.48718e-13 0 0 0 0)
(0 5.95442e-12 0 5.95442e-12 -1.46712e-13 0 0 0 0)
(0 4.33754e-12 0 4.33754e-12 1.44847e-13 0 0 0 0)
(0 3.13958e-12 0 3.13958e-12 -1.4293e-13 0 0 0 0)
(0 2.25753e-12 0 2.25753e-12 1.41129e-13 0 0 0 0)
(0 1.61224e-12 0 1.61224e-12 -1.39268e-13 0 0 0 0)
(0 1.1438e-12 0 1.1438e-12 1.3749e-13 0 0 0 0)
(0 8.06203e-13 0 8.06203e-13 -1.35656e-13 0 0 0 0)
(0 5.63771e-13 0 5.63771e-13 1.33895e-13 0 0 0 0)
(0 3.91091e-13 0 3.91091e-13 -1.32057e-13 0 0 0 0)
(0 2.69535e-13 0 2.69535e-13 1.30292e-13 0 0 0 0)
(0 1.84623e-13 0 1.84623e-13 -1.28436e-13 0 0 0 0)
(0 1.25549e-13 0 1.25549e-13 1.26659e-13 0 0 0 0)
(0 8.45637e-14 0 8.45637e-14 -1.24786e-13 0 0 0 0)
(0 5.6298e-14 0 5.6298e-14 1.22972e-13 0 0 0 0)
(0 3.7413e-14 0 3.7413e-14 -1.21077e-13 0 0 0 0)
(0 2.45287e-14 0 2.45287e-14 1.19236e-13 0 0 0 0)
(0 1.59357e-14 0 1.59357e-14 -1.17302e-13 0 0 0 0)
(0 1.0402e-14 0 1.0402e-14 1.15429e-13 0 0 0 0)
(-7.5226e-20 6.58329e-15 0 6.58329e-15 -1.13461e-13 0 0 0 0)
(0 4.18223e-15 0 4.18223e-15 1.11554e-13 0 0 0 0)
(0 2.60139e-15 0 2.60139e-15 -1.09541e-13 0 0 0 0)
(0 1.5714e-15 0 1.5714e-15 1.07599e-13 0 0 0 0)
(0 1.07324e-15 0 1.07324e-15 -1.05551e-13 0 0 0 0)
(0 6.77666e-16 0 6.77666e-16 1.03578e-13 0 0 0 0)
(0 3.47979e-16 0 3.47979e-16 -1.01492e-13 0 0 0 0)
(0 1.93942e-16 0 1.93942e-16 9.94839e-14 0 0 0 0)
(0 2.28357e-16 0 2.28357e-16 -9.73648e-14 0 0 0 0)
(0 2.1019e-16 0 2.1019e-16 9.53221e-14 0 0 0 0)
(-6.15319e-20 -8.15913e-17 0 -8.15913e-17 -9.31904e-14 0 0 0 0)
(0 -1.18173e-16 0 -1.18173e-16 9.10892e-14 0 0 0 0)
(0 1.02848e-17 0 1.02848e-17 -8.89493e-14 0 0 0 0)
(5.79322e-20 8.44652e-17 0 8.44652e-17 8.68058e-14 0 0 0 0)
(0 9.23239e-17 0 9.23239e-17 -8.46468e-14 0 0 0 0)
(0 1.75855e-17 0 1.75855e-17 8.24767e-14 0 0 0 0)
(0 -6.34882e-17 0 -6.34882e-17 -8.02791e-14 0 0 0 0)
(0 -6.20916e-17 0 -6.20916e-17 7.8078e-14 0 0 0 0)
(0 2.78739e-17 0 2.78739e-17 -7.58498e-14 0 0 0 0)
(0 1.31411e-16 0 1.31411e-16 7.36152e-14 0 0 0 0)
(0 -4.74367e-17 0 -4.74367e-17 -7.13557e-14 0 0 0 0)
(0 -1.04307e-16 0 -1.04307e-16 6.90873e-14 0 0 0 0)
(0 8.22401e-17 0 8.22401e-17 -6.67938e-14 0 0 0 0)
(0 -7.79505e-18 0 -7.79505e-18 6.45307e-14 0 0 0 0)
(0 -1.01538e-16 0 -1.01538e-16 -7.11591e-14 0 0 0 0)
(0 -1.82112e-17 0 -1.82112e-17 7.03848e-14 0 0 0 0)
(0 5.01867e-17 0 5.01867e-17 -6.96376e-14 0 0 0 0)
(0 -4.89691e-18 0 -4.89691e-18 6.88904e-14 0 0 0 0)
(0 5.82335e-19 0 5.82335e-19 -6.81294e-14 0 0 0 0)
(0 5.16955e-17 0 5.16955e-17 6.73662e-14 0 0 0 0)
(0 -3.97047e-17 0 -3.97047e-17 -6.65902e-14 0 0 0 0)
(0 -1.42407e-17 0 -1.42407e-17 6.58097e-14 0 0 0 0)
(0 5.0372e-17 0 5.0372e-17 -6.5017e-14 0 0 0 0)
(0 -6.70744e-17 0 -6.70744e-17 6.42164e-14 0 0 0 0)
(0 -4.7275e-17 0 -4.7275e-17 -6.3404e-14 0 0 0 0)
(0 2.76874e-17 0 2.76874e-17 6.2585e-14 0 0 0 0)
(0 4.80691e-17 0 4.80691e-17 -6.17517e-14 0 0 0 0)
(0 1.26261e-17 0 1.26261e-17 6.09091e-14 0 0 0 0)
(0 -9.95264e-18 0 -9.95264e-18 -6.00541e-14 0 0 0 0)
(0 -9.92617e-18 0 -9.92617e-18 5.91892e-14 0 0 0 0)
(0 -3.08638e-17 0 -3.08638e-17 -5.83099e-14 0 0 0 0)
(0 4.51045e-17 0 4.51045e-17 5.74191e-14 0 0 0 0)
(0 7.33213e-18 0 7.33213e-18 -5.64981e-14 0 0 0 0)
(0 -8.89385e-18 0 -8.89385e-18 5.56086e-14 0 0 0 0)
(0 -4.92338e-18 0 -4.92338e-18 -5.46476e-14 0 0 0 0)
(0 -3.58401e-17 0 -3.58401e-17 5.3719e-14 0 0 0 0)
(0 2.8058e-18 0 2.8058e-18 -5.27305e-14 0 0 0 0)
(0 3.99958e-17 0 3.99958e-17 5.17649e-14 0 0 0 0)
(0 7.27919e-18 0 7.27919e-18 -5.0752e-14 0 0 0 0)
(0 -5.58512e-18 0 -5.58512e-18 4.97248e-14 0 0 0 0)
(0 -1.92171e-17 0 -1.92171e-17 -4.86719e-14 0 0 0 0)
(0 -4.97632e-18 0 -4.97632e-18 4.76177e-14 0 0 0 0)
(0 2.35581e-18 0 2.35581e-18 -4.65274e-14 0 0 0 0)
(0 -1.15038e-16 0 -1.15038e-16 4.53858e-14 0 0 0 0)
(0 -3.71556e-16 0 -3.71556e-16 -4.42659e-14 0 0 0 0)
(0 -8.20563e-19 0 -8.20563e-19 4.3056e-14 0 0 0 0)
(0 3.7595e-16 0 3.7595e-16 -4.19043e-14 0 0 0 0)
(0 1.08023e-16 0 1.08023e-16 4.05903e-14 0 0 0 0)
(0 -1.14349e-17 0 -1.14349e-17 -3.93741e-14 0 0 0 0)
(0 8.39092e-18 0 8.39092e-18 3.79887e-14 0 0 0 0)
(0 6.50892e-17 0 6.50892e-17 -3.66911e-14 0 0 0 0)
(0 2.8508e-17 0 2.8508e-17 3.5165e-14 0 0 0 0)
(0 -2.5861e-17 0 -2.5861e-17 -3.37851e-14 0 0 0 0)
(0 -8.88591e-17 0 -8.88591e-17 3.21113e-14 0 0 0 0)
(0 8.33798e-18 0 8.33798e-18 -3.0598e-14 0 0 0 0)
(0 1.14244e-16 0 1.14244e-16 2.87093e-14 0 0 0 0)
(0 5.91335e-17 0 5.91335e-17 -2.7032e-14 0 0 0 0)
(0 -1.99847e-17 0 -1.99847e-17 2.48761e-14 0 0 0 0)
(0 -4.31193e-17 0 -4.31193e-17 -2.28647e-14 0 0 0 0)
(0 -6.44804e-17 0 -6.44804e-17 2.03078e-14 0 0 0 0)
(0 -5.18014e-17 0 -5.18014e-17 -1.76535e-14 0 0 0 0)
(0 3.90694e-17 0 3.90694e-17 1.41187e-14 0 0 0 0)
(0 -3.80635e-17 0 -3.80635e-17 -1.02803e-14 0 0 0 0)
(0 -7.38507e-17 0 -7.38507e-17 5.04505e-15 0 0 0 0)
)
;

boundaryField
{
    inandouthalf11
    {
        type            cyclic;
    }
    inandouthalf12
    {
        type            cyclic;
    }
    inandouthalf21
    {
        type            cyclic;
    }
    inandouthalf22
    {
        type            cyclic;
    }
    inandouthalf31
    {
        type            cyclic;
    }
    inandouthalf32
    {
        type            cyclic;
    }
    inandouthalf41
    {
        type            cyclic;
    }
    inandouthalf42
    {
        type            cyclic;
    }
    top
    {
        type            symmetryPlane;
    }
    walls
    {
        type            zeroGradient;
    }
    frontAndBackPlanes
    {
        type            empty;
    }
}


// ************************************************************************* //
