/*--------------------------------*- C++ -*----------------------------------*\
| =========                 |                                                 |
| \\      /  F ield         | OpenFOAM: The Open Source CFD Toolbox           |
|  \\    /   O peration     | Version:  2.4.x                                 |
|   \\  /    A nd           | Web:      www.OpenFOAM.org                      |
|    \\/     M anipulation  |                                                 |
\*---------------------------------------------------------------------------*/
FoamFile
{
    version     2.0;
    format      ascii;
    class       volTensorField;
    location    "7";
    object      Taus;
}
// * * * * * * * * * * * * * * * * * * * * * * * * * * * * * * * * * * * * * //

dimensions      [0 2 -2 0 0 0 0];

internalField   nonuniform List<tensor> 
360
(
(0 -0.00587984 0 -0.00587984 -0.203329 0 0 0 0)
(0 -0.00861602 0 -0.00861602 -0.254571 0 0 0 0)
(0 -0.010758 0 -0.010758 -0.262084 0 0 0 0)
(0 -0.0107982 0 -0.0107982 -0.256015 0 0 0 0)
(2.34901e-18 -0.0107347 0 -0.0107347 -0.252654 0 0 0 0)
(9.10559e-18 -0.0109569 0 -0.0109569 -0.251388 0 0 0 0)
(9.00022e-18 -0.0112265 0 -0.0112265 -0.250056 0 0 0 0)
(0 -0.0114628 0 -0.0114628 -0.248446 0 0 0 0)
(8.83903e-18 -0.0116834 0 -0.0116834 -0.246801 0 0 0 0)
(0 -0.011897 0 -0.011897 -0.245134 0 0 0 0)
(8.61803e-18 -0.0121061 0 -0.0121061 -0.243453 0 0 0 0)
(0 -0.012314 0 -0.012314 -0.241788 0 0 0 0)
(1.67775e-17 -0.0125201 0 -0.0125201 -0.240123 0 0 0 0)
(0 -0.0127242 0 -0.0127242 -0.238461 0 0 0 0)
(0 -0.0129254 0 -0.0129254 -0.236796 0 0 0 0)
(0 -0.0131228 0 -0.0131228 -0.235122 0 0 0 0)
(0 -0.0133169 0 -0.0133169 -0.233441 0 0 0 0)
(3.13879e-17 -0.0135087 0 -0.0135087 -0.231762 0 0 0 0)
(0 -0.0136978 0 -0.0136978 -0.230081 0 0 0 0)
(0 -0.0138835 0 -0.0138835 -0.228387 0 0 0 0)
(0 -0.014068 0 -0.014068 -0.226707 0 0 0 0)
(1.48471e-17 -0.0142491 0 -0.0142491 -0.225012 0 0 0 0)
(0 -0.0144275 0 -0.0144275 -0.223316 0 0 0 0)
(0 -0.0146036 0 -0.0146036 -0.22162 0 0 0 0)
(0 -0.0147771 0 -0.0147771 -0.219918 0 0 0 0)
(2.80571e-17 -0.0149485 0 -0.0149485 -0.218214 0 0 0 0)
(0 -0.0151181 0 -0.0151181 -0.216514 0 0 0 0)
(0 -0.015284 0 -0.015284 -0.2148 0 0 0 0)
(0 -0.0154481 0 -0.0154481 -0.213088 0 0 0 0)
(0 -0.0156107 0 -0.0156107 -0.211376 0 0 0 0)
(0 -0.0157707 0 -0.0157707 -0.209662 0 0 0 0)
(0 -0.0159278 0 -0.0159278 -0.207934 0 0 0 0)
(0 -0.016085 0 -0.016085 -0.206228 0 0 0 0)
(0 -0.0162369 0 -0.0162369 -0.204488 0 0 0 0)
(0 -0.0163889 0 -0.0163889 -0.202771 0 0 0 0)
(-2.43386e-17 -0.0165385 0 -0.0165385 -0.201038 0 0 0 0)
(0 -0.0166871 0 -0.0166871 -0.199315 0 0 0 0)
(0 -0.0168319 0 -0.0168319 -0.19758 0 0 0 0)
(0 -0.0169742 0 -0.0169742 -0.195833 0 0 0 0)
(0 -0.0171187 0 -0.0171187 -0.194117 0 0 0 0)
(0 -0.0172565 0 -0.0172565 -0.192362 0 0 0 0)
(0 -0.0173943 0 -0.0173943 -0.190621 0 0 0 0)
(-4.44979e-17 -0.0175329 0 -0.0175329 -0.188893 0 0 0 0)
(0 -0.0176654 0 -0.0176654 -0.187133 0 0 0 0)
(0 -0.0177982 0 -0.0177982 -0.185392 0 0 0 0)
(0 -0.017928 0 -0.017928 -0.18364 0 0 0 0)
(0 -0.0180558 0 -0.0180558 -0.181879 0 0 0 0)
(0 -0.0181863 0 -0.0181863 -0.180142 0 0 0 0)
(0 -0.0183107 0 -0.0183107 -0.178382 0 0 0 0)
(0 -0.0184301 0 -0.0184301 -0.176604 0 0 0 0)
(-3.99017e-17 -0.0185531 0 -0.0185531 -0.174855 0 0 0 0)
(0 -0.0186718 0 -0.0186718 -0.173082 0 0 0 0)
(0 -0.0187886 0 -0.0187886 -0.171315 0 0 0 0)
(0 -0.0189031 0 -0.0189031 -0.169536 0 0 0 0)
(0 -0.0190181 0 -0.0190181 -0.167773 0 0 0 0)
(0 -0.0191275 0 -0.0191275 -0.16598 0 0 0 0)
(0 -0.0192394 0 -0.0192394 -0.164215 0 0 0 0)
(0 -0.0193465 0 -0.0193465 -0.162425 0 0 0 0)
(0 -0.0194544 0 -0.0194544 -0.160645 0 0 0 0)
(0 -0.0195629 0 -0.0195629 -0.158877 0 0 0 0)
(0 -0.0196635 0 -0.0196635 -0.157076 0 0 0 0)
(0 -0.019766 0 -0.019766 -0.155301 0 0 0 0)
(0 -0.0198635 0 -0.0198635 -0.153504 0 0 0 0)
(0 -0.0199608 0 -0.0199608 -0.151719 0 0 0 0)
(0 -0.0200568 0 -0.0200568 -0.14993 0 0 0 0)
(0 -0.0201523 0 -0.0201523 -0.148147 0 0 0 0)
(0 -0.0202444 0 -0.0202444 -0.146356 0 0 0 0)
(0 -0.0203343 0 -0.0203343 -0.144566 0 0 0 0)
(0 -0.0204247 0 -0.0204247 -0.142779 0 0 0 0)
(0 -0.0205145 0 -0.0205145 -0.140999 0 0 0 0)
(0 -0.0205951 0 -0.0205951 -0.139197 0 0 0 0)
(0 -0.0206722 0 -0.0206722 -0.137389 0 0 0 0)
(0 -0.0207521 0 -0.0207521 -0.135599 0 0 0 0)
(0 -0.0208242 0 -0.0208242 -0.133782 0 0 0 0)
(0 -0.0208933 0 -0.0208933 -0.131969 0 0 0 0)
(0 -0.0209587 0 -0.0209587 -0.13014 0 0 0 0)
(0 -0.0210261 0 -0.0210261 -0.128319 0 0 0 0)
(0 -0.0210924 0 -0.0210924 -0.126488 0 0 0 0)
(0 -0.021156 0 -0.021156 -0.124649 0 0 0 0)
(0 -0.0212182 0 -0.0212182 -0.122803 0 0 0 0)
(0 -0.0212802 0 -0.0212802 -0.120954 0 0 0 0)
(0 -0.0213387 0 -0.0213387 -0.119093 0 0 0 0)
(0 -0.0213936 0 -0.0213936 -0.117224 0 0 0 0)
(0 -0.0214454 0 -0.0214454 -0.115348 0 0 0 0)
(0 -0.0214937 0 -0.0214937 -0.113466 0 0 0 0)
(0 -0.0215387 0 -0.0215387 -0.11158 0 0 0 0)
(0 -0.0215804 0 -0.0215804 -0.109692 0 0 0 0)
(0 -0.0216202 0 -0.0216202 -0.107805 0 0 0 0)
(0 -0.0216583 0 -0.0216583 -0.105921 0 0 0 0)
(0 -0.0216945 0 -0.0216945 -0.104041 0 0 0 0)
(0 -0.0217297 0 -0.0217297 -0.102166 0 0 0 0)
(0 -0.0217646 0 -0.0217646 -0.100299 0 0 0 0)
(0 -0.0217992 0 -0.0217992 -0.0984377 0 0 0 0)
(0 -0.0218343 0 -0.0218343 -0.0965836 0 0 0 0)
(0 -0.0218707 0 -0.0218707 -0.0947357 0 0 0 0)
(0 -0.0219083 0 -0.0219083 -0.0928925 0 0 0 0)
(0 -0.0219468 0 -0.0219468 -0.091052 0 0 0 0)
(0 -0.0219856 0 -0.0219856 -0.0892117 0 0 0 0)
(0 -0.0220231 0 -0.0220231 -0.0873687 0 0 0 0)
(0 -0.0220577 0 -0.0220577 -0.0855203 0 0 0 0)
(0 -0.0220873 0 -0.0220873 -0.0836643 0 0 0 0)
(0 -0.0221102 0 -0.0221102 -0.0817989 0 0 0 0)
(0 -0.0221246 0 -0.0221246 -0.0799229 0 0 0 0)
(0 -0.0221293 0 -0.0221293 -0.0780361 0 0 0 0)
(0 -0.0221231 0 -0.0221231 -0.0761382 0 0 0 0)
(0 -0.0221054 0 -0.0221054 -0.0742297 0 0 0 0)
(0 -0.0220754 0 -0.0220754 -0.0723113 0 0 0 0)
(0 -0.0220327 0 -0.0220327 -0.0703836 0 0 0 0)
(0 -0.0219768 0 -0.0219768 -0.0684475 0 0 0 0)
(0 -0.0219074 0 -0.0219074 -0.066504 0 0 0 0)
(0 -0.0218242 0 -0.0218242 -0.0645541 0 0 0 0)
(0 -0.021727 0 -0.021727 -0.0625988 0 0 0 0)
(0 -0.0216156 0 -0.0216156 -0.0606392 0 0 0 0)
(0 -0.0214898 0 -0.0214898 -0.0586763 0 0 0 0)
(0 -0.0213495 0 -0.0213495 -0.0567112 0 0 0 0)
(0 -0.0211947 0 -0.0211947 -0.0547449 0 0 0 0)
(0 -0.0210252 0 -0.0210252 -0.0527785 0 0 0 0)
(0 -0.0208411 0 -0.0208411 -0.050813 0 0 0 0)
(0 -0.0206423 0 -0.0206423 -0.0488495 0 0 0 0)
(0 -0.0204288 0 -0.0204288 -0.046889 0 0 0 0)
(0 -0.0202008 0 -0.0202008 -0.0449323 0 0 0 0)
(0 -0.0199583 0 -0.0199583 -0.0429805 0 0 0 0)
(0 -0.0197014 0 -0.0197014 -0.0410345 0 0 0 0)
(0 -0.0194306 0 -0.0194306 -0.0390949 0 0 0 0)
(0 -0.0191459 0 -0.0191459 -0.0371625 0 0 0 0)
(0 -0.0188472 0 -0.0188472 -0.0352379 0 0 0 0)
(0 -0.0185339 0 -0.0185339 -0.0333219 0 0 0 0)
(0 -0.0182043 0 -0.0182043 -0.0314154 0 0 0 0)
(0 -0.0178571 0 -0.0178571 -0.0295195 0 0 0 0)
(0 -0.017492 0 -0.017492 -0.0276346 0 0 0 0)
(0 -0.0171103 0 -0.0171103 -0.0257609 0 0 0 0)
(0 -0.0167134 0 -0.0167134 -0.0238982 0 0 0 0)
(0 -0.0162971 0 -0.0162971 -0.022049 0 0 0 0)
(0 -0.0158496 0 -0.0158496 -0.0202187 0 0 0 0)
(0 -0.0153632 0 -0.0153632 -0.0184106 0 0 0 0)
(0 -0.0148492 0 -0.0148492 -0.0166183 0 0 0 0)
(0 -0.0143238 0 -0.0143238 -0.0148288 0 0 0 0)
(0 -0.0137704 0 -0.0137704 -0.0130502 0 0 0 0)
(0 -0.0131284 0 -0.0131284 -0.0113347 0 0 0 0)
(0 -0.0123659 0 -0.0123659 -0.00970568 0 0 0 0)
(0 -0.0115957 0 -0.0115957 -0.0080444 0 0 0 0)
(0 -0.010943 0 -0.010943 -0.00634307 0 0 0 0)
(0 -0.0101291 0 -0.0101291 -0.00476301 0 0 0 0)
(0 -0.00906197 0 -0.00906197 -0.00349299 0 0 0 0)
(0 -0.00784308 0 -0.00784308 -0.002452 0 0 0 0)
(0 -0.00535211 0 -0.00535211 -0.00461308 0 0 0 0)
(0 0.000193364 0 0.000193364 -0.00442048 0 0 0 0)
(0 2.87982e-05 0 2.87982e-05 -0.00322042 0 0 0 0)
(0 -0.000299735 0 -0.000299735 -0.00180403 0 0 0 0)
(0 -0.000241149 0 -0.000241149 -5.16741e-05 0 0 0 0)
(0 -0.000445631 0 -0.000445631 -6.58709e-05 0 0 0 0)
(0 -0.00094553 0 -0.00094553 -8.8964e-05 0 0 0 0)
(0 -0.00131652 0 -0.00131652 -0.000151383 0 0 0 0)
(0 -0.0017464 0 -0.0017464 -0.000182149 0 0 0 0)
(0 -0.0022193 0 -0.0022193 -0.000174424 0 0 0 0)
(0 -0.00273514 0 -0.00273514 -0.000147152 0 0 0 0)
(0 -0.00329494 0 -0.00329494 -0.000116312 0 0 0 0)
(0 -0.00389915 0 -0.00389915 -8.47653e-05 0 0 0 0)
(0 -0.00454913 0 -0.00454913 -5.27687e-05 0 0 0 0)
(0 -0.00524693 0 -0.00524693 -2.07034e-05 0 0 0 0)
(0 -0.00599483 0 -0.00599483 1.13661e-05 0 0 0 0)
(0 -0.00679526 0 -0.00679526 4.37281e-05 0 0 0 0)
(0 -0.00765073 0 -0.00765073 7.67662e-05 0 0 0 0)
(0 -0.00856379 0 -0.00856379 0.000110844 0 0 0 0)
(0 -0.009537 0 -0.009537 0.000146296 0 0 0 0)
(0 -0.0105728 0 -0.0105728 0.000183448 0 0 0 0)
(0 -0.0116736 0 -0.0116736 0.000222672 0 0 0 0)
(0 -0.0128416 0 -0.0128416 0.000264451 0 0 0 0)
(0 -0.0140788 0 -0.0140788 0.000309446 0 0 0 0)
(0 -0.0153868 0 -0.0153868 0.000358557 0 0 0 0)
(0 -0.0167669 0 -0.0167669 0.000412959 0 0 0 0)
(0 -0.0182202 0 -0.0182202 0.000474126 0 0 0 0)
(0 -0.0197469 0 -0.0197469 0.000543822 0 0 0 0)
(0 -0.0213471 0 -0.0213471 0.000624083 0 0 0 0)
(0 -0.02302 0 -0.02302 0.000717167 0 0 0 0)
(0 -0.0247646 0 -0.0247646 0.000825498 0 0 0 0)
(0 -0.0265789 0 -0.0265789 0.000951596 0 0 0 0)
(0 -0.0284605 0 -0.0284605 0.001098 0 0 0 0)
(0 -0.0304062 0 -0.0304062 0.00126721 0 0 0 0)
(0 -0.0324124 0 -0.0324124 0.00146159 0 0 0 0)
(0 -0.0344747 0 -0.0344747 0.00168335 0 0 0 0)
(0 -0.0365881 0 -0.0365881 0.00193449 0 0 0 0)
(0 -0.0387469 0 -0.0387469 0.00221675 0 0 0 0)
(0 -0.0409451 0 -0.0409451 0.00253165 0 0 0 0)
(0 -0.0431757 0 -0.0431757 0.00288044 0 0 0 0)
(0 -0.0454312 0 -0.0454312 0.00326414 0 0 0 0)
(0 -0.0477038 0 -0.0477038 0.00368358 0 0 0 0)
(0 -0.0499846 0 -0.0499846 0.00413936 0 0 0 0)
(0 -0.0522643 0 -0.0522643 0.00463194 0 0 0 0)
(0 -0.0545331 0 -0.0545331 0.00516157 0 0 0 0)
(0 -0.0567806 0 -0.0567806 0.00572834 0 0 0 0)
(0 -0.0589956 0 -0.0589956 0.00633215 0 0 0 0)
(0 -0.0611666 0 -0.0611666 0.00697263 0 0 0 0)
(0 -0.0632819 0 -0.0632819 0.00764913 0 0 0 0)
(0 -0.0653293 0 -0.0653293 0.00836056 0 0 0 0)
(0 -0.0672967 0 -0.0672967 0.00910534 0 0 0 0)
(0 -0.0691718 0 -0.0691718 0.00988127 0 0 0 0)
(0 -0.0709426 0 -0.0709426 0.0106856 0 0 0 0)
(0 -0.0725964 0 -0.0725964 0.0115155 0 0 0 0)
(0 -0.074119 0 -0.074119 0.0123679 0 0 0 0)
(0 -0.0755017 0 -0.0755017 0.0132395 0 0 0 0)
(0 -0.0767933 0 -0.0767933 0.0141371 0 0 0 0)
(9.97433e-16 -0.078045 0 -0.078045 0.015068 0 0 0 0)
(0 -0.0792642 0 -0.0792642 0.0160289 0 0 0 0)
(0 -0.0804524 0 -0.0804524 0.0170128 0 0 0 0)
(-2.30277e-15 -0.0816256 0 -0.0816256 0.0180073 0 0 0 0)
(0 -0.0828107 0 -0.0828107 0.0189951 0 0 0 0)
(1.27956e-15 -0.0840371 0 -0.0840371 0.0199555 0 0 0 0)
(0 -0.0853411 0 -0.0853411 0.0208659 0 0 0 0)
(-1.43797e-15 -0.0867611 0 -0.0867611 0.0217018 0 0 0 0)
(0 -0.0883331 0 -0.0883331 0.0224367 0 0 0 0)
(0 -0.0900971 0 -0.0900971 0.0230467 0 0 0 0)
(0 -0.0920616 0 -0.0920616 0.0235127 0 0 0 0)
(-3.76303e-15 -0.0942137 0 -0.0942137 0.0238178 0 0 0 0)
(0 -0.0965548 0 -0.0965548 0.0239485 0 0 0 0)
(0 -0.0990431 0 -0.0990431 0.0238955 0 0 0 0)
(0 -0.1016 0 -0.1016 0.023659 0 0 0 0)
(0 -0.104143 0 -0.104143 0.0232426 0 0 0 0)
(0 -0.10659 0 -0.10659 0.02265 0 0 0 0)
(0 -0.10883 0 -0.10883 0.0218958 0 0 0 0)
(0 -0.110718 0 -0.110718 0.0209972 0 0 0 0)
(6.10467e-15 -0.112193 0 -0.112193 0.019963 0 0 0 0)
(0 -0.113191 0 -0.113191 0.0187965 0 0 0 0)
(6.44237e-15 -0.113607 0 -0.113607 0.0175103 0 0 0 0)
(0 -0.113385 0 -0.113385 0.016109 0 0 0 0)
(0 -0.112479 0 -0.112479 0.0145926 0 0 0 0)
(0 -0.110804 0 -0.110804 0.012956 0 0 0 0)
(0 -0.108274 0 -0.108274 0.0112139 0 0 0 0)
(-6.28769e-15 -0.104773 0 -0.104773 0.00933847 0 0 0 0)
(-6.0861e-15 -0.100219 0 -0.100219 0.00733859 0 0 0 0)
(0 -0.0944128 0 -0.0944128 0.00513293 0 0 0 0)
(0 -0.0871385 0 -0.0871385 0.00280773 0 0 0 0)
(0 -0.078263 0 -0.078263 -1.17108e-05 0 0 0 0)
(0 -0.0673829 0 -0.0673829 -0.00302819 0 0 0 0)
(0 -0.0536056 0 -0.0536056 -0.0066711 0 0 0 0)
(0 -0.0454079 0 -0.0454079 -0.0100442 0 0 0 0)
(0 -0 0 -0 0 0 0 0 0)
(0 -0 0 -0 0 0 0 0 0)
(0 -0 0 -0 0 0 0 0 0)
(0 -0 0 -0 0 0 0 0 0)
(0 -0 0 -0 0 0 0 0 0)
(0 -0 0 -0 -0 0 0 0 0)
(0 0 0 0 -0 0 0 0 0)
(0 0 0 0 -0 0 0 0 0)
(-0 0 0 0 0 0 0 0 0)
(0 0 0 0 0 0 0 0 0)
(0 0 0 0 0 0 0 0 0)
(0 0 0 0 0 0 0 0 0)
(0 0 0 0 0 0 0 0 0)
(0 0 0 0 0 0 0 0 0)
(0 0 0 0 0 0 0 0 0)
(0 0 0 0 0 0 0 0 0)
(0 0 0 0 0 0 0 0 0)
(0 0 0 0 0 0 0 0 0)
(0 0 0 0 0 0 0 0 0)
(0 0 0 0 0 0 0 0 0)
(0 0 0 0 0 0 0 0 0)
(0 0 0 0 0 0 0 0 0)
(0 0 0 0 0 0 0 0 0)
(0 0 0 0 0 0 0 0 0)
(0 0 0 0 0 0 0 0 0)
(0 0 0 0 0 0 0 0 0)
(0 0 0 0 0 0 0 0 0)
(0 0 0 0 -0 0 0 0 0)
(0 0 0 0 0 0 0 0 0)
(0 0 0 0 0 0 0 0 0)
(-0 0 0 0 -0 0 0 0 0)
(0 0 0 0 0 0 0 0 0)
(0 0 0 0 -0 0 0 0 0)
(0 0 0 0 0 0 0 0 0)
(0 0 0 0 -0 0 0 0 0)
(0 0 0 0 0 0 0 0 0)
(0 0 0 0 -0 0 0 0 0)
(0 0 0 0 -0 0 0 0 0)
(0 0 0 0 -0 0 0 0 0)
(0 0 0 0 0 0 0 0 0)
(0 0 0 0 -0 0 0 0 0)
(0 0 0 0 0 0 0 0 0)
(0 0 0 0 -0 0 0 0 0)
(0 0 0 0 0 0 0 0 0)
(0 0 0 0 -0 0 0 0 0)
(0 0 0 0 0 0 0 0 0)
(0 0 0 0 -0 0 0 0 0)
(0 0 0 0 0 0 0 0 0)
(0 0 0 0 -0 0 0 0 0)
(0 0 0 0 0 0 0 0 0)
(-0 0 0 0 -0 0 0 0 0)
(0 0 0 0 0 0 0 0 0)
(0 0 0 0 -0 0 0 0 0)
(0 0 0 0 0 0 0 0 0)
(0 0 0 0 -0 0 0 0 0)
(0 0 0 0 0 0 0 0 0)
(0 -0 0 -0 -0 0 0 0 0)
(0 0 0 0 0 0 0 0 0)
(0 -0 0 -0 -0 0 0 0 0)
(0 0 0 0 0 0 0 0 0)
(-0 -0 0 -0 -0 0 0 0 0)
(0 0 0 0 0 0 0 0 0)
(0 -0 0 -0 -0 0 0 0 0)
(0 0 0 0 0 0 0 0 0)
(0 -0 0 -0 -0 0 0 0 0)
(0 0 0 0 0 0 0 0 0)
(0 -0 0 -0 -0 0 0 0 0)
(0 0 0 0 0 0 0 0 0)
(0 -0 0 -0 -0 0 0 0 0)
(0 0 0 0 0 0 0 0 0)
(0 -0 0 -0 -0 0 0 0 0)
(0 0 0 0 0 0 0 0 0)
(0 -0 0 -0 -0 0 0 0 0)
(0 0 0 0 0 0 0 0 0)
(0 -0 0 -0 -0 0 0 0 0)
(0 0 0 0 0 0 0 0 0)
(0 -0 0 -0 -0 0 0 0 0)
(0 0 0 0 0 0 0 0 0)
(0 -0 0 -0 -0 0 0 0 0)
(0 0 0 0 0 0 0 0 0)
(0 -0 0 -0 -0 0 0 0 0)
(0 0 0 0 0 0 0 0 0)
(0 -0 0 -0 -0 0 0 0 0)
(0 0 0 0 0 0 0 0 0)
(0 -0 0 -0 -0 0 0 0 0)
(0 0 0 0 0 0 0 0 0)
(0 -0 0 -0 -0 0 0 0 0)
(0 0 0 0 0 0 0 0 0)
(0 -0 0 -0 -0 0 0 0 0)
(0 0 0 0 0 0 0 0 0)
(0 -0 0 -0 -0 0 0 0 0)
(0 0 0 0 0 0 0 0 0)
(0 -0 0 -0 -0 0 0 0 0)
(0 0 0 0 0 0 0 0 0)
(0 -0 0 -0 -0 0 0 0 0)
(0 0 0 0 0 0 0 0 0)
(0 -0 0 -0 -0 0 0 0 0)
(0 0 0 0 0 0 0 0 0)
(0 -0 0 -0 -0 0 0 0 0)
(0 0 0 0 0 0 0 0 0)
(0 -0 0 -0 -0 0 0 0 0)
(0 0 0 0 0 0 0 0 0)
(0 -0 0 -0 -0 0 0 0 0)
(0 0 0 0 0 0 0 0 0)
(0 -0 0 -0 -0 0 0 0 0)
(0 0 0 0 0 0 0 0 0)
(0 0 0 0 -0 0 0 0 0)
(0 0 0 0 0 0 0 0 0)
(0 -0 0 -0 -0 0 0 0 0)
(0 0 0 0 0 0 0 0 0)
(0 -0 0 -0 -0 0 0 0 0)
(0 0 0 0 0 0 0 0 0)
(0 -0 0 -0 -0 0 0 0 0)
(0 0 0 0 0 0 0 0 0)
(0 -0 0 -0 -0 0 0 0 0)
(0 0 0 0 0 0 0 0 0)
(0 -0 0 -0 -0 0 0 0 0)
(0 -0 0 -0 0 0 0 0 0)
(0 -0 0 -0 0 0 0 0 0)
(0 -0 0 -0 0 0 0 0 0)
(0 -0 0 -0 0 0 0 0 0)
(0 -0 0 -0 0 0 0 0 0)
(0 -0 0 -0 0 0 0 0 0)
(0 -0 0 -0 0 0 0 0 0)
)
;

boundaryField
{
    inandouthalf11
    {
        type            cyclic;
    }
    inandouthalf12
    {
        type            cyclic;
    }
    inandouthalf21
    {
        type            cyclic;
    }
    inandouthalf22
    {
        type            cyclic;
    }
    inandouthalf31
    {
        type            cyclic;
    }
    inandouthalf32
    {
        type            cyclic;
    }
    inandouthalf41
    {
        type            cyclic;
    }
    inandouthalf42
    {
        type            cyclic;
    }
    top
    {
        type            symmetryPlane;
    }
    walls
    {
        type            zeroGradient;
    }
    frontAndBackPlanes
    {
        type            empty;
    }
}


// ************************************************************************* //
