/*--------------------------------*- C++ -*----------------------------------*\
| =========                 |                                                 |
| \\      /  F ield         | OpenFOAM: The Open Source CFD Toolbox           |
|  \\    /   O peration     | Version:  2.4.x                                 |
|   \\  /    A nd           | Web:      www.OpenFOAM.org                      |
|    \\/     M anipulation  |                                                 |
\*---------------------------------------------------------------------------*/
FoamFile
{
    version     2.0;
    format      ascii;
    class       volScalarField;
    location    "7";
    object      Theta_0;
}
// * * * * * * * * * * * * * * * * * * * * * * * * * * * * * * * * * * * * * //

dimensions      [0 2 -2 0 0 0 0];

internalField   nonuniform List<scalar> 
360
(
6.66325e-21
6.6675e-21
6.66556e-21
6.66502e-21
6.66529e-21
6.66551e-21
6.66556e-21
6.66557e-21
6.6656e-21
6.66564e-21
6.6657e-21
6.66576e-21
6.66581e-21
6.66587e-21
6.66592e-21
6.66598e-21
6.66604e-21
6.6661e-21
6.66616e-21
6.66622e-21
6.66629e-21
6.66635e-21
6.66642e-21
6.66648e-21
6.66655e-21
6.66662e-21
6.66668e-21
6.66675e-21
6.66682e-21
6.66689e-21
6.66696e-21
6.66703e-21
6.6671e-21
6.66717e-21
6.66723e-21
6.66729e-21
6.66735e-21
6.66741e-21
6.66746e-21
6.66751e-21
6.66755e-21
6.66759e-21
6.66763e-21
6.66767e-21
6.66772e-21
6.66776e-21
6.66781e-21
6.66785e-21
6.66791e-21
6.66798e-21
6.66806e-21
6.66814e-21
6.66823e-21
6.66832e-21
6.6684e-21
6.66848e-21
6.66853e-21
6.66857e-21
6.66858e-21
6.66856e-21
6.66851e-21
6.66842e-21
6.6683e-21
6.66813e-21
6.66793e-21
6.66769e-21
6.66743e-21
6.66716e-21
6.66689e-21
6.66663e-21
6.66641e-21
6.66624e-21
6.66611e-21
6.66604e-21
6.66603e-21
6.6661e-21
6.66625e-21
6.66649e-21
6.66685e-21
6.66734e-21
6.66801e-21
6.6689e-21
6.67005e-21
6.67152e-21
6.67334e-21
6.67553e-21
6.67802e-21
6.68068e-21
6.68324e-21
6.68532e-21
6.68649e-21
6.68638e-21
6.6848e-21
6.68187e-21
6.67803e-21
6.67391e-21
6.67008e-21
6.66696e-21
6.66468e-21
6.66319e-21
6.66229e-21
6.66179e-21
6.66153e-21
6.66141e-21
6.66135e-21
6.66132e-21
6.66131e-21
6.6613e-21
6.6613e-21
6.66129e-21
6.66129e-21
6.66129e-21
6.66129e-21
6.66128e-21
6.66128e-21
6.66128e-21
6.66128e-21
6.66127e-21
6.66127e-21
6.66127e-21
6.66127e-21
6.66126e-21
6.66126e-21
6.66126e-21
6.66125e-21
6.66125e-21
6.66125e-21
6.66124e-21
6.66124e-21
6.66124e-21
6.66123e-21
6.66123e-21
6.661e-21
2.01977e-20
8.53223e-20
3.79375e-19
1.76544e-18
8.7665e-18
4.75927e-17
2.87082e-16
1.92686e-15
1.43529e-14
1.20061e-13
1.15353e-12
1.30653e-11
1.80705e-10
3.23721e-09
9.02018e-08
2.96149e-06
6.84215e-05
0.000559365
0.00127485
0.00178937
0.00218364
0.00250136
0.00276601
0.00299122
0.0031857
0.00335539
0.00350456
0.0036364
0.00375336
0.00385737
0.00394996
0.00403239
0.0041057
0.00417075
0.00422825
0.00427882
0.00432299
0.00436122
0.00439391
0.0044214
0.00444401
0.00446204
0.00447572
0.0044853
0.00449099
0.00449299
0.00449149
0.00448667
0.00447867
0.00446768
0.00445383
0.00443726
0.00441812
0.00439653
0.00437262
0.00434652
0.00431835
0.00428821
0.00425622
0.00422248
0.0041871
0.00415019
0.00411183
0.00407212
0.00403115
0.00398901
0.00394578
0.00390153
0.0038559
0.00380843
0.00375912
0.00370796
0.00365495
0.00360008
0.00354332
0.00348465
0.00342404
0.00336145
0.00329683
0.00323011
0.00316123
0.00309008
0.00301657
0.00294058
0.00286196
0.00278057
0.00269621
0.00260868
0.00251776
0.00242318
0.00232463
0.00222177
0.00211417
0.00200134
0.00188269
0.00175747
0.00162476
0.00148332
0.00133147
0.00116682
0.000985597
0.00078121
0.000539299
0
0
0
0
0
0
0
0
0
0
0
0
0
0
0
0
0
0
0
0
0
0
0
0
0
0
0
0
0
0
0
0
0
0
0
0
0
0
0
0
0
0
0
0
0
0
0
0
0
0
0
0
0
0
0
0
0
0
0
0
0
0
0
0
0
0
0
0
0
0
0
0
0
0
0
0
0
0
0
0
0
0
0
0
0
0
0
0
0
0
0
0
0
0
0
0
0
0
0
0
0
0
0
0
0
0
0
0
0
0
0
0
0
0
0
0
0
0
0
0
0
0
0
0
)
;

boundaryField
{
    inandouthalf11
    {
        type            cyclic;
    }
    inandouthalf12
    {
        type            cyclic;
    }
    inandouthalf21
    {
        type            cyclic;
    }
    inandouthalf22
    {
        type            cyclic;
    }
    inandouthalf31
    {
        type            cyclic;
    }
    inandouthalf32
    {
        type            cyclic;
    }
    inandouthalf41
    {
        type            cyclic;
    }
    inandouthalf42
    {
        type            cyclic;
    }
    top
    {
        type            symmetryPlane;
    }
    walls
    {
        type            zeroGradient;
    }
    frontAndBackPlanes
    {
        type            empty;
    }
}


// ************************************************************************* //
