/*--------------------------------*- C++ -*----------------------------------*\
| =========                 |                                                 |
| \\      /  F ield         | OpenFOAM: The Open Source CFD Toolbox           |
|  \\    /   O peration     | Version:  2.4.x                                 |
|   \\  /    A nd           | Web:      www.OpenFOAM.org                      |
|    \\/     M anipulation  |                                                 |
\*---------------------------------------------------------------------------*/
FoamFile
{
    version     2.0;
    format      ascii;
    class       volScalarField;
    location    "7";
    object      Theta;
}
// * * * * * * * * * * * * * * * * * * * * * * * * * * * * * * * * * * * * * //

dimensions      [0 2 -2 0 0 0 0];

internalField   nonuniform List<scalar> 
360
(
6.66325e-21
6.6675e-21
6.66556e-21
6.66502e-21
6.66529e-21
6.66551e-21
6.66556e-21
6.66557e-21
6.6656e-21
6.66564e-21
6.6657e-21
6.66576e-21
6.66581e-21
6.66587e-21
6.66592e-21
6.66598e-21
6.66604e-21
6.6661e-21
6.66616e-21
6.66622e-21
6.66629e-21
6.66635e-21
6.66641e-21
6.66648e-21
6.66655e-21
6.66662e-21
6.66668e-21
6.66675e-21
6.66682e-21
6.66689e-21
6.66696e-21
6.66703e-21
6.6671e-21
6.66717e-21
6.66723e-21
6.66729e-21
6.66735e-21
6.6674e-21
6.66746e-21
6.6675e-21
6.66755e-21
6.66759e-21
6.66763e-21
6.66767e-21
6.66771e-21
6.66776e-21
6.6678e-21
6.66785e-21
6.66791e-21
6.66798e-21
6.66806e-21
6.66814e-21
6.66823e-21
6.66831e-21
6.6684e-21
6.66847e-21
6.66853e-21
6.66857e-21
6.66858e-21
6.66856e-21
6.6685e-21
6.66842e-21
6.66829e-21
6.66813e-21
6.66793e-21
6.66769e-21
6.66743e-21
6.66716e-21
6.66689e-21
6.66663e-21
6.66641e-21
6.66624e-21
6.6661e-21
6.66603e-21
6.66603e-21
6.6661e-21
6.66624e-21
6.66648e-21
6.66684e-21
6.66733e-21
6.668e-21
6.66888e-21
6.67003e-21
6.67149e-21
6.67331e-21
6.67549e-21
6.67797e-21
6.68063e-21
6.68319e-21
6.68527e-21
6.68646e-21
6.68637e-21
6.68481e-21
6.68191e-21
6.67809e-21
6.67396e-21
6.67013e-21
6.667e-21
6.66472e-21
6.66321e-21
6.6623e-21
6.6618e-21
6.66154e-21
6.66141e-21
6.66135e-21
6.66132e-21
6.66131e-21
6.6613e-21
6.6613e-21
6.66129e-21
6.66129e-21
6.66129e-21
6.66129e-21
6.66128e-21
6.66128e-21
6.66128e-21
6.66128e-21
6.66127e-21
6.66127e-21
6.66127e-21
6.66127e-21
6.66126e-21
6.66126e-21
6.66126e-21
6.66125e-21
6.66125e-21
6.66125e-21
6.66124e-21
6.66124e-21
6.66124e-21
6.66123e-21
6.66123e-21
6.66101e-21
2.01921e-20
8.52911e-20
3.79209e-19
1.76457e-18
8.76195e-18
4.75669e-17
2.86909e-16
1.92544e-15
1.43394e-14
1.19918e-13
1.15186e-12
1.30435e-11
1.80374e-10
3.23066e-09
8.99788e-08
2.95471e-06
6.8272e-05
0.000558716
0.00127415
0.00178865
0.0021829
0.00250061
0.00276526
0.00299047
0.00318497
0.00335467
0.00350385
0.00363571
0.00375269
0.00385671
0.00394931
0.00403177
0.00410509
0.00417015
0.00422767
0.00427826
0.00432245
0.00436069
0.00439339
0.00442089
0.00444353
0.00446156
0.00447526
0.00448485
0.00449056
0.00449257
0.00449109
0.00448627
0.00447829
0.00446731
0.00445347
0.00443691
0.00441778
0.00439621
0.00437231
0.00434622
0.00431806
0.00428793
0.00425595
0.00422222
0.00418685
0.00414995
0.0041116
0.0040719
0.00403094
0.0039888
0.00394558
0.00390134
0.00385571
0.00380825
0.00375894
0.0037078
0.00365479
0.00359992
0.00354317
0.00348451
0.00342391
0.00336132
0.0032967
0.00322999
0.00316111
0.00308997
0.00301647
0.00294048
0.00286187
0.00278047
0.00269612
0.0026086
0.00251768
0.00242311
0.00232456
0.0022217
0.0021141
0.00200128
0.00188263
0.00175742
0.00162471
0.00148327
0.00133143
0.00116678
0.000985568
0.000781187
0.000539284
0
0
0
0
0
0
0
0
0
0
0
0
0
0
0
0
0
0
0
0
0
0
0
0
0
0
0
0
0
0
0
0
0
0
0
0
0
0
0
0
0
0
0
0
0
0
0
0
0
0
0
0
0
0
0
0
0
0
0
0
0
0
0
0
0
0
0
0
0
0
0
0
0
0
0
0
0
0
0
0
0
0
0
0
0
0
0
0
0
0
0
0
0
0
0
0
0
0
0
0
0
0
0
0
0
0
0
0
0
0
0
0
0
0
0
0
0
0
0
0
0
0
0
0
)
;

boundaryField
{
    inandouthalf11
    {
        type            cyclic;
    }
    inandouthalf12
    {
        type            cyclic;
    }
    inandouthalf21
    {
        type            cyclic;
    }
    inandouthalf22
    {
        type            cyclic;
    }
    inandouthalf31
    {
        type            cyclic;
    }
    inandouthalf32
    {
        type            cyclic;
    }
    inandouthalf41
    {
        type            cyclic;
    }
    inandouthalf42
    {
        type            cyclic;
    }
    top
    {
        type            symmetryPlane;
    }
    walls
    {
        type            zeroGradient;
    }
    frontAndBackPlanes
    {
        type            empty;
    }
}


// ************************************************************************* //
