/*--------------------------------*- C++ -*----------------------------------*\
| =========                 |                                                 |
| \\      /  F ield         | OpenFOAM: The Open Source CFD Toolbox           |
|  \\    /   O peration     | Version:  2.4.x                                 |
|   \\  /    A nd           | Web:      www.OpenFOAM.org                      |
|    \\/     M anipulation  |                                                 |
\*---------------------------------------------------------------------------*/
FoamFile
{
    version     2.0;
    format      ascii;
    class       volScalarField;
    location    "7";
    object      tmf;
}
// * * * * * * * * * * * * * * * * * * * * * * * * * * * * * * * * * * * * * //

dimensions      [0 0 0 0 0 0 0];

internalField   nonuniform List<scalar> 
360
(
0.999206
0.999209
0.999209
0.999209
0.999209
0.999209
0.999209
0.999209
0.999208
0.999208
0.999208
0.999208
0.999208
0.999208
0.999208
0.999208
0.999208
0.999208
0.999208
0.999208
0.999208
0.999207
0.999207
0.999207
0.999207
0.999207
0.999207
0.999207
0.999207
0.999207
0.999207
0.999207
0.999206
0.999206
0.999206
0.999206
0.999206
0.999206
0.999206
0.999206
0.999206
0.999206
0.999205
0.999205
0.999205
0.999205
0.999205
0.999205
0.999205
0.999205
0.999205
0.999204
0.999204
0.999204
0.999204
0.999204
0.999204
0.999204
0.999204
0.999203
0.999203
0.999203
0.999203
0.999203
0.999203
0.999203
0.999203
0.999202
0.999202
0.999202
0.999202
0.999202
0.999202
0.999201
0.999201
0.999201
0.999201
0.999201
0.999201
0.999201
0.9992
0.9992
0.9992
0.9992
0.9992
0.999199
0.999199
0.999199
0.999199
0.999199
0.999198
0.999198
0.999198
0.999198
0.999198
0.999197
0.999197
0.999197
0.999197
0.999196
0.999196
0.999196
0.999196
0.999195
0.999195
0.999195
0.999195
0.999194
0.999194
0.999194
0.999193
0.999193
0.999193
0.999192
0.999192
0.999192
0.999191
0.999191
0.999191
0.99919
0.99919
0.999189
0.999189
0.999189
0.999188
0.999188
0.999187
0.999187
0.999186
0.999185
0.999185
0.999184
0.999141
0.998968
0.998865
0.998743
0.998586
0.998384
0.998133
0.997827
0.99745
0.996965
0.996329
0.99549
0.994377
0.992921
0.99107
0.988708
0.985481
0.974191
0.907515
0.913731
0.927578
0.936879
0.943639
0.948591
0.952418
0.955492
0.958034
0.960184
0.962034
0.96365
0.965079
0.966355
0.967505
0.96855
0.969505
0.970385
0.9712
0.971959
0.97267
0.973339
0.973972
0.974575
0.97515
0.975703
0.976237
0.976754
0.977258
0.97775
0.978233
0.978708
0.979177
0.97964
0.980099
0.980554
0.981005
0.981451
0.981894
0.982332
0.982765
0.983192
0.983614
0.984029
0.984438
0.98484
0.985234
0.985621
0.985999
0.98637
0.986733
0.987091
0.987448
0.987802
0.988154
0.988502
0.988846
0.989185
0.98952
0.989849
0.990173
0.990491
0.990803
0.991108
0.991407
0.991699
0.991985
0.992264
0.992537
0.992803
0.993063
0.993316
0.993565
0.993808
0.994046
0.99428
0.994509
0.994736
0.994959
0.995179
0.995397
0.995614
0.995829
0.996043
0.996255
0.996467
0.996674
0.993477
0.993887
0.994311
0.994648
0.995246
0.996368
0.997096
0.997279
0.99744
0.997577
0.997692
0.997789
0.99787
0.997943
0.99801
0.998078
0.998153
0.99824
0.998347
0.998484
0.998667
0.998915
0.999124
0.99919
0.999187
0.999181
0.999175
0.999169
0.999163
0.999143
0.998197
0.994194
0.994194
0.994194
0.994194
0.994194
0.994194
0.994194
0.994194
0.994194
0.994194
0.994194
0.994194
0.994194
0.994194
0.994194
0.994194
0.994194
0.994194
0.994194
0.994194
0.994194
0.994194
0.994194
0.994194
0.994194
0.994194
0.994194
0.994194
0.994194
0.994194
0.994194
0.994194
0.994194
0.994194
0.994194
0.994194
0.994194
0.994194
0.994194
0.994194
0.994194
0.994194
0.994194
0.994194
0.994194
0.994194
0.994194
0.994194
0.994194
0.994194
0.994194
0.994194
0.994194
0.994194
0.994194
0.994194
0.994194
0.994194
0.994194
0.994194
0.994194
0.994194
0.994194
0.994194
0.994194
0.994194
0.994194
0.994194
0.994194
0.994194
0.994194
0.994194
0.994194
0.994194
0.994194
0.994194
0.994194
0.994194
0.994194
0.994194
0.994194
0.994194
0.994194
0.994194
0.994194
0.994194
0.994194
0.994194
0.994194
0.994193
0.994178
0.993256
)
;

boundaryField
{
    inandouthalf11
    {
        type            cyclic;
    }
    inandouthalf12
    {
        type            cyclic;
    }
    inandouthalf21
    {
        type            cyclic;
    }
    inandouthalf22
    {
        type            cyclic;
    }
    inandouthalf31
    {
        type            cyclic;
    }
    inandouthalf32
    {
        type            cyclic;
    }
    inandouthalf41
    {
        type            cyclic;
    }
    inandouthalf42
    {
        type            cyclic;
    }
    top
    {
        type            symmetryPlane;
    }
    walls
    {
        type            calculated;
        value           uniform 0;
    }
    frontAndBackPlanes
    {
        type            empty;
    }
}


// ************************************************************************* //
