/*--------------------------------*- C++ -*----------------------------------*\
| =========                 |                                                 |
| \\      /  F ield         | OpenFOAM: The Open Source CFD Toolbox           |
|  \\    /   O peration     | Version:  2.4.x                                 |
|   \\  /    A nd           | Web:      www.OpenFOAM.org                      |
|    \\/     M anipulation  |                                                 |
\*---------------------------------------------------------------------------*/
FoamFile
{
    version     2.0;
    format      ascii;
    class       volVectorField;
    location    "7";
    object      U;
}
// * * * * * * * * * * * * * * * * * * * * * * * * * * * * * * * * * * * * * //

dimensions      [0 1 -1 0 0 0 0];

internalField   nonuniform List<vector> 
360
(
(6.54145e-05 1.89768e-08 0)
(6.49451e-05 -3.63359e-09 0)
(6.48624e-05 -3.67347e-09 0)
(6.49139e-05 -9.58513e-11 0)
(6.494e-05 6.36908e-10 0)
(6.49448e-05 2.17474e-10 0)
(6.495e-05 9.13598e-12 0)
(6.49579e-05 1.52129e-11 0)
(6.4966e-05 5.09772e-11 0)
(6.49742e-05 7.60822e-11 0)
(6.49824e-05 8.78265e-11 0)
(6.49903e-05 8.63051e-11 0)
(6.4998e-05 8.15922e-11 0)
(6.50055e-05 7.86886e-11 0)
(6.5013e-05 7.99544e-11 0)
(6.50203e-05 8.35498e-11 0)
(6.50276e-05 8.59532e-11 0)
(6.50347e-05 8.71091e-11 0)
(6.50416e-05 8.7236e-11 0)
(6.50485e-05 8.85529e-11 0)
(6.50551e-05 8.70876e-11 0)
(6.50617e-05 8.92824e-11 0)
(6.50681e-05 9.05215e-11 0)
(6.50743e-05 9.05984e-11 0)
(6.50804e-05 9.06037e-11 0)
(6.50864e-05 9.07308e-11 0)
(6.50921e-05 9.06506e-11 0)
(6.50978e-05 9.26567e-11 0)
(6.51033e-05 9.12438e-11 0)
(6.51085e-05 8.97105e-11 0)
(6.51136e-05 8.74079e-11 0)
(6.51187e-05 8.90518e-11 0)
(6.51233e-05 8.1515e-11 0)
(6.51281e-05 8.47881e-11 0)
(6.51324e-05 7.52755e-11 0)
(6.51367e-05 7.22193e-11 0)
(6.51407e-05 6.7166e-11 0)
(6.51447e-05 6.29613e-11 0)
(6.51486e-05 6.14798e-11 0)
(6.51519e-05 4.75114e-11 0)
(6.51555e-05 5.05636e-11 0)
(6.51588e-05 4.55777e-11 0)
(6.51617e-05 3.68482e-11 0)
(6.51648e-05 4.67052e-11 0)
(6.51676e-05 4.40162e-11 0)
(6.51702e-05 4.51141e-11 0)
(6.51728e-05 5.22113e-11 0)
(6.51748e-05 5.25262e-11 0)
(6.5177e-05 6.82381e-11 0)
(6.51792e-05 8.77285e-11 0)
(6.51807e-05 8.23815e-11 0)
(6.51823e-05 9.54261e-11 0)
(6.51835e-05 9.45443e-11 0)
(6.51846e-05 9.77735e-11 0)
(6.51851e-05 7.862e-11 0)
(6.51859e-05 7.62112e-11 0)
(6.51859e-05 3.98004e-11 0)
(6.51861e-05 1.59844e-11 0)
(6.5186e-05 -1.96672e-11 0)
(6.51855e-05 -6.84613e-11 0)
(6.51855e-05 -9.03311e-11 0)
(6.5185e-05 -1.48869e-10 0)
(6.5185e-05 -1.89312e-10 0)
(6.5185e-05 -2.47491e-10 0)
(6.51852e-05 -2.95794e-10 0)
(6.51857e-05 -3.4188e-10 0)
(6.51868e-05 -3.69784e-10 0)
(6.51884e-05 -3.86249e-10 0)
(6.51904e-05 -3.82832e-10 0)
(6.51929e-05 -3.64628e-10 0)
(6.51963e-05 -3.09591e-10 0)
(6.52004e-05 -2.4047e-10 0)
(6.52044e-05 -1.82986e-10 0)
(6.52092e-05 -7.83441e-11 0)
(6.52139e-05 1.64321e-11 0)
(6.52188e-05 1.34566e-10 0)
(6.52232e-05 2.46551e-10 0)
(6.5227e-05 3.82927e-10 0)
(6.523e-05 5.39129e-10 0)
(6.52318e-05 7.16177e-10 0)
(6.52318e-05 9.07797e-10 0)
(6.52297e-05 1.12703e-09 0)
(6.5225e-05 1.35903e-09 0)
(6.52168e-05 1.58644e-09 0)
(6.52046e-05 1.79167e-09 0)
(6.51875e-05 1.93614e-09 0)
(6.51652e-05 1.98238e-09 0)
(6.51371e-05 1.87655e-09 0)
(6.51033e-05 1.57961e-09 0)
(6.50643e-05 1.06567e-09 0)
(6.50214e-05 3.35455e-10 0)
(6.49765e-05 -5.6455e-10 0)
(6.4932e-05 -1.53941e-09 0)
(6.48907e-05 -2.46703e-09 0)
(6.48556e-05 -3.21617e-09 0)
(6.48293e-05 -3.68348e-09 0)
(6.48136e-05 -3.82346e-09 0)
(6.48094e-05 -3.65754e-09 0)
(6.48168e-05 -3.26078e-09 0)
(6.48349e-05 -2.73373e-09 0)
(6.48626e-05 -2.17321e-09 0)
(6.48984e-05 -1.65126e-09 0)
(6.49408e-05 -1.20864e-09 0)
(6.49886e-05 -8.5931e-10 0)
(6.50406e-05 -5.98724e-10 0)
(6.50961e-05 -4.12862e-10 0)
(6.51546e-05 -2.85093e-10 0)
(6.52156e-05 -1.99907e-10 0)
(6.52789e-05 -1.4457e-10 0)
(6.53444e-05 -1.09501e-10 0)
(6.5412e-05 -8.78705e-11 0)
(6.54817e-05 -7.49947e-11 0)
(6.55536e-05 -6.77719e-11 0)
(6.56276e-05 -6.41865e-11 0)
(6.57038e-05 -6.29447e-11 0)
(6.57825e-05 -6.32363e-11 0)
(6.58635e-05 -6.45648e-11 0)
(6.59471e-05 -6.66253e-11 0)
(6.60334e-05 -6.92221e-11 0)
(6.61224e-05 -7.22212e-11 0)
(6.62144e-05 -7.55181e-11 0)
(6.63094e-05 -7.90322e-11 0)
(6.64077e-05 -8.27721e-11 0)
(6.65093e-05 -8.69605e-11 0)
(6.66145e-05 -9.21089e-11 0)
(6.67234e-05 -9.8901e-11 0)
(6.68363e-05 -1.07709e-10 0)
(6.69537e-05 -1.17769e-10 0)
(6.70757e-05 -1.26691e-10 0)
(6.7203e-05 -1.32227e-10 0)
(6.73355e-05 -1.3768e-10 0)
(6.74737e-05 -1.57113e-10 0)
(6.76183e-05 -2.02216e-10 0)
(6.77709e-05 -2.47499e-10 0)
(6.79333e-05 -2.42715e-10 0)
(6.81054e-05 -2.15625e-10 0)
(6.82864e-05 -2.91434e-10 0)
(6.84791e-05 -5.55032e-10 0)
(6.86934e-05 -8.27731e-10 0)
(6.89397e-05 -4.99781e-10 0)
(6.92063e-05 3.59976e-10 0)
(6.94615e-05 -1.33206e-09 0)
(6.97685e-05 -2.38952e-09 0)
(7.01686e-05 -2.52324e-09 0)
(7.06702e-05 -1.1467e-08 0)
(7.16266e-05 -4.30301e-08 0)
(7.44861e-05 -2.85713e-07 0)
(7.56642e-05 4.00178e-06 0)
(7.74172e-05 -1.5773e-05 0)
(2.35085e-05 5.87798e-05 0)
(-0.0393957 0.000473255 0)
(-0.072495 -0.00024168 0)
(-0.093715 0.000110983 0)
(-0.110218 -2.66328e-05 0)
(-0.124205 1.41433e-06 0)
(-0.13659 1.45008e-06 0)
(-0.147837 4.1331e-07 0)
(-0.158221 1.64194e-08 0)
(-0.167918 -2.06782e-08 0)
(-0.17705 -8.35084e-09 0)
(-0.185705 -6.22727e-09 0)
(-0.19395 -7.95367e-09 0)
(-0.201837 -8.47079e-09 0)
(-0.20941 -7.85594e-09 0)
(-0.216701 -6.92431e-09 0)
(-0.223739 -6.02989e-09 0)
(-0.230548 -5.23294e-09 0)
(-0.237148 -4.54108e-09 0)
(-0.243556 -3.94552e-09 0)
(-0.249787 -3.44151e-09 0)
(-0.255853 -3.01684e-09 0)
(-0.261767 -2.66234e-09 0)
(-0.267538 -2.36673e-09 0)
(-0.273175 -2.12048e-09 0)
(-0.278686 -1.9157e-09 0)
(-0.284078 -1.74449e-09 0)
(-0.289356 -1.60065e-09 0)
(-0.294528 -1.47867e-09 0)
(-0.299597 -1.37417e-09 0)
(-0.304569 -1.28325e-09 0)
(-0.309447 -1.20308e-09 0)
(-0.314236 -1.13116e-09 0)
(-0.318939 -1.06577e-09 0)
(-0.323559 -1.00543e-09 0)
(-0.3281 -9.49201e-10 0)
(-0.332563 -8.96268e-10 0)
(-0.336952 -8.46155e-10 0)
(-0.341268 -7.98503e-10 0)
(-0.345515 -7.53099e-10 0)
(-0.349693 -7.09793e-10 0)
(-0.353806 -6.68467e-10 0)
(-0.357854 -6.29028e-10 0)
(-0.361839 -5.91437e-10 0)
(-0.365763 -5.55707e-10 0)
(-0.369628 -5.21908e-10 0)
(-0.373434 -4.90193e-10 0)
(-0.377183 -4.60538e-10 0)
(-0.380876 -4.32003e-10 0)
(-0.384514 -4.03367e-10 0)
(-0.388098 -3.76074e-10 0)
(-0.391629 -3.52486e-10 0)
(-0.395144 -3.40451e-10 0)
(-0.398677 -3.28612e-10 0)
(-0.402227 -3.15013e-10 0)
(-0.405793 -3.07325e-10 0)
(-0.409375 -2.98715e-10 0)
(-0.412971 -2.83788e-10 0)
(-0.416581 -2.69335e-10 0)
(-0.420204 -2.53112e-10 0)
(-0.423837 -2.34896e-10 0)
(-0.427479 -2.18605e-10 0)
(-0.431129 -1.95304e-10 0)
(-0.434785 -1.72244e-10 0)
(-0.438444 -1.55601e-10 0)
(-0.442105 -1.34172e-10 0)
(-0.445765 -1.13114e-10 0)
(-0.44942 -9.56796e-11 0)
(-0.453068 -8.02889e-11 0)
(-0.456705 -6.54701e-11 0)
(-0.460327 -5.14762e-11 0)
(-0.46393 -4.22854e-11 0)
(-0.467509 -3.36845e-11 0)
(-0.471059 -2.5649e-11 0)
(-0.474574 -2.01777e-11 0)
(-0.478047 -1.59825e-11 0)
(-0.48147 -1.19915e-11 0)
(-0.484837 -9.64386e-12 0)
(-0.488137 -6.85174e-12 0)
(-0.491361 -6.2116e-12 0)
(-0.494498 -3.56134e-12 0)
(-0.497535 -4.18186e-12 0)
(-0.50046 -7.27196e-13 0)
(-0.503257 -4.30777e-12 0)
(-0.505911 -2.97615e-13 0)
(-0.508404 -1.54696e-11 0)
(-0.510721 6.23467e-11 0)
(-0.512841 -1.1464e-10 0)
(-0.514748 5.82979e-11 0)
(-0.516424 -5.69371e-11 0)
(-0.517855 1.84175e-11 0)
(-0.519031 -4.52403e-11 0)
(-0.519943 5.53842e-11 0)
(-0.520591 3.48153e-11 0)
(-0.52098 -1.07991e-11 0)
(-0.521118 -3.17274e-12 0)
(-0.521021 -1.42887e-12 0)
(-0.520705 -1.48447e-12 0)
(-0.520189 -1.75e-12 0)
(-0.519494 -1.9937e-12 0)
(-0.518641 -1.78616e-12 0)
(-0.517652 5.16359e-12 0)
(-0.516549 -2.61053e-11 0)
(-0.515358 5.51982e-11 0)
(-0.514105 -1.07822e-10 0)
(-0.512818 1.73082e-10 0)
(-0.51153 -2.63628e-10 0)
(-0.510281 3.67059e-10 0)
(-0.509124 -4.9295e-10 0)
(-0.508135 6.2723e-10 0)
(-0.507602 -7.76597e-10 0)
(-0.507521 9.27457e-10 0)
(-0.507518 -1.08752e-09 0)
(-0.507518 1.24706e-09 0)
(-0.507517 -1.41487e-09 0)
(-0.507517 1.58275e-09 0)
(-0.507517 -1.7588e-09 0)
(-0.507517 1.93554e-09 0)
(-0.507517 -2.12044e-09 0)
(-0.507517 2.30654e-09 0)
(-0.507517 -2.50086e-09 0)
(-0.507517 2.69681e-09 0)
(-0.507517 -2.90103e-09 0)
(-0.507517 3.1073e-09 0)
(-0.507517 -3.32189e-09 0)
(-0.507517 3.53888e-09 0)
(-0.507517 -3.76424e-09 0)
(-0.507517 3.99234e-09 0)
(-0.507517 -4.22883e-09 0)
(-0.507517 4.46841e-09 0)
(-0.507517 -4.71634e-09 0)
(-0.507517 4.96773e-09 0)
(-0.507517 -5.22743e-09 0)
(-0.507517 5.49092e-09 0)
(-0.507517 -5.76268e-09 0)
(-0.507517 6.03855e-09 0)
(-0.507517 -6.32262e-09 0)
(-0.507517 6.61115e-09 0)
(-0.507517 -6.90777e-09 0)
(-0.507517 7.20919e-09 0)
(-0.507517 -7.51857e-09 0)
(-0.507517 7.8331e-09 0)
(-0.507517 -8.15542e-09 0)
(-0.507517 8.48328e-09 0)
(-0.507517 -8.81871e-09 0)
(-0.507517 9.16007e-09 0)
(-0.507517 -9.50878e-09 0)
(-0.507517 9.86378e-09 0)
(-0.507517 -1.0226e-08 0)
(-0.507517 1.05946e-08 0)
(-0.507517 -1.09705e-08 0)
(-0.507517 1.13529e-08 0)
(-0.507517 -1.17424e-08 0)
(-0.507517 1.21387e-08 0)
(-0.507517 -1.2542e-08 0)
(-0.507517 1.2952e-08 0)
(-0.507517 -1.33691e-08 0)
(-0.507517 1.37929e-08 0)
(-0.507517 -1.42237e-08 0)
(-0.507517 1.46612e-08 0)
(-0.507517 -1.51055e-08 0)
(-0.507517 1.36566e-08 0)
(-0.507517 -1.37981e-08 0)
(-0.507517 1.39381e-08 0)
(-0.507517 -1.40767e-08 0)
(-0.507517 1.42137e-08 0)
(-0.507517 -1.43492e-08 0)
(-0.507517 1.44831e-08 0)
(-0.507517 -1.46155e-08 0)
(-0.507517 1.47464e-08 0)
(-0.507517 -1.48756e-08 0)
(-0.507517 1.50032e-08 0)
(-0.507517 -1.51292e-08 0)
(-0.507517 1.52536e-08 0)
(-0.507517 -1.53762e-08 0)
(-0.507517 1.54972e-08 0)
(-0.507517 -1.56165e-08 0)
(-0.507517 1.5734e-08 0)
(-0.507517 -1.58497e-08 0)
(-0.507517 1.59636e-08 0)
(-0.507517 -1.60757e-08 0)
(-0.507517 1.61861e-08 0)
(-0.507517 -1.62943e-08 0)
(-0.507517 1.6401e-08 0)
(-0.507517 -1.65052e-08 0)
(-0.507517 1.6608e-08 0)
(-0.507517 -1.67082e-08 0)
(-0.507517 1.68069e-08 0)
(-0.507517 -1.69029e-08 0)
(-0.507517 1.69974e-08 0)
(-0.507517 -1.7089e-08 0)
(-0.507517 1.71789e-08 0)
(-0.507517 -1.72661e-08 0)
(-0.507517 1.73511e-08 0)
(-0.507517 -1.74337e-08 0)
(-0.507517 1.75135e-08 0)
(-0.507517 -1.75912e-08 0)
(-0.507517 1.76655e-08 0)
(-0.507517 -1.77379e-08 0)
(-0.507517 1.78061e-08 0)
(-0.507517 -1.78731e-08 0)
(-0.507517 1.79346e-08 0)
(-0.507517 -1.79955e-08 0)
(-0.507517 1.80494e-08 0)
(-0.507517 -1.81036e-08 0)
(-0.507517 1.81489e-08 0)
(-0.507517 -1.81951e-08 0)
(-0.507517 1.82301e-08 0)
(-0.507517 -1.82657e-08 0)
(-0.507517 1.82866e-08 0)
(-0.507517 -1.83068e-08 0)
)
;

boundaryField
{
    inandouthalf11
    {
        type            cyclic;
    }
    inandouthalf12
    {
        type            cyclic;
    }
    inandouthalf21
    {
        type            cyclic;
    }
    inandouthalf22
    {
        type            cyclic;
    }
    inandouthalf31
    {
        type            cyclic;
    }
    inandouthalf32
    {
        type            cyclic;
    }
    inandouthalf41
    {
        type            cyclic;
    }
    inandouthalf42
    {
        type            cyclic;
    }
    top
    {
        type            symmetryPlane;
    }
    walls
    {
        type            calculated;
        value           uniform (0 0 0);
    }
    frontAndBackPlanes
    {
        type            empty;
    }
}


// ************************************************************************* //
