/*--------------------------------*- C++ -*----------------------------------*\
| =========                 |                                                 |
| \\      /  F ield         | OpenFOAM: The Open Source CFD Toolbox           |
|  \\    /   O peration     | Version:  2.4.x                                 |
|   \\  /    A nd           | Web:      www.OpenFOAM.org                      |
|    \\/     M anipulation  |                                                 |
\*---------------------------------------------------------------------------*/
FoamFile
{
    version     2.0;
    format      ascii;
    class       volVectorField;
    location    "7";
    object      Ua;
}
// * * * * * * * * * * * * * * * * * * * * * * * * * * * * * * * * * * * * * //

dimensions      [0 1 -1 0 0 0 0];

internalField   nonuniform List<vector> 
360
(
(-3.93471e-33 -9.86756e-32 0)
(-6.80968e-09 -1.17742e-07 0)
(-1.43775e-08 -2.124e-07 0)
(-2.11952e-08 -2.9297e-07 0)
(-2.81817e-08 -3.76042e-07 0)
(-3.56152e-08 -4.62666e-07 0)
(-4.33696e-08 -5.50274e-07 0)
(-5.13591e-08 -6.38003e-07 0)
(-5.95778e-08 -7.25922e-07 0)
(-6.80425e-08 -8.14214e-07 0)
(-7.67707e-08 -9.03049e-07 0)
(-8.57728e-08 -9.92492e-07 0)
(-9.50524e-08 -1.08253e-06 0)
(-1.04611e-07 -1.17314e-06 0)
(-1.14449e-07 -1.26429e-06 0)
(-1.24574e-07 -1.356e-06 0)
(-1.3499e-07 -1.4483e-06 0)
(-1.45703e-07 -1.54119e-06 0)
(-1.56718e-07 -1.63469e-06 0)
(-1.68041e-07 -1.7288e-06 0)
(-1.79676e-07 -1.82352e-06 0)
(-1.91628e-07 -1.91886e-06 0)
(-2.03903e-07 -2.01481e-06 0)
(-2.16506e-07 -2.1114e-06 0)
(-2.29444e-07 -2.20861e-06 0)
(-2.42721e-07 -2.30646e-06 0)
(-2.56343e-07 -2.40494e-06 0)
(-2.70316e-07 -2.50406e-06 0)
(-2.84647e-07 -2.60383e-06 0)
(-2.9934e-07 -2.70424e-06 0)
(-3.144e-07 -2.80527e-06 0)
(-3.29833e-07 -2.90693e-06 0)
(-3.45642e-07 -3.0092e-06 0)
(-3.61832e-07 -3.11206e-06 0)
(-3.78407e-07 -3.21552e-06 0)
(-3.95367e-07 -3.31952e-06 0)
(-4.12714e-07 -3.42403e-06 0)
(-4.30449e-07 -3.52903e-06 0)
(-4.48576e-07 -3.63452e-06 0)
(-4.67094e-07 -3.74042e-06 0)
(-4.86001e-07 -3.84671e-06 0)
(-5.05303e-07 -3.95338e-06 0)
(-5.24997e-07 -4.06038e-06 0)
(-5.45088e-07 -4.1677e-06 0)
(-5.65587e-07 -4.27537e-06 0)
(-5.865e-07 -4.38338e-06 0)
(-6.07839e-07 -4.49177e-06 0)
(-6.29612e-07 -4.60052e-06 0)
(-6.51838e-07 -4.70968e-06 0)
(-6.74547e-07 -4.81939e-06 0)
(-6.9776e-07 -4.9297e-06 0)
(-7.21496e-07 -5.04063e-06 0)
(-7.45777e-07 -5.15225e-06 0)
(-7.70618e-07 -5.26458e-06 0)
(-7.96026e-07 -5.37759e-06 0)
(-8.22002e-07 -5.49123e-06 0)
(-8.48533e-07 -5.6054e-06 0)
(-8.75594e-07 -5.71994e-06 0)
(-9.03147e-07 -5.83466e-06 0)
(-9.31142e-07 -5.94929e-06 0)
(-9.59529e-07 -6.06361e-06 0)
(-9.88248e-07 -6.17737e-06 0)
(-1.01723e-06 -6.29028e-06 0)
(-1.04638e-06 -6.402e-06 0)
(-1.07562e-06 -6.51219e-06 0)
(-1.10484e-06 -6.62051e-06 0)
(-1.13397e-06 -6.72667e-06 0)
(-1.16293e-06 -6.83049e-06 0)
(-1.19169e-06 -6.93185e-06 0)
(-1.22023e-06 -7.03074e-06 0)
(-1.24858e-06 -7.12737e-06 0)
(-1.27685e-06 -7.22208e-06 0)
(-1.30512e-06 -7.31524e-06 0)
(-1.33355e-06 -7.40734e-06 0)
(-1.36233e-06 -7.49901e-06 0)
(-1.39168e-06 -7.59092e-06 0)
(-1.42185e-06 -7.68379e-06 0)
(-1.45312e-06 -7.7784e-06 0)
(-1.48583e-06 -7.87565e-06 0)
(-1.5204e-06 -7.97659e-06 0)
(-1.55727e-06 -8.08237e-06 0)
(-1.597e-06 -8.19429e-06 0)
(-1.6402e-06 -8.31381e-06 0)
(-1.68758e-06 -8.44245e-06 0)
(-1.73984e-06 -8.58176e-06 0)
(-1.79769e-06 -8.73308e-06 0)
(-1.8617e-06 -8.8974e-06 0)
(-1.93224e-06 -9.07504e-06 0)
(-2.00926e-06 -9.2653e-06 0)
(-2.09223e-06 -9.46627e-06 0)
(-2.17994e-06 -9.67456e-06 0)
(-2.27051e-06 -9.88537e-06 0)
(-2.36145e-06 -1.00928e-05 0)
(-2.44989e-06 -1.02904e-05 0)
(-2.53291e-06 -1.0472e-05 0)
(-2.60795e-06 -1.06327e-05 0)
(-2.67319e-06 -1.07694e-05 0)
(-2.7277e-06 -1.08811e-05 0)
(-2.77153e-06 -1.09689e-05 0)
(-2.80551e-06 -1.10355e-05 0)
(-2.83098e-06 -1.10842e-05 0)
(-2.8495e-06 -1.11188e-05 0)
(-2.86261e-06 -1.11427e-05 0)
(-2.87169e-06 -1.11589e-05 0)
(-2.87787e-06 -1.11696e-05 0)
(-2.88201e-06 -1.11766e-05 0)
(-2.88476e-06 -1.11812e-05 0)
(-2.88657e-06 -1.11841e-05 0)
(-2.88776e-06 -1.1186e-05 0)
(-2.88853e-06 -1.11871e-05 0)
(-2.88904e-06 -1.11879e-05 0)
(-2.88938e-06 -1.11884e-05 0)
(-2.8896e-06 -1.11887e-05 0)
(-2.88975e-06 -1.11889e-05 0)
(-2.88985e-06 -1.1189e-05 0)
(-2.88992e-06 -1.11891e-05 0)
(-2.88996e-06 -1.11892e-05 0)
(-2.89e-06 -1.11892e-05 0)
(-2.89002e-06 -1.11893e-05 0)
(-2.89003e-06 -1.11893e-05 0)
(-2.89005e-06 -1.11893e-05 0)
(-2.89005e-06 -1.11893e-05 0)
(-2.89006e-06 -1.11893e-05 0)
(-2.89006e-06 -1.11893e-05 0)
(-2.89007e-06 -1.11893e-05 0)
(-2.89007e-06 -1.11893e-05 0)
(-2.89007e-06 -1.11893e-05 0)
(-2.89007e-06 -1.11893e-05 0)
(-2.89008e-06 -1.11893e-05 0)
(-2.89008e-06 -1.11893e-05 0)
(-2.89008e-06 -1.11893e-05 0)
(-2.89008e-06 -1.11893e-05 0)
(-2.89008e-06 -1.11893e-05 0)
(-2.89008e-06 -1.11893e-05 0)
(-2.89008e-06 -1.11893e-05 0)
(-2.89008e-06 -1.11893e-05 0)
(-2.89008e-06 -1.11893e-05 0)
(-2.89008e-06 -1.11893e-05 0)
(-2.89008e-06 -1.11893e-05 0)
(-2.89008e-06 -1.11893e-05 0)
(-2.89008e-06 -1.11893e-05 0)
(-2.89008e-06 -1.11893e-05 0)
(-2.89008e-06 -1.11893e-05 0)
(-2.89008e-06 -1.11893e-05 0)
(-2.89008e-06 -1.11893e-05 0)
(-2.89008e-06 -1.11893e-05 0)
(-2.89008e-06 -1.11893e-05 0)
(-2.8128e-06 -1.20726e-05 0)
(-2.83677e-06 -1.41703e-05 0)
(-4.81939e-06 -1.81112e-05 0)
(-0.0353975 -0.00380641 0)
(-0.0701792 -0.00520453 0)
(-0.0929495 -0.00651391 0)
(-0.110352 -0.00751419 0)
(-0.124847 -0.00817737 0)
(-0.137505 -0.00858124 0)
(-0.148879 -0.00882385 0)
(-0.159294 -0.00896583 0)
(-0.168956 -0.00904207 0)
(-0.178006 -0.00907435 0)
(-0.186544 -0.00907677 0)
(-0.194646 -0.00905857 0)
(-0.20237 -0.00902585 0)
(-0.209761 -0.00898274 0)
(-0.216856 -0.0089321 0)
(-0.223684 -0.00887596 0)
(-0.230269 -0.00881574 0)
(-0.236632 -0.00875246 0)
(-0.242789 -0.00868683 0)
(-0.248755 -0.00861924 0)
(-0.254541 -0.0085499 0)
(-0.260158 -0.00847882 0)
(-0.265614 -0.00840583 0)
(-0.270917 -0.00833066 0)
(-0.276074 -0.00825293 0)
(-0.28109 -0.00817219 0)
(-0.28597 -0.00808798 0)
(-0.290719 -0.00799982 0)
(-0.295341 -0.00790723 0)
(-0.299838 -0.00780981 0)
(-0.304214 -0.00770718 0)
(-0.308471 -0.00759904 0)
(-0.312612 -0.00748516 0)
(-0.316639 -0.0073654 0)
(-0.320553 -0.00723966 0)
(-0.324357 -0.00710794 0)
(-0.328051 -0.00697029 0)
(-0.331638 -0.00682683 0)
(-0.335117 -0.00667772 0)
(-0.338491 -0.00652316 0)
(-0.341759 -0.00636339 0)
(-0.344923 -0.00619869 0)
(-0.347983 -0.00602937 0)
(-0.35094 -0.00585574 0)
(-0.353794 -0.00567818 0)
(-0.356545 -0.00549708 0)
(-0.359194 -0.00531285 0)
(-0.361741 -0.00512597 0)
(-0.364186 -0.00493692 0)
(-0.366529 -0.00474623 0)
(-0.36877 -0.00455444 0)
(-0.370932 -0.00436015 0)
(-0.373034 -0.00416191 0)
(-0.375073 -0.00396025 0)
(-0.377049 -0.00375578 0)
(-0.378959 -0.00354929 0)
(-0.380802 -0.00334179 0)
(-0.382575 -0.00313454 0)
(-0.384278 -0.00292899 0)
(-0.38591 -0.00272677 0)
(-0.387471 -0.00252957 0)
(-0.388963 -0.00233907 0)
(-0.390385 -0.00215686 0)
(-0.391742 -0.00198415 0)
(-0.393036 -0.00182188 0)
(-0.39427 -0.00167066 0)
(-0.39545 -0.00153067 0)
(-0.39658 -0.00140172 0)
(-0.397666 -0.0012834 0)
(-0.398714 -0.00117514 0)
(-0.399727 -0.00107618 0)
(-0.400712 -0.000985723 0)
(-0.401673 -0.000903136 0)
(-0.402614 -0.000827836 0)
(-0.40354 -0.000759315 0)
(-0.404453 -0.000697279 0)
(-0.405356 -0.000641564 0)
(-0.40625 -0.000592235 0)
(-0.407137 -0.000549389 0)
(-0.408015 -0.000513681 0)
(-0.40888 -0.000485632 0)
(-0.40973 -0.000467137 0)
(-0.410553 -0.000458779 0)
(-0.411344 -0.000467428 0)
(-0.412073 -0.000493127 0)
(-0.412718 -0.000553329 0)
(-0.41349 -0.000650046 0)
(-0.519625 0.000815987 0)
(-0.521469 0.000623556 0)
(-0.522842 0.00207666 0)
(-0.524008 0.00101713 0)
(-0.524677 0.00591932 0)
(-0.524379 -0.0219639 0)
(-0.524269 -0.0395762 0)
(-0.524355 -0.0395694 0)
(-0.524199 -0.039563 0)
(-0.523827 -0.0395584 0)
(-0.523262 -0.0395549 0)
(-0.522525 -0.0395522 0)
(-0.521637 -0.0395503 0)
(-0.52062 -0.0395491 0)
(-0.519496 -0.0395484 0)
(-0.518291 -0.0395479 0)
(-0.51703 -0.0395475 0)
(-0.515742 -0.039547 0)
(-0.514461 -0.0395461 0)
(-0.513228 -0.0395445 0)
(-0.512092 -0.0395416 0)
(-0.511167 -0.0395346 0)
(-0.510751 -0.0395257 0)
(-0.510692 -0.0395216 0)
(-0.510689 -0.039521 0)
(-0.510689 -0.039521 0)
(-0.510689 -0.039521 0)
(-0.510689 -0.039521 0)
(-0.510689 -0.039521 0)
(-0.510689 -0.039521 0)
(-0.510689 -0.039521 0)
(-0.510689 -0.039521 0)
(-0.510689 -0.039521 0)
(-0.510689 -0.039521 0)
(-0.510689 -0.039521 0)
(-0.510689 -0.039521 0)
(-0.510689 -0.039521 0)
(-0.510689 -0.039521 0)
(-0.510689 -0.039521 0)
(-0.510689 -0.039521 0)
(-0.510689 -0.039521 0)
(-0.510689 -0.039521 0)
(-0.510689 -0.039521 0)
(-0.510689 -0.039521 0)
(-0.510689 -0.039521 0)
(-0.510689 -0.039521 0)
(-0.510689 -0.039521 0)
(-0.510689 -0.039521 0)
(-0.510689 -0.039521 0)
(-0.510689 -0.039521 0)
(-0.510689 -0.039521 0)
(-0.510689 -0.039521 0)
(-0.510689 -0.039521 0)
(-0.510689 -0.039521 0)
(-0.510689 -0.039521 0)
(-0.510689 -0.039521 0)
(-0.510689 -0.039521 0)
(-0.510689 -0.039521 0)
(-0.510689 -0.039521 0)
(-0.510689 -0.039521 0)
(-0.510689 -0.039521 0)
(-0.510689 -0.039521 0)
(-0.510689 -0.039521 0)
(-0.510689 -0.039521 0)
(-0.510689 -0.039521 0)
(-0.510689 -0.039521 0)
(-0.510689 -0.039521 0)
(-0.510689 -0.039521 0)
(-0.510689 -0.039521 0)
(-0.510689 -0.039521 0)
(-0.510689 -0.039521 0)
(-0.510689 -0.039521 0)
(-0.510689 -0.039521 0)
(-0.510689 -0.039521 0)
(-0.510689 -0.039521 0)
(-0.510689 -0.039521 0)
(-0.510689 -0.039521 0)
(-0.510689 -0.039521 0)
(-0.510689 -0.039521 0)
(-0.510689 -0.039521 0)
(-0.510689 -0.039521 0)
(-0.510689 -0.039521 0)
(-0.510689 -0.039521 0)
(-0.510689 -0.039521 0)
(-0.510689 -0.039521 0)
(-0.510689 -0.039521 0)
(-0.510689 -0.039521 0)
(-0.510689 -0.039521 0)
(-0.510689 -0.039521 0)
(-0.510689 -0.039521 0)
(-0.510689 -0.039521 0)
(-0.510689 -0.039521 0)
(-0.510689 -0.039521 0)
(-0.510689 -0.039521 0)
(-0.510689 -0.039521 0)
(-0.510689 -0.039521 0)
(-0.510689 -0.039521 0)
(-0.510689 -0.039521 0)
(-0.510689 -0.039521 0)
(-0.510689 -0.039521 0)
(-0.510689 -0.039521 0)
(-0.510689 -0.039521 0)
(-0.510689 -0.039521 0)
(-0.510689 -0.039521 0)
(-0.510689 -0.039521 0)
(-0.510689 -0.039521 0)
(-0.510689 -0.039521 0)
(-0.510689 -0.039521 0)
(-0.510689 -0.039521 0)
(-0.510689 -0.039521 0)
(-0.510689 -0.039521 0)
(-0.510689 -0.039521 0)
(-0.510689 -0.039521 0)
(-0.510689 -0.039521 0)
(-0.510689 -0.039521 0)
(-0.510689 -0.039521 0)
(-0.510689 -0.039521 0)
(-0.510689 -0.039521 0)
(-0.510689 -0.039521 0)
(-0.510689 -0.0395208 0)
(-0.51069 -0.0395124 0)
(-0.510712 -0.0391673 0)
(-0.511214 -0.0224432 0)
)
;

boundaryField
{
    inandouthalf11
    {
        type            cyclic;
    }
    inandouthalf12
    {
        type            cyclic;
    }
    inandouthalf21
    {
        type            cyclic;
    }
    inandouthalf22
    {
        type            cyclic;
    }
    inandouthalf31
    {
        type            cyclic;
    }
    inandouthalf32
    {
        type            cyclic;
    }
    inandouthalf41
    {
        type            cyclic;
    }
    inandouthalf42
    {
        type            cyclic;
    }
    top
    {
        type            symmetryPlane;
    }
    walls
    {
        type            fixedValue;
        value           uniform (0 0 0);
    }
    frontAndBackPlanes
    {
        type            empty;
    }
}


// ************************************************************************* //
