/*--------------------------------*- C++ -*----------------------------------*\
| =========                 |                                                 |
| \\      /  F ield         | OpenFOAM: The Open Source CFD Toolbox           |
|  \\    /   O peration     | Version:  2.4.x                                 |
|   \\  /    A nd           | Web:      www.OpenFOAM.org                      |
|    \\/     M anipulation  |                                                 |
\*---------------------------------------------------------------------------*/
FoamFile
{
    version     2.0;
    format      ascii;
    class       volVectorField;
    location    "7";
    object      Ua_0;
}
// * * * * * * * * * * * * * * * * * * * * * * * * * * * * * * * * * * * * * //

dimensions      [0 1 -1 0 0 0 0];

internalField   nonuniform List<vector> 
360
(
(-3.93709e-33 -9.86747e-32 0)
(-6.81435e-09 -1.17752e-07 0)
(-1.43872e-08 -2.1242e-07 0)
(-2.12095e-08 -2.92998e-07 0)
(-2.82004e-08 -3.76079e-07 0)
(-3.56386e-08 -4.62711e-07 0)
(-4.33978e-08 -5.50328e-07 0)
(-5.1392e-08 -6.38067e-07 0)
(-5.96155e-08 -7.25995e-07 0)
(-6.80851e-08 -8.14297e-07 0)
(-7.68182e-08 -9.03141e-07 0)
(-8.58253e-08 -9.92594e-07 0)
(-9.51099e-08 -1.08264e-06 0)
(-1.04673e-07 -1.17326e-06 0)
(-1.14517e-07 -1.26442e-06 0)
(-1.24647e-07 -1.35614e-06 0)
(-1.35068e-07 -1.44845e-06 0)
(-1.45786e-07 -1.54136e-06 0)
(-1.56807e-07 -1.63486e-06 0)
(-1.68135e-07 -1.72899e-06 0)
(-1.79776e-07 -1.82372e-06 0)
(-1.91733e-07 -1.91906e-06 0)
(-2.04014e-07 -2.01503e-06 0)
(-2.16623e-07 -2.11162e-06 0)
(-2.29566e-07 -2.20885e-06 0)
(-2.42849e-07 -2.30672e-06 0)
(-2.56477e-07 -2.40521e-06 0)
(-2.70456e-07 -2.50434e-06 0)
(-2.84792e-07 -2.60412e-06 0)
(-2.99492e-07 -2.70454e-06 0)
(-3.14558e-07 -2.80558e-06 0)
(-3.29997e-07 -2.90725e-06 0)
(-3.45812e-07 -3.00953e-06 0)
(-3.62009e-07 -3.11241e-06 0)
(-3.7859e-07 -3.21588e-06 0)
(-3.95557e-07 -3.31989e-06 0)
(-4.1291e-07 -3.42442e-06 0)
(-4.30652e-07 -3.52943e-06 0)
(-4.48786e-07 -3.63493e-06 0)
(-4.6731e-07 -3.74084e-06 0)
(-4.86225e-07 -3.84714e-06 0)
(-5.05533e-07 -3.95383e-06 0)
(-5.25234e-07 -4.06084e-06 0)
(-5.45333e-07 -4.16818e-06 0)
(-5.65839e-07 -4.27586e-06 0)
(-5.8676e-07 -4.38389e-06 0)
(-6.08106e-07 -4.49229e-06 0)
(-6.29887e-07 -4.60105e-06 0)
(-6.52121e-07 -4.71023e-06 0)
(-6.74838e-07 -4.81996e-06 0)
(-6.9806e-07 -4.93028e-06 0)
(-7.21805e-07 -5.04124e-06 0)
(-7.46095e-07 -5.15287e-06 0)
(-7.70945e-07 -5.26522e-06 0)
(-7.96362e-07 -5.37825e-06 0)
(-8.22347e-07 -5.49191e-06 0)
(-8.48888e-07 -5.6061e-06 0)
(-8.75958e-07 -5.72066e-06 0)
(-9.03521e-07 -5.83539e-06 0)
(-9.31525e-07 -5.95003e-06 0)
(-9.5992e-07 -6.06437e-06 0)
(-9.88647e-07 -6.17815e-06 0)
(-1.01763e-06 -6.29106e-06 0)
(-1.0468e-06 -6.40279e-06 0)
(-1.07604e-06 -6.51299e-06 0)
(-1.10527e-06 -6.6213e-06 0)
(-1.1344e-06 -6.72746e-06 0)
(-1.16337e-06 -6.83128e-06 0)
(-1.19213e-06 -6.93264e-06 0)
(-1.22067e-06 -7.03153e-06 0)
(-1.24903e-06 -7.12816e-06 0)
(-1.2773e-06 -7.22287e-06 0)
(-1.30558e-06 -7.31603e-06 0)
(-1.33402e-06 -7.40814e-06 0)
(-1.36281e-06 -7.49983e-06 0)
(-1.39217e-06 -7.59176e-06 0)
(-1.42235e-06 -7.68467e-06 0)
(-1.45364e-06 -7.77932e-06 0)
(-1.48639e-06 -7.87664e-06 0)
(-1.52098e-06 -7.97766e-06 0)
(-1.55789e-06 -8.08353e-06 0)
(-1.59767e-06 -8.19556e-06 0)
(-1.64093e-06 -8.31521e-06 0)
(-1.68837e-06 -8.44403e-06 0)
(-1.74071e-06 -8.58352e-06 0)
(-1.79865e-06 -8.73506e-06 0)
(-1.86277e-06 -8.89962e-06 0)
(-1.93341e-06 -9.0775e-06 0)
(-2.01055e-06 -9.26802e-06 0)
(-2.09363e-06 -9.4692e-06 0)
(-2.18142e-06 -9.67767e-06 0)
(-2.27205e-06 -9.88859e-06 0)
(-2.363e-06 -1.0096e-05 0)
(-2.45141e-06 -1.02935e-05 0)
(-2.53434e-06 -1.04749e-05 0)
(-2.60926e-06 -1.06353e-05 0)
(-2.67433e-06 -1.07716e-05 0)
(-2.72866e-06 -1.0883e-05 0)
(-2.77231e-06 -1.09704e-05 0)
(-2.80612e-06 -1.10366e-05 0)
(-2.83144e-06 -1.1085e-05 0)
(-2.84984e-06 -1.11194e-05 0)
(-2.86286e-06 -1.11431e-05 0)
(-2.87187e-06 -1.11592e-05 0)
(-2.87799e-06 -1.11698e-05 0)
(-2.8821e-06 -1.11768e-05 0)
(-2.88482e-06 -1.11813e-05 0)
(-2.88661e-06 -1.11841e-05 0)
(-2.88778e-06 -1.1186e-05 0)
(-2.88855e-06 -1.11872e-05 0)
(-2.88906e-06 -1.11879e-05 0)
(-2.88939e-06 -1.11884e-05 0)
(-2.88961e-06 -1.11887e-05 0)
(-2.88976e-06 -1.11889e-05 0)
(-2.88985e-06 -1.11891e-05 0)
(-2.88992e-06 -1.11891e-05 0)
(-2.88997e-06 -1.11892e-05 0)
(-2.89e-06 -1.11892e-05 0)
(-2.89002e-06 -1.11893e-05 0)
(-2.89004e-06 -1.11893e-05 0)
(-2.89005e-06 -1.11893e-05 0)
(-2.89005e-06 -1.11893e-05 0)
(-2.89006e-06 -1.11893e-05 0)
(-2.89006e-06 -1.11893e-05 0)
(-2.89007e-06 -1.11893e-05 0)
(-2.89007e-06 -1.11893e-05 0)
(-2.89007e-06 -1.11893e-05 0)
(-2.89007e-06 -1.11893e-05 0)
(-2.89008e-06 -1.11893e-05 0)
(-2.89008e-06 -1.11893e-05 0)
(-2.89008e-06 -1.11893e-05 0)
(-2.89008e-06 -1.11893e-05 0)
(-2.89008e-06 -1.11893e-05 0)
(-2.89008e-06 -1.11893e-05 0)
(-2.89008e-06 -1.11893e-05 0)
(-2.89008e-06 -1.11893e-05 0)
(-2.89008e-06 -1.11893e-05 0)
(-2.89008e-06 -1.11893e-05 0)
(-2.89008e-06 -1.11893e-05 0)
(-2.89008e-06 -1.11893e-05 0)
(-2.89008e-06 -1.11893e-05 0)
(-2.89008e-06 -1.11893e-05 0)
(-2.89008e-06 -1.11893e-05 0)
(-2.89008e-06 -1.11893e-05 0)
(-2.89008e-06 -1.11893e-05 0)
(-2.89008e-06 -1.11893e-05 0)
(-2.89008e-06 -1.11893e-05 0)
(-2.81346e-06 -1.2068e-05 0)
(-2.83833e-06 -1.41545e-05 0)
(-4.81543e-06 -1.80726e-05 0)
(-0.0354346 -0.00380626 0)
(-0.0702411 -0.00520347 0)
(-0.0930282 -0.00651184 0)
(-0.110442 -0.0075112 0)
(-0.124947 -0.00817366 0)
(-0.137612 -0.00857711 0)
(-0.148992 -0.0088195 0)
(-0.159412 -0.00896139 0)
(-0.169077 -0.00903764 0)
(-0.17813 -0.00906998 0)
(-0.186671 -0.00907251 0)
(-0.194776 -0.00905444 0)
(-0.202502 -0.00902185 0)
(-0.209896 -0.00897888 0)
(-0.216992 -0.00892838 0)
(-0.223822 -0.00887236 0)
(-0.230409 -0.00881227 0)
(-0.236773 -0.00874911 0)
(-0.242931 -0.00868357 0)
(-0.248898 -0.00861608 0)
(-0.254685 -0.00854683 0)
(-0.260303 -0.00847582 0)
(-0.26576 -0.0084029 0)
(-0.271065 -0.00832779 0)
(-0.276222 -0.0082501 0)
(-0.281239 -0.00816941 0)
(-0.28612 -0.00808523 0)
(-0.29087 -0.00799709 0)
(-0.295492 -0.00790452 0)
(-0.29999 -0.00780711 0)
(-0.304366 -0.00770448 0)
(-0.308624 -0.00759634 0)
(-0.312765 -0.00748246 0)
(-0.316793 -0.00736268 0)
(-0.320708 -0.00723693 0)
(-0.324512 -0.0071052 0)
(-0.328207 -0.00696753 0)
(-0.331794 -0.00682405 0)
(-0.335273 -0.00667492 0)
(-0.338647 -0.00652034 0)
(-0.341916 -0.00636055 0)
(-0.34508 -0.00619582 0)
(-0.348141 -0.00602648 0)
(-0.351098 -0.00585283 0)
(-0.353952 -0.00567525 0)
(-0.356703 -0.00549413 0)
(-0.359353 -0.00530988 0)
(-0.3619 -0.00512298 0)
(-0.364345 -0.00493391 0)
(-0.366688 -0.00474321 0)
(-0.368929 -0.00455141 0)
(-0.371091 -0.00435711 0)
(-0.373193 -0.00415886 0)
(-0.375233 -0.00395719 0)
(-0.377209 -0.00375271 0)
(-0.379119 -0.00354621 0)
(-0.380961 -0.00333871 0)
(-0.382735 -0.00313146 0)
(-0.384438 -0.00292591 0)
(-0.38607 -0.00272369 0)
(-0.387631 -0.00252648 0)
(-0.389123 -0.002336 0)
(-0.390545 -0.00215379 0)
(-0.391902 -0.00198109 0)
(-0.393196 -0.00181883 0)
(-0.39443 -0.00166762 0)
(-0.39561 -0.00152764 0)
(-0.396741 -0.00139871 0)
(-0.397827 -0.00128041 0)
(-0.398874 -0.00117216 0)
(-0.399887 -0.00107322 0)
(-0.400872 -0.000982788 0)
(-0.401833 -0.000900223 0)
(-0.402774 -0.000824946 0)
(-0.4037 -0.000756449 0)
(-0.404613 -0.000694438 0)
(-0.405516 -0.000638749 0)
(-0.40641 -0.000589447 0)
(-0.407297 -0.00054663 0)
(-0.408174 -0.000510951 0)
(-0.40904 -0.000482932 0)
(-0.40989 -0.000464469 0)
(-0.410713 -0.000456145 0)
(-0.411504 -0.00046483 0)
(-0.412233 -0.000490564 0)
(-0.412878 -0.000550816 0)
(-0.41365 -0.000647602 0)
(-0.519781 0.000815497 0)
(-0.521625 0.000625992 0)
(-0.522997 0.00207402 0)
(-0.524163 0.00102184 0)
(-0.524832 0.00590542 0)
(-0.524532 -0.0219817 0)
(-0.524422 -0.0395762 0)
(-0.524507 -0.0395694 0)
(-0.524351 -0.039563 0)
(-0.523978 -0.0395585 0)
(-0.523413 -0.0395549 0)
(-0.522676 -0.0395522 0)
(-0.521788 -0.0395504 0)
(-0.52077 -0.0395491 0)
(-0.519646 -0.0395484 0)
(-0.51844 -0.0395479 0)
(-0.517179 -0.0395475 0)
(-0.515891 -0.039547 0)
(-0.514611 -0.0395461 0)
(-0.513378 -0.0395445 0)
(-0.512241 -0.0395416 0)
(-0.511316 -0.0395346 0)
(-0.510901 -0.0395257 0)
(-0.510842 -0.0395216 0)
(-0.510839 -0.0395211 0)
(-0.510839 -0.039521 0)
(-0.510839 -0.039521 0)
(-0.510839 -0.039521 0)
(-0.510839 -0.039521 0)
(-0.510839 -0.039521 0)
(-0.510839 -0.039521 0)
(-0.510839 -0.039521 0)
(-0.510839 -0.039521 0)
(-0.510839 -0.039521 0)
(-0.510839 -0.039521 0)
(-0.510839 -0.039521 0)
(-0.510839 -0.039521 0)
(-0.510839 -0.039521 0)
(-0.510839 -0.039521 0)
(-0.510839 -0.039521 0)
(-0.510839 -0.039521 0)
(-0.510839 -0.039521 0)
(-0.510839 -0.039521 0)
(-0.510839 -0.039521 0)
(-0.510839 -0.039521 0)
(-0.510839 -0.039521 0)
(-0.510839 -0.039521 0)
(-0.510839 -0.039521 0)
(-0.510839 -0.039521 0)
(-0.510839 -0.039521 0)
(-0.510839 -0.039521 0)
(-0.510839 -0.039521 0)
(-0.510839 -0.039521 0)
(-0.510839 -0.039521 0)
(-0.510839 -0.039521 0)
(-0.510839 -0.039521 0)
(-0.510839 -0.039521 0)
(-0.510839 -0.039521 0)
(-0.510839 -0.039521 0)
(-0.510839 -0.039521 0)
(-0.510839 -0.039521 0)
(-0.510839 -0.039521 0)
(-0.510839 -0.039521 0)
(-0.510839 -0.039521 0)
(-0.510839 -0.039521 0)
(-0.510839 -0.039521 0)
(-0.510839 -0.039521 0)
(-0.510839 -0.039521 0)
(-0.510839 -0.039521 0)
(-0.510839 -0.039521 0)
(-0.510839 -0.039521 0)
(-0.510839 -0.039521 0)
(-0.510839 -0.039521 0)
(-0.510839 -0.039521 0)
(-0.510839 -0.039521 0)
(-0.510839 -0.039521 0)
(-0.510839 -0.039521 0)
(-0.510839 -0.039521 0)
(-0.510839 -0.039521 0)
(-0.510839 -0.039521 0)
(-0.510839 -0.039521 0)
(-0.510839 -0.039521 0)
(-0.510839 -0.039521 0)
(-0.510839 -0.039521 0)
(-0.510839 -0.039521 0)
(-0.510839 -0.039521 0)
(-0.510839 -0.039521 0)
(-0.510839 -0.039521 0)
(-0.510839 -0.039521 0)
(-0.510839 -0.039521 0)
(-0.510839 -0.039521 0)
(-0.510839 -0.039521 0)
(-0.510839 -0.039521 0)
(-0.510839 -0.039521 0)
(-0.510839 -0.039521 0)
(-0.510839 -0.039521 0)
(-0.510839 -0.039521 0)
(-0.510839 -0.039521 0)
(-0.510839 -0.039521 0)
(-0.510839 -0.039521 0)
(-0.510839 -0.039521 0)
(-0.510839 -0.039521 0)
(-0.510839 -0.039521 0)
(-0.510839 -0.039521 0)
(-0.510839 -0.039521 0)
(-0.510839 -0.039521 0)
(-0.510839 -0.039521 0)
(-0.510839 -0.039521 0)
(-0.510839 -0.039521 0)
(-0.510839 -0.039521 0)
(-0.510839 -0.039521 0)
(-0.510839 -0.039521 0)
(-0.510839 -0.039521 0)
(-0.510839 -0.039521 0)
(-0.510839 -0.039521 0)
(-0.510839 -0.039521 0)
(-0.510839 -0.039521 0)
(-0.510839 -0.039521 0)
(-0.510839 -0.039521 0)
(-0.510839 -0.0395208 0)
(-0.51084 -0.0395124 0)
(-0.510862 -0.0391673 0)
(-0.511364 -0.0224433 0)
)
;

boundaryField
{
    inandouthalf11
    {
        type            cyclic;
    }
    inandouthalf12
    {
        type            cyclic;
    }
    inandouthalf21
    {
        type            cyclic;
    }
    inandouthalf22
    {
        type            cyclic;
    }
    inandouthalf31
    {
        type            cyclic;
    }
    inandouthalf32
    {
        type            cyclic;
    }
    inandouthalf41
    {
        type            cyclic;
    }
    inandouthalf42
    {
        type            cyclic;
    }
    top
    {
        type            symmetryPlane;
    }
    walls
    {
        type            fixedValue;
        value           uniform (0 0 0);
    }
    frontAndBackPlanes
    {
        type            empty;
    }
}


// ************************************************************************* //
