/*--------------------------------*- C++ -*----------------------------------*\
| =========                 |                                                 |
| \\      /  F ield         | OpenFOAM: The Open Source CFD Toolbox           |
|  \\    /   O peration     | Version:  2.4.x                                 |
|   \\  /    A nd           | Web:      www.OpenFOAM.org                      |
|    \\/     M anipulation  |                                                 |
\*---------------------------------------------------------------------------*/
FoamFile
{
    version     2.0;
    format      ascii;
    class       volVectorField;
    location    "7";
    object      Ub;
}
// * * * * * * * * * * * * * * * * * * * * * * * * * * * * * * * * * * * * * //

dimensions      [0 1 -1 0 0 0 0];

internalField   nonuniform List<vector> 
360
(
(0.00016806 4.87542e-08 0)
(0.000167209 1.76024e-07 0)
(0.000167053 3.25101e-07 0)
(0.000167161 4.61064e-07 0)
(0.000167219 5.93641e-07 0)
(0.000167236 7.2888e-07 0)
(0.000167254 8.66188e-07 0)
(0.000167277 1.0042e-06 0)
(0.000167301 1.14256e-06 0)
(0.000167325 1.28145e-06 0)
(0.00016735 1.42113e-06 0)
(0.000167374 1.5617e-06 0)
(0.000167398 1.70318e-06 0)
(0.000167422 1.84552e-06 0)
(0.000167447 1.9887e-06 0)
(0.000167471 2.13274e-06 0)
(0.000167495 2.27766e-06 0)
(0.00016752 2.42349e-06 0)
(0.000167544 2.57022e-06 0)
(0.000167569 2.7179e-06 0)
(0.000167593 2.86649e-06 0)
(0.000167617 3.01601e-06 0)
(0.000167642 3.16647e-06 0)
(0.000167666 3.31789e-06 0)
(0.000167691 3.47026e-06 0)
(0.000167716 3.62359e-06 0)
(0.00016774 3.77787e-06 0)
(0.000167765 3.93311e-06 0)
(0.000167789 4.08933e-06 0)
(0.000167814 4.24651e-06 0)
(0.000167839 4.40462e-06 0)
(0.000167864 4.56369e-06 0)
(0.000167888 4.72365e-06 0)
(0.000167913 4.88453e-06 0)
(0.000167938 5.04626e-06 0)
(0.000167962 5.20881e-06 0)
(0.000167987 5.37211e-06 0)
(0.000168012 5.53614e-06 0)
(0.000168037 5.70087e-06 0)
(0.000168062 5.86619e-06 0)
(0.000168087 6.0321e-06 0)
(0.000168112 6.19854e-06 0)
(0.000168137 6.36544e-06 0)
(0.000168163 6.53282e-06 0)
(0.000168188 6.70067e-06 0)
(0.000168213 6.86901e-06 0)
(0.000168239 7.03789e-06 0)
(0.000168264 7.20729e-06 0)
(0.00016829 7.37729e-06 0)
(0.000168316 7.5481e-06 0)
(0.000168341 7.71973e-06 0)
(0.000168367 7.89232e-06 0)
(0.000168393 8.06588e-06 0)
(0.000168419 8.24049e-06 0)
(0.000168445 8.41605e-06 0)
(0.000168471 8.59256e-06 0)
(0.000168497 8.76976e-06 0)
(0.000168523 8.94748e-06 0)
(0.00016855 9.12539e-06 0)
(0.000168576 9.30306e-06 0)
(0.000168603 9.48021e-06 0)
(0.00016863 9.65635e-06 0)
(0.000168658 9.83109e-06 0)
(0.000168686 1.00039e-05 0)
(0.000168714 1.01742e-05 0)
(0.000168744 1.03416e-05 0)
(0.000168774 1.05055e-05 0)
(0.000168805 1.06657e-05 0)
(0.000168836 1.08221e-05 0)
(0.000168869 1.09746e-05 0)
(0.000168903 1.11235e-05 0)
(0.000168938 1.12694e-05 0)
(0.000168973 1.14128e-05 0)
(0.00016901 1.15546e-05 0)
(0.000169047 1.16955e-05 0)
(0.000169085 1.18369e-05 0)
(0.000169122 1.19796e-05 0)
(0.00016916 1.2125e-05 0)
(0.000169197 1.22744e-05 0)
(0.000169234 1.24296e-05 0)
(0.000169269 1.25922e-05 0)
(0.000169303 1.27644e-05 0)
(0.000169335 1.29482e-05 0)
(0.000169365 1.31461e-05 0)
(0.000169391 1.33605e-05 0)
(0.000169413 1.35931e-05 0)
(0.00016943 1.38456e-05 0)
(0.000169443 1.41183e-05 0)
(0.000169451 1.44098e-05 0)
(0.000169454 1.47173e-05 0)
(0.000169454 1.50353e-05 0)
(0.000169452 1.53566e-05 0)
(0.000169452 1.56722e-05 0)
(0.000169456 1.59725e-05 0)
(0.000169467 1.62482e-05 0)
(0.000169488 1.64919e-05 0)
(0.000169519 1.66989e-05 0)
(0.000169563 1.68679e-05 0)
(0.000169619 1.70002e-05 0)
(0.000169687 1.70996e-05 0)
(0.000169766 1.71714e-05 0)
(0.000169854 1.7221e-05 0)
(0.000169949 1.72538e-05 0)
(0.000170051 1.72742e-05 0)
(0.000170159 1.72858e-05 0)
(0.000170271 1.72913e-05 0)
(0.000170388 1.72927e-05 0)
(0.000170509 1.72913e-05 0)
(0.000170634 1.7288e-05 0)
(0.000170762 1.72835e-05 0)
(0.000170895 1.72781e-05 0)
(0.000171031 1.72721e-05 0)
(0.000171171 1.72656e-05 0)
(0.000171316 1.72588e-05 0)
(0.000171465 1.72516e-05 0)
(0.000171618 1.72442e-05 0)
(0.000171776 1.72364e-05 0)
(0.000171939 1.72285e-05 0)
(0.000172107 1.72202e-05 0)
(0.000172281 1.72117e-05 0)
(0.00017246 1.72029e-05 0)
(0.000172645 1.71938e-05 0)
(0.000172836 1.71845e-05 0)
(0.000173034 1.71748e-05 0)
(0.000173238 1.71648e-05 0)
(0.00017345 1.71545e-05 0)
(0.00017367 1.71438e-05 0)
(0.000173898 1.71327e-05 0)
(0.000174135 1.71212e-05 0)
(0.000174382 1.71092e-05 0)
(0.000174639 1.70968e-05 0)
(0.000174907 1.70838e-05 0)
(0.000175188 1.70702e-05 0)
(0.000175484 1.7056e-05 0)
(0.000175798 1.70409e-05 0)
(0.000176132 1.70251e-05 0)
(0.000176482 1.70083e-05 0)
(0.000176855 1.69899e-05 0)
(0.00017727 1.69697e-05 0)
(0.000177746 1.69481e-05 0)
(0.000178261 1.69261e-05 0)
(0.000178753 1.68989e-05 0)
(0.000179346 1.68687e-05 0)
(0.000180117 1.68328e-05 0)
(0.000181082 1.67662e-05 0)
(0.00018292 1.66043e-05 0)
(0.000188384 1.57644e-05 0)
(0.000190556 2.75349e-05 0)
(0.000193854 -1.80982e-05 0)
(4.93798e-05 0.000129003 0)
(-0.0401713 0.00130354 0)
(-0.0726638 0.000120052 0)
(-0.0937455 0.000374728 0)
(-0.110215 0.000164722 0)
(-0.124194 0.000149195 0)
(-0.136577 0.000117632 0)
(-0.147826 9.34289e-05 0)
(-0.158212 7.56871e-05 0)
(-0.167911 6.23791e-05 0)
(-0.177044 5.20407e-05 0)
(-0.185701 4.38371e-05 0)
(-0.193947 3.72374e-05 0)
(-0.201836 3.18656e-05 0)
(-0.209409 2.74453e-05 0)
(-0.216701 2.37723e-05 0)
(-0.223739 2.06938e-05 0)
(-0.230549 1.80939e-05 0)
(-0.237149 1.58833e-05 0)
(-0.243557 1.39921e-05 0)
(-0.249788 1.23653e-05 0)
(-0.255855 1.09589e-05 0)
(-0.261769 9.73749e-06 0)
(-0.26754 8.67228e-06 0)
(-0.273177 7.73966e-06 0)
(-0.278688 6.92017e-06 0)
(-0.28408 6.19767e-06 0)
(-0.289359 5.55868e-06 0)
(-0.29453 4.99191e-06 0)
(-0.2996 4.48784e-06 0)
(-0.304571 4.03843e-06 0)
(-0.30945 3.63683e-06 0)
(-0.314239 3.27721e-06 0)
(-0.318942 2.95457e-06 0)
(-0.323562 2.66461e-06 0)
(-0.328102 2.40361e-06 0)
(-0.332565 2.16837e-06 0)
(-0.336954 1.95608e-06 0)
(-0.341271 1.76429e-06 0)
(-0.345517 1.59087e-06 0)
(-0.349696 1.43393e-06 0)
(-0.353808 1.29179e-06 0)
(-0.357856 1.163e-06 0)
(-0.361842 1.04623e-06 0)
(-0.365766 9.40326e-07 0)
(-0.36963 8.44241e-07 0)
(-0.373436 7.57046e-07 0)
(-0.377185 6.77907e-07 0)
(-0.380878 6.06082e-07 0)
(-0.384516 5.40912e-07 0)
(-0.3881 4.8181e-07 0)
(-0.391632 4.28253e-07 0)
(-0.395146 3.79274e-07 0)
(-0.398679 3.34176e-07 0)
(-0.402229 2.92795e-07 0)
(-0.405795 2.5496e-07 0)
(-0.409377 2.20492e-07 0)
(-0.412973 1.89223e-07 0)
(-0.416583 1.61012e-07 0)
(-0.420205 1.3574e-07 0)
(-0.423838 1.13299e-07 0)
(-0.42748 9.35776e-08 0)
(-0.43113 7.64555e-08 0)
(-0.434786 6.17961e-08 0)
(-0.438446 4.94285e-08 0)
(-0.442106 3.91445e-08 0)
(-0.445766 3.07172e-08 0)
(-0.449421 2.39096e-08 0)
(-0.453069 1.84802e-08 0)
(-0.456706 1.4197e-08 0)
(-0.460328 1.08515e-08 0)
(-0.463931 8.26041e-09 0)
(-0.46751 6.26501e-09 0)
(-0.47106 4.73546e-09 0)
(-0.474574 3.56881e-09 0)
(-0.478047 2.68261e-09 0)
(-0.48147 2.01198e-09 0)
(-0.484837 1.50668e-09 0)
(-0.488137 1.12803e-09 0)
(-0.491361 8.45555e-10 0)
(-0.494498 6.36129e-10 0)
(-0.497535 4.81801e-10 0)
(-0.50046 3.69606e-10 0)
(-0.503257 2.8725e-10 0)
(-0.505911 2.27056e-10 0)
(-0.508405 1.80548e-10 0)
(-0.510721 2.23073e-10 0)
(-0.512841 9.31188e-11 0)
(-0.514748 -1.18469e-10 0)
(-0.516424 -1.33887e-10 0)
(-0.517855 -1.13258e-10 0)
(-0.519031 -7.4763e-11 0)
(-0.519943 -8.17751e-12 0)
(-0.520591 3.48153e-11 0)
(-0.52098 -1.07991e-11 0)
(-0.521118 -3.17274e-12 0)
(-0.521021 -1.42887e-12 0)
(-0.520705 -1.48447e-12 0)
(-0.520189 -1.75e-12 0)
(-0.519494 -1.9937e-12 0)
(-0.518641 -1.78616e-12 0)
(-0.517652 5.16359e-12 0)
(-0.516549 -2.61053e-11 0)
(-0.515358 5.51982e-11 0)
(-0.514105 -1.07822e-10 0)
(-0.512818 1.73082e-10 0)
(-0.51153 -2.63628e-10 0)
(-0.510281 3.67059e-10 0)
(-0.509124 -4.9295e-10 0)
(-0.508135 6.2723e-10 0)
(-0.507602 -7.76597e-10 0)
(-0.507521 9.27457e-10 0)
(-0.507518 -1.08752e-09 0)
(-0.507518 1.24706e-09 0)
(-0.507517 -1.41487e-09 0)
(-0.507517 1.58275e-09 0)
(-0.507517 -1.7588e-09 0)
(-0.507517 1.93554e-09 0)
(-0.507517 -2.12044e-09 0)
(-0.507517 2.30654e-09 0)
(-0.507517 -2.50086e-09 0)
(-0.507517 2.69681e-09 0)
(-0.507517 -2.90103e-09 0)
(-0.507517 3.1073e-09 0)
(-0.507517 -3.32189e-09 0)
(-0.507517 3.53888e-09 0)
(-0.507517 -3.76424e-09 0)
(-0.507517 3.99234e-09 0)
(-0.507517 -4.22883e-09 0)
(-0.507517 4.46841e-09 0)
(-0.507517 -4.71634e-09 0)
(-0.507517 4.96773e-09 0)
(-0.507517 -5.22743e-09 0)
(-0.507517 5.49092e-09 0)
(-0.507517 -5.76268e-09 0)
(-0.507517 6.03855e-09 0)
(-0.507517 -6.32262e-09 0)
(-0.507517 6.61115e-09 0)
(-0.507517 -6.90777e-09 0)
(-0.507517 7.20919e-09 0)
(-0.507517 -7.51857e-09 0)
(-0.507517 7.8331e-09 0)
(-0.507517 -8.15542e-09 0)
(-0.507517 8.48328e-09 0)
(-0.507517 -8.81871e-09 0)
(-0.507517 9.16007e-09 0)
(-0.507517 -9.50878e-09 0)
(-0.507517 9.86378e-09 0)
(-0.507517 -1.0226e-08 0)
(-0.507517 1.05946e-08 0)
(-0.507517 -1.09705e-08 0)
(-0.507517 1.13529e-08 0)
(-0.507517 -1.17424e-08 0)
(-0.507517 1.21387e-08 0)
(-0.507517 -1.2542e-08 0)
(-0.507517 1.2952e-08 0)
(-0.507517 -1.33691e-08 0)
(-0.507517 1.37929e-08 0)
(-0.507517 -1.42237e-08 0)
(-0.507517 1.46612e-08 0)
(-0.507517 -1.51055e-08 0)
(-0.507517 1.36566e-08 0)
(-0.507517 -1.37981e-08 0)
(-0.507517 1.39381e-08 0)
(-0.507517 -1.40767e-08 0)
(-0.507517 1.42137e-08 0)
(-0.507517 -1.43492e-08 0)
(-0.507517 1.44831e-08 0)
(-0.507517 -1.46155e-08 0)
(-0.507517 1.47464e-08 0)
(-0.507517 -1.48756e-08 0)
(-0.507517 1.50032e-08 0)
(-0.507517 -1.51292e-08 0)
(-0.507517 1.52536e-08 0)
(-0.507517 -1.53762e-08 0)
(-0.507517 1.54972e-08 0)
(-0.507517 -1.56165e-08 0)
(-0.507517 1.5734e-08 0)
(-0.507517 -1.58497e-08 0)
(-0.507517 1.59636e-08 0)
(-0.507517 -1.60757e-08 0)
(-0.507517 1.61861e-08 0)
(-0.507517 -1.62943e-08 0)
(-0.507517 1.6401e-08 0)
(-0.507517 -1.65052e-08 0)
(-0.507517 1.6608e-08 0)
(-0.507517 -1.67082e-08 0)
(-0.507517 1.68069e-08 0)
(-0.507517 -1.69029e-08 0)
(-0.507517 1.69974e-08 0)
(-0.507517 -1.7089e-08 0)
(-0.507517 1.71789e-08 0)
(-0.507517 -1.72661e-08 0)
(-0.507517 1.73511e-08 0)
(-0.507517 -1.74337e-08 0)
(-0.507517 1.75135e-08 0)
(-0.507517 -1.75912e-08 0)
(-0.507517 1.76655e-08 0)
(-0.507517 -1.77379e-08 0)
(-0.507517 1.78061e-08 0)
(-0.507517 -1.78731e-08 0)
(-0.507517 1.79346e-08 0)
(-0.507517 -1.79955e-08 0)
(-0.507517 1.80494e-08 0)
(-0.507517 -1.81036e-08 0)
(-0.507517 1.81489e-08 0)
(-0.507517 -1.81951e-08 0)
(-0.507517 1.82301e-08 0)
(-0.507517 -1.82657e-08 0)
(-0.507517 1.82866e-08 0)
(-0.507517 -1.83068e-08 0)
)
;

boundaryField
{
    inandouthalf11
    {
        type            cyclic;
    }
    inandouthalf12
    {
        type            cyclic;
    }
    inandouthalf21
    {
        type            cyclic;
    }
    inandouthalf22
    {
        type            cyclic;
    }
    inandouthalf31
    {
        type            cyclic;
    }
    inandouthalf32
    {
        type            cyclic;
    }
    inandouthalf41
    {
        type            cyclic;
    }
    inandouthalf42
    {
        type            cyclic;
    }
    top
    {
        type            symmetryPlane;
    }
    walls
    {
        type            fixedValue;
        value           uniform (0 0 0);
    }
    frontAndBackPlanes
    {
        type            empty;
    }
}


// ************************************************************************* //
