/*--------------------------------*- C++ -*----------------------------------*\
| =========                 |                                                 |
| \\      /  F ield         | OpenFOAM: The Open Source CFD Toolbox           |
|  \\    /   O peration     | Version:  2.4.x                                 |
|   \\  /    A nd           | Web:      www.OpenFOAM.org                      |
|    \\/     M anipulation  |                                                 |
\*---------------------------------------------------------------------------*/
FoamFile
{
    version     2.0;
    format      ascii;
    class       volVectorField;
    location    "7";
    object      Ub_0;
}
// * * * * * * * * * * * * * * * * * * * * * * * * * * * * * * * * * * * * * //

dimensions      [0 1 -1 0 0 0 0];

internalField   nonuniform List<vector> 
360
(
(0.000168021 4.87586e-08 0)
(0.00016717 1.7604e-07 0)
(0.000167014 3.25132e-07 0)
(0.000167122 4.61109e-07 0)
(0.000167181 5.93699e-07 0)
(0.000167197 7.28951e-07 0)
(0.000167215 8.66274e-07 0)
(0.000167238 1.0043e-06 0)
(0.000167262 1.14267e-06 0)
(0.000167287 1.28158e-06 0)
(0.000167311 1.42127e-06 0)
(0.000167335 1.56186e-06 0)
(0.00016736 1.70336e-06 0)
(0.000167384 1.84571e-06 0)
(0.000167408 1.98891e-06 0)
(0.000167432 2.13296e-06 0)
(0.000167457 2.2779e-06 0)
(0.000167481 2.42374e-06 0)
(0.000167505 2.5705e-06 0)
(0.00016753 2.71819e-06 0)
(0.000167554 2.8668e-06 0)
(0.000167579 3.01633e-06 0)
(0.000167603 3.16682e-06 0)
(0.000167628 3.31825e-06 0)
(0.000167652 3.47064e-06 0)
(0.000167677 3.62398e-06 0)
(0.000167701 3.77828e-06 0)
(0.000167726 3.93354e-06 0)
(0.000167751 4.08978e-06 0)
(0.000167775 4.24698e-06 0)
(0.0001678 4.40511e-06 0)
(0.000167825 4.5642e-06 0)
(0.000167849 4.72418e-06 0)
(0.000167874 4.88507e-06 0)
(0.000167899 5.04682e-06 0)
(0.000167923 5.20939e-06 0)
(0.000167948 5.37272e-06 0)
(0.000167973 5.53676e-06 0)
(0.000167998 5.70152e-06 0)
(0.000168023 5.86686e-06 0)
(0.000168048 6.03278e-06 0)
(0.000168073 6.19925e-06 0)
(0.000168098 6.36616e-06 0)
(0.000168123 6.53357e-06 0)
(0.000168149 6.70144e-06 0)
(0.000168174 6.86981e-06 0)
(0.0001682 7.03871e-06 0)
(0.000168225 7.20812e-06 0)
(0.00016825 7.37816e-06 0)
(0.000168277 7.54899e-06 0)
(0.000168302 7.72065e-06 0)
(0.000168328 7.89326e-06 0)
(0.000168354 8.06685e-06 0)
(0.00016838 8.24149e-06 0)
(0.000168405 8.41708e-06 0)
(0.000168432 8.59362e-06 0)
(0.000168458 8.77085e-06 0)
(0.000168484 8.9486e-06 0)
(0.00016851 9.12653e-06 0)
(0.000168536 9.30422e-06 0)
(0.000168564 9.4814e-06 0)
(0.00016859 9.65756e-06 0)
(0.000168618 9.83231e-06 0)
(0.000168646 1.00051e-05 0)
(0.000168675 1.01755e-05 0)
(0.000168704 1.03428e-05 0)
(0.000168734 1.05067e-05 0)
(0.000168765 1.0667e-05 0)
(0.000168797 1.08233e-05 0)
(0.000168829 1.09758e-05 0)
(0.000168863 1.11248e-05 0)
(0.000168898 1.12707e-05 0)
(0.000168933 1.14141e-05 0)
(0.00016897 1.15558e-05 0)
(0.000169007 1.16968e-05 0)
(0.000169045 1.18382e-05 0)
(0.000169082 1.1981e-05 0)
(0.00016912 1.21264e-05 0)
(0.000169157 1.2276e-05 0)
(0.000169194 1.24313e-05 0)
(0.000169229 1.2594e-05 0)
(0.000169263 1.27663e-05 0)
(0.000169295 1.29504e-05 0)
(0.000169324 1.31486e-05 0)
(0.00016935 1.33632e-05 0)
(0.000169372 1.35962e-05 0)
(0.00016939 1.38491e-05 0)
(0.000169402 1.41221e-05 0)
(0.00016941 1.4414e-05 0)
(0.000169413 1.47218e-05 0)
(0.000169413 1.50401e-05 0)
(0.000169411 1.53616e-05 0)
(0.000169411 1.56772e-05 0)
(0.000169415 1.59773e-05 0)
(0.000169426 1.62526e-05 0)
(0.000169447 1.64959e-05 0)
(0.000169478 1.67024e-05 0)
(0.000169522 1.68707e-05 0)
(0.000169579 1.70024e-05 0)
(0.000169647 1.71014e-05 0)
(0.000169726 1.71727e-05 0)
(0.000169814 1.7222e-05 0)
(0.000169909 1.72545e-05 0)
(0.000170011 1.72747e-05 0)
(0.000170119 1.72861e-05 0)
(0.000170231 1.72915e-05 0)
(0.000170348 1.72928e-05 0)
(0.000170469 1.72914e-05 0)
(0.000170594 1.72881e-05 0)
(0.000170722 1.72836e-05 0)
(0.000170855 1.72782e-05 0)
(0.000170991 1.72721e-05 0)
(0.000171131 1.72657e-05 0)
(0.000171276 1.72588e-05 0)
(0.000171425 1.72516e-05 0)
(0.000171578 1.72442e-05 0)
(0.000171736 1.72364e-05 0)
(0.000171899 1.72285e-05 0)
(0.000172067 1.72202e-05 0)
(0.00017224 1.72117e-05 0)
(0.000172419 1.72029e-05 0)
(0.000172604 1.71938e-05 0)
(0.000172795 1.71845e-05 0)
(0.000172993 1.71748e-05 0)
(0.000173198 1.71648e-05 0)
(0.000173409 1.71545e-05 0)
(0.000173629 1.71438e-05 0)
(0.000173857 1.71327e-05 0)
(0.000174094 1.71212e-05 0)
(0.000174341 1.71092e-05 0)
(0.000174598 1.70968e-05 0)
(0.000174866 1.70838e-05 0)
(0.000175147 1.70702e-05 0)
(0.000175443 1.7056e-05 0)
(0.000175757 1.70409e-05 0)
(0.000176091 1.70251e-05 0)
(0.000176441 1.70083e-05 0)
(0.000176814 1.69899e-05 0)
(0.000177228 1.69697e-05 0)
(0.000177704 1.69481e-05 0)
(0.000178219 1.69261e-05 0)
(0.000178711 1.68989e-05 0)
(0.000179304 1.68687e-05 0)
(0.000180074 1.68328e-05 0)
(0.00018104 1.67662e-05 0)
(0.000182877 1.66044e-05 0)
(0.00018834 1.57621e-05 0)
(0.000190511 2.75317e-05 0)
(0.000193806 -1.8123e-05 0)
(4.86552e-05 0.000128942 0)
(-0.0402136 0.00130302 0)
(-0.072729 0.000120604 0)
(-0.0938273 0.000374623 0)
(-0.110309 0.000164933 0)
(-0.124297 0.000149206 0)
(-0.136687 0.000117654 0)
(-0.147942 9.34518e-05 0)
(-0.158333 7.57032e-05 0)
(-0.168036 6.23893e-05 0)
(-0.177172 5.20476e-05 0)
(-0.185831 4.3842e-05 0)
(-0.19408 3.7241e-05 0)
(-0.201971 3.18682e-05 0)
(-0.209546 2.74473e-05 0)
(-0.21684 2.37738e-05 0)
(-0.22388 2.0695e-05 0)
(-0.230691 1.80949e-05 0)
(-0.237292 1.5884e-05 0)
(-0.243702 1.39926e-05 0)
(-0.249934 1.23657e-05 0)
(-0.256002 1.09592e-05 0)
(-0.261917 9.73773e-06 0)
(-0.267689 8.67244e-06 0)
(-0.273327 7.73976e-06 0)
(-0.278838 6.92022e-06 0)
(-0.284231 6.19767e-06 0)
(-0.28951 5.55864e-06 0)
(-0.294682 4.99183e-06 0)
(-0.299752 4.48774e-06 0)
(-0.304725 4.0383e-06 0)
(-0.309604 3.63667e-06 0)
(-0.314393 3.27703e-06 0)
(-0.319096 2.95437e-06 0)
(-0.323717 2.6644e-06 0)
(-0.328258 2.40339e-06 0)
(-0.332721 2.16814e-06 0)
(-0.33711 1.95584e-06 0)
(-0.341427 1.76405e-06 0)
(-0.345674 1.59062e-06 0)
(-0.349853 1.43368e-06 0)
(-0.353966 1.29154e-06 0)
(-0.358014 1.16275e-06 0)
(-0.362 1.04598e-06 0)
(-0.365924 9.40083e-07 0)
(-0.369789 8.44003e-07 0)
(-0.373595 7.56813e-07 0)
(-0.377344 6.7768e-07 0)
(-0.381038 6.05862e-07 0)
(-0.384676 5.40699e-07 0)
(-0.38826 4.81605e-07 0)
(-0.391792 4.28056e-07 0)
(-0.395307 3.79086e-07 0)
(-0.39884 3.33996e-07 0)
(-0.40239 2.92625e-07 0)
(-0.405956 2.54799e-07 0)
(-0.409538 2.20341e-07 0)
(-0.413134 1.89082e-07 0)
(-0.416744 1.60881e-07 0)
(-0.420366 1.35619e-07 0)
(-0.424 1.13189e-07 0)
(-0.427642 9.34778e-08 0)
(-0.431292 7.63659e-08 0)
(-0.434948 6.17165e-08 0)
(-0.438607 4.93585e-08 0)
(-0.442268 3.90835e-08 0)
(-0.445928 3.06646e-08 0)
(-0.449583 2.38647e-08 0)
(-0.453231 1.84421e-08 0)
(-0.456868 1.41651e-08 0)
(-0.46049 1.08248e-08 0)
(-0.464093 8.23825e-09 0)
(-0.467672 6.24672e-09 0)
(-0.471222 4.72042e-09 0)
(-0.474736 3.5565e-09 0)
(-0.478209 2.67259e-09 0)
(-0.481632 2.00385e-09 0)
(-0.484998 1.50012e-09 0)
(-0.488299 1.12275e-09 0)
(-0.491522 8.41329e-10 0)
(-0.494659 6.32764e-10 0)
(-0.497696 4.79138e-10 0)
(-0.50062 3.6751e-10 0)
(-0.503417 2.85616e-10 0)
(-0.50607 2.25798e-10 0)
(-0.508564 1.79574e-10 0)
(-0.51088 2.22262e-10 0)
(-0.512999 9.25999e-11 0)
(-0.514906 -1.18611e-10 0)
(-0.516581 -1.33976e-10 0)
(-0.518012 -1.13141e-10 0)
(-0.519186 -7.45466e-11 0)
(-0.520098 -8.13232e-12 0)
(-0.520746 3.48527e-11 0)
(-0.521134 -1.07891e-11 0)
(-0.521272 -3.16095e-12 0)
(-0.521174 -1.41521e-12 0)
(-0.520857 -1.4711e-12 0)
(-0.520341 -1.73692e-12 0)
(-0.519646 -1.9812e-12 0)
(-0.518792 -1.77398e-12 0)
(-0.517803 5.17577e-12 0)
(-0.5167 -2.6089e-11 0)
(-0.515509 5.52036e-11 0)
(-0.514255 -1.07804e-10 0)
(-0.512968 1.73095e-10 0)
(-0.51168 -2.63632e-10 0)
(-0.510431 3.67105e-10 0)
(-0.509274 -4.92998e-10 0)
(-0.508285 6.27324e-10 0)
(-0.507752 -7.76693e-10 0)
(-0.507671 9.27595e-10 0)
(-0.507668 -1.08766e-09 0)
(-0.507668 1.24724e-09 0)
(-0.507668 -1.41504e-09 0)
(-0.507668 1.58296e-09 0)
(-0.507668 -1.75899e-09 0)
(-0.507668 1.93576e-09 0)
(-0.507668 -2.12066e-09 0)
(-0.507668 2.30679e-09 0)
(-0.507668 -2.5011e-09 0)
(-0.507668 2.69708e-09 0)
(-0.507668 -2.9013e-09 0)
(-0.507668 3.1076e-09 0)
(-0.507668 -3.32219e-09 0)
(-0.507668 3.5392e-09 0)
(-0.507668 -3.76457e-09 0)
(-0.507668 3.9927e-09 0)
(-0.507668 -4.22919e-09 0)
(-0.507668 4.46879e-09 0)
(-0.507668 -4.71673e-09 0)
(-0.507668 4.96815e-09 0)
(-0.507668 -5.22785e-09 0)
(-0.507668 5.49137e-09 0)
(-0.507668 -5.76313e-09 0)
(-0.507668 6.03904e-09 0)
(-0.507668 -6.32312e-09 0)
(-0.507668 6.61167e-09 0)
(-0.507668 -6.9083e-09 0)
(-0.507668 7.20975e-09 0)
(-0.507668 -7.51914e-09 0)
(-0.507668 7.8337e-09 0)
(-0.507668 -8.15603e-09 0)
(-0.507668 8.48392e-09 0)
(-0.507668 -8.81937e-09 0)
(-0.507668 9.16076e-09 0)
(-0.507668 -9.50948e-09 0)
(-0.507668 9.86451e-09 0)
(-0.507668 -1.02267e-08 0)
(-0.507668 1.05954e-08 0)
(-0.507668 -1.09712e-08 0)
(-0.507668 1.13537e-08 0)
(-0.507668 -1.17433e-08 0)
(-0.507668 1.21395e-08 0)
(-0.507668 -1.25429e-08 0)
(-0.507668 1.2953e-08 0)
(-0.507668 -1.33701e-08 0)
(-0.507668 1.37939e-08 0)
(-0.507668 -1.42247e-08 0)
(-0.507668 1.46622e-08 0)
(-0.507668 -1.51066e-08 0)
(-0.507668 1.36575e-08 0)
(-0.507668 -1.37991e-08 0)
(-0.507668 1.39391e-08 0)
(-0.507668 -1.40776e-08 0)
(-0.507668 1.42147e-08 0)
(-0.507668 -1.43502e-08 0)
(-0.507668 1.44841e-08 0)
(-0.507668 -1.46165e-08 0)
(-0.507668 1.47474e-08 0)
(-0.507668 -1.48766e-08 0)
(-0.507668 1.50043e-08 0)
(-0.507668 -1.51303e-08 0)
(-0.507668 1.52546e-08 0)
(-0.507668 -1.53773e-08 0)
(-0.507668 1.54983e-08 0)
(-0.507668 -1.56175e-08 0)
(-0.507668 1.5735e-08 0)
(-0.507668 -1.58508e-08 0)
(-0.507668 1.59647e-08 0)
(-0.507668 -1.60768e-08 0)
(-0.507668 1.61871e-08 0)
(-0.507668 -1.62954e-08 0)
(-0.507668 1.6402e-08 0)
(-0.507668 -1.65063e-08 0)
(-0.507668 1.66091e-08 0)
(-0.507668 -1.67093e-08 0)
(-0.507668 1.6808e-08 0)
(-0.507668 -1.6904e-08 0)
(-0.507668 1.69985e-08 0)
(-0.507668 -1.70902e-08 0)
(-0.507668 1.718e-08 0)
(-0.507668 -1.72672e-08 0)
(-0.507668 1.73522e-08 0)
(-0.507668 -1.74349e-08 0)
(-0.507668 1.75146e-08 0)
(-0.507668 -1.75924e-08 0)
(-0.507668 1.76665e-08 0)
(-0.507668 -1.77392e-08 0)
(-0.507668 1.78072e-08 0)
(-0.507668 -1.78743e-08 0)
(-0.507668 1.79357e-08 0)
(-0.507668 -1.79967e-08 0)
(-0.507668 1.80505e-08 0)
(-0.507668 -1.81049e-08 0)
(-0.507668 1.815e-08 0)
(-0.507668 -1.81963e-08 0)
(-0.507668 1.82312e-08 0)
(-0.507668 -1.82669e-08 0)
(-0.507668 1.82878e-08 0)
(-0.507668 -1.8308e-08 0)
)
;

boundaryField
{
    inandouthalf11
    {
        type            cyclic;
    }
    inandouthalf12
    {
        type            cyclic;
    }
    inandouthalf21
    {
        type            cyclic;
    }
    inandouthalf22
    {
        type            cyclic;
    }
    inandouthalf31
    {
        type            cyclic;
    }
    inandouthalf32
    {
        type            cyclic;
    }
    inandouthalf41
    {
        type            cyclic;
    }
    inandouthalf42
    {
        type            cyclic;
    }
    top
    {
        type            symmetryPlane;
    }
    walls
    {
        type            fixedValue;
        value           uniform (0 0 0);
    }
    frontAndBackPlanes
    {
        type            empty;
    }
}


// ************************************************************************* //
