/*--------------------------------*- C++ -*----------------------------------*\
| =========                 |                                                 |
| \\      /  F ield         | OpenFOAM: The Open Source CFD Toolbox           |
|  \\    /   O peration     | Version:  2.4.x                                 |
|   \\  /    A nd           | Web:      www.OpenFOAM.org                      |
|    \\/     M anipulation  |                                                 |
\*---------------------------------------------------------------------------*/
FoamFile
{
    version     2.0;
    format      ascii;
    class       volVectorField;
    location    "7";
    object      Ur;
}
// * * * * * * * * * * * * * * * * * * * * * * * * * * * * * * * * * * * * * //

dimensions      [0 1 -1 0 0 0 0];

internalField   nonuniform List<vector> 
360
(
(0.00016806 4.87542e-08 0)
(0.000167215 2.93765e-07 0)
(0.000167067 5.37501e-07 0)
(0.000167182 7.54034e-07 0)
(0.000167247 9.69683e-07 0)
(0.000167272 1.19155e-06 0)
(0.000167297 1.41646e-06 0)
(0.000167328 1.64221e-06 0)
(0.00016736 1.86848e-06 0)
(0.000167393 2.09566e-06 0)
(0.000167427 2.32418e-06 0)
(0.00016746 2.5542e-06 0)
(0.000167493 2.78571e-06 0)
(0.000167527 3.01866e-06 0)
(0.000167561 3.25299e-06 0)
(0.000167596 3.48874e-06 0)
(0.00016763 3.72596e-06 0)
(0.000167665 3.96468e-06 0)
(0.000167701 4.20491e-06 0)
(0.000167737 4.4467e-06 0)
(0.000167773 4.69001e-06 0)
(0.000167809 4.93487e-06 0)
(0.000167846 5.18129e-06 0)
(0.000167883 5.42928e-06 0)
(0.00016792 5.67887e-06 0)
(0.000167958 5.93005e-06 0)
(0.000167996 6.18281e-06 0)
(0.000168035 6.43718e-06 0)
(0.000168074 6.69316e-06 0)
(0.000168113 6.95075e-06 0)
(0.000168153 7.20989e-06 0)
(0.000168193 7.47062e-06 0)
(0.000168234 7.73285e-06 0)
(0.000168275 7.99659e-06 0)
(0.000168316 8.26178e-06 0)
(0.000168358 8.52833e-06 0)
(0.0001684 8.79615e-06 0)
(0.000168442 9.06517e-06 0)
(0.000168486 9.33539e-06 0)
(0.000168529 9.60661e-06 0)
(0.000168573 9.8788e-06 0)
(0.000168617 1.01519e-05 0)
(0.000168662 1.04258e-05 0)
(0.000168708 1.07005e-05 0)
(0.000168753 1.0976e-05 0)
(0.0001688 1.12524e-05 0)
(0.000168847 1.15297e-05 0)
(0.000168893 1.18078e-05 0)
(0.000168941 1.2087e-05 0)
(0.00016899 1.23675e-05 0)
(0.000169039 1.26494e-05 0)
(0.000169089 1.2933e-05 0)
(0.000169139 1.32181e-05 0)
(0.00016919 1.35051e-05 0)
(0.000169241 1.37936e-05 0)
(0.000169293 1.40838e-05 0)
(0.000169346 1.43752e-05 0)
(0.000169399 1.46674e-05 0)
(0.000169453 1.496e-05 0)
(0.000169507 1.52523e-05 0)
(0.000169563 1.55438e-05 0)
(0.000169618 1.58337e-05 0)
(0.000169675 1.61214e-05 0)
(0.000169732 1.64059e-05 0)
(0.00016979 1.66864e-05 0)
(0.000169848 1.69621e-05 0)
(0.000169908 1.72322e-05 0)
(0.000169968 1.74962e-05 0)
(0.000170028 1.77539e-05 0)
(0.000170089 1.80053e-05 0)
(0.000170151 1.82509e-05 0)
(0.000170215 1.84915e-05 0)
(0.000170278 1.87281e-05 0)
(0.000170343 1.89619e-05 0)
(0.000170409 1.91946e-05 0)
(0.000170476 1.94278e-05 0)
(0.000170544 1.96634e-05 0)
(0.000170613 1.99034e-05 0)
(0.000170683 2.01501e-05 0)
(0.000170754 2.04062e-05 0)
(0.000170826 2.06746e-05 0)
(0.0001709 2.09586e-05 0)
(0.000170975 2.1262e-05 0)
(0.000171052 2.15886e-05 0)
(0.000171131 2.19422e-05 0)
(0.000171211 2.23262e-05 0)
(0.000171292 2.2743e-05 0)
(0.000171375 2.31933e-05 0)
(0.00017146 2.36751e-05 0)
(0.000171546 2.41835e-05 0)
(0.000171634 2.47099e-05 0)
(0.000171723 2.5242e-05 0)
(0.000171814 2.5765e-05 0)
(0.000171906 2.62629e-05 0)
(0.000172 2.67202e-05 0)
(0.000172095 2.71246e-05 0)
(0.000172192 2.74684e-05 0)
(0.000172291 2.7749e-05 0)
(0.000172391 2.79691e-05 0)
(0.000172493 2.81351e-05 0)
(0.000172597 2.82556e-05 0)
(0.000172703 2.83398e-05 0)
(0.000172812 2.83965e-05 0)
(0.000172923 2.8433e-05 0)
(0.000173037 2.84554e-05 0)
(0.000173153 2.84679e-05 0)
(0.000173273 2.84738e-05 0)
(0.000173395 2.84754e-05 0)
(0.000173521 2.8474e-05 0)
(0.000173651 2.84707e-05 0)
(0.000173784 2.8466e-05 0)
(0.00017392 2.84605e-05 0)
(0.000174061 2.84544e-05 0)
(0.000174206 2.84477e-05 0)
(0.000174355 2.84407e-05 0)
(0.000174508 2.84333e-05 0)
(0.000174666 2.84256e-05 0)
(0.000174829 2.84177e-05 0)
(0.000174997 2.84095e-05 0)
(0.000175171 2.8401e-05 0)
(0.00017535 2.83922e-05 0)
(0.000175535 2.83831e-05 0)
(0.000175726 2.83738e-05 0)
(0.000175924 2.83641e-05 0)
(0.000176128 2.83541e-05 0)
(0.00017634 2.83438e-05 0)
(0.00017656 2.83331e-05 0)
(0.000176788 2.8322e-05 0)
(0.000177025 2.83105e-05 0)
(0.000177272 2.82985e-05 0)
(0.000177529 2.82861e-05 0)
(0.000177797 2.82731e-05 0)
(0.000178078 2.82596e-05 0)
(0.000178374 2.82453e-05 0)
(0.000178689 2.82302e-05 0)
(0.000179022 2.82144e-05 0)
(0.000179372 2.81976e-05 0)
(0.000179745 2.81793e-05 0)
(0.00018016 2.8159e-05 0)
(0.000180636 2.81374e-05 0)
(0.000181151 2.81154e-05 0)
(0.000181643 2.80882e-05 0)
(0.000182236 2.80581e-05 0)
(0.000183007 2.80221e-05 0)
(0.000183972 2.79555e-05 0)
(0.00018581 2.77937e-05 0)
(0.000191274 2.69538e-05 0)
(0.000193368 3.96075e-05 0)
(0.000196691 -3.92794e-06 0)
(5.41992e-05 0.000147114 0)
(-0.00477379 0.00510995 0)
(-0.00248453 0.00532458 0)
(-0.000796011 0.00688864 0)
(0.000136813 0.00767891 0)
(0.000653663 0.00832657 0)
(0.000927907 0.00869887 0)
(0.00105324 0.00891728 0)
(0.00108196 0.00904151 0)
(0.00104493 0.00910445 0)
(0.000961285 0.00912639 0)
(0.000843368 0.00912061 0)
(0.000699306 0.00909581 0)
(0.000534498 0.00905772 0)
(0.000352472 0.00901019 0)
(0.000155433 0.00895588 0)
(-5.53834e-05 0.00889665 0)
(-0.000279456 0.00883383 0)
(-0.000516803 0.00876835 0)
(-0.000767847 0.00870082 0)
(-0.00103331 0.0086316 0)
(-0.00131414 0.00856086 0)
(-0.00161142 0.00848855 0)
(-0.00192636 0.0084145 0)
(-0.00226021 0.0083384 0)
(-0.00261429 0.00825985 0)
(-0.00298991 0.00817839 0)
(-0.00338836 0.00809354 0)
(-0.00381096 0.00800481 0)
(-0.00425897 0.00791172 0)
(-0.00473365 0.00781385 0)
(-0.00523622 0.00771082 0)
(-0.00576789 0.00760232 0)
(-0.00632981 0.00748812 0)
(-0.00692315 0.00736806 0)
(-0.00754904 0.00724206 0)
(-0.00820858 0.00711011 0)
(-0.00890287 0.00697225 0)
(-0.009633 0.0068286 0)
(-0.0104 0.00667931 0)
(-0.011205 0.00652459 0)
(-0.0120491 0.00636468 0)
(-0.0129332 0.00619985 0)
(-0.0138584 0.00603041 0)
(-0.0148258 0.00585668 0)
(-0.0158364 0.00567903 0)
(-0.0168911 0.00549784 0)
(-0.0179911 0.00531353 0)
(-0.0191371 0.00512657 0)
(-0.0203303 0.00493746 0)
(-0.0215715 0.00474671 0)
(-0.0228616 0.00455487 0)
(-0.0242147 0.00436053 0)
(-0.0256456 0.00416225 0)
(-0.0271555 0.00396054 0)
(-0.0287459 0.00375603 0)
(-0.0304176 0.00354951 0)
(-0.0321716 0.00334198 0)
(-0.0340082 0.0031347 0)
(-0.0359273 0.00292913 0)
(-0.0379281 0.00272689 0)
(-0.0400092 0.00252966 0)
(-0.0421679 0.00233915 0)
(-0.0444008 0.00215692 0)
(-0.0467036 0.0019842 0)
(-0.0490706 0.00182192 0)
(-0.0514955 0.00167069 0)
(-0.0539707 0.00153069 0)
(-0.0564883 0.00140174 0)
(-0.0590392 0.00128342 0)
(-0.0616142 0.00117515 0)
(-0.0642038 0.00107618 0)
(-0.0667981 0.00098573 0)
(-0.0693869 0.000903141 0)
(-0.0719601 0.00082784 0)
(-0.0745072 0.000759318 0)
(-0.0770177 0.000697281 0)
(-0.0794811 0.000641565 0)
(-0.0818866 0.000592236 0)
(-0.0842242 0.00054939 0)
(-0.0864832 0.000513682 0)
(-0.0886549 0.000485632 0)
(-0.0907294 0.000467137 0)
(-0.0927037 0.000458779 0)
(-0.0945668 0.000467429 0)
(-0.0963311 0.000493127 0)
(-0.0980027 0.000553329 0)
(-0.0993508 0.000650046 0)
(0.00487734 -0.000815987 0)
(0.00504497 -0.000623556 0)
(0.0049865 -0.00207666 0)
(0.00497787 -0.00101713 0)
(0.00473418 -0.00591932 0)
(0.00378745 0.0219639 0)
(0.00328956 0.0395762 0)
(0.00323656 0.0395694 0)
(0.00317823 0.039563 0)
(0.00312165 0.0395584 0)
(0.00307272 0.0395549 0)
(0.00303092 0.0395522 0)
(0.0029961 0.0395503 0)
(0.00296814 0.0395491 0)
(0.00294693 0.0395484 0)
(0.00293245 0.0395479 0)
(0.00292476 0.0395475 0)
(0.00292413 0.039547 0)
(0.00293122 0.0395461 0)
(0.00294711 0.0395445 0)
(0.0029681 0.0395416 0)
(0.00303186 0.0395346 0)
(0.00314921 0.0395257 0)
(0.00317088 0.0395216 0)
(0.00317172 0.039521 0)
(0.00317174 0.039521 0)
(0.00317174 0.039521 0)
(0.00317174 0.039521 0)
(0.00317174 0.039521 0)
(0.00317175 0.039521 0)
(0.00317175 0.039521 0)
(0.00317175 0.039521 0)
(0.00317175 0.039521 0)
(0.00317175 0.039521 0)
(0.00317175 0.039521 0)
(0.00317175 0.039521 0)
(0.00317175 0.039521 0)
(0.00317175 0.039521 0)
(0.00317175 0.039521 0)
(0.00317175 0.039521 0)
(0.00317175 0.039521 0)
(0.00317175 0.039521 0)
(0.00317175 0.039521 0)
(0.00317175 0.039521 0)
(0.00317175 0.039521 0)
(0.00317175 0.039521 0)
(0.00317175 0.039521 0)
(0.00317175 0.039521 0)
(0.00317175 0.039521 0)
(0.00317175 0.039521 0)
(0.00317175 0.039521 0)
(0.00317175 0.039521 0)
(0.00317175 0.039521 0)
(0.00317175 0.039521 0)
(0.00317175 0.039521 0)
(0.00317175 0.039521 0)
(0.00317175 0.039521 0)
(0.00317175 0.039521 0)
(0.00317175 0.039521 0)
(0.00317175 0.039521 0)
(0.00317175 0.039521 0)
(0.00317175 0.039521 0)
(0.00317175 0.039521 0)
(0.00317175 0.039521 0)
(0.00317175 0.039521 0)
(0.00317175 0.039521 0)
(0.00317175 0.039521 0)
(0.00317175 0.039521 0)
(0.00317175 0.039521 0)
(0.00317175 0.039521 0)
(0.00317175 0.039521 0)
(0.00317175 0.039521 0)
(0.00317175 0.039521 0)
(0.00317175 0.039521 0)
(0.00317175 0.039521 0)
(0.00317175 0.039521 0)
(0.00317175 0.039521 0)
(0.00317175 0.039521 0)
(0.00317175 0.039521 0)
(0.00317175 0.039521 0)
(0.00317175 0.039521 0)
(0.00317175 0.039521 0)
(0.00317175 0.039521 0)
(0.00317175 0.039521 0)
(0.00317175 0.039521 0)
(0.00317175 0.039521 0)
(0.00317175 0.039521 0)
(0.00317175 0.039521 0)
(0.00317175 0.039521 0)
(0.00317175 0.039521 0)
(0.00317175 0.039521 0)
(0.00317175 0.039521 0)
(0.00317175 0.039521 0)
(0.00317175 0.039521 0)
(0.00317175 0.039521 0)
(0.00317175 0.039521 0)
(0.00317175 0.039521 0)
(0.00317175 0.039521 0)
(0.00317175 0.039521 0)
(0.00317175 0.039521 0)
(0.00317175 0.039521 0)
(0.00317175 0.039521 0)
(0.00317175 0.039521 0)
(0.00317175 0.039521 0)
(0.00317175 0.039521 0)
(0.00317175 0.039521 0)
(0.00317175 0.039521 0)
(0.00317175 0.039521 0)
(0.00317175 0.039521 0)
(0.00317175 0.039521 0)
(0.00317175 0.039521 0)
(0.00317175 0.039521 0)
(0.00317175 0.039521 0)
(0.00317175 0.039521 0)
(0.00317175 0.039521 0)
(0.00317175 0.039521 0)
(0.00317175 0.039521 0)
(0.00317175 0.039521 0)
(0.00317175 0.039521 0)
(0.00317178 0.0395208 0)
(0.00317266 0.0395123 0)
(0.00319425 0.0391673 0)
(0.00369659 0.0224432 0)
)
;

boundaryField
{
    inandouthalf11
    {
        type            cyclic;
    }
    inandouthalf12
    {
        type            cyclic;
    }
    inandouthalf21
    {
        type            cyclic;
    }
    inandouthalf22
    {
        type            cyclic;
    }
    inandouthalf31
    {
        type            cyclic;
    }
    inandouthalf32
    {
        type            cyclic;
    }
    inandouthalf41
    {
        type            cyclic;
    }
    inandouthalf42
    {
        type            cyclic;
    }
    top
    {
        type            symmetryPlane;
    }
    walls
    {
        type            calculated;
        value           uniform (0 0 0);
    }
    frontAndBackPlanes
    {
        type            empty;
    }
}


// ************************************************************************* //
