/*--------------------------------*- C++ -*----------------------------------*\
| =========                 |                                                 |
| \\      /  F ield         | OpenFOAM: The Open Source CFD Toolbox           |
|  \\    /   O peration     | Version:  2.1.1                                 |
|   \\  /    A nd           | Web:      www.OpenFOAM.org                      |
|    \\/     M anipulation  |                                                 |
\*---------------------------------------------------------------------------*/
FoamFile
{
    version     2.0;
    format      ascii;
    class       volScalarField;
    location    "100";
    object      alpha;
}
// * * * * * * * * * * * * * * * * * * * * * * * * * * * * * * * * * * * * * //

dimensions      [0 0 0 0 0 0 0];

internalField   nonuniform List<scalar> 
600
(
0.608997
0.610706
0.610572
0.610383
0.610416
0.610422
0.610397
0.610378
0.610363
0.610346
0.610329
0.610312
0.610294
0.610277
0.610259
0.610241
0.610223
0.610205
0.610186
0.610167
0.610149
0.610129
0.61011
0.610091
0.610071
0.610051
0.610032
0.610012
0.609992
0.609971
0.60995
0.609929
0.609908
0.609886
0.609865
0.609843
0.609821
0.609798
0.609776
0.609753
0.60973
0.609707
0.609683
0.60966
0.609636
0.609612
0.609587
0.609563
0.609538
0.609513
0.609487
0.609462
0.609436
0.60941
0.609384
0.609357
0.60933
0.609303
0.609276
0.609248
0.60922
0.609192
0.609163
0.609135
0.609105
0.609076
0.609046
0.609016
0.608986
0.608956
0.608925
0.608894
0.608862
0.60883
0.608798
0.608765
0.608733
0.608699
0.608666
0.608632
0.608598
0.608563
0.608528
0.608493
0.608457
0.608421
0.608384
0.608347
0.60831
0.608272
0.608234
0.608195
0.608156
0.608116
0.608076
0.608036
0.607995
0.607954
0.607912
0.607869
0.607826
0.607783
0.607739
0.607694
0.607649
0.607604
0.607557
0.607511
0.607463
0.607415
0.607367
0.607318
0.607268
0.607217
0.607166
0.607114
0.607062
0.607008
0.606954
0.6069
0.606844
0.606788
0.606731
0.606673
0.606614
0.606555
0.606494
0.606433
0.606371
0.606308
0.606243
0.606178
0.606112
0.606045
0.605977
0.605907
0.605836
0.605765
0.605691
0.605617
0.605541
0.605464
0.605386
0.605306
0.605224
0.605141
0.605056
0.604969
0.604881
0.604791
0.604699
0.604604
0.604508
0.604409
0.604308
0.604205
0.604099
0.60399
0.603879
0.603764
0.603647
0.603526
0.603401
0.603272
0.60314
0.603004
0.602863
0.602718
0.602568
0.602411
0.602249
0.60208
0.601904
0.601721
0.601529
0.601328
0.601113
0.600879
0.600623
0.600335
0.600007
0.599652
0.599306
0.598875
0.597718
0.596776
0.597069
0.596517
0.595782
0.595207
0.594665
0.593765
0.588781
0.402522
0.300367
0.260111
0.234861
0.215601
0.199345
0.184002
0.170321
0.158012
0.146851
0.136673
0.127358
0.118811
0.110955
0.103724
0.0970622
0.0909189
0.0852494
0.080013
0.0751731
0.070696
0.0665512
0.0627107
0.0591491
0.055843
0.0527712
0.0499143
0.0472547
0.0447763
0.0424644
0.0403057
0.0382879
0.0364
0.0346318
0.032974
0.0314183
0.029957
0.028583
0.0272899
0.0260718
0.0249232
0.0238394
0.0228158
0.0218481
0.0209326
0.0200657
0.0192443
0.0184654
0.0177261
0.017024
0.0163568
0.0157222
0.0151182
0.0145431
0.013995
0.0134725
0.0129739
0.0124979
0.0120433
0.0116088
0.0111933
0.0107958
0.0104153
0.010051
0.00970184
0.00936719
0.00904625
0.00873835
0.00844281
0.00815903
0.00788644
0.00762448
0.00737266
0.00713049
0.00689753
0.00667334
0.00645752
0.00624971
0.00604953
0.00585666
0.00567077
0.00549157
0.00531876
0.00515207
0.00499126
0.00483608
0.00468629
0.00454168
0.00440204
0.00426717
0.00413689
0.00401102
0.00388938
0.00377183
0.00365819
0.00354834
0.00344212
0.0033394
0.00324006
0.00314398
0.00305103
0.00296112
0.00287413
0.00278996
0.00270851
0.00262969
0.00255342
0.00247961
0.00240817
0.00233903
0.00227211
0.00220734
0.00214465
0.00208397
0.00202524
0.0019684
0.00191338
0.00186013
0.00180859
0.00175871
0.00171044
0.00166372
0.00161851
0.00157476
0.00153242
0.00149145
0.00145181
0.00141346
0.00137635
0.00134044
0.0013057
0.00127209
0.00123957
0.00120811
0.00117768
0.00114823
0.00111974
0.00109217
0.0010655
0.00103969
0.00101471
0.000990546
0.000967155
0.000944515
0.0009226
0.000901384
0.000880842
0.000860949
0.000841684
0.000823022
0.000804941
0.000787421
0.000770441
0.00075398
0.00073802
0.000722541
0.000707526
0.000692956
0.000678817
0.00066509
0.000651761
0.000638814
0.000626236
0.000614012
0.000602129
0.000590575
0.000579336
0.000568402
0.00055776
0.0005474
0.000537312
0.000527486
0.000517912
0.000508581
0.000499485
0.000490615
0.000481962
0.000473521
0.000465282
0.000457239
0.000449386
0.000441716
0.000434224
0.000426902
0.000419745
0.000412749
0.000405908
0.000399217
0.000392672
0.000386268
0.00038
0.000373865
0.000367858
0.000361976
0.000356216
0.000350573
0.000345045
0.000339628
0.000334318
0.000329114
0.000324013
0.000319011
0.000314105
0.000309295
0.000304576
0.000299946
0.000295404
0.000290947
0.000286574
0.000282281
0.000278067
0.00027393
0.000269868
0.00026588
0.000261964
0.000258117
0.000254339
0.000250628
0.000246982
0.0002434
0.00023988
0.000236421
0.000233021
0.00022968
0.000226396
0.000223167
0.000219993
0.000216872
0.000213803
0.000210785
0.000207817
0.000204897
0.000202025
0.0001992
0.000196419
0.000193684
0.000190991
0.000188342
0.000185733
0.000183166
0.000180638
0.000178148
0.000175697
0.000173282
0.000170903
0.000168559
0.00016625
0.000163974
0.00016173
0.000159517
0.000157335
0.000155183
0.000153059
0.000150963
0.000148893
0.000146848
0.000144826
0.000142825
0.00014085
0.000138914
0.000137018
0.00013516
0.000133337
0.000131551
0.000129798
0.000128079
0.000126393
0.00012474
0.000123118
0.000121527
0.000119966
0.000118436
0.000116935
0.000115464
0.000114019
0.000112606
0.000111216
0.00010986
0.000108522
0.000107223
0.000105934
0.00010469
0.000103436
0.000102257
0.00010109
0.000100108
9.99998e-05
9.93874e-05
9.81007e-05
9.67526e-05
9.53925e-05
9.4058e-05
9.27379e-05
9.14375e-05
9.01546e-05
8.88858e-05
8.76301e-05
8.63907e-05
8.51674e-05
8.39605e-05
8.27684e-05
8.15917e-05
8.0429e-05
7.92779e-05
7.81412e-05
7.70183e-05
7.59084e-05
7.48133e-05
7.37309e-05
7.26599e-05
7.16027e-05
7.05558e-05
6.9521e-05
6.84997e-05
6.74891e-05
6.64897e-05
6.55028e-05
6.45255e-05
6.3559e-05
6.26039e-05
6.16581e-05
6.07241e-05
5.97994e-05
5.88846e-05
5.79802e-05
5.7084e-05
5.61988e-05
5.53217e-05
5.44543e-05
5.35959e-05
5.27456e-05
5.19051e-05
5.10718e-05
5.02477e-05
4.94318e-05
4.86236e-05
4.78231e-05
4.70307e-05
4.62463e-05
4.54686e-05
4.46986e-05
4.39363e-05
4.31801e-05
4.24316e-05
4.169e-05
4.09544e-05
4.02258e-05
3.95039e-05
3.87879e-05
3.8078e-05
3.73745e-05
3.66769e-05
3.5985e-05
3.52987e-05
3.46181e-05
3.39431e-05
3.32732e-05
3.26084e-05
3.19489e-05
3.12943e-05
3.06444e-05
2.99994e-05
2.93589e-05
2.87228e-05
2.8091e-05
2.74635e-05
2.684e-05
2.62204e-05
2.56046e-05
2.49925e-05
2.43838e-05
2.37785e-05
2.31764e-05
2.25774e-05
2.19812e-05
2.13877e-05
2.07968e-05
2.02082e-05
1.96218e-05
1.90373e-05
1.84545e-05
1.78732e-05
1.72932e-05
1.67142e-05
1.61358e-05
1.55579e-05
1.49799e-05
1.44017e-05
1.38226e-05
1.32424e-05
1.26604e-05
1.20761e-05
1.14888e-05
1.08976e-05
1.03018e-05
9.70009e-06
9.09126e-06
8.47364e-06
7.84517e-06
7.20315e-06
6.544e-06
5.86259e-06
5.15119e-06
4.39682e-06
3.5735e-06
2.60815e-06
1.03093e-06
)
;

boundaryField
{
    inandouthalf11
    {
        type            cyclic;
    }
    inandouthalf12
    {
        type            cyclic;
    }
    inandouthalf21
    {
        type            cyclic;
    }
    inandouthalf22
    {
        type            cyclic;
    }
    top
    {
        type            slip;
    }
    walls
    {
        type            zeroGradient;
    }
    frontAndBackPlanes
    {
        type            empty;
    }
}


// ************************************************************************* //
