/*--------------------------------*- C++ -*----------------------------------*\
| =========                 |                                                 |
| \\      /  F ield         | OpenFOAM: The Open Source CFD Toolbox           |
|  \\    /   O peration     | Version:  2.1.1                                 |
|   \\  /    A nd           | Web:      www.OpenFOAM.org                      |
|    \\/     M anipulation  |                                                 |
\*---------------------------------------------------------------------------*/
FoamFile
{
    version     2.0;
    format      ascii;
    class       volScalarField;
    location    "100";
    object      ddt0(alpha);
}
// * * * * * * * * * * * * * * * * * * * * * * * * * * * * * * * * * * * * * //

dimensions      [0 0 -1 0 0 0 0];

internalField   nonuniform List<scalar> 
600
(
7.24758e-11
-7.40449e-11
-4.32513e-12
6.48927e-12
-9.50253e-13
-6.27201e-13
7.18888e-13
1.70242e-16
-5.36214e-14
3.45022e-13
5.19107e-14
-2.17261e-13
-1.5235e-13
-1.72789e-13
2.05079e-13
3.10177e-14
1.95587e-15
6.37742e-16
2.28167e-13
5.09724e-13
-1.40395e-15
-5.0779e-13
-2.04281e-13
-2.17687e-13
-4.42607e-14
-4.25586e-13
3.04436e-13
1.29805e-14
1.38317e-14
-1.76828e-13
-2.04337e-13
-5.00426e-13
-1.77057e-13
3.40717e-15
-5.03721e-13
5.29984e-14
-1.76392e-13
2.17987e-13
-2.14658e-13
1.30602e-13
-2.17901e-13
-3.48395e-13
2.07886e-13
-7.79975e-13
-2.55284e-15
-2.04119e-13
-5.44442e-14
-2.17048e-13
-1.27994e-14
-2.19442e-15
1.63373e-13
-9.27744e-14
2.8867e-13
-5.66242e-13
-4.16572e-14
1.26086e-14
1.27811e-14
-5.23255e-13
5.56645e-14
1.29242e-14
-1.63425e-13
7.06904e-14
3.28416e-15
6.80771e-16
-9.9351e-18
-5.18073e-14
5.11767e-13
2.21103e-13
-1.00545e-14
5.04745e-13
-6.90756e-16
5.36371e-14
-4.08564e-14
3.83878e-13
-1.63434e-13
-1.63637e-13
3.45789e-15
-2.18627e-13
3.40547e-15
-2.12157e-16
5.34589e-13
4.08555e-14
5.07351e-13
-4.08456e-14
-9.60221e-14
1.28565e-14
-5.28705e-13
2.04331e-13
5.17112e-14
5.52756e-14
6.53543e-13
-4.08571e-14
6.48977e-16
-1.63427e-13
4.1547e-14
4.1193e-14
6.13006e-13
1.278e-14
9.87766e-14
-2.14453e-13
-1.05675e-14
-1.02172e-14
-1.6159e-14
5.42622e-14
-1.10679e-14
-1.46654e-13
-2.32785e-14
2.64117e-15
5.45057e-14
2.72621e-15
-3.4047e-15
1.36213e-14
3.45873e-13
4.0908e-14
-2.72584e-13
1.43186e-15
2.01371e-13
5.46372e-14
-2.1466e-13
-2.14372e-13
-5.22055e-13
-5.48309e-14
1.34583e-14
2.04564e-13
-4.0544e-17
-1.39745e-14
5.00651e-13
5.95737e-15
-1.73679e-13
5.36238e-14
-5.25686e-13
3.19438e-15
1.77257e-13
-2.00286e-16
-1.34053e-14
2.62161e-13
-1.35658e-14
4.34505e-14
5.66243e-13
-4.20595e-15
-2.55434e-15
-6.54343e-13
-1.79754e-13
3.1933e-15
-2.76381e-15
-2.10257e-16
-3.04692e-14
-1.4862e-13
-5.45393e-14
-2.30425e-14
-6.52353e-13
1.60439e-16
5.06825e-13
-2.04259e-13
-2.18699e-13
1.35688e-14
1.34026e-14
4.90787e-14
-3.39892e-15
2.00129e-16
1.32596e-14
1.73498e-13
-2.15204e-13
7.61387e-16
5.11202e-14
1.77043e-13
-9.3131e-15
2.60608e-15
2.17859e-13
-1.59806e-16
1.24672e-14
-5.88148e-13
-9.46829e-14
3.50044e-13
-3.40806e-15
-6.3838e-16
2.72416e-13
1.74321e-13
-3.07839e-13
5.37734e-14
1.36155e-14
1.1271e-15
2.86655e-13
-3.13111e-12
-2.80919e-11
4.66789e-11
-2.17068e-11
8.10557e-12
-4.08961e-14
9.87361e-14
2.05089e-13
-4.38496e-11
0.287671
-0.339964
0.0503438
0.00230533
-0.0009128
-2.81337e-05
3.70143e-05
2.13982e-05
-2.24489e-05
-3.187e-05
-1.33962e-05
4.41608e-06
1.24355e-05
1.33963e-05
1.17356e-05
9.92586e-06
8.85118e-06
8.53699e-06
8.73788e-06
9.20855e-06
9.77071e-06
1.03142e-05
1.0779e-05
1.11383e-05
1.13865e-05
1.15305e-05
1.15834e-05
1.15605e-05
1.14764e-05
1.13441e-05
1.11744e-05
1.09759e-05
1.07555e-05
1.05187e-05
1.02699e-05
1.00125e-05
9.74941e-06
9.48294e-06
9.21505e-06
8.94736e-06
8.68124e-06
8.41783e-06
8.15809e-06
7.90282e-06
7.65266e-06
7.40813e-06
7.16964e-06
6.9375e-06
6.71193e-06
6.49307e-06
6.28101e-06
6.07577e-06
5.87731e-06
5.68556e-06
5.50042e-06
5.32174e-06
5.14938e-06
4.98316e-06
4.82289e-06
4.66837e-06
4.5194e-06
4.37577e-06
4.23729e-06
4.10375e-06
3.97495e-06
3.85069e-06
3.73078e-06
3.61505e-06
3.50332e-06
3.39541e-06
3.29117e-06
3.19045e-06
3.0931e-06
2.99898e-06
2.90795e-06
2.8199e-06
2.73471e-06
2.65226e-06
2.57245e-06
2.49517e-06
2.42034e-06
2.34786e-06
2.27764e-06
2.20961e-06
2.14369e-06
2.0798e-06
2.01787e-06
1.95785e-06
1.89966e-06
1.84324e-06
1.78854e-06
1.7355e-06
1.68408e-06
1.63421e-06
1.58585e-06
1.53897e-06
1.4935e-06
1.44941e-06
1.40667e-06
1.36522e-06
1.32504e-06
1.28608e-06
1.24831e-06
1.21171e-06
1.17622e-06
1.14183e-06
1.10851e-06
1.07622e-06
1.04493e-06
1.01462e-06
9.85269e-07
9.56841e-07
9.29313e-07
9.02662e-07
8.76863e-07
8.51895e-07
8.27733e-07
8.04356e-07
7.81742e-07
7.59871e-07
7.38722e-07
7.18274e-07
6.98509e-07
6.79406e-07
6.60947e-07
6.43114e-07
6.25887e-07
6.0925e-07
5.93183e-07
5.77671e-07
5.62696e-07
5.48242e-07
5.34292e-07
5.20829e-07
5.07838e-07
4.95304e-07
4.83211e-07
4.71544e-07
4.60288e-07
4.49429e-07
4.38953e-07
4.28845e-07
4.19093e-07
4.09682e-07
4.006e-07
3.91835e-07
3.83374e-07
3.75205e-07
3.67316e-07
3.59696e-07
3.52335e-07
3.45222e-07
3.38346e-07
3.31697e-07
3.25267e-07
3.19046e-07
3.13024e-07
3.07195e-07
3.01548e-07
2.96078e-07
2.90775e-07
2.85634e-07
2.80646e-07
2.75806e-07
2.71107e-07
2.66544e-07
2.6211e-07
2.578e-07
2.5361e-07
2.49533e-07
2.45566e-07
2.41703e-07
2.37942e-07
2.34277e-07
2.30705e-07
2.27221e-07
2.23823e-07
2.20509e-07
2.17274e-07
2.14115e-07
2.1103e-07
2.08016e-07
2.0507e-07
2.0219e-07
1.99374e-07
1.96619e-07
1.93924e-07
1.91287e-07
1.88706e-07
1.86178e-07
1.83703e-07
1.81279e-07
1.78903e-07
1.76576e-07
1.74295e-07
1.72059e-07
1.69867e-07
1.67718e-07
1.6561e-07
1.63543e-07
1.61515e-07
1.59525e-07
1.57573e-07
1.55657e-07
1.53777e-07
1.51931e-07
1.50118e-07
1.48339e-07
1.46591e-07
1.44875e-07
1.43189e-07
1.41532e-07
1.39904e-07
1.38305e-07
1.36732e-07
1.35186e-07
1.33666e-07
1.32171e-07
1.30701e-07
1.29256e-07
1.27833e-07
1.26435e-07
1.25059e-07
1.23706e-07
1.22375e-07
1.21067e-07
1.19782e-07
1.1852e-07
1.17281e-07
1.16067e-07
1.14877e-07
1.13712e-07
1.12574e-07
1.11464e-07
1.10384e-07
1.09334e-07
1.08317e-07
1.07335e-07
1.06389e-07
1.05483e-07
1.04619e-07
1.038e-07
1.03028e-07
1.02307e-07
1.01641e-07
1.01032e-07
1.00485e-07
1.00004e-07
9.95925e-08
9.92563e-08
9.90017e-08
9.88387e-08
9.87809e-08
9.88501e-08
9.9067e-08
9.94665e-08
1.00057e-07
1.00773e-07
1.02346e-07
1.01675e-07
9.87099e-08
9.6291e-08
9.38339e-08
9.13408e-08
8.87224e-08
8.59648e-08
8.30879e-08
8.02143e-08
7.7896e-08
7.58057e-08
7.50588e-08
7.37018e-08
7.13448e-08
6.7431e-08
5.44344e-08
5.17778e-08
4.16394e-08
9.22211e-08
1.14872e-07
1.87927e-07
2.92702e-08
-4.27466e-07
-7.27685e-07
-1.6246e-06
-1.64929e-06
2.91477e-07
-2.23266e-05
0.000235245
-0.000292141
9.42857e-05
-1.49383e-05
6.74743e-06
-2.0902e-07
-1.4747e-06
-3.25363e-06
-1.00698e-06
2.6094e-06
2.26722e-06
8.71261e-07
-4.82183e-07
7.06635e-07
-3.25419e-06
-1.01704e-06
1.72184e-06
3.96262e-07
1.30303e-06
3.78063e-07
-1.35634e-06
2.59072e-07
-4.23586e-07
-1.08858e-06
1.87461e-06
4.49596e-08
-4.08377e-07
1.0815e-06
-8.8271e-07
-8.78028e-07
1.03493e-06
-3.6985e-07
2.44245e-07
8.06412e-07
-9.91621e-07
7.88656e-07
-6.95022e-07
1.22253e-07
5.56564e-07
-6.4166e-07
9.78989e-07
-7.70318e-07
2.93232e-07
1.20545e-07
-3.53195e-07
7.99945e-07
-8.34961e-07
4.43071e-07
2.69208e-07
-7.05365e-08
-3.09632e-07
1.25669e-07
4.38257e-07
-4.52881e-07
1.3748e-07
3.66605e-07
-5.06598e-07
3.35522e-07
2.23662e-07
-3.80155e-07
1.00177e-07
3.27504e-07
-1.00963e-07
-1.72951e-07
1.10689e-07
1.65091e-07
7.22824e-09
-1.03795e-07
-7.74836e-09
2.21011e-07
-5.4132e-08
-1.23793e-07
1.80867e-07
5.11212e-08
-1.1278e-07
7.28804e-08
6.97849e-08
-7.54328e-09
-3.84462e-09
3.74825e-08
2.92742e-08
1.18581e-08
1.25915e-08
2.48186e-08
1.94368e-08
1.48484e-08
1.96085e-08
1.17314e-08
2.87927e-08
-9.29697e-10
3.50468e-08
-2.49701e-09
3.07369e-08
3.29127e-09
2.13302e-08
1.17485e-08
1.28098e-08
1.58061e-08
1.00477e-08
1.5121e-08
9.95205e-09
1.34247e-08
1.0041e-08
1.17292e-08
9.96628e-09
1.03291e-08
9.46921e-09
9.24456e-09
8.71498e-09
8.28629e-09
7.81661e-09
7.34353e-09
6.85448e-09
6.34845e-09
5.824e-09
5.27369e-09
4.69078e-09
4.06215e-09
3.36162e-09
2.51524e-09
1.04154e-09
)
;

boundaryField
{
    inandouthalf11
    {
        type            cyclic;
    }
    inandouthalf12
    {
        type            cyclic;
    }
    inandouthalf21
    {
        type            cyclic;
    }
    inandouthalf22
    {
        type            cyclic;
    }
    top
    {
        type            calculated;
        value           uniform 1.04154e-09;
    }
    walls
    {
        type            calculated;
        value           uniform 7.24758e-11;
    }
    frontAndBackPlanes
    {
        type            empty;
    }
}


// ************************************************************************* //
