/*--------------------------------*- C++ -*----------------------------------*\
| =========                 |                                                 |
| \\      /  F ield         | OpenFOAM: The Open Source CFD Toolbox           |
|  \\    /   O peration     | Version:  2.1.1                                 |
|   \\  /    A nd           | Web:      www.OpenFOAM.org                      |
|    \\/     M anipulation  |                                                 |
\*---------------------------------------------------------------------------*/
FoamFile
{
    version     2.0;
    format      ascii;
    class       surfaceScalarField;
    location    "100";
    object      ddt0(phia);
}
// * * * * * * * * * * * * * * * * * * * * * * * * * * * * * * * * * * * * * //

dimensions      [0 3 -2 0 0 0 0];

internalField   nonuniform List<scalar> 
599
(
1.44127e-29
2.86324e-29
4.28854e-29
5.72044e-29
7.15495e-29
8.59322e-29
1.00342e-28
1.14789e-28
1.29275e-28
1.4381e-28
1.58384e-28
1.73e-28
1.87678e-28
2.02398e-28
2.17177e-28
2.32014e-28
2.46913e-28
2.61877e-28
2.76927e-28
2.92064e-28
3.07266e-28
3.22561e-28
3.37922e-28
3.53342e-28
3.68831e-28
3.84379e-28
3.99972e-28
4.15597e-28
4.31249e-28
4.46947e-28
4.6269e-28
4.78474e-28
4.9429e-28
5.10147e-28
5.26022e-28
5.41936e-28
5.57891e-28
5.7391e-28
5.89967e-28
6.06077e-28
6.22232e-28
6.38425e-28
6.54665e-28
6.70923e-28
6.87218e-28
7.03545e-28
7.19926e-28
7.36335e-28
7.52791e-28
7.69288e-28
7.8584e-28
8.02413e-28
8.19014e-28
8.35634e-28
8.52269e-28
8.68937e-28
8.85632e-28
9.02346e-28
9.19074e-28
9.35836e-28
9.52634e-28
9.69467e-28
9.86356e-28
1.00328e-27
1.02028e-27
1.03731e-27
1.0544e-27
1.0715e-27
1.0886e-27
1.10568e-27
1.12276e-27
1.13985e-27
1.15699e-27
1.17417e-27
1.19138e-27
1.20863e-27
1.22588e-27
1.24315e-27
1.26042e-27
1.27769e-27
1.29494e-27
1.3122e-27
1.32945e-27
1.34668e-27
1.36392e-27
1.38115e-27
1.3984e-27
1.41565e-27
1.43289e-27
1.45014e-27
1.46738e-27
1.48466e-27
1.50194e-27
1.51924e-27
1.53653e-27
1.55379e-27
1.57102e-27
1.58821e-27
1.60539e-27
1.62258e-27
1.63978e-27
1.65696e-27
1.67415e-27
1.69136e-27
1.70856e-27
1.72575e-27
1.74295e-27
1.76013e-27
1.77732e-27
1.79448e-27
1.81161e-27
1.82871e-27
1.84581e-27
1.86292e-27
1.88004e-27
1.89717e-27
1.9143e-27
1.93145e-27
1.94861e-27
1.96576e-27
1.98293e-27
2.00009e-27
2.01727e-27
2.03446e-27
2.05169e-27
2.06891e-27
2.08616e-27
2.10342e-27
2.12068e-27
2.13796e-27
2.15527e-27
2.17259e-27
2.18991e-27
2.20722e-27
2.22452e-27
2.24184e-27
2.25918e-27
2.27651e-27
2.29386e-27
2.31121e-27
2.32856e-27
2.34587e-27
2.36314e-27
2.38038e-27
2.39759e-27
2.41478e-27
2.43195e-27
2.4491e-27
2.4662e-27
2.48324e-27
2.50023e-27
2.5172e-27
2.53411e-27
2.55099e-27
2.56781e-27
2.58455e-27
2.60121e-27
2.61778e-27
2.63425e-27
2.6506e-27
2.66684e-27
2.68296e-27
2.69898e-27
2.71489e-27
2.7307e-27
2.74641e-27
2.76204e-27
2.77761e-27
2.79314e-27
2.80867e-27
2.82413e-27
2.83944e-27
2.85437e-27
2.86863e-27
2.88187e-27
2.89379e-27
2.9042e-27
2.91296e-27
2.91999e-27
2.92485e-27
2.92745e-27
2.92799e-27
2.92727e-27
2.92947e-27
2.93674e-27
3.30507e-27
3.87292e-27
4.08537e-27
3.90826e-27
5.03651e-28
-3.65646e-27
-1.0609e-25
4.95448e-06
-1.70995e-06
-1.67182e-07
-1.87755e-08
-3.64443e-09
-4.53646e-10
-1.65798e-11
4.80623e-11
-1.71828e-11
-5.94364e-11
-4.85341e-11
-2.06431e-11
-4.70739e-13
7.57293e-12
7.60468e-12
4.21638e-12
4.4221e-13
-2.49798e-12
-4.35895e-12
-5.27566e-12
-5.4843e-12
-5.20963e-12
-4.64325e-12
-3.93972e-12
-3.21459e-12
-2.54443e-12
-1.971e-12
-1.50913e-12
-1.15532e-12
-8.95325e-13
-7.10795e-13
-5.82743e-13
-4.94152e-13
-4.30842e-13
-3.81728e-13
-3.38592e-13
-2.95581e-13
-2.49023e-13
-1.97102e-13
-1.39279e-13
-7.57166e-14
-7.3532e-15
6.43044e-14
1.3762e-13
2.10692e-13
2.82046e-13
3.50318e-13
4.14226e-13
4.72902e-13
5.25674e-13
5.72052e-13
6.11802e-13
6.4483e-13
6.71517e-13
6.92199e-13
7.07336e-13
7.17381e-13
7.23131e-13
7.25225e-13
7.24311e-13
7.20937e-13
7.15899e-13
7.09707e-13
7.02857e-13
6.95874e-13
6.89117e-13
6.82945e-13
6.77778e-13
6.73757e-13
6.71203e-13
6.70175e-13
6.70685e-13
6.72796e-13
6.76659e-13
6.82208e-13
6.89384e-13
6.98012e-13
7.08133e-13
7.19604e-13
7.32337e-13
7.46161e-13
7.60968e-13
7.76581e-13
7.92887e-13
8.09709e-13
8.26928e-13
8.44371e-13
8.61924e-13
8.7942e-13
8.96751e-13
9.13761e-13
9.30345e-13
9.46362e-13
9.61723e-13
9.763e-13
9.90023e-13
1.00278e-12
1.0145e-12
1.02504e-12
1.0343e-12
1.04223e-12
1.04884e-12
1.05403e-12
1.05772e-12
1.05985e-12
1.06045e-12
1.05944e-12
1.05686e-12
1.05266e-12
1.04684e-12
1.03932e-12
1.03017e-12
1.01939e-12
1.00699e-12
9.92946e-13
9.77278e-13
9.60021e-13
9.41222e-13
9.2088e-13
8.99027e-13
8.75715e-13
8.51016e-13
8.24956e-13
7.9759e-13
7.68927e-13
7.39011e-13
7.07896e-13
6.75686e-13
6.42436e-13
6.08222e-13
5.73078e-13
5.37069e-13
5.00235e-13
4.62663e-13
4.24407e-13
3.85537e-13
3.46093e-13
3.06158e-13
2.65778e-13
2.25018e-13
1.83906e-13
1.42512e-13
1.00866e-13
5.90347e-14
1.70564e-14
-2.50125e-14
-6.71398e-14
-1.09279e-13
-1.51409e-13
-1.93489e-13
-2.35499e-13
-2.77408e-13
-3.19206e-13
-3.60868e-13
-4.02371e-13
-4.43682e-13
-4.84789e-13
-5.25667e-13
-5.66305e-13
-6.06689e-13
-6.46823e-13
-6.86678e-13
-7.26259e-13
-7.65558e-13
-8.04591e-13
-8.43358e-13
-8.81898e-13
-9.20241e-13
-9.5844e-13
-9.96563e-13
-1.0347e-12
-1.07298e-12
-1.11154e-12
-1.15056e-12
-1.19032e-12
-1.23105e-12
-1.27297e-12
-1.31654e-12
-1.3622e-12
-1.41032e-12
-1.46143e-12
-1.51605e-12
-1.57474e-12
-1.63809e-12
-1.70666e-12
-1.78102e-12
-1.86169e-12
-1.9491e-12
-2.04361e-12
-2.14543e-12
-2.25458e-12
-2.37086e-12
-2.4938e-12
-2.62259e-12
-2.75604e-12
-2.89251e-12
-3.02989e-12
-3.16549e-12
-3.29606e-12
-3.41773e-12
-3.52599e-12
-3.61568e-12
-3.68098e-12
-3.71552e-12
-3.71238e-12
-3.66422e-12
-3.5634e-12
-3.40217e-12
-3.17285e-12
-2.86812e-12
-2.48128e-12
-2.00656e-12
-1.43951e-12
-7.77321e-13
-1.92716e-14
8.32949e-13
1.77485e-12
2.79882e-12
3.89384e-12
5.04534e-12
6.23508e-12
7.44126e-12
8.63872e-12
9.79941e-12
1.0893e-11
1.18878e-11
1.27521e-11
1.34553e-11
1.39702e-11
1.42748e-11
1.43546e-11
1.42058e-11
1.38377e-11
1.32765e-11
1.25682e-11
1.17824e-11
1.10155e-11
1.03944e-11
1.00793e-11
1.02671e-11
1.11936e-11
1.31357e-11
1.64127e-11
2.13869e-11
2.84628e-11
3.80826e-11
5.07179e-11
6.68557e-11
8.6979e-11
1.11547e-10
1.4099e-10
1.75721e-10
2.16206e-10
2.63103e-10
3.17121e-10
3.78925e-10
4.48385e-10
5.24557e-10
6.04439e-10
6.8983e-10
7.82852e-10
8.80148e-10
9.78427e-10
1.07322e-09
1.15743e-09
1.22378e-09
1.26302e-09
1.27184e-09
1.25675e-09
1.22086e-09
1.19447e-09
1.12786e-09
9.8643e-10
5.25177e-10
-4.57215e-10
-2.13272e-09
-3.45272e-09
-2.00826e-09
4.11807e-09
1.81173e-08
2.43017e-08
5.24483e-09
-4.26772e-08
-1.29861e-07
-2.46676e-07
-1.80502e-07
-1.78274e-06
1.47815e-05
-7.85877e-06
1.04112e-06
-9.99641e-08
6.14743e-08
-9.76102e-09
-5.7162e-09
-5.63019e-08
-1.1456e-09
3.74961e-08
2.1311e-08
1.71834e-08
-1.67231e-08
3.09147e-08
-2.15687e-08
-1.97282e-08
1.46701e-08
1.97844e-08
-2.18437e-09
1.41688e-08
-1.74879e-08
-2.32247e-08
7.75102e-09
-1.50315e-08
9.35407e-09
2.19223e-08
-1.71249e-08
8.29134e-09
1.16163e-08
-2.25621e-08
2.58557e-09
1.66772e-08
-1.38098e-08
1.83393e-08
-1.18854e-08
-3.53586e-09
1.05906e-08
-1.77224e-08
1.97343e-08
-1.62148e-08
1.3791e-08
3.06671e-09
-1.57202e-08
1.60454e-08
-1.91114e-08
1.92387e-08
-4.55172e-09
-1.18532e-08
3.75665e-09
5.2559e-09
3.9695e-09
-1.35379e-08
1.01721e-08
3.43193e-09
-1.32074e-08
1.23855e-08
-3.26539e-09
-1.12527e-08
1.00952e-08
1.67628e-09
-9.48986e-09
1.81979e-09
6.70261e-09
-8.72869e-10
-5.00843e-09
-2.12124e-10
3.32532e-09
2.60409e-09
-5.29814e-09
-4.77706e-10
6.32071e-09
-3.69787e-09
-3.59056e-09
4.64028e-09
-2.56535e-10
-2.78545e-09
8.00264e-10
1.11922e-09
-3.63556e-10
-5.81184e-10
1.07677e-10
4.7185e-10
-3.14839e-10
-8.06126e-12
-9.28921e-12
5.75556e-11
1.04761e-10
-3.6853e-10
5.09005e-10
-5.07432e-10
3.95273e-10
-2.32774e-10
3.10963e-11
1.49587e-10
-2.69094e-10
2.83208e-10
-2.32262e-10
1.45363e-10
-7.2225e-11
1.22152e-11
1.44959e-11
-2.66811e-11
1.92445e-11
-1.38096e-11
3.03989e-12
-3.56849e-13
-4.45938e-12
1.80866e-12
-2.5972e-12
-2.90869e-13
-1.08173e-12
-6.49938e-13
-6.75478e-13
-5.87492e-13
-4.79327e-13
-4.06154e-13
-3.24983e-13
-2.38745e-13
-1.55632e-13
-7.56211e-14
)
;

boundaryField
{
    inandouthalf11
    {
        type            cyclic;
        value           nonuniform List<scalar> 
300
(
-6.91281e-43
3.95308e-31
7.12991e-31
1.00333e-30
1.32431e-30
1.6516e-30
1.97634e-30
2.30269e-30
2.63159e-30
2.96242e-30
3.29512e-30
3.62977e-30
3.96655e-30
4.30545e-30
4.64648e-30
4.98975e-30
5.33531e-30
5.68324e-30
6.03386e-30
6.38732e-30
6.7435e-30
7.10238e-30
7.46393e-30
7.82786e-30
8.1941e-30
8.56269e-30
8.93334e-30
9.30567e-30
9.67949e-30
1.00549e-29
1.04323e-29
1.08113e-29
1.11921e-29
1.15743e-29
1.1958e-29
1.23431e-29
1.27299e-29
1.31185e-29
1.35091e-29
1.39014e-29
1.42956e-29
1.46914e-29
1.50888e-29
1.54877e-29
1.58878e-29
1.62893e-29
1.66924e-29
1.70971e-29
1.75033e-29
1.7911e-29
1.83205e-29
1.87315e-29
1.91435e-29
1.95566e-29
1.99706e-29
2.03856e-29
2.08019e-29
2.12191e-29
2.16372e-29
2.20563e-29
2.24766e-29
2.28982e-29
2.33214e-29
2.3746e-29
2.41724e-29
2.46005e-29
2.50302e-29
2.54611e-29
2.58924e-29
2.63237e-29
2.67551e-29
2.71869e-29
2.76198e-29
2.80539e-29
2.84894e-29
2.8926e-29
2.93634e-29
2.98014e-29
3.02397e-29
3.06783e-29
3.11168e-29
3.15556e-29
3.19944e-29
3.24331e-29
3.28719e-29
3.33108e-29
3.375e-29
3.41896e-29
3.46293e-29
3.50691e-29
3.55092e-29
3.59497e-29
3.63908e-29
3.68325e-29
3.72744e-29
3.7716e-29
3.81568e-29
3.85969e-29
3.90366e-29
3.94764e-29
3.99164e-29
4.03566e-29
4.07969e-29
4.12375e-29
4.16784e-29
4.21193e-29
4.25603e-29
4.30014e-29
4.34426e-29
4.38836e-29
4.43242e-29
4.47641e-29
4.52039e-29
4.5644e-29
4.60846e-29
4.65258e-29
4.69673e-29
4.74095e-29
4.78525e-29
4.82958e-29
4.87396e-29
4.91839e-29
4.96289e-29
5.00749e-29
5.05219e-29
5.09699e-29
5.14191e-29
5.18692e-29
5.23202e-29
5.27724e-29
5.3226e-29
5.36813e-29
5.41376e-29
5.45948e-29
5.50529e-29
5.55124e-29
5.59735e-29
5.64363e-29
5.6901e-29
5.73674e-29
5.78355e-29
5.83048e-29
5.87751e-29
5.92464e-29
5.97192e-29
6.01937e-29
6.06701e-29
6.11485e-29
6.16287e-29
6.21104e-29
6.25938e-29
6.30795e-29
6.35678e-29
6.40588e-29
6.45524e-29
6.50485e-29
6.55469e-29
6.60478e-29
6.6551e-29
6.70568e-29
6.75651e-29
6.80764e-29
6.85912e-29
6.91104e-29
6.96339e-29
7.01634e-29
7.06986e-29
7.12427e-29
7.17946e-29
7.23595e-29
7.29335e-29
7.35211e-29
7.41107e-29
7.47039e-29
7.52779e-29
7.58236e-29
7.63084e-29
7.67022e-29
7.69936e-29
7.72483e-29
7.74939e-29
7.79432e-29
7.83961e-29
7.87025e-29
7.85143e-29
5.02809e-29
1.60331e-30
-4.84058e-29
-1.78802e-29
2.22034e-28
4.50533e-28
1.4087e-27
6.55273e-27
-8.93311e-07
-3.54336e-08
-2.13115e-09
-4.82631e-10
-1.52546e-10
-8.24862e-11
-6.85665e-11
-6.27581e-11
-5.78565e-11
-5.37385e-11
-5.07017e-11
-4.8434e-11
-4.6469e-11
-4.45411e-11
-4.25934e-11
-4.06687e-11
-3.8833e-11
-3.7141e-11
-3.56286e-11
-3.43153e-11
-3.32084e-11
-3.23069e-11
-3.16035e-11
-3.10867e-11
-3.07418e-11
-3.05523e-11
-3.05006e-11
-3.05684e-11
-3.07382e-11
-3.09929e-11
-3.13164e-11
-3.16943e-11
-3.21134e-11
-3.2562e-11
-3.30302e-11
-3.35094e-11
-3.39925e-11
-3.44736e-11
-3.49482e-11
-3.54126e-11
-3.58643e-11
-3.63013e-11
-3.67224e-11
-3.71271e-11
-3.7515e-11
-3.78865e-11
-3.82417e-11
-3.85816e-11
-3.89067e-11
-3.9218e-11
-3.95165e-11
-3.9803e-11
-4.00786e-11
-4.03442e-11
-4.06007e-11
-4.0849e-11
-4.10898e-11
-4.1324e-11
-4.15523e-11
-4.17751e-11
-4.19932e-11
-4.22071e-11
-4.2417e-11
-4.26236e-11
-4.2827e-11
-4.30277e-11
-4.32258e-11
-4.34216e-11
-4.36152e-11
-4.38069e-11
-4.39966e-11
-4.41846e-11
-4.4371e-11
-4.45556e-11
-4.47387e-11
-4.49202e-11
-4.51001e-11
-4.52786e-11
-4.54554e-11
-4.56307e-11
-4.58045e-11
-4.59766e-11
-4.61472e-11
-4.63161e-11
-4.64833e-11
-4.66489e-11
-4.68127e-11
-4.69748e-11
-4.71351e-11
-4.72936e-11
-4.74503e-11
-4.76051e-11
-4.7758e-11
-4.7909e-11
-4.8058e-11
-4.8205e-11
-4.835e-11
-4.8493e-11
-4.86339e-11
-4.87727e-11
-4.89094e-11
-4.90439e-11
-4.91762e-11
-4.93064e-11
-4.94343e-11
-4.95599e-11
-4.96832e-11
)
;
    }
    inandouthalf12
    {
        type            cyclic;
        value           nonuniform List<scalar> 
300
(
6.91281e-43
-3.95308e-31
-7.12991e-31
-1.00333e-30
-1.32431e-30
-1.6516e-30
-1.97634e-30
-2.30269e-30
-2.63159e-30
-2.96242e-30
-3.29512e-30
-3.62977e-30
-3.96655e-30
-4.30545e-30
-4.64648e-30
-4.98975e-30
-5.33531e-30
-5.68324e-30
-6.03386e-30
-6.38732e-30
-6.7435e-30
-7.10238e-30
-7.46393e-30
-7.82786e-30
-8.1941e-30
-8.56269e-30
-8.93334e-30
-9.30567e-30
-9.67949e-30
-1.00549e-29
-1.04323e-29
-1.08113e-29
-1.11921e-29
-1.15743e-29
-1.1958e-29
-1.23431e-29
-1.27299e-29
-1.31185e-29
-1.35091e-29
-1.39014e-29
-1.42956e-29
-1.46914e-29
-1.50888e-29
-1.54877e-29
-1.58878e-29
-1.62893e-29
-1.66924e-29
-1.70971e-29
-1.75033e-29
-1.7911e-29
-1.83205e-29
-1.87315e-29
-1.91435e-29
-1.95566e-29
-1.99706e-29
-2.03856e-29
-2.08019e-29
-2.12191e-29
-2.16372e-29
-2.20563e-29
-2.24766e-29
-2.28982e-29
-2.33214e-29
-2.3746e-29
-2.41724e-29
-2.46005e-29
-2.50302e-29
-2.54611e-29
-2.58924e-29
-2.63237e-29
-2.67551e-29
-2.71869e-29
-2.76198e-29
-2.80539e-29
-2.84894e-29
-2.8926e-29
-2.93634e-29
-2.98014e-29
-3.02397e-29
-3.06783e-29
-3.11168e-29
-3.15556e-29
-3.19944e-29
-3.24331e-29
-3.28719e-29
-3.33108e-29
-3.375e-29
-3.41896e-29
-3.46293e-29
-3.50691e-29
-3.55092e-29
-3.59497e-29
-3.63908e-29
-3.68325e-29
-3.72744e-29
-3.7716e-29
-3.81568e-29
-3.85969e-29
-3.90366e-29
-3.94764e-29
-3.99164e-29
-4.03566e-29
-4.07969e-29
-4.12375e-29
-4.16784e-29
-4.21193e-29
-4.25603e-29
-4.30014e-29
-4.34426e-29
-4.38836e-29
-4.43242e-29
-4.47641e-29
-4.52039e-29
-4.5644e-29
-4.60846e-29
-4.65258e-29
-4.69673e-29
-4.74095e-29
-4.78525e-29
-4.82958e-29
-4.87396e-29
-4.91839e-29
-4.96289e-29
-5.00749e-29
-5.05219e-29
-5.09699e-29
-5.14191e-29
-5.18692e-29
-5.23202e-29
-5.27724e-29
-5.3226e-29
-5.36813e-29
-5.41376e-29
-5.45948e-29
-5.50529e-29
-5.55124e-29
-5.59735e-29
-5.64363e-29
-5.6901e-29
-5.73674e-29
-5.78355e-29
-5.83048e-29
-5.87751e-29
-5.92464e-29
-5.97192e-29
-6.01937e-29
-6.06701e-29
-6.11485e-29
-6.16287e-29
-6.21104e-29
-6.25938e-29
-6.30795e-29
-6.35678e-29
-6.40588e-29
-6.45524e-29
-6.50485e-29
-6.55469e-29
-6.60478e-29
-6.6551e-29
-6.70568e-29
-6.75651e-29
-6.80764e-29
-6.85912e-29
-6.91104e-29
-6.96339e-29
-7.01634e-29
-7.06986e-29
-7.12427e-29
-7.17946e-29
-7.23595e-29
-7.29335e-29
-7.35211e-29
-7.41107e-29
-7.47039e-29
-7.52779e-29
-7.58236e-29
-7.63084e-29
-7.67022e-29
-7.69936e-29
-7.72483e-29
-7.74939e-29
-7.79432e-29
-7.83961e-29
-7.87025e-29
-7.85143e-29
-5.02809e-29
-1.60331e-30
4.84058e-29
1.78802e-29
-2.22034e-28
-4.50533e-28
-1.4087e-27
-6.55273e-27
8.93311e-07
3.54336e-08
2.13115e-09
4.82631e-10
1.52546e-10
8.24862e-11
6.85665e-11
6.27581e-11
5.78565e-11
5.37385e-11
5.07017e-11
4.8434e-11
4.6469e-11
4.45411e-11
4.25934e-11
4.06687e-11
3.8833e-11
3.7141e-11
3.56286e-11
3.43153e-11
3.32084e-11
3.23069e-11
3.16035e-11
3.10867e-11
3.07418e-11
3.05523e-11
3.05006e-11
3.05684e-11
3.07382e-11
3.09929e-11
3.13164e-11
3.16943e-11
3.21134e-11
3.2562e-11
3.30302e-11
3.35094e-11
3.39925e-11
3.44736e-11
3.49482e-11
3.54126e-11
3.58643e-11
3.63013e-11
3.67224e-11
3.71271e-11
3.7515e-11
3.78865e-11
3.82417e-11
3.85816e-11
3.89067e-11
3.9218e-11
3.95165e-11
3.9803e-11
4.00786e-11
4.03442e-11
4.06007e-11
4.0849e-11
4.10898e-11
4.1324e-11
4.15523e-11
4.17751e-11
4.19932e-11
4.22071e-11
4.2417e-11
4.26236e-11
4.2827e-11
4.30277e-11
4.32258e-11
4.34216e-11
4.36152e-11
4.38069e-11
4.39966e-11
4.41846e-11
4.4371e-11
4.45556e-11
4.47387e-11
4.49202e-11
4.51001e-11
4.52786e-11
4.54554e-11
4.56307e-11
4.58045e-11
4.59766e-11
4.61472e-11
4.63161e-11
4.64833e-11
4.66489e-11
4.68127e-11
4.69748e-11
4.71351e-11
4.72936e-11
4.74503e-11
4.76051e-11
4.7758e-11
4.7909e-11
4.8058e-11
4.8205e-11
4.835e-11
4.8493e-11
4.86339e-11
4.87727e-11
4.89094e-11
4.90439e-11
4.91762e-11
4.93064e-11
4.94343e-11
4.95599e-11
4.96832e-11
)
;
    }
    inandouthalf21
    {
        type            cyclic;
        value           nonuniform List<scalar> 
300
(
-4.98043e-11
-4.9923e-11
-5.00393e-11
-5.01533e-11
-5.02648e-11
-5.03739e-11
-5.04805e-11
-5.05846e-11
-5.06863e-11
-5.07854e-11
-5.0882e-11
-5.0976e-11
-5.10674e-11
-5.11563e-11
-5.12425e-11
-5.13262e-11
-5.14072e-11
-5.14856e-11
-5.15614e-11
-5.16346e-11
-5.17052e-11
-5.17732e-11
-5.18386e-11
-5.19015e-11
-5.19617e-11
-5.20195e-11
-5.20747e-11
-5.21275e-11
-5.21778e-11
-5.22257e-11
-5.22713e-11
-5.23145e-11
-5.23554e-11
-5.23941e-11
-5.24306e-11
-5.24649e-11
-5.24972e-11
-5.25274e-11
-5.25556e-11
-5.25819e-11
-5.26063e-11
-5.26289e-11
-5.26497e-11
-5.26688e-11
-5.26862e-11
-5.27021e-11
-5.27164e-11
-5.27292e-11
-5.27406e-11
-5.27505e-11
-5.27592e-11
-5.27665e-11
-5.27725e-11
-5.27774e-11
-5.27811e-11
-5.27837e-11
-5.27851e-11
-5.27855e-11
-5.27849e-11
-5.27834e-11
-5.27808e-11
-5.27774e-11
-5.2773e-11
-5.27678e-11
-5.27618e-11
-5.2755e-11
-5.27474e-11
-5.2739e-11
-5.273e-11
-5.27201e-11
-5.27095e-11
-5.26983e-11
-5.26863e-11
-5.26736e-11
-5.26602e-11
-5.2646e-11
-5.2631e-11
-5.2615e-11
-5.25981e-11
-5.258e-11
-5.25607e-11
-5.254e-11
-5.25177e-11
-5.24935e-11
-5.24671e-11
-5.24383e-11
-5.24068e-11
-5.23721e-11
-5.2334e-11
-5.22919e-11
-5.22456e-11
-5.21947e-11
-5.21387e-11
-5.20775e-11
-5.20108e-11
-5.19385e-11
-5.18608e-11
-5.17779e-11
-5.16903e-11
-5.15987e-11
-5.15045e-11
-5.1409e-11
-5.13144e-11
-5.12231e-11
-5.11382e-11
-5.10632e-11
-5.10024e-11
-5.09605e-11
-5.09429e-11
-5.09554e-11
-5.10043e-11
-5.10959e-11
-5.12369e-11
-5.14336e-11
-5.16919e-11
-5.20168e-11
-5.2412e-11
-5.28796e-11
-5.34191e-11
-5.40274e-11
-5.46975e-11
-5.54185e-11
-5.61743e-11
-5.69434e-11
-5.76981e-11
-5.8404e-11
-5.90197e-11
-5.94965e-11
-5.97782e-11
-5.98021e-11
-5.9499e-11
-5.87944e-11
-5.76106e-11
-5.58682e-11
-5.34894e-11
-5.04012e-11
-4.65402e-11
-4.18569e-11
-3.63231e-11
-2.99368e-11
-2.27336e-11
-1.47899e-11
-6.23979e-12
2.72441e-12
1.18326e-11
2.07347e-11
2.89907e-11
3.60473e-11
4.12609e-11
4.38292e-11
4.28629e-11
3.73008e-11
2.59928e-11
7.65688e-12
-1.91207e-11
-5.59323e-11
-1.04154e-10
-1.66189e-10
-2.41165e-10
-3.34608e-10
-4.34223e-10
-5.57726e-10
-6.66708e-10
-8.04761e-10
-9.58044e-10
-1.10236e-09
-1.67679e-09
-1.83585e-09
-3.26451e-09
-3.37094e-09
2.6721e-10
-1.22555e-09
1.35219e-08
8.1335e-09
-4.84283e-08
-2.41081e-08
-1.09922e-07
-7.31441e-08
2.57856e-07
8.98058e-08
2.63131e-06
-2.93163e-09
-2.92271e-11
-5.51698e-11
-3.06582e-11
-3.30106e-11
-4.68888e-11
-6.50494e-11
-6.75576e-11
-5.45554e-11
-4.25982e-11
-3.7861e-11
-3.20529e-11
-3.97896e-11
-5.82584e-11
-5.93196e-11
-5.46634e-11
-4.82056e-11
-3.97377e-11
-4.2228e-11
-4.43598e-11
-4.55752e-11
-5.55389e-11
-5.35939e-11
-4.58695e-11
-4.73354e-11
-4.14591e-11
-4.04711e-11
-5.0568e-11
-4.9907e-11
-4.8633e-11
-5.0303e-11
-4.34879e-11
-4.49737e-11
-4.50468e-11
-4.52337e-11
-5.00519e-11
-4.61456e-11
-4.79639e-11
-4.47998e-11
-4.4129e-11
-4.7822e-11
-4.50817e-11
-4.7946e-11
-4.43346e-11
-4.621e-11
-4.91992e-11
-4.26695e-11
-4.24937e-11
-4.72968e-11
-4.8587e-11
-4.27998e-11
-4.4758e-11
-4.80898e-11
-4.26325e-11
-4.5983e-11
-4.75967e-11
-4.12562e-11
-4.52934e-11
-4.86946e-11
-4.26306e-11
-4.13115e-11
-4.65857e-11
-4.71763e-11
-4.30497e-11
-4.17283e-11
-4.47244e-11
-4.6795e-11
-4.29285e-11
-4.14899e-11
-4.61291e-11
-4.46805e-11
-4.09604e-11
-4.3994e-11
-4.51569e-11
-4.23584e-11
-4.22131e-11
-4.35593e-11
-4.33633e-11
-4.24219e-11
-4.24005e-11
-4.27144e-11
-4.24984e-11
-4.2117e-11
-4.20852e-11
-4.19866e-11
-4.19346e-11
-4.15103e-11
-4.16378e-11
-4.13225e-11
-4.12029e-11
-4.10828e-11
-4.07772e-11
-4.08229e-11
-4.03685e-11
-4.04214e-11
-4.00606e-11
-3.99362e-11
-3.96996e-11
-3.94726e-11
-3.92624e-11
-3.89813e-11
-3.87727e-11
-3.84592e-11
-3.82087e-11
-3.78842e-11
-3.75782e-11
-3.72276e-11
-3.68607e-11
-3.64617e-11
-3.60268e-11
-3.55486e-11
-3.50174e-11
-3.44192e-11
-3.37336e-11
-3.29298e-11
-3.19559e-11
-3.07148e-11
-2.89792e-11
-5.86747e-47
)
;
    }
    inandouthalf22
    {
        type            cyclic;
        value           nonuniform List<scalar> 
300
(
4.98043e-11
4.9923e-11
5.00393e-11
5.01533e-11
5.02648e-11
5.03739e-11
5.04805e-11
5.05846e-11
5.06863e-11
5.07854e-11
5.0882e-11
5.0976e-11
5.10674e-11
5.11563e-11
5.12425e-11
5.13262e-11
5.14072e-11
5.14856e-11
5.15614e-11
5.16346e-11
5.17052e-11
5.17732e-11
5.18386e-11
5.19015e-11
5.19617e-11
5.20195e-11
5.20747e-11
5.21275e-11
5.21778e-11
5.22257e-11
5.22713e-11
5.23145e-11
5.23554e-11
5.23941e-11
5.24306e-11
5.24649e-11
5.24972e-11
5.25274e-11
5.25556e-11
5.25819e-11
5.26063e-11
5.26289e-11
5.26497e-11
5.26688e-11
5.26862e-11
5.27021e-11
5.27164e-11
5.27292e-11
5.27406e-11
5.27505e-11
5.27592e-11
5.27665e-11
5.27725e-11
5.27774e-11
5.27811e-11
5.27837e-11
5.27851e-11
5.27855e-11
5.27849e-11
5.27834e-11
5.27808e-11
5.27774e-11
5.2773e-11
5.27678e-11
5.27618e-11
5.2755e-11
5.27474e-11
5.2739e-11
5.273e-11
5.27201e-11
5.27095e-11
5.26983e-11
5.26863e-11
5.26736e-11
5.26602e-11
5.2646e-11
5.2631e-11
5.2615e-11
5.25981e-11
5.258e-11
5.25607e-11
5.254e-11
5.25177e-11
5.24935e-11
5.24671e-11
5.24383e-11
5.24068e-11
5.23721e-11
5.2334e-11
5.22919e-11
5.22456e-11
5.21947e-11
5.21387e-11
5.20775e-11
5.20108e-11
5.19385e-11
5.18608e-11
5.17779e-11
5.16903e-11
5.15987e-11
5.15045e-11
5.1409e-11
5.13144e-11
5.12231e-11
5.11382e-11
5.10632e-11
5.10024e-11
5.09605e-11
5.09429e-11
5.09554e-11
5.10043e-11
5.10959e-11
5.12369e-11
5.14336e-11
5.16919e-11
5.20168e-11
5.2412e-11
5.28796e-11
5.34191e-11
5.40274e-11
5.46975e-11
5.54185e-11
5.61743e-11
5.69434e-11
5.76981e-11
5.8404e-11
5.90197e-11
5.94965e-11
5.97782e-11
5.98021e-11
5.9499e-11
5.87944e-11
5.76106e-11
5.58682e-11
5.34894e-11
5.04012e-11
4.65402e-11
4.18569e-11
3.63231e-11
2.99368e-11
2.27336e-11
1.47899e-11
6.23979e-12
-2.72441e-12
-1.18326e-11
-2.07347e-11
-2.89907e-11
-3.60473e-11
-4.12609e-11
-4.38292e-11
-4.28629e-11
-3.73008e-11
-2.59928e-11
-7.65688e-12
1.91207e-11
5.59323e-11
1.04154e-10
1.66189e-10
2.41165e-10
3.34608e-10
4.34223e-10
5.57726e-10
6.66708e-10
8.04761e-10
9.58044e-10
1.10236e-09
1.67679e-09
1.83585e-09
3.26451e-09
3.37094e-09
-2.6721e-10
1.22555e-09
-1.35219e-08
-8.1335e-09
4.84283e-08
2.41081e-08
1.09922e-07
7.31441e-08
-2.57856e-07
-8.98058e-08
-2.63131e-06
2.93163e-09
2.92271e-11
5.51698e-11
3.06582e-11
3.30106e-11
4.68888e-11
6.50494e-11
6.75576e-11
5.45554e-11
4.25982e-11
3.7861e-11
3.20529e-11
3.97896e-11
5.82584e-11
5.93196e-11
5.46634e-11
4.82056e-11
3.97377e-11
4.2228e-11
4.43598e-11
4.55752e-11
5.55389e-11
5.35939e-11
4.58695e-11
4.73354e-11
4.14591e-11
4.04711e-11
5.0568e-11
4.9907e-11
4.8633e-11
5.0303e-11
4.34879e-11
4.49737e-11
4.50468e-11
4.52337e-11
5.00519e-11
4.61456e-11
4.79639e-11
4.47998e-11
4.4129e-11
4.7822e-11
4.50816e-11
4.7946e-11
4.43346e-11
4.621e-11
4.91992e-11
4.26695e-11
4.24937e-11
4.72968e-11
4.8587e-11
4.27998e-11
4.4758e-11
4.80898e-11
4.26325e-11
4.5983e-11
4.75967e-11
4.12562e-11
4.52934e-11
4.86946e-11
4.26306e-11
4.13115e-11
4.65857e-11
4.71763e-11
4.30497e-11
4.17283e-11
4.47244e-11
4.6795e-11
4.29285e-11
4.14899e-11
4.61291e-11
4.46805e-11
4.09604e-11
4.3994e-11
4.51569e-11
4.23584e-11
4.22131e-11
4.35593e-11
4.33633e-11
4.24219e-11
4.24005e-11
4.27144e-11
4.24984e-11
4.2117e-11
4.20852e-11
4.19866e-11
4.19346e-11
4.15103e-11
4.16378e-11
4.13225e-11
4.12029e-11
4.10828e-11
4.07772e-11
4.08229e-11
4.03685e-11
4.04214e-11
4.00606e-11
3.99362e-11
3.96996e-11
3.94726e-11
3.92624e-11
3.89813e-11
3.87727e-11
3.84592e-11
3.82087e-11
3.78842e-11
3.75782e-11
3.72276e-11
3.68607e-11
3.64617e-11
3.60268e-11
3.55486e-11
3.50174e-11
3.44192e-11
3.37336e-11
3.29298e-11
3.19559e-11
3.07148e-11
2.89792e-11
5.86747e-47
)
;
    }
    top
    {
        type            calculated;
        value           uniform 0;
    }
    walls
    {
        type            calculated;
        value           uniform 0;
    }
    frontAndBackPlanes
    {
        type            empty;
        value           nonuniform 0();
    }
}


// ************************************************************************* //
