/*--------------------------------*- C++ -*----------------------------------*\
| =========                 |                                                 |
| \\      /  F ield         | OpenFOAM: The Open Source CFD Toolbox           |
|  \\    /   O peration     | Version:  2.1.1                                 |
|   \\  /    A nd           | Web:      www.OpenFOAM.org                      |
|    \\/     M anipulation  |                                                 |
\*---------------------------------------------------------------------------*/
FoamFile
{
    version     2.0;
    format      ascii;
    class       volScalarField;
    location    "100";
    object      ddt0(epsilon);
}
// * * * * * * * * * * * * * * * * * * * * * * * * * * * * * * * * * * * * * //

dimensions      [0 2 -4 0 0 0 0];

internalField   nonuniform List<scalar> 
600
(
8.97518e-20
-2.4909e-19
-1.04111e-19
-5.05464e-20
-3.38859e-21
0
0
0
0
0
0
0
0
0
0
0
0
0
0
0
0
0
0
0
0
0
0
0
0
0
0
0
0
0
0
0
0
0
0
0
0
0
0
0
0
0
0
0
0
0
0
0
0
0
0
0
0
0
0
0
0
0
0
0
0
0
0
0
0
0
0
0
0
0
0
0
0
0
0
0
0
0
0
0
0
0
0
0
0
0
0
0
0
0
0
0
0
0
0
0
0
0
0
0
0
0
0
0
0
0
0
0
0
0
0
0
0
0
0
0
0
0
0
0
0
0
0
0
0
0
0
0
0
0
0
0
0
0
0
0
0
0
0
0
0
0
0
0
0
0
0
0
0
0
0
0
0
0
0
0
0
0
0
0
0
0
0
0
1.74412e-23
5.20913e-23
1.45609e-22
4.27613e-22
1.32383e-21
4.22641e-21
1.35918e-20
4.33156e-20
1.35761e-19
4.19617e-19
1.30625e-18
4.33838e-18
1.69309e-17
8.21645e-17
4.68003e-16
2.86265e-15
1.7821e-14
1.09613e-13
9.52216e-13
2.18801e-11
5.76837e-10
9.95303e-09
-3.4533e-08
-1.61913e-05
-0.00368763
-0.00898468
0.0153378
-0.0108536
-0.00305897
-0.000781084
-0.000232216
-0.000136877
-8.51292e-05
-4.44346e-05
-2.51752e-05
-2.21431e-05
-2.52522e-05
-2.81977e-05
-2.89485e-05
-2.76422e-05
-2.50004e-05
-2.16697e-05
-1.80808e-05
-1.44889e-05
-1.10346e-05
-7.79568e-06
-4.81595e-06
-2.12038e-06
2.77843e-07
2.37435e-06
4.17136e-06
5.67763e-06
6.9072e-06
7.87906e-06
8.61576e-06
9.1417e-06
9.48241e-06
9.66373e-06
9.71118e-06
9.64868e-06
9.4979e-06
9.27807e-06
9.00714e-06
8.70032e-06
8.3703e-06
8.02732e-06
7.68005e-06
7.33566e-06
6.99981e-06
6.67635e-06
6.36814e-06
6.07678e-06
5.80356e-06
5.54862e-06
5.31196e-06
5.09347e-06
4.8923e-06
4.70761e-06
4.53799e-06
4.38263e-06
4.24024e-06
4.10976e-06
3.98972e-06
3.87933e-06
3.77734e-06
3.68291e-06
3.59509e-06
3.51285e-06
3.43581e-06
3.36308e-06
3.29404e-06
3.22838e-06
3.16522e-06
3.10435e-06
3.0454e-06
2.98811e-06
2.93223e-06
2.87751e-06
2.82359e-06
2.77055e-06
2.71809e-06
2.66632e-06
2.61496e-06
2.564e-06
2.51339e-06
2.46312e-06
2.41317e-06
2.36352e-06
2.31417e-06
2.26513e-06
2.2164e-06
2.16799e-06
2.11991e-06
2.07219e-06
2.02485e-06
1.9779e-06
1.93137e-06
1.88528e-06
1.83964e-06
1.79448e-06
1.7498e-06
1.70559e-06
1.66199e-06
1.61896e-06
1.57651e-06
1.53467e-06
1.49345e-06
1.45284e-06
1.41287e-06
1.37368e-06
1.33505e-06
1.29716e-06
1.2599e-06
1.22341e-06
1.18758e-06
1.15255e-06
1.11822e-06
1.0846e-06
1.05181e-06
1.01971e-06
9.8845e-07
9.57925e-07
9.28233e-07
8.99277e-07
8.71171e-07
8.4384e-07
8.17288e-07
7.91513e-07
7.66574e-07
7.42441e-07
7.19115e-07
6.96619e-07
6.74894e-07
6.53944e-07
6.33764e-07
6.14404e-07
5.95774e-07
5.77944e-07
5.60847e-07
5.44525e-07
5.28895e-07
5.14017e-07
4.99826e-07
4.86353e-07
4.73515e-07
4.61403e-07
4.49893e-07
4.39074e-07
4.28831e-07
4.19211e-07
4.1016e-07
4.01702e-07
3.9376e-07
3.86377e-07
3.79495e-07
3.73132e-07
3.67247e-07
3.61823e-07
3.56899e-07
3.52375e-07
3.48292e-07
3.44607e-07
3.41339e-07
3.38419e-07
3.3589e-07
3.33738e-07
3.31898e-07
3.30412e-07
3.2924e-07
3.28401e-07
3.27831e-07
3.27605e-07
3.27632e-07
3.27958e-07
3.28551e-07
3.29403e-07
3.30512e-07
3.3187e-07
3.33473e-07
3.35316e-07
3.37393e-07
3.39699e-07
3.4223e-07
3.44981e-07
3.47947e-07
3.51122e-07
3.54502e-07
3.58112e-07
3.61885e-07
3.6591e-07
3.7009e-07
3.74517e-07
3.79094e-07
3.83881e-07
3.88846e-07
3.94021e-07
3.9937e-07
4.04892e-07
4.10623e-07
4.16528e-07
4.22608e-07
4.28862e-07
4.35292e-07
4.41894e-07
4.48666e-07
4.55608e-07
4.62756e-07
4.70027e-07
4.77502e-07
4.85142e-07
4.92945e-07
5.00911e-07
5.0904e-07
5.1733e-07
5.25777e-07
5.34383e-07
5.43188e-07
5.52094e-07
5.61194e-07
5.70445e-07
5.79889e-07
5.89424e-07
5.9915e-07
6.09022e-07
6.19087e-07
6.29234e-07
6.39571e-07
6.50051e-07
6.60724e-07
6.7147e-07
6.82407e-07
6.93486e-07
7.04759e-07
7.16102e-07
7.27643e-07
7.39328e-07
7.51153e-07
7.63123e-07
7.75238e-07
7.87501e-07
7.9991e-07
8.12468e-07
8.25173e-07
8.38028e-07
8.51031e-07
8.64183e-07
8.77483e-07
8.90929e-07
9.04518e-07
9.18252e-07
9.322e-07
9.46194e-07
9.60402e-07
9.74825e-07
9.89283e-07
1.00394e-06
1.01874e-06
1.03373e-06
1.04884e-06
1.06404e-06
1.07945e-06
1.09507e-06
1.11069e-06
1.12651e-06
1.14245e-06
1.15859e-06
1.17473e-06
1.19107e-06
1.20752e-06
1.22418e-06
1.24083e-06
1.25768e-06
1.27466e-06
1.29186e-06
1.30909e-06
1.32671e-06
1.34444e-06
1.36258e-06
1.38108e-06
1.40002e-06
1.41895e-06
1.43739e-06
1.45442e-06
1.47051e-06
1.48731e-06
1.50845e-06
1.54678e-06
1.58694e-06
1.61223e-06
1.56017e-06
1.35535e-06
1.444e-06
1.83501e-06
1.90644e-06
1.75544e-06
1.68693e-06
1.70365e-06
1.74497e-06
1.79139e-06
1.82789e-06
1.85261e-06
1.87268e-06
1.89597e-06
1.92369e-06
1.95548e-06
1.98971e-06
2.02132e-06
2.04979e-06
2.07754e-06
2.10697e-06
2.13902e-06
2.17239e-06
2.20746e-06
2.2439e-06
2.2788e-06
2.31269e-06
2.34719e-06
2.38276e-06
2.42128e-06
2.46185e-06
2.50143e-06
2.54138e-06
2.58189e-06
2.62223e-06
2.66447e-06
2.70818e-06
2.75299e-06
2.79915e-06
2.84529e-06
2.89237e-06
2.9401e-06
2.98955e-06
3.04073e-06
3.09247e-06
3.14546e-06
3.19977e-06
3.25545e-06
3.31208e-06
3.36979e-06
3.43049e-06
3.4925e-06
3.55506e-06
3.61881e-06
3.68592e-06
3.75439e-06
3.82386e-06
3.89628e-06
3.97056e-06
4.04624e-06
4.12548e-06
4.20632e-06
4.28875e-06
4.37504e-06
4.4644e-06
4.5553e-06
4.64895e-06
4.74672e-06
4.84796e-06
4.95207e-06
5.05933e-06
5.17145e-06
5.2881e-06
5.40802e-06
5.53283e-06
5.66344e-06
5.79865e-06
5.9389e-06
6.08587e-06
6.2391e-06
6.3986e-06
6.56564e-06
6.74018e-06
6.92343e-06
7.11544e-06
7.31704e-06
7.52908e-06
7.75237e-06
7.98783e-06
8.23658e-06
8.49979e-06
8.77878e-06
9.07504e-06
9.3903e-06
9.72644e-06
1.00857e-05
1.04704e-05
1.08835e-05
1.13289e-05
1.18097e-05
1.23313e-05
1.28982e-05
1.35168e-05
1.41953e-05
1.4942e-05
1.57696e-05
1.66905e-05
1.77221e-05
1.88853e-05
2.02073e-05
2.17233e-05
2.34796e-05
2.55391e-05
2.79883e-05
3.09487e-05
3.46008e-05
3.92191e-05
4.52381e-05
5.34024e-05
6.50797e-05
8.30234e-05
0.000113152
0.000117191
)
;

boundaryField
{
    inandouthalf11
    {
        type            cyclic;
    }
    inandouthalf12
    {
        type            cyclic;
    }
    inandouthalf21
    {
        type            cyclic;
    }
    inandouthalf22
    {
        type            cyclic;
    }
    top
    {
        type            calculated;
        value           uniform 0.000117196;
    }
    walls
    {
        type            calculated;
        value           uniform 2.62559e-71;
    }
    frontAndBackPlanes
    {
        type            empty;
    }
}


// ************************************************************************* //
