/*--------------------------------*- C++ -*----------------------------------*\
| =========                 |                                                 |
| \\      /  F ield         | OpenFOAM: The Open Source CFD Toolbox           |
|  \\    /   O peration     | Version:  2.1.1                                 |
|   \\  /    A nd           | Web:      www.OpenFOAM.org                      |
|    \\/     M anipulation  |                                                 |
\*---------------------------------------------------------------------------*/
FoamFile
{
    version     2.0;
    format      ascii;
    class       volScalarField;
    location    "100";
    object      ddt0(k);
}
// * * * * * * * * * * * * * * * * * * * * * * * * * * * * * * * * * * * * * //

dimensions      [0 2 -3 0 0 0 0];

internalField   nonuniform List<scalar> 
600
(
1.18335e-14
2.0726e-14
-9.21054e-17
3.53768e-19
9.65387e-20
6.8857e-20
3.66768e-20
3.62169e-117
-1.41112e-261
0
0
0
0
0
0
0
0
0
0
0
0
0
0
0
0
0
0
0
0
0
0
0
0
0
0
0
0
0
0
0
0
0
0
0
0
0
0
0
0
0
0
0
0
0
0
0
0
0
0
0
0
0
0
0
0
0
0
0
0
0
0
0
0
0
0
0
0
0
0
0
0
0
0
0
0
0
0
0
0
0
0
0
0
0
0
0
0
0
0
0
0
0
0
0
0
0
0
0
0
0
0
0
0
0
0
0
0
0
0
0
0
0
0
0
0
0
0
0
0
0
0
0
0
0
0
0
0
0
0
0
0
0
0
0
0
0
0
0
0
0
0
0
0
0
0
0
0
0
0
0
0
0
0
0
0
0
0
0
1.13849e-23
3.21772e-23
8.3184e-23
2.25406e-22
6.49132e-22
1.94226e-21
5.86105e-21
1.74253e-20
5.03209e-20
1.40386e-19
3.81747e-19
1.06211e-18
3.42584e-18
1.45298e-17
7.57981e-17
4.09589e-16
2.06114e-15
9.32971e-15
5.65327e-14
7.88813e-13
1.32903e-11
2.54548e-10
1.84088e-09
-3.31105e-07
-8.17325e-05
-0.000207438
0.000284986
-0.000155282
-5.49334e-05
-1.64402e-05
-5.13968e-06
-2.99504e-06
-1.99107e-06
-1.08836e-06
-5.96723e-07
-5.03823e-07
-5.88781e-07
-6.7912e-07
-7.07347e-07
-6.70085e-07
-5.85549e-07
-4.72709e-07
-3.45338e-07
-2.12296e-07
-7.91131e-08
5.06328e-08
1.74479e-07
2.90627e-07
3.97725e-07
4.9471e-07
5.80907e-07
6.55904e-07
7.19532e-07
7.71952e-07
8.13648e-07
8.4519e-07
8.67384e-07
8.81148e-07
8.87465e-07
8.87418e-07
8.81948e-07
8.72029e-07
8.58572e-07
8.42471e-07
8.24417e-07
8.05073e-07
7.85006e-07
7.64689e-07
7.44561e-07
7.24931e-07
7.06007e-07
6.88021e-07
6.71072e-07
6.55245e-07
6.40587e-07
6.27109e-07
6.14828e-07
6.03672e-07
5.93585e-07
5.84506e-07
5.76391e-07
5.6913e-07
5.62639e-07
5.56839e-07
5.51675e-07
5.47038e-07
5.42851e-07
5.39067e-07
5.35592e-07
5.32388e-07
5.29397e-07
5.26548e-07
5.23816e-07
5.21138e-07
5.18476e-07
5.15825e-07
5.13158e-07
5.10427e-07
5.07611e-07
5.04701e-07
5.01702e-07
4.98586e-07
4.95343e-07
4.91968e-07
4.88461e-07
4.84817e-07
4.81038e-07
4.77124e-07
4.73076e-07
4.68898e-07
4.64593e-07
4.60165e-07
4.55621e-07
4.50964e-07
4.46203e-07
4.41343e-07
4.36391e-07
4.31354e-07
4.26239e-07
4.21053e-07
4.15802e-07
4.10491e-07
4.05127e-07
3.99733e-07
3.94314e-07
3.8886e-07
3.83379e-07
3.77894e-07
3.72412e-07
3.66929e-07
3.61464e-07
3.56015e-07
3.50585e-07
3.45188e-07
3.39842e-07
3.34544e-07
3.29297e-07
3.24108e-07
3.18989e-07
3.13955e-07
3.09003e-07
3.04135e-07
2.99362e-07
2.94701e-07
2.90147e-07
2.85706e-07
2.81383e-07
2.77183e-07
2.73111e-07
2.69184e-07
2.65404e-07
2.61767e-07
2.58276e-07
2.54935e-07
2.51749e-07
2.48722e-07
2.45863e-07
2.43166e-07
2.40632e-07
2.38263e-07
2.36067e-07
2.34039e-07
2.32175e-07
2.30477e-07
2.28949e-07
2.27587e-07
2.26391e-07
2.25359e-07
2.2449e-07
2.23779e-07
2.23221e-07
2.22816e-07
2.22566e-07
2.22464e-07
2.22503e-07
2.22682e-07
2.23002e-07
2.23461e-07
2.24052e-07
2.24772e-07
2.25616e-07
2.26578e-07
2.27659e-07
2.28857e-07
2.30167e-07
2.31586e-07
2.33113e-07
2.34743e-07
2.3647e-07
2.38295e-07
2.40216e-07
2.42232e-07
2.4434e-07
2.46537e-07
2.48818e-07
2.51183e-07
2.53629e-07
2.56155e-07
2.5876e-07
2.61442e-07
2.64199e-07
2.67029e-07
2.69932e-07
2.72905e-07
2.75947e-07
2.79055e-07
2.82227e-07
2.85465e-07
2.88768e-07
2.92135e-07
2.95563e-07
2.99053e-07
3.02601e-07
3.06207e-07
3.09864e-07
3.13576e-07
3.17345e-07
3.21172e-07
3.25051e-07
3.28978e-07
3.32953e-07
3.36975e-07
3.41044e-07
3.45157e-07
3.49314e-07
3.53513e-07
3.57756e-07
3.62042e-07
3.6637e-07
3.70734e-07
3.75134e-07
3.79569e-07
3.84038e-07
3.88539e-07
3.9307e-07
3.97629e-07
4.0222e-07
4.06839e-07
4.11486e-07
4.16155e-07
4.20849e-07
4.25566e-07
4.30305e-07
4.3506e-07
4.39835e-07
4.44628e-07
4.49438e-07
4.5426e-07
4.59097e-07
4.63947e-07
4.68811e-07
4.73681e-07
4.78563e-07
4.83455e-07
4.88357e-07
4.93264e-07
4.98176e-07
5.03092e-07
5.08012e-07
5.12935e-07
5.1786e-07
5.22786e-07
5.27714e-07
5.32641e-07
5.37567e-07
5.42491e-07
5.4741e-07
5.52325e-07
5.57232e-07
5.6213e-07
5.67023e-07
5.71906e-07
5.7678e-07
5.81642e-07
5.86488e-07
5.91318e-07
5.96124e-07
6.00908e-07
6.05672e-07
6.10414e-07
6.15128e-07
6.19809e-07
6.24452e-07
6.29059e-07
6.33631e-07
6.38177e-07
6.4269e-07
6.4717e-07
6.5161e-07
6.56014e-07
6.60381e-07
6.64715e-07
6.69012e-07
6.73284e-07
6.7754e-07
6.81807e-07
6.86097e-07
6.90429e-07
6.94809e-07
6.99183e-07
7.03405e-07
7.07214e-07
7.10212e-07
7.12679e-07
7.15439e-07
7.20289e-07
7.31661e-07
7.43392e-07
7.50461e-07
7.38805e-07
7.58447e-07
4.89641e-07
7.20875e-07
1.01663e-06
7.74021e-07
7.49893e-07
7.38226e-07
7.54046e-07
7.76144e-07
7.91714e-07
7.90614e-07
7.83576e-07
7.8254e-07
7.88832e-07
7.96504e-07
8.08165e-07
8.20565e-07
8.2215e-07
8.21085e-07
8.22413e-07
8.24797e-07
8.32585e-07
8.41317e-07
8.47312e-07
8.54411e-07
8.56998e-07
8.5762e-07
8.63437e-07
8.68404e-07
8.7376e-07
8.82233e-07
8.87065e-07
8.90331e-07
8.95316e-07
8.98604e-07
9.04263e-07
9.10376e-07
9.1552e-07
9.21632e-07
9.25296e-07
9.30411e-07
9.35256e-07
9.40123e-07
9.46294e-07
9.50672e-07
9.56242e-07
9.60657e-07
9.65735e-07
9.71798e-07
9.75948e-07
9.80742e-07
9.864e-07
9.9197e-07
9.96297e-07
1.0014e-06
1.00721e-06
1.01154e-06
1.01685e-06
1.02246e-06
1.02672e-06
1.03202e-06
1.03771e-06
1.04229e-06
1.04705e-06
1.05255e-06
1.05782e-06
1.06259e-06
1.06744e-06
1.07263e-06
1.07792e-06
1.08276e-06
1.08758e-06
1.09293e-06
1.09798e-06
1.10269e-06
1.10782e-06
1.11296e-06
1.11782e-06
1.12277e-06
1.12779e-06
1.13275e-06
1.13767e-06
1.14261e-06
1.14756e-06
1.15248e-06
1.15738e-06
1.16228e-06
1.16716e-06
1.17204e-06
1.17689e-06
1.18175e-06
1.18658e-06
1.19141e-06
1.19622e-06
1.201e-06
1.20578e-06
1.21051e-06
1.21524e-06
1.21996e-06
1.22466e-06
1.22932e-06
1.23393e-06
1.2385e-06
1.24305e-06
1.24753e-06
1.25198e-06
1.25636e-06
1.26063e-06
1.26479e-06
1.26881e-06
1.27264e-06
1.27622e-06
1.27953e-06
1.28233e-06
1.2845e-06
1.28571e-06
1.28525e-06
1.28188e-06
1.27274e-06
1.24978e-06
1.18101e-06
4.49581e-07
)
;

boundaryField
{
    inandouthalf11
    {
        type            cyclic;
    }
    inandouthalf12
    {
        type            cyclic;
    }
    inandouthalf21
    {
        type            cyclic;
    }
    inandouthalf22
    {
        type            cyclic;
    }
    top
    {
        type            calculated;
        value           uniform 4.49581e-07;
    }
    walls
    {
        type            calculated;
        value           uniform 1.18335e-14;
    }
    frontAndBackPlanes
    {
        type            empty;
    }
}


// ************************************************************************* //
