/*--------------------------------*- C++ -*----------------------------------*\
| =========                 |                                                 |
| \\      /  F ield         | OpenFOAM: The Open Source CFD Toolbox           |
|  \\    /   O peration     | Version:  2.1.1                                 |
|   \\  /    A nd           | Web:      www.OpenFOAM.org                      |
|    \\/     M anipulation  |                                                 |
\*---------------------------------------------------------------------------*/
FoamFile
{
    version     2.0;
    format      ascii;
    class       surfaceScalarField;
    location    "100";
    object      ddt0(phib);
}
// * * * * * * * * * * * * * * * * * * * * * * * * * * * * * * * * * * * * * //

dimensions      [0 3 -2 0 0 0 0];

internalField   nonuniform List<scalar> 
599
(
4.99459e-13
5.01664e-13
5.02902e-13
5.04618e-13
5.06509e-13
5.08581e-13
5.10573e-13
5.12706e-13
5.14711e-13
5.16805e-13
5.18735e-13
5.20732e-13
5.22548e-13
5.24422e-13
5.26108e-13
5.2785e-13
5.29403e-13
5.31014e-13
5.32437e-13
5.33924e-13
5.35226e-13
5.36596e-13
5.37787e-13
5.39051e-13
5.40138e-13
5.41305e-13
5.42299e-13
5.43379e-13
5.44289e-13
5.45289e-13
5.46124e-13
5.47053e-13
5.47821e-13
5.48686e-13
5.49394e-13
5.50202e-13
5.50856e-13
5.51613e-13
5.52219e-13
5.52932e-13
5.53496e-13
5.54169e-13
5.54695e-13
5.55334e-13
5.55827e-13
5.56435e-13
5.56899e-13
5.57482e-13
5.57921e-13
5.58479e-13
5.58897e-13
5.59437e-13
5.59835e-13
5.60359e-13
5.60742e-13
5.61251e-13
5.61622e-13
5.62119e-13
5.62481e-13
5.62968e-13
5.6332e-13
5.63801e-13
5.64148e-13
5.64624e-13
5.64965e-13
5.65438e-13
5.65776e-13
5.66248e-13
5.66585e-13
5.67056e-13
5.67392e-13
5.67862e-13
5.68199e-13
5.68671e-13
5.69009e-13
5.69484e-13
5.69825e-13
5.70302e-13
5.70647e-13
5.71127e-13
5.71475e-13
5.71959e-13
5.72311e-13
5.72799e-13
5.73156e-13
5.73648e-13
5.74008e-13
5.74505e-13
5.7487e-13
5.75372e-13
5.7574e-13
5.76245e-13
5.76618e-13
5.77127e-13
5.77503e-13
5.78016e-13
5.78395e-13
5.78911e-13
5.79292e-13
5.7981e-13
5.80193e-13
5.80713e-13
5.81098e-13
5.81618e-13
5.82003e-13
5.82525e-13
5.82907e-13
5.83427e-13
5.83809e-13
5.84327e-13
5.84705e-13
5.85219e-13
5.85593e-13
5.86102e-13
5.86471e-13
5.86975e-13
5.87336e-13
5.87829e-13
5.88182e-13
5.88667e-13
5.89007e-13
5.89482e-13
5.89812e-13
5.90272e-13
5.90586e-13
5.91031e-13
5.91329e-13
5.91756e-13
5.92035e-13
5.92441e-13
5.92698e-13
5.93083e-13
5.93315e-13
5.93675e-13
5.93881e-13
5.94212e-13
5.94388e-13
5.94687e-13
5.9483e-13
5.95095e-13
5.95201e-13
5.95428e-13
5.95497e-13
5.9568e-13
5.95704e-13
5.95843e-13
5.95818e-13
5.95907e-13
5.95831e-13
5.95865e-13
5.95732e-13
5.95706e-13
5.95511e-13
5.95423e-13
5.95164e-13
5.95006e-13
5.94674e-13
5.94444e-13
5.94033e-13
5.93722e-13
5.9323e-13
5.92831e-13
5.9225e-13
5.9176e-13
5.91084e-13
5.90495e-13
5.89717e-13
5.89021e-13
5.88133e-13
5.87326e-13
5.86325e-13
5.85398e-13
5.84276e-13
5.83225e-13
5.81974e-13
5.80791e-13
5.794e-13
5.78065e-13
5.76508e-13
5.74987e-13
5.73246e-13
5.71587e-13
5.69715e-13
5.67382e-13
5.64548e-13
5.62872e-13
5.61373e-13
5.59342e-13
5.57258e-13
5.55577e-13
5.53742e-13
5.49272e-13
-4.86895e-06
9.26696e-07
6.50931e-08
6.17522e-09
1.05975e-09
1.1904e-10
4.20714e-12
-1.00773e-11
3.6412e-12
1.09518e-11
8.27547e-12
3.39518e-12
3.18594e-13
-7.33024e-13
-6.66997e-13
-2.25305e-13
1.97234e-13
4.82473e-13
6.31955e-13
6.81427e-13
6.67457e-13
6.18326e-13
5.53834e-13
4.87264e-13
4.26395e-13
3.75162e-13
3.34469e-13
3.03706e-13
2.81208e-13
2.65239e-13
2.5399e-13
2.46114e-13
2.40396e-13
2.36113e-13
2.32604e-13
2.2958e-13
2.26706e-13
2.23952e-13
2.21163e-13
2.18439e-13
2.15676e-13
2.1302e-13
2.10389e-13
2.0794e-13
2.05584e-13
2.03459e-13
2.0146e-13
1.99703e-13
1.98084e-13
1.96686e-13
1.95417e-13
1.94348e-13
1.93366e-13
1.92563e-13
1.91805e-13
1.91189e-13
1.90588e-13
1.90083e-13
1.89573e-13
1.89125e-13
1.88652e-13
1.88237e-13
1.87764e-13
1.87327e-13
1.86833e-13
1.86374e-13
1.85845e-13
1.85339e-13
1.84766e-13
1.84221e-13
1.83614e-13
1.83025e-13
1.82382e-13
1.81765e-13
1.81086e-13
1.80436e-13
1.7973e-13
1.79064e-13
1.78337e-13
1.77655e-13
1.76921e-13
1.7623e-13
1.75489e-13
1.74788e-13
1.74047e-13
1.73341e-13
1.72596e-13
1.71894e-13
1.71153e-13
1.70459e-13
1.69736e-13
1.69049e-13
1.68333e-13
1.67653e-13
1.66939e-13
1.66267e-13
1.65559e-13
1.64896e-13
1.642e-13
1.63547e-13
1.62855e-13
1.62207e-13
1.6153e-13
1.60886e-13
1.60208e-13
1.59574e-13
1.58906e-13
1.5828e-13
1.57622e-13
1.57001e-13
1.56344e-13
1.55719e-13
1.55071e-13
1.54454e-13
1.53806e-13
1.53196e-13
1.52546e-13
1.5194e-13
1.51301e-13
1.50698e-13
1.50057e-13
1.4946e-13
1.48819e-13
1.48221e-13
1.47587e-13
1.4698e-13
1.46348e-13
1.45749e-13
1.45113e-13
1.44515e-13
1.43889e-13
1.43292e-13
1.42666e-13
1.42068e-13
1.41448e-13
1.40858e-13
1.40235e-13
1.3965e-13
1.39035e-13
1.38448e-13
1.3783e-13
1.3725e-13
1.36639e-13
1.36057e-13
1.3545e-13
1.34866e-13
1.34262e-13
1.3369e-13
1.33092e-13
1.32521e-13
1.31927e-13
1.31364e-13
1.30768e-13
1.30208e-13
1.29626e-13
1.29068e-13
1.28489e-13
1.2794e-13
1.27368e-13
1.26825e-13
1.26256e-13
1.25717e-13
1.25155e-13
1.24623e-13
1.24062e-13
1.23531e-13
1.22979e-13
1.22453e-13
1.21907e-13
1.2139e-13
1.20847e-13
1.20335e-13
1.19795e-13
1.19283e-13
1.1875e-13
1.18247e-13
1.17718e-13
1.17219e-13
1.16701e-13
1.16205e-13
1.1569e-13
1.15207e-13
1.147e-13
1.14221e-13
1.13723e-13
1.1325e-13
1.12759e-13
1.12297e-13
1.11812e-13
1.1136e-13
1.10881e-13
1.10433e-13
1.0997e-13
1.09532e-13
1.0906e-13
1.08621e-13
1.08155e-13
1.07724e-13
1.07263e-13
1.06822e-13
1.06355e-13
1.05906e-13
1.05425e-13
1.04957e-13
1.04457e-13
1.0397e-13
1.03445e-13
1.02931e-13
1.02379e-13
1.01828e-13
1.01236e-13
1.00645e-13
1.00016e-13
9.93876e-14
9.87168e-14
9.80519e-14
9.7353e-14
9.66606e-14
9.59397e-14
9.52344e-14
9.45023e-14
9.37987e-14
9.30848e-14
9.24129e-14
9.17373e-14
9.11111e-14
9.05061e-14
8.99614e-14
8.94406e-14
8.89868e-14
8.85709e-14
8.82137e-14
8.78828e-14
8.76073e-14
8.73379e-14
8.70986e-14
8.68337e-14
8.65605e-14
8.62048e-14
8.57737e-14
8.51916e-14
8.44523e-14
8.34622e-14
8.22182e-14
8.06154e-14
7.86387e-14
7.61749e-14
7.32143e-14
6.96501e-14
6.54809e-14
6.06236e-14
5.50871e-14
4.87961e-14
4.17128e-14
3.37272e-14
2.48305e-14
1.50408e-14
4.57744e-15
-6.14391e-15
-1.73196e-14
-2.92618e-14
-4.14444e-14
-5.34444e-14
-6.46403e-14
-7.41651e-14
-8.11162e-14
-8.44535e-14
-8.38576e-14
-8.03302e-14
-7.43341e-14
-6.96422e-14
-6.02572e-14
-4.23202e-14
1.23431e-14
1.25428e-13
3.14253e-13
4.58577e-13
2.93751e-13
-3.78398e-13
-1.88366e-12
-2.51982e-12
-4.82294e-13
4.51133e-12
1.34266e-11
2.51518e-11
1.82287e-11
1.78437e-10
-1.47368e-09
7.76207e-10
-1.01379e-10
9.67154e-12
-5.75773e-12
9.77294e-13
5.91654e-13
5.17735e-12
1.66825e-13
-3.24582e-12
-1.79096e-12
-1.41102e-12
1.47696e-12
-2.51518e-12
1.8346e-12
1.65971e-12
-1.11059e-12
-1.4968e-12
2.2963e-13
-1.02372e-12
1.37735e-12
1.78399e-12
-5.08858e-13
1.14236e-12
-6.07302e-13
-1.4783e-12
1.23865e-12
-5.07444e-13
-7.22248e-13
1.54462e-12
-1.13024e-13
-1.01345e-12
9.25416e-13
-1.0857e-12
7.8072e-13
2.66043e-13
-5.7597e-13
1.0877e-12
-1.08377e-12
9.69678e-13
-7.18267e-13
-1.18004e-13
8.99212e-13
-8.03757e-13
1.04905e-12
-9.42076e-13
2.78711e-13
6.38424e-13
-1.36991e-13
-2.06731e-13
-1.41976e-13
6.77243e-13
-4.2111e-13
-1.09823e-13
6.2978e-13
-4.95538e-13
1.833e-13
5.16341e-13
-3.74615e-13
-2.59743e-14
4.19907e-13
-3.01394e-14
-2.16981e-13
7.30575e-14
2.2508e-13
4.68446e-14
-7.98757e-14
-5.28956e-14
2.19264e-13
5.31793e-14
-1.71599e-13
1.55465e-13
1.49123e-13
-1.0866e-13
4.22977e-14
1.16651e-13
1.02011e-14
1.10888e-15
4.24581e-14
4.75815e-14
2.83905e-14
1.84467e-14
3.80776e-14
2.97332e-14
2.91875e-14
2.70216e-14
2.53854e-14
3.53927e-14
1.55197e-14
3.66509e-14
1.72236e-14
2.93193e-14
2.34397e-14
2.05834e-14
2.76195e-14
1.70809e-14
2.53449e-14
1.83027e-14
2.11418e-14
1.91041e-14
1.83696e-14
1.82193e-14
1.68585e-14
1.65257e-14
1.55226e-14
1.47778e-14
1.40099e-14
1.31315e-14
1.23435e-14
1.14463e-14
1.05568e-14
9.63717e-15
8.706e-15
7.74035e-15
6.75195e-15
5.74215e-15
4.68639e-15
3.55919e-15
2.42943e-15
1.23585e-15
)
;

boundaryField
{
    inandouthalf11
    {
        type            cyclic;
        value           nonuniform List<scalar> 
300
(
7.46035e-22
-5.72494e-22
-6.1466e-23
5.23346e-23
-4.66569e-24
-7.01134e-24
2.67968e-24
-1.38687e-24
-3.46738e-24
-2.07911e-26
-2.88011e-24
-3.32923e-24
-4.11398e-24
-4.87016e-24
-1.61546e-24
-2.45499e-24
-5.02833e-24
-2.1155e-24
-2.30047e-24
6.71141e-25
-3.0186e-24
-5.94235e-24
-3.49063e-24
-3.43565e-24
-1.79907e-24
-5.4392e-24
-5.54463e-25
-3.52253e-24
-1.35169e-24
-4.58923e-24
-3.98723e-24
-3.91932e-24
-3.75917e-24
-3.27315e-24
-6.44312e-24
-3.66742e-24
-5.12264e-24
-2.67344e-24
-3.66133e-24
-3.39977e-24
-3.58455e-24
-7.08785e-24
-2.07788e-24
-1.07836e-23
-3.22411e-24
-3.22516e-24
-3.02797e-24
-4.39831e-24
-3.11202e-24
-2.10332e-24
-2.27223e-24
-3.68096e-24
5.36878e-25
-7.08939e-24
-5.00698e-24
-2.64681e-24
-3.57795e-24
-7.37676e-24
-1.95683e-24
-4.44775e-24
-3.38093e-24
-3.69224e-24
-4.10328e-24
-4.18605e-24
-4.09572e-24
-3.0673e-24
-1.77303e-24
-4.52504e-24
-4.92326e-24
-1.67267e-24
-3.13541e-24
-3.30672e-24
-4.21121e-24
-1.86425e-24
-5.08412e-24
-8.18944e-24
-4.70082e-24
-5.31852e-24
-5.47846e-24
-4.71281e-24
-9.64468e-25
-5.38812e-24
-1.29452e-24
-3.96673e-24
-6.17435e-24
-4.23642e-24
-8.24352e-24
-1.67339e-24
-4.29771e-24
-5.16077e-24
-1.8889e-24
-5.0886e-24
-5.69736e-24
-7.27517e-24
-4.47326e-24
-4.74996e-24
-2.85166e-24
-6.71004e-24
-5.76791e-24
-7.79732e-24
-7.56631e-24
-5.79421e-24
-5.80393e-24
-5.93667e-24
-6.89928e-24
-8.57469e-24
-6.83711e-24
-8.02158e-24
-7.06328e-24
-8.04767e-24
-7.11267e-24
-8.43637e-24
-4.15748e-24
-9.02921e-24
-8.81257e-24
-6.78126e-24
-2.47216e-24
-8.2527e-24
-9.96904e-24
-1.02059e-23
-1.16737e-23
-9.03347e-24
-8.29047e-24
-8.39934e-24
-8.48495e-24
-9.03493e-24
-4.94358e-24
-9.18379e-24
-1.43405e-23
-1.02664e-23
-1.38858e-23
-1.06731e-23
-5.79043e-24
-9.64773e-24
-1.0464e-23
-9.25419e-24
-1.02764e-23
-1.08109e-23
-6.47495e-24
-1.09532e-23
-1.30318e-23
-1.57504e-23
-1.32743e-23
-1.13182e-23
-1.53302e-23
-1.32088e-23
-1.58073e-23
-1.5512e-23
-1.40753e-23
-1.39705e-23
-1.9009e-23
-1.48233e-23
-1.03019e-23
-2.07617e-23
-1.75591e-23
-1.61425e-23
-1.65788e-23
-1.82617e-23
-1.77214e-23
-1.89642e-23
-2.06717e-23
-1.95803e-23
-2.1879e-23
-2.00071e-23
-2.06673e-23
-1.86603e-23
-2.29973e-23
-2.49931e-23
-2.46391e-23
-2.65584e-23
-2.61538e-23
-3.31786e-23
-2.99805e-23
-2.83159e-23
-3.27814e-23
-3.54084e-23
-3.75693e-23
-4.09293e-23
-4.66296e-23
-5.17967e-23
-5.62503e-23
-5.94539e-23
-6.56781e-23
-1.62626e-22
-4.7541e-22
4.22862e-22
-2.2048e-22
7.99699e-21
1.05367e-17
-1.90755e-17
9.72789e-16
7.73467e-13
1.16688e-09
-2.81738e-07
-6.47006e-09
-1.71377e-09
-4.72874e-10
-1.47264e-10
-8.3658e-11
-7.03438e-11
-6.31388e-11
-5.71908e-11
-5.29964e-11
-5.03173e-11
-4.83594e-11
-4.65373e-11
-4.46357e-11
-4.26644e-11
-4.07078e-11
-3.88485e-11
-3.71444e-11
-3.56293e-11
-3.43192e-11
-3.32185e-11
-3.23236e-11
-3.16257e-11
-3.11122e-11
-3.07682e-11
-3.0577e-11
-3.05215e-11
-3.0584e-11
-3.07474e-11
-3.09952e-11
-3.13119e-11
-3.16833e-11
-3.20964e-11
-3.25398e-11
-3.30036e-11
-3.34793e-11
-3.39597e-11
-3.44389e-11
-3.49122e-11
-3.53761e-11
-3.58277e-11
-3.6265e-11
-3.66868e-11
-3.70923e-11
-3.74812e-11
-3.78536e-11
-3.821e-11
-3.85509e-11
-3.8877e-11
-3.91892e-11
-3.94884e-11
-3.97756e-11
-4.00518e-11
-4.03178e-11
-4.05746e-11
-4.08231e-11
-4.1064e-11
-4.12982e-11
-4.15264e-11
-4.17491e-11
-4.19669e-11
-4.21805e-11
-4.23901e-11
-4.25963e-11
-4.27994e-11
-4.29996e-11
-4.31973e-11
-4.33927e-11
-4.35859e-11
-4.37771e-11
-4.39665e-11
-4.41541e-11
-4.434e-11
-4.45244e-11
-4.47071e-11
-4.48882e-11
-4.50679e-11
-4.5246e-11
-4.54225e-11
-4.55975e-11
-4.5771e-11
-4.59429e-11
-4.61132e-11
-4.62818e-11
-4.64488e-11
-4.66141e-11
-4.67777e-11
-4.69396e-11
-4.70997e-11
-4.72579e-11
-4.74143e-11
-4.75689e-11
-4.77215e-11
-4.78723e-11
-4.8021e-11
-4.81678e-11
-4.83125e-11
-4.84552e-11
-4.85958e-11
-4.87343e-11
-4.88706e-11
-4.90048e-11
-4.91368e-11
-4.92666e-11
-4.93941e-11
-4.95194e-11
-4.96424e-11
)
;
    }
    inandouthalf12
    {
        type            cyclic;
        value           nonuniform List<scalar> 
300
(
-7.46035e-22
5.72494e-22
6.1466e-23
-5.23346e-23
3.51089e-24
8.25413e-24
-4.01386e-24
1.38687e-24
4.01703e-24
2.07911e-26
4.14239e-24
3.32923e-24
4.41814e-24
4.87016e-24
1.61546e-24
2.45499e-24
5.02833e-24
2.59974e-24
2.30047e-24
-6.71141e-25
3.0186e-24
4.22608e-24
3.49063e-24
3.43565e-24
1.79907e-24
5.2255e-24
5.54463e-25
3.52253e-24
1.35169e-24
4.58923e-24
3.98723e-24
3.91932e-24
3.75917e-24
3.27315e-24
6.44312e-24
3.06246e-24
5.12264e-24
2.67344e-24
3.66133e-24
3.39977e-24
3.58455e-24
7.08785e-24
2.14647e-24
1.07836e-23
3.22411e-24
3.22516e-24
3.02797e-24
4.39831e-24
3.11202e-24
2.10332e-24
2.25351e-24
3.68096e-24
-5.36878e-25
7.08939e-24
5.00698e-24
2.64681e-24
3.57795e-24
7.37676e-24
1.95683e-24
4.44775e-24
3.38093e-24
3.69224e-24
4.10328e-24
4.18605e-24
4.09572e-24
3.0673e-24
1.77303e-24
4.52504e-24
4.92326e-24
1.67267e-24
3.13541e-24
3.30672e-24
4.21121e-24
1.86425e-24
5.08412e-24
8.18944e-24
4.70082e-24
5.31852e-24
5.47846e-24
4.71281e-24
9.64468e-25
5.38812e-24
1.29452e-24
3.96673e-24
6.17435e-24
4.23642e-24
8.24352e-24
1.67339e-24
4.29771e-24
5.16077e-24
1.8889e-24
5.0886e-24
5.69736e-24
7.27517e-24
4.47326e-24
4.74996e-24
2.85166e-24
6.71004e-24
5.76791e-24
7.79732e-24
7.56631e-24
5.79421e-24
5.80393e-24
5.93667e-24
6.89928e-24
8.57469e-24
6.83711e-24
8.02158e-24
7.06328e-24
8.04767e-24
7.11267e-24
8.43637e-24
4.15748e-24
9.02921e-24
8.81257e-24
6.78126e-24
2.47216e-24
8.2527e-24
9.96904e-24
1.02059e-23
1.16737e-23
9.03347e-24
8.29047e-24
8.39934e-24
8.48495e-24
9.03493e-24
4.94358e-24
9.18379e-24
1.43405e-23
1.02664e-23
1.38858e-23
1.06731e-23
5.79043e-24
9.64773e-24
1.0464e-23
9.25419e-24
1.02764e-23
1.08109e-23
6.47495e-24
1.09532e-23
1.30318e-23
1.57504e-23
1.32743e-23
1.13182e-23
1.53302e-23
1.32088e-23
1.58073e-23
1.5512e-23
1.40753e-23
1.39705e-23
1.9009e-23
1.48233e-23
1.03019e-23
2.07617e-23
1.75591e-23
1.61425e-23
1.65788e-23
1.82617e-23
1.77214e-23
1.89642e-23
2.06717e-23
1.95803e-23
2.1879e-23
2.00071e-23
2.06673e-23
1.86603e-23
2.29973e-23
2.49931e-23
2.46391e-23
2.65584e-23
2.61538e-23
3.31786e-23
2.99805e-23
2.83159e-23
3.27814e-23
3.54084e-23
3.75693e-23
4.09293e-23
4.66296e-23
5.17967e-23
5.62503e-23
5.94539e-23
6.56781e-23
1.62626e-22
4.7541e-22
-4.22862e-22
2.2048e-22
-7.99699e-21
-1.05367e-17
1.90755e-17
-9.72789e-16
-7.73467e-13
-1.16688e-09
2.81738e-07
6.47006e-09
1.71377e-09
4.72874e-10
1.47264e-10
8.3658e-11
7.03438e-11
6.31388e-11
5.71908e-11
5.29964e-11
5.03173e-11
4.83594e-11
4.65373e-11
4.46357e-11
4.26644e-11
4.07078e-11
3.88485e-11
3.71444e-11
3.56293e-11
3.43192e-11
3.32185e-11
3.23236e-11
3.16257e-11
3.11122e-11
3.07682e-11
3.0577e-11
3.05215e-11
3.0584e-11
3.07474e-11
3.09952e-11
3.13119e-11
3.16833e-11
3.20964e-11
3.25398e-11
3.30036e-11
3.34793e-11
3.39597e-11
3.44389e-11
3.49122e-11
3.53761e-11
3.58277e-11
3.6265e-11
3.66868e-11
3.70923e-11
3.74812e-11
3.78536e-11
3.821e-11
3.85509e-11
3.8877e-11
3.91892e-11
3.94884e-11
3.97756e-11
4.00518e-11
4.03178e-11
4.05746e-11
4.08231e-11
4.1064e-11
4.12982e-11
4.15264e-11
4.17491e-11
4.19669e-11
4.21805e-11
4.23901e-11
4.25963e-11
4.27994e-11
4.29996e-11
4.31973e-11
4.33927e-11
4.35859e-11
4.37771e-11
4.39665e-11
4.41541e-11
4.434e-11
4.45244e-11
4.47071e-11
4.48882e-11
4.50679e-11
4.5246e-11
4.54225e-11
4.55975e-11
4.5771e-11
4.59429e-11
4.61132e-11
4.62818e-11
4.64488e-11
4.66141e-11
4.67777e-11
4.69396e-11
4.70997e-11
4.72579e-11
4.74143e-11
4.75689e-11
4.77215e-11
4.78723e-11
4.8021e-11
4.81678e-11
4.83125e-11
4.84552e-11
4.85958e-11
4.87343e-11
4.88706e-11
4.90048e-11
4.91368e-11
4.92666e-11
4.93941e-11
4.95194e-11
4.96424e-11
)
;
    }
    inandouthalf21
    {
        type            cyclic;
        value           nonuniform List<scalar> 
300
(
-4.9763e-11
-4.98813e-11
-4.99973e-11
-5.01108e-11
-5.02219e-11
-5.03306e-11
-5.04367e-11
-5.05404e-11
-5.06416e-11
-5.07402e-11
-5.08363e-11
-5.09298e-11
-5.10207e-11
-5.1109e-11
-5.11947e-11
-5.12778e-11
-5.13582e-11
-5.1436e-11
-5.15112e-11
-5.15837e-11
-5.16536e-11
-5.17209e-11
-5.17856e-11
-5.18477e-11
-5.19072e-11
-5.19642e-11
-5.20186e-11
-5.20706e-11
-5.21201e-11
-5.21671e-11
-5.22118e-11
-5.22541e-11
-5.22942e-11
-5.23319e-11
-5.23675e-11
-5.24009e-11
-5.24322e-11
-5.24615e-11
-5.24888e-11
-5.25141e-11
-5.25375e-11
-5.25592e-11
-5.2579e-11
-5.25972e-11
-5.26137e-11
-5.26286e-11
-5.26419e-11
-5.26538e-11
-5.26642e-11
-5.26733e-11
-5.2681e-11
-5.26874e-11
-5.26925e-11
-5.26965e-11
-5.26992e-11
-5.27009e-11
-5.27014e-11
-5.27009e-11
-5.26994e-11
-5.26969e-11
-5.26934e-11
-5.2689e-11
-5.26837e-11
-5.26775e-11
-5.26704e-11
-5.26625e-11
-5.26538e-11
-5.26442e-11
-5.26339e-11
-5.26228e-11
-5.2611e-11
-5.25984e-11
-5.25851e-11
-5.25711e-11
-5.25564e-11
-5.25409e-11
-5.25248e-11
-5.25081e-11
-5.24906e-11
-5.24725e-11
-5.24537e-11
-5.24343e-11
-5.24143e-11
-5.23936e-11
-5.23724e-11
-5.23505e-11
-5.23279e-11
-5.23048e-11
-5.22811e-11
-5.22568e-11
-5.22319e-11
-5.22064e-11
-5.21804e-11
-5.21537e-11
-5.21265e-11
-5.20988e-11
-5.20705e-11
-5.20416e-11
-5.20122e-11
-5.19823e-11
-5.19518e-11
-5.19208e-11
-5.18892e-11
-5.18572e-11
-5.18246e-11
-5.17916e-11
-5.1758e-11
-5.17239e-11
-5.16893e-11
-5.16543e-11
-5.16187e-11
-5.15827e-11
-5.15462e-11
-5.15092e-11
-5.14718e-11
-5.14339e-11
-5.13955e-11
-5.13567e-11
-5.13174e-11
-5.12777e-11
-5.12375e-11
-5.11969e-11
-5.11558e-11
-5.11143e-11
-5.10723e-11
-5.10299e-11
-5.0987e-11
-5.09437e-11
-5.08999e-11
-5.08556e-11
-5.08109e-11
-5.07658e-11
-5.07201e-11
-5.0674e-11
-5.06274e-11
-5.05804e-11
-5.05328e-11
-5.04847e-11
-5.04362e-11
-5.03871e-11
-5.03376e-11
-5.02875e-11
-5.02369e-11
-5.01858e-11
-5.01342e-11
-5.00821e-11
-5.00295e-11
-4.99765e-11
-4.9923e-11
-4.9869e-11
-4.98147e-11
-4.97599e-11
-4.97049e-11
-4.96495e-11
-4.95939e-11
-4.9538e-11
-4.94819e-11
-4.94255e-11
-4.9369e-11
-4.9312e-11
-4.92548e-11
-4.91963e-11
-4.91372e-11
-4.90737e-11
-4.90068e-11
-4.89323e-11
-4.88469e-11
-4.87808e-11
-4.86949e-11
-4.87243e-11
-4.87615e-11
-4.86529e-11
-4.88006e-11
-4.76913e-11
-4.68556e-11
-4.76069e-11
-4.71212e-11
-5.46031e-11
-5.39217e-11
-4.60452e-11
-9.18478e-12
-3.89316e-11
-4.91464e-11
-4.97323e-11
-4.80947e-11
-4.75774e-11
-4.76116e-11
-4.78766e-11
-4.79903e-11
-4.79768e-11
-4.79212e-11
-4.78608e-11
-4.78104e-11
-4.77679e-11
-4.77286e-11
-4.76866e-11
-4.7641e-11
-4.75933e-11
-4.75439e-11
-4.74949e-11
-4.74464e-11
-4.73968e-11
-4.73466e-11
-4.72947e-11
-4.72406e-11
-4.71865e-11
-4.71318e-11
-4.70762e-11
-4.70209e-11
-4.69644e-11
-4.69062e-11
-4.68474e-11
-4.67872e-11
-4.67265e-11
-4.66655e-11
-4.66034e-11
-4.65408e-11
-4.64768e-11
-4.6412e-11
-4.63464e-11
-4.62797e-11
-4.62127e-11
-4.61444e-11
-4.60754e-11
-4.60052e-11
-4.59342e-11
-4.58627e-11
-4.57897e-11
-4.57156e-11
-4.56409e-11
-4.55653e-11
-4.54883e-11
-4.54103e-11
-4.53316e-11
-4.52513e-11
-4.51701e-11
-4.5088e-11
-4.50041e-11
-4.49192e-11
-4.48335e-11
-4.47461e-11
-4.46571e-11
-4.45671e-11
-4.44758e-11
-4.43829e-11
-4.42883e-11
-4.41923e-11
-4.40949e-11
-4.39956e-11
-4.38945e-11
-4.37919e-11
-4.36874e-11
-4.35807e-11
-4.34722e-11
-4.33617e-11
-4.32489e-11
-4.31338e-11
-4.30165e-11
-4.28966e-11
-4.27742e-11
-4.26491e-11
-4.25211e-11
-4.23902e-11
-4.22561e-11
-4.21188e-11
-4.1978e-11
-4.18335e-11
-4.16851e-11
-4.15327e-11
-4.13758e-11
-4.12143e-11
-4.10478e-11
-4.08761e-11
-4.06986e-11
-4.05151e-11
-4.0325e-11
-4.01278e-11
-3.99228e-11
-3.97095e-11
-3.94871e-11
-3.92547e-11
-3.90112e-11
-3.87555e-11
-3.84863e-11
-3.82018e-11
-3.79003e-11
-3.75792e-11
-3.72359e-11
-3.68669e-11
-3.64676e-11
-3.60326e-11
-3.55543e-11
-3.5023e-11
-3.44245e-11
-3.37388e-11
-3.29347e-11
-3.19604e-11
-3.07188e-11
-2.89829e-11
-2.51586e-11
)
;
    }
    inandouthalf22
    {
        type            cyclic;
        value           nonuniform List<scalar> 
300
(
4.9763e-11
4.98813e-11
4.99973e-11
5.01108e-11
5.02219e-11
5.03306e-11
5.04367e-11
5.05404e-11
5.06416e-11
5.07402e-11
5.08363e-11
5.09298e-11
5.10207e-11
5.1109e-11
5.11947e-11
5.12778e-11
5.13582e-11
5.1436e-11
5.15112e-11
5.15837e-11
5.16536e-11
5.17209e-11
5.17856e-11
5.18477e-11
5.19072e-11
5.19642e-11
5.20186e-11
5.20706e-11
5.21201e-11
5.21671e-11
5.22118e-11
5.22541e-11
5.22942e-11
5.23319e-11
5.23675e-11
5.24009e-11
5.24322e-11
5.24615e-11
5.24888e-11
5.25141e-11
5.25375e-11
5.25592e-11
5.2579e-11
5.25972e-11
5.26137e-11
5.26286e-11
5.26419e-11
5.26538e-11
5.26642e-11
5.26733e-11
5.2681e-11
5.26874e-11
5.26925e-11
5.26965e-11
5.26992e-11
5.27009e-11
5.27014e-11
5.27009e-11
5.26994e-11
5.26969e-11
5.26934e-11
5.2689e-11
5.26837e-11
5.26775e-11
5.26704e-11
5.26625e-11
5.26538e-11
5.26442e-11
5.26339e-11
5.26228e-11
5.2611e-11
5.25984e-11
5.25851e-11
5.25711e-11
5.25564e-11
5.25409e-11
5.25248e-11
5.25081e-11
5.24906e-11
5.24725e-11
5.24537e-11
5.24343e-11
5.24143e-11
5.23936e-11
5.23724e-11
5.23505e-11
5.23279e-11
5.23048e-11
5.22811e-11
5.22568e-11
5.22319e-11
5.22064e-11
5.21804e-11
5.21537e-11
5.21265e-11
5.20988e-11
5.20705e-11
5.20416e-11
5.20122e-11
5.19823e-11
5.19518e-11
5.19208e-11
5.18892e-11
5.18572e-11
5.18246e-11
5.17916e-11
5.1758e-11
5.17239e-11
5.16893e-11
5.16543e-11
5.16187e-11
5.15827e-11
5.15462e-11
5.15092e-11
5.14718e-11
5.14339e-11
5.13955e-11
5.13567e-11
5.13174e-11
5.12777e-11
5.12375e-11
5.11969e-11
5.11558e-11
5.11143e-11
5.10723e-11
5.10299e-11
5.0987e-11
5.09437e-11
5.08999e-11
5.08556e-11
5.08109e-11
5.07658e-11
5.07201e-11
5.0674e-11
5.06274e-11
5.05804e-11
5.05328e-11
5.04847e-11
5.04362e-11
5.03871e-11
5.03376e-11
5.02875e-11
5.02369e-11
5.01858e-11
5.01342e-11
5.00821e-11
5.00295e-11
4.99765e-11
4.9923e-11
4.9869e-11
4.98147e-11
4.97599e-11
4.97049e-11
4.96495e-11
4.95939e-11
4.9538e-11
4.94819e-11
4.94255e-11
4.9369e-11
4.9312e-11
4.92548e-11
4.91963e-11
4.91372e-11
4.90737e-11
4.90068e-11
4.89323e-11
4.88469e-11
4.87808e-11
4.86949e-11
4.87243e-11
4.87615e-11
4.86529e-11
4.88006e-11
4.76913e-11
4.68556e-11
4.76069e-11
4.71212e-11
5.46031e-11
5.39217e-11
4.60452e-11
9.18478e-12
3.89316e-11
4.91464e-11
4.97323e-11
4.80947e-11
4.75774e-11
4.76116e-11
4.78766e-11
4.79903e-11
4.79768e-11
4.79212e-11
4.78608e-11
4.78104e-11
4.77679e-11
4.77286e-11
4.76866e-11
4.7641e-11
4.75933e-11
4.75439e-11
4.74949e-11
4.74464e-11
4.73968e-11
4.73466e-11
4.72947e-11
4.72406e-11
4.71865e-11
4.71318e-11
4.70762e-11
4.70209e-11
4.69644e-11
4.69062e-11
4.68474e-11
4.67872e-11
4.67265e-11
4.66655e-11
4.66034e-11
4.65408e-11
4.64768e-11
4.6412e-11
4.63464e-11
4.62797e-11
4.62127e-11
4.61444e-11
4.60754e-11
4.60052e-11
4.59342e-11
4.58627e-11
4.57897e-11
4.57156e-11
4.56409e-11
4.55653e-11
4.54883e-11
4.54103e-11
4.53316e-11
4.52513e-11
4.51701e-11
4.5088e-11
4.50041e-11
4.49192e-11
4.48335e-11
4.47461e-11
4.46571e-11
4.45671e-11
4.44758e-11
4.43829e-11
4.42883e-11
4.41923e-11
4.40949e-11
4.39956e-11
4.38945e-11
4.37919e-11
4.36874e-11
4.35807e-11
4.34722e-11
4.33617e-11
4.32489e-11
4.31338e-11
4.30165e-11
4.28966e-11
4.27742e-11
4.26491e-11
4.25211e-11
4.23902e-11
4.22561e-11
4.21188e-11
4.1978e-11
4.18335e-11
4.16851e-11
4.15327e-11
4.13758e-11
4.12143e-11
4.10478e-11
4.08761e-11
4.06986e-11
4.05151e-11
4.0325e-11
4.01278e-11
3.99228e-11
3.97095e-11
3.94871e-11
3.92547e-11
3.90112e-11
3.87555e-11
3.84863e-11
3.82018e-11
3.79003e-11
3.75792e-11
3.72359e-11
3.68669e-11
3.64676e-11
3.60326e-11
3.55543e-11
3.5023e-11
3.44245e-11
3.37388e-11
3.29347e-11
3.19604e-11
3.07188e-11
2.89829e-11
2.51586e-11
)
;
    }
    top
    {
        type            calculated;
        value           uniform 0;
    }
    walls
    {
        type            calculated;
        value           uniform 0;
    }
    frontAndBackPlanes
    {
        type            empty;
        value           nonuniform 0();
    }
}


// ************************************************************************* //
