/*--------------------------------*- C++ -*----------------------------------*\
| =========                 |                                                 |
| \\      /  F ield         | OpenFOAM: The Open Source CFD Toolbox           |
|  \\    /   O peration     | Version:  2.1.1                                 |
|   \\  /    A nd           | Web:      www.OpenFOAM.org                      |
|    \\/     M anipulation  |                                                 |
\*---------------------------------------------------------------------------*/
FoamFile
{
    version     2.0;
    format      ascii;
    class       volVectorField;
    location    "100";
    object      ddt0(Ua);
}
// * * * * * * * * * * * * * * * * * * * * * * * * * * * * * * * * * * * * * //

dimensions      [0 1 -2 0 0 0 0];

internalField   nonuniform List<vector> 
600
(
(1.38256e-36 5.55729e-37 0)
(-7.90615e-25 6.14172e-24 0)
(-1.42598e-24 9.21105e-24 0)
(-2.00665e-24 1.23892e-23 0)
(-2.64863e-24 1.60672e-23 0)
(-3.3032e-24 1.97049e-23 0)
(-3.95268e-24 2.32841e-23 0)
(-4.60537e-24 2.68856e-23 0)
(-5.26317e-24 3.05054e-23 0)
(-5.92484e-24 3.41335e-23 0)
(-6.59023e-24 3.77714e-23 0)
(-7.25955e-24 4.14198e-23 0)
(-7.93309e-24 4.50815e-23 0)
(-8.61089e-24 4.87562e-23 0)
(-9.29295e-24 5.24433e-23 0)
(-9.9795e-24 5.61452e-23 0)
(-1.06706e-23 5.98618e-23 0)
(-1.13665e-23 6.35938e-23 0)
(-1.20677e-23 6.73452e-23 0)
(-1.27746e-23 7.11189e-23 0)
(-1.3487e-23 7.49114e-23 0)
(-1.42048e-23 7.87237e-23 0)
(-1.49279e-23 8.25562e-23 0)
(-1.56557e-23 8.6404e-23 0)
(-1.63882e-23 9.02675e-23 0)
(-1.71254e-23 9.41478e-23 0)
(-1.78667e-23 9.80415e-23 0)
(-1.86113e-23 1.01944e-22 0)
(-1.9359e-23 1.05853e-22 0)
(-2.01099e-23 1.09772e-22 0)
(-2.08645e-23 1.13702e-22 0)
(-2.16227e-23 1.17643e-22 0)
(-2.23841e-23 1.21593e-22 0)
(-2.31487e-23 1.25553e-22 0)
(-2.39161e-23 1.29519e-22 0)
(-2.46862e-23 1.33492e-22 0)
(-2.54597e-23 1.37475e-22 0)
(-2.6237e-23 1.41472e-22 0)
(-2.70182e-23 1.45482e-22 0)
(-2.78029e-23 1.49503e-22 0)
(-2.85911e-23 1.53536e-22 0)
(-2.93828e-23 1.5758e-22 0)
(-3.01777e-23 1.61634e-22 0)
(-3.09753e-23 1.65697e-22 0)
(-3.17755e-23 1.69765e-22 0)
(-3.25786e-23 1.73843e-22 0)
(-3.33848e-23 1.77931e-22 0)
(-3.41942e-23 1.8203e-22 0)
(-3.50065e-23 1.86138e-22 0)
(-3.58221e-23 1.90257e-22 0)
(-3.6641e-23 1.94389e-22 0)
(-3.74629e-23 1.9853e-22 0)
(-3.82871e-23 2.02677e-22 0)
(-3.91132e-23 2.0683e-22 0)
(-3.99412e-23 2.10986e-22 0)
(-4.07713e-23 2.15149e-22 0)
(-4.16037e-23 2.1932e-22 0)
(-4.24382e-23 2.23496e-22 0)
(-4.32744e-23 2.27676e-22 0)
(-4.41125e-23 2.31862e-22 0)
(-4.49532e-23 2.36056e-22 0)
(-4.57965e-23 2.4026e-22 0)
(-4.66427e-23 2.44475e-22 0)
(-4.7492e-23 2.48701e-22 0)
(-4.83447e-23 2.52941e-22 0)
(-4.92011e-23 2.57196e-22 0)
(-5.00605e-23 2.61462e-22 0)
(-5.09222e-23 2.65737e-22 0)
(-5.17848e-23 2.70014e-22 0)
(-5.26474e-23 2.74286e-22 0)
(-5.35101e-23 2.78554e-22 0)
(-5.43738e-23 2.82825e-22 0)
(-5.52395e-23 2.87103e-22 0)
(-5.61079e-23 2.91392e-22 0)
(-5.69789e-23 2.95691e-22 0)
(-5.7852e-23 3e-22 0)
(-5.87268e-23 3.04313e-22 0)
(-5.96027e-23 3.08629e-22 0)
(-6.04795e-23 3.12947e-22 0)
(-6.13565e-23 3.17264e-22 0)
(-6.22337e-23 3.21579e-22 0)
(-6.31111e-23 3.25893e-22 0)
(-6.39887e-23 3.30207e-22 0)
(-6.48663e-23 3.34517e-22 0)
(-6.57437e-23 3.38825e-22 0)
(-6.66215e-23 3.43133e-22 0)
(-6.75e-23 3.47444e-22 0)
(-6.83792e-23 3.51756e-22 0)
(-6.92586e-23 3.56068e-22 0)
(-7.01382e-23 3.60378e-22 0)
(-7.10183e-23 3.64689e-22 0)
(-7.18993e-23 3.69004e-22 0)
(-7.27816e-23 3.73323e-22 0)
(-7.36649e-23 3.77647e-22 0)
(-7.45488e-23 3.81973e-22 0)
(-7.54319e-23 3.86292e-22 0)
(-7.63136e-23 3.90603e-22 0)
(-7.71938e-23 3.94905e-22 0)
(-7.80731e-23 3.992e-22 0)
(-7.89527e-23 4.03496e-22 0)
(-7.98329e-23 4.07795e-22 0)
(-8.07132e-23 4.12093e-22 0)
(-8.15938e-23 4.16389e-22 0)
(-8.24749e-23 4.20689e-22 0)
(-8.33567e-23 4.2499e-22 0)
(-8.42386e-23 4.29289e-22 0)
(-8.51207e-23 4.33588e-22 0)
(-8.60029e-23 4.37886e-22 0)
(-8.68852e-23 4.42182e-22 0)
(-8.77673e-23 4.46476e-22 0)
(-8.86484e-23 4.50763e-22 0)
(-8.95283e-23 4.55041e-22 0)
(-9.04078e-23 4.59315e-22 0)
(-9.1288e-23 4.63591e-22 0)
(-9.21693e-23 4.6787e-22 0)
(-9.30515e-23 4.72151e-22 0)
(-9.39346e-23 4.76432e-22 0)
(-9.48191e-23 4.80718e-22 0)
(-9.5705e-23 4.85008e-22 0)
(-9.65917e-23 4.89297e-22 0)
(-9.74792e-23 4.93586e-22 0)
(-9.83678e-23 4.97877e-22 0)
(-9.92579e-23 5.02169e-22 0)
(-1.0015e-22 5.06465e-22 0)
(-1.01044e-22 5.10768e-22 0)
(-1.0194e-22 5.15074e-22 0)
(-1.02838e-22 5.19384e-22 0)
(-1.03738e-22 5.23697e-22 0)
(-1.0464e-22 5.28012e-22 0)
(-1.05545e-22 5.32328e-22 0)
(-1.06452e-22 5.36652e-22 0)
(-1.07363e-22 5.40983e-22 0)
(-1.08275e-22 5.45314e-22 0)
(-1.0919e-22 5.49643e-22 0)
(-1.10106e-22 5.53968e-22 0)
(-1.11025e-22 5.58295e-22 0)
(-1.11947e-22 5.62626e-22 0)
(-1.12873e-22 5.6696e-22 0)
(-1.13802e-22 5.71296e-22 0)
(-1.14735e-22 5.75635e-22 0)
(-1.15671e-22 5.79973e-22 0)
(-1.1661e-22 5.84306e-22 0)
(-1.1755e-22 5.88629e-22 0)
(-1.18493e-22 5.92941e-22 0)
(-1.19438e-22 5.97247e-22 0)
(-1.20387e-22 6.01548e-22 0)
(-1.2134e-22 6.05844e-22 0)
(-1.22297e-22 6.10134e-22 0)
(-1.23257e-22 6.14416e-22 0)
(-1.24221e-22 6.18683e-22 0)
(-1.25188e-22 6.22936e-22 0)
(-1.26159e-22 6.2718e-22 0)
(-1.27136e-22 6.31416e-22 0)
(-1.28118e-22 6.35641e-22 0)
(-1.29105e-22 6.39855e-22 0)
(-1.30097e-22 6.44051e-22 0)
(-1.31094e-22 6.48226e-22 0)
(-1.32096e-22 6.5238e-22 0)
(-1.33102e-22 6.5651e-22 0)
(-1.34114e-22 6.60614e-22 0)
(-1.3513e-22 6.64688e-22 0)
(-1.36153e-22 6.68731e-22 0)
(-1.37182e-22 6.72749e-22 0)
(-1.38221e-22 6.7674e-22 0)
(-1.39268e-22 6.80705e-22 0)
(-1.40327e-22 6.84643e-22 0)
(-1.41397e-22 6.8856e-22 0)
(-1.42485e-22 6.92459e-22 0)
(-1.43589e-22 6.96346e-22 0)
(-1.44719e-22 7.00227e-22 0)
(-1.45867e-22 7.04105e-22 0)
(-1.47042e-22 7.0796e-22 0)
(-1.48221e-22 7.11758e-22 0)
(-1.49408e-22 7.15427e-22 0)
(-1.50556e-22 7.1889e-22 0)
(-1.51647e-22 7.22046e-22 0)
(-1.52617e-22 7.24848e-22 0)
(-1.53404e-22 7.27251e-22 0)
(-1.53987e-22 7.29228e-22 0)
(-1.54497e-22 7.30766e-22 0)
(-1.54988e-22 7.31661e-22 0)
(-1.55886e-22 7.32064e-22 0)
(-1.56792e-22 7.31926e-22 0)
(-1.57405e-22 7.31705e-22 0)
(-1.57029e-22 7.32967e-22 0)
(-1.00562e-22 7.35051e-22 0)
(-3.20663e-24 9.05887e-22 0)
(9.68116e-23 1.03959e-21 0)
(3.57603e-23 1.02091e-21 0)
(-4.44068e-22 9.17382e-22 0)
(-9.01067e-22 -7.66796e-22 0)
(-2.8174e-21 -3.84831e-21 0)
(-1.31055e-20 -7.29015e-21 0)
(1.78662 0.905442 0)
(0.0708672 0.0684862 0)
(0.0042623 -0.00714656 0)
(0.000965263 -0.000901455 0)
(0.000305092 -8.18668e-05 0)
(0.000164972 -2.13389e-06 0)
(0.000137133 1.01689e-05 0)
(0.000125516 5.50316e-06 0)
(0.000115713 -9.76354e-06 0)
(0.000107477 -1.40945e-05 0)
(0.000101403 -8.91518e-06 0)
(9.68681e-05 -2.58007e-06 0)
(9.29381e-05 1.0464e-06 0)
(8.90823e-05 2.01316e-06 0)
(8.51867e-05 1.52638e-06 0)
(8.13374e-05 5.85882e-07 0)
(7.76659e-05 -2.73766e-07 0)
(7.42819e-05 -8.78561e-07 0)
(7.12571e-05 -1.22363e-06 0)
(6.86305e-05 -1.35992e-06 0)
(6.64169e-05 -1.34696e-06 0)
(6.46138e-05 -1.23754e-06 0)
(6.3207e-05 -1.07523e-06 0)
(6.21734e-05 -8.93961e-07 0)
(6.14837e-05 -7.17783e-07 0)
(6.11047e-05 -5.61403e-07 0)
(6.10011e-05 -4.31722e-07 0)
(6.11369e-05 -3.29944e-07 0)
(6.14764e-05 -2.53662e-07 0)
(6.19857e-05 -1.9865e-07 0)
(6.26329e-05 -1.60136e-07 0)
(6.33887e-05 -1.33564e-07 0)
(6.42268e-05 -1.15003e-07 0)
(6.51241e-05 -1.01287e-07 0)
(6.60605e-05 -9.0005e-08 0)
(6.70188e-05 -7.9406e-08 0)
(6.7985e-05 -6.83112e-08 0)
(6.89472e-05 -5.60469e-08 0)
(6.98963e-05 -4.23304e-08 0)
(7.08252e-05 -2.71251e-08 0)
(7.17285e-05 -1.05804e-08 0)
(7.26026e-05 6.99273e-09 0)
(7.34449e-05 2.51915e-08 0)
(7.42542e-05 4.35659e-08 0)
(7.50301e-05 6.16916e-08 0)
(7.57729e-05 7.92073e-08 0)
(7.64835e-05 9.5782e-08 0)
(7.71631e-05 1.11147e-07 0)
(7.78134e-05 1.25109e-07 0)
(7.8436e-05 1.37522e-07 0)
(7.90329e-05 1.48296e-07 0)
(7.9606e-05 1.57391e-07 0)
(8.01571e-05 1.64844e-07 0)
(8.06883e-05 1.70747e-07 0)
(8.12013e-05 1.75201e-07 0)
(8.16979e-05 1.78321e-07 0)
(8.21797e-05 1.80265e-07 0)
(8.26481e-05 1.81213e-07 0)
(8.31045e-05 1.81327e-07 0)
(8.35503e-05 1.8076e-07 0)
(8.39865e-05 1.79679e-07 0)
(8.44141e-05 1.78246e-07 0)
(8.48341e-05 1.7659e-07 0)
(8.52472e-05 1.74838e-07 0)
(8.56541e-05 1.73099e-07 0)
(8.60554e-05 1.71466e-07 0)
(8.64516e-05 1.70032e-07 0)
(8.68432e-05 1.68872e-07 0)
(8.72304e-05 1.68042e-07 0)
(8.76137e-05 1.67588e-07 0)
(8.79933e-05 1.67519e-07 0)
(8.83693e-05 1.67844e-07 0)
(8.87419e-05 1.6859e-07 0)
(8.91112e-05 1.69768e-07 0)
(8.94774e-05 1.71361e-07 0)
(8.98404e-05 1.73341e-07 0)
(9.02003e-05 1.7569e-07 0)
(9.05571e-05 1.78394e-07 0)
(9.09108e-05 1.81426e-07 0)
(9.12614e-05 1.84753e-07 0)
(9.16089e-05 1.8834e-07 0)
(9.19532e-05 1.9215e-07 0)
(9.22943e-05 1.96148e-07 0)
(9.26321e-05 2.00297e-07 0)
(9.29666e-05 2.04561e-07 0)
(9.32977e-05 2.08902e-07 0)
(9.36254e-05 2.13284e-07 0)
(9.39496e-05 2.17673e-07 0)
(9.42702e-05 2.22034e-07 0)
(9.45872e-05 2.26334e-07 0)
(9.49006e-05 2.30541e-07 0)
(9.52102e-05 2.34623e-07 0)
(9.5516e-05 2.38551e-07 0)
(9.5818e-05 2.423e-07 0)
(9.6116e-05 2.45843e-07 0)
(9.641e-05 2.49158e-07 0)
(9.67001e-05 2.52224e-07 0)
(9.6986e-05 2.55011e-07 0)
(9.72678e-05 2.57491e-07 0)
(9.75454e-05 2.59644e-07 0)
(9.78188e-05 2.61465e-07 0)
(9.80878e-05 2.62943e-07 0)
(9.83525e-05 2.64058e-07 0)
(9.86127e-05 2.64789e-07 0)
(9.88685e-05 2.65131e-07 0)
(9.91198e-05 2.6508e-07 0)
(9.93665e-05 2.64633e-07 0)
(9.96086e-05 2.63787e-07 0)
(9.9846e-05 2.62535e-07 0)
(0.000100079 2.60867e-07 0)
(0.000100307 2.58784e-07 0)
(0.00010053 2.56293e-07 0)
(0.000100748 2.53395e-07 0)
(0.000100961 2.50089e-07 0)
(0.000101169 2.46374e-07 0)
(0.000101373 2.42257e-07 0)
(0.000101571 2.37749e-07 0)
(0.000101764 2.32854e-07 0)
(0.000101952 2.27578e-07 0)
(0.000102135 2.2193e-07 0)
(0.000102313 2.15925e-07 0)
(0.000102485 2.09578e-07 0)
(0.000102652 2.02898e-07 0)
(0.000102814 1.95892e-07 0)
(0.000102971 1.88566e-07 0)
(0.000103123 1.80934e-07 0)
(0.000103269 1.73014e-07 0)
(0.00010341 1.64827e-07 0)
(0.000103546 1.56391e-07 0)
(0.000103677 1.47718e-07 0)
(0.000103803 1.38821e-07 0)
(0.000103923 1.29712e-07 0)
(0.000104039 1.20407e-07 0)
(0.000104149 1.10925e-07 0)
(0.000104255 1.0128e-07 0)
(0.000104356 9.14873e-08 0)
(0.000104451 8.15614e-08 0)
(0.000104543 7.15185e-08 0)
(0.000104629 6.13729e-08 0)
(0.000104711 5.11361e-08 0)
(0.000104788 4.08199e-08 0)
(0.000104861 3.04366e-08 0)
(0.00010493 1.99989e-08 0)
(0.000104994 9.51978e-09 0)
(0.000105055 -9.88588e-10 0)
(0.000105111 -1.15155e-08 0)
(0.000105164 -2.20511e-08 0)
(0.000105213 -3.25866e-08 0)
(0.000105258 -4.31146e-08 0)
(0.000105299 -5.36275e-08 0)
(0.000105338 -6.41187e-08 0)
(0.000105372 -7.45832e-08 0)
(0.000105404 -8.50171e-08 0)
(0.000105433 -9.54143e-08 0)
(0.000105458 -1.05767e-07 0)
(0.000105481 -1.16071e-07 0)
(0.000105501 -1.2632e-07 0)
(0.000105518 -1.3651e-07 0)
(0.000105533 -1.46639e-07 0)
(0.000105545 -1.56704e-07 0)
(0.000105555 -1.66704e-07 0)
(0.000105562 -1.76634e-07 0)
(0.000105567 -1.86494e-07 0)
(0.00010557 -1.96286e-07 0)
(0.000105571 -2.0601e-07 0)
(0.00010557 -2.15673e-07 0)
(0.000105567 -2.25281e-07 0)
(0.000105562 -2.34847e-07 0)
(0.000105555 -2.44384e-07 0)
(0.000105546 -2.53912e-07 0)
(0.000105536 -2.63457e-07 0)
(0.000105524 -2.73055e-07 0)
(0.00010551 -2.82741e-07 0)
(0.000105495 -2.92566e-07 0)
(0.000105478 -3.02646e-07 0)
(0.00010546 -3.12924e-07 0)
(0.00010544 -3.23595e-07 0)
(0.000105419 -3.34733e-07 0)
(0.000105397 -3.46426e-07 0)
(0.000105373 -3.58796e-07 0)
(0.000105347 -3.71978e-07 0)
(0.00010532 -3.86106e-07 0)
(0.000105292 -4.01322e-07 0)
(0.000105262 -4.17771e-07 0)
(0.00010523 -4.35597e-07 0)
(0.000105196 -4.54935e-07 0)
(0.00010516 -4.75907e-07 0)
(0.000105121 -4.98613e-07 0)
(0.00010508 -5.23125e-07 0)
(0.000105035 -5.49475e-07 0)
(0.000104987 -5.77645e-07 0)
(0.000104934 -6.07552e-07 0)
(0.000104877 -6.39039e-07 0)
(0.000104814 -6.71862e-07 0)
(0.000104744 -7.05669e-07 0)
(0.000104668 -7.39994e-07 0)
(0.000104584 -7.74241e-07 0)
(0.000104491 -8.07673e-07 0)
(0.000104389 -8.39401e-07 0)
(0.000104277 -8.68381e-07 0)
(0.000104155 -8.93403e-07 0)
(0.000104022 -9.131e-07 0)
(0.000103877 -9.25947e-07 0)
(0.000103722 -9.3028e-07 0)
(0.000103556 -9.24314e-07 0)
(0.000103381 -9.06172e-07 0)
(0.000103197 -8.73922e-07 0)
(0.000103009 -8.25628e-07 0)
(0.000102818 -7.59402e-07 0)
(0.000102629 -6.73478e-07 0)
(0.000102446 -5.66282e-07 0)
(0.000102276 -4.36516e-07 0)
(0.000102126 -2.83253e-07 0)
(0.000102005 -1.0603e-07 0)
(0.000101921 9.50566e-08 0)
(0.000101886 3.19259e-07 0)
(0.000101911 5.65087e-07 0)
(0.000102009 8.30235e-07 0)
(0.000102192 1.11152e-06 0)
(0.000102474 1.40487e-06 0)
(0.000102867 1.70528e-06 0)
(0.000103384 2.0069e-06 0)
(0.000104034 2.30305e-06 0)
(0.000104824 2.58644e-06 0)
(0.000105759 2.8493e-06 0)
(0.000106838 3.08364e-06 0)
(0.000108055 3.28164e-06 0)
(0.000109395 3.43601e-06 0)
(0.000110837 3.54049e-06 0)
(0.000112349 3.59043e-06 0)
(0.000113887 3.58342e-06 0)
(0.000115396 3.52001e-06 0)
(0.000116808 3.40449e-06 0)
(0.000118039 3.24571e-06 0)
(0.000118993 3.05792e-06 0)
(0.000119556 2.86169e-06 0)
(0.000119604 2.68472e-06 0)
(0.000118998 2.56271e-06 0)
(0.000117589 2.54008e-06 0)
(0.000115221 2.67071e-06 0)
(0.000111736 3.01849e-06 0)
(0.000106979 3.65768e-06 0)
(0.000100802 4.67342e-06 0)
(9.30804e-05 6.16134e-06 0)
(8.37138e-05 8.22749e-06 0)
(7.26462e-05 1.09864e-05 0)
(5.98737e-05 1.45586e-05 0)
(4.54673e-05 1.90663e-05 0)
(2.95798e-05 2.46277e-05 0)
(1.24796e-05 3.1353e-05 0)
(-5.44883e-06 3.93464e-05 0)
(-2.36652e-05 4.87081e-05 0)
(-4.14693e-05 5.95702e-05 0)
(-5.79814e-05 7.21266e-05 0)
(-7.20946e-05 8.65393e-05 0)
(-8.25218e-05 0.000102977 0)
(-8.76584e-05 0.000121212 0)
(-8.57258e-05 0.000140666 0)
(-7.46015e-05 0.000161255 0)
(-5.19855e-05 0.000183481 0)
(-1.53138e-05 0.000207359 0)
(3.82413e-05 0.00023193 0)
(0.000111865 0.000256262 0)
(0.000208307 0.000279043 0)
(0.000332379 0.000298035 0)
(0.00048233 0.000311845 0)
(0.000669215 0.000317193 0)
(0.000868446 0.000315806 0)
(0.00111545 0.000308968 0)
(0.00133342 0.000297421 0)
(0.00160952 0.000294694 0)
(0.00191609 0.000263879 0)
(0.00220472 0.000222138 0)
(0.00335358 3.36858e-05 0)
(0.0036717 -0.000272629 0)
(0.00652901 -0.000801268 0)
(0.00674188 -0.000940282 0)
(-0.000534421 -6.8556e-05 0)
(0.00245111 0.00209863 0)
(-0.0270437 0.00697129 0)
(-0.016267 0.00509954 0)
(0.0968566 -0.00240085 0)
(0.0482163 -0.0190914 0)
(0.219843 -0.0457783 0)
(0.146288 -0.0774065 0)
(-0.515712 -0.0949956 0)
(-0.179612 -0.115149 0)
(-5.26262 3.12087 0)
(0.00586326 -0.0978139 0)
(5.84543e-05 0.0330708 0)
(0.00011034 0.00608243 0)
(6.13163e-05 0.0033218 0)
(6.60212e-05 -0.00298594 0)
(9.37777e-05 -0.00950496 0)
(0.000130099 -0.00675544 0)
(0.000135115 0.00550793 0)
(0.000109111 0.00736463 0)
(8.51963e-05 0.00473216 0)
(7.57219e-05 0.0020342 0)
(6.41058e-05 -0.00298856 0)
(7.95792e-05 -0.00537976 0)
(0.000116517 -0.00448024 0)
(0.000118639 -0.000327285 0)
(0.000109327 0.00458773 0)
(9.64112e-05 0.00261407 0)
(7.94755e-05 0.00207938 0)
(8.44561e-05 0.00099115 0)
(8.87195e-05 -0.00465861 0)
(9.11503e-05 -0.00238248 0)
(0.000111078 7.93597e-05 0)
(0.000107188 -0.000169481 0)
(9.17389e-05 0.0038284 0)
(9.46708e-05 0.00159683 0)
(8.29182e-05 -0.00255572 0)
(8.09421e-05 0.000584807 0)
(0.000101136 -0.000875197 0)
(9.98141e-05 -0.00275836 0)
(9.7266e-05 0.00222316 0)
(0.000100606 0.000819986 0)
(8.69757e-05 7.48175e-05 0)
(8.99474e-05 0.00137103 0)
(9.00936e-05 -0.00208732 0)
(9.04674e-05 8.52349e-05 0)
(0.000100104 -0.00056215 0)
(9.22912e-05 0.000234069 0)
(9.59277e-05 0.00135302 0)
(8.95997e-05 -0.00118968 0)
(8.82581e-05 0.00109675 0)
(9.56441e-05 -0.00099923 0)
(9.01633e-05 9.5263e-05 0)
(9.58919e-05 9.16659e-05 0)
(8.86693e-05 -0.000644054 0)
(9.24199e-05 0.00187694 0)
(9.83984e-05 -0.00115134 0)
(8.53391e-05 -0.00117618 0)
(8.49873e-05 0.00104314 0)
(9.45936e-05 0.00125848 0)
(9.71741e-05 -0.00111339 0)
(8.55997e-05 -0.000869347 0)
(8.9516e-05 0.00165785 0)
(9.61796e-05 -0.000928195 0)
(8.5265e-05 -0.000449404 0)
(9.19659e-05 0.00145804 0)
(9.51935e-05 -0.00130545 0)
(8.25124e-05 -0.000334348 0)
(9.05869e-05 0.00167775 0)
(9.73891e-05 -0.000688286 0)
(8.52612e-05 -0.00119819 0)
(8.26231e-05 0.000877957 0)
(9.31714e-05 0.00084865 0)
(9.43527e-05 -0.000657062 0)
(8.60993e-05 -0.000696134 0)
(8.34566e-05 0.000351166 0)
(8.94489e-05 0.000757149 0)
(9.359e-05 -0.000286596 0)
(8.58571e-05 -0.000825826 0)
(8.29798e-05 0.000630669 0)
(9.22582e-05 0.000471125 0)
(8.93609e-05 -0.000856754 0)
(8.19208e-05 7.15893e-05 0)
(8.7988e-05 0.000617332 0)
(9.03138e-05 -0.000312464 0)
(8.47168e-05 -0.000264954 0)
(8.44263e-05 0.000230621 0)
(8.71186e-05 9.94277e-05 0)
(8.67267e-05 -0.000115033 0)
(8.48439e-05 -6.03993e-05 0)
(8.48011e-05 7.19968e-05 0)
(8.54288e-05 2.01124e-05 0)
(8.49969e-05 -4.01989e-05 0)
(8.42339e-05 -2.30645e-06 0)
(8.41704e-05 6.09468e-06 0)
(8.39732e-05 2.02311e-05 0)
(8.38692e-05 -3.2261e-05 0)
(8.30206e-05 1.54205e-05 0)
(8.32757e-05 2.47489e-06 0)
(8.26451e-05 -1.55372e-05 0)
(8.24058e-05 1.9781e-05 0)
(8.21655e-05 -2.40174e-05 0)
(8.15544e-05 2.04343e-05 0)
(8.16458e-05 -1.31303e-05 0)
(8.07369e-05 9.10155e-07 0)
(8.08427e-05 6.5586e-06 0)
(8.01212e-05 -1.11273e-05 0)
(7.98723e-05 9.27469e-06 0)
(7.93991e-05 -7.5026e-06 0)
(7.89452e-05 3.29322e-06 0)
(7.85249e-05 -1.44539e-06 0)
(7.79626e-05 -9.99664e-07 0)
(7.75455e-05 7.37747e-07 0)
(7.69184e-05 -1.37271e-06 0)
(7.64175e-05 3.49546e-07 0)
(7.57683e-05 -6.04767e-07 0)
(7.51565e-05 -3.29671e-07 0)
(7.44552e-05 -9.87518e-08 0)
(7.37214e-05 -3.61005e-07 0)
(7.29233e-05 -1.71584e-07 0)
(7.20537e-05 -2.16458e-07 0)
(7.10972e-05 -1.6568e-07 0)
(7.00347e-05 -1.57876e-07 0)
(6.88385e-05 -1.3334e-07 0)
(6.74673e-05 -1.10687e-07 0)
(6.58595e-05 -9.13931e-08 0)
(6.39118e-05 -7.04839e-08 0)
(6.14296e-05 -4.77287e-08 0)
(5.79584e-05 -3.74346e-08 0)
(1.17349e-40 -7.29371e-45 0)
)
;

boundaryField
{
    inandouthalf11
    {
        type            cyclic;
    }
    inandouthalf12
    {
        type            cyclic;
    }
    inandouthalf21
    {
        type            cyclic;
    }
    inandouthalf22
    {
        type            cyclic;
    }
    top
    {
        type            calculated;
        value           uniform (0 0 0);
    }
    walls
    {
        type            calculated;
        value           uniform (0 0 0);
    }
    frontAndBackPlanes
    {
        type            empty;
    }
}


// ************************************************************************* //
