/*--------------------------------*- C++ -*----------------------------------*\
| =========                 |                                                 |
| \\      /  F ield         | OpenFOAM: The Open Source CFD Toolbox           |
|  \\    /   O peration     | Version:  2.1.1                                 |
|   \\  /    A nd           | Web:      www.OpenFOAM.org                      |
|    \\/     M anipulation  |                                                 |
\*---------------------------------------------------------------------------*/
FoamFile
{
    version     2.0;
    format      ascii;
    class       volScalarField;
    location    "100";
    object      ddt0(((1.5*max(alpha,DiluteCut))*rho),Theta);
}
// * * * * * * * * * * * * * * * * * * * * * * * * * * * * * * * * * * * * * //

dimensions      [1 -1 -3 0 0 0 0];

internalField   nonuniform List<scalar> 
600
(
1.68349e-13
1.70036e-13
2.51515e-12
1.13434e-12
6.56839e-13
3.37304e-13
6.83382e-14
-5.09219e-15
5.81854e-14
-1.31682e-13
5.92231e-15
1.69648e-13
5.96849e-14
1.69613e-13
-1.78287e-14
6.02274e-14
-1.19155e-13
-5.57764e-14
1.69523e-13
-3.21648e-14
-2.40182e-13
4.04516e-14
-1.0251e-13
-1.93614e-14
1.69409e-13
1.6939e-13
-1.32596e-13
-3.35845e-14
-2.42098e-13
1.69309e-13
5.32777e-14
1.69268e-13
1.69247e-13
-1.11781e-13
-9.84463e-14
3.83434e-14
-1.23581e-13
-1.24887e-13
1.69117e-13
-2.01757e-13
-1.90283e-13
1.69049e-13
-1.30848e-13
1.69002e-13
-1.3048e-13
-3.53855e-14
1.6893e-13
-1.17475e-13
1.68882e-13
1.68857e-13
-2.35699e-13
1.68807e-13
-1.17518e-13
-2.20823e-13
-2.07769e-13
-3.56253e-14
1.68677e-13
3.7757e-14
1.68623e-13
-1.35781e-13
1.68568e-13
-2.4769e-13
-1.14532e-13
-1.10178e-13
-1.27974e-13
3.63193e-14
3.599e-14
-1.20737e-13
4.24957e-14
-2.17573e-13
-2.4852e-13
-1.28165e-13
1.68216e-13
1.68185e-13
1.68153e-13
1.68121e-13
-1.22073e-13
-1.40548e-13
1.68024e-13
1.6799e-13
-1.93136e-13
1.67923e-13
-2.15276e-14
1.67845e-13
4.63928e-14
-1.16702e-13
-1.55372e-14
-2.2631e-13
-2.44585e-13
-1.11938e-14
-2.60775e-14
-3.10853e-14
-1.20026e-13
-1.05617e-14
1.67446e-13
1.67406e-13
1.67366e-13
-1.93816e-13
-2.3758e-13
3.92056e-14
1.67201e-13
1.67159e-13
-2.99898e-14
-1.29463e-13
1.67028e-13
1.66985e-13
1.66939e-13
-2.29277e-14
1.66847e-13
4.13997e-14
1.66754e-13
1.66706e-13
1.66657e-13
1.66607e-13
-2.94969e-14
1.66507e-13
1.66457e-13
-1.24988e-13
-2.37305e-13
-2.16254e-14
1.66245e-13
1.66191e-13
-1.91245e-13
-1.89235e-14
-2.44756e-14
1.65965e-13
-1.91396e-13
1.65846e-13
1.65786e-13
-8.54988e-14
-1.93413e-13
1.656e-13
1.65536e-13
1.65471e-13
1.65405e-13
1.37774e-13
8.26535e-14
-2.0894e-13
-2.46058e-13
-7.4206e-14
-2.33258e-13
-2.43712e-13
1.64836e-13
-7.202e-14
1.6468e-13
-4.78408e-14
-8.19393e-14
1.64435e-13
1.6435e-13
1.64264e-13
1.79739e-14
-5.82828e-14
-1.14439e-13
1.59288e-13
1.63801e-13
1.63703e-13
1.63602e-13
6.61159e-14
-8.68002e-14
8.96311e-14
6.02e-14
-7.90574e-14
1.62936e-13
1.25555e-13
-1.72822e-13
-1.47865e-13
1.62426e-13
-7.47817e-14
-7.58591e-14
-8.92072e-14
1.15104e-13
-2.43378e-12
5.80093e-13
1.26788e-11
-6.98282e-12
-5.46193e-11
2.86183e-10
-8.96844e-10
2.39664e-09
-1.42403e-08
-2.20461e-08
6.88176e-09
-5.5013e-07
2.85942e-07
-1.71878e-05
-7.88813e-05
0.000477304
0.00339438
0.0281905
-0.181011
3.12327
57.2137
722.845
184.596
7.52692
-0.114718
-0.0422095
-0.0112476
-0.0039328
-0.00140438
-0.000590235
-0.000297704
-0.000229405
-0.000222728
-0.000217096
-0.000203019
-0.000181799
-0.000155948
-0.000127651
-9.85648e-05
-7.01121e-05
-4.33688e-05
-1.90198e-05
2.57279e-06
2.12741e-05
3.70891e-05
5.0108e-05
6.04766e-05
6.83901e-05
7.40765e-05
7.77858e-05
7.97829e-05
8.03356e-05
7.96976e-05
7.81083e-05
7.57849e-05
7.29193e-05
6.96793e-05
6.62031e-05
6.26064e-05
5.89826e-05
5.54059e-05
5.19304e-05
4.85963e-05
4.54313e-05
4.24526e-05
3.96697e-05
3.70848e-05
3.46946e-05
3.24933e-05
3.04717e-05
2.86189e-05
2.69232e-05
2.53726e-05
2.39549e-05
2.26579e-05
2.147e-05
2.03803e-05
1.9379e-05
1.84566e-05
1.76044e-05
1.68149e-05
1.60812e-05
1.5397e-05
1.47569e-05
1.41561e-05
1.35901e-05
1.30555e-05
1.2549e-05
1.20676e-05
1.16089e-05
1.11708e-05
1.07515e-05
1.03494e-05
9.96321e-06
9.59172e-06
9.23389e-06
8.88889e-06
8.55604e-06
8.23464e-06
7.92411e-06
7.624e-06
7.33385e-06
7.05331e-06
6.78202e-06
6.51969e-06
6.26604e-06
6.0208e-06
5.78375e-06
5.55466e-06
5.33333e-06
5.11954e-06
4.91311e-06
4.71386e-06
4.5216e-06
4.33616e-06
4.15736e-06
3.98504e-06
3.81902e-06
3.65913e-06
3.50523e-06
3.35715e-06
3.21474e-06
3.07783e-06
2.94626e-06
2.8199e-06
2.6986e-06
2.58219e-06
2.47055e-06
2.36351e-06
2.26095e-06
2.16272e-06
2.0687e-06
1.97874e-06
1.89271e-06
1.81049e-06
1.73194e-06
1.65696e-06
1.5854e-06
1.51716e-06
1.45211e-06
1.39014e-06
1.33114e-06
1.275e-06
1.2216e-06
1.17085e-06
1.12263e-06
1.07686e-06
1.03343e-06
9.92243e-07
9.53204e-07
9.16222e-07
8.81207e-07
8.48074e-07
8.16737e-07
7.87115e-07
7.59127e-07
7.32695e-07
7.07745e-07
6.84204e-07
6.62001e-07
6.41069e-07
6.21343e-07
6.02761e-07
5.85261e-07
5.68784e-07
5.53274e-07
5.38676e-07
5.24934e-07
5.11997e-07
4.99812e-07
4.88328e-07
4.77493e-07
4.67253e-07
4.57557e-07
4.48349e-07
4.39574e-07
4.31174e-07
4.23092e-07
4.15268e-07
4.07648e-07
4.00177e-07
3.92806e-07
3.85497e-07
3.78223e-07
3.70977e-07
3.63774e-07
3.56663e-07
3.49734e-07
3.43126e-07
3.37039e-07
3.31745e-07
3.27598e-07
3.25049e-07
3.24655e-07
3.27088e-07
3.33148e-07
3.4376e-07
3.59982e-07
3.83001e-07
4.14117e-07
4.5473e-07
5.06308e-07
5.70349e-07
6.48324e-07
7.41614e-07
8.51417e-07
9.78644e-07
1.1238e-06
1.28681e-06
1.46689e-06
1.66231e-06
1.87019e-06
2.08626e-06
2.30459e-06
2.51733e-06
2.71439e-06
2.88319e-06
3.00835e-06
3.07141e-06
3.05066e-06
2.92091e-06
2.65344e-06
2.21597e-06
1.57281e-06
6.85125e-07
-4.88542e-07
-1.99163e-06
-3.86859e-06
-6.16369e-06
-8.91946e-06
-1.21749e-05
-1.59634e-05
-2.03101e-05
-2.52292e-05
-3.07211e-05
-3.67691e-05
-4.33358e-05
-5.03604e-05
-5.77549e-05
-6.54016e-05
-7.31511e-05
-8.08199e-05
-8.81909e-05
-9.50136e-05
-0.000101007
-0.000105863
-0.000109257
-0.000110851
-0.000110313
-0.000107328
-0.000101621
-9.29778e-05
-8.12731e-05
-6.65023e-05
-4.88154e-05
-2.85558e-05
-6.30149e-06
1.70911e-05
4.04421e-05
6.22024e-05
8.04093e-05
9.26449e-05
9.59987e-05
8.70381e-05
6.17876e-05
1.57218e-05
-5.62271e-05
-0.000159641
-0.000300563
-0.000485419
-0.000720907
-0.00101384
-0.00137096
-0.00179869
-0.00230284
-0.00288824
-0.00355831
-0.00431455
-0.00515596
-0.00607831
-0.00707385
-0.00813039
-0.00922975
-0.0103468
-0.0114484
-0.012492
-0.0134243
-0.0141793
-0.0146764
-0.0148187
-0.0144904
-0.0135543
-0.0118493
-0.0091875
-0.00535079
-8.78704e-05
0.00688973
0.0159115
0.0273504
0.0416317
0.0592256
0.0806737
0.106551
0.137535
0.174289
0.217758
0.268708
0.328708
2.3018
0
0
0
0
0
0
0
0
0
0
0
0
0
0
0
0
0
0
0
0
0
0
0
0
0
0
0
0
0
0
0
0
0
0
0
0
0
0
0
0
0
0
0
0
0
0
0
0
0
0
0
0
0
0
0
0
0
0
0
0
0
0
0
0
0
0
0
0
0
0
0
0
0
0
0
0
0
0
0
0
0
0
0
0
0
0
0
0
0
0
0
0
0
0
0
0
0
0
0
0
0
0
0
0
0
0
0
0
0
0
0
0
0
0
0
0
0
0
0
0
)
;

boundaryField
{
    inandouthalf11
    {
        type            cyclic;
    }
    inandouthalf12
    {
        type            cyclic;
    }
    inandouthalf21
    {
        type            cyclic;
    }
    inandouthalf22
    {
        type            cyclic;
    }
    top
    {
        type            calculated;
        value           uniform 5.38193e-09;
    }
    walls
    {
        type            calculated;
        value           uniform 1.68349e-13;
    }
    frontAndBackPlanes
    {
        type            empty;
    }
}


// ************************************************************************* //
