/*--------------------------------*- C++ -*----------------------------------*\
| =========                 |                                                 |
| \\      /  F ield         | OpenFOAM: The Open Source CFD Toolbox           |
|  \\    /   O peration     | Version:  2.1.1                                 |
|   \\  /    A nd           | Web:      www.OpenFOAM.org                      |
|    \\/     M anipulation  |                                                 |
\*---------------------------------------------------------------------------*/
FoamFile
{
    version     2.0;
    format      ascii;
    class       volVectorField;
    location    "100";
    object      ddt0(Ub);
}
// * * * * * * * * * * * * * * * * * * * * * * * * * * * * * * * * * * * * * //

dimensions      [0 1 -2 0 0 0 0];

internalField   nonuniform List<vector> 
600
(
(-1.49362e-15 6.28942e-08 0)
(1.1456e-15 1.2487e-07 0)
(1.22938e-16 1.25548e-07 0)
(-1.03956e-16 1.2599e-07 0)
(8.99813e-18 1.26385e-07 0)
(1.35286e-17 1.26879e-07 0)
(-7.15893e-18 1.27396e-07 0)
(2.52576e-18 1.27911e-07 0)
(6.73444e-18 1.28427e-07 0)
(-2.36397e-18 1.2894e-07 0)
(4.17053e-18 1.29442e-07 0)
(5.93931e-18 1.29933e-07 0)
(8.71318e-18 1.3041e-07 0)
(8.73124e-18 1.30871e-07 0)
(4.2889e-18 1.31316e-07 0)
(5.1577e-18 1.31745e-07 0)
(1.13151e-17 1.32157e-07 0)
(6.28693e-18 1.32552e-07 0)
(4.98037e-18 1.32931e-07 0)
(-9.20432e-19 1.33295e-07 0)
(5.54787e-18 1.33643e-07 0)
(1.16043e-17 1.33978e-07 0)
(7.8756e-18 1.34298e-07 0)
(9.02346e-18 1.34605e-07 0)
(2.70769e-18 1.34899e-07 0)
(9.79625e-18 1.3518e-07 0)
(-5.69667e-19 1.3545e-07 0)
(7.3483e-18 1.3571e-07 0)
(2.07337e-18 1.35958e-07 0)
(7.92307e-18 1.36197e-07 0)
(5.52238e-18 1.36427e-07 0)
(8.37748e-18 1.36647e-07 0)
(8.00929e-18 1.36859e-07 0)
(6.03929e-18 1.37064e-07 0)
(1.25382e-17 1.3726e-07 0)
(4.67642e-18 1.3745e-07 0)
(9.84307e-18 1.37632e-07 0)
(5.03812e-18 1.37809e-07 0)
(5.14547e-18 1.37979e-07 0)
(7.55493e-18 1.38144e-07 0)
(8.31069e-18 1.38303e-07 0)
(1.33906e-17 1.38458e-07 0)
(3.06572e-18 1.38608e-07 0)
(2.179e-17 1.38753e-07 0)
(7.03911e-18 1.38895e-07 0)
(6.45824e-18 1.39033e-07 0)
(6.84454e-18 1.39167e-07 0)
(1.01759e-17 1.39297e-07 0)
(5.32356e-18 1.39425e-07 0)
(5.03871e-18 1.3955e-07 0)
(5.23369e-18 1.39672e-07 0)
(8.30878e-18 1.39791e-07 0)
(-9.86441e-19 1.39909e-07 0)
(1.15459e-17 1.40024e-07 0)
(9.96267e-18 1.40137e-07 0)
(5.84986e-18 1.40249e-07 0)
(8.05177e-18 1.40359e-07 0)
(1.28564e-17 1.40468e-07 0)
(3.78298e-18 1.40575e-07 0)
(8.60416e-18 1.40681e-07 0)
(4.94679e-18 1.40786e-07 0)
(6.20721e-18 1.4089e-07 0)
(6.10623e-18 1.40994e-07 0)
(9.41203e-18 1.41096e-07 0)
(8.62819e-18 1.41199e-07 0)
(4.21188e-18 1.413e-07 0)
(5.34922e-18 1.41402e-07 0)
(1.0983e-17 1.41503e-07 0)
(9.36828e-18 1.41604e-07 0)
(2.71458e-18 1.41705e-07 0)
(4.0815e-18 1.41806e-07 0)
(8.14943e-18 1.41907e-07 0)
(1.04e-17 1.42008e-07 0)
(3.53112e-18 1.42109e-07 0)
(1.26993e-17 1.4221e-07 0)
(1.67796e-17 1.42312e-07 0)
(7.71135e-18 1.42413e-07 0)
(9.9087e-18 1.42516e-07 0)
(1.1796e-17 1.42618e-07 0)
(1.08728e-17 1.42722e-07 0)
(3.12506e-18 1.42825e-07 0)
(1.00138e-17 1.42929e-07 0)
(2.40177e-18 1.43034e-07 0)
(1.00554e-17 1.43138e-07 0)
(1.41285e-17 1.43244e-07 0)
(1.00728e-17 1.4335e-07 0)
(1.68202e-17 1.43457e-07 0)
(4.33148e-18 1.43564e-07 0)
(8.94964e-18 1.43672e-07 0)
(8.88632e-18 1.4378e-07 0)
(4.01543e-18 1.43889e-07 0)
(1.14504e-17 1.43998e-07 0)
(1.23614e-17 1.44108e-07 0)
(1.58817e-17 1.44218e-07 0)
(1.0045e-17 1.44329e-07 0)
(7.4272e-18 1.4444e-07 0)
(4.43724e-18 1.44551e-07 0)
(1.5282e-17 1.44663e-07 0)
(1.40292e-17 1.44775e-07 0)
(1.66002e-17 1.44888e-07 0)
(1.1986e-17 1.45e-07 0)
(1.27278e-17 1.45113e-07 0)
(1.22914e-17 1.45226e-07 0)
(1.14879e-17 1.45339e-07 0)
(1.21655e-17 1.45453e-07 0)
(1.58653e-17 1.45565e-07 0)
(1.30792e-17 1.45679e-07 0)
(1.61662e-17 1.45791e-07 0)
(1.32392e-17 1.45905e-07 0)
(1.68203e-17 1.46017e-07 0)
(1.3613e-17 1.46129e-07 0)
(1.83202e-17 1.4624e-07 0)
(8.06782e-18 1.46351e-07 0)
(1.70554e-17 1.46462e-07 0)
(1.85595e-17 1.46571e-07 0)
(1.49505e-17 1.46681e-07 0)
(2.77417e-18 1.46788e-07 0)
(1.52318e-17 1.46896e-07 0)
(1.88872e-17 1.47001e-07 0)
(1.90793e-17 1.47106e-07 0)
(2.41472e-17 1.47209e-07 0)
(1.7047e-17 1.47311e-07 0)
(1.76935e-17 1.47411e-07 0)
(1.51136e-17 1.4751e-07 0)
(1.6901e-17 1.47607e-07 0)
(1.76242e-17 1.47702e-07 0)
(1.09891e-17 1.47795e-07 0)
(2.07741e-17 1.47885e-07 0)
(2.65843e-17 1.47974e-07 0)
(1.80993e-17 1.48059e-07 0)
(3.0455e-17 1.48142e-07 0)
(2.17644e-17 1.48222e-07 0)
(1.11275e-17 1.48299e-07 0)
(1.97839e-17 1.48374e-07 0)
(2.14433e-17 1.48444e-07 0)
(2.00727e-17 1.48511e-07 0)
(2.13089e-17 1.48575e-07 0)
(2.3271e-17 1.48634e-07 0)
(1.39105e-17 1.4869e-07 0)
(2.0678e-17 1.4874e-07 0)
(2.56187e-17 1.48787e-07 0)
(2.92929e-17 1.48828e-07 0)
(2.70223e-17 1.48865e-07 0)
(2.40195e-17 1.48897e-07 0)
(2.99192e-17 1.48923e-07 0)
(2.79832e-17 1.48943e-07 0)
(3.10081e-17 1.48957e-07 0)
(3.13613e-17 1.48965e-07 0)
(2.89738e-17 1.48967e-07 0)
(3.04828e-17 1.48962e-07 0)
(3.82683e-17 1.48949e-07 0)
(3.17761e-17 1.48929e-07 0)
(2.23116e-17 1.48901e-07 0)
(4.1529e-17 1.48866e-07 0)
(3.35532e-17 1.48823e-07 0)
(3.29609e-17 1.4877e-07 0)
(3.54373e-17 1.48709e-07 0)
(3.2982e-17 1.48639e-07 0)
(3.34242e-17 1.48559e-07 0)
(3.63909e-17 1.48469e-07 0)
(4.20458e-17 1.48368e-07 0)
(4.02471e-17 1.48257e-07 0)
(4.32389e-17 1.48134e-07 0)
(4.28077e-17 1.48e-07 0)
(4.30666e-17 1.47855e-07 0)
(4.02367e-17 1.47696e-07 0)
(4.55594e-17 1.47526e-07 0)
(4.8757e-17 1.47341e-07 0)
(4.95719e-17 1.47142e-07 0)
(5.07033e-17 1.46931e-07 0)
(5.27837e-17 1.46705e-07 0)
(6.54889e-17 1.46464e-07 0)
(5.94364e-17 1.46208e-07 0)
(5.56407e-17 1.45935e-07 0)
(6.6967e-17 1.45648e-07 0)
(6.95983e-17 1.45342e-07 0)
(7.32851e-17 1.4502e-07 0)
(7.92457e-17 1.44677e-07 0)
(9.38104e-17 1.44314e-07 0)
(1.03483e-16 1.43927e-07 0)
(1.13512e-16 1.43522e-07 0)
(1.18812e-16 1.43107e-07 0)
(1.30685e-16 1.42642e-07 0)
(3.24787e-16 1.41958e-07 0)
(9.52589e-16 1.41541e-07 0)
(-8.4238e-16 1.42322e-07 0)
(4.41198e-16 1.47117e-07 0)
(-1.59957e-14 -7.93845e-07 0)
(-2.10734e-11 -6.23592e-06 0)
(3.8151e-11 0.000139151 0)
(-1.94558e-09 0.0018405 0)
(-1.54693e-06 -0.0146861 0)
(-0.00233376 -0.391503 0)
(0.563476 -0.684403 0)
(0.0129401 -0.0637782 0)
(0.00342754 -0.00540968 0)
(0.000945749 0.000297038 0)
(0.000294529 0.000699215 0)
(0.000167316 6.10812e-05 0)
(0.000140688 -3.35176e-06 0)
(0.000126278 -1.39363e-06 0)
(0.000114382 1.97508e-06 0)
(0.000105993 2.62964e-06 0)
(0.000100635 1.52781e-06 0)
(9.67189e-05 4.08776e-07 0)
(9.30745e-05 -1.24538e-07 0)
(8.92713e-05 -2.15327e-07 0)
(8.53288e-05 -1.22554e-07 0)
(8.14157e-05 -3.07275e-10 0)
(7.7697e-05 9.2101e-08 0)
(7.42888e-05 1.45757e-07 0)
(7.12586e-05 1.68743e-07 0)
(6.86384e-05 1.71408e-07 0)
(6.64369e-05 1.62167e-07 0)
(6.46472e-05 1.47025e-07 0)
(6.32514e-05 1.3004e-07 0)
(6.22244e-05 1.13771e-07 0)
(6.15363e-05 9.96145e-08 0)
(6.11541e-05 8.81108e-08 0)
(6.1043e-05 7.9242e-08 0)
(6.1168e-05 7.2681e-08 0)
(6.14949e-05 6.79748e-08 0)
(6.19905e-05 6.46647e-08 0)
(6.26239e-05 6.23494e-08 0)
(6.33665e-05 6.07075e-08 0)
(6.41928e-05 5.94986e-08 0)
(6.50796e-05 5.85526e-08 0)
(6.60072e-05 5.7754e-08 0)
(6.69585e-05 5.70273e-08 0)
(6.79193e-05 5.6329e-08 0)
(6.88778e-05 5.56379e-08 0)
(6.98245e-05 5.49483e-08 0)
(7.07522e-05 5.42607e-08 0)
(7.16554e-05 5.35812e-08 0)
(7.253e-05 5.29182e-08 0)
(7.33736e-05 5.22811e-08 0)
(7.41845e-05 5.16788e-08 0)
(7.49624e-05 5.11175e-08 0)
(7.57073e-05 5.06013e-08 0)
(7.642e-05 5.01318e-08 0)
(7.71018e-05 4.971e-08 0)
(7.7754e-05 4.93334e-08 0)
(7.83784e-05 4.90008e-08 0)
(7.89769e-05 4.87096e-08 0)
(7.95512e-05 4.84543e-08 0)
(8.01035e-05 4.82323e-08 0)
(8.06356e-05 4.80383e-08 0)
(8.11492e-05 4.78677e-08 0)
(8.16461e-05 4.77166e-08 0)
(8.2128e-05 4.75793e-08 0)
(8.25964e-05 4.74533e-08 0)
(8.30527e-05 4.73342e-08 0)
(8.34981e-05 4.72197e-08 0)
(8.39339e-05 4.71093e-08 0)
(8.43609e-05 4.69987e-08 0)
(8.47802e-05 4.68853e-08 0)
(8.51926e-05 4.67691e-08 0)
(8.55987e-05 4.66503e-08 0)
(8.59992e-05 4.6527e-08 0)
(8.63946e-05 4.63978e-08 0)
(8.67854e-05 4.62629e-08 0)
(8.71718e-05 4.61233e-08 0)
(8.75543e-05 4.59791e-08 0)
(8.7933e-05 4.58296e-08 0)
(8.83082e-05 4.56755e-08 0)
(8.86801e-05 4.5518e-08 0)
(8.90487e-05 4.5356e-08 0)
(8.94141e-05 4.51897e-08 0)
(8.97765e-05 4.50203e-08 0)
(9.01357e-05 4.48486e-08 0)
(9.04919e-05 4.46744e-08 0)
(9.0845e-05 4.44982e-08 0)
(9.11951e-05 4.43212e-08 0)
(9.1542e-05 4.41431e-08 0)
(9.18858e-05 4.39641e-08 0)
(9.22263e-05 4.37838e-08 0)
(9.25636e-05 4.36034e-08 0)
(9.28976e-05 4.34227e-08 0)
(9.32283e-05 4.32413e-08 0)
(9.35555e-05 4.30603e-08 0)
(9.38792e-05 4.288e-08 0)
(9.41993e-05 4.27006e-08 0)
(9.45158e-05 4.25235e-08 0)
(9.48287e-05 4.23473e-08 0)
(9.51378e-05 4.21719e-08 0)
(9.54431e-05 4.19976e-08 0)
(9.57445e-05 4.18234e-08 0)
(9.6042e-05 4.16501e-08 0)
(9.63355e-05 4.14777e-08 0)
(9.6625e-05 4.13064e-08 0)
(9.69104e-05 4.11366e-08 0)
(9.71915e-05 4.0968e-08 0)
(9.74685e-05 4.07999e-08 0)
(9.77412e-05 4.06325e-08 0)
(9.80096e-05 4.04668e-08 0)
(9.82736e-05 4.03019e-08 0)
(9.85332e-05 4.01367e-08 0)
(9.87883e-05 3.99727e-08 0)
(9.90388e-05 3.98101e-08 0)
(9.92848e-05 3.96485e-08 0)
(9.95261e-05 3.94881e-08 0)
(9.97627e-05 3.93282e-08 0)
(9.99945e-05 3.91685e-08 0)
(0.000100222 3.90083e-08 0)
(0.000100444 3.88493e-08 0)
(0.000100661 3.86912e-08 0)
(0.000100873 3.85333e-08 0)
(0.000101081 3.8376e-08 0)
(0.000101283 3.82185e-08 0)
(0.00010148 3.80617e-08 0)
(0.000101673 3.79061e-08 0)
(0.00010186 3.77508e-08 0)
(0.000102041 3.75954e-08 0)
(0.000102218 3.74408e-08 0)
(0.000102389 3.72861e-08 0)
(0.000102556 3.71312e-08 0)
(0.000102716 3.69771e-08 0)
(0.000102872 3.6822e-08 0)
(0.000103022 3.66673e-08 0)
(0.000103167 3.65135e-08 0)
(0.000103307 3.6359e-08 0)
(0.000103442 3.62048e-08 0)
(0.000103571 3.60518e-08 0)
(0.000103695 3.5899e-08 0)
(0.000103814 3.57462e-08 0)
(0.000103928 3.55931e-08 0)
(0.000104037 3.54408e-08 0)
(0.000104141 3.52894e-08 0)
(0.00010424 3.5138e-08 0)
(0.000104334 3.49869e-08 0)
(0.000104424 3.48369e-08 0)
(0.000104508 3.46866e-08 0)
(0.000104588 3.45359e-08 0)
(0.000104664 3.4386e-08 0)
(0.000104735 3.42371e-08 0)
(0.000104802 3.4088e-08 0)
(0.000104864 3.39392e-08 0)
(0.000104923 3.37902e-08 0)
(0.000104978 3.36416e-08 0)
(0.000105028 3.34945e-08 0)
(0.000105075 3.33482e-08 0)
(0.000105118 3.3202e-08 0)
(0.000105158 3.30563e-08 0)
(0.000105194 3.29116e-08 0)
(0.000105227 3.27666e-08 0)
(0.000105257 3.2622e-08 0)
(0.000105284 3.24791e-08 0)
(0.000105308 3.23366e-08 0)
(0.000105328 3.21945e-08 0)
(0.000105347 3.20534e-08 0)
(0.000105362 3.19131e-08 0)
(0.000105375 3.17737e-08 0)
(0.000105385 3.16345e-08 0)
(0.000105393 3.14959e-08 0)
(0.000105398 3.13583e-08 0)
(0.000105402 3.12214e-08 0)
(0.000105403 3.10847e-08 0)
(0.000105402 3.09483e-08 0)
(0.000105399 3.08128e-08 0)
(0.000105394 3.0678e-08 0)
(0.000105387 3.05439e-08 0)
(0.000105378 3.04111e-08 0)
(0.000105367 3.02785e-08 0)
(0.000105355 3.01466e-08 0)
(0.000105341 3.00152e-08 0)
(0.000105325 2.98836e-08 0)
(0.000105308 2.97529e-08 0)
(0.000105288 2.96234e-08 0)
(0.000105268 2.94944e-08 0)
(0.000105246 2.93658e-08 0)
(0.000105222 2.92387e-08 0)
(0.000105197 2.9112e-08 0)
(0.00010517 2.89856e-08 0)
(0.000105142 2.88609e-08 0)
(0.000105113 2.87371e-08 0)
(0.000105082 2.86139e-08 0)
(0.00010505 2.84918e-08 0)
(0.000105016 2.83704e-08 0)
(0.000104981 2.825e-08 0)
(0.000104945 2.81307e-08 0)
(0.000104907 2.80124e-08 0)
(0.000104869 2.78954e-08 0)
(0.000104829 2.7779e-08 0)
(0.000104787 2.76631e-08 0)
(0.000104745 2.75492e-08 0)
(0.000104701 2.74366e-08 0)
(0.000104656 2.7323e-08 0)
(0.00010461 2.72092e-08 0)
(0.000104562 2.70961e-08 0)
(0.000104514 2.6984e-08 0)
(0.000104464 2.68725e-08 0)
(0.000104413 2.676e-08 0)
(0.000104361 2.66465e-08 0)
(0.000104307 2.65321e-08 0)
(0.000104253 2.64159e-08 0)
(0.000104198 2.62975e-08 0)
(0.000104141 2.61767e-08 0)
(0.000104083 2.60533e-08 0)
(0.000104024 2.5927e-08 0)
(0.000103965 2.57972e-08 0)
(0.000103904 2.56642e-08 0)
(0.000103842 2.55264e-08 0)
(0.000103778 2.53836e-08 0)
(0.000103714 2.52358e-08 0)
(0.000103649 2.50834e-08 0)
(0.000103583 2.49264e-08 0)
(0.000103516 2.47642e-08 0)
(0.000103448 2.45973e-08 0)
(0.000103379 2.44268e-08 0)
(0.000103309 2.42529e-08 0)
(0.000103237 2.40762e-08 0)
(0.000103165 2.38979e-08 0)
(0.000103092 2.37181e-08 0)
(0.000103018 2.35385e-08 0)
(0.000102944 2.33612e-08 0)
(0.000102868 2.31877e-08 0)
(0.000102791 2.3019e-08 0)
(0.000102713 2.28559e-08 0)
(0.000102635 2.27016e-08 0)
(0.000102555 2.25575e-08 0)
(0.000102475 2.24239e-08 0)
(0.000102394 2.23017e-08 0)
(0.000102312 2.21925e-08 0)
(0.000102229 2.20954e-08 0)
(0.000102145 2.20091e-08 0)
(0.00010206 2.19328e-08 0)
(0.000101974 2.18645e-08 0)
(0.000101887 2.18007e-08 0)
(0.0001018 2.17376e-08 0)
(0.000101711 2.16705e-08 0)
(0.000101622 2.1592e-08 0)
(0.000101532 2.14941e-08 0)
(0.00010144 2.13682e-08 0)
(0.000101348 2.12038e-08 0)
(0.000101255 2.09888e-08 0)
(0.000101161 2.0711e-08 0)
(0.000101066 2.03569e-08 0)
(0.000100969 1.99115e-08 0)
(0.000100872 1.93589e-08 0)
(0.000100774 1.86834e-08 0)
(0.000100675 1.78704e-08 0)
(0.000100575 1.69064e-08 0)
(0.000100474 1.57806e-08 0)
(0.000100372 1.44843e-08 0)
(0.000100268 1.301e-08 0)
(0.000100164 1.13442e-08 0)
(0.000100059 9.46793e-09 0)
(9.9953e-05 7.36706e-09 0)
(9.98459e-05 5.03669e-09 0)
(9.9738e-05 2.50453e-09 0)
(9.96293e-05 -1.41639e-10 0)
(9.95199e-05 -2.87089e-09 0)
(9.94097e-05 -5.7563e-09 0)
(9.9299e-05 -8.77341e-09 0)
(9.91878e-05 -1.17949e-08 0)
(9.9076e-05 -1.47073e-08 0)
(9.89638e-05 -1.73186e-08 0)
(9.88511e-05 -1.94206e-08 0)
(9.87379e-05 -2.07509e-08 0)
(9.8624e-05 -2.1073e-08 0)
(9.85096e-05 -2.05574e-08 0)
(9.83926e-05 -1.9117e-08 0)
(9.82744e-05 -1.77538e-08 0)
(9.81474e-05 -1.58219e-08 0)
(9.80136e-05 -1.29786e-08 0)
(9.78646e-05 -4.99309e-09 0)
(9.76937e-05 1.45764e-08 0)
(9.75617e-05 5.1366e-08 0)
(9.73899e-05 1.03025e-07 0)
(9.74487e-05 1.01155e-07 0)
(9.75231e-05 3.08402e-08 0)
(9.73059e-05 -2.79947e-07 0)
(9.76013e-05 -5.6474e-07 0)
(9.53825e-05 -2.11446e-07 0)
(9.37113e-05 -4.31541e-07 0)
(9.52139e-05 2.32301e-06 0)
(9.42424e-05 4.42973e-06 0)
(0.000109206 2.35836e-05 0)
(0.000107843 8.59416e-06 0)
(9.20905e-05 -0.000172107 0)
(1.83695e-05 -0.000100127 0)
(7.78632e-05 8.0898e-05 0)
(9.82928e-05 1.42754e-05 0)
(9.94646e-05 -7.12388e-06 0)
(9.61894e-05 -6.81011e-07 0)
(9.51549e-05 -6.20218e-07 0)
(9.52233e-05 1.33471e-06 0)
(9.57532e-05 5.68347e-07 0)
(9.59805e-05 -3.65004e-07 0)
(9.59537e-05 -7.22678e-07 0)
(9.58423e-05 -4.43773e-07 0)
(9.57216e-05 -1.13402e-08 0)
(9.56208e-05 2.33196e-08 0)
(9.55358e-05 1.27277e-07 0)
(9.54571e-05 4.29234e-07 0)
(9.53732e-05 8.1358e-08 0)
(9.5282e-05 -3.12308e-07 0)
(9.51865e-05 -2.23694e-07 0)
(9.50878e-05 -1.98349e-07 0)
(9.49899e-05 7.82991e-09 0)
(9.48928e-05 3.62861e-07 0)
(9.47935e-05 1.97995e-07 0)
(9.46932e-05 9.46484e-08 0)
(9.45893e-05 2.21004e-08 0)
(9.44811e-05 -2.26861e-07 0)
(9.4373e-05 -3.13436e-08 0)
(9.42637e-05 9.14919e-08 0)
(9.41525e-05 -7.84969e-08 0)
(9.40419e-05 1.12476e-07 0)
(9.39288e-05 1.64173e-07 0)
(9.38124e-05 -8.57575e-08 0)
(9.36947e-05 -3.10379e-08 0)
(9.35744e-05 -4.42745e-08 0)
(9.3453e-05 -3.66481e-08 0)
(9.3331e-05 1.06169e-07 0)
(9.32068e-05 1.64163e-08 0)
(9.30816e-05 5.19379e-08 0)
(9.29535e-05 -2.10037e-08 0)
(9.28239e-05 -3.18646e-08 0)
(9.26927e-05 2.76127e-08 0)
(9.25594e-05 -4.71659e-08 0)
(9.24253e-05 6.82879e-08 0)
(9.22888e-05 1.86802e-08 0)
(9.21508e-05 2.42545e-08 0)
(9.20105e-05 -3.64345e-09 0)
(9.18683e-05 -6.69001e-08 0)
(9.17254e-05 9.44146e-08 0)
(9.15794e-05 6.46507e-08 0)
(9.14312e-05 -4.59714e-08 0)
(9.12817e-05 -3.71767e-08 0)
(9.11307e-05 6.14313e-08 0)
(9.09767e-05 2.61462e-08 0)
(9.08206e-05 -4.58294e-08 0)
(9.06632e-05 4.92548e-08 0)
(9.05027e-05 8.23638e-09 0)
(9.03401e-05 -2.94782e-08 0)
(9.01759e-05 6.92141e-08 0)
(9.00082e-05 9.47903e-09 0)
(8.98384e-05 -4.49126e-08 0)
(8.96669e-05 4.39123e-08 0)
(8.94921e-05 4.77851e-08 0)
(8.93142e-05 -2.59598e-08 0)
(8.91342e-05 -1.86412e-08 0)
(8.89517e-05 3.52902e-08 0)
(8.87658e-05 3.51551e-08 0)
(8.85766e-05 -4.66402e-09 0)
(8.83846e-05 -1.54793e-08 0)
(8.81898e-05 2.19309e-08 0)
(8.79913e-05 3.10857e-08 0)
(8.7789e-05 -1.12264e-08 0)
(8.75837e-05 -2.10389e-11 0)
(8.73747e-05 3.29922e-08 0)
(8.71614e-05 5.6142e-09 0)
(8.69444e-05 -6.77771e-09 0)
(8.67234e-05 1.69377e-08 0)
(8.64978e-05 1.57209e-08 0)
(8.62676e-05 2.76697e-09 0)
(8.60329e-05 5.0671e-09 0)
(8.57933e-05 1.07951e-08 0)
(8.55484e-05 9.56975e-09 0)
(8.52981e-05 6.20396e-09 0)
(8.50423e-05 6.9543e-09 0)
(8.47804e-05 8.2997e-09 0)
(8.45123e-05 7.51308e-09 0)
(8.42376e-05 6.95575e-09 0)
(8.3956e-05 6.69409e-09 0)
(8.3667e-05 7.39092e-09 0)
(8.33703e-05 6.49539e-09 0)
(8.30653e-05 6.52678e-09 0)
(8.27516e-05 6.61948e-09 0)
(8.24286e-05 5.99777e-09 0)
(8.20957e-05 6.40448e-09 0)
(8.17521e-05 5.66661e-09 0)
(8.13973e-05 5.93394e-09 0)
(8.10301e-05 5.5883e-09 0)
(8.06499e-05 5.3645e-09 0)
(8.02555e-05 5.37673e-09 0)
(7.98457e-05 5.00081e-09 0)
(7.94191e-05 4.98139e-09 0)
(7.89742e-05 4.71006e-09 0)
(7.85093e-05 4.56607e-09 0)
(7.80224e-05 4.38e-09 0)
(7.75111e-05 4.18192e-09 0)
(7.69726e-05 3.99734e-09 0)
(7.64037e-05 3.79316e-09 0)
(7.58005e-05 3.59546e-09 0)
(7.51585e-05 3.3935e-09 0)
(7.44719e-05 3.18452e-09 0)
(7.37337e-05 2.97321e-09 0)
(7.29352e-05 2.75062e-09 0)
(7.20652e-05 2.52413e-09 0)
(7.11087e-05 2.29293e-09 0)
(7.00459e-05 2.05582e-09 0)
(6.8849e-05 1.81167e-09 0)
(6.74775e-05 1.56194e-09 0)
(6.58693e-05 1.30384e-09 0)
(6.39208e-05 1.03111e-09 0)
(6.14375e-05 7.48566e-10 0)
(5.79658e-05 4.56611e-10 0)
(5.03172e-05 1.52411e-10 0)
)
;

boundaryField
{
    inandouthalf11
    {
        type            cyclic;
    }
    inandouthalf12
    {
        type            cyclic;
    }
    inandouthalf21
    {
        type            cyclic;
    }
    inandouthalf22
    {
        type            cyclic;
    }
    top
    {
        type            calculated;
        value           uniform (0 0 0);
    }
    walls
    {
        type            calculated;
        value           uniform (0 0 0);
    }
    frontAndBackPlanes
    {
        type            empty;
    }
}


// ************************************************************************* //
