/*--------------------------------*- C++ -*----------------------------------*\
| =========                 |                                                 |
| \\      /  F ield         | OpenFOAM: The Open Source CFD Toolbox           |
|  \\    /   O peration     | Version:  2.1.1                                 |
|   \\  /    A nd           | Web:      www.OpenFOAM.org                      |
|    \\/     M anipulation  |                                                 |
\*---------------------------------------------------------------------------*/
FoamFile
{
    version     2.0;
    format      ascii;
    class       volScalarField;
    location    "100";
    object      epsilon;
}
// * * * * * * * * * * * * * * * * * * * * * * * * * * * * * * * * * * * * * //

dimensions      [0 2 -3 0 0 0 0];

internalField   nonuniform List<scalar> 
600
(
1e-20
1.1059e-20
1.52293e-20
1.36877e-20
1.09056e-20
1e-20
1e-20
1e-20
1e-20
1e-20
1e-20
1e-20
1e-20
1e-20
1e-20
1e-20
1e-20
1e-20
1e-20
1e-20
1e-20
1e-20
1e-20
1e-20
1e-20
1e-20
1e-20
1e-20
1e-20
1e-20
1e-20
1e-20
1e-20
1e-20
1e-20
1e-20
1e-20
1e-20
1e-20
1e-20
1e-20
1e-20
1e-20
1e-20
1e-20
1e-20
1e-20
1e-20
1e-20
1e-20
1e-20
1e-20
1e-20
1e-20
1e-20
1e-20
1e-20
1e-20
1e-20
1e-20
1e-20
1e-20
1e-20
1e-20
1e-20
1e-20
1e-20
1e-20
1e-20
1e-20
1e-20
1e-20
1e-20
1e-20
1e-20
1e-20
1e-20
1e-20
1e-20
1e-20
1e-20
1e-20
1e-20
1e-20
1e-20
1e-20
1e-20
1e-20
1e-20
1e-20
1e-20
1e-20
1e-20
1e-20
1e-20
1e-20
1e-20
1e-20
1e-20
1e-20
1e-20
1e-20
1e-20
1e-20
1e-20
1e-20
1e-20
1e-20
1e-20
1e-20
1e-20
1e-20
1e-20
1e-20
1e-20
1e-20
1e-20
1e-20
1e-20
1e-20
1e-20
1e-20
1e-20
1e-20
1e-20
1e-20
1e-20
1e-20
1e-20
1e-20
1e-20
1e-20
1e-20
1e-20
1e-20
1e-20
1e-20
1e-20
1e-20
1e-20
1e-20
1e-20
1e-20
1e-20
1e-20
1e-20
1e-20
1e-20
1e-20
1e-20
1e-20
1e-20
1e-20
1e-20
1e-20
1e-20
1e-20
1e-20
1e-20
1e-20
1e-20
1e-20
1e-20
1e-20
1e-20
1e-20
1e-20
1e-20
1.38981e-20
2.96348e-20
7.44516e-20
1.98348e-19
5.47682e-19
1.5647e-18
4.63917e-18
1.43353e-17
4.63957e-17
1.58133e-16
5.70959e-16
2.1979e-15
9.08302e-15
4.0599e-14
1.97957e-13
1.06388e-12
6.36688e-12
4.25101e-11
3.19456e-10
2.77372e-09
2.81794e-08
3.37477e-07
4.82173e-06
8.29115e-05
0.00167214
0.0270686
0.0904396
0.114322
0.120278
0.119359
0.115595
0.110633
0.105233
0.0997866
0.0944996
0.0894718
0.0847446
0.0803276
0.0762139
0.0723882
0.0688315
0.0655236
0.0624448
0.0595761
0.0568999
0.0544001
0.0520618
0.0498717
0.0478175
0.0458881
0.0440737
0.0423651
0.0407541
0.0392333
0.0377959
0.0364357
0.0351471
0.0339251
0.0327649
0.0316622
0.0306132
0.0296143
0.0286621
0.0277537
0.0268863
0.0260572
0.0252642
0.024505
0.0237777
0.0230802
0.022411
0.0217684
0.0211508
0.020557
0.0199855
0.0194353
0.0189051
0.018394
0.0179009
0.0174249
0.0169652
0.016521
0.0160914
0.0156759
0.0152737
0.0148842
0.0145069
0.0141411
0.0137864
0.0134422
0.0131082
0.0127838
0.0124687
0.0121625
0.0118647
0.0115752
0.0112934
0.0110192
0.0107522
0.0104922
0.0102389
0.00999198
0.0097513
0.00951661
0.00928768
0.00906434
0.00884638
0.00863362
0.00842589
0.00822304
0.0080249
0.00783134
0.00764221
0.00745739
0.00727675
0.00710017
0.00692755
0.00675877
0.00659375
0.00643238
0.00627457
0.00612025
0.00596933
0.00582175
0.00567742
0.00553628
0.00539828
0.00526335
0.00513143
0.00500248
0.00487644
0.00475327
0.00463293
0.00451537
0.00440056
0.00428846
0.00417904
0.00407226
0.00396809
0.00386651
0.00376748
0.00367098
0.00357699
0.00348547
0.0033964
0.00330976
0.00322553
0.00314368
0.00306419
0.00298704
0.0029122
0.00283964
0.00276935
0.0027013
0.00263546
0.00257181
0.00251031
0.00245095
0.00239369
0.0023385
0.00228536
0.00223423
0.00218507
0.00213787
0.00209258
0.00204917
0.0020076
0.00196785
0.00192986
0.00189362
0.00185908
0.0018262
0.00179496
0.00176531
0.00173721
0.00171063
0.00168554
0.0016619
0.00163967
0.00161883
0.00159933
0.00158114
0.00156424
0.00154859
0.00153415
0.00152091
0.00150883
0.00149789
0.00148805
0.0014793
0.0014716
0.00146494
0.00145929
0.00145463
0.00145094
0.0014482
0.0014464
0.00144551
0.00144551
0.0014464
0.00144816
0.00145077
0.00145422
0.0014585
0.0014636
0.0014695
0.0014762
0.00148368
0.00149195
0.00150098
0.00151078
0.00152133
0.00153264
0.00154468
0.00155747
0.00157099
0.00158524
0.00160022
0.00161592
0.00163234
0.00164948
0.00166734
0.0016859
0.00170518
0.00172517
0.00174587
0.00176727
0.00178939
0.00181221
0.00183574
0.00185997
0.00188491
0.00191057
0.00193693
0.001964
0.00199179
0.00202028
0.00204949
0.00207942
0.00211007
0.00214144
0.00217353
0.00220634
0.00223988
0.00227415
0.00230916
0.0023449
0.00238138
0.00241861
0.00245658
0.0024953
0.00253478
0.00257502
0.00261602
0.00265778
0.00270032
0.00274364
0.00278774
0.00283263
0.00287831
0.00292479
0.00297207
0.00302017
0.00306908
0.00311882
0.00316939
0.00322081
0.00327306
0.00332618
0.00338015
0.003435
0.00349073
0.00354734
0.00360486
0.00366328
0.00372263
0.0037829
0.00384411
0.00390627
0.0039694
0.0040335
0.00409858
0.00416467
0.00423177
0.00429989
0.00436906
0.00443928
0.00451057
0.00458295
0.00465643
0.00473103
0.00480677
0.00488366
0.00496172
0.00504097
0.00512144
0.00520313
0.00528608
0.0053703
0.00545582
0.00554265
0.00563083
0.00572038
0.00581131
0.00590367
0.00599746
0.00609274
0.00618951
0.00628781
0.00638767
0.00648912
0.0065922
0.00669693
0.00680335
0.0069115
0.00702141
0.00713313
0.0072467
0.00736216
0.00747955
0.00759893
0.00772035
0.00784384
0.00796947
0.00809729
0.00822736
0.00835973
0.00849446
0.00863162
0.00877128
0.0089135
0.00905835
0.00920591
0.00935625
0.00950945
0.00966561
0.00982479
0.0099871
0.0101526
0.0103215
0.0104937
0.0106695
0.010849
0.0110322
0.0112192
0.0114103
0.0116055
0.011805
0.012009
0.0122175
0.0124307
0.0126489
0.0128721
0.0131007
0.0133347
0.0135744
0.0138199
0.0140716
0.0143297
0.0145944
0.0148659
0.0151447
0.0154308
0.0157248
0.0160269
0.0163374
0.0166568
0.0169855
0.0173237
0.0176721
0.0180311
0.0184012
0.0187829
0.0191768
0.0195835
0.0200037
0.0204381
0.0208874
0.0213525
0.0218342
0.0223334
0.0228512
0.0233887
0.0239469
0.0245273
0.0251312
0.02576
0.0264154
0.0270991
0.0278132
0.0285596
0.0293408
0.0301592
0.0310177
0.0319193
0.0328675
0.033866
0.0349191
0.0360314
0.0372082
0.0384554
0.0397796
0.0411882
0.0426899
0.0442943
0.0460125
0.0478572
0.0498432
0.0519877
0.0543105
0.0568354
0.0595902
0.0626082
0.0659295
0.0696027
0.0736877
0.0782584
0.0834079
0.0892544
0.095951
0.103699
0.112769
0.123533
0.136515
0.152483
0.172601
0.198723
0.233977
0.284057
0.36025
0.485992
0.510517
)
;

boundaryField
{
    inandouthalf11
    {
        type            cyclic;
    }
    inandouthalf12
    {
        type            cyclic;
    }
    inandouthalf21
    {
        type            cyclic;
    }
    inandouthalf22
    {
        type            cyclic;
    }
    top
    {
        type            zeroGradient;
    }
    walls
    {
        type            zeroGradient;
    }
    frontAndBackPlanes
    {
        type            empty;
    }
}


// ************************************************************************* //
