/*--------------------------------*- C++ -*----------------------------------*\
| =========                 |                                                 |
| \\      /  F ield         | OpenFOAM: The Open Source CFD Toolbox           |
|  \\    /   O peration     | Version:  2.1.1                                 |
|   \\  /    A nd           | Web:      www.OpenFOAM.org                      |
|    \\/     M anipulation  |                                                 |
\*---------------------------------------------------------------------------*/
FoamFile
{
    version     2.0;
    format      ascii;
    class       volVectorField;
    location    "100";
    object      gradPf;
}
// * * * * * * * * * * * * * * * * * * * * * * * * * * * * * * * * * * * * * //

dimensions      [0 1 -2 0 0 0 0];

internalField   nonuniform List<vector> 
600
(
(0 184.772 0)
(0 166.179 0)
(0 -42.369 0)
(0 -20.1526 0)
(-3.35121e-14 4.90263 0)
(-1.67559e-14 -2.38885 0)
(-1.67566e-14 -5.52382 0)
(0 -4.24243 0)
(-1.67575e-14 -3.97111 0)
(0 -4.19934 0)
(-1.67584e-14 -4.17823 0)
(0 -4.27839 0)
(-3.35188e-14 -4.2568 0)
(0 -4.23408 0)
(0 -4.33221 0)
(0 -4.30905 0)
(0 -4.28591 0)
(-1.67618e-14 -4.38043 0)
(0 -4.47385 0)
(0 -4.33259 0)
(0 -4.424 0)
(-1.67639e-14 -4.51563 0)
(0 -4.37504 0)
(0 -4.46433 0)
(0 -4.5525 0)
(-1.67661e-14 -4.52606 0)
(0 -4.49985 0)
(0 -4.47365 0)
(0 -4.55757 0)
(0 -4.64025 0)
(0 -4.61166 0)
(0 -4.58342 0)
(0 -4.66291 0)
(0 -4.63437 0)
(0 -4.60449 0)
(3.35436e-14 -4.68148 0)
(0 -4.7559 0)
(0 -4.72526 0)
(0 -4.69363 0)
(0 -4.76629 0)
(0 -4.73447 0)
(0 -4.80417 0)
(1.67762e-14 -4.77221 0)
(0 -4.73897 0)
(0 -4.80641 0)
(0 -4.87125 0)
(0 -4.83727 0)
(0 -4.80218 0)
(0 -4.86511 0)
(0 -4.92552 0)
(1.67816e-14 -4.89006 0)
(0 -4.85358 0)
(0 -4.91222 0)
(0 -4.87538 0)
(0 -4.93081 0)
(0 -4.98517 0)
(0 -4.94644 0)
(0 -4.90804 0)
(0 -4.95905 0)
(0 -5.00884 0)
(0 -4.96839 0)
(0 -5.01534 0)
(0 -4.97494 0)
(0 -5.01906 0)
(0 -5.06369 0)
(0 -5.02045 0)
(0 -5.0627 0)
(0 -5.01985 0)
(0 -4.97723 0)
(0 -5.01591 0)
(0 -5.05323 0)
(0 -5.08799 0)
(0 -5.12189 0)
(0 -5.07527 0)
(0 -5.10691 0)
(0 -5.06078 0)
(0 -5.08982 0)
(0 -5.11934 0)
(0 -5.07023 0)
(0 -5.097 0)
(0 -5.12135 0)
(0 -5.14475 0)
(0 -5.094 0)
(0 -5.11483 0)
(0 -5.1347 0)
(0 -5.15225 0)
(0 -5.16903 0)
(0 -5.11541 0)
(0 -5.12982 0)
(0 -5.14332 0)
(0 -5.15448 0)
(0 -5.16491 0)
(0 -5.17329 0)
(0 -5.18107 0)
(0 -5.12364 0)
(0 -5.12923 0)
(0 -5.13386 0)
(0 -5.13613 0)
(0 -5.19793 0)
(0 -5.19676 0)
(0 -5.13482 0)
(0 -5.13183 0)
(0 -5.18558 0)
(0 -5.17921 0)
(0 -5.11499 0)
(0 -5.1621 0)
(0 -5.15272 0)
(0 -5.14002 0)
(0 -5.18143 0)
(0 -5.11335 0)
(0 -5.09783 0)
(0 -5.13273 0)
(0 -5.16432 0)
(0 -5.14328 0)
(0 -5.1206 0)
(0 -5.09767 0)
(0 -5.12053 0)
(0 -5.14177 0)
(0 -5.06652 0)
(0 -5.08324 0)
(0 -5.09835 0)
(0 -5.06514 0)
(0 -5.07519 0)
(0 -5.08245 0)
(0 -5.04508 0)
(0 -5.04767 0)
(0 -5.04898 0)
(0 -5.00636 0)
(0 -5.00309 0)
(0 -5.03585 0)
(0 -5.02699 0)
(0 -4.97728 0)
(0 -4.96447 0)
(0 -4.94925 0)
(0 -4.96694 0)
(0 -4.98111 0)
(0 -4.92282 0)
(0 -4.93037 0)
(0 -4.93599 0)
(0 -4.90391 0)
(0 -4.90266 0)
(0 -4.8664 0)
(0 -4.85842 0)
(0 -4.87688 0)
(0 -4.86126 0)
(0 -4.84177 0)
(0 -4.84725 0)
(0 -4.82097 0)
(0 -4.79107 0)
(0 -4.78449 0)
(0 -4.79821 0)
(0 -4.7819 0)
(0 -4.76011 0)
(0 -4.75858 0)
(0 -4.72812 0)
(0 -4.71573 0)
(0 -4.71976 0)
(0 -4.69602 0)
(0 -4.68672 0)
(0 -4.672 0)
(0 -4.64968 0)
(0 -4.65903 0)
(0 -4.64131 0)
(0 -4.61573 0)
(0 -4.60034 0)
(0 -4.59254 0)
(0 -4.57559 0)
(0 -4.54882 0)
(0 -4.55657 0)
(0 -4.55216 0)
(0 -4.53398 0)
(0 -4.53009 0)
(0 -4.51158 0)
(0 -4.50197 0)
(0 -4.49869 0)
(0 -4.52797 0)
(0 -4.62156 0)
(0 -4.75984 0)
(0 -4.96647 0)
(0 -5.22698 0)
(0 -5.35737 0)
(0 -5.07145 0)
(0 -5.10542 0)
(0 -8.74171 0)
(0 -9.85472 0)
(0 -2.7212 0)
(0 -0.905271 0)
(0 -4.29601 0)
(0 -3.82568 0)
(0 -2.799 0)
(0 -3.04287 0)
(0 -6.93648 0)
(0 -7.21479 0)
(0 -2.94468 0)
(0 0 0)
(0 0 0)
(0 0 0)
(0 0 0)
(0 0 0)
(0 0 0)
(0 0 0)
(0 0 0)
(0 0 0)
(0 0 0)
(0 0 0)
(0 0 0)
(0 0 0)
(0 0 0)
(0 0 0)
(0 0 0)
(0 0 0)
(0 0 0)
(0 0 0)
(0 0 0)
(0 0 0)
(0 0 0)
(0 0 0)
(0 0 0)
(0 0 0)
(0 0 0)
(0 0 0)
(0 0 0)
(0 0 0)
(0 0 0)
(0 0 0)
(0 0 0)
(0 0 0)
(0 0 0)
(0 0 0)
(0 0 0)
(0 0 0)
(0 0 0)
(0 0 0)
(0 0 0)
(0 0 0)
(0 0 0)
(0 0 0)
(0 0 0)
(0 0 0)
(0 0 0)
(0 0 0)
(0 0 0)
(0 0 0)
(0 0 0)
(0 0 0)
(0 0 0)
(0 0 0)
(0 0 0)
(0 0 0)
(0 0 0)
(0 0 0)
(0 0 0)
(0 0 0)
(0 0 0)
(0 0 0)
(0 0 0)
(0 0 0)
(0 0 0)
(0 0 0)
(0 0 0)
(0 0 0)
(0 0 0)
(0 0 0)
(0 0 0)
(0 0 0)
(0 0 0)
(0 0 0)
(0 0 0)
(0 0 0)
(0 0 0)
(0 0 0)
(0 0 0)
(0 0 0)
(0 0 0)
(0 0 0)
(0 0 0)
(0 0 0)
(0 0 0)
(0 0 0)
(0 0 0)
(0 0 0)
(0 0 0)
(0 0 0)
(0 0 0)
(0 0 0)
(0 0 0)
(0 0 0)
(0 0 0)
(0 0 0)
(0 0 0)
(0 0 0)
(0 0 0)
(0 0 0)
(0 0 0)
(0 0 0)
(0 0 0)
(0 0 0)
(0 0 0)
(0 0 0)
(0 0 0)
(0 0 0)
(0 0 0)
(0 0 0)
(0 0 0)
(0 0 0)
(0 0 0)
(0 0 0)
(0 0 0)
(0 0 0)
(0 0 0)
(0 0 0)
(0 0 0)
(0 0 0)
(0 0 0)
(0 0 0)
(0 0 0)
(0 0 0)
(0 0 0)
(0 0 0)
(0 0 0)
(0 0 0)
(0 0 0)
(0 0 0)
(0 0 0)
(0 0 0)
(0 0 0)
(0 0 0)
(0 0 0)
(0 0 0)
(0 0 0)
(0 0 0)
(0 0 0)
(0 0 0)
(0 0 0)
(0 0 0)
(0 0 0)
(0 0 0)
(0 0 0)
(0 0 0)
(0 0 0)
(0 0 0)
(0 0 0)
(0 0 0)
(0 0 0)
(0 0 0)
(0 0 0)
(0 0 0)
(0 0 0)
(0 0 0)
(0 0 0)
(0 0 0)
(0 0 0)
(0 0 0)
(0 0 0)
(0 0 0)
(0 0 0)
(0 0 0)
(0 0 0)
(0 0 0)
(0 0 0)
(0 0 0)
(0 0 0)
(0 0 0)
(0 0 0)
(0 0 0)
(0 0 0)
(0 0 0)
(0 0 0)
(0 0 0)
(0 0 0)
(0 0 0)
(0 0 0)
(0 0 0)
(0 0 0)
(0 0 0)
(0 0 0)
(0 0 0)
(0 0 0)
(0 0 0)
(0 0 0)
(0 0 0)
(0 0 0)
(0 0 0)
(0 0 0)
(0 0 0)
(0 0 0)
(0 0 0)
(0 0 0)
(0 0 0)
(0 0 0)
(0 0 0)
(0 0 0)
(0 0 0)
(0 0 0)
(0 0 0)
(0 0 0)
(0 0 0)
(0 0 0)
(0 0 0)
(0 0 0)
(0 0 0)
(0 0 0)
(0 0 0)
(0 0 0)
(0 0 0)
(0 0 0)
(0 0 0)
(0 0 0)
(0 0 0)
(0 0 0)
(0 0 0)
(0 0 0)
(0 0 0)
(0 0 0)
(0 0 0)
(0 0 0)
(0 0 0)
(0 0 0)
(0 0 0)
(0 0 0)
(0 0 0)
(0 0 0)
(0 0 0)
(0 0 0)
(0 0 0)
(0 0 0)
(0 0 0)
(0 0 0)
(0 0 0)
(0 0 0)
(0 0 0)
(0 0 0)
(0 0 0)
(0 0 0)
(0 0 0)
(0 0 0)
(0 0 0)
(0 0 0)
(0 0 0)
(0 0 0)
(0 0 0)
(0 0 0)
(0 0 0)
(0 0 0)
(0 0 0)
(0 0 0)
(0 0 0)
(0 0 0)
(0 0 0)
(0 0 0)
(0 0 0)
(0 0 0)
(0 0 0)
(0 0 0)
(0 0 0)
(0 0 0)
(0 0 0)
(0 0 0)
(0 0 0)
(0 0 0)
(0 0 0)
(0 0 0)
(0 0 0)
(0 0 0)
(0 0 0)
(0 0 0)
(0 0 0)
(0 0 0)
(0 0 0)
(0 0 0)
(0 0 0)
(0 0 0)
(0 0 0)
(0 0 0)
(0 0 0)
(0 0 0)
(0 0 0)
(0 0 0)
(0 0 0)
(0 0 0)
(0 0 0)
(0 0 0)
(0 0 0)
(0 0 0)
(0 0 0)
(0 0 0)
(0 0 0)
(0 0 0)
(0 0 0)
(0 0 0)
(0 0 0)
(0 0 0)
(0 0 0)
(0 0 0)
(0 0 0)
(0 0 0)
(0 0 0)
(0 0 0)
(0 0 0)
(0 0 0)
(0 0 0)
(0 0 0)
(0 0 0)
(0 0 0)
(0 0 0)
(0 0 0)
(0 0 0)
(0 0 0)
(0 0 0)
(0 0 0)
(0 0 0)
(0 0 0)
(0 0 0)
(0 0 0)
(0 0 0)
(0 0 0)
(0 0 0)
(0 0 0)
(0 0 0)
(0 0 0)
(0 0 0)
(0 0 0)
(0 0 0)
(0 0 0)
(0 0 0)
(0 0 0)
(0 0 0)
(0 0 0)
(0 0 0)
(0 0 0)
(0 0 0)
(0 0 0)
(0 0 0)
(0 0 0)
(0 0 0)
(0 0 0)
(0 0 0)
(0 0 0)
(0 0 0)
(0 0 0)
(0 0 0)
(0 0 0)
(0 0 0)
(0 0 0)
(0 0 0)
(0 0 0)
(0 0 0)
(0 0 0)
(0 0 0)
(0 0 0)
(0 0 0)
(0 0 0)
(0 0 0)
(0 0 0)
(0 0 0)
(0 0 0)
(0 0 0)
(0 0 0)
(0 0 0)
(0 0 0)
(0 0 0)
(0 0 0)
(0 0 0)
(0 0 0)
(0 0 0)
(0 0 0)
(0 0 0)
(0 0 0)
(0 0 0)
(0 0 0)
(0 0 0)
(0 0 0)
(0 0 0)
(0 0 0)
(0 0 0)
(0 0 0)
(0 0 0)
(0 0 0)
(0 0 0)
(0 0 0)
(0 0 0)
(0 0 0)
(0 0 0)
(0 0 0)
(0 0 0)
(0 0 0)
(0 0 0)
(0 0 0)
(0 0 0)
(0 0 0)
(0 0 0)
(0 0 0)
(0 0 0)
(0 0 0)
(0 0 0)
(0 0 0)
(0 0 0)
(0 0 0)
(0 0 0)
(0 0 0)
)
;

boundaryField
{
    inandouthalf11
    {
        type            cyclic;
    }
    inandouthalf12
    {
        type            cyclic;
    }
    inandouthalf21
    {
        type            cyclic;
    }
    inandouthalf22
    {
        type            cyclic;
    }
    top
    {
        type            calculated;
        value           uniform (0 0 0);
    }
    walls
    {
        type            calculated;
        value           uniform (0 0 0);
    }
    frontAndBackPlanes
    {
        type            empty;
    }
}


// ************************************************************************* //
