/*--------------------------------*- C++ -*----------------------------------*\
| =========                 |                                                 |
| \\      /  F ield         | OpenFOAM: The Open Source CFD Toolbox           |
|  \\    /   O peration     | Version:  2.1.1                                 |
|   \\  /    A nd           | Web:      www.OpenFOAM.org                      |
|    \\/     M anipulation  |                                                 |
\*---------------------------------------------------------------------------*/
FoamFile
{
    version     2.0;
    format      ascii;
    class       volVectorField;
    location    "100";
    object      gradPs;
}
// * * * * * * * * * * * * * * * * * * * * * * * * * * * * * * * * * * * * * //

dimensions      [0 1 -2 0 0 0 0];

internalField   nonuniform List<vector> 
600
(
(0 0 0)
(0 0 0)
(0 5.50112e-15 0)
(0 1.86039e-30 0)
(0 -5.4496e-15 0)
(-3.63335e-33 7.2667e-33 0)
(0 8.88298e-16 0)
(0 -2.55806e-30 0)
(0 -3.56732e-16 0)
(0 9.71645e-16 0)
(-2.90712e-32 1.72014e-16 0)
(0 -9.717e-16 0)
(0 -3.25393e-17 0)
(0 -1.27924e-30 0)
(0 -7.24137e-16 0)
(0 6.18611e-16 0)
(0 7.96656e-16 0)
(-2.90771e-32 -8.4425e-17 0)
(0 6.59161e-17 0)
(0 -2.5656e-16 0)
(0 -8.62673e-16 0)
(0 -2.77713e-16 0)
(0 0 0)
(0 8.02878e-16 0)
(0 4.43832e-16 0)
(-1.45422e-32 -8.0293e-16 0)
(0 -4.43861e-16 0)
(0 2.71145e-16 0)
(0 9.86681e-16 0)
(0 -2.71163e-16 0)
(0 -4.85664e-16 0)
(0 5.08638e-16 0)
(0 1.34912e-16 0)
(0 -5.08674e-16 0)
(0 -6.36077e-16 0)
(0 0 0)
(0 0 0)
(0 1.53016e-18 0)
(0 3.82484e-16 0)
(0 4.12932e-16 0)
(0 -3.62692e-16 0)
(0 1.66126e-16 0)
(2.91021e-32 -1.98225e-17 0)
(0 -5.80664e-16 0)
(0 8.47332e-16 0)
(0 7.43433e-16 0)
(0 -2.30462e-16 0)
(0 -2.80668e-16 0)
(0 -2.1675e-16 0)
(0 -1.83099e-16 0)
(1.45557e-32 5.76405e-16 0)
(0 -2.79787e-16 0)
(0 -7.42182e-16 0)
(0 3.62698e-16 0)
(0 6.09222e-16 0)
(0 4.14876e-16 0)
(0 -8.43893e-16 0)
(0 1.09314e-17 0)
(0 5.62762e-16 0)
(0 -3.20008e-16 0)
(0 -3.13137e-16 0)
(0 1.52602e-16 0)
(0 -2.497e-16 0)
(0 -3.81376e-17 0)
(0 0 0)
(0 -5.8329e-16 0)
(0 6.0259e-16 0)
(0 -1.67811e-29 0)
(0 -3.79629e-16 0)
(0 2.45454e-16 0)
(0 3.57684e-16 0)
(0 2.19847e-16 0)
(0 4.06298e-16 0)
(0 -4.65375e-16 0)
(0 -4.73377e-16 0)
(0 5.96191e-16 0)
(0 3.05694e-17 0)
(0 -5.33979e-16 0)
(0 4.11639e-16 0)
(0 3.34935e-16 0)
(0 -9.56241e-16 0)
(0 -3.97263e-16 0)
(0 9.43343e-16 0)
(0 1.30632e-29 0)
(0 -9.43453e-16 0)
(0 0 0)
(0 2.46268e-16 0)
(0 2.52031e-16 0)
(0 6.53367e-16 0)
(0 6.05863e-16 0)
(0 -5.61817e-17 0)
(0 -8.58033e-16 0)
(0 -8.43703e-16 0)
(0 0 0)
(0 4.15348e-16 0)
(0 7.49603e-16 0)
(0 -2.52565e-17 0)
(0 -4.81096e-16 0)
(0 -3.902e-16 0)
(0 -2.3178e-16 0)
(0 9.60647e-16 0)
(0 8.04743e-16 0)
(0 -3.94751e-16 0)
(0 -8.41738e-16 0)
(0 -5.66117e-16 0)
(0 9.58945e-16 0)
(0 3.98341e-29 0)
(0 -2.17503e-16 0)
(0 -6.1805e-29 0)
(0 -7.41706e-16 0)
(0 7.44251e-16 0)
(0 -4.1369e-29 0)
(0 -1.5686e-17 0)
(0 8.3671e-16 0)
(0 -7.06796e-16 0)
(0 -1.0457e-16 0)
(0 5.50094e-16 0)
(0 -4.6988e-16 0)
(0 -5.72213e-16 0)
(0 -2.59823e-16 0)
(0 7.44159e-16 0)
(0 3.84767e-16 0)
(0 -7.44298e-16 0)
(0 4.56912e-16 0)
(0 4.39783e-16 0)
(0 -4.59431e-16 0)
(0 -4.3987e-16 0)
(0 3.48369e-16 0)
(0 -8.18138e-29 0)
(0 -3.5609e-16 0)
(0 6.12772e-16 0)
(0 -3.77829e-16 0)
(0 3.33849e-16 0)
(0 5.80597e-16 0)
(0 -9.46965e-16 0)
(0 3.53703e-16 0)
(0 1.8686e-16 0)
(0 -7.04859e-16 0)
(0 -1.86904e-16 0)
(0 2.27684e-17 0)
(0 2.34649e-16 0)
(0 5.47113e-16 0)
(0 -2.34709e-16 0)
(0 -3.11685e-16 0)
(0 7.6508e-16 0)
(0 1.83087e-16 0)
(0 -3.62056e-16 0)
(0 1.58296e-16 0)
(0 -2.57957e-16 0)
(0 -8.30269e-16 0)
(0 -1.45439e-16 0)
(0 5.7827e-16 0)
(0 -8.04223e-29 0)
(0 -3.38892e-17 0)
(0 8.75168e-16 0)
(0 2.32191e-16 0)
(0 4.24447e-17 0)
(0 -7.77218e-16 0)
(0 -9.1825e-16 0)
(0 0 0)
(0 6.64702e-16 0)
(0 -3.70427e-29 0)
(0 -6.64973e-16 0)
(0 4.09422e-16 0)
(0 4.75281e-16 0)
(0 -4.09604e-16 0)
(0 1.93036e-16 0)
(0 7.35107e-16 0)
(0 -6.68862e-16 0)
(0 3.41962e-15 0)
(0 3.45844e-15 0)
(0 -4.15739e-15 0)
(0 5.95667e-14 0)
(0 1.65047e-13 0)
(0 3.09439e-13 0)
(0 1.52664e-12 0)
(0 1.89802e-12 0)
(0 -1.69306e-12 0)
(0 1.11067e-11 0)
(0 1.26623e-10 0)
(0 -1.33931e-11 0)
(0 1.44673e-09 0)
(0 4.39584e-23 0)
(0 2.36869e-08 0)
(0 1.8942e-07 0)
(0 2.30943e-06 0)
(0 1.30991e-05 0)
(0 0.000154642 0)
(0 -1.33175e-05 0)
(0 0.0236377 0)
(0 0.422675 0)
(0 2.25088 0)
(0 3.26436 0)
(0 3.12242 0)
(0 1.42821 0)
(0 -0.567165 0)
(0 -1.38272 0)
(0 -1.83274 0)
(0 -2.03936 0)
(0 -2.00098 0)
(0 -1.94543 0)
(0 -1.88416 0)
(0 -1.81636 0)
(0 -1.74568 0)
(0 -1.67487 0)
(0 -1.60566 0)
(0 -1.53907 0)
(0 -1.47565 0)
(0 -1.41567 0)
(0 -1.35917 0)
(0 -1.30611 0)
(0 -1.25636 0)
(0 -1.20975 0)
(0 -1.16609 0)
(0 -1.1252 0)
(0 -1.08688 0)
(0 -1.05095 0)
(0 -1.01722 0)
(0 -0.985525 0)
(0 -0.955718 0)
(0 -0.927651 0)
(0 -0.901192 0)
(0 -0.87622 0)
(0 -0.852622 0)
(0 -0.830297 0)
(0 -0.80915 0)
(0 -0.789097 0)
(0 -0.770058 0)
(0 -0.751963 0)
(0 -0.734745 0)
(0 -0.718345 0)
(0 -0.702708 0)
(0 -0.687781 0)
(0 -0.67352 0)
(0 -0.65988 0)
(0 -0.646823 0)
(0 -0.634313 0)
(0 -0.622314 0)
(0 -0.610797 0)
(0 -0.599732 0)
(0 -0.589093 0)
(0 -0.578854 0)
(0 -0.568994 0)
(0 -0.55949 0)
(0 -0.550322 0)
(0 -0.541472 0)
(0 -0.532923 0)
(0 -0.524658 0)
(0 -0.516661 0)
(0 -0.508919 0)
(0 -0.501418 0)
(0 -0.494146 0)
(0 -0.487091 0)
(0 -0.480241 0)
(0 -0.473586 0)
(0 -0.467117 0)
(0 -0.460823 0)
(0 -0.454696 0)
(0 -0.448727 0)
(0 -0.442909 0)
(0 -0.437234 0)
(0 -0.431694 0)
(0 -0.426283 0)
(0 -0.420994 0)
(0 -0.415822 0)
(0 -0.410759 0)
(0 -0.4058 0)
(0 -0.400941 0)
(0 -0.396174 0)
(0 -0.391497 0)
(0 -0.386903 0)
(0 -0.382388 0)
(0 -0.377948 0)
(0 -0.373577 0)
(0 -0.369273 0)
(0 -0.365031 0)
(0 -0.360847 0)
(0 -0.356717 0)
(0 -0.352638 0)
(0 -0.348606 0)
(0 -0.344617 0)
(0 -0.34067 0)
(0 -0.336759 0)
(0 -0.332882 0)
(0 -0.329037 0)
(0 -0.325219 0)
(0 -0.321427 0)
(0 -0.317657 0)
(0 -0.313907 0)
(0 -0.310175 0)
(0 -0.306458 0)
(0 -0.302753 0)
(0 -0.299059 0)
(0 -0.295372 0)
(0 -0.291692 0)
(0 -0.288017 0)
(0 -0.284343 0)
(0 -0.280671 0)
(0 -0.276998 0)
(0 -0.273322 0)
(0 -0.269644 0)
(0 -0.26596 0)
(0 -0.262272 0)
(0 -0.258577 0)
(0 -0.254875 0)
(0 -0.251165 0)
(0 -0.247448 0)
(0 -0.243723 0)
(0 -0.23999 0)
(0 -0.23625 0)
(0 -0.232503 0)
(0 -0.228749 0)
(0 -0.22499 0)
(0 -0.221226 0)
(0 -0.217459 0)
(0 -0.213691 0)
(0 -0.209922 0)
(0 -0.206154 0)
(0 -0.20239 0)
(0 -0.198632 0)
(0 -0.194881 0)
(0 -0.191141 0)
(0 -0.187413 0)
(0 -0.183701 0)
(0 -0.180006 0)
(0 -0.176332 0)
(0 -0.172682 0)
(0 -0.169058 0)
(0 -0.165464 0)
(0 -0.161901 0)
(0 -0.158373 0)
(0 -0.154882 0)
(0 -0.151432 0)
(0 -0.148024 0)
(0 -0.144662 0)
(0 -0.141347 0)
(0 -0.138082 0)
(0 -0.134869 0)
(0 -0.131709 0)
(0 -0.128605 0)
(0 -0.125558 0)
(0 -0.12257 0)
(0 -0.119641 0)
(-1.91513e-16 -0.116773 0)
(0 -0.113967 0)
(0 -0.111223 0)
(0 -0.108542 0)
(0 -0.105924 0)
(0 -0.10337 0)
(0 -0.100879 0)
(0 -0.0984508 0)
(0 -0.0960862 0)
(0 -0.0937843 0)
(0 -0.0915447 0)
(0 -0.0893666 0)
(0 -0.0872496 0)
(0 -0.0851927 0)
(0 -0.0831951 0)
(0 -0.0812558 0)
(0 -0.079374 0)
(0 -0.0775486 0)
(0 -0.0757784 0)
(0 -0.0740624 0)
(0 -0.0723995 0)
(0 -0.0707885 0)
(0 -0.0692283 0)
(0 -0.0677176 0)
(0 -0.0662555 0)
(0 -0.0648409 0)
(0 -0.0634723 0)
(0 -0.0621486 0)
(0 -0.0608689 0)
(0 -0.0596321 0)
(0 -0.0584371 0)
(0 -0.0572829 0)
(0 -0.0561685 0)
(0 -0.0550929 0)
(0 -0.0540553 0)
(0 -0.0530547 0)
(0 -0.0520902 0)
(0 -0.0511611 0)
(0 -0.0502666 0)
(0 -0.0494058 0)
(0 -0.0485783 0)
(0 -0.0477832 0)
(0 -0.0470199 0)
(0 -0.046288 0)
(0 -0.0455867 0)
(0 -0.0449157 0)
(0 -0.0442745 0)
(0 -0.0436626 0)
(0 -0.0430797 0)
(0 -0.0425255 0)
(0 -0.0419996 0)
(0 -0.0415018 0)
(0 -0.0410319 0)
(0 -0.0405898 0)
(0 -0.0401752 0)
(0 -0.0397881 0)
(0 -0.0394286 0)
(0 -0.0390964 0)
(0 -0.0387919 0)
(0 -0.0385149 0)
(0 -0.0382656 0)
(0 -0.0380443 0)
(0 -0.0378512 0)
(0 -0.0376864 0)
(0 -0.0375504 0)
(0 -0.0374434 0)
(0 -0.037366 0)
(0 -0.0373186 0)
(0 -0.0373017 0)
(0 -0.0373158 0)
(0 -0.0373616 0)
(0 -0.0374398 0)
(0 -0.0375512 0)
(0 -0.0376964 0)
(0 -0.0378765 0)
(0 -0.0380924 0)
(0 -0.0383451 0)
(0 -0.0386356 0)
(0 -0.0389652 0)
(0 -0.0393351 0)
(0 -0.0397467 0)
(0 -0.0402013 0)
(0 -0.0407007 0)
(0 -0.0412463 0)
(0 -0.0418399 0)
(0 -0.0424833 0)
(0 -0.0431786 0)
(0 -0.0439276 0)
(0 -0.0447325 0)
(0 -0.0455956 0)
(0 -0.0465192 0)
(0 -0.0475056 0)
(0 -0.0485574 0)
(0 -0.0496771 0)
(0 -0.0508672 0)
(0 -0.0521306 0)
(0 -0.0534699 0)
(0 -0.0548879 0)
(0 -0.0563877 0)
(0 -0.0579721 0)
(0 -0.0596447 0)
(0 -0.0614091 0)
(0 -0.06327 0)
(0 -0.0652334 0)
(0 -0.0673089 0)
(0 -0.0695137 0)
(0 -0.0718929 0)
(0 -0.0741947 0)
(0 -0.0759803 0)
(0 -0.0773811 0)
(0 -0.0787855 0)
(0 -0.0802777 0)
(0 -0.0818245 0)
(0 -0.0834117 0)
(0 -0.085025 0)
(0 -0.0866595 0)
(0 -0.0883016 0)
(0 -0.0899538 0)
(0 -0.091599 0)
(0 -0.0932512 0)
(0 -0.0948852 0)
(0 -0.0965367 0)
(0 -0.098163 0)
(0 -0.0998409 0)
(0 -0.101491 0)
(-1.59119e-16 -0.103268 0)
(0 -0.105021 0)
(0 -0.107046 0)
(0 -0.109015 0)
(0 -0.111512 0)
(0 -0.114084 0)
(0 -0.117937 0)
(0 -0.121096 0)
(0 -0.123952 0)
(0 -0.12299 0)
(0 -4.39091 0)
(0 -4.33546 0)
(0 0 0)
(0 0 0)
(0 0 0)
(0 0 0)
(0 0 0)
(0 0 0)
(0 0 0)
(0 0 0)
(0 0 0)
(0 0 0)
(0 0 0)
(0 0 0)
(0 0 0)
(0 0 0)
(0 0 0)
(0 0 0)
(0 0 0)
(0 0 0)
(0 0 0)
(0 0 0)
(0 0 0)
(0 0 0)
(0 0 0)
(0 0 0)
(0 0 0)
(0 0 0)
(0 0 0)
(0 0 0)
(0 0 0)
(0 0 0)
(0 0 0)
(0 0 0)
(0 0 0)
(0 0 0)
(0 0 0)
(0 0 0)
(0 0 0)
(0 0 0)
(0 0 0)
(0 0 0)
(0 0 0)
(0 0 0)
(0 0 0)
(0 0 0)
(0 0 0)
(0 0 0)
(0 0 0)
(0 0 0)
(0 0 0)
(0 0 0)
(0 0 0)
(0 0 0)
(0 0 0)
(0 0 0)
(0 0 0)
(0 0 0)
(0 0 0)
(0 0 0)
(0 0 0)
(0 0 0)
(0 0 0)
(0 0 0)
(0 0 0)
(0 0 0)
(0 0 0)
(0 0 0)
(0 0 0)
(0 0 0)
(0 0 0)
(0 0 0)
(0 0 0)
(0 0 0)
(0 0 0)
(0 0 0)
(0 0 0)
(0 0 0)
(0 0 0)
(0 0 0)
(0 0 0)
(0 0 0)
(0 0 0)
(0 0 0)
(0 0 0)
(0 0 0)
(0 0 0)
(0 0 0)
(0 0 0)
(0 0 0)
(0 0 0)
(0 0 0)
(0 0 0)
(0 0 0)
(0 0 0)
(0 0 0)
(0 0 0)
(0 0 0)
(0 0 0)
(0 0 0)
(0 0 0)
(0 0 0)
(0 0 0)
(0 0 0)
(0 0 0)
(0 0 0)
(0 0 0)
(0 0 0)
(0 0 0)
(0 0 0)
(0 0 0)
(0 0 0)
(0 0 0)
(0 0 0)
(0 0 0)
(0 0 0)
(0 0 0)
(0 0 0)
(0 0 0)
(0 0 0)
(0 0 0)
(0 0.00411448 0)
)
;

boundaryField
{
    inandouthalf11
    {
        type            cyclic;
    }
    inandouthalf12
    {
        type            cyclic;
    }
    inandouthalf21
    {
        type            cyclic;
    }
    inandouthalf22
    {
        type            cyclic;
    }
    top
    {
        type            calculated;
        value           uniform (0 0.00822895 0);
    }
    walls
    {
        type            calculated;
        value           uniform (0 0 0);
    }
    frontAndBackPlanes
    {
        type            empty;
    }
}


// ************************************************************************* //
