/*--------------------------------*- C++ -*----------------------------------*\
| =========                 |                                                 |
| \\      /  F ield         | OpenFOAM: The Open Source CFD Toolbox           |
|  \\    /   O peration     | Version:  2.1.1                                 |
|   \\  /    A nd           | Web:      www.OpenFOAM.org                      |
|    \\/     M anipulation  |                                                 |
\*---------------------------------------------------------------------------*/
FoamFile
{
    version     2.0;
    format      ascii;
    class       volScalarField;
    location    "100";
    object      k_0;
}
// * * * * * * * * * * * * * * * * * * * * * * * * * * * * * * * * * * * * * //

dimensions      [0 2 -2 0 0 0 0];

internalField   nonuniform List<scalar> 
600
(
1e-20
1e-20
1.48009e-19
6.68273e-20
3.86895e-20
1.98681e-20
1.10035e-20
1e-20
1e-20
1e-20
1e-20
1e-20
1e-20
1e-20
1e-20
1e-20
1e-20
1e-20
1e-20
1e-20
1e-20
1e-20
1e-20
1e-20
1e-20
1e-20
1e-20
1e-20
1e-20
1e-20
1e-20
1e-20
1e-20
1e-20
1e-20
1e-20
1e-20
1e-20
1e-20
1e-20
1e-20
1e-20
1e-20
1e-20
1e-20
1e-20
1e-20
1e-20
1e-20
1e-20
1e-20
1e-20
1e-20
1e-20
1e-20
1e-20
1e-20
1e-20
1e-20
1e-20
1e-20
1e-20
1e-20
1e-20
1e-20
1e-20
1e-20
1e-20
1e-20
1e-20
1e-20
1e-20
1e-20
1e-20
1e-20
1e-20
1e-20
1e-20
1e-20
1e-20
1e-20
1e-20
1e-20
1e-20
1e-20
1e-20
1e-20
1e-20
1e-20
1e-20
1e-20
1e-20
1e-20
1e-20
1e-20
1e-20
1e-20
1e-20
1e-20
1e-20
1e-20
1e-20
1e-20
1e-20
1e-20
1e-20
1e-20
1e-20
1e-20
1e-20
1e-20
1e-20
1e-20
1e-20
1e-20
1e-20
1e-20
1e-20
1e-20
1e-20
1e-20
1e-20
1e-20
1e-20
1e-20
1e-20
1e-20
1e-20
1e-20
1e-20
1e-20
1e-20
1e-20
1e-20
1e-20
1e-20
1e-20
1e-20
1e-20
1e-20
1e-20
1e-20
1e-20
1e-20
1e-20
1e-20
1e-20
1e-20
1e-20
1e-20
1e-20
1e-20
1e-20
1e-20
1e-20
1e-20
1e-20
1e-20
1e-20
1e-20
1e-20
1e-20
1e-20
1e-20
1e-20
1e-20
1e-20
1e-20
1.08179e-20
1.9994e-20
4.63798e-20
1.15406e-19
2.96905e-19
7.85948e-19
2.14527e-18
6.06067e-18
1.78053e-17
5.46911e-17
1.76651e-16
6.03808e-16
2.19886e-15
8.58766e-15
3.62157e-14
1.66784e-13
8.55976e-13
4.87097e-12
3.04487e-11
2.17326e-10
1.8086e-09
1.75943e-08
2.02547e-07
2.78706e-06
4.44501e-05
0.000591413
0.0019204
0.00278296
0.00333065
0.00370581
0.00397474
0.00417439
0.00432643
0.00444321
0.00453349
0.00460353
0.0046579
0.00469992
0.00473211
0.00475633
0.00477405
0.00478636
0.00479414
0.00479809
0.00479875
0.00479658
0.00479193
0.00478512
0.00477638
0.00476592
0.00475394
0.00474056
0.00472594
0.00471017
0.00469336
0.00467559
0.00465694
0.00463747
0.00461726
0.00459634
0.00457478
0.00455261
0.00452988
0.00450662
0.00448286
0.00445864
0.00443399
0.00440892
0.00438347
0.00435766
0.00433151
0.00430504
0.00427826
0.0042512
0.00422387
0.00419628
0.00416845
0.0041404
0.00411212
0.00408365
0.00405498
0.00402613
0.00399711
0.00396794
0.0039386
0.00390913
0.00387952
0.00384979
0.00381994
0.00378999
0.00375993
0.00372977
0.00369954
0.00366922
0.00363883
0.00360837
0.00357786
0.00354729
0.00351669
0.00348604
0.00345536
0.00342466
0.00339395
0.00336322
0.00333249
0.00330177
0.00327106
0.00324037
0.0032097
0.00317907
0.00314848
0.00311794
0.00308746
0.00305705
0.00302671
0.00299646
0.0029663
0.00293625
0.0029063
0.00287648
0.00284679
0.00281725
0.00278785
0.00275862
0.00272957
0.0027007
0.00267204
0.00264358
0.00261535
0.00258735
0.0025596
0.00253211
0.0025049
0.00247797
0.00245135
0.00242505
0.00239907
0.00237344
0.00234816
0.00232326
0.00229875
0.00227463
0.00225094
0.00222767
0.00220484
0.00218247
0.00216058
0.00213916
0.00211825
0.00209784
0.00207795
0.0020586
0.00203978
0.00202153
0.00200383
0.00198671
0.00197017
0.00195421
0.00193886
0.0019241
0.00190995
0.00189641
0.00188348
0.00187117
0.00185948
0.00184841
0.00183796
0.00182813
0.00181891
0.00181032
0.00180233
0.00179496
0.0017882
0.00178203
0.00177647
0.0017715
0.00176711
0.00176331
0.00176007
0.00175741
0.00175531
0.00175376
0.00175276
0.00175229
0.00175236
0.00175295
0.00175406
0.00175568
0.00175779
0.00176041
0.00176351
0.00176709
0.00177115
0.00177567
0.00178066
0.00178609
0.00179198
0.00179831
0.00180507
0.00181226
0.00181988
0.00182791
0.00183636
0.00184521
0.00185447
0.00186413
0.00187418
0.00188462
0.00189545
0.00190665
0.00191823
0.00193019
0.00194251
0.00195519
0.00196824
0.00198164
0.00199539
0.00200949
0.00202394
0.00203873
0.00205386
0.00206932
0.00208511
0.00210124
0.00211768
0.00213445
0.00215153
0.00216893
0.00218663
0.00220465
0.00222297
0.00224159
0.0022605
0.00227971
0.00229921
0.002319
0.00233907
0.00235942
0.00238005
0.00240095
0.00242212
0.00244356
0.00246526
0.00248722
0.00250943
0.0025319
0.00255462
0.00257759
0.00260079
0.00262424
0.00264792
0.00267184
0.00269599
0.00272036
0.00274495
0.00276976
0.00279479
0.00282004
0.00284549
0.00287115
0.00289701
0.00292308
0.00294934
0.00297579
0.00300244
0.00302928
0.0030563
0.0030835
0.00311088
0.00313844
0.00316617
0.00319408
0.00322215
0.00325039
0.00327879
0.00330735
0.00333607
0.00336494
0.00339397
0.00342314
0.00345247
0.00348194
0.00351155
0.00354131
0.0035712
0.00360123
0.00363139
0.00366168
0.00369211
0.00372266
0.00375334
0.00378413
0.00381506
0.00384609
0.00387725
0.00390852
0.00393991
0.0039714
0.00400301
0.00403472
0.00406654
0.00409846
0.00413049
0.00416261
0.00419483
0.00422715
0.00425957
0.00429207
0.00432467
0.00435735
0.00439012
0.00442298
0.00445591
0.00448892
0.00452202
0.00455519
0.00458844
0.00462177
0.00465517
0.00468865
0.0047222
0.00475583
0.00478952
0.00482329
0.00485713
0.00489104
0.00492502
0.00495907
0.00499318
0.00502736
0.00506161
0.00509592
0.0051303
0.00516475
0.00519925
0.00523382
0.00526845
0.00530315
0.0053379
0.00537272
0.0054076
0.00544254
0.00547754
0.0055126
0.00554772
0.00558289
0.00561813
0.00565343
0.00568878
0.00572419
0.00575966
0.00579519
0.00583077
0.00586642
0.00590212
0.00593787
0.00597369
0.00600956
0.00604548
0.00608147
0.00611751
0.0061536
0.00618976
0.00622597
0.00626224
0.00629856
0.00633494
0.00637137
0.00640787
0.00644441
0.00648102
0.00651768
0.0065544
0.00659117
0.006628
0.00666489
0.00670183
0.00673883
0.00677589
0.006813
0.00685016
0.00688738
0.00692466
0.00696199
0.00699937
0.00703681
0.0070743
0.00711184
0.00714943
0.00718707
0.00722476
0.0072625
0.00730028
0.0073381
0.00737596
0.00741386
0.00745179
0.00748976
0.00752774
0.00756575
0.00760377
0.00764179
0.00767981
0.00771781
0.00775579
0.00779373
0.00783161
0.00786941
0.0079071
0.00794466
0.00798205
0.00801923
0.00805614
0.00809271
0.00812886
0.00816448
0.00819944
0.00823357
0.00826662
0.00829829
0.00832815
0.00835562
0.00837982
0.00839948
0.0084126
0.0084159
0.0084036
0.00836459
0.00827459
0.00806925
0.00750844
0.00293775
)
;

boundaryField
{
    inandouthalf11
    {
        type            cyclic;
    }
    inandouthalf12
    {
        type            cyclic;
    }
    inandouthalf21
    {
        type            cyclic;
    }
    inandouthalf22
    {
        type            cyclic;
    }
    top
    {
        type            zeroGradient;
    }
    walls
    {
        type            zeroGradient;
    }
    frontAndBackPlanes
    {
        type            empty;
    }
}


// ************************************************************************* //
