/*--------------------------------*- C++ -*----------------------------------*\
| =========                 |                                                 |
| \\      /  F ield         | OpenFOAM: The Open Source CFD Toolbox           |
|  \\    /   O peration     | Version:  2.1.1                                 |
|   \\  /    A nd           | Web:      www.OpenFOAM.org                      |
|    \\/     M anipulation  |                                                 |
\*---------------------------------------------------------------------------*/
FoamFile
{
    version     2.0;
    format      ascii;
    class       volScalarField;
    location    "100";
    object      mua;
}
// * * * * * * * * * * * * * * * * * * * * * * * * * * * * * * * * * * * * * //

dimensions      [1 -1 -1 0 0 0 0];

internalField   nonuniform List<scalar> 
600
(
4.43937e+21
4.71639e+21
6.66418e+21
5.77443e+21
5.46216e+21
5.5436e+21
5.53241e+21
5.47217e+21
5.42902e+21
5.38953e+21
5.34872e+21
5.30583e+21
5.2602e+21
5.21696e+21
5.1715e+21
5.125e+21
5.0786e+21
5.02955e+21
4.97513e+21
4.92186e+21
4.87226e+21
4.81977e+21
4.77208e+21
4.72779e+21
4.68181e+21
4.63768e+21
4.59862e+21
4.56408e+21
4.52984e+21
4.49136e+21
4.45212e+21
4.41508e+21
4.37939e+21
4.34379e+21
4.31129e+21
4.27639e+21
4.23778e+21
4.1968e+21
4.15871e+21
4.12045e+21
4.08293e+21
4.0464e+21
4.01043e+21
3.97827e+21
3.94505e+21
3.90951e+21
3.87248e+21
3.83815e+21
3.80276e+21
3.76586e+21
3.72894e+21
3.69657e+21
3.66551e+21
3.63557e+21
3.60549e+21
3.57289e+21
3.5408e+21
3.51103e+21
3.48154e+21
3.44912e+21
3.41562e+21
3.38156e+21
3.34622e+21
3.3112e+21
3.27324e+21
3.23734e+21
3.20357e+21
3.1741e+21
3.14967e+21
3.12711e+21
3.10168e+21
3.07253e+21
3.03939e+21
3.0058e+21
2.97353e+21
2.94268e+21
2.91479e+21
2.8865e+21
2.8609e+21
2.8361e+21
2.8112e+21
2.78534e+21
2.76055e+21
2.73666e+21
2.71131e+21
2.68478e+21
2.65705e+21
2.63056e+21
2.60539e+21
2.57929e+21
2.55223e+21
2.52359e+21
2.49485e+21
2.46674e+21
2.44191e+21
2.42036e+21
2.39935e+21
2.37765e+21
2.35282e+21
2.3254e+21
2.29881e+21
2.27351e+21
2.24697e+21
2.21933e+21
2.1932e+21
2.16806e+21
2.14179e+21
2.1167e+21
2.09104e+21
2.06713e+21
2.04531e+21
2.02239e+21
1.99663e+21
1.96905e+21
1.94191e+21
1.91513e+21
1.88836e+21
1.86021e+21
1.83341e+21
1.80807e+21
1.78168e+21
1.7553e+21
1.72843e+21
1.70069e+21
1.67299e+21
1.64613e+21
1.61898e+21
1.5929e+21
1.56709e+21
1.54013e+21
1.51203e+21
1.48559e+21
1.46094e+21
1.43703e+21
1.41245e+21
1.38624e+21
1.36012e+21
1.3349e+21
1.30898e+21
1.28412e+21
1.26023e+21
1.23779e+21
1.21629e+21
1.19405e+21
1.17086e+21
1.14768e+21
1.12441e+21
1.1016e+21
1.08015e+21
1.05915e+21
1.03745e+21
1.01481e+21
9.92542e+20
9.70459e+20
9.49204e+20
9.28895e+20
9.08739e+20
8.88796e+20
8.695e+20
8.50291e+20
8.31474e+20
8.12012e+20
7.91791e+20
7.71593e+20
7.51188e+20
7.30078e+20
7.07888e+20
6.84918e+20
6.60757e+20
6.35632e+20
6.12079e+20
5.92574e+20
5.80438e+20
5.79425e+20
5.93143e+20
6.26028e+20
6.83431e+20
7.77076e+20
9.34177e+20
1.21797e+21
1.78024e+21
2.91188e+21
4.28543e+21
2.5122e+21
2.21323e+20
8.18509e+19
1.07926e+20
2.12616e+20
3.64186e+20
6.08894e+20
6.48627e+20
1.4275e+20
0.0173734
0.00540486
0.00425056
0.00384118
0.00355548
0.00332571
0.00311476
0.00294012
0.00279731
0.00267875
0.00257956
0.00249616
0.00242575
0.00236607
0.00231531
0.00227196
0.00223479
0.00220278
0.00217506
0.00215094
0.00212982
0.00211122
0.00209472
0.00207998
0.00206671
0.00205467
0.00204367
0.00203352
0.0020241
0.00201528
0.00200696
0.00199906
0.00199151
0.00198423
0.00197719
0.00197035
0.00196365
0.00195708
0.00195061
0.00194421
0.00193787
0.00193157
0.00192529
0.00191903
0.00191277
0.00190651
0.00190024
0.00189395
0.00188764
0.0018813
0.00187494
0.00186854
0.0018621
0.00185563
0.00184912
0.00184257
0.00183598
0.00182934
0.00182266
0.00181594
0.00180917
0.00180236
0.00179551
0.00178861
0.00178166
0.00177467
0.00176764
0.00176056
0.00175345
0.00174628
0.00173908
0.00173183
0.00172455
0.00171722
0.00170985
0.00170245
0.00169501
0.00168752
0.00168001
0.00167246
0.00166487
0.00165725
0.00164961
0.00164193
0.00163422
0.00162648
0.00161872
0.00161093
0.00160312
0.00159529
0.00158745
0.00157958
0.0015717
0.00156381
0.00155591
0.001548
0.00154008
0.00153216
0.00152424
0.00151633
0.00150842
0.00150053
0.00149264
0.00148477
0.00147693
0.00146911
0.00146131
0.00145355
0.00144583
0.00143815
0.00143051
0.00142293
0.0014154
0.00140793
0.00140053
0.0013932
0.00138595
0.00137878
0.0013717
0.00136471
0.00135781
0.00135103
0.00134435
0.00133779
0.00133135
0.00132503
0.00131885
0.00131281
0.00130691
0.00130115
0.00129555
0.00129011
0.00128483
0.00127971
0.00127477
0.00127
0.0012654
0.00126099
0.00125677
0.00125273
0.00124888
0.00124522
0.00124176
0.00123849
0.00123542
0.00123255
0.00122988
0.0012274
0.00122513
0.00122305
0.00122118
0.0012195
0.00121802
0.00121673
0.00121564
0.00121475
0.00121404
0.00121353
0.0012132
0.00121307
0.00121311
0.00121334
0.00121375
0.00121433
0.00121509
0.00121603
0.00121713
0.0012184
0.00121983
0.00122143
0.00122318
0.00122509
0.00122716
0.00122937
0.00123174
0.00123425
0.0012369
0.00123969
0.00124262
0.00124569
0.00124889
0.00125222
0.00125567
0.00125925
0.00126295
0.00126677
0.00127071
0.00127476
0.00127893
0.0012832
0.00128759
0.00129207
0.00129666
0.00130135
0.00130614
0.00131102
0.001316
0.00132106
0.00132622
0.00133145
0.00133678
0.00134218
0.00134766
0.00135322
0.00135885
0.00136456
0.00137033
0.00137617
0.00138207
0.00138803
0.00139405
0.00140013
0.00140626
0.00141244
0.00141868
0.00142495
0.00143127
0.00143763
0.00144403
0.00145046
0.00145692
0.00146341
0.00146992
0.00147646
0.00148302
0.00148959
0.00149617
0.00150277
0.00150936
0.00151596
0.00152256
0.00152915
0.00153574
0.0015423
0.00154885
0.00155538
0.00156189
0.00156836
0.00157479
0.00158119
0.00158754
0.00159384
0.00160009
0.00160627
0.00161239
0.00161844
0.0016244
0.00163028
0.00163607
0.00164176
0.00164734
0.0016528
0.00165815
0.00166335
0.00166842
0.00167334
0.00167809
0.00168267
0.00168707
0.00169127
0.00169527
0.00169904
0.00170258
0.00170587
0.00170889
0.00171163
0.00171408
0.0017162
0.001718
0.00171945
0.00172054
0.00172124
0.00172155
0.00172146
0.00172095
0.00172
0.00171863
0.00171682
0.00171457
0.00171191
0.00170884
0.00170539
0.0017016
0.00169751
0.0016932
0.00168875
0.00168427
0.00167557
0
0
0
0
0
0
0
0
0
0
0
0
0
0
0
0
0
0
0
0
0
0
0
0
0
0
0
0
0
0
0
0
0
0
0
0
0
0
0
0
0
0
0
0
0
0
0
0
0
0
0
0
0
0
0
0
0
0
0
0
0
0
0
0
0
0
0
0
0
0
0
0
0
0
0
0
0
0
0
0
0
0
0
0
0
0
0
0
0
0
0
0
0
0
0
0
0
0
0
0
0
0
0
0
0
0
0
0
0
0
0
0
0
0
0
0
0
0
0
0
)
;

boundaryField
{
    inandouthalf11
    {
        type            cyclic;
    }
    inandouthalf12
    {
        type            cyclic;
    }
    inandouthalf21
    {
        type            cyclic;
    }
    inandouthalf22
    {
        type            cyclic;
    }
    top
    {
        type            calculated;
        value           uniform 1e+30;
    }
    walls
    {
        type            calculated;
        value           uniform 1e+30;
    }
    frontAndBackPlanes
    {
        type            empty;
    }
}


// ************************************************************************* //
