/*--------------------------------*- C++ -*----------------------------------*\
| =========                 |                                                 |
| \\      /  F ield         | OpenFOAM: The Open Source CFD Toolbox           |
|  \\    /   O peration     | Version:  2.1.1                                 |
|   \\  /    A nd           | Web:      www.OpenFOAM.org                      |
|    \\/     M anipulation  |                                                 |
\*---------------------------------------------------------------------------*/
FoamFile
{
    version     2.0;
    format      ascii;
    class       volScalarField;
    location    "100";
    object      nutb;
}
// * * * * * * * * * * * * * * * * * * * * * * * * * * * * * * * * * * * * * //

dimensions      [0 2 -1 0 0 0 0];

internalField   nonuniform List<scalar> 
600
(
2.08885e-17
5.65471e-17
1.24615e-19
2.94719e-20
1.2377e-20
3.5621e-21
1.09246e-21
9e-22
9e-22
9e-22
9e-22
9e-22
9e-22
9e-22
9e-22
9e-22
9e-22
9e-22
9e-22
9e-22
9e-22
9e-22
9e-22
9e-22
9e-22
9e-22
9e-22
9e-22
9e-22
9e-22
9e-22
9e-22
9e-22
9e-22
9e-22
9e-22
9e-22
9e-22
9e-22
9e-22
9e-22
9e-22
9e-22
9e-22
9e-22
9e-22
9e-22
9e-22
9e-22
9e-22
9e-22
9e-22
9e-22
9e-22
9e-22
9e-22
9e-22
9e-22
9e-22
9e-22
9e-22
9e-22
9e-22
9e-22
9e-22
9e-22
9e-22
9e-22
9e-22
9e-22
9e-22
9e-22
9e-22
9e-22
9e-22
9e-22
9e-22
9e-22
9e-22
9e-22
9e-22
9e-22
9e-22
9e-22
9e-22
9e-22
9e-22
9e-22
9e-22
9e-22
9e-22
9e-22
9e-22
9e-22
9e-22
9e-22
9e-22
9e-22
9e-22
9e-22
9e-22
9e-22
9e-22
9e-22
9e-22
9e-22
9e-22
9e-22
9e-22
9e-22
9e-22
9e-22
9e-22
9e-22
9e-22
9e-22
9e-22
9e-22
9e-22
9e-22
9e-22
9e-22
9e-22
9e-22
9e-22
9e-22
9e-22
9e-22
9e-22
9e-22
9e-22
9e-22
9e-22
9e-22
9e-22
9e-22
9e-22
9e-22
9e-22
9e-22
9e-22
9e-22
9e-22
9e-22
9e-22
9e-22
9e-22
9e-22
9e-22
9e-22
9e-22
9e-22
9e-22
9e-22
9e-22
9e-22
9e-22
9e-22
9e-22
9e-22
9e-22
9e-22
9e-22
9e-22
9e-22
9e-22
9e-22
9e-22
7.57831e-22
1.21406e-21
2.60033e-21
6.04325e-21
1.44861e-20
3.55303e-20
8.92824e-20
2.3061e-19
6.14985e-19
1.70237e-18
4.91891e-18
1.49291e-17
4.79079e-17
1.63485e-16
5.96302e-16
2.35321e-15
1.03571e-14
5.02321e-14
2.61198e-13
1.53251e-12
1.04472e-11
8.25555e-11
7.6576e-10
8.43094e-09
1.0624e-07
1.1628e-06
3.66986e-06
6.09684e-06
8.30055e-06
1.03551e-05
1.23005e-05
1.41757e-05
1.60085e-05
1.78059e-05
1.95739e-05
2.13176e-05
2.30415e-05
2.47491e-05
2.64434e-05
2.81267e-05
2.98008e-05
3.14669e-05
3.31259e-05
3.47782e-05
3.6424e-05
3.80633e-05
3.96958e-05
4.13213e-05
4.29391e-05
4.45489e-05
4.61498e-05
4.77413e-05
4.93227e-05
5.08933e-05
5.24524e-05
5.39993e-05
5.55333e-05
5.70538e-05
5.85602e-05
6.00518e-05
6.15282e-05
6.29886e-05
6.44328e-05
6.58601e-05
6.72701e-05
6.86624e-05
7.00366e-05
7.13924e-05
7.27294e-05
7.40474e-05
7.53461e-05
7.66252e-05
7.78845e-05
7.91238e-05
8.0343e-05
8.15419e-05
8.27204e-05
8.38785e-05
8.50159e-05
8.61328e-05
8.7229e-05
8.83046e-05
8.93595e-05
9.03938e-05
9.14076e-05
9.24009e-05
9.33738e-05
9.43265e-05
9.52589e-05
9.61714e-05
9.7064e-05
9.7937e-05
9.87905e-05
9.96248e-05
0.00010044
0.000101237
0.000102015
0.000102775
0.000103517
0.000104241
0.000104949
0.00010564
0.000106314
0.000106972
0.000107615
0.000108243
0.000108856
0.000109456
0.000110041
0.000110614
0.000111174
0.000111723
0.000112261
0.000112788
0.000113305
0.000113813
0.000114313
0.000114805
0.00011529
0.00011577
0.000116244
0.000116714
0.000117181
0.000117645
0.000118108
0.000118571
0.000119034
0.000119499
0.000119967
0.000120439
0.000120916
0.000121399
0.00012189
0.000122389
0.000122898
0.000123419
0.000123951
0.000124498
0.00012506
0.000125638
0.000126233
0.000126848
0.000127483
0.000128139
0.000128819
0.000129522
0.000130251
0.000131006
0.000131789
0.000132601
0.000133442
0.000134314
0.000135217
0.000136153
0.000137123
0.000138125
0.000139162
0.000140234
0.00014134
0.000142482
0.000143659
0.00014487
0.000146116
0.000147397
0.000148711
0.000150059
0.000151438
0.000152849
0.000154291
0.000155761
0.000157259
0.000158783
0.000160331
0.000161903
0.000163496
0.000165107
0.000166737
0.000168381
0.000170039
0.000171707
0.000173385
0.00017507
0.000176759
0.000178451
0.000180144
0.000181835
0.000183522
0.000185205
0.000186879
0.000188545
0.000190199
0.000191841
0.000193469
0.000195081
0.000196677
0.000198254
0.000199812
0.000201349
0.000202865
0.000204359
0.000205831
0.000207278
0.000208702
0.000210102
0.000211477
0.000212827
0.000214152
0.000215452
0.000216727
0.000217977
0.000219202
0.000220403
0.000221579
0.000222732
0.000223861
0.000224966
0.000226049
0.00022711
0.000228149
0.000229166
0.000230163
0.00023114
0.000232097
0.000233035
0.000233955
0.000234856
0.00023574
0.000236607
0.000237458
0.000238293
0.000239113
0.000239918
0.000240708
0.000241484
0.000242247
0.000242997
0.000243735
0.000244459
0.000245172
0.000245874
0.000246564
0.000247242
0.00024791
0.000248568
0.000249215
0.000249852
0.000250479
0.000251096
0.000251703
0.000252301
0.000252889
0.000253468
0.000254037
0.000254597
0.000255148
0.000255689
0.000256221
0.000256744
0.000257257
0.000257761
0.000258256
0.00025874
0.000259216
0.000259681
0.000260136
0.000260582
0.000261017
0.000261442
0.000261857
0.000262261
0.000262655
0.000263037
0.000263409
0.000263769
0.000264118
0.000264456
0.000264781
0.000265095
0.000265397
0.000265686
0.000265963
0.000266227
0.000266478
0.000266715
0.00026694
0.00026715
0.000267347
0.00026753
0.000267699
0.000267853
0.000267992
0.000268116
0.000268225
0.000268318
0.000268396
0.000268458
0.000268504
0.000268533
0.000268545
0.000268541
0.000268519
0.00026848
0.000268424
0.000268349
0.000268257
0.000268146
0.000268016
0.000267868
0.0002677
0.000267513
0.000267307
0.00026708
0.000266833
0.000266566
0.000266278
0.000265969
0.000265639
0.000265288
0.000264916
0.000264522
0.000264106
0.000263668
0.000263208
0.000262724
0.000262218
0.000261689
0.000261136
0.000260559
0.000259959
0.000259335
0.000258686
0.000258012
0.000257313
0.000256589
0.00025584
0.000255065
0.000254264
0.000253437
0.000252584
0.000251704
0.000250796
0.000249862
0.0002489
0.00024791
0.000246892
0.000245846
0.000244772
0.000243668
0.000242535
0.000241373
0.000240182
0.00023896
0.000237708
0.000236426
0.000235112
0.000233768
0.000232392
0.000230985
0.000229545
0.000228073
0.000226569
0.000225031
0.00022346
0.000221856
0.000220217
0.000218545
0.000216838
0.000215095
0.000213318
0.000211505
0.000209656
0.00020777
0.000205848
0.000203888
0.000201891
0.000199857
0.000197783
0.000195671
0.00019352
0.00019133
0.000189099
0.000186828
0.000184516
0.000182163
0.000179767
0.00017733
0.000174849
0.000172326
0.000169758
0.000167146
0.000164489
0.000161787
0.000159038
0.000156243
0.0001534
0.00015051
0.000147571
0.000144582
0.000141544
0.000138455
0.000135314
0.000132121
0.000128875
0.000125576
0.000122221
0.000118811
0.000115345
0.00011182
0.000108237
0.000104595
0.000100891
9.71254e-05
9.32964e-05
8.94027e-05
8.54427e-05
8.14151e-05
7.73179e-05
7.31495e-05
6.89079e-05
6.45907e-05
6.01957e-05
5.57198e-05
5.116e-05
4.65122e-05
4.17716e-05
3.69317e-05
3.19835e-05
2.69128e-05
2.16935e-05
1.62669e-05
1.04403e-05
1.52146e-06
)
;

boundaryField
{
    inandouthalf11
    {
        type            cyclic;
    }
    inandouthalf12
    {
        type            cyclic;
    }
    inandouthalf21
    {
        type            cyclic;
    }
    inandouthalf22
    {
        type            cyclic;
    }
    top
    {
        type            calculated;
        value           uniform 0;
    }
    walls
    {
        type            calculated;
        value           uniform 0;
    }
    frontAndBackPlanes
    {
        type            empty;
    }
}


// ************************************************************************* //
