/*--------------------------------*- C++ -*----------------------------------*\
| =========                 |                                                 |
| \\      /  F ield         | OpenFOAM: The Open Source CFD Toolbox           |
|  \\    /   O peration     | Version:  2.1.1                                 |
|   \\  /    A nd           | Web:      www.OpenFOAM.org                      |
|    \\/     M anipulation  |                                                 |
\*---------------------------------------------------------------------------*/
FoamFile
{
    version     2.0;
    format      ascii;
    class       volScalarField;
    location    "100";
    object      p;
}
// * * * * * * * * * * * * * * * * * * * * * * * * * * * * * * * * * * * * * //

dimensions      [1 -1 -2 0 0 0 0];

internalField   nonuniform List<scalar> 
600
(
-1.02131e-07
-2.4525
-4.905
-7.3575
-9.81
-12.2625
-14.715
-17.1675
-19.62
-22.0725
-24.525
-26.9775
-29.43
-31.8825
-34.335
-36.7875
-39.24
-41.6925
-44.145
-46.5975
-49.05
-51.5025
-53.955
-56.4075
-58.86
-61.3125
-63.765
-66.2175
-68.67
-71.1225
-73.575
-76.0275
-78.48
-80.9325
-83.385
-85.8375
-88.29
-90.7425
-93.195
-95.6475
-98.1
-100.553
-103.005
-105.458
-107.91
-110.363
-112.815
-115.268
-117.72
-120.173
-122.625
-125.078
-127.53
-129.983
-132.435
-134.888
-137.34
-139.793
-142.245
-144.698
-147.15
-149.603
-152.055
-154.508
-156.96
-159.413
-161.865
-164.318
-166.77
-169.223
-171.675
-174.128
-176.58
-179.033
-181.485
-183.938
-186.39
-188.843
-191.295
-193.748
-196.2
-198.653
-201.105
-203.558
-206.01
-208.463
-210.915
-213.368
-215.82
-218.273
-220.725
-223.178
-225.63
-228.083
-230.535
-232.988
-235.44
-237.893
-240.345
-242.798
-245.25
-247.703
-250.155
-252.608
-255.06
-257.513
-259.965
-262.418
-264.87
-267.323
-269.775
-272.228
-274.68
-277.133
-279.585
-282.038
-284.49
-286.943
-289.395
-291.848
-294.3
-296.753
-299.205
-301.658
-304.11
-306.563
-309.015
-311.468
-313.92
-316.373
-318.825
-321.278
-323.73
-326.183
-328.635
-331.088
-333.54
-335.993
-338.445
-340.898
-343.35
-345.803
-348.255
-350.708
-353.16
-355.613
-358.065
-360.518
-362.97
-365.423
-367.875
-370.328
-372.78
-375.233
-377.685
-380.138
-382.59
-385.043
-387.495
-389.948
-392.4
-394.853
-397.305
-399.758
-402.21
-404.663
-407.115
-409.568
-412.02
-414.473
-416.925
-419.378
-421.83
-424.283
-426.735
-429.188
-431.64
-434.093
-436.545
-438.998
-441.45
-443.903
-446.355
-448.808
-451.26
-453.713
-456.165
-458.618
-461.07
-463.523
-465.975
-468.432
-470.953
-475.093
-480.129
-484.173
-487.761
-491.12
-494.313
-497.432
-500.491
-503.499
-506.465
-509.395
-512.292
-515.159
-518
-520.817
-523.611
-526.384
-529.138
-531.873
-534.592
-537.295
-539.983
-542.658
-545.319
-547.969
-550.607
-553.235
-555.852
-558.461
-561.061
-563.652
-566.236
-568.813
-571.382
-573.946
-576.503
-579.055
-581.601
-584.142
-586.678
-589.21
-591.738
-594.261
-596.781
-599.297
-601.809
-604.318
-606.824
-609.327
-611.828
-614.325
-616.82
-619.313
-621.803
-624.291
-626.777
-629.261
-631.743
-634.223
-636.701
-639.178
-641.653
-644.126
-646.598
-649.069
-651.538
-654.006
-656.472
-658.938
-661.402
-663.865
-666.328
-668.789
-671.249
-673.708
-676.167
-678.624
-681.081
-683.537
-685.992
-688.446
-690.9
-693.353
-695.806
-698.257
-700.709
-703.159
-705.61
-708.059
-710.508
-712.957
-715.405
-717.853
-720.301
-722.748
-725.195
-727.641
-730.087
-732.533
-734.979
-737.424
-739.87
-742.315
-744.759
-747.204
-749.649
-752.093
-754.537
-756.981
-759.425
-761.869
-764.313
-766.757
-769.201
-771.645
-774.089
-776.534
-778.978
-781.422
-783.866
-786.311
-788.755
-791.2
-793.645
-796.09
-798.535
-800.981
-803.426
-805.872
-808.318
-810.764
-813.211
-815.658
-818.105
-820.552
-823
-825.448
-827.896
-830.345
-832.794
-835.243
-837.693
-840.142
-842.593
-845.043
-847.494
-849.945
-852.397
-854.848
-857.3
-859.753
-862.206
-864.659
-867.112
-869.566
-872.02
-874.474
-876.929
-879.384
-881.839
-884.295
-886.75
-889.206
-891.663
-894.12
-896.577
-899.034
-901.491
-903.949
-906.407
-908.865
-911.324
-913.783
-916.242
-918.701
-921.161
-923.621
-926.081
-928.541
-931.001
-933.462
-935.923
-938.384
-940.846
-943.308
-945.769
-948.232
-950.694
-953.156
-955.619
-958.082
-960.545
-963.009
-965.472
-967.936
-970.4
-972.864
-975.329
-977.793
-980.258
-982.723
-985.188
-987.654
-990.119
-992.585
-995.051
-997.517
-999.983
-1002.45
-1004.92
-1007.38
-1009.85
-1012.32
-1014.78
-1017.25
-1019.72
-1022.19
-1024.66
-1027.12
-1029.59
-1032.06
-1034.53
-1037
-1039.47
-1041.94
-1044.41
-1046.87
-1049.34
-1051.81
-1054.28
-1056.75
-1059.22
-1061.69
-1064.16
-1066.63
-1069.1
-1071.58
-1074.05
-1076.52
-1078.99
-1081.46
-1083.93
-1086.4
-1088.87
-1091.34
-1093.82
-1096.29
-1098.76
-1101.23
-1103.7
-1106.18
-1108.65
-1111.12
-1113.59
-1116.07
-1118.54
-1121.01
-1123.48
-1125.96
-1128.43
-1130.9
-1133.38
-1135.85
-1138.32
-1140.8
-1143.27
-1145.74
-1148.22
-1150.69
-1153.16
-1155.64
-1158.11
-1160.59
-1163.06
-1165.53
-1168.01
-1170.48
-1172.96
-1175.43
-1177.91
-1180.38
-1182.85
-1185.33
-1187.8
-1190.28
-1192.75
-1195.23
-1197.7
-1200.18
-1202.65
-1205.13
-1207.6
-1210.08
-1212.55
-1215.03
-1217.5
-1219.98
-1222.45
-1224.93
-1227.4
-1229.88
-1232.36
-1234.83
-1237.31
-1239.78
-1242.26
-1244.73
-1247.21
-1249.68
-1252.16
-1254.64
-1257.11
-1259.59
-1262.06
-1264.54
-1267.02
-1269.49
-1271.97
-1274.44
-1276.92
-1279.4
-1281.87
-1284.35
-1286.83
-1289.3
-1291.78
-1294.25
-1296.73
-1299.21
-1301.68
-1304.16
-1306.64
-1309.11
-1311.59
-1314.07
-1316.54
-1319.02
-1321.5
-1323.97
-1326.45
-1328.93
-1331.4
-1333.88
-1336.36
-1338.84
-1341.31
-1343.79
-1346.27
-1348.74
-1351.22
-1353.7
-1356.18
-1358.65
-1361.13
-1363.61
-1366.09
-1368.56
-1371.04
-1373.52
-1376
-1378.47
-1380.95
-1383.43
-1385.91
-1388.38
-1390.86
-1393.34
-1395.82
-1398.3
-1400.77
-1403.25
-1405.73
-1408.21
-1410.68
-1413.16
-1415.64
-1418.12
-1420.6
-1423.07
-1425.55
-1428.03
-1430.51
-1432.99
-1435.46
-1437.94
-1440.42
-1442.9
-1445.37
-1447.85
-1450.33
-1452.8
-1455.28
-1457.75
-1460.23
-1462.7
-1465.17
-1467.65
-1470.11
-1472.58
-1475.04
-1477.5
-1479.94
-1482.37
-1484.76
-1487.07
-1489.15
-1488.56
)
;

boundaryField
{
    inandouthalf11
    {
        type            cyclic;
    }
    inandouthalf12
    {
        type            cyclic;
    }
    inandouthalf21
    {
        type            cyclic;
    }
    inandouthalf22
    {
        type            cyclic;
    }
    top
    {
        type            slip;
    }
    walls
    {
        type            slip;
    }
    frontAndBackPlanes
    {
        type            empty;
    }
}


// ************************************************************************* //
