/*--------------------------------*- C++ -*----------------------------------*\
| =========                 |                                                 |
| \\      /  F ield         | OpenFOAM: The Open Source CFD Toolbox           |
|  \\    /   O peration     | Version:  2.1.1                                 |
|   \\  /    A nd           | Web:      www.OpenFOAM.org                      |
|    \\/     M anipulation  |                                                 |
\*---------------------------------------------------------------------------*/
FoamFile
{
    version     2.0;
    format      ascii;
    class       volScalarField;
    location    "100";
    object      pa;
}
// * * * * * * * * * * * * * * * * * * * * * * * * * * * * * * * * * * * * * //

dimensions      [1 -1 -2 0 0 0 0];

internalField   nonuniform List<scalar> 
600
(
0
0
0
4.45052e-15
0
4.28063e-17
0
7.61253e-16
0
4.72747e-16
7.85791e-16
6.11855e-16
0
5.85542e-16
0
0
5.00198e-16
6.44144e-16
4.31938e-16
6.97437e-16
2.24513e-16
0
0
0
6.49034e-16
3.58775e-16
0
0
2.19161e-16
7.97487e-16
0
4.04975e-16
4.11065e-16
5.14003e-16
0
0
0
0
1.23636e-18
3.09034e-16
3.34859e-16
1.60135e-17
4.69068e-16
0
0
6.84459e-16
6.00507e-16
4.98311e-16
3.73816e-16
3.23252e-16
2.25942e-16
7.88747e-16
0
1.89424e-16
2.92872e-16
6.81338e-16
6.27847e-16
0
6.36672e-16
4.54319e-16
3.7834e-16
2.01546e-16
5.01519e-16
0
4.70738e-16
0
0
4.86289e-16
0
1.7996e-16
1.98052e-16
4.68553e-16
3.75424e-16
7.96336e-16
0
4.14476e-16
4.80903e-16
4.39133e-16
5.02281e-17
7.71118e-16
3.20336e-16
0
0
7.60629e-16
0
0
0
1.98522e-16
2.03155e-16
7.25151e-16
6.91464e-16
6.79873e-16
0
0
0
3.34652e-16
6.03926e-16
3.14305e-16
2.16378e-16
0
2.96932e-17
7.73688e-16
6.77773e-16
4.55808e-16
0
0
7.72035e-16
0
5.96953e-16
0
0
5.98954e-16
0
5.86332e-16
6.73196e-16
1.77095e-17
5.89076e-16
4.60189e-16
2.11152e-16
0
2.21369e-18
5.98364e-16
3.11569e-16
0
6.78861e-16
3.53487e-16
3.09617e-16
0
5.89544e-16
0
3.03472e-16
4.9223e-16
0
7.60349e-16
4.66232e-16
0
7.50199e-16
1.50001e-16
1.84443e-16
0
2.02714e-16
1.88272e-16
6.41637e-16
0
3.91652e-16
6.13544e-16
5.38456e-16
3.23279e-16
6.65345e-16
1.16532e-16
0
0
4.6326e-16
0
4.36119e-16
7.00765e-16
6.22007e-16
7.3474e-16
0
0
0
5.31658e-16
0
0
3.27271e-16
3.79832e-16
0
5.34031e-16
5.87068e-16
0
3.31664e-15
2.75981e-15
0
5.02664e-14
1.31591e-13
2.96902e-13
1.34798e-12
1.80865e-12
0
1.06478e-11
1.00723e-10
0
1.25022e-09
0
2.00463e-08
1.50019e-07
1.84621e-06
1.05131e-05
0.000124075
0
0.0187662
0.333045
1.78965
2.87973
3.45501
3.44816
3.25953
3.01785
2.73594
2.47916
2.24808
2.0401
1.85357
1.68665
1.53742
1.404
1.28463
1.17771
1.0818
0.995627
0.91805
0.848078
0.784838
0.727566
0.675592
0.62833
0.585267
0.545951
0.509987
0.477028
0.446767
0.418933
0.393289
0.369621
0.347743
0.327488
0.308707
0.291268
0.275052
0.259954
0.245878
0.232739
0.22046
0.208971
0.198209
0.188118
0.178646
0.169747
0.161378
0.1535
0.146078
0.139079
0.132474
0.126237
0.120341
0.114765
0.109487
0.104489
0.0997515
0.095259
0.0909962
0.086949
0.0831044
0.0794503
0.0759755
0.0726697
0.069523
0.0665265
0.0636719
0.0609512
0.0583572
0.055883
0.0535222
0.0512689
0.0491175
0.0470626
0.0450994
0.0432233
0.0414298
0.039715
0.0380749
0.0365059
0.0350047
0.033568
0.0321928
0.0308762
0.0296155
0.0284081
0.0272516
0.0261438
0.0250824
0.0240654
0.0230909
0.0221569
0.0212618
0.0204039
0.0195815
0.0187932
0.0180376
0.0173132
0.0166188
0.0159532
0.0153151
0.0147034
0.0141171
0.0135551
0.0130164
0.0125002
0.0120054
0.0115313
0.0110771
0.0106419
0.0102249
0.00982555
0.00944305
0.00907674
0.00872599
0.00839019
0.00806875
0.00776109
0.00746667
0.00718496
0.00691547
0.00665769
0.00641116
0.00617544
0.00595007
0.00573464
0.00552875
0.005332
0.00514402
0.00496444
0.00479291
0.00462909
0.00447266
0.0043233
0.00418071
0.00404459
0.00391467
0.00379067
0.00367232
0.00355938
0.00345161
0.00334876
0.00325063
0.00315698
0.00306762
0.00298235
0.00290096
0.0028233
0.00274916
0.0026784
0.00261085
0.00254635
0.00248475
0.00242593
0.00236974
0.00231606
0.00226476
0.00221572
0.00216885
0.00212403
0.00208115
0.00204014
0.00200088
0.00196331
0.00192733
0.00189287
0.00185985
0.00182821
0.00179787
0.00176878
0.00174087
0.00171408
0.00168836
0.00166367
0.00163994
0.00161714
0.00159521
0.00157413
0.00155384
0.00153431
0.00151551
0.00149739
0.00147994
0.00146311
0.00144688
0.00143121
0.0014161
0.0014015
0.00138739
0.00137376
0.00136057
0.00134781
0.00133547
0.00132351
0.00131193
0.0013007
0.00128981
0.00127924
0.00126898
0.00125901
0.00124932
0.0012399
0.00123074
0.00122181
0.00121312
0.00120464
0.00119637
0.0011883
0.00118041
0.00117271
0.00116517
0.00115779
0.00115057
0.00114348
0.00113653
0.0011297
0.001123
0.0011164
0.00110991
0.00110352
0.00109721
0.00109099
0.00108484
0.00107876
0.00107275
0.00106679
0.00106088
0.00105502
0.0010492
0.00104341
0.00103764
0.0010319
0.00102617
0.00102045
0.00101474
0.00100902
0.0010033
0.000997555
0.000991796
0.000986011
0.000980195
0.000974341
0.000968444
0.000962498
0.000956497
0.000950434
0.000944304
0.000938101
0.000931817
0.000925448
0.000918987
0.000912427
0.000905762
0.000898987
0.000892093
0.000885074
0.000877922
0.000870627
0.000863174
0.000855603
0.000847987
0.000840335
0.000832639
0.000824895
0.000817099
0.000809251
0.00080135
0.000793396
0.000785392
0.000777336
0.000769236
0.000761085
0.000752896
0.000744657
0.000736386
0.000728059
0.000719708
0.000711283
0.000702841
0.000694283
0.000685721
0.000676963
0.000668196
0.00065904
0.000649995
0.000640603
0.000631892
0
0
0
0
0
0
0
0
0
0
0
0
0
0
0
0
0
0
0
0
0
0
0
0
0
0
0
0
0
0
0
0
0
0
0
0
0
0
0
0
0
0
0
0
0
0
0
0
0
0
0
0
0
0
0
0
0
0
0
0
0
0
0
0
0
0
0
0
0
0
0
0
0
0
0
0
0
0
0
0
0
0
0
0
0
0
0
0
0
0
0
0
0
0
0
0
0
0
0
0
0
0
0
0
0
0
0
0
0
0
0
0
0
0
0
0
0
0
0
0
0
)
;

boundaryField
{
    inandouthalf11
    {
        type            cyclic;
    }
    inandouthalf12
    {
        type            cyclic;
    }
    inandouthalf21
    {
        type            cyclic;
    }
    inandouthalf22
    {
        type            cyclic;
    }
    top
    {
        type            calculated;
        value           uniform 3.00686e-08;
    }
    walls
    {
        type            calculated;
        value           uniform 0;
    }
    frontAndBackPlanes
    {
        type            empty;
    }
}


// ************************************************************************* //
