/*--------------------------------*- C++ -*----------------------------------*\
| =========                 |                                                 |
| \\      /  F ield         | OpenFOAM: The Open Source CFD Toolbox           |
|  \\    /   O peration     | Version:  2.1.1                                 |
|   \\  /    A nd           | Web:      www.OpenFOAM.org                      |
|    \\/     M anipulation  |                                                 |
\*---------------------------------------------------------------------------*/
FoamFile
{
    version     2.0;
    format      ascii;
    class       surfaceScalarField;
    location    "100";
    object      phia_0;
}
// * * * * * * * * * * * * * * * * * * * * * * * * * * * * * * * * * * * * * //

dimensions      [0 3 -1 0 0 0 0];

internalField   nonuniform List<scalar> 
599
(
-2.66404e-29
-5.2924e-29
-7.927e-29
-1.05739e-28
-1.32256e-28
-1.58843e-28
-1.85481e-28
-2.12189e-28
-2.38968e-28
-2.65838e-28
-2.92781e-28
-3.19803e-28
-3.46939e-28
-3.74153e-28
-4.01478e-28
-4.28909e-28
-4.56454e-28
-4.84121e-28
-5.11948e-28
-5.39936e-28
-5.68043e-28
-5.96323e-28
-6.24725e-28
-6.53236e-28
-6.81876e-28
-7.10624e-28
-7.39457e-28
-7.68349e-28
-7.9729e-28
-8.26318e-28
-8.55428e-28
-8.84616e-28
-9.1386e-28
-9.43183e-28
-9.72538e-28
-1.00197e-27
-1.03147e-27
-1.06109e-27
-1.09079e-27
-1.12058e-27
-1.15045e-27
-1.18039e-27
-1.21043e-27
-1.24049e-27
-1.27063e-27
-1.30082e-27
-1.33111e-27
-1.36146e-27
-1.39189e-27
-1.4224e-27
-1.45301e-27
-1.48366e-27
-1.51436e-27
-1.54509e-27
-1.57586e-27
-1.60668e-27
-1.63756e-27
-1.66847e-27
-1.69941e-27
-1.73041e-27
-1.76147e-27
-1.7926e-27
-1.82384e-27
-1.85514e-27
-1.88657e-27
-1.91808e-27
-1.94968e-27
-1.98131e-27
-2.01294e-27
-2.04452e-27
-2.07611e-27
-2.10773e-27
-2.13942e-27
-2.17119e-27
-2.20302e-27
-2.23493e-27
-2.26683e-27
-2.29878e-27
-2.33072e-27
-2.36265e-27
-2.39457e-27
-2.42648e-27
-2.45839e-27
-2.49027e-27
-2.52214e-27
-2.55402e-27
-2.58592e-27
-2.61782e-27
-2.64971e-27
-2.68161e-27
-2.71351e-27
-2.74546e-27
-2.77743e-27
-2.80943e-27
-2.84141e-27
-2.87333e-27
-2.9052e-27
-2.937e-27
-2.96878e-27
-3.00058e-27
-3.03238e-27
-3.06417e-27
-3.09597e-27
-3.12778e-27
-3.15961e-27
-3.1914e-27
-3.22322e-27
-3.255e-27
-3.28678e-27
-3.31853e-27
-3.35022e-27
-3.38185e-27
-3.41348e-27
-3.44513e-27
-3.47679e-27
-3.50848e-27
-3.54016e-27
-3.57189e-27
-3.60364e-27
-3.63536e-27
-3.66711e-27
-3.69886e-27
-3.73063e-27
-3.76244e-27
-3.7943e-27
-3.82616e-27
-3.85807e-27
-3.88999e-27
-3.92192e-27
-3.95388e-27
-3.98591e-27
-4.01795e-27
-4.04999e-27
-4.08201e-27
-4.11401e-27
-4.14604e-27
-4.17811e-27
-4.21017e-27
-4.24227e-27
-4.27437e-27
-4.30645e-27
-4.33848e-27
-4.37042e-27
-4.4023e-27
-4.43415e-27
-4.46595e-27
-4.49772e-27
-4.52943e-27
-4.56106e-27
-4.59258e-27
-4.62401e-27
-4.65539e-27
-4.68669e-27
-4.71791e-27
-4.74902e-27
-4.77999e-27
-4.81081e-27
-4.84146e-27
-4.87191e-27
-4.90218e-27
-4.93221e-27
-4.96203e-27
-4.99167e-27
-5.0211e-27
-5.05035e-27
-5.07941e-27
-5.10834e-27
-5.13716e-27
-5.1659e-27
-5.19463e-27
-5.22324e-27
-5.25156e-27
-5.2792e-27
-5.30562e-27
-5.3302e-27
-5.3523e-27
-5.37147e-27
-5.38735e-27
-5.39971e-27
-5.40852e-27
-5.41408e-27
-5.41719e-27
-5.41919e-27
-5.42153e-27
-5.44411e-27
-5.50899e-27
-5.54397e-27
-5.56393e-27
-5.57274e-27
-5.5766e-27
-5.57888e-27
-5.58188e-27
-6.30334e-11
-2.28077e-10
-5.20159e-11
-5.70296e-12
1.65303e-12
2.65598e-12
2.8587e-12
2.99143e-12
3.33589e-12
3.78669e-12
4.1729e-12
4.45986e-12
4.69063e-12
4.9118e-12
5.14733e-12
5.40305e-12
5.67537e-12
5.95788e-12
6.24466e-12
6.53122e-12
6.81448e-12
7.09251e-12
7.36423e-12
7.62913e-12
7.8871e-12
8.13825e-12
8.38278e-12
8.62096e-12
8.85302e-12
9.07919e-12
9.29966e-12
9.51461e-12
9.7242e-12
9.92859e-12
1.01279e-11
1.03224e-11
1.05121e-11
1.06973e-11
1.08781e-11
1.10548e-11
1.12273e-11
1.13961e-11
1.15612e-11
1.17228e-11
1.18811e-11
1.20362e-11
1.21884e-11
1.23377e-11
1.24844e-11
1.26285e-11
1.27703e-11
1.29097e-11
1.3047e-11
1.31823e-11
1.33157e-11
1.34472e-11
1.3577e-11
1.37052e-11
1.38318e-11
1.3957e-11
1.40809e-11
1.42035e-11
1.43249e-11
1.44452e-11
1.45645e-11
1.46828e-11
1.48003e-11
1.49171e-11
1.50332e-11
1.51488e-11
1.52638e-11
1.53784e-11
1.54928e-11
1.56069e-11
1.57209e-11
1.58349e-11
1.5949e-11
1.60632e-11
1.61778e-11
1.62927e-11
1.64081e-11
1.65241e-11
1.66408e-11
1.67583e-11
1.68767e-11
1.69961e-11
1.71166e-11
1.72383e-11
1.73614e-11
1.74859e-11
1.76119e-11
1.77396e-11
1.7869e-11
1.80003e-11
1.81335e-11
1.82687e-11
1.84061e-11
1.85457e-11
1.86877e-11
1.8832e-11
1.89789e-11
1.91283e-11
1.92803e-11
1.94351e-11
1.95926e-11
1.9753e-11
1.99163e-11
2.00825e-11
2.02517e-11
2.0424e-11
2.05993e-11
2.07776e-11
2.09591e-11
2.11436e-11
2.13312e-11
2.15219e-11
2.17156e-11
2.19124e-11
2.2112e-11
2.23146e-11
2.25201e-11
2.27283e-11
2.29393e-11
2.31528e-11
2.33688e-11
2.35872e-11
2.38078e-11
2.40306e-11
2.42554e-11
2.4482e-11
2.47103e-11
2.49401e-11
2.51713e-11
2.54036e-11
2.5637e-11
2.58712e-11
2.61059e-11
2.63412e-11
2.65767e-11
2.68122e-11
2.70477e-11
2.72828e-11
2.75174e-11
2.77513e-11
2.79845e-11
2.82165e-11
2.84474e-11
2.8677e-11
2.8905e-11
2.91314e-11
2.9356e-11
2.95787e-11
2.97994e-11
3.00179e-11
3.02342e-11
3.04481e-11
3.06596e-11
3.08685e-11
3.10749e-11
3.12786e-11
3.14796e-11
3.16779e-11
3.18733e-11
3.20659e-11
3.22557e-11
3.24426e-11
3.26266e-11
3.28076e-11
3.29858e-11
3.3161e-11
3.33334e-11
3.35028e-11
3.36693e-11
3.38329e-11
3.39936e-11
3.41515e-11
3.43065e-11
3.44587e-11
3.46081e-11
3.47547e-11
3.48985e-11
3.50395e-11
3.51778e-11
3.53134e-11
3.54463e-11
3.55765e-11
3.57041e-11
3.5829e-11
3.59512e-11
3.60709e-11
3.61879e-11
3.63023e-11
3.64141e-11
3.65233e-11
3.663e-11
3.67341e-11
3.68355e-11
3.69345e-11
3.70308e-11
3.71245e-11
3.72157e-11
3.73043e-11
3.73902e-11
3.74736e-11
3.75543e-11
3.76324e-11
3.77078e-11
3.77806e-11
3.78507e-11
3.7918e-11
3.79827e-11
3.80447e-11
3.81039e-11
3.81603e-11
3.82139e-11
3.82647e-11
3.83127e-11
3.83578e-11
3.84e-11
3.84393e-11
3.84756e-11
3.85089e-11
3.85393e-11
3.85665e-11
3.85907e-11
3.86117e-11
3.86294e-11
3.8644e-11
3.86552e-11
3.8663e-11
3.86674e-11
3.86683e-11
3.86655e-11
3.8659e-11
3.86487e-11
3.86344e-11
3.86161e-11
3.85937e-11
3.85669e-11
3.85356e-11
3.84997e-11
3.8459e-11
3.84134e-11
3.83625e-11
3.83062e-11
3.82443e-11
3.81766e-11
3.81026e-11
3.80222e-11
3.7935e-11
3.78405e-11
3.77384e-11
3.7628e-11
3.75086e-11
3.73796e-11
3.724e-11
3.70887e-11
3.69251e-11
3.67425e-11
3.65537e-11
3.63731e-11
3.61978e-11
3.60286e-11
3.58662e-11
3.57108e-11
3.55628e-11
3.54205e-11
3.52833e-11
3.51479e-11
3.50157e-11
3.48891e-11
3.47684e-11
3.46712e-11
3.45443e-11
3.44187e-11
3.4111e-11
3.38479e-11
3.3577e-11
3.40105e-11
3.59243e-11
3.944e-11
4.65174e-11
4.88866e-11
4.51123e-11
1.67264e-11
-1.02454e-11
-3.11836e-10
1.67953e-09
-1.27035e-09
1.31749e-10
4.90978e-11
2.59013e-11
-8.8598e-13
2.26335e-11
4.07436e-11
7.62811e-11
5.93353e-11
2.66528e-11
1.50382e-11
9.4181e-12
9.07224e-12
4.04074e-11
5.48805e-11
4.39605e-11
4.36299e-11
1.68607e-11
2.0466e-11
2.72712e-11
1.93354e-11
3.77257e-11
4.82459e-11
2.69697e-11
3.29977e-11
2.58381e-11
1.54104e-11
3.38662e-11
3.61889e-11
2.69502e-11
4.12197e-11
2.55692e-11
2.42947e-11
3.25928e-11
1.82329e-11
3.92083e-11
2.58802e-11
3.10403e-11
3.07261e-11
2.006e-11
3.52611e-11
2.12452e-11
3.19906e-11
2.65018e-11
2.36774e-11
3.5042e-11
2.15759e-11
2.23847e-11
2.48996e-11
3.22255e-11
2.29452e-11
2.15696e-11
3.14884e-11
2.16141e-11
2.26437e-11
3.09807e-11
1.88271e-11
2.17595e-11
2.95546e-11
2.26054e-11
1.81042e-11
2.36153e-11
2.62143e-11
2.17275e-11
1.91489e-11
2.08057e-11
2.42007e-11
2.19922e-11
1.68966e-11
2.19743e-11
2.29062e-11
1.70002e-11
1.89519e-11
2.16972e-11
1.83836e-11
1.76617e-11
1.85841e-11
1.8627e-11
1.75047e-11
1.7066e-11
1.71888e-11
1.68209e-11
1.63197e-11
1.59258e-11
1.57459e-11
1.52971e-11
1.50412e-11
1.4385e-11
1.45544e-11
1.34815e-11
1.38914e-11
1.27099e-11
1.3064e-11
1.20912e-11
1.20594e-11
1.15176e-11
1.1094e-11
1.07991e-11
1.02315e-11
9.97425e-12
9.40227e-12
9.09125e-12
8.57361e-12
8.18299e-12
7.70947e-12
7.26896e-12
6.80579e-12
6.34028e-12
5.8677e-12
5.38709e-12
4.89864e-12
4.40122e-12
3.89426e-12
3.37625e-12
2.84561e-12
2.29995e-12
1.73595e-12
1.1507e-12
5.7239e-13
)
;

boundaryField
{
    inandouthalf11
    {
        type            cyclic;
        value           nonuniform List<scalar> 
300
(
-1.67494e-39
-7.31254e-31
-1.31893e-30
-1.85603e-30
-2.44984e-30
-3.05532e-30
-3.6561e-30
-4.25987e-30
-4.86836e-30
-5.48045e-30
-6.096e-30
-6.71518e-30
-7.33828e-30
-7.96533e-30
-8.59633e-30
-9.23149e-30
-9.87088e-30
-1.05147e-29
-1.11635e-29
-1.18175e-29
-1.24766e-29
-1.31407e-29
-1.38097e-29
-1.44831e-29
-1.51609e-29
-1.58429e-29
-1.65288e-29
-1.72179e-29
-1.79096e-29
-1.86045e-29
-1.93027e-29
-2.00042e-29
-2.07088e-29
-2.14163e-29
-2.21264e-29
-2.2839e-29
-2.35547e-29
-2.4274e-29
-2.49968e-29
-2.5723e-29
-2.64524e-29
-2.7185e-29
-2.79205e-29
-2.86587e-29
-2.93992e-29
-3.01423e-29
-3.08884e-29
-3.16374e-29
-3.23892e-29
-3.31439e-29
-3.39018e-29
-3.46624e-29
-3.5425e-29
-3.61896e-29
-3.69558e-29
-3.7724e-29
-3.84944e-29
-3.92667e-29
-4.00405e-29
-4.08162e-29
-4.15942e-29
-4.23747e-29
-4.31578e-29
-4.39438e-29
-4.4733e-29
-4.55255e-29
-4.63209e-29
-4.71184e-29
-4.79168e-29
-4.87151e-29
-4.95136e-29
-5.03129e-29
-5.11141e-29
-5.19178e-29
-5.27239e-29
-5.3532e-29
-5.43416e-29
-5.51523e-29
-5.59638e-29
-5.67755e-29
-5.75874e-29
-5.83994e-29
-5.92117e-29
-6.00239e-29
-6.0836e-29
-6.16484e-29
-6.24615e-29
-6.32752e-29
-6.40892e-29
-6.49033e-29
-6.57179e-29
-6.65333e-29
-6.73498e-29
-6.81674e-29
-6.89855e-29
-6.98029e-29
-7.06189e-29
-7.14335e-29
-7.22474e-29
-7.30616e-29
-7.38762e-29
-7.4691e-29
-7.5506e-29
-7.63216e-29
-7.71377e-29
-7.79539e-29
-7.87703e-29
-7.95869e-29
-8.04035e-29
-8.122e-29
-8.20355e-29
-8.28499e-29
-8.3664e-29
-8.44787e-29
-8.52944e-29
-8.6111e-29
-8.69284e-29
-8.7747e-29
-8.8567e-29
-8.93878e-29
-9.02093e-29
-9.10318e-29
-9.18557e-29
-9.26812e-29
-9.35088e-29
-9.43383e-29
-9.51697e-29
-9.60031e-29
-9.68381e-29
-9.76752e-29
-9.85151e-29
-9.93579e-29
-1.00203e-28
-1.01049e-28
-1.01897e-28
-1.02748e-28
-1.03602e-28
-1.04459e-28
-1.05319e-28
-1.06183e-28
-1.0705e-28
-1.07919e-28
-1.08789e-28
-1.09662e-28
-1.10538e-28
-1.11416e-28
-1.12298e-28
-1.13184e-28
-1.14074e-28
-1.14966e-28
-1.15861e-28
-1.16761e-28
-1.17665e-28
-1.18574e-28
-1.19488e-28
-1.20407e-28
-1.2133e-28
-1.22257e-28
-1.23189e-28
-1.24125e-28
-1.25066e-28
-1.26012e-28
-1.26964e-28
-1.27923e-28
-1.28891e-28
-1.29868e-28
-1.30857e-28
-1.31859e-28
-1.32879e-28
-1.33918e-28
-1.34979e-28
-1.36058e-28
-1.37147e-28
-1.38229e-28
-1.3928e-28
-1.40272e-28
-1.41176e-28
-1.41969e-28
-1.42629e-28
-1.43137e-28
-1.43487e-28
-1.43697e-28
-1.43821e-28
-1.43935e-28
-1.44191e-28
-1.46407e-28
-1.499e-28
-1.51963e-28
-1.53081e-28
-1.53706e-28
-1.54158e-28
-1.54828e-28
-1.58785e-28
-2.40428e-08
-6.20472e-08
-9.39016e-08
-1.20416e-07
-1.43089e-07
-1.62873e-07
-1.80452e-07
-1.96195e-07
-2.10409e-07
-2.23338e-07
-2.35174e-07
-2.4607e-07
-2.56151e-07
-2.65518e-07
-2.74256e-07
-2.82436e-07
-2.90117e-07
-2.97351e-07
-3.04182e-07
-3.10647e-07
-3.1678e-07
-3.22609e-07
-3.28161e-07
-3.33458e-07
-3.3852e-07
-3.43365e-07
-3.48009e-07
-3.52466e-07
-3.56749e-07
-3.60871e-07
-3.64841e-07
-3.6867e-07
-3.72366e-07
-3.75938e-07
-3.79392e-07
-3.82736e-07
-3.85976e-07
-3.89117e-07
-3.92165e-07
-3.95124e-07
-3.98e-07
-4.00796e-07
-4.03517e-07
-4.06165e-07
-4.08745e-07
-4.1126e-07
-4.13711e-07
-4.16103e-07
-4.18438e-07
-4.20718e-07
-4.22946e-07
-4.25123e-07
-4.27251e-07
-4.29333e-07
-4.31371e-07
-4.33365e-07
-4.35317e-07
-4.3723e-07
-4.39104e-07
-4.4094e-07
-4.42741e-07
-4.44507e-07
-4.46238e-07
-4.47937e-07
-4.49605e-07
-4.51242e-07
-4.52848e-07
-4.54426e-07
-4.55976e-07
-4.57498e-07
-4.58994e-07
-4.60464e-07
-4.61908e-07
-4.63328e-07
-4.64723e-07
-4.66096e-07
-4.67445e-07
-4.68772e-07
-4.70077e-07
-4.7136e-07
-4.72622e-07
-4.73864e-07
-4.75086e-07
-4.76288e-07
-4.7747e-07
-4.78633e-07
-4.79777e-07
-4.80903e-07
-4.82011e-07
-4.831e-07
-4.84172e-07
-4.85227e-07
-4.86264e-07
-4.87284e-07
-4.88287e-07
-4.89274e-07
-4.90245e-07
-4.91199e-07
-4.92136e-07
-4.93058e-07
-4.93965e-07
-4.94855e-07
-4.9573e-07
-4.96589e-07
-4.97433e-07
-4.98261e-07
-4.99075e-07
)
;
    }
    inandouthalf12
    {
        type            cyclic;
        value           nonuniform List<scalar> 
300
(
1.67494e-39
7.31254e-31
1.31893e-30
1.85603e-30
2.44984e-30
3.05532e-30
3.6561e-30
4.25987e-30
4.86836e-30
5.48045e-30
6.096e-30
6.71518e-30
7.33828e-30
7.96533e-30
8.59633e-30
9.23149e-30
9.87088e-30
1.05147e-29
1.11635e-29
1.18175e-29
1.24766e-29
1.31407e-29
1.38097e-29
1.44831e-29
1.51609e-29
1.58429e-29
1.65288e-29
1.72179e-29
1.79096e-29
1.86045e-29
1.93027e-29
2.00042e-29
2.07088e-29
2.14163e-29
2.21264e-29
2.2839e-29
2.35547e-29
2.4274e-29
2.49968e-29
2.5723e-29
2.64524e-29
2.7185e-29
2.79205e-29
2.86587e-29
2.93992e-29
3.01423e-29
3.08884e-29
3.16374e-29
3.23892e-29
3.31439e-29
3.39018e-29
3.46624e-29
3.5425e-29
3.61896e-29
3.69558e-29
3.7724e-29
3.84944e-29
3.92667e-29
4.00405e-29
4.08162e-29
4.15942e-29
4.23747e-29
4.31578e-29
4.39438e-29
4.4733e-29
4.55255e-29
4.63209e-29
4.71184e-29
4.79168e-29
4.87151e-29
4.95136e-29
5.03129e-29
5.11141e-29
5.19178e-29
5.27239e-29
5.3532e-29
5.43416e-29
5.51523e-29
5.59638e-29
5.67755e-29
5.75874e-29
5.83994e-29
5.92117e-29
6.00239e-29
6.0836e-29
6.16484e-29
6.24615e-29
6.32752e-29
6.40892e-29
6.49033e-29
6.57179e-29
6.65333e-29
6.73498e-29
6.81674e-29
6.89855e-29
6.98029e-29
7.06189e-29
7.14335e-29
7.22474e-29
7.30616e-29
7.38762e-29
7.4691e-29
7.5506e-29
7.63216e-29
7.71377e-29
7.79539e-29
7.87703e-29
7.95869e-29
8.04035e-29
8.122e-29
8.20355e-29
8.28499e-29
8.3664e-29
8.44787e-29
8.52944e-29
8.6111e-29
8.69284e-29
8.7747e-29
8.8567e-29
8.93878e-29
9.02093e-29
9.10318e-29
9.18557e-29
9.26812e-29
9.35088e-29
9.43383e-29
9.51697e-29
9.60031e-29
9.68381e-29
9.76752e-29
9.85151e-29
9.93579e-29
1.00203e-28
1.01049e-28
1.01897e-28
1.02748e-28
1.03602e-28
1.04459e-28
1.05319e-28
1.06183e-28
1.0705e-28
1.07919e-28
1.08789e-28
1.09662e-28
1.10538e-28
1.11416e-28
1.12298e-28
1.13184e-28
1.14074e-28
1.14966e-28
1.15861e-28
1.16761e-28
1.17665e-28
1.18574e-28
1.19488e-28
1.20407e-28
1.2133e-28
1.22257e-28
1.23189e-28
1.24125e-28
1.25066e-28
1.26012e-28
1.26964e-28
1.27923e-28
1.28891e-28
1.29868e-28
1.30857e-28
1.31859e-28
1.32879e-28
1.33918e-28
1.34979e-28
1.36058e-28
1.37147e-28
1.38229e-28
1.3928e-28
1.40272e-28
1.41176e-28
1.41969e-28
1.42629e-28
1.43137e-28
1.43487e-28
1.43697e-28
1.43821e-28
1.43935e-28
1.44191e-28
1.46407e-28
1.499e-28
1.51963e-28
1.53081e-28
1.53706e-28
1.54158e-28
1.54828e-28
1.58785e-28
2.40428e-08
6.20472e-08
9.39016e-08
1.20416e-07
1.43089e-07
1.62873e-07
1.80452e-07
1.96195e-07
2.10409e-07
2.23338e-07
2.35174e-07
2.4607e-07
2.56151e-07
2.65518e-07
2.74256e-07
2.82436e-07
2.90117e-07
2.97351e-07
3.04182e-07
3.10647e-07
3.1678e-07
3.22609e-07
3.28161e-07
3.33458e-07
3.3852e-07
3.43365e-07
3.48009e-07
3.52466e-07
3.56749e-07
3.60871e-07
3.64841e-07
3.6867e-07
3.72366e-07
3.75938e-07
3.79392e-07
3.82736e-07
3.85976e-07
3.89117e-07
3.92165e-07
3.95124e-07
3.98e-07
4.00796e-07
4.03517e-07
4.06165e-07
4.08745e-07
4.1126e-07
4.13711e-07
4.16103e-07
4.18438e-07
4.20718e-07
4.22946e-07
4.25123e-07
4.27251e-07
4.29333e-07
4.31371e-07
4.33365e-07
4.35317e-07
4.3723e-07
4.39104e-07
4.4094e-07
4.42741e-07
4.44507e-07
4.46238e-07
4.47937e-07
4.49605e-07
4.51242e-07
4.52848e-07
4.54426e-07
4.55976e-07
4.57498e-07
4.58994e-07
4.60464e-07
4.61908e-07
4.63328e-07
4.64723e-07
4.66096e-07
4.67445e-07
4.68772e-07
4.70077e-07
4.7136e-07
4.72622e-07
4.73864e-07
4.75086e-07
4.76288e-07
4.7747e-07
4.78633e-07
4.79777e-07
4.80903e-07
4.82011e-07
4.831e-07
4.84172e-07
4.85227e-07
4.86264e-07
4.87284e-07
4.88287e-07
4.89274e-07
4.90245e-07
4.91199e-07
4.92136e-07
4.93058e-07
4.93965e-07
4.94855e-07
4.9573e-07
4.96589e-07
4.97433e-07
4.98261e-07
4.99075e-07
)
;
    }
    inandouthalf21
    {
        type            cyclic;
        value           nonuniform List<scalar> 
300
(
-4.99873e-07
-5.00656e-07
-5.01424e-07
-5.02178e-07
-5.02916e-07
-5.03639e-07
-5.04348e-07
-5.05042e-07
-5.05722e-07
-5.06386e-07
-5.07037e-07
-5.07672e-07
-5.08293e-07
-5.089e-07
-5.09492e-07
-5.1007e-07
-5.10634e-07
-5.11183e-07
-5.11719e-07
-5.1224e-07
-5.12747e-07
-5.1324e-07
-5.1372e-07
-5.14185e-07
-5.14637e-07
-5.15075e-07
-5.155e-07
-5.15911e-07
-5.16309e-07
-5.16694e-07
-5.17066e-07
-5.17425e-07
-5.17771e-07
-5.18104e-07
-5.18426e-07
-5.18734e-07
-5.19031e-07
-5.19316e-07
-5.19588e-07
-5.1985e-07
-5.20099e-07
-5.20338e-07
-5.20565e-07
-5.20781e-07
-5.20987e-07
-5.21181e-07
-5.21366e-07
-5.2154e-07
-5.21704e-07
-5.21858e-07
-5.22003e-07
-5.22138e-07
-5.22263e-07
-5.2238e-07
-5.22487e-07
-5.22585e-07
-5.22675e-07
-5.22756e-07
-5.22828e-07
-5.22892e-07
-5.22948e-07
-5.22996e-07
-5.23036e-07
-5.23068e-07
-5.23093e-07
-5.23109e-07
-5.23119e-07
-5.23121e-07
-5.23116e-07
-5.23103e-07
-5.23084e-07
-5.23057e-07
-5.23024e-07
-5.22983e-07
-5.22936e-07
-5.22883e-07
-5.22823e-07
-5.22756e-07
-5.22683e-07
-5.22603e-07
-5.22517e-07
-5.22425e-07
-5.22326e-07
-5.22222e-07
-5.22111e-07
-5.21994e-07
-5.21871e-07
-5.21742e-07
-5.21607e-07
-5.21467e-07
-5.2132e-07
-5.21168e-07
-5.2101e-07
-5.20846e-07
-5.20676e-07
-5.20501e-07
-5.2032e-07
-5.20134e-07
-5.19942e-07
-5.19744e-07
-5.19541e-07
-5.19332e-07
-5.19118e-07
-5.18899e-07
-5.18674e-07
-5.18444e-07
-5.18209e-07
-5.17969e-07
-5.17723e-07
-5.17472e-07
-5.17216e-07
-5.16955e-07
-5.16688e-07
-5.16417e-07
-5.16141e-07
-5.1586e-07
-5.15574e-07
-5.15283e-07
-5.14988e-07
-5.14687e-07
-5.14382e-07
-5.14073e-07
-5.13759e-07
-5.1344e-07
-5.13117e-07
-5.1279e-07
-5.12459e-07
-5.12123e-07
-5.11783e-07
-5.1144e-07
-5.11092e-07
-5.10741e-07
-5.10386e-07
-5.10027e-07
-5.09666e-07
-5.093e-07
-5.08932e-07
-5.08561e-07
-5.08186e-07
-5.0781e-07
-5.0743e-07
-5.07048e-07
-5.06665e-07
-5.06279e-07
-5.05891e-07
-5.05503e-07
-5.05112e-07
-5.04721e-07
-5.0433e-07
-5.03937e-07
-5.03545e-07
-5.03153e-07
-5.02761e-07
-5.02371e-07
-5.01981e-07
-5.01594e-07
-5.01208e-07
-5.00825e-07
-5.00445e-07
-5.00069e-07
-4.99696e-07
-4.9933e-07
-4.98967e-07
-4.98612e-07
-4.98262e-07
-4.97922e-07
-4.97587e-07
-4.97267e-07
-4.9695e-07
-4.96656e-07
-4.96357e-07
-4.96098e-07
-4.95817e-07
-4.95605e-07
-4.95336e-07
-4.95194e-07
-4.94949e-07
-4.94905e-07
-4.94726e-07
-4.94748e-07
-4.93043e-07
-4.87054e-07
-4.86423e-07
-4.8579e-07
-4.85151e-07
-4.84506e-07
-4.83854e-07
-4.83196e-07
-4.82531e-07
-4.81859e-07
-4.81181e-07
-4.80497e-07
-4.79805e-07
-4.79106e-07
-4.78401e-07
-4.77688e-07
-4.76968e-07
-4.76241e-07
-4.75506e-07
-4.74764e-07
-4.74014e-07
-4.73257e-07
-4.72491e-07
-4.71718e-07
-4.70937e-07
-4.70147e-07
-4.69349e-07
-4.68542e-07
-4.67727e-07
-4.66903e-07
-4.6607e-07
-4.65228e-07
-4.64376e-07
-4.63515e-07
-4.62644e-07
-4.61764e-07
-4.60874e-07
-4.59973e-07
-4.59062e-07
-4.5814e-07
-4.57207e-07
-4.56263e-07
-4.55308e-07
-4.54341e-07
-4.53363e-07
-4.52372e-07
-4.51369e-07
-4.50353e-07
-4.49324e-07
-4.48281e-07
-4.47225e-07
-4.46155e-07
-4.45071e-07
-4.43971e-07
-4.42857e-07
-4.41727e-07
-4.4058e-07
-4.39418e-07
-4.38238e-07
-4.37041e-07
-4.35826e-07
-4.34592e-07
-4.33339e-07
-4.32067e-07
-4.30773e-07
-4.29459e-07
-4.28123e-07
-4.26765e-07
-4.25383e-07
-4.23977e-07
-4.22546e-07
-4.21088e-07
-4.19604e-07
-4.18091e-07
-4.1655e-07
-4.14977e-07
-4.13373e-07
-4.11736e-07
-4.10064e-07
-4.08356e-07
-4.0661e-07
-4.04825e-07
-4.02997e-07
-4.01126e-07
-3.99209e-07
-3.97243e-07
-3.95225e-07
-3.93154e-07
-3.91025e-07
-3.88835e-07
-3.8658e-07
-3.84257e-07
-3.8186e-07
-3.79384e-07
-3.76823e-07
-3.74172e-07
-3.71422e-07
-3.68567e-07
-3.65596e-07
-3.625e-07
-3.59266e-07
-3.55881e-07
-3.52329e-07
-3.48592e-07
-3.44648e-07
-3.4047e-07
-3.36029e-07
-3.31285e-07
-3.26192e-07
-3.20691e-07
-3.14706e-07
-3.0814e-07
-3.00858e-07
-2.92675e-07
-2.83322e-07
-2.72381e-07
-2.59158e-07
-2.42339e-07
-2.18824e-07
-1.89188e-43
)
;
    }
    inandouthalf22
    {
        type            cyclic;
        value           nonuniform List<scalar> 
300
(
4.99873e-07
5.00656e-07
5.01424e-07
5.02178e-07
5.02916e-07
5.03639e-07
5.04348e-07
5.05042e-07
5.05722e-07
5.06386e-07
5.07037e-07
5.07672e-07
5.08293e-07
5.089e-07
5.09492e-07
5.1007e-07
5.10634e-07
5.11183e-07
5.11719e-07
5.1224e-07
5.12747e-07
5.1324e-07
5.1372e-07
5.14185e-07
5.14637e-07
5.15075e-07
5.155e-07
5.15911e-07
5.16309e-07
5.16694e-07
5.17066e-07
5.17425e-07
5.17771e-07
5.18104e-07
5.18426e-07
5.18734e-07
5.19031e-07
5.19316e-07
5.19588e-07
5.1985e-07
5.20099e-07
5.20338e-07
5.20565e-07
5.20781e-07
5.20987e-07
5.21181e-07
5.21366e-07
5.2154e-07
5.21704e-07
5.21858e-07
5.22003e-07
5.22138e-07
5.22263e-07
5.2238e-07
5.22487e-07
5.22585e-07
5.22675e-07
5.22756e-07
5.22828e-07
5.22892e-07
5.22948e-07
5.22996e-07
5.23036e-07
5.23068e-07
5.23093e-07
5.23109e-07
5.23119e-07
5.23121e-07
5.23116e-07
5.23103e-07
5.23084e-07
5.23057e-07
5.23024e-07
5.22983e-07
5.22936e-07
5.22883e-07
5.22823e-07
5.22756e-07
5.22683e-07
5.22603e-07
5.22517e-07
5.22425e-07
5.22326e-07
5.22222e-07
5.22111e-07
5.21994e-07
5.21871e-07
5.21742e-07
5.21607e-07
5.21467e-07
5.2132e-07
5.21168e-07
5.2101e-07
5.20846e-07
5.20676e-07
5.20501e-07
5.2032e-07
5.20134e-07
5.19942e-07
5.19744e-07
5.19541e-07
5.19332e-07
5.19118e-07
5.18899e-07
5.18674e-07
5.18444e-07
5.18209e-07
5.17969e-07
5.17723e-07
5.17472e-07
5.17216e-07
5.16955e-07
5.16688e-07
5.16417e-07
5.16141e-07
5.1586e-07
5.15574e-07
5.15283e-07
5.14988e-07
5.14687e-07
5.14382e-07
5.14073e-07
5.13759e-07
5.1344e-07
5.13117e-07
5.1279e-07
5.12459e-07
5.12123e-07
5.11783e-07
5.1144e-07
5.11092e-07
5.10741e-07
5.10386e-07
5.10027e-07
5.09666e-07
5.093e-07
5.08932e-07
5.08561e-07
5.08186e-07
5.0781e-07
5.0743e-07
5.07048e-07
5.06665e-07
5.06279e-07
5.05891e-07
5.05503e-07
5.05112e-07
5.04721e-07
5.0433e-07
5.03937e-07
5.03545e-07
5.03153e-07
5.02761e-07
5.02371e-07
5.01981e-07
5.01594e-07
5.01208e-07
5.00825e-07
5.00445e-07
5.00069e-07
4.99696e-07
4.9933e-07
4.98967e-07
4.98612e-07
4.98262e-07
4.97922e-07
4.97587e-07
4.97267e-07
4.9695e-07
4.96656e-07
4.96357e-07
4.96098e-07
4.95817e-07
4.95605e-07
4.95336e-07
4.95194e-07
4.94949e-07
4.94905e-07
4.94726e-07
4.94748e-07
4.93043e-07
4.87054e-07
4.86423e-07
4.8579e-07
4.85151e-07
4.84506e-07
4.83854e-07
4.83196e-07
4.82531e-07
4.81859e-07
4.81181e-07
4.80497e-07
4.79805e-07
4.79106e-07
4.78401e-07
4.77688e-07
4.76968e-07
4.76241e-07
4.75506e-07
4.74764e-07
4.74014e-07
4.73257e-07
4.72491e-07
4.71718e-07
4.70937e-07
4.70147e-07
4.69349e-07
4.68542e-07
4.67727e-07
4.66903e-07
4.6607e-07
4.65228e-07
4.64376e-07
4.63515e-07
4.62644e-07
4.61764e-07
4.60874e-07
4.59973e-07
4.59062e-07
4.5814e-07
4.57207e-07
4.56263e-07
4.55308e-07
4.54341e-07
4.53363e-07
4.52372e-07
4.51369e-07
4.50353e-07
4.49324e-07
4.48281e-07
4.47225e-07
4.46155e-07
4.45071e-07
4.43971e-07
4.42857e-07
4.41727e-07
4.4058e-07
4.39418e-07
4.38238e-07
4.37041e-07
4.35826e-07
4.34592e-07
4.33339e-07
4.32067e-07
4.30773e-07
4.29459e-07
4.28123e-07
4.26765e-07
4.25383e-07
4.23977e-07
4.22546e-07
4.21088e-07
4.19604e-07
4.18091e-07
4.1655e-07
4.14977e-07
4.13373e-07
4.11736e-07
4.10064e-07
4.08356e-07
4.0661e-07
4.04825e-07
4.02997e-07
4.01126e-07
3.99209e-07
3.97243e-07
3.95225e-07
3.93154e-07
3.91025e-07
3.88835e-07
3.8658e-07
3.84257e-07
3.8186e-07
3.79384e-07
3.76823e-07
3.74172e-07
3.71422e-07
3.68567e-07
3.65596e-07
3.625e-07
3.59266e-07
3.55881e-07
3.52329e-07
3.48592e-07
3.44648e-07
3.4047e-07
3.36029e-07
3.31285e-07
3.26192e-07
3.20691e-07
3.14706e-07
3.0814e-07
3.00858e-07
2.92675e-07
2.83322e-07
2.72381e-07
2.59158e-07
2.42339e-07
2.18824e-07
1.89188e-43
)
;
    }
    top
    {
        type            fixedValue;
        value           uniform 0;
    }
    walls
    {
        type            fixedValue;
        value           uniform 0;
    }
    frontAndBackPlanes
    {
        type            empty;
        value           nonuniform 0();
    }
}


// ************************************************************************* //
