/*--------------------------------*- C++ -*----------------------------------*\
| =========                 |                                                 |
| \\      /  F ield         | OpenFOAM: The Open Source CFD Toolbox           |
|  \\    /   O peration     | Version:  2.1.1                                 |
|   \\  /    A nd           | Web:      www.OpenFOAM.org                      |
|    \\/     M anipulation  |                                                 |
\*---------------------------------------------------------------------------*/
FoamFile
{
    version     2.0;
    format      ascii;
    class       surfaceScalarField;
    location    "100";
    object      phia;
}
// * * * * * * * * * * * * * * * * * * * * * * * * * * * * * * * * * * * * * //

dimensions      [0 3 -1 0 0 0 0];

internalField   nonuniform List<scalar> 
599
(
-2.66349e-29
-5.2913e-29
-7.92536e-29
-1.05717e-28
-1.32228e-28
-1.5881e-28
-1.85442e-28
-2.12145e-28
-2.38919e-28
-2.65783e-28
-2.92721e-28
-3.19737e-28
-3.46867e-28
-3.74076e-28
-4.01395e-28
-4.2882e-28
-4.5636e-28
-4.84021e-28
-5.11842e-28
-5.39824e-28
-5.67926e-28
-5.962e-28
-6.24596e-28
-6.53101e-28
-6.81735e-28
-7.10478e-28
-7.39304e-28
-7.6819e-28
-7.97125e-28
-8.26147e-28
-8.55252e-28
-8.84433e-28
-9.13672e-28
-9.42988e-28
-9.72337e-28
-1.00176e-27
-1.03126e-27
-1.06087e-27
-1.09056e-27
-1.12034e-27
-1.15021e-27
-1.18015e-27
-1.21018e-27
-1.24024e-27
-1.27036e-27
-1.30055e-27
-1.33084e-27
-1.36118e-27
-1.3916e-27
-1.4221e-27
-1.45271e-27
-1.48335e-27
-1.51405e-27
-1.54477e-27
-1.57553e-27
-1.60635e-27
-1.63722e-27
-1.66812e-27
-1.69906e-27
-1.73005e-27
-1.76111e-27
-1.79223e-27
-1.82346e-27
-1.85475e-27
-1.88618e-27
-1.91769e-27
-1.94928e-27
-1.9809e-27
-2.01252e-27
-2.0441e-27
-2.07568e-27
-2.10729e-27
-2.13898e-27
-2.17074e-27
-2.20257e-27
-2.23446e-27
-2.26636e-27
-2.29831e-27
-2.33024e-27
-2.36216e-27
-2.39407e-27
-2.42598e-27
-2.45788e-27
-2.48975e-27
-2.52162e-27
-2.55349e-27
-2.58538e-27
-2.61728e-27
-2.64917e-27
-2.68106e-27
-2.71295e-27
-2.74489e-27
-2.77685e-27
-2.80885e-27
-2.84082e-27
-2.87274e-27
-2.9046e-27
-2.93639e-27
-2.96816e-27
-2.99996e-27
-3.03175e-27
-3.06354e-27
-3.09533e-27
-3.12714e-27
-3.15895e-27
-3.19074e-27
-3.22255e-27
-3.25432e-27
-3.2861e-27
-3.31785e-27
-3.34952e-27
-3.38115e-27
-3.41277e-27
-3.44442e-27
-3.47608e-27
-3.50775e-27
-3.53943e-27
-3.57115e-27
-3.60289e-27
-3.63461e-27
-3.66635e-27
-3.6981e-27
-3.72986e-27
-3.76166e-27
-3.79351e-27
-3.82537e-27
-3.85728e-27
-3.88919e-27
-3.92111e-27
-3.95306e-27
-3.98508e-27
-4.01712e-27
-4.04915e-27
-4.08116e-27
-4.11316e-27
-4.14518e-27
-4.17725e-27
-4.2093e-27
-4.2414e-27
-4.27349e-27
-4.30556e-27
-4.33758e-27
-4.36952e-27
-4.40139e-27
-4.43323e-27
-4.46503e-27
-4.49679e-27
-4.5285e-27
-4.56011e-27
-4.59163e-27
-4.62306e-27
-4.65443e-27
-4.68572e-27
-4.71694e-27
-4.74804e-27
-4.779e-27
-4.80981e-27
-4.84046e-27
-4.87091e-27
-4.90117e-27
-4.93119e-27
-4.961e-27
-4.99064e-27
-5.02007e-27
-5.0493e-27
-5.07836e-27
-5.10728e-27
-5.13609e-27
-5.16483e-27
-5.19355e-27
-5.22216e-27
-5.25047e-27
-5.27811e-27
-5.30452e-27
-5.3291e-27
-5.3512e-27
-5.37036e-27
-5.38623e-27
-5.3986e-27
-5.40741e-27
-5.41296e-27
-5.41607e-27
-5.41807e-27
-5.42041e-27
-5.44298e-27
-5.50789e-27
-5.54302e-27
-5.5632e-27
-5.57229e-27
-5.57604e-27
-5.57808e-27
-5.57504e-27
2.6185e-10
2.75473e-12
-1.34753e-12
-7.12245e-12
1.08638e-12
2.43014e-12
2.8322e-12
3.00638e-12
3.33109e-12
3.76542e-12
4.15438e-12
4.45129e-12
4.68981e-12
4.91432e-12
5.1501e-12
5.40466e-12
5.67558e-12
5.95697e-12
6.24303e-12
6.52922e-12
6.81238e-12
7.0905e-12
7.36242e-12
7.62758e-12
7.88583e-12
8.13723e-12
8.38198e-12
8.62034e-12
8.85254e-12
9.07881e-12
9.29935e-12
9.51435e-12
9.72398e-12
9.92839e-12
1.01278e-11
1.03222e-11
1.0512e-11
1.06972e-11
1.0878e-11
1.10547e-11
1.12273e-11
1.13961e-11
1.15612e-11
1.17228e-11
1.18811e-11
1.20363e-11
1.21885e-11
1.23379e-11
1.24846e-11
1.26287e-11
1.27705e-11
1.29099e-11
1.30473e-11
1.31825e-11
1.33159e-11
1.34474e-11
1.35772e-11
1.37054e-11
1.38321e-11
1.39573e-11
1.40811e-11
1.42037e-11
1.43251e-11
1.44454e-11
1.45647e-11
1.46831e-11
1.48006e-11
1.49174e-11
1.50335e-11
1.5149e-11
1.5264e-11
1.53787e-11
1.5493e-11
1.56071e-11
1.57212e-11
1.58352e-11
1.59492e-11
1.60635e-11
1.6178e-11
1.6293e-11
1.64084e-11
1.65244e-11
1.66411e-11
1.67585e-11
1.68769e-11
1.69964e-11
1.71169e-11
1.72386e-11
1.73617e-11
1.74862e-11
1.76122e-11
1.77399e-11
1.78693e-11
1.80006e-11
1.81338e-11
1.82691e-11
1.84065e-11
1.85461e-11
1.8688e-11
1.88324e-11
1.89792e-11
1.91286e-11
1.92807e-11
1.94355e-11
1.9593e-11
1.97534e-11
1.99167e-11
2.00829e-11
2.02521e-11
2.04244e-11
2.05997e-11
2.0778e-11
2.09595e-11
2.1144e-11
2.13316e-11
2.15223e-11
2.1716e-11
2.19127e-11
2.21124e-11
2.2315e-11
2.25204e-11
2.27286e-11
2.29396e-11
2.31531e-11
2.33691e-11
2.35875e-11
2.38081e-11
2.40309e-11
2.42556e-11
2.44822e-11
2.47105e-11
2.49403e-11
2.51715e-11
2.54038e-11
2.56371e-11
2.58713e-11
2.61061e-11
2.63413e-11
2.65768e-11
2.68123e-11
2.70477e-11
2.72828e-11
2.75174e-11
2.77514e-11
2.79844e-11
2.82165e-11
2.84474e-11
2.86769e-11
2.89049e-11
2.91313e-11
2.93559e-11
2.95786e-11
2.97993e-11
3.00178e-11
3.0234e-11
3.04479e-11
3.06594e-11
3.08683e-11
3.10747e-11
3.12784e-11
3.14793e-11
3.16776e-11
3.1873e-11
3.20656e-11
3.22554e-11
3.24423e-11
3.26262e-11
3.28073e-11
3.29854e-11
3.31607e-11
3.3333e-11
3.35024e-11
3.36688e-11
3.38324e-11
3.39932e-11
3.4151e-11
3.4306e-11
3.44582e-11
3.46075e-11
3.47541e-11
3.48979e-11
3.50389e-11
3.51772e-11
3.53128e-11
3.54456e-11
3.55758e-11
3.57033e-11
3.58282e-11
3.59504e-11
3.607e-11
3.6187e-11
3.63014e-11
3.64132e-11
3.65224e-11
3.6629e-11
3.6733e-11
3.68345e-11
3.69334e-11
3.70297e-11
3.71235e-11
3.72146e-11
3.73032e-11
3.73892e-11
3.74726e-11
3.75534e-11
3.76315e-11
3.7707e-11
3.77799e-11
3.78501e-11
3.79177e-11
3.79825e-11
3.80447e-11
3.81041e-11
3.81607e-11
3.82146e-11
3.82657e-11
3.83139e-11
3.83593e-11
3.84018e-11
3.84414e-11
3.84781e-11
3.85117e-11
3.85424e-11
3.85699e-11
3.85944e-11
3.86157e-11
3.86338e-11
3.86486e-11
3.86601e-11
3.86682e-11
3.86729e-11
3.86741e-11
3.86717e-11
3.86657e-11
3.86559e-11
3.86422e-11
3.86247e-11
3.86031e-11
3.85773e-11
3.85472e-11
3.85127e-11
3.84736e-11
3.84297e-11
3.83808e-11
3.83267e-11
3.82671e-11
3.82017e-11
3.81301e-11
3.80519e-11
3.79667e-11
3.78738e-11
3.77726e-11
3.76623e-11
3.7542e-11
3.74108e-11
3.72673e-11
3.711e-11
3.69377e-11
3.67424e-11
3.65371e-11
3.63368e-11
3.61369e-11
3.59371e-11
3.57366e-11
3.55342e-11
3.5329e-11
3.51193e-11
3.49046e-11
3.46849e-11
3.44566e-11
3.42233e-11
3.39605e-11
3.36886e-11
3.33519e-11
3.30685e-11
3.28419e-11
3.29795e-11
3.37279e-11
3.49142e-11
3.67513e-11
3.60071e-11
3.19684e-11
2.53548e-11
1.63598e-11
2.4964e-11
2.78489e-11
1.44205e-10
-4.74114e-11
2.18436e-10
1.1555e-10
6.55802e-11
3.2473e-11
5.11527e-12
1.69317e-11
2.23858e-11
6.82712e-11
7.05051e-11
3.72112e-11
2.23573e-11
6.26077e-12
1.10451e-11
2.97685e-11
4.44489e-11
5.07079e-11
4.67651e-11
2.11831e-11
2.59305e-11
1.96519e-11
1.69095e-11
3.98505e-11
3.93372e-11
3.41337e-11
3.86513e-11
1.97529e-11
2.0067e-11
3.54486e-11
2.67733e-11
3.09738e-11
4.24707e-11
2.2278e-11
3.15404e-11
2.60114e-11
2.28095e-11
3.74845e-11
2.20359e-11
3.77321e-11
2.43527e-11
2.61206e-11
3.2161e-11
2.01471e-11
3.56848e-11
1.9909e-11
3.08189e-11
3.07332e-11
1.96325e-11
2.39853e-11
2.73319e-11
3.1497e-11
1.89195e-11
2.60253e-11
3.01753e-11
1.81582e-11
2.75936e-11
2.76329e-11
1.71269e-11
2.5856e-11
2.84644e-11
1.93669e-11
1.97571e-11
2.5722e-11
2.51346e-11
2.01019e-11
1.95418e-11
2.21835e-11
2.45352e-11
1.97848e-11
1.78182e-11
2.38499e-11
2.09621e-11
1.66087e-11
2.0739e-11
2.10275e-11
1.76242e-11
1.81154e-11
1.89077e-11
1.83841e-11
1.73565e-11
1.71567e-11
1.73206e-11
1.66903e-11
1.6329e-11
1.59398e-11
1.57448e-11
1.53527e-11
1.48732e-11
1.46347e-11
1.42783e-11
1.3731e-11
1.36957e-11
1.2827e-11
1.30294e-11
1.20547e-11
1.21322e-11
1.14384e-11
1.11558e-11
1.07571e-11
1.02534e-11
9.96308e-12
9.40606e-12
9.08846e-12
8.5747e-12
8.18067e-12
7.71095e-12
7.26667e-12
6.80659e-12
6.33932e-12
5.86756e-12
5.38669e-12
4.89838e-12
4.40097e-12
3.89403e-12
3.37607e-12
2.84546e-12
2.29982e-12
1.73586e-12
1.15064e-12
5.72361e-13
)
;

boundaryField
{
    inandouthalf11
    {
        type            cyclic;
        value           nonuniform List<scalar> 
300
(
-1.67494e-39
-7.31103e-31
-1.31866e-30
-1.85564e-30
-2.44934e-30
-3.05469e-30
-3.65535e-30
-4.25899e-30
-4.86736e-30
-5.47932e-30
-6.09474e-30
-6.71379e-30
-7.33676e-30
-7.96369e-30
-8.59456e-30
-9.22959e-30
-9.86885e-30
-1.05125e-29
-1.11612e-29
-1.18151e-29
-1.2474e-29
-1.3138e-29
-1.38069e-29
-1.44801e-29
-1.51577e-29
-1.58397e-29
-1.65254e-29
-1.72143e-29
-1.79059e-29
-1.86006e-29
-1.92987e-29
-2.00001e-29
-2.07045e-29
-2.14118e-29
-2.21218e-29
-2.28343e-29
-2.35499e-29
-2.4269e-29
-2.49917e-29
-2.57177e-29
-2.6447e-29
-2.71794e-29
-2.79148e-29
-2.86528e-29
-2.93931e-29
-3.01361e-29
-3.0882e-29
-3.16309e-29
-3.23825e-29
-3.3137e-29
-3.38948e-29
-3.46552e-29
-3.54177e-29
-3.61821e-29
-3.69482e-29
-3.77162e-29
-3.84865e-29
-3.92586e-29
-4.00323e-29
-4.08078e-29
-4.15856e-29
-4.23659e-29
-4.31489e-29
-4.39348e-29
-4.47238e-29
-4.55161e-29
-4.63114e-29
-4.71087e-29
-4.79069e-29
-4.87051e-29
-4.95033e-29
-5.03025e-29
-5.11036e-29
-5.19071e-29
-5.2713e-29
-5.3521e-29
-5.43304e-29
-5.5141e-29
-5.59523e-29
-5.67638e-29
-5.75755e-29
-5.83874e-29
-5.91995e-29
-6.00115e-29
-6.08235e-29
-6.16357e-29
-6.24486e-29
-6.32622e-29
-6.4076e-29
-6.48899e-29
-6.57043e-29
-6.65195e-29
-6.73359e-29
-6.81534e-29
-6.89713e-29
-6.97885e-29
-7.06043e-29
-7.14188e-29
-7.22325e-29
-7.30465e-29
-7.38609e-29
-7.46756e-29
-7.54904e-29
-7.63058e-29
-7.71218e-29
-7.79379e-29
-7.87541e-29
-7.95705e-29
-8.03869e-29
-8.12032e-29
-8.20186e-29
-8.28328e-29
-8.36467e-29
-8.44613e-29
-8.52768e-29
-8.60932e-29
-8.69105e-29
-8.77289e-29
-8.85487e-29
-8.93693e-29
-9.01906e-29
-9.1013e-29
-9.18367e-29
-9.26621e-29
-9.34894e-29
-9.43188e-29
-9.51501e-29
-9.59833e-29
-9.68181e-29
-9.7655e-29
-9.84948e-29
-9.93374e-29
-1.00182e-28
-1.01028e-28
-1.01876e-28
-1.02727e-28
-1.03581e-28
-1.04437e-28
-1.05297e-28
-1.06161e-28
-1.07027e-28
-1.07896e-28
-1.08767e-28
-1.0964e-28
-1.10515e-28
-1.11393e-28
-1.12275e-28
-1.13161e-28
-1.1405e-28
-1.14942e-28
-1.15837e-28
-1.16736e-28
-1.17641e-28
-1.1855e-28
-1.19464e-28
-1.20382e-28
-1.21305e-28
-1.22232e-28
-1.23164e-28
-1.241e-28
-1.2504e-28
-1.25986e-28
-1.26938e-28
-1.27897e-28
-1.28864e-28
-1.29841e-28
-1.3083e-28
-1.31832e-28
-1.32851e-28
-1.3389e-28
-1.34951e-28
-1.3603e-28
-1.37119e-28
-1.38201e-28
-1.39251e-28
-1.40243e-28
-1.41147e-28
-1.4194e-28
-1.42599e-28
-1.43108e-28
-1.43457e-28
-1.43668e-28
-1.43791e-28
-1.43906e-28
-1.44163e-28
-1.46385e-28
-1.49882e-28
-1.51918e-28
-1.53027e-28
-1.53676e-28
-1.54173e-28
-1.54993e-28
-1.59535e-28
-2.40136e-08
-6.20509e-08
-9.39026e-08
-1.20416e-07
-1.43089e-07
-1.62873e-07
-1.80452e-07
-1.96195e-07
-2.10409e-07
-2.23338e-07
-2.35174e-07
-2.4607e-07
-2.56151e-07
-2.65518e-07
-2.74256e-07
-2.82436e-07
-2.90117e-07
-2.97351e-07
-3.04182e-07
-3.10647e-07
-3.1678e-07
-3.22609e-07
-3.28161e-07
-3.33458e-07
-3.3852e-07
-3.43365e-07
-3.48009e-07
-3.52466e-07
-3.56749e-07
-3.60871e-07
-3.64841e-07
-3.6867e-07
-3.72366e-07
-3.75938e-07
-3.79392e-07
-3.82736e-07
-3.85976e-07
-3.89117e-07
-3.92165e-07
-3.95124e-07
-3.98e-07
-4.00796e-07
-4.03517e-07
-4.06165e-07
-4.08745e-07
-4.1126e-07
-4.13711e-07
-4.16103e-07
-4.18438e-07
-4.20718e-07
-4.22946e-07
-4.25123e-07
-4.27251e-07
-4.29333e-07
-4.31371e-07
-4.33365e-07
-4.35317e-07
-4.3723e-07
-4.39104e-07
-4.4094e-07
-4.42741e-07
-4.44507e-07
-4.46238e-07
-4.47937e-07
-4.49605e-07
-4.51242e-07
-4.52848e-07
-4.54426e-07
-4.55976e-07
-4.57498e-07
-4.58994e-07
-4.60464e-07
-4.61908e-07
-4.63328e-07
-4.64723e-07
-4.66096e-07
-4.67445e-07
-4.68772e-07
-4.70077e-07
-4.7136e-07
-4.72622e-07
-4.73864e-07
-4.75086e-07
-4.76288e-07
-4.7747e-07
-4.78633e-07
-4.79777e-07
-4.80903e-07
-4.82011e-07
-4.831e-07
-4.84172e-07
-4.85227e-07
-4.86264e-07
-4.87284e-07
-4.88287e-07
-4.89274e-07
-4.90245e-07
-4.91199e-07
-4.92137e-07
-4.93058e-07
-4.93965e-07
-4.94855e-07
-4.9573e-07
-4.96589e-07
-4.97433e-07
-4.98261e-07
-4.99075e-07
)
;
    }
    inandouthalf12
    {
        type            cyclic;
        value           nonuniform List<scalar> 
300
(
1.67494e-39
7.31103e-31
1.31866e-30
1.85564e-30
2.44934e-30
3.05469e-30
3.65535e-30
4.25899e-30
4.86736e-30
5.47932e-30
6.09474e-30
6.71379e-30
7.33676e-30
7.96369e-30
8.59456e-30
9.22959e-30
9.86885e-30
1.05125e-29
1.11612e-29
1.18151e-29
1.2474e-29
1.3138e-29
1.38069e-29
1.44801e-29
1.51577e-29
1.58397e-29
1.65254e-29
1.72143e-29
1.79059e-29
1.86006e-29
1.92987e-29
2.00001e-29
2.07045e-29
2.14118e-29
2.21218e-29
2.28343e-29
2.35499e-29
2.4269e-29
2.49917e-29
2.57177e-29
2.6447e-29
2.71794e-29
2.79148e-29
2.86528e-29
2.93931e-29
3.01361e-29
3.0882e-29
3.16309e-29
3.23825e-29
3.3137e-29
3.38948e-29
3.46552e-29
3.54177e-29
3.61821e-29
3.69482e-29
3.77162e-29
3.84865e-29
3.92586e-29
4.00323e-29
4.08078e-29
4.15856e-29
4.23659e-29
4.31489e-29
4.39348e-29
4.47238e-29
4.55161e-29
4.63114e-29
4.71087e-29
4.79069e-29
4.87051e-29
4.95033e-29
5.03025e-29
5.11036e-29
5.19071e-29
5.2713e-29
5.3521e-29
5.43304e-29
5.5141e-29
5.59523e-29
5.67638e-29
5.75755e-29
5.83874e-29
5.91995e-29
6.00115e-29
6.08235e-29
6.16357e-29
6.24486e-29
6.32622e-29
6.4076e-29
6.48899e-29
6.57043e-29
6.65195e-29
6.73359e-29
6.81534e-29
6.89713e-29
6.97885e-29
7.06043e-29
7.14188e-29
7.22325e-29
7.30465e-29
7.38609e-29
7.46756e-29
7.54904e-29
7.63058e-29
7.71218e-29
7.79379e-29
7.87541e-29
7.95705e-29
8.03869e-29
8.12032e-29
8.20186e-29
8.28328e-29
8.36467e-29
8.44613e-29
8.52768e-29
8.60932e-29
8.69105e-29
8.77289e-29
8.85487e-29
8.93693e-29
9.01906e-29
9.1013e-29
9.18367e-29
9.26621e-29
9.34894e-29
9.43188e-29
9.51501e-29
9.59833e-29
9.68181e-29
9.7655e-29
9.84948e-29
9.93374e-29
1.00182e-28
1.01028e-28
1.01876e-28
1.02727e-28
1.03581e-28
1.04437e-28
1.05297e-28
1.06161e-28
1.07027e-28
1.07896e-28
1.08767e-28
1.0964e-28
1.10515e-28
1.11393e-28
1.12275e-28
1.13161e-28
1.1405e-28
1.14942e-28
1.15837e-28
1.16736e-28
1.17641e-28
1.1855e-28
1.19464e-28
1.20382e-28
1.21305e-28
1.22232e-28
1.23164e-28
1.241e-28
1.2504e-28
1.25986e-28
1.26938e-28
1.27897e-28
1.28864e-28
1.29841e-28
1.3083e-28
1.31832e-28
1.32851e-28
1.3389e-28
1.34951e-28
1.3603e-28
1.37119e-28
1.38201e-28
1.39251e-28
1.40243e-28
1.41147e-28
1.4194e-28
1.42599e-28
1.43108e-28
1.43457e-28
1.43668e-28
1.43791e-28
1.43906e-28
1.44163e-28
1.46385e-28
1.49882e-28
1.51918e-28
1.53027e-28
1.53676e-28
1.54173e-28
1.54993e-28
1.59535e-28
2.40136e-08
6.20509e-08
9.39026e-08
1.20416e-07
1.43089e-07
1.62873e-07
1.80452e-07
1.96195e-07
2.10409e-07
2.23338e-07
2.35174e-07
2.4607e-07
2.56151e-07
2.65518e-07
2.74256e-07
2.82436e-07
2.90117e-07
2.97351e-07
3.04182e-07
3.10647e-07
3.1678e-07
3.22609e-07
3.28161e-07
3.33458e-07
3.3852e-07
3.43365e-07
3.48009e-07
3.52466e-07
3.56749e-07
3.60871e-07
3.64841e-07
3.6867e-07
3.72366e-07
3.75938e-07
3.79392e-07
3.82736e-07
3.85976e-07
3.89117e-07
3.92165e-07
3.95124e-07
3.98e-07
4.00796e-07
4.03517e-07
4.06165e-07
4.08745e-07
4.1126e-07
4.13711e-07
4.16103e-07
4.18438e-07
4.20718e-07
4.22946e-07
4.25123e-07
4.27251e-07
4.29333e-07
4.31371e-07
4.33365e-07
4.35317e-07
4.3723e-07
4.39104e-07
4.4094e-07
4.42741e-07
4.44507e-07
4.46238e-07
4.47937e-07
4.49605e-07
4.51242e-07
4.52848e-07
4.54426e-07
4.55976e-07
4.57498e-07
4.58994e-07
4.60464e-07
4.61908e-07
4.63328e-07
4.64723e-07
4.66096e-07
4.67445e-07
4.68772e-07
4.70077e-07
4.7136e-07
4.72622e-07
4.73864e-07
4.75086e-07
4.76288e-07
4.7747e-07
4.78633e-07
4.79777e-07
4.80903e-07
4.82011e-07
4.831e-07
4.84172e-07
4.85227e-07
4.86264e-07
4.87284e-07
4.88287e-07
4.89274e-07
4.90245e-07
4.91199e-07
4.92137e-07
4.93058e-07
4.93965e-07
4.94855e-07
4.9573e-07
4.96589e-07
4.97433e-07
4.98261e-07
4.99075e-07
)
;
    }
    inandouthalf21
    {
        type            cyclic;
        value           nonuniform List<scalar> 
300
(
-4.99873e-07
-5.00656e-07
-5.01424e-07
-5.02178e-07
-5.02916e-07
-5.03639e-07
-5.04348e-07
-5.05042e-07
-5.05722e-07
-5.06386e-07
-5.07037e-07
-5.07672e-07
-5.08293e-07
-5.089e-07
-5.09492e-07
-5.1007e-07
-5.10634e-07
-5.11183e-07
-5.11719e-07
-5.1224e-07
-5.12747e-07
-5.1324e-07
-5.1372e-07
-5.14185e-07
-5.14637e-07
-5.15075e-07
-5.155e-07
-5.15911e-07
-5.16309e-07
-5.16694e-07
-5.17066e-07
-5.17425e-07
-5.17771e-07
-5.18105e-07
-5.18426e-07
-5.18734e-07
-5.19031e-07
-5.19316e-07
-5.19588e-07
-5.1985e-07
-5.20099e-07
-5.20338e-07
-5.20565e-07
-5.20781e-07
-5.20987e-07
-5.21181e-07
-5.21366e-07
-5.2154e-07
-5.21704e-07
-5.21858e-07
-5.22003e-07
-5.22138e-07
-5.22263e-07
-5.2238e-07
-5.22487e-07
-5.22585e-07
-5.22675e-07
-5.22756e-07
-5.22828e-07
-5.22892e-07
-5.22948e-07
-5.22996e-07
-5.23036e-07
-5.23068e-07
-5.23093e-07
-5.23109e-07
-5.23119e-07
-5.23121e-07
-5.23116e-07
-5.23103e-07
-5.23084e-07
-5.23057e-07
-5.23024e-07
-5.22983e-07
-5.22936e-07
-5.22883e-07
-5.22823e-07
-5.22756e-07
-5.22683e-07
-5.22603e-07
-5.22517e-07
-5.22425e-07
-5.22326e-07
-5.22222e-07
-5.22111e-07
-5.21994e-07
-5.21871e-07
-5.21742e-07
-5.21607e-07
-5.21467e-07
-5.2132e-07
-5.21168e-07
-5.2101e-07
-5.20846e-07
-5.20676e-07
-5.20501e-07
-5.2032e-07
-5.20134e-07
-5.19942e-07
-5.19744e-07
-5.19541e-07
-5.19332e-07
-5.19118e-07
-5.18899e-07
-5.18674e-07
-5.18444e-07
-5.18209e-07
-5.17969e-07
-5.17723e-07
-5.17472e-07
-5.17216e-07
-5.16955e-07
-5.16688e-07
-5.16417e-07
-5.16141e-07
-5.1586e-07
-5.15574e-07
-5.15283e-07
-5.14988e-07
-5.14687e-07
-5.14382e-07
-5.14073e-07
-5.13759e-07
-5.1344e-07
-5.13117e-07
-5.1279e-07
-5.12459e-07
-5.12123e-07
-5.11783e-07
-5.1144e-07
-5.11092e-07
-5.10741e-07
-5.10386e-07
-5.10027e-07
-5.09666e-07
-5.093e-07
-5.08932e-07
-5.08561e-07
-5.08186e-07
-5.0781e-07
-5.0743e-07
-5.07048e-07
-5.06665e-07
-5.06279e-07
-5.05892e-07
-5.05503e-07
-5.05113e-07
-5.04721e-07
-5.0433e-07
-5.03937e-07
-5.03545e-07
-5.03153e-07
-5.02762e-07
-5.02371e-07
-5.01981e-07
-5.01594e-07
-5.01208e-07
-5.00825e-07
-5.00445e-07
-5.00069e-07
-4.99697e-07
-4.9933e-07
-4.98967e-07
-4.98612e-07
-4.98262e-07
-4.97923e-07
-4.97587e-07
-4.97268e-07
-4.9695e-07
-4.96656e-07
-4.96357e-07
-4.96097e-07
-4.95817e-07
-4.95605e-07
-4.95349e-07
-4.95201e-07
-4.94926e-07
-4.94889e-07
-4.9452e-07
-4.94643e-07
-4.94139e-07
-4.87054e-07
-4.86423e-07
-4.8579e-07
-4.85151e-07
-4.84506e-07
-4.83854e-07
-4.83196e-07
-4.82531e-07
-4.81859e-07
-4.81181e-07
-4.80497e-07
-4.79805e-07
-4.79106e-07
-4.78401e-07
-4.77688e-07
-4.76968e-07
-4.76241e-07
-4.75506e-07
-4.74764e-07
-4.74014e-07
-4.73257e-07
-4.72492e-07
-4.71718e-07
-4.70937e-07
-4.70147e-07
-4.69349e-07
-4.68542e-07
-4.67727e-07
-4.66903e-07
-4.6607e-07
-4.65228e-07
-4.64376e-07
-4.63515e-07
-4.62644e-07
-4.61764e-07
-4.60874e-07
-4.59973e-07
-4.59062e-07
-4.5814e-07
-4.57207e-07
-4.56263e-07
-4.55308e-07
-4.54341e-07
-4.53363e-07
-4.52372e-07
-4.51369e-07
-4.50353e-07
-4.49324e-07
-4.48281e-07
-4.47225e-07
-4.46155e-07
-4.45071e-07
-4.43971e-07
-4.42857e-07
-4.41727e-07
-4.4058e-07
-4.39418e-07
-4.38238e-07
-4.37041e-07
-4.35826e-07
-4.34592e-07
-4.33339e-07
-4.32067e-07
-4.30773e-07
-4.29459e-07
-4.28123e-07
-4.26765e-07
-4.25383e-07
-4.23977e-07
-4.22546e-07
-4.21088e-07
-4.19604e-07
-4.18091e-07
-4.1655e-07
-4.14977e-07
-4.13373e-07
-4.11736e-07
-4.10064e-07
-4.08356e-07
-4.0661e-07
-4.04825e-07
-4.02997e-07
-4.01126e-07
-3.99209e-07
-3.97243e-07
-3.95225e-07
-3.93154e-07
-3.91025e-07
-3.88835e-07
-3.86581e-07
-3.84257e-07
-3.8186e-07
-3.79384e-07
-3.76823e-07
-3.74172e-07
-3.71422e-07
-3.68567e-07
-3.65596e-07
-3.625e-07
-3.59266e-07
-3.55881e-07
-3.52329e-07
-3.48592e-07
-3.44648e-07
-3.4047e-07
-3.36029e-07
-3.31285e-07
-3.26192e-07
-3.20691e-07
-3.14706e-07
-3.0814e-07
-3.00858e-07
-2.92675e-07
-2.83322e-07
-2.72381e-07
-2.59158e-07
-2.42339e-07
-2.18824e-07
-1.89188e-43
)
;
    }
    inandouthalf22
    {
        type            cyclic;
        value           nonuniform List<scalar> 
300
(
4.99873e-07
5.00656e-07
5.01424e-07
5.02178e-07
5.02916e-07
5.03639e-07
5.04348e-07
5.05042e-07
5.05722e-07
5.06386e-07
5.07037e-07
5.07672e-07
5.08293e-07
5.089e-07
5.09492e-07
5.1007e-07
5.10634e-07
5.11183e-07
5.11719e-07
5.1224e-07
5.12747e-07
5.1324e-07
5.1372e-07
5.14185e-07
5.14637e-07
5.15075e-07
5.155e-07
5.15911e-07
5.16309e-07
5.16694e-07
5.17066e-07
5.17425e-07
5.17771e-07
5.18105e-07
5.18426e-07
5.18734e-07
5.19031e-07
5.19316e-07
5.19588e-07
5.1985e-07
5.20099e-07
5.20338e-07
5.20565e-07
5.20781e-07
5.20987e-07
5.21181e-07
5.21366e-07
5.2154e-07
5.21704e-07
5.21858e-07
5.22003e-07
5.22138e-07
5.22263e-07
5.2238e-07
5.22487e-07
5.22585e-07
5.22675e-07
5.22756e-07
5.22828e-07
5.22892e-07
5.22948e-07
5.22996e-07
5.23036e-07
5.23068e-07
5.23093e-07
5.23109e-07
5.23119e-07
5.23121e-07
5.23116e-07
5.23103e-07
5.23084e-07
5.23057e-07
5.23024e-07
5.22983e-07
5.22936e-07
5.22883e-07
5.22823e-07
5.22756e-07
5.22683e-07
5.22603e-07
5.22517e-07
5.22425e-07
5.22326e-07
5.22222e-07
5.22111e-07
5.21994e-07
5.21871e-07
5.21742e-07
5.21607e-07
5.21467e-07
5.2132e-07
5.21168e-07
5.2101e-07
5.20846e-07
5.20676e-07
5.20501e-07
5.2032e-07
5.20134e-07
5.19942e-07
5.19744e-07
5.19541e-07
5.19332e-07
5.19118e-07
5.18899e-07
5.18674e-07
5.18444e-07
5.18209e-07
5.17969e-07
5.17723e-07
5.17472e-07
5.17216e-07
5.16955e-07
5.16688e-07
5.16417e-07
5.16141e-07
5.1586e-07
5.15574e-07
5.15283e-07
5.14988e-07
5.14687e-07
5.14382e-07
5.14073e-07
5.13759e-07
5.1344e-07
5.13117e-07
5.1279e-07
5.12459e-07
5.12123e-07
5.11783e-07
5.1144e-07
5.11092e-07
5.10741e-07
5.10386e-07
5.10027e-07
5.09666e-07
5.093e-07
5.08932e-07
5.08561e-07
5.08186e-07
5.0781e-07
5.0743e-07
5.07048e-07
5.06665e-07
5.06279e-07
5.05892e-07
5.05503e-07
5.05113e-07
5.04721e-07
5.0433e-07
5.03937e-07
5.03545e-07
5.03153e-07
5.02762e-07
5.02371e-07
5.01981e-07
5.01594e-07
5.01208e-07
5.00825e-07
5.00445e-07
5.00069e-07
4.99697e-07
4.9933e-07
4.98967e-07
4.98612e-07
4.98262e-07
4.97923e-07
4.97587e-07
4.97268e-07
4.9695e-07
4.96656e-07
4.96357e-07
4.96097e-07
4.95817e-07
4.95605e-07
4.95349e-07
4.95201e-07
4.94926e-07
4.94889e-07
4.9452e-07
4.94643e-07
4.94139e-07
4.87054e-07
4.86423e-07
4.8579e-07
4.85151e-07
4.84506e-07
4.83854e-07
4.83196e-07
4.82531e-07
4.81859e-07
4.81181e-07
4.80497e-07
4.79805e-07
4.79106e-07
4.78401e-07
4.77688e-07
4.76968e-07
4.76241e-07
4.75506e-07
4.74764e-07
4.74014e-07
4.73257e-07
4.72492e-07
4.71718e-07
4.70937e-07
4.70147e-07
4.69349e-07
4.68542e-07
4.67727e-07
4.66903e-07
4.6607e-07
4.65228e-07
4.64376e-07
4.63515e-07
4.62644e-07
4.61764e-07
4.60874e-07
4.59973e-07
4.59062e-07
4.5814e-07
4.57207e-07
4.56263e-07
4.55308e-07
4.54341e-07
4.53363e-07
4.52372e-07
4.51369e-07
4.50353e-07
4.49324e-07
4.48281e-07
4.47225e-07
4.46155e-07
4.45071e-07
4.43971e-07
4.42857e-07
4.41727e-07
4.4058e-07
4.39418e-07
4.38238e-07
4.37041e-07
4.35826e-07
4.34592e-07
4.33339e-07
4.32067e-07
4.30773e-07
4.29459e-07
4.28123e-07
4.26765e-07
4.25383e-07
4.23977e-07
4.22546e-07
4.21088e-07
4.19604e-07
4.18091e-07
4.1655e-07
4.14977e-07
4.13373e-07
4.11736e-07
4.10064e-07
4.08356e-07
4.0661e-07
4.04825e-07
4.02997e-07
4.01126e-07
3.99209e-07
3.97243e-07
3.95225e-07
3.93154e-07
3.91025e-07
3.88835e-07
3.86581e-07
3.84257e-07
3.8186e-07
3.79384e-07
3.76823e-07
3.74172e-07
3.71422e-07
3.68567e-07
3.65596e-07
3.625e-07
3.59266e-07
3.55881e-07
3.52329e-07
3.48592e-07
3.44648e-07
3.4047e-07
3.36029e-07
3.31285e-07
3.26192e-07
3.20691e-07
3.14706e-07
3.0814e-07
3.00858e-07
2.92675e-07
2.83322e-07
2.72381e-07
2.59158e-07
2.42339e-07
2.18824e-07
1.89188e-43
)
;
    }
    top
    {
        type            fixedValue;
        value           uniform 0;
    }
    walls
    {
        type            fixedValue;
        value           uniform 0;
    }
    frontAndBackPlanes
    {
        type            empty;
        value           nonuniform 0();
    }
}


// ************************************************************************* //
