/*--------------------------------*- C++ -*----------------------------------*\
| =========                 |                                                 |
| \\      /  F ield         | OpenFOAM: The Open Source CFD Toolbox           |
|  \\    /   O peration     | Version:  2.1.1                                 |
|   \\  /    A nd           | Web:      www.OpenFOAM.org                      |
|    \\/     M anipulation  |                                                 |
\*---------------------------------------------------------------------------*/
FoamFile
{
    version     2.0;
    format      ascii;
    class       surfaceScalarField;
    location    "100";
    object      phib_0;
}
// * * * * * * * * * * * * * * * * * * * * * * * * * * * * * * * * * * * * * //

dimensions      [0 3 -1 0 0 0 0];

internalField   nonuniform List<scalar> 
599
(
4.45833e-17
4.478e-17
4.48904e-17
4.50434e-17
4.5212e-17
4.53968e-17
4.55745e-17
4.57647e-17
4.59436e-17
4.61303e-17
4.63025e-17
4.64806e-17
4.66427e-17
4.68099e-17
4.69603e-17
4.71158e-17
4.72544e-17
4.73982e-17
4.75252e-17
4.7658e-17
4.77743e-17
4.78966e-17
4.80029e-17
4.81158e-17
4.82129e-17
4.83171e-17
4.84061e-17
4.85025e-17
4.85839e-17
4.86733e-17
4.8748e-17
4.8831e-17
4.88997e-17
4.89771e-17
4.90405e-17
4.91129e-17
4.91714e-17
4.92393e-17
4.92936e-17
4.93574e-17
4.9408e-17
4.94683e-17
4.95155e-17
4.95728e-17
4.9617e-17
4.96716e-17
4.97133e-17
4.97655e-17
4.9805e-17
4.98551e-17
4.98927e-17
4.99411e-17
4.99771e-17
5.00241e-17
5.00587e-17
5.01043e-17
5.01377e-17
5.01825e-17
5.0215e-17
5.02588e-17
5.02906e-17
5.03339e-17
5.03651e-17
5.04079e-17
5.04386e-17
5.04812e-17
5.05117e-17
5.05541e-17
5.05846e-17
5.0627e-17
5.06574e-17
5.06997e-17
5.07301e-17
5.07725e-17
5.08031e-17
5.08458e-17
5.08766e-17
5.09194e-17
5.09505e-17
5.09938e-17
5.10251e-17
5.10687e-17
5.11004e-17
5.11444e-17
5.11765e-17
5.12208e-17
5.12533e-17
5.1298e-17
5.13309e-17
5.1376e-17
5.14092e-17
5.14546e-17
5.14883e-17
5.1534e-17
5.15678e-17
5.16139e-17
5.16481e-17
5.16946e-17
5.17288e-17
5.17755e-17
5.18099e-17
5.18566e-17
5.18911e-17
5.19379e-17
5.19726e-17
5.20194e-17
5.20538e-17
5.21005e-17
5.21349e-17
5.21814e-17
5.22154e-17
5.22614e-17
5.22951e-17
5.23406e-17
5.23737e-17
5.24189e-17
5.24513e-17
5.24956e-17
5.25273e-17
5.25708e-17
5.26013e-17
5.26439e-17
5.26733e-17
5.27146e-17
5.27428e-17
5.27826e-17
5.28094e-17
5.28477e-17
5.28729e-17
5.29092e-17
5.29321e-17
5.29665e-17
5.29873e-17
5.30196e-17
5.3038e-17
5.30675e-17
5.30833e-17
5.311e-17
5.31229e-17
5.31465e-17
5.31558e-17
5.3176e-17
5.31821e-17
5.31984e-17
5.32003e-17
5.32127e-17
5.32103e-17
5.3218e-17
5.32111e-17
5.3214e-17
5.32018e-17
5.31994e-17
5.31817e-17
5.31736e-17
5.31501e-17
5.31358e-17
5.31058e-17
5.30849e-17
5.30479e-17
5.30199e-17
5.29756e-17
5.29397e-17
5.28875e-17
5.28433e-17
5.27826e-17
5.27296e-17
5.26595e-17
5.25969e-17
5.2517e-17
5.24444e-17
5.23544e-17
5.2271e-17
5.217e-17
5.20756e-17
5.19633e-17
5.18572e-17
5.17321e-17
5.1612e-17
5.14721e-17
5.13356e-17
5.11792e-17
5.10303e-17
5.08621e-17
5.0653e-17
5.0399e-17
5.02482e-17
5.01133e-17
4.9931e-17
4.9744e-17
4.9593e-17
4.94285e-17
4.90294e-17
6.19449e-11
1.23603e-10
2.02531e-11
1.87563e-12
-4.80523e-13
-6.95276e-13
-6.77842e-13
-6.44046e-13
-6.55181e-13
-6.80996e-13
-6.89247e-13
-6.78296e-13
-6.58357e-13
-6.375e-13
-6.18927e-13
-6.02941e-13
-5.88748e-13
-5.75464e-13
-5.62461e-13
-5.49387e-13
-5.36091e-13
-5.22554e-13
-5.08824e-13
-4.94982e-13
-4.8112e-13
-4.67324e-13
-4.53668e-13
-4.40213e-13
-4.27006e-13
-4.14081e-13
-4.01462e-13
-3.89168e-13
-3.77207e-13
-3.65588e-13
-3.54311e-13
-3.43378e-13
-3.32787e-13
-3.22533e-13
-3.12611e-13
-3.03016e-13
-2.9374e-13
-2.84777e-13
-2.76117e-13
-2.67753e-13
-2.59677e-13
-2.51878e-13
-2.44348e-13
-2.37078e-13
-2.3006e-13
-2.23283e-13
-2.16741e-13
-2.10423e-13
-2.04321e-13
-1.98428e-13
-1.92735e-13
-1.87234e-13
-1.81919e-13
-1.76782e-13
-1.71815e-13
-1.67014e-13
-1.62371e-13
-1.57879e-13
-1.53534e-13
-1.4933e-13
-1.45262e-13
-1.41324e-13
-1.37512e-13
-1.33821e-13
-1.30246e-13
-1.26784e-13
-1.23431e-13
-1.20182e-13
-1.17035e-13
-1.13985e-13
-1.11029e-13
-1.08164e-13
-1.05388e-13
-1.02696e-13
-1.00087e-13
-9.75568e-14
-9.51039e-14
-9.27255e-14
-9.04191e-14
-8.81825e-14
-8.60134e-14
-8.39097e-14
-8.18694e-14
-7.98904e-14
-7.79709e-14
-7.61089e-14
-7.43028e-14
-7.25506e-14
-7.08509e-14
-6.9202e-14
-6.76022e-14
-6.60502e-14
-6.45443e-14
-6.30832e-14
-6.16656e-14
-6.029e-14
-5.89551e-14
-5.76598e-14
-5.64028e-14
-5.51828e-14
-5.39988e-14
-5.28496e-14
-5.17342e-14
-5.06514e-14
-4.96002e-14
-4.85797e-14
-4.75889e-14
-4.66268e-14
-4.56925e-14
-4.47852e-14
-4.39038e-14
-4.30477e-14
-4.2216e-14
-4.14079e-14
-4.06226e-14
-3.98593e-14
-3.91174e-14
-3.8396e-14
-3.76947e-14
-3.70125e-14
-3.6349e-14
-3.57034e-14
-3.50752e-14
-3.44637e-14
-3.38685e-14
-3.32888e-14
-3.27242e-14
-3.21742e-14
-3.16382e-14
-3.11157e-14
-3.06064e-14
-3.01096e-14
-2.9625e-14
-2.91522e-14
-2.86906e-14
-2.824e-14
-2.77999e-14
-2.737e-14
-2.69499e-14
-2.65392e-14
-2.61377e-14
-2.5745e-14
-2.53608e-14
-2.49848e-14
-2.46167e-14
-2.42563e-14
-2.39033e-14
-2.35574e-14
-2.32184e-14
-2.28861e-14
-2.25603e-14
-2.22407e-14
-2.19272e-14
-2.16195e-14
-2.13175e-14
-2.10209e-14
-2.07297e-14
-2.04437e-14
-2.01626e-14
-1.98865e-14
-1.9615e-14
-1.93481e-14
-1.90857e-14
-1.88275e-14
-1.85736e-14
-1.83238e-14
-1.8078e-14
-1.7836e-14
-1.75978e-14
-1.73633e-14
-1.71324e-14
-1.69049e-14
-1.66809e-14
-1.64602e-14
-1.62427e-14
-1.60284e-14
-1.58172e-14
-1.5609e-14
-1.54038e-14
-1.52014e-14
-1.50019e-14
-1.48051e-14
-1.4611e-14
-1.44196e-14
-1.42308e-14
-1.40445e-14
-1.38606e-14
-1.36792e-14
-1.35002e-14
-1.33235e-14
-1.31491e-14
-1.2977e-14
-1.2807e-14
-1.26392e-14
-1.24735e-14
-1.23098e-14
-1.21482e-14
-1.19886e-14
-1.1831e-14
-1.16752e-14
-1.15214e-14
-1.13694e-14
-1.12192e-14
-1.10709e-14
-1.09242e-14
-1.07793e-14
-1.06361e-14
-1.04946e-14
-1.03547e-14
-1.02164e-14
-1.00797e-14
-9.94455e-15
-9.81094e-15
-9.67883e-15
-9.5482e-15
-9.41902e-15
-9.29128e-15
-9.16494e-15
-9.03998e-15
-8.91638e-15
-8.79411e-15
-8.67315e-15
-8.55346e-15
-8.43504e-15
-8.31784e-15
-8.20184e-15
-8.08703e-15
-7.97335e-15
-7.8608e-15
-7.74934e-15
-7.63894e-15
-7.52956e-15
-7.42119e-15
-7.31378e-15
-7.20731e-15
-7.10173e-15
-6.99702e-15
-6.89314e-15
-6.79005e-15
-6.68771e-15
-6.58608e-15
-6.48513e-15
-6.38481e-15
-6.28507e-15
-6.18587e-15
-6.08715e-15
-5.98885e-15
-5.89089e-15
-5.79319e-15
-5.69566e-15
-5.5982e-15
-5.50065e-15
-5.40288e-15
-5.30474e-15
-5.20547e-15
-5.10723e-15
-5.01229e-15
-4.92016e-15
-4.83084e-15
-4.74433e-15
-4.66058e-15
-4.57952e-15
-4.50089e-15
-4.42455e-15
-4.35e-15
-4.27738e-15
-4.20695e-15
-4.13867e-15
-4.07455e-15
-4.00829e-15
-3.94355e-15
-3.85953e-15
-3.78229e-15
-3.70589e-15
-3.70803e-15
-3.86969e-15
-4.19797e-15
-4.89348e-15
-5.08197e-15
-4.63428e-15
-1.69499e-15
1.03652e-15
3.12118e-14
-1.67435e-13
1.25448e-13
-1.2833e-14
-4.71177e-15
-2.44816e-15
8.82731e-17
-2.07899e-15
-3.69428e-15
-6.82391e-15
-5.23185e-15
-2.31392e-15
-1.28477e-15
-7.91231e-16
-7.51139e-16
-3.31579e-15
-4.44108e-15
-3.50554e-15
-3.42926e-15
-1.30309e-15
-1.56e-15
-2.05036e-15
-1.43124e-15
-2.75665e-15
-3.47541e-15
-1.91228e-15
-2.30647e-15
-1.77845e-15
-1.04317e-15
-2.26415e-15
-2.38383e-15
-1.74764e-15
-2.63539e-15
-1.60849e-15
-1.50504e-15
-1.99003e-15
-1.09438e-15
-2.32244e-15
-1.50797e-15
-1.78159e-15
-1.73618e-15
-1.11436e-15
-1.9313e-15
-1.14366e-15
-1.69692e-15
-1.38269e-15
-1.21512e-15
-1.77128e-15
-1.0714e-15
-1.09357e-15
-1.19689e-15
-1.52456e-15
-1.06635e-15
-9.85382e-16
-1.41592e-15
-9.5421e-16
-9.82689e-16
-1.32258e-15
-7.88321e-16
-8.95633e-16
-1.19616e-15
-8.97721e-16
-7.05301e-16
-9.04251e-16
-9.85656e-16
-8.01198e-16
-6.92457e-16
-7.38354e-16
-8.42864e-16
-7.50787e-16
-5.64782e-16
-7.20818e-16
-7.36391e-16
-5.34621e-16
-5.84023e-16
-6.5504e-16
-5.42788e-16
-5.10136e-16
-5.25187e-16
-5.14722e-16
-4.72642e-16
-4.5017e-16
-4.42857e-16
-4.23044e-16
-4.00448e-16
-3.81105e-16
-3.67315e-16
-3.47639e-16
-3.32846e-16
-3.09722e-16
-3.04825e-16
-2.74297e-16
-2.74592e-16
-2.43674e-16
-2.42949e-16
-2.17732e-16
-2.10206e-16
-1.9406e-16
-1.80495e-16
-1.69463e-16
-1.54614e-16
-1.44981e-16
-1.312e-16
-1.21601e-16
-1.09677e-16
-9.99097e-17
-8.96022e-17
-8.01973e-17
-7.10432e-17
-6.23819e-17
-5.41757e-17
-4.64299e-17
-3.9165e-17
-3.23864e-17
-2.612e-17
-2.03783e-17
-1.5189e-17
-1.05864e-17
-6.61847e-18
-3.35118e-18
-9.37779e-19
)
;

boundaryField
{
    inandouthalf11
    {
        type            cyclic;
        value           nonuniform List<scalar> 
300
(
-1.08955e-12
-1.07563e-12
-1.07683e-12
-1.07855e-12
-1.07825e-12
-1.07819e-12
-1.07842e-12
-1.07859e-12
-1.07873e-12
-1.07888e-12
-1.07904e-12
-1.07919e-12
-1.07935e-12
-1.07951e-12
-1.07967e-12
-1.07983e-12
-1.08e-12
-1.08016e-12
-1.08033e-12
-1.08051e-12
-1.08067e-12
-1.08085e-12
-1.08102e-12
-1.0812e-12
-1.08138e-12
-1.08156e-12
-1.08174e-12
-1.08192e-12
-1.08211e-12
-1.0823e-12
-1.08249e-12
-1.08268e-12
-1.08287e-12
-1.08307e-12
-1.08326e-12
-1.08346e-12
-1.08366e-12
-1.08387e-12
-1.08407e-12
-1.08428e-12
-1.08449e-12
-1.0847e-12
-1.08492e-12
-1.08513e-12
-1.08535e-12
-1.08557e-12
-1.08579e-12
-1.08601e-12
-1.08624e-12
-1.08647e-12
-1.08671e-12
-1.08694e-12
-1.08717e-12
-1.08741e-12
-1.08765e-12
-1.08789e-12
-1.08814e-12
-1.08839e-12
-1.08863e-12
-1.08889e-12
-1.08915e-12
-1.0894e-12
-1.08967e-12
-1.08992e-12
-1.0902e-12
-1.09046e-12
-1.09074e-12
-1.09101e-12
-1.09129e-12
-1.09156e-12
-1.09185e-12
-1.09213e-12
-1.09243e-12
-1.09272e-12
-1.09301e-12
-1.09332e-12
-1.09361e-12
-1.09392e-12
-1.09423e-12
-1.09454e-12
-1.09485e-12
-1.09517e-12
-1.09549e-12
-1.09582e-12
-1.09615e-12
-1.09648e-12
-1.09682e-12
-1.09716e-12
-1.0975e-12
-1.09785e-12
-1.0982e-12
-1.09856e-12
-1.09892e-12
-1.09929e-12
-1.09966e-12
-1.10003e-12
-1.10041e-12
-1.10078e-12
-1.10117e-12
-1.10157e-12
-1.10197e-12
-1.10237e-12
-1.10277e-12
-1.10319e-12
-1.10361e-12
-1.10402e-12
-1.10446e-12
-1.10488e-12
-1.10533e-12
-1.10577e-12
-1.10622e-12
-1.10667e-12
-1.10714e-12
-1.10761e-12
-1.10809e-12
-1.10857e-12
-1.10905e-12
-1.10955e-12
-1.11006e-12
-1.11056e-12
-1.11108e-12
-1.1116e-12
-1.11213e-12
-1.11267e-12
-1.11322e-12
-1.11378e-12
-1.11434e-12
-1.11491e-12
-1.11549e-12
-1.11608e-12
-1.11669e-12
-1.1173e-12
-1.11792e-12
-1.11854e-12
-1.11918e-12
-1.11984e-12
-1.1205e-12
-1.12117e-12
-1.12187e-12
-1.12256e-12
-1.12328e-12
-1.124e-12
-1.12473e-12
-1.12549e-12
-1.12626e-12
-1.12704e-12
-1.12785e-12
-1.12867e-12
-1.1295e-12
-1.13035e-12
-1.13122e-12
-1.13212e-12
-1.13303e-12
-1.13397e-12
-1.13493e-12
-1.13591e-12
-1.13691e-12
-1.13795e-12
-1.13901e-12
-1.1401e-12
-1.14122e-12
-1.14237e-12
-1.14357e-12
-1.14479e-12
-1.14606e-12
-1.14736e-12
-1.14871e-12
-1.1501e-12
-1.15155e-12
-1.15306e-12
-1.15462e-12
-1.15625e-12
-1.15795e-12
-1.15972e-12
-1.16158e-12
-1.16353e-12
-1.16562e-12
-1.16789e-12
-1.17039e-12
-1.17321e-12
-1.17641e-12
-1.1799e-12
-1.18331e-12
-1.18756e-12
-1.19905e-12
-1.20847e-12
-1.20554e-12
-1.21108e-12
-1.2185e-12
-1.22433e-12
-1.22988e-12
-1.27635e-12
-4.2788e-11
-2.44097e-08
-6.27504e-08
-9.44826e-08
-1.20891e-07
-1.43496e-07
-1.63268e-07
-1.80792e-07
-1.96488e-07
-2.10663e-07
-2.23561e-07
-2.35371e-07
-2.46246e-07
-2.56308e-07
-2.6566e-07
-2.74385e-07
-2.82554e-07
-2.90226e-07
-2.97451e-07
-3.04275e-07
-3.10734e-07
-3.16861e-07
-3.22686e-07
-3.28234e-07
-3.33527e-07
-3.38586e-07
-3.43428e-07
-3.48069e-07
-3.52524e-07
-3.56805e-07
-3.60925e-07
-3.64893e-07
-3.68721e-07
-3.72415e-07
-3.75986e-07
-3.79439e-07
-3.82782e-07
-3.8602e-07
-3.89161e-07
-3.92208e-07
-3.95167e-07
-3.98042e-07
-4.00838e-07
-4.03558e-07
-4.06206e-07
-4.08785e-07
-4.113e-07
-4.13751e-07
-4.16143e-07
-4.18478e-07
-4.20758e-07
-4.22985e-07
-4.25162e-07
-4.27291e-07
-4.29373e-07
-4.3141e-07
-4.33404e-07
-4.35357e-07
-4.3727e-07
-4.39144e-07
-4.40981e-07
-4.42782e-07
-4.44548e-07
-4.4628e-07
-4.4798e-07
-4.49648e-07
-4.51285e-07
-4.52892e-07
-4.54471e-07
-4.56021e-07
-4.57544e-07
-4.5904e-07
-4.60511e-07
-4.61956e-07
-4.63377e-07
-4.64773e-07
-4.66147e-07
-4.67497e-07
-4.68825e-07
-4.70131e-07
-4.71415e-07
-4.72679e-07
-4.73922e-07
-4.75145e-07
-4.76348e-07
-4.77531e-07
-4.78696e-07
-4.79842e-07
-4.80969e-07
-4.82078e-07
-4.83169e-07
-4.84243e-07
-4.85299e-07
-4.86338e-07
-4.8736e-07
-4.88366e-07
-4.89354e-07
-4.90327e-07
-4.91283e-07
-4.92223e-07
-4.93147e-07
-4.94056e-07
-4.94948e-07
-4.95826e-07
-4.96687e-07
-4.97534e-07
-4.98365e-07
-4.99181e-07
)
;
    }
    inandouthalf12
    {
        type            cyclic;
        value           nonuniform List<scalar> 
300
(
1.08955e-12
1.07563e-12
1.07683e-12
1.07855e-12
1.07825e-12
1.07819e-12
1.07842e-12
1.07859e-12
1.07873e-12
1.07888e-12
1.07904e-12
1.07919e-12
1.07935e-12
1.07951e-12
1.07967e-12
1.07983e-12
1.08e-12
1.08016e-12
1.08033e-12
1.08051e-12
1.08067e-12
1.08085e-12
1.08102e-12
1.0812e-12
1.08138e-12
1.08156e-12
1.08174e-12
1.08192e-12
1.08211e-12
1.0823e-12
1.08249e-12
1.08268e-12
1.08287e-12
1.08307e-12
1.08326e-12
1.08346e-12
1.08366e-12
1.08387e-12
1.08407e-12
1.08428e-12
1.08449e-12
1.0847e-12
1.08492e-12
1.08513e-12
1.08535e-12
1.08557e-12
1.08579e-12
1.08601e-12
1.08624e-12
1.08647e-12
1.08671e-12
1.08694e-12
1.08717e-12
1.08741e-12
1.08765e-12
1.08789e-12
1.08814e-12
1.08839e-12
1.08863e-12
1.08889e-12
1.08915e-12
1.0894e-12
1.08967e-12
1.08992e-12
1.0902e-12
1.09046e-12
1.09074e-12
1.09101e-12
1.09129e-12
1.09156e-12
1.09185e-12
1.09213e-12
1.09243e-12
1.09272e-12
1.09301e-12
1.09332e-12
1.09361e-12
1.09392e-12
1.09423e-12
1.09454e-12
1.09485e-12
1.09517e-12
1.09549e-12
1.09582e-12
1.09615e-12
1.09648e-12
1.09682e-12
1.09716e-12
1.0975e-12
1.09785e-12
1.0982e-12
1.09856e-12
1.09892e-12
1.09929e-12
1.09966e-12
1.10003e-12
1.10041e-12
1.10078e-12
1.10117e-12
1.10157e-12
1.10197e-12
1.10237e-12
1.10277e-12
1.10319e-12
1.10361e-12
1.10402e-12
1.10446e-12
1.10488e-12
1.10533e-12
1.10577e-12
1.10622e-12
1.10667e-12
1.10714e-12
1.10761e-12
1.10809e-12
1.10857e-12
1.10905e-12
1.10955e-12
1.11006e-12
1.11056e-12
1.11108e-12
1.1116e-12
1.11213e-12
1.11267e-12
1.11322e-12
1.11378e-12
1.11434e-12
1.11491e-12
1.11549e-12
1.11608e-12
1.11669e-12
1.1173e-12
1.11792e-12
1.11854e-12
1.11918e-12
1.11984e-12
1.1205e-12
1.12117e-12
1.12187e-12
1.12256e-12
1.12328e-12
1.124e-12
1.12473e-12
1.12549e-12
1.12626e-12
1.12704e-12
1.12785e-12
1.12867e-12
1.1295e-12
1.13035e-12
1.13122e-12
1.13212e-12
1.13303e-12
1.13397e-12
1.13493e-12
1.13591e-12
1.13691e-12
1.13795e-12
1.13901e-12
1.1401e-12
1.14122e-12
1.14237e-12
1.14357e-12
1.14479e-12
1.14606e-12
1.14736e-12
1.14871e-12
1.1501e-12
1.15155e-12
1.15306e-12
1.15462e-12
1.15625e-12
1.15795e-12
1.15972e-12
1.16158e-12
1.16353e-12
1.16562e-12
1.16789e-12
1.17039e-12
1.17321e-12
1.17641e-12
1.1799e-12
1.18331e-12
1.18756e-12
1.19905e-12
1.20847e-12
1.20554e-12
1.21108e-12
1.2185e-12
1.22433e-12
1.22988e-12
1.27635e-12
4.2788e-11
2.44097e-08
6.27504e-08
9.44826e-08
1.20891e-07
1.43496e-07
1.63268e-07
1.80792e-07
1.96488e-07
2.10663e-07
2.23561e-07
2.35371e-07
2.46246e-07
2.56308e-07
2.6566e-07
2.74385e-07
2.82554e-07
2.90226e-07
2.97451e-07
3.04275e-07
3.10734e-07
3.16861e-07
3.22686e-07
3.28234e-07
3.33527e-07
3.38586e-07
3.43428e-07
3.48069e-07
3.52524e-07
3.56805e-07
3.60925e-07
3.64893e-07
3.68721e-07
3.72415e-07
3.75986e-07
3.79439e-07
3.82782e-07
3.8602e-07
3.89161e-07
3.92208e-07
3.95167e-07
3.98042e-07
4.00838e-07
4.03558e-07
4.06206e-07
4.08785e-07
4.113e-07
4.13751e-07
4.16143e-07
4.18478e-07
4.20758e-07
4.22985e-07
4.25162e-07
4.27291e-07
4.29373e-07
4.3141e-07
4.33404e-07
4.35357e-07
4.3727e-07
4.39144e-07
4.40981e-07
4.42782e-07
4.44548e-07
4.4628e-07
4.4798e-07
4.49648e-07
4.51285e-07
4.52892e-07
4.54471e-07
4.56021e-07
4.57544e-07
4.5904e-07
4.60511e-07
4.61956e-07
4.63377e-07
4.64773e-07
4.66147e-07
4.67497e-07
4.68825e-07
4.70131e-07
4.71415e-07
4.72679e-07
4.73922e-07
4.75145e-07
4.76348e-07
4.77531e-07
4.78696e-07
4.79842e-07
4.80969e-07
4.82078e-07
4.83169e-07
4.84243e-07
4.85299e-07
4.86338e-07
4.8736e-07
4.88366e-07
4.89354e-07
4.90327e-07
4.91283e-07
4.92223e-07
4.93147e-07
4.94056e-07
4.94948e-07
4.95826e-07
4.96687e-07
4.97534e-07
4.98365e-07
4.99181e-07
)
;
    }
    inandouthalf21
    {
        type            cyclic;
        value           nonuniform List<scalar> 
300
(
-4.99982e-07
-5.00767e-07
-5.01538e-07
-5.02294e-07
-5.03035e-07
-5.03762e-07
-5.04473e-07
-5.0517e-07
-5.05852e-07
-5.0652e-07
-5.07173e-07
-5.07812e-07
-5.08435e-07
-5.09045e-07
-5.0964e-07
-5.10221e-07
-5.10787e-07
-5.11339e-07
-5.11877e-07
-5.12401e-07
-5.1291e-07
-5.13406e-07
-5.13887e-07
-5.14355e-07
-5.14808e-07
-5.15249e-07
-5.15675e-07
-5.16088e-07
-5.16487e-07
-5.16874e-07
-5.17247e-07
-5.17607e-07
-5.17954e-07
-5.18288e-07
-5.1861e-07
-5.1892e-07
-5.19217e-07
-5.19502e-07
-5.19775e-07
-5.20037e-07
-5.20287e-07
-5.20525e-07
-5.20752e-07
-5.20969e-07
-5.21174e-07
-5.21369e-07
-5.21554e-07
-5.21728e-07
-5.21892e-07
-5.22046e-07
-5.22191e-07
-5.22326e-07
-5.22451e-07
-5.22568e-07
-5.22675e-07
-5.22774e-07
-5.22864e-07
-5.22945e-07
-5.23018e-07
-5.23083e-07
-5.2314e-07
-5.23189e-07
-5.2323e-07
-5.23264e-07
-5.2329e-07
-5.23308e-07
-5.23319e-07
-5.23323e-07
-5.2332e-07
-5.2331e-07
-5.23293e-07
-5.23269e-07
-5.23238e-07
-5.23201e-07
-5.23157e-07
-5.23107e-07
-5.2305e-07
-5.22987e-07
-5.22918e-07
-5.22842e-07
-5.2276e-07
-5.22673e-07
-5.22579e-07
-5.22479e-07
-5.22373e-07
-5.22261e-07
-5.22144e-07
-5.2202e-07
-5.21891e-07
-5.21756e-07
-5.21616e-07
-5.21469e-07
-5.21317e-07
-5.2116e-07
-5.20997e-07
-5.20828e-07
-5.20654e-07
-5.20474e-07
-5.20289e-07
-5.20099e-07
-5.19903e-07
-5.19701e-07
-5.19495e-07
-5.19283e-07
-5.19065e-07
-5.18843e-07
-5.18615e-07
-5.18382e-07
-5.18143e-07
-5.179e-07
-5.17651e-07
-5.17397e-07
-5.17138e-07
-5.16873e-07
-5.16604e-07
-5.16329e-07
-5.1605e-07
-5.15765e-07
-5.15475e-07
-5.1518e-07
-5.1488e-07
-5.14576e-07
-5.14266e-07
-5.1395e-07
-5.1363e-07
-5.13305e-07
-5.12975e-07
-5.1264e-07
-5.123e-07
-5.11955e-07
-5.11606e-07
-5.11251e-07
-5.10891e-07
-5.10526e-07
-5.10156e-07
-5.09782e-07
-5.09402e-07
-5.09017e-07
-5.08628e-07
-5.08233e-07
-5.07834e-07
-5.07429e-07
-5.0702e-07
-5.06606e-07
-5.06186e-07
-5.05762e-07
-5.05332e-07
-5.04898e-07
-5.04459e-07
-5.04014e-07
-5.03565e-07
-5.0311e-07
-5.02651e-07
-5.02186e-07
-5.01716e-07
-5.01241e-07
-5.00761e-07
-5.00276e-07
-4.99786e-07
-4.9929e-07
-4.98789e-07
-4.98283e-07
-4.97772e-07
-4.97255e-07
-4.96733e-07
-4.96205e-07
-4.95672e-07
-4.95133e-07
-4.94589e-07
-4.9404e-07
-4.93484e-07
-4.92924e-07
-4.92357e-07
-4.91785e-07
-4.91206e-07
-4.90622e-07
-4.90033e-07
-4.89437e-07
-4.88835e-07
-4.88226e-07
-4.87612e-07
-4.86992e-07
-4.86365e-07
-4.85732e-07
-4.85093e-07
-4.84448e-07
-4.83796e-07
-4.83138e-07
-4.82473e-07
-4.81802e-07
-4.81123e-07
-4.80439e-07
-4.79747e-07
-4.79048e-07
-4.78343e-07
-4.7763e-07
-4.7691e-07
-4.76183e-07
-4.75448e-07
-4.74706e-07
-4.73957e-07
-4.73199e-07
-4.72434e-07
-4.7166e-07
-4.70879e-07
-4.70089e-07
-4.69291e-07
-4.68484e-07
-4.67669e-07
-4.66845e-07
-4.66012e-07
-4.6517e-07
-4.64318e-07
-4.63457e-07
-4.62587e-07
-4.61706e-07
-4.60816e-07
-4.59915e-07
-4.59004e-07
-4.58082e-07
-4.57149e-07
-4.56205e-07
-4.5525e-07
-4.54283e-07
-4.53305e-07
-4.52314e-07
-4.51311e-07
-4.50295e-07
-4.49266e-07
-4.48223e-07
-4.47167e-07
-4.46097e-07
-4.45013e-07
-4.43913e-07
-4.42799e-07
-4.41669e-07
-4.40523e-07
-4.3936e-07
-4.3818e-07
-4.36983e-07
-4.35768e-07
-4.34534e-07
-4.33281e-07
-4.32009e-07
-4.30716e-07
-4.29401e-07
-4.28065e-07
-4.26707e-07
-4.25325e-07
-4.23919e-07
-4.22488e-07
-4.2103e-07
-4.19546e-07
-4.18033e-07
-4.16492e-07
-4.14919e-07
-4.13315e-07
-4.11678e-07
-4.10006e-07
-4.08298e-07
-4.06552e-07
-4.04767e-07
-4.02939e-07
-4.01068e-07
-3.99151e-07
-3.97185e-07
-3.95167e-07
-3.93096e-07
-3.90967e-07
-3.88777e-07
-3.86523e-07
-3.84199e-07
-3.81802e-07
-3.79326e-07
-3.76765e-07
-3.74114e-07
-3.71365e-07
-3.68509e-07
-3.65538e-07
-3.62442e-07
-3.59208e-07
-3.55823e-07
-3.52271e-07
-3.48534e-07
-3.4459e-07
-3.40412e-07
-3.35971e-07
-3.31227e-07
-3.26134e-07
-3.20633e-07
-3.14649e-07
-3.08082e-07
-3.008e-07
-2.92617e-07
-2.83264e-07
-2.72323e-07
-2.591e-07
-2.42281e-07
-2.18766e-07
-1.70208e-07
)
;
    }
    inandouthalf22
    {
        type            cyclic;
        value           nonuniform List<scalar> 
300
(
4.99982e-07
5.00767e-07
5.01538e-07
5.02294e-07
5.03035e-07
5.03762e-07
5.04473e-07
5.0517e-07
5.05852e-07
5.0652e-07
5.07173e-07
5.07812e-07
5.08435e-07
5.09045e-07
5.0964e-07
5.10221e-07
5.10787e-07
5.11339e-07
5.11877e-07
5.12401e-07
5.1291e-07
5.13406e-07
5.13887e-07
5.14355e-07
5.14808e-07
5.15249e-07
5.15675e-07
5.16088e-07
5.16487e-07
5.16874e-07
5.17247e-07
5.17607e-07
5.17954e-07
5.18288e-07
5.1861e-07
5.1892e-07
5.19217e-07
5.19502e-07
5.19775e-07
5.20037e-07
5.20287e-07
5.20525e-07
5.20752e-07
5.20969e-07
5.21174e-07
5.21369e-07
5.21554e-07
5.21728e-07
5.21892e-07
5.22046e-07
5.22191e-07
5.22326e-07
5.22451e-07
5.22568e-07
5.22675e-07
5.22774e-07
5.22864e-07
5.22945e-07
5.23018e-07
5.23083e-07
5.2314e-07
5.23189e-07
5.2323e-07
5.23264e-07
5.2329e-07
5.23308e-07
5.23319e-07
5.23323e-07
5.2332e-07
5.2331e-07
5.23293e-07
5.23269e-07
5.23238e-07
5.23201e-07
5.23157e-07
5.23107e-07
5.2305e-07
5.22987e-07
5.22918e-07
5.22842e-07
5.2276e-07
5.22673e-07
5.22579e-07
5.22479e-07
5.22373e-07
5.22261e-07
5.22144e-07
5.2202e-07
5.21891e-07
5.21756e-07
5.21616e-07
5.21469e-07
5.21317e-07
5.2116e-07
5.20997e-07
5.20828e-07
5.20654e-07
5.20474e-07
5.20289e-07
5.20099e-07
5.19903e-07
5.19701e-07
5.19495e-07
5.19283e-07
5.19065e-07
5.18843e-07
5.18615e-07
5.18382e-07
5.18143e-07
5.179e-07
5.17651e-07
5.17397e-07
5.17138e-07
5.16873e-07
5.16604e-07
5.16329e-07
5.1605e-07
5.15765e-07
5.15475e-07
5.1518e-07
5.1488e-07
5.14576e-07
5.14266e-07
5.1395e-07
5.1363e-07
5.13305e-07
5.12975e-07
5.1264e-07
5.123e-07
5.11955e-07
5.11606e-07
5.11251e-07
5.10891e-07
5.10526e-07
5.10156e-07
5.09782e-07
5.09402e-07
5.09017e-07
5.08628e-07
5.08233e-07
5.07834e-07
5.07429e-07
5.0702e-07
5.06606e-07
5.06186e-07
5.05762e-07
5.05332e-07
5.04898e-07
5.04459e-07
5.04014e-07
5.03565e-07
5.0311e-07
5.02651e-07
5.02186e-07
5.01716e-07
5.01241e-07
5.00761e-07
5.00276e-07
4.99786e-07
4.9929e-07
4.98789e-07
4.98283e-07
4.97772e-07
4.97255e-07
4.96733e-07
4.96205e-07
4.95672e-07
4.95133e-07
4.94589e-07
4.9404e-07
4.93484e-07
4.92924e-07
4.92357e-07
4.91785e-07
4.91206e-07
4.90622e-07
4.90033e-07
4.89437e-07
4.88835e-07
4.88226e-07
4.87612e-07
4.86992e-07
4.86365e-07
4.85732e-07
4.85093e-07
4.84448e-07
4.83796e-07
4.83138e-07
4.82473e-07
4.81802e-07
4.81123e-07
4.80439e-07
4.79747e-07
4.79048e-07
4.78343e-07
4.7763e-07
4.7691e-07
4.76183e-07
4.75448e-07
4.74706e-07
4.73957e-07
4.73199e-07
4.72434e-07
4.7166e-07
4.70879e-07
4.70089e-07
4.69291e-07
4.68484e-07
4.67669e-07
4.66845e-07
4.66012e-07
4.6517e-07
4.64318e-07
4.63457e-07
4.62587e-07
4.61706e-07
4.60816e-07
4.59915e-07
4.59004e-07
4.58082e-07
4.57149e-07
4.56205e-07
4.5525e-07
4.54283e-07
4.53305e-07
4.52314e-07
4.51311e-07
4.50295e-07
4.49266e-07
4.48223e-07
4.47167e-07
4.46097e-07
4.45013e-07
4.43913e-07
4.42799e-07
4.41669e-07
4.40523e-07
4.3936e-07
4.3818e-07
4.36983e-07
4.35768e-07
4.34534e-07
4.33281e-07
4.32009e-07
4.30716e-07
4.29401e-07
4.28065e-07
4.26707e-07
4.25325e-07
4.23919e-07
4.22488e-07
4.2103e-07
4.19546e-07
4.18033e-07
4.16492e-07
4.14919e-07
4.13315e-07
4.11678e-07
4.10006e-07
4.08298e-07
4.06552e-07
4.04767e-07
4.02939e-07
4.01068e-07
3.99151e-07
3.97185e-07
3.95167e-07
3.93096e-07
3.90967e-07
3.88777e-07
3.86523e-07
3.84199e-07
3.81802e-07
3.79326e-07
3.76765e-07
3.74114e-07
3.71365e-07
3.68509e-07
3.65538e-07
3.62442e-07
3.59208e-07
3.55823e-07
3.52271e-07
3.48534e-07
3.4459e-07
3.40412e-07
3.35971e-07
3.31227e-07
3.26134e-07
3.20633e-07
3.14649e-07
3.08082e-07
3.008e-07
2.92617e-07
2.83264e-07
2.72323e-07
2.591e-07
2.42281e-07
2.18766e-07
1.70208e-07
)
;
    }
    top
    {
        type            fixedValue;
        value           uniform 0;
    }
    walls
    {
        type            fixedValue;
        value           uniform 0;
    }
    frontAndBackPlanes
    {
        type            empty;
        value           nonuniform 0();
    }
}


// ************************************************************************* //
