/*--------------------------------*- C++ -*----------------------------------*\
| =========                 |                                                 |
| \\      /  F ield         | OpenFOAM: The Open Source CFD Toolbox           |
|  \\    /   O peration     | Version:  2.1.1                                 |
|   \\  /    A nd           | Web:      www.OpenFOAM.org                      |
|    \\/     M anipulation  |                                                 |
\*---------------------------------------------------------------------------*/
FoamFile
{
    version     2.0;
    format      ascii;
    class       surfaceScalarField;
    location    "100";
    object      phib;
}
// * * * * * * * * * * * * * * * * * * * * * * * * * * * * * * * * * * * * * //

dimensions      [0 3 -1 0 0 0 0];

internalField   nonuniform List<scalar> 
599
(
6.37763e-17
6.40577e-17
6.42156e-17
6.44344e-17
6.46757e-17
6.494e-17
6.51941e-17
6.54663e-17
6.57221e-17
6.59893e-17
6.62356e-17
6.64904e-17
6.67221e-17
6.69613e-17
6.71765e-17
6.73989e-17
6.75972e-17
6.78029e-17
6.79847e-17
6.81746e-17
6.83409e-17
6.85159e-17
6.86681e-17
6.88295e-17
6.89685e-17
6.91176e-17
6.92449e-17
6.93828e-17
6.94993e-17
6.96272e-17
6.97341e-17
6.98529e-17
6.99512e-17
7.0062e-17
7.01527e-17
7.02562e-17
7.03399e-17
7.0437e-17
7.05147e-17
7.06061e-17
7.06784e-17
7.07648e-17
7.08323e-17
7.09144e-17
7.09777e-17
7.10557e-17
7.11154e-17
7.11902e-17
7.12467e-17
7.13185e-17
7.13723e-17
7.14416e-17
7.1493e-17
7.15603e-17
7.16098e-17
7.16752e-17
7.17231e-17
7.17872e-17
7.18337e-17
7.18966e-17
7.19422e-17
7.20042e-17
7.2049e-17
7.21103e-17
7.21543e-17
7.22152e-17
7.22589e-17
7.23196e-17
7.23633e-17
7.24238e-17
7.24674e-17
7.2528e-17
7.25715e-17
7.26324e-17
7.26762e-17
7.27372e-17
7.27814e-17
7.28429e-17
7.28874e-17
7.29493e-17
7.29943e-17
7.30567e-17
7.31021e-17
7.31651e-17
7.32112e-17
7.32746e-17
7.33212e-17
7.33853e-17
7.34324e-17
7.3497e-17
7.35446e-17
7.36097e-17
7.36578e-17
7.37234e-17
7.3772e-17
7.3838e-17
7.38869e-17
7.39534e-17
7.40025e-17
7.40691e-17
7.41186e-17
7.41856e-17
7.42351e-17
7.4302e-17
7.43517e-17
7.44186e-17
7.44682e-17
7.4535e-17
7.45841e-17
7.46507e-17
7.46994e-17
7.47655e-17
7.48136e-17
7.48791e-17
7.49265e-17
7.49911e-17
7.50377e-17
7.51012e-17
7.51466e-17
7.52089e-17
7.52528e-17
7.53136e-17
7.53559e-17
7.54149e-17
7.54553e-17
7.55126e-17
7.55507e-17
7.56056e-17
7.56415e-17
7.56938e-17
7.57266e-17
7.5776e-17
7.5806e-17
7.58521e-17
7.58785e-17
7.59208e-17
7.59435e-17
7.5982e-17
7.60002e-17
7.60342e-17
7.60478e-17
7.60768e-17
7.60854e-17
7.61089e-17
7.61117e-17
7.61293e-17
7.6126e-17
7.61374e-17
7.61276e-17
7.61321e-17
7.61148e-17
7.61116e-17
7.60866e-17
7.60752e-17
7.60417e-17
7.60214e-17
7.59786e-17
7.59487e-17
7.5896e-17
7.58558e-17
7.57925e-17
7.57412e-17
7.56664e-17
7.56034e-17
7.55164e-17
7.54405e-17
7.53406e-17
7.52512e-17
7.51372e-17
7.50334e-17
7.49046e-17
7.47856e-17
7.46412e-17
7.45064e-17
7.43456e-17
7.41937e-17
7.40149e-17
7.38432e-17
7.36433e-17
7.34481e-17
7.32245e-17
7.30117e-17
7.27712e-17
7.24721e-17
7.2109e-17
7.18939e-17
7.17012e-17
7.14408e-17
7.11736e-17
7.09576e-17
7.07222e-17
7.01549e-17
-2.57335e-10
-1.49271e-12
5.24702e-13
2.34246e-12
-3.1578e-13
-6.36142e-13
-6.71548e-13
-6.47252e-13
-6.54227e-13
-6.77161e-13
-6.86177e-13
-6.76983e-13
-6.58232e-13
-6.37818e-13
-6.19251e-13
-6.03111e-13
-5.88761e-13
-5.75367e-13
-5.62305e-13
-5.49209e-13
-5.35917e-13
-5.22397e-13
-5.0869e-13
-4.94873e-13
-4.81034e-13
-4.67257e-13
-4.53616e-13
-4.40173e-13
-4.26974e-13
-4.14055e-13
-4.01441e-13
-3.89149e-13
-3.7719e-13
-3.65572e-13
-3.54297e-13
-3.43365e-13
-3.32774e-13
-3.22521e-13
-3.126e-13
-3.03005e-13
-2.93731e-13
-2.84768e-13
-2.76109e-13
-2.67746e-13
-2.5967e-13
-2.51871e-13
-2.44342e-13
-2.37073e-13
-2.30055e-13
-2.23279e-13
-2.16736e-13
-2.10418e-13
-2.04317e-13
-1.98423e-13
-1.9273e-13
-1.8723e-13
-1.81915e-13
-1.76777e-13
-1.71811e-13
-1.67009e-13
-1.62366e-13
-1.57875e-13
-1.5353e-13
-1.49326e-13
-1.45257e-13
-1.41319e-13
-1.37507e-13
-1.33815e-13
-1.30241e-13
-1.26779e-13
-1.23426e-13
-1.20177e-13
-1.17029e-13
-1.13979e-13
-1.11024e-13
-1.08159e-13
-1.05382e-13
-1.02691e-13
-1.00081e-13
-9.75514e-14
-9.50985e-14
-9.27201e-14
-9.04137e-14
-8.81771e-14
-8.60081e-14
-8.39044e-14
-8.18641e-14
-7.98851e-14
-7.79656e-14
-7.61037e-14
-7.42975e-14
-7.25454e-14
-7.08457e-14
-6.91968e-14
-6.7597e-14
-6.6045e-14
-6.45391e-14
-6.30781e-14
-6.16604e-14
-6.02848e-14
-5.895e-14
-5.76547e-14
-5.63976e-14
-5.51777e-14
-5.39937e-14
-5.28445e-14
-5.1729e-14
-5.06462e-14
-4.95951e-14
-4.85746e-14
-4.75837e-14
-4.66216e-14
-4.56874e-14
-4.478e-14
-4.38987e-14
-4.30425e-14
-4.22108e-14
-4.14027e-14
-4.06174e-14
-3.98541e-14
-3.91122e-14
-3.83908e-14
-3.76894e-14
-3.70073e-14
-3.63438e-14
-3.56982e-14
-3.507e-14
-3.44585e-14
-3.38632e-14
-3.32836e-14
-3.2719e-14
-3.2169e-14
-3.1633e-14
-3.11105e-14
-3.06012e-14
-3.01044e-14
-2.96198e-14
-2.9147e-14
-2.86854e-14
-2.82348e-14
-2.77948e-14
-2.73649e-14
-2.69448e-14
-2.65341e-14
-2.61326e-14
-2.57399e-14
-2.53557e-14
-2.49797e-14
-2.46116e-14
-2.42512e-14
-2.38982e-14
-2.35524e-14
-2.32134e-14
-2.28811e-14
-2.25553e-14
-2.22357e-14
-2.19222e-14
-2.16145e-14
-2.13125e-14
-2.1016e-14
-2.07248e-14
-2.04388e-14
-2.01578e-14
-1.98816e-14
-1.96101e-14
-1.93433e-14
-1.90808e-14
-1.88227e-14
-1.85689e-14
-1.83191e-14
-1.80732e-14
-1.78313e-14
-1.75931e-14
-1.73586e-14
-1.71277e-14
-1.69003e-14
-1.66762e-14
-1.64555e-14
-1.62381e-14
-1.60238e-14
-1.58126e-14
-1.56044e-14
-1.53992e-14
-1.51969e-14
-1.49974e-14
-1.48006e-14
-1.46065e-14
-1.44151e-14
-1.42263e-14
-1.404e-14
-1.38562e-14
-1.36748e-14
-1.34958e-14
-1.33191e-14
-1.31447e-14
-1.29726e-14
-1.28026e-14
-1.26348e-14
-1.24691e-14
-1.23055e-14
-1.2144e-14
-1.19844e-14
-1.18268e-14
-1.16711e-14
-1.15173e-14
-1.13653e-14
-1.12152e-14
-1.10669e-14
-1.09203e-14
-1.07755e-14
-1.06323e-14
-1.04909e-14
-1.0351e-14
-1.02128e-14
-1.00762e-14
-9.94114e-15
-9.80761e-15
-9.67559e-15
-9.54505e-15
-9.41596e-15
-9.2883e-15
-9.16204e-15
-9.03717e-15
-8.91364e-15
-8.79145e-15
-8.67056e-15
-8.55094e-15
-8.43258e-15
-8.31545e-15
-8.19952e-15
-8.08477e-15
-7.97117e-15
-7.8587e-15
-7.74733e-15
-7.63703e-15
-7.52777e-15
-7.41953e-15
-7.31228e-15
-7.20599e-15
-7.10062e-15
-6.99615e-15
-6.89253e-15
-6.78973e-15
-6.68772e-15
-6.58643e-15
-6.48583e-15
-6.38587e-15
-6.28648e-15
-6.1876e-15
-6.08914e-15
-5.99103e-15
-5.89316e-15
-5.79543e-15
-5.69771e-15
-5.59986e-15
-5.50169e-15
-5.403e-15
-5.30359e-15
-5.2025e-15
-5.10197e-15
-5.00436e-15
-4.90896e-15
-4.81567e-15
-4.7243e-15
-4.63464e-15
-4.54654e-15
-4.45975e-15
-4.37419e-15
-4.28982e-15
-4.20621e-15
-4.12379e-15
-4.03961e-15
-3.95617e-15
-3.86701e-15
-3.78592e-15
-3.71303e-15
-3.68244e-15
-3.71993e-15
-3.80408e-15
-3.95628e-15
-3.82945e-15
-3.35853e-15
-2.63033e-15
-1.67433e-15
-2.5301e-15
-2.79357e-15
-1.44215e-14
4.73527e-15
-2.15633e-14
-1.12507e-14
-6.29303e-15
-3.06832e-15
-4.69873e-16
-1.55146e-15
-2.0249e-15
-6.10443e-15
-6.21547e-15
-3.23037e-15
-1.91033e-15
-5.21911e-16
-9.13331e-16
-2.43911e-15
-3.59369e-15
-4.04216e-15
-3.67384e-15
-1.63624e-15
-1.97568e-15
-1.47394e-15
-1.2489e-15
-2.91003e-15
-2.83065e-15
-2.41942e-15
-2.70037e-15
-1.3564e-15
-1.35775e-15
-2.3681e-15
-1.76037e-15
-2.00723e-15
-2.71351e-15
-1.39888e-15
-1.95328e-15
-1.58534e-15
-1.36825e-15
-2.21822e-15
-1.28142e-15
-2.16472e-15
-1.37329e-15
-1.45047e-15
-1.7593e-15
-1.08251e-15
-1.89155e-15
-1.03591e-15
-1.58107e-15
-1.55124e-15
-9.72804e-16
-1.17034e-15
-1.31249e-15
-1.48832e-15
-8.76918e-16
-1.18806e-15
-1.35509e-15
-7.99428e-16
-1.1967e-15
-1.17768e-15
-7.15242e-16
-1.06337e-15
-1.15038e-15
-7.67102e-16
-7.68513e-16
-9.83743e-16
-9.43461e-16
-7.39565e-16
-7.05308e-16
-7.86061e-16
-8.53171e-16
-6.73749e-16
-5.9441e-16
-7.81275e-16
-6.72326e-16
-5.2095e-16
-6.38095e-16
-6.33478e-16
-5.19014e-16
-5.22095e-16
-5.33184e-16
-5.06799e-16
-4.67464e-16
-4.51443e-16
-4.4516e-16
-4.18647e-16
-3.99608e-16
-3.80395e-16
-3.66265e-16
-3.47908e-16
-3.28122e-16
-3.14175e-16
-2.98063e-16
-2.78496e-16
-2.698e-16
-2.45066e-16
-2.41452e-16
-2.16242e-16
-2.10685e-16
-1.91937e-16
-1.8076e-16
-1.68074e-16
-1.54249e-16
-1.44143e-16
-1.30606e-16
-1.20945e-16
-1.09101e-16
-9.93189e-17
-8.90868e-17
-7.96668e-17
-7.0576e-17
-6.19274e-17
-5.37612e-17
-4.60465e-17
-3.88143e-17
-3.20725e-17
-2.58386e-17
-2.01353e-17
-1.49856e-17
-1.04219e-17
-6.4896e-18
-3.26424e-18
-8.92547e-19
)
;

boundaryField
{
    inandouthalf11
    {
        type            cyclic;
        value           nonuniform List<scalar> 
300
(
-1.08955e-12
-1.07563e-12
-1.07683e-12
-1.07855e-12
-1.07825e-12
-1.07819e-12
-1.07842e-12
-1.07859e-12
-1.07873e-12
-1.07888e-12
-1.07904e-12
-1.07919e-12
-1.07935e-12
-1.07951e-12
-1.07967e-12
-1.07983e-12
-1.08e-12
-1.08016e-12
-1.08033e-12
-1.08051e-12
-1.08067e-12
-1.08085e-12
-1.08102e-12
-1.0812e-12
-1.08138e-12
-1.08156e-12
-1.08174e-12
-1.08192e-12
-1.08211e-12
-1.0823e-12
-1.08249e-12
-1.08268e-12
-1.08287e-12
-1.08307e-12
-1.08326e-12
-1.08346e-12
-1.08366e-12
-1.08387e-12
-1.08407e-12
-1.08428e-12
-1.08449e-12
-1.0847e-12
-1.08492e-12
-1.08513e-12
-1.08535e-12
-1.08557e-12
-1.08579e-12
-1.08601e-12
-1.08624e-12
-1.08647e-12
-1.08671e-12
-1.08694e-12
-1.08717e-12
-1.08741e-12
-1.08765e-12
-1.08789e-12
-1.08814e-12
-1.08839e-12
-1.08863e-12
-1.08889e-12
-1.08915e-12
-1.0894e-12
-1.08967e-12
-1.08992e-12
-1.0902e-12
-1.09046e-12
-1.09074e-12
-1.09101e-12
-1.09129e-12
-1.09156e-12
-1.09185e-12
-1.09213e-12
-1.09243e-12
-1.09272e-12
-1.09301e-12
-1.09332e-12
-1.09361e-12
-1.09392e-12
-1.09423e-12
-1.09454e-12
-1.09485e-12
-1.09517e-12
-1.09549e-12
-1.09582e-12
-1.09615e-12
-1.09648e-12
-1.09682e-12
-1.09716e-12
-1.0975e-12
-1.09785e-12
-1.0982e-12
-1.09856e-12
-1.09892e-12
-1.09929e-12
-1.09966e-12
-1.10003e-12
-1.10041e-12
-1.10078e-12
-1.10117e-12
-1.10157e-12
-1.10197e-12
-1.10237e-12
-1.10277e-12
-1.10319e-12
-1.10361e-12
-1.10402e-12
-1.10446e-12
-1.10488e-12
-1.10533e-12
-1.10577e-12
-1.10622e-12
-1.10667e-12
-1.10714e-12
-1.10761e-12
-1.10809e-12
-1.10857e-12
-1.10905e-12
-1.10955e-12
-1.11006e-12
-1.11056e-12
-1.11108e-12
-1.1116e-12
-1.11213e-12
-1.11267e-12
-1.11322e-12
-1.11378e-12
-1.11434e-12
-1.11491e-12
-1.11549e-12
-1.11608e-12
-1.11669e-12
-1.1173e-12
-1.11792e-12
-1.11854e-12
-1.11918e-12
-1.11984e-12
-1.1205e-12
-1.12117e-12
-1.12187e-12
-1.12256e-12
-1.12328e-12
-1.124e-12
-1.12473e-12
-1.12549e-12
-1.12626e-12
-1.12704e-12
-1.12785e-12
-1.12867e-12
-1.1295e-12
-1.13035e-12
-1.13122e-12
-1.13212e-12
-1.13303e-12
-1.13397e-12
-1.13493e-12
-1.13591e-12
-1.13691e-12
-1.13795e-12
-1.13901e-12
-1.1401e-12
-1.14122e-12
-1.14237e-12
-1.14357e-12
-1.14479e-12
-1.14606e-12
-1.14736e-12
-1.14871e-12
-1.1501e-12
-1.15155e-12
-1.15306e-12
-1.15462e-12
-1.15625e-12
-1.15795e-12
-1.15972e-12
-1.16158e-12
-1.16353e-12
-1.16562e-12
-1.16789e-12
-1.17039e-12
-1.17321e-12
-1.17641e-12
-1.1799e-12
-1.18331e-12
-1.18756e-12
-1.19905e-12
-1.20847e-12
-1.20554e-12
-1.21108e-12
-1.2185e-12
-1.22433e-12
-1.22988e-12
-1.27627e-12
-4.27765e-11
-2.44458e-08
-6.27533e-08
-9.44833e-08
-1.20891e-07
-1.43496e-07
-1.63268e-07
-1.80793e-07
-1.96488e-07
-2.10663e-07
-2.23561e-07
-2.35371e-07
-2.46246e-07
-2.56308e-07
-2.6566e-07
-2.74385e-07
-2.82554e-07
-2.90226e-07
-2.97451e-07
-3.04275e-07
-3.10734e-07
-3.16861e-07
-3.22686e-07
-3.28234e-07
-3.33527e-07
-3.38586e-07
-3.43428e-07
-3.48069e-07
-3.52524e-07
-3.56805e-07
-3.60925e-07
-3.64893e-07
-3.68721e-07
-3.72415e-07
-3.75986e-07
-3.79439e-07
-3.82782e-07
-3.8602e-07
-3.89161e-07
-3.92208e-07
-3.95167e-07
-3.98042e-07
-4.00838e-07
-4.03558e-07
-4.06206e-07
-4.08785e-07
-4.113e-07
-4.13751e-07
-4.16143e-07
-4.18478e-07
-4.20758e-07
-4.22985e-07
-4.25162e-07
-4.27291e-07
-4.29373e-07
-4.3141e-07
-4.33404e-07
-4.35357e-07
-4.3727e-07
-4.39144e-07
-4.40981e-07
-4.42782e-07
-4.44548e-07
-4.4628e-07
-4.4798e-07
-4.49648e-07
-4.51285e-07
-4.52892e-07
-4.54471e-07
-4.56021e-07
-4.57544e-07
-4.5904e-07
-4.60511e-07
-4.61956e-07
-4.63377e-07
-4.64773e-07
-4.66147e-07
-4.67497e-07
-4.68825e-07
-4.70131e-07
-4.71415e-07
-4.72679e-07
-4.73922e-07
-4.75145e-07
-4.76348e-07
-4.77531e-07
-4.78696e-07
-4.79842e-07
-4.80969e-07
-4.82078e-07
-4.83169e-07
-4.84243e-07
-4.85299e-07
-4.86338e-07
-4.8736e-07
-4.88366e-07
-4.89354e-07
-4.90327e-07
-4.91283e-07
-4.92223e-07
-4.93147e-07
-4.94056e-07
-4.94948e-07
-4.95826e-07
-4.96687e-07
-4.97534e-07
-4.98365e-07
-4.99181e-07
)
;
    }
    inandouthalf12
    {
        type            cyclic;
        value           nonuniform List<scalar> 
300
(
1.08955e-12
1.07563e-12
1.07683e-12
1.07855e-12
1.07825e-12
1.07819e-12
1.07842e-12
1.07859e-12
1.07873e-12
1.07888e-12
1.07904e-12
1.07919e-12
1.07935e-12
1.07951e-12
1.07967e-12
1.07983e-12
1.08e-12
1.08016e-12
1.08033e-12
1.08051e-12
1.08067e-12
1.08085e-12
1.08102e-12
1.0812e-12
1.08138e-12
1.08156e-12
1.08174e-12
1.08192e-12
1.08211e-12
1.0823e-12
1.08249e-12
1.08268e-12
1.08287e-12
1.08307e-12
1.08326e-12
1.08346e-12
1.08366e-12
1.08387e-12
1.08407e-12
1.08428e-12
1.08449e-12
1.0847e-12
1.08492e-12
1.08513e-12
1.08535e-12
1.08557e-12
1.08579e-12
1.08601e-12
1.08624e-12
1.08647e-12
1.08671e-12
1.08694e-12
1.08717e-12
1.08741e-12
1.08765e-12
1.08789e-12
1.08814e-12
1.08839e-12
1.08863e-12
1.08889e-12
1.08915e-12
1.0894e-12
1.08967e-12
1.08992e-12
1.0902e-12
1.09046e-12
1.09074e-12
1.09101e-12
1.09129e-12
1.09156e-12
1.09185e-12
1.09213e-12
1.09243e-12
1.09272e-12
1.09301e-12
1.09332e-12
1.09361e-12
1.09392e-12
1.09423e-12
1.09454e-12
1.09485e-12
1.09517e-12
1.09549e-12
1.09582e-12
1.09615e-12
1.09648e-12
1.09682e-12
1.09716e-12
1.0975e-12
1.09785e-12
1.0982e-12
1.09856e-12
1.09892e-12
1.09929e-12
1.09966e-12
1.10003e-12
1.10041e-12
1.10078e-12
1.10117e-12
1.10157e-12
1.10197e-12
1.10237e-12
1.10277e-12
1.10319e-12
1.10361e-12
1.10402e-12
1.10446e-12
1.10488e-12
1.10533e-12
1.10577e-12
1.10622e-12
1.10667e-12
1.10714e-12
1.10761e-12
1.10809e-12
1.10857e-12
1.10905e-12
1.10955e-12
1.11006e-12
1.11056e-12
1.11108e-12
1.1116e-12
1.11213e-12
1.11267e-12
1.11322e-12
1.11378e-12
1.11434e-12
1.11491e-12
1.11549e-12
1.11608e-12
1.11669e-12
1.1173e-12
1.11792e-12
1.11854e-12
1.11918e-12
1.11984e-12
1.1205e-12
1.12117e-12
1.12187e-12
1.12256e-12
1.12328e-12
1.124e-12
1.12473e-12
1.12549e-12
1.12626e-12
1.12704e-12
1.12785e-12
1.12867e-12
1.1295e-12
1.13035e-12
1.13122e-12
1.13212e-12
1.13303e-12
1.13397e-12
1.13493e-12
1.13591e-12
1.13691e-12
1.13795e-12
1.13901e-12
1.1401e-12
1.14122e-12
1.14237e-12
1.14357e-12
1.14479e-12
1.14606e-12
1.14736e-12
1.14871e-12
1.1501e-12
1.15155e-12
1.15306e-12
1.15462e-12
1.15625e-12
1.15795e-12
1.15972e-12
1.16158e-12
1.16353e-12
1.16562e-12
1.16789e-12
1.17039e-12
1.17321e-12
1.17641e-12
1.1799e-12
1.18331e-12
1.18756e-12
1.19905e-12
1.20847e-12
1.20554e-12
1.21108e-12
1.2185e-12
1.22433e-12
1.22988e-12
1.27627e-12
4.27765e-11
2.44458e-08
6.27533e-08
9.44833e-08
1.20891e-07
1.43496e-07
1.63268e-07
1.80793e-07
1.96488e-07
2.10663e-07
2.23561e-07
2.35371e-07
2.46246e-07
2.56308e-07
2.6566e-07
2.74385e-07
2.82554e-07
2.90226e-07
2.97451e-07
3.04275e-07
3.10734e-07
3.16861e-07
3.22686e-07
3.28234e-07
3.33527e-07
3.38586e-07
3.43428e-07
3.48069e-07
3.52524e-07
3.56805e-07
3.60925e-07
3.64893e-07
3.68721e-07
3.72415e-07
3.75986e-07
3.79439e-07
3.82782e-07
3.8602e-07
3.89161e-07
3.92208e-07
3.95167e-07
3.98042e-07
4.00838e-07
4.03558e-07
4.06206e-07
4.08785e-07
4.113e-07
4.13751e-07
4.16143e-07
4.18478e-07
4.20758e-07
4.22985e-07
4.25162e-07
4.27291e-07
4.29373e-07
4.3141e-07
4.33404e-07
4.35357e-07
4.3727e-07
4.39144e-07
4.40981e-07
4.42782e-07
4.44548e-07
4.4628e-07
4.4798e-07
4.49648e-07
4.51285e-07
4.52892e-07
4.54471e-07
4.56021e-07
4.57544e-07
4.5904e-07
4.60511e-07
4.61956e-07
4.63377e-07
4.64773e-07
4.66147e-07
4.67497e-07
4.68825e-07
4.70131e-07
4.71415e-07
4.72679e-07
4.73922e-07
4.75145e-07
4.76348e-07
4.77531e-07
4.78696e-07
4.79842e-07
4.80969e-07
4.82078e-07
4.83169e-07
4.84243e-07
4.85299e-07
4.86338e-07
4.8736e-07
4.88366e-07
4.89354e-07
4.90327e-07
4.91283e-07
4.92223e-07
4.93147e-07
4.94056e-07
4.94948e-07
4.95826e-07
4.96687e-07
4.97534e-07
4.98365e-07
4.99181e-07
)
;
    }
    inandouthalf21
    {
        type            cyclic;
        value           nonuniform List<scalar> 
300
(
-4.99982e-07
-5.00767e-07
-5.01538e-07
-5.02294e-07
-5.03035e-07
-5.03762e-07
-5.04473e-07
-5.0517e-07
-5.05852e-07
-5.0652e-07
-5.07173e-07
-5.07812e-07
-5.08435e-07
-5.09045e-07
-5.0964e-07
-5.10221e-07
-5.10787e-07
-5.11339e-07
-5.11877e-07
-5.12401e-07
-5.1291e-07
-5.13406e-07
-5.13887e-07
-5.14355e-07
-5.14808e-07
-5.15249e-07
-5.15675e-07
-5.16088e-07
-5.16487e-07
-5.16874e-07
-5.17247e-07
-5.17607e-07
-5.17954e-07
-5.18288e-07
-5.1861e-07
-5.1892e-07
-5.19217e-07
-5.19502e-07
-5.19775e-07
-5.20037e-07
-5.20287e-07
-5.20525e-07
-5.20752e-07
-5.20969e-07
-5.21174e-07
-5.21369e-07
-5.21554e-07
-5.21728e-07
-5.21892e-07
-5.22046e-07
-5.22191e-07
-5.22326e-07
-5.22451e-07
-5.22568e-07
-5.22675e-07
-5.22774e-07
-5.22864e-07
-5.22945e-07
-5.23019e-07
-5.23083e-07
-5.2314e-07
-5.23189e-07
-5.2323e-07
-5.23264e-07
-5.2329e-07
-5.23308e-07
-5.23319e-07
-5.23323e-07
-5.2332e-07
-5.2331e-07
-5.23293e-07
-5.23269e-07
-5.23238e-07
-5.23201e-07
-5.23157e-07
-5.23107e-07
-5.2305e-07
-5.22987e-07
-5.22918e-07
-5.22842e-07
-5.2276e-07
-5.22673e-07
-5.22579e-07
-5.22479e-07
-5.22373e-07
-5.22261e-07
-5.22144e-07
-5.2202e-07
-5.21891e-07
-5.21756e-07
-5.21616e-07
-5.21469e-07
-5.21317e-07
-5.2116e-07
-5.20997e-07
-5.20828e-07
-5.20654e-07
-5.20474e-07
-5.20289e-07
-5.20099e-07
-5.19903e-07
-5.19701e-07
-5.19495e-07
-5.19283e-07
-5.19065e-07
-5.18843e-07
-5.18615e-07
-5.18382e-07
-5.18143e-07
-5.179e-07
-5.17651e-07
-5.17397e-07
-5.17138e-07
-5.16873e-07
-5.16604e-07
-5.16329e-07
-5.1605e-07
-5.15765e-07
-5.15475e-07
-5.1518e-07
-5.1488e-07
-5.14576e-07
-5.14266e-07
-5.13951e-07
-5.1363e-07
-5.13305e-07
-5.12975e-07
-5.1264e-07
-5.123e-07
-5.11955e-07
-5.11606e-07
-5.11251e-07
-5.10891e-07
-5.10526e-07
-5.10156e-07
-5.09782e-07
-5.09402e-07
-5.09017e-07
-5.08628e-07
-5.08233e-07
-5.07834e-07
-5.07429e-07
-5.0702e-07
-5.06606e-07
-5.06186e-07
-5.05762e-07
-5.05332e-07
-5.04898e-07
-5.04459e-07
-5.04014e-07
-5.03565e-07
-5.0311e-07
-5.02651e-07
-5.02186e-07
-5.01716e-07
-5.01242e-07
-5.00761e-07
-5.00276e-07
-4.99786e-07
-4.9929e-07
-4.98789e-07
-4.98283e-07
-4.97772e-07
-4.97255e-07
-4.96733e-07
-4.96205e-07
-4.95672e-07
-4.95133e-07
-4.94589e-07
-4.9404e-07
-4.93484e-07
-4.92924e-07
-4.92357e-07
-4.91785e-07
-4.91206e-07
-4.90622e-07
-4.90033e-07
-4.89437e-07
-4.88835e-07
-4.88226e-07
-4.87612e-07
-4.86992e-07
-4.86365e-07
-4.85732e-07
-4.85093e-07
-4.84448e-07
-4.83796e-07
-4.83138e-07
-4.82473e-07
-4.81802e-07
-4.81123e-07
-4.80439e-07
-4.79747e-07
-4.79049e-07
-4.78343e-07
-4.7763e-07
-4.7691e-07
-4.76183e-07
-4.75448e-07
-4.74706e-07
-4.73957e-07
-4.73199e-07
-4.72434e-07
-4.7166e-07
-4.70879e-07
-4.70089e-07
-4.69291e-07
-4.68484e-07
-4.67669e-07
-4.66845e-07
-4.66012e-07
-4.6517e-07
-4.64318e-07
-4.63457e-07
-4.62587e-07
-4.61706e-07
-4.60816e-07
-4.59915e-07
-4.59004e-07
-4.58082e-07
-4.57149e-07
-4.56205e-07
-4.5525e-07
-4.54283e-07
-4.53305e-07
-4.52314e-07
-4.51311e-07
-4.50295e-07
-4.49266e-07
-4.48223e-07
-4.47167e-07
-4.46097e-07
-4.45013e-07
-4.43913e-07
-4.42799e-07
-4.41669e-07
-4.40523e-07
-4.3936e-07
-4.3818e-07
-4.36983e-07
-4.35768e-07
-4.34534e-07
-4.33281e-07
-4.32009e-07
-4.30716e-07
-4.29401e-07
-4.28065e-07
-4.26707e-07
-4.25325e-07
-4.23919e-07
-4.22488e-07
-4.2103e-07
-4.19546e-07
-4.18033e-07
-4.16492e-07
-4.14919e-07
-4.13315e-07
-4.11678e-07
-4.10006e-07
-4.08298e-07
-4.06552e-07
-4.04767e-07
-4.02939e-07
-4.01068e-07
-3.99151e-07
-3.97185e-07
-3.95167e-07
-3.93096e-07
-3.90967e-07
-3.88777e-07
-3.86523e-07
-3.84199e-07
-3.81802e-07
-3.79326e-07
-3.76765e-07
-3.74114e-07
-3.71365e-07
-3.68509e-07
-3.65538e-07
-3.62442e-07
-3.59208e-07
-3.55823e-07
-3.52271e-07
-3.48534e-07
-3.4459e-07
-3.40412e-07
-3.35971e-07
-3.31227e-07
-3.26134e-07
-3.20633e-07
-3.14649e-07
-3.08082e-07
-3.008e-07
-2.92617e-07
-2.83264e-07
-2.72323e-07
-2.591e-07
-2.42281e-07
-2.18766e-07
-1.70208e-07
)
;
    }
    inandouthalf22
    {
        type            cyclic;
        value           nonuniform List<scalar> 
300
(
4.99982e-07
5.00767e-07
5.01538e-07
5.02294e-07
5.03035e-07
5.03762e-07
5.04473e-07
5.0517e-07
5.05852e-07
5.0652e-07
5.07173e-07
5.07812e-07
5.08435e-07
5.09045e-07
5.0964e-07
5.10221e-07
5.10787e-07
5.11339e-07
5.11877e-07
5.12401e-07
5.1291e-07
5.13406e-07
5.13887e-07
5.14355e-07
5.14808e-07
5.15249e-07
5.15675e-07
5.16088e-07
5.16487e-07
5.16874e-07
5.17247e-07
5.17607e-07
5.17954e-07
5.18288e-07
5.1861e-07
5.1892e-07
5.19217e-07
5.19502e-07
5.19775e-07
5.20037e-07
5.20287e-07
5.20525e-07
5.20752e-07
5.20969e-07
5.21174e-07
5.21369e-07
5.21554e-07
5.21728e-07
5.21892e-07
5.22046e-07
5.22191e-07
5.22326e-07
5.22451e-07
5.22568e-07
5.22675e-07
5.22774e-07
5.22864e-07
5.22945e-07
5.23019e-07
5.23083e-07
5.2314e-07
5.23189e-07
5.2323e-07
5.23264e-07
5.2329e-07
5.23308e-07
5.23319e-07
5.23323e-07
5.2332e-07
5.2331e-07
5.23293e-07
5.23269e-07
5.23238e-07
5.23201e-07
5.23157e-07
5.23107e-07
5.2305e-07
5.22987e-07
5.22918e-07
5.22842e-07
5.2276e-07
5.22673e-07
5.22579e-07
5.22479e-07
5.22373e-07
5.22261e-07
5.22144e-07
5.2202e-07
5.21891e-07
5.21756e-07
5.21616e-07
5.21469e-07
5.21317e-07
5.2116e-07
5.20997e-07
5.20828e-07
5.20654e-07
5.20474e-07
5.20289e-07
5.20099e-07
5.19903e-07
5.19701e-07
5.19495e-07
5.19283e-07
5.19065e-07
5.18843e-07
5.18615e-07
5.18382e-07
5.18143e-07
5.179e-07
5.17651e-07
5.17397e-07
5.17138e-07
5.16873e-07
5.16604e-07
5.16329e-07
5.1605e-07
5.15765e-07
5.15475e-07
5.1518e-07
5.1488e-07
5.14576e-07
5.14266e-07
5.13951e-07
5.1363e-07
5.13305e-07
5.12975e-07
5.1264e-07
5.123e-07
5.11955e-07
5.11606e-07
5.11251e-07
5.10891e-07
5.10526e-07
5.10156e-07
5.09782e-07
5.09402e-07
5.09017e-07
5.08628e-07
5.08233e-07
5.07834e-07
5.07429e-07
5.0702e-07
5.06606e-07
5.06186e-07
5.05762e-07
5.05332e-07
5.04898e-07
5.04459e-07
5.04014e-07
5.03565e-07
5.0311e-07
5.02651e-07
5.02186e-07
5.01716e-07
5.01242e-07
5.00761e-07
5.00276e-07
4.99786e-07
4.9929e-07
4.98789e-07
4.98283e-07
4.97772e-07
4.97255e-07
4.96733e-07
4.96205e-07
4.95672e-07
4.95133e-07
4.94589e-07
4.9404e-07
4.93484e-07
4.92924e-07
4.92357e-07
4.91785e-07
4.91206e-07
4.90622e-07
4.90033e-07
4.89437e-07
4.88835e-07
4.88226e-07
4.87612e-07
4.86992e-07
4.86365e-07
4.85732e-07
4.85093e-07
4.84448e-07
4.83796e-07
4.83138e-07
4.82473e-07
4.81802e-07
4.81123e-07
4.80439e-07
4.79747e-07
4.79049e-07
4.78343e-07
4.7763e-07
4.7691e-07
4.76183e-07
4.75448e-07
4.74706e-07
4.73957e-07
4.73199e-07
4.72434e-07
4.7166e-07
4.70879e-07
4.70089e-07
4.69291e-07
4.68484e-07
4.67669e-07
4.66845e-07
4.66012e-07
4.6517e-07
4.64318e-07
4.63457e-07
4.62587e-07
4.61706e-07
4.60816e-07
4.59915e-07
4.59004e-07
4.58082e-07
4.57149e-07
4.56205e-07
4.5525e-07
4.54283e-07
4.53305e-07
4.52314e-07
4.51311e-07
4.50295e-07
4.49266e-07
4.48223e-07
4.47167e-07
4.46097e-07
4.45013e-07
4.43913e-07
4.42799e-07
4.41669e-07
4.40523e-07
4.3936e-07
4.3818e-07
4.36983e-07
4.35768e-07
4.34534e-07
4.33281e-07
4.32009e-07
4.30716e-07
4.29401e-07
4.28065e-07
4.26707e-07
4.25325e-07
4.23919e-07
4.22488e-07
4.2103e-07
4.19546e-07
4.18033e-07
4.16492e-07
4.14919e-07
4.13315e-07
4.11678e-07
4.10006e-07
4.08298e-07
4.06552e-07
4.04767e-07
4.02939e-07
4.01068e-07
3.99151e-07
3.97185e-07
3.95167e-07
3.93096e-07
3.90967e-07
3.88777e-07
3.86523e-07
3.84199e-07
3.81802e-07
3.79326e-07
3.76765e-07
3.74114e-07
3.71365e-07
3.68509e-07
3.65538e-07
3.62442e-07
3.59208e-07
3.55823e-07
3.52271e-07
3.48534e-07
3.4459e-07
3.40412e-07
3.35971e-07
3.31227e-07
3.26134e-07
3.20633e-07
3.14649e-07
3.08082e-07
3.008e-07
2.92617e-07
2.83264e-07
2.72323e-07
2.591e-07
2.42281e-07
2.18766e-07
1.70208e-07
)
;
    }
    top
    {
        type            fixedValue;
        value           uniform 0;
    }
    walls
    {
        type            fixedValue;
        value           uniform 0;
    }
    frontAndBackPlanes
    {
        type            empty;
        value           nonuniform 0();
    }
}


// ************************************************************************* //
