/*--------------------------------*- C++ -*----------------------------------*\
| =========                 |                                                 |
| \\      /  F ield         | OpenFOAM: The Open Source CFD Toolbox           |
|  \\    /   O peration     | Version:  2.1.1                                 |
|   \\  /    A nd           | Web:      www.OpenFOAM.org                      |
|    \\/     M anipulation  |                                                 |
\*---------------------------------------------------------------------------*/
FoamFile
{
    version     2.0;
    format      ascii;
    class       volVectorField;
    location    "100";
    object      susb;
}
// * * * * * * * * * * * * * * * * * * * * * * * * * * * * * * * * * * * * * //

dimensions      [0 1 -2 0 0 0 0];

internalField   nonuniform List<vector> 
600
(
(0 2.52422e-12 0)
(0 6.37081e-12 0)
(0 -2.8764e-15 0)
(0 -3.28126e-16 0)
(-2.33898e-29 3.44724e-17 0)
(-6.73184e-30 -4.82861e-18 0)
(-4.12848e-30 -3.43026e-18 0)
(0 -2.18314e-18 0)
(-3.40038e-30 -2.05433e-18 0)
(0 -2.18254e-18 0)
(-1.6998e-30 -2.18236e-18 0)
(0 -2.24611e-18 0)
(-1.69939e-30 -2.24585e-18 0)
(0 -2.24562e-18 0)
(0 -2.30939e-18 0)
(0 -2.30909e-18 0)
(0 -2.30874e-18 0)
(-1.69837e-30 -2.37238e-18 0)
(0 -2.43601e-18 0)
(0 -2.37178e-18 0)
(0 -2.43558e-18 0)
(-1.6975e-30 -2.49937e-18 0)
(0 -2.43528e-18 0)
(0 -2.49906e-18 0)
(0 -2.56283e-18 0)
(-1.6966e-30 -2.56272e-18 0)
(0 -2.56266e-18 0)
(0 -2.5625e-18 0)
(0 -2.62608e-18 0)
(0 -2.68958e-18 0)
(0 -2.68924e-18 0)
(0 -2.68901e-18 0)
(0 -2.75265e-18 0)
(0 -2.75237e-18 0)
(0 -2.75202e-18 0)
(1.69421e-30 -2.81537e-18 0)
(0 -2.87869e-18 0)
(0 -2.87826e-18 0)
(0 -2.87795e-18 0)
(0 -2.9414e-18 0)
(0 -2.9411e-18 0)
(0 -3.00457e-18 0)
(1.69237e-30 -3.00427e-18 0)
(0 -3.00392e-18 0)
(0 -3.0672e-18 0)
(0 -3.13043e-18 0)
(0 -3.12994e-18 0)
(0 -3.12951e-18 0)
(0 -3.19273e-18 0)
(0 -3.25596e-18 0)
(1.69013e-30 -3.25558e-18 0)
(0 -3.25532e-18 0)
(0 -3.31861e-18 0)
(0 -3.31815e-18 0)
(0 -3.38123e-18 0)
(0 -3.4443e-18 0)
(0 -3.4438e-18 0)
(0 -3.44331e-18 0)
(0 -3.50631e-18 0)
(0 -3.56916e-18 0)
(0 -3.56847e-18 0)
(0 -3.63131e-18 0)
(0 -3.63061e-18 0)
(0 -3.69346e-18 0)
(0 -3.7563e-18 0)
(0 -3.75585e-18 0)
(0 -3.81901e-18 0)
(0 -3.81876e-18 0)
(0 -3.81839e-18 0)
(0 -3.88117e-18 0)
(0 -3.94363e-18 0)
(0 -4.00598e-18 0)
(0 -4.06838e-18 0)
(0 -4.06761e-18 0)
(0 -4.13033e-18 0)
(0 -4.12974e-18 0)
(0 -4.1925e-18 0)
(0 -4.25516e-18 0)
(0 -4.25448e-18 0)
(0 -4.317e-18 0)
(0 -4.37946e-18 0)
(0 -4.44184e-18 0)
(0 -4.44097e-18 0)
(0 -4.50328e-18 0)
(0 -4.56545e-18 0)
(0 -4.6276e-18 0)
(0 -4.68976e-18 0)
(0 -4.68881e-18 0)
(0 -4.75098e-18 0)
(0 -4.81298e-18 0)
(0 -4.87489e-18 0)
(0 -4.93679e-18 0)
(0 -4.99882e-18 0)
(0 -5.06095e-18 0)
(0 -5.06011e-18 0)
(0 -5.12222e-18 0)
(0 -5.18402e-18 0)
(0 -5.24558e-18 0)
(0 -5.37e-18 0)
(0 -5.43144e-18 0)
(0 -5.43004e-18 0)
(0 -5.49161e-18 0)
(0 -5.61599e-18 0)
(0 -5.67735e-18 0)
(0 -5.67592e-18 0)
(0 -5.80019e-18 0)
(0 -5.86142e-18 0)
(0 -5.92272e-18 0)
(0 -6.04676e-18 0)
(0 -6.0452e-18 0)
(0 -6.10627e-18 0)
(0 -6.2298e-18 0)
(0 -6.35309e-18 0)
(0 -6.41367e-18 0)
(0 -6.47435e-18 0)
(0 -6.53498e-18 0)
(0 -6.65822e-18 0)
(0 -6.78126e-18 0)
(0 -6.77916e-18 0)
(0 -6.90217e-18 0)
(0 -7.02489e-18 0)
(0 -7.08493e-18 0)
(0 -7.20741e-18 0)
(0 -7.32975e-18 0)
(0 -7.38959e-18 0)
(0 -7.51188e-18 0)
(0 -7.63397e-18 0)
(0 -7.69355e-18 0)
(0 -7.81531e-18 0)
(0 -7.9992e-18 0)
(0 -8.12064e-18 0)
(0 -8.17994e-18 0)
(0 -8.30137e-18 0)
(0 -8.42247e-18 0)
(0 -8.60544e-18 0)
(0 -8.78806e-18 0)
(0 -8.84637e-18 0)
(0 -9.02892e-18 0)
(0 -9.21115e-18 0)
(0 -9.33132e-18 0)
(0 -9.51331e-18 0)
(0 -9.63306e-18 0)
(0 -9.81443e-18 0)
(0 -1.00572e-17 0)
(0 -1.02377e-17 0)
(0 -1.0418e-17 0)
(0 -1.066e-17 0)
(0 -1.08399e-17 0)
(0 -1.10195e-17 0)
(0 -1.12603e-17 0)
(0 -1.15622e-17 0)
(0 -1.18019e-17 0)
(0 -1.20415e-17 0)
(0 -1.23421e-17 0)
(0 -1.25808e-17 0)
(0 -1.28804e-17 0)
(0 -1.32408e-17 0)
(0 -1.3539e-17 0)
(0 -1.3898e-17 0)
(0 -1.42561e-17 0)
(0 -1.46134e-17 0)
(0 -1.5092e-17 0)
(0 -1.55084e-17 0)
(0 -1.59239e-17 0)
(0 -1.63994e-17 0)
(0 -1.69345e-17 0)
(0 -1.7468e-17 0)
(0 -1.8e-17 0)
(0 -1.5757e-17 0)
(0 -2.62023e-17 0)
(0 -5.81728e-17 0)
(0 -1.40771e-16 0)
(0 -3.50779e-16 0)
(0 -8.97797e-16 0)
(0 -2.36179e-15 0)
(0 -6.44978e-15 0)
(0 -1.84986e-14 0)
(0 -5.581e-14 0)
(0 -1.79094e-13 0)
(0 -6.13255e-13 0)
(0 -2.17703e-12 0)
(0 -7.61569e-12 0)
(0 -3.06874e-11 0)
(0 -2.4689e-10 0)
(0 -1.42575e-09 0)
(0 -2.12332e-09 0)
(0 -4.40904e-09 0)
(0 -1.28345e-07 0)
(0 -8.85898e-07 0)
(0 -5.94314e-06 0)
(0 -7.09768e-05 0)
(0 -0.00316838 0)
(0 -1.2559 0)
(0 -6.72602 0)
(0 -5.72127 0)
(0 -3.38548 0)
(0 -2.64339 0)
(0 -2.2979 0)
(0 -1.91421 0)
(0 -1.88645 0)
(0 -1.79143 0)
(0 -1.70212 0)
(0 -1.61886 0)
(0 -1.54014 0)
(0 -1.46504 0)
(0 -1.39311 0)
(0 -1.32417 0)
(0 -1.25815 0)
(0 -1.19506 0)
(0 -1.13488 0)
(0 -1.07761 0)
(0 -1.02322 0)
(0 -0.971641 0)
(0 -0.922814 0)
(0 -0.876647 0)
(0 -0.833037 0)
(0 -0.791876 0)
(0 -0.753048 0)
(0 -0.716433 0)
(0 -0.681914 0)
(0 -0.649373 0)
(0 -0.618695 0)
(0 -0.58977 0)
(0 -0.562489 0)
(0 -0.536753 0)
(0 -0.512464 0)
(0 -0.489531 0)
(0 -0.467868 0)
(0 -0.447394 0)
(0 -0.428034 0)
(0 -0.409717 0)
(0 -0.392376 0)
(0 -0.37595 0)
(0 -0.360381 0)
(0 -0.345617 0)
(0 -0.331605 0)
(0 -0.318301 0)
(0 -0.305661 0)
(0 -0.293645 0)
(0 -0.282214 0)
(0 -0.271335 0)
(0 -0.260974 0)
(0 -0.251101 0)
(0 -0.241688 0)
(0 -0.232708 0)
(0 -0.224137 0)
(0 -0.215952 0)
(0 -0.208132 0)
(0 -0.200655 0)
(0 -0.193505 0)
(0 -0.186662 0)
(0 -0.180112 0)
(0 -0.173837 0)
(0 -0.167825 0)
(0 -0.162061 0)
(0 -0.156533 0)
(0 -0.151229 0)
(0 -0.146137 0)
(0 -0.141248 0)
(0 -0.136551 0)
(0 -0.132038 0)
(0 -0.127699 0)
(0 -0.123526 0)
(0 -0.119511 0)
(0 -0.115647 0)
(0 -0.111928 0)
(0 -0.108347 0)
(0 -0.104896 0)
(0 -0.101572 0)
(0 -0.098368 0)
(0 -0.0952789 0)
(0 -0.0922998 0)
(0 -0.0894262 0)
(0 -0.0866536 0)
(0 -0.0839777 0)
(0 -0.0813947 0)
(0 -0.0789007 0)
(0 -0.0764921 0)
(0 -0.0741656 0)
(0 -0.0719179 0)
(0 -0.0697459 0)
(0 -0.0676467 0)
(0 -0.0656176 0)
(0 -0.0636557 0)
(0 -0.0617587 0)
(0 -0.0599241 0)
(0 -0.0581496 0)
(0 -0.0564331 0)
(0 -0.0547723 0)
(0 -0.0531653 0)
(0 -0.0516103 0)
(0 -0.0501053 0)
(0 -0.0486487 0)
(0 -0.0472387 0)
(0 -0.0458738 0)
(0 -0.0445525 0)
(0 -0.0432731 0)
(0 -0.0420345 0)
(0 -0.0408351 0)
(0 -0.0396738 0)
(0 -0.0385492 0)
(0 -0.0374602 0)
(0 -0.0364056 0)
(0 -0.0353843 0)
(0 -0.0343953 0)
(0 -0.0334375 0)
(0 -0.03251 0)
(0 -0.0316117 0)
(0 -0.0307419 0)
(0 -0.0298995 0)
(0 -0.0290838 0)
(0 -0.0282939 0)
(0 -0.027529 0)
(0 -0.0267884 0)
(0 -0.0260712 0)
(0 -0.0253769 0)
(0 -0.0247046 0)
(0 -0.0240537 0)
(0 -0.0234235 0)
(0 -0.0228134 0)
(0 -0.0222228 0)
(0 -0.021651 0)
(0 -0.0210974 0)
(0 -0.0205616 0)
(0 -0.0200429 0)
(0 -0.0195407 0)
(0 -0.0190547 0)
(0 -0.0185841 0)
(0 -0.0181286 0)
(0 -0.0176876 0)
(0 -0.0172607 0)
(0 -0.0168474 0)
(0 -0.0164472 0)
(0 -0.0160597 0)
(0 -0.0156845 0)
(0 -0.0153212 0)
(0 -0.0149692 0)
(0 -0.0146284 0)
(0 -0.0142982 0)
(0 -0.0139782 0)
(0 -0.0136682 0)
(0 -0.0133678 0)
(0 -0.0130766 0)
(-9.28989e-18 -0.0127943 0)
(0 -0.0125205 0)
(0 -0.012255 0)
(0 -0.0119975 0)
(0 -0.0117476 0)
(0 -0.0115051 0)
(0 -0.0112697 0)
(0 -0.0110412 0)
(0 -0.0108193 0)
(0 -0.0106037 0)
(0 -0.0103942 0)
(0 -0.0101906 0)
(0 -0.00999266 0)
(0 -0.00980019 0)
(0 -0.00961298 0)
(0 -0.00943083 0)
(0 -0.00925355 0)
(0 -0.00908098 0)
(0 -0.00891293 0)
(0 -0.00874924 0)
(0 -0.00858976 0)
(0 -0.00843433 0)
(0 -0.00828281 0)
(0 -0.00813506 0)
(0 -0.00799096 0)
(0 -0.00785035 0)
(0 -0.00771314 0)
(0 -0.00757921 0)
(0 -0.00744843 0)
(0 -0.00732071 0)
(0 -0.00719594 0)
(0 -0.00707403 0)
(0 -0.00695488 0)
(0 -0.0068384 0)
(0 -0.00672451 0)
(0 -0.00661313 0)
(0 -0.00650417 0)
(0 -0.00639756 0)
(0 -0.00629323 0)
(0 -0.00619111 0)
(0 -0.00609113 0)
(0 -0.00599323 0)
(0 -0.00589735 0)
(0 -0.00580344 0)
(0 -0.00571143 0)
(0 -0.00562127 0)
(0 -0.00553291 0)
(0 -0.0054463 0)
(0 -0.00536139 0)
(0 -0.00527814 0)
(0 -0.0051965 0)
(0 -0.00511643 0)
(0 -0.00503789 0)
(0 -0.00496084 0)
(0 -0.00488524 0)
(0 -0.00481105 0)
(0 -0.00473824 0)
(0 -0.00466678 0)
(0 -0.00459663 0)
(0 -0.00452776 0)
(0 -0.00446014 0)
(0 -0.00439374 0)
(0 -0.00432853 0)
(0 -0.00426448 0)
(0 -0.00420156 0)
(0 -0.00413975 0)
(0 -0.00407902 0)
(0 -0.00401936 0)
(0 -0.00396072 0)
(0 -0.00390309 0)
(0 -0.00384645 0)
(0 -0.00379077 0)
(0 -0.00373603 0)
(0 -0.00368222 0)
(0 -0.0036293 0)
(0 -0.00357726 0)
(0 -0.00352609 0)
(0 -0.00347575 0)
(0 -0.00342623 0)
(0 -0.00337752 0)
(0 -0.00332959 0)
(0 -0.00328243 0)
(0 -0.00323601 0)
(0 -0.00319033 0)
(0 -0.00314536 0)
(0 -0.0031011 0)
(0 -0.00305751 0)
(0 -0.00301459 0)
(0 -0.00297233 0)
(0 -0.0029307 0)
(0 -0.00288968 0)
(0 -0.00284928 0)
(0 -0.00280946 0)
(0 -0.00277022 0)
(0 -0.00273154 0)
(0 -0.0026934 0)
(0 -0.00265579 0)
(0 -0.0026187 0)
(0 -0.00258212 0)
(0 -0.00254601 0)
(0 -0.00251038 0)
(0 -0.00247521 0)
(0 -0.00244048 0)
(0 -0.00240618 0)
(0 -0.0023723 0)
(0 -0.00233887 0)
(0 -0.00230612 0)
(0 -0.00226716 0)
(0 -0.00223793 0)
(0 -0.00220879 0)
(0 -0.00217767 0)
(0 -0.00214729 0)
(0 -0.0021175 0)
(0 -0.00208828 0)
(0 -0.00205959 0)
(0 -0.00203143 0)
(0 -0.00200375 0)
(0 -0.0019766 0)
(0 -0.00194988 0)
(0 -0.00192371 0)
(0 -0.00189788 0)
(0 -0.00187269 0)
(0 -0.00184766 0)
(0 -0.00182346 0)
(0 -0.00179911 0)
(-4.09452e-18 -0.00177598 0)
(0 -0.00175215 0)
(0 -0.00173034 0)
(0 -0.00170622 0)
(0 -0.00168561 0)
(0 -0.00166306 0)
(0 -0.00165199 0)
(0 -0.00162386 0)
(0 -0.00157543 0)
(0 -0.00145859 0)
(0 -0.000742694 0)
(0 -0.000497624 0)
(0 -0.00131274 0)
(0 -0.00151044 0)
(0 -0.0015497 0)
(0 -0.0015403 0)
(0 -0.00151529 0)
(0 -0.00149387 0)
(0 -0.00147049 0)
(0 -0.0014504 0)
(0 -0.00143275 0)
(0 -0.00141366 0)
(0 -0.00139286 0)
(0 -0.00137191 0)
(0 -0.00135165 0)
(0 -0.00133199 0)
(0 -0.00131271 0)
(0 -0.00129546 0)
(0 -0.00127794 0)
(0 -0.0012591 0)
(0 -0.00124105 0)
(0 -0.00122241 0)
(0 -0.0012039 0)
(0 -0.00118723 0)
(0 -0.00116991 0)
(0 -0.00115314 0)
(0 -0.00113724 0)
(0 -0.00111963 0)
(0 -0.00110277 0)
(0 -0.00108708 0)
(0 -0.00107032 0)
(0 -0.00105449 0)
(0 -0.00103954 0)
(0 -0.00102352 0)
(0 -0.00100833 0)
(0 -0.000992981 0)
(0 -0.000977535 0)
(0 -0.000963 0)
(0 -0.000947981 0)
(0 -0.000933799 0)
(0 -0.000919283 0)
(0 -0.000904824 0)
(0 -0.000890956 0)
(0 -0.000876603 0)
(0 -0.000863085 0)
(0 -0.000849204 0)
(0 -0.000835759 0)
(0 -0.000822545 0)
(0 -0.000808789 0)
(0 -0.000795828 0)
(0 -0.000783059 0)
(0 -0.000770104 0)
(0 -0.000757022 0)
(0 -0.000744575 0)
(0 -0.000732236 0)
(0 -0.000719475 0)
(0 -0.000707414 0)
(0 -0.000695315 0)
(0 -0.000682936 0)
(0 -0.000671244 0)
(0 -0.000659499 0)
(0 -0.00064747 0)
(0 -0.000635891 0)
(0 -0.000624571 0)
(0 -0.00061307 0)
(0 -0.000601596 0)
(0 -0.000590394 0)
(0 -0.000579358 0)
(0 -0.000568319 0)
(0 -0.000557237 0)
(0 -0.00054636 0)
(0 -0.000535712 0)
(0 -0.000524939 0)
(0 -0.00051423 0)
(0 -0.000503798 0)
(0 -0.000493342 0)
(0 -0.00048288 0)
(0 -0.000472592 0)
(0 -0.000462382 0)
(0 -0.000452194 0)
(0 -0.000442078 0)
(0 -0.000432047 0)
(0 -0.00042208 0)
(0 -0.000412163 0)
(0 -0.000402306 0)
(0 -0.000392512 0)
(0 -0.000382769 0)
(0 -0.000373079 0)
(0 -0.000363434 0)
(0 -0.000353844 0)
(0 -0.000344292 0)
(0 -0.000334783 0)
(0 -0.000325314 0)
(0 -0.000315877 0)
(0 -0.000306477 0)
(0 -0.0002971 0)
(0 -0.000287752 0)
(0 -0.000278424 0)
(0 -0.000269112 0)
(0 -0.000259815 0)
(0 -0.000250523 0)
(0 -0.000241235 0)
(0 -0.000231943 0)
(0 -0.000222641 0)
(0 -0.000213322 0)
(0 -0.000203979 0)
(0 -0.000194601 0)
(0 -0.00018518 0)
(0 -0.000175704 0)
(0 -0.000166159 0)
(0 -0.000156531 0)
(0 -0.0001468 0)
(0 -0.000136945 0)
(0 -0.00012694 0)
(0 -0.000116755 0)
(0 -0.000106353 0)
(0 -9.5692e-05 0)
(0 -8.47389e-05 0)
(0 -7.35207e-05 0)
(0 -6.25015e-05 0)
(0 -5.70217e-05 0)
(0 -1.54735e-05 0)
)
;

boundaryField
{
    inandouthalf11
    {
        type            cyclic;
    }
    inandouthalf12
    {
        type            cyclic;
    }
    inandouthalf21
    {
        type            cyclic;
    }
    inandouthalf22
    {
        type            cyclic;
    }
    top
    {
        type            zeroGradient;
    }
    walls
    {
        type            zeroGradient;
    }
    frontAndBackPlanes
    {
        type            empty;
    }
}


// ************************************************************************* //
