/*--------------------------------*- C++ -*----------------------------------*\
| =========                 |                                                 |
| \\      /  F ield         | OpenFOAM: The Open Source CFD Toolbox           |
|  \\    /   O peration     | Version:  2.1.1                                 |
|   \\  /    A nd           | Web:      www.OpenFOAM.org                      |
|    \\/     M anipulation  |                                                 |
\*---------------------------------------------------------------------------*/
FoamFile
{
    version     2.0;
    format      ascii;
    class       volTensorField;
    location    "100";
    object      Tauf;
}
// * * * * * * * * * * * * * * * * * * * * * * * * * * * * * * * * * * * * * //

dimensions      [0 2 -2 0 0 0 0];

internalField   nonuniform List<tensor> 
600
(
(0 8.66074e-09 0 8.66074e-09 9.67486e-14 0 0 0 0)
(0 -5.08792e-11 0 -5.08792e-11 3.15368e-14 0 0 0 0)
(0 1.16533e-11 0 1.16533e-11 1.94048e-16 0 0 0 0)
(0 5.65375e-12 0 5.65375e-12 4.28021e-16 0 0 0 0)
(-4.03897e-25 -1.40848e-12 0 -1.40848e-12 4.47307e-16 0 0 0 0)
(-4.03897e-25 6.87857e-13 0 6.87857e-13 5.16648e-16 0 0 0 0)
(-4.03897e-25 1.59476e-12 0 1.59476e-12 5.27258e-16 0 0 0 0)
(0 1.23328e-12 0 1.23328e-12 5.25971e-16 0 0 0 0)
(-4.03897e-25 1.1607e-12 0 1.1607e-12 5.24931e-16 0 0 0 0)
(0 1.23326e-12 0 1.23326e-12 5.185e-16 0 0 0 0)
(-4.03897e-25 1.23354e-12 0 1.23354e-12 5.07109e-16 0 0 0 0)
(0 1.26983e-12 0 1.26983e-12 4.93967e-16 0 0 0 0)
(-4.03897e-25 1.27002e-12 0 1.27002e-12 4.78758e-16 0 0 0 0)
(0 1.27024e-12 0 1.27024e-12 4.62531e-16 0 0 0 0)
(0 1.30658e-12 0 1.30658e-12 4.46134e-16 0 0 0 0)
(0 1.30678e-12 0 1.30678e-12 4.29133e-16 0 0 0 0)
(0 1.30694e-12 0 1.30694e-12 4.12214e-16 0 0 0 0)
(-4.03897e-25 1.34329e-12 0 1.34329e-12 3.95761e-16 0 0 0 0)
(0 1.37963e-12 0 1.37963e-12 3.79862e-16 0 0 0 0)
(0 1.34372e-12 0 1.34372e-12 3.63652e-16 0 0 0 0)
(0 1.38018e-12 0 1.38018e-12 3.48791e-16 0 0 0 0)
(-4.03897e-25 1.41666e-12 0 1.41666e-12 3.34524e-16 0 0 0 0)
(0 1.38082e-12 0 1.38082e-12 3.2007e-16 0 0 0 0)
(0 1.41731e-12 0 1.41731e-12 3.07046e-16 0 0 0 0)
(0 1.45386e-12 0 1.45386e-12 2.94439e-16 0 0 0 0)
(-4.03897e-25 1.45424e-12 0 1.45424e-12 2.8221e-16 0 0 0 0)
(0 1.45462e-12 0 1.45462e-12 2.70775e-16 0 0 0 0)
(0 1.45497e-12 0 1.45497e-12 2.59714e-16 0 0 0 0)
(0 1.49148e-12 0 1.49148e-12 2.49411e-16 0 0 0 0)
(0 1.52796e-12 0 1.52796e-12 2.39678e-16 0 0 0 0)
(0 1.52826e-12 0 1.52826e-12 2.30248e-16 0 0 0 0)
(0 1.52861e-12 0 1.52861e-12 2.21308e-16 0 0 0 0)
(0 1.56521e-12 0 1.56521e-12 2.13258e-16 0 0 0 0)
(0 1.56555e-12 0 1.56555e-12 2.05243e-16 0 0 0 0)
(0 1.56586e-12 0 1.56586e-12 1.97649e-16 0 0 0 0)
(4.03897e-25 1.60238e-12 0 1.60238e-12 1.90713e-16 0 0 0 0)
(0 1.63891e-12 0 1.63891e-12 1.84213e-16 0 0 0 0)
(0 1.63921e-12 0 1.63921e-12 1.77841e-16 0 0 0 0)
(0 1.63959e-12 0 1.63959e-12 1.71799e-16 0 0 0 0)
(0 1.67623e-12 0 1.67623e-12 1.66532e-16 0 0 0 0)
(0 1.67665e-12 0 1.67665e-12 1.61019e-16 0 0 0 0)
(0 1.71335e-12 0 1.71335e-12 1.56457e-16 0 0 0 0)
(4.03897e-25 1.71378e-12 0 1.71378e-12 1.51745e-16 0 0 0 0)
(0 1.71419e-12 0 1.71419e-12 1.47302e-16 0 0 0 0)
(0 1.75086e-12 0 1.75086e-12 1.43368e-16 0 0 0 0)
(0 1.78754e-12 0 1.78754e-12 1.39706e-16 0 0 0 0)
(0 1.78791e-12 0 1.78791e-12 1.36078e-16 0 0 0 0)
(0 1.78832e-12 0 1.78832e-12 1.32729e-16 0 0 0 0)
(0 1.82506e-12 0 1.82506e-12 1.29811e-16 0 0 0 0)
(0 1.86185e-12 0 1.86185e-12 1.2708e-16 0 0 0 0)
(4.03897e-25 1.86233e-12 0 1.86233e-12 1.24329e-16 0 0 0 0)
(0 1.86289e-12 0 1.86289e-12 1.2178e-16 0 0 0 0)
(0 1.89975e-12 0 1.89975e-12 1.19902e-16 0 0 0 0)
(0 1.90024e-12 0 1.90024e-12 1.17576e-16 0 0 0 0)
(0 1.93706e-12 0 1.93706e-12 1.15826e-16 0 0 0 0)
(0 1.97392e-12 0 1.97392e-12 1.14286e-16 0 0 0 0)
(0 1.97442e-12 0 1.97442e-12 1.12637e-16 0 0 0 0)
(0 1.97493e-12 0 1.97493e-12 1.11126e-16 0 0 0 0)
(0 2.01181e-12 0 2.01181e-12 1.10035e-16 0 0 0 0)
(0 2.04865e-12 0 2.04865e-12 1.09103e-16 0 0 0 0)
(0 2.04913e-12 0 2.04913e-12 1.07866e-16 0 0 0 0)
(0 2.086e-12 0 2.086e-12 1.07338e-16 0 0 0 0)
(0 2.0865e-12 0 2.0865e-12 1.0626e-16 0 0 0 0)
(0 2.12346e-12 0 2.12346e-12 1.0571e-16 0 0 0 0)
(0 2.16046e-12 0 2.16046e-12 1.05314e-16 0 0 0 0)
(0 2.16116e-12 0 2.16116e-12 1.04629e-16 0 0 0 0)
(0 2.19838e-12 0 2.19838e-12 1.04633e-16 0 0 0 0)
(0 2.1992e-12 0 2.1992e-12 1.04332e-16 0 0 0 0)
(0 2.19996e-12 0 2.19996e-12 1.04135e-16 0 0 0 0)
(0 2.23707e-12 0 2.23707e-12 1.04216e-16 0 0 0 0)
(0 2.27406e-12 0 2.27406e-12 1.04169e-16 0 0 0 0)
(0 2.31105e-12 0 2.31105e-12 1.04136e-16 0 0 0 0)
(0 2.34808e-12 0 2.34808e-12 1.04404e-16 0 0 0 0)
(0 2.34875e-12 0 2.34875e-12 1.0435e-16 0 0 0 0)
(0 2.38601e-12 0 2.38601e-12 1.04905e-16 0 0 0 0)
(0 2.38683e-12 0 2.38683e-12 1.04903e-16 0 0 0 0)
(0 2.42421e-12 0 2.42421e-12 1.05434e-16 0 0 0 0)
(0 2.46157e-12 0 2.46157e-12 1.05942e-16 0 0 0 0)
(0 2.46241e-12 0 2.46241e-12 1.06041e-16 0 0 0 0)
(0 2.49977e-12 0 2.49977e-12 1.06693e-16 0 0 0 0)
(0 2.53717e-12 0 2.53717e-12 1.07148e-16 0 0 0 0)
(0 2.57456e-12 0 2.57456e-12 1.07744e-16 0 0 0 0)
(0 2.57539e-12 0 2.57539e-12 1.07988e-16 0 0 0 0)
(0 2.61281e-12 0 2.61281e-12 1.08762e-16 0 0 0 0)
(0 2.65023e-12 0 2.65023e-12 1.09282e-16 0 0 0 0)
(0 2.68769e-12 0 2.68769e-12 1.09762e-16 0 0 0 0)
(0 2.7252e-12 0 2.7252e-12 1.10481e-16 0 0 0 0)
(0 2.72613e-12 0 2.72613e-12 1.10753e-16 0 0 0 0)
(0 2.76372e-12 0 2.76372e-12 1.1144e-16 0 0 0 0)
(0 2.80129e-12 0 2.80129e-12 1.11963e-16 0 0 0 0)
(0 2.83887e-12 0 2.83887e-12 1.12501e-16 0 0 0 0)
(0 2.8765e-12 0 2.8765e-12 1.12949e-16 0 0 0 0)
(0 2.91427e-12 0 2.91427e-12 1.13379e-16 0 0 0 0)
(0 2.95213e-12 0 2.95213e-12 1.14068e-16 0 0 0 0)
(0 2.95338e-12 0 2.95338e-12 1.14276e-16 0 0 0 0)
(0 2.99132e-12 0 2.99132e-12 1.14824e-16 0 0 0 0)
(0 3.02916e-12 0 3.02916e-12 1.15167e-16 0 0 0 0)
(0 3.06696e-12 0 3.06696e-12 1.15294e-16 0 0 0 0)
(0 3.14153e-12 0 3.14153e-12 1.15783e-16 0 0 0 0)
(0 3.17941e-12 0 3.17941e-12 1.16094e-16 0 0 0 0)
(0 3.18059e-12 0 3.18059e-12 1.16156e-16 0 0 0 0)
(0 3.21863e-12 0 3.21863e-12 1.16301e-16 0 0 0 0)
(0 3.29353e-12 0 3.29353e-12 1.16627e-16 0 0 0 0)
(0 3.33164e-12 0 3.33164e-12 1.16715e-16 0 0 0 0)
(0 3.33302e-12 0 3.33302e-12 1.16291e-16 0 0 0 0)
(0 3.40812e-12 0 3.40812e-12 1.16686e-16 0 0 0 0)
(0 3.44639e-12 0 3.44639e-12 1.16385e-16 0 0 0 0)
(0 3.48478e-12 0 3.48478e-12 1.15951e-16 0 0 0 0)
(0 3.56008e-12 0 3.56008e-12 1.16136e-16 0 0 0 0)
(0 3.56167e-12 0 3.56167e-12 1.15364e-16 0 0 0 0)
(0 3.60013e-12 0 3.60013e-12 1.14927e-16 0 0 0 0)
(0 3.67549e-12 0 3.67549e-12 1.14529e-16 0 0 0 0)
(0 3.75087e-12 0 3.75087e-12 1.1406e-16 0 0 0 0)
(0 3.7894e-12 0 3.7894e-12 1.13233e-16 0 0 0 0)
(0 3.82804e-12 0 3.82804e-12 1.1245e-16 0 0 0 0)
(0 3.86676e-12 0 3.86676e-12 1.11412e-16 0 0 0 0)
(0 3.9426e-12 0 3.9426e-12 1.10624e-16 0 0 0 0)
(0 4.01846e-12 0 4.01846e-12 1.09868e-16 0 0 0 0)
(0 4.02041e-12 0 4.02041e-12 1.07981e-16 0 0 0 0)
(0 4.09648e-12 0 4.09648e-12 1.06928e-16 0 0 0 0)
(0 4.17257e-12 0 4.17257e-12 1.05649e-16 0 0 0 0)
(0 4.21167e-12 0 4.21167e-12 1.03755e-16 0 0 0 0)
(0 4.28791e-12 0 4.28791e-12 1.02183e-16 0 0 0 0)
(0 4.36427e-12 0 4.36427e-12 1.00485e-16 0 0 0 0)
(0 4.40363e-12 0 4.40363e-12 9.83514e-17 0 0 0 0)
(0 4.48027e-12 0 4.48027e-12 9.65618e-17 0 0 0 0)
(0 4.55697e-12 0 4.55697e-12 9.44128e-17 0 0 0 0)
(0 4.5966e-12 0 4.5966e-12 9.17647e-17 0 0 0 0)
(0 4.67346e-12 0 4.67346e-12 8.93051e-17 0 0 0 0)
(0 4.78767e-12 0 4.78767e-12 8.67711e-17 0 0 0 0)
(0 4.86482e-12 0 4.86482e-12 8.3836e-17 0 0 0 0)
(0 4.90495e-12 0 4.90495e-12 8.06558e-17 0 0 0 0)
(0 4.98241e-12 0 4.98241e-12 7.77045e-17 0 0 0 0)
(0 5.05994e-12 0 5.05994e-12 7.41056e-17 0 0 0 0)
(0 5.17485e-12 0 5.17485e-12 7.06338e-17 0 0 0 0)
(0 5.28985e-12 0 5.28985e-12 6.71992e-17 0 0 0 0)
(0 5.33042e-12 0 5.33042e-12 6.27349e-17 0 0 0 0)
(0 5.44591e-12 0 5.44591e-12 5.89174e-17 0 0 0 0)
(0 5.56158e-12 0 5.56158e-12 5.46143e-17 0 0 0 0)
(0 5.64016e-12 0 5.64016e-12 4.97531e-17 0 0 0 0)
(0 5.7563e-12 0 5.7563e-12 4.52775e-17 0 0 0 0)
(0 5.8352e-12 0 5.8352e-12 3.99229e-17 0 0 0 0)
(0 5.95168e-12 0 5.95168e-12 3.4694e-17 0 0 0 0)
(0 6.10578e-12 0 6.10578e-12 2.94127e-17 0 0 0 0)
(0 6.2226e-12 0 6.2226e-12 2.33854e-17 0 0 0 0)
(0 6.33975e-12 0 6.33975e-12 1.71683e-17 0 0 0 0)
(0 6.49477e-12 0 6.49477e-12 1.13414e-17 0 0 0 0)
(0 6.61254e-12 0 6.61254e-12 4.88675e-18 0 0 0 0)
(0 6.73057e-12 0 6.73057e-12 -2.00356e-18 0 0 0 0)
(0 6.88647e-12 0 6.88647e-12 -9.24389e-18 0 0 0 0)
(0 7.08031e-12 0 7.08031e-12 -1.65102e-17 0 0 0 0)
(0 7.23684e-12 0 7.23684e-12 -2.43989e-17 0 0 0 0)
(0 7.39387e-12 0 7.39387e-12 -3.24836e-17 0 0 0 0)
(0 7.58905e-12 0 7.58905e-12 -4.0446e-17 0 0 0 0)
(0 7.74697e-12 0 7.74697e-12 -4.94651e-17 0 0 0 0)
(0 7.94314e-12 0 7.94314e-12 -5.8581e-17 0 0 0 0)
(0 8.1776e-12 0 8.1776e-12 -6.77313e-17 0 0 0 0)
(0 8.37477e-12 0 8.37477e-12 -7.78216e-17 0 0 0 0)
(0 8.61043e-12 0 8.61043e-12 -8.77643e-17 0 0 0 0)
(0 8.84663e-12 0 8.84663e-12 -9.82192e-17 0 0 0 0)
(0 9.08356e-12 0 9.08356e-12 -1.09363e-16 0 0 0 0)
(0 9.39713e-12 0 9.39713e-12 -1.20177e-16 0 0 0 0)
(0 9.67355e-12 0 9.67355e-12 -1.31985e-16 0 0 0 0)
(0 9.95086e-12 0 9.95086e-12 -1.4405e-16 0 0 0 0)
(0 1.02672e-11 0 1.02672e-11 -1.56574e-16 0 0 0 0)
(0 1.06227e-11 0 1.06227e-11 -1.69359e-16 0 0 0 0)
(0 1.09792e-11 0 1.09792e-11 -1.8254e-16 0 0 0 0)
(0 1.13371e-11 0 1.13371e-11 -1.96775e-16 0 0 0 0)
(0 1.18112e-11 0 1.18112e-11 -2.10575e-16 0 0 0 0)
(0 1.22874e-11 0 1.22874e-11 -2.25214e-16 0 0 0 0)
(0 1.2766e-11 0 1.2766e-11 -2.4052e-16 0 0 0 0)
(0 1.33243e-11 0 1.33243e-11 -2.55597e-16 0 0 0 0)
(0 1.38858e-11 0 1.38858e-11 -2.71595e-16 0 0 0 0)
(0 1.45278e-11 0 1.45278e-11 -2.87709e-16 0 0 0 0)
(0 1.52504e-11 0 1.52504e-11 -3.04959e-16 0 0 0 0)
(0 1.61705e-11 0 1.61705e-11 -3.23101e-16 0 0 0 0)
(0 1.74446e-11 0 1.74446e-11 -3.42001e-16 0 0 0 0)
(0 1.90762e-11 0 1.90762e-11 -3.632e-16 0 0 0 0)
(0 2.12637e-11 0 2.12637e-11 -3.85722e-16 0 0 0 0)
(0 2.40884e-11 0 2.40884e-11 -4.06173e-16 0 0 0 0)
(0 2.6769e-11 0 2.6769e-11 -4.19995e-16 0 0 0 0)
(0 2.75793e-11 0 2.75793e-11 -4.53549e-16 0 0 0 0)
(0 3.06503e-11 0 3.06503e-11 -6.10323e-16 0 0 0 0)
(0 6.29621e-11 0 6.29621e-11 -5.54986e-16 0 0 0 0)
(0 8.36285e-11 0 8.36285e-11 2.92539e-18 0 0 0 0)
(0 2.59784e-11 0 2.59784e-11 3.1986e-14 0 0 0 0)
(0 1.04453e-11 0 1.04453e-11 -7.224e-14 0 0 0 0)
(0 5.1833e-11 0 5.1833e-11 -6.26141e-12 0 0 0 0)
(0 5.29897e-11 0 5.29897e-11 -2.34186e-11 0 0 0 0)
(0 4.55269e-11 0 4.55269e-11 1.09267e-09 0 0 0 0)
(0 2.07902e-10 0 2.07902e-10 7.85046e-09 0 0 0 0)
(0 1.67588e-07 0 1.67588e-07 -5.58563e-08 0 0 0 0)
(0 0.000108166 0 0.000108166 -2.06511e-07 0 0 0 0)
(0 0.000542522 0 0.000542522 -2.98983e-08 0 0 0 0)
(0 0.00130826 0 0.00130826 9.17431e-07 0 0 0 0)
(0 0.00165037 0 0.00165037 4.69262e-07 0 0 0 0)
(0 0.00182339 0 0.00182339 -1.58449e-07 0 0 0 0)
(0 0.00192478 0 0.00192478 1.41556e-08 0 0 0 0)
(0 0.00198423 0 0.00198423 -1.65312e-08 0 0 0 0)
(0 0.00201653 0 0.00201653 1.6296e-09 0 0 0 0)
(0 0.00203222 0 0.00203222 2.14337e-10 0 0 0 0)
(0 0.00203655 0 0.00203655 -6.42799e-10 0 0 0 0)
(0 0.00203334 0 0.00203334 -3.91253e-10 0 0 0 0)
(0 0.00202508 0 0.00202508 3.28048e-10 0 0 0 0)
(0 0.00201346 0 0.00201346 8.62546e-10 0 0 0 0)
(0 0.00199963 0 0.00199963 1.05322e-09 0 0 0 0)
(0 0.00198437 0 0.00198437 1.03246e-09 0 0 0 0)
(0 0.00196823 0 0.00196823 9.52411e-10 0 0 0 0)
(0 0.00195159 0 0.00195159 8.92639e-10 0 0 0 0)
(0 0.00193471 0 0.00193471 8.75223e-10 0 0 0 0)
(0 0.00191776 0 0.00191776 8.95129e-10 0 0 0 0)
(0 0.00190089 0 0.00190089 9.39617e-10 0 0 0 0)
(0 0.00188415 0 0.00188415 9.96785e-10 0 0 0 0)
(0 0.00186761 0 0.00186761 1.05782e-09 0 0 0 0)
(0 0.00185129 0 0.00185129 1.11692e-09 0 0 0 0)
(0 0.00183522 0 0.00183522 1.17062e-09 0 0 0 0)
(0 0.0018194 0 0.0018194 1.21714e-09 0 0 0 0)
(0 0.00180382 0 0.00180382 1.25591e-09 0 0 0 0)
(0 0.00178849 0 0.00178849 1.28706e-09 0 0 0 0)
(0 0.00177338 0 0.00177338 1.31118e-09 0 0 0 0)
(0 0.00175851 0 0.00175851 1.32903e-09 0 0 0 0)
(0 0.00174384 0 0.00174384 1.3414e-09 0 0 0 0)
(0 0.00172938 0 0.00172938 1.34903e-09 0 0 0 0)
(0 0.0017151 0 0.0017151 1.35254e-09 0 0 0 0)
(0 0.00170099 0 0.00170099 1.35248e-09 0 0 0 0)
(0 0.00168705 0 0.00168705 1.34931e-09 0 0 0 0)
(0 0.00167327 0 0.00167327 1.34341e-09 0 0 0 0)
(0 0.00165962 0 0.00165962 1.33511e-09 0 0 0 0)
(0 0.0016461 0 0.0016461 1.32468e-09 0 0 0 0)
(0 0.00163271 0 0.00163271 1.3124e-09 0 0 0 0)
(0 0.00161943 0 0.00161943 1.29847e-09 0 0 0 0)
(0 0.00160626 0 0.00160626 1.28312e-09 0 0 0 0)
(0 0.00159319 0 0.00159319 1.26652e-09 0 0 0 0)
(0 0.0015802 0 0.0015802 1.24886e-09 0 0 0 0)
(0 0.00156731 0 0.00156731 1.23029e-09 0 0 0 0)
(0 0.00155449 0 0.00155449 1.21096e-09 0 0 0 0)
(0 0.00154174 0 0.00154174 1.19101e-09 0 0 0 0)
(0 0.00152906 0 0.00152906 1.17057e-09 0 0 0 0)
(0 0.00151645 0 0.00151645 1.14973e-09 0 0 0 0)
(0 0.0015039 0 0.0015039 1.12862e-09 0 0 0 0)
(0 0.0014914 0 0.0014914 1.10731e-09 0 0 0 0)
(0 0.00147895 0 0.00147895 1.0859e-09 0 0 0 0)
(0 0.00146655 0 0.00146655 1.06444e-09 0 0 0 0)
(0 0.00145419 0 0.00145419 1.04302e-09 0 0 0 0)
(0 0.00144188 0 0.00144188 1.02167e-09 0 0 0 0)
(0 0.00142961 0 0.00142961 1.00046e-09 0 0 0 0)
(0 0.00141737 0 0.00141737 9.79413e-10 0 0 0 0)
(0 0.00140517 0 0.00140517 9.58569e-10 0 0 0 0)
(0 0.001393 0 0.001393 9.37956e-10 0 0 0 0)
(0 0.00138086 0 0.00138086 9.17596e-10 0 0 0 0)
(0 0.00136875 0 0.00136875 8.97508e-10 0 0 0 0)
(0 0.00135667 0 0.00135667 8.77705e-10 0 0 0 0)
(0 0.00134461 0 0.00134461 8.582e-10 0 0 0 0)
(0 0.00133258 0 0.00133258 8.39e-10 0 0 0 0)
(0 0.00132057 0 0.00132057 8.2011e-10 0 0 0 0)
(0 0.00130858 0 0.00130858 8.01536e-10 0 0 0 0)
(0 0.00129661 0 0.00129661 7.83277e-10 0 0 0 0)
(0 0.00128466 0 0.00128466 7.65336e-10 0 0 0 0)
(0 0.00127272 0 0.00127272 7.47711e-10 0 0 0 0)
(0 0.0012608 0 0.0012608 7.30401e-10 0 0 0 0)
(0 0.0012489 0 0.0012489 7.13405e-10 0 0 0 0)
(0 0.00123702 0 0.00123702 6.9672e-10 0 0 0 0)
(0 0.00122515 0 0.00122515 6.80343e-10 0 0 0 0)
(0 0.00121329 0 0.00121329 6.64271e-10 0 0 0 0)
(0 0.00120144 0 0.00120144 6.48502e-10 0 0 0 0)
(0 0.00118961 0 0.00118961 6.33031e-10 0 0 0 0)
(0 0.00117779 0 0.00117779 6.17856e-10 0 0 0 0)
(0 0.00116597 0 0.00116597 6.02974e-10 0 0 0 0)
(0 0.00115417 0 0.00115417 5.88382e-10 0 0 0 0)
(0 0.00114238 0 0.00114238 5.74075e-10 0 0 0 0)
(0 0.0011306 0 0.0011306 5.60053e-10 0 0 0 0)
(0 0.00111883 0 0.00111883 5.4631e-10 0 0 0 0)
(0 0.00110707 0 0.00110707 5.32846e-10 0 0 0 0)
(0 0.00109531 0 0.00109531 5.19657e-10 0 0 0 0)
(0 0.00108356 0 0.00108356 5.0674e-10 0 0 0 0)
(0 0.00107182 0 0.00107182 4.94092e-10 0 0 0 0)
(0 0.00106009 0 0.00106009 4.81712e-10 0 0 0 0)
(0 0.00104836 0 0.00104836 4.69597e-10 0 0 0 0)
(0 0.00103664 0 0.00103664 4.57744e-10 0 0 0 0)
(0 0.00102493 0 0.00102493 4.4615e-10 0 0 0 0)
(0 0.00101322 0 0.00101322 4.34814e-10 0 0 0 0)
(0 0.00100151 0 0.00100151 4.23733e-10 0 0 0 0)
(0 0.000989817 0 0.000989817 4.12905e-10 0 0 0 0)
(0 0.000978125 0 0.000978125 4.02326e-10 0 0 0 0)
(0 0.000966438 0 0.000966438 3.91996e-10 0 0 0 0)
(0 0.000954755 0 0.000954755 3.81911e-10 0 0 0 0)
(0 0.000943077 0 0.000943077 3.72069e-10 0 0 0 0)
(0 0.000931403 0 0.000931403 3.62467e-10 0 0 0 0)
(0 0.000919733 0 0.000919733 3.53104e-10 0 0 0 0)
(0 0.000908067 0 0.000908067 3.43976e-10 0 0 0 0)
(0 0.000896405 0 0.000896405 3.3508e-10 0 0 0 0)
(0 0.000884747 0 0.000884747 3.26416e-10 0 0 0 0)
(0 0.000873092 0 0.000873092 3.17979e-10 0 0 0 0)
(0 0.00086144 0 0.00086144 3.09767e-10 0 0 0 0)
(0 0.000849791 0 0.000849791 3.01777e-10 0 0 0 0)
(0 0.000838145 0 0.000838145 2.94007e-10 0 0 0 0)
(0 0.000826503 0 0.000826503 2.86454e-10 0 0 0 0)
(0 0.000814863 0 0.000814863 2.79114e-10 0 0 0 0)
(0 0.000803225 0 0.000803225 2.71986e-10 0 0 0 0)
(0 0.00079159 0 0.00079159 2.65066e-10 0 0 0 0)
(0 0.000779957 0 0.000779957 2.58351e-10 0 0 0 0)
(0 0.000768326 0 0.000768326 2.51838e-10 0 0 0 0)
(0 0.000756698 0 0.000756698 2.45524e-10 0 0 0 0)
(0 0.000745071 0 0.000745071 2.39407e-10 0 0 0 0)
(0 0.000733446 0 0.000733446 2.33482e-10 0 0 0 0)
(0 0.000721823 0 0.000721823 2.27747e-10 0 0 0 0)
(0 0.000710201 0 0.000710201 2.22198e-10 0 0 0 0)
(0 0.000698581 0 0.000698581 2.16833e-10 0 0 0 0)
(0 0.000686962 0 0.000686962 2.11647e-10 0 0 0 0)
(0 0.000675344 0 0.000675344 2.06638e-10 0 0 0 0)
(0 0.000663727 0 0.000663727 2.01801e-10 0 0 0 0)
(0 0.000652111 0 0.000652111 1.97135e-10 0 0 0 0)
(0 0.000640496 0 0.000640496 1.92634e-10 0 0 0 0)
(0 0.000628882 0 0.000628882 1.88297e-10 0 0 0 0)
(0 0.000617269 0 0.000617269 1.84117e-10 0 0 0 0)
(0 0.000605655 0 0.000605655 1.80094e-10 0 0 0 0)
(0 0.000594043 0 0.000594043 1.76222e-10 0 0 0 0)
(0 0.00058243 0 0.00058243 1.72497e-10 0 0 0 0)
(0 0.000570817 0 0.000570817 1.68917e-10 0 0 0 0)
(0 0.000559205 0 0.000559205 1.65478e-10 0 0 0 0)
(0 0.000547592 0 0.000547592 1.62175e-10 0 0 0 0)
(0 0.00053598 0 0.00053598 1.59005e-10 0 0 0 0)
(0 0.000524366 0 0.000524366 1.55963e-10 0 0 0 0)
(0 0.000512753 0 0.000512753 1.53046e-10 0 0 0 0)
(0 0.000501139 0 0.000501139 1.50251e-10 0 0 0 0)
(0 0.000489524 0 0.000489524 1.47572e-10 0 0 0 0)
(0 0.000477908 0 0.000477908 1.45007e-10 0 0 0 0)
(0 0.000466292 0 0.000466292 1.42551e-10 0 0 0 0)
(0 0.000454675 0 0.000454675 1.402e-10 0 0 0 0)
(0 0.000443057 0 0.000443057 1.3795e-10 0 0 0 0)
(0 0.000431438 0 0.000431438 1.35797e-10 0 0 0 0)
(0 0.000419817 0 0.000419817 1.33738e-10 0 0 0 0)
(0 0.000408196 0 0.000408196 1.31768e-10 0 0 0 0)
(0 0.000396573 0 0.000396573 1.29883e-10 0 0 0 0)
(0 0.000384948 0 0.000384948 1.2808e-10 0 0 0 0)
(0 0.000373323 0 0.000373323 1.26354e-10 0 0 0 0)
(0 0.000361696 0 0.000361696 1.24703e-10 0 0 0 0)
(0 0.000350068 0 0.000350068 1.23121e-10 0 0 0 0)
(0 0.000338438 0 0.000338438 1.21606e-10 0 0 0 0)
(0 0.000326806 0 0.000326806 1.20154e-10 0 0 0 0)
(0 0.000315174 0 0.000315174 1.1876e-10 0 0 0 0)
(0 0.000303539 0 0.000303539 1.17423e-10 0 0 0 0)
(0 0.000291904 0 0.000291904 1.16138e-10 0 0 0 0)
(-3.51746e-17 0.000280266 0 0.000280266 1.14902e-10 0 0 0 0)
(0 0.000268628 0 0.000268628 1.13711e-10 0 0 0 0)
(0 0.000256987 0 0.000256987 1.12564e-10 0 0 0 0)
(0 0.000245346 0 0.000245346 1.11456e-10 0 0 0 0)
(0 0.000233703 0 0.000233703 1.10386e-10 0 0 0 0)
(0 0.000222059 0 0.000222059 1.09349e-10 0 0 0 0)
(0 0.000210413 0 0.000210413 1.08344e-10 0 0 0 0)
(0 0.000198766 0 0.000198766 1.07368e-10 0 0 0 0)
(0 0.000187118 0 0.000187118 1.06419e-10 0 0 0 0)
(0 0.000175469 0 0.000175469 1.05495e-10 0 0 0 0)
(0 0.000163818 0 0.000163818 1.04592e-10 0 0 0 0)
(0 0.000152167 0 0.000152167 1.0371e-10 0 0 0 0)
(0 0.000140515 0 0.000140515 1.02846e-10 0 0 0 0)
(0 0.000128861 0 0.000128861 1.02e-10 0 0 0 0)
(0 0.000117207 0 0.000117207 1.01168e-10 0 0 0 0)
(0 0.000105552 0 0.000105552 1.0035e-10 0 0 0 0)
(0 9.38965e-05 0 9.38965e-05 9.95438e-11 0 0 0 0)
(0 8.224e-05 0 8.224e-05 9.87488e-11 0 0 0 0)
(0 7.0583e-05 0 7.0583e-05 9.79637e-11 0 0 0 0)
(0 5.89253e-05 0 5.89253e-05 9.71873e-11 0 0 0 0)
(0 4.72672e-05 0 4.72672e-05 9.64188e-11 0 0 0 0)
(0 3.56086e-05 0 3.56086e-05 9.56575e-11 0 0 0 0)
(0 2.39496e-05 0 2.39496e-05 9.49024e-11 0 0 0 0)
(0 1.22902e-05 0 1.22902e-05 9.41527e-11 0 0 0 0)
(0 6.30612e-07 0 6.30612e-07 9.34081e-11 0 0 0 0)
(0 -1.10293e-05 0 -1.10293e-05 9.26684e-11 0 0 0 0)
(0 -2.26893e-05 0 -2.26893e-05 9.19329e-11 0 0 0 0)
(0 -3.43496e-05 0 -3.43496e-05 9.12012e-11 0 0 0 0)
(0 -4.60099e-05 0 -4.60099e-05 9.04731e-11 0 0 0 0)
(0 -5.76703e-05 0 -5.76703e-05 8.97483e-11 0 0 0 0)
(0 -6.93307e-05 0 -6.93307e-05 8.90265e-11 0 0 0 0)
(0 -8.09911e-05 0 -8.09911e-05 8.83079e-11 0 0 0 0)
(0 -9.26514e-05 0 -9.26514e-05 8.75921e-11 0 0 0 0)
(0 -0.000104312 0 -0.000104312 8.68794e-11 0 0 0 0)
(0 -0.000115972 0 -0.000115972 8.61697e-11 0 0 0 0)
(0 -0.000127632 0 -0.000127632 8.54628e-11 0 0 0 0)
(0 -0.000139292 0 -0.000139292 8.47589e-11 0 0 0 0)
(0 -0.000150951 0 -0.000150951 8.40582e-11 0 0 0 0)
(0 -0.000162611 0 -0.000162611 8.33605e-11 0 0 0 0)
(0 -0.00017427 0 -0.00017427 8.2666e-11 0 0 0 0)
(0 -0.000185928 0 -0.000185928 8.1975e-11 0 0 0 0)
(0 -0.000197587 0 -0.000197587 8.12876e-11 0 0 0 0)
(0 -0.000209245 0 -0.000209245 8.06035e-11 0 0 0 0)
(0 -0.000220903 0 -0.000220903 7.99231e-11 0 0 0 0)
(0 -0.000232561 0 -0.000232561 7.92466e-11 0 0 0 0)
(0 -0.000244218 0 -0.000244218 7.8574e-11 0 0 0 0)
(0 -0.000255875 0 -0.000255875 7.79055e-11 0 0 0 0)
(0 -0.000267531 0 -0.000267531 7.72415e-11 0 0 0 0)
(0 -0.000279187 0 -0.000279187 7.65816e-11 0 0 0 0)
(0 -0.000290843 0 -0.000290843 7.59261e-11 0 0 0 0)
(0 -0.000302499 0 -0.000302499 7.52751e-11 0 0 0 0)
(0 -0.000314154 0 -0.000314154 7.46288e-11 0 0 0 0)
(0 -0.000325808 0 -0.000325808 7.39873e-11 0 0 0 0)
(0 -0.000337463 0 -0.000337463 7.33506e-11 0 0 0 0)
(0 -0.000349116 0 -0.000349116 7.27187e-11 0 0 0 0)
(0 -0.00036077 0 -0.00036077 7.20916e-11 0 0 0 0)
(0 -0.000372423 0 -0.000372423 7.14699e-11 0 0 0 0)
(0 -0.000384076 0 -0.000384076 7.08533e-11 0 0 0 0)
(0 -0.000395728 0 -0.000395728 7.02418e-11 0 0 0 0)
(0 -0.00040738 0 -0.00040738 6.96355e-11 0 0 0 0)
(0 -0.000419032 0 -0.000419032 6.90347e-11 0 0 0 0)
(0 -0.000430684 0 -0.000430684 6.84393e-11 0 0 0 0)
(0 -0.000442335 0 -0.000442335 6.78495e-11 0 0 0 0)
(0 -0.000453986 0 -0.000453986 6.72653e-11 0 0 0 0)
(0 -0.000465636 0 -0.000465636 6.66868e-11 0 0 0 0)
(0 -0.000477287 0 -0.000477287 6.61142e-11 0 0 0 0)
(0 -0.000488937 0 -0.000488937 6.55476e-11 0 0 0 0)
(0 -0.000500587 0 -0.000500587 6.4987e-11 0 0 0 0)
(0 -0.000512237 0 -0.000512237 6.44325e-11 0 0 0 0)
(0 -0.000523886 0 -0.000523886 6.38842e-11 0 0 0 0)
(0 -0.000535536 0 -0.000535536 6.33425e-11 0 0 0 0)
(0 -0.000547185 0 -0.000547185 6.28077e-11 0 0 0 0)
(0 -0.000558835 0 -0.000558835 6.22794e-11 0 0 0 0)
(0 -0.000570484 0 -0.000570484 6.17581e-11 0 0 0 0)
(0 -0.000582134 0 -0.000582134 6.12438e-11 0 0 0 0)
(0 -0.000593783 0 -0.000593783 6.07368e-11 0 0 0 0)
(0 -0.000605433 0 -0.000605433 6.02373e-11 0 0 0 0)
(0 -0.000617083 0 -0.000617083 5.97458e-11 0 0 0 0)
(0 -0.000628733 0 -0.000628733 5.92621e-11 0 0 0 0)
(0 -0.000640384 0 -0.000640384 5.87864e-11 0 0 0 0)
(0 -0.000652035 0 -0.000652035 5.83193e-11 0 0 0 0)
(0 -0.000663686 0 -0.000663686 5.78611e-11 0 0 0 0)
(0 -0.000675338 0 -0.000675338 5.74118e-11 0 0 0 0)
(0 -0.000686991 0 -0.000686991 5.69719e-11 0 0 0 0)
(0 -0.000698644 0 -0.000698644 5.65421e-11 0 0 0 0)
(0 -0.000710298 0 -0.000710298 5.61227e-11 0 0 0 0)
(0 -0.000721953 0 -0.000721953 5.57143e-11 0 0 0 0)
(0 -0.000733609 0 -0.000733609 5.53179e-11 0 0 0 0)
(0 -0.000745265 0 -0.000745265 5.49341e-11 0 0 0 0)
(0 -0.000756924 0 -0.000756924 5.45638e-11 0 0 0 0)
(0 -0.000768583 0 -0.000768583 5.42084e-11 0 0 0 0)
(0 -0.000780244 0 -0.000780244 5.38691e-11 0 0 0 0)
(0 -0.000791906 0 -0.000791906 5.3548e-11 0 0 0 0)
(0 -0.00080357 0 -0.00080357 5.32465e-11 0 0 0 0)
(0 -0.000815236 0 -0.000815236 5.29672e-11 0 0 0 0)
(0 -0.000826904 0 -0.000826904 5.27125e-11 0 0 0 0)
(0 -0.000838574 0 -0.000838574 5.24865e-11 0 0 0 0)
(0 -0.000850247 0 -0.000850247 5.22923e-11 0 0 0 0)
(0 -0.000861921 0 -0.000861921 5.21368e-11 0 0 0 0)
(0 -0.000873599 0 -0.000873599 5.20231e-11 0 0 0 0)
(0 -0.000885279 0 -0.000885279 5.19609e-11 0 0 0 0)
(0 -0.000896963 0 -0.000896963 5.19517e-11 0 0 0 0)
(0 -0.00090865 0 -0.00090865 5.20088e-11 0 0 0 0)
(0 -0.00092034 0 -0.00092034 5.21312e-11 0 0 0 0)
(0 -0.000932034 0 -0.000932034 5.23541e-11 0 0 0 0)
(0 -0.000943732 0 -0.000943732 5.27187e-11 0 0 0 0)
(0 -0.000955434 0 -0.000955434 5.33414e-11 0 0 0 0)
(0 -0.00096714 0 -0.00096714 5.38752e-11 0 0 0 0)
(0 -0.000978851 0 -0.000978851 5.36307e-11 0 0 0 0)
(0 -0.000990568 0 -0.000990568 5.24811e-11 0 0 0 0)
(0 -0.00100229 0 -0.00100229 5.12184e-11 0 0 0 0)
(0 -0.00101402 0 -0.00101402 5.00434e-11 0 0 0 0)
(0 -0.00102575 0 -0.00102575 4.91164e-11 0 0 0 0)
(0 -0.00103749 0 -0.00103749 4.81304e-11 0 0 0 0)
(0 -0.00104924 0 -0.00104924 4.74556e-11 0 0 0 0)
(0 -0.00106099 0 -0.00106099 4.65875e-11 0 0 0 0)
(0 -0.00107275 0 -0.00107275 4.61631e-11 0 0 0 0)
(0 -0.00108452 0 -0.00108452 4.53059e-11 0 0 0 0)
(0 -0.0010963 0 -0.0010963 4.51682e-11 0 0 0 0)
(0 -0.00110809 0 -0.00110809 4.44364e-11 0 0 0 0)
(0 -0.00111989 0 -0.00111989 4.53665e-11 0 0 0 0)
(0 -0.0011317 0 -0.0011317 4.51178e-11 0 0 0 0)
(0 -0.00114352 0 -0.00114352 4.74505e-11 0 0 0 0)
(0 -0.00115535 0 -0.00115535 4.30078e-11 0 0 0 0)
(0 -0.0011672 0 -0.0011672 3.94626e-11 0 0 0 0)
(-5.70729e-17 -0.00117906 0 -0.00117906 1.26035e-11 0 0 0 0)
(0 -0.00119094 0 -0.00119094 -1.06721e-11 0 0 0 0)
(0 -0.00120283 0 -0.00120283 -5.52785e-11 0 0 0 0)
(0 -0.00121474 0 -0.00121474 -4.71654e-11 0 0 0 0)
(0 -0.00122667 0 -0.00122667 6.73877e-11 0 0 0 0)
(0 -0.00123861 0 -0.00123861 2.17817e-10 0 0 0 0)
(0 -0.00125058 0 -0.00125058 3.19618e-10 0 0 0 0)
(0 -0.00126258 0 -0.00126258 1.9538e-10 0 0 0 0)
(0 -0.0012746 0 -0.0012746 4.67136e-10 0 0 0 0)
(0 -0.00128664 0 -0.00128664 7.91499e-10 0 0 0 0)
(0 -0.00129871 0 -0.00129871 -2.45549e-09 0 0 0 0)
(0 -0.00131081 0 -0.00131081 -2.15822e-09 0 0 0 0)
(0 -0.00132292 0 -0.00132292 1.55023e-09 0 0 0 0)
(0 -0.00133484 0 -0.00133484 -1.17797e-09 0 0 0 0)
(0 -0.00134655 0 -0.00134655 -6.27367e-10 0 0 0 0)
(0 -0.00135827 0 -0.00135827 2.74955e-09 0 0 0 0)
(0 -0.00136998 0 -0.00136998 1.61142e-09 0 0 0 0)
(0 -0.0013817 0 -0.0013817 7.71785e-12 0 0 0 0)
(0 -0.00139341 0 -0.00139341 -1.03398e-09 0 0 0 0)
(0 -0.00140513 0 -0.00140513 -1.27595e-09 0 0 0 0)
(0 -0.00141684 0 -0.00141684 -1.93745e-10 0 0 0 0)
(0 -0.00142856 0 -0.00142856 1.00379e-09 0 0 0 0)
(0 -0.00144027 0 -0.00144027 1.0833e-09 0 0 0 0)
(0 -0.00145199 0 -0.00145199 5.43473e-10 0 0 0 0)
(0 -0.0014637 0 -0.0014637 -1.57823e-10 0 0 0 0)
(0 -0.00147542 0 -0.00147542 -6.76873e-10 0 0 0 0)
(0 -0.00148713 0 -0.00148713 -6.54953e-10 0 0 0 0)
(0 -0.00149885 0 -0.00149885 -2.33058e-10 0 0 0 0)
(0 -0.00151057 0 -0.00151057 3.54012e-10 0 0 0 0)
(0 -0.00152228 0 -0.00152228 5.73298e-10 0 0 0 0)
(0 -0.001534 0 -0.001534 2.94444e-10 0 0 0 0)
(0 -0.00154571 0 -0.00154571 1.07222e-10 0 0 0 0)
(0 -0.00155743 0 -0.00155743 -1.4012e-10 0 0 0 0)
(0 -0.00156914 0 -0.00156914 -3.94196e-10 0 0 0 0)
(0 -0.00158086 0 -0.00158086 -1.73733e-10 0 0 0 0)
(0 -0.00159258 0 -0.00159258 7.52473e-11 0 0 0 0)
(0 -0.00160429 0 -0.00160429 2.06386e-10 0 0 0 0)
(0 -0.00161601 0 -0.00161601 3.12817e-10 0 0 0 0)
(0 -0.00162773 0 -0.00162773 4.40795e-11 0 0 0 0)
(0 -0.00163944 0 -0.00163944 -1.72434e-10 0 0 0 0)
(0 -0.00165116 0 -0.00165116 -5.24681e-11 0 0 0 0)
(0 -0.00166288 0 -0.00166288 -7.83601e-11 0 0 0 0)
(0 -0.00167459 0 -0.00167459 -2.48028e-11 0 0 0 0)
(0 -0.00168631 0 -0.00168631 1.55706e-10 0 0 0 0)
(0 -0.00169803 0 -0.00169803 9.79626e-11 0 0 0 0)
(0 -0.00170974 0 -0.00170974 5.50228e-11 0 0 0 0)
(0 -0.00172146 0 -0.00172146 -1.09555e-11 0 0 0 0)
(0 -0.00173318 0 -0.00173318 -7.04935e-11 0 0 0 0)
(0 -0.0017449 0 -0.0017449 -6.92119e-12 0 0 0 0)
(0 -0.00175662 0 -0.00175662 1.13365e-11 0 0 0 0)
(0 -0.00176833 0 -0.00176833 7.49469e-11 0 0 0 0)
(0 -0.00178005 0 -0.00178005 4.49658e-11 0 0 0 0)
(0 -0.00179177 0 -0.00179177 6.28235e-13 0 0 0 0)
(0 -0.00180349 0 -0.00180349 1.64511e-11 0 0 0 0)
(0 -0.00181521 0 -0.00181521 -6.35148e-13 0 0 0 0)
(0 -0.00182693 0 -0.00182693 2.60311e-11 0 0 0 0)
(0 -0.00183865 0 -0.00183865 -2.03419e-11 0 0 0 0)
(0 -0.00185037 0 -0.00185037 2.16764e-11 0 0 0 0)
(0 -0.00186209 0 -0.00186209 1.06564e-10 0 0 0 0)
(0 -0.00187381 0 -0.00187381 4.10783e-12 0 0 0 0)
(0 -0.00188553 0 -0.00188553 -7.28948e-11 0 0 0 0)
(0 -0.00189725 0 -0.00189725 1.41997e-11 0 0 0 0)
(0 -0.00190897 0 -0.00190897 7.31516e-11 0 0 0 0)
(0 -0.00192069 0 -0.00192069 -1.0534e-11 0 0 0 0)
(0 -0.00193241 0 -0.00193241 -4.68783e-12 0 0 0 0)
(0 -0.00194413 0 -0.00194413 4.48492e-11 0 0 0 0)
(0 -0.00195585 0 -0.00195585 -1.49573e-11 0 0 0 0)
(0 -0.00196758 0 -0.00196758 1.67126e-11 0 0 0 0)
(0 -0.0019793 0 -0.0019793 5.23695e-11 0 0 0 0)
(0 -0.00199102 0 -0.00199102 -2.96359e-11 0 0 0 0)
(0 -0.00200275 0 -0.00200275 -9.97172e-12 0 0 0 0)
(0 -0.00201447 0 -0.00201447 6.54332e-11 0 0 0 0)
(0 -0.00202619 0 -0.00202619 1.76281e-11 0 0 0 0)
(0 -0.00203792 0 -0.00203792 -3.75753e-11 0 0 0 0)
(0 -0.00204964 0 -0.00204964 5.24936e-12 0 0 0 0)
(0 -0.00206137 0 -0.00206137 4.7778e-11 0 0 0 0)
(0 -0.00207309 0 -0.00207309 1.96037e-11 0 0 0 0)
(0 -0.00208482 0 -0.00208482 -1.90406e-11 0 0 0 0)
(0 -0.00209655 0 -0.00209655 -1.99187e-12 0 0 0 0)
(0 -0.00210828 0 -0.00210828 3.40981e-11 0 0 0 0)
(0 -0.00212001 0 -0.00212001 1.32792e-11 0 0 0 0)
(0 -0.00213173 0 -0.00213173 -1.38688e-11 0 0 0 0)
(0 -0.00214346 0 -0.00214346 1.56273e-11 0 0 0 0)
(0 -0.00215519 0 -0.00215519 2.42366e-11 0 0 0 0)
(0 -0.00216693 0 -0.00216693 -4.60939e-12 0 0 0 0)
(0 -0.00217866 0 -0.00217866 8.1085e-13 0 0 0 0)
(0 -0.00219039 0 -0.00219039 1.83417e-11 0 0 0 0)
(0 -0.00220213 0 -0.00220213 9.23379e-12 0 0 0 0)
(0 -0.00221386 0 -0.00221386 8.55794e-13 0 0 0 0)
(0 -0.0022256 0 -0.0022256 6.2443e-12 0 0 0 0)
(0 -0.00223734 0 -0.00223734 9.72485e-12 0 0 0 0)
(0 -0.00224908 0 -0.00224908 6.60154e-12 0 0 0 0)
(0 -0.00226082 0 -0.00226082 4.58177e-12 0 0 0 0)
(0 -0.00227256 0 -0.00227256 5.97187e-12 0 0 0 0)
(0 -0.0022843 0 -0.0022843 6.42943e-12 0 0 0 0)
(0 -0.00229605 0 -0.00229605 5.4903e-12 0 0 0 0)
(0 -0.0023078 0 -0.0023078 4.9167e-12 0 0 0 0)
(0 -0.00231955 0 -0.00231955 5.12541e-12 0 0 0 0)
(0 -0.00233131 0 -0.00233131 5.06842e-12 0 0 0 0)
(0 -0.00234306 0 -0.00234306 4.51432e-12 0 0 0 0)
(0 -0.00235482 0 -0.00235482 4.45724e-12 0 0 0 0)
(0 -0.00236659 0 -0.00236659 4.24492e-12 0 0 0 0)
(0 -0.00237836 0 -0.00237836 4.03288e-12 0 0 0 0)
(0 -0.00239013 0 -0.00239013 3.87282e-12 0 0 0 0)
(0 -0.00240191 0 -0.00240191 3.56728e-12 0 0 0 0)
(0 -0.0024137 0 -0.0024137 3.52913e-12 0 0 0 0)
(0 -0.00242549 0 -0.00242549 3.22401e-12 0 0 0 0)
(0 -0.00243729 0 -0.00243729 3.06332e-12 0 0 0 0)
(0 -0.00244911 0 -0.00244911 2.91887e-12 0 0 0 0)
(0 -0.00246093 0 -0.00246093 2.68049e-12 0 0 0 0)
(0 -0.00247277 0 -0.00247277 2.5541e-12 0 0 0 0)
(0 -0.00248463 0 -0.00248463 2.34493e-12 0 0 0 0)
(0 -0.0024965 0 -0.0024965 2.20212e-12 0 0 0 0)